/*--------------------------------*- C++ -*----------------------------------*\
| =========                 |                                                 |
| \\      /  F ield         | OpenFOAM: The Open Source CFD Toolbox           |
|  \\    /   O peration     | Version:  v2012                                 |
|   \\  /    A nd           | Website:  www.openfoam.com                      |
|    \\/     M anipulation  |                                                 |
\*---------------------------------------------------------------------------*/
FoamFile
{
    version     2.0;
    format      ascii;
    class       pointScalarField;
    location    "1";
    object      pEpsilonEq;
}
// * * * * * * * * * * * * * * * * * * * * * * * * * * * * * * * * * * * * * //

dimensions      [0 0 0 0 0 0 0];


internalField   nonuniform List<scalar> 
32200
(
4.12533e-06
4.33506e-06
1.48009e-05
3.45358e-05
3.62191e-05
4.09989e-06
3.02275e-06
3.91337e-06
2.41678e-06
1.53472e-05
1.45608e-05
2.6836e-05
5.98667e-05
9.23906e-06
1.17572e-05
7.99853e-06
8.17864e-06
3.50459e-06
3.82169e-06
3.59474e-05
2.28558e-05
5.59453e-06
4.5188e-05
2.41401e-05
1.71264e-05
3.6875e-05
7.81794e-06
8.70457e-06
4.54421e-05
1.79674e-06
1.50324e-05
1.63911e-05
2.39801e-05
2.25772e-05
1.5262e-05
6.25761e-06
2.21433e-05
3.85368e-06
1.2306e-05
3.52931e-06
9.68473e-07
4.32092e-06
4.12819e-06
1.23322e-05
8.35239e-07
4.04077e-05
5.10482e-05
3.25886e-05
9.12302e-06
4.30805e-07
4.12566e-06
4.12881e-06
4.14178e-06
4.15493e-06
4.17632e-06
4.1977e-06
4.21912e-06
4.2412e-06
4.26061e-06
4.27879e-06
4.29241e-06
4.30275e-06
4.31232e-06
4.31749e-06
4.32567e-06
4.30947e-06
4.29243e-06
4.27773e-06
4.26557e-06
4.25659e-06
4.24876e-06
4.24252e-06
4.23795e-06
4.23369e-06
4.22937e-06
4.22456e-06
4.22095e-06
4.2171e-06
4.21182e-06
4.2061e-06
4.19896e-06
4.19031e-06
4.17905e-06
4.16555e-06
4.15177e-06
4.13476e-06
4.11495e-06
4.09219e-06
4.06547e-06
4.03643e-06
4.00439e-06
3.96835e-06
3.92062e-06
3.6987e-06
3.56477e-06
3.41527e-06
3.2558e-06
3.10245e-06
2.98629e-06
2.94661e-06
3.02294e-06
3.23951e-06
3.58774e-06
4.0286e-06
4.50689e-06
4.96841e-06
5.31427e-06
1.54177e-05
1.54026e-05
1.56408e-05
1.60112e-05
1.64861e-05
1.70219e-05
1.74455e-05
1.78406e-05
1.82602e-05
1.84277e-05
1.83973e-05
1.81511e-05
1.7731e-05
1.71588e-05
8.99245e-06
9.94944e-06
1.08524e-05
1.17238e-05
1.25762e-05
1.34168e-05
1.42501e-05
1.50795e-05
1.59071e-05
1.67337e-05
1.75572e-05
1.84194e-05
1.92335e-05
2.00397e-05
2.08566e-05
2.16667e-05
2.24263e-05
2.32394e-05
2.40589e-05
2.48707e-05
2.5667e-05
2.64422e-05
2.71942e-05
2.79289e-05
2.86716e-05
2.94903e-05
3.05407e-05
3.22319e-05
3.45665e-05
2.10101e-05
1.49209e-05
1.17874e-05
9.53445e-06
7.79873e-06
6.52206e-06
5.79497e-06
5.73012e-06
6.33837e-06
7.56714e-06
9.40614e-06
1.20604e-05
1.63556e-05
2.4309e-05
3.36908e-05
2.99605e-05
2.93444e-05
2.86706e-05
2.79766e-05
2.72586e-05
2.65114e-05
2.57343e-05
2.4931e-05
2.41069e-05
2.32677e-05
2.24196e-05
2.15681e-05
2.07193e-05
1.98863e-05
1.90858e-05
1.82834e-05
1.74505e-05
1.66098e-05
1.57885e-05
1.50062e-05
1.41963e-05
1.33807e-05
1.25671e-05
1.17574e-05
1.09524e-05
1.01526e-05
9.36077e-06
8.66544e-06
7.34082e-06
6.82742e-06
6.2959e-06
5.78675e-06
5.2763e-06
4.75592e-06
4.23573e-06
3.72455e-06
3.2137e-06
2.71673e-06
2.23948e-06
1.77743e-06
1.3555e-06
1.01002e-06
8.23244e-07
8.69732e-07
1.11724e-06
1.44863e-06
1.81323e-06
2.18439e-06
2.55315e-06
2.90003e-06
3.23064e-06
3.54694e-06
3.83683e-06
4.0913e-06
4.31563e-06
4.50642e-06
4.65115e-06
4.73988e-06
4.75899e-06
4.73033e-06
4.61084e-06
4.42261e-06
4.14612e-06
3.91193e-06
3.7464e-06
2.81389e-06
2.93329e-06
2.51473e-06
2.55806e-06
2.63204e-06
2.73524e-06
2.82524e-06
2.89176e-06
2.95886e-06
3.02102e-06
3.05905e-06
3.08408e-06
3.11373e-06
3.14015e-06
3.16314e-06
3.1865e-06
3.20213e-06
3.2109e-06
3.22335e-06
3.22837e-06
3.2429e-06
3.2597e-06
3.27901e-06
3.29647e-06
3.31388e-06
3.33025e-06
3.34638e-06
3.36194e-06
3.3776e-06
3.39356e-06
3.40703e-06
3.42343e-06
3.44231e-06
3.46263e-06
3.48339e-06
3.50303e-06
3.51461e-06
3.54935e-06
3.57265e-06
3.59078e-06
3.60889e-06
3.62933e-06
3.65142e-06
3.67546e-06
3.70022e-06
3.72645e-06
3.75315e-06
3.78051e-06
3.80907e-06
3.83936e-06
3.86937e-06
3.89792e-06
3.92588e-06
3.95242e-06
3.97785e-06
4.00153e-06
4.02386e-06
4.04441e-06
4.0631e-06
4.07975e-06
4.09412e-06
4.10582e-06
4.11483e-06
4.12116e-06
4.12474e-06
4.1255e-06
3.67382e-06
3.78681e-06
3.89999e-06
3.99634e-06
4.06555e-06
4.10613e-06
4.11742e-06
4.10548e-06
4.075e-06
4.03215e-06
3.98217e-06
3.93233e-06
3.88962e-06
3.8608e-06
7.24235e-06
7.23708e-06
7.76224e-06
8.50173e-06
9.22055e-06
9.80827e-06
1.01577e-05
1.02756e-05
1.01689e-05
9.84751e-06
9.34231e-06
8.77119e-06
8.27684e-06
7.90644e-06
1.43913e-05
1.37098e-05
1.29826e-05
1.22831e-05
1.16841e-05
1.12196e-05
1.08785e-05
1.06709e-05
1.05423e-05
1.04864e-05
1.0479e-05
1.05036e-05
1.05523e-05
1.0602e-05
1.06367e-05
1.06476e-05
1.06319e-05
1.05852e-05
1.04969e-05
1.03622e-05
1.01762e-05
9.95366e-06
9.68902e-06
9.38132e-06
9.03885e-06
8.66952e-06
8.28437e-06
7.89842e-06
7.53199e-06
7.2141e-06
6.98323e-06
6.86996e-06
6.90089e-06
7.11848e-06
7.51086e-06
1.36138e-05
1.43328e-05
4.2438e-05
3.14506e-05
2.01532e-05
1.61724e-05
1.36361e-05
1.17805e-05
1.02421e-05
8.95645e-06
7.71686e-06
6.60738e-06
5.63132e-06
4.69372e-06
3.79919e-06
2.9765e-06
2.3007e-06
1.79796e-06
1.5624e-06
1.7454e-06
2.20084e-06
2.78847e-06
3.48351e-06
4.19563e-06
4.95184e-06
5.68833e-06
6.44188e-06
7.18291e-06
7.91809e-06
8.65415e-06
9.38646e-06
1.01251e-05
1.08213e-05
1.1459e-05
1.20903e-05
1.27277e-05
1.33335e-05
1.38949e-05
1.43499e-05
1.05612e-05
9.71088e-06
1.15423e-05
1.11184e-05
1.0486e-05
9.84551e-06
9.21744e-06
8.62702e-06
8.10931e-06
7.63753e-06
7.19528e-06
6.79005e-06
6.42225e-06
6.07678e-06
5.75036e-06
5.45224e-06
5.18444e-06
4.93578e-06
4.7076e-06
4.50253e-06
4.31951e-06
4.16373e-06
4.02417e-06
3.90465e-06
3.8065e-06
3.72815e-06
3.6693e-06
3.62832e-06
3.60269e-06
3.59164e-06
3.59286e-06
3.60519e-06
3.62785e-06
3.65534e-06
3.68602e-06
3.71814e-06
3.74769e-06
4.13412e-06
4.14591e-06
4.18547e-06
4.28849e-06
4.49714e-06
4.8374e-06
5.30819e-06
5.91397e-06
6.65492e-06
7.54393e-06
8.56652e-06
9.67855e-06
1.08859e-05
1.24418e-05
1.64729e-05
1.70287e-05
1.78553e-05
1.86393e-05
1.94221e-05
2.01906e-05
2.09394e-05
2.16309e-05
2.22979e-05
2.29427e-05
2.35057e-05
2.40087e-05
2.45429e-05
2.48401e-05
2.50477e-05
2.41687e-05
2.41311e-05
2.4081e-05
2.40544e-05
2.40483e-05
2.3969e-05
2.38634e-05
2.3771e-05
2.36709e-05
2.34775e-05
2.31718e-05
2.2853e-05
2.28143e-05
7.70387e-06
6.77026e-06
5.94833e-06
5.23513e-06
4.62893e-06
4.13146e-06
3.74904e-06
3.46969e-06
3.27389e-06
3.14839e-06
3.07531e-06
3.03985e-06
3.03091e-06
3.02379e-06
4.20971e-06
4.72455e-06
5.24568e-06
5.84056e-06
6.50693e-06
7.22019e-06
7.98226e-06
8.79474e-06
9.64673e-06
1.05376e-05
1.14231e-05
1.22909e-05
1.31433e-05
1.4197e-05
1.65393e-05
1.82971e-05
2.0156e-05
2.21246e-05
2.41822e-05
2.62899e-05
2.84362e-05
3.05838e-05
3.27378e-05
3.49312e-05
3.71307e-05
3.92748e-05
4.13477e-05
4.31706e-05
5.70472e-05
5.61217e-05
5.51709e-05
5.41435e-05
5.29339e-05
5.15309e-05
5.00564e-05
4.8436e-05
4.66905e-05
4.50492e-05
4.33053e-05
4.14533e-05
3.95476e-05
3.78985e-05
1.05108e-05
9.37766e-06
8.64259e-06
7.91358e-06
7.16472e-06
6.48828e-06
5.85055e-06
5.25542e-06
4.7116e-06
4.22059e-06
3.79526e-06
3.41427e-06
3.06836e-06
2.77083e-06
2.88955e-05
2.48654e-05
2.05579e-05
1.89439e-05
1.75098e-05
1.63684e-05
1.52635e-05
1.43543e-05
1.3536e-05
1.27819e-05
1.20874e-05
1.14449e-05
1.09043e-05
1.03858e-05
9.90938e-06
9.47275e-06
9.07435e-06
8.71008e-06
8.3867e-06
8.08439e-06
7.78475e-06
7.5126e-06
7.27265e-06
7.04826e-06
6.84406e-06
6.66208e-06
6.49461e-06
6.34062e-06
6.20432e-06
6.08022e-06
5.97912e-06
5.88946e-06
5.80764e-06
5.73443e-06
5.67845e-06
5.63999e-06
5.61865e-06
3.41762e-05
2.75774e-05
1.66112e-05
1.57328e-05
1.47533e-05
1.38877e-05
1.31458e-05
1.24537e-05
1.18572e-05
1.13387e-05
1.08818e-05
1.04724e-05
1.01021e-05
9.81237e-06
9.59752e-06
9.43674e-06
9.35762e-06
9.33914e-06
9.3543e-06
9.37874e-06
9.46458e-06
9.62298e-06
9.82986e-06
1.00885e-05
1.04025e-05
1.07597e-05
1.11859e-05
1.16833e-05
1.22185e-05
1.27998e-05
1.34639e-05
1.42162e-05
1.50343e-05
1.60212e-05
1.718e-05
1.86227e-05
2.07077e-05
4.6983e-05
4.85742e-05
5.01359e-05
5.15821e-05
5.27698e-05
5.3865e-05
5.49046e-05
5.56757e-05
5.61976e-05
5.66067e-05
5.68078e-05
5.67038e-05
5.63199e-05
5.91753e-05
3.34513e-05
3.14685e-05
2.95033e-05
2.74901e-05
2.55296e-05
2.3654e-05
2.17441e-05
1.99096e-05
1.81373e-05
1.64022e-05
1.48066e-05
1.33241e-05
1.19105e-05
1.08046e-05
2.40954e-05
2.48198e-05
2.49558e-05
2.50148e-05
2.50556e-05
2.51327e-05
2.51729e-05
2.51759e-05
2.51759e-05
2.51776e-05
2.51751e-05
2.51255e-05
2.50915e-05
2.61199e-05
2.18083e-05
2.06361e-05
2.015e-05
1.96219e-05
1.90578e-05
1.84528e-05
1.77761e-05
1.70448e-05
1.62886e-05
1.55282e-05
1.47212e-05
1.39073e-05
1.30814e-05
1.24332e-05
1.54693e-05
1.39957e-05
1.23867e-05
1.06475e-05
8.82856e-06
6.96833e-06
5.14683e-06
3.32813e-06
1.54616e-06
6.02663e-07
2.03803e-06
3.67711e-06
5.2886e-06
6.87318e-06
5.50905e-06
5.30339e-06
4.87683e-06
4.1732e-06
3.25432e-06
2.16486e-06
1.22568e-06
1.62357e-06
3.01349e-06
4.64235e-06
6.35155e-06
8.06394e-06
9.6863e-06
1.12882e-05
3.66687e-05
3.45324e-05
3.16737e-05
2.86537e-05
2.69565e-05
2.58599e-05
2.50435e-05
2.43542e-05
2.37157e-05
2.30902e-05
2.24588e-05
2.18126e-05
2.11479e-05
2.04612e-05
1.975e-05
1.89802e-05
1.82043e-05
1.7447e-05
1.6688e-05
1.59245e-05
1.51559e-05
1.43831e-05
1.36066e-05
1.28275e-05
1.20467e-05
1.12645e-05
1.04812e-05
9.69741e-06
8.69971e-06
7.41105e-06
7.76247e-06
8.46358e-06
9.35e-06
1.01853e-05
1.06876e-05
1.1077e-05
1.12396e-05
1.10181e-05
1.05769e-05
1.00184e-05
9.35867e-06
8.80899e-06
8.72087e-06
9.36327e-06
1.04652e-05
1.13436e-05
1.21627e-05
1.29636e-05
1.3756e-05
1.45424e-05
1.53234e-05
1.60981e-05
1.68646e-05
1.76207e-05
1.83638e-05
1.90919e-05
1.98069e-05
2.0522e-05
2.11773e-05
2.19787e-05
2.26795e-05
2.33021e-05
2.38874e-05
2.44457e-05
2.49873e-05
2.55327e-05
2.6124e-05
2.68452e-05
2.78654e-05
2.95461e-05
3.29005e-05
4.09924e-05
2.73198e-05
2.22319e-05
1.75037e-05
1.32491e-05
9.41746e-06
6.01515e-06
3.43669e-06
3.78432e-06
6.59111e-06
1.0088e-05
1.37765e-05
1.79237e-05
2.33739e-05
3.00317e-05
3.19941e-05
3.46429e-05
3.63928e-05
3.39089e-05
3.48558e-05
7.96984e-06
7.9443e-06
7.95491e-06
7.98148e-06
7.95035e-06
8.21325e-06
8.28038e-06
8.36666e-06
8.47543e-06
8.62069e-06
3.57978e-05
3.58675e-05
3.58902e-05
3.64497e-05
3.91049e-05
7.47742e-06
7.192e-06
6.68023e-06
5.92836e-06
5.29146e-06
4.85568e-06
4.33536e-06
3.69623e-06
3.18153e-06
2.78954e-06
2.27992e-06
1.78599e-06
1.33892e-06
9.53388e-07
7.3213e-07
8.12984e-07
1.19104e-06
1.58313e-06
1.89588e-06
2.40626e-06
2.90409e-06
3.30523e-06
3.62038e-06
3.91961e-06
4.31565e-06
4.6463e-06
4.83255e-06
5.03764e-06
5.16334e-06
5.2985e-06
5.05267e-06
4.92625e-06
4.43872e-06
3.69171e-06
2.85276e-06
2.24449e-06
3.27401e-06
3.99889e-06
4.77913e-06
5.82901e-06
6.65361e-06
7.64245e-06
8.86721e-06
9.60634e-06
1.06559e-05
1.17214e-05
1.2589e-05
1.41223e-05
1.50601e-05
1.44814e-05
1.44183e-05
1.3929e-05
1.33709e-05
1.28681e-05
1.238e-05
1.20711e-05
1.18421e-05
1.17051e-05
1.16174e-05
1.16164e-05
1.16134e-05
1.16409e-05
1.16505e-05
1.16441e-05
1.16344e-05
1.16078e-05
1.15477e-05
1.14365e-05
1.12929e-05
1.10891e-05
1.08532e-05
1.05766e-05
1.02478e-05
9.87465e-06
9.46771e-06
9.04043e-06
8.61039e-06
8.19931e-06
7.82784e-06
7.50557e-06
7.33608e-06
7.38133e-06
7.65274e-06
8.13301e-06
3.68205e-06
3.33787e-06
2.80682e-06
2.09128e-06
1.63889e-06
1.48561e-05
1.45694e-05
1.43891e-05
1.40483e-05
1.3838e-05
7.52907e-06
5.38443e-06
3.76708e-06
1.92701e-06
7.35523e-07
1.67462e-06
3.57866e-06
5.10714e-06
6.90216e-06
8.91331e-06
1.06311e-05
1.22852e-05
1.38481e-05
1.5283e-05
1.60296e-05
1.52043e-05
1.44064e-05
1.37163e-05
1.30019e-05
1.23814e-05
1.18325e-05
1.13221e-05
1.09e-05
1.06984e-05
1.04613e-05
1.0311e-05
1.02441e-05
1.01203e-05
1.017e-05
1.00308e-05
1.01067e-05
1.03201e-05
1.03654e-05
1.05293e-05
1.08107e-05
1.09599e-05
1.13856e-05
1.18512e-05
1.20362e-05
1.24318e-05
1.30429e-05
1.37388e-05
1.424e-05
1.51149e-05
1.59068e-05
1.69186e-05
1.80097e-05
1.92852e-05
2.11038e-05
2.45631e-05
2.38243e-05
2.37128e-05
2.38716e-05
2.32576e-05
2.26826e-05
2.22424e-05
2.16147e-05
2.13162e-05
2.07124e-05
2.01521e-05
1.94006e-05
1.83615e-05
1.67653e-05
1.70378e-05
1.69881e-05
1.69488e-05
1.68999e-05
1.66983e-05
2.47056e-05
2.45614e-05
2.45628e-05
2.43625e-05
2.37868e-05
2.31206e-05
2.3257e-05
2.32161e-05
2.30198e-05
2.29718e-05
2.2753e-05
2.28704e-05
2.27726e-05
2.2629e-05
2.26567e-05
2.27435e-05
2.27628e-05
2.29269e-05
2.26352e-05
1.68968e-05
1.37704e-05
1.13587e-05
9.19389e-06
8.13616e-06
7.28907e-06
6.30144e-06
5.22824e-06
4.5681e-06
3.77416e-06
3.27283e-06
2.63849e-06
2.00965e-06
1.78041e-06
1.77591e-06
1.8711e-06
2.28441e-06
2.82497e-06
3.43206e-06
4.03635e-06
4.61685e-06
5.33621e-06
6.03122e-06
6.75709e-06
7.53718e-06
8.20933e-06
8.92446e-06
9.5769e-06
1.02976e-05
1.10857e-05
1.18507e-05
1.25107e-05
1.31529e-05
1.38321e-05
1.46168e-05
1.5531e-05
1.53992e-05
1.55006e-05
1.59642e-05
1.64243e-05
1.69352e-05
1.74052e-05
1.76616e-05
1.82175e-05
1.84712e-05
1.82923e-05
1.8305e-05
1.81046e-05
1.71029e-05
2.55419e-05
2.54721e-05
2.5649e-05
2.56244e-05
2.45134e-05
1.48163e-05
1.48615e-05
1.48952e-05
1.49499e-05
1.50814e-05
1.37755e-05
1.18602e-05
9.66276e-06
7.64293e-06
5.47446e-06
3.60383e-06
1.80773e-06
1.36147e-06
2.52165e-06
3.76424e-06
4.84739e-06
5.63528e-06
6.14114e-06
6.37007e-06
6.25842e-06
6.3457e-06
6.37575e-06
6.41603e-06
6.47271e-06
6.51626e-06
6.63575e-06
6.72647e-06
6.84923e-06
7.00301e-06
7.17789e-06
7.30996e-06
7.56066e-06
7.76421e-06
7.94742e-06
8.15612e-06
8.51202e-06
8.75924e-06
9.01379e-06
9.49385e-06
9.83308e-06
1.0086e-05
1.05653e-05
1.11952e-05
1.16229e-05
1.20598e-05
1.27804e-05
1.30608e-05
1.40344e-05
1.49592e-05
1.56311e-05
1.68687e-05
1.77291e-05
1.88286e-05
2.00102e-05
2.22434e-05
2.29771e-05
2.32532e-05
2.28116e-05
2.26282e-05
2.3317e-05
2.3296e-05
2.35041e-05
2.34565e-05
2.34497e-05
2.3307e-05
2.31359e-05
2.31735e-05
2.21861e-05
5.65329e-06
5.70464e-06
5.8004e-06
5.93141e-06
6.10379e-06
2.21327e-05
2.20872e-05
2.21252e-05
2.19313e-05
2.1558e-05
6.14614e-06
5.58762e-06
5.02053e-06
4.44959e-06
3.86188e-06
3.40646e-06
3.10366e-06
2.96163e-06
2.96732e-06
3.07551e-06
3.2374e-06
3.41657e-06
3.5831e-06
3.71765e-06
3.77181e-06
3.7352e-06
3.69776e-06
3.66224e-06
3.63386e-06
3.6105e-06
3.60006e-06
3.59328e-06
3.6094e-06
3.64185e-06
3.68288e-06
3.75567e-06
3.85346e-06
3.96657e-06
4.10708e-06
4.26107e-06
4.45496e-06
4.69271e-06
4.91907e-06
5.18469e-06
5.4633e-06
5.81492e-06
6.16704e-06
6.54934e-06
6.9041e-06
7.37672e-06
7.85563e-06
8.46122e-06
8.91131e-06
9.47269e-06
1.00711e-05
1.07398e-05
1.13374e-05
1.18527e-05
1.21047e-05
1.32597e-05
1.44043e-05
1.51171e-05
1.5747e-05
1.65841e-05
1.73363e-05
1.81551e-05
1.90135e-05
1.95687e-05
2.00671e-05
2.10574e-05
2.16956e-05
2.18273e-05
2.19477e-05
3.82293e-06
3.82464e-06
3.82803e-06
3.83328e-06
3.84122e-06
1.1247e-05
1.1144e-05
1.09787e-05
1.07876e-05
1.08331e-05
3.88817e-06
3.92675e-06
3.97975e-06
4.04706e-06
4.11272e-06
4.17125e-06
4.2173e-06
4.24042e-06
4.23509e-06
4.19366e-06
4.11113e-06
3.98734e-06
3.81761e-06
3.62508e-06
3.48815e-06
3.43669e-06
3.44093e-06
3.44206e-06
3.44184e-06
3.44039e-06
3.43877e-06
3.43568e-06
3.43132e-06
3.4415e-06
3.44225e-06
3.45683e-06
3.47282e-06
3.47807e-06
3.50936e-06
3.51519e-06
3.55114e-06
3.57261e-06
3.5881e-06
3.61396e-06
3.61929e-06
3.59222e-06
3.64461e-06
3.62118e-06
3.64716e-06
3.67407e-06
3.50908e-06
3.51148e-06
3.3384e-06
3.25668e-06
3.09247e-06
2.73738e-06
2.27099e-06
1.91445e-06
1.31961e-06
1.45186e-06
2.11374e-06
2.74959e-06
3.39169e-06
4.0794e-06
4.86965e-06
5.52677e-06
6.29705e-06
7.08164e-06
7.8835e-06
8.92985e-06
9.76695e-06
1.07535e-05
1.16872e-05
3.48495e-06
3.48768e-06
3.48735e-06
3.48343e-06
3.48856e-06
2.3225e-06
2.02874e-06
1.59636e-06
1.05965e-06
7.80563e-07
4.30877e-06
4.28892e-06
4.27515e-06
4.26835e-06
4.25959e-06
4.2469e-06
4.24196e-06
4.23829e-06
4.23354e-06
4.23005e-06
4.23265e-06
4.23309e-06
4.2248e-06
4.22091e-06
4.22203e-06
4.2194e-06
4.20894e-06
4.20207e-06
4.1934e-06
4.18019e-06
4.1698e-06
4.15582e-06
4.12929e-06
4.11074e-06
4.08869e-06
4.04995e-06
4.01461e-06
3.97501e-06
3.93656e-06
3.52861e-06
3.53476e-06
3.56564e-06
3.59856e-06
3.63482e-06
3.66699e-06
3.69367e-06
3.72622e-06
3.75253e-06
3.79179e-06
3.8154e-06
3.83278e-06
3.86136e-06
3.88656e-06
3.91095e-06
3.93433e-06
3.95793e-06
3.98171e-06
4.00542e-06
4.02597e-06
4.04645e-06
4.06505e-06
4.082e-06
4.09578e-06
4.10745e-06
4.11727e-06
4.12426e-06
4.12773e-06
4.12854e-06
4.13024e-06
4.13244e-06
4.14438e-06
4.15409e-06
4.1751e-06
4.1959e-06
4.21213e-06
4.23263e-06
4.24968e-06
4.26594e-06
4.28245e-06
4.2955e-06
4.30273e-06
4.30244e-06
4.33811e-06
4.33636e-06
4.33424e-06
4.33163e-06
4.32722e-06
4.12538e-06
4.12624e-06
4.12697e-06
4.1276e-06
4.12765e-06
1.4837e-05
1.21721e-05
1.114e-05
9.84727e-06
8.50116e-06
7.24086e-06
6.2287e-06
5.25824e-06
4.46819e-06
3.77885e-06
3.14386e-06
2.52312e-06
1.97434e-06
1.53213e-06
1.21444e-06
9.79188e-07
6.65677e-07
1.01281e-06
1.36441e-05
1.35352e-05
1.33793e-05
1.2894e-05
1.17351e-05
4.01269e-06
3.61937e-06
2.99817e-06
2.05041e-06
1.07186e-06
2.53528e-05
3.02682e-05
4.05982e-05
4.0284e-05
3.76555e-05
3.51573e-05
3.27141e-05
3.02568e-05
2.78861e-05
2.54578e-05
2.31667e-05
2.12538e-05
1.97065e-05
1.78252e-05
1.55509e-05
1.36964e-05
4.71523e-05
4.64925e-05
4.61974e-05
4.5822e-05
4.47136e-05
2.79406e-05
3.68188e-05
5.32261e-05
5.57235e-05
5.51278e-05
5.48818e-05
5.45357e-05
5.39028e-05
5.30865e-05
5.23343e-05
5.12301e-05
4.98691e-05
4.85779e-05
4.7001e-05
4.50278e-05
4.25791e-05
5.93399e-05
5.86597e-05
5.83305e-05
5.79552e-05
5.69331e-05
2.42947e-05
2.61742e-05
3.47818e-05
3.81068e-05
3.99144e-05
4.15861e-05
4.31254e-05
4.46289e-05
4.60763e-05
4.71279e-05
4.79292e-05
4.90468e-05
4.9872e-05
5.05857e-05
5.11968e-05
5.13259e-05
3.71637e-05
3.67793e-05
3.63282e-05
3.5858e-05
3.47596e-05
1.11933e-05
9.46845e-06
9.96213e-06
1.11797e-05
1.26031e-05
1.40678e-05
1.56008e-05
1.70645e-05
1.8577e-05
2.02429e-05
2.20579e-05
2.39535e-05
2.58685e-05
2.76632e-05
2.94885e-05
3.14599e-05
9.07267e-06
8.90581e-06
8.72028e-06
8.33338e-06
7.52069e-06
3.80966e-07
4.13058e-07
5.18875e-07
8.57149e-07
1.1219e-06
1.47268e-06
1.85457e-06
2.2699e-06
2.73138e-06
3.27482e-06
3.88856e-06
4.53777e-06
5.24848e-06
6.12847e-06
7.14469e-06
8.21533e-06
3.00767e-06
2.7628e-06
2.26211e-06
1.49108e-06
6.92136e-07
2.40995e-05
1.71642e-05
1.28882e-05
1.00278e-05
8.01388e-06
6.68521e-06
6.06603e-06
6.21226e-06
7.10051e-06
8.60137e-06
1.06193e-05
1.32777e-05
1.72026e-05
2.45879e-05
2.48762e-05
1.90152e-05
1.47227e-05
1.1576e-05
9.30547e-06
7.7956e-06
7.07072e-06
7.1806e-06
8.11323e-06
9.77613e-06
1.2048e-05
1.51519e-05
1.96983e-05
2.64733e-05
2.49484e-05
1.99785e-05
1.59203e-05
1.27196e-05
1.03255e-05
8.70997e-06
7.92171e-06
8.01429e-06
8.98095e-06
1.07634e-05
1.32244e-05
1.66447e-05
2.125e-05
2.67196e-05
2.47503e-05
2.0397e-05
1.66163e-05
1.34814e-05
1.10632e-05
9.41818e-06
8.60882e-06
8.6994e-06
9.70089e-06
1.15105e-05
1.4107e-05
1.75379e-05
2.17858e-05
2.63818e-05
2.43865e-05
2.04646e-05
1.69456e-05
1.39312e-05
1.15467e-05
9.93558e-06
9.13656e-06
9.24218e-06
1.02748e-05
1.20694e-05
1.46945e-05
1.79743e-05
2.17957e-05
2.58232e-05
2.39011e-05
2.02944e-05
1.70119e-05
1.41453e-05
1.18253e-05
1.02939e-05
9.5094e-06
9.65111e-06
1.07018e-05
1.24621e-05
1.49826e-05
1.80762e-05
2.15518e-05
2.51862e-05
2.33236e-05
1.99593e-05
1.68935e-05
1.41984e-05
1.19898e-05
1.05596e-05
9.77793e-06
9.96392e-06
1.10352e-05
1.27604e-05
1.50919e-05
1.7962e-05
2.11401e-05
2.45017e-05
2.26773e-05
1.95079e-05
1.66371e-05
1.41121e-05
1.21406e-05
1.06952e-05
9.98486e-06
1.01603e-05
1.1188e-05
1.2882e-05
1.50547e-05
1.76981e-05
2.0627e-05
2.37835e-05
2.19816e-05
1.89771e-05
1.62792e-05
1.39432e-05
1.21309e-05
1.07593e-05
1.01273e-05
1.03037e-05
1.12619e-05
1.2852e-05
1.48915e-05
1.73316e-05
2.00506e-05
2.30413e-05
2.1253e-05
1.83999e-05
1.58774e-05
1.37194e-05
1.20105e-05
1.07773e-05
1.02084e-05
1.0385e-05
1.1282e-05
1.27528e-05
1.46454e-05
1.6901e-05
1.94381e-05
2.22847e-05
2.05039e-05
1.7797e-05
1.5441e-05
1.34404e-05
1.18622e-05
1.07578e-05
1.0249e-05
1.04267e-05
1.12589e-05
1.26125e-05
1.43507e-05
1.64375e-05
1.88114e-05
2.15213e-05
1.97419e-05
1.71788e-05
1.49778e-05
1.31316e-05
1.16987e-05
1.07188e-05
1.02627e-05
1.04388e-05
1.12072e-05
1.24465e-05
1.40317e-05
1.59702e-05
1.81868e-05
2.07562e-05
1.89708e-05
1.65523e-05
1.44947e-05
1.2804e-05
1.15249e-05
1.06733e-05
1.0262e-05
1.04323e-05
1.11374e-05
1.22622e-05
1.37217e-05
1.55123e-05
1.75797e-05
1.99873e-05
1.82024e-05
1.59098e-05
1.39946e-05
1.24613e-05
1.13369e-05
1.06178e-05
1.02685e-05
1.0426e-05
1.10538e-05
1.20717e-05
1.34302e-05
1.50905e-05
1.70417e-05
1.93555e-05
1.75012e-05
1.52733e-05
1.34929e-05
1.2104e-05
1.11219e-05
1.04942e-05
1.02588e-05
1.04079e-05
1.09569e-05
1.18401e-05
1.30381e-05
1.45561e-05
1.63913e-05
1.86601e-05
1.6832e-05
1.47046e-05
1.30671e-05
1.18189e-05
1.09549e-05
1.03965e-05
1.02462e-05
1.03946e-05
1.08671e-05
1.16388e-05
1.26788e-05
1.4033e-05
1.57089e-05
1.78464e-05
1.60886e-05
1.41219e-05
1.2654e-05
1.15567e-05
1.07964e-05
1.03315e-05
1.02658e-05
1.03962e-05
1.08008e-05
1.14514e-05
1.23518e-05
1.35459e-05
1.50597e-05
1.70521e-05
1.53028e-05
1.35476e-05
1.22424e-05
1.1289e-05
1.05806e-05
1.03211e-05
1.03113e-05
1.04819e-05
1.09003e-05
1.15302e-05
1.23847e-05
1.3503e-05
1.49081e-05
1.66901e-05
1.45508e-05
1.29096e-05
1.1725e-05
1.09401e-05
1.04987e-05
1.03245e-05
1.02527e-05
1.04108e-05
1.07351e-05
1.12338e-05
1.19462e-05
1.2931e-05
1.42395e-05
1.58991e-05
1.39574e-05
1.24396e-05
1.13932e-05
1.075e-05
1.04323e-05
1.02045e-05
1.024e-05
1.03546e-05
1.05637e-05
1.08979e-05
1.14139e-05
1.21918e-05
1.33218e-05
1.49898e-05
1.33403e-05
1.19125e-05
1.10248e-05
1.05034e-05
1.02227e-05
1.01713e-05
1.02276e-05
1.03402e-05
1.05067e-05
1.07599e-05
1.11629e-05
1.18029e-05
1.27724e-05
1.42656e-05
1.25812e-05
1.13032e-05
1.05763e-05
1.02141e-05
1.00972e-05
1.01281e-05
1.02226e-05
1.03338e-05
1.04572e-05
1.0628e-05
1.09134e-05
1.14072e-05
1.22141e-05
1.35494e-05
1.18481e-05
1.07211e-05
1.01617e-05
9.95626e-06
9.97019e-06
1.00849e-05
1.02195e-05
1.03294e-05
1.04106e-05
1.04995e-05
1.06659e-05
1.10116e-05
1.16566e-05
1.28371e-05
1.1133e-05
1.01617e-05
9.7702e-06
9.71549e-06
9.85015e-06
1.00452e-05
1.02177e-05
1.0326e-05
1.03672e-05
1.03764e-05
1.04248e-05
1.06216e-05
1.11025e-05
1.21242e-05
1.04297e-05
9.62062e-06
9.39604e-06
9.48775e-06
9.73711e-06
1.00097e-05
1.0217e-05
1.03235e-05
1.03283e-05
1.02614e-05
1.01937e-05
1.02401e-05
1.05516e-05
1.14059e-05
9.73303e-06
9.09717e-06
9.03688e-06
9.27161e-06
9.62947e-06
9.97893e-06
1.02175e-05
1.03221e-05
1.02949e-05
1.01568e-05
9.97533e-06
9.86963e-06
1.00037e-05
1.0675e-05
9.03819e-06
8.59416e-06
8.69087e-06
9.06685e-06
9.52505e-06
9.9528e-06
1.02191e-05
1.0323e-05
1.0268e-05
1.00661e-05
9.77442e-06
9.51564e-06
9.45939e-06
9.91968e-06
8.3466e-06
8.11146e-06
8.35405e-06
8.87326e-06
9.42331e-06
9.92442e-06
1.02203e-05
1.03304e-05
1.02516e-05
9.99594e-06
9.60294e-06
9.19307e-06
8.9309e-06
9.12237e-06
7.80106e-06
7.71576e-06
8.08956e-06
8.72522e-06
9.36191e-06
9.91156e-06
1.02407e-05
1.03637e-05
1.02747e-05
9.98882e-06
9.53933e-06
9.04001e-06
8.62733e-06
8.49709e-06
6.84965e-06
6.84831e-06
7.54198e-06
8.30447e-06
9.118e-06
9.77244e-06
1.02047e-05
1.03618e-05
1.03155e-05
1.00077e-05
9.47082e-06
8.77008e-06
8.04795e-06
7.4405e-06
6.37298e-06
6.45545e-06
7.27721e-06
8.07953e-06
8.94521e-06
9.64158e-06
1.01384e-05
1.0347e-05
1.03324e-05
1.00705e-05
9.55511e-06
8.85046e-06
8.03931e-06
7.3866e-06
5.90918e-06
6.10547e-06
6.95633e-06
7.88889e-06
8.75445e-06
9.5047e-06
1.00522e-05
1.03104e-05
1.03417e-05
1.0138e-05
9.67063e-06
8.99581e-06
8.13924e-06
7.39124e-06
5.46035e-06
5.79779e-06
6.65241e-06
7.6615e-06
8.56547e-06
9.36852e-06
9.96513e-06
1.02756e-05
1.03528e-05
1.02037e-05
9.7995e-06
9.1655e-06
8.32171e-06
7.49391e-06
5.01795e-06
5.45947e-06
6.39292e-06
7.41875e-06
8.37167e-06
9.21779e-06
9.85556e-06
1.02278e-05
1.03598e-05
1.02637e-05
9.92362e-06
9.3445e-06
8.54323e-06
7.6873e-06
4.57402e-06
5.10826e-06
6.12553e-06
7.18498e-06
8.17448e-06
9.05108e-06
9.73017e-06
1.01608e-05
1.03556e-05
1.03216e-05
1.00467e-05
9.53385e-06
8.78782e-06
7.94365e-06
4.13181e-06
4.76633e-06
5.85135e-06
6.95407e-06
7.97623e-06
8.88044e-06
9.59497e-06
1.00825e-05
1.03386e-05
1.03678e-05
1.01593e-05
9.71959e-06
9.0474e-06
8.24578e-06
3.7005e-06
4.43519e-06
5.57855e-06
6.7174e-06
7.77099e-06
8.69682e-06
9.44405e-06
9.98064e-06
1.02958e-05
1.03903e-05
1.02572e-05
9.89597e-06
9.30814e-06
8.56947e-06
3.28342e-06
4.1168e-06
5.31017e-06
6.47927e-06
7.55611e-06
8.50336e-06
9.28187e-06
9.86507e-06
1.02379e-05
1.03968e-05
1.03375e-05
1.00585e-05
9.55999e-06
8.89797e-06
2.88361e-06
3.81494e-06
5.05047e-06
6.24164e-06
7.3354e-06
8.3006e-06
9.10817e-06
9.73388e-06
1.01614e-05
1.03839e-05
1.03973e-05
1.02011e-05
9.79509e-06
9.21842e-06
2.51107e-06
3.53625e-06
4.80232e-06
6.00705e-06
7.11107e-06
8.09092e-06
8.92391e-06
9.58775e-06
1.00662e-05
1.03499e-05
1.04343e-05
1.03196e-05
1.00066e-05
9.52015e-06
2.17502e-06
3.28503e-06
4.56852e-06
5.77789e-06
6.88576e-06
7.87545e-06
8.72982e-06
9.42712e-06
9.95239e-06
1.02946e-05
1.04475e-05
1.04116e-05
1.01892e-05
9.79465e-06
1.89122e-06
3.06665e-06
4.35211e-06
5.55692e-06
6.66193e-06
7.6557e-06
8.52685e-06
9.25295e-06
9.8205e-06
1.02172e-05
1.04363e-05
1.04752e-05
1.03394e-05
1.00362e-05
1.6852e-06
2.89e-06
4.15708e-06
5.34575e-06
6.44006e-06
7.43396e-06
8.31746e-06
9.06669e-06
9.67078e-06
1.01174e-05
1.04e-05
1.0511e-05
1.04557e-05
1.02356e-05
1.57701e-06
2.76385e-06
3.99226e-06
5.1534e-06
6.22758e-06
7.21442e-06
8.10263e-06
8.87016e-06
9.50264e-06
9.99553e-06
1.03355e-05
1.05169e-05
1.05403e-05
1.04011e-05
1.58011e-06
2.69281e-06
3.85671e-06
4.97282e-06
6.02336e-06
6.99666e-06
7.88393e-06
8.66387e-06
9.32255e-06
9.85386e-06
1.02448e-05
1.0491e-05
1.05921e-05
1.05317e-05
1.69528e-06
2.6813e-06
3.75503e-06
4.81212e-06
5.82765e-06
6.78018e-06
7.66018e-06
8.45031e-06
9.1331e-06
9.69682e-06
1.01332e-05
1.04374e-05
1.06089e-05
1.06238e-05
1.89995e-06
2.72637e-06
3.69196e-06
4.68146e-06
5.66192e-06
6.59005e-06
7.50013e-06
8.28932e-06
8.98006e-06
9.56212e-06
1.0027e-05
1.03695e-05
1.05907e-05
1.0662e-05
2.10151e-06
2.81742e-06
3.69576e-06
4.62133e-06
5.52119e-06
6.43197e-06
7.30701e-06
8.08531e-06
8.78274e-06
9.38521e-06
9.88234e-06
1.02671e-05
1.05371e-05
1.06658e-05
2.39969e-06
2.96524e-06
3.72215e-06
4.55669e-06
5.37488e-06
6.24009e-06
7.06355e-06
7.83622e-06
8.54073e-06
9.16368e-06
9.69499e-06
1.01278e-05
1.04581e-05
1.06508e-05
2.73447e-06
3.15793e-06
3.77653e-06
4.50991e-06
5.29751e-06
6.1002e-06
6.89551e-06
7.65365e-06
8.35546e-06
8.98656e-06
9.53622e-06
9.9971e-06
1.03652e-05
1.06034e-05
3.0332e-06
3.36694e-06
3.88727e-06
4.53421e-06
5.25242e-06
6.00189e-06
6.75741e-06
7.49115e-06
8.18173e-06
8.81306e-06
9.37341e-06
9.85499e-06
1.02535e-05
1.05327e-05
3.33143e-06
3.59537e-06
4.0309e-06
4.59537e-06
5.24415e-06
5.93952e-06
6.65261e-06
7.35679e-06
8.03007e-06
8.65525e-06
9.21963e-06
9.71461e-06
1.01353e-05
1.04472e-05
3.62182e-06
3.83406e-06
4.2017e-06
4.69497e-06
5.27871e-06
5.91946e-06
6.58835e-06
7.25954e-06
7.91093e-06
8.52471e-06
9.08734e-06
9.58926e-06
1.00245e-05
1.03605e-05
3.89674e-06
4.07523e-06
4.39399e-06
4.83071e-06
5.35782e-06
5.94693e-06
6.57194e-06
7.20849e-06
7.83487e-06
8.43319e-06
8.98958e-06
9.49395e-06
9.93951e-06
1.02958e-05
4.14911e-06
4.31096e-06
4.60031e-06
4.99768e-06
5.48065e-06
6.02484e-06
6.60938e-06
7.2122e-06
7.81229e-06
8.39234e-06
8.93874e-06
9.44152e-06
9.89414e-06
1.02678e-05
4.37631e-06
4.53603e-06
4.81343e-06
5.18909e-06
5.64362e-06
6.15339e-06
6.70504e-06
7.27812e-06
7.8532e-06
8.41427e-06
8.94809e-06
9.44475e-06
9.89789e-06
1.02811e-05
4.57366e-06
4.7448e-06
5.0251e-06
5.39407e-06
5.83424e-06
6.32922e-06
6.86101e-06
7.41126e-06
7.96638e-06
8.51164e-06
9.03441e-06
9.52507e-06
9.97804e-06
1.03678e-05
4.73408e-06
4.93281e-06
5.23002e-06
5.60484e-06
6.04771e-06
6.54463e-06
7.06899e-06
7.61082e-06
8.15696e-06
8.69496e-06
9.21321e-06
9.70167e-06
1.0154e-05
1.05437e-05
4.84575e-06
5.0886e-06
5.42674e-06
5.82929e-06
6.28628e-06
6.78442e-06
7.31289e-06
7.85728e-06
8.40571e-06
8.94751e-06
9.47271e-06
9.97153e-06
1.04321e-05
1.08245e-05
4.90014e-06
5.20168e-06
5.58944e-06
6.03712e-06
6.52741e-06
7.04932e-06
7.59464e-06
8.15299e-06
8.7145e-06
9.27001e-06
9.81087e-06
1.0329e-05
1.0818e-05
1.12308e-05
4.8947e-06
5.25809e-06
5.70341e-06
6.20816e-06
6.74785e-06
7.31129e-06
7.89091e-06
8.47987e-06
9.0712e-06
9.65837e-06
1.02349e-05
1.07946e-05
1.13318e-05
1.17716e-05
4.81861e-06
5.26103e-06
5.7656e-06
6.32434e-06
6.91654e-06
7.52905e-06
8.15457e-06
8.7885e-06
9.42574e-06
1.00629e-05
1.06958e-05
1.13199e-05
1.19319e-05
1.2421e-05
4.67194e-06
5.18801e-06
5.7408e-06
6.34634e-06
6.9826e-06
7.63919e-06
8.31227e-06
8.99644e-06
9.68854e-06
1.03886e-05
1.10924e-05
1.18025e-05
1.25201e-05
1.30829e-05
4.42286e-06
4.99835e-06
5.62167e-06
6.27751e-06
6.96674e-06
7.6816e-06
8.41722e-06
9.17016e-06
9.93432e-06
1.07074e-05
1.14871e-05
1.22869e-05
1.31571e-05
1.38182e-05
1.51251e-05
1.55361e-05
1.63159e-05
1.70488e-05
1.77421e-05
1.83988e-05
1.90112e-05
1.95688e-05
2.00708e-05
2.05049e-05
2.08456e-05
2.11041e-05
2.12361e-05
2.11876e-05
1.41997e-05
1.46024e-05
1.53066e-05
1.59695e-05
1.65881e-05
1.71599e-05
1.76893e-05
1.81704e-05
1.85767e-05
1.89031e-05
1.91332e-05
1.92459e-05
1.92292e-05
1.91118e-05
1.33811e-05
1.38006e-05
1.44474e-05
1.50682e-05
1.56359e-05
1.61444e-05
1.66018e-05
1.69989e-05
1.73281e-05
1.75882e-05
1.77656e-05
1.78338e-05
1.77616e-05
1.76201e-05
1.26715e-05
1.30941e-05
1.36742e-05
1.42518e-05
1.47826e-05
1.52557e-05
1.56926e-05
1.60591e-05
1.63458e-05
1.65473e-05
1.66663e-05
1.66873e-05
1.65906e-05
1.64271e-05
1.20943e-05
1.25194e-05
1.30528e-05
1.35823e-05
1.40744e-05
1.45061e-05
1.48965e-05
1.52409e-05
1.54958e-05
1.56553e-05
1.57383e-05
1.57205e-05