/*--------------------------------*- C++ -*----------------------------------*\
| =========                 |                                                 |
| \\      /  F ield         | OpenFOAM: The Open Source CFD Toolbox           |
|  \\    /   O peration     | Version:  v2012                                 |
|   \\  /    A nd           | Website:  www.openfoam.com                      |
|    \\/     M anipulation  |                                                 |
\*---------------------------------------------------------------------------*/
FoamFile
{
    version     2.0;
    format      ascii;
    class       volVectorField;
    location    "4";
    object      D;
}
// * * * * * * * * * * * * * * * * * * * * * * * * * * * * * * * * * * * * * //

dimensions      [0 1 0 0 0 0 0];


internalField   nonuniform List<vector> 
7666
(
(0.00148529 -4.65109e-06 0)
(0.00156457 -3.98862e-05 0)
(0.000383991 -0.000737101 0)
(0.00144866 -7.31298e-05 0)
(0.000947483 -0.000238686 0)
(0.000710649 -0.000394641 0)
(0.00190877 -7.16815e-05 0)
(0.00148205 -8.76844e-05 0)
(0.00051746 -0.000526445 0)
(0.00188315 -5.78165e-05 0)
(0.00147141 -3.11023e-05 0)
(0.0016909 -0.000144251 0)
(0.00148275 -8.07013e-05 0)
(0.00159088 -6.07864e-05 0)
(0.00194174 -5.13589e-05 0)
(0.000772944 -0.000446188 0)
(0.00148688 -8.50186e-05 0)
(0.000872726 -0.000325324 0)
(0.00157051 -0.000141889 0)
(0.00170379 -3.97031e-05 0)
(0.00164447 -9.23637e-06 0)
(0.00122128 -0.000177617 0)
(0.00158315 -7.04527e-05 0)
(0.00139543 -6.248e-05 0)
(0.000664234 -0.000436508 0)
(0.00194115 -4.98714e-05 0)
(0.000649458 -0.000449188 0)
(0.00142669 -2.75871e-05 0)
(0.00148732 -8.20389e-05 0)
(0.00179793 -0.000173196 0)
(0.00170349 -0.000203307 0)
(0.000879689 -0.000318901 0)
(0.00142852 -2.54986e-05 0)
(0.00182153 -0.000131604 0)
(0.00141131 -4.34068e-05 0)
(0.00163698 -3.14117e-05 0)
(0.00164202 -2.8857e-05 0)
(0.00174969 -0.000172309 0)
(0.000886534 -0.000292607 0)
(0.00184138 -6.32441e-05 0)
(0.00113268 -0.00017989 0)
(0.000215987 -0.000830205 0)
(4.2989e-05 -0.000908267 0)
(0.00138103 -4.27796e-05 0)
(0.000113806 -0.000907055 0)
(0.00192146 -6.43155e-05 0)
(0.000655276 -0.000432287 0)
(0.00113514 -0.000172298 0)
(0.00107402 -0.00017831 0)
(0.0015495 -5.73716e-06 0)
(0.00142702 -2.69595e-05 0)
(0.0013157 -0.000201475 0)
(0.00191779 -7.58074e-05 0)
(0.000534443 -0.00051431 0)
(0.00160827 -3.9298e-06 0)
(0.000776446 -0.000452842 0)
(0.00154419 -8.05586e-06 0)
(0.0015491 -6.9591e-06 0)
(0.00067307 -0.000447741 0)
(0.000704944 -0.000398323 0)
(0.00155573 -1.62646e-05 0)
(0.0017534 -0.000174423 0)
(0.00151514 -6.92445e-05 0)
(0.00151026 -7.16896e-05 0)
(0.00152871 -1.00832e-05 0)
(0.00107882 -0.000170662 0)
(0.00185628 -3.46313e-05 0)
(0.00153406 -9.7562e-06 0)
(0.000684871 -0.000478231 0)
(0.000677833 -0.000440873 0)
(0.000659692 -0.000494475 0)
(0.00198043 -1.11502e-05 0)
(0.00197679 -1.05413e-05 0)
(0.00183947 -0.000159798 0)
(0.0018329 -0.000163692 0)
(0.00193972 -6.68836e-05 0)
(8.87516e-05 -0.000938919 0)
(0.00155856 -5.87658e-05 0)
(0.00155397 -6.14015e-05 0)
(0.00155707 -1.7723e-05 0)
(0.00183422 -9.23709e-05 0)
(0.00194136 -2.26838e-05 0)
(0.00129325 -7.2102e-05 0)
(5.7698e-05 -0.000908605 0)
(0.00162977 -0.000176107 0)
(0.00140638 -0.000228169 0)
(0.00140308 -0.000223947 0)
(0.00125023 -0.000194695 0)
(0.0011048 -0.00016695 0)
(0.00174763 -0.000185284 0)
(0.00169159 -8.39637e-05 0)
(0.00169877 -8.48211e-05 0)
(0.00132122 -0.000243313 0)
(0.000536246 -0.000575846 0)
(0.000356926 -0.00065695 0)
(0.000908723 -0.000305889 0)
(0.00142505 -4.32254e-05 0)
(0.000407569 -0.000729055 0)
(0.00157125 -0.000145846 0)
(0.00171104 -3.76281e-05 0)
(0.00131261 -0.000241549 0)
(0.00180609 -0.000172645 0)
(0.00141501 -2.91397e-05 0)
(0.000315431 -0.000762822 0)
(0.00131198 -7.29381e-05 0)
(0.000943379 -0.000268284 0)
(0.000143307 -0.000877948 0)
(0.000992863 -0.000218066 0)
(0.00191653 -6.98059e-05 0)
(0.00132467 -0.000213309 0)
(0.00149921 -5.73261e-05 0)
(0.001088 -0.000173328 0)
(0.00149705 -3.73185e-05 0)
(0.00156241 -1.49055e-05 0)
(0.00146581 -2.8405e-05 0)
(0.000890932 -0.000273356 0)
(0.00143768 -2.67639e-05 0)
(0.00139236 -6.80702e-05 0)
(0.00171131 -0.000173664 0)
(0.00171214 -0.000169692 0)
(0.000684776 -0.000413444 0)
(0.0018883 -0.000128971 0)
(0.00172813 -0.00012066 0)
(0.0019289 -5.09872e-05 0)
(0.00140452 -5.92432e-05 0)
(0.00155513 -7.11606e-07 0)
(0.00100439 -0.00021324 0)
(0.00118837 -0.000144955 0)
(0.00130342 -8.53143e-05 0)
(0.00160386 -8.96112e-05 0)
(0.000755129 -0.000474774 0)
(0.00149855 -0.000183068 0)
(0.00170179 -1.92796e-05 0)
(3.211e-05 -0.000960136 0)
(0.00172613 -0.000123873 0)
(0.000957156 -0.000264536 0)
(0.00184149 -8.95203e-05 0)
(0.0018423 -6.50588e-05 0)
(0.00165007 -6.76652e-05 0)
(0.00143859 -5.56267e-05 0)
(0.00128856 -9.00678e-05 0)
(0.00195444 -2.28586e-05 0)
(0.00187023 -7.62089e-06 0)
(0.00187872 -6.59032e-06 0)
(0.00184942 -3.65034e-05 0)
(0.00175459 -5.66937e-05 0)
(0.00190449 -7.05088e-05 0)
(0.00196713 -2.37045e-05 0)
(0.00147816 -8.51541e-06 0)
(0.00153907 -0.00010958 0)
(0.00189059 -5.73642e-05 0)
(0.00105783 -0.00020386 0)
(0.00154967 -1.94034e-05 0)
(0.00117876 -0.000149443 0)
(0.0017899 -2.76892e-05 0)
(0.00179838 -2.63818e-05 0)
(0.00115782 -0.000157319 0)
(0.00123331 -0.000107775 0)
(0.00139518 -6.92509e-05 0)
(0.00186539 -0.000107782 0)
(0.00034029 -0.000741264 0)
(0.000183769 -0.0008392 0)
(0.00123518 -0.00017173 0)
(0.000149032 -0.000872425 0)
(0.000322104 -0.00076044 0)
(0.000331317 -0.000754487 0)
(0.0013853 -7.21828e-05 0)
(0.00153618 -7.17149e-06 0)
(0.00153862 -8.24979e-06 0)
(0.000329242 -0.000749084 0)
(0.00153354 -3.81513e-05 0)
(0.00147284 -2.62183e-05 0)
(0.00132038 -0.000159932 0)
(0.00147745 -0.000196531 0)
(0.00106229 -0.00020593 0)
(0.00160262 -4.08306e-06 0)
(0.00110225 -0.00017481 0)
(0.00030163 -0.000710699 0)
(0.0016516 -0.000201314 0)
(0.00143963 -7.58562e-05 0)
(0.00123778 -0.000160545 0)
(0.00144077 -2.54902e-05 0)
(0.00138588 -0.000163936 0)
(0.00141625 -5.00549e-05 0)
(0.00109561 -0.000161534 0)
(0.000891172 -0.000314094 0)
(0.0019687 -3.21777e-06 0)
(0.00180795 -0.000189973 0)
(0.000701374 -0.000421746 0)
(0.0018258 -0.000116237 0)
(0.0015266 -4.05081e-05 0)
(0.00177741 -6.80006e-05 0)
(0.0017796 -6.55543e-05 0)
(0.00167147 -6.59731e-05 0)
(0.00100987 -0.000205995 0)
(0.000386491 -0.000670318 0)
(0.00155625 -4.97313e-05 0)
(0.00193063 -7.18022e-05 0)
(0.00190945 -6.74911e-05 0)
(0.00135993 -0.000148051 0)
(0.00109972 -0.000178266 0)
(0.00144618 -2.4327e-05 0)
(0.00165949 -0.000198099 0)
(0.000925578 -0.000277197 0)
(0.00171533 -1.35179e-05 0)
(0.000281548 -0.000787507 0)
(0.00180285 -3.38465e-05 0)
(0.00122534 -0.000141948 0)
(0.001465 -2.16468e-05 0)
(0.00140288 -4.64531e-05 0)
(0.000499608 -0.000577497 0)
(0.00147201 -2.06152e-05 0)
(0.00186411 -6.80872e-06 0)
(0.00192674 -2.25401e-05 0)
(0.00196186 -2.17784e-05 0)
(0.00150448 -2.2592e-05 0)
(0.00150933 -5.27564e-05 0)
(0.000669351 -0.00042271 0)
(0.00151394 -2.063e-05 0)
(0.0012504 -0.000240097 0)
(0.000225639 -0.000835946 0)
(0.000248491 -0.000810665 0)
(0.00170577 -0.000206171 0)
(0.00188062 -4.68145e-06 0)
(0.00143644 -0.000191134 0)
(0.00125393 -0.000111595 0)
(0.000184976 -0.000861939 0)
(6.40284e-05 -0.000947099 0)
(0.00165537 -1.43558e-06 0)
(0.00139603 -7.56504e-05 0)
(0.0014065 -7.22466e-05 0)
(0.00179569 -0.000130406 0)
(0.00111712 -0.000162013 0)
(0.000935539 -0.000300665 0)
(0.0019832 -1.68779e-06 0)
(0.00182259 -0.00019071 0)
(0.000124211 -0.000898891 0)
(0.00131744 -0.000205193 0)
(0.00139897 -6.61646e-05 0)
(0.00181104 -0.000134685 0)
(0.00184626 -1.86585e-05 0)
(0.00136254 -0.000129663 0)
(0.00149984 -6.63398e-05 0)
(0.00150469 -1.42777e-05 0)
(0.00149469 -3.9371e-05 0)
(0.00153255 -3.20261e-05 0)
(0.00141767 -6.51544e-05 0)
(0.00150592 -3.52683e-05 0)
(0.000371029 -0.000721529 0)
(0.00106495 -0.00018649 0)
(0.00108056 -0.000178676 0)
(0.00154304 -2.29251e-05 0)
(0.000873069 -0.000284821 0)
(0.00148696 -0.000192377 0)
(0.00195212 -3.57813e-06 0)
(0.00178911 -0.0001933 0)
(3.98872e-05 -0.000955033 0)
(0.00124678 -0.000180809 0)
(0.00100961 -0.000207334 0)
(0.00125042 -0.000166646 0)
(0.00118024 -0.000117253 0)
(0.000731753 -0.000384629 0)
(0.000898411 -0.00028525 0)
(0.00124422 -0.000192097 0)
(0.0019137 -5.82879e-05 0)
(0.00142343 -5.20313e-05 0)
(0.0014911 -5.76598e-05 0)
(0.00084309 -0.000306857 0)
(1.17345e-05 -0.000898625 0)
(0.00146463 -8.71259e-06 0)
(0.00193825 -6.54322e-05 0)
(0.00192628 -6.14502e-05 0)
(0.00178006 -0.000137587 0)
(0.00132885 -0.000206819 0)
(0.0014609 -1.08378e-05 0)
(0.00151247 -3.55742e-05 0)
(0.000178859 -0.000877844 0)
(0.00023586 -0.000821879 0)
(0.00119941 -0.000119123 0)
(0.00120002 -0.000120811 0)
(0.00191128 -7.95814e-05 0)
(0.00101864 -0.000267579 0)
(0.00143969 -4.78387e-05 0)
(0.00178983 -0.000161058 0)
(0.00137176 -4.27206e-05 0)
(0.00128508 -8.20078e-05 0)
(0.00123936 -0.00017904 0)
(0.000735402 -0.000410171 0)
(0.00130271 -7.51278e-05 0)
(0.00192221 -2.48313e-05 0)
(0.00190474 -2.57155e-05 0)
(0.000377417 -0.000705502 0)
(0.000633982 -0.000449471 0)
(0.00137214 -4.49716e-05 0)
(0.0015092 -5.48786e-05 0)
(0.00038671 -0.000708266 0)
(0.00192152 -2.14607e-05 0)
(0.00148846 -1.02751e-05 0)
(0.00149271 -1.03428e-05 0)
(0.0015787 -0.000159165 0)
(0.00173539 -3.07714e-05 0)
(0.00153803 -3.21637e-05 0)
(0.00175303 -5.47312e-05 0)
(0.00200031 -5.74114e-06 0)
(0.001852 -0.000169775 0)
(0.00150508 -1.85706e-05 0)
(0.00166131 -8.60197e-07 0)
(0.00104137 -0.000226058 0)
(0.00133614 -7.00965e-05 0)
(0.001586 -1.29595e-05 0)
(0.00144075 -2.02365e-05 0)
(0.0015388 -5.94459e-06 0)
(0.00151551 -7.44171e-06 0)
(0.00151606 -6.19893e-06 0)
(0.00155148 -2.94062e-05 0)
(0.0015744 -0.000167252 0)
(0.00174175 -2.6945e-05 0)
(0.00130171 -6.84952e-05 0)
(0.00157093 -0.000158259 0)
(0.00172827 -3.11487e-05 0)
(0.00131773 -0.000101707 0)
(0.00131014 -0.000106014 0)
(0.000323962 -0.000692634 0)
(0.00148441 -0.000139336 0)
(0.00187415 -0.000104726 0)
(0.00154489 -2.98921e-05 0)
(0.00152303 -6.53216e-07 0)
(0.00169433 -0.000147092 0)
(0.00153528 -1.13493e-05 0)
(0.00134833 -5.09532e-05 0)
(0.00135745 -4.78381e-05 0)
(0.00124575 -0.000170137 0)
(0.00033264 -0.000754868 0)
(0.001829 -0.000117869 0)
(0.000557861 -0.000499627 0)
(0.000557788 -0.000498876 0)
(0.000883423 -0.000284183 0)
(0.00142709 -2.52284e-05 0)
(0.00197006 -4.30168e-06 0)
(0.0018115 -0.000186134 0)
(0.00139082 -4.46644e-05 0)
(0.000914694 -0.000281046 0)
(0.00143545 -2.2639e-05 0)
(0.000967734 -0.000385159 0)
(0.00131159 -0.000159793 0)
(0.00154571 -0.000173671 0)
(0.00172663 -2.38024e-05 0)
(0.000881422 -0.000283909 0)
(0.00138207 -5.45101e-05 0)
(0.00199342 -6.61677e-06 0)
(0.00184529 -0.000169542 0)
(0.000249555 -0.000815313 0)
(0.000747139 -0.000398713 0)
(0.00164407 -7.84943e-06 0)
(0.000655822 -0.000462655 0)
(0.000143434 -0.000901912 0)
(0.00139273 -6.52844e-05 0)
(0.0018387 -1.98081e-05 0)
(0.0008274 -0.000316278 0)
(0.00144439 -1.84237e-05 0)
(0.00152836 -0.000124233 0)
(0.000138015 -0.000907429 0)
(0.00134345 -0.000204179 0)
(0.0002224 -0.00084046 0)
(0.00191598 -1.81185e-05 0)
(0.000638663 -0.000443611 0)
(0.000886741 -0.000278668 0)
(0.000950517 -0.000253483 0)
(0.00186779 -7.17576e-05 0)
(0.000369845 -0.000684969 0)
(0.0016799 -0.000145504 0)
(0.00148074 -0.000143033 0)
(0.00143378 -3.11488e-05 0)
(0.00153839 -0.00012376 0)
(0.00196632 -4.2945e-05 0)
(0.00143769 -2.61941e-05 0)
(0.00137091 -0.00012481 0)
(0.000337261 -0.000755337 0)
(0.00143282 -2.33329e-05 0)
(0.000264954 -0.000802266 0)
(0.000511974 -0.00056549 0)
(0.00134801 -8.4739e-05 0)
(0.00148864 -1.78985e-06 0)
(0.00105682 -0.000220425 0)
(0.000973538 -0.000246598 0)
(0.00150178 -0.000144308 0)
(0.000936795 -0.000307131 0)
(0.00036194 -0.00069811 0)
(0.000361532 -0.000736103 0)
(0.00178521 -0.000171428 0)
(0.00179559 -0.000169242 0)
(0.00147735 -1.34414e-05 0)
(0.00148189 -1.16501e-05 0)
(6.40062e-05 -0.000943546 0)
(0.000356946 -0.000699679 0)
(0.000175674 -0.000840946 0)
(0.00156424 -4.7236e-05 0)
(0.00187927 -0.000130885 0)
(0.00147486 -3.17941e-05 0)
(0.00139433 -6.2493e-05 0)
(0.000926948 -0.000284044 0)
(0.00124506 -9.93287e-05 0)
(0.00149026 -2.94061e-05 0)
(0.00142806 -2.51939e-05 0)
(0.000148277 -0.00082313 0)
(0.00143449 -0.000120243 0)
(0.00143248 -0.00012383 0)
(0.000900225 -0.000271 0)
(0.000805612 -0.000329001 0)
(0.000526467 -0.000538599 0)
(0.000493136 -0.000591661 0)
(0.00179813 -0.000159713 0)
(0.00139084 -4.92241e-05 0)
(0.000806973 -0.000328199 0)
(0.000509995 -0.000575452 0)
(0.00114702 -0.000182612 0)
(0.00116267 -0.000177956 0)
(0.00176156 -5.23014e-05 0)
(0.00188269 -2.67726e-05 0)
(0.000186043 -0.000859237 0)
(0.00136392 -6.11604e-05 0)
(0.0016638 -7.71428e-05 0)
(0.00190153 -9.6876e-05 0)
(0.00161105 -8.35444e-05 0)
(0.00153578 -2.32635e-05 0)
(0.00169009 -8.1549e-05 0)
(0.00136758 -4.4255e-05 0)
(0.00108542 -0.00024132 0)
(0.00161726 -0.000177515 0)
(0.000621998 -0.000529633 0)
(0.000972358 -0.00039965 0)
(0.000301869 -0.000768061 0)
(0.00139873 -6.54143e-05 0)
(0.00186605 -0.000169812 0)
(0.00201419 -4.11409e-06 0)
(0.00190576 -2.40605e-05 0)
(0.00137761 -4.11756e-05 0)
(0.00158461 -5.92826e-05 0)
(0.00159381 -9.31673e-05 0)
(0.00155856 -9.81431e-05 0)
(0.000845402 -0.000372721 0)
(0.00146927 -1.18658e-05 0)
(0.00160349 -5.81538e-05 0)
(0.00161122 -5.92409e-05 0)
(0.00192886 -3.73712e-05 0)
(0.00149069 -6.84535e-05 0)
(0.00133154 -0.000163273 0)
(0.00170954 -6.47593e-05 0)
(0.00170205 -6.73192e-05 0)
(0.00192293 -5.56613e-05 0)
(0.00147992 -7.30939e-06 0)
(0.00142446 -3.87895e-05 0)
(0.00123855 -0.000100618 0)
(0.000188513 -0.000869409 0)
(0.00149273 -2.74513e-05 0)
(0.00118445 -0.000157486 0)
(0.00185739 -7.36507e-05 0)
(0.00135118 -5.93136e-05 0)
(0.00163057 -5.97421e-05 0)
(0.00124396 -0.000129243 0)
(7.61254e-05 -0.000936441 0)
(0.00134223 -6.31278e-05 0)
(0.000109833 -0.000851512 0)
(0.000281541 -0.000788005 0)
(0.00140145 -4.04338e-05 0)
(0.00183542 -6.03356e-05 0)
(0.00183308 -5.87624e-05 0)
(0.00111463 -0.000169382 0)
(0.00125662 -0.000161073 0)
(0.00139473 -3.6486e-05 0)
(0.00127211 -0.000135597 0)
(0.00189276 -7.65928e-05 0)
(0.00188462 -7.93601e-05 0)
(0.000751286 -0.000372637 0)
(0.000736385 -0.000376878 0)
(0.00119214 -0.000156943 0)
(0.00193701 -2.14282e-05 0)
(0.00137807 -0.000162074 0)
(0.00179281 -1.51319e-05 0)
(0.00102342 -0.000335029 0)
(0.00139861 -4.31851e-05 0)
(0.000896971 -0.000295475 0)
(0.00162432 -0.000210717 0)
(0.00181287 -6.44285e-06 0)
(0.00163516 -0.000208175 0)
(0.00182068 -7.11157e-06 0)
(0.00104315 -0.000318009 0)
(0.00136318 -7.64716e-05 0)
(0.000365499 -0.00071857 0)
(0.00167648 -0.00011737 0)
(0.00177853 -0.000108468 0)
(0.00144603 -5.56182e-05 0)
(0.00187156 -0.000170235 0)
(0.00201977 -3.43811e-06 0)
(0.00166954 -4.5745e-05 0)
(0.000549656 -0.00056232 0)
(0.000342819 -0.000737405 0)
(0.000306777 -0.000766908 0)
(0.00176061 -5.0273e-05 0)
(0.00111041 -0.000327718 0)
(0.00154208 -3.68925e-05 0)
(0.00144821 -4.00935e-05 0)
(0.000244176 -0.00082088 0)
(0.00112836 -0.000305821 0)
(0.00144349 -4.25409e-05 0)
(0.00158084 -1.27935e-05 0)
(0.00195963 -2.55485e-05 0)
(0.00019415 -0.000818595 0)
(0.00146214 -7.54969e-06 0)
(0.00176123 -2.68872e-05 0)
(0.00160208 -2.43672e-05 0)
(0.000956336 -0.000259219 0)
(0.000955052 -0.000268327 0)
(0.00194913 -5.10276e-06 0)
(0.00193988 -6.11983e-06 0)
(0.00177837 -0.000189616 0)
(0.00178787 -0.000189715 0)
(0.00163763 -0.000100666 0)
(0.00119491 -0.00011076 0)
(0.00153819 -1.35317e-05 0)
(0.00154151 -1.43733e-05 0)
(2.0521e-05 -0.000893106 0)
(0.000886692 -0.000277022 0)
(0.0012523 -0.00011856 0)
(0.00159852 -0.000167453 0)
(0.00136468 -0.000132837 0)
(0.00192329 -1.81243e-05 0)
(0.000133851 -0.000834324 0)
(0.00164919 -9.97707e-06 0)
(0.0019754 -1.71009e-06 0)
(0.00181352 -0.000192776 0)
(0.00064765 -0.000496696 0)
(0.00095372 -0.000253665 0)
(0.00154229 -1.92517e-05 0)
(0.000639363 -0.000444683 0)
(0.00136911 -6.54753e-05 0)
(0.000114042 -0.000929373 0)
(0.00106482 -0.000205055 0)
(0.00170775 -0.000106271 0)
(0.00171156 -0.000103199 0)
(0.000254181 -0.000811956 0)
(0.000667801 -0.000475731 0)
(0.000172313 -0.0008745 0)
(0.00146533 -0.000116603 0)
(0.00107359 -0.000199174 0)
(0.000716912 -0.000390394 0)
(0.000712891 -0.000396945 0)
(0.000569782 -0.000489697 0)
(0.00143772 -0.000186981 0)
(0.00190145 -4.2574e-05 0)
(0.000882291 -0.000283392 0)
(0.00125323 -0.000177156 0)
(0.000973965 -0.00022334 0)
(0.000183781 -0.000867431 0)
(0.00144534 -9.91489e-05 0)
(0.00140957 -5.79258e-05 0)
(0.00158765 -6.40396e-05 0)
(0.00148836 -3.36697e-06 0)
(0.000108388 -0.000934613 0)
(0.00124267 -0.000120655 0)
(0.00093499 -0.000246316 0)
(5.39154e-05 -0.000952544 0)
(0.00157921 -7.35282e-05 0)
(0.00130084 -7.02637e-05 0)
(0.00121726 -0.000151103 0)
(0.00146968 -1.23042e-05 0)
(0.00159514 -2.59348e-05 0)
(0.00198482 -2.04095e-05 0)
(0.000224342 -0.00080738 0)
(0.00157494 -6.02815e-05 0)
(0.00157975 -0.000146291 0)
(0.00171829 -3.74854e-05 0)
(0.00138772 -0.000223795 0)
(0.00196516 -3.07673e-05 0)
(0.00108526 -0.000170443 0)
(0.00144438 -1.91949e-05 0)
(0.000726911 -0.000384427 0)
(0.000516031 -0.000592078 0)
(0.000747083 -0.000371628 0)
(0.000735765 -0.000383609 0)
(0.000308192 -0.000716011 0)
(0.00143751 -3.3862e-05 0)
(0.00178661 -1.43944e-05 0)
(0.0013625 -7.65492e-05 0)
(0.00138727 -0.000180614 0)
(0.000451792 -0.000611425 0)
(0.000613638 -0.00048917 0)
(0.00191284 -2.63324e-05 0)
(0.00189341 -0.000100103 0)
(0.000801512 -0.000342184 0)
(0.00177958 -0.000170202 0)
(0.000652501 -0.000441236 0)
(0.00136237 -0.000133222 0)
(0.00141551 -3.25348e-05 0)
(0.00164215 -3.32262e-05 0)
(0.00140083 -4.51142e-05 0)
(0.00167904 -0.000119958 0)
(0.00193321 -5.62272e-06 0)
(0.00176973 -0.00019277 0)
(0.00175048 -0.000104509 0)
(0.00128014 -0.000141034 0)
(0.000501536 -0.000547402 0)
(0.00116571 -0.000228054 0)
(0.00115469 -0.000234455 0)
(0.00158824 -1.34543e-06 0)
(0.00154842 -3.99593e-05 0)
(0.00137152 -0.000133689 0)
(0.00160011 -2.26391e-05 0)
(0.000826625 -0.000379949 0)
(0.000171 -0.000872943 0)
(0.00060051 -0.000498881 0)
(0.000562321 -0.000494863 0)
(0.00149784 -3.95279e-06 0)
(0.0012912 -0.000126637 0)
(0.00163873 -3.58424e-05 0)
(0.0018311 -0.000112439 0)
(0.0019764 -1.29083e-05 0)
(0.00196706 -1.436e-05 0)
(0.00182932 -0.000156028 0)
(0.00183854 -0.00015603 0)
(0.00187197 -6.92154e-05 0)
(0.00149735 -4.84723e-06 0)
(0.000180929 -0.00087267 0)
(0.00137182 -7.51956e-05 0)
(0.00187403 -6.06414e-05 0)
(0.00133384 -6.10321e-05 0)
(0.00134823 -5.84164e-05 0)
(0.00145941 -7.56788e-06 0)
(0.00143387 -0.000101521 0)
(0.000619285 -0.000460442 0)
(0.00175979 -0.000136094 0)
(9.59649e-05 -0.000882217 0)
(0.00134836 -5.4679e-05 0)
(0.000165684 -0.000883788 0)
(0.00133684 -0.000170911 0)
(0.00149763 -2.26693e-05 0)
(0.00161469 -0.00017335 0)
(0.00129186 -0.00014648 0)
(0.00154026 -0.000177798 0)
(0.00172665 -2.19091e-05 0)
(0.00115433 -0.000159413 0)
(0.00162299 -5.25551e-05 0)
(0.0014758 -5.56692e-06 0)
(0.00138413 -6.65511e-05 0)
(0.00141931 -2.76145e-05 0)
(0.00180221 -0.000165585 0)
(0.0014313 -2.47915e-05 0)
(0.00147478 -5.2321e-06 0)
(9.635e-05 -0.000931495 0)
(0.00143702 -2.28577e-05 0)
(0.000954305 -0.000257704 0)
(9.66292e-05 -0.000937707 0)
(0.00146866 -0.000107772 0)
(0.00147861 -0.000106796 0)
(0.000469421 -0.000612541 0)
(0.000706903 -0.000415232 0)
(0.000996645 -0.000225274 0)
(0.000999717 -0.000225988 0)
(0.00197734 -2.37399e-05 0)
(0.00197646 -2.28348e-05 0)
(0.00141846 -3.81755e-05 0)
(0.000676873 -0.000430753 0)
(0.00118783 -0.000126101 0)
(0.000235814 -0.000827839 0)
(0.00162971 -3.71294e-05 0)
(0.00120256 -0.00011853 0)
(0.00148584 -1.67278e-06 0)
(9.19e-05 -0.000879487 0)
(0.000465368 -0.000614304 0)
(0.00160577 -0.000173303 0)
(0.00168827 -1.14265e-05 0)
(0.00147128 -8.89683e-06 0)
(0.0014883 -3.39687e-05 0)
(0.00149869 -2.00275e-05 0)
(0.00122674 -0.000161667 0)
(0.000567364 -0.000571574 0)
(0.00170495 -0.000145693 0)
(0.00196443 -4.21202e-05 0)
(0.000609584 -0.000506865 0)
(0.00148762 -3.26545e-05 0)
(0.000598952 -0.000512678 0)
(0.00112115 -0.00021208 0)
(0.000637974 -0.000444599 0)
(0.00170217 -0.000177276 0)
(0.00150623 -0.000138898 0)
(0.00111777 -0.000147182 0)
(0.00167932 -3.81638e-06 0)
(0.00111235 -0.000153255 0)
(0.000652951 -0.000434973 0)
(0.000664417 -0.000426314 0)
(0.000642781 -0.000440714 0)
(0.00166189 -4.75527e-05 0)
(0.00156201 -1.39456e-05 0)
(0.00150913 -0.000128847 0)
(0.00184682 -6.1102e-05 0)
(0.000772774 -0.000353649 0)
(0.000800939 -0.000332559 0)
(0.000663005 -0.000473485 0)
(0.000797431 -0.000335364 0)
(0.000707646 -0.000399063 0)
(0.0018358 -3.51848e-05 0)
(7.32162e-05 -0.000953151 0)
(0.000640202 -0.000489099 0)
(0.0012368 -0.000216025 0)
(0.0013512 -7.87995e-05 0)
(0.00117909 -0.000224227 0)
(2.86589e-05 -0.000870472 0)
(0.00145424 -1.41242e-05 0)
(0.00157453 -9.14294e-05 0)
(0.00091425 -0.000288024 0)
(0.00142182 -2.7418e-05 0)
(0.0010661 -0.000177096 0)
(0.000228523 -0.000809644 0)
(0.00124949 -0.000227519 0)
(0.00147794 -0.000180129 0)
(0.00168542 -2.02907e-05 0)
(0.00161881 -0.000207235 0)
(0.00180682 -8.17035e-06 0)
(0.00133865 -6.08461e-05 0)
(0.0012078 -0.000226922 0)
(8.96422e-05 -0.00093151 0)
(0.00110004 -0.000155979 0)
(0.00201329 -8.8803e-06 0)
(0.00188147 -0.000146552 0)
(0.00153283 -1.72021e-05 0)
(0.000344204 -0.000733234 0)
(0.00192994 -1.42291e-05 0)
(0.000362825 -0.000673645 0)
(0.000501256 -0.000609632 0)
(0.00185234 -1.5356e-05 0)
(0.0010263 -0.000269192 0)
(0.00161055 -0.000207513 0)
(0.0018003 -8.33844e-06 0)
(0.00143615 -0.000205092 0)
(0.00144501 -0.000206861 0)
(0.000344832 -0.000728616 0)
(0.00123166 -0.000166075 0)
(0.00174746 -0.000107578 0)
(0.000203448 -0.00082231 0)
(0.00108784 -0.000162379 0)
(0.000330808 -0.000744845 0)
(0.000210038 -0.000773836 0)
(0.00029541 -0.000729589 0)
(0.000349719 -0.000722959 0)
(0.00160787 -8.12845e-05 0)
(0.00102193 -0.000264269 0)
(0.00193335 -1.53046e-05 0)
(0.000927017 -0.000255453 0)
(0.000172401 -0.000845594 0)
(0.00166347 -7.4713e-05 0)
(0.00139456 -4.06325e-05 0)
(0.00170281 -0.000111903 0)
(0.0017046 -0.000114046 0)
(0.00139961 -4.02595e-05 0)
(0.00153393 -1.81418e-05 0)
(0.00182719 -0.000127268 0)
(0.000878162 -0.000286894 0)
(0.000925191 -0.000270526 0)
(0.000941205 -0.000262604 0)
(0.00151713 -1.88149e-05 0)
(0.000942142 -0.00027667 0)
(0.00180275 -3.58726e-05 0)
(0.00119037 -0.000230423 0)
(0.00145727 -0.000203551 0)
(0.000543436 -0.000547474 0)
(0.00171109 -1.20668e-05 0)
(0.00164635 -1.30637e-05 0)
(0.000762311 -0.000361585 0)
(0.00191166 -5.57521e-05 0)
(0.000716577 -0.000437498 0)
(0.000106312 -0.000926583 0)
(0.000532172 -0.000555936 0)
(0.00175102 -0.000181088 0)
(0.00191574 -1.3151e-05 0)
(0.0018465 -1.64954e-05 0)
(0.00155316 -3.09491e-05 0)
(0.000722548 -0.000495021 0)
(0.00139906 -4.32892e-05 0)
(0.00189176 -5.01151e-05 0)
(0.00189024 -4.88779e-05 0)
(0.0018957 -4.48807e-05 0)
(8.73897e-05 -0.000945698 0)
(0.00164977 -2.82239e-05 0)
(0.00170496 -0.000168825 0)
(0.00167718 -6.69157e-05 0)
(0.00167468 -6.34852e-05 0)
(0.00131346 -0.000102252 0)
(0.00102729 -0.000261368 0)
(0.000701088 -0.00049866 0)
(0.000109027 -0.000858384 0)
(0.000218385 -0.000822665 0)
(0.0015683 -5.68862e-05 0)
(0.0018075 -0.000154184 0)
(0.00181475 -0.000154361 0)
(0.000497002 -0.000610251 0)
(0.00164013 -0.000102876 0)
(0.000223761 -0.000813295 0)
(0.00165455 -9.4106e-06 0)
(0.00164608 -1.6821e-05 0)
(0.00165254 -1.61161e-05 0)
(0.00161625 -1.34408e-05 0)
(1.15284e-05 -0.000983881 0)
(0.00149742 -0.000136786 0)
(0.000243641 -0.000821802 0)
(0.00146865 -1.73467e-05 0)
(0.00109679 -0.000240018 0)
(0.00165114 -6.48098e-05 0)
(0.00129124 -0.00018996 0)
(0.00156337 -2.45885e-05 0)
(0.00185439 -5.3626e-05 0)
(0.00158779 -1.41535e-05 0)
(0.000984885 -0.000217147 0)
(0.0012465 -0.000102849 0)
(0.000393406 -0.000683802 0)
(0.00190847 -5.85276e-05 0)
(0.0012046 -0.000139644 0)
(0.00197198 -2.94372e-05 0)
(0.00178588 -1.18279e-05 0)
(0.00161014 -9.15834e-06 0)
(0.00161547 -9.15027e-06 0)
(0.000172846 -0.000866607 0)
(0.0019515 -9.9771e-06 0)
(0.00078926 -0.000352116 0)
(0.00152655 -9.10889e-06 0)
(0.00183424 -0.000137136 0)
(0.00151949 -0.000128618 0)
(0.00176304 -0.000158914 0)
(0.00145851 -6.88095e-06 0)
(0.00161577 -1.48053e-05 0)
(0.000686929 -0.000417092 0)
(0.000837979 -0.000559588 0)
(0.00151841 -5.8841e-05 0)
(0.00138078 -0.000169279 0)
(0.00145414 -1.53089e-05 0)
(0.00140701 -3.16013e-05 0)
(0.00126344 -0.00015646 0)
(0.00196746 -2.22554e-05 0)
(0.00177152 -0.000114142 0)
(0.00177756 -0.000114917 0)
(0.00134406 -0.000169428 0)
(0.00170789 -0.000199312 0)
(0.00123199 -0.000131849 0)
(9.43389e-05 -0.000853539 0)
(0.00147312 -8.91184e-05 0)
(0.00111149 -0.000218084 0)
(0.00109224 -0.000204332 0)
(0.00107825 -0.000176474 0)
(0.00151373 -5.76905e-05 0)
(0.00172995 -7.33974e-05 0)
(0.00105846 -0.000271269 0)
(0.00144107 -2.58277e-05 0)
(0.00155857 -3.88482e-05 0)
(0.000954273 -0.000300948 0)
(0.00137377 -7.27497e-05 0)
(0.00144004 -2.71252e-05 0)
(0.00141312 -6.92407e-05 0)
(0.00146389 -0.000205759 0)
(0.000340466 -0.000746801 0)
(0.0018057 -0.000133488 0)
(0.0018154 -0.000113651 0)
(0.00172745 -8.00567e-05 0)
(0.00164776 -0.000106996 0)
(0.00136638 -0.000239798 0)
(0.00114457 -0.000136219 0)
(0.00113234 -0.000142132 0)
(0.000695815 -0.00045748 0)
(0.000200265 -0.000824121 0)
(0.00183339 -0.000143638 0)
(0.000977081 -0.000253716 0)
(0.000754346 -0.000365134 0)
(0.000988418 -0.000243566 0)
(0.00120218 -0.000184799 0)
(0.00165143 -3.19197e-05 0)
(0.00165732 -3.31903e-05 0)
(0.00118391 -0.000193013 0)
(0.00147691 -4.17057e-05 0)
(0.0014775 -3.97379e-05 0)
(0.00169112 -6.79583e-05 0)
(0.00168772 -6.57905e-05 0)
(0.0015347 -3.15349e-06 0)
(0.00153955 -3.22086e-06 0)
(0.00130553 -0.000165288 0)
(0.00142861 -3.55764e-05 0)
(0.00185304 -7.65261e-05 0)
(0.00147803 -6.88145e-06 0)
(0.00137388 -5.63453e-05 0)
(0.00136845 -4.4526e-05 0)
(0.00147151 -1.73064e-05 0)
(0.00180093 -2.42657e-05 0)
(0.00131804 -0.000115736 0)
(0.00133184 -0.000113863 0)
(0.00154298 -4.22304e-05 0)
(0.00146485 -0.000172068 0)
(0.00166781 -2.32779e-05 0)
(0.00133439 -7.24653e-05 0)
(0.00140212 -3.60442e-05 0)
(0.00136007 -7.12932e-05 0)
(0.00144759 -0.000105836 0)
(0.00137252 -6.86757e-05 0)
(0.00143702 -0.000108495 0)
(0.000252877 -0.00081219 0)
(0.00148596 -0.000187379 0)
(0.00169773 -1.7516e-05 0)
(0.00036973 -0.000675836 0)
(0.00139974 -0.000177994 0)
(0.00169442 -7.88489e-05 0)
(0.00179598 -2.24057e-05 0)
(0.00158341 -7.50932e-07 0)
(0.00182667 -3.63444e-05 0)
(0.00121502 -0.000216508 0)
(0.00121906 -0.000219682 0)
(0.000956368 -0.00023522 0)
(0.00123718 -0.000243262 0)
(0.00127427 -8.84781e-05 0)
(0.00131203 -8.46081e-05 0)
(0.00148011 -1.95026e-06 0)
(0.00175235 -3.83849e-05 0)
(0.00088373 -0.000340498 0)
(0.000101275 -0.000806156 0)
(0.00106844 -0.000257372 0)
(0.00191987 -1.13739e-05 0)
(0.000973064 -0.000226267 0)
(0.000952672 -0.000286839 0)
(0.00182308 -3.91709e-05 0)
(0.00183143 -0.000135328 0)
(0.00111225 -0.000195623 0)
(0.00152611 -0.000120999 0)
(0.000216492 -0.000845203 0)
(0.00057837 -0.00055803 0)
(0.00142477 -3.6104e-05 0)
(0.00174979 -5.90674e-05 0)
(0.00109854 -0.000222157 0)
(0.000234969 -0.000826949 0)
(0.000959156 -0.000472918 0)
(0.00165374 -2.75253e-06 0)
(0.00129528 -0.000193051 0)
(0.000875888 -0.000479683 0)
(0.0011812 -0.000149776 0)
(1.43463e-05 -0.000877482 0)
(0.00144144 -5.2282e-05 0)
(0.00152479 -0.000132127 0)
(0.000775815 -0.000361874 0)
(0.000794309 -0.000360129 0)
(0.000811818 -0.000351121 0)
(0.00190446 -5.64182e-05 0)
(0.00150938 -6.5707e-05 0)
(0.00135647 -7.04607e-05 0)
(0.000886499 -0.000459863 0)
(0.00148305 -8.67189e-06 0)
(0.00173743 -0.000188771 0)
(0.000873171 -0.000286098 0)
(0.00171001 -1.88024e-05 0)
(0.00150895 -0.000184328 0)
(0.00139022 -0.000123465 0)
(0.00175787 -0.000139203 0)
(0.000131515 -0.00079724 0)
(0.00120214 -0.000239303 0)
(0.00124454 -0.000210385 0)
(0.00101204 -0.000247926 0)
(0.00101898 -0.000248803 0)
(0.000200182 -0.000858522 0)
(0.00176385 -0.000150202 0)
(0.000152091 -0.000885105 0)
(0.00140893 -3.19129e-05 0)
(0.00172239 -6.60564e-05 0)
(0.00139644 -8.26003e-05 0)
(0.00195178 -1.11634e-05 0)
(0.00141848 -2.87899e-05 0)
(0.00128971 -9.36419e-05 0)
(0.00139562 -5.33626e-05 0)
(0.00127978 -9.77635e-05 0)
(0.00157774 -4.2211e-05 0)
(0.00109619 -0.000161319 0)
(0.00176521 -4.32922e-05 0)
(0.00175796 -4.22355e-05 0)
(7.70285e-06 -0.000993496 0)
(0.0014047 -3.31656e-05 0)
(0.00121609 -0.000229345 0)
(0.000839893 -0.000314507 0)
(0.000863779 -0.000298649 0)
(0.000679575 -0.000416266 0)
(0.00135123 -6.49505e-05 0)
(0.00125412 -0.000135827 0)
(0.00129812 -7.536e-05 0)
(0.00131074 -0.000117893 0)
(0.00124095 -0.00020034 0)
(0.00125487 -8.57628e-05 0)
(0.000244939 -0.000797239 0)
(0.000606344 -0.000536676 0)
(0.00110755 -0.000211855 0)
(0.00137809 -0.000237344 0)
(0.000446947 -0.000656238 0)
(0.000216179 -0.000846219 0)
(0.000702053 -0.000405839 0)
(0.00110247 -0.000165393 0)
(0.000976839 -0.000251019 0)
(0.0014736 -8.40935e-06 0)
(0.000376077 -0.000705528 0)
(0.00081338 -0.000352927 0)
(0.00134875 -5.17961e-05 0)
(0.000583116 -0.00059028 0)
(0.00128062 -9.03812e-05 0)
(0.00162057 -0.000215126 0)
(0.00181144 -4.62944e-06 0)
(0.000564848 -0.000604852 0)
(0.00115477 -0.000185772 0)
(0.000673653 -0.00043161 0)
(0.00148269 -9.31683e-05 0)
(0.00148552 -9.52546e-05 0)
(9.26802e-05 -0.000912591 0)
(0.00193667 -3.64874e-05 0)
(0.00137769 -0.000228317 0)
(0.00163593 -0.000171744 0)
(0.00193674 -2.42522e-05 0)
(0.000207464 -0.000852984 0)
(0.00146903 -0.000178899 0)
(0.00167788 -2.06974e-05 0)
(0.000250209 -0.00080795 0)
(7.89517e-05 -0.000916611 0)
(0.00147141 -9.47651e-05 0)
(0.00164241 -0.000200354 0)
(0.00182197 -1.04513e-05 0)
(0.00123118 -0.000116172 0)
(0.00158293 -9.05946e-06 0)
(0.000275133 -0.000783865 0)
(4.96926e-05 -0.000973102 0)
(0.00160439 -8.47001e-07 0)
(0.00161487 -5.29497e-05 0)
(0.00142401 -3.77278e-05 0)
(0.00038574 -0.000662619 0)
(0.000101532 -0.000933922 0)
(0.000786916 -0.000341704 0)
(0.00142247 -2.8016e-05 0)
(0.000769788 -0.000353479 0)
(0.00189889 -4.15497e-05 0)
(0.00192975 -6.73488e-05 0)
(5.83536e-05 -0.000866912 0)
(0.00116661 -0.000155837 0)
(0.00165968 -3.65234e-05 0)