/*--------------------------------*- C++ -*----------------------------------*\
| =========                 |                                                 |
| \\      /  F ield         | OpenFOAM: The Open Source CFD Toolbox           |
|  \\    /   O peration     | Version:  v2012                                 |
|   \\  /    A nd           | Website:  www.openfoam.com                      |
|    \\/     M anipulation  |                                                 |
\*---------------------------------------------------------------------------*/
FoamFile
{
    version     2.0;
    format      ascii;
    class       volScalarField;
    location    "4";
    object      sigmaEq;
}
// * * * * * * * * * * * * * * * * * * * * * * * * * * * * * * * * * * * * * //

dimensions      [1 -1 -2 0 0 0 0];


internalField   nonuniform List<scalar> 
7666
(
1.57865e+07
3.90963e+07
1.32646e+08
4.94067e+07
7.49627e+07
7.9932e+07
4.23684e+07
5.05788e+07
8.46465e+07
4.08045e+07
3.83002e+07
4.90197e+07
4.95437e+07
4.3647e+07
4.03446e+07
8.10405e+07
4.96724e+07
8.23505e+07
5.21298e+07
3.84667e+07
2.97138e+07
6.44612e+07
4.53756e+07
4.87092e+07
8.39416e+07
3.99945e+07
8.36849e+07
3.56493e+07
4.926e+07
4.75733e+07
4.90206e+07
8.03888e+07
2.85852e+07
4.64078e+07
2.89594e+07
3.65057e+07
3.55567e+07
4.84483e+07
7.65565e+07
4.13976e+07
6.40961e+07
8.98231e+07
7.89114e+07
4.35143e+07
7.321e+07
4.16106e+07
8.12554e+07
6.27138e+07
7.09152e+07
2.2566e+07
3.50034e+07
6.28507e+07
4.31087e+07
8.46302e+07
2.60872e+07
8.30446e+07
2.38905e+07
2.40152e+07
8.91348e+07
8.01096e+07
2.94257e+07
4.81631e+07
4.68432e+07
4.74799e+07
2.54924e+07
6.96268e+07
3.87154e+07
2.46752e+07
8.83613e+07
8.79632e+07
9.07672e+07
3.57069e+07
3.54968e+07
4.73005e+07
4.74582e+07
4.26259e+07
6.18229e+07
4.38311e+07
4.47084e+07
3.08843e+07
4.3996e+07
3.73433e+07
5.40794e+07
8.04586e+07
5.14323e+07
6.01356e+07
6.02605e+07
6.44631e+07
6.8806e+07
4.83518e+07
4.52317e+07
4.50951e+07
6.42971e+07
9.18942e+07
7.69174e+07
7.85727e+07
2.97886e+07
1.4079e+08
5.21291e+07
3.83156e+07
6.49838e+07
4.76779e+07
3.29609e+07
9.88374e+07
4.68331e+07
7.54084e+07
8.02083e+07
7.18228e+07
4.22268e+07
6.33854e+07
4.50302e+07
6.73162e+07
3.95689e+07
2.93071e+07
3.67603e+07
7.74437e+07
3.50647e+07
3.4578e+07
4.90319e+07
4.91656e+07
8.19007e+07
4.70984e+07
4.72239e+07
4.00505e+07
4.80566e+07
2.17585e+07
7.15751e+07
6.31553e+07
5.56295e+07
4.74297e+07
7.95557e+07
5.55934e+07
3.42196e+07
5.97523e+07
4.73452e+07
7.43798e+07
4.36733e+07
4.18049e+07
4.39626e+07
4.65784e+07
5.57945e+07
3.70515e+07
3.65097e+07
3.64174e+07
3.86153e+07
4.14245e+07
4.20201e+07
3.69005e+07
2.0033e+07
5.0949e+07
4.08045e+07
7.00059e+07
3.10548e+07
5.89177e+07
3.71752e+07
3.72248e+07
6.28087e+07
5.92427e+07
5.02584e+07
4.51631e+07
9.28522e+07
5.90074e+07
6.37569e+07
8.45158e+07
1.01728e+08
1.02317e+08
5.05171e+07
2.27762e+07
2.44509e+07
8.96159e+07
3.93527e+07
3.56787e+07
6.04436e+07
5.66736e+07
7.06949e+07
2.62821e+07
6.69637e+07
7.1687e+07
5.06541e+07
4.97155e+07
6.29697e+07
3.23247e+07
5.86088e+07
3.11587e+07
6.97097e+07
8.19388e+07
3.54796e+07
4.74804e+07
8.76823e+07
4.55638e+07
4.00782e+07
4.253e+07
4.22656e+07
4.33049e+07
7.19356e+07
7.72307e+07
4.20378e+07
4.29565e+07
4.19523e+07
4.70993e+07
6.77383e+07
3.47916e+07
5.03368e+07
7.53728e+07
3.35877e+07
8.42998e+07
3.82293e+07
5.18846e+07
3.27084e+07
3.16623e+07
8.35338e+07
3.18253e+07
3.64499e+07
3.74393e+07
3.66685e+07
3.31691e+07
4.36468e+07
8.04159e+07
3.25345e+07
6.80874e+07
7.70791e+07
8.68624e+07
4.86823e+07
3.65622e+07
5.78777e+07
5.95059e+07
7.8186e+07
6.13584e+07
2.92532e+07
5.10389e+07
5.04579e+07
4.64673e+07
6.64917e+07
7.49957e+07
3.51079e+07
4.73994e+07
7.55062e+07
6.28408e+07
3.16771e+07
4.65837e+07
3.70137e+07
5.76705e+07
4.68154e+07
2.73281e+07
4.07439e+07
3.73155e+07
5.26837e+07
3.92615e+07
9.39753e+07
6.88651e+07
6.81206e+07
3.30187e+07
7.76648e+07
5.61061e+07
3.60792e+07
4.75488e+07
6.10778e+07
6.3603e+07
7.10755e+07
4.19146e+07
6.20282e+07
8.30542e+07
7.57404e+07
6.50354e+07
4.08662e+07
5.26898e+07
4.53956e+07
7.72011e+07
8.65913e+07
1.75079e+07
4.23966e+07
4.15405e+07
4.69433e+07
6.23008e+07
1.75346e+07
3.85325e+07
6.83499e+07
6.7499e+07
6.2029e+07
6.14969e+07
4.328e+07
7.61793e+07
4.42966e+07
4.74489e+07
4.31274e+07
5.08048e+07
6.45376e+07
8.73022e+07
4.96703e+07
3.74506e+07
3.76702e+07
8.99862e+07
8.08381e+07
4.46221e+07
4.45055e+07
9.60943e+07
3.70788e+07
2.34132e+07
2.28426e+07
5.24812e+07
3.70108e+07
3.71124e+07
4.10132e+07
3.46222e+07
4.75361e+07
3.10863e+07
2.94308e+07
7.14638e+07
5.21026e+07
2.82772e+07
2.80947e+07
2.26703e+07
2.23792e+07
2.04888e+07
3.60728e+07
5.29427e+07
3.62996e+07
5.15454e+07
5.26581e+07
3.71196e+07
5.61341e+07
5.73745e+07
7.33556e+07
5.43574e+07
4.49722e+07
3.63491e+07
1.84441e+07
4.89311e+07
2.63314e+07
4.658e+07
4.43523e+07
6.35113e+07
1.42287e+08
4.55439e+07
8.30287e+07
8.43272e+07
8.06914e+07
3.28507e+07
3.57275e+07
4.7588e+07
4.44485e+07
8.06182e+07
3.0815e+07
5.17065e+07
6.08224e+07
5.36333e+07
3.57746e+07
7.97709e+07
3.41358e+07
3.49462e+07
4.74898e+07
7.48358e+07
8.78965e+07
2.93058e+07
8.83429e+07
7.00852e+07
4.97901e+07
3.69653e+07
7.68234e+07
3.40094e+07
5.20936e+07
6.64639e+07
6.21802e+07
7.29972e+07
3.7207e+07
8.3483e+07
7.53507e+07
7.38179e+07
4.20848e+07
7.62798e+07
4.91788e+07
5.48062e+07
4.69749e+07
5.20523e+07
3.98132e+07
3.97371e+07
5.65767e+07
1.2146e+08
2.7448e+07
8.2231e+07
8.3881e+07
3.75448e+07
1.42813e+07
6.82109e+07
7.2532e+07
5.42558e+07
7.68537e+07
7.69525e+07
1.01612e+08
4.77569e+07
4.77511e+07
2.53628e+07
2.36625e+07
6.52758e+07
7.60823e+07
1.00503e+08
4.13689e+07
4.68123e+07
3.81234e+07
3.15515e+07
7.6334e+07
5.83069e+07
3.72454e+07
2.92264e+07
1.28301e+08
5.45541e+07
5.51701e+07
7.55258e+07
7.90623e+07
8.04525e+07
8.6752e+07
4.76292e+07
3.4368e+07
7.80051e+07
8.73308e+07
6.61569e+07
6.62682e+07
4.08264e+07
3.79805e+07
8.10856e+07
3.76803e+07
4.49669e+07
4.49569e+07
4.66091e+07
3.36414e+07
4.4942e+07
4.29327e+07
7.24767e+07
5.15519e+07
9.11934e+07
5.34753e+07
1.48029e+08
4.90908e+07
4.76119e+07
3.39959e+07
3.75888e+07
4.16118e+07
4.37615e+07
4.81615e+07
4.93332e+07
7.90508e+07
2.22038e+07
4.3251e+07
4.28941e+07
3.87e+07
4.71392e+07
3.97999e+07
4.28724e+07
4.31012e+07
4.05083e+07
1.757e+07
2.8893e+07
5.91778e+07
7.15684e+07
3.5471e+07
6.43428e+07
4.24293e+07
4.90517e+07
4.28762e+07
6.08301e+07
6.54511e+07
5.07096e+07
1.11967e+08
7.96979e+07
3.10537e+07
4.13661e+07
4.11828e+07
6.67175e+07
6.28557e+07
3.56019e+07
6.01761e+07
4.27605e+07
4.2843e+07
8.31985e+07
7.91445e+07
6.36188e+07
3.69196e+07
5.90639e+07
3.56533e+07
5.08042e+07
3.37799e+07
8.03992e+07
5.11696e+07
3.57131e+07
5.08142e+07
3.58499e+07
5.34758e+07
5.23164e+07
9.01463e+07
4.81093e+07
4.56831e+07
4.58234e+07
4.75846e+07
3.38693e+07
4.00521e+07
9.28254e+07
9.08511e+07
9.06038e+07
4.03227e+07
2.97233e+07
3.91354e+07
4.14123e+07
7.29292e+07
3.56727e+07
4.30622e+07
2.88165e+07
3.70946e+07
1.16746e+08
1.66204e+07
3.68293e+07
3.41031e+07
7.38049e+07
7.51521e+07
3.6017e+07
3.6259e+07
4.77651e+07
4.77554e+07
4.78734e+07
6.22004e+07
2.79864e+07
2.8306e+07
9.04507e+07
7.88789e+07
5.12352e+07
5.20418e+07
4.25889e+07
3.691e+07
1.23675e+08
3.02751e+07
3.5651e+07
4.74137e+07
9.00664e+07
7.31701e+07
3.17079e+07
8.03308e+07
3.61187e+07
6.18065e+07
6.94805e+07
4.67342e+07
4.64016e+07
7.68807e+07
9.11383e+07
7.5103e+07
5.34828e+07
6.86175e+07
8.06077e+07
8.20981e+07
8.56561e+07
5.77685e+07
3.93768e+07
7.5482e+07
4.14231e+07
7.51157e+07
7.6674e+07
5.27787e+07
3.2399e+07
4.44934e+07
1.66241e+07
5.80655e+07
6.02428e+07
7.6358e+07
6.19765e+07
4.61349e+07
5.21086e+07
5.31474e+07
2.3384e+07
3.42192e+07
3.62387e+07
1.16623e+08
4.39666e+07
5.19795e+07
3.81569e+07
6.08752e+07
3.77015e+07
6.94361e+07
2.62475e+07
7.99784e+07
9.30647e+07
8.01879e+07
8.37891e+07
7.07961e+07
3.98868e+07
3.57062e+07
3.78359e+07
5.89978e+07
8.03443e+07
8.77754e+07
3.7752e+07
4.49891e+07
8.41354e+07
4.77791e+07
8.21437e+07
5.77948e+07
3.91597e+07
3.68087e+07
3.2511e+07
4.81645e+07
3.64033e+07
4.79735e+07
4.58399e+07
4.20688e+07
7.99969e+07
6.89177e+07
7.01762e+07
2.45108e+07
3.96181e+07
5.72708e+07
3.29262e+07
8.27629e+07
7.67728e+07
8.83426e+07
8.61306e+07
1.69626e+07
4.26414e+07
3.78893e+07
4.5328e+07
3.5721e+07
3.61689e+07
4.71757e+07
4.73056e+07
4.20188e+07
1.82078e+07
6.26827e+07
3.35499e+07
4.12555e+07
4.4472e+07
4.94691e+07
1.76257e+07
5.29633e+07
8.05801e+07
4.73329e+07
8.88452e+07
4.41528e+07
5.80827e+07
4.51773e+07
3.38968e+07
5.18768e+07
3.90483e+07
5.43716e+07
3.4999e+07
6.46857e+07
4.17104e+07
1.63452e+07
3.54684e+07
3.3434e+07
4.75232e+07
3.35251e+07
1.55498e+07
6.56711e+07
3.11594e+07
7.37939e+07
6.21474e+07
5.24473e+07
5.25355e+07
8.69264e+07
8.70274e+07
7.18092e+07
7.13115e+07
3.67885e+07
3.6545e+07
2.96349e+07
8.55384e+07
6.0213e+07
7.87846e+07
3.77321e+07
6.08162e+07
1.52557e+07
9.16648e+07
8.52275e+07
5.18495e+07
3.20042e+07
1.88527e+07
3.88528e+07
3.14513e+07
6.35979e+07
9.25267e+07
4.87421e+07
3.93045e+07
9.06567e+07
3.80834e+07
9.05305e+07
6.89568e+07
8.07775e+07
4.94809e+07
5.36184e+07
6.73622e+07
3.03995e+07
6.68169e+07
8.08047e+07
8.05924e+07
8.1968e+07
4.00568e+07
2.80463e+07
5.29722e+07
4.14163e+07
8.1275e+07
7.80702e+07
8.93556e+07
7.80687e+07
8.24206e+07
3.85471e+07
5.88655e+07
9.16758e+07
6.67962e+07
5.25265e+07
6.9123e+07
1.05428e+08
2.0183e+07
4.8208e+07
7.69961e+07
3.38988e+07
6.87618e+07
1.07334e+08
6.71452e+07
5.61214e+07
3.3941e+07
5.1667e+07
3.53979e+07
5.00144e+07
6.84347e+07
6.63085e+07
6.8621e+07
3.46837e+07
4.74252e+07
2.99415e+07
8.69399e+07
3.65629e+07
7.53162e+07
9.42478e+07
3.68824e+07
6.78106e+07
5.15627e+07
3.55987e+07
5.82483e+07
5.79271e+07
8.2009e+07
6.36121e+07
4.60821e+07
1.07274e+08
6.89943e+07
8.53685e+07
1.81325e+08
7.06624e+07
8.21757e+07
4.6451e+07
6.69435e+07
3.68383e+07
7.43212e+07
9.24291e+07
4.46063e+07
4.32625e+07
4.72353e+07
4.72482e+07
4.21033e+07
3.07008e+07
4.61472e+07
7.5943e+07
7.44321e+07
7.47055e+07
3.08304e+07
7.64861e+07
3.85519e+07
6.87529e+07
5.75854e+07
8.78882e+07
3.28547e+07
3.10302e+07
7.92716e+07
4.06163e+07
8.9405e+07
4.76806e+07
8.7211e+07
4.83548e+07
3.65692e+07
3.6719e+07
3.63451e+07
8.37165e+07
4.35469e+07
4.01248e+07
3.98857e+07
3.94614e+07
5.79409e+07
3.55244e+07
4.91892e+07
4.33348e+07
4.28873e+07
4.25558e+07
7.46561e+07
8.64096e+07
1.03304e+08
6.20541e+07
4.36052e+07
4.721e+07
4.71897e+07
9.20678e+07
4.78323e+07
6.30433e+07
3.01179e+07
3.19135e+07
3.20624e+07
2.96513e+07
4.7235e+07
5.40785e+07
7.52279e+07
2.95724e+07
7.19444e+07
4.33326e+07
6.34505e+07
3.39901e+07
4.0472e+07
2.94615e+07
7.36054e+07
5.87985e+07
8.52836e+07
4.08474e+07
6.29298e+07
3.73765e+07
3.50453e+07
2.82705e+07
2.79917e+07
7.8988e+07
3.6175e+07
8.42118e+07
2.39222e+07
4.65601e+07
5.29212e+07
4.80201e+07
1.82725e+07
3.05161e+07
8.27651e+07
7.8428e+07
4.48818e+07
5.93976e+07
2.36674e+07
3.55476e+07
6.18049e+07
3.66141e+07
4.60558e+07
4.5983e+07
6.02707e+07
4.89794e+07
6.11134e+07
1.10109e+08
5.04886e+07
7.0284e+07
6.57656e+07
6.83014e+07
4.49014e+07
4.36712e+07
5.89648e+07
2.45403e+07
3.9378e+07
7.30981e+07
5.16148e+07
2.83551e+07
6.56174e+07
5.71704e+07
9.73813e+07
4.65351e+07
4.54358e+07
4.42403e+07
4.81374e+07
6.2093e+07
6.49386e+07
6.58888e+07
8.82399e+07
5.89446e+07
4.69127e+07
7.39274e+07
7.94734e+07
7.25895e+07
4.86384e+07
3.66129e+07
3.67827e+07
5.03035e+07
4.18128e+07
4.09635e+07
4.34161e+07
4.31048e+07
2.09082e+07
2.05162e+07
3.31976e+07
4.03601e+07
4.26303e+07
1.80517e+07
3.78151e+07
4.1549e+07
2.90838e+07
3.70901e+07
5.75664e+07
5.71564e+07
4.05266e+07
5.66271e+07
3.42283e+07
5.23721e+07
4.00957e+07
5.13673e+07
5.32928e+07
5.0901e+07
5.35294e+07
8.02416e+07
5.60801e+07
3.35123e+07
7.51424e+07
5.91275e+07
4.46316e+07
3.65868e+07
2.41118e+07
3.87495e+07
6.75907e+07
6.69584e+07
7.34291e+07
6.77219e+07
5.25433e+07
5.42593e+07
1.35008e+07
3.87122e+07
7.99346e+07
1.68309e+08
5.99919e+07
3.68127e+07
7.34062e+07
7.70394e+07
3.90709e+07
4.67029e+07
6.27956e+07
5.21495e+07
7.02043e+07
9.27496e+07
2.59617e+07
4.169e+07
6.99543e+07
7.14897e+07
5.28265e+07
2.89273e+07
6.2749e+07
6.15599e+07
6.41188e+07
1.00401e+08
4.52064e+07
5.27286e+07
8.16679e+07
8.32978e+07
8.37586e+07
4.06089e+07
4.65065e+07
3.88583e+07
6.06427e+07
2.07739e+07
4.87098e+07
7.91336e+07
3.41436e+07
5.52504e+07
5.98904e+07
4.735e+07
1.63422e+08
6.93942e+07
6.54677e+07
7.38963e+07
7.30376e+07
6.66629e+07
4.77392e+07
7.65191e+07
3.69879e+07
4.28012e+07
3.75494e+07
3.62404e+07
3.64276e+07
5.62207e+07
4.66423e+07
5.70821e+07
3.98054e+07
6.76298e+07
3.93484e+07
3.93437e+07
4.21612e+07
3.47277e+07
6.76867e+07
8.2463e+07
8.12453e+07
8.18109e+07
5.06482e+07
4.72433e+07
5.35778e+07
4.02292e+07
6.55402e+07
5.58868e+07
1.20796e+08
9.19682e+07
6.13883e+07
6.19669e+07
9.46741e+07
7.22149e+07
8.24025e+07
6.84862e+07
7.37968e+07
1.78203e+07
8.83893e+07
8.57152e+07
4.36562e+07
9.50048e+07
5.67752e+07
5.13122e+07
3.53405e+07
9.20478e+07
5.66816e+07
8.42419e+07
5.09912e+07
5.09509e+07
7.44117e+07
3.83979e+07
6.15706e+07
5.09544e+07
3.71286e+07
7.41735e+07
5.65184e+07
3.39005e+07
9.04554e+07
7.29293e+07
5.12101e+07
5.07203e+07
3.61702e+07
6.05204e+07
2.62817e+07
1.17931e+08
5.03474e+07
2.57597e+07
4.17657e+07
4.16318e+07
7.6221e+07
4.52757e+07
7.89835e+07
2.89971e+07
7.97394e+07
3.91271e+07
4.23384e+07
1.05576e+08
6.47099e+07
3.76389e+07
4.6741e+07
8.86189e+07
4.38653e+07
2.77624e+07
5.24106e+07
3.61658e+07
4.98987e+07
4.25318e+07
5.38201e+07
3.63492e+07
5.06392e+07
4.97928e+07
5.97571e+07
6.10455e+07
5.7804e+07
7.40409e+07
4.55154e+07
8.43301e+07
5.89457e+07
3.99728e+07
3.56366e+07
4.74925e+07
7.75748e+07
3.76109e+07
6.19472e+07
7.53807e+07
3.60957e+07
2.69973e+07
1.43505e+07
5.10421e+07
2.91125e+07
3.05782e+07
4.78469e+07
3.46041e+07
7.34062e+07
1.981e+07
7.87625e+07
7.76747e+07
7.69782e+07
8.96398e+07
5.46339e+07
3.85004e+07
6.87815e+07
6.20989e+07
4.80377e+07
7.59319e+07
8.40296e+07
4.42018e+07
4.43417e+07
3.87712e+07
4.3637e+07
4.65608e+07
4.9866e+07
8.29272e+07
5.35677e+07
5.46237e+07
7.3451e+07
6.05086e+07
3.67639e+07
4.81312e+07
6.1909e+07
4.80714e+07
4.78192e+07
5.02545e+07
3.99911e+07
4.81916e+07
3.65237e+07
3.87822e+07
6.86214e+07
1.90861e+07
1.59591e+08
3.68373e+07
8.10254e+07
6.16717e+07
4.53475e+07
4.64859e+07
3.93261e+07
2.58053e+07
3.91622e+07
3.81321e+07
4.62329e+07
1.81687e+07
2.66764e+07
4.70889e+07
5.11261e+07
5.92212e+07
5.38053e+07
4.46308e+07
4.91686e+07
7.90442e+07
7.57425e+07
4.33817e+07
9.36169e+07
8.23497e+07
4.94382e+07
6.51837e+07
2.03772e+07
8.38701e+07
8.35003e+07
6.76603e+07
5.76013e+07
5.0805e+07
4.23575e+07
4.26182e+07
6.96009e+07
5.97314e+07
5.84751e+07
5.25518e+07
4.62896e+07
7.776e+07
4.61228e+07
7.63866e+07
7.43423e+07
7.16458e+07
4.25951e+07
2.80677e+07
5.11347e+07
4.89097e+07
6.07206e+07
4.80345e+07
9.67259e+07
6.84212e+07
7.5722e+07
3.84866e+07
7.66561e+07
5.14403e+07
6.39556e+07
7.57126e+07
4.87718e+07
4.47128e+07
4.61004e+07
6.36585e+07
4.69098e+07
6.48071e+07
7.06391e+07
4.14618e+07
5.8787e+07
2.53715e+07
3.45323e+07
4.54395e+07
5.25687e+07
5.24621e+07
4.03936e+07
4.03599e+07
6.19294e+07
3.7259e+07
8.42294e+07
4.26373e+07
4.27545e+07
1.83032e+07
7.15433e+07
8.84286e+07
1.81112e+07
7.81906e+07
1.82464e+08
8.38937e+07
7.99056e+07
4.7159e+07
5.60371e+07
3.26007e+07
4.83223e+07
6.563e+07
2.59023e+07
8.42096e+07
4.69909e+07
4.58771e+07
2.15017e+07
7.929e+07
5.3263e+07
5.66692e+07
3.40853e+07
6.17058e+07
3.88818e+07
3.90489e+07
8.14185e+07
6.21206e+07
3.22771e+07
3.2805e+07
1.00621e+08
3.86416e+07
3.84235e+07
8.85955e+07
3.59904e+07
5.05647e+07
5.06351e+07
1.5083e+08
4.24115e+07
4.5934e+07
5.20827e+07
7.80882e+07
4.98047e+07
8.55994e+07
8.92291e+07
7.00475e+07
4.88594e+07
6.23776e+07
9.02561e+07
4.15926e+07
4.84134e+07
4.52174e+07
8.24584e+07
6.21331e+07
8.4046e+07
3.64262e+07
6.4392e+07
8.96593e+07
3.73283e+07
8.31025e+07
6.96407e+07
4.6865e+07
8.31727e+07
8.54329e+07
9.2547e+07
7.49454e+07
3.65564e+07
6.69016e+07
6.62447e+07
8.9348e+07
3.66795e+07
7.08345e+07
4.62709e+07
2.83171e+07
8.59998e+07
4.75808e+07
4.5092e+07
1.53386e+07
4.79846e+07
4.77529e+07
8.9632e+07
5.96903e+07
3.85321e+07
3.81143e+07
3.82965e+07
6.11507e+07
7.49176e+07
4.00148e+07
5.19297e+07
3.49999e+07
5.86323e+07
8.02409e+07
7.66572e+07
8.58644e+07
1.87171e+07
1.96678e+07
7.83492e+07
8.04365e+07
3.68458e+07
1.81882e+07
1.77459e+07
3.8149e+07
2.11057e+07
6.03317e+07
4.3413e+07
7.02748e+07
4.26597e+07
9.78772e+07
2.20965e+07
5.44767e+07
2.32848e+07
4.12357e+07
8.35073e+07
8.30645e+07
8.57848e+07
8.64347e+07
8.50613e+07
8.30375e+07
8.11493e+07
5.85214e+07
6.35027e+07
3.63256e+07
2.71812e+07
6.66759e+07
2.6376e+07
4.71921e+07
5.44493e+07
7.07322e+07
4.06779e+07
2.85749e+07
6.77118e+07
7.11316e+07
6.21347e+07
5.27185e+07
6.4349e+07
6.25513e+07
5.85464e+07
5.17515e+07
7.26452e+07
7.10615e+07
7.01019e+07
7.19966e+07
8.77041e+07
8.31e+07
9.17416e+07
3.85128e+07
3.03779e+07
7.58058e+07
8.54937e+07
1.16756e+08
7.51849e+07
4.04058e+07
8.28198e+07
3.94126e+07
4.84667e+07
1.64634e+07
4.50775e+07
7.05124e+07
6.21567e+07
2.49704e+07
7.86274e+07
2.60781e+07
2.24615e+07
2.23237e+07
1.02499e+08
3.70284e+07
6.46992e+07
8.89153e+07
7.40382e+07
4.30693e+07
8.08997e+07
5.68086e+07
4.71026e+07
5.73591e+07
8.25529e+07
4.91265e+07
5.74535e+07
4.44683e+07
3.08028e+07
2.13758e+07
7.89521e+07
3.42898e+07
4.23143e+07
3.50434e+07
5.39107e+07
3.53433e+07
5.34974e+07
5.3754e+07
3.63372e+07
2.47625e+07
3.23436e+07
4.5542e+07
3.61471e+07
3.58739e+07
5.05003e+07
2.00496e+07
2.71695e+07
5.67933e+07
4.08328e+07
2.00696e+07
4.61553e+07
8.01945e+07
4.80484e+07
9.90195e+07
4.47433e+07
7.67387e+07
9.14495e+07
4.5651e+07
7.65143e+07
8.29566e+07
4.63243e+07
7.66997e+07
5.16291e+07
7.66552e+07
7.71624e+07
4.58846e+07
4.94586e+07
4.8445e+07
4.14109e+07
2.33788e+07
7.25077e+07
8.41711e+07
8.74978e+07
3.91982e+07
8.05056e+07
4.39871e+07
3.61163e+07
3.92312e+07
4.25896e+07
6.98768e+07
4.24764e+07
4.8941e+07
7.22143e+07
7.22493e+07
4.7659e+07
4.6248e+07
9.30527e+07
7.06017e+07
8.19583e+07
5.23541e+07
1.88306e+07
3.34362e+07
4.29711e+07
6.36048e+07
5.91555e+07
3.70178e+07
4.09336e+07
4.11061e+07
6.61473e+07
3.98136e+07
4.0329e+07
4.04556e+07
6.09081e+07
4.10796e+07
3.73319e+07
5.12497e+07
6.30688e+07
4.59822e+07
4.55867e+07
5.72318e+07
3.19376e+07
4.65467e+07
4.65774e+07
1.09695e+08
4.82267e+07
3.64842e+07
4.25262e+07
2.72663e+07
3.08748e+07
4.49097e+07
7.05901e+07
8.74928e+07
5.17684e+07
3.10707e+07
7.83977e+07
6.54731e+07
5.26093e+07
3.65101e+07
5.24972e+07
3.63545e+07
4.26463e+07
4.06334e+07
8.65817e+07
5.64547e+07
3.25654e+07
7.27998e+07
7.43416e+07
6.61351e+07
7.56113e+07
8.67966e+07
8.18671e+07
7.84297e+07
4.35585e+07
2.6741e+07
1.60739e+08
9.12846e+07
8.50557e+07
5.31179e+07
9.01906e+07
2.62436e+07
4.55702e+07
4.21492e+07
4.2138e+07
2.37767e+07
4.25135e+07
3.71777e+07
9.47561e+07
7.70884e+07
5.38639e+07
5.11912e+07
8.73256e+07
3.77131e+07
4.45223e+07
5.2586e+07
3.61075e+07
7.96443e+07
6.84585e+07
4.69846e+07
2.22825e+07
8.37913e+07
7.54925e+07
7.30264e+07
7.7059e+07
2.58477e+07
8.92025e+07
8.05201e+07
3.87847e+07
6.03002e+07
4.8592e+07
8.19563e+07
3.15723e+07
3.19389e+07
6.44925e+07
4.68838e+07
4.72934e+07
7.12387e+07
2.46621e+07
4.89216e+07
7.98142e+07
3.29611e+07
8.0789e+07
4.11893e+07
4.2841e+07
6.55531e+07
4.73279e+07
1.83262e+07
3.69548e+07
1.77857e+07
4.23146e+07
4.21936e+07
4.08513e+07
3.30729e+07
7.91203e+07
4.71252e+07
3.01118e+07
7.21748e+07
7.38536e+07
4.81036e+07
4.90676e+07
2.77098e+07
2.72426e+07
7.65055e+07
7.80286e+07
7.50178e+07
5.53244e+07
3.84811e+07
9.60427e+07
3.94796e+07
2.01312e+07
3.78902e+07
5.29625e+07
3.4806e+07
8.172e+07
4.47311e+07
5.37662e+07
5.60413e+07
6.34953e+07
6.73776e+07
7.847e+07
3.76851e+07
6.12169e+07
6.18179e+07
3.5517e+07
8.41652e+07
5.75332e+07
3.98818e+07
6.19543e+07
4.0588e+07
6.29174e+07
6.24491e+07
8.47797e+07
3.02606e+07
3.91221e+07
3.89305e+07
1.68347e+08
1.38175e+08
3.78321e+07
4.70509e+07
5.21997e+07
3.48372e+07
8.00797e+07
3.06012e+07
4.66185e+07
6.86858e+07
5.07516e+07
3.57804e+07
7.22277e+07
8.64016e+07
3.00081e+07
5.08355e+07
7.92536e+07
5.13457e+07
7.94073e+07
1.29574e+08
4.71934e+07
4.75998e+07
2.51918e+07
4.25163e+07
8.22788e+07
5.58102e+07
5.64406e+07
7.64729e+07
2.41554e+07
8.57865e+07
3.5738e+07
7.94687e+07
5.79785e+07
7.9631e+07
6.33719e+07
5.33756e+07
3.19406e+07
5.18717e+07
9.24178e+07
4.15741e+07
8.20452e+07
5.41264e+07
8.16758e+07
4.80453e+07
4.98958e+07
4.40892e+07
4.38173e+07
3.61365e+07
4.95199e+07
7.97683e+07
5.43708e+07
5.21143e+07
3.82294e+07
4.44688e+07
4.70332e+07
7.44219e+07
6.0392e+07
7.55528e+07
8.91489e+07
6.09976e+07
4.20029e+07
4.30733e+07
2.95909e+07
3.84832e+07
3.84179e+07
4.28693e+07
8.82619e+07
4.32434e+07
8.18563e+07
7.89423e+07
7.4751e+07
3.9859e+07
3.98574e+07
8.00496e+07
5.15907e+07
3.51052e+07
8.99719e+07
5.54928e+07
4.3249e+07
7.4666e+07
4.46891e+07
4.29756e+07
9.83827e+07
9.13341e+07
8.17058e+07
6.2906e+07
6.27691e+07
8.89868e+07
5.3295e+07
7.32045e+07
6.89431e+07
9.24047e+07
5.74819e+07
5.7519e+07
5.221e+07
3.73856e+07
6.68987e+07
7.86448e+07
3.55794e+07
3.54322e+07
5.51135e+07
8.81657e+07
4.66903e+07
3.65842e+07
3.40361e+07
4.10252e+07
1.3991e+08
5.93039e+07
7.62585e+07
2.91186e+07
2.82944e+07
5.77047e+07
3.58325e+07
4.75615e+07
1.09651e+08
4.79366e+07
3.38171e+07
3.86952e+07
4.19458e+07
4.04697e+07
5.70229e+07
4.30229e+07
6.30729e+07
2.7333e+07
8.53856e+07
8.15529e+07
6.76386e+07
3.55368e+07
3.42979e+07
4.75973e+07
7.95353e+07
4.63293e+07
8.34845e+07
4.99125e+07
4.91571e+07
1.19503e+08
8.19922e+07
4.68849e+07
1.98981e+07
2.00519e+07
1.23658e+08
3.53059e+07
4.71809e+07
4.02238e+07
4.40181e+07
7.62886e+07
4.48396e+07
3.81297e+07
6.0782e+07
3.65345e+07
1.82509e+07
4.72819e+07
7.7556e+07
4.18494e+07
6.74447e+07
4.01401e+07
3.71946e+07
7.83495e+07
6.64918e+07
5.26114e+07
1.07489e+08
5.67157e+07
7.66174e+07
7.9708e+07
7.78937e+07
8.95931e+07
3.39489e+07
5.15999e+07
4.76325e+07
3.91046e+07
4.2461e+07
7.28649e+07
6.4001e+07
6.22069e+07
3.23592e+07
3.85356e+07
3.95545e+07
7.54289e+07
5.95284e+07
5.89553e+07
4.97155e+07
3.67662e+07
3.23913e+07
3.24513e+07
4.18867e+07
3.12596e+07
2.51749e+07
3.85921e+07
5.36739e+07
6.17272e+07
1.0767e+08
2.27305e+07
4.59698e+07
2.26987e+07
1.9701e+07
3.52593e+07
1.02088e+08
8.75635e+07
5.59168e+07
6.07589e+07
4.22363e+07
1.11876e+08
3.59614e+07
3.18689e+07
7.65611e+07
1.54423e+07
3.83041e+07
3.86611e+07
9.18455e+07
7.14188e+07
6.18723e+07
1.02586e+08
3.15103e+07
3.96378e+07
4.1802e+07
7.84174e+07
7.04147e+07
6.05404e+07
8.02489e+07
9.82722e+07
3.49777e+07
4.73021e+07
7.8948e+07
6.24754e+07
2.95649e+07
8.07784e+07
5.31224e+07
3.8161e+07
3.92277e+07
2.75445e+07
5.37678e+07
3.98454e+07
8.39015e+07
4.48703e+07
4.42851e+07
3.24298e+07
3.26047e+07
4.46328e+07
3.87071e+07
3.85577e+07
4.16066e+07
7.89884e+07
7.67705e+07
7.80801e+07
3.79441e+07
5.68485e+07
9.097e+07
7.45474e+07
7.39464e+07
6.32881e+07
3.10364e+07
3.14302e+07
7.2697e+07
7.71881e+07
7.60562e+07
5.20367e+07
3.55443e+07
4.75738e+07
7.34106e+07
8.04059e+07
1.06365e+08
8.39965e+07
7.34592e+07
6.89501e+07
7.99987e+07
3.0545e+07
4.76189e+07
6.34597e+07
9.14532e+07
4.67564e+07
7.97677e+07
4.27697e+07
3.74942e+07
3.71934e+07
3.70603e+07
3.64958e+07
7.34839e+07
6.69578e+07
6.73053e+07
3.97369e+07
1.03499e+08
6.06152e+07
3.86852e+07
6.87425e+07
7.17275e+07
4.52866e+07
4.05439e+07
5.29269e+07
3.56235e+07
4.45201e+07
3.63815e+07
9.79526e+07
6.10006e+07
5.34114e+07
7.56017e+07
4.9025e+07
4.77056e+07
3.45898e+07
6.33948e+07
8.02066e+07
3.38509e+07
3.38292e+07
4.75272e+07
4.75053e+07
4.89019e+07
7.6675e+07
7.17956e+07
8.74385e+07
2.27812e+07
4.20559e+07
4.16372e+07
6.03067e+07
6.80992e+07
7.61342e+07
3.67966e+07
7.77403e+07
5.70865e+07
6.24665e+07
6.04358e+07
8.94319e+07
4.18389e+07
4.33662e+07
4.3307e+07
1.09231e+08
3.68309e+07
3.70382e+07
1.16633e+08
4.09788e+07
6.02359e+07
1.65384e+07
3.73381e+07
6.29737e+07
1.18178e+08
5.44051e+07
4.11472e+07
4.73403e+07
1.07777e+08
6.68713e+07
3.9928e+07
8.5235e+07
7.2647e+07
4.76003e+07
1.89198e+07
4.23709e+07
5.82812e+07
2.85304e+07
1.27312e+08
3.95745e+07
3.68224e+07
3.34315e+07
7.70798e+07
1.06416e+08
8.812e+07
7.26044e+07
4.85999e+07
3.64307e+07
6.02612e+07
1.02117e+08
4.60459e+07
3.69672e+07
7.28304e+07
6.86198e+07
4.40582e+07
2.21093e+07
4.43613e+07
6.07674e+07
6.0255e+07
7.02005e+07
7.95496e+07
4.86139e+07
4.84577e+07
2.985e+07
7.86903e+07
4.93084e+07
7.11059e+07
4.84341e+07
4.59218e+07
4.76396e+07
6.9248e+07
4.82155e+07
4.97379e+07
8.38582e+07
9.78133e+07
5.22796e+07
3.85113e+07
6.22243e+07
7.94526e+07
2.85849e+07
6.0597e+07
5.33006e+07
3.53348e+07
4.2803e+07
9.58146e+07
5.05336e+07
3.63415e+07
7.59773e+07
5.50181e+07
3.49347e+07
5.16991e+07
5.12639e+07
2.96472e+07
6.969e+07
3.41196e+07
5.75324e+07
5.40556e+07
3.64634e+07
3.63777e+07
4.61078e+07
5.11199e+07
2.81415e+07
6.37567e+07
5.40699e+07
6.8768e+07
6.90887e+07
3.84996e+07
9.65568e+07
7.6345e+07
5.12628e+07
3.70686e+07
8.36191e+07
4.981e+07
4.75916e+07
9.34091e+07
7.87035e+07
5.91666e+07
6.40342e+07
2.64606e+07
3.50687e+07
4.74107e+07
6.62498e+07
7.40151e+07
7.12027e+07
3.91912e+07
6.08175e+07
8.20403e+07
7.10561e+07
7.70757e+07
5.48739e+07
4.92832e+07
6.09257e+07
4.66944e+07
4.89425e+07
4.98513e+07
8.2353e+07
5.03088e+07
8.15372e+07
5.46132e+07
3.36237e+07
4.79517e+07
3.59201e+07
8.54854e+07
6.81898e+07
3.89857e+07
5.40372e+07
7.03287e+07
5.08507e+07
6.8405e+07
7.91043e+07
4.98401e+07
6.13094e+07
6.24152e+07
3.64268e+07
2.37482e+07
5.19249e+07
7.80586e+07
4.60186e+07
5.65975e+07
2.97158e+07
8.83055e+07
7.33903e+07
4.12609e+07
7.66408e+07
4.74112e+07
8.84027e+07
4.8073e+07
6.11599e+07
7.55104e+07
5.1199e+07
3.57237e+07
5.09422e+07
4.2345e+07
3.02116e+07
7.62207e+07
7.72068e+07
4.67255e+07
3.28255e+07
5.92216e+07
3.93428e+07
8.28174e+07
7.06554e+07
8.33857e+07
5.7338e+07
6.86175e+07
4.00826e+07
7.41644e+07
4.76564e+07
5.15745e+07
5.4775e+07
6.60596e+07
6.19543e+07
3.6724e+07
4.16604e+07
4.85861e+07
3.64325e+07
3.87629e+07
8.62493e+07
4.48958e+07
4.32302e+07
3.34277e+07
5.4644e+07
4.12255e+07
3.67727e+07
7.35466e+07
4.13192e+07
6.64524e+07
5.12068e+07
4.1048e+07
5.6741e+07
6.92548e+07
3.29717e+07
8.60028e+07
6.33625e+07
5.68001e+07
4.36057e+07
7.57133e+07
4.22971e+07
3.44607e+07
4.75306e+07
3.37382e+07
4.75524e+07
8.44646e+07
3.90434e+07
7.84965e+07
5.43119e+07
4.588e+07
4.32844e+07
8.83524e+07
8.04666e+07
7.72271e+07
4.20688e+07
4.86417e+07
5.55731e+07
5.48549e+07
3.55649e+07
4.27528e+07
5.57244e+07
3.41551e+07
7.96819e+07
5.60761e+07
5.62315e+07
3.42365e+07
4.1926e+07
4.1833e+07
7.89955e+07
8.9939e+07
7.83765e+07
8.43887e+07
3.91447e+07
8.6587e+07
8.29618e+07
4.66749e+07
4.64084e+07
4.87308e+07
4.86866e+07
6.36135e+07
5.01858e+07
4.22655e+07
8.07005e+07
4.5715e+07
3.8955e+07
5.73867e+07
5.52696e+07
3.41074e+07
4.19712e+07
3.82311e+07
3.78238e+07
7.30479e+07
6.25066e+07
9.02019e+07
4.79439e+07
2.66663e+07
2.60388e+07
3.93215e+07
5.35025e+07
5.1587e+07
4.24753e+07
7.92072e+07
4.33586e+07
8.52071e+07
4.30958e+07
4.76455e+07
2.89406e+07
6.84478e+07
4.39654e+07
2.70396e+07
5.93808e+07
5.99302e+07
6.87655e+07
8.56686e+07
6.09609e+07
6.19651e+07
2.12858e+07
4.27097e+07
8.56963e+07
8.07792e+07
8.06843e+07
5.35058e+07
3.54472e+07
5.42205e+07
7.1199e+07
4.23829e+07
4.64224e+07
4.58027e+07
1.55032e+08
2.745e+07
8.22387e+07
3.73486e+07
8.07867e+07
9.204e+07
4.93252e+07
3.85549e+07
3.82384e+07
5.27366e+07
3.46434e+07
5.51768e+07
7.94213e+07
8.71933e+07
5.86543e+07
2.45048e+07
6.05347e+07
4.08236e+07
6.86367e+07
5.10339e+07
4.0523e+07
4.06251e+07
7.92837e+07
5.6348e+07
5.77102e+07
6.91875e+07
3.80912e+07
7.04052e+07
4.31583e+07
8.17603e+07
6.86349e+07
4.98937e+07
5.25626e+07
5.85906e+07
4.27567e+07
5.13504e+07
5.17953e+07
6.46416e+07
3.73501e+07
6.44367e+07
7.6939e+07
5.222e+07
5.29332e+07
7.93989e+07
4.47459e+07
8.64123e+07
4.83087e+07
5.07963e+07
8.89327e+07
2.57144e+07
4.64041e+07
2.55585e+07
3.63288e+07
2.97481e+07
3.32321e+07
2.5188e+07
5.16184e+07
3.53385e+07
3.63922e+07
8.1046e+07
4.60811e+07
8.19037e+07
5.39553e+07
3.43181e+07
6.13238e+07
5.46256e+07
5.60384e+07
5.56343e+07
6.52947e+07
5.34247e+07
8.37264e+07
8.2321e+07
6.29025e+07
4.81446e+07
2.23077e+07
4.97019e+07
4.42698e+07
8.29229e+07
3.26737e+07
1.01288e+08
3.80472e+07
5.00354e+07
4.9577e+07
8.85249e+07
7.7563e+07
7.7239e+07
2.11062e+07
3.98694e+07
4.29675e+07
6.56234e+07
7.53769e+07
6.77315e+07
5.0904e+07
4.5228e+07
4.52299e+07
6.51759e+07
9.51352e+07
2.83415e+07
8.45892e+07
4.28132e+07
4.29856e+07
3.82733e+07
6.72516e+07
3.6679e+07
3.63794e+07
4.98245e+07
4.76035e+07
5.9284e+07
6.17354e+07
3.01048e+07
4.78384e+07
3.00565e+07
6.74359e+07
9.89363e+07
5.35966e+07
3.74437e+07
5.17535e+07
5.15046e+07
4.21358e+07
4.15519e+07
6.27182e+07
3.49259e+07
8.0747e+07
7.71141e+07
6.55168e+07
4.76429e+07
4.19598e+07
4.45362e+07
4.15802e+07
3.81018e+07
5.02854e+07
5.61148e+07
6.0731e+07
6.00536e+07
5.62081e+07
5.60601e+07
4.27402e+07
4.55484e+07
3.83449e+07
7.8642e+07
6.29017e+07
6.72013e+07
2.69556e+07
1.07863e+08
3.03736e+07
4.11403e+07
5.33547e+07
3.45975e+07
5.4611e+07
3.37486e+07
1.14662e+08
7.05122e+07
1.14267e+08
7.34381e+07
5.46202e+07
4.98946e+07
7.70575e+07
9.51684e+07
4.75947e+07
2.30228e+07
7.25326e+07
6.87483e+07
1.14914e+08
5.78713e+07
4.33209e+07
8.50345e+07
6.74088e+07
5.5925e+07
3.43258e+07
4.67699e+07
8.1475e+07
8.43557e+07
4.39709e+07
2.81066e+07
1.10234e+08
5.00924e+07
2.46794e+07
6.53759e+07
2.96927e+07
5.3637e+07
3.46793e+07
4.94993e+07
8.36054e+07
4.1982e+07
5.79795e+07
8.14808e+07
5.57312e+07
4.29584e+07
5.58503e+07
4.44613e+07
9.18447e+07
7.95088e+07
5.2614e+07
8.42058e+07
5.85759e+07
4.44137e+07
3.09042e+07
5.79385e+07
6.40421e+07
8.12358e+07
8.07385e+07
8.42617e+07
7.28577e+07
6.81278e+07
4.66392e+07
5.24027e+07
3.76017e+07
4.69805e+07
3.80763e+07
3.83017e+07
1.95985e+07
5.4767e+07
3.55755e+07
1.06455e+08
7.6821e+07
7.6628e+07
8.31368e+07
6.88618e+07
3.86503e+07
4.7653e+07
6.05367e+07
4.04172e+07
3.51719e+07
4.73282e+07
4.75915e+07
5.38639e+07
8.12674e+07
5.28587e+07
3.44948e+07
5.42995e+07
3.16162e+07
6.61116e+07
4.7425e+07
3.50254e+07
7.2927e+07
2.59492e+07
3.53563e+07
6.23361e+07
5.15656e+07
2.80424e+07
3.35134e+07
8.77878e+07
3.54164e+07
4.75681e+07
4.11499e+07
5.71095e+07
6.93727e+07
6.22462e+07
4.00526e+07
4.38047e+07
7.55066e+07
9.49998e+07
5.50333e+07
2.69026e+07
4.47007e+07
3.64663e+07