/*--------------------------------*- C++ -*----------------------------------*\
| =========                 |                                                 |
| \\      /  F ield         | OpenFOAM: The Open Source CFD Toolbox           |
|  \\    /   O peration     | Version:  v2012                                 |
|   \\  /    A nd           | Website:  www.openfoam.com                      |
|    \\/     M anipulation  |                                                 |
\*---------------------------------------------------------------------------*/
FoamFile
{
    version     2.0;
    format      ascii;
    class       pointScalarField;
    location    "12";
    object      pEpsilonEq;
}
// * * * * * * * * * * * * * * * * * * * * * * * * * * * * * * * * * * * * * //

dimensions      [0 0 0 0 0 0 0];


internalField   nonuniform List<scalar> 
530
(
0.00154833
0.000817276
0.00117644
0.00118102
0.00758039
0.00154833
0.000817276
0.00117644
0.00118102
0.00758039
0.000850128
0.000492281
0.000350979
0.000372553
0.000447503
0.000502564
0.000572239
0.000638675
0.000715011
0.000779174
0.000833827
0.000868184
0.000878149
0.000857572
0.000851714
0.000861325
0.000908559
0.000945805
0.00101411
0.00107531
0.00111394
0.00115801
0.00116935
0.0011814
0.00119696
0.0012473
0.00130981
0.0014043
0.00148784
0.00162464
0.00173025
0.00188652
0.00199076
0.00216145
0.00233514
0.00224597
0.00230965
0.00223203
0.00206104
0.00179939
0.00139183
0.00109571
0.00164164
0.00218789
0.00338908
0.00549492
0.007478
0.00389221
0.0019266
0.000983347
0.000809792
0.0011884
0.00148866
0.000850128
0.000492281
0.000350979
0.000372553
0.000447503
0.000502564
0.000572239
0.000638675
0.000715011
0.000779174
0.000833827
0.000868184
0.000878149
0.000857572
0.000851714
0.000861325
0.000908559
0.000945805
0.00101411
0.00107531
0.00111394
0.00115801
0.00116935
0.0011814
0.00119696
0.0012473
0.00130981
0.0014043
0.00148784
0.00162464
0.00173025
0.00188652
0.00199076
0.00216145
0.00233514
0.00224597
0.00230965
0.00223203
0.00206104
0.00179939
0.00139183
0.00109571
0.00164164
0.00218789
0.00338908
0.00549492
0.007478
0.00389221
0.0019266
0.000983347
0.000809792
0.0011884
0.00148866
0.00151666
0.00114576
0.00208036
0.00147177
0.00100116
0.00118843
0.000965641
0.00247107
0.0011196
0.00186546
0.00089285
0.00138957
0.000822434
0.00160705
0.00106071
0.00174424
0.00123214
0.0013189
0.00223312
0.00207726
0.00086916
0.00132079
0.000896737
0.00118888
0.00177946
0.00210995
0.00158498
0.000741099
0.00112912
0.00100412
0.00202325
0.00157713
0.000962777
0.00111801
0.00126241
0.0033011
0.0011829
0.000652098
0.000668405
0.000774714
0.00145494
0.00116637
0.00134218
0.000980153
0.00199291
0.00216355
0.00171158
0.000888411
0.00123864
0.00162541
0.000788154
0.0014094
0.00110174
0.00194796
0.00167386
0.0023083
0.00210182
0.00247897
0.00103351
0.00127422
0.00104637
0.000537123
0.000963855
0.00197071
0.000996609
0.00221322
0.00175861
0.00252569
0.00151257
0.000708009
0.00133881
0.00160496
0.00118805
0.00129181
0.00112579
0.00114141
0.000907543
0.00216458
0.0018985
0.00136927
0.00109362
0.000871258
0.00117409
0.00123397
0.00106129
0.000588945
0.00115608
0.00158418
0.0014669
0.000614081
0.000783195
0.000919122
0.000871554
0.00095117
0.00144177
0.001461
0.00118605
0.00116705
0.000936817
0.00216963
0.00187738
0.00161233
0.00125562
0.000808814
0.00164075
0.0013594
0.0022069
0.00134038
0.00132043
0.000889633
0.00121215
0.00109529
0.00119115
0.00238455
0.00234465
0.00192424
0.0014499
0.00168721
0.00213444
0.00100589
0.00100746
0.0015576
0.00102426
0.0044249
0.00245895
0.00200929
0.00147728
0.000913569
0.00121668
0.00591622
0.000519633
0.000991458
0.000471139
0.00101835
0.00101161
0.00186099
0.00157863
0.000636315
0.000841757
0.00261838
0.00136284
0.000937274
0.00109947
0.00128692
0.00124389
0.000850817
0.00410004
0.00109968
0.00182244
0.00092231
0.00106865
0.00229712
0.000799434
0.000707445
0.00168856
0.00105747
0.00183346
0.000895001
0.00219408
0.00134222
0.00217226
0.000660147
0.0013828
0.000625215
0.00204964
0.00197766
0.00113993
0.00116331
0.00087331
0.00224361
0.00109016
0.000916963
0.00170289
0.0016245
0.00190534
0.00133207
0.00184835
0.000977653
0.0012654
0.000973128
0.00106126
0.00128642
0.00181841
0.00178635
0.00200656
0.00110674
0.0014209
0.000897516
0.00149645
0.00218309
0.000855287
0.000754741
0.000435088
0.00203382
0.00177945
0.00143843
0.00129751
0.00107683
0.00143205
0.00178568
0.000876003
0.00118587
0.00179274
0.000982425
0.000845756
0.00117562
0.00167047
0.00151666
0.00114576
0.00208036
0.00147177
0.00100116
0.00118843
0.000965641
0.00247107
0.0011196
0.00186546
0.00089285
0.00138957
0.000822434
0.00160705
0.00106071
0.00174424
0.00123214
0.0013189
0.00223312
0.00207726
0.00086916
0.00132079
0.000896737
0.00118888
0.00177946
0.00210995
0.00158498
0.000741099
0.00112912
0.00100412
0.00202325
0.00157713
0.000962777
0.00111801
0.00126241
0.0033011
0.0011829
0.000652098
0.000668405
0.000774714
0.00145494
0.00116637
0.00134218
0.000980153
0.00199291
0.00216355
0.00171158
0.000888411
0.00123864
0.00162541
0.000788154
0.0014094
0.00110174
0.00194796
0.00167386
0.0023083
0.00210182
0.00247897
0.00103351
0.00127422
0.00104637
0.000537123
0.000963855
0.00197071
0.000996609
0.00221322
0.00175861
0.00252569
0.00151257
0.000708009
0.00133881
0.00160496
0.00118805
0.00129181
0.00112579
0.00114141
0.000907543
0.00216458
0.0018985
0.00136927
0.00109362
0.000871258
0.00117409
0.00123397
0.00106129
0.000588945
0.00115608
0.00158418
0.0014669
0.000614081
0.000783195
0.000919122
0.000871554
0.00095117
0.00144177
0.001461
0.00118605
0.00116705
0.000936817
0.00216963
0.00187738
0.00161233
0.00125562
0.000808814
0.00164075
0.0013594
0.0022069
0.00134038
0.00132043
0.000889633
0.00121215
0.00109529
0.00119115
0.00238455
0.00234465
0.00192424
0.0014499
0.00168721
0.00213444
0.00100589
0.00100746
0.0015576
0.00102426
0.0044249
0.00245895
0.00200929
0.00147728
0.000913569
0.00121668
0.00591622
0.000519633
0.000991458
0.000471139
0.00101835
0.00101161
0.00186099
0.00157863
0.000636315
0.000841757
0.00261838
0.00136284
0.000937274
0.00109947
0.00128692
0.00124389
0.000850817
0.00410004
0.00109968
0.00182244
0.00092231
0.00106865
0.00229712
0.000799434
0.000707445
0.00168856
0.00105747
0.00183346
0.000895001
0.00219408
0.00134222
0.00217226
0.000660147
0.0013828
0.000625215
0.00204964
0.00197766
0.00113993
0.00116331
0.00087331
0.00224361
0.00109016
0.000916963
0.00170289
0.0016245
0.00190534
0.00133207
0.00184835
0.000977653
0.0012654
0.000973128
0.00106126
0.00128642
0.00181841
0.00178635
0.00200656
0.00110674
0.0014209
0.000897516
0.00149645
0.00218309
0.000855287
0.000754741
0.000435088
0.00203382
0.00177945
0.00143843
0.00129751
0.00107683
0.00143205
0.00178568
0.000876003
0.00118587
0.00179274
0.000982425
0.000845756
0.00117562
0.00167047
)
;

boundaryField
{
    back
    {
        type            empty;
    }
    front
    {
        type            empty;
    }
    down
    {
        type            calculated;
    }
    right
    {
        type            calculated;
    }
    up
    {
        type            calculated;
    }
    left
    {
        type            calculated;
    }
    hole
    {
        type            calculated;
    }
}


// ************************************************************************* //
