/*--------------------------------*- C++ -*----------------------------------*\
| =========                 |                                                 |
| \\      /  F ield         | OpenFOAM: The Open Source CFD Toolbox           |
|  \\    /   O peration     | Version:  v2012                                 |
|   \\  /    A nd           | Website:  www.openfoam.com                      |
|    \\/     M anipulation  |                                                 |
\*---------------------------------------------------------------------------*/
FoamFile
{
    version     2.0;
    format      ascii;
    class       pointVectorField;
    location    "12";
    object      pointD;
}
// * * * * * * * * * * * * * * * * * * * * * * * * * * * * * * * * * * * * * //

dimensions      [0 1 0 0 0 0 0];


internalField   nonuniform List<vector> 
530
(
(0.00315299 0 0)
(0.0043148 0 0)
(0.00398419 -0.000355614 0)
(0 -0.00232161 0)
(0 -0.00134029 0)
(0.00315299 0 0)
(0.0043148 0 0)
(0.00398419 -0.000355614 0)
(0 -0.00232161 0)
(0 -0.00134029 0)
(0.00319592 0 0)
(0.00322864 0 0)
(0.00325178 0 0)
(0.00328691 0 0)
(0.00333511 0 0)
(0.00339544 0 0)
(0.00346587 0 0)
(0.0035466 0 0)
(0.00363742 0 0)
(0.00373676 0 0)
(0.00384508 0 0)
(0.00395996 0 0)
(0.0040768 0 0)
(0.00419631 0 0)
(0.00430805 -7.50609e-06 0)
(0.00428787 -1.82548e-05 0)
(0.00425835 -3.53858e-05 0)
(0.00421897 -5.81985e-05 0)
(0.0041762 -9.01777e-05 0)
(0.00413109 -0.000131407 0)
(0.00408629 -0.000180585 0)
(0.0040473 -0.00023586 0)
(0.00401342 -0.000295665 0)
(0.00384552 -0.000383862 0)
(0.00370606 -0.00040908 0)
(0.00356267 -0.00042815 0)
(0.00341387 -0.000441371 0)
(0.00325498 -0.000452422 0)
(0.00308283 -0.000459619 0)
(0.00289846 -0.000473689 0)
(0.00269664 -0.00049209 0)
(0.00247952 -0.000523706 0)
(0.00224123 -0.000572323 0)
(0.00199092 -0.000648452 0)
(0.00172031 -0.000758455 0)
(0.00144283 -0.000891019 0)
(0.00115813 -0.00107515 0)
(0.000883542 -0.00129421 0)
(0.0006238 -0.00154791 0)
(0.0003983 -0.00181786 0)
(0.000220965 -0.0020618 0)
(0.000106972 -0.00223524 0)
(0 -0.00224941 0)
(0 -0.00217684 0)
(0 -0.00208132 0)
(0 -0.00179991 0)
(0.000864319 -0.00129283 0)
(0.00155703 -0.00142432 0)
(0.00201591 -0.00122217 0)
(0.00239236 -0.000974267 0)
(0.00271078 -0.000708705 0)
(0.00294477 -0.000460312 0)
(0.00309165 -0.000228793 0)
(0.00319592 0 0)
(0.00322864 0 0)
(0.00325178 0 0)
(0.00328691 0 0)
(0.00333511 0 0)
(0.00339544 0 0)
(0.00346587 0 0)
(0.0035466 0 0)
(0.00363742 0 0)
(0.00373676 0 0)
(0.00384508 0 0)
(0.00395996 0 0)
(0.0040768 0 0)
(0.00419631 0 0)
(0.00430805 -7.50609e-06 0)
(0.00428787 -1.82548e-05 0)
(0.00425835 -3.53858e-05 0)
(0.00421897 -5.81985e-05 0)
(0.0041762 -9.01777e-05 0)
(0.00413109 -0.000131407 0)
(0.00408629 -0.000180585 0)
(0.0040473 -0.00023586 0)
(0.00401342 -0.000295665 0)
(0.00384552 -0.000383862 0)
(0.00370606 -0.00040908 0)
(0.00356267 -0.00042815 0)
(0.00341387 -0.000441371 0)
(0.00325498 -0.000452422 0)
(0.00308283 -0.000459619 0)
(0.00289846 -0.000473689 0)
(0.00269664 -0.00049209 0)
(0.00247952 -0.000523706 0)
(0.00224123 -0.000572323 0)
(0.00199092 -0.000648452 0)
(0.00172031 -0.000758455 0)
(0.00144283 -0.000891019 0)
(0.00115813 -0.00107515 0)
(0.000883542 -0.00129421 0)
(0.0006238 -0.00154791 0)
(0.0003983 -0.00181786 0)
(0.000220965 -0.0020618 0)
(0.000106972 -0.00223524 0)
(0 -0.00224941 0)
(0 -0.00217684 0)
(0 -0.00208132 0)
(0 -0.00179991 0)
(0.000864319 -0.00129283 0)
(0.00155703 -0.00142432 0)
(0.00201591 -0.00122217 0)
(0.00239236 -0.000974267 0)
(0.00271078 -0.000708705 0)
(0.00294477 -0.000460312 0)
(0.00309165 -0.000228793 0)
(0.00266917 -0.000211524 0)
(0.0034533 -0.000143363 0)
(0.00174569 -0.000758308 0)
(0.00287924 -0.000235476 0)
(0.00324417 -6.81999e-05 0)
(0.00366563 -0.000244709 0)
(0.00387549 -8.30324e-05 0)
(0.000878595 -0.0015691 0)
(0.00294824 -0.000135941 0)
(0.00208352 -0.00049113 0)
(0.00355959 -5.72004e-05 0)
(0.00319057 -0.000281382 0)
(0.00318185 -4.34169e-05 0)
(0.0023946 -0.000446399 0)
(0.0038983 -0.000145459 0)
(0.00243185 -0.000379064 0)
(0.00319093 -0.000137492 0)
(0.00294141 -0.000146548 0)
(0.00114012 -0.00120942 0)
(0.00153081 -0.0011164 0)
(0.00377344 -4.42592e-05 0)
(0.00340325 -0.000332955 0)
(0.00410143 -3.60809e-05 0)
(0.00377731 -0.000307312 0)
(0.00227658 -0.000408371 0)
(0.00156889 -0.000815581 0)
(0.00285647 -0.000344018 0)
(0.00344851 -2.91092e-05 0)
(0.0036548 -0.00017096 0)
(0.00365819 -9.41702e-05 0)
(0.000364435 -0.00203127 0)
(0.00261821 -0.000256419 0)
(0.00404745 -8.33586e-05 0)
(0.00389977 -0.000203026 0)
(0.00344132 -0.00023454 0)
(0.000712321 -0.0018361 0)
(0.00299537 -0.000100424 0)
(0.00333883 -2.36311e-05 0)
(0.00317383 -4.17309e-05 0)
(0.00311942 -0.000103559 0)
(0.0026607 -0.000231772 0)
(0.00279441 -0.000302763 0)
(0.00315171 -0.000205797 0)
(0.00338614 -7.37347e-05 0)
(0.00207106 -0.00053528 0)
(0.000708839 -0.00164099 0)
(0.00261681 -0.000388557 0)
(0.00393286 -3.44057e-05 0)
(0.00359423 -0.000345649 0)
(0.00210459 -0.000769008 0)
(0.00365604 -2.65564e-05 0)
(0.00322171 -0.000357654 0)
(0.00298595 -9.8327e-05 0)
(0.00194412 -0.000584995 0)
(0.00240313 -0.000326355 0)
(0.00126121 -0.00119942 0)
(0.00171054 -0.000715314 0)
(0.00126811 -0.00143594 0)
(0.00383022 -0.000120926 0)
(0.00332491 -0.000201621 0)
(0.00349258 -0.000101604 0)
(0.00328102 -1.63045e-05 0)
(0.00318336 -5.61904e-05 0)
(0.00194088 -0.000690893 0)
(0.00406343 -0.000105715 0)
(0.00122528 -0.00106782 0)
(0.00231998 -0.000381662 0)
(0.0003234 -0.00206612 0)
(0.00302805 -0.000386948 0)
(0.0035764 -1.5964e-05 0)
(0.00300214 -0.000166682 0)
(0.00265719 -0.000283275 0)
(0.00312512 -0.000111746 0)
(0.00249445 -0.000529177 0)
(0.003759 -0.000189553 0)
(0.00393345 -0.000235393 0)
(0.00415214 -4.97962e-05 0)
(0.0014833 -0.000918807 0)
(0.00226522 -0.000476411 0)
(0.00269224 -0.000261616 0)
(0.00361288 -0.000135012 0)
(0.00418033 -1.93234e-05 0)
(0.003875 -0.000320829 0)
(0.00328957 -0.00015938 0)
(0.00400827 -0.000150747 0)
(0.00318962 -4.53045e-05 0)
(0.00308618 -9.49567e-05 0)
(0.00275688 -0.00030565 0)
(0.00296458 -0.00026427 0)
(0.00342568 -1.29886e-05 0)
(0.00333606 -3.76926e-05 0)
(0.00366564 -6.43493e-05 0)
(0.00345598 -5.17562e-05 0)
(0.00377085 -7.44537e-05 0)
(0.00276991 -0.000185055 0)
(0.00281281 -0.000205221 0)
(0.00350607 -0.000183098 0)
(0.00378441 -0.000251488 0)
(0.00400257 -6.84191e-05 0)
(0.000848708 -0.00144342 0)
(0.000458836 -0.00188819 0)
(0.00196098 -0.000978885 0)
(0.00351772 -0.000274765 0)
(0.00376346 -1.75208e-05 0)
(0.00245886 -0.000341118 0)
(0.00333274 -0.000396757 0)
(0.001429 -0.00089611 0)
(0.00331783 -0.000292659 0)
(0.00283709 -0.000145371 0)
(0.00403855 -2.1903e-05 0)
(0.00370096 -0.00035704 0)
(0.00336868 -0.000106945 0)
(0.0035983 -0.000216177 0)
(0.00118203 -0.00136597 0)
(0.000953803 -0.00143858 0)
(0.00203153 -0.000575103 0)
(0.000169459 -0.00219396 0)
(0.00271691 -0.000414982 0)
(0.00162771 -0.000922643 0)
(0.00301184 -0.000240363 0)
(0.00394392 -0.000111525 0)
(0.00252265 -0.000277263 0)
(0.00374338 -0.000107572 0)
(0.00114627 -0.00161874 0)
(0.000606899 -0.00183172 0)
(0.00183411 -0.00064006 0)
(0.0030342 -0.000315699 0)
(0.00386774 -5.68444e-05 0)
(0.00365248 -0.000291234 0)
(0.000538775 -0.00175378 0)
(0.0033422 -1.31266e-05 0)
(0.00303902 -8.7649e-05 0)
(0.00325385 -1.46876e-05 0)
(0.00316028 -0.000101168 0)
(0.00296493 -0.00017307 0)
(0.00241793 -0.000472283 0)
(0.00256137 -0.000260564 0)
(0.00349739 -1.12469e-05 0)
(0.0030824 -8.78448e-05 0)
(0.000913862 -0.00161671 0)
(0.00304927 -0.000194141 0)
(0.00415014 -6.74996e-05 0)
(0.00401242 -0.000180771 0)
(0.00348129 -0.000387745 0)
(0.00285896 -0.000150289 0)
(0.00385706 -1.8601e-05 0)
(0.000333172 -0.0019608 0)
(0.00386907 -0.000182161 0)
(0.000190435 -0.0021518 0)
(0.00279746 -0.000445187 0)
(0.00327039 -8.65601e-05 0)
(0.000637593 -0.00176029 0)
(0.00355197 -3.69989e-05 0)
(0.00326351 -3.25693e-05 0)
(0.00258644 -0.000345272 0)
(0.00305574 -7.68017e-05 0)
(0.00218982 -0.000436711 0)
(0.00336115 -5.20654e-05 0)
(0.00147633 -0.000975539 0)
(0.00284171 -0.000149781 0)
(0.00185237 -0.000650937 0)
(0.00320545 -3.30657e-05 0)
(0.00314539 -0.000252162 0)
(0.00319307 -4.77489e-05 0)
(0.00170388 -0.000743508 0)
(0.00196612 -0.000565572 0)
(0.00379138 -0.000215194 0)
(0.00393367 -0.000272896 0)
(0.00420215 -2.96853e-05 0)
(0.00163264 -0.00128969 0)
(0.00376882 -0.000156965 0)
(0.00397592 -4.95676e-05 0)
(0.00246943 -0.000330551 0)
(0.00284139 -0.000419942 0)
(0.00186282 -0.000838655 0)
(0.00329135 -0.000249855 0)
(0.00222809 -0.000440374 0)
(0.0035734 -8.15738e-05 0)
(0.00352708 -0.000326547 0)
(0.00348382 -7.48539e-05 0)
(0.00356264 -0.000113913 0)
(0.0029467 -0.000126091 0)
(0.00222168 -0.000497051 0)
(0.00245394 -0.000410156 0)
(0.000613105 -0.00166561 0)
(0.00234128 -0.000764154 0)
(0.00259502 -0.000379311 0)
(0.00310807 -6.05888e-05 0)
(0.00026203 -0.00210073 0)
(0.000954834 -0.00129414 0)
(0.00364208 -4.59158e-05 0)
(0.00368001 -1.16328e-05 0)
(0.00322955 -2.17223e-05 0)
(0.00206835 -0.000570149 0)
(0.00228806 -0.00038623 0)
(0.00318266 -0.000412559 0)
(0.00317455 -0.000170114 0)
(0.00372247 -0.000138798 0)
(0.00315013 -0.000327116 0)
(0.0021633 -0.000615991 0)
(0.00412145 -1.27191e-05 0)
(0.00377888 -0.000364464 0)
(0.0025718 -0.000454658 0)
(0.00394132 -9.27557e-05 0)
(0.00424712 -7.23879e-06 0)
(0.00392337 -0.000338605 0)
(0.00244611 -0.000316449 0)
(0.00266917 -0.000211524 0)
(0.0034533 -0.000143363 0)
(0.00174569 -0.000758308 0)
(0.00287924 -0.000235476 0)
(0.00324417 -6.81999e-05 0)
(0.00366563 -0.000244709 0)
(0.00387549 -8.30324e-05 0)
(0.000878595 -0.0015691 0)
(0.00294824 -0.000135941 0)
(0.00208352 -0.00049113 0)
(0.00355959 -5.72004e-05 0)
(0.00319057 -0.000281382 0)
(0.00318185 -4.34169e-05 0)
(0.0023946 -0.000446399 0)
(0.0038983 -0.000145459 0)
(0.00243185 -0.000379064 0)
(0.00319093 -0.000137492 0)
(0.00294141 -0.000146548 0)
(0.00114012 -0.00120942 0)
(0.00153081 -0.0011164 0)
(0.00377344 -4.42592e-05 0)
(0.00340325 -0.000332955 0)
(0.00410143 -3.60809e-05 0)
(0.00377731 -0.000307312 0)
(0.00227658 -0.000408371 0)
(0.00156889 -0.000815581 0)
(0.00285647 -0.000344018 0)
(0.00344851 -2.91092e-05 0)
(0.0036548 -0.00017096 0)
(0.00365819 -9.41702e-05 0)
(0.000364435 -0.00203127 0)
(0.00261821 -0.000256419 0)
(0.00404745 -8.33586e-05 0)
(0.00389977 -0.000203026 0)
(0.00344132 -0.00023454 0)
(0.000712321 -0.0018361 0)
(0.00299537 -0.000100424 0)
(0.00333883 -2.36311e-05 0)
(0.00317383 -4.17309e-05 0)
(0.00311942 -0.000103559 0)
(0.0026607 -0.000231772 0)
(0.00279441 -0.000302763 0)
(0.00315171 -0.000205797 0)
(0.00338614 -7.37347e-05 0)
(0.00207106 -0.00053528 0)
(0.000708839 -0.00164099 0)
(0.00261681 -0.000388557 0)
(0.00393286 -3.44057e-05 0)
(0.00359423 -0.000345649 0)
(0.00210459 -0.000769008 0)
(0.00365604 -2.65564e-05 0)
(0.00322171 -0.000357654 0)
(0.00298595 -9.8327e-05 0)
(0.00194412 -0.000584995 0)
(0.00240313 -0.000326355 0)
(0.00126121 -0.00119942 0)
(0.00171054 -0.000715314 0)
(0.00126811 -0.00143594 0)
(0.00383022 -0.000120926 0)
(0.00332491 -0.000201621 0)
(0.00349258 -0.000101604 0)
(0.00328102 -1.63045e-05 0)
(0.00318336 -5.61904e-05 0)
(0.00194088 -0.000690893 0)
(0.00406343 -0.000105715 0)
(0.00122528 -0.00106782 0)
(0.00231998 -0.000381662 0)
(0.0003234 -0.00206612 0)
(0.00302805 -0.000386948 0)
(0.0035764 -1.5964e-05 0)
(0.00300214 -0.000166682 0)
(0.00265719 -0.000283275 0)
(0.00312512 -0.000111746 0)
(0.00249445 -0.000529177 0)
(0.003759 -0.000189553 0)
(0.00393345 -0.000235393 0)
(0.00415214 -4.97962e-05 0)
(0.0014833 -0.000918807 0)
(0.00226522 -0.000476411 0)
(0.00269224 -0.000261616 0)
(0.00361288 -0.000135012 0)
(0.00418033 -1.93234e-05 0)
(0.003875 -0.000320829 0)
(0.00328957 -0.00015938 0)
(0.00400827 -0.000150747 0)
(0.00318962 -4.53045e-05 0)
(0.00308618 -9.49567e-05 0)
(0.00275688 -0.00030565 0)
(0.00296458 -0.00026427 0)
(0.00342568 -1.29886e-05 0)
(0.00333606 -3.76926e-05 0)
(0.00366564 -6.43493e-05 0)
(0.00345598 -5.17562e-05 0)
(0.00377085 -7.44537e-05 0)
(0.00276991 -0.000185055 0)
(0.00281281 -0.000205221 0)
(0.00350607 -0.000183098 0)
(0.00378441 -0.000251488 0)
(0.00400257 -6.84191e-05 0)
(0.000848708 -0.00144342 0)
(0.000458836 -0.00188819 0)
(0.00196098 -0.000978885 0)
(0.00351772 -0.000274765 0)
(0.00376346 -1.75208e-05 0)
(0.00245886 -0.000341118 0)
(0.00333274 -0.000396757 0)
(0.001429 -0.00089611 0)
(0.00331783 -0.000292659 0)
(0.00283709 -0.000145371 0)
(0.00403855 -2.1903e-05 0)
(0.00370096 -0.00035704 0)
(0.00336868 -0.000106945 0)
(0.0035983 -0.000216177 0)
(0.00118203 -0.00136597 0)
(0.000953803 -0.00143858 0)
(0.00203153 -0.000575103 0)
(0.000169459 -0.00219396 0)
(0.00271691 -0.000414982 0)
(0.00162771 -0.000922643 0)
(0.00301184 -0.000240363 0)
(0.00394392 -0.000111525 0)
(0.00252265 -0.000277263 0)
(0.00374338 -0.000107572 0)
(0.00114627 -0.00161874 0)
(0.000606899 -0.00183172 0)
(0.00183411 -0.00064006 0)
(0.0030342 -0.000315699 0)
(0.00386774 -5.68444e-05 0)
(0.00365248 -0.000291234 0)
(0.000538775 -0.00175378 0)
(0.0033422 -1.31266e-05 0)
(0.00303902 -8.7649e-05 0)
(0.00325385 -1.46876e-05 0)
(0.00316028 -0.000101168 0)
(0.00296493 -0.00017307 0)
(0.00241793 -0.000472283 0)
(0.00256137 -0.000260564 0)
(0.00349739 -1.12469e-05 0)
(0.0030824 -8.78448e-05 0)
(0.000913862 -0.00161671 0)
(0.00304927 -0.000194141 0)
(0.00415014 -6.74996e-05 0)
(0.00401242 -0.000180771 0)
(0.00348129 -0.000387745 0)
(0.00285896 -0.000150289 0)
(0.00385706 -1.8601e-05 0)
(0.000333172 -0.0019608 0)
(0.00386907 -0.000182161 0)
(0.000190435 -0.0021518 0)
(0.00279746 -0.000445187 0)
(0.00327039 -8.65601e-05 0)
(0.000637593 -0.00176029 0)
(0.00355197 -3.69989e-05 0)
(0.00326351 -3.25693e-05 0)
(0.00258644 -0.000345272 0)
(0.00305574 -7.68017e-05 0)
(0.00218982 -0.000436711 0)
(0.00336115 -5.20654e-05 0)
(0.00147633 -0.000975539 0)
(0.00284171 -0.000149781 0)
(0.00185237 -0.000650937 0)
(0.00320545 -3.30657e-05 0)
(0.00314539 -0.000252162 0)
(0.00319307 -4.77489e-05 0)
(0.00170388 -0.000743508 0)
(0.00196612 -0.000565572 0)
(0.00379138 -0.000215194 0)
(0.00393367 -0.000272896 0)
(0.00420215 -2.96853e-05 0)
(0.00163264 -0.00128969 0)
(0.00376882 -0.000156965 0)
(0.00397592 -4.95676e-05 0)
(0.00246943 -0.000330551 0)
(0.00284139 -0.000419942 0)
(0.00186282 -0.000838655 0)
(0.00329135 -0.000249855 0)
(0.00222809 -0.000440374 0)
(0.0035734 -8.15738e-05 0)
(0.00352708 -0.000326547 0)
(0.00348382 -7.48539e-05 0)
(0.00356264 -0.000113913 0)
(0.0029467 -0.000126091 0)
(0.00222168 -0.000497051 0)
(0.00245394 -0.000410156 0)
(0.000613105 -0.00166561 0)
(0.00234128 -0.000764154 0)
(0.00259502 -0.000379311 0)
(0.00310807 -6.05888e-05 0)
(0.00026203 -0.00210073 0)
(0.000954834 -0.00129414 0)
(0.00364208 -4.59158e-05 0)
(0.00368001 -1.16328e-05 0)
(0.00322955 -2.17223e-05 0)
(0.00206835 -0.000570149 0)
(0.00228806 -0.00038623 0)
(0.00318266 -0.000412559 0)
(0.00317455 -0.000170114 0)
(0.00372247 -0.000138798 0)
(0.00315013 -0.000327116 0)
(0.0021633 -0.000615991 0)
(0.00412145 -1.27191e-05 0)
(0.00377888 -0.000364464 0)
(0.0025718 -0.000454658 0)
(0.00394132 -9.27557e-05 0)
(0.00424712 -7.23879e-06 0)
(0.00392337 -0.000338605 0)
(0.00244611 -0.000316449 0)
)
;

boundaryField
{
    back
    {
        type            empty;
    }
    front
    {
        type            empty;
    }
    down
    {
        type            pointFixedDisplacementZeroShear;
    }
    right
    {
        type            pointSolidTraction;
        tractionSeries  
{
        fileName        "$FOAM_CASE/constant/timeVsTraction";
        outOfBounds     clamp;
}
        pressure        uniform 0;
    }
    up
    {
        type            pointSolidTraction;
        traction        uniform (0 0 0);
        pressure        uniform 0;
    }
    left
    {
        type            pointFixedDisplacementZeroShear;
    }
    hole
    {
        type            pointSolidTraction;
        traction        uniform (0 0 0);
        pressure        uniform 0;
    }
}


// ************************************************************************* //
