/*--------------------------------*- C++ -*----------------------------------*\
| =========                 |                                                 |
| \\      /  F ield         | OpenFOAM: The Open Source CFD Toolbox           |
|  \\    /   O peration     | Version:  v2012                                 |
|   \\  /    A nd           | Website:  www.openfoam.com                      |
|    \\/     M anipulation  |                                                 |
\*---------------------------------------------------------------------------*/
FoamFile
{
    version     2.0;
    format      ascii;
    class       volScalarField;
    location    "9";
    object      sigmaEq;
}
// * * * * * * * * * * * * * * * * * * * * * * * * * * * * * * * * * * * * * //

dimensions      [1 -1 -2 0 0 0 0];


internalField   nonuniform List<scalar> 
1896
(
8.38424e+07
1.05453e+08
7.977e+07
2.22072e+08
8.41333e+07
8.28445e+07
2.14818e+08
8.01289e+07
1.34929e+08
7.61646e+07
8.0722e+07
6.72212e+07
5.71938e+07
6.30532e+07
2.1209e+08
1.43296e+08
1.21423e+08
2.43e+08
1.28603e+08
9.38535e+07
1.46862e+08
1.03801e+08
1.86839e+08
1.95663e+08
1.08756e+08
1.07666e+08
5.59932e+07
5.63101e+07
8.13171e+07
1.41736e+08
1.35819e+08
1.07197e+08
5.25263e+07
1.07036e+08
1.78478e+08
8.08311e+07
1.32636e+08
9.92241e+07
2.34931e+08
1.45326e+08
1.0781e+08
1.6079e+08
1.21848e+08
1.8966e+08
5.60619e+07
5.08904e+07
2.10474e+08
8.10607e+07
1.88447e+08
2.00889e+08
8.19903e+07
8.23578e+07
8.05729e+07
1.03975e+08
1.31211e+08
1.13489e+08
1.59671e+08
8.35356e+07
9.58924e+07
1.4274e+08
7.76109e+07
2.02782e+08
1.99911e+08
9.00542e+07
9.55919e+07
1.07289e+08
1.82857e+08
8.8073e+07
9.71453e+07
1.82046e+08
3.27444e+07
1.98372e+08
9.88418e+07
1.10528e+08
1.88347e+08
1.05865e+08
1.07277e+08
8.93217e+07
9.17461e+07
1.07676e+08
1.65703e+08
1.9212e+08
6.39581e+07
8.04015e+07
7.6413e+07
1.16976e+08
9.51792e+07
9.35222e+07
1.55384e+08
1.10532e+08
9.91375e+07
2.43e+08
1.12806e+08
1.97423e+08
1.94531e+08
1.06725e+08
1.03192e+08
7.85843e+07
1.05424e+08
1.05476e+08
1.05621e+08
8.45845e+07
8.99802e+07
1.10171e+08
1.34078e+08
1.21479e+08
1.15144e+08
1.93404e+08
1.7792e+08
2.43e+08
7.75716e+07
1.05491e+08
1.65876e+08
1.60666e+08
2.43e+08
1.006e+08
6.53366e+07
1.03013e+08
1.72762e+08
1.38165e+08
1.72808e+08
1.27787e+08
9.96375e+07
6.85715e+07
6.88649e+07
1.55156e+08
1.9333e+08
7.88862e+07
1.31972e+08
1.12683e+08
1.16251e+08
1.00003e+08
1.73769e+08
2.02381e+08
1.26926e+08
1.96074e+08
2.08856e+08
2.09464e+08
1.08102e+08
1.52641e+08
9.95842e+07
1.7984e+08
1.43578e+08
1.85029e+08
8.98832e+07
1.18011e+08
1.1528e+08
1.33135e+08
1.91813e+08
1.00955e+08
6.24811e+07
1.03931e+08
1.00348e+08
9.40797e+07
9.47719e+07
1.6991e+08
6.09557e+07
1.68288e+08
2.43e+08
8.0262e+07
8.1768e+07
2.00135e+08
1.29664e+08
9.46414e+07
2.19377e+08
7.4792e+07
1.38633e+08
8.24685e+07
8.04616e+07
1.03924e+08
1.05486e+08
1.0836e+08
5.93057e+07
6.17138e+07
2.15436e+08
2.10732e+08
1.91719e+08
1.07604e+08
7.84019e+07
1.23769e+08
5.79051e+07
1.4252e+08
9.42358e+07
1.91394e+08
2.10586e+08
2.43e+08
9.91295e+07
1.84905e+08
1.74068e+08
6.3911e+07
2.02802e+08
7.9033e+07
1.83135e+08
2.01592e+08
1.31074e+08
7.38272e+07
1.23622e+08
1.77921e+08
7.36637e+07
6.28787e+07
9.27721e+07
1.37441e+08
8.14439e+07
9.49412e+07
2.01099e+08
9.28388e+07
1.90871e+08
1.6999e+08
1.22623e+08
1.12946e+08
1.89197e+08
1.32304e+08
1.13929e+08
1.14692e+08
7.49661e+07
1.24909e+08
1.51859e+08
1.60517e+08
1.52169e+08
1.39021e+08
8.31769e+07
9.57756e+07
1.99987e+08
1.8069e+08
1.03537e+08
1.45101e+08
1.95305e+08
1.13612e+08
1.46673e+08
1.07453e+08
1.51881e+08
8.08469e+07
7.80775e+07
7.50361e+07
1.07306e+08
8.66847e+07
8.33617e+07
1.81748e+08
1.95196e+08
1.37437e+08
1.98671e+08
1.96731e+08
7.7112e+07
2.18092e+08
1.02622e+08
6.57125e+07
9.5891e+07
6.19272e+07
6.05085e+07
1.61209e+08
1.41936e+08
1.28211e+08
1.06176e+08
7.80941e+07
1.06959e+08
1.00523e+08
9.77451e+07
1.96195e+08
2.03092e+08
1.78332e+08
1.30944e+08
9.93633e+07
9.26633e+07
8.50757e+07
1.22263e+08
1.45649e+08
1.27029e+08
1.01496e+08
1.40197e+08
9.84654e+07
1.0326e+08
5.49169e+07
1.91503e+08
5.52767e+07
1.20385e+08
8.16641e+07
1.75683e+08
8.79401e+07
1.02361e+08
7.91579e+07
1.09279e+08
1.67956e+08
6.94227e+07
1.06268e+08
1.11912e+08
1.47331e+08
1.1196e+08
1.02165e+08
1.06648e+08
7.84942e+07
1.20996e+08
1.28417e+08
1.32154e+08
1.14661e+08
2.01813e+08
3.80347e+07
1.40056e+08
9.88166e+07
2.12932e+08
7.99581e+07
1.98486e+08
1.3151e+08
1.89066e+08
2.18046e+08
9.95822e+07
8.95557e+07
8.82639e+07
6.32383e+07
6.77698e+07
1.00886e+08
9.48918e+07
1.11725e+08
5.68611e+07
7.9494e+07
1.04994e+08
1.32603e+08
7.02165e+07
9.73425e+07
1.28993e+08
9.3601e+07
8.98804e+07
1.81124e+08
1.73299e+08
1.3336e+08
8.11836e+07
1.16065e+08
1.26951e+08
6.77913e+07
8.56105e+07
1.03388e+08
8.8097e+07
1.28909e+08
7.72466e+07
1.06877e+08
7.41595e+07
1.20169e+08
7.61617e+07
1.88751e+08
8.49306e+07
1.04234e+08
1.43442e+08
8.75647e+07
1.38767e+08
1.35569e+08
6.33859e+07
1.30416e+08
1.27936e+08
2.18106e+08
1.01259e+08
1.02983e+08
7.04863e+07
8.77214e+07
1.50673e+08
1.15654e+08
1.24601e+08
1.33461e+08
4.31386e+07
2.22338e+08
1.03154e+08
1.81178e+08
1.59285e+08
1.89887e+08
2.43e+08
9.79942e+07
1.0446e+08
1.19434e+08
1.56949e+08
1.52199e+08
1.1027e+08
1.06373e+08
2.10953e+08
5.59243e+07
7.69253e+07
1.06783e+08
1.04876e+08
1.04951e+08
2.43e+08
1.59362e+08
9.56152e+07
1.00592e+08
9.17528e+07
1.06618e+08
8.42619e+07
9.36906e+07
1.00556e+08
8.70296e+07
2.24173e+08
1.03763e+08
7.93955e+07
2.3198e+08
8.19245e+07
8.53854e+07
1.70752e+08
2.11691e+08
8.90353e+07
7.91386e+07
1.4658e+08
1.5904e+08
1.03643e+08
1.02661e+08
1.10842e+08
1.10991e+08
1.29578e+08
3.44417e+07
1.42754e+08
1.41611e+08
1.09012e+08
2.01442e+08
4.80609e+07
1.58007e+08
1.2719e+08
7.16141e+07
6.88857e+07
1.7393e+08
1.58362e+08
1.62117e+08
9.53663e+07
2.43e+08
1.33362e+08
8.40003e+07
1.44682e+08
7.60559e+07
1.0686e+08
2.10585e+08
1.47669e+08
1.10327e+08
8.52204e+07
1.44653e+08
2.1164e+08
2.28422e+08
9.13596e+07
1.50532e+08
1.3089e+08
1.12118e+08
1.48081e+08
1.50375e+08
1.10074e+08
2.43e+08
1.65139e+08
9.68002e+07
1.53198e+08
1.45021e+08
9.29346e+07
1.98293e+08
7.58767e+07
1.07056e+08
9.42297e+07
8.59362e+07
8.40463e+07
1.28531e+08
1.9252e+08
1.12772e+08
1.11461e+08
9.00096e+07
1.11794e+08
7.24866e+07
9.23995e+07
1.35633e+08
8.44501e+07
8.09739e+07
1.92549e+08
9.96222e+07
1.49276e+08
1.37784e+08
1.28069e+08
1.81287e+08
1.55535e+08
1.53234e+08
8.03836e+07
2.37007e+08
8.70581e+07
7.49798e+07
1.1572e+08
1.01137e+08
1.00605e+08
9.49343e+07
1.34767e+08
6.59929e+07
1.0553e+08
1.02278e+08
1.02863e+08
7.44069e+07
9.62758e+07
8.81834e+07
9.34606e+07
2.10202e+08
7.31215e+07
1.43895e+08
1.07945e+08
1.3619e+08
1.54499e+08
1.11186e+08
1.32921e+08
8.65563e+07
2.35632e+08
2.33377e+08
1.06797e+08
1.167e+08
6.75942e+07
1.21402e+08
1.0333e+08
1.08603e+08
8.29923e+07
1.92765e+08
8.27579e+07
5.2252e+07
6.66901e+07
1.85102e+08
1.16289e+08
1.51103e+08
1.15121e+08
1.44613e+08
5.03621e+07
8.66623e+07
1.16156e+08
1.67257e+08
6.28088e+07
1.07315e+08
9.13594e+07
9.08365e+07
8.08738e+07
1.01661e+08
1.77929e+08
8.34734e+07
1.90708e+08
9.55707e+07
9.79567e+07
1.9586e+08
1.02502e+08
1.00535e+08
8.08028e+07
9.72622e+07
6.36935e+07
1.33648e+08
9.04686e+07
6.8532e+07
1.1043e+08
8.52888e+07
1.05663e+08
1.76291e+08
2.22723e+08
3.70946e+07
1.41378e+08
8.63699e+07
8.38199e+07
1.11109e+08
1.7111e+08
7.75035e+07
9.47663e+07
9.33217e+07
7.92691e+07
1.96267e+08
1.56442e+08
1.44906e+08
5.98292e+07
1.63532e+08
1.41034e+08
1.66544e+08
1.06233e+08
1.58281e+08
1.6288e+08
1.03087e+08
1.17279e+08
1.72578e+08
9.81132e+07
2.20717e+08
4.81569e+07
1.16507e+08
1.68707e+08
1.02618e+08
1.14742e+08
6.38041e+07
5.38112e+07
2.43e+08
1.69186e+08
1.96144e+08
8.75325e+07
1.31565e+08
1.57408e+08
8.85928e+07
1.0414e+08
1.7488e+08
1.10129e+08
9.58189e+07
1.58689e+08
1.5353e+08
3.66255e+07
3.82989e+07
5.41786e+07
1.90839e+08
1.9709e+08
2.15715e+08
1.69704e+08
4.41598e+07
2.2644e+08
5.48094e+07
1.05084e+08
1.4808e+08
1.65225e+08
1.075e+08
1.48518e+08
1.82956e+08
1.25247e+08
2.18584e+08
1.98081e+08
2.05574e+08
1.69752e+08
1.70832e+08
6.84587e+07
8.09021e+07
9.4858e+07
6.40672e+07
8.309e+07
2.43e+08
4.63368e+07
9.80641e+07
8.46888e+07
2.1839e+08
1.67634e+08
5.90388e+07
4.92405e+07
1.65579e+08
1.19257e+08
1.90759e+08
5.98023e+07
9.78196e+07
1.9276e+08
2.07036e+08
7.34056e+07
1.07703e+08
5.08273e+07
2.43e+08
1.24743e+08
1.79352e+08
1.57254e+08
9.18019e+07
9.26299e+07
1.2368e+08
1.76301e+08
9.32081e+07
8.27945e+07
8.17094e+07
2.06048e+08
2.0696e+08
1.14794e+08
1.28692e+08
1.42706e+08
8.16958e+07
1.95857e+08
1.17262e+08
1.36639e+08
7.9884e+07
1.63169e+08
1.33848e+08
1.85532e+08
9.76397e+07
1.82619e+08
1.2527e+08
1.49364e+08
1.75998e+08
1.11191e+08
1.0528e+08
1.12023e+08
1.6304e+08
1.73697e+08
1.68204e+08
1.02848e+08
8.23458e+07
1.39686e+08
1.27114e+08
1.23719e+08
9.23748e+07
1.41195e+08
1.43695e+08
1.07612e+08
2.10711e+08
1.71078e+08
2.05286e+08
4.71897e+07
8.61829e+07
1.0737e+08
1.20867e+08
1.69762e+08
8.31961e+07
1.18697e+08
1.21777e+08
1.17956e+08
8.27796e+07
2.08668e+08
1.2338e+08
1.21937e+08
1.84085e+08
1.2006e+08
2.03129e+08
1.09263e+08
1.07969e+08
1.1107e+08
1.14248e+08
2.11107e+08
1.10446e+08
8.10094e+07
1.25623e+08
1.25954e+08
1.24776e+08
1.23813e+08
1.45585e+08
1.09991e+08
1.90742e+08
5.10702e+07
1.99983e+08
1.53506e+08
7.54238e+07
1.55708e+08
1.31932e+08
1.84579e+08
8.08796e+07
1.67701e+08
2.13649e+08
1.82342e+08
1.16101e+08
9.71921e+07
1.14584e+08
1.85096e+08
4.02544e+07
1.84296e+08
4.44545e+07
7.39254e+07
1.07468e+08
1.13278e+08
1.81627e+08
1.18468e+08
5.22957e+07
8.82747e+07
5.73426e+07
1.15955e+08
1.92476e+08
1.05508e+08
1.2079e+08
1.27607e+08
5.13169e+07
1.17584e+08
1.66662e+08
7.77989e+07
4.56153e+07
7.82297e+07
8.72806e+07
1.04704e+08
2.43e+08
1.46629e+08
9.35154e+07
1.74235e+08
1.19778e+08
1.6601e+08
1.19888e+08
5.74079e+07
1.26848e+08
1.99077e+08
1.01567e+08
1.92995e+08
2.43e+08
1.38015e+08
2.01021e+08
1.26349e+08
5.00093e+07
1.30445e+08
1.63228e+08
1.73857e+08
2.09003e+08
1.9775e+08
4.26805e+07
1.35547e+08
1.93892e+08
2.08034e+08
1.34464e+08
1.06099e+08
1.30671e+08
1.32114e+08
8.25552e+07
1.7509e+08
8.44408e+07
1.60868e+08
1.59774e+08
1.97976e+08
9.12e+07
8.7646e+07
7.01298e+07
6.79979e+07
9.9041e+07
2.17931e+08
1.03988e+08
1.93472e+08
1.70787e+08
8.72437e+07
5.35166e+07
7.64594e+07
8.98939e+07
1.58352e+08
1.26699e+08
4.22382e+07
9.18714e+07
1.00705e+08
9.39017e+07
7.36744e+07
9.4704e+07
7.15867e+07
8.38724e+07
1.4285e+08
1.53759e+08
1.51622e+08
3.95458e+07
1.19961e+08
6.09115e+07
8.20924e+07
1.14604e+08
1.03474e+08
2.43e+08
8.00814e+07
1.24911e+08
8.45333e+07
1.97771e+08
1.58922e+08
8.26548e+07
1.61133e+08
1.83656e+08
1.13113e+08
8.77271e+07
7.9402e+07
1.08145e+08
1.55313e+08
8.79186e+07
6.34048e+07
6.20524e+07
1.95121e+08
6.48371e+07
1.10512e+08
1.33965e+08
6.99883e+07
1.10983e+08
1.63918e+08
1.07679e+08
1.03216e+08
1.08365e+08
1.16896e+08
1.12786e+08
1.4554e+08
9.78172e+07
1.10915e+08
8.52068e+07
1.8953e+08
3.52255e+07
1.11442e+08
1.09197e+08
8.8615e+07
1.00127e+08
1.25693e+08
2.82025e+07
2.42725e+08
9.16983e+07
1.24089e+08
3.62806e+07
1.1255e+08
1.92917e+08
1.96336e+08
1.94363e+08
1.18635e+08
9.74099e+07
9.31075e+07
9.79939e+07
1.76393e+08
1.05905e+08
1.13961e+08
1.75419e+08
1.2589e+08
1.4863e+08
1.08764e+08
1.06685e+08
7.93684e+07
2.21537e+08
1.01906e+08
1.43437e+08
1.36383e+08
1.87022e+08
9.01388e+07
1.41387e+08
7.86141e+07
8.7568e+07
2.12195e+08
5.815e+07
2.01719e+08
1.32469e+08
1.3297e+08
2.05517e+08
7.79248e+07
7.79276e+07
1.05805e+08
1.05843e+08
7.87309e+07
4.36198e+07
8.83867e+07
8.89346e+07
6.13929e+07
6.35136e+07
1.11682e+08
1.65515e+08
1.95774e+08
9.70606e+07
1.27862e+08
1.15276e+08
1.45689e+08
1.80177e+08
1.64108e+08
9.53e+07
1.52206e+08
1.82648e+08
2.11258e+08
1.51968e+08
1.53138e+08
7.89232e+07
1.83957e+08
7.27273e+07
7.69957e+07
1.40337e+08
1.91645e+08
1.10681e+08
1.24467e+08
1.85966e+08
8.40179e+07
6.86038e+07
1.00391e+08
8.44347e+07
6.99187e+07
2.12391e+08
1.16897e+08
1.40155e+08
1.09789e+08
1.08019e+08
7.95734e+07
1.85551e+08
1.57185e+08
1.65965e+08
1.3591e+08
1.71397e+08
1.44713e+08
1.25457e+08
1.03642e+08
1.07133e+08
1.24899e+08
1.43507e+08
1.76206e+08
1.05062e+08
2.43e+08
1.34025e+08
1.67745e+08
1.35259e+08
1.7542e+08
1.6385e+08
6.72471e+07
1.74789e+08
6.7813e+07
1.16134e+08
1.30104e+08
1.5558e+08
8.63355e+07
2.19177e+08
1.876e+08
1.30053e+08
2.01652e+08
8.9028e+07
8.72292e+07
1.74825e+08
8.24911e+07
8.53245e+07
1.95721e+08
7.73269e+07
4.98483e+07
1.60509e+08
1.06613e+08
9.0165e+07
1.08108e+08
8.43456e+07
1.34335e+08
1.38672e+08
2.43e+08
8.06713e+07
1.49295e+08
1.89035e+08
8.49834e+07
9.23443e+07
1.95987e+08
2.27459e+08
1.21549e+08
9.74492e+07
1.36988e+08
1.39904e+08
1.16474e+08
1.46932e+08
1.77024e+08
8.03609e+07
1.12655e+08
1.20963e+08
2.01635e+08
8.04452e+07
1.26883e+08
8.07941e+07
1.65134e+08
3.401e+07
2.03505e+08
6.62683e+07
2.30896e+08
1.09155e+08
8.29464e+07
8.37005e+07
1.99679e+08
1.23407e+08
1.05182e+08
1.57271e+08
1.3971e+08
1.39641e+08
9.07938e+07
1.91317e+08
6.92644e+07
3.22231e+07
7.19698e+07
8.30794e+07
1.74995e+08
8.97126e+07
8.89051e+07
7.40696e+07
1.2584e+08
1.18587e+08
1.90428e+08
8.72684e+07
1.74341e+08
1.08818e+08
1.61923e+08
1.59973e+08
1.96285e+08
2.03003e+08
7.96406e+07
1.06085e+08
1.27881e+08
1.96638e+08
1.17127e+08
8.56834e+07
1.03044e+08
1.01961e+08
1.87147e+08
2.43e+08
8.00141e+07
1.06208e+08
1.52743e+08
7.61635e+07
1.22042e+08
1.9394e+08
1.0338e+08
1.01465e+08
1.3546e+08
1.34526e+08
1.22891e+08
2.43e+08
1.01028e+08
4.42384e+07
8.20777e+07
2.43e+08
9.87536e+07
1.06177e+08
1.45109e+08
7.97987e+07
9.79781e+07
1.75793e+08
1.66611e+08
1.88983e+08
1.53706e+08
1.48474e+08
1.85731e+08
1.42049e+08
1.45186e+08
1.48279e+08
7.26435e+07
7.09535e+07
9.14985e+07
8.9894e+07
1.70563e+08
1.80712e+08
1.54459e+08
2.25516e+08
8.55002e+07
5.39409e+07
1.08501e+08
1.84258e+08
7.46901e+07
7.26685e+07
1.76475e+08
3.90764e+07
1.04224e+08
1.23406e+08
1.24141e+08
2.32268e+08
1.73782e+08
8.28462e+07
2.06596e+08
1.65339e+08
7.69258e+07
7.55663e+07
1.58816e+08
1.74384e+08
9.23209e+07
1.50222e+08
1.65483e+08
2.15589e+08
6.88692e+07
1.12041e+08
1.53428e+08
8.614e+07
8.51234e+07
7.51799e+07
9.11917e+07
2.09651e+08
1.10403e+08
8.70534e+07
1.1318e+08
7.50077e+07
1.40262e+08
8.38988e+07
1.60346e+08
2.43e+08
8.93174e+07
8.90677e+07
6.71594e+07
2.02365e+08
1.04597e+08
1.94694e+08
1.8922e+08
1.73509e+08
7.90675e+07
6.33966e+07
5.79993e+07
7.07485e+07
1.07915e+08
4.15523e+07
1.22991e+08
1.64823e+08
1.67425e+08
6.85078e+07
7.13891e+07
1.54658e+08
5.30597e+07
6.85824e+07
1.9071e+08
1.19248e+08
1.09043e+08
4.5243e+07
8.48946e+07
8.07546e+07
3.19415e+07
1.84533e+08
9.37e+07
1.13227e+08
1.94657e+08
7.24276e+07
9.2796e+07
1.01394e+08
1.89464e+08
1.88546e+08
1.97746e+08
1.97262e+08
7.77207e+07
1.89323e+08
7.59599e+07
1.1846e+08
5.00118e+07
1.55959e+08
1.18315e+08
1.66317e+08
1.40932e+08
1.51165e+08
1.11011e+08
8.30902e+07
1.43987e+08
1.09997e+08
1.19978e+08
1.18812e+08
9.06492e+07
1.26091e+08
7.12455e+07
1.03782e+08
7.91503e+07
1.37581e+08
6.68676e+07
6.65025e+07
1.48425e+08
1.1259e+08
1.17111e+08
1.53002e+08
1.74108e+08
1.48527e+08
1.79362e+08
1.02534e+08
1.03536e+08
1.9224e+08
1.188e+08
1.17997e+08
1.71346e+08
8.07467e+07
8.11264e+07
2.06495e+08
4.29239e+07
4.92776e+07
1.72655e+08
1.64575e+08
1.03883e+08
1.05938e+08
8.90101e+07
8.98343e+07
6.27504e+07
1.45222e+08
9.46949e+07
9.4346e+07
3.49205e+07
5.69175e+07
1.0041e+08
9.73688e+07
9.32015e+07
1.00407e+08
1.58024e+08
1.01926e+08
1.17854e+08
1.50639e+08
1.1317e+08
7.98155e+07
1.01454e+08
8.70749e+07
8.20905e+07
9.10205e+07
7.82854e+07
3.88251e+07
6.98023e+07
7.30923e+07
1.01164e+08
2.43e+08
1.1251e+08
1.22128e+08
1.83214e+08
1.24925e+08
1.89955e+08
1.96654e+08
1.31272e+08
1.14793e+08
6.38214e+07
8.08849e+07
9.88324e+07
4.11591e+07
3.95974e+07
1.06189e+08
4.16779e+07
7.264e+07
9.55188e+07
7.20152e+07
9.84543e+07
1.04161e+08
2.40339e+08
1.06995e+08
2.43e+08
2.11494e+08
1.53271e+08
1.77997e+08
8.52976e+07
8.46222e+07
8.34152e+07
1.18694e+08
9.81315e+07
7.17235e+07
8.83282e+07
1.87951e+08
1.79094e+08
1.86196e+08
1.82223e+08
1.36773e+08
1.63021e+08
1.64015e+08
1.88197e+08
1.08972e+08
1.0303e+08
1.54309e+08
8.58725e+07
1.05176e+08
1.61393e+08
1.06391e+08
9.76587e+07
1.00328e+08
9.37491e+07
7.39304e+07
8.42861e+07
8.64767e+07
1.31483e+08
1.06128e+08
2.43e+08
1.58064e+08
1.5835e+08
1.96166e+08
1.3811e+08
5.68758e+07
6.08735e+07
1.14557e+08
1.77913e+08
7.32588e+07
1.53354e+08
1.1681e+08
1.07165e+08
1.27643e+08
1.29411e+08
2.43e+08
9.96592e+07
1.61028e+08
8.17913e+07
1.00858e+08
7.99536e+07
4.30878e+07
7.98463e+07
8.66462e+07
9.58917e+07
2.05749e+08
1.5516e+08
6.11588e+07
2.43e+08
9.21221e+07
1.77767e+08
8.15291e+07
7.72515e+07
1.16701e+08
1.1934e+08
1.17468e+08
1.49943e+08
1.34601e+08
7.55594e+07
1.0696e+08
1.00282e+08
1.97479e+08
2.43e+08
9.58245e+07
5.32147e+07
1.83419e+08
1.82425e+08
1.6567e+08
1.01232e+08
1.39116e+08
1.32759e+08
6.39942e+07
9.89323e+07
1.40834e+08
1.29448e+08
1.78562e+08
1.29417e+08
4.62035e+07
1.09979e+08
7.73737e+07
7.49592e+07
1.84415e+08
2.43e+08
7.91117e+07
8.06359e+07
9.20978e+07
3.6685e+07
8.44649e+07
8.25903e+07
1.37993e+08
8.75709e+07
1.00473e+08
8.8308e+07
8.20781e+07
1.92021e+08
1.91832e+08
1.32963e+08
4.69897e+07
3.14855e+07
1.23875e+08
4.62936e+07
1.67605e+08
1.69967e+08
1.63377e+08
1.01966e+08
1.17994e+08
8.5071e+07
8.28492e+07
1.95116e+08
1.18994e+08
9.50017e+07
1.07779e+08
1.18298e+08
2.43e+08
4.93621e+07
9.99053e+07
5.93586e+07
1.2561e+08
9.82948e+07
1.99157e+08
1.21309e+08
1.5046e+08
1.02685e+08
1.39297e+08
1.33876e+08
1.00974e+08
5.28469e+07
1.0626e+08
4.576e+07
9.63765e+07
9.78591e+07
1.88965e+08
1.71649e+08
8.18251e+07
1.6124e+08
1.99547e+08
1.73271e+08
1.94111e+08
1.2062e+08
1.19575e+08
7.58141e+07
7.31855e+07
1.06715e+08
1.07045e+08
7.71375e+07
2.02043e+08
1.84881e+08
6.86746e+07
9.43142e+07
1.80629e+08
9.98066e+07
1.9889e+08
9.02098e+07
9.8502e+07
1.84024e+08
1.22537e+08
1.20837e+08
1.88382e+08
1.53256e+08
1.2643e+08
1.3566e+08
1.78444e+08
1.43572e+08
3.64926e+07
1.36121e+08
2.15042e+08
1.15216e+08
1.10515e+08
9.05585e+07
9.25252e+07
1.32159e+08
1.73878e+08
1.03953e+08
1.58406e+08
1.56769e+08
1.85645e+08
7.73714e+07
1.07224e+08
1.04479e+08
1.4639e+08
1.3144e+08
1.3454e+08
1.04926e+08
2.08848e+08
1.49421e+08
8.51179e+07
1.82684e+08
5.60366e+07
6.01461e+07
1.21783e+08
1.17701e+08
1.85551e+08
1.79153e+08
1.7363e+08
9.19777e+07
1.19519e+08
1.9281e+08
1.34162e+08
7.41624e+07
1.24713e+08
5.06409e+07
7.98229e+07
1.88669e+08
1.13344e+08
1.06597e+08
6.70837e+07
1.50953e+08
2.08508e+08
3.41453e+07
9.54594e+07
7.33399e+07
7.15322e+07
1.92087e+08
1.19203e+08
1.08235e+08
1.84989e+08
8.30076e+07
1.35407e+08
9.92107e+07
1.08945e+08
1.0394e+08
1.89235e+08
1.48149e+08
1.00582e+08
1.45585e+08
6.82618e+07
1.41102e+08
1.1771e+08
1.22787e+08
1.24215e+08
1.83113e+08
1.47118e+08
8.69401e+07
8.32181e+07
9.35571e+07
1.91268e+08
1.84338e+08
1.62766e+08
1.07205e+08
1.06975e+08
1.78796e+08
1.82677e+08
1.44172e+08
7.39519e+07
1.04262e+08
1.79563e+08
1.53408e+08
1.87875e+08
1.58079e+08
1.01711e+08
1.57276e+08
1.90061e+08
1.89823e+08
1.67757e+08
1.21417e+08
1.21626e+08
1.19995e+08
1.79916e+08
9.41456e+07
9.35635e+07
9.19483e+07
9.27906e+07
1.19816e+08
1.19422e+08
1.6614e+08
6.10306e+07
8.67145e+07
1.59519e+08
1.93028e+08
8.92359e+07
8.92253e+07
1.68791e+08
1.20443e+08
1.15078e+08
7.25863e+07
7.22066e+07
7.97901e+07
2.26167e+08
9.30694e+07
8.13633e+07
8.01149e+07
1.11533e+08
1.85639e+08
1.87791e+08
8.01738e+07
8.26496e+07
1.17601e+08
1.21533e+08
1.06694e+08
1.50663e+08
1.15622e+08
1.80306e+08
9.24908e+07
9.2659e+07
1.79026e+08
8.61129e+07
1.19621e+08
1.54722e+08
1.97002e+08
1.5133e+08
1.96048e+08
9.30886e+07
2.03724e+08
1.34693e+08
1.21747e+08
2.11625e+08
7.73546e+07
7.91281e+07
8.4655e+07
1.45649e+08
9.54011e+07
9.54981e+07
1.55019e+08
9.37657e+07
1.72626e+08
1.2008e+08
1.17535e+08
1.14718e+08
1.15782e+08
1.74678e+08
8.75401e+07
1.70993e+08
6.41794e+07
6.8623e+07
1.27609e+08
1.12939e+08
5.44005e+07
9.36358e+07
8.87974e+07
7.96476e+07
1.95331e+08
9.25902e+07
5.02329e+07
1.06525e+08
9.24632e+07
1.35744e+08
8.06095e+07
9.53359e+07
7.62788e+07
5.34879e+07
4.64415e+07
3.58814e+07
4.35968e+07
9.14388e+07
3.94064e+07
8.84993e+07
1.35399e+08
1.02697e+08
1.09223e+08
1.08323e+08
2.1248e+08
1.66673e+08
1.67079e+08
1.91796e+08
1.71298e+08
1.82324e+08
7.75775e+07
1.06237e+08
1.88358e+08
2.95565e+07
1.57806e+08
9.22619e+07
8.68144e+07
1.17189e+08
1.15465e+08
8.25772e+07
8.27382e+07
1.42032e+08
9.56109e+07
8.75577e+07
1.08643e+08
1.46239e+08
1.44379e+08
2.01733e+08
2.02618e+08
1.561e+08
1.18582e+08
2.42587e+08
8.16712e+07
8.00379e+07
1.73704e+08
8.48616e+07
2.03006e+08
1.08661e+08
1.86521e+08
1.13687e+08
1.20819e+08
8.71012e+07
1.92037e+08
7.58995e+07
1.09581e+08
8.59343e+07
8.76607e+07
1.33072e+08
1.34846e+08
1.85602e+08
8.53362e+07
8.61035e+07
7.30304e+07
1.19517e+08
1.2104e+08
1.1105e+08
7.60481e+07
1.9096e+08
1.10573e+08
7.18756e+07
7.51653e+07
1.24644e+08
1.75147e+08
1.74631e+08
1.93393e+08
8.77236e+07
1.99281e+08
1.88317e+08
1.53202e+08
1.06803e+08
1.05425e+08
1.04874e+08
1.05236e+08
1.3714e+08
1.88176e+08
1.08258e+08
9.50195e+07
1.18025e+08
1.15243e+08
3.05055e+07
1.70051e+08
1.63935e+08
1.30948e+08
9.11778e+07
1.35686e+08
1.12042e+08
7.42958e+07
1.34257e+08
9.40295e+07
1.12767e+08
1.22026e+08
1.48209e+08
1.86595e+08
1.1232e+08
1.13806e+08
1.12556e+08
1.72621e+08
2.20892e+08
1.50554e+08
1.97956e+08
2.08642e+08
2.02018e+08
8.64738e+07
1.87577e+08
9.53134e+07
7.77219e+07
1.34611e+08
8.78811e+07
9.0285e+07
8.35759e+07
1.14463e+08
1.16401e+08
1.93232e+08
1.20501e+08
1.6719e+08
1.11659e+08
1.28333e+08
1.27175e+08
1.91018e+08
7.1245e+07
1.58836e+08
6.7185e+07
8.49435e+07
1.23663e+08
1.9021e+08
8.28967e+07
1.6953e+08
1.01264e+08
7.96066e+07
8.51058e+07
8.68499e+07
8.0676e+07
1.38724e+08
1.17092e+08
1.57645e+08
1.18697e+08
1.59671e+08
1.10922e+08
2.23795e+08
2.12805e+08
1.50426e+08
8.56098e+07
1.13225e+08
2.26933e+08
1.39145e+08
2.43e+08
9.63618e+07
1.24675e+08
1.07789e+08
9.96446e+07
5.63765e+07
8.42488e+07
9.68296e+07
1.15647e+08
1.06365e+08
1.09687e+08
1.10432e+08
9.83e+07
1.04503e+08
1.13531e+08
1.27891e+08
1.23921e+08
1.3798e+08
4.21268e+07
8.4353e+07
1.94596e+08
1.2433e+08
8.83642e+07
7.42828e+07
7.19549e+07
8.98238e+07
9.21497e+07
1.09966e+08
1.15207e+08
2.07942e+08
1.45948e+08
1.28685e+08
8.89541e+07
1.14116e+08
8.71524e+07
1.91477e+08
1.93926e+08
6.0143e+07
6.22506e+07
8.26188e+07
1.06968e+08
8.56097e+07
1.16791e+08
9.14797e+07
9.03427e+07
1.37181e+08
1.46715e+08
7.60146e+07
1.63507e+08
1.12029e+08
1.12298e+08
9.87116e+07
1.53871e+08
1.11056e+08
1.65872e+08
1.59486e+08
1.7447e+08
1.23067e+08
1.34724e+08
1.8368e+08
1.80887e+08
9.0563e+07
9.20945e+07
9.99609e+07
1.05963e+08
1.1211e+08
8.80928e+07
7.95788e+07
7.38798e+07
9.94802e+07
6.71052e+07
1.18084e+08
1.76788e+08
1.10683e+08
1.28136e+08
1.26297e+08
1.46887e+08
1.3071e+08
9.16193e+07
1.23255e+08
9.62518e+07
9.56179e+07
1.04546e+08
1.68675e+08
1.32035e+08
1.32223e+08
5.0163e+07
1.74068e+08
1.708e+08
1.68276e+08
1.46806e+08
1.12373e+08
7.77939e+07
1.06742e+08
1.06823e+08
7.64676e+07
1.40992e+08
1.13015e+08
8.17136e+07
8.13116e+07
8.92991e+07
1.36807e+08
1.32767e+08
1.93134e+08
1.94066e+08
1.33139e+08
1.37755e+08
1.3806e+08
1.2767e+08
1.23413e+08
1.43201e+08
1.86059e+08
1.79672e+08
1.08965e+08
1.0852e+08
1.21557e+08
1.30167e+08
1.29393e+08
1.44822e+08
8.23439e+07
7.04423e+07
6.40649e+07
1.93351e+08
1.89689e+08
1.33572e+08
1.2896e+08
1.33248e+08
1.33997e+08
7.985e+07
)
;

boundaryField
{
    back
    {
        type            empty;
    }
    front
    {
        type            empty;
    }
    down
    {
        type            calculated;
        value           nonuniform List<scalar> 
30
(
1.22623e+08
7.84942e+07
7.02165e+07
3.44417e+07
6.59929e+07
5.03621e+07
3.70946e+07
6.40672e+07
5.74079e+07
8.06713e+07
3.22231e+07
7.55663e+07
3.19415e+07
8.07467e+07
4.29239e+07
7.82854e+07
3.88251e+07
7.30923e+07
6.11588e+07
4.62035e+07
7.58141e+07
7.71375e+07
3.64926e+07
9.19777e+07
6.70837e+07
5.44005e+07
7.96476e+07
4.64415e+07
7.75775e+07
2.95565e+07
)
;
    }
    right
    {
        type            calculated;
        value           nonuniform List<scalar> 
20
(
7.75716e+07
1.05491e+08
1.03537e+08
7.50361e+07
1.07306e+08
9.5891e+07
8.70296e+07
8.40463e+07
7.39254e+07
1.07468e+08
7.97987e+07
7.55594e+07
1.0696e+08
1.01232e+08
9.89323e+07
7.31855e+07
1.07045e+08
9.02098e+07
9.30694e+07
8.13633e+07
)
;
    }
    up
    {
        type            calculated;
        value           nonuniform List<scalar> 
40
(
1.10528e+08
1.88347e+08
2.00135e+08
2.01592e+08
1.06268e+08
1.20996e+08
1.40056e+08
1.28909e+08
1.70752e+08
1.44653e+08
2.10202e+08
8.52888e+07
1.63169e+08
2.08668e+08
1.2006e+08
1.82342e+08
1.16101e+08
1.85096e+08
1.7509e+08
1.08365e+08
2.12195e+08
1.38672e+08
1.24141e+08
1.55959e+08
2.06495e+08
1.96166e+08
1.06715e+08
6.86746e+07
2.08848e+08
1.34162e+08
1.50953e+08
9.92107e+07
6.10306e+07
1.06694e+08
1.96048e+08
1.55019e+08
1.70993e+08
1.12939e+08
2.1248e+08
1.06237e+08
)
;
    }
    left
    {
        type            calculated;
        value           nonuniform List<scalar> 10(2.43e+08 1.38633e+08 2.01813e+08 2.43e+08 1.25247e+08 1.69762e+08 1.53271e+08 2.43e+08 2.43e+08 8.67145e+07);
    }
    hole
    {
        type            calculated;
        value           nonuniform List<scalar> 
16
(
1.46862e+08
9.55919e+07
2.43e+08
2.43e+08
1.74068e+08
4.31386e+07
1.05663e+08
1.73857e+08
5.35166e+07
2.42725e+08
1.43437e+08
6.99187e+07
1.34335e+08
1.89035e+08
2.43e+08
2.43e+08
)
;
    }
}


// ************************************************************************* //
