/*--------------------------------*- C++ -*----------------------------------*\
| =========                 |                                                 |
| \\      /  F ield         | OpenFOAM: The Open Source CFD Toolbox           |
|  \\    /   O peration     | Version:  v2012                                 |
|   \\  /    A nd           | Website:  www.openfoam.com                      |
|    \\/     M anipulation  |                                                 |
\*---------------------------------------------------------------------------*/
FoamFile
{
    version     2.0;
    format      ascii;
    class       volScalarField;
    location    "9";
    object      sigmaHyd;
}
// * * * * * * * * * * * * * * * * * * * * * * * * * * * * * * * * * * * * * //

dimensions      [1 -1 -2 0 0 0 0];


internalField   nonuniform List<scalar> 
1896
(
6.40898e+07
5.47254e+07
6.15461e+07
9.67356e+07
6.26519e+07
6.17299e+07
9.02693e+07
5.51325e+07
2.49773e+07
5.43393e+07
6.57912e+07
3.67835e+07
3.73174e+07
3.40298e+07
8.80138e+07
6.87675e+07
6.04439e+07
1.46886e+08
6.37274e+07
3.22016e+07
-7.99417e+07
5.71546e+07
8.93788e+07
9.1567e+07
5.71226e+07
5.61844e+07
4.07232e+07
4.08194e+07
6.44228e+07
6.75969e+07
6.37108e+07
5.3098e+07
1.99749e+07
5.50812e+07
8.77079e+07
6.65862e+07
6.35651e+07
5.66707e+07
1.26141e+08
6.82925e+07
5.23858e+07
7.06317e+07
5.57356e+07
5.8228e+07
4.27753e+07
3.70313e+07
8.51815e+07
6.55692e+07
6.83604e+07
8.44453e+07
6.1839e+07
5.87929e+07
5.60466e+07
5.8645e+07
3.04448e+07
5.55932e+07
4.97654e+07
6.53347e+07
5.91193e+07
7.12379e+07
5.55405e+07
8.79756e+07
8.22799e+07
5.97502e+07
5.09291e+07
5.27569e+07
8.61588e+07
4.10317e+07
5.80811e+07
8.66984e+07
1.90841e+07
8.18627e+07
5.79547e+07
5.40913e+07
9.1492e+07
5.59991e+07
5.55597e+07
6.14875e+07
6.09469e+07
5.83371e+07
8.68681e+07
9.02858e+07
4.89888e+07
5.27034e+07
5.14048e+07
5.98964e+07
5.02138e+07
4.73377e+07
4.23787e+07
5.05337e+07
5.4988e+07
1.69429e+08
2.22686e+07
9.09574e+07
9.38151e+07
5.80814e+07
5.43981e+07
6.80933e+07
5.29205e+07
4.40937e+07
4.59361e+07
3.49512e+07
6.00888e+07
2.71835e+07
4.1541e+07
5.58121e+07
5.80793e+07
6.72305e+07
7.76769e+07
1.46328e+08
6.86789e+07
5.31436e+07
6.94087e+07
4.57502e+07
9.57622e+07
4.87729e+07
5.05845e+07
5.39731e+07
5.2759e+07
6.64398e+07
5.48651e+07
1.89276e+07
5.72281e+07
4.78401e+07
4.9383e+07
3.2498e+07
6.18194e+07
5.4707e+07
6.43253e+07
4.24365e+07
4.53083e+07
5.45797e+07
6.99778e+07
1.08962e+08
6.25082e+07
8.61484e+07
8.37355e+07
8.60553e+07
5.30355e+07
6.93814e+07
5.84464e+07
5.97283e+07
6.71272e+07
9.47981e+07
5.37166e+07
6.0801e+07
5.77141e+07
6.45749e+07
8.48324e+07
5.0901e+07
4.3376e+07
5.46386e+07
5.70776e+07
5.86069e+07
5.7646e+07
6.10255e+07
4.58356e+07
5.58549e+07
1.75718e+08
5.86414e+07
5.78439e+07
9.70172e+07
2.28199e+07
6.01084e+07
1.39344e+08
5.37902e+07
8.39458e+07
6.48195e+07
6.69888e+07
5.48036e+07
5.36195e+07
5.32726e+07
2.30882e+07
2.5995e+07
8.8136e+07
8.54067e+07
7.17326e+07
5.67919e+07
6.62498e+07
3.42616e+07
1.7908e+07
7.05966e+07
6.04139e+07
7.90759e+07
8.48236e+07
1.76956e+08
4.4606e+07
8.29194e+07
-1.00696e+08
-1.55959e+07
7.60739e+07
6.637e+07
5.9008e+07
9.77275e+07
6.84066e+07
3.22197e+07
5.67634e+07
5.59295e+07
3.20733e+07
4.64357e+07
4.66102e+07
5.10408e+07
6.47679e+07
5.99971e+07
9.24824e+07
5.96818e+07
6.85096e+07
8.05915e+07
-6.77335e+07
5.43493e+07
9.20957e+07
6.30476e+07
5.63896e+07
5.82733e+07
3.81905e+07
3.35299e+07
5.7885e+07
7.90396e+07
7.26223e+07
6.45633e+07
-1.50866e+07
5.91834e+07
9.70809e+07
7.82038e+07
5.39252e+07
6.54384e+07
7.75858e+07
5.79673e+07
8.9916e+07
5.37829e+07
7.93499e+07
5.80049e+07
5.65388e+07
7.04249e+07
5.20505e+07
5.79794e+07
3.67283e+07
5.83415e+07
1.11116e+08
6.52705e+07
8.15904e+07
7.09711e+07
4.30804e+07
1.18417e+08
5.91898e+07
3.24851e+07
5.76828e+07
2.898e+07
3.1764e+07
7.62144e+07
2.65325e+07
5.71037e+07
5.43159e+07
6.81599e+07
5.22928e+07
5.70395e+07
1.53303e+07
1.00057e+08
8.47434e+07
8.65789e+07
6.41072e+07
-4.13357e+07
-5.33243e+07
4.39819e+07
5.93972e+07
4.15517e+07
6.96172e+07
3.60826e+07
6.74739e+07
5.87734e+07
4.15547e+07
-3.0979e+07
9.23825e+07
3.33123e+07
5.9436e+07
1.47364e+07
7.52511e+07
6.36608e+07
5.85547e+07
6.40485e+07
5.34084e+07
8.05225e+07
1.64842e+07
5.20932e+07
5.90055e+07
6.98259e+07
5.78398e+07
5.25591e+07
5.59616e+07
6.6208e+07
6.00989e+07
6.31661e+07
6.33845e+07
5.81992e+07
1.4751e+08
2.49587e+07
6.65442e+07
4.90642e+07
1.02925e+08
-2.05776e+07
9.51309e+07
6.14345e+07
8.51439e+07
9.45913e+07
5.76496e+07
5.63144e+07
5.4346e+07
1.17563e+07
2.07844e+07
5.6799e+07
5.81256e+07
5.23138e+07
2.76843e+07
6.6407e+07
5.43749e+07
6.53407e+07
5.26843e+07
5.84213e+07
5.89829e+07
6.07005e+07
5.37807e+07
8.73331e+07
7.81018e+07
5.70614e+07
1.37803e+07
5.18366e+07
5.44319e+07
1.99017e+07
6.23101e+07
5.70876e+07
-4.95717e+07
6.27404e+07
6.83587e+07
5.28403e+07
5.44206e+07
-5.19651e+07
3.99556e+07
8.95576e+07
6.37215e+07
5.49871e+07
5.41984e+07
-3.54604e+07
6.15293e+07
3.43627e+07
4.3175e+07
6.24474e+07
6.18788e+07
1.09851e+08
4.68069e+07
-5.57532e+07
-2.88919e+06
6.21901e+07
3.30991e+07
5.88405e+07
6.26134e+07
6.59363e+07
-8.92826e+06
1.10003e+08
5.14621e+07
5.1844e+07
3.16835e+07
1.31739e+08
1.35831e+08
-1.95935e+07
5.69045e+07
6.07099e+07
6.9905e+07
6.55386e+07
5.69972e+07
5.22504e+07
8.9811e+07
3.41524e+07
6.88258e+07
5.22951e+07
5.61628e+07
2.62327e+07
1.62312e+08
4.11439e+07
5.18075e+07
4.69839e+07
4.49405e+07
5.27027e+07
-4.19687e+06
5.91159e+07
2.73893e+07
6.28491e+07
1.21289e+08
5.51876e+07
6.72075e+07
1.24678e+08
5.52694e+07
6.21362e+07
8.30959e+07
9.86841e+07
5.70885e+07
-478986
7.20492e+07
7.15463e+07
5.81896e+07
5.80522e+07
5.56221e+07
5.69784e+07
6.21057e+07
1.8766e+07
6.77414e+07
2.40217e+07
5.65537e+07
9.58344e+07
3.12391e+07
7.79812e+07
4.99118e+07
4.88008e+07
4.56357e+07
8.95491e+07
7.18711e+07
7.79195e+07
5.75477e+07
2.10217e+08
4.93215e+07
5.38732e+07
3.91722e+07
6.9569e+07
5.21402e+07
8.40852e+07
6.72345e+07
4.96919e+07
-1.15243e+07
6.94923e+07
8.83743e+07
1.08074e+08
-1.73419e+07
2.65906e+07
5.29837e+07
5.93182e+07
6.14296e+07
5.76832e+07
5.37647e+07
1.74074e+08
3.84566e+07
5.67984e+07
3.17023e+07
7.21064e+07
5.87045e+07
1.08308e+08
6.92073e+07
5.2411e+07
5.66057e+07
5.67804e+07
6.4566e+07
6.30366e+07
9.47264e+07
5.95623e+07
5.76374e+07
5.83076e+07
5.83186e+07
4.91346e+07
5.83885e+07
5.19692e+07
-3.07657e+07
4.74145e+07
6.26835e+07
5.96024e+07
6.59294e+07
6.63251e+07
6.28825e+07
8.32206e+07
7.38384e+07
6.95627e+07
6.32587e+07
1.17908e+08
6.07464e+07
4.34081e+07
6.0393e+07
5.75804e+07
5.70733e+07
5.36838e+07
6.34338e+07
-3.8011e+07
5.70427e+07
5.5233e+07
5.35114e+07
5.41213e+07
5.59243e+07
6.13061e+07
4.85496e+07
1.02189e+08
3.79071e+07
6.90212e+07
5.74343e+07
6.46617e+07
7.19487e+07
5.68886e+07
6.48928e+07
6.38412e+07
1.17611e+08
1.20061e+08
5.83854e+07
6.00625e+07
4.52473e+07
5.93279e+07
5.52384e+07
5.92031e+07
5.04777e+07
1.05435e+08
6.30437e+07
-2.92408e+07
4.80452e+07
1.00464e+08
3.27133e+07
7.13369e+07
3.80804e+07
3.60861e+07
3.93407e+07
6.18577e+07
5.72647e+07
7.78827e+07
4.17879e+07
5.83272e+07
6.10754e+07
5.93545e+07
6.27067e+07
5.5601e+07
8.66053e+07
6.02756e+07
8.95354e+07
4.20271e+07
4.49527e+07
9.05753e+07
5.82544e+07
5.88622e+07
6.10515e+07
5.81187e+07
4.55341e+07
6.1542e+07
6.06405e+07
4.75176e+07
5.37781e+07
4.30123e+07
-6.1186e+07
8.42308e+07
1.0348e+08
-1.25853e+07
6.37654e+07
5.25744e+07
4.88378e+07
4.48767e+07
4.57257e+07
4.04876e+07
5.08619e+07
5.54568e+07
5.92144e+07
7.575e+07
6.36822e+07
2.41868e+07
4.43929e+07
7.67056e+07
2.95778e+07
8.00495e+07
5.68776e+07
7.08796e+07
7.80096e+07
5.71444e+07
5.74119e+07
7.62812e+07
5.76258e+07
1.3641e+08
3.75401e+07
5.84021e+07
6.13739e+07
5.36751e+07
2.98742e+07
2.82029e+07
3.47807e+06
1.12082e+08
6.34619e+07
8.11502e+07
6.29437e+07
5.13289e+07
7.85228e+07
5.68718e+07
4.16503e+07
8.4114e+07
5.65482e+07
2.04869e+07
5.97758e+07
6.06495e+07
1.28152e+07
6.61492e+06
-2.00146e+07
6.19398e+07
8.45876e+07
9.72609e+07
4.82144e+07
1.55001e+07
1.09361e+08
4.2105e+07
5.91419e+07
6.8927e+07
7.35936e+07
4.72758e+07
7.36649e+07
8.55027e+07
6.80997e+07
1.64764e+08
7.38612e+07
9.04519e+07
8.13988e+07
8.0911e+07
5.13342e+07
6.27833e+07
5.70165e+07
4.83164e+07
5.45103e+07
1.53367e+08
-7.09434e+06
5.58437e+07
4.37716e+07
1.07268e+08
6.32237e+07
3.61252e+07
1.1212e+07
8.13979e+07
5.11585e+07
8.96295e+07
-2.11044e+07
5.74851e+07
8.91835e+07
8.32291e+07
2.80394e+07
5.78279e+07
2.83137e+07
1.78523e+08
6.19728e+07
7.88449e+07
3.67832e+07
6.16899e+07
5.93741e+07
5.79916e+07
8.09291e+07
1.3162e+07
5.57166e+07
5.74172e+07
7.86507e+07
8.62085e+07
5.60739e+07
1.7103e+07
6.71562e+07
6.51375e+07
8.30029e+07
5.72894e+07
6.71337e+07
4.87225e+07
7.89246e+07
3.64774e+07
8.80548e+07
5.69698e+07
5.15908e+07
4.71641e+07
2.79942e+07
4.64388e+07
5.48468e+07
5.54606e+07
5.69147e+07
4.0231e+07
5.12672e+07
6.79816e+07
5.78494e+07
6.31329e+07
6.47165e+07
6.14995e+07
4.90848e+07
5.44388e+07
6.40244e+07
4.54927e+07
5.65805e+07
1.31862e+08
8.52522e+07
8.9935e+07
3.13628e+07
5.5031e+07
5.35196e+07
6.01873e+07
1.22668e+08
8.19417e+06
2.20932e+07
2.30792e+07
5.67753e+07
6.07727e+07
1.01054e+08
6.12571e+07
5.90015e+07
8.75962e+07
5.80052e+07
8.9804e+07
5.57259e+07
5.54883e+07
5.4412e+07
5.75413e+07
9.19806e+07
5.48932e+07
6.65602e+07
3.97438e+07
6.14867e+07
6.07365e+07
3.6528e+07
6.44207e+07
5.89694e+07
9.30209e+07
3.98028e+07
7.50473e+07
6.52953e+07
5.18894e+07
6.52494e+07
6.48339e+07
8.52188e+07
6.15872e+07
7.8691e+07
9.37953e+07
9.0682e+07
5.71055e+07
5.45607e+07
5.60195e+07
8.82173e+07
2.74521e+07
7.97845e+07
2.27196e+07
7.12453e+07
5.195e+07
5.60731e+07
7.96502e+07
5.81832e+07
3.96423e+07
-4.66492e+07
4.48512e+07
5.41781e+07
8.5016e+07
5.65088e+07
7.45204e+07
6.11974e+07
2.52818e+07
3.8905e+07
3.66048e+07
5.75497e+07
3.38039e+07
-2.93809e+07
6.16847e+07
3.86628e+07
1.67878e+08
4.79279e+07
6.09687e+07
8.19327e+07
5.79133e+07
7.60866e+07
6.01763e+07
4.47483e+07
6.64236e+07
6.87703e+07
5.59998e+07
9.38487e+07
1.73345e+08
5.55763e+07
7.71579e+07
6.0526e+07
3.69286e+07
-5.56801e+07
7.56281e+07
-9.82579e+07
7.94244e+07
8.16765e+07
7.06319e+06
3.94894e+07
8.57736e+07
7.71093e+07
4.58157e+07
5.65517e+07
5.63054e+07
5.81403e+07
3.10498e+07
8.60256e+07
3.6003e+07
6.92771e+07
7.25952e+07
8.80238e+07
5.71703e+07
4.70123e+07
5.16781e+07
4.94018e+07
5.78135e+07
9.70079e+07
3.6059e+07
8.98475e+07
4.64291e+07
5.97169e+07
1.93998e+07
5.61206e+07
5.60202e+07
6.76685e+07
5.34601e+07
3.02614e+07
5.48976e+07
5.78461e+07
5.42597e+07
-9.0572e+06
5.91463e+07
-2.22875e+07
6.42706e+07
6.54516e+07
4.86937e+07
4.96602e+07
-1.82305e+07
5.70071e+07
4.61244e+07
6.36606e+07
6.00348e+07
5.78197e+07
1.56748e+08
5.97569e+07
5.64025e+07
5.92126e+07
9.60564e+07
5.2758e+07
2.17754e+07
5.11526e+07
8.58729e+07
5.33678e+07
5.69339e+07
5.96973e+07
5.52469e+07
7.68782e+07
-1.55471e+07
1.55017e+07
4.25806e+07
9.23151e+07
4.43435e+07
5.85471e+07
7.19522e+07
5.25066e+07
5.94757e+07
7.84522e+07
5.56236e+07
5.39801e+07
5.32603e+07
5.77224e+07
5.70652e+07
7.08214e+07
5.95578e+07
3.59332e+07
6.40473e+07
8.91915e+07
-6.48183e+06
5.8343e+07
5.74101e+07
6.27472e+07
2.97793e+07
6.06844e+07
6.05725e+06
1.352e+08
-3.28091e+07
6.10945e+07
2.38562e+07
5.71414e+07
8.29578e+07
9.36847e+07
9.33661e+07
5.85757e+07
5.93585e+07
5.96172e+07
5.95053e+07
5.04773e+07
5.71197e+07
5.77115e+07
8.26287e+07
6.13532e+07
7.4197e+07
1.43777e+07
1.96554e+07
5.15253e+07
1.03919e+08
5.7506e+07
7.52528e+07
6.57314e+07
6.41237e+07
6.05368e+07
5.94761e+07
5.56923e+07
5.50586e+07
1.02995e+08
-1.13504e+07
9.80728e+07
6.37031e+07
6.35967e+07
8.48318e+07
5.43845e+07
6.78934e+07
5.24461e+07
5.2997e+07
6.87866e+07
-6.11988e+06
5.19175e+07
6.15033e+07
-2.35205e+06
-2.53706e+06
1.51384e+07
4.87995e+07
8.16586e+07
-1.30022e+07
5.36375e+07
5.8562e+07
6.88024e+07
8.74966e+07
4.08325e+07
5.87495e+07
6.787e+07
7.77803e+07
1.18801e+08
7.02361e+07
7.42008e+07
5.93615e+07
7.40763e+07
3.34512e+07
5.72514e+07
9.17194e+07
6.10637e+07
5.60815e+07
6.19924e+07
5.39405e+07
2.21656e+07
7.02777e+06
5.63305e+07
5.97338e+07
-3.36987e+07
9.76795e+07
6.04437e+07
6.67364e+07
5.53707e+07
5.30913e+07
6.40522e+07
6.18996e+07
8.33476e+07
9.44634e+07
6.02636e+07
7.7824e+07
6.91305e+07
5.44516e+07
4.17136e+07
5.1706e+07
2.78786e+07
6.88003e+07
6.23676e+07
5.60846e+07
1.50722e+08
4.64868e+07
6.24586e+07
4.92142e+07
6.12952e+07
8.02588e+07
3.94866e+07
7.00352e+07
3.78212e+07
5.80031e+07
6.04047e+07
6.94434e+07
5.80918e+07
1.17629e+08
8.21696e+07
6.21906e+07
9.62021e+07
5.85876e+07
5.97213e+07
8.21811e+07
6.51373e+07
6.15147e+07
6.95531e+07
4.86512e+07
-4.63785e+06
7.62481e+07
5.89234e+07
3.33278e+07
4.53178e+07
5.02848e+07
-7.5806e+07
6.88578e+07
1.44513e+08
6.23953e+07
7.06064e+07
1.03901e+08
-3.50702e+07
5.78269e+07
9.08483e+07
1.04893e+08
8.63734e+06
3.86747e+07
6.50875e+07
6.853e+07
5.88735e+07
7.12797e+07
6.73636e+07
5.83869e+07
3.95944e+07
4.58567e+07
9.81822e+07
3.88156e+07
4.55119e+07
4.53518e+07
6.23003e+07
1.28885e+07
1.01167e+08
-3.28572e+07
1.33583e+08
5.91155e+07
6.55018e+07
6.31401e+07
9.57498e+07
6.0676e+07
5.42496e+07
7.61924e+07
6.39217e+07
6.59511e+07
-101280
8.27338e+07
5.09322e+07
-3.15172e+06
5.38359e+07
4.45531e+07
1.282e+08
5.02862e+07
5.15331e+07
4.48309e+07
4.38254e+07
1.86325e+06
8.23712e+07
4.73068e+07
8.66468e+07
5.44258e+07
6.16517e+07
6.55216e+07
9.54936e+07
8.34413e+07
6.67116e+07
5.37777e+07
1.30413e+07
7.19786e+07
1.1469e+07
6.26994e+07
5.80829e+07
5.63577e+07
6.46474e+07
1.92761e+08
6.73199e+07
5.26958e+07
4.63016e+07
4.9306e+07
5.8255e+07
8.26807e+07
5.79601e+07
5.60276e+07
2.88525e+07
1.88321e+07
2.89055e+07
1.5528e+08
5.83196e+07
391990
6.5089e+07
1.66002e+08
5.83069e+07
5.47694e+07
5.88437e+07
6.7777e+07
5.90236e+07
5.35892e+07
8.01768e+07
9.15199e+07
7.57606e+07
3.55111e+07
6.42576e+07
2.9258e+07
3.0038e+07
5.46711e+07
5.10139e+07
5.02697e+07
6.02293e+07
6.14153e+07
5.3841e+07
6.46649e+07
4.70114e+07
1.09173e+08
6.13141e+07
-1.09432e+07
5.46276e+07
6.02084e+07
5.04152e+07
5.16406e+07
6.01631e+07
8.73412e+06
-3.9535e+06
6.04373e+07
6.07289e+07
1.1749e+08
8.29655e+07
6.22577e+07
8.32364e+07
6.82873e+07
5.70607e+07
5.63415e+07
1.08603e+08
5.37762e+07
5.87045e+07
7.13244e+07
1.07633e+08
9.6483e+07
6.02617e+06
5.7742e+07
5.44918e+07
5.32751e+07
5.38379e+07
5.36341e+07
-1.09463e+07
1.02276e+08
5.90834e+07
4.41341e+07
3.27091e+07
5.5339e+07
5.19611e+07
6.36948e+07
6.3293e+07
1.12221e+08
6.19241e+07
6.02128e+07
7.43624e+06
8.11334e+07
2.27946e+07
7.94398e+07
6.95939e+07
8.33933e+07
5.42062e+07
-3.9886e+07
3.64878e+07
-3.45852e+07
5.72482e+07
-1.56336e+07
5.07584e+07
7.47286e+07
7.41463e+07
4.32832e+07
4.04494e+07
5.94319e+07
4.16388e+07
-3.52614e+07
9.11433e+07
5.20939e+07
5.71954e+07
3.26911e+07
6.15809e+07
4.54502e+06
5.77684e+06
7.10782e+07
5.91957e+07
5.60837e+07
7.33123e+07
5.29667e+07
6.14735e+07
5.5887e+07
8.69464e+07
8.89823e+07
9.62278e+07
9.59655e+07
-1.49037e+07
7.54455e+07
5.26739e+07
5.76779e+07
3.38891e+07
7.61556e+07
5.53796e+07
6.35138e+07
5.60343e+07
4.24096e+07
8.84329e+06
2.34989e+07
6.15003e+07
5.57526e+07
5.91938e+07
5.81912e+07
6.0652e+07
6.00604e+07
5.28592e+07
5.63233e+07
5.18049e+07
6.76299e+07
4.78461e+07
5.04264e+07
7.28118e+07
5.02262e+07
4.82482e+07
7.26277e+07
6.61135e+07
6.99356e+07
1.1269e+08
5.73751e+07
5.6771e+07
9.21597e+07
5.22465e+07
5.23522e+07
7.90234e+07
6.429e+07
5.21628e+07
1.00343e+08
3.26404e+07
-1.53704e+07
5.54076e+07
6.47257e+07
7.24189e+06
318722
-4.9369e+07
4.07935e+07
2.68864e+07
6.80582e+07
5.83399e+07
5.75601e+07
1.42296e+07
1.74614e+07
5.50976e+07
5.24547e+07
4.32684e+07
6.03804e+06
7.25811e+07
5.5941e+07
5.67994e+07
6.66706e+07
5.63161e+07
6.13213e+07
5.46848e+07
2.93979e+07
2.644e+07
6.22115e+07
5.88268e+07
2.76359e+07
-2.49275e+07
5.4335e+07
5.63815e+07
1.42514e+08
5.85335e+07
9.63915e+06
8.73493e+07
6.2071e+07
9.0939e+07
9.2808e+07
1.35285e+07
5.83383e+07
-1.88223e+07
5.95763e+07
5.96091e+07
2.00413e+07
1.94032e+07
5.24143e+07
2.55064e+07
2.73779e+07
8.15851e+06
2.41412e+07
5.7757e+07
5.6933e+07
1.40345e+08
5.78195e+07
1.95583e+08
1.07518e+08
1.02361e+08
7.56302e+07
6.03647e+07
5.86271e+07
5.71864e+07
5.62334e+07
5.70305e+07
-2.19045e+07
5.30929e+07
9.16735e+07
6.84619e+07
8.68032e+07
8.86018e+07
1.80917e+07
7.74188e+07
8.11631e+07
9.24533e+07
-4.51655e+06
4.00601e+07
7.41225e+07
5.618e+07
-4.92571e+06
7.67369e+07
5.97627e+06
5.71138e+07
5.62655e+07
3.08805e+07
3.51045e+07
3.54709e+07
-3.42273e+07
3.98216e+07
4.9173e+07
1.94059e+08
7.54134e+07
7.70455e+07
9.53512e+07
3.48972e+07
4.21683e+07
4.63365e+07
5.76805e+07
9.42534e+07
-3.88169e+07
3.79269e+07
5.63905e+06
3.45327e+07
6.23203e+07
6.36284e+07
1.72096e+08
5.73694e+07
7.69096e+07
5.98138e+07
5.87534e+07
5.99528e+07
2.46762e+07
-1.96571e+07
-5.14156e+07
5.43491e+07
8.89338e+07
7.51455e+07
4.76079e+07
1.05263e+08
-7.5156e+06
7.17975e+07
4.75844e+07
4.56706e+07
2.05289e+07
-6.76369e+07
5.79382e+07
7.15811e+07
6.59305e+07
7.01234e+07
5.23368e+07
2.31013e+07
8.87006e+07
1.71028e+08
5.82777e+07
2.36064e+07
6.45422e+07
6.43546e+07
5.47311e+07
5.47973e+07
5.4902e+07
5.39844e+07
4.03667e+07
5.71705e+07
5.88657e+07
5.87763e+07
8.34653e+07
6.05307e+07
-2.39112e+07
5.63576e+07
5.76347e+07
5.49824e+07
1.12385e+08
1.56497e+08
4.37482e+07
4.60865e+07
5.54728e+07
-7.33391e+06
5.7139e+07
5.44691e+07
6.63397e+07
6.26004e+07
5.72809e+07
3.4294e+06
6.02458e+07
7.71233e+07
8.20344e+07
1.49227e+07
1.75968e+07
2.18149e+06
6.02783e+07
3.63883e+07
7.30283e+07
7.27891e+07
7.75467e+07
5.90561e+07
5.98811e+06
6.13399e+07
5.90198e+07
8.95961e+07
6.09718e+07
5.68172e+07
4.6901e+07
4.62105e+07
1.84017e+08
9.53158e+06
5.76353e+07
4.61231e+07
6.29045e+07
5.71595e+07
8.57559e+07
6.06273e+07
6.4243e+07
5.67693e+07
6.9802e+07
6.35737e+07
5.54447e+07
6.92976e+06
5.72076e+07
3.25007e+07
5.95377e+07
5.80587e+07
8.41599e+07
7.71189e+07
-4.15349e+07
6.79619e+07
6.97444e+07
7.50104e+07
9.4268e+07
6.0652e+07
5.98755e+07
6.98726e+07
7.16358e+07
5.20433e+07
5.20112e+07
5.77988e+07
7.40111e+07
8.09375e+07
3.5884e+07
3.97559e+07
7.48074e+07
5.88583e+07
7.01903e+07
6.19636e+07
5.78388e+07
8.51074e+07
6.05429e+07
6.01039e+07
8.60042e+07
5.51086e+07
4.30173e+07
1.92579e+07
8.14712e+07
6.33272e+07
2.42437e+07
5.28423e+07
9.81002e+07
5.64356e+07
5.38093e+07
5.57576e+07
5.47405e+07
4.12898e+07
9.99488e+07
5.48238e+07
7.71265e+07
4.09012e+07
6.78193e+07
5.80144e+07
5.67027e+07
5.58054e+07
6.86869e+07
6.52143e+07
6.76193e+07
5.66198e+07
1.01157e+08
6.16609e+07
5.91273e+07
9.21991e+07
42269.4
1.18627e+07
6.07252e+07
5.80431e+07
8.48035e+07
8.41398e+07
9.39522e+07
-5.0754e+07
5.69929e+07
8.29074e+07
6.50472e+07
4.47918e+07
5.88616e+07
-2.2621e+07
6.69663e+07
7.27808e+07
5.96708e+07
5.34618e+07
5.06292e+07
7.42333e+07
8.27961e+07
422162
-6.1637e+06
4.55905e+07
4.78231e+07
6.98465e+07
5.95136e+07
5.26976e+07
7.03492e+07
6.10515e+07
6.75929e+07
4.86485e+07
5.67691e+07
-1.46052e+06
8.5048e+07
6.79448e+07
5.02111e+07
7.17594e+07
4.37032e+07
4.49453e+07
5.84298e+07
5.98922e+07
6.20395e+07
8.35428e+07
5.57396e+07
5.34718e+07
5.10835e+07
4.65912e+07
8.15249e+07
8.06264e+07
3.93765e+07
5.23665e+07
5.21134e+07
8.36706e+07
8.75977e+07
4.37372e+07
-4.73502e+07
3.6728e+07
5.22383e+07
5.98537e+07
7.59581e+07
7.4e+07
4.85298e+07
4.14542e+07
8.86409e+07
8.47807e+07
4.26461e+07
6.15137e+07
5.97689e+07
5.82415e+07
8.00918e+07
6.00017e+07
5.8124e+07
5.68196e+07
3.2265e+07
5.77891e+07
5.94688e+07
5.61344e+07
3.12384e+07
4.59365e+07
5.77542e+07
8.32176e+07
6.14704e+07
6.24456e+07
4.74714e+07
5.78623e+07
4.75585e+07
5.24602e+07
5.40707e+07
5.30938e+07
1.12365e+08
5.96187e+07
6.65383e+07
6.31343e+07
5.61255e+07
8.53995e+07
8.32048e+07
6.20276e+06
3.18458e+07
3.87831e+07
4.38903e+07
5.24211e+07
7.27486e+07
-6.91629e+07
7.27433e+07
5.98909e+07
6.0949e+07
8.04872e+07
6.41511e+07
5.91146e+07
5.48372e+07
9.34271e+07
5.03154e+07
9.45837e+07
4.03874e+07
7.76071e+07
5.49379e+07
6.21894e+06
9.63292e+07
6.78724e+07
6.73372e+07
6.08068e+07
5.27807e+07
5.83601e+07
5.97126e+07
7.43029e+07
3.97397e+07
8.20464e+07
1.88323e+07
6.01899e+07
5.55712e+07
5.74463e+07
8.46986e+07
5.76534e+07
8.29689e+07
4.71731e+07
5.20363e+07
6.09761e+07
5.51474e+07
4.19237e+07
5.0558e+07
5.93451e+07
6.08036e+07
1.16547e+08
6.06692e+07
2.96661e+07
-7.64783e+06
5.15387e+07
4.38079e+07
5.82279e+07
4.39797e+07
5.56587e+07
3.7116e+07
3.63437e+07
2.04805e+07
2.9317e+07
6.01485e+07
1.00291e+06
5.70443e+07
6.48262e+07
2.71489e+06
5.50457e+07
5.34219e+07
1.03217e+08
8.35553e+07
8.00784e+07
8.56418e+07
7.71936e+07
8.33257e+07
6.79306e+07
5.1933e+07
8.9442e+07
1.22696e+07
7.75711e+07
5.54152e+07
4.79378e+07
5.95179e+07
5.67377e+07
6.53219e+07
6.64679e+07
4.99478e+07
2.53283e+07
6.30797e+07
5.43307e+07
7.17238e+07
5.79923e+07
9.77069e+07
9.82576e+07
4.17083e+07
1.46585e+07
1.51384e+08
6.0834e+07
6.01021e+07
7.2804e+07
-5.38115e+06
8.17888e+07
5.70521e+07
8.1716e+07
5.88055e+07
6.05301e+07
5.90279e+07
8.20894e+07
4.83557e+07
5.61339e+07
6.23995e+06
1.85181e+07
5.791e+07
6.20115e+07
7.57996e+07
6.47371e+07
6.30238e+07
4.90314e+07
4.3291e+07
4.91786e+07
9.42165e+06
5.69258e+07
7.7751e+07
5.73346e+07
5.15614e+07
4.74894e+07
5.93995e+07
8.20392e+07
7.90198e+07
8.38597e+07
1.95308e+07
7.4756e+07
8.66032e+07
7.49212e+07
5.91368e+07
5.7303e+07
5.78188e+07
5.93334e+07
5.9578e+07
7.97391e+07
5.32739e+07
-2.21186e+06
5.87577e+07
5.88992e+07
1.43337e+07
6.99581e+07
6.96443e+07
6.2003e+07
5.81239e+07
6.73285e+07
5.50862e+07
5.52207e+07
6.47079e+07
6.04252e+07
5.6778e+07
5.93489e+07
6.33443e+07
6.78983e+07
5.49608e+07
5.66692e+07
5.83633e+07
7.76886e+07
1.14564e+08
6.42046e+07
7.79508e+07
1.0573e+08
7.90345e+07
5.93188e+07
8.00477e+07
6.0162e+07
5.71422e+07
6.72935e+07
4.72869e+07
5.02475e+07
6.5585e+07
5.58777e+07
5.95422e+07
8.39123e+07
6.11357e+07
7.97195e+07
5.61988e+07
6.21951e+07
6.34067e+07
8.79574e+07
-9.759e+06
7.78767e+07
5.15972e+07
5.55213e+07
6.04039e+07
8.67697e+07
-1.93756e+07
4.83331e+07
5.50777e+07
5.86289e+07
6.49186e+07
6.25994e+07
5.02286e+07
6.70218e+07
1.04082e+07
5.24385e+07
5.94549e+07
5.97828e+07
5.82653e+07
1.27091e+08
9.99639e+07
6.09923e+07
4.88295e+07
5.5694e+07
1.19227e+08
6.09743e+07
1.54339e+08
5.53784e+07
6.12036e+07
5.92541e+07
3.08233e+07
-2.83753e+07
4.49595e+07
5.34692e+07
5.5335e+07
5.69807e+07
5.49328e+07
5.46893e+07
5.14564e+07
5.61381e+07
5.44868e+07
6.32305e+07
5.92539e+07
6.80071e+07
3.15396e+07
6.39054e+07
7.05701e+07
6.08313e+07
6.0092e+07
5.54743e+07
5.28856e+07
6.27028e+07
5.95991e+07
5.94777e+07
5.72779e+07
8.09852e+07
5.09947e+07
4.78852e+07
6.15492e+07
5.52264e+07
6.3502e+07
8.80201e+07
8.76159e+07
4.3753e+07
4.59791e+07
5.23971e+07
1.49262e+07
4.97738e+07
5.85098e+07
5.95981e+07
5.7431e+07
5.86495e+07
6.31583e+07
4.72791e+07
7.2613e+07
3.96588e+07
5.32389e+07
3.15255e+07
5.19453e+07
5.63398e+07
7.18513e+07
7.0873e+07
7.42447e+07
6.06211e+07
6.41832e+07
8.1505e+07
8.51851e+07
5.41034e+07
2.80936e+07
5.57207e+07
5.90387e+07
5.75556e+07
5.02196e+07
6.01203e+07
5.448e+07
5.58431e+07
4.92758e+07
5.49377e+07
8.30551e+07
5.66811e+07
6.30409e+07
6.09468e+07
2.40708e+07
1.57293e+07
5.30743e+07
6.10365e+07
5.86024e+07
5.90912e+07
5.86188e+07
7.64502e+07
6.34154e+07
6.58947e+07
3.34305e+07
7.70717e+07
6.19718e+07
6.76227e+07
4.95055e+07
5.14152e+07
6.83951e+07
5.21451e+07
5.203e+07
6.94081e+07
5.02096e+07
5.84548e+07
6.46266e+07
6.2788e+07
2.7583e+07
6.76826e+07
5.87607e+07
8.65395e+07
8.54197e+07
6.34033e+07
6.3582e+07
6.33271e+07
6.18487e+07
5.90465e+07
6.8207e+07
8.21617e+07
8.18772e+07
5.4582e+07
5.63483e+07
5.98773e+07
6.39738e+07
6.26891e+07
6.76595e+07
4.61829e+07
4.22701e+07
3.78704e+07
8.31086e+07
8.59196e+07
5.9389e+07
5.93351e+07
6.15568e+07
6.12161e+07
6.06726e+07
)
;

boundaryField
{
    back
    {
        type            empty;
    }
    front
    {
        type            empty;
    }
    down
    {
        type            zeroGradient;
    }
    right
    {
        type            zeroGradient;
    }
    up
    {
        type            zeroGradient;
    }
    left
    {
        type            zeroGradient;
    }
    hole
    {
        type            zeroGradient;
    }
}


// ************************************************************************* //
