/*--------------------------------*- C++ -*----------------------------------*\
| =========                 |                                                 |
| \\      /  F ield         | OpenFOAM: The Open Source CFD Toolbox           |
|  \\    /   O peration     | Version:  v2012                                 |
|   \\  /    A nd           | Website:  www.openfoam.com                      |
|    \\/     M anipulation  |                                                 |
\*---------------------------------------------------------------------------*/
FoamFile
{
    version     2.0;
    format      ascii;
    class       volSymmTensorField;
    location    "12";
    object      epsilon;
}
// * * * * * * * * * * * * * * * * * * * * * * * * * * * * * * * * * * * * * //

dimensions      [0 0 0 0 0 0 0];


internalField   nonuniform List<symmTensor> 
4000
(
(0.0121694 -0.00045407 -2.24763e-18 -0.0105588 4.45275e-18 1.46126e-32)
(0.0119105 -0.000433933 1.42934e-20 -0.0101576 5.6455e-18 0)
(0.0115415 -0.000421213 -6.06935e-26 -0.00963825 -5.81796e-24 0)
(0.0111143 -0.00040331 3.51769e-18 -0.0090838 -5.06565e-18 0)
(0.0106449 -0.000383835 -5.20281e-18 -0.00847378 -4.70775e-18 0)
(0.0101376 -0.000365151 7.38059e-20 -0.00785424 2.18153e-18 0)
(0.00961725 -0.000342888 -2.92779e-18 -0.00720389 -2.54272e-20 0)
(0.0090761 -0.000320596 0 -0.00656345 0 0)
(0.00852981 -0.000295908 1.97107e-19 -0.00590101 3.27659e-18 0)
(0.00796605 -0.000268282 2.38564e-18 -0.0052534 1.51754e-18 0)
(0.0074026 -0.000236816 -2.26288e-19 -0.00459453 -2.54969e-18 0)
(0.00683138 -0.000203917 -2.39731e-19 -0.00396362 -2.1986e-18 0)
(0.00626956 -0.000167276 -1.23997e-19 -0.0033396 -9.2567e-19 0)
(0.00572156 -0.000128047 2.48685e-19 -0.00276956 1.53414e-18 0)
(0.0052048 -8.82335e-05 7.98759e-19 -0.00223584 6.77056e-19 0)
(0.00472341 -4.90001e-05 -1.14343e-19 -0.00177908 -4.91591e-19 0)
(0.00429513 -1.17096e-05 -6.43128e-19 -0.00138202 -4.42419e-19 0)
(0.00391834 2.26205e-05 -1.05705e-18 -0.00107196 -4.1549e-19 0)
(0.00360882 5.5864e-05 -4.37362e-19 -0.000828231 -5.77175e-20 0)
(0.00335999 8.78522e-05 -7.19774e-19 -0.000689586 1.44794e-19 0)
(0.011805 -0.00132203 -2.46664e-19 -0.0101906 2.907e-18 6.4871e-33)
(0.0115515 -0.00126681 1.98674e-18 -0.00979752 2.57038e-18 0)
(0.0112167 -0.00123319 1.70528e-18 -0.00930953 -5.33697e-18 0)
(0.0108306 -0.00118275 3.66407e-18 -0.00879842 2.16527e-18 0)
(0.0104056 -0.00112998 -4.97886e-18 -0.00823021 3.25118e-19 0)
(0.00992546 -0.00107376 -7.43271e-25 -0.00763927 -7.54259e-24 0)
(0.00942137 -0.00100628 1.05164e-20 -0.00700404 8.38917e-20 0)
(0.00887488 -0.000937406 -3.21598e-18 -0.00636087 -3.57804e-18 0)
(0.0083107 -0.000854158 0 -0.0056835 0 0)
(0.00772513 -0.000767345 3.66825e-18 -0.00502124 1.54539e-18 0)
(0.00713743 -0.000666052 4.5894e-25 -0.00434847 1.55588e-24 0)
(0.00655278 -0.000562464 -7.30713e-19 -0.00371832 -2.04201e-18 0)
(0.00599191 -0.000449054 -3.72731e-19 -0.00311245 -8.49494e-19 0)
(0.00545913 -0.000335916 3.7032e-19 -0.00257627 6.97855e-19 0)
(0.00497152 -0.000222592 1.00943e-18 -0.00209057 7.18712e-19 0)
(0.0045327 -0.00011424 -2.58004e-19 -0.00169224 2.74674e-19 0)
(0.00415363 -1.26517e-05 -2.2769e-19 -0.00135534 1.85827e-19 0)
(0.003832 8.1731e-05 -1.20717e-18 -0.00110621 -6.17264e-19 0)
(0.00357443 0.000167602 3.50775e-21 -0.000913429 3.96742e-21 0)
(0.0033624 0.000249968 -1.11543e-18 -0.000789785 -6.55516e-19 0)
(0.0111789 -0.00209187 1.57613e-18 -0.00955793 2.44388e-18 5.70494e-33)
(0.010919 -0.00200924 1.87825e-18 -0.00916112 2.23856e-18 0)
(0.0106216 -0.00195473 -1.10689e-19 -0.00870762 -2.53124e-18 0)
(0.0102815 -0.00188174 -1.31898e-18 -0.00824486 4.84652e-18 0)
(0.00989865 -0.0017973 3.19554e-18 -0.00771712 -2.35326e-19 0)
(0.00944565 -0.00170548 8.22716e-19 -0.00715582 -4.08658e-18 0)
(0.00894652 -0.00158672 7.86317e-19 -0.00652741 3.57389e-18 0)
(0.00838442 -0.0014583 1.95269e-20 -0.00587577 6.88248e-20 0)
(0.00779641 -0.00130446 -3.89989e-18 -0.00518431 -4.48125e-18 0)
(0.00718978 -0.00114146 1.61758e-18 -0.00451767 1.35215e-18 0)
(0.00659281 -0.000962945 1.55904e-18 -0.00385776 1.2279e-18 0)
(0.00602321 -0.000784037 -3.63348e-19 -0.00327001 -1.5155e-18 0)
(0.00549801 -0.000602166 -2.17472e-18 -0.00273096 -1.2178e-18 0)
(0.0050287 -0.000429145 -1.01071e-19 -0.00228788 3.09854e-19 0)
(0.00462218 -0.000262982 1.13262e-18 -0.00191015 9.47767e-19 0)
(0.00428057 -0.000110595 5.2551e-19 -0.001626 4.00016e-19 0)
(0.00400126 2.95808e-05 5.2713e-19 -0.00139864 2.80927e-19 0)
(0.00377481 0.000157154 -1.24844e-18 -0.00124177 -8.4388e-19 0)
(0.00358973 0.00026911 -5.24907e-21 -0.00111478 -4.33326e-21 0)
(0.00342686 0.000371212 -1.04003e-18 -0.00101981 -7.87108e-19 0)
(0.0104349 -0.00274836 -4.19946e-18 -0.00880126 3.41014e-18 6.14295e-33)
(0.0101274 -0.00263428 2.39423e-21 -0.00836443 4.89443e-18 0)
(0.0098245 -0.00254801 1.66329e-18 -0.00789829 -2.84316e-19 0)
(0.0094731 -0.00244391 -2.17626e-19 -0.00743202 -2.0997e-18 0)
(0.0090779 -0.00231452 3.76509e-18 -0.00688862 -4.53411e-18 0)
(0.00860809 -0.00216796 8.96079e-19 -0.00632143 3.55131e-18 0)
(0.00808532 -0.00197947 5.86064e-19 -0.00567696 1.65996e-18 0)
(0.00750661 -0.00177847 3.52313e-18 -0.00502652 2.43344e-19 0)
(0.00692039 -0.00154173 3.69518e-19 -0.00435814 -9.47443e-19 0)
(0.00633992 -0.00130543 -1.6018e-18 -0.0037475 -1.97148e-18 0)
(0.0058043 -0.0010589 1.75642e-18 -0.00318205 5.97389e-19 0)
(0.00532531 -0.000827494 8.24674e-19 -0.0027203 6.53745e-19 0)
(0.00491997 -0.000605277 8.52795e-19 -0.00233211 5.68733e-19 0)
(0.00459001 -0.000404521 -2.1054e-18 -0.00205205 -1.23296e-18 0)
(0.00433139 -0.000220028 -6.19877e-19 -0.00183464 -3.9089e-19 0)
(0.00413353 -5.41086e-05 5.66064e-19 -0.00169583 3.76604e-19 0)
(0.00397584 9.5098e-05 1.63077e-18 -0.00158233 1.02551e-18 0)
(0.0038421 0.000227883 1.02607e-18 -0.00150364 7.10147e-19 0)
(0.00371084 0.000341913 -4.72214e-19 -0.00141321 -3.29226e-19 0)
(0.00357174 0.000437007 5.84521e-19 -0.00132475 4.48354e-19 0)
(0.00965618 -0.0033064 -1.74565e-18 -0.00800642 5.14994e-19 9.5762e-36)
(0.00925764 -0.00313382 1.56287e-18 -0.00748293 -5.04285e-18 0)
(0.00885498 -0.00297483 -1.52125e-19 -0.00692096 -2.17656e-18 0)
(0.00840622 -0.0027984 1.41348e-18 -0.00636181 -3.3153e-19 0)
(0.0078987 -0.00257445 -9.6363e-21 -0.00571782 -3.74953e-20 0)
(0.00734362 -0.00234039 -6.27685e-19 -0.00508192 1.5154e-18 0)
(0.00679244 -0.0020676 2.62476e-18 -0.00442763 -9.98567e-19 0)
(0.00624183 -0.00179769 1.63708e-19 -0.00383892 -8.3482e-19 0)
(0.00572969 -0.00150487 8.87954e-19 -0.00328028 2.50757e-19 0)
(0.00528515 -0.00123538 0 -0.00284533 0 0)
(0.00491682 -0.000972356 9.91301e-19 -0.00248245 5.3901e-19 0)
(0.00463604 -0.000740648 -1.46789e-18 -0.00224426 -9.12906e-19 0)
(0.00443519 -0.000526775 2.29991e-18 -0.00207359 1.3456e-18 0)
(0.00429975 -0.000337908 2.41148e-18 -0.00198777 1.24948e-18 0)
(0.00420784 -0.000164303 -1.38545e-19 -0.00192737 1.05183e-19 0)
(0.00413481 -9.42823e-06 -6.85754e-19 -0.00189777 -3.61072e-19 0)
(0.00405544 0.000130908 -2.68574e-20 -0.00184568 8.34573e-20 0)
(0.00396557 0.00025472 5.13428e-19 -0.00179549 3.98393e-19 0)
(0.00384747 0.000363322 -6.87357e-20 -0.00170501 -8.11503e-20 0)
(0.0037161 0.000455493 8.19946e-19 -0.00161564 6.6377e-19 0)
(0.00883525 -0.00374509 3.23216e-18 -0.00715835 -1.02221e-18 1.10228e-36)
(0.00828508 -0.00346939 -1.35733e-18 -0.00650412 2.52133e-18 0)
(0.00767572 -0.00316497 1.35298e-18 -0.00573638 -3.00457e-19 0)
(0.00702511 -0.00285673 -4.0592e-19 -0.0049982 -1.51453e-18 0)
(0.00646821 -0.00251943 -2.25521e-18 -0.00430702 1.38929e-19 0)
(0.00576422 -0.00216209 -1.75897e-18 -0.0035664 -1.06716e-18 0)
(0.005226 -0.00180797 -8.983e-19 -0.00296678 -7.74782e-19 0)
(0.00479423 -0.00151652 1.1377e-18 -0.00254033 8.41396e-19 0)
(0.00447108 -0.00123906 -7.56739e-19 -0.00221453 -4.00559e-19 0)
(0.00426976 -0.00100973 -2.60714e-18 -0.0020517 -1.33463e-18 0)
(0.00415796 -0.000802984 7.18983e-19 -0.00195998 -3.36768e-19 0)
(0.00412832 -0.000622652 -1.70546e-18 -0.00197095 -8.45538e-19 0)
(0.00413472 -0.000454558 -1.90286e-18 -0.00199579 -6.65116e-19 0)
(0.00415729 -0.000299765 6.28517e-19 -0.00205109 5.01222e-19 0)
(0.00416088 -0.000151905 7.51953e-19 -0.00206905 3.40576e-19 0)
(0.00413848 -1.53931e-05 6.16367e-19 -0.00207691 4.90208e-19 0)
(0.00408154 0.000115323 6.14616e-19 -0.00203728 3.41997e-19 0)
(0.00400205 0.000233039 1.70287e-18 -0.00199156 1.15088e-18 0)
(0.00389754 0.000343092 -1.5266e-18 -0.00190914 -1.07881e-18 0)
(0.00378721 0.000436486 -1.78712e-19 -0.00183494 -9.10696e-20 0)
(0.00784347 -0.00399047 -1.851e-19 -0.0061387 3.12149e-18 9.81744e-33)
(0.00710935 -0.00354439 -1.58007e-18 -0.00532183 -1.20375e-18 0)
(0.00625134 -0.00304328 -9.45791e-19 -0.00431961 -2.80249e-18 0)
(0.00543565 -0.00256805 8.51653e-19 -0.00345519 3.14597e-18 0)
(0.00471409 -0.00208168 -1.07783e-19 -0.00265362 6.27142e-19 0)
(0.00414231 -0.00168475 -7.75169e-20 -0.00208359 -2.24376e-19 0)
(0.00372169 -0.00134452 -9.74242e-19 -0.0016602 -2.99985e-19 0)
(0.0035203 -0.00111012 -6.77512e-19 -0.00149559 -4.30669e-19 0)
(0.00346114 -0.000927354 2.40375e-18 -0.00145359 1.13872e-18 0)
(0.00352545 -0.000790568 -2.50009e-19 -0.0015485 -8.18915e-19 0)
(0.00363805 -0.00066479 1.99739e-20 -0.00166809 4.18807e-21 0)
(0.00376989 -0.000546483 -1.90104e-18 -0.00182074 -4.97426e-19 0)
(0.00387805 -0.000425205 -1.54728e-18 -0.00193122 -7.95459e-19 0)
(0.00395351 -0.000303828 1.0122e-18 -0.00202682 8.89975e-20 0)
(0.0039843 -0.000178125 -2.00217e-18 -0.0020651 -1.32123e-18 0)
(0.00398472 -5.50329e-05 -1.33175e-18 -0.00209179 -8.26267e-19 0)
(0.00395582 6.83305e-05 -1.22881e-18 -0.0020774 -8.03213e-19 0)
(0.00391277 0.000180511 5.62406e-19 -0.00206409 2.86951e-19 0)
(0.00385417 0.000289907 1.62688e-18 -0.00202151 1.06649e-18 0)
(0.00378775 0.000382717 -1.00732e-18 -0.00198434 -7.5091e-19 0)
(0.00650513 -0.00386086 -1.08531e-18 -0.004775 1.23467e-18 9.88003e-34)
(0.00562217 -0.00321376 2.78283e-18 -0.00385083 7.71235e-19 0)
(0.00465563 -0.0025475 -2.80914e-18 -0.00277135 3.94533e-20 0)
(0.00387607 -0.00198966 8.45306e-19 -0.00200057 1.92e-19 0)
(0.00325327 -0.00151395 -5.23447e-19 -0.0013668 1.7746e-19 0)
(0.00291238 -0.00120564 -1.4586e-18 -0.00108371 2.05406e-19 0)
(0.00276348 -0.000965154 -2.33792e-19 -0.000953794 -8.67905e-19 0)
(0.00279206 -0.000825123 -6.07685e-19 -0.00101854 -4.67207e-19 0)
(0.00289674 -0.000721079 -2.65823e-19 -0.00111924 -8.99795e-19 0)
(0.00305023 -0.000649367 1.53023e-18 -0.00128456 5.69022e-19 0)
(0.00319799 -0.000576228 5.94279e-19 -0.0014217 4.78128e-19 0)
(0.00334082 -0.000500204 1.03484e-24 -0.00157481 2.00163e-25 0)
(0.00345504 -0.000409124 -1.40188e-18 -0.00168586 -6.69281e-19 0)
(0.00354798 -0.000314716 1.5719e-19 -0.00179713 -2.81703e-19 0)
(0.00360945 -0.000205902 7.21742e-19 -0.00186579 2.21683e-19 0)
(0.0036531 -0.000100846 -1.2407e-18 -0.00193422 -7.21853e-19 0)
(0.0036789 8.57619e-06 -5.82475e-25 -0.00197012 -2.19846e-25 0)
(0.00369021 0.000107274 -1.64375e-18 -0.00200592 -1.46032e-18 0)
(0.00368356 0.000209084 -1.06922e-20 -0.00200901 2.36834e-19 0)
(0.00365782 0.00029307 -1.36939e-18 -0.00200674 -9.7202e-19 0)
(0.0048208 -0.00320906 -2.04479e-18 -0.00309462 4.77817e-19 5.98569e-36)
(0.0039375 -0.00242914 8.46613e-19 -0.00223315 5.88109e-19 0)
(0.00312645 -0.0018055 -1.01842e-18 -0.00136077 -2.33605e-19 0)
(0.00269136 -0.0014013 -2.22345e-18 -0.000987968 -1.07044e-19 0)
(0.00243824 -0.00108815 1.67076e-18 -0.000751876 4.03565e-19 0)
(0.00244398 -0.000947891 2.53795e-18 -0.000832327 -6.17657e-19 0)
(0.00248579 -0.000837154 -1.41542e-19 -0.000887361 -9.80993e-19 0)
(0.00257232 -0.000753802 -5.68811e-19 -0.000981084 -4.61751e-19 0)
(0.00264813 -0.000673924 -1.98724e-18 -0.00102928 -9.10999e-19 0)
(0.00272956 -0.000597328 -1.69162e-18 -0.00110852 -4.63862e-20 0)
(0.00281824 -0.000518916 7.94765e-19 -0.0011846 4.06217e-20 0)
(0.00291577 -0.000442608 1.1198e-18 -0.00130098 8.95205e-19 0)
(0.00300525 -0.000360613 -8.26856e-25 -0.00139072 -1.03272e-25 0)
(0.0030878 -0.000286013 6.95854e-19 -0.00149647 1.12342e-19 0)
(0.00315578 -0.000205187 -1.08039e-19 -0.0015728 3.32939e-19 0)
(0.00322847 -0.000128905 4.4807e-19 -0.00166645 7.70706e-19 0)
(0.00328672 -4.41917e-05 1.11595e-18 -0.00173231 6.16078e-19 0)
(0.00332983 3.1563e-05 1.04582e-18 -0.00179554 9.1993e-19 0)
(0.00335401 0.000117316 -1.02366e-18 -0.00182853 -9.19392e-19 0)
(0.00335592 0.000186964 5.03907e-19 -0.00185052 1.76586e-19 0)
(0.00323484 -0.00228707 -2.39212e-18 -0.0015783 4.55489e-20 9.12894e-34)
(0.0025958 -0.00162986 -1.07638e-18 -0.00100717 -5.4382e-20 0)
(0.00225106 -0.00125898 0 -0.000617656 0 0)
(0.00223568 -0.00108327 -1.04974e-18 -0.000712155 1.1054e-19 0)
(0.00227323 -0.000971837 -2.29743e-18 -0.000750629 -8.67221e-19 0)
(0.00236796 -0.000885716 3.62806e-19 -0.000869691 -5.51826e-19 0)
(0.00241576 -0.000816649 1.53539e-18 -0.000895433 4.02111e-19 0)
(0.00247486 -0.000745996 1.18716e-18 -0.000976457 9.23874e-19 0)
(0.00252143 -0.000661456 1.71903e-18 -0.00101039 1.36878e-18 0)
(0.00257976 -0.000579349 -7.84563e-19 -0.00108895 1.64688e-20 0)
(0.0026348 -0.000489083 -1.49799e-18 -0.00113149 1.20107e-20 0)
(0.0026857 -0.000409715 -2.72922e-20 -0.00119975 -4.52244e-22 0)
(0.00273008 -0.000330432 6.62985e-19 -0.00123501 1.85403e-20 0)
(0.00277324 -0.000260956 5.04587e-19 -0.00129332 4.30262e-19 0)
(0.00283116 -0.000188999 4.13891e-19 -0.00135533 8.11097e-19 0)
(0.0028892 -0.000123767 -5.65775e-19 -0.00143911 -6.63197e-20 0)
(0.00293407 -5.50793e-05 -9.30733e-21 -0.00149284 -1.32827e-21 0)
(0.0029674 3.97001e-06 1.97191e-18 -0.00155078 6.81633e-19 0)
(0.0029919 7.01633e-05 9.6896e-19 -0.00158733 5.19954e-19 0)
(0.0030097 0.000121777 8.86154e-22 -0.00162324 6.58267e-19 0)
(0.00225762 -0.00160593 -1.53543e-18 -0.000699185 6.2317e-19 9.78883e-35)
(0.00201515 -0.00124855 -1.19999e-18 -0.000543936 1.99116e-19 0)
(0.00206339 -0.00114556 2.46056e-19 -0.000577298 1.1666e-18 0)
(0.00213601 -0.00100992 6.10307e-19 -0.000711563 5.01707e-19 0)
(0.00218813 -0.000953118 2.03774e-18 -0.000721807 -3.06447e-19 0)
(0.0022503 -0.000851661 2.09687e-20 -0.000828387 -2.78343e-21 0)
(0.00229631 -0.000768918 -6.01254e-19 -0.000854076 1.1905e-18 0)
(0.00237256 -0.000687043 -1.15631e-18 -0.000958908 6.61914e-19 0)
(0.00242487 -0.000611467 1.3607e-18 -0.000997458 3.82142e-19 0)
(0.00249032 -0.000540483 1.3199e-18 -0.0010853 3.97927e-19 0)
(0.00253198 -0.000465753 1.27767e-18 -0.00112164 3.99014e-19 0)
(0.00257773 -0.000393022 -1.05307e-18 -0.00119001 -8.89504e-19 0)
(0.00261151 -0.000319985 -6.38372e-19 -0.00122178 2.43572e-20 0)
(0.00265166 -0.000251162 -1.10814e-18 -0.00127853 -4.22178e-19 0)
(0.00268644 -0.000182923 -5.09299e-19 -0.00130872 -4.24107e-19 0)
(0.00270961 -0.000121567 -9.25992e-19 -0.00135025 -1.2488e-18 0)
(0.00272729 -6.08172e-05 -9.40081e-19 -0.00137086 -8.29497e-19 0)
(0.00274177 -9.03164e-06 -4.63387e-19 -0.00140348 -1.89473e-20 0)
(0.0027636 4.69293e-05 4.38406e-19 -0.00143468 7.87911e-19 0)
(0.00277965 9.06442e-05 7.50932e-19 -0.00146862 2.49441e-19 0)
(0.0018783 -0.00136493 1.68849e-18 -0.00042921 4.52566e-19 7.75511e-36)
(0.00187404 -0.00119796 -2.25866e-18 -0.000474814 5.05212e-19 0)
(0.00195892 -0.00111716 -1.12777e-18 -0.000551093 2.39961e-19 0)
(0.00199257 -0.000975976 3.87274e-19 -0.000628842 -7.25562e-19 0)
(0.00205444 -0.00089855 6.21851e-19 -0.000683613 4.92166e-19 0)
(0.00213216 -0.000786696 3.1735e-19 -0.000791304 1.16329e-18 0)
(0.00218927 -0.000722068 5.7314e-19 -0.000839034 4.85827e-19 0)
(0.00226446 -0.000633486 2.40132e-19 -0.000937103 -6.21398e-19 0)
(0.00231935 -0.000568735 -1.1465e-18 -0.000983388 -9.36519e-19 0)
(0.0023862 -0.00049215 -1.2958e-18 -0.00106906 -3.55179e-19 0)
(0.00243775 -0.000428171 6.73337e-19 -0.00111371 -9.26308e-20 0)
(0.00249079 -0.000361889 1.18621e-18 -0.0011835 3.7292e-19 0)
(0.0025308 -0.000301907 1.05512e-18 -0.00122 8.83182e-19 0)
(0.00256813 -0.00024305 5.83229e-19 -0.00127365 -5.25417e-20 0)
(0.00259546 -0.00018227 5.66468e-20 -0.00130225 -4.74458e-19 0)
(0.00261915 -0.000124235 5.0588e-19 -0.00134296 4.2197e-19 0)
(0.0026382 -6.80241e-05 -9.39602e-19 -0.00136402 4.9969e-19 0)
(0.00265439 -1.83165e-05 4.70383e-19 -0.00139332 8.42138e-19 0)
(0.00266841 3.22781e-05 4.27142e-19 -0.00140867 -1.67408e-20 0)
(0.00267102 7.43204e-05 -1.1734e-18 -0.00142524 -6.10166e-19 0)
(0.00168215 -0.0013245 2.18417e-18 -0.000324994 -1.18699e-19 9.90938e-34)
(0.00171738 -0.00117252 7.99043e-19 -0.000391223 -1.64425e-18 0)
(0.00179981 -0.00104504 -6.40436e-19 -0.000491517 -5.16532e-19 0)
(0.00186623 -0.000913894 -1.6587e-18 -0.000588932 -2.26188e-19 0)
(0.00194704 -0.000837871 -9.39184e-19 -0.000667652 2.55431e-19 0)
(0.00201852 -0.000734781 -1.93799e-20 -0.000765475 5.11609e-21 0)
(0.0020898 -0.000669004 -3.74312e-19 -0.000829629 -1.18742e-18 0)
(0.00216131 -0.000587218 1.97793e-18 -0.000921815 7.6948e-19 0)
(0.00222372 -0.000525878 1.33796e-18 -0.000976341 2.93324e-19 0)
(0.00228776 -0.000457179 -6.80487e-19 -0.00105687 1.49747e-19 0)
(0.00234013 -0.000397787 -6.41543e-19 -0.00110243 1.36739e-19 0)
(0.00239342 -0.000336117 -1.58509e-19 -0.00116947 1.14789e-18 0)
(0.00243672 -0.00027951 -2.19943e-20 -0.00120706 4.20412e-21 0)
(0.00247927 -0.000224386 5.59476e-19 -0.00126114 -6.27115e-19 0)
(0.00251386 -0.000172094 -1.71261e-20 -0.00129106 5.18906e-19 0)
(0.00254221 -0.000123461 9.6141e-19 -0.00132991 1.35355e-18 0)
(0.00256468 -7.52297e-05 8.5925e-21 -0.00134965 4.90761e-19 0)
(0.00257998 -3.25671e-05 -9.37097e-19 -0.00137463 -8.21675e-19 0)
(0.0025932 1.36166e-05 8.01024e-19 -0.00138693 -1.21579e-19 0)
(0.00259797 5.04771e-05 8.27985e-19 -0.00139965 3.40493e-19 0)
(0.00145484 -0.00126857 3.41921e-18 -0.000208683 -2.37513e-18 -1.41226e-33)
(0.00153822 -0.00110725 1.18843e-18 -0.000327195 -4.14881e-19 0)
(0.00165046 -0.000983061 -1.39391e-18 -0.000447393 1.22987e-18 0)
(0.00172693 -0.000864534 2.22223e-20 -0.000551361 -7.67536e-21 0)
(0.00182169 -0.00077923 -2.20459e-18 -0.000644707 -6.91081e-19 0)
(0.00190219 -0.0006873 2.37244e-19 -0.000745507 -7.84265e-19 0)
(0.00198104 -0.000621825 -2.19422e-18 -0.000818545 2.88003e-20 0)
(0.00205698 -0.00054795 -1.52776e-18 -0.000909624 4.81982e-19 0)
(0.00212348 -0.000491403 2.54548e-18 -0.000968606 5.17369e-19 0)
(0.00218989 -0.000429416 1.12283e-18 -0.00104666 9.34716e-19 0)
(0.00224547 -0.000377438 -1.18732e-18 -0.00109438 -2.72286e-19 0)
(0.00229975 -0.000323651 1.65147e-18 -0.00115801 7.40103e-19 0)
(0.00234417 -0.000274618 -4.43351e-19 -0.00119493 -2.22175e-18 0)
(0.00238603 -0.000226447 -1.52139e-18 -0.00124458 -1.30776e-18 0)
(0.00242022 -0.000179524 -2.44856e-18 -0.00127167 -4.71432e-19 0)
(0.00245074 -0.000135643 -4.43357e-25 -0.00130867 1.13494e-25 0)
(0.00247633 -9.23145e-05 -9.08872e-20 -0.00132695 -1.04506e-18 0)
(0.00249621 -5.42453e-05 -9.064e-19 -0.00135169 -8.15627e-19 0)
(0.00251467 -1.55606e-05 -1.65504e-18 -0.00136218 -6.00375e-19 0)
(0.00252354 1.52279e-05 1.79971e-18 -0.00137372 5.34674e-19 0)
(0.0012284 -0.00117627 -1.5658e-18 -0.000117873 3.84866e-19 5.49149e-34)
(0.00135562 -0.00103293 9.76464e-19 -0.000266256 2.02416e-18 0)
(0.00148442 -0.000911202 6.9022e-19 -0.000402794 5.10903e-19 0)
(0.00159119 -0.000804554 1.84936e-18 -0.0005258 -7.66056e-19 0)
(0.00169623 -0.000724512 3.92693e-20 -0.000629837 -1.60759e-20 0)
(0.00178875 -0.000642082 -1.84292e-19 -0.00073477 8.25029e-19 0)
(0.00187525 -0.000581711 6.14619e-19 -0.000815496 4.86884e-19 0)
(0.00195548 -0.000516371 -2.59485e-18 -0.000904896 -4.14745e-19 0)
(0.00202679 -0.000465234 -1.25393e-18 -0.000968128 -2.12603e-19 0)
(0.00209475 -0.000411466 1.24261e-18 -0.00104273 -4.66257e-19 0)
(0.0021529 -0.000365074 -1.67375e-18 -0.00109179 -6.97178e-19 0)
(0.0022086 -0.000319139 5.41434e-19 -0.00115228 -1.96231e-19 0)
(0.00225511 -0.000276102 3.66419e-18 -0.00118918 -6.9109e-20 0)
(0.00229872 -0.00023617 1.0358e-18 -0.00123623 8.55109e-19 0)
(0.00233475 -0.000196278 -1.81015e-18 -0.00126222 6.42806e-19 0)
(0.00236626 -0.000161371 -9.18113e-19 -0.00129622 -2.62137e-19 0)
(0.00239298 -0.000124661 -6.44628e-20 -0.00131234 -5.50617e-19 0)
(0.00241322 -9.43318e-05 4.57241e-19 -0.00133422 3.99258e-19 0)
(0.00243306 -6.13171e-05 6.13913e-21 -0.00134249 -2.23539e-21 0)
(0.00244343 -3.58577e-05 -1.05136e-18 -0.00135328 2.21121e-21 0)
(0.00100457 -0.00105917 4.62217e-19 -3.79263e-05 1.84464e-19 -5.69317e-36)
(0.00116621 -0.00093424 -1.75806e-18 -0.000212545 4.97393e-21 0)
(0.00131922 -0.000830793 9.49334e-19 -0.000364742 -4.65493e-19 0)
(0.00144383 -0.000739844 2.58568e-19 -0.000498736 -9.56312e-19 0)
(0.00156375 -0.000667719 2.24592e-19 -0.00061267 2.32746e-18 0)
(0.00166629 -0.000598978 -6.4575e-19 -0.000721318 -4.83966e-19 0)
(0.00176156 -0.000544388 1.01059e-19 -0.000807512 -8.21991e-19 0)
(0.00184706 -0.000490384 0 -0.000896529 0 0)
(0.00192365 -0.000445202 -1.14925e-18 -0.000962275 -9.36416e-19 0)
(0.00199406 -0.000401043 4.04791e-20 -0.00103438 -7.34148e-19 0)
(0.00205576 -0.000361065 1.09886e-18 -0.00108417 1.59426e-18 0)
(0.00211237 -0.000323646 -3.16774e-18 -0.00114129 -6.15229e-19 0)
(0.00216158 -0.000287002 9.75523e-19 -0.00117779 2.25037e-19 0)
(0.00220575 -0.000254465 2.4236e-18 -0.00122175 8.62473e-19 0)
(0.0022444 -0.000220656 9.80941e-19 -0.00124685 8.28033e-19 0)
(0.00227745 -0.000192123 4.10098e-19 -0.00127926 -1.83623e-19 0)
(0.0023073 -0.000161542 4.73738e-19 -0.0012945 3.93073e-19 0)
(0.00233024 -0.000136865 -3.56009e-19 -0.00131646 1.62644e-19 0)
(0.0023533 -0.000110089 5.61847e-19 -0.00132366 9.11584e-19 0)
(0.00236654 -8.91332e-05 1.16669e-19 -0.00133558 5.22668e-19 0)
(0.000799427 -0.000920526 1.06002e-18 1.63266e-05 -7.01283e-19 9.23099e-35)
(0.000989264 -0.000823954 2.44576e-20 -0.00017509 -1.395e-20 0)
(0.00115934 -0.000741596 2.2001e-20 -0.000339479 -1.24993e-20 0)
(0.00130422 -0.000670191 1.77081e-18 -0.000484077 2.49792e-18 0)
(0.00143396 -0.000612179 -6.60298e-19 -0.000604872 -4.84393e-19 0)
(0.00154845 -0.000557669 2.26758e-18 -0.000717532 -1.26202e-18 0)
(0.00164984 -0.000513591 -6.64403e-19 -0.000807746 3.67386e-19 0)
(0.0017418 -0.000470779 -6.46127e-19 -0.000896641 3.53792e-19 0)
(0.00182214 -0.000434124 -1.14581e-18 -0.000964386 -9.22145e-19 0)
(0.00189611 -0.000399457 -1.68895e-18 -0.00103441 9.11499e-19 0)
(0.00195998 -0.000366749 1.04546e-18 -0.0010847 1.70697e-19 0)
(0.0020189 -0.000337933 4.22433e-19 -0.00113915 -1.6564e-18 0)
(0.00206939 -0.000307602 -1.47974e-18 -0.00117516 -6.03406e-19 0)
(0.00211529 -0.000283329 7.86354e-20 -0.00121641 6.39588e-19 0)
(0.0021548 -0.000254909 9.33578e-20 -0.00124036 6.18363e-19 0)
(0.00218912 -0.000234381 -4.91555e-19 -0.00127017 -3.86672e-19 0)
(0.00221996 -0.000208232 3.48488e-19 -0.00128399 -1.92661e-19 0)
(0.00224382 -0.00019045 1.26464e-19 -0.00130378 5.57765e-19 0)
(0.00226842 -0.000168085 -1.2177e-18 -0.00130935 -5.44892e-19 0)
(0.00228216 -0.000151507 -4.39191e-19 -0.00132026 -3.55835e-19 0)
(0.000611614 -0.000762126 -4.24046e-19 4.83851e-05 -1.9305e-19 2.833e-36)
(0.000820834 -0.000696839 -9.91673e-19 -0.000152463 6.50468e-19 0)
(0.00100577 -0.000640868 -1.36491e-18 -0.000323303 2.76414e-18 0)
(0.00116339 -0.000591366 2.21985e-18 -0.000472552 -5.231e-19 0)
(0.00130355 -0.000550056 2.8997e-19 -0.000597478 -1.97977e-18 0)
(0.00142567 -0.00051202 -1.18723e-19 -0.00071092 9.5046e-19 0)
(0.0015342 -0.000479457 1.23197e-18 -0.000803324 6.64595e-20 0)
(0.00163011 -0.000449508 1.22023e-18 -0.000890311 -7.7385e-19 0)
(0.00171561 -0.000421739 5.8589e-19 -0.000958991 4.39491e-19 0)
(0.00179096 -0.000397468 -1.61865e-18 -0.00102541 2.30338e-19 0)
(0.00185915 -0.000372279 -1.1241e-18 -0.00107608 -1.60204e-18 0)
(0.00191773 -0.000352097 5.31965e-19 -0.00112602 4.15354e-19 0)
(0.0019725 -0.000328578 -1.38696e-18 -0.0011624 1.45508e-19 0)
(0.00201714 -0.000311491 -9.15174e-19 -0.00119907 -1.35646e-19 0)
(0.00206114 -0.000289636 2.5046e-19 -0.00122349 -8.63353e-19 0)
(0.00209436 -0.000275022 7.15517e-19 -0.00124969 -4.60273e-19 0)
(0.00212882 -0.000255226 -6.50736e-19 -0.00126311 4.28447e-19 0)
(0.0021535 -0.00024281 3.02363e-19 -0.00128194 -1.9963e-19 0)
(0.00218088 -0.000225923 -1.4369e-19 -0.00128643 -5.52731e-19 0)
(0.00219654 -0.00021319 -9.75222e-19 -0.00129922 3.1565e-20 0)
(0.000451918 -0.000597012 -3.76118e-19 5.37781e-05 -2.18038e-19 -5.65478e-36)
(0.000673574 -0.000564845 -2.06184e-18 -0.000149823 2.54101e-18 0)
(0.000866847 -0.000537312 -1.51454e-18 -0.000323634 1.45042e-19 0)
(0.0010343 -0.000511453 4.72003e-19 -0.000474268 -3.22146e-18 0)
(0.00118002 -0.000490346 6.2473e-19 -0.000600849 4.77299e-19 0)
(0.00130884 -0.000469433 -1.20635e-18 -0.000713686 -9.44735e-19 0)
(0.00142098 -0.000452095 1.33066e-20 -0.000806883 -9.64537e-21 0)
(0.00152116 -0.000434829 -1.15646e-18 -0.00089174 -3.1101e-20 0)
(0.00160887 -0.000419258 2.21835e-18 -0.000960659 9.33381e-19 0)
(0.00168708 -0.000404632 5.07208e-19 -0.00102421 -3.63672e-19 0)
(0.00175643 -0.000389664 -4.54451e-19 -0.00107479 3.26465e-19 0)
(0.00181737 -0.000377118 2.00621e-18 -0.00112182 8.99522e-19 0)
(0.00187253 -0.000362179 -9.63868e-20 -0.00115801 -6.92998e-19 0)
(0.00191959 -0.000351796 -8.63772e-19 -0.00119205 -1.18561e-19 0)
(0.00196369 -0.000336491 -2.15797e-18 -0.00121664 -6.06257e-19 0)
(0.00199902 -0.00032948 -3.40256e-19 -0.00123991 2.49264e-19 0)
(0.00203506 -0.000312998 1.23248e-18 -0.00125547 4.76153e-19 0)
(0.00205991 -0.00030736 -1.35756e-18 -0.00127119 -1.02596e-18 0)
(0.0020905 -0.000293099 8.78278e-19 -0.00127778 6.71322e-19 0)
(0.00210151 -0.000286994 1.74583e-18 -0.00128604 4.70294e-19 0)
(0.000317068 -0.00042025 -1.44659e-18 3.2151e-05 1.86e-18 -7.45868e-34)
(0.000544348 -0.000422465 -2.53676e-19 -0.000167662 1.26025e-18 0)
(0.000742239 -0.000424011 -1.07854e-18 -0.000338222 -2.15865e-18 0)
(0.000914307 -0.000422617 6.23697e-19 -0.000485567 4.77297e-19 0)
(0.00106398 -0.000421791 6.57512e-19 -0.000609793 -5.4664e-19 0)
(0.00119589 -0.000418724 1.36698e-20 -0.000718944 -1.13021e-20 0)
(0.00131128 -0.000415942 -5.98876e-19 -0.000810188 -4.32949e-19 0)
(0.00141302 -0.000411967 4.93573e-20 -0.000890748 8.60894e-19 0)
(0.0015037 -0.000407243 -5.07328e-19 -0.000958115 4.16067e-19 0)
(0.001582 -0.000402688 9.98664e-19 -0.00101668 3.74277e-20 0)
(0.00165474 -0.000396133 -8.67161e-19 -0.00106647 7.13104e-19 0)
(0.00171414 -0.000391183 1.42399e-18 -0.00110763 4.54376e-19 0)
(0.00177425 -0.000383272 1.7514e-18 -0.00114453 1.38715e-19 0)
(0.00181758 -0.000377938 8.33866e-19 -0.00117139 8.01081e-20 0)
(0.00187026 -0.000369964 8.10246e-19 -0.00119967 7.71428e-20 0)
(0.00189867 -0.000363733 -1.3567e-18 -0.00121388 4.15817e-19 0)
(0.00194306 -0.000355907 2.73981e-19 -0.00123356 -2.39505e-19 0)
(0.00196309 -0.000350099 -1.79866e-19 -0.00124019 -5.5939e-19 0)
(0.00200778 -0.000347375 1.56266e-19 -0.00125636 1.28519e-18 0)
(0.00201525 -0.000335177 1.02726e-18 -0.00125776 3.42248e-19 0)
(0.000212545 -0.000248057 3.18716e-19 -1.42096e-05 2.44069e-19 -5.46419e-36)
(0.000438532 -0.000282865 1.88652e-19 -0.000204374 -1.27059e-18 0)
(0.000634248 -0.000313923 -9.75547e-20 -0.000367837 1.1569e-18 0)
(0.000806546 -0.000336424 1.19892e-18 -0.000507939 9.45525e-19 0)
(0.000954966 -0.000357862 1.2356e-18 -0.000627075 -1.44334e-19 0)
(0.00108735 -0.000372147 5.64317e-19 -0.000730012 -5.25218e-19 0)
(0.00120173 -0.000386934 -1.08729e-18 -0.000817434 4.62218e-20 0)
(0.00130382 -0.000395288 -1.01318e-18 -0.000892263 9.34267e-19 0)
(0.00139331 -0.000405429 -7.85361e-20 -0.000956695 -8.35723e-19 0)
(0.00147198 -0.000409043 -6.45069e-19 -0.00100995 -1.1747e-18 0)
(0.00154292 -0.000416266 -2.65504e-19 -0.00105737 1.10427e-18 0)
(0.00160325 -0.000415452 -1.39187e-18 -0.00109404 -3.9312e-19 0)
(0.00166002 -0.000421661 1.6847e-18 -0.0011285 8.09706e-20 0)
(0.00170624 -0.000415599 0 -0.00115293 0 0)
(0.00175176 -0.000423362 -1.09917e-20 -0.00117698 1.02833e-20 0)
(0.00179083 -0.000416277 6.09053e-20 -0.00119096 2.13178e-19 0)
(0.00182423 -0.000422525 -1.0954e-18 -0.00120902 -1.19685e-18 0)
(0.001853 -0.000403911 -3.37831e-20 -0.00121761 7.75382e-19 0)
(0.00188384 -0.000418818 -6.61713e-19 -0.00123157 -6.95068e-20 0)
(0.00191599 -0.000405256 -7.16153e-21 -0.00123201 -7.19044e-19 0)
(0.000136036 -7.39827e-05 0 -8.79574e-05 0 0)
(0.000356271 -0.000140746 -1.24107e-19 -0.000264179 1.27258e-18 0)
(0.00054673 -0.000199582 -1.36884e-18 -0.000415555 1.47533e-18 0)
(0.000715907 -0.000245553 -1.19138e-18 -0.000545437 -8.92339e-19 0)
(0.000861051 -0.000287592 2.27006e-18 -0.000655656 -1.34587e-18 0)
(0.000992006 -0.000319162 1.06818e-18 -0.000750917 -1.12265e-18 0)
(0.00110415 -0.000349564 -1.05536e-20 -0.000831462 1.10042e-20 0)
(0.00120615 -0.000370687 -9.83405e-19 -0.000900595 5.32245e-20 0)
(0.00129382 -0.000393012 4.22452e-19 -0.000959434 -4.37506e-19 0)
(0.00137378 -0.000406165 -3.74799e-19 -0.00100881 3.89353e-19 0)
(0.0014427 -0.000423061 2.85465e-19 -0.0010513 1.4944e-18 0)
(0.0015061 -0.000429779 -1.9931e-18 -0.001086 -1.41528e-18 0)
(0.00155967 -0.000443285 4.849e-19 -0.0011154 3.4571e-19 0)
(0.0016113 -0.000444465 8.6769e-19 -0.00113989 -9.21288e-19 0)
(0.00165062 -0.000455853 -1.19842e-18 -0.00115742 -3.57804e-19 0)
(0.00169539 -0.000452075 -4.47025e-21 -0.00117628 4.87521e-21 0)
(0.00172577 -0.000464781 9.2284e-19 -0.00118519 -2.21224e-19 0)
(0.00176233 -0.000452875 6.5522e-19 -0.00119947 8.20569e-19 0)
(0.0017791 -0.000465242 -6.16988e-19 -0.00119765 -6.25432e-20 0)
(0.00181953 -0.000465946 4.1231e-20 -0.00120026 2.10384e-19 0)
(8.749e-05 8.83783e-05 -9.95809e-19 -0.000182865 6.33397e-19 4.13329e-34)
(0.000295747 -6.90298e-06 -1.08783e-18 -0.00033975 -2.20724e-18 0)
(0.000474696 -9.18723e-05 1.23672e-18 -0.00047506 -1.50906e-18 0)
(0.000636342 -0.000159174 -1.65448e-18 -0.000590753 -2.52805e-19 0)
(0.000773319 -0.000221254 -1.06763e-18 -0.000689092 1.79092e-19 0)
(0.000899598 -0.000268537 1.49976e-18 -0.00077356 -7.12675e-19 0)
(0.00100552 -0.000314543 5.52822e-19 -0.000844984 3.84077e-19 0)
(0.00110488 -0.000346955 -8.32523e-19 -0.000905717 9.75001e-19 0)
(0.0011874 -0.000381664 -5.22461e-19 -0.000957293 -3.68101e-19 0)
(0.00126642 -0.00040259 1.16339e-18 -0.00100008 1.49648e-18 0)
(0.00133076 -0.000429473 6.62193e-19 -0.00103663 -7.69051e-19 0)