/*--------------------------------*- C++ -*----------------------------------*\
| =========                 |                                                 |
| \\      /  F ield         | OpenFOAM: The Open Source CFD Toolbox           |
|  \\    /   O peration     | Version:  v2012                                 |
|   \\  /    A nd           | Website:  www.openfoam.com                      |
|    \\/     M anipulation  |                                                 |
\*---------------------------------------------------------------------------*/
FoamFile
{
    version     2.0;
    format      ascii;
    class       volScalarField;
    location    "11";
    object      epsilonEq;
}
// * * * * * * * * * * * * * * * * * * * * * * * * * * * * * * * * * * * * * //

dimensions      [0 0 0 0 0 0 0];


internalField   nonuniform List<scalar> 
2000
(
0.012338
0.0117127
0.0114452
0.0107129
0.0104297
0.00962589
0.00933341
0.00845136
0.0081687
0.0072184
0.0069672
0.00602305
0.00581512
0.00496341
0.00480329
0.00409401
0.00398236
0.0034229
0.00335707
0.00292726
0.011856
0.010954
0.0107988
0.0097262
0.00967143
0.00842363
0.0084528
0.00708143
0.00717899
0.00586146
0.00598427
0.00487924
0.00498524
0.00414674
0.00422131
0.00362113
0.00366904
0.00325105
0.00327841
0.00300318
0.0109724
0.00954767
0.00958251
0.00793622
0.00814386
0.00636676
0.00669789
0.00510766
0.00546476
0.00428253
0.00458129
0.00380074
0.00401789
0.00352503
0.00367674
0.00335891
0.00346973
0.00324361
0.00334295
0.00311932
0.00935999
0.00728075
0.00752523
0.00537479
0.00578637
0.00406445
0.00449807
0.00344465
0.00378907
0.0032289
0.00347906
0.00317561
0.00336676
0.0031794
0.00333961
0.00318635
0.00333701
0.00315852
0.00330562
0.00310677
0.00688441
0.00440632
0.00476554
0.00307302
0.00342519
0.00270278
0.00293436
0.00266012
0.00283586
0.00269807
0.00286328
0.00277196
0.00293829
0.00284353
0.00301579
0.002883
0.00305872
0.00292568
0.00308125
0.00290861
0.00389698
0.00247568
0.0026496
0.00231625
0.00245454
0.00231184
0.00246285
0.002358
0.00251078
0.00242799
0.00258632
0.00250086
0.00266199
0.00256669
0.00271808
0.00262584
0.00278609
0.00266168
0.00280079
0.002683
0.00225422
0.00204321
0.00216751
0.0020031
0.00217212
0.00205812
0.00223738
0.00215074
0.00232619
0.00225048
0.0024175
0.00234185
0.00249778
0.00241818
0.00256345
0.00247651
0.00260652
0.00251775
0.00263048
0.00254459
0.00182913
0.00163293
0.00181651
0.0016901
0.00190485
0.00182068
0.00202758
0.00196389
0.00215145
0.00209532
0.00226209
0.00220625
0.00235346
0.00229432
0.00242293
0.00236011
0.00247106
0.00240597
0.0025004
0.00243618
0.00133754
0.00121268
0.00145186
0.00138873
0.00163697
0.00159875
0.00181981
0.0017893
0.00197868
0.00194847
0.0021091
0.00207613
0.00221166
0.002175
0.00228864
0.00224797
0.00234306
0.00229745
0.00237903
0.00232702
0.000835334
0.000813548
0.00109803
0.00111664
0.00137723
0.00139404
0.00161191
0.00161904
0.00179929
0.00179644
0.00194609
0.00193489
0.00205957
0.00204212
0.00214592
0.00212356
0.00221027
0.00217986
0.00225808
0.00219832
0.000373328
0.000498725
0.000796876
0.00090343
0.00114259
0.00121469
0.00140484
0.00144924
0.00160107
0.00162406
0.00174531
0.00175206
0.00184736
0.00184293
0.00191292
0.00190479
0.001942
0.00194775
0.00192157
0.00199654
0.000254027
0.000441304
0.000637662
0.000802411
0.000980767
0.00109863
0.00124276
0.0013258
0.00143952
0.00149768
0.00158578
0.00162705
0.00169327
0.00172478
0.0017723
0.00180069
0.00183552
0.00186397
0.00190992
0.00191914
0.000611307
0.000655584
0.000679962
0.000824462
0.000909732
0.0010436
0.00112828
0.00123518
0.0013065
0.00138944
0.00144662
0.00151093
0.0015565
0.00160658
0.0016449
0.00168272
0.00171992
0.00174376
0.00178274
0.00179163
0.000985833
0.000938866
0.000859857
0.000935535
0.000928534
0.00104279
0.00106269
0.00117266
0.00119827
0.00129208
0.00131663
0.00139289
0.00141546
0.0014752
0.001497
0.0015412
0.00156357
0.00159312
0.00161703
0.00163286
0.00132807
0.00121365
0.00108225
0.00108516
0.0010106
0.00108013
0.00104106
0.00113286
0.00111258
0.00120277
0.00119226
0.00127127
0.00126657
0.00133139
0.00133095
0.00138122
0.00138449
0.00142087
0.00142762
0.00145121
0.00162751
0.00145691
0.00129956
0.00123742
0.00112222
0.0011363
0.00105307
0.00110926
0.00104899
0.00112073
0.00107653
0.0011481
0.00111551
0.00117923
0.00115552
0.00120836
0.00119182
0.00123306
0.00122253
0.0012525
0.00187647
0.00165776
0.00149084
0.00137185
0.00123767
0.00119442
0.00108584
0.00109442
0.00100664
0.00104527
0.000974722
0.00102623
0.000970076
0.0010233
0.000979141
0.00102798
0.000993718
0.00103537
0.00100921
0.00104262
0.00206822
0.00181008
0.00164578
0.00147677
0.00134041
0.0012392
0.00112504
0.00107843
0.000981437
0.000973896
0.000891673
0.000908522
0.000839824
0.000869296
0.000812977
0.000846978
0.000801508
0.00083533
0.00079859
0.000829951
0.00219923
0.00191415
0.00176002
0.00152857
0.00141115
0.00125023
0.00115309
0.00104873
0.000965586
0.000903623
0.000831717
0.000800256
0.000738599
0.00072788
0.000676228
0.000678645
0.000636645
0.000647081
0.000613125
0.000629806
0.00229292
0.00185734
0.00178082
0.00149015
0.00142307
0.0012139
0.00115746
0.00100275
0.00095643
0.000840823
0.000803689
0.000716869
0.000688315
0.00062263
0.000602655
0.000552183
0.000541402
0.00050183
0.000501315
0.000470826
0.000519787
0.000392682
0.000626702
0.000497732
0.00083065
0.000671672
0.00105982
0.000865784
0.00129014
0.00106128
0.00151094
0.00125032
0.00171566
0.00142883
0.00189863
0.00159419
0.00205307
0.00174442
0.00216712
0.00187782
0.000435396
0.000373584
0.000566955
0.000490963
0.000770731
0.000663931
0.000995351
0.000852174
0.00122058
0.0010394
0.00143722
0.00121838
0.00163965
0.00138518
0.00182316
0.00153707
0.00198231
0.00167129
0.00210814
0.0017837
0.000415709
0.000389979
0.00053974
0.00050132
0.000727205
0.000661791
0.000936027
0.00083742
0.00114764
0.001013
0.00135335
0.00118135
0.00154807
0.00133855
0.00172791
0.00148203
0.00188875
0.00160945
0.00202439
0.00171757
0.000432469
0.000426354
0.000537118
0.000523934
0.000701114
0.000666858
0.000888835
0.000826608
0.00108254
0.00098866
0.00127351
0.00114566
0.00145681
0.00129355
0.00162905
0.00142982
0.0017871
0.00155251
0.00192674
0.00165927
0.000469597
0.000473924
0.000553134
0.000556071
0.00069175
0.000679974
0.000856358
0.000822458
0.00103022
0.000969948
0.00120448
0.00111498
0.00137414
0.00125332
0.00153605
0.00138242
0.00168772
0.00150056
0.00182631
0.00160607
0.000517635
0.000527531
0.000582708
0.00059536
0.000697184
0.00070085
0.000838696
0.000825924
0.000992196
0.000958432
0.00114892
0.00109105
0.00130378
0.00121943
0.00145367
0.00134097
0.00159647
0.00145405
0.00173024
0.00155744
0.000571115
0.000583958
0.000621474
0.000639533
0.000714703
0.000728328
0.000834491
0.000836737
0.000968088
0.000954381
0.00110723
0.00107439
0.00124683
0.00119243
0.00138378
0.00130586
0.00151613
0.00141309
0.00164245
0.00151314
0.000626781
0.000641042
0.000665874
0.000686509
0.000741296
0.000760771
0.000841562
0.000853837
0.000956431
0.000957195
0.00107851
0.00106468
0.00120291
0.00117215
0.00132656
0.00127696
0.00144755
0.00137753
0.00156469
0.00147296
0.000682536
0.000697202
0.000713125
0.000734457
0.000774048
0.000796371
0.000857361
0.000875709
0.000955158
0.00096571
0.00106113
0.00106105
0.00117081
0.00115791
0.00128119
0.00125374
0.00139042
0.00134695
0.00149738
0.00143667
0.000736877
0.000751178
0.000761055
0.000781783
0.000810348
0.000833339
0.000879284
0.000900639
0.000961912
0.000978425
0.00105307
0.00106224
0.00114879
0.00114869
0.00124629
0.00123538
0.00134375
0.00132075
0.00144006
0.00140389
0.000788606
0.00080188
0.000807923
0.000827083
0.000847939
0.000869994
0.000904861
0.000926869
0.000974272
0.000993675
0.00105205
0.00106677
0.00113484
0.00114322
0.0012201
0.00122082
0.0013061
0.00129808
0.00139175
0.00137408
0.00083666
0.000848291
0.000852263
0.000869074
0.000884872
0.000904769
0.000931831
0.00095268
0.000989882
0.00100974
0.0010558
0.00107302
0.0011268
0.00114003
0.00120066
0.00120881
0.00127577
0.00127794
0.00135105
0.00134651
0.00088002
0.000889391
0.000892758
0.000906525
0.000919423
0.00093618
0.000958141
0.000976412
0.00100651
0.00102491
0.00106205
0.00107933
0.00112248
0.0011376
0.00118591
0.00119799
0.00125089
0.0012592
0.00131635
0.00132031
0.000917634
0.000924102
0.000928135
0.00093819
0.000949994
0.000962761
0.00098189
0.000996436
0.00102207
0.00103747
0.00106862
0.00108403
0.00111972
0.00113436
0.00117379
0.00118698
0.00122951
0.00124069
0.00128592
0.00129458
0.000948357
0.000951216
0.000957077
0.000962716
0.000975004
0.000982988
0.00100124
0.00101109
0.00103452
0.00104573
0.00107341
0.00108545
0.00111644
0.00112879
0.00116228
0.00117443
0.00120978
0.00122127
0.00125805
0.00126845
0.000970896
0.000969323
0.000978119
0.000978537
0.000992757
0.000995148
0.00101429
0.0010186
0.00104186
0.00104794
0.00107438
0.00108197
0.00111065
0.00111941
0.00114952
0.00115908
0.00118999
0.00119999
0.00123124
0.00124128
0.000983761
0.000976715
0.000989518
0.000983704
0.00100127
0.000997192
0.00101892
0.00101699
0.00104197
0.00104229
0.00106953
0.00107197
0.00110051
0.00110487
0.00113389
0.00113994
0.00116877
0.00117621
0.0012044
0.0012129
0.000985286
0.000971202
0.000989047
0.000975547
0.000997978
0.000986576
0.00101263
0.00100421
0.00103267
0.00102703
0.00105694
0.00105399
0.00108439
0.00108409
0.00111411
0.00111637
0.00114527
0.0011499
0.00117714
0.00118388
0.000973781
0.000949407
0.000973394
0.000949918
0.000979182
0.000961257
0.000992928
0.000978511
0.00101189
0.00100061
0.00103487
0.00102683
0.00106101
0.00105642
0.0010895
0.00108849
0.00111951
0.00112205
0.00115026
0.00115612
0.000947875
0.000900059
0.000934488
0.000907946
0.000943157
0.000920656
0.000958062
0.00093868
0.000977827
0.000961906
0.0010019
0.000989943
0.00102968
0.0010222
0.00106041
0.00105791
0.0010932
0.001096
0.00112695
0.0011343
0.00224182
0.00211488
0.00227579
0.00217521
0.00230194
0.00222197
0.00232389
0.0022597
0.00234311
0.00229096
0.0023602
0.00231735
0.00237544
0.00233999
0.00238906
0.00235978
0.00240127
0.00237752
0.0024124
0.00239401
0.00242292
0.00241013
0.00243351
0.00242689
0.00244507
0.00244547
0.0024588
0.00246724
0.00247619
0.00249378
0.00249902
0.00252684
0.00252936
0.00256828
0.0025695
0.00261993
0.00262179
0.00268306
0.00268829
0.00275804
0.00205015
0.00198004
0.00210133
0.00203265
0.00214412
0.00207974
0.00218006
0.00212126
0.00221065
0.00215789
0.00223717
0.00219055
0.00226064
0.00222014
0.00228195
0.00224755
0.00230189
0.00227364
0.00232124
0.00229929
0.00234078
0.00232542
0.0023614
0.00235302
0.00238407
0.00238314
0.00240991
0.00241696
0.00244015
0.00245573
0.0024762
0.00250081
0.00251955
0.00255369
0.00257182
0.00261601
0.00263466
0.00268991
0.00271077
0.00278422
0.00195164
0.00188356
0.00199382
0.00192858
0.00203284
0.00197127
0.00206843
0.00201126
0.00210086
0.00204863
0.00213064
0.00208372
0.00215838
0.00211703
0.00218475
0.00214918
0.00221043
0.00218082
0.00223611
0.00221268
0.00226255
0.00224552
0.00229053
0.00228016
0.0023209
0.00231745
0.00235454
0.00235831
0.00239244
0.0024037
0.00243561
0.00245463
0.00248517
0.00251215
0.00254225
0.00257733
0.00260813
0.0026511
0.00268869
0.00273154
0.00186904
0.00179988
0.00190664
0.00184165
0.0019426
0.00188189
0.00197676
0.00192057
0.00200922
0.00195779
0.00204021
0.00199377
0.00207011
0.00202886
0.00209937
0.00206346
0.00212848
0.00209808
0.00215801
0.00213325
0.00218854
0.00216955
0.00222069
0.00220762
0.00225514
0.00224811
0.00229256
0.00229169
0.00233368
0.00233908
0.00237925
0.00239099
0.00243003
0.00244813
0.00248676
0.00251116
0.00255015
0.0025807
0.00262034
0.00265859
0.0017918
0.00172505
0.001828
0.00176551
0.00186287
0.00180465
0.00189647
0.00184259
0.00192896
0.00187953
0.00196053
0.00191567
0.00199147
0.0019513
0.00202212
0.00198673
0.00205285
0.00202233
0.00208408
0.00205852
0.00211626
0.00209572
0.00214987
0.00213441
0.0021854
0.00217507
0.00222337
0.00221822
0.00226433
0.00226436
0.0023088
0.00231404
0.00235735
0.00236779
0.00241052
0.00242619
0.00246889
0.00248989
0.00253334
0.00255942
0.00171916
0.00165815
0.00175514
0.00169779
0.00178978
0.00173617
0.00182327
0.00177346
0.00185578
0.00180985
0.00188752
0.00184555
0.00191874
0.00188081
0.0019497
0.00191586
0.00198069
0.00195101
0.00201205
0.00198656
0.0020441
0.00202284
0.00207722
0.0020602
0.00211178
0.002099
0.00214817
0.00213962
0.0021868
0.00218246
0.00222808
0.00222792
0.00227245
0.00227641
0.00232034
0.00232835
0.00237223
0.00238415
0.00242858
0.00244425
0.00165168
0.00159852
0.0016875
0.00163717
0.00172194
0.00167458
0.0017552
0.0017109
0.00178746
0.0017463
0.0018189
0.00178097
0.00184972
0.0018151
0.00188015
0.00184889
0.00191043
0.00188255
0.00194079
0.00191634
0.00197151
0.00195048
0.00200287
0.00198525
0.00203514
0.00202091
0.00206864
0.00205776
0.00210368
0.00209607
0.00214057
0.00213615
0.00217966
0.00217831
0.00222128
0.00222286
0.0022658
0.00227012
0.00231357
0.00232041
0.00158984
0.00154545
0.00162507
0.00158268
0.00165892
0.00161868
0.00169153
0.00165357
0.00172306
0.00168749
0.00175365
0.00172057
0.00178349
0.00175296
0.00181273
0.00178481
0.00184157
0.00181629
0.00187019
0.00184757
0.00189881
0.00187884
0.00192762
0.00191028
0.00195685
0.00194208
0.00198674
0.00197447
0.00201751
0.00200765
0.00204944
0.00204185
0.00208277
0.00207729
0.00211779
0.00211423
0.00215478
0.0021529
0.00219405
0.00219357
0.00153386
0.00149826
0.00156793
0.00153357
0.00160062
0.00156768
0.00163204
0.00160066
0.00166232
0.00163262
0.00169156
0.00166364
0.00171988
0.00169382
0.00174743
0.00172328
0.00177433
0.00175213
0.00180073
0.00178048
0.00182677
0.00180846
0.00185262
0.0018362
0.00187844
0.00186384
0.0019044
0.00189153
0.00193068
0.00191942
0.00195749
0.00194767
0.00198504
0.00197646
0.00201354
0.00200597
0.00204324
0.0020364
0.00207439
0.00206796
0.00148368
0.00145619
0.00151598
0.00148913
0.00154697
0.00152092
0.0015767
0.00155159
0.00160524
0.00158121
0.00163268
0.00160982
0.00165909
0.00163748
0.00168457
0.00166426
0.00170921
0.00169022
0.0017331
0.00171545
0.00175636
0.00174
0.00177907
0.00176397
0.00180138
0.00178743
0.00182339
0.00181049
0.00184524
0.00183323
0.00186708
0.00185578
0.00188908
0.00187826
0.00191141
0.00190079
0.00193427
0.00192355
0.00195788
0.00194669
0.00143892
0.00141843
0.00146897
0.00144865
0.00149778
0.00147778
0.00152538
0.00150585
0.00155181
0.00153286
0.00157712
0.00155884
0.00160134
0.0015838
0.00162453
0.00160778
0.00164673
0.0016308
0.00166801
0.00165288
0.00168843
0.00167407
0.00170805
0.00169439
0.00172694
0.00171389
0.00174518
0.00173259
0.00176285
0.00175056
0.00178006
0.00176785
0.00179692
0.00178453
0.00181358
0.00180071
0.00183018
0.00181649
0.00184692
0.00183201
0.00139891
0.00138404
0.00142633
0.00141131
0.00145263
0.0014376
0.00147781
0.00146288
0.00150188
0.00148716
0.00152484
0.00151042
0.00154672
0.00153265
0.00156752
0.00155384
0.00158727
0.001574
0.00160598
0.0015931
0.00162367
0.00161115
0.00164037
0.00162812
0.00165611
0.00164401
0.0016709
0.00165881
0.0016848
0.00167252
0.00169785
0.00168514
0.00171012
0.0016967
0.00172169
0.00170724
0.00173269
0.00171681
0.00174325
0.00172552
0.00136274
0.00135202
0.00138732
0.00137626
0.00141091
0.00139963
0.00143351
0.0014221
0.00145509
0.00144364
0.00147565
0.00146422
0.00149516
0.00148381
0.00151361
0.00150238
0.001531
0.00151989
0.00154731
0.00153629
0.00156252
0.00155154
0.00157662
0.00156559
0.00158958
0.00157839
0.00160139
0.00158986
0.00161203
0.00159997
0.00162151
0.00160864
0.00162983
0.00161584
0.00163701
0.00162154
0.00164311
0.00162574
0.00164823
0.00162848
0.00132932
0.00132137
0.001351
0.00134263
0.00137186
0.00136317
0.00139187
0.00138292
0.00141099
0.00140186
0.00142919
0.00141993
0.00144644
0.00143709
0.00146271
0.0014533
0.00147796
0.00146848
0.00149216
0.00148257
0.00150524
0.00149549
0.00151715
0.00150716
0.00152784
0.00151747
0.00153724
0.00152631
0.00154527
0.00153357
0.00155186
0.00153911
0.00155697
0.00154283
0.00156052
0.0015446
0.00156251
0.00154433
0.00156294
0.00154198
0.00129758
0.0012912
0.00131648
0.00130971
0.00133472
0.00132763
0.00135227
0.00134492
0.00136909
0.00136151
0.00138513
0.00137737
0.00140035
0.00139243
0.00141471
0.00140663
0.00142815
0.0014199
0.00144061
0.00143215
0.00145201
0.00144328
0.00146226
0.00145317
0.00147127
0.00146169
0.00147891
0.00146867
0.00148505
0.00147392
0.00148957
0.00147726
0.00149231
0.00147847
0.00149312
0.00147733
0.00149189
0.00147362
0.00148849
0.00146715
0.0012666
0.00126095
0.001283
0.00127712
0.00129893
0.00129284
0.00131433
0.00130806
0.00132916
0.00132273
0.00134337
0.00133678
0.00135691
0.00135017
0.00136974
0.00136283
0.00138177
0.00137466
0.00139294
0.00138559
0.00140316
0.0013955
0.00141231
0.00140425
0.00142027
0.00141167
0.00142687
0.00141758
0.00143194
0.00142173
0.00143526
0.00142385
0.00143659
0.00142364
0.00143568
0.00142074
0.00143226
0.00141478
0.00142606
0.00140538
0.00123589
0.00123063
0.00125033
0.00124513
0.00126446
0.0012593
0.00127821
0.00127309
0.00129155
0.00128644
0.00130441
0.00129927
0.00131674
0.00131153
0.00132848
0.00132317
0.00133958
0.00133409
0.00134994
0.00134422
0.00135949
0.00135344
0.00136809
0.00136163
0.00137561
0.0013686
0.00138186
0.00137416
0.00138663
0.00137803
0.00138965
0.00137989
0.0013906
0.00137936
0.00138911
0.00137598
0.00138475
0.00136919
0.00137705
0.00135839
0.00120573
0.0012012
0.00121908
0.00121511
0.00123224
0.00122878
0.00124515
0.00124209
0.00125772
0.00125497
0.00126989
0.00126734
0.0012816
0.00127918
0.00129281
0.00129042
0.00130346
0.00130099
0.00131348
0.00131083
0.0013228
0.00131985
0.00133129
0.00132791
0.00133884
0.00133488
0.00134527
0.00134057
0.00135035
0.00134472
0.0013538
0.00134704
0.00135528
0.00134711
0.00135435
0.00134445
0.00135046
0.0013384
0.00134295
0.00132816
0.00117763
0.0011752
0.00119134
0.00119039
0.00120494
0.00120503
0.00121816
0.00121914
0.00123096
0.0012327
0.0012433
0.0012457
0.00125516
0.00125808
0.0012665
0.00126977
0.00127727
0.00128072
0.0012874
0.00129083
0.00129684
0.00130004
0.0013055
0.00130823
0.00131326
0.0013153
0.00132
0.00132112
0.00132555
0.00132553
0.00132968
0.0013283
0.00133211
0.00132919
0.00133247
0.00132781
0.00133025
0.0013237
0.0013248
0.00131618
0.00115519
0.00115873
0.00117218
0.00117667
0.00118783
0.00119396
0.00120272
0.00121069
0.00121705
0.00122681
0.00123081
0.00124221
0.00124395
0.00125677
0.00125642
0.00127035
0.00126811
0.00128284
0.00127896
0.0012941
0.00128887
0.00130401
0.00129777
0.00131245
0.00130556
0.00131932
0.00131218
0.00132453
0.00131753
0.001328
0.00132152
0.00132968
0.00132405
0.00132955
0.00132499
0.00132767
0.0013242
0.00132416
0.00132151
0.00131942
0.0028744
0.0027605
0.00270356
0.00262587
0.00257837
0.0024974
0.00246636
0.00239647
0.00236889
0.0023052
0.00228105
0.00221832
0.00219916
0.00213513
0.00212113
0.00205472
0.00204542
0.00197545
0.00197049
0.00189587
0.00189489
0.00181455
0.00181722
0.00173004
0.00173606
0.00164082
0.00164994
0.00154531
0.00155733
0.0014418
0.00145655
0.00132845
0.00134577
0.00120331
0.00122294
0.00106445
0.00108575
0.00091058
0.000931735
0.00074329
0.0030115
0.00292605
0.00291007
0.00279857
0.00278571
0.00270852
0.00269351
0.00261498
0.00260515
0.00250475
0.00251321
0.00240747
0.00242243
0.00231987
0.00233466
0.00223164
0.00224833
0.00214385
0.00216242
0.00205547
0.00207575
0.00196521
0.00198696
0.00187177
0.00189459
0.00177385
0.00179703
0.00167017
0.00169254
0.00155954
0.00157919
0.00144099
0.0014548
0.00131402
0.00131695
0.00117925
0.00116295
0.00103962
0.000990135
0.00090291
0.00317652
0.00308244
0.00309159
0.00300487
0.00302985
0.00290486
0.00294295
0.00278434
0.00282628
0.00270937
0.00273224
0.00262092
0.00264882
0.00251499
0.00255876
0.00242817
0.00246869
0.00234314
0.00237847
0.00225621
0.00228682
0.00216634
0.00219251
0.00207263
0.00209429
0.00197428
0.00199091
0.00187059
0.00188111
0.00176104
0.00176361
0.00164542
0.00163726
0.00152407
0.00150116
0.00139828
0.00135501
0.00127094
0.00119974
0.00114754
0.00321378
0.00308684
0.00317378
0.0030379
0.00311066
0.00297632
0.00302457
0.00291528
0.00297612
0.00281806
0.00289305
0.00273309
0.00278989
0.0026642
0.00271229
0.00258101
0.00263245
0.00251091
0.00254985
0.00243548
0.0024637
0.00235488
0.0023734
0.00226916
0.0022784
0.00217831
0.0021782
0.00208237
0.00207235
0.00198153
0.00196053
0.00187626
0.00184266
0.0017676
0.00171911
0.00165747
0.00159104
0.00154932
0.00146094
0.00144904
0.00305037
0.00292414
0.00304269
0.00291573
0.00302014
0.00289263
0.00299113
0.00284926
0.00292758
0.00280239
0.00287624
0.00275155
0.00282883
0.00270996
0.00276328
0.00266349
0.00271039
0.00261319
0.00264795
0.00255504
0.00257767
0.00249005
0.00250065
0.002419
0.00241762
0.00234256
0.00232917
0.00226141
0.00223586
0.0021764
0.00213841
0.0020887
0.00203788
0.00200004
0.00193599
0.00191306
0.00183554
0.0018317
0.00174105
0.0017618
0.00281987
0.0027081
0.00283329
0.00271869
0.00283308
0.00272209
0.00281698
0.00272109
0.00279801
0.00271637
0.00277805
0.00270827
0.002768
0.00269282
0.00274505
0.00267074
0.00271544
0.00264019
0.00267438
0.00260184
0.00262384
0.00255646
0.00256545
0.00250492
0.00250056
0.00244816
0.00243045
0.00238727
0.00235647
0.00232359
0.00228017
0.00225881
0.0022036
0.00219522
0.00212952
0.00213589
0.00206177
0.00208495
0.00200569
0.00204788
0.00264719
0.00257124
0.00266622
0.00259461
0.00268003
0.00261341
0.00268946
0.0026278
0.00269552
0.00263769
0.00269878
0.00264256
0.00269789
0.00264166
0.00269078
0.00263428
0.00267518
0.0026202
0.00265099
0.00259955
0.00261882
0.00257283
0.00257967
0.00254075
0.00253479
0.0025043
0.00248564
0.00246476
0.00243393
0.0024237
0.00238174
0.00238312
0.00233168
0.00234557
0.00228702
0.00231422
0.00225194
0.00229304
0.00223165
0.00228681
0.0025294
0.00246401
0.00255511
0.00249583
0.00257641
0.00252225
0.00259352
0.00254378
0.00260671
0.00256067
0.00261609
0.00257296
0.00262133
0.00258051
0.00262162
0.0025831
0.00261613
0.00258063
0.00260452
0.00257321
0.00258699
0.00256121
0.00256421
0.00254526
0.00253724
0.00252636
0.00250752
0.0025058
0.00247691
0.00248526
0.00244768
0.00246687
0.00242265
0.00245323
0.00240523
0.00244746
0.00239951
0.00245319
0.00241016
0.00247442
0.00241834
0.00236043
0.00245228
0.00240196
0.0024807
0.00243535
0.00250388
0.0024625
0.00252226
0.00248451
0.00253624
0.00250203
0.00254608
0.00251543
0.00255176
0.0025249
0.00255315
0.00253061
0.00255027
0.00253282
0.00254336
0.00253196
0.00253307
0.00252868
0.00252037
0.00252396
0.00250669
0.00251911
0.00249386
0.00251586
0.00248419
0.00251633
0.00248051
0.00252314
0.00248619
0.00253941
0.00250516
0.00256867
0.00254181
0.00261461
0.00230359
0.00230017
0.00235515
0.00233867
0.00239378
0.00236862
0.00242294
0.0023935
0.00244509
0.00241477
0.00246189
0.00243306
0.00247442
0.0024487
0.00248337
0.00246189
0.00248914
0.00247284
0.00249212
0.00248183
0.00249275
0.0024893
0.00249172
0.00249594
0.00249004
0.0025027
0.00248908
0.00251085
0.00249059
0.00252205
0.00249681
0.00253835
0.00251042
0.00256224
0.00253462
0.00259675
0.00257317
0.0026458
0.00263082
0.00271543
)
;

boundaryField
{
    back
    {
        type            empty;
    }
    front
    {
        type            empty;
    }
    left
    {
        type            calculated;
        value           nonuniform List<scalar> 
30
(
0.012338
0.0114452
0.0104297
0.00933341
0.0081687
0.0069672
0.00581512
0.00480329
0.00398236
0.00335707
0.0028744
0.00270356
0.00257837
0.00246636
0.00236889
0.00228105
0.00219916
0.00212113
0.00204542
0.00197049
0.00189489
0.00181722
0.00173606
0.00164994
0.00155733
0.00145655
0.00134577
0.00122294
0.00108575
0.000931735
)
;
    }
    hole
    {
        type            calculated;
        value           nonuniform List<scalar> 
20
(
0.012338
0.011856
0.0109724
0.00935999
0.00688441
0.00389698
0.00225422
0.00182913
0.00133754
0.000835334
0.000373328
0.000254027
0.000611307
0.000985833
0.00132807
0.00162751
0.00187647
0.00206822
0.00219923
0.00229292
)
;
    }
    down
    {
        type            calculated;
        value           nonuniform List<scalar> 
30
(
0.00185734
0.00149015
0.0012139
0.00100275
0.000840823
0.000716869
0.00062263
0.000552183
0.00050183
0.000470826
0.000519787
0.000435396
0.000415709
0.000432469
0.000469597
0.000517635
0.000571115
0.000626781
0.000682536
0.000736877
0.000788606
0.00083666
0.00088002
0.000917634
0.000948357
0.000970896
0.000983761
0.000985286
0.000973781
0.000947875
)
;
    }
    right
    {
        type            calculated;
        value           nonuniform List<scalar> 
30
(
0.000900059
0.000907946
0.000920656
0.00093868
0.000961906
0.000989943
0.0010222
0.00105791
0.001096
0.0011343
0.00115873
0.00117667
0.00119396
0.00121069
0.00122681
0.00124221
0.00125677
0.00127035
0.00128284
0.0012941
0.00130401
0.00131245
0.00131932
0.00132453
0.001328
0.00132968
0.00132955
0.00132767
0.00132416
0.00131942
)
;
    }
    up
    {
        type            calculated;
        value           nonuniform List<scalar> 
30
(
0.00275804
0.00278422
0.00273154
0.00265859
0.00255942
0.00244425
0.00232041
0.00219357
0.00206796
0.00194669
0.00183201
0.00172552
0.00162848
0.00154198
0.00146715
0.00140538
0.00135839
0.00132816
0.00131618
0.00131942
0.00074329
0.00090291
0.00114754
0.00144904
0.0017618
0.00204788
0.00228681
0.00247442
0.00261461
0.00271543
)
;
    }
}


// ************************************************************************* //
