/*--------------------------------*- C++ -*----------------------------------*\
| =========                 |                                                 |
| \\      /  F ield         | OpenFOAM: The Open Source CFD Toolbox           |
|  \\    /   O peration     | Version:  v2012                                 |
|   \\  /    A nd           | Website:  www.openfoam.com                      |
|    \\/     M anipulation  |                                                 |
\*---------------------------------------------------------------------------*/
FoamFile
{
    version     2.0;
    format      ascii;
    class       volScalarField;
    location    "11";
    object      sigmaHyd;
}
// * * * * * * * * * * * * * * * * * * * * * * * * * * * * * * * * * * * * * //

dimensions      [1 -1 -2 0 0 0 0];


internalField   nonuniform List<scalar> 
2000
(
1.22586e+08
1.14839e+08
1.41334e+08
1.30016e+08
1.58335e+08
1.43302e+08
1.73162e+08
1.55573e+08
1.85374e+08
1.65978e+08
1.94106e+08
1.71859e+08
1.98121e+08
1.71775e+08
1.96544e+08
1.66551e+08
1.89715e+08
1.58225e+08
1.78949e+08
1.48727e+08
1.27202e+08
1.20676e+08
1.36829e+08
1.41063e+08
1.46764e+08
1.58224e+08
1.55413e+08
1.71337e+08
1.62252e+08
1.7656e+08
1.6759e+08
1.72817e+08
1.70894e+08
1.63319e+08
1.71456e+08
1.5195e+08
1.69203e+08
1.41195e+08
1.64818e+08
1.32326e+08
1.23109e+08
1.30353e+08
1.2759e+08
1.52773e+08
1.31863e+08
1.68902e+08
1.35283e+08
1.72889e+08
1.38783e+08
1.65281e+08
1.42236e+08
1.53171e+08
1.44845e+08
1.41513e+08
1.46099e+08
1.31752e+08
1.45877e+08
1.23967e+08
1.43844e+08
1.17481e+08
1.13623e+08
1.38711e+08
1.14474e+08
1.56715e+08
1.14619e+08
1.58245e+08
1.15737e+08
1.47101e+08
1.17999e+08
1.3597e+08
1.20411e+08
1.27698e+08
1.22189e+08
1.21058e+08
1.23189e+08
1.15319e+08
1.23195e+08
1.09967e+08
1.22367e+08
1.04693e+08
1.01513e+08
1.36994e+08
9.95774e+07
1.32084e+08
9.86178e+07
1.16696e+08
1.00264e+08
1.10393e+08
1.01723e+08
1.08149e+08
1.02331e+08
1.06513e+08
1.02701e+08
1.04369e+08
1.02811e+08
1.01123e+08
1.02503e+08
9.72405e+07
1.02566e+08
9.35929e+07
8.90396e+07
1.07067e+08
9.23414e+07
9.86484e+07
9.38857e+07
9.61837e+07
9.3692e+07
9.41495e+07
9.34881e+07
9.25114e+07
9.30532e+07
9.08241e+07
9.22841e+07
8.91191e+07
9.16427e+07
8.77993e+07
9.0784e+07
8.57193e+07
9.01172e+07
8.40913e+07
8.68381e+07
8.7291e+07
8.55132e+07
8.44417e+07
8.36344e+07
8.24267e+07
8.3012e+07
8.08408e+07
8.28977e+07
7.95013e+07
8.31272e+07
7.82854e+07
8.34919e+07
7.71913e+07
8.37117e+07
7.61789e+07
8.39313e+07
7.53973e+07
8.40632e+07
7.49233e+07
6.91705e+07
7.20107e+07
6.91829e+07
6.95453e+07
6.95637e+07
6.80189e+07
7.0334e+07
6.70595e+07
7.13424e+07
6.64517e+07
7.25004e+07
6.60655e+07
7.37048e+07
6.58272e+07
7.49125e+07
6.57211e+07
7.60498e+07
6.57629e+07
7.70983e+07
6.60095e+07
4.77186e+07
5.52909e+07
5.09681e+07
5.37256e+07
5.37751e+07
5.31234e+07
5.63297e+07
5.31113e+07
5.87173e+07
5.34775e+07
6.09787e+07
5.40895e+07
6.31275e+07
5.48557e+07
6.51561e+07
5.56904e+07
6.70359e+07
5.64969e+07
6.87045e+07
5.72102e+07
2.52831e+07
3.79559e+07
3.18132e+07
3.76528e+07
3.70619e+07
3.81737e+07
4.14939e+07
3.92458e+07
4.53586e+07
4.07256e+07
4.87955e+07
4.25441e+07
5.1881e+07
4.46744e+07
5.46533e+07
4.70889e+07
5.71074e+07
4.96469e+07
5.91043e+07
5.16976e+07
3.73629e+06
2.08091e+07
1.29141e+07
2.16735e+07
2.0386e+07
2.30885e+07
2.67292e+07
2.48556e+07
3.2307e+07
2.68413e+07
3.73757e+07
2.89638e+07
4.21483e+07
3.11918e+07
4.68576e+07
3.35853e+07
5.18838e+07
3.64681e+07
5.8141e+07
4.10817e+07
-1.62112e+07
4.68718e+06
-5.32025e+06
6.76269e+06
3.70395e+06
9.22123e+06
1.13564e+07
1.19244e+07
1.79829e+07
1.47775e+07
2.38257e+07
1.77275e+07
2.90494e+07
2.07582e+07
3.37312e+07
2.38741e+07
3.77548e+07
2.70023e+07
4.03481e+07
2.94897e+07
-3.44864e+07
-1.03136e+07
-2.23032e+07
-7.11888e+06
-1.20848e+07
-3.66879e+06
-3.39848e+06
-85045.8
4.07617e+06
3.54564e+06
1.05664e+07
7.16049e+06
1.62206e+07
1.07022e+07
2.11179e+07
1.40903e+07
2.53123e+07
1.7199e+07
2.91099e+07
2.00143e+07
-5.10284e+07
-2.40973e+07
-3.77645e+07
-1.98791e+07
-2.65634e+07
-1.55189e+07
-1.7009e+07
-1.11402e+07
-8.78319e+06
-6.82926e+06
-1.64693e+06
-2.65043e+06
4.58215e+06
1.34274e+06
1.00575e+07
5.10638e+06
1.49349e+07
8.62418e+06
1.93214e+07
1.18964e+07
-6.56957e+07
-3.65394e+07
-5.14928e+07
-3.13702e+07
-3.94563e+07
-2.61725e+07
-2.9152e+07
-2.10675e+07
-2.02471e+07
-1.61304e+07
-1.24841e+07
-1.14078e+07
-5.65908e+06
-6.92783e+06
393275
-2.70357e+06
5.8021e+06
1.2626e+06
1.06674e+07
4.97702e+06
-7.82583e+07
-4.74753e+07
-6.32856e+07
-4.14083e+07
-5.05652e+07
-3.54406e+07
-3.96349e+07
-2.96736e+07
-3.01472e+07
-2.41559e+07
-2.18377e+07
-1.89073e+07
-1.4502e+07
-1.39401e+07
-7.9778e+06
-9.25906e+06
-2.13531e+06
-4.86245e+06
3.12855e+06
-744099
-8.84349e+07
-5.67318e+07
-7.29535e+07
-4.98217e+07
-5.97438e+07
-4.31804e+07
-4.83304e+07
-3.6847e+07
-3.83706e+07
-3.07949e+07
-2.96229e+07
-2.50456e+07
-2.18882e+07
-1.96144e+07
-1.50005e+07
-1.45024e+07
-8.82261e+06
-9.70304e+06
-3.24224e+06
-5.21201e+06
-9.59539e+07
-6.41814e+07
-8.03776e+07
-5.65501e+07
-6.69066e+07
-4.94888e+07
-5.50973e+07
-4.25912e+07
-4.47785e+07
-3.5988e+07
-3.57214e+07
-2.97508e+07
-2.77152e+07
-2.38924e+07
-2.05852e+07
-1.8395e+07
-1.41854e+07
-1.32264e+07
-8.388e+06
-8.3602e+06
-1.0075e+08
-6.98074e+07
-8.57335e+07
-6.2669e+07
-7.17724e+07
-5.45941e+07
-5.97035e+07
-4.68331e+07
-4.92217e+07
-3.96037e+07
-4.00245e+07
-3.29141e+07
-3.18855e+07
-2.67204e+07
-2.46349e+07
-2.09576e+07
-1.81384e+07
-1.55314e+07
-1.22688e+07
-1.02708e+07
-1.04904e+08
-8.10238e+07
-8.75402e+07
-6.83284e+07
-7.38326e+07
-5.79843e+07
-6.20627e+07
-4.91171e+07
-5.17246e+07
-4.13045e+07
-4.25587e+07
-3.43192e+07
-3.43825e+07
-2.80302e+07
-2.70579e+07
-2.23619e+07
-2.04947e+07
-1.7279e+07
-1.46836e+07
-1.27907e+07
-7.16515e+06
2.67381e+06
-9.28687e+06
6.03706e+06
-9.43565e+06
1.09111e+07
-8.4396e+06
1.70144e+07
-6.38312e+06
2.41595e+07
-3.25726e+06
3.21377e+07
989194
4.07026e+07
6.47772e+06
4.95662e+07
1.34964e+07
5.84083e+07
2.28606e+07
6.68992e+07
4.22018e+06
1.13538e+07
2.91196e+06
1.40102e+07
2.36775e+06
1.79225e+07
2.57928e+06
2.28889e+07
3.51401e+06
2.87701e+07
5.17394e+06
3.54208e+07
7.59195e+06
4.26702e+07
1.0843e+07
5.03136e+07
1.50831e+07
5.81009e+07
2.06988e+07
6.57046e+07
1.37263e+07
1.84919e+07
1.27453e+07
2.06603e+07
1.21541e+07
2.38063e+07
1.20469e+07
2.78265e+07
1.24329e+07
3.26331e+07
1.33168e+07
3.81319e+07
1.47162e+07
4.42093e+07
1.66735e+07
5.07239e+07
1.92787e+07
5.74962e+07
2.27451e+07
6.42865e+07
2.15941e+07
2.45408e+07
2.07915e+07
2.63159e+07
2.02608e+07
2.88502e+07
2.00609e+07
3.2099e+07
2.02081e+07
3.60135e+07
2.07077e+07
4.05373e+07
2.15679e+07
4.55995e+07
2.28092e+07
5.1107e+07
2.44789e+07
5.69358e+07
2.66915e+07
6.2915e+07
2.812e+07
2.97345e+07
2.7452e+07
3.1184e+07
2.70068e+07
3.32295e+07
2.68095e+07
3.5855e+07
2.68718e+07
3.9037e+07
2.7198e+07
4.27455e+07
2.77915e+07
4.69398e+07
2.86607e+07
5.15634e+07
2.98278e+07
5.65355e+07
3.13511e+07
6.17394e+07
3.35695e+07
3.42309e+07
3.3016e+07
3.54119e+07
3.26532e+07
3.70652e+07
3.249e+07
3.91874e+07
3.25342e+07
4.17699e+07
3.27897e+07
4.48001e+07
3.3259e+07
4.82584e+07
3.39452e+07
5.21142e+07
3.48585e+07
5.63198e+07
3.60274e+07
6.08016e+07
3.81585e+07
3.81531e+07
3.77022e+07
3.91141e+07
3.74085e+07
4.04501e+07
3.72819e+07
4.21632e+07
3.73288e+07
4.42535e+07
3.75547e+07
4.6719e+07
3.79633e+07
4.95542e+07
3.85578e+07
5.27464e+07
3.93436e+07
5.6272e+07
4.03357e+07
6.00898e+07
4.20586e+07
4.16041e+07
4.16815e+07
4.23848e+07
4.14404e+07
4.34614e+07
4.13402e+07
4.48384e+07
4.13883e+07
4.65207e+07
4.15924e+07
4.8513e+07
4.19593e+07
5.08186e+07
4.24944e+07
5.3437e+07
4.32034e+07
5.63609e+07
4.40959e+07
5.95721e+07
4.54062e+07
4.46735e+07
4.50911e+07
4.53055e+07
4.48859e+07
4.61669e+07
4.47974e+07
4.72634e+07
4.48349e+07
4.86028e+07
4.5009e+07
5.0194e+07
4.53297e+07
5.20457e+07
4.58058e+07
5.41651e+07
4.64452e+07
5.65555e+07
4.72567e+07
5.9214e+07
4.8312e+07
4.74407e+07
4.80433e+07
4.79485e+07
4.78586e+07
4.86281e+07
4.77663e+07
4.94862e+07
4.77781e+07
5.05324e+07
4.79071e+07
5.17782e+07
4.81666e+07
5.32359e+07
4.85686e+07
5.49174e+07
4.91239e+07
5.68323e+07
4.98425e+07
5.8987e+07
5.08681e+07
4.99774e+07
5.06325e+07
5.03799e+07
5.04544e+07
5.09028e+07
5.03439e+07
5.15538e+07
5.03145e+07
5.23439e+07
5.03818e+07
5.32867e+07
5.05616e+07
5.43968e+07
5.08689e+07
5.5689e+07
5.13171e+07
5.71766e+07
5.19178e+07
5.88712e+07
5.31529e+07
5.23504e+07
5.29392e+07
5.26615e+07
5.27557e+07
5.30462e+07
5.2614e+07
5.35129e+07
5.25293e+07
5.40741e+07
5.25191e+07
5.4745e+07
5.26011e+07
5.55424e+07
5.27928e+07
5.6483e+07
5.31096e+07
5.75826e+07
5.35648e+07
5.88549e+07
5.52349e+07
5.4623e+07
5.50338e+07
5.48528e+07
5.48346e+07
5.51124e+07
5.46501e+07
5.54108e+07
5.44973e+07
5.57616e+07
5.43952e+07
5.61822e+07
5.43634e+07
5.66915e+07
5.44209e+07
5.73084e+07
5.45847e+07
5.80504e+07
5.48693e+07
5.89323e+07
5.71761e+07
5.68574e+07
5.69797e+07
5.70133e+07
5.6755e+07
5.71565e+07
5.65169e+07
5.72963e+07
5.62842e+07
5.7448e+07
5.60776e+07
5.7631e+07
5.59181e+07
5.78672e+07
5.58258e+07
5.81785e+07
5.58189e+07
5.85843e+07
5.59127e+07
5.91007e+07
5.90343e+07
5.91172e+07
5.88347e+07
5.92043e+07
5.85746e+07
5.92363e+07
5.82716e+07
5.92221e+07
5.79473e+07
5.91782e+07
5.76244e+07
5.91274e+07
5.73251e+07
5.90958e+07
5.70704e+07
5.91091e+07
5.68788e+07
5.91902e+07
5.67667e+07
5.9357e+07
6.08663e+07
6.1469e+07
6.0654e+07
6.14923e+07
6.03457e+07
6.14159e+07
5.99643e+07
6.12463e+07
5.95355e+07
6.10023e+07
5.90847e+07
6.07118e+07
5.86348e+07
6.04069e+07
5.82066e+07
6.01183e+07
5.78194e+07
5.98738e+07
5.74904e+07
5.96954e+07
6.27338e+07
6.39852e+07
6.24922e+07
6.39537e+07
6.21157e+07
6.37695e+07
6.16369e+07
6.34347e+07
6.10891e+07
6.29757e+07
6.04988e+07
6.24304e+07
5.98868e+07
6.18356e+07
5.92742e+07
6.12274e+07
5.8681e+07
6.06406e+07
5.81263e+07
6.01055e+07
6.47151e+07
6.6747e+07
6.44059e+07
6.66856e+07
6.39217e+07
6.63849e+07
6.33197e+07
6.58547e+07
6.26414e+07
6.51608e+07
6.18985e+07
6.43391e+07
6.11099e+07
6.34264e+07
6.02985e+07
6.24641e+07
5.94868e+07
6.14963e+07
5.8696e+07
6.05689e+07
6.69374e+07
6.98656e+07
6.64442e+07
6.98353e+07
6.57646e+07
6.93098e+07
6.50463e+07
6.85745e+07
6.42256e+07
6.76353e+07
6.33083e+07
6.65125e+07
6.23188e+07
6.5242e+07
6.12858e+07
6.38699e+07
6.0237e+07
6.24497e+07
5.91947e+07
6.10474e+07
6.96869e+07
7.38291e+07
6.84406e+07
7.31887e+07
6.77255e+07
7.25719e+07
6.68781e+07
7.16859e+07
6.58758e+07
7.05073e+07
6.47418e+07
6.90592e+07
6.3509e+07
6.73802e+07
6.22145e+07
6.55173e+07
6.08976e+07
6.35204e+07
5.95901e+07
6.14089e+07
3.53174e+07
5.60382e+07
4.23422e+07
5.96946e+07
4.81692e+07
6.29178e+07
5.31865e+07
6.59068e+07
5.76272e+07
6.8744e+07
6.16439e+07
7.14668e+07
6.5343e+07
7.4096e+07
6.88027e+07
7.66464e+07
7.20825e+07
7.91327e+07
7.52289e+07
8.15721e+07
7.82792e+07
8.39856e+07
8.12644e+07
8.63988e+07
8.42109e+07
8.88422e+07
8.71422e+07
9.13504e+07
9.008e+07
9.39617e+07
9.30443e+07
9.67164e+07
9.60526e+07
9.96541e+07
9.91152e+07
1.02805e+08
1.0222e+08
1.06167e+08
1.05277e+08
1.0952e+08
4.25425e+07
5.48784e+07
4.57547e+07
5.82921e+07
4.93224e+07
6.15275e+07
5.29683e+07
6.45886e+07
5.65786e+07
6.75041e+07
6.01099e+07
7.03045e+07
6.35508e+07
7.30172e+07
6.69051e+07
7.56664e+07
7.01837e+07
7.82746e+07
7.34003e+07
8.08635e+07
7.65695e+07
8.34558e+07
7.97056e+07
8.60756e+07
8.2822e+07
8.87486e+07
8.59314e+07
9.15029e+07
8.90458e+07
9.43682e+07
9.21767e+07
9.73764e+07
9.53371e+07
1.00562e+08
9.85457e+07
1.03965e+08
1.01844e+08
1.07644e+08
1.05227e+08
1.1125e+08
4.43034e+07
5.51669e+07
4.7239e+07
5.81486e+07
5.02838e+07
6.10765e+07
5.34029e+07
6.39328e+07
5.65575e+07
6.67166e+07
5.97193e+07
6.94363e+07
6.28713e+07
7.21054e+07
6.6005e+07
7.47392e+07
6.91179e+07
7.73544e+07
7.22114e+07
7.99687e+07
7.52892e+07
8.26002e+07
7.83562e+07
8.5268e+07
8.14178e+07
8.79923e+07
8.44797e+07
9.07938e+07
8.75474e+07
9.36946e+07
9.06263e+07
9.67172e+07
9.37208e+07
9.98852e+07
9.68321e+07
1.03222e+08
9.99493e+07
1.06746e+08
1.02474e+08
1.10347e+08
4.56519e+07
5.58146e+07
4.8425e+07
5.84547e+07
5.12152e+07
6.10767e+07
5.40316e+07
6.36737e+07
5.68713e+07
6.62435e+07
5.97277e+07
6.87883e+07
6.25939e+07
7.13143e+07
6.54646e+07
7.383e+07
6.83363e+07
7.63459e+07
7.12072e+07
7.88738e+07
7.40769e+07
8.14268e+07
7.69458e+07
8.40182e+07
7.98148e+07
8.66626e+07
8.2685e+07
8.93745e+07
8.55575e+07
9.21688e+07
8.84329e+07
9.50601e+07
9.13111e+07
9.80622e+07
9.41907e+07
1.01186e+08
9.70713e+07
1.0444e+08
1.00022e+08
1.07884e+08
4.71945e+07
5.65134e+07
4.97069e+07
5.88592e+07
5.22258e+07
6.12003e+07
5.4757e+07
6.35359e+07
5.73029e+07
6.5866e+07
5.98631e+07
6.81921e+07
6.24357e+07
7.05178e+07
6.50182e+07
7.28479e+07
6.76082e+07
7.5189e+07
7.02036e+07
7.75485e+07
7.28029e+07
7.99347e+07
7.54047e+07
8.23564e+07
7.80079e+07
8.48231e+07
8.06116e+07
8.73442e+07
8.32153e+07
8.99294e+07
8.58185e+07
9.2588e+07
8.84213e+07
9.53295e+07
9.10252e+07
9.81634e+07
9.3635e+07
1.01102e+08
9.62268e+07
1.04152e+08
4.88587e+07
5.71475e+07
5.10607e+07
5.92195e+07
5.32752e+07
6.12941e+07
5.55031e+07
6.33719e+07
5.77448e+07
6.54536e+07
5.99998e+07
6.75408e+07
6.22669e+07
6.96357e+07
6.45443e+07
7.17412e+07
6.68301e+07
7.38614e+07
6.91222e+07
7.60005e+07
7.14184e+07
7.81637e+07
7.37169e+07
8.03563e+07
7.60156e+07
8.2584e+07
7.83128e+07
8.48525e+07
8.06067e+07
8.71677e+07
8.28959e+07
8.95351e+07
8.51788e+07
9.19604e+07
8.74536e+07
9.44487e+07
8.97167e+07
9.70038e+07
9.19657e+07
9.96297e+07
5.04976e+07
5.76712e+07
5.2379e+07
5.94812e+07
5.42787e+07
6.12977e+07
5.61948e+07
6.3121e+07
5.81259e+07
6.49519e+07
6.00704e+07
6.67912e+07
6.20265e+07
6.86402e+07
6.39921e+07
7.05006e+07
6.59651e+07
7.23745e+07
6.7943e+07
7.42644e+07
6.99236e+07
7.61729e+07
7.19043e+07
7.8103e+07
7.38828e+07
8.00577e+07
7.58566e+07
8.204e+07
7.78234e+07
8.40527e+07
7.97806e+07
8.60985e+07
8.17258e+07
8.81798e+07
8.36564e+07
9.02984e+07
8.55699e+07
9.24553e+07
8.74636e+07
9.46511e+07
5.20006e+07
5.8074e+07
5.35724e+07
5.9632e+07
5.51649e+07
6.11979e+07
5.67753e+07
6.27716e+07
5.84011e+07
6.43531e+07
6.004e+07
6.59425e+07
6.16895e+07
6.75404e+07
6.3347e+07
6.91473e+07
6.50101e+07
7.07642e+07
6.66762e+07
7.23919e+07
6.83426e+07
7.40316e+07
7.00065e+07
7.56845e+07
7.16652e+07
7.73515e+07
7.3316e+07
7.90339e+07
7.49561e+07
8.07325e+07
7.65826e+07
8.24478e+07
7.81929e+07
8.418e+07
7.97842e+07
8.59291e+07
8.13537e+07
8.76941e+07
8.28987e+07
8.94736e+07
5.33066e+07
5.83655e+07
5.459e+07
5.96824e+07
5.58937e+07
6.10067e+07
5.72146e+07
6.23378e+07
5.855e+07
6.3675e+07
5.98971e+07
6.5018e+07
6.12531e+07
6.63664e+07
6.26152e+07
6.77201e+07
6.39807e+07
6.90788e+07
6.53469e+07
7.04427e+07
6.67107e+07
7.18115e+07
6.80695e+07
7.31852e+07
6.94202e+07
7.45637e+07
7.07599e+07
7.59467e+07
7.20858e+07
7.73338e+07
7.33949e+07
7.87241e+07
7.46844e+07
8.01167e+07
7.59513e+07
8.15101e+07
7.7193e+07
8.29023e+07
7.84067e+07
8.4291e+07
5.43956e+07
5.85676e+07
5.54159e+07
5.96552e+07
5.64541e+07
6.07486e+07
5.75075e+07
6.18466e+07
5.85731e+07
6.29481e+07
5.96481e+07
6.40522e+07
6.07299e+07
6.5158e+07
6.18155e+07
6.62646e+07
6.29021e+07
6.73712e+07
6.39869e+07
6.8477e+07
6.50669e+07
6.95811e+07
6.61392e+07
7.06827e+07
6.72009e+07
7.17807e+07
6.8249e+07
7.28741e+07
6.92806e+07
7.39614e+07
7.02926e+07
7.50413e+07
7.12823e+07
7.6112e+07
7.22466e+07
7.71712e+07
7.31829e+07
7.82167e+07
7.40884e+07
7.92453e+07
5.52762e+07
5.8708e+07
5.60593e+07
5.95794e+07
5.6857e+07
6.0454e+07
5.76668e+07
6.13305e+07
5.8486e+07
6.22074e+07
5.9312e+07
6.30834e+07
6.01422e+07
6.39571e+07
6.09738e+07
6.48272e+07
6.18041e+07
6.56924e+07
6.26301e+07
6.65513e+07
6.34492e+07
6.74025e+07
6.42583e+07
6.82446e+07
6.50545e+07
6.90761e+07
6.58348e+07
6.98952e+07
6.65963e+07
7.07002e+07
6.7336e+07
7.14892e+07
6.80509e+07
7.226e+07
6.87381e+07
7.30104e+07
6.93948e+07
7.37376e+07
7.00183e+07
7.44388e+07
5.59748e+07
5.88169e+07
5.65454e+07
5.94853e+07
5.71269e+07
6.01542e+07
5.77172e+07
6.08221e+07
5.8314e+07
6.14872e+07
5.89149e+07
6.21481e+07
5.95175e+07
6.2803e+07
6.01193e+07
6.34503e+07
6.07176e+07
6.40882e+07
6.13098e+07
6.47151e+07
6.1893e+07
6.53291e+07
6.24645e+07
6.59283e+07
6.30212e+07
6.65109e+07
6.35603e+07
6.70748e+07
6.40785e+07
6.76179e+07
6.4573e+07
6.81382e+07
6.50405e+07
6.86334e+07
6.54782e+07
6.91011e+07
6.5883e+07
6.95388e+07
6.62521e+07
6.9944e+07
5.65272e+07
5.89225e+07
5.69075e+07
5.94008e+07
5.72954e+07
5.98772e+07
5.7689e+07
6.035e+07
5.80865e+07
6.08173e+07
5.84858e+07
6.12776e+07
5.88847e+07
6.17288e+07
5.9281e+07
6.21691e+07
5.96723e+07
6.25965e+07
6.00561e+07
6.30089e+07
6.04297e+07
6.34042e+07
6.07903e+07
6.37801e+07
6.1135e+07
6.41344e+07
6.14607e+07
6.44647e+07
6.17643e+07
6.47688e+07
6.20424e+07
6.50443e+07
6.22918e+07
6.52888e+07
6.2509e+07
6.55002e+07
6.26909e+07
6.56761e+07
6.28341e+07
6.58144e+07
5.69717e+07
5.90479e+07
5.71814e+07
5.93479e+07
5.73959e+07
5.96441e+07
5.76136e+07
5.99349e+07
5.78332e+07
6.02185e+07
5.80529e+07
6.04933e+07
5.8271e+07
6.07571e+07
5.84856e+07
6.1008e+07
5.86944e+07
6.12436e+07
5.88953e+07
6.14617e+07
5.90856e+07
6.16595e+07
5.92627e+07
6.18347e+07
5.94236e+07
6.19843e+07
5.95651e+07
6.21057e+07
5.9684e+07
6.2196e+07
5.97764e+07
6.22527e+07
5.98388e+07
6.22732e+07
5.9867e+07
6.2255e+07
5.9857e+07
6.21961e+07
5.98048e+07
6.20946e+07
5.73454e+07
5.92074e+07
5.74012e+07
5.93381e+07
5.74597e+07
5.94643e+07
5.75199e+07
5.95847e+07
5.75809e+07
5.96978e+07
5.76414e+07
5.98019e+07
5.77e+07
5.98951e+07
5.77552e+07
5.99751e+07
5.78052e+07
6.00396e+07
5.78479e+07
6.00858e+07
5.78811e+07
6.01107e+07
5.79023e+07
6.01112e+07
5.79084e+07
6.0084e+07
5.78963e+07
6.00255e+07
5.78623e+07
5.99322e+07
5.78023e+07
5.98006e+07
5.77119e+07
5.96274e+07
5.75861e+07
5.94094e+07
5.74197e+07
5.91444e+07
5.72071e+07
5.88303e+07
5.76802e+07
5.9402e+07
5.75958e+07
5.9368e+07
5.75132e+07
5.93306e+07
5.7432e+07
5.92889e+07
5.73516e+07
5.9242e+07
5.72712e+07
5.91886e+07
5.71899e+07
5.9127e+07
5.71067e+07
5.90549e+07
5.70201e+07
5.897e+07
5.69287e+07
5.88693e+07
5.68304e+07
5.87493e+07
5.67232e+07
5.86063e+07
5.66042e+07
5.8436e+07
5.64703e+07
5.82339e+07
5.63177e+07
5.79951e+07
5.6142e+07
5.77145e+07
5.59379e+07
5.7387e+07
5.56994e+07
5.70078e+07
5.54195e+07
5.65726e+07
5.50905e+07
5.60783e+07
5.79993e+07
5.96168e+07
5.77863e+07
5.94153e+07
5.75755e+07
5.92135e+07
5.73669e+07
5.90117e+07
5.71604e+07
5.88101e+07
5.69557e+07
5.86081e+07
5.67524e+07
5.84044e+07
5.655e+07
5.81971e+07
5.63478e+07
5.7984e+07
5.6145e+07
5.77622e+07
5.59402e+07
5.75282e+07
5.57319e+07
5.72778e+07
5.55179e+07
5.70059e+07
5.52956e+07
5.67067e+07
5.50612e+07
5.63734e+07
5.48106e+07
5.59987e+07
5.45381e+07
5.55741e+07
5.42368e+07
5.50911e+07
5.38982e+07
5.45409e+07
5.35116e+07
5.39157e+07
5.83123e+07
5.98185e+07
5.79816e+07
5.94335e+07
5.76549e+07
5.90546e+07
5.73327e+07
5.86855e+07
5.70145e+07
5.83263e+07
5.67004e+07
5.79764e+07
5.63911e+07
5.76354e+07
5.60871e+07
5.73025e+07
5.57888e+07
5.69767e+07
5.54962e+07
5.66562e+07
5.52092e+07
5.63383e+07
5.4927e+07
5.60192e+07
5.46485e+07
5.56937e+07
5.43718e+07
5.53553e+07
5.40945e+07
5.49956e+07
5.3813e+07
5.46045e+07
5.35227e+07
5.41695e+07
5.32174e+07
5.3676e+07
5.28884e+07
5.31068e+07
5.25242e+07
5.24424e+07
5.86055e+07
5.99551e+07
5.8174e+07
5.93465e+07
5.77494e+07
5.87725e+07
5.73268e+07
5.82184e+07
5.69082e+07
5.76822e+07
5.64971e+07
5.71662e+07
5.60961e+07
5.66733e+07
5.57074e+07
5.62062e+07
5.53324e+07
5.57668e+07
5.49725e+07
5.5356e+07
5.46283e+07
5.49739e+07
5.43002e+07
5.46188e+07
5.39882e+07
5.42876e+07
5.36919e+07
5.39747e+07
5.34103e+07
5.36723e+07
5.3142e+07
5.33691e+07
5.28848e+07
5.30501e+07
5.26358e+07
5.26951e+07
5.2391e+07
5.22772e+07
5.21444e+07
5.17591e+07
5.88294e+07
5.99334e+07
5.83536e+07
5.914e+07
5.78379e+07
5.83277e+07
5.7317e+07
5.75246e+07
5.6805e+07
5.67463e+07
5.63087e+07
5.60035e+07
5.58325e+07
5.53049e+07
5.53794e+07
5.46577e+07
5.49519e+07
5.40686e+07
5.45518e+07
5.35435e+07
5.41808e+07
5.30877e+07
5.38401e+07
5.27054e+07
5.35301e+07
5.2399e+07
5.32513e+07
5.21693e+07
5.30035e+07
5.2014e+07
5.27864e+07
5.19269e+07
5.25998e+07
5.18966e+07
5.24444e+07
5.19047e+07
5.23233e+07
5.19243e+07
5.22456e+07
5.19202e+07
1.69714e+08
1.4159e+08
1.61808e+08
1.35438e+08
1.52725e+08
1.30048e+08
1.44142e+08
1.23566e+08
1.36091e+08
1.17285e+08
1.28465e+08
1.11328e+08
1.21166e+08
1.0551e+08
1.1413e+08
9.97258e+07
1.07304e+08
9.3952e+07
1.00637e+08
8.81519e+07
9.40821e+07
8.22943e+07
8.75935e+07
7.63501e+07
8.11265e+07
7.02892e+07
7.46356e+07
6.40791e+07
6.80734e+07
5.76826e+07
6.13889e+07
5.1055e+07
5.45255e+07
4.41393e+07
4.74179e+07
3.68572e+07
3.99878e+07
2.90925e+07
3.21378e+07
2.06586e+07
1.58771e+08
1.24297e+08
1.53802e+08
1.20954e+08
1.48139e+08
1.17011e+08
1.41877e+08
1.13468e+08
1.35599e+08
1.09998e+08
1.29052e+08
1.05406e+08
1.22504e+08
1.00331e+08
1.16103e+08
9.54138e+07
1.09813e+08
9.04621e+07
1.03627e+08
8.54304e+07
9.75314e+07
8.03029e+07
9.1507e+07
7.50595e+07
8.55342e+07
6.96764e+07
7.95942e+07
6.4127e+07
7.36709e+07
5.83823e+07
6.77539e+07
5.24125e+07
6.18433e+07
4.61893e+07
5.59583e+07
3.96935e+07
5.01535e+07
3.29305e+07
4.45522e+07
2.59678e+07
1.42902e+08
1.11985e+08
1.42046e+08
1.09712e+08
1.39257e+08
1.07437e+08
1.35288e+08
1.05208e+08
1.30684e+08
1.02066e+08
1.26044e+08
9.95315e+07
1.21048e+08
9.66761e+07
1.15678e+08
9.27225e+07
1.10344e+08
8.86868e+07
1.05098e+08
8.45887e+07
9.99231e+07
8.04106e+07
9.48069e+07
7.6132e+07
8.97394e+07
7.17315e+07
8.47127e+07
6.71872e+07
7.97212e+07
6.24775e+07
7.47609e+07
5.7581e+07
6.98279e+07
5.24765e+07
6.49148e+07
4.71415e+07
6e+07
4.15476e+07
5.5021e+07
3.56444e+07
1.22652e+08
1.04027e+08
1.2289e+08
1.02111e+08
1.23071e+08
1.00337e+08
1.23219e+08
9.88875e+07
1.21661e+08
9.73683e+07
1.18881e+08
9.51022e+07
1.15815e+08
9.28789e+07
1.1233e+08
9.05683e+07
1.08432e+08
8.7588e+07
1.04534e+08
8.46133e+07
1.00631e+08
8.15945e+07
9.67267e+07
7.84979e+07
9.28284e+07
7.52988e+07
8.89435e+07
7.19781e+07
8.50798e+07
6.85195e+07
8.12449e+07
6.49078e+07
7.74458e+07
6.11274e+07
7.36893e+07
5.71604e+07
6.99844e+07
5.2985e+07
6.63503e+07
4.85756e+07
1.00638e+08
9.61328e+07
1.02368e+08
9.52981e+07
1.0391e+08
9.44805e+07
1.04997e+08
9.3546e+07
1.06138e+08
9.26875e+07
1.06517e+08
9.15835e+07
1.05784e+08
8.99317e+07
1.04724e+08
8.85573e+07
1.03022e+08
8.69178e+07
1.01009e+08
8.52078e+07
9.87807e+07
8.3417e+07
9.64067e+07
8.15359e+07
9.39387e+07
7.95572e+07
9.14176e+07
7.7475e+07
8.88776e+07
7.52854e+07
8.63492e+07
7.29851e+07
8.38609e+07
7.05718e+07
8.14421e+07
6.80439e+07
7.91255e+07
6.54007e+07
7.6949e+07
6.26419e+07
8.61201e+07
8.72362e+07
8.75565e+07
8.74325e+07
8.90185e+07
8.7502e+07
9.06813e+07
8.76083e+07
9.23976e+07
8.77348e+07
9.40936e+07
8.78471e+07
9.52798e+07
8.76896e+07
9.59422e+07
8.73862e+07
9.60658e+07
8.68951e+07
9.5774e+07
8.62677e+07
9.51646e+07
8.55325e+07
9.43188e+07
8.47061e+07
9.33052e+07
8.37988e+07
9.21827e+07
8.2818e+07
9.10032e+07
8.17707e+07
8.98141e+07
8.06641e+07
8.86603e+07
7.95072e+07
8.75857e+07
7.83115e+07
8.66355e+07
7.70926e+07
8.58579e+07
7.58723e+07
8.09935e+07
7.93545e+07
8.21595e+07
8.05961e+07
8.33989e+07
8.17651e+07
8.4675e+07
8.28643e+07
8.59792e+07
8.38748e+07
8.72847e+07
8.47584e+07
8.85834e+07
8.5481e+07
8.97331e+07
8.60323e+07
9.06518e+07
8.6436e+07
9.13232e+07
8.67194e+07
9.17666e+07
8.69066e+07
9.2019e+07
8.70177e+07
9.21253e+07
8.70699e+07
9.21335e+07
8.70784e+07
9.20926e+07
8.70576e+07
9.20512e+07
8.70226e+07
9.20578e+07
8.69889e+07
9.21604e+07
8.69744e+07
9.24061e+07
8.69993e+07
9.28408e+07
8.70904e+07
7.43901e+07
7.19137e+07
7.61149e+07
7.39038e+07
7.77684e+07
7.57921e+07
7.93586e+07
7.75852e+07
8.08996e+07
7.92788e+07
8.24057e+07
8.08621e+07
8.38822e+07
8.23232e+07
8.53037e+07
8.3658e+07
8.66307e+07
8.48746e+07
8.78399e+07
8.59885e+07
8.89273e+07
8.70189e+07
8.99054e+07
8.79864e+07
9.07991e+07
8.89119e+07
9.16419e+07
8.98166e+07
9.24733e+07
9.07218e+07
9.33364e+07
9.16494e+07
9.42776e+07
9.26216e+07
9.53451e+07
9.36595e+07
9.65873e+07
9.47805e+07
9.80496e+07
9.59951e+07
6.58817e+07
6.34041e+07
6.84497e+07
6.61968e+07
7.08651e+07
6.88708e+07
7.31259e+07
7.14243e+07
7.5249e+07
7.38541e+07
7.72588e+07
7.61586e+07
7.91777e+07
7.8338e+07
8.10175e+07
8.03963e+07
8.27792e+07
8.23429e+07
8.44628e+07
8.4193e+07
8.60734e+07
8.59655e+07
8.76238e+07
8.76828e+07
8.9135e+07
8.93694e+07
9.06353e+07
9.10519e+07
9.2159e+07
9.27589e+07
9.37457e+07
9.45216e+07
9.54395e+07
9.63733e+07
9.72901e+07
9.8349e+07
9.93536e+07
1.00478e+08
1.01694e+08
1.02755e+08
5.62791e+07
5.15162e+07
6.01112e+07
5.61013e+07
6.34965e+07
6.0227e+07
6.65286e+07
6.39771e+07
6.92912e+07
6.74183e+07
7.18509e+07
7.06039e+07
7.42587e+07
7.35764e+07
7.65509e+07
7.63706e+07
7.87526e+07
7.90164e+07
8.08821e+07
8.15411e+07
8.29569e+07
8.39717e+07
8.49967e+07
8.6336e+07
8.70255e+07
8.86637e+07
8.90722e+07
9.09869e+07
9.11704e+07
9.33407e+07
9.33576e+07
9.57652e+07
9.56747e+07
9.83082e+07
9.81676e+07
1.01034e+08
1.00893e+08
1.04053e+08
1.03951e+08
1.07609e+08
)
;

boundaryField
{
    back
    {
        type            empty;
    }
    front
    {
        type            empty;
    }
    left
    {
        type            zeroGradient;
    }
    hole
    {
        type            zeroGradient;
    }
    down
    {
        type            zeroGradient;
    }
    right
    {
        type            zeroGradient;
    }
    up
    {
        type            zeroGradient;
    }
}


// ************************************************************************* //
