/*--------------------------------*- C++ -*----------------------------------*\
| =========                 |                                                 |
| \\      /  F ield         | OpenFOAM: The Open Source CFD Toolbox           |
|  \\    /   O peration     | Version:  v2012                                 |
|   \\  /    A nd           | Website:  www.openfoam.com                      |
|    \\/     M anipulation  |                                                 |
\*---------------------------------------------------------------------------*/
FoamFile
{
    version     2.0;
    format      ascii;
    class       volSymmTensorField;
    location    "1";
    object      epsilon;
}
// * * * * * * * * * * * * * * * * * * * * * * * * * * * * * * * * * * * * * //

dimensions      [0 0 0 0 0 0 0];


internalField   nonuniform List<symmTensor> 
3791
(
(9.70911e-07 -9.20956e-06 -9.0455e-08 3.98771e-07 -5.9501e-07 -2.18581e-07)
(8.89073e-06 -3.53766e-06 1.28357e-06 -4.21101e-06 -4.78682e-07 -2.36896e-06)
(1.06873e-05 -5.20589e-06 -4.77061e-08 -4.21101e-06 -4.78682e-07 -2.36896e-06)
(9.72906e-06 -8.94958e-06 -2.16886e-22 5.63613e-21 3.99018e-22 0)
(2.20646e-05 -5.1513e-06 8.60297e-08 -7.10391e-06 -2.44566e-07 -5.17099e-06)
(-8.85901e-06 -8.30515e-06 1.72208e-06 -1.38857e-21 -2.26325e-22 1.53558e-22)
(-2.06606e-05 -5.20255e-06 -1.64625e-06 5.87945e-06 -6.01476e-07 5.79108e-06)
(-1.76188e-05 -1.84281e-06 -1.24856e-07 3.70412e-06 -4.44718e-07 3.64667e-06)
(-2.88277e-06 -7.17157e-06 7.39415e-08 5.80973e-07 -1.14065e-07 8.94104e-07)
(-1.18367e-05 -2.49794e-06 -2.98888e-06 3.51167e-06 -8.84885e-07 2.87275e-06)
(-1.30023e-05 -5.60718e-06 2.27267e-06 4.78974e-06 -2.55698e-06 5.04507e-06)
(1.53246e-05 -5.36845e-06 3.30567e-06 -6.23605e-06 1.39727e-06 -4.00482e-06)
(7.25805e-06 -5.25981e-06 4.18452e-06 4.6514e-07 2.58411e-07 0)
(-6.32734e-06 -4.21119e-06 5.49098e-06 1.43533e-06 -7.82595e-07 -3.51112e-06)
(-1.62417e-06 -9.08971e-06 -1.81467e-06 5.80405e-07 -8.54355e-07 -7.50282e-07)
(1.19588e-05 -7.24591e-06 -4.7405e-06 -7.28304e-06 -3.06132e-06 -3.42039e-06)
(1.25091e-05 -2.66474e-06 3.44584e-06 -4.15027e-06 -8.82623e-07 -3.66264e-06)
(-6.92358e-06 -8.02362e-06 4.42384e-07 4.1863e-06 3.84047e-07 1.74057e-06)
(9.70911e-07 -9.71283e-06 -9.0455e-08 -1.63068e-06 -6.21476e-07 -2.18581e-07)
(4.37098e-06 -8.92457e-06 2.10497e-06 -1.84004e-06 -6.95697e-07 3.3158e-07)
(4.65339e-06 -8.61347e-06 -2.31266e-06 -7.31349e-07 6.99675e-07 1.92194e-08)
(1.42714e-05 -3.4475e-06 -2.39936e-06 -5.47997e-06 9.62224e-07 -4.00482e-06)
(-1.13273e-05 -2.98834e-06 3.36454e-06 4.63555e-06 1.05434e-06 3.63365e-06)
(-3.12107e-06 -8.46541e-06 2.16074e-06 -9.43833e-08 6.5483e-07 1.92194e-08)
(1.89308e-05 -2.72797e-06 1.10705e-07 -4.29939e-06 -2.69505e-07 -4.17925e-06)
(4.92418e-06 -6.96801e-06 4.19878e-08 -1.5549e-06 -2.35699e-07 -1.04266e-06)
(6.43146e-07 -7.24903e-06 -1.8043e-07 -1.83124e-06 5.80835e-07 -5.94887e-08)
(-8.0908e-06 -8.42284e-06 -1.02381e-06 4.5551e-06 -2.62546e-07 -5.94887e-08)
(1.1218e-06 -9.13133e-06 -1.09075e-06 -3.04059e-07 7.21271e-07 1.88386e-06)
(9.11294e-06 -4.98288e-06 -2.16407e-06 -2.90115e-06 -6.39421e-07 -2.64708e-06)
(9.1275e-06 -4.96395e-06 2.02139e-06 -2.87786e-06 3.80518e-07 -2.57799e-06)
(2.02351e-05 -5.79704e-06 -7.31837e-06 -3.76846e-06 2.42841e-06 -7.44051e-07)
(-1.89017e-05 -5.98123e-06 -5.11652e-06 3.0036e-06 -2.30761e-06 1.41987e-06)
(-2.59317e-05 -3.49649e-06 6.52698e-07 7.56615e-06 1.52726e-07 5.79108e-06)
(-4.87675e-06 -4.1044e-06 2.84682e-08 4.09316e-07 2.45459e-08 8.94104e-07)
(9.72906e-06 -8.94958e-06 -2.16886e-22 -1.59607e-21 3.99018e-22 0)
(-8.85901e-06 -8.30515e-06 1.72208e-06 -7.40572e-22 -1.08364e-22 7.67791e-23)
(2.72534e-05 -3.71798e-06 -1.66317e-06 -8.60281e-06 3.29282e-07 -5.17099e-06)
(-1.38693e-05 -4.11497e-06 -4.88847e-07 4.7914e-06 -3.25306e-07 3.64667e-06)
(-1.65845e-05 -3.07708e-06 -3.54027e-07 4.95552e-06 4.66661e-07 1.86049e-06)
(-3.98641e-06 -6.63733e-06 2.39406e-07 3.38189e-07 -3.02643e-07 1.6129e-06)
(1.49312e-05 -4.87929e-06 5.72339e-07 -4.83243e-06 -2.03558e-07 -4.17925e-06)
(5.65373e-06 -4.39044e-06 5.08737e-08 -1.21688e-06 -1.73498e-07 -1.04266e-06)
(-8.27743e-06 -8.87592e-06 -1.70397e-08 4.5551e-06 -6.08528e-07 1.58691e-06)
(1.11317e-05 -6.60426e-06 5.70716e-07 -4.46576e-06 2.13367e-07 -2.16025e-06)
(1.43421e-05 -4.02203e-06 1.57573e-06 -4.87394e-06 4.03238e-07 -3.52084e-06)
(1.27332e-06 -7.49673e-06 3.27384e-07 -4.09328e-06 1.07808e-06 -3.70304e-07)
(1.27332e-06 -7.90866e-06 3.27384e-07 2.25851e-06 -1.13633e-06 -3.70304e-07)
(6.18689e-07 -7.7993e-06 -2.66668e-07 6.71222e-07 -7.2217e-07 -2.18581e-07)
(2.351e-05 -6.12639e-06 1.4111e-06 -7.83864e-06 -8.62683e-07 -4.01087e-06)
(-1.06412e-05 -5.67928e-06 4.42384e-07 4.1863e-06 3.84047e-07 1.74057e-06)
(-1.44153e-05 -2.62035e-06 1.4061e-06 5.239e-06 1.08867e-06 3.03964e-06)
(1.55694e-05 -2.54342e-06 -3.95026e-07 -5.60991e-06 -5.72233e-07 -3.20563e-06)
(-8.19606e-06 -4.64101e-06 1.83706e-06 2.82792e-06 -4.47244e-07 2.15589e-06)
(7.53574e-06 -5.9881e-06 -8.7672e-08 -3.3344e-06 -1.51843e-07 -2.01287e-06)
(3.42631e-07 -7.48705e-06 -3.80203e-08 -3.18196e-06 4.38425e-07 -5.94887e-08)
(6.43146e-07 -7.83951e-06 -1.8043e-07 7.27187e-07 -8.25599e-07 -5.94887e-08)
(3.42631e-07 -8.09842e-06 -3.80203e-08 2.77927e-06 -1.71496e-06 -5.94887e-08)
(-6.63471e-06 -5.66917e-06 -2.55736e-08 3.3229e-06 8.18503e-08 1.70621e-06)
(-9.47393e-06 -6.4473e-06 6.62951e-07 4.5551e-06 -2.62546e-07 -5.94887e-08)
(-5.1665e-06 -4.11543e-06 2.53303e-07 6.77016e-07 5.59076e-07 1.75146e-06)
(-1.47702e-05 -4.25915e-06 9.14133e-07 5.40391e-06 2.36904e-07 1.64114e-06)
(-1.90603e-05 -5.38342e-06 7.16734e-06 4.35779e-06 2.64309e-06 4.93553e-07)
(-8.40233e-06 -4.59459e-06 -1.88417e-06 2.94135e-06 3.91202e-07 2.22983e-06)
(2.0275e-05 -5.6889e-06 5.30761e-06 -4.02461e-06 -2.78716e-06 -1.22502e-06)
(1.12051e-06 -9.24832e-06 6.03052e-07 -3.03301e-07 7.73173e-07 -2.01287e-06)
(1.21665e-05 -4.94488e-06 -7.74408e-07 -4.2746e-06 -5.96812e-07 -2.01287e-06)
(8.31333e-06 -8.68904e-06 -4.74697e-07 -5.24393e-06 -5.31333e-07 -5.94887e-08)
(1.12647e-05 -6.64896e-06 1.1456e-06 -5.24393e-06 -5.31333e-07 -5.94887e-08)
(1.80865e-05 -3.7992e-06 6.16521e-07 -5.65832e-06 3.96708e-07 -2.01287e-06)
(5.17611e-06 -6.83936e-06 -4.1049e-07 -1.50719e-06 -6.45785e-07 -2.01287e-06)
(3.42631e-07 -9.38138e-06 1.27749e-06 -2.47995e-06 -1.57696e-06 2.40112e-06)
(1.27332e-06 -9.126e-06 1.17276e-06 3.4917e-06 6.49896e-07 -3.44588e-06)
(1.55315e-05 -5.97566e-06 1.17276e-06 -4.46576e-06 6.49896e-07 -3.44588e-06)
(-1.32626e-05 -6.09629e-06 2.06823e-07 4.5551e-06 -5.06301e-07 2.40112e-06)
(-2.46252e-05 -4.45252e-06 7.22976e-08 8.17166e-06 1.12259e-06 2.88829e-06)
(-8.5815e-06 -9.62882e-06 6.1088e-08 2.36984e-06 2.82339e-06 3.34849e-06)
(9.65927e-06 -9.2086e-06 -1.58942e-06 -4.48262e-07 -1.79968e-06 -3.44588e-06)
(2.61804e-05 -4.17799e-06 -2.04177e-06 -8.44982e-06 -7.30434e-07 -3.00494e-06)
(1.57755e-05 -4.77296e-06 -8.71588e-07 -5.88937e-06 1.84121e-07 -2.01287e-06)
(5.84967e-06 -4.46455e-06 -2.76863e-07 -1.26459e-06 2.89602e-07 -2.01287e-06)
(1.44157e-05 -5.9814e-06 4.7559e-07 -6.20689e-06 1.50344e-06 -3.32783e-06)
(5.96296e-06 -4.08781e-06 -7.20421e-07 -1.54131e-06 4.22386e-07 -1.96632e-06)
(9.6493e-06 -9.20573e-06 -1.77217e-06 -9.53905e-22 3.85136e-22 1.83633e-22)
(2.86423e-05 -3.98659e-06 -3.53731e-06 -8.55475e-06 -1.12024e-06 -2.72094e-06)
(1.35969e-05 -6.06553e-06 4.49995e-08 -5.14412e-06 -1.38514e-06 -3.70381e-06)
(5.77066e-06 -3.99804e-06 4.48637e-07 -1.45284e-06 -7.03321e-07 -1.92874e-06)
(-8.54186e-06 -9.65934e-06 -3.31918e-22 -1.50136e-21 -7.50681e-22 0)
(-2.69887e-05 -4.53418e-06 -1.26265e-06 8.19656e-06 1.21631e-06 2.83973e-06)
(6.43146e-07 -7.69634e-06 -2.79855e-07 1.62627e-06 2.68655e-07 -2.01287e-06)
(-1.30851e-05 -5.54583e-06 -5.6637e-07 5.90736e-06 1.57627e-06 2.85082e-06)
(-5.26526e-06 -3.96663e-06 5.21561e-07 1.24588e-06 7.44389e-07 1.46096e-06)
(2.94321e-05 -3.56643e-06 7.7162e-07 -8.93672e-06 4.93053e-07 -2.45005e-06)
(-1.26188e-05 -5.41771e-06 1.33091e-08 5.51158e-06 -1.48171e-06 3.21873e-06)
(9.72906e-06 -8.94958e-06 8.67543e-22 -1.99509e-22 -1.59607e-21 0)
(-8.85901e-06 -8.30515e-06 1.72208e-06 -1.48114e-21 1.6347e-21 -6.14233e-22)
(-2.82045e-05 -2.77462e-06 3.19323e-06 8.2844e-06 -6.44363e-07 2.95135e-06)
(-5.10894e-06 -3.86499e-06 -2.22726e-07 1.10716e-06 -7.96008e-07 1.85602e-06)
(2.10628e-05 -3.83135e-06 -5.48985e-07 -7.41686e-06 -3.82433e-06 -5.34542e-06)
(-1.86495e-05 -3.97781e-06 -5.23104e-07 6.61951e-06 -3.97045e-06 5.8041e-06)
(-1.43559e-08 -9.25042e-06 -2.20099e-25 0 -2.83649e-22 0)
(1.12359e-06 -7.37679e-06 -3.21782e-07 0 2.26197e-22 1.97338e-23)
(-1.96299e-05 -4.66496e-06 -1.248e-06 9.13781e-06 3.64492e-06 3.63365e-06)
(1.43114e-06 -8.03907e-06 1.96429e-07 -5.20699e-07 -1.20395e-06 -1.67779e-07)
(1.99325e-05 -4.46643e-06 7.4572e-07 -8.78983e-06 2.8667e-06 -4.00482e-06)
(6.60827e-07 -6.68016e-06 -1.53538e-08 -4.53226e-07 8.54188e-07 1.92194e-08)
(-1.18346e-05 -2.37963e-06 -6.4214e-08 1.94373e-06 -7.61651e-08 2.42288e-06)
(-2.92615e-05 -1.26629e-05 1.27788e-06 -7.49797e-22 3.78329e-23 0)
(3.0821e-05 -1.29742e-05 -1.10252e-06 1.92057e-21 8.16029e-23 0)
(1.30814e-05 -2.4367e-06 -5.1749e-08 -1.77727e-06 -1.07437e-07 -2.8524e-06)
(-1.02248e-05 -5.36033e-06 2.4246e-07 3.8019e-06 -5.30513e-07 1.60573e-06)
(-9.10262e-06 -5.33401e-06 7.26862e-07 3.48531e-06 -4.13143e-07 1.7794e-06)
(6.18689e-07 -7.13996e-06 -2.66668e-07 -8.69108e-07 -5.39549e-07 -2.18581e-07)
(5.12555e-07 -7.53806e-06 5.02667e-07 -1.55916e-06 -8.88217e-08 1.58691e-06)
(-1.30097e-05 -6.87885e-06 -4.92591e-06 7.24137e-06 2.55372e-06 3.63365e-06)
(-2.22924e-05 -6.01056e-06 5.28212e-07 7.6789e-06 8.94661e-07 2.97357e-06)
(-7.73918e-06 -3.34033e-06 -7.91823e-08 3.48531e-06 -4.13143e-07 1.7794e-06)
(-1.20184e-05 -4.04069e-06 5.31144e-07 3.7018e-06 -7.74075e-07 2.33369e-06)
(-7.44276e-06 -5.75978e-06 -4.27428e-06 7.37864e-07 -4.09924e-07 0)
(-8.51192e-06 -9.68239e-06 -2.79004e-07 -1.78976e-06 -1.43676e-07 2.52886e-06)
(5.54615e-07 -2.18179e-06 1.66493e-07 2.21561e-06 9.86147e-07 -3.70304e-07)
(-6.89262e-07 -3.81179e-06 -1.19738e-07 1.12823e-06 -9.66027e-07 1.93578e-06)
(9.64178e-06 -9.20356e-06 -1.96874e-06 3.38538e-07 9.83007e-07 -2.60241e-06)
(8.55043e-06 -5.12395e-06 -5.85861e-06 -3.30022e-06 5.24886e-07 2.90793e-06)
(1.92316e-06 -4.77056e-06 -1.81531e-07 6.85649e-07 2.63306e-07 -2.98371e-06)
(5.54615e-07 -2.18304e-06 1.66493e-07 -4.05038e-06 -1.04439e-06 -3.70304e-07)
(8.23013e-06 -8.44382e-06 -2.79855e-07 -4.46576e-06 2.68655e-07 -2.01287e-06)
(8.44636e-06 -8.3642e-06 -2.48824e-07 -4.46576e-06 2.13367e-07 -2.16025e-06)
(1.02485e-05 3.59792e-06 -1.19707e-07 -2.98795e-06 -5.7844e-07 -4.32992e-06)
(8.11398e-06 1.77464e-06 -3.24013e-07 -1.43631e-06 -1.06115e-08 -3.85601e-06)
(2.37899e-06 -7.57115e-06 -3.10491e-08 -1.49722e-06 -5.09364e-08 -2.39134e-07)
(8.03264e-06 -8.84507e-07 -4.12773e-07 -3.33435e-06 -7.75839e-07 -3.12357e-06)
(7.76154e-06 1.90203e-06 -4.001e-07 -2.42813e-06 -9.48153e-07 -3.33379e-06)
(8.10044e-06 -1.01299e-06 -7.27409e-07 -3.28804e-06 1.86745e-07 -2.34343e-06)
(9.90052e-06 3.0427e-06 -5.44214e-07 -2.89994e-06 -3.0684e-07 -3.48351e-06)
(1.2587e-05 -3.75642e-06 -9.08415e-07 -2.95454e-06 -4.34337e-07 -3.11942e-06)
(7.71777e-06 1.12266e-06 6.91182e-08 -2.51779e-06 -9.83364e-07 -3.25832e-06)
(9.54978e-06 3.30488e-06 -4.15538e-07 -2.87835e-06 -1.88667e-07 -3.31952e-06)
(7.43727e-06 -2.45542e-06 -2.60768e-07 -2.02687e-06 -3.33993e-08 -2.11086e-06)
(1.2215e-05 -3.21328e-06 -1.37073e-06 -3.73895e-06 1.32203e-07 -2.34044e-06)
(8.38088e-06 1.62363e-06 -1.26444e-06 -2.32665e-06 -1.29193e-07 -2.95566e-06)
(9.12882e-06 2.23427e-07 -9.14561e-07 -4.05244e-06 -1.4365e-07 -2.30602e-06)
(7.21854e-06 -2.52942e-06 -2.17194e-07 -2.02833e-06 -1.64021e-07 -1.22319e-06)
(7.20208e-06 4.90679e-07 7.57212e-07 -3.28327e-06 -1.6614e-07 -4.10126e-06)
(1.16329e-05 -3.25074e-06 2.16573e-07 -3.08799e-06 -6.29906e-07 -3.25278e-06)
(2.60906e-06 -7.82521e-06 2.20483e-08 -1.24067e-06 -5.30757e-08 -3.59909e-07)
(7.11926e-06 -2.48839e-06 1.63358e-07 -1.98012e-06 -6.40874e-08 -1.66651e-06)
(9.3635e-06 -2.54379e-07 -5.24771e-07 -4.15162e-06 -3.32855e-08 -2.42089e-06)
(7.98115e-06 1.77622e-06 -1.32611e-06 -2.38308e-06 -1.4185e-07 -2.24378e-06)
(1.08745e-05 -7.62762e-07 -1.4053e-06 -3.47099e-06 -3.62015e-07 -4.24499e-06)
(7.23126e-06 6.98652e-07 -1.2656e-06 -1.94872e-06 -6.38161e-07 -3.13549e-06)
(9.56765e-06 2.82817e-07 1.02103e-07 -3.20382e-06 1.44191e-07 -3.42415e-06)
(2.62629e-06 -2.07004e-06 -4.76368e-08 -1.61429e-06 -2.57035e-07 -4.94411e-07)
(3.3966e-06 -1.65288e-06 -4.55799e-07 -1.39087e-06 -5.13548e-07 -7.83636e-07)
(1.06711e-05 -5.3067e-06 -7.96131e-07 -2.73628e-06 -2.68449e-07 -2.24226e-06)
(5.4221e-06 -6.99294e-06 -1.93286e-07 -1.39417e-06 -1.86421e-07 -1.08428e-06)
(4.72975e-06 -1.55484e-06 1.78821e-07 -2.1447e-06 -3.02545e-07 -1.66161e-06)
(6.23567e-06 -2.2603e-06 -1.16678e-06 -2.05568e-06 3.82252e-08 -8.06563e-07)
(6.8833e-06 -1.17181e-06 -2.08938e-07 -1.8859e-06 -2.09007e-07 -2.11838e-06)
(9.57001e-06 -5.55008e-06 -7.72645e-07 -2.48145e-06 4.57959e-08 -2.04498e-06)
(6.69337e-06 2.0866e-07 -2.64831e-07 -2.19977e-06 -3.81347e-07 -2.80188e-06)
(7.63458e-06 -1.27995e-06 -1.54128e-06 -3.65825e-06 -3.05142e-07 -3.56195e-06)
(9.39926e-06 -3.08314e-08 -1.7401e-07 -3.63197e-06 -4.09871e-07 -3.86678e-06)
(7.2219e-06 -2.17251e-06 -7.18965e-07 -2.80494e-06 -5.54526e-07 -3.11942e-06)
(7.34207e-06 -1.71908e-06 -5.03247e-07 -3.45842e-06 -7.77747e-07 -2.44424e-06)
(7.55496e-06 6.94882e-07 -9.74683e-08 -1.9487e-06 -6.62045e-07 -3.08849e-06)
(4.23052e-06 1.02724e-06 -1.72277e-06 -5.90512e-07 -3.72592e-07 -2.21786e-06)
(5.44331e-06 -4.5986e-06 -1.25461e-06 -2.81195e-06 -9.24652e-08 -1.64172e-06)
(1.03884e-05 -1.02205e-06 5.75112e-08 -3.71647e-06 -7.98276e-07 -4.32441e-06)
(6.69457e-06 1.04548e-07 -5.03384e-07 -2.01176e-06 -7.2813e-08 -2.37675e-06)
(2.65524e-06 -2.03978e-06 -7.01146e-08 -1.66548e-06 -3.91917e-08 -1.18033e-06)
(9.06582e-06 -1.91177e-07 -8.43935e-07 -3.30769e-06 -2.65938e-07 -2.28596e-06)
(1.12347e-06 -6.59355e-06 -6.97892e-08 -1.28901e-06 1.83188e-07 -3.59909e-07)
(7.07851e-06 9.10825e-07 6.64839e-07 -1.80963e-06 -6.81179e-07 -3.85862e-06)
(-4.97636e-07 -7.13377e-06 -3.08574e-07 -1.37565e-06 4.63013e-08 -3.59909e-07)
(7.60537e-06 -2.13142e-06 -1.15498e-07 -3.6917e-06 6.32994e-08 -2.51312e-06)
(1.1439e-05 -5.57238e-06 -8.12512e-07 -3.61588e-06 -3.93255e-07 -3.11942e-06)
(7.817e-06 -2.75048e-07 9.20892e-08 -1.91142e-06 -9.5523e-08 -3.1997e-06)
(9.0303e-07 -7.91838e-06 1.00486e-07 -7.59712e-07 7.80021e-08 -2.39134e-07)
(2.54856e-06 -9.20283e-06 -3.72195e-08 -7.4215e-07 6.63661e-08 -2.39134e-07)
(6.04776e-06 4.55551e-08 -6.69201e-07 -1.74812e-06 1.72603e-08 -2.05033e-06)
(8.76048e-06 -7.79757e-07 -7.07287e-07 -2.22734e-06 -4.80967e-07 -2.3972e-06)
(9.40455e-06 -5.43141e-06 2.09997e-07 -2.5376e-06 -1.47828e-07 -2.17449e-06)
(5.06043e-06 -2.64336e-06 1.82532e-07 -1.99038e-06 -8.3452e-08 -1.35919e-06)
(9.19495e-06 -2.86206e-08 -4.79951e-07 -3.61756e-06 -4.28937e-07 -4.29021e-06)
(5.71646e-06 -4.91892e-06 7.99905e-07 -2.57294e-06 -3.32685e-07 -1.97379e-06)
(1.15426e-05 -6.34147e-07 -1.54192e-06 -4.32435e-06 -6.06521e-07 -2.28693e-06)
(1.00229e-05 2.78073e-06 6.27304e-07 -2.08215e-06 -7.41853e-07 -4.6738e-06)
(5.36592e-06 -6.86009e-06 -3.11796e-07 -1.45821e-06 -1.56232e-07 -1.08428e-06)
(9.80903e-06 -5.43515e-06 -1.40625e-07 -2.53743e-06 -1.63409e-07 -2.74043e-06)
(1.10648e-05 -5.32133e-06 -8.35215e-07 -3.68338e-06 -4.90349e-08 -2.04824e-06)
(1.37734e-05 -4.45334e-06 9.60111e-07 -3.82661e-06 -6.05565e-07 -3.32586e-06)
(1.4245e-06 -2.22571e-06 -4.96224e-07 -1.37027e-06 -3.67578e-07 -6.51447e-07)
(5.73684e-06 2.63392e-07 -2.42618e-07 -1.20765e-06 -1.9605e-07 -3.8115e-06)
(4.43526e-06 -1.6572e-06 1.32536e-07 -1.85448e-06 -1.69429e-07 -2.15981e-06)
(1.38799e-06 -8.63634e-06 5.06719e-08 -1.01841e-06 2.21866e-08 -2.39134e-07)
(7.64695e-06 -4.88757e-07 -1.80324e-07 -3.32884e-06 -5.86402e-08 -2.48388e-06)
(9.29582e-06 -5.57443e-06 -2.37754e-07 -2.29133e-06 -6.04847e-08 -2.96543e-06)
(4.95921e-06 -1.49155e-07 -1.6948e-07 -1.22925e-06 -2.8797e-07 -2.80192e-06)
(9.31159e-06 -1.81481e-06 1.88506e-07 -3.48065e-06 -4.43297e-07 -3.37116e-06)
(5.7829e-06 -8.132e-07 -7.84052e-07 -1.99669e-06 -8.66251e-08 -1.72314e-06)
(7.1129e-06 -1.85295e-06 -4.26762e-07 -3.08084e-06 -3.1602e-07 -2.08816e-06)
(5.25654e-06 -4.36005e-06 -2.45422e-07 -2.78205e-06 -8.94421e-08 -2.10565e-06)
(4.44244e-06 -1.64451e-06 -1.36469e-07 -1.84493e-06 -3.02266e-07 -1.19834e-06)
(6.86489e-06 2.00563e-07 -2.46734e-06 -3.57032e-06 -1.10848e-06 -3.66639e-06)
(1.03203e-05 -3.30559e-06 -5.1817e-07 -4.11127e-06 -4.35111e-07 -2.89527e-06)
(1.07962e-06 -5.13945e-06 -1.08685e-06 -9.40218e-07 -5.78464e-08 -1.93367e-07)
(8.13121e-07 -4.93165e-06 1.3134e-06 -7.84095e-07 9.79288e-08 -8.5537e-07)
(3.67364e-06 -2.19356e-06 5.15204e-08 -1.63432e-06 2.84807e-07 -1.16015e-06)
(9.24656e-06 2.72048e-07 -1.26129e-06 -3.38161e-06 -4.50892e-07 -4.16724e-06)
(3.13401e-06 -2.4001e-06 -7.91609e-07 -1.56302e-06 5.58606e-07 -1.10885e-07)
(1.34483e-05 -3.32094e-06 -8.50082e-08 -3.17406e-06 -2.89221e-07 -4.42197e-06)
(1.10433e-05 -2.74233e-07 9.41428e-07 -3.31473e-06 -1.81203e-07 -2.947e-06)
(1.07311e-05 -1.52293e-06 -1.0372e-06 -4.91881e-06 -3.26276e-07 -2.40484e-06)
(1.17271e-06 -8.23383e-06 -6.49492e-08 -6.61581e-07 -1.38356e-07 -3.59909e-07)
(7.78129e-06 -1.28014e-06 4.08598e-07 -3.65877e-06 -4.21277e-07 -2.27667e-06)
(5.6211e-06 3.19471e-07 -2.88069e-07 -1.21246e-06 -2.83948e-07 -3.28882e-06)
(8.64861e-07 -6.65082e-06 1.01291e-07 -7.17862e-07 7.88174e-07 7.77671e-08)
(6.1162e-06 -6.98594e-06 -7.95093e-07 -1.76054e-06 -5.08513e-07 -1.35358e-06)
(6.61524e-06 -7.24116e-06 4.09245e-07 -1.67887e-06 2.38011e-07 -1.78783e-06)
(5.37307e-06 -1.71713e-08 -6.37059e-07 -1.33841e-06 2.98741e-08 -2.78841e-06)
(3.82635e-06 -6.83561e-06 -6.60714e-07 -1.35614e-06 3.94147e-08 -6.17777e-07)
(3.79981e-06 -7.22683e-06 2.19022e-07 -1.42213e-06 -6.37829e-08 -4.95817e-07)
(4.08806e-06 -3.95092e-07 -6.31478e-08 -1.68692e-06 -1.80077e-07 -1.91239e-06)
(1.57165e-06 -3.14965e-06 -2.12996e-07 -9.55642e-07 2.85517e-07 -1.15659e-08)
(2.461e-06 -4.20182e-06 -3.77873e-08 -7.69873e-07 -1.1075e-07 -2.3904e-07)
(9.80457e-06 -2.12916e-06 -3.08308e-07 -3.5663e-06 -4.32782e-07 -3.19837e-06)
(1.06748e-05 -3.23084e-06 -1.79506e-07 -5.13101e-06 1.33828e-07 -2.81073e-06)
(4.90986e-06 -7.54565e-07 5.30809e-08 -1.62726e-06 -5.01245e-08 -2.23092e-06)
(8.99398e-06 6.63209e-08 3.59261e-07 -3.63412e-06 -7.51424e-07 -3.87839e-06)
(1.13095e-05 -5.74992e-06 -3.3488e-07 -3.35244e-06 -1.57117e-07 -3.67448e-06)
(1.06769e-05 -7.09395e-07 4.73746e-07 -3.70354e-06 -7.62808e-07 -3.53856e-06)
(-1.71947e-06 -3.42911e-06 -3.00364e-07 4.33828e-07 -6.92891e-08 8.68636e-07)
(1.35189e-05 -3.00079e-06 -8.29189e-07 -3.22545e-06 -4.05293e-07 -3.64164e-06)
(7.55784e-06 9.71678e-08 -3.77684e-07 -2.34595e-06 1.32763e-07 -2.05951e-06)
(5.90552e-06 6.99895e-07 1.55583e-07 -1.12651e-06 -1.65736e-07 -3.13076e-06)
(1.10593e-05 -5.59583e-06 -4.16324e-07 -3.41426e-06 4.97759e-08 -2.95775e-06)
(1.33251e-05 -3.77595e-06 -1.64005e-06 -3.91851e-06 -6.50139e-07 -4.09172e-06)
(1.63495e-06 -8.28665e-06 8.29051e-08 -6.80376e-07 9.35375e-08 -2.39134e-07)
(7.50934e-06 -9.03622e-07 6.50337e-07 -2.23729e-06 -4.11379e-07 -2.05805e-06)
(4.42459e-06 -5.73022e-08 3.20124e-07 -1.22504e-06 -5.04424e-07 -2.37432e-06)
(8.14962e-07 -3.17529e-06 5.52097e-07 -8.25318e-07 -2.16719e-07 -1.90288e-07)
(1.9356e-07 -2.83125e-06 -1.03626e-06 -9.97972e-07 3.97588e-07 -3.07899e-07)
(6.74592e-06 -6.70157e-06 8.49897e-09 -1.6659e-06 -3.25484e-07 -1.28582e-06)
(7.21142e-06 -7.09404e-06 -3.99721e-07 -1.75999e-06 3.48534e-07 -1.50932e-06)
(9.60905e-06 -5.76045e-06 1.0057e-06 -2.76169e-06 -2.13173e-07 -2.26816e-06)
(5.98789e-06 1.48182e-07 -5.55039e-07 -1.82672e-06 3.45198e-08 -1.80202e-06)
(-3.05501e-06 -3.94471e-06 -1.0508e-07 -3.34901e-07 -3.38772e-07 8.68636e-07)
(2.42016e-06 -4.3663e-06 -7.19395e-08 -6.14302e-07 2.8323e-07 7.77671e-08)
(9.18092e-06 -6.11822e-08 -5.45556e-07 -3.56459e-06 -2.94527e-07 -3.95767e-06)
(4.89463e-06 6.56601e-08 -3.10756e-07 -1.82029e-06 -2.05878e-07 -1.8701e-06)
(9.98908e-06 2.78516e-06 -1.8726e-07 -2.07548e-06 -2.54065e-07 -4.2557e-06)
(-2.68941e-06 -4.26771e-06 -3.34764e-07 -5.22331e-08 -1.16105e-07 8.68636e-07)
(1.3319e-05 -3.84937e-06 -1.80645e-06 -4.08462e-06 -8.08175e-07 -3.88833e-06)
(7.96874e-06 -1.27348e-06 -2.51454e-07 -2.15615e-06 -3.13797e-07 -2.11099e-06)
(8.00613e-07 -7.76674e-06 -5.54794e-08 -4.11724e-07 7.58299e-08 -2.10213e-07)
(4.0668e-06 -5.03359e-06 3.9984e-07 -2.84221e-06 -3.20185e-08 -1.63591e-06)
(7.63041e-06 -7.2045e-06 1.52771e-07 -2.4291e-06 -4.7832e-08 -1.82482e-06)
(6.92593e-07 -7.92841e-06 -5.0027e-08 -4.82819e-07 -1.37942e-07 7.77671e-08)
(6.24378e-06 -3.53506e-06 -1.95191e-08 -3.7995e-06 -3.112e-08 -1.9652e-06)
(7.60266e-06 -7.19297e-06 -6.59803e-07 -2.42925e-06 -4.35867e-08 -1.67677e-06)
(2.271e-06 -4.02688e-06 5.18513e-08 -3.17624e-07 -3.22326e-08 -2.3904e-07)
(4.78933e-06 -1.63312e-08 -4.72713e-07 -1.87167e-06 -6.89827e-07 -1.88705e-06)
(9.03812e-07 -7.94279e-06 1.1704e-07 -9.6598e-07 -2.58165e-07 7.77671e-08)
(4.58783e-06 3.05566e-07 1.80353e-07 -1.21042e-06 -2.78549e-07 -2.70734e-06)
(-3.21757e-06 -3.7627e-06 -5.59278e-07 2.17932e-07 7.71214e-07 7.77671e-08)
(6.97011e-06 2.62824e-06 -4.03906e-07 -1.89377e-06 -3.03182e-07 -2.94365e-06)
(1.12524e-05 -5.42621e-06 -3.91742e-07 -3.28885e-06 3.93925e-08 -2.75232e-06)
(6.29796e-06 -8.95391e-07 1.6526e-07 -1.92452e-06 -1.47736e-07 -1.74145e-06)
(-9.85294e-07 -4.98836e-06 -1.61998e-06 4.964e-07 6.02763e-07 6.28263e-08)
(5.32388e-06 -3.28127e-06 -2.81521e-07 -1.44544e-06 2.05072e-07 -1.23944e-06)
(-2.45405e-06 -4.07211e-06 1.08163e-07 1.00259e-07 1.24163e-07 7.77671e-08)
(7.42446e-06 -2.30905e-06 -4.48744e-07 -2.9881e-06 -2.01381e-07 -1.97348e-06)
(4.33697e-06 -1.40052e-06 -1.34212e-07 -2.12653e-06 -1.75412e-07 -1.5125e-06)
(-1.01978e-06 -5.30249e-06 1.86662e-06 3.8493e-07 -6.41188e-07 3.21112e-07)
(8.86893e-06 -3.40716e-07 -7.39196e-07 -3.74066e-06 -8.4003e-07 -3.54825e-06)
(4.50348e-06 1.21986e-07 1.40239e-07 -1.36212e-06 -6.21306e-08 -2.53089e-06)
(6.18613e-06 2.03091e-06 -1.25133e-06 -1.80534e-06 -1.53057e-06 -3.23709e-06)
(8.07392e-06 4.95356e-07 -2.32125e-07 -2.56542e-06 -4.32886e-07 -2.35214e-06)
(1.24446e-06 -8.47442e-06 -1.64824e-08 -1.09454e-06 1.77658e-08 -2.10213e-07)
(5.54619e-06 1.80811e-07 -8.71438e-07 -1.39309e-06 -9.7854e-08 -2.54114e-06)
(4.30143e-06 -1.11011e-06 -3.05061e-07 -2.05606e-06 -4.0182e-10 -1.195e-06)
(2.33538e-06 -3.09647e-06 -1.39435e-09 -9.29556e-07 -5.14037e-07 -6.54922e-07)
(-1.15818e-06 -8.8256e-06 1.08631e-07 8.66348e-07 9.47444e-08 7.77671e-08)
(8.7873e-06 -1.7537e-06 -2.67164e-07 -3.19579e-06 3.16495e-07 -2.40328e-06)
(2.66047e-06 -4.09929e-06 -4.28058e-07 -3.30912e-07 -2.87059e-08 7.77671e-08)
(6.59191e-06 -1.65649e-08 4.55218e-07 -1.88625e-06 -1.14058e-07 -2.947e-06)
(4.81311e-06 4.34394e-08 -3.12786e-07 -1.79362e-06 -5.63546e-08 -1.55393e-06)
(5.36675e-06 -3.5492e-08 1.08042e-07 -1.321e-06 -2.96154e-07 -2.99621e-06)
(3.47093e-06 -3.13883e-06 3.10855e-07 -9.58226e-07 2.29616e-07 -1.17741e-06)
(3.86983e-06 -4.86985e-06 -5.74775e-07 -2.55972e-06 -1.38178e-07 -1.27976e-06)
(-6.58039e-07 -6.42415e-06 4.75266e-08 1.23941e-07 -5.01347e-07 7.77671e-08)
(1.13166e-05 -5.7788e-06 -5.64649e-07 -3.36457e-06 -9.88514e-08 -2.16326e-06)
(1.13663e-05 -2.16008e-06 -7.97701e-07 -4.46701e-06 -2.39766e-07 -2.60077e-06)
(6.29953e-06 5.24954e-08 -7.2578e-07 -2.24657e-06 -4.43085e-07 -2.45973e-06)
(4.46061e-06 -3.44414e-07 -5.96978e-07 -1.26061e-06 -2.66296e-07 -2.37581e-06)
(5.88057e-06 4.97019e-08 5.21717e-07 -1.87659e-06 -1.10333e-07 -2.947e-06)
(6.79086e-06 -1.26273e-06 -1.17502e-07 -2.14787e-06 -3.07291e-07 -2.11908e-06)
(4.47555e-06 -2.84448e-07 8.63644e-08 -1.21731e-06 -1.77723e-09 -2.23591e-06)
(1.02088e-05 -1.46663e-06 1.04824e-07 -2.97672e-06 -4.68595e-08 -2.947e-06)
(1.34577e-05 -3.85965e-06 -7.39047e-07 -4.21825e-06 -3.9974e-07 -2.87978e-06)
(1.40243e-05 -3.8964e-06 -1.02058e-06 -4.25548e-06 -5.58982e-07 -3.53544e-06)
(-1.05574e-06 -5.14192e-06 -1.29791e-06 1.07402e-07 5.34542e-08 1.2026e-06)
(-3.88906e-07 -5.10906e-06 1.56993e-06 1.69914e-07 1.46632e-07 1.46096e-06)
(5.50947e-06 2.55095e-07 -1.98717e-07 -1.85034e-06 -4.87307e-08 -2.01977e-06)
(1.31953e-05 -2.98339e-06 -4.48617e-07 -3.17829e-06 -3.45593e-07 -3.95555e-06)
(9.01184e-06 -5.50154e-06 -1.80303e-06 -2.51476e-06 1.20665e-07 -1.34336e-06)
(1.57408e-05 6.21352e-07 -1.14856e-06 -3.59868e-06 -9.24439e-07 -3.77608e-06)
(4.35762e-06 -1.46506e-06 -2.24223e-07 -2.02734e-06 1.36991e-08 -1.2031e-06)
(7.08703e-06 -6.62175e-06 -3.22265e-07 -1.98265e-06 -1.26348e-07 -1.19308e-06)
(7.39663e-06 -7.32536e-06 -2.35117e-07 -2.59705e-06 -2.6002e-07 -1.50726e-06)
(5.37663e-06 1.55329e-06 -2.38024e-06 -3.62435e-06 -1.14391e-06 -3.10695e-07)
(7.62436e-06 -1.04938e-06 -3.92812e-07 -1.97061e-06 -1.92096e-10 -2.14948e-06)
(1.33631e-05 -4.16395e-06 -2.83847e-07 -4.85933e-06 1.9185e-07 -2.81579e-06)
(1.3382e-05 -2.94481e-06 -1.3802e-07 -3.23373e-06 -2.72946e-07 -3.4401e-06)
(7.98387e-06 -4.32785e-06 -2.10329e-07 -3.5232e-06 7.34581e-08 -1.94794e-06)
(4.40748e-07 -3.42874e-06 -3.81751e-07 -9.03383e-07 2.1739e-07 -3.09595e-08)
(7.1139e-06 -1.69748e-06 2.12871e-07 -1.89371e-06 9.114e-07 -2.84556e-06)
(4.08071e-06 -1.42909e-06 3.37145e-07 -1.96633e-06 -1.61488e-07 -1.7197e-06)
(8.49523e-06 8.63221e-07 3.04346e-07 -2.08787e-06 -8.63559e-08 -2.947e-06)
(1.07781e-05 -6.13625e-06 2.92588e-07 -3.59167e-06 4.91366e-07 -3.48374e-06)
(1.09897e-05 -5.34502e-06 -6.81962e-07 -3.45678e-06 -1.63409e-07 -2.86449e-06)
(-1.91428e-06 -9.30532e-06 -2.16094e-08 5.80973e-07 -1.14065e-07 8.94104e-07)
(1.44016e-06 -8.17463e-06 2.03769e-08 -7.2626e-07 9.9357e-08 -2.10213e-07)
(7.62467e-06 -1.07263e-06 -1.38882e-07 -1.9815e-06 5.15572e-08 -1.98384e-06)
(1.32887e-05 -3.27723e-06 -7.99538e-07 -3.2529e-06 -2.24028e-07 -3.16298e-06)
(1.61841e-06 -8.33782e-06 -2.70702e-08 -8.25834e-07 -1.30822e-07 7.77671e-08)
(-1.29124e-06 -6.2751e-06 -7.40057e-09 4.09316e-07 2.45459e-08 8.94104e-07)
(4.22116e-06 1.26031e-06 -1.87758e-06 -3.80168e-07 -6.35135e-07 -1.95938e-06)
(4.61908e-06 3.04023e-07 7.89971e-08 -1.41616e-06 -1.12466e-07 -2.50468e-06)
(8.09497e-06 -1.04995e-06 -6.48221e-07 -4.27199e-06 -5.64855e-07 -2.47594e-06)
(9.09777e-06 7.63797e-07 -5.89501e-07 -2.67086e-06 -5.23611e-07 -2.47502e-06)
(-1.64904e-06 -8.05865e-06 1.42018e-06 -3.38355e-07 -5.83305e-07 9.86321e-07)
(-9.03622e-07 -7.63694e-06 -1.26827e-06 -1.67271e-07 6.95324e-07 1.92194e-08)
(3.67926e-06 -1.30682e-06 -3.65991e-08 -1.9955e-06 2.97834e-08 -1.32444e-06)
(-1.82512e-06 -2.43868e-06 7.79788e-07 4.69831e-07 -1.34253e-07 6.85282e-07)
(1.39356e-05 -8.58629e-08 -1.17778e-06 -3.43282e-06 -5.86147e-07 -4.37726e-06)
(5.06618e-06 2.0575e-06 3.31582e-06 -2.99285e-06 -8.5132e-09 -4.35502e-06)
(3.32134e-06 1.55475e-06 5.09221e-08 8.19691e-07 5.07419e-07 -2.71894e-06)
(6.28966e-06 -2.25841e-06 -3.09938e-07 -2.97608e-06 -1.9601e-07 -1.9811e-06)
(2.52835e-06 -4.41137e-06 -6.95614e-08 -1.28332e-07 6.31405e-10 -2.3904e-07)
(6.90438e-06 -2.11347e-06 -3.43704e-07 -2.66017e-06 -5.04509e-07 -2.69922e-06)
(4.98432e-06 -4.44016e-06 4.19813e-08 -8.0447e-07 -4.16272e-07 -1.16318e-06)
(4.98432e-06 -4.44016e-06 -3.52294e-07 -8.0447e-07 2.52751e-07 -1.14592e-06)
(7.76376e-06 -4.39514e-07 3.46755e-07 -3.12999e-06 -6.6883e-08 -2.947e-06)
(3.27543e-06 -3.38906e-06 1.47761e-07 -1.25743e-06 6.96511e-08 -1.20049e-06)
(2.47123e-06 -3.14161e-06 -4.68438e-08 -1.42612e-06 -1.66791e-07 -8.5537e-07)
(9.1135e-06 6.25709e-07 -1.41195e-07 -3.83917e-06 -1.1456e-06 -3.12716e-06)
(7.77642e-07 -7.50583e-06 -4.83063e-08 -1.14592e-06 -7.63133e-08 -2.10213e-07)
(-1.6309e-06 -2.60266e-06 -1.19246e-06 5.66306e-07 3.93879e-08 4.71293e-07)
(3.62386e-06 -7.88348e-07 8.98568e-08 -1.09171e-06 -1.74711e-07 -1.7425e-06)
(3.01209e-06 1.43586e-06 -3.39398e-07 7.96879e-07 -3.91855e-07 -3.79247e-06)
(2.30386e-06 -8.88596e-06 -8.66247e-07 -1.23716e-06 -5.16421e-07 -8.111e-07)
(1.82352e-06 -8.35997e-06 6.39853e-07 -1.54583e-06 1.15004e-07 -2.74517e-07)
(-8.45208e-07 -2.34177e-06 9.66562e-07 7.75028e-08 3.98493e-07 6.28263e-08)
(8.17081e-06 -3.88163e-06 -2.02882e-07 -2.73749e-06 -5.34096e-08 -2.02252e-06)
(3.89656e-06 1.08522e-06 -1.54215e-06 -4.71852e-07 -4.60746e-07 -2.29049e-06)
(1.54495e-05 1.64025e-07 5.35836e-08 -3.75166e-06 -4.05737e-07 -4.24502e-06)
(2.91941e-06 -9.36629e-06 -2.93261e-07 -1.5549e-06 -2.35699e-07 -1.04266e-06)
(6.30465e-06 2.33274e-06 -1.70198e-07 -1.90155e-06 -7.22761e-07 -2.03235e-06)
(2.77243e-06 -6.81773e-06 -2.95051e-07 -1.21688e-06 -1.73498e-07 -1.04266e-06)
(7.17242e-06 -1.84347e-06 4.76113e-07 -2.44135e-06 3.68994e-08 -1.71331e-06)
(5.52905e-06 -1.09516e-06 -1.77681e-07 -1.97159e-06 1.45808e-09 -1.80284e-06)
(6.99829e-06 2.52211e-06 -8.72998e-07 -1.85207e-06 -8.87225e-07 -1.65826e-06)
(3.14026e-06 -6.34822e-06 1.31835e-07 -8.42956e-07 4.67519e-08 -1.01485e-06)
(3.09801e-06 -6.30096e-06 -6.23193e-07 -4.69157e-07 -4.9761e-07 -1.24553e-06)
(4.1437e-06 1.03204e-06 9.07402e-08 1.73892e-09 -7.17861e-07 -3.96891e-06)
(6.18512e-06 2.7768e-06 -7.23432e-08 -2.58652e-06 -2.96007e-07 -1.46509e-06)
(-8.84122e-07 -2.73989e-06 -1.06076e-06 -4.47894e-08 -3.70012e-07 2.61335e-07)
(1.26896e-05 1.99588e-06 -1.41648e-06 -3.8493e-06 -2.69898e-07 -2.82669e-06)
(1.48752e-05 -7.99425e-07 -2.47837e-06 -4.76976e-06 -7.81338e-07 -2.82422e-06)
(7.45794e-06 -4.4263e-06 -3.44314e-07 -3.10456e-06 -5.53068e-07 -1.98224e-06)
(4.7976e-06 -4.33026e-06 -1.06329e-08 -2.36585e-06 1.78085e-07 -9.379e-07)
(1.43549e-05 1.88679e-07 -5.75207e-07 -3.27059e-06 -1.07874e-07 -3.91143e-06)
(1.17596e-05 1.98246e-06 1.0285e-06 -3.03603e-06 -1.88013e-07 -4.52923e-06)
(6.04605e-06 2.2967e-06 3.34286e-07 -1.05931e-06 -4.71623e-08 -4.38646e-06)
(5.50939e-06 7.83312e-08 2.71468e-07 -9.9179e-07 -2.82451e-07 -1.55994e-06)
(1.65833e-05 -5.12362e-07 -1.84367e-06 -4.01171e-06 -9.43459e-07 -4.78426e-06)