/*--------------------------------*- C++ -*----------------------------------*\
| =========                 |                                                 |
| \\      /  F ield         | OpenFOAM: The Open Source CFD Toolbox           |
|  \\    /   O peration     | Version:  v2012                                 |
|   \\  /    A nd           | Website:  www.openfoam.com                      |
|    \\/     M anipulation  |                                                 |
\*---------------------------------------------------------------------------*/
FoamFile
{
    version     2.0;
    format      ascii;
    class       volScalarField;
    location    "1";
    object      sigmaEq;
}
// * * * * * * * * * * * * * * * * * * * * * * * * * * * * * * * * * * * * * //

dimensions      [1 -1 -2 0 0 0 0];


internalField   nonuniform List<scalar> 
3791
(
2.58762e+06
2.25049e+06
2.70261e+06
2.95637e+06
4.78646e+06
2.77124e+06
4.54739e+06
3.48067e+06
2.09085e+06
2.67414e+06
3.42901e+06
3.77749e+06
2.19863e+06
2.2373e+06
2.62287e+06
3.83594e+06
2.92964e+06
2.78111e+06
2.74753e+06
2.71986e+06
2.63266e+06
3.30606e+06
2.8161e+06
2.5015e+06
3.8208e+06
2.1957e+06
2.06638e+06
2.97442e+06
2.59958e+06
2.45578e+06
2.43507e+06
4.54583e+06
4.11684e+06
5.36692e+06
1.45638e+06
2.95637e+06
2.77124e+06
5.65266e+06
3.14898e+06
3.37426e+06
2.03339e+06
3.42922e+06
1.6471e+06
3.11921e+06
2.9987e+06
3.23704e+06
2.2563e+06
2.26803e+06
2.19724e+06
5.10369e+06
2.73837e+06
3.14062e+06
3.32737e+06
2.22614e+06
2.35871e+06
2.16676e+06
2.20945e+06
2.35569e+06
2.17993e+06
2.70111e+06
1.56217e+06
3.2402e+06
4.37903e+06
2.25896e+06
4.38001e+06
2.63888e+06
2.86458e+06
3.10058e+06
3.02744e+06
3.738e+06
2.22893e+06
2.7717e+06
2.76465e+06
3.58693e+06
3.21507e+06
5.09177e+06
3.36402e+06
3.28339e+06
5.3742e+06
3.5063e+06
1.74562e+06
3.57215e+06
1.70885e+06
3.05118e+06
5.80109e+06
3.39785e+06
1.66223e+06
3.03448e+06
5.47593e+06
2.21952e+06
3.28162e+06
1.56219e+06
5.83784e+06
3.178e+06
2.95637e+06
2.77124e+06
5.64279e+06
1.5386e+06
4.69632e+06
4.31693e+06
2.5882e+06
2.07389e+06
4.59562e+06
2.29356e+06
4.55928e+06
1.89077e+06
2.3614e+06
5.9181e+06
6.16935e+06
2.58344e+06
2.59462e+06
2.43567e+06
2.01563e+06
2.16076e+06
3.90501e+06
4.8219e+06
1.93682e+06
2.69877e+06
2.3756e+06
3.12572e+06
765084
1.16324e+06
3.19504e+06
2.74125e+06
1.51638e+06
961861
3.02386e+06
3.03276e+06
2.47449e+06
1.84136e+06
2.18948e+06
1.85257e+06
1.82694e+06
1.80318e+06
2.28796e+06
2.74853e+06
1.76655e+06
2.24723e+06
1.68393e+06
2.65846e+06
1.87369e+06
2.02082e+06
1.60016e+06
1.78216e+06
2.56531e+06
2.26106e+06
1.60495e+06
2.0642e+06
1.77541e+06
2.42608e+06
1.6479e+06
2.0832e+06
847852
884665
2.60463e+06
2.23464e+06
1.16255e+06
1.4391e+06
1.47499e+06
2.47304e+06
1.49441e+06
1.90294e+06
2.12793e+06
1.77268e+06
1.75599e+06
1.65719e+06
1.09825e+06
1.82794e+06
2.35728e+06
1.44412e+06
874538
1.93822e+06
1.87678e+06
1.66796e+06
2.00383e+06
1.83742e+06
2.86712e+06
1.6874e+06
2.22853e+06
2.6223e+06
1.29809e+06
1.81791e+06
2.43441e+06
1.31973e+06
2.13376e+06
1.90414e+06
2.46592e+06
2.34453e+06
2.20134e+06
2.52199e+06
2.71806e+06
3.08433e+06
763241
1.38574e+06
1.1417e+06
2.44074e+06
1.71514e+06
2.48124e+06
1.15253e+06
2.12366e+06
1.27523e+06
1.66255e+06
1.74636e+06
1.0755e+06
1.85576e+06
2.43036e+06
1.49739e+06
1.45239e+06
1.0289e+06
2.1407e+06
988526
2.94321e+06
2.30719e+06
2.40904e+06
2.32054e+06
1.79099e+06
1.31229e+06
1.88712e+06
2.33022e+06
2.43748e+06
1.23129e+06
2.07542e+06
2.16803e+06
959501
956139
1.27208e+06
2.21751e+06
2.55414e+06
1.1281e+06
2.07316e+06
2.88695e+06
2.33187e+06
1.03842e+06
2.8765e+06
1.58142e+06
1.34364e+06
2.78649e+06
3.03275e+06
2.34418e+06
1.59513e+06
1.03199e+06
932944
867168
2.30019e+06
2.45049e+06
2.5536e+06
1.27061e+06
1.2427e+06
1.30273e+06
2.09861e+06
1.0939e+06
2.28553e+06
1.30485e+06
3.04666e+06
1.67415e+06
2.18083e+06
1.74991e+06
2.56064e+06
2.22478e+06
1.79376e+06
2.55509e+06
1.19977e+06
1.10238e+06
2.23915e+06
1.08544e+06
1.21463e+06
1.69781e+06
2.76382e+06
1.33882e+06
1.49242e+06
1.41874e+06
1.21202e+06
1.73687e+06
1.07415e+06
1.59852e+06
2.04789e+06
1.0561e+06
1.62709e+06
1.71286e+06
2.39401e+06
1.24964e+06
1.01732e+06
1.01391e+06
2.48612e+06
1.9416e+06
1.2393e+06
1.46866e+06
1.05225e+06
1.2412e+06
1.14955e+06
1.67052e+06
1.80712e+06
2.80031e+06
2.50622e+06
1.41823e+06
1.04682e+06
1.35618e+06
1.48714e+06
1.01538e+06
2.16701e+06
2.96713e+06
3.11193e+06
1.51714e+06
1.51938e+06
1.20629e+06
2.84e+06
2.40323e+06
3.17026e+06
1.0565e+06
2.32763e+06
2.56191e+06
1.53531e+06
1.5957e+06
3.02799e+06
2.82508e+06
2.12536e+06
985820
1.63057e+06
1.04292e+06
1.80148e+06
2.88468e+06
2.73986e+06
2.63913e+06
2.30919e+06
1.58125e+06
2.82777e+06
2.35865e+06
1.78486e+06
1.11314e+06
1.07775e+06
1.9078e+06
1.91032e+06
2.32473e+06
2.17903e+06
941579
816167
2.90846e+06
1.79493e+06
964703
1.56058e+06
1.30995e+06
1.66607e+06
1.57767e+06
1.57707e+06
1.75228e+06
1.19614e+06
1.05915e+06
2.07014e+06
2.1174e+06
873206
850331
1.06084e+06
2.55998e+06
2.39394e+06
732624
2.0243e+06
1.04239e+06
3.14475e+06
2.71075e+06
1.50162e+06
2.01144e+06
1.58961e+06
1.2378e+06
1.61847e+06
1.89447e+06
1.89153e+06
1.18853e+06
1.54751e+06
844995
2.68299e+06
3.12261e+06
2.04983e+06
1.61113e+06
2.90544e+06
2.59622e+06
1.62636e+06
1.10463e+06
3.44314e+06
1.0507e+06
933475
2.19263e+06
1.97481e+06
3.31222e+06
3.29409e+06
809634
1.0525e+06
764703
3.10032e+06
1.63852e+06
1.05059e+06
906163
2.20595e+06
901504
1.25233e+06
1.51309e+06
2.89228e+06
3.01487e+06
2.33092e+06
1.13247e+06
1.14351e+06
3.40847e+06
1.5115e+06
2.87335e+06
2.92905e+06
2.0221e+06
1.32881e+06
877006
2.20295e+06
2.41077e+06
1.47768e+06
1.80698e+06
1.63926e+06
832080
1.38027e+06
3.23892e+06
797650
2.28721e+06
2.4507e+06
2.63041e+06
2.76879e+06
914157
1.60663e+06
1.02591e+06
2.81777e+06
1.99167e+06
2.2892e+06
2.82829e+06
2.71986e+06
2.43972e+06
3.08288e+06
1.53149e+06
2.06936e+06
2.25153e+06
2.82809e+06
821307
941191
2.54047e+06
2.98631e+06
1.17494e+06
2.32993e+06
1.96234e+06
1.3878e+06
2.01469e+06
1.72347e+06
873119
2.62587e+06
2.32553e+06
2.45675e+06
2.67202e+06
888986
1.3187e+06
748281
1.64362e+06
2.17916e+06
2.9079e+06
2.05718e+06
2.28116e+06
2.49954e+06
906469
1.22286e+06
1.68927e+06
1.85572e+06
1.8476e+06
1.02876e+06
2.0757e+06
1.12433e+06
1.89426e+06
1.08285e+06
761078
1.24817e+06
1.667e+06
1.05099e+06
1.97644e+06
1.27429e+06
1.9111e+06
1.89801e+06
790072
2.36658e+06
2.28516e+06
970801
2.88498e+06
2.60481e+06
928847
1.30402e+06
3.20454e+06
2.83242e+06
3.13292e+06
943298
873676
1.06201e+06
882579
2.81813e+06
3.14216e+06
2.4029e+06
2.64279e+06
866368
3.10149e+06
722843
2.87174e+06
2.07996e+06
1.63293e+06
962678
690174
866699
1.59481e+06
1.63671e+06
846759
835417
1.62742e+06
2.56974e+06
2.16873e+06
2.34099e+06
2.29638e+06
2.29599e+06
2.64038e+06
2.93462e+06
3.24263e+06
1.08797e+06
1.00592e+06
903574
2.14598e+06
1.83504e+06
1.78308e+06
3.07517e+06
2.20543e+06
1.45647e+06
1.4389e+06
1.93627e+06
3.03765e+06
1.45649e+06
1.08362e+06
1.89669e+06
2.01331e+06
1.352e+06
1.07252e+06
1.03207e+06
1.0338e+06
1.59945e+06
1.6936e+06
698211
1.00885e+06
1.62154e+06
1.90278e+06
1.7157e+06
1.64803e+06
1.35254e+06
1.14477e+06
5.40936e+06
4.82159e+06
2.54272e+06
3.77827e+06
4.98857e+06
3.66359e+06
4.73429e+06
4.44959e+06
2.44708e+06
4.07231e+06
4.7349e+06
4.75191e+06
2.54672e+06
3.1169e+06
4.42939e+06
3.51145e+06
2.58527e+06
4.36548e+06
3.4716e+06
3.07232e+06
2.68443e+06
2.46975e+06
3.45676e+06
4.86897e+06
3.58188e+06
4.65504e+06
3.20829e+06
3.7553e+06
3.42086e+06
2.44954e+06
2.23834e+06
3.14831e+06
2.51368e+06
3.12382e+06
2.34753e+06
4.52325e+06
3.85294e+06
3.28931e+06
3.58169e+06
3.72782e+06
4.53053e+06
5.08744e+06
3.09319e+06
3.68535e+06
4.08385e+06
3.28264e+06
3.76527e+06
2.69216e+06
4.56137e+06
2.71011e+06
3.75914e+06
2.64087e+06
3.49639e+06
2.60025e+06
2.77632e+06
3.43576e+06
3.05715e+06
2.2338e+06
2.8735e+06
2.91658e+06
3.8737e+06
3.69803e+06
5.52066e+06
4.00993e+06
2.22518e+06
2.34473e+06
2.66324e+06
2.87713e+06
2.72383e+06
3.99021e+06
3.34933e+06
2.41717e+06
3.65424e+06
2.27466e+06
4.00147e+06
3.30559e+06
3.585e+06
3.3148e+06
3.19658e+06
3.36861e+06
4.29431e+06
3.48234e+06
2.35053e+06
2.28899e+06
3.26286e+06
4.01501e+06
3.18649e+06
2.83253e+06
3.64775e+06
3.73952e+06
2.73709e+06
3.84952e+06
3.76233e+06
2.75447e+06
3.85954e+06
2.33159e+06
2.45145e+06
2.2982e+06
2.42068e+06
4.41887e+06
2.2402e+06
2.41992e+06
3.5514e+06
3.77275e+06
3.58994e+06
4.18379e+06
2.65346e+06
3.48391e+06
2.82374e+06
3.98374e+06
2.69248e+06
4.09479e+06
2.55443e+06
2.94112e+06
2.33173e+06
3.29814e+06
4.35859e+06
2.68939e+06
2.92999e+06
2.34083e+06
2.51624e+06
2.47502e+06
3.89624e+06
2.34284e+06
2.31528e+06
4.51394e+06
3.51793e+06
5.52346e+06
2.06759e+06
2.94548e+06
3.75662e+06
2.57512e+06
1.44935e+06
3.12915e+06
2.54921e+06
1.51717e+06
3.5085e+06
2.53709e+06
2.3604e+06
4.28377e+06
4.40816e+06
2.63989e+06
2.05895e+06
5.82125e+06
2.57863e+06
3.45009e+06
2.07419e+06
3.01387e+06
1.89688e+06
3.21195e+06
3.36067e+06
2.26915e+06
4.56481e+06
3.47915e+06
5.89086e+06
3.90335e+06
2.37294e+06
4.05048e+06
3.73007e+06
2.45428e+06
1.86795e+06
3.57056e+06
2.33758e+06
3.60373e+06
4.44864e+06
3.87606e+06
2.62311e+06
2.98902e+06
2.00082e+06
2.70976e+06
3.56371e+06
3.70079e+06
3.88098e+06
3.75451e+06
3.04907e+06
3.75955e+06
3.32047e+06
2.89514e+06
3.01344e+06
2.03687e+06
2.24572e+06
4.2376e+06
2.66295e+06
2.2808e+06
3.86586e+06
3.6447e+06
2.2459e+06
2.50349e+06
2.70024e+06
5.15383e+06
3.0437e+06
2.65651e+06
3.31115e+06
2.8107e+06
3.08411e+06
3.95389e+06
3.63697e+06
2.78444e+06
2.74651e+06
1.78003e+06
2.23573e+06
2.87904e+06
2.33315e+06
2.75451e+06
2.04e+06
5.2306e+06
4.57848e+06
3.98775e+06
3.92605e+06
1.86973e+06
1.71464e+06
3.43769e+06
2.80146e+06
4.50789e+06
4.94263e+06
3.76178e+06
3.68837e+06
2.11426e+06
3.26072e+06
1.68381e+06
1.68242e+06
3.76038e+06
2.7557e+06
2.49688e+06
4.74544e+06
1.70324e+06
2.87187e+06
4.06131e+06
1.49082e+06
1.45062e+06
5.28844e+06
2.09519e+06
3.07339e+06
3.81249e+06
5.19913e+06
1.29805e+06
5.05835e+06
1.34479e+06
3.20577e+06
5.26559e+06
3.00248e+06
5.17954e+06
1.524e+06
1.48852e+06
5.48931e+06
2.26633e+06
4.23591e+06
3.83939e+06
2.8857e+06
2.77108e+06
3.67468e+06
3.86904e+06
5.60036e+06
4.02176e+06
4.14689e+06
5.16287e+06
2.5909e+06
2.88011e+06
4.22706e+06
4.02316e+06
4.00027e+06
2.77115e+06
5.23394e+06
3.9525e+06
3.26489e+06
3.64306e+06
3.0008e+06
3.84627e+06
3.20177e+06
3.07289e+06
3.38924e+06
4.3033e+06
4.37429e+06
2.24269e+06
4.63003e+06
1.88829e+06
4.05153e+06
2.95309e+06
3.87343e+06
3.50422e+06
3.70882e+06
3.83516e+06
2.48841e+06
2.42681e+06
2.70548e+06
4.55426e+06
3.13612e+06
2.79471e+06
4.34598e+06
4.22507e+06
3.93132e+06
3.84717e+06
2.38307e+06
2.21333e+06
2.64182e+06
2.76818e+06
3.95088e+06
2.70287e+06
2.53654e+06
2.90921e+06
2.70109e+06
1.50606e+06
1.65003e+06
3.5825e+06
5.19492e+06
1.45943e+06
1.36742e+06
3.12508e+06
3.96754e+06
5.5453e+06
2.4746e+06
3.16131e+06
2.26824e+06
4.56427e+06
3.73849e+06
2.34807e+06
2.7462e+06
2.53244e+06
3.5412e+06
3.31332e+06
3.63076e+06
3.93637e+06
4.47404e+06
5.17233e+06
3.22936e+06
3.15519e+06
4.52763e+06
5.89417e+06
3.28602e+06
3.48318e+06
2.87081e+06
2.24973e+06
2.4979e+06
4.62728e+06
4.79332e+06
1.89838e+06
1.88394e+06
5.68385e+06
4.90416e+06
5.6959e+06
2.70319e+06
3.3474e+06
5.93614e+06
3.66112e+06
5.65166e+06
4.63403e+06
3.52318e+06
1.7847e+06
1.79217e+06
2.97541e+06
2.30973e+06
2.20034e+06
3.34129e+06
2.79801e+06
2.51253e+06
4.80663e+06
4.12708e+06
3.93706e+06
3.68554e+06
3.12775e+06
3.38448e+06
5.58121e+06
2.73901e+06
2.70964e+06
4.52894e+06
2.73528e+06
3.10405e+06
2.83512e+06
2.84255e+06
2.5811e+06
2.80855e+06
4.59246e+06
4.70401e+06
2.38387e+06
4.32016e+06
2.43626e+06
2.54867e+06
4.4552e+06
4.3969e+06
5.79126e+06
2.89695e+06
2.65875e+06
2.55951e+06
2.08695e+06
2.28225e+06
2.26329e+06
2.32623e+06
2.71561e+06
2.91398e+06
3.22556e+06
4.10809e+06
3.80931e+06
2.95746e+06
2.21148e+06
5.38583e+06
4.68823e+06
2.92366e+06
3.52451e+06
2.86971e+06
2.5203e+06
4.1789e+06
3.49839e+06
3.65917e+06
3.91537e+06
4.22239e+06
3.80381e+06
3.64024e+06
3.44461e+06
3.88447e+06
4.49602e+06
3.09602e+06
2.99245e+06
2.98653e+06
2.6227e+06
4.02011e+06
4.83487e+06
3.97046e+06
3.87536e+06
2.86658e+06
5.53448e+06
3.1815e+06
5.25228e+06
4.29625e+06
662543
3.12495e+06
4.98593e+06
4.65887e+06
5.19841e+06
3.64895e+06
2.96826e+06
3.65913e+06
3.64965e+06
3.92672e+06
2.71128e+06
3.81019e+06
505129
2.76516e+06
3.79866e+06
4.31844e+06
4.3428e+06
3.80538e+06
1.41706e+06
1.6803e+06
3.78849e+06
3.02438e+06
2.22705e+06
4.50746e+06
1.36029e+06
3.08451e+06
2.45089e+06
2.53407e+06
2.19716e+06
3.56454e+06
5.19125e+06
1.59866e+06
1.51468e+06
3.61123e+06
685691
5.75717e+06
4.50786e+06
429998
2.72487e+06
4.7648e+06
1.28921e+06
1.1497e+06
3.80329e+06
2.87648e+06
4.79471e+06
2.14635e+06
2.13102e+06
2.88496e+06
3.60288e+06
1.50003e+06
3.57932e+06
2.80024e+06
5.58541e+06
5.92768e+06
1.24939e+06
2.3564e+06
1.3063e+06
4.24066e+06
2.12127e+06
1.27364e+06
3.87703e+06
2.34154e+06
2.86852e+06
2.60236e+06
1.70441e+06
1.92997e+06
3.08148e+06
2.76032e+06
1.53877e+06
1.51894e+06
1.57632e+06
4.12246e+06
1.3558e+06
3.79896e+06
2.16935e+06
3.41711e+06
4.44831e+06
1.06631e+06
2.63994e+06
4.23675e+06
1.07352e+06
1.35623e+06
1.42814e+06
3.63913e+06
921509
849565
3.10797e+06
1.72937e+06
2.55824e+06
1.80869e+06
2.92782e+06
3.37664e+06
3.27513e+06
2.82673e+06
2.54248e+06
4.28867e+06
3.77196e+06
3.49118e+06
2.42796e+06
4.73395e+06
3.36254e+06
3.95843e+06
1.99034e+06
3.30201e+06
1.20652e+06
1.14189e+06
1.38426e+06
1.32791e+06
1.82077e+06
3.89694e+06
2.58004e+06
1.89821e+06
3.43753e+06
2.46366e+06
3.09172e+06
3.61694e+06
2.32401e+06
3.18079e+06
5.83945e+06
1.69601e+06
3.06716e+06
3.24185e+06
2.36831e+06
2.13408e+06
1.15374e+06
1.45195e+06
2.12627e+06
1.43942e+06
2.16569e+06
3.06533e+06
1.44328e+06
3.04454e+06
2.26498e+06
6.13287e+06
2.387e+06
1.93266e+06
2.06872e+06
1.60802e+06
2.3916e+06
2.19376e+06
1.91065e+06
3.62573e+06
3.21784e+06
5.86667e+06
3.38267e+06
1.54753e+06
2.27617e+06
1.84675e+06
3.31476e+06
2.80657e+06
2.12862e+06
3.44286e+06
3.17887e+06
3.20508e+06
3.69963e+06
2.01069e+06
1.23502e+06
3.50772e+06
3.23455e+06
2.7911e+06
2.29446e+06
2.8734e+06
3.14397e+06
3.27417e+06
2.96232e+06
3.10506e+06
3.17802e+06
3.53554e+06
3.18461e+06
3.30383e+06
4.1183e+06
3.4785e+06
2.02744e+06
6.23512e+06
2.18617e+06
1.44134e+06
1.33174e+06
4.35466e+06
3.23246e+06
3.14824e+06
3.24661e+06
2.04601e+06
1.14681e+06
2.80975e+06
2.12503e+06
4.10561e+06
2.45911e+06
2.2713e+06
3.33718e+06
2.17657e+06
3.24005e+06
2.28981e+06
3.51518e+06
5.69869e+06
2.78456e+06
3.23776e+06
2.75979e+06
3.51569e+06
2.6992e+06
2.69341e+06
2.1107e+06
2.25381e+06
5.75077e+06
4.34712e+06
5.40813e+06
2.17975e+06
2.08667e+06
2.49724e+06
2.8833e+06
2.32809e+06
2.35824e+06
2.99784e+06
1.67773e+06
1.80683e+06
4.70543e+06
1.8391e+06
2.27259e+06
5.62414e+06
2.86633e+06
2.85554e+06
1.99341e+06
2.29682e+06
5.486e+06
5.37882e+06
3.65883e+06
4.83651e+06
3.50706e+06
2.47053e+06
2.76828e+06
2.96407e+06
5.1793e+06
2.90086e+06
2.88938e+06
5.23786e+06
5.1286e+06
1.98238e+06
5.49169e+06
5.44452e+06
2.03253e+06
2.71715e+06
1.39571e+06
5.49533e+06
6.03778e+06
5.329e+06
5.11682e+06
4.63713e+06
4.93041e+06
5.04551e+06
897139
775309
5.91176e+06
5.57978e+06
4.35328e+06
2.45202e+06
4.45426e+06
5.4352e+06
3.54592e+06
2.08988e+06
1.87662e+06
4.37409e+06
2.103e+06
3.10623e+06
2.93331e+06
5.36019e+06
5.153e+06
1.85309e+06
5.97192e+06
2.68702e+06
5.6326e+06
1.74271e+06
5.4181e+06
5.52952e+06
5.61091e+06
4.12451e+06
3.78848e+06
2.25234e+06
639480
420967
3.22017e+06
3.22887e+06
3.84892e+06
1.36081e+06
1.75614e+06
3.5593e+06
3.21386e+06
1.08812e+06
1.23258e+06
947296
876254
4.30915e+06
2.78265e+06
2.08214e+06
874285
949766
2.36306e+06
3.7216e+06
3.84399e+06
5.70178e+06
6.08697e+06
2.11e+06
2.14502e+06
4.34263e+06
5.23574e+06
3.68449e+06
3.72334e+06
1.25183e+06
4.02498e+06
1.57932e+06
3.47047e+06
2.87578e+06
1.56041e+06
1.67148e+06
1.29843e+06
2.41959e+06
2.79615e+06
3.75966e+06
3.2057e+06
3.94217e+06
5.95715e+06
4.1523e+06
4.09253e+06
3.89363e+06
5.60652e+06
1.60357e+06
5.46957e+06
1.82923e+06
718906
746506
4.74667e+06
5.00973e+06
5.10802e+06
4.65361e+06
5.76201e+06
2.74189e+06
2.1629e+06
2.25309e+06
5.31046e+06
2.4305e+06
5.45981e+06
5.21378e+06
5.75935e+06
2.15423e+06
1.87249e+06
1.63366e+06
1.59022e+06
4.40375e+06
1.93023e+06
2.10359e+06
5.1779e+06
4.06367e+06
3.96603e+06
4.37664e+06
3.84293e+06
5.38972e+06
1.34926e+06
2.34093e+06
3.70601e+06
3.18498e+06
2.69211e+06
3.31424e+06
3.25615e+06
1.06188e+06
1.25579e+06
3.90306e+06
5.18779e+06
1.39926e+06
5.61657e+06
2.50321e+06
2.48512e+06
3.72503e+06
3.84336e+06
3.67517e+06
5.52162e+06
1.97143e+06
1.42798e+06
1.28593e+06
2.19956e+06
2.1691e+06
1.46741e+06
890799
1.07073e+06
3.17305e+06
2.60937e+06
2.91597e+06
2.99253e+06
2.05574e+06
2.83317e+06
3.20852e+06
3.10335e+06
3.28381e+06
4.51474e+06
4.8332e+06
2.22227e+06
2.58088e+06
2.02517e+06
2.27114e+06
4.1899e+06
6.14088e+06
3.21314e+06
3.21574e+06
4.35003e+06
3.67866e+06
4.1898e+06
3.85721e+06
3.02523e+06
2.41943e+06
1.44585e+06
1.6606e+06
1.67289e+06
2.55055e+06
4.07928e+06
4.81471e+06
4.09982e+06
5.61247e+06
3.10402e+06
4.18473e+06
2.95844e+06
3.1798e+06
5.33239e+06
5.54042e+06
3.26251e+06
4.44425e+06
376214
5.10597e+06
5.13323e+06
3.78892e+06
2.97044e+06
4.80697e+06
2.956e+06
5.08383e+06
3.78627e+06
5.27611e+06
3.06856e+06
4.01712e+06
4.11513e+06
3.86945e+06
517365
4.02234e+06
4.5486e+06
4.56106e+06
2.41561e+06
3.96784e+06
1.91246e+06
3.02103e+06
2.07095e+06
3.04402e+06
2.55445e+06
4.66477e+06
1.17445e+06
2.50751e+06
1.72194e+06
2.85883e+06
2.66383e+06
3.62779e+06
2.97519e+06
5.09162e+06
3.69194e+06
5.85432e+06
2.02047e+06
4.62494e+06
993132
4.95682e+06
2.94334e+06
4.95476e+06
458134
2.43354e+06
3.99156e+06
2.34812e+06
2.33592e+06
2.63281e+06
3.88319e+06
1.00734e+06
1.71249e+06
456651
5.68657e+06
2.97625e+06
2.21854e+06
3.612e+06
1.90129e+06
3.78321e+06
5.8228e+06
4.32658e+06
2.4848e+06
2.59009e+06
1.3115e+06
3.99697e+06
1.72958e+06
600635
2.7804e+06
2.9565e+06
2.85582e+06
3.15713e+06
1.11687e+06
1.28101e+06
4.17792e+06
1.9074e+06
1.79133e+06
2.82807e+06
3.55597e+06
2.72693e+06
4.49149e+06
4.00858e+06
4.26043e+06
1.025e+06
2.85472e+06
3.81247e+06
960334
3.47938e+06
3.04733e+06
3.40018e+06
1.49016e+06
1.52083e+06
907912
975578
4.3222e+06
3.00419e+06
3.01929e+06
3.77276e+06
3.34905e+06
4.87526e+06
1.67004e+06
1.49209e+06
3.38509e+06
3.61235e+06
4.033e+06
2.19244e+06
1.4387e+06
310329
4.05293e+06
2.77556e+06
3.43066e+06
1.32455e+06
3.53356e+06
2.50548e+06
1.31374e+06
1.59744e+06
1.53381e+06
890658
3.13256e+06
1.45852e+06
3.12089e+06
1.44653e+06
2.50432e+06
3.69154e+06
5.7704e+06
1.20747e+06
2.71578e+06
2.7616e+06
503619
3.08747e+06
1.73738e+06
282379
3.27514e+06
5.86863e+06
1.72187e+06
1.67281e+06
916833
923384
2.50628e+06
2.41692e+06
3.74857e+06
1.60621e+06
3.66374e+06
2.37307e+06
1.25594e+06
3.51198e+06
5.47766e+06
3.21678e+06
1.55624e+06
3.22343e+06
543342
3.18916e+06
1.91173e+06
835160
3.48351e+06
3.12502e+06
1.47686e+06
1.62653e+06
3.42626e+06
3.7705e+06
3.51732e+06
2.63887e+06
3.06943e+06
3.28125e+06
1.86272e+06
893609
3.5759e+06
3.3273e+06
3.89054e+06
4.14664e+06
3.33323e+06
3.43209e+06
2.26235e+06
3.54669e+06
2.28539e+06
2.41351e+06
3.79235e+06
842397
742617
2.35843e+06
6.62363e+06
3.08287e+06
1.37435e+06
1.33027e+06
4.13585e+06
3.58651e+06
1.42215e+06
4.22549e+06
2.67887e+06
2.59159e+06
944048
224067
3.56349e+06
360396
5.4445e+06
3.00007e+06
3.76233e+06
3.01884e+06
899316
3.31245e+06
2.30217e+06
2.50063e+06
1.14792e+06
931825
1.45056e+06
4.3245e+06
5.18395e+06
2.73712e+06
5.82697e+06
3.14289e+06
4.69272e+06
1.64625e+06
2.05034e+06
2.02675e+06
3.17323e+06
2.75416e+06
1.84819e+06
1.60318e+06
878358
1.44946e+06
894415
891711
5.347e+06
1.40591e+06
5.41335e+06
5.28698e+06
2.80869e+06
4.88573e+06
2.86367e+06
3.19652e+06
1.22679e+06
5.16803e+06
1.27497e+06
4.94209e+06
1.5618e+06
1.56316e+06
5.1489e+06
1.38881e+06
5.829e+06
5.51917e+06
2.23251e+06
2.89282e+06
1.74981e+06
5.502e+06
6.20906e+06
5.62952e+06
4.6613e+06
4.8247e+06
4.8603e+06
1.07491e+06
1.29361e+06
5.88655e+06
4.15006e+06
5.68979e+06
2.5335e+06
3.85115e+06
4.41996e+06
2.33952e+06
5.51145e+06
2.12377e+06
4.60574e+06
2.24589e+06
3.09305e+06
3.1049e+06
5.09287e+06
5.24389e+06
345515
1.9812e+06
5.69755e+06
1.05312e+06
5.64035e+06
5.56334e+06
3.91277e+06
5.66388e+06
5.44594e+06
4.2949e+06
2.11449e+06
495484
358383
2.44631e+06
2.44067e+06
3.98836e+06
1.81796e+06
1.57624e+06
3.5313e+06
3.46147e+06
812614
836703
441679
420094
2.89229e+06
3.04591e+06
2.38301e+06
903892
1.14633e+06
2.52689e+06
610779
525793
5.81666e+06
5.68098e+06
1.30983e+06
1.29089e+06
4.4359e+06
3.79536e+06
5.11266e+06
1.93035e+06
1.89614e+06
1.59512e+06
4.35236e+06
3.12116e+06
1.74941e+06
3.1352e+06
1.73704e+06
1.807e+06
1.40754e+06
3.93251e+06
2.47414e+06
2.7876e+06
3.69715e+06
3.22828e+06
5.91777e+06
5.51109e+06
3.81864e+06
1.14421e+06
999964
1.67864e+06
5.54195e+06
1.85876e+06
637092
833799
4.69552e+06
4.85283e+06
4.86753e+06
3.00171e+06
4.95622e+06
5.41509e+06
2.49476e+06
2.3374e+06
2.529e+06
2.50988e+06
4.95058e+06
5.32383e+06
5.0442e+06
5.78139e+06
4.38727e+06
2.05142e+06
621101
705755
2.26497e+06
2.31154e+06
4.94356e+06
4.1593e+06
1.43256e+06
4.41045e+06
4.06288e+06
4.97974e+06
1.59317e+06
2.08404e+06
3.72903e+06
3.37104e+06
2.98862e+06
1.2808e+06
1.21645e+06
3.87716e+06
326124
399811
5.13283e+06
1.46982e+06
5.60165e+06
1.501e+06
1.40153e+06
2.72192e+06
3.81373e+06
3.70778e+06
5.11411e+06
2.09995e+06
1.39644e+06
1.55529e+06
951917
940584
1.64644e+06
897613
1.17662e+06
3.33318e+06
2.90134e+06
3.1058e+06
3.03553e+06
1.97038e+06
3.33223e+06
2.89801e+06
3.25784e+06
3.43126e+06
4.63273e+06
4.54125e+06
2.59968e+06
2.68646e+06
4.20647e+06
6.44787e+06
2.41879e+06
2.26237e+06
4.42121e+06
3.66401e+06
3.92963e+06
4.12484e+06
3.303e+06
3.20725e+06
3.23985e+06
3.39903e+06
2.06392e+06
1.7452e+06
1.98958e+06
2.48125e+06
5.37505e+06
3.99004e+06
3.32648e+06
4.2181e+06
4.05897e+06
3.71473e+06
4.21563e+06
4.81994e+06
3.69282e+06
5.92337e+06
1.4349e+06
3.86932e+06
2.80003e+06
4.23519e+06
2.02497e+06
3.15909e+06
2.14473e+06
4.16382e+06
4.21386e+06
2.08305e+06
3.977e+06
3.85079e+06
2.74351e+06
3.72996e+06
1.47205e+06
3.41965e+06
3.44425e+06
3.27297e+06
1.99274e+06
2.60668e+06
4.07602e+06
3.8961e+06
2.87179e+06
1.99573e+06
3.8329e+06
1.43246e+06
2.66892e+06
2.32675e+06
3.01155e+06
3.40344e+06
3.0413e+06
2.08515e+06
3.63419e+06
2.7238e+06
4.28444e+06
1.62497e+06
3.97926e+06
3.32616e+06
1.56042e+06
2.31229e+06
3.04762e+06
4.09523e+06
1.87963e+06
1.94589e+06
1.27529e+06
2.18433e+06
1.15548e+06
3.16203e+06
2.5485e+06
4.30617e+06
3.10068e+06
2.45117e+06
4.89038e+06
2.65917e+06
3.66376e+06
1.92144e+06
1.45789e+06
2.26278e+06
3.571e+06
1.12257e+06
2.30409e+06
2.81304e+06
3.10055e+06
2.83903e+06
3.934e+06
3.51151e+06
1.41737e+06
1.41592e+06
2.58374e+06
2.51587e+06
2.5986e+06
3.71126e+06
3.30711e+06
3.21279e+06
3.62e+06
3.95732e+06
1.33619e+06
2.13675e+06
3.44108e+06
3.06404e+06
1.58946e+06
3.49014e+06
2.87683e+06
1.57901e+06
1.64442e+06
1.47345e+06
1.46363e+06
3.01409e+06
2.86388e+06
3.16443e+06
3.59551e+06
4.19805e+06
1.71408e+06
1.43736e+06
2.9971e+06
1.92257e+06
3.70588e+06
1.5583e+06
943125
2.31849e+06
2.17824e+06
1.91467e+06
3.06372e+06
2.87459e+06
2.59483e+06
4.05749e+06
3.80605e+06
2.11092e+06
1.65322e+06
1.74627e+06
3.36663e+06
1.25633e+06
2.99187e+06
1.45394e+06
3.03127e+06
3.95406e+06
2.99027e+06
2.26634e+06
3.38056e+06
4.87158e+06
3.54963e+06
4.06069e+06
1.32287e+06
2.05474e+06
2.70015e+06
826463
3.60026e+06
1.75556e+06
3.37171e+06
868913
3.94654e+06
1.75197e+06
1.47382e+06
1.27408e+06
1.2905e+06
4.253e+06
3.42508e+06
2.99132e+06
3.54212e+06
1.41124e+06
2.30196e+06
1.30928e+06
2.5079e+06
4.09521e+06
4.03447e+06
4.07356e+06
1.38154e+06
3.17062e+06
3.54878e+06
1.15608e+06
2.03555e+06
888575
2.70569e+06
3.22791e+06
2.2234e+06
1.51339e+06
2.51352e+06
3.5262e+06
2.14533e+06
2.2135e+06
1.88969e+06
3.18454e+06
887714
3.32032e+06
2.90117e+06
3.60848e+06
1.94708e+06
2.49392e+06
2.61098e+06
3.31474e+06
2.36523e+06
3.98098e+06
964375
984680
3.23592e+06
2.73241e+06
1.72669e+06
1.84739e+06
2.78598e+06
2.33884e+06
1.88612e+06
3.52826e+06
2.29044e+06
2.34848e+06
874519
928277
2.42486e+06
3.56147e+06
1.00572e+06
2.31663e+06
881438
4.15988e+06
3.01323e+06
3.07755e+06
1.03202e+06
994334
1.58208e+06
3.31186e+06
3.86128e+06
4.37674e+06
2.77295e+06
4.50664e+06
2.28471e+06
3.18087e+06
1.32207e+06
3.01832e+06
869288
866234
3.254e+06
2.35381e+06
1.88716e+06
2.08668e+06
946188
1.56508e+06
4.74814e+06
794737
778641
1.35641e+06
3.31995e+06
2.78266e+06
2.68448e+06
678410
2.39367e+06
760694
3.88463e+06
4.95136e+06
806562
796313
4.55969e+06
3.97903e+06
1.37137e+06
4.91698e+06
2.40783e+06
2.36242e+06
2.13135e+06
3.39406e+06
3.14069e+06
3.40189e+06
4.59248e+06
3.25379e+06
3.20678e+06
5.03644e+06
4.58858e+06
1.85069e+06
1.75242e+06
3.19943e+06
3.65797e+06
2.85213e+06
2.26131e+06
3.1755e+06
2.85066e+06
2.58151e+06
3.33545e+06
2.95709e+06
3.05125e+06
2.8176e+06
2.63074e+06
3.72517e+06
909805
2.35901e+06
1.18038e+06
3.17044e+06
2.88007e+06
3.0307e+06
3.21208e+06
3.51082e+06
2.10855e+06
3.09655e+06
1.42211e+06
1.438e+06
4.01053e+06
1.75459e+06
2.00287e+06
3.35778e+06
4.65436e+06
4.82593e+06
2.79913e+06
2.80559e+06
1.12349e+06
1.05455e+06
1.13554e+06
1.1659e+06
3.67223e+06
3.38728e+06
822975
3.47342e+06
2.29311e+06
1.93531e+06
1.8129e+06
2.21108e+06
3.29851e+06
714783
723542
2.69876e+06
5.00964e+06
4.74664e+06
841506
809169
2.68282e+06
2.50771e+06
1.79028e+06
2.60967e+06
3.44518e+06
1.72857e+06
3.13964e+06
1.77265e+06
1.60163e+06
1.84038e+06
2.9641e+06
2.74033e+06
3.197e+06
3.08004e+06
1.15237e+06
1.19729e+06
774417
2.53325e+06
2.29751e+06
1.35366e+06
1.32922e+06
4.37811e+06
4.62015e+06
3.94549e+06
830546
2.30147e+06
4.38571e+06
2.71357e+06
4.39835e+06
5.20004e+06
4.77466e+06
5.11357e+06
2.19705e+06
3.05417e+06
5.53068e+06
2.97507e+06
3.27254e+06
3.0454e+06
4.07168e+06
2.7591e+06
783881
2.42696e+06
912844
909370
2.33088e+06
2.10234e+06
1.37543e+06
2.77771e+06
2.69953e+06
4.78423e+06
1.91498e+06
1.93724e+06
2.36857e+06
2.4262e+06
1.30325e+06
1.26202e+06
1.13037e+06
1.06006e+06
1.77009e+06
3.68948e+06
1.38106e+06
1.30925e+06
4.11496e+06
4.50978e+06
3.86799e+06
2.49864e+06
4.96525e+06
1.6877e+06
1.83214e+06
855474
837237
1.69963e+06
1.41104e+06
1.50681e+06
803006
2.50847e+06
2.73889e+06
3.54077e+06
3.86201e+06
2.29399e+06
3.97698e+06
2.99866e+06
3.17537e+06
2.08761e+06
2.2807e+06
3.18526e+06
1.95607e+06
2.31145e+06
3.81522e+06
3.41271e+06
3.46822e+06
3.52218e+06
3.15035e+06
3.62499e+06
3.37527e+06
2.33137e+06
2.26897e+06
2.54386e+06
2.40237e+06
3.48744e+06
3.74264e+06
4.89481e+06
3.68497e+06
3.21681e+06
3.89057e+06
3.59161e+06
4.32358e+06
3.63532e+06
3.67255e+06
3.89593e+06
3.95187e+06
4.05842e+06
4.06918e+06
770202
891024
1.52277e+06
2.07861e+06
955802
1.0494e+06
1.17561e+06
1.90175e+06
1.5232e+06
1.49528e+06
1.43469e+06
1.46039e+06
1.1013e+06
1.91594e+06
1.53521e+06
1.57476e+06
1.0965e+06
1.53731e+06
1.16508e+06
1.62599e+06
1.26169e+06
1.14598e+06
2.17249e+06
1.74407e+06
930103
990569
962610
913693
2.09423e+06
1.43044e+06
1.5866e+06
1.2437e+06
1.57281e+06
1.95738e+06
1.34759e+06
1.82029e+06
1.74918e+06
808075
1.74415e+06
1.91399e+06
911748
1.22481e+06
1.13109e+06
1.40911e+06
1.67364e+06
1.4031e+06
1.04538e+06
1.27031e+06
1.01076e+06
989119
2.08628e+06
2.1544e+06
2.07319e+06
1.15419e+06
1.63181e+06
1.23069e+06
1.95631e+06
2.61858e+06
896059
1.78573e+06
1.53002e+06
1.5867e+06
1.95622e+06
1.10732e+06
1.75136e+06
2.13251e+06
1.65248e+06
901826
1.07924e+06
2.37823e+06
1.95338e+06
2.09374e+06
785435
1.14899e+06
1.1509e+06
1.78762e+06
911813
858066
2.15783e+06
2.01931e+06
1.6666e+06
2.05248e+06
1.97225e+06
1.08102e+06
1.14343e+06
2.35134e+06
946875
1.12165e+06
1.26889e+06
822954
1.89853e+06
1.78197e+06
1.84397e+06
1.41103e+06
1.45712e+06
1.73814e+06
2.17874e+06
1.98323e+06
1.76191e+06
896709
1.21664e+06
993240
1.21238e+06
1.86502e+06
2.03713e+06
1.1553e+06
2.09239e+06
921279
1.15301e+06
961035
2.35097e+06
1.39327e+06
1.00027e+06
1.4264e+06
1.77645e+06
963307
1.79019e+06
1.86673e+06
1.01859e+06
854653
1.20662e+06
929035
1.43957e+06
866191
1.78945e+06
1.87539e+06
929211
2.27036e+06
1.46515e+06
1.01742e+06
840568
1.96465e+06
1.00336e+06
891586
1.39737e+06
1.96411e+06
1.15208e+06
1.14044e+06
1.01096e+06
758592
962341
1.7306e+06
1.01258e+06
1.62175e+06
1.29669e+06
950576
2.21904e+06
1.33256e+06
911738
973082
1.68449e+06
1.06669e+06
799030
1.15287e+06
1.03979e+06
1.41239e+06
1.38249e+06
1.3682e+06
1.16963e+06
1.19776e+06
963096
2.20554e+06
2.24742e+06
2.25043e+06
2.15962e+06
1.12911e+06
1.05002e+06
2.31653e+06
1.17128e+06
2.41116e+06
929367
1.938e+06
1.39513e+06
2.01867e+06
2.31856e+06
1.93466e+06
834952
2.42828e+06
1.04601e+06
1.05294e+06
895935
2.40111e+06
1.4625e+06
1.84378e+06
1.94601e+06
1.26688e+06
2.40372e+06
944312
1.58507e+06
2.34366e+06
2.48564e+06
1.03705e+06
1.15139e+06
2.371e+06
1.14053e+06
850233
2.35204e+06
1.67302e+06
1.65229e+06
1.0531e+06
857565
895862
1.47048e+06
1.01607e+06
1.03867e+06
921739
1.54503e+06
792677
1.48054e+06
2.37774e+06
2.38972e+06
1.74501e+06
1.18927e+06
917031
914656
1.53811e+06
1.82318e+06
1.23803e+06
1.17979e+06
1.03144e+06
921784
997981
990110
869111
1.04008e+06
2.60404e+06
746738
1.39422e+06
1.24196e+06
1.15818e+06
2.48222e+06
966182
1.32658e+06
960063
836905
946843
941281
1.26319e+06
1.01307e+06
2.12296e+06
2.5536e+06
1.80431e+06
2.44685e+06
1.32874e+06
2.71638e+06
2.43511e+06
2.09736e+06
831743
1.32672e+06
824306
727390
1.40472e+06
1.5468e+06
2.73934e+06
598510
2.74104e+06
1.14697e+06
1.31863e+06
514336
850136
2.60906e+06
962052
1.77048e+06
903218
1.38832e+06
1.17224e+06
2.54184e+06
2.47041e+06
875698
1.03358e+06
1.31881e+06
984206
2.56813e+06
2.68283e+06
1.07635e+06
2.27226e+06
2.36885e+06
1.65613e+06
1.13662e+06
1.15418e+06
1.19338e+06
632959
1.17535e+06
1.28687e+06
1.21381e+06
1.13453e+06
1.06603e+06
1.06808e+06
1.2374e+06
1.26424e+06
780944
907663
1.31666e+06
723611
2.42273e+06
1.4495e+06
1.61398e+06
2.30004e+06
1.04571e+06
1.02853e+06
2.50951e+06
1.25598e+06
974769
963339
2.3699e+06
1.72482e+06
771555
1.91879e+06
2.43195e+06
1.14734e+06
1.83645e+06
983612
1.47974e+06
1.65163e+06
990613
676119
2.14517e+06
1.99185e+06
2.29297e+06
2.17094e+06
1.0522e+06
1.35334e+06
495813
933721