/*--------------------------------*- C++ -*----------------------------------*\
| =========                 |                                                 |
| \\      /  F ield         | OpenFOAM: The Open Source CFD Toolbox           |
|  \\    /   O peration     | Version:  v2012                                 |
|   \\  /    A nd           | Website:  www.openfoam.com                      |
|    \\/     M anipulation  |                                                 |
\*---------------------------------------------------------------------------*/
FoamFile
{
    version     2.0;
    format      ascii;
    class       pointScalarField;
    location    "1";
    object      pEpsilonEq;
}
// * * * * * * * * * * * * * * * * * * * * * * * * * * * * * * * * * * * * * //

dimensions      [0 0 0 0 0 0 0];


internalField   nonuniform List<scalar> 
1662
(
4.12281e-06
4.3306e-06
1.24999e-05
2.5955e-05
2.78936e-05
3.92483e-06
2.71484e-06
5.02392e-06
3.4279e-06
1.3737e-05
1.46976e-05
2.47144e-05
4.86584e-05
1.16258e-05
1.13941e-05
8.30062e-06
8.13639e-06
3.59047e-06
3.75166e-06
3.03139e-05
2.04147e-05
4.77114e-06
3.76051e-05
2.04095e-05
1.59386e-05
2.76621e-05
7.59183e-06
8.16457e-06
2.59151e-05
3.98326e-06
1.29215e-05
1.54525e-05
2.13725e-05
2.14494e-05
1.26362e-05
5.10107e-06
1.90433e-05
3.80748e-06
1.14762e-05
3.70178e-06
3.34953e-06
4.31365e-06
4.13337e-06
1.65329e-05
2.97793e-06
3.58119e-05
4.07531e-05
3.26161e-05
1.34928e-05
2.20288e-06
4.14992e-06
4.19837e-06
4.24226e-06
4.28121e-06
4.30404e-06
4.26714e-06
4.23906e-06
4.21773e-06
4.19819e-06
4.17033e-06
4.13311e-06
4.07945e-06
3.98153e-06
3.3418e-06
2.93121e-06
3.06788e-06
3.91849e-06
1.41952e-05
1.47793e-05
1.57992e-05
1.58226e-05
1.02139e-05
1.22971e-05
1.43116e-05
1.63417e-05
1.83792e-05
2.0414e-05
2.23973e-05
2.42671e-05
2.61815e-05
1.2569e-05
6.77103e-06
8.12718e-06
1.58845e-05
2.61962e-05
2.33083e-05
2.19795e-05
2.01869e-05
1.81014e-05
1.60071e-05
1.39323e-05
1.18853e-05
1.00388e-05
6.71263e-06
5.587e-06
4.46491e-06
3.4769e-06
2.73761e-06
2.48348e-06
2.83031e-06
3.55725e-06
4.39232e-06
5.13456e-06
5.44213e-06
3.89854e-06
4.07005e-06
4.01328e-06
3.9285e-06
3.84135e-06
3.7661e-06
3.71028e-06
3.67613e-06
3.65992e-06
3.65339e-06
3.64572e-06
3.69439e-06
3.75811e-06
3.81367e-06
3.86977e-06
3.9286e-06
3.98794e-06
4.04019e-06
4.08298e-06
4.11081e-06
3.92369e-06
4.05884e-06
4.04257e-06
3.93592e-06
7.64198e-06
8.89528e-06
9.16986e-06
8.43223e-06
1.24991e-05
1.09292e-05
1.00949e-05
9.75026e-06
9.64312e-06
9.56071e-06
9.3781e-06
9.04782e-06
8.5977e-06
8.15387e-06
7.92246e-06
1.36507e-05
9.17941e-06
6.15159e-06
3.88197e-06
2.37544e-06
2.68464e-06
4.25485e-06
6.09714e-06
7.99596e-06
9.78937e-06
1.12203e-05
9.89755e-06
8.3075e-06
6.91987e-06
5.87072e-06
5.02198e-06
4.37977e-06
3.92347e-06
3.63971e-06
3.5107e-06
3.50141e-06
3.5583e-06
4.76234e-06
6.32808e-06
8.30659e-06
1.15488e-05
1.7033e-05
1.92797e-05
2.17817e-05
2.34328e-05
2.18636e-05
2.06016e-05
1.99653e-05
2.0087e-05
7.18493e-06
4.77247e-06
3.32338e-06
2.77849e-06
5.5842e-06
7.15494e-06
8.74675e-06
1.09403e-05
1.84213e-05
2.48586e-05
3.14174e-05
3.64546e-05
4.21229e-05
4.08052e-05
3.80786e-05
3.50301e-05
8.73658e-06
6.52008e-06
5.24615e-06
4.16119e-06
1.4315e-05
1.2246e-05
1.04121e-05
9.05042e-06
7.94086e-06
7.07425e-06
6.40154e-06
5.83417e-06
5.38377e-06
5.04767e-06
4.86729e-06
1.49591e-05
1.33569e-05
1.17606e-05
1.06948e-05
1.00019e-05
9.69115e-06
9.80137e-06
1.0317e-05
1.13046e-05
1.28587e-05
1.55512e-05
3.80194e-05
3.92164e-05
3.99162e-05
4.78946e-05
2.5351e-05
2.17949e-05
1.81143e-05
1.57688e-05
1.78281e-05
1.84084e-05
1.91282e-05
2.18044e-05
1.84494e-05
1.55962e-05
1.42947e-05
1.29579e-05
1.07025e-05
6.36154e-06
2.38342e-06
3.5469e-06
4.00214e-06
2.4201e-06
1.52358e-06
4.49842e-06
2.55204e-05
2.2388e-05
2.18387e-05
2.09389e-05
1.8384e-05
1.62647e-05
1.41949e-05
1.21718e-05
9.69565e-06
7.82172e-06
1.00222e-05
1.0194e-05
8.85919e-06
9.81835e-06
1.24908e-05
1.45066e-05
1.64707e-05
1.84121e-05
2.0357e-05
2.24389e-05
2.52778e-05
2.77575e-05
1.22569e-05
6.28196e-06
6.74056e-06
1.55971e-05
2.38413e-05
8.0563e-06
7.98428e-06
2.72198e-05
7.07793e-06
5.55708e-06
4.24961e-06
3.19104e-06
2.25867e-06
2.11899e-06
2.79989e-06
3.76078e-06
4.67372e-06
5.31836e-06
5.12881e-06
4.39912e-06
6.23767e-06
8.2111e-06
1.09225e-05
1.17133e-05
1.14072e-05
1.08211e-05
1.05724e-05
1.04687e-05
1.03326e-05
1.00551e-05
9.60698e-06
9.03254e-06
8.48279e-06
8.19671e-06
4.44023e-06
1.1904e-05
3.70117e-06
1.93996e-06
6.33288e-06
1.16753e-05
1.48297e-05
1.32499e-05
1.17077e-05
1.02631e-05
1.00629e-05
1.01832e-05
1.04378e-05
1.099e-05
1.1816e-05
1.33464e-05
1.60746e-05
2.22043e-05
1.97616e-05
1.80521e-05
1.57487e-05
1.58329e-05
2.05781e-05
1.82394e-05
1.83599e-05
1.93958e-05
2.03152e-05
1.17286e-05
7.48222e-06
4.76851e-06
2.21865e-06
1.44839e-06
2.28216e-06
3.97442e-06
5.81254e-06
7.62796e-06
9.43165e-06
1.14968e-05
1.38215e-05
1.51951e-05
1.60638e-05
1.60071e-05
2.19157e-05
1.24834e-05
6.39298e-06
2.2651e-06
2.48729e-06
4.81425e-06
5.29639e-06
5.77808e-06
5.98251e-06
6.48633e-06
7.0334e-06
7.8282e-06
8.63406e-06
9.60983e-06
1.10023e-05
1.22927e-05
1.46966e-05
2.0501e-05
2.16238e-05
2.15172e-05
2.1343e-05
4.9883e-06
1.88108e-05
4.6735e-06
3.31124e-06
2.9498e-06
3.35137e-06
3.56307e-06
3.474e-06
3.48093e-06
3.6284e-06
3.95241e-06
4.46871e-06
5.1786e-06
5.97852e-06
7.28235e-06
8.71045e-06
1.03038e-05
1.44279e-05
1.66321e-05
1.89983e-05
1.96593e-05
3.76931e-06
1.02978e-05
4.00941e-06
4.16456e-06
4.17088e-06
3.9463e-06
3.63113e-06
3.56584e-06
3.59134e-06
3.62922e-06
3.70335e-06
3.78628e-06
3.88914e-06
3.99287e-06
4.03849e-06
3.93449e-06
3.60736e-06
4.23399e-06
5.98819e-06
8.05856e-06
9.73454e-06
3.56926e-06
3.10611e-06
4.28592e-06
4.24505e-06
4.22182e-06
4.20714e-06
4.19082e-06
4.171e-06
4.13336e-06
4.07538e-06
4.01143e-06
3.68566e-06
3.71205e-06
3.79218e-06
3.86408e-06
3.93288e-06
3.9921e-06
4.0465e-06
4.08942e-06
4.11878e-06
4.15436e-06
4.18809e-06
4.22652e-06
4.25775e-06
4.32156e-06
4.12889e-06
1.17527e-05
8.72846e-06
6.51942e-06
4.41074e-06
1.40138e-05
3.12737e-06
3.00645e-05
2.62659e-05
2.34912e-05
2.09032e-05
3.86133e-05
3.75055e-05
3.81558e-05
3.74069e-05
3.80724e-05
4.14173e-05
3.27127e-05
3.59432e-05
3.80562e-05
4.16985e-05
3.34199e-05
1.57541e-05
2.03165e-05
2.428e-05
3.00982e-05
9.6904e-06
2.63343e-06
4.28802e-06
6.57073e-06
1.04654e-05
2.36354e-06
1.52143e-05
7.81568e-06
7.85947e-06
1.59792e-05
1.54406e-05
8.75447e-06
9.30623e-06
1.67609e-05
1.48002e-05
9.02034e-06
9.74689e-06
1.58848e-05
1.3637e-05
9.02629e-06
9.70455e-06
1.467e-05
1.23908e-05
8.96645e-06
9.56346e-06
1.34405e-05
1.12262e-05
8.92432e-06
9.41372e-06
1.22479e-05
1.01305e-05
8.92389e-06
9.28341e-06
1.10867e-05
9.08285e-06
8.95773e-06
9.21388e-06
9.95759e-06
8.1712e-06
9.01765e-06
9.28028e-06
9.24075e-06
7.06315e-06
8.84846e-06
9.58534e-06
8.7681e-06
6.36105e-06
8.49042e-06
9.609e-06
9.17665e-06
5.66928e-06
8.0662e-06
9.52578e-06
9.46655e-06
5.03709e-06
7.58481e-06
9.31292e-06
9.6321e-06
4.51261e-06
7.06975e-06
8.97884e-06
9.65499e-06
4.17733e-06
6.5693e-06
8.55357e-06
9.53598e-06
4.13166e-06
6.16942e-06
8.10436e-06
9.31593e-06
4.41996e-06
5.98885e-06
7.74885e-06
9.09171e-06
4.99042e-06
6.1474e-06
7.65538e-06
9.02472e-06
5.6926e-06
6.67586e-06
7.98905e-06
9.32718e-06
6.12779e-06
7.41415e-06
8.95985e-06
1.02698e-05
1.38127e-05
1.49325e-05
1.62081e-05
1.70135e-05
1.2154e-05
1.31843e-05
1.38778e-05
1.41109e-05
1.13931e-05
1.22671e-05
1.26253e-05
1.25347e-05
1.09982e-05
1.17035e-05
1.18326e-05
1.15024e-05
1.0681e-05
1.12346e-05
1.12513e-05
1.08057e-05
1.02604e-05
1.06785e-05
1.07058e-05
1.02987e-05
9.61099e-06
9.90462e-06
1.00815e-05
9.90094e-06
8.65166e-06
8.81124e-06
9.30532e-06
9.58957e-06
7.3341e-06
7.32827e-06
8.34708e-06
9.37385e-06
5.61429e-06
5.46844e-06
7.24757e-06
9.3212e-06
4.36618e-06
3.83053e-06
6.68943e-06
9.79683e-06
1.45048e-05
1.37531e-05
1.30413e-05
1.28295e-05
1.22438e-05
1.16512e-05
1.11238e-05
1.09528e-05
1.02725e-05
9.67838e-06
9.22874e-06
9.03308e-06
8.72495e-06
7.94587e-06
7.42168e-06
7.10481e-06
7.61328e-06
6.56229e-06
5.76488e-06
5.28554e-06
7.03032e-06
5.77504e-06
4.53706e-06
3.79257e-06
7.11966e-06
5.80129e-06
4.2796e-06
3.31546e-06
7.91256e-06
6.6786e-06
5.17422e-06
4.307e-06
9.33626e-06
8.27136e-06
6.90396e-06
6.23591e-06
1.14214e-05
1.05128e-05
9.27294e-06
8.77658e-06
1.41889e-05
1.32446e-05
1.24063e-05
1.20374e-05
1.27014e-05
1.22836e-05
1.2848e-05
1.33208e-05
8.96907e-06
9.57093e-06
1.06737e-05
1.1448e-05
6.40437e-06
7.57867e-06
8.96208e-06
9.77326e-06
4.34371e-06
5.95802e-06
7.53647e-06
8.48614e-06
2.46259e-06
4.50918e-06
6.37814e-06
7.4431e-06
9.08618e-07
3.2958e-06
5.38413e-06
6.60157e-06
1.03083e-06
2.23099e-06
4.56553e-06
5.9893e-06
2.50645e-06
1.31982e-06
3.84592e-06
5.40185e-06
3.9115e-06
9.74587e-07
3.08482e-06
4.8082e-06
4.82489e-06
1.47934e-06
2.32197e-06
4.22651e-06
4.93462e-06
1.62857e-06
2.12722e-06
3.9297e-06
1.41183e-05
1.24487e-05
1.15167e-05
1.0521e-05
1.21101e-05
1.07952e-05
9.88536e-06
8.96723e-06
1.03478e-05
9.27238e-06
8.41553e-06
7.5799e-06
8.9678e-06
8.02509e-06
7.21252e-06
6.47027e-06
7.84678e-06
6.98067e-06
6.19027e-06
5.52824e-06
6.9318e-06
6.08633e-06
5.31419e-06
4.75144e-06
6.17306e-06
5.31041e-06
4.56356e-06
4.12851e-06
5.53394e-06
4.63785e-06
3.93818e-06
3.66357e-06
4.99541e-06
4.07485e-06
3.45364e-06
3.36469e-06
4.53449e-06
3.63361e-06
3.12618e-06
3.22779e-06
4.17451e-06
3.29155e-06
2.96425e-06
3.24914e-06
8.58568e-06
6.9474e-06
5.77055e-06
4.54356e-06
7.67171e-06
6.6281e-06
5.73033e-06
4.72854e-06
6.76602e-06
6.12768e-06
5.47236e-06
4.65019e-06
5.99146e-06
5.64995e-06
5.19261e-06
4.52421e-06
5.34349e-06
5.23262e-06
4.93842e-06
4.39632e-06
4.82609e-06
4.8748e-06
4.71321e-06
4.2778e-06
4.4336e-06
4.59003e-06
4.52693e-06
4.17815e-06
4.1565e-06
4.37573e-06
4.3816e-06
4.1019e-06
3.98018e-06
4.22412e-06
4.27484e-06
4.05203e-06
3.8825e-06
4.12326e-06
4.20478e-06
4.03099e-06
3.86344e-06
4.07481e-06
4.14813e-06
4.01114e-06
4.26574e-06
4.22918e-06
4.18228e-06
4.13695e-06
4.23939e-06
4.20869e-06
4.16933e-06
4.11783e-06
4.22176e-06
4.19953e-06
4.15746e-06
4.09274e-06
4.20863e-06
4.19183e-06
4.14812e-06
4.0674e-06
4.19127e-06
4.18326e-06
4.13855e-06
4.03906e-06
4.16722e-06
4.1722e-06
4.13256e-06
4.01377e-06
4.13037e-06
4.14842e-06
4.12602e-06
3.99727e-06
4.07069e-06
4.10959e-06
4.11398e-06
3.9884e-06
3.97897e-06
4.05158e-06
4.07115e-06
3.95897e-06
2.40818e-05
2.52189e-05
2.36609e-05
1.98947e-05
1.80425e-05
1.60083e-05
1.39592e-05
1.19255e-05
9.82113e-06
7.37911e-06
9.37703e-06
9.57661e-06
8.44072e-06
1.03837e-05
1.22076e-05
1.42444e-05
1.62423e-05
1.82207e-05
2.01685e-05
2.20677e-05
2.38336e-05
2.69956e-05
1.16007e-05
6.92118e-06
7.58945e-06
1.30764e-05
1.3762e-05
6.61955e-06
7.43543e-06
1.41737e-05
1.2725e-05
8.26199e-06
9.54564e-06
1.61369e-05
1.42943e-05
9.7095e-06
1.07952e-05
1.63587e-05
1.40423e-05
1.05323e-05
1.12828e-05
1.55186e-05
1.33527e-05
1.07165e-05
1.13315e-05
1.45092e-05
1.23326e-05
1.06816e-05
1.11807e-05
1.34296e-05
1.12468e-05
1.05344e-05
1.09547e-05
1.23501e-05
1.01937e-05
1.036e-05
1.07089e-05
1.12936e-05
8.6628e-06
1.00854e-05
1.03263e-05
9.72905e-06
6.49254e-06
5.21854e-06
4.18562e-06
2.94015e-06
2.17305e-06
2.03952e-06
2.62268e-06
3.50465e-06
4.38056e-06
5.04971e-06
5.23832e-06
5.05555e-06
6.56636e-06
8.42259e-06
1.03365e-05
1.20169e-05
1.09855e-05
1.03329e-05
1.00851e-05
9.99655e-06
9.89523e-06
9.66449e-06
9.26765e-06
8.74379e-06
8.23816e-06
7.98971e-06
7.29008e-06
1.01204e-05
1.04595e-05
9.27597e-06
6.59232e-06
9.38289e-06
1.03246e-05
9.54929e-06
5.98976e-06
9.0074e-06
1.02423e-05
9.81758e-06
5.14051e-06
8.4248e-06
9.96299e-06
1.00311e-05
4.46787e-06
7.79223e-06
9.62585e-06
1.01413e-05
4.0786e-06
7.2046e-06
9.19709e-06
1.01133e-05
4.08751e-06
6.73973e-06
8.74939e-06
9.96775e-06
4.4945e-06
6.5048e-06
8.38325e-06
9.78301e-06
5.13696e-06
6.57592e-06
8.23449e-06
9.72371e-06
5.69966e-06
6.88277e-06
8.41569e-06
1.00497e-05
5.63461e-06
6.98874e-06
8.54853e-06
1.0574e-05
1.10499e-05
6.97182e-06
2.37738e-06
3.96303e-06
1.53157e-05
1.28543e-05
1.12661e-05
1.06492e-05
1.00444e-05
9.84325e-06
9.97933e-06
1.04671e-05
1.13558e-05
1.26567e-05
1.50311e-05
1.56761e-05
1.80818e-05
2.00574e-05
2.16774e-05
1.37361e-05
1.58296e-05
1.6856e-05
1.70735e-05
1.28349e-05
1.40392e-05
1.47712e-05
1.46287e-05
1.1961e-05
1.28694e-05
1.3468e-05
1.31127e-05
1.15557e-05
1.22331e-05
1.2587e-05
1.21387e-05
1.11378e-05
1.1593e-05
1.18166e-05
1.13555e-05
1.06393e-05
1.09843e-05
1.11119e-05
1.07167e-05
9.91551e-06
1.0231e-05
1.03604e-05
1.01785e-05
8.90351e-06
9.22155e-06
9.47887e-06
9.7105e-06
7.61921e-06
7.86247e-06
8.41856e-06
9.42284e-06
6.25854e-06
6.01879e-06
7.14253e-06
9.57975e-06
4.66379e-06
3.30896e-06
5.57524e-06
9.78757e-06
2.07361e-05
2.16875e-05
2.21601e-05
2.16111e-05
1.20674e-05
8.38516e-06
5.74579e-06
3.33182e-06
1.84897e-06
2.39296e-06
4.04716e-06
5.87393e-06
7.72338e-06
9.52389e-06
1.10107e-05
1.41776e-05
1.44787e-05
1.56754e-05
1.64995e-05
1.46856e-05
1.42128e-05
1.36637e-05
1.32479e-05
1.21585e-05
1.27666e-05
1.20362e-05
1.13705e-05
1.03722e-05
1.03839e-05
1.03531e-05
9.48245e-06
8.95973e-06
8.80244e-06
8.52998e-06
7.47154e-06
8.04359e-06
7.14584e-06
6.57339e-06
5.83654e-06
7.66169e-06
6.21584e-06
5.09224e-06
4.07978e-06
7.36894e-06
5.31567e-06
3.95115e-06
2.74782e-06
7.92091e-06
5.52924e-06
3.81326e-06
2.61487e-06
9.031e-06
6.54159e-06
4.93546e-06
4.20902e-06
1.07349e-05
8.3218e-06
7.1006e-06
6.63911e-06
1.36444e-05
1.20187e-05
1.12217e-05
1.09414e-05
4.37662e-06
2.35951e-06
1.92557e-06
5.5507e-06
1.41764e-05
1.2273e-05
1.05631e-05
9.20653e-06
8.15905e-06
7.29324e-06
6.60545e-06
6.06296e-06
5.64535e-06
5.35072e-06
5.03062e-06
2.10669e-05
2.07434e-05
2.0209e-05
1.94295e-05
1.10165e-05
1.32596e-05
1.43238e-05
1.49154e-05
8.22274e-06
9.81496e-06
1.11147e-05
1.19893e-05
6.10156e-06
7.71266e-06
9.40881e-06
1.04212e-05
4.16975e-06
5.95189e-06
7.55434e-06
8.98691e-06
2.63974e-06
4.46883e-06
6.37551e-06
8.00679e-06
1.31588e-06
3.65759e-06
5.87064e-06
7.38045e-06
1.13522e-06
2.04768e-06
4.66791e-06
6.29756e-06
2.46485e-06
9.08175e-07
3.86371e-06
5.63957e-06
3.69638e-06
8.43328e-07
3.61695e-06
5.54229e-06
4.71441e-06
9.70723e-07
3.39528e-06
5.3932e-06
6.12195e-06
2.11557e-06
2.49907e-06
4.80892e-06
3.34276e-06
2.9402e-06
3.17372e-06
4.18822e-06
9.73478e-06
8.32752e-06
7.06114e-06
6.01927e-06
5.09528e-06
4.43052e-06
3.94821e-06
3.64353e-06
3.50213e-06
3.4924e-06
3.56524e-06
1.81464e-05
1.67316e-05
1.50385e-05
1.26249e-05
1.37916e-05
1.40764e-05
1.32142e-05
1.17066e-05
1.20972e-05
1.20154e-05
1.10648e-05
9.86761e-06
1.0724e-05
1.0261e-05
9.47634e-06
8.25232e-06
9.43831e-06
8.9904e-06
7.97174e-06
6.87769e-06
8.39779e-06
7.71275e-06
6.76868e-06
5.8533e-06
7.47563e-06
6.66506e-06
5.75428e-06
4.98291e-06
6.68711e-06
5.7678e-06
4.89199e-06
4.27918e-06
6.03281e-06
4.99839e-06
4.16077e-06
3.74501e-06
5.4985e-06
4.34421e-06
3.56479e-06
3.39391e-06
5.07973e-06
3.79451e-06
3.12053e-06
3.22952e-06
4.71992e-06
3.40645e-06
2.89074e-06
3.23217e-06
3.87716e-06
4.10638e-06
4.10139e-06
3.96729e-06
3.64093e-06
3.94196e-06
3.95181e-06
3.88138e-06
3.80322e-06
3.73514e-06
3.68345e-06
3.66665e-06
3.63642e-06
3.64177e-06
3.6047e-06
8.26128e-06
6.63916e-06
5.19418e-06
3.96491e-06
8.52524e-06
7.47015e-06
6.05517e-06
4.40973e-06
7.77331e-06
7.04823e-06
6.01792e-06
4.68638e-06
6.83507e-06
6.48941e-06
5.76687e-06
4.69116e-06
6.13994e-06
6.04932e-06
5.48996e-06
4.66497e-06
5.48558e-06
5.52239e-06
5.19595e-06
4.49091e-06
4.93824e-06
5.09681e-06
4.88489e-06
4.33435e-06
4.51707e-06
4.76095e-06
4.65824e-06
4.21354e-06
4.21752e-06
4.50758e-06
4.48535e-06
4.12012e-06
4.03297e-06
4.33058e-06
4.35738e-06
4.04954e-06
3.95096e-06
4.22105e-06
4.26519e-06
3.98937e-06
3.91808e-06
4.12998e-06
4.18917e-06
3.98006e-06
4.29496e-06
4.25119e-06
4.22721e-06
4.2093e-06
4.19122e-06
4.16765e-06
4.12894e-06
4.07027e-06
3.98743e-06
3.65157e-06
3.76038e-06
3.81319e-06
3.87167e-06
3.93131e-06
3.98979e-06
4.044e-06
4.08689e-06
4.11256e-06
4.15804e-06
4.2011e-06
4.23755e-06
4.27577e-06
4.25534e-06
4.22476e-06
4.18213e-06
4.13973e-06
4.23037e-06
4.22031e-06
4.17032e-06
4.12104e-06
4.21534e-06
4.20571e-06
4.16095e-06
4.1002e-06
4.20786e-06
4.19035e-06
4.15114e-06
4.07837e-06
4.18458e-06
4.19319e-06
4.14466e-06
4.05124e-06
4.174e-06
4.18279e-06
4.14341e-06
4.02399e-06
4.14549e-06
4.16071e-06
4.12049e-06
3.99233e-06
4.0809e-06
4.14135e-06
4.11735e-06
3.96015e-06
4.01334e-06
4.11514e-06
4.12392e-06
3.96661e-06
3.90261e-06
5.40193e-06
8.60749e-06
1.13965e-05
1.90058e-05
2.43223e-05
2.89646e-05
3.42364e-05
4.20076e-05
4.54697e-05
4.6939e-05
4.34431e-05
4.14668e-05
3.9558e-05
3.75173e-05
3.62028e-05
2.80988e-05
2.29912e-05
1.78972e-05
1.35516e-05
6.77923e-06
4.68889e-06
3.37966e-06
2.54974e-06
1.40097e-05
6.93946e-06
8.03149e-06
1.51102e-05
1.45097e-05
8.7311e-06
1.00363e-05
1.69385e-05
1.53203e-05
9.59087e-06
1.04659e-05
1.62789e-05
1.44229e-05
9.818e-06
1.05036e-05
1.52139e-05
1.31421e-05
9.7826e-06
1.03863e-05
1.40554e-05
1.19413e-05
9.69224e-06
1.02105e-05
1.29017e-05
1.07974e-05
9.5967e-06
1.00211e-05
1.17782e-05
9.688e-06
9.5275e-06
9.84889e-06
1.06786e-05
8.34571e-06
9.42977e-06
9.65514e-06
9.39406e-06
7.02838e-06
9.2719e-06
9.92813e-06
9.00437e-06
6.55198e-06
8.89567e-06
9.9163e-06
9.27751e-06
5.54002e-06
8.53323e-06
9.78813e-06
9.54583e-06
5.04506e-06
7.90724e-06
9.55943e-06
9.72887e-06
4.45691e-06
7.35266e-06
9.22291e-06
9.78757e-06
4.08438e-06
6.81759e-06
8.79901e-06
9.70631e-06
4.04734e-06
6.3844e-06
8.34752e-06
9.51389e-06
4.37842e-06
6.16266e-06
7.97226e-06
9.29591e-06
4.97346e-06
6.24737e-06
7.81809e-06
9.20958e-06
5.60514e-06
6.63253e-06
8.02464e-06
9.45552e-06
5.9358e-06
7.24932e-06
8.72801e-06
1.01218e-05
1.35329e-05
1.50078e-05
1.60903e-05
1.63004e-05
1.22451e-05
1.34638e-05
1.42679e-05
1.41459e-05
1.13666e-05
1.26415e-05
1.29572e-05
1.2678e-05
1.09703e-05
1.1753e-05
1.20344e-05
1.16272e-05
1.06501e-05
1.12569e-05
1.13747e-05
1.0889e-05
1.02313e-05
1.06965e-05
1.07637e-05
1.03344e-05
9.58986e-06
9.94437e-06
1.00861e-05
9.89205e-06
8.64768e-06
8.89146e-06
9.26399e-06
9.553e-06
7.38074e-06
7.44619e-06
8.26474e-06
9.38352e-06
5.88089e-06
5.58193e-06
7.16594e-06
9.43167e-06
4.44546e-06
3.42136e-06
6.24843e-06
9.74632e-06
1.48524e-05
1.47459e-05
1.37515e-05
1.28713e-05
1.23392e-05
1.21712e-05
1.17734e-05
1.11293e-05
1.03876e-05
1.05045e-05
9.75155e-06
9.26216e-06
8.75947e-06
8.38393e-06
7.88968e-06
7.41941e-06
7.61792e-06
6.95255e-06
6.40816e-06
5.47082e-06
7.01231e-06
5.66048e-06
4.69023e-06
3.8246e-06
7.00509e-06
5.48233e-06
3.96067e-06
2.8481e-06
7.68562e-06
6.00717e-06
4.42879e-06
3.46582e-06
8.99386e-06
7.40356e-06
6.03182e-06
5.33908e-06
1.08912e-05
9.55221e-06
8.41198e-06
7.8696e-06
1.38482e-05
1.26649e-05
1.19339e-05
1.15468e-05
1.22764e-05
1.28287e-05
1.35026e-05
1.41348e-05
9.01845e-06
9.97308e-06
1.12258e-05
1.2069e-05
6.50639e-06
7.85498e-06
9.03984e-06
1.02847e-05
4.64089e-06
6.07995e-06
7.82232e-06
8.8872e-06
2.69677e-06
4.67901e-06
6.57022e-06
7.75703e-06
1.30346e-06
3.19248e-06
5.31094e-06
6.70724e-06
1.10651e-06
2.31237e-06
4.57447e-06
6.03212e-06
2.01187e-06
1.59877e-06
3.913e-06
5.65985e-06
3.32296e-06
7.66612e-07
3.28987e-06
5.11151e-06
5.12204e-06
1.25777e-06
2.69482e-06
4.73509e-06
5.71646e-06
1.95551e-06
2.18807e-06
4.24614e-06
1.4252e-05
1.35179e-05
1.21142e-05
1.08726e-05
1.23169e-05
1.1441e-05
1.04617e-05
9.17836e-06
1.04657e-05
9.87021e-06
8.71946e-06
7.7483e-06
9.10581e-06
8.31341e-06
7.44385e-06
6.59772e-06
8.00867e-06
7.21561e-06
6.37236e-06
5.62093e-06
7.10753e-06
6.27587e-06
5.45749e-06
4.82349e-06
6.35288e-06
5.46205e-06
4.66987e-06
4.1779e-06
5.71123e-06
4.75587e-06
4.00411e-06
3.69114e-06
5.17468e-06
4.15475e-06
3.47473e-06
3.3759e-06
4.73364e-06
3.68362e-06
3.11212e-06
3.23479e-06
4.35201e-06
3.3266e-06
2.93667e-06
3.24545e-06
8.49147e-06
7.28489e-06
5.78356e-06
4.41568e-06
7.71191e-06
6.81239e-06
5.80976e-06
4.679e-06
6.78202e-06
6.3295e-06
5.54424e-06
4.69449e-06
6.05635e-06
5.77507e-06
5.29177e-06
4.47436e-06
5.37041e-06
5.30003e-06
4.95593e-06
4.36665e-06
4.84735e-06
4.92937e-06
4.73729e-06
4.26263e-06
4.44928e-06
4.63441e-06
4.55169e-06
4.1706e-06
4.16887e-06
4.4125e-06
4.40492e-06
4.09694e-06
3.99486e-06
4.2571e-06
4.29551e-06
4.04148e-06
3.90825e-06
4.15747e-06
4.21607e-06
4.00342e-06
3.87277e-06
4.08813e-06
4.1519e-06
3.9831e-06
4.25847e-06
4.23382e-06
4.18467e-06
4.13954e-06
4.22753e-06
4.20671e-06
4.17194e-06
4.12338e-06
4.21269e-06
4.20352e-06
4.15888e-06
4.10087e-06
4.19894e-06
4.19675e-06
4.14811e-06
4.07339e-06
4.18519e-06
4.17999e-06
4.13438e-06
4.0394e-06
4.15962e-06
4.17709e-06
4.12664e-06
4.01731e-06
4.12693e-06
4.1559e-06
4.12468e-06
3.99143e-06
4.07002e-06
4.12386e-06
4.11648e-06
3.9717e-06
3.98667e-06
4.06943e-06
4.09275e-06
3.95998e-06
)
;

boundaryField
{
    symmz
    {
        type            calculated;
    }
    tractionFree
    {
        type            calculated;
    }
    fixed
    {
        type            calculated;
    }
    front
    {
        type            calculated;
    }
    symmx
    {
        type            calculated;
    }
    loading
    {
        type            calculated;
    }
}


// ************************************************************************* //
