/*--------------------------------*- C++ -*----------------------------------*\
| =========                 |                                                 |
| \\      /  F ield         | OpenFOAM: The Open Source CFD Toolbox           |
|  \\    /   O peration     | Version:  v2012                                 |
|   \\  /    A nd           | Website:  www.openfoam.com                      |
|    \\/     M anipulation  |                                                 |
\*---------------------------------------------------------------------------*/
FoamFile
{
    version     2.0;
    format      ascii;
    class       volSymmTensorField;
    location    "1";
    object      sigma;
}
// * * * * * * * * * * * * * * * * * * * * * * * * * * * * * * * * * * * * * //

dimensions      [1 -1 -2 0 0 0 0];


internalField   nonuniform List<symmTensor> 
5880
(
(-9.18472e+06 -2.25586e+06 436481 -3.56378e+06 236583 -2.69454e+06)
(-7.54512e+06 -1.90099e+06 651929 -3.23362e+06 -5.69296e-11 -3.23362e+06)
(-7.54512e+06 -1.90099e+06 651929 -3.23362e+06 1.439e-10 -3.23362e+06)
(-7.54512e+06 -1.90099e+06 651929 -3.23362e+06 5.40172e-11 -3.23362e+06)
(-9.27152e+06 -1.98142e+06 1.30124e+06 -3.97351e+06 -8.14266e-11 -3.97351e+06)
(-6.83548e+06 -1.65436e+06 323091 -2.44355e+06 -378278 -1.65823e+06)
(-3.67893e+06 -626649 256857 -54000.1 157980 -419141)
(-2.82313e+06 -524397 404272 -86675.5 -123829 -872942)
(-4.46273e+06 -879271 188824 -416829 112754 -333856)
(-2.42081e+06 -524397 287790 315642 -63700.4 65799)
(-2.65738e+06 -274937 477751 599144 -300948 508008)
(-3.36702e+06 -521566 806590 -190924 77330.1 -1.06738e+06)
(-4.35706e+06 -1.35169e+06 256857 -1.6363e+06 157980 -1.09727e+06)
(-3.41283e+06 -1.11472e+06 404272 -1.46264e+06 -6.39284e-11 -1.46264e+06)
(-3.41283e+06 -1.11472e+06 404272 -1.46264e+06 1.56351e-10 -1.46264e+06)
(-3.01051e+06 -1.11472e+06 287790 -1.06032e+06 60128.3 -523901)
(-4.02436e+06 -1.02453e+06 806590 -1.72473e+06 -7.88138e-11 -1.72473e+06)
(-4.02436e+06 -1.02453e+06 806590 -1.72473e+06 1.1279e-10 -1.72473e+06)
(-989373 -563842 66494.9 75680.2 54623.9 -54634.2)
(-883170 -624678 126619 -172636 -138826 -316742)
(-1.8274e+06 -861648 -20795.5 -346293 19154 48630.9)
(-480853 -624678 10137.1 229681 -78698 621999)
(-868055 -349699 228156 102097 -120887 21179.5)
(-950814 -537316 126619 -330473 -339985 -384386)
(-1.21373e+06 -1.05255e+06 66494.9 -447815 54623.9 -278989)
(-991249 -970618 126619 -424821 5.87645e-12 -424821)
(-991249 -970618 126619 -424821 4.59206e-11 -424821)
(-991249 -970618 126619 -424821 -2.99849e-11 -424821)
(-1.07353e+06 -750562 228156 -377349 146704 -184297)
(-991249 -970618 126619 -424821 -4.96945e-13 -424821)
(1.26973e+06 -608681 -34935.4 554197 11243.2 322754)
(1.16699e+06 -667889 -129476 491194 -128048 497456)
(944515 -749824 -189601 468200 -73423.9 643288)
(1.16699e+06 -667889 -129476 491194 -128048 497456)
(1.79063e+06 -416868 -364241 729395 -149495 1.00698e+06)
(1.51303e+06 -526100 -218598 530060 -33521.7 280972)
(1.22563e+06 -993745 -34935.4 451282 11243.2 278647)
(1.17169e+06 -976880 -129476 502153 -6.00903e-12 502153)
(1.17169e+06 -976880 -129476 502153 4.62168e-11 502153)
(1.17169e+06 -976880 -129476 502153 -3.93057e-11 502153)
(1.51773e+06 -835091 -218598 541019 94526 285669)
(1.17169e+06 -976880 -129476 502153 5.08156e-13 502153)
(4.25963e+06 -670292 -240514 1.32005e+06 11169.6 895772)
(3.44578e+06 -807721 -448923 1.22762e+06 -159724 1.40202e+06)
(3.49971e+06 -824586 -354383 1.17675e+06 -148480 1.17851e+06)
(3.05565e+06 -807721 -381061 837502 -144593 491735)
(3.52122e+06 -810922 -736655 980388 -164502 1.01853e+06)
(3.81907e+06 -734129 -839046 1.42003e+06 -354785 1.57173e+06)
(4.39035e+06 -1.16803e+06 -240514 1.62505e+06 11169.6 1.02649e+06)
(3.57657e+06 -1.15128e+06 -448923 1.53282e+06 -3.58945e-11 1.53282e+06)
(3.57657e+06 -1.15128e+06 -448923 1.53282e+06 1.70145e-10 1.53282e+06)
(3.18645e+06 -1.15128e+06 -381061 1.14269e+06 15130.5 622532)
(3.93285e+06 -1.12858e+06 -839046 1.68551e+06 -4.3273e-11 1.68551e+06)
(3.93285e+06 -1.12858e+06 -839046 1.68551e+06 2.09314e-10 1.68551e+06)
(8.60008e+06 -1.39714e+06 -240514 2.10042e+06 11169.6 2.43202e+06)
(9.655e+06 -1.33692e+06 -525450 2.45147e+06 -38263.3 3.63194e+06)
(8.33583e+06 -1.10337e+06 151185 1.58585e+06 -193965 2.06572e+06)
(8.8944e+06 -1.33692e+06 -843645 1.69087e+06 60470.9 1.85721e+06)
(8.07853e+06 -1.47836e+06 -1.28605e+06 1.95499e+06 -223501 3.01006e+06)
(7.33213e+06 -1.50106e+06 -828064 1.41218e+06 -208371 1.94708e+06)
(-6.75466e+06 -1.12708e+06 256857 -1.37217e+06 157980 -1.73731e+06)
(-7.42052e+06 -1.37447e+06 651943 -1.68446e+06 112754 -1.60148e+06)
(-6.29546e+06 -1.14393e+06 279320 -918201 -70092.5 -660620)
(-7.67014e+06 -1.37447e+06 98979.4 -1.93407e+06 -63700.4 -2.18391e+06)
(-7.2143e+06 -1.03575e+06 61211.6 -1.35382e+06 -300948 -1.44496e+06)
(-7.25517e+06 -1.22676e+06 -97972.2 -1.52793e+06 -268607 -1.20683e+06)
(-3.48422e+06 -627291 317679 181953 146707 -72482.2)
(-2.84385e+06 -615431 404777 617718 -7363.93 835640)
(-3.30304e+06 -598585 382314 163751 220709 -241049)
(-3.30892e+06 -615431 8974.82 152644 -108703 -249532)
(-2.66963e+06 -232406 154809 689339 -177459 203935)
(-3.92133e+06 -606603 233609 131089 -102817 291027)
(-3.98042e+06 -1.30685e+06 317679 -975847 146707 -568682)
(-3.90283e+06 -1.46653e+06 382314 -1.23577e+06 19154 -840842)
(-3.06481e+06 -1.16872e+06 469605 -813793 54623.9 -944107)
(-3.90479e+06 -1.46653e+06 8974.82 -1.23772e+06 -78698 -845402)
(-3.60421e+06 -1.24211e+06 140285 -1.07054e+06 -120887 -1.15146e+06)
(-3.25887e+06 -1.23122e+06 154809 -685574 63339 -385314)
(-920188 -722915 96599.1 274557 64156.1 83323.4)
(-888206 -874426 99690.6 92400.4 -130333 -19268.2)
(-1.80381e+06 -1.01255e+06 -52234.9 -69654.2 -38250.4 356157)
(-554429 -874426 4468.17 426178 -11831.4 759546)
(-645506 -715860 17667.7 363804 -96188.9 167769)
(-899762 -885319 -10055.8 41212.1 -196057 -6598.06)
(-1.17932e+06 -1.30531e+06 96599.1 -330088 64156.1 -175810)
(-1.10327e+06 -1.36709e+06 99690.6 -409424 -73423.9 -234336)
(-778057 -1.22594e+06 254356 -323427 11243.2 -554870)
(-1.42141e+06 -1.36709e+06 135586 -727556 -33521.7 -976644)
(-1.00147e+06 -1.10862e+06 17667.7 -466790 -50004.9 -188200)
(-1.1438e+06 -1.25786e+06 -10055.8 -528221 -149495 -250641)
(1.39866e+06 -880620 -63710.3 555150 26154 191774)
(1.30288e+06 -978485 -132980 488695 -182424 313048)
(901616 -1.05785e+06 -290736 482034 -129512 692108)
(1.2236e+06 -978485 32106.7 409415 -52367.9 128062)
(1.60564e+06 -798497 -131572 550831 -124625 899221)
(1.43921e+06 -887504 -12896.4 611900 -107763 283376)
(1.22293e+06 -1.19143e+06 -63710.3 145123 26154 16047.9)
(1.16982e+06 -1.32325e+06 -132980 178230 -148480 179991)
(1.92975e+06 -1.16896e+06 -19110.9 321528 11169.6 -102751)
(1.09055e+06 -1.32325e+06 32106.7 98950.2 -18423.8 -4994.78)
(1.16421e+06 -1.27899e+06 -12896.4 -29759.5 -164502 8379.24)
(1.23619e+06 -1.134e+06 151184 57733.5 -144593 -288034)
(4.34713e+06 -894296 -254725 971740 3173.72 608404)
(4.36732e+06 -1.04955e+06 -361162 1.00009e+06 -159856 832088)
(3.6605e+06 -1.07203e+06 -405761 823685 -144871 950887)
(4.24993e+06 -1.04955e+06 -285525 882700 -16469.5 558179)
(3.21915e+06 -1.06168e+06 -228976 570023 -334673 460539)
(3.0735e+06 -1.25094e+06 -348054 611240 -208504 743577)
(3.94657e+06 -1.20993e+06 -254725 37114.8 3173.72 207850)
(3.72836e+06 -928146 30537.7 -388775 -193965 91095)
(3.99261e+06 -1.22192e+06 -361162 125788 11169.6 457387)
(3.6875e+06 -928146 -285525 -429638 116293 -4251.72)
(2.73586e+06 -1.00855e+06 -228976 -557652 -208371 -22751)
(4.29813e+06 -844413 -244558 -278959 60470.9 -112620)
(7.61346e+06 -890105 -254725 1.28221e+06 3173.72 1.68144e+06)
(6.9445e+06 -450048 -139747 861541 -95093 1.08898e+06)
(7.47885e+06 -585673 151185 909280 -133641 1.60566e+06)
(7.10097e+06 -450048 -362213 1.01801e+06 77948.9 1.45409e+06)
(7.76687e+06 -361033 -438819 1.09916e+06 -88665 1.14853e+06)
(6.84388e+06 -565036 -515530 677196 -75015.4 937954)
(-6.48897e+06 -1.09364e+06 317679 -1.1058e+06 146707 -1.36023e+06)
(-7.7469e+06 -1.14379e+06 226978 -1.48359e+06 -7363.93 -1.26567e+06)
(-6.16108e+06 -839306 -21439.2 -721134 -33799.6 -651911)
(-7.62041e+06 -1.14379e+06 173221 -1.3571e+06 141568 -970518)
(-5.20366e+06 -563678 88911.3 -396674 -177459 -882078)
(-4.96065e+06 -777208 -195795 -314335 -102817 -154396)
(-3.27639e+06 -642466 314844 265755 132659 30503.2)
(-2.98812e+06 -411325 -12498.4 598226 -29329.3 695782)
(-3.31602e+06 -665664 326620 213559 151177 -12541.5)
(-3.24837e+06 -411325 150715 337980 117628 88541.4)
(-2.50905e+06 -350129 74619.3 483927 -184605 190486)
(-3.31059e+06 -556039 -204577 445260 -47331.1 863135)
(-3.68826e+06 -1.30171e+06 314844 -695272 132659 -381365)
(-3.80496e+06 -1.48859e+06 326620 -927287 -38250.4 -501476)
(-2.92133e+06 -1.19896e+06 475454 -583076 64156.1 -774309)
(-3.77988e+06 -1.48859e+06 150715 -902213 70861 -442970)
(-3.2118e+06 -1.35522e+06 87061.6 -736037 -96188.9 -932072)
(-2.97915e+06 -1.36455e+06 74619.3 -612989 -11831.4 -279621)
(-865737 -804576 107898 349433 75948.1 95834.9)
(-855053 -942097 81433.6 241155 -132854 92843.5)
(-1.62198e+06 -1.04485e+06 -79176.4 128959 -64351.3 485787)
(-460065 -942097 126609 636143 58807.8 1.01448e+06)
(-603313 -1.01902e+06 462.442 323585 -139488 168361)
(-846494 -1.02134e+06 20948 237601 -137939 124928)
(-1.15557e+06 -1.41848e+06 107898 -326852 75948.1 -194002)
(-1.12384e+06 -1.52102e+06 81433.6 -386020 -129512 -175946)
(-626801 -1.34379e+06 308460 -312904 26154 -676280)
(-1.49241e+06 -1.52102e+06 114985 -754591 -52367.9 -1.03594e+06)
(-981023 -1.40887e+06 462.442 -557738 -124625 -209349)
(-1.22595e+06 -1.45049e+06 20948 -647789 -139032 -254525)
(1.53299e+06 -1.01587e+06 -51978.2 544233 42326.9 200490)
(1.57309e+06 -1.11152e+06 -80041.4 498706 -168096 227169)
(1.04431e+06 -1.18621e+06 -280603 484757 -118302 709447)
(1.56418e+06 -1.11152e+06 -28524.3 489797 -13786.5 206382)
(1.15507e+06 -1.089e+06 -7890.97 406804 -153452 776158)
(888604 -1.15953e+06 86146.5 300002 -66787.4 -5261.61)
(1.22196e+06 -1.25176e+06 -51978.2 -181492 42326.9 -110535)
(1.27403e+06 -1.37076e+06 -80041.4 -199087 -144871 -71884.9)
(1.96066e+06 -1.19303e+06 70994.8 -51031.8 3173.72 -414368)
(1.26512e+06 -1.37076e+06 -28524.3 -207996 9438.63 -92672.4)
(560403 -1.53328e+06 86146.5 -465800 -208504 -333462)
(1.73683e+06 -1.3319e+06 148675 -194340 -16469.5 -518861)
(4.05998e+06 -867180 -250803 748583 13892.7 472051)
(4.03893e+06 -1.00022e+06 -245068 673111 -154858 426355)
(3.30023e+06 -1.05895e+06 -368041 542651 -115705 730188)
(4.04711e+06 -1.00022e+06 -215077 681295 -4041.66 445451)
(3.69816e+06 -1.16047e+06 -150295 472198 -165954 269497)
(3.22645e+06 -1.19934e+06 -327494 458541 -140046 695685)
(3.5435e+06 -1.09299e+06 -250803 -456547 13892.7 -44432.8)
(3.37685e+06 -842678 67244.6 -667450 -95093 -440007)
(3.55443e+06 -1.07691e+06 -245068 -457379 3173.72 -58140.6)
(3.53825e+06 -842678 -215077 -506052 77382.8 -63411.6)
(2.89794e+06 -817510 -115605 -987522 -88665 -938157)
(3.21908e+06 -843527 -150295 -645655 77948.9 -209582)
(6.83566e+06 -616532 -250803 964221 13892.7 1.36945e+06)
(6.41389e+06 -358817 -24248.5 683478 -79710.7 809957)
(6.63637e+06 -385239 57588 716356 -99921.4 952990)
(6.61361e+06 -358817 -263056 883198 53393.4 1.27597e+06)
(6.55169e+06 -231232 -87102.5 716114 -74485.3 744549)
(6.28819e+06 -287907 -168510 537891 -115117 536540)
(-5.87489e+06 -1.0029e+06 314844 -847886 132659 -1.08314e+06)
(-5.48197e+06 -732226 -42468.5 -470563 -29329.3 -373007)
(-5.60661e+06 -763510 -4340.26 -562369 -6508.13 -474393)
(-5.74221e+06 -732226 120745 -730809 117628 -980247)
(-6.01061e+06 -862222 -30275 -711895 -47331.1 -294020)
(-5.54898e+06 -702771 81471.2 -552293 25304.2 -514651)
(-2.98592e+06 -638348 285070 268152 115141 20786.4)
(-2.83737e+06 -447567 -60634.8 496988 -34655.4 674186)
(-3.10565e+06 -686955 258549 211471 104512 65441.1)
(-3.10041e+06 -447567 200043 233945 111242 60420.6)
(-2.26924e+06 -315320 22380.4 723575 -4241.17 852030)
(-2.46248e+06 -344775 61654.2 545059 88083 386433)
(-3.31897e+06 -1.2701e+06 285070 -508968 115141 -312265)
(-3.48279e+06 -1.45158e+06 258549 -668531 -64351.3 -311703)
(-2.72655e+06 -1.21131e+06 445623 -448057 75948.1 -701655)
(-3.49049e+06 -1.45158e+06 200043 -676224 70053.8 -329652)
(-3.25163e+06 -1.51396e+06 -44006.6 -793172 -137939 -905845)
(-2.8652e+06 -1.43471e+06 61654.2 -394630 58807.8 -16291.3)
(-744942 -863471 103482 370999 82636.2 105479)
(-785615 -989629 88822.2 294815 -102453 103486)
(-1.37804e+06 -1.04842e+06 -71731.5 233903 -63259.5 492876)
(-780624 -989629 77733 299805 50547.3 115131)
(-477037 -1.13747e+06 -10780.7 364133 -121326 273725)
(-1.2797e+06 -1.16645e+06 -144075 222147 -102005 603096)
(-1.0557e+06 -1.4535e+06 103482 -354104 82636.2 -205280)
(-1.09763e+06 -1.56337e+06 88822.2 -433218 -118302 -208528)
(-608957 -1.39303e+06 317447 -373743 42326.9 -717486)
(-1.09264e+06 -1.56337e+06 77733 -428227 34697.5 -196883)
(-821859 -1.62779e+06 -10780.7 -440451 -153452 -71097.4)
(-906449 -1.49064e+06 354801 -569043 -13786.5 -852458)
(1.44602e+06 -1.0709e+06 -49086.6 483889 51660.9 201889)
(1.40006e+06 -1.17133e+06 -25676.1 382783 -129235 112176)
(953313 -1.23179e+06 -239641 402422 -88925.5 624382)
(1.44163e+06 -1.17133e+06 -17090.4 424359 21591 209188)
(1.20341e+06 -1.25745e+06 48263.2 226044 -167055 19026.3)
(1.01722e+06 -1.33017e+06 -228805 366860 -118571 674602)
(1.09956e+06 -1.25755e+06 -49086.6 -324533 51660.9 -144578)
(1.05645e+06 -1.39267e+06 -25676.1 -418969 -115705 -231432)
(1.8162e+06 -1.2009e+06 91562.2 -213036 13892.7 -489568)
(1.09802e+06 -1.39267e+06 -17090.4 -377392 35121.2 -134420)
(870290 -1.53304e+06 48263.2 -551240 -140046 -314095)
(1.69096e+06 -1.33392e+06 160680 -328486 -4041.66 -564329)
(3.67265e+06 -850368 -235032 606336 18254.3 396922)
(3.66955e+06 -983285 -202488 505813 -133133 282090)
(2.9529e+06 -1.03994e+06 -343137 394317 -95364.4 627080)
(3.70332e+06 -983285 -194686 539587 2926.35 360894)
(3.52357e+06 -1.13905e+06 -141174 349839 -154968 188953)
(2.93064e+06 -1.19779e+06 -318944 300932 -115806 618863)
(3.16335e+06 -1.01649e+06 -235032 -582018 18254.3 -112373)
(3.00451e+06 -811289 62388.2 -777685 -79710.7 -651206)
(3.19783e+06 -1.00995e+06 -202488 -594849 13892.7 -189623)
(3.23947e+06 -811289 -194686 -542719 49355.2 -102951)
(2.84767e+06 -718045 -8772.01 -871323 -74485.3 -842888)
(3.10833e+06 -817346 -141174 -619064 53393.4 -226291)
(6.16872e+06 -522371 -235032 809643 18254.3 1.20674e+06)
(5.85745e+06 -338144 31893.4 581675 -74838.8 681254)
(5.92217e+06 -335541 14073.6 567043 -103868 627512)
(6.05275e+06 -338144 -203327 776967 45034.9 1.13694e+06)
(5.86546e+06 -222404 19733 576744 -66442.5 608420)
(5.76139e+06 -225143 -52658.6 500063 -96428.7 442642)
(-5.2492e+06 -939359 285070 -701824 115141 -949190)
(-4.95646e+06 -747298 -94121.8 -411193 -34655.4 -233995)
(-5.01537e+06 -720570 -6649.39 -452035 -6428.82 -419542)
(-5.2195e+06 -747298 166556 -674235 111242 -847760)
(-5.13242e+06 -684899 -63795.3 -503498 -4241.17 -375043)
(-5.02657e+06 -611545 -14447.9 -426174 -1303.42 -452717)
(-2.64333e+06 -632188 258382 252394 102633 -7760.42)
(-2.49064e+06 -452178 -79686.9 482338 -42947.6 618188)
(-2.72447e+06 -670967 212032 232549 78622.4 88540.1)
(-2.73979e+06 -452178 198587 233186 98358 36833.3)
(-2.41463e+06 -336844 -73595.2 535736 -30877.1 619438)
(-2.60756e+06 -472597 107409 287675 81668.1 224395)
(-2.92307e+06 -1.23557e+06 258382 -400332 102633 -287500)
(-3.02671e+06 -1.39052e+06 212032 -472668 -63259.5 -213696)
(-2.39361e+06 -1.20557e+06 387246 -335572 82636.2 -601092)
(-3.054e+06 -1.39052e+06 198587 -499957 67407.4 -277371)
(-2.94073e+06 -1.54205e+06 107409 -489726 -102005 -108777)
(-2.44166e+06 -1.36523e+06 329217 -412068 50547.3 -596742)
(-637062 -901353 97103.1 345759 80388.8 89453.2)
(-672029 -1.02568e+06 79933.8 296564 -71020.1 105022)
(-1.20149e+06 -1.05568e+06 -48930.8 231805 -51023.7 418615)
(-666759 -1.02568e+06 80581.6 301834 65575.5 117319)
(-639422 -1.16588e+06 54463.6 267342 -86829.2 147753)
(-1.25176e+06 -1.19117e+06 -76166.4 179452 -69969 467124)
(-937365 -1.45694e+06 97103.1 -354950 80388.8 -210850)
(-982156 -1.57474e+06 79933.8 -427065 -88925.5 -205104)
(-489444 -1.41385e+06 270488 -345597 51660.9 -627598)
(-976885 -1.57474e+06 80581.6 -421794 47670.1 -192807)
(-959920 -1.69446e+06 54463.6 -480487 -118571 -172745)
(-535510 -1.53562e+06 266178 -422987 21591 -638159)
(1.32544e+06 -1.1043e+06 -44224.5 425820 53167.6 190860)
(1.29578e+06 -1.20803e+06 -24528.5 340746 -95847.3 113874)
(847863 -1.25113e+06 -197913 331394 -67119.4 530621)
(1.33221e+06 -1.20803e+06 -24511.8 377168 38637.7 198857)
(1.24403e+06 -1.33344e+06 2312.91 256396 -110341 99518)
(802655 -1.37256e+06 -183283 257589 -84262.4 544870)
(987672 -1.248e+06 -44224.5 -362306 53167.6 -146908)
(951058 -1.3852e+06 -24528.5 -463616 -95364.4 -230853)
(1.6708e+06 -1.19563e+06 83576.3 -251596 18254.3 -461011)
(987479 -1.3852e+06 -24511.8 -427195 39120.6 -145869)
(887924 -1.54541e+06 2312.91 -574519 -115806 -256588)
(1.6606e+06 -1.33091e+06 126571 -335864 2926.35 -514557)
(3.29154e+06 -857645 -212707 513362 18909.1 352661)
(3.31369e+06 -983025 -178515 417149 -112791 232479)
(2.63056e+06 -1.03539e+06 -306316 306440 -77878.2 546582)
(3.34635e+06 -983025 -179436 449810 8943.37 308688)
(3.28422e+06 -1.13813e+06 -139281 297302 -130000 162480)
(2.6111e+06 -1.19242e+06 -290364 205972 -93805.6 531167)
(2.81668e+06 -965912 -212707 -594650 18909.1 -122201)
(2.68084e+06 -794491 48736.7 -779731 -74838.8 -680152)
(2.87737e+06 -964930 -178515 -600935 18254.3 -203842)
(2.92333e+06 -794491 -179436 -537237 35072.4 -114332)
(2.68366e+06 -690408 19421.7 -786885 -66442.5 -755209)
(2.91313e+06 -809435 -139281 -568583 45034.9 -208614)
(5.53578e+06 -493335 -212707 705294 18909.1 1.08351e+06)
(5.30665e+06 -347763 53043.7 515380 -69945.8 615689)
(5.28199e+06 -339640 -7780.5 468261 -103097 474591)
(5.48017e+06 -347763 -166974 688896 41303.3 1.02056e+06)
(5.30793e+06 -247168 63546 504991 -59714.7 544947)
(5.2147e+06 -234021 -15318.5 449544 -83812.6 375033)
(-4.63642e+06 -894110 258382 -601788 102633 -861942)
(-4.38559e+06 -718770 -100908 -329785 -42947.6 -193934)
(-4.42031e+06 -689341 -14644.2 -365048 -11439.8 -378309)
(-4.63475e+06 -718770 177365 -578937 98358 -775289)
(-4.47847e+06 -607336 -97828.6 -348765 -30877.1 -265064)
(-4.4419e+06 -558890 -35807.6 -327061 -15281.7 -384348)
(-2.30902e+06 -634471 230428 226337 90055.3 -29636.3)
(-2.18785e+06 -469533 -80615.2 433136 -44425.3 530884)
(-2.40396e+06 -674303 192411 196397 69647 47250.5)
(-2.40382e+06 -469533 191478 217160 85580.3 26940)
(-2.2546e+06 -360668 -68602.4 427555 -31679.1 498226)
(-2.44745e+06 -520547 144570 175679 81960.6 107286)
(-2.55011e+06 -1.21481e+06 230428 -336211 90055.3 -270729)
(-2.65593e+06 -1.35463e+06 192411 -391526 -51023.7 -204716)
(-2.0915e+06 -1.20031e+06 338445 -277572 80388.8 -533878)
(-2.67126e+06 -1.35463e+06 191478 -406861 65230.1 -240498)
(-2.7145e+06 -1.52063e+06 144570 -447435 -69969 -159763)
(-2.1295e+06 -1.35515e+06 301318 -325053 65575.5 -509568)
(-548756 -934675 89376.9 303144 74775.4 68382.3)
(-586444 -1.04888e+06 77038.9 265715 -50314 80625.1)
(-1.04506e+06 -1.06338e+06 -30977.8 207075 -40647.6 343774)
(-576551 -1.04888e+06 78751 275608 69353.2 103709)
(-606714 -1.19662e+06 65140.3 233145 -52513.4 114726)
(-1.14848e+06 -1.1961e+06 -44700 151337 -52858.8 383796)
(-823560 -1.45175e+06 89376.9 -338064 74775.4 -206421)
(-874682 -1.56617e+06 77038.9 -406840 -67119.4 -207612)
(-397105 -1.41934e+06 230728 -312413 53167.6 -547373)
(-864789 -1.56617e+06 78751 -396946 52547.8 -184529)
(-910989 -1.70983e+06 65140.3 -476830 -84262.4 -189549)
(-381438 -1.5453e+06 223912 -357251 38637.7 -535561)
(1.19036e+06 -1.13392e+06 -36476.6 371748 50638.4 174095)
(1.18082e+06 -1.2321e+06 -21159.2 302756 -72775.9 110554)
(754364 -1.26451e+06 -162510 277105 -51168.1 451507)
(1.21109e+06 -1.2321e+06 -23467.6 333029 44164.3 181191)
(1.17231e+06 -1.36517e+06 -7595.41 241714 -77116 110252)
(688959 -1.38603e+06 -152756 202018 -63205.9 461285)
(877491 -1.23829e+06 -36476.6 -358284 50638.4 -138776)
(856561 -1.36845e+06 -21159.2 -453845 -77878.2 -213703)
(1.51754e+06 -1.1907e+06 72449.8 -246923 18909.1 -407624)
(886834 -1.36845e+06 -23467.6 -423573 39062 -143067)
(829818 -1.53267e+06 -7595.41 -557435 -93805.6 -232240)
(1.56507e+06 -1.32327e+06 103333 -313597 8943.37 -454719)
(2.92394e+06 -877866 -185944 445112 17179.3 320592)
(2.96987e+06 -992561 -155772 360564 -95202 210320)
(2.32982e+06 -1.04015e+06 -264699 249203 -63472.6 479168)
(2.99652e+06 -992561 -158935 387212 11072 272497)
(3.00091e+06 -1.14177e+06 -128515 263968 -106981 149303)
(2.32267e+06 -1.18695e+06 -255315 153993 -76861.9 460955)
(2.48995e+06 -928483 -185944 -567526 17179.3 -113396)
(2.38721e+06 -783499 40999.5 -735809 -69945.8 -635500)
(2.57352e+06 -931078 -155772 -564243 18909.1 -186026)
(2.61123e+06 -783499 -158935 -511790 26497.2 -112790)
(2.45944e+06 -687039 29710.5 -715793 -59714.7 -675837)
(2.66616e+06 -805708 -128515 -517106 41303.3 -185443)
(4.92088e+06 -489591 -185944 620887 17179.3 972408)
(4.74777e+06 -372107 62421 457791 -65195.4 567813)
(4.67958e+06 -362085 -15935.1 396928 -98413.1 392033)
(4.89271e+06 -372107 -136793 602732 37568.4 906010)
(4.76965e+06 -285248 89245.3 450280 -52551.2 499574)
(4.65214e+06 -268500 1349.48 392408 -73895.2 314432)
(-4.0247e+06 -850630 230428 -508954 90055.3 -764927)
(-3.81436e+06 -688592 -107032 -263943 -44425.3 -166195)
(-3.83283e+06 -658598 -25615.1 -293555 -12742.4 -340757)
(-4.03034e+06 -688592 165062 -479919 85580.3 -670139)
(-3.87589e+06 -576369 -113663 -267281 -31679.1 -196610)
(-3.85866e+06 -529460 -47114.1 -252564 -16498.7 -325220)
(-1.98677e+06 -638046 200170 189952 77232.4 -49642.5)
(-1.90716e+06 -487941 -86634.9 364630 -43252.3 434401)
(-2.09903e+06 -679974 169408 149231 59545.4 10230.2)
(-2.08783e+06 -487941 169626 183960 72222.4 12838.6)
(-2.03245e+06 -392475 -72827.4 331854 -29355.4 397966)
(-2.20414e+06 -551607 139348 104499 72723.7 53047.7)
(-2.19078e+06 -1.20028e+06 200170 -286073 77232.4 -253653)
(-2.3058e+06 -1.3253e+06 169408 -333244 -40647.6 -196545)
(-1.8095e+06 -1.19659e+06 289763 -237175 74775.4 -471937)
(-2.31225e+06 -1.3253e+06 169626 -339688 59141.8 -211582)
(-2.41707e+06 -1.48784e+06 139348 -392345 -52858.8 -159885)
(-1.84514e+06 -1.34061e+06 262799 -268074 69353.2 -439973)
(-471547 -970212 81851.4 251089 67848 44561)
(-503516 -1.06934e+06 71280.1 227619 -34465.9 59297)
(-884792 -1.07303e+06 -18313 178722 -32009 277580)
(-492409 -1.06934e+06 71595.9 238727 67587 85214.2)
(-536095 -1.2099e+06 61868.5 202883 -31112.1 94028.2)
(-1.0032e+06 -1.19458e+06 -31305 131269 -41323.5 322419)
(-711993 -1.44533e+06 81851.4 -309952 67848 -195885)
(-760559 -1.55011e+06 71280.1 -372148 -51168.1 -197746)
(-324561 -1.41951e+06 197314 -277504 50638.4 -475158)
(-749452 -1.55011e+06 71595.9 -361040 50884.8 -171829)
(-812187 -1.69396e+06 61868.5 -441330 -63205.9 -182063)
(-290055 -1.54003e+06 191157 -310320 44164.3 -462158)
(1.04395e+06 -1.16527e+06 -24882 319938 46277.5 152856)
(1.0585e+06 -1.25186e+06 -14421.3 267347 -55229 103215)
(671064 -1.27768e+06 -129883 234900 -38019.4 382487)
(1.08241e+06 -1.25186e+06 -16992.9 291258 44229.8 159007)
(1.07492e+06 -1.37843e+06 -7773.97 221226 -55301.4 106800)
(615528 -1.38851e+06 -127335 170506 -48580.8 397129)
(761748 -1.23017e+06 -24882 -338525 46277.5 -129342)
(762923 -1.34881e+06 -14421.3 -422323 -63472.6 -192358)
(1.35704e+06 -1.18653e+06 64333.9 -226414 17179.3 -350934)
(786834 -1.34881e+06 -16992.9 -398412 35986.2 -136566)
(758884 -1.50583e+06 -7773.97 -516203 -76861.9 -209241)
(1.43273e+06 -1.31144e+06 88606.1 -282984 11072 -397699)
(2.56164e+06 -902678 -154314 389905 13666.7 292151)
(2.63516e+06 -1.00502e+06 -130092 319617 -80033.5 196309)
(2.03986e+06 -1.04867e+06 -219308 207505 -50935.3 417902)
(2.65516e+06 -1.00502e+06 -131571 339614 9892.64 242969)
(2.70585e+06 -1.14342e+06 -109733 240481 -88097.7 141278)
(2.05996e+06 -1.18079e+06 -215332 125053 -63183.5 402411)
(2.16883e+06 -896804 -154314 -526648 13666.7 -100658)
(2.1097e+06 -775107 39195.8 -672808 -65195.4 -562786)
(2.27904e+06 -902073 -130092 -511333 17179.3 -159812)
(2.30493e+06 -775107 -131571 -477581 19490.8 -107257)
(2.22088e+06 -690038 39848 -642050 -52551.2 -592756)
(2.40399e+06 -802224 -109733 -463860 37568.4 -160582)
(4.31738e+06 -493184 -154314 548853 13666.7 866556)
(4.17317e+06 -404938 67100.3 398181 -62467.6 520605)
(4.09614e+06 -389941 -16656.2 340747 -93121.3 337213)
(4.28587e+06 -404938 -104892 510877 32830 783562)
(4.22185e+06 -329176 111993 398108 -44058 455183)
(4.07281e+06 -314088 16241.6 329856 -64354.4 254395)
(-3.41252e+06 -807276 200170 -421084 77232.4 -660679)
(-3.24401e+06 -661030 -115045 -208309 -43252.3 -138538)
(-3.24616e+06 -627943 -38941.1 -227343 -13932.7 -299904)
(-3.42468e+06 -661030 141216 -388979 72222.4 -560100)
(-3.29656e+06 -561201 -123424 -209907 -29355.4 -143794)
(-3.27846e+06 -512291 -57102.5 -191446 -15854.6 -270223)
(-1.65857e+06 -639362 166081 150799 63608.9 -65996.3)
(-1.62705e+06 -506030 -98402.3 291540 -43663.4 341496)
(-1.7934e+06 -685363 140708 97799.1 47501.8 -19279.1)
(-1.77477e+06 -506030 135533 143814 56782.8 -3198.85)
(-1.79346e+06 -429665 -83620.6 237756 -29113.7 304039)
(-1.93968e+06 -578404 114698 40223.2 58963.3 14161.1)
(-1.82529e+06 -1.18916e+06 166081 -238219 63608.9 -232718)
(-1.95535e+06 -1.29833e+06 140708 -280091 -32009 -181232)
(-1.54211e+06 -1.19552e+06 240873 -207724 67848 -414251)
(-1.95727e+06 -1.29833e+06 135533 -282002 50179.6 -185691)
(-2.10259e+06 -1.44968e+06 114698 -339898 -41323.5 -148748)
(-1.5918e+06 -1.32445e+06 217599 -232440 67587 -385953)
(-408367 -1.01292e+06 76498 185283 60532 12038)
(-421626 -1.09108e+06 63542.7 183470 -20817.1 39251.6)
(-704810 -1.08473e+06 -11249.1 152975 -25056.2 220785)
(-412413 -1.09108e+06 60842.7 192683 63798.6 60748.5)
(-455590 -1.21451e+06 51392.7 170694 -15516 75849.9)
(-821057 -1.1884e+06 -30672.8 121132 -32923.4 276111)
(-606417 -1.44075e+06 76498 -276832 60532 -186011)
(-640480 -1.53177e+06 63542.7 -327191 -38019.4 -179603)
(-267598 -1.41937e+06 168544 -242153 46277.5 -409234)
(-631267 -1.53177e+06 60842.7 -317978 46596.2 -158106)
(-696690 -1.66487e+06 51392.7 -391873 -48580.8 -165250)
(-229811 -1.52822e+06 161735 -271121 44229.8 -403372)
(882404 -1.20095e+06 -8375.83 264826 41768.1 120266)
(929256 -1.27137e+06 -6186.36 234014 -41087.8 92672.2)
(590437 -1.29275e+06 -98232.5 199335 -26833.3 315895)
(946034 -1.27137e+06 -6435.6 250792 40463 131820)
(976461 -1.38298e+06 -5430.53 202515 -39353.1 100600)
(575005 -1.38653e+06 -106323 155658 -36986.6 345866)
(634178 -1.22345e+06 -8375.83 -314367 41768.1 -127960)
(665453 -1.32729e+06 -6186.36 -381527 -50935.3 -171131)
(1.18723e+06 -1.1813e+06 58807.4 -199128 13666.7 -296882)
(682230 -1.32729e+06 -6435.6 -364750 30615.4 -131983)
(692007 -1.47198e+06 -5430.53 -461212 -63183.5 -183854)
(1.2872e+06 -1.29621e+06 78330.8 -246652 9892.64 -343296)
(2.19114e+06 -928686 -114714 340902 9001.83 258917)
(2.30875e+06 -1.01544e+06 -100881 290558 -66177.7 186478)
(1.75569e+06 -1.05759e+06 -168065 175318 -38076.3 355401)
(2.32284e+06 -1.01544e+06 -96630.8 304653 7909.1 219368)
(2.42395e+06 -1.13816e+06 -84040.2 233566 -71292.9 141793)
(1.81897e+06 -1.16925e+06 -168807 115468 -50570.1 353105)
(1.83794e+06 -866772 -114714 -483229 9001.83 -94282.3)
(1.84177e+06 -769606 38002.3 -600993 -62467.6 -478569)
(1.99241e+06 -873769 -100881 -447562 13666.7 -129859)
(2.00441e+06 -769606 -96630.8 -438346 13478.1 -99060.4)
(1.99461e+06 -694643 54614.4 -556427 -44058 -499352)
(2.1506e+06 -798634 -84040.2 -404237 32830 -131552)
(3.72484e+06 -492365 -114714 493201 9001.83 764716)
(3.57608e+06 -443959 65590.5 334198 -62950.7 468082)
(3.52602e+06 -417902 -15430.1 298584 -89183.8 296579)
(3.65462e+06 -443959 -65948.3 412729 28819.3 651323)
(3.66059e+06 -372180 137471 354632 -30147.6 407922)
(3.47044e+06 -367988 35346.6 261388 -53691.9 188742)
(-2.80511e+06 -761117 166081 -340576 63608.9 -557371)
(-2.67463e+06 -634374 -119809 -157424 -43663.4 -107469)
(-2.65522e+06 -595921 -54180.6 -156712 -21245.1 -241603)
(-2.82236e+06 -634374 114127 -305151 56782.8 -452163)
(-2.72893e+06 -552163 -128426 -163162 -29113.7 -96879.7)
(-2.70392e+06 -501651 -62837.6 -141247 -15697.4 -221268)
(-1.29717e+06 -629421 128339 130730 46848.6 -52424.1)
(-1.31303e+06 -517672 -105428 236925 -46868.9 279146)
(-1.46292e+06 -682868 114834 53061.1 37985.2 -36622.4)
(-1.45037e+06 -517672 90058.3 99582.2 38094.7 -41321)
(-1.581e+06 -475462 -103702 125238 -36129.4 195552)
(-1.69944e+06 -608186 73263 -38665.7 36350.8 -35343.1)
(-1.43068e+06 -1.17896e+06 128339 -180803 46848.6 -185938)
(-1.58104e+06 -1.27128e+06 114834 -222553 -25056.2 -154743)
(-1.2846e+06 -1.19948e+06 202581 -190244 60532 -363490)
(-1.59398e+06 -1.27128e+06 90058.3 -235487 37257.7 -184922)
(-1.81318e+06 -1.40841e+06 73263 -304065 -32923.4 -149086)
(-1.40454e+06 -1.31109e+06 164778 -232514 63798.6 -364449)
(-359656 -1.05883e+06 71214.2 102547 47101.1 -46261.1)
(-359367 -1.12181e+06 48752.9 119066 -16382 6872.83)
(-505448 -1.10129e+06 -25489.2 128507 -30065.3 184424)
(-353550 -1.12181e+06 46738.9 124884 45531.2 20446.8)
(-360262 -1.21696e+06 29702.1 126957 -3739.58 56676)
(-549698 -1.17715e+06 -45018 123984 -30280.4 236202)
(-509828 -1.43082e+06 71214.2 -247853 47101.1 -196433)
(-530932 -1.51462e+06 48752.9 -281252 -26833.3 -164692)
(-238966 -1.42282e+06 138610 -215761 41768.1 -360321)
(-525115 -1.51462e+06 46738.9 -275434 35079.9 -151118)
(-555629 -1.63786e+06 29702.1 -328900 -36986.6 -138691)
(-184600 -1.52269e+06 129589 -233766 40463 -352737)
(706717 -1.24406e+06 7554.84 174549 37860.2 35867.5)
(782617 -1.29767e+06 -11035.1 188795 -33054.2 67520.4)
(511755 -1.30567e+06 -78430.5 156703 -27721.3 231409)
(805287 -1.29767e+06 -3819.74 211465 32025.9 120417)
(888999 -1.38587e+06 -3202.77 199869 -25933.2 99433.1)
(548485 -1.3778e+06 -86053.4 158201 -31316.3 301052)
(507166 -1.22345e+06 7554.84 -291071 37860.2 -163684)
(556599 -1.30907e+06 -11035.1 -338579 -38076.3 -158497)
(992049 -1.18017e+06 42315.3 -172995 9001.83 -254981)