/*--------------------------------*- C++ -*----------------------------------*\
| =========                 |                                                 |
| \\      /  F ield         | OpenFOAM: The Open Source CFD Toolbox           |
|  \\    /   O peration     | Version:  v2012                                 |
|   \\  /    A nd           | Website:  www.openfoam.com                      |
|    \\/     M anipulation  |                                                 |
\*---------------------------------------------------------------------------*/
FoamFile
{
    version     2.0;
    format      ascii;
    class       volScalarField;
    location    "1";
    object      sigmaHyd;
}
// * * * * * * * * * * * * * * * * * * * * * * * * * * * * * * * * * * * * * //

dimensions      [1 -1 -2 0 0 0 0];


internalField   nonuniform List<scalar> 
5880
(
5.14768e+06
4.67079e+06
4.67079e+06
4.67079e+06
5.73951e+06
3.64576e+06
1.38402e+06
1.26092e+06
1.7378e+06
679791
516743
1.54178e+06
2.36354e+06
2.11271e+06
2.11271e+06
1.53158e+06
2.49127e+06
2.49127e+06
322776
457516
708353
-123609
248260
555225
646844
613631
613631
613631
545059
613631
-715561
-718548
-685335
-718548
-1.17567e+06
-774688
-651851
-725332
-725332
-725332
-781472
-725332
-2.15849e+06
-2.02514e+06
-1.95166e+06
-1.46163e+06
-1.84004e+06
-2.27028e+06
-2.34729e+06
-2.21407e+06
-2.21407e+06
-1.65056e+06
-2.43462e+06
-2.43462e+06
-4.37751e+06
-5.24614e+06
-3.9958e+06
-4.1475e+06
-4.34786e+06
-3.5638e+06
3.28804e+06
3.56882e+06
2.62476e+06
3.92937e+06
3.33769e+06
3.32998e+06
1.12492e+06
463496
1.12678e+06
1.13527e+06
592117
1.1664e+06
1.84165e+06
1.99315e+06
1.60757e+06
1.99597e+06
1.94207e+06
1.44325e+06
187436
271691
505770
-210432
37977.3
288383
561740
582344
552118
1.04187e+06
552155
640889
-715194
-701541
-691919
-587026
-1.01856e+06
-778161
-461367
-509349
-716175
-394833
-380943
-335298
-1.97576e+06
-2.0665e+06
-1.81169e+06
-1.89693e+06
-1.41657e+06
-1.4761e+06
-1.39718e+06
-1.14356e+06
-1.52526e+06
-1.08454e+06
-718484
-1.30218e+06
-3.5257e+06
-2.96501e+06
-3.33126e+06
-3.19102e+06
-3.33819e+06
-2.81968e+06
2.985e+06
3.49872e+06
2.51137e+06
3.31601e+06
2.1608e+06
1.80979e+06
993378
564706
1.03833e+06
940616
611544
667397
1.5883e+06
1.74457e+06
1.42624e+06
1.70835e+06
1.62664e+06
1.29059e+06
140156
173685
335746
-396853
37122.3
161322
558809
561936
538662
1.09432e+06
582704
709420
-759236
-766320
-746173
-753452
-779344
-394448
-309978
-334353
-498420
-321485
79619.5
-341211
-1.76021e+06
-1.7128e+06
-1.52436e+06
-1.72462e+06
-1.47995e+06
-1.46022e+06
-1.01417e+06
-756464
-1.01297e+06
-989595
-324088
-787946
-3.05644e+06
-2.63577e+06
-2.76857e+06
-2.92426e+06
-2.67079e+06
-2.45421e+06
2.60197e+06
2.10851e+06
2.21446e+06
2.48442e+06
2.33884e+06
2.20531e+06
898994
555399
942912
935349
231213
510329
1.38007e+06
1.48768e+06
1.29209e+06
1.49879e+06
1.65022e+06
1.09204e+06
89488.1
129105
217088
121896
-53607.1
151484
538361
579792
566729
572583
444469
775983
-710601
-631672
-660039
-691727
-482827
-686228
-210149
-135349
-371200
-195404
-1651.81
-266047
-1.55864e+06
-1.48582e+06
-1.32477e+06
-1.5346e+06
-1.35412e+06
-1.28348e+06
-822987
-525206
-804454
-864602
-377821
-754325
-2.72837e+06
-2.37346e+06
-2.37224e+06
-2.65555e+06
-2.35021e+06
-2.2347e+06
2.30007e+06
1.86722e+06
1.96232e+06
2.24717e+06
2.00365e+06
1.96849e+06
799564
463372
801128
823258
419819
698497
1.20363e+06
1.23769e+06
1.11009e+06
1.27711e+06
1.17975e+06
1.15016e+06
67283.2
90147.4
183689
82535
74775.7
201727
501055
538108
487546
530496
537717
532219
-647373
-583468
-569959
-636077
-533315
-535038
-159486
-85529.5
-319399
-138139
-18939
-270060
-1.38586e+06
-1.32111e+06
-1.16119e+06
-1.36828e+06
-1.248e+06
-1.11608e+06
-699943
-406985
-690865
-757255
-380522
-711977
-2.44153e+06
-2.14591e+06
-2.07495e+06
-2.39654e+06
-2.11929e+06
-2.01309e+06
2.03338e+06
1.63644e+06
1.72122e+06
1.99632e+06
1.69743e+06
1.71777e+06
704107
407942
720104
719907
442940
721494
1.05235e+06
1.08406e+06
967650
1.10621e+06
1.10723e+06
988039
59076.7
80034.8
164736
65744.8
86281
204448
456015
496378
418964
482088
525789
424750
-578735
-531376
-494325
-575104
-508092
-450754
-126810
-63004.1
-287666
-106731
-13381
-265585
-1.22988e+06
-1.18025e+06
-1.0194e+06
-1.21874e+06
-1.13806e+06
-979207
-603009
-338634
-607751
-662217
-355937
-654538
-2.17139e+06
-1.92446e+06
-1.82285e+06
-2.13382e+06
-1.9065e+06
-1.78633e+06
1.76619e+06
1.41483e+06
1.48905e+06
1.7268e+06
1.44659e+06
1.47881e+06
615485
369376
646522
630343
434211
682196
910168
945197
839538
954506
989766
851063
58632.3
72199.9
142830
56155.9
79728.1
183171
405943
443484
359074
427440
478527
354177
-505580
-476353
-429484
-510891
-467650
-394388
-97960.2
-49413.9
-259898
-83952
-11147
-250681
-1.08123e+06
-1.05036e+06
-888423
-1.07925e+06
-1.0292e+06
-862475
-513842
-291370
-535964
-573364
-328692
-593183
-1.91093e+06
-1.69732e+06
-1.59137e+06
-1.8601e+06
-1.69172e+06
-1.55235e+06
1.49809e+06
1.19695e+06
1.2578e+06
1.45792e+06
1.21675e+06
1.24671e+06
524590
331337
571627
544719
417221
628432
765410
805559
721361
808320
863746
736730
70348.7
66301.4
110350
52993.8
69682.1
141271
356420
382425
306328
369117
417938
301434
-422498
-418647
-368556
-442882
-426525
-358843
-63950.2
-37598
-230407
-61832.5
-15647
-232419
-930321
-928594
-762138
-948955
-933102
-762516
-420145
-254069
-471663
-489003
-312942
-538271
-1.66092e+06
-1.45945e+06
-1.37373e+06
-1.57289e+06
-1.47438e+06
-1.30686e+06
1.23435e+06
979841
1.01785e+06
1.19322e+06
996325
1.02214e+06
406287
265653
482161
464038
420070
591150
599140
652779
612778
671461
755445
667167
101123
77809.5
64172.2
69406.5
58876.3
63170.4
318038
325625
271683
317222
341073
257034
-305711
-346311
-299955
-379056
-396100
-335913
-17470.2
-19840.8
-188024
-52586.2
-29854.1
-216293
-752402
-809782
-639228
-846876
-873517
-709810
-296170
-216313
-407722
-423660
-323951
-502810
-1.4202e+06
-1.21147e+06
-1.17688e+06
-1.28926e+06
-1.27598e+06
-1.03797e+06
1.0851e+06
840536
821807
946165
674908
727710
259198
184473
395107
290102
413639
519966
620008
533311
397402
652677
659135
429271
-104672
-110852
68005
8513.97
36973.6
212451
286098
257638
84960.8
422448
423683
219746
-477036
-490208
-324644
-325398
-311533
-154212
-97123.4
-58193.3
-210586
158848
156228
-14956.7
-696800
-828252
-733027
-611211
-688453
-592665
-339327
-160728
-383090
-238520
-267412
-461730
-1.25856e+06
-1.23566e+06
-1.0362e+06
-1.0259e+06
-932294
-831584
783183
689552
683164
754896
502779
626501
196974
83797.5
241356
176634
127519
255532
541815
596590
379195
581019
552262
379193
-117488
-13578
146791
-211751
-68399.3
-13167.6
286147
393729
192053
330238
361993
120636
-230442
-122927
-32378
-208476
-126910
77702.2
-155088
-66924.4
-120681
-152474
-21641.7
-251582
-182943
-62890.2
-100316
-151808
-96189
-4008.02
-630359
-558914
-573486
-724055
-789966
-777012
-227497
-71024
-228256
-236165
-113064
-203069
633043
440224
561744
533061
672413
496186
158921
100614
222724
135446
2327.79
67197.9
463464
529050
290541
482005
557136
426445
-106581
-66584.2
104204
-106714
-58347.8
219313
266308
315973
133997
275844
318618
54711.9
-169967
-108595
20229.9
-162599
-153362
62714.4
-64756.6
-10254.2
-87139.7
-64258
-42875
-181089
-114465
-60392
-41077.3
-101919
-61459.5
49241.5
-453928
-437005
-448486
-526517
-546074
-584388
-50773.6
-65166.8
41046.8
-58608.4
-65397.8
94204.4
479496
377091
441790
445027
410904
395388
108302
42962.1
128718
102771
82813.5
116986
374390
396892
207479
417499
456508
158603
-104246
-95583.3
69398.5
-177263
-98226
-71264.4
249067
268492
93332.2
330751
263366
297307
-152555
-115418
36810.6
-121101
-124606
-130099
-4368.35
16745.6
-52164.9
11062.3
64604.4
-77214.7
-72474.2
-44366.8
719.115
-53322.1
-55835.5
28408.5
-313971
-332473
-326496
-361905
-389135
-428322
61331.8
32385.8
103013
58509.8
17665
169753
327948
214524
317037
274333
293058
257456
53744.5
-1673.1
52955.8
26475.6
-19809.5
18678.5
285738
286285
130769
304607
354386
251878
-116437
-119282
34028
-113565
-138887
108491
222197
230789
56076
236506
243103
-16817.9
-156448
-148175
14542.1
-142829
-165770
82036.2
37847.1
29166.5
-39902.2
34512.8
-16976.5
-94574
-66221
-60162.3
14843.8
-48854
-66511.8
57751.9
-212330
-260577
-244294
-250521
-312301
-338513
98655.2
73521.2
105793
105379
63845.6
194187
182844
93618.2
193579
121767
120918
146085
-4270.41
-44751.8
-14912.6
-26811.5
-35419.1
-33385.7
198272
187511
52795.8
220561
210722
10048.2
-146569
-169165
-25131.5
-145152
-190013
18384.2
180505
168163
10562.3
192176
167629
-40476.5
-180375
-192726
-26015.8
-170481
-205815
22049
59112.6
31169.4
-45436.1
53415.1
4910.05
-96370
-93333.9
-104295
-2593.62
-75920.5
-105752
39075.8
-141005
-204653
-190094
-166495
-236023
-266606
75692.8
65260
60541
95836.6
66378.8
166974
41559
-35315.9
72209
-17375.7
-47261.1
24954.7
-68634.6
-103886
-98235.4
-92070.3
-117813
-136645
106583
77255.5
-30970.1
124434
79167
-68146
-193319
-232495
-96228.9
-193666
-257804
-67146.2
124612
94033.1
-47901.4
132862
85549.2
-92511.6
-227131
-255328
-85974.4
-218594
-268098
-47352.9
55947.6
12828
-72773.5
49562.3
-9508
-118841
-153624
-176733
-51102.4
-133951
-173162
-10055
-99870.2
-169063
-164559
-111072
-182389
-223822
254.54
11612
-27268.1
35184.8
25442.6
98423.9
-89337.4
-158513
-41419.9
-146697
-190492
-88845.2
-137167
-171516
-187947
-164688
-202128
-240220
13567.6
-34234.8
-120266
24700.9
-44572.9
-158507
-256502
-309056
-176456
-258289
-336733
-155442
56326.3
9835.64
-119427
60601.8
-3785.07
-162094
-298704
-338488
-165986
-289832
-350223
-132345
28154.9
-26877.8
-123155
21779
-47005.3
-164726
-248660
-279116
-131365
-223797
-268816
-88343.5
-90126.9
-157728
-169873
-86374.2
-153930
-213435
-123899
-84893.8
-155731
-73660.1
-58257.8
-6939.84
-203742
-266797
-141931
-259968
-313583
-192569
-206436
-242805
-277961
-243060
-293447
-345916
-75930.9
-139847
-210405
-73758.3
-158989
-251999
-334983
-397774
-264616
-338845
-425937
-249834
-20164.7
-79963.5
-200733
-21033.8
-96850.6
-242372
-396289
-443974
-267008
-385970
-452696
-236781
-21178.2
-85441.1
-194797
-27437.2
-102306
-230703
-381689
-414923
-245735
-348251
-394865
-198976
-110841
-171894
-206643
-92730.7
-151777
-236247
-297906
-225973
-325848
-232613
-188819
-150183
-293517
-348344
-222282
-348599
-408113
-280434
-271963
-311135
-358856
-325765
-390085
-448050
-154850
-230628
-292429
-165220
-257215
-338369
-424130
-496170
-360092
-434471
-525740
-355217
-97302.7
-167354
-283925
-105655
-185857
-323511
-518663
-573279
-390992
-508894
-578869
-367638
-84195.6
-156124
-281598
-91739.5
-168415
-309330
-556790
-590171
-398866
-512978
-557972
-350162
-155601
-208352
-272048
-126989
-175602
-290835
-529145
-421096
-541293
-455363
-377936
-341353
-343861
-382420
-273630
-397051
-454793
-344843
-329508
-368612
-410838
-411446
-482496
-524004
-213436
-292033
-348087
-239235
-322494
-395200
-512964
-598134
-464917
-542095
-639460
-486531
-162012
-236236
-349908
-180196
-253506
-383410
-657138
-724036
-541480
-658424
-738132
-543359
-144140
-222189
-365983
-156578
-230702
-383553
-775730
-810167
-597542
-726305
-778682
-565901
-206473
-248283
-351834
-177324
-218914
-370129
-837618
-672074
-809482
-745645
-693433
-561957
-320097
-331071
-291342
-373905
-418000
-380285
-427213
-445240
-409784
-530342
-560710
-518309
-240951
-291866
-333420
-260208
-305136
-356046
-571797
-681708
-588102
-637544
-756584
-661125
-189796
-255297
-356698
-211133
-263320
-368991
-761434
-881306
-718790
-820735
-949436
-799248
-165098
-250748
-410273
-190177
-253256
-403187
-994812
-1.08285e+06
-851911
-1.00459e+06
-1.12901e+06
-935326
-218274
-255606
-415938
-215718
-268566
-442724
-1.19215e+06
-988400
-1.05525e+06
-1.11037e+06
-1.31002e+06
-819548
-184616
-18362.6
-207291
-234909
-129246
-230961
-575978
-414444
-346307
-630990
-448578
-458688
-240454
-22050.8
-247647
-206573
-37394.4
-207971
-802225
-705433
-597138
-889955
-612075
-678507
-276200
-57814.6
-263589
-223109
9180.19
-203272
-1.01869e+06
-1.00097e+06
-866053
-1.16626e+06
-857551
-926665
-295697
-101103
-253978
-259041
41959.8
-205917
-1.16121e+06
-1.26369e+06
-1.11784e+06
-1.42163e+06
-1.07577e+06
-1.14931e+06
-301822
-199313
-433892
-321288
-39471.6
-415800
-1.76554e+06
-1.22292e+06
-1.31802e+06
-1.43568e+06
-1.31638e+06
-1.12787e+06
-1.60265e+06
-1.343e+06
-1.4679e+06
-1.36703e+06
-1.23023e+06
-1.02188e+06
-984249
-869423
-915611
-867632
-567406
-763838
-2.00712e+06
-1.62186e+06
-1.78394e+06
-1.81066e+06
-1.44516e+06
-1.5861e+06
-1.03129e+06
-994920
-1.19494e+06
-1.27935e+06
-868142
-1.02675e+06
-2.47748e+06
-1.99099e+06
-2.13151e+06
-2.17983e+06
-1.74914e+06
-1.92046e+06
-1.39989e+06
-1.18936e+06
-1.49669e+06
-1.37151e+06
-1.00212e+06
-1.24388e+06
-3.04131e+06
-2.47154e+06
-2.56784e+06
-2.65369e+06
-2.15975e+06
-2.3119e+06
-1.80232e+06
-1.4723e+06
-1.91017e+06
-1.64896e+06
-1.17535e+06
-1.50726e+06
-3.61921e+06
-2.89821e+06
-3.22369e+06
-3.15786e+06
-2.71014e+06
-2.82772e+06
-2.1727e+06
-1.86097e+06
-2.13621e+06
-2.12062e+06
-1.56516e+06
-1.85445e+06
-882291
-737907
-951035
-736115
-542865
-1.01012e+06
-729089
-674660
-591996
-511007
-460235
-729459
-1.11463e+06
-1.03686e+06
-884945
-1.07616e+06
-871222
-805518
-744795
-604715
-835631
-822198
-702995
-863059
-1.34836e+06
-1.1711e+06
-1.08207e+06
-1.38858e+06
-1.03933e+06
-1.19531e+06
-1.0175e+06
-884374
-1.15035e+06
-1.09936e+06
-764759
-958398
-1.5898e+06
-1.39171e+06
-1.30544e+06
-1.60669e+06
-1.24248e+06
-1.41756e+06
-1.28676e+06
-1.03687e+06
-1.31815e+06
-1.25166e+06
-1.03936e+06
-1.22976e+06
-1.83158e+06
-1.56772e+06
-1.5446e+06
-1.86378e+06
-1.27791e+06
-1.58072e+06
-1.60628e+06
-1.4369e+06
-1.19365e+06
-1.52005e+06
-1.18453e+06
-1.40818e+06
-567593
-561686
-686017
-563747
-338191
-576141
-471331
-442284
-318535
-433151
-259103
-202695
-741794
-648774
-566966
-818869
-698637
-675631
-474535
-375009
-550641
-608723
-509025
-519021
-924967
-861939
-742940
-814434
-789147
-724802
-666367
-563591
-746028
-699532
-684624
-535024
-1.08304e+06
-914762
-904764
-1.0507e+06
-881036
-944379
-856244
-711269
-888212
-884357
-700344
-804594
-1.22744e+06
-1.01568e+06
-1.00782e+06
-1.26125e+06
-963412
-1.07595e+06
-1.1308e+06
-1.09189e+06
-851403
-1.11272e+06
-957044
-859821
-396821
-395195
-480377
-386062
-256495
-400833
-280799
-245273
-153187
-239630
-115423
-56497.4
-508885
-447551
-375823
-586365
-426270
-484168
-256799
-180917
-315675
-298734
-234080
-291127
-643232
-565427
-497974
-683244
-550212
-581535
-396498
-299728
-444905
-430494
-308278
-408266
-755492
-647283
-635745
-778049
-611664
-714775
-537662
-434950
-553606
-582211
-459573
-521082
-849325
-689604
-679125
-887188
-668732
-741543
-767982
-759314
-553421
-749864
-701714
-578771
-272505
-265402
-319224
-259759
-137385
-231481
-147053
-109522
-51407.4
-111092
-460.419
14552.1
-332768
-293400
-237900
-400248
-331704
-348706
-103980
-37643.5
-133616
-137133
-65092.3
-116076
-430132
-369138
-328218
-468628
-386922
-422806
-189303
-114914
-216981
-220185
-144567
-189217
-504596
-427251
-426018
-532522
-434040
-515594
-285170
-214050
-291951
-332897
-261707
-277249
-571546
-443798
-436740
-591770
-432428
-488087
-474860
-486975
-304608
-445566
-448229
-317825
-172072
-155989
-185825
-157558
-52626.5
-102393
-69003.3
-34906.4
-8262.87
-48774.6
38972.7
24834.4
-187002
-160947
-133375
-242918
-199553
-226728
-7504.66
55711.1
1666.13
-22691.4
42233.1
27127.1
-252887
-210675
-187584
-289077
-236101
-277179
-29218.4
31062.2
-34553.1
-52171.1
3747.16
-7167.78
-294809
-241749
-244919
-324982
-264467
-335530
-73355.4
-23759.6
-73359.7
-119863
-76549.1
-64994.3
-343845
-245669
-231026
-344462
-225463
-262775
-220578
-253914
-90615.4
-180726
-204321
-81866.5
-92946.6
-69974.5
-79582.1
-83842.7
7232.97
-7589.64
-44472.2
-17001.8
-18020.6
-48083.6
22034.2
-17437.5
-64343.4
-45987.9
-56798.1
-106682
-78701.4
-133251
35322.6
101679
94477.9
40915.1
106013
134236
-96449.4
-69496.7
-66801.8
-130261
-96581.6
-149003
90785.4
143991
113941
77399.7
126033
145580
-107267
-73375.6
-79767.6
-139967
-102438
-168619
111148
146756
119211
65615
95598
124878
-142391
-68833.6
-41929.4
-122617
-28822.4
-47340.2
9264.21
-33319.2
102939
65495
24549.9
140632
-39847.7
-11764.6
-3790.26
-42846.5
40798.3
52113.3
-73665.5
-53576.5
-79688.7
-108103
-47621.3
-111346
37277.7
53515.4
-7613.83
11910.4
33411.5
-64357.6
24659.4
99408.9
145459
53296.2
126689
205161
46958.3
62003.3
37354.1
15890.6
37570.8
-36382.3
173691
224424
233629
169893
219288
272196
69255.4
87892.6
75968
33362
56402.8
-11257.9
276430
301309
294295
227229
251598
296485
45686.4
107154
140273
88681
163369
169414
216028
168303
288482
298884
260434
348117
-20588.6
13828.8
37405.6
-40698
45771.1
74857.1
-160298
-142302
-194418
-228633
-164478
-255236
116615
136910
13311
113880
137027
-19807.5
-39277.7
45388.9
150644
13220.8
100417
236800
182542
187310
126370
155142
168754
61410
218289
270469
326374
224540
280728
374938
243394
246852
226917
200923
214203
138406
425109
444692
460662
367908
393395
455822
236996
277778
330564
294213
336900
394351
426488
365751
461933
525000
431157
526974
-47000.5
498.604
40501.3
-85831.6
18953.4
59238.6
-319661
-279229
-366204
-407782
-317718
-444693
167936
201080
7495.76
200056
229466
-107.356
-143255
-63926.7
98963.1
-79684.5
14459.6
217643
315460
308620
199379
292862
296483
140929
223512
275824
392057
232781
303725
456093
425051
409080
372351
366037
373518
279989
552698
568672
620836
480127
534851
620462
439805
465838
527515
513566
456322
648603
643624
601598
647531
787834
515950
637874
-140461
-59089.7
5294.07
-187642
-34449.4
10038.5
-618893
-460289
-610828
-634439
-477100
-663270
176996
239967
-5810.03
281858
302227
-2087.22
-229544
-204618
-20178.9
-219782
-178118
108549
451513
433811
263354
418647
411690
181989
191573
245485
434268
161706
263224
501062
626786
588973
519575
505195
545613
399112
643130
676579
783271
555586
689458
795380
672655
606138
760195
672207
746405
827660
910642
728764
778957
953609
784320
946839
-307933
-69144.2
-148892
-385924
-85994.6
-191381
-1.01699e+06
-693313
-964553
-1.01009e+06
-945795
-884616
26179.6
261839
208816
97889.2
370543
333289
-386298
-414339
-222978
-366428
-325049
-254175
345116
513544
543030
346493
551982
559725
184330
188982
278249
204614
299578
161414
682806
756849
792638
611643
716681
758904
663776
700246
756494
748603
748211
765918
1.05977e+06
789257
1.08983e+06
1.0141e+06
1.12902e+06
1.04689e+06
1.2125e+06
849709
898908
1.04118e+06
1.10688e+06
1.12284e+06
1.63357e+06
1.59898e+06
1.41261e+06
1.50355e+06
1.47618e+06
1.4435e+06
972469
673751
894211
783449
781430
910866
1.88184e+06
1.64474e+06
1.61878e+06
1.7388e+06
1.81944e+06
1.72682e+06
780281
782313
1.1277e+06
876372
655710
813263
1.78466e+06
1.72474e+06
1.61565e+06
1.77237e+06
1.80421e+06
1.29275e+06
728817
683236
1.03008e+06
730867
714231
948788
1.68656e+06
1.69196e+06
1.53213e+06
1.60963e+06
1.37417e+06
1.40808e+06
733989
748412
1.08417e+06
713578
811710
830408
1.65522e+06
1.48664e+06
1.51396e+06
1.40423e+06
1.55794e+06
1.52703e+06
1.03234e+06
923783
1.00429e+06
996574
1.08158e+06
1.22583e+06
1.11717e+06
1.37978e+06
1.23674e+06
1.29395e+06
1.02944e+06
1.19136e+06
771404
654611
574113
409999
410765
786022
1.49489e+06
1.48951e+06
1.15675e+06
1.4875e+06
1.52666e+06
1.42743e+06
511937
519661
854568
506916
565640
566385
1.56989e+06
1.49844e+06
1.21244e+06
1.48569e+06
1.55881e+06
1.55161e+06
550689
528763
881364
593113
338071
727631
1.5719e+06
1.53511e+06
1.20088e+06
1.59946e+06
1.35093e+06
1.24788e+06
540128
476252
839992
563015
609582
954303
1.58331e+06
1.36387e+06
1.40399e+06
1.42059e+06
1.38652e+06
1.16748e+06
808734
741808
765919
705985
803873
758861
949955
1.0308e+06
1.00442e+06
1.15498e+06
748310
853870
572893
424023
435555
400416
151255
213354
1.21246e+06
1.20001e+06
873982
1.43514e+06
1.15e+06
1.11312e+06
298553
227443
563178
424022
366193
252596
1.37394e+06
1.30693e+06
992669
1.27073e+06
1.3437e+06
1.25419e+06
328935
270656
646510
345837
440051
315998
1.39618e+06
1.30407e+06
1.01765e+06
1.37925e+06
1.43187e+06
1.05867e+06
350449
276816
647880
388122
347744
662297
1.47427e+06
1.26732e+06
1.27165e+06
1.35398e+06
1.28896e+06
1.17637e+06
540292
528240
500530
503067
571602
502535
737613
636632
811088
613024
733419
701689
365784
230388
225147
180092
16191.1
-31705.9
937668
886228
637442
1.06806e+06
883106
885392
101272
16013.8
313912
134058
74001
367841
1.13261e+06
1.0588e+06
755915
1.17684e+06
1.0663e+06
791492
111312
30180.1
401853
147516
94355.6
475707
1.19747e+06
1.10742e+06
822808
1.22476e+06
1.15219e+06
891771
170069
119760
486986
230200
64512.7
391891
1.32148e+06
1.14389e+06
1.11384e+06
1.23994e+06
1.12052e+06
1.03025e+06
316265
332525
245178
289173
409151
351591
528422
433170
589565
382874
378471
479652
135292
-21993.2
-10426
-50926.1
-116793
-150997
665405
599883
399941
771114
704641
482330
-102363
-165348
98036.3
-27111.4
-203891
83473.9
866731
795601
518958
933837
849225
537347
-106814
-148592
194864
663.642
-65522.9
4859.65
972139
934904
631896
901652
934252
934902
-26296.8
-9275.02
324452
-54700
35204.5
-26324.2
1.11283e+06
996992
959283
953641
978927
918264
118913
128123
16146.6
77635.6
243673
194285
297328
179025
360411
150092
104241
317248
-100207
-205660
-190522
-387190
-463364
-298188
402944
375006
186822
372928
492117
401987
-308473
-312526
-97784.8
-342873
-256626
-340083
600134
580983
296065
550637
484767
465566
-289832
-380168
-79572.3
-273731
-320915
53486.9
754280
711459
375792
817895
642164
456895
-241881
-327019
43560.9
-194981
-221605
132024
891555
694675
666318
827029
819963
613215
-115022
-46035.2
-198089
-93192.7
75935.2
-49608.3
65097.8
-55313.9
135669
-34124.2
-146641
73233
-327476
-474533
-469405
-472698
-615150
-639884
154423
101115
-96304.2
272863
148407
31001.9
-569295
-639564
-391075
-515490
-547008
-305982
313206
215557
16910.6
339631
340811
29473.9
-525688
-601183
-308633
-491231
-524231
-218186
466448
391892
119610
501844
477259
165722
-465434
-543355
-203257
-413399
-427897
-99888.6
618108
475017
400352
609616
587181
400529
-349691
-240237
-430730
-304891
-121563
-256401
-173709
-299346
-103528
-297511
-394687
-161604
-602420
-754984
-744509
-746389
-860355
-906184
-130538
-195072
-360188
-30174.5
-70911.4
-271198
-866574
-913191
-685653
-792535
-785735
-546961
13773.2
-57381.5
-262649
63275
42064.8
-218501
-814534
-867484
-594531
-758527
-754056
-476776
155927
88628.6
-161570
197586
188907
-110337
-731716
-791352
-479447
-667319
-661309
-361487
302584
192260
92727.6
324962
326080
121145
-602506
-422367
-713240
-533210
-398907
-479284
-443923
-572705
-380143
-564111
-626295
-411119
-935172
-1.09851e+06
-1.07084e+06
-1.07735e+06
-1.17424e+06
-1.22898e+06
-446288
-502525
-668417
-327460
-317813
-553067
-1.23554e+06
-1.27348e+06
-1.05387e+06
-1.14045e+06
-1.0694e+06
-846745
-320062
-382045
-589363
-249014
-236666
-506750
-1.18015e+06
-1.23355e+06
-968528
-1.09956e+06
-1.02729e+06
-774177
-188786
-259083
-499755
-125098
-111303
-404696
-1.09165e+06
-1.16017e+06
-856137
-981727
-903895
-630317
-67951.3
-148812
-290195
22610.8
12200.4
-174882
-967899
-860750
-1.00203e+06
-886309
-694311
-530163
-762695
-877759
-736424
-856592
-840517
-725495
-1.38924e+06
-1.56723e+06
-1.46861e+06
-1.53235e+06
-1.63302e+06
-1.62747e+06
-834247
-860016
-1.02465e+06
-664666
-576985
-858510
-1.74148e+06
-1.76666e+06
-1.57852e+06
-1.59922e+06
-1.4767e+06
-1.2864e+06
-717792
-765135
-964744
-597693
-533328
-844709
-1.68214e+06
-1.7266e+06
-1.48397e+06
-1.55389e+06
-1.45125e+06
-1.2109e+06
-594206
-664707
-890306
-491994
-436079
-770679
-1.5769e+06
-1.63347e+06
-1.34403e+06
-1.42619e+06
-1.33497e+06
-1.06779e+06
-482760
-595113
-716453
-366806
-273019
-585241
-1.41889e+06
-1.2013e+06
-1.53747e+06
-1.2656e+06
-925633
-1.13852e+06
-1.15001e+06
-1.17893e+06
-1.29591e+06
-1.14405e+06
-1.02525e+06
-1.24981e+06
-2.35121e+06
-2.45532e+06
-2.04396e+06
-2.34636e+06
-2.08377e+06
-2.14984e+06
-1.34808e+06
-1.30825e+06
-1.4552e+06
-1.04512e+06
-889733
-1.19159e+06
-2.39495e+06
-2.58963e+06
-2.47676e+06
-2.31815e+06
-2.26944e+06
-2.12098e+06
-1.21693e+06
-1.25682e+06
-1.44353e+06
-985338
-877418
-1.20814e+06
-2.39903e+06
-2.56838e+06
-2.34432e+06
-2.29847e+06
-2.27392e+06
-2.05359e+06
-1.10234e+06
-1.17264e+06
-1.39575e+06
-902733
-833261
-1.17906e+06
-2.35649e+06
-2.48611e+06
-2.2055e+06
-2.22326e+06
-2.18298e+06
-1.91824e+06
-1.00691e+06
-1.06604e+06
-1.26942e+06
-821946
-705500
-1.06563e+06
-2.22144e+06
-1.9266e+06
-2.1175e+06
-1.94926e+06
-1.97201e+06
-1.77144e+06
-1.77269e+06
-1.65793e+06
-1.87405e+06
-1.75024e+06
-1.29916e+06
-1.59882e+06
-3.96493e+06
-4.20498e+06
-3.52564e+06
-4.29729e+06
-3.77226e+06
-3.8903e+06
-1.95157e+06
-1.59231e+06
-2.00234e+06
-1.67246e+06
-1.11482e+06
-1.52915e+06
-4.12832e+06
-4.75372e+06
-3.82861e+06
-4.83386e+06
-3.13416e+06
-4.23971e+06
-1.99185e+06
-1.66786e+06
-1.97117e+06
-1.78036e+06
-956242
-1.55239e+06
-4.12512e+06
-4.59917e+06
-3.8929e+06
-4.71167e+06
-3.50786e+06
-4.16638e+06
-1.9547e+06
-1.62716e+06
-1.86165e+06
-1.79235e+06
-1.02604e+06
-1.49632e+06
-3.96873e+06
-4.4401e+06
-3.81602e+06
-4.60529e+06
-3.33245e+06
-4.10052e+06
-1.85818e+06
-1.63352e+06
-2.20874e+06
-1.65619e+06
-989865
-1.62423e+06
-4.65998e+06
-3.69977e+06
-3.72636e+06
-3.89205e+06
-3.36287e+06
-3.36099e+06
-4.38984e+06
-3.81928e+06
-4.08302e+06
-3.73512e+06
-3.44304e+06
-2.45858e+06
-2.0702e+06
-1.58241e+06
-1.69809e+06
-1.59842e+06
-1.10203e+06
-1.85647e+06
-4.31535e+06
-4.0297e+06
-4.05337e+06
-4.19484e+06
-3.67783e+06
-3.84873e+06
-1.68621e+06
-1.60731e+06
-1.8895e+06
-1.7555e+06
-1.08685e+06
-1.40704e+06
-4.42949e+06
-4.06619e+06
-4.13239e+06
-4.22769e+06
-3.58427e+06
-3.75579e+06
-1.72039e+06
-1.48634e+06
-1.78366e+06
-1.62886e+06
-1.04066e+06
-1.48497e+06
-4.41234e+06
-3.91268e+06
-4.06128e+06
-4.0552e+06
-3.43265e+06
-3.6032e+06
-1.64235e+06
-1.40782e+06
-1.74914e+06
-1.54257e+06
-1.04362e+06
-1.47876e+06
-4.29347e+06
-3.62504e+06
-4.04759e+06
-3.69199e+06
-3.05818e+06
-3.3749e+06
-1.38683e+06
-1.35017e+06
-1.42649e+06
-1.41712e+06
-1.15009e+06
-1.31353e+06
-2.53708e+06
-1.9547e+06
-2.28454e+06
-1.97071e+06
-1.30221e+06
-1.97407e+06
-1.50519e+06
-1.33361e+06
-1.43553e+06
-1.08286e+06
-767849
-1.251e+06
-2.41029e+06
-2.34289e+06
-2.11184e+06
-2.33539e+06
-1.89941e+06
-2.09853e+06
-1.28753e+06
-978827
-1.27767e+06
-1.26844e+06
-998878
-1.3122e+06
-2.49456e+06
-2.26586e+06
-2.17767e+06
-2.55547e+06
-2.10015e+06
-2.21205e+06
-1.34831e+06
-1.17997e+06
-1.50386e+06
-1.41099e+06
-773833
-1.11476e+06
-2.49244e+06
-2.31999e+06
-2.17092e+06
-2.55101e+06
-2.0898e+06
-2.10282e+06
-1.36607e+06
-1.10622e+06
-1.43132e+06
-1.30828e+06
-843776
-1.30094e+06
-2.49596e+06
-2.25476e+06
-2.20957e+06
-2.39773e+06
-1.96528e+06
-2.0523e+06
-1.20724e+06
-1.06139e+06
-1.21816e+06
-1.20435e+06
-882672
-1.11335e+06
-1.38215e+06
-1.14828e+06
-1.36604e+06
-1.1562e+06
-680030
-922699
-1.03036e+06
-928780
-861893
-881630
-831461
-918826
-1.52743e+06
-1.2731e+06
-1.28496e+06
-1.51699e+06
-1.38234e+06
-1.32332e+06
-987729
-777988
-1.01505e+06
-1.07033e+06
-853293
-690595
-1.69799e+06
-1.5844e+06
-1.41059e+06
-1.6264e+06
-1.48412e+06
-1.35888e+06
-1.04871e+06
-788407
-1.07802e+06
-996557
-945223
-1.00119e+06
-1.76751e+06
-1.56123e+06
-1.4807e+06
-1.61521e+06
-1.55073e+06
-1.5068e+06
-1.08333e+06
-915722
-1.206e+06
-943001
-736717
-1.00481e+06
-1.79439e+06
-1.60131e+06
-1.56468e+06
-1.62012e+06
-1.50237e+06
-1.594e+06
-985251
-825497
-1.00407e+06
-974163
-772646
-949799
-707857
-574563
-772188
-527414
-628595
-352600
-741160
-768523
-653377
-524391
-611149
-741097
-1.02009e+06
-866830
-843639
-875705
-696790
-1.09952e+06
-770293
-516151
-687002
-760591
-580827
-738167
-1.21372e+06
-1.00847e+06
-980427
-1.25291e+06
-998757
-1.02143e+06
-850935
-644750
-878478
-839315
-552924
-778609
-1.34551e+06
-1.20315e+06
-1.06878e+06
-1.39771e+06
-972570
-1.21927e+06
-886290
-678093
-957386
-829634
-606201
-779740
-1.38033e+06
-1.20058e+06
-1.15314e+06
-1.35567e+06
-1.25791e+06
-1.24413e+06
-830623
-689302
-830953
-844400
-644305
-775690
-216340
-182711
-376998
-163904
-99819.3
-164111
-470469
-572422
-383183
-504907
-581074
-508905
-622665
-412698
-511498
-626824
-488989
-512196
-605280
-422871
-525413
-730171
-505284
-378593
-858640
-730501
-707220
-706614
-765312
-650198
-690714
-544860
-693769
-565051
-582659
-615835
-1.02979e+06
-922158
-845812
-900952
-888134
-837169
-747061
-613684
-798134
-611963
-593961
-662357
-1.10323e+06
-985414
-952368
-1.02171e+06
-913806
-1.04432e+06
-714083
-566676
-692653
-715668
-601804
-684978
191137
135684
-44009.5
203198
177248
110300
-270877
-464655
-216950
-197888
-482332
-432637
-324320
-161376
-256017
-185102
-66291.6
-477761
-485461
-301895
-362115
-455044
-340996
-302360
-587256
-436669
-442189
-589818
-442500
-553500
-578095
-392168
-534688
-526933
-446753
-476617
-797025
-653914
-604145
-788679
-661368
-674126
-629193
-456793
-650033
-564083
-483832
-595552
-891097
-731739
-722918
-885807
-863819
-865345
-629292
-496625
-589980
-650694
-537321
-573152
545598
407560
248296
535308
421178
353612
-83320.9
-305845
-10263.2
-165836
-437576
-225660
-51656.6
118769
-23528.5
-31426.4
99857.1
-67917.9
-373198
-187564
-208569
-319455
-293140
-245361
-349008
-183657
-240002
-315548
-278371
-335886
-467406
-325663
-432137
-433141
-401613
-374421
-582439
-460142
-443904
-567620
-546978
-513265
-539502
-390814
-528995
-562712
-468041
-441363
-717497
-579838
-586519
-736282
-704783
-763810
-556302
-440989
-509859
-597433
-502067
-510863
881329
676858
513150
816868
665859
545093
92952.9
-308164
52901.9
-132974
-303195
-27313.2
185588
292628
107206
411093
331833
224647
-279556
-210307
-121677
-225571
-242515
-158029
-141830
-95907.8
-142933
15804.9
35814
-31682.4
-390035
-300432
-294647
-304784
-319685
-481950
-416329
-347393
-365854
-351746
-354925
-218942
-477738
-431001
-480174
-429906
-428646
-381673
-582288
-533875
-546449
-625525
-441206
-546433
-504411
-389464
-446087
-539929
-468133
-461006
1.20607e+06
901013
768708
1.0762e+06
902305
809688
251844
-196569
217377
118021
-296966
-65238.7
392127
486785
308467
669897
434664
617242
-185558
-67501.6
25559.9
-50522.9
-281994
-171066
46280.7