/*--------------------------------*- C++ -*----------------------------------*\
| =========                 |                                                 |
| \\      /  F ield         | OpenFOAM: The Open Source CFD Toolbox           |
|  \\    /   O peration     | Version:  v2012                                 |
|   \\  /    A nd           | Website:  www.openfoam.com                      |
|    \\/     M anipulation  |                                                 |
\*---------------------------------------------------------------------------*/
FoamFile
{
    version     2.0;
    format      ascii;
    class       volScalarField;
    location    "1";
    object      epsilonEq;
}
// * * * * * * * * * * * * * * * * * * * * * * * * * * * * * * * * * * * * * //

dimensions      [0 0 0 0 0 0 0];


internalField   nonuniform List<scalar> 
87519
(
0.00106263
0.000231999
0.00142117
0.00016528
0.00010954
0.000273196
0.000484698
9.27104e-05
0.00107017
0.000473799
0.000503349
0.001052
0.000296551
0.00050281
0.000506563
0.000500623
0.00106623
0.00010078
0.00106523
0.00105901
0.00037732
0.0003931
0.00100599
0.000494735
0.000495074
0.000404961
0.000406161
0.000803705
0.000292226
0.000480409
0.000438892
0.000502441
0.000612542
0.00100451
0.000486198
0.00028533
0.000268424
0.000227847
0.000438143
0.000839233
0.000890436
0.00040864
0.000469493
0.000716395
0.000273363
0.000507863
0.000132124
0.000813792
0.000873968
0.000506487
9.37873e-05
0.000489948
0.00051176
0.000647546
0.000928965
0.00107644
0.000435913
0.000548433
0.000808078
0.000301264
0.000563649
0.000120568
0.000117541
0.000287259
0.000511608
0.00102192
0.00104351
0.000899783
0.00101052
0.00104061
0.000181847
0.000636854
0.000224716
0.000722762
0.000396597
0.000218583
0.000586164
0.000744942
0.000112485
0.000497257
0.000552759
0.000200403
0.00105521
0.000598913
0.000452821
0.000487786
0.000672767
0.000979215
8.16204e-05
0.000178949
0.000530489
0.00043717
0.000544154
0.000562861
0.00106183
0.000223316
0.000359441
0.000925892
0.00127729
0.000696059
0.000121575
0.000234339
0.000808916
0.000679344
0.000400512
0.000689407
0.000443371
0.000227756
0.000443228
0.000532795
0.000687544
0.00074569
0.000444588
0.000374113
0.000943771
0.000249936
0.00142208
0.000937691
0.000439421
0.000484598
0.000581784
0.000589154
0.000277429
0.000222922
0.00110169
0.000609429
0.000772352
0.000638029
0.000558278
0.000710913
0.000343516
0.000161949
0.000903834
0.00145515
0.000359245
0.00025921
0.000707872
0.000980901
0.000382407
0.000801813
0.000304212
0.0004298
0.000706606
0.000298227
0.000700672
0.00100158
0.000704693
0.000420437
0.0010226
0.000161136
0.000148912
0.000174937
0.00115671
0.000108881
0.000411629
0.000325773
0.000586129
0.000121326
0.000667878
0.000406505
0.000381691
0.000594582
0.000820003
0.0001736
0.000809525
0.000932568
0.000653915
0.000991228
0.000575389
0.000154055
0.00107535
0.00100847
0.00101104
0.000244307
0.000191834
0.000231224
0.000373088
0.000432694
0.00101664
0.000359683
0.000277895
0.00044026
0.000766461
0.000171126
0.000236702
0.000919123
0.000494843
0.000513777
0.00071436
0.000406387
0.000459417
0.000376164
0.000539787
0.000746103
0.000414115
0.000869588
0.000390146
0.000207491
0.000446009
0.000715853
0.000516444
0.000350998
0.000621559
0.000495881
0.000250309
0.000351814
0.00106412
0.000797113
0.000462212
0.000734953
0.000238128
0.00092177
0.000641028
0.00017495
0.000410072
0.000986823
0.000935796
0.000356694
0.00089362
0.000721031
0.000473471
0.00103748
0.000587713
0.000537215
0.000245927
0.000569869
0.000484927
0.000189419
0.000349576
4.08068e-05
0.000210219
0.000300821
0.0013406
0.00034296
0.000551251
0.000459472
0.000468769
0.000876144
0.000788714
0.000323237
0.000243358
9.64957e-05
0.000696093
0.000700528
0.00100099
0.0012988
0.000633726
0.000434803
0.00064736
0.000375459
0.000809902
0.000998593
0.000554971
0.000409273
0.000328362
0.000307928
0.000141682
0.000458207
7.02769e-05
0.000837319
0.000609959
0.000493736
0.000642792
0.00105038
0.000533549
0.000297488
0.000512065
0.00082718
0.00028228
0.000837706
0.000669504
0.000577276
0.000278135
0.000739685
0.000801962
0.00100899
0.00105925
0.000708636
0.000465555
0.000729813
0.000140101
0.000159278
0.00082732
6.20982e-05
0.000372843
0.00114671
0.000341924
0.00101048
0.000793593
0.000459499
0.00014519
0.000314088
0.00059445
0.000779221
0.000876844
0.000430348
0.000374118
0.000387718
0.000745944
0.000275161
0.000187968
0.000162983
0.000895245
0.000576574
0.000187286
0.000429912
0.000192144
0.000433104
0.000778425
0.000205948
0.000182737
0.000409695
0.000287442
0.000171716
0.000872647
0.00119031
0.000321776
0.000493404
0.000892633
0.000919931
0.000372937
0.000453519
0.000139541
0.000443771
0.000357119
0.000718097
0.000398923
0.00087952
0.000289352
0.000382949
0.000628133
0.00046246
0.000237447
0.000276908
0.000236855
0.000730444
0.000969215
0.000111597
0.000956931
0.000870289
0.00131627
0.000363122
0.000902454
0.000292086
0.000195713
0.000389587
0.000701576
0.00128571
0.000770189
0.000356191
6.21026e-05
0.000632302
0.0003084
0.000544744
0.000250485
0.000728337
0.000347682
0.000237165
0.000243566
0.000651878
0.000320549
0.000564886
0.000652577
7.51702e-05
0.00105793
0.000912495
0.000401994
0.000224109
0.000350391
0.000126579
0.000317858
0.000327745
0.00031225
0.000338902
0.00102056
0.000966557
0.000386462
0.00034586
0.000654604
0.000721163
0.000466284
0.000424941
0.000165326
0.000326274
0.000439768
0.000422851
0.00116109
0.000788663
8.06063e-05
0.000497009
0.000704672
0.00068334
0.000526032
0.000178572
0.000543726
0.000772012
0.000710904
0.000994033
0.000300995
0.000765924
0.000224837
0.000349189
0.000320731
0.000385627
0.000342062
0.00119816
0.000442646
0.000784011
0.000927314
0.000342973
0.000577124
0.000453326
0.00050926
0.000492087
0.000452783
0.000390601
0.000553862
0.000124758
0.000122574
0.000684624
0.000473941
0.000200527
0.00039204
0.000276536
0.000675583
0.000710084
0.000704721
0.000250485
0.000150482
0.000214169
0.000589521
0.00052141
0.000350708
0.000310553
3.79195e-05
0.000372335
0.0002385
0.000903138
0.000254487
0.000440642
0.000324333
0.00148548
0.000179395
0.000608136
0.000119968
0.000422734
0.000348764
0.000405781
0.000837619
0.000577657
0.000591041
0.000267361
5.44159e-05
0.000412851
0.000312521
0.000787503
7.49989e-05
0.000670318
0.000129249
0.000296139
0.00100495
0.000576558
0.000264028
0.00082578
0.000201925
0.000201839
0.00094029
0.0010197
0.000340554
0.000151595
0.000338803
0.0001178
0.000119336
0.000764696
0.0008482
0.000573699
0.00060046
0.000313507
0.000383158
0.000904642
0.000832648
0.000789268
0.000583885
0.000483884
0.000842297
0.000203344
0.00107449
0.000460936
0.000516246
0.000678377
0.000286238
8.44633e-05
0.000176275
0.000190838
0.000499145
0.00061424
0.00065833
0.00107261
0.000642323
0.000665803
0.00117434
0.000356119
0.000729803
0.000307414
0.000627453
0.000476459
0.000404001
0.000427949
0.000653959
0.000638936
0.000419695
0.000564789
0.000985165
0.000457495
0.000399826
0.000124758
0.000386862
0.000378306
0.000151889
0.000546211
0.000303236
0.000390844
0.00044822
0.000883198
0.000213516
0.000190261
0.000214936
0.000257752
0.000207351
0.000690133
0.000290887
0.000218706
0.000219011
0.000632082
0.00115366
0.00100316
0.000106794
0.000436025
0.000278547
0.000426888
0.000420901
0.000919688
0.000749545
0.000494212
0.000103033
0.000101194
0.000278927
0.000716421
0.00048556
0.000491095
0.000435736
0.000573743
0.000422633
0.000306197
0.000683849
0.000794893
0.000393866
0.000215864
0.000578419
0.000321821
0.000391109
0.000335392
7.48079e-05
0.00090936
0.000394641
0.000390425
0.000421265
0.000499967
0.000146383
0.000608615
0.000396031
0.000370277
0.00076483
0.000571734
0.000362542
0.000332158
0.000292215
0.000376669
0.000229664
0.000167261
0.000245763
5.62062e-05
0.000380362
0.000379875
0.00018573
0.00107538
0.000677488
0.000265838
0.000797527
0.000327745
0.000802513
0.000715836
0.000727041
0.000705826
0.000528754
0.000755074
0.000798024
0.000353807
0.00016918
0.000393434
0.000782315
0.000936445
0.000446752
0.000274975
0.00090424
0.000645883
0.000284653
0.000283705
0.000335868
0.000135961
0.000770115
0.000300853
0.000385585
0.0011076
0.000381762
0.000375425
0.000274234
0.000165167
0.000756723
0.000255481
0.000857965
0.000797251
0.000975212
0.000457943
0.00119587
0.000210066
0.00039418
0.000469354
0.000250485
0.000488569
0.00115946
0.000490796
0.000295384
0.000148954
0.00116145
0.000837006
0.000589793
0.000181061
0.000547363
0.000516955
0.000280026
0.000891621
0.000789525
0.000615858
0.000139252
7.83786e-05
0.000320476
0.000418352
0.00050741
0.000713375
0.000409736
0.00051688
0.000270883
0.000458268
0.000855686
0.000200588
0.000334582
0.00015322
0.000265208
0.000126894
0.000540019
0.000278957
9.105e-05
0.000234561
0.000167032
0.000183002
0.000819965
8.50597e-05
9.0323e-05
9.50577e-05
0.000479833
0.000236024
0.000357177
0.00017905
0.000708464
0.000342125
0.000342063
0.00070543
0.000121797
0.000195115
0.000662944
0.000858373
0.000814503
0.000344335
0.0004342
0.00058809
0.000538394
0.000983702
0.000872306
0.0009069
0.00113013
0.0009585
0.000665201
0.000629669
0.00041641
0.000777609
0.000886091
0.000653867
0.000846614
0.000143742
0.000143551
0.00120108
0.00034503
0.000216026
0.00107593
6.00588e-05
0.000273004
0.000198609
0.000226631
0.00021031
0.000912979
0.00120692
0.000666635
0.000174683
0.00100206
0.000568722
0.000506942
6.21026e-05
0.00105128
0.000668948
0.000560106
0.000588718
0.000417543
0.000294739
0.000151957
0.000145867
0.000475848
5.57991e-05
0.000371228
0.000391864
0.000348098
6.21026e-05
0.00034299
0.000308615
0.000377743
0.00122199
0.000574217
0.000928648
0.000366082
0.0010366
2.05825e-05
0.000184171
0.000185866
0.000799616
0.000352693
0.00066568
0.00059266
0.000356776
0.000317451
0.000134614
0.00021093
0.000273517
0.000603213
0.00074207
0.000469295
0.000343816
0.000163775
0.00108182
0.00105247
0.000735524
0.000599711
0.000107253
0.00107121
0.000124758
0.000705261
0.000850477
0.000180083
0.000214006
0.000663555
8.42494e-05
0.000564677
0.000291996
0.00116388
0.000555651
8.46861e-05
0.000260993
0.00022467
0.000324671
0.000857248
0.00152786
0.00039483
0.000364144
0.000743836
0.000430277
0.000623347
0.000856305
0.000811375
0.000169199
0.000416215
0.000869877
0.000690268
0.000654039
0.000294155
0.000243417
0.000339212
0.000582702
0.00013042
0.00029574
0.000423719
0.000302044
0.000186081
0.000578096
0.000381216
0.000547416
9.92181e-05
0.000347015
0.000446652
0.000916658
0.000212465
0.000191355
0.00074191
0.00057219
0.000122546
0.00086198
0.000738053
0.000182317
0.000492584
0.000467204
0.000863031
0.00039
0.000775146
0.000284258
0.000833678
0.000546965
0.000570768
0.000450746
0.000459152
0.000810713
0.000620063
0.000207071
0.0004582
0.0002673
0.000262072
0.000584307
0.000523691
0.000120209
0.00034083
0.000669879
0.000354826
0.000430535
0.000908201
0.00019857
0.000324551
0.000405125
0.000261357
0.000220838
6.10492e-05
0.000734948
0.000828254
0.000328894
0.000696942
0.000608046
0.000200295
0.00062815
0.000305351
0.000235469
0.00048042
0.000301059
0.000418112
0.000510243
0.00145946
0.000816795
0.000512568
0.000809154
0.00025477
0.000826592
0.000381942
0.00087687
0.000600238
0.000630301
0.000120696
0.000249336
0.00109705
0.00032926
0.000310985
0.000360964
0.000338609
0.000120098
0.000527201
0.00048028
0.000410258
0.00011443
0.000387965
0.00100089
0.000275194
0.00026541
0.000764821
0.000157025
0.000425594
0.000429741
0.000351803
0.00055198
0.000612719
0.000249157
0.000455076
0.000264201
0.000327753
0.000521641
0.000504456
0.00012824
0.000597368
0.000304208
0.00027149
0.000638291
0.000344453
0.00012984
0.00115662
0.000313084
0.000795669
0.000147898
0.000957134
0.00148711
0.000411478
0.000457738
0.000342638
0.000380104
8.43226e-05
0.000676646
0.000291826
0.000814697
0.000490892
0.000691332
0.000196948
0.00109841
0.000311879
0.000318789
0.000142598
0.000235085
0.00118318
0.000347902
0.000425031
0.000479744
0.000836457
0.000164421
0.000264796
0.000122319
0.000136813
0.000225383
0.00103361
0.000187737
0.000722183
6.21026e-05
0.000174008
0.000190488
0.000298346
0.000166504
0.000192461
0.00038696
0.000250485
0.00027476
0.00034007
0.000111597
0.000251325
0.000849295
0.00116734
0.00103337
0.000813133
0.000163358
0.00111897
0.000201857
0.000434041
0.000273036
0.000304759
0.000998026
0.000757988
0.000680356
0.000419287
0.000361576
0.000205241
0.000140254
0.000308485
7.41327e-05
0.000460606
0.000984487
0.000595237
0.000664095
0.000167964
0.000204322
0.000673516
0.00146442
0.000824455
0.00102857
0.000111597
0.000331971
0.00042024
0.00156832
6.38048e-05
0.00113297
0.00105305
0.00136
8.94891e-05
0.00137658
0.00036917
0.000337017
0.000159326
6.60604e-05
0.000451195
0.000431256
0.000622815
0.000338723
0.000657578
0.00107302
0.00119407
0.000511264
8.53258e-05
0.000217341
0.000163735
0.0010775
0.000163915
0.000802425
0.000258026
0.00115601
0.000405685
0.000408828
0.000239784
0.000428159
0.000368258
0.000876067
0.000327406
0.000392886
0.000515647
8.53581e-05
0.000205241
0.000317129
0.000878733
0.000849181
0.000266079
0.000111597
0.000815726
0.000151812
0.000363958
0.000390992
0.00108345
0.000294982
0.000676146
0.000284158
0.000297995
0.000433318
0.00122576
0.000471362
7.71571e-05
0.000323439
0.000105616
6.10492e-05
0.00101611
0.000240838
0.00136976
0.000338029
0.000267897
0.000816105
0.000873107
0.000176304
0.000431205
0.00033476
0.000396263
0.00133728
0.00101258
0.000636525
0.000955358
0.000250485
0.000232872
0.000951621
0.000323915
0.000696176
0.000276345
0.000284885
8.53581e-05
0.000734224
0.000860508
0.000722816
0.000670077
0.000302834
0.000846987
0.000124758
0.000320857
0.000698858
0.000532556
0.000755761
0.00133066
9.63837e-05
0.000525068
0.000478943
0.00096782
8.06056e-05
0.000138624
0.000205241
0.000132717
0.000328664
0.000908927
0.000754637
0.000694693
0.00066321
0.000473336
0.000266879
0.000489303
0.000404022
0.000994048
0.000168838
0.00112271
0.000505389
0.00152352
0.00039291
0.000313885
0.00119998
0.000508893
0.000556547
0.000157289
0.000172094
0.000389811
0.000957784
0.000214342
0.0012359
8.62516e-05
0.000516726
8.85982e-05
0.000639438
0.000975341
0.000382535
0.000136557
0.000297472
0.000515581
0.000819088
0.0009413
0.0011016
7.66864e-05
0.000589107
0.000945434
0.000975632
0.000440536
6.56068e-05
0.000228899
0.000552685
0.000175049
0.000108128
0.000149244
0.00120429
0.000422078
0.000500481
0.000409555
0.000702875
0.000502545
7.41327e-05
0.000445207
0.00019473
0.000100643
0.000840908
0.000129523
0.000516559
7.66796e-05
0.000272143
8.53496e-05
0.00111035
0.00074903
0.000901076
0.000682945
0.00056553
0.000304046
0.000555631
0.000706706
0.000698051
0.000443049
0.00156419
0.000787096
0.00057212
0.000403201
0.000432991
0.00132058
0.000521683
0.000171891
0.00121919
0.000466555
0.000896732
0.000228394
0.000580331
0.000117109
0.000192798
0.000582993
0.000630532
0.000411466
0.000955717
0.00128131
0.000197684
0.000810647
0.000269841
0.000644326
0.000631687
0.000443706
0.000153923
0.00116353
0.000127012
0.00080632
0.000191063
4.84211e-05
0.000814255
0.00111863
0.00032553
0.00124268
0.000103841
0.00069245
0.000917481
0.000765792
0.00063674
0.00117974
0.000890652
0.000859743
0.000380906
0.00144498
0.000513204
0.000189548
0.000163915
0.00101396
0.00105098
0.000102857
0.000250485
0.00120665
0.000126903
0.000935154
0.000341445
0.000257166
0.000446175
0.000207374
0.000131882
0.000111597
5.49594e-05
0.000250286
0.00121783
0.000594829
0.00037936
0.000853466
0.000352873
0.000350063
0.00017231
0.000421242
6.10492e-05
0.00040978
0.000164931
0.000219421
0.000253163
0.000625966
0.00113599
0.00130144
0.000645324
0.0009171
0.000785013
0.000937964
0.000327406
0.000268956
0.00103896
0.000390863
0.000187616
0.000886997
6.28665e-05
0.000225226
0.000199768
0.000226515
0.000238271
0.000674052
0.000411061
0.0003253
0.0012993
0.000251622
8.93204e-05
0.000382739
0.000273981
0.000716985
0.00036099
0.00101052
0.000790796
0.000406934
0.000871307
0.000411784
0.000424014
0.000259374
0.000343755
0.000661407
0.000230487
0.000236634
0.000225749
0.000473295
6.10492e-05
0.000304958
0.000354185
0.00030425
0.000175899
0.000261774
0.000265123
0.000573934
0.000944935
0.000117109
0.000192798
0.000498137
0.00026679
0.00026507
0.000987434
0.000389553
0.000284808
0.000197946
0.000505805
0.00079148
0.000158346
0.00015759
0.000273981
0.000821686
0.00107248
0.000772208
0.000913501
0.0001847
0.000411784
0.000250485
0.000327406
0.0010139
0.000166509
0.000421183
0.000508033
0.000563023
0.000554702
7.4831e-05
0.000305202
0.00032366
0.000172665
0.000736436
0.000778481
0.000193191
0.000778929
0.000875197
0.000429462
0.000234773
0.000212896
0.000212724
0.000363299
0.000220978
0.000273976
0.000224107
0.000263576
0.000214471
0.000598067
0.000575892
0.000686172
0.000281006
0.000623293
0.00122613
0.000183189
0.00038931
8.11018e-05
6.56068e-05
0.000583285
0.000558996
0.000559358
0.000575892
0.0007348
0.000338768
0.000118488
0.000334008
0.000251962
0.00045633
0.000607627
0.000406934
0.000327748
0.00036099
0.00012095
0.000298643
1.55062e-05
0.000796976
0.000333302
0.000249641
0.00038571
7.41327e-05
0.000632473
0.000885879
0.00060175
0.000873373
0.00120065
7.66796e-05
0.000803744
0.000248639
0.000334928
0.00049221
0.00117223
0.000714872
0.000352072
0.000446479
7.51841e-05
8.13196e-05
8.023e-05
0.000308815
0.000327406
0.000859974
0.000371356
0.000254002
0.000459932
0.000308724
0.00040427
0.000292837
0.000423672
0.000227031
0.00026321
0.00026642
0.000276098
0.000582993
0.000286234
0.000251026
0.000123048
0.000263149
0.000279035
0.000931051
0.000784464
0.000228899
0.00032553
9.83502e-05
0.000986133
0.000143075
0.00108999
0.000228091
0.000284808
0.000403018
0.000197946
0.000350399
0.000559116
0.00101296
0.00101812
0.000941281
0.00102038
0.000772941
8.11018e-05
6.56068e-05
0.000752879
0.00112228
0.000687357
0.000162012
0.000111648
0.00120662
0.00122931
0.000488201
0.000559363
0.00140882
0.000795488
0.000669309
0.000323631
0.000174308
0.000127699
0.000170968
0.000331509
0.00032843
0.000364759
0.000371364
0.000789903
0.000567869
0.000706603
0.000576047
0.000337054
0.000374743
0.00084375
0.00089507
0.00028287
0.000399483
0.000360792
0.000436861
0.000513288
0.000408891
0.000385853
0.000422329
0.000308477
0.000432828
0.000716402
0.000718664
0.000487247
0.000356563
0.000646154
0.00063509
0.000333596
0.000376222
0.00150894
0.00112079
0.000770506
0.000440644
0.00044008
0.000438888
0.000867595
0.000827192
0.000602104
0.000658471
7.51841e-05
6.77116e-05
0.000863312
0.000632402
0.000846455
0.000591588
0.000810724
0.000759558
0.00039565
0.000441369
0.000762181
0.000802991
0.000396035
0.00033239
6.10492e-05
0.00012131
0.000826562
0.000765531
0.000789264
0.00082532
0.00010367
9.66928e-05
0.00037888
0.000334452
0.000393399
0.000429559
8.35926e-05
0.000178132
0.000559358
0.000563873
0.000558996
0.00064229
0.000803751
7.25237e-05
0.000435213
0.000488287
0.000411499
0.000374917
0.000626088
0.000971164
0.000503124
0.000461878
0.000267887
0.000399294
0.000407169
9.79418e-05
0.000209504
3.49579e-05
0.000262213
0.000134121
0.000938384
0.000911517
0.000375618
0.000461347
0.000340597
0.000914947
0.000509984
0.000184748
0.000398646
0.000116589
2.0521e-05
0.000466583
0.000487176
0.00045503
0.000744853
0.000379952
0.000671944
0.00107671
0.000579333
0.000540407
0.000462606
0.000453803
0.000641119
0.000528513
0.000216944
0.000106449
0.000207365
9.25376e-05
0.000223074
0.000105205
0.000423576
0.000549804
0.000978593
0.000109411
0.000212144
0.000544941
0.00012881
0.000946775
0.000429173
0.000451453
0.000937043
0.000667388
0.000353338
0.000373022
0.00059209
0.000466849
0.00038309
0.000182546
0.000292691
0.000914676
0.0005302
0.000544403
0.000414917
0.000250708
0.000456213
0.000263057
0.000347142
0.000346878
8.70545e-05
0.000918158
3.42092e-05
0.00025329
0.000352263
0.000479139
0.000471049
0.000333106
0.000384186
0.000236502
0.000224265
0.000459523
0.000540617
0.000964776
0.000413449
9.95926e-05
0.00040842
0.000428728
0.000240471
0.00102103
0.000455142
0.000588296
0.000367265
0.000332234
0.000122913
0.000123502
0.00016255
0.000149329
0.000143366
0.000583472
0.000351374
0.00032256
0.000928192
0.000113926
0.000202949
0.00106619
0.000350752
0.000459458
0.000249688
0.000756982
9.00561e-05
0.000413408
0.000464502
0.00107314
0.000349028
0.000465323
0.000404535
0.000457837
0.000418079
0.000113416
0.000444501
0.000392492
0.000379122
0.00037239
0.000574788
0.000603262
0.000227902
0.000230249
0.000100097
0.000743539
0.000314747
0.000496713
0.000276253
0.000485929
0.000955792
0.000187734
0.000178063
0.000342477
0.000320537
0.00015433
0.000621638
3.85669e-05
0.000411785
0.000159711
0.000430566
0.000304687
0.00017007
0.000571182
0.00018635
0.000211
0.000340103
0.000561395
0.000381391
0.000358537
0.000356068
0.000189924
0.000505043
0.00011587
0.000539353
0.000535559
4.49152e-05
0.000231264
0.00104106
0.000273907
0.000263566
2.68362e-05
0.000506766
0.000285357
8.87537e-05
0.000469824
0.000244818
0.000420943
0.000408725
0.000541354
0.000218302
0.000581691
0.000583228
0.000341906
0.000451228
0.000365859
0.000545921
0.000463468
0.000424396
0.000379308
0.00064142
6.0008e-05
0.000314979
0.000248078
0.000947986
0.000370539
0.000514863
0.00031646
0.000529603
0.000307856
0.000380812
0.000536207
0.000538464
8.16552e-05
0.000504752
4.57688e-05
0.000366777
0.000342043
0.000454033
0.000575459
0.000157019
0.000476088
0.000376464
1.64918e-05
0.000340279
0.000478718
0.0004207
0.000969746
9.11725e-05
0.000633698
0.00041365
0.000448037
0.000471337
0.000254551
0.000493787
0.000538159
0.000263657
0.000170233
0.000364969
0.000213224
0.000114982
0.000322431
0.00019617
0.000464098
0.000505844
0.000332002
0.000431192
0.000545678
0.000333811
0.000452509
0.000347004
0.000702872
0.000497429
0.000643095
0.000232539
0.000911427
0.000267928
0.000462243
0.0010463
0.000493491
0.00108593
0.000420653
0.000459243
0.000386023
0.000282127
0.000370366
0.000235773
0.000585024
0.000430537
0.000182037
0.000434015
0.000516546
0.000380179
0.00103366
0.000449744
0.00035721
0.000455712
9.7709e-05
0.000103974
0.000362627
0.000217014
0.000348835
8.37835e-05
0.000399106
0.000166398
0.000284099
0.000446209
0.000503397
0.000486134
0.000381729
0.000580607
0.000394679
0.000192983
0.000466387
4.34006e-05
0.000290614
0.000448799
0.00048016
0.000115574
0.000538149
0.000417306
0.000574462
0.000462519
0.000239112
0.00034977
0.000474407
0.000125273
0.000474075
0.000168511
0.000367427
0.000340442
4.99026e-05
0.000233027
0.000638148
0.000394304
0.000756995
0.000229021
0.000335225
0.00101776
0.000562044
0.000364484
0.0003591
0.000234015
0.000551611
0.000405778
2.77235e-05
0.000366114
9.81119e-05
0.000906794
6.644e-05
0.000558956
0.000452038
0.00032317
0.000176015
0.000544004
0.000372943
0.00045705
7.9282e-05
0.000114723
0.000530799
8.98359e-05
0.000520838
0.000383053
0.000806219
0.000341188
0.000362188
0.000360596
0.000549029
0.00043566
0.00017205
0.000487371
0.000576197
0.000178687
0.00055481
0.000368787
0.000347294
0.000923726
0.000292122
5.02566e-05
0.000351755
0.000266524
0.000305152
9.6416e-05
0.000317786
0.000223553
0.00105038
0.000551716
0.000106268
0.000459739
0.000854233
0.000520139
3.87726e-05
0.000827546
0.000143684
0.000239912
0.000665519
0.000131295
0.000470293
0.000485735
0.000288046
0.000310348
0.000454946
0.000116981
0.000504242
0.000247851
0.000582775
0.000328993
0.000359205
0.000217359
0.000517838
0.000110746
0.000383201
0.000353557
5.26211e-05
7.73208e-05
0.000451169
0.00014441
0.000532391
0.00010119
0.000313031
0.000417532
0.000446637
0.000310203
0.000339672
0.000398683
0.000480767
3.25169e-05
0.000467635
0.000591419
0.000405638
0.00100305
0.000361031
0.000434184
0.000198424
0.00059019
0.000460145
0.00054516
0.000539696
0.000621921
0.000447355
0.000229492
0.000251303
0.000557763
0.000571167
0.000482372
0.000363469
0.000535701
0.000521013
0.000387934
0.000444167
0.000343184
0.000568732
0.00024733
0.000369182
0.000906354
0.000328259
0.000115592
0.00109914
0.000507064
0.000528958
0.000566392
0.000482068
0.000308421
0.000437523
0.000553625
0.000316933
0.000697559
0.000451137
0.000124617
0.000309765
0.00025507
0.000251206
0.000109935
0.000281585
0.000447555
0.000437049
0.00032772
0.000519144
0.000123539
0.00037902
0.000482701
0.00102812
0.000774146
4.85117e-05
0.000293913
0.000247596
0.000495349
0.000452266
0.000193939
0.000568037
0.000447428
0.000256079
0.000296335
0.000167329
0.00107837
0.00036892
0.000338079
0.000374469
0.000400362
0.000529877
0.000179482
0.000248317
0.000374595
0.000212461
0.000823064
0.000477524
0.00050962
0.0006383
0.00109829
0.000445827
0.000179307
0.000596031
0.000235311
0.000403152
0.000381007
0.00030052
0.00044561
0.000345646
0.000436279
0.00043939
0.000144332
0.000443844
0.000503217
0.000131002
0.000346257
0.000410377
0.000297673
0.00044544
0.000569362
0.000496621
0.000295683
0.000443259
9.20757e-05
0.000301804
0.000298987
0.000367009
0.000527673
0.000514923
0.000364823
0.00038742
0.000502559
0.00035363
0.00104789
0.000123236
0.000509473
0.0007067
0.000579077
0.000365602
0.000415394
0.000446318
0.000464131
0.000416071
0.000176863
0.000395181
0.000244123
0.000937915
0.000415366
0.000167039
0.000353656
0.000365736
0.000420811
0.000771992
0.000340057
0.00027172
0.000557141
0.00035953
0.000337313
0.000454743
0.000281448
0.000419098
0.000238627
0.000310956
0.000346548
0.000499078
0.000503528
0.00040842
0.000274014
0.000113025
0.000539636
0.000313388
3.29966e-05
0.00063765
0.000359489
0.000562561
0.0004733
0.000130907
0.00042879
0.000203772
0.000529689
0.000458974
0.000506385
0.000328092
0.000157033
0.000341957
0.000239872
0.000190563
0.000506822
4.19605e-05
8.00551e-05
0.000383558
0.00025934
0.000631515
0.00035607
0.0005477
0.000304279
7.45366e-05
0.000561345
0.00015905
0.000450844
0.000377994
0.000488034
0.000341299
0.000482907
0.000384919
0.000479809
0.000196636
0.000921679
0.00049996
0.000328224
0.000549597
0.000218258
0.000204498
0.000578588
0.000211726
0.000194918
0.000237318
0.000336805
0.000598363
0.000235717
0.000311623
0.000701396
0.000163696
0.000344644
0.00090974
0.000318491
0.000556043
0.00026837
0.00019757
0.000310809
0.000192109
0.00041552
0.00105761
0.000414088
0.000343976
0.00041738
0.000279915
0.000157694
0.000340902
0.000105593
0.000401677
0.000116393
0.000176808
0.000563256
0.000101743
0.000230802
0.00032292
0.000242007
0.000310098
0.000183738
0.000321133
0.000433692
0.00058305
0.000120014
0.000602469
0.000343688
0.000372109
0.000185688
0.000223936
7.92367e-05
0.000194891
0.000340968
0.000432012
0.000574642
0.000831857
0.000313218
0.000366509
0.000192152
0.000558545
0.00034987
0.000136505
0.000537209
0.000447498
0.000856056
0.000417434
0.000327489
0.000465531
0.000437576
0.000505544
0.000327513
0.00034624
0.00037041
0.00104893
0.000350051
0.000730134
0.000640944
0.00041477
0.000501765
0.000401542
0.000412666
5.04199e-05
0.000394332
0.000513555
0.000311179
0.000447018
0.000233925
0.000241878
0.00110867
0.0004079
0.000213114
0.000349105
0.000493298
0.000969274
0.000118242
0.00054713
0.000422605
4.04098e-05
0.000599417
0.000458312
0.000353256
0.000340785
0.000558582
0.000563141
0.000312421
0.000141936
8.51778e-05
0.00037472
0.00031885
0.000179011
3.38471e-05
0.000285693
0.000639324
0.000601604
0.000444408
0.000197707
0.000341945
0.000443449
0.000317658
0.000426804
0.000275566
4.42356e-05
0.000278481
0.000213035
0.000524789
0.000451493
0.000186578
0.000585459
0.000271693
0.000891411
0.000507115
0.00106877
0.000375792
0.000971719
0.000491707
0.000517767
0.000489888
0.000467703
0.000358376
0.000387482
0.000877406
0.000211388
0.000439941
0.000566451
0.000305247
0.000225954
0.000369946
0.000343184
0.000486102
0.000412575
0.000504158
0.000390095
0.000157517
0.000304218
0.000343036
0.000375006
0.000711776
0.000646882
0.000311343
0.000338132
0.000889871
0.000442504
0.000396333
0.00026135
0.000585608
0.000470129
0.000243314
0.000556109
0.00098494
0.000184436
0.000340875
0.000447988
0.000200081
0.000317645
0.000551112
0.000281265
4.79071e-05
0.000397248
0.000994265
0.000144889
0.000350626
0.0003717
0.000154012
0.000349014
0.0003726
0.000437306
0.000582781
0.00104053
0.000376621
0.00104317
0.000390126
0.00017933
2.1933e-05
0.000258122
0.000328042
0.000341493
0.000406329
0.000436018
0.000594126
0.000449323
0.000601402
0.000905342
0.000297169
0.000429835
0.000188401
0.000515298
0.000453217
0.00032466
3.47952e-05
0.000488575
9.8481e-05
0.000911812
0.000497273
0.000380794
0.000106358
0.000332363
0.00021985
0.00010876
0.000373694
0.000166262
0.00023353
0.000507504
0.000388514
0.000468453
0.000545634
0.00103686
0.000300178
0.000172182
0.000727014
0.000401947
0.000545726
0.000569625
0.000341519
0.000360467
0.000441273
0.000269535
0.000180553
0.000235337
0.000418284
0.000278964
0.000219935
0.000416874
0.00029357
0.000129798
7.89202e-05
0.000930924
0.000404375
0.000813573
0.00037719
0.000356137
0.000227516
0.000448822
0.000504835
0.000796069
3.48662e-05
0.000523701
0.000390424
0.000375117
0.000376275
0.000216096
0.000484779
0.000243436
0.000207806
7.78261e-05
0.000410185
0.000365629
0.000575728
0.000211709
0.000536145
0.000163568
3.28317e-05
0.000311412
0.000259265
0.0010771
0.000475556
0.000337874
0.000129006
0.000555298
0.000389577
0.000471153
8.17629e-05
0.000866427
0.000578119
0.000369328
0.00045761
0.000124813
0.000278104
0.000503621
0.000518654
0.00021094
0.000825847
0.000488661
0.00023444
0.000192472
0.000123246
0.000588089
0.000497006
0.000300941
0.000495283
0.00102428
0.00055248
0.000368458
0.000154155
0.000155485
0.000410996
0.000523307
0.000565157
0.00040803
0.000269034
0.000490099
0.000365768
0.000373889
0.000439737
0.000494044
0.000843013
0.00079018
2.973e-05
0.000500283
0.000457696
0.000369482
0.000367942
3.62819e-05
0.0001067
0.000208624
0.000419024
0.000341853
0.000412529
0.000504897
0.000369347
0.000563418
0.000182102
0.000553855
0.0002066
0.000143693
0.000626239
0.000543406
0.000445077
0.000296747
0.000306198
0.00056929
8.92486e-05
0.000139603
0.000437932
0.000340489
0.000369738
0.000120599
8.33121e-05
0.000156923
7.28905e-05
0.000493706
0.000404214
0.000380484
0.000131085
0.000366096
0.00108772
0.000223319
0.00033085
0.000208265
0.00048932
0.000231329
0.000519956
0.000120089
0.000834579
0.000587901
0.000860747
0.000583674
0.00036234