/*--------------------------------*- C++ -*----------------------------------*\
| =========                 |                                                 |
| \\      /  F ield         | OpenFOAM: The Open Source CFD Toolbox           |
|  \\    /   O peration     | Version:  v2012                                 |
|   \\  /    A nd           | Website:  www.openfoam.com                      |
|    \\/     M anipulation  |                                                 |
\*---------------------------------------------------------------------------*/
FoamFile
{
    version     2.0;
    format      ascii;
    class       volScalarField;
    location    "1";
    object      epsilonPEq;
}
// * * * * * * * * * * * * * * * * * * * * * * * * * * * * * * * * * * * * * //

dimensions      [0 0 0 0 0 0 0];


internalField   nonuniform List<scalar> 
87519
(
0.00105025
0.000219618
0.00140879
0.000152899
9.7159e-05
0.000260815
0.000472317
8.03294e-05
0.00105779
0.000461418
0.000490968
0.00103962
0.00028417
0.000490429
0.000494182
0.000488242
0.00105385
8.83988e-05
0.00105285
0.00104663
0.000364939
0.000380719
0.000993608
0.000482354
0.000482693
0.00039258
0.00039378
0.000791324
0.000279845
0.000468028
0.000426511
0.00049006
0.000600161
0.000992131
0.000473817
0.000272949
0.000256044
0.000215466
0.000425762
0.000826852
0.000878055
0.000396259
0.000457112
0.000704014
0.000260982
0.000495482
0.000119743
0.000801412
0.000861587
0.000494106
8.14063e-05
0.000477567
0.000499379
0.000635165
0.000916584
0.00106406
0.000423532
0.000536052
0.000795697
0.000288883
0.000551268
0.000108187
0.00010516
0.000274878
0.000499227
0.00100954
0.00103113
0.000887402
0.000998143
0.00102823
0.000169466
0.000624473
0.000212335
0.000710381
0.000384216
0.000206202
0.000573783
0.000732561
0.000100104
0.000484876
0.000540378
0.000188022
0.00104283
0.000586532
0.00044044
0.000475405
0.000660386
0.000966834
6.92395e-05
0.000166568
0.000518108
0.000424789
0.000531773
0.00055048
0.00104945
0.000210935
0.00034706
0.000913511
0.00126491
0.000683678
0.000109194
0.000221958
0.000796535
0.000666964
0.000388132
0.000677026
0.00043099
0.000215375
0.000430847
0.000520414
0.000675163
0.000733309
0.000432207
0.000361732
0.00093139
0.000237555
0.0014097
0.00092531
0.00042704
0.000472217
0.000569403
0.000576773
0.000265048
0.000210541
0.00108931
0.000597048
0.000759971
0.000625648
0.000545897
0.000698532
0.000331135
0.000149569
0.000891453
0.00144277
0.000346864
0.000246829
0.000695492
0.00096852
0.000370026
0.000789432
0.000291831
0.000417419
0.000694225
0.000285846
0.000688291
0.0009892
0.000692313
0.000408056
0.00101021
0.000148755
0.000136531
0.000162556
0.00114433
9.64996e-05
0.000399248
0.000313392
0.000573749
0.000108945
0.000655497
0.000394124
0.00036931
0.000582201
0.000807622
0.000161219
0.000797144
0.000920187
0.000641534
0.000978847
0.000563008
0.000141674
0.00106296
0.000996085
0.000998664
0.000231926
0.000179453
0.000218843
0.000360707
0.000420313
0.00100426
0.000347302
0.000265514
0.000427879
0.00075408
0.000158745
0.000224321
0.000906742
0.000482462
0.000501396
0.000701979
0.000394006
0.000447036
0.000363783
0.000527406
0.000733722
0.000401734
0.000857207
0.000377766
0.00019511
0.000433628
0.000703472
0.000504063
0.000338617
0.000609178
0.0004835
0.000237929
0.000339433
0.00105174
0.000784732
0.000449831
0.000722572
0.000225747
0.000909389
0.000628647
0.000162569
0.000397691
0.000974442
0.000923415
0.000344313
0.000881239
0.00070865
0.00046109
0.0010251
0.000575332
0.000524834
0.000233546
0.000557488
0.000472546
0.000177038
0.000337195
2.84258e-05
0.000197838
0.00028844
0.00132821
0.000330579
0.00053887
0.000447091
0.000456389
0.000863763
0.000776333
0.000310856
0.000230977
8.41147e-05
0.000683712
0.000688147
0.000988609
0.00128642
0.000621345
0.000422422
0.000634979
0.000363078
0.000797521
0.000986212
0.00054259
0.000396892
0.000315981
0.000295547
0.000129301
0.000445826
5.7896e-05
0.000824939
0.000597578
0.000481355
0.000630411
0.001038
0.000521168
0.000285107
0.000499684
0.000814799
0.000269899
0.000825325
0.000657123
0.000564895
0.000265754
0.000727304
0.000789581
0.00099661
0.00104687
0.000696255
0.000453174
0.000717432
0.00012772
0.000146897
0.000814939
4.97172e-05
0.000360462
0.00113433
0.000329543
0.000998099
0.000781212
0.000447118
0.000132809
0.000301707
0.000582069
0.00076684
0.000864464
0.000417968
0.000361737
0.000375337
0.000733563
0.00026278
0.000175587
0.000150602
0.000882864
0.000564193
0.000174905
0.000417531
0.000179763
0.000420723
0.000766044
0.000193567
0.000170356
0.000397314
0.000275061
0.000159335
0.000860266
0.00117793
0.000309395
0.000481023
0.000880252
0.00090755
0.000360556
0.000441138
0.00012716
0.000431391
0.000344738
0.000705716
0.000386542
0.000867139
0.000276971
0.000370568
0.000615752
0.000450079
0.000225066
0.000264527
0.000224474
0.000718063
0.000956834
9.92157e-05
0.00094455
0.000857908
0.00130389
0.000350741
0.000890073
0.000279705
0.000183332
0.000377206
0.000689195
0.00127333
0.000757809
0.00034381
4.97216e-05
0.000619921
0.000296019
0.000532363
0.000238104
0.000715956
0.000335301
0.000224784
0.000231185
0.000639497
0.000308168
0.000552505
0.000640196
6.27892e-05
0.00104555
0.000900114
0.000389613
0.000211728
0.00033801
0.000114198
0.000305477
0.000315364
0.000299869
0.000326521
0.00100818
0.000954176
0.000374082
0.000333479
0.000642223
0.000708782
0.000453903
0.00041256
0.000152945
0.000313893
0.000427387
0.00041047
0.00114871
0.000776282
6.82253e-05
0.000484628
0.000692291
0.000670959
0.000513651
0.000166191
0.000531345
0.000759631
0.000698523
0.000981652
0.000288614
0.000753543
0.000212456
0.000336808
0.00030835
0.000373246
0.000329681
0.00118578
0.000430265
0.00077163
0.000914933
0.000330592
0.000564743
0.000440945
0.00049688
0.000479706
0.000440402
0.00037822
0.000541481
0.000112377
0.000110193
0.000672243
0.00046156
0.000188146
0.000379659
0.000264155
0.000663202
0.000697703
0.00069234
0.000238104
0.000138101
0.000201788
0.00057714
0.000509029
0.000338327
0.000298172
2.55385e-05
0.000359954
0.000226119
0.000890757
0.000242106
0.000428261
0.000311952
0.0014731
0.000167014
0.000595755
0.000107587
0.000410353
0.000336383
0.0003934
0.000825238
0.000565277
0.00057866
0.00025498
4.20349e-05
0.00040047
0.00030014
0.000775122
6.2618e-05
0.000657937
0.000116868
0.000283758
0.00099257
0.000564177
0.000251647
0.000813399
0.000189544
0.000189458
0.000927909
0.00100731
0.000328173
0.000139214
0.000326422
0.000105419
0.000106955
0.000752315
0.000835819
0.000561318
0.000588079
0.000301126
0.000370777
0.000892261
0.000820267
0.000776887
0.000571504
0.000471503
0.000829916
0.000190963
0.00106211
0.000448555
0.000503865
0.000665996
0.000273857
7.20824e-05
0.000163894
0.000178457
0.000486764
0.000601859
0.000645949
0.00106023
0.000629942
0.000653422
0.00116196
0.000343738
0.000717422
0.000295033
0.000615072
0.000464078
0.00039162
0.000415568
0.000641578
0.000626555
0.000407314
0.000552408
0.000972785
0.000445114
0.000387445
0.000112377
0.000374481
0.000365925
0.000139508
0.00053383
0.000290855
0.000378463
0.000435839
0.000870817
0.000201135
0.00017788
0.000202555
0.000245371
0.00019497
0.000677752
0.000278506
0.000206325
0.00020663
0.000619701
0.00114128
0.000990782
9.44129e-05
0.000423644
0.000266166
0.000414507
0.00040852
0.000907307
0.000737164
0.000481831
9.06516e-05
8.88127e-05
0.000266546
0.00070404
0.000473179
0.000478714
0.000423355
0.000561362
0.000410252
0.000293816
0.000671468
0.000782512
0.000381485
0.000203483
0.000566038
0.00030944
0.000378728
0.000323011
6.24269e-05
0.000896979
0.00038226
0.000378044
0.000408884
0.000487586
0.000134002
0.000596234
0.00038365
0.000357896
0.00075245
0.000559353
0.000350161
0.000319777
0.000279834
0.000364289
0.000217283
0.00015488
0.000233382
4.38253e-05
0.000367982
0.000367494
0.000173349
0.001063
0.000665107
0.000253457
0.000785146
0.000315364
0.000790132
0.000703455
0.00071466
0.000693445
0.000516373
0.000742693
0.000785643
0.000341426
0.000156799
0.000381053
0.000769934
0.000924064
0.000434371
0.000262594
0.000891859
0.000633503
0.000272272
0.000271324
0.000323487
0.00012358
0.000757734
0.000288472
0.000373205
0.00109522
0.000369381
0.000363044
0.000261853
0.000152786
0.000744342
0.0002431
0.000845584
0.00078487
0.000962831
0.000445562
0.00118349
0.000197685
0.000381799
0.000456974
0.000238104
0.000476188
0.00114707
0.000478415
0.000283004
0.000136573
0.00114907
0.000824625
0.000577412
0.00016868
0.000534982
0.000504574
0.000267645
0.00087924
0.000777144
0.000603477
0.000126871
6.59977e-05
0.000308095
0.000405971
0.000495029
0.000700994
0.000397355
0.000504499
0.000258502
0.000445887
0.000843305
0.000188207
0.000322201
0.000140839
0.000252827
0.000114513
0.000527638
0.000266576
7.8669e-05
0.00022218
0.000154651
0.000170621
0.000807584
7.26787e-05
7.7942e-05
8.26767e-05
0.000467452
0.000223643
0.000344796
0.000166669
0.000696083
0.000329744
0.000329682
0.000693049
0.000109416
0.000182734
0.000650563
0.000845992
0.000802122
0.000331954
0.000421819
0.000575709
0.000526013
0.000971321
0.000859925
0.000894519
0.00111775
0.000946119
0.00065282
0.000617288
0.000404029
0.000765228
0.00087371
0.000641486
0.000834233
0.000131361
0.00013117
0.0011887
0.000332649
0.000203645
0.00106355
4.76779e-05
0.000260623
0.000186228
0.00021425
0.000197929
0.000900598
0.00119454
0.000654254
0.000162302
0.000989681
0.000556341
0.000494561
4.97216e-05
0.0010389
0.000656567
0.000547725
0.000576337
0.000405163
0.000282358
0.000139576
0.000133486
0.000463467
4.34182e-05
0.000358847
0.000379483
0.000335717
4.97216e-05
0.000330609
0.000296234
0.000365362
0.00120961
0.000561836
0.000916267
0.000353701
0.00102422
8.20159e-06
0.00017179
0.000173485
0.000787235
0.000340312
0.000653299
0.00058028
0.000344395
0.00030507
0.000122233
0.000198549
0.000261136
0.000590832
0.000729689
0.000456914
0.000331435
0.000151394
0.00106944
0.00104009
0.000723143
0.00058733
9.48717e-05
0.00105883
0.000112377
0.00069288
0.000838096
0.000167702
0.000201625
0.000651174
7.18685e-05
0.000552296
0.000279615
0.00115149
0.00054327
7.23052e-05
0.000248612
0.000212289
0.00031229
0.000844867
0.00151547
0.000382449
0.000351763
0.000731456
0.000417896
0.000610966
0.000843924
0.000798994
0.000156818
0.000403834
0.000857496
0.000677887
0.000641658
0.000281774
0.000231036
0.000326831
0.000570321
0.000118039
0.000283359
0.000411338
0.000289663
0.0001737
0.000565715
0.000368835
0.000535035
8.68371e-05
0.000334634
0.000434271
0.000904277
0.000200084
0.000178974
0.000729529
0.000559809
0.000110165
0.000849599
0.000725672
0.000169936
0.000480204
0.000454823
0.00085065
0.000377619
0.000762765
0.000271877
0.000821297
0.000534584
0.000558387
0.000438365
0.000446771
0.000798332
0.000607682
0.00019469
0.000445819
0.000254919
0.000249691
0.000571926
0.00051131
0.000107828
0.000328449
0.000657498
0.000342445
0.000418154
0.00089582
0.000186189
0.00031217
0.000392744
0.000248976
0.000208457
4.86682e-05
0.000722567
0.000815873
0.000316514
0.000684561
0.000595665
0.000187914
0.000615769
0.00029297
0.000223088
0.000468039
0.000288678
0.000405731
0.000497862
0.00144708
0.000804414
0.000500187
0.000796773
0.000242389
0.000814211
0.000369561
0.000864489
0.000587857
0.00061792
0.000108315
0.000236955
0.00108467
0.000316879
0.000298604
0.000348583
0.000326228
0.000107717
0.00051482
0.000467899
0.000397877
0.000102049
0.000375584
0.000988507
0.000262813
0.000253029
0.00075244
0.000144644
0.000413213
0.00041736
0.000339422
0.000539599
0.000600338
0.000236776
0.000442695
0.000251821
0.000315372
0.00050926
0.000492075
0.000115859
0.000584987
0.000291827
0.000259109
0.00062591
0.000332072
0.000117459
0.00114424
0.000300703
0.000783288
0.000135517
0.000944753
0.00147473
0.000399097
0.000445357
0.000330257
0.000367723
7.19417e-05
0.000664265
0.000279445
0.000802316
0.000478511
0.000678951
0.000184567
0.00108603
0.000299498
0.000306409
0.000130217
0.000222704
0.00117079
0.000335521
0.00041265
0.000467363
0.000824076
0.00015204
0.000252415
0.000109938
0.000124432
0.000213002
0.00102123
0.000175356
0.000709802
4.97216e-05
0.000161627
0.000178107
0.000285965
0.000154123
0.00018008
0.000374579
0.000238104
0.000262379
0.000327689
9.92157e-05
0.000238944
0.000836914
0.00115496
0.00102099
0.000800752
0.000150977
0.00110659
0.000189476
0.00042166
0.000260655
0.000292378
0.000985645
0.000745607
0.000667975
0.000406906
0.000349196
0.00019286
0.000127873
0.000296104
6.17517e-05
0.000448225
0.000972106
0.000582856
0.000651714
0.000155583
0.000191941
0.000661135
0.00145204
0.000812074
0.00101619
9.92157e-05
0.00031959
0.000407859
0.00155594
5.14239e-05
0.00112059
0.00104067
0.00134762
7.71081e-05
0.0013642
0.000356789
0.000324636
0.000146945
5.36794e-05
0.000438814
0.000418875
0.000610434
0.000326342
0.000645197
0.00106064
0.00118169
0.000498883
7.29448e-05
0.00020496
0.000151354
0.00106512
0.000151535
0.000790044
0.000245645
0.00114363
0.000393304
0.000396447
0.000227403
0.000415778
0.000355877
0.000863686
0.000315025
0.000380505
0.000503266
7.29772e-05
0.00019286
0.000304748
0.000866352
0.0008368
0.000253698
9.92157e-05
0.000803345
0.000139431
0.000351577
0.000378611
0.00107107
0.000282601
0.000663765
0.000271777
0.000285614
0.000420937
0.00121338
0.000458981
6.47761e-05
0.000311058
9.32347e-05
4.86682e-05
0.00100372
0.000228458
0.00135738
0.000325648
0.000255516
0.000803724
0.000860726
0.000163923
0.000418824
0.000322379
0.000383882
0.0013249
0.0010002
0.000624144
0.000942977
0.000238104
0.000220492
0.00093924
0.000311534
0.000683795
0.000263964
0.000272504
7.29772e-05
0.000721843
0.000848127
0.000710435
0.000657696
0.000290453
0.000834606
0.000112377
0.000308476
0.000686477
0.000520175
0.00074338
0.00131828
8.40028e-05
0.000512687
0.000466562
0.000955439
6.82246e-05
0.000126243
0.00019286
0.000120336
0.000316283
0.000896546
0.000742256
0.000682312
0.000650829
0.000460955
0.000254498
0.000476922
0.000391641
0.000981667
0.000156457
0.00111033
0.000493008
0.00151114
0.000380529
0.000301504
0.0011876
0.000496512
0.000544166
0.000144908
0.000159713
0.00037743
0.000945403
0.000201961
0.00122351
7.38706e-05
0.000504345
7.62172e-05
0.000627057
0.00096296
0.000370154
0.000124176
0.000285091
0.0005032
0.000806707
0.000928919
0.00108922
6.43055e-05
0.000576727
0.000933053
0.000963251
0.000428155
5.32259e-05
0.000216518
0.000540304
0.000162668
9.57472e-05
0.000136863
0.00119191
0.000409697
0.0004881
0.000397174
0.000690494
0.000490164
6.17517e-05
0.000432826
0.000182349
8.82624e-05
0.000828527
0.000117142
0.000504178
6.42987e-05
0.000259762
7.29686e-05
0.00109797
0.000736649
0.000888695
0.000670564
0.000553149
0.000291665
0.00054325
0.000694325
0.00068567
0.000430669
0.00155181
0.000774715
0.000559739
0.00039082
0.00042061
0.0013082
0.000509303
0.00015951
0.0012068
0.000454174
0.000884351
0.000216013
0.00056795
0.000104728
0.000180418
0.000570612
0.000618151
0.000399085
0.000943336
0.00126893
0.000185303
0.000798266
0.00025746
0.000631945
0.000619306
0.000431325
0.000141543
0.00115115
0.000114631
0.000793939
0.000178682
3.60401e-05
0.000801874
0.00110625
0.000313149
0.0012303
9.14601e-05
0.000680069
0.0009051
0.000753411
0.000624359
0.00116736
0.000878271
0.000847362
0.000368525
0.0014326
0.000500823
0.000177167
0.000151535
0.00100158
0.0010386
9.04758e-05
0.000238104
0.00119427
0.000114522
0.000922773
0.000329064
0.000244785
0.000433794
0.000194993
0.000119501
9.92157e-05
4.25785e-05
0.000237905
0.00120545
0.000582448
0.000366979
0.000841086
0.000340492
0.000337682
0.000159929
0.000408861
4.86682e-05
0.000397399
0.00015255
0.00020704
0.000240782
0.000613585
0.00112361
0.00128906
0.000632943
0.000904719
0.000772632
0.000925583
0.000315025
0.000256575
0.00102658
0.000378482
0.000175235
0.000874616
5.04855e-05
0.000212845
0.000187387
0.000214134
0.00022589
0.000661671
0.00039868
0.00031292
0.00128692
0.000239241
7.69395e-05
0.000370358
0.0002616
0.000704604
0.000348609
0.000998143
0.000778415
0.000394553
0.000858926
0.000399403
0.000411633
0.000246993
0.000331374
0.000649026
0.000218106
0.000224253
0.000213368
0.000460914
4.86682e-05
0.000292577
0.000341804
0.000291869
0.000163518
0.000249393
0.000252743
0.000561553
0.000932554
0.000104728
0.000180418
0.000485756
0.000254409
0.000252689
0.000975053
0.000377172
0.000272427
0.000185565
0.000493424
0.000779099
0.000145965
0.000145209
0.0002616
0.000809305
0.0010601
0.000759827
0.00090112
0.000172319
0.000399403
0.000238104
0.000315025
0.00100152
0.000154128
0.000408802
0.000495652
0.000550642
0.000542322
6.24501e-05
0.000292821
0.000311279
0.000160284
0.000724055
0.0007661
0.00018081
0.000766548
0.000862816
0.000417081
0.000222392
0.000200515
0.000200343
0.000350918
0.000208597
0.000261595
0.000211726
0.000251195
0.00020209
0.000585686
0.000563511
0.000673791
0.000268625
0.000610912
0.00121375
0.000170808
0.000376929
6.87208e-05
5.32259e-05
0.000570904
0.000546615
0.000546977
0.000563511
0.000722419
0.000326387
0.000106108
0.000321627
0.000239581
0.000443949
0.000595246
0.000394553
0.000315367
0.000348609
0.000108569
0.000286262
3.12526e-06
0.000784595
0.000320922
0.00023726
0.000373329
6.17517e-05
0.000620092
0.000873498
0.000589369
0.000860992
0.00118827
6.42987e-05
0.000791363
0.000236258
0.000322547
0.000479829
0.00115985
0.000702491
0.000339691
0.000434098
6.28032e-05
6.89386e-05
6.7849e-05
0.000296434
0.000315025
0.000847593
0.000358975
0.000241621
0.000447551
0.000296343
0.000391889
0.000280456
0.000411291
0.00021465
0.000250829
0.000254039
0.000263717
0.000570612
0.000273853
0.000238645
0.000110667
0.000250768
0.000266654
0.00091867
0.000772083
0.000216518
0.000313149
8.59693e-05
0.000973752
0.000130694
0.00107761
0.00021571
0.000272427
0.000390637
0.000185565
0.000338018
0.000546735
0.00100058
0.00100574
0.0009289
0.001008
0.00076056
6.87208e-05
5.32259e-05
0.000740498
0.0011099
0.000674976
0.000149631
9.92672e-05
0.00119424
0.00121693
0.00047582
0.000546982
0.00139644
0.000783107
0.000656928
0.00031125
0.000161927
0.000115318
0.000158587
0.000319128
0.000316049
0.000352378
0.000358983
0.000777522
0.000555488
0.000694222
0.000563667
0.000324673
0.000362362
0.000831369
0.000882689
0.000270489
0.000387102
0.000348411
0.00042448
0.000500907
0.000396511
0.000373472
0.000409948
0.000296096
0.000420447
0.000704021
0.000706283
0.000474866
0.000344182
0.000633773
0.000622709
0.000321215
0.000363841
0.00149656
0.00110841
0.000758125
0.000428263
0.000427699
0.000426507
0.000855214
0.000814811
0.000589723
0.00064609
6.28032e-05
5.53306e-05
0.000850931
0.000620021
0.000834074
0.000579207
0.000798344
0.000747177
0.000383269
0.000428988
0.0007498
0.00079061
0.000383654
0.000320009
4.86682e-05
0.000108929
0.000814181
0.00075315
0.000776883
0.000812939
9.12893e-05
8.43119e-05
0.000366499
0.000322071
0.000381018
0.000417178
7.12116e-05
0.000165751
0.000546977
0.000551492
0.000546615
0.000629909
0.00079137
6.01427e-05
0.000422832
0.000475906
0.000399118
0.000362536
0.000613707
0.000958783
0.000490743
0.000449497
0.000255506
0.000386913
0.000394788
8.55609e-05
0.000197123
2.25769e-05
0.000249832
0.00012174
0.000926003
0.000899136
0.000363237
0.000448966
0.000328216
0.000902566
0.000497603
0.000172367
0.000386265
0.000104208
8.14e-06
0.000454203
0.000474795
0.000442649
0.000732472
0.000367571
0.000659563
0.00106433
0.000566953
0.000528026
0.000450225
0.000441422
0.000628738
0.000516132
0.000204563
9.40682e-05
0.000194984
8.01566e-05
0.000210693
9.28241e-05
0.000411195
0.000537423
0.000966212
9.70302e-05
0.000199763
0.00053256
0.000116429
0.000934394
0.000416792
0.000439072
0.000924662
0.000655007
0.000340957
0.000360641
0.000579709
0.000454468
0.000370709
0.000170165
0.00028031
0.000902295
0.000517819
0.000532022
0.000402536
0.000238327
0.000443832
0.000250676
0.000334761
0.000334497
7.46736e-05
0.000905777
2.18283e-05
0.000240909
0.000339882
0.000466758
0.000458668
0.000320725
0.000371805
0.000224121
0.000211884
0.000447143
0.000528236
0.000952395
0.000401068
8.72116e-05
0.000396039
0.000416347
0.00022809
0.00100864
0.000442761
0.000575915
0.000354884
0.000319853
0.000110532
0.000111121
0.000150169
0.000136948
0.000130985
0.000571091
0.000338993
0.000310179
0.000915811
0.000101545
0.000190568
0.00105381
0.000338371
0.000447077
0.000237307
0.000744601
7.76751e-05
0.000401027
0.000452121
0.00106076
0.000336647
0.000452942
0.000392154
0.000445456
0.000405698
0.000101035
0.00043212
0.000380111
0.000366741
0.000360009
0.000562407
0.000590881
0.000215521
0.000217868
8.77159e-05
0.000731158
0.000302366
0.000484333
0.000263873
0.000473548
0.000943411
0.000175353
0.000165682
0.000330097
0.000308156
0.000141949
0.000609257
2.6186e-05
0.000399404
0.00014733
0.000418185
0.000292306
0.000157689
0.000558801
0.000173969
0.000198619
0.000327722
0.000549014
0.00036901
0.000346156
0.000343687
0.000177543
0.000492662
0.000103489
0.000526972
0.000523178
3.25343e-05
0.000218883
0.00102868
0.000261526
0.000251185
1.44553e-05
0.000494385
0.000272976
7.63728e-05
0.000457443
0.000232437
0.000408562
0.000396344
0.000528974
0.000205921
0.00056931
0.000570847
0.000329525
0.000438847
0.000353478
0.00053354
0.000451087
0.000412015
0.000366927
0.000629039
4.7627e-05
0.000302599
0.000235697
0.000935605
0.000358158
0.000502483
0.000304079
0.000517222
0.000295475
0.000368431
0.000523826
0.000526084
6.92743e-05
0.000492371
3.33879e-05
0.000354396
0.000329662
0.000441652
0.000563078
0.000144638
0.000463707
0.000364083
4.11087e-06
0.000327898
0.000466337
0.000408319
0.000957365
7.87916e-05
0.000621317
0.000401269
0.000435656
0.000458956
0.00024217
0.000481406
0.000525778
0.000251276
0.000157852
0.000352588
0.000200843
0.000102601
0.00031005
0.000183789
0.000451718
0.000493463
0.000319621
0.000418811
0.000533297
0.00032143
0.000440128
0.000334623
0.000690491
0.000485048
0.000630714
0.000220158
0.000899046
0.000255547
0.000449862
0.00103392
0.00048111
0.00107355
0.000408272
0.000446863
0.000373642
0.000269746
0.000357985
0.000223392
0.000572643
0.000418156
0.000169656
0.000421634
0.000504165
0.000367798
0.00102128
0.000437363
0.000344829
0.000443331
8.53281e-05
9.15932e-05
0.000350246
0.000204633
0.000336454
7.14026e-05
0.000386725
0.000154017
0.000271718
0.000433828
0.000491016
0.000473753
0.000369348
0.000568226
0.000382298
0.000180602
0.000454006
3.10197e-05
0.000278233
0.000436418
0.000467779
0.000103193
0.000525768
0.000404925
0.000562081
0.000450138
0.000226731
0.000337389
0.000462026
0.000112892
0.000461694
0.00015613
0.000355046
0.000328061
3.75217e-05
0.000220646
0.000625767
0.000381923
0.000744614
0.00021664
0.000322844
0.00100538
0.000549663
0.000352103
0.000346719
0.000221634
0.00053923
0.000393397
1.53426e-05
0.000353733
8.5731e-05
0.000894413
5.40591e-05
0.000546575
0.000439657
0.000310789
0.000163634
0.000531623
0.000360562
0.000444669
6.69011e-05
0.000102342
0.000518418
7.74549e-05
0.000508457
0.000370672
0.000793838
0.000328807
0.000349807
0.000348215
0.000536648
0.000423279
0.000159669
0.00047499
0.000563816
0.000166306
0.000542429
0.000356406
0.000334913
0.000911345
0.000279742
3.78756e-05
0.000339375
0.000254143
0.000292771
8.4035e-05
0.000305405
0.000211172
0.001038
0.000539335
9.38873e-05
0.000447358
0.000841852
0.000507758
2.63917e-05
0.000815166
0.000131303
0.000227531
0.000653138
0.000118914
0.000457912
0.000473354
0.000275665
0.000297967
0.000442565
0.000104601
0.000491861
0.00023547
0.000570394
0.000316612
0.000346824
0.000204978
0.000505457
9.83646e-05
0.00037082
0.000341176
4.02402e-05
6.49398e-05
0.000438788
0.000132029
0.000520011
8.88094e-05
0.00030065
0.000405151
0.000434256
0.000297822
0.000327291
0.000386302
0.000468386
2.0136e-05
0.000455254
0.000579038
0.000393257
0.000990664
0.00034865
0.000421803
0.000186043
0.000577809
0.000447764
0.000532779
0.000527315
0.00060954
0.000434974
0.000217111
0.000238922
0.000545382
0.000558786
0.000469991
0.000351088
0.00052332
0.000508632
0.000375553
0.000431786
0.000330803
0.000556351
0.000234949
0.000356801
0.000893973
0.000315878
0.000103211
0.00108676
0.000494683
0.000516577
0.000554012
0.000469687
0.00029604
0.000425142
0.000541244
0.000304552
0.000685178
0.000438756
0.000112236
0.000297384
0.000242689
0.000238825
9.75537e-05
0.000269204
0.000435174
0.000424668
0.000315339
0.000506763
0.000111158
0.000366639
0.00047032
0.00101574
0.000761765
3.61308e-05
0.000281532
0.000235215
0.000482968
0.000439885
0.000181558
0.000555656
0.000435047
0.000243698
0.000283954
0.000154948
0.00106598
0.000356539
0.000325698
0.000362088
0.000387981
0.000517496
0.000167101
0.000235936
0.000362214
0.00020008
0.000810683
0.000465143
0.000497239
0.000625919
0.00108591
0.000433446
0.000166926
0.00058365
0.000222931
0.000390771
0.000368626
0.00028814
0.000433229
0.000333265
0.000423898
0.000427009
0.000131951
0.000431463
0.000490836
0.000118621
0.000333876
0.000397996
0.000285293
0.000433059
0.000556981
0.00048424
0.000283302
0.000430878
7.96947e-05
0.000289423
0.000286606
0.000354628
0.000515292
0.000502542
0.000352442
0.00037504
0.000490179
0.000341249
0.00103551
0.000110855
0.000497092
0.000694319
0.000566696
0.000353221
0.000403013
0.000433937
0.00045175
0.00040369
0.000164482
0.0003828
0.000231742
0.000925534
0.000402985
0.000154658
0.000341275
0.000353355
0.00040843
0.000759611
0.000327676
0.000259339
0.00054476
0.000347149
0.000324932
0.000442362
0.000269067
0.000406717
0.000226246
0.000298575
0.000334167
0.000486697
0.000491147
0.000396039
0.000261634
0.000100644
0.000527255
0.000301007
2.06157e-05
0.000625269
0.000347108
0.00055018
0.000460919
0.000118527
0.000416409
0.000191391
0.000517308
0.000446593
0.000494004
0.000315711
0.000144652
0.000329576
0.000227491
0.000178182
0.000494441
2.95795e-05
6.76741e-05
0.000371177
0.000246959
0.000619134
0.000343689
0.000535319
0.000291898
6.21557e-05
0.000548964
0.000146669
0.000438463
0.000365613
0.000475653
0.000328918
0.000470526
0.000372538
0.000467428
0.000184255
0.000909298
0.000487579
0.000315843
0.000537216
0.000205878
0.000192117
0.000566207
0.000199345
0.000182537
0.000224937
0.000324424
0.000585982
0.000223336
0.000299242
0.000689016
0.000151315
0.000332263
0.000897359
0.00030611
0.000543662
0.000255989
0.000185189
0.000298428
0.000179728
0.000403139
0.00104523
0.000401707
0.000331595
0.000404999
0.000267534
0.000145313
0.000328521
9.32121e-05
0.000389296
0.000104012
0.000164427
0.000550875
8.93617e-05
0.000218422
0.000310539
0.000229626
0.000297717
0.000171357
0.000308752
0.000421311
0.000570669
0.000107633
0.000590088
0.000331307
0.000359728
0.000173307
0.000211555
6.68557e-05
0.00018251
0.000328587
0.000419631
0.000562261
0.000819476
0.000300837
0.000354128
0.000179771
0.000546164
0.000337489
0.000124124
0.000524828
0.000435117
0.000843675
0.000405053
0.000315108
0.000453151
0.000425196
0.000493163
0.000315132
0.000333859
0.000358029
0.00103655
0.000337671
0.000717753
0.000628563
0.000402389
0.000489385
0.000389161
0.000400285
3.8039e-05
0.000381951
0.000501174
0.000298798
0.000434637
0.000221544
0.000229497
0.00109628
0.000395519
0.000200733
0.000336724
0.000480917
0.000956893
0.000105861
0.000534749
0.000410224
2.80288e-05
0.000587036
0.000445931
0.000340875
0.000328404
0.000546202
0.00055076
0.00030004
0.000129556
7.27968e-05
0.000362339
0.000306469
0.000166631
2.14661e-05
0.000273312
0.000626943
0.000589223
0.000432028
0.000185326
0.000329564
0.000431068
0.000305277
0.000414423
0.000263185
3.18546e-05
0.0002661
0.000200654
0.000512408
0.000439112
0.000174197
0.000573078
0.000259312
0.00087903
0.000494735
0.00105639
0.000363411
0.000959338
0.000479326
0.000505386
0.000477507
0.000455322
0.000345995
0.000375101
0.000865025
0.000199007
0.00042756
0.00055407
0.000292867
0.000213573
0.000357565
0.000330803
0.000473721
0.000400194
0.000491777
0.000377714
0.000145136
0.000291837
0.000330655
0.000362625
0.000699395
0.000634501
0.000298962
0.000325751
0.00087749
0.000430123
0.000383952
0.000248969
0.000573227
0.000457748
0.000230933
0.000543728
0.000972559
0.000172055
0.000328494
0.000435607
0.0001877
0.000305264
0.000538731
0.000268884
3.55261e-05
0.000384867
0.000981884
0.000132508
0.000338245
0.000359319
0.000141631
0.000336633
0.000360219
0.000424925
0.0005704
0.00102815
0.00036424
0.00103078
0.000377745
0.000166949
9.55204e-06
0.000245741
0.000315661
0.000329112
0.000393948
0.000423637
0.000581745
0.000436942
0.000589021
0.000892961
0.000284789
0.000417454
0.00017602
0.000502917
0.000440837
0.000312279
2.24143e-05
0.000476194
8.61001e-05
0.000899431
0.000484892
0.000368413
9.39775e-05
0.000319982
0.000207469
9.63788e-05
0.000361313
0.000153881
0.000221149
0.000495123
0.000376133
0.000456073
0.000533253
0.00102448
0.000287797
0.000159802
0.000714633
0.000389566
0.000533345
0.000557244
0.000329138
0.000348087
0.000428892
0.000257154
0.000168172
0.000222956
0.000405903
0.000266583
0.000207554
0.000404493
0.000281189
0.000117417
6.65393e-05
0.000918543
0.000391994
0.000801192
0.000364809
0.000343756
0.000215135
0.000436441
0.000492454
0.000783688
2.24853e-05
0.00051132
0.000378043
0.000362736
0.000363894
0.000203715
0.000472398
0.000231055
0.000195425
6.54452e-05
0.000397804
0.000353248
0.000563347
0.000199328
0.000523764
0.000151187
2.04507e-05
0.000299031
0.000246884
0.00106472
0.000463175
0.000325493
0.000116625
0.000542917
0.000377196
0.000458772
6.93819e-05
0.000854046
0.000565738
0.000356947
0.000445229
0.000112432
0.000265723
0.00049124
0.000506274
0.000198559
0.000813466
0.00047628
0.000222059
0.000180091
0.000110865
0.000575708
0.000484625
0.00028856
0.000482902
0.00101189
0.000540099
0.000356077
0.000141774
0.000143105
0.000398615
0.000510926
0.000552776
0.000395649
0.000256653
0.000477718
0.000353387
0.000361508
0.000427356
0.000481663
0.000830632
0.000777799
1.73491e-05
0.000487902
0.000445315
0.000357101
0.000355561
2.39009e-05
9.43195e-05
0.000196243
0.000406643
0.000329472
0.000400148
0.000492516
0.000356966
0.000551037
0.000169721
0.000541474
0.000194219
0.000131312
0.000613858
0.000531025
0.000432696
0.000284366
0.000293817
0.000556909
7.68676e-05
0.000127222
0.000425551
0.000328108
0.000357357
0.000108218
7.09311e-05
0.000144542
6.05096e-05
0.000481325
0.000391833
0.000368103
0.000118704
0.000353715
0.00107534
0.000210938
0.000318469
0.000195884
0.000476939
0.000218948