/*--------------------------------*- C++ -*----------------------------------*\
| =========                 |                                                 |
| \\      /  F ield         | OpenFOAM: The Open Source CFD Toolbox           |
|  \\    /   O peration     | Version:  v2012                                 |
|   \\  /    A nd           | Website:  www.openfoam.com                      |
|    \\/     M anipulation  |                                                 |
\*---------------------------------------------------------------------------*/
FoamFile
{
    version     2.0;
    format      ascii;
    class       volSymmTensorField;
    location    "4";
    object      epsilon;
}
// * * * * * * * * * * * * * * * * * * * * * * * * * * * * * * * * * * * * * //

dimensions      [0 0 0 0 0 0 0];


internalField   nonuniform List<symmTensor> 
4000
(
(0.00291387 -7.65935e-05 -4.12884e-19 -0.00121381 5.02531e-19 1.6388e-33)
(0.00269887 -6.23585e-05 6.22423e-20 -0.00107964 5.9891e-19 0)
(0.00250996 -4.97734e-05 -5.75802e-26 -0.000955143 -5.75338e-25 0)
(0.00234619 -3.94069e-05 7.15766e-19 -0.00086017 -4.4855e-19 0)
(0.00220108 -3.01668e-05 -1.09243e-18 -0.000771445 -4.69938e-19 0)
(0.0020744 -2.21326e-05 1.83789e-20 -0.00070405 1.95079e-19 0)
(0.00196142 -1.57456e-05 -5.97092e-19 -0.000640928 -2.76127e-20 0)
(0.00186169 -9.71158e-06 0 -0.000592927 0 0)
(0.00177234 -5.07454e-06 2.54096e-20 -0.000548182 3.03545e-19 0)
(0.00169257 -6.16817e-07 4.9509e-19 -0.000514096 1.68699e-19 0)
(0.00162074 2.86977e-06 -1.99724e-20 -0.000482579 -2.67092e-19 0)
(0.0015559 6.16074e-06 -1.76986e-20 -0.000458598 -2.53766e-19 0)
(0.00149715 8.80688e-06 -7.93532e-21 -0.000436628 -1.2078e-19 0)
(0.00144352 1.12486e-05 1.41869e-20 -0.000420004 2.32323e-19 0)
(0.00139456 1.32376e-05 1.87431e-19 -0.000404917 1.24011e-19 0)
(0.00134929 1.50579e-05 -5.80454e-21 -0.000393601 -1.08827e-19 0)
(0.00130767 1.6508e-05 -1.69056e-19 -0.000383451 -1.17634e-19 0)
(0.00126852 1.78725e-05 -3.17005e-19 -0.00037586 -1.26775e-19 0)
(0.00123239 1.88539e-05 -1.4901e-19 -0.000369223 -1.12476e-20 0)
(0.00119749 1.98946e-05 -2.75357e-19 -0.000364064 1.12474e-19 0)
(0.00288395 -0.00022808 1.95038e-19 -0.00119489 3.28605e-19 7.62783e-34)
(0.00267426 -0.000184519 5.53376e-19 -0.00106499 3.28264e-19 0)
(0.00248945 -0.000147868 2.55874e-19 -0.000944214 -4.82335e-19 0)
(0.00232972 -0.000116536 8.3299e-19 -0.000852255 2.96918e-19 0)
(0.00218673 -8.96768e-05 -1.04802e-18 -0.00076552 -9.82268e-20 0)
(0.00206381 -6.69375e-05 -1.9314e-25 -0.000700749 -6.76526e-25 0)
(0.0019528 -4.70939e-05 2.09714e-21 -0.000639387 7.48303e-21 0)
(0.00185535 -3.02875e-05 -6.42864e-19 -0.000592811 -3.96348e-19 0)
(0.00176767 -1.55069e-05 0 -0.000549427 0 0)
(0.00168932 -2.95131e-06 7.61384e-19 -0.00051613 2.43266e-19 0)
(0.00161877 8.10803e-06 4.04613e-26 -0.000485546 1.70073e-25 0)
(0.00155492 1.75444e-05 -5.32855e-20 -0.000462041 -2.4881e-19 0)
(0.00149711 2.5817e-05 -2.37736e-20 -0.000440656 -1.18433e-19 0)
(0.00144421 3.29257e-05 2.12969e-20 -0.000424329 1.13873e-19 0)
(0.00139595 3.90609e-05 2.00906e-19 -0.000409573 1.41613e-19 0)
(0.00135126 4.44155e-05 -1.55638e-19 -0.000398436 7.32982e-20 0)
(0.00131016 4.88488e-05 -1.48531e-19 -0.000388432 7.28751e-20 0)
(0.0012715 5.28863e-05 -3.28301e-19 -0.000380946 -1.62835e-19 0)
(0.00123575 5.58788e-05 2.36253e-22 -0.000374312 1.70756e-21 0)
(0.00120129 5.89652e-05 -3.2931e-19 -0.000369216 -2.28124e-19 0)
(0.00282429 -0.000373661 8.16481e-19 -0.00115709 2.99142e-19 8.33114e-34)
(0.00262512 -0.000303793 6.09776e-19 -0.00103607 3.29355e-19 0)
(0.00244985 -0.00024335 -1.37309e-19 -0.000922917 -2.54299e-19 0)
(0.00229698 -0.000193317 -1.46817e-19 -0.000836686 3.88639e-19 0)
(0.0021618 -0.000148356 7.04056e-19 -0.000755934 1.20095e-19 0)
(0.00204302 -0.00010949 1.43669e-19 -0.000694831 -3.06507e-19 0)
(0.00193683 -7.84479e-05 1.57388e-19 -0.000636663 3.26928e-19 0)
(0.0018428 -4.98587e-05 2.97414e-21 -0.000592965 6.51131e-21 0)
(0.00175833 -2.65967e-05 -7.11185e-19 -0.00055149 -5.48193e-19 0)
(0.00168273 -5.54402e-06 2.99164e-19 -0.000520299 1.90513e-19 0)
(0.00161448 1.21478e-05 2.79385e-19 -0.000490942 1.84197e-19 0)
(0.00155274 2.78084e-05 1.28952e-19 -0.000468864 -1.81442e-19 0)
(0.00149664 4.12093e-05 -4.48642e-19 -0.000448264 -2.27344e-19 0)
(0.00144536 5.29455e-05 -1.58759e-19 -0.00043284 5.34084e-20 0)
(0.00139839 6.2966e-05 6.32785e-20 -0.00041854 2.10687e-19 0)
(0.00135495 7.17886e-05 2.91273e-20 -0.00040794 1.04193e-19 0)
(0.00131484 7.90755e-05 1.66679e-19 -0.000398128 5.33918e-20 0)
(0.0012772 8.57208e-05 -2.07166e-19 -0.000390947 -2.47683e-19 0)
(0.00124221 9.06821e-05 -3.87515e-22 -0.000384274 -1.63546e-21 0)
(0.00120861 9.5755e-05 -2.41714e-19 -0.000379353 -2.57459e-19 0)
(0.00273804 -0.000510448 -5.56568e-19 -0.00110289 2.64445e-19 4.07019e-34)
(0.00255384 -0.000414404 4.20716e-19 -0.000994102 5.24753e-19 0)
(0.00239088 -0.00033332 4.23241e-19 -0.000892074 8.39091e-20 0)
(0.00224913 -0.000263908 -1.58502e-19 -0.000814085 -2.0486e-19 0)
(0.00211743 -0.000203276 7.65033e-19 -0.000737758 -1.37166e-19 0)
(0.00201172 -0.000153503 2.48905e-19 -0.000684965 3.40329e-19 0)
(0.00191197 -0.000109432 1.15911e-19 -0.000632658 1.63624e-19 0)
(0.00182377 -7.17158e-05 8.42688e-19 -0.000592281 2.40625e-19 0)
(0.00174451 -3.89191e-05 1.80578e-19 -0.00055501 -4.71931e-20 0)
(0.00167263 -1.05615e-05 -1.53885e-19 -0.000525841 -2.51936e-19 0)
(0.00160816 1.40664e-05 4.63975e-19 -0.000499163 1.57492e-19 0)
(0.00154918 3.54094e-05 5.95605e-20 -0.000478496 1.10159e-19 0)
(0.00149581 5.39211e-05 5.62506e-20 -0.000459518 1.10973e-19 0)
(0.00144668 7.00094e-05 -4.40755e-19 -0.000445054 -2.54022e-19 0)
(0.00140172 8.38171e-05 -1.86741e-19 -0.000431664 -7.54062e-20 0)
(0.00136 9.59422e-05 1.76997e-19 -0.000421669 7.25106e-20 0)
(0.00132139 0.000106004 2.40887e-19 -0.000412266 2.58144e-19 0)
(0.00128519 0.000115138 3.24165e-19 -0.000405444 1.45448e-19 0)
(0.00125132 0.000122052 -1.54229e-19 -0.000398793 -6.9251e-20 0)
(0.00121897 0.000129012 1.42367e-19 -0.000394079 1.18643e-19 0)
(0.00262458 -0.000634127 -4.73378e-19 -0.00103204 3.00081e-21 -3.4864e-36)
(0.00246033 -0.000516692 -7.29463e-20 -0.000939853 -3.82643e-19 0)
(0.00231449 -0.000416602 -2.43807e-19 -0.00085116 -2.21486e-19 0)
(0.00218487 -0.000335642 3.79931e-19 -0.000782885 9.66881e-20 0)
(0.00207201 -0.00025776 -4.05009e-21 -0.000720552 -3.86161e-21 0)
(0.00197195 -0.000189822 -1.69404e-19 -0.000674532 5.83514e-20 0)
(0.00187965 -0.000140098 7.70133e-19 -0.000626118 1.60399e-19 0)
(0.00179839 -9.26321e-05 1.59217e-19 -0.000591786 -3.31465e-20 0)
(0.00172483 -5.24114e-05 2.59969e-19 -0.000557837 9.46541e-20 0)
(0.0016585 -1.74021e-05 0 -0.000532824 0 0)
(0.0015984 1.34768e-05 8.45262e-20 -0.000508642 1.06218e-19 0)
(0.00154357 3.98247e-05 -4.43937e-19 -0.000490645 -1.95499e-19 0)
(0.00149353 6.31496e-05 4.87436e-19 -0.000473363 2.89014e-19 0)
(0.0014475 8.31014e-05 3.23481e-19 -0.00046055 2.86111e-19 0)
(0.00140508 0.000100524 1.36241e-19 -0.00044818 5.48047e-21 0)
(0.00136573 0.000115629 -4.95866e-20 -0.000439163 -8.79764e-20 0)
(0.00132907 0.000128367 1.27717e-19 -0.000430235 6.04843e-21 0)
(0.00129479 0.000139772 1.63152e-19 -0.00042397 8.56415e-20 0)
(0.00126241 0.000148621 -1.19658e-19 -0.000417344 -6.88419e-21 0)
(0.00123166 0.000157311 3.72569e-19 -0.000412936 1.33498e-19 0)
(0.00248985 -0.000743186 9.44182e-19 -0.000947777 2.98362e-21 -7.01236e-37)
(0.00234927 -0.000607444 -1.48631e-19 -0.000876467 9.39179e-20 0)
(0.00222558 -0.000492752 4.31619e-19 -0.000803366 1.24738e-19 0)
(0.00211128 -0.000392763 -2.43577e-19 -0.000750131 -1.69147e-19 0)
(0.00199289 -0.000301301 -7.00807e-19 -0.000692302 -2.35917e-19 0)
(0.00192092 -0.000234015 -5.20374e-19 -0.000657646 -2.61932e-19 0)
(0.00184298 -0.000171167 -1.70994e-19 -0.000619163 -1.30222e-19 0)
(0.00176685 -0.000115431 8.02374e-21 -0.000589929 1.14087e-19 0)
(0.00170108 -6.76519e-05 -2.64843e-19 -0.00056083 -1.16803e-19 0)
(0.00164068 -2.63082e-05 -6.24462e-19 -0.000540551 -3.43225e-19 0)
(0.00158582 9.84805e-06 -2.71081e-19 -0.000519327 -4.29682e-20 0)
(0.00153587 4.1006e-05 -3.16536e-19 -0.000504657 -2.07247e-19 0)
(0.00148971 6.83148e-05 -1.63359e-19 -0.000489293 -1.74368e-19 0)
(0.00144742 9.19264e-05 2.01348e-19 -0.0004786 1.10629e-19 0)
(0.00140797 0.000112422 6.30865e-20 -0.000467402 7.766e-20 0)
(0.00137152 0.00013031 1.85289e-19 -0.000459653 1.10151e-19 0)
(0.00133715 0.000145418 5.26626e-20 -0.000451301 7.4514e-20 0)
(0.0013052 0.000158917 2.68852e-19 -0.000445757 2.57563e-19 0)
(0.00127461 0.000169575 -2.52425e-19 -0.00043921 -2.48185e-19 0)
(0.00124577 0.000179846 1.28096e-20 -0.000435185 -2.21649e-20 0)
(0.00233536 -0.000834772 1.11035e-18 -0.000854185 1.62339e-19 1.44419e-33)
(0.00222035 -0.000683957 -7.94456e-19 -0.000802962 -2.9575e-19 0)
(0.00211476 -0.00055689 -6.56597e-19 -0.000746998 -3.25717e-19 0)
(0.00202378 -0.000441829 4.4264e-19 -0.000710964 2.95297e-19 0)
(0.00193675 -0.000351906 -1.05411e-19 -0.00066755 -6.98823e-21 0)
(0.00185846 -0.000274344 1.17171e-19 -0.000636435 2.49157e-20 0)
(0.00179111 -0.000199174 -1.88457e-19 -0.000608432 -1.06013e-19 0)
(0.00172791 -0.000138122 -2.87852e-19 -0.000586597 -1.37815e-19 0)
(0.00167064 -8.42244e-05 6.95518e-19 -0.00056454 3.68957e-19 0)
(0.0016181 -3.75943e-05 -3.76911e-19 -0.000548549 -1.83325e-19 0)
(0.00156967 2.7131e-06 2.351e-21 -0.000531882 1.63952e-21 0)
(0.0015252 3.81269e-05 -2.11025e-19 -0.000520006 -1.57819e-19 0)
(0.00148384 6.86601e-05 -3.13209e-19 -0.00050749 -2.06899e-19 0)
(0.00144565 9.55423e-05 -3.93646e-20 -0.000498643 1.59714e-20 0)
(0.00140982 0.000118627 -4.69991e-19 -0.000489111 -3.22193e-19 0)
(0.00137654 0.000138998 -2.58563e-19 -0.000482533 -1.94159e-19 0)
(0.00134494 0.000156188 -2.41704e-19 -0.000475007 -1.87424e-19 0)
(0.00131557 0.000171546 5.26567e-20 -0.000470162 6.03631e-20 0)
(0.00128712 0.000183884 2.69645e-19 -0.000463817 2.4303e-19 0)
(0.00126039 0.00019555 -2.06971e-19 -0.000460168 -1.77097e-19 0)
(0.00216688 -0.000907182 -2.24833e-20 -0.000753287 1.60692e-20 1.19662e-35)
(0.00207871 -0.000746759 1.28863e-18 -0.000723203 4.21219e-19 0)
(0.00199599 -0.000610633 -1.2206e-18 -0.000687188 -4.35374e-19 0)
(0.00192303 -0.000492379 3.92421e-19 -0.000663622 1.54745e-19 0)
(0.00184948 -0.000388905 1.65926e-19 -0.000633427 1.04455e-19 0)
(0.00179328 -0.000302904 -1.6131e-19 -0.000617959 -3.95999e-20 0)
(0.00173576 -0.000226537 -4.17078e-19 -0.000597451 -2.25729e-19 0)
(0.00168409 -0.000160225 -2.94815e-19 -0.000583107 -1.55159e-19 0)
(0.00163595 -0.000102536 -3.90268e-19 -0.000567684 -2.33332e-19 0)
(0.00159113 -5.20055e-05 4.11829e-19 -0.000556346 2.24369e-19 0)
(0.00154982 -8.05209e-06 2.45669e-19 -0.000544401 1.49199e-19 0)
(0.00151109 3.04519e-05 1.45655e-25 -0.000535681 8.00061e-26 0)
(0.00147512 6.39995e-05 -3.26969e-19 -0.000526265 -2.06621e-19 0)
(0.00144135 9.33648e-05 -1.19794e-19 -0.000519542 -8.4548e-20 0)
(0.00140959 0.000118864 8.37059e-20 -0.0005119 5.69839e-20 0)
(0.00137981 0.000141213 -2.67083e-19 -0.000506687 -1.92443e-19 0)
(0.00135133 0.000160346 -6.17285e-26 -0.000500161 -4.87544e-26 0)
(0.00132478 0.000177233 -5.33635e-19 -0.000496135 -4.00105e-19 0)
(0.00129878 0.000191182 1.14664e-19 -0.000490127 8.04324e-20 0)
(0.00127431 0.000204027 -2.93363e-19 -0.00048691 -2.41807e-19 0)
(0.00198542 -0.000958942 -8.64179e-19 -0.00064631 -1.2996e-20 8.09296e-36)
(0.00192666 -0.000792911 4.23115e-19 -0.000640369 9.86596e-20 0)
(0.00186804 -0.000652587 -3.83463e-19 -0.000622738 -9.01645e-20 0)
(0.0018162 -0.000528806 -6.9092e-19 -0.000616562 -1.70905e-19 0)
(0.00176485 -0.000424286 6.45482e-19 -0.000601705 2.40095e-19 0)
(0.00171787 -0.000333342 4.64985e-19 -0.000594506 4.36177e-20 0)
(0.0016745 -0.00025235 -3.83094e-19 -0.000583753 -2.69411e-19 0)
(0.00163326 -0.000183321 -2.9375e-19 -0.000577395 -1.67222e-19 0)
(0.00159512 -0.000121715 -7.36074e-19 -0.000568598 -3.8789e-19 0)
(0.00155887 -6.88384e-05 -3.30819e-19 -0.000563155 -1.09661e-19 0)
(0.00152497 -2.19052e-05 1.45248e-19 -0.000555743 5.1287e-20 0)
(0.00149285 1.87069e-05 4.80477e-19 -0.000551056 3.22104e-19 0)
(0.00146249 5.45694e-05 -1.33412e-25 -0.000544659 -5.49981e-26 0)
(0.00143377 8.57503e-05 1.04122e-19 -0.000540589 4.63794e-20 0)
(0.00140633 0.000113118 1.17429e-19 -0.00053484 1.09506e-19 0)
(0.00138045 0.000136965 3.16507e-19 -0.000531302 2.57734e-19 0)
(0.00135535 0.000157665 2.64965e-19 -0.000525823 1.88849e-19 0)
(0.00133189 0.000175727 3.68048e-19 -0.000522797 2.90332e-19 0)
(0.00130859 0.000191062 -3.53921e-19 -0.000517197 -2.84942e-19 0)
(0.00128656 0.000204833 5.5999e-20 -0.000514511 3.86536e-20 0)
(0.00179783 -0.000990389 -1.28658e-18 -0.000538795 3.44506e-20 4.79211e-34)
(0.00176693 -0.000824391 -4.50785e-19 -0.000554551 -5.80011e-20 0)
(0.00173222 -0.000682142 0 -0.00055667 0 0)
(0.00170113 -0.000558203 -3.44508e-19 -0.000565826 -4.82146e-20 0)
(0.00166707 -0.000450351 -1.03209e-18 -0.000564949 -4.04111e-19 0)
(0.00163768 -0.000357347 -5.49952e-20 -0.000570381 -1.36666e-19 0)
(0.00160648 -0.000275509 5.64781e-19 -0.000568791 2.20504e-19 0)
(0.00157795 -0.000204414 6.02495e-19 -0.000571005 3.59537e-19 0)
(0.00154934 -0.000141835 8.51378e-19 -0.000568897 5.33955e-19 0)
(0.00152228 -8.71651e-05 -1.71996e-19 -0.00056917 -3.50678e-20 0)
(0.00149586 -3.9018e-05 -3.11757e-19 -0.000566566 -6.82327e-20 0)
(0.00147056 3.12842e-06 -5.37664e-21 -0.000565712 -1.28884e-21 0)
(0.00144604 4.02737e-05 1.23064e-19 -0.000562619 3.18661e-20 0)
(0.00142252 7.27655e-05 2.21186e-19 -0.000561101 1.65228e-19 0)
(0.00139963 0.000101381 3.27983e-19 -0.000557484 2.95133e-19 0)
(0.00137779 0.00012633 -8.86246e-20 -0.000555596 -2.99615e-20 0)
(0.00135628 0.000148221 -1.37988e-21 -0.000551356 -5.01114e-22 0)
(0.00133601 0.000167167 3.96752e-19 -0.000549332 2.36621e-19 0)
(0.0013156 0.000183671 2.47528e-19 -0.000544307 1.78595e-19 0)
(0.00129606 0.000198174 2.34898e-19 -0.000542155 2.43665e-19 0)
(0.00160679 -0.00100128 -6.0738e-19 -0.000432255 1.96099e-19 1.40591e-34)
(0.00160383 -0.000838735 -4.95165e-19 -0.000470229 -1.70941e-20 0)
(0.00159315 -0.000699421 3.84395e-19 -0.00049086 3.50157e-19 0)
(0.00158231 -0.000576914 3.64618e-19 -0.000515727 1.86207e-19 0)
(0.00156707 -0.000470987 6.80937e-19 -0.000528661 3.18274e-20 0)
(0.00155164 -0.00037816 6.55993e-21 -0.000544502 3.6402e-22 0)
(0.00153446 -0.000296588 1.11718e-19 -0.000552702 3.47696e-19 0)
(0.00151685 -0.00022549 -1.76489e-19 -0.000562615 1.55027e-19 0)
(0.0014987 -0.000162447 4.88798e-19 -0.000567368 2.02595e-19 0)
(0.00148027 -0.000107569 4.5612e-19 -0.000573289 2.01189e-19 0)
(0.00146179 -5.8715e-05 4.25999e-19 -0.000575448 1.9866e-19 0)
(0.00144327 -1.61812e-05 -4.92857e-19 -0.000578614 -3.58655e-19 0)
(0.00142484 2.17389e-05 -1.2997e-19 -0.000578758 -1.61817e-20 0)
(0.00140663 5.47147e-05 -3.43514e-19 -0.000580004 -1.89924e-19 0)
(0.00138849 8.41272e-05 -2.20367e-19 -0.000578494 -1.70654e-19 0)
(0.00137082 0.000109574 -5.36054e-19 -0.00057843 -4.85237e-19 0)
(0.00135308 0.000132289 -4.01685e-19 -0.000575459 -3.27575e-19 0)
(0.00133612 0.000151675 -7.17635e-20 -0.000574567 -1.5157e-20 0)
(0.00131879 0.00016907 3.04993e-19 -0.000570198 2.99805e-19 0)
(0.00130181 0.000183993 1.66283e-19 -0.000568675 9.79515e-20 0)
(0.00141655 -0.000992424 1.11297e-18 -0.000330407 5.20164e-20 3.60285e-36)
(0.00143946 -0.000837733 -9.85818e-19 -0.000387993 5.27018e-20 0)
(0.00145115 -0.000703962 -4.63958e-19 -0.000426233 2.42404e-20 0)
(0.00146009 -0.000586364 2.20015e-20 -0.0004655 -2.12964e-19 0)
(0.0014617 -0.000483605 3.50963e-19 -0.000491232 1.96994e-19 0)
(0.00146178 -0.000393553 3.6314e-19 -0.000517917 4.06439e-19 0)
(0.00145724 -0.000314155 3.10438e-19 -0.0005352 1.97333e-19 0)
(0.00145154 -0.000244569 -5.64538e-20 -0.000552989 -2.02432e-19 0)
(0.00144312 -0.000182873 -5.78221e-19 -0.000564266 -3.87716e-19 0)
(0.00143379 -0.000128764 -4.70859e-19 -0.000575779 -1.88539e-19 0)
(0.0014229 -8.06013e-05 1.68206e-19 -0.000582605 -1.75673e-21 0)
(0.00141136 -3.83889e-05 4.05727e-19 -0.000589683 1.85451e-19 0)
(0.00139891 -6.82797e-07 4.84873e-19 -0.000593091 3.6499e-19 0)
(0.00138611 3.22452e-05 1.22405e-19 -0.000597028 1.61041e-21 0)
(0.00137272 6.17809e-05 -1.12452e-19 -0.000597711 -1.73769e-19 0)
(0.00135928 8.73349e-05 2.17753e-19 -0.000599442 1.72474e-19 0)
(0.00134536 0.000110427 -4.48409e-20 -0.00059785 1.60885e-19 0)
(0.00133172 0.000129983 3.2109e-19 -0.000598086 3.27729e-19 0)
(0.00131754 0.000147977 6.7962e-20 -0.000594497 2.85447e-21 0)
(0.00130311 0.000163154 -3.62524e-19 -0.000593609 -2.52751e-19 0)
(0.0012307 -0.000965136 1.21048e-18 -0.000235404 -1.19474e-19 4.97622e-34)
(0.00127765 -0.000821374 1.64933e-19 -0.000311109 -5.21102e-19 0)
(0.00131032 -0.000696615 -3.7588e-19 -0.000365142 -1.99973e-19 0)
(0.00133746 -0.000586135 -7.77717e-19 -0.00041766 -1.48329e-19 0)
(0.00135535 -0.00048944 -3.57204e-19 -0.000455122 4.62001e-20 0)
(0.00136918 -0.000403983 -6.97707e-21 -0.000491374 8.66241e-22 0)
(0.00137723 -0.00032848 -3.57546e-19 -0.00051726 -4.39587e-19 0)
(0.00138217 -0.000261931 8.66989e-19 -0.00054204 3.71477e-19 0)
(0.00138351 -0.000202666 5.21797e-19 -0.000559549 1.71707e-19 0)
(0.00138252 -0.000150558 -1.94722e-19 -0.000576164 2.20077e-20 0)
(0.00137922 -0.000103864 -1.73085e-19 -0.00058744 1.94567e-20 0)
(0.00137427 -6.29412e-05 1.969e-19 -0.000598188 4.13941e-19 0)
(0.0013678 -2.60619e-05 -5.302e-21 -0.000604707 5.78813e-22 0)
(0.00136022 6.05783e-06 8.39335e-21 -0.000611224 -2.08818e-19 0)
(0.00135158 3.52167e-05 1.1565e-19 -0.000614012 1.91372e-19 0)
(0.0013423 6.0275e-05 5.53218e-19 -0.000617494 5.37819e-19 0)
(0.00133223 8.33285e-05 1.21496e-19 -0.000617263 1.82093e-19 0)
(0.00132188 0.000102578 -4.07249e-19 -0.000618614 -3.36612e-19 0)
(0.00131093 0.000120815 1.33733e-19 -0.000615859 -1.70252e-20 0)
(0.00129904 0.000135894 2.49491e-19 -0.000615625 1.53496e-19 0)
(0.00105212 -0.000920784 1.45041e-18 -0.000149714 -8.76803e-19 -1.01629e-34)
(0.00112037 -0.000791088 5.47948e-19 -0.000240609 -1.20044e-19 0)
(0.00117167 -0.000677686 -5.30661e-19 -0.000308438 4.0259e-19 0)
(0.00121549 -0.000576839 9.31114e-21 -0.000372418 -1.98276e-21 0)
(0.00124791 -0.000487906 -1.07103e-18 -0.000420205 -3.35339e-19 0)
(0.0012749 -0.000409031 -9.99731e-21 -0.000465101 -2.74707e-19 0)
(0.0012943 -0.000338913 -8.8997e-19 -0.00049863 -8.67413e-20 0)
(0.0013096 -0.000276859 -5.20826e-19 -0.000529849 1.07414e-19 0)
(0.00131988 -0.000221311 1.03516e-18 -0.000552986 3.09886e-19 0)
(0.00132705 -0.000172266 5.6107e-19 -0.00057433 3.97484e-19 0)
(0.00133087 -0.000128084 -4.53863e-19 -0.000589719 -1.56867e-19 0)
(0.00133236 -8.92288e-05 6.75856e-19 -0.000603895 3.50778e-19 0)
(0.00133161 -5.39787e-05 -5.67654e-19 -0.000613376 -8.45101e-19 0)
(0.00132913 -2.32261e-05 -7.14396e-19 -0.00062234 -5.54552e-19 0)
(0.00132513 4.95998e-06 -7.93928e-19 -0.000627206 -2.85827e-19 0)
(0.0013199 2.91483e-05 -9.58826e-26 -0.000632395 2.23395e-26 0)
(0.00131365 5.17337e-05 -2.53647e-19 -0.000633564 -3.89791e-19 0)
(0.00130651 7.04609e-05 -4.09356e-19 -0.000636052 -3.39812e-19 0)
(0.00129877 8.86445e-05 -5.32275e-19 -0.000634194 -2.9319e-19 0)
(0.00128936 0.000103527 5.3507e-19 -0.000634672 2.75942e-19 0)
(0.000883983 -0.000861602 -8.14433e-19 -7.52698e-05 1.9841e-19 2.86605e-34)
(0.00097069 -0.000748187 6.61045e-19 -0.000178829 7.66238e-19 0)
(0.0010383 -0.000648396 3.84463e-19 -0.000258166 2.04977e-19 0)
(0.00109672 -0.00055893 7.99421e-19 -0.000331797 -2.35324e-19 0)
(0.00114214 -0.000479609 1.62333e-20 -0.000388367 -4.77606e-21 0)
(0.00118067 -0.000408719 1.46981e-20 -0.000440544 3.01762e-19 0)
(0.00121044 -0.000345366 3.22252e-19 -0.000480709 2.06575e-19 0)
(0.00123492 -0.000288942 -1.11875e-18 -0.000517387 -2.62846e-19 0)
(0.00125348 -0.000238126 -5.24121e-19 -0.000545482 -1.34634e-19 0)
(0.001268 -0.000193061 4.02157e-19 -0.000570885 -1.19281e-19 0)
(0.00127846 -0.00015215 -7.18564e-19 -0.000589921 -3.38803e-19 0)
(0.00128587 -0.000116116 1.57378e-19 -0.000607074 -4.82844e-20 0)
(0.00129046 -8.30731e-05 1.22043e-18 -0.000619181 1.49563e-19 0)
(0.00129278 -5.43324e-05 4.87126e-19 -0.00063028 3.68255e-19 0)
(0.00129311 -2.75682e-05 -4.41242e-19 -0.000636981 1.50515e-19 0)
(0.00129176 -4.83008e-06 -3.23494e-19 -0.000643646 -1.41863e-19 0)
(0.00128909 1.69122e-05 -1.29237e-19 -0.000646057 -2.0613e-19 0)
(0.00128504 3.45974e-05 2.08483e-19 -0.000649484 1.6936e-19 0)
(0.00128039 5.23417e-05 1.1348e-21 -0.000648465 -4.99524e-22 0)
(0.00127337 6.66117e-05 -2.65071e-19 -0.000649502 -5.48634e-20 0)
(0.000728146 -0.000789423 2.8172e-19 -1.35297e-05 4.2551e-20 -2.68468e-36)
(0.000830006 -0.000694186 -8.92054e-19 -0.000126496 -1.2487e-20 0)
(0.000911151 -0.000609596 4.36972e-19 -0.000214742 -1.66246e-19 0)
(0.000981942 -0.000533139 4.65417e-20 -0.000295795 -3.62318e-19 0)
(0.00103839 -0.00046473 3.11911e-19 -0.000359315 9.01273e-19 0)
(0.00108698 -0.000403189 -3.40708e-19 -0.000417259 -2.05357e-19 0)
(0.00112572 -0.000347706 -4.14902e-20 -0.000462774 -3.11367e-19 0)
(0.00115837 -0.000298023 0 -0.000503865 0 0)
(0.00118427 -0.000252881 -5.86738e-19 -0.000536044 -4.03939e-19 0)
(0.00120539 -0.000212687 -7.81068e-20 -0.00056477 -2.77484e-19 0)
(0.0012219 -0.000175841 6.40452e-19 -0.000586911 6.53894e-19 0)
(0.00123465 -0.000143323 -1.26561e-18 -0.000606528 -3.80056e-19 0)
(0.00124429 -0.000113153 3.84146e-19 -0.000620984 1.32211e-19 0)
(0.00125092 -8.69279e-05 9.76289e-19 -0.000633894 4.43507e-19 0)
(0.00125551 -6.21519e-05 4.66858e-19 -0.000642344 3.59152e-19 0)
(0.00125767 -4.11641e-05 9.91723e-20 -0.000650358 -4.66711e-20 0)
(0.00125859 -2.07456e-05 2.19433e-19 -0.000654 1.70566e-19 0)
(0.00125745 -4.2031e-06 -7.47653e-20 -0.000658489 3.9915e-20 0)
(0.00125584 1.27699e-05 3.44464e-19 -0.000658293 3.63986e-19 0)
(0.00125117 2.64831e-05 1.40908e-19 -0.000660186 1.95529e-19 0)
(0.000586968 -0.000707065 5.10287e-19 3.41579e-05 -3.0927e-19 7.02915e-35)
(0.000700774 -0.000631141 1.17282e-20 -8.53545e-05 -5.46801e-21 0)
(0.000792708 -0.000562962 1.02702e-20 -0.000180053 -4.76386e-21 0)
(0.000873518 -0.000500542 1.03133e-18 -0.000266456 1.01328e-18 0)
(0.000939012 -0.000444136 -3.5035e-19 -0.000335187 -2.04373e-19 0)
(0.000995958 -0.000392825 9.5189e-19 -0.000397406 -4.36612e-19 0)
(0.00104225 -0.000346132 -2.67867e-19 -0.000447068 1.23572e-19 0)
(0.00108184 -0.000303916 -2.50004e-19 -0.000491518 1.15821e-19 0)
(0.00111402 -0.000265196 -5.84674e-19 -0.000526958 -3.99814e-19 0)
(0.00114094 -0.000230458 -5.97104e-19 -0.00055828 2.83721e-19 0)
(0.00116266 -0.00019826 4.40084e-19 -0.000582951 1.10692e-19 0)
(0.00118028 -0.000169748 -4.87432e-20 -0.000604541 -6.13187e-19 0)
(0.00119422 -0.000142862 -6.3989e-19 -0.000620923 -2.99925e-19 0)
(0.00120497 -0.00011964 1.21819e-19 -0.000635295 2.45276e-19 0)
(0.00121311 -9.70488e-05 1.28079e-19 -0.000645167 2.36395e-19 0)
(0.00121875 -7.84113e-05 -2.30488e-19 -0.000654201 -1.70431e-19 0)
(0.00122264 -5.92996e-05 8.19578e-20 -0.000658854 -5.15961e-20 0)
(0.00122427 -4.45216e-05 1.40833e-19 -0.000663913 2.1196e-19 0)
(0.00122529 -2.84728e-05 -4.77687e-19 -0.000664372 -2.71359e-19 0)
(0.00122267 -1.58929e-05 -2.004e-19 -0.00066651 -1.55552e-19 0)
(0.000461242 -0.000616371 -2.51792e-19 6.72185e-05 -5.1535e-20 1.34818e-36)
(0.000583552 -0.000560493 -4.8007e-19 -5.55095e-05 2.65975e-19 0)
(0.000683359 -0.000509381 -5.55778e-19 -0.000153823 1.11601e-18 0)
(0.000771691 -0.000461732 1.0679e-18 -0.000243144 -1.86766e-19 0)
(0.000844097 -0.000417951 2.02801e-20 -0.000314992 -7.90867e-19 0)
(0.000907535 -0.000377561 8.28916e-21 -0.000379679 3.77122e-19 0)
(0.000959818 -0.000340227 5.74123e-19 -0.000431929 5.85865e-20 0)
(0.00100492 -0.000306113 4.86395e-19 -0.000478356 -2.68709e-19 0)
(0.0010423 -0.000274327 2.96872e-19 -0.000515915 1.92597e-19 0)
(0.0010738 -0.000245617 -6.70074e-19 -0.00054873 2.87999e-20 0)
(0.00110011 -0.000218538 -6.37506e-19 -0.000575163 -6.66777e-19 0)
(0.00112145 -0.000194517 2.62882e-19 -0.000597778 1.83421e-19 0)
(0.00113955 -0.000171398 -5.28108e-19 -0.0006157 -1.03466e-20 0)
(0.00115321 -0.000151502 -3.67637e-19 -0.000630664 -9.69923e-20 0)
(0.00116522 -0.000131722 -2.783e-20 -0.000641918 -3.11314e-19 0)
(0.00117308 -0.000115486 1.88859e-19 -0.000651268 -1.32823e-19 0)
(0.00118025 -9.85908e-05 -1.59701e-19 -0.000656789 1.20983e-19 0)
(0.00118412 -8.55629e-05 6.88574e-20 -0.000662572 -5.5352e-20 0)
(0.00118805 -7.11221e-05 -1.44666e-19 -0.000663608 -2.10342e-19 0)
(0.0011876 -5.96096e-05 -3.03492e-19 -0.000666945 -5.15109e-20 0)
(0.000352488 -0.000520637 -2.23524e-19 8.50993e-05 -6.50317e-20 -2.69968e-36)
(0.000480088 -0.000484909 -9.71411e-19 -3.80565e-05 1.06586e-18 0)
(0.000584938 -0.0004512 -7.61222e-19 -0.000137598 5.89588e-20 0)
(0.000678376 -0.000418636 9.01757e-20 -0.000227763 -1.32204e-18 0)
(0.000755569 -0.000387969 3.29437e-19 -0.000300994 2.02969e-19 0)
(0.000823737 -0.000358874 -6.32209e-19 -0.000366657 -4.05144e-19 0)
(0.000880412 -0.00033146 5.62747e-21 -0.000420292 -3.59863e-21 0)
(0.000929807 -0.000305788 -5.3343e-19 -0.000467674 -4.33673e-20 0)
(0.000971128 -0.000281538 1.06898e-18 -0.00050656 4.40242e-19 0)
(0.00100652 -0.000259098 1.91008e-19 -0.000540236 -1.26137e-19 0)
(0.00103629 -0.000237765 -1.63543e-19 -0.000567924 1.10303e-19 0)
(0.00106118 -0.000218363 9.29788e-19 -0.000591282 4.34064e-19 0)
(0.00108224 -0.000199601 -1.16399e-19 -0.000610394 -2.71403e-19 0)
(0.00109929 -0.000183199 -3.56259e-19 -0.000625979 -8.70327e-20 0)
(0.00111375 -0.000166497 -9.09597e-19 -0.000638434 -3.41186e-19 0)
(0.00112497 -0.000153598 -9.26904e-20 -0.000648157 7.53132e-20 0)
(0.00113442 -0.000137943 5.19152e-19 -0.000655354 2.47812e-19 0)
(0.00114074 -0.000127236 -6.42629e-19 -0.000660974 -4.59865e-19 0)
(0.00114704 -0.000113791 4.13966e-19 -0.000663534 3.00192e-19 0)
(0.00114783 -0.000104631 6.64116e-19 -0.000666031 2.83402e-19 0)
(0.000260594 -0.000421292 -6.7237e-19 8.78091e-05 8.2188e-19 -2.78882e-34)
(0.000390343 -0.000405438 -9.57595e-20 -3.27145e-05 5.34776e-19 0)
(0.000497531 -0.000388874 -6.16723e-19 -0.00013076 -9.06282e-19 0)
(0.000593682 -0.000371274 3.30154e-19 -0.000219439 2.01818e-19 0)
(0.0006736 -0.000353573 3.01279e-19 -0.000291946 -2.21372e-19 0)
(0.000744648 -0.000335754 6.08319e-21 -0.000356786 -4.46762e-21 0)
(0.000804155 -0.00031815 -3.08594e-19 -0.000410134 -1.88534e-19 0)
(0.00085636 -0.00030097 7.57251e-20 -0.000457045 3.50782e-19 0)
(0.000900494 -0.000284124 -2.03893e-19 -0.0004959 1.53188e-19 0)
(0.000938445 -0.000268064 4.50814e-19 -0.000529227 4.70944e-20 0)
(0.000971026 -0.000252285 -3.21146e-19 -0.0005571 2.50339e-19 0)
(0.00099803 -0.000237621 6.53067e-19 -0.000580003 2.35105e-19 0)
(0.00102218 -0.000223018 7.48119e-19 -0.000599705 1.30524e-19 0)
(0.00104045 -0.00020991 3.50543e-19 -0.000614356 7.00711e-20 0)
(0.00105921 -0.000196553 3.32506e-19 -0.000628564 7.05232e-20 0)
(0.00106973 -0.000185038 -4.77029e-19 -0.000636033 8.41199e-20 0)
(0.00108257 -0.000173046 7.16937e-20 -0.000643828 -7.36875e-20 0)
(0.00108927 -0.000163155 -1.48335e-19 -0.000648176 -2.17439e-19 0)
(0.00110139 -0.000153538 2.56789e-19 -0.000653825 4.77578e-19 0)
(0.00110162 -0.000143137 4.16522e-19 -0.000654264 1.9115e-19 0)
(0.000186088 -0.000321853 1.87958e-19 7.58021e-05 8.15095e-20 -2.62976e-36)
(0.000314944 -0.000325125 6.94403e-20 -3.95134e-05 -5.47808e-19 0)
(0.000421735 -0.0003253 -2.02394e-20 -0.000133834 4.95364e-19 0)
(0.000518244 -0.000322352 6.32767e-19 -0.000219048 4.02273e-19 0)
(0.000598756 -0.000317576 6.08319e-19 -0.000289159 -5.36664e-20 0)
(0.000670887 -0.000310973 2.54478e-19 -0.000351689 -2.13329e-19 0)
(0.000731547 -0.00030342 -5.20746e-19 -0.000403559 1.82319e-21 0)
(0.000785229 -0.000294805 -4.29561e-19 -0.00044892 3.63175e-19 0)
(0.000830786 -0.000285895 -8.70362e-20 -0.000486959 -3.42554e-19 0)
(0.000870412 -0.000276287 -3.73849e-19 -0.000519237 -4.93546e-19 0)
(0.000904441 -0.000266991 -3.52301e-20 -0.000546771 4.32431e-19 0)
(0.000933269 -0.000256901 -6.43812e-19 -0.000569023 -2.08341e-19 0)
(0.000958497 -0.000248021 7.29794e-19 -0.000588585 1.01867e-19 0)
(0.000979016 -0.000237308 0 -0.00060323 0 0)
(0.000997488 -0.000229895 -3.37771e-21 -0.000616682 3.4009e-21 0)
(0.00101359 -0.000222111 4.96807e-20 -0.000623777 8.38871e-20 0)
(0.00102503 -0.000213372 -5.83906e-19 -0.000634575 -5.0954e-19 0)
(0.00103562 -0.000200694 9.42754e-20 -0.000639404 2.84933e-19 0)
(0.00104412 -0.000198673 -2.57597e-19 -0.000645465 -6.68761e-20 0)
(0.00105602 -0.000187603 -1.17232e-19 -0.000646811 -2.58267e-19 0)
(0.000128402 -0.000223402 0 4.93696e-05 0 0)
(0.000253809 -0.000244728 -4.24577e-20 -5.82492e-05 5.55371e-19 0)
(0.000357964 -0.000260652 -6.71338e-19 -0.000146553 6.49829e-19 0)
(0.000452835 -0.000271543 -6.25024e-19 -0.000226372 -3.8114e-19 0)
(0.000532212 -0.000278923 1.09453e-18 -0.00029229 -5.67453e-19 0)
(0.000603947 -0.000282912 4.88e-19 -0.000351078 -4.66017e-19 0)
(0.000664471 -0.000284769 -4.6822e-21 -0.00040005 4.47795e-21 0)
(0.000718632 -0.00028422 -4.68264e-19 -0.00044287 4.46798e-21 0)
(0.000764689 -0.000282623 1.75625e-19 -0.000478934 -1.70597e-19 0)
(0.000805478 -0.000279104 -1.50595e-19 -0.000509586 1.4864e-19 0)
(0.000840311 -0.000275509 2.30024e-19 -0.000535758 6.11375e-19 0)
(0.000870981 -0.000270017 -9.96488e-19 -0.000557154 -6.34971e-19 0)
(0.000896824 -0.00026549 2.40965e-19 -0.00057556 1.55347e-19 0)
(0.000920147 -0.000258574 2.89835e-19 -0.000590161 -3.22363e-19 0)
(0.000937974 -0.000253879 -5.40008e-19 -0.000601814 -1.93859e-19 0)
(0.000956969 -0.000245726 -1.31315e-21 -0.000612311 1.63238e-21 0)
(0.000970172 -0.00024203 3.44623e-19 -0.000620544 -3.27382e-20 0)
(0.000984545 -0.00023165 3.65124e-19 -0.000626577 3.42465e-19 0)
(0.000989457 -0.000229046 -2.46745e-19 -0.000628445 -6.04779e-20 0)
(0.00100727 -0.000223306 4.73756e-20 -0.000631076 7.84777e-20 0)
(8.69295e-05 -0.00012903 -5.19038e-19 9.91114e-06 3.28321e-19 2.16734e-34)
(0.000206173 -0.000166965 -5.93561e-19 -8.77005e-05 -9.56329e-19 0)
(0.000305227 -0.000197532 6.11515e-19 -0.000167956 -6.74412e-19 0)
(0.000396316 -0.00022132 -8.46168e-19 -0.00024057 -1.03088e-19 0)