/*--------------------------------*- C++ -*----------------------------------*\
| =========                 |                                                 |
| \\      /  F ield         | OpenFOAM: The Open Source CFD Toolbox           |
|  \\    /   O peration     | Version:  v2012                                 |
|   \\  /    A nd           | Website:  www.openfoam.com                      |
|    \\/     M anipulation  |                                                 |
\*---------------------------------------------------------------------------*/
FoamFile
{
    version     2.0;
    format      ascii;
    class       volSymmTensorField;
    location    "10";
    object      epsilon;
}
// * * * * * * * * * * * * * * * * * * * * * * * * * * * * * * * * * * * * * //

dimensions      [0 0 0 0 0 0 0];


internalField   nonuniform List<symmTensor> 
2000
(
(0.0124221 -0.00102306 2.1684e-18 -0.00988648 2.38524e-17 0)
(0.0116684 -0.0013935 8.45678e-18 -0.00933496 2.0383e-17 0)
(0.0117122 -0.00082771 5.20417e-18 -0.00888787 1.56125e-17 0)
(0.0108487 -0.00129971 5.74627e-18 -0.00828093 9.1073e-18 0)
(0.0109012 -0.000622482 -4.33681e-19 -0.00781676 9.1073e-18 0)
(0.009955 -0.00119102 4.98733e-18 -0.00718233 7.80626e-18 0)
(0.0100151 -0.000416867 4.22839e-18 -0.00670511 7.37257e-18 0)
(0.00898715 -0.00108102 1.6263e-18 -0.00602456 3.46945e-18 0)
(0.00905521 -0.000205838 -3.03577e-18 -0.00556164 1.30104e-18 0)
(0.00796062 -0.0009591 -2.1684e-19 -0.00483818 0 0)
(0.00803602 8.77034e-06 2.81893e-18 -0.00441588 8.67362e-19 0)
(0.00693906 -0.000802539 3.79471e-18 -0.00373281 -2.60209e-18 0)
(0.00701755 0.000203844 4.33681e-19 -0.00334941 8.67362e-19 0)
(0.00599594 -0.000617225 1.0842e-18 -0.0028069 -2.60209e-18 0)
(0.00607174 0.000354493 3.25261e-19 -0.00244958 -4.33681e-19 0)
(0.00518236 -0.000425184 1.0842e-19 -0.00209767 -2.60209e-18 0)
(0.0052507 0.000451041 -2.1684e-19 -0.00176298 -8.67362e-19 0)
(0.00451778 -0.000247241 -5.96311e-19 -0.00158983 -1.73472e-18 0)
(0.00457601 0.00049976 -4.87891e-19 -0.00128904 -8.67362e-19 0)
(0.00399494 -9.60892e-05 -8.13152e-19 -0.00124326 0 0)
(0.0118229 -0.00227637 1.37694e-17 -0.00919695 1.77809e-17 0)
(0.0107834 -0.00259306 2.19009e-17 -0.00835747 1.0842e-17 0)
(0.0109121 -0.00203766 1.43115e-17 -0.00816517 9.97466e-18 0)
(0.00983705 -0.00232944 -4.77049e-18 -0.00708621 1.12757e-17 0)
(0.00998112 -0.00172158 -6.93889e-18 -0.00709898 1.43115e-17 0)
(0.00881822 -0.00203704 -8.45678e-18 -0.00579541 1.12757e-17 0)
(0.00898229 -0.00135491 1.30104e-18 -0.00598142 4.77049e-18 0)
(0.00774635 -0.00171577 4.55365e-18 -0.00451886 0 0)
(0.00793191 -0.000950817 5.20417e-18 -0.00483931 -3.46945e-18 0)
(0.00673816 -0.00135348 1.19262e-17 -0.00343936 -3.46945e-18 0)
(0.00693653 -0.000535306 5.63785e-18 -0.00377486 -4.77049e-18 0)
(0.00588119 -0.000974768 4.11997e-18 -0.00266323 -3.46945e-18 0)
(0.00607884 -0.000152668 1.0842e-18 -0.00288054 4.33681e-19 0)
(0.00519568 -0.000618503 1.30104e-18 -0.00215589 1.73472e-18 0)
(0.00538179 0.000165615 6.50521e-19 -0.0021919 -2.60209e-18 0)
(0.00466185 -0.000309031 -8.67362e-19 -0.00183121 8.67362e-19 0)
(0.00482983 0.000408676 -1.0842e-18 -0.00169501 4.33681e-19 0)
(0.00425057 -5.38868e-05 -1.40946e-18 -0.00161762 -8.67362e-19 0)
(0.00439648 0.000578239 -8.67362e-19 -0.00135189 -4.33681e-19 0)
(0.00394578 0.000152885 -2.1684e-19 -0.00147742 0 0)
(0.0106333 -0.00339551 1.53957e-17 -0.00809952 4.33681e-19 0)
(0.00923091 -0.00346902 6.93889e-18 -0.00665307 -2.1684e-18 0)
(0.0094724 -0.0028866 -3.46945e-18 -0.00690058 1.25767e-17 0)
(0.0080617 -0.00287719 -1.34441e-17 -0.00512374 9.97466e-18 0)
(0.00830597 -0.00231981 -1.47451e-17 -0.00569298 8.23994e-18 0)
(0.00689127 -0.00228178 -3.46945e-18 -0.00369819 -4.33681e-18 0)
(0.00714773 -0.00171721 5.63785e-18 -0.00450339 -2.1684e-18 0)
(0.00591837 -0.00169975 9.1073e-18 -0.00267601 -6.07153e-18 0)
(0.00617439 -0.0011375 1.40946e-17 -0.00349364 -4.33681e-18 0)
(0.0052386 -0.00118088 7.15573e-18 -0.0021438 -2.60209e-18 0)
(0.00547932 -0.000637084 3.25261e-18 -0.00276011 4.33681e-19 0)
(0.00479763 -0.000753753 1.73472e-18 -0.00192593 0 0)
(0.00502083 -0.000227443 1.30104e-18 -0.00227538 -1.73472e-18 0)
(0.00450434 -0.000410407 -4.33681e-19 -0.00184661 -8.67362e-19 0)
(0.00471387 0.000104658 -1.30104e-18 -0.00196356 -4.33681e-19 0)
(0.00429213 -0.000130468 -8.67362e-19 -0.00181471 1.73472e-18 0)
(0.00449044 0.000373562 -8.67362e-19 -0.00175904 4.33681e-19 0)
(0.00411907 0.000101478 -4.33681e-19 -0.00178711 8.67362e-19 0)
(0.00430991 0.000597087 -1.30104e-18 -0.00162726 1.30104e-18 0)
(0.00393471 0.000291248 0 -0.00172515 8.67362e-19 0)
(0.00871119 -0.00398608 -9.97466e-18 -0.00637485 -7.80626e-18 0)
(0.00693356 -0.00362666 -1.86483e-17 -0.00423384 -5.20417e-18 0)
(0.00730616 -0.00307223 -9.97466e-18 -0.00498654 -3.03577e-18 0)
(0.00564745 -0.00264356 -3.90313e-18 -0.00266206 -1.0842e-17 0)
(0.00598663 -0.00218738 1.73472e-18 -0.00369137 -9.54098e-18 0)
(0.00474535 -0.0018257 8.23994e-18 -0.00175364 -1.0842e-17 0)
(0.00503672 -0.00144902 5.63785e-18 -0.00274558 -6.07153e-18 0)
(0.00430664 -0.00123059 5.63785e-18 -0.0015234 -6.07153e-18 0)
(0.00453967 -0.000917125 4.77049e-18 -0.00223016 -4.33681e-18 0)
(0.00414319 -0.000816509 -8.67362e-19 -0.0015662 -1.73472e-18 0)
(0.00433918 -0.000531109 1.0842e-18 -0.00200641 4.33681e-19 0)
(0.0040846 -0.000515161 -4.33681e-19 -0.00166324 -1.73472e-18 0)
(0.00427083 -0.000221738 -2.1684e-19 -0.00192374 -4.33681e-19 0)
(0.00405651 -0.000271717 -1.73472e-18 -0.00176139 8.67362e-19 0)
(0.00424623 4.55785e-05 -1.73472e-18 -0.0018966 1.73472e-18 0)
(0.00401899 -6.0056e-05 4.33681e-19 -0.00183353 0 0)
(0.00421736 0.000284956 -1.51788e-18 -0.00188087 4.33681e-19 0)
(0.00394079 0.000128844 8.67362e-19 -0.00185737 -8.67362e-19 0)
(0.00414396 0.000492375 0 -0.00183379 -1.73472e-18 0)
(0.00383293 0.000294583 -4.33681e-19 -0.00184936 2.1684e-18 0)
(0.00620017 -0.00369129 -1.73472e-17 -0.00411442 -6.50521e-18 0)
(0.00427629 -0.00284857 -4.33681e-18 -0.00163389 -3.90313e-18 0)
(0.00475262 -0.00240394 -2.60209e-18 -0.00272331 -9.54098e-18 0)
(0.00349668 -0.0018306 9.1073e-18 -0.000959285 -4.77049e-18 0)
(0.00386186 -0.00150359 1.12757e-17 -0.00186968 -9.1073e-18 0)
(0.00334031 -0.00126076 4.77049e-18 -0.00108443 -3.46945e-18 0)
(0.00358758 -0.00101808 3.46945e-18 -0.00158558 -5.20417e-18 0)
(0.00339068 -0.000918348 0 -0.00125815 -1.73472e-18 0)
(0.00358436 -0.000714063 -8.67362e-19 -0.00157377 -2.60209e-18 0)
(0.00347541 -0.000665246 1.73472e-18 -0.0013947 -3.03577e-18 0)
(0.00365014 -0.000474387 -2.60209e-18 -0.00164387 -1.30104e-18 0)
(0.00356484 -0.000450681 1.73472e-18 -0.00152393 0 0)
(0.00373482 -0.000259324 8.67362e-19 -0.00173548 -2.1684e-18 0)
(0.00362826 -0.000258874 1.30104e-18 -0.00163455 -8.67362e-19 0)
(0.00380389 -5.40765e-05 4.33681e-19 -0.0018147 -1.73472e-18 0)
(0.00364105 -8.39075e-05 0 -0.00171229 -4.33681e-19 0)
(0.003826 0.000140803 -4.33681e-19 -0.00185302 4.33681e-19 0)
(0.00364161 7.82299e-05 0 -0.00178775 -8.67362e-19 0)
(0.0038232 0.000311173 -2.1684e-19 -0.00185912 -4.33681e-19 0)
(0.00358418 0.000213581 8.67362e-19 -0.00180034 -1.30104e-18 0)
(0.00362688 -0.0025095 0 -0.00180336 5.20417e-18 0)
(0.00255584 -0.00184447 -4.33681e-19 -0.000459363 3.90313e-18 0)
(0.00298043 -0.00153519 3.90313e-18 -0.00111543 1.30104e-18 0)
(0.00270546 -0.00138101 5.63785e-18 -0.000771343 1.30104e-18 0)
(0.0030102 -0.00113385 5.20417e-18 -0.00113293 1.73472e-18 0)
(0.00285571 -0.00108253 1.30104e-18 -0.000978914 3.46945e-18 0)
(0.00312407 -0.000857008 8.67362e-19 -0.00126322 1.73472e-18 0)
(0.00298725 -0.000837986 2.60209e-18 -0.00115811 -4.33681e-19 0)
(0.00322726 -0.000629271 2.1684e-18 -0.00138193 0 0)
(0.00310047 -0.000632328 4.33681e-19 -0.00131038 -4.33681e-19 0)
(0.00332551 -0.000431646 -8.67362e-19 -0.00149863 1.73472e-18 0)
(0.00319027 -0.00044845 1.30104e-18 -0.00143861 -1.73472e-18 0)
(0.00340249 -0.000255215 -8.67362e-19 -0.00159885 4.33681e-19 0)
(0.00325593 -0.000281342 1.30104e-18 -0.00154178 4.33681e-19 0)
(0.00344984 -9.97514e-05 -8.67362e-19 -0.00166636 1.73472e-18 0)
(0.00330541 -0.000134689 8.67362e-19 -0.00162112 -8.67362e-19 0)
(0.00349722 4.66742e-05 0 -0.00173683 -1.30104e-18 0)
(0.00331985 2.93746e-06 8.67362e-19 -0.00167756 -4.33681e-19 0)
(0.00349249 0.000173208 0 -0.00175116 8.67362e-19 0)
(0.0033186 0.000118229 4.33681e-19 -0.00170974 -4.33681e-19 0)
(0.00226042 -0.00170366 -2.60209e-18 -0.000526164 3.90313e-18 0)
(0.0020443 -0.00157969 -1.73472e-18 -0.000323218 3.46945e-18 0)
(0.00249606 -0.00130756 8.67362e-19 -0.000791832 1.73472e-18 0)
(0.00230173 -0.00123683 3.46945e-18 -0.000644286 1.30104e-18 0)
(0.00266691 -0.00101114 3.03577e-18 -0.00100264 1.73472e-18 0)
(0.00251447 -0.000975871 0 -0.000903661 4.33681e-19 0)
(0.00282684 -0.000774648 2.60209e-18 -0.00118101 1.73472e-18 0)
(0.00268904 -0.000766395 2.1684e-18 -0.00111544 2.60209e-18 0)
(0.00296672 -0.000578655 -8.67362e-19 -0.00133035 1.73472e-18 0)
(0.00282933 -0.000590875 4.33681e-19 -0.00128711 -4.33681e-19 0)
(0.00308453 -0.000409018 8.67362e-19 -0.00145134 0 0)
(0.00293796 -0.000438581 8.67362e-19 -0.00142373 0 0)
(0.00317626 -0.000259358 -4.33681e-19 -0.0015435 1.30104e-18 0)
(0.00301814 -0.000304432 0 -0.00152876 1.30104e-18 0)
(0.00324232 -0.000127588 1.73472e-18 -0.00161198 -8.67362e-19 0)
(0.00307244 -0.000184715 1.73472e-18 -0.00160561 -2.1684e-18 0)
(0.00328063 -1.19007e-05 -4.33681e-19 -0.00165226 4.33681e-19 0)
(0.00310605 -8.01422e-05 4.33681e-19 -0.00165704 0 0)
(0.00329635 8.58536e-05 4.33681e-19 -0.00167097 -4.33681e-19 0)
(0.00312453 9.44753e-06 8.67362e-19 -0.00168732 4.33681e-19 0)
(0.00168653 -0.00148264 -2.60209e-18 -0.000307812 2.60209e-18 0)
(0.00156239 -0.0013278 -8.67362e-19 -0.000141625 1.30104e-18 0)
(0.00202892 -0.00114855 1.73472e-18 -0.000650035 4.33681e-19 0)
(0.00191138 -0.00106642 -8.67362e-19 -0.000544184 2.60209e-18 0)
(0.00229932 -0.00090021 1.73472e-18 -0.000915598 0 0)
(0.00218416 -0.000866224 8.67362e-19 -0.000852048 4.33681e-19 0)
(0.00251896 -0.00070677 4.33681e-19 -0.00112465 1.73472e-18 0)
(0.00239901 -0.000706027 2.60209e-18 -0.00109048 -4.33681e-19 0)
(0.00269688 -0.000549248 4.33681e-19 -0.00128839 1.73472e-18 0)
(0.00256769 -0.000572914 -8.67362e-19 -0.00127536 -4.33681e-19 0)
(0.00283921 -0.000416113 3.46945e-18 -0.00141418 -1.95156e-18 0)
(0.00269815 -0.000459019 0 -0.00141719 4.33681e-19 0)
(0.00294965 -0.000300934 2.60209e-18 -0.00150732 -1.95156e-18 0)
(0.00279618 -0.000359747 2.60209e-18 -0.00152321 -4.33681e-19 0)
(0.003031 -0.000200072 -4.33681e-19 -0.00157123 -2.1684e-19 0)
(0.00286674 -0.000272838 1.73472e-18 -0.00159884 -8.67362e-19 0)
(0.00308636 -0.000112301 1.30104e-18 -0.00161023 -1.0842e-18 0)
(0.00291492 -0.000197033 0 -0.00164897 0 0)
(0.00312003 -3.68435e-05 0 -0.00162889 -1.0842e-18 0)
(0.00294694 -0.000131459 0 -0.00167886 -8.67362e-19 0)
(0.00110797 -0.00115757 8.67362e-19 -0.000149113 1.30104e-18 0)
(0.00114345 -0.00101211 -8.67362e-19 -4.83475e-05 8.67362e-19 0)
(0.00157289 -0.000938194 -2.60209e-18 -0.000551832 3.03577e-18 0)
(0.00155384 -0.000866102 1.73472e-18 -0.000493267 8.67362e-19 0)
(0.00192572 -0.000771905 3.46945e-18 -0.00085268 -6.50521e-19 0)
(0.00186908 -0.000749077 8.67362e-19 -0.000824506 0 0)
(0.002199 -0.00064055 -3.03577e-18 -0.00108005 6.50521e-19 0)
(0.00211436 -0.000652003 8.67362e-19 -0.0010742 0 0)
(0.00241274 -0.000532789 -4.33681e-19 -0.00125188 6.50521e-19 0)
(0.00230624 -0.000569042 2.60209e-18 -0.00126291 -8.67362e-19 0)
(0.00257995 -0.000441624 2.60209e-18 -0.00138007 -1.0842e-18 0)
(0.00245593 -0.000496623 -8.67362e-19 -0.00140437 4.33681e-19 0)
(0.00270926 -0.000362901 1.30104e-18 -0.00147275 0 0)
(0.00257109 -0.000432781 8.67362e-19 -0.00150805 0 0)
(0.00280689 -0.000294275 2.60209e-18 -0.00153609 -2.1684e-19 0)
(0.00265684 -0.000376347 2.60209e-18 -0.00158075 -2.1684e-19 0)
(0.00287788 -0.000234104 1.30104e-18 -0.00157555 0 0)
(0.00271657 -0.000326125 -1.73472e-18 -0.0016277 -2.1684e-19 0)
(0.00292711 -0.000180525 0 -0.00159709 -2.1684e-19 0)
(0.00275457 -0.000280146 8.67362e-19 -0.00165438 -2.1684e-19 0)
(0.000618036 -0.00076112 8.67362e-19 -9.38099e-05 0 0)
(0.000814089 -0.000663206 0 -5.47132e-05 0 0)
(0.00115831 -0.000687428 8.67362e-19 -0.000509951 -4.33681e-19 0)
(0.00124351 -0.000647138 8.67362e-19 -0.000493485 4.33681e-19 0)
(0.00156356 -0.000623309 1.73472e-18 -0.000816475 4.33681e-19 0)
(0.00157449 -0.00062408 1.73472e-18 -0.00081809 -6.50521e-19 0)
(0.00187342 -0.0005668 0 -0.00104398 8.67362e-19 0)
(0.00183307 -0.000596644 -8.67362e-19 -0.00105964 2.1684e-19 0)
(0.0021133 -0.000515913 -8.67362e-19 -0.00121292 8.67362e-19 0)
(0.00203755 -0.000565975 0 -0.00123915 6.50521e-19 0)
(0.00230027 -0.000469316 0 -0.00133747 8.67362e-19 0)
(0.00220125 -0.000532716 4.33681e-19 -0.00137127 0 0)
(0.00244613 -0.000426394 -8.67362e-19 -0.00142781 4.33681e-19 0)
(0.0023339 -0.00049722 2.1684e-18 -0.0014663 -4.33681e-19 0)
(0.00255936 -0.000386938 1.73472e-18 -0.00149155 -2.1684e-19 0)
(0.00244182 -0.000459192 -4.33681e-19 -0.00153117 -2.1684e-19 0)
(0.00264618 -0.000350387 8.67362e-19 -0.00153492 2.1684e-19 0)
(0.00252545 -0.000416102 1.73472e-18 -0.00156906 -2.1684e-19 0)
(0.00271193 -0.000313757 -1.73472e-18 -0.00156587 0 0)
(0.00256853 -0.000357271 -4.33681e-19 -0.00157626 4.33681e-19 0)
(0.000262163 -0.000337663 8.67362e-19 -0.000153873 2.1684e-19 0)
(0.00058607 -0.000316386 0 -0.000157718 2.1684e-19 0)
(0.000815153 -0.000413342 0 -0.000532721 -2.1684e-19 0)
(0.000989287 -0.000428439 0 -0.000547252 -2.1684e-19 0)
(0.00123308 -0.00045764 0 -0.00080956 4.33681e-19 0)
(0.00130079 -0.000502678 1.73472e-18 -0.000834542 -6.50521e-19 0)
(0.00155258 -0.000481213 2.60209e-18 -0.00101001 -4.33681e-19 0)
(0.00154203 -0.000550637 1.73472e-18 -0.00104475 -6.50521e-19 0)
(0.00179853 -0.000490066 8.67362e-19 -0.00115195 0 0)
(0.00172858 -0.000580051 0 -0.00119595 -2.1684e-19 0)
(0.00198815 -0.000488008 8.67362e-19 -0.00124759 -8.67362e-19 0)
(0.0018717 -0.000596663 1.73472e-18 -0.00130098 -4.33681e-19 0)
(0.00213333 -0.000477745 -8.67362e-19 -0.00130468 2.1684e-19 0)
(0.00197974 -0.000605532 -8.67362e-19 -0.00136877 6.50521e-19 0)
(0.00224173 -0.000461528 0 -0.0013264 -2.1684e-19 0)
(0.00205968 -0.000612793 8.67362e-19 -0.00140519 -2.1684e-19 0)
(0.00231633 -0.000441848 0 -0.00130846 2.1684e-19 0)
(0.00212078 -0.000630041 -8.67362e-19 -0.0014134 0 0)
(0.00235094 -0.000422979 4.33681e-19 -0.00122726 -4.33681e-19 0)
(0.00218721 -0.000688501 0 -0.00139409 -2.1684e-19 0)
(5.99163e-05 6.78539e-05 0 -0.000336194 0 0)
(0.00047463 -1.99899e-06 8.67362e-19 -0.000357161 -2.1684e-19 0)
(0.000571133 -0.000143759 8.67362e-19 -0.000640644 -2.1684e-19 0)
(0.00082177 -0.000225439 8.67362e-19 -0.000667021 0 0)
(0.000964182 -0.000293521 -2.60209e-18 -0.000862869 -6.50521e-19 0)
(0.00109426 -0.000387422 -8.67362e-19 -0.000894888 -4.33681e-19 0)
(0.00126789 -0.000399758 -8.67362e-19 -0.00102225 -2.1684e-19 0)
(0.00130868 -0.000505253 0 -0.00105996 0 0)
(0.00150344 -0.000475003 -3.46945e-18 -0.0011333 6.50521e-19 0)
(0.00147783 -0.000591472 -8.67362e-19 -0.00117681 4.33681e-19 0)
(0.00168634 -0.000528339 -1.73472e-18 -0.00120685 3.25261e-19 0)
(0.00161172 -0.000655587 0 -0.00125647 0 0)
(0.00182811 -0.000566961 -8.67362e-19 -0.00125122 0 0)
(0.00171867 -0.000705253 -1.73472e-18 -0.00130757 -2.1684e-19 0)
(0.0019379 -0.000597532 -4.33681e-18 -0.00127398 -1.0842e-19 0)
(0.00180637 -0.000746791 -1.73472e-18 -0.00133771 4.33681e-19 0)
(0.00202484 -0.00062812 8.67362e-19 -0.00128637 -3.25261e-19 0)
(0.00188246 -0.000783575 -1.73472e-18 -0.00135588 4.33681e-19 0)
(0.00210477 -0.000672406 0 -0.00131875 -1.0842e-19 0)
(0.00195121 -0.00080525 0 -0.00137863 -1.0842e-19 0)
(-4.51554e-06 0.000424607 8.67362e-19 -0.000623801 4.33681e-19 0)
(0.000464071 0.000256516 1.73472e-18 -0.000635591 -2.1684e-19 0)
(0.000428263 0.000102778 0 -0.000825054 -8.67362e-19 0)
(0.000730376 -5.20119e-05 -8.67362e-19 -0.000842878 -6.50521e-19 0)
(0.000767068 -0.000134938 -8.67362e-19 -0.000970079 0 0)
(0.000944372 -0.000281935 5.20417e-18 -0.000992949 -4.33681e-19 0)
(0.00103331 -0.00031137 2.60209e-18 -0.00107199 -9.75782e-19 0)
(0.00111719 -0.000454003 8.67362e-19 -0.00109925 4.33681e-19 0)
(0.00124347 -0.000443155 1.73472e-18 -0.00114113 4.33681e-19 0)
(0.00125772 -0.000583485 2.60209e-18 -0.0011723 2.1684e-19 0)
(0.00141031 -0.00054264 1.73472e-18 -0.00118584 1.0842e-19 0)
(0.00137316 -0.000681624 0 -0.0012205 -6.50521e-19 0)
(0.00154395 -0.000619232 -8.67362e-19 -0.00121337 -1.0842e-19 0)
(0.00146951 -0.000756474 0 -0.00125092 -4.33681e-19 0)
(0.00165303 -0.0006801 -2.60209e-18 -0.00123079 6.50521e-19 0)
(0.00155171 -0.000813069 -1.73472e-18 -0.00127002 2.1684e-19 0)
(0.00174555 -0.000729615 2.60209e-18 -0.00124504 -4.33681e-19 0)
(0.00162328 -0.000853258 -2.60209e-18 -0.00128369 1.0842e-19 0)
(0.00182779 -0.000764648 -8.67362e-19 -0.00125658 -1.0842e-19 0)
(0.00168575 -0.000878783 0 -0.00129374 -3.25261e-19 0)
(4.55514e-05 0.000707292 -1.73472e-18 -0.000992297 4.33681e-19 0)
(0.000532425 0.000440883 -8.67362e-19 -0.000969269 -2.1684e-19 0)
(0.000374842 0.000307452 8.67362e-19 -0.0010693 2.1684e-19 0)
(0.000700571 7.90698e-05 0 -0.00105855 4.33681e-19 0)
(0.000638152 6.81596e-06 0 -0.0011199 -1.0842e-19 0)
(0.00084184 -0.000193588 2.60209e-18 -0.00111821 -6.50521e-19 0)
(0.000849921 -0.000220208 0 -0.00115056 -1.0842e-19 0)
(0.000961308 -0.000399702 -1.73472e-18 -0.00115568 4.33681e-19 0)
(0.00102149 -0.000392518 1.73472e-18 -0.00116651 -3.25261e-19 0)
(0.00106321 -0.000555852 8.67362e-19 -0.00117683 -1.0842e-19 0)
(0.00116187 -0.000524041 3.46945e-18 -0.00117214 -2.1684e-19 0)
(0.00115109 -0.0006741 0 -0.00118642 0 0)
(0.00127831 -0.000624894 2.60209e-18 -0.00117121 -1.0842e-19 0)
(0.00122787 -0.000763048 0 -0.00118838 1.0842e-19 0)
(0.00137676 -0.000701984 0 -0.00116668 -1.0842e-19 0)
(0.00129577 -0.000828691 0 -0.00118578 -1.0842e-19 0)
(0.00146177 -0.000759331 3.46945e-18 -0.00116015 -3.79471e-19 0)
(0.00135625 -0.00087542 0 -0.00118036 -3.25261e-19 0)
(0.00153612 -0.000800027 0 -0.00115233 -1.6263e-19 0)
(0.00141024 -0.000906602 0 -0.00117306 -3.25261e-19 0)
(0.000182068 0.000897221 -8.67362e-19 -0.00141098 0 0)
(0.000653209 0.000539512 -8.67362e-19 -0.00132938 0 0)
(0.000392365 0.000456003 1.73472e-18 -0.00135094 4.33681e-19 0)
(0.00071444 0.000159322 3.46945e-18 -0.00129333 -3.25261e-19 0)
(0.000566913 0.000121669 8.67362e-19 -0.00129669 -1.0842e-19 0)
(0.000775581 -0.000128524 -8.67362e-19 -0.00125661 -1.0842e-19 0)
(0.00071301 -0.000132731 3.46945e-18 -0.0012472 -7.58942e-19 0)
(0.000835165 -0.00034702 0 -0.00122009 -2.1684e-19 0)
(0.000836458 -0.000326962 4.33681e-18 -0.00120187 -6.50521e-19 0)
(0.000892484 -0.000512926 8.67362e-19 -0.00118446 -1.0842e-19 0)
(0.000941955 -0.00047549 5.20417e-18 -0.00116046 -3.79471e-19 0)
(0.000947292 -0.000638494 -8.67362e-19 -0.00115038 -1.0842e-19 0)
(0.0010333 -0.000588815 -8.67362e-19 -0.00112286 -5.42101e-20 0)
(0.000999539 -0.000732718 -8.67362e-19 -0.00111832 1.0842e-19 0)
(0.00111347 -0.000674492 1.73472e-18 -0.00108885 -1.6263e-19 0)
(0.00104918 -0.000802297 1.73472e-18 -0.00108848 0 0)
(0.00118459 -0.000738113 -1.73472e-18 -0.00105808 -1.6263e-19 0)
(0.00109611 -0.000852283 -2.60209e-18 -0.00106081 -5.42101e-20 0)
(0.00124809 -0.000783913 8.67362e-19 -0.00103007 -3.25261e-19 0)
(0.00114022 -0.000886561 -1.73472e-18 -0.00103508 0 0)
(0.000374134 0.000983089 1.73472e-18 -0.00184459 -1.0842e-19 0)
(0.00079798 0.000548724 -8.67362e-19 -0.00168437 2.1684e-19 0)
(0.000459532 0.000539829 0 -0.00164487 4.33681e-19 0)
(0.000753328 0.000185672 -2.60209e-18 -0.00152507 5.42101e-19 0)
(0.000540176 0.000202634 -8.67362e-19 -0.00148355 2.1684e-19 0)
(0.000734479 -8.99814e-05 -4.33681e-18 -0.00139346 4.33681e-19 0)
(0.000615786 -5.49913e-05 0 -0.00135149 -3.25261e-19 0)
(0.000733483 -0.000299705 -8.67362e-19 -0.00128352 3.25261e-19 0)
(0.000686458 -0.000252287 -1.73472e-18 -0.00124213 2.1684e-19 0)
(0.000745008 -0.000459069 0 -0.00119083 -2.1684e-19 0)
(0.000752554 -0.000403349 -8.67362e-19 -0.00115075 2.1684e-19 0)
(0.000765448 -0.000579559 0 -0.00111217 -5.42101e-20 0)
(0.000814532 -0.000518601 0 -0.00107387 -1.0842e-19 0)
(0.000792094 -0.00066992 1.73472e-18 -0.00104506 -2.71051e-19 0)
(0.000872758 -0.000605852 0 -0.00100876 1.6263e-19 0)
(0.000822817 -0.000736794 -8.67362e-19 -0.000987453 -5.42101e-20 0)
(0.000927459 -0.000671003 -8.67362e-19 -0.000953151 -2.1684e-19 0)
(0.000855915 -0.000785189 1.73472e-18 -0.000937618 0 0)
(0.000978748 -0.000718549 2.60209e-18 -0.000905167 -5.42101e-20 0)
(0.000890052 -0.000818861 -8.67362e-19 -0.000894097 -5.42101e-20 0)
(0.000589609 0.000962188 -2.60209e-18 -0.00225567 2.1684e-19 0)
(0.000938859 0.000473743 -8.67362e-19 -0.00200308 2.1684e-19 0)
(0.000554822 0.000556274 1.73472e-18 -0.00192598 -1.0842e-19 0)
(0.000799743 0.000160475 8.67362e-19 -0.00173305 -1.0842e-19 0)
(0.000544657 0.000246148 -8.67362e-19 -0.00166444 -1.0842e-19 0)
(0.000707969 -7.83676e-05 2.60209e-18 -0.00151548 -2.71051e-19 0)
(0.000551267 8.40423e-06 -8.67362e-19 -0.00145407 0 0)
(0.000650614 -0.00026014 -4.33681e-18 -0.0013382 1.6263e-19 0)
(0.000569456 -0.000173931 1.73472e-18 -0.00128312 -1.0842e-19 0)
(0.000619739 -0.000397319 2.60209e-18 -0.00119276 -2.1684e-19 0)
(0.000595908 -0.000313554 2.60209e-18 -0.00114362 -5.42101e-20 0)
(0.000608749 -0.000500411 1.73472e-18 -0.00107299 -1.6263e-19 0)
(0.000628143 -0.000420189 2.60209e-18 -0.00102928 -1.35525e-19 0)
(0.000612354 -0.000577547 -8.67362e-19 -0.000973864 -5.42101e-20 0)
(0.00066419 -0.000501224 2.60209e-18 -0.000934937 -8.13152e-20 0)
(0.000626398 -0.000634818 -8.67362e-19 -0.000891257 -1.35525e-19 0)
(0.000702448 -0.000562229 -8.67362e-19 -0.000856361 -2.71051e-20 0)
(0.000647589 -0.000676695 0 -0.000821745 1.0842e-19 0)
(0.00074164 -0.000607369 2.60209e-18 -0.000790122 0 0)
(0.000673254 -0.000706292 8.67362e-19 -0.000762565 0 0)
(0.000797381 0.000841003 -2.60209e-18 -0.00260796 1.0842e-19 0)
(0.00105171 0.00032855 0 -0.00225897 0 0)
(0.000658358 0.00050764 -3.46945e-18 -0.00217216 1.6263e-19 0)
(0.000837677 8.92201e-05 0 -0.0019001 -1.0842e-19 0)
(0.000567751 0.000250828 -1.73472e-18 -0.00182513 5.42101e-20 0)
(0.000681655 -9.41374e-05 8.67362e-19 -0.00161011 -1.6263e-19 0)
(0.000511553 5.42217e-05 1.73472e-18 -0.00154435 -3.25261e-19 0)
(0.000578036 -0.000228761 -2.60209e-18 -0.00137566 -2.71051e-20 0)
(0.000482196 -9.57199e-05 1.73472e-18 -0.00131894 -2.43945e-19 0)
(0.000514111 -0.000328227 3.46945e-18 -0.00118655 -1.6263e-19 0)
(0.000473187 -0.000210277 3.46945e-18 -0.00113801 -2.98156e-19 0)
(0.000479403 -0.000402239 -1.73472e-18 -0.00103365 5.42101e-20 0)
(0.000479185 -0.000298004 3.46945e-18 -0.000992172 -1.6263e-19 0)
(0.000466097 -0.000457538 0 -0.000909379 -8.13152e-20 0)
(0.000495956 -0.000365244 2.60209e-18 -0.000873844 -1.0842e-19 0)
(0.000468388 -0.000499017 1.73472e-18 -0.000807594 -5.42101e-20 0)
(0.00052015 -0.000416669 0 -0.000776882 0 0)
(0.000481797 -0.000530335 -8.67362e-19 -0.000723201 -5.42101e-20 0)
(0.000549062 -0.00045562 8.67362e-19 -0.000696138 -1.35525e-20 0)
(0.000502522 -0.000553974 1.73472e-18 -0.00065189 -2.71051e-20 0)
(0.000970838 0.000632515 -8.67362e-19 -0.0028736 0 0)
(0.00112168 0.000130682 1.73472e-18 -0.00243689 -1.89735e-19 0)
(0.000752532 0.000395153 -2.60209e-18 -0.00236912 -1.0842e-19 0)
(0.000825157 -3.26882e-05 2.60209e-18 -0.00200467 -1.6263e-19 0)
(0.000591531 0.000216687 -8.67362e-19 -0.00194237 0 0)
(0.000632703 -0.000130164 1.73472e-18 -0.00165882 -1.89735e-19 0)
(0.000484802 8.38164e-05 -2.60209e-18 -0.00160609 -1.0842e-19 0)
(0.000506793 -0.000197851 1.73472e-18 -0.00138554 1.35525e-20 0)
(0.000419412 -1.7003e-05 -3.46945e-18 -0.00134151 1.21973e-19 0)
(0.000427062 -0.000247253 -2.60209e-18 -0.00116861 4.06576e-20 0)
(0.000384403 -9.45589e-05 0 -0.00113187 -2.71051e-20 0)
(0.000380654 -0.00028384 -8.67362e-19 -0.000995303 1.35525e-20 0)
(0.00037158 -0.000154783 0 -0.000964626 -6.77626e-20 0)
(0.000358857 -0.000311118 2.60209e-18 -0.000856075 -5.42101e-20 0)
(0.000374876 -0.000201999 1.73472e-18 -0.00083047 0 0)
(0.000355562 -0.000331905 -8.67362e-19 -0.000743577 -1.35525e-20 0)
(0.000389659 -0.000239546 -1.73472e-18 -0.000722192 2.03288e-20 0)
(0.000366364 -0.000349125 -3.46945e-18 -0.00065162 2.71051e-20 0)
(0.000412074 -0.000269898 -1.73472e-18 -0.000633506 2.71051e-20 0)
(0.000387808 -0.000366987 -2.60209e-18 -0.000573523 1.35525e-20 0)
(0.00109586 0.000319975 0 -0.00307789 -5.42101e-20 0)
(0.000941118 -0.000171661 0 -0.00246989 -2.71051e-20 0)
(0.000786928 0.00022725 8.67362e-19 -0.00243831 -5.42101e-20 0)
(0.000716777 -0.000155748 -1.73472e-18 -0.00200417 2.71051e-20 0)
(0.000588355 0.000164177 8.67362e-19 -0.00197883 2.71051e-20 0)
(0.00055602 -0.000149946 1.73472e-18 -0.0016468 0 0)
(0.000459368 0.00011291 8.67362e-19 -0.001626 0 0)
(0.000443287 -0.000147891 -1.73472e-18 -0.0013656 0 0)
(0.000378174 7.041e-05 0 -0.00134834 0 0)
(0.000367766 -0.000146722 0 -0.0011417 1.35525e-20 0)
(0.000331202 3.55258e-05 2.60209e-18 -0.00112733 1.35525e-20 0)
(0.000320988 -0.000145137 -8.67362e-19 -0.00096232 0 0)
(0.000309337 7.19463e-06 1.73472e-18 -0.000950332 -1.35525e-20 0)
(0.000296296 -0.000142544 -1.73472e-18 -0.000818286 4.06576e-20 0)
(0.000306213 -1.58369e-05 8.67362e-19 -0.000808345 0 0)
(0.000288654 -0.000138698 0 -0.00070311 0 0)
(0.000317241 -3.53324e-05 8.67362e-19 -0.000695032 -1.35525e-20 0)
(0.000294704 -0.000133626 -8.67362e-19 -0.000612746 -6.77626e-21 0)
(0.000338833 -5.45427e-05 -1.73472e-18 -0.000606599 1.35525e-20 0)
(0.000313391 -0.000127855 -8.67362e-19 -0.000546285 6.77626e-21 0)
(0.000420702 -0.000125747 8.67362e-19 -0.000546285 6.77626e-21 0)
(0.000408084 -4.32041e-05 -1.73472e-18 -0.00034915 6.77626e-21 0)
(0.000405205 -0.000353895 -2.60209e-18 -0.000570668 1.35525e-20 0)
(0.000492384 -0.000217191 0 -0.000369222 2.71051e-20 0)
(0.000486244 -0.000561834 1.73472e-18 -0.000654372 -2.71051e-20 0)
(0.000639242 -0.000373574 1.73472e-18 -0.00042305 -2.71051e-20 0)
(0.00063004 -0.000741573 0 -0.000779028 0 0)
(0.000835193 -0.000499739 0 -0.000502553 -1.0842e-19 0)
(0.000823567 -0.000884045 -8.67362e-19 -0.000933144 0 0)
(0.00106852 -0.000588833 0 -0.000599627 0 0)
(0.00105552 -0.000982155 1.73472e-18 -0.00110522 -5.42101e-20 0)
(0.00132711 -0.000637203 0 -0.000706162 -1.0842e-19 0)
(0.00131408 -0.00103119 1.73472e-18 -0.00128245 -1.6263e-19 0)
(0.00159836 -0.000644126 -1.73472e-18 -0.000814302 -1.0842e-19 0)
(0.00158684 -0.00102884 2.60209e-18 -0.00145011 -8.67362e-19 0)
(0.00186968 -0.000611582 -1.73472e-18 -0.000916963 0 0)
(0.00186113 -0.000974893 4.33681e-19 -0.00159012 -5.42101e-19 0)
(0.00212931 -0.000543614 -8.67362e-19 -0.00100848 4.33681e-19 0)
(0.00212488 -0.000869284 0 -0.00167506 0 0)
(0.00236735 -0.000444567 -4.33681e-19 -0.00108512 2.1684e-19 0)
(0.000445636 -0.000131991 8.67362e-19 -0.000355864 -6.77626e-21 0)
(0.000464406 -6.97794e-05 1.73472e-18 -0.000241302 0 0)
(0.000461887 -0.00034154 8.67362e-19 -0.000396927 -1.35525e-20 0)
(0.000543497 -0.000239488 -1.73472e-18 -0.000269688 1.35525e-20 0)
(0.000538099 -0.000542291 -1.73472e-18 -0.000483434 -5.42101e-20 0)
(0.000675422 -0.00039348 0 -0.000327037 -2.71051e-20 0)
(0.000667267 -0.000719395 0 -0.000608504 -6.77626e-20 0)
(0.000851271 -0.000520125 0 -0.000408283 0 0)
(0.000840888 -0.000863145 2.60209e-18 -0.000764218 -1.89735e-19 0)
(0.00106146 -0.000612269 3.46945e-18 -0.000506514 -5.42101e-20 0)
(0.00104974 -0.000966293 2.60209e-18 -0.000941291 -2.71051e-19 0)
(0.0012955 -0.000665781 0 -0.000614056 0 0)
(0.00128366 -0.00102384 -3.46945e-18 -0.00112889 -2.71051e-20 0)
(0.00154218 -0.000679313 -1.73472e-18 -0.000722983 1.0842e-19 0)
(0.00153159 -0.00103292 1.73472e-18 -0.00131455 0 0)
(0.00178983 -0.000654159 1.73472e-18 -0.000825546 0 0)
(0.00178188 -0.000992316 8.67362e-19 -0.00148363 0 0)
(0.00202642 -0.000593991 -1.73472e-18 -0.0009145 0 0)
(0.00202226 -0.000900438 8.67362e-19 -0.00161662 5.42101e-20 0)
(0.00223889 -0.000504342 -8.67362e-19 -0.000982981 -1.0842e-19 0)
(0.000514266 -0.000120732 0 -0.000245005 6.77626e-21 0)
(0.000538928 -7.81503e-05 1.73472e-18 -0.000180908 -3.38813e-21 0)
(0.000536718 -0.000316454 0 -0.00028616 8.47033e-21 0)
(0.000609132 -0.000241342 3.46945e-18 -0.000209775 -1.35525e-20 0)
(0.000604422 -0.000505409 -2.60209e-18 -0.000365129 1.35525e-20 0)
(0.0007232 -0.000390231 0 -0.000263951 -1.35525e-20 0)
(0.000716058 -0.000675437 -1.73472e-18 -0.000478813 6.77626e-21 0)
(0.000875575 -0.000515694 0 -0.000339855 -2.71051e-20 0)
(0.000866425 -0.000817725 -2.60209e-18 -0.000621823 5.42101e-20 0)
(0.00105914 -0.000611212 0 -0.000432056 2.71051e-20 0)
(0.00104873 -0.000925561 1.73472e-18 -0.000787253 5.42101e-20 0)
(0.00126566 -0.000672598 -1.73472e-18 -0.000534158 5.42101e-20 0)
(0.00125502 -0.000994099 -1.73472e-18 -0.0009668 -2.71051e-20 0)
(0.00148608 -0.000697955 -1.73472e-18 -0.000639284 0 0)
(0.00147642 -0.00102026 8.67362e-19 -0.00115076 -5.42101e-20 0)
(0.00171069 -0.000687659 -1.73472e-18 -0.000740452 -1.0842e-19 0)
(0.00170328 -0.00100247 1.73472e-18 -0.00132776 0 0)
(0.00192923 -0.00064426 1.73472e-18 -0.000830846 0 0)
(0.00192522 -0.000939479 2.1684e-18 -0.00148338 1.0842e-19 0)
(0.00213049 -0.000572232 8.67362e-19 -0.000903812 -5.42101e-20 0)
(0.0006005 -0.00010602 1.73472e-18 -0.000182868 0 0)
(0.000623589 -7.8993e-05 -1.73472e-18 -0.00015131 0 0)
(0.000621654 -0.000287643 8.67362e-19 -0.000219353 3.38813e-21 0)
(0.000683848 -0.000233301 1.73472e-18 -0.00017778 0 0)
(0.000679748 -0.000463024 -2.60209e-18 -0.000287598 1.69407e-20 0)
(0.000780533 -0.000375124 -1.73472e-18 -0.000226282 0 0)
(0.000774314 -0.000623314 -2.60209e-18 -0.000386023 2.03288e-20 0)
(0.000910106 -0.000497423 0 -0.000294138 -2.71051e-20 0)
(0.000902108 -0.000761213 -1.73472e-18 -0.000511072 1.35525e-20 0)
(0.0010675 -0.000594596 3.46945e-18 -0.000377228 -5.42101e-20 0)
(0.00105834 -0.000870889 2.60209e-18 -0.000657842 -1.35525e-20 0)
(0.00124658 -0.000662702 0 -0.000470516 -5.42101e-20 0)
(0.00123712 -0.000947947 0 -0.000820274 -5.42101e-20 0)
(0.00144039 -0.000699562 -1.73472e-18 -0.000568424 0 0)