/*--------------------------------*- C++ -*----------------------------------*\
| =========                 |                                                 |
| \\      /  F ield         | OpenFOAM: The Open Source CFD Toolbox           |
|  \\    /   O peration     | Version:  v2012                                 |
|   \\  /    A nd           | Website:  www.openfoam.com                      |
|    \\/     M anipulation  |                                                 |
\*---------------------------------------------------------------------------*/
FoamFile
{
    version     2.0;
    format      ascii;
    class       volScalarField;
    location    "10";
    object      epsilonEq;
}
// * * * * * * * * * * * * * * * * * * * * * * * * * * * * * * * * * * * * * //

dimensions      [0 0 0 0 0 0 0];


internalField   nonuniform List<scalar> 
2000
(
0.0129615
0.0122573
0.0119689
0.0111788
0.0108794
0.010032
0.00972818
0.00881195
0.00852232
0.00754406
0.00728969
0.00632171
0.00611352
0.00524099
0.00508229
0.00435483
0.004245
0.00366992
0.00360552
0.00316226
0.012448
0.0114779
0.0113
0.0101755
0.0101053
0.00881669
0.00883662
0.00743153
0.0075257
0.00617891
0.00630376
0.00517235
0.00528436
0.00442176
0.00450416
0.00388212
0.00393774
0.00350039
0.00353417
0.00324219
0.0115351
0.0100441
0.01006
0.00836353
0.00855906
0.00674194
0.00706811
0.00544439
0.0058035
0.0045924
0.00489818
0.00409177
0.00431872
0.00380188
0.00396456
0.00362434
0.00374616
0.00349937
0.00360901
0.00336654
0.00988203
0.00774061
0.007972
0.00577271
0.00617949
0.00441788
0.00485499
0.00376957
0.00412202
0.00353447
0.00379512
0.00346668
0.00366995
0.00345924
0.0036324
0.00345728
0.00362091
0.00342208
0.00358154
0.00336388
0.00735625
0.00482062
0.00517616
0.00343541
0.00379546
0.00303495
0.00327839
0.00297215
0.00316193
0.00299618
0.00317639
0.0030603
0.00324169
0.00312464
0.00331156
0.0031584
0.00334804
0.00319625
0.00336461
0.00317471
0.00431224
0.00283812
0.00302009
0.00264347
0.00279777
0.00261827
0.00278929
0.00265255
0.00282628
0.00271557
0.00289425
0.00278411
0.00296414
0.00284687
0.00301527
0.00290338
0.0030788
0.00293673
0.00308904
0.00295539
0.00260624
0.00235047
0.00249113
0.00228865
0.00248183
0.00233508
0.00254074
0.00242548
0.00262658
0.0025255
0.00271615
0.00261776
0.00279487
0.00269471
0.00285863
0.00275305
0.0028993
0.0027936
0.00292029
0.00281915
0.00211375
0.00188226
0.00208864
0.00193235
0.00217681
0.00206652
0.00230376
0.00221669
0.00243245
0.00235504
0.00254695
0.00247156
0.00264073
0.00256352
0.00271114
0.00263154
0.00275891
0.00267822
0.00278681
0.00270821
0.0015542
0.00140447
0.00167161
0.00158809
0.00186964
0.00181324
0.00206646
0.00201891
0.00223712
0.00219065
0.0023764
0.00232787
0.00248499
0.00243347
0.00256556
0.00251063
0.00262155
0.00256212
0.00265759
0.00259205
0.000985823
0.000949808
0.00126668
0.00127538
0.00157106
0.0015783
0.00182808
0.00182493
0.00203295
0.00201912
0.00219265
0.00217008
0.0023152
0.00228629
0.00240755
0.00237378
0.0024755
0.00243327
0.00252528
0.00245072
0.000459369
0.000581602
0.000917744
0.00102637
0.00129999
0.00137148
0.00159073
0.00163163
0.00180789
0.00182513
0.00196685
0.00196625
0.0020786
0.00206588
0.00214964
0.00213308
0.00218011
0.00217907
0.00215562
0.00223096
0.000258691
0.000481834
0.000719417
0.000899588
0.00110848
0.00123428
0.00140286
0.0014891
0.00162281
0.00168094
0.00178547
0.00182462
0.00190429
0.00193253
0.00199092
0.00201571
0.00205945
0.00208448
0.0021397
0.00214405
0.000641943
0.000702914
0.000745104
0.000911074
0.00101723
0.00116504
0.00126762
0.00138289
0.00146917
0.00155662
0.00162631
0.00169246
0.00174862
0.00179868
0.00184625
0.00188264
0.00192842
0.00194945
0.00199673
0.00200147
0.00106097
0.00101591
0.000935307
0.00102668
0.00102767
0.00115718
0.00118688
0.00130809
0.00134296
0.00144429
0.00147717
0.00155799
0.00158807
0.00165003
0.00167878
0.00172328
0.00175225
0.00178047
0.00181081
0.00182391
0.00144467
0.00132254
0.00117999
0.00118945
0.00111202
0.00119346
0.00115585
0.00125899
0.00124189
0.00134096
0.00133422
0.00141947
0.00141875
0.00148745
0.00149111
0.00154324
0.00155071
0.00158727
0.00159833
0.00162066
0.00178039
0.00159461
0.00142156
0.00135739
0.00123239
0.00125237
0.00116372
0.00122861
0.00116576
0.00124589
0.00120086
0.0012792
0.0012469
0.0013155
0.00129287
0.00134877
0.0013339
0.0013766
0.00136823
0.00139825
0.00205946
0.00181937
0.00163492
0.00150648
0.00135897
0.00131474
0.00119629
0.00120881
0.00111397
0.00115846
0.00108308
0.00114043
0.00108119
0.00113928
0.0010934
0.00114581
0.00111088
0.0011548
0.00112881
0.00116328
0.00227437
0.00198982
0.00180799
0.00162312
0.00147248
0.0013632
0.00123748
0.0011886
0.0010823
0.00107609
0.000986602
0.00100646
0.000932351
0.000965194
0.00090509
0.000942082
0.000894187
0.000930316
0.000892206
0.00092514
0.00242121
0.00210621
0.00193567
0.00168087
0.00155099
0.00137475
0.00126742
0.00115397
0.0010623
0.000995658
0.000916711
0.00088345
0.000816193
0.000805326
0.000749502
0.000752537
0.00070772
0.00071902
0.000683364
0.00070104
0.00252581
0.00204384
0.0019594
0.0016384
0.00156447
0.00133404
0.00127193
0.00110198
0.0010511
0.000924531
0.00088386
0.000789144
0.000758053
0.000686633
0.000665154
0.00061041
0.00059924
0.000556359
0.000556669
0.000523612
0.00057838
0.000440465
0.000698193
0.000558602
0.000926113
0.000753276
0.00118217
0.000970464
0.00143947
0.00118925
0.00168603
0.00140081
0.00191448
0.00160057
0.00211844
0.0017855
0.00229036
0.00195334
0.00241727
0.00210223
0.000488117
0.000421937
0.00063392
0.000552472
0.000860396
0.000744913
0.00111038
0.000954639
0.00136118
0.00116343
0.0016024
0.00136312
0.00182769
0.00154925
0.00203174
0.00171871
0.00220847
0.00186837
0.00234801
0.00199363
0.000468673
0.000441708
0.000605152
0.000564728
0.000812582
0.000742494
0.00104424
0.000937496
0.00127926
0.0011327
0.00150779
0.00132001
0.00172405
0.00149496
0.00192364
0.00165463
0.0021019
0.00179633
0.00225197
0.00191645
0.000488796
0.000482969
0.000603378
0.000590336
0.000784131
0.000748097
0.000991753
0.000924914
0.00120635
0.00110457
0.00141804
0.00127878
0.00162124
0.00144295
0.00181206
0.0015942
0.00198696
0.0017303
0.00214122
0.00184858
0.000530849
0.000536203
0.000622021
0.000626337
0.000774285
0.000762692
0.000955809
0.000919942
0.00114794
0.00108302
0.0013407
0.00124354
0.00152842
0.00139672
0.0017075
0.00153968
0.0018751
0.00167042
0.00202802
0.00178704
0.000584533
0.000595815
0.000655417
0.000670096
0.000780823
0.000785905
0.000936451
0.000923585
0.00110567
0.00106973
0.00127866
0.00121616
0.00144968
0.001358
0.0016152
0.00149229
0.00177279
0.00161716
0.00192023
0.00173122
0.000643927
0.000658317
0.000698723
0.000719097
0.000800647
0.000816395
0.000932074
0.000935467
0.00107901
0.00106492
0.00123228
0.00119715
0.00138617
0.0013273
0.00153717
0.00145238
0.00168304
0.00157059
0.00182212
0.00168078
0.000705515
0.000721369
0.00074803
0.00077105
0.000830368
0.000852309
0.000940169
0.000954346
0.00106626
0.00106787
0.00120047
0.00118606
0.00133738
0.00130434
0.0014735
0.00141973
0.00160668
0.00153043
0.00173555
0.00163542
0.000767041
0.000783273
0.000800302
0.000823956
0.000866751
0.000891634
0.000957855
0.000978501
0.00106503
0.00107719
0.00118135
0.00118187
0.00130185
0.00128831
0.00142321
0.00139366
0.0015433
0.00149614
0.00166087
0.00159474
0.000826896
0.000842676
0.000853185
0.000876085
0.00090692
0.000932401
0.000982226
0.00100601
0.00107266
0.0010912
0.00117257
0.00118311
0.00127761
0.00127799
0.00138467
0.00137318
0.00149172
0.00146694
0.00159751
0.00155825
0.000883791
0.000898407
0.0009048
0.000925914
0.000948409
0.000972766
0.00101055
0.00103493
0.00108644
0.00110803
0.00117161
0.0011881
0.00126235
0.00127191
0.00135588
0.00135704
0.00145027
0.00144183
0.00154428
0.00152525
0.000936587
0.000949371
0.000953562
0.000972052
0.000989096
0.00101102
0.00104034
0.00106336
0.00110377
0.00112575
0.00117589
0.00119502
0.00125365
0.00126843
0.00133461
0.00134382
0.00141699
0.00141965
0.00149958
0.00149488
0.000984184
0.000994467
0.000998047
0.00101317
0.00102711
0.00104553
0.00106935
0.00108948
0.00112218
0.00114248
0.00118291
0.00120202
0.00124906
0.00126582
0.00131855
0.001332
0.00138977
0.00139911
0.00146157
0.00146613
0.00102544
0.00103252
0.00103687
0.0010479
0.0010607
0.00107472
0.0010955
0.0011115
0.00113938
0.00115635
0.00119027
0.00120727
0.00124619
0.00126237
0.00130539
0.00132
0.00136646
0.00137887
0.00142831
0.00143797
0.00105911
0.00106222
0.00106861
0.00107478
0.00108816
0.00109691
0.00111679
0.00112761
0.00115314
0.00116548
0.00119565
0.00120892
0.00124273
0.00125635
0.00129292
0.00130633
0.00134497
0.00135767
0.00139789
0.00140941
0.00108378
0.00108201
0.00109166
0.00109208
0.00110763
0.00111023
0.00113114
0.00113586
0.00116126
0.00116794
0.00119682
0.00120517
0.00123651
0.00124616
0.00127908
0.00128962
0.00132343
0.00133445
0.00136866
0.00137974
0.00109783
0.00109003
0.00110411
0.00109768
0.00111694
0.00111242
0.00113623
0.00113408
0.00116143
0.00116178
0.00119158
0.00119427
0.0012255
0.00123031
0.00126208
0.00126873
0.00130031
0.0013085
0.00133939
0.00134874
0.00109941
0.00108387
0.00110351
0.00108862
0.00111327
0.0011007
0.00112931
0.00112002
0.00115125
0.00114504
0.00117784
0.00117459
0.00120793
0.00120759
0.00124051
0.00124299
0.00127468
0.00127976
0.00130964
0.00131705
0.00108667
0.00105979
0.00108623
0.00106035
0.00109257
0.0010728
0.00110765
0.00109176
0.00112846
0.00111602
0.00115367
0.00114482
0.00118235
0.0011773
0.00121362
0.0012125
0.00124656
0.00124933
0.00128031
0.00128673
0.00105809
0.00100536
0.00104339
0.00101406
0.00105293
0.00102806
0.00106932
0.0010479
0.00109104
0.00107345
0.0011175
0.00110428
0.00114802
0.00113974
0.00118177
0.00117898
0.00121777
0.00122081
0.00125483
0.00126285
0.00249779
0.00236022
0.00253358
0.00242457
0.00256067
0.00247398
0.00258298
0.00251334
0.00260211
0.00254545
0.00261873
0.00257205
0.00263317
0.00259442
0.0026457
0.00261357
0.0026566
0.0026304
0.00266626
0.00264583
0.00267521
0.00266083
0.00268421
0.00267653
0.00269427
0.00269423
0.0027067
0.00271542
0.00272312
0.00274182
0.00274549
0.00277536
0.00277607
0.00281808
0.00281737
0.002872
0.00287201
0.00293856
0.00294231
0.00301824
0.00228456
0.00220806
0.00233927
0.00226449
0.00238475
0.0023147
0.00242263
0.00235864
0.00245455
0.00239709
0.00248187
0.00243105
0.00250576
0.00246155
0.00252718
0.00248956
0.00254703
0.00251607
0.00256615
0.00254204
0.00258545
0.0025685
0.00260589
0.00259654
0.00262856
0.00262735
0.00265467
0.0026622
0.00268561
0.00270248
0.00272291
0.00274971
0.00276824
0.0028055
0.00282338
0.00287169
0.00289017
0.0029506
0.0029715
0.00305133
0.00217262
0.00209804
0.00221787
0.00214652
0.00225955
0.00219228
0.00229736
0.00223493
0.0023316
0.00227459
0.00236285
0.00231163
0.00239178
0.00234664
0.00241914
0.00238029
0.00244567
0.00241333
0.00247217
0.00244657
0.00249945
0.00248084
0.0025284
0.00251707
0.00255995
0.00255621
0.00259511
0.00259928
0.00263494
0.00264734
0.00268059
0.00270153
0.00273329
0.00276301
0.00279433
0.00283298
0.00286512
0.00291252
0.00295171
0.00299984
0.00207835
0.00200254
0.00211888
0.00204771
0.00215749
0.00209107
0.00219403
0.0021326
0.00222861
0.00217243
0.00226152
0.00221081
0.00229315
0.00224813
0.00232402
0.00228486
0.0023547
0.00232156
0.00238579
0.00235884
0.00241796
0.00239734
0.0024519
0.00243777
0.00248836
0.00248086
0.00252811
0.00252738
0.00257195
0.00257812
0.00262071
0.00263387
0.00267526
0.00269545
0.00273644
0.0027636
0.00280505
0.00283904
0.00288132
0.00292369
0.0019905
0.00191738
0.00202972
0.0019613
0.00206737
0.00200367
0.00210355
0.00204465
0.00213843
0.00208443
0.00217225
0.00212329
0.00220533
0.00216151
0.00223804
0.00219948
0.00227081
0.00223761
0.00230412
0.00227635
0.00233845
0.00231621
0.00237436
0.00235769
0.0024124
0.00240137
0.00245314
0.00244779
0.00249719
0.00249755
0.00254515
0.00255125
0.00259766
0.00260949
0.00265532
0.00267292
0.00271879
0.00274224
0.002789
0.00281808
0.00190835
0.00184158
0.00194747
0.00188475
0.00198506
0.00192646
0.00202132
0.0019669
0.00205645
0.00200631
0.00209069
0.00204492
0.00212432
0.00208299
0.00215764
0.00212081
0.00219099
0.00215872
0.00222471
0.00219706
0.00225921
0.00223619
0.00229488
0.00227652
0.00233216
0.00231846
0.00237147
0.00236243
0.00241328
0.00240886
0.00245805
0.00245822
0.00250625
0.00251096
0.00255839
0.00256755
0.00261499
0.00262846
0.00267655
0.00269416
0.00183248
0.00177436
0.00187154
0.00181656
0.00190905
0.00185733
0.00194522
0.00189687
0.00198024
0.00193536
0.00201434
0.00197302
0.00204774
0.00201005
0.0020807
0.00204669
0.00211347
0.00208319
0.00214634
0.00211981
0.0021796
0.00215684
0.00221358
0.00219456
0.00224858
0.00223328
0.00228496
0.00227332
0.00232305
0.00231501
0.00236321
0.00235868
0.00240583
0.00240468
0.00245128
0.00245335
0.00249996
0.00250505
0.00255226
0.00256015
0.00176333
0.00171488
0.00180184
0.00175559
0.0018388
0.00179492
0.00187437
0.001833
0.00190873
0.00186998
0.00194205
0.00190603
0.00197451
0.0019413
0.00200633
0.00197598
0.00203769
0.00201024
0.00206882
0.00204429
0.00209995
0.00207832
0.0021313
0.00211256
0.00216314
0.00214722
0.00219572
0.00218254
0.0022293
0.00221875
0.00226417
0.00225612
0.00230061
0.00229488
0.00233894
0.00233532
0.00237947
0.00237771
0.00242255
0.00242234
0.00170105
0.00166226
0.00173834
0.00170092
0.00177411
0.00173824
0.00180847
0.00177431
0.00184155
0.00180923
0.00187348
0.00184312
0.00190441
0.00187608
0.00193447
0.00190825
0.00196383
0.00193973
0.00199264
0.00197068
0.00202108
0.00200124
0.0020493
0.00203154
0.00207751
0.00206175
0.0021059
0.00209203
0.00213466
0.00212254
0.00216402
0.00215348
0.00219421
0.00218504
0.00222547
0.00221741
0.00225807
0.00225082
0.0022923
0.00228551
0.00164548
0.00161559
0.00168089
0.00165169
0.00171483
0.0016865
0.00174738
0.00172009
0.00177863
0.00175251
0.00180866
0.00178382
0.00183757
0.00181409
0.00186545
0.00184339
0.00189241
0.0018718
0.00191856
0.0018994
0.00194401
0.00192628
0.00196889
0.00195252
0.00199332
0.00197823
0.00201745
0.0020035
0.00204142
0.00202844
0.00206539
0.00205319
0.00208955
0.00207787
0.00211409
0.00210264
0.00213923
0.00212767
0.00216521
0.00215315
0.00159612
0.00157388
0.00162907
0.00160701
0.00166066
0.00163895
0.00169092
0.00166972
0.00171989
0.00169932
0.00174763
0.00172779
0.00177418
0.00175515
0.0017996
0.00178143
0.00182395
0.00180666
0.00184729
0.00183087
0.00186969
0.00185411
0.00189122
0.0018764
0.00191195
0.0018978
0.00193199
0.00191834
0.00195142
0.00193809
0.00197035
0.0019571
0.00198891
0.00197547
0.00200725
0.00199328
0.00202554
0.00201067
0.00204399
0.00202779
0.00155214
0.00153603
0.00158223
0.00156595
0.00161108
0.00159478
0.00163871
0.00162252
0.00166511
0.00164915
0.00169031
0.00167467
0.00171432
0.00169906
0.00173716
0.00172232
0.00175884
0.00174444
0.00177939
0.00176541
0.00179883
0.00178523
0.00181719
0.00180388
0.0018345
0.00182135
0.00185078
0.00183764
0.00186609
0.00185274
0.00188047
0.00186665
0.00189401
0.00187941
0.00190679
0.00189104
0.00191894
0.00190164
0.00193061
0.00191128
0.00151249
0.00150091
0.00153947
0.0015275
0.00156537
0.00155315
0.00159018
0.00157781
0.00161387
0.00160146
0.00163644
0.00162405
0.00165787
0.00164557
0.00167815
0.00166596
0.00169727
0.00168519
0.0017152
0.00170322
0.00173193
0.00172
0.00174745
0.00173546
0.00176173
0.00174955
0.00177475
0.0017622
0.0017865
0.00177334
0.00179697
0.00178293
0.00180617
0.0017909
0.00181413
0.00179724
0.0018209
0.00180193
0.00182659
0.00180502
0.00147595
0.00146735
0.00149974
0.00149069
0.00152265
0.00151323
0.00154462
0.00153492
0.00156562
0.00155572
0.00158561
0.00157557
0.00160458
0.00159443
0.00162247
0.00161224
0.00163925
0.00162893
0.00165486
0.00164443
0.00166927
0.00165866
0.0016824
0.00167151
0.00169418
0.00168287
0.00170455
0.00169263
0.00171343
0.00170065
0.00172074
0.0017068
0.00172641
0.00171095
0.00173038
0.00171296
0.00173263
0.00171275
0.00173317
0.00171024
0.00144127
0.00143436
0.00146202
0.00145469
0.00148205
0.00147437
0.00150133
0.00149335
0.00151981
0.00151158
0.00153744
0.00152901
0.00155418
0.00154556
0.00156998
0.00156118
0.00158477
0.00157578
0.00159848
0.00158926
0.00161104
0.00160152
0.00162234
0.00161242
0.00163227
0.00162181
0.00164071
0.00162952
0.00164751
0.00163534
0.00165253
0.00163906
0.00165559
0.00164045
0.00165655
0.00163925
0.00165525
0.00163525
0.00165157
0.00162821
0.00140745
0.00140132
0.00142547
0.00141907
0.00144296
0.00143634
0.00145988
0.00145306
0.00147618
0.00146918
0.0014918
0.00148463
0.0015067
0.00149935
0.0015208
0.00151327
0.00153405
0.00152629
0.00154634
0.00153832
0.0015576
0.00154922
0.00156768
0.00155886
0.00157646
0.00156705
0.00158375
0.00157357
0.00158935
0.00157817
0.00159304
0.00158054
0.00159455
0.00158035
0.0015936
0.00157722
0.00158989
0.00157073
0.00158312
0.00156046
0.00137394
0.00136821
0.00138981
0.00138413
0.00140532
0.0013997
0.00142043
0.00141485
0.00143509
0.00142951
0.00144923
0.00144362
0.00146278
0.0014571
0.0014757
0.00146989
0.0014879
0.00148191
0.00149931
0.00149305
0.00150981
0.0015032
0.00151929
0.00151221
0.00152757
0.0015199
0.00153446
0.00152602
0.00153973
0.0015303
0.00154307
0.00153237
0.00154414
0.00153182
0.00154254
0.00152814
0.00153778
0.00152073
0.00152937
0.0015089
0.00134103
0.00133607
0.00135569
0.00135135
0.00137014
0.00136636
0.00138433
0.00138098
0.00139814
0.00139512
0.00141151
0.00140873
0.00142438
0.00142173
0.0014367
0.00143408
0.00144841
0.00144571
0.00145942
0.00145653
0.00146966
0.00146644
0.00147901
0.00147531
0.00148731
0.00148297
0.00149438
0.00148923
0.00149997
0.00149381
0.00150378
0.00149636
0.00150543
0.00149646
0.00150442
0.00149356
0.00150017
0.00148694
0.00149195
0.00147572
0.00131035
0.00130767
0.00132541
0.00132435
0.00134033
0.00134043
0.00135486
0.00135592
0.00136891
0.00137081
0.00138246
0.00138508
0.00139548
0.00139867
0.00140793
0.00141152
0.00141976
0.00142354
0.00143089
0.00143465
0.00144126
0.00144476
0.00145077
0.00145376
0.00145929
0.00146153
0.0014667
0.00146792
0.00147279
0.00147277
0.00147733
0.00147582
0.00148001
0.0014768
0.00148041
0.0014753
0.00147799
0.0014708
0.00147201
0.00146255
0.00128582
0.00128968
0.00130447
0.00130937
0.00132164
0.00132835
0.00133799
0.00134671
0.00135371
0.0013644
0.00136881
0.00138129
0.00138324
0.00139727
0.00139692
0.00141218
0.00140976
0.00142589
0.00142166
0.00143825
0.00143254
0.00144912
0.0014423
0.00145839
0.00145086
0.00146594
0.00145812
0.00147166
0.00146399
0.00147547
0.00146838
0.00147732
0.00147116
0.00147719
0.0014722
0.00147513
0.00147133
0.00147128
0.00146838
0.00146609
0.00310913
0.00299123
0.00293233
0.00285104
0.00280174
0.00271722
0.00268459
0.00261115
0.00258219
0.00251489
0.00248954
0.00242308
0.00240289
0.00233499
0.00232009
0.00224962
0.00223952
0.00216529
0.0021596
0.00208047
0.00207882
0.0019937
0.00199571
0.00190345
0.00190879
0.00180815
0.00181654
0.00170613
0.00171734
0.00159561
0.00160943
0.00147466
0.0014909
0.00134122
0.00135956
0.00119322
0.00121291
0.00102904
0.00104818
0.000849595
0.00325435
0.00316231
0.00314681
0.00302957
0.00301678
0.00293426
0.00291912
0.00283556
0.0028255
0.00272032
0.0027284
0.00261801
0.00263249
0.00252529
0.00253958
0.00243188
0.00244804
0.00233879
0.0023568
0.00224494
0.0022646
0.00214899
0.00217004
0.0020496
0.00207157
0.00194542
0.00196754
0.00183513
0.00185611
0.0017175
0.00173529
0.0015915
0.00160283
0.00145663
0.00145622
0.00131345
0.00129274
0.00116486
0.0011097
0.0010184
0.00343065
0.00332772
0.0033402
0.00324535
0.0032729
0.00314056
0.00318052
0.00301523
0.00305851
0.0029353
0.00295916
0.00284185
0.00287039
0.00273087
0.00277488
0.00263877
0.00267926
0.00254829
0.00258337
0.00245571
0.00248587
0.00235999
0.00238548
0.00226018
0.0022809
0.00215547
0.00217085
0.00204512
0.002054
0.00192862
0.00192904
0.00180574
0.00179478
0.00167682
0.00165029
0.00154316
0.00149528
0.00140761
0.00133067
0.00127552
0.00347954
0.00334245
0.00343474
0.0032893
0.00336672
0.00322344
0.00327562
0.00315802
0.00322201
0.00305629
0.00313366
0.00296663
0.00302516
0.00289285
0.00294206
0.00280458
0.00285655
0.00272913
0.00276813
0.00264813
0.00267599
0.00256173
0.00257948
0.00246996
0.00247804
0.0023728
0.00237113
0.0022703
0.00225828
0.00216264
0.00213914
0.00205031
0.00201362
0.00193437
0.00188207
0.00181678
0.00174562
0.00170101
0.00160673
0.00159301
0.00332544
0.00318878
0.00331383
0.00317697
0.00328714
0.00315026
0.00325377
0.00310308
0.00318563
0.00305221
0.00312949
0.00299715
0.00307705
0.00295112
0.00300625
0.00289995
0.00294787
0.00284467
0.00287976
0.0027813
0.0028036
0.00271082
0.00272048
0.00263403
0.00263114
0.00255158
0.00253615
0.00246419
0.00243608
0.00237272
0.00233163
0.00227837
0.00222387
0.00218292
0.00211454
0.00208908
0.00200643
0.00200089
0.0019041
0.00192436
0.00310166
0.00297866
0.00311187
0.00298686
0.00310815
0.00298753
0.00308826
0.00298349
0.00306524
0.00297543
0.00304098
0.00296371
0.00302642
0.00294438
0.00299868
0.00291815
0.00296405
0.00288318
0.0029177
0.00284013
0.00286167
0.00278979
0.00279755
0.00273303
0.00272674
0.00267082
0.00265052
0.00260427
0.00257026
0.00253476
0.00248756
0.00246403
0.00240448
0.00239446
0.00232384
0.00232921
0.00224958
0.00227258
0.00218714
0.00223026
0.00293305
0.00284381
0.00294955
0.00286596
0.00296043
0.00288307
0.00296658
0.00289533
0.00296907
0.00290271
0.00296849
0.00290471
0.00296352
0.00290062
0.0029521
0.00288975
0.00293195
0.00287188
0.00290297
0.00284718
0.00286581
0.00281614
0.00282148
0.00277953
0.00277126
0.00273836
0.00271665
0.00269395
0.0026594
0.00264793
0.00260167
0.00260239
0.00254612
0.00255996
0.00249617
0.00252399
0.00245612
0.00249861
0.00243138
0.00248887
0.00281444
0.0027344
0.00283886
0.00276644
0.00285828
0.0027924
0.002873
0.00281288
0.00288336
0.00282821
0.00288952
0.00283848
0.00289123
0.00284361
0.00288772
0.00284343
0.00287817
0.00283788
0.0028623
0.00282711
0.00284033
0.00281152
0.00281297
0.00279181
0.00278133
0.00276901
0.00274692
0.00274449
0.00271166
0.00272001
0.00267792
0.00269782
0.00264865
0.00268064
0.00262742
0.00267178
0.00261853
0.00267508
0.00262691
0.00269484
0.00269789
0.00262525
0.00273219
0.00266861
0.00276013
0.00270282
0.00278208
0.00273001
0.00279859
0.0027514
0.00281018
0.00276775
0.00281718
0.00277951
0.00281967
0.00278696
0.0028176
0.00279032
0.00281103
0.00278992
0.00280029
0.00278623
0.00278607
0.00277999
0.00276943
0.00277225
0.00275187
0.00276442
0.00273534
0.00275831
0.00272227
0.00275621
0.00271567
0.00276092
0.00271911
0.00277575
0.00273679
0.00280453
0.00277344
0.00285124
0.002574
0.00256118
0.00262846
0.00260156
0.00266828
0.0026325
0.00269741
0.00265772
0.00271861
0.00267879
0.00273375
0.00269645
0.00274411
0.00271106
0.00275047
0.00272288
0.00275337
0.00273216
0.00275326
0.00273926
0.00275068
0.0027447
0.00274641
0.00274921
0.00274154
0.00275385
0.00273754
0.00276002
0.00273633
0.0027695
0.00274028
0.0027845
0.00275227
0.00280774
0.00277576
0.00284249
0.00281482
0.00289304
0.00287463
0.00296596
)
;

boundaryField
{
    back
    {
        type            empty;
    }
    front
    {
        type            empty;
    }
    left
    {
        type            calculated;
        value           nonuniform List<scalar> 
30
(
0.0129615
0.0119689
0.0108794
0.00972818
0.00852232
0.00728969
0.00611352
0.00508229
0.004245
0.00360552
0.00310913
0.00293233
0.00280174
0.00268459
0.00258219
0.00248954
0.00240289
0.00232009
0.00223952
0.0021596
0.00207882
0.00199571
0.00190879
0.00181654
0.00171734
0.00160943
0.0014909
0.00135956
0.00121291
0.00104818
)
;
    }
    hole
    {
        type            calculated;
        value           nonuniform List<scalar> 
20
(
0.0129615
0.012448
0.0115351
0.00988203
0.00735625
0.00431224
0.00260624
0.00211375
0.0015542
0.000985823
0.000459369
0.000258691
0.000641943
0.00106097
0.00144467
0.00178039
0.00205946
0.00227437
0.00242121
0.00252581
)
;
    }
    down
    {
        type            calculated;
        value           nonuniform List<scalar> 
30
(
0.00204384
0.0016384
0.00133404
0.00110198
0.000924531
0.000789144
0.000686633
0.00061041
0.000556359
0.000523612
0.00057838
0.000488117
0.000468673
0.000488796
0.000530849
0.000584533
0.000643927
0.000705515
0.000767041
0.000826896
0.000883791
0.000936587
0.000984184
0.00102544
0.00105911
0.00108378
0.00109783
0.00109941
0.00108667
0.00105809
)
;
    }
    right
    {
        type            calculated;
        value           nonuniform List<scalar> 
30
(
0.00100536
0.00101406
0.00102806
0.0010479
0.00107345
0.00110428
0.00113974
0.00117898
0.00122081
0.00126285
0.00128968
0.00130937
0.00132835
0.00134671
0.0013644
0.00138129
0.00139727
0.00141218
0.00142589
0.00143825
0.00144912
0.00145839
0.00146594
0.00147166
0.00147547
0.00147732
0.00147719
0.00147513
0.00147128
0.00146609
)
;
    }
    up
    {
        type            calculated;
        value           nonuniform List<scalar> 
30
(
0.00301824
0.00305133
0.00299984
0.00292369
0.00281808
0.00269416
0.00256015
0.00242234
0.00228551
0.00215315
0.00202779
0.00191128
0.00180502
0.00171024
0.00162821
0.00156046
0.0015089
0.00147572
0.00146255
0.00146609
0.000849595
0.0010184
0.00127552
0.00159301
0.00192436
0.00223026
0.00248887
0.00269484
0.00285124
0.00296596
)
;
    }
}


// ************************************************************************* //
