/*--------------------------------*- C++ -*----------------------------------*\
| =========                 |                                                 |
| \\      /  F ield         | OpenFOAM: The Open Source CFD Toolbox           |
|  \\    /   O peration     | Version:  v2012                                 |
|   \\  /    A nd           | Website:  www.openfoam.com                      |
|    \\/     M anipulation  |                                                 |
\*---------------------------------------------------------------------------*/
FoamFile
{
    version     2.0;
    format      ascii;
    class       volScalarField;
    location    "10";
    object      sigmaHyd;
}
// * * * * * * * * * * * * * * * * * * * * * * * * * * * * * * * * * * * * * //

dimensions      [1 -1 -2 0 0 0 0];


internalField   nonuniform List<scalar> 
2000
(
1.47914e+08
1.3612e+08
1.64753e+08
1.49788e+08
1.79927e+08
1.61739e+08
1.93083e+08
1.72818e+08
2.03792e+08
1.82142e+08
2.11175e+08
1.87032e+08
2.13975e+08
1.86027e+08
2.11293e+08
1.7994e+08
2.0345e+08
1.70797e+08
1.9174e+08
1.60515e+08
1.5318e+08
1.41511e+08
1.6024e+08
1.60466e+08
1.68125e+08
1.76331e+08
1.75051e+08
1.8827e+08
1.80402e+08
1.9243e+08
1.84431e+08
1.87715e+08
1.86567e+08
1.77321e+08
1.86077e+08
1.65121e+08
1.82865e+08
1.53588e+08
1.77601e+08
1.43988e+08
1.47806e+08
1.50374e+08
1.50023e+08
1.71381e+08
1.52424e+08
1.86263e+08
1.54253e+08
1.89137e+08
1.56377e+08
1.8053e+08
1.58621e+08
1.67516e+08
1.60152e+08
1.55034e+08
1.60435e+08
1.44516e+08
1.59332e+08
1.36031e+08
1.56488e+08
1.28891e+08
1.36287e+08
1.57484e+08
1.35312e+08
1.74148e+08
1.3389e+08
1.74517e+08
1.3365e+08
1.62356e+08
1.34721e+08
1.50324e+08
1.36079e+08
1.41246e+08
1.36914e+08
1.33882e+08
1.37062e+08
1.27485e+08
1.36295e+08
1.21533e+08
1.3476e+08
1.15708e+08
1.21669e+08
1.5414e+08
1.18377e+08
1.48014e+08
1.1621e+08
1.31593e+08
1.16783e+08
1.24397e+08
1.17285e+08
1.21374e+08
1.17033e+08
1.19053e+08
1.16628e+08
1.163e+08
1.16036e+08
1.12511e+08
1.1509e+08
1.08142e+08
1.14571e+08
1.04058e+08
1.06372e+08
1.22294e+08
1.08791e+08
1.12823e+08
1.09507e+08
1.0948e+08
1.08549e+08
1.067e+08
1.07644e+08
1.04422e+08
1.06568e+08
1.0218e+08
1.05213e+08
9.99922e+07
1.04036e+08
9.82498e+07
1.02689e+08
9.58004e+07
1.01577e+08
9.38505e+07
1.01165e+08
1.00396e+08
9.94136e+07
9.66841e+07
9.70819e+07
9.39641e+07
9.60069e+07
9.17933e+07
9.54549e+07
8.99625e+07
9.52691e+07
8.83301e+07
9.52447e+07
8.68808e+07
9.51029e+07
8.5565e+07
9.49885e+07
8.45261e+07
9.48139e+07
8.38375e+07
8.0425e+07
8.28778e+07
8.04347e+07
7.97533e+07
8.07174e+07
7.77067e+07
8.13348e+07
7.63309e+07
8.21618e+07
7.53855e+07
8.31264e+07
7.47229e+07
8.41359e+07
7.42565e+07
8.51534e+07
7.39613e+07
8.6108e+07
7.38473e+07
8.69829e+07
7.39714e+07
5.59334e+07
6.38811e+07
5.95619e+07
6.18666e+07
6.25941e+07
6.09333e+07
6.52723e+07
6.06759e+07
6.77171e+07
6.08612e+07
6.99931e+07
6.1341e+07
7.21299e+07
6.20104e+07
7.413e+07
6.2772e+07
7.59693e+07
6.35171e+07
7.75842e+07
6.41773e+07
3.05799e+07
4.42969e+07
3.78208e+07
4.37514e+07
4.35798e+07
4.41235e+07
4.83836e+07
4.51169e+07
5.25224e+07
4.65735e+07
5.61633e+07
4.84155e+07
5.9402e+07
5.06097e+07
6.22888e+07
5.31215e+07
6.48238e+07
5.5789e+07
6.68535e+07
5.78822e+07
6.31689e+06
2.49872e+07
1.64752e+07
2.57854e+07
2.47054e+07
2.71979e+07
3.16499e+07
2.90082e+07
3.77176e+07
3.10699e+07
4.31996e+07
3.32922e+07
4.83376e+07
3.56402e+07
5.3394e+07
3.81787e+07
5.87927e+07
4.12638e+07
6.55481e+07
4.62655e+07
-1.61162e+07
6.85238e+06
-4.05481e+06
9.02706e+06
5.90992e+06
1.163e+07
1.43294e+07
1.45088e+07
2.15914e+07
1.75593e+07
2.79698e+07
2.07226e+07
3.36519e+07
2.39807e+07
3.87288e+07
2.73388e+07
4.30771e+07
3.07176e+07
4.58507e+07
3.34004e+07
-3.66518e+07
-1.00053e+07
-2.31461e+07
-6.56265e+06
-1.18423e+07
-2.83366e+06
-2.25662e+06
1.04682e+06
5.97014e+06
4.98292e+06
1.30941e+07
8.90538e+06
1.92837e+07
1.27512e+07
2.46304e+07
1.64318e+07
2.91963e+07
1.98092e+07
3.33202e+07
2.28672e+07
-5.52268e+07
-2.54826e+07
-4.05098e+07
-2.08821e+07
-2.81021e+07
-1.61216e+07
-1.75373e+07
-1.13383e+07
-8.45917e+06
-6.62776e+06
-599121
-2.06089e+06
6.24793e+06
2.30327e+06
1.22543e+07
6.41638e+06
1.75943e+07
1.02604e+07
2.23879e+07
1.38353e+07
-7.16863e+07
-3.94432e+07
-5.59167e+07
-3.37683e+07
-4.25702e+07
-2.80603e+07
-3.11608e+07
-2.24538e+07
-2.13156e+07
-1.70322e+07
-1.27462e+07
-1.1847e+07
-5.22397e+06
-6.92899e+06
1.4363e+06
-2.29284e+06
7.3794e+06
2.05894e+06
1.27176e+07
6.13334e+06
-8.57766e+07
-5.17059e+07
-6.91445e+07
-4.50185e+07
-5.50301e+07
-3.84408e+07
-4.29163e+07
-3.20854e+07
-3.24143e+07
-2.60064e+07
-2.32279e+07
-2.02255e+07
-1.51283e+07
-1.47562e+07
-7.93375e+06
-9.60378e+06
-1.49875e+06
-4.76602e+06
4.29223e+06
-235978
-9.7187e+07
-6.20797e+07
-7.99844e+07
-5.4443e+07
-6.53205e+07
-4.71049e+07
-5.26637e+07
-4.01092e+07
-4.16302e+07
-3.34265e+07
-3.19499e+07
-2.70806e+07
-2.33996e+07
-2.10881e+07
-1.57936e+07
-1.54501e+07
-8.97826e+06
-1.01591e+07
-2.82814e+06
-5.20984e+06
-1.05617e+08
-7.04239e+07
-8.83053e+07
-6.19749e+07
-7.33473e+07
-5.41596e+07
-6.02468e+07
-4.65282e+07
-4.88103e+07
-3.92257e+07
-3.87813e+07
-3.2331e+07
-2.99243e+07
-2.58581e+07
-2.20435e+07
-1.9787e+07
-1.4976e+07
-1.40819e+07
-8.57943e+06
-8.71312e+06
-1.10994e+08
-7.67206e+07
-9.43009e+07
-6.88048e+07
-7.87987e+07
-5.98567e+07
-6.54086e+07
-5.12605e+07
-5.37891e+07
-4.3257e+07
-4.36021e+07
-3.58546e+07
-3.45944e+07
-2.90044e+07
-2.65763e+07
-2.26342e+07
-1.93978e+07
-1.66399e+07
-1.29168e+07
-1.08334e+07
-1.15619e+08
-8.91784e+07
-9.63303e+07
-7.50979e+07
-8.11112e+07
-6.36288e+07
-6.80533e+07
-5.38014e+07
-5.65931e+07
-4.51464e+07
-4.64406e+07
-3.7411e+07
-3.73913e+07
-3.04494e+07
-2.9291e+07
-2.41766e+07
-2.20378e+07
-1.85524e+07
-1.56197e+07
-1.35855e+07
-7.32565e+06
3.43779e+06
-9.65199e+06
7.18449e+06
-9.80751e+06
1.26112e+07
-8.691e+06
1.9404e+07
-6.39202e+06
2.73524e+07
-2.8991e+06
3.62222e+07
1.84524e+06
4.5737e+07
7.97553e+06
5.55753e+07
1.5809e+07
6.53817e+07
2.62399e+07
7.4797e+07
5.23669e+06
1.30144e+07
3.78933e+06
1.59722e+07
3.18878e+06
2.03225e+07
3.42783e+06
2.5841e+07
4.47242e+06
3.23717e+07
6.32642e+06
3.97508e+07
9.02774e+06
4.77868e+07
1.26606e+07
5.625e+07
1.73978e+07
6.48622e+07
2.36625e+07
7.32612e+07
1.57069e+07
2.08845e+07
1.46159e+07
2.32958e+07
1.39587e+07
2.67895e+07
1.38393e+07
3.12503e+07
1.42684e+07
3.65796e+07
1.52526e+07
4.26709e+07
1.68126e+07
4.93964e+07
1.89967e+07
5.65971e+07
2.19055e+07
6.40724e+07
2.57738e+07
7.15561e+07
2.43619e+07
2.75496e+07
2.34675e+07
2.95206e+07
2.28754e+07
3.23313e+07
2.26503e+07
3.59315e+07
2.28104e+07
4.02658e+07
2.33624e+07
4.52702e+07
2.43163e+07
5.08646e+07
2.56959e+07
5.69437e+07
2.75548e+07
6.33687e+07
3.00196e+07
6.9949e+07
3.15345e+07
3.32692e+07
3.079e+07
3.48763e+07
3.02921e+07
3.71421e+07
3.00684e+07
4.00479e+07
3.0132e+07
4.35669e+07
3.04882e+07
4.76644e+07
3.11412e+07
5.22943e+07
3.21011e+07
5.73921e+07
3.33935e+07
6.28669e+07
3.50833e+07
6.85884e+07
3.75204e+07
3.82185e+07
3.69039e+07
3.95262e+07
3.64975e+07
4.13552e+07
3.63113e+07
4.37012e+07
3.63538e+07
4.65541e+07
3.66298e+07
4.98986e+07
3.71421e+07
5.37122e+07
3.7895e+07
5.79595e+07
3.88999e+07
6.25865e+07
4.01892e+07
6.75105e+07
4.25593e+07
4.25339e+07
4.20514e+07
4.35965e+07
4.17222e+07
4.5073e+07
4.15768e+07
4.69649e+07
4.16223e+07
4.92716e+07
4.18649e+07
5.19904e+07
4.23087e+07
5.5114e+07
4.29577e+07
5.86275e+07
4.38182e+07
6.25038e+07
4.49068e+07
6.66961e+07
4.68408e+07
4.63296e+07
4.64215e+07
4.71918e+07
4.61514e+07
4.83804e+07
4.60359e+07
4.98996e+07
4.60832e+07
5.17545e+07
4.6302e+07
5.39497e+07
4.66996e+07
5.6488e+07
4.72823e+07
5.9368e+07
4.80564e+07
6.25809e+07
4.90326e+07
6.61058e+07
5.05156e+07
4.97045e+07
5.01656e+07
5.04018e+07
4.99361e+07
5.13519e+07
4.98344e+07
5.25607e+07
4.98709e+07
5.40365e+07
5.00572e+07
5.57884e+07
5.04045e+07
5.78258e+07
5.09224e+07
6.01557e+07
5.16196e+07
6.27812e+07
5.2506e+07
6.56985e+07
5.37055e+07
5.27463e+07
5.34076e+07
5.33062e+07
5.32015e+07
5.40553e+07
5.30966e+07
5.50006e+07
5.31057e+07
5.61526e+07
5.32433e+07
5.75235e+07
5.3524e+07
5.91265e+07
5.39611e+07
6.09741e+07
5.45664e+07
6.30767e+07
5.5351e+07
6.54407e+07
5.65119e+07
5.55344e+07
5.62511e+07
5.59778e+07
5.6053e+07
5.65538e+07
5.59289e+07
5.72707e+07
5.58937e+07
5.81403e+07
5.59644e+07
5.91773e+07
5.61585e+07
6.03975e+07
5.64924e+07
6.18169e+07
5.69808e+07
6.34499e+07
5.76367e+07
6.53087e+07
5.90207e+07
5.8142e+07
5.87845e+07
5.84846e+07
5.85813e+07
5.89081e+07
5.84236e+07
5.94219e+07
5.83284e+07
6.00394e+07
5.83148e+07
6.07771e+07
5.84024e+07
6.16534e+07
5.86102e+07
6.26863e+07
5.89553e+07
6.38931e+07
5.94523e+07
6.52886e+07
6.13073e+07
6.0639e+07
6.10854e+07
6.0892e+07
6.08654e+07
6.11778e+07
6.06614e+07
6.15062e+07
6.0492e+07
6.18923e+07
6.03782e+07
6.23548e+07
6.03416e+07
6.29144e+07
6.04029e+07
6.35917e+07
6.05809e+07
6.44059e+07
6.08916e+07
6.53731e+07
6.34395e+07
6.30939e+07
6.32231e+07
6.32654e+07
6.29756e+07
6.34231e+07
6.27132e+07
6.35772e+07
6.24566e+07
6.37443e+07
6.22286e+07
6.39457e+07
6.20524e+07
6.42053e+07
6.195e+07
6.45471e+07
6.19413e+07
6.49924e+07
6.20433e+07
6.55586e+07
6.54807e+07
6.55762e+07
6.52611e+07
6.56721e+07
6.4975e+07
6.57076e+07
6.46418e+07
6.56925e+07
6.42851e+07
6.56447e+07
6.393e+07
6.55893e+07
6.36009e+07
6.55548e+07
6.33206e+07
6.55696e+07
6.31099e+07
6.56585e+07
6.29865e+07
6.58413e+07
6.74934e+07
6.81594e+07
6.726e+07
6.81851e+07
6.69213e+07
6.81015e+07
6.65022e+07
6.79158e+07
6.60313e+07
6.76482e+07
6.55361e+07
6.73298e+07
6.5042e+07
6.69954e+07
6.45718e+07
6.66788e+07
6.41467e+07
6.64105e+07
6.37857e+07
6.62147e+07
6.95451e+07
7.09229e+07
6.92798e+07
7.08884e+07
6.88662e+07
7.06864e+07
6.83405e+07
7.03193e+07
6.77392e+07
6.98157e+07
6.70912e+07
6.92176e+07
6.64195e+07
6.85651e+07
6.57472e+07
6.78979e+07
6.50964e+07
6.72541e+07
6.44879e+07
6.66669e+07
7.17216e+07
7.39556e+07
7.13822e+07
7.38884e+07
7.08507e+07
7.35585e+07
7.01899e+07
7.29769e+07
6.94456e+07
7.22156e+07
6.86302e+07
7.13141e+07
6.77649e+07
7.03129e+07
6.68747e+07
6.92571e+07
6.59844e+07
6.81953e+07
6.51169e+07
6.71778e+07
7.41628e+07
7.738e+07
7.36214e+07
7.73468e+07
7.28755e+07
7.67702e+07
7.20872e+07
7.59634e+07
7.11867e+07
7.4933e+07
7.01802e+07
7.37012e+07
6.90946e+07
7.23074e+07
6.79614e+07
7.08021e+07
6.68108e+07
6.92439e+07
6.56676e+07
6.77054e+07
7.71827e+07
8.17315e+07
7.58144e+07
8.10284e+07
7.50297e+07
8.03516e+07
7.40998e+07
7.93795e+07
7.30001e+07
7.80866e+07
7.17561e+07
7.64978e+07
7.04035e+07
7.46558e+07
6.89834e+07
7.26121e+07
6.75388e+07
7.04213e+07
6.61045e+07
6.81047e+07
4.0171e+07
6.28047e+07
4.78348e+07
6.67482e+07
5.41864e+07
7.02142e+07
5.96463e+07
7.34177e+07
6.4468e+07
7.64483e+07
6.88176e+07
7.93479e+07
7.28114e+07
8.21401e+07
7.65352e+07
8.48429e+07
8.00544e+07
8.74734e+07
8.34205e+07
9.00515e+07
8.66752e+07
9.26009e+07
8.98533e+07
9.51503e+07
9.29847e+07
9.77327e+07
9.60963e+07
1.00386e+08
9.92131e+07
1.03152e+08
1.02358e+08
1.06074e+08
1.05551e+08
1.09195e+08
1.08806e+08
1.12549e+08
1.1211e+08
1.16135e+08
1.1537e+08
1.19732e+08
4.77608e+07
6.13363e+07
5.12841e+07
6.5037e+07
5.5184e+07
6.85357e+07
5.91609e+07
7.18377e+07
6.30914e+07
7.49749e+07
6.69287e+07
7.79816e+07
7.06608e+07
8.08884e+07
7.42918e+07
8.37226e+07
7.78341e+07
8.65097e+07
8.13032e+07
8.92741e+07
8.47155e+07
9.20412e+07
8.80874e+07
9.48378e+07
9.14346e+07
9.76925e+07
9.47719e+07
1.00636e+08
9.81135e+07
1.03701e+08
1.01473e+08
1.06923e+08
1.04866e+08
1.10338e+08
1.08312e+08
1.13991e+08
1.11858e+08
1.17946e+08
1.15505e+08
1.21859e+08
4.95103e+07
6.1511e+07
5.27305e+07
6.47525e+07
5.60641e+07
6.7929e+07
5.94731e+07
7.1022e+07
6.29156e+07
7.4031e+07
6.63609e+07
7.69662e+07
6.97907e+07
7.98427e+07
7.31959e+07
8.2678e+07
7.65743e+07
8.54911e+07
7.99275e+07
8.83017e+07
8.32603e+07
9.11303e+07
8.65783e+07
9.39982e+07
8.98884e+07
9.6928e+07
9.31973e+07
9.9943e+07
9.6512e+07
1.03067e+08
9.9839e+07
1.06327e+08
1.03184e+08
1.09747e+08
1.0655e+08
1.13355e+08
1.09926e+08
1.17172e+08
1.12713e+08
1.2109e+08
5.08826e+07
6.21236e+07
5.39232e+07
6.49992e+07
5.69794e+07
6.78504e+07
6.00609e+07
7.06702e+07
6.31647e+07
7.34567e+07
6.62834e+07
7.6213e+07
6.94096e+07
7.8946e+07
7.25378e+07
8.16658e+07
7.56643e+07
8.43843e+07
7.87876e+07
8.7115e+07
8.19074e+07
8.98723e+07
8.50245e+07
9.26719e+07
8.81406e+07
9.55296e+07
9.12572e+07
9.84622e+07
9.43761e+07
1.01486e+08
9.74986e+07
1.04619e+08
1.00625e+08
1.07875e+08
1.03755e+08
1.11269e+08
1.06887e+08
1.1481e+08
1.10093e+08
1.18561e+08
5.25122e+07
6.28239e+07
5.52665e+07
6.53824e+07
5.80262e+07
6.79325e+07
6.07976e+07
7.04737e+07
6.35832e+07
7.30063e+07
6.63824e+07
7.55323e+07
6.91932e+07
7.8056e+07
7.20131e+07
8.05832e+07
7.48395e+07
8.31213e+07
7.76704e+07
8.56788e+07
8.05042e+07
8.82653e+07
8.33397e+07
9.0891e+07
8.61761e+07
9.35665e+07
8.90127e+07
9.63026e+07
9.1849e+07
9.91105e+07
9.46849e+07
1.02001e+08
9.75207e+07
1.04984e+08
1.00358e+08
1.08072e+08
1.03202e+08
1.11278e+08
1.06029e+08
1.1461e+08
5.43031e+07
6.34754e+07
5.67173e+07
6.57376e+07
5.91442e+07
6.80004e+07
6.15848e+07
7.02647e+07
6.40394e+07
7.25315e+07
6.65075e+07
7.48027e+07
6.89877e+07
7.70811e+07
7.14782e+07
7.93703e+07
7.39769e+07
8.16747e+07
7.64817e+07
8.39996e+07
7.89903e+07
8.63509e+07
8.15007e+07
8.87347e+07
8.4011e+07
9.11576e+07
8.65194e+07
9.36264e+07
8.90241e+07
9.61476e+07
9.15238e+07
9.8728e+07
9.40167e+07
1.01374e+08
9.65012e+07
1.04091e+08
9.89736e+07
1.06885e+08
1.01432e+08
1.09759e+08
5.60841e+07
6.40213e+07
5.81471e+07
6.5999e+07
6.02296e+07
6.79824e+07
6.23296e+07
6.9972e+07
6.44455e+07
7.19685e+07
6.65755e+07
7.39733e+07
6.87176e+07
7.59879e+07
7.08696e+07
7.80144e+07
7.30291e+07
8.00553e+07
7.51936e+07
8.21136e+07
7.73606e+07
8.41925e+07
7.95275e+07
8.62954e+07
8.16918e+07
8.8426e+07
8.38508e+07
9.05877e+07
8.60021e+07
9.27841e+07
8.81432e+07
9.50184e+07
9.02712e+07
9.72933e+07
9.23836e+07
9.96112e+07
9.44776e+07
1.01974e+08
9.65507e+07
1.04381e+08
5.7727e+07
6.44453e+07
5.94509e+07
6.61489e+07
6.11972e+07
6.78602e+07
6.29629e+07
6.95791e+07
6.47453e+07
7.13057e+07
6.65416e+07
7.30404e+07
6.83494e+07
7.47839e+07
7.01657e+07
7.65369e+07
7.19879e+07
7.83007e+07
7.38132e+07
8.00764e+07
7.56385e+07
8.18655e+07
7.74611e+07
8.36694e+07
7.9278e+07
8.54896e+07
8.10862e+07
8.73274e+07
8.28826e+07
8.9184e+07
8.46644e+07
9.10603e+07
8.64286e+07
9.29566e+07
8.81721e+07
9.48731e+07
8.98922e+07
9.68091e+07
9.15858e+07
9.87631e+07
5.91603e+07
6.47547e+07
6.05682e+07
6.61954e+07
6.19982e+07
6.76437e+07
6.34472e+07
6.90989e+07
6.49118e+07
7.05603e+07
6.63892e+07
7.20276e+07
6.78763e+07
7.35005e+07
6.937e+07
7.49791e+07
7.08674e+07
7.64632e+07
7.23654e+07
7.7953e+07
7.38609e+07
7.94486e+07
7.53507e+07
8.09499e+07
7.68317e+07
8.24571e+07
7.83008e+07
8.397e+07
7.97548e+07
8.54881e+07
8.11905e+07
8.70109e+07
8.26048e+07
8.85374e+07
8.39946e+07
9.00662e+07
8.5357e+07
9.15952e+07
8.66889e+07
9.31218e+07
6.03591e+07
6.49709e+07
6.14786e+07
6.61615e+07
6.26179e+07
6.73579e+07
6.37737e+07
6.85591e+07
6.4943e+07
6.97638e+07
6.61227e+07
7.09712e+07
6.73097e+07
7.21803e+07
6.8501e+07
7.33902e+07
6.96934e+07
7.46002e+07
7.08838e+07
7.58094e+07
7.2069e+07
7.70171e+07
7.32458e+07
7.82224e+07
7.4411e+07
7.94243e+07
7.55614e+07
8.06217e+07
7.66938e+07
8.18132e+07
7.78048e+07
8.29974e+07
7.88914e+07
8.41724e+07
7.99504e+07
8.53359e+07
8.09788e+07
8.64855e+07
8.19737e+07
8.76179e+07
6.13309e+07
6.51228e+07
6.21904e+07
6.6077e+07
6.3066e+07
6.70346e+07
6.3955e+07
6.7994e+07
6.48544e+07
6.89537e+07
6.57613e+07
6.99123e+07
6.66728e+07
7.08683e+07
6.75859e+07
7.18205e+07
6.84976e+07
7.27673e+07
6.94048e+07
7.37075e+07
7.03043e+07
7.46395e+07
7.1193e+07
7.55618e+07
7.20676e+07
7.64728e+07
7.29249e+07
7.73708e+07
7.37616e+07
7.82539e+07
7.45744e+07
7.91201e+07
7.53602e+07
7.99671e+07
7.61158e+07
8.07924e+07
7.6838e+07
8.15932e+07
7.7524e+07
8.23664e+07
6.21036e+07
6.52421e+07
6.273e+07
6.59744e+07
6.33686e+07
6.67071e+07
6.4017e+07
6.74385e+07
6.46726e+07
6.81669e+07
6.53327e+07
6.88905e+07
6.59948e+07
6.96076e+07
6.6656e+07
7.03164e+07
6.73135e+07
7.10151e+07
6.79643e+07
7.17018e+07
6.86055e+07
7.23746e+07
6.92337e+07
7.30315e+07
6.98459e+07
7.36704e+07
7.04387e+07
7.42893e+07
7.10089e+07
7.48859e+07
7.15529e+07
7.54579e+07
7.20676e+07
7.60029e+07
7.25496e+07
7.65184e+07
7.29956e+07
7.70017e+07
7.34026e+07
7.74498e+07
6.27156e+07
6.53592e+07
6.31335e+07
6.58834e+07
6.35597e+07
6.64054e+07
6.39924e+07
6.69233e+07
6.44293e+07
6.74353e+07
6.48683e+07
6.79395e+07
6.5307e+07
6.84339e+07
6.57429e+07
6.89164e+07
6.61734e+07
6.93848e+07
6.65957e+07
6.9837e+07
6.70069e+07
7.02705e+07
6.74039e+07
7.0683e+07
6.77835e+07
7.10721e+07
6.81423e+07
7.14352e+07
6.84769e+07
7.17699e+07
6.87837e+07
7.20736e+07
6.9059e+07
7.23437e+07
6.92992e+07
7.25779e+07
6.95005e+07
7.27737e+07
6.96596e+07
7.29287e+07
6.3209e+07
6.54988e+07
6.34397e+07
6.58276e+07
6.36757e+07
6.61522e+07
6.39153e+07
6.64709e+07
6.41571e+07
6.67818e+07
6.43991e+07
6.70829e+07
6.46394e+07
6.73722e+07
6.48758e+07
6.76472e+07
6.51061e+07
6.79057e+07
6.53276e+07
6.8145e+07
6.55376e+07
6.83623e+07
6.57332e+07
6.85549e+07
6.59111e+07
6.87197e+07
6.60679e+07
6.88538e+07
6.61997e+07
6.89541e+07
6.63027e+07
6.90178e+07
6.63726e+07
6.9042e+07
6.64052e+07
6.90242e+07
6.63959e+07
6.8962e+07
6.63404e+07
6.88535e+07
6.36241e+07
6.5676e+07
6.36859e+07
6.58193e+07
6.37507e+07
6.59577e+07
6.38175e+07
6.60897e+07
6.38852e+07
6.62137e+07
6.39524e+07
6.63279e+07
6.40176e+07
6.64301e+07
6.40792e+07
6.6518e+07
6.4135e+07
6.65889e+07
6.4183e+07
6.66399e+07
6.42205e+07
6.66677e+07
6.42448e+07
6.66688e+07
6.42527e+07
6.66397e+07
6.42407e+07
6.65764e+07
6.42046e+07
6.64752e+07
6.41401e+07
6.63321e+07
6.40423e+07
6.61436e+07
6.39057e+07
6.59063e+07
6.37245e+07
6.56176e+07
6.34927e+07
6.52754e+07
6.39959e+07
6.58922e+07
6.39038e+07
6.58549e+07
6.38138e+07
6.58138e+07
6.37253e+07
6.57681e+07
6.36378e+07
6.57167e+07
6.35503e+07
6.56582e+07
6.34619e+07
6.55906e+07
6.33715e+07
6.55118e+07
6.32774e+07
6.54189e+07
6.31779e+07
6.53087e+07
6.30711e+07
6.51775e+07
6.29543e+07
6.50211e+07
6.28248e+07
6.4835e+07
6.26789e+07
6.46141e+07
6.25125e+07
6.43531e+07
6.23207e+07
6.40463e+07
6.20979e+07
6.36883e+07
6.18373e+07
6.32736e+07
6.15314e+07
6.27978e+07
6.11715e+07
6.22574e+07
6.43499e+07
6.61306e+07
6.41167e+07
6.59095e+07
6.38859e+07
6.56881e+07
6.36576e+07
6.54667e+07
6.34317e+07
6.52457e+07
6.32077e+07
6.50242e+07
6.29853e+07
6.48008e+07
6.27639e+07
6.45736e+07
6.25427e+07
6.434e+07
6.23209e+07
6.4097e+07
6.20969e+07
6.38406e+07
6.18692e+07
6.35663e+07
6.16352e+07
6.32685e+07
6.13919e+07
6.29408e+07
6.11356e+07
6.25759e+07
6.08614e+07
6.21656e+07
6.05632e+07
6.17007e+07
6.02334e+07
6.11718e+07
5.98627e+07
6.05693e+07
5.94394e+07
5.98847e+07
6.46969e+07
6.63546e+07
6.43343e+07
6.59322e+07
6.39764e+07
6.55165e+07
6.36233e+07
6.51117e+07
6.32746e+07
6.47176e+07
6.29305e+07
6.43339e+07
6.25917e+07
6.39598e+07
6.22586e+07
6.35947e+07
6.19318e+07
6.32374e+07
6.16114e+07
6.2886e+07
6.1297e+07
6.25374e+07
6.0988e+07
6.21875e+07
6.06829e+07
6.18307e+07
6.03798e+07
6.14598e+07
6.0076e+07
6.10656e+07
5.97677e+07
6.0637e+07
5.94497e+07
6.01603e+07
5.91152e+07
5.96195e+07
5.87548e+07
5.89957e+07
5.83556e+07
5.82675e+07
6.50216e+07
6.65073e+07
6.45485e+07
6.58396e+07
6.40831e+07
6.521e+07
6.36197e+07
6.4602e+07
6.31608e+07
6.40138e+07
6.27101e+07
6.34478e+07
6.22705e+07
6.2907e+07
6.18443e+07
6.23946e+07
6.14333e+07
6.19124e+07
6.10387e+07
6.14619e+07
6.06614e+07
6.10426e+07
6.03017e+07
6.06531e+07
5.99597e+07
6.02897e+07
5.96349e+07
5.99465e+07
5.93262e+07
5.96148e+07
5.9032e+07
5.92823e+07
5.87501e+07
5.89324e+07
5.84771e+07
5.85431e+07
5.82087e+07
5.80848e+07
5.79382e+07
5.75167e+07
6.52702e+07
6.64863e+07
6.47484e+07
6.5616e+07
6.41829e+07
6.4725e+07
6.36116e+07
6.38439e+07
6.305e+07
6.29901e+07
6.25058e+07
6.21752e+07
6.19835e+07
6.14086e+07
6.14865e+07
6.06985e+07
6.10176e+07
6.0052e+07
6.05788e+07
5.94758e+07
6.01719e+07
5.89756e+07
5.97981e+07
5.85558e+07
5.94582e+07
5.82194e+07
5.91523e+07
5.79671e+07
5.88804e+07
5.77964e+07
5.86422e+07
5.77005e+07
5.84375e+07
5.76669e+07
5.8267e+07
5.76755e+07
5.81342e+07
5.76969e+07
5.80489e+07
5.76923e+07
1.81758e+08
1.52793e+08
1.73431e+08
1.46267e+08
1.63939e+08
1.4051e+08
1.54957e+08
1.33665e+08
1.46515e+08
1.27024e+08
1.38504e+08
1.20708e+08
1.30826e+08
1.1453e+08
1.23414e+08
1.08386e+08
1.16214e+08
1.02251e+08
1.09174e+08
9.60852e+07
1.02245e+08
8.98583e+07
9.53799e+07
8.35395e+07
8.85329e+07
7.70977e+07
8.16567e+07
7.0499e+07
7.4702e+07
6.37051e+07
6.76158e+07
5.66694e+07
6.03392e+07
4.93329e+07
5.28041e+07
4.1614e+07
4.4929e+07
3.33918e+07
3.66119e+07
2.4471e+07
1.70925e+08
1.35216e+08
1.65563e+08
1.31534e+08
1.59513e+08
1.27257e+08
1.52869e+08
1.23381e+08
1.46215e+08
1.19578e+08
1.39295e+08
1.14654e+08
1.3238e+08
1.09245e+08
1.25615e+08
1.03992e+08
1.18963e+08
9.87018e+07
1.12416e+08
9.33269e+07
1.0596e+08
8.7851e+07
9.95746e+07
8.22529e+07
9.32396e+07
7.65078e+07
8.69353e+07
7.05879e+07
8.06448e+07
6.44634e+07
7.43576e+07
5.81032e+07
6.80738e+07
5.14786e+07
6.18138e+07
4.45702e+07
5.56351e+07
3.73849e+07
4.96678e+07
2.99955e+07
1.55155e+08
1.22576e+08
1.53926e+08
1.2002e+08
1.50772e+08
1.17461e+08
1.46444e+08
1.14947e+08
1.41486e+08
1.11519e+08
1.36495e+08
1.08697e+08
1.31154e+08
1.0555e+08
1.25442e+08
1.01301e+08
1.19769e+08
9.6965e+07
1.14185e+08
9.25613e+07
1.08674e+08
8.80713e+07
1.03222e+08
8.34737e+07
9.78182e+07
7.87462e+07
9.24546e+07
7.38663e+07
8.71247e+07
6.88115e+07
8.18238e+07
6.35597e+07
7.65472e+07
5.8089e+07
7.12866e+07
5.23764e+07
6.60179e+07
4.63925e+07
6.06744e+07
4.00849e+07
1.34864e+08
1.14248e+08
1.34772e+08
1.12116e+08
1.34626e+08
1.10123e+08
1.34452e+08
1.08452e+08
1.32574e+08
1.06708e+08
1.29479e+08
1.04211e+08
1.26101e+08
1.01752e+08
1.22307e+08
9.92004e+07
1.18103e+08
9.59723e+07
1.139e+08
9.2743e+07
1.09694e+08
8.94622e+07
1.05488e+08
8.60955e+07
1.01289e+08
8.26176e+07
9.71024e+07
7.90087e+07
9.29366e+07
7.52519e+07
8.87981e+07
7.13314e+07
8.46931e+07
6.72306e+07
8.06274e+07
6.29308e+07
7.66089e+07
5.8409e+07
7.26565e+07
5.36385e+07
1.12616e+08
1.05922e+08
1.14077e+08
1.04949e+08
1.15349e+08
1.03989e+08
1.16166e+08
1.02905e+08
1.17037e+08
1.01891e+08
1.17148e+08
1.00625e+08
1.16149e+08
9.88035e+07
1.14824e+08
9.72521e+07
1.12859e+08
9.54277e+07
1.10584e+08
9.35248e+07
1.08096e+08
9.15323e+07
1.05464e+08
8.94408e+07
1.02739e+08
8.72422e+07
9.9962e+07
8.49304e+07
9.71669e+07
8.25008e+07
9.43835e+07
7.99497e+07
9.16403e+07
7.7274e+07
8.89662e+07
7.44715e+07
8.63934e+07
7.15404e+07
8.39596e+07
6.84798e+07
9.76394e+07
9.65152e+07
9.88884e+07
9.66567e+07
1.00155e+08
9.66636e+07
1.01616e+08
9.66991e+07
1.03127e+08
9.67463e+07
1.04615e+08
9.67707e+07
1.05591e+08
9.65163e+07
1.06043e+08
9.6107e+07
1.05957e+08
9.5501e+07
1.05456e+08
9.47494e+07
1.04638e+08
9.38809e+07
1.03586e+08
9.29118e+07
1.02369e+08
9.18522e+07
1.01044e+08
9.07095e+07
9.96656e+07
8.94903e+07
9.82803e+07
8.82016e+07
9.69332e+07
8.68519e+07
9.56686e+07
8.54521e+07
9.45318e+07
8.40172e+07
9.35712e+07
8.25687e+07
9.18291e+07
8.80354e+07
9.29067e+07
8.9307e+07
9.40413e+07
9.04958e+07
9.51992e+07
9.16045e+07
9.63748e+07
9.26143e+07
9.75436e+07
9.34869e+07
9.86998e+07
9.41881e+07
9.97029e+07
9.47079e+07
1.00473e+08
9.50701e+07
1.00994e+08
9.53022e+07
1.01289e+08
9.54284e+07
1.01393e+08
9.54694e+07
1.01354e+08
9.54423e+07
1.01221e+08
9.53627e+07
1.01043e+08
9.52453e+07
1.0087e+08
9.51049e+07
1.00752e+08
9.49572e+07
1.00738e+08
9.48196e+07
1.00875e+08
9.47121e+07
1.01211e+08
9.46607e+07
8.43357e+07
7.99033e+07
8.60848e+07
8.20082e+07
8.77379e+07
8.39993e+07
8.93062e+07
8.58833e+07
9.08071e+07
8.76556e+07
9.22584e+07
8.93056e+07
9.36685e+07
9.08214e+07
9.50149e+07
9.21995e+07
9.62609e+07
9.34483e+07
9.73855e+07
9.45841e+07
9.83869e+07
9.56266e+07
9.92798e+07
9.65973e+07
1.00091e+08
9.7518e+07
1.00856e+08
9.84105e+07
1.01615e+08
9.92971e+07
1.02415e+08
1.002e+08
1.03303e+08
1.01143e+08
1.0433e+08
1.02147e+08
1.05546e+08
1.03228e+08
1.06999e+08
1.04397e+08
7.47658e+07
7.05792e+07
7.74835e+07
7.35801e+07
8.0015e+07
7.64486e+07
8.23606e+07
7.91813e+07
8.45411e+07
8.17744e+07
8.65853e+07
8.42264e+07
8.85199e+07
8.65379e+07
9.03609e+07
8.87139e+07
9.21133e+07
9.07652e+07
9.37805e+07
9.27079e+07
9.53708e+07
9.45629e+07
9.69003e+07
9.63537e+07
9.83926e+07
9.81066e+07
9.98789e+07
9.98499e+07
1.01396e+08
1.01614e+08
1.02987e+08
1.03432e+08
1.04698e+08
1.05339e+08
1.06583e+08
1.07372e+08
1.08701e+08
1.09562e+08
1.11122e+08
1.11902e+08
6.39544e+07
5.7527e+07
6.81138e+07
6.25185e+07
7.17541e+07
6.69988e+07
7.4985e+07
7.10601e+07
7.79024e+07
7.47759e+07
8.0583e+07
7.82051e+07
8.30854e+07
8.13949e+07
8.54522e+07
8.43841e+07
8.77136e+07
8.72061e+07
8.98927e+07
8.98914e+07
9.2011e+07
9.247e+07
9.40922e+07
9.49723e+07
9.6164e+07
9.74307e+07
9.82587e+07
9.98799e+07
1.00413e+08
1.02358e+08
1.02669e+08
1.04908e+08
1.05071e+08
1.0758e+08
1.07669e+08
1.10445e+08
1.10526e+08
1.13619e+08
1.13749e+08
1.17363e+08
)
;

boundaryField
{
    back
    {
        type            empty;
    }
    front
    {
        type            empty;
    }
    left
    {
        type            zeroGradient;
    }
    hole
    {
        type            zeroGradient;
    }
    down
    {
        type            zeroGradient;
    }
    right
    {
        type            zeroGradient;
    }
    up
    {
        type            zeroGradient;
    }
}


// ************************************************************************* //
