/*--------------------------------*- C++ -*----------------------------------*\
| =========                 |                                                 |
| \\      /  F ield         | OpenFOAM: The Open Source CFD Toolbox           |
|  \\    /   O peration     | Version:  v2012                                 |
|   \\  /    A nd           | Website:  www.openfoam.com                      |
|    \\/     M anipulation  |                                                 |
\*---------------------------------------------------------------------------*/
FoamFile
{
    version     2.0;
    format      ascii;
    class       volScalarField;
    location    "3";
    object      epsilonEq;
}
// * * * * * * * * * * * * * * * * * * * * * * * * * * * * * * * * * * * * * //

dimensions      [0 0 0 0 0 0 0];


internalField   nonuniform List<scalar> 
1000
(
0.00175096
0.00149463
0.00129127
0.00114497
0.00102613
0.000938042
0.000864792
0.00080838
0.000760235
0.000720666
0.00170703
0.0014618
0.00126866
0.00113136
0.00102034
0.000939182
0.00087157
0.000820225
0.000775695
0.000739832
0.00162166
0.00139788
0.00122431
0.00110412
0.00100771
0.000939272
0.00088182
0.000839399
0.000801239
0.000771543
0.00150086
0.00130684
0.00116041
0.00106366
0.000986898
0.00093512
0.00089069
0.000859273
0.000829027
0.000806362
0.00135075
0.00119325
0.00107973
0.00101083
0.000956721
0.000923547
0.000893217
0.000873302
0.000851388
0.000835467
0.0011801
0.001063
0.000985653
0.000946669
0.00091636
0.000901919
0.000885686
0.000876683
0.000862887
0.000852986
0.000996496
0.000922711
0.000883534
0.000875008
0.000867898
0.000871107
0.000867617
0.000868289
0.000861579
0.000856588
0.000806484
0.000776631
0.000775282
0.000795427
0.000809978
0.000828326
0.000836743
0.000845331
0.000845449
0.000844929
0.000619467
0.000634636
0.000670696
0.000717204
0.000750669
0.000781858
0.000799819
0.00081495
0.000820586
0.000822804
0.000435431
0.00049715
0.00056772
0.000635373
0.000684633
0.000723396
0.000751281
0.000767764
0.000783767
0.000784656
0.000269085
0.000379658
0.000479679
0.000562917
0.000623033
0.000668016
0.000700854
0.000722128
0.00073852
0.000750297
0.000130097
0.000291485
0.000407913
0.000500132
0.00056387
0.000614158
0.000646419
0.000673993
0.000684126
0.000704358
0.00012303
0.000249727
0.000354741
0.000442331
0.00050232
0.000551656
0.000581526
0.000610133
0.000617767
0.000639624
0.000232117
0.000265276
0.0003294
0.000399193
0.000448091
0.000492556
0.000517384
0.000545148
0.000550539
0.000572453
0.000345179
0.000313695
0.00032648
0.000366784
0.00039847
0.000433282
0.000451712
0.000476156
0.00047963
0.000499752
0.000444418
0.000372053
0.000340976
0.000347368
0.000357322
0.000378083
0.000388242
0.00040668
0.000408235
0.000424629
0.000526321
0.000426345
0.000362417
0.000337013
0.000323495
0.000326713
0.000326498
0.000336346
0.000334911
0.000345986
0.000588651
0.000470333
0.000383965
0.000333389
0.00029837
0.000282705
0.000270537
0.000269388
0.00026399
0.000268063
0.000630893
0.00050099
0.000400519
0.000332835
0.000281364
0.000248799
0.000224415
0.000210764
0.000200065
0.000195488
0.000652085
0.000516632
0.000409434
0.000333239
0.000272959
0.000230139
0.000197276
0.000173662
0.000157985
0.000145082
0.000138825
0.000190399
0.000263446
0.000340411
0.000417331
0.000488647
0.000557807
0.0006194
0.000682866
0.00073939
0.000139278
0.000184741
0.000251319
0.000322716
0.000395537
0.00046306
0.000527809
0.000582477
0.00063221
0.000677738
0.000147382
0.000184895
0.000242135
0.000305281
0.000370453
0.000433516
0.000495112
0.000554053
0.000605003
0.000651418
0.000164752
0.000194953
0.00024332
0.000298928
0.00035619
0.000412042
0.000463602
0.000514477
0.000557802
0.000604704
0.000179558
0.000203297
0.000242837
0.000291054
0.00034179
0.000394452
0.000443138
0.000492825
0.000532748
0.000573203
0.00019923
0.000218048
0.000250123
0.00029076
0.000333481
0.000378857
0.000420484
0.000464814
0.000502028
0.000541074
0.000216748
0.000231706
0.000257854
0.000292588
0.00033
0.000371031
0.000408936
0.000448969
0.000482504
0.000516983
0.00023517
0.000247033
0.000268055
0.000296721
0.000328078
0.000363229
0.000396518
0.000432317
0.000463513
0.00049537
0.000252752
0.000262346
0.000279656
0.000303791
0.000330824
0.000361403
0.000390916
0.00042232
0.000450373
0.000478792
0.000269208
0.000276892
0.000290944
0.000310812
0.000333579
0.000359679
0.000385599
0.000413339
0.000438803
0.000464471
0.000285043
0.00029132
0.000302967
0.000319536
0.000338927
0.000361163
0.000383781
0.000407775
0.000430521
0.000453264
0.000298971
0.000304064
0.000313635
0.000327332
0.000343699
0.00036258
0.000382244
0.000403129
0.000423265
0.000443504
0.000311729
0.000315915
0.000323867
0.000335258
0.000349079
0.000365031
0.00038196
0.000399835
0.000417644
0.000434859
0.000322212
0.000325649
0.000332228
0.000341697
0.000353325
0.000366842
0.000381365
0.000396796
0.000412384
0.000427663
0.00033057
0.000333422
0.000338922
0.000346837
0.000356666
0.000368089
0.000380525
0.000393725
0.000407172
0.000420594
0.000336266
0.000338641
0.000343248
0.000349899
0.000358227
0.00036795
0.000378639
0.000389985
0.000401704
0.000413236
0.0003384
0.000340437
0.000344406
0.000350148
0.000357387
0.000365878
0.000375252
0.000385283
0.000395586
0.000405924
0.000337298
0.000339082
0.000342575
0.000347646
0.000354091
0.000361688
0.000370157
0.000379247
0.000388677
0.000398102
0.000330334
0.000332033
0.000335379
0.000340262
0.000346543
0.000353996
0.000362451
0.000371536
0.000381186
0.000390701
0.000319385
0.000321113
0.000324532
0.000329561
0.000336104
0.000343944
0.000352988
0.000362774
0.000373371
0.000383869
0.000767404
0.000760859
0.000769449
0.000769217
0.000774078
0.000773905
0.000774017
0.000772079
0.000769517
0.000765902
0.000762102
0.000757941
0.000754307
0.000751081
0.000749391
0.000749002
0.000751561
0.000756487
0.000766317
0.000779757
0.00071145
0.000721255
0.000729887
0.000734154
0.000736627
0.000740043
0.000740101
0.000741984
0.000742649
0.000742003
0.000741934
0.000742148
0.000743025
0.000744956
0.000748365
0.000753419
0.000761195
0.000771243
0.000785664
0.000803024
0.000672408
0.000679314
0.000687181
0.000693749
0.000697779
0.000702039
0.000705394
0.000708167
0.000711597
0.000714792
0.000717927
0.000721695
0.000726203
0.000731699
0.000738811
0.000747367
0.000758592
0.000771731
0.000788829
0.00080823
0.000629765
0.000640117
0.000649821
0.000656601
0.000664182
0.000669534
0.000676266
0.000680261
0.000684935
0.000690497
0.000696185
0.00070206
0.000709206
0.00071675
0.000726257
0.000736613
0.000749635
0.000763933
0.000781802
0.000801252
0.000595398
0.000605949
0.000615269
0.000623448
0.000631411
0.000638305
0.000645541
0.00065179
0.000658912
0.000665428
0.00067284
0.000680206
0.000688724
0.000697632
0.000708113
0.000719335
0.000732705
0.000747085
0.000764341
0.000782788
0.000563661
0.0005748
0.000585045
0.00059411
0.000603292
0.000611197
0.000619572
0.00062693
0.00063476
0.000642366
0.000650458
0.000658665
0.000667663
0.000677025
0.000687569
0.00069871
0.000711489
0.000725047
0.00074086
0.000757422
0.000538473
0.000549276
0.000559482
0.000568905
0.000578161
0.000586666
0.000595262
0.000603277
0.000611575
0.000619538
0.000627946
0.000636273
0.00064526
0.000654377
0.000664454
0.000674794
0.000686504
0.000698511
0.000712423
0.000726728
0.000516292
0.000526747
0.000537081
0.000546629
0.000556037
0.000564746
0.000573462
0.000581627
0.000589931
0.000597875
0.000606111
0.000614143
0.00062266
0.000631119
0.000640228
0.00064953
0.000659418
0.000670162
0.000682011
0.000693771
0.000498416
0.000508241
0.000518182
0.000527445
0.000536492
0.000545022
0.000553389
0.00056137
0.000569266
0.000576922
0.000584561
0.000592141
0.000599744
0.000607525
0.000615315
0.000623606
0.000631809
0.000640059
0.000649859
0.00065973
0.000482889
0.000491967
0.000501518
0.000510284
0.000518939
0.000527047
0.000534978
0.000542514
0.00054988
0.000556969
0.000563934
0.000570719
0.000577466
0.000584085
0.000590858
0.0005974
0.000604589
0.000611004
0.000618028
0.000625367
0.000470015
0.000478616
0.00048715
0.000495338
0.000503258
0.000510776
0.000518069
0.000524983
0.000531699
0.000538075
0.000544292
0.000550199
0.00055601
0.000561519
0.000567031
0.00057222
0.00057756
0.00058252
0.000587839
0.000592875
0.000458471
0.000466086
0.000474429
0.000481578
0.000488942
0.000495713
0.000502335
0.000508569
0.000514556
0.000520205
0.000525615
0.000530679
0.000535549
0.000540038
0.000544405
0.000548334
0.000552228
0.000555676
0.000559053
0.00056221
0.00044877
0.000457636
0.000462484
0.000468783
0.000475611
0.000481635
0.000487635
0.000493156
0.000498471
0.000503394
0.000508065
0.000512334
0.000516351
0.00051992
0.000523245
0.000526082
0.000528632
0.000530777
0.000532576
0.000534025
0.000439752
0.000445361
0.000451538
0.000457541
0.000463258
0.000468723
0.000473895
0.000478806
0.000483385
0.000487637
0.000491631
0.000495213
0.00049849
0.00050129
0.000503765
0.00050559
0.000507237
0.000508227
0.000508694
0.000508702
0.000430784
0.000436182
0.000441431
0.000446582
0.000451554
0.000456295
0.000460851
0.000465128
0.000469154
0.000472903
0.000476339
0.000479426
0.000482173
0.000484426
0.000486425
0.00048754
0.000488082
0.000488382
0.000487759
0.000486549
0.000422142
0.000426536
0.000431421
0.00043586
0.000440342
0.000444555
0.000448614
0.00045262
0.00045603
0.00045914
0.000462417
0.000465122
0.000467533
0.00046955
0.000470951
0.000470721
0.000472079
0.000471685
0.000470232
0.000468073
0.000413612
0.00041763
0.00042184
0.000425912
0.000429773
0.000433687
0.000437379
0.000440895
0.00044382
0.000447247
0.000449952
0.000452539
0.000454597
0.000456497
0.00045757
0.000458628
0.000458824
0.000458136
0.000456405
0.000453904
0.000405119
0.000408879
0.000412791
0.000416616
0.000420225
0.000423863
0.000427431
0.00043055
0.000433906
0.000437089
0.000439592
0.000442113
0.000444236
0.00044604
0.000447453
0.000448217
0.000448589
0.000448124
0.000446556
0.00044406
0.000397863
0.000401722
0.000405749
0.000409638
0.000412821
0.000416984
0.000421516
0.000424235
0.000427407
0.000430364
0.000432989
0.000435517
0.000437607
0.000439524
0.000440938
0.000442072
0.000442609
0.000442635
0.000441824
0.000440236
0.000391751
0.00039619
0.000400755
0.000405109
0.000408889
0.000414365
0.000418828
0.000421401
0.000425356
0.000428161
0.000431191
0.000433558
0.000435814
0.000437535
0.000439027
0.000440033
0.000440767
0.00044106
0.000441022
0.000440522
0.000694334
0.000677225
0.000661055
0.000645471
0.000630024
0.000615024
0.000599693
0.000584507
0.000568644
0.000552589
0.000535513
0.000517929
0.000498914
0.000479122
0.000457371
0.000434645
0.000409254
0.00038281
0.000352714
0.000321686
0.000714827
0.000697884
0.000681864
0.000666208
0.00065062
0.000635385
0.000619747
0.000604222
0.000587977
0.000571534
0.000554068
0.000536103
0.000516746
0.000496635
0.000474655
0.000451741
0.000426327
0.00039995
0.000370221
0.000339671
0.000748925
0.000732805
0.000717147
0.000701742
0.000686092
0.000670792
0.000654866
0.00063907
0.000622438
0.000605621
0.000587759
0.000569411
0.00054974
0.000529346
0.000507258
0.000484319
0.000459215
0.00043334
0.000404718
0.000375524
0.000786781
0.000772662
0.000757501
0.000742963
0.000727332
0.000712308
0.000696143
0.000680247
0.000663286
0.000646209
0.000628076
0.00060951
0.00058977
0.000569384
0.000547595
0.000525085
0.000500877
0.000476142
0.000449407
0.000422369
0.000819307
0.000808718
0.000794451
0.000781961
0.000766996
0.0007533
0.000737733
0.000722691
0.000706295
0.000689794
0.000672213
0.000654125
0.000635019
0.00061523
0.000594378
0.000572902
0.000550336
0.000527571
0.000503847
0.000480312
0.000840218
0.000834498
0.000821245
0.00081146
0.000797243
0.00078501
0.000770106
0.000755875
0.000740237
0.000724445
0.000707901
0.000690814
0.000673198
0.000654963
0.000636248
0.000617101
0.00059758
0.000578195
0.000558784
0.000539966
0.000847178
0.000847446
0.000836312
0.000830556
0.000818986
0.000809608
0.000797374
0.000785176
0.000771808
0.000757528
0.000742827
0.000727068
0.000711165
0.000694462
0.000677791
0.000660822
0.00064424
0.00062823
0.000613386
0.000599928
0.000838296
0.000843946
0.00083493
0.000831272
0.000822056
0.00081371
0.000804089
0.000793296
0.000782795
0.000770697
0.000759111
0.000746185
0.000733677
0.000720357
0.000707564
0.000694689
0.000682887
0.000672083
0.000663442
0.000656882
0.000820612
0.000831865
0.000830842
0.000830108
0.000827261
0.000820503
0.00081431
0.000804486
0.000795509
0.000784236
0.000773776
0.000762159
0.000751356
0.000740263
0.000730249
0.000720727
0.000712972
0.000706718
0.00070348
0.000702981
0.00078623
0.000793835
0.000801629
0.000803437
0.00080788
0.000806374
0.000805816
0.000801362
0.00079677
0.000789663
0.000782377
0.000773817
0.000765498
0.000756971
0.000749536
0.000742961
0.00073883
0.000736883
0.000739379
0.000745754
)
;

boundaryField
{
    back
    {
        type            empty;
    }
    left
    {
        type            symmetry;
    }
    hole
    {
        type            calculated;
        value           nonuniform List<scalar> 
20
(
0.00177511
0.00173007
0.0016426
0.00151885
0.0013651
0.00119043
0.00100224
0.000807604
0.000614876
0.000424292
0.000246847
7.60942e-05
7.92731e-05
0.000219762
0.000342921
0.000447191
0.000532247
0.000596571
0.000640052
0.000661827
)
;
    }
    front
    {
        type            empty;
    }
    down
    {
        type            symmetry;
    }
    right
    {
        type            calculated;
        value           nonuniform List<scalar> 
30
(
0.000319163
0.000320877
0.00032426
0.000329255
0.000335741
0.000343549
0.000352538
0.00036232
0.000372887
0.000383442
0.00039133
0.000395848
0.000400532
0.000404876
0.000409184
0.000413652
0.000418121
0.000421202
0.000425095
0.000427988
0.000431065
0.000433435
0.000435728
0.000437439
0.000438944
0.000439953
0.000440708
0.00044106
0.00044116
0.000440961
)
;
    }
    up
    {
        type            calculated;
        value           nonuniform List<scalar> 
30
(
0.000779863
0.000803184
0.000808447
0.000801469
0.000782971
0.000757564
0.000726821
0.000693773
0.00065965
0.000625423
0.000592848
0.000562172
0.000533978
0.000508642
0.000486514
0.000468047
0.000453831
0.000444026
0.000440216
0.000440514
0.00032133
0.000339273
0.000375076
0.00042187
0.000479815
0.000539486
0.00059953
0.000656553
0.000702799
0.000745647
)
;
    }
}


// ************************************************************************* //
