/*--------------------------------*- C++ -*----------------------------------*\
| =========                 |                                                 |
| \\      /  F ield         | OpenFOAM: The Open Source CFD Toolbox           |
|  \\    /   O peration     | Version:  v2012                                 |
|   \\  /    A nd           | Website:  www.openfoam.com                      |
|    \\/     M anipulation  |                                                 |
\*---------------------------------------------------------------------------*/
FoamFile
{
    version     2.0;
    format      ascii;
    class       volScalarField;
    location    "5";
    object      sigmaEq;
}
// * * * * * * * * * * * * * * * * * * * * * * * * * * * * * * * * * * * * * //

dimensions      [1 -1 -2 0 0 0 0];


internalField   nonuniform List<scalar> 
7666
(
1.97403e+07
4.88614e+07
1.65821e+08
6.17635e+07
9.3708e+07
9.99284e+07
5.29623e+07
6.32254e+07
1.05811e+08
5.1005e+07
4.78772e+07
6.12728e+07
6.19194e+07
5.4563e+07
5.0433e+07
1.01289e+08
6.2075e+07
1.02934e+08
6.51629e+07
4.80834e+07
3.71285e+07
8.05766e+07
5.67222e+07
6.08857e+07
1.0492e+08
4.99897e+07
1.04589e+08
4.45606e+07
6.15737e+07
5.94645e+07
6.12743e+07
1.00499e+08
3.57292e+07
5.80116e+07
3.6214e+07
4.56367e+07
4.44429e+07
6.0564e+07
9.5703e+07
5.17371e+07
8.01259e+07
1.12264e+08
9.8647e+07
5.43939e+07
9.1543e+07
5.20126e+07
1.01575e+08
7.84103e+07
8.86437e+07
2.82056e+07
4.37664e+07
7.85661e+07
5.38868e+07
1.05792e+08
3.26082e+07
1.03781e+08
2.98666e+07
3.00094e+07
1.114e+08
1.00133e+08
3.67733e+07
6.01963e+07
5.85561e+07
5.93497e+07
3.18687e+07
8.70426e+07
4.83928e+07
3.08403e+07
1.10438e+08
1.09988e+08
1.1342e+08
4.46309e+07
4.43705e+07
5.91269e+07
5.93201e+07
5.32812e+07
7.72721e+07
5.47898e+07
5.58881e+07
3.85957e+07
5.49963e+07
4.66787e+07
6.76028e+07
1.00569e+08
6.42897e+07
7.51746e+07
7.53259e+07
8.0585e+07
8.60049e+07
6.04393e+07
5.65369e+07
5.63672e+07
8.03701e+07
1.14872e+08
9.61569e+07
9.82408e+07
3.72247e+07
1.75947e+08
6.51595e+07
4.78903e+07
8.12291e+07
5.95974e+07
4.12187e+07
1.23587e+08
5.85184e+07
9.42609e+07
1.00277e+08
8.97736e+07
5.27832e+07
7.92337e+07
5.62895e+07
8.41482e+07
4.9466e+07
3.66299e+07
4.59429e+07
9.67998e+07
4.3835e+07
4.31971e+07
6.12863e+07
6.14572e+07
1.02385e+08
5.88716e+07
5.90306e+07
5.00626e+07
6.006e+07
2.72016e+07
8.94893e+07
7.89567e+07
6.95338e+07
5.92831e+07
9.94481e+07
6.94992e+07
4.27678e+07
7.47083e+07
5.91827e+07
9.29809e+07
5.45899e+07
5.22589e+07
5.49541e+07
5.82203e+07
6.97565e+07
4.63086e+07
4.56332e+07
4.55239e+07
4.82676e+07
5.17808e+07
5.25225e+07
4.61259e+07
2.50432e+07
6.36819e+07
5.10074e+07
8.75059e+07
3.8813e+07
7.36402e+07
4.6465e+07
4.65295e+07
7.84976e+07
7.40627e+07
6.28183e+07
5.64501e+07
1.16068e+08
7.37825e+07
7.97068e+07
1.05625e+08
1.27174e+08
1.27879e+08
6.31459e+07
2.84702e+07
3.05577e+07
1.12048e+08
4.91898e+07
4.46121e+07
7.55486e+07
7.08325e+07
8.83623e+07
3.28474e+07
8.371e+07
8.9602e+07
6.33169e+07
6.21392e+07
7.87141e+07
4.04136e+07
7.32661e+07
3.89593e+07
8.71361e+07
1.02426e+08
4.43496e+07
5.93518e+07
1.09601e+08
5.6955e+07
5.00982e+07
5.31655e+07
5.28322e+07
5.41295e+07
8.99229e+07
9.65542e+07
5.25505e+07
5.36947e+07
5.24413e+07
5.88553e+07
8.46711e+07
4.34955e+07
6.29229e+07
9.4233e+07
4.19808e+07
1.05385e+08
4.77877e+07
6.4823e+07
4.08759e+07
3.95633e+07
1.04408e+08
3.9791e+07
4.55626e+07
4.67946e+07
4.58365e+07
4.14773e+07
5.4561e+07
1.00542e+08
4.06664e+07
8.51163e+07
9.63618e+07
1.0859e+08
6.08549e+07
4.56997e+07
7.23386e+07
7.43955e+07
9.77381e+07
7.6716e+07
3.65652e+07
6.38016e+07
6.30698e+07
5.80829e+07
8.313e+07
9.37559e+07
4.38868e+07
5.92499e+07
9.43718e+07
7.85407e+07
3.96143e+07
5.82304e+07
4.62684e+07
7.20941e+07
5.85113e+07
3.41582e+07
5.09274e+07
4.66287e+07
6.58803e+07
4.90742e+07
1.1749e+08
8.60847e+07
8.51522e+07
4.12681e+07
9.70998e+07
7.01388e+07
4.50958e+07
5.9437e+07
7.63442e+07
7.95055e+07
8.88514e+07
5.23904e+07
7.75494e+07
1.03819e+08
9.46865e+07
8.1298e+07
5.10811e+07
6.58488e+07
5.67425e+07
9.64967e+07
1.08231e+08
2.18864e+07
5.29937e+07
5.19285e+07
5.86763e+07
7.78656e+07
2.1923e+07
4.81648e+07
8.54315e+07
8.43743e+07
7.75413e+07
7.68732e+07
5.4097e+07
9.52292e+07
5.53722e+07
5.93101e+07
5.39151e+07
6.35079e+07
8.06771e+07
1.09129e+08
6.20733e+07
4.68148e+07
4.70897e+07
1.12493e+08
1.01042e+08
5.57678e+07
5.56384e+07
1.20133e+08
4.63488e+07
2.92587e+07
2.8552e+07
6.56021e+07
4.62638e+07
4.63871e+07
5.12663e+07
4.32811e+07
5.94187e+07
3.8852e+07
3.67848e+07
8.93291e+07
6.51447e+07
3.53379e+07
3.51138e+07
2.83296e+07
2.79665e+07
2.56126e+07
4.50833e+07
6.61797e+07
4.5373e+07
6.44303e+07
6.5826e+07
4.63963e+07
7.01661e+07
7.17223e+07
9.16912e+07
6.79488e+07
5.62161e+07
4.54332e+07
2.30465e+07
6.11634e+07
3.2911e+07
5.82078e+07
5.54783e+07
7.93939e+07
1.77876e+08
5.69282e+07
1.03784e+08
1.05415e+08
1.00849e+08
4.10636e+07
4.46575e+07
5.94857e+07
5.55393e+07
1.00772e+08
3.85128e+07
6.451e+07
7.60308e+07
6.70381e+07
4.47185e+07
9.97287e+07
4.26757e+07
4.36794e+07
5.9363e+07
9.35524e+07
1.09867e+08
3.6638e+07
1.1044e+08
8.7602e+07
6.22371e+07
4.62068e+07
9.60277e+07
4.25275e+07
6.51156e+07
8.30889e+07
7.77237e+07
9.12421e+07
4.65108e+07
1.04355e+08
9.41859e+07
9.22668e+07
5.26035e+07
9.53563e+07
6.14746e+07
6.85096e+07
5.87157e+07
6.50642e+07
4.97716e+07
4.96583e+07
7.07121e+07
1.51837e+08
3.43028e+07
1.02803e+08
1.04851e+08
4.6949e+07
1.78649e+07
8.52743e+07
9.06473e+07
6.78173e+07
9.60777e+07
9.61871e+07
1.27029e+08
5.96957e+07
5.96891e+07
3.17035e+07
2.9573e+07
8.15954e+07
9.51072e+07
1.25601e+08
5.17095e+07
5.85157e+07
4.76527e+07
3.94532e+07
9.54166e+07
7.28859e+07
4.65573e+07
3.65353e+07
1.60422e+08
6.81928e+07
6.89661e+07
9.44107e+07
9.88325e+07
1.00571e+08
1.08446e+08
5.95357e+07
4.2946e+07
9.75071e+07
1.0917e+08
8.26959e+07
8.28301e+07
5.10327e+07
4.74733e+07
1.0135e+08
4.70865e+07
5.62105e+07
5.61956e+07
5.82608e+07
4.2048e+07
5.61755e+07
5.36774e+07
9.06029e+07
6.44384e+07
1.13989e+08
6.67984e+07
1.85083e+08
6.13665e+07
5.95147e+07
4.24926e+07
4.69858e+07
5.20249e+07
5.47093e+07
6.02023e+07
6.16681e+07
9.88356e+07
2.77476e+07
5.40747e+07
5.36255e+07
4.83781e+07
5.89227e+07
4.97893e+07
5.35953e+07
5.38776e+07
5.06323e+07
2.19551e+07
3.61168e+07
7.39748e+07
8.94775e+07
4.43229e+07
8.04272e+07
5.30363e+07
6.13218e+07
5.3595e+07
7.60357e+07
8.18035e+07
6.33823e+07
1.39962e+08
9.96222e+07
3.88054e+07
5.17056e+07
5.14818e+07
8.34003e+07
7.85856e+07
4.4502e+07
7.5224e+07
5.34544e+07
5.35498e+07
1.04006e+08
9.89372e+07
7.95236e+07
4.61516e+07
7.38272e+07
4.45652e+07
6.35255e+07
4.22273e+07
1.00499e+08
6.39639e+07
4.46398e+07
6.35162e+07
4.4812e+07
6.67484e+07
6.53948e+07
1.12704e+08
6.01358e+07
5.71066e+07
5.72768e+07
5.94813e+07
4.23372e+07
5.00633e+07
1.1601e+08
1.13555e+08
1.13262e+08
5.03993e+07
3.71632e+07
4.89192e+07
5.17562e+07
9.11624e+07
4.46118e+07
5.38304e+07
3.60189e+07
4.63617e+07
1.45932e+08
2.07946e+07
4.60319e+07
4.26255e+07
9.22593e+07
9.39443e+07
4.50219e+07
4.53203e+07
5.97073e+07
5.96938e+07
5.98445e+07
7.77499e+07
3.49794e+07
3.53861e+07
1.13047e+08
9.86113e+07
6.40514e+07
6.50544e+07
5.32468e+07
4.61375e+07
1.54871e+08
3.78528e+07
4.45642e+07
5.92665e+07
1.12581e+08
9.14555e+07
3.96347e+07
1.00429e+08
4.51435e+07
7.72539e+07
8.68398e+07
5.84178e+07
5.79989e+07
9.61165e+07
1.1391e+08
9.38864e+07
6.68566e+07
8.57795e+07
1.00759e+08
1.02631e+08
1.07075e+08
7.2206e+07
4.92191e+07
9.43589e+07
5.17787e+07
9.38929e+07
9.58409e+07
6.59781e+07
4.04887e+07
5.56159e+07
2.07759e+07
7.25937e+07
7.53062e+07
9.54511e+07
7.7454e+07
5.76688e+07
6.51251e+07
6.64353e+07
2.92402e+07
4.27744e+07
4.52912e+07
1.45947e+08
5.49571e+07
6.49745e+07
4.7694e+07
7.60962e+07
4.71235e+07
8.68034e+07
3.28214e+07
9.99827e+07
1.1632e+08
1.00235e+08
1.04704e+08
8.85206e+07
4.98577e+07
4.46299e+07
4.72912e+07
7.37413e+07
1.00425e+08
1.09716e+08
4.71907e+07
5.62345e+07
1.05158e+08
5.97219e+07
1.02675e+08
7.22458e+07
4.89376e+07
4.60082e+07
4.06479e+07
6.0212e+07
4.55044e+07
5.99686e+07
5.72986e+07
5.25575e+07
1e+08
8.61526e+07
8.7725e+07
3.06401e+07
4.95135e+07
7.1585e+07
4.11555e+07
1.03436e+08
9.59764e+07
1.10431e+08
1.07666e+08
2.12023e+07
5.32981e+07
4.7372e+07
5.66581e+07
4.4653e+07
4.52081e+07
5.89682e+07
5.91296e+07
5.25246e+07
2.27516e+07
7.83268e+07
4.19261e+07
5.15751e+07
5.55729e+07
6.1834e+07
2.20443e+07
6.62047e+07
1.00746e+08
5.9165e+07
1.11091e+08
5.5227e+07
7.26299e+07
5.64506e+07
4.23671e+07
6.48422e+07
4.88123e+07
6.79737e+07
4.37397e+07
8.08547e+07
5.21437e+07
2.04498e+07
4.43316e+07
4.17923e+07
5.94036e+07
4.18908e+07
1.94297e+07
8.2071e+07
3.89614e+07
9.22412e+07
7.77083e+07
6.55561e+07
6.56683e+07
1.0866e+08
1.0881e+08
8.97573e+07
8.91583e+07
4.59865e+07
4.56804e+07
3.70433e+07
1.06928e+08
7.52649e+07
9.84936e+07
4.71613e+07
7.60173e+07
1.90604e+07
1.14599e+08
1.06539e+08
6.48117e+07
4.00057e+07
2.35532e+07
4.85596e+07
3.93121e+07
7.95099e+07
1.15648e+08
6.09264e+07
4.91262e+07
1.13312e+08
4.76002e+07
1.13154e+08
8.61972e+07
1.00979e+08
6.1851e+07
6.70214e+07
8.41952e+07
3.79991e+07
8.35203e+07
1.01016e+08
1.00742e+08
1.02464e+08
5.0073e+07
3.50429e+07
6.62106e+07
5.17715e+07
1.01589e+08
9.75904e+07
1.11689e+08
9.7582e+07
1.0302e+08
4.81817e+07
7.35846e+07
1.14584e+08
8.34983e+07
6.56542e+07
8.64036e+07
1.31698e+08
2.52126e+07
6.02599e+07
9.62548e+07
4.23674e+07
8.59563e+07
1.34084e+08
8.39314e+07
7.01508e+07
4.24274e+07
6.45861e+07
4.42461e+07
6.25261e+07
8.55398e+07
8.28968e+07
8.57743e+07
4.33566e+07
5.92808e+07
3.74263e+07
1.08688e+08
4.57038e+07
9.41815e+07
1.17805e+08
4.61051e+07
8.48135e+07
6.44534e+07
4.44966e+07
7.28028e+07
7.24089e+07
1.0252e+08
7.9526e+07
5.76046e+07
1.34016e+08
8.62468e+07
1.06725e+08
2.264e+08
8.83233e+07
1.02733e+08
5.80639e+07
8.3653e+07
4.60437e+07
9.28969e+07
1.15514e+08
5.57586e+07
5.40709e+07
5.90392e+07
5.90592e+07
5.26142e+07
3.83693e+07
5.76865e+07
9.49197e+07
9.30527e+07
9.33953e+07
3.85589e+07
9.56045e+07
4.81873e+07
8.59502e+07
7.19756e+07
1.09873e+08
4.10662e+07
3.87935e+07
9.90933e+07
5.07713e+07
1.1173e+08
5.96113e+07
1.09014e+08
6.04407e+07
4.57088e+07
4.58947e+07
4.54266e+07
1.04639e+08
5.44224e+07
5.01546e+07
4.98547e+07
4.93287e+07
7.24367e+07
4.44144e+07
6.14845e+07
5.41733e+07
5.3607e+07
5.31801e+07
9.33264e+07
1.07988e+08
1.2926e+08
7.7582e+07
5.45084e+07
5.9018e+07
5.89847e+07
1.15085e+08
5.9789e+07
7.88081e+07
3.7638e+07
3.98949e+07
4.00792e+07
3.70654e+07
5.90568e+07
6.76003e+07
9.403e+07
3.69648e+07
8.99241e+07
5.41667e+07
7.93182e+07
4.24832e+07
5.05846e+07
3.68273e+07
9.2019e+07
7.3498e+07
1.06602e+08
5.1057e+07
7.86583e+07
4.67228e+07
4.38023e+07
3.53339e+07
3.49881e+07
9.87384e+07
4.52191e+07
1.05265e+08
2.99036e+07
5.82017e+07
6.6149e+07
6.00299e+07
2.28443e+07
3.81403e+07
1.03446e+08
9.8189e+07
5.61055e+07
7.42554e+07
2.95731e+07
4.44424e+07
7.72695e+07
4.57609e+07
5.75671e+07
5.7479e+07
7.53396e+07
6.12211e+07
7.63997e+07
1.37589e+08
6.31017e+07
8.78577e+07
8.21999e+07
8.5375e+07
5.61296e+07
5.45905e+07
7.36226e+07
3.0671e+07
4.92213e+07
9.13778e+07
6.45203e+07
3.54434e+07
8.20243e+07
7.14601e+07
1.21745e+08
5.81686e+07
5.67954e+07
5.52978e+07
6.01711e+07
7.76163e+07
8.11765e+07
8.23569e+07
1.10326e+08
7.36899e+07
5.8638e+07
9.24062e+07
9.93408e+07
9.07302e+07
6.0796e+07
4.57569e+07
4.59744e+07
6.28434e+07
5.22684e+07
5.1208e+07
5.42721e+07
5.38818e+07
2.61351e+07
2.56402e+07
4.14844e+07
5.04573e+07
5.32959e+07
2.25658e+07
4.72846e+07
5.19333e+07
3.63581e+07
4.63649e+07
7.1954e+07
7.14472e+07
5.06647e+07
7.07841e+07
4.27801e+07
6.54584e+07
5.01231e+07
6.42149e+07
6.66151e+07
6.36266e+07
6.69163e+07
1.00308e+08
7.00915e+07
4.18906e+07
9.39408e+07
7.39132e+07
5.57914e+07
4.57381e+07
3.01361e+07
4.84394e+07
8.44936e+07
8.37e+07
9.17989e+07
8.46503e+07
6.56852e+07
6.7822e+07
1.68829e+07
4.83882e+07
9.99308e+07
2.1035e+08
7.49918e+07
4.60156e+07
9.17408e+07
9.62824e+07
4.88422e+07
5.8384e+07
7.8479e+07
6.51893e+07
8.77751e+07
1.15945e+08
3.24408e+07
5.2113e+07
8.74453e+07
8.93725e+07
6.60465e+07
3.61517e+07
7.84335e+07
7.68787e+07
8.01527e+07
1.25468e+08
5.65134e+07
6.59138e+07
1.02097e+08
1.04133e+08
1.04696e+08
5.07599e+07
5.81361e+07
4.85533e+07
7.58114e+07
2.59756e+07
6.08882e+07
9.89236e+07
4.2681e+07
6.90606e+07
7.48335e+07
5.91894e+07
2.04306e+08
8.67482e+07
8.18353e+07
9.23709e+07
9.13031e+07
8.33672e+07
5.96808e+07
9.56489e+07
4.62433e+07
5.35009e+07
4.69562e+07
4.52948e+07
4.55361e+07
7.02662e+07
5.83051e+07
7.13544e+07
4.97527e+07
8.45372e+07
4.91835e+07
4.91821e+07
5.26989e+07
4.34057e+07
8.46087e+07
1.03081e+08
1.01566e+08
1.02254e+08
6.33024e+07
5.90633e+07
6.69712e+07
5.02836e+07
8.19325e+07
6.98521e+07
1.51044e+08
1.14955e+08
7.67363e+07
7.7464e+07
1.18325e+08
9.0267e+07
1.03002e+08
8.56104e+07
9.22533e+07
2.22692e+07
1.10494e+08
1.07149e+08
5.45808e+07
1.18743e+08
7.09573e+07
6.41436e+07
4.4173e+07
1.15012e+08
7.08474e+07
1.05287e+08
6.37325e+07
6.36933e+07
9.30186e+07
4.79956e+07
7.6967e+07
6.36915e+07
4.64056e+07
9.27141e+07
7.06465e+07
4.23697e+07
1.13074e+08
9.11595e+07
6.40162e+07
6.34008e+07
4.52124e+07
7.56424e+07
3.28488e+07
1.47381e+08
6.29333e+07
3.21976e+07
5.22021e+07
5.20408e+07
9.5263e+07
5.65895e+07
9.87246e+07
3.62457e+07
9.9669e+07
4.89093e+07
5.29211e+07
1.31989e+08
8.08897e+07
4.70426e+07
5.84254e+07
1.10811e+08
5.48305e+07
3.4704e+07
6.5517e+07
4.5204e+07
6.23846e+07
5.31661e+07
6.72783e+07
4.54347e+07
6.32959e+07
6.22453e+07
7.46954e+07
7.63112e+07
7.22572e+07
9.25511e+07
5.68942e+07
1.05415e+08
7.36822e+07
4.99148e+07
4.45367e+07
5.93602e+07
9.69692e+07
4.70138e+07
7.74569e+07
9.42207e+07
4.51182e+07
3.37442e+07
1.7931e+07
6.38076e+07
3.63792e+07
3.8222e+07
5.98084e+07
4.32577e+07
9.17725e+07
2.47618e+07
9.84589e+07
9.70792e+07
9.62405e+07
1.12046e+08
6.82892e+07
4.81328e+07
8.59872e+07
7.76258e+07
6.0026e+07
9.49192e+07
1.0504e+08
5.52528e+07
5.54246e+07
4.84634e+07
5.45401e+07
5.82022e+07
6.23369e+07
1.03671e+08
6.69623e+07
6.82824e+07
9.18149e+07
7.5632e+07
4.59552e+07
6.01635e+07
7.7379e+07
6.00861e+07
5.97777e+07
6.28211e+07
4.99786e+07
6.02399e+07
4.5654e+07
4.84793e+07
8.57748e+07
2.38527e+07
1.99489e+08
4.60396e+07
1.01286e+08
7.71086e+07
5.66724e+07
5.81067e+07
4.91407e+07
3.22536e+07
4.89426e+07
4.76709e+07
5.77959e+07
2.27171e+07
3.33441e+07
5.88595e+07
6.39046e+07
7.40277e+07
6.72553e+07
5.5804e+07
6.14893e+07
9.88089e+07
9.46989e+07
5.4232e+07
1.17024e+08
1.02942e+08
6.18e+07
8.14858e+07
2.54702e+07
1.04833e+08
1.04384e+08
8.45759e+07
7.2004e+07
6.35081e+07
5.29498e+07
5.32702e+07
8.69977e+07
7.4664e+07
7.30886e+07
6.56879e+07
5.78611e+07
9.71999e+07
5.76428e+07
9.54867e+07
9.29225e+07
8.95607e+07
5.32435e+07
3.50747e+07
6.39112e+07
6.11349e+07
7.59048e+07
6.00448e+07
1.20931e+08
8.55289e+07
9.46531e+07
4.8104e+07
9.582e+07
6.43013e+07
7.99482e+07
9.46393e+07
6.0961e+07
5.58887e+07
5.7625e+07
7.96095e+07
5.86392e+07
8.09907e+07
8.82975e+07
5.18432e+07
7.33915e+07
3.16606e+07
4.31683e+07
5.67977e+07
6.56799e+07
6.5578e+07
5.04914e+07
5.04516e+07
7.74152e+07
4.65748e+07
1.05254e+08
5.32974e+07
5.34437e+07
2.28818e+07
8.94321e+07
1.10547e+08
2.26455e+07
9.77331e+07
2.28025e+08
1.04846e+08
9.9876e+07
5.89513e+07
7.00478e+07
4.07524e+07
6.04016e+07
8.202e+07
3.23627e+07
1.05237e+08
5.87394e+07
5.73146e+07
2.68728e+07
9.91113e+07
6.65646e+07
7.08319e+07
4.26089e+07
7.71215e+07
4.86206e+07
4.88063e+07
1.01768e+08
7.76561e+07
4.03436e+07
4.10022e+07
1.25747e+08
4.83044e+07
4.80301e+07
1.1075e+08
4.49875e+07
6.32077e+07
6.32946e+07
1.88903e+08
5.30093e+07
5.74182e+07
6.5111e+07
9.76231e+07
6.22545e+07
1.07e+08
1.11536e+08
8.75531e+07
6.10739e+07
7.79605e+07
1.12821e+08
5.19682e+07
6.04726e+07
5.65191e+07
1.03071e+08
7.76684e+07
1.0506e+08
4.55458e+07
8.04952e+07
1.12061e+08
4.66542e+07
1.03851e+08
8.70526e+07
5.8561e+07
1.03966e+08
1.06792e+08
1.1573e+08
9.36736e+07
4.56946e+07
8.36309e+07
8.28176e+07
1.11713e+08
4.58472e+07
8.85365e+07
5.7835e+07
3.53971e+07
1.07532e+08
5.94713e+07
5.63643e+07
1.91886e+07
5.99807e+07
5.9692e+07
1.12026e+08
7.46104e+07
4.8163e+07
4.76394e+07
4.7871e+07
7.64622e+07
9.36623e+07
5.00304e+07
6.49131e+07
4.37517e+07
7.32875e+07
1.00297e+08
9.58196e+07
1.07352e+08
2.33897e+07
2.45801e+07
9.79326e+07
1.00553e+08
4.60543e+07
2.27324e+07
2.21818e+07
4.7681e+07
2.6379e+07
7.53916e+07
5.42662e+07
8.78469e+07
5.33184e+07
1.22319e+08
2.76195e+07
6.81028e+07
2.91074e+07
5.1545e+07
1.04382e+08
1.03836e+08
1.07219e+08
1.07942e+08
1.0633e+08
1.0381e+08
1.01435e+08
7.31611e+07
7.93916e+07
4.54054e+07
3.39782e+07
8.33509e+07
3.29665e+07
5.89884e+07
6.8056e+07
8.84223e+07
5.0858e+07
3.57643e+07
8.46504e+07
8.89103e+07
7.7658e+07
6.59251e+07
8.04309e+07
7.81893e+07
7.31809e+07
6.46908e+07
9.08159e+07
8.88161e+07
8.76265e+07
8.99724e+07
1.09614e+08
1.0387e+08
1.14676e+08
4.81483e+07
3.79708e+07
9.4765e+07
1.06879e+08
1.45924e+08
9.3983e+07
5.05085e+07
1.03531e+08
4.92634e+07
6.05824e+07
2.05699e+07
5.63474e+07
8.81465e+07
7.77182e+07
3.12107e+07
9.82917e+07
3.25913e+07
2.80774e+07
2.78972e+07
1.28162e+08
4.62857e+07
8.08816e+07
1.11148e+08
9.25411e+07
5.38373e+07
1.0111e+08
7.10121e+07
5.88887e+07
7.17019e+07
1.03199e+08
6.14057e+07
7.18202e+07
5.55872e+07
3.84843e+07
2.67161e+07
9.86977e+07
4.28539e+07
5.29165e+07
4.37982e+07
6.73921e+07
4.41787e+07
6.68757e+07
6.7192e+07
4.54222e+07
3.09453e+07
4.04324e+07
5.69259e+07
4.51797e+07
4.48398e+07
6.31309e+07
2.50644e+07
3.39542e+07
7.09994e+07
5.10467e+07
2.50781e+07
5.77139e+07
1.00264e+08
6.0045e+07
1.23709e+08
5.59335e+07
9.5947e+07
1.14305e+08
5.7054e+07
9.56348e+07
1.03694e+08
5.79072e+07
9.58813e+07
6.45408e+07
9.58313e+07
9.64727e+07
5.73535e+07
6.18225e+07
6.05525e+07
5.17875e+07
2.92186e+07
9.06338e+07
1.05226e+08
1.09375e+08
4.90066e+07
1.00642e+08
5.49777e+07
4.51382e+07
4.90417e+07
5.32377e+07
8.73522e+07
5.31039e+07
6.11628e+07
9.02798e+07
9.03184e+07
5.95751e+07
5.78101e+07
1.16348e+08
8.82533e+07
1.02458e+08
6.54449e+07
2.35445e+07
4.17932e+07
5.37163e+07
7.95054e+07
7.3942e+07
4.62733e+07
5.11672e+07
5.1383e+07
8.26757e+07
4.97686e+07
5.04136e+07
5.05703e+07
7.61403e+07
5.13494e+07
4.66625e+07
6.40585e+07
7.8847e+07
5.74794e+07
5.69831e+07
7.15397e+07
3.99239e+07
5.81863e+07
5.82204e+07
1.37028e+08
6.02857e+07
4.56033e+07
5.31642e+07
3.40845e+07
3.85928e+07
5.61376e+07
8.82496e+07
1.09356e+08
6.4745e+07
3.88426e+07
9.80027e+07
8.18414e+07
6.57623e+07
4.56378e+07
6.56214e+07
4.54422e+07
5.33099e+07
5.07928e+07
1.08249e+08
7.05631e+07
4.07053e+07
9.1058e+07
9.29267e+07
8.2671e+07
9.45075e+07
1.08497e+08
1.02324e+08
9.80318e+07
5.44266e+07
3.34176e+07
2.01004e+08
1.14123e+08
1.06319e+08
6.63803e+07
1.12748e+08
3.27994e+07
5.6963e+07
5.26871e+07
5.26767e+07
2.97187e+07
5.31394e+07
4.64703e+07
1.18387e+08
9.63769e+07
6.73305e+07
6.39929e+07
1.09167e+08
4.71459e+07
5.56539e+07
6.57319e+07
4.51326e+07
9.95676e+07
8.55759e+07
5.87303e+07
2.78534e+07
1.04731e+08
9.43661e+07
9.1359e+07
9.63312e+07
3.23087e+07
1.11519e+08
1.00661e+08
4.8479e+07
7.53869e+07
6.07417e+07
1.02457e+08
3.94662e+07
3.9936e+07
8.0618e+07
5.86048e+07
5.91187e+07
8.90461e+07
3.08463e+07
6.11464e+07
9.9773e+07
4.11967e+07
1.0097e+08
5.14884e+07
5.35487e+07
8.19512e+07
5.91598e+07
2.29079e+07
4.62145e+07
2.22493e+07
5.28911e+07
5.27415e+07
5.10712e+07
4.13384e+07
9.88992e+07
5.89008e+07
3.76378e+07
9.02255e+07
9.2327e+07
6.0139e+07
6.13601e+07
3.46411e+07
3.40581e+07
9.56332e+07
9.75418e+07
9.37719e+07
6.91567e+07
4.80901e+07
1.20012e+08
4.93521e+07
2.51623e+07
4.73619e+07
6.61971e+07
4.3513e+07
1.02159e+08
5.59138e+07
6.72066e+07
7.00494e+07
7.93659e+07
8.42478e+07
9.80991e+07
4.71048e+07
7.65246e+07
7.72584e+07
4.43843e+07
1.05207e+08
7.19204e+07
4.98491e+07
7.74443e+07
5.07361e+07
7.8645e+07
7.80546e+07
1.06025e+08
3.78225e+07
4.89017e+07
4.86605e+07
2.10304e+08
1.7248e+08
4.72846e+07
5.88176e+07
6.52517e+07
4.35443e+07
1.00114e+08
3.82541e+07
5.82768e+07
8.58861e+07
6.34381e+07
4.47243e+07
9.02899e+07
1.07989e+08
3.7505e+07
6.35426e+07
9.90708e+07
6.41939e+07
9.92597e+07
1.6206e+08
5.89911e+07
5.95014e+07
3.14996e+07
5.31542e+07
1.02837e+08
6.97636e+07
7.05543e+07
9.55805e+07
3.0209e+07
1.07241e+08
4.46861e+07
9.93342e+07
7.24784e+07
9.95468e+07
7.92146e+07
6.6721e+07
3.99231e+07
6.4839e+07
1.15529e+08
5.19662e+07
1.02564e+08
6.76434e+07
1.02093e+08
6.00984e+07
6.23745e+07
5.5112e+07
5.4768e+07
4.51729e+07
6.18968e+07
9.97034e+07
6.79619e+07
6.51444e+07
4.77851e+07
5.55971e+07
5.87927e+07
9.29966e+07
7.54979e+07
9.44332e+07
1.11443e+08
7.62466e+07
5.25037e+07
5.38337e+07
3.69651e+07
4.81058e+07
4.80257e+07
5.35781e+07
1.10333e+08
5.40557e+07
1.02324e+08
9.86626e+07
9.34374e+07
4.98242e+07
4.98202e+07
1.00066e+08
6.44879e+07
4.38808e+07
1.12471e+08
6.93687e+07
5.40591e+07
9.33429e+07
5.58686e+07
5.37234e+07
1.22905e+08
1.14171e+08
1.0213e+08
7.86322e+07
7.84565e+07
1.1125e+08
6.66265e+07
9.15012e+07
8.61797e+07
1.15517e+08
7.18511e+07
7.18945e+07
6.52652e+07
4.67306e+07
8.36282e+07
9.84482e+07
4.44724e+07
4.42909e+07
6.88992e+07
1.1021e+08
5.83654e+07
4.57349e+07
4.248e+07
5.12857e+07
1.74944e+08
7.41323e+07
9.5334e+07
3.63917e+07
3.53715e+07
7.21249e+07
4.47889e+07
5.94509e+07
1.37159e+08
5.99159e+07
4.2272e+07
4.83725e+07
5.24294e+07
5.0533e+07
7.12872e+07
5.37745e+07
7.88407e+07
3.41576e+07
1.06722e+08
1.01951e+08
8.45509e+07
4.44342e+07
4.28719e+07
5.94938e+07
9.94389e+07
5.79117e+07
1.04351e+08
6.2392e+07
6.14438e+07
1.49353e+08
1.02464e+08
5.86046e+07
2.48697e+07
2.50668e+07
1.54532e+08
4.41322e+07
5.89733e+07
5.02785e+07
5.50191e+07
9.53512e+07
5.60507e+07
4.76699e+07
7.59855e+07
4.56707e+07
2.2824e+07
5.9103e+07
9.69406e+07
5.22884e+07
8.43077e+07
5.01744e+07
4.64926e+07
9.79464e+07
8.31187e+07
6.57641e+07
1.34311e+08
7.08958e+07
9.57811e+07
9.96375e+07
9.73805e+07
1.11975e+08
4.24221e+07
6.44991e+07
5.95421e+07
4.88855e+07
5.30757e+07
9.10858e+07
7.99993e+07
7.77684e+07
4.04624e+07
4.81876e+07
4.94417e+07
9.42844e+07
7.44057e+07
7.37026e+07
6.21498e+07
4.59538e+07
4.04921e+07
4.05615e+07
5.23566e+07
3.90688e+07
3.14501e+07
4.82374e+07
6.71014e+07
7.71548e+07
1.34637e+08
2.84027e+07
5.74295e+07
2.83907e+07
2.46303e+07
4.40694e+07
1.27615e+08
1.09454e+08
6.98993e+07
7.59523e+07
5.27988e+07
1.39864e+08
4.49444e+07
3.98231e+07
9.56939e+07
1.92977e+07
4.78647e+07
4.83232e+07
1.14822e+08
8.92667e+07
7.74226e+07
1.2822e+08
3.93857e+07
4.95471e+07
5.22508e+07
9.80068e+07
8.80155e+07
7.56816e+07
1.00316e+08
1.22853e+08
4.37225e+07
5.91272e+07
9.86997e+07
7.81019e+07
3.69429e+07
1.00979e+08
6.64056e+07
4.7703e+07
4.90447e+07
3.44452e+07
6.72003e+07
4.98042e+07
1.04876e+08
5.60836e+07
5.53602e+07
4.0539e+07
4.07576e+07
5.57923e+07
4.83896e+07
4.81962e+07
5.20213e+07
9.87437e+07
9.59695e+07
9.75913e+07
4.74414e+07
7.10666e+07
1.13715e+08
9.3191e+07
9.24309e+07
7.91126e+07
3.87871e+07
3.92892e+07
9.08825e+07
9.65027e+07
9.50788e+07
6.50445e+07
4.44315e+07
5.94743e+07
9.17713e+07
1.00514e+08
1.32989e+08
1.04986e+08
9.18292e+07
8.61647e+07
1.00001e+08
3.81848e+07
5.95232e+07
7.93309e+07
1.14305e+08
5.84485e+07
9.97132e+07
5.34653e+07
4.68619e+07
4.64907e+07
4.63403e+07
4.56164e+07
9.18556e+07
8.36919e+07
8.41351e+07
4.96713e+07
1.29433e+08
7.57703e+07
4.83591e+07
8.59353e+07
8.96641e+07
5.66075e+07
5.06814e+07
6.61572e+07
4.45296e+07
5.56582e+07
4.54573e+07
1.22493e+08
7.62484e+07
6.67623e+07
9.45057e+07
6.12877e+07
5.96353e+07
4.32363e+07
7.92365e+07
1.00245e+08
4.23103e+07
4.22868e+07
5.94089e+07
5.93816e+07
6.11257e+07
9.58411e+07
8.97632e+07
1.09285e+08
2.84766e+07
5.25676e+07
5.2047e+07
7.53865e+07
8.51171e+07
9.51546e+07
4.60137e+07
9.71837e+07
7.13588e+07
7.80781e+07
7.55537e+07
1.11781e+08
5.22969e+07
5.42058e+07
5.4132e+07
1.36563e+08
4.60421e+07
4.62979e+07
1.45795e+08
5.12255e+07
7.52974e+07
2.06822e+07
4.66749e+07
7.87191e+07
1.47744e+08
6.80099e+07
5.14319e+07
5.91805e+07
1.34722e+08
8.35928e+07
4.99111e+07
1.06683e+08
9.08085e+07
5.94946e+07
2.36487e+07
5.29646e+07
7.28536e+07
3.56549e+07
1.59016e+08
4.94664e+07
4.60243e+07
4.17962e+07
9.63845e+07
1.33136e+08
1.1017e+08
9.07625e+07
6.07488e+07
4.55388e+07
7.53246e+07
1.27431e+08
5.75547e+07
4.62089e+07
9.10314e+07
8.57735e+07
5.50744e+07
2.76302e+07
5.54596e+07
7.59492e+07
7.53309e+07
8.77538e+07
9.94368e+07
6.07653e+07
6.05717e+07
3.73106e+07
9.8393e+07
6.16321e+07
8.88854e+07
6.05425e+07
5.74041e+07
5.95422e+07
8.65665e+07
6.02667e+07
6.21686e+07
1.04829e+08
1.22285e+08
6.5353e+07
4.81338e+07
7.77647e+07
9.93277e+07
3.57373e+07
7.5745e+07
6.66331e+07
4.41613e+07
5.35064e+07
1.19835e+08
6.31698e+07
4.5425e+07
9.49827e+07
6.8778e+07
4.36602e+07
6.4627e+07
6.40809e+07
3.70573e+07
8.7096e+07
4.26419e+07
7.19157e+07
6.75721e+07
4.55793e+07
4.54727e+07
5.76327e+07
6.38992e+07
3.51834e+07
7.97057e+07
6.75812e+07
8.60201e+07
8.6357e+07
4.81114e+07
1.20686e+08
9.54358e+07
6.40778e+07
4.63373e+07
1.04503e+08
6.22517e+07
5.94888e+07
1.16797e+08
9.8388e+07
7.39692e+07
8.00457e+07
3.30699e+07
4.38322e+07
5.92675e+07
8.28235e+07
9.25167e+07
8.90046e+07
4.89473e+07
7.60246e+07
1.02556e+08
8.88297e+07
9.63568e+07
6.85996e+07
6.16016e+07
7.61453e+07
5.83763e+07
6.11761e+07
6.23173e+07
1.02941e+08
6.28822e+07
1.01918e+08
6.8268e+07
4.20281e+07
5.99412e+07
4.4894e+07
1.06869e+08
8.52436e+07
4.87307e+07
6.75427e+07
8.79172e+07
6.35774e+07
8.54909e+07
9.8891e+07
6.23013e+07
7.66337e+07
7.80164e+07
4.5532e+07
2.96812e+07
6.491e+07
9.75873e+07
5.75203e+07
7.07457e+07
3.71449e+07
1.103e+08
9.17459e+07
5.15755e+07
9.58108e+07
5.92677e+07
1.10508e+08
6.00906e+07
7.64399e+07
9.44004e+07
6.39994e+07
4.46554e+07
6.36767e+07
5.29298e+07
3.77698e+07
9.52865e+07
9.65004e+07
5.84093e+07
4.09758e+07
7.40281e+07
4.91776e+07
1.0353e+08
8.83218e+07
1.04238e+08
7.17101e+07
8.57624e+07
5.0104e+07
9.2693e+07
5.95655e+07
6.44682e+07
6.84652e+07
8.25802e+07
7.74036e+07
4.59023e+07
5.20748e+07
6.07333e+07
4.55389e+07
4.84566e+07
1.07811e+08
5.61171e+07
5.40366e+07
4.17832e+07
6.83061e+07
5.1533e+07
4.59716e+07
9.19204e+07
5.16487e+07
8.30823e+07
6.40079e+07
5.13111e+07
7.0925e+07
8.65595e+07
4.12142e+07
1.07504e+08
7.92035e+07
7.10013e+07
5.45059e+07
9.4652e+07
5.28712e+07
4.30733e+07
5.94127e+07
4.21751e+07
5.9441e+07
1.05586e+08
4.88022e+07
9.81067e+07
6.78999e+07
5.73549e+07
5.41044e+07
1.10439e+08
1.00586e+08
9.6542e+07
5.26008e+07
6.08006e+07
6.9479e+07
6.85693e+07
4.44542e+07
5.34378e+07
6.96615e+07
4.26912e+07
9.96068e+07
7.01005e+07
7.02912e+07
4.27956e+07
5.24055e+07
5.23062e+07
9.87482e+07
1.1241e+08
9.79804e+07
1.05484e+08
4.89341e+07
1.08242e+08
1.03695e+08
5.83452e+07
5.80076e+07
6.09128e+07
6.08566e+07
7.95178e+07
6.27461e+07
5.28361e+07
1.00882e+08
5.7143e+07
4.86947e+07
7.17315e+07
6.90923e+07
4.26292e+07
5.24635e+07
4.77883e+07
4.72757e+07
9.13377e+07
7.8127e+07
1.12737e+08
5.99288e+07
3.33312e+07
3.25498e+07
4.91479e+07
6.68812e+07
6.4486e+07
5.30931e+07
9.90191e+07
5.41908e+07
1.06507e+08
5.38666e+07
5.9556e+07
3.61724e+07
8.55563e+07
5.49583e+07
3.37984e+07
7.42274e+07
7.49249e+07
8.59676e+07
1.07064e+08
7.61926e+07
7.74537e+07
2.65934e+07
5.3388e+07
1.07126e+08
1.00974e+08
1.00862e+08
6.68799e+07
4.43098e+07
6.77613e+07
8.89951e+07
5.29749e+07
5.80313e+07
5.72541e+07
1.93705e+08
3.43237e+07
1.02794e+08
4.66978e+07
1.00986e+08
1.15086e+08
6.16537e+07
4.81944e+07
4.77955e+07
6.59282e+07
4.32977e+07
6.89704e+07
9.92701e+07
1.08989e+08
7.33159e+07
3.06224e+07
7.56544e+07
5.10254e+07
8.58014e+07
6.37921e+07
5.06534e+07
5.07788e+07
9.91103e+07
7.04383e+07
7.21253e+07
8.64863e+07
4.76119e+07
8.79831e+07
5.39466e+07
1.02224e+08
8.57978e+07
6.2367e+07
6.57076e+07
7.32373e+07
5.34455e+07
6.41859e+07
6.47486e+07
8.08011e+07
4.66936e+07
8.05579e+07
9.61834e+07
6.52698e+07
6.61669e+07
9.92551e+07
5.59132e+07
1.08009e+08
6.03865e+07
6.34962e+07
1.11169e+08
3.21556e+07
5.80182e+07
3.19469e+07
4.54124e+07
3.71855e+07
4.15375e+07
3.14842e+07
6.45232e+07
4.41739e+07
4.54913e+07
1.01309e+08
5.76004e+07
1.02382e+08
6.7437e+07
4.2905e+07
7.66654e+07
6.82791e+07
7.00462e+07
6.95458e+07
8.16263e+07
6.67766e+07
1.04665e+08
1.02906e+08
7.86318e+07
6.01843e+07
2.78879e+07
6.21344e+07
5.53392e+07
1.03652e+08
4.08557e+07
1.26648e+08
4.75589e+07
6.25415e+07
6.19707e+07
1.10668e+08
9.69668e+07
9.65505e+07
2.6388e+07
4.98366e+07
5.37081e+07
8.203e+07
9.42402e+07
8.46521e+07
6.36276e+07
5.65344e+07
5.65334e+07
8.15326e+07
1.18936e+08
3.54297e+07
1.0573e+08
5.35175e+07
5.37294e+07
4.77541e+07
8.40706e+07
4.58442e+07
4.54756e+07
6.22779e+07
5.95017e+07
7.40964e+07
7.71506e+07
3.76431e+07
5.98027e+07
3.75826e+07
8.42809e+07
1.23693e+08
6.70054e+07
4.68023e+07
6.46875e+07
6.43762e+07
5.26667e+07
5.19422e+07
7.84006e+07
4.3653e+07
1.00937e+08
9.63998e+07
8.18934e+07
5.95628e+07
5.24522e+07
5.56683e+07
5.19781e+07
4.76233e+07
6.28594e+07
7.01309e+07
7.59241e+07
7.50651e+07
7.02551e+07
7.00839e+07
5.34223e+07
5.69334e+07
4.79298e+07
9.83178e+07
7.8622e+07
8.40069e+07
3.36693e+07
1.34735e+08
3.79655e+07
5.14287e+07
6.66989e+07
4.32411e+07
6.82634e+07
4.21848e+07
1.43249e+08
8.81534e+07
1.4276e+08
9.1796e+07
6.82812e+07
6.23681e+07
9.63197e+07
1.19018e+08
5.94931e+07
2.87801e+07
9.06638e+07
8.59153e+07
1.43668e+08
7.23454e+07
5.41525e+07
1.06286e+08
8.42468e+07
6.99062e+07
4.29045e+07
5.84614e+07
1.01856e+08
1.05451e+08
5.49688e+07
3.51297e+07
1.37856e+08
6.26132e+07
3.08468e+07
8.17014e+07
3.71116e+07
6.70462e+07
4.335e+07
6.1881e+07
1.04504e+08
5.2475e+07
7.24624e+07
1.01856e+08
6.96648e+07
5.36697e+07
6.98027e+07
5.55757e+07
1.14814e+08
9.93831e+07
6.57687e+07
1.05266e+08
7.3219e+07
5.55174e+07
3.86288e+07
7.24275e+07
8.00401e+07
1.01556e+08
1.00924e+08
1.05334e+08
9.10701e+07
8.51588e+07
5.82469e+07
6.54977e+07
4.69995e+07
5.87244e+07
4.75971e+07
4.78791e+07
2.44919e+07
6.84562e+07
4.4474e+07
1.33139e+08
9.60284e+07
9.57927e+07
1.03947e+08
8.60691e+07
4.83105e+07
5.95681e+07
7.56659e+07
5.05218e+07
4.39593e+07
5.91618e+07
5.94906e+07
6.7333e+07
1.01587e+08
6.60735e+07
4.31181e+07
6.78749e+07
3.95276e+07
8.26421e+07
5.92807e+07
4.37779e+07
9.11693e+07
3.2432e+07
4.41964e+07
7.79224e+07
6.44533e+07
3.50558e+07
4.18886e+07
1.09734e+08
4.42677e+07
5.94615e+07
5.14392e+07
7.13853e+07
8.67113e+07
7.77975e+07
5.00642e+07
5.47575e+07
9.43745e+07
1.18765e+08
6.8796e+07
3.35397e+07
5.5877e+07
4.55862e+07
1.01495e+08