/*--------------------------------*- C++ -*----------------------------------*\
| =========                 |                                                 |
| \\      /  F ield         | OpenFOAM: The Open Source CFD Toolbox           |
|  \\    /   O peration     | Version:  v2012                                 |
|   \\  /    A nd           | Website:  www.openfoam.com                      |
|    \\/     M anipulation  |                                                 |
\*---------------------------------------------------------------------------*/
FoamFile
{
    version     2.0;
    format      ascii;
    class       volSymmTensorField;
    location    "5";
    object      sigma;
}
// * * * * * * * * * * * * * * * * * * * * * * * * * * * * * * * * * * * * * //

dimensions      [1 -1 -2 0 0 0 0];


internalField   nonuniform List<symmTensor> 
7666
(
(1.96556e+07 -4.35268e+06 -3.18929e-09 -1.07228e+06 -2.99323e-10 6.03447e+06)
(5.56739e+07 -1.28495e+07 1.11454e-08 7.45362e+06 1.97628e-09 1.93896e+07)
(1.91591e+08 -3.55457e+07 -3.95913e-08 2.13112e+07 -1.55668e-08 6.21825e+07)
(6.45909e+07 -1.66662e+07 -4.59326e-09 3.53861e+06 -9.23137e-09 2.04302e+07)
(9.10141e+07 -1.07503e+07 4.05804e-10 -1.34982e+07 2.35895e-10 2.31899e+07)
(1.07045e+08 1.64826e+06 8.09303e-09 -5.76185e+06 6.79138e-09 2.98202e+07)
(6.69031e+07 -2.20348e+06 3.32449e-08 8.44294e+06 1.00459e-08 2.25985e+07)
(6.81934e+07 -1.51931e+07 -1.65538e-09 4.03942e+06 1.20926e-09 2.1346e+07)
(1.1884e+08 619732 -2.01714e-08 -113693 -1.49206e-08 3.52326e+07)
(6.65174e+07 -4.48788e+06 -1.81174e-09 1.11809e+07 -7.25604e-10 2.32131e+07)
(4.79392e+07 -1.54877e+07 0 3.79948e+06 0 1.53154e+07)
(7.03706e+07 -6.43122e+06 -8.63435e-09 2.92761e+06 6.83424e-09 2.18555e+07)
(6.6662e+07 -1.53968e+07 -8.66483e-09 4.36586e+06 2.49391e-09 2.09461e+07)
(6.21303e+07 -1.30504e+07 -6.06654e-09 6.99833e+06 -2.01348e-09 2.09068e+07)
(6.68614e+07 -1.54219e+06 0 1.16575e+07 0 2.34241e+07)
(9.98423e+07 -1.49746e+07 4.88738e-08 -1.17077e+07 2.62699e-08 2.81208e+07)
(6.70413e+07 -1.52671e+07 2.13382e-08 4.22567e+06 2.3713e-09 2.16802e+07)
(1.15219e+08 -2.0944e+06 -1.17775e-09 -502172 -9.51963e-09 3.41465e+07)
(7.31826e+07 -9.60851e+06 1.17931e-08 2.60451e+06 4.55831e-09 2.26197e+07)
(6.01767e+07 -8.62985e+06 -7.00828e-09 9.85597e+06 9.60369e-10 2.12519e+07)
(5.05271e+07 -3.65041e+06 1.33476e-08 1.07509e+07 -8.62867e-10 1.83125e+07)
(8.78145e+07 -1.12119e+07 2.05813e-08 -111809 -6.49837e-09 2.60415e+07)
(6.40663e+07 -1.32512e+07 -5.30111e-09 6.36369e+06 2.06607e-09 2.13069e+07)
(6.00803e+07 -1.81303e+07 1.273e-08 1.62172e+06 1.8454e-09 1.82854e+07)
(1.0777e+08 4.79004e+06 1.381e-09 -1.08523e+07 2.95049e-09 2.88149e+07)
(6.67054e+07 -1.96006e+06 -1.62048e-08 1.20376e+07 -7.64396e-09 2.36869e+07)
(1.07685e+08 5.07669e+06 -6.18021e-09 -1.05866e+07 -3.27868e-09 2.93056e+07)
(3.54579e+07 -1.7388e+07 1.17724e-09 -1.66376e+06 -4.16114e-10 1.01802e+07)
(6.65339e+07 -1.52034e+07 3.12207e-09 4.3149e+06 8.78876e-10 2.14787e+07)
(6.75284e+07 -805594 -3.33158e-09 731325 6.62087e-09 2.04299e+07)
(6.9047e+07 -1.03036e+06 -1.34466e-09 185248 -1.63826e-10 2.06553e+07)
(1.12859e+08 -2.39874e+06 -2.46766e-08 -190311 -1.29196e-08 3.40252e+07)
(1.80591e+07 -1.39415e+07 -3.21862e-09 -1.2317e+07 -2.44234e-09 1.66983e+06)
(6.77006e+07 -2.71785e+06 -2.56813e-08 3.00253e+06 -6.49726e-09 2.10758e+07)
(6.36553e+06 -1.20851e+07 2.43034e-08 -2.73408e+07 1.09868e-08 -5.8809e+06)
(5.61413e+07 -9.51014e+06 4.81937e-09 9.46868e+06 2.15435e-09 1.94771e+07)
(5.5424e+07 -8.98359e+06 -1.03166e-08 9.7454e+06 -8.01432e-10 1.96171e+07)
(6.8931e+07 -2.28845e+06 3.02833e-08 1.09349e+06 1.82485e-08 2.08405e+07)
(1.04916e+08 -4.63078e+06 -4.89539e-08 -2.54446e+06 -3.05368e-08 3.03568e+07)
(6.60392e+07 -6.03808e+06 6.91351e-09 1.02239e+07 1.85273e-09 2.29382e+07)
(5.4232e+07 -2.17289e+07 2.03664e-08 -2.72004e+07 2.16075e-08 8.01074e+06)
(1.36533e+08 1.05119e+07 1.24372e-08 1.36486e+07 5.72064e-09 4.43286e+07)
(1.28712e+08 3.09837e+06 -1.80039e-08 2.02641e+07 -7.62269e-09 4.47937e+07)
(4.47994e+07 -1.96101e+07 -2.76489e-08 -3.28079e+06 -8.38973e-09 1.23182e+07)
(1.11701e+08 8.12595e+06 -1.04866e-09 1.10927e+07 4.26976e-09 3.70947e+07)
(6.685e+07 -2.01382e+06 1.63006e-08 9.67415e+06 2.92215e-09 2.27271e+07)
(1.11923e+08 2.09162e+06 -4.19117e-08 -2.58284e+06 -2.97962e-08 3.29748e+07)
(5.3929e+07 -2.15587e+07 8.04875e-09 -2.54628e+07 3.81485e-09 9.08115e+06)
(7.13389e+07 -2.05239e+07 -1.11151e-08 -2.18014e+07 -8.23233e-09 1.5405e+07)
(3.77443e+07 -4.53757e+06 -6.69101e-10 8.12563e+06 -2.87278e-09 1.42265e+07)
(3.47595e+07 -1.65542e+07 7.24127e-09 -2.64078e+06 2.4473e-09 9.40431e+06)
(8.77212e+07 -6.81516e+06 -1.57008e-09 456474 -5.80342e-09 2.61461e+07)
(6.68616e+07 -1.31474e+06 -3.40477e-09 7.02943e+06 8.33034e-10 2.23277e+07)
(1.18965e+08 1.20632e+06 -2.46203e-08 -81777.9 -1.81401e-08 3.58118e+07)
(4.56309e+07 -1.95729e+06 3.91022e-09 1.03723e+07 1.54371e-09 1.70733e+07)
(1.02209e+08 -1.68409e+07 4.84725e-09 -1.05918e+07 8.72153e-09 2.64023e+07)
(3.84768e+07 -6.04216e+06 2.82137e-09 7.90179e+06 2.18061e-09 1.41691e+07)
(3.91721e+07 -5.08263e+06 -3.29904e-09 8.07726e+06 -2.62984e-10 1.37303e+07)
(1.1045e+08 1.55008e+06 2.18623e-08 -1.63328e+07 1.4446e-08 2.84196e+07)
(1.07529e+08 1.34434e+06 -8.25626e-09 -5.72964e+06 -6.06768e-09 3.08888e+07)
(4.48148e+07 -9.00324e+06 -8.38029e-09 8.30201e+06 3.8406e-11 1.61077e+07)
(6.85158e+07 -1.94109e+06 -1.16398e-08 958955 6.57981e-09 2.0977e+07)
(6.36334e+07 -1.51218e+07 -1.01405e-09 5.24726e+06 3.63542e-09 2.0798e+07)
(6.44759e+07 -1.50676e+07 5.88449e-09 5.1445e+06 -1.8529e-09 2.06285e+07)
(3.80296e+07 -8.09195e+06 -7.41374e-09 6.70422e+06 -5.02743e-10 1.32446e+07)
(7.27808e+07 -1.94981e+07 -1.83164e-08 -1.9012e+07 -9.23458e-09 1.60929e+07)
(6.48401e+07 -4.71359e+06 -1.81128e-08 1.28516e+07 -4.67652e-09 2.30945e+07)
(3.81779e+07 -7.20845e+06 -1.52665e-09 7.25978e+06 -1.16624e-09 1.38707e+07)
(1.11952e+08 -6.60069e+06 -2.77035e-08 -1.28988e+07 -1.809e-08 3.01614e+07)
(1.09453e+08 2.4723e+06 0 -1.55242e+07 0 2.78721e+07)
(1.15681e+08 -4.03147e+06 9.96729e-09 -1.27887e+07 1.19709e-09 3.05415e+07)
(6.6674e+07 -911207 -1.7642e-09 1.90709e+07 -4.23562e-09 2.58463e+07)
(6.64171e+07 -908448 -1.65955e-08 1.9212e+07 -2.97347e-09 2.56385e+07)
(6.70749e+07 -454511 -7.94843e-10 622011 -1.58357e-09 2.03067e+07)
(6.71955e+07 -499434 -6.96466e-10 518431 -1.43424e-09 2.03016e+07)
(6.68264e+07 -197593 -5.34196e-10 7.7709e+06 1.54925e-09 2.2362e+07)
(9.15387e+07 6.77513e+06 3.06772e-08 6.20432e+06 1.58166e-08 2.95892e+07)
(6.12608e+07 -1.38727e+07 -1.89494e-08 6.51781e+06 -1.17898e-09 2.05862e+07)
(6.22605e+07 -1.39015e+07 0 6.28171e+06 0 2.03608e+07)
(4.6232e+07 -9.70298e+06 5.83092e-09 8.20169e+06 2.42962e-10 1.61507e+07)
(6.72061e+07 -5.02272e+06 -1.2278e-08 6.84094e+06 -1.22581e-09 2.23287e+07)
(6.63579e+07 -2.31893e+06 1.47049e-08 1.6152e+07 1.75048e-09 2.47536e+07)
(5.54086e+07 -2.20305e+07 5.03585e-09 -8.09429e+06 1.84204e-09 1.41883e+07)
(1.28148e+08 4.34546e+06 2.12006e-08 1.73539e+07 6.44439e-09 4.35802e+07)
(7.26809e+07 -5.17686e+06 -1.47069e-08 1.26777e+06 2.00155e-09 2.18784e+07)
(8.43952e+07 -2.11092e+06 1.23077e-08 -189774 -5.67177e-09 2.56135e+07)
(8.4689e+07 -2.40313e+06 -8.53485e-09 200730 -1.66004e-08 2.50389e+07)
(8.92279e+07 -8.98417e+06 -2.5057e-08 220831 -4.12297e-09 2.71143e+07)
(6.65003e+07 -2.12199e+07 2.45713e-08 -2.26195e+07 9.7408e-09 1.24937e+07)
(6.84461e+07 -1.40281e+06 -8.61874e-09 580456 8.05659e-10 2.06316e+07)
(6.65878e+07 -1.01273e+07 -1.76939e-09 6.89567e+06 -5.36204e-10 2.2032e+07)
(6.65957e+07 -9.92852e+06 5.89531e-09 6.96111e+06 -4.5022e-09 2.21389e+07)
(9.05877e+07 -292954 -2.9068e-08 207602 -2.36454e-09 2.71582e+07)
(1.2112e+08 5.78946e+06 -8.3704e-08 -8.55899e+06 -7.12178e-08 3.43153e+07)
(1.07968e+08 415359 3.09484e-08 -211602 9.38724e-09 3.22321e+07)
(8.59805e+07 -1.44838e+07 -2.83629e-08 -2.27954e+07 -2.01424e-08 1.94366e+07)
(-1.15942e+06 -7.3218e+06 -7.75534e-09 -4.05489e+07 -7.63942e-09 -1.30311e+07)
(1.98726e+08 -3.9713e+07 -3.13219e-08 1.848e+07 -1.17032e-08 6.54827e+07)
(7.32611e+07 -9.28229e+06 1.24601e-08 2.4689e+06 3.59355e-09 2.27444e+07)
(6.03167e+07 -8.19778e+06 -5.99675e-09 1.01046e+07 -4.35013e-09 2.10359e+07)
(9.13725e+07 -1.13348e+06 8.09806e-09 68173.8 -1.04546e-08 2.72283e+07)
(6.75175e+07 -692324 -1.14656e-08 550129 -7.84599e-10 2.03614e+07)
(2.52044e+07 -1.69316e+07 -1.59765e-09 -8.06352e+06 -5.85662e-10 5.59039e+06)
(1.4859e+08 3.71932e+06 -2.47241e-08 1.09289e+07 -1.58062e-08 4.78328e+07)
(3.36208e+07 -2.1196e+07 -2.71973e-08 -1.88794e+07 -9.48254e-09 4.30751e+06)
(1.03151e+08 -6.4192e+06 1.04934e-08 -2.42777e+06 2.95435e-09 3.03265e+07)
(1.25404e+08 9.24801e+06 -2.82193e-08 1.56423e+07 -2.12607e-08 4.28976e+07)
(9.12077e+07 -1.12581e+07 -5.14045e-09 -8.26684e+06 -3.24945e-09 2.54181e+07)
(6.68132e+07 -2.08925e+06 1.22389e-08 8.53518e+06 2.4124e-09 2.26502e+07)
(8.86842e+07 -5.27622e+06 -8.73505e-09 280648 8.67066e-09 2.62324e+07)
(6.04338e+07 -1.54017e+07 5.73773e-09 5.28414e+06 6.11396e-09 1.96017e+07)
(8.50214e+07 -1.41774e+07 3.09146e-09 -6.04084e+06 1.98592e-09 2.34072e+07)
(5.23153e+07 -1.50262e+07 7.12703e-09 5.54307e+06 -7.2905e-10 1.75806e+07)
(4.51481e+07 -8.51555e+06 -2.29035e-09 8.64715e+06 2.71108e-09 1.57189e+07)
(4.51581e+07 -1.53631e+07 1.85927e-08 3.5422e+06 2.75471e-09 1.41639e+07)
(9.644e+07 -7.39634e+06 -2.24895e-08 -1.26011e+07 -1.41977e-08 2.49305e+07)
(3.81158e+07 -1.61226e+07 -2.11596e-09 131422 -1.41092e-09 1.14049e+07)
(4.93025e+06 -9.82654e+06 -7.29108e-10 -4.02089e+07 -4.60288e-10 -1.07005e+07)
(6.97969e+07 -3.25036e+06 1.79123e-09 1.26624e+06 -1.3925e-10 2.13197e+07)
(6.99854e+07 -3.5115e+06 1.01075e-09 1.31484e+06 4.73342e-09 2.13929e+07)
(1.14432e+08 141852 9.72537e-09 -828143 5.58378e-09 3.40238e+07)
(6.68912e+07 -330780 -1.60479e-08 711052 -6.97075e-09 2.03597e+07)
(6.89377e+07 -7.10971e+06 3.74913e-09 4.42163e+06 -6.93435e-09 2.21459e+07)
(6.66985e+07 -2.68433e+06 1.9512e-08 1.20743e+07 3.94413e-09 2.36764e+07)
(5.8912e+07 -1.83401e+07 -2.44245e-09 1.68054e+06 -4.90039e-10 1.8399e+07)
(3.78212e+07 -409866 -5.2134e-09 8.28289e+06 -5.04517e-10 1.38305e+07)
(9.13514e+07 -1.12983e+07 1.66539e-08 -7.46866e+06 7.07868e-09 2.45825e+07)
(8.12161e+07 -1.55516e+07 -1.62666e-08 -2.56208e+06 -5.4338e-09 2.36896e+07)
(6.60923e+07 -1.94561e+07 -1.6853e-08 -2.60022e+06 -1.04611e-08 1.90839e+07)
(6.73027e+07 -1.22635e+07 0 5.63013e+06 0 2.19515e+07)
(1.01504e+08 -1.85059e+07 -1.99142e-08 -4.85774e+06 -2.12111e-08 2.88842e+07)
(7.77489e+07 -6.89948e+06 -9.4935e-10 757806 4.75518e-09 2.37098e+07)
(5.65223e+07 -5.52549e+06 -3.80256e-09 1.10363e+07 1.6355e-09 2.01499e+07)
(8.94718e+07 2.3035e+06 -2.25986e-08 6.17175e+06 -9.22979e-09 2.88157e+07)
(6.90805e+07 -6.91191e+06 -5.67553e-09 4.37081e+06 -6.69013e-10 2.19352e+07)
(1.0259e+08 -5.83542e+06 -1.43314e-08 -1.59977e+06 -2.975e-09 3.04557e+07)
(6.71037e+07 -4.83826e+06 -1.69399e-09 7.23595e+06 -3.12744e-09 2.22793e+07)
(6.63914e+07 -5.90533e+06 8.84201e-09 9.91403e+06 2.69059e-09 2.28521e+07)
(6.42968e+07 -1.14014e+07 1.15243e-08 7.47982e+06 3.86621e-09 2.14368e+07)
(5.87698e+07 -1.74714e+07 -9.77049e-09 3.1742e+06 1.03583e-09 1.84939e+07)
(6.67119e+07 -1.91731e+07 -1.5147e-08 -2.59612e+06 -5.58637e-09 1.9391e+07)
(6.64825e+07 -1.93833e+06 9.11858e-09 1.67184e+07 2.49397e-09 2.49912e+07)
(6.37257e+07 -1.32393e+06 6.65365e-09 1.42828e+07 -1.06561e-09 2.3394e+07)
(6.3921e+07 -965962 8.44729e-09 1.45936e+07 9.97264e-10 2.36134e+07)
(6.44789e+07 -5.02359e+06 6.92832e-09 1.25671e+07 4.22487e-09 2.32612e+07)
(6.42638e+07 -8.45865e+06 4.22764e-09 9.51145e+06 6.29305e-09 2.21146e+07)
(6.67881e+07 -2.78582e+06 -1.13741e-08 9.03231e+06 -3.27477e-09 2.26286e+07)
(6.6703e+07 -1.57385e+06 6.09078e-10 1.72722e+07 1.91893e-09 2.50286e+07)
(2.22241e+07 -7.58828e+06 3.99624e-09 -1.85263e+06 6.18859e-10 5.75279e+06)
(7.07784e+07 -1.27427e+07 -4.63359e-09 4.09711e+06 4.10553e-09 2.21584e+07)
(6.65706e+07 -4.32986e+06 -2.70929e-08 1.10864e+07 -1.84373e-09 2.34454e+07)
(6.76085e+07 -2.06973e+07 9.15433e-09 -2.41105e+07 -1.94013e-09 1.38208e+07)
(4.59983e+07 -1.02155e+07 -6.61163e-09 7.98324e+06 -1.49714e-09 1.65256e+07)
(4.68571e+07 -2.23955e+07 1.80512e-08 -2.53024e+07 1.92665e-08 7.17543e+06)
(6.1702e+07 -5.24837e+06 -9.03978e-09 1.1859e+07 -1.31243e-09 2.2182e+07)
(6.20598e+07 -4.79007e+06 6.94896e-09 1.20646e+07 -1.95821e-09 2.21787e+07)
(5.30319e+07 -2.19986e+07 -1.6714e-08 -2.59073e+07 -1.08145e-08 7.52103e+06)
(7.07089e+07 -1.87492e+07 -7.91591e-09 -4.66826e+06 -4.13677e-10 2.00048e+07)
(6.25581e+07 -1.82228e+07 -2.89395e-09 1.53593e+06 -3.01181e-09 1.95113e+07)
(6.70975e+07 -2.2294e+06 -1.30992e-08 4.1272e+06 -4.57965e-09 2.155e+07)
(1.33358e+08 1.10309e+07 -1.80724e-09 5.18886e+06 -1.43681e-09 4.12356e+07)
(8.23112e+07 678082 0 -762026 0 2.44462e+07)
(8.63814e+07 -1.20973e+07 -9.35796e-09 -243535 -1.95955e-09 2.61508e+07)
(1.30773e+08 9.32527e+06 -1.02855e-08 1.53842e+07 -1.31144e-09 4.2913e+07)
(1.56653e+08 -4.1518e+06 -7.00875e-08 1.50595e+07 -4.17044e-08 5.29195e+07)
(1.55264e+08 -636894 -4.83739e-08 1.30776e+07 -3.00206e-08 4.96876e+07)
(6.33113e+07 -1.793e+07 2.01482e-08 1.63868e+06 4.30813e-09 1.94245e+07)
(3.66615e+07 -5.39363e+06 -8.70723e-09 7.22628e+06 -2.00717e-09 1.33733e+07)
(3.83267e+07 -6.54172e+06 -3.27383e-09 7.48395e+06 9.05137e-10 1.33171e+07)
(1.28949e+08 1.17144e+07 5.43879e-08 5.40705e+06 4.3947e-08 4.07956e+07)
(5.42419e+07 -1.3897e+07 0 6.66385e+06 0 1.85154e+07)
(4.37151e+07 -1.52495e+07 -1.07524e-08 3.55001e+06 -2.66035e-10 1.45398e+07)
(8.26213e+07 -1.17943e+07 1.56e-08 924293 -2.95183e-10 2.49062e+07)
(7.94048e+07 -5.51803e+06 1.05038e-09 564982 9.86251e-09 2.37337e+07)
(6.79538e+07 -1.99792e+07 5.58845e-08 -2.53495e+07 2.39855e-08 1.22881e+07)
(4.53997e+07 -2.47462e+06 -8.66942e-09 1.00857e+07 -8.71989e-10 1.655e+07)
(8.65879e+07 -1.35576e+07 5.12736e-09 -4.11309e+06 -4.84795e-09 2.4328e+07)
(1.00938e+08 588759 1.39659e-08 140252 9.05178e-09 3.03553e+07)
(7.13264e+07 -2.15326e+06 1.01085e-08 255805 -1.0621e-09 2.1409e+07)
(6.51214e+07 -1.65219e+07 -6.93768e-09 3.41003e+06 -8.50251e-09 2.06222e+07)
(8.47788e+07 -1.29265e+07 1.42802e-08 -63824.7 -1.94006e-09 2.51549e+07)
(-6.27137e+06 -1.68511e+06 1.14757e-08 -5.10369e+07 2.00526e-08 -1.7619e+07)
(8.08247e+07 -1.05276e+07 -1.29272e-08 1.07765e+06 3.44859e-09 2.46501e+07)
(1.05026e+06 -6.77578e+06 2.09069e-08 -4.07206e+07 2.20601e-08 -1.13796e+07)
(7.19713e+07 -2.00845e+07 2.50974e-08 -1.9441e+07 1.35633e-08 1.55231e+07)
(9.03308e+07 -1.40745e+07 -2.80829e-08 -2.34255e+07 -1.30696e-08 1.96196e+07)
(6.62117e+07 -482581 -1.20487e-08 1.89519e+07 -2.39581e-09 2.55211e+07)
(6.68456e+07 -113778 -9.80391e-09 79581.3 -4.22375e-09 2.00716e+07)
(1.08038e+08 527463 1.67162e-08 -1.68199e+07 1.06371e-08 2.77336e+07)
(6.76032e+07 -3.66473e+06 1.22149e-09 4.44322e+06 7.30498e-09 2.14734e+07)
(5.50431e+07 -1.4071e+07 0 6.55723e+06 0 1.84434e+07)
(6.5785e+07 -7.90842e+06 -6.65082e-09 9.10496e+06 4.10083e-09 2.22967e+07)
(6.54907e+07 -7.9834e+06 8.13436e-09 9.12634e+06 -1.08689e-09 2.25661e+07)
(6.41858e+07 -1.07659e+07 -1.34244e-08 8.00131e+06 -5.39583e-09 2.14388e+07)
(8.9288e+07 -1.21828e+07 -1.70736e-08 -9.8197e+06 -9.56188e-09 2.3178e+07)
(1.04202e+08 1.23247e+07 -4.76299e-08 -1.93592e+06 -4.18687e-08 3.06846e+07)
(5.89775e+07 -1.35875e+07 -1.04257e-08 6.89378e+06 7.48963e-10 1.97763e+07)
(6.68161e+07 -849442 0 7.25003e+06 0 2.22048e+07)
(6.69044e+07 -2.55157e+06 8.9215e-09 9.13851e+06 2.34838e-09 2.29256e+07)
(-2.39449e+06 9.44905e+06 -9.4337e-09 -6.59043e+07 -1.4573e-09 -2.10739e+07)
(8.76216e+07 -1.36635e+07 1.64048e-08 -4.27482e+06 6.16161e-09 2.5078e+07)
(3.76349e+07 -1.60934e+07 0 96899.4 0 1.12479e+07)
(7.10055e+07 -2.36148e+06 0 399940 0 2.14301e+07)
(1.03887e+08 -5.56237e+06 -1.14602e-09 -1.7115e+06 4.34257e-09 3.0502e+07)
(5.65815e+07 -3.84509e+06 0 1.14394e+07 0 2.02382e+07)
(1.19639e+08 1.47605e+07 -1.06648e-08 5.04493e+06 -8.72146e-09 3.7775e+07)
(6.28344e+07 -5.85548e+06 -2.61563e-10 1.16641e+07 5.80611e-10 2.25182e+07)
(3.58512e+07 -1.91133e+07 -2.16641e-09 -2.84777e+07 2.1858e-08 2.13905e+06)
(3.79935e+07 -1.47835e+07 -5.57073e-09 2.35409e+06 -1.74177e-09 1.22647e+07)
(1.0015e+07 -1.30785e+07 -2.20287e-08 -2.71997e+07 -8.62848e-09 -4.93043e+06)
(1.09451e+08 1.20478e+07 2.47582e-08 -6.31332e+06 1.88998e-08 3.1205e+07)
(3.85667e+07 -1.36559e+07 8.68208e-09 2.94013e+06 -4.95321e-11 1.22722e+07)
(6.34991e+07 -1.04561e+06 5.44689e-09 1.40629e+07 5.64199e-09 2.32983e+07)
(6.60092e+07 -2.6274e+06 3.20606e-09 1.56446e+07 2.02697e-09 2.44994e+07)
(6.64529e+07 -1.76128e+06 7.48772e-09 1.73532e+07 2.12298e-09 2.50628e+07)
(4.43683e+07 -1.28916e+07 -7.74319e-09 5.66085e+06 -5.64062e-12 1.51109e+07)
(5.89724e+07 -1.50455e+07 -1.03127e-08 5.64987e+06 -7.18415e-09 1.94532e+07)
(1.1066e+08 1.922e+06 3.55633e-08 -2.56133e+06 2.52897e-08 3.2066e+07)
(4.43545e+07 -1.22583e+07 5.83669e-09 6.28154e+06 3.39683e-09 1.45574e+07)
(9.53591e+07 -2.47527e+06 -8.16865e-09 -209388 -7.29671e-09 2.8174e+07)
(1.09803e+08 1.48944e+07 -4.26824e-09 6.00066e+06 -5.599e-09 3.46891e+07)
(1.29526e+08 1.23309e+07 -2.80475e-08 1.08205e+07 -2.08821e-08 4.24722e+07)
(6.85731e+07 -736528 -1.65694e-08 101988 -5.79297e-09 2.07187e+07)
(6.41152e+07 -811058 -8.55593e-09 1.46458e+07 -5.56142e-10 2.35351e+07)
(8.08796e+07 -6.80603e+06 -4.46282e-08 638189 -4.59304e-09 2.44833e+07)
(7.3679e+07 -1.79491e+07 -1.2602e-08 -2.55203e+06 -8.7e-09 2.1079e+07)
(1.16095e+08 1.33675e+07 3.30745e-08 1.05656e+07 2.81056e-08 3.7556e+07)
(9.2516e+07 5.73745e+06 7.56508e-09 7.67274e+06 8.00727e-09 3.04019e+07)
(5.07265e+07 -750777 1.04201e-08 1.10367e+07 2.85166e-09 1.84775e+07)
(6.49452e+07 -1.7516e+07 -1.37654e-10 2.07133e+06 2.69735e-09 1.98933e+07)
(6.39367e+07 -1.77585e+07 9.15997e-09 2.21524e+06 3.48139e-10 1.98641e+07)
(6.80197e+07 -3.81663e+06 2.08318e-09 3.4196e+06 8.41045e-09 2.1576e+07)
(6.30428e+07 -2.14454e+07 2.71026e-08 -2.23353e+07 1.47085e-08 1.23656e+07)
(7.99868e+07 -1.66189e+07 -2.13718e-08 -2.23013e+07 -1.98787e-08 1.81439e+07)
(6.64646e+07 -235871 1.25235e-08 1.99153e+07 2.37358e-09 2.58477e+07)
(6.66889e+07 -12592.2 7.47441e-09 25548.1 5.30361e-09 2.00324e+07)
(1.14904e+08 1.05354e+07 1.44351e-08 1.22476e+07 8.62587e-09 3.77045e+07)
(8.77675e+07 -6.59212e+06 0 348603 0 2.65447e+07)
(999242 -6.75505e+06 -3.52386e-08 -4.15276e+07 -2.79228e-08 -1.15461e+07)
(6.78148e+07 -2.83982e+06 1.418e-08 2.79994e+06 -3.17828e-09 2.12934e+07)
(6.33445e+07 -3.04264e+06 -1.80377e-09 1.33284e+07 1.5246e-09 2.29488e+07)
(7.73779e+07 -1.42571e+07 1.61569e-08 1.37286e+06 1.60159e-08 2.34006e+07)
(6.28285e+07 -1.55854e+07 2.64373e-08 4.89829e+06 4.02463e-09 2.05248e+07)
(3.71717e+07 -1.05159e+07 -8.53149e-09 5.13361e+06 -1.8546e-09 1.3078e+07)
(5.36195e+07 -1.53149e+07 8.38219e-09 5.3926e+06 -8.26574e-10 1.74399e+07)
(5.16408e+07 -1.33653e+07 1.14273e-08 6.86421e+06 -2.15927e-10 1.76489e+07)
(-5.29262e+06 6.79865e+06 -4.32545e-10 -7.77072e+07 -8.74653e-10 -2.51095e+07)
(5.2175e+07 -1.47381e+07 1.07525e-08 5.66666e+06 2.4399e-09 1.73292e+07)
(1.37843e+08 5.45958e+06 2.87698e-08 6.76112e+06 2.33612e-08 4.35347e+07)
(8.79811e+07 -1.30126e+07 -1.86594e-08 -5.97433e+06 -9.48447e-09 2.42144e+07)
(8.6163e+07 -1.41639e+07 -1.86053e-08 -6.28606e+06 -9.61e-09 2.44811e+07)
(4.76905e+07 -1.12999e+07 -1.25619e-08 7.75582e+06 9.72658e-10 1.65917e+07)
(9.71572e+07 -6.72953e+06 8.64568e-10 -1.24056e+07 5.39758e-10 2.53609e+07)
(7.85317e+07 -5.95847e+06 -2.93472e-08 451959 -1.30356e-08 2.39805e+07)
(6.60858e+07 -502889 1.99763e-08 1.77368e+07 -3.30865e-09 2.51887e+07)
(6.69695e+07 -143050 -2.56456e-09 107806 -9.13022e-10 2.01287e+07)
(9.19881e+07 4.09339e+06 -1.92452e-08 7.14987e+06 -4.44023e-09 3.0075e+07)
(8.72291e+07 -1.06365e+07 -2.59392e-08 133833 -2.68062e-09 2.65781e+07)
(8.88895e+07 -1.23519e+07 -2.29394e-10 -9.08194e+06 -1.43092e-09 2.44743e+07)
(2.1164e+07 -1.37823e+07 2.52615e-08 -3.26615e+07 8.40422e-09 -4.33034e+06)
(6.54115e+07 -2.11995e+07 -9.11945e-09 -1.25933e+07 -4.1328e-09 1.63045e+07)
(1.05072e+08 1.01381e+06 1.55238e-08 -1.29567e+07 1.08324e-08 2.79665e+07)
(1.03473e+08 -5.67884e+06 -2.01019e-08 -2.78539e+06 -1.51846e-08 3.0329e+07)
(8.9611e+07 -9.26712e+06 1.07871e-08 -12298.7 1.66035e-08 2.67035e+07)
(6.67162e+07 -3.07994e+06 8.91865e-09 1.07764e+07 4.28219e-10 2.34533e+07)
(-5.25845e+06 2.7728e+06 6.24786e-09 -7.88226e+07 5.66359e-09 -2.60958e+07)
(6.03307e+07 -1.58263e+07 1.3135e-08 4.9416e+06 6.17123e-10 1.97004e+07)
(1.02569e+08 -3.82012e+06 -4.30078e-09 -6.25964e+06 -2.26524e-09 2.85301e+07)
(1.41525e+08 -603381 -1.07362e-08 2.23236e+07 -6.30329e-09 4.94277e+07)
(1.18737e+07 -5.43356e+06 5.72401e-09 -1.09353e+07 5.31899e-09 -33027.9)
(6.68472e+07 -803058 -9.8754e-09 8.13893e+06 -2.50614e-09 2.26137e+07)
(6.69256e+07 -1.94027e+06 -4.26136e-09 9.73799e+06 8.91452e-10 2.30851e+07)
(6.83017e+07 -3.87421e+06 -1.16579e-08 2.98994e+06 -3.31155e-09 2.15511e+07)
(8.72367e+07 -5.94864e+06 -3.65422e-09 371412 -5.51933e-09 2.65498e+07)
(9.99754e+06 -6.97729e+06 0 -1.11162e+07 0 -83292.9)
(5.21619e+07 -1.42011e+07 1.2062e-08 6.23615e+06 4.86091e-09 1.76686e+07)
(9.6235e+07 1.24637e+07 1.41763e-08 3.45547e+06 1.24232e-08 3.04421e+07)
(9.26945e+07 1.21792e+07 2.25926e-08 683719 2.57447e-08 2.86743e+07)
(7.38551e+07 -1.83445e+07 1.89966e-09 -6.20235e+06 3.01076e-09 1.98197e+07)
(7.36537e+07 -1.84588e+07 2.75522e-10 -5.63796e+06 2.60912e-09 2.08961e+07)
(6.68614e+07 -1.61721e+06 -1.26504e-08 6.89561e+06 -4.47587e-09 2.19883e+07)
(1.06402e+08 -4.21866e+06 6.88764e-09 -361975 1.28552e-08 3.14271e+07)
(5.49547e+07 -1.73807e+07 -3.30423e-08 2.86627e+06 -8.30809e-09 1.77343e+07)
(6.78627e+07 -1.73186e+06 2.29475e-09 1.32386e+06 6.97688e-09 2.08775e+07)
(3.87039e+07 -2.06289e+07 1.94527e-08 -7.37276e+06 6.22969e-09 9.50973e+06)
(3.96126e+07 -2.21829e+07 9.40619e-09 -1.85113e+07 4.17895e-09 5.73201e+06)
(8.79644e+07 -1.10371e+07 1.91306e-08 -138956 -2.66545e-09 2.59769e+07)
(1.06021e+08 -3.95104e+06 2.51567e-08 -1.81157e+07 1.89874e-08 2.64893e+07)
(3.63422e+07 -2.30965e+07 2.15634e-08 -1.8338e+07 9.92193e-09 5.79212e+06)
(6.58575e+07 -2.74538e+06 -2.05312e-09 1.55192e+07 2.3385e-09 2.43006e+07)
(6.55101e+07 -3.02926e+06 -1.58091e-08 1.48279e+07 -1.17627e-09 2.39394e+07)
(1.22799e+08 1.41451e+07 8.28179e-08 -713286 7.23701e-08 3.62864e+07)
(1.09997e+08 3.71823e+06 4.51647e-09 -3.89621e+06 2.33781e-09 3.20897e+07)
(4.46507e+07 -2.05457e+07 6.24536e-09 -4.04931e+06 1.24586e-09 1.22443e+07)
(5.98347e+07 -1.54227e+07 -1.00295e-08 5.58857e+06 -6.78468e-09 1.948e+07)
(1.37445e+08 7.10344e+06 -2.93214e-09 3.54314e+06 2.78668e-10 4.16261e+07)
(6.56076e+07 -2.53352e+06 4.87392e-09 1.57675e+07 -1.00968e-09 2.43803e+07)
(2.95213e+07 -9.01626e+06 1.00951e-08 2.05754e+06 3.81033e-09 8.97043e+06)
(2.96901e+07 -9.1316e+06 0 3.14325e+06 0 1.03747e+07)
(7.38128e+07 -7.85942e+06 -5.50929e-09 1.78283e+06 -8.2557e-09 2.27283e+07)
(5.99818e+07 -6.69908e+06 -1.35891e-08 1.09356e+07 -5.08827e-09 2.12617e+07)
(5.19082e+07 -1.30156e+07 4.67835e-09 7.08153e+06 -2.69424e-10 1.78127e+07)
(6.387e+07 -8.39092e+06 3.51816e-10 9.6741e+06 4.93766e-10 2.21396e+07)
(6.67619e+07 -201160 -1.94053e-09 2.11018e+07 -1.63096e-09 2.63393e+07)
(6.68817e+07 23230.7 -1.69303e-09 35187.2 -5.73599e-09 2.00708e+07)
(4.14585e+07 -1.22545e+07 1.95997e-08 5.5355e+06 1.69242e-09 1.39518e+07)
(5.1164e+07 -195080 1.27081e-09 1.1229e+07 1.41693e-09 1.86705e+07)
(6.90226e+07 -2.02659e+07 -1.26592e-08 -2.52028e+07 -1.3992e-08 1.24895e+07)
(6.09599e+07 -1.94958e+07 2.25357e-09 -1.81922e+06 2.94286e-09 1.74186e+07)
(4.59035e+07 -6.7324e+06 4.40654e-09 9.45584e+06 -1.57674e-09 1.68876e+07)
(2.18948e+07 -1.39213e+07 -3.35983e-09 -7.34275e+06 -1.12165e-09 4.04369e+06)
(3.66604e+07 -5.13434e+06 -6.01257e-09 7.35078e+06 -5.35572e-10 1.31065e+07)
(3.33189e+07 -6.36993e+06 4.60457e-09 5.09418e+06 9.64073e-10 1.12743e+07)
(3.15022e+07 -5.61639e+06 5.4354e-09 5.32312e+06 1.16307e-09 1.15306e+07)
(5.1614e+07 -1.20915e+07 7.06815e-09 7.67081e+06 1.9105e-09 1.75743e+07)
(7.44576e+07 -7.21047e+06 1.72034e-08 1.60309e+06 1.00787e-08 2.24438e+07)
(5.94961e+07 -6.05552e+06 7.67508e-09 1.10602e+07 1.88492e-09 2.15241e+07)
(5.25239e+07 -2.13462e+07 -6.74737e-09 -7.48604e+06 -2.80145e-09 1.33876e+07)
(7.40093e+07 -8.12845e+06 2.55916e-08 1.86123e+06 -2.92227e-09 2.27422e+07)
(5.98356e+07 -6.95154e+06 -1.98856e-09 1.07347e+07 -5.38184e-09 2.11619e+07)
(7.14346e+07 -1.73828e+07 8.05759e-09 101335 5.97163e-09 2.16095e+07)
(7.30801e+07 -1.72812e+07 4.56207e-08 -204649 2.08081e-08 2.15993e+07)
(1.02933e+08 2.89853e+06 -2.14752e-08 -121578 -1.85224e-08 3.09869e+07)
(7.51618e+07 -1.14298e+07 -9.42176e-09 2.21956e+06 1.85733e-09 2.3371e+07)
(6.70411e+07 -2.12015e+06 -3.58987e-09 4.45336e+06 -4.11763e-09 2.12959e+07)
(5.1298e+07 -1.26508e+07 -6.518e-09 7.33582e+06 -2.31577e-10 1.77179e+07)
(3.09808e+07 -364762 -7.14371e-11 5.75022e+06 1.21422e-09 1.10645e+07)
(7.02316e+07 -5.98962e+06 -1.15876e-08 2.65572e+06 -2.12151e-09 2.20056e+07)
(3.965e+07 -8.32574e+06 -1.4142e-08 7.22149e+06 -5.64931e-10 1.41366e+07)
(4.31545e+07 -2.13288e+07 1.44484e-08 -8.03103e+06 4.7713e-09 9.9183e+06)
(3.99721e+07 -2.09422e+07 -3.03922e-09 -8.01644e+06 -8.0417e-10 1.00663e+07)
(8.62484e+07 -1.1626e+07 -1.80971e-08 -177338 -2.38977e-09 2.58354e+07)
(2.05305e+08 -3.45622e+07 -2.43356e-08 1.73647e+07 -1.3125e-08 7.17745e+07)
(6.74509e+07 -3.29015e+06 1.5964e-08 4.15506e+06 2.76809e-09 2.15351e+07)
(1.1631e+08 2.27049e+06 2.61463e-09 -518243 1.77998e-09 3.51124e+07)
(1.18251e+08 1.03836e+06 4.52283e-11 -273199 1.494e-10 3.50525e+07)
(9.4904e+07 -8.71387e+06 2.73277e-11 -1.87855e+07 2.70611e-09 2.22891e+07)
(2.79661e+07 -1.65644e+07 1.86573e-08 -5.59653e+06 5.67783e-09 6.91293e+06)
(6.64557e+07 -343172 1.00081e-09 1.8824e+07 -6.28318e-10 2.55414e+07)
(6.69924e+07 -45564.3 6.87728e-09 66013.9 -9.83888e-09 2.01431e+07)
(4.88427e+07 -1.95031e+07 -2.71844e-10 -907811 -5.0007e-12 1.46311e+07)
(8.96376e+07 -1.27363e+07 3.06086e-10 -2.26772e+07 1.16796e-09 1.90763e+07)
(2.84315e+07 -1.48614e+07 -1.89535e-08 -4.06537e+06 -5.54871e-09 6.83373e+06)
(5.64261e+07 -1.93115e+07 5.64551e-08 -6.79997e+06 2.33382e-08 1.81364e+07)
(8.28242e+07 -1.22791e+07 2.60181e-08 789295 1.02846e-08 2.5042e+07)
(7.53244e+07 -6.99729e+06 1.01894e-08 1.21093e+06 -9.22487e-09 2.31806e+07)
(5.87105e+07 -5.73028e+06 0 1.10807e+07 0 2.07607e+07)
(9.42535e+07 -9.16774e+06 -2.20194e-08 -1.82053e+07 -1.24139e-08 2.35868e+07)
(1.34779e+07 -1.59253e+07 -1.85779e-08 -2.40299e+07 -2.63383e-09 -2.98503e+06)
(6.66938e+07 -559129 -7.3162e-09 2.04404e+07 6.46375e-11 2.61769e+07)
(6.69299e+07 -65942.3 2.19078e-08 159194 9.89099e-10 2.01206e+07)
(1.01641e+08 1.52468e+07 3.69895e-08 895214 3.3186e-08 3.0235e+07)
(1.05916e+08 -3.51416e+06 3.88986e-08 -1.90721e+07 2.50553e-08 2.56135e+07)
(5.01516e+07 -3.20279e+06 1.8311e-09 1.06727e+07 -4.61726e-09 1.84692e+07)
(1.10771e+08 2.88219e+06 -2.15679e-08 -1.46393e+07 -1.52986e-08 2.86675e+07)
(1.00755e+08 1.17222e+07 -2.34837e-08 5.40007e+06 -2.00701e-08 3.2044e+07)
(6.13843e+07 -1.83442e+07 2.75158e-09 1.34676e+06 3.0108e-09 1.86949e+07)
(6.30444e+07 -3.45034e+06 -2.54748e-09 1.31398e+07 -5.21794e-09 2.2877e+07)
(1.02258e+08 -3.7209e+06 -1.64079e-08 -6.24692e+06 -1.07134e-08 2.93012e+07)
(-4.87424e+06 -1.98969e+06 -5.04971e-09 -5.19894e+07 -1.02576e-08 -1.69501e+07)
(7.23479e+07 -1.20304e+07 1.08273e-08 3.23371e+06 -1.29091e-10 2.28489e+07)
(9.66563e+07 1.08896e+07 -7.87317e-09 6.31533e+06 -5.87489e-09 3.08243e+07)
(8.68064e+07 -6.2949e+06 5.08797e-09 364119 5.84305e-09 2.57558e+07)
(1.00304e+08 1.48066e+07 1.19858e-08 2.09742e+06 1.12609e-08 3.03662e+07)
(6.55993e+07 -2.2055e+06 -1.17533e-09 1.55141e+07 -1.96405e-11 2.42086e+07)
(1.16516e+08 750552 1.11844e-08 -978203 7.7709e-09 3.46469e+07)
(9.827e+07 -6.35186e+06 -2.28792e-08 -7.78242e+06 -1.37407e-08 2.75066e+07)
(9.91192e+07 -7.40547e+06 -1.24567e-08 -4.06693e+06 -7.52319e-09 2.84709e+07)
(6.67675e+07 -4.6736e+06 0 9.46407e+06 0 2.26615e+07)
(1.03365e+08 1.16424e+07 -1.15574e-08 -1.56046e+06 -1.36098e-08 3.01874e+07)
(7.04901e+07 -6.57195e+06 2.14023e-08 2.75623e+06 1.995e-09 2.21785e+07)
(7.57697e+07 -1.12636e+07 -3.16607e-08 2.13307e+06 -5.81489e-09 2.32611e+07)
(-6.03168e+06 -144255 1.5047e-09 -7.15952e+07 -3.72501e-09 -2.38622e+07)
(7.24359e+07 -1.16657e+07 -1.31434e-08 3.23127e+06 1.66333e-09 2.25651e+07)
(6.69625e+07 -176559 5.31926e-10 1.25168e+07 -6.90643e-10 2.38066e+07)
(-6.95831e+06 676819 4.60008e-09 -6.24245e+07 6.55004e-09 -2.21536e+07)
(7.58824e+07 -1.45525e+07 6.41757e-09 1.63998e+06 -2.2705e-09 2.35647e+07)
(1.82323e+08 -1.79994e+07 -6.19788e-08 1.73057e+07 -2.7929e-08 5.90774e+07)
(1.95149e+07 -1.35135e+07 1.17866e-08 -9.33146e+06 4.51958e-09 2.91076e+06)
(1.14685e+08 1.57838e+07 7.80944e-09 3.67744e+06 5.81115e-09 3.51152e+07)
(1.09824e+08 1.15811e+07 -9.48583e-09 -6.50896e+06 -1.52266e-08 3.06465e+07)
(1.39237e+07 -1.40623e+07 3.17867e-08 -3.22061e+07 1.67196e-08 -5.26927e+06)
(1.92994e+07 -1.9605e+06 2.3997e-10 -613048 1.06431e-09 6.14257e+06)
(6.46858e+07 -1.9804e+07 5.64374e-08 -2.50635e+07 1.19907e-08 1.2469e+07)
(9.83767e+07 -8.40922e+06 1.42778e-08 -2.57093e+06 7.9985e-09 2.88776e+07)
(7.53368e+07 -1.06868e+07 -5.41224e-09 2.18943e+06 7.72611e-09 2.31535e+07)
(8.14086e+07 -1.76744e+07 -3.2358e-08 -2.27371e+07 -2.28653e-08 1.67253e+07)
(1.0351e+08 1.29956e+07 -5.55293e-09 -1.94085e+06 -1.56666e-10 3.06518e+07)
(1.53382e+08 -3.46661e+06 2.78524e-08 1.21979e+07 1.71828e-08 4.88686e+07)
(6.78224e+07 -1.2188e+06 2.66322e-08 736258 9.16204e-09 2.07256e+07)
(6.77829e+07 -1.12744e+06 -6.5839e-10 744735 -4.08705e-09 2.05382e+07)
(3.00085e+07 -1.071e+07 -1.23502e-08 1.26836e+06 -2.27363e-09 9.19608e+06)
(2.82681e+07 -1.01876e+07 -3.01889e-09 1.6268e+06 9.09348e-11 9.39037e+06)
(9.76037e+07 5.3391e+06 0 7.24378e+06 0 3.12435e+07)
(1.02733e+08 1.28186e+07 2.28082e-08 -1.36622e+06 2.96367e-08 3.00689e+07)
(1.58246e+08 2.85823e+06 3.98099e-09 1.98006e+07 5.64244e-09 5.19305e+07)