/*--------------------------------*- C++ -*----------------------------------*\
| =========                 |                                                 |
| \\      /  F ield         | OpenFOAM: The Open Source CFD Toolbox           |
|  \\    /   O peration     | Version:  v2012                                 |
|   \\  /    A nd           | Website:  www.openfoam.com                      |
|    \\/     M anipulation  |                                                 |
\*---------------------------------------------------------------------------*/
FoamFile
{
    version     2.0;
    format      ascii;
    class       volVectorField;
    location    "19";
    object      D_0;
}
// * * * * * * * * * * * * * * * * * * * * * * * * * * * * * * * * * * * * * //

dimensions      [0 1 0 0 0 0 0];


internalField   nonuniform List<vector> 
7666
(
(0.000962119 -4.48604e-07 0)
(0.000930518 8.98718e-06 0)
(0.000798607 -0.00049533 0)
(0.000877452 8.5068e-06 0)
(0.00070783 -6.39425e-05 0)
(0.000530416 -0.000129257 0)
(0.00099735 7.73266e-06 0)
(0.000876766 4.90729e-06 0)
(0.000356699 -0.000211137 0)
(0.000999282 4.92502e-06 0)
(0.000922327 8.93355e-06 0)
(0.000918944 -1.52921e-05 0)
(0.00088102 6.31276e-06 0)
(0.00092301 6.24348e-06 0)
(0.00101275 1.17453e-05 0)
(0.000775668 -0.000247228 0)
(0.000879703 5.17349e-06 0)
(0.000576783 -8.20898e-05 0)
(0.000882276 -1.32052e-05 0)
(0.000964029 4.31339e-06 0)
(0.000966781 2.88599e-06 0)
(0.000752493 -1.71716e-05 0)
(0.000915203 4.98284e-06 0)
(0.000876778 9.0095e-06 0)
(0.000552127 -0.000169329 0)
(0.00101356 1.14337e-05 0)
(0.000546963 -0.000178647 0)
(0.000931567 4.08369e-07 0)
(0.000881581 6.02536e-06 0)
(0.00094416 -2.03204e-05 0)
(0.000913409 -3.23263e-05 0)
(0.000581381 -7.88282e-05 0)
(0.000951504 -1.09345e-05 0)
(0.000958101 -8.58649e-06 0)
(0.000953369 -2.61507e-05 0)
(0.000952828 6.57842e-06 0)
(0.000955587 6.18687e-06 0)
(0.000930724 -2.20764e-05 0)
(0.00060047 -6.69948e-05 0)
(0.000987566 2.53178e-06 0)
(0.000867179 -9.32941e-05 0)
(0.000336849 -0.000615532 0)
(5.944e-05 -0.000854053 0)
(0.000908192 4.78597e-07 0)
(0.000108011 -0.000796208 0)
(0.00100297 9.47142e-06 0)
(0.000468278 -0.000146391 0)
(0.000864971 -8.68532e-05 0)
(0.000818477 -6.89342e-05 0)
(0.000958213 2.8251e-06 0)
(0.000933538 -5.26058e-07 0)
(0.000780526 -2.841e-05 0)
(0.000997108 8.90715e-06 0)
(0.000369223 -0.000200891 0)
(0.000963588 1.69788e-06 0)
(0.000782289 -0.000254809 0)
(0.000956042 4.02482e-06 0)
(0.000957244 3.33387e-06 0)
(0.000636826 -0.000203349 0)
(0.000521667 -0.000130045 0)
(0.000949322 6.64449e-06 0)
(0.000931386 -2.24611e-05 0)
(0.000897221 7.531e-06 0)
(0.000894281 7.23334e-06 0)
(0.000953236 4.62234e-06 0)
(0.00080988 -5.82588e-05 0)
(0.00100364 3.08321e-06 0)
(0.000953765 4.72214e-06 0)
(0.000716374 -0.000251296 0)
(0.000629413 -0.000195649 0)
(0.000703475 -0.000259744 0)
(0.0010407 4.90967e-06 0)
(0.00104008 4.3269e-06 0)
(0.000957475 -1.4515e-05 0)
(0.000955101 -1.59255e-05 0)
(0.00100439 1.26734e-05 0)
(6.66924e-05 -0.000824782 0)
(0.000915577 7.70697e-06 0)
(0.000912661 7.47109e-06 0)
(0.00094804 7.12007e-06 0)
(0.000973365 -6.7874e-07 0)
(0.00102798 5.40062e-06 0)
(0.000872684 -6.74651e-06 0)
(6.71942e-05 -0.000847306 0)
(0.000893904 -2.47603e-05 0)
(0.000812577 -4.028e-05 0)
(0.000811503 -3.86363e-05 0)
(0.000757388 -2.4425e-05 0)
(0.000837301 -6.94894e-05 0)
(0.000928303 -2.58185e-05 0)
(0.000939415 -7.93895e-07 0)
(0.000941057 -1.1226e-06 0)
(0.000779751 -4.50921e-05 0)
(0.000607949 -0.000301426 0)
(0.00022774 -0.000327068 0)
(0.000786507 -0.000150253 0)
(0.000958364 -2.66485e-05 0)
(0.000814857 -0.00048403 0)
(0.0008814 -1.44884e-05 0)
(0.000966967 4.11414e-06 0)
(0.000776336 -4.43381e-05 0)
(0.000946495 -1.97795e-05 0)
(0.000941238 -8.35185e-06 0)
(0.000562902 -0.000472594 0)
(0.000914941 -3.31445e-05 0)
(0.000626496 -5.46543e-05 0)
(0.000179214 -0.000748339 0)
(0.000694011 -4.10858e-05 0)
(0.000999533 8.84405e-06 0)
(0.000782519 -3.33471e-05 0)
(0.000901619 9.64234e-06 0)
(0.000736523 -2.1911e-05 0)
(0.000918907 1.0202e-05 0)
(0.00095137 6.34662e-06 0)
(0.000925854 7.79299e-06 0)
(0.000668619 -7.56213e-05 0)
(0.000930209 2.93194e-06 0)
(0.000949463 -4.14836e-05 0)
(0.000919299 -2.34316e-05 0)
(0.000920152 -2.21705e-05 0)
(0.000476871 -0.000133203 0)
(0.0009755 -3.36416e-06 0)
(0.000936175 -9.00642e-06 0)
(0.00101119 9.49964e-06 0)
(0.000881526 9.26518e-06 0)
(0.000960415 4.04803e-07 0)
(0.000697495 -3.85121e-05 0)
(0.000766722 -7.90956e-06 0)
(0.000842704 3.62624e-06 0)
(0.000911539 2.67886e-07 0)
(0.000781334 -0.000269055 0)
(0.00084934 -2.54493e-05 0)
(0.000973465 3.45994e-06 0)
(2.19614e-05 -0.000870555 0)
(0.00093463 -9.83457e-06 0)
(0.000631595 -5.26925e-05 0)
(0.00097617 1.59713e-07 0)
(0.000986972 2.32969e-06 0)
(0.000935412 3.22472e-06 0)
(0.00089045 1.0268e-05 0)
(0.000836266 2.32477e-06 0)
(0.00103066 6.69634e-06 0)
(0.00101441 8.65532e-07 0)
(0.00101664 8.84752e-07 0)
(0.00100132 3.0037e-06 0)
(0.00096888 2.09955e-06 0)
(0.000997172 7.16656e-06 0)
(0.0010326 8.65555e-06 0)
(0.00095915 -6.27528e-07 0)
(0.000883223 -2.67458e-06 0)
(0.00100106 5.49247e-06 0)
(0.000831215 -9.49149e-05 0)
(0.000945511 7.54389e-06 0)
(0.000879165 -7.57701e-05 0)
(0.000990282 2.40796e-06 0)
(0.000992678 2.50171e-06 0)
(0.000870764 -7.81087e-05 0)
(0.000814675 -3.25379e-06 0)
(0.000869683 8.89096e-06 0)
(0.000975158 -7.31576e-07 0)
(0.000500235 -0.000443049 0)
(6.76529e-05 -0.000572124 0)
(0.000759843 -1.53971e-05 0)
(0.000199347 -0.000734981 0)
(0.000629835 -0.000477921 0)
(0.000618889 -0.000464165 0)
(0.000865098 8.57424e-06 0)
(0.000956567 3.38629e-06 0)
(0.000955562 3.9212e-06 0)
(0.000470053 -0.000453452 0)
(0.000925168 9.79461e-06 0)
(0.000929347 7.47408e-06 0)
(0.000792663 -1.261e-05 0)
(0.000840358 -2.98891e-05 0)
(0.000836321 -9.86769e-05 0)
(0.000962968 1.85251e-06 0)
(0.00073097 -1.93683e-05 0)
(0.000177631 -0.000386774 0)
(0.000897757 -3.25993e-05 0)
(0.000873124 8.23239e-06 0)
(0.000765947 -1.13074e-05 0)
(0.000961497 -1.57428e-05 0)
(0.000814075 -1.57884e-05 0)
(0.00095595 -3.09517e-05 0)
(0.000815854 -5.40079e-05 0)
(0.000776754 -0.000152054 0)
(0.00103935 1.13408e-06 0)
(0.000944768 -2.44196e-05 0)
(0.000640672 -0.000183781 0)
(0.000963295 -5.09938e-06 0)
(0.000921589 1.00232e-05 0)
(0.000969651 8.03415e-07 0)
(0.000971311 1.07355e-06 0)
(0.000942199 2.77292e-06 0)
(0.000714745 -4.02522e-05 0)
(0.000304094 -0.000355061 0)
(0.000921218 8.73828e-06 0)
(0.00100083 1.10335e-05 0)
(0.000999456 7.81352e-06 0)
(0.000938949 -8.21366e-05 0)
(0.000726508 -1.99183e-05 0)
(0.000933596 3.31409e-06 0)
(0.000900521 -3.1573e-05 0)
(0.00061682 -5.89832e-05 0)
(0.000978329 2.40177e-06 0)
(0.000344396 -0.000532513 0)
(0.000991042 2.57215e-06 0)
(0.00089955 -7.85494e-05 0)
(0.000936457 4.92249e-06 0)
(0.000950618 -2.74134e-05 0)
(0.00044208 -0.000272758 0)
(0.000937791 5.40217e-06 0)
(0.00101304 7.85813e-07 0)
(0.00102475 4.35391e-06 0)
(0.00103257 7.27395e-06 0)
(0.000936199 8.07215e-06 0)
(0.000907627 9.79832e-06 0)
(0.000481374 -0.000141294 0)
(0.000939602 7.7788e-06 0)
(0.000751247 -4.31004e-05 0)
(0.000227624 -0.000634583 0)
(0.000354262 -0.000572783 0)
(0.00091386 -3.31497e-05 0)
(0.00101721 5.70426e-07 0)
(0.00082646 -2.70172e-05 0)
(0.000808056 -2.65304e-07 0)
(0.000198855 -0.000697117 0)
(4.82185e-05 -0.000848931 0)
(0.000970116 4.44855e-07 0)
(0.000863766 8.42035e-06 0)
(0.000868848 8.9097e-06 0)
(0.000951777 -9.59806e-06 0)
(0.000843739 -6.89389e-05 0)
(0.000804776 -0.000153995 0)
(0.00104303 7.89402e-07 0)
(0.000948708 -2.3835e-05 0)
(0.000123096 -0.000783985 0)
(0.000780743 -2.99494e-05 0)
(0.00095131 -4.02905e-05 0)
(0.00095471 -9.83269e-06 0)
(0.00100659 1.92736e-06 0)
(0.000819112 -3.46975e-06 0)
(0.00089517 8.36088e-06 0)
(0.000947322 5.3468e-06 0)
(0.000916453 1.03012e-05 0)
(0.000930385 9.60816e-06 0)
(0.000952957 -3.67183e-05 0)
(0.00092249 1.00797e-05 0)
(0.000567427 -0.000419122 0)
(0.000720762 -2.5734e-05 0)
(0.000729462 -2.29952e-05 0)
(0.000940982 8.38998e-06 0)
(0.000660727 -8.16565e-05 0)
(0.000844001 -2.84546e-05 0)
(0.00103517 9.94299e-07 0)
(0.000939148 -2.63048e-05 0)
(2.94013e-05 -0.000865284 0)
(0.000760103 -1.88531e-05 0)
(0.000709699 -3.89828e-05 0)
(0.00091257 -9.70731e-05 0)
(0.000830623 -2.41698e-05 0)
(0.000595262 -0.000138953 0)
(0.000608263 -6.35974e-05 0)
(0.000755836 -2.32054e-05 0)
(0.00100481 8.07802e-06 0)
(0.000954133 -2.90594e-05 0)
(0.000899497 9.77568e-06 0)
(0.000600954 -7.87274e-05 0)
(2.75277e-05 -0.000843818 0)
(0.000964023 -3.88364e-06 0)
(0.00100488 1.23819e-05 0)
(0.00100514 1.00977e-05 0)
(0.000945829 -1.19068e-05 0)
(0.000784694 -3.07957e-05 0)
(0.000963177 -5.23757e-06 0)
(0.000923285 1.00882e-05 0)
(0.000145413 -0.000696809 0)
(0.000171599 -0.000572521 0)
(0.00080217 -7.49035e-06 0)
(0.000799292 -7.21932e-06 0)
(0.000994349 7.64858e-06 0)
(0.000650787 -5.35016e-05 0)
(0.000898781 1.00879e-05 0)
(0.000943773 -1.74714e-05 0)
(0.000917022 -6.53986e-06 0)
(0.000903419 -3.50151e-05 0)
(0.000758413 -1.78843e-05 0)
(0.000693392 -0.000192191 0)
(0.000909486 -3.24915e-05 0)
(0.0010228 4.62712e-06 0)
(0.00101849 3.84194e-06 0)
(0.000467267 -0.000405355 0)
(0.000466777 -0.000160251 0)
(0.000906411 -9.30753e-07 0)
(0.000905976 9.57277e-06 0)
(0.000565889 -0.000409642 0)
(0.00102394 3.9426e-06 0)
(0.00095409 1.89411e-06 0)
(0.000953709 2.44043e-06 0)
(0.000880674 -1.88169e-05 0)
(0.000975992 3.50995e-06 0)
(0.000931224 9.55746e-06 0)
(0.000969369 2.28343e-06 0)
(0.00104674 3.59521e-06 0)
(0.000959454 -1.64507e-05 0)
(0.00094148 6.95143e-06 0)
(0.000971067 3.11723e-07 0)
(0.000834313 -0.00011248 0)
(0.000863596 5.04583e-06 0)
(0.000956168 5.26044e-06 0)
(0.000950921 -5.84163e-06 0)
(0.00095756 2.97252e-06 0)
(0.000956173 2.89215e-06 0)
(0.000957401 2.43745e-06 0)
(0.000936272 9.16083e-06 0)
(0.000877596 -2.13699e-05 0)
(0.000979179 3.23225e-06 0)
(0.000878888 -7.42929e-06 0)
(0.000878354 -1.84057e-05 0)
(0.000974127 3.67634e-06 0)
(0.000825917 3.95105e-06 0)
(0.000820776 3.04888e-06 0)
(0.000200681 -0.000366699 0)
(0.000854782 -1.00135e-05 0)
(0.000978032 5.04255e-07 0)
(0.000934695 9.20689e-06 0)
(0.000960497 3.22109e-07 0)
(0.000919326 -1.60625e-05 0)
(0.000952331 5.0531e-06 0)
(0.000906799 -8.12709e-06 0)
(0.000911916 -8.43584e-06 0)
(0.00076377 -1.47251e-05 0)
(0.000755873 -0.000436483 0)
(0.00096361 -5.26199e-06 0)
(0.000390407 -0.000190449 0)
(0.000388574 -0.000189762 0)
(0.000713845 -0.000102717 0)
(0.000941624 -4.46324e-06 0)
(0.00103957 1.60585e-06 0)
(0.000946236 -2.31613e-05 0)
(0.000901341 4.76839e-06 0)
(0.00076613 -0.000123042 0)
(0.000943003 -2.87249e-06 0)
(0.000849226 -0.000225128 0)
(0.000789694 -1.235e-05 0)
(0.000866981 -2.31075e-05 0)
(0.000976947 3.29509e-06 0)
(0.000706752 -9.94316e-05 0)
(0.000943598 -3.12682e-05 0)
(0.00104487 3.69509e-06 0)
(0.000957667 -1.67805e-05 0)
(0.000214431 -0.000578974 0)
(0.000694285 -0.000183696 0)
(0.00096715 2.46592e-06 0)
(0.000630119 -0.000213557 0)
(0.000122493 -0.000757361 0)
(0.000873233 8.99053e-06 0)
(0.00100443 1.99288e-06 0)
(0.000593818 -8.4018e-05 0)
(0.00096282 -1.12578e-05 0)
(0.00087423 -6.67535e-06 0)
(0.00011339 -0.000763134 0)
(0.000790603 -3.01591e-05 0)
(0.000188159 -0.000624994 0)
(0.00102358 3.11109e-06 0)
(0.000445859 -0.000151733 0)
(0.000635541 -6.76837e-05 0)
(0.000642995 -4.95678e-05 0)
(0.000989552 3.46883e-06 0)
(0.000286058 -0.000371292 0)
(0.000915398 -1.56748e-05 0)
(0.000852422 -1.12078e-05 0)
(0.000957864 -1.75353e-05 0)
(0.000877504 -6.75285e-06 0)
(0.00102037 1.55381e-05 0)
(0.000959469 -1.5752e-05 0)
(0.000823839 -1.97912e-06 0)
(0.000742653 -0.000499983 0)
(0.000950853 -8.57696e-06 0)
(0.000290733 -0.000564536 0)
(0.000446518 -0.000261527 0)
(0.000936736 -5.03026e-05 0)
(0.000963216 -2.68573e-07 0)
(0.000841292 -0.00011145 0)
(0.000649322 -4.54814e-05 0)
(0.000859047 -1.22898e-05 0)
(0.000809652 -0.000160403 0)
(0.000293153 -0.000389776 0)
(0.00063646 -0.000447718 0)
(0.000940846 -2.04013e-05 0)
(0.000944062 -1.93809e-05 0)
(0.000950455 1.82513e-06 0)
(0.000952802 1.69689e-06 0)
(5.09769e-05 -0.000848023 0)
(0.000280533 -0.00038944 0)
(0.000395639 -0.000652207 0)
(0.000924911 8.70162e-06 0)
(0.000972863 -4.52059e-06 0)
(0.000921967 9.16168e-06 0)
(0.000949752 -3.81351e-05 0)
(0.000612239 -6.15606e-05 0)
(0.000827011 -3.1208e-06 0)
(0.000926758 9.03751e-06 0)
(0.000950114 -9.9971e-06 0)
(0.000447818 -0.000452716 0)
(0.000845827 -2.43688e-06 0)
(0.000843579 -3.59835e-06 0)
(0.000641093 -6.34977e-05 0)
(0.000602747 -9.66999e-05 0)
(0.000403701 -0.000228386 0)
(0.000483908 -0.00029462 0)
(0.000946217 -1.66617e-05 0)
(0.000946062 -2.80245e-05 0)
(0.00059735 -9.45331e-05 0)
(0.000489082 -0.000279455 0)
(0.000728465 -1.87558e-05 0)
(0.000735294 -1.71e-05 0)
(0.000972682 2.39908e-06 0)
(0.00101292 3.12562e-06 0)
(0.000211667 -0.000691811 0)
(0.000937555 -3.39209e-05 0)
(0.000934623 1.11348e-06 0)
(0.000986378 4.54652e-06 0)
(0.000916436 1.4035e-06 0)
(0.000939461 8.52988e-06 0)
(0.000940039 -3.36073e-07 0)
(0.000919705 -9.90931e-06 0)
(0.000683422 -4.18426e-05 0)
(0.000889735 -2.5157e-05 0)
(0.000696882 -0.000284377 0)
(0.000852812 -0.000235143 0)
(0.00073824 -0.000432167 0)
(0.000873912 9.2114e-06 0)
(0.000963276 -1.56541e-05 0)
(0.00105029 3.57518e-06 0)
(0.00101936 3.5861e-06 0)
(0.000917592 -5.20425e-06 0)
(0.000922092 6.77189e-06 0)
(0.000906923 -1.72617e-07 0)
(0.000894049 -2.10004e-07 0)
(0.000782694 -0.000196695 0)
(0.000956296 -1.2906e-06 0)
(0.000927854 6.22753e-06 0)
(0.000929458 5.74232e-06 0)
(0.00101858 7.35102e-06 0)
(0.00089138 8.33646e-06 0)
(0.000933269 -9.26482e-05 0)
(0.000953144 1.95367e-06 0)
(0.000949892 1.79432e-06 0)
(0.00100767 9.14946e-06 0)
(0.000960491 -7.8821e-07 0)
(0.000957795 -2.39749e-05 0)
(0.000826531 -4.49219e-06 0)
(0.000160048 -0.000684099 0)
(0.000929582 8.64398e-06 0)
(0.000754632 -1.06545e-05 0)
(0.000986344 2.62875e-06 0)
(0.000880167 3.85051e-06 0)
(0.000934324 5.08222e-06 0)
(0.000788862 -2.70206e-06 0)
(6.27052e-05 -0.000837497 0)
(0.000874911 3.54083e-06 0)
(0.000333941 -0.000639293 0)
(0.000293566 -0.000537451 0)
(0.000947286 -2.17062e-05 0)
(0.000987484 2.29717e-06 0)
(0.000987695 2.40323e-06 0)
(0.000737277 -1.7375e-05 0)
(0.000771268 -1.18799e-05 0)
(0.000936902 -1.29257e-05 0)
(0.000789916 -3.89813e-06 0)
(0.000992268 5.60121e-06 0)
(0.000989473 4.54643e-06 0)
(0.000623703 -0.000138459 0)
(0.000525677 -0.000113895 0)
(0.000756533 -1.0294e-05 0)
(0.00102746 4.89894e-06 0)
(0.000811755 -1.48593e-05 0)
(0.000994804 1.68395e-06 0)
(0.000859866 -0.000194042 0)
(0.000947111 -2.39346e-05 0)
(0.00076303 -0.000132655 0)
(0.000888465 -3.57994e-05 0)
(0.00100086 6.95851e-07 0)
(0.000892068 -3.49201e-05 0)
(0.00100261 8.15317e-07 0)
(0.000863534 -0.000182934 0)
(0.000857437 7.65781e-06 0)
(0.000492436 -0.000417104 0)
(0.000922348 -8.07206e-06 0)
(0.000953764 -5.53407e-06 0)
(0.000891691 1.02881e-05 0)
(0.000964737 -1.54643e-05 0)
(0.00105173 3.42297e-06 0)
(0.000952226 5.12161e-06 0)
(0.000608777 -0.000289975 0)
(0.000467531 -0.000439952 0)
(0.000431876 -0.000484087 0)
(0.000973386 2.51108e-06 0)
(0.00088393 -0.000190611 0)
(0.000927908 9.72788e-06 0)
(0.00090899 9.44021e-06 0)
(0.00021553 -0.000591364 0)
(0.000887737 -0.000176595 0)
(0.000905538 9.54045e-06 0)
(0.000955615 5.39064e-06 0)
(0.00103038 8.1869e-06 0)
(0.000550627 -0.000548218 0)
(0.000966197 -4.22688e-06 0)
(0.000983683 2.95299e-06 0)
(0.000950304 7.06389e-06 0)
(0.000635983 -5.07368e-05 0)
(0.00062862 -5.42421e-05 0)
(0.00103422 1.40438e-06 0)
(0.00103187 1.39127e-06 0)
(0.00093658 -2.57944e-05 0)
(0.000939222 -2.53448e-05 0)
(0.000916845 -3.26205e-06 0)
(0.000835742 -2.12204e-05 0)
(0.000949918 6.21647e-06 0)
(0.000949713 6.17522e-06 0)
(4.47749e-05 -0.000819491 0)
(0.000687296 -8.59343e-05 0)
(0.000904716 -6.40843e-05 0)
(0.000885468 -2.17502e-05 0)
(0.000940785 -7.5399e-05 0)
(0.00102536 3.44626e-06 0)
(0.00040749 -0.000510913 0)
(0.000967128 2.93848e-06 0)
(0.00104105 6.54351e-07 0)
(0.000945968 -2.48811e-05 0)
(0.000686717 -0.000256086 0)
(0.000642045 -4.92091e-05 0)
(0.000944624 7.53406e-06 0)
(0.000466141 -0.00015601 0)
(0.000941055 -3.81822e-05 0)
(7.92277e-05 -0.000789569 0)
(0.000696257 -2.80326e-05 0)
(0.000935198 -5.71477e-06 0)
(0.000937375 -5.04996e-06 0)
(0.000233475 -0.000579869 0)
(0.000687097 -0.000240273 0)
(0.00017012 -0.000719578 0)
(0.000857108 -2.39566e-06 0)
(0.000702788 -2.60061e-05 0)
(0.000507447 -0.000120622 0)
(0.000492004 -0.000123034 0)
(0.000394412 -0.000183329 0)
(0.000827578 -2.54949e-05 0)
(0.00101054 5.5359e-06 0)
(0.0006227 -6.74999e-05 0)
(0.000914386 -0.000103653 0)
(0.000728551 -6.08758e-05 0)
(0.00018034 -0.000703922 0)
(0.000859677 3.19939e-06 0)
(0.000954039 -3.55999e-05 0)
(0.000920082 5.95558e-06 0)
(0.000962467 -3.25913e-08 0)
(7.10501e-05 -0.000794429 0)
(0.00079721 -1.59816e-06 0)
(0.000697889 -6.59126e-05 0)
(3.97017e-05 -0.000856692 0)
(0.000912439 4.54943e-06 0)
(0.00087258 -4.64662e-06 0)
(0.000898476 -8.43795e-05 0)
(0.000955031 -8.93466e-07 0)
(0.000947789 7.57753e-06 0)
(0.00103743 1.01495e-05 0)
(0.00060552 -0.000556631 0)
(0.000918992 6.89876e-06 0)
(0.000884036 -1.47336e-05 0)
(0.000968731 3.98806e-06 0)
(0.000805637 -3.83678e-05 0)
(0.00102826 1.09869e-05 0)
(0.000819495 -6.31227e-05 0)
(0.000950838 -4.76235e-06 0)
(0.000511216 -0.000116903 0)
(0.000594112 -0.000312191 0)
(0.00052294 -0.000109444 0)
(0.000610624 -0.000142953 0)
(0.000192147 -0.000396734 0)
(0.000917136 6.90335e-06 0)
(0.000993552 1.59816e-06 0)
(0.000940662 -4.55396e-05 0)
(0.000810549 -2.19169e-05 0)
(0.000366432 -0.000295934 0)
(0.000576692 -0.000221154 0)
(0.00102017 4.31505e-06 0)
(0.000983664 3.13493e-06 0)
(0.000679032 -0.000133992 0)
(0.000939473 -2.03406e-05 0)
(0.000516028 -0.000164189 0)
(0.000817139 -4.42696e-06 0)
(0.000922153 2.03552e-06 0)
(0.000953019 6.2771e-06 0)
(0.000949188 -2.62083e-05 0)
(0.000922252 -8.85185e-06 0)
(0.00103023 1.2273e-06 0)
(0.000933754 -2.70443e-05 0)
(0.000947717 -5.28718e-06 0)
(0.000919694 -8.25578e-05 0)
(0.000357599 -0.000229679 0)
(0.000717924 -3.69746e-05 0)
(0.000712616 -3.95983e-05 0)
(0.000962211 5.93729e-07 0)
(0.000926776 9.46449e-06 0)
(0.000820003 -4.83199e-06 0)
(0.000951193 7.04405e-06 0)
(0.000772429 -0.000198261 0)
(0.000174981 -0.000721195 0)
(0.00056238 -0.000225737 0)
(0.000389177 -0.000186256 0)
(0.000960921 4.75546e-07 0)
(0.000922315 -7.43494e-05 0)
(0.000950497 6.63156e-06 0)
(0.00096567 -4.08777e-06 0)
(0.00103926 5.27864e-06 0)
(0.00103665 5.09051e-06 0)
(0.000955293 -1.40986e-05 0)
(0.000957834 -1.35656e-05 0)
(0.000991557 3.88991e-06 0)
(0.000960188 7.23813e-07 0)
(0.000114632 -0.000658882 0)
(0.000943482 -4.53183e-05 0)
(0.000996056 4.25739e-06 0)
(0.00091876 -2.5185e-05 0)
(0.00088219 2.87104e-06 0)
(0.000966424 -4.44275e-06 0)
(0.000854911 2.80866e-06 0)
(0.000456427 -0.000167588 0)
(0.00094066 -1.21831e-05 0)
(0.000177258 -0.000785222 0)
(0.000923226 -2.19747e-05 0)
(9.26328e-05 -0.000672723 0)
(0.000934163 -9.51439e-05 0)
(0.000935425 8.20031e-06 0)
(0.000889547 -2.37585e-05 0)
(0.000923977 -8.58337e-05 0)
(0.000864537 -2.4291e-05 0)
(0.000977675 3.26515e-06 0)
(0.000748941 -1.23553e-05 0)
(0.000936329 6.16782e-06 0)
(0.000963146 -1.44225e-06 0)
(0.000946952 -4.03197e-05 0)
(0.000938384 -4.92105e-06 0)
(0.000946416 -1.80518e-05 0)
(0.000938588 -1.7364e-06 0)
(0.000964005 -1.61698e-06 0)
(7.68976e-05 -0.000816154 0)
(0.000941769 -2.08868e-06 0)
(0.00063725 -5.0348e-05 0)
(7.03785e-05 -0.000814637 0)
(0.000862122 2.02316e-07 0)
(0.000865616 6.67698e-08 0)
(0.000460957 -0.000311757 0)
(0.000637316 -0.000177273 0)
(0.000675218 -3.86086e-05 0)
(0.00067351 -3.84469e-05 0)
(0.0010343 1.04407e-05 0)
(0.00103484 9.68898e-06 0)
(0.000955421 -2.29487e-05 0)
(0.000583494 -0.000173323 0)
(0.000869194 -5.35034e-05 0)
(0.000235628 -0.000615771 0)
(0.000947522 6.70616e-06 0)
(0.000873789 -4.97177e-05 0)
(0.000963608 -5.19334e-08 0)
(0.000192008 -0.000776459 0)
(0.000446665 -0.000311582 0)
(0.000886741 -2.37225e-05 0)
(0.000973568 2.57999e-06 0)
(0.000961188 -2.23261e-06 0)
(0.000921075 9.91169e-06 0)
(0.00093908 7.29673e-06 0)
(0.000762003 -1.16362e-05 0)
(0.000674055 -0.000311145 0)
(0.000922737 -1.55957e-05 0)
(0.00102078 1.47622e-05 0)
(0.000624772 -0.000248189 0)
(0.000922502 9.49746e-06 0)
(0.000609809 -0.000249322 0)
(0.000705772 -2.97758e-05 0)
(0.000456485 -0.00015427 0)
(0.000916 -2.45614e-05 0)
(0.00086215 -1.04882e-05 0)
(0.000812363 -4.01151e-05 0)
(0.000973781 9.18872e-07 0)
(0.00077093 -2.25275e-05 0)
(0.000475672 -0.000150144 0)
(0.000481732 -0.000143928 0)
(0.00045173 -0.000150532 0)
(0.000949331 5.19357e-06 0)
(0.000952375 5.85826e-06 0)
(0.000866367 -7.53373e-06 0)
(0.000989737 2.6836e-06 0)
(0.000612949 -0.000119583 0)
(0.000583209 -9.36613e-05 0)
(0.000674722 -0.000235602 0)
(0.000576774 -9.41618e-05 0)
(0.000490936 -0.00012443 0)
(0.0009986 2.79116e-06 0)
(4.92001e-05 -0.000840105 0)
(0.000657665 -0.000242353 0)
(0.000747971 -3.28551e-05 0)
(0.000853392 7.11674e-06 0)
(0.000723954 -3.54942e-05 0)
(8.40208e-05 -0.000676946 0)
(0.00096375 -7.88323e-06 0)
(0.000901954 8.92538e-07 0)
(0.000606599 -6.36894e-05 0)
(0.000935345 -2.67039e-06 0)
(0.000743513 -2.92347e-05 0)
(0.000571911 -0.000565941 0)
(0.000751651 -3.78786e-05 0)
(0.000842773 -2.38725e-05 0)
(0.000969544 4.07707e-06 0)
(0.000886919 -3.47103e-05 0)
(0.000999263 9.28229e-07 0)
(0.000879424 1.78823e-06 0)
(0.00073495 -3.68793e-05 0)
(7.46254e-05 -0.000824824 0)
(0.000803859 -4.28376e-05 0)
(0.00104847 7.80108e-06 0)
(0.000970725 -8.38477e-06 0)
(0.000945791 6.70517e-06 0)
(0.000411778 -0.000442037 0)
(0.00102798 2.88948e-06 0)
(0.000250707 -0.000350392 0)
(0.000605668 -0.0003292 0)
(0.0010088 1.69775e-06 0)
(0.000845187 -0.00014736 0)
(0.000884259 -3.48074e-05 0)
(0.000997734 9.55593e-07 0)
(0.000824658 -3.21433e-05 0)
(0.000827731 -3.2809e-05 0)
(0.000352598 -0.000439375 0)
(0.0007612 -1.3171e-05 0)
(0.000945744 -5.93375e-06 0)
(0.000510089 -0.000599174 0)
(0.000800789 -4.67278e-05 0)
(0.000384786 -0.000461266 0)
(0.000502318 -0.0001088 0)
(0.000180633 -0.000413533 0)
(0.00034626 -0.000430342 0)
(0.000916646 2.00314e-06 0)
(0.000840836 -0.000141922 0)
(0.00102853 3.29105e-06 0)
(0.000655924 -5.65827e-05 0)
(0.000354765 -0.000666136 0)
(0.000935709 1.51721e-06 0)
(0.000909223 2.77539e-06 0)
(0.000931812 -7.01113e-06 0)
(0.000931628 -7.46825e-06 0)
(0.000908709 4.06376e-06 0)
(0.000944854 7.31058e-06 0)
(0.00096065 -7.28726e-06 0)
(0.000616779 -6.80635e-05 0)
(0.000623782 -5.66493e-05 0)
(0.000632437 -5.29145e-05 0)
(0.000942445 7.08225e-06 0)
(0.000620249 -5.81557e-05 0)
(0.00099023 2.59452e-06 0)
(0.000727637 -3.83347e-05 0)
(0.000832416 -3.21134e-05 0)
(0.00052263 -0.000260095 0)
(0.000977813 2.28469e-06 0)
(0.000965491 3.73924e-06 0)
(0.000534503 -0.000104345 0)
(0.00100581 7.61243e-06 0)
(0.000707271 -0.00021736 0)
(1.05618e-05 -0.000733965 0)
(0.000507003 -0.000264741 0)
(0.000929826 -2.4438e-05 0)
(0.00102473 2.29193e-06 0)
(0.00100711 1.7445e-06 0)
(0.000935462 9.04152e-06 0)
(0.000770118 -0.000281951 0)
(0.000903019 5.60533e-06 0)
(0.00100488 5.32045e-06 0)
(0.00100515 5.12501e-06 0)
(0.00100824 5.27017e-06 0)
(5.87288e-05 -0.000824256 0)
(0.000957656 5.99779e-06 0)
(0.000918172 -2.21411e-05 0)
(0.000943294 2.48702e-06 0)
(0.000944379 2.97949e-06 0)
(0.000926331 -5.94409e-05 0)
(0.000655621 -5.07137e-05 0)
(0.000755801 -0.000278578 0)
(0.000300855 -0.00067837 0)
(0.00012384 -0.000556036 0)
(0.000919333 7.62737e-06 0)
(0.000949803 -1.48466e-05 0)
(0.000951701 -1.44647e-05 0)
(0.000592222 -0.000327689 0)
(0.000916773 -3.85032e-06 0)
(0.000123891 -0.000538975 0)
(0.000968324 2.97068e-06 0)
(0.000963427 4.67297e-06 0)
(0.000965088 4.43407e-06 0)
(0.000960301 4.66822e-06 0)
(5.15178e-06 -0.000883613 0)
(0.000859898 -9.69954e-06 0)
(0.000228926 -0.00060017 0)
(0.000944169 2.85626e-06 0)
(0.000688086 -4.13198e-05 0)
(0.000937167 3.53737e-06 0)
(0.000773598 -2.33222e-05 0)
(0.000942856 8.12264e-06 0)
(0.000995011 3.20057e-06 0)
(0.00095554 5.57564e-06 0)
(0.000736859 -5.97535e-05 0)
(0.000820705 -1.88605e-06 0)
(0.000404573 -0.000383504 0)
(0.00100379 7.40874e-06 0)
(0.000773703 -6.18954e-06 0)
(0.00102999 1.19088e-05 0)
(0.000993907 1.42722e-06 0)
(0.000961777 3.56579e-06 0)
(0.000962489 3.49448e-06 0)
(0.000198668 -0.000712474 0)
(0.00103416 2.7097e-06 0)
(0.000676797 -0.000140917 0)
(0.000954409 4.03817e-06 0)
(0.000960163 -9.132e-06 0)
(0.00086973 -7.61883e-06 0)
(0.000936662 -1.78106e-05 0)
(0.00096664 -4.25696e-06 0)
(0.000959391 5.04786e-06 0)
(0.000556078 -0.000154189 0)
(0.000849656 -0.00035194 0)
(0.000905264 8.94018e-06 0)
(0.000810838 -1.757e-05 0)
(0.000956745 -4.85246e-06 0)
(0.000937266 -8.24117e-06 0)
(0.000775571 -1.0272e-05 0)
(0.00103355 8.01608e-06 0)
(0.000950078 -6.86309e-06 0)
(0.000951392 -6.8603e-06 0)
(0.00079783 -1.67274e-05 0)
(0.000915104 -3.10535e-05 0)
(0.000784637 -3.57009e-06 0)
(0.000287043 -0.00061448 0)
(0.000873279 4.63174e-06 0)
(0.000700179 -3.211e-05 0)
(0.000855019 -0.000105588 0)
(0.000734988 -2.41929e-05 0)
(0.000904852 9.22804e-06 0)
(0.000954662 3.77173e-07 0)
(0.000860343 -0.000152201 0)
(0.00096251 -1.61074e-05 0)
(0.000929892 9.30331e-06 0)
(0.000817434 -0.000159094 0)
(0.000862896 8.11876e-06 0)
(0.00096226 -1.7e-05 0)
(0.000948484 -3.62388e-05 0)
(0.000834578 -3.28002e-05 0)
(0.000584354 -0.00045072 0)
(0.000953565 -9.84223e-06 0)
(0.000961449 -5.14601e-06 0)
(0.000951046 -6.65028e-07 0)
(0.000917394 -5.06678e-06 0)
(0.000797381 -4.42144e-05 0)
(0.000794778 -2.0308e-05 0)
(0.00078774 -2.17686e-05 0)
(0.000703578 -0.000231906 0)
(8.6922e-05 -0.000548626 0)
(0.00095867 -1.07386e-05 0)
(0.000643065 -4.76482e-05 0)
(0.000536726 -0.000107384 0)
(0.000653302 -4.36701e-05 0)
(0.00089869 -0.000105931 0)
(0.000955842 6.05879e-06 0)
(0.000956482 5.79981e-06 0)
(0.000893403 -0.000110354 0)
(0.000911109 1.0262e-05 0)
(0.000913114 1.02766e-05 0)
(0.000946627 1.91485e-06 0)
(0.000946717 2.33754e-06 0)
(0.000959482 1.54901e-06 0)
(0.000959449 1.57611e-06 0)
(0.000927694 -9.57472e-05 0)
(0.000914524 6.65892e-06 0)
(0.000984219 2.16692e-06 0)
(0.000961358 -1.01456e-06 0)
(0.000940507 -3.13322e-05 0)
(0.000922136 -1.1774e-05 0)
(0.000943855 3.30144e-06 0)
(0.000994112 2.16421e-06 0)
(0.000814812 1.20168e-06 0)
(0.000819389 1.58304e-06 0)
(0.000923699 9.56342e-06 0)
(0.000839695 -2.07577e-05 0)
(0.000964368 4.90243e-06 0)
(0.000860322 5.25423e-06 0)
(0.000918001 1.02242e-06 0)
(0.000862866 7.43907e-06 0)
(0.000856704 1.25645e-06 0)
(0.000867039 8.17075e-06 0)
(0.000852153 9.22964e-07 0)
(0.000280645 -0.000584766 0)
(0.000844558 -2.66687e-05 0)
(0.000973228 3.41972e-06 0)
(0.000269117 -0.000356432 0)
(0.000815582 -2.12454e-05 0)
(0.00094248 8.92574e-08 0)
(0.000993506 2.30249e-06 0)
(0.000961915 4.06251e-07 0)
(0.000995819 2.76262e-06 0)
(0.000739357 -3.26385e-05 0)
(0.000740528 -3.4104e-05 0)
(0.000687761 -5.26437e-05 0)
(0.000745669 -4.42804e-05 0)
(0.000901151 -3.93911e-05 0)
(0.000843524 4.53713e-06 0)
(0.000964478 -6.0152e-07 0)
(0.000976745 3.14157e-06 0)
(0.000791313 -0.000177266 0)
(0.000285374 -0.000138028 0)
(0.000861476 -0.000144296 0)
(0.00102614 2.11491e-06 0)
(0.000695242 -4.85961e-05 0)
(0.000808943 -0.000145405 0)
(0.000993844 2.67924e-06 0)
(0.000959805 -8.85088e-06 0)
(0.000862561 -0.000102118 0)
(0.000874617 -5.51012e-06 0)
(0.000176037 -0.000629904 0)
(0.000670513 -0.000299545 0)
(0.000957483 -2.21537e-05 0)
(0.000966477 1.94236e-06 0)
(0.000694139 -3.37722e-05 0)
(0.000185426 -0.000590992 0)
(0.000860807 -0.000283981 0)
(0.000969737 8.96459e-07 0)
(0.000774469 -2.45964e-05 0)
(0.000839447 -0.000289929 0)
(0.000761162 -9.19854e-06 0)
(3.95378e-05 -0.000734535 0)
(0.000894245 1.01074e-05 0)
(0.000870404 -8.94584e-06 0)
(0.000528135 -0.000102732 0)
(0.000534473 -0.000101393 0)
(0.00054428 -9.57465e-05 0)
(0.00100414 6.85227e-06 0)
(0.000898047 8.31705e-06 0)
(0.000936886 -4.05113e-05 0)
(0.000838025 -0.000274313 0)
(0.000957869 2.30463e-07 0)
(0.000924947 -2.70925e-05 0)
(0.000684132 -9.16921e-05 0)
(0.000975258 3.34879e-06 0)
(0.000852929 -2.59908e-05 0)
(0.000943507 -6.50375e-05 0)
(0.000939374 -1.29831e-05 0)
(0.00036254 -0.000142135 0)
(0.000731456 -4.2234e-05 0)
(0.00075201 -3.06808e-05 0)
(0.000655283 -4.47846e-05 0)
(0.00065685 -4.4916e-05 0)
(0.000147437 -0.000644516 0)
(0.000938647 -1.55195e-05 0)
(0.000151652 -0.00074774 0)
(0.000928443 -2.43806e-06 0)
(0.000955984 1.52247e-06 0)
(0.000949819 -4.86674e-05 0)
(0.00103396 3.09326e-06 0)
(0.000932048 -1.47432e-06 0)
(0.000831482 2.75979e-06 0)
(0.000887816 8.18257e-06 0)
(0.000826008 2.04613e-06 0)
(0.000931962 8.47086e-06 0)
(0.000762179 -2.49831e-05 0)
(0.000977774 2.85066e-06 0)
(0.00097639 2.99404e-06 0)
(6.06482e-07 -0.000886342 0)
(0.000940595 -1.18812e-05 0)
(0.000738089 -3.81383e-05 0)
(0.00069566 -0.000118782 0)
(0.000708551 -0.000111659 0)
(0.000475925 -0.000135067 0)
(0.00087085 5.85214e-06 0)
(0.000910055 -7.75406e-05 0)
(0.000860298 -8.31176e-07 0)
(0.000927506 -6.95715e-05 0)
(0.000752522 -2.64693e-05 0)
(0.000873013 -2.09534e-05 0)
(0.000644538 -0.000528354 0)
(0.000680745 -0.000285751 0)
(0.000866112 -0.000115005 0)
(0.000801801 -4.3547e-05 0)
(0.000579587 -0.000364801 0)
(0.000188961 -0.000640745 0)
(0.000569038 -0.000148492 0)
(0.000833141 -6.63236e-05 0)
(0.000645337 -4.69349e-05 0)
(0.00096049 -1.64291e-06 0)
(0.000455666 -0.000406617 0)
(0.000728133 -0.000161463 0)
(0.000916972 -1.56322e-05 0)
(0.000730859 -0.000340028 0)
(0.000836425 1.37912e-06 0)
(0.000887017 -3.72417e-05 0)
(0.0010007 5.13183e-07 0)
(0.000729082 -0.000351072 0)
(0.000880236 -0.000101946 0)
(0.000573723 -0.000171263 0)
(0.00087381 3.5243e-06 0)
(0.000873492 2.89062e-06 0)
(8.98102e-05 -0.000817577 0)
(0.00102052 8.12157e-06 0)
(0.000801754 -4.01142e-05 0)
(0.000896614 -2.34538e-05 0)
(0.00102628 5.45678e-06 0)
(0.000187831 -0.000661141 0)
(0.000839796 -2.32666e-05 0)
(0.000967832 4.36938e-06 0)
(0.00037964 -0.000563953 0)
(7.73502e-05 -0.000832423 0)
(0.000869624 3.42971e-06 0)
(0.000894976 -3.24052e-05 0)
(0.00100246 1.14711e-06 0)
(0.000802222 -2.4319e-06 0)
(0.00095857 4.00949e-06 0)
(0.000686746 -0.000528475 0)
(2.30295e-05 -0.000860731 0)
(0.000963711 3.98862e-07 0)
(0.000933955 6.45236e-06 0)