/*--------------------------------*- C++ -*----------------------------------*\
| =========                 |                                                 |
| \\      /  F ield         | OpenFOAM: The Open Source CFD Toolbox           |
|  \\    /   O peration     | Version:  v2012                                 |
|   \\  /    A nd           | Website:  www.openfoam.com                      |
|    \\/     M anipulation  |                                                 |
\*---------------------------------------------------------------------------*/
FoamFile
{
    version     2.0;
    format      ascii;
    class       pointVectorField;
    location    "15";
    object      pointD;
}
// * * * * * * * * * * * * * * * * * * * * * * * * * * * * * * * * * * * * * //

dimensions      [0 1 0 0 0 0 0];


internalField   nonuniform List<vector> 
32562
(
(0.0022907 0 0)
(0.00297188 0 0)
(0.00273162 -0.000197541 0)
(0 -0.00182892 0)
(0 -0.000568301 0)
(0.00235405 0 0)
(0 -0.00173827 0)
(0.00155838 -0.000447168 0)
(0.000687074 -0.000828829 0)
(0.00286098 -4.0361e-05 0)
(0.00185285 -0.000718578 0)
(0.00185285 -0.000718578 0)
(0.00155838 -0.000447168 0)
(0 -0.00173827 0)
(0 -0.000568301 0)
(0.0022907 0 0)
(0.00235405 0 0)
(0.00297188 0 0)
(0.00286098 -4.0361e-05 0)
(0.00273162 -0.000197541 0)
(0.000687074 -0.000828829 0)
(0 -0.00182892 0)
(3.46842e-05 -0.00173516 0)
(6.96264e-05 -0.0017269 0)
(0.000104982 -0.00171385 0)
(0.000140838 -0.00169628 0)
(0.000177732 -0.00167446 0)
(0.000215972 -0.00164848 0)
(0.000255817 -0.0016185 0)
(0.000297352 -0.00158476 0)
(0.000340538 -0.00154762 0)
(0.00038523 -0.00150751 0)
(0.000431191 -0.00146496 0)
(0.000478115 -0.00142055 0)
(0.000525645 -0.0013749 0)
(0.000573385 -0.00132864 0)
(0.000620911 -0.0012824 0)
(0.000667789 -0.00123677 0)
(0.000713587 -0.00119232 0)
(0.000757896 -0.00114955 0)
(0.000800376 -0.00110885 0)
(0.000840863 -0.00107032 0)
(0.000879508 -0.00103368 0)
(0.000916869 -0.000998233 0)
(0.000953779 -0.000963212 0)
(0.000990549 -0.000928332 0)
(0.00102722 -0.000893715 0)
(0.00106377 -0.000859498 0)
(0.0011002 -0.000825771 0)
(0.00113649 -0.000792597 0)
(0.00117263 -0.000760021 0)
(0.00120863 -0.000728078 0)
(0.00124448 -0.000696797 0)
(0.00128015 -0.0006662 0)
(0.00131566 -0.000636308 0)
(0.00135097 -0.000607135 0)
(0.00138608 -0.000578694 0)
(0.00142099 -0.000550992 0)
(0.00145567 -0.00052403 0)
(0.00149012 -0.000497798 0)
(0.00152435 -0.000472249 0)
(0.00159158 -0.000423917 0)
(0.00162454 -0.000401281 0)
(0.00165719 -0.000379335 0)
(0.00168946 -0.000358113 0)
(0.00172133 -0.000337633 0)
(0.00175276 -0.000317904 0)
(0.00178371 -0.000298928 0)
(0.00181415 -0.000280704 0)
(0.00184406 -0.000263227 0)
(0.00187339 -0.00024649 0)
(0.00190213 -0.000230484 0)
(0.00193024 -0.000215198 0)
(0.00195769 -0.000200621 0)
(0.00198445 -0.000186738 0)
(0.00201048 -0.000173535 0)
(0.00203577 -0.000160994 0)
(0.00206028 -0.0001491 0)
(0.00208398 -0.000137833 0)
(0.00210685 -0.000127173 0)
(0.00212885 -0.0001171 0)
(0.00214996 -0.000107593 0)
(0.00217016 -9.86279e-05 0)
(0.00218942 -9.01824e-05 0)
(0.00220772 -8.22321e-05 0)
(0.00222502 -7.47518e-05 0)
(0.00224132 -6.77159e-05 0)
(0.00225659 -6.10978e-05 0)
(0.00227081 -5.48706e-05 0)
(0.00228396 -4.90063e-05 0)
(0.00229603 -4.34768e-05 0)
(0.002307 -3.82532e-05 0)
(0.00231685 -3.33061e-05 0)
(0.00232557 -2.86057e-05 0)
(0.00233315 -2.41218e-05 0)
(0.00233958 -1.98238e-05 0)
(0.00234484 -1.56805e-05 0)
(0.00234894 -1.16605e-05 0)
(0.00235186 -7.73179e-06 0)
(0.00235358 -3.86027e-06 0)
(0.00229495 0 0)
(0.00229892 0 0)
(0.00230262 0 0)
(0.00230608 0 0)
(0.0023093 0 0)
(0.00231229 0 0)
(0.00231508 0 0)
(0.00231767 0 0)
(0.00232009 0 0)
(0.00232233 0 0)
(0.00232443 0 0)
(0.00232638 0 0)
(0.0023282 0 0)
(0.0023299 0 0)
(0.00233149 0 0)
(0.00233298 0 0)
(0.00233437 0 0)
(0.00233568 0 0)
(0.00233691 0 0)
(0.00233808 0 0)
(0.00233918 0 0)
(0.00234022 0 0)
(0.00234121 0 0)
(0.00234215 0 0)
(0.00234305 0 0)
(0.00234392 0 0)
(0.00234475 0 0)
(0.00234555 0 0)
(0.00234633 0 0)
(0.00234708 0 0)
(0.00234782 0 0)
(0.00234854 0 0)
(0.00234925 0 0)
(0.00234995 0 0)
(0.00235064 0 0)
(0.00235133 0 0)
(0.00235201 0 0)
(0.00235269 0 0)
(0.00235337 0 0)
(0.00235595 0 0)
(0.00235787 0 0)
(0.00235985 0 0)
(0.00236191 0 0)
(0.00236408 0 0)
(0.00236638 0 0)
(0.00236881 0 0)
(0.00237139 0 0)
(0.00237413 0 0)
(0.00237704 0 0)
(0.00238011 0 0)
(0.00238337 0 0)
(0.0023868 0 0)
(0.00239041 0 0)
(0.00239422 0 0)
(0.00239821 0 0)
(0.00240239 0 0)
(0.00240676 0 0)
(0.00241133 0 0)
(0.00241609 0 0)
(0.00242104 0 0)
(0.00242618 0 0)
(0.00243152 0 0)
(0.00243705 0 0)
(0.00244277 0 0)
(0.00244867 0 0)
(0.00245477 0 0)
(0.00246105 0 0)
(0.00246752 0 0)
(0.00247418 0 0)
(0.00248101 0 0)
(0.00248803 0 0)
(0.00249522 0 0)
(0.00250259 0 0)
(0.00251013 0 0)
(0.00251785 0 0)
(0.00252573 0 0)
(0.00253378 0 0)
(0.00254199 0 0)
(0.00255037 0 0)
(0.0025589 0 0)
(0.00256759 0 0)
(0.00257642 0 0)
(0.00258541 0 0)
(0.00259455 0 0)
(0.00260382 0 0)
(0.00261324 0 0)
(0.00262279 0 0)
(0.00263248 0 0)
(0.00264229 0 0)
(0.00265223 0 0)
(0.00266229 0 0)
(0.00267246 0 0)
(0.00268275 0 0)
(0.00269315 0 0)
(0.00270365 0 0)
(0.00271425 0 0)
(0.00272495 0 0)
(0.00273573 0 0)
(0.0027466 0 0)
(0.00275755 0 0)
(0.00276858 0 0)
(0.00277967 0 0)
(0.00279083 0 0)
(0.00280204 0 0)
(0.00281331 0 0)
(0.00282461 0 0)
(0.00283596 0 0)
(0.00284733 0 0)
(0.00285872 0 0)
(0.00287013 0 0)
(0.00288154 0 0)
(0.00289295 0 0)
(0.00290434 0 0)
(0.00291571 0 0)
(0.00292705 0 0)
(0.00293834 0 0)
(0.00294958 0 0)
(0.00296076 0 0)
(0.00297172 1.49029e-07 0)
(0.00297143 2.78273e-07 0)
(0.002971 3.95038e-07 0)
(0.0029704 4.96921e-07 0)
(0.00296964 5.79644e-07 0)
(0.00296871 6.38475e-07 0)
(0.00296762 6.68599e-07 0)
(0.00296637 6.6523e-07 0)
(0.00296496 6.23641e-07 0)
(0.00296339 5.3918e-07 0)
(0.00296166 4.07277e-07 0)
(0.00295978 2.23444e-07 0)
(0.00295775 -1.67147e-08 0)
(0.00295557 -3.17501e-07 0)
(0.00295325 -6.83115e-07 0)
(0.00295078 -1.11765e-06 0)
(0.00294818 -1.62509e-06 0)
(0.00294544 -2.20928e-06 0)
(0.00294257 -2.87397e-06 0)
(0.00293958 -3.62275e-06 0)
(0.00293646 -4.45909e-06 0)
(0.00293323 -5.38629e-06 0)
(0.00292988 -6.40751e-06 0)
(0.00292643 -7.52577e-06 0)
(0.00292287 -8.74389e-06 0)
(0.00291922 -1.00645e-05 0)
(0.00291547 -1.14902e-05 0)
(0.00291163 -1.30232e-05 0)
(0.00290772 -1.46656e-05 0)
(0.00290373 -1.64194e-05 0)
(0.00289967 -1.82863e-05 0)
(0.00289555 -2.02678e-05 0)
(0.00289136 -2.23653e-05 0)
(0.00288713 -2.45798e-05 0)
(0.00288285 -2.69122e-05 0)
(0.00287853 -2.93633e-05 0)
(0.00287418 -3.19336e-05 0)
(0.0028698 -3.46235e-05 0)
(0.0028654 -3.7433e-05 0)
(0.00285903 -4.16926e-05 0)
(0.00285707 -4.30472e-05 0)
(0.00285512 -4.44247e-05 0)
(0.00285316 -4.58251e-05 0)
(0.00285121 -4.72483e-05 0)
(0.00284925 -4.86943e-05 0)
(0.0028473 -5.0163e-05 0)
(0.00284534 -5.16541e-05 0)
(0.00284339 -5.31677e-05 0)
(0.00284144 -5.47034e-05 0)
(0.0028395 -5.62612e-05 0)
(0.00283756 -5.78409e-05 0)
(0.00283562 -5.94423e-05 0)
(0.00283369 -6.10652e-05 0)
(0.00283177 -6.27094e-05 0)
(0.00282985 -6.43747e-05 0)
(0.00282794 -6.60608e-05 0)
(0.00282603 -6.77676e-05 0)
(0.00282413 -6.94947e-05 0)
(0.00282224 -7.1242e-05 0)
(0.00282036 -7.30091e-05 0)
(0.00281849 -7.47957e-05 0)
(0.00281663 -7.66017e-05 0)
(0.00281477 -7.84267e-05 0)
(0.00281293 -8.02703e-05 0)
(0.0028111 -8.21323e-05 0)
(0.00280927 -8.40123e-05 0)
(0.00280746 -8.591e-05 0)
(0.00280566 -8.7825e-05 0)
(0.00280388 -8.9757e-05 0)
(0.0028021 -9.17055e-05 0)
(0.00280034 -9.36703e-05 0)
(0.00279859 -9.56509e-05 0)
(0.00279685 -9.76468e-05 0)
(0.00279513 -9.96578e-05 0)
(0.00279342 -0.000101683 0)
(0.00279173 -0.000103723 0)
(0.00279005 -0.000105776 0)
(0.00278838 -0.000107843 0)
(0.00278673 -0.000109922 0)
(0.0027851 -0.000112013 0)
(0.00278348 -0.000114116 0)
(0.00278187 -0.000116231 0)
(0.00278028 -0.000118356 0)
(0.00277871 -0.000120492 0)
(0.00277715 -0.000122637 0)
(0.00277561 -0.000124791 0)
(0.00277408 -0.000126954 0)
(0.00277257 -0.000129125 0)
(0.00277107 -0.000131304 0)
(0.00276959 -0.00013349 0)
(0.00276812 -0.000135682 0)
(0.00276667 -0.00013788 0)
(0.00276524 -0.000140083 0)
(0.00276382 -0.000142291 0)
(0.00276241 -0.000144503 0)
(0.00276102 -0.000146718 0)
(0.00275964 -0.000148937 0)
(0.00275828 -0.000151157 0)
(0.00275693 -0.00015338 0)
(0.00275559 -0.000155604 0)
(0.00275427 -0.000157828 0)
(0.00275295 -0.000160053 0)
(0.00275165 -0.000162277 0)
(0.00275036 -0.000164501 0)
(0.00274907 -0.000166723 0)
(0.0027478 -0.000168943 0)
(0.00274653 -0.000171161 0)
(0.00274528 -0.000173377 0)
(0.00274402 -0.000175589 0)
(0.00274278 -0.000177798 0)
(0.00274153 -0.000180004 0)
(0.00274029 -0.000182207 0)
(0.00273906 -0.000184406 0)
(0.00273782 -0.000186601 0)
(0.00273658 -0.000188794 0)
(0.00273535 -0.000190983 0)
(0.00273411 -0.00019317 0)
(0.00273287 -0.000195356 0)
(0.00271567 -0.00020144 0)
(0.00269973 -0.000205348 0)
(0.00268383 -0.000209239 0)
(0.00266797 -0.000213082 0)
(0.00265212 -0.000216847 0)
(0.00263629 -0.000220512 0)
(0.00262046 -0.000224056 0)
(0.0026046 -0.000227465 0)
(0.0025887 -0.000230728 0)
(0.00257275 -0.000233837 0)
(0.00255672 -0.000236789 0)
(0.00254061 -0.00023958 0)
(0.00252439 -0.000242211 0)
(0.00250804 -0.000244684 0)
(0.00249156 -0.000247001 0)
(0.00247493 -0.000249168 0)
(0.00245813 -0.000251191 0)
(0.00244115 -0.000253076 0)
(0.00242397 -0.000254833 0)
(0.00240659 -0.00025647 0)
(0.00238899 -0.000257996 0)
(0.00237116 -0.000259423 0)
(0.00235309 -0.000260761 0)
(0.00233476 -0.000262023 0)
(0.00231617 -0.000263221 0)
(0.0022973 -0.000264368 0)
(0.00227814 -0.000265477 0)
(0.00225869 -0.000266563 0)
(0.00223893 -0.00026764 0)
(0.00221886 -0.000268724 0)
(0.00219845 -0.00026983 0)
(0.00217771 -0.000270975 0)
(0.00215662 -0.000272174 0)
(0.00213518 -0.000273446 0)
(0.00211338 -0.000274809 0)
(0.0020912 -0.00027628 0)
(0.00206863 -0.000277879 0)
(0.00204568 -0.000279625 0)
(0.00202233 -0.000281539 0)
(0.00199857 -0.000283642 0)
(0.00197439 -0.000285954 0)
(0.00194979 -0.000288497 0)
(0.00192476 -0.000291296 0)
(0.0018993 -0.000294372 0)
(0.00187339 -0.00029775 0)
(0.00184703 -0.000301454 0)
(0.00182021 -0.000305511 0)
(0.00179293 -0.000309945 0)
(0.00176519 -0.000314783 0)
(0.00173697 -0.000320053 0)
(0.00170829 -0.000325783 0)
(0.00167912 -0.000332001 0)
(0.00164948 -0.000338736 0)
(0.00161936 -0.000346018 0)
(0.00158876 -0.000353876 0)
(0.00155768 -0.000362343 0)
(0.00152613 -0.000371447 0)
(0.0014941 -0.000381222 0)
(0.0014616 -0.000391698 0)
(0.00142864 -0.000402908 0)
(0.00139523 -0.000414883 0)
(0.00136137 -0.000427654 0)
(0.00132708 -0.000441255 0)
(0.00129238 -0.000455714 0)
(0.00125728 -0.000471061 0)
(0.00122182 -0.000487323 0)
(0.00118605 -0.000504536 0)
(0.00114993 -0.000522738 0)
(0.00111337 -0.000542002 0)
(0.00107628 -0.000562371 0)
(0.00103865 -0.000583879 0)
(0.00100049 -0.000606533 0)
(0.000961846 -0.00063032 0)
(0.000922813 -0.000655221 0)
(0.000883488 -0.00068122 0)
(0.000843991 -0.000708316 0)
(0.000804453 -0.000736541 0)
(0.000765024 -0.000765967 0)
(0.000725855 -0.000796695 0)
(0.000659188 -0.00085287 0)
(0.000631516 -0.00087768 0)
(0.000603901 -0.00090316 0)
(0.00057632 -0.000929291 0)
(0.000548838 -0.000956095 0)
(0.000521504 -0.000983576 0)
(0.000494368 -0.00101173 0)
(0.000467477 -0.00104055 0)
(0.000440883 -0.00107003 0)
(0.00041464 -0.00110014 0)
(0.000388807 -0.00113085 0)
(0.000363448 -0.00116214 0)
(0.000338629 -0.00119396 0)
(0.00031442 -0.00122624 0)
(0.000290892 -0.00125892 0)
(0.000268116 -0.0012919 0)
(0.000246161 -0.0013251 0)
(0.000225093 -0.00135839 0)
(0.00020497 -0.00139165 0)
(0.000185839 -0.00142473 0)
(0.000167742 -0.00145748 0)
(0.000150706 -0.00148976 0)
(0.000134747 -0.0015214 0)
(0.000119871 -0.00155225 0)
(0.000106073 -0.00158214 0)
(9.33368e-05 -0.00161094 0)
(8.16396e-05 -0.00163848 0)
(7.09485e-05 -0.00166464 0)
(6.1224e-05 -0.00168926 0)
(5.24192e-05 -0.00171224 0)
(4.44805e-05 -0.00173343 0)
(3.73476e-05 -0.00175274 0)
(3.09536e-05 -0.00177006 0)
(2.5225e-05 -0.00178528 0)
(2.00816e-05 -0.00179832 0)
(1.54369e-05 -0.00180911 0)
(1.11987e-05 -0.00181759 0)
(7.26937e-06 -0.00182371 0)
(3.5513e-06 -0.00182745 0)
(0 -0.00182849 0)
(0 -0.001828 0)
(0 -0.00182746 0)
(0 -0.00182687 0)
(0 -0.00182624 0)
(0 -0.00182557 0)
(0 -0.00182486 0)
(0 -0.0018241 0)
(0 -0.00182331 0)
(0 -0.00182248 0)
(0 -0.00182162 0)
(0 -0.00182072 0)
(0 -0.00181979 0)
(0 -0.00181883 0)
(0 -0.00181785 0)
(0 -0.00181683 0)
(0 -0.00181579 0)
(0 -0.00181473 0)
(0 -0.00181364 0)
(0 -0.00181253 0)
(0 -0.0018114 0)
(0 -0.00181025 0)
(0 -0.00180909 0)
(0 -0.00180791 0)
(0 -0.00180671 0)
(0 -0.00180549 0)
(0 -0.00180427 0)
(0 -0.00180303 0)
(0 -0.00180178 0)
(0 -0.00180052 0)
(0 -0.00179925 0)
(0 -0.00179797 0)
(0 -0.00179668 0)
(0 -0.00179539 0)
(0 -0.00179409 0)
(0 -0.00179278 0)
(0 -0.00179147 0)
(0 -0.00179016 0)
(0 -0.00178884 0)
(0 -0.00178753 0)
(0 -0.00178621 0)
(0 -0.00178489 0)
(0 -0.00178356 0)
(0 -0.00178224 0)
(0 -0.00178092 0)
(0 -0.00177961 0)
(0 -0.00177829 0)
(0 -0.00177698 0)
(0 -0.00177567 0)
(0 -0.00177436 0)
(0 -0.00177306 0)
(0 -0.00177176 0)
(0 -0.00177047 0)
(0 -0.00176919 0)
(0 -0.00176791 0)
(0 -0.00176663 0)
(0 -0.00176537 0)
(0 -0.00176411 0)
(0 -0.00176286 0)
(0 -0.00176161 0)
(0 -0.00176037 0)
(0 -0.00175915 0)
(0 -0.00175793 0)
(0 -0.00175671 0)
(0 -0.00175551 0)
(0 -0.00175432 0)
(0 -0.00175313 0)
(0 -0.00175195 0)
(0 -0.00175078 0)
(0 -0.00174962 0)
(0 -0.00174847 0)
(0 -0.00174732 0)
(0 -0.00174618 0)
(0 -0.00174504 0)
(0 -0.00174391 0)
(0 -0.00174278 0)
(0 -0.00174166 0)
(0 -0.00174053 0)
(0 -0.0017394 0)
(0 -0.00173589 0)
(0 -0.00173339 0)
(0 -0.00173048 0)
(0 -0.001727 0)
(0 -0.00172283 0)
(0 -0.00171782 0)
(0 -0.00171182 0)
(0 -0.0017047 0)
(0 -0.00169631 0)
(0 -0.00168654 0)
(0 -0.00167526 0)
(0 -0.00166238 0)
(0 -0.0016478 0)
(0 -0.00163145 0)
(0 -0.00161326 0)
(0 -0.00159319 0)
(0 -0.0015712 0)
(0 -0.00154726 0)
(0 -0.00152135 0)
(0 -0.00149347 0)
(0 -0.00146362 0)
(0 -0.0014318 0)
(0 -0.00139803 0)
(0 -0.00136232 0)
(0 -0.0013247 0)
(0 -0.0012852 0)
(0 -0.00124386 0)
(0 -0.00120071 0)
(0 -0.00115581 0)
(0 -0.00110921 0)
(0 -0.00106098 0)
(0 -0.00101119 0)
(0 -0.00095992 0)
(0 -0.000907254 0)
(0 -0.00085329 0)
(0 -0.000798132 0)
(0 -0.000741899 0)
(0 -0.000684724 0)
(0 -0.000626777 0)
(0.00157948 -0.000419753 0)
(0.00160036 -0.000393476 0)
(0.00162105 -0.000368487 0)
(0.00164153 -0.000344824 0)
(0.00166178 -0.000322486 0)
(0.00168178 -0.000301455 0)
(0.00170154 -0.0002817 0)
(0.00172105 -0.000263185 0)
(0.00174031 -0.000245869 0)
(0.00175933 -0.000229707 0)
(0.00177809 -0.000214654 0)
(0.00179662 -0.000200665 0)
(0.00181492 -0.000187691 0)
(0.001833 -0.000175686 0)
(0.00185086 -0.000164605 0)
(0.00186852 -0.000154401 0)
(0.00188599 -0.000145031 0)
(0.00190326 -0.00013645 0)
(0.00192037 -0.000128617 0)
(0.00193731 -0.00012149 0)
(0.00195409 -0.00011503 0)
(0.00197073 -0.0001092 0)
(0.00198724 -0.000103961 0)
(0.00200363 -9.92783e-05 0)
(0.0020199 -9.5118e-05 0)
(0.00203606 -9.1447e-05 0)
(0.00205213 -8.82337e-05 0)
(0.00206811 -8.54477e-05 0)
(0.002084 -8.30599e-05 0)
(0.00209983 -8.10422e-05 0)
(0.00211559 -7.93677e-05 0)
(0.00213128 -7.80105e-05 0)
(0.00214693 -7.69459e-05 0)
(0.00216253 -7.61498e-05 0)
(0.00217808 -7.55995e-05 0)
(0.0021936 -7.52728e-05 0)
(0.00220908 -7.51485e-05 0)
(0.00222454 -7.52063e-05 0)
(0.00223997 -7.54264e-05 0)
(0.00225537 -7.579e-05 0)
(0.00227076 -7.62788e-05 0)
(0.00228613 -7.68752e-05 0)
(0.00230149 -7.75622e-05 0)
(0.00231683 -7.83236e-05 0)
(0.00233217 -7.91433e-05 0)
(0.00234749 -8.00062e-05 0)
(0.00236281 -8.08973e-05 0)
(0.00237812 -8.18022e-05 0)
(0.00239342 -8.27069e-05 0)
(0.00240871 -8.35978e-05 0)
(0.002424 -8.44617e-05 0)
(0.00243928 -8.52856e-05 0)
(0.00245456 -8.60568e-05 0)
(0.00246983 -8.67629e-05 0)
(0.00248508 -8.73917e-05 0)
(0.00250033 -8.79312e-05 0)
(0.00251557 -8.83695e-05 0)
(0.0025308 -8.86947e-05 0)
(0.00254602 -8.88952e-05 0)
(0.00256122 -8.89592e-05 0)
(0.00257641 -8.88749e-05 0)
(0.00259158 -8.86304e-05 0)
(0.00260673 -8.82137e-05 0)
(0.00262187 -8.76124e-05 0)
(0.00263698 -8.68139e-05 0)
(0.00265208 -8.58052e-05 0)
(0.00266715 -8.45729e-05 0)
(0.0026822 -8.31028e-05 0)
(0.00269722 -8.138e-05 0)
(0.00271222 -7.93891e-05 0)
(0.00272719 -7.71132e-05 0)
(0.00274215 -7.45347e-05 0)
(0.00275707 -7.16345e-05 0)
(0.00277197 -6.83919e-05 0)
(0.00278685 -6.47848e-05 0)
(0.00280171 -6.07889e-05 0)
(0.00281655 -5.63779e-05 0)
(0.00283138 -5.15235e-05 0)
(0.00284618 -4.61949e-05 0)
(0.00154615 -0.000451751 0)
(0.00153399 -0.000456332 0)
(0.00152187 -0.000460913 0)
(0.00150981 -0.000465494 0)
(0.00149779 -0.000470079 0)
(0.00148582 -0.000474668 0)
(0.00147389 -0.000479264 0)
(0.00146202 -0.000483868 0)
(0.00145018 -0.000488479 0)
(0.0014384 -0.000493099 0)
(0.00142666 -0.000497728 0)
(0.00141496 -0.000502365 0)
(0.00140331 -0.000507011 0)
(0.0013917 -0.000511666 0)
(0.00138014 -0.000516328 0)
(0.00136863 -0.000520999 0)
(0.00135716 -0.000525676 0)
(0.00134573 -0.00053036 0)
(0.00133435 -0.000535051 0)
(0.00132301 -0.000539747 0)
(0.00131172 -0.000544448 0)
(0.00130047 -0.000549155 0)
(0.00128926 -0.000553865 0)
(0.00127809 -0.000558579 0)
(0.00126696 -0.000563297 0)
(0.00125588 -0.000568018 0)
(0.00124483 -0.000572741 0)
(0.00123382 -0.000577466 0)
(0.00122285 -0.000582193 0)
(0.00121192 -0.000586922 0)
(0.00120102 -0.000591652 0)
(0.00119016 -0.000596384 0)
(0.00117933 -0.000601116 0)
(0.00116853 -0.000605849 0)
(0.00115777 -0.000610582 0)
(0.00114704 -0.000615316 0)
(0.00113635 -0.00062005 0)
(0.00112568 -0.000624785 0)
(0.00111504 -0.00062952 0)
(0.00110443 -0.000634255 0)
(0.00109384 -0.00063899 0)
(0.00108328 -0.000643726 0)
(0.00107275 -0.000648462 0)
(0.00106224 -0.000653198 0)
(0.00105176 -0.000657935 0)
(0.00104129 -0.000662672 0)
(0.00103085 -0.00066741 0)
(0.00102043 -0.000672149 0)
(0.00101003 -0.000676889 0)
(0.000999641 -0.00068163 0)
(0.00098927 -0.000686373 0)
(0.000978915 -0.000691118 0)
(0.000968572 -0.000695865 0)
(0.000958241 -0.000700615 0)
(0.000947919 -0.000705368 0)
(0.000937606 -0.000710125 0)
(0.000927298 -0.000714887 0)
(0.000916995 -0.000719655 0)
(0.000906694 -0.000724429 0)
(0.000896394 -0.000729211 0)
(0.000886091 -0.000734001 0)
(0.000875783 -0.000738801 0)
(0.00086547 -0.000743612 0)
(0.000855147 -0.000748436 0)
(0.000844813 -0.000753274 0)
(0.000834464 -0.000758128 0)
(0.000824099 -0.000763 0)
(0.000813715 -0.000767891 0)
(0.00080331 -0.000772803 0)
(0.000792879 -0.000777738 0)
(0.000782422 -0.000782698 0)
(0.000771934 -0.000787685 0)
(0.000761415 -0.000792699 0)
(0.000750861 -0.000797743 0)
(0.00074027 -0.000802816 0)
(0.000729641 -0.000807918 0)
(0.000718973 -0.00081305 0)
(0.000708265 -0.000818209 0)
(0.00069759 -0.000823441 0)
(9.43203e-05 -0.000572813 0)
(0.000188052 -0.00058237 0)
(0.000280871 -0.000596894 0)
(0.000372321 -0.000616268 0)
(0.000461914 -0.000640252 0)
(0.000549186 -0.000668505 0)
(0.000633745 -0.000700588 0)
(0.000715279 -0.000735988 0)
(0.000793571 -0.000774119 0)
(0.000868477 -0.000814331 0)
(0.000939903 -0.000855893 0)
(0.00100776 -0.000897978 0)
(0.00107193 -0.000939633 0)
(0.00113222 -0.000979748 0)
(0.00118837 -0.00101704 0)
(0.00124002 -0.00105007 0)
(0.00128687 -0.00107733 0)
(0.00132865 -0.00109737 0)
(0.0013653 -0.0011089 0)
(0.00139694 -0.00111095 0)
(0.00142393 -0.0011031 0)
(0.00144714 -0.00108639 0)
(0.00146877 -0.00106515 0)
(0.00149104 -0.0010443 0)
(0.00151376 -0.00102364 0)
(0.0015368 -0.00100308 0)
(0.00156004 -0.000982558 0)
(0.0015834 -0.000962066 0)
(0.00160679 -0.000941591 0)
(0.00163015 -0.00092113 0)
(0.00165343 -0.000900685 0)
(0.00167659 -0.000880261 0)
(0.00169956 -0.000859864 0)
(0.00172233 -0.000839503 0)
(0.00174485 -0.000819186 0)
(0.0017671 -0.000798923 0)
(0.00178904 -0.000778722 0)
(0.00181066 -0.000758592 0)
(0.00183194 -0.000738541 0)
(0.00187337 -0.000698708 0)
(0.0018935 -0.000678938 0)
(0.00191322 -0.000659273 0)
(0.00193251 -0.000639718 0)
(0.00195137 -0.000620275 0)
(0.00196979 -0.000600948 0)
(0.00198775 -0.000581739 0)
(0.00200524 -0.000562649 0)
(0.00202227 -0.000543677 0)
(0.00203882 -0.000524825 0)
(0.00205488 -0.000506091 0)
(0.00207046 -0.000487473 0)
(0.00208553 -0.000468971 0)
(0.00210011 -0.000450582 0)
(0.00211417 -0.000432303 0)
(0.00212773 -0.000414132 0)
(0.00214076 -0.000396065 0)
(0.00215328 -0.0003781 0)
(0.00216527 -0.000360231 0)
(0.00217672 -0.000342457 0)
(0.00218765 -0.000324772 0)
(0.00219803 -0.000307172 0)
(0.00220788 -0.000289654 0)
(0.00221718 -0.000272214 0)
(0.00222593 -0.000254846 0)
(0.00223413 -0.000237547 0)
(0.00224179 -0.000220312 0)
(0.00224888 -0.000203136 0)
(0.00225542 -0.000186016 0)
(0.0022614 -0.000168947 0)
(0.00226682 -0.000151924 0)
(0.00227167 -0.000134943 0)
(0.00227596 -0.000118 0)
(0.00227969 -0.00010109 0)
(0.00228286 -8.42095e-05 0)
(0.00228547 -6.73545e-05 0)
(0.00228752 -5.05213e-05 0)
(0.00228903 -3.37056e-05 0)
(0.00229003 -1.68955e-05 0)
(0.00184006 -0.000706042 0)
(0.00182775 -0.000694041 0)
(0.00181588 -0.000682539 0)
(0.00180443 -0.000671507 0)
(0.00179338 -0.000660917 0)
(0.0017827 -0.000650744 0)
(0.00177237 -0.000640963 0)
(0.00176238 -0.000631554 0)
(0.00175271 -0.000622495 0)
(0.00174334 -0.000613769 0)
(0.00173427 -0.000605358 0)
(0.00172547 -0.000597245 0)
(0.00171693 -0.000589415 0)
(0.00170865 -0.000581855 0)
(0.00170062 -0.000574551 0)
(0.00169281 -0.000567491 0)
(0.00168523 -0.000560661 0)
(0.00167787 -0.000554052 0)
(0.00167071 -0.000547653 0)
(0.00166376 -0.000541454 0)
(0.001657 -0.000535445 0)
(0.00165042 -0.000529617 0)
(0.00164403 -0.000523961 0)
(0.00163781 -0.00051847 0)
(0.00163176 -0.000513136 0)
(0.00162588 -0.000507951 0)
(0.00162015 -0.000502908 0)
(0.00161458 -0.000498 0)
(0.00160916 -0.00049322 0)
(0.00160388 -0.000488563 0)
(0.00159875 -0.000484022 0)
(0.00159376 -0.000479591 0)
(0.0015889 -0.000475264 0)
(0.00158417 -0.000471034 0)
(0.00157958 -0.000466895 0)
(0.0015751 -0.00046284 0)
(0.00157076 -0.000458858 0)
(0.00156653 -0.000454939 0)
(0.00156241 -0.000451059 0)
(0.00184006 -0.000706042 0)
(0.00182775 -0.000694041 0)
(0.00181588 -0.000682539 0)
(0.00180443 -0.000671507 0)
(0.00179338 -0.000660917 0)
(0.0017827 -0.000650744 0)
(0.00177237 -0.000640963 0)
(0.00176238 -0.000631554 0)
(0.00175271 -0.000622495 0)
(0.00174334 -0.000613769 0)
(0.00173427 -0.000605358 0)
(0.00172547 -0.000597245 0)
(0.00171693 -0.000589415 0)
(0.00170865 -0.000581855 0)
(0.00170062 -0.000574551 0)
(0.00169281 -0.000567491 0)
(0.00168523 -0.000560661 0)
(0.00167787 -0.000554052 0)
(0.00167071 -0.000547653 0)
(0.00166376 -0.000541454 0)
(0.001657 -0.000535445 0)
(0.00165042 -0.000529617 0)
(0.00164403 -0.000523961 0)
(0.00163781 -0.00051847 0)
(0.00163176 -0.000513136 0)
(0.00162588 -0.000507951 0)
(0.00162015 -0.000502908 0)
(0.00161458 -0.000498 0)
(0.00160916 -0.00049322 0)
(0.00160388 -0.000488563 0)
(0.00159875 -0.000484022 0)
(0.00159376 -0.000479591 0)
(0.0015889 -0.000475264 0)
(0.00158417 -0.000471034 0)
(0.00157958 -0.000466895 0)
(0.0015751 -0.00046284 0)
(0.00157076 -0.000458858 0)
(0.00156653 -0.000454939 0)
(0.00156241 -0.000451059 0)
(0.00152435 -0.000472249 0)
(0.00149012 -0.000497798 0)
(0.00145567 -0.00052403 0)
(0.00142099 -0.000550992 0)
(0.00138608 -0.000578694 0)
(0.00135097 -0.000607135 0)
(0.00131566 -0.000636308 0)
(0.00128015 -0.0006662 0)
(0.00124448 -0.000696797 0)
(0.00120863 -0.000728078 0)
(0.00117263 -0.000760021 0)
(0.00113649 -0.000792597 0)
(0.0011002 -0.000825771 0)
(0.00106377 -0.000859498 0)
(0.00102722 -0.000893715 0)
(0.000990549 -0.000928332 0)
(0.000953779 -0.000963212 0)
(0.000916869 -0.000998233 0)
(0.000879508 -0.00103368 0)
(0.000840863 -0.00107032 0)
(0.000800376 -0.00110885 0)
(0.000757896 -0.00114955 0)
(0.000713587 -0.00119232 0)
(0.000667789 -0.00123677 0)
(0.000620911 -0.0012824 0)
(0.000573385 -0.00132864 0)
(0.000525645 -0.0013749 0)
(0.000478115 -0.00142055 0)
(0.000431191 -0.00146496 0)
(0.00038523 -0.00150751 0)
(0.000340538 -0.00154762 0)
(0.000297352 -0.00158476 0)
(0.000255817 -0.0016185 0)
(0.000215972 -0.00164848 0)
(0.000177732 -0.00167446 0)
(0.000140838 -0.00169628 0)
(0.000104982 -0.00171385 0)
(6.96264e-05 -0.0017269 0)
(3.46842e-05 -0.00173516 0)
(0 -0.00173589 0)
(0 -0.00173339 0)
(0 -0.00173048 0)
(0 -0.001727 0)
(0 -0.00172283 0)
(0 -0.00171782 0)
(0 -0.00171182 0)
(0 -0.0017047 0)
(0 -0.00169631 0)
(0 -0.00168654 0)
(0 -0.00167526 0)
(0 -0.00166238 0)
(0 -0.0016478 0)
(0 -0.00163145 0)
(0 -0.00161326 0)
(0 -0.00159319 0)
(0 -0.0015712 0)
(0 -0.00154726 0)
(0 -0.00152135 0)
(0 -0.00149347 0)
(0 -0.00146362 0)
(0 -0.0014318 0)
(0 -0.00139803 0)
(0 -0.00136232 0)
(0 -0.0013247 0)
(0 -0.0012852 0)
(0 -0.00124386 0)
(0 -0.00120071 0)
(0 -0.00115581 0)
(0 -0.00110921 0)
(0 -0.00106098 0)
(0 -0.00101119 0)
(0 -0.00095992 0)
(0 -0.000907254 0)
(0 -0.00085329 0)
(0 -0.000798132 0)
(0 -0.000741899 0)
(0 -0.000684724 0)
(0 -0.000626777 0)
(9.43203e-05 -0.000572813 0)
(0.000188052 -0.00058237 0)
(0.000280871 -0.000596894 0)
(0.000372321 -0.000616268 0)
(0.000461914 -0.000640252 0)
(0.000549186 -0.000668505 0)
(0.000633745 -0.000700588 0)
(0.000715279 -0.000735988 0)
(0.000793571 -0.000774119 0)
(0.000868477 -0.000814331 0)
(0.000939903 -0.000855893 0)
(0.00100776 -0.000897978 0)
(0.00107193 -0.000939633 0)
(0.00113222 -0.000979748 0)
(0.00118837 -0.00101704 0)
(0.00124002 -0.00105007 0)
(0.00128687 -0.00107733 0)
(0.00132865 -0.00109737 0)
(0.0013653 -0.0011089 0)
(0.00139694 -0.00111095 0)
(0.00142393 -0.0011031 0)
(0.00144714 -0.00108639 0)
(0.00146877 -0.00106515 0)
(0.00149104 -0.0010443 0)
(0.00151376 -0.00102364 0)
(0.0015368 -0.00100308 0)
(0.00156004 -0.000982558 0)
(0.0015834 -0.000962066 0)
(0.00160679 -0.000941591 0)
(0.00163015 -0.00092113 0)
(0.00165343 -0.000900685 0)
(0.00167659 -0.000880261 0)
(0.00169956 -0.000859864 0)
(0.00172233 -0.000839503 0)
(0.00174485 -0.000819186 0)
(0.0017671 -0.000798923 0)
(0.00178904 -0.000778722 0)
(0.00181066 -0.000758592 0)
(0.00183194 -0.000738541 0)
(0.00187337 -0.000698708 0)
(0.0018935 -0.000678938 0)
(0.00191322 -0.000659273 0)
(0.00193251 -0.000639718 0)
(0.00195137 -0.000620275 0)
(0.00196979 -0.000600948 0)
(0.00198775 -0.000581739 0)
(0.00200524 -0.000562649 0)
(0.00202227 -0.000543677 0)
(0.00203882 -0.000524825 0)
(0.00205488 -0.000506091 0)
(0.00207046 -0.000487473 0)
(0.00208553 -0.000468971 0)
(0.00210011 -0.000450582 0)
(0.00211417 -0.000432303 0)
(0.00212773 -0.000414132 0)
(0.00214076 -0.000396065 0)
(0.00215328 -0.0003781 0)
(0.00216527 -0.000360231 0)
(0.00217672 -0.000342457 0)
(0.00218765 -0.000324772 0)
(0.00219803 -0.000307172 0)
(0.00220788 -0.000289654 0)
(0.00221718 -0.000272214 0)
(0.00222593 -0.000254846 0)
(0.00223413 -0.000237547 0)
(0.00224179 -0.000220312 0)
(0.00224888 -0.000203136 0)
(0.00225542 -0.000186016 0)
(0.0022614 -0.000168947 0)
(0.00226682 -0.000151924 0)
(0.00227167 -0.000134943 0)
(0.00227596 -0.000118 0)
(0.00227969 -0.00010109 0)
(0.00228286 -8.42095e-05 0)
(0.00228547 -6.73545e-05 0)
(0.00228752 -5.05213e-05 0)
(0.00228903 -3.37056e-05 0)
(0.00229003 -1.68955e-05 0)
(0.00229495 0 0)
(0.00229892 0 0)
(0.00230262 0 0)
(0.00230608 0 0)
(0.0023093 0 0)
(0.00231229 0 0)
(0.00231508 0 0)
(0.00231767 0 0)
(0.00232009 0 0)
(0.00232233 0 0)
(0.00232443 0 0)
(0.00232638 0 0)
(0.0023282 0 0)
(0.0023299 0 0)
(0.00233149 0 0)
(0.00233298 0 0)
(0.00233437 0 0)
(0.00233568 0 0)
(0.00233691 0 0)
(0.00233808 0 0)
(0.00233918 0 0)
(0.00234022 0 0)
(0.00234121 0 0)
(0.00234215 0 0)
(0.00234305 0 0)
(0.00234392 0 0)
(0.00234475 0 0)
(0.00234555 0 0)
(0.00234633 0 0)
(0.00234708 0 0)
(0.00234782 0 0)
(0.00234854 0 0)
(0.00234925 0 0)
(0.00234995 0 0)
(0.00235064 0 0)
(0.00235133 0 0)
(0.00235201 0 0)
(0.00235269 0 0)
(0.00235337 0 0)
(0.00235358 -3.86027e-06 0)
(0.00235186 -7.73179e-06 0)
(0.00234894 -1.16605e-05 0)
(0.00234484 -1.56805e-05 0)
(0.00233958 -1.98238e-05 0)
(0.00233315 -2.41218e-05 0)
(0.00232557 -2.86057e-05 0)
(0.00231685 -3.33061e-05 0)
(0.002307 -3.82532e-05 0)
(0.00229603 -4.34768e-05 0)
(0.00228396 -4.90063e-05 0)
(0.00227081 -5.48706e-05 0)
(0.00225659 -6.10978e-05 0)
(0.00224132 -6.77159e-05 0)
(0.00222502 -7.47518e-05 0)
(0.00220772 -8.22321e-05 0)
(0.00218942 -9.01824e-05 0)
(0.00217016 -9.86279e-05 0)
(0.00214996 -0.000107593 0)
(0.00212885 -0.0001171 0)
(0.00210685 -0.000127173 0)
(0.00208398 -0.000137833 0)
(0.00206028 -0.0001491 0)
(0.00203577 -0.000160994 0)
(0.00201048 -0.000173535 0)
(0.00198445 -0.000186738 0)
(0.00195769 -0.000200621 0)
(0.00193024 -0.000215198 0)
(0.00190213 -0.000230484 0)
(0.00187339 -0.00024649 0)
(0.00184406 -0.000263227 0)
(0.00181415 -0.000280704 0)
(0.00178371 -0.000298928 0)
(0.00175276 -0.000317904 0)
(0.00172133 -0.000337633 0)
(0.00168946 -0.000358113 0)
(0.00165719 -0.000379335 0)
(0.00162454 -0.000401281 0)
(0.00159158 -0.000423917 0)
(0.00235595 0 0)
(0.00235787 0 0)
(0.00235985 0 0)
(0.00236191 0 0)
(0.00236408 0 0)
(0.00236638 0 0)
(0.00236881 0 0)
(0.00237139 0 0)
(0.00237413 0 0)
(0.00237704 0 0)
(0.00238011 0 0)
(0.00238337 0 0)
(0.0023868 0 0)
(0.00239041 0 0)
(0.00239422 0 0)
(0.00239821 0 0)
(0.00240239 0 0)
(0.00240676 0 0)
(0.00241133 0 0)
(0.00241609 0 0)
(0.00242104 0 0)
(0.00242618 0 0)
(0.00243152 0 0)
(0.00243705 0 0)
(0.00244277 0 0)
(0.00244867 0 0)
(0.00245477 0 0)
(0.00246105 0 0)
(0.00246752 0 0)
(0.00247418 0 0)
(0.00248101 0 0)
(0.00248803 0 0)
(0.00249522 0 0)
(0.00250259 0 0)
(0.00251013 0 0)
(0.00251785 0 0)
(0.00252573 0 0)
(0.00253378 0 0)
(0.00254199 0 0)
(0.00255037 0 0)
(0.0025589 0 0)
(0.00256759 0 0)
(0.00257642 0 0)
(0.00258541 0 0)
(0.00259455 0 0)
(0.00260382 0 0)
(0.00261324 0 0)
(0.00262279 0 0)
(0.00263248 0 0)
(0.00264229 0 0)
(0.00265223 0 0)
(0.00266229 0 0)
(0.00267246 0 0)
(0.00268275 0 0)
(0.00269315 0 0)
(0.00270365 0 0)
(0.00271425 0 0)
(0.00272495 0 0)
(0.00273573 0 0)
(0.0027466 0 0)
(0.00275755 0 0)
(0.00276858 0 0)
(0.00277967 0 0)
(0.00279083 0 0)
(0.00280204 0 0)
(0.00281331 0 0)
(0.00282461 0 0)
(0.00283596 0 0)
(0.00284733 0 0)
(0.00285872 0 0)
(0.00287013 0 0)
(0.00288154 0 0)
(0.00289295 0 0)
(0.00290434 0 0)
(0.00291571 0 0)
(0.00292705 0 0)
(0.00293834 0 0)
(0.00294958 0 0)
(0.00296076 0 0)
(0.00297172 1.49029e-07 0)