/*--------------------------------*- C++ -*----------------------------------*\
| =========                 |                                                 |
| \\      /  F ield         | OpenFOAM: The Open Source CFD Toolbox           |
|  \\    /   O peration     | Version:  v2012                                 |
|   \\  /    A nd           | Website:  www.openfoam.com                      |
|    \\/     M anipulation  |                                                 |
\*---------------------------------------------------------------------------*/
FoamFile
{
    version     2.0;
    format      ascii;
    class       volScalarField;
    location    "15";
    object      sigmaHyd;
}
// * * * * * * * * * * * * * * * * * * * * * * * * * * * * * * * * * * * * * //

dimensions      [1 -1 -2 0 0 0 0];


internalField   nonuniform List<scalar> 
32000
(
1.46864e+07
1.8027e+07
2.10345e+07
2.3667e+07
2.76363e+07
2.89251e+07
3.4232e+07
3.39875e+07
4.07026e+07
3.89279e+07
4.69972e+07
4.37768e+07
5.30956e+07
4.85446e+07
5.89939e+07
5.32355e+07
6.46953e+07
5.78489e+07
7.02049e+07
6.23827e+07
7.55328e+07
6.68316e+07
8.06801e+07
7.1194e+07
8.56506e+07
7.54686e+07
9.04487e+07
7.96499e+07
9.50809e+07
8.37346e+07
9.95416e+07
8.77248e+07
1.03827e+08
9.16078e+07
1.07946e+08
9.53738e+07
1.11878e+08
9.90202e+07
1.15608e+08
1.02527e+08
1.19144e+08
1.05875e+08
1.22447e+08
1.09057e+08
1.25494e+08
1.12035e+08
1.2828e+08
1.14785e+08
1.30748e+08
1.17296e+08
1.32887e+08
1.19506e+08
1.34657e+08
1.21409e+08
1.36007e+08
1.22963e+08
1.36961e+08
1.2414e+08
1.37443e+08
1.2495e+08
1.37484e+08
1.25351e+08
1.37065e+08
1.25389e+08
1.36201e+08
1.25056e+08
1.34945e+08
1.24411e+08
1.333e+08
1.23488e+08
1.31356e+08
1.2234e+08
1.29132e+08
1.21008e+08
1.26683e+08
1.19521e+08
1.2406e+08
1.17311e+08
1.19823e+08
1.14134e+08
1.42073e+07
1.81276e+07
2.06948e+07
2.42022e+07
2.71019e+07
2.98501e+07
3.34077e+07
3.5229e+07
3.96052e+07
4.04028e+07
4.56818e+07
4.54094e+07
5.1627e+07
5.02714e+07
5.74272e+07
5.50081e+07
6.30756e+07
5.96342e+07
6.85645e+07
6.41567e+07
7.38909e+07
6.85799e+07
7.90512e+07
7.29078e+07
8.40454e+07
7.71455e+07
8.88685e+07
8.12961e+07
9.352e+07
8.53514e+07
9.79921e+07
8.93098e+07
1.02283e+08
9.31706e+07
1.06383e+08
9.69119e+07
1.10283e+08
1.00523e+08
1.13974e+08
1.03994e+08
1.17436e+08
1.07289e+08
1.20655e+08
1.10385e+08
1.23608e+08
1.13267e+08
1.2627e+08
1.15872e+08
1.28624e+08
1.18185e+08
1.30627e+08
1.20165e+08
1.32276e+08
1.21763e+08
1.33539e+08
1.22986e+08
1.34396e+08
1.23776e+08
1.34857e+08
1.2417e+08
1.34896e+08
1.24148e+08
1.34544e+08
1.23769e+08
1.33803e+08
1.23058e+08
1.32714e+08
1.22082e+08
1.31305e+08
1.20898e+08
1.29623e+08
1.19566e+08
1.27718e+08
1.18153e+08
1.25669e+08
1.16751e+08
1.22765e+08
1.14964e+08
1.19087e+08
1.12557e+08
1.45482e+07
1.88672e+07
2.06675e+07
2.51223e+07
2.68097e+07
3.09975e+07
3.28838e+07
3.65797e+07
3.88687e+07
4.19209e+07
4.47555e+07
4.70542e+07
5.05383e+07
5.20095e+07
5.62104e+07
5.68066e+07
6.17586e+07
6.1463e+07
6.71735e+07
6.59935e+07
7.2446e+07
7.04133e+07
7.75716e+07
7.47291e+07
8.25414e+07
7.89479e+07
8.73424e+07
8.30734e+07
9.19664e+07
8.7107e+07
9.64085e+07
9.10352e+07
1.00653e+08
9.48498e+07
1.04689e+08
9.85439e+07
1.08505e+08
1.02086e+08
1.12088e+08
1.05449e+08
1.15416e+08
1.08617e+08
1.18474e+08
1.11537e+08
1.21243e+08
1.1417e+08
1.23694e+08
1.16493e+08
1.25828e+08
1.18433e+08
1.27609e+08
1.19985e+08
1.29028e+08
1.21096e+08
1.30087e+08
1.21771e+08
1.30765e+08
1.22011e+08
1.3109e+08
1.2184e+08
1.31049e+08
1.21309e+08
1.30686e+08
1.20464e+08
1.30001e+08
1.19382e+08
1.29043e+08
1.1812e+08
1.27828e+08
1.16754e+08
1.26389e+08
1.15336e+08
1.24734e+08
1.1392e+08
1.22821e+08
1.12505e+08
1.20401e+08
1.11042e+08
1.17095e+08
1.09185e+08
1.47372e+07
2.00348e+07
2.0725e+07
2.63235e+07
2.66893e+07
3.2314e+07
3.25898e+07
3.80272e+07
3.84076e+07
4.34889e+07
4.41379e+07
4.87283e+07
4.97741e+07
5.37679e+07
5.53083e+07
5.86293e+07
6.07329e+07
6.33305e+07
6.604e+07
6.78911e+07
7.12187e+07
7.23272e+07
7.62575e+07
7.66537e+07
8.11426e+07
8.0874e+07
8.58634e+07
8.49898e+07
9.04007e+07
8.89942e+07
9.47394e+07
9.28847e+07
9.88672e+07
9.66398e+07
1.02772e+08
1.00232e+08
1.06426e+08
1.03639e+08
1.09817e+08
1.06824e+08
1.12937e+08
1.09733e+08
1.15748e+08
1.12336e+08
1.18249e+08
1.14576e+08
1.20425e+08
1.164e+08
1.22249e+08
1.17796e+08
1.23745e+08
1.18705e+08
1.24878e+08
1.19168e+08
1.25686e+08
1.19165e+08
1.26156e+08
1.18776e+08
1.26322e+08
1.18028e+08
1.26198e+08
1.17023e+08
1.25812e+08
1.15807e+08
1.25188e+08
1.14472e+08
1.24347e+08
1.13068e+08
1.23307e+08
1.11651e+08
1.22075e+08
1.10242e+08
1.20646e+08
1.08865e+08
1.19074e+08
1.07508e+08
1.17468e+08
1.06321e+08
1.14765e+08
1.05025e+08
1.49036e+07
2.14083e+07
2.08622e+07
2.76993e+07
2.67181e+07
3.37508e+07
3.24856e+07
3.95505e+07
3.81686e+07
4.51087e+07
4.37621e+07
5.04394e+07
4.92608e+07
5.55601e+07
5.46563e+07
6.04899e+07
5.99441e+07
6.52506e+07
6.51158e+07
6.98626e+07
7.01616e+07
7.43389e+07
7.50657e+07
7.86903e+07
7.98107e+07
8.29178e+07
8.43762e+07
8.70221e+07
8.87476e+07
9.09929e+07
9.2911e+07
9.48084e+07
9.68411e+07
9.84409e+07
1.00514e+08
1.01868e+08
1.03926e+08
1.05035e+08
1.07048e+08
1.07891e+08
1.09856e+08
1.10403e+08
1.12359e+08
1.12497e+08
1.14526e+08
1.14132e+08
1.16354e+08
1.15284e+08
1.1786e+08
1.15924e+08
1.19023e+08
1.16094e+08
1.19893e+08
1.15807e+08
1.20448e+08
1.15156e+08
1.20753e+08
1.14198e+08
1.20798e+08
1.13024e+08
1.20635e+08
1.11718e+08
1.20268e+08
1.10336e+08
1.19729e+08
1.0894e+08
1.1902e+08
1.07561e+08
1.18159e+08
1.06218e+08
1.1715e+08
1.04915e+08
1.16026e+08
1.03657e+08
1.14792e+08
1.02468e+08
1.13314e+08
1.01235e+08
1.11887e+08
1.00172e+08
1.52282e+07
2.28384e+07
2.11495e+07
2.91464e+07
2.69179e+07
3.52442e+07
3.25741e+07
4.11166e+07
3.81311e+07
4.67599e+07
4.35882e+07
5.21795e+07
4.89404e+07
5.73886e+07
5.41857e+07
6.24042e+07
5.93182e+07
6.72446e+07
6.43267e+07
7.19247e+07
6.91965e+07
7.64517e+07
7.3907e+07
8.08297e+07
7.84408e+07
8.50599e+07
8.27852e+07
8.91274e+07
8.69165e+07
9.30107e+07
9.08119e+07
9.66782e+07
9.44493e+07
1.00102e+08
9.78202e+07
1.03223e+08
1.00896e+08
1.05986e+08
1.03658e+08
1.08347e+08
1.06112e+08
1.10234e+08
1.08234e+08
1.11608e+08
1.10031e+08
1.12452e+08
1.11515e+08
1.12764e+08
1.12684e+08
1.126e+08
1.13581e+08
1.12014e+08
1.14209e+08
1.11104e+08
1.1461e+08
1.09966e+08
1.14806e+08
1.08676e+08
1.1481e+08
1.0733e+08
1.14667e+08
1.05969e+08
1.1437e+08
1.04633e+08
1.13943e+08
1.03345e+08
1.13388e+08
1.0211e+08
1.12721e+08
1.00921e+08
1.11945e+08
9.9776e+07
1.11073e+08
9.86646e+07
1.10077e+08
9.75665e+07
1.09093e+08
9.65372e+07
1.07934e+08
9.5505e+07
1.58403e+07
2.42422e+07
2.16689e+07
3.05862e+07
2.73359e+07
3.67365e+07
3.28726e+07
4.26808e+07
3.82899e+07
4.84125e+07
4.35896e+07
5.39331e+07
4.87732e+07
5.925e+07
5.38394e+07
6.43734e+07
5.8779e+07
6.9311e+07
6.35747e+07
7.40666e+07
6.82087e+07
7.86424e+07
7.26662e+07
8.3032e+07
7.69275e+07
8.72204e+07
8.0972e+07
9.11824e+07
8.47774e+07
9.48827e+07
8.83248e+07
9.8285e+07
9.1601e+07
1.0133e+08
9.45824e+07
1.03958e+08
9.72538e+07
1.06112e+08
9.96172e+07
1.07732e+08
1.01663e+08
1.08778e+08
1.03395e+08
1.09262e+08
1.04839e+08
1.09205e+08
1.05998e+08
1.08698e+08
1.06916e+08
1.07827e+08
1.07604e+08
1.06704e+08
1.08095e+08
1.05444e+08
1.08424e+08
1.04114e+08
1.08592e+08
1.02792e+08
1.08635e+08
1.01514e+08
1.08556e+08
1.00294e+08
1.08359e+08
9.9136e+07
1.08059e+08
9.80395e+07
1.07662e+08
9.69867e+07
1.07176e+08
9.59627e+07
1.06599e+08
9.49732e+07
1.05946e+08
9.39952e+07
1.05266e+08
9.30476e+07
1.04477e+08
9.2114e+07
1.03649e+08
9.12107e+07
1.68073e+07
2.55933e+07
2.2485e+07
3.19813e+07
2.80105e+07
3.81907e+07
3.33912e+07
4.42132e+07
3.86311e+07
5.00455e+07
4.37371e+07
5.56838e+07
4.87129e+07
6.11264e+07
5.35524e+07
6.637e+07
5.82403e+07
7.14087e+07
6.27606e+07
7.62329e+07
6.70969e+07
8.08286e+07
7.12312e+07
8.51719e+07
7.51431e+07
8.9232e+07
7.88132e+07
9.29702e+07
8.22241e+07
9.63378e+07
8.53597e+07
9.92791e+07
8.82051e+07
1.0173e+08
9.07483e+07
1.03622e+08
9.29848e+07
1.04914e+08
9.49255e+07
1.05581e+08
9.65722e+07
1.05665e+08
9.79625e+07
1.05227e+08
9.91021e+07
1.04399e+08
1.0004e+08
1.03289e+08
1.00785e+08
1.02028e+08
1.01369e+08
1.00725e+08
1.0182e+08
9.9435e+07
1.02141e+08
9.8205e+07
1.02345e+08
9.70598e+07
1.02452e+08
9.59933e+07
1.02458e+08
9.49915e+07
1.02367e+08
9.40396e+07
1.02192e+08
9.31274e+07
1.01937e+08
9.22351e+07
1.01605e+08
9.1363e+07
1.01219e+08
9.04988e+07
1.00776e+08
8.96569e+07
1.00262e+08
8.88207e+07
9.97193e+07
8.79964e+07
9.91106e+07
8.7192e+07
1.81447e+07
2.69128e+07
2.36239e+07
3.3337e+07
2.89543e+07
3.96004e+07
3.41268e+07
4.57033e+07
3.91412e+07
5.16412e+07
4.40041e+07
5.7403e+07
4.87137e+07
6.29721e+07
5.32583e+07
6.8328e+07
5.76235e+07
7.34445e+07
6.17953e+07
7.82915e+07
6.57577e+07
8.28312e+07
6.94945e+07
8.70211e+07
7.29885e+07
9.08122e+07
7.62224e+07
9.4147e+07
7.91788e+07
9.69668e+07
8.18515e+07
9.92029e+07
8.42306e+07
1.00794e+08
8.63155e+07
1.01705e+08
8.8125e+07
1.01958e+08
8.96777e+07
1.01624e+08
9.10004e+07
1.00831e+08
9.21226e+07
9.97309e+07
9.30786e+07
9.84622e+07
9.38795e+07
9.71576e+07
9.45554e+07
9.58977e+07
9.51197e+07
9.47187e+07
9.55744e+07
9.36386e+07
9.59254e+07
9.26604e+07
9.6189e+07
9.17622e+07
9.6362e+07
9.0922e+07
9.6448e+07
9.01183e+07
9.6453e+07
8.9335e+07
9.63897e+07
8.85669e+07
9.6262e+07
8.78074e+07
9.60762e+07
8.70551e+07
9.5842e+07
8.6305e+07
9.55472e+07
8.55657e+07
9.52121e+07
8.48322e+07
9.48299e+07
8.41108e+07
9.44214e+07
8.33949e+07
1.98213e+07
2.82644e+07
2.50563e+07
3.47004e+07
3.01354e+07
4.10041e+07
3.50424e+07
4.71734e+07
3.9775e+07
5.31994e+07
4.43326e+07
5.90578e+07
4.87063e+07
6.47145e+07
5.28826e+07
7.01269e+07
5.68505e+07
7.52439e+07
6.05987e+07
8.00067e+07
6.41158e+07
8.43551e+07
6.73887e+07
8.82229e+07
7.04037e+07
9.15421e+07
7.31479e+07
9.42409e+07
7.56091e+07
9.62476e+07
7.77893e+07
9.75088e+07
7.9699e+07
9.80208e+07
8.13571e+07
9.78462e+07
8.28016e+07
9.71238e+07
8.40541e+07
9.60331e+07
8.51619e+07
9.47496e+07
8.61341e+07
9.3431e+07
8.69927e+07
9.21814e+07
8.7755e+07
9.1045e+07
8.84185e+07
9.00338e+07
8.89876e+07
8.91384e+07
8.94649e+07
8.83422e+07
8.98577e+07
8.76141e+07
9.01691e+07
8.69273e+07
9.04016e+07
8.62597e+07
9.05591e+07
8.55978e+07
9.06495e+07
8.49383e+07
9.06875e+07
8.42841e+07
9.0671e+07
8.36286e+07
9.06034e+07
8.2974e+07
9.04822e+07
8.2321e+07
9.03293e+07
8.16645e+07
9.01281e+07
8.10256e+07
8.98967e+07
8.03878e+07
8.96264e+07
7.97672e+07
2.17515e+07
2.97448e+07
2.67049e+07
3.61642e+07
3.14804e+07
4.24724e+07
3.60693e+07
4.86632e+07
4.04635e+07
5.47144e+07
4.46531e+07
6.05871e+07
4.86238e+07
6.62269e+07
5.23643e+07
7.15671e+07
5.58676e+07
7.65291e+07
5.91282e+07
8.10301e+07
6.21375e+07
8.49808e+07
6.48864e+07
8.82961e+07
6.7368e+07
9.08876e+07
6.95779e+07
9.26742e+07
7.15207e+07
9.36101e+07
7.3217e+07
9.37319e+07
7.47065e+07
9.31747e+07
7.60243e+07
9.21409e+07
7.72146e+07
9.08583e+07
7.82997e+07
8.95266e+07
7.92934e+07
8.82794e+07
8.021e+07
8.71783e+07
8.10449e+07
8.62337e+07
8.17924e+07
8.54284e+07
8.24558e+07
8.47319e+07
8.30356e+07
8.41177e+07
8.35369e+07
8.35486e+07
8.39611e+07
8.29991e+07
8.43124e+07
8.24524e+07
8.45956e+07
8.18982e+07
8.48178e+07
8.13375e+07
8.49854e+07
8.07772e+07
8.51075e+07
8.02102e+07
8.51789e+07
7.96399e+07
8.52042e+07
7.90654e+07
8.51895e+07
7.84885e+07
8.51371e+07
7.79162e+07
8.50558e+07
7.73495e+07
8.49376e+07
7.67982e+07
8.47943e+07
7.62522e+07
2.3809e+07
3.14637e+07
2.8447e+07
3.78323e+07
3.28825e+07
4.40863e+07
3.71095e+07
5.02109e+07
4.11167e+07
5.61662e+07
4.48844e+07
6.18976e+07
4.83978e+07
6.7332e+07
5.16514e+07
7.2383e+07
5.46413e+07
7.69488e+07
5.73627e+07
8.0923e+07
5.98124e+07
8.42009e+07
6.19867e+07
8.66714e+07
6.38878e+07
8.82373e+07
6.55362e+07
8.88697e+07
6.6979e+07
8.86577e+07
6.82626e+07
8.78107e+07
6.94431e+07
8.66104e+07
7.05534e+07
8.53131e+07
7.16172e+07
8.40957e+07
7.26357e+07
8.30508e+07
7.35954e+07
8.21967e+07
7.44843e+07
8.1502e+07
7.5298e+07
8.09267e+07
7.60373e+07
8.04312e+07
7.67023e+07
7.99868e+07
7.72925e+07
7.95594e+07
7.78083e+07
7.91303e+07
7.82559e+07
7.86893e+07
7.86407e+07
7.82297e+07
7.89702e+07
7.77586e+07
7.92483e+07
7.72831e+07
7.94776e+07
7.67956e+07
7.96642e+07
7.62994e+07
7.98043e+07
7.57961e+07
7.99092e+07
7.5288e+07
7.99768e+07
7.4783e+07
8.00102e+07
7.42791e+07
8.00185e+07
7.37829e+07
7.99973e+07
7.32976e+07
7.99511e+07
7.28209e+07
2.58407e+07
3.35136e+07
3.01406e+07
3.97824e+07
3.42131e+07
4.58946e+07
3.805e+07
5.18174e+07
4.16356e+07
5.7492e+07
4.49474e+07
6.28524e+07
4.79778e+07
6.78082e+07
5.07136e+07
7.22591e+07
5.31508e+07
7.60959e+07
5.52864e+07
7.92065e+07
5.71203e+07
8.14601e+07
5.8668e+07
8.27469e+07
5.99751e+07
8.30565e+07
6.11073e+07
8.2563e+07
6.21488e+07
8.15622e+07
6.31632e+07
8.03928e+07
6.41851e+07
7.92972e+07
6.52138e+07
7.83978e+07
6.6228e+07
7.77193e+07
6.72062e+07
7.7216e+07
6.81307e+07
7.68246e+07
6.89939e+07
7.64995e+07
6.97931e+07
7.62081e+07
7.05238e+07
7.59306e+07
7.11808e+07
7.56372e+07
7.17694e+07
7.53183e+07
7.22947e+07
7.49721e+07
7.27606e+07
7.45967e+07
7.31763e+07
7.42069e+07
7.35446e+07
7.38083e+07
7.3863e+07
7.33892e+07
7.41402e+07
7.29608e+07
7.43731e+07
7.2518e+07
7.45723e+07
7.20711e+07
7.47377e+07
7.16254e+07
7.48688e+07
7.11777e+07
7.49719e+07
7.07364e+07
7.50471e+07
7.02979e+07
7.51024e+07
6.98696e+07
7.5135e+07
6.94501e+07
2.76926e+07
3.59261e+07
3.16459e+07
4.20229e+07
3.53447e+07
4.78715e+07
3.87795e+07
5.34118e+07
4.19309e+07
5.85715e+07
4.47793e+07
6.3267e+07
4.73056e+07
6.74053e+07
4.95001e+07
7.08844e+07
5.13472e+07
7.36031e+07
5.28424e+07
7.54239e+07
5.40155e+07
7.62367e+07
5.49389e+07
7.609e+07
5.57276e+07
7.52942e+07
5.65048e+07
7.42345e+07
5.73376e+07
7.32917e+07
5.82446e+07
7.26196e+07
5.92055e+07
7.2239e+07
6.01844e+07
7.20843e+07
6.11432e+07
7.20457e+07
6.20632e+07
7.20398e+07
6.29414e+07
7.20246e+07
6.37697e+07
7.19802e+07
6.45418e+07
7.18993e+07
6.52461e+07
7.17549e+07
6.58892e+07
7.15548e+07
6.64753e+07
7.13068e+07
6.70073e+07
7.10122e+07
6.74964e+07
7.06965e+07
6.79395e+07
7.0367e+07
6.83294e+07
7.0006e+07
6.86795e+07
6.96361e+07
6.89844e+07
6.9245e+07
6.92589e+07
6.88512e+07
6.95006e+07
6.84571e+07
6.97078e+07
6.80574e+07
6.98897e+07
6.76644e+07
7.00399e+07
6.7269e+07
7.01697e+07
6.68829e+07
7.02839e+07
6.65017e+07
7.03799e+07
6.61324e+07
2.92416e+07
3.8631e+07
3.28524e+07
4.44479e+07
3.61817e+07
4.98725e+07
3.92153e+07
5.48208e+07
4.19311e+07
5.9204e+07
4.43019e+07
6.29271e+07
4.62979e+07
6.58906e+07
4.78968e+07
6.80148e+07
4.90805e+07
6.91286e+07
4.98876e+07
6.91572e+07
5.04348e+07
6.82816e+07
5.09076e+07
6.7029e+07
5.14449e+07
6.58709e+07
5.21185e+07
6.52306e+07
5.29029e+07
6.50852e+07
5.37609e+07
6.53254e+07
5.46453e+07
6.5793e+07
5.55194e+07
6.632e+07
5.63781e+07
6.68051e+07
5.7222e+07
6.72088e+07
5.804e+07
6.75128e+07
5.88193e+07
6.77152e+07
5.95406e+07
6.77859e+07
6.02159e+07
6.77573e+07
6.08447e+07
6.76443e+07
6.14261e+07
6.74537e+07
6.19732e+07
6.7229e+07
6.24736e+07
6.69764e+07
6.29182e+07
6.66715e+07
6.33291e+07
6.6356e+07
6.36905e+07
6.60078e+07
6.40265e+07
6.56583e+07
6.43288e+07
6.53062e+07
6.45945e+07
6.49442e+07
6.48383e+07
6.4591e+07
6.50479e+07
6.42308e+07
6.52384e+07
6.38775e+07
6.54131e+07
6.35297e+07
6.55726e+07
6.31917e+07
6.57194e+07
6.28676e+07
3.04223e+07
4.14326e+07
3.37019e+07
4.68168e+07
3.66672e+07
5.16299e+07
3.92934e+07
5.57673e+07
4.15425e+07
5.91207e+07
4.3375e+07
6.15815e+07
4.47469e+07
6.30496e+07
4.56271e+07
6.33187e+07
4.60897e+07
6.22883e+07
4.63187e+07
6.03843e+07
4.65751e+07
5.84721e+07
4.6982e+07
5.70945e+07
4.76014e+07
5.66218e+07
4.82919e+07
5.68383e+07
4.90319e+07
5.75666e+07
4.97808e+07
5.85482e+07
5.05111e+07
5.9579e+07
5.12392e+07
6.05805e+07
5.19778e+07
6.15092e+07
5.27166e+07
6.23109e+07
5.34414e+07
6.29605e+07
5.41254e+07
6.33923e+07
5.47927e+07
6.36682e+07
5.54303e+07
6.38058e+07
5.60344e+07
6.3808e+07
5.66222e+07
6.37447e+07
5.71653e+07
6.36153e+07
5.76496e+07
6.33928e+07
5.81122e+07
6.31505e+07
5.85186e+07
6.28495e+07
5.8909e+07
6.25436e+07
5.92631e+07
6.22266e+07
5.95778e+07
6.18895e+07
5.98758e+07
6.15617e+07
6.01336e+07
6.122e+07
6.03757e+07
6.08867e+07
6.05965e+07
6.05589e+07
6.08041e+07
6.02412e+07
6.09996e+07
5.99387e+07
6.11748e+07
5.96434e+07
3.12312e+07
4.40244e+07
3.41783e+07
4.87859e+07
3.67542e+07
5.27852e+07
3.89077e+07
5.58873e+07
4.05758e+07
5.79538e+07
4.16991e+07
5.89001e+07
4.22411e+07
5.82903e+07
4.23314e+07
5.62207e+07
4.23164e+07
5.32272e+07
4.25299e+07
5.0666e+07
4.29958e+07
4.89902e+07
4.37131e+07
4.86588e+07
4.44332e+07
4.901e+07
4.51419e+07
4.97623e+07
4.57601e+07
5.07255e+07
4.63157e+07
5.18293e+07
4.68771e+07
5.3055e+07
4.74534e+07
5.43585e+07
4.80277e+07
5.56727e+07
4.86015e+07
5.68966e+07
4.91469e+07
5.78871e+07
4.97282e+07
5.86885e+07
5.03094e+07
5.92735e+07
5.08784e+07
5.9669e+07
5.14678e+07
5.99413e+07
5.20211e+07
6.00786e+07
5.25216e+07
6.00342e+07
5.30265e+07
5.99441e+07
5.34647e+07
5.97414e+07
5.39061e+07
5.95151e+07
5.4307e+07
5.92503e+07
5.46652e+07
5.89441e+07
5.50139e+07
5.86413e+07
5.53114e+07
5.831e+07
5.55989e+07
5.79857e+07
5.58613e+07
5.76617e+07
5.61107e+07
5.7347e+07
5.63477e+07
5.70483e+07
5.65597e+07
5.67549e+07
5.67573e+07
5.64717e+07
3.1693e+07
4.60499e+07
3.42511e+07
4.99739e+07
3.63246e+07
5.29044e+07
3.78223e+07
5.46803e+07
3.86759e+07
5.51454e+07
3.88147e+07
5.37908e+07
3.8605e+07
5.03995e+07
3.854e+07
4.66769e+07
3.93323e+07
4.48372e+07
4.07869e+07
4.49411e+07
4.18498e+07
4.5471e+07
4.28224e+07
4.61233e+07
4.35598e+07
4.6726e+07
4.42375e+07
4.7314e+07
4.49294e+07
4.7915e+07
4.55262e+07
4.84943e+07
4.59659e+07
4.90413e+07
4.62818e+07
4.95926e+07
4.65087e+07
5.02039e+07
4.67447e+07
5.1043e+07
4.68758e+07
5.19897e+07
4.69252e+07
5.29632e+07
4.70778e+07
5.39753e+07
4.73624e+07
5.49112e+07
4.76796e+07
5.56135e+07
4.79975e+07
5.60503e+07
4.84189e+07
5.63206e+07
4.87801e+07
5.63894e+07
4.92021e+07
5.63851e+07
4.95935e+07
5.62811e+07
4.99537e+07
5.60777e+07
5.03282e+07
5.58529e+07
5.06411e+07
5.55613e+07
5.09608e+07
5.52615e+07
5.1253e+07
5.49436e+07
5.15366e+07
5.46243e+07
5.18097e+07
5.43158e+07
5.20516e+07
5.40065e+07
5.22786e+07
5.37051e+07
5.25042e+07
5.34217e+07
3.17771e+07
4.71705e+07
3.37872e+07
4.9939e+07
3.51452e+07
5.13852e+07
3.57696e+07
5.14408e+07
3.56879e+07
4.86617e+07
3.55863e+07
4.42705e+07
3.70611e+07
4.23387e+07
3.90867e+07
4.26625e+07
4.01171e+07
4.32313e+07
4.07163e+07
4.37365e+07
4.12428e+07
4.428e+07
4.17961e+07
4.4819e+07
4.23825e+07
4.53359e+07
4.29629e+07
4.58364e+07
4.35214e+07
4.63118e+07
4.40602e+07
4.67488e+07
4.45784e+07
4.71482e+07
4.50784e+07
4.75222e+07
4.55753e+07
4.78884e+07
4.60414e+07
4.82335e+07
4.64997e+07
4.86143e+07
4.67988e+07
4.89956e+07
4.6805e+07
4.93369e+07
4.66987e+07
4.98011e+07
4.66204e+07
5.0518e+07
4.63719e+07
5.1132e+07
4.61494e+07
5.1785e+07
4.61558e+07
5.2346e+07
4.6214e+07
5.26916e+07
4.6311e+07
5.28634e+07
4.65261e+07
5.28898e+07
4.66979e+07
5.27716e+07
4.69309e+07
5.26081e+07
4.71534e+07
5.2383e+07
4.73955e+07
5.21168e+07
4.76469e+07
5.18339e+07
4.78699e+07
5.15277e+07
4.80875e+07
5.1213e+07
4.83133e+07
5.09048e+07
4.85474e+07
5.06107e+07
3.13441e+07
4.69567e+07
3.26615e+07
4.80035e+07
3.33077e+07
4.728e+07
3.3423e+07
4.32809e+07
3.52193e+07
4.04679e+07
3.79066e+07
4.08123e+07
3.86186e+07
4.12088e+07
3.89709e+07
4.16731e+07
3.93688e+07
4.21441e+07
3.98299e+07
4.26026e+07
4.02784e+07
4.30638e+07
4.07408e+07
4.35197e+07
4.12194e+07
4.39618e+07
4.16996e+07
4.43856e+07
4.21766e+07
4.47868e+07
4.26511e+07
4.5162e+07
4.31195e+07
4.5512e+07
4.35763e+07
4.58407e+07
4.40151e+07
4.61484e+07
4.44418e+07
4.64349e+07
4.4827e+07
4.66907e+07
4.51774e+07
4.69002e+07
4.55173e+07
4.70783e+07
4.58205e+07
4.72517e+07
4.60638e+07
4.74183e+07
4.6321e+07
4.76797e+07
4.625e+07
4.78466e+07
4.60293e+07
4.81258e+07
4.57879e+07
4.855e+07
4.54088e+07
4.88421e+07
4.50265e+07
4.9166e+07
4.48423e+07
4.9394e+07
4.47082e+07
4.94872e+07
4.46644e+07
4.94953e+07
4.46984e+07
4.94037e+07
4.47408e+07
4.92118e+07
4.4812e+07
4.89775e+07
4.49222e+07
4.87236e+07
4.50633e+07
4.84542e+07
4.52486e+07
4.81905e+07
3.04858e+07
4.45748e+07
3.16685e+07
4.31984e+07
3.32199e+07
3.91587e+07
3.65987e+07
3.90089e+07
3.74675e+07
3.94009e+07
3.76635e+07
3.98166e+07
3.79562e+07
4.02139e+07
3.82405e+07
4.06191e+07
3.85574e+07
4.10258e+07
3.89114e+07
4.14263e+07
3.92807e+07
4.18225e+07
3.96649e+07
4.2212e+07
4.00627e+07
4.25903e+07
4.04685e+07
4.29543e+07
4.08783e+07
4.33016e+07
4.12891e+07
4.36306e+07
4.16961e+07
4.39407e+07
4.20938e+07
4.42316e+07
4.24785e+07
4.45022e+07
4.28468e+07
4.47487e+07
4.31977e+07
4.49679e+07
4.35372e+07
4.51593e+07
4.38601e+07
4.53259e+07
4.41546e+07
4.54716e+07
4.44253e+07
4.5601e+07
4.4626e+07
4.56948e+07
4.48391e+07
4.57495e+07
4.49923e+07
4.57877e+07
4.50791e+07
4.58157e+07
4.51936e+07
4.59302e+07
4.50894e+07
4.59809e+07
4.48684e+07
4.6134e+07
4.45652e+07
4.62772e+07
4.41759e+07
4.63365e+07
4.37759e+07
4.64022e+07
4.34649e+07
4.64509e+07
4.32532e+07
4.64335e+07
4.31085e+07
4.63822e+07
4.30572e+07
4.63006e+07
4.30513e+07
4.61808e+07
3.0624e+07
3.89883e+07
3.42419e+07
3.70865e+07
3.64214e+07
3.7671e+07
3.67166e+07
3.80833e+07
3.68517e+07
3.84654e+07
3.69966e+07
3.88338e+07
3.71903e+07
3.91869e+07
3.74098e+07
3.95355e+07
3.76594e+07
3.98818e+07
3.79396e+07
4.02241e+07
3.82422e+07
4.05623e+07
3.85629e+07
4.08951e+07
3.88986e+07
4.12201e+07
3.92453e+07
4.15352e+07
3.95989e+07
4.18387e+07
3.99555e+07
4.21288e+07
4.03109e+07
4.24044e+07
4.06611e+07
4.26641e+07
4.10028e+07
4.29064e+07
4.13345e+07
4.31297e+07
4.1655e+07
4.33331e+07
4.19627e+07
4.3516e+07
4.2254e+07
4.36783e+07
4.2524e+07
4.382e+07
4.27682e+07
4.39381e+07
4.29922e+07
4.40326e+07
4.32025e+07
4.41015e+07
4.33854e+07
4.41501e+07
4.35433e+07
4.41875e+07
4.36371e+07
4.42026e+07
4.37353e+07
4.4188e+07
4.37683e+07
4.41475e+07
4.37479e+07
4.40946e+07
4.3723e+07
4.40809e+07
4.36459e+07
4.40856e+07
4.34744e+07
4.41108e+07
4.32428e+07
4.41541e+07
4.29568e+07
4.41506e+07
4.26642e+07
4.41744e+07
4.23862e+07
4.42223e+07
3.51799e+07
3.57408e+07
3.60543e+07
3.64428e+07
3.60049e+07
3.69183e+07
3.6051e+07
3.72684e+07
3.61089e+07
3.75736e+07
3.61961e+07
3.78631e+07
3.63246e+07
3.81459e+07
3.64878e+07
3.84282e+07
3.66833e+07
3.87119e+07
3.69086e+07
3.89966e+07
3.71587e+07
3.92811e+07
3.74292e+07
3.95641e+07
3.77164e+07
3.98435e+07
3.80164e+07
4.01176e+07
3.83253e+07
4.03844e+07
3.86395e+07
4.06423e+07
3.89554e+07
4.08897e+07
3.92697e+07
4.11253e+07
3.95797e+07
4.13478e+07
3.98834e+07
4.15562e+07
4.01784e+07
4.17495e+07
4.04627e+07
4.19268e+07
4.07339e+07
4.20875e+07
4.09895e+07
4.22308e+07
4.1229e+07
4.23564e+07
4.14518e+07
4.24643e+07
4.16583e+07
4.25542e+07
4.18443e+07
4.26273e+07
4.2004e+07
4.26825e+07
4.21406e+07
4.27204e+07
4.22615e+07
4.27377e+07
4.23624e+07
4.27384e+07
4.24427e+07
4.27314e+07
4.24869e+07
4.27195e+07
4.25105e+07
4.26967e+07
4.25156e+07
4.26592e+07
4.24804e+07
4.26114e+07
4.24258e+07
4.257e+07
4.23658e+07
4.25553e+07
4.23396e+07
4.26079e+07
3.63224e+07
3.5731e+07
3.57693e+07
3.6029e+07
3.54815e+07
3.62623e+07
3.53506e+07
3.64622e+07
3.53043e+07
3.66545e+07
3.53189e+07
3.68516e+07
3.53856e+07
3.70573e+07
3.54959e+07
3.72727e+07
3.56436e+07
3.74973e+07
3.58238e+07
3.77292e+07
3.60313e+07
3.79666e+07
3.62617e+07
3.82071e+07
3.65107e+07
3.84487e+07
3.67745e+07
3.86892e+07
3.70493e+07
3.89266e+07
3.73316e+07
3.91591e+07
3.76184e+07
3.93852e+07
3.79066e+07
3.96034e+07
3.81936e+07
3.98124e+07
3.84772e+07
4.00112e+07
3.87551e+07
4.01989e+07
3.90256e+07
4.03746e+07
3.92867e+07
4.05376e+07
3.95371e+07
4.06875e+07
3.97755e+07
4.08241e+07
4.00008e+07
4.09472e+07
4.02122e+07
4.10567e+07
4.04081e+07
4.11524e+07
4.0588e+07
4.12347e+07
4.07519e+07
4.13042e+07
4.09023e+07
4.13612e+07
4.10377e+07
4.14075e+07
4.11546e+07
4.14447e+07
4.1252e+07
4.14741e+07
4.13354e+07
4.14951e+07
4.14083e+07
4.15075e+07
4.14705e+07
4.15154e+07
4.15201e+07
4.15239e+07
4.15538e+07
4.15341e+07
4.15534e+07
4.15272e+07
3.62109e+07
3.53097e+07
3.54013e+07
3.53417e+07
3.49079e+07
3.5408e+07
3.46153e+07
3.54942e+07
3.44535e+07
3.56e+07
3.43841e+07
3.57259e+07
3.43854e+07
3.5871e+07
3.44427e+07
3.60337e+07
3.45457e+07
3.62116e+07
3.46865e+07
3.6402e+07
3.48588e+07
3.66025e+07
3.50569e+07
3.68102e+07
3.52763e+07
3.70228e+07
3.55128e+07
3.72381e+07
3.57625e+07
3.74539e+07
3.60221e+07
3.76683e+07
3.62885e+07
3.78797e+07
3.65589e+07
3.80866e+07
3.68308e+07
3.82878e+07
3.7102e+07
3.84822e+07
3.73706e+07
3.86688e+07
3.76347e+07
3.88469e+07
3.78929e+07
3.90158e+07
3.81438e+07
3.91753e+07
3.83863e+07
3.93249e+07
3.86194e+07
3.94645e+07
3.88425e+07
3.95941e+07
3.90549e+07
3.97137e+07
3.92562e+07
3.98239e+07
3.94464e+07
3.99251e+07
3.96258e+07
4.00181e+07
3.97938e+07
4.01035e+07
3.99503e+07
4.01825e+07
4.00954e+07
4.02561e+07
4.02312e+07
4.03254e+07
4.03596e+07
4.03913e+07
4.04801e+07
4.04555e+07
4.05918e+07
4.05188e+07
4.06949e+07
4.05799e+07
4.08002e+07
4.06392e+07
3.53504e+07
3.45104e+07
3.45782e+07
3.43872e+07
3.40393e+07
3.43423e+07
3.36796e+07
3.43482e+07
3.34539e+07
3.43923e+07
3.33297e+07
3.4468e+07
3.32849e+07
3.45706e+07
3.33032e+07
3.46964e+07
3.33727e+07
3.48417e+07
3.34844e+07
3.50033e+07
3.36309e+07
3.51781e+07
3.3806e+07
3.53634e+07
3.40047e+07
3.55566e+07
3.42225e+07
3.57552e+07
3.44556e+07
3.59572e+07
3.47007e+07
3.61607e+07
3.49546e+07
3.63639e+07
3.52147e+07
3.65655e+07
3.54787e+07
3.67642e+07
3.57443e+07
3.6959e+07
3.60099e+07
3.71488e+07
3.62737e+07
3.7333e+07
3.65344e+07
3.7511e+07
3.67908e+07
3.76824e+07
3.70419e+07
3.78469e+07
3.72869e+07
3.80044e+07
3.75253e+07
3.8155e+07
3.77565e+07
3.82987e+07
3.79804e+07
3.84359e+07
3.81968e+07
3.85672e+07
3.84057e+07
3.86931e+07
3.86074e+07
3.88142e+07
3.88021e+07
3.89314e+07
3.89904e+07
3.90458e+07
3.91733e+07
3.91585e+07
3.93518e+07
3.92703e+07
3.9527e+07
3.93824e+07
3.97003e+07
3.9496e+07
3.98751e+07
3.96132e+07
4.00551e+07
3.97371e+07
3.39934e+07
3.33762e+07
3.33392e+07
3.31791e+07
3.28451e+07
3.30717e+07
3.24922e+07
3.30285e+07
3.22562e+07
3.3034e+07
3.21155e+07
3.30784e+07
3.20524e+07
3.31549e+07
3.2053e+07
3.32582e+07
3.2106e+07
3.33841e+07
3.22025e+07
3.35287e+07
3.23351e+07
3.36889e+07
3.24979e+07
3.38616e+07
3.26857e+07
3.40443e+07
3.28939e+07
3.42346e+07
3.31189e+07
3.44304e+07
3.33573e+07
3.46297e+07
3.36061e+07
3.48311e+07
3.38629e+07
3.5033e+07
3.41253e+07
3.52343e+07
3.43914e+07
3.54338e+07
3.46594e+07
3.56308e+07
3.49279e+07
3.58245e+07
3.51955e+07
3.60144e+07
3.54614e+07
3.62001e+07
3.57244e+07
3.63813e+07
3.5984e+07
3.65579e+07
3.62397e+07
3.673e+07
3.6491e+07
3.68977e+07
3.67378e+07
3.70613e+07
3.698e+07
3.72212e+07
3.72178e+07
3.7378e+07
3.74513e+07
3.75322e+07
3.7681e+07
3.76847e+07
3.79074e+07
3.78364e+07
3.81314e+07
3.79881e+07
3.83539e+07
3.8141e+07
3.85763e+07
3.82964e+07
3.87999e+07
3.84558e+07
3.90263e+07
3.86213e+07
3.92568e+07
3.8795e+07
3.22907e+07
3.19585e+07
3.17709e+07
3.17407e+07
3.13625e+07
3.16096e+07
3.10607e+07
3.15451e+07
3.08541e+07
3.15331e+07
3.07295e+07
3.15634e+07
3.06749e+07
3.16284e+07
3.06793e+07
3.17223e+07
3.07336e+07
3.18405e+07
3.083e+07
3.19789e+07
3.09619e+07
3.21342e+07
3.11237e+07
3.23034e+07
3.13106e+07
3.24839e+07
3.15184e+07
3.26734e+07
3.17436e+07
3.28698e+07
3.19829e+07
3.30714e+07
3.22337e+07
3.32766e+07
3.24934e+07
3.3484e+07
3.27601e+07
3.36924e+07
3.30319e+07
3.39009e+07
3.33071e+07
3.41087e+07
3.35845e+07
3.4315e+07
3.38628e+07
3.45193e+07
3.41411e+07
3.47213e+07
3.44186e+07
3.49208e+07
3.46947e+07
3.51176e+07
3.49688e+07
3.53117e+07
3.52407e+07
3.55033e+07
3.55102e+07
3.56927e+07
3.57773e+07
3.58802e+07
3.6042e+07
3.60663e+07
3.63046e+07
3.62515e+07
3.65655e+07
3.64366e+07
3.68251e+07
3.66224e+07
3.70841e+07
3.68098e+07
3.73433e+07
3.69997e+07
3.76035e+07
3.71934e+07
3.78655e+07
3.73923e+07
3.81303e+07
3.75977e+07
3.83984e+07
3.78111e+07
3.03318e+07
3.03052e+07
2.99461e+07
3.01005e+07
2.96402e+07
2.99742e+07
2.94139e+07
2.99114e+07
2.92622e+07
2.99003e+07
2.91779e+07
2.99317e+07
2.91531e+07
2.99983e+07
2.91801e+07
3.00944e+07
2.9252e+07
3.02153e+07
2.93625e+07
3.03569e+07
2.9506e+07
3.0516e+07
2.96778e+07
3.06897e+07
2.98736e+07
3.08754e+07
3.00898e+07
3.10708e+07
3.0323e+07
3.12742e+07
3.05704e+07
3.14836e+07
3.08296e+07
3.16978e+07
3.10982e+07
3.19153e+07
3.13745e+07
3.21351e+07
3.16567e+07
3.23562e+07
3.19433e+07
3.25779e+07
3.22332e+07
3.27996e+07
3.25252e+07
3.30207e+07
3.28185e+07
3.32409e+07
3.31123e+07
3.346e+07
3.34061e+07
3.36778e+07
3.36995e+07
3.38944e+07
3.39921e+07
3.411e+07
3.42837e+07
3.43246e+07
3.45744e+07
3.45387e+07
3.48641e+07
3.47526e+07
3.5153e+07
3.49669e+07
3.54414e+07
3.51822e+07
3.57297e+07
3.53992e+07
3.60182e+07
3.56187e+07
3.63076e+07
3.58416e+07
3.65983e+07
3.60687e+07
3.68908e+07
3.63012e+07
3.71857e+07
3.654e+07
3.74835e+07
3.67861e+07
2.81751e+07
2.84575e+07
2.79203e+07
2.82877e+07
2.77231e+07
2.81865e+07
2.75847e+07
2.81432e+07
2.75036e+07
2.81482e+07
2.74758e+07
2.81938e+07
2.74967e+07
2.82734e+07
2.7561e+07
2.83817e+07
2.76639e+07
2.85144e+07
2.78006e+07
2.86675e+07
2.79667e+07
2.88381e+07
2.81583e+07
2.90232e+07
2.83719e+07
2.92205e+07
2.86044e+07
2.94279e+07
2.88529e+07
2.96435e+07
2.9115e+07
2.98659e+07
2.93884e+07
3.00935e+07
2.96712e+07
3.03253e+07
2.99618e+07
3.05601e+07
3.02585e+07
3.07971e+07
3.05602e+07
3.10357e+07
3.08657e+07
3.12751e+07
3.1174e+07
3.1515e+07
3.14844e+07
3.17549e+07
3.17962e+07
3.19948e+07
3.21088e+07
3.22345e+07
3.24218e+07
3.24739e+07
3.2735e+07
3.27132e+07
3.30482e+07
3.29526e+07
3.33612e+07
3.31923e+07
3.36741e+07
3.34327e+07
3.39869e+07
3.36743e+07
3.42998e+07
3.39175e+07
3.4613e+07
3.41629e+07
3.49269e+07
3.44113e+07
3.52417e+07
3.46633e+07
3.55577e+07
3.49196e+07
3.58754e+07
3.5181e+07
3.61951e+07
3.54483e+07
3.65171e+07
3.5722e+07
2.58632e+07
2.64506e+07
2.57355e+07
2.63295e+07
2.56485e+07
2.62678e+07
2.56043e+07
2.62573e+07
2.56026e+07
2.62905e+07
2.56419e+07
2.6361e+07
2.57194e+07
2.64632e+07
2.5832e+07
2.65924e+07
2.59763e+07
2.67446e+07
2.6149e+07
2.69165e+07
2.63467e+07
2.7105e+07
2.65665e+07
2.73076e+07
2.68056e+07
2.75221e+07
2.70613e+07
2.77465e+07
2.73315e+07
2.79793e+07
2.76139e+07
2.82188e+07
2.79068e+07
2.84639e+07
2.82085e+07
2.87135e+07
2.85175e+07
2.89665e+07
2.88325e+07
2.92223e+07
2.91524e+07
2.94801e+07
2.94762e+07
2.97394e+07
2.98031e+07
2.99997e+07
3.01323e+07
3.02609e+07
3.04633e+07
3.05225e+07