/*--------------------------------*- C++ -*----------------------------------*\
| =========                 |                                                 |
| \\      /  F ield         | OpenFOAM: The Open Source CFD Toolbox           |
|  \\    /   O peration     | Version:  v2012                                 |
|   \\  /    A nd           | Website:  www.openfoam.com                      |
|    \\/     M anipulation  |                                                 |
\*---------------------------------------------------------------------------*/
FoamFile
{
    version     2.0;
    format      ascii;
    class       volScalarField;
    location    "3";
    object      epsilonEq;
}
// * * * * * * * * * * * * * * * * * * * * * * * * * * * * * * * * * * * * * //

dimensions      [0 0 0 0 0 0 0];


internalField   nonuniform List<scalar> 
8000
(
0.00191943
0.00178952
0.00175367
0.00164336
0.00160982
0.00151595
0.00148596
0.0014052
0.00137917
0.00130893
0.00128676
0.00122513
0.00120649
0.00115201
0.00113649
0.00108803
0.00107521
0.00103188
0.00102137
0.000982424
0.0009739
0.00093872
0.000931881
0.000899951
0.000894546
0.000865419
0.000861239
0.000834524
0.000831398
0.000806749
0.000804538
0.000781638
0.000780237
0.000758789
0.000758123
0.000737831
0.00073786
0.0007184
0.000719117
0.000700077
0.00188499
0.00176825
0.00172641
0.00162348
0.00159018
0.00149886
0.00147212
0.00139098
0.00136954
0.00129729
0.00128025
0.00121571
0.00120234
0.00114449
0.00113421
0.00108215
0.00107444
0.00102741
0.00102186
0.00097919
0.00097545
0.000936572
0.00093434
0.00089876
0.000897787
0.000865072
0.00086515
0.000834916
0.000835874
0.000807782
0.000809476
0.00078322
0.000785529
0.000760839
0.000763653
0.000740296
0.000743499
0.000721322
0.000724744
0.0007038
0.00186038
0.00174318
0.00170316
0.00159989
0.00156933
0.00147742
0.00145435
0.00137209
0.00135501
0.00128109
0.00126882
0.00120216
0.0011938
0.00113349
0.00112829
0.00107353
0.0010709
0.00102101
0.00102046
0.000974846
0.000975968
0.000934113
0.000936582
0.000898025
0.000901572
0.000865906
0.000870312
0.000837176
0.000842263
0.000811334
0.000816955
0.000787947
0.00079398
0.000766641
0.000772984
0.000747099
0.00075367
0.000729048
0.000735822
0.000712224
0.00182517
0.00170835
0.00167245
0.00156874
0.00154252
0.00144978
0.00143137
0.00134796
0.00133581
0.00126044
0.0012533
0.00118492
0.00118179
0.00111953
0.00111957
0.00106271
0.00106525
0.00101314
0.00101765
0.000969732
0.000975752
0.000931558
0.000938733
0.00089783
0.00090587
0.000867878
0.000876551
0.000841129
0.00085025
0.000817094
0.000826515
0.000795351
0.000804959
0.000775539
0.000785247
0.000757342
0.000767091
0.000740482
0.000750229
0.000724709
0.00177879
0.00166336
0.00163244
0.00152917
0.00150811
0.0014152
0.00140212
0.00131812
0.00131141
0.00123513
0.0012335
0.00116395
0.0011663
0.00110268
0.00110813
0.00104975
0.00105757
0.00100383
0.00101343
0.000963825
0.000974716
0.000928796
0.000940599
0.000897962
0.00091037
0.000870659
0.00088343
0.000846324
0.000859271
0.000824481
0.000837458
0.000804722
0.000817621
0.000786696
0.000799438
0.000770104
0.000782631
0.00075468
0.000766952
0.000740197
0.00172191
0.00160884
0.00158325
0.0014814
0.00146589
0.00137372
0.00136632
0.00128254
0.00128159
0.00120512
0.00120922
0.0011392
0.0011472
0.00108288
0.00109381
0.00103457
0.00104766
0.000992946
0.00100757
0.000956904
0.000972542
0.000925515
0.00094177
0.000898005
0.00091456
0.000873722
0.000890332
0.000852121
0.000868598
0.000832742
0.000848947
0.000815198
0.000831028
0.00079916
0.00081454
0.000784347
0.000799225
0.000770518
0.000784858
0.000757467
0.00165544
0.00154564
0.00152552
0.00142605
0.00141626
0.00132574
0.00132419
0.00124148
0.0012464
0.00117058
0.00118047
0.00111076
0.00112439
0.00106012
0.00107647
0.00101707
0.00103531
0.000980291
0.000999748
0.000948677
0.000968828
0.000921317
0.000941748
0.000897452
0.000917844
0.000876452
0.000896564
0.000857798
0.000877448
0.000841056
0.000860112
0.000825865
0.000844234
0.000811926
0.000829541
0.000798984
0.000815802
0.000786828
0.000802819
0.000775276
0.00158038
0.00147472
0.0014601
0.00136389
0.00135984
0.00127186
0.00127616
0.00119541
0.00120615
0.00113182
0.00114741
0.00107881
0.00109793
0.00103447
0.00105602
0.000997204
0.00102032
0.000965696
0.000989688
0.00093886
0.000963184
0.000915802
0.000940043
0.000895792
0.000919638
0.000878235
0.000901454
0.000862643
0.000885067
0.000848618
0.000870129
0.000835836
0.000856354
0.000824031
0.000843501
0.000812984
0.000831371
0.000802512
0.000819797
0.000792465
0.0014978
0.00139707
0.00138789
0.00129577
0.00129739
0.00121279
0.00122282
0.00114487
0.00116128
0.00108925
0.00111033
0.00104363
0.00106795
0.00100607
0.0010325
0.000974975
0.00100261
0.000949044
0.000977167
0.000927211
0.000955283
0.000908616
0.000936231
0.000892569
0.000919429
0.000878515
0.000904409
0.000866014
0.000890793
0.000854711
0.000878276
0.000844325
0.000866613
0.00083463
0.000855601
0.000825443
0.000845077
0.00081662
0.000834907
0.000808041
0.0014088
0.00131369
0.00130986
0.00122257
0.00122972
0.00114927
0.00116485
0.00109046
0.00111229
0.00104334
0.00106959
0.00100554
0.00103471
0.000975114
0.00100601
0.000950455
0.000982143
0.00093028
0.000962053
0.000913561
0.00094489
0.000899483
0.000929985
0.000887409
0.000916811
0.000876838
0.000904955
0.000867384
0.000894094
0.000858745
0.000883972
0.000850687
0.000874388
0.00084303
0.000865184
0.000835634
0.000856235
0.000828389
0.000847439
0.000821211
0.0013145
0.00122561
0.00122697
0.00114516
0.00115765
0.00108205
0.00110293
0.00103283
0.00105976
0.000994608
0.00102564
0.000964945
0.000998504
0.000941864
0.000976722
0.000923773
0.000958993
0.000909416
0.000944304
0.000897815
0.00093187
0.000888216
0.000921087
0.000880045
0.000911497
0.000872868
0.000902749
0.000866359
0.000894578
0.000860277
0.000886784
0.00085444
0.000879218
0.000848718
0.000871764
0.000843013
0.000864337
0.000837256
0.000856873
0.000831395
0.001216
0.00113382
0.00114018
0.00106444
0.00108204
0.00101191
0.0010378
0.000972641
0.0010043
0.000943587
0.000978955
0.000922247
0.000959693
0.000906612
0.000944889
0.000895109
0.000933295
0.000886528
0.000923962
0.000879957
0.000916183
0.000874719
0.000909431
0.000870315
0.000903322
0.000866388
0.000897577
0.00086268
0.000891996
0.000859012
0.000886436
0.000855262
0.0008808
0.000851349
0.00087502
0.000847221
0.00086905
0.000842846
0.000862862
0.00083821
0.00111437
0.00103928
0.00105045
0.00098126
0.00100372
0.000939622
0.000970189
0.00091055
0.000946528
0.000890838
0.000930055
0.000877894
0.000918678
0.000869691
0.000910803
0.000864689
0.000905247
0.000861748
0.000901145
0.000860043
0.000897878
0.000858984
0.000895008
0.000858162
0.000892234
0.0008573
0.000889353
0.000856216
0.000886231
0.000854797
0.000882788
0.000852979
0.000878978
0.000850735
0.000874781
0.000848057
0.000870193
0.000844955
0.00086522
0.000841446
0.00101061
0.000942926
0.000958674
0.000896459
0.000923523
0.000865936
0.000900842
0.00084723
0.000887087
0.000836927
0.000879472
0.000832344
0.00087589
0.000831451
0.000874799
0.000832772
0.000875101
0.000835258
0.000876033
0.000838188
0.000877079
0.000841077
0.000877899
0.000843615
0.000878279
0.000845608
0.000878094
0.000846952
0.000877283
0.000847601
0.000875823
0.000847551
0.000873723
0.000846824
0.00087101
0.000845462
0.000867719
0.000843516
0.000863894
0.000841037
0.000905661
0.000845606
0.000865733
0.000810843
0.000842256
0.000791602
0.00083049
0.000783348
0.000826622
0.000782425
0.00082775
0.000786062
0.000831777
0.000792261
0.000837236
0.000799639
0.000843142
0.000807268
0.000848853
0.000814553
0.000853968
0.000821126
0.000858251
0.000826777
0.000861581
0.000831402
0.000863912
0.000834972
0.000865249
0.000837504
0.00086563
0.00083905
0.000865115
0.000839684
0.000863777
0.000839497
0.000861694
0.000838583
0.000858944
0.000837034
0.000800403
0.00074813
0.00077245
0.00072519
0.000760707
0.000717361
0.000759865
0.000719576
0.000765777
0.000727904
0.00077544
0.000739518
0.000786793
0.000752493
0.000798487
0.000765581
0.000809676
0.00077801
0.000819858
0.000789326
0.000828761
0.000799289
0.000836259
0.000807796
0.000842322
0.00081483
0.00084698
0.000820429
0.000850303
0.000824669
0.000852382
0.00082765
0.000853326
0.00082949
0.000853252
0.000830326
0.000852282
0.000830308
0.000850532
0.000829581
0.000695629
0.000651254
0.000679611
0.000640268
0.000679661
0.000643964
0.000689701
0.000656596
0.000705206
0.000673946
0.000723093
0.00069318
0.000741394
0.000712513
0.000758922
0.000730885
0.000775007
0.000747707
0.000789306
0.00076269
0.000801685
0.000775729
0.00081213
0.000786828
0.000820703
0.000796055
0.000827506
0.000803511
0.000832664
0.000809316
0.000836315
0.000813603
0.000838606
0.000816516
0.000839693
0.000818225
0.000839742
0.000818941
0.000838921
0.00081891
0.000592071
0.00055569
0.000587989
0.000556859
0.00059992
0.000572206
0.000620762
0.000595128
0.000645576
0.000621148
0.000671265
0.000647522
0.00069603
0.000672687
0.000718904
0.000695824
0.000739425
0.000716564
0.000757432
0.000734796
0.000772935
0.00075056
0.000786037
0.00076397
0.00079689
0.000775178
0.000805663
0.000784345
0.000812531
0.000791628
0.000817666
0.000797169
0.000821237
0.000801105
0.000823425
0.000803587
0.000824433
0.000804851
0.000824502
0.000805324
0.000490401
0.000462131
0.00049837
0.000475815
0.000522353
0.000502976
0.000553875
0.000535966
0.0005876
0.00057016
0.000620538
0.000603046
0.000651162
0.000633389
0.000678789
0.00066067
0.000703199
0.00068476
0.000724427
0.000705743
0.000742635
0.000723803
0.000758046
0.000739173
0.000770905
0.000752096
0.000781451
0.000762804
0.000789913
0.000771501
0.000796493
0.000778349
0.000801373
0.000783446
0.000804726
0.000786821
0.000806767
0.000788496
0.00080785
0.000788936
0.000391235
0.000371293
0.000411638
0.000398167
0.000447988
0.000437346
0.000490003
0.000480035
0.000532084
0.000521712
0.000571556
0.000560319
0.000607296
0.000595056
0.000638965
0.000625745
0.000666609
0.000652514
0.000690461
0.000675627
0.000710831
0.000695409
0.000728058
0.000712201
0.000742479
0.000726338
0.000754419
0.000738144
0.000764181
0.000747915
0.000772041
0.000755914
0.000778245
0.000762321
0.000783005
0.000767099
0.00078655
0.000769522
0.000789471
0.000766534
0.000295149
0.000284037
0.00032894
0.000325339
0.000378167
0.000376707
0.000430326
0.000428446
0.000479978
0.000476664
0.000525081
0.000520026
0.000565061
0.000558268
0.000599967
0.000591573
0.000630109
0.000620298
0.000655889
0.000644856
0.000677726
0.000665655
0.000696017
0.000683078
0.000711123
0.000697462
0.000723351
0.000709099
0.000732946
0.000718224
0.000740068
0.000725017
0.000744737
0.000729621
0.000746693
0.00073222
0.000744936
0.000733459
0.000736168
0.00073626
0.000202757
0.000201795
0.000252116
0.000259613
0.000314806
0.000322924
0.000376335
0.000382516
0.000432402
0.000435973
0.000482021
0.000482959
0.00052529
0.000523801
0.000562672
0.000559035
0.000594731
0.000589237
0.000622031
0.000614961
0.000645099
0.000636715
0.00066441
0.000654956
0.000680383
0.000670093
0.000693382
0.000682492
0.000703723
0.000692494
0.000711682
0.000700442
0.000717532
0.000706732
0.000721668
0.000711903
0.000725093
0.000716691
0.000731353
0.000721468
0.000115254
0.000128393
0.000184944
0.000205092
0.000260782
0.000278489
0.000329819
0.000343664
0.000390479
0.000400487
0.000443126
0.000449659
0.000488531
0.000492019
0.000527511
0.000528376
0.000560832
0.000559465
0.000589184
0.00058594
0.000613179
0.00060838
0.000633356
0.000627298
0.000650194
0.000643153
0.000664124
0.000656361
0.000675545
0.000667316
0.000684861
0.0006764
0.000692522
0.000683991
0.00069909
0.000690436
0.000705198
0.000695946
0.000710661
0.000700522
4.16915e-05
7.96816e-05
0.000136587
0.000169057
0.000220466
0.000246527
0.000292934
0.000313382
0.000355376
0.000370994
0.000409096
0.000420579
0.000455236
0.000463192
0.00049479
0.000499745
0.000528615
0.00053103
0.000557458
0.000557734
0.000581967
0.000580458
0.000602711
0.000599731
0.000620197
0.000616021
0.000634881
0.000629748
0.000647185
0.000641291
0.00065751
0.000650986
0.000666228
0.000659121
0.00067365
0.00066591
0.000679921
0.000671496
0.000685122
0.000675964
6.73376e-05
9.29547e-05
0.000123979
0.000160068
0.000199205
0.000229995
0.000267921
0.000292959
0.000328213
0.000348144
0.000380553
0.000396074
0.000425776
0.000437514
0.000464728
0.000473231
0.000498191
0.000503935
0.000526863
0.000530262
0.000551365
0.000552775
0.000572244
0.000571975
0.00058999
0.000588304
0.000605037
0.00060215
0.000617773
0.000613855
0.000628537
0.000623708
0.00063761
0.000631949
0.000645209
0.00063877
0.000651496
0.000644323
0.00065659
0.00064873
0.000140447
0.000147181
0.000150884
0.000178371
0.000199927
0.000229844
0.000256308
0.000283013
0.000309827
0.000332309
0.000357988
0.000376367
0.000400446
0.000415115
0.0004375
0.000448899
0.000469643
0.000478193
0.000497406
0.000503487
0.000521304
0.000525251
0.000541812
0.000543917
0.000559361
0.000559871
0.000574334
0.000573458
0.000587069
0.000584976
0.000597855
0.000594683
0.000606935
0.000602797
0.00061451
0.000609504
0.000620748
0.000614959
0.000625784
0.000619296
0.00021301
0.000209072
0.000198105
0.000213943
0.000219483
0.000243808
0.000257892
0.000283065
0.000300468
0.000323436
0.000341662
0.000361504
0.000379448
0.000396053
0.000413244
0.000426794
0.000443056
0.00045383
0.000469129
0.000477425
0.000491795
0.000497897
0.000511406
0.000515574
0.000528304
0.000530766
0.000542803
0.00054376
0.000555189
0.000554812
0.000565712
0.000564149
0.000574587
0.00057197
0.000582005
0.000578448
0.000588125
0.000583733
0.000593088
0.000587958
0.000282055
0.000270348
0.000251425
0.000257072
0.000250958
0.000267579
0.000270493
0.000291545
0.00029958
0.00032098
0.00033151
0.000351313
0.000362854
0.000380294
0.000392061
0.000406936
0.000418529
0.000430892
0.000442121
0.000452134
0.000462923
0.000470785
0.000481119
0.000487038
0.000496935
0.000501108
0.000510604
0.000513212
0.000522347
0.000523556
0.000532373
0.000532332
0.000540869
0.00053971
0.000548001
0.000545846
0.000553919
0.000550879
0.000558755
0.000554932
0.000346937
0.000328793
0.0003051
0.000302262
0.000288242
0.000296904
0.000290867
0.000306251
0.000305846
0.000323961
0.000327092
0.000345395
0.000350577
0.000367704
0.000373999
0.000389311
0.00039616
0.000409423
0.000416502
0.000427692
0.000434821
0.000444018
0.000451101
0.000458434
0.000465427
0.000471044
0.00047793
0.000481982
0.000488762
0.000491395
0.000498076
0.000499426
0.000506021
0.000506217
0.000512738
0.000511898
0.000518354
0.000516587
0.000522988
0.000520396
0.000407337
0.000383533
0.00035678
0.000346726
0.000327396
0.000328586
0.000315853
0.000324932
0.000317514
0.000331135
0.000327628
0.000343157
0.000342351
0.000358042
0.000359036
0.000373863
0.000376038
0.000389462
0.000392412
0.00040419
0.000407655
0.000417718
0.000421534
0.000429907
0.000433974
0.000440736
0.00044499
0.000450243
0.000454647
0.000458506
0.000463037
0.000465618
0.000470261
0.000471677
0.000476425
0.000476783
0.000481629
0.000481033
0.00048597
0.000484516
0.00046302
0.000434094
0.000405338
0.000388982
0.000366097
0.000360472
0.000342942
0.000345652
0.000332769
0.000341196
0.000332113
0.000343871
0.000337741
0.000350974
0.000347064
0.00036049
0.000358227
0.000371037
0.000369999
0.000381728
0.000381616
0.000392024
0.000392629
0.000401618
0.000402796
0.000410356
0.000412005
0.000418176
0.000420226
0.000425077
0.000427477
0.000431092
0.000433804
0.000436274
0.00043927
0.000440685
0.000443942
0.000444394
0.000447893
0.000447467
0.00051378
0.000480162
0.000450134
0.000428165
0.000402956
0.000391152
0.000370324
0.000366892
0.000349996
0.000352928
0.00033946
0.000346759
0.000336181
0.000346095
0.000337891
0.000349044
0.000342757
0.00035416
0.000349416
0.00036041
0.000356917
0.000367093
0.000364626
0.000373751
0.000372144
0.000380104
0.000379229
0.000385987
0.000385748
0.000391316
0.00039164
0.000396058
0.000396887
0.000400215
0.000401503
0.000403808
0.000405517
0.000406872
0.00040897
0.000409446
0.000559425
0.000521492
0.000490754
0.000463727
0.000437105
0.000419691
0.000396744
0.000387519
0.000367881
0.000365287
0.000348624
0.000351052
0.00033703
0.000342954
0.000331243
0.000339339
0.000329621
0.000338829
0.000330819
0.000340352
0.000333803
0.000343107
0.000337815
0.000346527
0.000342325
0.000350219
0.000346971
0.000353923
0.000351519
0.000357472
0.000355823
0.000360766
0.000359799
0.00036375
0.000363405
0.0003664
0.000366626
0.000368713
0.000369467
0.0003707
0.000599776
0.000557888
0.000526904
0.000495297
0.000467978
0.00044546
0.000421331
0.0004067
0.000385406
0.000377414
0.000358676
0.00035604
0.000339624
0.00034108
0.000326776
0.000331148
0.000318756
0.000325021
0.000314351
0.000321672
0.000312549
0.000320281
0.000312543
0.000320214
0.000313719
0.000321
0.000315623
0.000322298
0.00031793
0.000323866
0.000320413
0.000325538
0.000322917
0.000327201
0.000325342
0.000328783
0.000327626
0.00033024
0.000329734
0.000331548
0.000634661
0.000589185
0.000558369
0.000522619
0.000495192
0.000468024
0.000443484
0.000423827
0.0004018
0.000388613
0.000368822
0.000361075
0.000343311
0.000339987
0.000324089
0.000324204
0.000310039
0.00031268
0.000300132
0.000304495
0.000293456
0.000298866
0.00028923
0.000295151
0.000286818
0.000292839
0.00028571
0.000291534
0.000285517
0.000290935
0.000285942
0.000290818
0.000286767
0.000291016
0.000287833
0.000291407
0.000289026
0.000291904
0.000290269
0.000292444
0.000663915
0.000615258
0.000584997
0.000545531
0.000518496
0.00048708
0.000462774
0.000438416
0.000416458
0.000398274
0.000378367
0.000365538
0.000347449
0.000339168
0.000322726
0.000318192
0.000303278
0.00030172
0.000288248
0.000288949
0.000276851
0.000279171
0.00026839
0.000271781
0.000262259
0.000266271
0.000257947
0.000262223
0.000255034
0.000259303
0.000253182
0.000257247
0.000252123
0.000255846
0.000251646
0.000254934
0.000251587
0.000254377
0.000251823
0.000254068
0.00068738
0.000636054
0.000606722
0.000563958
0.000537735
0.000502339
0.000478843
0.000449915
0.000428803
0.000405733
0.000386632
0.000368783
0.000351391
0.000338095
0.000322195
0.000312784
0.00029823
0.000292054
0.000278753
0.0002752
0.000263094
0.000261598
0.000250648
0.000250703
0.000240882
0.000242043
0.000233326
0.00023522
0.000227575
0.000229898
0.000223287
0.000225799
0.000220171
0.000222694
0.000217984
0.000220389
0.00021652
0.000218713
0.000215605
0.000217505
0.000704966
0.000651723
0.000623629
0.000577773
0.000552738
0.000512869
0.000491026
0.000457369
0.000438055
0.000410195
0.000392889
0.000370189
0.000354528
0.00033633
0.000322059
0.000307745
0.000294691
0.000283691
0.000271737
0.000263527
0.0002526
0.000246701
0.000236759
0.000232733
0.000223754
0.000221208
0.000213181
0.000211768
0.000204685
0.000204107
0.000197957
0.000197966
0.000192722
0.000193125
0.00018874
0.000189396
0.000185785
0.000186603
0.00018363
0.000184546
0.000717068
0.000663208
0.000636102
0.000583423
0.000561712
0.00051648
0.000497861
0.000459658
0.000443309
0.00041111
0.000396594
0.000369497
0.000356522
0.000333787
0.000322134
0.000303147
0.000292649
0.000276884
0.000267415
0.000254417
0.000245884
0.000235246
0.000227587
0.000218948
0.000212125
0.000205157
0.00019915
0.00019356
0.000188365
0.000183893
0.000179509
0.000175934
0.000172359
0.000169499
0.000166715
0.000164443
0.000162387
0.000160646
0.00015914
0.000157975
0.000729081
0.000649379
0.000635221
0.000575493
0.000560914
0.00051212
0.000498299
0.000457043
0.000444515
0.000409085
0.000398011
0.00036735
0.000357708
0.000331072
0.000322759
0.000299575
0.000292463
0.000272266
0.000266227
0.000248627
0.000243547
0.000228206
0.000223993
0.000210612
0.000207198
0.000195507
0.000192847
0.000182601
0.000180674
0.000171642
0.000170455
0.000162417
0.000162006
0.000154752
0.000155185
0.000148528
0.000149896
0.000143727
0.000146122
0.000140566
0.000149507
0.000133227
0.000160709
0.00014552
0.000186533
0.000169451
0.000220074
0.000200287
0.000257749
0.00023488
0.000297515
0.000271378
0.000338166
0.000308687
0.000378947
0.000346137
0.000419356
0.000383289
0.000459037
0.000419846
0.000497721
0.000455592
0.00053519
0.000490369
0.000571258
0.000524054
0.000605751
0.000556547
0.000638491
0.000587766
0.000669278
0.000617636
0.000697861
0.000646093
0.000723884
0.000673089
0.000746755
0.00069863
0.000765178
0.000722884
0.000140993
0.000130481
0.000154222
0.000143611
0.00017979
0.000167438
0.000212718
0.000197773
0.000249627
0.000231662
0.000288544
0.000267333
0.000328305
0.000303734
0.000368184
0.00034021
0.000407697
0.000376331
0.000446503
0.000411801
0.000484342
0.000446406
0.000521013
0.000479987
0.000556342
0.00051242
0.000590176
0.000543604
0.000622364
0.00057345
0.000652743
0.000601876
0.000681116
0.000628789
0.000707209
0.000654066
0.00073058
0.000677507
0.000750293
0.000698651
0.000138336
0.000131559
0.000151682
0.000144648
0.000176096
0.000167548
0.000207538
0.000196619
0.00024292
0.000229156
0.000280345
0.000263472
0.00031867
0.000298538
0.000357178
0.000333703
0.000395391
0.000368536
0.000432971
0.000402737
0.000469669
0.000436091
0.000505287
0.000468437
0.000539666
0.00049965
0.000572667
0.000529632
0.000604158
0.0005583
0.000634006
0.000585575
0.000662056
0.000611373
0.000688103
0.000635588
0.000711833
0.000658053
0.000732636
0.000678435
0.000139705
0.000135451
0.000152217
0.000147904
0.000174898
0.000169361
0.000204313
0.000196696
0.000237681
0.000227472
0.000273194
0.000260092
0.000309725
0.000293545
0.000346554
0.000327179
0.000383199
0.000360555
0.000419321
0.000393366
0.000454669
0.000425389
0.000489051
0.000456461
0.000522314
0.000486455
0.000554328
0.000515275
0.000584979
0.00054284
0.000614152
0.000569078
0.000641726
0.000593919
0.000667547
0.000617278
0.000691393
0.000639035
0.00071287
0.000658972
0.000143859
0.000141341
0.000155121
0.000152836
0.00017576
0.000172574
0.000202853
0.000197915
0.000233924
0.000226692
0.000267268
0.000257408
0.000301779
0.000289075
0.000336733
0.000321038
0.000371638
0.000352848
0.000406147
0.000384188
0.000440007
0.000414828
0.000473025
0.000444599
0.00050505
0.000473371
0.000535959
0.000501046
0.000565648
0.000527544
0.000594019
0.000552801
0.000620973
0.000576755
0.000646392
0.000599338
0.00067012
0.000620463
0.000691897
0.000639989
0.000149916
0.000148615
0.000159822
0.000159024
0.000178321
0.000176946
0.000202977
0.000200189
0.000231616
0.000226854
0.000262656
0.000255555
0.000295019
0.000285337
0.000327981
0.000315545
0.00036104
0.000345724
0.000393842
0.000375545
0.000426126
0.000404772
0.000457696
0.000433227
0.0004884
0.000460776
0.00051812
0.000487317
0.000546756
0.000512772
0.000574221
0.000537078
0.000600434
0.000560179
0.000625302
0.000582022
0.000648714
0.000602541
0.000670496
0.000621641
0.000157257
0.000156821
0.000165862
0.000166141
0.000182272
0.000182271
0.000204506
0.00020342
0.000230689
0.000227951
0.000259376
0.000254598
0.000289535
0.000282452
0.000320448
0.000310868
0.000351608
0.000339383
0.000382651
0.000367664
0.000413309
0.000395463
0.000443381
0.000422597
0.000472714
0.000448927
0.000501187
0.000474346
0.000528706
0.000498775
0.000555191
0.000522151
0.00058057
0.000544422
0.000604771
0.000565542
0.000627711
0.000585462
0.000649272
0.000604116
0.000165449
0.00016564
0.000172879
0.000173933
0.000187342
0.000188368
0.000207258
0.000207501
0.000231041
0.00022994
0.000257395
0.000254551
0.000285349
0.000280479
0.000314201
0.000307096
0.000343445
0.000333942
0.00037271
0.000360678
0.000401721
0.000387051
0.000430273
0.000412869
0.000458207
0.000437988
0.000485403
0.000462298
0.000511765
0.000485716
0.000537218
0.000508179
0.000561698
0.000529636
0.000585145
0.000550047
0.000607497
0.000569372
0.000628671
0.000587564
0.000174191
0.000174844
0.000180595
0.000182201
0.000193296
0.000195077
0.000211054
0.000212318
0.000232549
0.000232755
0.00025664
0.000255387
0.00028243
0.000279424
0.000309245
0.000304264
0.000336586
0.000329455
0.000364079
0.000354659
0.000391445
0.000379616
0.000418473
0.00040413
0.000445002
0.000428053
0.000470906
0.000451269
0.000496091
0.000473692
0.000520482
0.000495256
0.00054402
0.000515914
0.000566653
0.000535625
0.000588332
0.000554356
0.000609
0.000572074
0.000183272
0.000184269
0.000188794
0.00019079
0.000199933
0.000202258
0.000215721
0.000217755
0.000235077
0.00023631
0.000257012
0.00025705
0.000280712
0.000279257
0.000305541
0.000302364
0.000331015
0.000325933
0.000356762
0.000349629
0.000382502
0.000373191
0.00040802
0.00039642
0.000433149
0.000419163
0.000457763
0.000441301
0.000481765
0.000462744
0.00050508
0.000483426
0.00052765
0.000503295
0.000549429
0.000522315
0.000570378
0.000540455
0.000590454
0.00055769
0.00019254
0.000193796
0.000197313
0.000199581
0.000207083
0.000209793
0.000221101
0.000223703
0.000238486
0.000240512
0.000258396
0.000259467
0.000280104
0.000279925
0.00030302
0.000301359
0.000326681
0.000323351
0.000350725
0.000345574
0.000374871
0.00036777
0.000398902
0.000389738
0.00042265
0.000411322
0.000445986
0.0004324
0.00046881
0.000452879
0.000491046
0.000472691
0.000512637
0.000491783
0.00053354
0.000510117
0.000553719
0.000527667
0.000573144
0.000544411
0.000201889
0.000203341
0.000206026
0.000208479
0.000214606
0.000217577
0.000227047
0.000230058
0.000242639
0.000245263
0.00026067
0.000262553
0.0002805
0.000281355
0.000301593
0.000301189
0.00032351
0.000321662
0.000345903
0.000342457
0.000368498
0.000363322
0.000391077
0.000384057
0.000413471
0.000404505
0.000435549
0.000424542
0.000457208
0.000444074
0.000478372
0.000463029
0.000498982
0.000481352
0.000518996
0.000499007
0.000538382
0.000515965
0.000557116
0.000532209
0.000211239
0.000212837
0.000214837
0.000217409
0.000222386
0.000225525
0.000233433
0.000236724
0.000247406
0.00025047
0.00026371
0.000266218
0.000281788
0.000283467
0.000301156
0.000301783
0.000321409
0.000320801
0.000342217
0.000340219
0.000363311
0.000359794
0.00038448
0.000379329
0.000405553
0.000398667
0.000426398
0.000417685
0.000446912
0.000436286
0.000467016
0.000454396
0.000486651
0.000471959
0.000505773
0.000488937
0.000524353
0.000505302
0.000542371
0.000521038
0.000220527
0.000222232
0.000223669
0.00022631
0.000230327
0.00023356
0.000240146
0.000243617
0.000252668
0.00025604
0.000267395
0.000270371
0.00028385
0.000286174
0.000301601
0.00030306
0.000320278
0.000320693
0.000339571
0.000338792
0.000359223
0.000357122
0.000379029
0.000375493
0.00039882
0.000393751
0.000418463
0.000411771
0.000437856
0.000429458
0.000456918
0.000446735
0.000475587
0.000463545
0.000493821
0.000479849
0.00051159
0.000495618
0.000528873
0.000510835
0.000229708
0.000231487
0.000232462
0.000235132
0.000238348
0.00024162
0.000247089
0.000250659
0.000258314
0.000261889
0.000271612
0.000274924
0.000286573
0.000289387
0.000302817
0.000304933
0.000320011
0.000321257
0.000337865
0.000338097
0.000356139
0.000355232
0.000374633
0.000372479
0.000393184
0.000389687
0.000411661
0.000406734
0.00042996
0.000423524
0.000448
0.00043998
0.000465719
0.000456044
0.000483072
0.000471675
0.000500029
0.000486844
0.00051657
0.000501533
0.000238741
0.000240566
0.000241164
0.000243831
0.000246382
0.000249648
0.000254176
0.000257782
0.000264247
0.000267938
0.000276253
0.000279792
0.000289846
0.00029302
0.000304695
0.000307317
0.0003205
0.000322408
0.000336995
0.000338053
0.000353957
0.000354045
0.000371195
0.000370209
0.000388552
0.000386401
0.000405901
0.0004025
0.000423136
0.000418412
0.000440178
0.00043406
0.000456964
0.000449385
0.000473447
0.000464345
0.000489595
0.00047891
0.00050539
0.00049306
0.000247594
0.000249438
0.000249733
0.000252368
0.000254372
0.000257593
0.000261334
0.000264923
0.000270378
0.000274114
0.000281221
0.000284894
0.000293567
0.000296987
0.000307129
0.000310124
0.000321638
0.00032406
0.000336856
0.000338575
0.000352575
0.000353478
0.000368616
0.000368603
0.000384828
0.000383813
0.000401087
0.000398992
0.000417292
0.000414046
0.000433362
0.000428899
0.000449233
0.000443493
0.00046486
0.000457784
0.000480208
0.000471741
0.000495256
0.000485343
0.000256235
0.000258076
0.000258131
0.000260711
0.000262265
0.000265412
0.000268497
0.000272026
0.000276628
0.000280349
0.000286425
0.000290156
0.000297637
0.000301208
0.000310015
0.000313271
0.000323323
0.000326128
0.000337345
0.000339578
0.000351891
0.000353447
0.000366793
0.000367578
0.00038191
0.000381843
0.000397122
0.00039613
0.000412331
0.000410347
0.000427457
0.000424421
0.000442437
0.000438293
0.000457223
0.000451917
0.00047178
0.000465263
0.000486085
0.000478307
0.000264636
0.000266452
0.000266323
0.000268826
0.000270017
0.000273063
0.000275605
0.000279037
0.000282925
0.000286582
0.000291782
0.000295506
0.000301965
0.000305605
0.000313258
0.000316677
0.000325454
0.000328528
0.000338361
0.000340979
0.000351803
0.000353867
0.000365627
0.000367052
0.000379701
0.000380409
0.00039391
0.000393833
0.000408159
0.000407237
0.00042237
0.000420547
0.000436482
0.000433707
0.000450445
0.000446669
0.000464223
0.000459402
0.000477793
0.000471883
0.000272772
0.000274539
0.000274277
0.000276681
0.000277585
0.000280506
0.000282605
0.00028591
0.000289203
0.000292754
0.000297217
0.000300878
0.000306467
0.000310106
0.000316768
0.000320264
0.000327938
0.00033118
0.000339806
0.000342693
0.000352214
0.000354658
0.000365021
0.000366941
0.000378102
0.000379429
0.000391352
0.000392022
0.000404679
0.000404636
0.000418007
0.000417201
0.000431276
0.000429659
0.000444436
0.000441966
0.00045745
0.000454087
0.000470293
0.000465999
0.000280613
0.000282312
0.00028196
0.000284247
0.000284931
0.000287704
0.000289448
0.000292597
0.000295403
0.000298811
0.000302659
0.000306209
0.000311064
0.000314642
0.000320458
0.000323958
0.000330683
0.000334006
0.000341587
0.000344644
0.000353028
0.000355737
0.000364877
0.000367166
0.000377019
0.000378824
0.000389355
0.000390618
0.000401798
0.000402467
0.000414275
0.000414305
0.000426727
0.000426076
0.000439106
0.000437735
0.000451373
0.000449246
0.000463501
0.000460586
0.000288132
0.000289741
0.000289342
0.000291492
0.000292015
0.00029462
0.000296087
0.000299055
0.000301468
0.0003047
0.000308043
0.00031144
0.000315682
0.000319147
0.000324249
0.000327688
0.000333605
0.000336933
0.000343615
0.000346752
0.000354154
0.000357026
0.000365103
0.000367646
0.000376358
0.000378514
0.000387825
0.000389541