/*--------------------------------*- C++ -*----------------------------------*\
| =========                 |                                                 |
| \\      /  F ield         | OpenFOAM: The Open Source CFD Toolbox           |
|  \\    /   O peration     | Version:  v2012                                 |
|   \\  /    A nd           | Website:  www.openfoam.com                      |
|    \\/     M anipulation  |                                                 |
\*---------------------------------------------------------------------------*/
FoamFile
{
    version     2.0;
    format      ascii;
    class       pointVectorField;
    location    "19";
    object      pointD;
}
// * * * * * * * * * * * * * * * * * * * * * * * * * * * * * * * * * * * * * //

dimensions      [0 1 0 0 0 0 0];


internalField   nonuniform List<vector> 
32562
(
(0.000878984 0 4.04946e-22)
(0.000952598 0 2.04143e-22)
(0.000868372 -1.08776e-05 -5.1657e-22)
(0 -0.000837551 -1.67404e-22)
(0 0.000193912 2.96954e-20)
(0.000894451 0 0)
(0 -0.000825184 0)
(0.00070497 -0.000127295 0)
(0.000263543 -0.000235557 1.11047e-21)
(0.000913854 1.80788e-05 -2.36855e-21)
(0.000826293 -0.000253687 -3.34304e-22)
(0.000826293 -0.000253687 -3.34304e-22)
(0.00070497 -0.000127295 0)
(0 -0.000825184 0)
(0 0.000193912 2.96954e-20)
(0.000878984 0 4.04946e-22)
(0.000894451 0 0)
(0.000952598 0 2.04143e-22)
(0.000913854 1.80788e-05 -2.36855e-21)
(0.000868372 -1.08776e-05 -5.1657e-22)
(0.000263543 -0.000235557 1.11047e-21)
(0 -0.000837551 -1.67404e-22)
(1.73507e-05 -0.000823039 0)
(3.48442e-05 -0.000816789 0)
(5.25808e-05 -0.000806883 0)
(7.07255e-05 -0.000793815 0)
(8.96734e-05 -0.000777842 0)
(0.000109803 -0.000759006 0)
(0.000131365 -0.000737357 0)
(0.000154502 -0.000713 0)
(0.000179234 -0.000686144 0)
(0.000205443 -0.000657108 0)
(0.000232934 -0.000626312 0)
(0.000261412 -0.00059426 0)
(0.000290535 -0.000561504 0)
(0.000319907 -0.000528637 0)
(0.000349052 -0.000496288 0)
(0.000377373 -0.000465152 0)
(0.000404061 -0.000436186 0)
(0.00042821 -0.000410332 0)
(0.000449227 -0.000388042 0)
(0.000467249 -0.000368953 0)
(0.000483063 -0.000352119 0)
(0.000497678 -0.00033639 0)
(0.000511919 -0.000320987 0)
(0.000525893 -0.000305774 0)
(0.000539436 -0.000291008 0)
(0.000552603 -0.00027677 0)
(0.000565428 -0.000263024 0)
(0.000577867 -0.000249848 0)
(0.000589997 -0.000237189 0)
(0.000601772 -0.000225081 0)
(0.000613264 -0.000213473 0)
(0.000624427 -0.000202391 0)
(0.000635337 -0.000191772 0)
(0.000645936 -0.000181654 0)
(0.000656317 -0.000171954 0)
(0.000666397 -0.000162732 0)
(0.000676298 -0.000153885 0)
(0.000685906 -0.000145484 0)
(0.000695377 -0.000137434 0)
(0.000715045 -0.000119441 0)
(0.000723801 -0.000112485 0)
(0.000732364 -0.000105879 0)
(0.000740692 -9.95959e-05 0)
(0.000748804 -9.36375e-05 0)
(0.000756709 -8.79697e-05 0)
(0.000764395 -8.25944e-05 0)
(0.000771881 -7.74855e-05 0)
(0.000779148 -7.26399e-05 0)
(0.000786218 -6.8039e-05 0)
(0.000793069 -6.36753e-05 0)
(0.000799722 -5.95364e-05 0)
(0.000806157 -5.56111e-05 0)
(0.000812389 -5.18915e-05 0)
(0.000818405 -4.83659e-05 0)
(0.000824212 -4.50255e-05 0)
(0.000829796 -4.18645e-05 0)
(0.000835171 -3.88722e-05 0)
(0.000840322 -3.60396e-05 0)
(0.000845256 -3.336e-05 0)
(0.000849964 -3.08227e-05 0)
(0.00085445 -2.84227e-05 0)
(0.000858706 -2.61494e-05 0)
(0.000862734 -2.39978e-05 0)
(0.000866528 -2.1958e-05 0)
(0.00087009 -2.00246e-05 0)
(0.000873415 -1.81885e-05 0)
(0.000876503 -1.64439e-05 0)
(0.00087935 -1.47821e-05 0)
(0.000881957 -1.31973e-05 0)
(0.00088432 -1.16811e-05 0)
(0.000886439 -1.02276e-05 0)
(0.000888311 -8.82881e-06 0)
(0.000889937 -7.47859e-06 0)
(0.000891314 -6.16917e-06 0)
(0.000892443 -4.8944e-06 0)
(0.000893321 -3.64674e-06 0)
(0.000893948 -2.41983e-06 0)
(0.000894325 -1.20646e-06 0)
(0.000880039 0 0)
(0.000881354 0 0)
(0.000882592 0 0)
(0.000883745 0 0)
(0.000884826 0 0)
(0.000885833 0 0)
(0.000886772 0 0)
(0.000887646 0 0)
(0.000888457 0 0)
(0.000889209 0 0)
(0.000889904 0 0)
(0.000890546 0 0)
(0.000891135 0 0)
(0.000891678 0 0)
(0.000892172 0 0)
(0.000892624 0 0)
(0.000893031 0 0)
(0.000893402 0 0)
(0.00089373 0 0)
(0.000894026 0 0)
(0.000894283 0 0)
(0.000894511 0 0)
(0.000894704 0 0)
(0.000894871 0 0)
(0.000895005 0 0)
(0.000895117 0 0)
(0.0008952 0 0)
(0.000895261 0 0)
(0.000895297 0 0)
(0.000895314 0 0)
(0.000895308 0 0)
(0.000895284 0 0)
(0.00089524 0 0)
(0.00089518 0 0)
(0.000895104 0 0)
(0.000895011 0 0)
(0.000894905 0 0)
(0.000894784 0 0)
(0.000894653 0 0)
(0.000894108 0 0)
(0.000893635 0 0)
(0.00089313 0 0)
(0.000892578 0 0)
(0.000892005 0 0)
(0.000891409 0 0)
(0.000890801 0 0)
(0.000890192 0 0)
(0.000889578 0 0)
(0.00088898 0 0)
(0.000888385 0 0)
(0.000887819 0 0)
(0.000887263 0 0)
(0.000886745 0 0)
(0.000886246 0 0)
(0.000885791 0 0)
(0.000885363 0 0)
(0.000884983 0 0)
(0.000884637 0 0)
(0.000884343 0 0)
(0.00088409 0 0)
(0.000883889 0 0)
(0.000883735 0 0)
(0.000883634 0 0)
(0.000883586 0 0)
(0.000883591 0 0)
(0.000883652 0 0)
(0.000883767 0 0)
(0.00088394 0 0)
(0.000884167 0 0)
(0.000884455 0 0)
(0.000884796 0 0)
(0.000885199 0 0)
(0.000885655 0 0)
(0.000886173 0 0)
(0.000886744 0 0)
(0.000887375 0 0)
(0.000888061 0 0)
(0.000888805 0 0)
(0.000889603 0 0)
(0.000890458 0 0)
(0.000891366 0 0)
(0.000892329 0 0)
(0.000893344 0 0)
(0.000894412 0 0)
(0.00089553 0 0)
(0.0008967 0 0)
(0.000897918 0 0)
(0.000899185 0 0)
(0.000900498 0 0)
(0.000901857 0 0)
(0.000903261 0 0)
(0.000904708 0 0)
(0.000906196 0 0)
(0.000907725 0 0)
(0.000909293 0 0)
(0.000910897 0 0)
(0.000912538 0 0)
(0.000914211 0 0)
(0.000915918 0 0)
(0.000917653 0 0)
(0.000919418 0 0)
(0.000921207 0 0)
(0.000923022 0 0)
(0.000924857 0 0)
(0.000926712 0 0)
(0.000928583 0 0)
(0.000930469 0 0)
(0.000932366 0 0)
(0.000934272 0 0)
(0.000936184 0 0)
(0.000938098 0 0)
(0.00094001 0 0)
(0.000941918 0 0)
(0.000943818 0 0)
(0.000945706 0 0)
(0.000947578 0 0)
(0.000949427 0 0)
(0.000951253 0 0)
(0.000953016 8.71396e-07 2.17888e-22)
(0.000952926 1.74098e-06 1.9004e-22)
(0.000952775 2.60702e-06 3.75776e-22)
(0.000952564 3.46763e-06 -2.42893e-22)
(0.000952294 4.32117e-06 1.59817e-22)
(0.000951964 5.1657e-06 1.9947e-22)
(0.000951576 5.99969e-06 1.59723e-24)
(0.000951129 6.82113e-06 4.83743e-22)
(0.000950625 7.62863e-06 1.67399e-22)
(0.000950064 8.42011e-06 -2.25031e-22)
(0.000949448 9.19434e-06 -6.26067e-22)
(0.000948776 9.94919e-06 -6.35584e-22)
(0.00094805 1.06836e-05 3.04648e-22)
(0.000947271 1.13953e-05 7.60002e-22)
(0.000946441 1.20836e-05 2.02593e-22)
(0.000945559 1.27461e-05 -7.8503e-22)
(0.000944629 1.33822e-05 -1.17079e-21)
(0.000943651 1.39895e-05 -6.98826e-22)
(0.000942627 1.45678e-05 -3.83121e-22)
(0.000941557 1.51145e-05 -9.88802e-28)
(0.000940445 1.56296e-05 3.32781e-23)
(0.00093929 1.61105e-05 2.58129e-22)
(0.000938097 1.65575e-05 2.24808e-22)
(0.000936864 1.69681e-05 4.40208e-22)
(0.000935597 1.73425e-05 1.12056e-21)
(0.000934294 1.76786e-05 6.80357e-22)
(0.00093296 1.79765e-05 -2.35226e-22)
(0.000931594 1.82343e-05 2.22342e-24)
(0.000930202 1.84522e-05 -4.85321e-22)
(0.000928781 1.86289e-05 -7.30009e-22)
(0.000927339 1.87639e-05 2.36536e-22)
(0.000925873 1.88569e-05 4.89824e-22)
(0.000924389 1.89067e-05 2.45993e-22)
(0.000922886 1.89142e-05 -5.56038e-22)
(0.000921369 1.88772e-05 7.0588e-22)
(0.000919838 1.8798e-05 1.81539e-21)
(0.000918298 1.86733e-05 1.62728e-21)
(0.000916749 1.85069e-05 1.38219e-21)
(0.000915193 1.82944e-05 -1.26552e-21)
(0.000912943 1.79137e-05 -1.52882e-22)
(0.000912252 1.77783e-05 1.02547e-21)
(0.000911559 1.7634e-05 -5.28255e-22)
(0.000910868 1.74815e-05 -9.09296e-22)
(0.000910176 1.73205e-05 1.66159e-21)
(0.000909486 1.71511e-05 8.5654e-22)
(0.000908796 1.69734e-05 -2.99805e-21)
(0.000908108 1.67873e-05 -2.193e-21)
(0.000907421 1.65932e-05 6.38751e-22)
(0.000906735 1.63907e-05 -2.71363e-22)
(0.00090605 1.61802e-05 -9.10114e-22)
(0.000905368 1.59615e-05 1.62801e-21)
(0.000904688 1.5735e-05 8.02102e-22)
(0.000904009 1.55004e-05 -2.99148e-21)
(0.000903333 1.52582e-05 -2.16558e-21)
(0.00090266 1.5008e-05 3.46677e-22)
(0.000901989 1.47503e-05 -2.75243e-22)
(0.000901321 1.44848e-05 -6.2192e-22)
(0.000900657 1.4212e-05 -2.80899e-22)
(0.000899995 1.39317e-05 -2.80899e-22)
(0.000899337 1.36442e-05 -2.82672e-22)
(0.000898682 1.33493e-05 -8.88771e-22)
(0.000898031 1.30475e-05 -2.88057e-22)
(0.000897384 1.27386e-05 1.82887e-21)
(0.000896741 1.2423e-05 6.5266e-22)
(0.000896102 1.21005e-05 -2.32645e-21)
(0.000895467 1.17714e-05 -5.82838e-22)
(0.000894837 1.14358e-05 -2.73639e-22)
(0.000894212 1.1094e-05 -2.31474e-21)
(0.000893591 1.07458e-05 -1.4456e-21)
(0.000892975 1.03916e-05 7.38767e-25)
(0.000892363 1.00315e-05 -2.73168e-22)
(0.000891757 9.66561e-06 -2.71767e-22)
(0.000891156 9.29407e-06 1.10737e-21)
(0.000890561 8.91707e-06 -2.71076e-23)
(0.00088997 8.53476e-06 -1.09222e-21)
(0.000889385 8.14731e-06 -5.80316e-24)
(0.000888806 7.75489e-06 -5.1233e-23)
(0.000888232 7.35766e-06 -2.95238e-22)
(0.000887664 6.95582e-06 5.22589e-22)
(0.000887102 6.54952e-06 -2.91447e-22)
(0.000886545 6.13898e-06 -1.11143e-21)
(0.000885994 5.72435e-06 9.22993e-22)
(0.00088545 5.30585e-06 1.23164e-22)
(0.000884911 4.88365e-06 -2.58205e-21)
(0.000884378 4.45798e-06 -1.67123e-23)
(0.00088385 4.029e-06 1.35267e-21)
(0.000883329 3.59694e-06 -1.37182e-21)
(0.000882814 3.162e-06 -2.0293e-21)
(0.000882304 2.72437e-06 -7.72923e-22)
(0.000881801 2.28429e-06 1.60667e-22)
(0.000881303 1.84194e-06 -1.40525e-22)
(0.000880811 1.39757e-06 -1.05344e-21)
(0.000880325 9.51338e-07 -1.19781e-21)
(0.000879844 5.03524e-07 2.96625e-22)
(0.000879369 5.42754e-08 4.40155e-22)
(0.000878899 -3.96115e-07 -7.32306e-22)
(0.000878434 -8.4753e-07 8.46128e-22)
(0.000877975 -1.29964e-06 3.69142e-22)
(0.00087752 -1.75237e-06 -1.85348e-21)
(0.00087707 -2.20536e-06 -8.36852e-22)
(0.000876625 -2.65858e-06 5.17089e-22)
(0.000876184 -3.11162e-06 3.06439e-22)
(0.000875747 -3.56449e-06 -1.01284e-22)
(0.000875315 -4.01682e-06 -3.02558e-22)
(0.000874885 -4.46848e-06 -1.37257e-26)
(0.000874459 -4.91941e-06 8.18338e-26)
(0.000874036 -5.36931e-06 -6.90592e-22)
(0.000873616 -5.81818e-06 -4.71788e-22)
(0.000873198 -6.26576e-06 2.18578e-22)
(0.000872782 -6.71201e-06 1.36955e-21)
(0.000872368 -7.1568e-06 1.14671e-21)
(0.000871955 -7.6001e-06 -6.03295e-22)
(0.000871542 -8.04178e-06 -3.80872e-22)
(0.00087113 -8.48197e-06 3.80703e-22)
(0.000870718 -8.92053e-06 -6.04027e-22)
(0.000870305 -9.35773e-06 -6.82917e-22)
(0.000869892 -9.79346e-06 -3.25473e-30)
(0.000869476 -1.02282e-05 -3.85488e-22)
(0.000865867 -1.1971e-05 -2.57949e-22)
(0.000862685 -1.32789e-05 -3.85473e-22)
(0.000859515 -1.45802e-05 -3.8459e-22)
(0.000856359 -1.58657e-05 -3.82883e-22)
(0.000853213 -1.71222e-05 -4.72871e-22)
(0.000850072 -1.83415e-05 -5.50263e-23)
(0.00084693 -1.95162e-05 1.62853e-22)
(0.000843782 -2.06409e-05 0)
(0.000840621 -2.17109e-05 9.8548e-23)
(0.00083744 -2.27233e-05 -1.90354e-22)
(0.000834235 -2.36755e-05 -4.47123e-22)
(0.000830997 -2.45672e-05 -2.91199e-22)
(0.000827721 -2.53965e-05 -3.79396e-22)
(0.0008244 -2.61651e-05 -3.83136e-22)
(0.000821031 -2.68739e-05 -4.14685e-22)
(0.000817605 -2.75232e-05 -2.77966e-22)
(0.000814119 -2.81164e-05 -3.04239e-22)
(0.000810567 -2.86541e-05 -5.98083e-22)
(0.000806945 -2.91403e-05 -4.04805e-22)
(0.000803245 -2.95768e-05 2.18742e-22)
(0.000799466 -2.99677e-05 4.5543e-22)
(0.0007956 -3.03158e-05 -3.91662e-22)
(0.000791645 -3.06255e-05 -8.37633e-22)
(0.000787594 -3.08993e-05 -4.74083e-22)
(0.000783444 -3.11432e-05 -3.19783e-22)
(0.00077919 -3.13609e-05 -3.42602e-22)
(0.000774827 -3.15569e-05 -3.62988e-22)
(0.000770353 -3.17364e-05 -3.72204e-22)
(0.000765761 -3.19039e-05 2.40096e-25)
(0.000761049 -3.20652e-05 -2.00873e-22)
(0.000756212 -3.22248e-05 -3.82299e-22)
(0.000751244 -3.2389e-05 -4.1303e-22)
(0.000746142 -3.25631e-05 -4.23175e-22)
(0.000740902 -3.27535e-05 -2.23138e-22)
(0.00073552 -3.29663e-05 -4.34313e-22)
(0.000729989 -3.32078e-05 -2.247e-22)
(0.000724308 -3.34855e-05 -2.43914e-22)
(0.000718473 -3.38045e-05 -2.03582e-22)
(0.000712477 -3.4172e-05 2.81293e-22)
(0.000706315 -3.45978e-05 -3.5619e-23)
(0.000699983 -3.50864e-05 -3.01266e-22)
(0.000693478 -3.56491e-05 -5.37708e-22)
(0.000686792 -3.62912e-05 -5.2109e-22)
(0.000679924 -3.70258e-05 -8.80266e-22)
(0.000672866 -3.7857e-05 -1.2008e-21)
(0.000665618 -3.87931e-05 -8.58915e-22)
(0.00065817 -3.98485e-05 1.85043e-22)
(0.000650522 -4.10323e-05 9.61707e-22)
(0.000642664 -4.23528e-05 -4.33372e-23)
(0.000634597 -4.38229e-05 3.87112e-22)
(0.00062631 -4.5451e-05 9.04117e-22)
(0.000617804 -4.72522e-05 -1.17035e-22)
(0.000609067 -4.92339e-05 -5.83512e-22)
(0.000600101 -5.14146e-05 -2.31092e-22)
(0.000590895 -5.3802e-05 -1.56797e-22)
(0.000581452 -5.64166e-05 -7.68081e-22)
(0.000571756 -5.92639e-05 -5.18233e-22)
(0.000561821 -6.23645e-05 3.01599e-22)
(0.000551621 -6.57361e-05 9.86682e-23)
(0.000541169 -6.93949e-05 8.75624e-24)
(0.000530449 -7.33442e-05 6.89468e-22)
(0.000519469 -7.76187e-05 7.09289e-22)
(0.000508219 -8.22248e-05 2.87781e-22)
(0.000496712 -8.71907e-05 4.6285e-22)
(0.000484942 -9.25243e-05 1.41175e-22)
(0.000472939 -9.82509e-05 1.18966e-23)
(0.000460723 -0.000104377 8.88452e-22)
(0.000448257 -0.000110942 2.81693e-22)
(0.000435364 -0.000118014 -2.06179e-21)
(0.00042194 -0.000125661 -2.03244e-21)
(0.00040791 -0.000133923 -3.93154e-22)
(0.00039327 -0.000142821 -1.50083e-30)
(0.000378032 -0.000152338 1.36658e-21)
(0.00036232 -0.000162398 1.68683e-21)
(0.00034619 -0.000173042 7.82682e-22)
(0.00032972 -0.000184245 1.03341e-22)
(0.000312952 -0.00019614 2.09798e-23)
(0.000296055 -0.000208699 2.31794e-21)
(0.000279203 -0.00022219 2.89182e-21)
(0.00025037 -0.000247684 -1.18567e-21)
(0.000238342 -0.000259367 -7.02823e-22)
(0.00022612 -0.000271612 3.45853e-21)
(0.000213729 -0.000284373 1.4548e-21)
(0.00020117 -0.000297712 -3.59221e-21)
(0.000188524 -0.000311638 -7.68826e-22)
(0.000175794 -0.000326181 3.03435e-21)
(0.000163048 -0.000341363 8.67002e-23)
(0.000150308 -0.000357185 -4.65038e-21)
(0.000137639 -0.00037368 -4.81202e-21)
(0.000125084 -0.000390818 -1.65909e-21)
(0.000112707 -0.000408628 -1.19584e-23)
(0.000100576 -0.000427051 1.49219e-23)
(8.87523e-05 -0.000446099 4.64071e-23)
(7.73215e-05 -0.000465678 -1.9205e-23)
(6.6338e-05 -0.000485775 -1.501e-21)
(5.58944e-05 -0.000506261 -3.10906e-21)
(4.60298e-05 -0.000527092 -6.3509e-21)
(3.68301e-05 -0.000548113 -5.08133e-21)
(2.83113e-05 -0.000569253 1.1978e-21)
(2.05436e-05 -0.000590344 -1.73086e-22)
(1.35169e-05 -0.000611302 -4.8362e-23)
(7.2829e-06 -0.000631959 4.86555e-21)
(1.80937e-06 -0.000652226 2.6451e-21)
(-2.8699e-06 -0.000671947 -1.16967e-21)
(-6.80201e-06 -0.000691035 -2.85171e-22)
(-9.96926e-06 -0.000709353 9.43313e-23)
(-1.24268e-05 -0.000726815 1.04227e-21)
(-1.41718e-05 -0.000743302 9.93846e-22)
(-1.52635e-05 -0.000758732 -1.25702e-21)
(-1.57144e-05 -0.000773003 -1.08558e-21)
(-1.55869e-05 -0.000786037 1.80901e-22)
(-1.4909e-05 -0.000797748 3.393e-22)
(-1.3748e-05 -0.000808067 0)
(-1.21478e-05 -0.00081692 5.33246e-22)
(-1.01811e-05 -0.000824253 7.12245e-22)
(-7.90701e-06 -0.00083001 -4.3597e-22)
(-5.40321e-06 -0.000834154 -6.92177e-22)
(-2.74076e-06 -0.000836651 -2.45303e-22)
(0 -0.000837744 0)
(0 -0.000837962 0)
(0 -0.000838145 0)
(0 -0.000838293 0)
(0 -0.000838409 0)
(0 -0.000838494 0)
(0 -0.00083855 0)
(0 -0.000838578 0)
(0 -0.00083858 0)
(0 -0.000838557 0)
(0 -0.00083851 0)
(0 -0.000838441 0)
(0 -0.000838351 0)
(0 -0.000838242 0)
(0 -0.000838113 0)
(0 -0.000837968 0)
(0 -0.000837806 0)
(0 -0.000837629 0)
(0 -0.000837437 0)
(0 -0.000837233 0)
(0 -0.000837017 0)
(0 -0.000836789 0)
(0 -0.000836551 0)
(0 -0.000836304 0)
(0 -0.000836047 0)
(0 -0.000835784 0)
(0 -0.000835513 0)
(0 -0.000835236 0)
(0 -0.000834953 0)
(0 -0.000834666 0)
(0 -0.000834375 0)
(0 -0.00083408 0)
(0 -0.000833783 0)
(0 -0.000833484 0)
(0 -0.000833184 0)
(0 -0.000832883 0)
(0 -0.000832581 0)
(0 -0.000832281 0)
(0 -0.000831981 0)
(0 -0.000831683 0)
(0 -0.000831387 0)
(0 -0.000831093 0)
(0 -0.000830803 0)
(0 -0.000830516 0)
(0 -0.000830234 0)
(0 -0.000829956 0)
(0 -0.000829684 0)
(0 -0.000829417 0)
(0 -0.000829156 0)
(0 -0.000828901 0)
(0 -0.000828653 0)
(0 -0.000828413 0)
(0 -0.00082818 0)
(0 -0.000827955 0)
(0 -0.000827739 0)
(0 -0.000827531 0)
(0 -0.000827332 0)
(0 -0.000827143 0)
(0 -0.000826963 0)
(0 -0.000826792 0)
(0 -0.000826632 0)
(0 -0.000826482 0)
(0 -0.000826342 0)
(0 -0.000826213 0)
(0 -0.000826093 0)
(0 -0.000825984 0)
(0 -0.000825885 0)
(0 -0.000825795 0)
(0 -0.000825715 0)
(0 -0.000825644 0)
(0 -0.000825582 0)
(0 -0.000825526 0)
(0 -0.000825478 0)
(0 -0.000825435 0)
(0 -0.000825397 0)
(0 -0.000825361 0)
(0 -0.000825326 0)
(0 -0.000825288 0)
(0 -0.000825246 0)
(0 -0.000825073 0)
(0 -0.00082487 0)
(0 -0.000824345 0)
(0 -0.000823275 0)
(0 -0.000821521 0)
(0 -0.00081894 0)
(0 -0.000815394 0)
(0 -0.000810761 0)
(0 -0.000804897 0)
(0 -0.000797708 0)
(0 -0.000789075 0)
(0 -0.000778913 0)
(0 -0.000767149 0)
(0 -0.000753705 0)
(0 -0.000738544 0)
(0 -0.000721613 0)
(0 -0.000702873 0)
(0 -0.000682325 0)
(0 -0.00065991 0)
(0 -0.000635654 0)
(0 -0.000609526 0)
(0 -0.000581521 0)
(0 -0.000551654 0)
(0 -0.000519917 0)
(0 -0.000486313 0)
(0 -0.000450877 0)
(0 -0.000413608 0)
(0 -0.000374542 0)
(0 -0.000333712 0)
(0 -0.000291169 0)
(0 -0.000246965 0)
(0 -0.000201171 0)
(0 -0.00015388 0)
(0 -0.000105199 0)
(0 -5.52603e-05 0)
(0 -4.20446e-06 0)
(0 4.77825e-05 0)
(0 0.000100514 0)
(0 0.000153768 0)
(0.000707532 -0.000116251 0)
(0.000709188 -0.000105956 0)
(0.000710939 -9.60928e-05 0)
(0.000712737 -8.69149e-05 0)
(0.000714617 -7.82376e-05 0)
(0.000716549 -7.01261e-05 0)
(0.000718548 -6.25323e-05 0)
(0.000720593 -5.54397e-05 0)
(0.00072269 -4.88541e-05 0)
(0.00072483 -4.27072e-05 0)
(0.00072701 -3.70405e-05 0)
(0.00072923 -3.17667e-05 0)
(0.000731479 -2.69376e-05 0)
(0.000733765 -2.24632e-05 0)
(0.000736077 -1.83887e-05 0)
(0.000738421 -1.46371e-05 0)
(0.000740788 -1.12414e-05 0)
(0.000743183 -8.13692e-06 0)
(0.0007456 -5.34783e-06 0)
(0.000748042 -2.81958e-06 0)
(0.000750503 -5.69348e-07 0)
(0.000752988 1.44877e-06 0)
(0.000755491 3.22387e-06 0)
(0.000758015 4.79228e-06 0)
(0.000760556 6.14932e-06 0)
(0.000763116 7.32536e-06 0)
(0.000765692 8.31895e-06 0)
(0.000768287 9.15477e-06 0)
(0.000770897 9.83373e-06 0)
(0.000773524 1.03772e-05 0)
(0.000776165 1.07855e-05 0)
(0.000778823 1.10797e-05 0)
(0.000781495 1.12622e-05 0)
(0.000784181 1.13477e-05 0)
(0.000786882 1.13412e-05 0)
(0.000789596 1.12545e-05 0)
(0.000792324 1.10936e-05 0)
(0.000795064 1.08684e-05 0)
(0.000797817 1.05848e-05 0)
(0.000800581 1.02518e-05 0)
(0.000803357 9.87524e-06 0)
(0.000806144 9.46193e-06 0)
(0.000808941 9.01907e-06 0)
(0.000811748 8.55273e-06 0)
(0.000814564 8.06921e-06 0)
(0.000817389 7.57381e-06 0)
(0.000820222 7.07156e-06 0)
(0.000823062 6.56876e-06 0)
(0.00082591 6.06986e-06 0)
(0.000828763 5.58064e-06 0)
(0.000831622 5.10522e-06 0)
(0.000834486 4.64913e-06 0)
(0.000837353 4.21611e-06 0)
(0.000840224 3.8116e-06 0)
(0.000843098 3.43897e-06 0)
(0.000845973 3.10367e-06 0)
(0.000848849 2.80868e-06 0)
(0.000851726 2.55965e-06 0)
(0.000854602 2.35912e-06 0)
(0.000857476 2.21308e-06 0)
(0.000860349 2.12369e-06 0)
(0.000863218 2.09739e-06 0)
(0.000866084 2.136e-06 0)
(0.000868946 2.24652e-06 0)
(0.000871802 2.43056e-06 0)
(0.000874653 2.69572e-06 0)
(0.000877498 3.04374e-06 0)
(0.000880336 3.48249e-06 0)
(0.000883165 4.01512e-06 0)
(0.000885988 4.6511e-06 0)
(0.000888806 5.38926e-06 0)
(0.000891615 6.24189e-06 0)
(0.000894416 7.21303e-06 0)
(0.00089721 8.31226e-06 0)
(0.000899998 9.54593e-06 0)
(0.000902779 1.09236e-05 0)
(0.000905554 1.24554e-05 0)
(0.000908324 1.41497e-05 0)
(0.000911091 1.60221e-05 0)
(0.000698435 -0.000128543 0)
(0.000693734 -0.000129137 0)
(0.000688976 -0.000129753 0)
(0.000684174 -0.000130371 0)
(0.000679311 -0.000131011 0)
(0.000674405 -0.000131657 0)
(0.000669444 -0.000132324 0)
(0.000664441 -0.000133002 0)
(0.000659389 -0.0001337 0)
(0.000654293 -0.000134412 0)
(0.00064916 -0.000135145 0)
(0.000643975 -0.000135894 0)
(0.000638771 -0.000136665 0)
(0.000633496 -0.000137454 0)
(0.000628181 -0.000138258 0)
(0.000622842 -0.000139088 0)
(0.000617461 -0.000139931 0)
(0.000612058 -0.000140793 0)
(0.000606617 -0.000141674 0)
(0.000601153 -0.000142572 0)
(0.000595657 -0.000143493 0)
(0.000590135 -0.00014443 0)
(0.00058459 -0.00014539 0)
(0.000579013 -0.000146369 0)
(0.000573429 -0.000147371 0)
(0.000567793 -0.000148393 0)
(0.000562128 -0.000149431 0)
(0.000556458 -0.000150491 0)
(0.000550762 -0.000151572 0)
(0.000545057 -0.000152671 0)
(0.00053933 -0.000153792 0)
(0.000533592 -0.000154931 0)
(0.000527837 -0.000156094 0)
(0.000522071 -0.000157274 0)
(0.000516291 -0.000158477 0)
(0.000510501 -0.000159699 0)
(0.000504701 -0.000160944 0)
(0.000498895 -0.000162207 0)
(0.00049308 -0.000163493 0)
(0.000487262 -0.000164798 0)
(0.000481438 -0.000166127 0)
(0.000475616 -0.000167475 0)
(0.000469785 -0.000168847 0)
(0.000463968 -0.00017024 0)
(0.000458131 -0.000171657 0)
(0.000452292 -0.000173089 0)
(0.000446469 -0.000174545 0)
(0.000440646 -0.000176022 0)
(0.000434838 -0.00017752 0)
(0.000429033 -0.000179039 0)
(0.000423243 -0.000180579 0)
(0.00041746 -0.000182141 0)
(0.000411692 -0.000183723 0)
(0.000405935 -0.000185327 0)
(0.000400194 -0.000186952 0)
(0.000394467 -0.000188599 0)
(0.000388757 -0.000190267 0)
(0.000383063 -0.000191957 0)
(0.000377387 -0.000193669 0)
(0.00037173 -0.000195403 0)
(0.000366092 -0.00019716 0)
(0.000360474 -0.00019894 0)
(0.000354876 -0.000200743 0)
(0.000349299 -0.000202571 0)
(0.000343743 -0.000204423 0)
(0.000338209 -0.0002063 0)
(0.000332695 -0.000208203 0)
(0.000327205 -0.000210132 0)
(0.000321734 -0.000212088 0)
(0.000316287 -0.00021407 0)
(0.000310861 -0.000216081 0)
(0.000305457 -0.000218118 0)
(0.000300075 -0.000220184 0)
(0.00029471 -0.000222273 0)
(0.000289372 -0.000224391 0)
(0.000284043 -0.000226526 0)
(0.000278746 -0.000228682 0)
(0.000273506 -0.000230871 0)
(0.00026841 -0.000233154 0)
(6.91258e-05 0.000203979 4.52237e-20)
(0.000137292 0.000194027 -1.1941e-20)
(0.000203622 0.00017763 -4.15088e-20)
(0.000267366 0.000155126 -1.64243e-20)
(0.000327962 0.000126988 7.78691e-21)
(0.000385114 9.38289e-05 -5.66751e-21)
(0.00043878 5.6461e-05 -1.24146e-20)
(0.000489104 1.56946e-05 3.67127e-21)
(0.000536351 -2.76924e-05 2.23947e-20)
(0.000580803 -7.30018e-05 1.55667e-20)
(0.000622577 -0.000119697 9.98876e-21)
(0.000661642 -0.000167238 1.65049e-20)
(0.000697743 -0.000215014 -2.29444e-23)
(0.000730452 -0.000262107 8.36697e-21)
(0.000759258 -0.000307059 4.33532e-21)
(0.000783663 -0.000348256 -7.34338e-21)
(0.000803359 -0.000384225 -1.29901e-20)
(0.000817954 -0.000413077 -1.86642e-20)
(0.000826854 -0.00043211 -6.60727e-21)
(0.000830001 -0.000439472 3.56641e-21)
(0.000828672 -0.000436455 -5.47487e-22)
(0.000825101 -0.000427291 -4.61352e-21)
(0.000821343 -0.000416181 -1.7773e-21)
(0.000818416 -0.000405076 -3.55789e-22)
(0.000816236 -0.000394256 -9.8158e-22)
(0.000814662 -0.000383706 2.85098e-21)
(0.000813641 -0.000373383 1.54216e-21)
(0.000813077 -0.000363266 -4.28643e-23)
(0.000812925 -0.000353326 4.16262e-22)
(0.000813115 -0.000343556 -2.21583e-21)
(0.000813616 -0.000333937 -2.20327e-21)
(0.00081437 -0.000324471 5.39418e-22)
(0.000815358 -0.000315144 1.45126e-21)
(0.000816532 -0.000305959 1.09046e-21)
(0.000817879 -0.00029691 1.27101e-21)
(0.000819358 -0.000287997 -7.95091e-22)
(0.000820964 -0.00027922 -3.22152e-21)
(0.000822662 -0.000270574 -1.20122e-21)
(0.000824447 -0.000262066 -1.69835e-22)
(0.000828196 -0.000245445 -6.75347e-22)
(0.000830136 -0.00023733 -1.4349e-21)
(0.000832106 -0.000229352 -2.38442e-23)
(0.000834095 -0.000221496 -1.72149e-21)
(0.000836093 -0.000213776 -2.8692e-21)
(0.000838096 -0.000206175 6.36589e-22)
(0.000840089 -0.000198706 1.06431e-21)
(0.000842073 -0.000191355 2.69817e-23)
(0.000844039 -0.000184127 1.33055e-21)
(0.000845983 -0.000177013 9.84489e-22)
(0.000847897 -0.000170015 5.85241e-22)
(0.000849782 -0.000163126 7.98094e-22)
(0.000851627 -0.000156346 -1.46682e-22)
(0.000853435 -0.000149669 -1.57239e-21)
(0.000855196 -0.000143094 -4.98794e-22)
(0.000856914 -0.000136615 2.54409e-21)
(0.000858578 -0.00013023 2.29514e-21)
(0.000860193 -0.000123934 -2.68301e-22)
(0.00086175 -0.000117723 -1.1596e-21)
(0.000863251 -0.000111594 -1.19911e-21)
(0.000864691 -0.000105542 -4.02222e-22)
(0.00086607 -9.95643e-05 -1.84684e-24)
(0.000867385 -9.36548e-05 -3.77819e-22)
(0.000868634 -8.78121e-05 -6.2667e-23)
(0.000869815 -8.20295e-05 -7.3543e-22)
(0.000870928 -7.63052e-05 -1.51412e-21)
(0.00087197 -7.06337e-05 5.64462e-22)
(0.00087294 -6.50116e-05 1.49911e-21)
(0.000873836 -5.94354e-05 3.08328e-22)
(0.00087466 -5.3901e-05 6.05853e-22)
(0.000875406 -4.84039e-05 -1.35093e-22)
(0.000876078 -4.29415e-05 8.99827e-23)
(0.000876672 -3.75081e-05 1.40877e-21)
(0.000877189 -3.21019e-05 6.33572e-22)
(0.000877627 -2.6717e-05 -5.49983e-22)
(0.000877986 -2.13517e-05 -1.24558e-21)
(0.000878266 -1.60005e-05 -1.34977e-21)
(0.000878466 -1.0661e-05 -5.00517e-22)
(0.000878587 -5.32855e-06 4.00761e-22)
(0.000823909 -0.000249601 0)
(0.000821466 -0.000245565 0)
(0.00081898 -0.000241595 0)
(0.000816436 -0.000237672 0)
(0.000813842 -0.000233809 0)
(0.000811194 -0.000229993 0)
(0.000808494 -0.000226232 0)
(0.000805744 -0.000222521 0)
(0.000802942 -0.000218863 0)
(0.000800096 -0.000215255 0)
(0.000797202 -0.000211698 0)
(0.000794267 -0.000208193 0)
(0.000791289 -0.000204738 0)
(0.000788275 -0.000201334 0)
(0.000785224 -0.00019798 0)
(0.000782142 -0.000194678 0)
(0.000779029 -0.000191425 0)
(0.00077589 -0.000188221 0)
(0.000772726 -0.000185067 0)
(0.000769542 -0.000181961 0)
(0.000766339 -0.000178903 0)
(0.000763121 -0.000175893 0)
(0.000759889 -0.000172929 0)
(0.000756647 -0.000170012 0)
(0.000753395 -0.00016714 0)
(0.00075014 -0.000164313 0)
(0.000746878 -0.000161529 0)
(0.000743617 -0.000158789 0)
(0.000740353 -0.00015609 0)
(0.000737097 -0.000153434 0)
(0.000733837 -0.000150816 0)
(0.000730593 -0.00014824 0)
(0.000727346 -0.0001457 0)
(0.000724121 -0.000143202 0)
(0.000720893 -0.000140738 0)
(0.000717696 -0.000138314 0)
(0.000714495 -0.000135925 0)
(0.000711332 -0.000133575 0)
(0.00070817 -0.000131264 0)
(0.000823909 -0.000249601 0)
(0.000821466 -0.000245565 0)
(0.00081898 -0.000241595 0)
(0.000816436 -0.000237672 0)
(0.000813842 -0.000233809 0)
(0.000811194 -0.000229993 0)
(0.000808494 -0.000226232 0)
(0.000805744 -0.000222521 0)
(0.000802942 -0.000218863 0)
(0.000800096 -0.000215255 0)
(0.000797202 -0.000211698 0)
(0.000794267 -0.000208193 0)
(0.000791289 -0.000204738 0)
(0.000788275 -0.000201334 0)
(0.000785224 -0.00019798 0)
(0.000782142 -0.000194678 0)
(0.000779029 -0.000191425 0)
(0.00077589 -0.000188221 0)
(0.000772726 -0.000185067 0)
(0.000769542 -0.000181961 0)
(0.000766339 -0.000178903 0)
(0.000763121 -0.000175893 0)
(0.000759889 -0.000172929 0)
(0.000756647 -0.000170012 0)
(0.000753395 -0.00016714 0)
(0.00075014 -0.000164313 0)
(0.000746878 -0.000161529 0)
(0.000743617 -0.000158789 0)
(0.000740353 -0.00015609 0)
(0.000737097 -0.000153434 0)
(0.000733837 -0.000150816 0)
(0.000730593 -0.00014824 0)
(0.000727346 -0.0001457 0)
(0.000724121 -0.000143202 0)
(0.000720893 -0.000140738 0)
(0.000717696 -0.000138314 0)
(0.000714495 -0.000135925 0)
(0.000711332 -0.000133575 0)
(0.00070817 -0.000131264 0)
(0.000695377 -0.000137434 0)
(0.000685906 -0.000145484 0)
(0.000676298 -0.000153885 0)
(0.000666397 -0.000162732 0)
(0.000656317 -0.000171954 0)
(0.000645936 -0.000181654 0)
(0.000635337 -0.000191772 0)
(0.000624427 -0.000202391 0)
(0.000613264 -0.000213473 0)
(0.000601772 -0.000225081 0)
(0.000589997 -0.000237189 0)
(0.000577867 -0.000249848 0)
(0.000565428 -0.000263024 0)
(0.000552603 -0.00027677 0)
(0.000539436 -0.000291008 0)
(0.000525893 -0.000305774 0)
(0.000511919 -0.000320987 0)
(0.000497678 -0.00033639 0)
(0.000483063 -0.000352119 0)
(0.000467249 -0.000368953 0)
(0.000449227 -0.000388042 0)
(0.00042821 -0.000410332 0)
(0.000404061 -0.000436186 0)
(0.000377373 -0.000465152 0)
(0.000349052 -0.000496288 0)
(0.000319907 -0.000528637 0)
(0.000290535 -0.000561504 0)
(0.000261412 -0.00059426 0)
(0.000232934 -0.000626312 0)
(0.000205443 -0.000657108 0)
(0.000179234 -0.000686144 0)
(0.000154502 -0.000713 0)
(0.000131365 -0.000737357 0)
(0.000109803 -0.000759006 0)
(8.96734e-05 -0.000777842 0)
(7.07255e-05 -0.000793815 0)
(5.25808e-05 -0.000806883 0)
(3.48442e-05 -0.000816789 0)
(1.73507e-05 -0.000823039 0)
(0 -0.000825073 0)
(0 -0.00082487 0)
(0 -0.000824345 0)
(0 -0.000823275 0)
(0 -0.000821521 0)
(0 -0.00081894 0)
(0 -0.000815394 0)
(0 -0.000810761 0)
(0 -0.000804897 0)
(0 -0.000797708 0)
(0 -0.000789075 0)
(0 -0.000778913 0)
(0 -0.000767149 0)
(0 -0.000753705 0)
(0 -0.000738544 0)
(0 -0.000721613 0)
(0 -0.000702873 0)
(0 -0.000682325 0)
(0 -0.00065991 0)
(0 -0.000635654 0)
(0 -0.000609526 0)
(0 -0.000581521 0)
(0 -0.000551654 0)
(0 -0.000519917 0)
(0 -0.000486313 0)
(0 -0.000450877 0)
(0 -0.000413608 0)
(0 -0.000374542 0)
(0 -0.000333712 0)
(0 -0.000291169 0)
(0 -0.000246965 0)
(0 -0.000201171 0)
(0 -0.00015388 0)
(0 -0.000105199 0)
(0 -5.52603e-05 0)
(0 -4.20446e-06 0)
(0 4.77825e-05 0)
(0 0.000100514 0)
(0 0.000153768 0)
(6.91258e-05 0.000203979 4.52237e-20)
(0.000137292 0.000194027 -1.1941e-20)
(0.000203622 0.00017763 -4.15088e-20)
(0.000267366 0.000155126 -1.64243e-20)
(0.000327962 0.000126988 7.78691e-21)
(0.000385114 9.38289e-05 -5.66751e-21)
(0.00043878 5.6461e-05 -1.24146e-20)
(0.000489104 1.56946e-05 3.67127e-21)
(0.000536351 -2.76924e-05 2.23947e-20)
(0.000580803 -7.30018e-05 1.55667e-20)
(0.000622577 -0.000119697 9.98876e-21)
(0.000661642 -0.000167238 1.65049e-20)
(0.000697743 -0.000215014 -2.29444e-23)
(0.000730452 -0.000262107 8.36697e-21)
(0.000759258 -0.000307059 4.33532e-21)
(0.000783663 -0.000348256 -7.34338e-21)
(0.000803359 -0.000384225 -1.29901e-20)
(0.000817954 -0.000413077 -1.86642e-20)
(0.000826854 -0.00043211 -6.60727e-21)
(0.000830001 -0.000439472 3.56641e-21)
(0.000828672 -0.000436455 -5.47487e-22)
(0.000825101 -0.000427291 -4.61352e-21)
(0.000821343 -0.000416181 -1.7773e-21)
(0.000818416 -0.000405076 -3.55789e-22)
(0.000816236 -0.000394256 -9.8158e-22)
(0.000814662 -0.000383706 2.85098e-21)
(0.000813641 -0.000373383 1.54216e-21)