/*--------------------------------*- C++ -*----------------------------------*\
| =========                 |                                                 |
| \\      /  F ield         | OpenFOAM: The Open Source CFD Toolbox           |
|  \\    /   O peration     | Version:  v2012                                 |
|   \\  /    A nd           | Website:  www.openfoam.com                      |
|    \\/     M anipulation  |                                                 |
\*---------------------------------------------------------------------------*/
FoamFile
{
    version     2.0;
    format      ascii;
    class       volScalarField;
    location    "19";
    object      sigmaHyd;
}
// * * * * * * * * * * * * * * * * * * * * * * * * * * * * * * * * * * * * * //

dimensions      [1 -1 -2 0 0 0 0];


internalField   nonuniform List<scalar> 
16000
(
-8.41322e+07
-7.54906e+07
-6.74221e+07
-5.93231e+07
-5.16116e+07
-4.40703e+07
-3.67133e+07
-2.96591e+07
-2.26794e+07
-1.60657e+07
-9.47534e+06
-3.27053e+06
2.93619e+06
8.74889e+06
1.45742e+07
2.00169e+07
2.54639e+07
3.05331e+07
3.55999e+07
4.02906e+07
4.49395e+07
4.92154e+07
5.34059e+07
5.71898e+07
6.08376e+07
6.40378e+07
6.70437e+07
6.95507e+07
7.18048e+07
7.35109e+07
7.49393e+07
7.58166e+07
7.64097e+07
7.65083e+07
7.63198e+07
7.57829e+07
7.49965e+07
7.39579e+07
7.20638e+07
6.88367e+07
-8.37903e+07
-7.51604e+07
-6.70942e+07
-5.90256e+07
-5.13174e+07
-4.38063e+07
-3.64586e+07
-2.94316e+07
-2.24628e+07
-1.58697e+07
-9.28693e+06
-3.09991e+06
3.10263e+06
8.90991e+06
1.4728e+07
2.01665e+07
2.56063e+07
3.06624e+07
3.57097e+07
4.03604e+07
4.49724e+07
4.91709e+07
5.32806e+07
5.69483e+07
6.04643e+07
6.35102e+07
6.63243e+07
6.86376e+07
7.06644e+07
7.21747e+07
7.33743e+07
7.40801e+07
7.4485e+07
7.44708e+07
7.41844e+07
7.36302e+07
7.28116e+07
7.19304e+07
7.03829e+07
6.75544e+07
-8.3104e+07
-7.45075e+07
-6.64419e+07
-5.84365e+07
-5.07343e+07
-4.32807e+07
-3.59506e+07
-2.89725e+07
-2.20239e+07
-1.54698e+07
-8.89983e+06
-2.74138e+06
3.45014e+06
9.23511e+06
1.50485e+07
2.04499e+07
2.5876e+07
3.08787e+07
3.58709e+07
4.04362e+07
4.49346e+07
4.89873e+07
5.29077e+07
5.63566e+07
5.95958e+07
6.23294e+07
6.47915e+07
6.67358e+07
6.83774e+07
6.95043e+07
7.03505e+07
7.07242e+07
7.08864e+07
7.06639e+07
7.03224e+07
6.96984e+07
6.90254e+07
6.82042e+07
6.72989e+07
6.52121e+07
-8.20706e+07
-7.35444e+07
-6.54719e+07
-5.75644e+07
-4.98705e+07
-4.25015e+07
-3.51955e+07
-2.82848e+07
-2.13647e+07
-1.48637e+07
-8.31989e+06
-2.19879e+06
3.96746e+06
9.71187e+06
1.54923e+07
2.0843e+07
2.61983e+07
3.11182e+07
3.59861e+07
4.04013e+07
4.46967e+07
4.85042e+07
5.21233e+07
5.52036e+07
5.80463e+07
6.03048e+07
6.23031e+07
6.37156e+07
6.48907e+07
6.55231e+07
6.60032e+07
6.6036e+07
6.60013e+07
6.56141e+07
6.53056e+07
6.46695e+07
6.42611e+07
6.34721e+07
6.30919e+07
6.21092e+07
-8.06877e+07
-7.22864e+07
-6.41938e+07
-5.64148e+07
-4.87289e+07
-4.14661e+07
-3.41888e+07
-2.73645e+07
-2.04765e+07
-1.40455e+07
-7.53499e+06
-1.47814e+06
4.65134e+06
1.03197e+07
1.60329e+07
2.12763e+07
2.65132e+07
3.12579e+07
3.59263e+07
4.00701e+07
4.40587e+07
4.74725e+07
5.06624e+07
5.32331e+07
5.55502e+07
5.72324e+07
5.86853e+07
5.95473e+07
6.02703e+07
6.04898e+07
6.07383e+07
6.05235e+07
6.04044e+07
6.00687e+07
5.98268e+07
5.94194e+07
5.91599e+07
5.86964e+07
5.84432e+07
5.79059e+07
-7.89538e+07
-7.07419e+07
-6.26268e+07
-5.50007e+07
-4.73299e+07
-4.01814e+07
-3.29419e+07
-2.62118e+07
-1.93697e+07
-1.30212e+07
-6.56602e+06
-599158
5.44492e+06
1.09933e+07
1.65733e+07
2.16346e+07
2.66547e+07
3.11201e+07
3.54664e+07
3.92045e+07
4.27394e+07
4.56281e+07
4.82471e+07
5.02275e+07
5.19219e+07
5.30527e+07
5.39409e+07
5.44266e+07
5.47382e+07
5.4814e+07
5.48697e+07
5.47112e+07
5.4737e+07
5.45066e+07
5.45274e+07
5.42987e+07
5.42659e+07
5.40301e+07
5.39091e+07
5.36794e+07
-7.68696e+07
-6.89123e+07
-6.07783e+07
-5.333e+07
-4.56785e+07
-3.86567e+07
-3.14554e+07
-2.48347e+07
-1.80486e+07
-1.18185e+07
-5.45082e+06
367016
6.27217e+06
1.16201e+07
1.69802e+07
2.17485e+07
2.644e+07
3.04954e+07
3.4374e+07
3.75634e+07
4.05104e+07
4.27452e+07
4.47302e+07
4.60608e+07
4.71983e+07
4.78299e+07
4.83766e+07
4.8602e+07
4.88116e+07
4.89285e+07
4.92013e+07
4.91491e+07
4.9303e+07
4.93568e+07
4.95476e+07
4.95026e+07
4.96389e+07
4.95154e+07
4.95975e+07
4.9402e+07
-7.4448e+07
-6.67782e+07
-5.86607e+07
-5.13943e+07
-4.37889e+07
-3.68968e+07
-2.97583e+07
-2.32631e+07
-1.65733e+07
-1.05014e+07
-4.28513e+06
1.3173e+06
6.99242e+06
1.20377e+07
1.70527e+07
2.14037e+07
2.56117e+07
2.91108e+07
3.23625e+07
3.48901e+07
3.71381e+07
3.87071e+07
4.00708e+07
4.08793e+07
4.16393e+07
4.20049e+07
4.24921e+07
4.2685e+07
4.31329e+07
4.33273e+07
4.37634e+07
4.40161e+07
4.43592e+07
4.45854e+07
4.48548e+07
4.49631e+07
4.51796e+07
4.5198e+07
4.53666e+07
4.53239e+07
-7.16993e+07
-6.43267e+07
-5.62691e+07
-4.9201e+07
-4.16694e+07
-3.49385e+07
-2.78896e+07
-2.15695e+07
-1.50213e+07
-9.17852e+06
-3.18979e+06
2.09529e+06
7.42737e+06
1.20302e+07
1.65624e+07
2.032e+07
2.38985e+07
2.66677e+07
2.92103e+07
3.09882e+07
3.25915e+07
3.35841e+07
3.45369e+07
3.50846e+07
3.57442e+07
3.61582e+07
3.67567e+07
3.7189e+07
3.78092e+07
3.82519e+07
3.88971e+07
3.92078e+07
3.9693e+07
3.99749e+07
4.0367e+07
4.05421e+07
4.08861e+07
4.09823e+07
4.12911e+07
4.13309e+07
-6.86559e+07
-6.15336e+07
-5.36027e+07
-4.6735e+07
-3.93437e+07
-3.28121e+07
-2.59337e+07
-1.9849e+07
-1.35427e+07
-8.01265e+06
-2.37766e+06
2.47462e+06
7.30464e+06
1.13219e+07
1.51852e+07
1.82088e+07
2.10049e+07
2.29956e+07
2.48107e+07
2.59669e+07
2.71051e+07
2.78021e+07
2.86495e+07
2.92291e+07
3.00463e+07
3.0655e+07
3.15014e+07
3.21241e+07
3.29444e+07
3.34973e+07
3.41985e+07
3.46206e+07
3.51954e+07
3.55453e+07
3.60126e+07
3.62889e+07
3.66929e+07
3.68994e+07
3.72773e+07
3.74342e+07
-6.53346e+07
-5.84209e+07
-5.06598e+07
-4.40263e+07
-3.68363e+07
-3.0596e+07
-2.39753e+07
-1.82504e+07
-1.22903e+07
-7.21719e+06
-2.06587e+06
2.18581e+06
6.35133e+06
9.59738e+06
1.26511e+07
1.48231e+07
1.68367e+07
1.81304e+07
1.94326e+07
2.02569e+07
2.12769e+07
2.20092e+07
2.30268e+07
2.38234e+07
2.48789e+07
2.5704e+07
2.67134e+07
2.7469e+07
2.83539e+07
2.89589e+07
2.97165e+07
3.01894e+07
3.08354e+07
3.12271e+07
3.17867e+07
3.2127e+07
3.26195e+07
3.28932e+07
3.33618e+07
3.35815e+07
-6.17653e+07
-5.5024e+07
-4.74812e+07
-4.1115e+07
-3.42211e+07
-2.83588e+07
-2.21384e+07
-1.68924e+07
-1.14631e+07
-6.99628e+06
-2.55138e+06
917960
4.20186e+06
6.54504e+06
8.70657e+06
1.01107e+07
1.15195e+07
1.24478e+07
1.36044e+07
1.44875e+07
1.56996e+07
1.66909e+07
1.79727e+07
1.89958e+07
2.02221e+07
2.11553e+07
2.22307e+07
2.3014e+07
2.39229e+07
2.45617e+07
2.53944e+07
2.58831e+07
2.65735e+07
2.70399e+07
2.76539e+07
2.80595e+07
2.86095e+07
2.89465e+07
2.94611e+07
2.97552e+07
-5.79652e+07
-5.14413e+07
-4.41349e+07
-3.81234e+07
-3.15937e+07
-2.62297e+07
-2.05278e+07
-1.59318e+07
-1.12158e+07
-7.60414e+06
-4.08841e+06
-1.64934e+06
630409
2.04894e+06
3.50881e+06
4.4632e+06
5.71577e+06
6.71757e+06
8.11312e+06
9.29857e+06
1.08163e+07
1.20452e+07
1.35005e+07
1.46063e+07
1.58964e+07
1.68164e+07
1.79338e+07
1.86831e+07
1.96556e+07
2.02983e+07
2.11638e+07
2.17608e+07
2.24908e+07
2.30137e+07
2.36579e+07
2.41027e+07
2.46929e+07
2.5065e+07
2.56317e+07
2.5976e+07
-5.39548e+07
-4.78184e+07
-4.08134e+07
-3.52399e+07
-2.91352e+07
-2.43229e+07
-1.92642e+07
-1.54511e+07
-1.17094e+07
-9.19091e+06
-6.90834e+06
-5.60344e+06
-4.31366e+06
-3.52685e+06
-2.35297e+06
-1.35165e+06
176794
1.54489e+06
3.3143e+06
4.80094e+06
6.51989e+06
7.86232e+06
9.35765e+06
1.04913e+07
1.17578e+07
1.2716e+07
1.37871e+07
1.46241e+07
1.55145e+07
1.63167e+07
1.71783e+07
1.77866e+07
1.84542e+07
1.90521e+07
1.97053e+07
2.01869e+07
2.08079e+07
2.12242e+07
2.18294e+07
2.22234e+07
-4.98556e+07
-4.42718e+07
-3.75402e+07
-3.2469e+07
-2.67987e+07
-2.2663e+07
-1.84153e+07
-1.56901e+07
-1.32556e+07
-1.21012e+07
-1.10976e+07
-1.07899e+07
-1.00546e+07
-9.37721e+06
-7.99049e+06
-6.57935e+06
-4.62223e+06
-2.88482e+06
-848349
774424
2.54549e+06
3.89265e+06
5.38867e+06
6.53781e+06
7.83694e+06
8.83422e+06
9.93899e+06
1.08093e+07
1.17833e+07
1.25162e+07
1.33732e+07
1.39498e+07
1.47461e+07
1.52346e+07
1.59861e+07
1.64179e+07
1.71182e+07
1.75145e+07
1.81751e+07
1.85647e+07
-4.58451e+07
-4.07431e+07
-3.43244e+07
-2.98942e+07
-2.49397e+07
-2.18504e+07
-1.89423e+07
-1.75683e+07
-1.66334e+07
-1.65526e+07
-1.62716e+07
-1.60404e+07
-1.50239e+07
-1.39244e+07
-1.21434e+07
-1.05016e+07
-8.45996e+06
-6.7632e+06
-4.81926e+06
-3.30216e+06
-1.5594e+06
-195596
1.37215e+06
2.58893e+06
3.92517e+06
4.91579e+06
6.06364e+06
6.92412e+06
7.93467e+06
8.66368e+06
9.59484e+06
1.01745e+07
1.09834e+07
1.15507e+07
1.22925e+07
1.27845e+07
1.34705e+07
1.39013e+07
1.45512e+07
1.49689e+07
-4.17958e+07
-3.74122e+07
-3.15209e+07
-2.82551e+07
-2.45859e+07
-2.29091e+07
-2.15321e+07
-2.13472e+07
-2.09747e+07
-2.07111e+07
-1.99176e+07
-1.91962e+07
-1.7563e+07
-1.60237e+07
-1.41467e+07
-1.26784e+07
-1.09119e+07
-9.46776e+06
-7.62979e+06
-6.24862e+06
-4.69077e+06
-3.47714e+06
-2.01463e+06
-959018
271880
1.24367e+06
2.37533e+06
3.23962e+06
4.22734e+06
4.94678e+06
5.84313e+06
6.5025e+06
7.32672e+06
7.89494e+06
8.62829e+06
9.11275e+06
9.80665e+06
1.02344e+07
1.09025e+07
1.13359e+07
-3.79155e+07
-3.48072e+07
-3.00836e+07
-2.82184e+07
-2.59429e+07
-2.5611e+07
-2.46509e+07
-2.44815e+07
-2.3885e+07
-2.31342e+07
-2.10389e+07
-1.94688e+07
-1.74455e+07
-1.61107e+07
-1.43795e+07
-1.32541e+07
-1.17244e+07
-1.06999e+07
-9.22907e+06
-8.13865e+06
-6.6798e+06
-5.61295e+06
-4.12933e+06
-3.04565e+06
-1.92922e+06
-1.21553e+06
-207041
428629
1.2878e+06
1.9208e+06
2.76249e+06
3.3215e+06
4.0405e+06
4.52132e+06
5.19856e+06
5.66839e+06
6.32805e+06
6.76801e+06
7.40453e+06
7.86514e+06
-3.48289e+07
-3.36946e+07
-2.96843e+07
-2.94547e+07
-2.74364e+07
-2.74182e+07
-2.68383e+07
-2.62446e+07
-2.39523e+07
-2.24762e+07
-2.04047e+07
-1.92039e+07
-1.74059e+07
-1.62326e+07
-1.4577e+07
-1.34672e+07
-1.19527e+07
-1.09381e+07
-9.57347e+06
-8.70588e+06
-7.55753e+06
-6.79197e+06
-5.69195e+06
-4.8235e+06
-3.66361e+06
-2.86738e+06
-1.79827e+06
-1.04206e+06
-298271
139677
764747
1.11622e+06
1.67987e+06
2.09113e+06
2.67568e+06
3.08483e+06
3.61503e+06
3.98384e+06
4.48778e+06
4.90961e+06
-3.32159e+07
-3.33152e+07
-2.97001e+07
-2.9779e+07
-2.85657e+07
-2.85182e+07
-2.61738e+07
-2.48711e+07
-2.29067e+07
-2.18212e+07
-1.999e+07
-1.89015e+07
-1.72044e+07
-1.61746e+07
-1.46264e+07
-1.36688e+07
-1.22544e+07
-1.13568e+07
-1.00541e+07
-9.20352e+06
-8.01214e+06
-7.23022e+06
-6.17567e+06
-5.49166e+06
-4.6368e+06
-4.0509e+06
-3.22537e+06
-2.54822e+06
-1.66353e+06
-1.13277e+06
-390754
17813.9
485376
763971
1.15254e+06
1.37209e+06
1.71228e+06
1.99187e+06
2.35168e+06
2.74768e+06
-3.25441e+07
-3.21131e+07
-2.91147e+07
-2.99867e+07
-2.78616e+07
-2.6675e+07
-2.48395e+07
-2.38516e+07
-2.2076e+07
-2.10641e+07
-1.93966e+07
-1.84255e+07
-1.6883e+07
-1.59501e+07
-1.4524e+07
-1.36386e+07
-1.23264e+07
-1.14991e+07
-1.02999e+07
-9.53715e+06
-8.44759e+06
-7.74229e+06
-6.74019e+06
-6.08241e+06
-5.15946e+06
-4.58128e+06
-3.83864e+06
-3.2961e+06
-2.65044e+06
-2.24619e+06
-1.60362e+06
-1.09118e+06
-501107
-137105
289637
556723
804123
1.03484e+06
1.24197e+06
1.57797e+06
-3.08437e+07
-3.04795e+07
-2.83289e+07
-2.79885e+07
-2.58117e+07
-2.53375e+07
-2.345e+07
-2.27368e+07
-2.10533e+07
-2.02689e+07
-1.87206e+07
-1.79112e+07
-1.64753e+07
-1.5674e+07
-1.43432e+07
-1.3568e+07
-1.23372e+07
-1.15966e+07
-1.04619e+07
-9.7619e+06
-8.72289e+06
-8.07185e+06
-7.12971e+06
-6.53494e+06
-5.68631e+06
-5.15045e+06
-4.37352e+06
-3.84874e+06
-3.18453e+06
-2.74096e+06
-2.17572e+06
-1.82197e+06
-1.37968e+06
-1.06686e+06
-639741
-253350
98121
386057
603262
941522
-2.86476e+07
-2.77874e+07
-2.62896e+07
-2.58099e+07
-2.43378e+07
-2.36696e+07
-2.22486e+07
-2.1522e+07
-2.01389e+07
-1.93841e+07
-1.8052e+07
-1.72954e+07
-1.60273e+07
-1.52835e+07
-1.4087e+07
-1.33668e+07
-1.22469e+07
-1.15579e+07
-1.05174e+07
-9.86461e+06
-8.90422e+06
-8.28938e+06
-7.40857e+06
-6.83269e+06
-6.03443e+06
-5.49955e+06
-4.79296e+06
-4.29402e+06
-3.65878e+06
-3.21016e+06
-2.64169e+06
-2.22876e+06
-1.73884e+06
-1.38085e+06
-987843
-686950
-399642
-123847
109659
457695
-2.59256e+07
-2.50131e+07
-2.44355e+07
-2.37882e+07
-2.27586e+07
-2.21732e+07
-2.09897e+07
-2.03819e+07
-1.91664e+07
-1.85331e+07
-1.7335e+07
-1.6687e+07
-1.553e+07
-1.48807e+07
-1.3778e+07
-1.31383e+07
-1.20974e+07
-1.14757e+07
-1.05009e+07
-9.90357e+06
-8.99748e+06
-8.42936e+06
-7.59335e+06
-7.0574e+06
-6.29131e+06
-5.78799e+06
-5.09092e+06
-4.618e+06
-3.99279e+06
-3.55422e+06
-2.9999e+06
-2.59224e+06
-2.10679e+06
-1.71813e+06
-1.2947e+06
-912040
-557921
-184458
90425.6
537484
-2.35477e+07
-2.31918e+07
-2.25914e+07
-2.21797e+07
-2.13188e+07
-2.08286e+07
-1.98503e+07
-1.93032e+07
-1.82759e+07
-1.76932e+07
-1.6657e+07
-1.60567e+07
-1.5037e+07
-1.44328e+07
-1.34458e+07
-1.2848e+07
-1.19044e+07
-1.13206e+07
-1.04272e+07
-9.86272e+06
-9.02375e+06
-8.48197e+06
-7.69982e+06
-7.18291e+06
-6.45914e+06
-5.9681e+06
-5.30317e+06
-4.83766e+06
-4.22919e+06
-3.7888e+06
-3.23555e+06
-2.81681e+06
-2.31905e+06
-1.9178e+06
-1.475e+06
-1.08166e+06
-689465
-287300
64049.8
572868
-2.18713e+07
-2.15018e+07
-2.11346e+07
-2.06991e+07
-2.00684e+07
-1.95985e+07
-1.88064e+07
-1.83068e+07
-1.74295e+07
-1.69064e+07
-1.59935e+07
-1.5455e+07
-1.45383e+07
-1.3993e+07
-1.3093e+07
-1.25487e+07
-1.16786e+07
-1.11419e+07
-1.03102e+07
-9.78613e+06
-8.99814e+06
-8.49058e+06
-7.74945e+06
-7.26069e+06
-6.56797e+06
-6.09895e+06
-5.45518e+06
-5.0055e+06
-4.4107e+06
-3.979e+06
-3.43227e+06
-3.01509e+06
-2.51476e+06
-2.10657e+06
-1.65051e+06
-1.24473e+06
-831088
-420977
-46350.4
462153
-2.03969e+07
-2.01718e+07
-1.98128e+07
-1.94997e+07
-1.89368e+07
-1.85542e+07
-1.78619e+07
-1.74267e+07
-1.66588e+07
-1.61868e+07
-1.53809e+07
-1.48856e+07
-1.40677e+07
-1.35602e+07
-1.27485e+07
-1.22376e+07
-1.14446e+07
-1.09373e+07
-1.01715e+07
-9.67282e+06
-8.93965e+06
-8.45321e+06
-7.75618e+06
-7.28419e+06
-6.62519e+06
-6.16861e+06
-5.54836e+06
-5.10688e+06
-4.52509e+06
-4.09713e+06
-3.55313e+06
-3.13553e+06
-2.62837e+06
-2.21632e+06
-1.74463e+06
-1.33134e+06
-893100
-470114
-63041.7
469122
-1.92709e+07
-1.90445e+07
-1.87651e+07
-1.84505e+07
-1.79974e+07
-1.76245e+07
-1.7045e+07
-1.66313e+07
-1.59686e+07
-1.55261e+07
-1.48145e+07
-1.43527e+07
-1.36181e+07
-1.31451e+07
-1.24061e+07
-1.19286e+07
-1.11983e+07
-1.0722e+07
-1.00097e+07
-9.53891e+06
-8.85063e+06
-8.38866e+06
-7.72829e+06
-7.27724e+06
-6.64703e+06
-6.20783e+06
-5.60885e+06
-5.18127e+06
-4.61373e+06
-4.19632e+06
-3.65982e+06
-3.24982e+06
-2.7435e+06
-2.3368e+06
-1.85954e+06
-1.45087e+06
-1.00135e+06
-584280
-160890
366601
-1.83113e+07
-1.81215e+07
-1.78519e+07
-1.75867e+07
-1.71702e+07
-1.68454e+07
-1.63218e+07
-1.59509e+07
-1.53544e+07
-1.49494e+07
-1.43076e+07
-1.38788e+07
-1.32127e+07
-1.27688e+07
-1.20941e+07
-1.16425e+07
-1.09706e+07
-1.05172e+07
-9.85612e+06
-9.40543e+06
-8.76088e+06
-8.31625e+06
-7.69182e+06
-7.25547e+06
-6.65333e+06
-6.22635e+06
-5.64763e+06
-5.22997e+06
-4.67509e+06
-4.26555e+06
-3.73453e+06
-3.3307e+06
-2.82338e+06
-2.42165e+06
-1.93791e+06
-1.53348e+06
-1.0734e+06
-660523
-224636
298105
-1.75703e+07
-1.73708e+07
-1.71287e+07
-1.68588e+07
-1.64943e+07
-1.61713e+07
-1.57114e+07
-1.53489e+07
-1.48195e+07
-1.44281e+07
-1.38517e+07
-1.34402e+07
-1.28353e+07
-1.24108e+07
-1.17917e+07
-1.13603e+07
-1.07379e+07
-1.03043e+07
-9.68654e+06
-9.25485e+06
-8.64724e+06
-8.22039e+06
-7.6267e+06
-7.20673e+06
-6.62932e+06
-6.21728e+06
-5.65753e+06
-5.25346e+06
-4.71208e+06
-4.31498e+06
-3.79233e+06
-3.40006e+06
-2.8964e+06
-2.50571e+06
-2.02139e+06
-1.62791e+06
-1.16367e+06
-761884
-319025
193027
-1.69494e+07
-1.67525e+07
-1.65132e+07
-1.6259e+07
-1.59145e+07
-1.56131e+07
-1.51862e+07
-1.48472e+07
-1.43593e+07
-1.39912e+07
-1.34609e+07
-1.30715e+07
-1.25141e+07
-1.21102e+07
-1.15375e+07
-1.1125e+07
-1.05463e+07
-1.01299e+07
-9.55199e+06
-9.13584e+06
-8.56338e+06
-8.15052e+06
-7.58679e+06
-7.17942e+06
-6.62645e+06
-6.22587e+06
-5.68491e+06
-5.29147e+06
-4.76325e+06
-4.37631e+06
-3.86138e+06
-3.47923e+06
-2.97827e+06
-2.59811e+06
-2.11213e+06
-1.73005e+06
-1.26072e+06
-871723
-421524
71952.2
-1.6484e+07
-1.627e+07
-1.60351e+07
-1.57704e+07
-1.54484e+07
-1.51423e+07
-1.47494e+07
-1.44107e+07
-1.3963e+07
-1.35995e+07
-1.31117e+07
-1.27301e+07
-1.22148e+07
-1.18209e+07
-1.12883e+07
-1.08873e+07
-1.03454e+07
-9.9415e+06
-9.39639e+06
-8.99319e+06
-8.44932e+06
-8.04958e+06
-7.51005e+06
-7.11585e+06
-6.58273e+06
-6.19533e+06
-5.67e+06
-5.28984e+06
-4.77329e+06
-4.39986e+06
-3.89302e+06
-3.5248e+06
-3.02876e+06
-2.66316e+06
-2.17949e+06
-1.81278e+06
-1.34372e+06
-971006
-519681
-48071.3
-1.60955e+07
-1.58731e+07
-1.5635e+07
-1.53717e+07
-1.5059e+07
-1.47605e+07
-1.43868e+07
-1.40594e+07
-1.3638e+07
-1.32875e+07
-1.28306e+07
-1.24626e+07
-1.19806e+07
-1.16003e+07
-1.11017e+07
-1.07137e+07
-1.02053e+07
-9.81363e+06
-9.30039e+06
-8.90853e+06
-8.39412e+06
-8.00495e+06
-7.49182e+06
-7.10763e+06
-6.59732e+06
-6.2197e+06
-5.71316e+06
-5.34296e+06
-4.84082e+06
-4.478e+06
-3.98091e+06
-3.62445e+06
-3.13338e+06
-2.78109e+06
-2.2977e+06
-1.94615e+06
-1.47302e+06
-1.11745e+06
-658369
-214156
-1.58267e+07
-1.55836e+07
-1.53384e+07
-1.50606e+07
-1.47545e+07
-1.44468e+07
-1.40895e+07
-1.37572e+07
-1.33586e+07
-1.30068e+07
-1.25763e+07
-1.221e+07
-1.17558e+07
-1.13795e+07
-1.09084e+07
-1.05262e+07
-1.00438e+07
-9.6594e+06
-9.16999e+06
-8.78651e+06
-8.29319e+06
-7.91337e+06
-7.4183e+06
-7.0443e+06
-6.54898e+06
-6.18239e+06
-5.68784e+06
-5.32954e+06
-4.83666e+06
-4.48673e+06
-3.99658e+06
-3.65417e+06
-3.16825e+06
-2.83139e+06
-2.35195e+06
-2.01746e+06
-1.54768e+06
-1.2111e+06
-755209
-344208
-1.55987e+07
-1.53448e+07
-1.50931e+07
-1.48114e+07
-1.45083e+07
-1.42018e+07
-1.38551e+07
-1.35274e+07
-1.31454e+07
-1.28005e+07
-1.23909e+07
-1.20326e+07
-1.16023e+07
-1.12344e+07
-1.07892e+07
-1.04153e+07
-9.9597e+06
-9.58317e+06
-9.12076e+06
-8.74461e+06
-8.27782e+06
-7.90481e+06
-7.43516e+06
-7.06775e+06
-6.59602e+06
-6.23628e+06
-5.76275e+06
-5.41219e+06
-4.93694e+06
-4.5964e+06
-4.11955e+06
-3.78893e+06
-3.31107e+06
-2.98902e+06
-2.51158e+06
-2.19519e+06
-1.72094e+06
-1.40534e+06
-938816
-562777
-1.54682e+07
-1.51929e+07
-1.49285e+07
-1.46306e+07
-1.43255e+07
-1.40071e+07
-1.36667e+07
-1.33308e+07
-1.2961e+07
-1.26108e+07
-1.22173e+07
-1.18563e+07
-1.14441e+07
-1.10758e+07
-1.06493e+07
-1.02767e+07
-9.83953e+06
-9.4659e+06
-9.02061e+06
-8.64878e+06
-8.19729e+06
-7.82986e+06
-7.37336e+06
-7.01264e+06
-6.5518e+06
-6.19971e+06
-5.73491e+06
-5.39287e+06
-4.92447e+06
-4.59326e+06
-4.12193e+06
-3.80147e+06
-3.3286e+06
-3.0177e+06
-2.54581e+06
-2.24196e+06
-1.77506e+06
-1.47418e+06
-1.01799e+06
-680652
-1.53504e+07
-1.50656e+07
-1.47935e+07
-1.44908e+07
-1.4185e+07
-1.38656e+07
-1.35305e+07
-1.31963e+07
-1.28368e+07
-1.24902e+07
-1.2111e+07
-1.17546e+07
-1.136e+07
-1.09967e+07
-1.05904e+07
-1.02228e+07
-9.80793e+06
-9.43869e+06
-9.01767e+06
-8.64928e+06
-8.22358e+06
-7.85866e+06
-7.42889e+06
-7.07013e+06
-6.63626e+06
-6.28628e+06
-5.84778e+06
-5.50906e+06
-5.06505e+06
-4.73974e+06
-4.2893e+06
-3.979e+06
-3.52139e+06
-3.22673e+06
-2.76186e+06
-2.48175e+06
-2.01087e+06
-1.74099e+06
-1.26804e+06
-977063
-1.53148e+07
-1.50095e+07
-1.47228e+07
-1.44036e+07
-1.40919e+07
-1.37593e+07
-1.34253e+07
-1.30807e+07
-1.27276e+07
-1.23731e+07
-1.2004e+07
-1.16417e+07
-1.12597e+07
-1.08922e+07
-1.04996e+07
-1.01295e+07
-9.72849e+06
-9.35805e+06
-8.95023e+06
-8.58214e+06
-8.16824e+06
-7.80499e+06
-7.38531e+06
-7.02925e+06
-6.60362e+06
-6.25694e+06
-5.82487e+06
-5.48948e+06
-5.05037e+06
-4.72776e+06
-4.28121e+06
-3.97215e+06
-3.51845e+06
-3.2227e+06
-2.76354e+06
-2.47959e+06
-2.01911e+06
-1.7441e+06
-1.29059e+06
-1.03213e+06
-1.52718e+07
-1.49598e+07
-1.46654e+07
-1.43426e+07
-1.40282e+07
-1.36947e+07
-1.33626e+07
-1.30191e+07
-1.26719e+07
-1.23196e+07
-1.19601e+07
-1.16008e+07
-1.12315e+07
-1.08671e+07
-1.04902e+07
-1.01229e+07
-9.74018e+06
-9.3722e+06
-8.98645e+06
-8.61843e+06
-8.23041e+06
-7.86477e+06
-7.4743e+06
-7.11394e+06
-6.72029e+06
-6.36829e+06
-5.97027e+06
-5.62988e+06
-5.22594e+06
-4.90067e+06
-4.4889e+06
-4.18278e+06
-3.76081e+06
-3.47894e+06
-3.04354e+06
-2.79338e+06
-2.33925e+06
-2.13345e+06
-1.65032e+06
-1.52182e+06
-1.52991e+07
-1.49683e+07
-1.46597e+07
-1.4321e+07
-1.39997e+07
-1.36526e+07
-1.33196e+07
-1.29644e+07
-1.26213e+07
-1.22591e+07
-1.19073e+07
-1.15396e+07
-1.11805e+07
-1.08091e+07
-1.04441e+07
-1.00707e+07
-9.70087e+06
-9.32677e+06
-8.95359e+06
-8.58176e+06
-8.20471e+06
-7.83735e+06
-7.45613e+06
-7.0954e+06
-6.70934e+06
-6.35749e+06
-5.9654e+06
-5.62472e+06
-5.22495e+06
-4.89751e+06
-4.48802e+06
-4.17527e+06
-3.75372e+06
-3.45567e+06
-3.01954e+06
-2.73328e+06
-2.27985e+06
-1.99663e+06
-1.52291e+06
-1.31152e+06
-1.53065e+07
-1.49721e+07
-1.46564e+07
-1.43162e+07
-1.39911e+07
-1.36445e+07
-1.33108e+07
-1.29577e+07
-1.26169e+07
-1.22569e+07
-1.19112e+07
-1.15453e+07
-1.11956e+07
-1.08257e+07
-1.04717e+07
-1.01008e+07
-9.73915e+06
-9.37289e+06
-9.01814e+06
-8.64437e+06
-8.29262e+06
-7.91764e+06
-7.56705e+06
-7.19465e+06
-6.84391e+06
-6.47706e+06
-6.12485e+06
-5.76624e+06
-5.41119e+06
-5.06323e+06
-4.70425e+06
-4.36866e+06
-4.00568e+06
-3.68247e+06
-3.31791e+06
-3.00331e+06
-2.64512e+06
-2.32742e+06
-1.99489e+06
-1.55272e+06
-1.5373e+07
-1.50223e+07
-1.46939e+07
-1.43391e+07
-1.40074e+07
-1.36475e+07
-1.33129e+07
-1.29474e+07
-1.26108e+07
-1.22396e+07
-1.1901e+07
-1.15256e+07
-1.11853e+07
-1.08074e+07
-1.04656e+07
-1.00879e+07
-9.74349e+06
-9.35782e+06
-9.02044e+06
-8.63855e+06
-8.29895e+06
-7.92068e+06
-7.58013e+06
-7.20688e+06
-6.8651e+06
-6.49914e+06
-6.15497e+06
-5.79929e+06
-5.45088e+06
-5.10927e+06
-4.75422e+06
-4.43162e+06
-4.06707e+06
-3.77018e+06
-3.39299e+06
-3.13165e+06
-2.73862e+06
-2.52847e+06
-2.1168e+06
-1.82246e+06
-1.54144e+07
-1.50622e+07
-1.47283e+07
-1.43733e+07
-1.40381e+07
-1.36807e+07
-1.33432e+07
-1.2983e+07
-1.26439e+07
-1.2276e+07
-1.19414e+07
-1.15657e+07
-1.12372e+07
-1.08541e+07
-1.05344e+07
-1.01427e+07
-9.7565e+06
-9.43073e+06
-9.11793e+06
-8.71981e+06
-8.40718e+06
-8.01308e+06
-7.70255e+06
-7.3115e+06
-7.00291e+06
-6.61605e+06
-6.30796e+06
-5.92769e+06
-5.6174e+06
-5.24723e+06
-4.93064e+06
-4.57537e+06
-4.24633e+06
-3.91268e+06
-3.5619e+06
-3.2597e+06
-2.87249e+06
-2.61734e+06
-2.16913e+06
-1.74371e+06
-1.55031e+07
-1.51383e+07
-1.47922e+07
-1.44256e+07
-1.40832e+07
-1.3714e+07
-1.33753e+07
-1.30023e+07
-1.26716e+07
-1.22902e+07
-1.19629e+07
-1.15777e+07
-1.12537e+07
-1.08651e+07
-1.05458e+07
-1.01528e+07
-9.84045e+06
-9.45144e+06
-9.13767e+06
-8.74564e+06
-8.43867e+06
-8.04626e+06
-7.74449e+06
-7.35377e+06
-7.05586e+06
-6.66916e+06
-6.37339e+06
-5.99366e+06
-5.6975e+06
-5.32864e+06
-5.02844e+06
-4.67553e+06
-4.36613e+06
-4.0357e+06
-3.70992e+06
-3.4101e+06
-3.05792e+06
-2.79827e+06
-2.40552e+06
-1.91181e+06
-1.55693e+07
-1.52002e+07
-1.48539e+07
-1.44839e+07
-1.41425e+07
-1.37757e+07
-1.34339e+07
-1.30822e+07
-1.27279e+07
-1.23538e+07
-1.20243e+07
-1.164e+07
-1.13222e+07
-1.09326e+07
-1.06209e+07
-1.02295e+07
-9.91854e+06
-9.53035e+06
-9.23404e+06
-8.83543e+06
-8.5496e+06
-8.14586e+06
-7.86849e+06
-7.46263e+06
-7.19196e+06
-6.78665e+06
-6.52037e+06
-6.11888e+06
-5.85355e+06
-5.4603e+06
-5.19096e+06
-4.812e+06
-4.53165e+06
-4.17529e+06
-3.87436e+06
-3.55176e+06
-3.2177e+06
-2.94348e+06
-2.5606e+06
-2.00411e+06
-1.56666e+07
-1.52927e+07
-1.49315e+07
-1.45571e+07
-1.42029e+07
-1.38292e+07
-1.34744e+07
-1.31078e+07
-1.27943e+07
-1.23922e+07
-1.20763e+07
-1.16806e+07
-1.13697e+07
-1.09737e+07
-1.06705e+07
-1.02718e+07
-9.97769e+06
-9.57607e+06
-9.29102e+06
-8.88623e+06
-8.61069e+06
-8.20345e+06
-7.93705e+06
-7.52865e+06
-7.27036e+06
-6.86269e+06
-6.61071e+06
-6.2065e+06
-5.95795e+06
-5.56105e+06
-5.31161e+06
-4.92734e+06
-4.67083e+06
-4.30635e+06
-4.03418e+06
-3.69899e+06
-3.39964e+06
-3.10606e+06
-2.76444e+06
-2.15804e+06
-1.57539e+07
-1.53643e+07
-1.50131e+07
-1.46178e+07
-1.42845e+07
-1.38721e+07
-1.35644e+07
-1.33174e+07
-1.28538e+07
-1.24368e+07
-1.21506e+07
-1.17442e+07
-1.14527e+07
-1.10487e+07
-1.07606e+07
-1.03558e+07
-1.00751e+07
-9.66777e+06
-9.39788e+06
-8.98584e+06
-8.7275e+06
-8.31091e+06
-8.06382e+06
-7.6438e+06
-7.40683e+06
-6.98535e+06
-6.75641e+06
-6.33647e+06
-6.11223e+06
-5.69817e+06
-5.47376e+06
-5.07165e+06
-4.84025e+06
-4.45829e+06
-4.2108e+06
-3.85974e+06
-3.58442e+06
-3.27785e+06
-2.96009e+06
-2.30776e+06
-1.58472e+07
-1.54671e+07
-1.51001e+07
-1.47168e+07
-1.43676e+07
-1.39778e+07
-1.36517e+07
-1.32481e+07
-1.29057e+07
-1.25287e+07
-1.22083e+07
-1.1818e+07
-1.15134e+07
-1.11153e+07
-1.08248e+07
-1.04207e+07
-1.01437e+07
-9.7343e+06
-9.47064e+06
-9.05625e+06
-8.80579e+06
-8.38702e+06
-8.14927e+06
-7.72711e+06
-7.50106e+06
-7.07714e+06
-6.86093e+06
-6.4378e+06
-6.22844e+06
-5.80991e+06
-5.60292e+06
-5.19443e+06
-4.98338e+06
-4.59243e+06
-4.36857e+06
-4.00517e+06
-3.75697e+06
-3.43408e+06
-3.14688e+06
-2.46345e+06
-1.59368e+07
-1.55552e+07
-1.51853e+07
-1.48028e+07
-1.44475e+07
-1.40686e+07
-1.37219e+07
-1.33592e+07
-1.30074e+07
-1.26222e+07
-1.2304e+07
-1.19081e+07
-1.16103e+07
-1.12075e+07
-1.09257e+07
-1.05172e+07
-1.02502e+07
-9.83631e+06
-9.58394e+06
-9.16445e+06
-8.9267e+06
-8.50184e+06
-8.27824e+06
-7.84886e+06
-7.63834e+06
-7.20607e+06
-7.00666e+06
-6.5742e+06
-6.38273e+06
-5.95415e+06
-5.76595e+06
-5.34701e+06
-5.15552e+06
-4.75404e+06
-4.55052e+06
-4.17668e+06
-3.94988e+06
-3.61653e+06
-3.35238e+06
-2.64455e+06
-1.60374e+07
-1.56553e+07
-1.52776e+07
-1.48926e+07
-1.45341e+07
-1.41451e+07
-1.38042e+07
-1.3411e+07
-1.3084e+07
-1.26896e+07
-1.23789e+07
-1.198e+07
-1.16854e+07
-1.12813e+07
-1.10027e+07
-1.05931e+07
-1.03303e+07
-9.91518e+06
-9.66812e+06
-9.24754e+06
-9.01608e+06
-8.59028e+06
-8.37397e+06
-7.94366e+06
-7.74151e+06
-7.30808e+06
-7.11829e+06
-6.68409e+06
-6.50376e+06
-6.07239e+06
-5.89716e+06
-5.47389e+06
-5.29755e+06
-4.88971e+06
-4.70382e+06
-4.32121e+06
-4.11468e+06
-3.76996e+06
-3.52875e+06
-2.80564e+06
-1.61284e+07
-1.57503e+07
-1.53676e+07
-1.49874e+07
-1.46234e+07
-1.4242e+07
-1.38941e+07
-1.35113e+07
-1.31786e+07
-1.27891e+07
-1.24762e+07
-1.20796e+07
-1.1786e+07
-1.13827e+07
-1.11075e+07
-1.06979e+07
-1.04402e+07
-1.00243e+07
-9.7839e+06
-9.36191e+06
-9.13835e+06
-8.7105e+06
-8.50324e+06
-8.07027e+06
-7.87822e+06
-7.44159e+06
-7.26284e+06
-6.82501e+06
-6.65653e+06
-6.22128e+06
-6.05859e+06
-5.63131e+06
-5.46819e+06
-5.05622e+06
-4.88433e+06
-4.49724e+06
-4.30591e+06
-3.95573e+06
-3.73174e+06
-3.00472e+06
-1.62283e+07
-1.58469e+07
-1.54612e+07
-1.50764e+07
-1.47125e+07
-1.43237e+07
-1.39802e+07
-1.35871e+07
-1.32627e+07
-1.28654e+07
-1.25596e+07
-1.21577e+07
-1.18698e+07
-1.14631e+07
-1.11929e+07
-1.0781e+07
-1.05282e+07
-1.0111e+07
-9.87548e+06
-9.45297e+06
-9.23441e+06
-8.80669e+06
-8.60465e+06
-8.17228e+06
-7.98576e+06
-7.54996e+06
-7.37726e+06
-6.94009e+06
-6.77849e+06
-6.34318e+06
-6.18868e+06
-5.75992e+06
-5.60694e+06
-5.19129e+06
-5.03223e+06
-4.63884e+06
-4.46337e+06
-4.10548e+06
-3.89904e+06
-3.16883e+06
-1.63206e+07
-1.59444e+07
-1.55535e+07
-1.51739e+07
-1.48052e+07
-1.44222e+07
-1.4074e+07
-1.3687e+07
-1.33587e+07
-1.29666e+07
-1.26581e+07
-1.22606e+07
-1.19716e+07
-1.15684e+07
-1.12986e+07
-1.08896e+07
-1.06385e+07
-1.02237e+07
-9.99098e+06
-9.57032e+06
-9.35564e+06
-8.92934e+06
-8.73209e+06
-8.3008e+06
-8.1199e+06
-7.6849e+06
-7.51853e+06
-7.08206e+06
-6.92735e+06
-6.49285e+06
-6.34562e+06
-5.91807e+06
-5.77243e+06
-5.35866e+06
-5.2068e+06
-4.81573e+06
-4.64777e+06
-4.2904e+06
-4.09397e+06
-3.3764e+06
-1.64154e+07
-1.60373e+07
-1.56451e+07
-1.52623e+07
-1.48945e+07
-1.45069e+07
-1.41618e+07
-1.37694e+07
-1.34457e+07
-1.30487e+07
-1.27453e+07
-1.23436e+07
-1.20597e+07
-1.16535e+07
-1.13884e+07
-1.09774e+07
-1.07307e+07
-1.03151e+07
-1.00864e+07
-9.66596e+06
-9.45487e+06
-9.02995e+06
-8.83581e+06
-8.40698e+06
-8.22869e+06
-7.79714e+06
-7.63294e+06
-7.20063e+06
-7.04788e+06
-6.61763e+06
-6.47271e+06
-6.04808e+06
-5.90655e+06
-5.49115e+06
-5.34849e+06
-4.94413e+06
-4.79768e+06
-4.43478e+06
-4.25246e+06
-3.54161e+06
-1.65075e+07
-1.61348e+07
-1.57373e+07
-1.53599e+07
-1.49873e+07
-1.46052e+07
-1.42557e+07
-1.38689e+07
-1.35414e+07
-1.31499e+07
-1.28434e+07
-1.2447e+07
-1.21607e+07
-1.17595e+07
-1.14929e+07
-1.10867e+07
-1.08393e+07
-1.04281e+07
-1.01995e+07
-9.78327e+06
-9.57302e+06
-9.15199e+06
-8.95944e+06
-8.53416e+06
-8.35823e+06
-7.92984e+06
-7.76882e+06
-7.33929e+06
-7.19049e+06
-6.76294e+06
-6.62239e+06
-6.20139e+06
-6.06343e+06
-5.65546e+06
-5.51212e+06
-5.12631e+06
-4.97432e+06
-4.61502e+06
-4.43654e+06
-3.7453e+06
-1.65965e+07
-1.62233e+07
-1.58254e+07
-1.54462e+07
-1.50747e+07
-1.46898e+07
-1.43429e+07
-1.39527e+07
-1.36288e+07
-1.32338e+07
-1.29315e+07
-1.2532e+07
-1.22501e+07
-1.18464e+07
-1.1584e+07
-1.11764e+07
-1.09327e+07
-1.05212e+07
-1.02958e+07
-9.88046e+06
-9.67263e+06
-9.25397e+06
-9.06287e+06
-8.64166e+06
-8.46595e+06
-8.04374e+06
-7.88125e+06
-7.46077e+06
-7.30805e+06
-6.89386e+06
-6.74551e+06
-6.34501e+06
-6.19264e+06
-5.81792e+06
-5.6482e+06
-5.177e+06
-5.11305e+06
-4.78837e+06
-4.58693e+06
-3.93058e+06
-1.66868e+07
-1.63193e+07
-1.59158e+07
-1.55422e+07
-1.51656e+07
-1.47864e+07
-1.44349e+07
-1.40505e+07
-1.37224e+07
-1.33333e+07
-1.30272e+07
-1.26337e+07
-1.23484e+07
-1.19508e+07
-1.16855e+07
-1.12839e+07
-1.10378e+07
-1.06322e+07
-1.04048e+07
-9.99538e+06
-9.78612e+06
-9.37304e+06
-9.18118e+06
-8.76499e+06
-8.58947e+06
-8.1712e+06
-8.01041e+06
-7.5918e+06
-7.44337e+06
-7.02705e+06
-6.88773e+06
-6.47735e+06
-6.34291e+06
-5.94316e+06
-5.80868e+06
-5.42488e+06
-5.27432e+06
-4.92407e+06
-4.75585e+06
-4.09916e+06
-1.67701e+07
-1.6403e+07
-1.59995e+07
-1.56251e+07
-1.52498e+07
-1.48689e+07
-1.45197e+07
-1.41331e+07
-1.38081e+07
-1.34165e+07
-1.3114e+07
-1.27182e+07
-1.24368e+07
-1.20372e+07
-1.17756e+07
-1.13728e+07
-1.11301e+07
-1.07242e+07
-1.04996e+07
-1.0091e+07
-9.88377e+06
-9.47283e+06
-9.28206e+06
-8.86931e+06
-8.69393e+06
-8.28036e+06
-8.11876e+06
-7.70592e+06
-7.55586e+06
-7.14591e+06
-7.00443e+06
-6.59996e+06
-6.46365e+06
-6.06697e+06
-5.93262e+06
-5.54394e+06
-5.41052e+06
-5.05798e+06
-4.89605e+06
-4.26531e+06
-1.68572e+07
-1.6496e+07
-1.60866e+07
-1.5718e+07
-1.53374e+07