/*--------------------------------*- C++ -*----------------------------------*\
| =========                 |                                                 |
| \\      /  F ield         | OpenFOAM: The Open Source CFD Toolbox           |
|  \\    /   O peration     | Version:  v2012                                 |
|   \\  /    A nd           | Website:  www.openfoam.com                      |
|    \\/     M anipulation  |                                                 |
\*---------------------------------------------------------------------------*/
FoamFile
{
    version     2.0;
    format      ascii;
    class       volScalarField;
    location    "13";
    object      sigmaEq;
}
// * * * * * * * * * * * * * * * * * * * * * * * * * * * * * * * * * * * * * //

dimensions      [1 -1 -2 0 0 0 0];


internalField   nonuniform List<scalar> 
500
(
1.48198e+08
1.43467e+08
1.76484e+08
1.52277e+08
1.78939e+08
1.56932e+08
1.75947e+08
1.60797e+08
1.80772e+08
1.59121e+08
1.39377e+08
1.55059e+08
1.65242e+08
1.59288e+08
1.77786e+08
1.59909e+08
1.81564e+08
1.61567e+08
1.83618e+08
1.68195e+08
1.54835e+08
1.57728e+08
1.70345e+08
1.45648e+08
1.68095e+08
1.52141e+08
1.73166e+08
1.62683e+08
1.76161e+08
1.70969e+08
1.26211e+08
1.18211e+08
1.26377e+08
1.26633e+08
1.40246e+08
1.38184e+08
1.56236e+08
1.47714e+08
1.7153e+08
1.54559e+08
8.63283e+07
7.33117e+07
1.05547e+08
1.09476e+08
1.3127e+08
1.35698e+08
1.50927e+08
1.56847e+08
1.74697e+08
1.77039e+08
2.31904e+07
5.31673e+07
8.05015e+07
8.89998e+07
1.15048e+08
1.20582e+08
1.37278e+08
1.60566e+08
1.57805e+08
1.47695e+08
4.38979e+07
7.0202e+07
5.93836e+07
8.29942e+07
8.77159e+07
1.03642e+08
1.09255e+08
1.18446e+08
1.18267e+08
1.00172e+08
8.40907e+07
8.73031e+07
6.07705e+07
8.14839e+07
6.55804e+07
8.77254e+07
7.52417e+07
9.15894e+07
7.72914e+07
6.43601e+07
1.04369e+08
9.5553e+07
7.13963e+07
8.13303e+07
5.86188e+07
7.80627e+07
5.55434e+07
7.52673e+07
4.86418e+07
4.37004e+07
1.07822e+08
9.85323e+07
8.0279e+07
8.23499e+07
6.41774e+07
7.28237e+07
5.10839e+07
5.9202e+07
2.85466e+07
2.65884e+07
2.6538e+07
2.65756e+07
3.73012e+07
4.35673e+07
6.70142e+07
6.851e+07
1.09147e+08
8.81269e+07
1.45684e+08
1.33638e+08
1.81583e+07
1.72033e+07
2.86453e+07
3.61892e+07
5.3707e+07
6.02784e+07
8.69834e+07
8.88391e+07
1.18846e+08
1.14019e+08
8.43132e+06
2.04906e+07
2.61117e+07
4.233e+07
4.93291e+07
6.91495e+07
7.42865e+07
9.60245e+07
9.82268e+07
1.11496e+08
2.16554e+07
3.22846e+07
3.43679e+07
5.32839e+07
5.4276e+07
7.80881e+07
7.89374e+07
9.8543e+07
1.01204e+08
1.09909e+08
2.66245e+07
4.02744e+07
4.08352e+07
6.12464e+07
6.17231e+07
8.22765e+07
8.37803e+07
9.74388e+07
9.97633e+07
1.05901e+08
3.08164e+07
4.69392e+07
4.6497e+07
6.63584e+07
6.71359e+07
8.34658e+07
8.48226e+07
9.47141e+07
9.63935e+07
1.00875e+08
3.72073e+07
5.28194e+07
5.08182e+07
6.90924e+07
6.85886e+07
8.25244e+07
8.25124e+07
9.07295e+07
9.13619e+07
9.49856e+07
4.34272e+07
5.63919e+07
5.25413e+07
6.89848e+07
6.64409e+07
7.89421e+07
7.73778e+07
8.46174e+07
8.44493e+07
8.73821e+07
4.66779e+07
5.48307e+07
5.09412e+07
6.45675e+07
6.1229e+07
7.16022e+07
6.9946e+07
7.60495e+07
7.60886e+07
7.87615e+07
4.76857e+07
5.09406e+07
4.89257e+07
5.51094e+07
5.57624e+07
6.1238e+07
6.28311e+07
6.77322e+07
6.89883e+07
7.2956e+07
1.56031e+08
1.31378e+08
1.47511e+08
1.34143e+08
1.45445e+08
1.35731e+08
1.45282e+08
1.36058e+08
1.46419e+08
1.36072e+08
1.49245e+08
1.3823e+08
1.54327e+08
1.43265e+08
1.61933e+08
1.48383e+08
1.69761e+08
1.56142e+08
1.75835e+08
1.67834e+08
1.42145e+08
1.22848e+08
1.44668e+08
1.24178e+08
1.43072e+08
1.25194e+08
1.41713e+08
1.27362e+08
1.39159e+08
1.26688e+08
1.38899e+08
1.30788e+08
1.43499e+08
1.35804e+08
1.48812e+08
1.41454e+08
1.54446e+08
1.48157e+08
1.60642e+08
1.57072e+08
1.11878e+08
1.19287e+08
1.18058e+08
1.2087e+08
1.22027e+08
1.21487e+08
1.25383e+08
1.22263e+08
1.29924e+08
1.23436e+08
1.32599e+08
1.2538e+08
1.35894e+08
1.2818e+08
1.39625e+08
1.31954e+08
1.43939e+08
1.36731e+08
1.48449e+08
1.43894e+08
1.10249e+08
1.15137e+08
1.1286e+08
1.1542e+08
1.14175e+08
1.15501e+08
1.15995e+08
1.1586e+08
1.18471e+08
1.16815e+08
1.21404e+08
1.1818e+08
1.24677e+08
1.19986e+08
1.28203e+08
1.222e+08
1.31904e+08
1.24723e+08
1.35264e+08
1.28952e+08
1.0663e+08
1.09513e+08
1.08432e+08
1.09376e+08
1.08991e+08
1.09158e+08
1.09952e+08
1.09289e+08
1.11366e+08
1.09747e+08
1.13084e+08
1.10399e+08
1.15443e+08
1.1175e+08
1.17841e+08
1.12563e+08
1.19749e+08
1.13312e+08
1.21209e+08
1.14894e+08
1.01714e+08
1.03478e+08
1.03055e+08
1.03244e+08
1.03329e+08
1.02972e+08
1.03916e+08
1.03017e+08
1.04927e+08
1.03121e+08
1.06003e+08
1.03285e+08
1.07177e+08
1.03514e+08
1.08129e+08
1.03448e+08
1.08609e+08
1.02974e+08
1.08518e+08
1.02576e+08
9.57409e+07
9.66691e+07
9.69148e+07
9.64677e+07
9.73207e+07
9.62565e+07
9.75836e+07
9.60785e+07
9.81731e+07
9.61458e+07
9.87771e+07
9.61974e+07
9.93181e+07
9.5996e+07
9.94826e+07
9.53281e+07
9.90234e+07
9.40003e+07
9.79018e+07
9.20842e+07
8.80666e+07
8.84003e+07
8.91979e+07
8.84592e+07
8.96505e+07
8.85172e+07
9.03845e+07
8.87684e+07
9.11335e+07
8.90195e+07
9.17241e+07
8.91861e+07
9.2052e+07
8.91052e+07
9.19363e+07
8.85339e+07
9.11167e+07
8.72085e+07
8.9599e+07
8.45274e+07
8.00083e+07
8.05275e+07
8.20054e+07
8.14017e+07
8.32224e+07
8.20899e+07
8.41838e+07
8.27278e+07
8.50156e+07
8.33716e+07
8.56711e+07
8.39781e+07
8.60501e+07
8.44319e+07
8.60167e+07
8.45523e+07
8.54516e+07
8.41294e+07
8.42494e+07
8.19708e+07
7.359e+07
7.59055e+07
7.66232e+07
7.84999e+07
7.86799e+07
8.05381e+07
8.02499e+07
8.21805e+07
8.14934e+07
8.34501e+07
8.24341e+07
8.4321e+07
8.3037e+07
8.4769e+07
8.3246e+07
8.47868e+07
8.30183e+07
8.44003e+07
8.24781e+07
8.36442e+07
1.56174e+08
1.45457e+08
1.36664e+08
1.37872e+08
1.22614e+08
1.33188e+08
1.12471e+08
1.30261e+08
1.0472e+08
1.27651e+08
9.84649e+07
1.24645e+08
9.37072e+07
1.21508e+08
9.14268e+07
1.19124e+08
9.25805e+07
1.1823e+08
9.58505e+07
1.00265e+08
1.82421e+08
1.68618e+08
1.78284e+08
1.66777e+08
1.6997e+08
1.65765e+08
1.60386e+08
1.64493e+08
1.48732e+08
1.61677e+08
1.36909e+08
1.58163e+08
1.26211e+08
1.54809e+08
1.17179e+08
1.52346e+08
1.0968e+08
1.51061e+08
1.02968e+08
1.41814e+08
1.7821e+08
1.7376e+08
1.80395e+08
1.74252e+08
1.80964e+08
1.73011e+08
1.80506e+08
1.7095e+08
1.75025e+08
1.67353e+08
1.66399e+08
1.64354e+08
1.58026e+08
1.63289e+08
1.50797e+08
1.64721e+08
1.45511e+08
1.69281e+08
1.42941e+08
1.77772e+08
1.80671e+08
1.65405e+08
1.85284e+08
1.65998e+08
1.83668e+08
1.68695e+08
1.82116e+08
1.6955e+08
1.801e+08
1.6773e+08
1.75706e+08
1.65849e+08
1.7146e+08
1.65679e+08
1.68836e+08
1.68606e+08
1.693e+08
1.75832e+08
1.72636e+08
1.91607e+08
2.01082e+08
1.84626e+08
1.87814e+08
1.80227e+08
1.83019e+08
1.71705e+08
1.79364e+08
1.64246e+08
1.76588e+08
1.58702e+08
1.74526e+08
1.55687e+08
1.73686e+08
1.55902e+08
1.74923e+08
1.59815e+08
1.79072e+08
1.68981e+08
1.85008e+08
1.81335e+08
)
;

boundaryField
{
    back
    {
        type            empty;
    }
    front
    {
        type            empty;
    }
    left
    {
        type            symmetry;
    }
    hole
    {
        type            calculated;
        value           nonuniform List<scalar> 10(1.50854e+08 1.4793e+08 1.53019e+08 1.29602e+08 8.73312e+07 2.25591e+07 3.76906e+07 7.87896e+07 1.00703e+08 1.07359e+08);
    }
    down
    {
        type            symmetry;
    }
    right
    {
        type            calculated;
        value           nonuniform List<scalar> 
15
(
5.14835e+07
5.4641e+07
5.95961e+07
6.57024e+07
7.17908e+07
7.42423e+07
7.5914e+07
7.75964e+07
7.91149e+07
8.03777e+07
8.13703e+07
8.21102e+07
8.26392e+07
8.30133e+07
8.30775e+07
)
;
    }
    up
    {
        type            calculated;
        value           nonuniform List<scalar> 
15
(
1.69602e+08
1.57721e+08
1.445e+08
1.29202e+08
1.14977e+08
1.02657e+08
9.23159e+07
8.49217e+07
8.24017e+07
8.36878e+07
9.94341e+07
1.35736e+08
1.73008e+08
1.87737e+08
1.81492e+08
)
;
    }
}


// ************************************************************************* //
