/*--------------------------------*- C++ -*----------------------------------*\
| =========                 |                                                 |
| \\      /  F ield         | OpenFOAM: The Open Source CFD Toolbox           |
|  \\    /   O peration     | Version:  v2012                                 |
|   \\  /    A nd           | Website:  www.openfoam.com                      |
|    \\/     M anipulation  |                                                 |
\*---------------------------------------------------------------------------*/
FoamFile
{
    version     2.0;
    format      ascii;
    class       volScalarField;
    location    "1";
    object      epsilonEq;
}
// * * * * * * * * * * * * * * * * * * * * * * * * * * * * * * * * * * * * * //

dimensions      [0 0 0 0 0 0 0];


internalField   nonuniform List<scalar> 
53760
(
1.11338e-05
8.57432e-06
1.08069e-05
8.57726e-06
6.95128e-06
7.66462e-06
6.60907e-06
5.90817e-06
7.22453e-06
5.62856e-06
6.17294e-06
7.77359e-06
6.00583e-06
7.62183e-06
9.19814e-06
7.66144e-06
1.02913e-05
1.14447e-05
1.0629e-05
1.27962e-05
1.39663e-05
1.23819e-05
1.32371e-05
1.48187e-05
1.34071e-05
1.10694e-05
1.19497e-05
9.52243e-06
7.92843e-06
8.35065e-06
6.83804e-06
5.91045e-06
6.39762e-06
5.37626e-06
5.5264e-06
6.18842e-06
5.41586e-06
6.59429e-06
7.20476e-06
7.01335e-06
1.08323e-05
7.9903e-06
1.02625e-05
1.25362e-05
1.06334e-05
1.19385e-05
1.24892e-05
1.36921e-05
1.29265e-05
1.11491e-05
1.21966e-05
9.67713e-06
8.17181e-06
9.26148e-06
6.97593e-06
5.98563e-06
6.63771e-06
5.00125e-06
5.10927e-06
5.064e-06
4.71668e-06
5.73954e-06
5.17393e-06
6.09173e-06
7.50333e-06
6.70923e-06
8.83162e-06
1.02247e-05
9.46884e-06
1.15565e-05
1.22033e-05
1.2255e-05
1.38038e-05
1.1428e-05
1.27021e-05
9.90986e-06
8.20057e-06
8.99946e-06
7.0792e-06
5.89744e-06
6.27695e-06
4.77066e-06
5.01852e-06
4.44085e-06
4.89872e-06
5.70218e-06
4.91658e-06
6.1764e-06
7.75455e-06
6.90916e-06
8.86388e-06
1.04875e-05
9.24404e-06
1.11871e-05
1.14014e-05
1.18046e-05
1.27577e-05
1.08188e-05
1.19282e-05
9.89903e-06
7.95168e-06
9.22839e-06
6.90579e-06
5.61869e-06
6.27421e-06
4.86196e-06
4.26981e-06
4.55832e-06
4.69998e-06
5.05299e-06
4.83823e-06
6.18847e-06
7.35272e-06
6.81817e-06
8.61754e-06
1.05446e-05
9.6965e-06
1.14462e-05
1.20458e-05
1.22585e-05
1.40607e-05
1.12373e-05
1.27235e-05
9.89146e-06
7.84596e-06
8.73181e-06
6.87359e-06
5.52209e-06
6.53272e-06
4.90031e-06
4.13658e-06
4.24534e-06
4.43725e-06
5.05448e-06
4.86108e-06
5.93983e-06
7.41534e-06
6.56033e-06
8.50466e-06
1.04804e-05
9.08947e-06
1.20758e-05
1.35759e-05
1.22633e-05
1.2465e-05
1.07198e-05
1.17081e-05
9.65416e-06
7.79488e-06
8.50467e-06
6.86163e-06
5.36212e-06
6.06883e-06
4.88863e-06
4.17386e-06
4.49974e-06
4.50124e-06
5.0913e-06
4.81249e-06
5.98199e-06
7.47176e-06
6.79808e-06
8.53655e-06
1.03696e-05
9.65915e-06
1.23078e-05
1.43847e-05
1.40728e-05
1.38171e-05
1.10072e-05
1.25875e-05
9.80889e-06
7.95139e-06
9.26283e-06
7.05753e-06
5.67675e-06
6.63763e-06
5.17127e-06
4.50604e-06
4.8853e-06
4.73006e-06
5.27171e-06
4.78443e-06
6.0417e-06
7.46991e-06
6.41483e-06
8.5586e-06
1.05097e-05
9.08307e-06
1.17641e-05
1.39643e-05
1.35e-05
1.22573e-05
1.04682e-05
1.1492e-05
9.47473e-06
8.01352e-06
8.52076e-06
6.93213e-06
5.67707e-06
6.34213e-06
5.25792e-06
4.71269e-06
5.14911e-06
4.94278e-06
5.51587e-06
5.41388e-06
6.22348e-06
7.61354e-06
7.00795e-06
8.60852e-06
1.06306e-05
9.65232e-06
1.15268e-05
1.18265e-05
1.21156e-05
1.34473e-05
1.07051e-05
1.2314e-05
9.55474e-06
7.97648e-06
9.01094e-06
7.23827e-06
6.16706e-06
6.72546e-06
5.86403e-06
5.36719e-06
5.40511e-06
5.58887e-06
5.99906e-06
5.40234e-06
6.60337e-06
7.74532e-06
6.79008e-06
8.6022e-06
1.03751e-05
9.10875e-06
1.16273e-05
1.30541e-05
1.2207e-05
1.21068e-05
1.03668e-05
1.13543e-05
9.41703e-06
7.97069e-06
8.59135e-06
7.32137e-06
6.34909e-06
6.99954e-06
6.07921e-06
5.67768e-06
6.19672e-06
5.86336e-06
6.29715e-06
6.39589e-06
6.8145e-06
8.04182e-06
7.62887e-06
8.79153e-06
1.05044e-05
9.76658e-06
1.18648e-05
1.31364e-05
1.33636e-05
1.30943e-05
1.06609e-05
1.20947e-05
9.70326e-06
8.23537e-06
9.08424e-06
7.85426e-06
6.95093e-06
7.27346e-06
6.90129e-06
6.54343e-06
6.3577e-06
6.74655e-06
7.04868e-06
6.41988e-06
7.45895e-06
8.44333e-06
7.47889e-06
9.12748e-06
1.06629e-05
9.42139e-06
1.16163e-05
1.26907e-05
1.25554e-05
1.2162e-05
1.05551e-05
1.15871e-05
9.6718e-06
8.70561e-06
8.93266e-06
7.98635e-06
7.85008e-06
7.55382e-06
7.15666e-06
7.63827e-06
6.954e-06
7.07554e-06
8.01944e-06
7.16388e-06
7.78256e-06
9.04667e-06
8.22529e-06
9.36908e-06
1.09438e-05
1.0164e-05
1.17203e-05
1.22505e-05
1.22643e-05
1.27371e-05
1.10072e-05
1.21873e-05
1.00792e-05
8.95343e-06
9.42974e-06
8.6611e-06
8.09403e-06
7.9887e-06
8.08428e-06
7.9079e-06
7.43567e-06
8.05973e-06
8.28223e-06
7.57924e-06
8.55183e-06
9.23342e-06
8.4022e-06
9.6341e-06
1.08298e-05
9.94199e-06
1.17742e-05
1.30481e-05
1.25365e-05
1.28202e-05
1.18174e-05
1.23844e-05
1.03529e-05
9.93246e-06
9.86556e-06
8.94716e-06
9.30848e-06
8.6512e-06
8.48214e-06
9.32243e-06
8.2643e-06
8.60834e-06
9.67789e-06
8.48893e-06
9.18674e-06
1.03172e-05
9.27561e-06
1.02292e-05
1.15279e-05
1.06603e-05
1.19438e-05
1.2404e-05
1.27642e-05
1.31771e-05
1.22542e-05
1.34592e-05
1.064e-05
1.0302e-05
1.07846e-05
9.35962e-06
9.72714e-06
9.9658e-06
8.95062e-06
9.74116e-06
9.84596e-06
9.10609e-06
1.0055e-05
1.0048e-05
9.67572e-06
1.06737e-05
1.04991e-05
1.07188e-05
1.1992e-05
1.14287e-05
1.22139e-05
1.26261e-05
1.27081e-05
1.4466e-05
1.10641e-05
1.44528e-05
1.02864e-05
8.43539e-06
9.5136e-06
8.78541e-06
6.8633e-06
8.73557e-06
8.24853e-06
6.93278e-06
8.965e-06
8.4488e-06
8.25301e-06
1.00167e-05
1.19413e-05
1.43834e-05
1.03447e-05
1.25661e-05
1.46606e-05
1.46903e-05
1.55089e-05
1.40865e-05
1.67942e-05
1.53305e-05
1.29715e-05
1.29449e-05
1.0712e-05
9.23462e-06
1.10522e-05
8.18219e-06
6.42845e-06
8.85701e-06
6.17905e-06
4.96625e-06
7.06196e-06
5.44434e-06
5.25166e-06
6.34791e-06
6.44657e-06
8.29329e-06
9.17593e-06
9.57739e-06
1.23576e-05
1.07906e-05
1.24443e-05
1.38261e-05
1.44304e-05
1.31439e-05
1.12988e-05
1.21878e-05
1.04495e-05
8.50606e-06
9.34815e-06
7.33048e-06
5.7212e-06
5.90747e-06
5.42385e-06
4.51203e-06
4.45218e-06
4.84203e-06
5.0703e-06
4.67849e-06
5.98257e-06
7.18926e-06
6.54622e-06
8.26692e-06
1.02327e-05
9.89723e-06
1.11884e-05
1.12987e-05
1.13513e-05
1.41553e-05
1.13491e-05
1.27693e-05
1.0289e-05
8.52186e-06
9.77113e-06
7.19481e-06
5.27985e-06
6.89202e-06
5.03039e-06
3.98598e-06
5.08572e-06
4.18119e-06
4.80751e-06
4.6064e-06
5.50878e-06
7.14798e-06
6.14312e-06
8.22338e-06
1.01886e-05
8.82635e-06
1.13124e-05
1.24554e-05
1.16074e-05
1.28828e-05
1.11237e-05
1.25665e-05
1.02373e-05
8.37362e-06
9.04846e-06
7.15933e-06
5.20973e-06
5.95051e-06
4.85888e-06
3.96765e-06
4.20568e-06
4.17559e-06
4.83833e-06
4.39094e-06
5.50473e-06
7.09469e-06
6.39708e-06
8.05433e-06
1.00645e-05
9.17418e-06
1.08655e-05
1.2166e-05
1.25705e-05
1.42782e-05
1.16995e-05
1.27494e-05
1.05567e-05
8.28303e-06
9.67121e-06
7.33035e-06
5.50769e-06
6.7159e-06
4.9864e-06
4.01514e-06
4.5652e-06
4.16555e-06
4.76012e-06
4.3323e-06
5.49426e-06
7.08007e-06
6.04711e-06
7.99482e-06
9.91414e-06
8.67815e-06
1.10426e-05
1.37125e-05
1.16821e-05
1.27711e-05
1.13481e-05
1.24972e-05
1.05527e-05
8.27754e-06
9.10537e-06
7.37984e-06
5.5952e-06
6.30446e-06
5.1199e-06
4.18371e-06
4.60902e-06
4.29982e-06
4.864e-06
4.69458e-06
5.51425e-06
7.10223e-06
6.48571e-06
7.95171e-06
9.89716e-06
9.11164e-06
1.07176e-05
1.27729e-05
1.19854e-05
1.40382e-05
1.15319e-05
1.2609e-05
1.04356e-05
8.31649e-06
9.61465e-06
7.48108e-06
5.89585e-06
6.75944e-06
5.47125e-06
4.72734e-06
4.89922e-06
4.7897e-06
5.32615e-06
4.66313e-06
5.83492e-06
7.28773e-06
6.20733e-06
8.04224e-06
9.90666e-06
8.70793e-06
1.08667e-05
1.30607e-05
1.1702e-05
1.25176e-05
1.11617e-05
1.22611e-05
1.04155e-05
8.31167e-06
9.12411e-06
7.54821e-06
6.04365e-06
6.7653e-06
5.67293e-06
4.9991e-06
5.51403e-06
5.05159e-06
5.57721e-06
5.60377e-06
6.01459e-06
7.44298e-06
6.98002e-06
8.12172e-06
1.00037e-05
9.18766e-06
1.07511e-05
1.22902e-05
1.20286e-05
1.35947e-05
1.12677e-05
1.23072e-05
1.02786e-05
8.40445e-06
9.49215e-06
7.7857e-06
6.53597e-06
7.05369e-06
6.29289e-06
5.80751e-06
5.65762e-06
5.85127e-06
6.30342e-06
5.55223e-06
6.6018e-06
7.81526e-06
6.77804e-06
8.3444e-06
9.98128e-06
8.90692e-06
1.077e-05
1.28458e-05
1.16708e-05
1.22825e-05
1.0987e-05
1.20414e-05
1.03181e-05
8.45877e-06
9.26363e-06
7.91056e-06
6.72836e-06
7.44495e-06
6.53196e-06
6.10827e-06
6.66119e-06
6.15267e-06
6.61458e-06
6.78983e-06
6.86734e-06
8.07553e-06
7.79559e-06
8.54242e-06
1.0163e-05
9.56804e-06
1.0804e-05
1.22022e-05
1.18137e-05
1.31501e-05
1.10731e-05
1.20374e-05
1.02418e-05
8.67503e-06
9.49159e-06
8.32931e-06
7.39998e-06
7.59144e-06
7.35839e-06
7.06689e-06
6.69216e-06
7.12885e-06
7.50281e-06
6.72356e-06
7.65074e-06
8.64162e-06
7.65981e-06
8.9907e-06
1.0458e-05
9.40676e-06
1.10404e-05
1.26491e-05
1.18147e-05
1.21197e-05
1.10287e-05
1.1805e-05
1.04263e-05
8.86771e-06
9.64383e-06
8.57468e-06
7.63608e-06
8.39245e-06
7.64989e-06
7.31651e-06
7.9545e-06
7.42236e-06
7.74532e-06
8.08507e-06
7.90436e-06
8.86768e-06
8.76295e-06
9.20272e-06
1.06922e-05
1.01088e-05
1.13148e-05
1.29554e-05
1.23472e-05
1.2522e-05
1.11011e-05
1.19306e-05
1.05584e-05
9.30083e-06
9.77802e-06
9.18596e-06
8.52863e-06
8.40334e-06
8.61182e-06
8.43363e-06
7.87602e-06
8.49341e-06
8.78042e-06
7.95962e-06
8.78021e-06
9.54121e-06
8.62802e-06
9.62577e-06
1.0853e-05
9.98507e-06
1.15742e-05
1.33439e-05
1.25618e-05
1.25913e-05
1.17759e-05
1.194e-05
1.08073e-05
1.01246e-05
1.00149e-05
9.37819e-06
9.59781e-06
8.95273e-06
8.85768e-06
9.65124e-06
8.67155e-06
8.88262e-06
9.9668e-06
8.91871e-06
9.31384e-06
1.0516e-05
9.60176e-06
1.02076e-05
1.15366e-05
1.07882e-05
1.16755e-05
1.28209e-05
1.28731e-05
1.3014e-05
1.2006e-05
1.32411e-05
1.07628e-05
1.03447e-05
1.0823e-05
9.60735e-06
1.00158e-05
1.02119e-05
9.29868e-06
1.01798e-05
1.02404e-05
9.46389e-06
1.05379e-05
1.04864e-05
9.95709e-06
1.11023e-05
1.08973e-05
1.08676e-05
1.22831e-05
1.17642e-05
1.21699e-05
1.31354e-05
1.28111e-05
1.68657e-05
1.37307e-05
1.61147e-05
1.1268e-05
1.22837e-05
1.15195e-05
9.556e-06
1.0594e-05
1.00545e-05
7.46596e-06
9.28925e-06
8.88351e-06
6.52316e-06
9.03934e-06
8.97947e-06
7.53229e-06
1.26355e-05
1.08253e-05
1.20859e-05
1.38514e-05
1.52094e-05
1.31161e-05
1.47624e-05
1.50629e-05
1.53158e-05
1.34178e-05
1.32624e-05
1.06673e-05
9.18881e-06
9.53767e-06
7.82467e-06
7.3386e-06
6.88855e-06
5.97833e-06
6.89096e-06
5.29563e-06
5.76607e-06
8.16141e-06
5.63122e-06
7.48355e-06
1.07112e-05
7.91763e-06
9.96955e-06
1.2736e-05
1.04488e-05
1.21377e-05
1.53671e-05
1.34371e-05
1.26685e-05
1.16676e-05
1.23516e-05
1.08659e-05
8.75235e-06
9.33557e-06
7.79419e-06
5.99822e-06
6.32215e-06
5.46251e-06
4.30641e-06
4.22507e-06
4.54731e-06
4.86139e-06
4.33365e-06
5.78149e-06
7.21228e-06
6.45612e-06
8.27278e-06
1.00146e-05
9.40883e-06
1.07682e-05
1.22414e-05
1.24112e-05
1.38314e-05
1.15867e-05
1.23612e-05
1.05829e-05
8.3171e-06
9.85311e-06
7.39594e-06
5.43898e-06
6.90161e-06
4.96682e-06
3.72983e-06
4.77178e-06
4.0768e-06
4.59448e-06
4.4599e-06
5.4954e-06
7.08321e-06
6.18133e-06
8.05597e-06
1.00338e-05
8.69358e-06
1.11247e-05
1.34895e-05
1.15234e-05
1.24082e-05
1.12906e-05
1.2308e-05
1.05658e-05
8.20113e-06
9.10517e-06
7.28149e-06
5.32891e-06
5.97911e-06
4.84458e-06
3.67924e-06
3.9694e-06
3.97684e-06
4.59077e-06
4.18268e-06
5.41131e-06
7.01974e-06
6.30878e-06
7.93901e-06
9.91034e-06
9.09692e-06
1.0725e-05
1.19977e-05
1.21679e-05
1.40179e-05
1.15746e-05
1.24539e-05
1.04806e-05
8.2686e-06
9.64469e-06
7.29369e-06
5.43297e-06
6.59719e-06
4.88602e-06
3.87596e-06
4.42025e-06
4.04164e-06
4.66394e-06
4.15495e-06
5.40169e-06
6.98332e-06
5.94141e-06
7.89049e-06
9.82484e-06
8.57737e-06
1.09497e-05
1.33327e-05
1.16423e-05
1.24008e-05
1.12593e-05
1.2285e-05
1.05217e-05
8.30622e-06
9.16763e-06
7.38348e-06
5.57372e-06
6.34356e-06
5.06453e-06
4.10669e-06
4.5981e-06
4.22954e-06
4.80529e-06
4.66761e-06
5.4573e-06
7.01607e-06
6.4275e-06
7.85287e-06
9.81298e-06
8.9823e-06
1.06216e-05
1.20141e-05
1.18379e-05
1.37991e-05
1.14028e-05
1.23423e-05
1.03509e-05
8.33938e-06
9.56493e-06
7.50548e-06
5.93207e-06
6.75698e-06
5.49425e-06
4.74883e-06
4.87143e-06
4.8041e-06
5.32189e-06
4.62949e-06
5.8128e-06
7.21947e-06
6.15627e-06
7.9484e-06
9.78194e-06
8.61169e-06
1.07562e-05
1.28557e-05
1.16018e-05
1.21927e-05
1.10517e-05
1.2052e-05
1.03643e-05
8.37151e-06
9.17443e-06
7.60726e-06
6.11464e-06
6.86269e-06
5.7339e-06
5.06795e-06
5.61707e-06
5.11339e-06
5.61203e-06
5.68527e-06
6.02957e-06
7.39575e-06
6.9852e-06
8.04302e-06
9.86055e-06
9.1042e-06
1.05861e-05
1.1959e-05
1.16704e-05
1.33594e-05
1.11238e-05
1.20597e-05
1.01851e-05
8.44013e-06
9.43978e-06
7.85116e-06
6.63632e-06
7.11041e-06
6.40361e-06
5.92992e-06
5.74274e-06
5.97327e-06
6.39205e-06
5.63479e-06
6.66452e-06
7.81404e-06
6.79706e-06
8.3094e-06
9.93262e-06
8.84715e-06
1.07022e-05
1.25452e-05
1.15582e-05
1.19878e-05
1.08515e-05
1.18191e-05
1.02452e-05
8.52681e-06
9.27889e-06
8.00231e-06
6.85598e-06
7.57822e-06
6.67133e-06
6.26094e-06
6.83352e-06
6.30707e-06
6.73444e-06
6.95187e-06
6.96452e-06
8.10444e-06
7.87798e-06
8.53809e-06
1.01745e-05
9.56602e-06
1.08185e-05
1.21461e-05
1.17884e-05
1.29167e-05
1.09185e-05
1.18077e-05
1.01501e-05
8.69905e-06
9.43594e-06
8.41697e-06
7.5365e-06
7.68502e-06
7.52853e-06
7.2516e-06
6.85156e-06
7.32446e-06
7.66696e-06
6.88906e-06
7.79696e-06
8.72372e-06
7.75971e-06
9.03714e-06
1.04766e-05
9.41556e-06
1.10356e-05
1.25581e-05
1.18332e-05
1.18753e-05
1.08989e-05
1.16276e-05
1.03586e-05
8.91403e-06
9.66307e-06
8.68111e-06
7.78772e-06
8.54654e-06
7.83973e-06
7.51779e-06
8.18149e-06
7.63858e-06
7.9273e-06
8.31304e-06
8.07349e-06
8.9703e-06
8.92068e-06
9.27422e-06
1.0709e-05
1.01612e-05
1.13228e-05
1.28816e-05
1.23481e-05
1.23313e-05
1.09928e-05
1.17484e-05
1.052e-05
9.35059e-06
9.75808e-06
9.30892e-06
8.69923e-06
8.53301e-06
8.83253e-06
8.67165e-06
8.08825e-06
8.74524e-06
9.00774e-06
8.18449e-06
8.99199e-06
9.69673e-06
8.79712e-06
9.74649e-06
1.09168e-05
1.0063e-05
1.16098e-05
1.33683e-05
1.26068e-05
1.24916e-05
1.17655e-05
1.18791e-05
1.0801e-05
1.02318e-05
1.00697e-05
9.52143e-06
9.83699e-06
9.12814e-06
9.10283e-06
9.96553e-06
8.93043e-06
9.16074e-06
1.02717e-05
9.17884e-06
9.55329e-06
1.07636e-05
9.79422e-06
1.03703e-05
1.17611e-05
1.08971e-05
1.17776e-05
1.28818e-05
1.29537e-05
1.3041e-05
1.20783e-05
1.33299e-05
1.08045e-05
1.04748e-05
1.09339e-05
9.75993e-06
1.02638e-05
1.04287e-05
9.54702e-06
1.04963e-05
1.05405e-05
9.74947e-06
1.08412e-05
1.08031e-05
1.0209e-05
1.1374e-05
1.1189e-05
1.1068e-05
1.25711e-05
1.20353e-05
1.23075e-05
1.32616e-05
1.30107e-05
1.71583e-05
1.36859e-05
1.63962e-05
1.04191e-05
9.94129e-06
1.0822e-05
8.08261e-06
8.84731e-06
9.62469e-06
7.12083e-06
9.20667e-06
9.8307e-06
7.88412e-06
1.09477e-05
1.12617e-05
1.01241e-05
1.35646e-05
1.36188e-05
1.263e-05
1.57646e-05
1.57552e-05
1.48342e-05
1.61994e-05
1.83775e-05
1.53779e-05
1.34767e-05
1.31711e-05
1.05514e-05
8.99819e-06
9.28946e-06
7.74825e-06
7.23563e-06
6.59236e-06
5.99103e-06
7.17196e-06
5.29695e-06
6.06141e-06
8.66286e-06
6.09083e-06
7.77637e-06
1.0901e-05
8.32329e-06
1.0112e-05
1.31521e-05
1.07382e-05
1.24537e-05
1.53263e-05
1.29808e-05
1.23606e-05
1.13987e-05
1.2125e-05
1.06755e-05
8.56486e-06
9.22104e-06
7.60921e-06
5.73522e-06
6.16831e-06
5.23465e-06
4.15746e-06
4.10581e-06
4.47895e-06
4.97247e-06
4.33185e-06
5.88404e-06
7.33823e-06
6.52876e-06
8.32352e-06
1.00128e-05
9.35729e-06
1.07537e-05
1.21754e-05
1.23251e-05
1.36495e-05
1.13804e-05
1.21007e-05
1.04048e-05
8.2187e-06
9.69199e-06
7.26385e-06
5.28162e-06
6.73516e-06
4.77449e-06
3.58264e-06
4.57123e-06
3.9357e-06
4.52469e-06
4.33674e-06
5.44543e-06
7.01987e-06
6.13226e-06
7.9804e-06
9.92738e-06
8.63909e-06
1.10511e-05
1.36043e-05
1.14905e-05
1.20166e-05
1.10458e-05
1.20517e-05
1.0398e-05
8.15398e-06
9.0247e-06
7.19902e-06
5.21292e-06
5.94537e-06
4.68627e-06
3.52656e-06
3.85812e-06
3.81837e-06
4.46399e-06
4.0604e-06
5.31241e-06
6.9177e-06
6.20793e-06
7.83827e-06
9.81118e-06
8.99592e-06
1.06778e-05
1.20134e-05
1.21431e-05
1.38006e-05
1.1383e-05
1.2184e-05
1.03254e-05
8.20514e-06
9.50757e-06
7.23559e-06
5.38778e-06
6.49102e-06
4.82092e-06
3.8059e-06
4.29051e-06
3.97008e-06
4.59909e-06
4.04456e-06
5.33667e-06
6.89518e-06
5.86595e-06
7.79579e-06
9.75791e-06
8.49949e-06
1.08838e-05
1.32664e-05
1.16392e-05
1.2045e-05
1.10353e-05
1.20493e-05
1.03776e-05
8.27047e-06
9.09782e-06
7.3619e-06
5.57477e-06
6.36534e-06
5.04887e-06
4.09082e-06
4.62694e-06
4.19833e-06
4.76841e-06
4.66801e-06
5.40566e-06
6.93953e-06
6.37526e-06
7.76925e-06
9.74603e-06
8.90397e-06
1.0551e-05
1.18789e-05
1.17746e-05
1.35985e-05
1.12245e-05
1.20917e-05
1.02142e-05
8.29532e-06
9.45852e-06
7.50129e-06
5.96433e-06
6.74507e-06
5.53794e-06
4.80311e-06
4.88369e-06
4.85014e-06
5.34253e-06
4.63361e-06
5.80536e-06
7.17638e-06
6.12383e-06
7.87731e-06
9.71752e-06
8.54578e-06
1.069e-05
1.28013e-05
1.15489e-05
1.18945e-05
1.08407e-05
1.18315e-05
1.02282e-05
8.34068e-06
9.10305e-06
7.62036e-06
6.17553e-06
6.92215e-06
5.80996e-06
5.16404e-06
5.7354e-06
5.20002e-06
5.67273e-06
5.79012e-06
6.056e-06
7.37667e-06
7.00977e-06
7.98774e-06
9.79684e-06
9.05405e-06
1.05082e-05
1.18443e-05
1.15981e-05
1.31683e-05
1.09492e-05
1.18413e-05
1.00548e-05
8.39797e-06
9.33566e-06
7.87181e-06
6.7161e-06
7.13922e-06
6.51781e-06
6.06808e-06
5.84401e-06
6.11136e-06
6.50425e-06
5.73799e-06
6.74248e-06
7.8425e-06
6.83096e-06
8.29364e-06
9.88906e-06
8.79425e-06
1.06358e-05
1.24763e-05
1.15006e-05
1.17338e-05
1.06547e-05
1.16144e-05
1.01216e-05
8.501e-06
9.21854e-06
8.0434e-06
6.96105e-06
7.67346e-06
6.81311e-06
6.42911e-06
7.01319e-06
6.47612e-06
6.87926e-06
7.13317e-06
7.07575e-06
8.16546e-06
7.98587e-06
8.5536e-06
1.01641e-05
9.58043e-06
1.07892e-05
1.21243e-05
1.17799e-05
1.27307e-05
1.07653e-05
1.16202e-05
1.00522e-05
8.68799e-06
9.3623e-06
8.48104e-06
7.66256e-06
7.76019e-06
7.69925e-06
7.4457e-06
7.01665e-06
7.52651e-06
7.84764e-06
7.06341e-06
7.95072e-06
8.8288e-06
7.86833e-06
9.09421e-06
1.04918e-05
9.43162e-06
1.1007e-05
1.25309e-05
1.18124e-05
1.16893e-05
1.07542e-05
1.14837e-05
1.02794e-05
8.91996e-06
9.64979e-06
8.76198e-06
7.92953e-06
8.67989e-06
8.02793e-06
7.73079e-06
8.40471e-06
7.8614e-06
8.13073e-06
8.54905e-06
8.25289e-06
9.10221e-06
9.0974e-06
9.36052e-06
1.07537e-05
1.02419e-05
1.13399e-05
1.29151e-05
1.23658e-05
1.2199e-05
1.09023e-05
1.16215e-05
1.0493e-05
9.38692e-06
9.73505e-06
9.41923e-06
8.85681e-06
8.64501e-06
9.04048e-06
8.9013e-06
8.28974e-06
8.99071e-06
9.24191e-06
8.40736e-06
9.20668e-06
9.87076e-06
8.97053e-06
9.87202e-06
1.09963e-05
1.01444e-05
1.16329e-05
1.33706e-05
1.26293e-05
1.24941e-05
1.18198e-05
1.18745e-05
1.08157e-05
1.03572e-05
1.01296e-05
9.65946e-06
1.00655e-05
9.29541e-06
9.33284e-06
1.026e-05
9.17654e-06
9.42959e-06
1.05694e-05
9.44162e-06
9.79356e-06
1.1017e-05
1.00042e-05
1.0536e-05
1.19596e-05
1.1027e-05
1.18427e-05
1.29134e-05
1.30016e-05
1.31535e-05
1.22224e-05
1.35e-05
1.08777e-05
1.06412e-05
1.10742e-05
9.92863e-06
1.05068e-05
1.06582e-05
9.78545e-06
1.07962e-05
1.08302e-05
1.00204e-05
1.1149e-05
1.11209e-05
1.04613e-05
1.1639e-05
1.14738e-05
1.12566e-05
1.27975e-05
1.2263e-05
1.23861e-05
1.33768e-05
1.31718e-05
1.7426e-05
1.38774e-05
1.67904e-05
1.04869e-05
9.87702e-06
1.10223e-05
8.15205e-06
8.90806e-06
9.80526e-06
7.28889e-06
9.52987e-06
1.00464e-05
8.19641e-06
1.1345e-05
1.15023e-05
1.02766e-05
1.37048e-05
1.36533e-05
1.27061e-05
1.62643e-05
1.58576e-05
1.5303e-05
1.70351e-05
1.88836e-05
1.54959e-05
1.3641e-05
1.3208e-05
1.0563e-05
9.15247e-06
9.30473e-06
7.8089e-06
7.32119e-06
6.64238e-06
5.98393e-06
7.16739e-06
5.29579e-06
6.01647e-06
8.57162e-06
6.06586e-06
7.68409e-06
1.07648e-05
8.22537e-06
1.00702e-05
1.3292e-05
1.0803e-05
1.25909e-05
1.54376e-05
1.31436e-05
1.22066e-05
1.12563e-05
1.20064e-05
1.05832e-05
8.48435e-06
9.11479e-06
7.53244e-06
5.63456e-06
6.04615e-06
5.10344e-06
4.04636e-06
3.96277e-06
4.36313e-06
4.92014e-06
4.26578e-06
5.81501e-06
7.28445e-06
6.50702e-06
8.26584e-06
9.97704e-06
9.27762e-06
1.07488e-05
1.22304e-05
1.23275e-05
1.35985e-05
1.12494e-05
1.19766e-05
1.02794e-05
8.10935e-06
9.58124e-06
7.14958e-06
5.15454e-06
6.61749e-06
4.627e-06
3.4646e-06
4.41371e-06
3.82803e-06
4.49012e-06
4.22451e-06
5.37925e-06
6.93521e-06
6.07462e-06
8.00939e-06
9.69908e-06
8.6828e-06
1.09982e-05
1.37501e-05
1.16263e-05
1.17355e-05
1.08389e-05
1.18477e-05
1.02562e-05
8.05673e-06
8.91874e-06
7.10131e-06
5.11525e-06
5.88822e-06
4.56978e-06
3.42577e-06
3.7947e-06
3.7268e-06
4.41513e-06
4.01067e-06
5.21726e-06
6.79989e-06
6.09317e-06
7.8171e-06
9.55534e-06
8.82148e-06
1.06575e-05
1.22512e-05
1.22843e-05
1.39071e-05
1.13394e-05
1.20324e-05
1.01643e-05
8.36859e-06
9.43744e-06
7.25457e-06
5.54204e-06
6.41797e-06
4.83428e-06
3.85463e-06
4.17847e-06
3.96289e-06
4.50483e-06
3.9577e-06
5.26735e-06
6.6531e-06
5.78261e-06
7.71579e-06
9.3743e-06
8.48035e-06
1.04593e-05
1.34005e-05
1.16395e-05
1.16936e-05
1.09106e-05
1.19085e-05
1.02136e-05
8.44385e-06
9.13829e-06
7.41843e-06
5.77088e-06
6.48324e-06
5.11998e-06
4.1975e-06
4.73842e-06
4.23728e-06
4.70313e-06
4.68906e-06
5.34807e-06
6.71366e-06
6.27179e-06
7.67524e-06
9.46102e-06
8.76263e-06
1.02993e-05
1.19742e-05
1.18533e-05
1.36591e-05
1.1152e-05
1.19499e-05
1.00901e-05
8.46136e-06
9.3355e-06
7.58826e-06
6.18622e-06
6.81336e-06
5.67963e-06
4.9769e-06
4.99302e-06
4.9674e-06
5.35763e-06
4.72246e-06
5.80642e-06
7.02866e-06
6.11885e-06
7.78174e-06
9.50698e-06
8.49122e-06
1.04499e-05
1.29336e-05
1.13592e-05
1.16194e-05
1.06871e-05
1.16931e-05
1.01177e-05
8.41868e-06
9.10331e-06
7.71141e-06
6.33989e-06
7.04581e-06
5.96861e-06
5.32113e-06
5.91327e-06
5.33424e-06
5.71776e-06
5.91574e-06
6.07267e-06
7.29579e-06
7.01976e-06
7.90931e-06
9.68507e-06
9.00136e-06
1.03615e-05
1.1775e-05
1.15333e-05
1.30049e-05
1.08335e-05
1.16936e-05
9.9738e-06
8.41416e-06
9.26536e-06
7.94295e-06
6.84989e-06
7.23458e-06
6.65947e-06
6.23559e-06
5.99121e-06
6.23362e-06
6.60514e-06
5.84254e-06
6.77434e-06
7.83787e-06
6.83241e-06
8.24256e-06
9.81687e-06
8.71685e-06
1.0531e-05
1.24167e-05
1.13751e-05
1.1515e-05
1.04872e-05
1.14483e-05
1.00173e-05
8.47589e-06
9.1672e-06
8.08531e-06
7.06798e-06
7.76524e-06
6.96104e-06
6.60375e-06
7.1939e-06
6.64849e-06
7.02849e-06
7.31598e-06
7.18551e-06
8.23225e-06
8.09691e-06
8.57247e-06
1.01513e-05
9.59982e-06
1.07509e-05
1.20771e-05
1.17405e-05
1.25751e-05
1.06389e-05
1.14588e-05
9.96989e-06
8.67951e-06
9.30099e-06
8.54009e-06
7.78426e-06
7.83774e-06
7.86319e-06
7.63585e-06
7.18296e-06
7.72196e-06
8.02606e-06
7.23572e-06
8.10088e-06
8.93425e-06
7.97309e-06
9.15209e-06
1.05045e-05
9.44648e-06
1.09749e-05
1.24714e-05
1.17797e-05
1.15449e-05
1.06448e-05
1.13831e-05
1.02209e-05
8.92796e-06
9.65217e-06
8.83714e-06
8.06331e-06
8.80988e-06
8.20673e-06
7.93594e-06
8.61775e-06
8.07636e-06
8.33238e-06
8.77794e-06
8.43071e-06
9.2372e-06
9.27457e-06
9.44996e-06
1.07959e-05
1.03224e-05
1.13522e-05
1.29241e-05
1.23637e-05
1.20939e-05
1.08406e-05
1.15228e-05
1.04844e-05
9.43154e-06
9.72165e-06
9.52947e-06
9.01248e-06
8.75175e-06
9.24239e-06
9.1236e-06
8.48259e-06
9.22912e-06
9.47131e-06
8.62305e-06
9.41858e-06
1.00461e-05
9.14371e-06
9.99712e-06
1.10698e-05
1.02271e-05
1.16409e-05
1.33346e-05
1.26327e-05
1.25201e-05
1.19144e-05
1.19055e-05
1.08574e-05
1.0511e-05
1.0215e-05
9.808e-06
1.03084e-05
9.47579e-06
9.56112e-06
1.05524e-05
9.41701e-06
9.69154e-06
1.08722e-05
9.69521e-06
1.00359e-05
1.12674e-05
1.02166e-05
1.06969e-05
1.21126e-05
1.11451e-05
1.18642e-05
1.2917e-05
1.29963e-05
1.32681e-05
1.23931e-05
1.3678e-05
1.09695e-05
1.08425e-05
1.12393e-05
1.01051e-05
1.07761e-05
1.09005e-05
1.00303e-05
1.10962e-05
1.11275e-05
1.02933e-05
1.14488e-05
1.1428e-05
1.07147e-05
1.18866e-05
1.17507e-05
1.14306e-05
1.29432e-05
1.24397e-05
1.23709e-05
1.34329e-05
1.32135e-05
1.76715e-05
1.40967e-05
1.71292e-05
1.05937e-05
1.00077e-05
1.11517e-05
8.23419e-06
8.92817e-06
9.82205e-06
7.2601e-06
9.44642e-06
9.92639e-06
8.0888e-06
1.11804e-05
1.12885e-05
1.01073e-05
1.3545e-05
1.3378e-05
1.26466e-05
1.64268e-05
1.57955e-05
1.5454e-05
1.72215e-05
1.89652e-05
1.56494e-05
1.38148e-05
1.33039e-05
1.06138e-05
9.25231e-06
9.33369e-06
7.85718e-06
7.32621e-06
6.65127e-06
5.93849e-06
7.059e-06
5.2231e-06
5.89467e-06
8.41367e-06
5.9639e-06
7.64215e-06
1.08542e-05
8.27204e-06
1.01256e-05
1.33253e-05
1.08578e-05
1.25985e-05
1.52133e-05
1.32717e-05
1.21816e-05
1.12174e-05
1.19963e-05
1.05717e-05
8.45642e-06
9.0688e-06
7.50562e-06
5.57553e-06
5.97663e-06
5.00677e-06
3.92363e-06
3.83908e-06
4.21925e-06
4.81627e-06
4.16427e-06
5.72829e-06
7.24832e-06
6.43922e-06
8.35463e-06
1.00487e-05
9.38338e-06
1.11694e-05
1.28329e-05
1.24747e-05
1.38446e-05
1.12318e-05
1.20046e-05
1.02692e-05
8.16726e-06
9.63147e-06
7.15815e-06
5.16298e-06
6.62918e-06
4.56845e-06
3.37883e-06
4.33011e-06
3.70509e-06
4.37854e-06
4.07865e-06
5.38021e-06
6.98035e-06
6.09377e-06
8.21226e-06
9.79381e-06
8.87828e-06
1.15248e-05
1.37013e-05
1.24524e-05
1.14924e-05
1.07448e-05
1.17764e-05
1.01758e-05
8.18892e-06
8.86996e-06
7.06556e-06
5.20052e-06
5.8995e-06
4.49287e-06
3.39338e-06
3.76443e-06
3.62584e-06
4.28943e-06
3.95383e-06
5.22919e-06
6.83094e-06
6.15852e-06
7.85393e-06
9.39667e-06
8.50028e-06
1.0661e-05
1.15287e-05
1.13684e-05
1.31857e-05
1.11311e-05
1.17461e-05
1.01223e-05
8.27481e-06
9.33626e-06
7.02366e-06
5.50312e-06
6.30286e-06
4.52372e-06
3.96508e-06
4.18088e-06
3.70986e-06
4.60226e-06
4.09595e-06
5.29124e-06
6.78187e-06
6.00648e-06
8.07964e-06
9.50378e-06
8.9233e-06
1.00103e-05
1.10457e-05
1.11981e-05
1.16868e-05
1.06654e-05
1.17154e-05
9.92305e-06
8.35271e-06
9.4123e-06
7.16888e-06
5.78605e-06
6.58602e-06
5.20201e-06
4.34385e-06
4.64382e-06
4.62905e-06
4.80656e-06
4.45148e-06
5.77831e-06
6.73321e-06
6.06538e-06
7.98159e-06
9.30026e-06
8.53818e-06
1.03141e-05
1.17995e-05
1.1435e-05
1.33597e-05
1.0909e-05
1.15285e-05
9.94525e-06
8.15162e-06
8.67878e-06
7.39714e-06
5.80702e-06
6.36828e-06
5.61196e-06
4.59489e-06
5.01747e-06
5.00987e-06
5.11841e-06
5.14876e-06
5.89183e-06
6.9858e-06
6.65516e-06
7.84594e-06
9.48147e-06
8.99702e-06
1.05102e-05
1.25808e-05
1.1374e-05
1.14385e-05
1.04749e-05
1.14884e-05
9.99446e-06
8.21757e-06
8.94989e-06
7.5971e-06
6.2806e-06
7.0119e-06
5.96715e-06
5.37316e-06
5.95299e-06
5.40313e-06
5.81368e-06
5.97012e-06
6.14981e-06
7.36762e-06
7.04219e-06
7.94606e-06
9.64817e-06
8.95702e-06
1.03457e-05
1.16208e-05
1.14031e-05
1.28522e-05
1.06563e-05
1.14889e-05
9.82379e-06
8.31464e-06
9.15194e-06
7.90154e-06
6.88272e-06
7.19365e-06
6.74996e-06
6.36045e-06
6.07128e-06
6.39474e-06
6.74144e-06
5.97465e-06
6.91462e-06
7.91867e-06
6.93605e-06
8.29869e-06
9.82073e-06
8.75721e-06
1.05221e-05
1.23424e-05
1.13682e-05
1.13147e-05
1.03297e-05
1.12999e-05
9.91062e-06
8.44653e-06
9.11258e-06
8.10742e-06
7.16795e-06
7.84424e-06
7.08915e-06
6.77173e-06
7.36029e-06
6.81135e-06
7.17717e-06
7.49032e-06
7.30426e-06
8.30268e-06
8.21031e-06
8.60538e-06
1.01393e-05
9.62303e-06
1.07172e-05
1.20229e-05
1.16959e-05
1.24372e-05
1.0526e-05
1.13123e-05
9.89503e-06
8.66447e-06
9.2319e-06
8.58613e-06
7.88866e-06
7.88869e-06
8.00863e-06
7.81e-06
7.32525e-06
7.90537e-06
8.19832e-06
7.39979e-06
8.25281e-06
9.04636e-06
8.09104e-06
9.22555e-06
1.05293e-05
9.48254e-06
1.09604e-05
1.24141e-05
1.1758e-05
1.14237e-05
1.05545e-05
1.1304e-05
1.01755e-05
8.93749e-06
9.66385e-06
8.90762e-06
8.18788e-06
8.9355e-06
8.37329e-06
8.13054e-06
8.82197e-06
8.28112e-06
8.52861e-06
9.00016e-06
8.60667e-06
9.37558e-06
9.45248e-06
9.54872e-06
1.08456e-05
1.04102e-05
1.13775e-05
1.29305e-05
1.23606e-05
1.20078e-05
1.07962e-05
1.14423e-05
1.04918e-05
9.48415e-06
9.71935e-06
9.64187e-06
9.16402e-06
8.85412e-06
9.43475e-06
9.33592e-06
8.66264e-06
9.45331e-06
9.6903e-06
8.82595e-06
9.61982e-06
1.02176e-05
9.31188e-06
1.01271e-05
1.11518e-05
1.03209e-05
1.16669e-05
1.32992e-05
1.26537e-05
1.25643e-05
1.20169e-05
1.19493e-05
1.09114e-05
1.06681e-05
1.03073e-05
9.95773e-06
1.05487e-05
9.65439e-06
9.7845e-06
1.08452e-05
9.65616e-06
9.94492e-06
1.11638e-05
9.94637e-06
1.02673e-05
1.15045e-05
1.04259e-05
1.08589e-05
1.22353e-05
1.1264e-05
1.18788e-05
1.28431e-05
1.29536e-05
1.34165e-05
1.2566e-05
1.38859e-05
1.10691e-05
1.10342e-05
1.14021e-05
1.02832e-05
1.10313e-05
1.11366e-05
1.02668e-05
1.13965e-05
1.14189e-05
1.05541e-05
1.17479e-05
1.17369e-05
1.09553e-05
1.21388e-05
1.20317e-05
1.16144e-05
1.31088e-05
1.26675e-05
1.2411e-05
1.34441e-05
1.32995e-05
1.78936e-05
1.42737e-05
1.74219e-05
1.06759e-05
1.00634e-05
1.12103e-05
8.26542e-06
8.85744e-06
9.75707e-06
7.15898e-06
9.2659e-06
9.72874e-06
7.90507e-06
1.09879e-05
1.10557e-05
1.00606e-05
1.36606e-05
1.35123e-05
1.26536e-05
1.61867e-05
1.53645e-05
1.52564e-05
1.69155e-05
1.80652e-05
1.57834e-05
1.3963e-05
1.34062e-05
1.06482e-05
9.30515e-06
9.35881e-06
7.86805e-06
7.28638e-06
6.64075e-06
5.85995e-06
6.92204e-06
5.12461e-06
5.75145e-06
8.28308e-06
5.84471e-06
7.46935e-06
1.06509e-05
8.14517e-06
1.00413e-05
1.33811e-05
1.10319e-05
1.29249e-05
1.55571e-05
1.353e-05
1.21864e-05
1.12833e-05
1.21523e-05
1.05944e-05
8.53061e-06
9.13918e-06
7.51376e-06
5.59364e-06
6.01483e-06
4.9104e-06
3.80566e-06
3.74979e-06
4.01302e-06
4.65139e-06
3.99067e-06
5.5722e-06
7.34938e-06
6.63552e-06
8.46182e-06
1.04156e-05
9.75243e-06
1.20844e-05
1.47486e-05
1.3206e-05
1.37634e-05
1.13292e-05
1.19715e-05
1.02515e-05
8.10607e-06
9.52038e-06
7.1185e-06
5.1136e-06
6.52971e-06
4.47862e-06
3.26427e-06
4.14733e-06
3.52197e-06
4.26288e-06
3.86689e-06
5.17842e-06
7.23103e-06
5.91539e-06
8.37188e-06
1.04471e-05
9.02736e-06
1.21248e-05
1.46862e-05
1.37481e-05
1.15348e-05
1.0457e-05
1.13433e-05
9.96034e-06
7.91638e-06
8.60573e-06
6.79725e-06
4.97323e-06
5.55146e-06
4.2963e-06
3.47783e-06
3.4596e-06
3.56834e-06
4.50725e-06
3.90531e-06
5.27092e-06
7.10157e-06
6.54422e-06
8.22368e-06
1.00849e-05
8.92649e-06
1.12746e-05
1.11085e-05
1.10757e-05
1.36713e-05
1.06215e-05
1.18444e-05
9.59069e-06
7.76527e-06
9.00453e-06
6.41138e-06
4.94671e-06
5.8909e-06
4.28319e-06
3.66565e-06
3.88449e-06
3.92115e-06
4.74759e-06
4.00476e-06
5.64921e-06
7.14216e-06
6.08082e-06
8.21707e-06
9.87127e-06
8.89484e-06
1.11578e-05
1.2633e-05
1.18798e-05
1.14155e-05
1.0238e-05