/*--------------------------------*- C++ -*----------------------------------*\
| =========                 |                                                 |
| \\      /  F ield         | OpenFOAM: The Open Source CFD Toolbox           |
|  \\    /   O peration     | Version:  v2012                                 |
|   \\  /    A nd           | Website:  www.openfoam.com                      |
|    \\/     M anipulation  |                                                 |
\*---------------------------------------------------------------------------*/
FoamFile
{
    version     2.0;
    format      ascii;
    class       pointVectorField;
    location    "1";
    object      pointD;
}
// * * * * * * * * * * * * * * * * * * * * * * * * * * * * * * * * * * * * * //

dimensions      [0 1 0 0 0 0 0];


internalField   nonuniform List<vector> 
10701
(
(2.00549e-05 0 -8.27996e-05)
(1.61327e-06 0 -1.4527e-06)
(0 2.67709e-05 -0.00016075)
(0 1.14653e-06 -9.66702e-07)
(1.97545e-05 0 -7.4879e-05)
(0 2.24778e-05 -4.80854e-05)
(1.47841e-05 2.50069e-05 -0.000147209)
(1.57744e-05 2.09932e-05 -6.28812e-05)
(3.89672e-07 5.33866e-07 -4.80011e-07)
(-1.5777e-05 -2.76189e-05 -0.000148406)
(0 -3.39942e-05 -0.000163614)
(0 -2.4575e-05 -4.94182e-05)
(-1.63161e-05 -2.16657e-05 -6.37906e-05)
(-2.27043e-05 0 -7.58443e-05)
(-2.31397e-05 0 -8.37148e-05)
(-1.42468e-06 0 -1.6001e-06)
(-4.82937e-07 -6.4824e-07 -6.30756e-07)
(0 -1.0258e-06 -1.08241e-06)
(1.66365e-05 2.615e-05 -0.000139536)
(1.71789e-05 2.53693e-05 -0.000129592)
(1.74726e-05 2.46824e-05 -0.000118971)
(1.75246e-05 2.40459e-05 -0.000108169)
(1.7383e-05 2.34365e-05 -9.72493e-05)
(1.70678e-05 2.28005e-05 -8.62398e-05)
(1.6578e-05 2.20636e-05 -7.51824e-05)
(1.51871e-05 2.02454e-05 -5.59254e-05)
(1.47209e-05 1.96451e-05 -5.11278e-05)
(1.42338e-05 1.89972e-05 -4.653e-05)
(1.37116e-05 1.82946e-05 -4.21324e-05)
(1.31459e-05 1.7543e-05 -3.79384e-05)
(1.25407e-05 1.67359e-05 -3.3957e-05)
(1.1896e-05 1.58655e-05 -3.01947e-05)
(1.12069e-05 1.4934e-05 -2.66562e-05)
(1.04779e-05 1.39523e-05 -2.33441e-05)
(9.71228e-06 1.29216e-05 -2.02599e-05)
(8.91257e-06 1.18434e-05 -1.74065e-05)
(8.07601e-06 1.07196e-05 -1.47734e-05)
(7.22654e-06 9.58202e-06 -1.24129e-05)
(6.2948e-06 8.33126e-06 -1.01484e-05)
(5.35368e-06 7.06914e-06 -8.17608e-06)
(4.37779e-06 5.77568e-06 -6.41467e-06)
(3.37865e-06 4.46166e-06 -4.83451e-06)
(2.3741e-06 3.15108e-06 -3.36423e-06)
(1.38189e-06 1.85823e-06 -1.886e-06)
(1.44413e-05 2.54791e-05 -0.000147499)
(1.35691e-05 2.51929e-05 -0.000148483)
(1.28338e-05 2.53801e-05 -0.000149856)
(1.21299e-05 2.55986e-05 -0.000151203)
(1.14285e-05 2.58345e-05 -0.000152502)
(1.07259e-05 2.60794e-05 -0.000153747)
(1.00193e-05 2.63271e-05 -0.00015493)
(9.30652e-06 2.65715e-05 -0.000156044)
(8.58649e-06 2.68066e-05 -0.000157082)
(7.85929e-06 2.70269e-05 -0.000158039)
(7.12289e-06 2.72278e-05 -0.000158915)
(6.382e-06 2.74212e-05 -0.000159725)
(5.63189e-06 2.75773e-05 -0.000160419)
(4.86412e-06 2.76863e-05 -0.00016099)
(4.09376e-06 2.77628e-05 -0.000161466)
(3.32032e-06 2.77975e-05 -0.000161838)
(2.54283e-06 2.77815e-05 -0.000162101)
(1.75852e-06 2.77035e-05 -0.00016225)
(9.71783e-07 2.80465e-05 -0.000162012)
(1.59345e-05 2.44146e-05 -0.000143219)
(1.65443e-05 2.30976e-05 -0.000139825)
(1.74133e-05 2.21802e-05 -0.000136561)
(1.82312e-05 2.12088e-05 -0.000133155)
(1.89901e-05 2.0175e-05 -0.000129596)
(1.968e-05 1.90737e-05 -0.000125904)
(2.02963e-05 1.79136e-05 -0.000122105)
(2.08343e-05 1.67073e-05 -0.000118231)
(2.12885e-05 1.54487e-05 -0.000114309)
(2.16498e-05 1.41353e-05 -0.000110369)
(2.19201e-05 1.27884e-05 -0.000106452)
(2.21002e-05 1.1432e-05 -0.000102614)
(2.21901e-05 1.00466e-05 -9.88962e-05)
(2.21889e-05 8.63481e-06 -9.53506e-05)
(2.2107e-05 7.21538e-06 -9.20492e-05)
(2.19547e-05 5.81239e-06 -8.90825e-05)
(2.17479e-05 4.42726e-06 -8.65562e-05)
(2.15166e-05 3.08229e-06 -8.46026e-05)
(2.15159e-05 1.87841e-06 -8.33305e-05)
(2.04852e-05 0 -8.20449e-05)
(2.04335e-05 0 -8.1093e-05)
(2.03829e-05 0 -8.01078e-05)
(2.03443e-05 0 -7.90977e-05)
(2.03071e-05 0 -7.80648e-05)
(2.02669e-05 0 -7.70145e-05)
(2.05381e-05 0 -7.60268e-05)
(2.01017e-05 0 -7.18288e-05)
(1.99877e-05 0 -6.80025e-05)
(1.98218e-05 0 -6.40477e-05)
(1.96013e-05 0 -5.99953e-05)
(1.93113e-05 0 -5.58667e-05)
(1.89516e-05 0 -5.16848e-05)
(1.85152e-05 0 -4.7463e-05)
(1.79962e-05 0 -4.32199e-05)
(1.73797e-05 0 -3.89712e-05)
(1.66508e-05 0 -3.47516e-05)
(1.58078e-05 0 -3.05889e-05)
(1.48425e-05 0 -2.65059e-05)
(1.37409e-05 0 -2.25365e-05)
(1.24754e-05 0 -1.87094e-05)
(1.10715e-05 0 -1.51207e-05)
(9.42618e-06 0 -1.15852e-05)
(7.64044e-06 0 -8.48831e-06)
(5.63744e-06 0 -5.73476e-06)
(3.6728e-06 0 -3.44027e-06)
(0 2.80411e-05 -0.000148259)
(0 2.80316e-05 -0.000134087)
(0 2.79487e-05 -0.000119446)
(0 2.76803e-05 -0.000104401)
(0 2.71171e-05 -8.90737e-05)
(0 2.61239e-05 -7.36972e-05)
(0 2.51316e-05 -5.99812e-05)
(0 2.22616e-05 -4.40723e-05)
(0 2.15483e-05 -4.05423e-05)
(0 2.07505e-05 -3.70069e-05)
(0 1.98781e-05 -3.36142e-05)
(0 1.89589e-05 -3.03888e-05)
(0 1.79937e-05 -2.73249e-05)
(0 1.69834e-05 -2.44303e-05)
(0 1.59315e-05 -2.17018e-05)
(0 1.48352e-05 -1.91453e-05)
(0 1.37052e-05 -1.67595e-05)
(0 1.25387e-05 -1.45374e-05)
(0 1.13382e-05 -1.24781e-05)
(0 1.01056e-05 -1.05775e-05)
(0 8.84198e-06 -8.82953e-06)
(0 7.54814e-06 -7.22528e-06)
(0 6.22434e-06 -5.75224e-06)
(0 4.87133e-06 -4.39174e-06)
(0 3.49864e-06 -3.11318e-06)
(0 2.35399e-06 -2.04373e-06)
(2.20975e-05 1.17671e-06 -7.4443e-05)
(2.23691e-05 2.1809e-06 -7.43227e-05)
(2.25798e-05 3.2953e-06 -7.43573e-05)
(2.27484e-05 4.45116e-06 -7.4375e-05)
(2.28627e-05 5.64138e-06 -7.43252e-05)
(2.29002e-05 6.85406e-06 -7.41791e-05)
(2.28486e-05 8.07673e-06 -7.39245e-05)
(2.2704e-05 9.29492e-06 -7.35561e-05)
(2.24659e-05 1.04954e-05 -7.30735e-05)
(2.21463e-05 1.1665e-05 -7.24828e-05)
(2.17515e-05 1.28001e-05 -7.17981e-05)
(2.12881e-05 1.38929e-05 -7.10277e-05)
(2.07634e-05 1.49397e-05 -7.01796e-05)
(2.0185e-05 1.59381e-05 -6.92657e-05)
(1.95559e-05 1.68867e-05 -6.82959e-05)
(1.88855e-05 1.77853e-05 -6.72755e-05)
(1.8182e-05 1.86336e-05 -6.62192e-05)
(1.74461e-05 1.94282e-05 -6.51427e-05)
(1.66953e-05 2.01796e-05 -6.407e-05)
(6.25315e-07 8.91111e-07 -8.50654e-07)
(6.58259e-07 1.0035e-06 -9.36171e-07)
(6.32375e-07 1.04083e-06 -9.43164e-07)
(5.97218e-07 1.06596e-06 -9.4409e-07)
(5.58288e-07 1.08652e-06 -9.37707e-07)
(5.18953e-07 1.09517e-06 -9.37038e-07)
(4.81992e-07 1.10941e-06 -9.36935e-07)
(4.48894e-07 1.12969e-06 -9.33493e-07)
(4.13746e-07 1.14061e-06 -9.31481e-07)
(3.7823e-07 1.15357e-06 -9.3031e-07)
(3.41783e-07 1.16723e-06 -9.31662e-07)
(3.04646e-07 1.17738e-06 -9.29894e-07)
(2.70356e-07 1.18891e-06 -9.31678e-07)
(2.36935e-07 1.21747e-06 -9.45183e-07)
(1.84427e-07 1.19381e-06 -9.24288e-07)
(1.57035e-07 1.19266e-06 -9.10332e-07)
(1.22184e-07 1.1945e-06 -9.17359e-07)
(8.64539e-08 1.21295e-06 -9.19776e-07)
(4.84022e-08 1.33957e-06 -1.00516e-06)
(1.42453e-06 9.97237e-08 -1.15412e-06)
(1.40168e-06 1.61424e-07 -1.14631e-06)
(1.37568e-06 2.26549e-07 -1.13567e-06)
(1.35405e-06 2.93508e-07 -1.13064e-06)
(1.32958e-06 3.57605e-07 -1.12327e-06)
(1.29865e-06 4.19271e-07 -1.11505e-06)
(1.26951e-06 4.80701e-07 -1.10939e-06)
(1.23581e-06 5.37298e-07 -1.10121e-06)
(1.19946e-06 5.90837e-07 -1.09279e-06)
(1.16091e-06 6.41289e-07 -1.08405e-06)
(1.12015e-06 6.8831e-07 -1.07476e-06)
(1.07762e-06 7.3184e-07 -1.06486e-06)
(1.03366e-06 7.72061e-07 -1.05441e-06)
(9.88389e-07 8.09001e-07 -1.04335e-06)
(9.42e-07 8.42619e-07 -1.0316e-06)
(8.94675e-07 8.7292e-07 -1.01914e-06)
(8.46841e-07 9.00025e-07 -1.00623e-06)
(7.97949e-07 9.23166e-07 -9.89315e-07)
(7.29371e-07 9.23489e-07 -9.42503e-07)
(1.47681e-05 2.17881e-05 -6.14776e-05)
(1.39522e-05 2.23378e-05 -6.03442e-05)
(1.31357e-05 2.28155e-05 -5.92306e-05)
(1.23103e-05 2.32429e-05 -5.81415e-05)
(1.14875e-05 2.36206e-05 -5.70868e-05)
(1.06598e-05 2.39486e-05 -5.60722e-05)
(9.83532e-06 2.42357e-05 -5.51022e-05)
(9.01561e-06 2.44858e-05 -5.41877e-05)
(8.20405e-06 2.46993e-05 -5.33288e-05)
(7.40622e-06 2.48853e-05 -5.25313e-05)
(6.61548e-06 2.50508e-05 -5.18027e-05)
(5.84336e-06 2.51861e-05 -5.11477e-05)
(5.12705e-06 2.5279e-05 -5.05992e-05)
(4.3201e-06 2.53518e-05 -5.00696e-05)
(3.55011e-06 2.5399e-05 -4.96556e-05)
(2.78761e-06 2.54361e-05 -4.93175e-05)
(2.03585e-06 2.54586e-05 -4.90655e-05)
(1.28858e-06 2.54255e-05 -4.88901e-05)
(6.39394e-07 2.52312e-05 -4.85441e-05)
(-1.49502e-05 -2.71977e-05 -0.000148597)
(-1.41432e-05 -2.74271e-05 -0.000150352)
(-1.36957e-05 -2.84436e-05 -0.000152431)
(-1.30564e-05 -2.89297e-05 -0.00015384)
(-1.23462e-05 -2.93905e-05 -0.000155188)
(-1.16051e-05 -2.98586e-05 -0.000156503)
(-1.0851e-05 -3.02822e-05 -0.000157757)
(-1.00718e-05 -3.06803e-05 -0.000158898)
(-9.27719e-06 -3.10606e-05 -0.000159939)
(-8.47145e-06 -3.14207e-05 -0.000160904)
(-7.65185e-06 -3.17609e-05 -0.000161793)
(-6.82025e-06 -3.20786e-05 -0.000162597)
(-5.97789e-06 -3.23725e-05 -0.000163312)
(-5.1257e-06 -3.26418e-05 -0.000163934)
(-4.26398e-06 -3.2887e-05 -0.000164461)
(-3.39235e-06 -3.31102e-05 -0.000164891)
(-2.50894e-06 -3.33167e-05 -0.000165222)
(-1.601e-06 -3.35239e-05 -0.00016544)
(-4.96991e-07 -3.34837e-05 -0.000165561)
(0 -3.32294e-05 -0.000153266)
(0 -3.23838e-05 -0.000138971)
(0 -3.16586e-05 -0.000124262)
(0 -3.04187e-05 -0.000108034)
(0 -3.01624e-05 -9.22763e-05)
(0 -2.7997e-05 -7.72669e-05)
(0 -2.61781e-05 -6.05435e-05)
(-6.81387e-07 -2.56843e-05 -4.98756e-05)
(-1.51608e-06 -2.5801e-05 -4.96916e-05)
(-2.30006e-06 -2.58846e-05 -4.98913e-05)
(-3.09093e-06 -2.59116e-05 -5.01553e-05)
(-3.87741e-06 -2.58919e-05 -5.05178e-05)
(-4.67888e-06 -2.58396e-05 -5.09719e-05)
(-5.48164e-06 -2.57633e-05 -5.14962e-05)
(-6.28035e-06 -2.56607e-05 -5.20967e-05)
(-7.08712e-06 -2.55247e-05 -5.2766e-05)
(-7.89757e-06 -2.53487e-05 -5.3487e-05)
(-8.70618e-06 -2.51606e-05 -5.42936e-05)
(-9.52546e-06 -2.49475e-05 -5.51896e-05)
(-1.03671e-05 -2.46891e-05 -5.61319e-05)
(-1.12065e-05 -2.43919e-05 -5.71091e-05)
(-1.20296e-05 -2.40535e-05 -5.81491e-05)
(-1.28809e-05 -2.36707e-05 -5.92323e-05)
(-1.37488e-05 -2.32476e-05 -6.03514e-05)
(-1.46149e-05 -2.278e-05 -6.14937e-05)
(-1.54841e-05 -2.22466e-05 -6.26358e-05)
(-1.70178e-05 -2.27328e-05 -7.48661e-05)
(-1.75377e-05 -2.36445e-05 -8.64119e-05)
(-1.78307e-05 -2.44045e-05 -9.69098e-05)
(-1.79918e-05 -2.51815e-05 -0.000108337)
(-1.79092e-05 -2.59474e-05 -0.000118638)
(-1.75004e-05 -2.69463e-05 -0.000130607)
(-1.68393e-05 -2.78421e-05 -0.000140756)
(1.0832e-05 1.87384e-05 -0.000148346)
(6.76318e-06 1.18292e-05 -0.00014866)
(2.84944e-06 4.83644e-06 -0.00014893)
(-9.89981e-07 -2.19606e-06 -0.000149148)
(-4.83445e-06 -9.22662e-06 -0.000149317)
(-8.79043e-06 -1.62156e-05 -0.000149408)
(-1.29566e-05 -2.31374e-05 -0.000149385)
(0 2.02685e-05 -0.000162909)
(0 1.21542e-05 -0.000163433)
(0 3.96267e-06 -0.000163864)
(0 -4.27475e-06 -0.000164199)
(0 -1.25454e-05 -0.000164448)
(0 -2.08323e-05 -0.000164607)
(0 -2.91335e-05 -0.000164392)
(0 1.68944e-05 -4.79298e-05)
(0 1.05414e-05 -4.78148e-05)
(0 4.4727e-06 -4.77937e-05)
(0 -1.44954e-06 -4.7905e-05)
(0 -7.39821e-06 -4.81611e-05)
(0 -1.35457e-05 -4.85551e-05)
(0 -2.00064e-05 -4.90619e-05)
(1.04702e-05 1.3916e-05 -6.28252e-05)
(6.49356e-06 8.61562e-06 -6.28415e-05)
(2.62892e-06 3.48797e-06 -6.29113e-05)
(-1.19061e-06 -1.56799e-06 -6.30482e-05)
(-5.0376e-06 -6.66207e-06 -6.32536e-05)
(-8.98776e-06 -1.19067e-05 -6.35156e-05)
(-1.31237e-05 -1.74088e-05 -6.38285e-05)
(-2.34639e-05 -1.22976e-06 -7.56251e-05)
(-2.35734e-05 -2.46063e-06 -7.57931e-05)
(-2.37773e-05 -3.78037e-06 -7.58205e-05)
(-2.3949e-05 -4.98794e-06 -7.58143e-05)
(-2.40789e-05 -6.20335e-06 -7.57569e-05)
(-2.41213e-05 -7.65704e-06 -7.55514e-05)
(-2.40694e-05 -8.89226e-06 -7.52853e-05)
(-2.38733e-05 -1.00706e-05 -7.44749e-05)
(-2.3602e-05 -1.12466e-05 -7.40847e-05)
(-2.32374e-05 -1.2521e-05 -7.37746e-05)
(-2.27935e-05 -1.36694e-05 -7.30621e-05)
(-2.22791e-05 -1.47658e-05 -7.22712e-05)
(-2.16971e-05 -1.58171e-05 -7.14037e-05)
(-2.10602e-05 -1.6807e-05 -7.04573e-05)
(-2.03796e-05 -1.77291e-05 -6.94599e-05)
(-1.9654e-05 -1.86009e-05 -6.84252e-05)
(-1.88919e-05 -1.94142e-05 -6.73424e-05)
(-1.80951e-05 -2.01671e-05 -6.62317e-05)
(-1.71798e-05 -2.09665e-05 -6.49644e-05)
(-1.63112e-05 -2.65794e-05 -0.0001457)
(-1.7512e-05 -2.55759e-05 -0.00014258)
(-1.88297e-05 -2.45825e-05 -0.000138684)
(-1.98841e-05 -2.37996e-05 -0.000135362)
(-2.04051e-05 -2.25695e-05 -0.000132131)
(-2.10571e-05 -2.10593e-05 -0.000127994)
(-2.22013e-05 -2.01067e-05 -0.000123936)
(-2.24669e-05 -1.8742e-05 -0.000120373)
(-2.29568e-05 -1.73754e-05 -0.000116333)
(-2.33395e-05 -1.59501e-05 -0.000112271)
(-2.36317e-05 -1.44644e-05 -0.000108234)
(-2.38247e-05 -1.29242e-05 -0.000104261)
(-2.39223e-05 -1.13632e-05 -0.00010042)
(-2.39321e-05 -9.80215e-06 -9.68004e-05)
(-2.38839e-05 -8.22606e-06 -9.34657e-05)
(-2.3716e-05 -6.60653e-06 -9.04314e-05)
(-2.34949e-05 -5.00119e-06 -8.78399e-05)
(-2.32599e-05 -3.41375e-06 -8.58603e-05)
(-2.29761e-05 -1.5797e-06 -8.4466e-05)
(-2.28618e-05 0 -8.30034e-05)
(-2.29867e-05 0 -8.19749e-05)
(-2.29254e-05 0 -8.10264e-05)
(-2.30763e-05 0 -8.01842e-05)
(-2.27959e-05 0 -7.93211e-05)
(-2.25499e-05 0 -7.8166e-05)
(-2.25086e-05 0 -7.69242e-05)
(1.51455e-05 0 -7.51394e-05)
(9.45407e-06 0 -7.53903e-05)
(3.87002e-06 0 -7.55839e-05)
(-1.68702e-06 0 -7.57394e-05)
(-7.48387e-06 0 -7.5839e-05)
(-1.31176e-05 0 -7.58699e-05)
(-1.88164e-05 0 -7.58515e-05)
(1.49233e-05 0 -8.31912e-05)
(9.1498e-06 0 -8.34136e-05)
(3.41765e-06 0 -8.35981e-05)
(-2.28915e-06 0 -8.37449e-05)
(-8.01772e-06 0 -8.38543e-05)
(-1.3806e-05 0 -8.39031e-05)
(-1.96096e-05 0 -8.38315e-05)
(-2.23481e-05 0 -7.32407e-05)
(-2.21225e-05 0 -6.93987e-05)
(-2.18625e-05 0 -6.54404e-05)
(-2.13143e-05 0 -6.09482e-05)
(-2.14056e-05 0 -5.69039e-05)
(-2.05182e-05 0 -5.27008e-05)
(-2.0453e-05 0 -4.85693e-05)
(-1.94034e-05 0 -4.43102e-05)
(-1.91589e-05 0 -4.01774e-05)
(-1.82084e-05 0 -3.63913e-05)
(-1.72709e-05 0 -3.22175e-05)
(-1.62097e-05 0 -2.81295e-05)
(-1.5013e-05 0 -2.41534e-05)
(-1.36657e-05 0 -2.03157e-05)
(-1.21527e-05 0 -1.66512e-05)
(-1.04607e-05 0 -1.32028e-05)
(-8.57081e-06 0 -9.99479e-06)
(-6.42993e-06 0 -7.01259e-06)
(-3.57058e-06 0 -3.86665e-06)
(-8.67338e-07 -7.76144e-08 -8.38132e-07)
(-9.00173e-07 -1.03929e-07 -8.67651e-07)
(-9.61266e-07 -1.58988e-07 -9.38649e-07)
(-8.22577e-07 -1.72823e-07 -8.01242e-07)
(-9.28997e-07 -2.46501e-07 -9.20776e-07)
(-8.51946e-07 -2.66259e-07 -8.53869e-07)
(-8.32537e-07 -3.0626e-07 -8.44323e-07)
(-8.12926e-07 -3.44053e-07 -8.36102e-07)
(-7.92361e-07 -3.80607e-07 -8.2811e-07)
(-7.70679e-07 -4.15926e-07 -8.20114e-07)
(-7.47814e-07 -4.49876e-07 -8.11906e-07)
(-7.2384e-07 -4.8224e-07 -8.03364e-07)
(-6.98937e-07 -5.12954e-07 -7.94516e-07)
(-6.73263e-07 -5.42055e-07 -7.85427e-07)
(-6.46929e-07 -5.69601e-07 -7.76145e-07)
(-6.19951e-07 -5.95643e-07 -7.6669e-07)
(-5.91938e-07 -6.2015e-07 -7.56874e-07)
(-5.6146e-07 -6.42918e-07 -7.44975e-07)
(-5.06235e-07 -6.19261e-07 -6.77226e-07)
(-1.53197e-06 -2.00344e-06 -2.16862e-06)
(-2.81234e-06 -3.62911e-06 -4.15301e-06)
(-3.85412e-06 -4.9704e-06 -5.87711e-06)
(-4.85445e-06 -6.27111e-06 -7.66098e-06)
(-5.82052e-06 -7.54367e-06 -9.57981e-06)
(-6.75283e-06 -8.77803e-06 -1.16656e-05)
(-7.65879e-06 -9.978e-06 -1.39423e-05)
(-8.53707e-06 -1.11433e-05 -1.64285e-05)
(-9.38525e-06 -1.22751e-05 -1.91318e-05)
(-1.01996e-05 -1.3367e-05 -2.20572e-05)
(-1.09785e-05 -1.44074e-05 -2.52054e-05)
(-1.17202e-05 -1.5401e-05 -2.85745e-05)
(-1.24113e-05 -1.63408e-05 -3.2157e-05)
(-1.30075e-05 -1.71482e-05 -3.55389e-05)
(-1.36681e-05 -1.80315e-05 -3.96494e-05)
(-1.42987e-05 -1.88881e-05 -4.42076e-05)
(-1.48079e-05 -1.95714e-05 -4.81613e-05)
(-1.53599e-05 -2.03228e-05 -5.29687e-05)
(-1.58612e-05 -2.10284e-05 -5.82233e-05)
(6.1249e-07 0 -7.08707e-07)
(3.29968e-07 0 -5.21038e-07)
(1.47412e-07 0 -4.66846e-07)
(-7.38904e-09 0 -4.68307e-07)
(-1.64791e-07 0 -5.1663e-07)
(-3.72316e-07 0 -6.5239e-07)
(-8.08269e-07 0 -1.05689e-06)
(0 0 0)
(0 0 0)
(0 0 0)
(0 0 0)
(0 0 0)
(0 0 0)
(0 0 0)
(-5.15533e-07 -7.42843e-07 -7.43117e-07)
(-5.10131e-07 -7.7468e-07 -7.48877e-07)
(-4.7322e-07 -7.93238e-07 -7.46255e-07)
(-4.17538e-07 -7.5994e-07 -7.0782e-07)
(-4.38148e-07 -8.55857e-07 -7.98308e-07)
(-3.73076e-07 -7.86431e-07 -7.15553e-07)
(-3.76499e-07 -8.78808e-07 -7.94677e-07)
(-3.2676e-07 -8.28081e-07 -7.10062e-07)
(-3.32889e-07 -9.35943e-07 -8.03271e-07)
(-2.92333e-07 -9.02487e-07 -7.37706e-07)
(-2.61452e-07 -9.16026e-07 -7.36706e-07)
(-2.27422e-07 -9.08834e-07 -7.27981e-07)
(-1.89099e-07 -8.64052e-07 -6.95211e-07)
(-1.85877e-07 -9.74083e-07 -7.8848e-07)
(-1.43557e-07 -9.30351e-07 -7.22756e-07)
(-1.1326e-07 -8.79252e-07 -6.90697e-07)
(-1.05547e-07 -1.0034e-06 -7.99955e-07)
(-5.35113e-08 -8.94038e-07 -6.93124e-07)
(-5.06397e-08 -9.46502e-07 -7.49526e-07)
(0 -2.15581e-06 -2.33367e-06)
(0 -3.99878e-06 -4.09443e-06)
(0 -5.4885e-06 -5.55386e-06)
(0 -6.92778e-06 -7.04539e-06)
(0 -8.32576e-06 -8.61728e-06)
(0 -9.68748e-06 -1.02975e-05)
(0 -1.10153e-05 -1.21035e-05)
(0 -1.23097e-05 -1.40476e-05)
(0 -1.35703e-05 -1.61388e-05)
(0 -1.47959e-05 -1.83845e-05)
(0 -1.5985e-05 -2.07907e-05)
(0 -1.7132e-05 -2.33629e-05)
(0 -1.83165e-05 -2.58003e-05)
(0 -1.89382e-05 -2.85731e-05)
(0 -2.02768e-05 -3.20054e-05)
(0 -2.1359e-05 -3.48849e-05)
(0 -2.18833e-05 -3.77863e-05)
(0 -2.25941e-05 -4.16347e-05)
(0 -2.35426e-05 -4.59063e-05)
(0 3.3527e-07 -3.30247e-07)
(0 1.91992e-07 -2.30338e-07)
(0 8.82387e-08 -2.06553e-07)
(0 -3.58292e-09 -2.08197e-07)
(0 -9.50629e-08 -2.29242e-07)
(0 -1.97009e-07 -2.89819e-07)
(0 -3.98041e-07 -6.00864e-07)
(1.57988e-05 2.66119e-05 -0.000139411)
(1.62784e-05 2.59781e-05 -0.000128988)
(1.65395e-05 2.53508e-05 -0.000117906)
(1.65678e-05 2.47472e-05 -0.000106634)
(1.64021e-05 2.41447e-05 -9.52352e-05)
(1.60566e-05 2.34823e-05 -8.37461e-05)
(1.55564e-05 2.27155e-05 -7.25714e-05)
(1.50306e-05 2.69455e-05 -0.000140567)
(1.54717e-05 2.64841e-05 -0.00012991)
(1.5728e-05 2.5936e-05 -0.000118509)
(1.57544e-05 2.53793e-05 -0.000106896)
(1.55871e-05 2.47972e-05 -9.51355e-05)
(1.52401e-05 2.41279e-05 -8.3272e-05)
(1.47394e-05 2.33268e-05 -7.17379e-05)
(1.4261e-05 2.72801e-05 -0.000141699)
(1.46634e-05 2.69364e-05 -0.000130782)
(1.4905e-05 2.64718e-05 -0.000119076)
(1.49261e-05 2.59659e-05 -0.000107133)
(1.47582e-05 2.54056e-05 -9.50227e-05)
(1.44147e-05 2.47284e-05 -8.27979e-05)
(1.39194e-05 2.38878e-05 -7.09126e-05)
(1.34911e-05 2.76105e-05 -0.000142784)
(1.38543e-05 2.73499e-05 -0.000131603)
(1.40762e-05 2.69611e-05 -0.000119604)
(1.40882e-05 2.65056e-05 -0.000107342)
(1.39184e-05 2.59663e-05 -9.48956e-05)
(1.35804e-05 2.52784e-05 -8.23239e-05)
(1.30918e-05 2.43962e-05 -7.0103e-05)
(1.27184e-05 2.79378e-05 -0.000143821)
(1.30424e-05 2.77367e-05 -0.000132379)
(1.32398e-05 2.74102e-05 -0.000120095)
(1.32364e-05 2.70039e-05 -0.000107529)
(1.30679e-05 2.64825e-05 -9.47569e-05)
(1.27373e-05 2.57812e-05 -8.18535e-05)
(1.22582e-05 2.48561e-05 -6.93122e-05)
(1.19376e-05 2.82634e-05 -0.000144805)
(1.22199e-05 2.81042e-05 -0.000133109)
(1.23846e-05 2.78315e-05 -0.000120552)
(1.23716e-05 2.74646e-05 -0.000107691)
(1.22088e-05 2.69557e-05 -9.46084e-05)
(1.18873e-05 2.62394e-05 -8.13905e-05)
(1.14202e-05 2.52703e-05 -6.85456e-05)
(1.11469e-05 2.85847e-05 -0.000145734)
(1.1385e-05 2.84571e-05 -0.000133786)
(1.15204e-05 2.82257e-05 -0.000120966)
(1.15029e-05 2.7885e-05 -0.000107826)
(1.13432e-05 2.73874e-05 -9.44533e-05)
(1.10327e-05 2.6655e-05 -8.09386e-05)
(1.05807e-05 2.56416e-05 -6.78075e-05)
(1.03441e-05 2.88946e-05 -0.000146602)
(1.05421e-05 2.87883e-05 -0.000134413)
(1.06533e-05 2.85864e-05 -0.000121342)
(1.06282e-05 2.82691e-05 -0.000107941)
(1.04733e-05 2.77794e-05 -9.42949e-05)
(1.01766e-05 2.703e-05 -8.05022e-05)
(9.74166e-06 2.59725e-05 -6.71051e-05)
(9.52823e-06 2.91885e-05 -0.000147405)
(9.68936e-06 2.90969e-05 -0.000134988)
(9.77778e-06 2.89174e-05 -0.000121684)
(9.7477e-06 2.86183e-05 -0.000108038)
(9.60268e-06 2.81334e-05 -9.41378e-05)
(9.32307e-06 2.73674e-05 -8.00864e-05)
(8.90401e-06 2.62688e-05 -6.64399e-05)
(8.70172e-06 2.94616e-05 -0.000148142)
(8.82474e-06 2.93811e-05 -0.000135512)
(8.89173e-06 2.92181e-05 -0.00012199)
(8.86002e-06 2.89327e-05 -0.00010812)
(8.72659e-06 2.8447e-05 -9.39882e-05)
(8.46309e-06 2.76641e-05 -7.97019e-05)
(8.07195e-06 2.65244e-05 -6.58234e-05)
(7.85761e-06 2.97146e-05 -0.00014881)
(7.94247e-06 2.9638e-05 -0.000135983)
(7.99328e-06 2.9487e-05 -0.000122261)
(7.96081e-06 2.921e-05 -0.000108187)
(7.83241e-06 2.87242e-05 -9.3846e-05)
(7.58799e-06 2.79269e-05 -7.93472e-05)
(7.23538e-06 2.67548e-05 -6.52626e-05)
(6.99139e-06 2.9943e-05 -0.000149405)
(7.04462e-06 2.98626e-05 -0.000136397)
(7.08632e-06 2.97222e-05 -0.000122493)
(7.05132e-06 2.94551e-05 -0.000108234)
(6.9306e-06 2.89721e-05 -9.37042e-05)
(6.71401e-06 2.81575e-05 -7.90131e-05)
(6.40257e-06 2.69495e-05 -6.47457e-05)
(6.10669e-06 3.01266e-05 -0.000149915)
(6.14009e-06 3.00502e-05 -0.000136749)
(6.17366e-06 2.9921e-05 -0.000122687)
(6.14082e-06 2.96641e-05 -0.000108264)
(6.03539e-06 2.91815e-05 -9.35654e-05)
(5.84865e-06 2.83506e-05 -7.87067e-05)
(5.58099e-06 2.71074e-05 -6.42812e-05)
(5.21328e-06 3.02708e-05 -0.000150345)
(5.22828e-06 3.01992e-05 -0.00013704)
(5.25727e-06 3.00827e-05 -0.000122842)
(5.23098e-06 2.98366e-05 -0.000108278)
(5.14315e-06 2.93548e-05 -9.34354e-05)
(4.98665e-06 2.85092e-05 -7.84342e-05)
(4.76162e-06 2.72347e-05 -6.38762e-05)
(4.31311e-06 3.03712e-05 -0.00015069)
(4.31209e-06 3.03077e-05 -0.00013727)
(4.3405e-06 3.02072e-05 -0.000122959)
(4.32267e-06 2.99731e-05 -0.000108278)
(4.25271e-06 2.94933e-05 -9.33152e-05)
(4.12617e-06 2.86353e-05 -7.8197e-05)
(3.9431e-06 2.73334e-05 -6.35307e-05)
(3.40633e-06 3.04238e-05 -0.000150949)
(3.39593e-06 3.03749e-05 -0.000137437)
(3.42681e-06 3.02947e-05 -0.000123037)
(3.41762e-06 3.00746e-05 -0.000108264)
(3.36434e-06 2.9598e-05 -9.32052e-05)
(3.2667e-06 2.87299e-05 -7.79952e-05)
(3.12548e-06 2.74057e-05 -6.32458e-05)
(2.49385e-06 3.04241e-05 -0.000151117)
(2.48412e-06 3.04031e-05 -0.000137535)
(2.51884e-06 3.03477e-05 -0.000123074)
(2.51688e-06 3.01434e-05 -0.000108232)
(2.47756e-06 2.96708e-05 -9.31015e-05)
(2.40615e-06 2.87937e-05 -7.78253e-05)
(2.30606e-06 2.74478e-05 -6.30227e-05)
(1.53952e-06 3.0388e-05 -0.000151182)
(1.50328e-06 3.04103e-05 -0.000137555)
(1.5409e-06 3.03787e-05 -0.000123062)
(1.54611e-06 3.01891e-05 -0.000108177)
(1.52012e-06 2.97184e-05 -9.29968e-05)
(1.47374e-06 2.88301e-05 -7.76774e-05)
(1.43192e-06 2.74376e-05 -6.28552e-05)
(6.04836e-07 3.03361e-05 -0.000150421)
(5.72418e-07 3.03786e-05 -0.000136352)
(6.00924e-07 3.03528e-05 -0.000121804)
(5.99405e-07 3.01508e-05 -0.000106855)
(5.72919e-07 2.96458e-05 -9.16163e-05)
(5.51111e-07 2.86901e-05 -7.62666e-05)
(5.7794e-07 2.72917e-05 -6.2227e-05)
(2.22186e-05 1.35858e-06 -7.61843e-05)
(2.22602e-05 1.43553e-06 -7.72721e-05)
(2.23085e-05 1.47709e-06 -7.83887e-05)
(2.23499e-05 1.52682e-06 -7.94812e-05)
(2.23925e-05 1.58957e-06 -8.05495e-05)
(2.24191e-05 1.66483e-06 -8.15981e-05)
(2.24819e-05 1.75757e-06 -8.25308e-05)
(2.24861e-05 2.47975e-06 -7.63246e-05)
(2.25324e-05 2.58941e-06 -7.75819e-05)
(2.25909e-05 2.65535e-06 -7.8867e-05)
(2.26412e-05 2.72689e-06 -8.01229e-05)
(2.26929e-05 2.81193e-06 -8.1352e-05)
(2.2736e-05 2.90628e-06 -8.25579e-05)
(2.27974e-05 3.03179e-06 -8.36609e-05)
(2.27051e-05 3.63022e-06 -7.65871e-05)
(2.27695e-05 3.76385e-06 -7.80876e-05)
(2.28473e-05 3.85252e-06 -7.96259e-05)
(2.29129e-05 3.9497e-06 -8.11352e-05)
(2.2976e-05 4.06613e-06 -8.26171e-05)
(2.30184e-05 4.20221e-06 -8.40706e-05)
(2.30767e-05 4.38418e-06 -8.54121e-05)
(2.28943e-05 4.81229e-06 -7.68809e-05)
(2.29894e-05 4.96223e-06 -7.87004e-05)
(2.30905e-05 5.07063e-06 -8.05741e-05)
(2.3174e-05 5.19334e-06 -8.24181e-05)
(2.32486e-05 5.347e-06 -8.42335e-05)
(2.32994e-05 5.53445e-06 -8.60242e-05)
(2.33509e-05 5.78091e-06 -8.76865e-05)
(2.30345e-05 6.02317e-06 -7.7158e-05)
(2.31571e-05 6.18417e-06 -7.9365e-05)
(2.32898e-05 6.31089e-06 -8.16458e-05)
(2.33993e-05 6.46319e-06 -8.3897e-05)
(2.34831e-05 6.66158e-06 -8.61176e-05)
(2.3531e-05 6.90284e-06 -8.83073e-05)
(2.35674e-05 7.20871e-06 -9.03497e-05)
(2.30971e-05 7.25293e-06 -7.73867e-05)
(2.32563e-05 7.43234e-06 -8.00411e-05)
(2.34217e-05 7.58692e-06 -8.27897e-05)
(2.35472e-05 7.7729e-06 -8.55027e-05)
(2.36455e-05 8.01152e-06 -8.81809e-05)
(2.37017e-05 8.29954e-06 -9.08311e-05)
(2.37205e-05 8.66235e-06 -9.33138e-05)
(2.3068e-05 8.49766e-06 -7.75473e-05)
(2.32676e-05 8.70346e-06 -8.06918e-05)
(2.34706e-05 8.8869e-06 -8.39515e-05)
(2.36273e-05 9.10313e-06 -8.71754e-05)
(2.37446e-05 9.37609e-06 -9.03645e-05)
(2.37987e-05 9.71006e-06 -9.35237e-05)
(2.3792e-05 1.01279e-05 -9.64886e-05)
(2.29499e-05 9.74344e-06 -7.76227e-05)
(2.31975e-05 9.97517e-06 -8.12962e-05)
(2.34383e-05 1.01815e-05 -8.5108e-05)
(2.36242e-05 1.04216e-05 -8.88812e-05)
(2.37567e-05 1.07269e-05 -9.26187e-05)
(2.38099e-05 1.11058e-05 -9.63262e-05)
(2.37776e-05 1.15741e-05 -9.98123e-05)
(2.27458e-05 1.09719e-05 -7.76127e-05)
(2.30383e-05 1.12273e-05 -8.18487e-05)
(2.33185e-05 1.14572e-05 -8.62445e-05)
(2.35302e-05 1.17213e-05 -9.05988e-05)
(2.3677e-05 1.20607e-05 -9.49156e-05)
(2.37312e-05 1.24812e-05 -9.92024e-05)
(2.36715e-05 1.29937e-05 -0.000103238)
(2.24586e-05 1.21745e-05 -7.75222e-05)
(2.27948e-05 1.24595e-05 -8.2345e-05)
(2.31091e-05 1.27186e-05 -8.73505e-05)
(2.33471e-05 1.30145e-05 -9.23105e-05)
(2.3509e-05 1.33867e-05 -9.72297e-05)
(2.35544e-05 1.38476e-05 -0.000102119)
(2.34635e-05 1.44074e-05 -0.000106726)
(2.20951e-05 1.33468e-05 -7.73555e-05)
(2.24713e-05 1.36691e-05 -8.27813e-05)
(2.28165e-05 1.39662e-05 -8.84106e-05)
(2.30761e-05 1.42982e-05 -9.39937e-05)
(2.32398e-05 1.47075e-05 -9.95329e-05)
(2.32741e-05 1.52126e-05 -0.000105034)
(2.31553e-05 1.58134e-05 -0.000110225)
(2.1661e-05 1.44847e-05 -7.71167e-05)
(2.20724e-05 1.48493e-05 -8.31542e-05)
(2.24441e-05 1.51863e-05 -8.94147e-05)
(2.27176e-05 1.55574e-05 -9.5629e-05)
(2.28841e-05 1.60047e-05 -0.000101795)
(2.29048e-05 1.6543e-05 -0.000107917)
(2.27501e-05 1.7172e-05 -0.0001137)
(2.11625e-05 1.55839e-05 -7.68103e-05)
(2.16035e-05 1.5995e-05 -8.34648e-05)
(2.19958e-05 1.63733e-05 -9.03608e-05)
(2.22796e-05 1.67802e-05 -9.72063e-05)
(2.24428e-05 1.72594e-05 -0.000104002)
(2.24431e-05 1.78266e-05 -0.000110749)
(2.2249e-05 1.84785e-05 -0.000117123)
(2.06057e-05 1.66413e-05 -7.64423e-05)
(2.10703e-05 1.7103e-05 -8.37143e-05)
(2.14768e-05 1.7524e-05 -9.12455e-05)
(2.17647e-05 1.79658e-05 -9.87227e-05)
(2.19192e-05 1.84748e-05 -0.000106145)
(2.18956e-05 1.9068e-05 -0.000113513)
(2.1663e-05 1.9741e-05 -0.000120475)
(1.99969e-05 1.76552e-05 -7.60179e-05)
(2.04783e-05 1.81715e-05 -8.39041e-05)
(2.08921e-05 1.86372e-05 -9.20659e-05)
(2.11774e-05 1.91137e-05 -0.00010017)
(2.1317e-05 1.96504e-05 -0.000108213)
(2.1264e-05 2.0266e-05 -0.000116191)
(2.09871e-05 2.09528e-05 -0.00012373)
(1.93416e-05 1.86247e-05 -7.55435e-05)
(1.98324e-05 1.91996e-05 -8.40351e-05)
(2.02465e-05 1.97116e-05 -9.28177e-05)
(2.05221e-05 2.02219e-05 -0.000101538)
(2.06403e-05 2.07829e-05 -0.00011019)
(2.05522e-05 2.14143e-05 -0.000118765)
(2.02281e-05 2.21036e-05 -0.000126862)
(1.86445e-05 1.95494e-05 -7.50247e-05)
(1.91375e-05 2.01869e-05 -8.41071e-05)
(1.95452e-05 2.07454e-05 -9.34956e-05)
(1.98041e-05 2.12867e-05 -0.000102818)
(1.98947e-05 2.18678e-05 -0.000112064)
(1.97691e-05 2.25085e-05 -0.00012122)
(1.94028e-05 2.31931e-05 -0.000129857)
(1.79265e-05 2.04221e-05 -7.44718e-05)
(1.84256e-05 2.11153e-05 -8.41231e-05)
(1.8818e-05 2.17122e-05 -9.40981e-05)
(1.90516e-05 2.22806e-05 -0.000104005)
(1.9109e-05 2.28798e-05 -0.000113827)
(1.89464e-05 2.35293e-05 -0.000123544)
(1.85371e-05 2.42066e-05 -0.000132707)
(1.73074e-05 2.12007e-05 -7.44978e-05)
(1.78333e-05 2.19197e-05 -8.49883e-05)
(1.81888e-05 2.25347e-05 -9.54567e-05)
(1.8381e-05 2.31233e-05 -0.000105849)
(1.83904e-05 2.37417e-05 -0.000116147)
(1.8168e-05 2.44063e-05 -0.000126322)
(1.77365e-05 2.50881e-05 -0.000135517)
(2.20138e-05 1.32988e-06 -7.07981e-05)
(2.22221e-05 2.31231e-06 -7.04856e-05)
(2.23917e-05 3.40147e-06 -7.03509e-05)
(2.25113e-05 4.54141e-06 -7.01753e-05)
(2.25663e-05 5.71989e-06 -6.99156e-05)
(2.25446e-05 6.91827e-06 -6.95529e-05)
(2.24385e-05 8.11907e-06 -6.90831e-05)
(2.22409e-05 9.31059e-06 -6.85081e-05)
(2.19549e-05 1.04767e-05 -6.78291e-05)
(2.1597e-05 1.16092e-05 -6.70564e-05)
(2.11672e-05 1.27045e-05 -6.62015e-05)
(2.06737e-05 1.37529e-05 -6.52712e-05)
(2.01249e-05 1.47504e-05 -6.42755e-05)
(1.95249e-05 1.56973e-05 -6.32267e-05)
(1.88796e-05 1.65914e-05 -6.21323e-05)
(1.82017e-05 1.7432e-05 -6.0999e-05)
(1.74934e-05 1.82182e-05 -5.98431e-05)
(1.67632e-05 1.89517e-05 -5.86847e-05)
(1.60365e-05 1.96333e-05 -5.75866e-05)
(2.18755e-05 1.34745e-06 -6.68827e-05)
(2.20397e-05 2.30732e-06 -6.64639e-05)
(2.21655e-05 3.37905e-06 -6.62322e-05)
(2.22392e-05 4.50632e-06 -6.59609e-05)
(2.22495e-05 5.66603e-06 -6.56082e-05)
(2.21869e-05 6.83932e-06 -6.51622e-05)
(2.20442e-05 8.01236e-06 -6.46196e-05)
(2.18145e-05 9.17333e-06 -6.39777e-05)
(2.15077e-05 1.03061e-05 -6.32423e-05)
(2.11301e-05 1.14054e-05 -6.24235e-05)
(2.06856e-05 1.24644e-05 -6.15273e-05)
(2.01811e-05 1.34762e-05 -6.0562e-05)
(1.96239e-05 1.44369e-05 -5.9538e-05)
(1.90176e-05 1.53451e-05 -5.84641e-05)
(1.83725e-05 1.61982e-05 -5.73489e-05)
(1.7696e-05 1.69962e-05 -5.62025e-05)
(1.69928e-05 1.77384e-05 -5.50358e-05)
(1.62717e-05 1.84327e-05 -5.38694e-05)
(1.55532e-05 1.908e-05 -5.27628e-05)
(2.16996e-05 1.35681e-06 -6.28725e-05)
(2.18224e-05 2.30465e-06 -6.2376e-05)
(2.19056e-05 3.36436e-06 -6.2067e-05)
(2.19368e-05 4.47449e-06 -6.17176e-05)
(2.19065e-05 5.61061e-06 -6.12923e-05)
(2.18063e-05 6.75682e-06 -6.07808e-05)
(2.16301e-05 7.90007e-06 -6.01799e-05)
(2.13751e-05 9.02672e-06 -5.9489e-05)
(2.10473e-05 1.01251e-05 -5.87136e-05)
(2.06525e-05 1.11884e-05 -5.78607e-05)
(2.0195e-05 1.22094e-05 -5.69373e-05)
(1.96811e-05 1.31824e-05 -5.59515e-05)
(1.9117e-05 1.41039e-05 -5.49125e-05)
(1.85082e-05 1.4971e-05 -5.38286e-05)
(1.78625e-05 1.57824e-05 -5.27086e-05)
(1.71869e-05 1.65381e-05 -5.15605e-05)
(1.64894e-05 1.72414e-05 -5.03977e-05)
(1.577e-05 1.78951e-05 -4.92348e-05)
(1.50579e-05 1.84958e-05 -4.81242e-05)
(2.14608e-05 1.36301e-06 -5.87798e-05)