/*--------------------------------*- C++ -*----------------------------------*\
| =========                 |                                                 |
| \\      /  F ield         | OpenFOAM: The Open Source CFD Toolbox           |
|  \\    /   O peration     | Version:  v2012                                 |
|   \\  /    A nd           | Website:  www.openfoam.com                      |
|    \\/     M anipulation  |                                                 |
\*---------------------------------------------------------------------------*/
FoamFile
{
    version     2.0;
    format      ascii;
    class       volSymmTensorField;
    location    "1";
    object      sigma;
}
// * * * * * * * * * * * * * * * * * * * * * * * * * * * * * * * * * * * * * //

dimensions      [1 -1 -2 0 0 0 0];


internalField   nonuniform List<symmTensor> 
53760
(
(2.91142e+06 -878706 -256906 574444 -197535 1.00088e+06)
(2.76721e+06 -485564 -91772.9 1.48223e+06 -556993 935254)
(2.86817e+06 -858685 100184 936429 -367169 714120)
(2.02981e+06 -476942 155913 665347 -397538 46150.6)
(1.79396e+06 -247155 248259 1.0522e+06 -409842 177167)
(2.1204e+06 -275441 135108 1.79048e+06 -551659 481599)
(1.21935e+06 -240729 402048 505663 -405045 -153165)
(1.0473e+06 13546.1 426210 926918 -460811 61887.6)
(1.33294e+06 -65910.8 385030 1.71343e+06 -618187 360586)
(446113 31485.7 526056 367881 -425665 -284907)
(309501 279794 502718 815975 -476650 -45759.5)
(599241 198704 489737 1.59658e+06 -651984 268026)
(-319564 309324 555511 246155 -417748 -412721)
(-316962 624385 439225 684079 -517934 -142198)
(-31960.3 514677 451128 1.49647e+06 -712334 195685)
(-917627 688237 462411 139091 -420072 -519521)
(-799108 1.12832e+06 329045 504837 -515624 -185356)
(-427846 999987 329952 1.40928e+06 -758522 164414)
(-1.53045e+06 1.12707e+06 351848 93968.9 -381709 -532006)
(-1.72868e+06 1.29959e+06 162512 529960 -365262 -108054)
(-1.21216e+06 1.37966e+06 275870 1.26498e+06 -540738 211654)
(-2.55449e+06 1.21738e+06 214589 -230454 -146948 -843417)
(-3.1424e+06 1.23878e+06 -54726.9 -499420 319061 -2.18231e+06)
(-2.21876e+06 1.37993e+06 -20468.3 809325 -67034.7 -167411)
(2.90356e+06 -1.05035e+06 65987.2 681999 -338337 7817.91)
(2.57971e+06 -872524 155993 762376 -353993 262353)
(2.84596e+06 -912115 4588.72 973957 -336520 201137)
(1.88488e+06 -654886 209108 307201 -309193 -227775)
(1.44919e+06 -495006 359590 332930 -333320 -249048)
(1.67863e+06 -522263 244960 727643 -395458 -192757)
(1.01406e+06 -366839 448112 111141 -315604 -347864)
(624856 -196809 548689 169756 -361643 -298377)
(737493 -242547 499543 496271 -435266 -313694)
(228856 -70435.9 564968 -29024.2 -341775 -469551)
(-127717 88106.6 623609 76748.2 -383936 -385528)
(-16230.8 48808.2 603448 394635 -478396 -390205)
(-564803 232275 592008 -177339 -334820 -615935)
(-801763 439720 572985 4297.06 -405463 -486018)
(-695367 394356 566899 270734 -530837 -480008)
(-1.20834e+06 612566 504705 -258692 -327426 -739309)
(-1.1891e+06 994834 448954 464094 -647356 -454824)
(-1.54372e+06 723577 520628 -385013 -343772 -907937)
(-1.72824e+06 961859 473277 20400.4 -335504 -529813)
(-2.35628e+06 1.19884e+06 409189 -109641 -296680 -630040)
(-2.15598e+06 1.05386e+06 422711 -379381 -240692 -788444)
(-2.94304e+06 1.12951e+06 327626 -727530 -97979.7 -1.12203e+06)
(-3.06485e+06 1.11168e+06 128904 -627133 -138442 -904553)
(-3.04252e+06 1.24672e+06 221995 -326840 -26437.7 -870361)
(3.40198e+06 -1.22506e+06 233589 1.34954e+06 -328808 1.08699e+06)
(2.58372e+06 -976632 226411 781545 -250401 394611)
(2.99536e+06 -1.19794e+06 205076 1.22554e+06 -182665 749055)
(1.98971e+06 -818233 292008 446786 -173628 52881.2)
(1.37254e+06 -574235 413580 78237.9 -210544 -289001)
(1.78501e+06 -721634 322398 290739 -178451 -141901)
(1.07344e+06 -496973 479345 90575.7 -137774 -221395)
(558401 -258741 588352 -97086.4 -222169 -396970)
(890112 -390627 520964 21614.8 -202001 -335807)
(257587 -155897 580096 -116629 -134526 -405748)
(-192065 36110.6 653663 -217797 -215385 -532456)
(112981 -81625.6 607002 -121607 -191083 -483365)
(-526079 159498 608155 -291459 -115627 -606053)
(-947134 350713 631867 -369011 -196263 -691968)
(-676415 239785 618628 -275423 -183690 -647124)
(-1.29481e+06 505306 533110 -464724 -90513.6 -742641)
(-1.71453e+06 667760 530300 -557684 -125336 -865303)
(-1.45457e+06 567673 533599 -457093 -131567 -801540)
(-2.06294e+06 794752 504172 -610180 -150073 -815449)
(-2.51949e+06 975832 366477 -731576 -37657.8 -935052)
(-2.32392e+06 888527 442912 -730442 -115786 -925025)
(-2.93011e+06 1.08021e+06 383628 -881772 -96494.4 -1.05475e+06)
(-3.58117e+06 1.11599e+06 384736 -1.34455e+06 -431835 -1.96105e+06)
(-3.48265e+06 1.15834e+06 531795 -1.39442e+06 -414840 -2.04181e+06)
(3.09274e+06 -1.34936e+06 159031 1.26388e+06 -86582.8 412472)
(2.68137e+06 -1.13659e+06 202318 1.07075e+06 -79822.6 570353)
(3.09202e+06 -1.22358e+06 210379 1.24534e+06 -111573 667459)
(2.01378e+06 -899375 280658 523124 -91177.3 80385)
(1.46559e+06 -713272 400978 324644 -68418.1 -79273.7)
(1.65194e+06 -746922 356390 260280 -130952 -137730)
(1.16852e+06 -560917 505011 298161 -93228.9 -66159.2)
(650650 -326862 575159 83849 -169297 -266911)
(916428 -449261 505515 168919 -101351 -158232)
(298453 -202084 544095 -17007.5 -59300.7 -349625)
(-112797 -3230.09 649636 -85489.9 -182025 -434776)
(21475.5 -70548.2 569009 -196074 -56910 -442871)
(-384807 106244 637755 -92867.8 -105491 -478842)
(-916057 346671 632294 -316946 -162895 -634154)
(-684879 241611 601457 -279439 -91327.7 -584960)
(-1.17158e+06 461455 587401 -326259 -86591 -662785)
(-1.74479e+06 717032 526562 -587275 -97672.9 -815491)
(-1.48943e+06 617060 525065 -487334 -75040.3 -736709)
(-2.06656e+06 819506 479699 -595169 -91086.1 -821701)
(-2.5237e+06 1.02271e+06 364701 -751650 -33731.9 -887814)
(-2.16342e+06 869375 435065 -581017 -50775.6 -828033)
(-3.09052e+06 1.13598e+06 272032 -1.1117e+06 2337.63 -1.53738e+06)
(-3.56989e+06 1.14635e+06 134096 -1.42175e+06 -78977.6 -2.10039e+06)
(-3.39171e+06 1.18842e+06 406547 -1.33038e+06 -174648 -1.94828e+06)
(3.27945e+06 -1.4311e+06 226302 1.70085e+06 12787.9 1.31167e+06)
(2.46989e+06 -1.18212e+06 209909 1.09302e+06 25302.1 721260)
(2.71587e+06 -1.34616e+06 182545 1.38258e+06 114858 847328)
(1.82655e+06 -996240 316985 580863 -372.526 58888)
(1.34734e+06 -743030 386401 317907 14023.3 -68923.8)
(1.66886e+06 -930070 347268 603129 54472.8 48528.9)
(998114 -596595 519334 264747 -31909.1 -87383.6)
(611710 -423967 513711 196485 68497.6 -211716)
(757859 -505463 526845 146617 -18259.2 -204184)
(277396 -240567 551366 16948.3 4959.15 -354145)
(-156502 -11173.7 568544 -153480 23768.7 -469015)
(155109 -168251 544281 61402.3 77988.2 -362353)
(-451686 132198 620283 -177036 -28734.5 -491066)
(-842859 333630 547047 -277327 89350.6 -619890)
(-695140 236959 599339 -300232 -6170.36 -603683)
(-1.17271e+06 499185 577484 -372229 -33910.1 -644033)
(-1.60351e+06 722756 459705 -532611 82902.8 -764211)
(-1.45619e+06 630797 517924 -510903 1973.7 -737025)
(-1.92107e+06 869862 448032 -646622 2641.86 -764439)
(-2.41802e+06 1.12667e+06 321432 -863393 55210.6 -873723)
(-2.20028e+06 1.03397e+06 367368 -855152 69402.3 -795110)
(-2.86713e+06 1.24177e+06 245753 -1.07958e+06 127057 -1.30991e+06)
(-3.49429e+06 1.32549e+06 237334 -1.4879e+06 127961 -2.38486e+06)
(-2.77083e+06 1.31819e+06 213926 -979266 332512 -1.01849e+06)
(2.6839e+06 -1.47131e+06 197765 1.26129e+06 41297.4 108963)
(2.32068e+06 -1.24186e+06 203734 1.08099e+06 96562.8 483304)
(2.83523e+06 -1.36475e+06 272617 1.34382e+06 64155.3 670427)
(1.78715e+06 -1.02551e+06 353907 664407 64059.3 105034)
(1.30307e+06 -755111 386524 317446 49740.1 -37984.9)
(1.54942e+06 -898150 362753 531435 54981.7 104768)
(997650 -625951 489303 316061 105728 -49058)
(608854 -433968 503382 227418 99674 -153069)
(928888 -548922 535003 362532 36901.5 -60247.2)
(276925 -252975 566829 34911.9 98244.7 -269660)
(-208676 11634.7 556904 -219821 65626.8 -460843)
(47241.3 -117071 542446 -69266.9 91659.3 -325558)
(-445953 142637 574023 -217632 121837 -482927)
(-842393 355814 532736 -290723 116053 -576132)
(-510371 196068 611723 -106451 27008.2 -466200)
(-1.17285e+06 529603 522570 -484950 105441 -678692)
(-1.57782e+06 746112 459559 -565673 103206 -718821)
(-1.24666e+06 574058 551631 -352059 15257.8 -643055)
(-1.89607e+06 906673 417393 -773038 82745.2 -794724)
(-2.35709e+06 1.15732e+06 305424 -993705 108903 -826129)
(-2.00264e+06 954847 417118 -711890 26447.9 -772463)
(-2.43913e+06 1.29962e+06 248952 -981969 110628 -414539)
(-2.41267e+06 1.40263e+06 120268 -749701 417256 -71482.3)
(-2.8614e+06 1.33541e+06 169276 -1.15559e+06 340054 -1.07865e+06)
(2.96971e+06 -1.52373e+06 203985 1.80713e+06 57166.8 1.38393e+06)
(2.18531e+06 -1.26494e+06 189514 1.15192e+06 133944 676559)
(2.40054e+06 -1.41448e+06 156438 1.40484e+06 195258 846921)
(1.57381e+06 -1.06067e+06 352514 673936 89393.2 78383.8)
(1.14452e+06 -833112 368777 469846 157070 -6328.63)
(1.27823e+06 -939420 363392 565054 166437 62330.6)
(875291 -660201 486027 330448 148928 -74536.9)
(490668 -428353 473483 180089 197204 -190080)
(615252 -540089 479874 213774 235632 -141420)
(224433 -258177 557777 85844 171421 -253879)
(-173637 -9334.71 515317 -53952.8 218527 -381981)
(-26117.2 -122791 531423 -24176.1 264451 -319307)
(-418223 144578 564657 -152126 174284 -446867)
(-820392 394203 496323 -305993 198401 -576648)
(-657857 282441 523614 -283279 251839 -520187)
(-1.06225e+06 550228 507214 -394429 155485 -610273)
(-1.50238e+06 812038 400356 -600401 177836 -714263)
(-1.30389e+06 704359 435480 -530555 219511 -666257)
(-1.73778e+06 958492 390088 -724019 103884 -718265)
(-2.2238e+06 1.23909e+06 238554 -1.08811e+06 168544 -960233)
(-2.01454e+06 1.11753e+06 309342 -922655 132802 -763516)
(-2.25613e+06 1.38724e+06 167792 -1.03173e+06 105173 -273286)
(-1.73893e+06 1.47711e+06 37415.9 -497119 -54630 987602)
(-1.9416e+06 1.46371e+06 215628 -643541 158761 636552)
(2.20666e+06 -1.52881e+06 186839 1.13426e+06 102205 -118020)
(1.99027e+06 -1.29515e+06 184607 1.04628e+06 174157 413855)
(2.46714e+06 -1.44737e+06 272878 1.35609e+06 110119 557895)
(1.52604e+06 -1.09101e+06 339494 689654 185586 56957.6)
(1.14021e+06 -859699 360230 520301 239143 26647.9)
(1.48441e+06 -1.006e+06 376072 702338 153162 69603.8)
(854681 -682982 468246 328674 269754 -72736.8)
(490836 -453356 464009 197270 314673 -173496)
(815536 -608395 496994 385592 214669 -76530.4)
(208632 -272474 540086 34255 312160 -274995)
(-132503 -34724.5 511559 -41867.4 329493 -354727)
(179276 -201965 560125 150798 231010 -255630)
(-411991 140301 547663 -214455 316524 -471104)
(-760207 385311 490575 -292534 316083 -549609)
(-454114 208731 556368 -87368.2 226050 -445296)
(-1.03512e+06 556778 491812 -467184 279937 -648675)
(-1.40391e+06 816873 398079 -571222 257595 -705046)
(-1.10132e+06 623296 489000 -359448 188984 -615223)
(-1.6824e+06 990174 367432 -763515 199530 -773888)
(-2.1347e+06 1.26645e+06 232063 -1.00114e+06 177106 -894150)
(-1.77727e+06 1.04619e+06 362801 -707958 110205 -721501)
(-2.4124e+06 1.43327e+06 120995 -1.234e+06 166491 -932010)
(-2.0078e+06 1.54296e+06 -75173.2 -869244 -200651 349509)
(-2.18493e+06 1.51105e+06 128795 -992882 -27263.8 64239.2)
(2.52601e+06 -1.56546e+06 166447 1.67283e+06 119923 1.20669e+06)
(1.8554e+06 -1.29968e+06 165650 1.10488e+06 214024 629098)
(2.009e+06 -1.44155e+06 128605 1.27645e+06 289004 738782)
(1.30873e+06 -1.10441e+06 328917 671947 196510 59199.6)
(949635 -877931 356305 489735 339840 -36678.9)
(1.06558e+06 -975378 342723 510550 261274 374.169)
(714727 -688209 466964 337941 301651 -79387.9)
(380437 -439630 447227 164598 384209 -211854)
(485868 -557807 472494 215623 395042 -134478)
(161749 -268555 538220 78881.9 360555 -257318)
(-172675 -7926.58 493311 -69462 408211 -377641)
(-54688.6 -130439 525489 -41085.6 447577 -323762)
(-382588 157820 544370 -152328 366285 -436059)
(-725028 425300 467394 -302634 388575 -553064)
(-586997 300900 512999 -273469 439700 -507839)
(-929910 587987 484798 -390031 320924 -595162)
(-1.29766e+06 864323 371375 -569096 314073 -700104)
(-1.13144e+06 731201 434374 -528588 371031 -662968)
(-1.50882e+06 1.02588e+06 357449 -683236 231166 -723271)
(-1.91534e+06 1.33012e+06 203929 -950235 226101 -840491)
(-1.70004e+06 1.18111e+06 293914 -844983 277020 -775133)
(-2.19892e+06 1.46643e+06 118525 -1.1667e+06 211734 -1.07121e+06)
(-2.56265e+06 1.55785e+06 -22824.1 -1.49982e+06 99450.2 -1.80135e+06)
(-2.0861e+06 1.52616e+06 140776 -1.08124e+06 367938 -944892)
(1.76626e+06 -1.56326e+06 184953 938223 148091 -261158)
(1.6222e+06 -1.31488e+06 162842 901190 269403 337237)
(2.05342e+06 -1.48418e+06 254619 1.21292e+06 169163 414797)
(1.22111e+06 -1.11518e+06 327927 587451 289339 35752.7)
(913561 -882066 354971 446014 368233 6957.27)
(1.19684e+06 -1.02389e+06 361010 618130 266501 31686.2)
(663501 -694761 474830 277875 423188 -79644.3)
(388978 -451190 480726 194130 484015 -153102)
(641135 -604149 492754 354692 374266 -94137.1)
(141433 -277675 547740 27944.6 499707 -274208)
(-138250 -25745.5 513947 -39429 522384 -355185)
(123006 -188514 549928 138313 425625 -266570)
(-376384 153199 556153 -194720 509127 -467816)
(-656956 410885 492139 -257597 501219 -538778)
(-404758 240752 545879 -76776.8 417933 -443342)
(-898282 587548 498817 -423554 450474 -645229)
(-1.19562e+06 846347 406473 -520023 412462 -699935)
(-945665 673713 476920 -321652 351235 -605271)
(-1.43537e+06 1.01689e+06 380162 -701352 328584 -783977)
(-1.77631e+06 1.29363e+06 258974 -893251 294530 -831548)
(-1.51204e+06 1.10425e+06 344596 -638682 238216 -736631)
(-1.81561e+06 1.44206e+06 213582 -897725 246700 -491943)
(-1.694e+06 1.58192e+06 108623 -725813 418913 -99529.6)
(-2.12231e+06 1.53291e+06 101871 -1.09271e+06 337341 -878240)
(2.06592e+06 -1.59494e+06 139927 1.41283e+06 181106 1.03414e+06)
(1.51372e+06 -1.33251e+06 155433 930800 289680 586573)
(1.65566e+06 -1.47947e+06 126136 1.08481e+06 334025 757141)
(1.0237e+06 -1.13773e+06 320649 534013 301856 29367.1)
(709834 -899601 344373 333040 417203 -42361.8)
(786713 -1.00788e+06 353936 388311 402543 35030.9)
(541958 -713704 478866 254285 459251 -87991.1)
(267348 -456247 468828 120053 551130 -200496)
(342854 -582129 493961 137438 564411 -134845)
(85143.9 -285084 552987 26248.6 547317 -271989)
(-181967 -15721.1 505720 -89165.8 593291 -385027)
(-99346.5 -147331 550691 -91009.5 637810 -338448)
(-352860 159551 559935 -163625 559101 -450348)
(-620011 436593 478472 -273380 568085 -552961)
(-521258 301805 538090 -272915 631824 -523801)
(-798126 608093 497995 -364134 493573 -613486)
(-1.07287e+06 899306 383272 -492448 472681 -698212)
(-952890 766793 445624 -459535 539931 -688869)
(-1.2565e+06 1.06278e+06 374665 -613936 354692 -731989)
(-1.60975e+06 1.34534e+06 243749 -893935 374696 -996932)
(-1.47627e+06 1.22507e+06 290098 -796471 352875 -782319)
(-1.57272e+06 1.50763e+06 159856 -826984 250380 -325423)
(-1.06855e+06 1.58787e+06 62039.1 -338402 10803.3 764899)
(-1.18765e+06 1.58739e+06 229150 -430239 257229 653775)
(1.30556e+06 -1.5985e+06 192347 624717 191413 -388672)
(1.26776e+06 -1.36188e+06 170038 677353 320071 299223)
(1.61284e+06 -1.51519e+06 247029 938050 229809 266377)
(941356 -1.1686e+06 345439 431296 386409 30511.9)
(668250 -914069 368780 290765 490160 -10174.7)
(930301 -1.0577e+06 360586 479156 384680 -4031.27)
(497898 -733865 499413 184284 578649 -82925)
(253869 -479401 497043 92839.3 648607 -179618)
(489908 -629251 502198 266866 542662 -112399)
(82545.8 -291992 585661 -2733.91 684575 -276665)
(-146755 -30526.8 548010 -59964.7 715505 -365384)
(71329.7 -188231 571322 100735 619358 -283045)
(-320333 157160 594511 -157052 698656 -470206)
(-550786 423030 525285 -210189 692160 -548389)
(-344333 258837 567115 -53605.2 612132 -456833)
(-729114 608721 533093 -316962 621729 -646817)
(-973662 891552 422798 -379865 577161 -708075)
(-773931 707856 494429 -233726 521499 -616661)
(-1.16688e+06 1.07559e+06 396588 -516705 457745 -784647)
(-1.48711e+06 1.35704e+06 247323 -689926 391277 -911458)
(-1.22476e+06 1.15799e+06 360942 -472873 345454 -722781)
(-1.70184e+06 1.5248e+06 138907 -865197 306391 -995141)
(-1.30081e+06 1.62403e+06 -60436.6 -553198 -72248.5 120724)
(-1.46771e+06 1.60331e+06 126796 -683366 105842 -75332.7)
(1.61206e+06 -1.63939e+06 141928 1.06732e+06 229924 915259)
(1.12402e+06 -1.39267e+06 163352 653362 356018 578536)
(1.21273e+06 -1.53356e+06 132427 730539 414679 680831)
(689828 -1.20069e+06 343294 298206 399721 25655.5)
(451709 -948363 407466 155354 597555 -37605.3)
(491020 -1.06281e+06 354592 166608 486596 -31319.1)
(331982 -749612 513383 100558 613567 -98081.1)
(154836 -481296 558423 43858 793267 -201679)
(159725 -614266 505364 829.717 673303 -190067)
(7323.94 -289069 600039 -35086.9 731042 -281669)
(-153262 -16177.9 601795 -59241.1 865051 -400655)
(-153794 -149711 568021 -114841 763820 -363812)
(-310342 176993 605337 -142628 746104 -460951)
(-467922 449448 566552 -162874 828986 -590202)
(-466623 320162 552769 -216932 754306 -529813)
(-638261 643103 537153 -259555 661525 -620346)
(-797670 918780 454267 -287065 687130 -746527)
(-800325 801534 453284 -333629 645890 -683635)
(-991409 1.1127e+06 394165 -411935 489605 -751235)
(-1.25612e+06 1.40663e+06 237342 -570095 436814 -872192)
(-1.11923e+06 1.24735e+06 339701 -519333 510426 -826600)
(-1.49504e+06 1.55122e+06 143585 -745104 346755 -1.16484e+06)
(-1.7924e+06 1.65031e+06 1068.59 -1.06752e+06 135412 -1.86779e+06)
(-1.32605e+06 1.60786e+06 201938 -616020 437422 -1.00578e+06)
(883771 -1.65739e+06 143695 275515 115615 -371625)
(812028 -1.44403e+06 177875 289130 385715 216565)
(1.12989e+06 -1.58944e+06 252145 530055 254194 131890)
(542620 -1.2432e+06 373313 96725.2 467217 -5910.67)
(357091 -981409 409147 5552.79 624353 -48520.9)
(573397 -1.1237e+06 388879 167345 480238 -33864.2)
(246550 -770469 557571 -36378.5 728685 -89412.4)
(103011 -499606 566133 -44702.1 830530 -195444)
(266099 -652812 553547 63674 690423 -132619)
(-35474.5 -298787 649497 -115818 866292 -293901)
(-170471 -25155.7 612256 -87820.8 908061 -386617)
(-19490.7 -183371 626156 1705.94 792050 -303406)
(-312020 175152 655373 -165689 885525 -493518)
(-450622 448240 577656 -128763 869680 -567004)
(-306560 287825 617147 -48483.5 784071 -473092)
(-601406 644785 581967 -227125 787502 -669332)
(-756696 905893 478952 -224700 728260 -719124)
(-612989 753603 533850 -126798 669641 -622232)
(-917021 1.08561e+06 443234 -340633 589959 -805290)
(-1.12305e+06 1.3482e+06 301354 -406701 505599 -859680)
(-949412 1.19871e+06 379264 -250514 473460 -749377)
(-994499 1.5009e+06 254707 -221640 467046 -317621)
(-843087 1.66309e+06 152192 -49056.4 572830 -31638.2)
(-1.28682e+06 1.6162e+06 135718 -424261 507906 -791516)
(1.06321e+06 -1.77193e+06 96825.6 631436 65096.8 1.07098e+06)
(643207 -1.54299e+06 302146 243321 461002 602681)
(818787 -1.68559e+06 147896 407621 283258 832747)
(271492 -1.29196e+06 392519 -61844.6 489025 -45392.8)
(204273 -998596 531892 -60438.1 792780 -45926.4)
(133491 -1.16371e+06 398621 -165884 605896 -97178.5)
(118083 -780950 584027 -84739.6 773998 -121506)
(30511.6 -502277 656508 -61489.2 996140 -248454)
(-15568.5 -655053 559408 -159792 842380 -241830)
(-61322.1 -284229 676695 -89231.9 922115 -313255)
(-129687 -5589.42 701346 -18623.9 1.07702e+06 -445240)
(-177380 -156107 624252 -131053 949114 -406766)
(-235186 213017 684533 -67170.3 943184 -496144)
(-297969 489470 660357 21158 1.02423e+06 -637058)
(-337968 343561 606193 -88833 932427 -559312)
(-424803 704314 606832 -62962.2 835096 -658477)
(-506065 969280 531746 -6299.3 835497 -805245)
(-523025 830379 512200 -92783.8 799643 -680373)
(-654876 1.17057e+06 445177 -124915 599990 -774259)
(-862753 1.42432e+06 300189 -232982 526223 -1.11176e+06)
(-767548 1.30171e+06 330107 -188775 552756 -785149)
(-633557 1.56839e+06 153878 23087.4 435660 -125366)
(-358890 1.68579e+06 28828.1 311825 173029 256005)
(-266641 1.65261e+06 181034 380963 405518 740005)
(986220 -1.78144e+06 124864 364298 62623.9 1.24581e+06)
(402339 -1.54906e+06 405877 -102975 527027 464288)
(734330 -1.73484e+06 493878 187138 373898 941547)
(155831 -1.29765e+06 429239 -308921 541357 -111486)
(87422.3 -1.00886e+06 571066 -258501 837710 -18482)
(223841 -1.16889e+06 588539 -166126 724919 21246.6)
(38432.8 -791658 608285 -246743 834311 -167295)
(-57305.4 -511438 694229 -205632 1.04916e+06 -208944)
(75562.3 -666693 729937 -136048 974615 -157288)
(-98340 -290798 701958 -159625 987755 -333908)
(-189307 -11363.6 740058 -106241 1.1338e+06 -404969)
(-55862.9 -165943 797559 -46830.9 1.09675e+06 -355048)
(-226820 211631 711443 -39639.3 1.00999e+06 -492711)
(-325397 490982 698751 -2727.17 1.0775e+06 -596488)
(-186023 335695 779924 58821.4 1.07697e+06 -553790)
(-368308 710569 633736 68075.6 894952 -631222)
(-481540 989851 562222 68425.8 869454 -760310)
(-334912 832406 669235 140704 907156 -738412)
(-546688 1.19295e+06 464769 116694 641108 -729896)
(-763149 1.46899e+06 322126 -33272.7 525491 -1.05421e+06)
(-560870 1.30861e+06 452665 118871 578055 -974510)
(-533116 1.61167e+06 184484 268472 356668 -157429)
(-615344 1.72129e+06 -98080.1 110040 7022.06 -471293)
(-642025 1.69721e+06 67168.4 164171 229787 -664311)
(2.46025e+06 -774133 -455047 -267119 33116.4 -973543)
(2.56941e+06 -628319 -6825.72 1.06889e+06 -377374 -152392)
(2.73132e+06 -655124 -155594 270488 2671.34 -1.02145e+06)
(2.11011e+06 -646637 280995 717726 -489600 -182335)
(1.51808e+06 -544991 316669 785820 -520834 -178439)
(1.5628e+06 -666461 275035 1.12131e+06 -662936 -171200)
(948375 -480833 491861 399989 -766025 -387118)
(652218 -240591 523872 580685 -590375 -231620)
(605472 -441075 545106 953270 -795332 -229071)
(213018 -204035 635530 330412 -861738 -376387)
(-108838 46166.7 607921 482134 -634363 -300858)
(-167994 -149890 658210 826229 -861192 -291687)
(-562496 100791 658580 164925 -891511 -478370)
(-801872 412291 531669 449447 -689541 -377098)
(-921053 190955 610638 729066 -920569 -375894)
(-937905 603468 458718 1.07561e+06 -1.08446e+06 -213026)
(-812138 1.04181e+06 402734 1.81707e+06 -999736 32361.1)
(-1.13796e+06 753861 463953 683471 -675160 -504061)
(-1.56237e+06 1.08686e+06 427703 842651 -528008 -295438)
(-2.31815e+06 1.28339e+06 511950 483600 -456482 -301376)
(-1.5943e+06 1.16181e+06 533333 1.39338e+06 -596588 -26897.4)
(-2.92977e+06 1.30545e+06 593549 -47863.8 -285756 -272896)
(-3.05973e+06 1.11345e+06 50583.9 -164783 -192475 -376632)
(-3.40836e+06 1.21436e+06 494479 215210 -200375 -399064)
(2.94515e+06 -912524 62351.2 748792 -609991 -713307)
(2.55457e+06 -735917 124479 773367 -265674 -705968)
(2.65621e+06 -817746 39404.3 619789 -364526 -440194)
(2.29372e+06 -713924 221882 577954 -206167 -214913)
(1.60805e+06 -660062 266869 43378.6 -289091 -357241)
(1.95764e+06 -667509 312119 -162422 -298403 -482545)
(1.18382e+06 -490738 398951 -69709.3 -379765 -501066)
(749381 -352969 448567 -145244 -338681 -408239)
(936931 -439007 463412 -621402 -533267 -684246)
(404439 -213590 529104 -175554 -420431 -580115)
(-31095.6 -65146.4 537242 -231833 -370810 -487470)
(183943 -159681 583964 -692063 -592442 -701340)
(-371915 82148.3 576738 -278917 -443678 -679168)
(-833875 275706 519239 -382245 -378118 -631232)
(-573562 159741 591832 -767398 -632566 -770241)
(-1.19215e+06 444064 533564 -432908 -431677 -867223)
(-1.35769e+06 712778 436061 65497 -375775 -675930)
(-1.07008e+06 667079 437719 291379 -735658 -530668)
(-1.71197e+06 833018 452091 87883.1 -294946 -805725)
(-2.33198e+06 1.11763e+06 498013 -84001 -365684 -675502)
(-2.27463e+06 1.02317e+06 426858 -349059 -225441 -847275)
(-3.03024e+06 1.09891e+06 498060 -705352 -274828 -1.2008e+06)
(-3.25871e+06 1.05363e+06 445000 -1.1076e+06 -736998 -700204)
(-3.3081e+06 1.2327e+06 724765 -1.40183e+06 -622195 -870087)
(3.51686e+06 -1.1352e+06 253750 1.24927e+06 -393731 1.0554e+06)
(2.45744e+06 -922681 153064 535746 -131156 64844.9)
(2.7898e+06 -1.09306e+06 136247 840099 -15042.6 321730)
(2.05616e+06 -808327 274158 324564 -114237 -201515)
(1.62834e+06 -698624 310421 308496 -40113.9 -119443)
(1.77848e+06 -734638 298622 253479 -117883 -191622)
(1.17022e+06 -487499 451967 89345.5 -178499 -296174)
(743865 -336402 475858 76796.6 -120523 -314701)
(836674 -378708 457679 58.4442 -81431.9 -249071)
(405391 -211221 567791 -38841.9 -173279 -439734)
(-23098.4 -37436.9 557116 -35435.2 -155209 -462373)
(118392 -103477 533685 -144853 -70470.1 -471869)
(-383734 105454 602724 -163045 -204016 -576633)
(-847268 301274 549281 -255364 -137353 -663577)
(-699854 237663 563886 -301742 -93691.8 -629526)
(-1.17853e+06 435071 560707 -355938 -165653 -790567)
(-1.64976e+06 632052 484675 -450856 -89575.7 -879113)
(-1.5124e+06 581228 493042 -522483 -46775.9 -839195)
(-2.00106e+06 742457 468878 -542032 -67294.9 -973006)
(-2.56383e+06 964601 352049 -740778 515.598 -950910)
(-2.49197e+06 932451 402239 -780680 -43650.4 -961514)
(-2.95482e+06 1.00769e+06 366397 -844351 -44864.7 -1.15524e+06)
(-3.42076e+06 1.03739e+06 123384 -1.15177e+06 -75615.4 -1.70082e+06)
(-3.32133e+06 1.08924e+06 105526 -1.14437e+06 151070 -1.64151e+06)
(2.98759e+06 -1.21531e+06 257735 1.00393e+06 -136078 -35868.6)
(2.45501e+06 -1.00381e+06 226494 672979 -22641.6 148945)
(3.06417e+06 -1.08455e+06 285102 986818 -102801 434076)
(2.06644e+06 -866117 314382 440671 -27939.5 -44114.5)
(1.58909e+06 -709023 301407 246674 19815.9 -145335)
(1.91107e+06 -774474 327819 351009 -68739.8 -151248)
(1.16568e+06 -532953 426005 81943.4 -31809.1 -247301)
(650957 -316212 458655 -38352.9 -7554.35 -284573)
(1.07964e+06 -478687 443808 159834 -95239.3 -301569)
(359624 -207552 537790 -126583 -45411.4 -436068)
(-70641.7 -30972.7 498784 -183289 11460.5 -543727)
(311950 -177744 560015 17179.3 -116839 -449306)
(-433955 121983 543709 -282851 -31578.3 -631948)
(-907442 329476 517961 -366553 -6031.23 -720311)
(-486475 146791 557700 -109251 -116110 -615553)
(-1.16176e+06 431353 515923 -409786 -14820.3 -801690)
(-1.7032e+06 670804 444923 -547928 28466.9 -896114)
(-1.24926e+06 465696 512565 -246938 -84364.5 -793713)
(-1.98972e+06 786258 423915 -615504 13624.9 -902892)
(-2.57313e+06 1.00263e+06 327969 -843038 79777.6 -1.00643e+06)
(-2.12384e+06 803735 431898 -528590 -20988.5 -918194)
(-2.74397e+06 1.09026e+06 238998 -810191 45082.3 -794525)
(-3.28692e+06 1.14508e+06 -263200 -1.09293e+06 476638 -1.36816e+06)
(-3.0874e+06 1.08768e+06 188567 -957297 176728 -1.15175e+06)
(3.41487e+06 -1.34581e+06 370828 1.62534e+06 -126739 1.31666e+06)
(2.34231e+06 -1.09915e+06 232580 762152 60651.9 289492)
(2.59838e+06 -1.28838e+06 213962 1.07608e+06 156180 306402)
(1.93778e+06 -967901 318352 512856 50030.7 -2828.49)
(1.45623e+06 -782500 314473 328628 96331.2 -108445)
(1.58926e+06 -880547 306156 404836 113354 -56101.4)
(1.11454e+06 -606146 445014 201549 66659.1 -163260)
(581428 -363513 456494 28294.2 84938.3 -261573)
(746700 -477398 427455 45733.6 156561 -240191)
(332594 -250484 528846 -27552 41079.3 -353977)
(-94636.5 -49891 498394 -124053 89768 -492482)
(47223.7 -136228 506008 -144891 123904 -424277)
(-413517 105769 543352 -213730 63483.2 -563447)
(-892344 337002 512567 -346486 77677.3 -682528)
(-759506 265892 502990 -429169 156908 -666548)
(-1.11912e+06 437465 504020 -361349 63616.2 -730891)
(-1.64251e+06 687960 434213 -554559 91298.9 -859629)
(-1.48618e+06 617845 446032 -628212 146438 -846838)
(-1.88338e+06 795137 400152 -591221 74271.9 -833645)
(-2.45294e+06 1.05757e+06 298745 -905650 107879 -976650)
(-2.22256e+06 970053 329993 -876749 140780 -938048)
(-2.73365e+06 1.14722e+06 170480 -1.00948e+06 121530 -1.08279e+06)
(-3.67449e+06 1.30339e+06 -8512.99 -1.67175e+06 429805 -2.49679e+06)
(-2.82469e+06 1.33275e+06 214586 -1.11523e+06 152073 -725059)
(2.57773e+06 -1.36302e+06 286801 980026 4487.79 -279003)
(2.22124e+06 -1.17908e+06 250097 823461 108603 46724)
(2.82458e+06 -1.26329e+06 361802 1.1688e+06 32813.3 478888)
(1.95288e+06 -1.03454e+06 311996 655292 161276 435.331)
(1.38556e+06 -794493 301398 374159 206579 -103407)
(1.80631e+06 -917562 322583 570677 127178 -19824.3)
(1.13007e+06 -652316 419936 278731 188930 -131447)
(621063 -419472 411211 96061 224991 -263774)
(1.03654e+06 -570273 438768 330280 124148 -137949)
(362873 -281757 494951 17447.8 199192 -337325)
(-107629 -47445.1 468230 -115980 231588 -459812)
(256036 -202548 500866 101026 129430 -350324)
(-363427 88355.8 513373 -184680 196840 -528024)
(-846254 329417 464356 -328576 224654 -661822)
(-461728 151013 516922 -60779.5 119479 -523054)
(-1.09403e+06 458330 472984 -388662 179509 -706792)
(-1.60246e+06 706788 399742 -588005 207283 -841549)
(-1.22632e+06 518453 466326 -298261 114581 -708736)
(-1.83831e+06 827592 366303 -653445 155304 -833301)
(-2.36725e+06 1.07194e+06 269021 -940539 180154 -959167)
(-2.01759e+06 885968 347948 -637065 112215 -841011)
(-2.55372e+06 1.18894e+06 161015 -988904 143836 -800521)
(-2.65241e+06 1.4185e+06 107899 -957032 102475 -136979)
(-2.87845e+06 1.24429e+06 14063 -1.11923e+06 291752 -1.10956e+06)
(2.97036e+06 -1.46288e+06 338677 1.60479e+06 -59811 1.10325e+06)
(2.11963e+06 -1.24199e+06 244848 921942 122544 243045)
(2.23064e+06 -1.38242e+06 226188 1.07915e+06 198430 181667)
(1.77267e+06 -1.10947e+06 299545 682616 190846 -27669)
(1.23235e+06 -843562 292358 384837 255979 -138176)
(1.36028e+06 -960363 281243 462659 273094 -106153)
(1.01862e+06 -705040 413749 321987 244617 -135517)
(532493 -446782 404909 99948.1 289915 -279524)
(656030 -551174 400457 110739 331986 -239105)
(317802 -314771 490626 59509 263742 -322192)
(-135388 -55486.1 458348 -116381 301357 -465700)
(-15273.5 -151977 466058 -154768 359083 -438443)
(-350065 76044.5 504178 -146744 263775 -505008)
(-812618 345706 448710 -337636 289249 -654519)
(-667576 248686 467051 -378084 355718 -630421)
(-1.02163e+06 469689 458183 -360474 234853 -672495)
(-1.5027e+06 747046 376746 -592469 250265 -818995)
(-1.32294e+06 648755 406286 -606080 315452 -797374)
(-1.70335e+06 864091 345146 -624397 184733 -790259)
(-2.17582e+06 1.1322e+06 242693 -892585 182399 -906538)
(-1.97541e+06 1.04438e+06 279151 -864375 243010 -904580)
(-2.44076e+06 1.24136e+06 118711 -1.0395e+06 169486 -1.01894e+06)
(-2.88223e+06 1.50208e+06 192558 -1.42956e+06 -106157 -1.11548e+06)
(-2.58548e+06 1.41218e+06 61707.9 -1.19123e+06 227234 -978908)