/*--------------------------------*- C++ -*----------------------------------*\
| =========                 |                                                 |
| \\      /  F ield         | OpenFOAM: The Open Source CFD Toolbox           |
|  \\    /   O peration     | Version:  v2012                                 |
|   \\  /    A nd           | Website:  www.openfoam.com                      |
|    \\/     M anipulation  |                                                 |
\*---------------------------------------------------------------------------*/
FoamFile
{
    version     2.0;
    format      ascii;
    class       pointSymmTensorField;
    location    "16";
    object      pEpsilon;
}
// * * * * * * * * * * * * * * * * * * * * * * * * * * * * * * * * * * * * * //

dimensions      [0 0 0 0 0 0 0];


internalField   nonuniform List<symmTensor> 
8282
(
(0.000522761 -2.57799e-05 3.37946e-15 -0.00136544 0 0)
(0.000567455 -6.08866e-06 6.54858e-16 1.81251e-05 0 0)
(0.000693821 5.53153e-07 -1.88868e-15 -0.000297453 3.37133e-15 0)
(0.000182594 9.62753e-05 0 -0.000106935 -3.59955e-16 0)
(0.0084626 -0.000524361 0 -0.00861102 -1.44272e-14 0)
(8.85635e-05 -2.46017e-05 -4.33681e-18 -0.00022391 0 0)
(0.00220279 0.000209485 0 -0.00032708 2.27682e-15 0)
(0.00086529 -0.000249832 1.80303e-15 -0.000593075 1.31216e-15 0)
(0.00177088 -1.32174e-05 1.88489e-15 -0.00074754 9.40003e-15 0)
(0.000642684 -1.23329e-05 4.81386e-16 -0.000172637 -3.48723e-16 0)
(2.18769e-05 3.1905e-05 2.52619e-16 -6.44461e-05 2.39609e-16 0)
(2.18769e-05 3.1905e-05 2.52619e-16 -6.44461e-05 2.39609e-16 0)
(0.00086529 -0.000249832 1.80303e-15 -0.000593075 1.31216e-15 0)
(0.00220279 0.000209485 0 -0.00032708 2.27682e-15 0)
(0.0084626 -0.000524361 0 -0.00861102 -1.44272e-14 0)
(0.000522761 -2.57799e-05 3.37946e-15 -0.00136544 0 0)
(8.85635e-05 -2.46017e-05 -4.33681e-18 -0.00022391 0 0)
(0.000567455 -6.08866e-06 6.54858e-16 1.81251e-05 0 0)
(0.000642684 -1.23329e-05 4.81386e-16 -0.000172637 -3.48723e-16 0)
(0.000693821 5.53153e-07 -1.88868e-15 -0.000297453 3.37133e-15 0)
(0.00177088 -1.32174e-05 1.88489e-15 -0.00074754 9.40003e-15 0)
(0.000182594 9.62753e-05 0 -0.000106935 -3.59955e-16 0)
(0.00214537 0.000138967 -3.66914e-15 -0.000442246 -3.84133e-15 0)
(0.00218385 0.000225921 4.29236e-15 -0.000595714 -4.87891e-17 0)
(0.00225135 0.000271427 1.72184e-14 -0.000809454 -8.68554e-15 0)
(0.00232064 0.000283321 3.91478e-15 -0.00102282 -2.87747e-15 0)
(0.0023574 0.000265996 1.26228e-14 -0.00119346 5.62484e-15 0)
(0.00233435 0.000221874 3.98661e-15 -0.00129492 2.24972e-15 0)
(0.00224194 0.000156727 2.82543e-15 -0.00131967 6.25585e-16 0)
(0.00207946 7.90442e-05 -7.44847e-15 -0.00126794 2.77556e-15 0)
(0.00186359 4.08196e-06 -3.92861e-15 -0.00115272 4.86265e-16 0)
(0.00164019 -4.6752e-05 -2.96529e-15 -0.00100661 6.37782e-15 0)
(0.00146779 -6.4911e-05 -3.58437e-15 -0.000880299 2.21719e-16 0)
(0.00135739 -7.14637e-05 2.68448e-15 -0.000809099 -2.68882e-16 0)
(0.00127963 -7.75203e-05 -1.86591e-15 -0.000758595 -2.97613e-16 0)
(0.00121515 -9.07723e-05 -2.3744e-16 -0.000719747 -7.08526e-16 0)
(0.00115613 -0.000107412 1.84965e-15 -0.000688822 4.17472e-15 0)
(0.00110071 -0.000125997 -5.1608e-16 -0.000663654 -3.32145e-15 0)
(0.00104791 -0.000145917 5.56738e-15 -0.00064282 6.451e-17 0)
(0.000997605 -0.000165971 -1.87567e-16 -0.000625678 1.54472e-15 0)
(0.000951607 -0.000180914 1.70111e-15 -0.00061367 -1.77538e-15 0)
(0.000807744 -0.000267112 -1.38344e-15 -0.000540802 -3.09838e-15 0)
(0.000758614 -0.000284715 1.043e-15 -0.000534564 -9.53827e-16 0)
(0.000706679 -0.000299066 9.13982e-16 -0.00051987 5.2638e-16 0)
(0.000653264 -0.000310414 3.68087e-15 -0.000500961 3.92264e-15 0)
(0.000599159 -0.000318457 1.99927e-15 -0.00047943 1.426e-15 0)
(0.000545011 -0.000322835 -5.0307e-16 -0.000456151 4.80979e-16 0)
(0.00049142 -0.000323246 -1.15793e-15 -0.000431754 8.61941e-17 0)
(0.000438972 -0.000319477 -8.01225e-16 -0.000406776 5.63785e-16 0)
(0.000388245 -0.000311419 -3.58871e-16 -0.000381717 -1.48875e-16 0)
(0.000339804 -0.000299056 1.57209e-16 -0.000357051 3.3163e-16 0)
(0.0002942 -0.000282466 -1.14925e-16 -0.000333239 1.94682e-16 0)
(0.000251957 -0.000261813 2.82977e-16 -0.000310722 2.28902e-16 0)
(0.000213574 -0.000237336 4.33681e-16 -0.000289919 -1.98206e-16 0)
(0.00017952 -0.000209345 -6.28837e-17 -0.000271227 -1.36542e-16 0)
(0.000150231 -0.00017821 -1.64799e-16 -0.000255022 7.66734e-17 0)
(0.000126125 -0.000144349 2.52619e-16 -0.00024166 9.7358e-17 0)
(0.00010762 -0.000108196 4.11997e-17 -0.000231509 -7.09983e-17 0)
(9.52342e-05 -7.00683e-05 4.33681e-18 -0.00022499 -7.15235e-17 0)
(9.0021e-05 -2.93822e-05 -4.33681e-17 -0.000222632 2.21105e-16 0)
(0.000484032 -2.9451e-05 2.64328e-15 -0.00122129 0 0)
(0.000422775 -2.59189e-05 1.21973e-15 -0.00110436 0 0)
(0.000368663 -2.46383e-05 -1.61438e-15 -0.00100168 0 0)
(0.00032109 -2.44609e-05 -1.08745e-15 -0.000910062 0 0)
(0.000279607 -2.48046e-05 -8.04478e-16 -0.000827793 0 0)
(0.000243706 -2.53678e-05 -2.62377e-16 -0.00075367 0 0)
(0.000212846 -2.59927e-05 -6.26669e-16 -0.000686733 0 0)
(0.00018649 -2.65964e-05 1.25767e-16 -0.000626167 0 0)
(0.000164134 -2.71351e-05 3.46945e-16 -0.000571274 0 0)
(0.000145312 -2.75854e-05 -5.63785e-17 -0.000521443 0 0)
(0.000129602 -2.7933e-05 -8.19657e-16 -0.000476144 0 0)
(0.000116625 -2.81662e-05 -5.24754e-16 -0.000434911 0 0)
(0.000106043 -2.82714e-05 -4.25007e-16 -0.000397342 0 0)
(9.75506e-05 -2.82302e-05 -3.07913e-16 -0.000363086 0 0)
(9.08761e-05 -2.80157e-05 -2.1684e-16 -0.000331849 0 0)
(8.57816e-05 -2.75917e-05 -8.0231e-17 -0.000303397 0 0)
(8.20746e-05 -2.69136e-05 -2.60209e-17 -0.00027758 0 0)
(7.96478e-05 -2.5941e-05 3.03577e-17 -0.000254391 0 0)
(7.85981e-05 -2.46829e-05 4.98733e-17 -0.000234131 0 0)
(9.76105e-05 -2.36823e-05 -2.81893e-17 -0.000187932 0 0)
(0.000100799 -2.50023e-05 -1.45283e-16 -0.000146194 0 0)
(0.000109624 -2.45892e-05 -9.75782e-17 -0.000112955 0 0)
(0.000122132 -2.35361e-05 -1.69136e-16 -8.6617e-05 0 0)
(0.000137147 -2.22833e-05 -1.14925e-16 -6.5925e-05 0 0)
(0.000153905 -2.10056e-05 -1.06252e-16 -4.98923e-05 0 0)
(0.000171879 -1.97711e-05 2.86229e-16 -3.77358e-05 0 0)
(0.000190689 -1.86044e-05 -7.15573e-17 -2.88257e-05 0 0)
(0.000210051 -1.7512e-05 -7.15573e-17 -2.26477e-05 0 0)
(0.000229747 -1.64934e-05 1.30104e-17 -1.87754e-05 0 0)
(0.000249606 -1.55451e-05 -3.23092e-16 -1.68504e-05 0 0)
(0.00026949 -1.46626e-05 -3.77302e-16 -1.65663e-05 0 0)
(0.000289286 -1.38414e-05 -2.05998e-16 -1.76584e-05 0 0)
(0.000308902 -1.30769e-05 -7.37257e-16 -1.98942e-05 0 0)
(0.000328257 -1.23651e-05 -3.6646e-16 -2.30675e-05 0 0)
(0.000347284 -1.17021e-05 -5.85469e-17 -2.6993e-05 0 0)
(0.00036592 -1.10846e-05 -1.50487e-15 -3.15024e-05 0 0)
(0.000384114 -1.05092e-05 -1.93422e-15 -3.64411e-05 0 0)
(0.000401814 -9.97319e-06 -6.33174e-16 -4.1666e-05 0 0)
(0.000418975 -9.47385e-06 3.96818e-16 -4.70427e-05 0 0)
(0.000435553 -9.00871e-06 5.07407e-16 -5.24441e-05 0 0)
(0.000451505 -8.5755e-06 -2.62377e-16 -5.77483e-05 0 0)
(0.000466789 -8.17204e-06 1.42464e-15 -6.28375e-05 0 0)
(0.000481362 -7.79625e-06 1.22732e-15 -6.75958e-05 0 0)
(0.00049518 -7.44611e-06 -7.6111e-16 -7.19084e-05 0 0)
(0.000508194 -7.11964e-06 6.13658e-16 -7.56596e-05 0 0)
(0.000520355 -6.81485e-06 6.72205e-16 -7.87311e-05 0 0)
(0.000531606 -6.52973e-06 -1.75641e-16 -8.10007e-05 0 0)
(0.000541884 -6.26225e-06 -1.23599e-16 -8.23396e-05 0 0)
(0.00055112 -6.01036e-06 1.58944e-15 -8.2611e-05 0 0)
(0.000559233 -5.77209e-06 8.06646e-16 -8.16678e-05 0 0)
(0.000566133 -5.54567e-06 -7.91468e-16 -7.93496e-05 0 0)
(0.000571718 -5.32998e-06 2.71051e-16 -7.54809e-05 0 0)
(0.000575874 -5.12549e-06 -6.89553e-16 -6.98684e-05 0 0)
(0.000578477 -4.93658e-06 4.27176e-16 -6.22994e-05 0 0)
(0.000579404 -4.77728e-06 -2.22045e-15 -5.25401e-05 0 0)
(0.000578553 -4.68665e-06 -1.19913e-15 -4.0334e-05 0 0)
(0.000575907 -4.77251e-06 -1.8735e-15 -2.53838e-05 0 0)
(0.000571653 -5.35595e-06 9.88792e-16 -7.17788e-06 0 0)
(0.0005655 1.36604e-07 2.9924e-16 1.93656e-05 3.00361e-16 0)
(0.000566732 7.61409e-07 -1.1601e-15 1.66167e-05 -3.5658e-17 0)
(0.000568192 1.84529e-07 -2.33754e-15 1.34079e-05 2.51197e-16 0)
(0.000570057 -6.09446e-07 2.97071e-16 9.16388e-06 1.72143e-16 0)
(0.000572357 -1.45975e-06 6.78711e-16 3.79266e-06 -1.40468e-16 0)
(0.000575088 -2.32634e-06 9.62772e-16 -2.69938e-06 -1.11532e-15 0)
(0.000578238 -3.19618e-06 7.80626e-17 -1.02755e-05 -1.07471e-15 0)
(0.000581787 -4.06345e-06 8.52183e-16 -1.88859e-05 -1.20635e-15 0)
(0.000585712 -4.9241e-06 -1.12323e-15 -2.84725e-05 -6.94878e-16 0)
(0.000589986 -5.7742e-06 1.65232e-15 -3.89706e-05 -1.21715e-15 0)
(0.000594581 -6.60935e-06 -6.91721e-16 -5.03094e-05 1.35835e-16 0)
(0.000599465 -7.42466e-06 -1.10589e-16 -6.24123e-05 1.52858e-15 0)
(0.000604602 -8.21478e-06 -1.45066e-15 -7.51969e-05 1.575e-15 0)
(0.000609958 -8.97423e-06 -1.01048e-15 -8.85753e-05 1.02596e-15 0)
(0.000615491 -9.69804e-06 -8.0231e-17 -0.000102455 8.01818e-16 0)
(0.000621161 -1.0383e-05 -5.65954e-16 -0.000116739 -1.4295e-15 0)
(0.000626918 -1.10309e-05 1.45283e-16 -0.000131326 -2.6226e-15 0)
(0.000632694 -1.1659e-05 2.48282e-15 -0.000146106 1.12046e-16 0)
(0.000638303 -1.23629e-05 -7.22079e-16 -0.000160889 1.87716e-15 0)
(0.000645988 -1.19857e-05 1.2078e-15 -0.000180819 1.3068e-16 0)
(0.000648724 -1.22593e-05 1.56559e-15 -0.000187281 5.25703e-16 0)
(0.000651363 -1.23381e-05 1.00397e-15 -0.000193707 1.93462e-16 0)
(0.000653944 -1.2317e-05 2.25731e-15 -0.000200075 -3.66935e-17 0)
(0.000656478 -1.22356e-05 1.69569e-15 -0.000206368 -3.61852e-17 0)
(0.000658969 -1.21118e-05 -9.12898e-16 -0.000212571 1.42891e-15 0)
(0.000661415 -1.19538e-05 -2.59775e-15 -0.000218669 1.58846e-15 0)
(0.000663813 -1.17655e-05 -2.72352e-15 -0.000224649 2.04911e-15 0)
(0.000666159 -1.15488e-05 -2.43295e-15 -0.000230498 1.40519e-15 0)
(0.000668449 -1.13046e-05 -1.68919e-15 -0.000236203 4.42422e-16 0)
(0.000670677 -1.10332e-05 -8.26162e-16 -0.000241753 -3.72152e-16 0)
(0.000672841 -1.07347e-05 4.25007e-16 -0.000247135 -1.34699e-15 0)
(0.000674934 -1.04089e-05 -9.93129e-16 -0.000252337 -4.04983e-16 0)
(0.000676953 -1.00558e-05 -7.65447e-16 -0.000257346 -1.54004e-15 0)
(0.000678893 -9.67508e-06 -8.00141e-16 -0.000262152 -1.15075e-15 0)
(0.000680751 -9.26681e-06 -1.25767e-16 -0.00026674 -2.36424e-16 0)
(0.00068252 -8.83095e-06 -1.43548e-15 -0.000271101 3.01747e-16 0)
(0.000684198 -8.36762e-06 -8.6953e-16 -0.000275222 -7.83607e-16 0)
(0.000685781 -7.87711e-06 -9.84456e-16 -0.000279092 -1.57053e-15 0)
(0.000687263 -7.3599e-06 -3.57787e-16 -0.000282699 -9.3919e-16 0)
(0.000688643 -6.81673e-06 -1.04083e-15 -0.000286034 -1.62332e-15 0)
(0.000689915 -6.24869e-06 -7.78457e-16 -0.000289085 -2.01289e-15 0)
(0.000691078 -5.65725e-06 -1.19045e-15 -0.000291845 -1.88502e-15 0)
(0.000692127 -5.04443e-06 2.55872e-16 -0.000294305 -2.22248e-15 0)
(0.000693061 -4.4129e-06 1.49403e-15 -0.000296457 -1.63782e-15 0)
(0.000693877 -3.76617e-06 1.28153e-15 -0.000298296 -1.54431e-15 0)
(0.000694574 -3.1088e-06 3.5345e-16 -0.000299819 -1.34868e-15 0)
(0.000695149 -2.44667e-06 1.16226e-15 -0.000301024 -1.20109e-15 0)
(0.000695602 -1.78733e-06 1.68485e-15 -0.000301911 -1.66703e-15 0)
(0.000695934 -1.14041e-06 4.6187e-16 -0.000302487 -1.47953e-15 0)
(0.000696144 -5.18127e-07 5.48606e-16 -0.000302759 -1.50738e-15 0)
(0.000696233 6.41583e-08 -5.59448e-16 -0.000302744 -2.92694e-15 0)
(0.000696206 5.87243e-07 -9.95298e-16 -0.000302461 -2.30108e-15 0)
(0.000696065 1.02743e-06 -1.86916e-15 -0.000301941 -2.48025e-15 0)
(0.000695818 1.35599e-06 -1.89519e-15 -0.000301224 -1.76183e-15 0)
(0.000695475 1.53906e-06 2.23346e-16 -0.000300364 -9.71174e-16 0)
(0.000695055 1.5387e-06 -1.35959e-15 -0.000299432 -1.00424e-16 0)
(0.000694589 1.31684e-06 -1.71954e-15 -0.000298521 7.0175e-16 0)
(0.00069414 8.45536e-07 -1.50487e-15 -0.000297758 2.57891e-15 0)
(0.000693013 6.70881e-07 -5.83301e-16 -0.000297105 2.1352e-15 0)
(0.00069091 7.17282e-07 -1.3726e-15 -0.000296723 1.0369e-15 0)
(0.000690255 4.24707e-07 1.99493e-16 -0.000297 -1.39686e-15 0)
(0.000692184 -2.23699e-08 2.08167e-16 -0.000298263 -8.70072e-17 0)
(0.000697054 -5.24057e-07 -8.93383e-16 -0.000300647 -5.96853e-16 0)
(0.000704892 -1.03733e-06 5.63785e-17 -0.000304182 -1.25957e-15 0)
(0.000715588 -1.54431e-06 1.38344e-15 -0.000308846 1.23545e-15 0)
(0.000728985 -2.03822e-06 4.68375e-16 -0.000314591 2.33835e-15 0)
(0.000744913 -2.51749e-06 7.95804e-16 -0.000321361 4.04543e-16 0)
(0.000763215 -2.98298e-06 -1.47451e-15 -0.0003291 6.51606e-16 0)
(0.000783751 -3.43673e-06 6.245e-16 -0.000337756 -3.57516e-16 0)
(0.0008064 -3.88119e-06 1.9494e-15 -0.000347283 7.19639e-16 0)
(0.00083106 -4.31882e-06 2.3267e-15 -0.000357642 2.778e-15 0)
(0.000857646 -4.75189e-06 -3.11166e-16 -0.000368799 6.6299e-16 0)
(0.000886084 -5.18223e-06 -3.52366e-16 -0.000380723 -5.74492e-16 0)
(0.000916312 -5.61123e-06 9.82287e-16 -0.000393389 -1.15698e-15 0)
(0.000948273 -6.03969e-06 1.18829e-15 -0.000406772 -1.95671e-15 0)
(0.000981911 -6.46779e-06 4.87891e-17 -0.000420846 -2.67961e-15 0)
(0.00101717 -6.89504e-06 6.1149e-16 -0.000435586 1.10751e-15 0)
(0.00105398 -7.32017e-06 -3.82723e-16 -0.000450963 4.87959e-15 0)
(0.00109226 -7.74117e-06 -2.28116e-15 -0.000466942 1.18856e-16 0)
(0.00113193 -8.15513e-06 -1.34549e-15 -0.000483481 -2.6563e-15 0)
(0.00117288 -8.55824e-06 2.64112e-15 -0.000500532 -3.96818e-16 0)
(0.00121496 -8.9457e-06 3.64292e-16 -0.000518034 2.07069e-15 0)
(0.00125801 -9.31161e-06 -2.82001e-15 -0.000535914 3.3266e-15 0)
(0.00130182 -9.64878e-06 -8.47846e-16 -0.000554085 2.74412e-15 0)
(0.00134615 -9.94846e-06 -6.46184e-16 -0.00057244 3.06016e-15 0)
(0.00139072 -1.01997e-05 4.91903e-15 -0.000590855 2.91217e-15 0)
(0.00143515 -1.03879e-05 -9.07477e-16 -0.000609177 -4.03161e-15 0)
(0.00147901 -1.04922e-05 -7.68482e-15 -0.00062722 -2.12368e-15 0)
(0.00152174 -1.04813e-05 -6.90854e-15 -0.000644748 -1.39699e-15 0)
(0.00156259 -1.03133e-05 -7.40076e-15 -0.000661439 3.95029e-15 0)
(0.00160021 -9.88785e-06 4.63605e-15 -0.000676529 5.44812e-15 0)
(0.00163798 -5.27823e-06 -3.68737e-15 -0.000699441 -3.46701e-15 0)
(0.00168074 -3.52121e-06 3.70147e-15 -0.000728812 -1.21214e-15 0)
(0.00172677 -2.66306e-06 -2.91217e-15 -0.000765799 -3.94433e-15 0)
(0.00176539 -4.69197e-06 -2.82706e-15 -0.000791584 8.03719e-15 0)
(0.00178685 -8.00555e-06 1.06263e-14 -0.000797308 -2.54516e-15 0)
(0.00178367 -1.33105e-05 5.74085e-16 -0.000774849 5.35704e-15 0)
(0.00176781 -2.15013e-06 -2.28712e-15 -0.000743421 -5.22694e-15 0)
(0.0017591 1.39841e-06 -8.74653e-15 -0.000740117 2.15594e-15 0)
(0.00174257 3.49045e-06 -5.03232e-15 -0.000732937 4.99275e-15 0)
(0.00171502 5.5345e-06 -5.25404e-15 -0.00072152 1.36067e-16 0)
(0.00167501 7.78793e-06 -6.30599e-15 -0.000705045 6.02871e-15 0)
(0.00162064 1.03758e-05 -9.80119e-16 -0.000682697 -3.16587e-16 0)
(0.00155001 1.33132e-05 -6.22332e-16 -0.000653748 -2.16732e-15 0)
(0.0014618 1.65101e-05 1.25374e-15 -0.000617737 -8.70614e-16 0)
(0.00135584 1.97631e-05 1.3375e-15 -0.000574693 -2.80266e-15 0)
(0.00123378 2.2785e-05 5.65682e-16 -0.000525328 -1.75966e-15 0)
(0.00109913 2.53059e-05 1.917e-16 -0.000471057 4.25007e-16 0)
(0.000956891 2.71832e-05 1.03745e-16 -0.000413831 -1.30646e-15 0)
(0.000812707 2.84067e-05 -6.9145e-16 -0.000355879 9.68193e-16 0)
(0.000672154 2.90326e-05 -5.63988e-16 -0.000299462 -1.16985e-15 0)
(0.000540439 2.91057e-05 9.61552e-17 -0.000246756 4.11997e-16 0)
(0.000422414 2.86052e-05 -3.30495e-16 -0.000199826 4.33681e-18 0)
(0.000322729 2.74341e-05 -2.61869e-16 -0.00016062 1.29237e-15 0)
(0.000245636 2.54535e-05 -5.86409e-16 -0.000130754 1.02023e-15 0)
(0.000192075 2.29192e-05 -4.25744e-16 -0.000109526 1.87567e-16 0)
(0.000263922 9.75071e-05 0 -0.000121811 -5.48606e-16 0)
(0.00033909 9.60538e-05 0 -0.000149061 -7.10152e-16 0)
(0.000409642 9.50464e-05 0 -0.000173496 -1.32056e-15 0)
(0.000476258 9.4411e-05 0 -0.000195474 -1.4615e-15 0)
(0.000539429 9.40834e-05 0 -0.000215241 -1.20563e-15 0)
(0.000599529 9.40105e-05 0 -0.00023298 -1.3043e-15 0)
(0.000656862 9.41499e-05 0 -0.000248839 -1.79219e-15 0)
(0.000711688 9.44685e-05 0 -0.000262944 -1.25876e-15 0)
(0.00076423 9.49408e-05 0 -0.000275409 -1.40838e-15 0)
(0.000814691 9.55481e-05 0 -0.000286337 -7.83878e-16 0)
(0.000863258 9.62767e-05 0 -0.000295826 -8.34836e-16 0)
(0.0009101 9.71179e-05 0 -0.000303967 -4.96565e-16 0)
(0.000955377 9.80664e-05 0 -0.000310844 6.48353e-16 0)
(0.000999241 9.91203e-05 0 -0.000316539 1.58836e-15 0)
(0.00104183 0.00010028 0 -0.000321126 5.59448e-16 0)
(0.00108329 0.00010155 0 -0.000324677 -1.23274e-15 0)
(0.00112375 0.000102935 0 -0.000327258 -2.5598e-15 0)
(0.00116332 0.000104442 0 -0.000328932 -2.57064e-15 0)
(0.00120214 0.000106082 0 -0.000329755 -3.41307e-15 0)
(0.00124032 0.000107866 0 -0.000329782 -4.36933e-15 0)
(0.00127798 0.000109809 0 -0.000329062 -3.96167e-15 0)
(0.00131525 0.000111926 0 -0.000327644 -4.76073e-15 0)
(0.00135223 0.000114235 0 -0.000325571 -3.23092e-15 0)
(0.00138907 0.000116758 0 -0.000322888 -1.57968e-15 0)
(0.00142587 0.000119517 0 -0.000319638 2.17383e-15 0)
(0.0014628 0.00012254 0 -0.000315865 1.10155e-15 0)
(0.00149999 0.000125854 0 -0.000311617 1.66967e-15 0)
(0.00153762 0.000129491 0 -0.000306946 9.21572e-17 0)
(0.00157588 0.000133488 0 -0.000301916 8.93383e-16 0)
(0.00161499 0.000137882 0 -0.000296604 1.36609e-16 0)
(0.00165523 0.000142714 0 -0.000291106 -4.22839e-16 0)
(0.00169689 0.000148033 0 -0.000285548 -1.15034e-15 0)
(0.00174039 0.000153882 0 -0.000280102 3.24176e-16 0)
(0.00178622 0.000160306 0 -0.000275009 -1.0777e-15 0)
(0.00183502 0.000167353 0 -0.00027059 -3.39355e-15 0)
(0.00188753 0.000175096 0 -0.000267245 -3.44993e-15 0)
(0.0019448 0.000183582 0 -0.000265559 -4.36717e-15 0)
(0.00200857 0.000192744 0 -0.000266602 -4.13515e-15 0)
(0.00208116 0.000202575 0 -0.000271921 -5.58364e-16 0)
(0.00241629 0.000215885 0 -0.000459826 5.92408e-15 0)
(0.00268919 0.000215105 0 -0.000663404 1.15695e-14 0)
(0.00301803 0.000206642 0 -0.000938855 1.6739e-14 0)
(0.00339911 0.000188879 0 -0.00128796 8.54134e-15 0)
(0.00382507 0.000161145 0 -0.00170818 1.05374e-14 0)
(0.00428526 0.000124011 0 -0.0021918 1.63671e-14 0)
(0.0047665 7.92489e-05 0 -0.00272626 6.6158e-15 0)
(0.00525467 2.94717e-05 0 -0.00329569 9.07802e-15 0)
(0.00573629 -2.25412e-05 0 -0.00388325 -1.32945e-14 0)
(0.00619989 -7.4486e-05 0 -0.0044738 9.3198e-15 0)
(0.00663608 -0.000124951 0 -0.00505476 -4.92553e-15 0)
(0.00703791 -0.000173398 0 -0.0056165 -5.73109e-15 0)
(0.00740054 -0.000220099 0 -0.00615229 -2.20342e-14 0)
(0.0077195 -0.000265791 0 -0.00665677 1.01096e-14 0)
(0.00799083 -0.000311446 0 -0.00712546 1.50867e-15 0)
(0.0082103 -0.000357993 0 -0.00755386 -2.64009e-14 0)
(0.0083726 -0.000405678 0 -0.007936 -3.36168e-14 0)
(0.00847003 -0.000452844 0 -0.00826214 -3.17124e-14 0)
(0.00848791 -0.000492047 0 -0.00851154 -1.22276e-14 0)
(0.000856921 -0.000256828 1.18829e-15 -0.000550645 3.13877e-16 0)
(0.00084245 -0.000272062 -2.10227e-15 -0.000523379 2.98996e-15 0)
(0.000827863 -0.000292387 6.10406e-16 -0.000499074 -7.91468e-16 0)
(0.000811843 -0.000312715 -2.35272e-16 -0.00047401 -7.89841e-16 0)
(0.000795104 -0.000331054 2.60209e-17 -0.000448299 1.70396e-15 0)
(0.000778411 -0.000346548 8.07731e-16 -0.000422639 2.06961e-15 0)
(0.000762348 -0.00035888 9.46508e-16 -0.0003977 -1.61248e-15 0)
(0.000747317 -0.000368024 6.93889e-17 -0.000374013 -6.85148e-16 0)
(0.000733573 -0.000374119 3.81856e-15 -0.000351948 -1.13658e-15 0)
(0.000721254 -0.000377397 1.43223e-15 -0.00033174 8.017e-16 0)
(0.00071041 -0.000378131 2.07083e-16 -0.000313509 1.4901e-15 0)
(0.000701024 -0.00037661 -8.89046e-16 -0.000297285 1.06042e-15 0)
(0.000693034 -0.000373117 1.94072e-16 -0.000283029 2.52755e-17 0)
(0.000686346 -0.000367922 -2.6563e-16 -0.000270654 -1.99805e-15 0)
(0.000680843 -0.000361273 1.57209e-16 -0.000260034 -1.33398e-15 0)
(0.000676399 -0.000353392 -6.08237e-16 -0.00025102 -1.33154e-15 0)
(0.000672883 -0.00034448 -2.56739e-15 -0.00024345 4.26905e-16 0)
(0.000670161 -0.00033471 -1.41055e-15 -0.000237152 5.05577e-16 0)
(0.000668105 -0.000324233 -8.42425e-16 -0.000231953 1.65419e-15 0)
(0.000666591 -0.000313178 -1.05384e-15 -0.000227683 -5.30446e-16 0)
(0.000665502 -0.000301653 1.05927e-15 -0.000224175 -8.57739e-16 0)
(0.000664729 -0.000289748 -3.36103e-17 -0.000221273 -3.77878e-16 0)
(0.00066417 -0.000277534 1.10047e-15 -0.000218825 -9.18929e-16 0)
(0.000663733 -0.000265066 -1.32273e-16 -0.000216692 1.52744e-15 0)
(0.000663334 -0.000252383 2.53703e-16 -0.000214747 -1.70843e-15 0)
(0.000662896 -0.000239508 -1.29454e-15 -0.000212873 -2.53297e-16 0)
(0.000662355 -0.000226452 -5.85469e-16 -0.000210968 1.72998e-16 0)
(0.000661654 -0.000213208 1.86483e-16 -0.000208945 -6.92534e-16 0)
(0.000660748 -0.000199753 -2.39392e-15 -0.000206734 -4.53332e-17 0)
(0.000659606 -0.000186044 -1.89085e-15 -0.000204284 -1.83854e-15 0)
(0.00065821 -0.00017202 -2.16407e-15 -0.000201568 1.7083e-16 0)
(0.00065656 -0.00015759 9.80119e-16 -0.00019858 1.72598e-15 0)
(0.000654676 -0.000142632 8.5652e-16 -0.000195345 1.97731e-16 0)
(0.000652596 -0.000126984 -7.17742e-16 -0.000191914 2.21001e-15 0)
(0.000650385 -0.00011043 9.08561e-16 -0.000188373 -1.10558e-15 0)
(0.000648124 -9.26932e-05 -2.75387e-16 -0.000184837 7.92823e-16 0)
(0.000645917 -7.34175e-05 9.75782e-17 -0.000181452 -3.18484e-16 0)
(0.000643872 -5.21621e-05 1.15359e-15 -0.000178392 -2.26395e-16 0)
(0.000642105 -2.84155e-05 9.32414e-16 -0.000175897 -1.5748e-16 0)
(0.000906434 -0.000272526 -1.73906e-15 -0.000672527 2.0692e-15 0)
(0.000937622 -0.000258253 -1.60245e-15 -0.000669073 3.22821e-16 0)
(0.000965038 -0.000245659 1.2837e-15 -0.000666735 -2.12829e-15 0)
(0.000990258 -0.000234156 -5.74627e-17 -0.000665558 -8.21554e-16 0)
(0.00101407 -0.000223372 5.34512e-16 -0.000665358 -1.29074e-15 0)
(0.00103689 -0.000213062 3.42608e-16 -0.000665907 -2.24267e-15 0)
(0.00105897 -0.000203061 2.57173e-15 -0.000666994 -1.95671e-15 0)
(0.00108045 -0.000193264 6.51931e-15 -0.000668444 -6.28837e-16 0)
(0.00110143 -0.0001836 1.82146e-15 -0.00067012 -1.62766e-15 0)
(0.001122 -0.000174027 8.13152e-17 -0.000671919 -9.42714e-16 0)
(0.00114221 -0.000164516 2.19226e-15 -0.000673765 -2.04291e-15 0)
(0.00116211 -0.000155054 2.17816e-15 -0.000675603 -1.60733e-15 0)
(0.00118175 -0.00014563 1.13841e-15 -0.000677394 -1.60137e-15 0)
(0.00120116 -0.000136242 -6.38595e-16 -0.000679111 -2.73571e-15 0)
(0.00122037 -0.000126887 -2.76363e-15 -0.000680733 -1.53415e-15 0)
(0.00123942 -0.000117571 -5.3874e-15 -0.000682245 -1.61492e-15 0)
(0.00125832 -0.000108301 1.0983e-15 -0.000683634 -2.24376e-15 0)
(0.0012771 -9.90949e-05 1.82038e-15 -0.000684887 -1.83989e-15 0)
(0.00129576 -8.99768e-05 2.65467e-15 -0.000685996 -1.32815e-16 0)
(0.00131433 -8.09823e-05 -8.6682e-16 -0.000686956 1.54987e-15 0)
(0.00133283 -7.21581e-05 6.02274e-16 -0.000687767 -4.93854e-16 0)
(0.00135129 -6.35621e-05 -1.91362e-15 -0.000688438 -1.19262e-15 0)
(0.00136974 -5.52622e-05 -5.93275e-15 -0.000688992 -1.58836e-16 0)
(0.00138823 -4.73343e-05 -3.96547e-15 -0.000689461 -1.49024e-15 0)
(0.00140683 -3.98594e-05 -2.29634e-15 -0.000689897 -2.33646e-16 0)
(0.00142563 -3.29206e-05 -2.06053e-15 -0.000690368 1.19967e-15 0)
(0.00144473 -2.65993e-05 -1.67184e-15 -0.000690959 4.98191e-16 0)
(0.00146424 -2.09719e-05 -1.5233e-16 -0.000691774 5.70832e-16 0)
(0.0014843 -1.61064e-05 -4.29886e-16 -0.000692931 -3.14419e-17 0)
(0.00150507 -1.20595e-05 3.44668e-15 -0.000694561 5.01444e-16 0)
(0.00152669 -8.87381e-06 5.47793e-15 -0.000696808 1.24737e-15 0)
(0.00154932 -6.57606e-06 2.10118e-15 -0.000699816 3.26616e-15 0)
(0.00157313 -5.17403e-06 -2.1169e-15 -0.000703729 3.64997e-15 0)
(0.00159824 -4.65283e-06 1.25225e-15 -0.000708677 3.80447e-15 0)
(0.00162475 -4.96686e-06 -4.81061e-15 -0.000714764 5.62538e-15 0)
(0.00165271 -6.02109e-06 -4.01426e-15 -0.000722044 4.87728e-15 0)
(0.00168206 -7.62444e-06 3.62232e-15 -0.000730496 2.65467e-15 0)
(0.00171264 -9.36859e-06 6.47377e-15 -0.000739995 4.53197e-15 0)
(0.00174456 -9.61687e-06 3.31007e-15 -0.000751987 7.01804e-15 0)
(0.00841786 -0.000731055 -4.62846e-15 -0.00866335 -3.57806e-14 0)
(0.00822535 -0.00131503 -1.41534e-14 -0.00843441 -2.98969e-16 0)
(0.0079141 -0.00189087 1.82647e-14 -0.00806219 9.26722e-16 0)
(0.00745852 -0.00241281 -5.08491e-16 -0.0075236 -5.03449e-15 0)
(0.00684767 -0.00282918 -4.48426e-15 -0.00680384 -5.0719e-15 0)
(0.00607318 -0.00308579 9.70903e-15 -0.00589124 -9.32305e-15 0)
(0.00512765 -0.0031231 -1.97758e-15 -0.00478157 -3.00487e-15 0)
(0.00402111 -0.00288385 9.18211e-15 -0.00350201 -1.99873e-14 0)
(0.00280611 -0.00233853 -2.49366e-16 -0.00214057 -3.22713e-15 0)
(0.00159925 -0.00153528 1.24575e-15 -0.000867858 -4.674e-15 0)
(0.000649432 -0.000719249 2.4503e-16 5.40273e-06 -1.41109e-15 0)
(0.000414695 -0.000376104 2.73761e-15 -7.37159e-05 4.96565e-16 0)
(0.000405482 -0.000359171 -3.10624e-15 -6.13898e-05 2.27682e-17 0)
(0.000363247 -0.000337837 -9.08561e-16 -4.28391e-05 -2.07083e-16 0)
(0.000303028 -0.000300902 -9.83371e-16 -2.5688e-05 -1.47451e-16 0)
(0.000236435 -0.000250218 -1.14275e-15 -1.40116e-05 9.37835e-17 0)
(0.00017093 -0.000188531 -6.01732e-16 -1.06574e-05 2.2443e-16 0)
(0.000111418 -0.000118926 -4.14165e-16 -1.74165e-05 4.60786e-17 0)
(6.10865e-05 -4.44829e-05 5.74627e-17 -3.52421e-05 2.48282e-16 0)
(-5.21441e-06 0.00010764 2.95987e-16 -0.000104871 1.24683e-16 0)
(-1.99429e-05 0.000180472 3.06829e-16 -0.000156009 2.98156e-17 0)
(-2.26445e-05 0.000248495 4.10913e-16 -0.000217053 -4.55365e-17 0)
(-1.4059e-05 0.000310102 2.47198e-16 -0.00028697 -1.40133e-16 0)
(4.78965e-06 0.000363952 2.17925e-16 -0.00036454 -2.84603e-16 0)
(3.26767e-05 0.000408937 1.51788e-17 -0.000448386 -4.18231e-16 0)
(6.82335e-05 0.000444167 3.22008e-16 -0.000537003 -1.2631e-16 0)
(0.000109988 0.000468969 -3.1984e-16 -0.000628774 2.09522e-16 0)
(0.000156397 0.000482887 -3.14419e-17 -0.000722003 -3.84892e-17 0)
(0.000205873 0.000485691 -1.29996e-15 -0.000814939 -1.1853e-15 0)
(0.000256818 0.000477381 1.76725e-15 -0.000905815 -6.67597e-16 0)
(0.00030765 0.000458195 2.04264e-15 -0.000992875 7.27771e-16 0)
(0.000356834 0.000428604 2.41235e-15 -0.00107441 3.81273e-15 0)
(0.00040292 0.00038931 -1.18612e-15 -0.00114881 9.41087e-16 0)
(0.000444573 0.000341236 -2.90566e-16 -0.00121455 2.10877e-16 0)
(0.000480624 0.000285506 5.96311e-17 -0.0012703 1.58795e-15 0)
(0.000510152 0.000223392 4.49944e-16 -0.00131496 -2.4793e-15 0)
(0.000532813 0.000156023 1.04083e-15 -0.00134821 1.64568e-15 0)
(0.000551493 8.10417e-05 4.64147e-15 -0.00137491 4.19532e-15 0)
(9.25331e-05 2.7607e-05 2.87314e-16 -0.000110832 1.09504e-16 0)
(0.00018564 2.33585e-06 4.92228e-16 -0.000184123 -9.70361e-17 0)
(0.000267131 -2.09273e-05 5.07407e-16 -0.000246207 -5.25838e-17 0)
(0.000339076 -4.24594e-05 6.37511e-16 -0.000299067 -1.32815e-16 0)
(0.000403112 -6.23856e-05 8.03394e-16 -0.000344288 -3.59413e-16 0)
(0.000460529 -8.07527e-05 1.06577e-15 -0.000383126 -5.31259e-17 0)
(0.00051234 -9.75738e-05 -7.00395e-16 -0.000416573 6.87655e-16 0)
(0.000559349 -0.000112855 5.88722e-16 -0.000445411 -1.25767e-16 0)
(0.000602197 -0.000126607 1.01807e-15 -0.000470261 1.00533e-15 0)
(0.000641405 -0.000138854 2.6769e-15 -0.000491614 4.71086e-16 0)
(0.000677404 -0.000149629 3.08347e-15 -0.000509858 -1.06794e-16 0)
(0.000710561 -0.000158975 3.75134e-16 -0.000525304 1.16281e-16 0)
(0.0007412 -0.000166939 1.59378e-16 -0.00053819 -2.93819e-16 0)
(0.000769613 -0.000173563 2.95987e-15 -0.000548687 -2.29038e-16 0)
(0.000796062 -0.000178882 4.52221e-15 -0.000556884 -6.83861e-16 0)
(0.000820754 -0.000182913 1.54607e-15 -0.000562744 2.20012e-15 0)
(0.000843752 -0.000185636 2.395e-15 -0.000565974 1.35579e-15 0)
(0.000864635 -0.000186929 3.92481e-15 -0.000565642 6.863e-16 0)
(0.000881321 -0.000186288 1.07661e-15 -0.000558935 1.64175e-15 0)
(9.25331e-05 2.7607e-05 2.87314e-16 -0.000110832 1.09504e-16 0)
(0.00018564 2.33585e-06 4.92228e-16 -0.000184123 -9.70361e-17 0)
(0.000267131 -2.09273e-05 5.07407e-16 -0.000246207 -5.25838e-17 0)
(0.000339076 -4.24594e-05 6.37511e-16 -0.000299067 -1.32815e-16 0)
(0.000403112 -6.23856e-05 8.03394e-16 -0.000344288 -3.59413e-16 0)
(0.000460529 -8.07527e-05 1.06577e-15 -0.000383126 -5.31259e-17 0)
(0.00051234 -9.75738e-05 -7.00395e-16 -0.000416573 6.87655e-16 0)
(0.000559349 -0.000112855 5.88722e-16 -0.000445411 -1.25767e-16 0)
(0.000602197 -0.000126607 1.01807e-15 -0.000470261 1.00533e-15 0)
(0.000641405 -0.000138854 2.6769e-15 -0.000491614 4.71086e-16 0)
(0.000677404 -0.000149629 3.08347e-15 -0.000509858 -1.06794e-16 0)
(0.000710561 -0.000158975 3.75134e-16 -0.000525304 1.16281e-16 0)
(0.0007412 -0.000166939 1.59378e-16 -0.00053819 -2.93819e-16 0)
(0.000769613 -0.000173563 2.95987e-15 -0.000548687 -2.29038e-16 0)
(0.000796062 -0.000178882 4.52221e-15 -0.000556884 -6.83861e-16 0)
(0.000820754 -0.000182913 1.54607e-15 -0.000562744 2.20012e-15 0)
(0.000843752 -0.000185636 2.395e-15 -0.000565974 1.35579e-15 0)
(0.000864635 -0.000186929 3.92481e-15 -0.000565642 6.863e-16 0)
(0.000881321 -0.000186288 1.07661e-15 -0.000558935 1.64175e-15 0)
(0.000951607 -0.000180914 1.70111e-15 -0.00061367 -1.77538e-15 0)
(0.000997605 -0.000165971 -1.87567e-16 -0.000625678 1.54472e-15 0)
(0.00104791 -0.000145917 5.56738e-15 -0.00064282 6.451e-17 0)
(0.00110071 -0.000125997 -5.1608e-16 -0.000663654 -3.32145e-15 0)
(0.00115613 -0.000107412 1.84965e-15 -0.000688822 4.17472e-15 0)
(0.00121515 -9.07723e-05 -2.3744e-16 -0.000719747 -7.08526e-16 0)
(0.00127963 -7.75203e-05 -1.86591e-15 -0.000758595 -2.97613e-16 0)
(0.00135739 -7.14637e-05 2.68448e-15 -0.000809099 -2.68882e-16 0)
(0.00146779 -6.4911e-05 -3.58437e-15 -0.000880299 2.21719e-16 0)
(0.00164019 -4.6752e-05 -2.96529e-15 -0.00100661 6.37782e-15 0)
(0.00186359 4.08196e-06 -3.92861e-15 -0.00115272 4.86265e-16 0)
(0.00207946 7.90442e-05 -7.44847e-15 -0.00126794 2.77556e-15 0)
(0.00224194 0.000156727 2.82543e-15 -0.00131967 6.25585e-16 0)
(0.00233435 0.000221874 3.98661e-15 -0.00129492 2.24972e-15 0)
(0.0023574 0.000265996 1.26228e-14 -0.00119346 5.62484e-15 0)
(0.00232064 0.000283321 3.91478e-15 -0.00102282 -2.87747e-15 0)
(0.00225135 0.000271427 1.72184e-14 -0.000809454 -8.68554e-15 0)