/*--------------------------------*- C++ -*----------------------------------*\
| =========                 |                                                 |
| \\      /  F ield         | OpenFOAM: The Open Source CFD Toolbox           |
|  \\    /   O peration     | Version:  v2012                                 |
|   \\  /    A nd           | Website:  www.openfoam.com                      |
|    \\/     M anipulation  |                                                 |
\*---------------------------------------------------------------------------*/
FoamFile
{
    version     2.0;
    format      ascii;
    class       pointVectorField;
    location    "16";
    object      pointD;
}
// * * * * * * * * * * * * * * * * * * * * * * * * * * * * * * * * * * * * * //

dimensions      [0 1 0 0 0 0 0];


internalField   nonuniform List<vector> 
8282
(
(0.0019231 0 0)
(0.00245422 0 0)
(0.0022534 -0.000151451 0)
(0 -0.00156176 0)
(0 -0.000380751 0)
(0.00197314 0 0)
(0 -0.00149201 0)
(0.00133233 -0.000362582 0)
(0.000577735 -0.000677571 0)
(0.00236122 -2.65611e-05 0)
(0.00158142 -0.000597243 0)
(0.00158142 -0.000597243 0)
(0.00133233 -0.000362582 0)
(0 -0.00149201 0)
(0 -0.000380751 0)
(0.0019231 0 0)
(0.00197314 0 0)
(0.00245422 0 0)
(0.00236122 -2.65611e-05 0)
(0.0022534 -0.000151451 0)
(0.000577735 -0.000677571 0)
(0 -0.00156176 0)
(6.24697e-05 -0.0014795 0)
(0.000126342 -0.0014492 0)
(0.00019371 -0.0014033 0)
(0.000265723 -0.00134394 0)
(0.000342342 -0.00127397 0)
(0.000422249 -0.00119689 0)
(0.000503408 -0.00111658 0)
(0.000583442 -0.00103685 0)
(0.000659959 -0.000961024 0)
(0.000731207 -0.000891327 0)
(0.000797105 -0.000827516 0)
(0.000860064 -0.000767032 0)
(0.000921838 -0.000708216 0)
(0.000982811 -0.000651522 0)
(0.00104302 -0.000597215 0)
(0.00110246 -0.000545415 0)
(0.00116111 -0.00049617 0)
(0.00121895 -0.000449468 0)
(0.001276 -0.000405167 0)
(0.00138569 -0.000326119 0)
(0.00143811 -0.000291655 0)
(0.00148924 -0.000259415 0)
(0.00153884 -0.000229485 0)
(0.00158668 -0.000201883 0)
(0.00163256 -0.000176581 0)
(0.00167627 -0.000153521 0)
(0.00171763 -0.000132622 0)
(0.00175646 -0.000113782 0)
(0.00179257 -9.68835e-05 0)
(0.00182581 -8.17925e-05 0)
(0.00185601 -6.83643e-05 0)
(0.00188303 -5.64422e-05 0)
(0.00190672 -4.58595e-05 0)
(0.00192698 -3.64405e-05 0)
(0.00194369 -2.80012e-05 0)
(0.00195676 -2.03497e-05 0)
(0.00196611 -1.32854e-05 0)
(0.00197164 -6.593e-06 0)
(0.00192956 0 0)
(0.00193522 0 0)
(0.00194016 0 0)
(0.00194447 0 0)
(0.00194822 0 0)
(0.00195149 0 0)
(0.00195434 0 0)
(0.00195684 0 0)
(0.00195902 0 0)
(0.00196095 0 0)
(0.00196267 0 0)
(0.0019642 0 0)
(0.00196559 0 0)
(0.00196686 0 0)
(0.00196803 0 0)
(0.00196913 0 0)
(0.00197018 0 0)
(0.00197118 0 0)
(0.00197216 0 0)
(0.00197623 0 0)
(0.0019793 0 0)
(0.00198257 0 0)
(0.00198619 0 0)
(0.00199025 0 0)
(0.00199481 0 0)
(0.00199993 0 0)
(0.00200562 0 0)
(0.00201192 0 0)
(0.00201883 0 0)
(0.00202636 0 0)
(0.00203451 0 0)
(0.00204328 0 0)
(0.00205267 0 0)
(0.00206267 0 0)
(0.00207327 0 0)
(0.00208446 0 0)
(0.00209622 0 0)
(0.00210854 0 0)
(0.00212141 0 0)
(0.00213481 0 0)
(0.00214871 0 0)
(0.0021631 0 0)
(0.00217795 0 0)
(0.00219325 0 0)
(0.00220896 0 0)
(0.00222507 0 0)
(0.00224154 0 0)
(0.00225834 0 0)
(0.00227545 0 0)
(0.00229283 0 0)
(0.00231044 0 0)
(0.00232824 0 0)
(0.00234619 0 0)
(0.00236425 0 0)
(0.00238235 0 0)
(0.00240046 0 0)
(0.0024185 0 0)
(0.00243644 0 0)
(0.00245369 6.25842e-07 0)
(0.00245276 1.17443e-06 0)
(0.00245132 1.65107e-06 0)
(0.00244934 2.03066e-06 0)
(0.00244684 2.283e-06 0)
(0.00244382 2.37739e-06 0)
(0.0024403 2.28392e-06 0)
(0.00243629 1.9739e-06 0)
(0.00243182 1.42013e-06 0)
(0.00242692 5.97052e-07 0)
(0.00242161 -5.1904e-07 0)
(0.00241592 -1.94988e-06 0)
(0.0024099 -3.71506e-06 0)
(0.00240356 -5.83188e-06 0)
(0.00239695 -8.31522e-06 0)
(0.00239011 -1.11774e-05 0)
(0.00238308 -1.44281e-05 0)
(0.0023759 -1.80743e-05 0)
(0.0023686 -2.21198e-05 0)
(0.00235798 -2.8645e-05 0)
(0.00235473 -3.08052e-05 0)
(0.00235147 -3.30412e-05 0)
(0.00234822 -3.53527e-05 0)
(0.00234497 -3.77387e-05 0)
(0.00234173 -4.01984e-05 0)
(0.00233851 -4.27306e-05 0)
(0.00233531 -4.5334e-05 0)
(0.00233213 -4.8007e-05 0)
(0.00232897 -5.07481e-05 0)
(0.00232584 -5.35556e-05 0)
(0.00232274 -5.64274e-05 0)
(0.00231967 -5.93616e-05 0)
(0.00231665 -6.2356e-05 0)
(0.00231366 -6.54081e-05 0)
(0.00231071 -6.85156e-05 0)
(0.0023078 -7.16759e-05 0)
(0.00230494 -7.4886e-05 0)
(0.00230213 -7.81433e-05 0)
(0.00229937 -8.14445e-05 0)
(0.00229665 -8.47866e-05 0)
(0.00229399 -8.81663e-05 0)
(0.00229138 -9.15801e-05 0)
(0.00228882 -9.50247e-05 0)
(0.00228632 -9.84963e-05 0)
(0.00228386 -0.000101991 0)
(0.00228146 -0.000105506 0)
(0.0022791 -0.000109037 0)
(0.00227679 -0.00011258 0)
(0.00227453 -0.000116131 0)
(0.00227231 -0.000119687 0)
(0.00227013 -0.000123244 0)
(0.00226798 -0.0001268 0)
(0.00226586 -0.00013035 0)
(0.00226376 -0.000133892 0)
(0.00226169 -0.000137425 0)
(0.00225962 -0.000140947 0)
(0.00225755 -0.000144458 0)
(0.00225548 -0.000147958 0)
(0.00222791 -0.000158005 0)
(0.00220252 -0.000164464 0)
(0.00217719 -0.000170652 0)
(0.00215184 -0.000176432 0)
(0.00212636 -0.000181723 0)
(0.00210064 -0.000186484 0)
(0.00207455 -0.000190707 0)
(0.00204801 -0.000194411 0)
(0.00202091 -0.00019763 0)
(0.00199316 -0.000200414 0)
(0.00196468 -0.000202828 0)
(0.00193539 -0.000204941 0)
(0.0019052 -0.000206836 0)
(0.00187406 -0.0002086 0)
(0.00184189 -0.000210328 0)
(0.00180862 -0.000212124 0)
(0.00177419 -0.000214095 0)
(0.00173853 -0.00021636 0)
(0.00170159 -0.000219043 0)
(0.0016633 -0.000222275 0)
(0.0016236 -0.000226196 0)
(0.00158246 -0.000230956 0)
(0.00153981 -0.000236712 0)
(0.00149561 -0.000243631 0)
(0.00144983 -0.000251889 0)
(0.00140242 -0.00026167 0)
(0.00135338 -0.000273169 0)
(0.00130268 -0.000286589 0)
(0.00125032 -0.000302138 0)
(0.00119631 -0.000320035 0)
(0.0011407 -0.0003405 0)
(0.00108354 -0.000363757 0)
(0.00102491 -0.000390028 0)
(0.00096499 -0.000419607 0)
(0.000903524 -0.000452729 0)
(0.000840308 -0.000489643 0)
(0.000775452 -0.000530448 0)
(0.000709498 -0.000575165 0)
(0.000643275 -0.000624023 0)
(0.000530528 -0.00071926 0)
(0.000483514 -0.000763367 0)
(0.00043683 -0.000809902 0)
(0.000390773 -0.000858871 0)
(0.000345664 -0.000910211 0)
(0.000301875 -0.000963784 0)
(0.000259831 -0.00101935 0)
(0.000220006 -0.00107651 0)
(0.00018289 -0.00113471 0)
(0.000148954 -0.00119317 0)
(0.000118584 -0.00125094 0)
(9.20397e-05 -0.00130691 0)
(6.94252e-05 -0.00135992 0)
(5.06887e-05 -0.00140882 0)
(3.56333e-05 -0.00145249 0)
(2.39299e-05 -0.0014899 0)
(1.51236e-05 -0.00152016 0)
(8.63681e-06 -0.00154248 0)
(3.78937e-06 -0.00155635 0)
(0 -0.00156109 0)
(0 -0.00156024 0)
(0 -0.00155922 0)
(0 -0.00155807 0)
(0 -0.00155678 0)
(0 -0.00155538 0)
(0 -0.00155387 0)
(0 -0.00155227 0)
(0 -0.00155059 0)
(0 -0.00154883 0)
(0 -0.00154701 0)
(0 -0.00154513 0)
(0 -0.00154321 0)
(0 -0.00154125 0)
(0 -0.00153926 0)
(0 -0.00153724 0)
(0 -0.0015352 0)
(0 -0.00153315 0)
(0 -0.00153109 0)
(0 -0.00152903 0)
(0 -0.00152697 0)
(0 -0.00152492 0)
(0 -0.00152288 0)
(0 -0.00152085 0)
(0 -0.00151884 0)
(0 -0.00151686 0)
(0 -0.0015149 0)
(0 -0.00151297 0)
(0 -0.00151107 0)
(0 -0.0015092 0)
(0 -0.00150737 0)
(0 -0.00150557 0)
(0 -0.0015038 0)
(0 -0.00150207 0)
(0 -0.00150037 0)
(0 -0.0014987 0)
(0 -0.00149704 0)
(0 -0.00149539 0)
(0 -0.00149372 0)
(0 -0.00148736 0)
(0 -0.00148062 0)
(0 -0.00147089 0)
(0 -0.00145726 0)
(0 -0.00143881 0)
(0 -0.00141467 0)
(0 -0.00138413 0)
(0 -0.00134664 0)
(0 -0.00130187 0)
(0 -0.0012497 0)
(0 -0.00119018 0)
(0 -0.0011235 0)
(0 -0.00104994 0)
(0 -0.000969864 0)
(0 -0.000883679 0)
(0 -0.000791857 0)
(0 -0.000694926 0)
(0 -0.000593508 0)
(0 -0.000488388 0)
(0.00136425 -0.000318949 0)
(0.00139563 -0.000279008 0)
(0.0014265 -0.000243154 0)
(0.00145679 -0.000211366 0)
(0.00148647 -0.000183468 0)
(0.00151552 -0.000159214 0)
(0.00154395 -0.000138323 0)
(0.00157181 -0.000120507 0)
(0.00159912 -0.000105477 0)
(0.00162594 -9.29537e-05 0)
(0.00165233 -8.26731e-05 0)
(0.00167834 -7.4385e-05 0)
(0.00170403 -6.78566e-05 0)
(0.00172943 -6.28711e-05 0)
(0.00175461 -5.92278e-05 0)
(0.0017796 -5.67414e-05 0)
(0.00180444 -5.52403e-05 0)
(0.00182916 -5.45664e-05 0)
(0.00185379 -5.45732e-05 0)
(0.00187834 -5.51256e-05 0)
(0.00190285 -5.6098e-05 0)
(0.00192732 -5.73738e-05 0)
(0.00195176 -5.88445e-05 0)
(0.00197618 -6.04084e-05 0)
(0.00200058 -6.19701e-05 0)
(0.00202497 -6.34392e-05 0)
(0.00204933 -6.47299e-05 0)
(0.00207367 -6.57594e-05 0)
(0.00209798 -6.64478e-05 0)
(0.00212225 -6.67162e-05 0)
(0.00214647 -6.64858e-05 0)
(0.00217064 -6.56767e-05 0)
(0.00219473 -6.42056e-05 0)
(0.00221876 -6.19844e-05 0)
(0.0022427 -5.89171e-05 0)
(0.00226656 -5.4897e-05 0)
(0.00229033 -4.98029e-05 0)
(0.00231403 -4.34947e-05 0)
(0.00233766 -3.58093e-05 0)
(0.00131149 -0.000369993 0)
(0.0012908 -0.000377415 0)
(0.00127024 -0.000384843 0)
(0.0012498 -0.000392282 0)
(0.00122948 -0.000399738 0)
(0.00120928 -0.000407215 0)
(0.00118919 -0.000414716 0)
(0.00116921 -0.000422245 0)
(0.00114936 -0.000429802 0)
(0.00112961 -0.000437388 0)
(0.00110998 -0.000445003 0)
(0.00109047 -0.000452646 0)
(0.00107107 -0.000460317 0)
(0.00105178 -0.000468014 0)
(0.00103261 -0.000475737 0)
(0.00101354 -0.000483484 0)
(0.000994585 -0.000491254 0)
(0.000975738 -0.000499045 0)
(0.000956998 -0.000506857 0)
(0.000938364 -0.000514688 0)
(0.000919833 -0.000522535 0)
(0.000901402 -0.000530399 0)
(0.000883068 -0.000538277 0)
(0.000864825 -0.00054617 0)
(0.000846667 -0.000554076 0)
(0.000828588 -0.000561996 0)
(0.000810578 -0.000569932 0)
(0.000792628 -0.000577887 0)
(0.000774727 -0.000585862 0)
(0.000756864 -0.000593865 0)
(0.000739026 -0.000601902 0)
(0.0007212 -0.00060998 0)
(0.000703373 -0.000618111 0)
(0.000685532 -0.000626305 0)
(0.000667665 -0.000634575 0)
(0.000649759 -0.000642935 0)
(0.000631805 -0.000651399 0)
(0.0006138 -0.00065998 0)
(0.00059575 -0.000668687 0)
(0.00016612 -0.000398017 0)
(0.000329174 -0.000432194 0)
(0.000486972 -0.000482448 0)
(0.000636841 -0.000547059 0)
(0.000776071 -0.00062278 0)
(0.000902167 -0.000704559 0)
(0.0010129 -0.000785266 0)
(0.0011064 -0.000855801 0)
(0.00118152 -0.000906094 0)
(0.00123834 -0.000927131 0)
(0.00127892 -0.000914855 0)
(0.00131001 -0.000878644 0)
(0.00134306 -0.000842373 0)
(0.00137732 -0.000806543 0)
(0.00141216 -0.000770974 0)
(0.00144708 -0.000735632 0)
(0.00148172 -0.000700539 0)
(0.00151579 -0.00066574 0)
(0.00154909 -0.000631291 0)
(0.00161266 -0.000563642 0)
(0.00164271 -0.000530518 0)
(0.00167147 -0.000497886 0)
(0.00169888 -0.000465752 0)
(0.00172489 -0.000434109 0)
(0.00174944 -0.00040294 0)
(0.00177249 -0.000372223 0)
(0.001794 -0.000341932 0)
(0.00181393 -0.000312037 0)
(0.00183225 -0.000282508 0)
(0.00184893 -0.000253311 0)
(0.00186393 -0.000224414 0)
(0.00187724 -0.000195785 0)
(0.00188884 -0.000167391 0)
(0.00189871 -0.000139202 0)
(0.00190684 -0.000111189 0)
(0.00191324 -8.33221e-05 0)
(0.00191794 -5.55739e-05 0)
(0.00192104 -2.78947e-05 0)
(0.0015616 -0.000576985 0)
(0.00154302 -0.000558261 0)
(0.00152555 -0.000540896 0)
(0.00150908 -0.000524744 0)
(0.0014935 -0.000509681 0)
(0.00147873 -0.000495601 0)
(0.0014647 -0.000482409 0)
(0.00145136 -0.000470026 0)
(0.00143865 -0.000458378 0)
(0.00142655 -0.000447399 0)
(0.00141501 -0.00043703 0)
(0.001404 -0.000427214 0)
(0.0013935 -0.000417902 0)
(0.00138348 -0.000409045 0)
(0.00137393 -0.000400596 0)
(0.00136482 -0.000392512 0)
(0.00135614 -0.000384743 0)
(0.00134787 -0.000377233 0)
(0.00133996 -0.000369902 0)
(0.0015616 -0.000576985 0)
(0.00154302 -0.000558261 0)
(0.00152555 -0.000540896 0)
(0.00150908 -0.000524744 0)
(0.0014935 -0.000509681 0)
(0.00147873 -0.000495601 0)
(0.0014647 -0.000482409 0)
(0.00145136 -0.000470026 0)
(0.00143865 -0.000458378 0)
(0.00142655 -0.000447399 0)
(0.00141501 -0.00043703 0)
(0.001404 -0.000427214 0)
(0.0013935 -0.000417902 0)
(0.00138348 -0.000409045 0)
(0.00137393 -0.000400596 0)
(0.00136482 -0.000392512 0)
(0.00135614 -0.000384743 0)
(0.00134787 -0.000377233 0)
(0.00133996 -0.000369902 0)
(0.001276 -0.000405167 0)
(0.00121895 -0.000449468 0)
(0.00116111 -0.00049617 0)
(0.00110246 -0.000545415 0)
(0.00104302 -0.000597215 0)
(0.000982811 -0.000651522 0)
(0.000921838 -0.000708216 0)
(0.000860064 -0.000767032 0)
(0.000797105 -0.000827516 0)
(0.000731207 -0.000891327 0)
(0.000659959 -0.000961024 0)
(0.000583442 -0.00103685 0)
(0.000503408 -0.00111658 0)
(0.000422249 -0.00119689 0)
(0.000342342 -0.00127397 0)
(0.000265723 -0.00134394 0)
(0.00019371 -0.0014033 0)
(0.000126342 -0.0014492 0)
(6.24697e-05 -0.0014795 0)
(0 -0.00148736 0)
(0 -0.00148062 0)
(0 -0.00147089 0)
(0 -0.00145726 0)
(0 -0.00143881 0)
(0 -0.00141467 0)
(0 -0.00138413 0)
(0 -0.00134664 0)
(0 -0.00130187 0)
(0 -0.0012497 0)
(0 -0.00119018 0)
(0 -0.0011235 0)
(0 -0.00104994 0)
(0 -0.000969864 0)
(0 -0.000883679 0)
(0 -0.000791857 0)
(0 -0.000694926 0)
(0 -0.000593508 0)
(0 -0.000488388 0)
(0.00016612 -0.000398017 0)
(0.000329174 -0.000432194 0)
(0.000486972 -0.000482448 0)
(0.000636841 -0.000547059 0)
(0.000776071 -0.00062278 0)
(0.000902167 -0.000704559 0)
(0.0010129 -0.000785266 0)
(0.0011064 -0.000855801 0)
(0.00118152 -0.000906094 0)
(0.00123834 -0.000927131 0)
(0.00127892 -0.000914855 0)
(0.00131001 -0.000878644 0)
(0.00134306 -0.000842373 0)
(0.00137732 -0.000806543 0)
(0.00141216 -0.000770974 0)
(0.00144708 -0.000735632 0)
(0.00148172 -0.000700539 0)
(0.00151579 -0.00066574 0)
(0.00154909 -0.000631291 0)
(0.00161266 -0.000563642 0)
(0.00164271 -0.000530518 0)
(0.00167147 -0.000497886 0)
(0.00169888 -0.000465752 0)
(0.00172489 -0.000434109 0)
(0.00174944 -0.00040294 0)
(0.00177249 -0.000372223 0)
(0.001794 -0.000341932 0)
(0.00181393 -0.000312037 0)
(0.00183225 -0.000282508 0)
(0.00184893 -0.000253311 0)
(0.00186393 -0.000224414 0)
(0.00187724 -0.000195785 0)
(0.00188884 -0.000167391 0)
(0.00189871 -0.000139202 0)
(0.00190684 -0.000111189 0)
(0.00191324 -8.33221e-05 0)
(0.00191794 -5.55739e-05 0)
(0.00192104 -2.78947e-05 0)
(0.00192956 0 0)
(0.00193522 0 0)
(0.00194016 0 0)
(0.00194447 0 0)
(0.00194822 0 0)
(0.00195149 0 0)
(0.00195434 0 0)
(0.00195684 0 0)
(0.00195902 0 0)
(0.00196095 0 0)
(0.00196267 0 0)
(0.0019642 0 0)
(0.00196559 0 0)
(0.00196686 0 0)
(0.00196803 0 0)
(0.00196913 0 0)
(0.00197018 0 0)
(0.00197118 0 0)
(0.00197216 0 0)
(0.00197164 -6.593e-06 0)
(0.00196611 -1.32854e-05 0)
(0.00195676 -2.03497e-05 0)
(0.00194369 -2.80012e-05 0)
(0.00192698 -3.64405e-05 0)
(0.00190672 -4.58595e-05 0)
(0.00188303 -5.64422e-05 0)
(0.00185601 -6.83643e-05 0)
(0.00182581 -8.17925e-05 0)
(0.00179257 -9.68835e-05 0)
(0.00175646 -0.000113782 0)
(0.00171763 -0.000132622 0)
(0.00167627 -0.000153521 0)
(0.00163256 -0.000176581 0)
(0.00158668 -0.000201883 0)
(0.00153884 -0.000229485 0)
(0.00148924 -0.000259415 0)
(0.00143811 -0.000291655 0)
(0.00138569 -0.000326119 0)
(0.00197623 0 0)
(0.0019793 0 0)
(0.00198257 0 0)
(0.00198619 0 0)
(0.00199025 0 0)
(0.00199481 0 0)
(0.00199993 0 0)
(0.00200562 0 0)
(0.00201192 0 0)
(0.00201883 0 0)
(0.00202636 0 0)
(0.00203451 0 0)
(0.00204328 0 0)
(0.00205267 0 0)
(0.00206267 0 0)
(0.00207327 0 0)
(0.00208446 0 0)
(0.00209622 0 0)
(0.00210854 0 0)
(0.00212141 0 0)
(0.00213481 0 0)
(0.00214871 0 0)
(0.0021631 0 0)
(0.00217795 0 0)
(0.00219325 0 0)
(0.00220896 0 0)
(0.00222507 0 0)
(0.00224154 0 0)
(0.00225834 0 0)
(0.00227545 0 0)
(0.00229283 0 0)
(0.00231044 0 0)
(0.00232824 0 0)
(0.00234619 0 0)
(0.00236425 0 0)
(0.00238235 0 0)
(0.00240046 0 0)
(0.0024185 0 0)
(0.00243644 0 0)
(0.00245369 6.25842e-07 0)
(0.00245276 1.17443e-06 0)
(0.00245132 1.65107e-06 0)
(0.00244934 2.03066e-06 0)
(0.00244684 2.283e-06 0)
(0.00244382 2.37739e-06 0)
(0.0024403 2.28392e-06 0)
(0.00243629 1.9739e-06 0)
(0.00243182 1.42013e-06 0)
(0.00242692 5.97052e-07 0)
(0.00242161 -5.1904e-07 0)
(0.00241592 -1.94988e-06 0)
(0.0024099 -3.71506e-06 0)
(0.00240356 -5.83188e-06 0)
(0.00239695 -8.31522e-06 0)
(0.00239011 -1.11774e-05 0)
(0.00238308 -1.44281e-05 0)
(0.0023759 -1.80743e-05 0)
(0.0023686 -2.21198e-05 0)
(0.00233766 -3.58093e-05 0)
(0.00231403 -4.34947e-05 0)
(0.00229033 -4.98029e-05 0)
(0.00226656 -5.4897e-05 0)
(0.0022427 -5.89171e-05 0)
(0.00221876 -6.19844e-05 0)
(0.00219473 -6.42056e-05 0)
(0.00217064 -6.56767e-05 0)
(0.00214647 -6.64858e-05 0)
(0.00212225 -6.67162e-05 0)
(0.00209798 -6.64478e-05 0)
(0.00207367 -6.57594e-05 0)
(0.00204933 -6.47299e-05 0)
(0.00202497 -6.34392e-05 0)
(0.00200058 -6.19701e-05 0)
(0.00197618 -6.04084e-05 0)
(0.00195176 -5.88445e-05 0)
(0.00192732 -5.73738e-05 0)
(0.00190285 -5.6098e-05 0)
(0.00187834 -5.51256e-05 0)
(0.00185379 -5.45732e-05 0)
(0.00182916 -5.45664e-05 0)
(0.00180444 -5.52403e-05 0)
(0.0017796 -5.67414e-05 0)
(0.00175461 -5.92278e-05 0)
(0.00172943 -6.28711e-05 0)
(0.00170403 -6.78566e-05 0)
(0.00167834 -7.4385e-05 0)
(0.00165233 -8.26731e-05 0)
(0.00162594 -9.29537e-05 0)
(0.00159912 -0.000105477 0)
(0.00157181 -0.000120507 0)
(0.00154395 -0.000138323 0)
(0.00151552 -0.000159214 0)
(0.00148647 -0.000183468 0)
(0.00145679 -0.000211366 0)
(0.0014265 -0.000243154 0)
(0.00139563 -0.000279008 0)
(0.00136425 -0.000318949 0)
(0.00235798 -2.8645e-05 0)
(0.00235473 -3.08052e-05 0)
(0.00235147 -3.30412e-05 0)
(0.00234822 -3.53527e-05 0)
(0.00234497 -3.77387e-05 0)
(0.00234173 -4.01984e-05 0)
(0.00233851 -4.27306e-05 0)
(0.00233531 -4.5334e-05 0)
(0.00233213 -4.8007e-05 0)
(0.00232897 -5.07481e-05 0)
(0.00232584 -5.35556e-05 0)
(0.00232274 -5.64274e-05 0)
(0.00231967 -5.93616e-05 0)
(0.00231665 -6.2356e-05 0)
(0.00231366 -6.54081e-05 0)
(0.00231071 -6.85156e-05 0)
(0.0023078 -7.16759e-05 0)
(0.00230494 -7.4886e-05 0)
(0.00230213 -7.81433e-05 0)
(0.00229937 -8.14445e-05 0)
(0.00229665 -8.47866e-05 0)
(0.00229399 -8.81663e-05 0)
(0.00229138 -9.15801e-05 0)
(0.00228882 -9.50247e-05 0)
(0.00228632 -9.84963e-05 0)
(0.00228386 -0.000101991 0)
(0.00228146 -0.000105506 0)
(0.0022791 -0.000109037 0)
(0.00227679 -0.00011258 0)
(0.00227453 -0.000116131 0)
(0.00227231 -0.000119687 0)
(0.00227013 -0.000123244 0)
(0.00226798 -0.0001268 0)
(0.00226586 -0.00013035 0)
(0.00226376 -0.000133892 0)
(0.00226169 -0.000137425 0)
(0.00225962 -0.000140947 0)
(0.00225755 -0.000144458 0)
(0.00225548 -0.000147958 0)
(0.00222791 -0.000158005 0)
(0.00220252 -0.000164464 0)
(0.00217719 -0.000170652 0)
(0.00215184 -0.000176432 0)
(0.00212636 -0.000181723 0)
(0.00210064 -0.000186484 0)
(0.00207455 -0.000190707 0)
(0.00204801 -0.000194411 0)
(0.00202091 -0.00019763 0)
(0.00199316 -0.000200414 0)
(0.00196468 -0.000202828 0)
(0.00193539 -0.000204941 0)
(0.0019052 -0.000206836 0)
(0.00187406 -0.0002086 0)
(0.00184189 -0.000210328 0)
(0.00180862 -0.000212124 0)
(0.00177419 -0.000214095 0)
(0.00173853 -0.00021636 0)
(0.00170159 -0.000219043 0)
(0.0016633 -0.000222275 0)
(0.0016236 -0.000226196 0)
(0.00158246 -0.000230956 0)
(0.00153981 -0.000236712 0)
(0.00149561 -0.000243631 0)
(0.00144983 -0.000251889 0)
(0.00140242 -0.00026167 0)
(0.00135338 -0.000273169 0)
(0.00130268 -0.000286589 0)
(0.00125032 -0.000302138 0)
(0.00119631 -0.000320035 0)
(0.0011407 -0.0003405 0)
(0.00108354 -0.000363757 0)
(0.00102491 -0.000390028 0)
(0.00096499 -0.000419607 0)
(0.000903524 -0.000452729 0)
(0.000840308 -0.000489643 0)
(0.000775452 -0.000530448 0)
(0.000709498 -0.000575165 0)
(0.000643275 -0.000624023 0)
(0.00059575 -0.000668687 0)
(0.0006138 -0.00065998 0)
(0.000631805 -0.000651399 0)
(0.000649759 -0.000642935 0)
(0.000667665 -0.000634575 0)
(0.000685532 -0.000626305 0)
(0.000703373 -0.000618111 0)
(0.0007212 -0.00060998 0)
(0.000739026 -0.000601902 0)
(0.000756864 -0.000593865 0)
(0.000774727 -0.000585862 0)
(0.000792628 -0.000577887 0)
(0.000810578 -0.000569932 0)
(0.000828588 -0.000561996 0)
(0.000846667 -0.000554076 0)
(0.000864825 -0.00054617 0)
(0.000883068 -0.000538277 0)
(0.000901402 -0.000530399 0)
(0.000919833 -0.000522535 0)
(0.000938364 -0.000514688 0)
(0.000956998 -0.000506857 0)
(0.000975738 -0.000499045 0)
(0.000994585 -0.000491254 0)
(0.00101354 -0.000483484 0)
(0.00103261 -0.000475737 0)
(0.00105178 -0.000468014 0)
(0.00107107 -0.000460317 0)
(0.00109047 -0.000452646 0)
(0.00110998 -0.000445003 0)
(0.00112961 -0.000437388 0)
(0.00114936 -0.000429802 0)
(0.00116921 -0.000422245 0)
(0.00118919 -0.000414716 0)
(0.00120928 -0.000407215 0)
(0.00122948 -0.000399738 0)
(0.0012498 -0.000392282 0)
(0.00127024 -0.000384843 0)
(0.0012908 -0.000377415 0)
(0.00131149 -0.000369993 0)
(0.000530528 -0.00071926 0)
(0.000483514 -0.000763367 0)
(0.00043683 -0.000809902 0)
(0.000390773 -0.000858871 0)
(0.000345664 -0.000910211 0)
(0.000301875 -0.000963784 0)
(0.000259831 -0.00101935 0)
(0.000220006 -0.00107651 0)
(0.00018289 -0.00113471 0)
(0.000148954 -0.00119317 0)
(0.000118584 -0.00125094 0)
(9.20397e-05 -0.00130691 0)
(6.94252e-05 -0.00135992 0)
(5.06887e-05 -0.00140882 0)
(3.56333e-05 -0.00145249 0)
(2.39299e-05 -0.0014899 0)
(1.51236e-05 -0.00152016 0)
(8.63681e-06 -0.00154248 0)
(3.78937e-06 -0.00155635 0)
(0 -0.00156109 0)
(0 -0.00156024 0)
(0 -0.00155922 0)
(0 -0.00155807 0)
(0 -0.00155678 0)
(0 -0.00155538 0)
(0 -0.00155387 0)
(0 -0.00155227 0)
(0 -0.00155059 0)
(0 -0.00154883 0)
(0 -0.00154701 0)
(0 -0.00154513 0)
(0 -0.00154321 0)
(0 -0.00154125 0)
(0 -0.00153926 0)
(0 -0.00153724 0)
(0 -0.0015352 0)
(0 -0.00153315 0)
(0 -0.00153109 0)
(0 -0.00152903 0)
(0 -0.00152697 0)
(0 -0.00152492 0)
(0 -0.00152288 0)
(0 -0.00152085 0)
(0 -0.00151884 0)
(0 -0.00151686 0)
(0 -0.0015149 0)
(0 -0.00151297 0)
(0 -0.00151107 0)
(0 -0.0015092 0)
(0 -0.00150737 0)
(0 -0.00150557 0)
(0 -0.0015038 0)
(0 -0.00150207 0)
(0 -0.00150037 0)
(0 -0.0014987 0)
(0 -0.00149704 0)
(0 -0.00149539 0)
(0 -0.00149372 0)
(0.000171091 -0.000505003 0)
(0.000174156 -0.000608741 0)
(0.000175659 -0.000708589 0)
(0.000175711 -0.000803918 0)
(0.000174363 -0.000894128 0)
(0.000171642 -0.000978663 0)
(0.000167565 -0.001057 0)
(0.00016216 -0.00112869 0)
(0.00015548 -0.00119333 0)
(0.000147592 -0.00125062 0)
(0.000138661 -0.0013004 0)
(0.000128909 -0.00134272 0)
(0.000118644 -0.00137782 0)
(0.000108242 -0.00140619 0)
(9.81054e-05 -0.00142852 0)
(8.86191e-05 -0.00144563 0)
(8.01046e-05 -0.00145841 0)
(7.2801e-05 -0.00146774 0)
(6.68511e-05 -0.00147446 0)
(0.000337971 -0.000537833 0)
(0.000343638 -0.000639498 0)
(0.000346411 -0.000736702 0)
(0.000346355 -0.000828887 0)
(0.000343498 -0.000915485 0)
(0.000337834 -0.000995927 0)
(0.00032938 -0.00106968 0)
(0.000318184 -0.00113627 0)
(0.00030438 -0.00119533 0)
(0.000288209 -0.00124668 0)
(0.000270095 -0.00129039 0)
(0.00025063 -0.00132682 0)
(0.000230541 -0.00135659 0)
(0.000210607 -0.00138052 0)
(0.000191569 -0.00139953 0)
(0.000174054 -0.00141452 0)
(0.000158537 -0.00142632 0)
(0.000145338 -0.00143565 0)
(0.000134645 -0.00144315 0)
(0.000498392 -0.000585869 0)
(0.000505744 -0.000684314 0)
(0.000509019 -0.000777324 0)
(0.00050816 -0.00086436 0)
(0.000503095 -0.000944848 0)
(0.000493765 -0.00101822 0)
(0.000480171 -0.00108396 0)
(0.000462462 -0.00114171 0)
(0.000440967 -0.00119135 0)
(0.000416304 -0.0012331 0)
(0.000389365 -0.0012676 0)
(0.000361229 -0.00129578 0)
(0.000333012 -0.00131872 0)
(0.000305738 -0.00133749 0)
(0.000280255 -0.00135305 0)
(0.000257184 -0.00136618 0)
(0.000236916 -0.00137744 0)
(0.000219636 -0.00138724 0)
(0.000205285 -0.00139581 0)
(0.000649578 -0.00064685 0)
(0.00065732 -0.000740318 0)
(0.000659843 -0.000826923 0)
(0.000656935 -0.00090608 0)
(0.000648425 -0.000977206 0)
(0.000634226 -0.0010398 0)
(0.000614462 -0.00109359 0)
(0.000589546 -0.00113861 0)
(0.000560312 -0.00117543 0)
(0.000527983 -0.00120514 0)
(0.00049398 -0.00122912 0)
(0.000459699 -0.00124877 0)
(0.000426347 -0.00126533 0)
(0.000394868 -0.00127975 0)
(0.000365925 -0.0012927 0)
(0.000339905 -0.00130459 0)
(0.000316963 -0.00131562 0)
(0.000297073 -0.00132587 0)
(0.000280079 -0.00133533 0)
(0.000788517 -0.000716923 0)
(0.000794911 -0.000802884 0)
(0.000794892 -0.000880004 0)
(0.000788164 -0.000947674 0)
(0.000774554 -0.00100544 0)
(0.000754167 -0.00105319 0)
(0.000727495 -0.00109128 0)
(0.000695621 -0.00112085 0)
(0.000660114 -0.00114362 0)
(0.000622689 -0.00116152 0)
(0.000584907 -0.00117627 0)
(0.00054802 -0.00118915 0)
(0.000512938 -0.00120103 0)
(0.000480267 -0.00121241 0)
(0.000450339 -0.00122352 0)
(0.000423277 -0.0012344 0)
(0.00039909 -0.00124499 0)
(0.000377655 -0.0012552 0)
(0.000358813 -0.00126489 0)
(0.000912198 -0.000790194 0)
(0.000914992 -0.000865182 0)
(0.000910182 -0.00092886 0)
(0.000897569 -0.000980842 0)
(0.000877303 -0.00102125 0)
(0.000850014 -0.00105092 0)
(0.000817103 -0.00107178 0)
(0.000780487 -0.00108641 0)
(0.000742053 -0.00109731 0)
(0.000703343 -0.00110634 0)
(0.000665468 -0.00111472 0)
(0.000629187 -0.00112312 0)
(0.000594983 -0.00113185 0)
(0.000563114 -0.00114095 0)
(0.000533677 -0.00115034 0)
(0.000506741 -0.00115991 0)
(0.000482238 -0.00116949 0)
(0.000460086 -0.00117895 0)
(0.000440151 -0.00118813 0)
(0.0010179 -0.000858504 0)
(0.00101452 -0.000918236 0)
(0.0010026 -0.000964191 0)
(0.000982415 -0.00099681 0)
(0.00095487 -0.00101752 0)
(0.000921846 -0.00102932 0)
(0.000885645 -0.00103579 0)
(0.000848158 -0.00103981 0)
(0.000810674 -0.00104319 0)
(0.000773979 -0.00104687 0)
(0.000738588 -0.00105131 0)
(0.000704823 -0.00105664 0)
(0.000672858 -0.0010628 0)
(0.000642766 -0.00106962 0)
(0.000614695 -0.00107702 0)
(0.000588616 -0.00108478 0)
(0.000564538 -0.00109279 0)
(0.000542386 -0.00110086 0)
(0.000522055 -0.00110884 0)
(0.00110368 -0.000911982 0)
(0.00109183 -0.000952135 0)
(0.00107127 -0.000977162 0)
(0.00104317 -0.000989216 0)
(0.00101015 -0.000992685 0)
(0.000974999 -0.000992199 0)
(0.000939449 -0.000990615 0)
(0.000904363 -0.000989297 0)
(0.00087012 -0.000988783 0)
(0.000836993 -0.000989336 0)
(0.000805125 -0.000991002 0)
(0.000774572 -0.000993691 0)
(0.000745344 -0.000997223 0)
(0.000717659 -0.00100163 0)
(0.000691468 -0.00100666 0)
(0.00066687 -0.00101225 0)
(0.00064383 -0.00101822 0)
(0.000622306 -0.00102441 0)
(0.000602243 -0.00103069 0)
(0.00116909 -0.000940783 0)
(0.00114772 -0.000958575 0)
(0.00111882 -0.00096252 0)
(0.0010857 -0.000959061 0)
(0.00105166 -0.000953792 0)
(0.001018 -0.000948811 0)
(0.000985127 -0.000944581 0)
(0.000953207 -0.000941192 0)
(0.000922423 -0.000938745 0)
(0.000892827 -0.000937226 0)
(0.000864393 -0.000936565 0)
(0.000836982 -0.000936631 0)
(0.000810862 -0.000937675 0)
(0.000785812 -0.000939436 0)
(0.000761989 -0.000941965 0)
(0.000739344 -0.000945091 0)
(0.00071788 -0.000948701 0)
(0.000697603 -0.000952709 0)
(0.00067834 -0.000956876 0)
(0.00121587 -0.000937987 0)
(0.00118605 -0.000934421 0)
(0.0011539 -0.000926325 0)
(0.00112196 -0.000918642 0)
(0.00109041 -0.000911698 0)
(0.0010594 -0.000905537 0)
(0.00102913 -0.000900197 0)
(0.000999758 -0.000895691 0)
(0.000971423 -0.000891993 0)
(0.000944189 -0.000889046 0)
(0.000918093 -0.000886785 0)
(0.000893186 -0.00088519 0)
(0.000869382 -0.000884133 0)
(0.000846813 -0.000883766 0)
(0.000825278 -0.000883946 0)
(0.000804735 -0.00088466 0)
(0.000785224 -0.000885928 0)
(0.000766526 -0.000887531 0)
(0.000748525 -0.000889343 0)
(0.00124901 -0.000905784 0)
(0.0012187 -0.000895872 0)
(0.00118861 -0.000886566 0)
(0.00115886 -0.000877917 0)
(0.00112959 -0.000869978 0)
(0.00110091 -0.000862794 0)
(0.00107296 -0.000856389 0)
(0.00104585 -0.000850762 0)
(0.00101966 -0.000845885 0)
(0.000994457 -0.00084172 0)
(0.000970278 -0.000838222 0)
(0.000947149 -0.000835338 0)
(0.000925082 -0.000833034 0)
(0.000904091 -0.000831244 0)
(0.000884137 -0.000829902 0)
(0.000865158 -0.000828945 0)
(0.000847042 -0.00082827 0)
(0.000829689 -0.000827806 0)
(0.000813095 -0.000827588 0)
(0.00128131 -0.000867793 0)
(0.00125266 -0.00085713 0)
(0.00122434 -0.000846941 0)
(0.0011965 -0.000837355 0)
(0.00116924 -0.000828449 0)
(0.00114264 -0.000820264 0)
(0.00111677 -0.000812818 0)
(0.0010917 -0.000806106 0)
(0.00106749 -0.000800106 0)
(0.00104418 -0.000794784 0)
(0.00102179 -0.000790097 0)
(0.00100034 -0.000785999 0)
(0.000979832 -0.000782432 0)
(0.000960263 -0.000779338 0)
(0.000941602 -0.000776648 0)
(0.000923802 -0.000774289 0)
(0.000906801 -0.000772197 0)
(0.000890544 -0.000770325 0)
(0.000874984 -0.000768618 0)
(0.00131513 -0.000830371 0)
(0.00128775 -0.000818674 0)
(0.00126096 -0.000807489 0)
(0.00123481 -0.000796926 0)
(0.00120934 -0.000787048 0)
(0.00118459 -0.000777881 0)
(0.0011606 -0.000769434 0)
(0.00113739 -0.000761693 0)
(0.001115 -0.000754635 0)
(0.00109344 -0.000748224 0)
(0.00107273 -0.000742417 0)
(0.00105286 -0.000737164 0)
(0.00103384 -0.000732411 0)
(0.00101564 -0.0007281 0)
(0.000998249 -0.000724168 0)
(0.000981619 -0.000720558 0)
(0.000965712 -0.000717211 0)
(0.000950479 -0.000714074 0)
(0.000935874 -0.000711094 0)
(0.00135007 -0.000793194 0)
(0.00132377 -0.000780358 0)
(0.00129832 -0.00076814 0)
(0.00127369 -0.000756604 0)
(0.00124984 -0.00074578 0)
(0.00122677 -0.000735679 0)
(0.00120448 -0.000726292 0)
(0.00118297 -0.000717598 0)
(0.00116224 -0.000709568 0)
(0.00114231 -0.000702163 0)
(0.00112315 -0.000695338 0)
(0.00110477 -0.000689045 0)
(0.00108715 -0.000683231 0)
(0.00107028 -0.000677842 0)
(0.00105411 -0.000672825 0)
(0.00103864 -0.000668125 0)
(0.00102381 -0.000663692 0)
(0.00100959 -0.000659476 0)
(0.000995939 -0.000655433 0)
(0.00138569 -0.000756227 0)
(0.00136044 -0.000742218 0)
(0.00133625 -0.000728967 0)
(0.00131301 -0.000716481 0)
(0.00129064 -0.000704758 0)
(0.00126911 -0.000693783 0)
(0.00124838 -0.000683533 0)
(0.00122843 -0.000673976 0)
(0.00120924 -0.000665075 0)
(0.00119081 -0.000656788 0)
(0.00117311 -0.000649069 0)
(0.00115612 -0.00064187 0)
(0.00113983 -0.000635141 0)
(0.00112422 -0.000628833 0)
(0.00110925 -0.000622896 0)
(0.00109489 -0.000617282 0)
(0.00108113 -0.000611947 0)
(0.00106792 -0.000606848 0)
(0.00105522 -0.000601948 0)
(0.00142157 -0.000719522 0)
(0.00139744 -0.000704364 0)
(0.00137449 -0.00069011 0)
(0.00135258 -0.00067672 0)
(0.00133162 -0.000664155 0)
(0.00131152 -0.000652379 0)
(0.00129224 -0.00064135 0)
(0.00127374 -0.000631025 0)
(0.00125599 -0.000621361 0)
(0.00123896 -0.00061231 0)
(0.00122262 -0.000603826 0)
(0.00120695 -0.00059586 0)
(0.00119192 -0.000588364 0)
(0.00117751 -0.000581293 0)
(0.00116369 -0.000574601 0)
(0.00115043 -0.000568243 0)
(0.0011377 -0.000562181 0)