/*--------------------------------*- C++ -*----------------------------------*\
| =========                 |                                                 |
| \\      /  F ield         | OpenFOAM: The Open Source CFD Toolbox           |
|  \\    /   O peration     | Version:  v2012                                 |
|   \\  /    A nd           | Website:  www.openfoam.com                      |
|    \\/     M anipulation  |                                                 |
\*---------------------------------------------------------------------------*/
FoamFile
{
    version     2.0;
    format      ascii;
    class       volSymmTensorField;
    location    "2";
    object      sigma;
}
// * * * * * * * * * * * * * * * * * * * * * * * * * * * * * * * * * * * * * //

dimensions      [1 -1 -2 0 0 0 0];


internalField   nonuniform List<symmTensor> 
1896
(
(2.64492e+07 -1.10983e+06 1.73389e-05 5.94292e+06 -9.45794e-06 9.71764e+06)
(2.70907e+07 -1.02379e+06 2.38541e-05 870095 -2.26223e-08 8.38823e+06)
(2.54343e+07 -490757 -2.43562e-05 5.74386e+06 4.34275e-06 9.35346e+06)
(5.03551e+07 3.83224e+06 0.000134128 -1.07652e+06 -8.75702e-06 1.47836e+07)
(2.61478e+07 -1.32375e+06 2.69716e-06 5.55763e+06 1.46187e-06 9.51163e+06)
(2.57752e+07 -1.3758e+06 -1.50621e-06 5.49107e+06 -1.0689e-06 9.37988e+06)
(4.8045e+07 5.54239e+06 0.000207106 -492521 1.44549e-05 1.42657e+07)
(2.37892e+07 -2.34577e+06 -7.54271e-06 4.31448e+06 4.78352e-07 8.43111e+06)
(2.20466e+07 -9.62111e+06 -3.58454e-06 -7.72428e+06 -4.23796e-05 4.29669e+06)
(2.322e+07 -1.862e+06 1.3766e-05 4.50374e+06 -1.10444e-05 8.31713e+06)
(2.64838e+07 -149257 -8.14986e-06 6.71823e+06 5.63063e-06 9.96062e+06)
(1.70531e+07 -4.58395e+06 3.21091e-06 2.3421e+06 -2.57073e-06 5.81858e+06)
(1.65269e+07 -3.02686e+06 7.12237e-06 3.01579e+06 -9.8397e-06 5.86282e+06)
(1.58353e+07 -4.42417e+06 2.94236e-06 2.1263e+06 1.89079e-06 5.38849e+06)
(4.72242e+07 4.97356e+06 -5.6512e-05 -2.54301e+06 -2.74503e-05 1.34044e+07)
(3.26035e+07 1.43019e+06 -2.08913e-05 -124644 5.03879e-05 9.74365e+06)
(3.01547e+07 -2.30984e+06 -7.96305e-06 495825 -7.00415e-06 9.19516e+06)
(6.68191e+07 -4.12419e+06 -0.00020571 8.42662e+06 -8.41841e-05 2.25737e+07)
(3.14141e+07 -3.89663e+06 -2.47065e-05 754254 -1.86101e-05 9.6505e+06)
(2.10439e+07 -1.018e+07 -1.74732e-05 790940 1.63698e-05 6.55047e+06)
(-3.00579e+06 5.8143e+06 -6.25835e-06 -3.51207e+07 -1.01888e-05 -1.14379e+07)
(2.70883e+07 -3.00433e+06 6.22332e-06 2.00873e+06 1.71492e-06 8.72911e+06)
(4.39703e+07 -244478 9.53347e-06 -448119 3.0165e-05 1.30567e+07)
(4.50859e+07 233084 4.37267e-05 -1.07279e+06 -1.79811e-05 1.32039e+07)
(2.79198e+07 -1.93015e+06 -1.16176e-05 1.16849e+06 -8.94675e-06 8.7265e+06)
(2.7589e+07 -1.85447e+06 -1.09988e-05 1.05943e+06 -1.41907e-05 8.59452e+06)
(1.75031e+07 -2.14998e+06 1.60312e-05 3.72936e+06 -8.30922e-06 6.36974e+06)
(1.7656e+07 -1.85107e+06 7.14573e-06 3.5892e+06 -1.71592e-06 6.37357e+06)
(2.62102e+07 -1.00803e+06 2.70884e-06 6.34587e+06 2.62419e-06 9.76683e+06)
(3.35617e+07 -4.99619e+06 3.22725e-05 322964 4.75499e-05 1.01654e+07)
(3.19872e+07 -5.02917e+06 3.18055e-05 161825 3.38378e-05 9.6447e+06)
(2.69801e+07 -312582 -2.69016e-05 212425 -1.16614e-06 8.15777e+06)
(1.13692e+07 -3.99863e+06 1.77476e-06 -45139.7 -4.69778e-07 3.39722e+06)
(2.73758e+07 -873861 1.96391e-05 755458 -6.23938e-07 8.43939e+06)
(4.29753e+07 -545988 -0.000140305 157463 -4.13287e-05 1.29398e+07)
(2.66399e+07 -735433 3.91964e-05 6.95209e+06 -2.91517e-06 1.00776e+07)
(3.16014e+07 -4.88665e+06 2.02229e-05 487778 2.97833e-05 9.62675e+06)
(2.67532e+07 -1.07946e+06 -8.73367e-06 2.13483e+06 3.97715e-06 8.6664e+06)
(6.10586e+07 1.39294e+06 -0.000116641 5.54081e+06 -5.75103e-05 1.99798e+07)
(3.41172e+07 -5.09731e+06 2.21494e-05 46454.9 1.94523e-05 1.02491e+07)
(2.69012e+07 -56154.5 -1.39178e-05 -43682.8 -2.70139e-05 8.05725e+06)
(4.21755e+07 -8.80388e+06 -8.89947e-05 -63559.2 4.5087e-05 1.26336e+07)
(2.78731e+07 -6.57033e+06 4.93896e-06 555669 1.55065e-05 8.52863e+06)
(3.97414e+07 -3.15513e+06 -5.24253e-06 -8.64322e+06 2.86063e-05 9.32944e+06)
(1.8102e+07 -1.66109e+06 9.983e-06 4.09794e+06 3.09679e-06 6.65998e+06)
(1.61467e+07 -1.61806e+06 1.8343e-05 3.26229e+06 -1.07707e-06 5.8227e+06)
(4.57305e+07 5.38026e+06 -7.19477e-05 -1.96321e+06 -1.19095e-06 1.31302e+07)
(2.64673e+07 -485931 -2.86063e-06 6.62987e+06 -3.09114e-06 9.92916e+06)
(4.10725e+07 -221167 2.1408e-05 -5.94607e+06 5.73176e-05 1.05379e+07)
(4.28746e+07 5.86425e+06 -7.05232e-06 -1.46923e+06 -2.62652e-05 1.24216e+07)
(2.57582e+07 -793878 -1.5389e-05 5.55431e+06 -1.43579e-07 9.39376e+06)
(2.49811e+07 -1.90596e+06 -1.11156e-05 4.8754e+06 -2.68439e-06 8.95694e+06)
(2.41168e+07 -2.06304e+06 -3.67561e-05 4.43158e+06 -3.94175e-06 8.56451e+06)
(2.74788e+07 -2.84803e+06 -7.6478e-06 2.32623e+06 2.9482e-06 8.94151e+06)
(2.35331e+07 -8.55514e+06 -1.63931e-05 -6.43597e+06 -4.40128e-05 5.12915e+06)
(2.83096e+07 -361718 1.1174e-05 70571.5 1.27925e-05 8.51405e+06)
(3.30582e+07 -6.16574e+06 4.0977e-05 -6.38473e+06 1.18293e-05 8.00204e+06)
(2.67097e+07 -813757 1.31239e-05 6.28193e+06 1.8782e-06 9.89749e+06)
(2.6925e+07 -490950 -1.07303e-05 3.12654e+06 4.93823e-06 9.01545e+06)
(3.52973e+07 -842543 3.56469e-05 424025 -1.80219e-05 1.07164e+07)
(2.36787e+07 -1.83043e+06 -1.53306e-05 4.62535e+06 -1.04278e-05 8.4912e+06)
(4.45301e+07 5.89466e+06 4.52709e-05 -1.26227e+06 7.44405e-05 1.29804e+07)
(4.31593e+07 5.44301e+06 0.000103347 -2.21239e+06 8.45227e-05 1.22841e+07)
(2.6014e+07 -2.605e+06 -1.52606e-05 4.31158e+06 -9.82428e-06 9.09768e+06)
(2.43498e+07 -1.28358e+07 -1.80511e-05 9.4303e+06 6.76626e-06 1.0134e+07)
(2.69193e+07 -154280 -4.79301e-05 112586 -5.54611e-06 8.10955e+06)
(4.28739e+07 -1.59127e+06 9.39686e-05 -787163 -6.75458e-06 1.2626e+07)
(1.99636e+07 -6.4066e+06 4.08194e-05 1.49492e+06 7.13697e-07 6.43757e+06)
(2.67397e+07 -1.63634e+06 -1.19329e-05 2.8094e+06 -4.60473e-06 8.86474e+06)
(4.29711e+07 -1.5834e+06 9.41146e-05 -445539 3.87498e-05 1.27577e+07)
(9.78684e+06 -854478 -1.90319e-06 940451 -1.29371e-07 3.21819e+06)
(4.37534e+07 4.36242e+06 0.00012437 -2.76641e+06 3.32154e-05 1.22961e+07)
(2.69336e+07 -1.56213e+06 3.33934e-06 2.55969e+06 1.84408e-06 8.848e+06)
(2.76181e+07 -246397 2.83961e-05 53347.5 3.77427e-06 8.30144e+06)
(4.4971e+07 -684995 -4.48476e-05 -59818.7 8.50627e-05 1.34733e+07)
(2.73693e+07 -1.54484e+06 3.92314e-06 1.19115e+06 4.05742e-06 8.56813e+06)
(2.74744e+07 -1.29345e+06 9.50428e-06 881077 8.18489e-06 8.50665e+06)
(2.64573e+07 -1.91231e+06 -2.75554e-06 4.70532e+06 3.89322e-06 9.34877e+06)
(2.66296e+07 -1.99792e+06 -1.26335e-05 4.27016e+06 4.2165e-06 9.26993e+06)
(2.72272e+07 -4.85996e+06 1.68602e-05 2.39877e+06 -1.99952e-06 8.8878e+06)
(4.68961e+07 -1.28897e+07 -7.69567e-05 6.64987e+06 1.30392e-05 1.60638e+07)
(4.46681e+07 -726137 -2.0363e-05 -904681 6.94461e-05 1.3129e+07)
(2.06172e+07 -1.11629e+06 3.33934e-06 4.55279e+06 4.39338e-06 7.551e+06)
(2.29537e+07 -3.39329e+06 -2.25464e-05 3.9773e+06 2.96498e-06 8.0793e+06)
(2.2332e+07 -2.88184e+06 -1.45717e-05 3.9979e+06 -4.04556e-06 7.89897e+06)
(2.88667e+07 -4.64301e+06 3.52266e-05 1.50313e+06 1.14571e-07 9.11094e+06)
(2.33228e+07 -5.82292e+06 1.03216e-05 2.4662e+06 -9.04089e-06 7.73669e+06)
(2.22152e+07 -6.13455e+06 9.17735e-06 2.1318e+06 -4.7609e-06 7.3041e+06)
(3.04832e+07 -7.1849e+06 2.57923e-05 -7.41511e+06 -1.20978e-05 6.92044e+06)
(2.50041e+07 -6.88661e+06 1.54124e-05 950292 1.08839e-05 7.78631e+06)
(2.51785e+07 -5.21882e+06 1.84481e-05 2.83077e+06 -4.91232e-06 8.4028e+06)
(1.14014e+08 -5.44123e+06 0.000102119 7.97446e+06 -0.000114524 3.65967e+07)
(1.76959e+07 -9.34052e+06 -1.10805e-05 -5.10691e+06 2.55012e-06 3.77671e+06)
(5.47155e+07 -4.63858e+06 -0.000160726 1.45305e+06 9.55507e-05 1.68506e+07)
(4.55623e+07 -31768 2.2272e-05 -192713 2.15102e-05 1.36109e+07)
(2.77605e+07 -2.57257e+06 -5.32427e-06 1.77495e+06 6.10291e-06 8.86064e+06)
(2.67819e+07 -283040 2.79874e-05 1.03017e+06 -6.208e-06 8.34362e+06)
(2.6701e+07 -163893 3.56119e-05 7.60591e+06 -2.53331e-05 1.02921e+07)
(2.67263e+07 -146011 4.81169e-05 384571 1.13111e-06 8.13325e+06)
(2.2496e+07 -7.4513e+06 -1.83314e-05 326849 -1.49212e-05 6.84686e+06)
(2.32297e+07 -7.09764e+06 -1.68368e-05 578484 -6.45465e-06 7.14247e+06)
(1.78812e+07 -6.58995e+06 2.23012e-05 596673 -6.1518e-07 5.54336e+06)
(2.60853e+07 -2.5749e+06 -1.71287e-05 4.39275e+06 -1.13932e-05 9.14342e+06)
(1.91539e+07 -8.56168e+06 -1.08937e-05 -4.05855e+06 1.18877e-06 4.52861e+06)
(2.63974e+07 -8.12081e+06 -2.52552e-05 -4.19605e+06 -1.39237e-05 6.66042e+06)
(2.76324e+07 -6.89872e+06 4.06326e-06 746743 1.97821e-05 8.51373e+06)
(2.82497e+07 -4.56427e+06 -1.11389e-05 1.251e+06 2.1651e-05 8.85022e+06)
(4.38431e+07 -827318 -3.73282e-05 -6.46505e+06 8.33055e-05 1.12134e+07)
(4.09423e+07 -1.35373e+06 9.3992e-07 -2.38917e+06 2.51502e-05 1.15659e+07)
(8.95598e+07 501346 -6.49472e-05 5.36282e+06 1.7479e-05 2.84768e+07)
(2.66935e+07 -228802 3.65109e-05 7.8963e+06 -2.69944e-05 1.03769e+07)
(2.67843e+07 -179805 3.61256e-05 435672 -3.86039e-07 8.16599e+06)
(3.77245e+07 -3.2891e+06 7.20644e-05 -2.77255e+06 -5.32529e-05 1.04856e+07)
(3.13369e+07 -7.20131e+06 1.44899e-05 -7.32554e+06 -1.69302e-07 7.20341e+06)
(7.21294e+07 -1.6086e+07 0.000317559 3.11009e+06 -2.37198e-05 2.25718e+07)
(2.33574e+07 -6.44415e+06 -6.92388e-06 1.67024e+06 -7.99808e-06 7.50829e+06)
(2.11987e+07 -638004 3.61957e-06 4.7305e+06 -6.60785e-06 7.77875e+06)
(2.52092e+07 -5.85005e+06 4.43689e-06 2.3491e+06 6.20654e-06 8.2675e+06)
(3.76167e+07 -6.75512e+06 -4.10587e-05 -6.77885e+06 5.93521e-05 9.25135e+06)
(3.28501e+07 -5.00086e+06 1.95106e-05 504329 2.4959e-05 1.00063e+07)
(3.88829e+07 -4.21606e+06 -3.85484e-05 -6.87329e+06 7.12559e-05 9.6029e+06)
(1.94351e+07 -9.66462e+06 2.56639e-05 -8.25143e+06 -2.20224e-05 3.35512e+06)
(2.69226e+07 -1.13449e+06 -8.87378e-07 2.22635e+06 3.30723e-06 8.74469e+06)
(2.06332e+07 -2.50532e+06 -1.07069e-05 3.98264e+06 7.92018e-06 7.38476e+06)
(2.1128e+07 -2.12236e+06 9.14233e-06 4.22786e+06 6.04818e-06 7.60675e+06)
(2.73712e+07 -8.49653e+06 2.61543e-06 -9.46147e+06 -3.33628e-05 5.37291e+06)
(4.11715e+07 -1.76166e+06 -2.7608e-05 -8.27152e+06 7.94466e-05 9.87e+06)
(2.35269e+07 -2.39286e+06 1.95807e-05 4.37985e+06 -3.64675e-06 8.37202e+06)
(3.22927e+07 -2.38114e+06 1.26335e-05 172703 -3.08802e-05 9.73963e+06)
(2.28572e+07 -8.01628e+06 1.26568e-05 -835785 -3.24229e-06 6.60644e+06)
(2.42785e+07 -7.86594e+06 8.96719e-06 -722850 -9.56741e-06 7.06669e+06)
(2.52933e+07 -5.06754e+06 3.0346e-05 2.55443e+06 2.89346e-07 8.35433e+06)
(3.86039e+07 -3.07467e+06 2.07249e-06 -3.71437e+06 5.77963e-07 1.04669e+07)
(6.10171e+07 -9.65519e+06 -0.000206814 6.79743e+06 9.70044e-05 2.03444e+07)
(3.09489e+07 -3.82877e+06 -3.36386e-05 634996 -1.34318e-05 9.47517e+06)
(4.3017e+07 5.06576e+06 8.48497e-05 -1.50817e+06 1.30538e-05 1.24526e+07)
(5.00517e+07 976300 -0.000168351 -3.33495e+06 -1.07069e-05 1.4015e+07)
(4.86476e+07 1.26836e+06 -8.39477e-05 -2.94137e+06 -1.24758e-05 1.37119e+07)
(2.70793e+07 -225810 -4.8292e-05 85520.8 -4.86014e-07 8.14945e+06)
(3.5278e+07 -5.20302e+06 4.16834e-05 -634542 1.46067e-05 1.0393e+07)
(2.70563e+07 -2.04565e+06 -3.88812e-06 2.66129e+06 4.14864e-06 8.91527e+06)
(3.83429e+07 -2.82276e+06 3.88695e-05 -7.09037e+06 -3.1464e-05 9.37576e+06)
(3.37477e+07 -4.98741e+06 2.62827e-05 -15716.2 2.01776e-05 1.01196e+07)
(4.14684e+07 4.07865e+06 0.000105104 2.60058e+06 -5.46438e-06 1.32207e+07)
(2.40551e+07 -4.34021e+06 -2.84661e-05 3.36216e+06 -4.2373e-06 8.22519e+06)
(2.95553e+07 -3.47834e+06 1.51088e-05 1.24913e+06 3.75238e-05 9.24134e+06)
(2.85754e+07 -3.30371e+06 -5.58114e-06 777377 2.93944e-05 8.80582e+06)
(3.2483e+07 -2.40884e+06 -8.40674e-06 106020 -2.19932e-05 9.77671e+06)
(4.33362e+07 1.18382e+06 1.41046e-05 -2.21757e+06 2.34104e-06 1.23356e+07)
(2.40498e+07 -6.13606e+06 9.74948e-06 1.99532e+06 -5.67309e-06 7.81354e+06)
(1.86639e+07 -2.96931e+06 2.2885e-06 3.84198e+06 -1.87023e-05 6.75177e+06)
(2.69077e+07 -711440 7.57774e-06 1.01751e+06 -1.57955e-05 8.37756e+06)
(2.68111e+07 -2.24614e+06 8.16154e-06 2.25722e+06 -3.05547e-06 8.7205e+06)
(2.62287e+07 -2.79687e+06 -4.97399e-06 3.55537e+06 1.61665e-05 8.93523e+06)
(2.60024e+07 -3.15897e+06 1.10455e-05 3.31864e+06 4.78571e-06 8.79631e+06)
(3.6635e+07 -4.40633e+06 3.1642e-06 -5.32587e+06 2.51297e-05 9.39274e+06)
(1.95952e+07 -634384 -1.42681e-05 4.05594e+06 4.97298e-06 7.09534e+06)
(3.53576e+07 -4.85129e+06 2.24822e-05 -6.33968e+06 1.2378e-05 8.70539e+06)
(9.76721e+07 -1.785e+07 0.000463678 9.9001e+06 6.77968e-05 3.22717e+07)
(2.47836e+07 -1.31075e+06 8.05646e-07 4.99848e+06 1.34584e-06 8.93463e+06)
(2.47126e+07 -1.82686e+06 2.88865e-05 4.69425e+06 -4.90484e-06 8.82206e+06)
(4.73294e+07 -505890 0.000148624 -125541 5.2329e-05 1.41612e+07)
(2.18897e+07 -8.51188e+06 2.33053e-05 -8.13266e+06 -2.82706e-06 4.1271e+06)
(2.69534e+07 -990804 -4.07493e-06 3.56456e+06 9.47582e-06 9.15539e+06)
(5.31609e+07 2.84276e+06 6.81602e-05 7.99263e+06 -3.52849e-05 1.83461e+07)
(2.29156e+07 -1.9122e+06 2.95637e-05 4.55168e+06 -4.93841e-06 8.24017e+06)
(3.58166e+07 1.37196e+06 9.66191e-07 2.58449e+06 4.17184e-05 1.15203e+07)
(2.64564e+07 -879925 3.41524e-05 6.29156e+06 -8.47898e-06 9.82438e+06)
(2.66864e+07 -634206 1.19329e-05 7.09308e+06 -1.32257e-05 1.01338e+07)
(2.69428e+07 -726768 -3.748e-06 1.05773e+06 -1.21095e-05 8.40017e+06)
(2.68789e+07 -544569 2.04564e-05 561843 3.65751e-06 8.23223e+06)
(2.71591e+07 -430643 -2.30601e-05 117591 -7.51498e-06 8.18302e+06)
(1.24683e+07 -4.93655e+06 -1.9499e-06 353705 -5.01084e-06 3.84661e+06)
(1.34012e+07 -4.99879e+06 -5.27756e-06 759079 -9.13001e-06 4.24808e+06)
(4.97173e+07 3.30221e+06 -3.64847e-05 -2.87475e+06 -1.41922e-05 1.40528e+07)
(4.80267e+07 4.23202e+06 4.41062e-06 -2.25029e+06 -2.48115e-05 1.37329e+07)
(4.16991e+07 912989 -5.21685e-05 -5.40663e+06 -4.80935e-05 1.08877e+07)
(2.76404e+07 -2.30141e+06 -9.6911e-07 1.29211e+06 -1.51124e-05 8.67975e+06)
(2.62797e+07 -322800 5.26589e-06 7.14635e+06 3.81126e-06 1.00278e+07)
(2.29628e+07 -8.60791e+06 7.28584e-06 -4.2787e+06 -1.6607e-05 5.60524e+06)
(1.05668e+07 -5.29394e+06 5.28924e-06 -431740 -8.19693e-07 3.04051e+06)
(3.49942e+07 -2.09092e+06 5.00201e-05 395393 -1.38653e-05 1.06169e+07)
(2.66923e+07 -2.61143e+06 -2.33871e-05 3.9501e+06 1.59983e-05 9.19272e+06)
(4.29882e+07 1.47766e+06 -5.46555e-05 -3.68202e+06 -8.80956e-05 1.17919e+07)
(4.68246e+07 3.96408e+06 -2.31652e-05 -2.91798e+06 -3.21091e-07 1.3172e+07)
(5.79609e+07 1.17861e+06 0.000152169 7.77244e+06 -1.2108e-05 1.972e+07)
(2.2118e+07 -6.79573e+06 -9.91294e-06 1.01903e+06 -1.45691e-05 6.94112e+06)
(3.95117e+07 5.76959e+06 5.82925e-05 718895 3.70947e-05 1.20692e+07)
(-4.25034e+06 2.59731e+06 4.51162e-05 -4.4796e+07 -2.38468e-05 -1.47139e+07)
(3.43948e+06 -5.18317e+06 -4.85723e-06 -9.66708e+06 1.53248e-08 -1.86828e+06)
(4.60396e+07 473633 -0.000158233 -5.13839e+06 -3.29468e-05 1.22704e+07)
(2.63741e+07 -568999 -5.20751e-06 7.10999e+06 -5.73849e-06 1.00452e+07)
(3.88087e+07 -3.39898e+06 -3.21674e-05 -7.65446e+06 -4.36041e-05 9.34627e+06)
(4.55157e+07 842009 -8.29669e-05 -122388 -6.15472e-05 1.3618e+07)
(3.30799e+07 -1.48821e+07 -3.69896e-05 8.65988e+06 1.22715e-05 1.25219e+07)
(1.62939e+07 -5.739e+06 -1.22715e-05 965453 4.41044e-06 5.1778e+06)
(2.81855e+07 -6.70821e+06 -6.18829e-07 605430 3.31307e-06 8.63729e+06)
(3.81449e+07 -3.2071e+06 9.33498e-06 -7.69129e+06 -2.10723e-05 9.13609e+06)
(1.58891e+07 -5.99266e+06 -7.79958e-06 1.13646e+06 1.65435e-06 5.10768e+06)
(1.98317e+07 -1.56933e+06 1.99894e-05 4.10822e+06 -3.9672e-06 7.18197e+06)
(2.20539e+07 -6.05835e+06 -2.44613e-05 2.02493e+06 -1.11787e-05 7.22364e+06)
(3.39406e+07 -9.21374e+06 -3.01884e-05 -1.62305e+06 1.53365e-05 9.69527e+06)
(2.63257e+07 -741408 -1.61246e-05 6.39212e+06 -1.00742e-06 9.81536e+06)
(2.66063e+07 -2.93681e+06 -9.45758e-07 3.8344e+06 1.67653e-05 9.13221e+06)
(4.32604e+07 5.68358e+06 1.70995e-05 1.41838e+06 -3.51799e-05 1.34036e+07)
(2.62648e+07 -2.94261e+06 1.13608e-05 4.02299e+06 -6.17151e-06 9.08633e+06)
(4.16746e+07 -655793 0.000103111 -6.34954e+06 1.31005e-05 1.05975e+07)
(4.02058e+07 -2.97768e+06 -2.32294e-05 -396806 -4.16615e-05 1.19427e+07)
(-2.03322e+06 -1.05966e+06 2.46014e-05 -3.05661e+07 -6.13958e-06 -9.77979e+06)
(2.79558e+07 -560047 -4.99734e-06 -166911 1.72572e-05 8.33666e+06)
(4.50492e+07 -423302 2.70709e-05 -35245.3 0.000124986 1.35042e+07)
(3.14053e+07 -4.92205e+06 -6.18829e-06 390752 1.82905e-05 9.53882e+06)
(2.83818e+07 -2.00989e+06 2.82326e-05 360174 -5.1068e-06 8.62258e+06)
(2.89262e+07 -1.8006e+06 3.00658e-05 706624 -3.45172e-06 8.88986e+06)
(1.7911e+07 -5.40791e+06 -8.40674e-07 2.05801e+06 -1.74338e-06 5.99069e+06)
(2.23489e+07 -8.98403e+06 -2.09935e-05 -4.46285e+06 1.70908e-06 5.36581e+06)
(3.60052e+07 -9.85047e+06 2.03747e-05 -1.45521e+06 7.77331e-06 1.0365e+07)
(3.89994e+07 -1.81803e+06 -5.04871e-05 256828 2.22282e-06 1.17769e+07)
(3.65942e+07 -2.04544e+06 -7.82819e-05 -261787 4.12339e-05 1.08997e+07)
(3.25793e+07 -5.07334e+06 3.18522e-05 -35189.2 4.78542e-05 9.76323e+06)
(6.08331e+06 -6.23316e+06 -4.32013e-06 -1.16894e+07 7.13624e-06 -1.68182e+06)
(2.6422e+07 -3.31803e+06 8.79205e-06 3.62724e+06 4.36537e-06 9.01479e+06)
(4.60875e+07 533753 -1.66091e-06 -83901.5 -6.96796e-05 1.38011e+07)
(4.11149e+07 -1.40717e+06 9.3957e-05 -2.5489e+06 1.92217e-05 1.15698e+07)
(2.6719e+07 -254778 2.95403e-05 872590 -1.082e-05 8.27747e+06)
(3.34877e+07 -5.41565e+06 5.91974e-06 -521861 -4.07493e-06 9.88974e+06)
(4.70924e+07 -830331 -0.000155624 -3.49185e+06 -3.81105e-05 1.30802e+07)
(2.83025e+07 -3.73582e+06 -3.87644e-06 1.16333e+06 1.00414e-06 8.83974e+06)
(3.70833e+07 2.71527e+06 -2.21151e-05 3.60889e+06 -7.36057e-05 1.22077e+07)
(2.71617e+07 -408736 -8.05646e-07 356440 -8.40674e-07 8.25544e+06)
(3.59768e+07 2.31889e+06 -3.96109e-06 1.19335e+06 -5.64769e-05 1.1151e+07)
(2.4653e+07 -1.71419e+06 -2.37607e-05 4.82324e+06 -4.388e-06 8.84288e+06)
(2.40316e+07 -1.41209e+06 -1.34274e-06 4.75206e+06 -1.39328e-06 8.6351e+06)
(2.67339e+07 -94450.9 1.44783e-06 8.68436e+06 -1.65656e-05 1.06255e+07)
(2.67615e+07 -31384.3 1.02749e-05 -63340.6 1.73301e-05 8.00946e+06)
(2.51044e+07 -2.91122e+06 7.29751e-06 4.36138e+06 7.57701e-06 8.83974e+06)
(1.81221e+07 -6.43705e+06 2.69016e-05 1.13751e+06 -8.33741e-07 5.77787e+06)
(4.03572e+07 -3.20127e+06 -1.57626e-07 -7.30049e+06 3.9678e-05 9.91701e+06)
(4.54123e+07 4.95885e+06 -8.05456e-05 4.97515e+06 4.85022e-05 1.51162e+07)
(3.3339e+07 -920918 -2.83727e-06 -401440 2.81348e-05 9.88126e+06)
(4.97199e+07 -2.64605e+06 -0.000156558 -2.78525e+06 -3.49493e-05 1.40804e+07)
(4.41555e+07 82273.5 -1.38361e-05 -6.12726e+06 8.87757e-05 1.14085e+07)
(1.96142e+07 -5.06739e+06 2.72051e-06 2.78545e+06 2.15788e-06 6.7199e+06)
(4.87274e+07 4.27516e+06 4.0815e-05 4.39476e+06 1.54357e-05 1.59366e+07)
(2.73782e+07 -3.0392e+06 1.85649e-06 2.67619e+06 3.22331e-06 9.01632e+06)
(1.56177e+07 -4.94683e+06 -5.86136e-06 1.72757e+06 -2.73538e-06 5.2036e+06)
(2.66131e+07 -357318 4.3318e-06 2.76203e+06 1.12342e-05 8.81253e+06)
(1.43465e+07 -4.68437e+06 -6.65533e-07 1.17698e+06 -1.24897e-06 4.65704e+06)
(1.50599e+07 -4.29827e+06 -3.47945e-06 1.88971e+06 -1.51816e-06 5.08489e+06)
(3.82474e+07 -3.12409e+06 4.55248e-05 -338432 -1.44812e-05 1.13727e+07)
(2.64577e+07 -7.75262e+06 1.55349e-05 -8.89471e+06 2.84019e-06 5.26889e+06)
(2.88453e+07 -6.81184e+06 3.09765e-05 107530 1.56641e-05 8.68584e+06)
(2.71184e+07 -567010 1.61363e-05 650952 -4.29532e-06 8.3308e+06)
(2.66518e+07 -151853 2.01411e-05 7.68293e+06 -5.00801e-06 1.03004e+07)
(2.67737e+07 -32363.8 -3.38138e-05 36984.2 3.31599e-06 8.04321e+06)
(2.64036e+07 -3.80144e+06 1.95106e-05 2.6231e+06 -1.99149e-06 8.708e+06)
(1.39057e+07 -8.7778e+06 8.53517e-06 -4.79646e+06 -9.32148e-06 2.73276e+06)
(4.34629e+07 5.83805e+06 8.85962e-05 2.98259e+06 -1.75374e-05 1.39336e+07)
(4.41841e+07 5.00564e+06 0.000121798 -2.71508e+06 8.37871e-05 1.24407e+07)
(4.26238e+07 -1.88593e+06 -0.000208837 -31365 -5.62288e-05 1.27777e+07)
(3.22313e+07 -1.61738e+06 -1.89152e-06 146811 9.25617e-06 9.71343e+06)
(1.67966e+06 2.68384e+06 7.54271e-06 -2.05858e+07 4.59014e-06 -5.67183e+06)
(-1.78577e+06 1.62234e+06 3.89979e-06 -2.30105e+07 5.02799e-06 -7.43888e+06)
(2.05919e+07 -5.677e+06 -2.11453e-05 2.23077e+06 -5.6085e-06 6.84679e+06)
(3.00358e+07 -2.25436e+06 -2.23129e-05 123878 -9.42255e-06 9.0479e+06)
(2.76366e+07 -8.40256e+06 -2.65454e-05 -5.80042e+06 -6.68452e-06 6.55087e+06)
(3.21523e+07 -244455 9.40577e-06 1.09662e+06 6.53857e-07 9.97469e+06)
(1.98059e+07 -7.92565e+06 -1.52956e-06 -795417 -8.81576e-06 5.70314e+06)
(3.41201e+07 -1.3169e+06 4.6634e-05 -161709 -4.05216e-05 1.01875e+07)
(2.65664e+07 -3.66666e+06 1.9534e-05 3.28492e+06 -2.35053e-06 8.95539e+06)
(2.16911e+07 -7.46592e+06 -2.06432e-05 24405.2 -1.11772e-05 6.51465e+06)
(-451957 19357.8 -6.76042e-06 -1.3409e+07 7.67297e-06 -4.1583e+06)
(4.32561e+07 1.20503e+06 -5.6512e-05 -222475 -7.83111e-05 1.29101e+07)
(1.50791e+07 -3.54908e+06 -1.7514e-06 2.58524e+06 -1.04044e-06 5.29929e+06)
(2.96864e+07 -2.90419e+06 -1.15009e-05 479389 8.70739e-06 9.04973e+06)
(1.26388e+07 -7.12132e+06 4.60035e-06 -3.63945e+06 -1.348e-05 2.69982e+06)
(3.99467e+07 -2.3131e+06 -2.2669e-05 -2.62402e+06 1.10192e-05 1.11968e+07)
(2.69298e+07 -451545 2.21377e-05 5.27528e+06 9.33097e-06 9.66151e+06)
(2.68092e+07 -4.26449e+06 7.30919e-06 2.92237e+06 3.14815e-06 8.91947e+06)
(2.59061e+07 -226897 -1.88334e-05 6.46776e+06 -3.19312e-07 9.71217e+06)
(2.73073e+07 -259579 -3.43742e-05 35786.5 -7.53687e-06 8.20294e+06)
(4.00212e+07 -2.64976e+06 -0.000106228 -186461 -7.31941e-06 1.19504e+07)
(1.18895e+07 -5.95132e+06 5.25421e-07 -2.11138e+06 -5.55888e-06 2.93345e+06)
(2.66478e+07 -48491.3 -2.12504e-05 71217.7 -3.63139e-05 8.01569e+06)
(2.83254e+07 -3.71905e+06 8.87378e-07 1.63565e+06 -6.10437e-06 8.98831e+06)
(3.2895e+07 3.8601e+06 -4.11682e-05 589100 3.27512e-05 1.00452e+07)
(2.75799e+07 -5.12362e+06 3.21791e-05 1.81767e+06 2.94966e-06 8.81926e+06)
(2.46818e+07 -6.07071e+06 1.22949e-05 2.22297e+06 -3.2879e-06 8.07142e+06)
(2.64789e+07 -5.06222e+06 1.6183e-05 2.01365e+06 5.9161e-06 8.54776e+06)
(2.62856e+07 -196000 7.62444e-06 7.11899e+06 4.62754e-06 1.00214e+07)
(2.82452e+07 1.7071e+06 6.12918e-06 402556 1.61129e-06 8.59432e+06)
(3.11163e+07 -4.42389e+06 -5.55662e-05 785712 -1.66478e-05 9.5706e+06)
(3.13007e+07 -5.38328e+06 6.31673e-06 640357 2.06724e-05 9.58231e+06)
(2.7975e+07 -5.18166e+06 3.76785e-05 1.56022e+06 6.04015e-06 8.86057e+06)
(5.12364e+07 1.81753e+06 6.62432e-06 7.41309e+06 -6.04584e-05 1.75949e+07)
(1.18471e+07 -929930 -2.35856e-06 1.82723e+06 8.10526e-07 4.10229e+06)
(3.1223e+07 1.53586e+06 -3.58308e-05 -170702 6.96416e-05 9.31569e+06)
(2.32114e+07 -6.45669e+06 -1.85298e-05 1.98584e+06 -1.36719e-05 7.55917e+06)
(4.64599e+07 6.16202e+06 -1.3334e-05 2.31146e+06 -2.83552e-05 1.46314e+07)
(4.62297e+06 -5.50343e+06 -1.00297e-05 -1.31209e+07 -1.58356e-06 -2.54938e+06)
(4.30084e+07 6.50375e+06 5.20415e-05 1.89359e+06 -8.78621e-06 1.34706e+07)
(3.0764e+07 -5.52281e+06 -2.76605e-05 309948 1.59706e-05 9.3222e+06)
(4.33814e+07 1.33058e+06 -7.26716e-05 -1.71284e+06 3.50222e-05 1.25006e+07)
(4.78461e+07 5.52266e+06 1.97821e-05 -1.11036e+06 3.2687e-05 1.40207e+07)
(2.66314e+07 -3.11707e+06 -1.67317e-05 2.69583e+06 9.4875e-06 8.79816e+06)
(2.48385e+07 -3.72082e+06 2.65046e-06 3.82314e+06 1.2798e-05 8.59848e+06)
(2.41917e+07 -3.8432e+06 2.63878e-06 3.54589e+06 1.29261e-05 8.32128e+06)
(9.3427e+06 -6.05731e+06 2.77889e-06 -2.18793e+06 -3.0552e-06 2.14643e+06)
(1.2578e+07 -5.83843e+06 5.60449e-06 -817493 5.08181e-07 3.52816e+06)
(2.6272e+07 -4.15162e+06 1.71754e-05 2.63417e+06 -5.9628e-06 8.67185e+06)
(2.65238e+07 -1.21838e+06 -4.55365e-07 3.05088e+06 3.30286e-06 8.87239e+06)
(2.55336e+07 -6.83854e+06 3.51332e-05 1.18571e+06 5.53516e-06 8.01581e+06)
(1.36248e+07 -4.26229e+06 -3.36269e-06 1.38505e+06 -6.4521e-06 4.50295e+06)
(2.64376e+07 -616670 1.69302e-05 7.06803e+06 -1.97486e-05 1.00517e+07)
(2.69931e+07 -419283 3.2004e-05 807635 1.23532e-05 8.34023e+06)
(3.24768e+07 -2.98697e+06 -3.22609e-05 450599 -1.11652e-05 9.87821e+06)
(2.22996e+07 -331153 2.30601e-05 4.63331e+06 2.88918e-06 8.07987e+06)
(2.69046e+07 -1.1161e+06 -6.8655e-06 2.81018e+06 1.38945e-06 8.91445e+06)
(2.95406e+07 -6.62242e+06 2.16006e-05 407066 1.42871e-05 8.98429e+06)
(2.68617e+07 -1.7092e+06 2.94236e-06 3.93159e+06 7.3683e-06 9.238e+06)
(2.40409e+07 -4.42509e+06 -2.31302e-05 3.42311e+06 -5.13417e-06 8.23921e+06)
(4.0864e+07 3.93911e+06 8.45928e-05 332060 -3.24302e-05 1.23588e+07)
(3.76793e+07 3.78819e+06 5.878e-05 -805995 3.88812e-06 1.1062e+07)
(2.96103e+07 -7.0544e+06 -1.46067e-05 -548121 -2.0093e-05 8.71867e+06)
(1.14969e+07 -7.68212e+06 3.61957e-07 -3.30062e+06 -8.41987e-06 2.4589e+06)
(2.59785e+07 -6.93674e+06 4.01655e-06 554611 1.0766e-05 7.95994e+06)
(2.80225e+07 -7.0611e+06 1.6685e-05 -266233 3.9122e-06 8.32687e+06)
(1.21979e+07 -6.02403e+06 1.27269e-06 -979424 -8.16774e-07 3.36555e+06)
(2.62146e+07 -1.63138e+06 -2.03163e-05 5.33791e+06 -8.47606e-06 9.46575e+06)
(2.73274e+07 -1.37375e+06 -3.05445e-05 1.75162e+06 -1.38456e-05 8.72369e+06)
(-1.17318e+06 185439 -1.7409e-05 -2.18327e+07 8.03456e-06 -6.90177e+06)
(3.17785e+07 -499674 -1.23766e-06 -19075 2.60083e-06 9.52782e+06)
(2.65776e+07 -375642 1.63581e-05 7.85497e+06 -4.47894e-06 1.03298e+07)
(2.68864e+07 -145610 -2.14022e-05 185976 4.83241e-06 8.12171e+06)
(2.30966e+07 -1.24496e+06 3.46778e-06 4.67046e+06 -2.55659e-06 8.33012e+06)
(1.30405e+06 3.59267e+06 -9.07227e-06 -2.59367e+07 2.32506e-05 -7.38978e+06)
(1.86323e+07 -5.32944e+06 1.39295e-05 2.29461e+06 -1.49818e-06 6.27808e+06)
(4.39989e+07 1.17133e+06 8.51941e-05 -634944 2.77539e-05 1.30092e+07)
(2.64745e+07 -1.37015e+06 3.64292e-06 5.74299e+06 -1.73664e-05 9.66524e+06)
(2.69816e+07 -1.21529e+06 -1.75724e-05 1.10272e+06 -1.49606e-05 8.42529e+06)
(3.03427e+07 -7.21969e+06 6.39846e-06 -2.66944e+06 -2.39745e-05 8.30199e+06)
(2.39463e+06 -3.29726e+06 4.08661e-07 -1.80311e+07 -3.22915e-06 -4.69093e+06)
(3.16238e+07 -6.03768e+06 -2.39826e-05 -481929 -2.12285e-05 9.34255e+06)
(2.4132e+07 -9.15912e+06 -3.26345e-06 -5.75865e+06 -1.30779e-05 5.51201e+06)
(1.87936e+07 -2.84719e+06 3.85309e-07 3.60183e+06 -2.25087e-05 6.71863e+06)
(3.13579e+07 -3.87342e+06 -3.12217e-05 203516 -9.50428e-06 9.46844e+06)
(3.05759e+07 -4.96018e+06 -4.04107e-05 673562 -5.40016e-08 9.37483e+06)
(5.99299e+07 -5.63249e+06 5.49065e-05 3.79131e+06 0.000158911 1.91164e+07)
(2.27769e+07 -6.88818e+06 -2.34688e-06 1.30684e+06 -7.8098e-06 7.22513e+06)
(-1.15409e+06 -1.06751e+06 -8.53517e-06 -2.50652e+07 2.77488e-05 -7.86577e+06)
(7.50868e+06 -5.79714e+06 4.40186e-06 -7.15828e+06 -2.85442e-06 105121)
(2.64429e+07 -1.71041e+06 -3.60322e-05 5.04544e+06 -3.05401e-07 9.44649e+06)
(2.81993e+07 -7.47332e+06 -2.51151e-05 -9.00731e+06 -7.47265e-07 5.7576e+06)
(2.82001e+07 -5.32115e+06 -2.63528e-05 1.65893e+06 1.63129e-05 8.95771e+06)
(3.08676e+07 -3.10363e+06 -3.57403e-05 789380 -4.16834e-06 9.49709e+06)
(3.25296e+07 -3.7706e+06 -2.93886e-05 657526 -1.59436e-05 9.95613e+06)
(5.43174e+06 -1.54423e+06 -4.20337e-07 -4.83446e+06 1.63785e-05 179182)
(5.42987e+07 2.93524e+06 3.05197e-05 3.81382e+06 -7.35589e-07 1.74338e+07)
(2.4413e+07 -6.39177e+06 1.28319e-05 1.962e+06 -7.06837e-06 7.91249e+06)
(3.79287e+07 -5.41489e+06 2.16999e-05 -8.71767e+06 6.34709e-05 8.76332e+06)
(2.80925e+07 -8.66227e+06 -3.51332e-05 -1.00668e+07 -6.94286e-06 5.40773e+06)
(4.83417e+07 145933 -1.27553e-05 6.09885e+06 9.3992e-07 1.63322e+07)
(6.02994e+07 1.06479e+06 -3.19981e-05 5.88625e+06 6.94723e-06 1.98557e+07)
(7.86188e+06 -5.72598e+06 -5.91974e-06 -1.49208e+07 -6.83266e-06 -2.11766e+06)
(2.73679e+07 -1.75301e+06 -5.13745e-06 1.61976e+06 -1.5111e-05 8.69631e+06)
(2.98351e+07 -2.98048e+06 3.9932e-06 932867 4.0021e-05 9.23038e+06)
(3.61918e+07 -4.62013e+06 1.87225e-05 -1.23823e+06 -2.02185e-05 1.04861e+07)
(3.44173e+07 -5.33706e+06 4.12631e-05 -1.48002e+06 -2.51633e-05 9.88118e+06)
(2.68817e+07 -5.74898e+06 1.50621e-05 2.07432e+06 1.32362e-05 8.6868e+06)
(2.69009e+07 542255 1.32742e-06 143903 -3.27045e-05 8.11343e+06)
(4.60235e+07 5.90232e+06 -4.58401e-05 -1.6603e+06 3.76552e-06 1.3309e+07)
(1.54919e+07 -3.38041e+06 -2.26515e-06 2.5884e+06 4.79857e-06 5.42408e+06)
(2.66417e+07 -136429 4.20337e-06 8.0119e+06 -1.63829e-06 1.03961e+07)
(2.67528e+07 -28036.6 -1.25984e-05 59792.5 1.26043e-05 8.04377e+06)
(2.72853e+07 -1.53825e+06 1.64632e-06 1.35568e+06 -1.0866e-05 8.59228e+06)
(1.76739e+07 -8.70838e+06 -2.80225e-06 -3.32726e+06 6.78559e-06 4.304e+06)
(8.01416e+07 -1.20914e+07 -1.8057e-05 1.13519e+07 -8.75293e-05 2.7448e+07)
(3.03605e+07 -7.40672e+06 3.28096e-05 -8.22561e+06 1.86875e-05 6.64048e+06)
(2.3846e+07 -5.58595e+06 -1.14775e-05 2.68889e+06 -4.50986e-06 7.96046e+06)
(2.28641e+07 -6.65192e+06 9.34082e-06 1.32392e+06 -1.06321e-05 7.2564e+06)
(2.12797e+07 -6.3676e+06 -3.4923e-05 1.92615e+06 -9.44663e-06 6.96175e+06)
(2.6825e+07 -83211.7 -3.83557e-05 181278 -5.86866e-06 8.10187e+06)
(8.87769e+06 -6.77027e+06 8.0331e-06 -9.01536e+06 -4.77257e-07 -41300.9)
(2.64984e+07 -1.86585e+06 -2.01995e-06 3.54008e+06 9.3919e-06 9.01154e+06)
(1.78604e+07 -8.12922e+06 -9.03724e-06 -2.73754e+06 7.29678e-06 4.53685e+06)
(2.66423e+07 -391310 1.90086e-05 5.18343e+06 7.90613e-06 9.5477e+06)
(5.44731e+07 3.65414e+06 -4.77257e-07 5.60024e+06 2.912e-05 1.8022e+07)
(2.69245e+07 -1.5895e+06 -2.00477e-05 1.25454e+06 -1.1884e-05 8.4537e+06)
(2.66129e+07 -314328 2.24997e-05 7.26764e+06 -3.02019e-06 1.01642e+07)
(5.36371e+07 3.24467e+06 3.06204e-05 4.85928e+06 1.045e-06 1.75489e+07)
(2.38897e+07 -2.90305e+06 1.4163e-05 4.27317e+06 3.57578e-07 8.44887e+06)
(2.61623e+07 -1.53791e+06 1.28086e-05 5.29911e+06 -1.53629e-05 9.43843e+06)
(3.79146e+07 1.38504e+06 -3.741e-05 82216.6 -3.59738e-05 1.13991e+07)
(5.80609e+07 -1.62637e+07 -2.2634e-05 5.06184e+06 0.000249919 1.89368e+07)
(2.51293e+07 -3.18764e+06 7.53104e-06 3.92132e+06 -2.79312e-06 8.7152e+06)
(7.86382e+06 -7.58687e+06 1.86816e-06 -6.60063e+06 -6.23098e-06 378958)
(3.5578e+07 -3.2932e+06 7.97472e-06 447671 2.6976e-05 1.08077e+07)
(3.66986e+07 -4.46471e+06 4.39544e-05 -1.04399e+06 1.53788e-05 1.06964e+07)