/*--------------------------------*- C++ -*----------------------------------*\
| =========                 |                                                 |
| \\      /  F ield         | OpenFOAM: The Open Source CFD Toolbox           |
|  \\    /   O peration     | Version:  v2012                                 |
|   \\  /    A nd           | Website:  www.openfoam.com                      |
|    \\/     M anipulation  |                                                 |
\*---------------------------------------------------------------------------*/
FoamFile
{
    version     2.0;
    format      ascii;
    class       volSymmTensorField;
    location    "1";
    object      sigma;
}
// * * * * * * * * * * * * * * * * * * * * * * * * * * * * * * * * * * * * * //

dimensions      [1 -1 -2 0 0 0 0];


internalField   nonuniform List<symmTensor> 
980
(
(-5.42278e+06 -551124 180911 -771658 -139467 -1.37746e+06)
(-5.25024e+06 -450320 174063 -891829 -20357.2 -768269)
(-4.02654e+06 -1.38691e+06 148615 -161716 -44444.8 -303973)
(-4.01582e+06 -1.25403e+06 205858 -165876 -173726 -41948.3)
(42918.4 -2.38661e+06 -403.35 475.071 -57323.3 -1398.92)
(39641.5 -2.14662e+06 -3866.28 1228.38 -11038.2 -1594.19)
(4.06176e+06 -1.36975e+06 -151761 180900 -45507.5 318480)
(4.04772e+06 -1.23545e+06 -202650 186391 -176295 50142.4)
(5.43167e+06 -551484 -180867 777533 -141369 1.39178e+06)
(5.25568e+06 -449939 -176865 898293 -18363.3 773139)
(-4.88584e+06 29957.9 -12945.2 -157127 -198090 -688857)
(-4.76171e+06 23762.3 -299108 -345209 -33398.5 -241002)
(-3.66454e+06 -1.39636e+06 -42590.7 257118 -92120.7 -19959.9)
(-3.43186e+06 -1.37584e+06 -27488.1 86347.8 -238696 84261.1)
(29862.2 -1.96506e+06 969.328 1653.78 -47524.7 16.2589)
(24370.7 -1.88193e+06 -1410.69 4603.38 -28916.1 896.726)
(3.7009e+06 -1.37103e+06 41298.3 -243580 -92807 22571.5)
(3.48319e+06 -1.36423e+06 35109.8 -81273.6 -244923 -93335.4)
(4.89511e+06 40493.5 13763.5 166120 -199659 699644)
(4.76813e+06 34414.7 302659 354382 -29737.4 246489)
(-4.46461e+06 -190459 -50693.8 47639.6 -49292.7 -4872.7)
(-4.38352e+06 -266245 -253721 41288.2 -86621.6 95486.2)
(-2.81326e+06 -1.23341e+06 -68036.6 247328 -48262.6 -30328)
(-2.74202e+06 -1.37176e+06 -2089.1 221599 -76507.2 975.28)
(22122.2 -1.83416e+06 782.684 -1131.82 -30746.1 10.9066)
(20448.7 -1.90079e+06 -840.933 195.032 -24856.6 -123.555)
(2.85732e+06 -1.21887e+06 67980.9 -249000 -48318.2 24758.2)
(2.78168e+06 -1.35926e+06 4582.3 -222162 -78158.4 -5157.78)
(4.4753e+06 -172900 48437.6 -36345.3 -51439 10609.8)
(4.39257e+06 -248379 262441 -30835.5 -84779.5 -91108.9)
(-4.07096e+06 -315824 -89540.5 176244 16921.9 201624)
(-4.09618e+06 -424580 -113047 247219 -11418.8 206492)
(-2.39822e+06 -1.19735e+06 -56346.3 249630 -11206.1 26164.9)
(-2.39791e+06 -1.3297e+06 -13188.7 268150 -14026.2 30848)
(17685.9 -1.69872e+06 564.499 -5831.26 -21557.1 -536.536)
(17587.1 -1.78402e+06 -513.905 -5302.48 -19011.5 -693.663)
(2.42871e+06 -1.18314e+06 56712.2 -255091 -10629.2 -28223.2)
(2.43103e+06 -1.3188e+06 13396 -275323 -14523.4 -33627.8)
(4.10846e+06 -300225 86901.8 -179632 16624.5 -210822)
(4.13489e+06 -410558 121571 -253577 -10971.4 -214665)
(-3.59514e+06 -450651 -95608.7 119992 29254.9 160000)
(-3.63374e+06 -535491 7514.6 178729 21881.9 138226)
(-2.04069e+06 -1.16147e+06 -37165.8 164464 6276.2 1851.22)
(-2.07705e+06 -1.25959e+06 18654 194867 9338.65 8297.82)
(14545 -1.56315e+06 370.232 -11539.3 -12205.2 -1089.54)
(15075.4 -1.64113e+06 -595.178 -11651.4 -5126.6 -968.664)
(2.06779e+06 -1.1516e+06 37589.3 -178582 6798.06 -4110.52)
(2.10608e+06 -1.25142e+06 -19871.1 -210072 8721.02 -10571.7)
(3.62628e+06 -439759 94578.1 -122290 30050.6 -164045)
(3.66712e+06 -526140 -6107.76 -182849 21567.6 -142329)
(-3.1965e+06 -526347 -92762.5 60360.7 19726.8 96023.5)
(-3.22443e+06 -585433 60618.8 97297.8 30124.3 73359.9)
(-1.76967e+06 -1.14736e+06 -28320.7 84454.4 8180.11 -22041.1)
(-1.80532e+06 -1.21159e+06 30691.9 106707 10512.3 -12914.8)
(13046.7 -1.49261e+06 36.8932 -19049.3 -8739.64 -2014.64)
(13488 -1.54937e+06 -1198.27 -19436.6 -6916.38 -1594.04)
(1.79595e+06 -1.14432e+06 28496 -108531 8565.23 18912.7)
(1.83245e+06 -1.21009e+06 -33721 -131417 9073.74 10161.6)
(3.23632e+06 -521377 91627.3 -66835.1 19676.6 -100527)
(3.26502e+06 -582188 -61120.9 -104543 29670.6 -77830.8)
(-2.76904e+06 -566247 -93953.6 3752.54 8905.38 32358)
(-2.78182e+06 -604176 84520.4 20201.8 23475.7 19192.1)
(-1.51837e+06 -1.13937e+06 -25684.6 21334 4366.5 -38789.2)
(-1.54426e+06 -1.18199e+06 33760.1 34487.7 4837.64 -27836.6)
(12960.4 -1.45547e+06 -278.261 -29459.4 -8592.01 -2244.69)
(13265.1 -1.49955e+06 -1330.77 -30071.2 -11977.2 -1725.4)
(1.54202e+06 -1.14582e+06 25865.7 -56132.1 4717.97 37580.3)
(1.56678e+06 -1.19135e+06 -37823.2 -68726.2 2193.86 27173.4)
(2.80968e+06 -567313 93827.8 -9033.75 8358.96 -30694.5)
(2.82085e+06 -607937 -87995.4 -23428.8 21305.8 -18793.5)
(-2.34447e+06 -574542 -94417.6 -24107.7 440.759 1319.59)
(-2.34491e+06 -600624 83373.5 -19144.2 15706.7 -5801)
(-1.2797e+06 -1.13398e+06 -26066.2 -15271.5 -43.0733 -41183.4)
(-1.29487e+06 -1.16744e+06 27132.2 -8250.66 -1766.25 -31427.2)
(19226.4 -1.43981e+06 -725.471 -46332.1 -9724.32 -2338.06)
(18831.2 -1.48083e+06 -2742.46 -46566.6 -16258.4 -1823.18)
(1.31034e+06 -1.15767e+06 26618.1 -40087.7 791.256 42095)
(1.32064e+06 -1.19688e+06 -32387.5 -43757.1 -5004.06 33442.1)
(2.38629e+06 -591812 95946 18250.8 -2125.29 9193.97)
(2.38146e+06 -621643 -86388 20018.9 14136.5 14012.7)
(-1.92027e+06 -569724 -94112.4 -35855.2 -4479.99 -10100.5)
(-1.91488e+06 -590549 77587.5 -35026.6 10603.3 -14626)
(-1.0457e+06 -1.12436e+06 -26799 -34829 -3013.03 -33888.9)
(-1.05345e+06 -1.15664e+06 22450.5 -31024.2 -5521.19 -26457.9)
(24824.7 -1.43277e+06 -1120.29 -68983.7 -11137.1 6940.64)
(26049.7 -1.47755e+06 679.465 -70299 -15636.9 6831.58)
(1.06615e+06 -1.17442e+06 27130.1 -39276.2 96.5345 49056.1)
(1.06857e+06 -1.21721e+06 -18425.8 -39032.1 -9367.7 43453.8)
(1.93616e+06 -577609 98679 37482.1 25.9518 27963.6)
(1.92203e+06 -602646 -74752.5 49203.1 3572.6 30852.6)
(-1.49626e+06 -555028 -89145.9 -44519.8 -6273.09 -16409.9)
(-1.48741e+06 -574323 67091.2 -45105.7 6997.32 -22034.7)
(-792443 -1.11354e+06 -25273.3 -51657.4 -3789.89 -35775.4)
(-793058 -1.14761e+06 15836.3 -50963.9 -8012.46 -32237.9)
(60562.4 -1.41701e+06 -739.283 -95377 -10947.4 2162.64)
(67284.8 -1.46777e+06 565.091 -101318 -14095.8 1098.08)
(844375 -1.1767e+06 24924.8 -53046.9 4096.95 39699.8)
(843585 -1.22783e+06 -3440.11 -54287.4 -8485.4 41157.8)
(1.54192e+06 -658103 104215 -101064 -46860.3 45161.7)
(1.53552e+06 -674147 -63893.9 -90871.8 49785.2 49000.5)
(-1.14616e+06 -527476 -83818.1 -48871.9 -3290.3 -20612.2)
(-1.13685e+06 -546371 55157.6 -48386.1 1788.45 -29321.8)
(-621722 -1.08109e+06 -24276.9 -57980 -2136.49 -27726)
(-619563 -1.11669e+06 5284.36 -56003.4 -9502.59 -29638.9)
(21592.2 -1.40184e+06 -4369.06 -105138 -9315.63 6862.52)
(31950 -1.45791e+06 -6324.17 -113609 -15348.4 3820.69)
(565896 -1.24582e+06 14469.5 -56885.5 5229.28 50453.5)
(570205 -1.30493e+06 15912 -63169.7 7319.84 55016.6)
(1.20393e+06 -689477 110529 -244860 -66923 -2533.42)
(1.1981e+06 -706589 -52649.5 -249400 71832 25702.5)
(-869640 -483572 -73462.1 -46740.5 -4243.55 -15001.1)
(-862432 -502863 44054 -44613.6 1923.35 -25427.1)
(-513416 -1.01614e+06 -21421.4 -54662.8 -1682.5 -13115.6)
(-512815 -1.05148e+06 3256.97 -49468.8 -7726.77 -18848.6)
(-58832.8 -1.37421e+06 -5251.19 -96786.6 -7880.81 12885.6)
(-49415 -1.43114e+06 -7370.79 -104981 -18017.1 9153.13)
(271970 -1.38096e+06 5632.89 -48117.4 5022.72 85334.3)
(290386 -1.44385e+06 20837.6 -61137.6 13665.1 83031.9)
(822066 -888383 50637.3 -95956.2 8311.01 -114935)
(817296 -923470 -16843.6 -105847 15887.8 -78214.8)
(-578426 -443805 -62051.6 -44459.2 -4612.91 -17077.1)
(-570644 -463803 34762.9 -43684.6 1433.09 -28502)
(-342391 -950805 -17290.5 -66922.1 -1478.46 -13640.8)
(-339108 -984682 2973.06 -62684.9 -5317.66 -22920.2)
(-31645.1 -1.32261e+06 -4881.88 -112804 -6514.75 -2487.45)
(-21123.6 -1.37694e+06 -5659.54 -122980 -19012.3 -6509.41)
(150661 -1.44314e+06 -2320.48 -80252.3 2056.2 74082)
(177523 -1.50177e+06 22079.4 -100298 12942 68139.9)
(544981 -1.09893e+06 30670 -134634 7903.87 -56470.9)
(546358 -1.13652e+06 -23435.3 -146187 42367.8 -28864.3)
(-285909 -395291 -49778 -42023.2 -5542.51 -17480.4)
(-276453 -415492 22997.3 -43550.8 1197.47 -28643.4)
(-151879 -871472 -12331.8 -73987 -1832.42 -8483.96)
(-144977 -903627 -1110.91 -72721.6 -3133.05 -19099.3)
(34686.7 -1.25459e+06 -3284.42 -119600 -5271.99 -6586.56)
(46408.4 -1.30602e+06 -7198.57 -131667 -16903.8 -10415)
(106595 -1.45669e+06 -4315.1 -105668 -1793.74 58885.9)
(135750 -1.51322e+06 17309.1 -131654 6011.72 53347.8)
(316297 -1.27273e+06 16428.7 -122815 5348.19 -27392.3)
(328510 -1.30941e+06 -10543.2 -138393 31108.2 -15947.4)
(7128.77 -343485 -37388.8 -40165.2 -6120.75 -17177.4)
(18794.8 -363255 11827.5 -43326.5 162.099 -27319.6)
(69111 -781357 -6775.9 -81079.2 -2780.12 -5050.49)
(80524.3 -811392 -5113.45 -83298.6 -2171.82 -15931.2)
(162615 -1.16953e+06 -812.579 -129932 -4863.9 -8972.06)
(177445 -1.21693e+06 -7239.89 -143903 -12832.7 -13481.4)
(163561 -1.42696e+06 -2840.58 -135002 -4646.87 32738.1)
(192757 -1.48348e+06 9347.31 -165010 -373.197 28941.2)
(198778 -1.39438e+06 7673.88 -126571 288.881 -6627.86)
(218582 -1.43679e+06 -1060.26 -148611 23491 -4537.07)
(294157 -286139 -25446.2 -38315.9 -6428.99 -14205)
(308817 -305133 1705.17 -41581.2 -786.497 -22786.9)
(311180 -677557 -1118.91 -84535.5 -4178.94 -1340.71)
(328067 -704939 -9810.68 -90157.6 -2269.38 -11328.8)
(343666 -1.06208e+06 2281.54 -139568 -5619.25 -6361.19)
(364190 -1.10434e+06 -8569.19 -156463 -8415.37 -11427.1)
(307363 -1.3526e+06 244.826 -162518 -6844.79 10323.9)
(338286 -1.40791e+06 -1322.27 -195802 -4925.06 7891.95)
(206038 -1.45178e+06 4040.67 -135419 -4727.75 6268.01)
(232564 -1.50249e+06 761.404 -165685 14007 4721.08)
(567006 -224616 -14336.7 -36272.6 -6368.31 -8751.69)
(585673 -242800 -5266.02 -37513.1 -1764.46 -14098.3)
(567546 -560498 4307.6 -84198.8 -6178.64 910.964)
(590599 -584205 -12849.5 -91883.9 -3550.63 -6313.99)
(575375 -928048 5968.6 -148247 -7705.78 -2297.14)
(603521 -964213 -10087.5 -168451 -6178.62 -6364.94)
(532176 -1.23375e+06 3645.14 -185627 -9184.33 -4975.66)
(568293 -1.28561e+06 -10555.6 -222000 -7871.34 -6676.81)
(353619 -1.44022e+06 4483.05 -152206 -8734.07 14732)
(386547 -1.49876e+06 -4814.91 -190154 6852.82 13059.9)
(814020 -159942 -4825.52 -35581.3 -6075.21 -5383.72)
(838940 -178339 -7254.92 -32773.9 -2809.49 -3100.54)
(823120 -430525 8636.25 -79700.2 -9116.01 -2402.91)
(853936 -449529 -11915 -87993 -6406.97 -2501.08)
(844644 -762499 9506.06 -155204 -11341.2 -1507.32)
(882778 -791726 -10864.2 -179047 -8523.22 -379.755)
(825681 -1.06746e+06 6171.44 -203042 -12804.9 -14434.3)
(871937 -1.11344e+06 -17246.4 -244274 -11673.1 -13279)
(637104 -1.3534e+06 6939.31 -172048 -12512.5 18454.2)
(680004 -1.41583e+06 -15129.1 -219772 47.3813 20030.1)
(1.01699e+06 -91795 2008.98 -40198.1 -5404.1 -18658.7)
(1.05318e+06 -112049 -4786.98 -32617.5 -4509.92 68.8338)
(1.05678e+06 -286806 10449.8 -73639.2 -13559.8 -25836.5)
(1.09927e+06 -301454 -6765.06 -82860.2 -12439 -9207.61)
(1.13217e+06 -562163 11172.5 -164607 -17010.5 -17688.4)
(1.18355e+06 -584878 -11059.1 -192870 -17984.7 -2019.23)
(1.17121e+06 -851175 6323.31 -218515 -18814 -30412.7)
(1.23232e+06 -890588 -22750.3 -267566 -20482.4 -18184.7)
(1.03999e+06 -1.18474e+06 7959.97 -194663 -17408.2 10784.9)
(1.09842e+06 -1.24648e+06 -27999.2 -255862 -10199.7 21725.5)
(1.14878e+06 -20693.3 3331.37 -61586.9 -4243.26 -75888.2)
(1.19981e+06 -44848.1 -3713.94 -49104.5 -6217.84 -24164.5)
(1.22586e+06 -130034 6137.27 -65445.3 -19210 -95295.4)
(1.28154e+06 -142620 -1989.99 -77847.7 -23760.2 -41409.1)
(1.39221e+06 -322361 6990.51 -177475 -24599.9 -72053.1)
(1.45689e+06 -340257 -14363.4 -211894 -36881 -21153.3)
(1.52938e+06 -575156 563.2 -234886 -27582.6 -74657.8)
(1.60649e+06 -609479 -32472.8 -295643 -39019.7 -31857.5)
(1.52964e+06 -918963 1538.61 -225656 -25039.8 -25518.1)
(1.60552e+06 -977704 -47273.1 -304309 -30223.1 9905.73)
(1.14689e+06 61748.4 -2030.1 -114644 -742.133 -192891)
(1.2243e+06 40122.5 -24183.1 -97543.1 -6928.41 -100266)
(1.27467e+06 49485.6 -5436.35 -56839.4 -26197.5 -250681)
(1.35092e+06 30080.9 -19934.8 -78277.6 -35720.5 -139976)
(1.57279e+06 -42193.3 -7188.21 -200461 -35944.7 -207311)
(1.64766e+06 -70908.5 -36885.5 -242121 -64983.9 -94932)
(1.83786e+06 -230025 -16869.4 -247682 -41771.5 -190130)
(1.92175e+06 -277806 -60957.4 -318890 -71421.7 -88375.5)
(2.03561e+06 -526828 -21417.3 -255771 -40342.6 -125342)
(2.11338e+06 -599469 -86841.3 -347936 -68606.8 -38550.3)
(921144 95893.6 -18552.7 -286465 -3265.11 -260755)
(976627 85789.3 -70297.8 -253948 6303.58 -87791.5)
(992743 224363 -20468.6 37851.1 -23377.7 -452845)
(1.05262e+06 231805 -84032 6142.49 -37300.6 -241411)
(1.43336e+06 255251 -27132 -128929 -42849.2 -396929)
(1.49528e+06 249813 -110711 -192155 -78590.7 -178606)
(1.85594e+06 193275 -41723 -132147 -52838.2 -384044)
(1.93368e+06 158054 -139122 -240804 -94913.5 -177900)
(2.30233e+06 16008.7 -57673.4 -123891 -58762.4 -321824)
(2.37489e+06 -57175.1 -175884 -272895 -105711 -134759)
(2.73058e+06 -187506 -77977 -23999.2 -57943.4 -255640)
(2.78392e+06 -299198 -214825 -206225 -94054 -101895)
(3.18786e+06 -366577 -101615 187800 -52689.6 -185846)
(3.19731e+06 -532215 -262151 -29268.1 -71245.7 -69673.9)
(3.60961e+06 -579545 -126135 521703 -40135 -82154)
(3.5893e+06 -816539 -302233 271769 -8312.02 -47740.6)
(4.16451e+06 -798500 -154833 902184 -14800.7 -28657.1)
(4.12961e+06 -1.16098e+06 -418453 670738 134996 -179270)
(4.72297e+06 -1.00777e+06 -175321 1.24068e+06 24853.4 150862)
(4.22069e+06 -1.29004e+06 -442311 1.2834e+06 369446 -39064.6)
(2.27677e+06 -766923 -35918.2 -180924 -39088.5 -94042.3)
(2.34135e+06 -865868 -106642 -287553 -48916.9 -26023.3)
(2.63151e+06 -921532 -51409 8080.36 -35350 -80857.2)
(2.6615e+06 -1.05808e+06 -150198 -111316 -36567.9 -25309.6)
(2.94828e+06 -1.11651e+06 -71158.5 343464 -26023.4 -33000.2)
(2.9246e+06 -1.30464e+06 -179225 215124 -7650.86 12962.7)
(3.26409e+06 -1.26558e+06 -86411.9 851050 -7359.22 3014.73)
(3.16422e+06 -1.54108e+06 -199772 751281 43882.8 10407)
(3.60606e+06 -1.34896e+06 -87038.1 1.51515e+06 20415 -11472.7)
(3.40386e+06 -1.76111e+06 -206556 1.53642e+06 151735 -126645)
(1.6549e+06 -1.15455e+06 -8980.35 -163568 -24630.9 -24384.5)
(1.72622e+06 -1.23453e+06 -51470.8 -251774 -8311.53 1862)
(1.95164e+06 -1.28151e+06 -16302.8 -11573.4 -24688.4 -36314.9)
(2.00621e+06 -1.38911e+06 -84536.5 -108036 -2565.86 -12434.8)
(2.19149e+06 -1.4733e+06 -28895.3 279576 -23346.4 -7202.85)
(2.20432e+06 -1.61571e+06 -111801 194133 21454.4 14077.2)
(2.40608e+06 -1.6282e+06 -40722.6 741062 -17856.4 19069.4)
(2.34079e+06 -1.78994e+06 -124071 701469 52508.3 34838.9)
(2.56038e+06 -1.68905e+06 -48897.1 1.36635e+06 -9933.2 50664.6)
(2.38264e+06 -1.83383e+06 -116659 1.40179e+06 73156.8 62225)
(1.07884e+06 -1.3854e+06 1764.95 -138126 -17534.9 -1377.48)
(1.1354e+06 -1.46349e+06 -23658.5 -204613 11197.8 5303.36)
(1.30037e+06 -1.47521e+06 -158.863 -10503.4 -19010.3 -16841.8)
(1.35294e+06 -1.57434e+06 -45675.6 -86552.9 14803.1 -8584.87)
(1.44794e+06 -1.63286e+06 -6905.93 246658 -18596.3 494.23)
(1.48016e+06 -1.76067e+06 -63387 171578 36340.1 12628.8)
(1.54579e+06 -1.73711e+06 -12315 671510 -14923.2 7379.91)
(1.53403e+06 -1.88289e+06 -72215.8 620836 69478.6 21333.6)
(1.56229e+06 -1.73164e+06 -17318.2 1.24255e+06 -9701.31 18185.1)
(1.48599e+06 -1.86293e+06 -70595.5 1.2337e+06 106871 35500.1)
(612354 -1.50605e+06 4647.4 -120317 -12806.9 933.877)
(651756 -1.58079e+06 -10717.4 -167654 17822 83.7741)
(739467 -1.57117e+06 4923.99 -16396.3 -15807.3 -7263.71)
(778720 -1.66336e+06 -22624.9 -70188.3 21741.7 -6562.51)
(794907 -1.69345e+06 1559.88 195765 -17577 3014.74)
(823618 -1.80864e+06 -32339 143933 40126.9 5841.26)
(785395 -1.75008e+06 -2057.01 560416 -16809.6 -1127.97)
(781847 -1.87904e+06 -36427 531358 66833 3693.25)
(692233 -1.67555e+06 -6348.63 1.04257e+06 -14291.3 -4255.93)
(642617 -1.7915e+06 -35278.7 1.04846e+06 95085.3 3154.71)
(270726 -1.53014e+06 4028.9 -101824 -9032.57 -440.084)
(296191 -1.59883e+06 -5437.26 -132709 17924.5 -4179.18)
(279394 -1.58791e+06 5096.83 -23693.9 -11609.1 5579.03)
(306826 -1.67319e+06 -7564.86 -59681.5 23465.3 2619.14)
(230264 -1.67565e+06 3492.39 147928 -13793.2 6009.09)
(254367 -1.777e+06 -10868.5 112943 40852.4 3845.18)
(109531 -1.69617e+06 1130.27 448660 -13251 -6017.84)
(110705 -1.80674e+06 -12333.3 432291 62658.8 -4984.08)
(-82918.9 -1.56866e+06 -2767.67 841779 -10558.6 -24148.6)
(-115291 -1.66713e+06 -11383.5 852168 86611.4 -18014.2)
(53091.4 -1.45995e+06 1019.72 -76366 -6726.39 384.23)
(67502.2 -1.52246e+06 -4495.48 -92451.3 15432.4 -3641.16)
(-80049.2 -1.53238e+06 3430.94 -28013 -7210.69 24414)
(-59374.6 -1.61232e+06 2993.56 -51082.6 21543.1 19194)
(-251739 -1.59021e+06 2435.95 110204 -10405.1 10427.9)
(-229848 -1.67858e+06 5683.71 87614 39191.6 4776.03)
(-495017 -1.59042e+06 1203.38 342354 -9615.38 -4562.25)
(-491175 -1.68255e+06 5124.97 338497 53092.4 -7787.6)
(-789265 -1.42703e+06 -1944.54 644968 -7124.55 -32956.7)
(-812311 -1.50809e+06 6367.19 665361 69277.7 -30734.6)
(-47715.5 -1.30296e+06 -3469.48 -52839.6 -5002.94 7535.92)
(-46894.1 -1.36036e+06 -3035.68 -49167.5 18368.2 4705.77)
(-339358 -1.40745e+06 1429.49 -43617.9 58.4135 52059.1)
(-327173 -1.48383e+06 12025.2 -48705.5 29347.7 44070.1)
(-656110 -1.43784e+06 -605.532 70507.6 -4781.34 19028.7)
(-639025 -1.5151e+06 18709 62674.9 48948.9 11484.9)
(-1.04351e+06 -1.43111e+06 -1362.56 238611 -3323.57 813.053)
(-1.04009e+06 -1.50545e+06 16353.9 247676 50869.4 -4855.35)
(-1.45758e+06 -1.25133e+06 -3587.36 460697 -1155.18 -39298.1)
(-1.47543e+06 -1.31557e+06 17398.5 488549 55619.3 -38098)
(-58135.8 -1.05867e+06 -8611.76 -15771.2 -7040.71 2726.27)
(-71692.7 -1.11455e+06 -1435.52 5944.02 13181.3 6947.36)
(-538738 -1.21109e+06 188.761 -14305.2 4514.53 45586.8)
(-532492 -1.28524e+06 21211.2 -8368.47 20936.3 42215.2)
(-1.02105e+06 -1.22769e+06 -3614.19 82208.1 -2339.38 -7892.28)
(-1.00785e+06 -1.29367e+06 32091.5 82147.3 43501.4 -9396.22)
(-1.57014e+06 -1.2256e+06 -4829.7 180969 738.031 -21426.2)
(-1.56787e+06 -1.28126e+06 26417.5 198364 35610.9 -24758.1)
(-2.1208e+06 -1.04752e+06 -5837.12 318153 3659.63 -61916.4)
(-2.13681e+06 -1.09514e+06 26048.5 351423 31565.4 -60055.6)
(38383.4 -763220 -11650.5 -49085.5 -13050.4 12566.5)
(-6872 -814534 12034.7 -1934.55 31730.3 35062.9)
(-608136 -945028 1213.19 -123060 7622.72 75003.8)
(-640332 -1.01766e+06 34076.6 -80275.3 69941.4 85143)
(-1.27757e+06 -938725 -5736.38 -29937.4 -519.762 2640.24)
(-1.29608e+06 -999351 41162.3 -4304.2 88532.5 18359.3)
(-2.02438e+06 -943613 -9646.55 46103.1 4924.39 -12488.7)
(-2.03989e+06 -987574 29768.7 79040.5 50524.4 -5301.63)
(-2.75066e+06 -788277 -9193.92 150664 9010.41 -57040.8)
(-2.76978e+06 -827986 27515.9 186436 14980.7 -50796.2)
(148813 -417763 -13200.6 68818.2 -15726.5 -120061)
(98004.4 -448550 30177 133223 -39144.3 -104728)
(-825986 -645886 2033.56 241760 20888.5 -221981)
(-880605 -702258 57449.8 327964 -63654 -228827)
(-1.66731e+06 -636748 -5196.43 274449 8512.01 -257492)
(-1.71123e+06 -689609 68540.1 341195 -15590.3 -253568)
(-2.569e+06 -641700 -13602.7 222192 9007.05 -172927)
(-2.59451e+06 -680358 51008.2 277923 -23171.9 -176678)
(-3.43731e+06 -524663 -10994.4 180295 9932.36 -99215.7)
(-3.45085e+06 -563018 47006.6 215930 -28640.9 -99684.6)
(760790 101810 -50634.7 -667016 -180112 112203)
(770534 103920 83931.6 -630228 114852 95487.5)
(-157042 -208158 -8914.17 -1.08516e+06 -104132 239969)
(-110653 -231953 80220.4 -1.05865e+06 -8013.99 191211)
(-1.32402e+06 -252713 -25507.8 -714255 -65436.2 60738.6)
(-1.302e+06 -282499 111151 -717403 16804.6 68290.5)
(-2.53408e+06 -283319 -47450.4 -486594 -19204.3 77226.6)
(-2.51135e+06 -300280 103067 -483845 -33366.2 78080.6)
(-3.74445e+06 -201089 -33817.3 -199647 22729.5 75818.6)
(-3.72517e+06 -220705 88515.7 -203705 -57418.3 81652.1)
(-4.51305e+06 10106.9 -13090.9 -16871.7 54193 -11368.9)
(-4.50631e+06 -9109.76 65616.4 -25047.9 -52553.2 7477.61)
(-4.57976e+06 152627 23250.3 6432.18 67532.7 -191451)
(-4.5782e+06 147432 -16280.7 -28818.3 -4429.67 -144504)
(-4.51687e+06 203178 70633.1 10942.5 65473 -79818.9)
(-4.51662e+06 209393 -93833 -11691.5 -23100.1 -57425.6)
(-4.3416e+06 234415 84699.6 96281 33666.2 -59532.8)
(-4.33306e+06 235138 -95674.5 75645.8 -268.645 -52261)
(-4.12373e+06 273899 22013.5 -56515.3 31213 -113120)
(-4.10417e+06 287973 -57095.6 -104506 37900.5 -95457)
(-4.14644e+06 -301988 -8545.94 164226 14618.6 -4359.06)
(-4.13528e+06 -339223 42162.7 168443 -13420.2 -3597.12)
(-4.41315e+06 -73535.9 -3488 130775 18247.2 37652.2)
(-4.41012e+06 -83788.7 7593.17 111197 34391 62665)
(-4.32304e+06 80887 3226.59 79266.8 11924 96346.3)
(-4.28907e+06 103464 -16220.7 48755.1 26816.5 91364.6)
(-3.91993e+06 89058.9 6165.23 -7056.89 -12003.3 -2932.79)
(-3.89639e+06 103933 -5080.33 -30952.5 26254.7 -6112.44)
(-3.76669e+06 184065 -14678.9 -67159.3 -5796.45 -55814.5)
(-3.72408e+06 200554 -14181.2 -119455 62229.2 -54516.8)
(-3.34544e+06 -480437 -9637.73 220983 13495.9 -62884.1)
(-3.34974e+06 -514267 17470.8 246171 -16497.2 -65907.1)
(-3.64834e+06 -126533 -6876.71 215220 15611 -26505.8)
(-3.63129e+06 -133170 -539.48 214680 -21314.6 -34958.6)
(-3.5967e+06 167826 -2322.83 132938 9005.95 2820.04)
(-3.57373e+06 191737 585.058 124368 -23284.7 -12224.4)
(-3.35079e+06 234873 4337.28 52170.7 -10302.4 -49395.1)
(-3.33047e+06 253308 7931.47 36908.5 2037.35 -56684.8)
(-3.25159e+06 297163 -12179.1 -45118.2 -8439.25 -60218.9)
(-3.20149e+06 318967 -9874.91 -100683 54673.4 -61907.7)
(-2.58996e+06 -693032 -7846.32 420043 6832.17 -81397.9)
(-2.61221e+06 -723187 15016.5 459730 22389.5 -81099.9)
(-2.83992e+06 -255300 -8117.73 410528 7130.97 -71226)
(-2.85905e+06 -255266 56.85 442102 19855.7 -73609.8)
(-2.84251e+06 133869 -6790.45 284014 2674.27 -34219.7)
(-2.85299e+06 161371 5000.29 302926 14173.3 -40436.7)
(-2.68043e+06 268439 -482.459 125419 -12152.7 -55924)
(-2.67783e+06 294572 10972.1 125985 23571 -60167.2)
(-2.62221e+06 376531 -11594.2 -32417.4 -12458.7 -56915.6)
(-2.57885e+06 407421 -6347.41 -80955.7 58919.4 -58461.3)
(-1.83074e+06 -877365 -6609.46 638707 1408.87 -66196.7)
(-1.86256e+06 -915039 10403.8 678399 54253.4 -62180.8)
(-2.03845e+06 -391990 -8502.78 660977 1278.08 -73744.5)
(-2.07463e+06 -390700 494.249 698063 53616.6 -68208.6)
(-2.06329e+06 66016.8 -8783.18 503810 -1567.19 -44194.8)
(-2.09137e+06 100828 8291.09 527864 44544.8 -40650.9)
(-1.95722e+06 269989 -4137.92 277197 -12605.3 -63226.9)
(-1.96655e+06 310674 15399.2 280121 43053.1 -61920.1)
(-1.93345e+06 428159 -10724.2 32980.7 -14416.1 -50799.2)
(-1.90049e+06 472783 1117.26 -9482.94 64144.4 -51621.5)
(-1.0783e+06 -1.05631e+06 -5723.19 904590 -3852.53 -54437.7)
(-1.12301e+06 -1.10417e+06 4311.27 943287 79658.8 -49039.7)
(-1.24653e+06 -550706 -8748.23 974962 -2569.9 -65391.5)
(-1.30079e+06 -551278 324.994 1.01601e+06 86466.4 -58051.9)
(-1.27304e+06 -48119.7 -9624.23 806325 -3843.53 -42370.7)
(-1.32004e+06 -7494.43 11955.2 834286 78876.2 -36114.4)
(-1.19215e+06 217445 -6658.91 517471 -11631 -64767)
(-1.21667e+06 274135 21206.5 521660 70624.2 -62678.3)
(-1.18586e+06 433793 -9027.17 171904 -15224.5 -39431.4)
(-1.1665e+06 497407 11215.9 132795 76096 -41536.8)
(-298706 -1.22548e+06 -6829.92 1.20122e+06 -6491.45 -38826.8)
(-358716 -1.28474e+06 -7853.97 1.23118e+06 106152 -28924.8)
(-430767 -724478 -10103.1 1.3485e+06 -3075.53 -46782.3)
(-501176 -728730 -4447.8 1.3784e+06 120530 -34867.7)
(-449424 -196831 -10168.9 1.20157e+06 -2184.66 -25652.4)
(-510257 -153688 13923 1.21357e+06 118328 -14940.7)
(-377432 120052 -7178.3 873588 -6422.61 -49945.9)
(-412424 187076 29191 860288 108546 -46999.9)
(-375516 391007 -4324.21 426862 -12615.2 -13235.8)
(-370385 469739 29068.1 377396 99577.4 -15797.8)
(555505 -1.3857e+06 -10115.5 1.50991e+06 -10469.8 -4718.98)
(467402 -1.45528e+06 -26148.4 1.54228e+06 118555 3472.06)
(466436 -920526 -13314.2 1.76238e+06 -5980.81 77.1837)
(365451 -924345 -15632.7 1.79403e+06 135879 6392.77)
(459310 -393805 -12383.5 1.68122e+06 -3838.17 30406.5)
(372557 -342258 9820.38 1.68795e+06 137242 31089)
(526050 -41792.2 -8918.21 1.35309e+06 -4918.68 14115.2)
(472745 41471.8 32432.8 1.32839e+06 128888 949.15)
(522255 277184 -1254.74 831567 -13084.2 62435.1)
(513186 375968 43628.4 768422 115064 43444.2)
(1.52226e+06 -1.52243e+06 -19626.5 1.83368e+06 -2972.97 30185.5)
(1.39278e+06 -1.595e+06 -53791 1.85296e+06 138934 49746.7)
(1.49726e+06 -1.12392e+06 -19166.6 2.22793e+06 4348.75 48527.1)
(1.35548e+06 -1.11824e+06 -33004.2 2.23107e+06 160320 67731.3)
(1.51378e+06 -629313 -13175.8 2.26772e+06 8465.89 96568.8)
(1.39767e+06 -568114 953.874 2.22105e+06 168565 109843)
(1.572e+06 -265897 -6683.3 1.99859e+06 12016.1 105921)
(1.5029e+06 -183494 34673.8 1.90658e+06 169042 96829.3)
(1.56395e+06 89406.8 8471.78 1.43947e+06 -2563.67 181201)
(1.52999e+06 174930 69337.3 1.33166e+06 144814 154843)
(2.67911e+06 -1.57948e+06 -46675.3 2.0455e+06 112.806 67289.3)
(2.39707e+06 -1.66075e+06 -91357.9 2.14823e+06 75364.6 67381.5)
(2.79385e+06 -1.3357e+06 -35485.7 2.59103e+06 12963.3 62963.3)
(2.4479e+06 -1.29577e+06 -63537 2.70064e+06 62563.9 61294.3)
(2.85061e+06 -1.00354e+06 -15400.6 2.8455e+06 20203.9 97885.5)
(2.52928e+06 -836004 -33962.2 2.86422e+06 36896.2 104344)
(2.84743e+06 -702779 -613.064 2.7464e+06 17087.3 168859)
(2.63453e+06 -492174 -16944.1 2.64448e+06 5420.06 152944)
(2.75737e+06 -323775 15118.5 2.26965e+06 -7916.7 325462)
(2.64349e+06 -145894 -11912.2 2.1211e+06 10678.8 269494)
(4.04083e+06 -1.4232e+06 -74732.6 2.2343e+06 63547.8 -141082)
(3.49925e+06 -1.70457e+06 -147151 2.45145e+06 313003 -241947)
(4.25227e+06 -1.38027e+06 -36677.4 2.83574e+06 100552 -60895.6)
(3.57483e+06 -1.43456e+06 -32816 3.1632e+06 442019 -286078)
(4.32231e+06 -1.32968e+06 15969.2 3.25985e+06 115271 41599.1)
(3.71986e+06 -1.10488e+06 112442 3.53979e+06 487036 -346838)
(4.27876e+06 -1.26497e+06 65835.1 3.51874e+06 110400 30057.3)
(3.89858e+06 -833678 234366 3.57696e+06 423732 -431633)
(4.24782e+06 -1.10157e+06 110192 3.51084e+06 84253 -138702)
(4.10146e+06 -600663 319484 3.31305e+06 315674 -546714)
(4.97262e+06 -1.21779e+06 -150039 1.57241e+06 53904.8 616645)
(4.26783e+06 -1.37479e+06 -333361 1.85776e+06 601888 95759.5)
(5.0565e+06 -1.51317e+06 -99915.1 1.94202e+06 64806.8 1.03686e+06)
(4.26798e+06 -1.42099e+06 -132282 2.3228e+06 740734 187971)
(4.93764e+06 -1.81213e+06 -45475.1 2.38202e+06 60309 1.31824e+06)
(4.2234e+06 -1.45371e+06 102155 2.65459e+06 755133 226153)
(4.63647e+06 -2.04452e+06 7111.53 2.8626e+06 43361.5 1.43782e+06)
(4.11507e+06 -1.49687e+06 318690 2.89491e+06 659627 218424)
(4.2087e+06 -2.16748e+06 54814.1 3.31819e+06 13820.9 1.40723e+06)
(3.94199e+06 -1.5418e+06 513809 3.0782e+06 491648 187179)
(3.73557e+06 -2.18682e+06 88843.4 3.65643e+06 -26405.3 1.27258e+06)
(3.71618e+06 -1.59439e+06 654613 3.20497e+06 301768 163758)
(3.18661e+06 -2.10966e+06 108509 3.93863e+06 -78159.4 1.02881e+06)
(3.39367e+06 -1.6599e+06 734075 3.31671e+06 87955.1 139618)
(2.68677e+06 -1.92853e+06 110429 4.09919e+06 -130272 652804)
(2.98539e+06 -1.71818e+06 707368 3.39311e+06 -120568 70894.3)
(2.27595e+06 -1.70344e+06 90161 4.09849e+06 -168532 196551)
(2.47769e+06 -1.75716e+06 556544 3.44278e+06 -291282 -57185.5)
(1.8587e+06 -1.41624e+06 45599.6 3.82743e+06 -168466 -51842.2)
(1.88075e+06 -1.75706e+06 319024 3.48145e+06 -357597 -213309)
(4.06352e+06 -1.0799e+06 113054 3.38922e+06 46803.3 -90375.3)
(4.18354e+06 -690860 323091 3.00305e+06 221376 -510472)
(3.90001e+06 -1.31864e+06 120698 3.34112e+06 -4815.04 -176134)
(4.14256e+06 -1.06323e+06 334469 2.75849e+06 102121 -429559)
(3.41655e+06 -1.3885e+06 95904.5 3.2096e+06 -46454.2 -120044)
(3.79581e+06 -1.41965e+06 301985 2.61079e+06 -11868.8 -359124)
(2.80728e+06 -1.4483e+06 68216.6 3.03302e+06 -79127.2 -59768.5)
(3.05723e+06 -1.64761e+06 202513 2.54524e+06 -116996 -153260)
(2.1537e+06 -1.45381e+06 40522.9 2.86218e+06 -89889.1 -31449.4)
(2.23263e+06 -1.68165e+06 112353 2.54029e+06 -163946 -16413.3)
(2.93232e+06 -404822 15544.8 2.00859e+06 -19203.3 303004)
(2.86686e+06 -244515 36729.2 1.82803e+06 -39888.4 252249)
(3.28134e+06 -872452 32862.3 1.97602e+06 -40315.4 133244)
(3.27031e+06 -710772 32998.1 1.72873e+06 -45745.4 125917)
(3.18192e+06 -1.16152e+06 27152.7 1.96067e+06 -48504.3 77842.4)
(3.25462e+06 -1.06099e+06 61396.4 1.66206e+06 -54344.7 95514.2)
(2.7989e+06 -1.42657e+06 22744.4 1.99799e+06 -54803.4 21293.3)
(2.91083e+06 -1.42786e+06 86832 1.70782e+06 -76817.2 47612.9)
(2.2294e+06 -1.51295e+06 13520.9 2.04709e+06 -51749.6 -4748.87)
(2.31167e+06 -1.60778e+06 86495.9 1.82875e+06 -97363.9 26265)
(1.90819e+06 -432.516 10481 1.15769e+06 -10327.8 163968)
(1.90319e+06 77479.1 141308 1.02687e+06 61586.2 141739)
(2.58562e+06 -458682 25528.4 1.10197e+06 -24358.2 45602.9)
(2.60069e+06 -403398 150180 948937 18690.7 43741.5)
(2.77299e+06 -790098 18806.6 1.12136e+06 -27030.4 29068.9)
(2.82611e+06 -772635 130960 938420 -7270.92 50819.2)
(2.63372e+06 -1.14479e+06 14504.9 1.22333e+06 -27832 -9561.83)
(2.708e+06 -1.18359e+06 111083 1.04248e+06 -36808.5 19318.8)
(2.21015e+06 -1.32717e+06 8103.87 1.37391e+06 -24397.4 -18086.8)
(2.26739e+06 -1.41863e+06 83135.7 1.23323e+06 -51731.7 12506.6)
(948522 182626 -1099.79 575582 -17690.5 68773.6)
(976495 276262 94352.7 476713 52738.9 53951.1)
(1.84378e+06 -207301 8703.13 507166 -22285.9 -15528.2)
(1.90237e+06 -147977 103224 378277 27671.7 -19398.7)
(2.26672e+06 -516917 7931.75 539918 -22144.6 -7178.51)
(2.34889e+06 -499848 92788.9 388162 12957.6 6770.78)
(2.35828e+06 -895578 5699.5 661619 -20394.1 -29579)
(2.44711e+06 -924537 83960.3 513138 -11965.1 -9156.23)
(2.09913e+06 -1.12866e+06 1207.66 866381 -15064.7 -27051.1)
(2.16934e+06 -1.20171e+06 64785.8 749773 -22912 -6715.86)
(110974 276841 -874.588 199846 -18709.9 17503.6)
(145228 355962 63330.2 122591 47859.5 16486)
(1.19756e+06 -32336.7 4402.58 97380.4 -19336.9 -58329.7)
(1.2552e+06 17298.6 81831.2 -2670.69 31632 -51818.7)
(1.80281e+06 -302003 6402.61 132864 -17787.3 -33676.2)