/*--------------------------------*- C++ -*----------------------------------*\
| =========                 |                                                 |
| \\      /  F ield         | OpenFOAM: The Open Source CFD Toolbox           |
|  \\    /   O peration     | Version:  v2012                                 |
|   \\  /    A nd           | Website:  www.openfoam.com                      |
|    \\/     M anipulation  |                                                 |
\*---------------------------------------------------------------------------*/
FoamFile
{
    version     2.0;
    format      ascii;
    class       volScalarField;
    location    "1";
    object      sigmaHyd;
}
// * * * * * * * * * * * * * * * * * * * * * * * * * * * * * * * * * * * * * //

dimensions      [1 -1 -2 0 0 0 0];


internalField   nonuniform List<scalar> 
980
(
-2.52396e+06
-2.30344e+06
-1.49741e+06
-1.40788e+06
13998.2
13091.9
1.52038e+06
1.42809e+06
2.53366e+06
2.30904e+06
-1.91061e+06
-1.78264e+06
-1.14246e+06
-1.08708e+06
10510.7
9956.93
1.15996e+06
1.10286e+06
1.92029e+06
1.78967e+06
-1.47395e+06
-1.41558e+06
-865419
-839816
7000.43
6840.06
877693
851453
1.48319e+06
1.42354e+06
-1.23103e+06
-1.21416e+06
-707474
-699638
3772.68
3863.66
715131
707359
1.23934e+06
1.22222e+06
-1.10505e+06
-1.10559e+06
-624790
-624627
638.725
818.454
628364
628480
1.11332e+06
1.11398e+06
-1.01337e+06
-1.01793e+06
-569087
-570509
-2672.43
-2514.22
568777
570400
1.02299e+06
1.02755e+06
-910977
-914143
-511942
-512536
-6247.91
-6177.17
507824
508407
923319
926209
-789086
-789952
-445385
-444850
-9814.58
-9852.87
437449
436774
804579
805165
-655410
-654846
-371471
-370310
-12406.1
-12472.6
358643
357665
667202
667360
-519064
-518183
-293292
-292087
-10884
-10978.2
277009
276819
495339
497884
-405216
-404851
-235809
-235069
-25561.1
-25945.9
186488
187351
318846
324801
-310461
-310824
-193732
-193711
-47577.9
-48414.4
103062
104094
203725
211078
-213321
-214277
-140985
-141571
-48979
-50204.4
48163.7
48455
117959
123769
-115137
-116216
-78116.5
-78932.7
-30500.1
-31891.2
19937.4
19147.9
55363.1
58056.5
-16738
-17283.8
-5672.92
-6235.15
7903.59
6686.72
20432.4
18895.9
21860
21811.1
80545.3
81482.8
75101.2
75526.7
65912.1
65433.5
51723.1
50125.3
25629.2
23866.6
173994
178020
161419
164134
141610
142902
113858
113206
72048.2
69817.9
257685
267688
247006
254480
229311
234450
202735
204795
161170
160087
319379
340211
319102
335735
316625
329552
307427
315524
285370
288093
337103
375513
355040
387426
380895
407947
406611
426329
426157
437038
279786
342165
322383
377554
388339
436871
466684
504828
551500
575631
124641
211629
192583
272449
302500
374841
446584
504991
618872
655745
816981
825267
1.06327e+06
1.03279e+06
1.34972e+06
1.27111e+06
1.67934e+06
1.54036e+06
2.03817e+06
1.82167e+06
667268
675924
852910
841624
1.08625e+06
1.0509e+06
1.37272e+06
1.30864e+06
1.70325e+06
1.60454e+06
488984
492104
634583
628579
821287
804177
1.0554e+06
1.0257e+06
1.3258e+06
1.28222e+06
313113
312032
424343
419266
565030
554790
741559
725400
941007
918398
164323
161395
238602
233990
331229
324464
448228
438966
576849
564744
56153.9
53101
87093
83254.6
128067
123718
184058
179337
244904
239621
-7630.11
-9530.06
-27882.7
-30421.1
-43702
-45819.2
-52408.7
-53488.6
-59084.5
-59228.1
-31006.4
-30452
-110306
-110603
-188858
-188288
-268029
-265757
-345395
-341660
-23726.9
-19600.4
-169152
-166215
-315577
-311698
-470199
-464756
-621520
-615146
621.456
8752.11
-218731
-211821
-434955
-427342
-663589
-655383
-885681
-878045
32523.4
42166.7
-268736
-260489
-550119
-541201
-839910
-831088
-1.11874e+06
-1.11153e+06
68659.1
78597.9
-334076
-326031
-659177
-650372
-981148
-972371
-1.28943e+06
-1.28241e+06
-1.51376e+06
-1.50796e+06
-1.58826e+06
-1.58384e+06
-1.52858e+06
-1.52858e+06
-1.43495e+06
-1.43656e+06
-1.43112e+06
-1.43471e+06
-1.32886e+06
-1.32348e+06
-1.41491e+06
-1.41209e+06
-1.38248e+06
-1.38298e+06
-1.30997e+06
-1.31115e+06
-1.29655e+06
-1.29935e+06
-1.06245e+06
-1.05649e+06
-1.15321e+06
-1.15052e+06
-1.15365e+06
-1.15386e+06
-1.116e+06
-1.11675e+06
-1.11898e+06
-1.12136e+06
-750438
-744527
-833538
-830186
-864240
-863500
-870312
-870672
-903849
-906090
-419409
-415449
-483741
-481593
-534560
-534720
-581084
-582783
-650424
-653863
-76049.1
-76253.4
-112321
-114276
-169695
-173955
-246480
-252562
-351128
-358413
287895
281180
290315
280786
242163
229458
148737
133621
12703.4
-2928.99
686899
671053
742964
721959
723646
697197
631085
600693
472086
441684
1.12871e+06
1.0985e+06
1.25791e+06
1.21809e+06
1.29269e+06
1.24285e+06
1.22551e+06
1.16877e+06
1.06154e+06
1.0055e+06
1.5973e+06
1.53756e+06
1.81595e+06
1.73661e+06
1.93133e+06
1.83261e+06
1.9209e+06
1.81065e+06
1.78416e+06
1.67803e+06
2.04468e+06
1.90292e+06
2.34237e+06
2.15065e+06
2.54125e+06
2.30427e+06
2.60919e+06
2.34797e+06
2.53999e+06
2.28927e+06
2.38722e+06
2.07378e+06
2.67846e+06
2.25958e+06
2.8793e+06
2.36805e+06
2.97897e+06
2.40947e+06
2.97804e+06
2.40246e+06
2.88819e+06
2.36164e+06
2.71802e+06
2.28333e+06
2.47959e+06
2.1498e+06
2.19033e+06
1.95443e+06
1.8781e+06
1.7163e+06
2.45412e+06
2.22537e+06
2.355e+06
2.15716e+06
2.1687e+06
2.01583e+06
1.92684e+06
1.8164e+06
1.66148e+06
1.5855e+06
1.74797e+06
1.64904e+06
1.79687e+06
1.70832e+06
1.74014e+06
1.67073e+06
1.60606e+06
1.55542e+06
1.42391e+06
1.3889e+06
1.07662e+06
1.02393e+06
1.2444e+06
1.19779e+06
1.30781e+06
1.27178e+06
1.2825e+06
1.2566e+06
1.18866e+06
1.17104e+06
530959
502387
778473
753750
933153
914608
996772
983697
979486
970798
109441
94768.2
412204
400236
633999
625709
765102
759497
808085
804523
-220760
-227601
126259
121731
400636
398462
583766
582551
673544
672942
-491223
-494383
-104532
-105277
215244
216278
441538
442533
569399
570252
-723684
-725582
-300853
-299976
61803.9
64300.4
327639
329502
488978
490353
-930436
-932405
-475599
-474373
-69059.8
-66183.8
236106
238017
428472
429811
-1.11783e+06
-1.12062e+06
-630900
-630225
-176327
-173858
168111
169589
388073
389098
-1.2906e+06
-1.29475e+06
-751047
-751164
-246290
-244362
131479
132467
371024
371754
1.57518e+06
1.47005e+06
1.30124e+06
1.24006e+06
1.05908e+06
1.03271e+06
844052
846045
652185
677597
1.4022e+06
1.35363e+06
1.16823e+06
1.14221e+06
967484
960445
799524
808573
659762
682204
1.22633e+06
1.20404e+06
1.03928e+06
1.02793e+06
877170
875444
743538
750198
634604
648125
1.05709e+06
1.046e+06
917665
912087
790438
789697
683452
686979
595085
602076
907229
901779
810633
807790
713540
712956
627992
629521
555169
558544
783992
781747
722679
721411
650187
649784
581697
582291
521261
522919
687329
686934
653943
653637
600741
600572
545370
545617
494608
495518
613551
614096
602105
602351
563518
563578
517685
517857
473973
474577
558496
559420
564229
564768
536105
536361
496513
496717
457404
457880
519428
520401
537952
538620
516259
516656
479791
480039
443189
443582
495613
496467
521985
522651
502551
502971
466211
466408
430298
430550
487605
488348
515876
516511
494601
494974
455784
455866
418889
418996
485709
528785
331030
387570
200133
265329
99577.2
169416
38888.8
113858
545603
578355
429871
471440
319018
366427
223182
273838
159736
215194
552456
571789
467538
493019
376447
406315
290243
322748
228224
264771
533199
543483
470379
484848
395500
413259
318875
338716
259724
282578
506535
511860
458454
466596
396039
406656
327821
340057
272119
286464
481646
484500
443138
447876
390193
396821
329117
337034
277016
286391
461362
463014
429213
432116
383552
387909
328521
333931
279900
286326
445422
446479
417862
419727
377955
380928
328073
331911
282661
287208
432519
433262
408709
409953
373527
375592
328125
330889
285667
288915
421378
421933
400990
401843
369884
371322
328527
330511
288912
291209
411234
411624
394087
394674
366677
367670
329119
330520
292428
294011
401823
402051
387808
388196
363865
364530
329909
330861
296225
297284
308039
308322
312833
313003
319580
319621
327030
326955
332578
332411
312919
313168
316439
316591
321458
321496
326922
326859
330930
330785
319396
319620
321414
321557
324074
324115
326780
326727
328626
328499
326802
326977
327140
327258
327063
327104
326417
326385
325453
325365
334676
334792
333275
333364
330251
330297
325819
325825
321490
321462
343007
343068
339864
339933
333743
333806
325155
325213
316972
317020
352112
352132
347211
347278
337832
337930
324732
324859
312239
312375
362509
362504
355749
355833
342899
343053
324932
325146
307692
307933
374744
374761
365883
366014
349317
349562
326097
326443
303643
304034
389409
389514
377902
378132
357487
357892
328476
329051
299984
300632
-57458
48070.4
26856.6
125201
165103
253859
359620
429946
603746
643618
888800
883938
1.20469e+06
1.13932e+06
1.55349e+06
1.4097e+06
1.93369e+06
1.69176e+06
2.297e+06
1.94472e+06
2.56488e+06
2.11449e+06
2.70323e+06
2.19113e+06
2.74774e+06
2.20956e+06
2.75395e+06
2.20944e+06
2.75245e+06
2.21068e+06
2.74753e+06
2.21439e+06
2.71638e+06
2.20459e+06
2.61078e+06
2.14751e+06
2.3896e+06
2.00809e+06
2.06943e+06
1.78716e+06
1.72277e+06
1.53324e+06
1.4064e+06
1.29065e+06
1.12391e+06
1.06325e+06
861790
843147
616220
631011
394025
435584
207479
269155
63967.9
139099
-34446.3
48635.9
-92361.8
-3134.98
)
;

boundaryField
{
    symmz
    {
        type            symmetry;
    }
    tractionFree
    {
        type            zeroGradient;
    }
    fixed
    {
        type            zeroGradient;
    }
    front
    {
        type            zeroGradient;
    }
    symmx
    {
        type            symmetry;
    }
    loading
    {
        type            zeroGradient;
    }
}


// ************************************************************************* //
