/*--------------------------------*- C++ -*----------------------------------*\
| =========                 |                                                 |
| \\      /  F ield         | OpenFOAM: The Open Source CFD Toolbox           |
|  \\    /   O peration     | Version:  v2012                                 |
|   \\  /    A nd           | Website:  www.openfoam.com                      |
|    \\/     M anipulation  |                                                 |
\*---------------------------------------------------------------------------*/
FoamFile
{
    version     2.0;
    format      ascii;
    class       volSymmTensorField;
    location    "7";
    object      epsilon;
}
// * * * * * * * * * * * * * * * * * * * * * * * * * * * * * * * * * * * * * //

dimensions      [0 0 0 0 0 0 0];


internalField   nonuniform List<symmTensor> 
8000
(
(0.00647822 -0.000222567 1.70762e-18 -0.0041532 -7.80626e-18 0)
(0.00615266 -0.000409085 7.61652e-18 -0.00396592 -1.0842e-17 0)
(0.0061624 -0.000158536 5.52943e-18 -0.00370462 -1.04083e-17 0)
(0.0058026 -0.000385069 9.94755e-18 -0.00353558 -1.69136e-17 0)
(0.00581363 -0.000101527 4.01155e-18 -0.00324625 -1.17094e-17 0)
(0.00544056 -0.00035538 1.66696e-17 -0.00310546 -1.60462e-17 0)
(0.00545227 -5.44353e-05 1.18449e-17 -0.00279809 -1.0842e-17 0)
(0.00507271 -0.000327302 8.29415e-18 -0.00267642 -4.33681e-18 0)
(0.00508489 -1.41584e-05 -3.71339e-18 -0.00236642 2.60209e-18 0)
(0.00470099 -0.000300602 1.70762e-18 -0.00225194 1.12757e-17 0)
(0.00471358 2.30278e-05 5.23128e-18 -0.00195383 6.93889e-18 0)
(0.00432468 -0.000274275 1.06252e-17 -0.00183529 1.73472e-18 0)
(0.00433772 6.04219e-05 4.87891e-18 -0.00156214 -1.04083e-17 0)
(0.00393838 -0.00024902 7.39968e-18 -0.00142681 -1.04083e-17 0)
(0.00395206 0.000101543 2.1684e-18 -0.00119028 -9.1073e-18 0)
(0.00358197 -0.000206048 2.98156e-18 -0.0011122 -6.50521e-18 0)
(0.00359491 0.000124804 6.50521e-19 -0.000975885 -7.37257e-18 0)
(0.00332122 -0.000126623 1.35525e-18 -0.000985889 -5.63785e-18 0)
(0.00333099 0.000123244 5.14996e-19 -0.00086441 -6.07153e-18 0)
(0.00311465 -8.33945e-05 1.02999e-18 -0.000887132 -4.77049e-18 0)
(0.00312253 0.000118094 4.33681e-19 -0.000787469 -3.90313e-18 0)
(0.00294456 -5.64936e-05 4.87891e-19 -0.000811668 -4.33681e-18 0)
(0.00295117 0.000112475 0 -0.000731952 -3.03577e-18 0)
(0.00280075 -3.81639e-05 -2.71051e-20 -0.000754099 -2.60209e-18 0)
(0.00280644 0.000107348 -5.42101e-20 -0.000690931 -3.90313e-18 0)
(0.00267672 -2.48531e-05 -2.71051e-20 -0.000710118 -2.60209e-18 0)
(0.00268172 0.000102949 5.42101e-20 -0.000660315 -1.73472e-18 0)
(0.00256804 -1.47345e-05 1.0842e-19 -0.000676522 -2.60209e-18 0)
(0.0025725 9.9279e-05 -1.35525e-20 -0.00063748 -4.33681e-19 0)
(0.00247153 -6.78195e-06 -2.71051e-20 -0.000650945 -2.1684e-18 0)
(0.00247556 9.62687e-05 -4.06576e-20 -0.000620637 -8.67362e-19 0)
(0.00238481 -3.75623e-07 -1.6263e-19 -0.000631608 -4.33681e-19 0)
(0.0023885 9.38476e-05 -8.13152e-20 -0.000608502 -1.30104e-18 0)
(0.00230602 4.88046e-06 -2.57498e-19 -0.000617138 -2.1684e-18 0)
(0.00230943 9.1966e-05 -1.0842e-19 -0.000600113 -8.67362e-19 0)
(0.00223362 9.24117e-06 -2.03288e-19 -0.000606437 -1.30104e-18 0)
(0.00223682 9.0606e-05 -9.48677e-20 -0.000594719 -8.67362e-19 0)
(0.00216626 1.28333e-05 -1.35525e-19 -0.000598573 -4.33681e-19 0)
(0.00216928 8.97897e-05 -5.42101e-20 -0.000591676 -8.67362e-19 0)
(0.00210248 1.55642e-05 -4.06576e-20 -0.000592664 -4.33681e-19 0)
(0.00636158 -0.00051854 1.45283e-17 -0.00395765 -1.51788e-17 0)
(0.00596534 -0.000734394 2.85687e-17 -0.0037852 -2.29851e-17 0)
(0.00599425 -0.00048177 2.46656e-17 -0.00352828 -2.08167e-17 0)
(0.00560497 -0.000690922 1.8052e-17 -0.00332822 -2.64545e-17 0)
(0.00563584 -0.000422556 1.53957e-17 -0.00310049 -2.60209e-17 0)
(0.005239 -0.000639186 8.89046e-18 -0.00288284 -1.60462e-17 0)
(0.00527186 -0.000354428 6.93889e-18 -0.00267459 -3.46945e-18 0)
(0.00486435 -0.000582789 -1.08962e-17 -0.00244392 6.50521e-18 0)
(0.00489911 -0.000282434 -3.36103e-18 -0.00225367 1.0842e-17 0)
(0.00448232 -0.000523108 3.79471e-18 -0.00201369 3.03577e-18 0)
(0.00451862 -0.000210184 1.39862e-17 -0.00184063 4.33681e-19 0)
(0.0040966 -0.000462232 1.44199e-17 -0.00159731 -8.67362e-18 0)
(0.00413359 -0.000143836 1.27936e-17 -0.00143537 -5.63785e-18 0)
(0.00372347 -0.00040023 1.07878e-17 -0.00120954 -2.1684e-18 0)
(0.0037643 -5.15804e-05 5.74627e-18 -0.00112462 -3.90313e-18 0)
(0.00349149 -0.000263899 4.39102e-18 -0.00109309 -4.33681e-18 0)
(0.00352715 4.1242e-05 2.00577e-18 -0.000999398 -2.60209e-18 0)
(0.00328193 -0.000162026 1.78893e-18 -0.000998744 -2.60209e-18 0)
(0.00331163 9.2654e-05 1.46367e-18 -0.00090127 -3.90313e-18 0)
(0.0030999 -9.11489e-05 9.21572e-19 -0.00091736 -2.60209e-18 0)
(0.00312487 0.00012324 5.96311e-19 -0.000826069 -4.77049e-18 0)
(0.00294236 -4.08549e-05 5.42101e-20 -0.000849771 4.33681e-19 0)
(0.0029637 0.000142393 2.71051e-20 -0.000768539 -3.03577e-18 0)
(0.00280521 -4.11219e-06 0 -0.000794782 -2.1684e-18 0)
(0.00282372 0.000154878 -8.13152e-20 -0.000724468 0 0)
(0.00268475 2.34815e-05 -8.13152e-20 -0.00075058 -4.33681e-19 0)
(0.00270103 0.000163291 -2.71051e-20 -0.000690716 -3.46945e-18 0)
(0.00257795 4.46933e-05 -1.6263e-19 -0.000715345 -1.30104e-18 0)
(0.00259245 0.000169114 -8.13152e-20 -0.000664953 0 0)
(0.00248237 6.12991e-05 -8.13152e-20 -0.00068746 -4.33681e-19 0)
(0.00249543 0.000173224 -1.35525e-19 -0.00064542 -8.67362e-19 0)
(0.00239602 7.4464e-05 -5.42101e-20 -0.000665549 -8.67362e-19 0)
(0.00240789 0.000176144 -2.43945e-19 -0.000630753 -1.30104e-18 0)
(0.00231727 8.49615e-05 -1.0842e-19 -0.000648463 4.33681e-19 0)
(0.00232816 0.000178164 -1.89735e-19 -0.000619857 -8.67362e-19 0)
(0.0022448 9.33015e-05 -8.13152e-20 -0.000635254 -1.30104e-18 0)
(0.00225487 0.000179367 -8.13152e-20 -0.000611796 -2.1684e-18 0)
(0.00217761 9.98098e-05 -5.42101e-20 -0.000625172 1.30104e-18 0)
(0.00218694 0.000179517 -2.71051e-20 -0.000605678 -1.30104e-18 0)
(0.00211523 0.000104717 0 -0.000617754 1.30104e-18 0)
(0.00617878 -0.000849358 3.83265e-17 -0.00376843 -3.85976e-17 0)
(0.00571954 -0.00105123 7.10152e-17 -0.003525 -6.245e-17 0)
(0.00577157 -0.000776761 5.29091e-17 -0.00331574 -4.77049e-17 0)
(0.00532452 -0.000965123 5.88722e-17 -0.00303441 -4.81386e-17 0)
(0.00537709 -0.000690437 1.61546e-17 -0.00287563 -1.69136e-17 0)
(0.00493055 -0.000875529 -1.6263e-18 -0.00256244 -6.93889e-18 0)
(0.00498475 -0.000594475 -2.54788e-17 -0.00244283 2.1684e-18 0)
(0.00453683 -0.000782315 -2.34188e-17 -0.00210989 -1.38778e-17 0)
(0.00459291 -0.000493126 -1.19262e-18 -0.00201909 -1.34441e-17 0)
(0.00414657 -0.000686958 8.99888e-18 -0.00168091 -2.1684e-17 0)
(0.00420411 -0.000391344 1.37152e-17 -0.00160913 -8.23994e-18 0)
(0.00376443 -0.000592268 1.1601e-17 -0.0012797 -7.80626e-18 0)
(0.003824 -0.000287345 1.02999e-17 -0.00122794 -5.20417e-18 0)
(0.00356653 -0.000448406 4.71628e-18 -0.00114752 -4.33681e-18 0)
(0.00362784 -0.000135513 4.39102e-18 -0.00111415 -3.90313e-18 0)
(0.00339 -0.000301982 1.73472e-18 -0.00108115 -4.33681e-18 0)
(0.00344425 -2.36333e-05 1.40946e-18 -0.00102153 -1.30104e-18 0)
(0.00322258 -0.000189361 8.13152e-19 -0.00101287 -1.73472e-18 0)
(0.00327006 5.51831e-05 7.04731e-19 -0.000941447 -1.73472e-18 0)
(0.00306876 -0.000103094 1.6263e-19 -0.000948779 -1.30104e-18 0)
(0.00311022 0.000111035 1.6263e-19 -0.000874718 -1.30104e-18 0)
(0.00292961 -3.67392e-05 1.0842e-19 -0.00089168 0 0)
(0.00296596 0.000151281 1.0842e-19 -0.000820237 0 0)
(0.00280444 1.47967e-05 -4.33681e-19 -0.000842402 1.73472e-18 0)
(0.0028365 0.000180816 -2.1684e-19 -0.000776285 -4.33681e-19 0)
(0.00269185 5.5282e-05 -2.1684e-19 -0.000800741 0 0)
(0.00272034 0.000202851 -1.0842e-19 -0.000741122 -1.30104e-18 0)
(0.00259026 8.74299e-05 -5.42101e-20 -0.000766017 -4.33681e-19 0)
(0.00261577 0.000219514 -1.6263e-19 -0.00071319 -1.73472e-18 0)
(0.00249817 0.000113182 -1.6263e-19 -0.00073738 4.33681e-19 0)
(0.00252117 0.000232224 -2.1684e-19 -0.000691156 8.67362e-19 0)
(0.00241421 0.000133931 0 -0.000713964 8.67362e-19 0)
(0.00243509 0.000241937 -5.42101e-20 -0.000673902 8.67362e-19 0)
(0.00233717 0.000150681 -5.42101e-20 -0.000694958 -1.30104e-18 0)
(0.00235626 0.000249297 -5.42101e-20 -0.000660498 -4.33681e-19 0)
(0.00226602 0.000164165 -2.1684e-19 -0.000679642 4.33681e-19 0)
(0.00228358 0.000254753 -1.0842e-19 -0.000650217 4.33681e-19 0)
(0.00219991 0.000174938 -5.42101e-20 -0.000667394 -4.33681e-19 0)
(0.00221617 0.000258731 -5.42101e-20 -0.000642622 4.33681e-19 0)
(0.00213797 0.000183456 -2.71051e-19 -0.000657636 4.33681e-19 0)
(0.00587909 -0.00116101 8.74951e-17 -0.00350125 -7.97973e-17 0)
(0.00536285 -0.00132147 5.61617e-17 -0.00315172 -5.0307e-17 0)
(0.00544006 -0.00103327 4.6187e-17 -0.0030199 -3.25261e-17 0)
(0.00493593 -0.00118323 3.64292e-17 -0.00263808 -1.73472e-18 0)
(0.00501187 -0.000903106 3.11166e-17 -0.00255705 -1.04083e-17 0)
(0.00451986 -0.00104728 2.61293e-17 -0.00215461 7.37257e-18 0)
(0.00459561 -0.000770613 -6.72205e-18 -0.00211348 -5.20417e-18 0)
(0.0041184 -0.000913545 1.27936e-17 -0.00170683 3.03577e-18 0)
(0.00419431 -0.000638204 5.52943e-18 -0.00169312 -1.51788e-17 0)
(0.00373415 -0.000783746 4.33681e-18 -0.00129739 -4.33681e-19 0)
(0.00381016 -0.000509169 6.39679e-18 -0.00130001 -9.54098e-18 0)
(0.0035503 -0.000628948 9.75782e-19 -0.00116258 -2.60209e-18 0)
(0.00362904 -0.000345035 1.84314e-18 -0.00117287 -3.90313e-18 0)
(0.00342195 -0.000466875 2.1684e-19 -0.00112519 -1.30104e-18 0)
(0.00349682 -0.000195047 5.42101e-19 -0.00110796 -8.67362e-19 0)
(0.00328691 -0.000328412 -3.25261e-19 -0.00107849 3.46945e-18 0)
(0.0033559 -7.64855e-05 -1.0842e-19 -0.00104145 1.73472e-18 0)
(0.00315318 -0.000213439 -4.33681e-19 -0.00102814 3.90313e-18 0)
(0.0032157 1.59825e-05 0 -0.000979025 1.73472e-18 0)
(0.00302534 -0.000119237 0 -0.000978349 4.33681e-19 0)
(0.00308156 8.78168e-05 1.0842e-19 -0.000923293 8.67362e-19 0)
(0.00290565 -4.24384e-05 0 -0.000931701 2.1684e-18 0)
(0.00295608 0.000143774 -1.0842e-19 -0.000875057 4.33681e-19 0)
(0.00279486 2.017e-05 -2.1684e-19 -0.000889533 8.67362e-19 0)
(0.00284012 0.000187609 0 -0.000834142 -1.73472e-18 0)
(0.00269287 7.13377e-05 -3.25261e-19 -0.000852334 4.33681e-19 0)
(0.0027336 0.000222163 -1.0842e-19 -0.000799918 8.67362e-19 0)
(0.00259914 0.000113292 -1.0842e-19 -0.000820077 -4.33681e-19 0)
(0.00263591 0.000249542 -2.71051e-19 -0.000771588 8.67362e-19 0)
(0.00251292 0.000147792 1.0842e-19 -0.000792451 4.33681e-19 0)
(0.00254624 0.000271306 -1.6263e-19 -0.000748332 8.67362e-19 0)
(0.00243339 0.000176208 5.42101e-20 -0.000769009 8.67362e-19 0)
(0.00246372 0.000288607 -3.25261e-19 -0.00072938 0 0)
(0.00235975 0.000199605 -1.6263e-19 -0.000749249 4.33681e-19 0)
(0.00238749 0.000302308 0 -0.000714045 4.33681e-19 0)
(0.00229126 0.000218816 -2.71051e-19 -0.00073267 -1.73472e-18 0)
(0.00231674 0.000313071 -1.6263e-19 -0.000701728 1.73472e-18 0)
(0.00222718 0.000234493 -5.42101e-20 -0.000718782 4.33681e-19 0)
(0.00225071 0.000321394 -3.25261e-19 -0.000691867 8.67362e-19 0)
(0.00216686 0.000247145 -1.0842e-19 -0.000707128 0 0)
(0.00544997 -0.00141068 2.41777e-17 -0.00312565 -1.17094e-17 0)
(0.00489031 -0.00151257 -1.01915e-17 -0.00267294 1.73472e-17 0)
(0.00499121 -0.00122586 1.48536e-17 -0.00262597 5.63785e-18 0)
(0.00445195 -0.00132234 2.93819e-17 -0.00216143 6.50521e-18 0)
(0.0045497 -0.0010481 4.64039e-17 -0.0021551 1.38778e-17 0)
(0.00403711 -0.00114204 1.61546e-17 -0.00169494 1.82146e-17 0)
(0.00413224 -0.000877774 1.51788e-17 -0.0017185 1.95156e-17 0)
(0.00364887 -0.000972744 1.0842e-19 -0.00127693 1.73472e-17 0)
(0.00374173 -0.000716487 -3.03577e-18 -0.00131888 1.21431e-17 0)
(0.00348119 -0.000802968 -3.90313e-18 -0.00115311 1.25767e-17 0)
(0.00357319 -0.000548566 -1.84314e-18 -0.00118861 5.63785e-18 0)
(0.00339123 -0.000637819 -2.1684e-18 -0.00113575 8.67362e-18 0)
(0.00348163 -0.000386182 -9.75782e-19 -0.00115225 4.77049e-18 0)
(0.00329064 -0.000487507 -1.0842e-18 -0.00110918 6.50521e-18 0)
(0.00337734 -0.00024458 -2.1684e-19 -0.00110732 2.60209e-18 0)
(0.00318433 -0.000354358 -6.50521e-19 -0.00107609 4.77049e-18 0)
(0.00326577 -0.000124823 -8.67362e-19 -0.00105904 2.1684e-18 0)
(0.00307687 -0.00023889 -8.67362e-19 -0.00103948 5.63785e-18 0)
(0.00315226 -2.52798e-05 -2.1684e-19 -0.0010113 2.1684e-18 0)
(0.00297155 -0.000140131 0 -0.00100196 3.46945e-18 0)
(0.00304072 5.66983e-05 1.0842e-19 -0.000966493 1.30104e-18 0)
(0.00287047 -5.63594e-05 0 -0.000965448 2.1684e-18 0)
(0.0029336 0.000123939 -3.25261e-19 -0.000925885 3.03577e-18 0)
(0.00277475 1.43833e-05 0 -0.000931174 4.33681e-19 0)
(0.00283224 0.000179033 -4.33681e-19 -0.000889945 8.67362e-19 0)
(0.00268484 7.39984e-05 -1.0842e-19 -0.000899809 1.30104e-18 0)
(0.00273716 0.000224187 -1.0842e-19 -0.000858667 2.1684e-18 0)
(0.00260074 0.00012419 -2.1684e-19 -0.000871629 8.67362e-19 0)
(0.00264841 0.000261209 0 -0.000831777 1.73472e-18 0)
(0.00252222 0.000166423 -5.42101e-19 -0.000846639 2.1684e-18 0)
(0.00256571 0.000291553 -2.1684e-19 -0.000808866 3.03577e-18 0)
(0.00244888 0.000201921 -5.42101e-19 -0.00082468 1.73472e-18 0)
(0.00248864 0.000316377 0 -0.000789472 0 0)
(0.00238025 0.000231698 -2.1684e-19 -0.000805498 -1.30104e-18 0)
(0.00241669 0.000336598 0 -0.000773126 4.33681e-19 0)
(0.00231584 0.000256582 2.1684e-19 -0.000788788 -8.67362e-19 0)
(0.00234932 0.000352944 -3.25261e-19 -0.000759367 0 0)
(0.00225513 0.000277244 1.0842e-19 -0.000774227 4.33681e-19 0)
(0.00228598 0.000365984 -2.1684e-19 -0.000747761 0 0)
(0.00219766 0.000294228 0 -0.000761491 -8.67362e-19 0)
(0.00491113 -0.00157023 3.05745e-17 -0.00265083 -6.93889e-18 0)
(0.00433451 -0.00160705 1.21431e-17 -0.00212989 -4.33681e-19 0)
(0.00445486 -0.00133568 -1.32273e-17 -0.00215623 2.34188e-17 0)
(0.00391353 -0.00137461 -1.40946e-17 -0.00165279 2.90566e-17 0)
(0.00402838 -0.00111848 1.51788e-18 -0.00170396 1.60462e-17 0)
(0.00352776 -0.00116258 -6.07153e-18 -0.00123383 2.1684e-17 0)
(0.00363702 -0.000920556 -6.28837e-18 -0.00129722 2.08167e-17 0)
(0.00338117 -0.00097949 -1.14925e-17 -0.00112476 2.25514e-17 0)
(0.00348693 -0.000744173 -6.72205e-18 -0.00117673 1.86483e-17 0)
(0.00331729 -0.000812232 -5.96311e-18 -0.00112007 1.56125e-17 0)
(0.00342167 -0.000578775 -3.25261e-18 -0.00116045 1.34441e-17 0)
(0.00324432 -0.000655596 -2.1684e-18 -0.00110857 1.17094e-17 0)
(0.00334605 -0.000426729 -1.0842e-18 -0.00113555 8.23994e-18 0)
(0.00316439 -0.000511581 -1.40946e-18 -0.00109116 8.23994e-18 0)
(0.00326208 -0.000290434 -1.19262e-18 -0.00110459 6.93889e-18 0)
(0.0030801 -0.000381557 -1.84314e-18 -0.00106918 6.93889e-18 0)
(0.00317262 -0.00017084 -1.40946e-18 -0.00107034 6.07153e-18 0)
(0.00299403 -0.000265986 1.0842e-19 -0.0010442 5.20417e-18 0)
(0.00308069 -6.75047e-05 -6.50521e-19 -0.00103517 3.46945e-18 0)
(0.00290832 -0.000164487 -1.0842e-19 -0.00101772 3.90313e-18 0)
(0.00298884 2.08555e-05 -7.58942e-19 -0.00100085 3.46945e-18 0)
(0.00282456 -7.61113e-05 -5.42101e-19 -0.000991025 1.73472e-18 0)
(0.00289895 9.5903e-05 -3.25261e-19 -0.000968518 1.30104e-18 0)
(0.00274376 3.77339e-07 -4.33681e-19 -0.000965039 1.73472e-18 0)
(0.00281226 0.00015937 -2.1684e-19 -0.000938814 1.73472e-18 0)
(0.00266652 6.63039e-05 0 -0.000940391 8.67362e-19 0)
(0.00272948 0.000212886 -1.0842e-19 -0.000912007 1.73472e-18 0)
(0.00259311 0.000122955 -4.33681e-19 -0.000917447 2.1684e-18 0)
(0.00265092 0.000257904 -5.42101e-19 -0.000888124 2.60209e-18 0)
(0.00252356 0.000171511 2.1684e-19 -0.000896372 -4.33681e-19 0)
(0.00257664 0.000295677 -1.0842e-19 -0.000867033 4.33681e-19 0)
(0.00245775 0.000213021 -2.1684e-19 -0.000877187 8.67362e-19 0)
(0.0025065 0.00032726 2.1684e-19 -0.00084851 -8.67362e-19 0)
(0.00239547 0.000248392 -1.0842e-19 -0.000859816 1.30104e-18 0)
(0.00244028 0.000353534 2.1684e-19 -0.000832282 8.67362e-19 0)
(0.00233643 0.000278398 1.0842e-19 -0.00084412 -4.33681e-19 0)
(0.00237766 0.000375223 -2.1684e-19 -0.000818054 0 0)
(0.00228033 0.000303689 0 -0.000829921 -4.33681e-19 0)
(0.00231831 0.00039292 0 -0.000805526 0 0)
(0.00222686 0.000324809 -2.1684e-19 -0.000817024 0 0)
(0.00430954 -0.00163143 2.21177e-17 -0.00211674 -2.51535e-17 0)
(0.0037524 -0.00161041 -1.43115e-17 -0.0015853 -4.33681e-18 0)
(0.00388557 -0.00136448 -2.38524e-17 -0.00165604 2.60209e-17 0)
(0.00338263 -0.00135754 -2.25514e-17 -0.00117877 1.73472e-17 0)
(0.00350625 -0.00112975 -1.92988e-17 -0.00124835 2.47198e-17 0)
(0.00325521 -0.00116473 -2.34188e-17 -0.00107541 2.21177e-17 0)
(0.00337608 -0.0009419 -1.56125e-17 -0.00114252 2.25514e-17 0)
(0.00321 -0.00099345 -1.34441e-17 -0.00107927 1.69136e-17 0)
(0.00332921 -0.000772915 -7.58942e-18 -0.00113964 1.56125e-17 0)
(0.00315808 -0.000830632 -6.50521e-18 -0.00107909 1.12757e-17 0)
(0.00327457 -0.000614108 -3.90313e-18 -0.00113023 9.54098e-18 0)
(0.00310038 -0.000678161 -3.90313e-18 -0.00107488 6.93889e-18 0)
(0.00321313 -0.000467369 -3.03577e-18 -0.0011152 6.93889e-18 0)
(0.00303799 -0.00053739 -3.25261e-18 -0.00106683 5.63785e-18 0)
(0.00314608 -0.000334063 -1.6263e-18 -0.00109579 6.50521e-18 0)
(0.00297229 -0.000409127 -1.30104e-18 -0.00105539 3.90313e-18 0)
(0.00307494 -0.000214792 -8.67362e-19 -0.00107344 4.33681e-18 0)
(0.00290469 -0.000293617 -9.75782e-19 -0.00104127 2.60209e-18 0)
(0.0030014 -0.000109389 1.0842e-19 -0.00104954 3.46945e-18 0)
(0.00283652 -0.000190591 -5.42101e-19 -0.00102529 1.30104e-18 0)
(0.00292704 -1.71275e-05 -4.33681e-19 -0.00102525 1.73472e-18 0)
(0.00276885 -9.94015e-05 -7.58942e-19 -0.00100822 3.46945e-18 0)
(0.00285317 6.3055e-05 -3.25261e-19 -0.00100144 8.67362e-19 0)
(0.0027025 -1.91689e-05 0 -0.000990724 0 0)
(0.00278076 0.000132363 -1.0842e-19 -0.000978694 4.33681e-19 0)
(0.00263803 5.10937e-05 0 -0.000973312 1.73472e-18 0)
(0.00271049 0.000192014 4.33681e-19 -0.000957371 1.30104e-18 0)
(0.00257578 0.00011239 3.25261e-19 -0.000956352 -4.33681e-19 0)
(0.00264276 0.00024316 2.1684e-19 -0.000937645 4.33681e-19 0)
(0.00251594 0.000165682 -1.0842e-19 -0.000940081 1.73472e-18 0)
(0.00257778 0.000286848 -1.0842e-19 -0.000919554 1.30104e-18 0)
(0.00245855 0.000211858 5.42101e-19 -0.00092463 0 0)
(0.00251561 0.000324003 1.0842e-19 -0.000903046 -8.67362e-19 0)
(0.00240357 0.000251715 4.33681e-19 -0.000910046 -4.33681e-19 0)
(0.0024562 0.000355427 -3.25261e-19 -0.000888009 4.33681e-19 0)
(0.0023509 0.000285953 -1.0842e-19 -0.000896318 0 0)
(0.00239942 0.000381803 2.1684e-19 -0.000874292 -1.73472e-18 0)
(0.00230038 0.00031518 -1.0842e-19 -0.000883392 -4.33681e-19 0)
(0.00234511 0.000403708 0 -0.000861723 -4.33681e-19 0)
(0.00225187 0.000339916 2.1684e-19 -0.000871185 0 0)
(0.00371232 -0.00161449 -1.34441e-17 -0.00157981 -2.42861e-17 0)
(0.00322476 -0.00156317 -4.01155e-17 -0.00112309 6.07153e-18 0)
(0.00335997 -0.00134919 -3.79471e-17 -0.00118168 1.51788e-17 0)
(0.00310334 -0.00136158 -4.03323e-17 -0.00100145 1.60462e-17 0)
(0.00324075 -0.00114761 -2.88398e-17 -0.00108392 1.69136e-17 0)
(0.00307156 -0.00118382 -2.49366e-17 -0.0010105 1.12757e-17 0)
(0.00320716 -0.000972498 -1.6263e-17 -0.00109086 1.04083e-17 0)
(0.00303621 -0.00101297 -1.45283e-17 -0.00101936 8.23994e-18 0)
(0.00316863 -0.000806001 -9.75782e-18 -0.00109382 6.93889e-18 0)
(0.00299724 -0.0008515 -9.54098e-18 -0.001027 4.77049e-18 0)
(0.00312549 -0.000650079 -6.28837e-18 -0.00109272 5.63785e-18 0)
(0.00295465 -0.000700904 -6.28837e-18 -0.00103238 4.33681e-18 0)
(0.00307799 -0.000505996 -4.77049e-18 -0.00108772 5.20417e-18 0)
(0.00290871 -0.000561993 -3.68629e-18 -0.0010349 2.1684e-18 0)
(0.00302657 -0.000374466 -1.95156e-18 -0.00107926 2.1684e-18 0)
(0.00286 -0.000435085 -2.38524e-18 -0.00103443 3.03577e-18 0)
(0.00297192 -0.000255701 -1.30104e-18 -0.00106801 8.67362e-19 0)
(0.00280925 -0.000320116 -1.51788e-18 -0.00103118 2.1684e-18 0)
(0.00291495 -0.000149463 -8.67362e-19 -0.00105473 1.30104e-18 0)
(0.00275723 -0.000216719 -1.0842e-18 -0.00102555 2.1684e-18 0)
(0.00285658 -5.51711e-05 -2.1684e-19 -0.00104015 4.33681e-19 0)
(0.00270467 -0.000124298 -1.0842e-18 -0.00101802 1.30104e-18 0)
(0.00279769 2.79847e-05 -4.33681e-19 -0.00102489 4.33681e-19 0)
(0.00265218 -4.21137e-05 -4.33681e-19 -0.00100907 4.33681e-19 0)
(0.002739 0.000100931 2.1684e-19 -0.00100945 4.33681e-19 0)
(0.00260025 3.06509e-05 0 -0.000999123 -4.33681e-19 0)
(0.00268108 0.000164631 -4.33681e-19 -0.000994194 2.1684e-18 0)
(0.00254924 9.4829e-05 2.1684e-19 -0.000988535 0 0)
(0.00262435 0.000220023 -1.0842e-19 -0.000979355 4.33681e-19 0)
(0.00249941 0.000151232 4.33681e-19 -0.000977582 0 0)
(0.00256909 0.000267987 -6.50521e-19 -0.000965082 1.73472e-18 0)
(0.0024509 0.000200622 4.33681e-19 -0.000966467 -4.33681e-19 0)
(0.00251547 0.000309325 2.1684e-19 -0.000951442 0 0)
(0.0024038 0.000243698 2.1684e-19 -0.000955328 -4.33681e-19 0)
(0.00246355 0.00034475 2.1684e-19 -0.000938444 -8.67362e-19 0)
(0.00235812 0.000281089 2.1684e-19 -0.000944252 -4.33681e-19 0)
(0.00241335 0.000374889 1.0842e-19 -0.000926057 0 0)
(0.00231386 0.000313349 1.0842e-19 -0.000933285 -8.67362e-19 0)
(0.00236484 0.000400282 2.1684e-19 -0.000914221 -4.33681e-19 0)
(0.00227095 0.000340964 1.0842e-19 -0.000922441 0 0)
(0.00321208 -0.00158394 -5.13912e-17 -0.00110826 7.80626e-18 0)
(0.00292848 -0.00157228 -4.92228e-17 -0.000907302 1.17094e-17 0)
(0.00308367 -0.00136418 -3.96818e-17 -0.000997687 9.54098e-18 0)
(0.00290203 -0.00138551 -2.90566e-17 -0.000910575 5.63785e-18 0)
(0.00305698 -0.00117963 -2.5804e-17 -0.00101169 6.93889e-18 0)
(0.0028792 -0.0012029 -1.9082e-17 -0.000925947 4.33681e-18 0)
(0.00303004 -0.00100265 -1.51788e-17 -0.00102541 3.90313e-18 0)
(0.00285667 -0.00102997 -1.32273e-17 -0.00094537 4.33681e-18 0)
(0.00300211 -0.00083623 -1.04083e-17 -0.00103744 3.90313e-18 0)
(0.00283252 -0.000868606 -8.45678e-18 -0.000964882 1.30104e-18 0)
(0.00297202 -0.000681656 -6.28837e-18 -0.00104672 3.46945e-18 0)
(0.00280579 -0.000719402 -6.28837e-18 -0.000982413 2.60209e-18 0)
(0.00293906 -0.000539443 -4.77049e-18 -0.00105275 2.60209e-18 0)
(0.00277616 -0.000582415 -3.90313e-18 -0.000996938 1.73472e-18 0)
(0.002903 -0.000409671 -2.60209e-18 -0.00105548 1.73472e-18 0)
(0.00274372 -0.000457411 -2.81893e-18 -0.00100807 1.30104e-18 0)
(0.00286402 -0.000292122 -2.81893e-18 -0.00105515 1.73472e-18 0)
(0.00270883 -0.000343969 -2.38524e-18 -0.00101582 1.73472e-18 0)
(0.00282252 -0.000186346 -1.51788e-18 -0.00105218 2.1684e-18 0)
(0.00267197 -0.000241532 -8.67362e-19 -0.00102043 0 0)
(0.00277907 -9.17166e-05 -6.50521e-19 -0.00104705 8.67362e-19 0)
(0.00263364 -0.000149445 -1.0842e-18 -0.00102226 2.1684e-18 0)
(0.00273425 -7.49459e-06 2.1684e-19 -0.00104023 -4.33681e-19 0)
(0.00259434 -6.69958e-05 2.1684e-19 -0.00102171 4.33681e-19 0)
(0.00268862 6.71234e-05 2.1684e-19 -0.00103215 -4.33681e-19 0)
(0.00255451 6.55705e-06 0 -0.00101917 0 0)
(0.00264265 0.000132956 0 -0.00102317 8.67362e-19 0)
(0.0025145 7.19501e-05 0 -0.001015 -4.33681e-19 0)
(0.00259676 0.000190803 -2.1684e-19 -0.00101358 4.33681e-19 0)
(0.00247462 0.000129894 -4.33681e-19 -0.00100953 4.33681e-19 0)
(0.00255125 0.000241421 2.1684e-19 -0.00100357 0 0)
(0.00243508 0.000181059 -2.1684e-19 -0.001003 4.33681e-19 0)
(0.00250636 0.000285508 -4.33681e-19 -0.000993325 0 0)
(0.00239606 0.000226062 -2.1684e-19 -0.00099564 1.30104e-18 0)
(0.00246225 0.000323696 2.1684e-19 -0.000982932 -4.33681e-19 0)
(0.00235767 0.000265464 4.33681e-19 -0.000987604 -1.30104e-18 0)
(0.00241902 0.000356549 4.33681e-19 -0.00097246 -1.30104e-18 0)
(0.00231999 0.000299766 2.1684e-19 -0.000979024 -1.30104e-18 0)
(0.00237675 0.000384563 2.1684e-19 -0.000961942 0 0)
(0.00228308 0.000329414 0 -0.000969994 8.67362e-19 0)
(0.0029261 -0.00160133 -4.35849e-17 -0.000885546 1.17094e-17 0)
(0.00269931 -0.00160831 -2.9924e-17 -0.000771979 5.20417e-18 0)
(0.00288406 -0.00139725 -2.53703e-17 -0.00089946 3.46945e-18 0)
(0.00268541 -0.00140278 -2.10335e-17 -0.000794244 1.30104e-18 0)
(0.00286085 -0.00120381 -1.79978e-17 -0.000922779 1.73472e-18 0)
(0.0026783 -0.00121275 -1.47451e-17 -0.000827551 8.67362e-19 0)
(0.00284481 -0.00102368 -1.25767e-17 -0.000948399 4.33681e-19 0)
(0.00267244 -0.0010379 -9.75782e-18 -0.000863467 8.67362e-19 0)
(0.00283052 -0.000857372 -9.1073e-18 -0.000972899 2.1684e-18 0)
(0.00266513 -0.000877522 -6.28837e-18 -0.000898069 0 0)
(0.00281521 -0.000704673 -6.07153e-18 -0.000994562 1.30104e-18 0)
(0.00265505 -0.000730789 -6.72205e-18 -0.000929439 3.03577e-18 0)
(0.00279747 -0.000565118 -4.98733e-18 -0.0010126 1.73472e-18 0)
(0.00264168 -0.000596894 -3.46945e-18 -0.000956696 4.33681e-19 0)
(0.0027767 -0.00043813 -3.03577e-18 -0.00102679 -4.33681e-19 0)
(0.00262496 -0.000475052 -2.1684e-18 -0.000979552 -8.67362e-19 0)
(0.00275277 -0.000323071 -1.95156e-18 -0.00103722 1.30104e-18 0)
(0.00260511 -0.000364501 -1.95156e-18 -0.000998063 8.67362e-19 0)
(0.00272587 -0.000219254 -1.0842e-18 -0.00104421 1.73472e-18 0)
(0.00258248 -0.000264489 -1.0842e-18 -0.00101249 4.33681e-19 0)
(0.00269638 -0.000125953 -1.0842e-18 -0.00104813 4.33681e-19 0)
(0.00255749 -0.000174277 -1.0842e-18 -0.00102319 0 0)
(0.00266473 -4.24195e-05 -6.50521e-19 -0.00104942 4.33681e-19 0)
(0.0025306 -9.3136e-05 -8.67362e-19 -0.00103059 8.67362e-19 0)
(0.00263137 3.20984e-05 -6.50521e-19 -0.00104847 4.33681e-19 0)
(0.00250222 -2.03586e-05 0 -0.00103508 -1.30104e-18 0)
(0.00259676 9.83383e-05 -4.33681e-19 -0.00104567 4.33681e-19 0)
(0.00247273 4.47341e-05 -4.33681e-19 -0.00103707 0 0)
(0.00256126 0.000157007 8.67362e-19 -0.00104132 -6.50521e-19 0)
(0.00244245 0.000102783 0 -0.00103692 4.33681e-19 0)
(0.00252523 0.000208771 -4.33681e-19 -0.00103572 4.33681e-19 0)
(0.00241167 0.000154387 -1.0842e-18 -0.00103492 4.33681e-19 0)
(0.00248894 0.000254242 0 -0.00102907 -6.50521e-19 0)
(0.00238063 0.000200095 -4.33681e-19 -0.00103137 0 0)
(0.00245262 0.000293982 4.33681e-19 -0.00102157 -2.1684e-19 0)
(0.00234951 0.000240408 -4.33681e-19 -0.00102649 -8.67362e-19 0)
(0.00241645 0.000328492 2.1684e-19 -0.00101335 -6.50521e-19 0)
(0.00231847 0.000275775 0 -0.00102048 -4.33681e-19 0)
(0.00238057 0.00035822 -4.33681e-19 -0.00100452 8.67362e-19 0)
(0.00228765 0.000306598 0 -0.00101349 -4.33681e-19 0)
(0.00269039 -0.00163468 -2.66714e-17 -0.000748604 5.63785e-18 0)
(0.00244776 -0.00162126 -2.08167e-17 -0.000618138 3.03577e-18 0)
(0.00266311 -0.00141124 -2.01662e-17 -0.000783418 2.38524e-18 0)
(0.0024592 -0.00140262 -1.58294e-17 -0.000672588 1.30104e-18 0)
(0.00265571 -0.0012113 -1.43115e-17 -0.000824877 1.30104e-18 0)
(0.00247363 -0.00120873 -1.10589e-17 -0.000728926 1.30104e-18 0)
(0.00265583 -0.00103058 -9.75782e-18 -0.000866679 0 0)
(0.00248721 -0.00103464 -7.58942e-18 -0.00078335 4.33681e-19 0)
(0.00265761 -0.000866633 -7.37257e-18 -0.0009058 1.0842e-18 0)
(0.00249789 -0.000877381 -6.28837e-18 -0.000833679 -4.33681e-19 0)
(0.00265806 -0.000717713 -5.42101e-18 -0.000940788 -2.1684e-19 0)
(0.00250467 -0.000734907 -4.98733e-18 -0.000878818 0 0)
(0.00265565 -0.000582482 -4.33681e-18 -0.000971032 -2.1684e-19 0)
(0.00250718 -0.000605675 -3.25261e-18 -0.000918338 4.33681e-19 0)
(0.00264971 -0.000459826 -3.25261e-18 -0.000996412 0 0)
(0.00250545 -0.000488452 -2.1684e-18 -0.000952214 0 0)
(0.00264005 -0.000348771 -1.30104e-18 -0.00101709 8.67362e-19 0)
(0.0024997 -0.000382198 -1.73472e-18 -0.000980668 -4.33681e-19 0)
(0.0026268 -0.000248439 -2.38524e-18 -0.00103339 1.30104e-18 0)
(0.0024903 -0.000286003 -8.67362e-19 -0.00100406 -8.67362e-19 0)
(0.00261024 -0.000158012 -1.0842e-18 -0.00104572 6.50521e-19 0)
(0.00247769 -0.00019905 -1.0842e-18 -0.00102283 -4.33681e-19 0)
(0.00259077 -7.67202e-05 -1.0842e-18 -0.00105451 1.0842e-18 0)
(0.0024623 -0.000120591 2.1684e-19 -0.00103742 0 0)
(0.00256879 -3.83658e-06 -2.1684e-19 -0.00106019 0 0)
(0.00244457 -4.9935e-05 -1.30104e-18 -0.00104831 4.33681e-19 0)
(0.00254475 6.13236e-05 -4.33681e-19 -0.00106317 -2.1684e-19 0)
(0.00242491 1.35566e-05 6.50521e-19 -0.00105592 0 0)
(0.00251901 0.000119401 0 -0.00106382 6.50521e-19 0)
(0.00240369 7.04723e-05 0 -0.00106067 1.30104e-18 0)
(0.00249196 0.000170989 -4.33681e-19 -0.00106245 4.33681e-19 0)
(0.00238123 0.000121352 2.1684e-19 -0.0010629 -1.30104e-18 0)
(0.0024639 0.000216632 4.33681e-19 -0.00105936 -1.0842e-18 0)
(0.00235782 0.000166689 4.33681e-19 -0.00106296 -8.67362e-19 0)
(0.00243511 0.000256825 0 -0.00105478 0 0)
(0.00233373 0.000206929 -2.1684e-19 -0.00106112 0 0)
(0.00240583 0.000292015 8.67362e-19 -0.00104892 -1.95156e-18 0)
(0.00230916 0.000242472 2.1684e-19 -0.00105764 4.33681e-19 0)
(0.00237626 0.0003226 0 -0.00104195 -4.33681e-19 0)
(0.00228431 0.000273675 4.33681e-19 -0.00105273 -4.33681e-19 0)
(0.00241096 -0.00163655 -1.71304e-17 -0.000596228 3.46945e-18 0)
(0.00218476 -0.00160341 -1.47451e-17 -0.000466762 2.81893e-18 0)
(0.00242304 -0.00140524 -1.30104e-17 -0.000662483 1.95156e-18 0)
(0.0022281 -0.00138321 -1.12757e-17 -0.00055462 1.51788e-18 0)
(0.00244247 -0.00120397 -9.1073e-18 -0.000726693 4.33681e-19 0)
(0.00226781 -0.00119129 -9.97466e-18 -0.000635311 2.38524e-18 0)
(0.00246401 -0.00102573 -9.1073e-18 -0.00078663 1.0842e-18 0)
(0.00230269 -0.00102146 -6.50521e-18 -0.000708699 2.1684e-19 0)
(0.00248431 -0.000866314 -6.72205e-18 -0.000840997 1.0842e-18 0)
(0.00233205 -0.000869724 -4.33681e-18 -0.00077455 -6.50521e-19 0)
(0.00250145 -0.000722899 -4.55365e-18 -0.000889207 -4.33681e-19 0)
(0.00235565 -0.000733334 -4.11997e-18 -0.000832838 4.33681e-19 0)
(0.00251445 -0.000593469 -3.46945e-18 -0.000931137 -8.67362e-19 0)
(0.00237354 -0.000610271 -2.38524e-18 -0.000883759 -1.73472e-18 0)
(0.00252289 -0.000476486 -2.81893e-18 -0.000966955 -8.67362e-19 0)
(0.002386 -0.00049899 -3.25261e-18 -0.000927672 -2.1684e-19 0)
(0.00252675 -0.000370718 -1.51788e-18 -0.000997001 -4.33681e-19 0)
(0.00239342 -0.000398258 -8.67362e-19 -0.000965041 -4.33681e-19 0)
(0.0025262 -0.000275131 -1.30104e-18 -0.00102171 8.67362e-19 0)
(0.00239627 -0.000307052 -1.73472e-18 -0.000996385 2.1684e-19 0)
(0.00252158 -0.000188832 -4.33681e-19 -0.00104158 -1.30104e-18 0)
(0.00239503 -0.0002245 -1.51788e-18 -0.00102225 6.50521e-19 0)
(0.0025133 -0.00011103 -8.67362e-19 -0.00105708 -6.50521e-19 0)
(0.00239021 -0.00014984 2.1684e-19 -0.00104317 -2.1684e-19 0)
(0.00250178 -4.10113e-05 -6.50521e-19 -0.0010687 4.33681e-19 0)