/*--------------------------------*- C++ -*----------------------------------*\
| =========                 |                                                 |
| \\      /  F ield         | OpenFOAM: The Open Source CFD Toolbox           |
|  \\    /   O peration     | Version:  v2012                                 |
|   \\  /    A nd           | Website:  www.openfoam.com                      |
|    \\/     M anipulation  |                                                 |
\*---------------------------------------------------------------------------*/
FoamFile
{
    version     2.0;
    format      ascii;
    class       pointSymmTensorField;
    location    "7";
    object      pEpsilon;
}
// * * * * * * * * * * * * * * * * * * * * * * * * * * * * * * * * * * * * * //

dimensions      [0 0 0 0 0 0 0];


internalField   nonuniform List<symmTensor> 
8282
(
(0.000755199 -4.8443e-05 0 -0.0019938 0 0)
(0.00104421 -8.36204e-06 -2.1684e-18 -9.45976e-05 0 0)
(0.00121466 7.41645e-07 0 -0.000520705 0 0)
(0.000814174 6.37104e-05 0 -0.000368011 0 0)
(0.00647822 -0.000222567 0 -0.0041532 -6.50521e-18 0)
(0.000249564 -4.49419e-05 0 -0.000326231 0 0)
(0.00213309 8.7299e-05 0 -0.000585853 -1.0842e-18 0)
(0.00181845 -0.000337707 0 -0.00113004 0 0)
(0.00217031 8.96509e-06 0 -0.000920658 0 0)
(0.00114536 -1.65118e-05 0 -0.000351398 0 0)
(0.000349152 -0.000620115 -1.0842e-18 0.000137624 5.42101e-19 0)
(0.000349152 -0.000620115 -1.0842e-18 0.000137624 5.42101e-19 0)
(0.00181845 -0.000337707 0 -0.00113004 0 0)
(0.00213309 8.7299e-05 0 -0.000585853 -1.0842e-18 0)
(0.00647822 -0.000222567 0 -0.0041532 -6.50521e-18 0)
(0.000755199 -4.8443e-05 0 -0.0019938 0 0)
(0.000249564 -4.49419e-05 0 -0.000326231 0 0)
(0.00104421 -8.36204e-06 -2.1684e-18 -9.45976e-05 0 0)
(0.00114536 -1.65118e-05 0 -0.000351398 0 0)
(0.00121466 7.41645e-07 0 -0.000520705 0 0)
(0.00217031 8.96509e-06 0 -0.000920658 0 0)
(0.000814174 6.37104e-05 0 -0.000368011 0 0)
(0.00211738 8.9096e-05 0 -0.000617375 0 0)
(0.0021375 0.000173297 0 -0.000647009 0 0)
(0.00216549 0.000244794 -1.35525e-19 -0.000689093 0 0)
(0.0021974 0.000300377 0 -0.000738974 0 0)
(0.00222934 0.000339262 0 -0.000792296 0 0)
(0.00225822 0.00036203 -2.71051e-19 -0.000845716 0 0)
(0.00228189 0.00036997 0 -0.000896991 0 0)
(0.00229898 0.000364608 0 -0.000944814 0 0)
(0.00230871 0.000347426 0 -0.000988552 0 0)
(0.00231067 0.000319733 0 -0.00102795 0 0)
(0.00230459 0.000282654 0 -0.0010629 0 0)
(0.00229024 0.000237195 0 -0.00109322 0 0)
(0.00226733 0.000184349 0 -0.00111865 0 0)
(0.00223558 0.000125191 0 -0.00113877 0 0)
(0.00219475 6.09376e-05 0 -0.00115313 0 0)
(0.00214473 -7.00969e-06 0 -0.00116135 0 0)
(0.00208578 -7.69449e-05 0 -0.00116333 0 0)
(0.00201874 -0.000146259 0 -0.00115964 0 0)
(0.00194576 -0.00020753 0 -0.00115327 0 0)
(0.00171858 -0.000414081 0 -0.00105827 0 0)
(0.00162424 -0.00046834 0 -0.00103939 0 0)
(0.00152327 -0.000514904 0 -0.00100586 -2.71051e-19 0)
(0.00141783 -0.000553327 0 -0.000963617 0 0)
(0.00130961 -0.000582925 0 -0.000915348 0 0)
(0.00120011 -0.000603133 0 -0.00086281 0 0)
(0.0010908 -0.000613557 0 -0.000807435 0 0)
(0.000983088 -0.000613988 0 -0.00075051 -1.35525e-19 0)
(0.000878347 -0.000604398 0 -0.000693245 0 0)
(0.000777903 -0.000584935 0 -0.000636789 0 0)
(0.000683024 -0.000555914 0 -0.000582237 0 0)
(0.00059491 -0.000517806 0 -0.000530625 -6.77626e-20 0)
(0.000514687 -0.000471228 0 -0.000482925 0 0)
(0.000443394 -0.00041693 0 -0.00044004 0 0)
(0.00038199 -0.000355784 0 -0.000402805 0 0)
(0.000331351 -0.000288765 0 -0.00037199 0 0)
(0.000292308 -0.000216917 0 -0.000348329 -1.69407e-20 0)
(0.000265755 -0.000141194 0 -0.000332584 -1.69407e-20 0)
(0.00025319 -6.15557e-05 0 -0.000325624 8.47033e-21 0)
(0.000695737 -5.42628e-05 0 -0.00176021 0 0)
(0.000603527 -4.85857e-05 0 -0.00157359 0 0)
(0.000524363 -4.6521e-05 0 -0.00141231 0 0)
(0.000456927 -4.6193e-05 0 -0.00127075 0 0)
(0.000400199 -4.66566e-05 0 -0.00114575 0 0)
(0.000353109 -4.74275e-05 0 -0.00103506 0 0)
(0.000314576 -4.82568e-05 0 -0.000936848 0 0)
(0.00028356 -4.90184e-05 0 -0.000849578 0 0)
(0.000259101 -4.96503e-05 0 -0.000771933 0 0)
(0.000240334 -5.01234e-05 0 -0.000702771 0 0)
(0.000226486 -5.04244e-05 0 -0.000641102 0 0)
(0.000216873 -5.05454e-05 0 -0.000586066 0 0)
(0.000210893 -5.04777e-05 0 -0.000536919 0 0)
(0.000208017 -5.02072e-05 0 -0.000493018 0 0)
(0.000207781 -4.97112e-05 0 -0.000453819 0 0)
(0.000209789 -4.89568e-05 0 -0.000418879 0 0)
(0.000213721 -4.79035e-05 0 -0.000387883 0 0)
(0.000219382 -4.65199e-05 0 -0.000360709 0 0)
(0.000226852 -4.4841e-05 0 -0.000337639 0 0)
(0.000275247 -4.15768e-05 0 -0.00028483 0 0)
(0.000297663 -4.176e-05 0 -0.000238908 0 0)
(0.000326231 -3.98958e-05 0 -0.000204647 0 0)
(0.000358134 -3.74032e-05 0 -0.000179303 0 0)
(0.000391775 -3.482e-05 0 -0.000160888 0 0)
(0.000426187 -3.23452e-05 0 -0.000147927 0 0)
(0.000460757 -3.00451e-05 0 -0.000139303 0 0)
(0.000495091 -2.79338e-05 0 -0.000134162 0 0)
(0.000528929 -2.60055e-05 0 -0.000131836 0 0)
(0.000562103 -2.4247e-05 0 -0.0001318 0 0)
(0.000594504 -2.26433e-05 0 -0.000133631 0 0)
(0.000626061 -2.11797e-05 0 -0.000136981 0 0)
(0.000656729 -1.98423e-05 0 -0.000141563 0 0)
(0.000686482 -1.86187e-05 0 -0.000147129 0 0)
(0.0007153 -1.74978e-05 0 -0.000153467 0 0)
(0.000743173 -1.64697e-05 0 -0.000160388 0 0)
(0.00077009 -1.55255e-05 0 -0.000167721 0 0)
(0.000796042 -1.46574e-05 0 -0.00017531 0 0)
(0.000821019 -1.38586e-05 0 -0.000183007 0 0)
(0.000845006 -1.31228e-05 0 -0.000190673 0 0)
(0.000867988 -1.24445e-05 0 -0.000198174 0 0)
(0.000889945 -1.18188e-05 0 -0.000205379 0 0)
(0.000910851 -1.12412e-05 0 -0.000212156 0 0)
(0.000930676 -1.07074e-05 0 -0.000218374 0 0)
(0.000949383 -1.02136e-05 0 -0.000223901 0 0)
(0.000966929 -9.75617e-06 0 -0.000228598 0 0)
(0.00098326 -9.3316e-06 0 -0.000232321 0 0)
(0.000998315 -8.93652e-06 0 -0.000234919 0 0)
(0.00101202 -8.56762e-06 0 -0.000236228 0 0)
(0.00102429 -8.22169e-06 0 -0.000236073 0 0)
(0.00103503 -7.89566e-06 0 -0.000234263 0 0)
(0.00104412 -7.58687e-06 0 -0.000230588 0 0)
(0.00105143 -7.29358e-06 0 -0.000224815 0 0)
(0.0010568 -7.01631e-06 -2.1684e-18 -0.000216688 0 0)
(0.00106008 -6.76092e-06 0 -0.000205922 0 0)
(0.0010611 -6.54661e-06 0 -0.000192203 0 0)
(0.00105973 -6.42685e-06 0 -0.000175188 0 0)
(0.00105594 -6.54943e-06 0 -0.000154474 0 0)
(0.00105001 -7.3546e-06 0 -0.000129366 0 0)
(0.00104152 1.9902e-07 0 -9.28822e-05 8.47033e-21 0)
(0.00104319 1.07839e-06 0 -9.66193e-05 8.47033e-21 0)
(0.00104516 3.08181e-07 0 -0.000100958 0 0)
(0.00104768 -7.59944e-07 0 -0.000106688 0 0)
(0.00105079 -1.90503e-06 0 -0.000113938 0 0)
(0.00105447 -3.07192e-06 0 -0.000122697 0 0)
(0.00105872 -4.2426e-06 0 -0.000132916 1.69407e-20 0)
(0.0010635 -5.40904e-06 0 -0.000144527 -3.38813e-20 0)
(0.00106879 -6.56572e-06 0 -0.00015745 -1.69407e-20 0)
(0.00107455 -7.70736e-06 0 -0.000171597 0 0)
(0.00108074 -8.82813e-06 0 -0.000186872 0 0)
(0.00108732 -9.92163e-06 0 -0.00020317 -3.38813e-20 0)
(0.00109423 -1.09809e-05 0 -0.000220381 0 0)
(0.00110144 -1.19989e-05 0 -0.000238386 -3.38813e-20 0)
(0.00110888 -1.29696e-05 0 -0.000257061 -3.38813e-20 0)
(0.00111651 -1.38893e-05 0 -0.000276275 6.77626e-20 0)
(0.00112425 -1.47616e-05 0 -0.000295894 0 0)
(0.00113201 -1.56122e-05 0 -0.000315771 0 0)
(0.00113954 -1.65764e-05 0 -0.000335649 0 0)
(0.00114983 -1.60493e-05 0 -0.000362392 0 0)
(0.00115351 -1.64328e-05 0 -0.000371078 0 0)
(0.00115706 -1.65483e-05 0 -0.000379718 0 0)
(0.00116053 -1.65267e-05 0 -0.000388283 0 0)
(0.00116394 -1.64232e-05 0 -0.000396749 0 0)
(0.00116729 -1.62625e-05 0 -0.000405095 0 0)
(0.00117058 -1.60558e-05 0 -0.000413303 0 0)
(0.00117381 -1.58088e-05 0 -0.000421355 0 0)
(0.00117696 -1.55239e-05 0 -0.000429234 0 0)
(0.00118005 -1.52026e-05 0 -0.000436922 0 0)
(0.00118305 -1.4845e-05 0 -0.000444405 0 0)
(0.00118596 -1.44515e-05 0 -0.000451665 0 0)
(0.00118879 -1.40217e-05 0 -0.000458686 0 0)
(0.00119151 -1.35554e-05 0 -0.000465452 0 0)
(0.00119413 -1.30525e-05 0 -0.000471948 0 0)
(0.00119664 -1.25126e-05 0 -0.000478156 0 0)
(0.00119904 -1.19359e-05 0 -0.000484062 0 0)
(0.00120131 -1.13223e-05 0 -0.000489649 0 0)
(0.00120345 -1.06721e-05 0 -0.000494902 0 0)
(0.00120546 -9.98586e-06 0 -0.000499807 0 0)
(0.00120734 -9.26442e-06 0 -0.000504348 0 0)
(0.00120907 -8.50908e-06 0 -0.000508513 0 0)
(0.00121066 -7.72168e-06 0 -0.000512288 0 0)
(0.00121209 -6.90473e-06 0 -0.000515663 0 0)
(0.00121337 -6.06163e-06 0 -0.000518626 0 0)
(0.0012145 -5.19688e-06 0 -0.000521171 0 0)
(0.00121546 -4.31636e-06 0 -0.000523291 0 0)
(0.00121626 -3.42775e-06 0 -0.000524984 0 0)
(0.0012169 -2.54094e-06 0 -0.000526251 0 0)
(0.00121737 -1.66861e-06 0 -0.000527097 0 0)
(0.00121768 -8.2692e-07 0 -0.000527533 0 0)
(0.00121782 -3.63298e-08 0 -0.000527577 0 0)
(0.00121781 6.77507e-07 0 -0.000527259 0 0)
(0.00121764 1.28278e-06 0 -0.000526614 0 0)
(0.00121733 1.7407e-06 0 -0.000525698 0 0)
(0.00121688 2.00528e-06 0 -0.000524579 0 0)
(0.00121633 2.02458e-06 0 -0.000523352 0 0)
(0.0012157 1.74568e-06 0 -0.000522142 0 0)
(0.00121509 1.12816e-06 0 -0.000521118 0 0)
(0.0012136 8.97436e-07 0 -0.000520261 0 0)
(0.00121088 9.36943e-07 0 -0.000519796 0 0)
(0.00121019 5.26554e-07 0 -0.000520242 0 0)
(0.00121302 -8.56697e-08 0 -0.000522027 0 0)
(0.00121982 -7.66647e-07 0 -0.000525323 0 0)
(0.0012306 -1.45943e-06 0 -0.000530163 0 0)
(0.0012452 -2.14046e-06 0 -0.000536506 0 0)
(0.00126338 -2.80074e-06 0 -0.000544281 0 0)
(0.00128489 -3.43804e-06 0 -0.000553404 0 0)
(0.00130951 -4.05323e-06 0 -0.00056379 0 0)
(0.00133702 -4.64855e-06 0 -0.00057536 0 0)
(0.00136723 -5.22662e-06 0 -0.000588041 0 0)
(0.00139998 -5.78993e-06 0 -0.000601766 0 0)
(0.00143511 -6.34043e-06 0 -0.000616475 0 0)
(0.00147249 -6.87934e-06 0 -0.000632111 0 0)
(0.00151198 -7.40695e-06 0 -0.000648616 0 0)
(0.00155345 -7.92252e-06 0 -0.000665933 0 0)
(0.00159676 -8.42408e-06 0 -0.000684 0 0)
(0.00164175 -8.90839e-06 0 -0.00070275 0 0)
(0.00168823 -9.37075e-06 2.1684e-18 -0.000722103 0 0)
(0.00173601 -9.80493e-06 0 -0.000741968 0 0)
(0.00178484 -1.0203e-05 0 -0.00076224 0 0)
(0.00183441 -1.05553e-05 0 -0.00078279 0 0)
(0.00188438 -1.08502e-05 0 -0.000803471 0 0)
(0.00193434 -1.10743e-05 0 -0.000824107 0 0)
(0.00198381 -1.12118e-05 0 -0.000844496 0 0)
(0.00203224 -1.12455e-05 0 -0.000864403 0 0)
(0.00207897 -1.11557e-05 0 -0.00088356 0 0)
(0.00212328 -1.09213e-05 0 -0.000901665 0 0)
(0.00216435 -1.05197e-05 0 -0.000918378 0 0)
(0.00220127 -9.9272e-06 0 -0.000933325 0 0)
(0.00223303 -9.11981e-06 0 -0.0009461 0 0)
(0.00225857 -8.07402e-06 0 -0.000956266 0 0)
(0.00227674 -6.768e-06 0 -0.000963364 0 0)
(0.00228636 -5.18303e-06 0 -0.000966923 0 0)
(0.00228623 -3.30472e-06 0 -0.000966468 0 0)
(0.00227516 -1.12201e-06 0 -0.000961534 0 0)
(0.00225196 1.38906e-06 0 -0.000951644 0 0)
(0.00221503 4.4063e-06 0 -0.000936069 0 0)
(0.00212284 1.156e-05 0 -0.000900183 -1.0842e-18 0)
(0.00206947 1.26596e-05 0 -0.000879062 0 0)
(0.00200949 1.3508e-05 5.42101e-19 -0.000855016 0 0)
(0.00194281 1.43387e-05 0 -0.000828059 0 0)
(0.00186979 1.51372e-05 0 -0.000798376 0 0)
(0.00179095 1.58882e-05 0 -0.000766209 0 0)
(0.00170704 1.65824e-05 0 -0.000731871 0 0)
(0.001619 1.72122e-05 0 -0.000695756 0 0)
(0.00152794 1.77683e-05 0 -0.000658348 0 0)
(0.00143522 1.82378e-05 0 -0.000620218 0 0)
(0.00134235 1.86035e-05 0 -0.000582026 0 0)
(0.00125105 1.88433e-05 0 -0.000544513 0 0)
(0.0011632 1.89308e-05 0 -0.000508489 0 0)
(0.0010808 1.88357e-05 0 -0.000474811 0 0)
(0.0010059 1.85246e-05 0 -0.00044436 0 0)
(0.000940567 1.79613e-05 0 -0.000417997 0 0)
(0.000886735 1.71034e-05 0 -0.000396505 0 0)
(0.000845972 1.59069e-05 0 -0.000380426 0 0)
(0.000817556 1.45923e-05 1.69407e-20 -0.000368753 0 0)
(0.000868534 6.4427e-05 0 -0.000378175 0 0)
(0.000919356 6.33538e-05 0 -0.000397013 0 0)
(0.000967593 6.25734e-05 0 -0.000414352 0 0)
(0.00101363 6.20361e-05 0 -0.000430384 0 0)
(0.00105774 6.16978e-05 0 -0.000445231 0 0)
(0.00110011 6.1522e-05 0 -0.000458977 0 0)
(0.00114089 6.14785e-05 0 -0.000471687 0 0)
(0.00118021 6.15434e-05 0 -0.000483414 0 0)
(0.00121819 6.16974e-05 0 -0.000494207 0 0)
(0.00125491 6.19254e-05 0 -0.000504113 0 0)
(0.00129047 6.22155e-05 0 -0.000513173 0 0)
(0.00132494 6.25585e-05 0 -0.000521432 0 0)
(0.00135842 6.29474e-05 0 -0.000528929 0 0)
(0.00139096 6.33769e-05 0 -0.000535707 0 0)
(0.00142264 6.38432e-05 0 -0.000541806 0 0)
(0.00145352 6.43434e-05 0 -0.000547263 0 0)
(0.00148368 6.48756e-05 0 -0.00055212 0 0)
(0.00151318 6.54389e-05 0 -0.000556412 0 0)
(0.00154208 6.60328e-05 0 -0.000560179 0 0)
(0.00157045 6.66573e-05 0 -0.000563456 0 0)
(0.00159833 6.7313e-05 0 -0.00056628 0 0)
(0.0016258 6.8001e-05 0 -0.000568686 0 0)
(0.00165291 6.87227e-05 0 -0.00057071 0 0)
(0.00167973 6.94799e-05 0 -0.000572385 0 0)
(0.0017063 7.02747e-05 0 -0.000573747 0 0)
(0.0017327 7.11099e-05 0 -0.000574828 0 0)
(0.00175897 7.19886e-05 0 -0.000575664 0 0)
(0.00178519 7.29142e-05 0 -0.000576287 0 0)
(0.00181142 7.38909e-05 0 -0.000576731 0 0)
(0.00183771 7.49235e-05 0 -0.00057703 0 0)
(0.00186413 7.60174e-05 0 -0.000577219 0 0)
(0.00189075 7.71789e-05 0 -0.000577331 0 0)
(0.00191764 7.84151e-05 0 -0.000577402 0 0)
(0.00194488 7.9734e-05 0 -0.000577468 0 0)
(0.00197255 8.11447e-05 0 -0.00057757 0 0)
(0.00200073 8.26572e-05 0 -0.000577747 0 0)
(0.00202951 8.42818e-05 0 -0.000578047 0 0)
(0.00205902 8.6029e-05 0 -0.000578522 0 0)
(0.00208937 8.79079e-05 0 -0.00057924 0 0)
(0.00219844 8.70708e-05 0 -0.000593422 -1.0842e-18 0)
(0.00226802 8.79457e-05 0 -0.000597805 -1.0842e-18 0)
(0.00234324 8.9312e-05 0 -0.000604877 -1.0842e-18 0)
(0.00242554 9.11601e-05 0 -0.00061535 -1.0842e-18 0)
(0.00251658 9.35125e-05 0 -0.000630093 -1.0842e-18 0)
(0.00261846 9.64142e-05 0 -0.000650246 -2.1684e-18 0)
(0.00273389 9.99154e-05 0 -0.000677362 -2.1684e-18 0)
(0.00286661 0.000104028 0 -0.000713664 -3.25261e-18 0)
(0.00302194 0.000108613 0 -0.000762508 -4.33681e-18 0)
(0.00320803 0.000113075 0 -0.000829347 -6.50521e-18 0)
(0.00343845 0.000115474 0 -0.000923935 -8.67362e-18 0)
(0.00373922 0.00010729 0 -0.00108482 -1.19262e-17 0)
(0.00410663 8.38255e-05 0 -0.00137933 -1.19262e-17 0)
(0.00448707 4.59484e-05 0 -0.00176293 -2.1684e-18 0)
(0.00485978 1.01948e-05 0 -0.00216621 1.0842e-18 0)
(0.00522815 -2.67342e-05 0 -0.00258873 -2.1684e-18 0)
(0.00559175 -6.81529e-05 0 -0.00302812 -4.33681e-18 0)
(0.00594679 -0.000117445 0 -0.00347989 -9.75782e-18 0)
(0.0062816 -0.000175378 0 -0.00393176 -6.50521e-18 0)
(0.0017903 -0.000342694 0 -0.00107402 0 0)
(0.00173141 -0.000363075 0 -0.00102962 0 0)
(0.00167656 -0.000388762 0 -0.00098642 0 0)
(0.00162305 -0.000414067 0 -0.000940538 0 0)
(0.00157141 -0.000436733 0 -0.000892774 0 0)
(0.00152241 -0.000455787 0 -0.000844573 0 0)
(0.00147671 -0.000470877 0 -0.000797264 0 0)
(0.00143474 -0.000481996 0 -0.000751896 -1.35525e-19 0)
(0.00139672 -0.000489331 0 -0.000709232 0 0)
(0.00136272 -0.000493177 0 -0.000669773 0 0)
(0.00133267 -0.000493878 0 -0.000633803 0 0)
(0.00130642 -0.000491794 0 -0.000601431 0 0)
(0.00128372 -0.000487274 0 -0.000572631 0 0)
(0.0012643 -0.00048065 0 -0.000547276 0 0)
(0.00124785 -0.000472224 0 -0.000525168 0 0)
(0.00123406 -0.000462266 0 -0.000506061 0 0)
(0.0012226 -0.000451018 0 -0.000489678 1.35525e-19 0)
(0.00121317 -0.000438687 0 -0.000475726 0 0)
(0.00120548 -0.000425454 0 -0.000463908 0 0)
(0.00119925 -0.000411471 0 -0.000453931 0 0)
(0.00119424 -0.000396866 0 -0.000445509 0 0)
(0.0011902 -0.000381743 0 -0.00043837 0 0)
(0.00118691 -0.000366186 0 -0.000432258 0 0)
(0.0011842 -0.000350257 0 -0.000426935 0 0)
(0.00118188 -0.000334 0 -0.000422182 0 0)
(0.00117981 -0.000317441 0 -0.000417802 0 0)
(0.00117784 -0.000300586 0 -0.000413619 0 0)
(0.00117586 -0.000283422 0 -0.000409483 0 0)
(0.00117378 -0.000265915 0 -0.000405269 0 0)
(0.00117152 -0.000248008 0 -0.000400882 0 0)
(0.00116905 -0.000229615 0 -0.000396261 0 0)
(0.00116633 -0.000210615 0 -0.000391377 0 0)
(0.00116336 -0.000190845 0 -0.000386244 0 0)
(0.0011602 -0.000170086 0 -0.000380915 0 0)
(0.00115691 -0.000148052 0 -0.000375488 0 0)
(0.00115358 -0.000124372 0 -0.000370105 0 0)
(0.00115035 -9.85711e-05 0 -0.000364947 -1.35525e-19 0)
(0.00114734 -7.00638e-05 0 -0.00036024 0 0)
(0.00114471 -3.81711e-05 0 -0.000356294 0 0)
(0.00186378 -0.000332651 0 -0.00122979 0 0)
(0.00189675 -0.000294719 0 -0.00122085 0 0)
(0.00192433 -0.000258852 0 -0.00121284 0 0)
(0.00194796 -0.000224688 0 -0.00120548 0 0)
(0.0019684 -0.000192002 0 -0.00119841 0 0)
(0.00198613 -0.000160649 0 -0.00119135 0 0)
(0.00200145 -0.000130548 0 -0.00118405 0 0)
(0.0020146 -0.000101655 0 -0.00117636 0 0)
(0.00202577 -7.396e-05 0 -0.00116817 0 0)
(0.00203511 -4.74746e-05 0 -0.00115941 0 0)
(0.00204278 -2.22259e-05 0 -0.00115006 0 0)
(0.00204891 1.74864e-06 0 -0.00114011 0 0)
(0.00205365 2.44053e-05 0 -0.00112961 0 0)
(0.00205712 4.56969e-05 0 -0.00111857 0 0)
(0.00205946 6.55753e-05 0 -0.00110707 0 0)
(0.0020608 8.39928e-05 0 -0.00109515 0 0)
(0.00206128 0.000100903 0 -0.0010829 0 0)
(0.00206103 0.000116261 0 -0.00107038 0 0)
(0.00206018 0.000130025 0 -0.00105769 0 0)
(0.00205888 0.000142155 0 -0.0010449 0 0)
(0.00205726 0.000152615 0 -0.00103211 0 0)
(0.00205547 0.000161369 0 -0.00101941 0 0)
(0.00205363 0.000168384 0 -0.00100689 0 0)
(0.0020519 0.000173631 0 -0.00099465 0 0)
(0.00205042 0.000177079 0 -0.000982788 0 0)
(0.00204934 0.000178701 0 -0.000971406 0 0)
(0.00204882 0.000178471 0 -0.000960611 0 0)
(0.00204899 0.000176364 0 -0.000950511 0 0)
(0.00205004 0.000172357 0 -0.00094122 0 0)
(0.00205211 0.000166427 0 -0.000932855 0 0)
(0.00205539 0.000158552 0 -0.00092554 0 0)
(0.00206004 0.000148715 0 -0.000919405 0 0)
(0.00206625 0.000136899 0 -0.000914586 0 0)
(0.00207421 0.000123091 0 -0.000911229 0 0)
(0.00208413 0.000107289 0 -0.00090949 0 0)
(0.00209623 8.95044e-05 5.42101e-19 -0.000909535 0 0)
(0.00211073 6.97824e-05 0 -0.000911551 0 0)
(0.00212792 4.82551e-05 0 -0.000915752 0 0)
(0.0021482 2.52937e-05 0 -0.000922435 0 0)
(0.00635906 -0.000441403 5.28549e-18 -0.00400399 -9.75782e-18 0)
(0.00619499 -0.000767707 2.22261e-17 -0.00381765 -2.1684e-17 0)
(0.00594492 -0.00109776 4.79759e-17 -0.00355685 -7.04731e-17 0)
(0.00557281 -0.00138294 9.6494e-17 -0.00318279 -8.23994e-17 0)
(0.00508138 -0.00158592 1.78893e-17 -0.00270127 2.92735e-17 0)
(0.00450574 -0.00168705 8.07731e-17 -0.00215324 -5.52943e-17 0)
(0.00390521 -0.00169263 2.38524e-17 -0.00160202 -7.26415e-17 0)
(0.00336305 -0.00164624 -3.90313e-17 -0.00113155 -6.50521e-18 0)
(0.00300844 -0.00161999 -6.39679e-17 -0.000907156 1.84314e-17 0)
(0.00275827 -0.00164236 -3.36103e-17 -0.00076874 7.58942e-18 0)
(0.00249684 -0.00165844 -2.1684e-17 -0.000612175 5.42101e-18 0)
(0.00221207 -0.00164023 -1.51788e-17 -0.000457987 3.25261e-18 0)
(0.00192064 -0.0015895 -9.75782e-18 -0.000312478 2.1684e-18 0)
(0.001634 -0.00150861 -7.58942e-18 -0.00018107 1.0842e-18 0)
(0.0013604 -0.0014011 -4.33681e-18 -6.81119e-05 1.0842e-18 0)
(0.00110593 -0.00127118 -3.25261e-18 2.31103e-05 1.0842e-18 0)
(0.000875013 -0.00112341 -3.25261e-18 9.02945e-05 5.42101e-19 0)
(0.000670753 -0.000962528 -2.1684e-18 0.000132042 5.42101e-19 0)
(0.00049513 -0.000793237 -1.0842e-18 0.000147773 0 0)
(0.00023297 -0.000447458 -1.0842e-18 0.00010233 5.42101e-19 0)
(0.000145961 -0.000279199 -2.1684e-18 4.31387e-05 0 0)
(8.6832e-05 -0.000118858 0 -3.82318e-05 0 0)
(5.3769e-05 3.04516e-05 0 -0.00013966 0 0)
(4.45455e-05 0.000166017 0 -0.000258674 5.42101e-19 0)
(5.66115e-05 0.000285529 0 -0.000392494 0 0)
(8.71646e-05 0.000387086 0 -0.000538081 0 0)
(0.00013321 0.000469212 0 -0.000692187 5.42101e-19 0)
(0.000191617 0.000530874 0 -0.000851409 0 0)
(0.000259175 0.000571498 0 -0.00101225 0 0)
(0.000332657 0.000590984 0 -0.00117119 0 0)
(0.000408875 0.000589708 0 -0.00132474 0 0)
(0.000484749 0.000568519 0 -0.00146953 0 0)
(0.00055737 0.000528725 0 -0.00160237 0 0)
(0.000624066 0.000472067 0 -0.00172029 0 0)
(0.000682486 0.000400685 0 -0.00182064 0 0)
(0.000730751 0.000317026 0 -0.00190124 0 0)
(0.000767977 0.000223359 0 -0.00196119 0 0)
(0.000798616 0.000116345 0 -0.00200809 6.77626e-20 0)
(0.000481553 -0.000587015 -1.0842e-18 2.39371e-05 0 0)
(0.000682188 -0.000579564 -1.0842e-18 -0.000156459 5.42101e-19 0)
(0.000855822 -0.000568442 -1.0842e-18 -0.000311461 0 0)
(0.00100624 -0.000554665 -1.0842e-18 -0.000444609 0 0)
(0.00113664 -0.000538989 -1.0842e-18 -0.000558901 0 0)
(0.00124973 -0.000521979 -1.0842e-18 -0.00065688 0 0)
(0.00134782 -0.000504063 -1.0842e-18 -0.000740701 0 0)
(0.00143287 -0.000485563 0 -0.0008122 0 0)
(0.00150658 -0.000466728 -1.0842e-18 -0.000872938 0 0)
(0.00157039 -0.000447742 0 -0.000924247 -5.42101e-19 0)
(0.00162555 -0.000428746 -1.0842e-18 -0.000967265 0 0)
(0.00167317 -0.000409835 0 -0.00100296 0 0)
(0.00171419 -0.000391071 0 -0.00103213 0 0)
(0.00174946 -0.000372477 0 -0.00105546 0 0)
(0.00177969 -0.000354039 0 -0.00107342 0 0)
(0.00180544 -0.00033569 0 -0.00108629 0 0)
(0.00182696 -0.000317274 0 -0.00109391 0 0)
(0.00184365 -0.000298398 0 -0.00109516 0 0)
(0.00185219 -0.000277864 0 -0.00108599 0 0)
(0.000481553 -0.000587015 -1.0842e-18 2.39371e-05 0 0)
(0.000682188 -0.000579564 -1.0842e-18 -0.000156459 5.42101e-19 0)
(0.000855822 -0.000568442 -1.0842e-18 -0.000311461 0 0)
(0.00100624 -0.000554665 -1.0842e-18 -0.000444609 0 0)
(0.00113664 -0.000538989 -1.0842e-18 -0.000558901 0 0)
(0.00124973 -0.000521979 -1.0842e-18 -0.00065688 0 0)
(0.00134782 -0.000504063 -1.0842e-18 -0.000740701 0 0)
(0.00143287 -0.000485563 0 -0.0008122 0 0)
(0.00150658 -0.000466728 -1.0842e-18 -0.000872938 0 0)
(0.00157039 -0.000447742 0 -0.000924247 -5.42101e-19 0)
(0.00162555 -0.000428746 -1.0842e-18 -0.000967265 0 0)
(0.00167317 -0.000409835 0 -0.00100296 0 0)
(0.00171419 -0.000391071 0 -0.00103213 0 0)
(0.00174946 -0.000372477 0 -0.00105546 0 0)
(0.00177969 -0.000354039 0 -0.00107342 0 0)
(0.00180544 -0.00033569 0 -0.00108629 0 0)
(0.00182696 -0.000317274 0 -0.00109391 0 0)
(0.00184365 -0.000298398 0 -0.00109516 0 0)
(0.00185219 -0.000277864 0 -0.00108599 0 0)
(0.00194576 -0.00020753 0 -0.00115327 0 0)
(0.00201874 -0.000146259 0 -0.00115964 0 0)
(0.00208578 -7.69449e-05 0 -0.00116333 0 0)
(0.00214473 -7.00969e-06 0 -0.00116135 0 0)
(0.00219475 6.09376e-05 0 -0.00115313 0 0)
(0.00223558 0.000125191 0 -0.00113877 0 0)
(0.00226733 0.000184349 0 -0.00111865 0 0)
(0.00229024 0.000237195 0 -0.00109322 0 0)
(0.00230459 0.000282654 0 -0.0010629 0 0)
(0.00231067 0.000319733 0 -0.00102795 0 0)
(0.00230871 0.000347426 0 -0.000988552 0 0)
(0.00229898 0.000364608 0 -0.000944814 0 0)
(0.00228189 0.00036997 0 -0.000896991 0 0)
(0.00225822 0.00036203 -2.71051e-19 -0.000845716 0 0)
(0.00222934 0.000339262 0 -0.000792296 0 0)
(0.0021974 0.000300377 0 -0.000738974 0 0)
(0.00216549 0.000244794 -1.35525e-19 -0.000689093 0 0)
(0.0021375 0.000173297 0 -0.000647009 0 0)
(0.00211738 8.9096e-05 0 -0.000617375 0 0)
(0.00219844 8.70708e-05 0 -0.000593422 -1.0842e-18 0)
(0.00226802 8.79457e-05 0 -0.000597805 -1.0842e-18 0)
(0.00234324 8.9312e-05 0 -0.000604877 -1.0842e-18 0)
(0.00242554 9.11601e-05 0 -0.00061535 -1.0842e-18 0)
(0.00251658 9.35125e-05 0 -0.000630093 -1.0842e-18 0)
(0.00261846 9.64142e-05 0 -0.000650246 -2.1684e-18 0)
(0.00273389 9.99154e-05 0 -0.000677362 -2.1684e-18 0)
(0.00286661 0.000104028 0 -0.000713664 -3.25261e-18 0)
(0.00302194 0.000108613 0 -0.000762508 -4.33681e-18 0)
(0.00320803 0.000113075 0 -0.000829347 -6.50521e-18 0)
(0.00343845 0.000115474 0 -0.000923935 -8.67362e-18 0)
(0.00373922 0.00010729 0 -0.00108482 -1.19262e-17 0)
(0.00410663 8.38255e-05 0 -0.00137933 -1.19262e-17 0)
(0.00448707 4.59484e-05 0 -0.00176293 -2.1684e-18 0)
(0.00485978 1.01948e-05 0 -0.00216621 1.0842e-18 0)
(0.00522815 -2.67342e-05 0 -0.00258873 -2.1684e-18 0)
(0.00559175 -6.81529e-05 0 -0.00302812 -4.33681e-18 0)
(0.00594679 -0.000117445 0 -0.00347989 -9.75782e-18 0)
(0.0062816 -0.000175378 0 -0.00393176 -6.50521e-18 0)
(0.00635906 -0.000441403 5.28549e-18 -0.00400399 -9.75782e-18 0)
(0.00619499 -0.000767707 2.22261e-17 -0.00381765 -2.1684e-17 0)
(0.00594492 -0.00109776 4.79759e-17 -0.00355685 -7.04731e-17 0)
(0.00557281 -0.00138294 9.6494e-17 -0.00318279 -8.23994e-17 0)
(0.00508138 -0.00158592 1.78893e-17 -0.00270127 2.92735e-17 0)
(0.00450574 -0.00168705 8.07731e-17 -0.00215324 -5.52943e-17 0)
(0.00390521 -0.00169263 2.38524e-17 -0.00160202 -7.26415e-17 0)
(0.00336305 -0.00164624 -3.90313e-17 -0.00113155 -6.50521e-18 0)
(0.00300844 -0.00161999 -6.39679e-17 -0.000907156 1.84314e-17 0)
(0.00275827 -0.00164236 -3.36103e-17 -0.00076874 7.58942e-18 0)
(0.00249684 -0.00165844 -2.1684e-17 -0.000612175 5.42101e-18 0)
(0.00221207 -0.00164023 -1.51788e-17 -0.000457987 3.25261e-18 0)
(0.00192064 -0.0015895 -9.75782e-18 -0.000312478 2.1684e-18 0)
(0.001634 -0.00150861 -7.58942e-18 -0.00018107 1.0842e-18 0)
(0.0013604 -0.0014011 -4.33681e-18 -6.81119e-05 1.0842e-18 0)
(0.00110593 -0.00127118 -3.25261e-18 2.31103e-05 1.0842e-18 0)
(0.000875013 -0.00112341 -3.25261e-18 9.02945e-05 5.42101e-19 0)
(0.000670753 -0.000962528 -2.1684e-18 0.000132042 5.42101e-19 0)
(0.00049513 -0.000793237 -1.0842e-18 0.000147773 0 0)
(0.00023297 -0.000447458 -1.0842e-18 0.00010233 5.42101e-19 0)
(0.000145961 -0.000279199 -2.1684e-18 4.31387e-05 0 0)
(8.6832e-05 -0.000118858 0 -3.82318e-05 0 0)
(5.3769e-05 3.04516e-05 0 -0.00013966 0 0)
(4.45455e-05 0.000166017 0 -0.000258674 5.42101e-19 0)
(5.66115e-05 0.000285529 0 -0.000392494 0 0)
(8.71646e-05 0.000387086 0 -0.000538081 0 0)
(0.00013321 0.000469212 0 -0.000692187 5.42101e-19 0)
(0.000191617 0.000530874 0 -0.000851409 0 0)
(0.000259175 0.000571498 0 -0.00101225 0 0)
(0.000332657 0.000590984 0 -0.00117119 0 0)
(0.000408875 0.000589708 0 -0.00132474 0 0)
(0.000484749 0.000568519 0 -0.00146953 0 0)
(0.00055737 0.000528725 0 -0.00160237 0 0)
(0.000624066 0.000472067 0 -0.00172029 0 0)
(0.000682486 0.000400685 0 -0.00182064 0 0)
(0.000730751 0.000317026 0 -0.00190124 0 0)
(0.000767977 0.000223359 0 -0.00196119 0 0)
(0.000798616 0.000116345 0 -0.00200809 6.77626e-20 0)
(0.000695737 -5.42628e-05 0 -0.00176021 0 0)
(0.000603527 -4.85857e-05 0 -0.00157359 0 0)
(0.000524363 -4.6521e-05 0 -0.00141231 0 0)
(0.000456927 -4.6193e-05 0 -0.00127075 0 0)
(0.000400199 -4.66566e-05 0 -0.00114575 0 0)
(0.000353109 -4.74275e-05 0 -0.00103506 0 0)
(0.000314576 -4.82568e-05 0 -0.000936848 0 0)
(0.00028356 -4.90184e-05 0 -0.000849578 0 0)
(0.000259101 -4.96503e-05 0 -0.000771933 0 0)
(0.000240334 -5.01234e-05 0 -0.000702771 0 0)
(0.000226486 -5.04244e-05 0 -0.000641102 0 0)
(0.000216873 -5.05454e-05 0 -0.000586066 0 0)
(0.000210893 -5.04777e-05 0 -0.000536919 0 0)
(0.000208017 -5.02072e-05 0 -0.000493018 0 0)
(0.000207781 -4.97112e-05 0 -0.000453819 0 0)
(0.000209789 -4.89568e-05 0 -0.000418879 0 0)
(0.000213721 -4.79035e-05 0 -0.000387883 0 0)
(0.000219382 -4.65199e-05 0 -0.000360709 0 0)
(0.000226852 -4.4841e-05 0 -0.000337639 0 0)
(0.00025319 -6.15557e-05 0 -0.000325624 8.47033e-21 0)
(0.000265755 -0.000141194 0 -0.000332584 -1.69407e-20 0)
(0.000292308 -0.000216917 0 -0.000348329 -1.69407e-20 0)
(0.000331351 -0.000288765 0 -0.00037199 0 0)
(0.00038199 -0.000355784 0 -0.000402805 0 0)
(0.000443394 -0.00041693 0 -0.00044004 0 0)
(0.000514687 -0.000471228 0 -0.000482925 0 0)
(0.00059491 -0.000517806 0 -0.000530625 -6.77626e-20 0)
(0.000683024 -0.000555914 0 -0.000582237 0 0)
(0.000777903 -0.000584935 0 -0.000636789 0 0)
(0.000878347 -0.000604398 0 -0.000693245 0 0)
(0.000983088 -0.000613988 0 -0.00075051 -1.35525e-19 0)
(0.0010908 -0.000613557 0 -0.000807435 0 0)
(0.00120011 -0.000603133 0 -0.00086281 0 0)
(0.00130961 -0.000582925 0 -0.000915348 0 0)
(0.00141783 -0.000553327 0 -0.000963617 0 0)
(0.00152327 -0.000514904 0 -0.00100586 -2.71051e-19 0)
(0.00162424 -0.00046834 0 -0.00103939 0 0)
(0.00171858 -0.000414081 0 -0.00105827 0 0)
(0.000275247 -4.15768e-05 0 -0.00028483 0 0)
(0.000297663 -4.176e-05 0 -0.000238908 0 0)
(0.000326231 -3.98958e-05 0 -0.000204647 0 0)
(0.000358134 -3.74032e-05 0 -0.000179303 0 0)
(0.000391775 -3.482e-05 0 -0.000160888 0 0)
(0.000426187 -3.23452e-05 0 -0.000147927 0 0)
(0.000460757 -3.00451e-05 0 -0.000139303 0 0)
(0.000495091 -2.79338e-05 0 -0.000134162 0 0)
(0.000528929 -2.60055e-05 0 -0.000131836 0 0)
(0.000562103 -2.4247e-05 0 -0.0001318 0 0)
(0.000594504 -2.26433e-05 0 -0.000133631 0 0)
(0.000626061 -2.11797e-05 0 -0.000136981 0 0)
(0.000656729 -1.98423e-05 0 -0.000141563 0 0)
(0.000686482 -1.86187e-05 0 -0.000147129 0 0)
(0.0007153 -1.74978e-05 0 -0.000153467 0 0)
(0.000743173 -1.64697e-05 0 -0.000160388 0 0)
(0.00077009 -1.55255e-05 0 -0.000167721 0 0)
(0.000796042 -1.46574e-05 0 -0.00017531 0 0)
(0.000821019 -1.38586e-05 0 -0.000183007 0 0)
(0.000845006 -1.31228e-05 0 -0.000190673 0 0)
(0.000867988 -1.24445e-05 0 -0.000198174 0 0)
(0.000889945 -1.18188e-05 0 -0.000205379 0 0)
(0.000910851 -1.12412e-05 0 -0.000212156 0 0)
(0.000930676 -1.07074e-05 0 -0.000218374 0 0)
(0.000949383 -1.02136e-05 0 -0.000223901 0 0)
(0.000966929 -9.75617e-06 0 -0.000228598 0 0)
(0.00098326 -9.3316e-06 0 -0.000232321 0 0)
(0.000998315 -8.93652e-06 0 -0.000234919 0 0)
(0.00101202 -8.56762e-06 0 -0.000236228 0 0)
(0.00102429 -8.22169e-06 0 -0.000236073 0 0)
(0.00103503 -7.89566e-06 0 -0.000234263 0 0)
(0.00104412 -7.58687e-06 0 -0.000230588 0 0)
(0.00105143 -7.29358e-06 0 -0.000224815 0 0)
(0.0010568 -7.01631e-06 -2.1684e-18 -0.000216688 0 0)
(0.00106008 -6.76092e-06 0 -0.000205922 0 0)
(0.0010611 -6.54661e-06 0 -0.000192203 0 0)
(0.00105973 -6.42685e-06 0 -0.000175188 0 0)
(0.00105594 -6.54943e-06 0 -0.000154474 0 0)
(0.00105001 -7.3546e-06 0 -0.000129366 0 0)
(0.00104152 1.9902e-07 0 -9.28822e-05 8.47033e-21 0)
(0.00104319 1.07839e-06 0 -9.66193e-05 8.47033e-21 0)
(0.00104516 3.08181e-07 0 -0.000100958 0 0)
(0.00104768 -7.59944e-07 0 -0.000106688 0 0)
(0.00105079 -1.90503e-06 0 -0.000113938 0 0)
(0.00105447 -3.07192e-06 0 -0.000122697 0 0)
(0.00105872 -4.2426e-06 0 -0.000132916 1.69407e-20 0)
(0.0010635 -5.40904e-06 0 -0.000144527 -3.38813e-20 0)
(0.00106879 -6.56572e-06 0 -0.00015745 -1.69407e-20 0)
(0.00107455 -7.70736e-06 0 -0.000171597 0 0)
(0.00108074 -8.82813e-06 0 -0.000186872 0 0)
(0.00108732 -9.92163e-06 0 -0.00020317 -3.38813e-20 0)