/*--------------------------------*- C++ -*----------------------------------*\
| =========                 |                                                 |
| \\      /  F ield         | OpenFOAM: The Open Source CFD Toolbox           |
|  \\    /   O peration     | Version:  v2012                                 |
|   \\  /    A nd           | Website:  www.openfoam.com                      |
|    \\/     M anipulation  |                                                 |
\*---------------------------------------------------------------------------*/
FoamFile
{
    version     2.0;
    format      ascii;
    class       pointVectorField;
    location    "7";
    object      pointD;
}
// * * * * * * * * * * * * * * * * * * * * * * * * * * * * * * * * * * * * * //

dimensions      [0 1 0 0 0 0 0];


internalField   nonuniform List<vector> 
8282
(
(0.00252644 0 0)
(0.00358028 0 0)
(0.00330137 -0.000323088 0)
(0 -0.0018022 0)
(0 -0.00130233 0)
(0.00260858 0 0)
(0 -0.00166907 0)
(0.00154668 -0.000558472 0)
(0.000757937 -0.00104403 0)
(0.00345243 -9.88745e-05 0)
(0.00185731 -0.000825123 0)
(0.00185731 -0.000825123 0)
(0.00154668 -0.000558472 0)
(0 -0.00166907 0)
(0 -0.00130233 0)
(0.00252644 0 0)
(0.00260858 0 0)
(0.00358028 0 0)
(0.00345243 -9.88745e-05 0)
(0.00330137 -0.000323088 0)
(0.000757937 -0.00104403 0)
(0 -0.0018022 0)
(6.19928e-05 -0.00166345 0)
(0.000124691 -0.00164756 0)
(0.000188637 -0.00162186 0)
(0.000254262 -0.00158714 0)
(0.000321866 -0.00154436 0)
(0.000391624 -0.00149454 0)
(0.000463615 -0.00143872 0)
(0.000537836 -0.00137792 0)
(0.000614222 -0.00131315 0)
(0.000692665 -0.00124533 0)
(0.000773021 -0.00117534 0)
(0.000855119 -0.00110398 0)
(0.000938759 -0.00103202 0)
(0.00102372 -0.000960142 0)
(0.00110975 -0.000888956 0)
(0.0011966 -0.000819016 0)
(0.00128397 -0.00075079 0)
(0.0013716 -0.00068464 0)
(0.00145924 -0.000620727 0)
(0.00163173 -0.000503597 0)
(0.00171588 -0.000451254 0)
(0.00179862 -0.00040186 0)
(0.00187947 -0.000355648 0)
(0.001958 -0.000312748 0)
(0.00203377 -0.000273212 0)
(0.00210637 -0.000237037 0)
(0.00217541 -0.000204166 0)
(0.0022405 -0.000174502 0)
(0.00230128 -0.000147908 0)
(0.00235741 -0.000124214 0)
(0.00240856 -0.000103217 0)
(0.00245444 -8.46868e-05 0)
(0.00249477 -6.837e-05 0)
(0.00252931 -5.39893e-05 0)
(0.00255785 -4.12478e-05 0)
(0.00258022 -2.98301e-05 0)
(0.00259624 -1.94026e-05 0)
(0.00260579 -9.60582e-06 0)
(0.00253576 0 0)
(0.00254386 0 0)
(0.0025509 0 0)
(0.00255702 0 0)
(0.00256237 0 0)
(0.00256707 0 0)
(0.00257123 0 0)
(0.00257496 0 0)
(0.00257834 0 0)
(0.00258145 0 0)
(0.00258436 0 0)
(0.00258712 0 0)
(0.00258979 0 0)
(0.0025924 0 0)
(0.00259499 0 0)
(0.00259759 0 0)
(0.00260022 0 0)
(0.00260292 0 0)
(0.0026057 0 0)
(0.00261697 0 0)
(0.00262592 0 0)
(0.00263568 0 0)
(0.00264641 0 0)
(0.00265818 0 0)
(0.00267101 0 0)
(0.00268493 0 0)
(0.00269994 0 0)
(0.00271601 0 0)
(0.00273312 0 0)
(0.00275127 0 0)
(0.00277041 0 0)
(0.00279052 0 0)
(0.00281158 0 0)
(0.00283355 0 0)
(0.00285641 0 0)
(0.00288012 0 0)
(0.00290465 0 0)
(0.00292998 0 0)
(0.00295608 0 0)
(0.0029829 0 0)
(0.00301043 0 0)
(0.00303862 0 0)
(0.00306745 0 0)
(0.00309687 0 0)
(0.00312687 0 0)
(0.00315739 0 0)
(0.00318839 0 0)
(0.00321985 0 0)
(0.00325171 0 0)
(0.00328392 0 0)
(0.00331644 0 0)
(0.00334921 0 0)
(0.00338218 0 0)
(0.00341528 0 0)
(0.00344844 0 0)
(0.0034816 0 0)
(0.00351466 0 0)
(0.00354757 0 0)
(0.00357955 -2.30896e-06 0)
(0.00357827 -4.72345e-06 0)
(0.00357629 -7.23539e-06 0)
(0.00357359 -9.87842e-06 0)
(0.00357015 -1.26932e-05 0)
(0.00356601 -1.57212e-05 0)
(0.00356118 -1.90026e-05 0)
(0.00355568 -2.25761e-05 0)
(0.00354955 -2.64783e-05 0)
(0.00354282 -3.07434e-05 0)
(0.00353553 -3.54034e-05 0)
(0.00352772 -4.04874e-05 0)
(0.00351944 -4.60215e-05 0)
(0.00351074 -5.2029e-05 0)
(0.00350165 -5.85298e-05 0)
(0.00349225 -6.55402e-05 0)
(0.00348257 -7.30732e-05 0)
(0.00347267 -8.11382e-05 0)
(0.00346261 -8.97402e-05 0)
(0.00344795 -0.000103077 0)
(0.00344346 -0.000107381 0)
(0.00343896 -0.000111788 0)
(0.00343446 -0.000116296 0)
(0.00342996 -0.000120905 0)
(0.00342548 -0.000125612 0)
(0.00342101 -0.000130417 0)
(0.00341657 -0.000135318 0)
(0.00341216 -0.000140313 0)
(0.00340777 -0.0001454 0)
(0.00340342 -0.000150576 0)
(0.00339911 -0.000155838 0)
(0.00339485 -0.000161185 0)
(0.00339063 -0.000166613 0)
(0.00338646 -0.00017212 0)
(0.00338234 -0.000177701 0)
(0.00337829 -0.000183353 0)
(0.00337429 -0.000189073 0)
(0.00337035 -0.000194857 0)
(0.00336648 -0.000200701 0)
(0.00336267 -0.0002066 0)
(0.00335893 -0.000212551 0)
(0.00335526 -0.000218548 0)
(0.00335165 -0.000224588 0)
(0.00334812 -0.000230664 0)
(0.00334465 -0.000236773 0)
(0.00334125 -0.00024291 0)
(0.00333792 -0.000249068 0)
(0.00333465 -0.000255244 0)
(0.00333144 -0.000261432 0)
(0.00332828 -0.000267627 0)
(0.00332518 -0.000273825 0)
(0.00332213 -0.000280021 0)
(0.00331911 -0.00028621 0)
(0.00331613 -0.00029239 0)
(0.00331317 -0.000298558 0)
(0.00331022 -0.000304711 0)
(0.00330728 -0.00031085 0)
(0.00330433 -0.000316974 0)
(0.00325674 -0.000332415 0)
(0.00321224 -0.00034161 0)
(0.00316783 -0.000350436 0)
(0.00312338 -0.000358717 0)
(0.00307874 -0.000366345 0)
(0.00303376 -0.000373273 0)
(0.00298829 -0.000379495 0)
(0.00294219 -0.000385041 0)
(0.00289534 -0.000389965 0)
(0.00284762 -0.00039434 0)
(0.00279891 -0.000398256 0)
(0.00274912 -0.000401815 0)
(0.00269814 -0.000405133 0)
(0.0026459 -0.000408334 0)
(0.00259229 -0.000411552 0)
(0.00253725 -0.000414932 0)
(0.00248069 -0.000418627 0)
(0.00242255 -0.000422799 0)
(0.00236276 -0.00042762 0)
(0.00230127 -0.000433272 0)
(0.00223801 -0.000439947 0)
(0.00217296 -0.000447846 0)
(0.00210607 -0.00045718 0)
(0.00203732 -0.000468169 0)
(0.00196672 -0.000481042 0)
(0.00189426 -0.000496033 0)
(0.00181999 -0.000513383 0)
(0.00174395 -0.000533332 0)
(0.00166622 -0.000556124 0)
(0.00158691 -0.000581993 0)
(0.00150617 -0.000611165 0)
(0.00142416 -0.000643849 0)
(0.00134111 -0.000680229 0)
(0.00125728 -0.000720454 0)
(0.00117296 -0.000764633 0)
(0.00108851 -0.000812816 0)
(0.00100431 -0.000864988 0)
(0.000920818 -0.000921051 0)
(0.000838502 -0.000980819 0)
(0.000700962 -0.00109132 0)
(0.000645384 -0.00114 0)
(0.000591371 -0.00118976 0)
(0.000539103 -0.00124029 0)
(0.000488755 -0.00129126 0)
(0.000440488 -0.00134229 0)
(0.000394447 -0.00139299 0)
(0.000350752 -0.0014429 0)
(0.000309494 -0.00149157 0)
(0.000270731 -0.00153848 0)
(0.000234482 -0.00158314 0)
(0.000200719 -0.001625 0)
(0.000169367 -0.00166354 0)
(0.000140298 -0.00169825 0)
(0.000113328 -0.00172861 0)
(8.82185e-05 -0.00175419 0)
(6.46757e-05 -0.00177457 0)
(4.23574e-05 -0.00178944 0)
(2.08893e-05 -0.00179862 0)
(0 -0.0017999 0)
(0 -0.00179747 0)
(0 -0.00179494 0)
(0 -0.0017923 0)
(0 -0.00178956 0)
(0 -0.00178673 0)
(0 -0.00178382 0)
(0 -0.00178084 0)
(0 -0.00177778 0)
(0 -0.00177466 0)
(0 -0.00177148 0)
(0 -0.00176825 0)
(0 -0.00176496 0)
(0 -0.00176163 0)
(0 -0.00175827 0)
(0 -0.00175486 0)
(0 -0.00175143 0)
(0 -0.00174796 0)
(0 -0.00174447 0)
(0 -0.00174096 0)
(0 -0.00173743 0)
(0 -0.00173388 0)
(0 -0.00173032 0)
(0 -0.00172675 0)
(0 -0.00172317 0)
(0 -0.00171958 0)
(0 -0.00171599 0)
(0 -0.00171239 0)
(0 -0.00170878 0)
(0 -0.00170518 0)
(0 -0.00170157 0)
(0 -0.00169797 0)
(0 -0.00169436 0)
(0 -0.00169075 0)
(0 -0.00168714 0)
(0 -0.00168353 0)
(0 -0.00167992 0)
(0 -0.00167631 0)
(0 -0.00167269 0)
(0 -0.00166167 0)
(0 -0.00165424 0)
(0 -0.00164674 0)
(0 -0.00163913 0)
(0 -0.00163137 0)
(0 -0.00162341 0)
(0 -0.00161515 0)
(0 -0.00160652 0)
(0 -0.00159737 0)
(0 -0.00158752 0)
(0 -0.00157672 0)
(0 -0.00156452 0)
(0 -0.00154964 0)
(0 -0.00153011 0)
(0 -0.00150569 0)
(0 -0.00147611 0)
(0 -0.00144113 0)
(0 -0.00140056 0)
(0 -0.00135425 0)
(0.00161369 -0.000502136 0)
(0.00167843 -0.000450396 0)
(0.00174115 -0.000403789 0)
(0.00180188 -0.000362296 0)
(0.00186067 -0.000325706 0)
(0.0019176 -0.000293717 0)
(0.00197279 -0.000265986 0)
(0.00202636 -0.000242158 0)
(0.00207846 -0.000221877 0)
(0.00212923 -0.000204799 0)
(0.00217882 -0.000190596 0)
(0.00222736 -0.000178958 0)
(0.00227501 -0.000169597 0)
(0.00232188 -0.000162242 0)
(0.00236808 -0.000156643 0)
(0.00241373 -0.000152565 0)
(0.0024589 -0.000149794 0)
(0.0025037 -0.000148127 0)
(0.00254817 -0.000147378 0)
(0.00259238 -0.000147373 0)
(0.00263639 -0.00014795 0)
(0.00268023 -0.000148957 0)
(0.00272393 -0.000150252 0)
(0.00276752 -0.000151699 0)
(0.00281101 -0.000153173 0)
(0.00285442 -0.000154553 0)
(0.00289776 -0.000155722 0)
(0.00294102 -0.000156568 0)
(0.0029842 -0.000156983 0)
(0.0030273 -0.000156859 0)
(0.00307031 -0.000156088 0)
(0.00311323 -0.000154559 0)
(0.00315604 -0.000152159 0)
(0.00319873 -0.000148765 0)
(0.00324131 -0.000144247 0)
(0.00328376 -0.000138458 0)
(0.00332609 -0.000131233 0)
(0.0033683 -0.000122379 0)
(0.00341041 -0.000111677 0)
(0.00151991 -0.000572349 0)
(0.00149378 -0.000586189 0)
(0.00146828 -0.000599988 0)
(0.00144339 -0.000613743 0)
(0.00141911 -0.000627449 0)
(0.00139542 -0.000641102 0)
(0.0013723 -0.000654695 0)
(0.00134974 -0.000668221 0)
(0.00132772 -0.000681673 0)
(0.00130621 -0.00069504 0)
(0.00128521 -0.000708316 0)
(0.00126468 -0.000721492 0)
(0.0012446 -0.000734561 0)
(0.00122495 -0.000747514 0)
(0.0012057 -0.000760347 0)
(0.00118681 -0.000773053 0)
(0.00116827 -0.000785627 0)
(0.00115004 -0.000798067 0)
(0.00113208 -0.000810368 0)
(0.00111438 -0.000822529 0)
(0.00109689 -0.00083455 0)
(0.00107958 -0.000846431 0)
(0.00106242 -0.000858173 0)
(0.00104538 -0.000869779 0)
(0.00102841 -0.000881252 0)
(0.00101149 -0.000892597 0)
(0.000994567 -0.000903821 0)
(0.000977617 -0.000914931 0)
(0.000960598 -0.000925936 0)
(0.000943474 -0.000936845 0)
(0.000926204 -0.00094767 0)
(0.000908752 -0.000958425 0)
(0.000891079 -0.000969123 0)
(0.000873144 -0.00097978 0)
(0.00085491 -0.000990415 0)
(0.000836337 -0.00100105 0)
(0.000817386 -0.0010117 0)
(0.000798022 -0.0010224 0)
(0.000778211 -0.00103316 0)
(0.000127167 -0.00130947 0)
(0.000252434 -0.00131534 0)
(0.000375233 -0.00132026 0)
(0.000494111 -0.00132319 0)
(0.00060744 -0.00132218 0)
(0.000713973 -0.00131496 0)
(0.00081327 -0.00129967 0)
(0.000905972 -0.00127567 0)
(0.000994159 -0.00124482 0)
(0.0010811 -0.0012116 0)
(0.00116755 -0.00117751 0)
(0.00125286 -0.00114215 0)
(0.00133656 -0.00110554 0)
(0.00141833 -0.00106776 0)
(0.00149791 -0.00102897 0)
(0.00157511 -0.000989315 0)
(0.00164977 -0.000948961 0)
(0.00172175 -0.000908053 0)
(0.00179096 -0.000866732 0)
(0.00192072 -0.000783333 0)
(0.00198116 -0.00074145 0)
(0.00203857 -0.000699544 0)
(0.00209292 -0.000657664 0)
(0.00214419 -0.000615848 0)
(0.00219234 -0.00057412 0)
(0.00223733 -0.000532496 0)
(0.00227915 -0.000490982 0)
(0.00231776 -0.000449582 0)
(0.00235313 -0.000408295 0)
(0.00238524 -0.000367118 0)
(0.00241406 -0.000326044 0)
(0.00243957 -0.000285069 0)
(0.00246175 -0.000244184 0)
(0.00248058 -0.000203384 0)
(0.00249607 -0.000162664 0)
(0.00250823 -0.000122021 0)
(0.0025171 -8.14498e-05 0)
(0.00252287 -4.0915e-05 0)
(0.0018222 -0.000796148 0)
(0.00179043 -0.000770214 0)
(0.00176167 -0.000746947 0)
(0.00173564 -0.000726023 0)
(0.0017121 -0.000707163 0)
(0.00169081 -0.000690127 0)
(0.00167158 -0.000674702 0)
(0.00165423 -0.000660705 0)
(0.00163859 -0.000647973 0)
(0.00162453 -0.000636363 0)
(0.00161191 -0.000625746 0)
(0.00160061 -0.000616011 0)
(0.00159053 -0.000607054 0)
(0.00158158 -0.000598782 0)
(0.00157366 -0.00059111 0)
(0.00156669 -0.000583955 0)
(0.00156061 -0.000577236 0)
(0.00155533 -0.000570859 0)
(0.00155075 -0.000564692 0)
(0.0018222 -0.000796148 0)
(0.00179043 -0.000770214 0)
(0.00176167 -0.000746947 0)
(0.00173564 -0.000726023 0)
(0.0017121 -0.000707163 0)
(0.00169081 -0.000690127 0)
(0.00167158 -0.000674702 0)
(0.00165423 -0.000660705 0)
(0.00163859 -0.000647973 0)
(0.00162453 -0.000636363 0)
(0.00161191 -0.000625746 0)
(0.00160061 -0.000616011 0)
(0.00159053 -0.000607054 0)
(0.00158158 -0.000598782 0)
(0.00157366 -0.00059111 0)
(0.00156669 -0.000583955 0)
(0.00156061 -0.000577236 0)
(0.00155533 -0.000570859 0)
(0.00155075 -0.000564692 0)
(0.00145924 -0.000620727 0)
(0.0013716 -0.00068464 0)
(0.00128397 -0.00075079 0)
(0.0011966 -0.000819016 0)
(0.00110975 -0.000888956 0)
(0.00102372 -0.000960142 0)
(0.000938759 -0.00103202 0)
(0.000855119 -0.00110398 0)
(0.000773021 -0.00117534 0)
(0.000692665 -0.00124533 0)
(0.000614222 -0.00131315 0)
(0.000537836 -0.00137792 0)
(0.000463615 -0.00143872 0)
(0.000391624 -0.00149454 0)
(0.000321866 -0.00154436 0)
(0.000254262 -0.00158714 0)
(0.000188637 -0.00162186 0)
(0.000124691 -0.00164756 0)
(6.19928e-05 -0.00166345 0)
(0 -0.00166167 0)
(0 -0.00165424 0)
(0 -0.00164674 0)
(0 -0.00163913 0)
(0 -0.00163137 0)
(0 -0.00162341 0)
(0 -0.00161515 0)
(0 -0.00160652 0)
(0 -0.00159737 0)
(0 -0.00158752 0)
(0 -0.00157672 0)
(0 -0.00156452 0)
(0 -0.00154964 0)
(0 -0.00153011 0)
(0 -0.00150569 0)
(0 -0.00147611 0)
(0 -0.00144113 0)
(0 -0.00140056 0)
(0 -0.00135425 0)
(0.000127167 -0.00130947 0)
(0.000252434 -0.00131534 0)
(0.000375233 -0.00132026 0)
(0.000494111 -0.00132319 0)
(0.00060744 -0.00132218 0)
(0.000713973 -0.00131496 0)
(0.00081327 -0.00129967 0)
(0.000905972 -0.00127567 0)
(0.000994159 -0.00124482 0)
(0.0010811 -0.0012116 0)
(0.00116755 -0.00117751 0)
(0.00125286 -0.00114215 0)
(0.00133656 -0.00110554 0)
(0.00141833 -0.00106776 0)
(0.00149791 -0.00102897 0)
(0.00157511 -0.000989315 0)
(0.00164977 -0.000948961 0)
(0.00172175 -0.000908053 0)
(0.00179096 -0.000866732 0)
(0.00192072 -0.000783333 0)
(0.00198116 -0.00074145 0)
(0.00203857 -0.000699544 0)
(0.00209292 -0.000657664 0)
(0.00214419 -0.000615848 0)
(0.00219234 -0.00057412 0)
(0.00223733 -0.000532496 0)
(0.00227915 -0.000490982 0)
(0.00231776 -0.000449582 0)
(0.00235313 -0.000408295 0)
(0.00238524 -0.000367118 0)
(0.00241406 -0.000326044 0)
(0.00243957 -0.000285069 0)
(0.00246175 -0.000244184 0)
(0.00248058 -0.000203384 0)
(0.00249607 -0.000162664 0)
(0.00250823 -0.000122021 0)
(0.0025171 -8.14498e-05 0)
(0.00252287 -4.0915e-05 0)
(0.00253576 0 0)
(0.00254386 0 0)
(0.0025509 0 0)
(0.00255702 0 0)
(0.00256237 0 0)
(0.00256707 0 0)
(0.00257123 0 0)
(0.00257496 0 0)
(0.00257834 0 0)
(0.00258145 0 0)
(0.00258436 0 0)
(0.00258712 0 0)
(0.00258979 0 0)
(0.0025924 0 0)
(0.00259499 0 0)
(0.00259759 0 0)
(0.00260022 0 0)
(0.00260292 0 0)
(0.0026057 0 0)
(0.00260579 -9.60582e-06 0)
(0.00259624 -1.94026e-05 0)
(0.00258022 -2.98301e-05 0)
(0.00255785 -4.12478e-05 0)
(0.00252931 -5.39893e-05 0)
(0.00249477 -6.837e-05 0)
(0.00245444 -8.46868e-05 0)
(0.00240856 -0.000103217 0)
(0.00235741 -0.000124214 0)
(0.00230128 -0.000147908 0)
(0.0022405 -0.000174502 0)
(0.00217541 -0.000204166 0)
(0.00210637 -0.000237037 0)
(0.00203377 -0.000273212 0)
(0.001958 -0.000312748 0)
(0.00187947 -0.000355648 0)
(0.00179862 -0.00040186 0)
(0.00171588 -0.000451254 0)
(0.00163173 -0.000503597 0)
(0.00261697 0 0)
(0.00262592 0 0)
(0.00263568 0 0)
(0.00264641 0 0)
(0.00265818 0 0)
(0.00267101 0 0)
(0.00268493 0 0)
(0.00269994 0 0)
(0.00271601 0 0)
(0.00273312 0 0)
(0.00275127 0 0)
(0.00277041 0 0)
(0.00279052 0 0)
(0.00281158 0 0)
(0.00283355 0 0)
(0.00285641 0 0)
(0.00288012 0 0)
(0.00290465 0 0)
(0.00292998 0 0)
(0.00295608 0 0)
(0.0029829 0 0)
(0.00301043 0 0)
(0.00303862 0 0)
(0.00306745 0 0)
(0.00309687 0 0)
(0.00312687 0 0)
(0.00315739 0 0)
(0.00318839 0 0)
(0.00321985 0 0)
(0.00325171 0 0)
(0.00328392 0 0)
(0.00331644 0 0)
(0.00334921 0 0)
(0.00338218 0 0)
(0.00341528 0 0)
(0.00344844 0 0)
(0.0034816 0 0)
(0.00351466 0 0)
(0.00354757 0 0)
(0.00357955 -2.30896e-06 0)
(0.00357827 -4.72345e-06 0)
(0.00357629 -7.23539e-06 0)
(0.00357359 -9.87842e-06 0)
(0.00357015 -1.26932e-05 0)
(0.00356601 -1.57212e-05 0)
(0.00356118 -1.90026e-05 0)
(0.00355568 -2.25761e-05 0)
(0.00354955 -2.64783e-05 0)
(0.00354282 -3.07434e-05 0)
(0.00353553 -3.54034e-05 0)
(0.00352772 -4.04874e-05 0)
(0.00351944 -4.60215e-05 0)
(0.00351074 -5.2029e-05 0)
(0.00350165 -5.85298e-05 0)
(0.00349225 -6.55402e-05 0)
(0.00348257 -7.30732e-05 0)
(0.00347267 -8.11382e-05 0)
(0.00346261 -8.97402e-05 0)
(0.00341041 -0.000111677 0)
(0.0033683 -0.000122379 0)
(0.00332609 -0.000131233 0)
(0.00328376 -0.000138458 0)
(0.00324131 -0.000144247 0)
(0.00319873 -0.000148765 0)
(0.00315604 -0.000152159 0)
(0.00311323 -0.000154559 0)
(0.00307031 -0.000156088 0)
(0.0030273 -0.000156859 0)
(0.0029842 -0.000156983 0)
(0.00294102 -0.000156568 0)
(0.00289776 -0.000155722 0)
(0.00285442 -0.000154553 0)
(0.00281101 -0.000153173 0)
(0.00276752 -0.000151699 0)
(0.00272393 -0.000150252 0)
(0.00268023 -0.000148957 0)
(0.00263639 -0.00014795 0)
(0.00259238 -0.000147373 0)
(0.00254817 -0.000147378 0)
(0.0025037 -0.000148127 0)
(0.0024589 -0.000149794 0)
(0.00241373 -0.000152565 0)
(0.00236808 -0.000156643 0)
(0.00232188 -0.000162242 0)
(0.00227501 -0.000169597 0)
(0.00222736 -0.000178958 0)
(0.00217882 -0.000190596 0)
(0.00212923 -0.000204799 0)
(0.00207846 -0.000221877 0)
(0.00202636 -0.000242158 0)
(0.00197279 -0.000265986 0)
(0.0019176 -0.000293717 0)
(0.00186067 -0.000325706 0)
(0.00180188 -0.000362296 0)
(0.00174115 -0.000403789 0)
(0.00167843 -0.000450396 0)
(0.00161369 -0.000502136 0)
(0.00344795 -0.000103077 0)
(0.00344346 -0.000107381 0)
(0.00343896 -0.000111788 0)
(0.00343446 -0.000116296 0)
(0.00342996 -0.000120905 0)
(0.00342548 -0.000125612 0)
(0.00342101 -0.000130417 0)
(0.00341657 -0.000135318 0)
(0.00341216 -0.000140313 0)
(0.00340777 -0.0001454 0)
(0.00340342 -0.000150576 0)
(0.00339911 -0.000155838 0)
(0.00339485 -0.000161185 0)
(0.00339063 -0.000166613 0)
(0.00338646 -0.00017212 0)
(0.00338234 -0.000177701 0)
(0.00337829 -0.000183353 0)
(0.00337429 -0.000189073 0)
(0.00337035 -0.000194857 0)
(0.00336648 -0.000200701 0)
(0.00336267 -0.0002066 0)
(0.00335893 -0.000212551 0)
(0.00335526 -0.000218548 0)
(0.00335165 -0.000224588 0)
(0.00334812 -0.000230664 0)
(0.00334465 -0.000236773 0)
(0.00334125 -0.00024291 0)
(0.00333792 -0.000249068 0)
(0.00333465 -0.000255244 0)
(0.00333144 -0.000261432 0)
(0.00332828 -0.000267627 0)
(0.00332518 -0.000273825 0)
(0.00332213 -0.000280021 0)
(0.00331911 -0.00028621 0)
(0.00331613 -0.00029239 0)
(0.00331317 -0.000298558 0)
(0.00331022 -0.000304711 0)
(0.00330728 -0.00031085 0)
(0.00330433 -0.000316974 0)
(0.00325674 -0.000332415 0)
(0.00321224 -0.00034161 0)
(0.00316783 -0.000350436 0)
(0.00312338 -0.000358717 0)
(0.00307874 -0.000366345 0)
(0.00303376 -0.000373273 0)
(0.00298829 -0.000379495 0)
(0.00294219 -0.000385041 0)
(0.00289534 -0.000389965 0)
(0.00284762 -0.00039434 0)
(0.00279891 -0.000398256 0)
(0.00274912 -0.000401815 0)
(0.00269814 -0.000405133 0)
(0.0026459 -0.000408334 0)
(0.00259229 -0.000411552 0)
(0.00253725 -0.000414932 0)
(0.00248069 -0.000418627 0)
(0.00242255 -0.000422799 0)
(0.00236276 -0.00042762 0)
(0.00230127 -0.000433272 0)
(0.00223801 -0.000439947 0)
(0.00217296 -0.000447846 0)
(0.00210607 -0.00045718 0)
(0.00203732 -0.000468169 0)
(0.00196672 -0.000481042 0)
(0.00189426 -0.000496033 0)
(0.00181999 -0.000513383 0)
(0.00174395 -0.000533332 0)
(0.00166622 -0.000556124 0)
(0.00158691 -0.000581993 0)
(0.00150617 -0.000611165 0)
(0.00142416 -0.000643849 0)
(0.00134111 -0.000680229 0)
(0.00125728 -0.000720454 0)
(0.00117296 -0.000764633 0)
(0.00108851 -0.000812816 0)
(0.00100431 -0.000864988 0)
(0.000920818 -0.000921051 0)
(0.000838502 -0.000980819 0)
(0.000778211 -0.00103316 0)
(0.000798022 -0.0010224 0)
(0.000817386 -0.0010117 0)
(0.000836337 -0.00100105 0)
(0.00085491 -0.000990415 0)
(0.000873144 -0.00097978 0)
(0.000891079 -0.000969123 0)
(0.000908752 -0.000958425 0)
(0.000926204 -0.00094767 0)
(0.000943474 -0.000936845 0)
(0.000960598 -0.000925936 0)
(0.000977617 -0.000914931 0)
(0.000994567 -0.000903821 0)
(0.00101149 -0.000892597 0)
(0.00102841 -0.000881252 0)
(0.00104538 -0.000869779 0)
(0.00106242 -0.000858173 0)
(0.00107958 -0.000846431 0)
(0.00109689 -0.00083455 0)
(0.00111438 -0.000822529 0)
(0.00113208 -0.000810368 0)
(0.00115004 -0.000798067 0)
(0.00116827 -0.000785627 0)
(0.00118681 -0.000773053 0)
(0.0012057 -0.000760347 0)
(0.00122495 -0.000747514 0)
(0.0012446 -0.000734561 0)
(0.00126468 -0.000721492 0)
(0.00128521 -0.000708316 0)
(0.00130621 -0.00069504 0)
(0.00132772 -0.000681673 0)
(0.00134974 -0.000668221 0)
(0.0013723 -0.000654695 0)
(0.00139542 -0.000641102 0)
(0.00141911 -0.000627449 0)
(0.00144339 -0.000613743 0)
(0.00146828 -0.000599988 0)
(0.00149378 -0.000586189 0)
(0.00151991 -0.000572349 0)
(0.000700962 -0.00109132 0)
(0.000645384 -0.00114 0)
(0.000591371 -0.00118976 0)
(0.000539103 -0.00124029 0)
(0.000488755 -0.00129126 0)
(0.000440488 -0.00134229 0)
(0.000394447 -0.00139299 0)
(0.000350752 -0.0014429 0)
(0.000309494 -0.00149157 0)
(0.000270731 -0.00153848 0)
(0.000234482 -0.00158314 0)
(0.000200719 -0.001625 0)
(0.000169367 -0.00166354 0)
(0.000140298 -0.00169825 0)
(0.000113328 -0.00172861 0)
(8.82185e-05 -0.00175419 0)
(6.46757e-05 -0.00177457 0)
(4.23574e-05 -0.00178944 0)
(2.08893e-05 -0.00179862 0)
(0 -0.0017999 0)
(0 -0.00179747 0)
(0 -0.00179494 0)
(0 -0.0017923 0)
(0 -0.00178956 0)
(0 -0.00178673 0)
(0 -0.00178382 0)
(0 -0.00178084 0)
(0 -0.00177778 0)
(0 -0.00177466 0)
(0 -0.00177148 0)
(0 -0.00176825 0)
(0 -0.00176496 0)
(0 -0.00176163 0)
(0 -0.00175827 0)
(0 -0.00175486 0)
(0 -0.00175143 0)
(0 -0.00174796 0)
(0 -0.00174447 0)
(0 -0.00174096 0)
(0 -0.00173743 0)
(0 -0.00173388 0)
(0 -0.00173032 0)
(0 -0.00172675 0)
(0 -0.00172317 0)
(0 -0.00171958 0)
(0 -0.00171599 0)
(0 -0.00171239 0)
(0 -0.00170878 0)
(0 -0.00170518 0)
(0 -0.00170157 0)
(0 -0.00169797 0)
(0 -0.00169436 0)
(0 -0.00169075 0)
(0 -0.00168714 0)
(0 -0.00168353 0)
(0 -0.00167992 0)
(0 -0.00167631 0)
(0 -0.00167269 0)
(0.000123992 -0.00135916 0)
(0.000119827 -0.00140343 0)
(0.000115055 -0.00144227 0)
(0.000109797 -0.00147572 0)
(0.000104093 -0.00150383 0)
(9.79214e-05 -0.00152669 0)
(9.11549e-05 -0.00154442 0)
(8.46812e-05 -0.00155819 0)
(8.0099e-05 -0.00157038 0)
(7.66187e-05 -0.00158135 0)
(7.38623e-05 -0.00159138 0)
(7.16173e-05 -0.00160069 0)
(6.97505e-05 -0.00160946 0)
(6.81722e-05 -0.00161781 0)
(6.68182e-05 -0.00162585 0)
(6.56405e-05 -0.00163365 0)
(6.46008e-05 -0.00164126 0)
(6.36673e-05 -0.00164875 0)
(6.28097e-05 -0.00165614 0)
(0.000245088 -0.00136291 0)
(0.000236543 -0.00140464 0)
(0.000226911 -0.00144065 0)
(0.000216246 -0.00147104 0)
(0.0002046 -0.00149589 0)
(0.000192027 -0.0015154 0)
(0.00017875 -0.00152992 0)
(0.000168339 -0.00154297 0)
(0.000160189 -0.00155484 0)
(0.000153673 -0.0015657 0)
(0.00014836 -0.00157573 0)
(0.000143956 -0.00158507 0)
(0.000140251 -0.00159388 0)
(0.000137095 -0.00160226 0)
(0.000134374 -0.0016103 0)
(0.000132 -0.00161808 0)
(0.000129899 -0.00162565 0)
(0.000128013 -0.00163306 0)
(0.000126291 -0.00164035 0)
(0.000362927 -0.00136465 0)
(0.000349277 -0.00140262 0)
(0.000334196 -0.00143436 0)
(0.000317705 -0.0014601 0)
(0.000299914 -0.00148016 0)
(0.000280976 -0.00149489 0)
(0.000264574 -0.00150789 0)
(0.000251233 -0.00152003 0)
(0.000240298 -0.00153131 0)
(0.000231251 -0.00154178 0)
(0.000223689 -0.00155155 0)
(0.000217307 -0.00156073 0)
(0.00021187 -0.00156939 0)
(0.000207196 -0.00157764 0)
(0.000203138 -0.00158555 0)
(0.000199582 -0.00159317 0)
(0.000196429 -0.00160058 0)
(0.000193598 -0.0016078 0)
(0.000191021 -0.00161489 0)
(0.000476181 -0.00136277 0)
(0.000456731 -0.00139536 0)
(0.000435691 -0.00142132 0)
(0.000413145 -0.00144112 0)
(0.00038926 -0.00145526 0)
(0.000367559 -0.00146754 0)
(0.000349189 -0.00147929 0)
(0.00033368 -0.00149041 0)
(0.000320567 -0.00150089 0)
(0.000309441 -0.00151073 0)
(0.000299954 -0.00152 0)
(0.000291822 -0.00152875 0)
(0.000284809 -0.00153705 0)
(0.000278723 -0.00154496 0)
(0.000273404 -0.00155255 0)
(0.000268718 -0.00155985 0)
(0.000264553 -0.00156693 0)
(0.000260811 -0.00157382 0)
(0.000257405 -0.00158055 0)
(0.000583433 -0.00135518 0)
(0.000557852 -0.00138088 0)
(0.000530753 -0.00139988 0)
(0.000502292 -0.00141285 0)
(0.000475978 -0.00142398 0)
(0.00045304 -0.0014348 0)
(0.000433153 -0.00144523 0)
(0.000415966 -0.00145519 0)
(0.000401123 -0.00146465 0)
(0.000388297 -0.00147362 0)
(0.000377191 -0.00148213 0)
(0.000367547 -0.00149021 0)
(0.000359143 -0.00149791 0)
(0.000351789 -0.00150527 0)
(0.000345319 -0.00151232 0)
(0.000339594 -0.00151912 0)
(0.000334488 -0.0015257 0)
(0.000329894 -0.00153208 0)
(0.000325715 -0.0015383 0)
(0.000683822 -0.00133995 0)
(0.000652274 -0.00135775 0)
(0.000619506 -0.00136919 0)
(0.000588995 -0.00137889 0)
(0.000561878 -0.00138841 0)
(0.000537904 -0.00139768 0)
(0.000516799 -0.00140664 0)
(0.000498276 -0.00141526 0)
(0.000482048 -0.00142351 0)
(0.000467837 -0.00143139 0)
(0.000455388 -0.00143891 0)
(0.000444468 -0.0014461 0)
(0.000434871 -0.00145297 0)
(0.000426413 -0.00145956 0)
(0.00041893 -0.00146588 0)
(0.00041228 -0.00147199 0)
(0.000406333 -0.00147788 0)
(0.000400975 -0.00148359 0)
(0.000396104 -0.00148914 0)
(0.000777413 -0.00131597 0)
(0.00074063 -0.00132575 0)
(0.000706151 -0.00133376 0)
(0.00067509 -0.00134165 0)
(0.000647248 -0.0013494 0)
(0.000622399 -0.00135695 0)
(0.000600302 -0.0013643 0)
(0.00058071 -0.0013714 0)
(0.000563372 -0.00137825 0)
(0.000548046 -0.00138484 0)
(0.000534505 -0.00139118 0)
(0.000522535 -0.00139727 0)
(0.000511944 -0.00140312 0)
(0.000502557 -0.00140875 0)
(0.000494214 -0.00141417 0)
(0.000486774 -0.00141941 0)
(0.000480105 -0.00142447 0)
(0.000474093 -0.00142936 0)
(0.000468629 -0.00143411 0)
(0.000865516 -0.0012839 0)
(0.000827182 -0.00128998 0)
(0.000792287 -0.00129594 0)
(0.000760688 -0.00130181 0)
(0.000732206 -0.00130758 0)
(0.000706631 -0.00131325 0)
(0.00068374 -0.00131881 0)
(0.000663304 -0.00132424 0)
(0.000645095 -0.00132953 0)
(0.000628893 -0.00133467 0)
(0.000614487 -0.00133965 0)
(0.00060168 -0.00134449 0)
(0.000590291 -0.00134916 0)
(0.000580152 -0.00135369 0)
(0.000571109 -0.00135807 0)
(0.000563022 -0.0013623 0)
(0.000555765 -0.0013664 0)
(0.000549218 -0.00137037 0)
(0.000543275 -0.00137421 0)
(0.000952015 -0.00124884 0)
(0.000913259 -0.00125258 0)
(0.000877898 -0.00125621 0)
(0.000845801 -0.0012598 0)
(0.000816785 -0.00126341 0)
(0.000790636 -0.00126703 0)
(0.000767136 -0.00127066 0)
(0.000746063 -0.00127429 0)
(0.0007272 -0.00127789 0)
(0.000710337 -0.00128147 0)
(0.000695277 -0.00128499 0)
(0.000681833 -0.00128845 0)
(0.000669832 -0.00129184 0)
(0.000659114 -0.00129515 0)
(0.00064953 -0.00129838 0)
(0.000640945 -0.00130152 0)
(0.000633232 -0.00130457 0)
(0.000626278 -0.00130753 0)
(0.000619974 -0.00131039 0)
(0.00103811 -0.00121274 0)
(0.000998766 -0.00121372 0)
(0.000962938 -0.00121473 0)
(0.000930424 -0.00121587 0)
(0.000901 -0.00121717 0)
(0.000874438 -0.00121863 0)
(0.00085051 -0.00122024 0)
(0.000828991 -0.00122199 0)
(0.000809671 -0.00122383 0)
(0.000792345 -0.00122576 0)
(0.000776823 -0.00122775 0)
(0.000762926 -0.00122977 0)
(0.000750488 -0.00123181 0)
(0.000739354 -0.00123385 0)
(0.000729382 -0.00123587 0)
(0.00072044 -0.00123786 0)
(0.000712406 -0.00123981 0)
(0.000705167 -0.00124172 0)
(0.000698619 -0.00124356 0)
(0.00112358 -0.00117532 0)
(0.00108364 -0.00117329 0)
(0.00104741 -0.00117154 0)
(0.00101459 -0.00117013 0)
(0.000984896 -0.00116906 0)
(0.000958076 -0.00116832 0)
(0.000933887 -0.00116789 0)
(0.0009121 -0.00116772 0)
(0.000892501 -0.00116779 0)
(0.00087489 -0.00116805 0)
(0.000859079 -0.00116848 0)
(0.000844896 -0.00116904 0)
(0.00083218 -0.0011697 0)
(0.000820781 -0.00117044 0)
(0.000810562 -0.00117124 0)
(0.000801395 -0.00117206 0)
(0.000793163 -0.0011729 0)
(0.000785756 -0.00117373 0)
(0.000779073 -0.00117455 0)
(0.00120816 -0.00113646 0)
(0.00116779 -0.00113133 0)
(0.0011313 -0.00112677 0)
(0.00109831 -0.00112279 0)
(0.0010685 -0.00111935 0)
(0.00104158 -0.00111642 0)
(0.00101729 -0.00111395 0)
(0.000995392 -0.0011119 0)
(0.000975676 -0.0011102 0)
(0.000957938 -0.00110881 0)
(0.000941994 -0.0011077 0)
(0.000927674 -0.00110681 0)
(0.000914822 -0.00110611 0)
(0.000903293 -0.00110556 0)
(0.000892954 -0.00110514 0)
(0.000883682 -0.00110481 0)
(0.000875364 -0.00110456 0)
(0.000867894 -0.00110434 0)
(0.000861175 -0.00110416 0)
(0.00129155 -0.0010963 0)
(0.00125104 -0.00108804 0)
(0.00121451 -0.00108068 0)
(0.00118154 -0.00107415 0)
(0.00115178 -0.00106838 0)
(0.00112492 -0.0010633 0)
(0.00110068 -0.00105884 0)
(0.00107884 -0.00105494 0)
(0.00105915 -0.00105152 0)
(0.00104143 -0.00104853 0)
(0.00102549 -0.00104592 0)
(0.00101117 -0.00104362 0)
(0.00099831 -0.0010416 0)
(0.000986771 -0.00103981 0)
(0.000976425 -0.00103822 0)
(0.000967154 -0.00103678 0)
(0.000958848 -0.00103546 0)
(0.000951408 -0.00103425 0)
(0.00094474 -0.00103311 0)
(0.00137348 -0.00105505 0)
(0.00133317 -0.00104371 0)
(0.00129687 -0.00103359 0)
(0.00126415 -0.00102456 0)
(0.00123463 -0.00101652 0)
(0.00120801 -0.00100936 0)
(0.001184 -0.00100298 0)
(0.00116235 -0.000997297 0)
(0.00114284 -0.000992231 0)
(0.00112527 -0.000987707 0)
(0.00110947 -0.000983658 0)
(0.00109526 -0.000980021 0)
(0.00108251 -0.000976743 0)
(0.00107107 -0.000973771 0)
(0.00106082 -0.00097106 0)
(0.00105164 -0.00096857 0)
(0.00104343 -0.000966263 0)
(0.0010361 -0.000964108 0)
(0.00102956 -0.000962077 0)
(0.00145369 -0.00101291 0)
(0.00141396 -0.0009986 0)
(0.00137819 -0.00098582 0)
(0.00134597 -0.000974394 0)
(0.00131692 -0.00096417 0)
(0.00129072 -0.000955012 0)
(0.00126709 -0.000946801 0)
(0.00124579 -0.000939428 0)
(0.0012266 -0.000932796 0)
(0.00120932 -0.000926818 0)
(0.00119377 -0.000921416 0)
(0.0011798 -0.000916517 0)
(0.00116725 -0.000912057 0)
(0.00115601 -0.000907979 0)
(0.00114594 -0.000904229 0)
(0.00113694 -0.000900763 0)
(0.00112891 -0.000897536 0)
(0.00112176 -0.000894514 0)
(0.00111539 -0.000891663 0)
(0.00153197 -0.000970113 0)
(0.00149318 -0.000952992 0)
(0.00145826 -0.000937692 0)
(0.0014268 -0.000923993 0)
(0.00139843 -0.000911705 0)
(0.00137285 -0.000900663 0)
(0.00134978 -0.000890725 0)
(0.00132898 -0.000881763 0)
(0.00131024 -0.000873665 0)
(0.00129337 -0.000866329 0)
(0.0012782 -0.000859665 0)
(0.00126457 -0.000853593 0)
(0.00125234 -0.000848041 0)
(0.00124138 -0.000842942 0)
(0.00123158 -0.000838239 0)
(0.00122284 -0.000833879 0)
(0.00121505 -0.000829815 0)
(0.00120813 -0.000826006 0)
(0.001202 -0.000822416 0)
(0.00160812 -0.000926856 0)
(0.00157064 -0.000907135 0)
(0.00153686 -0.000889496 0)
(0.00150641 -0.000873682 0)