/*--------------------------------*- C++ -*----------------------------------*\
| =========                 |                                                 |
| \\      /  F ield         | OpenFOAM: The Open Source CFD Toolbox           |
|  \\    /   O peration     | Version:  v2012                                 |
|   \\  /    A nd           | Website:  www.openfoam.com                      |
|    \\/     M anipulation  |                                                 |
\*---------------------------------------------------------------------------*/
FoamFile
{
    version     2.0;
    format      ascii;
    class       volScalarField;
    location    "7";
    object      sigmaHyd;
}
// * * * * * * * * * * * * * * * * * * * * * * * * * * * * * * * * * * * * * //

dimensions      [1 -1 -2 0 0 0 0];


internalField   nonuniform List<scalar> 
8000
(
1.35626e+08
1.2756e+08
1.4337e+08
1.32243e+08
1.49764e+08
1.36214e+08
1.54827e+08
1.39784e+08
1.58577e+08
1.42861e+08
1.60985e+08
1.45214e+08
1.61909e+08
1.46509e+08
1.61104e+08
1.4407e+08
1.52776e+08
1.36228e+08
1.43884e+08
1.29939e+08
1.36212e+08
1.24419e+08
1.29454e+08
1.19388e+08
1.23405e+08
1.14718e+08
1.17915e+08
1.10338e+08
1.12876e+08
1.06201e+08
1.08204e+08
1.0227e+08
1.03833e+08
9.8518e+07
9.97102e+07
9.49193e+07
9.5789e+07
9.14486e+07
9.20271e+07
8.80726e+07
1.4023e+08
1.27175e+08
1.43848e+08
1.32811e+08
1.47895e+08
1.37443e+08
1.51507e+08
1.41192e+08
1.54317e+08
1.44003e+08
1.56216e+08
1.45792e+08
1.57396e+08
1.46646e+08
1.53981e+08
1.39906e+08
1.47452e+08
1.33186e+08
1.40604e+08
1.27315e+08
1.34097e+08
1.22068e+08
1.28051e+08
1.17275e+08
1.22456e+08
1.12826e+08
1.17268e+08
1.08652e+08
1.12437e+08
1.04703e+08
1.07917e+08
1.00944e+08
1.03666e+08
9.73471e+07
9.96512e+07
9.38903e+07
9.58461e+07
9.05586e+07
9.22402e+07
8.73525e+07
1.40604e+08
1.28014e+08
1.43257e+08
1.3359e+08
1.45919e+08
1.38139e+08
1.48279e+08
1.41571e+08
1.50139e+08
1.4383e+08
1.51374e+08
1.44943e+08
1.51437e+08
1.41109e+08
1.46632e+08
1.34683e+08
1.41325e+08
1.289e+08
1.35836e+08
1.23666e+08
1.30404e+08
1.1888e+08
1.25167e+08
1.14452e+08
1.20179e+08
1.10315e+08
1.15454e+08
1.06414e+08
1.10984e+08
1.02713e+08
1.06751e+08
9.91809e+07
1.02736e+08
9.57955e+07
9.89194e+07
9.25389e+07
9.52797e+07
8.93967e+07
9.17906e+07
8.63528e+07
1.38707e+08
1.28983e+08
1.41176e+08
1.34041e+08
1.43197e+08
1.37972e+08
1.44791e+08
1.40675e+08
1.45903e+08
1.42145e+08
1.46425e+08
1.39284e+08
1.43277e+08
1.33978e+08
1.3935e+08
1.28825e+08
1.35009e+08
1.2396e+08
1.30473e+08
1.19408e+08
1.25899e+08
1.15147e+08
1.21393e+08
1.11144e+08
1.17015e+08
1.07365e+08
1.12798e+08
1.03779e+08
1.08752e+08
1.0036e+08
1.04878e+08
9.70887e+07
1.0117e+08
9.39461e+07
9.76177e+07
9.09177e+07
9.4209e+07
8.799e+07
9.09323e+07
8.5151e+07
1.35585e+08
1.29346e+08
1.37973e+08
1.33614e+08
1.39685e+08
1.36627e+08
1.40801e+08
1.38363e+08
1.41333e+08
1.35805e+08
1.391e+08
1.3157e+08
1.35881e+08
1.27252e+08
1.32418e+08
1.22981e+08
1.28726e+08
1.18848e+08
1.2489e+08
1.14893e+08
1.20997e+08
1.11126e+08
1.17117e+08
1.07542e+08
1.13301e+08
1.04127e+08
1.09579e+08
1.00865e+08
1.0597e+08
9.77425e+07
1.02483e+08
9.47453e+07
9.91181e+07
9.18608e+07
9.58744e+07
8.90778e+07
9.2747e+07
8.63862e+07
8.97297e+07
8.37767e+07
1.31851e+08
1.28603e+08
1.34087e+08
1.31876e+08
1.35591e+08
1.33813e+08
1.36488e+08
1.31624e+08
1.34762e+08
1.28171e+08
1.31905e+08
1.24586e+08
1.28946e+08
1.20939e+08
1.25854e+08
1.17304e+08
1.22633e+08
1.1374e+08
1.19322e+08
1.10285e+08
1.15966e+08
1.06956e+08
1.12609e+08
1.03759e+08
1.09285e+08
1.00691e+08
1.06019e+08
9.77472e+07
1.0283e+08
9.49195e+07
9.97269e+07
9.21997e+07
9.67163e+07
8.95796e+07
9.37998e+07
8.70512e+07
9.0977e+07
8.46072e+07
8.82457e+07
8.22405e+07
1.27913e+08
1.26414e+08
1.30055e+08
1.28559e+08
1.31711e+08
1.27155e+08
1.30291e+08
1.24293e+08
1.27725e+08
1.21275e+08
1.25086e+08
1.18154e+08
1.22379e+08
1.14985e+08
1.196e+08
1.11819e+08
1.16754e+08
1.08699e+08
1.13858e+08
1.05655e+08
1.10938e+08
1.02703e+08
1.08018e+08
9.98534e+07
1.05121e+08
9.71084e+07
1.02265e+08
9.44668e+07
9.94649e+07
9.19252e+07
9.67298e+07
8.94787e+07
9.40661e+07
8.71223e+07
9.14776e+07
8.48504e+07
8.89658e+07
8.26579e+07
8.6531e+07
8.05397e+07
1.24396e+08
1.22597e+08
1.27067e+08
1.2261e+08
1.25815e+08
1.20228e+08
1.23451e+08
1.1765e+08
1.21031e+08
1.1493e+08
1.18578e+08
1.12132e+08
1.16099e+08
1.09306e+08
1.13593e+08
1.06492e+08
1.11062e+08
1.03721e+08
1.08513e+08
1.01015e+08
1.05959e+08
9.83876e+07
1.03413e+08
9.58479e+07
1.0089e+08
9.3399e+07
9.84017e+07
9.10413e+07
9.59582e+07
8.87732e+07
9.35673e+07
8.65919e+07
9.12348e+07
8.4494e+07
8.89645e+07
8.24757e+07
8.6759e+07
8.05333e+07
8.46196e+07
7.86631e+07
1.22723e+08
1.17902e+08
1.21683e+08
1.16168e+08
1.19309e+08
1.1394e+08
1.16936e+08
1.11492e+08
1.14606e+08
1.08945e+08
1.12309e+08
1.06364e+08
1.10034e+08
1.03788e+08
1.07772e+08
1.01246e+08
1.05517e+08
9.87588e+07
1.0327e+08
9.63394e+07
1.01035e+08
9.39971e+07
9.88177e+07
9.17371e+07
9.6627e+07
8.95616e+07
9.44697e+07
8.74709e+07
9.23525e+07
8.54637e+07
9.02812e+07
8.3538e+07
8.82603e+07
8.16912e+07
8.62933e+07
7.99206e+07
8.43827e+07
7.82232e+07
8.25304e+07
7.65964e+07
1.19032e+08
1.12428e+08
1.15768e+08
1.10318e+08
1.13054e+08
1.0796e+08
1.10624e+08
1.05524e+08
1.08361e+08
1.03078e+08
1.06205e+08
1.00661e+08
1.04118e+08
9.82908e+07
1.02078e+08
9.59824e+07
1.00073e+08
9.37443e+07
9.80972e+07
9.15827e+07
9.61478e+07
8.9501e+07
9.42264e+07
8.7501e+07
9.23359e+07
8.55831e+07
9.04802e+07
8.37464e+07
8.8663e+07
8.19894e+07
8.68882e+07
8.03102e+07
8.51589e+07
7.87065e+07
8.34779e+07
7.71761e+07
8.18475e+07
7.57166e+07
8.02695e+07
7.43259e+07
1.13271e+08
1.06728e+08
1.09649e+08
1.04219e+08
1.06798e+08
1.01774e+08
1.04367e+08
9.93918e+07
1.02189e+08
9.70788e+07
1.00174e+08
9.48412e+07
9.82696e+07
9.26826e+07
9.64425e+07
9.06052e+07
9.46729e+07
8.861e+07
9.29489e+07
8.66974e+07
9.12639e+07
8.48669e+07
8.96151e+07
8.31178e+07
8.80019e+07
8.14485e+07
8.64251e+07
7.98575e+07
8.48864e+07
7.83427e+07
8.33879e+07
7.69022e+07
8.19316e+07
7.55338e+07
8.05194e+07
7.42356e+07
7.91533e+07
7.30056e+07
7.78349e+07
7.18421e+07
1.05859e+08
1.00216e+08
1.02699e+08
9.76199e+07
1.00087e+08
9.52291e+07
9.7847e+07
9.29825e+07
9.58597e+07
9.0854e+07
9.40477e+07
8.88305e+07
9.236e+07
8.6904e+07
9.07631e+07
8.50693e+07
8.92351e+07
8.33223e+07
8.77616e+07
8.16599e+07
8.63337e+07
8.00791e+07
8.49463e+07
7.85772e+07
8.35967e+07
7.71519e+07
8.22838e+07
7.58009e+07
8.10079e+07
7.45219e+07
7.97697e+07
7.33129e+07
7.85703e+07
7.2172e+07
7.74113e+07
7.10976e+07
7.62939e+07
7.00879e+07
7.52198e+07
6.91415e+07
9.7318e+07
9.30415e+07
9.48842e+07
9.05717e+07
9.27621e+07
8.83493e+07
9.0895e+07
8.63071e+07
8.92229e+07
8.44071e+07
8.76976e+07
8.26268e+07
8.62828e+07
8.09517e+07
8.49523e+07
7.93719e+07
8.36877e+07
7.78803e+07
8.24764e+07
7.64713e+07
8.13096e+07
7.51405e+07
8.01821e+07
7.38842e+07
7.90905e+07
7.26993e+07
7.80332e+07
7.15833e+07
7.70096e+07
7.05339e+07
7.60198e+07
6.95492e+07
7.50645e+07
6.86277e+07
7.41448e+07
6.77678e+07
7.3262e+07
6.69684e+07
7.24174e+07
6.62282e+07
8.81094e+07
8.53613e+07
8.6441e+07
8.31525e+07
8.49125e+07
8.11853e+07
8.35232e+07
7.94028e+07
8.22543e+07
7.77674e+07
8.10841e+07
7.62543e+07
7.99932e+07
7.48465e+07
7.89658e+07
7.35318e+07
7.79899e+07
7.23014e+07
7.70568e+07
7.11485e+07
7.61602e+07
7.00679e+07
7.52961e+07
6.90553e+07
7.44619e+07
6.81072e+07
7.36561e+07
6.72211e+07
7.28781e+07
6.63947e+07
7.21281e+07
6.56263e+07
7.14065e+07
6.49148e+07
7.07143e+07
6.42592e+07
7.00528e+07
6.36589e+07
6.94237e+07
6.3113e+07
7.85229e+07
7.73247e+07
7.75929e+07
7.54547e+07
7.66833e+07
7.38009e+07
7.58168e+07
7.23187e+07
7.49989e+07
7.09757e+07
7.42269e+07
6.97484e+07
7.34955e+07
6.862e+07
7.27989e+07
6.7578e+07
7.21323e+07
6.6613e+07
7.14916e+07
6.57179e+07
7.08741e+07
6.4887e+07
7.02779e+07
6.41157e+07
6.97018e+07
6.34006e+07
6.91453e+07
6.27387e+07
6.86085e+07
6.2128e+07
6.80915e+07
6.15671e+07
6.7595e+07
6.10551e+07
6.712e+07
6.0592e+07
6.66678e+07
6.01779e+07
6.62405e+07
5.9813e+07
6.87504e+07
6.9061e+07
6.85155e+07
6.75711e+07
6.82142e+07
6.62656e+07
6.78795e+07
6.51103e+07
6.75303e+07
6.40785e+07
6.71767e+07
6.31498e+07
6.68238e+07
6.23091e+07
6.64744e+07
6.15447e+07
6.61297e+07
6.08476e+07
6.57906e+07
6.02108e+07
6.54578e+07
5.96287e+07
6.51321e+07
5.90966e+07
6.48142e+07
5.86108e+07
6.4505e+07
5.81681e+07
6.42053e+07
5.77663e+07
6.39157e+07
5.74036e+07
6.36369e+07
5.70795e+07
6.33697e+07
5.67948e+07
6.31152e+07
5.65512e+07
6.28759e+07
5.63511e+07
5.89308e+07
6.06799e+07
5.93446e+07
5.95886e+07
5.96252e+07
5.8649e+07
5.9811e+07
5.78347e+07
5.99289e+07
5.71243e+07
5.9997e+07
5.65011e+07
6.00283e+07
5.59523e+07
6.00315e+07
5.54677e+07
6.00134e+07
5.50393e+07
5.99789e+07
5.46606e+07
5.99321e+07
5.43265e+07
5.98764e+07
5.40324e+07
5.98146e+07
5.37741e+07
5.97491e+07
5.35481e+07
5.96818e+07
5.3351e+07
5.9614e+07
5.318e+07
5.95462e+07
5.30332e+07
5.94785e+07
5.2911e+07
5.94107e+07
5.28173e+07
5.93441e+07
5.27595e+07
4.9172e+07
5.22739e+07
5.01875e+07
5.1585e+07
5.10164e+07
5.10162e+07
5.17006e+07
5.05468e+07
5.2272e+07
5.01604e+07
5.27541e+07
4.98438e+07
5.31651e+07
4.95866e+07
5.35186e+07
4.93808e+07
5.38251e+07
4.92197e+07
5.40932e+07
4.90983e+07
5.43296e+07
4.90118e+07
5.454e+07
4.89564e+07
5.47293e+07
4.8928e+07
5.49016e+07
4.89223e+07
5.506e+07
4.89343e+07
5.52069e+07
4.89583e+07
5.5343e+07
4.89879e+07
5.5467e+07
4.90177e+07
5.55749e+07
4.90483e+07
5.5662e+07
4.90965e+07
3.95612e+07
4.39215e+07
4.1131e+07
4.36291e+07
4.24709e+07
4.34263e+07
4.36255e+07
4.32976e+07
4.46298e+07
4.32306e+07
4.55113e+07
4.32155e+07
4.62915e+07
4.32447e+07
4.69874e+07
4.33122e+07
4.76127e+07
4.34137e+07
4.81783e+07
4.35456e+07
4.86931e+07
4.37052e+07
4.91646e+07
4.38903e+07
4.95989e+07
4.40985e+07
5.00013e+07
4.43268e+07
5.03762e+07
4.45703e+07
5.07269e+07
4.48213e+07
5.10552e+07
4.50658e+07
5.13594e+07
4.52814e+07
5.1629e+07
4.54381e+07
5.18377e+07
4.55335e+07
3.01695e+07
3.56897e+07
3.22451e+07
3.57804e+07
3.40565e+07
3.59318e+07
3.565e+07
3.61328e+07
3.70629e+07
3.63745e+07
3.83248e+07
3.66498e+07
3.94601e+07
3.69536e+07
4.04882e+07
3.72821e+07
4.14252e+07
3.7633e+07
4.22842e+07
3.80053e+07
4.30758e+07
3.83991e+07
4.38088e+07
3.88163e+07
4.44899e+07
3.92601e+07
4.5124e+07
3.97357e+07
4.57143e+07
4.02503e+07
4.6262e+07
4.08127e+07
4.67658e+07
4.14304e+07
4.72196e+07
4.20971e+07
4.76015e+07
4.27445e+07
4.78216e+07
4.30555e+07
2.10527e+07
2.7635e+07
2.35847e+07
2.80907e+07
2.58268e+07
2.85804e+07
2.78255e+07
2.90963e+07
2.9619e+07
2.9632e+07
3.12387e+07
3.01824e+07
3.27109e+07
3.07433e+07
3.40578e+07
3.13118e+07
3.52981e+07
3.18854e+07
3.64485e+07
3.24622e+07
3.75236e+07
3.3041e+07
3.85372e+07
3.36206e+07
3.9503e+07
3.42001e+07
4.04352e+07
3.47786e+07
4.13505e+07
3.53559e+07
4.22702e+07
3.59335e+07
4.32264e+07
3.65198e+07
4.42777e+07
3.71493e+07
4.55579e+07
3.79557e+07
4.74482e+07
3.94563e+07
1.22503e+07
1.98032e+07
1.51913e+07
2.06047e+07
1.78231e+07
2.14166e+07
2.0191e+07
2.22339e+07
2.23329e+07
2.30523e+07
2.42807e+07
2.38684e+07
2.60613e+07
2.46796e+07
2.76978e+07
2.54839e+07
2.92099e+07
2.628e+07
3.06148e+07
2.70673e+07
3.19276e+07
2.78453e+07
3.31618e+07
2.86145e+07
3.43298e+07
2.9376e+07
3.54433e+07
3.01319e+07
3.65131e+07
3.08867e+07
3.75493e+07
3.16485e+07
3.85585e+07
3.24318e+07
3.95329e+07
3.32567e+07
4.0402e+07
3.41194e+07
4.08339e+07
3.47992e+07
3.78922e+06
1.22283e+07
7.09771e+06
1.33556e+07
1.0082e+07
1.44731e+07
1.27856e+07
1.55775e+07
1.52456e+07
1.66661e+07
1.74936e+07
1.77371e+07
1.95568e+07
1.8789e+07
2.14584e+07
1.9821e+07
2.32184e+07
2.08328e+07
2.48539e+07
2.18247e+07
2.638e+07
2.27972e+07
2.78092e+07
2.37516e+07
2.91524e+07
2.46896e+07
3.04181e+07
2.56134e+07
3.16121e+07
2.65258e+07
3.27357e+07
2.74288e+07
3.37826e+07
2.83201e+07
3.47353e+07
2.91851e+07
3.55742e+07
2.99873e+07
3.63806e+07
3.07209e+07
-4.31186e+06
4.93599e+06
-670810
6.36973e+06
2.63349e+06
7.77598e+06
5.64282e+06
9.15274e+06
8.39339e+06
1.04985e+07
1.09165e+07
1.18124e+07
1.3239e+07
1.3094e+07
1.53843e+07
1.43433e+07
1.73723e+07
1.55608e+07
1.92204e+07
1.67472e+07
2.09433e+07
1.79035e+07
2.25533e+07
1.90311e+07
2.40607e+07
2.01309e+07
2.54732e+07
2.1204e+07
2.67965e+07
2.22498e+07
2.80336e+07
2.32662e+07
2.91867e+07
2.42474e+07
3.02619e+07
2.51856e+07
3.12771e+07
2.60775e+07
3.22435e+07
2.69222e+07
-1.20383e+07
-2.05345e+06
-8.09376e+06
-331583
-4.49744e+06
1.3472e+06
-1.20869e+06
2.98164e+06
1.80801e+06
4.57103e+06
4.58357e+06
6.11523e+06
7.14489e+06
7.61451e+06
9.51528e+06
9.06954e+06
1.1715e+07
1.04813e+07
1.37614e+07
1.18508e+07
1.56695e+07
1.31793e+07
1.74522e+07
1.44678e+07
1.91202e+07
1.57172e+07
2.06828e+07
1.69276e+07
2.2148e+07
1.80985e+07
2.35231e+07
1.92285e+07
2.48163e+07
2.03162e+07
2.60372e+07
2.13608e+07
2.7194e+07
2.23627e+07
2.82935e+07
2.33233e+07
-1.93767e+07
-8.72274e+06
-1.51533e+07
-6.72969e+06
-1.12892e+07
-4.79388e+06
-7.74416e+06
-2.91612e+06
-4.4831e+06
-1.09655e+06
-1.47519e+06
665240
1.30652e+06
2.37011e+06
3.88553e+06
4.01922e+06
6.28235e+06
5.61393e+06
8.51485e+06
7.1557e+06
1.05986e+07
8.64595e+06
1.25472e+07
1.0086e+07
1.43726e+07
1.14768e+07
1.60855e+07
1.28194e+07
1.76956e+07
1.41141e+07
1.9212e+07
1.53617e+07
2.06435e+07
1.6563e+07
2.1998e+07
1.77192e+07
2.32824e+07
1.8832e+07
2.45028e+07
1.99034e+07
-2.63135e+07
-1.50559e+07
-2.18329e+07
-1.28073e+07
-1.77224e+07
-1.06291e+07
-1.39419e+07
-8.52188e+06
-1.04562e+07
-6.48522e+06
-7.23429e+06
-4.51825e+06
-4.2491e+06
-2.6196e+06
-1.47676e+06
-787623
1.10365e+06
979515
3.5105e+06
2.68371e+06
5.76e+06
4.32687e+06
7.86649e+06
5.9108e+06
9.84275e+06
7.43726e+06
1.17003e+07
8.90791e+06
1.34496e+07
1.03244e+07
1.51e+07
1.16886e+07
1.66602e+07
1.30023e+07
1.81379e+07
1.42676e+07
1.95397e+07
1.54867e+07
2.08717e+07
1.6662e+07
-3.2834e+07
-2.10374e+07
-2.81161e+07
-1.85478e+07
-2.3779e+07
-1.61411e+07
-1.97823e+07
-1.38176e+07
-1.60903e+07
-1.15766e+07
-1.26718e+07
-9.41643e+06
-9.49915e+06
-7.3354e+06
-6.54824e+06
-5.33127e+06
-3.79768e+06
-3.40168e+06
-1.22861e+06
-1.54417e+06
1.17569e+06
243731
3.4301e+06
1.96448e+06
5.54792e+06
3.62051e+06
7.54107e+06
5.21426e+06
9.42025e+06
6.74813e+06
1.11951e+07
8.22459e+06
1.28742e+07
9.64612e+06
1.44654e+07
1.10152e+07
1.59754e+07
1.23344e+07
1.74105e+07
1.36063e+07
-3.89223e+07
-2.66514e+07
-3.39864e+07
-2.39345e+07
-2.94418e+07
-2.13128e+07
-2.52474e+07
-1.8786e+07
-2.13668e+07
-1.63528e+07
-1.77684e+07
-1.40113e+07
-1.44241e+07
-1.1759e+07
-1.13093e+07
-9.59314e+06
-8.4022e+06
-7.51082e+06
-5.68361e+06
-5.50896e+06
-3.13637e+06
-3.5845e+06
-745242
-1.73438e+06
1.50338e+06
44441.6
3.62168e+06
1.75497e+06
5.62057e+06
3.40015e+06
7.50983e+06
4.98292e+06
9.29825e+06
6.50616e+06
1.09937e+07
7.97269e+06
1.26033e+07
9.3853e+06
1.41333e+07
1.07467e+07
-4.45615e+07
-3.18821e+07
-3.94272e+07
-2.89514e+07
-3.46943e+07
-2.61277e+07
-3.03204e+07
-2.34101e+07
-2.62688e+07
-2.07971e+07
-2.25071e+07
-1.82858e+07
-1.90067e+07
-1.58733e+07
-1.57428e+07
-1.35562e+07
-1.26931e+07
-1.1331e+07
-9.83811e+06
-9.19394e+06
-7.16034e+06
-7.14147e+06
-4.64432e+06
-5.16996e+06
-2.2762e+06
-3.27586e+06
-43578.9
-1.45573e+06
2.06463e+06
293822
4.05839e+06
1.97608e+06
5.94665e+06
3.59423e+06
7.73746e+06
5.15138e+06
9.43808e+06
6.65051e+06
1.1055e+07
8.09451e+06
-4.97343e+07
-3.67137e+07
-4.4422e+07
-3.35824e+07
-3.95202e+07
-3.05698e+07
-3.49856e+07
-2.76743e+07
-3.07807e+07
-2.48936e+07
-2.68723e+07
-2.22244e+07
-2.32318e+07
-1.9663e+07
-1.98336e+07
-1.72053e+07
-1.66554e+07
-1.48472e+07
-1.36773e+07
-1.25845e+07
-1.08817e+07
-1.04129e+07
-8.25279e+06
-8.32847e+06
-5.77663e+06
-6.32715e+06
-3.44062e+06
-4.40511e+06
-1.23348e+06
-2.55864e+06
854918
-784146
2.83368e+06
921817
4.71104e+06
2.56257e+06
6.4944e+06
4.14131e+06
8.19047e+06
5.66109e+06
-5.44231e+07
-4.11306e+07
-4.89544e+07
-3.78124e+07
-4.39042e+07
-3.46242e+07
-3.92282e+07
-3.15638e+07
-3.4888e+07
-2.86281e+07
-3.08502e+07
-2.58131e+07
-2.70854e+07
-2.31143e+07
-2.3568e+07
-2.05271e+07
-2.02754e+07
-1.80465e+07
-1.71876e+07
-1.56678e+07
-1.42868e+07
-1.33864e+07
-1.15572e+07
-1.11978e+07
-8.98449e+06
-9.09762e+06
-6.55602e+06
-7.08168e+06
-4.26033e+06
-5.14599e+06
-2.08713e+06
-3.28671e+06
-27149.1
-1.50018e+06
1.92799e+06
217129
3.78584e+06
1.86858e+06
5.55324e+06
3.45741e+06
-5.86105e+07
-4.51183e+07
-5.30087e+07
-4.16272e+07
-4.7832e+07
-3.82771e+07
-4.30348e+07
-3.50653e+07
-3.85781e+07
-3.19879e+07
-3.44279e+07
-2.90398e+07
-3.0555e+07
-2.62157e+07
-2.69334e+07
-2.35101e+07
-2.35406e+07
-2.09177e+07
-2.03565e+07
-1.84331e+07
-1.73632e+07
-1.60513e+07
-1.45449e+07
-1.37674e+07
-1.18873e+07
-1.15768e+07
-9.37731e+06
-9.47512e+06
-7.00351e+06
-7.45801e+06
-4.75539e+06
-5.52145e+06
-2.62351e+06
-3.66159e+06
-599360
-1.87474e+06
1.32475e+06
-157411
3.15575e+06
1.49379e+06
-6.22797e+07
-4.86635e+07
-5.65706e+07
-4.50139e+07
-5.12909e+07
-4.15166e+07
-4.63938e+07
-3.81679e+07
-4.18398e+07
-3.49627e+07
-3.75948e+07
-3.18949e+07
-3.36295e+07
-2.89579e+07
-2.99185e+07
-2.61455e+07
-2.64394e+07
-2.34517e+07
-2.31722e+07
-2.0871e+07
-2.00992e+07
-1.83981e+07
-1.72044e+07
-1.60279e+07
-1.44734e+07
-1.37555e+07
-1.18931e+07
-1.15762e+07
-9.45176e+06
-9.48555e+06
-7.13875e+06
-7.47921e+06
-4.94444e+06
-5.55318e+06
-2.86014e+06
-3.70367e+06
-878039
-1.92712e+06
1.00887e+06
-220092
-6.54136e+07
-5.17557e+07
-5.96275e+07
-4.79623e+07
-5.42711e+07
-4.43333e+07
-4.92968e+07
-4.08638e+07
-4.46647e+07
-3.75465e+07
-4.03416e+07
-3.4373e+07
-3.62991e+07
-3.13352e+07
-3.25128e+07
-2.84265e+07
-2.8961e+07
-2.56412e+07
-2.5624e+07
-2.29736e+07
-2.24841e+07
-2.04186e+07
-1.95251e+07
-1.79709e+07
-1.67325e+07
-1.56254e+07
-1.40932e+07
-1.33769e+07
-1.15951e+07
-1.12207e+07
-9.22745e+06
-9.15211e+06
-6.98043e+06
-7.16697e+06
-4.8451e+06
-5.26139e+06
-2.81341e+06
-3.43187e+06
-878256
-1.67521e+06
-6.79954e+07
-5.43888e+07
-6.21706e+07
-5.04659e+07
-5.6768e+07
-4.6724e+07
-5.17396e+07
-4.31536e+07
-4.7047e+07
-3.97415e+07
-4.26599e+07
-3.64744e+07
-3.85537e+07
-3.33449e+07
-3.47059e+07
-3.0348e+07
-3.10952e+07
-2.74791e+07
-2.7702e+07
-2.47332e+07
-2.45082e+07
-2.21048e+07
-2.14976e+07
-1.95886e+07
-1.86555e+07
-1.71789e+07
-1.59685e+07
-1.48701e+07
-1.34247e+07
-1.26569e+07
-1.1013e+07
-1.05341e+07
-8.72343e+06
-8.49704e+06
-6.54667e+06
-6.54156e+06
-4.47423e+06
-4.66433e+06
-2.49855e+06
-2.86301e+06
-7.00081e+07
-5.6566e+07
-6.42008e+07
-5.25285e+07
-5.87879e+07
-4.87028e+07
-5.37241e+07
-4.50606e+07
-4.89793e+07
-4.15624e+07
-4.45386e+07
-3.82033e+07
-4.03822e+07
-3.49838e+07
-3.64877e+07
-3.19027e+07
-3.28331e+07
-2.89565e+07
-2.93979e+07
-2.61401e+07
-2.61638e+07
-2.34474e+07
-2.31143e+07
-2.08724e+07
-2.02346e+07
-1.84085e+07
-1.75114e+07
-1.60496e+07
-1.49328e+07
-1.37895e+07
-1.24879e+07
-1.16219e+07
-1.01664e+07
-9.54126e+06
-7.95865e+06
-7.54215e+06
-5.85541e+06
-5.62063e+06
-3.84767e+06
-3.77564e+06
-7.14444e+07
-5.8308e+07
-6.5749e+07
-5.41924e+07
-6.03576e+07
-5.0373e+07
-5.52372e+07
-4.66372e+07
-5.04409e+07
-4.30225e+07
-4.59614e+07
-3.95541e+07
-4.17735e+07
-3.62392e+07
-3.78506e+07
-3.3076e+07
-3.41688e+07
-3.0059e+07
-3.07068e+07
-2.7181e+07
-2.74461e+07
-2.44345e+07
-2.43703e+07
-2.1812e+07
-2.14647e+07
-1.93062e+07
-1.87161e+07
-1.69098e+07
-1.61131e+07
-1.46156e+07
-1.36449e+07
-1.24165e+07
-1.13019e+07
-1.03047e+07
-9.07453e+06
-8.27184e+06
-6.95292e+06
-6.30914e+06
-4.92498e+06
-4.41064e+06
-7.23789e+07
-5.96541e+07
-6.69689e+07
-5.59631e+07
-6.14024e+07
-5.18754e+07
-5.62163e+07
-4.78889e+07
-5.14037e+07
-4.40922e+07
-4.69194e+07
-4.04925e+07
-4.27263e+07
-3.70797e+07
-3.87957e+07
-3.3841e+07
-3.51036e+07
-3.07637e+07
-3.16294e+07
-2.78365e+07
-2.83552e+07
-2.50496e+07
-2.52649e+07
-2.23936e+07
-2.23442e+07
-1.98605e+07
-1.95801e+07
-1.74426e+07
-1.69613e+07
-1.51324e+07
-1.44778e+07
-1.29223e+07
-1.21207e+07
-1.08037e+07
-9.8827e+06
-8.76463e+06
-7.75662e+06
-6.78438e+06
-5.73085e+06
-4.81761e+06
-7.38229e+07
-6.37327e+07
-6.725e+07
-5.79606e+07
-6.17172e+07
-5.30516e+07
-5.66379e+07
-4.86741e+07
-5.18919e+07
-4.4667e+07
-4.74414e+07
-4.09429e+07
-4.32637e+07
-3.74502e+07
-3.93389e+07
-3.4156e+07
-3.56479e+07
-3.10381e+07
-3.21727e+07
-2.80799e+07
-2.88963e+07
-2.52688e+07
-2.5803e+07
-2.25949e+07
-2.28785e+07
-2.00502e+07
-2.01095e+07
-1.76282e+07
-1.74838e+07
-1.53242e+07
-1.49903e+07
-1.31354e+07
-1.26193e+07
-1.10611e+07
-1.03637e+07
-9.10405e+06
-8.22278e+06
-7.27212e+06
-6.21438e+06
-5.58304e+06
-3.36139e+06
-336967
-3.93888e+06
361583
-3.9551e+06
1.37816e+06
-3.68691e+06
2.68064e+06
-3.17467e+06
4.26009e+06
-2.42802e+06
6.1072e+06
-1.45128e+06
8.21128e+06
-247984
1.056e+07
1.17813e+06
1.31395e+07
2.82302e+06
1.59335e+07
4.68246e+06
1.89236e+07
6.75232e+06
2.20886e+07
9.02906e+06
2.54041e+07
1.15105e+07
2.8842e+07
1.41972e+07
3.23694e+07
1.70951e+07
3.59473e+07
2.02209e+07
3.95293e+07
2.36144e+07
4.30596e+07
2.7374e+07
4.64745e+07
3.17883e+07
4.9713e+07
952690
3.57055e+06
666024
4.16087e+06
618028
5.04383e+06
793792
6.18473e+06
1.17643e+06
7.57119e+06
1.75771e+06
9.19433e+06
2.53289e+06
1.10452e+07
3.49841e+06
1.31138e+07
4.65093e+06
1.53891e+07
5.98708e+06
1.78584e+07
7.50335e+06
2.05073e+07
9.19622e+06
2.33194e+07
1.10624e+07
2.62762e+07
1.30993e+07
2.93562e+07
1.53055e+07
3.25352e+07
1.76827e+07
3.5785e+07
2.02376e+07
3.90723e+07
2.29878e+07
4.23559e+07
2.59756e+07
4.55807e+07
2.93178e+07
4.86565e+07
4.94266e+06
7.06731e+06
4.74543e+06
7.59771e+06
4.69577e+06
8.37402e+06
4.81745e+06
9.37719e+06
5.10969e+06
1.0597e+07
5.5691e+06
1.2026e+07
6.19253e+06
1.36568e+07
6.97708e+06
1.54816e+07
7.9199e+06
1.74917e+07
9.01808e+06
1.96772e+07
1.02686e+07
2.20268e+07
1.16683e+07
2.45278e+07
1.32141e+07
2.71656e+07
1.49033e+07
2.99237e+07
1.67339e+07
3.27831e+07
1.87054e+07
3.57223e+07
2.08202e+07
3.87156e+07
2.30871e+07
4.17325e+07
2.55289e+07
4.47328e+07
2.82093e+07
4.76545e+07
8.57222e+06
1.02401e+07
8.40258e+06
1.07222e+07
8.35283e+06
1.14099e+07
8.44063e+06
1.2295e+07
8.66975e+06
1.33708e+07
9.03975e+06
1.46315e+07
9.54905e+06
1.60713e+07
1.01956e+07
1.76842e+07
1.09771e+07
1.94634e+07
1.18911e+07
2.14012e+07
1.29348e+07
2.34889e+07
1.41056e+07
2.57165e+07
1.54005e+07
2.80727e+07
1.68166e+07
3.05445e+07
1.83517e+07
3.31171e+07
2.0004e+07
3.57735e+07
2.17737e+07
3.84938e+07
2.36646e+07
4.12545e+07
2.56888e+07
4.40261e+07
2.78817e+07
4.67664e+07
1.18586e+07
1.31369e+07
1.17006e+07
1.35739e+07
1.16497e+07
1.41855e+07
1.17147e+07
1.49688e+07
1.18988e+07
1.59199e+07
1.22027e+07
1.70347e+07
1.26257e+07
1.83087e+07
1.31665e+07
1.97373e+07
1.38233e+07
2.13154e+07
1.4594e+07
2.3037e+07
1.54764e+07
2.48955e+07
1.64678e+07
2.6883e+07
1.75656e+07
2.89908e+07
1.8767e+07
3.12088e+07
2.00692e+07
3.35254e+07
2.14701e+07
3.5927e+07
2.29683e+07
3.83982e+07
2.45647e+07
4.09207e+07
2.62649e+07
4.34719e+07
2.80876e+07
4.60218e+07
1.48348e+07
1.57904e+07
1.4686e+07
1.61845e+07
1.46344e+07
1.67295e+07
1.46832e+07
1.74247e+07
1.48344e+07
1.82677e+07
1.50887e+07
1.92557e+07
1.54459e+07
2.03856e+07
1.5905e+07
2.16539e+07
1.64648e+07
2.30566e+07
1.71235e+07
2.45893e+07
1.78792e+07
2.62468e+07
1.87295e+07
2.80233e+07
1.96719e+07
2.9912e+07
2.07039e+07
3.1905e+07
2.18225e+07
3.39932e+07
2.30252e+07
3.61662e+07
2.43098e+07
3.84116e+07
2.56755e+07
4.07151e+07
2.71238e+07
4.30593e+07
2.86636e+07
4.5422e+07
1.75357e+07
1.82263e+07
1.73968e+07
1.85804e+07
1.73456e+07
1.90668e+07
1.73828e+07
1.96851e+07
1.75095e+07
2.04341e+07
1.7726e+07
2.13118e+07
1.80323e+07
2.23162e+07
1.84277e+07
2.34445e+07
1.89112e+07
2.4694e+07
1.94816e+07
2.60612e+07
2.0137e+07
2.75424e+07
2.08755e+07
2.91331e+07
2.16948e+07
3.08281e+07
2.25925e+07
3.26215e+07
2.35658e+07
3.45061e+07
2.4612e+07
3.64739e+07
2.57285e+07
3.85151e+07
2.69133e+07
4.06186e+07
2.81658e+07
4.27708e+07
2.94892e+07
4.49549e+07
1.99932e+07
2.04665e+07
1.98651e+07
2.07841e+07
1.98156e+07
2.12185e+07
1.98447e+07
2.17695e+07
1.99527e+07
2.24364e+07
2.01399e+07
2.32179e+07
2.04061e+07
2.41126e+07
2.07511e+07
2.51185e+07
2.11739e+07
2.62337e+07
2.16737e+07
2.74557e+07
2.2249e+07
2.87817e+07
2.28981e+07
3.02084e+07
2.3619e+07
3.1732e+07
2.44096e+07
3.33479e+07
2.52672e+07
3.50507e+07
2.61892e+07
3.68343e+07
2.71728e+07
3.86911e+07
2.82156e+07
4.06123e+07
2.93155e+07
4.25874e+07
3.04729e+07
4.46035e+07
2.22357e+07
2.25303e+07
2.21186e+07
2.2815e+07
2.20718e+07
2.32033e+07
2.20951e+07
2.36952e+07
2.21887e+07
2.42901e+07
2.23526e+07
2.49873e+07
2.25869e+07
2.57858e+07
2.28912e+07
2.66843e+07
2.3265e+07
2.76815e+07
2.37076e+07
2.87755e+07
2.4218e+07
2.99645e+07
2.47946e+07
3.12461e+07
2.5436e+07
3.26174e+07
2.61401e+07
3.40752e+07
2.69047e+07
3.56154e+07
2.77273e+07
3.72333e+07
2.86052e+07
3.89232e+07
2.95356e+07
4.06784e+07
3.05162e+07
4.24906e+07
3.15454e+07
4.435e+07
2.42877e+07
2.44351e+07
2.41813e+07
2.46902e+07
2.41378e+07
2.50377e+07
2.4157e+07
2.54773e+07
2.42392e+07
2.60089e+07
2.43842e+07
2.66319e+07
2.45923e+07
2.73457e+07
2.48632e+07
2.81495e+07
2.51967e+07
2.90425e+07
2.55922e+07
3.00234e+07
2.60491e+07
3.1091e+07
2.65661e+07
3.22436e+07
2.71421e+07
3.34793e+07
2.77755e+07
3.47958e+07
2.84642e+07
3.619e+07
2.9206e+07
3.76586e+07
2.99986e+07
3.91973e+07
3.08393e+07
4.0801e+07
3.17255e+07
4.24635e+07
3.26549e+07
4.41771e+07
2.61704e+07
2.61962e+07
2.6074e+07
2.6425e+07
2.6034e+07
2.67362e+07
2.60503e+07
2.71296e+07
2.61231e+07
2.76052e+07
2.62525e+07
2.81625e+07
2.64386e+07
2.88014e+07
2.66815e+07
2.95214e+07
2.6981e+07
3.03219e+07
2.7337e+07
3.12023e+07
2.77488e+07
3.21618e+07
2.82159e+07
3.31994e+07
2.87372e+07
3.43139e+07
2.93114e+07
3.55035e+07
2.9937e+07
3.67663e+07
3.06122e+07
3.80999e+07
3.13348e+07
3.95012e+07
3.21025e+07
4.09664e+07
3.29126e+07
4.2491e+07
3.37629e+07
4.40691e+07
2.79021e+07
2.78278e+07
2.7815e+07
2.80331e+07
2.77784e+07
2.8312e+07
2.77925e+07
2.86644e+07
2.78574e+07
2.90901e+07
2.79733e+07
2.95891e+07
2.81405e+07
3.01613e+07
2.83593e+07
3.08066e+07
2.86296e+07
3.15247e+07
2.89515e+07
3.23154e+07
2.93247e+07
3.31783e+07
2.97488e+07
3.41128e+07
3.02232e+07
3.51183e+07
3.0747e+07
3.61936e+07
3.13191e+07
3.73377e+07
3.19378e+07
3.85487e+07
3.26016e+07
3.98247e+07
3.33083e+07
4.1163e+07
3.40558e+07
4.25602e+07
3.48417e+07
4.40122e+07
2.9499e+07
2.93426e+07
2.94202e+07
2.9527e+07
2.93868e+07
2.9777e+07
2.93989e+07
3.00926e+07
2.94568e+07
3.04739e+07
2.95609e+07
3.09208e+07
2.97115e+07
3.14334e+07
2.99089e+07
3.20118e+07
3.01534e+07
3.26561e+07
3.04453e+07
3.33662e+07
3.07845e+07
3.41422e+07
3.11709e+07
3.49838e+07
3.16042e+07
3.58908e+07
3.20839e+07
3.68627e+07
3.26092e+07
3.78988e+07
3.3179e+07
3.89982e+07
3.37919e+07
4.01595e+07
3.44463e+07
4.1381e+07
3.51404e+07
4.26603e+07
3.58722e+07
4.39945e+07
3.09751e+07
3.07521e+07
3.09038e+07
3.09178e+07
3.08731e+07
3.11419e+07
3.08834e+07
3.14246e+07
3.09349e+07
3.17659e+07
3.10282e+07
3.2166e+07
3.11636e+07
3.2625e+07
3.13417e+07
3.31432e+07
3.15629e+07
3.37209e+07
3.18277e+07
3.43583e+07
3.21362e+07
3.50556e+07
3.24887e+07
3.58131e+07
3.28851e+07
3.66307e+07
3.33252e+07
3.75085e+07
3.38086e+07
3.84461e+07
3.43346e+07
3.94432e+07
3.49022e+07
4.0499e+07
3.55102e+07
4.16125e+07
3.61573e+07
4.27822e+07
3.68417e+07
4.40063e+07
3.23429e+07
3.20668e+07
3.22782e+07
3.22158e+07
3.22498e+07
3.24167e+07
3.22582e+07
3.26697e+07
3.23036e+07
3.29749e+07
3.23867e+07
3.33326e+07
3.25081e+07
3.37431e+07
3.26683e+07
3.42067e+07
3.2868e+07
3.4724e+07
3.31077e+07
3.52953e+07
3.3388e+07
3.59212e+07
3.37092e+07
3.6602e+07
3.40716e+07
3.7338e+07
3.44753e+07
3.81295e+07
3.49202e+07
3.89768e+07
3.54059e+07
3.98797e+07
3.59319e+07
4.0838e+07
3.64974e+07
4.18513e+07
3.71014e+07
4.29188e+07
3.77426e+07
4.40394e+07
3.36138e+07
3.32966e+07
3.35548e+07
3.34305e+07
3.35282e+07
3.36104e+07
3.35344e+07
3.38365e+07
3.35738e+07
3.41089e+07
3.36472e+07
3.44281e+07
3.37552e+07
3.47943e+07
3.38984e+07
3.52083e+07
3.40778e+07
3.56704e+07
3.42939e+07
3.61813e+07
3.45476e+07
3.67417e+07
3.48394e+07
3.73522e+07
3.51699e+07
3.80133e+07
3.55393e+07
3.87255e+07
3.59479e+07
3.94893e+07
3.63957e+07
4.03051e+07
3.68825e+07
4.11729e+07
3.74078e+07
4.20928e+07
3.79711e+07
4.30645e+07
3.85715e+07
4.40876e+07
3.47977e+07
3.44503e+07
3.47437e+07
3.45706e+07
3.47184e+07
3.47314e+07
3.47221e+07
3.4933e+07
3.47555e+07
3.51755e+07
3.48194e+07
3.54593e+07
3.49143e+07
3.57851e+07
3.50412e+07
3.61534e+07
3.52011e+07
3.65649e+07
3.53946e+07
3.70203e+07
3.56229e+07
3.75204e+07
3.58865e+07
3.8066e+07
3.61863e+07
3.86578e+07
3.65229e+07
3.92966e+07
3.68966e+07
3.99831e+07
3.73079e+07
4.07178e+07
3.77568e+07
4.15011e+07
3.82433e+07
4.23335e+07
3.8767e+07
4.32152e+07
3.93276e+07
4.4146e+07
3.5904e+07
3.55362e+07
3.58541e+07
3.56441e+07
3.58295e+07
3.57876e+07
3.58305e+07
3.59666e+07
3.58578e+07
3.61816e+07
3.59121e+07
3.6433e+07
3.59943e+07
3.67214e+07
3.61052e+07
3.70475e+07
3.6246e+07
3.74122e+07
3.64176e+07
3.78162e+07
3.66211e+07
3.82604e+07
3.68574e+07
3.87458e+07
3.71274e+07
3.92733e+07
3.74319e+07
3.98438e+07
3.77717e+07
4.04581e+07
3.81473e+07
4.1117e+07
3.8559e+07
4.18211e+07
3.90071e+07
4.25712e+07
3.94916e+07
4.33678e+07
4.00125e+07
4.4211e+07
3.69408e+07
3.6562e+07
3.68946e+07
3.66587e+07
3.68702e+07
3.67862e+07
3.68681e+07
3.69444e+07
3.6889e+07
3.7134e+07
3.69337e+07
3.73553e+07
3.70031e+07
3.7609e+07
3.70983e+07
3.7896e+07
3.72203e+07
3.8217e+07
3.73704e+07
3.85731e+07
3.75495e+07
3.89653e+07
3.77589e+07
3.93945e+07
3.79996e+07
3.98619e+07
3.82726e+07
4.03684e+07
3.85788e+07
4.0915e+07
3.8919e+07
4.15026e+07
3.92937e+07
4.21322e+07
3.97035e+07
4.28046e+07
4.01487e+07
4.35204e+07
4.06293e+07
4.42803e+07
3.79161e+07
3.7535e+07
3.78728e+07
3.76215e+07
3.78481e+07
3.77341e+07
3.78426e+07
3.78731e+07
3.78569e+07
3.80389e+07
3.78918e+07
3.82321e+07
3.79485e+07
3.84535e+07
3.80279e+07
3.87038e+07
3.81313e+07
3.8984e+07
3.82599e+07
3.92952e+07
3.84149e+07
3.96385e+07
3.85977e+07
4.0015e+07
3.88093e+07
4.04259e+07
3.9051e+07
4.08721e+07
3.93237e+07
4.13549e+07
3.96286e+07
4.18753e+07
3.99662e+07
4.24343e+07
4.03374e+07
4.30329e+07
4.07427e+07
4.3672e+07
4.11824e+07
4.43523e+07
3.88369e+07
3.84619e+07
3.8796e+07
3.8539e+07
3.87706e+07
3.86379e+07
3.87612e+07
3.87589e+07
3.87686e+07
3.89025e+07
3.87937e+07
3.90694e+07
3.88374e+07
3.92602e+07
3.89011e+07
3.9476e+07
3.89858e+07
3.97178e+07
3.9093e+07
3.99866e+07
3.9224e+07