/*--------------------------------*- C++ -*----------------------------------*\
| =========                 |                                                 |
| \\      /  F ield         | OpenFOAM: The Open Source CFD Toolbox           |
|  \\    /   O peration     | Version:  v2012                                 |
|   \\  /    A nd           | Website:  www.openfoam.com                      |
|    \\/     M anipulation  |                                                 |
\*---------------------------------------------------------------------------*/
FoamFile
{
    version     2.0;
    format      ascii;
    class       volScalarField;
    location    "7";
    object      sigmaEq;
}
// * * * * * * * * * * * * * * * * * * * * * * * * * * * * * * * * * * * * * //

dimensions      [1 -1 -2 0 0 0 0];


internalField   nonuniform List<scalar> 
8000
(
2.43e+08
2.43e+08
2.43e+08
2.43e+08
2.43e+08
2.43e+08
2.43e+08
2.43e+08
2.43e+08
2.43e+08
2.43e+08
2.43e+08
2.43e+08
2.43e+08
2.43e+08
2.29581e+08
2.24808e+08
2.10792e+08
2.06923e+08
1.96166e+08
1.9318e+08
1.84409e+08
1.8215e+08
1.74725e+08
1.73039e+08
1.6659e+08
1.65354e+08
1.59647e+08
1.58765e+08
1.53638e+08
1.53039e+08
1.4837e+08
1.48004e+08
1.43697e+08
1.43527e+08
1.39498e+08
1.39501e+08
1.35668e+08
1.35833e+08
1.32098e+08
2.43e+08
2.43e+08
2.43e+08
2.43e+08
2.43e+08
2.43e+08
2.43e+08
2.43e+08
2.43e+08
2.43e+08
2.43e+08
2.43e+08
2.43e+08
2.42675e+08
2.38849e+08
2.2468e+08
2.21816e+08
2.09413e+08
2.07078e+08
1.96517e+08
1.94698e+08
1.85632e+08
1.84282e+08
1.76386e+08
1.75442e+08
1.68462e+08
1.67861e+08
1.61607e+08
1.61293e+08
1.5562e+08
1.55543e+08
1.50337e+08
1.50458e+08
1.45629e+08
1.45911e+08
1.41389e+08
1.41798e+08
1.37535e+08
1.38027e+08
1.34026e+08
2.43e+08
2.43e+08
2.43e+08
2.43e+08
2.43e+08
2.43e+08
2.43e+08
2.43e+08
2.43e+08
2.43e+08
2.43e+08
2.43e+08
2.43e+08
2.33054e+08
2.31598e+08
2.19384e+08
2.18236e+08
2.07028e+08
2.0622e+08
1.96084e+08
1.95604e+08
1.86482e+08
1.86304e+08
1.78081e+08
1.78168e+08
1.70718e+08
1.71033e+08
1.64238e+08
1.64746e+08
1.58505e+08
1.59173e+08
1.53396e+08
1.54196e+08
1.48811e+08
1.49717e+08
1.44662e+08
1.45654e+08
1.40878e+08
1.41947e+08
1.37391e+08
2.43e+08
2.43e+08
2.43e+08
2.43e+08
2.43e+08
2.43e+08
2.43e+08
2.43e+08
2.43e+08
2.43e+08
2.43e+08
2.36374e+08
2.3569e+08
2.25126e+08
2.24893e+08
2.14274e+08
2.14435e+08
2.04177e+08
2.04674e+08
1.94982e+08
1.95757e+08
1.86711e+08
1.87713e+08
1.79315e+08
1.80499e+08
1.72716e+08
1.74042e+08
1.66819e+08
1.68255e+08
1.61535e+08
1.63053e+08
1.56776e+08
1.58355e+08
1.52465e+08
1.54088e+08
1.48532e+08
1.50186e+08
1.44913e+08
1.4659e+08
1.41553e+08
2.43e+08
2.43e+08
2.43e+08
2.43e+08
2.43e+08
2.43e+08
2.43e+08
2.43e+08
2.43e+08
2.37148e+08
2.36742e+08
2.27575e+08
2.27869e+08
2.18203e+08
2.19067e+08
2.09248e+08
2.10566e+08
2.00877e+08
2.02545e+08
1.93174e+08
1.95103e+08
1.86159e+08
1.88273e+08
1.79807e+08
1.82047e+08
1.74068e+08
1.76386e+08
1.68881e+08
1.7124e+08
1.64181e+08
1.66553e+08
1.59906e+08
1.62269e+08
1.55994e+08
1.58333e+08
1.5239e+08
1.54695e+08
1.49044e+08
1.51307e+08
1.4591e+08
2.43e+08
2.43e+08
2.43e+08
2.43e+08
2.43e+08
2.43e+08
2.43e+08
2.37037e+08
2.36604e+08
2.28156e+08
2.28641e+08
2.19654e+08
2.2091e+08
2.11596e+08
2.13476e+08
2.04049e+08
2.06411e+08
1.97059e+08
1.99775e+08
1.90642e+08
1.93603e+08
1.84786e+08
1.87901e+08
1.79457e+08
1.82653e+08
1.7461e+08
1.77832e+08
1.70194e+08
1.73398e+08
1.66158e+08
1.69313e+08
1.62452e+08
1.65533e+08
1.59027e+08
1.62019e+08
1.55839e+08
1.58731e+08
1.5285e+08
1.55634e+08
1.50021e+08
2.43e+08
2.43e+08
2.43e+08
2.43e+08
2.43e+08
2.36699e+08
2.36077e+08
2.27778e+08
2.28251e+08
2.19489e+08
2.20918e+08
2.11855e+08
2.14078e+08
2.04862e+08
2.07715e+08
1.98483e+08
2.0181e+08
1.92681e+08
1.96342e+08
1.87415e+08
1.91291e+08
1.82635e+08
1.86627e+08
1.78291e+08
1.8232e+08
1.74332e+08
1.78334e+08
1.70706e+08
1.74637e+08
1.67368e+08
1.71192e+08
1.64273e+08
1.67966e+08
1.61384e+08
1.64927e+08
1.58664e+08
1.62047e+08
1.56082e+08
1.59296e+08
1.53611e+08
2.43e+08
2.43e+08
2.43e+08
2.36575e+08
2.35579e+08
2.26945e+08
2.27252e+08
2.18266e+08
2.19726e+08
2.10562e+08
2.12987e+08
2.03762e+08
2.06963e+08
1.97765e+08
2.0156e+08
1.92465e+08
1.96691e+08
1.87764e+08
1.92276e+08
1.83572e+08
1.88249e+08
1.79812e+08
1.84553e+08
1.76413e+08
1.81139e+08
1.73317e+08
1.77965e+08
1.70471e+08
1.74994e+08
1.6783e+08
1.72194e+08
1.65356e+08
1.69536e+08
1.63017e+08
1.66994e+08
1.60783e+08
1.64547e+08
1.58632e+08
1.62174e+08
1.56541e+08
2.43e+08
2.3761e+08
2.3572e+08
2.26233e+08
2.26127e+08
2.16419e+08
2.17765e+08
2.0811e+08
2.10629e+08
2.01118e+08
2.04568e+08
1.95237e+08
1.99401e+08
1.9027e+08
1.94957e+08
1.86044e+08
1.91089e+08
1.82413e+08
1.87673e+08
1.79254e+08
1.84611e+08
1.76467e+08
1.81826e+08
1.73971e+08
1.79257e+08
1.71699e+08
1.76853e+08
1.696e+08
1.74579e+08
1.67631e+08
1.72402e+08
1.65759e+08
1.70299e+08
1.63955e+08
1.6825e+08
1.622e+08
1.66237e+08
1.60474e+08
1.64246e+08
1.58763e+08
2.38571e+08
2.26705e+08
2.25755e+08
2.14565e+08
2.15542e+08
2.04947e+08
2.07389e+08
1.97306e+08
2.00879e+08
1.91234e+08
1.95664e+08
1.86396e+08
1.91453e+08
1.82521e+08
1.88009e+08
1.79383e+08
1.85139e+08
1.76804e+08
1.82691e+08
1.74638e+08
1.80548e+08
1.72775e+08
1.78619e+08
1.71126e+08
1.76837e+08
1.69626e+08
1.75153e+08
1.68223e+08
1.73527e+08
1.6688e+08
1.71934e+08
1.65568e+08
1.70353e+08
1.64266e+08
1.68769e+08
1.62959e+08
1.6717e+08
1.61635e+08
1.65549e+08
1.60286e+08
2.27363e+08
2.13845e+08
2.13811e+08
2.01877e+08
2.03803e+08
1.92919e+08
1.96318e+08
1.86215e+08
1.90708e+08
1.81217e+08
1.865e+08
1.77505e+08
1.8333e+08
1.74749e+08
1.80913e+08
1.7269e+08
1.79029e+08
1.71124e+08
1.7751e+08
1.69898e+08
1.76229e+08
1.68893e+08
1.75093e+08
1.68024e+08
1.74034e+08
1.67227e+08
1.73003e+08
1.66456e+08
1.71968e+08
1.65678e+08
1.70905e+08
1.64871e+08
1.69799e+08
1.64022e+08
1.6864e+08
1.6312e+08
1.67422e+08
1.62161e+08
1.66143e+08
1.61141e+08
2.12951e+08
1.99475e+08
2.00314e+08
1.88443e+08
1.91266e+08
1.80564e+08
1.84848e+08
1.75034e+08
1.80363e+08
1.71244e+08
1.77284e+08
1.68719e+08
1.75206e+08
1.67094e+08
1.73821e+08
1.66087e+08
1.72895e+08
1.65487e+08
1.72255e+08
1.65136e+08
1.71774e+08
1.64919e+08
1.71361e+08
1.64755e+08
1.70954e+08
1.64587e+08
1.70509e+08
1.64375e+08
1.69998e+08
1.64095e+08
1.69405e+08
1.63733e+08
1.6872e+08
1.6328e+08
1.67939e+08
1.62734e+08
1.67062e+08
1.62095e+08
1.6609e+08
1.61366e+08
1.96724e+08
1.83932e+08
1.8569e+08
1.74355e+08
1.78098e+08
1.67906e+08
1.7307e+08
1.63778e+08
1.69908e+08
1.61328e+08
1.68067e+08
1.60054e+08
1.67128e+08
1.59573e+08
1.66776e+08
1.59598e+08
1.6678e+08
1.59917e+08
1.66971e+08
1.60381e+08
1.67229e+08
1.60883e+08
1.67474e+08
1.61352e+08
1.6765e+08
1.6174e+08
1.67724e+08
1.62018e+08
1.67674e+08
1.62171e+08
1.67492e+08
1.62192e+08
1.67174e+08
1.62079e+08
1.66723e+08
1.61839e+08
1.66144e+08
1.61476e+08
1.65443e+08
1.60998e+08
1.79306e+08
1.67531e+08
1.70207e+08
1.59728e+08
1.64393e+08
1.54974e+08
1.61001e+08
1.52436e+08
1.59328e+08
1.51443e+08
1.58822e+08
1.51478e+08
1.59066e+08
1.52154e+08
1.59752e+08
1.53189e+08
1.60662e+08
1.54386e+08
1.61641e+08
1.5561e+08
1.62587e+08
1.56769e+08
1.63431e+08
1.57806e+08
1.64131e+08
1.58687e+08
1.64664e+08
1.59393e+08
1.65018e+08
1.59919e+08
1.65193e+08
1.60266e+08
1.65194e+08
1.60443e+08
1.65028e+08
1.6046e+08
1.64707e+08
1.6033e+08
1.64242e+08
1.60066e+08
1.6113e+08
1.50558e+08
1.54124e+08
1.44726e+08
1.50282e+08
1.41848e+08
1.48695e+08
1.41036e+08
1.48631e+08
1.41585e+08
1.4953e+08
1.42965e+08
1.50984e+08
1.44797e+08
1.52705e+08
1.46817e+08
1.54497e+08
1.4885e+08
1.56227e+08
1.50783e+08
1.57815e+08
1.52544e+08
1.59208e+08
1.54094e+08
1.60382e+08
1.55413e+08
1.61324e+08
1.56494e+08
1.62035e+08
1.57342e+08
1.62522e+08
1.57967e+08
1.62798e+08
1.58386e+08
1.62878e+08
1.58617e+08
1.62779e+08
1.58681e+08
1.62519e+08
1.58597e+08
1.42521e+08
1.33267e+08
1.37684e+08
1.29526e+08
1.3593e+08
1.28647e+08
1.36251e+08
1.29651e+08
1.37865e+08
1.31786e+08
1.40203e+08
1.34518e+08
1.4287e+08
1.37484e+08
1.45608e+08
1.40451e+08
1.48249e+08
1.43273e+08
1.50692e+08
1.45864e+08
1.52878e+08
1.48176e+08
1.54778e+08
1.5019e+08
1.56383e+08
1.519e+08
1.57694e+08
1.53313e+08
1.58722e+08
1.54442e+08
1.59485e+08
1.55306e+08
1.60001e+08
1.55928e+08
1.60294e+08
1.56334e+08
1.60387e+08
1.56554e+08
1.60305e+08
1.56617e+08
1.23739e+08
1.15876e+08
1.21109e+08
1.14312e+08
1.21514e+08
1.15518e+08
1.23801e+08
1.18384e+08
1.27118e+08
1.2211e+08
1.30888e+08
1.26166e+08
1.34742e+08
1.30221e+08
1.38456e+08
1.34078e+08
1.41902e+08
1.37631e+08
1.4501e+08
1.40824e+08
1.47751e+08
1.43637e+08
1.50117e+08
1.46069e+08
1.52116e+08
1.48132e+08
1.53763e+08
1.49844e+08
1.55081e+08
1.51226e+08
1.56092e+08
1.52301e+08
1.56823e+08
1.53097e+08
1.57303e+08
1.53644e+08
1.57563e+08
1.53983e+08
1.57637e+08
1.54161e+08
1.04996e+08
9.85745e+07
1.04602e+08
9.92685e+07
1.07222e+08
1.02624e+08
1.11498e+08
1.07365e+08
1.16502e+08
1.12648e+08
1.2166e+08
1.17965e+08
1.26641e+08
1.23031e+08
1.31267e+08
1.27702e+08
1.35455e+08
1.31911e+08
1.39171e+08
1.35641e+08
1.42415e+08
1.38898e+08
1.45204e+08
1.41704e+08
1.47562e+08
1.44086e+08
1.4952e+08
1.46073e+08
1.51106e+08
1.47692e+08
1.5235e+08
1.4897e+08
1.53284e+08
1.49931e+08
1.5394e+08
1.50601e+08
1.54354e+08
1.51022e+08
1.54572e+08
1.51274e+08
8.64697e+07
8.15379e+07
8.83562e+07
8.45907e+07
9.325e+07
9.01544e+07
9.95169e+07
9.67506e+07
1.06154e+08
1.03514e+08
1.12616e+08
1.09989e+08
1.1863e+08
1.1596e+08
1.24077e+08
1.2134e+08
1.2892e+08
1.26113e+08
1.33169e+08
1.30296e+08
1.36851e+08
1.33926e+08
1.40009e+08
1.37047e+08
1.42684e+08
1.39703e+08
1.44921e+08
1.41937e+08
1.4676e+08
1.43786e+08
1.48236e+08
1.4528e+08
1.49382e+08
1.46437e+08
1.50229e+08
1.47258e+08
1.50814e+08
1.47744e+08
1.51202e+08
1.47973e+08
6.83147e+07
6.4937e+07
7.25812e+07
7.05104e+07
7.98293e+07
7.83385e+07
8.80611e+07
8.67262e+07
9.62352e+07
9.48451e+07
1.03876e+08
1.02337e+08
1.10794e+08
1.09074e+08
1.1694e+08
1.15035e+08
1.22329e+08
1.20253e+08
1.27009e+08
1.24782e+08
1.31038e+08
1.28684e+08
1.3448e+08
1.32023e+08
1.37396e+08
1.34862e+08
1.39846e+08
1.37261e+08
1.41886e+08
1.39277e+08
1.43565e+08
1.40957e+08
1.4493e+08
1.42337e+08
1.4602e+08
1.4341e+08
1.46876e+08
1.44041e+08
1.47603e+08
1.43654e+08
5.06696e+07
4.89741e+07
5.75409e+07
5.73453e+07
6.72543e+07
6.7471e+07
7.73805e+07
7.75184e+07
8.69379e+07
8.68099e+07
9.55871e+07
9.51368e+07
1.03249e+08
1.02476e+08
1.09949e+08
1.08875e+08
1.15754e+08
1.1441e+08
1.20743e+08
1.19161e+08
1.24996e+08
1.23207e+08
1.28586e+08
1.26619e+08
1.3158e+08
1.2946e+08
1.34034e+08
1.31782e+08
1.35992e+08
1.3363e+08
1.37481e+08
1.35035e+08
1.38502e+08
1.36024e+08
1.39006e+08
1.3663e+08
1.38801e+08
1.3698e+08
1.37267e+08
1.37639e+08
3.36841e+07
3.39963e+07
4.36627e+07
4.56063e+07
5.59425e+07
5.79454e+07
6.77868e+07
6.93942e+07
7.84903e+07
7.95971e+07
8.79296e+07
8.85408e+07
9.61554e+07
9.63123e+07
1.03271e+08
1.03025e+08
1.09389e+08
1.08793e+08
1.14619e+08
1.13723e+08
1.19061e+08
1.17912e+08
1.22803e+08
1.21444e+08
1.25924e+08
1.24396e+08
1.28488e+08
1.26835e+08
1.30556e+08
1.28825e+08
1.32176e+08
1.30431e+08
1.33401e+08
1.31725e+08
1.34305e+08
1.32812e+08
1.35082e+08
1.33829e+08
1.3641e+08
1.34842e+08
1.76949e+07
2.10143e+07
3.18459e+07
3.62105e+07
4.6516e+07
5.02771e+07
5.96497e+07
6.26371e+07
7.11186e+07
7.33721e+07
8.10524e+07
8.26522e+07
8.962e+07
9.06511e+07
9.69857e+07
9.75273e+07
1.03298e+08
1.03422e+08
1.08687e+08
1.08458e+08
1.13267e+08
1.12744e+08
1.1714e+08
1.16375e+08
1.20393e+08
1.19437e+08
1.23106e+08
1.22006e+08
1.25353e+08
1.24156e+08
1.27209e+08
1.25958e+08
1.28758e+08
1.27483e+08
1.30106e+08
1.28794e+08
1.31372e+08
1.29929e+08
1.32516e+08
1.30887e+08
6.43351e+06
1.42645e+07
2.42307e+07
3.069e+07
3.98816e+07
4.50796e+07
5.33987e+07
5.75332e+07
6.50534e+07
6.82858e+07
7.50927e+07
7.75576e+07
8.37308e+07
8.55424e+07
9.11526e+07
9.24084e+07
9.75175e+07
9.83015e+07
1.02963e+08
1.03348e+08
1.07609e+08
1.0766e+08
1.1156e+08
1.11333e+08
1.14909e+08
1.14454e+08
1.17741e+08
1.17101e+08
1.20133e+08
1.19343e+08
1.22159e+08
1.21243e+08
1.23888e+08
1.22852e+08
1.25377e+08
1.24211e+08
1.26652e+08
1.25344e+08
1.27725e+08
1.26266e+08
1.59716e+07
1.96427e+07
2.39675e+07
3.0465e+07
3.70205e+07
4.28569e+07
4.94481e+07
5.43089e+07
6.05045e+07
6.44554e+07
7.01699e+07
7.33224e+07
7.85598e+07
8.10226e+07
8.58143e+07
8.76843e+07
9.2069e+07
9.34313e+07
9.74483e+07
9.8377e+07
1.02064e+08
1.02623e+08
1.06015e+08
1.0626e+08
1.0939e+08
1.09368e+08
1.12269e+08
1.12019e+08
1.14722e+08
1.14274e+08
1.16812e+08
1.16186e+08
1.18589e+08
1.178e+08
1.20093e+08
1.19149e+08
1.21352e+08
1.20261e+08
1.22388e+08
1.21157e+08
2.98118e+07
3.0522e+07
3.03839e+07
3.49857e+07
3.82304e+07
4.36461e+07
4.80236e+07
5.30387e+07
5.76126e+07
6.19374e+07
6.6372e+07
6.99842e+07
7.41627e+07
7.71146e+07
8.1004e+07
8.33663e+07
8.69683e+07
8.88122e+07
9.21433e+07
9.35349e+07
9.66175e+07
9.76159e+07
1.00475e+08
1.01131e+08
1.03791e+08
1.0415e+08
1.06637e+08
1.06735e+08
1.09071e+08
1.08939e+08
1.11148e+08
1.10808e+08
1.12909e+08
1.12383e+08
1.14392e+08
1.13697e+08
1.15627e+08
1.14778e+08
1.16637e+08
1.15649e+08
4.33194e+07
4.22247e+07
3.97413e+07
4.22181e+07
4.26619e+07
4.68936e+07
4.89916e+07
5.3581e+07
5.63921e+07
6.07022e+07
6.37375e+07
6.75444e+07
7.05742e+07
7.38267e+07
7.67478e+07
7.94621e+07
8.22323e+07
8.44494e+07
8.70566e+07
8.8825e+07
9.12721e+07
9.26399e+07
9.49376e+07
9.59495e+07
9.81116e+07
9.88075e+07
1.0085e+08
1.01265e+08
1.03202e+08
1.03366e+08
1.05212e+08
1.05152e+08
1.0692e+08
1.06659e+08
1.08359e+08
1.07917e+08
1.09558e+08
1.08954e+08
1.10542e+08
1.09794e+08
5.61502e+07
5.36816e+07
4.98859e+07
5.05509e+07
4.90047e+07
5.17681e+07
5.18751e+07
5.5604e+07
5.67019e+07
6.06272e+07
6.22388e+07
6.59616e+07
6.78027e+07
7.11491e+07
7.30633e+07
7.59743e+07
7.78792e+07
8.03506e+07
8.22052e+07
8.42576e+07
8.60439e+07
8.77082e+07
8.94211e+07
9.07312e+07
9.23724e+07
9.33617e+07
9.49367e+07
9.56364e+07
9.71522e+07
9.7591e+07
9.90548e+07
9.92589e+07
1.00678e+08
1.00671e+08
1.0205e+08
1.01854e+08
1.03199e+08
1.02833e+08
1.04147e+08
1.03631e+08
6.82064e+07
6.45751e+07
5.99706e+07
5.91193e+07
5.62235e+07
5.75197e+07
5.60584e+07
5.86872e+07
5.82703e+07
6.15147e+07
6.17773e+07
6.5152e+07
6.58241e+07
6.90521e+07
6.99567e+07
7.28987e+07
7.39273e+07
7.65239e+07
7.76122e+07
7.98478e+07
8.09588e+07
8.28404e+07
8.39541e+07
8.55002e+07
8.66065e+07
8.78404e+07
8.89352e+07
8.98818e+07
9.09642e+07
9.16483e+07
9.27193e+07
9.31647e+07
9.4226e+07
9.4455e+07
9.55085e+07
9.55422e+07
9.65894e+07
9.64473e+07
9.74897e+07
9.719e+07
7.94326e+07
7.47677e+07
6.96346e+07
6.74823e+07
6.36739e+07
6.36059e+07
6.09792e+07
6.2422e+07
6.07623e+07
6.31268e+07
6.21947e+07
6.49975e+07
6.45802e+07
6.7486e+07
6.74198e+07
7.02223e+07
7.03918e+07
7.29759e+07
7.33038e+07
7.56125e+07
7.60486e+07
7.80599e+07
7.85718e+07
8.02841e+07
8.08514e+07
8.22742e+07
8.28843e+07
8.40331e+07
8.46781e+07
8.55713e+07
8.62464e+07
8.69034e+07
8.76055e+07
8.80459e+07
8.87729e+07
8.90155e+07
8.9766e+07
8.98289e+07
9.06018e+07
9.0502e+07
8.97851e+07
8.41793e+07
7.86961e+07
7.5399e+07
7.09758e+07
6.96652e+07
6.62051e+07
6.64667e+07
6.38467e+07
6.52222e+07
6.32975e+07
6.53586e+07
6.39827e+07
6.63844e+07
6.5428e+07
6.79234e+07
6.72827e+07
6.97104e+07
6.93077e+07
7.15702e+07
7.13494e+07
7.33928e+07
7.33142e+07
7.51132e+07
7.5149e+07
7.66959e+07
7.68265e+07
7.81245e+07
7.83361e+07
7.93949e+07
7.96775e+07
8.05101e+07
8.08563e+07
8.14775e+07
8.18818e+07
8.23072e+07
8.27651e+07
8.30102e+07
8.3518e+07
8.3598e+07
9.9225e+07
9.27541e+07
8.70477e+07
8.27255e+07
7.78989e+07
7.54598e+07
7.14278e+07
7.05569e+07
6.72364e+07
6.75813e+07
6.48835e+07
6.60891e+07
6.39211e+07
6.56685e+07
6.39402e+07
6.59719e+07
6.46029e+07
6.67285e+07
6.56514e+07
6.774e+07
6.69016e+07
6.88687e+07
6.82276e+07
7.00227e+07
6.95476e+07
7.11434e+07
7.08103e+07
7.21952e+07
7.1986e+07
7.31583e+07
7.30591e+07
7.40235e+07
7.40232e+07
7.47885e+07
7.48782e+07
7.54551e+07
7.56278e+07
7.60282e+07
7.6278e+07
7.65143e+07
1.07716e+08
1.00448e+08
9.46173e+07
8.93675e+07
8.42968e+07
8.08307e+07
7.64327e+07
7.44962e+07
7.07007e+07
7.00178e+07
6.67628e+07
6.7048e+07
6.42739e+07
6.52525e+07
6.29013e+07
6.43303e+07
6.23469e+07
6.40275e+07
6.23616e+07
6.41422e+07
6.27501e+07
6.45214e+07
6.33662e+07
6.5054e+07
6.41052e+07
6.56618e+07
6.48946e+07
6.62918e+07
6.56858e+07
6.69088e+07
6.64475e+07
6.74911e+07
6.71608e+07
6.80255e+07
6.78149e+07
6.85055e+07
6.84052e+07
6.89288e+07
6.8931e+07
6.9296e+07
1.15224e+08
1.07223e+08
1.01353e+08
9.52603e+07
9.0072e+07
8.56694e+07
8.1071e+07
7.81402e+07
7.40623e+07
7.238e+07
6.87688e+07
6.81061e+07
6.49177e+07
6.50479e+07
6.2244e+07
6.29541e+07
6.04994e+07
6.16007e+07
5.94622e+07
6.07975e+07
5.89446e+07
6.039e+07
5.87944e+07
6.02572e+07
5.88937e+07
6.03076e+07
5.91538e+07
6.04737e+07
5.951e+07
6.07071e+07
5.99163e+07
6.09735e+07
6.03405e+07
6.12494e+07
6.07614e+07
6.15189e+07
6.11649e+07
6.1772e+07
6.15427e+07
6.2003e+07
1.21715e+08
1.1305e+08
1.07214e+08
1.00359e+08
9.51579e+07
8.99005e+07
8.52384e+07
8.13829e+07
7.71868e+07
7.45447e+07
7.07603e+07
6.91464e+07
6.57331e+07
6.49647e+07
6.18915e+07
6.17912e+07
5.90333e+07
5.94348e+07
5.69715e+07
5.77262e+07
5.55384e+07
5.65198e+07
5.45895e+07
5.56948e+07
5.40045e+07
5.51538e+07
5.36866e+07
5.48203e+07
5.35599e+07
5.46354e+07
5.35664e+07
5.45545e+07
5.36623e+07
5.45443e+07
5.38155e+07
5.45797e+07
5.40024e+07
5.46426e+07
5.42068e+07
5.47198e+07
1.27159e+08
1.17905e+08
1.12175e+08
1.04634e+08
9.95106e+07
9.34709e+07
8.88606e+07
8.4139e+07
7.99682e+07
7.64031e+07
7.26139e+07
7.00569e+07
6.66036e+07
6.49091e+07
6.1758e+07
6.07815e+07
5.79089e+07
5.75106e+07
5.49e+07
5.49488e+07
5.25878e+07
5.29654e+07
5.08436e+07
5.14473e+07
4.9555e+07
5.0299e+07
4.86262e+07
4.94414e+07
4.79773e+07
4.88104e+07
4.75435e+07
4.83545e+07
4.72725e+07
4.80328e+07
4.71228e+07
4.78124e+07
4.7062e+07
4.76667e+07
4.7065e+07
4.75738e+07
1.31526e+08
1.21778e+08
1.16222e+08
1.08072e+08
1.03103e+08
9.63283e+07
9.1874e+07
8.6308e+07
8.23031e+07
7.78344e+07
7.42069e+07
7.07197e+07
6.74113e+07
6.47838e+07
6.17519e+07
5.98626e+07
5.70781e+07
5.58089e+07
5.32529e+07
5.24923e+07
5.01529e+07
4.97971e+07
4.76671e+07
4.76223e+07
4.56967e+07
4.588e+07
4.41544e+07
4.44952e+07
4.29647e+07
4.34045e+07
4.20627e+07
4.25548e+07
4.13932e+07
4.19019e+07
4.09095e+07
4.14084e+07
4.05714e+07
4.1041e+07
4.03449e+07
4.07678e+07
1.34798e+08
1.24697e+08
1.19372e+08
1.1065e+08
1.05903e+08
9.8298e+07
9.41549e+07
8.77124e+07
8.40478e+07
7.86926e+07
7.54071e+07
7.10217e+07
6.80455e+07
6.45086e+07
6.17925e+07
5.89904e+07
5.65004e+07
5.43283e+07
5.20411e+07
5.04031e+07
4.83039e+07
4.71119e+07
4.51917e+07
4.43654e+07
4.26195e+07
4.20861e+07
4.05124e+07
4.02074e+07
3.88043e+07
3.86717e+07
3.74375e+07
3.74303e+07
3.63607e+07
3.64414e+07
3.55282e+07
3.56692e+07
3.48973e+07
3.50799e+07
3.44243e+07
3.46352e+07
1.37052e+08
1.26842e+08
1.21699e+08
1.11696e+08
1.07573e+08
9.89667e+07
9.54293e+07
8.81428e+07
8.50344e+07
7.88764e+07
7.61146e+07
7.09163e+07
6.84455e+07
6.40688e+07
6.18472e+07
5.81777e+07
5.6173e+07
5.31135e+07
5.13008e+07
4.87667e+07
4.71279e+07
4.50443e+07
4.35668e+07
4.18667e+07
4.05425e+07
3.91654e+07
3.79903e+07
3.6882e+07
3.58546e+07
3.49668e+07
3.4087e+07
3.33781e+07
3.26458e+07
3.20816e+07
3.14939e+07
3.10502e+07
3.05955e+07
3.02614e+07
2.99061e+07
2.96899e+07
1.39309e+08
1.2421e+08
1.21514e+08
1.10185e+08
1.07405e+08
9.81372e+07
9.54988e+07
8.76498e+07
8.52545e+07
7.8502e+07
7.63812e+07
7.05263e+07
6.86763e+07
6.35792e+07
6.19806e+07
5.75341e+07
5.61625e+07
5.22799e+07
5.1111e+07
4.77191e+07
4.67311e+07
4.37669e+07
4.2942e+07
4.03498e+07
3.96745e+07
3.7404e+07
3.68696e+07
3.48747e+07
3.44774e+07
3.27147e+07
3.24559e+07
3.08838e+07
3.07705e+07
2.93493e+07
2.93949e+07
2.80893e+07
2.83123e+07
2.71009e+07
2.75199e+07
2.64274e+07
2.80937e+07
2.48851e+07
3.01661e+07
2.71482e+07
3.49796e+07
3.15954e+07
4.12338e+07
3.73375e+07
4.82605e+07
4.37835e+07
5.56786e+07
5.05855e+07
6.32628e+07
5.75388e+07
7.08722e+07
6.45175e+07
7.84133e+07
7.14401e+07
8.58197e+07
7.82512e+07
9.30419e+07
8.49114e+07
1.0004e+08
9.1392e+07
1.06781e+08
9.76713e+07
1.13233e+08
1.03733e+08
1.19364e+08
1.09563e+08
1.25141e+08
1.15151e+08
1.30518e+08
1.20489e+08
1.35429e+08
1.25569e+08
1.39761e+08
1.30394e+08
1.43259e+08
1.34986e+08
2.63115e+07
2.42106e+07
2.87942e+07
2.66559e+07
3.35923e+07
3.11157e+07
3.97649e+07
3.67957e+07
4.66782e+07
4.3138e+07
5.39637e+07
4.98102e+07
6.14047e+07
5.66157e+07
6.88664e+07
6.34325e+07
7.62591e+07
7.0181e+07
8.35196e+07
7.68065e+07
9.06006e+07
8.32699e+07
9.74652e+07
8.95425e+07
1.04082e+08
9.56022e+07
1.10425e+08
1.01432e+08
1.16466e+08
1.07017e+08
1.22177e+08
1.12343e+08
1.27523e+08
1.17397e+08
1.32455e+08
1.22156e+08
1.36887e+08
1.26586e+08
1.40639e+08
1.30599e+08
2.56599e+07
2.42846e+07
2.81891e+07
2.67442e+07
3.27987e+07
3.10562e+07
3.87204e+07
3.65246e+07
4.53728e+07
4.26369e+07
5.2401e+07
4.90763e+07
5.9593e+07
5.56508e+07
6.68158e+07
6.22397e+07
7.39814e+07
6.87633e+07
8.10277e+07
7.51667e+07
8.7909e+07
8.14103e+07
9.45897e+07
8.74651e+07
1.01041e+08
9.33091e+07
1.07239e+08
9.89253e+07
1.13159e+08
1.04299e+08
1.18779e+08
1.09419e+08
1.24071e+08
1.14269e+08
1.28999e+08
1.18833e+08
1.33505e+08
1.23081e+08
1.3747e+08
1.26951e+08
2.57954e+07
2.49153e+07
2.81836e+07
2.72713e+07
3.24893e+07
3.13318e+07
3.80531e+07
3.64946e+07
4.43487e+07
4.22959e+07
5.10376e+07
4.84352e+07
5.79106e+07
5.47241e+07
6.48345e+07
6.10416e+07
7.17208e+07
6.73066e+07
7.85071e+07
7.3463e+07
8.5148e+07
7.94702e+07
9.16085e+07
8.52985e+07
9.78612e+07
9.09254e+07
1.03883e+08
9.6334e+07
1.09654e+08
1.0151e+08
1.15155e+08
1.06443e+08
1.20363e+08
1.1112e+08
1.25253e+08
1.15527e+08
1.29783e+08
1.19643e+08
1.33878e+08
1.2343e+08
2.64817e+07
2.59458e+07
2.86432e+07
2.81312e+07
3.25793e+07
3.18821e+07
3.77241e+07
3.66857e+07
4.36057e+07
4.21276e+07
4.99042e+07
4.79249e+07
5.64135e+07
5.38933e+07
6.29998e+07
5.99111e+07
6.95727e+07
6.58956e+07
7.60688e+07
7.17886e+07
8.24417e+07
7.75482e+07
8.86568e+07
8.31436e+07
9.46868e+07
8.85516e+07
1.0051e+08
9.37549e+07
1.06108e+08
9.87398e+07
1.11464e+08
1.03495e+08
1.16561e+08
1.08011e+08
1.21378e+08
1.12276e+08
1.25887e+08
1.16276e+08
1.3004e+08
1.19985e+08
2.75495e+07
2.72561e+07
2.94584e+07
2.92426e+07
3.3e+07
3.26602e+07
3.76986e+07
3.70804e+07
4.31372e+07
4.21379e+07
4.90166e+07
4.75698e+07
5.5136e+07
5.3197e+07
6.13611e+07
5.88979e+07
6.75995e+07
6.45881e+07
7.37862e+07
7.02075e+07
7.98736e+07
7.57127e+07
8.58264e+07
8.10712e+07
9.16172e+07
8.62592e+07
9.72248e+07
9.12585e+07
1.02632e+08
9.60554e+07
1.07823e+08
1.00639e+08
1.12785e+08
1.05001e+08
1.17501e+08
1.09131e+08
1.21952e+08
1.13019e+08
1.26106e+08
1.16648e+08
2.8878e+07
2.87582e+07
3.05411e+07
3.05419e+07
3.36929e+07
3.36266e+07
3.79432e+07
3.76602e+07
4.29301e+07
4.23258e+07
4.83787e+07
4.73824e+07
5.40955e+07
5.26584e+07
5.99469e+07
5.80333e+07
6.58392e+07
6.34218e+07
7.17056e+07
6.87621e+07
7.74971e+07
7.40091e+07
8.31773e+07
7.9129e+07
8.87185e+07
8.40968e+07
9.40992e+07
8.88935e+07
9.93027e+07
9.35051e+07
1.04315e+08
9.79206e+07
1.09124e+08
1.02131e+08
1.13718e+08
1.0613e+08
1.18081e+08
1.09908e+08
1.22193e+08
1.13455e+08
3.03823e+07
3.03889e+07
3.18215e+07
3.19795e+07
3.46064e+07
3.47467e+07
3.84241e+07
3.84051e+07
4.29664e+07
4.26839e+07
4.7985e+07
4.73657e+07
5.32967e+07
5.22887e+07
5.87704e+07
5.7335e+07
6.4312e+07
6.24192e+07
6.98534e+07
6.74785e+07
7.53441e+07
7.24662e+07
8.07465e+07
7.73474e+07
8.60322e+07
8.20958e+07
9.11794e+07
8.66917e+07
9.61713e+07
9.11202e+07
1.00995e+08
9.53703e+07
1.05639e+08
9.94335e+07
1.10093e+08
1.03303e+08
1.14347e+08
1.06973e+08
1.18387e+08
1.10434e+08
3.20028e+07
3.21028e+07
3.32452e+07
3.35166e+07
3.5696e+07
3.59898e+07
3.91082e+07
3.92937e+07
4.32238e+07
4.32e+07
4.78228e+07
4.75156e+07
5.27349e+07
5.209e+07
5.78336e+07
5.68101e+07
6.30254e+07
6.15914e+07
6.82416e+07
6.63705e+07
7.34307e+07
7.11e+07
7.8554e+07
7.57438e+07
8.3582e+07
8.02745e+07
8.84925e+07
8.46715e+07
9.32685e+07
8.89193e+07
9.78968e+07
9.30064e+07
1.02367e+08
9.69243e+07
1.06671e+08
1.00667e+08
1.108e+08
1.04228e+08
1.14745e+08
1.07602e+08
3.36974e+07
3.38676e+07
3.47702e+07
3.51228e+07
3.69231e+07
3.73292e+07
3.99631e+07
4.03047e+07
4.36774e+07
4.38587e+07
4.78745e+07
4.78223e+07
5.23988e+07
5.20579e+07
5.71302e+07
5.64582e+07
6.19776e+07
6.0941e+07
6.68722e+07
6.54434e+07
7.17621e+07
6.99175e+07
7.66076e+07
7.43262e+07
8.13785e+07
7.86416e+07
8.60518e+07
8.2842e+07
9.06102e+07
8.69114e+07
9.50403e+07
9.08376e+07
9.93323e+07
9.4612e+07
1.03478e+08
9.82282e+07
1.07472e+08
1.01681e+08
1.11306e+08
1.04967e+08
3.54362e+07
3.56595e+07
3.63642e+07
3.67743e+07
3.82551e+07
3.87417e+07
4.09588e+07
4.14171e+07
4.43017e+07
4.46429e+07
4.81194e+07
4.82727e+07
5.22723e+07
5.21828e+07
5.66483e+07
5.6273e+07
6.11599e+07
6.04645e+07
6.57396e+07
6.46956e+07
7.03351e+07
6.89184e+07
7.49064e+07
7.30956e+07
7.94228e+07
7.71985e+07
8.38604e+07
8.1205e+07
8.82015e+07
8.50981e+07
9.24325e+07
8.88655e+07
9.65435e+07
9.24979e+07
1.00527e+08
9.59889e+07
1.04377e+08
9.93341e+07
1.08089e+08
1.0253e+08
3.71973e+07
3.74611e+07
3.80023e+07
3.84523e+07
3.96647e+07
4.02073e+07
4.20678e+07
4.26112e+07
4.50711e+07
4.55343e+07
4.85351e+07
4.88514e+07
5.23364e+07
5.24521e+07
5.63721e+07
5.62445e+07
6.05594e+07
6.01538e+07
6.48329e+07
6.41206e+07
6.9141e+07
6.80976e+07
7.34436e+07
7.20477e+07
7.77094e+07
7.59417e+07
8.19145e+07
7.9757e+07
8.60402e+07
8.34762e+07
9.00727e+07
8.70863e+07
9.40018e+07
9.05779e+07
9.78203e+07
9.39443e+07
1.01523e+08
9.7181e+07
1.05106e+08
1.00285e+08
3.89646e+07
3.9259e+07
3.96652e+07
4.01419e+07
4.11291e+07
4.17089e+07
4.32657e+07
4.38689e+07
4.59612e+07
4.65153e+07
4.90987e+07
4.95417e+07
5.25704e+07
5.28509e+07
5.62832e+07
5.63595e+07
6.01598e+07
5.99977e+07
6.41378e+07
6.37087e+07
6.8167e+07
6.74465e+07
7.22076e+07
7.11745e+07
7.62284e+07
7.48636e+07
8.02049e+07
7.84907e+07
8.41182e+07
8.20383e+07
8.7954e+07
8.54929e+07
9.17019e+07
8.88446e+07
9.53545e+07
9.20864e+07
9.89066e+07
9.52139e+07
1.02355e+08
9.82243e+07
4.07256e+07
4.10426e+07
4.13376e+07
4.18306e+07
4.26295e+07
4.32318e+07
4.45306e+07
4.51736e+07
4.69492e+07
4.75685e+07
4.97878e+07
5.03267e+07
5.2953e+07
5.33634e+07
5.63616e+07
5.66035e+07
5.99428e+07
5.99827e+07
6.36375e+07
6.34474e+07
6.73977e+07
6.69536e+07
7.11843e+07
7.04654e+07
7.49663e+07
7.3954e+07
7.87193e+07
7.73965e+07
8.2424e+07
8.07749e+07
8.60658e+07
8.40755e+07
8.96339e+07
8.7288e+07
9.31207e+07
9.04052e+07
9.6521e+07
9.34223e+07
9.98318e+07
9.63367e+07
4.24703e+07
4.28034e+07
4.30069e+07
4.35082e+07
4.41499e+07
4.47632e+07
4.58436e+07
4.65102e+07
4.80143e+07
4.86777e+07
5.05807e+07
5.11897e+07
5.34629e+07
5.3973e+07
5.65871e+07
5.69607e+07
5.98891e+07
6.0094e+07
6.33139e+07
6.3323e+07
6.68158e+07
6.66058e+07
7.03573e+07
6.99079e+07
7.39078e+07
7.3201e+07
7.74429e+07
7.64625e+07
8.09435e+07
7.96743e+07
8.43946e+07
8.28224e+07
8.77851e+07
8.58964e+07
9.1107e+07
8.88887e+07
9.43551e+07
9.17943e+07
9.75262e+07
9.46104e+07
4.41908e+07
4.45343e+07
4.4663e+07
4.5166e+07
4.56768e+07
4.62919e+07
4.71882e+07
4.78654e+07
4.91375e+07
4.98276e+07
5.14573e+07
5.21147e+07
5.40794e+07
5.46636e+07
5.69393e+07
5.74151e+07
5.9979e+07
6.0316e+07
6.31479e+07
6.33204e+07
6.64033e+07
6.63888e+07
6.97091e+07
6.94882e+07
7.30358e+07
7.25913e+07
7.63595e+07
7.56757e+07
7.9661e+07
7.87237e+07
8.29252e+07
8.17212e+07
8.61408e+07
8.46574e+07
8.92995e+07
8.75246e+07
9.23957e+07
9.03173e+07
9.54261e+07
9.30326e+07
4.588e+07
4.62287e+07
4.62971e+07
4.6796e+07
4.71986e+07
4.7808e+07
4.85495e+07
4.92268e+07
5.03016e+07
5.10041e+07
5.23988e+07
5.30863e+07
5.4783e+07
5.54191e+07
5.73982e+07
5.79505e+07
6.01926e+07
6.06329e+07
6.31202e+07
6.34241e+07
6.61411e+07
6.62874e+07
6.92215e+07
6.91916e+07
7.23329e+07
7.21105e+07
7.5452e+07
7.50224e+07
7.85599e+07
7.79097e+07
8.16415e+07
8.07585e+07
8.46854e+07
8.35578e+07
8.76829e+07
8.62996e+07
9.06282e+07
8.89783e+07
9.35175e+07
9.15905e+07
4.75315e+07
4.78808e+07
4.79013e+07
4.83913e+07
4.8705e+07
4.93023e+07
4.99148e+07
5.05832e+07
5.14911e+07
5.21941e+07
5.33876e+07
5.40899e+07
5.55551e+07
5.62241e+07
5.79447e+07
5.85513e+07
6.05108e+07
6.10288e+07
6.32116e+07
6.36185e+07
6.60106e+07
6.62864e+07
6.8876e+07
6.90032e+07
7.17808e+07
7.17441e+07
7.47026e+07
7.44882e+07
7.76228e+07
7.72182e+07
8.05267e+07
7.99204e+07
8.34024e+07
8.25839e+07
8.62413e+07
8.52004e+07
8.9037e+07
8.77641e+07
9.17857e+07
9.02712e+07
4.91397e+07
4.94851e+07
4.94685e+07
4.99451e+07
5.01869e+07
5.07666e+07
5.12722e+07
5.19243e+07
5.26921e+07
5.33854e+07
5.4408e+07
5.5112e+07
5.63782e+07
5.7064e+07
5.85605e+07
5.92019e+07
6.09147e+07
6.14881e+07
6.34033e+07
6.38879e+07
6.5993e+07
6.63701e+07
6.86542e+07
6.89077e+07
7.13616e+07
7.14771e+07
7.40936e+07
7.40584e+07
7.68325e+07
7.66349e+07
7.95635e+07
7.91931e+07
8.22751e+07
8.17222e+07
8.49583e+07
8.42137e+07
8.76065e+07
8.66617e+07
9.02155e+07
8.90619e+07
5.06988e+07
5.10359e+07
5.09922e+07
5.14512e+07
5.16358e+07
5.21929e+07
5.26111e+07
5.32406e+07
5.38916e+07
5.45668e+07
5.5445e+07
5.61395e+07
5.7236e+07
5.79247e+07
5.92283e+07
5.98878e+07
6.13864e+07
6.19956e+07
6.36771e+07
6.42168e+07
6.60699e+07
6.65234e+07
6.85377e+07
6.889e+07
7.1057e+07
7.12946e+07
7.36072e+07
7.37184e+07
7.61713e+07
7.61455e+07
7.87349e+07
7.85626e+07
8.12867e+07
8.09589e+07
8.38175e+07
8.33262e+07
8.63206e+07
8.56581e+07
8.87914e+07
8.79502e+07
5.22032e+07
5.2528e+07
5.24659e+07
5.29032e+07
5.30438e+07
5.35739e+07
5.39217e+07
5.45229e+07
5.50778e+07
5.57274e+07
5.64851e+07
5.71605e+07
5.81135e+07
5.87929e+07
5.99317e+07
6.05947e+07
6.19088e+07
6.25365e+07
6.40152e+07
6.45905e+07
6.62235e+07
6.6731e+07
6.85089e+07
6.89349e+07
7.08494e+07
7.11817e+07
7.32258e+07
7.34537e+07
7.56219e+07
7.57356e+07
7.80239e+07
7.80147e+07
8.04205e+07
8.02806e+07
8.28027e+07
8.25247e+07
8.51635e+07
8.47407e+07
8.7498e+07
8.69239e+07
5.36473e+07
5.39554e+07
5.38833e+07
5.42949e+07
5.44032e+07
5.4902e+07
5.51948e+07
5.57624e+07
5.62398e+07
5.68572e+07
5.75155e+07
5.81634e+07
5.89963e+07
5.9656e+07
6.06554e+07
6.13091e+07
6.24657e+07
6.30967e+07
6.4401e+07
6.49941e+07
6.64367e+07
6.69782e+07
6.85503e+07
6.90277e+07
7.07214e+07
7.11238e+07
7.29323e+07
7.32498e+07
7.51674e+07