/*--------------------------------*- C++ -*----------------------------------*\
| =========                 |                                                 |
| \\      /  F ield         | OpenFOAM: The Open Source CFD Toolbox           |
|  \\    /   O peration     | Version:  v2012                                 |
|   \\  /    A nd           | Website:  www.openfoam.com                      |
|    \\/     M anipulation  |                                                 |
\*---------------------------------------------------------------------------*/
FoamFile
{
    version     2.0;
    format      ascii;
    class       pointSymmTensorField;
    location    "16";
    object      pEpsilon;
}
// * * * * * * * * * * * * * * * * * * * * * * * * * * * * * * * * * * * * * //

dimensions      [0 0 0 0 0 0 0];


internalField   nonuniform List<symmTensor> 
2014
(
(0.00038774 -1.89373e-05 -3.22333e-15 -0.00126373 0 0)
(0.000568086 -6.39929e-06 4.2067e-16 1.14417e-05 0 0)
(0.000693947 1.11322e-06 1.76725e-15 -0.000298723 2.20771e-16 0)
(0.000262889 0.000131297 0 -0.000141997 -2.44488e-15 0)
(0.00736834 -0.00035672 0 -0.00637272 -7.94471e-14 0)
(0.00038774 -1.89373e-05 -3.22333e-15 -0.00126373 0 0)
(0.000568086 -6.39929e-06 4.2067e-16 1.14417e-05 0 0)
(0.000693947 1.11322e-06 1.76725e-15 -0.000298723 2.20771e-16 0)
(0.000262889 0.000131297 0 -0.000141997 -2.44488e-15 0)
(0.00736834 -0.00035672 0 -0.00637272 -7.94471e-14 0)
(0.000309333 -1.88917e-05 -2.44813e-15 -0.000896918 0 0)
(0.000206824 -2.81903e-05 -1.38127e-15 -0.000632118 0 0)
(0.000131089 -3.89275e-05 -4.85723e-16 -0.000451231 0 0)
(9.24389e-05 -4.16567e-05 -1.31188e-16 -0.000305624 0 0)
(8.88371e-05 -4.02495e-05 -2.3744e-16 -0.000217303 0 0)
(0.000100348 -3.46906e-05 -3.25261e-17 -0.00014963 0 0)
(0.000114557 -4.05201e-05 -1.10589e-16 -9.81379e-05 0 0)
(0.00013574 -3.16237e-05 -7.37257e-17 -6.42823e-05 0 0)
(0.000171535 -3.40923e-05 -4.11997e-17 -4.53321e-05 0 0)
(0.000198376 -3.36497e-05 -8.89046e-17 -3.11772e-05 0 0)
(0.00022753 -2.32859e-05 -3.88144e-16 -2.35131e-05 0 0)
(0.000264062 -2.01108e-05 -1.51788e-16 -1.97416e-05 0 0)
(0.00029167 -1.54396e-05 -7.28584e-16 -2.16268e-05 0 0)
(0.000326133 -1.57853e-05 -2.60209e-17 -2.73028e-05 0 0)
(0.000351547 -1.77032e-05 -1.0777e-15 -3.36268e-05 0 0)
(0.000383847 -1.90204e-05 2.55872e-16 -3.79808e-05 0 0)
(0.000410848 -2.2148e-05 4.38018e-16 -4.81006e-05 0 0)
(0.000436499 -1.62274e-05 -1.51571e-15 -5.64181e-05 0 0)
(0.000459864 -1.2605e-05 9.32414e-17 -6.47617e-05 0 0)
(0.000486246 -1.16323e-05 2.70183e-15 -7.28295e-05 0 0)
(0.000508655 -1.01975e-05 9.97466e-17 -7.96195e-05 0 0)
(0.000527008 -1.26896e-05 -7.63278e-16 -8.30525e-05 0 0)
(0.000541898 -1.32833e-05 -6.46184e-16 -8.5271e-05 0 0)
(0.000556007 -8.26024e-06 7.69784e-16 -8.46376e-05 0 0)
(0.000567638 -6.95242e-06 -3.90313e-16 -8.17041e-05 0 0)
(0.000577244 -8.38349e-06 -3.07913e-16 -7.44404e-05 0 0)
(0.000578875 -1.15706e-05 -6.72205e-16 -6.10317e-05 0 0)
(0.000576532 -6.84957e-06 2.30935e-15 -4.17868e-05 0 0)
(0.000573197 -4.1758e-06 -4.33681e-16 -1.71835e-05 0 0)
(0.000572 -4.92423e-07 5.85469e-16 8.73793e-06 1.39835e-15 0)
(0.00057488 -2.48891e-06 -1.59811e-15 2.08614e-08 -7.86704e-16 0)
(0.000578249 -8.56494e-06 4.42354e-16 -8.67129e-06 -3.03743e-15 0)
(0.000582213 -7.09734e-06 4.20887e-15 -2.06401e-05 -1.14739e-15 0)
(0.000592324 -1.09956e-05 2.18358e-15 -4.19373e-05 2.85712e-16 0)
(0.000598062 -1.4044e-05 1.57643e-15 -5.93599e-05 6.25807e-16 0)
(0.000604167 -1.24702e-05 -3.15937e-15 -7.85814e-05 2.66701e-15 0)
(0.000616315 -1.39489e-05 -7.13405e-16 -0.000106545 -9.47982e-16 0)
(0.000627339 -1.69121e-05 -4.06793e-15 -0.000133765 1.05964e-15 0)
(0.000638837 -1.3534e-05 -3.75134e-15 -0.000161859 -5.27414e-16 0)
(0.000647437 -1.52073e-05 -1.60462e-15 -0.000187025 4.97479e-16 0)
(0.000654412 -1.62356e-05 -1.57643e-15 -0.000211739 2.02841e-15 0)
(0.000667962 -1.16643e-05 2.41994e-15 -0.000237068 6.01292e-16 0)
(0.000675057 -1.32207e-05 3.3285e-15 -0.000256763 1.04449e-15 0)
(0.000681394 -9.63733e-06 -3.40223e-15 -0.000274082 1.04863e-15 0)
(0.000689597 -5.73345e-06 -1.9082e-16 -0.000289824 2.05639e-15 0)
(0.000691775 -4.24694e-06 -3.04444e-15 -0.000297131 -6.4632e-16 0)
(0.000694754 -4.35461e-08 -5.46004e-15 -0.000300645 -1.12974e-15 0)
(0.000694835 1.05204e-06 -4.01805e-15 -0.000300017 6.57027e-16 0)
(0.000692263 5.61031e-07 -1.99493e-15 -0.000297721 2.88804e-16 0)
(0.000691552 2.36847e-07 1.48536e-15 -0.000298432 -1.74109e-15 0)
(0.00069503 -2.47261e-06 9.04225e-16 -0.000301724 -1.44592e-15 0)
(0.000701568 -5.3365e-06 4.17635e-15 -0.000302712 -6.5784e-16 0)
(0.000717099 -8.80161e-06 1.96024e-15 -0.000309639 2.27127e-15 0)
(0.000735814 -1.32328e-05 7.14272e-15 -0.000318987 6.65429e-17 0)
(0.00075525 -1.40367e-05 7.54605e-15 -0.000325212 5.7151e-16 0)
(0.000785977 -1.77754e-05 -3.31007e-15 -0.000340307 -3.04647e-15 0)
(0.000815003 -1.68074e-05 -3.5345e-16 -0.000348662 -1.79761e-15 0)
(0.000849426 -2.01676e-05 -3.02384e-15 -0.000362874 5.68407e-15 0)
(0.000890611 -2.26032e-05 -8.78204e-17 -0.0003817 -4.74881e-16 0)
(0.000927525 -2.4803e-05 -4.01155e-17 -0.000394369 -5.07447e-15 0)
(0.000969106 -3.28612e-05 -9.48677e-16 -0.000409241 2.44528e-15 0)
(0.00102091 -2.7565e-05 5.94251e-15 -0.000431687 -1.69258e-15 0)
(0.00106819 -3.59568e-05 -4.92228e-16 -0.000452002 -1.58022e-16 0)
(0.00111613 -3.16242e-05 3.83374e-15 -0.000470056 4.26525e-15 0)
(0.00117929 -2.48416e-05 6.43691e-15 -0.000496479 -2.24023e-16 0)
(0.00122826 -3.50049e-05 -3.46945e-17 -0.000514196 -9.29161e-16 0)
(0.0012871 -2.98318e-05 2.80158e-15 -0.000541155 1.38263e-15 0)
(0.00133239 -3.91623e-05 -3.84783e-15 -0.00053832 -8.47575e-16 0)
(0.00141208 -3.39484e-05 3.84133e-15 -0.000593755 2.33917e-16 0)
(0.00146086 -3.36752e-05 1.59898e-14 -0.000601676 -1.74448e-15 0)
(0.00152285 -2.31027e-05 -7.08635e-15 -0.000634487 2.50613e-15 0)
(0.00156525 -2.48865e-05 -8.40474e-15 -0.000641972 5.53133e-15 0)
(0.00162939 -4.16354e-06 1.8014e-15 -0.000679582 5.86553e-15 0)
(0.0016859 -1.85689e-05 1.29128e-15 -0.000708392 -2.11772e-15 0)
(0.00171051 -2.18148e-05 7.96834e-15 -0.000708831 3.36265e-15 0)
(0.00174384 -7.53709e-06 -2.1136e-14 -0.000723278 -7.04731e-18 0)
(0.00173752 -1.81337e-05 -4.92661e-15 -0.000717911 3.59521e-15 0)
(0.00171439 1.98717e-05 -6.43691e-15 -0.000705047 2.94795e-15 0)
(0.00169091 2.13899e-05 9.22304e-15 -0.000698274 -1.67726e-15 0)
(0.00160354 5.16097e-05 -1.1103e-14 -0.000666921 2.2096e-15 0)
(0.00148365 8.56693e-05 -1.116e-14 -0.000622473 -4.82687e-15 0)
(0.00134087 0.000112104 -3.86139e-15 -0.000588078 1.24466e-15 0)
(0.00113256 0.00012251 -6.05933e-16 -0.000523027 2.33862e-15 0)
(0.00085893 0.000129613 -5.47861e-16 -0.00040672 4.23923e-16 0)
(0.000659134 0.000126814 -2.42082e-15 -0.00036619 -1.82471e-15 0)
(0.000451541 4.75465e-05 1.75214e-15 -0.000279023 1.4962e-16 0)
(0.000327266 2.76725e-05 1.64179e-15 -0.000267877 -8.78204e-17 0)
(0.000725131 0.000147775 0 -0.000273458 -1.4962e-16 0)
(0.00110577 0.000138922 0 -0.000342935 -4.33789e-15 0)
(0.00134585 0.000129405 0 -0.000323653 3.39247e-15 0)
(0.00166733 0.000136471 0 -0.000337047 -5.75061e-15 0)
(0.00204367 0.000182813 0 -0.000405491 1.49511e-15 0)
(0.00279702 0.000176916 0 -0.00110744 8.41341e-16 0)
(0.00494943 1.27411e-05 0 -0.00309705 -1.5709e-14 0)
(0.00669307 -0.000218739 0 -0.00550772 -4.65101e-14 0)
(0.00673184 -0.000556101 0 -0.00608376 -4.44761e-14 0)
(0.00779071 -0.00166552 -2.59482e-14 -0.00774766 -7.69621e-15 0)
(0.00675743 -0.00352314 4.27821e-14 -0.0068643 4.93361e-14 0)
(0.00339266 -0.0027379 -1.83143e-14 -0.00188998 5.78368e-15 0)
(0.00116232 -0.00103011 -5.36572e-15 -0.00010218 2.73653e-15 0)
(0.000603887 -0.000521159 5.63135e-15 -0.00013838 9.93671e-16 0)
(0.000443795 -0.000304247 2.50234e-15 -0.000117281 7.96889e-17 0)
(0.000307334 -0.000164207 -1.2219e-15 -0.000149912 1.07282e-15 0)
(0.00015543 -6.24228e-06 4.11997e-17 -0.000185314 1.20617e-15 0)
(8.26217e-05 0.00014624 4.44523e-17 -0.000288841 4.17418e-16 0)
(7.70392e-05 0.00028706 -2.1684e-18 -0.000435769 1.81062e-16 0)
(0.000119799 0.000388212 2.66714e-16 -0.00062435 3.17563e-15 0)
(0.000179723 0.000342129 -8.99888e-17 -0.000840071 9.76866e-16 0)
(0.000305795 0.000312979 2.00361e-15 -0.00102363 -5.64368e-15 0)
(0.000380583 0.000291263 4.11563e-15 -0.00116617 -2.67852e-15 0)
(0.000444884 0.000149892 -1.22732e-15 -0.00128544 3.28554e-15 0)
(0.000309333 -1.88917e-05 -2.44813e-15 -0.000896918 0 0)
(0.000206824 -2.81903e-05 -1.38127e-15 -0.000632118 0 0)
(0.000131089 -3.89275e-05 -4.85723e-16 -0.000451231 0 0)
(9.24389e-05 -4.16567e-05 -1.31188e-16 -0.000305624 0 0)
(8.88371e-05 -4.02495e-05 -2.3744e-16 -0.000217303 0 0)
(0.000100348 -3.46906e-05 -3.25261e-17 -0.00014963 0 0)
(0.000114557 -4.05201e-05 -1.10589e-16 -9.81379e-05 0 0)
(0.00013574 -3.16237e-05 -7.37257e-17 -6.42823e-05 0 0)
(0.000171535 -3.40923e-05 -4.11997e-17 -4.53321e-05 0 0)
(0.000198376 -3.36497e-05 -8.89046e-17 -3.11772e-05 0 0)
(0.00022753 -2.32859e-05 -3.88144e-16 -2.35131e-05 0 0)
(0.000264062 -2.01108e-05 -1.51788e-16 -1.97416e-05 0 0)
(0.00029167 -1.54396e-05 -7.28584e-16 -2.16268e-05 0 0)
(0.000326133 -1.57853e-05 -2.60209e-17 -2.73028e-05 0 0)
(0.000351547 -1.77032e-05 -1.0777e-15 -3.36268e-05 0 0)
(0.000383847 -1.90204e-05 2.55872e-16 -3.79808e-05 0 0)
(0.000410848 -2.2148e-05 4.38018e-16 -4.81006e-05 0 0)
(0.000436499 -1.62274e-05 -1.51571e-15 -5.64181e-05 0 0)
(0.000459864 -1.2605e-05 9.32414e-17 -6.47617e-05 0 0)
(0.000486246 -1.16323e-05 2.70183e-15 -7.28295e-05 0 0)
(0.000508655 -1.01975e-05 9.97466e-17 -7.96195e-05 0 0)
(0.000527008 -1.26896e-05 -7.63278e-16 -8.30525e-05 0 0)
(0.000541898 -1.32833e-05 -6.46184e-16 -8.5271e-05 0 0)
(0.000556007 -8.26024e-06 7.69784e-16 -8.46376e-05 0 0)
(0.000567638 -6.95242e-06 -3.90313e-16 -8.17041e-05 0 0)
(0.000577244 -8.38349e-06 -3.07913e-16 -7.44404e-05 0 0)
(0.000578875 -1.15706e-05 -6.72205e-16 -6.10317e-05 0 0)
(0.000576532 -6.84957e-06 2.30935e-15 -4.17868e-05 0 0)
(0.000573197 -4.1758e-06 -4.33681e-16 -1.71835e-05 0 0)
(0.000572 -4.92423e-07 5.85469e-16 8.73793e-06 1.39835e-15 0)
(0.00057488 -2.48891e-06 -1.59811e-15 2.08614e-08 -7.86704e-16 0)
(0.000578249 -8.56494e-06 4.42354e-16 -8.67129e-06 -3.03743e-15 0)
(0.000582213 -7.09734e-06 4.20887e-15 -2.06401e-05 -1.14739e-15 0)
(0.000592324 -1.09956e-05 2.18358e-15 -4.19373e-05 2.85712e-16 0)
(0.000598062 -1.4044e-05 1.57643e-15 -5.93599e-05 6.25807e-16 0)
(0.000604167 -1.24702e-05 -3.15937e-15 -7.85814e-05 2.66701e-15 0)
(0.000616315 -1.39489e-05 -7.13405e-16 -0.000106545 -9.47982e-16 0)
(0.000627339 -1.69121e-05 -4.06793e-15 -0.000133765 1.05964e-15 0)
(0.000638837 -1.3534e-05 -3.75134e-15 -0.000161859 -5.27414e-16 0)
(0.000647437 -1.52073e-05 -1.60462e-15 -0.000187025 4.97479e-16 0)
(0.000654412 -1.62356e-05 -1.57643e-15 -0.000211739 2.02841e-15 0)
(0.000667962 -1.16643e-05 2.41994e-15 -0.000237068 6.01292e-16 0)
(0.000675057 -1.32207e-05 3.3285e-15 -0.000256763 1.04449e-15 0)
(0.000681394 -9.63733e-06 -3.40223e-15 -0.000274082 1.04863e-15 0)
(0.000689597 -5.73345e-06 -1.9082e-16 -0.000289824 2.05639e-15 0)
(0.000691775 -4.24694e-06 -3.04444e-15 -0.000297131 -6.4632e-16 0)
(0.000694754 -4.35461e-08 -5.46004e-15 -0.000300645 -1.12974e-15 0)
(0.000694835 1.05204e-06 -4.01805e-15 -0.000300017 6.57027e-16 0)
(0.000692263 5.61031e-07 -1.99493e-15 -0.000297721 2.88804e-16 0)
(0.000691552 2.36847e-07 1.48536e-15 -0.000298432 -1.74109e-15 0)
(0.00069503 -2.47261e-06 9.04225e-16 -0.000301724 -1.44592e-15 0)
(0.000701568 -5.3365e-06 4.17635e-15 -0.000302712 -6.5784e-16 0)
(0.000717099 -8.80161e-06 1.96024e-15 -0.000309639 2.27127e-15 0)
(0.000735814 -1.32328e-05 7.14272e-15 -0.000318987 6.65429e-17 0)
(0.00075525 -1.40367e-05 7.54605e-15 -0.000325212 5.7151e-16 0)
(0.000785977 -1.77754e-05 -3.31007e-15 -0.000340307 -3.04647e-15 0)
(0.000815003 -1.68074e-05 -3.5345e-16 -0.000348662 -1.79761e-15 0)
(0.000849426 -2.01676e-05 -3.02384e-15 -0.000362874 5.68407e-15 0)
(0.000890611 -2.26032e-05 -8.78204e-17 -0.0003817 -4.74881e-16 0)
(0.000927525 -2.4803e-05 -4.01155e-17 -0.000394369 -5.07447e-15 0)
(0.000969106 -3.28612e-05 -9.48677e-16 -0.000409241 2.44528e-15 0)
(0.00102091 -2.7565e-05 5.94251e-15 -0.000431687 -1.69258e-15 0)
(0.00106819 -3.59568e-05 -4.92228e-16 -0.000452002 -1.58022e-16 0)
(0.00111613 -3.16242e-05 3.83374e-15 -0.000470056 4.26525e-15 0)
(0.00117929 -2.48416e-05 6.43691e-15 -0.000496479 -2.24023e-16 0)
(0.00122826 -3.50049e-05 -3.46945e-17 -0.000514196 -9.29161e-16 0)
(0.0012871 -2.98318e-05 2.80158e-15 -0.000541155 1.38263e-15 0)
(0.00133239 -3.91623e-05 -3.84783e-15 -0.00053832 -8.47575e-16 0)
(0.00141208 -3.39484e-05 3.84133e-15 -0.000593755 2.33917e-16 0)
(0.00146086 -3.36752e-05 1.59898e-14 -0.000601676 -1.74448e-15 0)
(0.00152285 -2.31027e-05 -7.08635e-15 -0.000634487 2.50613e-15 0)
(0.00156525 -2.48865e-05 -8.40474e-15 -0.000641972 5.53133e-15 0)
(0.00162939 -4.16354e-06 1.8014e-15 -0.000679582 5.86553e-15 0)
(0.0016859 -1.85689e-05 1.29128e-15 -0.000708392 -2.11772e-15 0)
(0.00171051 -2.18148e-05 7.96834e-15 -0.000708831 3.36265e-15 0)
(0.00174384 -7.53709e-06 -2.1136e-14 -0.000723278 -7.04731e-18 0)
(0.00173752 -1.81337e-05 -4.92661e-15 -0.000717911 3.59521e-15 0)
(0.00171439 1.98717e-05 -6.43691e-15 -0.000705047 2.94795e-15 0)
(0.00169091 2.13899e-05 9.22304e-15 -0.000698274 -1.67726e-15 0)
(0.00160354 5.16097e-05 -1.1103e-14 -0.000666921 2.2096e-15 0)
(0.00148365 8.56693e-05 -1.116e-14 -0.000622473 -4.82687e-15 0)
(0.00134087 0.000112104 -3.86139e-15 -0.000588078 1.24466e-15 0)
(0.00113256 0.00012251 -6.05933e-16 -0.000523027 2.33862e-15 0)
(0.00085893 0.000129613 -5.47861e-16 -0.00040672 4.23923e-16 0)
(0.000659134 0.000126814 -2.42082e-15 -0.00036619 -1.82471e-15 0)
(0.000451541 4.75465e-05 1.75214e-15 -0.000279023 1.4962e-16 0)
(0.000327266 2.76725e-05 1.64179e-15 -0.000267877 -8.78204e-17 0)
(0.000725131 0.000147775 0 -0.000273458 -1.4962e-16 0)
(0.00110577 0.000138922 0 -0.000342935 -4.33789e-15 0)
(0.00134585 0.000129405 0 -0.000323653 3.39247e-15 0)
(0.00166733 0.000136471 0 -0.000337047 -5.75061e-15 0)
(0.00204367 0.000182813 0 -0.000405491 1.49511e-15 0)
(0.00279702 0.000176916 0 -0.00110744 8.41341e-16 0)
(0.00494943 1.27411e-05 0 -0.00309705 -1.5709e-14 0)
(0.00669307 -0.000218739 0 -0.00550772 -4.65101e-14 0)
(0.00673184 -0.000556101 0 -0.00608376 -4.44761e-14 0)
(0.00779071 -0.00166552 -2.59482e-14 -0.00774766 -7.69621e-15 0)
(0.00675743 -0.00352314 4.27821e-14 -0.0068643 4.93361e-14 0)
(0.00339266 -0.0027379 -1.83143e-14 -0.00188998 5.78368e-15 0)
(0.00116232 -0.00103011 -5.36572e-15 -0.00010218 2.73653e-15 0)
(0.000603887 -0.000521159 5.63135e-15 -0.00013838 9.93671e-16 0)
(0.000443795 -0.000304247 2.50234e-15 -0.000117281 7.96889e-17 0)
(0.000307334 -0.000164207 -1.2219e-15 -0.000149912 1.07282e-15 0)
(0.00015543 -6.24228e-06 4.11997e-17 -0.000185314 1.20617e-15 0)
(8.26217e-05 0.00014624 4.44523e-17 -0.000288841 4.17418e-16 0)
(7.70392e-05 0.00028706 -2.1684e-18 -0.000435769 1.81062e-16 0)
(0.000119799 0.000388212 2.66714e-16 -0.00062435 3.17563e-15 0)
(0.000179723 0.000342129 -8.99888e-17 -0.000840071 9.76866e-16 0)
(0.000305795 0.000312979 2.00361e-15 -0.00102363 -5.64368e-15 0)
(0.000380583 0.000291263 4.11563e-15 -0.00116617 -2.67852e-15 0)
(0.000444884 0.000149892 -1.22732e-15 -0.00128544 3.28554e-15 0)
(0.000688835 -0.00037532 3.30682e-16 -0.000343937 -3.23363e-16 0)
(0.000648932 -0.000239144 1.47451e-16 -0.000203065 -9.27501e-16 0)
(0.00112023 -0.00015603 6.37186e-15 -0.000632043 -2.12802e-15 0)
(0.000811142 -0.000313914 7.41594e-16 -0.000320916 5.42237e-16 0)
(0.000463043 -0.000276703 -2.43945e-16 -0.000118852 -1.51111e-16 0)
(0.000713058 -0.000131025 1.10589e-16 -0.000264345 4.8579e-16 0)
(0.000593812 -0.000124196 -1.0018e-15 -0.000126142 1.20861e-15 0)
(0.00175117 6.78397e-05 4.72224e-15 -0.00109463 -3.18105e-15 0)
(0.000320067 -0.000288414 3.08998e-16 -0.000312625 3.80081e-16 0)
(0.00111251 -0.000254989 4.13732e-15 -0.000520847 -3.58871e-16 0)
(0.000814301 -0.000210793 -2.44379e-15 -0.000324792 -3.16452e-17 0)
(0.000507409 -0.000177442 5.5728e-16 -0.000103203 3.09658e-16 0)
(0.000307812 -0.000268956 -3.91397e-16 -0.000115844 4.23212e-16 0)
(0.000663491 -0.000249385 -1.64473e-15 -0.000518916 -6.28024e-16 0)
(0.000646024 -0.000126467 -3.10732e-15 -0.000183402 5.07779e-16 0)
(0.0010474 -0.000261206 1.38236e-15 -0.000446423 3.88985e-15 0)
(0.000639156 -0.000364851 3.95734e-16 -0.00025216 -1.74963e-16 0)
(0.000632685 -0.000303209 2.39067e-15 -0.00020569 -6.74374e-16 0)
(0.0014464 6.4757e-05 -6.7085e-15 -0.00073865 -1.41109e-15 0)
(0.00102469 -0.000166983 4.6946e-15 -0.000621995 1.94723e-15 0)
(0.000944306 -0.00020133 -8.93383e-16 -0.000394441 -5.20227e-15 0)
(0.000785363 -0.000127998 3.14852e-15 -0.000319401 -5.44676e-16 0)
(0.00135491 -0.000101565 -6.29921e-16 -0.000621758 3.74782e-15 0)
(0.00084767 -0.000307815 -5.37222e-15 -0.000489684 -3.82046e-16 0)
(0.00058615 -5.24745e-05 5.26922e-16 -8.34847e-05 9.47034e-16 0)
(0.000707099 -4.95922e-05 1.10805e-15 -0.000284566 2.32697e-16 0)
(0.000536071 -9.66042e-05 -7.17742e-16 -9.74397e-05 9.0082e-16 0)
(0.000398329 -0.00014707 6.15827e-16 -5.80904e-05 2.6491e-17 0)
(0.000727354 -0.000199321 -3.1984e-15 -0.000266895 1.4386e-15 0)
(0.0016023 0.000480744 4.20399e-15 -0.000656842 -3.40873e-15 0)
(0.000627175 -0.000176208 -6.50521e-18 -0.000173325 -2.59192e-17 0)
(0.000825458 -0.000354519 3.97035e-15 -0.000362282 -4.02713e-16 0)
(0.000305324 -0.000167736 6.93889e-17 -4.86309e-05 -9.27925e-18 0)
(0.0023582 -0.000462753 1.16812e-14 -0.0012664 7.46473e-15 0)
(0.000192609 -0.000198494 -2.79724e-16 -0.000149936 -3.74998e-16 0)
(0.00061386 -8.32739e-05 -1.96457e-15 -0.00012517 -3.61514e-16 0)
(0.000673945 -8.29432e-05 7.54605e-16 -0.000230452 2.35746e-16 0)
(0.000447962 -0.000358704 -6.36427e-16 -0.00025091 -1.02701e-15 0)
(0.000192538 -0.000102417 3.54534e-16 -0.000459008 6.63328e-16 0)
(0.000570562 -0.00017129 7.02563e-16 -0.000132413 -1.20509e-15 0)
(0.000352922 -0.000172987 9.41087e-16 -0.000484525 1.73459e-15 0)
(0.000754576 -0.00028142 1.88109e-15 -0.000285006 -5.00495e-16 0)
(0.000597999 -0.000354493 6.94974e-16 -0.000394722 -1.20739e-15 0)
(0.000568015 -0.000247412 -9.5193e-16 -0.000152132 3.72796e-16 0)
(0.00124176 -0.000190584 -6.9107e-15 -0.000537959 1.63986e-15 0)
(0.00155012 0.000330873 -6.8649e-15 -0.000762145 -2.30989e-15 0)
(0.000467471 -0.000328477 1.45175e-15 -0.000161688 -1.01085e-16 0)
(0.00107367 -0.000183077 -1.55041e-16 -0.000455407 -1.75776e-16 0)
(0.000748951 -7.37196e-05 -2.23346e-16 -0.000308791 -3.18755e-16 0)
(0.000679462 -0.000145099 -2.41777e-16 -0.000496365 -8.99346e-16 0)
(0.000564994 -6.21494e-05 -9.08561e-16 -9.47779e-05 -3.56465e-16 0)
(0.000676233 -0.000172685 1.07119e-15 -0.000222214 -7.32446e-16 0)
(0.000904976 -0.000144825 -2.1272e-15 -0.000375636 -6.85351e-16 0)
(0.000443458 -0.000101899 2.03179e-15 -6.5172e-05 -4.04513e-16 0)
(0.00108599 -0.00022846 -1.54607e-15 -0.000557502 -9.59519e-17 0)
(0.000899051 -0.000338892 5.18899e-15 -0.00044357 2.35868e-15 0)
(0.00136924 -0.000139143 -5.60641e-15 -0.000604942 2.06812e-16 0)
(0.00129771 -3.5884e-05 -4.27935e-15 -0.00073894 -3.69713e-16 0)
(0.000485524 -0.000227667 1.09504e-15 -0.000108573 -7.07899e-16 0)
(0.000993706 -0.000416017 9.73885e-15 -0.000583345 -1.37368e-15 0)
(0.000230638 -0.000152213 2.27682e-16 -5.73015e-05 3.11115e-17 0)
(0.000708422 -0.000252374 -4.67291e-15 -0.000249929 4.82605e-16 0)
(0.000683744 -0.000341857 7.67615e-16 -0.000249363 -7.25128e-16 0)
(0.000924658 -0.000204172 -1.92229e-15 -0.00059957 7.38884e-16 0)
(0.00101037 -0.00029809 5.3603e-15 -0.000451475 -1.28885e-16 0)
(0.00149663 -1.78656e-07 -7.64363e-16 -0.000677561 -1.44145e-15 0)
(0.000568476 -0.000369969 1.97975e-15 -0.000245161 8.10983e-16 0)
(0.000891846 -0.000320157 2.76905e-15 -0.000373718 -2.31708e-15 0)
(0.000846452 -0.000100305 4.76941e-15 -0.000355172 -1.60679e-15 0)
(0.00239232 0.000310012 1.76833e-14 -0.00100778 5.41667e-15 0)
(0.000635363 -7.78646e-05 1.16877e-15 -0.000157816 1.02352e-15 0)
(0.000460155 -0.000108867 4.67291e-16 -0.000512696 3.27971e-16 0)
(0.00122378 -0.000150993 5.25079e-15 -0.00053019 2.37847e-16 0)
(0.000488679 -7.87551e-05 -4.27176e-16 -7.91862e-05 6.00021e-16 0)
(0.000622301 -0.000141183 7.04731e-16 -0.000157699 1.56501e-15 0)
(0.000596334 -4.46933e-05 -2.31586e-15 -7.75497e-05 -6.04892e-16 0)
(0.000686137 -5.00341e-05 1.45283e-16 -0.000260377 -2.41167e-16 0)
(0.00127616 -8.91905e-05 2.68936e-15 -0.000648469 2.44813e-15 0)
(0.000565481 -0.000327934 -4.29344e-16 -0.000184581 9.61044e-16 0)
(0.00013024 -0.000123839 -1.1601e-16 -0.000263631 8.66515e-17 0)
(0.000936065 -0.000264844 -1.92988e-15 -0.000387877 1.48183e-15 0)
(0.000540825 -0.000288792 7.12321e-16 -0.000154384 -3.94938e-16 0)
(0.000331385 -0.000104848 3.62124e-16 -3.67656e-05 6.97074e-16 0)
(0.000374989 -0.000258963 3.59955e-16 -9.38984e-05 9.01523e-16 0)
(0.00057931 -1.79409e-05 8.93383e-16 -4.53106e-05 -4.93803e-16 0)
(0.000699298 -9.6474e-06 6.46184e-16 -0.000293595 2.4774e-16 0)
(0.000842354 -0.000246153 5.02636e-15 -0.000338418 -1.28207e-15 0)
(0.0006732 -0.000136815 1.51788e-17 -0.00021987 -1.62156e-16 0)
(0.000588638 -0.000219174 1.23599e-16 -0.000156161 7.98921e-17 0)
(0.000754819 -0.000354085 1.46367e-15 -0.00030279 -1.08163e-15 0)
(0.000659945 -0.000275092 -1.38669e-15 -0.00021622 -1.86178e-16 0)
(0.000653362 -6.36581e-05 1.2425e-15 -0.000196035 -4.58211e-16 0)
(0.00029515 -0.000298975 4.77049e-17 -0.000209556 2.35069e-16 0)
(0.000776705 -0.00018225 1.31405e-15 -0.000303874 2.638e-16 0)
(0.00152362 0.000156881 -1.98409e-15 -0.000702593 2.21882e-15 0)
(0.000527358 -0.000292393 -5.9089e-16 -0.000455403 2.39432e-15 0)
(0.00059686 -8.49435e-05 1.0842e-16 -0.000109975 -1.62207e-16 0)
(0.000699115 -8.81029e-05 7.82794e-16 -0.00026035 -8.10373e-16 0)
(0.000743276 -0.000154644 1.8735e-15 -0.000286254 -2.292e-15 0)
(0.000674909 -0.00020996 1.19045e-15 -0.000222736 -1.5582e-15 0)
(0.00066398 -0.000174346 -1.73906e-15 -0.000382893 3.79308e-15 0)
(0.00136986 0.000414017 -5.50124e-15 -0.000613734 7.79541e-16 0)
(0.000401421 -0.000223828 1.38127e-15 -8.29216e-05 -8.67446e-16 0)
(0.00102424 0.000246731 -1.33025e-15 -0.000346633 -1.6675e-15 0)
(0.00104818 -0.000118116 2.29526e-15 -0.000445432 2.59802e-16 0)
(0.00152724 0.000133413 5.27085e-15 -0.000852674 -1.83068e-15 0)
(0.0013185 -0.000177421 6.92805e-16 -0.000780807 8.1532e-16 0)
(0.000716366 -0.000365177 -3.61256e-15 -0.000403845 -1.14505e-15 0)
(0.000834484 -0.000273825 -2.1684e-17 -0.000545309 -4.03052e-16 0)
(0.000432711 -0.000339911 1.56234e-15 -0.000185577 8.97889e-16 0)
(0.00078221 -7.20807e-05 3.08347e-15 -0.000329212 5.83978e-16 0)
(0.00108364 -0.000137522 -2.87314e-16 -0.000644863 -2.63786e-15 0)
(0.000725298 -3.73757e-05 2.704e-15 -0.000304191 7.89841e-16 0)
(0.000680901 -0.000374029 -8.1532e-16 -0.000290363 1.28668e-15 0)
(0.00016896 -0.000124832 8.5652e-17 -8.65414e-05 -2.70979e-16 0)
(0.00056533 -9.73469e-05 -1.6675e-15 -0.000105589 2.18501e-16 0)
(0.000252137 6.1924e-06 -6.37511e-16 -0.000614816 2.18602e-16 0)
(0.000575033 -3.45242e-05 1.63715e-15 -8.20809e-05 1.22858e-16 0)
(0.000538123 -4.92791e-05 7.97973e-16 -8.78849e-05 -2.81554e-17 0)
(0.000531606 -0.000152081 -2.49366e-16 -0.000108472 -6.51097e-16 0)
(0.00150053 -7.1392e-05 -1.46909e-15 -0.000649693 4.38478e-15 0)
(0.000395439 -7.85772e-05 -1.27936e-15 -4.71358e-05 -4.50622e-17 0)
(0.00121728 -0.000189681 -6.57894e-15 -0.000579712 6.19079e-16 0)
(0.00173972 0.000371014 2.62458e-15 -0.000883358 -6.01732e-16 0)
(0.00541986 -0.00136286 -2.14238e-15 -0.00425968 6.51063e-15 0)
(0.000593207 -0.000158948 2.79724e-16 -0.00014224 -3.76523e-16 0)
(0.000988227 -9.73575e-05 -6.29596e-15 -0.00042053 3.56431e-16 0)
(0.000985071 -0.000242774 -5.45354e-15 -0.000550491 1.17853e-15 0)
(0.00212427 0.000110672 -1.67563e-15 -0.00114741 1.1485e-14 0)
(0.000454176 -0.000164036 2.69533e-15 -7.96565e-05 3.39821e-16 0)
(0.000805549 -0.000367417 -1.29345e-15 -0.000378508 -3.13809e-16 0)
(0.000739777 -0.000313347 1.54499e-15 -0.000277004 1.29427e-16 0)
(0.000726374 -9.5183e-05 -2.2031e-15 -0.000285373 -9.58841e-16 0)
(0.000245394 2.59897e-05 7.02563e-16 -0.000724777 5.18723e-16 0)
(0.000647373 -0.000159144 3.38705e-15 -0.000191092 5.5091e-16 0)
(0.000266855 -0.000201464 -1.65883e-16 -0.000413897 4.94261e-16 0)
(0.000200816 -0.000223087 1.27936e-16 -0.000242975 1.89735e-18 0)
(0.0002434 -8.2812e-05 -6.07153e-17 -2.9086e-05 1.22853e-16 0)
(0.000438186 -0.000356025 8.71699e-16 -0.00030985 -5.90213e-17 0)
(0.000576825 -0.000373097 -3.70906e-15 -0.000324832 -1.35959e-15 0)
(0.000629038 -0.000209575 1.01264e-15 -0.000183188 9.68193e-16 0)
(0.00161149 0.000356426 4.41812e-15 -0.00045415 -3.5551e-15 0)
(0.00158172 -0.000936427 1.46367e-14 -0.000945091 -1.06577e-15 0)
(0.00141697 -9.98739e-05 2.82001e-15 -0.000616756 3.0954e-16 0)
(0.000580504 -8.11147e-05 8.89046e-17 -0.000101017 -7.11491e-16 0)
(0.000858358 -0.00027514 7.45931e-16 -0.000343757 6.62109e-16 0)
(0.000586265 -2.75959e-05 -1.12757e-16 -5.33981e-05 -5.78786e-16 0)
(0.000693454 -2.13975e-05 -1.15576e-15 -0.000281022 7.67005e-16 0)
(0.000551572 -0.000197163 -6.1149e-16 -0.000131958 -6.3663e-17 0)
(0.000226109 -0.00022342 1.64799e-16 -0.000109535 -5.65166e-16 0)
(0.000826359 -0.000165014 1.26635e-15 -0.000336349 -1.51964e-15 0)
(0.000317267 -0.000224592 -7.13405e-16 -7.72799e-05 -1.29681e-16 0)
(0.00123225 -8.1412e-05 -1.73472e-17 -0.000685665 4.27176e-16 0)
(0.00172787 -0.00022616 -3.7367e-15 -0.00102081 -7.07496e-15 0)
(0.00095333 -0.000316579 -1.72388e-16 -0.000417833 -2.20147e-15 0)
(0.00119643 -0.000117986 9.81745e-15 -0.000512873 5.98615e-16 0)
(0.000616765 -4.89822e-05 -1.62413e-15 -0.000122428 -1.07826e-15 0)
(0.000485149 -0.000122454 -4.66207e-16 -8.3859e-05 7.19241e-16 0)
(0.00323927 -0.00029013 9.05878e-15 -0.00165918 9.26993e-16 0)
(0.00100334 -0.000258743 -1.24683e-15 -0.000423372 1.54282e-15 0)
(0.000706216 -0.000174572 -3.00975e-15 -0.000251095 -7.73104e-16 0)
(0.000966782 -0.000293137 -6.21682e-15 -0.000507338 6.68682e-16 0)
(0.00122091 -0.000150973 -6.11924e-15 -0.000607874 3.65349e-15 0)
(0.000669627 -4.15554e-05 -1.81279e-15 -0.000233923 7.04867e-16 0)
(0.000665377 -0.00031318 2.14347e-15 -0.000480167 1.36759e-15 0)
(0.000751784 -0.000115147 1.9494e-15 -0.000303199 -1.12594e-15 0)
(0.000558761 -0.000135325 -6.39679e-16 -0.000114977 -1.33984e-16 0)
(0.000754797 -0.000224157 1.97758e-15 -0.000284156 1.06902e-15 0)
(0.000113146 -0.000101858 3.25261e-17 -0.000143538 -2.12021e-16 0)
(0.00123224 -0.000197579 2.58257e-15 -0.000544428 -9.76324e-16 0)
(0.000628237 -0.000108392 3.25261e-17 -0.000156767 1.65365e-15 0)
(0.00111215 -0.000249903 6.4716e-15 -0.000488466 -7.74893e-15 0)
(0.000125262 -8.36377e-05 -2.41777e-16 -0.000410206 8.40155e-16 0)
(0.000662543 -0.000105109 3.1225e-15 -0.000206413 1.35525e-17 0)
(0.000770274 -0.000252699 5.20417e-16 -0.000290766 1.25883e-15 0)
(0.000520188 -0.000218178 -6.17995e-16 -0.000119711 -5.60922e-16 0)
(0.000884406 -0.000166091 -7.22079e-16 -0.000581738 6.65429e-16 0)
(0.000550005 -0.000343967 -1.12215e-15 -0.000195969 5.4576e-16 0)
(0.00028791 2.62313e-05 5.01986e-16 -0.000539133 1.6713e-15 0)
(0.000610619 -0.000112303 -2.34188e-16 -0.000135179 1.38913e-15 0)
(0.000344569 -0.00031024 -6.72205e-16 -0.000170807 -1.39811e-16 0)
(0.00134123 -0.000112482 -1.70653e-15 -0.000574695 -4.65421e-15 0)
(0.000896674 -0.000193742 -2.56305e-15 -0.000370704 1.50474e-15 0)
(0.000615636 -0.000254101 -1.02132e-15 -0.000186155 -1.14526e-15 0)
(0.000535553 -0.000374391 9.45424e-16 -0.000264046 3.73813e-16 0)
(0.000375949 -0.000296951 -8.85793e-16 -0.000128435 6.12269e-16 0)
(0.000895513 -7.30706e-05 1.63064e-15 -0.000382853 1.2738e-15 0)
(0.000696115 -0.000297847 -4.2067e-16 -0.000245337 1.12879e-15 0)
(0.000414673 -5.79796e-05 1.66425e-15 -0.000395925 -1.47723e-16 0)
(0.000499216 -0.00021159 -6.64616e-16 -0.000502461 1.10168e-15 0)
(0.00100438 -0.000301175 1.2425e-15 -0.000472514 6.44152e-16 0)
(0.000456596 -5.13669e-05 1.40513e-15 -6.56042e-05 -5.58135e-16 0)
(0.000673185 -0.000303089 6.66784e-16 -0.000289384 -1.07336e-15 0)
(0.000817441 -6.39527e-05 -2.50668e-15 -0.000347882 -1.02755e-15 0)
(0.000588937 -0.000277305 8.70614e-16 -0.000174218 -1.27512e-15 0)
(0.001578 5.26217e-05 1.97271e-15 -0.000703924 -6.71175e-15 0)
(0.0011102 -0.000204385 -2.63244e-15 -0.000474343 5.21298e-15 0)
(0.0014423 0.000254784 -3.01191e-15 -0.000663845 1.85182e-15 0)
(0.00108222 0.000362264 2.76783e-15 -0.000445186 -2.11636e-15 0)
(0.00156077 -3.05922e-05 1.5889e-15 -0.000675512 -3.55239e-15 0)
(0.0011414 -9.67751e-05 1.01373e-15 -0.000488916 -1.69407e-15 0)
(0.000614423 -0.000322183 8.5652e-17 -0.000205876 1.3481e-15 0)
(0.000762078 -0.000201079 -4.97649e-16 -0.00056427 -2.16569e-15 0)
(0.000476962 -0.000314316 8.45678e-16 -0.000146849 -8.16032e-17 0)
(0.000509029 -4.27421e-05 4.46691e-16 -8.11207e-05 1.44893e-15 0)
(0.000699833 -0.000228798 -1.58727e-15 -0.00024173 2.72169e-15 0)
(0.000688154 -0.000116472 -8.82541e-16 -0.000240676 -2.77759e-16 0)
(0.000751949 -3.9648e-05 4.05925e-15 -0.000320112 -5.15538e-16 0)
(0.000996528 -0.000209105 -2.88615e-15 -0.000413112 2.30407e-15 0)
(0.000653971 -0.000189484 -7.22079e-16 -0.000202125 5.74492e-16 0)
(0.000605315 -4.20498e-05 -6.98226e-16 -9.12603e-05 9.32583e-16 0)
(0.00111834 -0.000252753 2.54788e-15 -0.000500326 1.57291e-15 0)
(0.000451336 -0.000238277 -1.73256e-15 -0.00010042 2.46114e-16 0)
(0.000599906 -0.000186891 -8.0231e-17 -0.000155577 1.3356e-16 0)
(0.000839463 -0.000340227 -2.58582e-15 -0.000450225 -2.06188e-15 0)
(0.000563593 -2.93691e-05 -1.92988e-16 -8.64783e-05 1.18675e-15 0)
(0.00140061 -1.23466e-05 -2.7658e-15 -0.000687152 -8.99888e-16 0)
(0.000904853 -0.000340476 3.24935e-15 -0.000408954 -2.71999e-16 0)
(0.000532907 -0.000256463 1.14925e-16 -0.00014077 -6.39595e-16 0)
(0.000688491 -0.000147199 -4.92228e-16 -0.000237195 2.05544e-15 0)
(0.0014895 -8.49253e-05 6.01624e-15 -0.000644452 3.20002e-15 0)
(0.000291033 -7.32981e-05 -8.67362e-17 -2.8138e-05 2.78216e-16 0)
(0.000757053 -0.000328265 1.42898e-15 -0.000470916 4.08609e-16 0)