/*--------------------------------*- C++ -*----------------------------------*\
| =========                 |                                                 |
| \\      /  F ield         | OpenFOAM: The Open Source CFD Toolbox           |
|  \\    /   O peration     | Version:  v2012                                 |
|   \\  /    A nd           | Website:  www.openfoam.com                      |
|    \\/     M anipulation  |                                                 |
\*---------------------------------------------------------------------------*/
FoamFile
{
    version     2.0;
    format      ascii;
    class       volScalarField;
    location    "16";
    object      sigmaHyd;
}
// * * * * * * * * * * * * * * * * * * * * * * * * * * * * * * * * * * * * * //

dimensions      [1 -1 -2 0 0 0 0];


internalField   nonuniform List<scalar> 
1896
(
2.96895e+07
2.45849e+07
2.8331e+07
3.76645e+07
2.89229e+07
2.84285e+07
2.65235e+07
2.49443e+07
7.23595e+06
2.45247e+07
3.06038e+07
1.50189e+07
1.55839e+07
1.38599e+07
3.47145e+07
3.98985e+07
2.77457e+07
7.48617e+07
2.96371e+07
2.49815e+06
-4.28825e+07
2.59459e+07
4.60544e+07
4.92222e+07
2.591e+07
2.5388e+07
1.72353e+07
1.73728e+07
2.98529e+07
3.20714e+07
2.96663e+07
2.36928e+07
6.16464e+06
2.47728e+07
4.37604e+07
3.09983e+07
2.95601e+07
2.56264e+07
4.66673e+07
3.25941e+07
2.32993e+07
1.74932e+07
2.51815e+07
2.18506e+07
1.8363e+07
1.54226e+07
3.14994e+07
3.04821e+07
2.98961e+07
4.13322e+07
2.85031e+07
2.68839e+07
2.54092e+07
2.67509e+07
9.89002e+06
2.50328e+07
1.91362e+07
3.03388e+07
2.69472e+07
3.37228e+07
2.51482e+07
4.0919e+07
3.86268e+07
2.73606e+07
6.81091e+06
2.35051e+07
4.39418e+07
1.71972e+07
2.64124e+07
4.35655e+07
6.12698e+06
3.76698e+07
2.63326e+07
2.42089e+07
4.58344e+07
2.52874e+07
2.50398e+07
2.82656e+07
2.799e+07
2.66786e+07
1.99126e+07
4.72274e+07
2.16704e+07
2.36855e+07
2.29407e+07
2.75117e+07
2.22382e+07
2.08885e+07
1.53994e+07
2.23831e+07
2.4941e+07
1.41858e+07
6.92588e+06
1.71688e+07
4.93967e+07
2.64509e+07
2.43891e+07
3.18152e+07
2.35897e+07
1.90913e+07
1.97996e+07
1.4168e+07
2.75662e+07
9.23795e+06
1.62163e+07
2.54557e+07
2.65448e+07
2.20673e+07
3.77969e+07
2.74773e+07
3.2118e+07
2.37013e+07
3.25198e+07
1.88352e+07
-7.26377e+06
2.1669e+07
2.25287e+07
2.43121e+07
1.3915e+07
3.13885e+07
1.51036e+07
4.73284e+06
2.59378e+07
2.10708e+07
2.1887e+07
1.12527e+07
2.32143e+07
2.47019e+07
2.99188e+07
1.82513e+07
1.93294e+07
2.46321e+07
3.38599e+07
2.18736e+07
2.89916e+07
4.49895e+07
2.52262e+07
3.07976e+07
2.36537e+07
3.33009e+07
2.6624e+07
2.48027e+07
3.16259e+07
5.94291e+07
2.42196e+07
2.79834e+07
2.62757e+07
3.00408e+07
4.45613e+07
2.27982e+07
1.86342e+07
2.45222e+07
2.58824e+07
2.6738e+07
2.62374e+07
2.68747e+07
2.00202e+07
2.39265e+07
4.55345e+07
2.6808e+07
2.63667e+07
4.97085e+07
5.13003e+06
2.74908e+07
7.79157e+07
2.4218e+07
5.30076e+07
3.00576e+07
3.12266e+07
2.46196e+07
2.3973e+07
2.37836e+07
7.80658e+06
9.47177e+06
2.97834e+07
2.78802e+07
3.30211e+07
2.57286e+07
3.08339e+07
1.24583e+07
5.58294e+06
3.34541e+07
2.77143e+07
3.77859e+07
3.12257e+07
1.32473e+08
1.91856e+07
4.61514e+07
-5.14816e+07
-1.13846e+07
2.6532e+07
3.08964e+07
2.33371e+07
5.69579e+07
1.61201e+07
1.24796e+07
2.60795e+07
2.03375e+07
1.28185e+07
2.03353e+07
2.02889e+07
9.24496e+06
3.00456e+07
2.75001e+07
4.91571e+07
2.73385e+07
2.90745e+07
3.97795e+07
-3.56073e+07
2.43627e+07
4.67064e+07
2.94089e+07
2.55091e+07
2.65365e+07
1.60278e+07
1.31697e+07
1.41471e+07
3.84084e+07
3.46021e+07
3.01562e+07
-1.20644e+07
2.70745e+07
5.34287e+07
3.90637e+07
2.41223e+07
3.06213e+07
2.37598e+07
2.64329e+07
5.86645e+07
2.40619e+07
4.88126e+07
2.64746e+07
2.56709e+07
3.30642e+07
2.31185e+07
2.64565e+07
1.52842e+07
1.81322e+07
7.10981e+07
3.03635e+07
2.26961e+07
2.6224e+07
1.83881e+07
7.1199e+07
2.70712e+07
1.27201e+07
2.61547e+07
1.12366e+07
1.24631e+07
3.69156e+07
2.45686e+06
2.62682e+07
2.43551e+07
3.18622e+07
2.32566e+07
2.59277e+07
3.6524e+06
6.57057e+07
4.12045e+07
4.31604e+07
2.97553e+07
-2.41811e+07
-3.01636e+07
1.88897e+07
2.71623e+07
1.70907e+07
4.07349e+07
1.47959e+07
3.16245e+07
2.68624e+07
1.7471e+07
-1.89096e+07
5.42494e+07
1.33543e+07
2.72178e+07
2.96304e+06
3.6975e+07
2.94105e+07
2.67886e+07
2.96632e+07
2.38515e+07
3.95835e+07
4.00708e+06
2.31402e+07
2.69887e+07
3.94854e+07
2.63898e+07
2.35009e+07
2.54091e+07
3.08159e+07
3.40754e+07
2.93348e+07
2.9635e+07
2.66729e+07
1.03186e+08
8.89594e+06
3.9733e+07
2.1741e+07
5.62869e+07
-1.43182e+07
5.6755e+07
2.84209e+07
4.31662e+07
4.22434e+07
2.62271e+07
2.55939e+07
2.45011e+07
2.40607e+06
6.46074e+06
2.58155e+07
2.64242e+07
2.35579e+07
1.02705e+07
3.09051e+07
2.43774e+07
3.05243e+07
2.36439e+07
2.65845e+07
2.69969e+07
2.78276e+07
2.42118e+07
4.95252e+07
4.46786e+07
2.58842e+07
3.29151e+06
2.31963e+07
2.46338e+07
6.32431e+06
2.8712e+07
2.5871e+07
-2.81633e+07
2.89323e+07
3.19598e+07
2.35476e+07
2.45568e+07
-2.82579e+07
1.66705e+07
4.69081e+07
2.94899e+07
2.47283e+07
2.44321e+07
-2.21803e+07
2.84212e+07
1.33495e+07
1.85644e+07
2.89414e+07
2.8753e+07
2.62464e+07
2.06341e+07
-3.08358e+07
-5.87026e+06
2.86673e+07
9.36541e+06
2.69689e+07
2.89842e+07
3.09129e+07
-1.603e+07
4.0535e+07
2.29328e+07
1.57938e+07
9.39847e+06
9.43513e+07
6.72237e+07
-1.61037e+07
2.57841e+07
2.79148e+07
3.34043e+07
3.09141e+07
2.60494e+07
2.53777e+07
3.98743e+07
1.37689e+07
3.22146e+07
2.32557e+07
2.53685e+07
9.45502e+06
7.16914e+07
1.57066e+07
2.3128e+07
2.06775e+07
1.96005e+07
2.34754e+07
-6.86832e+06
2.69775e+07
9.47373e+06
2.89543e+07
5.19734e+07
2.48381e+07
3.13526e+07
6.34957e+07
2.50353e+07
2.86416e+07
5.17841e+07
1.85964e+07
2.59527e+07
-4.01541e+06
3.43928e+07
3.45288e+07
2.65258e+07
2.64865e+07
2.52269e+07
2.98192e+07
2.86109e+07
5.7919e+06
3.19734e+07
4.60703e+06
2.57005e+07
5.37115e+07
1.23022e+07
4.74235e+07
2.16995e+07
2.15492e+07
1.99317e+07
5.54634e+07
3.46075e+07
3.81658e+07
2.62092e+07
1.44512e+08
2.19461e+07
2.4249e+07
1.3983e+07
3.26123e+07
2.3173e+07
3.12064e+07
3.20848e+07
2.21439e+07
-1.00728e+07
3.26803e+07
2.49998e+07
4.18247e+07
-1.564e+07
6.62037e+06
2.40421e+07
2.71483e+07
2.80533e+07
2.64428e+07
2.40538e+07
8.51984e+07
1.01562e+07
2.56907e+07
8.34921e+06
3.434e+07
2.68151e+07
7.49868e+07
3.24164e+07
2.33165e+07
2.57343e+07
2.57989e+07
2.9889e+07
2.91625e+07
5.33683e+07
2.73176e+07
2.6289e+07
2.66252e+07
2.6719e+07
2.17853e+07
2.66742e+07
2.28402e+07
-2.22245e+07
2.08207e+07
2.47543e+07
2.72829e+07
3.0807e+07
3.11301e+07
2.91807e+07
4.82291e+07
3.56928e+07
3.3334e+07
2.92449e+07
1.77586e+07
2.78906e+07
1.86198e+07
2.77711e+07
2.61696e+07
2.58553e+07
2.41399e+07
2.95342e+07
-2.20254e+07
2.58641e+07
2.82561e+07
2.41479e+07
2.43976e+07
2.54213e+07
2.82104e+07
2.15246e+07
5.76219e+07
1.59099e+07
3.25892e+07
2.61883e+07
3.00658e+07
3.45042e+07
2.59514e+07
3.01891e+07
2.95119e+07
5.28059e+07
3.04328e+07
2.6711e+07
2.75547e+07
1.96845e+07
2.71407e+07
2.48565e+07
2.71391e+07
2.25166e+07
2.69117e+07
2.9119e+07
-1.75862e+07
2.11989e+07
2.39179e+07
1.27906e+07
3.38261e+07
1.51023e+07
1.3912e+07
1.65972e+07
2.8489e+07
3.00884e+07
4.57898e+07
1.77829e+07
2.6645e+07
2.80694e+07
2.71346e+07
2.89596e+07
2.50516e+07
5.1662e+07
2.76755e+07
4.84273e+07
1.77183e+07
1.95574e+07
5.03086e+07
2.65779e+07
2.68841e+07
2.8064e+07
2.64882e+07
1.98476e+07
2.86381e+07
2.78503e+07
2.08853e+07
2.4053e+07
1.81619e+07
-3.65035e+07
4.14201e+07
1.39008e+07
-9.80145e+06
3.00563e+07
2.35966e+07
2.15751e+07
1.95824e+07
1.50586e+07
1.71909e+07
2.27467e+07
2.51149e+07
2.71164e+07
3.52974e+07
2.94027e+07
6.01643e+06
1.92708e+07
4.51489e+07
8.9766e+06
3.94317e+07
2.58288e+07
4.1212e+07
4.72893e+07
2.59713e+07
2.60454e+07
4.14068e+07
2.61406e+07
8.59967e+07
1.56424e+07
2.66781e+07
1.38238e+07
2.42716e+07
1.08506e+07
1.08581e+07
-2.40814e+06
1.26995e+07
1.74397e+07
4.03152e+07
2.90585e+07
2.30418e+07
3.79927e+07
2.5862e+07
1.74005e+07
4.16908e+07
2.56122e+07
5.97108e+06
2.67952e+07
2.81449e+07
3.06153e+06
-33815.1
-1.32145e+07
2.48141e+07
4.26798e+07
3.94786e+07
1.93161e+07
3.76092e+06
5.51452e+07
1.80561e+07
2.71009e+07
3.26607e+07
3.5713e+07
2.08428e+07
3.51535e+07
5.1103e+07
3.91131e+07
1.04283e+08
2.29839e+07
4.46177e+07
3.99623e+07
3.97054e+07
2.2921e+07
2.89858e+07
2.59219e+07
2.13324e+07
2.46373e+07
7.27459e+07
-6.82284e+06
2.51656e+07
1.898e+07
4.85524e+07
2.91283e+07
1.4899e+07
2.25671e+06
3.98527e+07
2.25432e+07
4.9321e+07
-1.45023e+07
2.61612e+07
5.05705e+07
3.67815e+07
1.06616e+07
2.63362e+07
1.08241e+07
8.7896e+07
2.85958e+07
3.94291e+07
8.03852e+06
2.8374e+07
2.71203e+07
2.64851e+07
4.02301e+07
1.98754e+06
2.52347e+07
2.61558e+07
3.15814e+07
3.45637e+07
2.53071e+07
1.0063e+06
3.15987e+07
3.02488e+07
4.04014e+07
2.59938e+07
3.15092e+07
2.15655e+07
3.81022e+07
1.32266e+07
4.96493e+07
2.59342e+07
1.7877e+07
2.07412e+07
5.30474e+06
1.43553e+07
2.46505e+07
2.49785e+07
2.58259e+07
1.29843e+07
1.67211e+07
3.1946e+07
2.62911e+07
2.91884e+07
3.05225e+07
2.84789e+07
2.18721e+07
2.4562e+07
2.98122e+07
1.86357e+07
2.56236e+07
9.80063e+07
5.04781e+07
4.20626e+07
1.23368e+07
2.48616e+07
2.39252e+07
2.75441e+07
8.66092e+07
157535
5.92537e+06
7.28416e+06
2.56795e+07
2.79212e+07
5.28333e+07
2.83782e+07
2.70744e+07
4.3918e+07
2.6323e+07
5.03965e+07
2.51376e+07
2.50049e+07
2.44065e+07
2.62229e+07
3.41044e+07
2.46601e+07
3.09864e+07
1.5579e+07
2.83264e+07
2.79344e+07
1.49351e+07
3.05251e+07
2.69941e+07
4.76891e+07
1.67445e+07
2.684e+07
3.06002e+07
2.31972e+07
3.06749e+07
3.01199e+07
4.86819e+07
2.83718e+07
4.51469e+07
4.79415e+07
4.52114e+07
2.58405e+07
2.46177e+07
2.52957e+07
5.45556e+07
1.044e+07
4.02403e+07
8.04425e+06
3.35049e+07
2.30676e+07
2.53059e+07
3.86589e+07
2.65321e+07
1.67795e+07
-2.68893e+07
1.94701e+07
2.70974e+07
4.55294e+07
2.55659e+07
4.50091e+07
2.8374e+07
8.95556e+06
1.59957e+07
1.00315e+07
2.62052e+07
1.37429e+07
-1.91281e+07
2.83729e+07
1.57763e+07
8.4874e+07
2.03562e+07
2.80031e+07
4.06212e+07
2.65526e+07
3.72639e+07
2.75825e+07
1.94424e+07
3.75182e+07
2.70627e+07
2.52784e+07
4.93885e+07
9.38309e+07
2.49566e+07
3.06002e+07
2.80864e+07
1.52465e+07
-2.98305e+07
3.70599e+07
-5.09457e+07
2.83163e+07
3.62638e+07
-5.54571e+06
1.63101e+07
4.49451e+07
2.92302e+07
1.89286e+07
2.57166e+07
2.54352e+07
2.68222e+07
1.21819e+07
4.23568e+07
1.44421e+07
3.3454e+07
3.47809e+07
4.50478e+07
2.60383e+07
2.05425e+07
2.31078e+07
2.18975e+07
2.62831e+07
3.11886e+07
1.44609e+07
4.73073e+07
1.6722e+07
2.73631e+07
-5.44191e+06
2.54511e+07
2.53915e+07
3.161e+07
2.37644e+07
1.17075e+07
2.48115e+07
2.62871e+07
2.4536e+07
-8.80518e+06
2.7003e+07
-1.48252e+07
2.97489e+07
3.09907e+07
2.01275e+07
2.08358e+07
-1.2586e+07
2.59978e+07
2.01479e+07
2.94594e+07
2.75529e+07
2.63096e+07
8.23147e+07
2.73898e+07
2.56527e+07
2.70998e+07
5.3704e+07
2.15998e+07
6.70218e+06
2.20828e+07
5.18371e+07
2.3962e+07
2.59143e+07
2.73678e+07
2.48646e+07
3.69808e+07
-1.3999e+07
-2.87416e+06
1.83278e+07
5.06672e+07
1.9259e+07
2.67034e+07
4.25414e+07
2.35548e+07
2.72484e+07
3.80627e+07
2.53001e+07
2.42944e+07
2.37615e+07
2.62603e+07
2.5866e+07
3.35033e+07
2.7242e+07
1.44795e+07
2.96581e+07
5.03129e+07
-7.01984e+06
2.66639e+07
2.61071e+07
2.89277e+07
1.12988e+07
2.78475e+07
-335823
3.34107e+07
-2.22951e+07
2.8179e+07
8.58268e+06
2.59362e+07
3.95614e+07
5.23511e+07
4.95065e+07
2.66737e+07
2.71516e+07
2.72361e+07
2.72223e+07
1.96894e+07
2.60346e+07
2.62608e+07
4.15657e+07
2.81958e+07
3.55104e+07
2.91568e+06
5.11332e+06
2.30517e+07
3.67983e+07
2.60922e+07
1.49398e+07
3.09629e+07
2.66275e+07
2.77134e+07
2.75116e+07
2.52343e+07
2.49401e+07
5.70237e+07
-9.89587e+06
5.26466e+07
2.96296e+07
2.96701e+07
2.40333e+07
2.45616e+07
3.17081e+07
2.33357e+07
2.36307e+07
3.21915e+07
-1.05444e+07
2.32604e+07
2.82443e+07
-5.70301e+06
-4.72666e+06
-1.0382e+06
1.85521e+07
3.94993e+07
-1.20612e+07
1.06239e+07
2.68407e+07
3.27463e+07
4.42631e+07
1.16711e+07
2.67996e+07
3.22766e+07
3.67716e+07
6.70619e+07
3.35535e+07
3.56969e+07
2.71746e+07
3.65094e+07
1.35849e+07
2.60506e+07
5.99963e+07
2.06068e+07
2.53275e+07
2.86795e+07
1.83578e+07
7.3247e+06
-122954
2.56367e+07
2.73564e+07
-2.55956e+07
5.06926e+07
2.78179e+07
3.14112e+07
2.51713e+07
2.38236e+07
2.96606e+07
2.10948e+07
5.16757e+07
6.23666e+07
2.78079e+07
3.82379e+07
3.26165e+07
2.44418e+07
1.75013e+07
2.32397e+07
9.9286e+06
3.26614e+07
2.87125e+07
2.54888e+07
3.80114e+07
2.03551e+07
2.75052e+07
2.09134e+07
2.59369e+07
3.89649e+07
1.65214e+07
3.18046e+07
1.57288e+07
2.63782e+07
2.80443e+07
3.34682e+07
2.64968e+07
5.9981e+07
4.40779e+07
2.88252e+07
5.3702e+07
2.67429e+07
2.7345e+07
4.06609e+07
3.02406e+07
2.83107e+07
2.81243e+07
2.14642e+07
-6.47061e+06
3.66415e+07
2.69199e+07
1.33989e+07
1.91542e+07
2.23933e+07
-4.24315e+07
3.23278e+07
7.99311e+07
2.87928e+07
3.33529e+07
2.33278e+07
-2.21648e+07
2.63441e+07
5.05717e+07
5.09099e+07
-1.39087e+06
1.57747e+07
3.04175e+07
3.2375e+07
2.68759e+07
3.4017e+07
2.95847e+07
2.66556e+07
1.63734e+07
1.9408e+07
5.20604e+07
1.63086e+07
1.98444e+07
1.96239e+07
2.74854e+07
2.71057e+06
6.01184e+07
-1.97264e+07
7.86798e+07
2.70311e+07
3.04341e+07
2.91581e+07
5.01677e+07
2.80431e+07
2.43192e+07
4.50355e+07
3.4921e+07
3.0833e+07
-4.84317e+06
1.647e+07
2.27036e+07
-5.13531e+06
2.42513e+07
1.93009e+07
9.10245e+07
2.23375e+07
2.30678e+07
1.93842e+07
1.82495e+07
-7.19092e+06
4.04337e+07
2.0763e+07
4.30677e+07
2.44116e+07
2.86536e+07
3.0087e+07
4.93833e+07
3.51258e+07
3.10771e+07
2.40573e+07
1.35599e+06
2.34751e+07
-212263
2.89099e+07
2.64291e+07
2.54839e+07
1.87266e+07
9.49193e+07
3.14119e+07
2.34741e+07
1.79422e+07
2.18576e+07
2.66666e+07
4.24259e+07
2.6466e+07
2.53985e+07
1.01304e+07
2.34353e+06
9.28178e+06
6.21668e+07
2.65611e+07
-3.10577e+06
3.02316e+07
5.49167e+07
2.65363e+07
2.47527e+07
2.71558e+07
3.16289e+07
2.69765e+07
2.25126e+07
4.93461e+07
4.72126e+07
3.65485e+07
1.15e+07
2.47247e+07
5.79539e+06
1.03421e+07
2.46128e+07
2.27413e+07
2.23812e+07
2.75722e+07
2.8227e+07
2.29054e+07
2.97176e+07
1.18816e+07
1.88975e+07
2.82125e+07
-8.87494e+06
2.4665e+07
1.84235e+07
2.24202e+07
2.30849e+07
2.63479e+07
370271
-7.17285e+06
2.7724e+07
2.78171e+07
4.25076e+07
4.06752e+07
2.87253e+07
3.77829e+07
3.2929e+07
2.59766e+07
2.55866e+07
7.42316e+07
1.95047e+07
2.68045e+07
3.39797e+07
7.4425e+07
4.9304e+07
-1.28646e+06
2.62461e+07
2.42939e+07
2.39222e+07
2.42944e+07
2.41608e+07
-1.02649e+07
5.08743e+07
2.70902e+07
1.89286e+07
1.21002e+07
2.50354e+07
2.26513e+07
2.94452e+07
2.9973e+07
5.19345e+06
2.85216e+07
2.75913e+07
-247428
3.80472e+07
-107995
3.5724e+07
1.85557e+07
4.16103e+07
2.44786e+07
-2.26159e+07
1.51134e+07
-2.20181e+07
2.60393e+07
-1.10403e+07
2.278e+07
3.6104e+07
3.64547e+07
1.86056e+07
1.72447e+07
2.69195e+07
1.77729e+07
-2.14126e+07
4.64822e+07
2.32718e+07
2.5963e+07
1.30808e+07
2.83398e+07
-6.30757e+06
-824032
3.15015e+07
2.70443e+07
2.53166e+07
3.18438e+07
2.37896e+07
2.82334e+07
2.51911e+07
4.56954e+07
4.60525e+07
5.04732e+07
4.9742e+07
-1.15271e+07
3.38969e+07
2.36577e+07
2.62217e+07
1.37926e+07
3.64637e+07
2.52506e+07
2.92146e+07
2.5054e+07
1.73753e+07
-6.00558e+06
8.05982e+06
2.8843e+07
2.51558e+07
2.70302e+07
2.64806e+07
2.77882e+07
2.76464e+07
2.37486e+07
2.55381e+07
2.31572e+07
3.18609e+07
2.10857e+07
2.24412e+07
3.47776e+07
2.21274e+07
2.13867e+07
3.48988e+07
3.12946e+07
3.32096e+07
8.08474e+07
2.60595e+07
2.57145e+07
4.68222e+07
2.35997e+07
2.32534e+07
3.89338e+07
2.9802e+07
2.33319e+07
5.20959e+07
1.30902e+07
-1.13475e+07
2.19743e+07
3.0552e+07
-800753
-5.00222e+06
-2.80306e+07
1.72782e+07
9.85226e+06
3.21722e+07
2.65232e+07
2.62471e+07
3.41801e+06
4.59156e+06
2.4959e+07
2.35135e+07
1.7477e+07
-2.34075e+06
3.49173e+07
2.53967e+07
2.58672e+07
3.13726e+07
2.54762e+07
2.82143e+07
2.45439e+07
1.08632e+07
9.87178e+06
2.8643e+07
2.68889e+07
1.05562e+07
-1.63535e+07
2.45182e+07
2.54687e+07
3.5165e+07
2.67047e+07
-4.01074e+06
4.42506e+07
2.88096e+07
4.7579e+07
5.33686e+07
-1.06236e+06
2.67889e+07
-1.56795e+07
2.72783e+07
2.72587e+07
6.18835e+06
6.30101e+06
2.35313e+07
9.43202e+06
9.94085e+06
-219697
8.55369e+06
2.62584e+07
2.58085e+07
6.44441e+07
2.63458e+07
7.62981e+07
3.0836e+07
6.89502e+07
3.57079e+07
2.77081e+07
2.68022e+07
2.60141e+07
2.55204e+07
2.59404e+07
-1.50612e+07
2.63755e+07
4.64371e+07
3.25489e+07
5.15541e+07
4.47209e+07
2.35683e+06
3.78047e+07
3.98197e+07
5.42959e+07
-8.56861e+06
1.68972e+07
3.57376e+07
2.55285e+07
-1.11222e+07
4.3609e+07
-4.7416e+06
2.59868e+07
2.53961e+07
1.19741e+07
1.41027e+07
1.4552e+07
-2.19958e+07
6.98187e+06
2.18115e+07
4.11346e+07
3.64068e+07
3.72364e+07
4.83535e+07
5.87675e+06
1.80944e+07
2.02535e+07
2.61975e+07
6.23044e+07
-2.24437e+07
1.46427e+07
-3.44682e+06
1.31156e+07
2.87915e+07
2.95127e+07
6.77262e+07
2.60296e+07
3.74771e+07
2.74281e+07
2.68381e+07
2.75056e+07
8.71612e+06
-1.43461e+07
-2.77997e+07
2.45587e+07
2.25478e+07
3.60007e+07
2.0955e+07
-8.99637e+06
-8.29177e+06
3.50699e+07
2.09362e+07
1.99105e+07
-1.5067e+06
-3.64352e+07
2.65969e+07
3.43169e+07
3.09343e+07
3.28967e+07
2.32667e+07
7.70011e+06
4.89063e+07
1.0122e+08
2.6597e+07
8.43682e+06
2.70166e+07
2.82795e+07
2.20978e+07
2.45905e+07
2.50134e+07
2.3895e+07
1.71476e+07
2.5876e+07
2.69334e+07
2.71789e+07
4.18942e+07
2.78684e+07
-1.52807e+07
2.54883e+07
2.62697e+07
2.48485e+07
8.08339e+07
5.37376e+07
1.89734e+07
2.00673e+07
2.51426e+07
-6.88353e+06
2.60208e+07
2.45636e+07
3.12252e+07
2.88582e+07
2.61275e+07
-2.3352e+06
2.76354e+07
3.60966e+07
4.07324e+07
-230375
5.53959e+06
-2.63701e+06
2.77123e+07
1.49408e+07
3.49146e+07
3.56939e+07
3.76895e+07
2.70372e+07
-2.74425e+06
2.82195e+07
2.69824e+07
4.84611e+07
2.80955e+07
2.58301e+07
2.04766e+07
2.02753e+07
5.87743e+07
586009
2.62396e+07
2.01533e+07
2.91722e+07
2.60598e+07
4.0595e+07
2.78835e+07
1.5262e+07
2.58255e+07
3.29456e+07
2.94519e+07
2.51026e+07
-31539.4
2.5961e+07
1.29651e+07
2.72064e+07
2.64111e+07
4.16255e+07
3.74244e+07
-2.44509e+07
3.27223e+07
2.57557e+07
3.59901e+07
5.15416e+07
2.79284e+07
2.75644e+07
3.27748e+07
3.3716e+07
2.31217e+07
2.31038e+07
2.63529e+07
3.06117e+07
1.92436e+07
1.15533e+07
1.686e+07
2.16674e+07
2.68685e+07
3.00326e+07
2.84755e+07
2.63662e+07
4.31273e+07
2.77469e+07
2.76405e+07
4.47372e+07
2.43531e+07
1.80886e+07
3.83969e+06
4.06618e+07
2.93866e+07
8.7242e+06
2.32939e+07
2.79255e+07
2.58005e+07
2.42232e+07
2.5248e+07
2.47382e+07
6.87795e+06
6.40295e+07
2.48553e+07
3.74403e+07
8.51348e+06
1.96857e+07
2.64761e+07
2.58845e+07
2.5281e+07
3.24076e+07
3.63936e+07
3.86044e+07
2.56467e+07
5.92354e+07
2.88715e+07
2.7051e+07
1.98323e+07
-3.34314e+06
1.70284e+06
2.81055e+07
2.6526e+07
4.34626e+07
4.249e+07
6.09284e+07
-2.7916e+07
2.96443e+07
2.12614e+07
3.01967e+07
1.95097e+07
2.71792e+07
-1.52004e+07
3.12149e+07
3.44026e+07
2.73908e+07
2.38885e+07
2.25568e+07
3.53655e+07
3.35883e+07
-3.1277e+06
-9.14728e+06
1.99231e+07
2.1046e+07
2.84519e+07
2.73908e+07
2.34698e+07
3.35458e+07
2.80869e+07
3.89957e+07
2.4034e+07
2.57455e+07
-6.25562e+06
4.70599e+07
3.23829e+07
2.34961e+07
3.42377e+07
1.88759e+07
1.90562e+07
2.6708e+07
2.74947e+07
2.87173e+07
4.57539e+07
2.48249e+07
2.40718e+07
2.2772e+07
2.03095e+07
4.20448e+07
4.3603e+07
1.38917e+07
2.32919e+07
2.31582e+07
4.70658e+07
4.36294e+07
1.6831e+07
-2.61071e+07
1.47418e+07
2.04515e+07
2.72735e+07
3.76009e+07
3.57265e+07
2.12756e+07
9.87904e+06
4.68189e+07
4.62846e+07
1.16428e+07
2.84e+07
2.73386e+07
2.65004e+07
4.40149e+07
2.74239e+07
2.65332e+07
2.58086e+07
1.25988e+07
2.63875e+07
2.74229e+07
2.49618e+07
7.09318e+06
1.98541e+07
2.47561e+07
4.23413e+07
2.82388e+07
2.87756e+07
1.72313e+07
2.62794e+07
2.05416e+07
2.35234e+07
2.43834e+07
2.38315e+07
3.82649e+07
2.72028e+07
3.09546e+07
2.91781e+07
2.53659e+07
4.30633e+07
4.26662e+07
-1.42489e+06
1.21958e+07
1.58961e+07
1.87534e+07
2.33111e+07
3.49101e+07
-3.71328e+07
3.33422e+07
2.73621e+07
2.79388e+07
2.09876e+07
2.9676e+07
2.70957e+07
2.35997e+07
2.32652e+07
2.19777e+07
5.7376e+07
1.69337e+07
2.88225e+07
2.48088e+07
-3.8697e+06
3.10745e+07
3.17046e+07
3.14239e+07
2.7955e+07
2.29257e+07
2.65679e+07
2.72857e+07
4.61817e+07
1.64756e+07
4.01681e+07
3.51521e+06
2.76181e+07
2.5022e+07
2.60466e+07
4.24031e+07
2.62493e+07
4.04776e+07
2.07232e+07
2.33046e+07
2.81323e+07
2.47748e+07
1.79632e+07
2.25262e+07
2.71766e+07
2.79469e+07
7.94856e+07
2.7862e+07
1.13074e+07
-1.0775e+07
2.30383e+07
1.8782e+07
2.6559e+07
1.8954e+07
2.52077e+07
1.52909e+07
1.50214e+07
6.9771e+06
1.11625e+07
2.75536e+07
-3.57555e+06
2.59464e+07
3.02226e+07
-3.35072e+06
2.47511e+07
2.3871e+07
5.54814e+07
4.10231e+07
3.88608e+07
4.68193e+07
3.78293e+07
4.1804e+07
3.1737e+07
2.30582e+07
4.96367e+07
2.56413e+06
4.62678e+07
2.50571e+07
2.11236e+07
2.74153e+07
2.58287e+07
3.03121e+07
3.09366e+07
2.20526e+07
9.08977e+06
2.91213e+07
2.43693e+07
3.40006e+07
2.64279e+07
5.35797e+07
5.14568e+07
1.38887e+07
2.9972e+06
8.1175e+07
2.79714e+07
2.75639e+07
3.40624e+07
-1.30457e+07
3.51243e+07
2.59731e+07
4.01356e+07
2.68403e+07
2.78603e+07
2.70097e+07
4.21214e+07
2.13949e+07
2.53545e+07
-8.43257e+06
-716055
2.67424e+07
2.8786e+07
3.52178e+07
3.00172e+07
2.90764e+07
2.17156e+07
1.87205e+07
2.14502e+07
-1.10355e+06
2.59009e+07
3.83697e+07
2.60678e+07
2.30413e+07
2.08432e+07
2.72629e+07
4.10595e+07
4.51191e+07
4.19489e+07
6.00712e+06
3.31698e+07
4.70606e+07
3.60708e+07
2.70795e+07
2.60637e+07
2.63336e+07
2.71472e+07
2.72366e+07
4.08164e+07
2.39326e+07
-5.31826e+06
2.68125e+07
2.69032e+07
3.69175e+06
3.40862e+07
3.26301e+07
2.89307e+07
2.65405e+07
3.16542e+07
2.47876e+07
2.49832e+07
3.00483e+07
2.76959e+07
2.59791e+07
2.73915e+07
2.92635e+07
3.12026e+07
2.47101e+07
2.58106e+07
2.67421e+07
3.86942e+07
6.53324e+07
3.04401e+07
3.30724e+07
5.55498e+07
3.34799e+07
2.71435e+07
3.84286e+07
2.75735e+07
2.60132e+07
3.14991e+07
2.08316e+07
2.23159e+07
3.04549e+07
2.5206e+07
2.7324e+07
4.25534e+07
2.82347e+07
3.92835e+07
2.53826e+07
2.87525e+07
2.94171e+07
4.63829e+07
-1.14892e+07
3.78166e+07
2.3068e+07
2.5124e+07
2.79644e+07
4.54471e+07
-1.82249e+07
1.37297e+07
2.47655e+07
2.67752e+07
3.01026e+07
2.88472e+07
2.23021e+07
3.78706e+07
470476
2.32327e+07
2.73938e+07
2.68663e+07
2.65464e+07
6.75e+07
1.83388e+07
2.85222e+07
2.1521e+07
2.52633e+07
4.38171e+07
2.8491e+07
9.06211e+07
2.50835e+07
2.81472e+07
2.71152e+07
806719
-1.71602e+07
1.95755e+07
2.40702e+07
2.50823e+07
2.58583e+07
2.46962e+07
2.45606e+07
2.29848e+07
2.55228e+07
2.47562e+07
2.92397e+07
2.70493e+07
3.20169e+07
1.24207e+07
2.95438e+07
3.11422e+07
2.7931e+07
2.7533e+07
2.51264e+07
2.37429e+07
2.88958e+07
2.72139e+07
2.72917e+07
2.6003e+07
2.76898e+07
2.14862e+07
2.03513e+07
2.83277e+07
2.49626e+07
2.93364e+07
4.73041e+07
4.70634e+07
1.88864e+07
2.01142e+07
2.35383e+07
2.22982e+06
2.2102e+07
2.66789e+07
2.73092e+07
2.61215e+07
2.71751e+07
2.9446e+07
2.07258e+07
3.45962e+07
1.65224e+07
2.38733e+07
1.18924e+07
1.13416e+07
2.54909e+07
3.51129e+07
3.35666e+07
3.68593e+07
2.79604e+07
2.99366e+07
4.15219e+07
4.27735e+07
2.44219e+07
9.94372e+06
2.51009e+07
2.69945e+07
2.62694e+07
2.23422e+07
2.75766e+07
2.45883e+07
2.52965e+07
2.1832e+07
2.50165e+07
4.11208e+07
2.56571e+07
2.92279e+07
2.80833e+07
3.38296e+06
436526
2.38901e+07
2.80177e+07
2.67076e+07
2.69755e+07
2.67412e+07
3.70944e+07
2.94378e+07
3.0842e+07
1.35422e+07
3.83024e+07
2.86912e+07
3.09113e+07
2.18813e+07
2.31342e+07
3.19879e+07
2.31764e+07
2.31129e+07
3.25262e+07
2.1301e+07
2.67229e+07
2.99801e+07
2.89911e+07
1.02849e+07
3.19598e+07
2.68141e+07
4.42558e+07
4.38262e+07
2.94401e+07
2.96025e+07
2.97521e+07
2.8796e+07
2.71035e+07
3.22665e+07
4.24546e+07
4.08087e+07
2.45104e+07
2.54765e+07
2.7479e+07
2.97268e+07
2.90541e+07
3.20175e+07
2.01745e+07
1.8052e+07
1.5836e+07
4.40648e+07
4.50803e+07
2.75423e+07
2.72192e+07
2.84565e+07
2.85583e+07
2.78854e+07
)
;

boundaryField
{
    back
    {
        type            empty;
    }
    front
    {
        type            empty;
    }
    down
    {
        type            zeroGradient;
    }
    right
    {
        type            zeroGradient;
    }
    up
    {
        type            zeroGradient;
    }
    left
    {
        type            zeroGradient;
    }
    hole
    {
        type            zeroGradient;
    }
}


// ************************************************************************* //
