/*--------------------------------*- C++ -*----------------------------------*\
| =========                 |                                                 |
| \\      /  F ield         | OpenFOAM: The Open Source CFD Toolbox           |
|  \\    /   O peration     | Version:  v2012                                 |
|   \\  /    A nd           | Website:  www.openfoam.com                      |
|    \\/     M anipulation  |                                                 |
\*---------------------------------------------------------------------------*/
FoamFile
{
    version     2.0;
    format      ascii;
    class       volSymmTensorField;
    location    "13";
    object      epsilon;
}
// * * * * * * * * * * * * * * * * * * * * * * * * * * * * * * * * * * * * * //

dimensions      [0 0 0 0 0 0 0];


internalField   nonuniform List<symmTensor> 
32000
(
(0.0129506 -0.000315251 -8.10428e-18 -0.0118857 7.78198e-19 4.72719e-33)
(0.0113694 -0.000246899 -1.40063e-17 -0.0100869 3.66675e-18 0)
(0.012095 -0.000209792 0 -0.0106534 0 0)
(0.0112122 -0.000272986 4.57442e-18 -0.0100217 4.9388e-18 0)
(0.0116688 -0.000160244 2.20346e-17 -0.0102629 -4.03587e-18 0)
(0.0111047 -0.000278885 1.51885e-17 -0.00987015 -2.56161e-18 0)
(0.0113993 -0.000142385 1.77978e-17 -0.00992625 5.50233e-18 0)
(0.0109859 -0.000277389 8.10653e-18 -0.0096599 -4.57857e-18 0)
(0.0111912 -0.000137716 0 -0.00964669 0 0)
(0.0108522 -0.000272471 -5.08008e-19 -0.00944226 3.29772e-18 0)
(0.0110015 -0.000137647 1.25667e-17 -0.00938822 4.98992e-19 0)
(0.0106995 -0.000265032 2.92683e-18 -0.00920601 -5.37713e-18 0)
(0.0108104 -0.000139476 7.84129e-18 -0.00912722 -3.92097e-18 0)
(0.0105277 -0.000255571 6.87718e-18 -0.00895096 2.17814e-18 0)
(0.0106088 -0.000142196 8.81342e-18 -0.00885599 8.5254e-18 0)
(0.010337 -0.000245197 -8.61829e-18 -0.00867854 -8.1148e-18 0)
(0.0103935 -0.000145193 -3.09844e-17 -0.0085726 2.45933e-18 0)
(0.0101298 -0.000233889 -2.57218e-17 -0.00839044 4.04125e-18 0)
(0.0101644 -0.000147969 -1.57374e-17 -0.00827731 -4.47119e-18 0)
(0.00990793 -0.000222122 -1.11962e-17 -0.0080904 -3.28194e-19 0)
(0.00992301 -0.000150148 -4.17134e-18 -0.00797075 -3.7381e-18 0)
(0.00967368 -0.000209902 -4.06526e-18 -0.00778076 -3.55667e-18 0)
(0.00967065 -0.000151635 -1.0859e-17 -0.00765515 -5.69443e-19 0)
(0.00942862 -0.000198239 -6.61742e-18 -0.00746281 3.0016e-18 0)
(0.00940919 -0.000152545 0 -0.00733331 0 0)
(0.00917609 -0.000186133 -7.79314e-18 -0.00713799 -4.05769e-18 0)
(0.00914081 -0.000152924 -1.65225e-17 -0.00700704 2.06375e-18 0)
(0.00891714 -0.00017433 -1.23574e-17 -0.00681041 2.99256e-18 0)
(0.00886783 -0.000152475 -3.77604e-18 -0.00667722 -3.02682e-18 0)
(0.00865365 -0.000162545 0 -0.00648141 0 0)
(0.00859114 -0.000151565 5.86068e-18 -0.00634535 -2.29469e-18 0)
(0.00838578 -0.000151177 1.29283e-17 -0.00614977 5.17094e-18 0)
(0.00831209 -0.000150459 1.63052e-17 -0.00601424 5.91072e-18 0)
(0.0081157 -0.000140059 1.96698e-18 -0.00581942 -6.53292e-18 0)
(0.00803207 -0.000148916 -6.891e-18 -0.00568351 -5.02599e-18 0)
(0.00784474 -0.00012893 1.32503e-19 -0.00549154 1.7691e-18 0)
(0.00775113 -0.000147024 3.3326e-18 -0.00535348 2.34847e-18 0)
(0.00757217 -0.000117912 0 -0.00516362 0 0)
(0.00746973 -0.000145113 -4.95971e-18 -0.00502679 1.6794e-18 0)
(0.00729889 -0.000106952 -7.80255e-18 -0.00483905 1.07097e-18 0)
(0.0071885 -0.000142856 4.74054e-18 -0.00470225 -1.53864e-18 0)
(0.00702589 -9.59919e-05 4.65833e-18 -0.00451861 -1.46977e-18 0)
(0.0069073 -0.000140217 -4.52355e-18 -0.00438002 1.40173e-18 0)
(0.00675279 -8.45226e-05 -1.02249e-17 -0.00419923 -2.26657e-18 0)
(0.00662627 -0.000137664 -1.43662e-17 -0.00406275 -9.21705e-19 0)
(0.00647979 -7.31317e-05 -1.40311e-17 -0.0038855 -9.42317e-19 0)
(0.00634549 -0.000134682 -9.61414e-18 -0.00374814 -2.03262e-18 0)
(0.00620757 -6.17646e-05 -4.03487e-18 -0.00357601 1.05263e-18 0)
(0.00606548 -0.000131172 0 -0.00343926 0 0)
(0.00593723 -4.94905e-05 2.61535e-19 -0.00327083 1.00865e-18 0)
(0.00578721 -0.000127274 9.89493e-18 -0.0031376 -4.96457e-19 0)
(0.00566915 -3.72779e-05 7.27126e-18 -0.00297474 -1.60046e-18 0)
(0.00551157 -0.0001225 -3.48358e-18 -0.00284161 7.95918e-19 0)
(0.00540421 -2.45968e-05 -7.82028e-18 -0.00268498 -8.14283e-19 0)
(0.00524009 -0.00011732 -8.87429e-18 -0.00255705 3.15951e-19 0)
(0.00514428 -1.19973e-05 -2.63599e-18 -0.00240709 1.77428e-18 0)
(0.00497427 -0.000111393 6.20002e-18 -0.00228256 -1.18923e-18 0)
(0.00489106 6.8795e-07 4.60467e-18 -0.00214149 -5.81903e-19 0)
(0.00471606 -0.000104564 2.07338e-18 -0.00202247 8.46127e-19 0)
(0.00464654 1.37172e-05 2.84923e-19 -0.00188987 5.71536e-19 0)
(0.00446786 -9.70162e-05 4.7128e-18 -0.00177944 3.24102e-19 0)
(0.00441282 2.6323e-05 8.3168e-19 -0.00165724 -1.04506e-18 0)
(0.00423181 -8.84715e-05 -7.03352e-18 -0.001553 4.05911e-20 0)
(0.00419173 3.90822e-05 -5.73154e-18 -0.00144151 -4.50742e-19 0)
(0.00401007 -7.97069e-05 -5.96171e-18 -0.00134855 -8.62925e-19 0)
(0.00398541 5.1137e-05 -7.26001e-19 -0.00124894 7.47439e-19 0)
(0.00380417 -7.0291e-05 6.26617e-18 -0.00116436 4.77288e-20 0)
(0.00379486 6.29344e-05 2.17819e-18 -0.00107711 -2.69069e-19 0)
(0.00361533 -6.05995e-05 3.75623e-18 -0.00100357 2.58276e-19 0)
(0.00362105 7.41468e-05 2.72772e-18 -0.000929075 5.26325e-19 0)
(0.00344369 -5.05747e-05 5.06735e-18 -0.000864728 6.26532e-19 0)
(0.00346375 8.46309e-05 6.01659e-18 -0.000803311 7.99037e-19 0)
(0.00328892 -3.97282e-05 7.30577e-18 -0.000748231 3.14847e-20 0)
(0.00332272 9.43385e-05 9.07822e-18 -0.000698377 1.0773e-18 0)
(0.00314732 -2.86079e-05 4.09737e-18 -0.000646317 9.00767e-19 0)
(0.00319379 0.000104418 -2.45032e-19 -0.000609574 -1.91783e-19 0)
(0.00302052 -1.80809e-05 -1.30348e-18 -0.000594686 -2.78528e-19 0)
(0.00307788 0.000109391 1.05716e-18 -0.000544854 1.55897e-19 0)
(0.00291801 -1.38841e-05 -1.722e-18 -0.000583738 7.1114e-20 0)
(0.00296184 0.00012008 -2.26681e-18 -0.000547496 -2.14542e-19 0)
(0.0107667 -0.000561073 2.96951e-18 -0.0100015 -1.77606e-18 1.13619e-32)
(0.0113722 -0.000690652 8.64294e-18 -0.00990419 -5.43365e-18 0)
(0.0111171 -0.000558549 8.45258e-18 -0.00988985 -5.2267e-18 0)
(0.0112985 -0.000697287 1.22533e-17 -0.00990877 2.88433e-18 0)
(0.0111498 -0.00055501 6.84955e-18 -0.00991464 2.3301e-18 0)
(0.0111945 -0.000694181 8.37086e-18 -0.00977564 -5.13679e-18 0)
(0.0110694 -0.000549167 -8.19048e-18 -0.00976479 4.76169e-18 0)
(0.0110712 -0.000684599 -8.20408e-18 -0.0095735 4.90497e-18 0)
(0.0109388 -0.000545787 2.95302e-18 -0.00956275 -5.64278e-18 0)
(0.0109296 -0.000672523 7.50989e-18 -0.00935697 -1.37762e-18 0)
(0.0107781 -0.000543578 1.52037e-17 -0.00933129 -5.25973e-18 0)
(0.0107679 -0.000658435 1.97271e-17 -0.0091211 -1.49697e-18 0)
(0.0105951 -0.000540884 6.89695e-18 -0.00907678 2.43034e-18 0)
(0.0105874 -0.00064251 1.2083e-17 -0.00886588 -1.46737e-19 0)
(0.0103944 -0.000536901 4.41894e-18 -0.00880544 4.15427e-18 0)
(0.0103906 -0.000624755 4.66479e-18 -0.00859484 9.50591e-19 0)
(0.0101783 -0.000531492 4.5663e-18 -0.00852019 9.75434e-19 0)
(0.0101787 -0.000605579 0 -0.00830931 0 0)
(0.00994881 -0.000524717 0 -0.00822318 0 0)
(0.00995357 -0.000584904 1.30363e-19 -0.00801223 -2.72503e-18 0)
(0.00970746 -0.000516343 -1.77131e-17 -0.00791595 2.76268e-18 0)
(0.00971641 -0.000563588 -1.34314e-17 -0.00770533 1.33711e-18 0)
(0.00945716 -0.00050665 -8.29425e-18 -0.00760043 -7.02563e-18 0)
(0.00947022 -0.000541486 4.11062e-18 -0.00739178 3.31496e-18 0)
(0.00919941 -0.000495766 6.34371e-18 -0.00727856 -2.90391e-19 0)
(0.00921598 -0.000518887 6.33079e-18 -0.00707187 -2.83398e-18 0)
(0.00893548 -0.000484118 -2.19748e-18 -0.00695242 3.40345e-18 0)
(0.0089548 -0.000495603 -6.19892e-18 -0.00674843 3.92211e-19 0)
(0.00866607 -0.000471455 7.77043e-18 -0.00662279 -7.84694e-18 0)
(0.00868776 -0.000472491 1.20318e-17 -0.006422 -6.24079e-19 0)
(0.00839385 -0.000458081 9.56794e-18 -0.0062912 2.76031e-18 0)
(0.00841777 -0.00044946 2.28422e-18 -0.00609447 -9.48631e-19 0)
(0.00811924 -0.000444183 7.0865e-18 -0.00595857 3.38594e-18 0)
(0.00814498 -0.000425419 -3.40384e-18 -0.00576662 -6.80446e-19 0)
(0.00784158 -0.000429638 -8.41709e-18 -0.00562619 1.21495e-18 0)
(0.00786799 -0.000401595 -2.18732e-18 -0.00543915 7.5379e-19 0)
(0.0075629 -0.000414486 -8.36583e-18 -0.00529374 -6.81494e-19 0)
(0.00758942 -0.000377782 -1.57183e-18 -0.00511269 3.93774e-18 0)
(0.00728374 -0.000398667 9.72981e-18 -0.00496215 -1.43363e-18 0)
(0.00730993 -0.000352598 9.50967e-18 -0.00478756 -3.01168e-18 0)
(0.00700322 -0.000382228 0 -0.00463348 0 0)
(0.00702792 -0.000327306 3.17869e-18 -0.00446564 1.98323e-18 0)
(0.00672243 -0.000364977 7.37546e-18 -0.00430588 7.22434e-19 0)
(0.00674506 -0.000301345 4.66754e-18 -0.00414578 1.28248e-19 0)
(0.00644182 -0.000346859 3.0051e-18 -0.00398178 1.8039e-18 0)
(0.00646192 -0.000273975 -3.68352e-19 -0.00382946 -1.19849e-18 0)
(0.00616205 -0.00032772 9.41442e-19 -0.00366365 -2.59253e-18 0)
(0.0061786 -0.000246062 4.65449e-18 -0.00351966 1.3275e-18 0)
(0.00588413 -0.000307106 1.40966e-17 -0.00334856 2.8105e-19 0)
(0.00589649 -0.000216568 6.78728e-18 -0.0032139 -2.13264e-18 0)
(0.00560892 -0.000285455 -7.60711e-19 -0.00304322 2.06525e-18 0)
(0.0056164 -0.000186496 -3.07125e-18 -0.00291722 1.47926e-18 0)
(0.00533821 -0.000262519 6.91571e-18 -0.00274659 -1.56507e-19 0)
(0.00534089 -0.000155758 6.55222e-18 -0.00263055 -8.85936e-19 0)
(0.00507372 -0.000238089 9.11606e-19 -0.00246125 1.21851e-18 0)
(0.00507182 -0.000123774 -2.67387e-18 -0.00235521 1.04551e-18 0)
(0.00481727 -0.000212607 4.32315e-18 -0.00219193 -2.71172e-19 0)
(0.00481107 -9.21323e-05 1.03164e-17 -0.00209589 1.75021e-18 0)
(0.00457171 -0.000185348 1.07569e-17 -0.00193662 1.04816e-18 0)
(0.0045616 -5.96197e-05 1.07478e-17 -0.00185135 1.26642e-18 0)
(0.00433831 -0.000157607 1.6611e-18 -0.00170217 1.90858e-18 0)
(0.00432514 -2.79793e-05 -5.00682e-18 -0.00162699 -1.41034e-18 0)
(0.00411941 -0.000128853 -3.27094e-18 -0.00148647 -9.27451e-19 0)
(0.00410421 3.45215e-06 -3.96553e-18 -0.00142251 -4.58739e-19 0)
(0.00391614 -9.97519e-05 0 -0.00129325 0 0)
(0.00390014 3.38482e-05 7.55723e-19 -0.00124047 7.89354e-19 0)
(0.00372952 -7.05251e-05 5.88907e-18 -0.00112141 6.8605e-19 0)
(0.00371414 6.31789e-05 7.2668e-18 -0.00108043 1.25123e-18 0)
(0.00356001 -4.13451e-05 7.74166e-19 -0.000971553 6.38017e-19 0)
(0.00354669 9.16144e-05 -3.6278e-18 -0.000943785 -1.62329e-18 0)
(0.0034073 -1.28586e-05 -6.26886e-18 -0.000844081 -1.4464e-18 0)
(0.00339733 0.000118779 -5.52882e-18 -0.000829807 -1.1203e-18 0)
(0.00327048 1.4754e-05 -2.70483e-18 -0.000736138 -7.82099e-19 0)
(0.00326493 0.000144823 3.15043e-19 -0.000736203 2.49883e-19 0)
(0.00314879 4.11907e-05 4.38735e-18 -0.000640254 9.33657e-19 0)
(0.00314793 0.0001682 -3.83702e-19 -0.000655656 -3.26729e-19 0)
(0.00304539 6.87831e-05 -6.82849e-19 -0.000581634 3.02187e-20 0)
(0.00305025 0.000185036 -7.14836e-19 -0.000589216 -4.004e-21 0)
(0.0029547 8.90775e-05 2.73442e-18 -0.000563604 4.3856e-19 0)
(0.00294867 0.000202538 1.24014e-18 -0.000582477 2.4927e-19 0)
(0.0115193 -0.0010503 -8.37691e-18 -0.0106595 1.79439e-18 6.20461e-33)
(0.0112216 -0.00108971 -2.36535e-18 -0.00978169 3.03975e-18 0)
(0.0112477 -0.000978322 -1.83285e-17 -0.00999837 -2.42212e-19 0)
(0.0111054 -0.0010965 -7.60835e-18 -0.00974378 2.08705e-18 0)
(0.0110846 -0.000960867 -4.47619e-18 -0.00981941 -4.59829e-18 0)
(0.0109893 -0.00109176 9.53823e-18 -0.00960273 5.14288e-18 0)
(0.0109452 -0.000951025 2.06909e-17 -0.00959796 -5.54806e-18 0)
(0.0108614 -0.00107942 1.99526e-17 -0.00939869 -2.74008e-18 0)
(0.0107996 -0.000943803 1.97788e-17 -0.00937301 -1.71239e-18 0)
(0.010721 -0.00106311 2.01807e-17 -0.00918146 -5.68476e-18 0)
(0.0106381 -0.00093623 -4.24208e-19 -0.00913872 3.33481e-18 0)
(0.0105643 -0.00104338 -4.83351e-18 -0.00894732 -8.30452e-19 0)
(0.0104593 -0.000927129 0 -0.00888872 0 0)
(0.0103901 -0.00102082 4.72332e-18 -0.00869653 8.27202e-19 0)
(0.0102641 -0.000916072 -2.60903e-18 -0.00862305 4.8678e-18 0)
(0.0101997 -0.000995879 -2.64733e-18 -0.00843054 4.90947e-18 0)
(0.0100549 -0.000902697 7.05207e-18 -0.00834455 -3.74547e-18 0)
(0.00999518 -0.00096891 1.15205e-17 -0.00815201 -3.01111e-18 0)
(0.00983332 -0.000887149 -2.411e-18 -0.00805472 4.34464e-18 0)
(0.00977839 -0.000940122 -2.39786e-18 -0.00786184 1.6864e-18 0)
(0.00960059 -0.000869933 -8.93039e-18 -0.00775564 4.62688e-18 0)
(0.00955039 -0.000909344 -8.98021e-18 -0.00756308 2.29925e-18 0)
(0.00935776 -0.000850597 -1.48373e-17 -0.00744851 -3.77799e-18 0)
(0.00931141 -0.000877439 -6.44351e-18 -0.00725654 6.3232e-19 0)
(0.00910739 -0.000829521 -4.16447e-18 -0.00713487 -3.25596e-18 0)
(0.00906477 -0.000844892 -3.95773e-18 -0.00694471 -7.62024e-19 0)
(0.00885091 -0.00080699 -2.03389e-18 -0.00681547 3.35004e-18 0)
(0.00881233 -0.000811197 -9.92701e-18 -0.00662733 -3.34315e-19 0)
(0.00858864 -0.000783647 -1.14496e-17 -0.00649309 -4.44484e-18 0)
(0.0085539 -0.000776458 3.92782e-18 -0.0063076 2.80212e-18 0)
(0.00832118 -0.00075888 -8.70261e-18 -0.0061679 3.53744e-18 0)
(0.00828898 -0.000740873 1.3392e-18 -0.00598645 1.63437e-18 0)
(0.00804939 -0.000732824 -2.04368e-18 -0.00583825 -5.32915e-18 0)
(0.00801888 -0.000704854 -1.90974e-18 -0.00566155 -5.18164e-18 0)
(0.00777435 -0.00070598 2.89777e-18 -0.00550718 -1.16406e-18 0)
(0.00774555 -0.000667204 4.00362e-18 -0.0053357 4.11321e-18 0)
(0.00749587 -0.000677877 1.19746e-17 -0.00517645 3.16785e-18 0)
(0.00746734 -0.000628475 7.91226e-18 -0.00501165 -9.02508e-19 0)
(0.00721463 -0.00064817 0 -0.00484378 0 0)
(0.00718535 -0.000588881 -2.99173e-18 -0.00468658 -6.44092e-19 0)
(0.00693133 -0.000617368 -8.61996e-18 -0.00451138 2.43066e-18 0)
(0.00690118 -0.000547101 -9.1282e-18 -0.00436232 9.72761e-19 0)
(0.00664645 -0.000584929 2.13735e-18 -0.00418268 -4.65037e-18 0)
(0.00661422 -0.000504085 8.70772e-18 -0.0040429 -7.11748e-19 0)
(0.00636141 -0.000550207 5.79597e-18 -0.00385508 2.43182e-18 0)
(0.00632639 -0.000459004 5.67312e-18 -0.00372542 2.3914e-18 0)
(0.00607636 -0.000514227 1.7356e-18 -0.00353343 -1.33476e-19 0)
(0.00603869 -0.00041213 6.6496e-18 -0.0034139 1.03505e-18 0)
(0.00579334 -0.000476021 -4.1397e-18 -0.00322044 -9.6578e-20 0)
(0.0057531 -0.00036482 4.65244e-18 -0.00311102 1.19708e-18 0)
(0.00551526 -0.000435572 1.00899e-18 -0.00291584 -9.4298e-19 0)
(0.00547316 -0.000314806 5.27938e-19 -0.00281654 -1.77994e-18 0)
(0.00524283 -0.000393768 3.38125e-19 -0.00262601 -1.63622e-18 0)
(0.0051992 -0.00026471 6.77083e-18 -0.00253689 2.79958e-18 0)
(0.00497914 -0.000349511 5.79144e-18 -0.0023493 3.345e-18 0)
(0.0049348 -0.000213543 -5.00351e-18 -0.00227016 -2.58554e-18 0)
(0.00472606 -0.000304388 -1.03507e-17 -0.00209273 -2.41533e-18 0)
(0.00468202 -0.00016297 -8.3497e-18 -0.0020221 -2.03854e-18 0)
(0.00448583 -0.000257981 -9.03504e-18 -0.00185489 -2.86382e-18 0)
(0.00444387 -0.000112789 -4.29959e-18 -0.0017928 -7.68223e-19 0)
(0.00426049 -0.000211182 -7.22913e-19 -0.00164013 3.14664e-19 0)
(0.00422194 -6.39144e-05 -7.71311e-19 -0.00158502 2.67222e-19 0)
(0.00405128 -0.000164214 6.89989e-19 -0.00144699 -2.30189e-19 0)
(0.00401778 -1.65445e-05 7.92913e-18 -0.00139887 2.89896e-18 0)
(0.0038596 -0.000117494 3.21098e-18 -0.00127695 1.16847e-18 0)
(0.00383215 2.9081e-05 2.17594e-18 -0.00123532 4.15092e-19 0)
(0.00368545 -7.17799e-05 -2.81243e-18 -0.00112833 -9.19862e-19 0)
(0.00366475 7.27162e-05 -4.51875e-19 -0.00109353 -3.66961e-19 0)
(0.00352934 -2.68243e-05 -4.73647e-19 -0.00100029 -3.42797e-19 0)
(0.00351531 0.000114825 0 -0.000973858 0 0)
(0.00338941 1.62412e-05 1.89678e-18 -0.000891043 4.04751e-19 0)
(0.00338146 0.000155257 2.32486e-18 -0.000874904 7.99803e-19 0)
(0.00326401 5.7906e-05 4.08072e-18 -0.000797924 1.11475e-18 0)
(0.00326091 0.000194573 4.84348e-18 -0.000794388 1.85101e-18 0)
(0.00315094 9.75588e-05 4.07878e-18 -0.00071655 1.58803e-18 0)
(0.00315157 0.000230232 1.45872e-18 -0.000725655 2.44555e-19 0)
(0.00304007 0.000133897 -2.0804e-18 -0.000636454 -6.7413e-19 0)
(0.00304792 0.000257347 1.82465e-18 -0.000658121 1.00798e-18 0)
(0.0029577 0.000174186 2.65208e-18 -0.000623027 7.1886e-19 0)
(0.00295874 0.000274797 3.96862e-18 -0.00063322 1.30361e-18 0)
(0.0110034 -0.00142069 1.05583e-17 -0.0101755 -1.62259e-19 2.52218e-33)
(0.0109843 -0.00148251 -6.11498e-18 -0.00956599 3.00799e-18 0)
(0.0109433 -0.0013651 1.77961e-17 -0.00967825 -7.4286e-19 0)
(0.010862 -0.00148408 3.19475e-18 -0.00951169 -6.51457e-18 0)
(0.0108243 -0.0013469 -1.11995e-17 -0.00954343 1.17088e-17 0)
(0.0107369 -0.00147358 -2.04663e-17 -0.00935959 7.29706e-18 0)
(0.0106897 -0.0013301 -1.40421e-18 -0.00933074 -1.01099e-17 0)
(0.0106026 -0.00145522 -6.85807e-18 -0.00914957 -7.22712e-18 0)
(0.0105445 -0.00131556 -7.73661e-18 -0.00910547 4.93954e-18 0)
(0.0104591 -0.00143383 -8.16391e-18 -0.00893133 8.29034e-18 0)
(0.0103864 -0.00130117 -4.00124e-19 -0.00887219 3.27166e-18 0)
(0.0103038 -0.00140934 -3.98829e-18 -0.0087001 -6.86317e-18 0)
(0.0102135 -0.00128549 3.18337e-18 -0.00862654 -1.13939e-17 0)
(0.010136 -0.00138113 2.0921e-18 -0.008455 8.2422e-19 0)
(0.0100257 -0.0012675 2.04741e-17 -0.0083691 4.16965e-18 0)
(0.00995398 -0.0013497 2.51479e-18 -0.00819694 -4.86934e-18 0)
(0.00982442 -0.00124683 -9.22813e-18 -0.00810018 8.36184e-18 0)
(0.00975836 -0.00131538 -1.79059e-17 -0.00792748 1.59324e-18 0)
(0.00961125 -0.00122354 -6.64094e-18 -0.00782065 -2.01987e-18 0)
(0.00955051 -0.00127867 -1.09068e-17 -0.00764841 2.7918e-19 0)
(0.00938756 -0.00119764 1.96887e-18 -0.00753123 2.10749e-18 0)
(0.00933223 -0.00124022 1.98008e-18 -0.00735907 4.76308e-18 0)
(0.00915471 -0.00116976 4.0997e-18 -0.00723446 7.38515e-19 0)
(0.00910566 -0.00119941 8.2695e-18 -0.00706253 3.81235e-18 0)
(0.00891257 -0.00113976 2.48759e-19 -0.00693084 2.40454e-18 0)
(0.00886935 -0.00115651 7.85037e-18 -0.00676019 1.42825e-18 0)
(0.00866284 -0.00110753 1.13901e-17 -0.00662141 -5.08722e-18 0)
(0.0086236 -0.00111214 7.89686e-18 -0.00645334 -3.70432e-18 0)
(0.0084067 -0.00107327 -1.38771e-18 -0.00630502 5.18372e-18 0)
(0.00837008 -0.00106618 -9.8306e-18 -0.00614017 -2.4312e-18 0)
(0.00814353 -0.00103755 -2.52934e-18 -0.00598266 -1.26132e-18 0)
(0.00810971 -0.00101783 -1.31886e-18 -0.0058219 4.69422e-18 0)
(0.00787353 -0.000999817 5.48341e-18 -0.00565676 4.34724e-20 0)
(0.00784146 -0.000967209 5.01785e-18 -0.00550204 -1.85236e-18 0)
(0.00759826 -0.000959378 1.4793e-18 -0.00532737 -2.33806e-18 0)
(0.00756601 -0.00091535 4.78789e-18 -0.00517914 -1.6238e-18 0)
(0.00731858 -0.000917005 -1.38606e-18 -0.00499397 2.11646e-18 0)
(0.00728582 -0.000860133 -9.14665e-19 -0.00485313 3.65209e-18 0)
(0.00703309 -0.000872805 9.22637e-18 -0.00465896 -8.94158e-19 0)
(0.00699919 -0.000802279 1.27565e-17 -0.00452801 1.22521e-18 0)
(0.00674438 -0.000825057 1.80826e-17 -0.00432453 2.86316e-18 0)
(0.00670768 -0.000742696 5.94091e-18 -0.00420328 -1.29621e-18 0)
(0.0064544 -0.000774693 4.52355e-18 -0.00399115 4.96576e-19 0)
(0.00641488 -0.000679533 1.16322e-18 -0.00388019 -1.45561e-18 0)
(0.00616351 -0.000722196 6.24336e-18 -0.00366387 7.14107e-20 0)
(0.00612077 -0.000614712 7.49311e-18 -0.00356445 2.40471e-18 0)
(0.00587565 -0.000666003 6.38103e-18 -0.00334351 3.52106e-18 0)
(0.00582918 -0.000547795 -3.09375e-18 -0.00325473 -1.73644e-18 0)
(0.00559231 -0.000608175 -4.79486e-18 -0.0030347 1.81534e-19 0)
(0.00554289 -0.000479064 -4.79572e-18 -0.00295694 1.19011e-19 0)
(0.00531604 -0.000547808 5.33581e-20 -0.00274099 -1.63898e-18 0)
(0.00526431 -0.00041034 5.88068e-18 -0.00267327 1.57823e-18 0)
(0.0050504 -0.000485583 -1.36769e-18 -0.00246452 1.14063e-19 0)
(0.00499798 -0.000340914 2.73763e-18 -0.00240539 1.48667e-18 0)
(0.0047973 -0.000422622 5.37554e-18 -0.00220988 1.60614e-18 0)
(0.00474618 -0.000273249 2.66771e-18 -0.00215837 3.06738e-19 0)
(0.00456025 -0.000358636 1.8781e-18 -0.00197748 6.74896e-19 0)
(0.00451254 -0.00020611 2.50009e-18 -0.00193193 1.34315e-18 0)
(0.00433957 -0.000295502 -1.66035e-18 -0.00176978 1.60097e-19 0)
(0.00429732 -0.000141905 -3.65849e-18 -0.00172916 -1.6321e-18 0)
(0.00413761 -0.000232475 -5.28157e-18 -0.00158593 -2.20415e-18 0)
(0.00410244 -7.94651e-05 -8.44841e-18 -0.00154875 -3.73215e-18 0)
(0.00395348 -0.000171515 -2.89234e-18 -0.00142555 -1.59849e-18 0)
(0.00392673 -2.02951e-05 4.31127e-18 -0.00139114 2.30819e-18 0)
(0.00378772 -0.00011183 6.29723e-18 -0.00128678 2.7148e-18 0)
(0.0037699 3.6489e-05 2.07687e-18 -0.00125463 6.85752e-19 0)
(0.00363859 -5.47998e-05 3.40013e-18 -0.00116699 1.21922e-18 0)
(0.0036294 9.03998e-05 2.5358e-18 -0.00113725 1.09562e-18 0)
(0.00350506 2.90399e-07 1.90254e-18 -0.00106382 9.5409e-19 0)
(0.00350338 0.000142141 0 -0.00103797 0 0)
(0.00338402 5.23136e-05 5.66394e-19 -0.00097327 6.91186e-20 0)
(0.00338749 0.000191659 2.81288e-18 -0.000953249 1.38853e-18 0)
(0.00327399 0.000102081 5.13794e-18 -0.000894429 1.98289e-18 0)
(0.00327986 0.000239059 5.9562e-18 -0.000882069 2.44099e-18 0)
(0.00316882 0.000147782 -7.38317e-19 -0.000817887 8.28086e-20 0)
(0.00317466 0.000282777 -7.08619e-18 -0.000816458 -3.42157e-18 0)
(0.00307143 0.000191312 -7.48143e-18 -0.000740228 -3.20075e-18 0)
(0.00307401 0.000322786 -5.60013e-18 -0.000759909 -2.38226e-18 0)
(0.0029692 0.000233011 -2.51512e-18 -0.000682673 -1.23065e-18 0)
(0.00296184 0.000335031 1.65682e-18 -0.000687597 8.93402e-19 0)
(0.0108247 -0.00181574 -1.03634e-17 -0.00997378 4.09834e-19 2.2464e-33)
(0.0106982 -0.0018465 1.09994e-17 -0.00928854 -2.90641e-18 0)
(0.0106836 -0.00173832 -1.07196e-18 -0.00940595 -1.05208e-17 0)
(0.0105558 -0.00184406 6.42152e-18 -0.00921213 8.13024e-19 0)
(0.0105359 -0.00171076 8.39709e-18 -0.00923541 8.02572e-18 0)
(0.0104175 -0.00182801 4.14064e-18 -0.00904903 3.76273e-18 0)
(0.0103886 -0.00168521 -2.59323e-18 -0.00900765 -2.91124e-18 0)
(0.0102754 -0.00180375 7.65999e-18 -0.008832 -5.53819e-18 0)
(0.0102377 -0.00166242 -4.76497e-18 -0.00877566 -5.03967e-19 0)
(0.0101287 -0.00177656 -4.22504e-18 -0.00861079 -3.59436e-18 0)
(0.0100791 -0.00164011 3.73019e-19 -0.0085412 -3.18905e-18 0)
(0.00997376 -0.00174586 -3.42142e-19 -0.00838209 3.02887e-18 0)
(0.0099105 -0.00161648 -9.41377e-18 -0.00829896 1.93876e-18 0)
(0.00980859 -0.0017121 2.28468e-19 -0.00814293 -2.90938e-18 0)
(0.00973137 -0.00159103 -8.82516e-18 -0.00804854 -4.1227e-18 0)
(0.00963409 -0.00167526 0 -0.00789374 0 0)
(0.00954088 -0.00156341 -2.2428e-18 -0.00778954 4.46089e-18 0)
(0.00945024 -0.00163505 -1.08631e-17 -0.00763501 6.85794e-19 0)
(0.00933825 -0.00153314 -4.34096e-18 -0.00752134 -3.32929e-18 0)
(0.00925545 -0.00159156 -8.56802e-18 -0.00736662 -6.30549e-18 0)
(0.00912477 -0.00149988 -1.2655e-17 -0.00724487 1.40639e-18 0)
(0.00904899 -0.00154468 -1.65148e-17 -0.00709055 3.61722e-18 0)
(0.00890148 -0.00146357 -1.21161e-17 -0.00695933 3.5501e-18 0)
(0.00883069 -0.00149528 -1.62749e-17 -0.0068063 8.35303e-19 0)
(0.00866939 -0.00142463 -1.20696e-17 -0.00666497 8.18786e-19 0)
(0.00860252 -0.00144324 -7.49266e-18 -0.00651368 6.19836e-18 0)
(0.00842736 -0.00138319 3.35851e-18 -0.00636151 -6.31094e-18 0)
(0.00836479 -0.00138783 1.12913e-17 -0.00621319 -2.9178e-18 0)
(0.00817418 -0.00133887 1.30367e-17 -0.00604939 1.25872e-18 0)
(0.00811582 -0.00132851 2.05567e-18 -0.00590631 -9.67511e-19 0)
(0.00791194 -0.00129052 4.0707e-18 -0.00573078 2.64978e-18 0)
(0.00785522 -0.00126626 -3.48697e-18 -0.00559325 -7.07578e-19 0)
(0.00764249 -0.00123881 0 -0.00540508 0 0)
(0.00758587 -0.00120046 -3.91283e-18 -0.00527393 -2.43208e-18 0)
(0.0073646 -0.00118426 -1.29689e-17 -0.00507297 4.88191e-19 0)
(0.00730789 -0.00113014 -9.65559e-18 -0.00495111 1.27092e-18 0)
(0.00707818 -0.00112589 -3.82635e-18 -0.00473661 -2.30304e-18 0)
(0.00702015 -0.00105618 0 -0.00462548 0 0)
(0.00678727 -0.00106261 -2.99076e-18 -0.00439867 -7.47705e-19 0)
(0.00672632 -0.00097879 3.63536e-18 -0.00429754 2.13664e-18 0)
(0.00649319 -0.000996226 9.37519e-18 -0.00406174 -1.61226e-18 0)
(0.00642974 -0.000897235 1.28883e-17 -0.00397251 4.9166e-19 0)
(0.00619753 -0.000926281 4.34143e-18 -0.00373029 3.19522e-18 0)
(0.00613129 -0.000813788 -7.49337e-19 -0.00365327 -1.14504e-18 0)
(0.00590514 -0.000852151 -1.27333e-17 -0.00340694 -2.12609e-18 0)
(0.00583666 -0.000727541 -1.00351e-17 -0.00334097 -1.47602e-18 0)
(0.00561766 -0.000776222 -3.30931e-18 -0.00309747 -1.79902e-18 0)
(0.00554871 -0.000640279 -3.19775e-18 -0.0030428 -1.80028e-18 0)
(0.00534005 -0.000697115 -4.44229e-18 -0.00280548 -3.30106e-19 0)
(0.00527172 -0.000553123 -9.7775e-18 -0.00275966 -3.00771e-18 0)
(0.00507553 -0.00061746 -1.16801e-17 -0.00253517 -3.85733e-18 0)
(0.00501015 -0.000466787 -4.17112e-18 -0.00249725 -6.70197e-19 0)
(0.00482715 -0.000537059 -2.95231e-18 -0.0022891 -1.5666e-18 0)
(0.00476678 -0.000382566 -2.04893e-18 -0.00225707 -8.85097e-19 0)
(0.00459725 -0.000457563 2.45186e-18 -0.00206968 5.61013e-19 0)
(0.00454395 -0.00030104 3.24262e-18 -0.00204192 1.3047e-18 0)
(0.00438712 -0.000379033 2.70567e-18 -0.00187623 1.43856e-18 0)
(0.00434281 -0.00022268 0 -0.00185122 0 0)
(0.00419702 -0.000303047 5.76526e-18 -0.00170909 2.37034e-18 0)
(0.00416292 -0.000148463 7.94843e-18 -0.00168508 4.20817e-18 0)
(0.00402725 -0.00022895 5.69396e-18 -0.0015648 3.17157e-18 0)
(0.00400413 -7.72639e-05 -3.79047e-18 -0.00154154 -2.37036e-18 0)
(0.00387498 -0.000158733 -1.31556e-17 -0.00144155 -6.28784e-18 0)
(0.0038628 -1.04264e-05 -5.99065e-18 -0.00141802 -2.84972e-18 0)
(0.00373941 -9.09789e-05 -2.46275e-18 -0.00133563 -1.59979e-18 0)
(0.00373736 5.34991e-05 2.65437e-18 -0.00131187 1.3723e-18 0)
(0.00361676 -2.73204e-05 6.54737e-19 -0.00124304 4.28463e-19 0)
(0.0036233 0.000113951 1.44237e-18 -0.00121959 7.87524e-19 0)
(0.00350434 3.30428e-05 0 -0.00116111 0 0)
(0.00351787 0.000170911 5.58056e-19 -0.00113829 3.94226e-19 0)
(0.00339952 8.95347e-05 2.92452e-18 -0.00108562 1.36371e-18 0)
(0.00341744 0.000225301 2.45085e-18 -0.00106519 1.10076e-18 0)
(0.00329831 0.000141993 -4.85816e-18 -0.00101543 -2.30893e-18 0)
(0.00331901 0.000275624 -4.16383e-18 -0.000997827 -2.16026e-18 0)
(0.00320027 0.000190279 -5.75879e-18 -0.000945729 -2.77288e-18 0)
(0.00322065 0.000323442 -5.52977e-18 -0.000933696 -2.9986e-18 0)
(0.00309959 0.000233354 -5.37583e-18 -0.000869743 -2.992e-18 0)
(0.00311783 0.000361451 -2.16211e-18 -0.000859945 -1.19811e-18 0)
(0.00300214 0.000272876 -1.52468e-18 -0.000787697 -8.90981e-19 0)
(0.00300314 0.000396537 1.7145e-18 -0.000801366 1.06091e-18 0)
(0.0104597 -0.00216086 -1.23588e-18 -0.00959375 3.74654e-18 5.63959e-32)
(0.0103556 -0.00218081 -2.19565e-17 -0.00895465 1.65872e-17 0)
(0.0103312 -0.00207724 2.19361e-18 -0.00904049 -2.77829e-18 0)
(0.0101958 -0.00217174 1.17749e-17 -0.00885463 -2.78376e-18 0)
(0.0101791 -0.00204315 4.03956e-18 -0.00885858 3.71417e-18 0)
(0.010044 -0.00214936 0 -0.00867981 0 0)
(0.0100258 -0.00200894 7.48501e-18 -0.00862341 -5.52324e-18 0)
(0.00989242 -0.00211819 1.60187e-17 -0.00845588 -2.04652e-18 0)
(0.00987111 -0.00197736 1.86538e-17 -0.00838644 -6.8207e-18 0)
(0.00974127 -0.00208463 1.3461e-17 -0.00823156 -4.49183e-18 0)
(0.00971186 -0.00194668 1.79034e-17 -0.00815081 -3.13368e-18 0)
(0.00958676 -0.00204847 1.80203e-17 -0.0080029 -6.66152e-18 0)
(0.00954613 -0.00191545 8.65539e-18 -0.00791196 3.77147e-18 0)
(0.00942694 -0.0020091 0 -0.00776863 0 0)
(0.00937248 -0.0018827 6.58282e-18 -0.00766803 -4.17253e-18 0)
(0.00925932 -0.00196604 1.06257e-17 -0.0075283 1.52225e-18 0)
(0.0091898 -0.00184756 2.12551e-17 -0.00741724 -1.30575e-18 0)
(0.00908166 -0.00191924 1.26013e-17 -0.00728038 -5.31288e-18 0)
(0.00899784 -0.00180965 -1.84695e-18 -0.00715865 6.65066e-18 0)
(0.00889369 -0.00186909 -6.19629e-18 -0.00702355 1.16562e-18 0)
(0.00879568 -0.00176904 1.61923e-18 -0.00689134 -6.25479e-18 0)
(0.00869581 -0.00181526 6.07021e-18 -0.00675737 -9.67064e-19 0)
(0.00858169 -0.00172526 8.21794e-18 -0.006614 3.52446e-18 0)
(0.00848698 -0.00175706 0 -0.0064821 0 0)
(0.00835425 -0.00167756 -1.6046e-18 -0.00632532 3.26028e-18 0)
(0.00826485 -0.00169364 -9.57069e-18 -0.00619748 -2.69106e-20 0)
(0.00811322 -0.00162506 -7.92978e-18 -0.00602497 -3.38975e-18 0)
(0.00802742 -0.00162476 4.13525e-18 -0.00590259 2.61723e-18 0)
(0.00786096 -0.00156729 -3.01775e-18 -0.00571458 1.27273e-18 0)
(0.0077758 -0.00155162 3.54053e-18 -0.00559755 6.83785e-19 0)
(0.00759833 -0.00150521 5.97393e-18 -0.00539444 -4.23293e-18 0)
(0.00751321 -0.00147256 6.57624e-18 -0.00528524 -2.5132e-18 0)
(0.00732363 -0.00143836 4.05349e-18 -0.00506538 2.43656e-18 0)
(0.00723826 -0.00138747 0 -0.00496669 0 0)
(0.007038 -0.00136572 -1.02254e-18 -0.00472917 1.95476e-18 0)
(0.00695117 -0.00129713 -4.92968e-18 -0.00464193 -3.28106e-19 0)
(0.00674597 -0.00128704 -7.88543e-18 -0.0043906 -1.33899e-18 0)
(0.00665655 -0.00120217 -4.73383e-18 -0.00431422 -5.07175e-19 0)
(0.00644987 -0.00120398 -7.6649e-20 -0.00405317 -2.77897e-18 0)
(0.00635887 -0.00110231 1.65145e-18 -0.00398946 -1.87012e-19 0)
(0.00615214 -0.0011164 -1.87987e-18 -0.00372143 3.4432e-19 0)
(0.00606002 -0.00100007 -3.60504e-18 -0.00366995 -2.05251e-18 0)
(0.0058588 -0.00102435 -4.22858e-18 -0.00340062 -9.8416e-19 0)
(0.00576675 -0.000895312 2.48205e-19 -0.00336011 2.01819e-18 0)
(0.00557261 -0.000930468 6.57428e-18 -0.00309653 2.03185e-18 0)
(0.00548295 -0.000790222 3.04096e-18 -0.00306668 2.08057e-19 0)
(0.00529964 -0.000833901 0 -0.00281402 0 0)
(0.0052139 -0.000686457 2.36257e-18 -0.00279171 9.98657e-19 0)
(0.00504324 -0.000737964 -3.93765e-19 -0.00255751 4.37048e-19 0)
(0.00496454 -0.000584949 -9.00689e-18 -0.00254156 -4.22239e-18 0)
(0.00480696 -0.000642137 -1.98632e-18 -0.0023289 -1.48422e-18 0)
(0.00473747 -0.000486859 3.96928e-18 -0.00231676 2.46799e-18 0)
(0.00459213 -0.000549086 4.02315e-18 -0.0021302 2.34129e-18 0)
(0.00453396 -0.000393461 1.12623e-18 -0.00212021 3.75856e-19 0)
(0.00440082 -0.000457881 -4.8844e-18 -0.00195937 -2.58809e-18 0)
(0.0043555 -0.000304119 -1.93488e-18 -0.00194971 -1.03479e-18 0)
(0.00423074 -0.000370987 -2.18242e-18 -0.00181457 -9.75863e-19 0)
(0.00419917 -0.000219949 -1.20844e-18 -0.00180428 -6.12759e-19 0)
(0.00408107 -0.000287588 -4.45662e-18 -0.00169271 -2.47399e-18 0)
(0.00406284 -0.0001402 0 -0.00168059 0 0)
(0.00394901 -0.000208232 5.45184e-18 -0.0015891 2.93763e-18 0)
(0.00394339 -6.45294e-05 2.07838e-18 -0.00157586 1.13679e-18 0)