/*--------------------------------*- C++ -*----------------------------------*\
| =========                 |                                                 |
| \\      /  F ield         | OpenFOAM: The Open Source CFD Toolbox           |
|  \\    /   O peration     | Version:  v2012                                 |
|   \\  /    A nd           | Website:  www.openfoam.com                      |
|    \\/     M anipulation  |                                                 |
\*---------------------------------------------------------------------------*/
FoamFile
{
    version     2.0;
    format      ascii;
    class       volScalarField;
    location    "13";
    object      sigmaEq;
}
// * * * * * * * * * * * * * * * * * * * * * * * * * * * * * * * * * * * * * //

dimensions      [1 -1 -2 0 0 0 0];


internalField   nonuniform List<scalar> 
32000
(
1.04549e+08
1.05178e+08
1.10634e+08
1.09576e+08
1.15093e+08
1.14469e+08
1.19269e+08
1.19209e+08
1.23586e+08
1.23691e+08
1.27908e+08
1.27947e+08
1.32102e+08
1.3201e+08
1.3608e+08
1.35867e+08
1.39803e+08
1.39496e+08
1.43267e+08
1.42882e+08
1.46481e+08
1.46028e+08
1.49462e+08
1.48949e+08
1.52225e+08
1.51661e+08
1.54785e+08
1.54174e+08
1.57157e+08
1.56504e+08
1.59356e+08
1.58666e+08
1.6139e+08
1.60668e+08
1.6327e+08
1.62519e+08
1.65008e+08
1.64231e+08
1.66609e+08
1.65809e+08
1.68082e+08
1.67259e+08
1.69438e+08
1.68593e+08
1.70681e+08
1.69815e+08
1.71823e+08
1.70936e+08
1.72877e+08
1.7197e+08
1.73854e+08
1.7293e+08
1.7477e+08
1.73836e+08
1.75642e+08
1.74704e+08
1.7649e+08
1.75558e+08
1.77328e+08
1.76417e+08
1.78174e+08
1.77308e+08
1.79028e+08
1.78232e+08
1.79902e+08
1.79199e+08
1.80784e+08
1.8021e+08
1.81652e+08
1.8122e+08
1.82504e+08
1.82261e+08
1.83169e+08
1.83227e+08
1.83578e+08
1.83862e+08
1.80801e+08
1.82467e+08
1.74975e+08
1.7644e+08
1.03418e+08
1.05101e+08
1.08857e+08
1.09625e+08
1.14253e+08
1.14179e+08
1.19213e+08
1.18766e+08
1.23865e+08
1.23299e+08
1.283e+08
1.27672e+08
1.32555e+08
1.31834e+08
1.36602e+08
1.35755e+08
1.40403e+08
1.39426e+08
1.43938e+08
1.42846e+08
1.47208e+08
1.46024e+08
1.5023e+08
1.48973e+08
1.53023e+08
1.51708e+08
1.55602e+08
1.54244e+08
1.57982e+08
1.56592e+08
1.60181e+08
1.58769e+08
1.62209e+08
1.60784e+08
1.64074e+08
1.62646e+08
1.6579e+08
1.64365e+08
1.67367e+08
1.6595e+08
1.68811e+08
1.67409e+08
1.70136e+08
1.68749e+08
1.71351e+08
1.6998e+08
1.72468e+08
1.71113e+08
1.73504e+08
1.7216e+08
1.74469e+08
1.73134e+08
1.75384e+08
1.7405e+08
1.76269e+08
1.74925e+08
1.77137e+08
1.7578e+08
1.78e+08
1.76631e+08
1.78864e+08
1.77496e+08
1.79734e+08
1.78381e+08
1.80606e+08
1.79294e+08
1.81454e+08
1.80249e+08
1.82233e+08
1.81184e+08
1.82884e+08
1.8213e+08
1.83354e+08
1.83035e+08
1.8369e+08
1.83657e+08
1.81791e+08
1.83007e+08
1.76439e+08
1.77566e+08
1.04181e+08
1.04656e+08
1.09388e+08
1.09674e+08
1.14241e+08
1.14551e+08
1.18868e+08
1.19171e+08
1.23379e+08
1.23633e+08
1.2774e+08
1.27941e+08
1.31931e+08
1.32064e+08
1.35923e+08
1.35962e+08
1.39689e+08
1.39613e+08
1.43213e+08
1.43016e+08
1.4649e+08
1.46179e+08
1.49524e+08
1.49115e+08
1.52329e+08
1.51839e+08
1.5492e+08
1.54367e+08
1.5731e+08
1.56707e+08
1.59511e+08
1.58873e+08
1.61538e+08
1.60878e+08
1.63402e+08
1.62728e+08
1.65114e+08
1.64432e+08
1.66686e+08
1.66002e+08
1.68131e+08
1.67441e+08
1.69461e+08
1.68761e+08
1.70694e+08
1.69971e+08
1.71843e+08
1.71081e+08
1.72922e+08
1.72105e+08
1.73956e+08
1.73056e+08
1.74956e+08
1.7395e+08
1.75938e+08
1.74811e+08
1.76907e+08
1.75654e+08
1.77875e+08
1.76496e+08
1.78837e+08
1.77351e+08
1.79791e+08
1.78231e+08
1.80724e+08
1.7913e+08
1.81618e+08
1.80066e+08
1.82424e+08
1.80968e+08
1.83133e+08
1.81855e+08
1.83651e+08
1.82704e+08
1.8395e+08
1.83492e+08
1.83676e+08
1.83805e+08
1.79154e+08
1.80647e+08
1.03769e+08
1.0511e+08
1.09389e+08
1.10174e+08
1.14537e+08
1.15115e+08
1.19201e+08
1.19785e+08
1.23636e+08
1.24264e+08
1.27907e+08
1.28554e+08
1.3202e+08
1.32637e+08
1.35945e+08
1.36489e+08
1.39656e+08
1.40098e+08
1.43139e+08
1.43464e+08
1.46392e+08
1.46599e+08
1.49418e+08
1.49514e+08
1.52223e+08
1.52219e+08
1.54816e+08
1.54731e+08
1.5721e+08
1.5706e+08
1.59418e+08
1.59215e+08
1.6145e+08
1.61203e+08
1.63317e+08
1.63038e+08
1.65035e+08
1.64725e+08
1.66615e+08
1.66269e+08
1.68067e+08
1.67683e+08
1.69411e+08
1.68972e+08
1.70661e+08
1.70147e+08
1.7183e+08
1.71223e+08
1.72938e+08
1.7221e+08
1.73996e+08
1.73128e+08
1.75018e+08
1.73997e+08
1.7601e+08
1.74836e+08
1.76978e+08
1.7566e+08
1.77924e+08
1.76487e+08
1.78841e+08
1.77322e+08
1.79733e+08
1.78177e+08
1.80587e+08
1.79034e+08
1.81404e+08
1.79908e+08
1.82144e+08
1.80728e+08
1.82821e+08
1.81533e+08
1.83335e+08
1.82265e+08
1.83865e+08
1.83055e+08
1.84092e+08
1.83535e+08
1.82379e+08
1.8354e+08
1.04057e+08
1.056e+08
1.09755e+08
1.10839e+08
1.1501e+08
1.15899e+08
1.1974e+08
1.20611e+08
1.24187e+08
1.25092e+08
1.28433e+08
1.29363e+08
1.325e+08
1.33416e+08
1.36374e+08
1.37232e+08
1.40038e+08
1.40805e+08
1.43481e+08
1.44138e+08
1.46702e+08
1.47242e+08
1.49703e+08
1.50132e+08
1.52491e+08
1.52821e+08
1.55075e+08
1.55315e+08
1.57463e+08
1.5762e+08
1.59661e+08
1.5975e+08
1.61682e+08
1.61714e+08
1.63543e+08
1.63511e+08
1.65251e+08
1.65151e+08
1.66818e+08
1.66647e+08
1.68263e+08
1.68e+08
1.696e+08
1.69224e+08
1.70844e+08
1.70333e+08
1.72012e+08
1.71343e+08
1.73114e+08
1.72275e+08
1.74162e+08
1.7315e+08
1.75163e+08
1.73989e+08
1.7612e+08
1.74811e+08
1.77038e+08
1.75633e+08
1.77914e+08
1.76463e+08
1.78754e+08
1.77293e+08
1.79566e+08
1.78141e+08
1.80333e+08
1.78972e+08
1.81074e+08
1.79802e+08
1.81755e+08
1.80582e+08
1.82381e+08
1.81306e+08
1.82927e+08
1.81965e+08
1.83417e+08
1.82586e+08
1.83973e+08
1.83252e+08
1.84218e+08
1.83563e+08
1.04562e+08
1.0632e+08
1.1031e+08
1.11644e+08
1.15668e+08
1.168e+08
1.20453e+08
1.21558e+08
1.24914e+08
1.2605e+08
1.29149e+08
1.30311e+08
1.3319e+08
1.34341e+08
1.37031e+08
1.38127e+08
1.40657e+08
1.41669e+08
1.44065e+08
1.44976e+08
1.47255e+08
1.4806e+08
1.50232e+08
1.50929e+08
1.53002e+08
1.53589e+08
1.55567e+08
1.56051e+08
1.57932e+08
1.58324e+08
1.6011e+08
1.60412e+08
1.62114e+08
1.62315e+08
1.63949e+08
1.64043e+08
1.65627e+08
1.65609e+08
1.67169e+08
1.67013e+08
1.68586e+08
1.68272e+08
1.69895e+08
1.69404e+08
1.71115e+08
1.70425e+08
1.72251e+08
1.71366e+08
1.73316e+08
1.72245e+08
1.74317e+08
1.7309e+08
1.75255e+08
1.7392e+08
1.76137e+08
1.74746e+08
1.76975e+08
1.75575e+08
1.77766e+08
1.76406e+08
1.78537e+08
1.77229e+08
1.79291e+08
1.78066e+08
1.80005e+08
1.78869e+08
1.8071e+08
1.79648e+08
1.81373e+08
1.80404e+08
1.81972e+08
1.8106e+08
1.82568e+08
1.81672e+08
1.83062e+08
1.82274e+08
1.83602e+08
1.82797e+08
1.84107e+08
1.83185e+08
1.05385e+08
1.07235e+08
1.11109e+08
1.12612e+08
1.16525e+08
1.17837e+08
1.21334e+08
1.22628e+08
1.2579e+08
1.27123e+08
1.30005e+08
1.31371e+08
1.34016e+08
1.3538e+08
1.37822e+08
1.39146e+08
1.41413e+08
1.4267e+08
1.44789e+08
1.45956e+08
1.4795e+08
1.49012e+08
1.50898e+08
1.51848e+08
1.53636e+08
1.5447e+08
1.56166e+08
1.56886e+08
1.58499e+08
1.59095e+08
1.60644e+08
1.61099e+08
1.62605e+08
1.62909e+08
1.64393e+08
1.64534e+08
1.66027e+08
1.65979e+08
1.67523e+08
1.67262e+08
1.68894e+08
1.68407e+08
1.70158e+08
1.69435e+08
1.71323e+08
1.70381e+08
1.72402e+08
1.71268e+08
1.73397e+08
1.72126e+08
1.74316e+08
1.72972e+08
1.75171e+08
1.73811e+08
1.75982e+08
1.74647e+08
1.76752e+08
1.75489e+08
1.77486e+08
1.7631e+08
1.78219e+08
1.77111e+08
1.78947e+08
1.77916e+08
1.79636e+08
1.78682e+08
1.80314e+08
1.79394e+08
1.80995e+08
1.80101e+08
1.81592e+08
1.80757e+08
1.82151e+08
1.81326e+08
1.82757e+08
1.81873e+08
1.83206e+08
1.82424e+08
1.83706e+08
1.82655e+08
1.06489e+08
1.08375e+08
1.12121e+08
1.13756e+08
1.17574e+08
1.19019e+08
1.22395e+08
1.23822e+08
1.2683e+08
1.28308e+08
1.31008e+08
1.32539e+08
1.34976e+08
1.36528e+08
1.38739e+08
1.40274e+08
1.42288e+08
1.43775e+08
1.45622e+08
1.47034e+08
1.4874e+08
1.50056e+08
1.51643e+08
1.52846e+08
1.54333e+08
1.55407e+08
1.56816e+08
1.57738e+08
1.59097e+08
1.59843e+08
1.6118e+08
1.61729e+08
1.63076e+08
1.63407e+08
1.648e+08
1.64886e+08
1.6637e+08
1.66187e+08
1.678e+08
1.6734e+08
1.69105e+08
1.68375e+08
1.70296e+08
1.6933e+08
1.71384e+08
1.70233e+08
1.72375e+08
1.71113e+08
1.73283e+08
1.71983e+08
1.74124e+08
1.72845e+08
1.74921e+08
1.73697e+08
1.75689e+08
1.74541e+08
1.76427e+08
1.75372e+08
1.7715e+08
1.76164e+08
1.77879e+08
1.76931e+08
1.78601e+08
1.77695e+08
1.7928e+08
1.78423e+08
1.79933e+08
1.79083e+08
1.80588e+08
1.79733e+08
1.8121e+08
1.8037e+08
1.81749e+08
1.80926e+08
1.82263e+08
1.81424e+08
1.82861e+08
1.81918e+08
1.83305e+08
1.82265e+08
1.07858e+08
1.09737e+08
1.13363e+08
1.15092e+08
1.18824e+08
1.20355e+08
1.2364e+08
1.25147e+08
1.28042e+08
1.29608e+08
1.32173e+08
1.3381e+08
1.36086e+08
1.37771e+08
1.39789e+08
1.41488e+08
1.43278e+08
1.44956e+08
1.46548e+08
1.48171e+08
1.496e+08
1.51136e+08
1.52436e+08
1.53849e+08
1.55056e+08
1.56309e+08
1.57461e+08
1.58518e+08
1.59659e+08
1.60483e+08
1.61658e+08
1.62213e+08
1.6347e+08
1.63725e+08
1.65112e+08
1.65043e+08
1.66598e+08
1.66205e+08
1.67941e+08
1.67251e+08
1.69153e+08
1.68223e+08
1.70248e+08
1.69154e+08
1.71239e+08
1.70067e+08
1.7215e+08
1.7097e+08
1.72998e+08
1.71863e+08
1.73806e+08
1.72739e+08
1.74592e+08
1.7359e+08
1.7536e+08
1.74421e+08
1.76104e+08
1.75217e+08
1.76836e+08
1.75972e+08
1.77564e+08
1.76699e+08
1.78279e+08
1.77421e+08
1.78946e+08
1.78115e+08
1.79572e+08
1.78745e+08
1.80198e+08
1.79335e+08
1.80807e+08
1.79933e+08
1.81341e+08
1.80504e+08
1.81824e+08
1.80959e+08
1.82303e+08
1.81389e+08
1.82886e+08
1.81728e+08
1.09501e+08
1.11348e+08
1.14837e+08
1.16626e+08
1.20271e+08
1.21851e+08
1.25062e+08
1.26607e+08
1.29421e+08
1.31025e+08
1.33493e+08
1.35181e+08
1.37339e+08
1.39094e+08
1.40967e+08
1.42758e+08
1.44373e+08
1.46162e+08
1.47555e+08
1.493e+08
1.50513e+08
1.52169e+08
1.53248e+08
1.54765e+08
1.55761e+08
1.57088e+08
1.58059e+08
1.59141e+08
1.6015e+08
1.60935e+08
1.62045e+08
1.62488e+08
1.63756e+08
1.63831e+08
1.65293e+08
1.65011e+08
1.66668e+08
1.66079e+08
1.67897e+08
1.6708e+08
1.68999e+08
1.6805e+08
1.69999e+08
1.69005e+08
1.70927e+08
1.69948e+08
1.71804e+08
1.70875e+08
1.72647e+08
1.71775e+08
1.7347e+08
1.72639e+08
1.74278e+08
1.73469e+08
1.75061e+08
1.74266e+08
1.75818e+08
1.75022e+08
1.76553e+08
1.75743e+08
1.7727e+08
1.76436e+08
1.77966e+08
1.77119e+08
1.78615e+08
1.77778e+08
1.79216e+08
1.78381e+08
1.79805e+08
1.78941e+08
1.80375e+08
1.79482e+08
1.80927e+08
1.80016e+08
1.8138e+08
1.80512e+08
1.8182e+08
1.80886e+08
1.8232e+08
1.81166e+08
1.11392e+08
1.13188e+08
1.16534e+08
1.18357e+08
1.21899e+08
1.23509e+08
1.2664e+08
1.28201e+08
1.30943e+08
1.32552e+08
1.34947e+08
1.36635e+08
1.38712e+08
1.40465e+08
1.42246e+08
1.44033e+08
1.45546e+08
1.47327e+08
1.48612e+08
1.5034e+08
1.51444e+08
1.53068e+08
1.54049e+08
1.55509e+08
1.56434e+08
1.57665e+08
1.58606e+08
1.59539e+08
1.60575e+08
1.61151e+08
1.62346e+08
1.62539e+08
1.63923e+08
1.63758e+08
1.65318e+08
1.64865e+08
1.66553e+08
1.65912e+08
1.6766e+08
1.66934e+08
1.68676e+08
1.67937e+08
1.69635e+08
1.68924e+08
1.70558e+08
1.69886e+08
1.71458e+08
1.7081e+08
1.72337e+08
1.71689e+08
1.73191e+08
1.72526e+08
1.74014e+08
1.73324e+08
1.74805e+08
1.74084e+08
1.7556e+08
1.74809e+08
1.76282e+08
1.755e+08
1.76976e+08
1.7616e+08
1.77646e+08
1.76804e+08
1.78267e+08
1.77426e+08
1.78846e+08
1.78001e+08
1.79404e+08
1.7854e+08
1.7994e+08
1.79036e+08
1.8045e+08
1.79529e+08
1.80922e+08
1.79999e+08
1.81332e+08
1.80395e+08
1.81791e+08
1.80639e+08
1.13509e+08
1.1525e+08
1.18443e+08
1.2027e+08
1.23684e+08
1.25314e+08
1.28339e+08
1.29914e+08
1.32562e+08
1.34168e+08
1.36481e+08
1.38137e+08
1.40148e+08
1.41836e+08
1.43572e+08
1.45256e+08
1.46748e+08
1.48385e+08
1.49679e+08
1.51222e+08
1.52373e+08
1.53769e+08
1.54844e+08
1.56025e+08
1.57103e+08
1.57989e+08
1.5915e+08
1.59679e+08
1.60972e+08
1.6114e+08
1.62573e+08
1.62432e+08
1.63964e+08
1.63615e+08
1.65184e+08
1.64735e+08
1.66287e+08
1.65824e+08
1.67324e+08
1.66889e+08
1.68324e+08
1.67928e+08
1.69305e+08
1.68927e+08
1.70268e+08
1.69873e+08
1.71206e+08
1.70765e+08
1.72107e+08
1.71609e+08
1.72968e+08
1.7241e+08
1.73789e+08
1.73173e+08
1.74567e+08
1.739e+08
1.75304e+08
1.74591e+08
1.76003e+08
1.75245e+08
1.76672e+08
1.7587e+08
1.77309e+08
1.76484e+08
1.77901e+08
1.77071e+08
1.78461e+08
1.77617e+08
1.78991e+08
1.78131e+08
1.79492e+08
1.78609e+08
1.79972e+08
1.79052e+08
1.80439e+08
1.79497e+08
1.80835e+08
1.79901e+08
1.81269e+08
1.80128e+08
1.15809e+08
1.17499e+08
1.20524e+08
1.22341e+08
1.25587e+08
1.27239e+08
1.3011e+08
1.3171e+08
1.34219e+08
1.35824e+08
1.38025e+08
1.39639e+08
1.41573e+08
1.43163e+08
1.4487e+08
1.46388e+08
1.47915e+08
1.49312e+08
1.50723e+08
1.51939e+08
1.53313e+08
1.54268e+08
1.55697e+08
1.56303e+08
1.57853e+08
1.58072e+08
1.59738e+08
1.59629e+08
1.61352e+08
1.61024e+08
1.62724e+08
1.62323e+08
1.63915e+08
1.63558e+08
1.65005e+08
1.64742e+08
1.66054e+08
1.65879e+08
1.67082e+08
1.66968e+08
1.68104e+08
1.67996e+08
1.69115e+08
1.68963e+08
1.701e+08
1.69873e+08
1.71044e+08
1.70732e+08
1.7194e+08
1.71544e+08
1.72789e+08
1.72315e+08
1.73591e+08
1.73047e+08
1.7435e+08
1.7374e+08
1.75064e+08
1.74394e+08
1.75739e+08
1.75018e+08
1.7637e+08
1.75613e+08
1.76972e+08
1.76187e+08
1.77543e+08
1.76731e+08
1.7808e+08
1.77247e+08
1.78583e+08
1.77732e+08
1.79053e+08
1.7819e+08
1.79502e+08
1.78602e+08
1.79944e+08
1.79019e+08
1.80346e+08
1.79395e+08
1.80771e+08
1.79624e+08
1.18243e+08
1.19905e+08
1.22729e+08
1.24532e+08
1.27563e+08
1.2924e+08
1.31906e+08
1.33536e+08
1.3586e+08
1.37474e+08
1.39522e+08
1.41104e+08
1.4293e+08
1.44429e+08
1.46094e+08
1.4744e+08
1.49036e+08
1.50136e+08
1.51782e+08
1.52514e+08
1.54338e+08
1.54586e+08
1.56645e+08
1.56404e+08
1.58614e+08
1.5804e+08
1.60248e+08
1.59541e+08
1.616e+08
1.60969e+08
1.62769e+08
1.6234e+08
1.63858e+08
1.63636e+08
1.64923e+08
1.64853e+08
1.65976e+08
1.65993e+08
1.67019e+08
1.67055e+08
1.68052e+08
1.6805e+08
1.6906e+08
1.68985e+08
1.7002e+08
1.69859e+08
1.70926e+08
1.70682e+08
1.71781e+08
1.7146e+08
1.72594e+08
1.72196e+08
1.73363e+08
1.72889e+08
1.74087e+08
1.7354e+08
1.74769e+08
1.74157e+08
1.75412e+08
1.74753e+08
1.76023e+08
1.75323e+08
1.76602e+08
1.75864e+08
1.77148e+08
1.76376e+08
1.77661e+08
1.76864e+08
1.78142e+08
1.77327e+08
1.78592e+08
1.77762e+08
1.79024e+08
1.78157e+08
1.79452e+08
1.78548e+08
1.7984e+08
1.78914e+08
1.80269e+08
1.79127e+08
1.2075e+08
1.2244e+08
1.24999e+08
1.26807e+08
1.29567e+08
1.31273e+08
1.33696e+08
1.3536e+08
1.37472e+08
1.39106e+08
1.40975e+08
1.42538e+08
1.44244e+08
1.45642e+08
1.47316e+08
1.48401e+08
1.50217e+08
1.50813e+08
1.5294e+08
1.52928e+08
1.55383e+08
1.54837e+08
1.57451e+08
1.56617e+08
1.59129e+08
1.58282e+08
1.6051e+08
1.59876e+08
1.61746e+08
1.61384e+08
1.62912e+08
1.62776e+08
1.64043e+08
1.64038e+08
1.65132e+08
1.65174e+08
1.66177e+08
1.66217e+08
1.6718e+08
1.67208e+08
1.68166e+08
1.68149e+08
1.69107e+08
1.69031e+08
1.69988e+08
1.69857e+08
1.70818e+08
1.70625e+08
1.71614e+08
1.71349e+08
1.72381e+08
1.72033e+08
1.73108e+08
1.72679e+08
1.73794e+08
1.73297e+08
1.74441e+08
1.7389e+08
1.75055e+08
1.74456e+08
1.7564e+08
1.74993e+08
1.76192e+08
1.75501e+08
1.76713e+08
1.7599e+08
1.77205e+08
1.7646e+08
1.77672e+08
1.76908e+08
1.78108e+08
1.77333e+08
1.78516e+08
1.77718e+08
1.78919e+08
1.78092e+08
1.79316e+08
1.78434e+08
1.79749e+08
1.78643e+08
1.23277e+08
1.25073e+08
1.27281e+08
1.29128e+08
1.31571e+08
1.33317e+08
1.35494e+08
1.37178e+08
1.39113e+08
1.407e+08
1.42498e+08
1.43876e+08
1.45706e+08
1.46684e+08
1.4877e+08
1.49152e+08
1.51661e+08
1.51394e+08
1.54202e+08
1.53496e+08
1.56279e+08
1.55555e+08
1.57934e+08
1.57462e+08
1.59356e+08
1.59187e+08
1.60744e+08
1.60715e+08
1.62094e+08
1.62088e+08
1.63403e+08
1.63324e+08
1.64635e+08
1.64473e+08
1.65755e+08
1.65558e+08
1.66765e+08
1.66566e+08
1.67783e+08
1.67496e+08
1.68708e+08
1.68387e+08
1.69516e+08
1.69213e+08
1.70262e+08
1.69936e+08
1.7097e+08
1.70615e+08
1.71662e+08
1.71277e+08
1.72341e+08
1.71898e+08
1.72981e+08
1.72496e+08
1.73585e+08
1.73065e+08
1.74162e+08
1.73606e+08
1.74725e+08
1.7412e+08
1.75263e+08
1.74609e+08
1.75772e+08
1.75089e+08
1.76256e+08
1.75558e+08
1.76718e+08
1.76008e+08
1.7716e+08
1.76438e+08
1.77584e+08
1.76852e+08
1.77993e+08
1.77246e+08
1.78391e+08
1.77621e+08
1.78783e+08
1.77964e+08
1.79223e+08
1.78174e+08
1.25785e+08
1.2773e+08
1.29545e+08
1.3145e+08
1.336e+08
1.35335e+08
1.37399e+08
1.38922e+08
1.40972e+08
1.42157e+08
1.44393e+08
1.4504e+08
1.47703e+08
1.47637e+08
1.50685e+08
1.50038e+08
1.53178e+08
1.52303e+08
1.54943e+08
1.54556e+08
1.56421e+08
1.55802e+08
1.57151e+08
1.56904e+08
1.58199e+08
1.58204e+08
1.59512e+08
1.59496e+08
1.60924e+08
1.60761e+08
1.62394e+08
1.6201e+08
1.63915e+08
1.63242e+08
1.65438e+08
1.6446e+08
1.66553e+08
1.65874e+08
1.67634e+08
1.67049e+08
1.68636e+08
1.67922e+08
1.69535e+08
1.68785e+08
1.70291e+08
1.69658e+08
1.70973e+08
1.70411e+08
1.71737e+08
1.71078e+08
1.72369e+08
1.71744e+08
1.72945e+08
1.7233e+08
1.73488e+08
1.72858e+08
1.74023e+08
1.73369e+08
1.74528e+08
1.73833e+08
1.75019e+08
1.74296e+08
1.75486e+08
1.74746e+08
1.75933e+08
1.75178e+08
1.76363e+08
1.75593e+08
1.76778e+08
1.75996e+08
1.7718e+08
1.76396e+08
1.77569e+08
1.76788e+08
1.7795e+08
1.77162e+08
1.78335e+08
1.77508e+08
1.78776e+08
1.7774e+08
1.28302e+08
1.30272e+08
1.31828e+08
1.33679e+08
1.35808e+08
1.37241e+08
1.39668e+08
1.40559e+08
1.43383e+08
1.4363e+08
1.46893e+08
1.46401e+08
1.49807e+08
1.48965e+08
1.51834e+08
1.50807e+08
1.51932e+08
1.50775e+08
1.5224e+08
1.51836e+08
1.53254e+08
1.52941e+08
1.54372e+08
1.53937e+08
1.55569e+08
1.55023e+08
1.56833e+08
1.56234e+08
1.58132e+08
1.57535e+08
1.59432e+08
1.58882e+08
1.60726e+08
1.60235e+08
1.6209e+08
1.61561e+08
1.6351e+08
1.62984e+08
1.64954e+08
1.64428e+08
1.66384e+08
1.65755e+08
1.67837e+08
1.66992e+08
1.69244e+08
1.68202e+08
1.70171e+08
1.69564e+08
1.70971e+08
1.7026e+08
1.71644e+08
1.7094e+08
1.72295e+08
1.71606e+08
1.72921e+08
1.72263e+08
1.73518e+08
1.72809e+08
1.74052e+08
1.73346e+08
1.74548e+08
1.73824e+08
1.75003e+08
1.74251e+08
1.75434e+08
1.74653e+08
1.75852e+08
1.75049e+08
1.76266e+08
1.75456e+08
1.76668e+08
1.75856e+08
1.77056e+08
1.76241e+08
1.7744e+08
1.7661e+08
1.77826e+08
1.76958e+08
1.78263e+08
1.77208e+08
1.3089e+08
1.32638e+08
1.34291e+08
1.35776e+08
1.38378e+08
1.39172e+08
1.42433e+08
1.42467e+08
1.46117e+08
1.45544e+08
1.48545e+08
1.47067e+08
1.47551e+08
1.46279e+08
1.47572e+08
1.47035e+08
1.48129e+08
1.47618e+08
1.48937e+08
1.48253e+08
1.49864e+08
1.49089e+08
1.50906e+08
1.50117e+08
1.5207e+08
1.5129e+08
1.53334e+08
1.52573e+08
1.54663e+08
1.53935e+08
1.56033e+08
1.55349e+08
1.57432e+08
1.56798e+08
1.58855e+08
1.58301e+08
1.60301e+08
1.5983e+08
1.61711e+08
1.61334e+08
1.63037e+08
1.62776e+08
1.64299e+08
1.64131e+08
1.65636e+08
1.65391e+08
1.67061e+08
1.66815e+08
1.68411e+08
1.68079e+08
1.69695e+08
1.69229e+08
1.70891e+08
1.70284e+08
1.71819e+08
1.71329e+08
1.72442e+08
1.71876e+08
1.72976e+08
1.72412e+08
1.7352e+08
1.72944e+08
1.74058e+08
1.73464e+08
1.74586e+08
1.73951e+08
1.7508e+08
1.74417e+08
1.75509e+08
1.74814e+08
1.75921e+08
1.75186e+08
1.76317e+08
1.75543e+08
1.76707e+08
1.75897e+08
1.77101e+08
1.76261e+08
1.77535e+08
1.76553e+08
1.33449e+08
1.35024e+08
1.37132e+08
1.3806e+08
1.41465e+08
1.41646e+08
1.45136e+08
1.44866e+08
1.44711e+08
1.42932e+08
1.4382e+08
1.42977e+08
1.43683e+08
1.42989e+08
1.43932e+08
1.43132e+08
1.4442e+08
1.43609e+08
1.45171e+08
1.44333e+08
1.46124e+08
1.45254e+08
1.47223e+08
1.46357e+08
1.48436e+08
1.47611e+08
1.4974e+08
1.48978e+08
1.51114e+08
1.50423e+08
1.5254e+08
1.51922e+08
1.54007e+08
1.53464e+08
1.55505e+08
1.55045e+08
1.57016e+08
1.56637e+08
1.58517e+08
1.58205e+08
1.59987e+08
1.59731e+08
1.61423e+08
1.6122e+08
1.62822e+08
1.627e+08
1.64171e+08
1.64128e+08
1.65417e+08
1.65466e+08
1.66568e+08
1.66693e+08
1.67731e+08
1.67827e+08
1.68978e+08
1.69043e+08
1.7013e+08
1.70105e+08
1.71193e+08
1.71056e+08
1.72153e+08
1.71891e+08
1.72896e+08
1.72536e+08
1.73351e+08
1.72937e+08
1.73788e+08
1.73358e+08
1.74246e+08
1.73793e+08
1.74705e+08
1.74236e+08
1.75141e+08
1.74671e+08
1.75584e+08
1.75107e+08
1.76039e+08
1.75519e+08
1.765e+08
1.75842e+08
1.35703e+08
1.37792e+08
1.40377e+08
1.41314e+08
1.43769e+08
1.41572e+08
1.41694e+08
1.40812e+08
1.40628e+08
1.39953e+08
1.40043e+08
1.39242e+08
1.39869e+08
1.39037e+08
1.40095e+08
1.39207e+08
1.40625e+08
1.39712e+08
1.41395e+08
1.40502e+08
1.42367e+08
1.41515e+08
1.43505e+08
1.42708e+08
1.44776e+08
1.44043e+08
1.46151e+08
1.45489e+08
1.47604e+08
1.47016e+08
1.49116e+08
1.48604e+08
1.50671e+08
1.50235e+08
1.52253e+08
1.51894e+08
1.53842e+08
1.53557e+08
1.5542e+08
1.55201e+08
1.56975e+08
1.56815e+08
1.58502e+08
1.584e+08
1.59996e+08
1.59959e+08
1.61443e+08
1.61461e+08
1.62827e+08
1.6289e+08
1.64143e+08
1.64247e+08
1.6539e+08
1.65548e+08
1.66554e+08
1.66774e+08
1.67608e+08
1.67896e+08
1.68566e+08
1.68916e+08
1.69502e+08
1.69877e+08
1.70467e+08
1.70802e+08
1.7134e+08
1.71605e+08
1.72136e+08
1.72325e+08
1.72874e+08
1.72961e+08
1.73536e+08
1.73453e+08
1.73993e+08
1.73815e+08
1.74355e+08
1.74197e+08
1.7474e+08
1.74604e+08
1.75151e+08
1.74932e+08
1.38449e+08
1.41259e+08
1.41159e+08
1.40115e+08
1.39993e+08
1.38957e+08
1.38523e+08
1.37328e+08
1.37164e+08
1.36118e+08
1.36356e+08
1.35385e+08
1.36088e+08
1.35146e+08
1.36261e+08
1.35341e+08
1.36784e+08
1.35898e+08
1.37587e+08
1.3675e+08
1.38611e+08
1.37839e+08
1.39815e+08
1.39115e+08
1.4116e+08
1.40538e+08
1.42618e+08
1.42073e+08
1.4416e+08
1.4369e+08
1.45764e+08
1.45369e+08
1.47409e+08
1.47088e+08
1.49079e+08
1.48828e+08
1.50755e+08
1.50569e+08
1.52422e+08
1.52295e+08
1.54068e+08
1.53996e+08
1.55684e+08
1.55668e+08
1.57258e+08
1.57298e+08
1.58782e+08
1.58872e+08
1.60245e+08
1.60378e+08
1.61647e+08
1.61819e+08
1.62984e+08
1.63199e+08
1.64247e+08
1.64502e+08
1.65431e+08
1.65721e+08
1.66535e+08
1.66857e+08
1.67555e+08
1.67912e+08
1.68482e+08
1.68878e+08
1.69304e+08
1.69744e+08
1.70033e+08
1.70523e+08
1.70705e+08
1.71261e+08
1.71381e+08
1.71951e+08
1.72012e+08
1.72565e+08
1.72586e+08
1.73148e+08
1.73114e+08
1.73721e+08
1.73596e+08
1.74202e+08
1.40403e+08
1.40346e+08
1.38686e+08
1.37998e+08
1.36732e+08
1.35528e+08
1.34849e+08
1.33465e+08
1.33416e+08
1.32085e+08
1.32555e+08
1.31357e+08
1.32238e+08
1.31171e+08
1.3239e+08
1.31436e+08
1.32928e+08
1.32071e+08
1.33777e+08
1.3301e+08
1.34874e+08
1.34192e+08
1.36163e+08
1.35566e+08
1.37603e+08
1.37088e+08
1.39158e+08
1.38723e+08
1.40797e+08
1.4044e+08
1.42497e+08
1.42213e+08
1.44237e+08
1.44022e+08
1.45996e+08
1.45847e+08
1.47758e+08
1.47669e+08
1.49509e+08
1.49476e+08
1.51237e+08
1.51256e+08
1.52932e+08
1.52999e+08
1.54584e+08
1.54696e+08
1.56185e+08
1.56336e+08
1.57726e+08
1.57913e+08
1.59203e+08
1.59425e+08
1.6061e+08
1.60867e+08
1.61943e+08
1.62231e+08
1.63197e+08
1.63511e+08
1.64369e+08
1.64709e+08
1.65459e+08
1.65824e+08
1.66462e+08
1.66852e+08
1.67378e+08
1.67797e+08
1.68214e+08
1.68666e+08
1.68974e+08
1.6946e+08
1.69652e+08
1.70175e+08
1.70244e+08
1.70807e+08
1.70753e+08
1.71361e+08
1.71187e+08
1.71857e+08
1.71559e+08
1.72329e+08
1.40526e+08
1.37752e+08
1.36527e+08
1.34559e+08
1.33275e+08
1.31619e+08
1.30855e+08
1.29362e+08
1.29283e+08
1.27912e+08
1.28435e+08
1.27193e+08
1.28177e+08
1.27078e+08
1.28404e+08
1.27446e+08
1.29026e+08
1.28202e+08
1.2997e+08
1.29265e+08
1.31169e+08
1.3057e+08
1.32566e+08
1.32064e+08
1.34116e+08
1.33703e+08
1.3578e+08
1.3545e+08
1.37526e+08
1.37272e+08
1.39327e+08
1.39145e+08
1.41162e+08
1.41046e+08
1.43012e+08
1.42956e+08
1.44859e+08
1.44858e+08
1.46691e+08
1.4674e+08
1.48495e+08
1.48589e+08
1.50261e+08
1.50396e+08
1.51981e+08
1.52152e+08
1.53645e+08
1.53848e+08
1.55248e+08
1.5548e+08
1.56785e+08
1.57043e+08
1.5825e+08
1.58531e+08
1.59639e+08
1.59939e+08
1.60949e+08
1.61265e+08
1.62176e+08
1.62506e+08
1.63318e+08
1.63663e+08
1.64375e+08
1.6473e+08
1.65346e+08
1.6571e+08
1.66231e+08
1.66604e+08
1.6703e+08
1.67409e+08
1.67744e+08
1.68126e+08
1.68375e+08
1.6876e+08
1.68927e+08
1.69318e+08
1.69401e+08
1.69797e+08
1.69789e+08
1.70179e+08
1.37519e+08
1.34327e+08
1.33156e+08
1.3046e+08
1.29397e+08
1.27217e+08
1.26664e+08
1.2492e+08
1.2497e+08
1.23534e+08
1.24132e+08
1.22913e+08
1.23962e+08
1.22915e+08
1.24314e+08
1.23419e+08
1.25078e+08
1.24321e+08
1.26164e+08
1.25535e+08
1.27501e+08
1.26988e+08
1.29033e+08
1.28623e+08
1.3071e+08
1.30394e+08
1.32495e+08
1.32262e+08
1.34354e+08
1.34197e+08
1.36261e+08
1.36172e+08
1.38194e+08
1.38166e+08
1.40133e+08
1.4016e+08
1.42063e+08
1.42138e+08
1.43971e+08
1.44088e+08
1.45844e+08
1.45998e+08
1.47674e+08
1.4786e+08
1.49451e+08
1.49665e+08
1.51169e+08
1.51407e+08
1.52821e+08
1.53079e+08
1.54403e+08
1.54677e+08
1.5591e+08
1.56197e+08
1.57339e+08
1.57634e+08
1.58686e+08
1.58987e+08
1.59948e+08
1.60253e+08
1.61124e+08
1.61429e+08
1.62212e+08
1.62513e+08
1.63211e+08
1.63506e+08
1.64121e+08
1.64407e+08
1.64941e+08
1.65215e+08
1.65673e+08
1.6593e+08
1.6632e+08
1.66557e+08
1.66884e+08
1.67098e+08
1.67366e+08
1.67548e+08
1.67758e+08
1.67876e+08
1.33417e+08
1.29916e+08
1.28853e+08
1.25814e+08
1.24919e+08
1.22477e+08
1.22147e+08
1.20228e+08
1.20492e+08
1.1897e+08
1.19742e+08
1.18513e+08
1.19698e+08
1.18692e+08
1.20203e+08
1.19375e+08
1.21132e+08
1.20456e+08
1.22386e+08
1.21843e+08
1.23887e+08
1.23462e+08
1.25572e+08
1.25252e+08
1.27392e+08
1.27165e+08
1.29307e+08
1.29163e+08
1.31286e+08
1.31215e+08
1.33302e+08
1.33294e+08
1.35333e+08
1.35381e+08
1.3736e+08
1.37456e+08
1.3937e+08
1.39506e+08
1.41348e+08
1.41519e+08
1.43284e+08
1.43485e+08
1.45169e+08
1.45394e+08
1.46995e+08
1.4724e+08
1.48756e+08
1.49016e+08
1.50447e+08
1.50717e+08
1.52063e+08
1.5234e+08
1.53599e+08
1.5388e+08
1.55054e+08
1.55334e+08
1.56423e+08
1.567e+08
1.57705e+08
1.57976e+08
1.58897e+08
1.59159e+08
1.59999e+08
1.60249e+08
1.6101e+08
1.61244e+08
1.6193e+08
1.62143e+08
1.6276e+08
1.62948e+08
1.63501e+08
1.63658e+08
1.64157e+08
1.64275e+08
1.64728e+08
1.64799e+08
1.65215e+08
1.65225e+08
1.65612e+08
1.65532e+08
1.28412e+08
1.24735e+08
1.23901e+08
1.20631e+08
1.19995e+08
1.17382e+08
1.17328e+08
1.15295e+08
1.15828e+08
1.1424e+08
1.15256e+08
1.14004e+08
1.15401e+08
1.14409e+08
1.161e+08
1.15315e+08
1.17221e+08
1.16608e+08
1.18663e+08
1.18193e+08
1.20342e+08
1.19995e+08
1.22193e+08
1.21953e+08
1.24165e+08
1.24017e+08
1.26218e+08
1.26151e+08
1.28321e+08
1.28322e+08
1.30447e+08
1.30507e+08
1.32576e+08
1.32685e+08
1.34689e+08
1.3484e+08
1.36774e+08
1.36959e+08
1.38818e+08
1.3903e+08
1.40811e+08
1.41045e+08
1.42745e+08
1.42995e+08
1.44613e+08
1.44875e+08
1.4641e+08
1.46679e+08
1.4813e+08
1.48403e+08
1.4977e+08
1.50042e+08
1.51327e+08
1.51595e+08
1.52798e+08
1.53059e+08
1.5418e+08
1.5443e+08
1.55472e+08
1.55709e+08
1.56673e+08
1.56893e+08
1.57781e+08
1.57982e+08
1.58797e+08
1.58974e+08
1.59721e+08
1.59871e+08
1.60554e+08
1.60672e+08
1.61299e+08
1.61377e+08
1.61958e+08
1.61989e+08
1.62534e+08
1.62506e+08
1.6303e+08
1.62927e+08
1.63445e+08
1.63242e+08
1.22677e+08
1.18924e+08
1.18386e+08
1.14981e+08
1.14671e+08
1.11952e+08
1.12231e+08
1.10124e+08
1.10977e+08
1.09345e+08
1.10658e+08
1.09389e+08
1.11053e+08
1.10069e+08
1.11991e+08
1.11236e+08
1.1334e+08
1.12771e+08
1.14993e+08
1.14579e+08
1.16867e+08
1.16582e+08
1.18895e+08
1.1872e+08
1.21027e+08
1.20944e+08
1.23223e+08
1.23217e+08
1.25452e+08
1.25511e+08
1.27689e+08
1.27802e+08
1.29914e+08
1.30071e+08
1.32111e+08
1.32303e+08
1.34268e+08
1.34488e+08
1.36373e+08
1.36614e+08
1.38418e+08
1.38673e+08
1.40396e+08
1.40661e+08
1.42301e+08
1.4257e+08
1.44128e+08
1.44397e+08
1.45872e+08
1.46138e+08
1.47532e+08
1.47791e+08
1.49104e+08
1.49352e+08
1.50586e+08
1.50821e+08
1.51977e+08
1.52195e+08
1.53275e+08
1.53475e+08
1.5448e+08
1.54658e+08
1.55592e+08
1.55745e+08
1.56611e+08
1.56736e+08
1.57538e+08
1.5763e+08
1.58375e+08
1.5843e+08
1.59124e+08
1.59135e+08
1.5979e+08
1.59748e+08
1.60376e+08
1.6027e+08
1.60888e+08
1.60701e+08
1.61326e+08
1.6104e+08
1.16369e+08
1.12604e+08
1.124e+08
1.08933e+08
1.08991e+08
1.06225e+08
1.06873e+08
1.04735e+08
1.05943e+08
1.04297e+08
1.05942e+08
1.04675e+08
1.0664e+08
1.05672e+08
1.07863e+08
1.07136e+08
1.09474e+08
1.08942e+08
1.11364e+08
1.10994e+08
1.1345e+08
1.13214e+08
1.15667e+08
1.15542e+08
1.17967e+08
1.17933e+08
1.2031e+08
1.20351e+08
1.22667e+08
1.22769e+08
1.25015e+08
1.25166e+08
1.27336e+08
1.27525e+08
1.29615e+08
1.29833e+08
1.3184e+08
1.3208e+08
1.34004e+08
1.34258e+08
1.36097e+08
1.3636e+08
1.38115e+08
1.38381e+08
1.40052e+08
1.40317e+08
1.41905e+08
1.42164e+08
1.43671e+08
1.43921e+08
1.45347e+08
1.45584e+08
1.46931e+08
1.47153e+08
1.48423e+08
1.48626e+08
1.49821e+08
1.50003e+08
1.51125e+08
1.51283e+08
1.52334e+08
1.52467e+08
1.5345e+08
1.53554e+08
1.54473e+08
1.54545e+08
1.55405e+08
1.55441e+08
1.56248e+08
1.56243e+08
1.57006e+08
1.56953e+08
1.57682e+08
1.57573e+08
1.58283e+08
1.58106e+08
1.58814e+08
1.58555e+08
1.59277e+08
1.58924e+08
1.09605e+08
1.0587e+08
1.06026e+08
1.02553e+08
1.03005e+08
1.00242e+08
1.01285e+08
9.91573e+07
1.00744e+08
9.91153e+07
1.01115e+08
9.98726e+07
1.02163e+08
1.01226e+08
1.03709e+08
1.03017e+08
1.0561e+08
1.05118e+08
1.07761e+08
1.07432e+08
1.10076e+08
1.09881e+08
1.12495e+08
1.12409e+08
1.14969e+08
1.14973e+08
1.17464e+08
1.17539e+08
1.19951e+08
1.20082e+08
1.2241e+08
1.22585e+08
1.24825e+08
1.25033e+08
1.27184e+08
1.27415e+08
1.29476e+08
1.29723e+08
1.31695e+08
1.31951e+08
1.33834e+08
1.34092e+08
1.35889e+08
1.36145e+08
1.37856e+08
1.38106e+08
1.39733e+08
1.39972e+08
1.41518e+08
1.41742e+08
1.43209e+08
1.43416e+08
1.44805e+08
1.44992e+08
1.46305e+08
1.46471e+08
1.4771e+08
1.47851e+08
1.4902e+08
1.49134e+08
1.50235e+08
1.5032e+08
1.51357e+08
1.5141e+08
1.52386e+08
1.52404e+08
1.53325e+08
1.53305e+08
1.54178e+08
1.54114e+08
1.54947e+08
1.54833e+08
1.55638e+08
1.55464e+08
1.56255e+08
1.56012e+08
1.56806e+08
1.5648e+08
1.57293e+08
1.56877e+08
1.02477e+08
9.88046e+07
9.93346e+07
9.59025e+07
9.67635e+07
9.40506e+07
9.55003e+07
9.34246e+07
9.54018e+07
9.38258e+07
9.61922e+07
9.50024e+07
9.76302e+07
9.67441e+07
9.95293e+07
9.88864e+07
1.01747e+08
1.01301e+08
1.04176e+08
1.0389e+08
1.06735e+08
1.06579e+08
1.09364e+08
1.09313e+08
1.1202e+08
1.12052e+08
1.14669e+08
1.14767e+08
1.17288e+08
1.17437e+08
1.19858e+08
1.20045e+08
1.22366e+08
1.22581e+08
1.24803e+08
1.25035e+08
1.27159e+08
1.27401e+08
1.29431e+08
1.29676e+08
1.31613e+08
1.31856e+08
1.33703e+08
1.33938e+08
1.35698e+08
1.35922e+08
1.37597e+08
1.37806e+08
1.39399e+08
1.39591e+08
1.41104e+08
1.41275e+08