/*--------------------------------*- C++ -*----------------------------------*\
| =========                 |                                                 |
| \\      /  F ield         | OpenFOAM: The Open Source CFD Toolbox           |
|  \\    /   O peration     | Version:  v2012                                 |
|   \\  /    A nd           | Website:  www.openfoam.com                      |
|    \\/     M anipulation  |                                                 |
\*---------------------------------------------------------------------------*/
FoamFile
{
    version     2.0;
    format      ascii;
    class       volVectorField;
    location    "3";
    object      D_0;
}
// * * * * * * * * * * * * * * * * * * * * * * * * * * * * * * * * * * * * * //

dimensions      [0 1 0 0 0 0 0];


internalField   nonuniform List<vector> 
16000
(
(1.02942e-05 -0.000543212 0)
(1.00148e-05 -0.000548634 0)
(9.75307e-06 -0.000553571 0)
(9.50855e-06 -0.000558342 0)
(9.2798e-06 -0.000562736 0)
(9.06554e-06 -0.000566964 0)
(8.86508e-06 -0.000570895 0)
(8.67707e-06 -0.000574669 0)
(8.50105e-06 -0.000578207 0)
(8.33582e-06 -0.000581601 0)
(8.181e-06 -0.000584806 0)
(8.03559e-06 -0.000587882 0)
(7.89921e-06 -0.000590804 0)
(7.77107e-06 -0.000593612 0)
(7.65078e-06 -0.000596296 0)
(7.53771e-06 -0.000598879 0)
(7.43146e-06 -0.00060136 0)
(7.33155e-06 -0.000603755 0)
(7.23757e-06 -0.000606065 0)
(7.14914e-06 -0.000608302 0)
(7.06587e-06 -0.000610469 0)
(6.98747e-06 -0.000612574 0)
(6.91351e-06 -0.000614621 0)
(6.84382e-06 -0.000616615 0)
(6.77793e-06 -0.000618561 0)
(6.71577e-06 -0.000620464 0)
(6.65683e-06 -0.000622326 0)
(6.6011e-06 -0.000624152 0)
(6.54813e-06 -0.000625945 0)
(6.4978e-06 -0.000627709 0)
(6.44994e-06 -0.000629445 0)
(6.40412e-06 -0.000631156 0)
(6.36062e-06 -0.000632845 0)
(6.31863e-06 -0.000634514 0)
(6.27871e-06 -0.000636166 0)
(6.23987e-06 -0.0006378 0)
(6.20282e-06 -0.000639421 0)
(6.16637e-06 -0.000641027 0)
(6.13162e-06 -0.000642623 0)
(6.09668e-06 -0.000644207 0)
(3.08772e-05 -0.00054284 0)
(3.004e-05 -0.000548233 0)
(2.92559e-05 -0.000553144 0)
(2.85234e-05 -0.00055789 0)
(2.7838e-05 -0.00056226 0)
(2.71961e-05 -0.000566466 0)
(2.65955e-05 -0.000570377 0)
(2.60322e-05 -0.000574132 0)
(2.55048e-05 -0.000577652 0)
(2.50097e-05 -0.000581029 0)
(2.45458e-05 -0.000584218 0)
(2.41101e-05 -0.000587278 0)
(2.37014e-05 -0.000590186 0)
(2.33174e-05 -0.00059298 0)
(2.29568e-05 -0.00059565 0)
(2.26179e-05 -0.000598221 0)
(2.22995e-05 -0.00060069 0)
(2.19999e-05 -0.000603073 0)
(2.17181e-05 -0.000605372 0)
(2.14529e-05 -0.000607598 0)
(2.12032e-05 -0.000609754 0)
(2.09678e-05 -0.000611849 0)
(2.0746e-05 -0.000613885 0)
(2.05367e-05 -0.00061587 0)
(2.0339e-05 -0.000617807 0)
(2.01523e-05 -0.0006197 0)
(1.99754e-05 -0.000621553 0)
(1.98083e-05 -0.00062337 0)
(1.96491e-05 -0.000625155 0)
(1.9499e-05 -0.000626909 0)
(1.93551e-05 -0.000628637 0)
(1.92193e-05 -0.000630339 0)
(1.90886e-05 -0.00063202 0)
(1.89643e-05 -0.000633681 0)
(1.88446e-05 -0.000635324 0)
(1.87293e-05 -0.00063695 0)
(1.86183e-05 -0.000638562 0)
(1.85098e-05 -0.00064016 0)
(1.84057e-05 -0.000641747 0)
(1.83014e-05 -0.000643323 0)
(5.14433e-05 -0.000542097 0)
(5.0052e-05 -0.000547433 0)
(4.87488e-05 -0.000552291 0)
(4.75312e-05 -0.000556988 0)
(4.6392e-05 -0.000561312 0)
(4.53249e-05 -0.000565474 0)
(4.43265e-05 -0.000569344 0)
(4.339e-05 -0.00057306 0)
(4.25131e-05 -0.000576545 0)
(4.169e-05 -0.000579887 0)
(4.09186e-05 -0.000583044 0)
(4.01942e-05 -0.000586073 0)
(3.95146e-05 -0.000588952 0)
(3.88761e-05 -0.000591719 0)
(3.82766e-05 -0.000594362 0)
(3.7713e-05 -0.000596907 0)
(3.71835e-05 -0.000599352 0)
(3.66854e-05 -0.000601712 0)
(3.62169e-05 -0.000603988 0)
(3.5776e-05 -0.000606193 0)
(3.53608e-05 -0.000608328 0)
(3.49697e-05 -0.000610402 0)
(3.4601e-05 -0.000612419 0)
(3.42533e-05 -0.000614385 0)
(3.39248e-05 -0.000616302 0)
(3.36148e-05 -0.000618177 0)
(3.33209e-05 -0.000620012 0)
(3.30434e-05 -0.000621811 0)
(3.27791e-05 -0.000623578 0)
(3.25291e-05 -0.000625315 0)
(3.22902e-05 -0.000627025 0)
(3.20628e-05 -0.00062871 0)
(3.18463e-05 -0.000630374 0)
(3.16382e-05 -0.000632017 0)
(3.14397e-05 -0.000633644 0)
(3.12472e-05 -0.000635252 0)
(3.10632e-05 -0.000636848 0)
(3.08825e-05 -0.000638429 0)
(3.07099e-05 -0.00064 0)
(3.05367e-05 -0.000641558 0)
(7.19817e-05 -0.000540985 0)
(7.0042e-05 -0.000546236 0)
(6.82252e-05 -0.000551015 0)
(6.65275e-05 -0.000555637 0)
(6.49389e-05 -0.000559892 0)
(6.34509e-05 -0.00056399 0)
(6.20584e-05 -0.000567799 0)
(6.07523e-05 -0.000571458 0)
(5.95292e-05 -0.000574889 0)
(5.8381e-05 -0.00057818 0)
(5.7305e-05 -0.000581289 0)
(5.62943e-05 -0.000584272 0)
(5.53463e-05 -0.000587108 0)
(5.44554e-05 -0.000589832 0)
(5.3619e-05 -0.000592437 0)
(5.28326e-05 -0.000594944 0)
(5.20937e-05 -0.000597352 0)
(5.13986e-05 -0.000599677 0)
(5.07449e-05 -0.00060192 0)
(5.01294e-05 -0.000604092 0)
(4.95501e-05 -0.000606195 0)
(4.9004e-05 -0.000608239 0)
(4.84895e-05 -0.000610226 0)
(4.80038e-05 -0.000612162 0)
(4.75454e-05 -0.000614051 0)
(4.71122e-05 -0.000615898 0)
(4.67019e-05 -0.000617706 0)
(4.63142e-05 -0.000619479 0)
(4.59445e-05 -0.000621219 0)
(4.55969e-05 -0.00062293 0)
(4.52611e-05 -0.000624615 0)
(4.49485e-05 -0.000626274 0)
(4.46453e-05 -0.000627913 0)
(4.43579e-05 -0.000629531 0)
(4.4081e-05 -0.000631132 0)
(4.38141e-05 -0.000632716 0)
(4.35577e-05 -0.000634286 0)
(4.33066e-05 -0.000635843 0)
(4.30664e-05 -0.000637388 0)
(4.28256e-05 -0.000638921 0)
(9.24812e-05 -0.000539507 0)
(9.00013e-05 -0.000544646 0)
(8.76783e-05 -0.00054932 0)
(8.55074e-05 -0.000553844 0)
(8.34758e-05 -0.000558008 0)
(8.15725e-05 -0.000562019 0)
(7.97914e-05 -0.000565748 0)
(7.81204e-05 -0.000569331 0)
(7.65557e-05 -0.00057269 0)
(7.50866e-05 -0.000575914 0)
(7.37098e-05 -0.000578959 0)
(7.24164e-05 -0.000581881 0)
(7.12031e-05 -0.00058466 0)
(7.0063e-05 -0.000587329 0)
(6.89924e-05 -0.000589881 0)
(6.79859e-05 -0.000592338 0)
(6.70401e-05 -0.000594698 0)
(6.61503e-05 -0.000596977 0)
(6.53135e-05 -0.000599175 0)
(6.45258e-05 -0.000601304 0)
(6.37842e-05 -0.000603366 0)
(6.30856e-05 -0.000605369 0)
(6.24269e-05 -0.000607317 0)
(6.18061e-05 -0.000609215 0)
(6.12194e-05 -0.000611067 0)
(6.06664e-05 -0.000612878 0)
(6.01413e-05 -0.000614649 0)
(5.96474e-05 -0.000616388 0)
(5.91744e-05 -0.000618092 0)
(5.87306e-05 -0.00061977 0)
(5.83022e-05 -0.000621419 0)
(5.78947e-05 -0.000623043 0)
(5.75111e-05 -0.00062465 0)
(5.71393e-05 -0.000626234 0)
(5.67876e-05 -0.000627803 0)
(5.6445e-05 -0.000629354 0)
(5.61185e-05 -0.000630892 0)
(5.57978e-05 -0.000632414 0)
(5.54918e-05 -0.000633927 0)
(5.51852e-05 -0.000635427 0)
(0.000112931 -0.000537668 0)
(0.000109921 -0.000542666 0)
(0.000107101 -0.000547212 0)
(0.000104466 -0.000551614 0)
(0.000101999 -0.000555665 0)
(9.96884e-05 -0.000559569 0)
(9.75253e-05 -0.000563199 0)
(9.54959e-05 -0.000566687 0)
(9.35953e-05 -0.000569958 0)
(9.18107e-05 -0.000573098 0)
(9.01379e-05 -0.000576063 0)
(8.85665e-05 -0.000578911 0)
(8.70922e-05 -0.000581617 0)
(8.57066e-05 -0.000584219 0)
(8.44056e-05 -0.000586706 0)
(8.31823e-05 -0.000589101 0)
(8.20327e-05 -0.000591401 0)
(8.09512e-05 -0.000593622 0)
(7.99341e-05 -0.000595765 0)
(7.89765e-05 -0.000597841 0)
(7.80752e-05 -0.000599851 0)
(7.72256e-05 -0.000601804 0)
(7.64255e-05 -0.000603703 0)
(7.56698e-05 -0.000605553 0)
(7.49578e-05 -0.000607358 0)
(7.42833e-05 -0.000609123 0)
(7.3647e-05 -0.000610848 0)
(7.30431e-05 -0.000612544 0)
(7.24687e-05 -0.000614201 0)
(7.19282e-05 -0.00061584 0)
(7.13939e-05 -0.000617443 0)
(7.09215e-05 -0.000619033 0)
(7.04518e-05 -0.000620592 0)
(7.00062e-05 -0.000622141 0)
(6.95787e-05 -0.000623665 0)
(6.91642e-05 -0.000625178 0)
(6.87685e-05 -0.000626673 0)
(6.83799e-05 -0.000628156 0)
(6.80096e-05 -0.000629628 0)
(6.76386e-05 -0.000631086 0)
(0.000133319 -0.000535473 0)
(0.000129793 -0.000540305 0)
(0.000126488 -0.000544697 0)
(0.000123399 -0.000548954 0)
(0.000120507 -0.00055287 0)
(0.000117797 -0.000556648 0)
(0.00011526 -0.000560159 0)
(0.00011288 -0.000563535 0)
(0.00011065 -0.000566701 0)
(0.000108556 -0.000569741 0)
(0.000106594 -0.000572613 0)
(0.00010475 -0.00057537 0)
(0.000103019 -0.000577992 0)
(0.000101393 -0.000580513 0)
(9.98658e-05 -0.000582922 0)
(9.84299e-05 -0.000585243 0)
(9.70802e-05 -0.000587473 0)
(9.58106e-05 -0.000589626 0)
(9.46163e-05 -0.000591703 0)
(9.3492e-05 -0.000593715 0)
(9.24336e-05 -0.000595664 0)
(9.14363e-05 -0.000597557 0)
(9.04965e-05 -0.000599399 0)
(8.96101e-05 -0.00060119 0)
(8.87735e-05 -0.000602943 0)
(8.79843e-05 -0.00060465 0)
(8.72363e-05 -0.000606328 0)
(8.65339e-05 -0.000607963 0)
(8.58589e-05 -0.000609582 0)
(8.52401e-05 -0.000611157 0)
(8.46169e-05 -0.000612726 0)
(8.4023e-05 -0.000614271 0)
(8.34915e-05 -0.000615777 0)
(8.29618e-05 -0.00061728 0)
(8.24647e-05 -0.000618752 0)
(8.198e-05 -0.000620217 0)
(8.15172e-05 -0.000621662 0)
(8.10647e-05 -0.000623097 0)
(8.06318e-05 -0.000624519 0)
(8.02004e-05 -0.000625929 0)
(0.000153637 -0.000532927 0)
(0.000149607 -0.000537567 0)
(0.000145831 -0.000541782 0)
(0.0001423 -0.000545873 0)
(0.000138994 -0.000549635 0)
(0.000135896 -0.000553266 0)
(0.000132995 -0.000556641 0)
(0.000130272 -0.000559888 0)
(0.000127722 -0.000562932 0)
(0.000125327 -0.000565858 0)
(0.000123081 -0.000568621 0)
(0.000120971 -0.000571275 0)
(0.00011899 -0.000573799 0)
(0.000117129 -0.000576226 0)
(0.000115381 -0.000578547 0)
(0.000113737 -0.000580783 0)
(0.000112192 -0.000582931 0)
(0.000110738 -0.000585005 0)
(0.00010937 -0.000587008 0)
(0.000108083 -0.000588947 0)
(0.000106871 -0.000590826 0)
(0.000105729 -0.000592651 0)
(0.000104653 -0.000594426 0)
(0.000103638 -0.000596155 0)
(0.000102679 -0.000597844 0)
(0.000101776 -0.000599492 0)
(0.00010092 -0.000601108 0)
(0.000100112 -0.000602688 0)
(9.93483e-05 -0.000604245 0)
(9.86198e-05 -0.000605766 0)
(9.79478e-05 -0.000607273 0)
(9.72708e-05 -0.000608745 0)
(9.6646e-05 -0.000610209 0)
(9.60435e-05 -0.000611643 0)
(9.54692e-05 -0.000613069 0)
(9.49178e-05 -0.000614472 0)
(9.43878e-05 -0.000615867 0)
(9.38733e-05 -0.000617243 0)
(9.33799e-05 -0.000618613 0)
(9.28902e-05 -0.000619966 0)
(0.000173872 -0.000530037 0)
(0.000169356 -0.000534462 0)
(0.000165123 -0.000538478 0)
(0.000161165 -0.000542381 0)
(0.000157458 -0.000545968 0)
(0.000153983 -0.000549435 0)
(0.000150729 -0.000552656 0)
(0.000147674 -0.000555757 0)
(0.000144812 -0.000558665 0)
(0.000142124 -0.00056146 0)
(0.000139603 -0.000564101 0)
(0.000137234 -0.000566639 0)
(0.000135011 -0.000569053 0)
(0.00013292 -0.000571374 0)
(0.000130957 -0.000573594 0)
(0.000129111 -0.000575734 0)
(0.000127375 -0.00057779 0)
(0.000125742 -0.000579776 0)
(0.000124206 -0.000581692 0)
(0.00012276 -0.000583549 0)
(0.000121398 -0.000585348 0)
(0.000120116 -0.000587096 0)
(0.000118907 -0.000588796 0)
(0.000117767 -0.000590452 0)
(0.000116691 -0.000592068 0)
(0.000115676 -0.000593648 0)
(0.000114714 -0.000595194 0)
(0.000113808 -0.00059671 0)
(0.000112945 -0.000598195 0)
(0.000112131 -0.000599658 0)
(0.000111353 -0.000601093 0)
(0.000110613 -0.000602506 0)
(0.000109913 -0.000603903 0)
(0.00010924 -0.000605278 0)
(0.000108601 -0.000606641 0)
(0.000107984 -0.000607985 0)
(0.000107394 -0.000609318 0)
(0.000106819 -0.000610633 0)
(0.00010627 -0.000611942 0)
(0.000105724 -0.000613233 0)
(0.000194014 -0.000526812 0)
(0.000189031 -0.000530999 0)
(0.000184358 -0.000534794 0)
(0.000179988 -0.00053849 0)
(0.000175894 -0.000541884 0)
(0.000172055 -0.000545168 0)
(0.00016846 -0.000548218 0)
(0.000165085 -0.000551158 0)
(0.000161922 -0.000553915 0)
(0.00015895 -0.000556566 0)
(0.000156163 -0.000559072 0)
(0.000153543 -0.000561481 0)
(0.000151084 -0.000563772 0)
(0.000148772 -0.000565977 0)
(0.0001466 -0.000568086 0)
(0.000144557 -0.000570118 0)
(0.000142637 -0.000572072 0)
(0.00014083 -0.00057396 0)
(0.00013913 -0.000575783 0)
(0.00013753 -0.000577548 0)
(0.000136023 -0.000579259 0)
(0.000134604 -0.000580922 0)
(0.000133266 -0.000582539 0)
(0.000132004 -0.000584115 0)
(0.000130814 -0.000585652 0)
(0.000129691 -0.000587155 0)
(0.000128629 -0.000588625 0)
(0.000127625 -0.000590066 0)
(0.000126675 -0.00059148 0)
(0.000125772 -0.000592868 0)
(0.00012492 -0.000594235 0)
(0.000124102 -0.000595579 0)
(0.000123329 -0.000596906 0)
(0.000122587 -0.000598213 0)
(0.00012188 -0.000599507 0)
(0.0001212 -0.000600782 0)
(0.00012055 -0.000602048 0)
(0.000119918 -0.000603295 0)
(0.000119315 -0.000604537 0)
(0.000118717 -0.000605759 0)
(0.000214053 -0.000523259 0)
(0.000208623 -0.000527186 0)
(0.000203529 -0.000530742 0)
(0.000198763 -0.00053421 0)
(0.000194298 -0.000537394 0)
(0.000190111 -0.000540479 0)
(0.000186188 -0.000543343 0)
(0.000182504 -0.000546107 0)
(0.000179051 -0.000548698 0)
(0.000175806 -0.000551192 0)
(0.000172762 -0.000553549 0)
(0.000169901 -0.000555817 0)
(0.000167215 -0.000557975 0)
(0.000164689 -0.000560052 0)
(0.000162316 -0.000562039 0)
(0.000160083 -0.000563955 0)
(0.000157984 -0.000565797 0)
(0.000156009 -0.000567578 0)
(0.000154151 -0.000569297 0)
(0.000152402 -0.000570963 0)
(0.000150755 -0.000572578 0)
(0.000149203 -0.000574148 0)
(0.00014774 -0.000575674 0)
(0.000146361 -0.000577162 0)
(0.00014506 -0.000578613 0)
(0.000143832 -0.000580032 0)
(0.00014267 -0.00058142 0)
(0.000141574 -0.000582781 0)
(0.000140533 -0.000584115 0)
(0.00013955 -0.000585426 0)
(0.000138613 -0.000586715 0)
(0.000137728 -0.000587984 0)
(0.000136883 -0.000589235 0)
(0.000136078 -0.000590468 0)
(0.00013531 -0.000591688 0)
(0.000134572 -0.000592889 0)
(0.000133866 -0.000594082 0)
(0.000133182 -0.000595257 0)
(0.000132528 -0.000596427 0)
(0.000131882 -0.000597576 0)
(0.000233979 -0.000519388 0)
(0.000228123 -0.000523036 0)
(0.000222628 -0.000526333 0)
(0.000217486 -0.000529557 0)
(0.000212666 -0.000532513 0)
(0.000208145 -0.000535383 0)
(0.000203909 -0.000538047 0)
(0.00019993 -0.000540621 0)
(0.000196199 -0.000543033 0)
(0.000192693 -0.000545358 0)
(0.000189403 -0.000547555 0)
(0.00018631 -0.00054967 0)
(0.000183405 -0.000551683 0)
(0.000180674 -0.000553623 0)
(0.000178107 -0.000555478 0)
(0.000175692 -0.000557269 0)
(0.000173422 -0.000558991 0)
(0.000171285 -0.000560656 0)
(0.000169274 -0.000562263 0)
(0.000167381 -0.000563822 0)
(0.000165599 -0.000565333 0)
(0.00016392 -0.000566802 0)
(0.000162337 -0.000568231 0)
(0.000160846 -0.000569624 0)
(0.000159438 -0.000570984 0)
(0.000158111 -0.000572312 0)
(0.000156856 -0.000573612 0)
(0.000155671 -0.000574887 0)
(0.000154547 -0.000576136 0)
(0.000153485 -0.000577365 0)
(0.000152476 -0.000578571 0)
(0.000151516 -0.000579756 0)
(0.000150607 -0.000580929 0)
(0.000149737 -0.000582081 0)
(0.00014891 -0.000583223 0)
(0.000148115 -0.000584346 0)
(0.000147357 -0.000585461 0)
(0.000146622 -0.000586557 0)
(0.000145921 -0.000587651 0)
(0.00014523 -0.000588721 0)
(0.000253782 -0.000515209 0)
(0.000247523 -0.000518559 0)
(0.000241648 -0.00052158 0)
(0.000236149 -0.000524543 0)
(0.000230993 -0.000527257 0)
(0.000226156 -0.000529898 0)
(0.000221621 -0.000532347 0)
(0.000217361 -0.000534717 0)
(0.000213366 -0.000536939 0)
(0.00020961 -0.000539082 0)
(0.000206086 -0.000541108 0)
(0.000202771 -0.000543061 0)
(0.000199658 -0.000544919 0)
(0.00019673 -0.000546711 0)
(0.000193978 -0.000548427 0)
(0.000191389 -0.000550083 0)
(0.000188954 -0.000551676 0)
(0.000186662 -0.000553217 0)
(0.000184505 -0.000554706 0)
(0.000182475 -0.00055615 0)
(0.000180563 -0.00055755 0)
(0.000178761 -0.000558912 0)
(0.000177064 -0.000560237 0)
(0.000175464 -0.000561529 0)
(0.000173955 -0.000562789 0)
(0.00017253 -0.000564022 0)
(0.000171185 -0.000565227 0)
(0.000169912 -0.00056641 0)
(0.000168707 -0.000567566 0)
(0.00016757 -0.000568708 0)
(0.000166476 -0.000569822 0)
(0.000165467 -0.000570929 0)
(0.000164492 -0.000572012 0)
(0.000163567 -0.000573084 0)
(0.000162685 -0.00057414 0)
(0.000161838 -0.000575182 0)
(0.000161031 -0.000576214 0)
(0.00016025 -0.000577228 0)
(0.000159505 -0.00057824 0)
(0.000158773 -0.000579229 0)
(0.000273452 -0.000510732 0)
(0.000266815 -0.000513767 0)
(0.000260582 -0.000516496 0)
(0.000254747 -0.000519184 0)
(0.000249273 -0.000521642 0)
(0.000244137 -0.00052404 0)
(0.000239321 -0.000526262 0)
(0.000234795 -0.000528417 0)
(0.000230549 -0.000530436 0)
(0.000226557 -0.000532388 0)
(0.00022281 -0.000534232 0)
(0.000219285 -0.000536013 0)
(0.000215974 -0.000537707 0)
(0.000212859 -0.000539343 0)
(0.000209931 -0.000540909 0)
(0.000207175 -0.000542423 0)
(0.000204584 -0.000543879 0)
(0.000202144 -0.00054529 0)
(0.000199848 -0.000546653 0)
(0.000197687 -0.000547975 0)
(0.000195651 -0.000549258 0)
(0.000193733 -0.000550506 0)
(0.000191927 -0.000551721 0)
(0.000190223 -0.000552905 0)
(0.000188617 -0.000554063 0)
(0.000187102 -0.000555192 0)
(0.00018567 -0.000556302 0)
(0.000184322 -0.000557383 0)
(0.00018304 -0.000558452 0)
(0.00018184 -0.000559494 0)
(0.000180682 -0.000560527 0)
(0.000179583 -0.000561542 0)
(0.000178561 -0.000562536 0)
(0.000177575 -0.000563521 0)
(0.000176643 -0.000564487 0)
(0.000175748 -0.000565442 0)
(0.000174895 -0.000566387 0)
(0.000174071 -0.000567315 0)
(0.000173287 -0.000568241 0)
(0.000172518 -0.000569144 0)
(0.000292979 -0.000505968 0)
(0.000285989 -0.000508673 0)
(0.000279423 -0.000511097 0)
(0.000273273 -0.000513496 0)
(0.000267502 -0.000515684 0)
(0.000262086 -0.000517827 0)
(0.000257004 -0.000519811 0)
(0.000252229 -0.00052174 0)
(0.000247747 -0.000523547 0)
(0.000243532 -0.000525296 0)
(0.000239575 -0.00052695 0)
(0.000235852 -0.000528549 0)
(0.000232353 -0.000530072 0)
(0.000229061 -0.000531543 0)
(0.000225966 -0.000532953 0)
(0.000223054 -0.000534317 0)
(0.000220313 -0.00053563 0)
(0.000217734 -0.000536902 0)
(0.000215306 -0.000538133 0)
(0.00021302 -0.000539328 0)
(0.000210866 -0.000540489 0)
(0.000208838 -0.000541618 0)
(0.000206927 -0.000542718 0)
(0.000205126 -0.000543791 0)
(0.000203426 -0.00054484 0)
(0.000201825 -0.000545865 0)
(0.000200311 -0.000546871 0)
(0.000198884 -0.000547853 0)
(0.000197536 -0.000548822 0)
(0.000196257 -0.000549767 0)
(0.000195063 -0.000550706 0)
(0.000193901 -0.000551616 0)
(0.000192815 -0.000552524 0)
(0.000191778 -0.000553408 0)
(0.000190793 -0.000554289 0)
(0.000189854 -0.00055515 0)
(0.000188957 -0.000556009 0)
(0.000188095 -0.000556846 0)
(0.000187273 -0.000557687 0)
(0.000186472 -0.000558501 0)
(0.000312355 -0.000500929 0)
(0.000305038 -0.000503291 0)
(0.000298162 -0.000505396 0)
(0.00029172 -0.000507494 0)
(0.000285674 -0.000509401 0)
(0.000279996 -0.000511279 0)
(0.000274668 -0.000513014 0)
(0.000269659 -0.000514707 0)
(0.000264957 -0.000516292 0)
(0.000260533 -0.000517831 0)
(0.000256379 -0.000519286 0)
(0.00025247 -0.000520695 0)
(0.000248795 -0.000522038 0)
(0.000245338 -0.000523337 0)
(0.000242086 -0.000524584 0)
(0.000239025 -0.000525791 0)
(0.000236145 -0.000526955 0)
(0.000233433 -0.000528084 0)
(0.000230881 -0.000529176 0)
(0.000228478 -0.000530238 0)
(0.000226214 -0.000531271 0)
(0.000224082 -0.000532276 0)
(0.000222073 -0.000533256 0)
(0.000220179 -0.000534213 0)
(0.000218394 -0.000535148 0)
(0.00021671 -0.000536063 0)
(0.000215121 -0.00053696 0)
(0.00021362 -0.000537839 0)
(0.000212202 -0.000538701 0)
(0.000210862 -0.00053955 0)
(0.000209592 -0.000540382 0)
(0.000208388 -0.000541198 0)
(0.00020725 -0.000542009 0)
(0.000206167 -0.0005428 0)
(0.000205139 -0.000543588 0)
(0.000204157 -0.000544357 0)
(0.000203223 -0.000545125 0)
(0.000202326 -0.000545871 0)
(0.000201472 -0.000546622 0)
(0.000200641 -0.000547345 0)
(0.000331569 -0.000495627 0)
(0.000323954 -0.000497633 0)
(0.000316794 -0.000499409 0)
(0.000310083 -0.000501195 0)
(0.000303781 -0.000502812 0)
(0.000297862 -0.000504414 0)
(0.000292306 -0.000505891 0)
(0.000287081 -0.00050734 0)
(0.000282174 -0.000508695 0)
(0.000277557 -0.000510015 0)
(0.00027322 -0.000511263 0)
(0.000269137 -0.000512476 0)
(0.000265299 -0.000513632 0)
(0.000261686 -0.000514754 0)
(0.000258287 -0.000515831 0)
(0.000255088 -0.000516875 0)
(0.000252077 -0.000517884 0)
(0.000249242 -0.000518864 0)
(0.000246573 -0.000519813 0)
(0.00024406 -0.000520737 0)
(0.000241692 -0.000521637 0)
(0.000239462 -0.000522513 0)
(0.000237361 -0.00052337 0)
(0.000235381 -0.000524205 0)
(0.000233514 -0.000525024 0)
(0.000231753 -0.000525825 0)
(0.000230092 -0.000526611 0)
(0.000228524 -0.000527381 0)
(0.000227045 -0.000528139 0)
(0.000225644 -0.000528882 0)
(0.000224324 -0.000529614 0)
(0.000223068 -0.000530332 0)
(0.000221882 -0.000531043 0)
(0.000220754 -0.000531738 0)
(0.000219685 -0.000532429 0)
(0.000218666 -0.000533103 0)
(0.000217696 -0.000533777 0)
(0.000216768 -0.00053443 0)
(0.000215884 -0.000535089 0)
(0.000215027 -0.00053572 0)
(0.000350615 -0.000490072 0)
(0.000342728 -0.000491714 0)
(0.000335309 -0.000493151 0)
(0.000328354 -0.000494616 0)
(0.000321819 -0.000495934 0)
(0.00031568 -0.000497253 0)
(0.000309914 -0.000498464 0)
(0.00030449 -0.000499661 0)
(0.000299396 -0.000500778 0)
(0.0002946 -0.000501873 0)
(0.000290094 -0.000502908 0)
(0.000285851 -0.000503918 0)
(0.000281861 -0.000504882 0)
(0.000278105 -0.00050582 0)
(0.00027457 -0.000506721 0)
(0.000271242 -0.000507599 0)
(0.00026811 -0.000508447 0)
(0.000265161 -0.000509273 0)
(0.000262383 -0.000510075 0)
(0.000259767 -0.000510858 0)
(0.000257304 -0.00051162 0)
(0.000254983 -0.000512365 0)
(0.000252797 -0.000513093 0)
(0.000250735 -0.000513805 0)
(0.000248794 -0.000514504 0)
(0.000246961 -0.000515188 0)
(0.000245236 -0.000515861 0)
(0.000243602 -0.000516519 0)
(0.000242064 -0.000517168 0)
(0.000240609 -0.000517804 0)
(0.000239235 -0.000518432 0)
(0.000237934 -0.000519047 0)
(0.000236703 -0.000519657 0)
(0.000235536 -0.000520254 0)
(0.000234429 -0.000520848 0)
(0.000233377 -0.000521425 0)
(0.000232377 -0.000522005 0)
(0.000231421 -0.000522563 0)
(0.000230511 -0.00052313 0)
(0.000229633 -0.000523668 0)
(0.000369482 -0.000484278 0)
(0.000361352 -0.000485547 0)
(0.000353701 -0.000486638 0)
(0.000346525 -0.000487775 0)
(0.000339781 -0.000488787 0)
(0.000333442 -0.000489815 0)
(0.000327486 -0.000490754 0)
(0.000321882 -0.000491692 0)
(0.000316616 -0.000492567 0)
(0.000311658 -0.00049343 0)
(0.000306997 -0.000494247 0)
(0.000302607 -0.000495048 0)
(0.000298479 -0.000495814 0)
(0.00029459 -0.000496564 0)
(0.000290931 -0.000497286 0)
(0.000287485 -0.000497991 0)
(0.000284241 -0.000498675 0)
(0.000281185 -0.000499343 0)
(0.000278308 -0.000499994 0)
(0.000275598 -0.000500631 0)
(0.000273045 -0.000501253 0)
(0.00027064 -0.000501862 0)
(0.000268374 -0.000502459 0)
(0.000266238 -0.000503044 0)
(0.000264226 -0.00050362 0)
(0.000262328 -0.000504183 0)
(0.000260539 -0.000504741 0)
(0.00025885 -0.000505288 0)
(0.000257259 -0.000505825 0)
(0.000255754 -0.000506355 0)
(0.000254334 -0.000506876 0)
(0.000252991 -0.000507389 0)
(0.000251721 -0.000507897 0)
(0.000250518 -0.000508394 0)
(0.000249377 -0.000508889 0)
(0.000248295 -0.000509369 0)
(0.000247267 -0.000509853 0)
(0.000246287 -0.000510316 0)
(0.000245355 -0.00051079 0)
(0.000244459 -0.000511234 0)
(0.000388163 -0.000478257 0)
(0.000379819 -0.000479147 0)
(0.000371962 -0.000479886 0)
(0.00036459 -0.000480689 0)
(0.000357659 -0.000481389 0)
(0.000351141 -0.00048212 0)
(0.000345015 -0.000482782 0)
(0.000339249 -0.000483457 0)
(0.000333829 -0.000484083 0)
(0.000328724 -0.00048471 0)
(0.000323924 -0.000485304 0)
(0.000319402 -0.000485892 0)
(0.000315147 -0.000486457 0)
(0.000311139 -0.000487014 0)
(0.000307367 -0.000487552 0)
(0.000303813 -0.000488082 0)
(0.000300467 -0.000488598 0)
(0.000297315 -0.000489106 0)
(0.000294346 -0.000489602 0)
(0.000291549 -0.00049009 0)
(0.000288915 -0.000490569 0)
(0.000286433 -0.000491041 0)
(0.000284095 -0.000491505 0)
(0.000281891 -0.000491962 0)
(0.000279818 -0.000492413 0)
(0.000277858 -0.000492856 0)
(0.000276027 -0.000493299 0)
(0.000274272 -0.000493724 0)
(0.000272633 -0.000494152 0)
(0.00027108 -0.00049457 0)
(0.000269618 -0.000494986 0)
(0.000268236 -0.000495393 0)
(0.000266929 -0.000495799 0)
(0.000265694 -0.000496194 0)
(0.000264524 -0.000496591 0)
(0.000263416 -0.000496973 0)
(0.000262364 -0.000497361 0)
(0.000261364 -0.000497729 0)
(0.000260413 -0.00049811 0)
(0.000259503 -0.000498461 0)
(0.00040665 -0.000472022 0)
(0.000398121 -0.000472528 0)
(0.000390085 -0.00047291 0)
(0.000382542 -0.000473374 0)
(0.000375446 -0.000473758 0)
(0.000368772 -0.00047419 0)
(0.000362496 -0.00047457 0)
(0.000356587 -0.000474977 0)
(0.000351029 -0.000475351 0)
(0.000345794 -0.000475738 0)
(0.000340869 -0.000476105 0)
(0.000336229 -0.000476478 0)
(0.000331861 -0.000476837 0)
(0.000327746 -0.000477198 0)
(0.000323872 -0.00047755 0)
(0.000320221 -0.000477902 0)
(0.000316783 -0.000478247 0)
(0.000313544 -0.000478592 0)
(0.000310492 -0.000478931 0)
(0.000307617 -0.000479269 0)
(0.000304909 -0.000479603 0)
(0.000302357 -0.000479935 0)
(0.000299954 -0.000480263 0)
(0.000297688 -0.000480591 0)
(0.000295554 -0.000480913 0)
(0.000293542 -0.000481234 0)
(0.000291646 -0.000481552 0)
(0.000289859 -0.000481867 0)
(0.000288173 -0.00048218 0)
(0.000286584 -0.000482488 0)
(0.000285083 -0.000482798 0)
(0.000283668 -0.0004831 0)
(0.00028233 -0.000483403 0)
(0.000281067 -0.000483698 0)
(0.000279871 -0.000483996 0)
(0.00027874 -0.000484281 0)
(0.000277667 -0.000484573 0)
(0.00027665 -0.000484846 0)
(0.000275683 -0.000485135 0)
(0.000274762 -0.000485392 0)
(0.000424936 -0.000465584 0)
(0.000416249 -0.000465704 0)
(0.000408061 -0.000465727 0)
(0.000400372 -0.00046585 0)
(0.000393135 -0.000465915 0)
(0.000386326 -0.000466043 0)
(0.00037992 -0.000466139 0)
(0.000373887 -0.000466275 0)
(0.00036821 -0.000466394 0)
(0.000362861 -0.000466539 0)
(0.000357827 -0.000466676 0)
(0.000353082 -0.00046683 0)
(0.000348615 -0.000466982 0)
(0.000344405 -0.000467145 0)
(0.000340441 -0.000467308 0)
(0.000336704 -0.00046748 0)
(0.000333185 -0.000467653 0)
(0.000329868 -0.000467831 0)
(0.000326743 -0.000468012 0)
(0.000323799 -0.000468197 0)
(0.000321025 -0.000468385 0)
(0.000318411 -0.000468575 0)
(0.000315947 -0.000468767 0)
(0.000313627 -0.000468962 0)
(0.000311437 -0.000469157 0)
(0.00030938 -0.000469356 0)
(0.000307423 -0.000469549 0)
(0.000305609 -0.000469754 0)
(0.000303881 -0.000469953 0)
(0.000302259 -0.000470154 0)
(0.000300725 -0.000470355 0)
(0.00029928 -0.000470552 0)
(0.000297915 -0.000470753 0)
(0.000296627 -0.000470946 0)
(0.000295409 -0.000471145 0)
(0.000294259 -0.000471333 0)
(0.000293169 -0.000471531 0)
(0.000292139 -0.000471709 0)
(0.00029116 -0.000471906 0)
(0.000290232 -0.000472072 0)
(0.000443012 -0.000458956 0)
(0.000434197 -0.00045869 0)
(0.000425883 -0.000458352 0)
(0.000418073 -0.000458132 0)
(0.000410719 -0.000457876 0)
(0.000403796 -0.0004577 0)
(0.000397281 -0.000457509 0)
(0.000391142 -0.000457373 0)
(0.000385364 -0.000457236 0)
(0.000379917 -0.000457137 0)
(0.000374789 -0.000457043 0)
(0.000369955 -0.000456977 0)
(0.000365402 -0.00045692 0)
(0.00036111 -0.000456883 0)
(0.000357067 -0.000456856 0)
(0.000353255 -0.000456846 0)
(0.000349665 -0.000456845 0)
(0.00034628 -0.000456857 0)
(0.000343091 -0.000456878 0)
(0.000340086 -0.00045691 0)
(0.000337254 -0.00045695 0)
(0.000334586 -0.000456998 0)
(0.000332071 -0.000457054 0)
(0.000329703 -0.000457116 0)
(0.00032747 -0.000457186 0)
(0.000325369 -0.000457258 0)
(0.000323387 -0.000457339 0)
(0.00032152 -0.000457423 0)
(0.000319762 -0.000457509 0)
(0.000318104 -0.0004576 0)
(0.000316543 -0.000457692 0)
(0.000315071 -0.000457785 0)
(0.000313682 -0.000457883 0)
(0.000312373 -0.000457977 0)
(0.000311137 -0.000458078 0)
(0.000309972 -0.00045817 0)
(0.000308868 -0.000458273 0)
(0.000307827 -0.000458359 0)
(0.000306839 -0.000458466 0)
(0.000305906 -0.000458542 0)
(0.000460871 -0.000452151 0)
(0.000451957 -0.000451498 0)
(0.000443544 -0.0004508 0)
(0.000435638 -0.000450237 0)
(0.000428189 -0.000449661 0)
(0.000421175 -0.00044918 0)
(0.00041457 -0.000448703 0)
(0.000408345 -0.000448295 0)
(0.000402483 -0.0004479 0)
(0.000396955 -0.000447556 0)
(0.000391749 -0.00044723 0)
(0.000386839 -0.000446944 0)
(0.000382214 -0.000446676 0)
(0.000377853 -0.00044644 0)
(0.000373743 -0.000446222 0)
(0.000369868 -0.000446029 0)
(0.000366216 -0.000445854 0)
(0.000362773 -0.000445699 0)
(0.000359529 -0.000445561 0)
(0.000356471 -0.000445439 0)
(0.000353589 -0.000445331 0)
(0.000350874 -0.000445238 0)
(0.000348315 -0.000445156 0)
(0.000345905 -0.000445087 0)
(0.000343632 -0.000445027 0)
(0.000341494 -0.000444978 0)
(0.000339476 -0.000444937 0)
(0.000337581 -0.000444905 0)
(0.000335792 -0.000444879 0)
(0.00033411 -0.00044486 0)
(0.000332523 -0.000444847 0)
(0.000331031 -0.000444836 0)
(0.000329622 -0.000444833 0)
(0.000328298 -0.000444828 0)
(0.000327046 -0.000444833 0)
(0.000325869 -0.00044483 0)
(0.000324755 -0.000444842 0)
(0.000323707 -0.000444837 0)
(0.000322713 -0.000444854 0)
(0.000321778 -0.000444842 0)
(0.000478508 -0.000445181 0)
(0.000469522 -0.000444144 0)
(0.000461036 -0.000443087 0)
(0.000453059 -0.000442183 0)
(0.000445538 -0.000441288 0)
(0.000438454 -0.000440503 0)
(0.00043178 -0.00043974 0)
(0.000425487 -0.00043906 0)
(0.000419558 -0.000438408 0)
(0.000413966 -0.00043782 0)
(0.000408697 -0.000437263 0)
(0.000403727 -0.000436755 0)
(0.000399043 -0.000436278 0)
(0.000394625 -0.000435842 0)
(0.00039046 -0.000435433 0)
(0.000386533 -0.000435058 0)
(0.000382831 -0.000434709 0)
(0.00037934 -0.000434388 0)
(0.00037605 -0.000434089 0)
(0.000372949 -0.000433814 0)
(0.000370026 -0.000433559 0)
(0.000367271 -0.000433324 0)
(0.000364675 -0.000433107 0)
(0.00036223 -0.000432905 0)
(0.000359926 -0.00043272 0)
(0.000357757 -0.000432548 0)
(0.000355713 -0.000432389 0)
(0.000353789 -0.000432242 0)
(0.000351977 -0.000432105 0)
(0.000350272 -0.000431977 0)
(0.000348666 -0.000431859 0)
(0.000347155 -0.000431745 0)
(0.000345731 -0.000431643 0)
(0.000344392 -0.00043154 0)
(0.000343129 -0.00043145 0)
(0.000341943 -0.000431354 0)
(0.000340822 -0.000431275 0)
(0.00033977 -0.000431181 0)
(0.000338772 -0.000431112 0)
(0.000337839 -0.000431014 0)
(0.000495915 -0.000438057 0)
(0.000486885 -0.000436639 0)
(0.000478353 -0.000435228 0)
(0.000470328 -0.000433986 0)
(0.000462758 -0.000432774 0)
(0.000455625 -0.000431687 0)
(0.000448901 -0.000430641 0)
(0.000442559 -0.00042969 0)
(0.000436582 -0.000428783 0)
(0.000430941 -0.000427952 0)
(0.000425625 -0.000427164 0)
(0.000420609 -0.000426437 0)