/*--------------------------------*- C++ -*----------------------------------*\
| =========                 |                                                 |
| \\      /  F ield         | OpenFOAM: The Open Source CFD Toolbox           |
|  \\    /   O peration     | Version:  v2012                                 |
|   \\  /    A nd           | Website:  www.openfoam.com                      |
|    \\/     M anipulation  |                                                 |
\*---------------------------------------------------------------------------*/
FoamFile
{
    version     2.0;
    format      ascii;
    class       volSymmTensorField;
    location    "3";
    object      epsilon;
}
// * * * * * * * * * * * * * * * * * * * * * * * * * * * * * * * * * * * * * //

dimensions      [0 0 0 0 0 0 0];


internalField   nonuniform List<symmTensor> 
16000
(
(0.00223229 -3.03469e-05 5.00277e-20 -0.000943301 5.23414e-19 2.32619e-33)
(0.00214511 -2.73507e-05 7.70224e-19 -0.000888281 5.03502e-19 0)
(0.0020638 -2.46095e-05 -2.40863e-20 -0.000832538 -4.62079e-19 0)
(0.00198802 -2.20797e-05 1.30179e-18 -0.000785899 -8.51129e-19 0)
(0.00191729 -1.97499e-05 -6.4176e-19 -0.00073937 -1.06434e-20 0)
(0.00185117 -1.7604e-05 1.32162e-27 -0.000699787 2.07023e-25 0)
(0.00178936 -1.56181e-05 -6.22046e-19 -0.000660879 -7.44173e-19 0)
(0.00173144 -1.37898e-05 3.46435e-20 -0.000627271 6.96193e-19 0)
(0.00167719 -1.20927e-05 -5.19758e-19 -0.000594686 3.19396e-19 0)
(0.00162626 -1.05289e-05 -1.04304e-18 -0.000566158 -3.35299e-19 0)
(0.00157845 -9.07485e-06 -4.78997e-19 -0.000538836 2.88476e-19 0)
(0.00153349 -7.73289e-06 4.73989e-19 -0.00051464 1.04578e-20 0)
(0.0014912 -6.48396e-06 -6.66124e-27 -0.000491713 -5.75381e-26 0)
(0.00145135 -5.32919e-06 2.36436e-20 -0.00047122 5.22893e-19 0)
(0.00141379 -4.25382e-06 1.25821e-18 -0.000451974 -2.20022e-19 0)
(0.00137833 -3.25792e-06 -2.08733e-20 -0.00043465 -4.82282e-19 0)
(0.00134485 -2.32988e-06 9.81057e-21 -0.000418501 2.32174e-19 0)
(0.00131317 -1.46955e-06 -2.06295e-27 -0.000403888 4.02083e-26 0)
(0.0012832 -6.67112e-07 -5.18857e-27 -0.00039035 -3.78567e-26 0)
(0.00125479 7.68001e-08 -7.05098e-19 -0.000378058 1.90049e-19 0)
(0.00122785 7.71514e-07 -7.69379e-21 -0.000366727 -2.03426e-19 0)
(0.00120226 1.41477e-06 -3.49467e-19 -0.00035642 -4.05069e-19 0)
(0.00117794 2.01611e-06 -3.24985e-19 -0.000346957 -9.57649e-21 0)
(0.0011548 2.57177e-06 -3.09068e-19 -0.000338345 1.78177e-19 0)
(0.00113274 3.09083e-06 6.09367e-21 -0.000330466 1.83293e-19 0)
(0.00111171 3.57022e-06 2.92222e-19 -0.0003233 -1.69994e-19 0)
(0.00109161 4.01517e-06 -5.79695e-19 -0.000316759 -1.84728e-20 0)
(0.00107241 4.42909e-06 2.92446e-19 -0.000310827 3.53931e-19 0)
(0.00105399 4.80691e-06 5.4448e-19 -0.000305417 -1.51243e-19 0)
(0.00103638 5.16598e-06 -5.39952e-19 -0.000300537 -1.84656e-19 0)
(0.00101943 5.48712e-06 0 -0.000296083 0 0)
(0.00100318 5.79906e-06 -4.25205e-21 -0.000292093 -1.61987e-19 0)
(0.000987505 6.08194e-06 -2.48214e-19 -0.00028846 -8.758e-21 0)
(0.000972411 6.34673e-06 -2.38365e-19 -0.000285207 1.4948e-19 0)
(0.000957833 6.59149e-06 -2.36548e-19 -0.000282257 -8.61234e-21 0)
(0.000943715 6.81646e-06 -4.657e-19 -0.000279615 -1.7214e-19 0)
(0.000930071 7.01957e-06 -4.51496e-19 -0.000277227 -1.69457e-20 0)
(0.000916766 7.21363e-06 1.01711e-20 -0.000275078 4.57618e-19 0)
(0.000903921 7.37165e-06 2.12379e-19 -0.000273158 -1.43133e-19 0)
(0.000891267 7.54447e-06 -2.20579e-19 -0.000271385 -4.5974e-19 0)
(0.00222632 -9.08467e-05 -7.08642e-19 -0.000939445 2.58712e-19 5.24523e-34)
(0.00213971 -8.18832e-05 2.30958e-18 -0.000884895 5.60359e-19 0)
(0.0020589 -7.36822e-05 5.63295e-19 -0.000829584 -8.93262e-19 0)
(0.00198359 -6.6113e-05 -6.90799e-20 -0.00078333 -4.44284e-19 0)
(0.00191328 -5.91421e-05 -5.14857e-19 -0.000737156 7.94203e-19 0)
(0.00184755 -5.27211e-05 2.03638e-26 -0.00069789 1.03204e-25 0)
(0.0017861 -4.67787e-05 -1.10125e-19 -0.000659275 -7.25525e-19 0)
(0.00172851 -4.13076e-05 -4.56119e-19 -0.000625928 6.64731e-19 0)
(0.00167456 -3.62291e-05 1.21907e-18 -0.000593584 1.04479e-18 0)
(0.0016239 -3.15494e-05 -1.07303e-18 -0.000565272 -3.61897e-19 0)
(0.00157635 -2.71986e-05 -8.5145e-20 -0.000538148 -5.91691e-19 0)
(0.00153162 -2.31828e-05 9.08031e-19 -0.00051413 -2.30813e-19 0)
(0.00148954 -1.94466e-05 -4.18558e-19 -0.000491366 2.43285e-19 0)
(0.00144989 -1.59913e-05 4.03926e-19 -0.000471019 -2.32024e-19 0)
(0.00141251 -1.2776e-05 1.65955e-18 -0.000451908 -1.45275e-19 0)
(0.00137723 -9.79678e-06 3.12834e-20 -0.000434703 2.39953e-19 0)
(0.00134389 -7.02451e-06 2.94115e-20 -0.000418663 2.31033e-19 0)
(0.00131237 -4.45173e-06 7.62551e-19 -0.000404148 5.53404e-20 0)
(0.00128252 -2.0579e-06 4.20866e-19 -0.000390699 4.58479e-19 0)
(0.00125424 1.65924e-07 7.39052e-19 -0.000378486 2.67583e-19 0)
(0.00122741 2.23546e-06 -4.61698e-20 -0.000367227 -4.04862e-19 0)
(0.00120193 4.15759e-06 -2.15447e-20 -0.000356984 -1.94797e-19 0)
(0.00117771 5.94913e-06 -3.2518e-19 -0.000347581 -2.49311e-20 0)
(0.00115466 7.60817e-06 3.16104e-19 -0.000339022 2.84084e-20 0)
(0.00113269 9.16258e-06 -1.82962e-20 -0.000331191 -1.82394e-19 0)
(0.00111175 1.05906e-05 3.15528e-19 -0.000324071 2.0295e-19 0)
(0.00109172 1.19444e-05 -5.80182e-19 -0.000317567 -4.87298e-20 0)
(0.0010726 1.31715e-05 -3.12024e-20 -0.000311675 -3.44684e-19 0)
(0.00105425 1.43535e-05 3.04268e-19 -0.000306291 3.59597e-19 0)
(0.0010367 1.54174e-05 1.42535e-20 -0.000301438 1.68882e-19 0)
(0.0010198 1.64367e-05 -5.49176e-19 -0.000297003 -3.77181e-19 0)
(0.00100357 1.73851e-05 0 -0.000293014 0 0)
(0.000987966 1.82233e-05 -2.36358e-19 -0.0002894 1.35763e-19 0)
(0.000972894 1.90382e-05 2.54369e-19 -0.00028615 1.8336e-19 0)
(0.000958375 1.97361e-05 -2.25649e-19 -0.000283209 1.3265e-19 0)
(0.000944287 2.04263e-05 -2.31241e-19 -0.000280574 -2.15707e-20 0)
(0.000930689 2.10019e-05 -2.46861e-19 -0.000278186 -3.27274e-19 0)
(0.000917421 2.15922e-05 -2.2101e-19 -0.000276047 -2.38749e-20 0)
(0.000904614 2.20434e-05 6.48171e-19 -0.000274119 6.98106e-20 0)
(0.000891997 2.25661e-05 -3.90059e-19 -0.000272356 2.05675e-19 0)
(0.00221444 -0.000150768 -1.02943e-18 -0.000931766 -5.06648e-19 2.46358e-33)
(0.00212894 -0.000135914 6.12772e-19 -0.00087815 -4.56986e-19 0)
(0.00204913 -0.000122321 2.3842e-19 -0.000823698 9.0399e-19 0)
(0.00197476 -0.000109775 -6.70772e-19 -0.000778211 -3.2171e-20 0)
(0.00190529 -9.82188e-05 -2.69218e-26 -0.000732744 -1.13128e-25 0)
(0.00184034 -8.75732e-05 5.14438e-19 -0.000694109 -3.38295e-19 0)
(0.00177959 -7.77202e-05 4.92406e-19 -0.000656076 -3.2067e-19 0)
(0.00172265 -6.86479e-05 -1.11948e-18 -0.00062325 -8.62079e-20 0)
(0.00166931 -6.02254e-05 1.23235e-18 -0.000591386 7.29725e-19 0)
(0.0016192 -5.2464e-05 1.10516e-18 -0.000563504 4.00667e-19 0)
(0.00157215 -4.52468e-05 -1.2025e-18 -0.000536776 -9.78278e-19 0)
(0.00152789 -3.85851e-05 -4.08769e-19 -0.000513113 2.32359e-19 0)
(0.00148624 -3.23858e-05 -3.9344e-19 -0.000490675 2.25806e-19 0)
(0.00144699 -2.66527e-05 -1.77367e-19 -0.000470622 -7.75463e-19 0)
(0.00140997 -2.13155e-05 -4.24678e-19 -0.000451778 -4.83388e-20 0)
(0.00137502 -1.6371e-05 1.04036e-19 -0.000434816 4.75181e-19 0)
(0.001342 -1.17664e-05 -4.44068e-19 -0.000418995 -2.74188e-19 0)
(0.00131076 -7.49513e-06 3.35011e-19 -0.00040468 -1.80084e-19 0)
(0.00128119 -3.51527e-06 -3.69932e-19 -0.000391411 -4.71658e-20 0)
(0.00125315 1.78149e-07 1.15303e-18 -0.000379361 5.39267e-19 0)
(0.00122655 3.62357e-06 3.83689e-20 -0.00036825 2.00462e-19 0)
(0.00120128 6.81737e-06 2.9956e-19 -0.000358136 -1.52531e-19 0)
(0.00117726 9.8041e-06 6.18116e-19 -0.000348856 -1.01804e-19 0)
(0.00115438 1.25622e-05 3.1602e-19 -0.000340392 4.00447e-20 0)
(0.00113259 1.5153e-05 3.03882e-20 -0.000332664 1.8062e-19 0)
(0.00111178 1.75289e-05 -2.7037e-19 -0.000325606 1.3369e-19 0)
(0.0010919 1.97719e-05 2.71973e-20 -0.000319185 1.73105e-19 0)
(0.0010729 2.18166e-05 -3.08774e-19 -0.000313329 -2.10618e-19 0)
(0.00105464 2.37409e-05 -8.51707e-19 -0.000307991 -2.91446e-19 0)
(0.00103724 2.55155e-05 8.52404e-19 -0.000303181 4.50508e-19 0)
(0.00102035 2.71388e-05 4.01719e-22 -0.000298731 2.92677e-21 0)
(0.00100436 2.87103e-05 4.68822e-19 -0.000294849 -2.36933e-19 0)
(0.00098881 3.01291e-05 4.78449e-19 -0.000291254 -7.60127e-20 0)
(0.000973896 3.14511e-05 1.90149e-20 -0.000288046 1.53002e-19 0)
(0.000959453 3.26613e-05 3.72223e-20 -0.000285132 3.08241e-19 0)
(0.000945468 3.37804e-05 2.14094e-19 -0.000282503 -1.14145e-19 0)
(0.000931947 3.47763e-05 2.26733e-19 -0.000280131 3.82338e-20 0)
(0.000918758 3.57413e-05 2.05084e-19 -0.000277987 -1.09619e-19 0)
(0.000906018 3.65153e-05 2.16559e-19 -0.000276059 3.64296e-20 0)
(0.000893472 3.73759e-05 1.02163e-19 -0.000274291 6.97109e-19 0)
(0.00219671 -0.00020973 -1.73639e-19 -0.00092033 -2.48042e-19 5.75864e-34)
(0.00211287 -0.00018911 -1.48472e-18 -0.000868103 -1.03606e-19 0)
(0.00203457 -0.000170239 2.02693e-21 -0.000814929 5.42384e-21 0)
(0.00196157 -0.000152816 -8.31461e-19 -0.000770582 -4.85756e-19 0)
(0.00189336 -0.000136767 -6.41913e-19 -0.000726166 -5.94604e-20 0)
(0.00182957 -0.00012198 -1.38661e-19 -0.000688471 -3.80766e-19 0)
(0.00176988 -0.000108292 1.28408e-19 -0.000651304 3.55488e-19 0)
(0.00171391 -9.5686e-05 -4.38871e-19 -0.000619253 2.79284e-19 0)
(0.00166145 -8.39818e-05 -6.48676e-19 -0.000588104 -3.78926e-19 0)
(0.00161216 -7.31945e-05 1.34554e-18 -0.000560861 1.03311e-18 0)
(0.00156587 -6.31626e-05 5.9731e-19 -0.000534722 3.62802e-19 0)
(0.0015223 -5.39011e-05 -1.13549e-18 -0.000511587 -6.7464e-19 0)
(0.00148129 -4.52823e-05 4.57603e-19 -0.000489633 6.33594e-20 0)
(0.00144262 -3.73094e-05 3.59445e-19 -0.000470014 -1.87668e-19 0)
(0.00140615 -2.98884e-05 -1.35044e-18 -0.000451568 -4.27897e-19 0)
(0.0013717 -2.30098e-05 -3.37499e-19 -0.000434961 1.70988e-19 0)
(0.00133914 -1.66083e-05 -7.91475e-19 -0.000419467 -1.2337e-19 0)
(0.00130833 -1.06631e-05 -7.65153e-19 -0.000405439 -1.22964e-19 0)
(0.00127914 -5.13338e-06 -3.69242e-19 -0.000392435 -5.8033e-20 0)
(0.00125147 1.13225e-08 5.71449e-22 -0.000380617 2.04616e-21 0)
(0.00122521 4.79187e-06 3.47616e-19 -0.000369722 6.16218e-20 0)
(0.00120026 9.24547e-06 1.85674e-19 -0.000359792 -5.1456e-19 0)
(0.00117652 1.33801e-05 6.53351e-19 -0.000350687 1.1806e-19 0)
(0.00115393 1.72289e-05 -5.45081e-19 -0.000342373 2.45234e-19 0)
(0.00113238 2.08095e-05 -2.66273e-19 -0.000334786 1.17913e-19 0)
(0.00111185 2.41154e-05 -5.59835e-19 -0.000327859 5.65214e-20 0)
(0.00109218 2.72334e-05 0 -0.00032155 0 0)
(0.00107345 3.00381e-05 3.20374e-19 -0.00031582 2.26033e-19 0)
(0.00105537 3.27902e-05 2.09248e-19 -0.00031057 -2.67465e-19 0)
(0.00103819 3.5165e-05 -3.35237e-19 -0.000305868 -3.82802e-19 0)
(0.00102149 3.76052e-05 7.57843e-19 -0.00030149 9.97638e-21 0)
(0.00100545 3.98896e-05 -5.91526e-20 -0.000297551 -3.1701e-19 0)
(0.000990161 4.17451e-05 -1.66577e-19 -0.000294035 4.06121e-19 0)
(0.000975278 4.3658e-05 8.10572e-20 -0.00029084 4.62722e-19 0)
(0.000961024 4.5247e-05 4.77519e-19 -0.00028794 1.11295e-19 0)
(0.000947135 4.68389e-05 -2.49104e-20 -0.000285358 -1.50269e-19 0)
(0.000933749 4.81828e-05 -4.83267e-20 -0.000282967 -2.97858e-19 0)
(0.00092068 4.95395e-05 -3.98086e-22 -0.00028087 -2.51492e-21 0)
(0.000908046 5.0607e-05 2.30914e-20 -0.000278907 1.47888e-19 0)
(0.000895618 5.18105e-05 2.12951e-19 -0.000277177 5.23851e-20 0)
(0.00217326 -0.000267364 7.75591e-19 -0.000905233 -1.0636e-21 9.93172e-37)
(0.00209161 -0.000241152 -9.68173e-19 -0.000854835 -5.3048e-19 0)
(0.00201528 -0.000217157 1.62384e-18 -0.000803342 5.75764e-19 0)
(0.00194411 -0.000195001 2.04747e-19 -0.000760498 4.23398e-19 0)
(0.00187756 -0.000174586 -8.26763e-19 -0.000717467 -4.59897e-19 0)
(0.00181529 -0.000155773 2.64311e-19 -0.000681009 -6.55769e-19 0)
(0.001757 -0.000138355 -1.17205e-18 -0.000644985 -1.55817e-19 0)
(0.00170231 -0.000122311 1.83696e-18 -0.000613955 5.66881e-19 0)
(0.00165103 -0.000107412 -6.82027e-19 -0.000583748 -3.92849e-19 0)
(0.00160282 -9.36782e-05 3.80454e-19 -0.00055735 -2.18444e-19 0)
(0.00155753 -8.09036e-05 2.59897e-18 -0.000531987 6.73133e-19 0)
(0.00151487 -6.91085e-05 5.9571e-19 -0.000509551 3.51928e-19 0)
(0.00147471 -5.81295e-05 -6.83756e-19 -0.000488237 -6.02127e-19 0)
(0.00143681 -4.7973e-05 1.0295e-19 -0.000469195 2.43282e-19 0)
(0.00140106 -3.85163e-05 -2.27317e-19 -0.000451274 3.99015e-19 0)
(0.00136728 -2.97518e-05 -7.28578e-19 -0.000435145 7.12121e-20 0)
(0.00133533 -2.15899e-05 7.95472e-19 -0.000420079 1.62336e-19 0)
(0.00130508 -1.4014e-05 -1.63486e-19 -0.000406448 -4.24188e-19 0)
(0.00127643 -6.9571e-06 5.88062e-19 -0.000393791 -2.55511e-19 0)
(0.00124924 -4.00976e-07 -1.08077e-18 -0.000382301 -2.38811e-19 0)
(0.00122344 5.71104e-06 1.04612e-18 -0.000371687 2.33552e-19 0)
(0.0011989 1.13858e-05 2.08613e-19 -0.000362029 -3.00139e-19 0)
(0.00117558 1.66912e-05 -1.1922e-18 -0.000353154 5.61974e-20 0)
(0.00115332 2.15944e-05 1.72977e-19 -0.000345055 5.37511e-19 0)
(0.00113216 2.62163e-05 -2.55336e-19 -0.000337672 9.96173e-20 0)
(0.00111187 3.04293e-05 6.03611e-19 -0.000330884 1.53497e-19 0)
(0.00109257 3.44752e-05 4.8991e-19 -0.000324782 -1.8354e-19 0)
(0.00107398 3.80588e-05 -9.24653e-20 -0.000319085 -3.29486e-19 0)
(0.00105619 4.15849e-05 8.77343e-19 -0.000314023 3.7962e-19 0)
(0.00103916 4.46318e-05 -2.70494e-19 -0.000309282 -7.08152e-20 0)
(0.00102215 4.74896e-05 -4.01493e-20 -0.000304737 -1.5731e-19 0)
(0.00100704 5.0328e-05 -1.82043e-19 -0.000301202 2.38016e-19 0)
(0.000991864 5.2966e-05 -1.04236e-18 -0.000297789 -4.36225e-19 0)
(0.000977255 5.52208e-05 -6.94945e-20 -0.00029458 -3.03034e-19 0)
(0.000963178 5.7442e-05 6.5527e-20 -0.000291774 2.94621e-19 0)
(0.000949423 5.93755e-05 3.18518e-20 -0.000289135 1.47125e-19 0)
(0.000936199 6.11787e-05 2.29409e-19 -0.000286786 6.98628e-20 0)
(0.000923252 6.28753e-05 -2.53617e-19 -0.000284658 -2.11471e-19 0)
(0.000910754 6.42719e-05 1.89957e-19 -0.000282694 -7.58845e-20 0)
(0.000898453 6.58001e-05 2.83435e-20 -0.000280956 1.42506e-19 0)
(0.00214426 -0.000323309 1.037e-18 -0.000886602 2.23653e-19 7.37192e-34)
(0.0020653 -0.000291725 1.20489e-18 -0.000838454 -2.87294e-19 0)
(0.00199141 -0.000262804 -9.68075e-19 -0.000789032 -5.1746e-19 0)
(0.00192249 -0.000236091 1.15194e-18 -0.000748038 8.83972e-19 0)
(0.00185798 -0.000211472 4.1415e-19 -0.000706713 -2.876e-19 0)
(0.00179759 -0.000188778 -4.97971e-21 -0.000671781 -8.38862e-21 0)
(0.00174102 -0.000167762 -1.36739e-18 -0.000637165 -5.19301e-19 0)
(0.00168791 -0.0001484 -1.12929e-18 -0.000607395 -2.01578e-19 0)
(0.00163808 -0.000130415 7.15627e-19 -0.000578351 4.04725e-19 0)
(0.00159121 -0.000113832 -4.95382e-19 -0.000552995 -8.75252e-19 0)
(0.00154714 -9.84038e-05 -8.40179e-19 -0.000528593 7.93462e-20 0)
(0.00150562 -8.41553e-05 1.05561e-18 -0.000507018 1.15222e-18 0)
(0.0014665 -7.08902e-05 1.3903e-19 -0.000486495 2.58182e-19 0)
(0.00142957 -5.86148e-05 -5.68136e-19 -0.000468165 -3.34619e-19 0)
(0.0013947 -4.71844e-05 9.74834e-19 -0.000450896 4.27249e-19 0)
(0.00136173 -3.65851e-05 -2.24651e-19 -0.000435349 -4.44811e-19 0)
(0.00133055 -2.67174e-05 5.81799e-19 -0.000420819 -2.4354e-19 0)
(0.001301 -1.75469e-05 7.70224e-19 -0.00040766 1.90898e-19 0)
(0.00127299 -9.01702e-06 -4.65548e-19 -0.000395442 4.0845e-19 0)
(0.00124639 -1.06663e-06 -4.46487e-19 -0.000384327 -2.82339e-19 0)
(0.00122114 6.30912e-06 -3.34966e-19 -0.000374071 -7.58727e-19 0)
(0.00119711 1.32183e-05 3.14054e-19 -0.000364699 7.33685e-19 0)
(0.00117425 1.9587e-05 -5.83327e-19 -0.000356114 -2.27533e-21 0)
(0.00115244 2.56085e-05 2.50174e-19 -0.000348219 -8.24495e-20 0)
(0.00113165 3.10856e-05 -6.59872e-20 -0.000341069 -1.70024e-19 0)
(0.00111178 3.63348e-05 1.76695e-19 -0.000334418 -2.45181e-19 0)
(0.0010928 4.10258e-05 1.00236e-18 -0.000328509 5.96702e-19 0)
(0.00107468 4.55088e-05 -2.86911e-19 -0.000322917 -8.92433e-20 0)
(0.00105718 4.95981e-05 -6.13121e-19 -0.000318063 -3.36898e-19 0)
(0.00104086 5.29533e-05 5.07038e-20 -0.000313485 1.52969e-19 0)
(0.00102433 5.70228e-05 -5.79947e-19 -0.000309384 -3.27842e-19 0)
(0.0010084 6.08933e-05 -1.70331e-19 -0.000305673 2.10916e-19 0)
(0.000993902 6.34415e-05 3.41111e-19 -0.000302196 3.84549e-19 0)
(0.000979425 6.62613e-05 -5.36023e-19 -0.000299256 -3.1667e-19 0)
(0.000965576 6.88629e-05 -4.83142e-19 -0.000296276 -1.69178e-19 0)
(0.000952102 7.12097e-05 1.59294e-19 -0.000293859 -2.01451e-19 0)
(0.000939023 7.34367e-05 -3.76614e-20 -0.000291387 -1.43109e-19 0)
(0.000926338 7.54849e-05 -3.07489e-22 -0.00028939 -1.19791e-21 0)
(0.000913975 7.72353e-05 -2.21129e-19 -0.00028734 -8.32881e-20 0)
(0.000901891 7.90817e-05 1.10448e-19 -0.000285672 3.34404e-19 0)
(0.0021099 -0.000377225 4.49504e-19 -0.000864593 -2.16333e-19 3.47195e-34)
(0.00203412 -0.000340531 1.796e-18 -0.000819091 6.23108e-19 0)
(0.0019631 -0.000306919 -8.83447e-20 -0.000772105 7.32377e-19 0)
(0.00189682 -0.000275865 -1.62413e-18 -0.000733288 -5.92295e-19 0)
(0.00183473 -0.000247234 6.37927e-19 -0.000693974 1.02068e-19 0)
(0.00177655 -0.000220836 2.55482e-19 -0.000660838 3.55056e-19 0)
(0.00172201 -0.000196381 1.64087e-18 -0.000627881 8.75837e-19 0)
(0.00167077 -0.000173845 -2.67377e-18 -0.000599597 -1.05061e-18 0)
(0.00162266 -0.000152906 -8.28324e-20 -0.000571923 -7.80536e-19 0)
(0.00157736 -0.000133595 3.88201e-19 -0.000547796 5.66024e-19 0)
(0.00153475 -0.000115623 6.00471e-21 -0.000524524 8.88374e-21 0)
(0.00149456 -9.90225e-05 -6.48737e-19 -0.000503967 -3.70081e-19 0)
(0.00145668 -8.35634e-05 9.18582e-19 -0.000484375 2.22916e-19 0)
(0.00142088 -6.92556e-05 2.92786e-19 -0.000466886 -1.23139e-19 0)
(0.00138707 -5.59288e-05 9.95768e-19 -0.00045038 4.48372e-19 0)
(0.00135507 -4.35715e-05 9.59589e-19 -0.00043553 4.41818e-19 0)
(0.00132477 -3.20617e-05 -2.48002e-19 -0.000421617 -4.15193e-19 0)
(0.00129606 -2.13708e-05 6.20666e-19 -0.000409039 5.1375e-19 0)
(0.0012688 -1.1416e-05 -6.36387e-19 -0.000397308 -2.41597e-20 0)
(0.00124294 -2.15452e-06 8.79339e-19 -0.000386688 -4.743e-20 0)
(0.00121832 6.46341e-06 -9.58858e-20 -0.000376788 -1.79315e-19 0)
(0.00119493 1.44941e-05 -1.8571e-26 -0.000367866 -2.95839e-26 0)
(0.00117258 2.19597e-05 7.49301e-19 -0.000359493 3.89338e-19 0)
(0.00115137 2.89231e-05 8.20054e-20 -0.000352057 1.68802e-19 0)
(0.001131 3.54034e-05 -2.36326e-19 -0.000344942 5.64239e-20 0)
(0.00111169 4.14222e-05 -8.28577e-19 -0.000338828 -6.95836e-19 0)
(0.0010931 4.71013e-05 -6.48194e-22 -0.000332767 -1.48178e-21 0)
(0.00107538 5.22267e-05 4.86095e-19 -0.000327811 5.70869e-19 0)
(0.00105868 5.73954e-05 1.13521e-21 -0.000322798 2.80416e-21 0)
(0.001042 6.15068e-05 5.39787e-22 -0.000318668 1.36749e-21 0)
(0.00102397 6.74871e-05 -3.24146e-19 -0.00031362 -1.48027e-19 0)
(0.00101104 6.95837e-05 -3.1446e-19 -0.00031099 -2.45546e-19 0)
(0.000996694 7.35774e-05 2.54789e-19 -0.000307376 9.93495e-20 0)
(0.000982189 7.66078e-05 -2.00809e-19 -0.00030454 4.0476e-20 0)
(0.000968455 7.97453e-05 1.9722e-19 -0.000301413 -3.95485e-20 0)
(0.000955219 8.25481e-05 -4.55002e-20 -0.000299203 -1.39834e-19 0)
(0.000942287 8.50762e-05 -1.89226e-19 -0.000296631 3.94888e-20 0)
(0.000929873 8.75541e-05 3.58747e-22 -0.000294796 1.15838e-21 0)
(0.000917675 8.95373e-05 -7.1034e-19 -0.000292669 -4.25915e-19 0)
(0.000905838 9.17503e-05 -8.9464e-20 -0.000291112 -1.93726e-19 0)
(0.00207042 -0.000428788 -7.63183e-19 -0.000839391 -6.69349e-22 4.54688e-36)
(0.00199826 -0.000387286 -1.10353e-18 -0.000796905 1.99161e-19 0)
(0.00193052 -0.000349255 1.74161e-18 -0.000752699 1.29637e-18 0)
(0.00186727 -0.000314105 3.89589e-21 -0.000716367 4.47603e-21 0)
(0.00180793 -0.000281686 -1.55473e-18 -0.000679348 -1.17709e-18 0)
(0.0017523 -0.000251786 9.33173e-19 -0.000648265 -9.38179e-20 0)
(0.00170008 -0.000224076 1.38318e-18 -0.000617207 1.06392e-18 0)
(0.00165098 -0.000198533 2.49751e-18 -0.000590621 8.04505e-19 0)
(0.00160483 -0.000174791 -1.78273e-18 -0.000564518 -1.1058e-18 0)
(0.00156134 -0.000152888 -4.44147e-19 -0.000541799 -5.44635e-19 0)
(0.0015204 -0.000132499 1.4049e-18 -0.000519827 7.66692e-19 0)
(0.00148174 -0.000113659 8.71385e-19 -0.000500437 6.2586e-19 0)
(0.00144528 -9.61091e-05 -1.82803e-19 -0.000481921 -2.35718e-19 0)
(0.00141079 -7.98634e-05 -6.17811e-19 -0.000465398 -3.56283e-19 0)
(0.00137819 -6.47238e-05 -8.6117e-19 -0.000449782 -2.60145e-19 0)
(0.00134731 -5.06874e-05 4.14431e-19 -0.00043573 1.27601e-19 0)
(0.00131805 -3.76014e-05 -1.44188e-19 -0.000422556 -2.03155e-19 0)
(0.00129029 -2.54574e-05 -1.20807e-19 -0.000410632 2.59379e-19 0)
(0.00126393 -1.41258e-05 8.79214e-19 -0.000399519 4.42391e-19 0)
(0.00123888 -3.61332e-06 -7.22353e-19 -0.000389428 -6.73121e-19 0)
(0.00121504 6.21735e-06 5.94791e-19 -0.000380057 7.39901e-20 0)
(0.00119234 1.53117e-05 -1.32971e-19 -0.000371545 2.16759e-19 0)
(0.00117069 2.38605e-05 9.95224e-20 -0.000363643 1.66893e-19 0)
(0.00115004 3.17119e-05 -1.37065e-19 -0.000356496 2.01028e-19 0)
(0.00113028 3.91698e-05 7.21416e-19 -0.000349826 4.07786e-19 0)
(0.0011114 4.59405e-05 -2.51214e-19 -0.000343863 -4.66477e-19 0)
(0.00109331 5.24562e-05 -9.76629e-19 -0.000338217 -5.16457e-19 0)
(0.0010759 5.83815e-05 5.82616e-19 -0.000333267 2.40381e-19 0)
(0.00105932 6.39724e-05 -2.8563e-19 -0.00032848 -1.22765e-19 0)
(0.00104295 6.96398e-05 4.76502e-19 -0.000324309 5.50475e-19 0)
(0.00102794 7.38624e-05 5.81032e-22 -0.000320345 1.2845e-21 0)
(0.00101352 7.77811e-05 2.01752e-19 -0.000316748 -2.36415e-20 0)
(0.000998824 8.23924e-05 -1.40585e-19 -0.000313552 1.60863e-19 0)
(0.000985079 8.62558e-05 1.96509e-19 -0.000310492 -1.94427e-20 0)
(0.000971624 8.97159e-05 -5.40568e-20 -0.000307868 -1.35932e-19 0)
(0.000958675 9.31013e-05 -2.40375e-19 -0.000305357 -1.12607e-19 0)
(0.000946089 9.58963e-05 -4.97287e-20 -0.00030311 -1.32017e-19 0)
(0.000933879 9.88008e-05 3.26004e-19 -0.000301072 3.72533e-19 0)
(0.000921973 0.000101023 -2.24764e-19 -0.000299104 -1.08905e-19 0)
(0.000910339 0.00010358 1.30111e-19 -0.000297431 -1.47194e-19 0)
(0.00202608 -0.000477695 1.00483e-20 -0.000811202 4.52765e-21 3.38337e-37)
(0.00195796 -0.000431723 -1.87632e-18 -0.000772069 -6.40937e-19 0)
(0.00189388 -0.000389578 7.01048e-19 -0.000730957 1.29009e-19 0)
(0.001834 -0.000350609 3.03785e-18 -0.000697391 8.83616e-19 0)
(0.00177774 -0.000314653 -1.9592e-18 -0.00066293 -9.39483e-19 0)
(0.00172494 -0.000281476 -9.3259e-19 -0.000634133 -4.56919e-19 0)
(0.00167531 -0.000250718 -1.75688e-18 -0.000605191 -4.18556e-19 0)
(0.00162861 -0.000222354 1.96038e-18 -0.0005805 7.03358e-19 0)
(0.00158465 -0.000195981 2.67083e-19 -0.000556147 2.74557e-19 0)
(0.00154319 -0.000171642 -1.01246e-18 -0.000534999 -6.59321e-19 0)
(0.00150411 -0.000148976 -1.72964e-18 -0.000514475 -6.79638e-19 0)
(0.00146718 -0.000128025 -2.67651e-19 -0.000496387 8.49016e-20 0)
(0.00143229 -0.000108501 -5.17645e-19 -0.000479068 1.5913e-19 0)
(0.00139927 -9.04213e-05 -2.52845e-19 -0.000463623 7.26881e-20 0)
(0.00136803 -7.35683e-05 -1.04237e-18 -0.000448993 -4.94559e-19 0)
(0.0013384 -5.79341e-05 -5.88459e-19 -0.00043583 -3.45136e-19 0)
(0.0013103 -4.33581e-05 -4.02711e-19 -0.000423468 -1.42928e-19 0)
(0.00128361 -2.98176e-05 -7.81439e-19 -0.000412273 -2.86825e-19 0)
(0.00125825 -1.71897e-05 8.99118e-19 -0.000401829 4.6529e-19 0)
(0.00123412 -5.45022e-06 -2.65896e-19 -0.000392328 -3.46438e-19 0)
(0.00121115 5.50597e-06 -8.39598e-19 -0.000383511 -4.53284e-19 0)
(0.00118923 1.56874e-05 -1.08185e-19 -0.000375464 1.88676e-19 0)
(0.00116835 2.52075e-05 4.48484e-19 -0.000368037 3.00272e-19 0)
(0.00114836 3.403e-05 -4.31806e-19 -0.000361228 -2.93839e-19 0)
(0.00112931 4.23186e-05 9.52583e-19 -0.000354998 4.11203e-19 0)
(0.00111098 4.99427e-05 1.88138e-19 -0.000349227 2.97715e-19 0)
(0.00109351 5.71758e-05 -4.78098e-19 -0.00034403 -4.25429e-19 0)
(0.00107662 6.37348e-05 8.34337e-20 -0.000339114 1.41641e-19 0)
(0.00106043 7.00347e-05 8.20049e-20 -0.000334744 1.44295e-19 0)
(0.00104489 7.56767e-05 2.041e-19 -0.000330589 -4.62063e-21 0)
(0.00102924 8.10012e-05 5.45313e-19 -0.000326528 2.63611e-19 0)
(0.00101549 8.6021e-05 -2.66697e-19 -0.000323452 -1.31323e-19 0)
(0.00100155 9.07139e-05 7.81552e-19 -0.000320388 3.90964e-19 0)
(0.000988121 9.49201e-05 7.62691e-19 -0.000317484 3.85473e-19 0)
(0.000975152 9.88834e-05 6.03608e-20 -0.000314885 1.30034e-19 0)
(0.00096246 0.000102503 1.85948e-19 -0.000312451 -2.79954e-22 0)
(0.00095022 0.000105774 4.20878e-19 -0.000310174 1.26258e-19 0)
(0.000938271 0.000108919 -1.79561e-19 -0.000308193 -2.03869e-22 0)
(0.000926637 0.000111517 4.03817e-19 -0.000306161 1.23605e-19 0)
(0.000915256 0.000114323 2.37486e-19 -0.000304537 6.54953e-20 0)
(0.00197719 -0.000523669 8.81481e-19 -0.000780259 3.22787e-19 2.1036e-33)
(0.00191348 -0.000473599 7.32485e-19 -0.000744785 1.37538e-19 0)
(0.0018534 -0.000427673 -5.96965e-19 -0.000707052 -9.31519e-19 0)
(0.00179722 -0.000385189 1.86178e-18 -0.000676508 1.14684e-18 0)
(0.00174432 -0.000345971 7.59334e-19 -0.000644843 6.39533e-19 0)
(0.00169463 -0.000309769 -1.22001e-18 -0.000618549 -3.02443e-19 0)
(0.00164785 -0.000276191 -9.10869e-19 -0.000591924 -4.33839e-19 0)
(0.00160376 -0.000245214 -1.18551e-18 -0.000569309 -6.99488e-19 0)
(0.00156222 -0.000216398 1.37107e-18 -0.000546878 5.71589e-19 0)
(0.00152299 -0.000189794 2.74031e-19 -0.000527454 2.45505e-19 0)
(0.00148596 -0.00016501 5.20248e-19 -0.000508523 4.73081e-19 0)
(0.00145091 -0.000142092 -7.16259e-19 -0.000491867 -9.04209e-20 0)
(0.00141778 -0.000120727 -2.22118e-19 -0.000475866 -2.09428e-19 0)
(0.00138637 -0.000100936 2.36307e-19 -0.000461609 -4.44332e-20 0)
(0.00135662 -8.24791e-05 4.34486e-19 -0.00044807 1.60759e-19 0)
(0.00132837 -6.5353e-05 -6.06776e-19 -0.00043589 -3.48251e-19 0)
(0.00130155 -4.93776e-05 -4.06633e-19 -0.000424427 -1.599e-19 0)
(0.00127604 -3.45351e-05 -5.59024e-19 -0.000414041 -3.34154e-19 0)
(0.00125178 -2.0684e-05 -1.58652e-19 -0.000404334 -1.726e-19 0)
(0.00122866 -7.80595e-06 1.46386e-19 -0.000395495 1.63911e-19 0)
(0.00120662 4.22027e-06 -7.16109e-19 -0.000387275 -3.10515e-19 0)
(0.00118558 1.54027e-05 2.17908e-19 -0.000379766 -2.92221e-22 0)
(0.0011655 2.58543e-05 1.22491e-19 -0.000372809 1.50575e-19 0)
(0.00114626 3.55721e-05 3.30036e-19 -0.000366437 1.53854e-19 0)
(0.00112788 4.46532e-05 -3.59586e-26 -0.00036055 -4.3576e-26 0)
(0.00111021 5.31128e-05 7.2946e-19 -0.000355146 4.4494e-19 0)
(0.0010933 6.09773e-05 2.05441e-19 -0.000350162 1.05812e-20 0)
(0.00107701 6.83681e-05 -9.21217e-20 -0.000345581 -1.34701e-19 0)
(0.00106138 7.51172e-05 1.99058e-19 -0.000341348 1.10794e-20 0)
(0.00104633 8.15689e-05 -1.99862e-19 -0.000337488 -1.70872e-20 0)
(0.00103178 8.73109e-05 4.34212e-19 -0.000333871 4.02962e-19 0)
(0.00101797 9.26351e-05 1.18735e-19 -0.000330715 -1.08633e-19 0)
(0.00100437 9.78319e-05 1.17143e-19 -0.000327654 -1.10667e-19 0)
(0.000991394 0.000102461 -1.20145e-19 -0.000324945 1.04231e-19 0)
(0.000978679 0.000106861 3.17168e-19 -0.000322352 2.62625e-19 0)
(0.00096644 0.000110892 1.19082e-19 -0.000320052 -1.02915e-19 0)
(0.00095447 0.000114524 -1.81029e-19 -0.000317797 -2.14107e-20 0)
(0.000942907 0.00011803 5.90005e-19 -0.000315885 5.14159e-19 0)
(0.000931541 0.000120926 1.16179e-19 -0.000313855 -9.89487e-20 0)
(0.000920487 0.000124045 2.99005e-19 -0.000312263 2.05666e-19 0)
(0.00192406 -0.000566458 -1.20896e-18 -0.000746812 -1.37163e-19 8.3403e-34)
(0.0018651 -0.000512688 -1.73712e-18 -0.000715264 -8.66808e-19 0)
(0.00180932 -0.00046334 -1.40109e-25 -0.000681161 -9.99213e-26 0)
(0.00175712 -0.000417668 2.22471e-19 -0.000653864 4.80783e-19 0)
(0.00170785 -0.000375484 1.68303e-18 -0.000625207 6.22348e-19 0)
(0.00166151 -0.000336525 -6.07104e-19 -0.000601605 -1.63553e-19 0)
(0.00161781 -0.000300372 8.07593e-19 -0.000577476 6.76674e-20 0)
(0.00157656 -0.000267003 -1.80268e-18 -0.000557098 -8.49603e-19 0)
(0.00153763 -0.000235949 -3.60113e-21 -0.000536737 -2.73545e-21 0)
(0.00150079 -0.000207264 -1.04323e-18 -0.000519173 -3.48008e-19 0)
(0.00146598 -0.00018053 7.77271e-19 -0.000501959 3.90098e-19 0)
(0.00143299 -0.000155797 1.23012e-18 -0.000486848 5.58926e-19 0)
(0.00140175 -0.000132731 2.14215e-19 -0.00047227 -3.04906e-20 0)
(0.00137209 -0.000111353 4.49168e-19 -0.000459296 1.73391e-19 0)
(0.00134395 -9.14106e-05 1.09011e-18 -0.000446935 5.34361e-19 0)
(0.0013172 -7.28942e-05 1.051e-18 -0.000435815 5.2865e-19 0)
(0.00129177 -5.56202e-05 -4.07033e-19 -0.000425324 -1.72498e-19 0)
(0.00126755 -3.95572e-05 2.13946e-19 -0.000415811 6.94341e-21 0)
(0.00124448 -2.45718e-05 1.74294e-21 -0.000406905 1.63657e-21 0)
(0.00122247 -1.06211e-05 -7.44339e-19 -0.000398778 -3.42259e-19 0)
(0.00120147 2.39354e-06 5.77003e-20 -0.000391218 -1.32345e-19 0)
(0.00118138 1.45161e-05 -3.53356e-19 -0.00038428 -1.71348e-19 0)
(0.00116219 2.58273e-05 -2.05653e-19 -0.000377867 -2.38404e-20 0)
(0.00114379 3.63562e-05 2.04141e-19 -0.000371946 2.63061e-20 0)
(0.00112617 4.61929e-05 -4.44501e-19 -0.000366507 -3.0317e-19 0)
(0.00110925 5.53169e-05 1.05869e-18 -0.000361453 6.26847e-19 0)
(0.00109299 6.38819e-05 1.83087e-26 -0.000356831 1.98973e-26 0)
(0.00107737 7.17538e-05 1.00795e-19 -0.000352525 1.2717e-19 0)
(0.00106226 7.92303e-05 -9.82657e-20 -0.000348561 9.28704e-20 0)
(0.00104783 8.60158e-05 -3.75425e-19 -0.000344937 -2.81765e-19 0)
(0.00103368 9.25324e-05 1.05478e-19 -0.000341479 -8.47366e-20 0)
(0.00102031 9.8613e-05 2.71063e-19 -0.000338498 1.55476e-19 0)
(0.00100721 0.000104042 -1.07914e-19 -0.000335577 8.24355e-20 0)
(0.000994627 0.000109236 -2.5915e-19 -0.000333012 -1.53019e-19 0)
(0.000982375 0.000113886 -3.26512e-19 -0.000330491 -2.69164e-19 0)
(0.000970503 0.000118313 3.18041e-19 -0.000328305 2.66635e-19 0)
(0.000958926 0.000122235 -8.62913e-19 -0.000326064 -6.76597e-19 0)
(0.000947715 0.000126043 4.12681e-19 -0.000324238 1.85684e-19 0)
(0.000936684 0.000129224 1.89773e-26 -0.000322175 2.62796e-26 0)
(0.000925951 0.000132602 1.6046e-19 -0.000320646 1.46872e-19 0)
(0.00186704 -0.000605839 1.76759e-18 -0.00071113 2.38144e-19 2.77915e-33)
(0.00181311 -0.000548791 -5.2683e-19 -0.000683738 -3.22411e-19 0)
(0.00176191 -0.000496404 -2.90705e-18 -0.000653482 -1.26725e-18 0)
(0.00171394 -0.000447891 1.13298e-18 -0.000629628 4.63557e-19 0)
(0.00166854 -0.000403056 1.52054e-18 -0.000604165 7.28277e-19 0)
(0.00162577 -0.000361628 6.11035e-19 -0.000583423 1.80197e-19 0)