/*--------------------------------*- C++ -*----------------------------------*\
| =========                 |                                                 |
| \\      /  F ield         | OpenFOAM: The Open Source CFD Toolbox           |
|  \\    /   O peration     | Version:  v2012                                 |
|   \\  /    A nd           | Website:  www.openfoam.com                      |
|    \\/     M anipulation  |                                                 |
\*---------------------------------------------------------------------------*/
FoamFile
{
    version     2.0;
    format      ascii;
    class       pointScalarField;
    location    "14";
    object      pEpsilonEq;
}
// * * * * * * * * * * * * * * * * * * * * * * * * * * * * * * * * * * * * * //

dimensions      [0 0 0 0 0 0 0];


internalField   nonuniform List<scalar> 
530
(
0.00119352
0.000603515
0.000882324
0.000895854
0.00660536
0.00119352
0.000603515
0.000882324
0.000895854
0.00660536
0.000656793
0.000372658
0.000256183
0.0002669
0.000320259
0.000360316
0.00041309
0.000463833
0.000522793
0.000572544
0.000615152
0.000642104
0.000650062
0.000634382
0.000630172
0.000637527
0.000674125
0.000702991
0.000756044
0.000803706
0.000833754
0.000868039
0.000876829
0.000886152
0.000898228
0.000937501
0.00098623
0.00106007
0.00112552
0.001233
0.00131646
0.00144033
0.00152478
0.00166338
0.00180779
0.00174158
0.00180326
0.00175642
0.00162299
0.00141753
0.00107771
0.000826296
0.0012793
0.00175382
0.00286734
0.00480562
0.00650626
0.00310381
0.00136436
0.000680214
0.000616294
0.000930088
0.00115232
0.000656793
0.000372658
0.000256183
0.0002669
0.000320259
0.000360316
0.00041309
0.000463833
0.000522793
0.000572544
0.000615152
0.000642104
0.000650062
0.000634382
0.000630172
0.000637527
0.000674125
0.000702991
0.000756044
0.000803706
0.000833754
0.000868039
0.000876829
0.000886152
0.000898228
0.000937501
0.00098623
0.00106007
0.00112552
0.001233
0.00131646
0.00144033
0.00152478
0.00166338
0.00180779
0.00174158
0.00180326
0.00175642
0.00162299
0.00141753
0.00107771
0.000826296
0.0012793
0.00175382
0.00286734
0.00480562
0.00650626
0.00310381
0.00136436
0.000680214
0.000616294
0.000930088
0.00115232
0.00113594
0.000860363
0.00156717
0.00111349
0.000746878
0.000892416
0.000718838
0.00194477
0.000825517
0.0014161
0.000662829
0.00105004
0.00060738
0.00117756
0.000792863
0.00132758
0.000927182
0.000991693
0.00173013
0.00153016
0.000643235
0.000995458
0.000664737
0.000892119
0.00132891
0.00162143
0.00120282
0.000544997
0.000846859
0.000749555
0.00160408
0.00119135
0.000716357
0.000837138
0.000950817
0.00271562
0.000883264
0.000477241
0.000491501
0.000581126
0.00107711
0.00085919
0.00101336
0.000731257
0.00152694
0.00171034
0.00130274
0.000657996
0.000930952
0.00116902
0.000580119
0.00106478
0.000816122
0.00146954
0.00125738
0.00177321
0.00161756
0.0018985
0.000771977
0.000960437
0.000782902
0.000390641
0.000717063
0.00145942
0.000742572
0.00172072
0.00133379
0.00204783
0.00114547
0.00051779
0.00100913
0.00121717
0.000891621
0.000941209
0.000843754
0.00085517
0.00067328
0.001658
0.0014509
0.00100714
0.00081951
0.000645014
0.000880511
0.000929034
0.000792907
0.000437979
0.000865535
0.00120235
0.00111061
0.000446481
0.000578036
0.000682953
0.000646735
0.000707702
0.00108357
0.00110295
0.000891501
0.00087537
0.000696125
0.00170314
0.00148444
0.00114572
0.000944944
0.000595756
0.00121256
0.00102517
0.00171061
0.00101134
0.000982528
0.000658985
0.000910153
0.000821004
0.000894976
0.00183607
0.00184402
0.00143646
0.00111919
0.00128297
0.00159649
0.000767743
0.000751348
0.00115905
0.000765014
0.00369698
0.00195343
0.00153358
0.00111861
0.000678043
0.000914138
0.00515308
0.000375306
0.000732376
0.000342636
0.000785868
0.000746776
0.00142093
0.0011878
0.000462599
0.00062122
0.00205663
0.00102901
0.000696384
0.000822528
0.000968565
0.000918664
0.000628492
0.00351278
0.000823091
0.00142988
0.000701134
0.000799866
0.00182582
0.000589618
0.000520488
0.00128438
0.000785315
0.00138211
0.000665283
0.0016702
0.00100395
0.00167431
0.000484758
0.00104506
0.000477871
0.00155838
0.0015136
0.000854451
0.000872146
0.000646666
0.00164066
0.000816198
0.000680506
0.00129236
0.00123325
0.00139271
0.00100532
0.00140857
0.00072912
0.000952127
0.000725852
0.000794353
0.000964583
0.00134463
0.00136192
0.00158277
0.000794597
0.00104024
0.000663013
0.0011666
0.00171069
0.000632799
0.000553717
0.000319739
0.00156007
0.0013465
0.00108698
0.000978455
0.000806099
0.00108299
0.00130583
0.00064854
0.00088964
0.00136615
0.000731851
0.000625398
0.00088168
0.00126219
0.00113594
0.000860363
0.00156717
0.00111349
0.000746878
0.000892416
0.000718838
0.00194477
0.000825517
0.0014161
0.000662829
0.00105004
0.00060738
0.00117756
0.000792863
0.00132758
0.000927182
0.000991693
0.00173013
0.00153016
0.000643235
0.000995458
0.000664737
0.000892119
0.00132891
0.00162143
0.00120282
0.000544997
0.000846859
0.000749555
0.00160408
0.00119135
0.000716357
0.000837138
0.000950817
0.00271562
0.000883264
0.000477241
0.000491501
0.000581126
0.00107711
0.00085919
0.00101336
0.000731257
0.00152694
0.00171034
0.00130274
0.000657996
0.000930952
0.00116902
0.000580119
0.00106478
0.000816122
0.00146954
0.00125738
0.00177321
0.00161756
0.0018985
0.000771977
0.000960437
0.000782902
0.000390641
0.000717063
0.00145942
0.000742572
0.00172072
0.00133379
0.00204783
0.00114547
0.00051779
0.00100913
0.00121717
0.000891621
0.000941209
0.000843754
0.00085517
0.00067328
0.001658
0.0014509
0.00100714
0.00081951
0.000645014
0.000880511
0.000929034
0.000792907
0.000437979
0.000865535
0.00120235
0.00111061
0.000446481
0.000578036
0.000682953
0.000646735
0.000707702
0.00108357
0.00110295
0.000891501
0.00087537
0.000696125
0.00170314
0.00148444
0.00114572
0.000944944
0.000595756
0.00121256
0.00102517
0.00171061
0.00101134
0.000982528
0.000658985
0.000910153
0.000821004
0.000894976
0.00183607
0.00184402
0.00143646
0.00111919
0.00128297
0.00159649
0.000767743
0.000751348
0.00115905
0.000765014
0.00369698
0.00195343
0.00153358
0.00111861
0.000678043
0.000914138
0.00515308
0.000375306
0.000732376
0.000342636
0.000785868
0.000746776
0.00142093
0.0011878
0.000462599
0.00062122
0.00205663
0.00102901
0.000696384
0.000822528
0.000968565
0.000918664
0.000628492
0.00351278
0.000823091
0.00142988
0.000701134
0.000799866
0.00182582
0.000589618
0.000520488
0.00128438
0.000785315
0.00138211
0.000665283
0.0016702
0.00100395
0.00167431
0.000484758
0.00104506
0.000477871
0.00155838
0.0015136
0.000854451
0.000872146
0.000646666
0.00164066
0.000816198
0.000680506
0.00129236
0.00123325
0.00139271
0.00100532
0.00140857
0.00072912
0.000952127
0.000725852
0.000794353
0.000964583
0.00134463
0.00136192
0.00158277
0.000794597
0.00104024
0.000663013
0.0011666
0.00171069
0.000632799
0.000553717
0.000319739
0.00156007
0.0013465
0.00108698
0.000978455
0.000806099
0.00108299
0.00130583
0.00064854
0.00088964
0.00136615
0.000731851
0.000625398
0.00088168
0.00126219
)
;

boundaryField
{
    back
    {
        type            empty;
    }
    front
    {
        type            empty;
    }
    down
    {
        type            calculated;
    }
    right
    {
        type            calculated;
    }
    up
    {
        type            calculated;
    }
    left
    {
        type            calculated;
    }
    hole
    {
        type            calculated;
    }
}


// ************************************************************************* //
