/*--------------------------------*- C++ -*----------------------------------*\
| =========                 |                                                 |
| \\      /  F ield         | OpenFOAM: The Open Source CFD Toolbox           |
|  \\    /   O peration     | Version:  v2012                                 |
|   \\  /    A nd           | Website:  www.openfoam.com                      |
|    \\/     M anipulation  |                                                 |
\*---------------------------------------------------------------------------*/
FoamFile
{
    version     2.0;
    format      ascii;
    class       pointVectorField;
    location    "14";
    object      pointD;
}
// * * * * * * * * * * * * * * * * * * * * * * * * * * * * * * * * * * * * * //

dimensions      [0 1 0 0 0 0 0];


internalField   nonuniform List<vector> 
530
(
(0.00245884 0 0)
(0.00331515 0 0)
(0.00305867 -0.00025982 0)
(0 -0.00184147 0)
(0 -0.000971881 0)
(0.00245884 0 0)
(0.00331515 0 0)
(0.00305867 -0.00025982 0)
(0 -0.00184147 0)
(0 -0.000971881 0)
(0.00249201 0 0)
(0.00251647 0 0)
(0.00253267 0 0)
(0.00255743 0 0)
(0.00259171 0 0)
(0.00263509 0 0)
(0.00268612 0 0)
(0.00274507 0 0)
(0.00281179 0 0)
(0.00288513 0 0)
(0.00296544 0 0)
(0.00305086 0 0)
(0.00313783 0 0)
(0.00322689 0 0)
(0.00330991 -4.12363e-06 0)
(0.00329422 -1.07705e-05 0)
(0.00327128 -2.23878e-05 0)
(0.00324068 -3.84386e-05 0)
(0.00320746 -6.16281e-05 0)
(0.00317243 -9.20295e-05 0)
(0.00313768 -0.000128631 0)
(0.00310747 -0.000169975 0)
(0.00308126 -0.000214846 0)
(0.00295468 -0.000281647 0)
(0.00285008 -0.000301109 0)
(0.00274243 -0.000315769 0)
(0.00263056 -0.000325835 0)
(0.00251083 -0.000334167 0)
(0.00238072 -0.000339418 0)
(0.00224103 -0.000349961 0)
(0.00208762 -0.000363774 0)
(0.00192212 -0.000387801 0)
(0.00173973 -0.000424984 0)
(0.00154755 -0.000483628 0)
(0.00133857 -0.000569236 0)
(0.00112334 -0.000672367 0)
(0.000900988 -0.000817266 0)
(0.000685364 -0.0009918 0)
(0.000479642 -0.00119629 0)
(0.00030114 -0.00141822 0)
(0.000162498 -0.00162158 0)
(7.77503e-05 -0.00176811 0)
(0 -0.00178625 0)
(0 -0.00173071 0)
(0 -0.0016538 0)
(0 -0.00139727 0)
(0.000728139 -0.000941619 0)
(0.00128602 -0.00110329 0)
(0.0016211 -0.000949913 0)
(0.00189651 -0.000755507 0)
(0.00213136 -0.000548274 0)
(0.00230418 -0.000355092 0)
(0.00241319 -0.000176237 0)
(0.00249201 0 0)
(0.00251647 0 0)
(0.00253267 0 0)
(0.00255743 0 0)
(0.00259171 0 0)
(0.00263509 0 0)
(0.00268612 0 0)
(0.00274507 0 0)
(0.00281179 0 0)
(0.00288513 0 0)
(0.00296544 0 0)
(0.00305086 0 0)
(0.00313783 0 0)
(0.00322689 0 0)
(0.00330991 -4.12363e-06 0)
(0.00329422 -1.07705e-05 0)
(0.00327128 -2.23878e-05 0)
(0.00324068 -3.84386e-05 0)
(0.00320746 -6.16281e-05 0)
(0.00317243 -9.20295e-05 0)
(0.00313768 -0.000128631 0)
(0.00310747 -0.000169975 0)
(0.00308126 -0.000214846 0)
(0.00295468 -0.000281647 0)
(0.00285008 -0.000301109 0)
(0.00274243 -0.000315769 0)
(0.00263056 -0.000325835 0)
(0.00251083 -0.000334167 0)
(0.00238072 -0.000339418 0)
(0.00224103 -0.000349961 0)
(0.00208762 -0.000363774 0)
(0.00192212 -0.000387801 0)
(0.00173973 -0.000424984 0)
(0.00154755 -0.000483628 0)
(0.00133857 -0.000569236 0)
(0.00112334 -0.000672367 0)
(0.000900988 -0.000817266 0)
(0.000685364 -0.0009918 0)
(0.000479642 -0.00119629 0)
(0.00030114 -0.00141822 0)
(0.000162498 -0.00162158 0)
(7.77503e-05 -0.00176811 0)
(0 -0.00178625 0)
(0 -0.00173071 0)
(0 -0.0016538 0)
(0 -0.00139727 0)
(0.000728139 -0.000941619 0)
(0.00128602 -0.00110329 0)
(0.0016211 -0.000949913 0)
(0.00189651 -0.000755507 0)
(0.00213136 -0.000548274 0)
(0.00230418 -0.000355092 0)
(0.00241319 -0.000176237 0)
(0.00208323 -0.000154452 0)
(0.00266697 -0.000102369 0)
(0.00138097 -0.00057486 0)
(0.00223173 -0.000169609 0)
(0.00251651 -4.68163e-05 0)
(0.0028224 -0.000178208 0)
(0.00298552 -5.91255e-05 0)
(0.000707296 -0.00122004 0)
(0.00230425 -0.000103606 0)
(0.00162753 -0.000364472 0)
(0.00275152 -3.97957e-05 0)
(0.00246427 -0.000204906 0)
(0.00247575 -3.04824e-05 0)
(0.00188842 -0.00034186 0)
(0.0029996 -0.000104435 0)
(0.00188934 -0.000277721 0)
(0.00247081 -9.71699e-05 0)
(0.00228514 -0.000103968 0)
(0.000899563 -0.000926905 0)
(0.00123814 -0.000859437 0)
(0.00291122 -3.12027e-05 0)
(0.00262348 -0.000244195 0)
(0.00315552 -2.5184e-05 0)
(0.00290463 -0.000224721 0)
(0.00178795 -0.000305844 0)
(0.00122901 -0.000615129 0)
(0.00221047 -0.00025146 0)
(0.00267133 -1.95131e-05 0)
(0.00281677 -0.000123395 0)
(0.00282287 -6.68759e-05 0)
(0.000287012 -0.00160359 0)
(0.00203717 -0.000185798 0)
(0.00311327 -5.87868e-05 0)
(0.0029985 -0.000146691 0)
(0.00265437 -0.000170334 0)
(0.000598424 -0.00144823 0)
(0.0023313 -7.1193e-05 0)
(0.00259167 -1.58105e-05 0)
(0.00247342 -3.12789e-05 0)
(0.00243501 -8.04118e-05 0)
(0.00208366 -0.000173835 0)
(0.00219192 -0.000234275 0)
(0.00243771 -0.000147971 0)
(0.00262114 -5.10461e-05 0)
(0.00161183 -0.000397005 0)
(0.000557713 -0.00127688 0)
(0.00202812 -0.000284917 0)
(0.00303014 -2.43597e-05 0)
(0.00276684 -0.00025379 0)
(0.00167644 -0.000593389 0)
(0.00282476 -1.83431e-05 0)
(0.00248629 -0.000262539 0)
(0.00232914 -7.22577e-05 0)
(0.00152707 -0.00043868 0)
(0.00187843 -0.000240565 0)
(0.0010097 -0.000920811 0)
(0.00133453 -0.000536372 0)
(0.00104874 -0.00111325 0)
(0.00295002 -8.66633e-05 0)
(0.00256805 -0.000145358 0)
(0.00269869 -7.17654e-05 0)
(0.00255167 -1.12965e-05 0)
(0.00247356 -3.85655e-05 0)
(0.00153978 -0.000526506 0)
(0.00312391 -7.45971e-05 0)
(0.000958494 -0.000812869 0)
(0.00180773 -0.000280507 0)
(0.000263504 -0.00164023 0)
(0.00233961 -0.000284333 0)
(0.00276649 -1.0827e-05 0)
(0.00232803 -0.000118543 0)
(0.00206308 -0.000205368 0)
(0.00242402 -7.82431e-05 0)
(0.00196858 -0.000409649 0)
(0.00289399 -0.000137179 0)
(0.00302269 -0.000170466 0)
(0.0031925 -3.43213e-05 0)
(0.00116933 -0.000697669 0)
(0.00175968 -0.000351654 0)
(0.00211213 -0.000199886 0)
(0.00278696 -9.67215e-05 0)
(0.00321467 -1.32058e-05 0)
(0.00297751 -0.000234403 0)
(0.00254338 -0.000113703 0)
(0.003081 -0.000107627 0)
(0.00248689 -3.4956e-05 0)
(0.00239739 -6.63293e-05 0)
(0.00213652 -0.000222244 0)
(0.00229444 -0.000191399 0)
(0.00265618 -8.45134e-06 0)
(0.00258779 -2.53118e-05 0)
(0.00283002 -4.52754e-05 0)
(0.00267489 -3.55021e-05 0)
(0.00290794 -5.28571e-05 0)
(0.00215602 -0.00013297 0)
(0.00218453 -0.000147164 0)
(0.00270481 -0.000132073 0)
(0.00291111 -0.00018309 0)
(0.00308072 -4.84482e-05 0)
(0.000664266 -0.00111408 0)
(0.000356434 -0.00147991 0)
(0.00157403 -0.000758171 0)
(0.00271069 -0.000200629 0)
(0.00290469 -1.23174e-05 0)
(0.00193185 -0.000257635 0)
(0.00256966 -0.000292218 0)
(0.00111518 -0.000677094 0)
(0.00255992 -0.000213727 0)
(0.00221412 -0.000106198 0)
(0.00310908 -1.54021e-05 0)
(0.0028468 -0.00026215 0)
(0.00260567 -7.51467e-05 0)
(0.0027728 -0.000156914 0)
(0.000961022 -0.0010553 0)
(0.000757997 -0.00111268 0)
(0.0016028 -0.000434726 0)
(0.000130976 -0.00173843 0)
(0.00210356 -0.00030515 0)
(0.00129923 -0.000704842 0)
(0.00235494 -0.00018651 0)
(0.00303511 -7.96145e-05 0)
(0.00197469 -0.000205782 0)
(0.00288583 -7.68621e-05 0)
(0.000971526 -0.00126465 0)
(0.000490257 -0.00143918 0)
(0.00143577 -0.000479372 0)
(0.0023454 -0.000230386 0)
(0.00298086 -4.02995e-05 0)
(0.00281148 -0.00021298 0)
(0.000459069 -0.00136266 0)
(0.00259593 -8.85481e-06 0)
(0.0023713 -6.56494e-05 0)
(0.00253303 -1.07412e-05 0)
(0.00246547 -7.86145e-05 0)
(0.00231889 -0.000133811 0)
(0.00187567 -0.000348503 0)
(0.00199739 -0.000190107 0)
(0.00270874 -7.491e-06 0)
(0.00240605 -6.73831e-05 0)
(0.000748588 -0.00126181 0)
(0.00236135 -0.000138969 0)
(0.00318993 -4.64926e-05 0)
(0.00308292 -0.000129517 0)
(0.00268157 -0.000285464 0)
(0.00223465 -0.000112578 0)
(0.00297409 -1.30827e-05 0)
(0.000282946 -0.00154872 0)
(0.00297635 -0.000131464 0)
(0.000151007 -0.001708 0)
(0.00219528 -0.00034465 0)
(0.00253401 -6.00336e-05 0)
(0.000505821 -0.00137653 0)
(0.00274718 -2.53801e-05 0)
(0.00253578 -2.20661e-05 0)
(0.00200664 -0.000252064 0)
(0.00237975 -5.48496e-05 0)
(0.00171469 -0.000324798 0)
(0.00260455 -3.53878e-05 0)
(0.00117217 -0.000744157 0)
(0.00221377 -0.000107746 0)
(0.00144224 -0.000485943 0)
(0.00249552 -2.3835e-05 0)
(0.00243109 -0.000182777 0)
(0.00249005 -3.71426e-05 0)
(0.00133925 -0.000560627 0)
(0.00153298 -0.00042064 0)
(0.00291729 -0.000156097 0)
(0.00302206 -0.000198335 0)
(0.00323051 -2.00067e-05 0)
(0.00133535 -0.00100106 0)
(0.0029026 -0.000113134 0)
(0.00306168 -3.5083e-05 0)
(0.00192095 -0.00024131 0)
(0.00219791 -0.000309043 0)
(0.00148824 -0.000644178 0)
(0.00254106 -0.000181455 0)
(0.00173445 -0.000324566 0)
(0.00276026 -5.74264e-05 0)
(0.00271669 -0.000239475 0)
(0.00269385 -5.2191e-05 0)
(0.00275037 -8.10008e-05 0)
(0.0022918 -8.94095e-05 0)
(0.00175347 -0.000377663 0)
(0.00190434 -0.000301194 0)
(0.00047604 -0.00129478 0)
(0.00185619 -0.000591815 0)
(0.00204136 -0.000291836 0)
(0.00242161 -4.40577e-05 0)
(0.000200938 -0.00165755 0)
(0.000744834 -0.000992728 0)
(0.00281352 -3.20312e-05 0)
(0.00284304 -8.04764e-06 0)
(0.00251607 -1.65026e-05 0)
(0.00160808 -0.000423524 0)
(0.00178667 -0.000284942 0)
(0.00245633 -0.000303977 0)
(0.00245652 -0.00012137 0)
(0.00286879 -9.97542e-05 0)
(0.00243278 -0.000239334 0)
(0.00171551 -0.000472497 0)
(0.00317099 -8.86692e-06 0)
(0.00290505 -0.000267445 0)
(0.00199288 -0.00033521 0)
(0.00303406 -6.60515e-05 0)
(0.00326466 -4.6794e-06 0)
(0.00301342 -0.000247426 0)
(0.00190665 -0.000231516 0)
(0.00208323 -0.000154452 0)
(0.00266697 -0.000102369 0)
(0.00138097 -0.00057486 0)
(0.00223173 -0.000169609 0)
(0.00251651 -4.68163e-05 0)
(0.0028224 -0.000178208 0)
(0.00298552 -5.91255e-05 0)
(0.000707296 -0.00122004 0)
(0.00230425 -0.000103606 0)
(0.00162753 -0.000364472 0)
(0.00275152 -3.97957e-05 0)
(0.00246427 -0.000204906 0)
(0.00247575 -3.04824e-05 0)
(0.00188842 -0.00034186 0)
(0.0029996 -0.000104435 0)
(0.00188934 -0.000277721 0)
(0.00247081 -9.71699e-05 0)
(0.00228514 -0.000103968 0)
(0.000899563 -0.000926905 0)
(0.00123814 -0.000859437 0)
(0.00291122 -3.12027e-05 0)
(0.00262348 -0.000244195 0)
(0.00315552 -2.5184e-05 0)
(0.00290463 -0.000224721 0)
(0.00178795 -0.000305844 0)
(0.00122901 -0.000615129 0)
(0.00221047 -0.00025146 0)
(0.00267133 -1.95131e-05 0)
(0.00281677 -0.000123395 0)
(0.00282287 -6.68759e-05 0)
(0.000287012 -0.00160359 0)
(0.00203717 -0.000185798 0)
(0.00311327 -5.87868e-05 0)
(0.0029985 -0.000146691 0)
(0.00265437 -0.000170334 0)
(0.000598424 -0.00144823 0)
(0.0023313 -7.1193e-05 0)
(0.00259167 -1.58105e-05 0)
(0.00247342 -3.12789e-05 0)
(0.00243501 -8.04118e-05 0)
(0.00208366 -0.000173835 0)
(0.00219192 -0.000234275 0)
(0.00243771 -0.000147971 0)
(0.00262114 -5.10461e-05 0)
(0.00161183 -0.000397005 0)
(0.000557713 -0.00127688 0)
(0.00202812 -0.000284917 0)
(0.00303014 -2.43597e-05 0)
(0.00276684 -0.00025379 0)
(0.00167644 -0.000593389 0)
(0.00282476 -1.83431e-05 0)
(0.00248629 -0.000262539 0)
(0.00232914 -7.22577e-05 0)
(0.00152707 -0.00043868 0)
(0.00187843 -0.000240565 0)
(0.0010097 -0.000920811 0)
(0.00133453 -0.000536372 0)
(0.00104874 -0.00111325 0)
(0.00295002 -8.66633e-05 0)
(0.00256805 -0.000145358 0)
(0.00269869 -7.17654e-05 0)
(0.00255167 -1.12965e-05 0)
(0.00247356 -3.85655e-05 0)
(0.00153978 -0.000526506 0)
(0.00312391 -7.45971e-05 0)
(0.000958494 -0.000812869 0)
(0.00180773 -0.000280507 0)
(0.000263504 -0.00164023 0)
(0.00233961 -0.000284333 0)
(0.00276649 -1.0827e-05 0)
(0.00232803 -0.000118543 0)
(0.00206308 -0.000205368 0)
(0.00242402 -7.82431e-05 0)
(0.00196858 -0.000409649 0)
(0.00289399 -0.000137179 0)
(0.00302269 -0.000170466 0)
(0.0031925 -3.43213e-05 0)
(0.00116933 -0.000697669 0)
(0.00175968 -0.000351654 0)
(0.00211213 -0.000199886 0)
(0.00278696 -9.67215e-05 0)
(0.00321467 -1.32058e-05 0)
(0.00297751 -0.000234403 0)
(0.00254338 -0.000113703 0)
(0.003081 -0.000107627 0)
(0.00248689 -3.4956e-05 0)
(0.00239739 -6.63293e-05 0)
(0.00213652 -0.000222244 0)
(0.00229444 -0.000191399 0)
(0.00265618 -8.45134e-06 0)
(0.00258779 -2.53118e-05 0)
(0.00283002 -4.52754e-05 0)
(0.00267489 -3.55021e-05 0)
(0.00290794 -5.28571e-05 0)
(0.00215602 -0.00013297 0)
(0.00218453 -0.000147164 0)
(0.00270481 -0.000132073 0)
(0.00291111 -0.00018309 0)
(0.00308072 -4.84482e-05 0)
(0.000664266 -0.00111408 0)
(0.000356434 -0.00147991 0)
(0.00157403 -0.000758171 0)
(0.00271069 -0.000200629 0)
(0.00290469 -1.23174e-05 0)
(0.00193185 -0.000257635 0)
(0.00256966 -0.000292218 0)
(0.00111518 -0.000677094 0)
(0.00255992 -0.000213727 0)
(0.00221412 -0.000106198 0)
(0.00310908 -1.54021e-05 0)
(0.0028468 -0.00026215 0)
(0.00260567 -7.51467e-05 0)
(0.0027728 -0.000156914 0)
(0.000961022 -0.0010553 0)
(0.000757997 -0.00111268 0)
(0.0016028 -0.000434726 0)
(0.000130976 -0.00173843 0)
(0.00210356 -0.00030515 0)
(0.00129923 -0.000704842 0)
(0.00235494 -0.00018651 0)
(0.00303511 -7.96145e-05 0)
(0.00197469 -0.000205782 0)
(0.00288583 -7.68621e-05 0)
(0.000971526 -0.00126465 0)
(0.000490257 -0.00143918 0)
(0.00143577 -0.000479372 0)
(0.0023454 -0.000230386 0)
(0.00298086 -4.02995e-05 0)
(0.00281148 -0.00021298 0)
(0.000459069 -0.00136266 0)
(0.00259593 -8.85481e-06 0)
(0.0023713 -6.56494e-05 0)
(0.00253303 -1.07412e-05 0)
(0.00246547 -7.86145e-05 0)
(0.00231889 -0.000133811 0)
(0.00187567 -0.000348503 0)
(0.00199739 -0.000190107 0)
(0.00270874 -7.491e-06 0)
(0.00240605 -6.73831e-05 0)
(0.000748588 -0.00126181 0)
(0.00236135 -0.000138969 0)
(0.00318993 -4.64926e-05 0)
(0.00308292 -0.000129517 0)
(0.00268157 -0.000285464 0)
(0.00223465 -0.000112578 0)
(0.00297409 -1.30827e-05 0)
(0.000282946 -0.00154872 0)
(0.00297635 -0.000131464 0)
(0.000151007 -0.001708 0)
(0.00219528 -0.00034465 0)
(0.00253401 -6.00336e-05 0)
(0.000505821 -0.00137653 0)
(0.00274718 -2.53801e-05 0)
(0.00253578 -2.20661e-05 0)
(0.00200664 -0.000252064 0)
(0.00237975 -5.48496e-05 0)
(0.00171469 -0.000324798 0)
(0.00260455 -3.53878e-05 0)
(0.00117217 -0.000744157 0)
(0.00221377 -0.000107746 0)
(0.00144224 -0.000485943 0)
(0.00249552 -2.3835e-05 0)
(0.00243109 -0.000182777 0)
(0.00249005 -3.71426e-05 0)
(0.00133925 -0.000560627 0)
(0.00153298 -0.00042064 0)
(0.00291729 -0.000156097 0)
(0.00302206 -0.000198335 0)
(0.00323051 -2.00067e-05 0)
(0.00133535 -0.00100106 0)
(0.0029026 -0.000113134 0)
(0.00306168 -3.5083e-05 0)
(0.00192095 -0.00024131 0)
(0.00219791 -0.000309043 0)
(0.00148824 -0.000644178 0)
(0.00254106 -0.000181455 0)
(0.00173445 -0.000324566 0)
(0.00276026 -5.74264e-05 0)
(0.00271669 -0.000239475 0)
(0.00269385 -5.2191e-05 0)
(0.00275037 -8.10008e-05 0)
(0.0022918 -8.94095e-05 0)
(0.00175347 -0.000377663 0)
(0.00190434 -0.000301194 0)
(0.00047604 -0.00129478 0)
(0.00185619 -0.000591815 0)
(0.00204136 -0.000291836 0)
(0.00242161 -4.40577e-05 0)
(0.000200938 -0.00165755 0)
(0.000744834 -0.000992728 0)
(0.00281352 -3.20312e-05 0)
(0.00284304 -8.04764e-06 0)
(0.00251607 -1.65026e-05 0)
(0.00160808 -0.000423524 0)
(0.00178667 -0.000284942 0)
(0.00245633 -0.000303977 0)
(0.00245652 -0.00012137 0)
(0.00286879 -9.97542e-05 0)
(0.00243278 -0.000239334 0)
(0.00171551 -0.000472497 0)
(0.00317099 -8.86692e-06 0)
(0.00290505 -0.000267445 0)
(0.00199288 -0.00033521 0)
(0.00303406 -6.60515e-05 0)
(0.00326466 -4.6794e-06 0)
(0.00301342 -0.000247426 0)
(0.00190665 -0.000231516 0)
)
;

boundaryField
{
    back
    {
        type            empty;
    }
    front
    {
        type            empty;
    }
    down
    {
        type            pointFixedDisplacementZeroShear;
    }
    right
    {
        type            pointSolidTraction;
        tractionSeries  
{
        fileName        "$FOAM_CASE/constant/timeVsTraction";
        outOfBounds     clamp;
}
        pressure        uniform 0;
    }
    up
    {
        type            pointSolidTraction;
        traction        uniform (0 0 0);
        pressure        uniform 0;
    }
    left
    {
        type            pointFixedDisplacementZeroShear;
    }
    hole
    {
        type            pointSolidTraction;
        traction        uniform (0 0 0);
        pressure        uniform 0;
    }
}


// ************************************************************************* //
