/*--------------------------------*- C++ -*----------------------------------*\
| =========                 |                                                 |
| \\      /  F ield         | OpenFOAM: The Open Source CFD Toolbox           |
|  \\    /   O peration     | Version:  v2012                                 |
|   \\  /    A nd           | Website:  www.openfoam.com                      |
|    \\/     M anipulation  |                                                 |
\*---------------------------------------------------------------------------*/
FoamFile
{
    version     2.0;
    format      ascii;
    class       pointScalarField;
    location    "10";
    object      pEpsilonEq;
}
// * * * * * * * * * * * * * * * * * * * * * * * * * * * * * * * * * * * * * //

dimensions      [0 0 0 0 0 0 0];


internalField   nonuniform List<scalar> 
7900
(
0.00256266
0.000996531
0.00147065
0.000895745
0.0131682
0.00256266
0.000996531
0.00147065
0.000895745
0.0131682
0.00211625
0.00167426
0.00139175
0.00111382
0.000904165
0.000759434
0.00064905
0.000570358
0.000501873
0.000451054
0.000405404
0.000399075
0.00038775
0.000383127
0.000395286
0.000400716
0.000413972
0.000432768
0.000449585
0.00047419
0.000502
0.000521342
0.000548803
0.000570799
0.000600106
0.000623143
0.000648936
0.000677776
0.000701688
0.000730374
0.000752148
0.000778326
0.000805198
0.000827987
0.000853067
0.000875067
0.00089472
0.000915591
0.000936801
0.000958033
0.000976783
0.000994126
0.00100791
0.00102417
0.00103982
0.00105161
0.00105994
0.00107043
0.00107692
0.00108077
0.00108409
0.00108585
0.00108319
0.00107968
0.00107152
0.00106394
0.00104773
0.00102855
0.00101186
0.000995039
0.000985759
0.00100755
0.0010049
0.00101459
0.00102179
0.00102877
0.00103989
0.00105414
0.00106406
0.00108064
0.00109636
0.00110871
0.00113074
0.00115005
0.00116375
0.00118553
0.00121022
0.00122597
0.0012508
0.00126955
0.00128844
0.00131382
0.00133533
0.00134988
0.00137233
0.00139079
0.00140351
0.00142045
0.00143421
0.00144739
0.00145513
0.00146582
0.00147027
0.00147406
0.0014766
0.00147424
0.00147546
0.00147249
0.0014686
0.00146617
0.0014658
0.00146375
0.00146571
0.0014687
0.00147639
0.00148277
0.00149774
0.00150923
0.00152763
0.001542
0.0015651
0.00158186
0.00160603
0.00163635
0.00166447
0.00168703
0.00171935
0.00175036
0.00178748
0.00182303
0.00185754
0.00189299
0.00193709
0.00196938
0.00201729
0.00205073
0.00210147
0.00213933
0.00219059
0.00222705
0.00228856
0.00232799
0.00238123
0.00241886
0.00247719
0.00251619
0.00257802
0.00262434
0.00265755
0.00272098
0.00275252
0.00279507
0.00284897
0.00288317
0.00290453
0.0029533
0.00296972
0.00300458
0.00304339
0.00310131
0.00314023
0.0031324
0.00312243
0.00307126
0.00310732
0.00313813
0.00300227
0.00296873
0.00293713
0.00287337
0.00280737
0.0027198
0.00263191
0.00252791
0.00238255
0.00227044
0.00209828
0.00192114
0.0017916
0.0016445
0.00144723
0.00133757
0.00123966
0.00105375
0.00101185
0.000903423
0.000844672
0.00117117
0.00139197
0.00162108
0.00183577
0.00204065
0.00220534
0.00235081
0.00247378
0.00269617
0.00295452
0.0033273
0.00398128
0.00493334
0.0062717
0.00777113
0.00940911
0.0108945
0.0120021
0.0122222
0.0144372
0.0137182
0.0121422
0.0108225
0.0103327
0.00891272
0.0063947
0.00466648
0.00338036
0.00271351
0.00243394
0.00208243
0.00171726
0.00139122
0.0010519
0.000683543
0.000447406
0.000209301
0.000434851
0.00070401
0.000979828
0.00126077
0.00142971
0.00169815
0.00187615
0.00209912
0.0022056
0.00229863
0.00239753
0.00247182
0.00247994
0.00211625
0.00167426
0.00139175
0.00111382
0.000904165
0.000759434
0.00064905
0.000570358
0.000501873
0.000451054
0.000405404
0.000399075
0.00038775
0.000383127
0.000395286
0.000400716
0.000413972
0.000432768
0.000449585
0.00047419
0.000502
0.000521342
0.000548803
0.000570799
0.000600106
0.000623143
0.000648936
0.000677776
0.000701688
0.000730374
0.000752148
0.000778326
0.000805198
0.000827987
0.000853067
0.000875067
0.00089472
0.000915591
0.000936801
0.000958033
0.000976783
0.000994126
0.00100791
0.00102417
0.00103982
0.00105161
0.00105994
0.00107043
0.00107692
0.00108077
0.00108409
0.00108585
0.00108319
0.00107968
0.00107152
0.00106394
0.00104773
0.00102855
0.00101186
0.000995039
0.000985759
0.00100755
0.0010049
0.00101459
0.00102179
0.00102877
0.00103989
0.00105414
0.00106406
0.00108064
0.00109636
0.00110871
0.00113074
0.00115005
0.00116375
0.00118553
0.00121022
0.00122597
0.0012508
0.00126955
0.00128844
0.00131382
0.00133533
0.00134988
0.00137233
0.00139079
0.00140351
0.00142045
0.00143421
0.00144739
0.00145513
0.00146582
0.00147027
0.00147406
0.0014766
0.00147424
0.00147546
0.00147249
0.0014686
0.00146617
0.0014658
0.00146375
0.00146571
0.0014687
0.00147639
0.00148277
0.00149774
0.00150923
0.00152763
0.001542
0.0015651
0.00158186
0.00160603
0.00163635
0.00166447
0.00168703
0.00171935
0.00175036
0.00178748
0.00182303
0.00185754
0.00189299
0.00193709
0.00196938
0.00201729
0.00205073
0.00210147
0.00213933
0.00219059
0.00222705
0.00228856
0.00232799
0.00238123
0.00241886
0.00247719
0.00251619
0.00257802
0.00262434
0.00265755
0.00272098
0.00275252
0.00279507
0.00284897
0.00288317
0.00290453
0.0029533
0.00296972
0.00300458
0.00304339
0.00310131
0.00314023
0.0031324
0.00312243
0.00307126
0.00310732
0.00313813
0.00300227
0.00296873
0.00293713
0.00287337
0.00280737
0.0027198
0.00263191
0.00252791
0.00238255
0.00227044
0.00209828
0.00192114
0.0017916
0.0016445
0.00144723
0.00133757
0.00123966
0.00105375
0.00101185
0.000903423
0.000844672
0.00117117
0.00139197
0.00162108
0.00183577
0.00204065
0.00220534
0.00235081
0.00247378
0.00269617
0.00295452
0.0033273
0.00398128
0.00493334
0.0062717
0.00777113
0.00940911
0.0108945
0.0120021
0.0122222
0.0144372
0.0137182
0.0121422
0.0108225
0.0103327
0.00891272
0.0063947
0.00466648
0.00338036
0.00271351
0.00243394
0.00208243
0.00171726
0.00139122
0.0010519
0.000683543
0.000447406
0.000209301
0.000434851
0.00070401
0.000979828
0.00126077
0.00142971
0.00169815
0.00187615
0.00209912
0.0022056
0.00229863
0.00239753
0.00247182
0.00247994
0.00188386
0.00147519
0.00260653
0.00149233
0.00122547
0.00192045
0.00122829
0.00328593
0.00137598
0.00239285
0.00171816
0.00111572
0.0020858
0.0010157
0.00131921
0.00227644
0.00166678
0.00112794
0.00147988
0.00140223
0.00280245
0.00265593
0.00195111
0.000935416
0.00264675
0.00224215
0.00163726
0.00108662
0.00171871
0.00126963
0.00201621
0.00271004
0.000811458
0.00155187
0.00120455
0.00139142
0.001474
0.0040532
0.00101449
0.00217355
0.000812069
0.00185278
0.00155955
0.00129651
0.00145753
0.00289724
0.00253251
0.00211742
0.00141077
0.00185596
0.000927822
0.00245327
0.0021679
0.00285164
0.00278578
0.00156147
0.00109768
0.00159701
0.00118446
0.00266857
0.00140185
0.00246573
0.00174801
0.00099008
0.000672707
0.00277812
0.00108108
0.00147333
0.00130938
0.00345974
0.00124331
0.0022352
0.00115241
0.00157505
0.00174455
0.00145415
0.000757444
0.00131768
0.00268449
0.00177999
0.00113371
0.00142489
0.00152486
0.00115525
0.00149111
0.00129707
0.00206934
0.00237423
0.00183345
0.00188646
0.00111524
0.00180758
0.00108646
0.00211609
0.00166222
0.00132272
0.0027756
0.000685733
0.00145524
0.000597982
0.0021004
0.00245063
0.00159114
0.0021776
0.000818985
0.00143597
0.00109966
0.0015084
0.00205057
0.00188466
0.00291378
0.00164697
0.00141565
0.00141755
0.00270468
0.00241016
0.00294139
0.00095431
0.00202577
0.00199364
0.00120119
0.00116929
0.00252526
0.00251842
0.00280106
0.00162879
0.0010544
0.00202225
0.00145867
0.00115879
0.00320352
0.00169755
0.00107026
0.0012648
0.0017728
0.00131237
0.00780525
0.00383928
0.00102491
0.00201037
0.00127222
0.00126773
0.00164357
0.00350087
0.000609279
0.00262466
0.00156947
0.00115675
0.00129376
0.00273442
0.00215704
0.000935855
0.0015775
0.00118308
0.00119674
0.00322775
0.00135515
0.00103199
0.00231132
0.00156203
0.00478999
0.0025777
0.00136166
0.0027212
0.00251516
0.00108074
0.00144984
0.00163411
0.00119351
0.00249292
0.00236043
0.0011897
0.00232382
0.00086865
0.000532425
0.00183266
0.000920321
0.00228009
0.00243375
0.00139199
0.00136722
0.00177035
0.00162224
0.00116195
0.00177507
0.00101305
0.00142655
0.00224953
0.00263446
0.0018833
0.000975783
0.000803837
0.00201899
0.00280643
0.0018196
0.00169425
0.0010065
0.00224745
0.00205972
0.00157477
0.00111308
0.00141854
0.00166131
0.00212481
0.00136836
0.00115995
0.00148241
0.00172907
0.00248701
0.0027407
0.00125458
0.00266894
0.0021644
0.000646387
0.00163646
0.000852511
0.00126446
0.00287859
0.00286819
0.00192559
0.00238126
0.00215871
0.00183202
0.00137435
0.00154011
0.00108524
0.00104943
0.00147223
0.00113452
0.00150988
0.00333642
0.000740693
0.00203864
0.00203836
0.00152472
0.00112282
0.0026032
0.00282068
0.00155921
0.00153218
0.0012288
0.00125034
0.00139212
0.00159722
0.00129738
0.000508395
0.00127895
0.00145964
0.00282819
0.0029656
0.00262769
0.00134226
0.00165191
0.00143108
0.00284655
0.00146515
0.00238211
0.00108379
0.00148583
0.00136508
0.00237103
0.00223844
0.00154225
0.00277434
0.000782683
0.00278205
0.00162868
0.00112572
0.00257109
0.00124457
0.00126851
0.00275224
0.00109628
0.00158279
0.00106825
0.00110755
0.00146706
0.000824035
0.0017932
0.00103901
0.00240631
0.00260385
0.00142807
0.00172513
0.00180788
0.00116601
0.00134267
0.00239729
0.00210085
0.00199886
0.00115688
0.00173363
0.00199749
0.00148734
0.00252836
0.00168239
0.00104017
0.000554542
0.00322059
0.00210012
0.00175503
0.00196017
0.00288395
0.00124224
0.000822383
0.00134406
0.0018417
0.00200606
0.00224789
0.00136313
0.00176469
0.000956863
0.00165141
0.00114516
0.00120843
0.000757961
0.000482639
0.00105264
0.00146389
0.00267857
0.00227376
0.00104719
0.00188015
0.00111606
0.0010382
0.00397247
0.00131933
0.00196585
0.00118408
0.00192414
0.00201931
0.00329927
0.00133379
0.00173697
0.00118943
0.00287463
0.00211267
0.00141014
0.00122802
0.00104207
0.00156415
0.00109118
0.0014302
0.00141797
0.00358305
0.00148825
0.00274548
0.00150575
0.00787584
0.00164896
0.00230128
0.00153249
0.00150173
0.00136609
0.00188014
0.00116826
0.00152468
0.00283838
0.00155466
0.00226561
0.0021168
0.00120761
0.00144492
0.00135314
0.00189778
0.00243347
0.00166029
0.000830498
0.000674147
0.000863528
0.00191351
0.00151445
0.00112765
0.00120054
0.00173148
0.00151802
0.00377369
0.000892206
0.00217034
0.0016821
0.000895349
0.00730094
0.00139584
0.000546434
0.00111095
0.00149192
0.00179722
0.000971892
0.00247091
0.00192122
0.00226247
0.00111801
0.00127988
0.00126688
0.00267766
0.0010067
0.00210927
0.00162603
0.00242917
0.0026431
0.00181166
0.00121091
0.00153056
0.00275033
0.00286304
0.00186046
0.00216489
0.00142948
0.000642169
0.00167537
0.00310662
0.000971021
0.000705883
0.00161447
0.00108104
0.00261963
0.00203186
0.00202514
0.00526088
0.00152967
0.00110658
0.00148811
0.00160266
0.0016683
0.00267775
0.00241827
0.00276242
0.00229945
0.00285914
0.0116602
0.00117631
0.00280019
0.00290548
0.00121985
0.00130428
0.00256585
0.00131654
0.00249151
0.0013565
0.00252591
0.00251202
0.00256787
0.000908601
0.00111683
0.00110712
0.00276278
0.00126815
0.000798153
0.0016485
0.00102632
0.00382632
0.00129035
0.00142079
0.00155311
0.00179222
0.00119611
0.00101315
0.00362318
0.000449762
0.00302943
0.00537537
0.000617533
0.00232154
0.00151286
0.00108933
0.00194073
0.00179217
0.000812484
0.00200642
0.00257395
0.0024699
0.00210344
0.00148604
0.00103484
0.00267182
0.00119728
0.00287918
0.000880045
0.00179032
0.0021824
0.00174022
0.00102371
0.00125093
0.00269775
0.00196982
0.00135793
0.00193733
0.00120935
0.00294512
0.00225219
0.00300277
0.00280709
0.002515
0.00314619
0.00160674
0.00277179
0.00230469
0.00142284
0.00175363
0.00139028
0.0023318
0.00132567
0.00106691
0.00147344
0.00249245
0.000637789
0.0011107
0.00243618
0.00153646
0.00186327
0.00208511
0.00144415
0.00212776
0.00267623
0.000579349
0.00142352
0.000873013
0.00172629
0.00107169
0.00144991
0.00167256
0.00107146
0.00122302
0.00306276
0.00116794
0.002732
0.00267394
0.00198909
0.00127946
0.00121819
0.00174612
0.00159641
0.00107762
0.00273543
0.00128359
0.00171763
0.00277574
0.0014121
0.00134288
0.00128783
0.00244041
0.00115036
0.00192976
0.00159616
0.0015559
0.00112163
0.00102341
0.00145383
0.00307653
0.00188904
0.00170573
0.00174116
0.00140003
0.00116274
0.000908651
0.00132954
0.00137384
0.00214736
0.00128891
0.00116099
0.00428554
0.00158555
0.00131739
0.001006
0.00109243
0.00148809
0.00155189
0.00112782
0.00122956
0.00200676
0.000825646
0.00248044
0.00157724
0.00208449
0.00138824
0.00372243
0.00195128
0.00153113
0.00117753
0.00264558
0.00161387
0.00104505
0.00165042
0.00104923
0.00252546
0.0023804
0.00162251
0.00139361
0.00053484
0.000979926
0.00159293
0.000936551
0.0014581
0.00254041
0.000753682
0.00160536
0.00182175
0.000985665
0.00137047
0.00209848
0.00233882
0.0028575
0.00102337
0.0029484
0.00129625
0.00231685
0.000894791
0.00153339
0.00160317
0.00237801
0.00224153
0.00221765
0.000645472
0.00197597
0.00271606
0.00264109
0.00111524
0.00118919
0.0014636
0.00186735
0.00110026
0.00108512
0.00158322
0.000729023
0.00168217
0.00160241
0.00158762
0.00124844
0.00121109
0.0016779
0.0011456
0.00256243
0.00138227
0.00291366
0.00205317
0.00117496
0.00231185
0.00273946
0.00105093
0.00145787
0.00181902
0.00092205
0.0018669
0.000653811
0.0022062
0.00239261
0.00278332
0.00111953
0.001506
0.0021854
0.00135134
0.00239381
0.00385349
0.00537032
0.00141271
0.00242532
0.000720009
0.00127037
0.00189453
0.00149397
0.0019456
0.00271394
0.00181845
0.000981243
0.00172277
0.00242569
0.00243887
0.0013319
0.00244529
0.00158999
0.00205535
0.00256203
0.00117848
0.00151552
0.0016962
0.00114184
0.00206177
0.00182875
0.00103705
0.000440174
0.0024366
0.00134557
0.0022331
0.000752434
0.00124843
0.00149559
0.00260037
0.00108457
0.00146216
0.000782974
0.00182139
0.00280894
0.00102209
0.00147107
0.00106501
0.00106863
0.00115663
0.010509
0.0015237
0.00232952
0.00114966
0.00117454
0.00246611
0.00108621
0.00149143
0.00148783
0.00071016
0.00213507
0.00103135
0.00147055
0.00294815
0.00277884
0.00155247
0.00107298
0.00177957
0.00193817
0.0023209
0.00124016
0.00128194
0.00953835
0.00153337
0.0028772
0.00243645
0.00263121
0.000477441
0.00241311
0.00137226
0.0021061
0.00192439
0.00178491
0.000952481
0.00172017
0.00144106
0.00156276
0.00125896
0.00111306
0.00194242
0.00113862
0.0020714
0.00234364
0.00286154
0.0017669
0.00139865
0.00144539
0.00219465
0.00185794
0.00128627
0.00431357
0.00212808
0.000935485
0.00156431
0.00108173
0.0013965
0.0013348
0.00279178
0.00262847
0.00295847
0.00139939
0.00114922
0.00181079
0.00220292
0.00176346
0.00105346
0.00151634
0.00207045
0.00221094
0.00132249
0.000928969
0.000987755
0.00173124
0.00125965
0.0013295
0.00201835
0.000655695
0.00281282
0.00170843
0.00103466
0.00137277
0.00136503
0.00125126
0.00130427
0.000881281
0.00192408
0.0014265
0.00134716
0.0012508
0.00149123
0.00274132
0.00277905
0.00212574
0.0025571
0.00276462
0.00146344
0.00159092
0.00135288
0.000630981
0.00199339
0.0011367
0.00109706
0.00158129
0.0034496
0.00222432
0.000767806
0.00290647
0.00134184
0.00255111
0.00269285
0.00254281
0.00367861
0.00282381
0.00156759
0.00279582
0.00171355
0.00182528
0.00190483
0.0020588
0.000698571
0.00167908
0.00186532
0.00274395
0.0020503
0.000763571
0.000788539
0.00206882
0.00106109
0.00144747
0.00114889
0.00140035
0.00167144
0.00143075
0.001363
0.000944536
0.0019072
0.00106108
0.00146924
0.00240134
0.00165321
0.00112951
0.00124256
0.00165924
0.00103156
0.00215204
0.00138467
0.00131643
0.000896582
0.000825341
0.00135662
0.00236985
0.00209572
0.00114022
0.00202927
0.00124029
0.00174519
0.000554299
0.00117827
0.00272101
0.00270455
0.00129459
0.00232623
0.00229321
0.00146085
0.00146056
0.00100278
0.00168288
0.00255134
0.00121516
0.00152739
0.00121972
0.00231121
0.00233378
0.00109277
0.00136627
0.00170909
0.00119687
0.00208177
0.000450818
0.000921428
0.00224012
0.00219593
0.00175568
0.00160633
0.00170728
0.00200992
0.00165848
0.00158811
0.00140445
0.00126977
0.00258432
0.00276404
0.00142679
0.00114421
0.00128045
0.001528
0.00109426
0.00122881
0.00160375
0.00175518
0.00133153
0.00149591
0.00112287
0.00198455
0.00180881
0.00196853
0.00277742
0.00116445
0.00161885
0.00166718
0.00143316
0.00107621
0.00147763
0.00152578
0.00113554
0.00212876
0.00664321
0.00262878
0.00291828
0.0019386
0.00180934
0.00129989
0.00293807
0.00166168
0.00111016
0.00291054
0.00298711
0.00256528
0.0014711
0.00300296
0.00154454
0.00283992
0.00171883
0.00151928
0.00333631
0.00266814
0.00313302
0.00152379
0.00108545
0.00162582
0.00114675
0.00137264
0.00149827
0.00151766
0.00211017
0.00201059
0.00064016
0.000865659
0.00126444
0.00126124
0.000836704
0.00137974
0.00298624
0.00279827
0.0012486
0.00111726
0.00143457
0.00358687
0.00281561
0.00267858
0.00110959
0.00153311
0.00101828
0.00150587
0.00143805
0.00145016
0.000880648
0.00141386
0.00164902
0.0023697
0.00194859
0.00182617
0.000962764
0.00234929
0.00105258
0.00146982
0.000444018
0.00302937
0.00237404
0.00107846
0.00147771
0.00178354
0.00139049
0.00128564
0.00229642
0.0024492
0.00238673
0.0022669
0.00203979
0.00111094
0.0010947
0.0014763
0.000409415
0.000836205
0.00276753
0.0026275
0.00286462
0.00161132
0.00133181
0.00183638
0.00182766
0.00126548
0.00216523
0.0015112
0.00110736
0.00234452
0.000997334
0.000680463
0.00277902
0.0019332
0.0011241
0.00176129
0.00144089
0.0013675
0.000989842
0.00143433
0.00153451
0.0013018
0.00178123
0.00257519
0.00139552
0.00340994
0.00309038
0.00168709
0.00110359
0.000804673
0.00146228
0.0027144
0.0018978
0.00120706
0.00202016
0.00185967
0.0020422
0.00296518
0.00267127
0.00267502
0.00114279
0.00121566
0.00161238
0.000940289
0.00229255
0.0010923
0.00150068
0.000983125
0.000774887
0.00249363
0.00119908
0.00177012
0.000899094
0.00122315
0.00143036
0.00154548
0.0010945
0.00103349
0.00335229
0.00185556
0.000796885
0.00132168
0.00112329
0.00217839
0.000960589
0.00182384
0.00239643
0.000961353
0.00145021
0.000526996
0.00226217
0.00128078
0.00258444
0.00139544
0.00215806
0.00199874
0.000527006
0.000698093
0.00113038
0.00177109
0.0020115
0.00108121
0.00260654
0.00144501
0.00115793
0.00162057
0.00138269
0.00157537
0.00120419
0.00403738
0.00160778
0.00110434
0.000891593
0.00140162
0.00289325
0.002868
0.00142415
0.00129576
0.00150898
0.00251648
0.00151606
0.00183115
0.00164514
0.0010949
0.000589395
0.00188741
0.00284417
0.00124781
0.00155116
0.00294516
0.00148854
0.00258332
0.00253632
0.00146537
0.00158682
0.00105734
0.0016124
0.00154259
0.00342995
0.00152693
0.000877422
0.00151248
0.00178015
0.00217265
0.000930399
0.00139649
0.000706177
0.00118098
0.00131066
0.00211911
0.00276333
0.00146433
0.000895078
0.000495637
0.00218579
0.00160457
0.00189575
0.00261274
0.0014201
0.00160961
0.00298524
0.00115827
0.000880676
0.0012052
0.000878844
0.00135877
0.00135115
0.00244632
0.00171737
0.00170496
0.0022753
0.00118143
0.00110204
0.00364171
0.000534752
0.00138853
0.00171525
0.00222305
0.00168326
0.00102492
0.00231814
0.00213663
0.00183769
0.00159819
0.00106432
0.000998232
0.00083014
0.00101116
0.00171476
0.0016924
0.00163136
0.0011759
0.000538745
0.00129952
0.00284037
0.00205878
0.00188064
0.00129059
0.00165664
0.00106276
0.00141279
0.00126006
0.00264737
0.00163843
0.00263441
0.00130373
0.00232106
0.0012027
0.00190675
0.00148067
0.00177025
0.00270063
0.000779536
0.00250115
0.0020331
0.00203945
0.00271651
0.0010713
0.00103406
0.00146635
0.00144668
0.00126288
0.00183046
0.00155182
0.00106427
0.00273986
0.00113533
0.00062615
0.00260449
0.00171654
0.00274589
0.00141172
0.00268898
0.00109057
0.00152479
0.00148943
0.00190791
0.00704653
0.00229096
0.00284023
0.00363972
0.00143461
0.000735076
0.0030492
0.00276047
0.00145514
0.00111206
0.00141395
0.0028802
0.0012772
0.00484611
0.000784334
0.00239336
0.00165781
0.0022649
0.00124232
0.000728053
0.00279521
0.00447334
0.00135873
0.00115928
0.00256142
0.00179339
0.00100066
0.00209866
0.00126978
0.00185438
0.0018332
0.00266917
0.000415317
0.000721461
0.00669756
0.0017374
0.00104393
0.00191454
0.00328663
0.00331097
0.000590469
0.00244764
0.000755132
0.00131898
0.00110671
0.00226822
0.00101785
0.00147243
0.00146476
0.00281855
0.00157548
0.00120834
0.00120719
0.00196764
0.00150043
0.00147163
0.00224115
0.00259202
0.00167379
0.000794937
0.00201484
0.00293301
0.00177532
0.00211856
0.00151365
0.000909881
0.00176822
0.000949342
0.00298169
0.00175804
0.00128569
0.00165485
0.00249114
0.00205547
0.00122555
0.00121687
0.00122141
0.00136596
0.00276156
0.00222606
0.00176816
0.00100196
0.00190563
0.003937
0.00279465
0.00133571
0.00231456
0.00154672
0.00196774
0.00371435
0.00199488
0.00375105
0.00664465
0.00251634
0.00125884
0.00219306
0.00161326
0.000801597
0.00201683
0.00106998
0.00145852
0.00132059
0.00106557
0.00108335
0.000845143
0.00115095
0.00140206
0.00183863
0.00257095
0.0011496
0.00142017
0.00222995
0.00143653
0.00119771
0.00117257
0.00129224
0.0016873
0.00122887
0.00226145
0.00118013
0.00272108
0.00189522
0.00143541
0.002421
0.00191669
0.00288175
0.00148653
0.00312002
0.00286609
0.00120203
0.00331069
0.000921909
0.00117065
0.00272043
0.0127917
0.0018952
0.00114615
0.0022403
0.00161757
0.00295996
0.0025399
0.00156485
0.000914957
0.00131398
0.00113814
0.00212981
0.00370915
0.000971211
0.00175396
0.00206373
0.00266876
0.00228648
0.00889571
0.00175743
0.000869326
0.00285343
0.00291165
0.00133671
0.00107257
0.00110303
0.00149696
0.00129611
0.0016741
0.00152199
0.00147413
0.00600272
0.00198436
0.00144371
0.000570898
0.0019172
0.00332349
0.00173197
0.0014674
0.00462336
0.00131512
0.00255026
0.00151398
0.00157839
0.00253284
0.00131286
0.00260645
0.00187854
0.00076877
0.0011919
0.00133959
0.000881228
0.00170588
0.00110667
0.00148094
0.00162653
0.00103307
0.0013108
0.00240052
0.00587436
0.000838069
0.00106916
0.00146473
0.00159457
0.00256572
0.00120144
0.00166022
0.00109538
0.00176234
0.000991864
0.0018059
0.00231844
0.00219501
0.001064
0.00147418
0.00129613
0.00184328
0.00108818
0.00120939
0.00203111
0.0027738
0.000704434
0.00250531
0.0026704
0.00409164
0.0024696
0.00125829
0.00143203
0.00168704
0.00222428
0.00209561
0.00201972
0.00234353
0.000788993
0.00289056
0.00143836
0.00133897
0.00188664
0.00225324
0.00254502
0.00168956
0.00111548
0.00248193
0.00153622
0.0026917
0.00259557
0.00117539
0.00144235
0.00111183
0.000927955
0.00243281
0.00209165
0.00160016
0.0017117
0.00182112
0.00147321
0.001112
0.00194524
0.00133815
0.00131399
0.00339485
0.00120065
0.00109786
0.00266187
0.00264606
0.00227503
0.00169198
0.00292513
0.00133226
0.00118606
0.00123631
0.00225927
0.000667413
0.00154316
0.00128703
0.00171005
0.000543874
0.00268329
0.00110933
0.00163116
0.00103922
0.00149953
0.000597902
0.00197622
0.00245595
0.00246783
0.00154863
0.00131662
0.00303695
0.00128042
0.000606681
0.0024883
0.000916508
0.00198768
0.00211832
0.0016426
0.00170977
0.00256269
0.00137126
0.00155914
0.00171347
0.00199135
0.00157047
0.00271579
0.00245727
0.00131174
0.0024582
0.000468505
0.00206172
0.00121791
0.00271281
0.00109387
0.00237433
0.00187663
0.00161495
0.00106932
0.00220027
0.00137405
0.00160771
0.0109356
0.0122121
0.00119985
0.00132536
0.0013539
0.00264339
0.00126255
0.00211678
0.00214759
0.00112447
0.00178161
0.00289293
0.00115018
0.00112914
0.0010604
0.00127027
0.00233529
0.0017115
0.00104584
0.00194978
0.00871018
0.00212646
0.00276617
0.00163076
0.00107569
0.00132631
0.00158731
0.00107388
0.00992352
0.00118011
0.00177598
0.00202559
0.00087679
0.00113762
0.00162303
0.00116816
0.0029876
0.00120641
0.00148452
0.00273549
0.00142467
0.00194479
0.00134209
0.00205421
0.00461185
0.00221273
0.00343136
0.00267303
0.00161842
0.00256109
0.00114906
0.00108588
0.0014963
0.00203687
0.00114969
0.00122154
0.00274368
0.00196002
0.00153601
0.00274649
0.00230075
0.00075059
0.00137942
0.00153875
0.00158225
0.00107343
0.00287698
0.002675
0.00111954
0.000787069
0.000800593
0.00151999
0.00111664
0.00186412
0.00221424
0.0027073
0.00154492
0.00258945
0.00302625
0.00209562
0.00208225
0.0023838
0.00136747
0.00169054
0.00213831
0.00215935
0.00130251
0.00176395
0.00136083
0.00233828
0.00211273
0.00179094
0.0010228
0.00140981
0.00181922
0.00183694
0.000952886
0.00189334
0.00262181
0.00120135
0.00135844
0.00133574
0.00107545
0.00159235
0.00100378
0.00110192
0.0028229
0.00287366
0.000465425
0.00137057
0.00110341
0.00295396
0.00122437
0.00109416
0.00153836
0.00185264
0.00134577
0.00111305
0.00195717
0.00287251
0.00177255
0.00111689
0.00120191
0.00280283
0.00220367
0.00126208
0.00203649
0.00288551
0.00310501
0.00223704
0.00299626
0.00227856
0.00254908
0.00440043
0.000795923
0.00265346
0.00388017
0.00231359
0.00286222
0.000822046
0.00123407
0.0014762
0.00193463
0.00226588
0.00129996
0.0019278
0.00239866
0.00157737
0.000682454
0.0011772
0.00161268
0.00269602
0.000981983
0.00133476
0.00128544
0.00148252
0.00281914
0.000724359
0.00133575
0.00254676
0.00124493
0.00157193
0.00234701
0.00171901
0.00189442
0.00134878
0.00249954
0.00127997
0.00126814
0.00807704
0.00292183
0.00196229
0.000948439
0.00146777
0.00119696
0.00086744
0.00254771
0.00129013
0.00206257
0.00263997
0.00161482
0.00247865
0.00166215
0.00101666
0.00165631
0.00185317
0.00152612
0.00109231
0.0014948
0.000673345
0.00195152
0.000613443
0.000951002
0.00134699
0.00136705
0.00149627
0.000871818
0.00248536
0.00134809
0.00166981
0.00133893
0.00253597
0.00245207
0.00120303
0.0010431
0.00147177
0.00143781
0.000403259
0.00282897
0.00205587
0.00281302
0.00236982
0.0014111
0.00148061
0.00057017
0.00147833
0.00108284
0.00119081
0.00115456
0.00391878
0.00137913
0.00129195
0.00191163
0.00313246
0.00266223
0.00187298
0.00159747
0.00216669
0.00278178
0.00219575
0.00255753
0.00279055
0.0027912
0.00253338
0.00132626
0.000770898
0.00274406
0.00102785
0.00197931
0.00175701
0.00206122
0.00044705
0.00227367
0.00115425
0.00151856
0.0008519
0.00153604
0.00173374
0.00101414
0.000712326
0.00065625
0.00353237
0.00270807
0.00174621
0.00285966
0.000896395
0.00152573
0.0017566
0.000974325
0.00186883
0.00204333
0.00140943
0.0022419
0.00278932
0.00180346
0.000624242
0.00116817
0.00108342
0.00270598
0.00125705
0.00218938
0.00125895
0.00156283
0.00192096
0.00147195
0.00102029
0.002728
0.00164617
0.00242341
0.000977745
0.00304683
0.00261144
0.00120015
0.00116117
0.00138362
0.00260129
0.00210953
0.00239663
0.0019094
0.00118962
0.00147863
0.00238245
0.0028383
0.00141291
0.00139444
0.0015508
0.00267026
0.0011784
0.00147545
0.00180536
0.00246787
0.00161553
0.0013878
0.00124135
0.00112676
0.00093104
0.00180658
0.00225462
0.00106881
0.00146877
0.00202664
0.00151155
0.00140771
0.00109733
0.00144398
0.00186612
0.00195845
0.00155252
0.00281478
0.00242185
0.00167287
0.00101637
0.00145578
0.00244739
0.00157634
0.00177886
0.00115507
0.00231808
0.00138377
0.00256597
0.0019569
0.000993977
0.000918581
0.00208836
0.000660551
0.00170622
0.00177445
0.00238909
0.00115539
0.00134851
0.00149448
0.00277252
0.00135702
0.00156171
0.0010653
0.000809348
0.000826736
0.00228182
0.00238331
0.00249335
0.00111115
0.00158558
0.00215153
0.000706718
0.00312703
0.00283437
0.000805987
0.00220309
0.000471641
0.00169927
0.00277322
0.00110337
0.00250716
0.00108619
0.00145621
0.00108955
0.00277397
0.00286346
0.00239216
0.00197103
0.00156791
0.00107946
0.00216884
0.00153568
0.0010781
0.000847282
0.0044049
0.00157901
0.00164226
0.00112328
0.00138245
0.00685797
0.0011399
0.00184512
0.00197159
0.000910583
0.00279219
0.00201883
0.00230478
0.00118671
0.00501255
0.00280613
0.00126587
0.00201953
0.00155202
0.00104735
0.00100921
0.00278526
0.00249839
0.00145189
0.00257789
0.00132209
0.00462859
0.00246707
0.0012271
0.00191599
0.00195356
0.00123499
0.00116852
0.00205231
0.00212413
0.00150837
0.00108502
0.00262867
0.000768158
0.00278761
0.00138038
0.000826791
0.00106769
0.00179999
0.000929486
0.00189374
0.0022061
0.00108491
0.00160096
0.00123477
0.00098238
0.00302342
0.000564253
0.00139731
0.00108295
0.00148548
0.00209997
0.00110715
0.00108291
0.00261819
0.00106867
0.0011697
0.000700224
0.00255751
0.00287214
0.00112365
0.00316713
0.00379113
0.00197279
0.00241718
0.00104394
0.00145631
0.00134384
0.00100597
0.00170785
0.00246766
0.00230758
0.000922982
0.00160928
0.00123701
0.0017738
0.00098687
0.00170468
0.00158331
0.00121871
0.00148812
0.00174033
0.000974276
0.00138094
0.00284457
0.00149299
0.00142762
0.00247297
0.00163755
0.00102192
0.00198839
0.0011007
0.00264498
0.0012169
0.00109014
0.00170875
0.00107453
0.00155397
0.00175266
0.00104465
0.00167444
0.00105751
0.00119317
0.00250928
0.00217118
0.00145072
0.00224023
0.00225967
0.00188711
0.00867685
0.00157663
0.00108511
0.00220872
0.0018549
0.00277043
0.00252508
0.000997864
0.00182904
0.00126528
0.00167837
0.00112508
0.00163079
0.00119992
0.00280448
0.0029425
0.00104448
0.00189923
0.000740575
0.000868974
0.00179913
0.00129991
0.0024688
0.00138907
0.000963778
0.00144908
0.00201653
0.00161699
0.00273578
0.00292615
0.000967989
0.00173621
0.00270359
0.00173306
0.00108045
0.000692091
0.00273073
0.0021667
0.000740155
0.00119188
0.00115113
0.00180489
0.000612618
0.00103535
0.00146818
0.000568451
0.00107731
0.0014802
0.00165409
0.00211761
0.00114818
0.000417864
0.00105878
0.00223623
0.00126228
0.000892263
0.00141181
0.00279621
0.00123644
0.00188585
0.00219651
0.0011495
0.00227739
0.00113906
0.00179989
0.000992082
0.00259253
0.00202048
0.00595868
0.00152025
0.00153421
0.00150945
0.00147494
0.00194532
0.00117327
0.003148
0.00222395
0.00128135
0.00232525
0.00272981
0.00193965
0.00233249
0.00138042
0.00212081
0.00150473
0.00148281
0.00276006
0.00258583
0.00250364
0.0013243
0.00151977
0.00110071
0.00191508
0.00136245
0.0022042
0.00139406
0.00124546
0.00247714
0.00401783
0.00213056
0.0020884
0.0019573
0.00251301
0.00243131
0.00235981
0.00206938
0.00217345
0.00243447
0.00165413
0.000706247
0.00294877
0.00325749
0.00170187
0.00157907
0.00046995
0.00138181
0.001424
0.000913375
0.00172593
0.0012915
0.00167434
0.00137005
0.00298768
0.00060918
0.00130072
0.0011278
0.00152925
0.000990188
0.00122968
0.00168498
0.00107012
0.00137954
0.00110471
0.00356619
0.00149452
0.00128027
0.00117208
0.0021337
0.000513742
0.00165937
0.00107429
0.001392
0.00148446
0.00124961
0.00215616
0.0014091
0.00119521
0.00274427
0.000959778
0.0013536
0.00313449
0.00408495
0.00195881
0.00140593
0.00163466
0.0010621
0.00116988
0.00201574
0.00251965
0.00156413
0.00278105
0.00156999
0.00127979
0.00063922
0.00208588
0.00153922
0.00290565
0.00118537
0.00218041
0.00100856
0.00143391