/*--------------------------------*- C++ -*----------------------------------*\
| =========                 |                                                 |
| \\      /  F ield         | OpenFOAM: The Open Source CFD Toolbox           |
|  \\    /   O peration     | Version:  v2012                                 |
|   \\  /    A nd           | Website:  www.openfoam.com                      |
|    \\/     M anipulation  |                                                 |
\*---------------------------------------------------------------------------*/
FoamFile
{
    version     2.0;
    format      ascii;
    class       volScalarField;
    location    "10";
    object      sigmaHyd;
}
// * * * * * * * * * * * * * * * * * * * * * * * * * * * * * * * * * * * * * //

dimensions      [1 -1 -2 0 0 0 0];


internalField   nonuniform List<scalar> 
7666
(
1.36174e+07
5.5675e+07
1.44525e+08
5.90897e+07
6.70173e+07
9.30104e+07
6.64153e+07
6.2646e+07
1.17639e+08
6.80482e+07
4.23592e+07
6.34837e+07
6.12245e+07
6.14451e+07
6.88339e+07
6.50522e+07
6.31475e+07
1.06717e+08
6.64896e+07
6.21127e+07
5.22137e+07
7.86294e+07
6.25254e+07
5.25286e+07
8.53508e+07
6.96041e+07
8.78054e+07
2.74694e+07
6.28581e+07
5.94413e+07
5.97676e+07
1.06499e+08
-542165
6.11034e+07
-2.38605e+07
5.63741e+07
5.69255e+07
6.05517e+07
9.43426e+07
6.70851e+07
1.45353e+07
1.44767e+08
1.92805e+08
3.28964e+07
1.41852e+08
6.62683e+07
1.05478e+08
1.77858e+07
3.90877e+07
3.95042e+07
2.30917e+07
7.79335e+07
6.52282e+07
1.18186e+08
4.91987e+07
6.01378e+07
3.99476e+07
3.75467e+07
7.5733e+07
9.62819e+07
4.57515e+07
6.10001e+07
6.06622e+07
6.01511e+07
3.6115e+07
4.3249e+07
6.80215e+07
3.89995e+07
7.2583e+07
7.64836e+07
7.5166e+07
7.68046e+07
7.60789e+07
5.87231e+07
5.87048e+07
6.54459e+07
1.06884e+08
6.01219e+07
5.90295e+07
4.5331e+07
6.52751e+07
7.33122e+07
3.83388e+07
1.72068e+08
6.38495e+07
7.59312e+07
7.42739e+07
8.21295e+07
3.06605e+07
5.98034e+07
6.42976e+07
6.53374e+07
8.22592e+07
8.81118e+07
1.14582e+08
4.63473e+07
-4.55793e+07
1.51711e+08
6.71501e+07
6.10194e+07
8.16411e+07
5.89353e+07
1.22823e+07
1.33403e+08
6.4735e+06
9.26915e+07
1.5564e+08
7.52149e+07
6.59522e+07
7.80522e+07
5.67771e+07
7.00487e+07
5.05289e+07
4.47315e+07
3.92465e+07
7.29147e+07
3.1032e+07
-3.74595e+07
6.2041e+07
6.24485e+07
1.10595e+08
5.88611e+07
6.49268e+07
6.97361e+07
5.28071e+07
3.84004e+07
7.36743e+07
7.05466e+07
5.42604e+07
6.4352e+07
6.50033e+07
6.99507e+07
5.85897e+07
1.0366e+08
6.41708e+07
9.28744e+07
6.50205e+07
6.6894e+07
6.22753e+07
5.27434e+07
5.57283e+07
7.40431e+07
6.90398e+07
6.96087e+07
6.83231e+07
6.47984e+07
6.58686e+07
7.42567e+07
1.29107e+07
6.50527e+07
6.91114e+07
3.26297e+07
4.67082e+07
1.21513e+07
6.5354e+07
6.48727e+07
1.49289e+07
5.75051e+07
5.59925e+07
6.30453e+07
1.17178e+08
8.50526e+07
7.82861e+07
1.52197e+08
1.25188e+08
1.39974e+08
5.66354e+07
3.6495e+07
3.62773e+07
1.11412e+08
5.31236e+07
4.03952e+07
7.44427e+07
6.97186e+07
2.65515e+07
4.65208e+07
7.30461e+07
1.09149e+08
6.22125e+07
5.99092e+07
7.53175e+07
-5.89998e+07
7.3397e+07
-3.98382e+07
4.02687e+07
4.79434e+07
7.58846e+07
5.79577e+07
7.51525e+07
6.25634e+07
5.30929e+07
6.52221e+07
6.62613e+07
6.24881e+07
6.75756e+07
1.0007e+08
5.71137e+07
6.47447e+07
6.76459e+07
-6.72507e+07
7.50382e+07
2.90985e+07
6.25586e+07
9.54297e+07
5.86286e+07
1.16272e+08
6.62333e+07
-682236
3.33038e+07
-2.14854e+07
9.4223e+07
3.36897e+07
6.83074e+07
7.26182e+07
7.44037e+07
4.26844e+07
5.60059e+07
1.03308e+08
4.08429e+07
8.43914e+07
1.22626e+08
1.33701e+08
6.01526e+07
6.93926e+07
7.27319e+07
6.12953e+07
1.32798e+08
1.10044e+08
5.28258e+07
5.771e+07
5.75337e+07
6.30963e+07
2.9445e+07
4.18408e+07
7.70263e+07
5.78494e+07
1.41156e+08
7.94108e+07
-4.29705e+07
6.2283e+07
6.73515e+07
6.87132e+07
5.92121e+07
3.5477e+07
4.97078e+07
4.98437e+07
-7.60378e+07
4.90979e+07
1.10764e+08
7.19454e+07
7.2308e+07
4.71128e+07
7.49177e+07
7.08306e+07
7.46503e+07
5.82959e+07
1.10486e+08
7.97601e+07
7.23077e+07
-2.30058e+07
4.49898e+07
8.19182e+07
9.41605e+07
7.94085e+07
6.91554e+07
-7.86134e+07
5.67535e+07
8.7277e+07
1.95243e+08
-4.92698e+06
6.63697e+07
6.86084e+07
6.29796e+07
7.96744e+07
-5.31877e+06
5.08206e+07
1.06807e+08
9.77633e+07
5.67368e+07
6.06204e+07
6.42915e+07
9.61889e+07
5.10217e+07
6.06587e+07
2.32427e+07
1.12831e+07
7.8004e+07
6.90876e+07
1.0797e+07
7.17654e+07
7.07335e+07
9.59622e+07
1.01273e+08
3.28595e+07
5.65357e+07
1.06931e+08
7.20038e+07
2.26013e+07
2.73223e+07
6.63815e+07
6.2411e+07
5.14831e+07
6.49981e+07
7.81314e+07
5.80578e+07
3.8903e+07
5.37981e+07
2.88449e+07
4.95946e+07
4.82254e+07
6.87368e+06
3.60718e+07
2.95528e+07
3.10808e+07
5.07486e+07
6.60293e+07
6.26888e+07
3.67877e+07
6.68817e+07
6.16718e+07
6.34969e+07
6.33037e+07
1.0941e+08
6.91732e+07
6.16443e+07
4.98502e+07
2.93051e+07
6.47496e+07
3.84449e+07
2.54016e+07
2.53363e+07
7.60919e+07
1.76918e+08
6.29613e+07
1.14958e+08
1.16596e+08
6.02841e+07
1.56759e+07
7.59725e+07
5.83864e+07
4.05032e+07
4.89294e+07
1.5819e+07
3.69425e+07
7.55125e+07
6.85493e+07
6.01697e+07
6.5396e+07
-1.45955e+07
7.78617e+07
5.81579e+07
1.00542e+08
6.55027e+07
5.37885e+07
7.87201e+07
1.15171e+08
5.34254e+07
6.73118e+07
8.92174e+07
-5.58206e+07
6.76812e+07
1.10091e+08
7.70109e+07
1.03703e+08
7.14463e+07
1.12651e+08
8.28644e+07
8.6179e+07
6.62542e+07
9.83986e+07
6.51378e+07
6.83243e+07
-7.48309e+07
6.64378e+07
7.03412e+07
-7.03098e+07
6.98476e+07
1.52622e+08
4.36547e+06
1.10253e+08
9.25531e+07
-2.27946e+07
1.43848e+07
2.50506e+07
8.97675e+07
6.79808e+07
3.81487e+07
9.70961e+07
1.13151e+08
6.01623e+07
5.93937e+07
2.3427e+07
2.43857e+07
1.18329e+08
9.98737e+07
1.60636e+08
5.72629e+07
5.88368e+07
4.53613e+07
-3.4132e+07
9.77e+07
5.40309e+07
4.38391e+07
2.71154e+06
1.78076e+08
6.76731e+07
6.79946e+07
8.17269e+07
8.33444e+07
1.01617e+08
9.18629e+07
5.98117e+07
-1.55302e+07
8.63614e+07
8.83848e+07
8.0427e+07
7.7513e+07
6.44602e+07
6.98067e+07
1.32801e+08
-1.05873e+07
6.38616e+07
6.14422e+07
6.42627e+07
4.67962e+07
6.39996e+07
2.04947e+07
9.23233e+07
6.59727e+07
8.23457e+07
2.20155e+07
1.34643e+08
5.52009e+07
5.78725e+07
7.93379e+07
7.1421e+07
2.51127e+07
5.91861e+07
6.40706e+07
6.54721e+07
5.27082e+07
1.23353e+07
5.96988e+07
6.17255e+07
7.09391e+07
5.99223e+07
-5.92487e+07
6.41669e+07
6.37365e+07
6.84346e+07
1.383e+07
-3.18979e+07
5.31628e+07
1.07536e+08
4.44655e+07
7.37148e+07
6.74665e+07
4.51605e+07
6.17696e+07
6.74215e+07
1.19758e+08
4.47211e+07
1.71976e+08
1.09305e+08
-8.4073e+06
6.73263e+07
6.70788e+07
7.27553e+07
7.47933e+07
7.74046e+06
7.12094e+07
6.52398e+07
6.63404e+07
7.77164e+07
9.95384e+07
7.41362e+07
7.29253e+07
7.25035e+07
6.49789e+07
2.30093e+07
-1.33099e+07
5.2775e+07
6.38598e+07
6.47658e+07
6.27048e+07
6.59042e+07
1.02234e+07
5.57277e+07
1.03599e+08
6.45619e+07
6.44901e+07
5.39556e+07
5.76505e+07
8.02312e+07
6.02467e+07
8.43895e+07
1.10696e+08
1.14536e+08
6.48459e+07
1.01624e+06
5.18894e+07
4.68654e+07
1.11981e+08
-4.9923e+06
4.61472e+07
4.56396e+07
7.41573e+07
1.9503e+08
-1.40695e+07
6.31134e+07
5.19902e+07
9.26064e+07
9.62324e+07
7.41575e+07
7.39134e+07
5.87001e+07
5.84362e+07
6.4277e+07
4.24483e+07
4.06197e+07
4.31616e+07
1.93854e+08
6.77554e+07
-1.04886e+06
6.59458e+07
-6.14098e+07
7.25939e+07
1.69919e+08
5.33475e+07
7.62653e+07
5.78604e+07
7.74835e+07
8.93788e+07
4.40708e+07
1.03407e+08
-1.77605e+07
9.32202e+07
8.20732e+07
6.43362e+07
6.55653e+07
1.03765e+08
7.29345e+07
1.31573e+08
6.73343e+07
8.00896e+07
1.02832e+08
1.11453e+08
1.20766e+08
7.22088e+07
7.04568e+07
8.479e+07
-2.12381e+07
6.29559e+07
1.23838e+08
6.42989e+07
-4.49047e+07
6.04137e+07
1.19568e+07
9.13173e+07
6.45034e+07
6.88849e+07
1.05025e+08
6.15671e+07
4.00455e+07
-4.42911e+06
1.62585e+07
5.34797e+07
7.57391e+07
1.45414e+08
6.02447e+07
6.65159e+07
6.21345e+07
7.71591e+07
7.33801e+07
3.79081e+07
1.1367e+07
1.03299e+08
8.86942e+07
1.02042e+08
7.93069e+07
1.07978e+08
3.89566e+07
6.318e+07
-2.62014e+07
7.51501e+07
9.86679e+07
8.25532e+07
7.16883e+07
6.26457e+07
6.66368e+07
5.98088e+07
9.22316e+07
7.06135e+07
2.964e+07
5.84401e+07
-1.79413e+07
6.52952e+07
7.29189e+07
5.89006e+07
6.55125e+07
-2.61946e+07
1.10847e+08
8.96582e+07
8.87062e+07
4.53521e+07
5.44331e+07
7.03233e+07
5.24877e+07
5.26924e+07
1.37038e+08
8.43488e+07
1.16841e+08
2.0881e+07
-1.83454e+07
5.71241e+07
6.3935e+07
7.56429e+07
7.57534e+07
5.91247e+07
5.92151e+07
6.77164e+07
1.96557e+07
8.41822e+07
-2.94474e+07
6.86978e+07
9.84081e+06
4.20568e+07
-2.08659e+07
6.57405e+07
1.02539e+08
6.33487e+07
1.87852e+08
7.91035e+06
8.76923e+07
-5.47219e+07
4.08655e+07
6.43415e+07
-2.60363e+07
6.6954e+07
6.15607e+07
7.40915e+07
6.02606e+07
5.61216e+06
-3.06596e+07
1.64692e+07
5.96844e+07
1.95296e+07
2.46496e+06
1.12158e+08
2.0718e+07
8.88504e+07
9.89944e+07
6.68295e+07
6.51682e+07
8.94552e+07
7.57868e+07
8.024e+07
8.35458e+07
7.46406e+07
7.5153e+07
-2.2903e+07
8.04969e+07
2.3388e+07
1.10148e+08
5.84211e+07
1.92017e+07
9.41189e+06
1.87215e+08
9.37099e+07
6.59522e+07
5.74262e+07
5.30314e+06
4.79359e+07
3.999e+07
7.60644e+07
8.71831e+07
6.31633e+07
7.08459e+07
8.08493e+07
4.60796e+07
8.1306e+07
8.68619e+07
1.06986e+08
6.21606e+07
6.89917e+07
4.58345e+07
5.64319e+07
6.17552e+07
1.0184e+08
1.01516e+08
1.1106e+08
6.1292e+07
4.53693e+07
6.7956e+07
6.77984e+07
8.08491e+07
8.78735e+07
7.61338e+07
9.15472e+07
1.07827e+08
6.73353e+07
9.11336e+07
7.61502e+07
8.22802e+07
5.7573e+07
8.62917e+07
1.9718e+08
-1.4753e+07
6.48945e+07
9.87556e+07
2.12246e+07
6.68508e+07
1.95657e+08
8.33405e+07
7.03767e+07
5.80271e+07
6.27373e+07
6.55484e+07
4.35577e+07
8.4681e+07
1.20322e+08
4.53019e+07
7.93331e+07
5.77449e+07
4.26476e+07
1.04417e+08
7.28477e+07
1.02896e+08
9.17006e+07
6.76634e+07
2.27753e+07
6.48103e+07
6.38227e+07
7.3451e+07
7.30593e+07
9.76504e+07
7.72998e+07
6.41863e+07
1.45422e+08
4.77935e+07
1.00283e+08
1.16953e+08
9.99606e+07
9.64338e+07
6.29682e+07
2.76669e+07
7.30263e+07
7.9418e+07
1.73979e+08
6.34747e+07
3.42467e+07
6.45962e+07
6.52561e+07
3.81813e+07
4.35304e+07
6.2272e+07
8.84548e+07
9.17259e+07
8.97339e+07
4.22906e+07
9.55749e+07
6.52419e+07
8.90423e+07
7.09485e+07
8.68878e+07
5.91129e+07
5.30272e+07
1.00855e+08
6.95448e+07
6.72402e+07
5.98665e+07
8.99993e+07
6.06395e+07
7.19183e+07
6.78788e+07
5.23758e+07
7.26212e+07
4.06442e+07
6.94006e+07
6.95627e+07
6.94388e+07
9.54661e+07
5.69734e+07
6.23754e+07
6.40759e+07
6.34967e+07
-1.86157e+07
9.74967e+07
7.08954e+07
2.03908e+08
9.34869e+07
5.87146e+07
6.0265e+07
6.02475e+07
9.25231e+07
6.57412e+07
9.15627e+07
5.41781e+07
5.44988e+07
5.44695e+07
5.18849e+07
6.9728e+07
6.76491e+07
1.15646e+08
2.58985e+07
9.09799e+07
6.29719e+07
7.74815e+07
4.99088e+07
6.80614e+07
4.78359e+07
5.99038e+07
5.69879e+07
9.11417e+07
6.78613e+07
6.82884e+07
7.3732e+07
6.44911e+07
4.83935e+07
5.08875e+07
1.45803e+08
7.4614e+07
7.01317e+07
3.51831e+07
6.0924e+07
6.63218e+07
6.14085e+07
-2.5598e+07
5.03193e+07
8.59321e+07
8.04952e+07
5.9012e+07
7.31888e+07
3.83881e+06
1.1981e+07
7.52985e+07
7.48823e+07
6.40817e+07
6.44746e+07
7.57414e+07
6.06255e+07
6.95493e+07
1.9275e+08
6.3509e+07
8.63834e+07
1.97397e+07
6.95384e+07
5.67649e+07
6.47703e+07
1.45294e+07
-3.78386e+07
5.36688e+07
3.54252e+07
5.59087e+07
-4.16596e+07
-1.04122e+08
7.17094e+07
1.14333e+08
6.13887e+07
6.41535e+07
6.54735e+07
6.45332e+07
7.87313e+07
5.58044e+07
5.56067e+07
7.25726e+07
9.28209e+07
6.05242e+07
9.27042e+07
9.76683e+07
8.96442e+07
-1.06983e+07
5.69144e+07
5.92381e+07
-3.27119e+06
5.05486e+07
4.89385e+07
6.41573e+07
6.3177e+07
3.26196e+07
3.60744e+07
-4.49579e+07
4.02453e+07
6.5936e+07
9.461e+06
-1.22973e+07
1.6705e+07
2.96379e+07
6.51267e+07
6.79068e+07
6.58939e+07
5.41473e+07
6.98938e+07
5.7841e+07
5.28489e+07
3.23792e+07
5.48258e+07
6.4946e+07
5.25815e+07
6.6589e+07
1.21433e+08
6.98105e+07
5.8832e+07
1.02715e+08
7.27732e+07
6.49637e+07
6.52136e+07
4.39764e+07
6.72536e+07
8.35652e+07
8.71609e+07
7.39754e+07
8.80539e+07
1.2185e+07
5.56745e+07
6.47937e+06
6.30214e+07
4.5392e+07
1.5569e+08
1.52826e+07
7.2195e+07
7.09264e+07
3.63856e+07
6.66779e+07
6.08713e+07
1.63552e+07
6.60243e+07
1.0235e+08
8.55585e+07
-2.85288e+07
6.42887e+07
8.8417e+07
9.76598e+07
3.0652e+07
5.40802e+07
8.02597e+07
5.54438e+07
7.15539e+07
1.98337e+08
5.25547e+07
6.83031e+07
1.08407e+08
1.12891e+08
1.08497e+08
6.82086e+07
5.88053e+07
-1.63735e+07
5.41119e+07
1.76311e+07
6.00515e+07
6.99453e+07
5.9634e+07
6.8936e+07
-9.65246e+07
6.26605e+07
1.64699e+08
8.702e+07
8.4325e+07
9.08981e+07
9.41631e+07
9.64612e+07
6.16361e+07
1.32932e+08
2.43369e+07
6.44951e+07
-5.98848e+07
7.4246e+07
2.33729e+07
5.78324e+07
4.78189e+07
5.78961e+07
5.59069e+07
6.07831e+07
6.52025e+07
6.3425e+07
4.38015e+07
7.59889e+06
8.7523e+07
6.39731e+07
6.52854e+07
1.08056e+08
4.99061e+07
-8.40108e+06
4.67389e+07
-2.7173e+07
8.06753e+07
3.30434e+07
1.92927e+08
8.03373e+07
1.39739e+07
7.69003e+07
9.65138e+07
1.11588e+08
8.52428e+07
3.47043e+07
8.90183e+07
1.07802e+07
1.0007e+08
6.09388e+07
1.6695e+07
8.77553e+07
5.42332e+07
6.24587e+07
6.56108e+07
9.91768e+07
6.26609e+06
8.42044e+07
6.31213e+07
6.519e+07
1.4988e+08
7.22209e+07
7.60522e+07
6.54804e+07
7.28642e+07
1.13665e+08
7.15776e+07
5.68733e+07
1.30466e+08
1.54832e+08
6.5085e+07
6.33191e+07
6.54739e+07
6.12684e+07
4.66001e+07
1.58203e+08
7.19766e+07
4.7111e+07
5.99764e+07
4.02067e+07
1.02036e+08
5.96959e+07
8.55327e+07
-409469
8.62145e+07
7.02674e+07
6.52404e+07
1.93916e+08
7.15483e+07
5.97633e+07
6.17356e+07
1.2709e+08
6.50946e+07
-3.26874e+07
6.58832e+07
6.31539e+07
4.68001e+07
6.37859e+07
6.75134e+07
6.08267e+07
4.82966e+07
6.38595e+07
4.99453e+07
4.98734e+07
6.35955e+07
1.0735e+08
6.47462e+07
9.48168e+07
7.29321e+07
-6.62233e+07
-3.75639e+07
6.27166e+07
1.14683e+08
5.76181e+07
-7.68745e+07
1.61989e+08
7.57488e+07
-2.64658e+07
5.89245e+06
6.64656e+07
-3.90837e+07
5.16573e+07
6.16332e+07
5.14264e+07
8.50142e+07
2.9857e+07
1.00976e+08
9.81435e+07
1.0084e+08
7.76253e+07
6.88207e+07
6.87682e+07
8.75875e+07
7.59191e+07
-1.23201e+07
9.95132e+07
1.74317e+08
6.41652e+07
6.21961e+07
5.73877e+07
4.66705e+07
6.25107e+07
4.9206e+07
8.19892e+07
6.78778e+07
4.43967e+07
7.87839e+07
7.38886e+07
6.4188e+07
6.10314e+07
7.82749e+07
6.36301e+07
6.27757e+07
5.55862e+07
-2.14642e+07
5.86602e+07
7.06656e+07
5.88236e+07
6.39924e+07
3.16576e+07
1.59887e+08
5.0178e+07
8.96101e+07
6.86336e+07
4.99568e+07
6.46457e+07
2.45368e+07
4.0191e+07
-2.73095e+07
2.90364e+07
1.56956e+07
-1.0127e+07
4.38415e+07
6.50972e+07
6.31236e+07
7.43457e+07
5.36295e+07
-7.43002e+07
6.68186e+06
5.08981e+07
1.45093e+08
6.46558e+07
9.72608e+07
1.0942e+08
6.58097e+07
8.32215e+07
1.42186e+07
6.03114e+07
5.36034e+07
7.5671e+07
6.52633e+07
4.23316e+07
6.39234e+07
6.36689e+07
6.51882e+07
6.50343e+07
6.51071e+07
6.65365e+07
6.17955e+07
9.14106e+07
3.50846e+07
9.2703e+07
1.06093e+08
6.70745e+07
6.45462e+07
3.25807e+07
6.32024e+07
5.9536e+07
7.65999e+07
6.34627e+07
1.05077e+08
8.40646e+07
9.99185e+07
4.89587e+07
4.62097e+07
6.67226e+07
7.97873e+07
1.11587e+08
6.00862e+07
6.04881e+07
4.77932e+07
4.37571e+07
6.00232e+07
7.96438e+07
8.75666e+07
-7.25442e+06
3.54372e+07
-2.3915e+07
4.99542e+07
6.30651e+07
6.50098e+07
4.26149e+07
6.77413e+07
6.62715e+07
6.25204e+07
6.91569e+07
1.83573e+08
6.64681e+07
6.51141e+07
1.61837e+07
9.3122e+07
1.0167e+08
2.02174e+07
1.1178e+08
1.6404e+08
8.8893e+07
1.0256e+08
6.3474e+07
6.96847e+07
5.92233e+07
6.58803e+07
4.6999e+07
-1.53151e+07
6.12114e+07
6.23185e+07
-1.4272e+07
3.65536e+07
5.1063e+07
6.66718e+07
7.20347e+07
5.60207e+07
7.47429e+07
-4.15178e+07
5.90703e+07
1.18111e+08
7.69617e+07
5.69498e+07
5.72689e+07
1.41632e+08
7.10283e+07
7.29313e+07
8.19224e+07
6.75284e+07
6.39841e+07
6.42519e+07
1.66382e+08
1.25212e+07
1.42909e+07
6.75791e+07
1.016e+08
6.30893e+07
6.66083e+07
9.22607e+07
8.77917e+07
6.51911e+07
6.6814e+07
8.93328e+07
-6.01883e+07
5.65842e+07
6.28448e+07
5.68325e+07
7.91183e+07
6.37493e+07
4.18221e+07
8.88868e+07
8.05739e+07
4.48484e+07
1.66077e+08
8.65652e+07
987910
1.11475e+08
1.16819e+08
1.03482e+08
3.81265e+07
4.89123e+07
8.62921e+07
8.54018e+07
2.15265e+08
6.85438e+07
8.5745e+07
6.04444e+07
4.98839e+07
7.31125e+07
6.13625e+07
6.41282e+07
7.57158e+06
5.91821e+07
5.8973e+07
8.46572e+07
6.34053e+07
5.85378e+07
6.83229e+07
7.20761e+07
1.01109e+07
9.61205e+07
1.70635e+07
6.37616e+07
6.40165e+07
7.46425e+07
1.02649e+08
9.53639e+07
8.03689e+07
1.62174e+07
1.96272e+07
9.54206e+07
1.09249e+08
7.02276e+07
-2.13222e+07
1.68948e+07
6.56099e+07
3.82973e+07
8.55011e+06
6.49747e+07
8.63441e+07
6.59182e+07
1.28184e+08
3.99299e+07
4.18162e+07
3.54989e+07
6.73625e+07
1.11605e+08
1.14009e+08
7.63737e+07
7.35735e+07
5.89949e+07
2.00504e+08
1.05167e+08
6.21105e+07
3.12365e+07
6.68274e+07
3.19835e+07
7.48898e+07
3.232e+07
6.4487e+07
6.91007e+07
9.0575e+07
5.47055e+07
-3.97593e+07
4.84185e+07
4.13409e+07
3.5115e+07
7.92682e+07
3.93408e+07
8.10345e+07
6.89739e+07
6.71075e+07
8.28177e+07
8.0409e+07
8.0803e+07
8.22452e+07
7.91614e+07
1.08458e+08
7.94574e+07
3.40777e+07
4.75159e+07
8.96137e+07
6.27457e+07
1.62154e+08
6.55914e+07
6.92293e+07
1.06486e+08
6.4155e+07
6.12955e+07
6.05049e+06
6.23211e+07
8.38608e+07
8.64469e+07
4.38001e+07
4.85955e+07
-4.85871e+07
3.35341e+07
3.28811e+07
1.10378e+08
6.85627e+07
4.6877e+07
7.0271e+07
1.2138e+08
5.70465e+07
7.27756e+07
7.06793e+07
1.94513e+07
4.33412e+07
1.08892e+08
2.38157e+07
4.51613e+07
5.73795e+07
-5.17778e+07
-9.03326e+06
9.50596e+07
4.22991e+07
-7.30123e+07
6.19968e+07
6.66315e+07
6.09408e+07
6.80164e+07
6.84535e+07
5.99278e+07
4.49398e+07
3.6251e+07
6.27911e+07
6.52827e+07
6.59458e+07
6.58728e+07
-4.31747e+06
-6.47738e+06
6.94494e+07
6.83979e+07
-4.74848e+06
-7.45316e+06
1.07197e+08
1.47345e+07
1.15885e+08
5.90688e+07
9.5052e+07
8.79405e+07
-9.83757e+06
1.01915e+08
1.1835e+08
6.49007e+07
9.63719e+07
6.71373e+07
1.0325e+08
9.81593e+07
6.43479e+07
6.39324e+07
6.38593e+07
-443762
-3.65822e+07
1.41624e+08
1.21098e+08
7.69414e+07
3.64729e+07
7.85272e+07
4.7699e+07
-2.29505e+07
6.74997e+07
6.51698e+07
7.01006e+07
5.95966e+07
4.67697e+07
9.183e+07
8.85335e+07
4.63349e+07
6.45162e+07
9.92318e+07
9.22052e+07
1.08678e+08
6.67293e+07
3.15414e+07
3.52744e+07
5.78476e+07
5.4799e+07
7.25995e+07
4.74386e+07
6.79798e+07
6.85946e+07
2.82884e+07
6.9759e+07
5.7362e+07
6.59505e+07
6.29418e+07
6.75148e+07
4.70873e+07
6.42959e+07
7.68824e+07
6.44128e+07
6.54045e+07
7.04542e+07
5.84975e+07
5.90548e+07
6.51748e+07
1.89879e+08
5.92924e+07
7.01275e+07
6.07919e+07
4.99447e+07
4.95697e+07
6.43191e+07
3.98333e+07
8.31678e+07
6.39636e+07
5.50745e+07
1.51399e+08
8.20408e+07
6.74624e+07
6.16751e+07
6.60052e+07
6.2983e+07
5.95013e+07
6.59129e+07
8.32913e+07
7.11422e+07
5.8022e+07
4.2732e+07
5.84306e+07
1.03736e+08
6.03002e+07
7.96178e+07
8.96472e+07
9.00979e+07
2.04939e+07
2.58567e+07
1.67007e+08
1.19045e+08
9.12916e+07
-7.92033e+07
8.55518e+07
4.54493e+07
6.09202e+07
6.75902e+07
6.64039e+07
-4.08262e+07
4.91655e+07
6.38946e+07
2.17226e+08
4.99198e+07
4.0188e+07
6.6034e+07
6.57612e+07
7.31796e+07
6.39575e+07
6.61872e+07
6.30462e+07
1.36388e+08
9.032e+07
5.97151e+07
3.66389e+07
8.66338e+07
9.62415e+07
2.86818e+07
1.12278e+08
4.37384e+07
1.45608e+08
8.90078e+07
7.04173e+07
6.76832e+07
6.46299e+07
9.20577e+07
4.76911e+07
4.59815e+07
9.51011e+07
6.11238e+07
6.03242e+07
1.04722e+08
-7.73291e+06
6.05914e+07
1.03452e+08
5.17647e+07
9.57288e+07
2.75483e+07
6.65407e+07
9.65057e+07
6.27365e+07
2.76224e+07
-5.82122e+07
-1.70522e+07
6.55208e+07
6.47381e+07
6.74638e+07
4.47363e+07
8.02439e+07
3.58205e+07
5.37702e+07
9.40731e+07
9.25133e+07
6.58347e+07
6.5375e+07
5.09432e+07
3.95501e+07
1.68606e+08
9.7544e+07
1.07225e+08
5.78934e+07
-5.35885e+06
1.00177e+08
1.58816e+07
3.41187e+07
1.70678e+07
6.52403e+07
6.33631e+07
8.02086e+07
6.4457e+07
2.78779e+07
2.79846e+07
7.923e+07
1.02288e+08
9.58038e+07
7.02883e+07
7.834e+07
1.23925e+07
1.83337e+07
1.11167e+08
3.0161e+07
7.06348e+07
5.2806e+07
6.73795e+07
7.60368e+07
7.82738e+07
2.01532e+08
4.04225e+07
7.0064e+07
7.14927e+07
1.59278e+08
1.70625e+08
6.95005e+07
5.94908e+07
6.48818e+07
6.33282e+07
7.90989e+07
3.88906e+07
6.47026e+07
1.01256e+08
6.18941e+07
6.66625e+07
7.20108e+07
6.31809e+07
3.40365e+07
6.21997e+07
4.88102e+07
6.36153e+07
9.84003e+07
1.80458e+08
5.17005e+07
6.12191e+07
2.5741e+07
5.81003e+07
8.89554e+07
6.53037e+07
6.64579e+07
1.02913e+08
5.70718e+06
9.05603e+07
1.98206e+07
9.82624e+07
7.01133e+07
9.98936e+07
3.42037e+07
7.50752e+06
5.54483e+07
7.82545e+07
1.09994e+08
4.28721e+07
9.65176e+07
5.54221e+06
5.94647e+07
6.82373e+07
2.06538e+07
6.42025e+07
6.30934e+07
7.51354e+07
6.22823e+07
9.98525e+07
8.42732e+07
5.46372e+07
-1.72513e+06
3.66876e+07
5.86649e+07
1.0386e+08
7.46688e+07
9.66354e+07
7.57206e+07
7.48165e+07
6.67564e+07
5.17603e+07
-4.99432e+07
6.76088e+07
6.75895e+07
4.96314e+07
6.23374e+07
6.46127e+07
1.04572e+08
1.03642e+08
9.38295e+07
6.92267e+07
6.81077e+07
9.05016e+07
6.31478e+07
6.48505e+07
7.64072e+07
6.3842e+07
6.468e+07
9.46274e+07
5.8876e+07
6.64199e+07
9.95705e+07
8.21271e+07
9.0186e+07
7.93561e+07
7.71787e+07
1.0961e+08
5.52637e+07
9.11195e+07
7.43524e+07
1.30414e+08
7.1397e+07
6.98048e+07
6.61917e+07
6.24969e+07
8.70511e+07
8.10995e+07
7.63866e+07
7.72117e+07
2.91928e+07
7.0239e+07
5.52274e+07
6.9985e+07
-5.32264e+07
-5.74901e+06
1.71646e+08
7.05224e+07
7.6096e+07
5.08409e+07
5.21885e+07
6.1219e+07
7.49761e+07
5.79614e+07
1.43482e+08
6.07149e+07
4.96718e+07
5.38827e+07
3.56696e+07
-6.24146e+07
7.23991e+07
6.67293e+07
6.28964e+07
3.98431e+07
7.30893e+07
1.09798e+08
7.70559e+07
5.01007e+07
7.86131e+07
5.79717e+07
1.05282e+08
6.27271e+07
9.50461e+07
6.49811e+07
6.53568e+07
1.19752e+08
6.93206e+07
6.33932e+07
3.23897e+07
-1.37752e+07
1.49465e+08
7.73356e+07
5.8712e+07
6.66602e+07
6.54409e+07
7.33843e+07
5.08557e+07
-3.1959e+07
1.63182e+07
5.66899e+07
-1.68407e+07
6.40281e+07
9.62393e+07
-6.63725e+07
9.33602e+07
7.02297e+07
7.16529e+07
7.91333e+07
8.49897e+07
6.45347e+07
1.07136e+08
8.33571e+07
9.9258e+07
5.38972e+07
4.52199e+07
6.99461e+07
-2.56542e+07
6.67577e+07
6.23777e+07
-1.20783e+07
6.54837e+07
8.57778e+07
8.29971e+07
6.29293e+07
-2.09509e+07
3.97832e+07
6.9032e+07
9.07569e+07
7.37164e+07
7.43135e+07
6.26529e+07
7.37358e+07
5.4305e+07
5.31368e+07
5.63346e+07
5.76055e+07
-2.24121e+07
-3.75163e+07
5.11145e+07
7.59069e+07
1.62696e+08
-1.87362e+07
1.92506e+07
-1.64992e+07
2.82363e+07
6.24061e+07
1.02135e+08
9.33947e+07
7.11919e+07
7.3372e+07
6.12468e+07
1.16914e+08
-858477
9.52531e+06
9.80961e+07
-1.45817e+07
-3.3634e+07
6.37647e+07
9.75955e+07
6.6436e+07
2.85224e+07
1.24007e+08
5.66779e+07
5.66371e+07
6.60754e+07
9.86849e+07
6.47109e+07
5.84598e+07
9.86096e+07
1.83246e+08
7.81614e+07
5.81522e+07
8.64409e+07
7.56821e+07
-8.89091e+06
1.08104e+08
6.86053e+07
7.32594e+07
-3.62064e+07
-5.67671e+06
2.60644e+07
6.89912e+07
1.16816e+08
6.25028e+07
6.34824e+07
2.21008e+07
4.63857e+07
6.25057e+07
6.67835e+07
6.62065e+07
5.03232e+07
9.83402e+07
1.00535e+08
9.95848e+07
-6.23661e+07
5.90827e+07
8.05477e+07
9.56984e+07
9.68477e+07
8.19106e+07
5.37493e+07
5.13152e+07
7.41244e+07
1.00361e+08
4.31548e+07
6.54807e+07
6.33439e+07
5.66235e+07
4.11395e+07
1.00483e+08
2.07066e+08
7.48351e+07
9.43864e+07
1.50261e+08
8.54468e+07
5.47121e+07
6.36912e+07
8.09638e+07
1.03249e+08
6.4081e+07
9.95746e+07
6.60249e+07
5.13683e+07
5.24609e+07
3.06878e+07
2.88877e+07
9.18827e+07
8.11488e+07
8.38329e+07
6.79302e+07
9.52117e+07
7.19311e+07
6.39499e+07
7.06346e+07
1.00166e+08
6.37945e+07
4.54237e+07
6.72187e+07
6.17688e+07
-1.67209e+07
-3.63856e+07
1.02222e+08
7.13877e+07
3.38209e+07
9.68143e+07
6.42089e+07
6.33229e+07
5.28975e+07
6.91972e+07
9.39883e+07
8.09038e+07
7.95564e+07
5.787e+07
5.78696e+07
6.57393e+07
6.32288e+07
9.40022e+07
6.66193e+07
3.6472e+07
6.33124e+07
6.42542e+07
7.63116e+07
8.03894e+07
1.15979e+08
-2.99925e+07
9.56619e+07
6.06784e+07
7.7437e+07
5.28852e+07
7.0762e+07
6.77327e+07
6.53932e+07
6.54751e+07
1.22989e+08
7.19763e+07
7.20935e+07
1.31074e+08
3.49353e+07
1.02636e+08
9.36012e+06
6.88187e+07
5.99998e+07
1.12063e+08
6.39808e+07
6.76971e+07
6.12957e+07
1.12448e+08
4.88001e+07
5.76293e+07
8.92429e+07
8.6883e+07
3.66274e+07
3.04128e+07
6.06285e+07
7.1956e+07
3.72802e+07
1.95489e+08
6.89877e+07
7.42106e+07
5.96076e+07
5.37769e+07
1.62305e+08
1.05958e+08
8.60578e+07
5.89519e+07
6.96885e+07
7.31924e+07
9.27855e+07
6.54285e+07
6.8357e+07
6.77491e+07
8.64701e+07
6.4578e+07
7.99156e+06
-1.35588e+07
7.57441e+07
7.63923e+07
8.99948e+07
1.0141e+08
6.58637e+07
6.43231e+07
4.76126e+07
1.01433e+08
6.40848e+07
1.06079e+08
4.38602e+07
6.50586e+07
4.4086e+07
1.36919e+08
6.25068e+07
6.50871e+07
9.34062e+07
1.24625e+08
6.77821e+07
6.03563e+07
8.28438e+07
1.03566e+08
9.88077e+06
4.68462e+07
6.58111e+07
6.29268e+07
6.00169e+07
1.84483e+08
6.26612e+07
6.63614e+07
1.6462e+08
7.02536e+07
5.81875e+07
6.57949e+07
6.68359e+07
5.27319e+07
7.01388e+07
-1.05629e+07
2.94795e+07
6.73832e+07
6.0638e+07
7.47474e+07
6.30645e+07
6.45803e+07
5.04112e+07
4.05388e+07
6.7848e+07
3.14514e+07
8.43243e+07
4.45797e+07
1.80366e+08
6.45449e+07
3.53197e+07
7.34964e+07
6.26231e+07
3.5048e+07
6.20392e+07
1.61948e+08
4.78741e+07
4.53178e+07
3.70911e+07
2.86962e+07
7.68043e+07
5.8721e+07
4.43676e+07
4.08304e+07
5.81276e+07
-2.80013e+07
7.48058e+07
9.60535e+07
8.86947e+07
9.48022e+07
4.21276e+07
6.21465e+07
6.37884e+07
5.61652e+07
6.43818e+07
6.45361e+07
1.19617e+08
6.20215e+07
9.58815e+07
6.6836e+07
6.15647e+07
6.10747e+07
6.47056e+07
1.10399e+08
4.3296e+07
6.94327e+07
6.7259e+07
4.49859e+07
-6.44518e+06
5.25229e+07
1.04751e+08
6.35624e+07
7.32078e+07
7.89891e+07
7.06851e+07
-3.54969e+07
5.34976e+07
1.06725e+08
6.35515e+07
6.6437e+07
5.50688e+07
7.85974e+07
9.4955e+07
6.81264e+07
7.31593e+07
5.46174e+07
8.00656e+07
6.01182e+07
7.76626e+07
5.46375e+07
6.28738e+07
6.59016e+07
6.35423e+07
5.67901e+07
3.519e+07
9.85459e+07
5.61384e+07
5.95529e+07
1.38636e+06
5.55953e+07
5.82016e+07
1.02781e+08
6.95982e+07
9.8838e+07
-8.91244e+07
8.26518e+07
6.48945e+07
8.24104e+07
6.31034e+07
6.55628e+07
6.44892e+07
6.83399e+07
9.33591e+07
6.89246e+07
6.79896e+07
5.96956e+07
6.91092e+07
6.53869e+07
1.17922e+08
6.40027e+07
6.6283e+07
6.08009e+07
6.76539e+07
4.27792e+07
-5.29079e+07
1.60858e+08
6.73096e+07
5.39168e+07
1.71426e+07
5.71914e+07
6.71945e+07
-8.1357e+07
3.92479e+07
1.19624e+08
7.93302e+07
6.52249e+07
5.83841e+07
5.7407e+07
6.66943e+07
7.79044e+07
5.83604e+07
7.93073e+07
5.78288e+07
7.68872e+07
7.11481e+07
7.56215e+07
-7.71437e+07
5.56745e+07
5.60326e+07
8.81285e+07
6.5908e+07
7.88098e+07
4.76846e+07
6.16529e+07
1.9534e+07
7.04373e+07
5.77315e+07
6.6617e+07
6.91592e+07
5.91962e+07
4.29653e+07
5.7118e+07
7.01659e+07
5.77464e+07
6.1102e+07
-1.67271e+07
9.91108e+07
7.45814e+07
1.02215e+08
9.35079e+07
6.12694e+07
6.75275e+07
1.08576e+08
6.41285e+07
6.52407e+07
6.58688e+07
6.44788e+07
5.74899e+07
6.20197e+07
6.30847e+07
9.63994e+07
6.37695e+07
6.10511e+07
7.08012e+07
6.96907e+07
5.88591e+07
5.95371e+07
6.655e+07
6.72346e+07
1.02683e+08
7.68656e+07
1.79945e+08
6.18333e+07
4.70301e+07
4.85793e+07
6.15316e+07
3.63917e+07
6.62082e+07
6.67736e+07
1.06426e+08
4.96557e+07
1.21915e+08
6.50594e+07
6.36392e+07
3.28122e+07
9.90853e+07
5.42138e+07
4.86991e+07
7.25106e+07
7.15594e+07
9.6185e+07
1.82064e+08
7.77268e+07
7.63762e+07
-2.90002e+07
1.26123e+07
9.89578e+07
8.59069e+07
9.71732e+07
6.36924e+07
-1.01535e+07
3.01858e+06
5.48245e+07
6.59419e+07
5.20696e+07
5.17579e+07
1.54968e+08
3.34997e+06
9.22236e+07
3.18568e+07
1.00559e+08
1.11556e+08
6.44713e+07
6.91141e+07
6.95097e+07
6.45688e+07
6.35116e+07
5.64551e+06
7.63846e+07
7.23226e+07
6.36892e+07
3.03779e+07
6.55449e+07
6.84474e+07
8.74092e+07
6.56497e+07
6.48369e+07
6.55892e+07
8.11319e+07
6.9826e+07
6.00932e+07
8.85389e+07
7.26191e+07
3.29229e+07
5.29205e+07
5.81314e+07
8.53901e+07
6.51749e+07
6.446e+07
7.13818e+07
6.55294e+07
6.49669e+07
6.57202e+07
6.66403e+07
4.2136e+07
6.80927e+07
9.82976e+07
6.68372e+07
6.61982e+07
1.02054e+08
6.21984e+07
1.73267e+08
6.53408e+07
6.37152e+07
1.69624e+08
2.70578e+07
3.91344e+07
4.57692e+07
7.59671e+07
5.51497e+07
6.93491e+06
4.73217e+07
6.42379e+07
6.41042e+07
6.35436e+07
9.74296e+07
6.16029e+07
9.72922e+07
6.61926e+07
6.22289e+07
7.82802e+07
6.84408e+07
5.97054e+07
6.22858e+07
7.05256e+07
6.22846e+07
7.95008e+07
9.44214e+07
7.7807e+07
5.924e+07
3.20353e+07
5.5189e+07
6.43014e+07
9.47942e+07
2.44138e+07
2.00329e+08
6.39498e+07
6.45503e+07
6.58526e+07
7.82533e+07
9.40239e+07
9.81185e+07
2.39895e+07
6.51158e+07
6.63793e+07
5.07836e+07
3.72052e+07
-8.07574e+07
-3.88459e+06
6.36313e+07
6.47495e+07
4.25206e+07
2.03481e+08
3.46388e+07
7.50893e+07
6.58137e+07
6.52503e+07
3.02512e+07
8.40199e+07
7.04066e+07
7.14548e+07
6.52941e+07
6.0281e+07
6.0945e+07
6.55548e+07
-4.03653e+07
-1.06305e+07
1.37549e+07
4.60502e+07
1.55874e+08
6.7882e+07
6.0059e+07
5.64394e+07
5.92022e+07
6.64914e+07
4.80174e+07
6.83962e+07
-3.88018e+07
1.0739e+08
1.01947e+08
4.01468e+07
6.19865e+07
6.37207e+07
6.53444e+07
6.22057e+07
7.11507e+07
6.40084e+07
-8.8059e+07
4.49929e+07
6.95466e+07
6.79609e+07
6.22488e+07
6.55267e+07
6.40001e+07
7.10388e+07
1.19473e+08
5.13395e+07
6.85611e+07
-2.50577e+06
1.62041e+08
5.29923e+07
4.61708e+07
6.58308e+07
6.25676e+07
6.90844e+07
5.98535e+07
1.57123e+08
6.18606e+07
1.05642e+08
7.44536e+07
4.98532e+07
6.60153e+07
9.20896e+07
1.41186e+08
6.37943e+07
4.09463e+07
9.21282e+07
4.01298e+07
2.02191e+08
7.12064e+07
6.54791e+07
6.37149e+07
2.41003e+07
6.94421e+07
5.87272e+07
5.57629e+07
9.48553e+07
9.41621e+07
6.51085e+07
5.12641e+07
1.82676e+08
6.43167e+07
4.19828e+07
6.95582e+07
4.95064e+07
6.7665e+07
6.12359e+07
5.74599e+07
6.05402e+07
6.24302e+07
2.39565e+06
9.78657e+07
6.84711e+07
-609390
1.62846e+06
6.41506e+07
1.84952e+08
9.90776e+07
6.23835e+07
1.19136e+08
7.44157e+07
6.44693e+07
5.5203e+07
7.16379e+07
7.17648e+07
1.09297e+08
8.12254e+07
1.04555e+08
1.08577e+08
8.2526e+07
-1.13297e+06
2.17271e+07
3.31352e+07
5.42351e+07
7.17061e+07
7.20314e+07
3.41793e+07
6.77469e+07
6.02857e+07
2.00835e+08
9.66764e+07
9.54211e+07
1.65109e+08
-8.83482e+07
6.47538e+07
6.43257e+07
4.36664e+07
6.85209e+07
7.78952e+07
5.83102e+07
6.56256e+07
6.63615e+07
1.15928e+08
6.46252e+07
6.31001e+07
6.41936e+07
5.44614e+07
8.13563e+07
5.76473e+07
7.73946e+07
9.02028e+07
3.18204e+07
5.63137e+07
1.97666e+07
5.02866e+07
-4.42218e+07
5.79606e+07
8.96541e+07
7.66906e+07
5.83784e+07
5.96206e+07
6.79851e+07