/*--------------------------------*- C++ -*----------------------------------*\
| =========                 |                                                 |
| \\      /  F ield         | OpenFOAM: The Open Source CFD Toolbox           |
|  \\    /   O peration     | Version:  v2012                                 |
|   \\  /    A nd           | Website:  www.openfoam.com                      |
|    \\/     M anipulation  |                                                 |
\*---------------------------------------------------------------------------*/
FoamFile
{
    version     2.0;
    format      ascii;
    class       volSymmTensorField;
    location    "10";
    object      epsilon;
}
// * * * * * * * * * * * * * * * * * * * * * * * * * * * * * * * * * * * * * //

dimensions      [0 0 0 0 0 0 0];


internalField   nonuniform List<symmTensor> 
8000
(
(0.0130069 -0.000569433 -1.51788e-18 -0.0105417 1.21431e-17 0)
(0.0127033 -0.000737192 -2.1684e-18 -0.0103482 1.30104e-17 0)
(0.0127124 -0.000503496 -5.96311e-19 -0.0100984 1.30104e-17 0)
(0.0123479 -0.000720971 -1.89735e-18 -0.00988967 1.04083e-17 0)
(0.0123591 -0.000433782 -1.13841e-18 -0.00960243 7.37257e-18 0)
(0.0119572 -0.000693935 -4.17418e-18 -0.00940823 5.20417e-18 0)
(0.0119698 -0.00036975 -2.71051e-18 -0.00907852 1.30104e-18 0)
(0.011537 -0.000669087 1.02999e-18 -0.00890112 8.67362e-19 0)
(0.0115509 -0.000311851 3.68629e-18 -0.00853321 -5.63785e-18 0)
(0.0110894 -0.000647956 -4.01155e-18 -0.00836813 -8.23994e-18 0)
(0.0111045 -0.000258523 -7.31836e-18 -0.00796847 -7.80626e-18 0)
(0.0106154 -0.00062964 -4.2826e-18 -0.00780976 4.33681e-18 0)
(0.0106318 -0.000207879 3.30682e-18 -0.00738511 -8.23994e-18 0)
(0.0101156 -0.000612588 3.46945e-18 -0.00722654 0 0)
(0.0101332 -0.000158074 1.0842e-19 -0.00678398 -1.9082e-17 0)
(0.00959119 -0.000594788 -1.57209e-18 -0.00662052 -5.20417e-18 0)
(0.00961014 -0.000107727 -1.6263e-18 -0.00616728 -1.47451e-17 0)
(0.00904464 -0.000574226 -2.76472e-18 -0.00599528 -6.07153e-18 0)
(0.00906482 -5.59212e-05 -1.13841e-18 -0.00553876 -9.54098e-18 0)
(0.00847888 -0.000549856 1.19262e-18 -0.00535655 -9.54098e-18 0)
(0.00850021 -2.33339e-06 2.1684e-18 -0.00490418 -1.21431e-17 0)
(0.00790067 -0.000518755 3.36103e-18 -0.00471447 -1.47451e-17 0)
(0.00792292 5.21793e-05 9.75782e-19 -0.00427361 -1.56125e-17 0)
(0.00731876 -0.000480141 6.50521e-18 -0.00408236 -1.73472e-17 0)
(0.00734162 0.00010597 4.87891e-18 -0.00365934 -2.42861e-17 0)
(0.00674452 -0.000433504 1.40946e-18 -0.00347672 -1.82146e-17 0)
(0.00676754 0.000156415 -3.36103e-18 -0.00307694 -1.47451e-17 0)
(0.00619118 -0.000379193 -8.89046e-18 -0.00291507 -3.46945e-18 0)
(0.00621381 0.000200558 -4.87891e-18 -0.00254252 8.67362e-19 0)
(0.005672 -0.000318826 -6.23416e-18 -0.00241232 8.67362e-19 0)
(0.00569365 0.000235904 -9.75782e-19 -0.00207021 -8.67362e-19 0)
(0.00519856 -0.000254764 -1.6263e-18 -0.00197859 0 0)
(0.0052187 0.000261049 -4.87891e-19 -0.00166991 -3.46945e-18 0)
(0.00477938 -0.000189672 -1.02999e-18 -0.0016184 -1.73472e-18 0)
(0.00479756 0.000275943 -3.79471e-19 -0.0013463 -5.20417e-18 0)
(0.00441946 -0.000125742 -1.11131e-18 -0.00133099 -4.33681e-18 0)
(0.00443537 0.000281792 -7.04731e-19 -0.00109902 -3.46945e-18 0)
(0.00412003 -6.48114e-05 -1.0842e-18 -0.00111183 -2.60209e-18 0)
(0.00413352 0.000280697 -4.06576e-19 -0.000924169 -2.60209e-18 0)
(0.00388475 -4.73467e-06 -2.71051e-19 -0.000967779 -2.60209e-18 0)
(0.0128254 -0.00131667 -4.33681e-18 -0.0103029 1.95156e-17 0)
(0.0124392 -0.00150665 -5.52943e-18 -0.0100778 2.29851e-17 0)
(0.0124649 -0.00128247 -5.09575e-18 -0.00984573 1.9082e-17 0)
(0.0120651 -0.00147423 2.60209e-18 -0.00957425 1.43115e-17 0)
(0.0120945 -0.00121863 2.49366e-18 -0.00936721 3.46945e-18 0)
(0.0116685 -0.00142777 6.17995e-18 -0.00906497 -3.46945e-18 0)
(0.0117014 -0.00114283 3.68629e-18 -0.00886414 -6.07153e-18 0)
(0.011245 -0.00137592 -3.14419e-18 -0.00853769 3.46945e-18 0)
(0.0112815 -0.00106038 -1.30104e-17 -0.00833602 1.73472e-18 0)
(0.0107926 -0.00132071 -2.61293e-17 -0.00798726 1.73472e-18 0)
(0.0108329 -0.000973046 -1.31188e-17 -0.00778311 3.03577e-18 0)
(0.0103098 -0.0012627 -5.31259e-18 -0.00741046 2.1684e-18 0)
(0.0103542 -0.000880814 3.57787e-18 -0.00720583 1.25767e-17 0)
(0.00979706 -0.00120037 -3.14419e-18 -0.00680739 0 0)
(0.00984562 -0.000782769 -4.66207e-18 -0.00660614 -4.33681e-19 0)
(0.00925575 -0.00113197 -9.6494e-18 -0.00618035 -5.20417e-18 0)
(0.00930866 -0.000677674 -7.26415e-18 -0.00598756 -4.33681e-19 0)
(0.00869021 -0.00105499 -4.98733e-18 -0.00553677 -6.93889e-18 0)
(0.00874727 -0.000565854 1.95156e-18 -0.00535571 -6.93889e-18 0)
(0.00810841 -0.000967939 3.14419e-18 -0.00488841 -7.80626e-18 0)
(0.00816935 -0.000446282 4.01155e-18 -0.00472058 -1.12757e-17 0)
(0.00752172 -0.000868546 -1.19262e-18 -0.00425321 -6.93889e-18 0)
(0.00758571 -0.000321307 3.79471e-18 -0.00409525 -1.38778e-17 0)
(0.00694488 -0.000757191 -4.33681e-18 -0.00365223 -7.80626e-18 0)
(0.00701071 -0.000194458 -4.01155e-18 -0.00349592 -1.04083e-17 0)
(0.0063935 -0.000636143 -1.34441e-17 -0.0031051 -4.33681e-18 0)
(0.00645967 -7.03059e-05 -1.23599e-17 -0.00293976 -5.20417e-18 0)
(0.00588111 -0.000509458 -1.34441e-17 -0.00262545 8.67362e-19 0)
(0.00594601 4.62227e-05 -1.05168e-17 -0.00244142 3.46945e-18 0)
(0.00541748 -0.000382049 -6.72205e-18 -0.00221911 8.67362e-19 0)
(0.00547962 0.000150955 -2.49366e-18 -0.00201091 -8.67362e-19 0)
(0.00500801 -0.00025869 -3.03577e-18 -0.00188504 -1.73472e-18 0)
(0.00506614 0.000241022 -2.27682e-18 -0.00165268 8.67362e-19 0)
(0.00465423 -0.000143084 -2.33103e-18 -0.00161721 -2.60209e-18 0)
(0.00470743 0.000315374 -1.6263e-18 -0.0013661 -1.73472e-18 0)
(0.00435501 -3.71968e-05 -1.68051e-18 -0.00140714 0 0)
(0.00440263 0.000374176 -1.35525e-18 -0.00114676 -4.33681e-18 0)
(0.00410836 5.877e-05 -7.04731e-19 -0.00124664 -8.67362e-19 0)
(0.00415064 0.000424467 -1.0842e-19 -0.00100192 -4.33681e-18 0)
(0.00389898 0.000143218 1.0842e-19 -0.00111941 -1.73472e-18 0)
(0.0125056 -0.00210467 -1.12757e-17 -0.00998406 2.55872e-17 0)
(0.0120422 -0.00227454 1.51788e-18 -0.00965111 1.43115e-17 0)
(0.0120878 -0.00203492 1.38778e-17 -0.00948614 9.1073e-18 0)
(0.0116277 -0.00219078 2.25514e-17 -0.00909632 3.03577e-18 0)
(0.0116752 -0.00194378 1.45283e-17 -0.00898379 2.60209e-18 0)
(0.0111978 -0.00210086 -4.11997e-18 -0.00853872 1.43115e-17 0)
(0.0112488 -0.00183805 -1.73472e-17 -0.00846498 1.43115e-17 0)
(0.0107438 -0.00200509 -1.4962e-17 -0.00796632 1.60462e-17 0)
(0.0107996 -0.00171983 -1.43115e-17 -0.00792448 3.90313e-18 0)
(0.0102602 -0.00190288 -9.1073e-18 -0.00737175 -1.17094e-17 0)
(0.0103217 -0.00159018 -1.45283e-17 -0.00735899 -9.1073e-18 0)
(0.00974462 -0.00179311 -1.58294e-17 -0.00675209 -6.93889e-18 0)
(0.00981269 -0.00144836 -1.21431e-17 -0.00676846 -7.37257e-18 0)
(0.00919715 -0.00167386 -1.66967e-17 -0.00610891 -8.67362e-19 0)
(0.00927246 -0.00129382 -1.10589e-17 -0.00615498 -4.77049e-18 0)
(0.0086239 -0.00154227 -6.07153e-18 -0.0054515 -8.67362e-19 0)
(0.00870655 -0.00112636 -3.68629e-18 -0.00552563 -1.30104e-18 0)
(0.00803487 -0.00139707 2.81893e-18 -0.00479528 -1.73472e-18 0)
(0.00812438 -0.000947442 2.81893e-18 -0.00489173 -8.67362e-18 0)
(0.00744761 -0.00123712 1.95156e-18 -0.00416532 -3.46945e-18 0)
(0.00754271 -0.000759534 -2.1684e-18 -0.0042705 -4.33681e-18 0)
(0.00688229 -0.00106416 2.1684e-19 -0.00358907 -2.60209e-18 0)
(0.00698089 -0.000568204 -6.28837e-18 -0.0036822 -6.07153e-18 0)
(0.00635759 -0.000882972 -4.77049e-18 -0.00308763 -4.33681e-18 0)
(0.00645726 -0.000379866 -1.14925e-17 -0.00314584 -6.07153e-18 0)
(0.00588621 -0.000700126 -8.78204e-18 -0.00267021 -2.60209e-18 0)
(0.00598465 -0.000200613 -1.22515e-17 -0.0026747 -3.46945e-18 0)
(0.00547356 -0.000522126 -8.78204e-18 -0.00233447 -1.73472e-18 0)
(0.0055689 -3.51916e-05 -6.28837e-18 -0.00227464 -2.60209e-18 0)
(0.00511892 -0.000354028 -4.66207e-18 -0.00207025 0 0)
(0.00520976 0.000113332 -5.42101e-18 -0.00194485 -1.73472e-18 0)
(0.00481704 -0.000199412 -5.52943e-18 -0.00186362 -1.73472e-18 0)
(0.00490255 0.000243734 -3.03577e-18 -0.00167964 -8.67362e-19 0)
(0.00456016 -6.00951e-05 -1.51788e-18 -0.00170021 -6.93889e-18 0)
(0.00464004 0.000356725 -1.19262e-18 -0.00147091 -8.67362e-19 0)
(0.00433947 6.39733e-05 -5.42101e-19 -0.00156712 -4.33681e-18 0)
(0.004414 0.000454925 -4.33681e-19 -0.00131089 -3.46945e-18 0)
(0.00414248 0.000172197 -2.1684e-19 -0.00145176 -1.73472e-18 0)
(0.00421138 0.000535191 1.0842e-19 -0.00118304 -8.67362e-19 0)
(0.0039657 0.000265889 -4.33681e-19 -0.00134966 1.73472e-18 0)
(0.0120027 -0.0028625 2.4503e-17 -0.00951138 7.80626e-18 0)
(0.0114649 -0.00298374 2.27682e-17 -0.00903788 1.04083e-17 0)
(0.0115344 -0.00272768 7.58942e-18 -0.00896792 1.12757e-17 0)
(0.0109982 -0.00282995 -2.40693e-17 -0.00842261 3.33934e-17 0)
(0.0110668 -0.00258206 -2.60209e-17 -0.00842298 3.42608e-17 0)
(0.0105149 -0.00267429 -4.33681e-18 -0.00779866 8.23994e-18 0)
(0.0105857 -0.00242286 1.79978e-17 -0.00786521 -6.50521e-18 0)
(0.010006 -0.00251244 3.90313e-17 -0.00715762 -2.77556e-17 0)
(0.0100815 -0.00224832 9.32414e-18 -0.00728748 -1.9082e-17 0)
(0.00946655 -0.00234149 -3.68629e-18 -0.00649591 -1.82146e-17 0)
(0.00954881 -0.00205734 -2.32019e-17 -0.0066868 -9.54098e-18 0)
(0.00889642 -0.00215926 -1.60462e-17 -0.00581619 -6.07153e-18 0)
(0.00898686 -0.00184949 -1.14925e-17 -0.00606439 -2.60209e-18 0)
(0.00830361 -0.00196365 -2.1684e-18 -0.0051313 -1.73472e-18 0)
(0.00840298 -0.001625 -2.1684e-18 -0.00542882 5.63785e-18 0)
(0.00770258 -0.00175401 8.89046e-18 -0.00446279 1.04083e-17 0)
(0.00781041 -0.00138717 1.01915e-17 -0.00479448 9.1073e-18 0)
(0.00711845 -0.00153148 8.89046e-18 -0.00384538 7.80626e-18 0)
(0.0072328 -0.00114158 1.51788e-18 -0.00418493 3.03577e-18 0)
(0.00657847 -0.00130089 4.11997e-18 -0.00331314 2.60209e-18 0)
(0.0066963 -0.000896566 6.50521e-18 -0.00362614 -1.73472e-18 0)
(0.00610301 -0.00106998 6.72205e-18 -0.00288456 5.20417e-18 0)
(0.00622115 -0.000660465 1.73472e-18 -0.00313839 -2.60209e-18 0)
(0.00570065 -0.000846802 -3.25261e-18 -0.00255867 4.33681e-18 0)
(0.00581662 -0.000439481 -7.37257e-18 -0.00273093 -8.67362e-19 0)
(0.00536894 -0.000637385 -6.72205e-18 -0.00232045 6.07153e-18 0)
(0.0054813 -0.000236878 -4.33681e-18 -0.00240211 8.67362e-19 0)
(0.00509821 -0.000444934 -1.30104e-18 -0.00214885 1.73472e-18 0)
(0.00520642 -5.33572e-05 -4.55365e-18 -0.00214265 1.73472e-18 0)
(0.00487547 -0.00027023 -2.60209e-18 -0.00202292 -4.33681e-18 0)
(0.00497946 0.000111468 -3.68629e-18 -0.00193949 -1.73472e-18 0)
(0.00468658 -0.000113366 5.42101e-19 -0.00192421 -3.46945e-18 0)
(0.00478674 0.00025876 -7.58942e-19 -0.00177886 -2.60209e-18 0)
(0.00451877 2.66726e-05 -5.42101e-19 -0.00183865 -1.73472e-18 0)
(0.00461569 0.000390219 -2.1684e-19 -0.00164821 -2.60209e-18 0)
(0.0043615 0.000151164 -8.67362e-19 -0.00175722 0 0)
(0.00445501 0.000504593 -4.33681e-19 -0.00153482 8.67362e-19 0)
(0.00420899 0.000260272 -6.50521e-19 -0.00167497 -8.67362e-19 0)
(0.00429933 0.000603473 -1.0842e-18 -0.00143425 8.67362e-19 0)
(0.00405603 0.000355012 -7.58942e-19 -0.00158824 -8.67362e-19 0)
(0.0113111 -0.00352552 2.1684e-18 -0.00886241 3.85976e-17 0)
(0.010685 -0.00357949 9.97466e-18 -0.00822396 3.38271e-17 0)
(0.0107829 -0.00330911 -1.73472e-18 -0.00826543 2.73219e-17 0)
(0.0101489 -0.00333812 4.55365e-17 -0.00752953 1.43115e-17 0)
(0.0102437 -0.00308449 3.98986e-17 -0.00766192 -6.07153e-18 0)
(0.00958979 -0.0030926 8.06646e-17 -0.00681822 -1.60462e-17 0)
(0.00968525 -0.00284549 5.46438e-17 -0.00704408 -2.25514e-17 0)
(0.00900352 -0.00283817 3.29597e-17 -0.00609011 7.37257e-18 0)
(0.00910265 -0.00258903 5.20417e-18 -0.00640837 8.67362e-19 0)
(0.00839185 -0.00257266 -1.95156e-18 -0.00535265 1.51788e-17 0)
(0.00849686 -0.00231476 -5.20417e-18 -0.00575691 0 0)
(0.00776681 -0.00229603 6.07153e-18 -0.00462583 -4.33681e-19 0)
(0.00787883 -0.00202484 3.68629e-18 -0.00510126 -2.1684e-18 0)
(0.00714923 -0.00201092 1.0842e-18 -0.00394033 -8.67362e-19 0)
(0.00726796 -0.00172497 7.15573e-18 -0.00446109 1.73472e-18 0)
(0.00657434 -0.00172257 1.04083e-17 -0.00334431 -3.46945e-18 0)
(0.00669715 -0.00142549 1.10589e-17 -0.00386838 3.46945e-18 0)
(0.0060762 -0.0014404 4.33681e-19 -0.00287652 5.20417e-18 0)
(0.00619919 -0.00113876 3.03577e-18 -0.00335498 3.03577e-18 0)
(0.00567256 -0.00117465 2.1684e-18 -0.00254455 1.73472e-18 0)
(0.0057926 -0.000873766 4.11997e-18 -0.00293893 3.03577e-18 0)
(0.00536194 -0.000932031 -3.68629e-18 -0.00232928 8.67362e-19 0)
(0.00547764 -0.000634097 -6.07153e-18 -0.00262045 1.04083e-17 0)
(0.00512977 -0.000714313 -7.58942e-18 -0.00219936 6.07153e-18 0)
(0.00524131 -0.00041874 -4.55365e-18 -0.00238651 5.63785e-18 0)
(0.00495605 -0.000519819 -2.38524e-18 -0.00212428 8.67362e-19 0)
(0.00506453 -0.000224445 -1.0842e-18 -0.00221785 2.60209e-18 0)
(0.0048211 -0.000345068 -1.51788e-18 -0.00207934 8.67362e-19 0)
(0.00492784 -4.75757e-05 -4.33681e-19 -0.00209477 -2.1684e-18 0)
(0.00470684 -0.000187162 -1.51788e-18 -0.00204578 8.67362e-19 0)
(0.00481299 0.000114178 -8.67362e-19 -0.00199946 0 0)
(0.00459981 -4.35063e-05 -2.38524e-18 -0.00201141 1.73472e-18 0)
(0.00470606 0.000262314 -4.33681e-19 -0.00191799 -4.33681e-18 0)
(0.0044926 8.79334e-05 -2.1684e-18 -0.00197181 8.67362e-19 0)
(0.0045987 0.000396695 -6.50521e-19 -0.00184095 8.67362e-19 0)
(0.0043798 0.000206891 -8.67362e-19 -0.00192274 -1.73472e-18 0)
(0.00448538 0.000516741 -8.67362e-19 -0.00176314 -1.73472e-18 0)
(0.00426062 0.000314275 -1.51788e-18 -0.00186414 -8.67362e-19 0)
(0.00436446 0.000621435 -1.0842e-18 -0.00168038 -1.73472e-18 0)
(0.0041354 0.000408738 -8.67362e-19 -0.00179698 -8.67362e-19 0)
(0.0104338 -0.00403464 2.60209e-17 -0.00803295 -8.67362e-18 0)
(0.00968953 -0.00400248 6.07153e-17 -0.00719858 -5.9848e-17 0)
(0.0098227 -0.00371733 8.93383e-17 -0.00736576 -2.68882e-17 0)
(0.00906084 -0.00365006 5.07407e-17 -0.00640359 -3.85976e-17 0)
(0.00918946 -0.0033878 4.85723e-17 -0.00668494 -9.1073e-18 0)
(0.00840695 -0.00328849 8.23994e-18 -0.00559302 -5.20417e-18 0)
(0.0085341 -0.00304232 2.1684e-17 -0.00599032 1.9082e-17 0)
(0.00773517 -0.00291731 7.37257e-18 -0.00478236 1.43115e-17 0)
(0.00786291 -0.00268172 1.21431e-17 -0.00528834 1.82146e-17 0)
(0.00706517 -0.00254028 2.21177e-17 -0.00400229 1.04083e-17 0)
(0.00719413 -0.00231162 1.82146e-17 -0.00459697 8.67362e-18 0)
(0.00642698 -0.00216623 2.12504e-17 -0.00329671 6.93889e-18 0)
(0.00655615 -0.00194288 6.93889e-18 -0.00394394 -8.67362e-19 0)
(0.00586975 -0.00180863 9.1073e-18 -0.0027326 6.50521e-18 0)
(0.00599521 -0.00159297 6.93889e-18 -0.00337295 1.30104e-18 0)
(0.00543229 -0.00148329 9.54098e-18 -0.0023487 5.20417e-18 0)
(0.00554966 -0.00127849 1.95156e-18 -0.0029201 0 0)
(0.00512098 -0.00120042 -6.50521e-19 -0.00212882 8.67362e-19 0)
(0.00522885 -0.00100566 -3.25261e-18 -0.00259422 8.67362e-19 0)
(0.00491685 -0.000960211 -5.20417e-18 -0.00202829 -1.73472e-18 0)
(0.00501686 -0.000770858 -8.67362e-18 -0.00237974 -8.67362e-19 0)
(0.00478966 -0.000755929 -9.1073e-18 -0.00199982 4.33681e-18 0)
(0.00488529 -0.000565339 -6.50521e-18 -0.00224895 4.33681e-19 0)
(0.00471085 -0.00057821 -5.20417e-18 -0.00200899 8.67362e-19 0)
(0.00480544 -0.000380723 -4.33681e-18 -0.00217365 2.1684e-18 0)
(0.00465726 -0.000418978 -2.81893e-18 -0.00203225 8.67362e-19 0)
(0.00475349 -0.000210427 -1.95156e-18 -0.00213023 2.1684e-18 0)
(0.00461097 -0.00027263 -3.46945e-18 -0.00205402 2.60209e-18 0)
(0.00471046 -5.09565e-05 -3.03577e-18 -0.00210011 1.73472e-18 0)
(0.00456026 -0.000135821 -1.30104e-18 -0.00206532 0 0)
(0.00466375 9.94158e-05 -2.60209e-18 -0.0020708 4.33681e-19 0)
(0.00450281 -6.02947e-06 -1.73472e-18 -0.00206743 0 0)
(0.00460942 0.000240272 -6.50521e-19 -0.00203703 -1.73472e-18 0)
(0.00443372 0.000115325 -2.1684e-19 -0.00205532 3.46945e-18 0)
(0.00454274 0.000370453 -2.1684e-19 -0.00199425 -1.30104e-18 0)
(0.00435436 0.000228437 -6.50521e-19 -0.00203135 0 0)
(0.00446454 0.000489333 -1.51788e-18 -0.00194185 -1.73472e-18 0)
(0.00426505 0.000332185 -8.67362e-19 -0.00199528 8.67362e-19 0)
(0.00437502 0.000595361 -4.33681e-19 -0.00188071 8.67362e-19 0)
(0.00416625 0.00042543 -2.1684e-19 -0.00194739 8.67362e-19 0)
(0.00937006 -0.00433076 5.20417e-17 -0.00702254 -7.58942e-17 0)
(0.00847493 -0.00418548 5.24754e-17 -0.00595915 -4.38018e-17 0)
(0.00865186 -0.00388656 2.47198e-17 -0.00626646 -3.98986e-17 0)
(0.00774097 -0.00369669 -3.03577e-18 -0.00506145 -9.97466e-18 0)
(0.00791101 -0.00342778 -1.47451e-17 -0.00549755 -6.07153e-18 0)
(0.00699621 -0.00320194 1.73472e-18 -0.00417417 3.46945e-18 0)
(0.00716072 -0.00295913 1.12757e-17 -0.00472917 2.60209e-18 0)
(0.00626988 -0.00271107 1.56125e-17 -0.00333955 3.03577e-18 0)
(0.00642847 -0.00249191 2.21177e-17 -0.00398882 4.77049e-18 0)
(0.00560612 -0.00223958 1.99493e-17 -0.0026161 -4.33681e-19 0)
(0.00575538 -0.00204493 2.29851e-17 -0.00331624 4.33681e-18 0)
(0.00507432 -0.00181391 -4.33681e-19 -0.00209767 8.67362e-19 0)
(0.00520688 -0.00164784 3.03577e-18 -0.0027716 8.23994e-18 0)
(0.00471394 -0.00145722 -1.30104e-18 -0.00181344 2.60209e-18 0)
(0.00482449 -0.00132084 9.1073e-18 -0.00239166 5.20417e-18 0)
(0.00450738 -0.00117443 7.80626e-18 -0.00170629 -1.73472e-18 0)
(0.004598 -0.00106074 3.46945e-18 -0.00216575 -8.67362e-19 0)
(0.00441093 -0.000953154 1.30104e-18 -0.00170391 -4.33681e-19 0)
(0.00448846 -0.000850555 -5.20417e-18 -0.00205625 8.67362e-19 0)
(0.00437918 -0.000774981 -4.77049e-18 -0.00175119 2.1684e-18 0)
(0.00445145 -0.000671677 -5.85469e-18 -0.00202078 4.33681e-19 0)
(0.00438068 -0.000623173 -3.46945e-18 -0.0018195 2.60209e-18 0)
(0.00445346 -0.000510738 -2.81893e-18 -0.00202655 -1.73472e-18 0)
(0.00439319 -0.000486532 -1.30104e-18 -0.00189059 -8.67362e-19 0)
(0.00447035 -0.000359485 -2.81893e-18 -0.00205004 4.33681e-19 0)
(0.00440186 -0.000358194 -1.30104e-18 -0.0019531 8.67362e-19 0)
(0.00448549 -0.000213858 -1.0842e-18 -0.00207501 4.33681e-19 0)
(0.00439797 -0.000234637 -1.95156e-18 -0.00200077 -8.67362e-19 0)
(0.00448882 -7.24139e-05 -2.38524e-18 -0.00209165 2.1684e-18 0)
(0.0043855 -0.000113592 -2.38524e-18 -0.00204071 1.30104e-18 0)
(0.00448222 6.40053e-05 -8.67362e-19 -0.00209987 4.33681e-19 0)
(0.00435769 2.60709e-06 -4.33681e-19 -0.00206377 -1.73472e-18 0)
(0.00445967 0.000193976 4.33681e-19 -0.00209458 1.30104e-18 0)
(0.00431865 0.000114299 6.50521e-19 -0.00207534 -1.73472e-18 0)
(0.00442417 0.000316203 -6.50521e-19 -0.00207752 0 0)
(0.00426729 0.000219471 -6.50521e-19 -0.00207287 -8.67362e-19 0)
(0.00437531 0.000429646 -2.1684e-19 -0.00204843 -8.67362e-19 0)
(0.0042043 0.000317372 -2.1684e-19 -0.00205709 -8.67362e-19 0)
(0.00431335 0.000532799 4.33681e-19 -0.00200742 -4.33681e-19 0)
(0.00413088 0.00040674 1.30104e-18 -0.00202911 -3.46945e-18 0)
(0.00811968 -0.00435482 5.33427e-17 -0.00583537 -1.77809e-17 0)
(0.00706656 -0.00406409 6.20164e-17 -0.00453646 -1.0842e-17 0)
(0.00729224 -0.00376084 3.46945e-17 -0.00498958 -8.23994e-18 0)
(0.00625036 -0.00343007 4.29344e-17 -0.0035814 -2.60209e-18 0)
(0.00646355 -0.00316531 1.73472e-17 -0.00415246 7.37257e-18 0)
(0.0054689 -0.00281811 2.60209e-17 -0.00270508 8.67362e-18 0)
(0.00566901 -0.0025878 1.34441e-17 -0.00336129 5.63785e-18 0)
(0.00477612 -0.00225374 7.80626e-18 -0.00197819 5.20417e-18 0)
(0.00496028 -0.00205496 8.67362e-18 -0.00266887 -4.33681e-18 0)
(0.00427691 -0.00177493 9.54098e-18 -0.00153132 -3.46945e-18 0)
(0.00443087 -0.0016162 -1.73472e-18 -0.00215801 -3.90313e-18 0)
(0.00400376 -0.00140901 -9.1073e-18 -0.00136395 1.73472e-18 0)
(0.00411978 -0.00129284 -1.12757e-17 -0.0018589 1.30104e-18 0)
(0.0038976 -0.00114456 4.33681e-19 -0.00135488 5.20417e-18 0)
(0.00398243 -0.00106139 8.67362e-18 -0.0017283 -1.30104e-18 0)
(0.00388896 -0.000950109 9.1073e-18 -0.00141324 2.1684e-18 0)
(0.00395442 -0.000886491 8.23994e-18 -0.0017052 -1.73472e-18 0)
(0.00392545 -0.000797276 8.67362e-19 -0.00149425 3.03577e-18 0)
(0.00398238 -0.000740569 -3.46945e-18 -0.00173904 3.03577e-18 0)
(0.00398234 -0.000666555 -4.77049e-18 -0.00158622 2.1684e-18 0)
(0.00403742 -0.000608285 -3.03577e-18 -0.0018006 8.67362e-19 0)
(0.00404144 -0.000547799 -2.60209e-18 -0.00167813 2.60209e-18 0)
(0.00409944 -0.000481316 -8.67362e-19 -0.00187017 4.33681e-19 0)
(0.0040906 -0.000435364 -4.33681e-19 -0.0017622 -1.30104e-18 0)
(0.00415483 -0.000355681 0 -0.00193487 -4.33681e-19 0)
(0.00412327 -0.000325625 -8.67362e-19 -0.00183289 0 0)
(0.00419548 -0.000230014 -3.46945e-18 -0.00198727 1.73472e-18 0)
(0.00415024 -0.000216822 -2.60209e-18 -0.00190376 1.30104e-18 0)
(0.00422918 -0.000106231 -2.38524e-18 -0.00203243 8.67362e-19 0)
(0.00415871 -0.00011118 -4.33681e-19 -0.00195602 4.33681e-19 0)
(0.00424501 1.5029e-05 -4.33681e-19 -0.00206182 1.30104e-18 0)
(0.00415747 -7.26401e-06 4.33681e-19 -0.00200049 -4.33681e-19 0)
(0.00424926 0.000131997 -2.1684e-19 -0.00207981 -1.30104e-18 0)
(0.0041423 9.24629e-05 0 -0.00203011 -1.73472e-18 0)
(0.0042388 0.000243351 0 -0.00208407 -1.30104e-18 0)
(0.00411473 0.00018755 -4.33681e-19 -0.00204655 -8.67362e-19 0)
(0.0042146 0.000347837 4.33681e-19 -0.00207509 0 0)
(0.00407661 0.000276935 2.1684e-19 -0.00205116 -4.33681e-19 0)
(0.00417804 0.000443732 4.33681e-19 -0.00205373 -1.73472e-18 0)
(0.00402287 0.000358182 0 -0.00203762 -8.67362e-19 0)
(0.00670464 -0.00406136 7.50268e-17 -0.00450002 -1.9082e-17 0)
(0.00554252 -0.00360666 4.11997e-17 -0.0030241 -2.25514e-17 0)
(0.00581153 -0.0033198 3.59955e-17 -0.00360674 -8.67362e-18 0)
(0.00472513 -0.00286287 1.60462e-17 -0.00212745 4.33681e-18 0)
(0.00497152 -0.00262088 2.64545e-17 -0.00278073 1.38778e-17 0)
(0.00402435 -0.00220605 1.17094e-17 -0.00142131 6.50521e-18 0)
(0.00424541 -0.00200246 8.67362e-18 -0.00208546 -4.33681e-19 0)
(0.00357889 -0.00170931 3.46945e-18 -0.00109677 -2.60209e-18 0)
(0.00376162 -0.00153839 5.20417e-18 -0.00163063 -2.1684e-18 0)
(0.00340549 -0.00137702 8.67362e-19 -0.00107811 -8.67362e-19 0)
(0.00354083 -0.00124181 -8.67362e-19 -0.00142373 3.03577e-18 0)
(0.00337809 -0.00115893 -5.20417e-18 -0.00114766 3.90313e-18 0)
(0.00348026 -0.0010505 -2.60209e-18 -0.00137195 6.07153e-18 0)
(0.00341193 -0.000998836 8.67362e-19 -0.00122227 3.03577e-18 0)
(0.00349535 -0.000909083 6.50521e-18 -0.00139835 3.46945e-18 0)
(0.00347028 -0.000864346 3.46945e-18 -0.00129452 2.60209e-18 0)
(0.00354181 -0.000789675 1.30104e-18 -0.00145868 5.20417e-18 0)
(0.00354425 -0.00074237 -2.60209e-18 -0.00137206 3.03577e-18 0)
(0.00360752 -0.000679899 -3.90313e-18 -0.00153798 3.03577e-18 0)
(0.00362149 -0.000627305 -1.30104e-18 -0.00145033 2.1684e-18 0)
(0.00367981 -0.000573228 -2.60209e-18 -0.00162342 0 0)
(0.00369319 -0.000516787 -2.1684e-18 -0.00152655 1.30104e-18 0)
(0.00374943 -0.000466774 1.30104e-18 -0.00170577 -1.30104e-18 0)
(0.00374955 -0.000411175 0 -0.00159636 -1.73472e-18 0)
(0.00380815 -0.000358239 -2.60209e-18 -0.00177843 1.30104e-18 0)
(0.00381121 -0.000308886 -1.73472e-18 -0.00168277 8.67362e-19 0)
(0.00387139 -0.000251424 -1.73472e-18 -0.00185184 1.73472e-18 0)
(0.0038497 -0.000212788 0 -0.00175107 8.67362e-19 0)
(0.00391625 -0.00014421 4.33681e-19 -0.00190896 -1.30104e-18 0)
(0.00388311 -0.000118446 -4.33681e-19 -0.00182079 4.33681e-19 0)
(0.00395483 -3.89235e-05 4.33681e-19 -0.00195852 4.33681e-19 0)
(0.00390125 -2.76403e-05 -8.67362e-19 -0.00187658 4.33681e-19 0)
(0.0039787 6.36551e-05 -4.33681e-19 -0.00199412 4.33681e-19 0)
(0.00390749 6.01108e-05 0 -0.0019219 -8.67362e-19 0)
(0.00398968 0.000162159 6.50521e-19 -0.00201685 -1.30104e-18 0)
(0.00390418 0.000143722 4.33681e-19 -0.00195812 -4.33681e-19 0)
(0.00398961 0.000254849 0 -0.00202762 -1.73472e-18 0)
(0.00388301 0.000221188 -8.67362e-19 -0.00197504 -1.73472e-18 0)
(0.0039711 0.000340318 -2.1684e-19 -0.00202054 -1.30104e-18 0)
(0.00384798 0.000292563 -4.33681e-19 -0.00197676 4.33681e-19 0)
(0.00519434 -0.00344536 2.81893e-17 -0.00309572 -6.07153e-18 0)
(0.00404565 -0.00285802 6.50521e-18 -0.00160002 1.30104e-17 0)
(0.00433853 -0.00261288 -2.60209e-18 -0.00225929 6.50521e-18 0)
(0.00336353 -0.00211418 1.51788e-17 -0.000947646 1.25767e-17 0)
(0.00362195 -0.00190893 2.0383e-17 -0.00158577 1.30104e-18 0)
(0.00307416 -0.00163738 1.95156e-17 -0.000838813 1.73472e-18 0)
(0.00325497 -0.00148119 9.54098e-18 -0.001221 -1.30104e-18 0)
(0.0030565 -0.00138503 5.63785e-18 -0.000945566 4.33681e-18 0)
(0.00318722 -0.00125568 -1.73472e-18 -0.00113793 3.46945e-18 0)
(0.00309797 -0.00122213 1.73472e-18 -0.00102599 3.03577e-18 0)
(0.00321434 -0.00110125 -1.73472e-18 -0.00116793 2.60209e-18 0)
(0.00314724 -0.00108599 -2.60209e-18 -0.00109762 6.50521e-18 0)
(0.00325842 -0.000968629 -2.60209e-18 -0.00122367 3.90313e-18 0)
(0.00319851 -0.000960654 4.33681e-19 -0.00116838 2.1684e-18 0)
(0.00330495 -0.000847412 8.67362e-19 -0.00128451 1.30104e-18 0)
(0.00325068 -0.000843305 1.30104e-18 -0.00123812 1.73472e-18 0)
(0.003354 -0.00073371 0 -0.00135255 2.60209e-18 0)
(0.00330092 -0.000730037 -1.73472e-18 -0.00130628 3.90313e-18 0)
(0.00340007 -0.000625871 -2.1684e-18 -0.00142125 2.60209e-18 0)
(0.0033486 -0.00062029 0 -0.00137139 1.30104e-18 0)
(0.00344162 -0.000524071 0 -0.00148693 1.30104e-18 0)
(0.00339553 -0.000514594 -4.33681e-19 -0.00143292 1.73472e-18 0)
(0.00347809 -0.000431013 4.33681e-19 -0.00154477 1.30104e-18 0)
(0.00344915 -0.000415519 -1.30104e-18 -0.00149257 3.03577e-18 0)
(0.00352844 -0.000339497 4.33681e-19 -0.0016217 8.67362e-19 0)
(0.00349255 -0.000316116 -4.33681e-19 -0.0015478 0 0)
(0.00356511 -0.000250218 -4.33681e-19 -0.00168472 0 0)
(0.00354494 -0.000221756 0 -0.00161355 0 0)
(0.00361214 -0.000162836 2.1684e-18 -0.00175116 -8.67362e-19 0)
(0.00358403 -0.000133844 0 -0.00167051 0 0)
(0.00365062 -7.55207e-05 -8.67362e-19 -0.00180714 8.67362e-19 0)
(0.00361523 -5.0628e-05 -8.67362e-19 -0.00172614 2.60209e-18 0)
(0.00368278 1.05061e-05 1.30104e-18 -0.00185471 0 0)
(0.00364236 2.83586e-05 -8.67362e-19 -0.00178112 1.30104e-18 0)
(0.00371028 9.29788e-05 0 -0.00189428 8.67362e-19 0)
(0.0036509 0.000101283 -4.33681e-19 -0.00181951 8.67362e-19 0)
(0.00372051 0.00017131 8.67362e-19 -0.00191613 -8.67362e-19 0)
(0.00364625 0.000168558 -4.33681e-19 -0.00184685 4.33681e-19 0)
(0.00371729 0.000244328 -1.30104e-18 -0.00192338 1.30104e-18 0)
(0.00363576 0.000230167 4.33681e-19 -0.00186798 -4.33681e-19 0)
(0.00372833 -0.00260519 2.64545e-17 -0.00175502 1.86483e-17 0)
(0.00282101 -0.00205552 1.60462e-17 -0.000587771 1.12757e-17 0)
(0.00308815 -0.00186388 1.17094e-17 -0.00110776 1.30104e-17 0)
(0.0027513 -0.00168678 2.08167e-17 -0.000697922 6.93889e-18 0)
(0.00293314 -0.00152483 2.34188e-17 -0.000907861 5.63785e-18 0)
(0.0028072 -0.00149123 1.47451e-17 -0.000796181 5.63785e-18 0)
(0.00297008 -0.00134223 9.97466e-18 -0.000966198 6.50521e-18 0)
(0.00286542 -0.00132392 8.23994e-18 -0.000884176 4.33681e-18 0)
(0.00301309 -0.00118896 4.33681e-18 -0.00103891 4.77049e-18 0)
(0.00292497 -0.00117487 4.33681e-18 -0.000969385 4.33681e-18 0)
(0.00305997 -0.00105156 1.30104e-18 -0.00111117 4.33681e-18 0)
(0.00298552 -0.00104086 1.73472e-18 -0.00105225 3.46945e-18 0)
(0.00311232 -0.000924612 0 -0.00118345 3.90313e-18 0)
(0.0030451 -0.000917692 3.03577e-18 -0.00113269 3.90313e-18 0)
(0.00316622 -0.000805911 -1.30104e-18 -0.00125461 4.33681e-18 0)
(0.00310174 -0.000802704 -4.33681e-19 -0.00120969 3.03577e-18 0)
(0.00321883 -0.000693527 -4.33681e-19 -0.00132244 3.03577e-18 0)
(0.00315391 -0.000694348 -2.1684e-18 -0.00128216 2.60209e-18 0)
(0.00326743 -0.000587071 -2.60209e-18 -0.00138499 4.77049e-18 0)
(0.00320104 -0.00059217 2.60209e-18 -0.00134927 0 0)
(0.00331115 -0.000486518 0 -0.0014417 8.67362e-19 0)
(0.00324337 -0.000495934 0 -0.00141084 2.60209e-18 0)
(0.00335113 -0.000391332 -8.67362e-19 -0.00149579 2.1684e-18 0)
(0.00327992 -0.000404112 -1.30104e-18 -0.00146692 -4.33681e-19 0)
(0.00338242 -0.000302904 1.30104e-18 -0.00153984 0 0)
(0.00331441 -0.000319087 0 -0.00151787 1.30104e-18 0)
(0.00341603 -0.000219433 1.30104e-18 -0.00159336 0 0)
(0.00334292 -0.000234712 1.30104e-18 -0.0015649 1.30104e-18 0)
(0.00343728 -0.000142815 -4.33681e-19 -0.0016379 -8.67362e-19 0)
(0.00336974 -0.000155023 4.33681e-19 -0.00160712 8.67362e-19 0)
(0.00345723 -7.13521e-05 -8.67362e-19 -0.00168186 1.30104e-18 0)
(0.00339352 -7.93181e-05 0 -0.00164538 -4.33681e-19 0)
(0.00347777 -1.17021e-06 1.73472e-18 -0.00172842 4.33681e-19 0)
(0.00340794 -5.22156e-06 -8.67362e-19 -0.00167867 4.33681e-19 0)
(0.00348581 6.56386e-05 -8.67362e-19 -0.00176166 1.30104e-18 0)
(0.00341748 6.40315e-05 0 -0.00170726 4.33681e-19 0)
(0.0034887 0.000128145 1.30104e-18 -0.00178634 -2.1684e-18 0)
(0.00342894 0.000127352 4.33681e-19 -0.00173637 -4.33681e-19 0)
(0.00349356 0.000185807 -4.33681e-19 -0.00180684 -4.33681e-19 0)
(0.00343298 0.000183638 0 -0.00175746 4.33681e-19 0)
(0.00263112 -0.00190962 2.21177e-17 -0.000681935 5.63785e-18 0)
(0.00244617 -0.00183069 1.56125e-17 -0.000511374 8.67362e-19 0)
(0.00266212 -0.00165568 1.82146e-17 -0.000707649 2.1684e-18 0)
(0.00252137 -0.00162387 1.38778e-17 -0.000609434 1.73472e-18 0)
(0.00272223 -0.00146384 1.60462e-17 -0.000803374 1.73472e-18 0)
(0.00259949 -0.00143706 6.93889e-18 -0.00071576 5.20417e-18 0)
(0.00278182 -0.00129263 7.80626e-18 -0.00089526 5.63785e-18 0)
(0.00267702 -0.00127151 5.63785e-18 -0.000820099 4.77049e-18 0)
(0.00284273 -0.00114037 2.60209e-18 -0.000983716 6.07153e-18 0)
(0.00275274 -0.00112455 4.77049e-18 -0.000920069 2.1684e-18 0)
(0.00290462 -0.00100409 5.20417e-18 -0.00106896 4.77049e-18 0)
(0.00282585 -0.000992884 3.03577e-18 -0.00101501 2.1684e-18 0)
(0.00296725 -0.000880067 1.73472e-18 -0.00115083 3.46945e-18 0)
(0.00289529 -0.000873183 2.1684e-18 -0.00110464 1.73472e-18 0)
(0.00302874 -0.000765622 2.1684e-18 -0.00122836 3.46945e-18 0)
(0.00296008 -0.000763002 8.67362e-19 -0.0011885 2.60209e-18 0)
(0.00308739 -0.00065896 8.67362e-19 -0.00130065 2.60209e-18 0)
(0.00301953 -0.000660659 1.73472e-18 -0.0012662 4.33681e-19 0)
(0.00314184 -0.000559067 8.67362e-19 -0.00136721 8.67362e-19 0)
(0.00307329 -0.000565021 8.67362e-19 -0.00133749 2.60209e-18 0)
(0.0031915 -0.000465158 4.33681e-19 -0.00142819 2.60209e-18 0)
(0.00312114 -0.000475119 -4.33681e-19 -0.00140237 8.67362e-19 0)
(0.0032359 -0.000376402 4.33681e-19 -0.00148311 1.30104e-18 0)