/*--------------------------------*- C++ -*----------------------------------*\
| =========                 |                                                 |
| \\      /  F ield         | OpenFOAM: The Open Source CFD Toolbox           |
|  \\    /   O peration     | Version:  v2012                                 |
|   \\  /    A nd           | Website:  www.openfoam.com                      |
|    \\/     M anipulation  |                                                 |
\*---------------------------------------------------------------------------*/
FoamFile
{
    version     2.0;
    format      ascii;
    class       volSymmTensorField;
    location    "10";
    object      sigma;
}
// * * * * * * * * * * * * * * * * * * * * * * * * * * * * * * * * * * * * * //

dimensions      [1 -1 -2 0 0 0 0];


internalField   nonuniform List<symmTensor> 
8000
(
(2.85024e+08 -7.38609e+06 -1.03014e-07 4.84839e+06 5.14031e-07 1.41544e+08)
(2.78726e+08 -7.23904e+06 -2.45294e-07 -1.45906e+06 5.98768e-07 1.34872e+08)
(2.93884e+08 -7.2692e+06 -1.31712e-07 1.37056e+07 6.04404e-07 1.49857e+08)
(2.84915e+08 -7.60844e+06 -2.02508e-07 4.78025e+06 6.06358e-07 1.40497e+08)
(3.02492e+08 -6.91654e+06 -5.89835e-08 2.22949e+07 5.12779e-07 1.57627e+08)
(2.90411e+08 -7.89341e+06 -1.99971e-07 1.03233e+07 4.23942e-07 1.45334e+08)
(3.10716e+08 -6.44694e+06 -1.29165e-07 3.05015e+07 3.60996e-07 1.64755e+08)
(2.95728e+08 -8.19851e+06 -2.00593e-08 1.56973e+07 2.23671e-07 1.49848e+08)
(3.18544e+08 -5.91608e+06 1.09321e-07 3.83247e+07 5.27507e-08 1.71218e+08)
(3.01022e+08 -8.5501e+06 -1.17455e-07 2.10655e+07 -1.8126e-07 1.5413e+08)
(3.25998e+08 -5.35226e+06 -2.12566e-07 4.57979e+07 -1.92618e-07 1.77012e+08)
(3.06346e+08 -8.95556e+06 -1.2312e-07 2.64894e+07 2.20423e-07 1.58147e+08)
(3.33104e+08 -4.75657e+06 1.02038e-07 5.29575e+07 -2.78439e-07 1.82105e+08)
(3.11729e+08 -9.41185e+06 4.05419e-08 3.20083e+07 1.32655e-09 1.61841e+08)
(3.3987e+08 -4.11253e+06 -6.59179e-08 5.98266e+07 -7.46798e-07 1.86425e+08)
(3.17157e+08 -9.9149e+06 -6.40764e-08 3.76278e+07 -1.27983e-07 1.65082e+08)
(3.46265e+08 -3.3782e+06 1.76849e-09 6.64013e+07 -6.04922e-07 1.89836e+08)
(3.22592e+08 -1.0449e+07 1.08308e-08 4.33335e+07 -2.83383e-07 1.67712e+08)
(3.52222e+08 -2.51589e+06 4.4313e-09 7.26502e+07 -4.77513e-07 1.9219e+08)
(3.27898e+08 -1.09892e+07 1.20502e-07 4.90284e+07 -4.88952e-07 1.6948e+08)
(3.57599e+08 -1.4494e+06 1.07023e-07 7.84901e+07 -6.70098e-07 1.93216e+08)
(3.32902e+08 -1.14967e+07 1.68496e-07 5.45904e+07 -7.26622e-07 1.70092e+08)
(3.62186e+08 -111051 5.10811e-08 8.37887e+07 -8.29942e-07 1.92654e+08)
(3.37324e+08 -1.1894e+07 3.15005e-07 5.97988e+07 -8.69312e-07 1.69247e+08)
(3.65721e+08 1.52258e+06 2.39094e-07 8.83711e+07 -1.18345e-06 1.90306e+08)
(3.40813e+08 -1.2057e+07 8.9371e-08 6.4345e+07 -9.01731e-07 1.66707e+08)
(3.6788e+08 3.45687e+06 -1.50777e-07 9.2008e+07 -7.38576e-07 1.85967e+08)
(3.43047e+08 -1.18532e+07 -3.99173e-07 6.79348e+07 -1.40959e-07 1.62337e+08)
(3.68376e+08 5.61446e+06 -2.16225e-07 9.4457e+07 2.43963e-09 1.79642e+08)
(3.43824e+08 -1.11689e+07 -2.94563e-07 7.03436e+07 5.13448e-08 1.56277e+08)
(3.67039e+08 7.85469e+06 -5.50977e-08 9.55035e+07 -7.50317e-08 1.7156e+08)
(3.43117e+08 -9.94009e+06 -1.0008e-07 7.14712e+07 -1.79443e-08 1.48906e+08)
(3.63878e+08 1.00038e+07 -3.71183e-08 9.49969e+07 -1.9381e-07 1.62162e+08)
(3.41071e+08 -8.17094e+06 -6.33557e-08 7.13423e+07 -9.4393e-08 1.40759e+08)
(3.59087e+08 1.19017e+07 -2.15009e-08 9.28712e+07 -2.75308e-07 1.52012e+08)
(3.37963e+08 -5.91962e+06 -5.40322e-08 7.00874e+07 -2.24791e-07 1.32431e+08)
(3.52994e+08 1.34286e+07 -3.4593e-08 8.91447e+07 -1.77645e-07 1.41723e+08)
(3.34105e+08 -3.298e+06 -5.51708e-08 6.78761e+07 -1.3241e-07 1.24453e+08)
(3.4595e+08 1.45434e+07 -2.10654e-08 8.39019e+07 -1.34819e-07 1.31785e+08)
(3.26979e+08 -254944 -1.4595e-08 6.56894e+07 -1.40112e-07 1.17801e+08)
(2.87494e+08 -1.70013e+07 -4.63034e-07 8.99552e+06 8.62798e-07 1.44945e+08)
(2.78418e+08 -1.68593e+07 -7.12138e-07 -97821.6 1.15074e-06 1.34933e+08)
(2.9335e+08 -1.7046e+07 -5.56181e-07 1.48747e+07 9.73162e-07 1.50123e+08)
(2.86159e+08 -1.7319e+07 -3.25704e-07 7.77282e+06 8.85136e-07 1.41964e+08)
(2.99945e+08 -1.69248e+07 -1.11061e-07 2.14576e+07 4.53422e-07 1.55876e+08)
(2.9296e+08 -1.77097e+07 -1.31604e-07 1.4695e+07 2.29967e-07 1.47966e+08)
(3.06722e+08 -1.67158e+07 -8.22403e-08 2.82116e+07 6.19812e-08 1.61591e+08)
(2.99282e+08 -1.81272e+07 -5.40814e-07 2.1155e+07 3.30763e-07 1.53335e+08)
(3.13487e+08 -1.64366e+07 -6.62484e-07 3.4951e+07 1.02195e-07 1.67016e+08)
(3.05341e+08 -1.85943e+07 -1.26135e-06 2.73836e+07 1.56861e-07 1.58208e+08)
(3.20136e+08 -1.6085e+07 -5.54741e-07 4.15819e+07 1.79666e-07 1.71993e+08)
(3.1126e+08 -1.9112e+07 -2.88947e-07 3.35128e+07 2.91891e-07 1.62617e+08)
(3.2658e+08 -1.56453e+07 9.29512e-08 4.80242e+07 6.04506e-07 1.76355e+08)
(3.17096e+08 -1.96678e+07 -2.78724e-09 3.9613e+07 9.30494e-08 1.66483e+08)
(3.32744e+08 -1.50744e+07 -6.18622e-08 5.42142e+07 2.30683e-08 1.7995e+08)
(3.22836e+08 -2.02227e+07 -8.53208e-08 4.56851e+07 -2.18432e-07 1.69674e+08)
(3.38539e+08 -1.43063e+07 -6.85453e-08 6.00791e+07 -9.25757e-08 1.82574e+08)
(3.28343e+08 -2.07233e+07 1.38388e-08 5.16159e+07 -3.05703e-07 1.71894e+08)
(3.43893e+08 -1.32341e+07 2.16804e-07 6.55742e+07 -3.5595e-07 1.84057e+08)
(3.3342e+08 -2.10775e+07 2.71206e-07 5.72292e+07 -3.86913e-07 1.7285e+08)
(3.48691e+08 -1.17474e+07 2.38436e-07 7.06328e+07 -5.49267e-07 1.84211e+08)
(3.3769e+08 -2.11228e+07 3.19611e-08 6.21575e+07 -4.54253e-07 1.72141e+08)
(3.52791e+08 -9.70859e+06 2.24013e-07 7.51909e+07 -7.07109e-07 1.82849e+08)
(3.4075e+08 -2.06465e+07 -1.65479e-07 6.59851e+07 -4.5953e-07 1.6948e+08)
(3.56016e+08 -7.01234e+06 -1.71613e-07 7.9177e+07 -5.33053e-07 1.79895e+08)
(3.42285e+08 -1.94395e+07 -6.45792e-07 6.83633e+07 -2.8126e-07 1.64821e+08)
(3.58134e+08 -3.63051e+06 -5.69031e-07 8.24763e+07 -2.45937e-07 1.75373e+08)
(3.42178e+08 -1.73724e+07 -6.47597e-07 6.91399e+07 -1.63113e-08 1.58423e+08)
(3.58913e+08 348827 -5.09124e-07 8.49439e+07 1.71992e-07 1.69446e+08)
(3.40532e+08 -1.44352e+07 -3.49477e-07 6.83992e+07 3.24577e-08 1.50784e+08)
(3.58192e+08 4.72782e+06 -1.47999e-07 8.64218e+07 -3.31887e-08 1.62411e+08)
(3.37609e+08 -1.07363e+07 -1.71497e-07 6.64086e+07 -8.15104e-08 1.42502e+08)
(3.55944e+08 9.25501e+06 -1.33595e-07 8.67704e+07 4.1304e-08 1.5464e+08)
(3.33766e+08 -6.47157e+06 -1.16535e-07 6.35458e+07 -1.37813e-07 1.34166e+08)
(3.52293e+08 1.36638e+07 -8.32518e-08 8.58983e+07 -9.67317e-08 1.46542e+08)
(3.29391e+08 -1.85517e+06 -8.24362e-08 6.02129e+07 -6.68354e-09 1.26274e+08)
(3.47494e+08 1.77305e+07 -6.70957e-08 8.3796e+07 -2.18576e-07 1.38486e+08)
(3.24835e+08 2.92796e+06 -3.55515e-08 5.67608e+07 -4.42513e-08 1.19205e+08)
(3.4104e+08 2.15387e+07 -5.55074e-09 7.95682e+07 -2.21025e-07 1.30418e+08)
(3.2021e+08 7.61599e+06 5.76552e-09 5.33442e+07 -9.22483e-08 1.12872e+08)
(2.85802e+08 -2.71265e+07 -1.27259e-06 1.05296e+07 1.34073e-06 1.44938e+08)
(2.78739e+08 -2.69985e+07 -1.06212e-06 3.44845e+06 1.02658e-06 1.3625e+08)
(2.90716e+08 -2.71559e+07 -2.81842e-07 1.5469e+07 7.92815e-07 1.49103e+08)
(2.87188e+08 -2.72909e+07 -1.34116e-07 1.20391e+07 7.03614e-07 1.43761e+08)
(2.96279e+08 -2.70577e+07 -1.94675e-07 2.1014e+07 6.73478e-07 1.53711e+08)
(2.94935e+08 -2.76073e+07 -7.0491e-07 1.99471e+07 1.00698e-06 1.50449e+08)
(3.02073e+08 -2.69098e+07 -1.00852e-06 2.67809e+07 7.59414e-07 1.58316e+08)
(3.02196e+08 -2.79947e+07 -9.70051e-07 2.74156e+07 8.35135e-07 1.56449e+08)
(3.07903e+08 -2.67078e+07 -1.07089e-06 3.25813e+07 2.63664e-07 1.62659e+08)
(3.09101e+08 -2.84701e+07 -6.305e-07 3.45925e+07 -4.29524e-07 1.61787e+08)
(3.13648e+08 -2.64149e+07 -5.81445e-07 3.829e+07 -3.6347e-07 1.66533e+08)
(3.15723e+08 -2.90123e+07 -3.89545e-07 4.15597e+07 -4.75199e-07 1.6641e+08)
(3.19206e+08 -2.59711e+07 -1.67428e-07 4.37988e+07 -2.70628e-07 1.69736e+08)
(3.22032e+08 -2.95637e+07 -2.81442e-07 4.8291e+07 -3.36841e-07 1.70119e+08)
(3.24487e+08 -2.52787e+07 -1.10959e-07 4.90078e+07 -3.01251e-07 1.72065e+08)
(3.2789e+08 -3.00319e+07 -2.46472e-08 5.46478e+07 -1.52165e-07 1.72633e+08)
(3.29442e+08 -2.42115e+07 6.12167e-08 5.38688e+07 -9.97968e-08 1.73349e+08)
(3.33029e+08 -3.02712e+07 3.26325e-07 6.03521e+07 -1.56749e-07 1.73547e+08)
(3.3399e+08 -2.26066e+07 3.31225e-07 5.83127e+07 -4.0916e-07 1.7341e+08)
(3.37016e+08 -3.00262e+07 2.33653e-07 6.49053e+07 -2.07848e-07 1.7248e+08)
(3.38093e+08 -2.02889e+07 5.00658e-11 6.23412e+07 -2.78472e-07 1.72203e+08)
(3.39394e+08 -2.89735e+07 4.82941e-08 6.77357e+07 -1.99684e-07 1.69184e+08)
(3.41632e+08 -1.71058e+07 -2.80491e-07 6.59248e+07 -3.68447e-07 1.69715e+08)
(3.39928e+08 -2.68634e+07 -2.3325e-07 6.85093e+07 -3.09597e-07 1.63807e+08)
(3.44423e+08 -1.29982e+07 -5.5548e-07 6.90085e+07 -3.28199e-07 1.66067e+08)
(3.38679e+08 -2.36142e+07 -4.35084e-07 6.72638e+07 -1.64184e-07 1.56858e+08)
(3.46245e+08 -8.04456e+06 -6.16554e-07 7.15113e+07 -1.67839e-07 1.61485e+08)
(3.35944e+08 -1.93316e+07 -4.57345e-07 6.43743e+07 -6.96726e-08 1.49021e+08)
(3.46906e+08 -2.45117e+06 -3.32736e-07 7.334e+07 -1.13092e-07 1.56249e+08)
(3.32144e+08 -1.42529e+07 -2.42989e-07 6.04081e+07 -1.67709e-08 1.40965e+08)
(3.46309e+08 3.49764e+06 -2.7222e-07 7.44134e+07 -1.16775e-07 1.50638e+08)
(3.27699e+08 -8.69134e+06 -2.73695e-07 5.59504e+07 -9.7419e-08 1.33199e+08)
(3.44464e+08 9.50998e+06 -1.50676e-07 7.46654e+07 -5.41595e-08 1.4488e+08)
(3.22968e+08 -2.95125e+06 -7.29113e-08 5.14789e+07 -3.31328e-07 1.26043e+08)
(3.41447e+08 1.53472e+07 -5.93768e-08 7.40283e+07 -3.75402e-08 1.39123e+08)
(3.18218e+08 2.74991e+06 -2.64523e-08 4.73203e+07 -2.17189e-07 1.19624e+08)
(3.37285e+08 2.09257e+07 -2.04974e-08 7.23875e+07 -1.83143e-07 1.33372e+08)
(3.13516e+08 8.23239e+06 -1.0431e-08 4.35711e+07 -8.72669e-08 1.1379e+08)
(3.32339e+08 2.59744e+07 5.50321e-09 7.00045e+07 -4.59859e-08 1.27616e+08)
(3.08973e+08 1.34394e+07 -2.19205e-08 4.03071e+07 8.76819e-08 1.08526e+08)
(2.81602e+08 -3.7494e+07 -9.24158e-07 1.12419e+07 8.42351e-07 1.43136e+08)
(2.78615e+08 -3.74438e+07 -1.03676e-06 8.27841e+06 9.96425e-07 1.37828e+08)
(2.86302e+08 -3.73819e+07 -1.04418e-06 1.58967e+07 1.09542e-06 1.46928e+08)
(2.87707e+08 -3.74831e+07 -2.14175e-06 1.74344e+07 1.68713e-06 1.45595e+08)
(2.91229e+08 -3.72073e+07 -1.65914e-06 2.07531e+07 1.55469e-06 1.50692e+08)
(2.96379e+08 -3.76196e+07 -4.80879e-07 2.62448e+07 3.93508e-07 1.5272e+08)
(2.96216e+08 -3.6983e+07 5.0977e-07 2.56598e+07 -3.37219e-08 1.54217e+08)
(3.04632e+08 -3.78752e+07 1.49869e-06 3.47348e+07 -1.27552e-06 1.59097e+08)
(3.01152e+08 -3.66831e+07 3.18187e-07 3.04996e+07 -9.22583e-07 1.57309e+08)
(3.12429e+08 -3.82376e+07 2.55279e-07 4.28836e+07 -1.32146e-06 1.6455e+08)
(3.05941e+08 -3.62334e+07 -5.32058e-07 3.51543e+07 -8.29567e-07 1.59756e+08)
(3.19661e+08 -3.86438e+07 -1.99703e-07 5.05828e+07 -7.56051e-07 1.68796e+08)
(3.10533e+08 -3.55107e+07 -1.36847e-07 3.95375e+07 -4.73204e-07 1.61363e+08)
(3.2611e+08 -3.89689e+07 1.56579e-07 5.75898e+07 -4.04695e-07 1.71453e+08)
(3.14908e+08 -3.4359e+07 1.30833e-07 4.35931e+07 -6.47179e-08 1.61977e+08)
(3.31422e+08 -3.90008e+07 6.11089e-07 6.34916e+07 1.93038e-07 1.72048e+08)
(3.19049e+08 -3.25712e+07 7.00444e-07 4.72756e+07 1.85933e-07 1.61462e+08)
(3.35057e+08 -3.83484e+07 5.92685e-07 6.75552e+07 1.4317e-07 1.70176e+08)
(3.22946e+08 -2.99308e+07 1.9816e-07 5.05812e+07 -1.51077e-08 1.5985e+08)
(3.36572e+08 -3.65699e+07 2.01852e-07 6.90781e+07 3.3249e-08 1.65782e+08)
(3.26521e+08 -2.62633e+07 3.02065e-07 5.34956e+07 -1.466e-07 1.57261e+08)
(3.3594e+08 -3.344e+07 2.93631e-07 6.78953e+07 1.76023e-07 1.59393e+08)
(3.29579e+08 -2.15437e+07 7.43095e-08 5.59642e+07 -2.06806e-07 1.53941e+08)
(3.33523e+08 -2.90257e+07 -1.60231e-07 6.44444e+07 1.5121e-07 1.51878e+08)
(3.31883e+08 -1.59144e+07 -3.76073e-07 5.79254e+07 -1.7254e-08 1.50187e+08)
(3.29867e+08 -2.36252e+07 -3.46322e-07 5.95221e+07 2.48749e-07 1.44098e+08)
(3.33246e+08 -9.63705e+06 -2.40828e-07 5.93395e+07 2.71074e-08 1.46274e+08)
(3.25506e+08 -1.76189e+07 -9.24793e-08 5.39627e+07 6.93371e-08 1.36669e+08)
(3.33573e+08 -3.02735e+06 -2.36803e-07 6.0194e+07 5.23864e-08 1.42392e+08)
(3.20853e+08 -1.13866e+07 -1.44662e-07 4.8414e+07 -2.27402e-07 1.29928e+08)
(3.32871e+08 3.63839e+06 -1.80438e-07 6.05052e+07 -1.26934e-07 1.3862e+08)
(3.16192e+08 -5.19107e+06 2.01018e-08 4.33027e+07 -1.75385e-07 1.23919e+08)
(3.31184e+08 1.01604e+07 -3.65998e-08 6.02857e+07 -1.32454e-07 1.34908e+08)
(3.11655e+08 786199 -2.68119e-08 3.88032e+07 -9.60233e-08 1.18563e+08)
(3.28589e+08 1.63921e+07 -9.0087e-09 5.9549e+07 -1.15467e-07 1.31171e+08)
(3.07218e+08 6.4905e+06 -3.56936e-08 3.48723e+07 -5.46458e-09 1.13658e+08)
(3.25272e+08 2.22398e+07 -1.46156e-08 5.84357e+07 3.36168e-08 1.27326e+08)
(3.02897e+08 1.18831e+07 -2.98757e-08 3.14881e+07 -3.9427e-08 1.0907e+08)
(3.21236e+08 2.77164e+07 -5.2395e-08 5.68624e+07 3.86138e-08 1.23291e+08)
(2.98641e+08 1.69307e+07 -3.7939e-08 2.8528e+07 -4.485e-08 1.04694e+08)
(2.75938e+08 -4.77899e+07 -2.30968e-06 1.21598e+07 2.34041e-06 1.40426e+08)
(2.77524e+08 -4.8049e+07 -1.09299e-06 1.40117e+07 2.28942e-06 1.39147e+08)
(2.80402e+08 -4.75147e+07 -9.56917e-07 1.64482e+07 1.46468e-06 1.43707e+08)
(2.87435e+08 -4.78714e+07 1.22557e-06 2.38684e+07 8.74733e-07 1.47092e+08)
(2.84731e+08 -4.71828e+07 1.00688e-06 2.05781e+07 -8.28935e-08 1.46509e+08)
(2.97091e+08 -4.78096e+07 3.51351e-06 3.36009e+07 -4.23868e-07 1.54333e+08)
(2.88929e+08 -4.67573e+07 2.80778e-06 2.45391e+07 -1.1348e-06 1.48737e+08)
(3.06294e+08 -4.78518e+07 2.31319e-06 4.30332e+07 6.27543e-08 1.6052e+08)
(2.92978e+08 -4.61643e+07 8.9012e-07 2.82827e+07 -4.94476e-07 1.50239e+08)
(3.14769e+08 -4.79349e+07 5.39493e-07 5.1896e+07 3.0705e-07 1.65195e+08)
(2.96883e+08 -4.52759e+07 2.12506e-07 3.17599e+07 -4.77569e-07 1.50848e+08)
(3.22115e+08 -4.79222e+07 4.95533e-07 5.97563e+07 -3.89278e-07 1.67799e+08)
(3.00686e+08 -4.39047e+07 3.76999e-07 3.49428e+07 -4.81638e-07 1.50445e+08)
(3.27817e+08 -4.75402e+07 2.03726e-07 6.59771e+07 -4.30024e-07 1.67763e+08)
(3.04423e+08 -4.18105e+07 5.11132e-07 3.78027e+07 -1.70775e-07 1.48977e+08)
(3.31148e+08 -4.62084e+07 5.8389e-07 6.94202e+07 -3.78292e-07 1.64686e+08)
(3.08126e+08 -3.87182e+07 6.04416e-07 4.03266e+07 -3.52215e-08 1.46582e+08)
(3.31752e+08 -4.33952e+07 5.25191e-08 6.92808e+07 8.00981e-08 1.58911e+08)
(3.11696e+08 -3.44702e+07 1.44654e-07 4.24713e+07 3.8289e-08 1.4357e+08)
(3.29999e+08 -3.90344e+07 1.23197e-07 6.58632e+07 -1.18564e-08 1.5154e+08)
(3.14886e+08 -2.91362e+07 1.90898e-07 4.41667e+07 7.10103e-08 1.4034e+08)
(3.26652e+08 -3.34656e+07 -1.6262e-07 6.02587e+07 -3.96278e-08 1.43805e+08)
(3.17425e+08 -2.2975e+07 -2.74928e-07 4.53603e+07 4.13935e-07 1.37222e+08)
(3.22496e+08 -2.72064e+07 -3.72668e-07 5.3738e+07 2.69265e-07 1.36589e+08)
(3.19133e+08 -1.63211e+07 -2.40108e-07 4.6059e+07 2.23886e-07 1.34399e+08)
(3.18074e+08 -2.07112e+07 -1.34702e-07 4.72321e+07 5.90679e-09 1.30254e+08)
(3.19947e+08 -9.48728e+06 -7.31091e-08 4.63175e+07 8.40265e-08 1.31904e+08)
(3.13701e+08 -1.42982e+07 -9.22727e-08 4.12708e+07 2.44935e-08 1.24837e+08)
(3.19905e+08 -2.69822e+06 -3.50866e-08 4.62279e+07 -1.29584e-07 1.29655e+08)
(3.09498e+08 -8.1211e+06 -7.82576e-08 3.60497e+07 3.409e-09 1.20137e+08)
(3.19048e+08 3.89666e+06 -4.79723e-08 4.58398e+07 -4.54234e-08 1.27478e+08)
(3.0547e+08 -2.23907e+06 -1.1255e-07 3.15611e+07 4.40547e-08 1.15939e+08)
(3.17462e+08 1.02319e+07 -2.92079e-08 4.52223e+07 -1.9978e-07 1.25227e+08)
(3.01495e+08 3.38179e+06 -1.00152e-07 2.76239e+07 4.17013e-08 1.1202e+08)
(3.15288e+08 1.62446e+07 -2.65372e-08 4.44786e+07 3.54585e-08 1.2284e+08)
(2.9756e+08 8.73106e+06 -3.70042e-08 2.41856e+07 -8.35432e-08 1.08241e+08)
(3.12565e+08 2.19439e+07 -3.80225e-08 4.35973e+07 -9.05348e-08 1.2023e+08)
(2.93643e+08 1.38035e+07 -7.25135e-08 2.11528e+07 -3.96578e-08 1.04587e+08)
(3.09532e+08 2.72143e+07 -5.12359e-08 4.27444e+07 -8.3758e-08 1.17439e+08)
(2.89757e+08 1.85955e+07 -4.26243e-08 1.85007e+07 -3.93775e-08 1.00964e+08)
(2.69377e+08 -5.77023e+07 -1.50094e-07 1.36668e+07 -1.11979e-07 1.37102e+08)
(2.75344e+08 -5.8702e+07 2.07141e-06 2.06656e+07 -3.08794e-06 1.39907e+08)
(2.73302e+08 -5.72844e+07 3.10675e-06 1.72553e+07 -9.66028e-07 1.39407e+08)
(2.86071e+08 -5.84436e+07 1.95901e-06 3.13025e+07 -2.19165e-06 1.47645e+08)
(2.76945e+08 -5.67364e+07 2.51139e-06 2.04804e+07 -5.91755e-07 1.40866e+08)
(2.96477e+08 -5.82298e+07 1.30871e-06 4.17788e+07 -9.58801e-07 1.54182e+08)
(2.80393e+08 -5.597e+07 1.92713e-06 2.33826e+07 4.58547e-07 1.41386e+08)
(3.06161e+08 -5.79739e+07 9.43006e-07 5.16965e+07 1.57201e-07 1.58884e+08)
(2.83737e+08 -5.48434e+07 1.07958e-06 2.59808e+07 5.32522e-07 1.40832e+08)
(3.14555e+08 -5.74849e+07 1.27547e-06 6.04296e+07 1.12628e-07 1.61019e+08)
(2.87085e+08 -5.31444e+07 1.07297e-06 2.82893e+07 3.00542e-08 1.39129e+08)
(3.20878e+08 -5.64374e+07 1.15228e-06 6.70165e+07 4.42652e-08 1.59902e+08)
(2.90521e+08 -5.05889e+07 4.4559e-07 3.0286e+07 -3.0316e-07 1.36329e+08)
(3.24104e+08 -5.40145e+07 5.26645e-07 6.96375e+07 1.16762e-07 1.55261e+08)
(2.94117e+08 -4.68647e+07 3.8459e-07 3.19524e+07 -1.37667e-07 1.32826e+08)
(3.24044e+08 -4.97009e+07 5.0964e-07 6.74861e+07 1.1024e-07 1.48099e+08)
(2.97725e+08 -4.18939e+07 1.40556e-07 3.32265e+07 -1.36906e-07 1.29222e+08)
(3.21619e+08 -4.3834e+07 1.58685e-08 6.17871e+07 -2.62386e-08 1.40222e+08)
(3.00997e+08 -3.59215e+07 -1.01202e-07 3.40158e+07 -8.59004e-08 1.26047e+08)
(3.1799e+08 -3.716e+07 -2.13543e-07 5.44907e+07 -1.26944e-07 1.33018e+08)
(3.03632e+08 -2.93483e+07 -3.7923e-07 3.43048e+07 -1.28982e-07 1.23558e+08)
(3.14029e+08 -3.03483e+07 -4.08861e-07 4.71474e+07 1.87242e-07 1.27046e+08)
(3.05475e+08 -2.25473e+07 -3.01224e-07 3.41521e+07 -1.26378e-08 1.21732e+08)
(3.10128e+08 -2.37575e+07 -2.42686e-07 4.04594e+07 2.86442e-08 1.22238e+08)
(3.06517e+08 -1.57635e+07 -2.17433e-07 3.36805e+07 7.05101e-08 1.20364e+08)
(3.0643e+08 -1.75176e+07 -1.43344e-07 3.46468e+07 4.10574e-08 1.18301e+08)
(3.06823e+08 -9.13771e+06 -1.06859e-07 3.30096e+07 9.51565e-08 1.19239e+08)
(3.02915e+08 -1.16212e+07 -1.66643e-07 2.96554e+07 1.07536e-07 1.14896e+08)
(3.06459e+08 -2.72843e+06 -1.40788e-07 3.22229e+07 5.94207e-08 1.1813e+08)
(2.99508e+08 -6.01865e+06 -6.0218e-08 2.5347e+07 -2.67144e-09 1.11759e+08)
(3.055e+08 3.44451e+06 -1.20446e-07 3.13832e+07 2.33894e-09 1.16883e+08)
(2.96026e+08 -604241 -7.78404e-08 2.14436e+07 -1.00458e-08 1.08722e+08)
(3.04082e+08 9.3636e+06 -2.67903e-08 3.05882e+07 -7.19021e-08 1.15499e+08)
(2.92526e+08 4.58559e+06 -8.48525e-10 1.798e+07 1.65643e-07 1.05713e+08)
(3.02243e+08 1.50186e+07 -9.40536e-09 2.98356e+07 -5.39574e-08 1.13906e+08)
(2.88967e+08 9.57731e+06 -2.7579e-08 1.48569e+07 2.65988e-09 1.02703e+08)
(3.00126e+08 2.03378e+07 -6.97852e-08 2.92032e+07 -8.54944e-08 1.12141e+08)
(2.85403e+08 1.43299e+07 -3.55815e-08 1.20754e+07 4.93265e-08 9.97314e+07)
(2.9771e+08 2.53701e+07 -1.76308e-08 2.86072e+07 4.53225e-08 1.10188e+08)
(2.81882e+08 1.88218e+07 -4.78675e-09 9.64015e+06 4.19713e-08 9.67786e+07)
(2.62153e+08 -6.69531e+07 2.32378e-06 1.56685e+07 -4.15476e-06 1.32995e+08)
(2.72129e+08 -6.92983e+07 2.56132e-06 2.84649e+07 -2.39016e-06 1.39668e+08)
(2.65326e+08 -6.64088e+07 1.16409e-06 1.83339e+07 -2.52263e-06 1.33785e+08)
(2.83171e+08 -6.91216e+07 5.30173e-07 3.96373e+07 -1.15249e-06 1.46106e+08)
(2.68342e+08 -6.55787e+07 1.87639e-07 2.06209e+07 -1.22234e-06 1.33392e+08)
(2.93461e+08 -6.8801e+07 8.29474e-07 5.02056e+07 -3.6314e-07 1.50191e+08)
(2.71331e+08 -6.42886e+07 1.07747e-06 2.25595e+07 -3.81036e-07 1.31631e+08)
(3.02356e+08 -6.8039e+07 1.25317e-06 5.9398e+07 -9.9943e-08 1.51053e+08)
(2.74417e+08 -6.22531e+07 1.38572e-06 2.41176e+07 -9.07293e-08 1.28404e+08)
(3.09095e+08 -6.63037e+07 1.21039e-06 6.60516e+07 -1.11048e-07 1.48106e+08)
(2.777e+08 -5.91267e+07 1.24769e-06 2.52412e+07 9.29165e-08 1.23908e+08)
(3.12257e+08 -6.24175e+07 1.22093e-07 6.72387e+07 3.73154e-08 1.41417e+08)
(2.81287e+08 -5.45825e+07 2.59909e-07 2.5912e+07 3.29893e-07 1.18975e+08)
(3.11977e+08 -5.61165e+07 2.61753e-08 6.25329e+07 1.22278e-07 1.33077e+08)
(2.84952e+08 -4.87489e+07 5.09183e-07 2.61033e+07 1.95404e-07 1.14689e+08)
(3.09818e+08 -4.85106e+07 4.54691e-07 5.48249e+07 -8.61221e-08 1.25548e+08)
(2.88226e+08 -4.21488e+07 2.43867e-07 2.57687e+07 -7.36734e-08 1.11649e+08)
(3.07055e+08 -4.08176e+07 1.02574e-07 4.68186e+07 -1.91234e-08 1.19854e+08)
(2.90816e+08 -3.53012e+07 -2.27668e-07 2.49808e+07 4.44468e-08 1.09842e+08)
(3.04311e+08 -3.3666e+07 -2.2396e-07 3.97634e+07 1.03879e-07 1.15824e+08)
(2.92619e+08 -2.85239e+07 -2.691e-07 2.3863e+07 2.97686e-08 1.08886e+08)
(3.0163e+08 -2.7145e+07 -1.54729e-07 3.37144e+07 1.34287e-07 1.12861e+08)
(2.93714e+08 -2.19396e+07 -1.21123e-07 2.25942e+07 -7.13443e-08 1.084e+08)
(2.9898e+08 -2.11713e+07 -4.90821e-08 2.851e+07 -4.0987e-08 1.10464e+08)
(2.94187e+08 -1.55858e+07 -1.24682e-07 2.12923e+07 2.61139e-08 1.08075e+08)
(2.96302e+08 -1.55968e+07 -5.74041e-08 2.39516e+07 5.73604e-08 1.08279e+08)
(2.94115e+08 -9.45423e+06 -5.61808e-08 2.00303e+07 4.34811e-08 1.07688e+08)
(2.93542e+08 -1.02997e+07 -9.46798e-08 1.98792e+07 -3.55531e-08 1.0609e+08)
(2.93556e+08 -3.52034e+06 -1.10716e-07 1.88392e+07 1.01121e-07 1.07109e+08)
(2.90525e+08 -5.116e+06 -1.09922e-07 1.59905e+07 4.66056e-08 1.03823e+08)
(2.9266e+08 2.20513e+06 -3.37399e-08 1.78224e+07 2.20311e-08 1.06429e+08)
(2.87447e+08 -136440 -1.51237e-08 1.2496e+07 -8.24225e-08 1.01493e+08)
(2.91417e+08 7.70937e+06 2.39401e-08 1.69357e+07 7.21206e-08 1.05537e+08)
(2.84234e+08 4.69863e+06 2.91486e-08 9.24908e+06 -7.21059e-08 9.90951e+07)
(2.89932e+08 1.29478e+07 -2.60007e-08 1.62243e+07 1.6851e-09 1.04508e+08)
(2.81003e+08 9.32594e+06 -2.32825e-08 6.34067e+06 -4.1424e-08 9.66792e+07)
(2.88225e+08 1.79262e+07 -5.09461e-09 1.56522e+07 -4.05298e-08 1.03328e+08)
(2.77771e+08 1.37432e+07 -4.2991e-09 3.73984e+06 -3.98503e-08 9.42508e+07)
(2.86343e+08 2.26094e+07 2.42501e-08 1.52111e+07 -1.7001e-08 1.01982e+08)
(2.74567e+08 1.79276e+07 6.38411e-08 1.43446e+06 -1.64743e-07 9.18081e+07)
(2.54308e+08 -7.53859e+07 3.33865e-06 1.78696e+07 -9.93166e-07 1.27576e+08)
(2.67827e+08 -7.96921e+07 3.31618e-06 3.75771e+07 -5.30932e-07 1.37364e+08)
(2.56913e+08 -7.46449e+07 1.91956e-06 1.9737e+07 -5.78654e-07 1.26315e+08)
(2.78073e+08 -7.96292e+07 2.6917e-06 4.85749e+07 -2.21822e-07 1.4042e+08)
(2.59708e+08 -7.33517e+07 1.78518e-06 2.13408e+07 7.96066e-08 1.23392e+08)
(2.86593e+08 -7.89546e+07 2.03689e-06 5.77833e+07 3.47445e-07 1.39292e+08)
(2.62774e+08 -7.11149e+07 1.21563e-06 2.25018e+07 2.10776e-07 1.18575e+08)
(2.92506e+08 -7.69814e+07 7.33309e-07 6.36475e+07 2.53761e-07 1.33484e+08)
(2.66066e+08 -6.7407e+07 6.75857e-07 2.28345e+07 -1.76865e-07 1.12096e+08)
(2.94682e+08 -7.17123e+07 5.6974e-07 6.17848e+07 -1.05919e-07 1.24011e+08)
(2.69781e+08 -6.19339e+07 5.44457e-08 2.23939e+07 -1.19725e-07 1.05575e+08)
(2.94085e+08 -6.34141e+07 -3.98624e-07 5.32574e+07 1.14293e-07 1.14624e+08)
(2.73563e+08 -5.52305e+07 -4.88086e-07 2.13214e+07 8.30202e-08 1.00769e+08)
(2.92989e+08 -5.43443e+07 5.55323e-08 4.38386e+07 2.67378e-07 1.08148e+08)
(2.7677e+08 -4.81552e+07 4.92972e-07 1.9679e+07 -5.51757e-08 9.8023e+07)
(2.92345e+08 -4.58865e+07 4.93358e-07 3.63159e+07 1.14143e-07 1.04589e+08)
(2.79157e+08 -4.1216e+07 4.38465e-07 1.76447e+07 -7.72633e-08 9.6812e+07)
(2.91962e+08 -3.84329e+07 5.30929e-08 3.07089e+07 1.58911e-07 1.02789e+08)
(2.80745e+08 -3.4561e+07 -1.69662e-07 1.54264e+07 1.64727e-07 9.64125e+07)
(2.91403e+08 -3.1757e+07 -2.34784e-07 2.6132e+07 1.19614e-07 1.01786e+08)
(2.81737e+08 -2.81934e+07 -1.46598e-07 1.32683e+07 5.62749e-08 9.64378e+07)
(2.90464e+08 -2.57209e+07 -1.19748e-07 2.21194e+07 1.28782e-07 1.00996e+08)
(2.82251e+08 -2.20865e+07 -2.8594e-08 1.12832e+07 2.77814e-08 9.65885e+07)
(2.89043e+08 -2.01784e+07 -9.44574e-09 1.83643e+07 -6.37449e-08 1.00062e+08)
(2.82344e+08 -1.61977e+07 1.19593e-08 9.49498e+06 -1.26607e-08 9.66542e+07)
(2.87192e+08 -1.49716e+07 -3.63107e-08 1.47749e+07 4.279e-09 9.88482e+07)
(2.82041e+08 -1.04808e+07 -1.64226e-07 7.8821e+06 8.55681e-08 9.65139e+07)
(2.84752e+08 -9.9082e+06 -1.24602e-07 1.10006e+07 7.29652e-08 9.73818e+07)
(2.81517e+08 -4.95657e+06 -1.14131e-07 6.55765e+06 4.61623e-08 9.63562e+07)
(2.8217e+08 -5.11759e+06 -1.63463e-08 7.56309e+06 1.96957e-08 9.57368e+07)
(2.80682e+08 369526 -1.35129e-08 5.40612e+06 5.20461e-08 9.5971e+07)
(2.79317e+08 -457421 2.67407e-08 4.21315e+06 -1.90158e-08 9.39425e+07)
(2.79665e+08 5.46642e+06 -9.30099e-09 4.49381e+06 -5.3541e-08 9.54955e+07)
(2.76407e+08 3.9901e+06 -5.35673e-10 1.16708e+06 -7.47788e-08 9.20583e+07)
(2.7845e+08 1.03259e+07 5.42234e-09 3.75789e+06 -5.8125e-08 9.48706e+07)
(2.73447e+08 8.25311e+06 -1.6936e-08 -1.61948e+06 -3.66988e-08 9.01046e+07)
(2.77095e+08 1.4927e+07 2.3112e-08 3.20632e+06 6.03385e-09 9.41131e+07)
(2.70482e+08 1.23124e+07 9.60263e-09 -4.14332e+06 -1.83252e-08 8.81146e+07)
(2.7566e+08 1.92459e+07 2.0106e-08 2.84429e+06 -7.72367e-08 9.32493e+07)
(2.67639e+08 1.61157e+07 1.24869e-09 -6.3001e+06 -4.18517e-08 8.60814e+07)
(2.45831e+08 -8.29512e+07 3.98689e-06 2.00366e+07 -6.71794e-07 1.1994e+08)
(2.61984e+08 -8.96297e+07 2.02431e-06 4.7926e+07 -8.49602e-07 1.30813e+08)
(2.48506e+08 -8.16809e+07 2.09443e-06 2.14385e+07 -3.01056e-07 1.15894e+08)
(2.69854e+08 -8.9131e+07 1.2691e-06 5.71785e+07 1.34021e-07 1.27561e+08)
(2.51642e+08 -7.92556e+07 1.98484e-06 2.23054e+07 5.7838e-07 1.0944e+08)
(2.74757e+08 -8.68707e+07 8.85789e-07 6.20006e+07 2.86041e-07 1.18775e+08)
(2.55096e+08 -7.49845e+07 7.20424e-07 2.19452e+07 9.52118e-09 1.00951e+08)
(2.74006e+08 -8.05926e+07 2.26562e-07 5.43877e+07 -1.26916e-07 1.05977e+08)
(2.59203e+08 -6.86268e+07 2.98098e-07 2.04469e+07 -6.29407e-08 9.32747e+07)
(2.71623e+08 -7.11632e+07 4.47971e-08 3.99872e+07 -4.22357e-08 9.56814e+07)
(2.63375e+08 -6.14012e+07 -3.2566e-08 1.83654e+07 1.64129e-07 8.87517e+07)
(2.71045e+08 -6.19958e+07 -2.78392e-07 2.89442e+07 2.08794e-07 9.0337e+07)
(2.66608e+08 -5.43436e+07 -1.35667e-07 1.56901e+07 3.18761e-07 8.66563e+07)
(2.72147e+08 -5.37835e+07 4.67041e-08 2.26138e+07 1.63464e-07 8.84284e+07)
(2.68735e+08 -4.76002e+07 3.414e-07 1.2511e+07 1.82106e-07 8.57283e+07)
(2.74416e+08 -4.64433e+07 1.86421e-07 1.83923e+07 1.39816e-07 8.79499e+07)
(2.70017e+08 -4.11875e+07 6.83302e-08 9.22525e+06 2.71783e-07 8.53041e+07)
(2.76398e+08 -3.94027e+07 -1.38111e-07 1.54554e+07 1.61129e-07 8.828e+07)
(2.70805e+08 -3.49882e+07 -2.02045e-07 6.11677e+06 1.5763e-07 8.52485e+07)
(2.77981e+08 -3.27597e+07 -6.79444e-08 1.31154e+07 1.13241e-07 8.88561e+07)
(2.71215e+08 -2.8988e+07 -1.31351e-07 3.29923e+06 0 8.53531e+07)
(2.78896e+08 -2.65281e+07 -1.1131e-07 1.09524e+07 6.67861e-08 8.93142e+07)
(2.71327e+08 -2.31887e+07 6.85958e-08 832517 -6.38181e-08 8.548e+07)
(2.78887e+08 -2.0787e+07 2.01537e-10 8.60226e+06 -8.80665e-08 8.93187e+07)
(2.71108e+08 -1.75407e+07 -1.28249e-07 -1.378e+06 6.47021e-08 8.5472e+07)
(2.77825e+08 -1.53035e+07 -8.58339e-08 5.62667e+06 4.10739e-08 8.90249e+07)
(2.70841e+08 -1.2131e+07 -8.1798e-08 -3.10923e+06 8.51269e-08 8.56899e+07)
(2.76237e+08 -1.04006e+07 1.32275e-09 2.73201e+06 4.55759e-08 8.82915e+07)
(2.70267e+08 -6.92145e+06 2.50607e-08 -4.64076e+06 -6.28031e-08 8.56486e+07)
(2.74046e+08 -5.72102e+06 -1.90828e-08 -415793 1.90828e-08 8.72768e+07)
(2.69587e+08 -1.94382e+06 2.44327e-08 -5.84788e+06 2.04733e-08 8.56146e+07)
(2.71649e+08 -1.35293e+06 -4.21815e-08 -3.38234e+06 2.26604e-08 8.60511e+07)
(2.68724e+08 2.80133e+06 -1.69513e-08 -6.84499e+06 2.2405e-08 8.54229e+07)
(2.69058e+08 2.79231e+06 2.30102e-09 -6.23488e+06 -4.19377e-08 8.4656e+07)
(2.67745e+08 7.30012e+06 3.1746e-08 -7.61984e+06 -6.09216e-08 8.51213e+07)
(2.6635e+08 6.69833e+06 2.02717e-08 -8.94372e+06 -1.67223e-08 8.31557e+07)
(2.66732e+08 1.15171e+07 0 -8.14501e+06 -8.10694e-08 8.47614e+07)
(2.63699e+08 1.03336e+07 -4.39803e-08 -1.13414e+07 -8.33691e-08 8.15353e+07)
(2.65638e+08 1.54639e+07 -1.18372e-08 -8.50032e+06 -6.04808e-08 8.42095e+07)
(2.61106e+08 1.37461e+07 -2.14119e-08 -1.34817e+07 1.93042e-08 7.98401e+07)
(2.36684e+08 -8.95294e+07 1.44089e-06 2.19837e+07 -8.40396e-08 1.0859e+08)
(2.5308e+08 -9.84623e+07 3.77573e-07 5.83989e+07 7.34007e-07 1.16508e+08)
(2.40325e+08 -8.68136e+07 7.01108e-08 2.27927e+07 3.21949e-07 1.00751e+08)
(2.56497e+08 -9.59225e+07 8.246e-07 6.15901e+07 6.36383e-07 1.04693e+08)
(2.4422e+08 -8.1863e+07 1.16422e-06 2.17123e+07 4.97547e-08 9.03995e+07)
(2.54562e+08 -8.72926e+07 1.04042e-06 4.59523e+07 9.24822e-08 9.06714e+07)
(2.50228e+08 -7.56628e+07 5.11482e-07 2.16612e+07 -6.47195e-08 8.40557e+07)
(2.4983e+08 -7.45786e+07 3.03577e-07 3.43342e+07 2.3352e-07 8.52492e+07)
(2.54379e+08 -6.76137e+07 -9.34082e-08 2.14866e+07 1.86816e-07 8.27597e+07)
(2.5049e+08 -6.58072e+07 9.34082e-08 2.84303e+07 1.63464e-07 8.36761e+07)
(2.55724e+08 -5.92979e+07 -9.34082e-08 1.97551e+07 1.40112e-07 8.26436e+07)
(2.5224e+08 -5.84765e+07 -1.40112e-07 2.36706e+07 3.50281e-07 8.27731e+07)
(2.57626e+08 -5.21569e+07 -1.40112e-07 1.62829e+07 2.10168e-07 8.21726e+07)
(2.54214e+08 -5.17275e+07 2.3352e-08 1.90737e+07 1.1676e-07 8.19862e+07)
(2.59553e+08 -4.56299e+07 4.67041e-08 1.24285e+07 7.00561e-08 8.15945e+07)
(2.56313e+08 -4.54087e+07 7.00561e-08 1.46086e+07 9.34082e-08 8.12766e+07)
(2.61428e+08 -3.95075e+07 0 7.99782e+06 1.40112e-07 8.08277e+07)
(2.58294e+08 -3.93097e+07 -9.34082e-08 1.02145e+07 2.10168e-07 8.05527e+07)
(2.62994e+08 -3.37008e+07 -1.1676e-07 3.38469e+06 1.40112e-07 7.99137e+07)
(2.60158e+08 -3.34002e+07 0 6.00456e+06 7.00561e-08 7.98488e+07)
(2.64257e+08 -2.82192e+07 0 -1.12637e+06 7.00561e-08 7.89392e+07)
(2.62095e+08 -2.77089e+07 -2.3352e-08 2.10188e+06 9.34082e-08 7.92591e+07)
(2.65179e+08 -2.31812e+07 2.33247e-08 -4.96622e+06 6.99742e-08 7.81167e+07)
(2.64739e+08 -2.23741e+07 -7.00561e-08 -1.35366e+06 1.63464e-07 7.90156e+07)
(2.6409e+08 -1.79396e+07 2.29164e-08 -8.05147e+06 4.58327e-08 7.76415e+07)
(2.66599e+08 -1.70216e+07 -2.3352e-08 -4.80457e+06 0 7.85383e+07)
(2.62816e+08 -1.30398e+07 -2.26008e-08 -1.07724e+07 0 7.70247e+07)
(2.66365e+08 -1.17485e+07 0 -6.92909e+06 0 7.85562e+07)