/*--------------------------------*- C++ -*----------------------------------*\
| =========                 |                                                 |
| \\      /  F ield         | OpenFOAM: The Open Source CFD Toolbox           |
|  \\    /   O peration     | Version:  v2012                                 |
|   \\  /    A nd           | Website:  www.openfoam.com                      |
|    \\/     M anipulation  |                                                 |
\*---------------------------------------------------------------------------*/
FoamFile
{
    version     2.0;
    format      ascii;
    class       volVectorField;
    location    "19";
    object      D;
}
// * * * * * * * * * * * * * * * * * * * * * * * * * * * * * * * * * * * * * //

dimensions      [0 1 0 0 0 0 0];


internalField   nonuniform List<vector> 
470
(
(0.000875099 8.59594e-06 0)
(0.000880486 -1.4217e-06 0)
(0.000782289 -1.28848e-05 0)
(0.00091609 8.11446e-07 0)
(0.000818441 3.54875e-06 0)
(0.000819343 -1.93529e-05 0)
(0.00082188 1.27311e-05 0)
(0.000824041 -1.57329e-06 0)
(0.000583752 -3.9859e-05 0)
(0.000786347 1.38888e-06 0)
(0.000615536 -2.98291e-05 0)
(0.000414249 -0.000200056 0)
(0.000438628 -0.000153878 0)
(0.00090316 1.92573e-06 0)
(0.000463043 -8.94977e-05 0)
(0.000695047 -9.84564e-06 0)
(0.000782035 4.18414e-06 0)
(0.000892177 3.87232e-06 0)
(0.000888084 1.48687e-06 0)
(0.00087496 5.26355e-06 0)
(0.000690101 -1.64701e-05 0)
(0.000891044 7.89192e-06 0)
(0.000781392 -1.8586e-05 0)
(0.000900373 3.8517e-06 0)
(0.000614433 -9.8491e-05 0)
(0.000835415 1.08643e-05 0)
(0.000652598 -6.78098e-05 0)
(0.000744779 -2.74805e-05 0)
(0.000831327 -1.12062e-05 0)
(0.000909407 2.35301e-06 0)
(0.000876394 6.68075e-06 0)
(0.000465273 -9.49642e-05 0)
(0.000775998 -2.47597e-06 0)
(0.00066171 -0.000336606 0)
(0.000810625 -2.31281e-05 0)
(0.000833953 -1.6115e-05 0)
(0.000359963 -0.000169957 0)
(0.000874276 3.28904e-06 0)
(0.000872397 8.97515e-06 0)
(0.000870288 4.67214e-06 0)
(0.000708264 -2.89652e-05 0)
(0.000885936 1.60688e-06 0)
(0.000338569 -0.000317706 0)
(0.000730813 -1.52464e-05 0)
(0.000730298 -2.79164e-05 0)
(0.000274089 -0.000372854 0)
(0.000844832 1.43061e-05 0)
(0.000649468 -4.89227e-05 0)
(0.000677724 -3.71382e-05 0)
(0.000616943 -5.11506e-05 0)
(0.0002996 -0.00020956 0)
(0.000730424 -0.000283763 0)
(0.000885637 5.90359e-06 0)
(0.000887213 3.54791e-06 0)
(0.000902376 7.9214e-06 0)
(0.000894176 6.87571e-06 0)
(-6.43641e-06 -0.000885328 0)
(-1.25481e-05 -0.000858449 0)
(0.000733624 6.05898e-06 0)
(0.000755017 -1.99836e-05 0)
(0.000836478 1.01136e-05 0)
(0.000571789 -0.000103205 0)
(0.000500319 -9.34549e-05 0)
(0.000476469 -0.000228636 0)
(0.000802373 -0.000243954 0)
(0.000260505 -0.000629841 0)
(0.000861578 5.86043e-06 0)
(0.000880825 4.76374e-06 0)
(0.000846598 -4.11872e-05 0)
(0.000711711 5.12284e-07 0)
(0.000885626 2.03901e-06 0)
(0.000795812 4.7919e-06 0)
(0.000571771 -0.000291935 0)
(0.000785359 1.27995e-05 0)
(0.000470004 -0.000334863 0)
(0.000914375 1.58733e-05 0)
(0.000813675 1.87958e-06 0)
(0.000821374 3.44891e-06 0)
(0.000756385 9.56317e-06 0)
(7.59602e-05 -0.000837023 0)
(0.000721467 -9.13767e-06 0)
(0.000401601 -0.000498391 0)
(0.000770722 -1.18721e-05 0)
(0.000840355 -5.70922e-05 0)
(0.000578268 -6.04112e-05 0)
(0.00090288 1.26165e-05 0)
(0.000395344 -0.000292549 0)
(0.000802706 -0.000300323 0)
(0.000337036 -0.000416948 0)
(0.000584213 -0.000224944 0)
(0.000450712 -0.000346053 0)
(0.00041462 -0.000147133 0)
(0.000794206 1.47041e-05 0)
(0.000812465 9.37013e-06 0)
(0.00045437 -0.000112494 0)
(0.000429859 -0.000116692 0)
(0.000831657 1.13143e-05 0)
(0.000822388 8.27141e-06 0)
(0.000797448 2.633e-06 0)
(0.000802542 -1.83295e-05 0)
(0.000890985 5.35176e-06 0)
(0.00063172 -3.29897e-05 0)
(0.000620341 -0.000336693 0)
(0.000915045 7.51035e-06 0)
(0.000921511 6.46784e-06 0)
(0.000853568 -3.07442e-06 0)
(0.000863699 -9.82445e-07 0)
(0.000824677 1.4273e-05 0)
(0.000882586 -5.11492e-05 0)
(0.000643654 -0.00044702 0)
(0.00029614 -0.000438139 0)
(0.000576945 -0.000435138 0)
(0.000917392 1.39516e-05 0)
(0.000824289 -2.21071e-05 0)
(0.000828998 -3.13552e-05 0)
(0.000748519 7.90897e-06 0)
(0.000919327 2.78104e-06 0)
(0.000581146 -4.69123e-05 0)
(0.000819144 1.39888e-05 0)
(0.000882571 5.33654e-06 0)
(0.000799668 1.42531e-05 0)
(0.000906196 4.83534e-06 0)
(0.000898502 3.78511e-06 0)
(0.000935038 1.27469e-05 0)
(0.000879121 6.2647e-06 0)
(0.000723989 5.4704e-06 0)
(0.000714184 3.99449e-06 0)
(0.000884139 5.01206e-06 0)
(0.000557587 -5.86782e-05 0)
(0.000901657 5.01418e-06 0)
(0.000849725 7.6618e-06 0)
(0.000829437 8.48147e-06 0)
(0.000810671 1.20617e-05 0)
(0.000883527 5.93468e-06 0)
(0.000901375 1.48075e-05 0)
(0.000791307 -2.00195e-05 0)
(0.000780572 8.1588e-06 0)
(0.000775865 -0.000219128 0)
(0.000340766 -0.00023629 0)
(0.000846534 -1.22971e-05 0)
(0.000838272 -1.2857e-05 0)
(0.000629145 -0.00015394 0)
(0.000875791 3.88824e-06 0)
(0.00083562 6.29428e-06 0)
(0.000844879 4.16359e-06 0)
(0.000865942 1.02155e-05 0)
(0.00092961 2.57166e-06 0)
(0.000535793 -0.000125322 0)
(0.000865167 5.23584e-06 0)
(0.000461753 -0.000188788 0)
(0.000881715 5.52924e-06 0)
(0.000924787 4.83353e-06 0)
(0.00081099 -3.13146e-05 0)
(0.000911451 1.04825e-05 0)
(0.000785658 -0.00043912 0)
(0.000689125 -4.90222e-06 0)
(0.000873286 -7.77964e-05 0)
(0.000843977 1.16701e-05 0)
(0.000845581 9.86747e-06 0)
(0.000799559 -9.55319e-07 0)
(0.000753965 -0.000394914 0)
(0.000524282 -7.01604e-05 0)
(4.05461e-05 -0.00059664 0)
(0.000505396 -8.28281e-05 0)
(7.60876e-05 -0.000822936 0)
(0.000787657 -6.41693e-05 0)
(0.000786697 -4.53052e-05 0)
(0.000531663 -6.8293e-05 0)
(0.000763717 1.22485e-05 0)
(0.000734651 -4.27524e-05 0)
(0.000764019 -3.29826e-05 0)
(0.000848875 1.19828e-06 0)
(0.00084338 -2.87514e-06 0)
(0.000825396 3.27465e-07 0)
(0.000836459 9.53075e-07 0)
(0.000843295 8.55978e-06 0)
(0.000891364 2.81812e-06 0)
(0.000890043 -6.8688e-06 0)
(0.000644742 -0.000113773 0)
(0.00077825 -1.86468e-05 0)
(0.000766947 -1.0498e-05 0)
(0.000297452 -0.000284493 0)
(0.000786542 1.23138e-05 0)
(0.000724871 3.0139e-06 0)
(0.000719008 -5.79656e-06 0)
(0.000575802 -4.31366e-05 0)
(0.000828303 -8.39167e-06 0)
(0.000894556 -2.50138e-06 0)
(0.000107926 -0.000511024 0)
(0.0008928 4.7029e-06 0)
(0.000842792 -9.65587e-06 0)
(0.000844451 1.45389e-05 0)
(0.000747416 2.94033e-06 0)
(0.000761198 8.41182e-06 0)
(0.000872542 4.16825e-06 0)
(0.000881562 5.51763e-06 0)
(0.000768326 -2.19365e-05 0)
(0.000805316 -6.05175e-06 0)
(0.000799699 -1.11082e-05 0)
(0.00035268 -0.000211776 0)
(0.000884199 -1.75135e-06 0)
(0.000887992 1.8455e-06 0)
(0.000118201 -0.000425199 0)
(0.000777917 -0.000123571 0)
(0.000730039 -5.45101e-06 0)
(0.000717038 -1.86005e-05 0)
(0.0008804 3.40963e-06 0)
(0.000880208 5.84426e-06 0)
(0.000776293 -0.000153323 0)
(0.000880546 -3.02313e-05 0)
(0.000891436 5.00528e-06 0)
(0.000772024 -7.92731e-06 0)
(0.000889237 -1.25489e-05 0)
(0.000883392 5.44889e-06 0)
(0.000590141 -3.59167e-05 0)
(0.000618526 -2.40572e-05 0)
(0.000864913 5.26694e-06 0)
(0.000851863 1.07284e-05 0)
(0.000877111 6.33462e-06 0)
(0.000729944 -6.16784e-05 0)
(0.000878514 -4.06229e-05 0)
(0.000852984 1.11487e-05 0)
(0.000818959 -1.06243e-05 0)
(0.00088547 6.0936e-06 0)
(0.000699359 -7.48652e-05 0)
(0.000810107 -1.59439e-05 0)
(0.000632144 -2.80924e-05 0)
(0.000884364 -1.77299e-05 0)
(0.000182046 -0.000717268 0)
(0.000287729 -0.00023531 0)
(0.000665047 -2.69219e-05 0)
(0.000872874 -3.13256e-05 0)
(0.000939349 6.23286e-06 0)
(0.000863504 -4.09832e-06 0)
(0.000729373 -1.45187e-05 0)
(0.000812449 1.25902e-05 0)
(0.000835846 -0.000168001 0)
(0.000873614 4.32883e-06 0)
(0.000881078 6.86314e-06 0)
(0.000926907 1.25241e-05 0)
(0.000919309 1.00253e-05 0)
(0.000927169 7.14105e-06 0)
(0.000860538 -3.93567e-06 0)
(0.000322188 -0.000696326 0)
(0.000134071 -0.000814882 0)
(0.000101749 -0.000766798 0)
(1.97833e-05 -0.000874096 0)
(0.000877022 4.96814e-06 0)
(0.000882952 2.80291e-06 0)
(0.000819964 -4.63497e-06 0)
(0.000829726 -3.59008e-06 0)
(0.000754339 -1.62436e-05 0)
(0.000942019 8.47356e-06 0)
(0.000871616 -1.292e-08 0)
(0.000671119 -5.91959e-06 0)
(0.000880961 9.51674e-06 0)
(0.00086711 7.61421e-06 0)
(0.000935942 9.52856e-06 0)
(0.000869264 1.43224e-06 0)
(0.000883707 4.64848e-06 0)
(0.000758036 1.14531e-05 0)
(0.000399628 -0.000456613 0)
(0.000889397 -1.10611e-06 0)
(0.000841951 -0.000142201 0)
(0.000858185 9.16789e-06 0)
(0.000931738 5.70741e-06 0)
(0.000854193 -6.99659e-06 0)
(0.000898345 8.42263e-07 0)
(0.000864026 1.01598e-05 0)
(0.000717077 -2.43068e-05 0)
(0.000780439 -2.83997e-05 0)
(0.000843828 -0.000111972 0)
(0.000374499 -0.000151759 0)
(0.000805599 -0.000103655 0)
(2.20244e-05 -0.000841238 0)
(0.000740171 -0.000208615 0)
(0.000704124 -0.000235256 0)
(0.000750407 -2.12416e-06 0)
(0.00056378 -5.67866e-05 0)
(0.000869559 2.70865e-06 0)
(0.000791734 9.56961e-06 0)
(0.000668658 -6.92761e-06 0)
(0.000825949 1.49034e-05 0)
(0.000690851 -2.16037e-06 0)
(0.000913675 4.11502e-06 0)
(0.000920079 2.66323e-06 0)
(0.000698365 -1.77226e-05 0)
(0.000161116 -0.000488417 0)
(0.000876149 6.1719e-06 0)
(0.000864832 -5.47104e-06 0)
(0.000792481 -0.00017714 0)
(0.000822469 -9.9796e-05 0)
(0.000869609 -1.23157e-06 0)
(0.000602204 -3.49091e-05 0)
(0.000640881 -1.60513e-05 0)
(0.00086105 7.86581e-06 0)
(0.000884278 5.3174e-06 0)
(0.000801462 -2.67116e-05 0)
(0.000639093 -1.49668e-05 0)
(0.000907902 2.77448e-07 0)
(0.000869613 3.87578e-06 0)
(0.000834783 -0.000219627 0)
(0.000881465 6.44112e-06 0)
(0.00089067 1.11361e-05 0)
(0.000336266 -0.000514278 0)
(0.000779373 -2.42004e-07 0)
(0.000851415 1.38687e-07 0)
(0.000856484 1.39249e-06 0)
(0.000844445 -1.63394e-05 0)
(0.000839064 -1.031e-05 0)
(0.000534291 -0.000155981 0)
(0.000664763 -0.000167193 0)
(0.000839656 -0.000408754 0)
(0.000846825 5.67113e-06 0)
(0.000831356 -6.97325e-05 0)
(0.000497434 -0.000129398 0)
(0.0007984 -7.71925e-05 0)
(0.000880608 -1.32281e-05 0)
(0.000573506 -4.41317e-05 0)
(0.000855587 1.05591e-05 0)
(0.000656936 -3.51345e-05 0)
(0.000861134 9.32371e-06 0)
(0.000853942 8.55224e-06 0)
(0.000893565 5.03757e-06 0)
(0.000628139 -1.93857e-05 0)
(0.000894357 1.44552e-06 0)
(0.000770181 -2.64347e-05 0)
(0.000803478 -1.58981e-05 0)
(0.000822556 -7.52925e-06 0)
(0.000863565 -6.17683e-05 0)
(0.000839237 1.33358e-05 0)
(0.000874856 -4.22022e-05 0)
(0.000741408 -1.14012e-06 0)
(0.000726138 1.83468e-06 0)
(0.000861991 -2.71584e-05 0)
(0.000774185 9.82444e-06 0)
(0.000880697 8.937e-07 0)
(0.000869843 7.67087e-06 0)
(0.000209183 -0.000299481 0)
(0.000839857 -5.0537e-06 0)
(0.000874181 7.40746e-06 0)
(0.000115529 -0.000699489 0)
(0.000619692 -4.13157e-05 0)
(0.000886615 -1.94332e-05 0)
(0.000854077 3.66115e-06 0)
(0.000672125 -2.89307e-05 0)
(0.000219672 -0.000325708 0)
(0.000857653 7.71819e-06 0)
(0.000940983 4.15436e-06 0)
(0.000861718 -7.01178e-06 0)
(0.000883832 2.02084e-06 0)
(0.000806459 1.10807e-05 0)
(0.000681357 -8.46253e-06 0)
(0.000698477 -3.04808e-05 0)
(0.00010012 -0.000445144 0)
(0.000892861 -6.77582e-06 0)
(9.90615e-05 -0.000670379 0)
(0.000798842 7.94095e-06 0)
(0.000936036 6.56635e-07 0)
(0.000889657 -1.80471e-07 0)
(0.000935189 3.1959e-06 0)
(0.000926957 1.60936e-05 0)
(0.00089131 1.23922e-05 0)
(0.000762259 1.40164e-06 0)
(0.000779366 -0.000389499 0)
(0.000848668 -1.43886e-05 0)
(0.000869914 8.48173e-06 0)
(0.000175438 -0.000375968 0)
(0.000888209 -4.07593e-06 0)
(0.000851366 -1.1358e-05 0)
(0.00085544 1.4231e-05 0)
(0.000794812 1.36279e-05 0)
(6.94908e-05 -0.000759337 0)
(0.000914635 6.5509e-06 0)
(0.000866105 -9.56568e-05 0)
(0.000854089 -0.000135823 0)
(0.000896472 -5.7698e-06 0)
(0.000859002 -1.37899e-07 0)
(0.000649367 -0.000525723 0)
(0.000854818 -8.51443e-05 0)
(0.00076297 2.11985e-06 0)
(0.000552629 -0.000359706 0)
(-8.94246e-06 -0.000755621 0)
(0.000906 6.65327e-06 0)
(0.000872785 5.14996e-06 0)
(0.000838137 -0.000555107 0)
(0.000190711 -0.000525565 0)
(0.000170016 -0.000623424 0)
(0.00068741 -2.60876e-05 0)
(0.000869502 7.82616e-06 0)
(0.000657934 -0.00021905 0)
(0.000901548 8.425e-07 0)
(0.000792017 -2.63096e-05 0)
(0.000492608 -0.000384537 0)
(0.000848675 -4.2082e-06 0)
(0.000876028 7.392e-06 0)
(0.000930193 1.83936e-06 0)
(0.00083885 -1.87501e-05 0)
(0.000516358 -7.1349e-05 0)
(0.000744842 -1.17114e-05 0)
(0.000540666 -5.50314e-05 0)
(0.000169773 -0.000589833 0)
(0.000795702 -3.4817e-06 0)
(0.000869722 -9.05861e-06 0)
(0.000551663 -0.000219744 0)
(9.13164e-05 -0.00079025 0)
(0.000574224 -0.000166998 0)
(0.000808243 -1.05754e-05 0)
(0.000942955 1.04638e-06 0)
(0.000946002 3.12654e-06 0)
(0.000856367 -1.17605e-05 0)
(0.000864798 -6.78027e-06 0)
(0.000891638 7.71077e-07 0)
(0.000757057 -2.93408e-05 0)
(1.5404e-05 -0.000800548 0)
(0.000768757 -0.000349079 0)
(0.000900591 6.90218e-06 0)
(0.000860186 -1.92511e-05 0)
(0.000216517 -0.000414306 0)
(0.00088156 -1.69801e-06 0)
(0.000775906 7.99813e-06 0)
(0.00088102 9.94931e-07 0)
(0.000759886 -3.19971e-06 0)
(0.000899953 5.4987e-06 0)
(0.000781643 -4.90162e-06 0)
(0.000443574 -0.000698245 0)
(0.00018476 -0.000607985 0)
(0.00075341 -7.72313e-05 0)
(0.0005623 -8.60456e-05 0)
(4.7702e-05 -0.000679376 0)
(0.000515146 -9.87666e-05 0)
(0.000690384 -0.000105978 0)
(0.000684451 -4.42903e-06 0)
(0.000662916 -1.22272e-05 0)
(0.000891476 -2.22596e-05 0)
(0.000888042 -1.44723e-05 0)
(0.000925169 -1.41829e-07 0)
(0.000833572 -1.97782e-05 0)
(0.000866147 1.12423e-06 0)
(0.000696204 -1.12309e-05 0)
(0.00071693 -0.000119093 0)
(0.00054483 -5.83937e-05 0)
(0.000907756 3.66233e-06 0)
(0.000734854 -0.000171299 0)
(0.000668295 -2.2648e-05 0)
(0.000710712 -0.000155124 0)
(0.000751981 -0.000106032 0)
(0.000822528 -1.42183e-05 0)
(0.000884848 -5.29535e-06 0)
(0.000861834 3.85127e-07 0)
(0.000757771 -8.06157e-06 0)
(0.000624238 -2.8667e-05 0)
(0.000645142 -2.11935e-05 0)
(0.000860556 3.66789e-06 0)
(0.000870097 4.46502e-06 0)
(0.000850155 -4.36918e-06 0)
(0.000675186 -1.76297e-05 0)
(0.000639426 -3.50996e-05 0)
(0.000844344 8.85086e-07 0)
(0.000850217 4.68318e-06 0)
(0.000778269 6.43165e-06 0)
(0.000796291 9.18914e-06 0)
(0.000865333 1.91261e-06 0)
(0.000651594 -2.47207e-05 0)
(0.000652394 -1.44718e-05 0)
(0.000660667 -1.46695e-05 0)
(0.000855065 9.11178e-06 0)
(0.000863209 8.9711e-06 0)
(0.000701191 -5.07623e-06 0)
(0.000657199 -1.70896e-05 0)
)
;

boundaryField
{
    back
    {
        type            empty;
    }
    front
    {
        type            empty;
    }
    down
    {
        type            symmetry;
    }
    right
    {
        type            calculated;
        value           nonuniform List<vector> 10((0.000919579 2.03706e-05 -2.46716e-22) (0.000939271 1.61053e-05 5.20816e-22) (0.000884653 1.05164e-05 -7.93469e-22) (0.000906721 1.97027e-05 8.43253e-22) (0.000945166 9.59289e-06 2.23661e-22) (0.000875956 1.69956e-06 -7.70468e-22) (0.000930272 1.83783e-05 -8.89375e-22) (0.00089504 1.49107e-05 5.39106e-22) (0.000948227 3.59889e-06 -1.78734e-22) (0.000868014 -5.3322e-06 -1.13176e-21));
    }
    up
    {
        type            calculated;
        value           nonuniform List<vector> 
20
(
(0.000460139 -0.000102719 0)
(0.000731253 -3.24209e-05 0)
(0.000274273 -0.000221821 -9.31899e-21)
(-4.37195e-05 -0.00086223 -6.4374e-21)
(0.000823714 -2.47561e-05 2.04958e-22)
(0.000552097 -6.36024e-05 2.04928e-21)
(-1.29371e-05 -0.0006036 -9.14801e-22)
(0.000499738 -8.87054e-05 0)
(0.000780546 -3.09351e-05 -4.3595e-22)
(0.000359573 -0.000160007 1.68415e-21)
(0.000800915 -2.90239e-05 -7.78896e-22)
(0.000655494 -3.86643e-05 5.69294e-22)
(0.000183199 -0.000307324 4.06687e-21)
(0.000618704 -4.60951e-05 4.62597e-22)
(0.000698114 -3.3908e-05 5.4716e-22)
(6.55888e-05 -0.00045206 -3.02709e-21)
(-4.03531e-05 -0.000760374 5.99981e-21)
(0.000837476 -2.02665e-05 -2.05192e-22)
(0.000854965 -1.31502e-05 -4.74394e-22)
(0.000756678 -3.15356e-05 2.66079e-22)
)
;
    }
    left
    {
        type            symmetry;
    }
    hole
    {
        type            calculated;
        value           nonuniform List<vector> 8((0.000823602 -0.000325572 5.57212e-22) (0.000869604 -8.74811e-05 7.26973e-22) (0.000325198 0.000204784 -9.84715e-20) (0.000874783 -3.32901e-05 -8.38177e-22) (0.000843577 -0.000237397 2.27921e-21) (0.000861027 -0.000408927 -7.51763e-21) (0.000789328 -0.000402916 0) (0.000855296 -0.000147215 -3.61549e-21));
    }
}


// ************************************************************************* //
