/*--------------------------------*- C++ -*----------------------------------*\
| =========                 |                                                 |
| \\      /  F ield         | OpenFOAM: The Open Source CFD Toolbox           |
|  \\    /   O peration     | Version:  v2012                                 |
|   \\  /    A nd           | Website:  www.openfoam.com                      |
|    \\/     M anipulation  |                                                 |
\*---------------------------------------------------------------------------*/
FoamFile
{
    version     2.0;
    format      ascii;
    class       volSymmTensorField;
    location    "19";
    object      epsilon;
}
// * * * * * * * * * * * * * * * * * * * * * * * * * * * * * * * * * * * * * //

dimensions      [0 0 0 0 0 0 0];


internalField   nonuniform List<symmTensor> 
470
(
(1.83831e-05 -5.74356e-05 -6.53725e-21 4.01098e-05 1.33945e-21 0)
(-7.70498e-06 -3.61158e-05 9.45445e-21 3.75429e-05 -4.85798e-21 0)
(0.000237458 -6.65765e-05 -3.86725e-21 -8.93773e-05 2.46583e-21 0)
(0.000104054 -1.31116e-05 -1.01311e-20 1.22453e-05 2.5598e-22 0)
(2.57207e-05 -0.000139272 3.1279e-20 -3.68755e-06 1.21836e-21 0)
(0.000205876 -2.10752e-05 -3.79507e-20 -6.36508e-05 -7.29493e-21 0)
(0.00012731 -0.000123811 8.68143e-21 1.91051e-05 -1.57109e-22 0)
(1.49241e-05 -0.000109875 -3.40619e-20 -2.10175e-05 4.28515e-21 0)
(0.000404425 -0.000144415 -1.39053e-20 -0.000163852 -1.00593e-21 0)
(0.00019064 -0.00011684 -3.15735e-20 -8.05655e-05 -2.24536e-21 0)
(0.000326646 -0.000196654 2.50357e-20 -0.000142435 1.39863e-20 0)
(0.000529069 -0.000124437 -1.06166e-19 -0.000367684 -4.33659e-20 0)
(0.000518875 -8.74242e-05 -6.39724e-20 -0.000225274 -3.25495e-20 0)
(8.98619e-05 -3.66416e-05 9.82611e-21 1.35473e-05 -2.03871e-21 0)
(0.00068135 -3.56823e-05 3.84878e-20 -0.000228151 2.03908e-20 0)
(0.000319559 -0.00011206 4.9592e-21 -0.000118309 -1.15816e-20 0)
(0.000209905 -0.000123827 2.02481e-20 -3.97481e-05 5.13301e-21 0)
(9.62209e-05 -4.04156e-05 -5.61608e-21 3.5883e-05 3.77344e-21 0)
(5.27013e-05 -1.87681e-05 -5.18357e-21 3.91305e-05 3.06927e-22 0)
(-2.14653e-05 -6.08001e-05 -1.28709e-21 3.00507e-05 1.09435e-21 0)
(0.00033622 -9.81383e-05 2.68033e-20 -0.000142494 1.48309e-20 0)
(0.00014488 -3.79867e-05 4.76916e-21 -2.49088e-05 1.77043e-22 0)
(0.000223521 -5.42696e-05 -1.18646e-20 -0.000100202 -4.13814e-21 0)
(0.000125081 -4.13596e-05 1.35692e-20 3.04134e-05 -2.53532e-21 0)
(0.000156208 -0.000178988 -6.30672e-20 -0.000159356 -1.49535e-20 0)
(7.25845e-05 -0.000129797 2.44355e-21 -1.2349e-05 -2.48633e-21 0)
(0.000236603 -0.000166919 -1.11795e-20 -0.000141162 -4.94805e-21 0)
(0.000284587 -3.83184e-05 3.71829e-20 -0.000121798 1.25737e-20 0)
(0.000190868 -3.24631e-05 1.25519e-20 -7.41796e-05 -3.70973e-21 0)
(0.000116125 -1.65606e-05 -4.3452e-21 1.84446e-05 7.71064e-22 0)
(-1.9764e-06 -3.96976e-05 -6.05001e-21 4.58554e-05 3.14288e-21 0)
(0.000576192 -2.12604e-05 0 -0.000273421 0 0)
(0.000222361 -0.000117341 -2.38918e-20 -7.61714e-05 -4.76608e-21 0)
(-0.00057917 -0.000164438 4.1501e-20 -0.000287979 -5.07073e-20 0)
(0.000181705 -1.3918e-05 -2.35845e-20 -0.000105302 -3.18511e-21 0)
(0.000191031 -2.54655e-05 3.3425e-21 -7.03466e-05 4.63071e-21 0)
(0.000822997 -9.41983e-05 6.55275e-21 -0.000324314 2.62706e-21 0)
(3.5284e-05 -6.56183e-05 -1.06972e-20 4.09931e-05 3.59149e-21 0)
(-2.80848e-05 -5.8812e-05 -1.32857e-20 1.21631e-05 -1.10741e-20 0)
(-4.84589e-05 -6.43826e-05 8.08842e-21 1.07643e-05 1.56784e-21 0)
(0.00013356 -0.000192166 -2.85844e-20 -6.96925e-05 8.90935e-21 0)
(5.12921e-05 -7.84715e-06 -3.0996e-21 4.78657e-05 -7.43799e-21 0)
(0.000836818 4.91095e-06 9.99173e-20 -0.000336847 9.41471e-20 0)
(0.000171195 -0.000172222 2.00845e-20 -4.72289e-05 1.24579e-20 0)
(0.000285239 -4.89207e-06 0 -0.000123705 0 0)
(0.000640324 2.02706e-06 1.54648e-19 -0.000453562 2.07603e-19 0)
(5.47179e-05 -0.000117022 -3.35004e-20 4.58089e-05 1.124e-21 0)
(0.000199853 -0.000169788 -3.71234e-21 -7.38624e-05 1.66552e-20 0)
(0.000230617 -0.000174235 -3.16006e-20 -8.06374e-05 -1.67262e-20 0)
(0.00027594 -0.000216125 6.00318e-20 -0.000140216 1.87552e-20 0)
(0.000755815 -3.15806e-05 1.51473e-19 -0.000303327 4.13439e-20 1.00084e-35)
(0.000153425 -9.1952e-07 0 0.000224266 0 0)
(6.84533e-05 -5.22498e-05 3.59769e-21 1.50362e-05 -6.35375e-22 0)
(7.45799e-05 -3.01046e-05 -1.9427e-20 4.68352e-05 1.03978e-20 0)
(0.000133286 -3.92693e-05 0 -1.2833e-05 0 0)
(0.000147072 -4.88707e-05 6.93579e-21 -6.11859e-06 1.66604e-21 0)
(-4.10994e-05 2.87855e-05 -3.86224e-20 -0.000208137 -8.38274e-21 0)
(0.000353527 9.44543e-05 2.13065e-20 -0.000148875 3.93836e-20 -4.43633e-36)
(0.000167391 -0.000174772 5.22853e-21 -5.24893e-05 7.10306e-22 0)
(0.000243934 -4.80191e-05 1.2007e-21 -0.000130221 1.96587e-22 0)
(0.000122584 -0.000118641 2.42815e-20 -1.57022e-05 1.42182e-22 0)
(0.000386189 -0.000176905 5.21368e-20 -0.000117011 3.07524e-20 0)
(0.000459894 -0.000162946 1.57304e-19 -0.00022554 5.13798e-20 0)
(0.000621417 -0.000147693 -8.49457e-20 -0.000240538 -6.93581e-20 0)
(-0.000179252 0.000243172 -4.73864e-20 -0.000163679 1.26248e-19 0)
(0.000990739 0.000105867 -1.48443e-19 -0.00125963 -2.86301e-19 0)
(5.06023e-06 -8.97325e-05 3.57834e-20 1.5341e-05 -5.32874e-21 0)
(0.00016106 -4.88877e-05 1.29743e-21 -2.36574e-05 3.00764e-22 0)
(-4.36746e-06 -1.93283e-05 -1.09267e-20 -0.000111341 3.55677e-20 0)
(0.000248536 -0.000160221 -3.04883e-20 -0.000107528 -7.80843e-21 0)
(-4.17522e-05 -1.55224e-05 4.63577e-21 1.2262e-05 4.20806e-21 0)
(0.000161377 -0.000136146 -1.50847e-20 -6.41318e-05 -9.09403e-22 0)
(0.000203237 -0.000246023 1.26903e-19 -0.000216125 1.31591e-19 0)
(0.000142786 -0.000166304 0 -1.91109e-05 0 0)
(0.00029546 -0.00010179 -7.24552e-20 -0.000423565 3.4626e-20 0)
(0.000141229 -6.23169e-06 1.12234e-21 -2.23295e-06 9.15075e-21 -7.98896e-37)
(0.000186161 -0.000107612 -8.13639e-21 -4.59253e-05 -4.04315e-21 0)
(0.000154942 -0.000114178 -5.77761e-21 -4.72069e-05 -3.20183e-21 0)
(0.000170532 -0.000179826 2.91387e-20 -3.43559e-05 3.95989e-21 0)
(0.00188278 -0.000248638 2.81248e-20 -9.4437e-05 2.88179e-21 0)
(0.000139016 -0.000190931 -2.08242e-20 -4.64468e-05 -9.86353e-21 0)
(0.00167878 -0.000327481 -3.96133e-21 -0.000876448 -9.89493e-20 0)
(0.000224156 -7.83721e-05 -9.84865e-21 -0.000102196 1.33835e-20 0)
(9.9912e-06 4.28604e-06 -2.05399e-20 -0.000112397 -1.86523e-20 0)
(0.000343325 -0.000169445 2.17686e-20 -0.000143932 5.21584e-21 0)
(0.000154998 -2.67763e-05 2.61613e-21 -1.04646e-05 -8.60266e-22 0)
(0.000340127 -9.73277e-05 -1.90273e-19 -0.00041785 -1.66482e-19 0)
(-0.000172193 0.00025659 -4.18976e-20 -0.000128225 3.72567e-20 -1.52773e-36)
(0.00080167 8.7305e-05 8.58405e-20 -0.000489849 5.77707e-21 0)
(0.00020413 -0.000115875 1.06799e-19 -0.000190006 5.14185e-21 0)
(0.000552247 -9.72628e-05 -1.46945e-19 -0.000519027 -6.30237e-20 0)
(0.000588091 -0.000138211 -1.84606e-19 -0.000271521 -1.09991e-19 0)
(0.000120821 -0.000149587 -5.93049e-21 -3.27611e-05 1.00929e-21 0)
(0.000171674 -0.000121639 -3.71919e-20 -3.80522e-05 8.59853e-22 0)
(0.000612528 -8.55428e-05 1.09654e-19 -0.000237896 4.55781e-20 0)
(0.000621458 -8.83921e-05 -4.52793e-20 -0.000298682 -9.30417e-21 0)
(2.77823e-05 -0.00012304 -1.8263e-20 2.75085e-06 1.65754e-22 0)
(0.000141975 -0.000128727 1.8063e-20 -8.86731e-06 -6.2382e-23 0)
(8.42739e-05 -0.000152769 9.09607e-21 -5.09117e-06 -1.08155e-20 0)
(0.000203109 -4.62742e-05 3.42491e-20 -8.60961e-05 1.20771e-20 0)
(0.000130082 -5.88202e-05 7.69489e-22 -5.04601e-06 -1.00514e-21 0)
(0.000285206 -0.000174505 -4.65787e-20 -0.000123064 -1.19462e-20 0)
(0.00046011 -0.000282848 0 3.0928e-05 0 0)
(0.0001349 -3.30225e-05 1.04305e-20 2.01704e-05 1.21979e-21 0)
(0.000117843 -3.4891e-05 -8.68161e-21 7.32228e-06 -7.36052e-23 0)
(0.000185529 -2.35528e-05 -5.59051e-21 -5.16996e-05 -1.2087e-21 0)
(0.00016778 -3.51778e-05 4.54311e-21 -5.52307e-05 6.65279e-22 0)
(6.22529e-05 -0.000144455 1.49461e-20 5.55536e-06 2.1265e-21 0)
(4.57151e-05 0.000117741 -1.38251e-21 -0.000422274 -1.15641e-20 0)
(0.000102876 -0.000357816 -4.01455e-20 -0.000238615 8.35889e-20 0)
(0.000743384 9.47798e-05 9.08468e-20 -0.000760339 2.36218e-20 0)
(0.000166696 -0.000518578 1.25815e-19 -0.000579145 4.65855e-20 0)
(0.000137262 -2.21236e-05 2.56607e-21 5.72899e-06 5.4909e-23 0)
(0.000184243 -2.74858e-06 5.62665e-21 -8.11531e-05 -1.4195e-21 3.37049e-37)
(-2.38426e-05 -6.53532e-05 -6.94074e-21 -4.16327e-05 2.46349e-20 0)
(0.000187586 -0.000169729 -1.46942e-21 -6.18222e-05 -2.24896e-22 0)
(0.000114678 -7.15961e-06 7.22063e-21 2.13234e-05 1.91955e-21 0)
(0.000452506 -5.71995e-05 -2.30979e-20 -0.000215886 -1.43896e-20 0)
(0.000100479 -0.000141533 4.38517e-21 2.67418e-05 -3.6475e-21 0)
(-5.25975e-07 -2.03471e-06 1.19891e-21 5.48665e-05 -3.08483e-21 0)
(9.12508e-05 -0.000157175 -1.09744e-20 -1.14795e-05 -5.77386e-22 0)
(0.000117164 -4.64019e-05 1.87806e-21 -3.58192e-06 4.05232e-22 0)
(9.86781e-05 -2.53722e-05 9.61378e-21 2.8561e-05 -3.17069e-21 0)
(0.00012785 -4.20203e-06 -2.52929e-21 3.14438e-05 -6.54187e-21 -1.41443e-36)
(0.000172563 -4.81761e-06 3.787e-21 -5.74798e-05 7.70939e-21 -2.13688e-36)
(0.000224412 -0.000164159 -2.34836e-20 -6.7212e-05 -3.61344e-21 0)
(0.000222318 -0.000181953 -1.50958e-20 -8.37253e-05 -2.624e-21 0)
(0.000152123 -5.84776e-05 2.30716e-20 -5.31856e-06 1.57039e-21 0)
(0.00053739 -1.92006e-05 -7.33758e-20 -0.00018826 -2.00191e-20 1.13931e-35)
(0.000129837 -4.75936e-05 -8.43342e-21 1.58572e-05 -7.58209e-22 0)
(-2.31527e-05 -0.000104657 1.21273e-20 -6.36693e-06 3.59833e-21 0)
(3.99259e-05 -0.000121411 3.76985e-21 1.52013e-05 1.58495e-22 0)
(0.00011382 -0.00015625 -9.81466e-21 1.45706e-06 -6.27373e-22 0)
(0.000138427 -7.07453e-05 -3.65814e-20 -1.61065e-06 -3.0258e-22 0)
(0.000153522 -6.49317e-06 -3.96179e-21 -2.79015e-05 -5.34452e-21 -9.43359e-37)
(0.0002221 -4.04014e-05 1.80981e-20 -9.05665e-05 -8.95106e-22 0)
(0.000163038 -0.000155272 -7.36295e-21 -2.81213e-05 -7.21973e-22 0)
(-0.000131983 0.000118695 -6.85499e-20 -6.59577e-06 -2.11579e-22 0)
(0.000818054 -3.05402e-05 7.03173e-20 -0.000240002 3.05505e-20 0)
(0.000186168 -1.47209e-05 1.66719e-20 -6.87645e-05 4.41496e-21 0)
(0.000168267 -1.59022e-05 -5.31559e-21 -8.98078e-05 -1.29479e-21 0)
(0.000172342 -0.000173009 0 -0.000156005 0 0)
(0.000141797 -6.18314e-05 -2.05047e-20 -2.64514e-05 -2.8425e-21 0)
(0.000161989 -0.000104307 1.01363e-20 -1.86049e-05 4.58156e-22 0)
(0.000149841 -9.84977e-05 -1.4203e-21 -3.27346e-05 -2.61044e-21 0)
(5.75348e-07 -7.9188e-05 5.27962e-21 3.16101e-05 -1.38299e-21 0)
(0.000123321 -1.97637e-05 -1.02944e-20 3.24495e-05 3.29899e-22 0)
(0.000316349 -0.000138936 4.62534e-20 -0.000176765 4.35292e-21 0)
(0.000140437 -8.93223e-05 1.06913e-20 -1.55022e-07 -4.49759e-21 0)
(0.000331577 -0.000131 1.11942e-20 -0.000248551 3.50585e-20 0)
(3.79159e-05 -3.93565e-05 -1.78483e-21 2.27153e-05 5.39529e-22 0)
(0.000117391 -1.68389e-05 -4.3293e-21 2.95114e-05 2.93327e-22 0)
(4.76017e-05 -8.72738e-05 5.93095e-21 -7.05471e-05 -1.24908e-20 0)
(0.000148277 -2.69561e-05 -1.34035e-20 1.1849e-05 -7.8955e-21 0)
(-0.000834468 -5.59269e-05 -1.14966e-19 0.000166537 4.58923e-20 0)
(0.000311259 -0.00014234 -2.0079e-20 -9.37558e-05 -1.26399e-21 0)
(0.000153482 0.00015177 -1.4595e-21 -0.000322909 1.57501e-20 9.1998e-37)
(0.000105257 -0.000113027 -2.44537e-20 5.41524e-07 -2.20539e-22 0)
(0.000100065 -0.000110643 -2.27422e-20 3.91762e-06 3.1116e-21 0)
(0.000199822 -0.000103615 3.06537e-20 -5.61731e-05 1.0465e-21 0)
(-0.000296569 -0.000214278 -3.93496e-20 0.000227213 3.11305e-20 0)
(0.000485887 -0.000123819 -6.87456e-20 -0.000202436 -3.95969e-20 0)
(0.000656956 1.571e-05 1.10751e-19 -0.000220112 4.35614e-21 2.77732e-36)
(0.000611841 -3.68486e-06 0 -0.000242166 0 0)
(0.00070559 0.000275049 5.25444e-20 -0.000305006 5.48509e-20 0)
(6.99053e-05 -8.0186e-05 2.16298e-21 -6.25921e-05 1.56633e-20 0)
(3.30625e-06 -8.54038e-05 2.93075e-21 -4.90396e-05 4.03152e-20 0)
(0.000536872 -6.83427e-05 1.95025e-20 -0.000268182 1.55031e-20 0)
(0.00015317 -0.000169162 1.20147e-20 -4.11373e-05 1.55264e-21 0)
(6.16042e-05 -0.000137294 4.29343e-20 -8.73176e-05 1.26061e-20 0)
(7.85176e-05 -0.000140305 4.69361e-20 -5.46383e-05 -1.38827e-20 0)
(0.000165192 -7.62753e-05 -1.47492e-20 -4.25284e-05 2.47084e-22 0)
(0.000168239 -7.06449e-05 -3.37381e-21 -4.47721e-05 7.50453e-22 0)
(0.00016833 -9.53729e-05 6.70355e-21 -5.56707e-05 3.63748e-21 0)
(0.000172186 -9.23456e-05 1.34191e-20 -3.7243e-05 -2.94274e-21 0)
(0.000142502 -0.000111646 -4.11892e-20 -8.39811e-06 4.75851e-21 0)
(6.42555e-05 -2.3637e-05 3.58053e-21 3.03388e-05 -1.26648e-21 0)
(-6.55872e-06 -1.70121e-05 0 -3.75579e-05 0 0)
(0.000126656 -0.000108773 8.53233e-20 -0.000130344 5.75143e-20 0)
(6.47321e-05 -0.000123345 3.68489e-21 -5.24864e-05 1.17218e-21 0)
(7.657e-05 -0.000167298 -1.30277e-21 -2.36835e-05 2.25263e-20 0)
(0.000711596 -7.56659e-05 1.10166e-19 -0.000300446 2.70625e-20 0)
(0.000155621 -0.000144215 6.36643e-21 -5.70506e-05 -3.79269e-21 0)
(0.000259754 -0.000141329 -7.57724e-21 -7.8692e-05 -4.43483e-21 0)
(0.000266365 -0.000128974 1.39928e-20 -0.000126973 -1.30525e-21 0)
(0.000444436 -0.000169746 4.56713e-20 -0.000175954 1.56297e-20 0)
(0.00018038 -5.93963e-05 -1.11634e-20 -7.39838e-05 5.2851e-22 0)
(-1.27119e-05 4.50191e-06 0 -8.89773e-05 0 0)
(0.000717482 0.000187239 -1.26125e-20 -0.000419687 1.41655e-19 0)
(0.000109569 -5.12636e-05 -2.31455e-20 1.54661e-05 3.66152e-21 0)
(0.00017195 -3.74926e-05 1.65133e-21 -7.05151e-05 -1.69589e-21 0)
(6.73398e-05 -0.000106394 -1.89323e-21 1.57307e-05 2.16348e-21 0)
(0.00020769 -0.000151534 0 -8.61279e-05 0 0)
(0.000221235 -0.000134883 -6.25804e-22 -5.41205e-05 2.67979e-21 0)
(-3.81423e-06 -6.31645e-05 0 2.60705e-06 0 0)
(8.28532e-05 -6.40501e-05 -2.0416e-21 2.8265e-05 -2.6796e-22 0)
(0.000251205 -3.86971e-05 -2.66839e-20 -9.91426e-05 2.9604e-21 0)
(0.000198325 -8.66173e-05 -3.26164e-21 -7.73608e-05 -4.77921e-21 0)
(0.000221917 -7.06833e-05 2.83742e-20 -6.82601e-05 5.45623e-21 0)
(0.00817191 -0.00201344 4.79081e-19 -0.0125391 -6.73797e-19 6.19258e-34)
(-2.7665e-05 -2.64058e-05 -4.43267e-21 3.00133e-05 4.02514e-21 0)
(-3.75143e-05 -2.1496e-05 -4.50559e-21 6.71971e-06 8.71425e-23 0)
(0.00472988 -0.0004078 -6.41749e-19 -0.00423777 -2.91532e-19 0)
(4.08723e-06 2.33297e-05 7.09948e-20 -0.000127717 2.0004e-20 0)
(0.000268583 -0.000107423 -1.67776e-20 -0.000115923 4.8049e-21 0)
(0.000333057 -7.00168e-05 2.19732e-22 -9.85727e-05 -5.60199e-21 0)
(3.60563e-06 -4.03174e-05 -2.25817e-21 3.90661e-05 -3.91052e-21 0)
(5.49642e-05 -6.6621e-05 -3.63991e-22 4.22279e-05 3.11061e-21 0)
(4.58121e-06 3.2149e-05 8.35559e-21 -4.33977e-05 1.486e-21 0)
(0.000211188 5.81914e-05 -3.27452e-21 -0.000381172 -2.38288e-20 -1.61874e-36)
(0.000134601 -5.99158e-05 2.08058e-21 -1.60923e-05 4.26197e-22 0)
(0.000233924 -8.95813e-05 -1.08543e-21 -8.78887e-05 -5.68407e-21 0)
(7.4166e-05 2.90681e-05 -4.95189e-21 -0.000431004 -3.07412e-20 0)
(9.21214e-05 -5.24338e-05 2.39931e-21 1.33092e-05 -4.74243e-22 0)
(0.000414332 -0.000113162 -2.20526e-20 -0.000186395 -9.79293e-21 0)
(0.000401981 -0.000130443 4.13546e-20 -0.000162188 1.70364e-20 0)
(0.00013358 -8.94027e-05 2.60645e-20 -1.91516e-05 2.57987e-21 0)
(8.27107e-05 -0.000110357 1.06955e-20 4.4366e-05 -1.15993e-21 0)
(0.000105815 -7.37066e-05 1.13131e-20 6.68372e-06 -2.56296e-22 0)
(9.74099e-05 -0.000140005 -2.23063e-20 -7.35172e-05 -2.90599e-20 0)
(6.11532e-05 4.97308e-05 -1.91804e-20 -0.000199368 -2.18987e-20 0)
(2.71142e-05 -9.96111e-05 -2.82105e-21 2.91565e-05 -7.73948e-22 0)
(0.000208624 -6.06453e-05 -2.92535e-20 -6.19358e-05 9.55059e-22 0)
(0.000107549 -6.62866e-05 -6.31506e-21 1.27276e-05 6.33972e-22 0)
(9.68034e-05 -0.000108163 -2.37039e-20 -7.62315e-05 -6.20966e-20 0)
(0.000220967 -3.69286e-05 -2.76142e-20 -7.50926e-05 -1.71186e-20 0)
(0.000275954 -0.000176847 -4.20348e-20 -0.000147962 -1.80819e-20 0)
(2.50251e-05 2.30088e-08 9.87662e-21 -0.000137322 1.21119e-20 0)
(0.000862786 0.000188779 7.88205e-20 -0.000622476 1.07912e-19 0)
(0.00083762 -7.48519e-05 -4.90254e-20 -0.000376007 -5.60189e-20 0)
(0.000252128 -0.000202791 -5.04392e-20 -5.76605e-05 -3.25309e-20 0)
(-1.31608e-05 -6.74832e-06 -1.36366e-20 -0.00010404 -2.7797e-20 0)
(0.000117248 -2.83865e-06 -1.90377e-21 4.9867e-05 1.84811e-22 0)
(0.000175778 -3.49647e-06 1.35262e-20 -7.33947e-05 7.37997e-21 0)
(0.000263977 -7.56967e-05 1.70735e-22 -0.000124632 1.0007e-20 0)
(0.000122802 -0.000141883 -7.39028e-21 -5.66837e-05 8.95735e-22 0)
(-0.000115335 0.000239354 2.09617e-20 -0.000175898 7.35426e-20 0)
(0.000165851 -2.41894e-05 0 -4.65901e-05 0 0)
(0.000169162 -1.65582e-05 -1.28009e-20 -5.68071e-05 -6.61758e-21 0)
(0.000125806 -1.58878e-05 -8.66543e-21 2.90663e-05 -2.64683e-23 0)
(0.000129035 -2.87912e-05 0 8.66376e-06 0 0)
(0.000134315 -1.34809e-05 2.30552e-21 2.85558e-05 -3.61421e-22 0)
(0.000163111 -1.69323e-05 -1.59496e-21 -7.40115e-05 -1.50218e-21 0)
(0.00167944 -0.000543113 -7.8558e-21 -0.000351041 1.19601e-19 0)
(0.00263931 -0.000200348 2.26101e-19 -0.00165223 6.09565e-22 0)
(0.00103398 0.000275236 -9.25858e-20 -0.000335714 -8.66631e-20 0)
(0.000746638 -3.4118e-05 1.00055e-19 -0.000148867 4.533e-20 0)
(0.000164405 -3.79092e-05 6.62425e-21 -3.00786e-05 3.06352e-21 0)
(2.23885e-05 -2.60158e-05 8.08804e-21 1.84299e-05 -2.53713e-21 0)
(0.000181864 -8.29562e-05 -3.87268e-21 -6.32804e-05 -2.98786e-21 0)
(0.000189147 -7.33716e-05 1.51641e-23 -5.4228e-05 2.84038e-21 0)
(0.000267516 -6.44069e-05 3.01737e-20 -0.000104055 -1.87562e-20 0)
(0.000120017 -3.44422e-06 -2.01151e-21 3.84289e-05 -4.01318e-21 -5.0608e-37)
(0.00017429 -1.44301e-06 6.87387e-21 -6.53562e-05 5.4449e-21 -2.83547e-36)
(0.000289196 -0.000150542 3.05815e-20 -0.00013048 7.08014e-21 0)
(3.70299e-05 -4.51654e-05 -2.46292e-21 7.92649e-05 3.00604e-21 0)
(6.69143e-05 -7.67028e-05 9.00455e-21 3.92839e-05 -2.43729e-21 0)
(0.000138088 -1.273e-05 6.2462e-21 4.94461e-05 -1.52763e-21 0)
(0.000163184 -1.05574e-05 2.2379e-20 -7.3364e-05 1.08547e-20 0)
(-3.57347e-05 -5.09967e-06 2.50848e-21 3.3256e-05 -6.00319e-21 0)
(0.000195614 -0.000158569 -8.79549e-21 -4.33622e-05 -2.84187e-21 0)
(0.00109906 -5.84002e-05 -1.86417e-19 -0.000995236 -1.16242e-19 0)
(-1.71087e-05 4.74467e-06 -9.66176e-22 -1.26276e-06 6.5513e-22 0)
(1.77332e-05 0.000202643 9.64633e-21 -0.000248586 -6.81419e-20 0)
(6.00003e-05 -7.70844e-05 8.38241e-21 4.52378e-05 -2.69816e-21 0)
(0.000128989 -1.79092e-05 1.30518e-20 3.9996e-05 -1.91454e-21 0)
(0.000172486 -1.15137e-05 -7.01703e-21 -6.84998e-05 -4.77525e-21 0)
(8.02585e-05 -4.09135e-06 5.00361e-21 2.79716e-05 5.82409e-22 0)
(5.58611e-05 -8.93393e-05 0 3.03885e-05 0 0)
(0.000312486 -4.3273e-05 -1.70744e-20 -0.000129442 -1.13799e-20 0)
(0.000230242 -8.58418e-06 1.41876e-20 -9.73712e-05 2.39039e-21 2.21459e-36)
(-0.000103269 0.00013033 2.11635e-20 -0.000198679 -1.5962e-20 0)
(0.000712246 -1.62926e-05 -2.73756e-20 -0.000298564 -1.38794e-20 -4.4625e-36)
(-5.40148e-05 6.08385e-06 0 -0.000145265 0 0)
(0.000858609 0.000319777 7.68086e-20 -0.000135341 9.62656e-20 0)
(2.02835e-05 1.75974e-05 5.39851e-20 -1.22803e-05 -2.56539e-20 0)
(-0.000170995 -2.27661e-05 -3.81027e-22 -0.000145384 5.82602e-20 0)
(0.000245048 -0.000123179 -3.46759e-20 -6.9106e-05 -7.26844e-21 0)
(0.000391933 -0.000200048 -1.29114e-20 -0.000172514 3.02756e-21 0)
(0.000169958 -6.52786e-05 -8.51143e-21 -1.53651e-05 -6.76587e-22 0)
(0.000185068 -0.000132361 9.55962e-21 -2.78981e-05 -1.61195e-21 0)
(0.000314707 -0.000160445 1.98954e-21 -0.000108746 2.17762e-21 0)
(7.22296e-05 -0.000135144 3.11025e-20 -8.74427e-06 5.1617e-22 0)
(0.000235403 -0.000174293 5.83938e-21 -9.6363e-05 2.39428e-21 0)
(0.000125352 -2.6992e-05 -5.42901e-21 2.33175e-05 1.37748e-21 0)
(0.000119219 -3.07842e-05 1.46052e-20 1.65057e-05 -5.08416e-22 0)
(0.000297894 -7.20625e-05 -5.19124e-20 -0.000130591 2.99519e-21 0)
(0.000872018 0.000165009 8.64413e-21 -0.000220885 2.73682e-20 0)
(0.000117677 -7.91938e-05 -2.71965e-20 -8.71233e-06 4.72054e-22 0)
(-4.30117e-05 -8.06461e-05 -9.59178e-21 -1.36106e-05 -5.29595e-21 0)
(-1.86869e-05 0.000120714 5.03414e-20 -0.000211012 -8.77674e-20 0)
(4.89466e-05 4.12352e-05 -2.99943e-20 -7.79551e-05 2.57821e-20 0)
(-8.0561e-06 -5.38825e-05 -1.99649e-20 -1.372e-05 4.65248e-21 0)
(0.000496634 -5.79183e-05 6.86505e-20 -0.000164059 1.96682e-20 0)
(0.000308811 -0.000163194 -2.668e-21 -0.000154179 1.47187e-21 0)
(0.000121717 -9.13658e-05 2.66118e-20 4.99441e-06 -1.70189e-21 0)
(0.000128189 -6.73991e-05 1.82315e-20 1.05753e-05 -1.25848e-21 0)
(0.000204031 -8.35234e-06 1.82556e-20 -7.88918e-05 6.88822e-21 5.80103e-36)
(0.000354044 -0.000169298 -1.33006e-20 -0.000123136 -3.84344e-21 0)
(9.69175e-05 -3.01264e-06 -5.36268e-21 2.44277e-05 8.08947e-23 0)
(0.000147536 -6.03598e-05 -1.16098e-20 -4.5993e-05 -2.18399e-21 0)
(1.42183e-05 0.000265234 -2.05717e-20 -0.000116433 5.99165e-20 -5.99834e-36)
(0.000149176 -3.01861e-05 5.9073e-21 -4.49502e-05 3.00383e-21 0)
(0.000155157 -2.04884e-05 -1.087e-20 -3.4795e-05 -5.36432e-21 0)
(0.0011239 -3.49165e-05 -2.45207e-19 -0.00100096 -1.1034e-19 0)
(7.31988e-05 -0.000149838 1.11988e-20 -2.46343e-05 -1.81346e-20 0)
(0.000171296 -6.00708e-05 2.92554e-21 -5.49398e-05 2.7512e-21 0)
(0.000152581 -7.83673e-05 -1.94561e-20 -3.17105e-05 -3.53268e-21 0)
(1.35107e-05 -7.04688e-05 -8.42845e-21 -5.54609e-05 -3.12802e-20 0)
(-1.3953e-05 -9.16677e-05 2.93441e-20 -9.4004e-06 -3.32961e-21 0)
(0.000414145 -0.00019249 1.15097e-20 -0.000152923 -2.91312e-21 0)
(7.15054e-05 -5.68398e-05 3.87945e-20 -0.000127907 -7.29957e-20 0)
(-0.000844498 -3.49915e-06 -1.10078e-21 -0.00130585 -4.0387e-20 3.73988e-35)
(0.000133198 -0.000109235 -1.4862e-20 -2.23652e-05 2.5017e-21 0)
(4.29234e-05 3.21085e-05 -3.18406e-20 -8.92173e-05 -2.47494e-20 0)
(0.000433496 -0.000184796 -1.5225e-20 -0.000267416 4.07447e-20 0)
(-1.92551e-05 -1.56761e-05 6.07926e-20 -0.000137354 -3.73246e-20 0)
(-4.76111e-05 -2.87488e-05 -1.73288e-20 -6.50272e-05 9.47834e-21 0)
(0.000489934 -7.97595e-05 -7.18539e-20 -0.000217842 -3.03751e-20 0)
(7.71547e-05 -9.61948e-05 -3.23077e-20 2.44481e-05 4.6186e-21 0)
(0.000406154 -7.9248e-06 -6.37934e-21 -0.000150512 -5.44219e-21 2.62127e-36)
(7.72104e-05 -8.81227e-05 2.30601e-20 2.02934e-05 -3.29936e-21 0)
(0.000115727 -0.000103876 -2.04874e-20 8.77668e-07 -2.14677e-22 0)
(0.000117713 -5.95121e-05 -1.66545e-21 5.60885e-06 -1.95139e-22 0)
(0.00037746 -0.000112564 0 -0.000159616 0 0)
(7.42974e-05 -1.56881e-05 8.71822e-21 3.11294e-05 -4.23032e-21 0)
(0.000242617 -2.28264e-05 -2.89452e-20 -0.00010266 -1.35274e-21 0)
(1.0942e-05 -0.000125686 2.99566e-20 -3.88098e-05 2.08293e-21 0)
(2.87094e-05 -0.000119477 -2.25889e-20 -2.96373e-05 1.73582e-21 0)
(2.63734e-05 5.85783e-05 2.72067e-20 -0.000177742 -1.89146e-20 0)
(7.16287e-05 -0.000133131 -3.46395e-21 6.18725e-06 -4.31374e-22 0)
(2.65505e-05 5.0569e-05 7.43863e-22 -0.000215598 -1.49511e-21 0)
(0.000164721 -0.000168444 -7.58341e-20 -3.68091e-05 -1.08732e-20 0)
(0.000176406 -0.000192478 -2.5213e-20 -6.72248e-05 -5.26174e-21 0)
(2.81479e-06 -2.36815e-05 -2.05278e-21 -0.000102788 1.22862e-20 0)
(9.90434e-05 -0.000164856 -2.63707e-20 -3.47376e-05 -4.96438e-22 0)
(1.35643e-05 -2.59545e-05 3.50321e-21 6.54912e-05 -7.5591e-21 0)
(0.000107605 -8.76879e-05 2.11224e-20 8.38465e-06 -2.58782e-21 0)
(0.000809704 -1.76599e-06 -1.67259e-19 -0.000326947 -3.97835e-20 2.22346e-35)
(0.000191592 -5.23691e-05 2.07324e-21 -5.35836e-05 -1.81663e-21 0)
(7.50606e-05 -6.76243e-05 -1.06991e-20 3.49984e-05 2.91135e-21 0)
(0.00360026 -0.000217834 2.70354e-19 -0.00255265 2.80123e-20 0)
(0.000438661 -3.9538e-06 -3.05076e-20 -0.000197999 -3.6471e-21 8.61504e-37)
(-3.94631e-05 2.36816e-05 3.64596e-21 -0.000140888 1.19673e-20 0)
(0.000153339 -8.69769e-05 2.60288e-20 -1.57447e-05 1.45126e-21 0)
(0.000354959 -3.94266e-05 7.15794e-22 -0.000157351 -7.57424e-21 0)
(0.000880069 1.57179e-05 -8.15405e-20 -0.000365797 -4.91821e-20 0)
(0.000121997 -9.47374e-05 3.73209e-20 -1.73919e-05 -4.66105e-21 0)
(0.000116262 -6.49525e-06 -3.44801e-21 4.69287e-05 3.70898e-21 0)
(0.000174007 -3.0558e-06 4.55962e-21 -7.30085e-05 -4.06699e-22 0)
(2.33376e-05 -1.83269e-06 1.75621e-21 5.0052e-05 -3.50269e-21 0)
(7.13585e-05 -0.000143214 5.44395e-20 -1.58432e-05 4.7559e-21 0)
(0.000324717 -0.000128194 -2.35943e-20 -0.000117213 -1.96404e-21 0)
(0.000335386 -6.14062e-06 1.9153e-22 -0.000151209 -4.84517e-21 2.08523e-36)
(0.000693122 9.92721e-06 -1.09053e-20 -0.00040733 2.97454e-20 -4.92559e-36)
(-2.57982e-05 -2.7168e-05 0 -0.000199763 0 0)
(0.000686824 0.000190416 -1.36337e-19 -0.000324249 -1.89286e-19 0)
(0.000161093 -0.000140002 7.76505e-21 -1.24508e-05 -4.1434e-21 0)
(0.000125621 -1.29157e-05 2.14396e-21 4.90787e-05 -5.5245e-22 0)
(-5.45524e-05 -3.84315e-05 5.79442e-21 -4.72985e-05 3.11204e-21 0)
(0.000120258 5.81804e-07 3.02345e-21 4.80112e-05 -4.5937e-21 0)
(0.000138427 -2.44042e-06 7.47646e-21 1.765e-05 4.52165e-21 -3.01811e-36)
(0.000157673 -1.70408e-06 -4.71114e-21 -4.82065e-05 -7.48373e-21 -1.90398e-36)
(0.000204241 -0.000136112 1.61568e-20 -9.7133e-05 1.55858e-21 0)
(-0.000300578 0.000347801 0 -5.10347e-05 0 0)
(0.000173679 -4.23603e-06 4.42033e-21 -7.93741e-05 3.9432e-21 0)
(7.54731e-05 -8.01168e-05 2.23788e-20 2.45462e-05 -3.61148e-21 0)
(0.000880427 6.59699e-07 -1.1841e-19 -0.00030016 -7.7389e-20 0)
(-1.08898e-05 -2.64716e-05 -4.82295e-22 -8.93944e-05 -5.01305e-21 0)
(0.000176035 -2.71292e-06 0 -7.58281e-05 0 0)
(4.19545e-05 -0.000111337 -4.51143e-21 3.34217e-05 -2.47458e-21 0)
(0.000103039 -0.000167176 1.07837e-21 -1.19142e-05 -3.46983e-22 0)
(0.000555863 0.000394819 -9.82093e-20 -0.000255892 -1.65599e-19 0)
(0.00013458 -2.86815e-05 7.56479e-21 3.04104e-05 -4.56842e-22 0)
(1.07084e-05 0.000185324 -3.06828e-20 -0.000367526 -7.7401e-20 0)
(8.30833e-05 0.000232082 2.14484e-20 -0.000246435 -1.07896e-19 -2.70637e-35)
(7.18401e-05 1.34056e-05 0 -0.000217352 0 0)
(0.000179283 -4.43427e-05 4.75645e-21 -4.45964e-05 6.59712e-22 0)
(0.000408349 -0.00107539 2.74487e-19 -0.00109595 1.44317e-20 0)
(2.95259e-05 9.96589e-05 -2.90681e-21 -0.000272004 7.38666e-22 0)
(9.81185e-05 -0.000181765 3.24157e-20 -4.22968e-05 -5.07441e-21 0)
(5.68374e-06 -0.000258452 1.03565e-19 -0.000323222 -5.23619e-20 0)
(0.000430745 4.1177e-05 8.30957e-20 -0.000216644 -5.73342e-20 -3.03592e-35)
(0.00013569 -4.43421e-05 -4.41913e-21 5.25356e-06 -1.04766e-22 0)
(0.000126562 -7.82247e-05 -4.446e-21 -1.52451e-05 4.85201e-22 0)
(0.00448598 -0.00170194 -6.8873e-20 -0.00190061 -1.2091e-19 0)
(0.000838967 0.000211038 1.00178e-19 -0.000382679 6.99457e-20 0)
(0.000781447 0.000426804 3.00192e-20 -0.000372838 6.2937e-21 0)
(0.000359195 -3.28725e-05 3.27918e-20 -0.000154292 -1.09794e-20 0)
(9.12354e-05 -7.87054e-05 1.14066e-20 1.31164e-05 -1.50595e-21 0)
(0.000155246 -0.000146843 -8.09611e-20 5.42371e-06 -8.03678e-20 0)
(0.000100842 -1.92187e-05 4.7714e-21 3.51316e-05 -1.99588e-21 0)
(0.000216548 -1.91169e-05 1.86065e-20 -9.55254e-05 -1.17267e-21 0)
(0.000378515 -0.000255434 1.10177e-19 -0.000753569 3.7568e-20 0)
(0.000163135 -5.73257e-05 3.32941e-21 -6.14518e-05 2.89018e-21 0)
(9.15936e-05 -7.76065e-05 1.15192e-20 1.70213e-05 -1.45088e-21 0)
(0.000120642 5.23063e-06 8.72651e-21 4.32631e-05 4.51896e-21 0)
(0.000179623 1.08059e-06 6.41584e-21 -7.06935e-05 1.71108e-21 9.3672e-37)
(0.000506665 -0.000152617 -4.98059e-20 -0.000193824 -2.63997e-20 0)
(0.000283267 -8.69306e-05 2.92052e-20 -9.99579e-05 2.98991e-21 0)
(0.00051401 -0.000110841 1.76347e-20 -0.000221462 7.6302e-21 0)
(0.00426348 -0.000364835 1.24676e-20 -0.0031089 3.4299e-19 0)
(0.000215841 -9.47997e-05 1.02803e-20 -5.49609e-05 -1.78213e-21 0)
(-4.74812e-06 -3.75636e-05 4.05473e-21 -6.70578e-05 2.6485e-21 0)
(0.000243299 -0.000173095 7.41783e-20 -0.000277134 -3.59782e-20 0)
(0.000759445 0.000213757 7.24192e-20 -0.000176069 1.1266e-19 0)
(0.000246704 -9.4957e-05 -4.86e-20 -0.000128476 1.91369e-20 0)
(0.000189227 -5.26238e-05 -1.39863e-20 -9.74463e-05 -2.3378e-21 0)
(0.0001173 5.16914e-06 -8.33591e-21 5.06332e-05 3.47407e-21 0)
(0.000118978 -2.27015e-06 2.42803e-21 4.58188e-05 3.48394e-21 -5.05435e-37)
(0.000174222 -5.14843e-07 1.67525e-20 -7.45893e-05 4.81782e-21 3.8525e-36)
(0.0001745 3.67328e-07 1.51495e-20 -6.92306e-05 1.57526e-20 -9.50204e-36)
(6.57438e-05 -4.75352e-07 6.80185e-21 3.67355e-05 -2.03557e-21 0)
(0.000269287 -1.67021e-06 -4.26724e-21 -9.97164e-05 -2.35318e-21 1.11403e-36)
(0.000147425 0.000128144 4.83634e-20 -0.000144635 -8.26814e-20 0)
(-0.000135785 0.000199285 -3.65536e-20 0.000128832 -2.90869e-20 0)
(0.000129488 -4.45456e-05 -2.0128e-20 -1.01635e-06 -1.95831e-21 0)
(-2.26149e-05 -4.57176e-05 -4.48053e-21 -4.54796e-05 1.26929e-20 0)
(0.000833151 0.000173215 2.73093e-20 -0.00040696 1.38334e-19 0)
(-2.34153e-05 -4.73267e-05 -6.41544e-21 1.71043e-05 1.057e-20 0)
(0.000112762 -0.000167739 1.5126e-20 -4.18017e-05 1.15177e-20 0)
(-6.03439e-05 -3.26059e-05 -1.93983e-21 6.24235e-06 9.29926e-21 0)
(0.000237805 -0.000105778 2.00158e-20 -9.06128e-05 2.50134e-21 0)
(0.000139132 -5.16127e-05 -3.0504e-21 9.84826e-06 -5.03069e-22 0)
(0.000206923 -9.71385e-05 -4.65287e-20 -8.08673e-05 -8.23066e-21 0)
(0.0051827 -0.000958186 -8.71824e-20 -0.00188453 -1.16934e-19 0)
(0.00153399 0.000333246 1.58628e-19 -0.000559717 9.94737e-20 0)
(3.34801e-05 -6.51446e-05 -4.46799e-20 -8.89506e-05 1.5209e-20 0)
(0.000349113 -0.000186804 -8.59878e-20 -0.000134662 -4.66081e-20 0)
(0.000441233 0.000252233 5.35605e-21 -0.000342475 -9.1186e-20 0)
(0.000453808 -0.000140714 -3.03372e-20 -0.000189972 5.54831e-20 0)
(0.000161051 -0.000150132 2.36356e-20 -4.86193e-05 3.02473e-20 0)
(0.000256996 -0.000184823 -1.60816e-20 -9.61064e-05 -5.32851e-21 0)
(0.00026967 -0.000169177 -7.42661e-20 -8.13778e-05 -1.06659e-20 0)
(5.38015e-05 2.66787e-05 7.87678e-21 -0.000270899 2.20795e-20 0)
(9.26435e-05 1.14472e-05 5.03798e-21 -0.000197517 1.01564e-20 0)
(0.000119241 -1.24083e-05 7.07736e-21 2.81432e-05 3.9663e-21 0)
(0.000175087 -7.85359e-06 -1.18251e-20 -8.71243e-05 -4.76857e-21 0)
(0.000166816 -4.45393e-05 -5.9553e-21 -3.64174e-05 -1.86653e-21 0)
(0.000212368 -0.00019729 1.06528e-19 -8.55888e-05 2.95813e-20 0)
(4.06215e-05 -5.06939e-05 -1.42376e-19 -0.000125427 -2.7389e-20 0)