/*--------------------------------*- C++ -*----------------------------------*\
| =========                 |                                                 |
| \\      /  F ield         | OpenFOAM: The Open Source CFD Toolbox           |
|  \\    /   O peration     | Version:  v2012                                 |
|   \\  /    A nd           | Website:  www.openfoam.com                      |
|    \\/     M anipulation  |                                                 |
\*---------------------------------------------------------------------------*/
FoamFile
{
    version     2.0;
    format      ascii;
    class       pointVectorField;
    location    "19";
    object      pointD;
}
// * * * * * * * * * * * * * * * * * * * * * * * * * * * * * * * * * * * * * //

dimensions      [0 1 0 0 0 0 0];


internalField   nonuniform List<vector> 
530
(
(0.000881974 0 -4.21166e-22)
(0.000945591 0 -8.9367e-23)
(0.000861489 -9.24121e-06 -8.03076e-22)
(0 -0.000873779 -3.2187e-21)
(0 -0.000108646 -4.94798e-20)
(0.000881974 0 -4.21166e-22)
(0.000945591 0 -8.9367e-23)
(0.000861489 -9.24121e-06 -8.03076e-22)
(0 -0.000873779 -3.2187e-21)
(0 -0.000108646 -4.94798e-20)
(0.000892854 0 0)
(0.000895514 0 0)
(0.000891976 0 0)
(0.000887511 0 0)
(0.000884667 0 0)
(0.000883139 0 0)
(0.000883202 0 0)
(0.000884884 0 0)
(0.000888787 0 0)
(0.000894992 0 0)
(0.000903124 0 0)
(0.000913615 0 0)
(0.00092476 0 0)
(0.000936574 0 0)
(0.000946697 6.59589e-06 2.24634e-23)
(0.000942219 1.28491e-05 3.72239e-22)
(0.000934772 1.72418e-05 -1.84279e-22)
(0.000924925 1.93744e-05 -5.68046e-22)
(0.00091315 2.00366e-05 2.98268e-22)
(0.000900881 1.73067e-05 6.91179e-22)
(0.000889847 1.27135e-05 -1.27182e-22)
(0.000880304 6.10797e-06 -7.81968e-22)
(0.000871985 -1.81632e-06 -9.51113e-22)
(0.000846221 -1.67083e-05 -3.39793e-22)
(0.000830595 -2.25113e-05 -1.1677e-25)
(0.000812314 -2.689e-05 -2.86969e-22)
(0.000790731 -2.99795e-05 -6.07423e-22)
(0.000768612 -3.12354e-05 -8.49353e-23)
(0.000743965 -3.19782e-05 1.3304e-22)
(0.000714683 -3.31644e-05 2.7358e-22)
(0.000676804 -3.62861e-05 5.58227e-22)
(0.000637099 -4.23797e-05 5.15946e-22)
(0.000585401 -5.48487e-05 1.25594e-21)
(0.000525917 -7.61539e-05 1.02464e-21)
(0.000479938 -9.57122e-05 0)
(0.000409856 -0.000131363 8.42076e-22)
(0.000316923 -0.000190914 -3.81742e-21)
(0.000228736 -0.000264573 -2.62606e-21)
(0.000124394 -0.000379692 5.19888e-22)
(2.63258e-05 -0.00052783 -1.97095e-21)
(-2.66451e-05 -0.000681987 2.5425e-21)
(-4.20363e-05 -0.000811302 -2.18798e-22)
(0 -0.000879712 0)
(0 -0.000855559 0)
(0 -0.000768256 0)
(0 -0.000562344 0)
(0.000593112 -0.000102071 -5.29946e-20)
(0.000825178 -0.000405921 -3.75881e-21)
(0.000806465 -0.000364244 2.78606e-22)
(0.00083359 -0.000281484 1.41821e-21)
(0.000849437 -0.000192306 -6.68144e-22)
(0.00086245 -0.000117348 -1.44426e-21)
(0.000872194 -6.03856e-05 -5.56021e-23)
(0.000892854 0 0)
(0.000895514 0 0)
(0.000891976 0 0)
(0.000887511 0 0)
(0.000884667 0 0)
(0.000883139 0 0)
(0.000883202 0 0)
(0.000884884 0 0)
(0.000888787 0 0)
(0.000894992 0 0)
(0.000903124 0 0)
(0.000913615 0 0)
(0.00092476 0 0)
(0.000936574 0 0)
(0.000946697 6.59589e-06 2.24634e-23)
(0.000942219 1.28491e-05 3.72239e-22)
(0.000934772 1.72418e-05 -1.84279e-22)
(0.000924925 1.93744e-05 -5.68046e-22)
(0.00091315 2.00366e-05 2.98268e-22)
(0.000900881 1.73067e-05 6.91179e-22)
(0.000889847 1.27135e-05 -1.27182e-22)
(0.000880304 6.10797e-06 -7.81968e-22)
(0.000871985 -1.81632e-06 -9.51113e-22)
(0.000846221 -1.67083e-05 -3.39793e-22)
(0.000830595 -2.25113e-05 -1.1677e-25)
(0.000812314 -2.689e-05 -2.86969e-22)
(0.000790731 -2.99795e-05 -6.07423e-22)
(0.000768612 -3.12354e-05 -8.49353e-23)
(0.000743965 -3.19782e-05 1.3304e-22)
(0.000714683 -3.31644e-05 2.7358e-22)
(0.000676804 -3.62861e-05 5.58227e-22)
(0.000637099 -4.23797e-05 5.15946e-22)
(0.000585401 -5.48487e-05 1.25594e-21)
(0.000525917 -7.61539e-05 1.02464e-21)
(0.000479938 -9.57122e-05 0)
(0.000409856 -0.000131363 8.42076e-22)
(0.000316923 -0.000190914 -3.81742e-21)
(0.000228736 -0.000264573 -2.62606e-21)
(0.000124394 -0.000379692 5.19888e-22)
(2.63258e-05 -0.00052783 -1.97095e-21)
(-2.66451e-05 -0.000681987 2.5425e-21)
(-4.20363e-05 -0.000811302 -2.18798e-22)
(0 -0.000879712 0)
(0 -0.000855559 0)
(0 -0.000768256 0)
(0 -0.000562344 0)
(0.000593112 -0.000102071 -5.29946e-20)
(0.000825178 -0.000405921 -3.75881e-21)
(0.000806465 -0.000364244 2.78606e-22)
(0.00083359 -0.000281484 1.41821e-21)
(0.000849437 -0.000192306 -6.68144e-22)
(0.00086245 -0.000117348 -1.44426e-21)
(0.000872194 -6.03856e-05 -5.56021e-23)
(0.000751267 -5.66301e-06 0)
(0.000831512 7.36191e-06 0)
(0.0005866 -0.0001315 0)
(0.000735726 5.1123e-06 0)
(0.000836232 1.36831e-05 0)
(0.000839941 -4.07499e-06 0)
(0.000894223 5.28885e-06 0)
(0.0004133 -0.000411599 0)
(0.000848801 -2.6703e-05 0)
(0.000602822 -4.26696e-05 0)
(0.000868998 8.23335e-06 0)
(0.000769606 -5.24209e-06 0)
(0.000860049 5.59951e-06 0)
(0.000778501 -9.29092e-05 0)
(0.000880654 4.97965e-06 0)
(0.000646372 -1.45714e-05 0)
(0.000800385 1.14508e-05 0)
(0.000778682 1.19821e-05 0)
(0.000386884 -0.000251695 0)
(0.000646766 -0.000274978 0)
(0.000892558 4.47893e-06 0)
(0.000794521 -1.51368e-05 0)
(0.000924427 5.09441e-06 0)
(0.000845018 -9.64094e-06 0)
(0.000694425 -5.16625e-05 0)
(0.00047089 -0.00012209 0)
(0.000711287 -1.25149e-05 0)
(0.000871682 7.92392e-06 0)
(0.000850328 2.52245e-06 0)
(0.000867846 6.84564e-06 0)
(0.000127 -0.000706722 0)
(0.000708168 -4.67261e-08 0)
(0.000909034 8.24796e-06 0)
(0.000870107 2.60769e-06 0)
(0.000810153 -2.16833e-06 0)
(0.000473068 -0.00056359 0)
(0.00081174 8.1942e-06 0)
(0.000872864 6.36738e-06 0)
(0.000877175 -5.64e-06 0)
(0.00088154 -2.87164e-05 0)
(0.000788432 -2.91117e-05 0)
(0.000842868 -8.06157e-05 0)
(0.000778492 5.86204e-06 0)
(0.000846256 1.16688e-05 0)
(0.000564764 -4.7437e-05 0)
(0.000228232 -0.00044794 0)
(0.000669719 -1.70291e-05 0)
(0.000908625 2.86263e-06 0)
(0.000820945 -1.65029e-05 0)
(0.000762648 -0.000187046 0)
(0.000886498 4.51623e-06 0)
(0.000768306 -1.69318e-05 0)
(0.000836235 -4.55808e-06 0)
(0.000604601 -7.43757e-05 0)
(0.000695275 -2.08763e-05 0)
(0.000501097 -0.000276258 0)
(0.000482522 -9.15157e-05 0)
(0.000638216 -0.000383635 0)
(0.000881009 4.97171e-06 0)
(0.000801321 3.40748e-06 0)
(0.000847124 9.2334e-06 0)
(0.000879593 2.89838e-06 0)
(0.000842255 1.04476e-05 0)
(0.000676705 -0.000135799 0)
(0.000904878 1.07876e-05 0)
(0.000364151 -0.000193694 0)
(0.000641836 -2.00944e-05 0)
(0.000164941 -0.000754036 0)
(0.000736882 -2.00566e-05 0)
(0.000883814 3.45193e-06 0)
(0.000771696 1.11769e-05 0)
(0.000695354 -1.48655e-06 0)
(0.00080593 1.37687e-05 0)
(0.000812485 -0.000135008 0)
(0.000857618 1.00893e-06 0)
(0.000868854 1.60299e-06 0)
(0.000925955 9.41284e-06 0)
(0.000482738 -0.000158227 0)
(0.000602752 -3.33732e-05 0)
(0.000815691 -5.29158e-05 0)
(0.00085288 5.44424e-06 0)
(0.000935136 4.29819e-06 0)
(0.00085527 -8.45217e-06 0)
(0.000805334 8.71308e-06 0)
(0.000889062 8.8678e-06 0)
(0.000887113 -1.14018e-05 0)
(0.000812701 1.30913e-05 0)
(0.00070324 -4.26121e-06 0)
(0.000741817 2.75506e-07 0)
(0.000878384 4.82519e-06 0)
(0.000861626 9.52317e-06 0)
(0.000876843 6.79473e-06 0)
(0.000861429 9.50272e-06 0)
(0.000884971 5.60147e-06 0)
(0.00075328 5.18496e-06 0)
(0.000740151 7.57016e-06 0)
(0.000829462 2.83527e-06 0)
(0.000851257 -3.83776e-06 0)
(0.000910097 6.21114e-06 0)
(0.000252038 -0.000347909 0)
(0.000116565 -0.000584369 0)
(0.000761161 -0.000261855 0)
(0.000815966 -7.82888e-06 0)
(0.000896084 2.24384e-06 0)
(0.000759351 -5.40225e-05 0)
(0.000780663 -2.36301e-05 0)
(0.000406977 -0.000139346 0)
(0.000786448 -8.25224e-06 0)
(0.000799106 -5.87094e-06 0)
(0.000920049 2.516e-06 0)
(0.0008305 -1.77109e-05 0)
(0.000831527 1.08858e-05 0)
(0.000834131 -1.45333e-06 0)
(0.000541939 -0.000341567 0)
(0.000350891 -0.000363273 0)
(0.000661107 -9.23878e-05 0)
(3.22393e-05 -0.000819224 0)
(0.000683295 -2.2317e-05 0)
(0.000610116 -0.000191821 0)
(0.000870439 -6.51278e-05 0)
(0.000894367 6.28674e-06 0)
(0.000745683 -2.50199e-05 0)
(0.00087433 5.51173e-06 0)
(0.000751077 -0.00046205 0)
(0.000295699 -0.000569501 0)
(0.000541239 -7.78783e-05 0)
(0.000745212 -7.73212e-06 0)
(0.000899244 4.45742e-06 0)
(0.000830679 -9.82851e-06 0)
(0.000430545 -0.000507256 0)
(0.000879268 3.60941e-06 0)
(0.000854618 -1.07962e-05 0)
(0.000885736 -8.89441e-07 0)
(0.000885171 -2.84198e-05 0)
(0.000860535 -4.32701e-05 0)
(0.00063017 -3.10522e-05 0)
(0.000716814 -5.1897e-06 0)
(0.000881773 3.66419e-06 0)
(0.000871523 -1.96926e-05 0)
(0.000484766 -0.000426518 0)
(0.000768796 8.33e-06 0)
(0.000920419 1.26196e-05 0)
(0.000883648 8.24417e-06 0)
(0.000801529 -2.19252e-05 0)
(0.000824951 -1.85806e-05 0)
(0.000904077 1.81281e-06 0)
(0.000237404 -0.000699103 0)
(0.000870942 2.97997e-06 0)
(6.43927e-05 -0.000817064 0)
(0.000852054 -0.000114556 0)
(0.000829838 1.31404e-05 0)
(0.000251284 -0.000521871 0)
(0.000875701 6.76618e-06 0)
(0.000866254 7.68698e-06 0)
(0.000670956 -9.66384e-06 0)
(0.00083626 3.8874e-06 0)
(0.000648396 -3.94567e-05 0)
(0.000852402 1.20234e-05 0)
(0.000522091 -0.000191087 0)
(0.000782274 4.37374e-06 0)
(0.000510949 -7.36605e-05 0)
(0.000873983 8.38141e-07 0)
(0.000769204 -2.16212e-07 0)
(0.000891115 -1.37714e-05 0)
(0.000535952 -0.000108697 0)
(0.000550789 -5.58974e-05 0)
(0.000857423 -5.34549e-07 0)
(0.000863941 -2.61316e-06 0)
(0.000935041 7.45943e-06 0)
(0.000747675 -0.000366028 0)
(0.000866288 3.193e-06 0)
(0.000910711 4.49499e-06 0)
(0.00066476 -9.38908e-06 0)
(0.000703631 -2.35092e-05 0)
(0.000702194 -0.000192433 0)
(0.000787896 -2.10734e-06 0)
(0.00060924 -2.9061e-05 0)
(0.000862125 8.33778e-06 0)
(0.000812537 -1.39731e-05 0)
(0.000854366 9.89112e-06 0)
(0.000852435 7.65322e-06 0)
(0.000789961 1.04002e-05 0)
(0.000724356 -9.14222e-05 0)
(0.000641997 -1.97013e-05 0)
(0.000152713 -0.000446822 0)
(0.000807938 -0.000205155 0)
(0.000814439 -8.75978e-05 0)
(0.000857064 -4.99601e-07 0)
(4.40189e-05 -0.000733178 0)
(0.00027014 -0.000275672 0)
(0.000880085 6.35677e-06 0)
(0.000890615 1.99308e-06 0)
(0.00088935 -3.68694e-06 0)
(0.000557159 -5.53719e-05 0)
(0.000652327 -2.45071e-05 0)
(0.000759144 -2.50847e-05 0)
(0.000788979 9.09667e-06 0)
(0.00086449 4.43824e-06 0)
(0.000759741 -1.11588e-05 0)
(0.000744527 -0.000138081 0)
(0.000929949 2.09908e-06 0)
(0.000842428 -1.51713e-05 0)
(0.000657416 -2.92382e-05 0)
(0.000897833 5.88546e-06 0)
(0.000940539 2.48219e-06 0)
(0.000857033 -1.00719e-05 0)
(0.000679341 -1.12775e-05 0)
(0.000751267 -5.66301e-06 0)
(0.000831512 7.36191e-06 0)
(0.0005866 -0.0001315 0)
(0.000735726 5.1123e-06 0)
(0.000836232 1.36831e-05 0)
(0.000839941 -4.07499e-06 0)
(0.000894223 5.28885e-06 0)
(0.0004133 -0.000411599 0)
(0.000848801 -2.6703e-05 0)
(0.000602822 -4.26696e-05 0)
(0.000868998 8.23335e-06 0)
(0.000769606 -5.24209e-06 0)
(0.000860049 5.59951e-06 0)
(0.000778501 -9.29092e-05 0)
(0.000880654 4.97965e-06 0)
(0.000646372 -1.45714e-05 0)
(0.000800385 1.14508e-05 0)
(0.000778682 1.19821e-05 0)
(0.000386884 -0.000251695 0)
(0.000646766 -0.000274978 0)
(0.000892558 4.47893e-06 0)
(0.000794521 -1.51368e-05 0)
(0.000924427 5.09441e-06 0)
(0.000845018 -9.64094e-06 0)
(0.000694425 -5.16625e-05 0)
(0.00047089 -0.00012209 0)
(0.000711287 -1.25149e-05 0)
(0.000871682 7.92392e-06 0)
(0.000850328 2.52245e-06 0)
(0.000867846 6.84564e-06 0)
(0.000127 -0.000706722 0)
(0.000708168 -4.67261e-08 0)
(0.000909034 8.24796e-06 0)
(0.000870107 2.60769e-06 0)
(0.000810153 -2.16833e-06 0)
(0.000473068 -0.00056359 0)
(0.00081174 8.1942e-06 0)
(0.000872864 6.36738e-06 0)
(0.000877175 -5.64e-06 0)
(0.00088154 -2.87164e-05 0)
(0.000788432 -2.91117e-05 0)
(0.000842868 -8.06157e-05 0)
(0.000778492 5.86204e-06 0)
(0.000846256 1.16688e-05 0)
(0.000564764 -4.7437e-05 0)
(0.000228232 -0.00044794 0)
(0.000669719 -1.70291e-05 0)
(0.000908625 2.86263e-06 0)
(0.000820945 -1.65029e-05 0)
(0.000762648 -0.000187046 0)
(0.000886498 4.51623e-06 0)
(0.000768306 -1.69318e-05 0)
(0.000836235 -4.55808e-06 0)
(0.000604601 -7.43757e-05 0)
(0.000695275 -2.08763e-05 0)
(0.000501097 -0.000276258 0)
(0.000482522 -9.15157e-05 0)
(0.000638216 -0.000383635 0)
(0.000881009 4.97171e-06 0)
(0.000801321 3.40748e-06 0)
(0.000847124 9.2334e-06 0)
(0.000879593 2.89838e-06 0)
(0.000842255 1.04476e-05 0)
(0.000676705 -0.000135799 0)
(0.000904878 1.07876e-05 0)
(0.000364151 -0.000193694 0)
(0.000641836 -2.00944e-05 0)
(0.000164941 -0.000754036 0)
(0.000736882 -2.00566e-05 0)
(0.000883814 3.45193e-06 0)
(0.000771696 1.11769e-05 0)
(0.000695354 -1.48655e-06 0)
(0.00080593 1.37687e-05 0)
(0.000812485 -0.000135008 0)
(0.000857618 1.00893e-06 0)
(0.000868854 1.60299e-06 0)
(0.000925955 9.41284e-06 0)
(0.000482738 -0.000158227 0)
(0.000602752 -3.33732e-05 0)
(0.000815691 -5.29158e-05 0)
(0.00085288 5.44424e-06 0)
(0.000935136 4.29819e-06 0)
(0.00085527 -8.45217e-06 0)
(0.000805334 8.71308e-06 0)
(0.000889062 8.8678e-06 0)
(0.000887113 -1.14018e-05 0)
(0.000812701 1.30913e-05 0)
(0.00070324 -4.26121e-06 0)
(0.000741817 2.75506e-07 0)
(0.000878384 4.82519e-06 0)
(0.000861626 9.52317e-06 0)
(0.000876843 6.79473e-06 0)
(0.000861429 9.50272e-06 0)
(0.000884971 5.60147e-06 0)
(0.00075328 5.18496e-06 0)
(0.000740151 7.57016e-06 0)
(0.000829462 2.83527e-06 0)
(0.000851257 -3.83776e-06 0)
(0.000910097 6.21114e-06 0)
(0.000252038 -0.000347909 0)
(0.000116565 -0.000584369 0)
(0.000761161 -0.000261855 0)
(0.000815966 -7.82888e-06 0)
(0.000896084 2.24384e-06 0)
(0.000759351 -5.40225e-05 0)
(0.000780663 -2.36301e-05 0)
(0.000406977 -0.000139346 0)
(0.000786448 -8.25224e-06 0)
(0.000799106 -5.87094e-06 0)
(0.000920049 2.516e-06 0)
(0.0008305 -1.77109e-05 0)
(0.000831527 1.08858e-05 0)
(0.000834131 -1.45333e-06 0)
(0.000541939 -0.000341567 0)
(0.000350891 -0.000363273 0)
(0.000661107 -9.23878e-05 0)
(3.22393e-05 -0.000819224 0)
(0.000683295 -2.2317e-05 0)
(0.000610116 -0.000191821 0)
(0.000870439 -6.51278e-05 0)
(0.000894367 6.28674e-06 0)
(0.000745683 -2.50199e-05 0)
(0.00087433 5.51173e-06 0)
(0.000751077 -0.00046205 0)
(0.000295699 -0.000569501 0)
(0.000541239 -7.78783e-05 0)
(0.000745212 -7.73212e-06 0)
(0.000899244 4.45742e-06 0)
(0.000830679 -9.82851e-06 0)
(0.000430545 -0.000507256 0)
(0.000879268 3.60941e-06 0)
(0.000854618 -1.07962e-05 0)
(0.000885736 -8.89441e-07 0)
(0.000885171 -2.84198e-05 0)
(0.000860535 -4.32701e-05 0)
(0.00063017 -3.10522e-05 0)
(0.000716814 -5.1897e-06 0)
(0.000881773 3.66419e-06 0)
(0.000871523 -1.96926e-05 0)
(0.000484766 -0.000426518 0)
(0.000768796 8.33e-06 0)
(0.000920419 1.26196e-05 0)
(0.000883648 8.24417e-06 0)
(0.000801529 -2.19252e-05 0)
(0.000824951 -1.85806e-05 0)
(0.000904077 1.81281e-06 0)
(0.000237404 -0.000699103 0)
(0.000870942 2.97997e-06 0)
(6.43927e-05 -0.000817064 0)
(0.000852054 -0.000114556 0)
(0.000829838 1.31404e-05 0)
(0.000251284 -0.000521871 0)
(0.000875701 6.76618e-06 0)
(0.000866254 7.68698e-06 0)
(0.000670956 -9.66384e-06 0)
(0.00083626 3.8874e-06 0)
(0.000648396 -3.94567e-05 0)
(0.000852402 1.20234e-05 0)
(0.000522091 -0.000191087 0)
(0.000782274 4.37374e-06 0)
(0.000510949 -7.36605e-05 0)
(0.000873983 8.38141e-07 0)
(0.000769204 -2.16212e-07 0)
(0.000891115 -1.37714e-05 0)
(0.000535952 -0.000108697 0)
(0.000550789 -5.58974e-05 0)
(0.000857423 -5.34549e-07 0)
(0.000863941 -2.61316e-06 0)
(0.000935041 7.45943e-06 0)
(0.000747675 -0.000366028 0)
(0.000866288 3.193e-06 0)
(0.000910711 4.49499e-06 0)
(0.00066476 -9.38908e-06 0)
(0.000703631 -2.35092e-05 0)
(0.000702194 -0.000192433 0)
(0.000787896 -2.10734e-06 0)
(0.00060924 -2.9061e-05 0)
(0.000862125 8.33778e-06 0)
(0.000812537 -1.39731e-05 0)
(0.000854366 9.89112e-06 0)
(0.000852435 7.65322e-06 0)
(0.000789961 1.04002e-05 0)
(0.000724356 -9.14222e-05 0)
(0.000641997 -1.97013e-05 0)
(0.000152713 -0.000446822 0)
(0.000807938 -0.000205155 0)
(0.000814439 -8.75978e-05 0)
(0.000857064 -4.99601e-07 0)
(4.40189e-05 -0.000733178 0)
(0.00027014 -0.000275672 0)
(0.000880085 6.35677e-06 0)
(0.000890615 1.99308e-06 0)
(0.00088935 -3.68694e-06 0)
(0.000557159 -5.53719e-05 0)
(0.000652327 -2.45071e-05 0)
(0.000759144 -2.50847e-05 0)
(0.000788979 9.09667e-06 0)
(0.00086449 4.43824e-06 0)
(0.000759741 -1.11588e-05 0)
(0.000744527 -0.000138081 0)
(0.000929949 2.09908e-06 0)
(0.000842428 -1.51713e-05 0)
(0.000657416 -2.92382e-05 0)
(0.000897833 5.88546e-06 0)
(0.000940539 2.48219e-06 0)
(0.000857033 -1.00719e-05 0)
(0.000679341 -1.12775e-05 0)
)
;

boundaryField
{
    back
    {
        type            empty;
    }
    front
    {
        type            empty;
    }
    down
    {
        type            symmetry;
    }
    right
    {
        type            calculated;
    }
    up
    {
        type            calculated;
    }
    left
    {
        type            symmetry;
    }
    hole
    {
        type            calculated;
    }
}


// ************************************************************************* //
