/*--------------------------------*- C++ -*----------------------------------*\
| =========                 |                                                 |
| \\      /  F ield         | OpenFOAM: The Open Source CFD Toolbox           |
|  \\    /   O peration     | Version:  v2012                                 |
|   \\  /    A nd           | Website:  www.openfoam.com                      |
|    \\/     M anipulation  |                                                 |
\*---------------------------------------------------------------------------*/
FoamFile
{
    version     2.0;
    format      ascii;
    class       volSymmTensorField;
    location    "19";
    object      sigma;
}
// * * * * * * * * * * * * * * * * * * * * * * * * * * * * * * * * * * * * * //

dimensions      [1 -1 -2 0 0 0 0];


internalField   nonuniform List<symmTensor> 
470
(
(613168 -3.09268e+06 -3.52006e-10 1.78307e+06 7.21241e-11 -376690)
(1.03628e+06 -1.9447e+06 5.09086e-10 3.4727e+06 -2.61584e-10 1.45116e+06)
(1.81127e+07 -3.58489e+06 -2.08237e-10 513832 1.32776e-10 5.32645e+06)
(1.13761e+07 -706012 -5.45522e-10 6.43251e+06 1.37836e-11 5.77315e+06)
(2.73942e+06 -7.49929e+06 1.68426e-09 1.1559e+06 6.56042e-11 1.35446e+06)
(1.51127e+07 -1.13482e+06 -2.0435e-09 599688 -3.92804e-10 4.02704e+06)
(1.04197e+07 -6.66674e+06 4.67462e-10 4.59334e+06 -8.45974e-12 3.5646e+06)
(1.37694e+06 -5.91636e+06 -1.8341e-09 -558374 2.30739e-10 573339)
(3.08745e+07 -7.77621e+06 -7.48748e-10 274963 -5.41653e-11 9.09775e+06)
(1.62407e+07 -6.29136e+06 -1.70011e-09 1.63737e+06 -1.20904e-10 5.97551e+06)
(2.60681e+07 -1.05891e+07 1.34808e-09 809917 7.53107e-10 8.47947e+06)
(4.30144e+07 -6.70045e+06 -5.71664e-09 -5.27234e+06 -2.33509e-09 1.4526e+07)
(4.02996e+07 -4.70746e+06 -3.44467e-09 230093 -1.75267e-09 1.23602e+07)
(1.02844e+07 -1.97301e+06 5.29098e-10 6.17517e+06 -1.09777e-10 5.4457e+06)
(4.95098e+07 -1.92135e+06 2.07242e-09 536648 1.09796e-09 1.28217e+07)
(2.45858e+07 -6.03398e+06 2.67034e-10 1.0083e+06 -6.23626e-10 7.3788e+06)
(1.61909e+07 -6.66761e+06 1.09028e-09 2.74804e+06 2.76393e-10 4.88832e+06)
(9.35045e+06 -2.17622e+06 -3.02404e-10 6.10149e+06 2.03185e-10 4.16933e+06)
(6.65449e+06 -1.01059e+06 -2.79115e-10 5.92375e+06 1.65268e-11 3.81672e+06)
(249307 -3.27385e+06 -6.93046e-11 3.02325e+06 5.89264e-11 1.40513e+06)
(2.60855e+07 -5.28437e+06 1.44325e-09 308596 7.98584e-10 7.98133e+06)
(1.33246e+07 -2.04544e+06 2.56801e-10 4.18211e+06 9.5331e-12 5.52335e+06)
(1.77115e+07 -2.92221e+06 -6.38861e-10 280255 -2.22823e-10 5.67574e+06)
(1.13959e+07 -2.22706e+06 7.30648e-10 6.29845e+06 -1.36517e-10 4.6608e+06)
(1.45996e+07 -9.63784e+06 -3.39593e-09 -2.39232e+06 -8.05191e-10 6.1884e+06)
(8.65507e+06 -6.98904e+06 1.31576e-10 4.08173e+06 -1.33879e-10 4.74667e+06)
(1.62243e+07 -8.98795e+06 -6.01974e-10 -4.11693e+06 -2.66434e-10 3.48409e+06)
(2.16393e+07 -2.0633e+06 2.00216e-09 -242903 6.77045e-10 6.31546e+06)
(1.49424e+07 -1.74801e+06 6.75873e-10 670588 -1.99755e-10 4.66487e+06)
(1.13575e+07 -891725 -2.33973e-10 6.09783e+06 4.15188e-11 5.10466e+06)
(1.25082e+06 -2.13756e+06 -3.2577e-10 3.82638e+06 1.69232e-10 1.35725e+06)
(4.636e+07 -1.14479e+06 0 611555 0 1.53342e+07)
(1.76087e+07 -6.31838e+06 -1.28648e-09 1.53387e+06 -2.56635e-10 5.63541e+06)
(-2.69742e+07 -8.85437e+06 2.23467e-09 -1.12947e+07 -2.73039e-09 4.21184e+06)
(1.51842e+07 -749428 -1.26993e-09 -269966 -1.71506e-10 5.40012e+06)
(1.46464e+07 -1.37122e+06 1.79981e-10 572273 2.49346e-10 4.36017e+06)
(5.68835e+07 -5.09828e+06 3.33851e-10 -363564 1.29984e-10 1.56879e+07)
(3.3658e+06 -3.53329e+06 -5.76001e-10 3.67322e+06 1.93388e-10 1.4659e+06)
(2.28195e+06 -3.1668e+06 -7.15386e-10 4.44915e+06 -5.96296e-10 3.79421e+06)
(-1.60982e+06 -3.46675e+06 4.3553e-10 1.57913e+06 8.44221e-11 999511)
(1.06333e+07 -1.03474e+07 -1.53916e-09 -311038 4.79734e-10 3.44164e+06)
(5.93251e+06 -422539 -1.66902e-10 5.74801e+06 -4.00507e-10 3.17062e+06)
(5.31389e+07 264436 5.38016e-09 -1.00584e+07 5.06946e-09 8.07951e+06)
(1.17633e+07 -9.27348e+06 1.08148e-09 1997.85 6.70813e-10 2.54509e+06)
(2.23735e+07 -263419 0 353369 0 7.01443e+06)
(4.95177e+07 109149 8.3272e-09 -9.38389e+06 1.11786e-08 1.50387e+07)
(4.76298e+06 -6.30121e+06 -1.80387e-09 4.28327e+06 6.05231e-11 1.81663e+06)
(1.52513e+07 -9.14243e+06 -1.99895e-10 512705 8.9682e-10 4.48991e+06)
(1.60194e+07 -9.38187e+06 -1.70157e-09 -740427 -9.00643e-10 3.60159e+06)
(2.20351e+07 -1.16375e+07 3.23248e-09 -373353 1.00989e-09 7.17676e+06)
(5.83747e+07 -1.70049e+06 8.15626e-09 1.344e+06 2.22621e-09 1.7677e+07)
(-9.70175e+06 -49512.6 0 -5.88723e+06 0 -1.79631e+07)
(8.53347e+06 -2.81345e+06 1.93722e-10 5.65717e+06 -3.42125e-11 4.84752e+06)
(7.50014e+06 -1.62102e+06 -1.04607e-09 6.00619e+06 5.5988e-10 3.4843e+06)
(1.30685e+07 -2.1145e+06 0 5.20061e+06 0 5.89161e+06)
(1.31918e+07 -2.6315e+06 3.73466e-10 4.94315e+06 8.971e-11 5.27261e+06)
(1.53322e+07 1.54999e+06 -2.07967e-09 6.33787e+06 -4.51379e-10 1.75453e+07)
(2.60422e+07 5.086e+06 1.14727e-09 -1.01016e+06 2.12065e-09 7.00617e+06)
(1.41081e+07 -9.41082e+06 2.81536e-10 2.26841e+06 3.82473e-11 5.09476e+06)
(1.99189e+07 -2.58564e+06 6.4653e-11 -227965 1.05855e-11 6.78393e+06)
(1.13479e+07 -6.38837e+06 1.30747e-09 3.90171e+06 7.65594e-12 4.74721e+06)
(2.52324e+07 -9.52567e+06 2.80737e-09 -1.86297e+06 1.6559e-09 4.43764e+06)
(3.73481e+07 -8.774e+06 8.47023e-09 440136 2.7666e-09 1.25846e+07)
(3.57179e+07 -7.95269e+06 -4.574e-09 -1.06951e+07 -3.73467e-09 2.25699e+06)
(-1.63289e+07 1.30939e+07 -2.55158e-09 -1.54904e+07 6.79798e-09 -6.67689e+06)
(5.18616e+07 636526 -2.11526e-09 1.78307e+06 -9.88339e-09 4.43588e+07)
(2.43235e+06 -4.83175e+06 1.9268e-09 2.98593e+06 -2.86932e-10 2.15988e+06)
(1.3652e+07 -2.63241e+06 6.98614e-11 3.70568e+06 1.6195e-11 4.97954e+06)
(-3.95305e+06 -1.04075e+06 -5.8836e-10 -9.71318e+06 1.91519e-09 -3.71788e+06)
(2.04174e+07 -8.62727e+06 -1.64168e-09 1.24472e+06 -4.20454e-10 7.03468e+06)
(-2.65759e+06 -835821 2.49619e-10 250866 2.26588e-10 -409395)
(1.44748e+07 -7.33094e+06 -8.12255e-10 2.33207e+06 -4.89679e-11 5.78532e+06)
(1.01533e+07 -1.32474e+07 6.83323e-09 -1.24278e+07 7.08564e-09 -790263)
(1.17035e+07 -8.95483e+06 0 2.98598e+06 0 4.01503e+06)
(2.14617e+07 -5.481e+06 -3.90143e-09 -1.7255e+07 1.86448e-09 5.55235e+06)
(1.3253e+07 -335552 6.04336e-11 5.52812e+06 4.92733e-10 5.64836e+06)
(1.50371e+07 -5.79448e+06 -4.38113e-10 2.54012e+06 -2.17708e-10 5.01302e+06)
(1.37322e+07 -6.14803e+06 -3.11102e-10 2.84722e+06 -1.72406e-10 5.38913e+06)
(1.31761e+07 -9.68294e+06 1.56901e-09 2.14373e+06 2.13225e-10 3.99366e+06)
(1.09752e+08 -1.16954e+07 9.18807e-10 3.42336e+07 3.9705e-10 3.35959e+07)
(1.17263e+07 -1.02809e+07 -1.1213e-09 1.7399e+06 -5.31113e-10 4.24088e+06)
(4.43645e+07 -1.69163e+07 1.5222e-09 -3.64451e+06 -2.43538e-09 1.51772e+07)
(1.82176e+07 -4.22004e+06 -5.30312e-10 644853 7.20649e-10 6.14771e+06)
(-4.95835e+06 230787 -1.10599e-09 -1.15485e+07 -1.00436e-09 -5.49634e+06)
(2.6493e+07 -9.12397e+06 1.17215e-09 256122 2.80853e-10 8.00629e+06)
(1.35326e+07 -1.4418e+06 1.40869e-10 4.62309e+06 -4.6322e-11 5.18657e+06)
(3.01536e+07 -5.24072e+06 -1.02455e-08 -1.06606e+07 -8.96442e-09 1.1839e+07)
(-1.87254e+07 1.38164e+07 -2.25602e-09 -1.63579e+07 2.00613e-09 -9.45347e+06)
(4.64325e+07 3.4765e+06 4.33169e-09 -1.30155e+07 2.39225e-10 1.02104e+07)
(1.06933e+07 -6.23945e+06 5.75072e-09 -1.05294e+07 2.76869e-10 -298285)
(3.67252e+07 -5.23723e+06 -7.91242e-09 -2.09588e+07 -3.39359e-09 6.98884e+06)
(4.67412e+07 -7.44214e+06 -9.94032e-09 454369 -5.92259e-09 1.50747e+07)
(1.14135e+07 -8.05468e+06 -3.19334e-10 3.14375e+06 5.43462e-11 4.90781e+06)
(1.40916e+07 -6.54978e+06 -2.00264e-09 2.79866e+06 4.62998e-11 4.84762e+06)
(4.59893e+07 -4.60615e+06 5.90447e-09 197212 2.45421e-09 1.3007e+07)
(4.96721e+07 -4.75957e+06 -2.43812e-09 126123 -5.00994e-10 1.6209e+07)
(4.84667e+06 -6.62524e+06 -9.83395e-10 3.49882e+06 8.9252e-12 3.3507e+06)
(1.21007e+07 -6.93144e+06 9.72623e-10 3.97836e+06 -3.35903e-12 4.45583e+06)
(5.99976e+06 -8.22601e+06 4.89788e-10 1.1878e+06 -5.82372e-10 1.46194e+06)
(1.61071e+07 -2.49169e+06 1.84418e-09 534533 6.50306e-10 5.17048e+06)
(1.24494e+07 -3.16724e+06 4.1434e-11 5.17324e+06 -5.41227e-11 5.44495e+06)
(2.19366e+07 -9.39642e+06 -2.50808e-09 -47129.9 -6.43257e-10 6.57938e+06)
(1.07027e+07 -1.52303e+07 0 -1.24071e+07 0 -1.40724e+07)
(1.30015e+07 -1.77813e+06 5.61642e-10 6.82377e+06 6.56808e-11 5.73767e+06)
(1.28013e+07 -1.87875e+06 -4.67471e-10 6.85025e+06 -3.96336e-12 6.45597e+06)
(1.41705e+07 -1.26823e+06 -3.01027e-10 1.39667e+06 -6.50838e-11 4.1805e+06)
(1.38025e+07 -1.89419e+06 2.44629e-10 1.7942e+06 3.58227e-11 4.76817e+06)
(5.44163e+06 -7.77836e+06 8.04792e-10 2.38868e+06 1.14504e-10 2.08955e+06)
(-4.84849e+06 6.3399e+06 -7.44428e-11 -3.00479e+07 -6.22683e-10 -7.31007e+06)
(-1.41871e+07 -1.54781e+07 -3.20543e-09 542360 3.14626e-09 4.40046e+06)
(5.76094e+07 5.10353e+06 4.89175e-09 -2.33602e+07 1.27194e-09 1.75811e+07)
(1.96381e+07 -2.79234e+07 6.77464e-09 -2.05225e+07 2.50845e-09 1.06622e+07)
(1.32276e+07 -1.19127e+06 1.38173e-10 6.1451e+06 2.95664e-12 5.83661e+06)
(1.44268e+07 -148001 3.02974e-10 136191 -7.64349e-11 4.50597e+06)
(-3.66247e+06 -3.51902e+06 -3.73732e-10 -4.6204e+06 1.32649e-09 -2.37864e+06)
(1.56214e+07 -9.13925e+06 -7.91226e-11 2.19167e+06 -1.21098e-11 5.52056e+06)
(1.18935e+07 -385518 3.88803e-10 6.86675e+06 1.03361e-10 5.71857e+06)
(3.62344e+07 -3.07997e+06 -1.24373e-09 244112 -7.74823e-10 1.18687e+07)
(8.04019e+06 -7.62099e+06 2.36124e-10 4.06972e+06 -1.96404e-10 2.62978e+06)
(1.79522e+06 -109561 6.45568e-11 4.77789e+06 -1.66106e-10 1.82354e+06)
(8.81631e+06 -8.46327e+06 -5.90931e-10 3.28468e+06 -3.109e-11 3.9028e+06)
(1.22492e+07 -2.49856e+06 1.01126e-10 5.74751e+06 2.18202e-11 5.94039e+06)
(9.98294e+06 -1.36619e+06 5.17665e-10 6.2074e+06 -1.70729e-10 4.6695e+06)
(1.33415e+07 -226263 -1.36193e-10 8.15043e+06 -3.52254e-10 6.45731e+06)
(1.35831e+07 -259410 2.03915e-10 1.19614e+06 4.15121e-10 4.2912e+06)
(1.78908e+07 -8.83931e+06 -1.2645e-09 2.18791e+06 -1.9457e-10 5.80701e+06)
(1.78861e+07 -9.79747e+06 -8.1285e-10 1.40686e+06 -1.41293e-10 5.91515e+06)
(1.32169e+07 -3.14879e+06 1.24232e-09 4.73924e+06 8.45595e-11 5.02563e+06)
(3.95191e+07 -1.03388e+06 -3.951e-09 445638 -1.07795e-09 1.05827e+07)
(1.21542e+07 -2.56273e+06 -4.54107e-10 6.01678e+06 -4.08267e-11 5.16293e+06)
(498057 -5.63537e+06 6.5301e-10 1.4019e+06 1.93756e-10 1.74474e+06)
(3.28763e+06 -6.53751e+06 2.02992e-10 1.9563e+06 8.53437e-12 1.13777e+06)
(1.00647e+07 -8.41345e+06 -5.28482e-10 4.01439e+06 -3.37816e-11 3.93594e+06)
(1.24975e+07 -3.80936e+06 -1.96977e-09 4.95696e+06 -1.62928e-11 5.04368e+06)
(1.34604e+07 -349632 -2.13327e-10 3.69145e+06 -2.87782e-10 5.19383e+06)
(1.70548e+07 -2.17546e+06 9.74512e-10 218865 -4.8198e-11 5.09552e+06)
(1.35322e+07 -8.36078e+06 -3.96467e-10 3.23899e+06 -3.88755e-11 4.75321e+06)
(-1.49289e+07 6.39126e+06 -3.69115e-09 -8.17732e+06 -1.13927e-11 -7.82216e+06)
(5.54726e+07 -1.64447e+06 3.78632e-09 -1.49964e+06 1.64503e-09 1.14235e+07)
(1.40284e+07 -792664 8.9772e-10 301308 2.37728e-10 4.00401e+06)
(1.38724e+07 -856274 -2.86224e-10 -23935 -6.97194e-11 4.81187e+06)
(1.14719e+07 -9.31585e+06 0 -6.20835e+06 0 2.19194e+06)
(1.30693e+07 -3.32938e+06 -1.1041e-09 4.00974e+06 -1.53058e-10 5.43405e+06)
(1.33811e+07 -5.61654e+06 5.45801e-10 3.65681e+06 2.46699e-11 4.65861e+06)
(1.32601e+07 -5.30372e+06 -7.64776e-11 3.42914e+06 -1.40562e-10 5.19177e+06)
(1.86303e+06 -4.26397e+06 2.84287e-10 3.53413e+06 -7.44685e-11 1.83205e+06)
(1.29722e+07 -1.0642e+06 -5.54313e-10 8.07915e+06 1.77638e-11 6.33187e+06)
(2.49589e+07 -7.48117e+06 2.49057e-09 -1.59336e+06 2.34388e-10 7.92476e+06)
(1.21916e+07 -4.80966e+06 5.75687e-10 4.62132e+06 -2.42178e-10 4.62967e+06)
(2.83503e+07 -7.05383e+06 6.02763e-10 -2.8874e+06 1.88777e-09 1.04961e+07)
(6.40431e+06 -2.11919e+06 -9.61061e-11 5.58582e+06 2.90516e-11 4.36268e+06)
(1.24579e+07 -906710 -2.33116e-10 7.72592e+06 1.57945e-11 6.13684e+06)
(882783 -4.69936e+06 3.19359e-10 -5.47908e+06 -6.72583e-10 -1.68039e+06)
(1.34543e+07 -1.45148e+06 -7.21726e-10 6.10818e+06 -4.25142e-10 5.47016e+06)
(-5.57841e+07 -3.01145e+06 -6.19046e-09 -1.88387e+06 2.47112e-09 -1.08513e+07)
(2.34162e+07 -7.66445e+06 -1.08118e-09 1.60768e+06 -6.80613e-11 6.65607e+06)
(-3.02449e+06 8.17224e+06 -7.85885e-11 -2.86763e+07 8.48083e-10 -1.12889e+07)
(9.76029e+06 -6.08607e+06 -1.31674e-09 4.12177e+06 -1.18752e-11 4.09262e+06)
(9.80185e+06 -5.95772e+06 -1.22458e-09 4.6247e+06 1.67548e-10 4.41375e+06)
(1.59482e+07 -5.57925e+06 1.65059e-09 2.16387e+06 5.63501e-11 5.18857e+06)
(-2.98247e+07 -1.15381e+07 -2.11883e-09 -1.62112e+06 1.67626e-09 -1.38557e+07)
(3.73324e+07 -6.66715e+06 -3.70168e-09 268838 -2.13214e-09 1.11693e+07)
(4.80191e+07 845925 5.96353e-09 792411 2.34562e-10 1.26446e+07)
(4.51941e+07 -198416 0 -790882 0 1.22488e+07)
(7.98203e+07 1.48103e+07 2.82932e-09 2.54036e+07 2.95351e-09 4.1827e+07)
(588710 -4.31771e+06 1.16468e-10 -6.54577e+06 8.4341e-10 -3.17542e+06)
(-728512 -4.59867e+06 1.5781e-10 -3.54713e+06 2.17082e-09 -906541)
(4.17298e+07 -3.67999e+06 1.05014e-09 -1.61922e+06 8.34784e-10 1.28213e+07)
(1.30744e+07 -9.10871e+06 6.46946e-10 2.61173e+06 8.36037e-11 4.82682e+06)
(5.74961e+06 -7.39273e+06 2.31185e-09 -2.26925e+06 6.7879e-10 2.43246e+06)
(4.50205e+06 -7.55491e+06 2.52733e-09 -2.66789e+06 -7.47532e-10 274175)
(1.39873e+07 -4.10713e+06 -7.94187e-10 2.80233e+06 1.33045e-11 5.09232e+06)
(1.40679e+07 -3.80396e+06 -1.81667e-10 2.59807e+06 4.0409e-11 5.00888e+06)
(1.44452e+07 -5.13546e+06 3.60961e-10 2.38368e+06 1.95864e-10 5.38133e+06)
(1.41886e+07 -4.97246e+06 7.22569e-10 2.91163e+06 -1.58455e-10 4.91702e+06)
(1.2115e+07 -6.01171e+06 -2.21788e-09 3.98966e+06 2.56228e-10 4.44186e+06)
(7.93022e+06 -1.27276e+06 1.92798e-10 6.10394e+06 -6.81953e-11 4.47031e+06)
(-6.3766e+06 -916034 0 -8.04578e+06 0 -6.02343e+06)
(9.91881e+06 -5.85701e+06 4.59433e-09 -3.91965e+06 3.09692e-09 3.09888e+06)
(4.57749e+06 -6.64164e+06 1.98417e-10 -1.73427e+06 6.31173e-11 1.09192e+06)
(6.11222e+06 -9.00835e+06 -7.01489e-11 713961 1.21296e-09 1.98923e+06)
(5.23851e+07 -4.07432e+06 5.93203e-09 -2.10942e+06 1.45721e-09 1.40684e+07)
(1.3843e+07 -7.7654e+06 3.42808e-10 2.39147e+06 -2.04222e-10 5.46342e+06)
(2.00612e+07 -7.61004e+06 -4.08005e-10 1.8372e+06 -2.38799e-10 6.07446e+06)
(2.17365e+07 -6.94478e+06 7.53457e-10 556751 -7.02825e-11 7.39374e+06)
(3.37742e+07 -9.1402e+06 2.45922e-09 368608 8.41599e-10 9.84306e+06)
(1.49734e+07 -3.19826e+06 -6.01104e-10 1.27687e+06 2.84582e-11 5.26061e+06)
(-4.78733e+06 242410 0 -8.89394e+06 0 -4.10285e+06)
(5.54119e+07 1.00821e+07 -6.79136e-10 -5.82021e+06 7.6276e-09 1.67783e+07)
(1.0906e+07 -2.76035e+06 -1.2463e-09 5.8389e+06 1.97159e-10 5.00611e+06)
(1.41869e+07 -2.01883e+06 8.89176e-11 1.1311e+06 -9.13172e-11 4.92807e+06)
(7.43696e+06 -5.7289e+06 -1.01943e-10 4.65802e+06 1.16495e-10 3.81098e+06)
(1.75192e+07 -8.15953e+06 0 1.6982e+06 0 6.33586e+06)
(1.71357e+07 -7.26294e+06 -3.36971e-11 2.30884e+06 1.44296e-10 5.22302e+06)
(-854327 -3.40116e+06 0 -508565 0 -648945)
(8.32523e+06 -3.44885e+06 -1.09932e-10 5.38587e+06 -1.44286e-11 3.86391e+06)
(1.90763e+07 -2.08369e+06 -1.43682e-09 211456 1.59406e-10 5.54991e+06)
(1.61569e+07 -4.66401e+06 -1.75627e-10 1.31227e+06 -2.57342e-10 5.47785e+06)
(1.68519e+07 -3.80602e+06 1.52784e-09 1.22697e+06 2.93797e-10 4.90251e+06)
(-1.1176e+08 1.09833e+07 1.51342e-08 -2.12841e+06 -2.79572e-09 1.98267e+07)
(-1.41732e+06 -1.42185e+06 -2.38682e-10 1.68843e+06 2.16738e-10 72333.8)
(-3.2693e+06 -1.15748e+06 -2.42609e-10 -887475 4.69229e-12 -1.24931e+06)
(-9.94018e+07 1.60088e+06 1.84428e-08 3.53971e+06 1.61738e-09 4.14181e+07)
(-3.90835e+06 1.25622e+06 3.82279e-09 -1.10055e+07 1.07714e-09 -4.12843e+06)
(2.13014e+07 -5.78429e+06 -9.03411e-10 597289 2.58726e-10 6.83927e+06)
(2.42597e+07 -3.77014e+06 1.18317e-11 1.01815e+06 -3.01646e-10 6.32592e+06)
(3.8039e+06 -2.17094e+06 -1.21594e-10 5.71331e+06 -2.10566e-10 3.60975e+06)
(6.15493e+06 -3.58728e+06 -1.95995e-11 5.46913e+06 1.67494e-10 3.19532e+06)
(-6.52285e+06 1.7311e+06 4.49916e-10 -9.10633e+06 8.00154e-11 -6.76953e+06)
(-318207 3.13338e+06 -1.7632e-10 -3.22145e+07 -1.28309e-09 -1.16898e+07)
(1.28429e+07 -3.22624e+06 1.12031e-10 4.72862e+06 2.29491e-11 5.59513e+06)
(1.83273e+07 -4.82361e+06 -5.84464e-11 998917 -3.06065e-10 5.73138e+06)
(-3.89959e+06 1.5652e+06 -2.6664e-10 -3.11011e+07 -1.6553e-09 -7.89315e+06)
(9.60098e+06 -2.82336e+06 1.29194e-10 5.35724e+06 -2.55362e-11 4.64059e+06)
(3.26739e+07 -6.09335e+06 -1.18745e-09 327034 -5.27312e-10 1.03637e+07)
(3.05969e+07 -7.02385e+06 2.22679e-09 218507 9.17346e-10 8.95172e+06)
(1.23909e+07 -4.81399e+06 1.40347e-09 4.16691e+06 1.38916e-10 5.19815e+06)
(7.51164e+06 -5.94227e+06 5.7591e-10 5.44693e+06 -6.2458e-11 3.05799e+06)
(1.05718e+07 -3.96882e+06 6.09168e-10 5.23397e+06 -1.38006e-11 4.87408e+06)
(5.5872e+06 -7.53872e+06 -1.20111e-09 -3.61657e+06 -1.56477e-09 342054)
(-6.28706e+06 2.67781e+06 -1.03279e-09 -2.03151e+07 -1.17916e-09 -9.57992e+06)
(1.89106e+06 -5.36367e+06 -1.51903e-10 2.00103e+06 -4.16741e-11 431063)
(1.58198e+07 -3.26552e+06 -1.57519e-09 1.25122e+06 5.14262e-11 4.58623e+06)
(1.05279e+07 -3.56928e+06 -3.40042e-10 5.42209e+06 3.4137e-11 4.73676e+06)
(6.97233e+06 -5.82414e+06 -1.27636e-09 -2.34493e+06 -3.34366e-09 1.75984e+06)
(1.63178e+07 -1.98846e+06 -1.48692e-09 376131 -9.21772e-10 4.41958e+06)
(2.28662e+07 -9.52252e+06 -2.26341e-09 39945.3 -9.73638e-10 8.00714e+06)
(-4.36873e+06 1238.94 5.31818e-10 -1.31105e+07 6.52177e-10 -5.71623e+06)
(7.65468e+07 1.0165e+07 4.24418e-09 -3.42887e+06 5.81067e-09 3.00891e+07)
(6.20526e+07 -4.03049e+06 -2.63983e-09 -3.29651e+06 -3.0164e-09 1.695e+07)
(1.80386e+07 -1.09195e+07 -2.71596e-09 1.35766e+06 -1.75167e-09 4.46246e+06)
(-6.66931e+06 -363371 -7.34278e-10 -1.15628e+07 -1.49676e-09 -5.96065e+06)
(1.29131e+07 -152850 -1.02511e-10 9.2849e+06 9.95139e-12 6.59976e+06)
(1.36316e+07 -188272 7.28334e-10 214605 3.97383e-10 4.16663e+06)
(2.15953e+07 -4.07598e+06 9.19342e-12 670185 5.38836e-10 7.38116e+06)
(1.21034e+07 -7.63984e+06 -3.97938e-10 2.43875e+06 4.82319e-11 5.49095e+06)
(-1.33798e+07 1.28883e+07 1.12871e-09 -1.66409e+07 3.95999e-09 -7.16952e+06)
(1.35748e+07 -1.30251e+06 0 2.13562e+06 0 4.64431e+06)
(1.37082e+07 -891598 -6.89278e-10 1.5406e+06 -3.56331e-10 4.59944e+06)
(1.29688e+07 -855497 -4.666e-10 7.75976e+06 -1.42522e-12 6.19466e+06)
(1.3133e+07 -1.5503e+06 0 6.65147e+06 0 6.18496e+06)
(1.34461e+07 -725895 1.24143e-10 7.75139e+06 -1.94611e-11 6.21377e+06)
(1.34807e+07 -911737 -8.58824e-11 712618 -8.08865e-11 4.69785e+06)
(7.29388e+07 -2.56988e+07 -1.94865e-09 1.75348e+07 4.86282e-09 2.70883e+07)
(7.30256e+07 -1.70349e+07 5.76134e-10 1.82926e+07 -2.36388e-09 6.17723e+07)
(8.15364e+07 1.48204e+07 -4.98539e-09 7.78388e+06 -4.66648e-09 2.58608e+07)
(6.67354e+07 -1.83712e+06 5.38755e-09 1.85159e+07 2.44084e-09 2.65318e+07)
(1.36605e+07 -2.04126e+06 3.5669e-10 3.18834e+06 1.64959e-10 4.80796e+06)
(4.91323e+06 -1.40085e+06 4.3551e-10 4.70008e+06 -1.36615e-10 3.7077e+06)
(1.50756e+07 -4.46687e+06 -2.08529e-10 1.87552e+06 -1.60885e-10 5.28293e+06)
(1.50394e+07 -3.95078e+06 8.1653e-13 1.93461e+06 1.52944e-10 4.85458e+06)
(2.0358e+07 -3.46806e+06 1.62474e-09 350260 -1.00995e-09 5.95324e+06)
(1.32222e+07 -185458 -1.08312e-10 8.82898e+06 -2.16094e-10 6.75973e+06)
(1.3483e+07 -77700.4 3.70131e-10 578974 2.93187e-10 4.09816e+06)
(2.37493e+07 -8.1061e+06 1.6467e-09 1.15132e+06 3.81238e-10 8.17718e+06)
(3.69651e+06 -2.43198e+06 -1.32619e-10 5.9707e+06 1.61864e-10 1.70259e+06)
(6.85104e+06 -4.13015e+06 4.8486e-10 5.36325e+06 -1.31239e-10 3.24796e+06)
(1.34597e+07 -685463 3.36334e-10 8.68666e+06 -8.22572e-11 6.02418e+06)
(1.33989e+07 -568475 1.20503e-09 661756 5.84485e-10 4.61213e+06)
(-953174 -274597 1.35072e-10 2.76171e+06 -3.23249e-10 971000)
(1.56451e+07 -8.53831e+06 -4.73603e-10 2.7772e+06 -1.53024e-10 5.11209e+06)
(3.60254e+07 -8.33735e+06 -6.39199e-09 -1.29833e+07 -4.02084e-09 1.98846e+07)
(-3.66856e+06 255482 -5.20249e-11 -2.81532e+06 3.52762e-11 -2.74732e+06)
(-7.7618e+06 1.09116e+07 5.19418e-10 -2.21021e+07 -3.66918e-09 -8.71667e+06)
(5.57394e+06 -4.1507e+06 4.51361e-10 4.77904e+06 -1.45285e-10 2.34316e+06)
(1.31777e+07 -964340 7.02787e-10 8.38572e+06 -1.03091e-10 6.23209e+06)
(1.35637e+07 -619968 -3.7784e-10 587536 -2.57129e-10 4.27598e+06)
(9.05307e+06 -220303 2.69425e-10 6.23763e+06 3.13605e-11 4.73146e+06)
(6.35181e+06 -4.81058e+06 0 4.9802e+06 0 3.3439e+06)
(2.40345e+07 -2.33009e+06 -9.19392e-10 238437 -6.12762e-10 7.20837e+06)
(1.77608e+07 -462225 7.63945e-10 120054 1.28713e-10 5.36312e+06)
(-1.1401e+07 7.01777e+06 1.13957e-09 -1.65384e+07 -8.59491e-10 -5.84036e+06)
(5.46425e+07 -877292 -1.47407e-09 214254 -7.47353e-10 1.62908e+07)
(-6.57994e+06 327592 0 -1.14934e+07 0 -3.67145e+06)
(6.02738e+07 1.72188e+07 4.13585e-09 6.75347e+06 5.18353e-09 1.4041e+07)
(-6.83728e+06 947550 2.90689e-09 -8.59071e+06 -1.38136e-09 -7.92947e+06)
(-1.08688e+07 -1.22587e+06 -2.05169e-11 -9.48978e+06 3.13709e-09 -1.66142e+06)
(1.89687e+07 -6.63269e+06 -1.86716e-09 2.05275e+06 -3.91377e-10 5.77384e+06)
(3.09109e+07 -1.07718e+07 -6.95232e-10 517631 1.63022e-10 9.80684e+06)
(1.37945e+07 -3.515e+06 -4.58308e-10 3.81559e+06 -3.64316e-11 4.64294e+06)
(1.45926e+07 -7.12711e+06 5.14749e-10 3.12515e+06 -8.67973e-11 4.62735e+06)
(2.38783e+07 -8.63934e+06 1.07129e-10 1.07702e+06 1.17256e-10 6.93256e+06)
(7.99651e+06 -7.27699e+06 1.67475e-09 3.63638e+06 2.77938e-11 4.10722e+06)
(1.95066e+07 -9.385e+06 3.14428e-10 1.64227e+06 1.28923e-10 6.83105e+06)
(1.21268e+07 -1.45342e+06 -2.92331e-10 6.63262e+06 7.4172e-11 5.37706e+06)
(1.24201e+07 -1.65761e+06 7.86436e-10 6.88942e+06 -2.73763e-11 6.00065e+06)
(2.41965e+07 -3.88029e+06 -2.79529e-09 1.12419e+06 1.61279e-10 8.15601e+06)
(5.77185e+07 8.88512e+06 4.65453e-10 -1.13009e+06 1.47367e-09 1.07637e+07)
(1.15203e+07 -4.26428e+06 -1.46443e-09 4.71478e+06 2.54183e-11 5.18391e+06)
(-3.82367e+06 -4.34248e+06 -5.16481e-10 -2.24053e+06 -2.85166e-10 -1.50765e+06)
(-6.88284e+06 6.49996e+06 2.71069e-09 -1.72388e+07 -4.72594e-09 -5.87662e+06)
(-5.87123e+06 2.22036e+06 -1.61508e-09 -1.27044e+07 1.38827e-09 -8.50681e+06)
(-2.03816e+06 -2.90137e+06 -1.07503e-09 -2.34315e+06 2.50518e-10 -1.60438e+06)
(3.61073e+07 -3.11868e+06 3.69657e-09 531532 1.05906e-09 9.36547e+06)
(2.5519e+07 -8.78739e+06 -1.43661e-10 588732 7.92546e-11 8.89069e+06)
(1.10754e+07 -4.9197e+06 1.43295e-09 4.79031e+06 -9.16403e-11 4.52138e+06)
(1.18167e+07 -3.62918e+06 9.81698e-10 5.48372e+06 -6.77641e-11 4.91429e+06)
(1.56598e+07 -449742 9.82994e-10 425433 3.70904e-10 4.67345e+06)
(2.61421e+07 -9.11606e+06 -7.16184e-10 447848 -2.06954e-10 7.07823e+06)
(1.03604e+07 -162219 -2.8876e-10 6.45712e+06 4.35587e-12 5.14178e+06)
(1.34799e+07 -3.25014e+06 -6.25146e-10 3.05912e+06 -1.17599e-10 5.53566e+06)
(-1.01981e+07 1.42819e+07 -1.10771e-09 -1.72332e+07 3.22627e-09 -1.09637e+07)
(1.32222e+07 -1.62541e+06 3.18086e-10 2.76926e+06 1.61745e-10 5.18965e+06)
(1.33216e+07 -1.10322e+06 -5.85305e-10 3.09342e+06 -2.88848e-10 4.967e+06)
(5.50803e+07 -5.81635e+06 -1.06329e-08 -1.91787e+07 -4.37574e-09 2.0194e+07)
(6.35499e+06 -8.06818e+06 6.03012e-10 1.08706e+06 -9.76477e-10 2.41352e+06)
(1.42904e+07 -3.23458e+06 1.57529e-10 2.10844e+06 1.48141e-10 5.06674e+06)
(1.3389e+07 -4.21978e+06 -1.04764e-09 3.46564e+06 -1.90221e-10 5.17312e+06)
(-1.57544e+06 -3.79447e+06 -4.5384e-10 -5.2893e+06 -1.68432e-09 -2.30294e+06)
(-2.09625e+06 -4.93595e+06 1.58007e-09 -1.85111e+06 -1.79287e-10 -1.34493e+06)
(2.65387e+07 -1.03648e+07 6.19755e-10 -3.99568e+06 -1.5686e-10 4.23861e+06)
(3.9073e+06 -3.0606e+06 2.08894e-09 -6.83029e+06 -3.93054e-09 57010.6)
(-7.0416e+07 2.18778e+07 7.3671e-09 -2.17657e+07 -2.57833e-09 1.43357e+07)
(1.22362e+07 -5.88191e+06 -8.00259e-10 3.85967e+06 1.34707e-10 5.06395e+06)
(-3.70643e+06 1.72892e+06 -1.7145e-09 -1.08217e+07 -1.33266e-09 -6.01769e+06)
(3.45625e+07 -9.95053e+06 -8.1981e-10 -3.17885e+06 2.19395e-09 1.12205e+07)
(-3.5969e+06 -844100 3.27345e-09 -9.95608e+06 -2.00979e-09 -2.56009e+06)
(-6.22937e+06 -1.54801e+06 -9.3309e-10 -7.16716e+06 5.10372e-10 -3.66569e+06)
(3.71472e+07 -4.29474e+06 -3.86906e-09 -963824 -1.63558e-09 1.07661e+07)
(8.06061e+06 -5.17972e+06 -1.73964e-09 5.22256e+06 2.48694e-10 3.90613e+06)
(3.03631e+07 -426720 -3.43503e-10 388861 -2.93041e-10 8.49333e+06)
(8.24416e+06 -4.74507e+06 1.2417e-09 5.17939e+06 -1.77658e-10 4.08667e+06)
(1.07996e+07 -5.59333e+06 -1.10317e-09 4.61535e+06 -1.15595e-11 4.56809e+06)
(1.1625e+07 -3.2045e+06 -8.96778e-11 5.58857e+06 -1.05075e-11 5.28655e+06)
(2.96564e+07 -6.06113e+06 0 736906 0 9.33159e+06)
(8.3912e+06 -844746 4.69443e-10 6.06677e+06 -2.27786e-10 4.39057e+06)
(1.87837e+07 -1.22911e+06 -1.55859e-09 191836 -7.28399e-11 5.71968e+06)
(876234 -6.76768e+06 1.61305e-09 -1.80271e+06 1.12158e-10 287051)
(1.2332e+06 -6.43339e+06 -1.21632e-09 -1.90855e+06 9.34671e-11 -312695)
(-6.21099e+06 3.15421e+06 1.46498e-09 -1.72018e+07 -1.01848e-09 -7.6311e+06)
(7.38952e+06 -7.1686e+06 -1.8652e-10 3.86575e+06 -2.32278e-11 3.53259e+06)
(-5.57718e+06 2.72295e+06 4.00542e-11 -1.8616e+07 -8.05058e-11 -7.00682e+06)
(1.22645e+07 -9.07004e+06 -4.08337e-09 1.4129e+06 -5.8548e-10 3.39493e+06)
(1.44028e+07 -1.03642e+07 -1.35762e-09 1.28427e+06 -2.83324e-10 4.90407e+06)
(-4.32323e+06 -1.27516e+06 -1.10534e-10 -1.00095e+07 6.61567e-10 -4.47479e+06)
(9.5121e+06 -8.87686e+06 -1.41996e-09 2.30851e+06 -2.67313e-11 4.179e+06)
(2.82873e+06 -1.39755e+06 1.88634e-10 5.62479e+06 -4.07029e-10 2.09834e+06)
(1.03861e+07 -4.72165e+06 1.13736e-09 5.04343e+06 -1.39344e-10 4.59195e+06)
(6.13376e+07 -95091.6 -9.00626e-09 133284 -2.14219e-09 1.77381e+07)
(1.48357e+07 -2.81987e+06 1.11636e-10 1.6339e+06 -9.78187e-11 4.51917e+06)
(7.98437e+06 -3.64131e+06 -5.76105e-10 5.82717e+06 1.56765e-10 3.94265e+06)
(4.1265e+07 -2.54846e+06 -1.26495e-09 1.40612e+07 -1.16502e-09 5.64285e+07)
(3.40754e+07 -212897 -1.64271e-09 -206352 -1.96382e-10 1.04551e+07)
(-8.06855e+06 1.27516e+06 1.96321e-10 -1.35299e+07 6.44392e-10 -5.94361e+06)
(1.30905e+07 -4.68337e+06 1.40155e-09 3.98596e+06 7.81449e-11 4.83375e+06)
(2.79781e+07 -2.12297e+06 3.85428e-11 392156 -4.07844e-10 8.86489e+06)
(6.32891e+07 846347 -4.39064e-09 -3.79601e+06 -2.64827e-09 1.59008e+07)
(1.17124e+07 -5.10124e+06 2.00959e-09 4.20682e+06 -2.5098e-10 5.14331e+06)
(1.30313e+07 -349744 -1.85662e-10 9.298e+06 1.99714e-10 6.77107e+06)
(1.34781e+07 -164543 2.45518e-10 177278 -2.18992e-11 4.10851e+06)
(3.89946e+06 -98683.2 9.45652e-11 5.33793e+06 -1.88606e-10 2.64282e+06)
(6.8009e+06 -7.71155e+06 2.93136e-09 2.10543e+06 2.56087e-10 2.95852e+06)
(2.50952e+07 -6.90275e+06 -1.27046e-09 1.29896e+06 -1.05756e-10 7.61044e+06)
(2.59869e+07 -330649 1.03132e-11 -214396 -2.60894e-10 7.92762e+06)
(5.59299e+07 534542 -5.87211e-10 -3.32522e+06 1.60168e-09 1.86079e+07)
(-6.09605e+06 -1.46289e+06 0 -1.54634e+07 0 -4.70692e+06)
(5.27801e+07 1.02532e+07 -7.3412e-09 -1.66233e+06 -1.01923e-08 1.57972e+07)
(1.30889e+07 -7.53856e+06 4.18118e-10 3.74423e+06 -2.23106e-10 4.41465e+06)
(1.31652e+07 -695460 1.15444e-10 9.04364e+06 -2.97473e-11 6.40094e+06)
(-5.25779e+06 -2.06939e+06 3.12007e-10 -4.8672e+06 1.67571e-10 -2.32036e+06)
(1.29212e+07 31327.9 1.62801e-10 9.03099e+06 -2.47353e-10 6.44577e+06)
(1.33998e+07 -131407 4.02578e-10 6.89641e+06 2.43474e-10 5.94603e+06)
(1.33559e+07 -91758 -2.53677e-10 2.27013e+06 -4.0297e-10 4.86587e+06)
(1.74594e+07 -7.32911e+06 8.69981e-10 1.23154e+06 8.39238e-11 6.46178e+06)
(-3.10684e+07 1.87277e+07 0 -1.76315e+07 0 -1.48834e+07)
(1.35709e+07 -228094 2.38018e-10 -55059 2.12326e-10 4.21893e+06)
(7.9245e+06 -4.31398e+06 1.20501e-09 5.18228e+06 -1.94464e-10 3.86057e+06)
(6.13353e+07 35522.3 -6.3759e-09 -2.23481e+06 -4.1671e-09 1.39277e+07)
(-4.0797e+06 -1.4254e+06 -2.59698e-11 -8.30687e+06 -2.69934e-10 -3.49333e+06)
(1.36415e+07 -146081 0 79574.7 0 4.16262e+06)
(5.19024e+06 -5.99507e+06 -2.42923e-10 4.73078e+06 -1.33247e-10 2.93115e+06)
(8.80675e+06 -9.00179e+06 5.80663e-11 2.61695e+06 -1.86837e-11 3.25848e+06)
(4.77454e+07 2.12595e+07 -5.28819e-09 4.0355e+06 -8.91685e-09 1.78143e+07)
(1.26758e+07 -1.54439e+06 4.07335e-10 7.06664e+06 -2.45992e-11 5.42916e+06)
(-6.69886e+06 9.97898e+06 -1.65215e-09 -2.70653e+07 -4.16775e-09 -7.27546e+06)
(-6.23041e+06 1.24967e+07 1.15492e-09 -2.39737e+07 -5.80979e-09 -1.07041e+07)
(-3.94788e+06 721842 0 -1.95198e+07 0 -7.81619e+06)
(1.42377e+07 -2.38769e+06 2.56117e-10 2.1826e+06 3.5523e-11 4.58395e+06)
(-9.52012e+06 -4.24866e+07 1.02777e-08 -5.9319e+06 3.78177e-10 2.42886e+07)
(-6.12501e+06 5.36625e+06 -1.5652e-10 -2.23612e+07 3.97743e-11 -7.71487e+06)
(8.99385e+06 -9.78732e+06 1.74546e-09 1.43303e+06 -2.73237e-10 3.71055e+06)
(5.66872e+06 -1.39166e+07 5.57659e-09 -1.20416e+07 -2.81948e-09 5.36267e+06)
(3.50015e+07 2.21722e+06 4.47438e-09 142163 -3.08722e-09 1.18076e+07)
(1.29322e+07 -2.38765e+06 -2.37953e-10 5.9087e+06 -5.64123e-12 5.62581e+06)
(1.21901e+07 -4.2121e+06 -2.394e-10 4.55439e+06 2.61262e-11 5.37528e+06)
(-9.09981e+07 -3.48238e+06 6.7589e-09 1.98463e+07 1.60558e-10 1.59209e+07)
(5.8991e+07 1.13636e+07 5.39421e-09 -6.7899e+06 3.7663e-09 1.38159e+07)
(5.8976e+07 2.29818e+07 1.61642e-09 -3.17784e+06 3.38892e-10 1.68981e+07)
(2.73648e+07 -1.77006e+06 1.76571e-09 -284524 -5.91199e-10 8.02352e+06)
(9.38324e+06 -4.23798e+06 6.14203e-10 5.17683e+06 -8.10894e-11 4.47056e+06)
(2.81459e+06 -7.90695e+06 -4.35944e-09 -5.25274e+06 -4.3275e-09 -5.54479e+06)
(9.97448e+06 -1.03485e+06 2.56922e-10 6.43623e+06 -1.0747e-10 4.54453e+06)
(1.68317e+07 -1.02937e+06 1.00189e-09 27733.4 -6.3144e-11 5.17141e+06)
(2.97554e+07 -1.38775e+07 5.73464e-09 -2.61278e+07 1.94371e-09 1.2656e+07)
(1.39869e+07 -3.08677e+06 1.79276e-10 1.8938e+06 1.55625e-10 5.20275e+06)
(9.23932e+06 -4.17881e+06 6.20262e-10 5.22389e+06 -7.81241e-11 4.30736e+06)
(1.27169e+07 281650 4.69889e-10 8.5503e+06 2.43329e-10 6.22074e+06)
(1.37253e+07 58185.8 3.45468e-10 246712 9.21351e-11 4.05329e+06)
(3.96475e+07 -8.21783e+06 -2.68185e-09 1.92891e+06 -1.42152e-09 1.23656e+07)
(2.12461e+07 -4.68088e+06 1.57259e-09 610925 1.60995e-10 5.99327e+06)
(3.91323e+07 -5.96838e+06 9.49559e-10 -469973 4.10857e-10 1.14549e+07)