/*--------------------------------*- C++ -*----------------------------------*\
| =========                 |                                                 |
| \\      /  F ield         | OpenFOAM: The Open Source CFD Toolbox           |
|  \\    /   O peration     | Version:  v2012                                 |
|   \\  /    A nd           | Website:  www.openfoam.com                      |
|    \\/     M anipulation  |                                                 |
\*---------------------------------------------------------------------------*/
FoamFile
{
    version     2.0;
    format      ascii;
    class       volScalarField;
    location    "3";
    object      epsilonEq;
}
// * * * * * * * * * * * * * * * * * * * * * * * * * * * * * * * * * * * * * //

dimensions      [0 0 0 0 0 0 0];


internalField   nonuniform List<scalar> 
500
(
0.00183663
0.00141275
0.00136336
0.00109912
0.00108916
0.000913584
0.000922905
0.000797741
0.000816996
0.000719341
0.00159901
0.00123368
0.00124927
0.00099407
0.0010544
0.000867404
0.000937184
0.000794221
0.000859548
0.000745691
0.00131169
0.00100194
0.00109897
0.000873201
0.000996374
0.000825046
0.000936151
0.000801648
0.000891687
0.000783683
0.000955514
0.000741492
0.000902542
0.000741125
0.000898442
0.000767467
0.000893603
0.000783489
0.000879576
0.000785845
0.000584163
0.00049387
0.000686124
0.000606824
0.000765587
0.00068648
0.00080599
0.000727675
0.000818994
0.000733425
0.000253391
0.00030096
0.000471117
0.000474649
0.000592866
0.000570485
0.000645719
0.000619984
0.000646552
0.000652142
0.000162293
0.00026402
0.0003484
0.000409851
0.00047635
0.000502718
0.000551071
0.000559048
0.000604914
0.000593815
0.000345443
0.000343615
0.000320717
0.000377053
0.000386549
0.000427682
0.000446337
0.000464718
0.000488731
0.000488213
0.000510519
0.000427209
0.000357749
0.000353795
0.000317092
0.000338884
0.000325703
0.000341948
0.000345045
0.000351207
0.000612514
0.00041792
0.000380129
0.000295759
0.000271044
0.000235831
0.000225636
0.000210254
0.000216188
0.000206662
0.000239065
0.000184176
0.000342536
0.000281014
0.000491172
0.000400798
0.000621331
0.00050987
0.000709853
0.000595488
0.000204743
0.000199029
0.000307524
0.000283584
0.000440091
0.000383049
0.000561396
0.00047243
0.000652342
0.000539931
0.000213629
0.000223605
0.000287735
0.000288265
0.000393441
0.00036864
0.000499091
0.000444893
0.000587898
0.000506455
0.000239153
0.000252571
0.000287152
0.000299117
0.000364746
0.000361609
0.000450074
0.000425428
0.000529308
0.000481837
0.000269212
0.000281755
0.000299402
0.00031436
0.000353347
0.000361359
0.000418012
0.000412984
0.000483317
0.000462584
0.000298078
0.000308056
0.000317241
0.000330611
0.000353684
0.000365067
0.000400336
0.000405378
0.000450688
0.000446816
0.000322705
0.000329032
0.000335128
0.000344379
0.000359392
0.000369091
0.000391853
0.000399614
0.000428645
0.000432655
0.000340907
0.000342251
0.000348887
0.000352117
0.000364704
0.000369559
0.000386726
0.000392448
0.00041272
0.000418115
0.000350469
0.000344194
0.000354398
0.000349297
0.000364114
0.000362885
0.000379675
0.000381183
0.000398513
0.000401962
0.000348455
0.00032526
0.000344189
0.000333115
0.000353232
0.000346613
0.000367057
0.000365014
0.000383791
0.000386163
0.000738818
0.000679164
0.000743912
0.000698405
0.000744319
0.00070879
0.000741579
0.000713705
0.000736782
0.000715724
0.000731118
0.000717215
0.000726191
0.000720648
0.000724281
0.00072878
0.000728581
0.000744698
0.000743341
0.000771345
0.000634508
0.000600766
0.000651516
0.000621119
0.000663423
0.000637562
0.000671912
0.000651156
0.000678574
0.00066339
0.000685016
0.000675939
0.000692952
0.000690599
0.000704285
0.000709257
0.000721104
0.000733884
0.000745569
0.000766616
0.000578033
0.000551297
0.000594604
0.000570699
0.000608857
0.00058837
0.000621411
0.000604793
0.000633141
0.000620722
0.000645066
0.000637084
0.000658287
0.000654904
0.00067396
0.000675248
0.000693273
0.000699177
0.000717434
0.000727651
0.00053569
0.000515593
0.000552034
0.000533984
0.000566899
0.000551179
0.000580641
0.000567487
0.000593746
0.000583312
0.000606785
0.000599132
0.000620385
0.000615473
0.000635201
0.000632887
0.0006519
0.000651932
0.000671145
0.000673171
0.000501683
0.000488256
0.000517338
0.000504919
0.000531664
0.00052047
0.00054489
0.000535071
0.000557284
0.000548911
0.000569151
0.000562199
0.000580824
0.000575161
0.000592659
0.000588043
0.000605041
0.000601111
0.000618391
0.000614666
0.000474344
0.000466291
0.000488374
0.000480507
0.000501177
0.000493684
0.000512858
0.000505854
0.000523533
0.000517049
0.000533324
0.00052729
0.000542365
0.000536594
0.000550799
0.000544973
0.000558797
0.000552454
0.000566581
0.000559106
0.000452158
0.00044734
0.000463859
0.000458824
0.000474559
0.000469447
0.000484258
0.000479145
0.000492952
0.00048783
0.000500623
0.000495389
0.00050724
0.000501669
0.000512755
0.000506475
0.000517119
0.000509577
0.000520308
0.000510742
0.000433039
0.000429435
0.000442328
0.000438586
0.000450953
0.000447128
0.000458839
0.000454907
0.000465885
0.000461769
0.00047197
0.000467526
0.00047694
0.000471923
0.000480579
0.000474601
0.000482606
0.000475072
0.000482669
0.000472696
0.000415078
0.000412024
0.000422811
0.000420321
0.000430225
0.000427986
0.000437083
0.000434918
0.00044326
0.000440996
0.00044862
0.000446043
0.000452975
0.000449801
0.000456035
0.000451879
0.000457366
0.000451686
0.000456322
0.000448294
0.000398694
0.000399369
0.00040751
0.000408953
0.00041533
0.000417741
0.000422424
0.000425633
0.000428796
0.000432428
0.000434343
0.000437889
0.000438895
0.000441759
0.000442219
0.000443765
0.000443996
0.000443629
0.000443779
0.000441107
0.000738962
0.000700079
0.000703163
0.000668661
0.000671457
0.000639098
0.000642163
0.000610029
0.000613723
0.000580125
0.000584626
0.000548037
0.000553328
0.000512353
0.000518171
0.000471579
0.000477276
0.000424229
0.000428419
0.000369266
0.000789994
0.000734461
0.00075858
0.000709872
0.000727972
0.000684379
0.000697566
0.000657408
0.000666548
0.000628358
0.000633909
0.000596638
0.000598452
0.000561757
0.0005588
0.000523541
0.000513459
0.000482617
0.000461088
0.000441369
0.000842431
0.000771184
0.000816441
0.000757217
0.0007886
0.00073979
0.000759108
0.000719042
0.00072799
0.000695076
0.000695114
0.000668027
0.000660266
0.000638154
0.00062329
0.000606044
0.000584348
0.000572961
0.00054432
0.00054143
0.000859211
0.000777686
0.000844015
0.000777781
0.000823692
0.000771442
0.000799375
0.000759792
0.000772098
0.000743824
0.000742806
0.000724554
0.000712472
0.000703175
0.000682321
0.000681275
0.000654207
0.000661184
0.000631139
0.000646494
0.000827153
0.000762312
0.000830923
0.000771858
0.000823579
0.000773581
0.000808363
0.000769683
0.000788013
0.000761687
0.000764923
0.0007511
0.000741422
0.00073981
0.000720184
0.000730494
0.000704861
0.000727263
0.000701213
0.000736906
)
;

boundaryField
{
    back
    {
        type            empty;
    }
    front
    {
        type            empty;
    }
    left
    {
        type            calculated;
        value           nonuniform List<scalar> 
15
(
0.00183663
0.00136336
0.00108916
0.000922905
0.000816996
0.000738962
0.000703163
0.000671457
0.000642163
0.000613723
0.000584626
0.000553328
0.000518171
0.000477276
0.000428419
)
;
    }
    hole
    {
        type            calculated;
        value           nonuniform List<scalar> 10(0.00183663 0.00159901 0.00131169 0.000955514 0.000584163 0.000253391 0.000162293 0.000345443 0.000510519 0.000612514);
    }
    down
    {
        type            calculated;
        value           nonuniform List<scalar> 
15
(
0.00041792
0.000295759
0.000235831
0.000210254
0.000206662
0.000239065
0.000204743
0.000213629
0.000239153
0.000269212
0.000298078
0.000322705
0.000340907
0.000350469
0.000348455
)
;
    }
    right
    {
        type            calculated;
        value           nonuniform List<scalar> 
15
(
0.00032526
0.000333115
0.000346613
0.000365014
0.000386163
0.000399369
0.000408953
0.000417741
0.000425633
0.000432428
0.000437889
0.000441759
0.000443765
0.000443629
0.000441107
)
;
    }
    up
    {
        type            calculated;
        value           nonuniform List<scalar> 
15
(
0.000771345
0.000766616
0.000727651
0.000673171
0.000614666
0.000559106
0.000510742
0.000472696
0.000448294
0.000441107
0.000369266
0.000441369
0.00054143
0.000646494
0.000736906
)
;
    }
}


// ************************************************************************* //
