/*--------------------------------*- C++ -*----------------------------------*\
| =========                 |                                                 |
| \\      /  F ield         | OpenFOAM: The Open Source CFD Toolbox           |
|  \\    /   O peration     | Version:  v2012                                 |
|   \\  /    A nd           | Website:  www.openfoam.com                      |
|    \\/     M anipulation  |                                                 |
\*---------------------------------------------------------------------------*/
FoamFile
{
    version     2.0;
    format      ascii;
    class       volSymmTensorField;
    location    "3";
    object      epsilon;
}
// * * * * * * * * * * * * * * * * * * * * * * * * * * * * * * * * * * * * * //

dimensions      [0 0 0 0 0 0 0];


internalField   nonuniform List<symmTensor> 
500
(
(0.00218034 -4.97281e-05 2.00366e-15 -0.000914032 1.07356e-14 0)
(0.00161472 -0.000353365 9.83897e-15 -0.000662535 8.79158e-15 0)
(0.00167672 4.30244e-05 4.26658e-15 -0.000599725 7.86296e-15 0)
(0.00132031 -0.000188207 -3.49547e-16 -0.000481972 1.1898e-15 0)
(0.00136282 8.35659e-05 -3.73833e-15 -0.000438948 1.80802e-15 0)
(0.00112789 -9.17549e-05 -5.49604e-15 -0.000383986 1.34094e-15 0)
(0.00115813 0.000101357 1.70166e-16 -0.000358846 -1.04214e-15 0)
(0.000994608 -3.40975e-05 2.54685e-15 -0.000331223 3.20273e-16 0)
(0.00101717 0.0001096 1.16676e-15 -0.000321972 -6.07489e-15 0)
(0.000895092 6.42542e-07 2.00065e-15 -0.000303034 -8.39823e-16 0)
(0.00191864 -0.000314275 -3.06482e-15 -0.000682542 6.8064e-15 0)
(0.00135328 -0.000495191 -1.25383e-14 -0.000470206 1.34441e-15 0)
(0.00155273 -8.58062e-05 1.96631e-15 -0.00052024 3.75893e-16 0)
(0.00118315 -0.000237837 -8.09357e-16 -0.00041033 -2.35185e-15 0)
(0.00131925 4.30752e-05 -4.78453e-15 -0.000431497 -3.58546e-16 0)
(0.00106286 -8.39254e-05 8.26162e-17 -0.000376579 -2.85145e-15 0)
(0.00115952 0.000116582 5.11743e-16 -0.000383091 9.19729e-16 0)
(0.000972487 1.06563e-05 1.79078e-15 -0.000356152 -1.36154e-15 0)
(0.00104324 0.000157957 4.1223e-15 -0.000356583 1.2142e-15 0)
(0.000900675 6.93177e-05 9.58809e-15 -0.000342316 -1.62565e-15 0)
(0.0014763 -0.000501787 -2.04783e-14 -0.000478908 -1.30495e-15 0)
(0.00102867 -0.000528898 -1.65493e-15 -0.000276816 -4.3251e-15 0)
(0.00133737 -0.000193289 1.46638e-15 -0.00045556 -2.301e-15 0)
(0.00100955 -0.000262779 4.90103e-15 -0.000357798 -4.51245e-16 0)
(0.00122679 -1.70236e-05 3.44343e-15 -0.00043736 -2.8224e-15 0)
(0.000978059 -9.96467e-05 4.06359e-15 -0.0003966 1.17213e-15 0)
(0.00113631 8.6029e-05 6.13442e-16 -0.000422427 -1.4634e-15 0)
(0.000942071 3.22781e-06 6.01743e-15 -0.0004123 2.77708e-15 0)
(0.00106004 0.000146277 1.02322e-14 -0.000409152 -6.71501e-16 0)
(0.000905513 6.91767e-05 6.84706e-15 -0.000414732 1.13299e-16 0)
(0.000956643 -0.000520569 -2.19031e-15 -0.000266603 -4.72419e-15 0)
(0.000709591 -0.000455137 -3.85607e-15 -0.000133042 -4.87999e-16 0)
(0.00104933 -0.000253014 9.39678e-16 -0.000378077 2.46439e-16 0)
(0.000815443 -0.000265689 2.46613e-15 -0.0003171 8.64001e-16 0)
(0.00107111 -9.14117e-05 6.91732e-15 -0.000429151 2.3428e-15 0)
(0.000861641 -0.000141023 2.44965e-15 -0.000411071 -3.10732e-16 0)
(0.00105888 8.57437e-06 4.21646e-15 -0.000448075 2.09387e-15 0)
(0.000874957 -5.73656e-05 2.25514e-16 -0.000455347 1.28424e-15 0)
(0.00103014 7.11617e-05 3.12283e-15 -0.00044911 2.1214e-15 0)
(0.000870322 -2.89737e-07 -2.80917e-15 -0.000471149 1.06089e-15 0)
(0.00049836 -0.000383359 -3.57852e-15 -0.00012584 3.54859e-16 0)
(0.000460132 -0.000314313 -2.36584e-15 -7.59135e-05 4.52167e-16 0)
(0.000744193 -0.000246721 -8.90238e-16 -0.000307052 4.21755e-17 0)
(0.000625549 -0.000241955 -7.65555e-16 -0.000286742 -5.8303e-16 0)
(0.000864233 -0.000150204 9.24716e-16 -0.000399099 -1.0507e-15 0)
(0.000718558 -0.000180564 -1.71954e-15 -0.000399185 -1.06512e-15 0)
(0.000917299 -8.22826e-05 -1.27719e-15 -0.000441491 -5.32343e-17 0)
(0.000767049 -0.000129153 -3.81639e-16 -0.000453187 7.87022e-16 0)
(0.000933395 -3.32225e-05 -2.77989e-15 -0.000456589 1.55453e-15 0)
(0.000779301 -8.18167e-05 4.93963e-16 -0.000467517 1.76459e-15 0)
(0.000184551 -0.000167768 -1.62197e-15 -9.34216e-05 4.40457e-16 0)
(0.000290967 -0.000165531 -5.14129e-16 -9.55556e-05 4.84638e-17 0)
(0.000468721 -0.000181049 -1.43971e-15 -0.000251726 -3.75242e-16 0)
(0.000435516 -0.000211202 1.07336e-16 -0.00026269 -2.2237e-16 0)
(0.000625351 -0.000169008 -1.4189e-15 -0.000329091 -6.80527e-16 0)
(0.000521188 -0.000226951 8.83625e-16 -0.000350979 1.76725e-17 0)
(0.000705988 -0.000148946 3.02276e-16 -0.000352538 1.80411e-16 0)
(0.000571284 -0.00023432 3.09626e-15 -0.000389165 2.24972e-16 0)
(0.000735217 -0.00012906 2.75702e-15 -0.000328946 1.43562e-15 0)
(0.000606948 -0.00025494 2.61054e-15 -0.000393396 9.11218e-16 0)
(5.9226e-05 3.24796e-05 2.60209e-18 -0.000201617 -4.6946e-17 0)
(0.000240729 -5.49663e-05 3.7817e-16 -0.000202611 3.02438e-16 0)
(0.000287544 -0.000103292 6.40113e-16 -0.00027942 3.08103e-16 0)
(0.000327176 -0.000178237 4.27609e-16 -0.000286259 6.39056e-16 0)
(0.000427015 -0.000173944 1.32403e-15 -0.000318489 2.75957e-16 0)
(0.000388345 -0.000245695 5.96311e-16 -0.000329684 3.57353e-16 0)
(0.000512136 -0.000212926 2.48044e-15 -0.000336008 6.67597e-17 0)
(0.000433451 -0.000283133 1.0842e-15 -0.000350547 5.41125e-16 0)
(0.000567809 -0.000243076 2.34806e-15 -0.000351908 4.80017e-16 0)
(0.000469391 -0.000298893 5.26705e-16 -0.000365413 4.78648e-16 0)
(6.29836e-05 0.00016812 6.20814e-16 -0.000393627 1.75939e-16 0)
(0.000247474 -5.56382e-06 4.08527e-16 -0.000344916 6.50386e-16 0)
(0.000191184 -2.7644e-05 8.43509e-17 -0.000353549 8.80752e-16 0)
(0.000254745 -0.000146218 2.51535e-17 -0.000327677 5.54461e-16 0)
(0.000280222 -0.000140251 1.24683e-16 -0.000327105 3.62042e-16 0)
(0.000272954 -0.000225796 -1.60896e-16 -0.000313771 -1.35024e-16 0)
(0.000344225 -0.000206007 -1.32273e-17 -0.000309605 3.93213e-16 0)
(0.000297867 -0.000267387 -5.70724e-16 -0.000303709 3.64333e-16 0)
(0.000393842 -0.000241702 6.74374e-17 -0.000298898 5.51886e-16 0)
(0.000324883 -0.000286349 -5.2432e-16 -0.000297061 9.72936e-17 0)
(0.000135816 0.00020739 1.36696e-15 -0.000598087 4.34142e-16 0)
(0.000261998 -1.7555e-05 1.07509e-15 -0.000467529 1.95346e-16 0)
(0.000154629 2.61503e-05 -9.47593e-17 -0.000440355 3.40914e-16 0)
(0.000191094 -0.000125284 -3.16587e-16 -0.000359601 -2.94496e-17 0)
(0.000180541 -7.97893e-05 -2.76472e-16 -0.000337147 -5.38916e-17 0)
(0.000174105 -0.000175954 -4.01588e-16 -0.000290812 4.54755e-17 0)
(0.000212279 -0.000140207 -6.08888e-16 -0.000275848 2.62106e-17 0)
(0.000183565 -0.000201201 -3.747e-16 -0.00024935 3.48083e-16 0)
(0.000245874 -0.000174051 -7.22512e-16 -0.000239905 3.27036e-16 0)
(0.000206147 -0.000215034 -3.59088e-16 -0.00022394 9.35192e-17 0)
(0.000219287 0.000140116 1.37629e-15 -0.000755907 2.52348e-17 0)
(0.000165085 -9.64454e-05 1.92554e-16 -0.000504513 -1.15576e-16 0)
(0.000138722 4.96866e-05 -1.35742e-16 -0.000481348 -1.1563e-16 0)
(0.000111063 -9.1204e-05 2.05782e-16 -0.000347717 5.97057e-17 0)
(0.000119482 -1.41533e-07 -2.59992e-16 -0.000333436 1.66574e-16 0)
(9.97234e-05 -8.67923e-05 -1.18178e-16 -0.000258487 3.98851e-17 0)
(0.00012967 -3.1018e-05 -2.3744e-16 -0.000249894 1.98849e-16 0)
(0.000111468 -8.21746e-05 -1.10589e-16 -0.00020863 7.90383e-17 0)
(0.000154128 -5.23778e-05 -1.68268e-16 -0.000204204 1.36244e-16 0)
(0.000136813 -7.74877e-05 2.4915e-16 -0.000184664 -1.38913e-17 0)
(0.000201201 -7.4954e-05 3.04878e-16 -0.000184664 -1.6778e-17 0)
(0.000213677 -2.76011e-05 -3.41741e-16 -9.26419e-05 -4.19349e-17 0)
(0.000210523 -0.000204539 -4.38668e-16 -0.000219153 -6.1996e-17 0)
(0.000304954 -0.000104958 -6.91721e-16 -0.000121171 -7.8934e-16 0)
(0.000299044 -0.000300046 -5.15647e-16 -0.000303975 -4.1094e-16 0)
(0.000435644 -0.000150487 2.8753e-16 -0.00017097 -3.38976e-16 0)
(0.000429318 -0.000341367 7.4875e-16 -0.000402421 -1.42512e-16 0)
(0.000576622 -0.000154875 -6.3621e-16 -0.000225107 -1.89134e-15 0)
(0.000572761 -0.000318631 9.31004e-16 -0.000477253 6.23484e-16 0)
(0.00070373 -0.000119336 2.36204e-15 -0.000267582 1.2971e-15 0)
(0.000221684 -6.75305e-05 -1.89735e-16 -9.83942e-05 -1.33577e-17 0)
(0.000249007 -3.95854e-05 -2.48065e-16 -7.02358e-05 -2.89529e-16 0)
(0.000246575 -0.000175951 -5.08708e-16 -0.00014931 -4.77002e-16 0)
(0.000322381 -0.000107488 -4.0766e-16 -0.000100222 -2.98772e-16 0)
(0.000317744 -0.000260489 -3.61473e-16 -0.000236722 -7.4772e-16 0)
(0.000424669 -0.000148934 -7.81493e-16 -0.000145902 6.48421e-16 0)
(0.000419576 -0.000302677 -2.15323e-16 -0.000339984 -4.01799e-16 0)
(0.000534836 -0.000157503 -1.05298e-15 -0.000194337 5.07163e-16 0)
(0.000531637 -0.000293373 -4.99709e-16 -0.000432254 -1.57465e-15 0)
(0.000632516 -0.000135634 1.20672e-15 -0.00023209 -1.4386e-16 0)
(0.000265613 -5.13245e-05 -1.2078e-16 -7.18114e-05 -1.43725e-16 0)
(0.000287822 -3.80355e-05 7.37257e-18 -7.06281e-05 -4.95751e-17 0)
(0.000285978 -0.000141316 -1.45283e-16 -0.000112026 -1.98899e-16 0)
(0.000341225 -9.87629e-05 -2.15539e-16 -9.46773e-05 5.10253e-17 0)
(0.00033766 -0.000216276 -6.07587e-16 -0.000181104 3.48601e-16 0)
(0.000417587 -0.000140088 -5.84168e-16 -0.000131951 8.12203e-17 0)
(0.000413521 -0.000262681 -1.07509e-15 -0.000267795 8.67599e-16 0)
(0.000503807 -0.000156629 -1.63931e-16 -0.000173982 1.38453e-15 0)
(0.00050108 -0.000272324 -2.77773e-16 -0.000355153 1.01988e-15 0)
(0.000585015 -0.000149306 -1.08745e-15 -0.000211039 -3.40941e-16 0)
(0.000311987 -3.78643e-05 1.9494e-16 -7.06865e-05 4.38238e-17 0)
(0.000327516 -3.32503e-05 2.12504e-16 -8.07105e-05 2.6155e-16 0)
(0.000326119 -0.000111494 -3.16587e-17 -9.86063e-05 1.67682e-16 0)
(0.000364764 -8.66957e-05 -9.06393e-16 -9.8637e-05 -2.63692e-16 0)
(0.000362057 -0.000175799 -5.70074e-16 -0.000148075 -2.28045e-16 0)
(0.000419858 -0.000126632 -1.10459e-15 -0.000127556 4.77862e-17 0)
(0.000416695 -0.00022182 -4.55799e-16 -0.000213476 3.94114e-16 0)
(0.000485539 -0.000148559 1.2477e-15 -0.000162452 2.30274e-15 0)
(0.000483299 -0.00024344 9.67108e-17 -0.000285041 1.57343e-15 0)
(0.000552525 -0.000152075 -5.90023e-16 -0.000197058 9.18279e-16 0)
(0.000354627 -2.82404e-05 1.5027e-16 -8.02838e-05 1.18515e-16 0)
(0.000365141 -2.79228e-05 -2.57173e-16 -9.36244e-05 2.20137e-16 0)
(0.000364065 -8.81006e-05 -4.04841e-16 -9.90385e-05 1.16987e-16 0)
(0.000390702 -7.42698e-05 -5.67688e-16 -0.000106834 -9.47823e-16 0)
(0.000388647 -0.000141835 -1.24857e-15 -0.000133221 -6.16572e-16 0)
(0.000429666 -0.000111227 -1.06295e-15 -0.000129016 -2.60344e-16 0)
(0.000427255 -0.000183649 -3.39789e-16 -0.000180148 9.81528e-16 0)
(0.000478445 -0.000135121 -7.89299e-17 -0.000157383 1.27906e-15 0)
(0.000476688 -0.00020942 1.17961e-15 -0.000234515 2.24857e-15 0)
(0.000532001 -0.00014481 9.17452e-16 -0.000188187 -1.96857e-15 0)
(0.00039161 -2.16108e-05 -9.30245e-17 -9.31478e-05 6.12557e-17 0)
(0.000398752 -2.26351e-05 5.56846e-16 -0.000105143 -9.49964e-17 0)
(0.000397903 -7.01325e-05 -4.33681e-17 -0.000105915 -3.71421e-16 0)
(0.000416137 -6.2338e-05 3.84675e-16 -0.000115038 -1.48807e-16 0)
(0.000414559 -0.00011415 -3.58871e-16 -0.000129578 -7.38982e-16 0)
(0.000443272 -9.52829e-05 9.13332e-16 -0.000132288 1.4569e-16 0)
(0.000441455 -0.000149796 -4.97432e-16 -0.000162844 3.09926e-16 0)
(0.000478648 -0.000118488 1.34875e-16 -0.000155391 1.3417e-17 0)
(0.000477326 -0.000174318 1.48969e-16 -0.000202901 -3.15056e-16 0)
(0.000519868 -0.000130516 1.33032e-15 -0.000182107 -6.10094e-16 0)
(0.000422154 -1.70758e-05 1.74448e-15 -0.000104798 -8.29177e-17 0)
(0.000426988 -1.7356e-05 2.29417e-16 -0.000111999 -5.43829e-16 0)
(0.000426295 -5.61202e-05 -4.98733e-17 -0.000113892 -2.23905e-16 0)
(0.00043856 -5.08294e-05 1.23642e-15 -0.000119601 3.40087e-16 0)
(0.000437326 -9.13743e-05 1.5387e-15 -0.000130805 5.04168e-16 0)
(0.000457029 -7.91371e-05 3.75784e-15 -0.000133519 -1.14925e-16 0)
(0.000455663 -0.000120132 1.95005e-15 -0.000154879 -2.535e-16 0)
(0.000481972 -9.98899e-05 1.72778e-15 -0.000152903 -1.96753e-15 0)
(0.000481011 -0.000140475 3.79904e-16 -0.000184558 -7.30901e-16 0)
(0.000512374 -0.000111617 4.58184e-16 -0.000176142 -1.17804e-15 0)
(0.000445594 -1.40269e-05 2.10118e-16 -0.000111843 -2.64007e-16 0)
(0.000448492 -1.18989e-05 -3.03577e-15 -0.000110823 1.42413e-16 0)
(0.000447907 -4.46665e-05 -7.4463e-16 -0.000118719 -6.02783e-17 0)
(0.000455657 -3.90836e-05 -1.10502e-15 -0.000116656 4.50845e-16 0)
(0.000454667 -7.1654e-05 2.37896e-15 -0.000131589 3.12985e-16 0)
(0.000467787 -6.20546e-05 -4.29344e-16 -0.000128902 3.98851e-16 0)
(0.000466749 -9.3237e-05 2.4594e-15 -0.000150075 -9.53481e-16 0)
(0.000484869 -7.9157e-05 -6.63098e-16 -0.000146685 -2.12449e-16 0)
(0.000484184 -0.000108097 3.42174e-16 -0.000173095 -1.87837e-15 0)
(0.0005063 -8.90059e-05 -1.58077e-16 -0.000167949 -7.25209e-16 0)
(0.000461012 -1.22288e-05 -1.91297e-15 -0.000110838 2.14265e-16 0)
(0.000461025 -6.16252e-06 3.26562e-16 -9.66482e-05 8.14317e-16 0)
(0.000460525 -3.42329e-05 -2.04524e-15 -0.000116174 7.06531e-16 0)
(0.000464467 -2.54069e-05 -1.01785e-15 -0.000100611 9.15141e-16 0)
(0.000463656 -5.21737e-05 -1.77137e-15 -0.000127203 5.61125e-16 0)
(0.000472907 -4.14357e-05 -7.32053e-16 -0.000114845 6.88658e-16 0)
(0.000472085 -6.62327e-05 -1.18633e-15 -0.000143479 7.03261e-16 0)
(0.000484814 -5.41769e-05 -3.26562e-16 -0.000134206 -1.96837e-16 0)
(0.000484318 -7.51983e-05 -3.84892e-16 -0.000163354 -2.96651e-16 0)
(0.000499546 -6.15856e-05 6.15827e-16 -0.00015643 -1.31808e-15 0)
(0.000467114 -1.21949e-05 3.26865e-15 -9.67526e-05 3.64129e-16 0)
(0.000457863 -5.50968e-10 6.73723e-16 -5.53356e-05 1.12791e-15 0)
(0.0004575 -2.04874e-05 -8.1055e-16 -0.000100353 1.34563e-15 0)
(0.000462224 -4.0341e-06 -1.40838e-15 -6.7861e-05 8.12366e-16 0)
(0.000461502 -2.80471e-05 -8.13368e-16 -0.000113691 6.57894e-16 0)
(0.000470253 -1.19831e-05 1.21647e-16 -8.74139e-05 -3.0088e-16 0)
(0.000469533 -3.38551e-05 1.38995e-16 -0.000131785 -2.47442e-16 0)
(0.000480674 -1.96547e-05 -1.71304e-16 -0.000113689 6.02694e-16 0)
(0.000480268 -3.69245e-05 1.34441e-17 -0.000152716 -3.71827e-16 0)
(0.000492048 -2.55546e-05 3.86626e-16 -0.000143825 -8.06646e-17 0)
(0.00070373 -0.000219247 7.80842e-16 -0.000492252 2.35906e-15 0)
(0.000753763 -0.000122387 3.69062e-16 -0.000375972 2.63841e-15 0)
(0.000753763 -0.000157908 -6.18396e-15 -0.000485811 3.17316e-15 0)
(0.00078598 -9.17652e-05 -3.13204e-15 -0.000387327 2.74563e-15 0)
(0.00078598 -0.00010521 -6.82451e-15 -0.000473031 2.95789e-15 0)
(0.000806239 -6.05288e-05 1.29454e-15 -0.000391773 -7.21537e-17 0)
(0.000806239 -6.16177e-05 -7.32812e-16 -0.000456215 3.46465e-15 0)
(0.000818635 -3.17968e-05 2.87661e-15 -0.000390956 1.48384e-15 0)
(0.000818635 -2.76847e-05 1.66121e-15 -0.000437138 5.46953e-15 0)
(0.000826576 -7.20315e-06 3.49005e-15 -0.000386718 7.40727e-16 0)
(0.000826576 -3.89493e-06 2.47274e-15 -0.000417514 4.51841e-15 0)
(0.000833261 1.24018e-05 4.26677e-15 -0.000380984 -2.13729e-15 0)
(0.000833261 9.41007e-06 1.4306e-15 -0.000399173 4.06896e-15 0)
(0.000841912 2.6687e-05 4.67335e-15 -0.000375757 -3.40342e-15 0)
(0.000841912 1.20989e-05 1.27855e-15 -0.00038419 2.17502e-15 0)
(0.000855912 3.57689e-05 3.54512e-15 -0.000373134 -3.50447e-15 0)
(0.000855912 4.47356e-06 -1.52618e-15 -0.000375081 8.33209e-17 0)
(0.000878792 4.02353e-05 9.44774e-16 -0.000375302 -4.25365e-15 0)
(0.000878792 -1.19306e-05 -2.97825e-15 -0.000375232 -3.02726e-15 0)
(0.000913654 4.11616e-05 -8.36679e-16 -0.000384323 -3.88936e-15 0)
(0.000632516 -0.000205435 1.25702e-15 -0.000375972 2.0422e-15 0)
(0.000669391 -0.000137637 6.96058e-17 -0.000312741 -4.93366e-16 0)
(0.000669391 -0.000180446 -8.6476e-16 -0.000387327 1.72571e-15 0)
(0.000701763 -0.000119705 -4.49293e-16 -0.000324162 -1.11993e-15 0)
(0.000701763 -0.000152101 1.4138e-15 -0.000391773 -5.26814e-16 0)
(0.000729066 -9.99262e-05 1.60679e-15 -0.000332591 -2.18131e-15 0)
(0.000729066 -0.00012434 3.55022e-15 -0.000390956 -6.66188e-16 0)
(0.000752282 -7.96165e-05 9.9855e-16 -0.000338385 -3.09101e-15 0)
(0.000752282 -9.94026e-05 2.54798e-15 -0.000386718 -8.53077e-16 0)
(0.000773061 -5.98008e-05 9.48026e-16 -0.000342337 -4.37486e-15 0)
(0.000773061 -7.85433e-05 4.35828e-15 -0.000380984 -4.08953e-15 0)
(0.000793377 -4.10902e-05 3.55944e-15 -0.000345512 -4.51218e-15 0)
(0.000793377 -6.23317e-05 5.42968e-15 -0.000375757 -5.11315e-15 0)
(0.000815375 -2.36594e-05 2.3885e-15 -0.000349133 -2.84305e-15 0)
(0.000815375 -5.07623e-05 3.48701e-15 -0.000373134 -4.08709e-15 0)
(0.000841291 -7.23971e-06 -1.32945e-15 -0.000354511 -1.54716e-15 0)
(0.000841291 -4.3285e-05 1.40382e-15 -0.000375302 -4.33006e-15 0)
(0.000873385 8.89691e-06 -2.31586e-15 -0.000362982 -2.51025e-15 0)
(0.000873385 -3.89375e-05 -7.38884e-16 -0.000384323 -3.65292e-15 0)
(0.000914018 2.59841e-05 7.3227e-16 -0.000375894 -3.90589e-15 0)
(0.000585015 -0.000207177 -1.0842e-18 -0.000312741 -1.26011e-15 0)
(0.000616432 -0.000150693 -1.4409e-15 -0.000266869 -9.0848e-16 0)
(0.000616432 -0.000192008 -5.63243e-16 -0.000324162 -1.46858e-15 0)
(0.000646002 -0.00013851 -1.00354e-15 -0.000278891 -1.67783e-15 0)
(0.000646002 -0.000174452 4.41053e-16 -0.000332591 -2.22313e-15 0)
(0.000673589 -0.000124397 -1.0365e-15 -0.000289454 -1.35476e-15 0)
(0.000673589 -0.00015565 1.82471e-16 -0.000338385 -3.22752e-15 0)
(0.000699514 -0.000108751 -2.02052e-15 -0.00029872 -2.52386e-15 0)
(0.000699514 -0.000136588 -2.36031e-16 -0.000342337 -4.79117e-15 0)
(0.000724467 -9.19075e-05 -1.15034e-15 -0.000307046 -3.36867e-15 0)
(0.000724467 -0.000117906 1.97271e-15 -0.000345512 -3.8303e-15 0)
(0.000749388 -7.40303e-05 -1.69764e-15 -0.000314939 -2.25465e-15 0)
(0.000749388 -9.98442e-05 9.5258e-16 -0.000349133 -2.45653e-15 0)
(0.000775351 -5.50473e-05 -2.10552e-15 -0.000322997 4.07823e-16 0)
(0.000775351 -8.2224e-05 -1.93899e-15 -0.000354511 -1.73716e-16 0)
(0.000803465 -3.46172e-05 -6.56376e-16 -0.000331853 1.72952e-15 0)
(0.000803465 -6.44354e-05 -2.51708e-15 -0.000362982 -1.06631e-15 0)
(0.000834774 -1.21144e-05 -4.25875e-16 -0.000342108 7.83119e-16 0)
(0.000834774 -4.53596e-05 6.58219e-16 -0.000375894 -3.14608e-15 0)
(0.000870096 1.33636e-05 -2.7504e-15 -0.000354247 2.47957e-16 0)
(0.000552525 -0.000201423 -1.63649e-15 -0.000266869 -5.23697e-16 0)
(0.000579931 -0.000153406 -6.10623e-16 -0.000234716 8.22638e-17 0)
(0.000579931 -0.000191336 -9.0726e-16 -0.000278891 -1.27192e-15 0)
(0.000606333 -0.00014495 -1.61329e-16 -0.000247107 2.65521e-16 0)
(0.000606333 -0.000179037 -1.36935e-15 -0.000289454 -7.13012e-16 0)
(0.000631773 -0.00013431 -6.29705e-16 -0.000258635 1.24496e-15 0)
(0.000631773 -0.000164804 -1.94614e-15 -0.00029872 -1.075e-15 0)
(0.000656397 -0.00012159 1.31839e-16 -0.000269379 -1.30646e-16 0)
(0.000656397 -0.000148912 -1.1705e-15 -0.000307046 -2.58837e-15 0)
(0.000680472 -0.00010684 -2.54137e-16 -0.000279477 -3.03739e-16 0)
(0.000680472 -0.000131515 -2.53931e-15 -0.000314939 -1.60695e-15 0)
(0.000704356 -9.00197e-05 -1.66815e-15 -0.000289117 6.63532e-17 0)
(0.000704356 -0.000112582 -2.41051e-15 -0.000322997 5.59963e-16 0)
(0.000728456 -7.09627e-05 2.96204e-16 -0.00029851 2.07565e-15 0)
(0.000728456 -9.18596e-05 3.60064e-16 -0.000331853 2.36895e-15 0)
(0.000753169 -4.93607e-05 6.21031e-16 -0.000307864 3.05924e-15 0)
(0.000753169 -6.88592e-05 -3.70797e-17 -0.000342108 2.06161e-15 0)
(0.000778828 -2.47575e-05 -8.82107e-16 -0.000317349 3.73123e-15 0)
(0.000778828 -4.2884e-05 -3.44278e-15 -0.000354247 2.06275e-15 0)
(0.000805663 3.44356e-06 -1.24488e-15 -0.000327068 6.45962e-15 0)
(0.000532001 -0.000185567 -7.89299e-17 -0.000234716 -4.8331e-16 0)
(0.000555016 -0.000146193 6.66134e-16 -0.00021365 -2.84373e-15 0)
(0.000555016 -0.000178823 -2.6563e-17 -0.000247107 8.24942e-17 0)
(0.000577415 -0.000140337 -4.64039e-16 -0.000225571 -1.34804e-15 0)
(0.000577415 -0.000169667 -3.10082e-16 -0.000258635 1.01817e-15 0)
(0.00059918 -0.000132146 6.95624e-16 -0.000236927 -7.24789e-16 0)
(0.00059918 -0.000158166 8.59989e-16 -0.000269379 3.8584e-16 0)
(0.000620311 -0.00012164 2.46678e-15 -0.000247697 1.18438e-15 0)
(0.000620311 -0.000144357 6.7394e-16 -0.000279477 8.38346e-16 0)
(0.000640835 -0.000108793 2.27205e-15 -0.000257875 2.65998e-15 0)
(0.000640835 -0.000128211 -2.97613e-16 -0.000289117 7.99233e-16 0)
(0.000660794 -9.35219e-05 9.79685e-16 -0.000267454 2.84348e-15 0)
(0.000660794 -0.000109605 2.65196e-16 -0.00029851 2.13482e-15 0)
(0.000680227 -7.56713e-05 1.2065e-15 -0.00027642 3.0903e-15 0)
(0.000680227 -8.83063e-05 9.6147e-16 -0.000307864 3.18482e-15 0)
(0.000699149 -5.50062e-05 2.65976e-15 -0.000284739 2.05982e-15 0)
(0.000699149 -6.3964e-05 1.32164e-16 -0.000317349 3.53621e-15 0)
(0.000717531 -3.1209e-05 2.14889e-15 -0.000292344 3.40765e-16 0)
(0.000717531 -3.61104e-05 2.42644e-16 -0.000327068 5.57142e-15 0)
(0.000735274 -3.88369e-06 2.81806e-15 -0.00029912 -8.6476e-16 0)
(0.000519868 -0.000162559 1.10112e-15 -0.00021365 -2.81004e-15 0)
(0.000538093 -0.000131846 8.88612e-16 -0.000199891 6.69766e-17 0)
(0.000538093 -0.000157946 -3.22442e-16 -0.000225571 -1.57082e-15 0)
(0.000555913 -0.000127691 1.38778e-17 -0.000210716 -3.27158e-16 0)
(0.000555913 -0.00015085 5.62701e-16 -0.000236927 -1.16846e-15 0)
(0.000573216 -0.000121261 2.98806e-16 -0.000221165 -1.26518e-15 0)
(0.000573216 -0.00014129 2.12872e-15 -0.000247697 6.45534e-16 0)
(0.000589884 -0.000112567 4.95697e-16 -0.000231141 -1.73825e-15 0)
(0.000589884 -0.00012925 2.51817e-15 -0.000257875 1.87303e-15 0)
(0.000605789 -0.000101595 2.23779e-16 -0.000240534 -1.79278e-15 0)
(0.000605789 -0.000114669 1.14492e-15 -0.000267454 2.42886e-15 0)
(0.000620785 -8.82927e-05 -6.17995e-16 -0.000249216 -1.0443e-15 0)
(0.000620785 -9.74343e-05 6.66567e-16 -0.00027642 2.0972e-15 0)
(0.000634701 -7.25634e-05 -3.77736e-16 -0.000257034 -2.86771e-16 0)
(0.000634701 -7.73669e-05 2.39218e-15 -0.000284739 1.61066e-15 0)
(0.000647335 -5.42546e-05 -5.87204e-16 -0.000263807 1.45701e-15 0)
(0.000647335 -5.42203e-05 2.14715e-15 -0.000292344 8.22096e-17 0)
(0.000658449 -3.31518e-05 -4.30645e-16 -0.000269314 2.78147e-15 0)
(0.000658449 -2.76808e-05 2.45518e-15 -0.00029912 -1.65051e-15 0)
(0.000667768 -8.97515e-06 3.86843e-16 -0.000273299 3.3645e-15 0)
(0.000512374 -0.000135526 9.68409e-16 -0.000199891 4.36039e-16 0)
(0.000525895 -0.000112712 -4.30645e-16 -0.00018951 4.04028e-16 0)
(0.000525895 -0.000132086 8.67362e-18 -0.000210716 2.22356e-16 0)
(0.000539152 -0.000109494 -3.55618e-17 -0.000199133 1.1392e-15 0)
(0.000539152 -0.000126323 2.05998e-17 -0.000221165 -6.67042e-16 0)
(0.000551973 -0.000104244 4.42788e-16 -0.000208524 -3.7779e-16 0)
(0.000551973 -0.000118255 1.27936e-17 -0.000231141 -2.62912e-15 0)
(0.000564165 -9.70058e-05 7.24681e-16 -0.00021753 -1.70946e-15 0)
(0.000564165 -0.000107879 -6.59195e-17 -0.000240534 -2.49971e-15 0)
(0.000575501 -8.78157e-05 -8.40907e-16 -0.000225976 -8.39227e-16 0)
(0.000575501 -9.51648e-05 -1.0855e-15 -0.000249216 -1.88148e-15 0)
(0.00058572 -7.66917e-05 -1.7421e-15 -0.000233664 -1.15739e-15 0)
(0.00058572 -8.0048e-05 -1.00115e-15 -0.000257034 -1.00553e-15 0)
(0.000594513 -6.36268e-05 -9.75348e-16 -0.00024036 3.79742e-16 0)
(0.000594513 -6.24196e-05 -1.41705e-15 -0.000263807 1.3546e-15 0)
(0.000601521 -4.85757e-05 -7.12971e-16 -0.000245786 1.38881e-15 0)
(0.000601521 -4.21173e-05 -9.1485e-16 -0.000269314 3.24987e-15 0)
(0.000606336 -3.14344e-05 -2.58474e-16 -0.000249604 6.61472e-16 0)
(0.000606336 -1.89172e-05 -4.22405e-16 -0.000273299 3.84534e-15 0)
(0.000608517 -1.20091e-05 -2.96204e-16 -0.000251419 -6.36589e-16 0)
(0.0005063 -0.000106024 -4.52329e-16 -0.00018951 -1.24114e-16 0)
(0.000515751 -8.96425e-05 9.93129e-17 -0.000179533 -6.32496e-16 0)
(0.000515751 -0.000103062 -2.86229e-17 -0.000199133 1.15314e-15 0)
(0.000525067 -8.67883e-05 -2.38958e-16 -0.000188506 7.42678e-16 0)
(0.000525067 -9.81342e-05 2.67364e-16 -0.000208524 3.87114e-16 0)
(0.000534053 -8.22825e-05 -1.52395e-15 -0.000197308 9.21572e-16 0)
(0.000534053 -9.12787e-05 2.02963e-16 -0.00021753 -7.32487e-16 0)
(0.000542472 -7.62183e-05 -1.26852e-15 -0.000205713 1.13039e-15 0)
(0.000542472 -8.25266e-05 -6.88902e-16 -0.000225976 -2.8978e-16 0)
(0.000550058 -6.86703e-05 -3.40873e-16 -0.000213539 6.16369e-16 0)
(0.000550058 -7.19004e-05 -1.45283e-15 -0.000233664 -5.57063e-16 0)
(0.000556497 -5.97366e-05 9.21138e-16 -0.000220585 -6.98606e-16 0)
(0.000556497 -5.94099e-05 -5.22369e-16 -0.00024036 -2.09793e-16 0)
(0.000561401 -4.95396e-05 1.1267e-15 -0.000226606 -1.18688e-15 0)
(0.000561401 -4.50406e-05 -7.97973e-17 -0.000245786 7.18962e-16 0)
(0.000564285 -3.82117e-05 1.27155e-15 -0.000231288 -5.01227e-16 0)
(0.000564285 -2.87319e-05 4.40186e-17 -0.000249604 -2.25162e-16 0)
(0.000564546 -2.58659e-05 5.48173e-16 -0.000234224 -1.63563e-15 0)
(0.000564546 -1.03452e-05 -1.50487e-16 -0.000251419 -1.98295e-15 0)
(0.000561456 -1.25366e-05 2.9924e-17 -0.000234877 -1.86364e-15 0)
(0.000499546 -7.34563e-05 4.66641e-16 -0.000179533 -1.17506e-15 0)
(0.000506244 -6.13462e-05 7.0343e-16 -0.000169331 -5.6983e-16 0)
(0.000506244 -7.06699e-05 -2.14455e-16 -0.000188506 3.27361e-16 0)
(0.000512905 -5.87705e-05 -9.70144e-16 -0.000179255 1.72253e-16 0)
(0.000512905 -6.64781e-05 -1.89974e-15 -0.000197308 1.17296e-15 0)
(0.000519221 -5.5189e-05 -1.18005e-15 -0.000188504 -1.06181e-15 0)
(0.000519221 -6.08954e-05 -1.54564e-15 -0.000205713 7.47015e-16 0)
(0.000525009 -5.04631e-05 2.00794e-16 -0.000197095 -1.2941e-15 0)
(0.000525009 -5.39574e-05 1.57426e-16 -0.000213539 5.9768e-16 0)
(0.000530071 -4.46595e-05 9.06393e-16 -0.00020492 3.33853e-16 0)
(0.000530071 -4.57363e-05 1.30993e-15 -0.000220585 -1.46245e-16 0)
(0.00053415 -3.79539e-05 -2.34188e-16 -0.000211818 1.75809e-15 0)
(0.00053415 -3.63363e-05 8.80372e-16 -0.000226606 -7.88784e-16 0)
(0.000536888 -3.06112e-05 -7.8236e-16 -0.000217585 1.56873e-15 0)
(0.000536888 -2.58835e-05 1.17701e-15 -0.000231288 -5.812e-16 0)
(0.000537783 -2.29946e-05 -4.35416e-16 -0.000221969 3.89825e-16 0)
(0.000537783 -1.45063e-05 5.23236e-16 -0.000234224 -1.16763e-15 0)
(0.00053611 -1.55936e-05 -7.06032e-16 -0.000224647 -7.27716e-16 0)
(0.00053611 -2.2899e-06 -1.13191e-16 -0.000234877 -1.72147e-15 0)
(0.000530779 -9.07723e-06 -3.42608e-17 -0.000225157 -1.79875e-15 0)
(0.000492048 -3.44012e-05 8.69964e-16 -0.000169331 -6.68112e-16 0)
(0.000498929 -2.27187e-05 -1.04951e-16 -0.000163595 -1.0898e-15 0)
(0.000498929 -3.23871e-05 -8.6129e-16 -0.000179255 -4.25143e-16 0)
(0.000504767 -2.27595e-05 -1.35742e-16 -0.000176159 -1.36814e-15 0)
(0.000504767 -2.97177e-05 -5.1131e-16 -0.000188504 -1.44394e-15 0)
(0.000509965 -2.14995e-05 1.47018e-15 -0.00018797 -1.1316e-15 0)
(0.000509965 -2.62836e-05 7.00395e-16 -0.000197095 -1.71374e-15 0)
(0.00051458 -1.93151e-05 4.68375e-16 -0.000198674 -8.65248e-16 0)
(0.00051458 -2.21096e-05 5.10009e-16 -0.00020492 -1.12188e-16 0)
(0.000518531 -1.64097e-05 -5.78313e-16 -0.000207932 3.90421e-16 0)
(0.000518531 -1.72861e-05 -5.32126e-16 -0.000211818 2.19399e-15 0)
(0.000521666 -1.29577e-05 -1.09288e-15 -0.000215429 1.70816e-15 0)
(0.000521666 -1.19619e-05 -1.27589e-15 -0.000217585 2.25167e-15 0)
(0.000523783 -9.1778e-06 -1.64669e-15 -0.000220887 1.59954e-15 0)
(0.000523783 -6.36194e-06 -1.22341e-15 -0.000221969 8.48605e-16 0)
(0.00052462 -5.38943e-06 -2.60317e-15 -0.000224084 -6.92209e-16 0)
(0.00052462 -8.29119e-07 -1.28456e-15 -0.000224647 -7.91088e-16 0)
(0.000523851 -2.07217e-06 -1.43527e-15 -0.000224889 -1.22951e-15 0)
(0.000523851 4.09531e-06 -1.61763e-16 -0.000225157 -1.4042e-15 0)
(0.000521091 6.87168e-08 -1.42854e-15 -0.000223337 -1.7438e-15 0)
(0.00091304 0.000115012 -1.73608e-17 -0.000294301 -5.3024e-15 0)
(0.000848117 -9.31334e-07 -5.77365e-16 -0.000326455 8.54351e-16 0)
(0.00086403 0.000111779 -2.48689e-16 -0.000285685 -1.61871e-15 0)
(0.000806582 7.18083e-06 5.68339e-16 -0.000316365 1.52656e-15 0)
(0.000819447 0.000108555 4.88027e-16 -0.000279806 1.69688e-15 0)
(0.000766864 1.12228e-05 9.75159e-16 -0.000307631 6.9454e-16 0)
(0.000777462 0.000105553 1.1086e-17 -0.000275407 2.06573e-15 0)
(0.000727493 1.17375e-05 8.10441e-18 -0.000299547 -9.38269e-16 0)
(0.000736379 0.000102913 -6.28837e-18 -0.00027135 1.4203e-16 0)
(0.000687014 9.02921e-06 -1.61389e-15 -0.000291308 -1.05775e-15 0)
(0.000694552 0.000100723 -7.61137e-16 -0.000266552 -1.23111e-15 0)
(0.000643914 3.18644e-06 -2.08899e-15 -0.00028201 -1.42399e-15 0)
(0.000650294 9.90426e-05 -3.03007e-16 -0.000259916 -3.97902e-17 0)
(0.000596534 -5.92763e-06 -8.45352e-16 -0.000270628 -3.8294e-16 0)
(0.000601778 9.79104e-05 -1.30118e-16 -0.00025026 1.67639e-15 0)
(0.000542957 -1.87241e-05 -1.81333e-17 -0.000255985 -5.21284e-16 0)
(0.000546909 9.73526e-05 1.11531e-16 -0.00023622 7.67507e-16 0)
(0.000480832 -3.60077e-05 9.62839e-16 -0.000236705 -6.85433e-16 0)
(0.000483129 9.73812e-05 3.71895e-16 -0.000216106 1.73798e-16 0)
(0.000407087 -5.92357e-05 1.26918e-15 -0.000211169 -9.22439e-16 0)
(0.0009539 0.000183975 2.49402e-15 -0.000310592 6.62664e-16 0)
(0.000858564 6.57842e-05 6.93358e-15 -0.000375636 -3.84501e-15 0)
(0.000908246 0.00018805 9.91476e-16 -0.000300845 6.72856e-16 0)
(0.000825899 8.10038e-05 3.26025e-15 -0.000363291 -3.90725e-15 0)
(0.000864868 0.000187872 1.8001e-15 -0.00029247 -9.50954e-16 0)
(0.000792714 8.98159e-05 1.82932e-15 -0.000350869 -4.37823e-15 0)
(0.000823181 0.000184154 2.41452e-16 -0.000284749 -2.25373e-15 0)
(0.000758558 9.25285e-05 4.35849e-16 -0.000338477 -2.56284e-15 0)
(0.000782357 0.000177288 -1.43201e-15 -0.000276872 -1.15977e-15 0)
(0.000722845 8.9262e-05 -4.41758e-16 -0.000326033 2.62377e-16 0)
(0.000741404 0.00016736 -2.05746e-15 -0.000267933 -6.12141e-16 0)
(0.000684878 7.99101e-05 -1.39266e-16 -0.000313304 8.93383e-16 0)
(0.000699219 0.000154133 -9.28944e-16 -0.000256918 -7.61544e-16 0)
(0.000643891 6.41035e-05 -1.37477e-16 -0.000299955 2.47849e-16 0)
(0.000654626 0.000136989 -2.84332e-17 -0.000242669 -8.60098e-16 0)
(0.00059912 4.11908e-05 -5.36192e-16 -0.000285602 -1.59378e-16 0)
(0.000606467 0.000114789 5.76931e-16 -0.000223842 -8.19223e-16 0)
(0.000549975 1.02704e-05 4.58726e-16 -0.000269895 -4.53413e-16 0)
(0.0005538 8.56008e-05 1.63369e-15 -0.000198864 -1.09179e-15 0)