/*--------------------------------*- C++ -*----------------------------------*\
| =========                 |                                                 |
| \\      /  F ield         | OpenFOAM: The Open Source CFD Toolbox           |
|  \\    /   O peration     | Version:  v2012                                 |
|   \\  /    A nd           | Website:  www.openfoam.com                      |
|    \\/     M anipulation  |                                                 |
\*---------------------------------------------------------------------------*/
FoamFile
{
    version     2.0;
    format      ascii;
    class       pointVectorField;
    location    "8";
    object      pointD;
}
// * * * * * * * * * * * * * * * * * * * * * * * * * * * * * * * * * * * * * //

dimensions      [0 1 0 0 0 0 0];


internalField   nonuniform List<vector> 
30930
(
(0.00296821 0 -4.34461e-22)
(0.00415141 0 0)
(0.00382548 -0.000361723 2.59804e-22)
(0 -0.00214644 2.18359e-21)
(0 -0.00148145 1.1173e-20)
(0.00296821 0 -4.34461e-22)
(0.00415141 0 0)
(0.00382548 -0.000361723 2.59804e-22)
(0 -0.00214644 2.18359e-21)
(0 -0.00148145 1.1173e-20)
(0.00297715 0 0)
(0.00298638 0 0)
(0.00299546 0 0)
(0.00300349 0 0)
(0.00300956 0 0)
(0.00301518 0 0)
(0.00302046 0 0)
(0.00302512 0 0)
(0.00302903 0 0)
(0.00303251 0 0)
(0.00303578 0 0)
(0.00303901 0 0)
(0.00304201 0 0)
(0.00304478 0 0)
(0.00304772 0 0)
(0.00305069 0 0)
(0.00305368 0 0)
(0.00305673 0 0)
(0.00305953 0 0)
(0.0030626 0 0)
(0.00306584 0 0)
(0.00306901 0 0)
(0.00307247 0 0)
(0.00307622 0 0)
(0.00308012 0 0)
(0.00308419 0 0)
(0.00308838 0 0)
(0.00309278 0 0)
(0.00309743 0 0)
(0.00310217 0 0)
(0.00310711 0 0)
(0.00311239 0 0)
(0.00311767 0 0)
(0.00312283 0 0)
(0.00312877 0 0)
(0.00313507 0 0)
(0.00314109 0 0)
(0.00314735 0 0)
(0.00315401 0 0)
(0.00316072 0 0)
(0.0031671 0 0)
(0.00317448 0 0)
(0.00318227 0 0)
(0.00318966 0 0)
(0.00319721 0 0)
(0.00320512 0 0)
(0.00321334 0 0)
(0.00322164 0 0)
(0.00323029 0 0)
(0.00323903 0 0)
(0.00324774 0 0)
(0.00325669 0 0)
(0.0032656 0 0)
(0.00327497 0 0)
(0.00328482 0 0)
(0.00329466 0 0)
(0.00330453 0 0)
(0.00331424 0 0)
(0.00332435 0 0)
(0.00333479 0 0)
(0.00334515 0 0)
(0.00335572 0 0)
(0.00336731 0 0)
(0.00337866 0 0)
(0.00338934 0 0)
(0.00340048 0 0)
(0.00341179 0 0)
(0.0034231 0 0)
(0.00343559 0 0)
(0.003448 0 0)
(0.00345947 0 0)
(0.00347133 0 0)
(0.00348295 0 0)
(0.00349585 0 0)
(0.00350906 0 0)
(0.00352139 0 0)
(0.00353408 0 0)
(0.0035467 0 0)
(0.00355919 0 0)
(0.00357282 0 0)
(0.00358626 0 0)
(0.00359999 0 0)
(0.003614 0 0)
(0.00362715 0 0)
(0.00364071 0 0)
(0.00365459 0 0)
(0.00366852 0 0)
(0.00368168 0 0)
(0.0036962 0 0)
(0.00371136 0 0)
(0.00372559 0 0)
(0.0037395 0 0)
(0.00375274 0 0)
(0.00376739 0 0)
(0.00378269 0 0)
(0.00379701 0 0)
(0.0038113 0 0)
(0.0038262 0 0)
(0.00384069 0 0)
(0.00385424 0 0)
(0.00387021 0 0)
(0.00388622 0 0)
(0.00390039 0 0)
(0.00391541 0 0)
(0.00393053 0 0)
(0.00394544 0 0)
(0.00396079 0 0)
(0.00397597 0 0)
(0.00399047 0 0)
(0.0040054 0 0)
(0.00402039 0 0)
(0.00403582 0 0)
(0.00405129 0 0)
(0.00406618 0 0)
(0.00408075 0 0)
(0.00409601 0 0)
(0.00411129 0 0)
(0.00412537 0 0)
(0.00414008 0 0)
(0.00415498 -1.16267e-06 3.68926e-21)
(0.00415474 -2.14301e-06 1.61221e-21)
(0.00415423 -3.18785e-06 -5.19175e-21)
(0.0041535 -4.40021e-06 3.92663e-21)
(0.00415262 -5.51132e-06 1.2331e-20)
(0.00415151 -6.64608e-06 7.49578e-21)
(0.00415022 -7.83162e-06 3.64789e-21)
(0.00414869 -9.10723e-06 3.76561e-21)
(0.00414702 -1.04041e-05 4.20964e-21)
(0.00414505 -1.17671e-05 -8.08913e-23)
(0.00414316 -1.29969e-05 -4.29627e-21)
(0.004141 -1.43707e-05 -2.46094e-21)
(0.00413833 -1.6022e-05 -3.33998e-21)
(0.00413572 -1.76002e-05 -6.52269e-21)
(0.00413293 -1.92254e-05 -5.45767e-21)
(0.00412996 -2.09354e-05 -3.87675e-21)
(0.00412684 -2.27285e-05 -1.73316e-21)
(0.00412365 -2.45444e-05 -4.93616e-22)
(0.00412012 -2.65699e-05 -4.93616e-22)
(0.00411623 -2.88039e-05 -4.85166e-22)
(0.00411251 -3.09587e-05 2.07271e-21)
(0.00410883 -3.30865e-05 3.00904e-22)
(0.00410462 -3.55111e-05 -4.90258e-22)
(0.0041004 -3.80247e-05 2.39291e-21)
(0.00409643 -4.04265e-05 6.26198e-22)
(0.00409183 -4.32094e-05 1.42697e-21)
(0.00408702 -4.61709e-05 -2.05889e-21)
(0.00408251 -4.90269e-05 -1.81735e-21)
(0.00407804 -5.18961e-05 -8.48223e-22)
(0.00407281 -5.5286e-05 -1.21287e-21)
(0.0040675 -5.88434e-05 2.35021e-21)
(0.00406273 -6.20906e-05 1.76283e-21)
(0.00405713 -6.59993e-05 3.80803e-21)
(0.00405163 -6.9936e-05 4.4848e-21)
(0.0040467 -7.35171e-05 2.94341e-22)
(0.00404157 -7.73591e-05 -1.07584e-21)
(0.00403629 -8.13912e-05 3.11237e-22)
(0.00403093 -8.5607e-05 2.52925e-21)
(0.00402509 -9.0285e-05 3.63031e-21)
(0.0040194 -9.49678e-05 1.38922e-21)
(0.00401353 -9.99043e-05 -1.62862e-21)
(0.00400828 -0.000104337 -1.62862e-21)
(0.00400305 -0.000108999 -2.70951e-21)
(0.00399725 -0.000114312 2.23143e-21)
(0.00399146 -0.000119722 5.30566e-21)
(0.00398551 -0.000125456 3.64714e-22)
(0.00398014 -0.000130735 2.32728e-21)
(0.00397454 -0.000136374 -1.28647e-22)
(0.00396888 -0.000142283 -2.54825e-21)
(0.00396328 -0.000148267 4.82943e-21)
(0.0039578 -0.000154283 4.92175e-21)
(0.00395223 -0.000160588 -3.21974e-22)
(0.00394678 -0.000166902 -1.75841e-21)
(0.00394113 -0.000173683 -2.83736e-21)
(0.00393562 -0.000180486 -2.2702e-21)
(0.00393079 -0.00018658 -4.22091e-21)
(0.00392603 -0.000192776 -5.09427e-21)
(0.00392086 -0.000199755 -6.92481e-22)
(0.00391578 -0.000206737 3.12612e-21)
(0.00391087 -0.000213702 2.07596e-21)
(0.00390553 -0.000221546 -3.25175e-21)
(0.00390064 -0.000228947 -6.31553e-21)
(0.00389621 -0.000235827 -1.66266e-21)
(0.00389181 -0.000242851 1.40113e-21)
(0.00388738 -0.000250117 -6.71046e-22)
(0.00388302 -0.000257473 -1.44641e-23)
(0.00387874 -0.000264872 5.13635e-21)
(0.00387409 -0.000273195 2.59473e-21)
(0.00387019 -0.000280278 3.47519e-21)
(0.00386648 -0.000287219 8.61203e-21)
(0.00386225 -0.000295298 3.25181e-21)
(0.00385845 -0.000302691 0)
(0.00385463 -0.000310256 6.66035e-22)
(0.00385087 -0.000317806 2.85718e-21)
(0.00384719 -0.000325281 -1.4529e-21)
(0.0038436 -0.000332625 -7.41739e-21)
(0.00383959 -0.00034086 -3.32898e-21)
(0.00383613 -0.000347972 -1.74889e-21)
(0.00383284 -0.000354694 -2.19326e-21)
(0.00381114 -0.000366423 -3.78289e-24)
(0.00379383 -0.000370077 -2.48629e-21)
(0.00377735 -0.000373559 -8.09898e-22)
(0.00375956 -0.000377314 1.67559e-22)
(0.00374189 -0.00038103 -2.35473e-21)
(0.00372508 -0.00038453 -1.75129e-21)
(0.00370794 -0.000388054 -6.41795e-22)
(0.00369019 -0.000391649 0)
(0.00367252 -0.000395156 -1.3253e-22)
(0.00365552 -0.000398455 -1.17554e-21)
(0.00363841 -0.00040169 -1.70658e-21)
(0.00362182 -0.00040474 -4.25243e-22)
(0.00360464 -0.000407818 2.22628e-21)
(0.00358673 -0.000410912 1.30091e-21)
(0.00356922 -0.000413841 -8.34468e-22)
(0.00355158 -0.000416686 -9.09234e-22)
(0.00353404 -0.000419392 -1.53163e-21)
(0.00351767 -0.000421828 -1.32948e-21)
(0.00349877 -0.000424533 -4.82702e-22)
(0.00347982 -0.00042714 1.73712e-21)
(0.00346348 -0.000429276 7.93495e-22)
(0.00344567 -0.000431512 -1.98085e-21)
(0.00342752 -0.000433678 -1.78188e-21)
(0.0034099 -0.000435684 1.65191e-22)
(0.00339211 -0.000437619 1.47502e-21)
(0.00337281 -0.000439612 -8.25512e-22)
(0.00335416 -0.000441473 -1.03852e-21)
(0.00333653 -0.000443129 -1.74207e-21)
(0.00331842 -0.00044474 -2.17119e-21)
(0.00330024 -0.000446304 -5.51402e-22)
(0.00327996 -0.000447985 -1.40023e-21)
(0.0032603 -0.000449536 -1.43932e-21)
(0.00324228 -0.00045088 1.51296e-21)
(0.00322288 -0.00045227 2.59351e-21)
(0.00320324 -0.000453628 -3.17465e-22)
(0.00318371 -0.000454932 -2.12256e-21)
(0.00316437 -0.000456186 1.73662e-21)
(0.00314355 -0.000457513 4.31646e-21)
(0.00312288 -0.000458782 -1.8732e-22)
(0.00310216 -0.00046003 -4.04457e-22)
(0.00308089 -0.000461312 1.42248e-21)
(0.00306093 -0.000462509 6.85835e-22)
(0.00304028 -0.000463724 -3.62252e-22)
(0.00301985 -0.000464909 -7.31385e-23)
(0.00299953 -0.000466109 2.09294e-21)
(0.00297699 -0.000467476 3.93343e-21)
(0.00295355 -0.000468939 2.11277e-21)
(0.00293196 -0.000470291 2.09125e-21)
(0.00291102 -0.000471619 9.5545e-22)
(0.00288844 -0.000473101 5.56645e-22)
(0.00286593 -0.000474625 4.93001e-21)
(0.00284521 -0.000476084 1.7917e-21)
(0.00282082 -0.000477885 -1.54693e-21)
(0.00279599 -0.00047979 -6.66027e-22)
(0.00277266 -0.000481672 -9.55396e-22)
(0.00274905 -0.000483637 -7.18284e-22)
(0.00272653 -0.000485587 -5.24549e-22)
(0.00270312 -0.000487723 1.52932e-21)
(0.00267912 -0.000490018 1.70903e-21)
(0.00265297 -0.000492668 -3.44839e-22)
(0.00262773 -0.000495347 0)
(0.00260189 -0.000498244 -1.38766e-21)
(0.00257588 -0.000501273 7.9823e-22)
(0.00254948 -0.000504517 3.95669e-21)
(0.0025227 -0.000507969 1.99442e-21)
(0.0024981 -0.000511309 1.49578e-21)
(0.00247249 -0.000514948 2.67829e-21)
(0.00244755 -0.000518631 4.58214e-21)
(0.00241903 -0.000523083 1.5535e-21)
(0.00239033 -0.000527778 -7.66522e-22)
(0.00236492 -0.00053214 4.21344e-21)
(0.00233827 -0.000536892 2.01904e-21)
(0.00230817 -0.000542538 3.12088e-22)
(0.0022789 -0.000548273 3.69034e-21)
(0.00224956 -0.000554312 2.63143e-21)
(0.00222339 -0.00055977 1.17594e-21)
(0.0021966 -0.000565664 5.84348e-22)
(0.00216591 -0.000572794 -8.82754e-22)
(0.00213575 -0.000580095 -9.22179e-22)
(0.00210462 -0.000587884 -1.74378e-22)
(0.0020752 -0.000595577 4.23608e-21)
(0.00204459 -0.000603862 1.03234e-20)
(0.00201308 -0.000612745 6.45807e-21)
(0.00198274 -0.000621643 3.57183e-22)
(0.00195321 -0.00063062 -5.39417e-22)
(0.00192266 -0.000640279 2.07442e-21)
(0.00189104 -0.000650645 4.05119e-21)
(0.0018568 -0.000662254 8.54934e-21)
(0.00182344 -0.000673998 9.26527e-21)
(0.00179298 -0.000685108 4.3534e-21)
(0.00176256 -0.000696537 4.58711e-21)
(0.00173124 -0.000708722 -3.72382e-21)
(0.00169851 -0.000721875 -5.98553e-21)
(0.00166585 -0.00073539 -2.13508e-21)
(0.00163428 -0.000748916 7.23258e-22)
(0.00159925 -0.000764437 2.84842e-22)
(0.00156466 -0.000780225 -2.9102e-22)
(0.00153098 -0.000796144 1.41253e-21)
(0.00149789 -0.000812193 5.18519e-21)
(0.00146517 -0.000828671 3.16642e-21)
(0.00143088 -0.000846427 3.2287e-22)
(0.00139874 -0.000863568 4.41896e-21)
(0.0013652 -0.000881942 3.12715e-21)
(0.00133064 -0.000901411 4.91138e-21)
(0.00129689 -0.000920987 1.26226e-21)
(0.00126296 -0.000941266 1.35984e-21)
(0.00122911 -0.000962149 4.60584e-21)
(0.00119625 -0.000982903 6.62567e-21)
(0.00116293 -0.00100456 5.14109e-21)
(0.00112974 -0.00102676 4.58153e-21)
(0.00109651 -0.00104953 4.27569e-21)
(0.00106386 -0.00107255 2.5332e-21)
(0.00103005 -0.00109697 7.25885e-21)
(0.000996752 -0.00112164 -2.1334e-21)
(0.000962396 -0.00114791 -6.85904e-21)
(0.000928374 -0.00117456 1.32178e-21)
(0.000894504 -0.00120177 5.11356e-21)
(0.000864785 -0.00122626 4.31549e-21)
(0.000836223 -0.00125064 -3.47854e-21)
(0.000804102 -0.00127833 3.07251e-21)
(0.000772347 -0.00130653 7.07474e-21)
(0.00073911 -0.00133661 1.759e-21)
(0.000709804 -0.00136408 -2.69802e-21)
(0.000681188 -0.0013916 -6.41408e-21)
(0.000651433 -0.00142055 -1.95706e-21)
(0.000622408 -0.00144961 7.84074e-21)
(0.000593732 -0.00147899 -1.64398e-21)
(0.000565947 -0.00150814 -1.32716e-20)
(0.000538843 -0.00153723 2.21347e-21)
(0.000511326 -0.0015673 4.27783e-21)
(0.000485325 -0.0015964 -6.61482e-21)
(0.000460443 -0.00162464 -1.20619e-20)
(0.000434718 -0.00165454 -5.00045e-22)
(0.000410296 -0.00168369 1.06867e-21)
(0.000387867 -0.00171079 8.0634e-21)
(0.000365264 -0.00173859 1.03765e-20)
(0.000343017 -0.00176639 -5.25278e-21)
(0.000319535 -0.00179637 -5.24192e-21)
(0.000296787 -0.00182552 -6.66979e-21)
(0.000277758 -0.00185037 -3.39296e-21)
(0.00025906 -0.00187538 2.39234e-21)
(0.000239753 -0.00190088 8.00116e-21)
(0.00022186 -0.00192495 7.51978e-21)
(0.000204888 -0.0019478 -1.65896e-21)
(0.000188313 -0.00196986 -4.99369e-21)
(0.000172758 -0.00199047 1.41623e-21)
(0.000157291 -0.00201078 5.08003e-21)
(0.000142116 -0.00203052 -1.89475e-21)
(0.000128047 -0.00204835 1.74441e-21)
(0.000114472 -0.00206505 5.87918e-21)
(0.000100753 -0.00208118 0)
(8.83515e-05 -0.00209484 1.18672e-21)
(7.69585e-05 -0.0021063 -1.06167e-21)
(6.5199e-05 -0.002117 -1.61756e-21)
(5.35351e-05 -0.00212642 1.18621e-21)
(4.23299e-05 -0.00213409 3.62555e-22)
(3.16913e-05 -0.00214 1.37588e-21)
(2.12754e-05 -0.00214426 2.34915e-21)
(1.11694e-05 -0.00214681 2.96403e-21)
(0 -0.0021424 0)
(0 -0.00213774 0)
(0 -0.00213204 0)
(0 -0.00212509 0)
(0 -0.00211845 0)
(0 -0.00211139 0)
(0 -0.00210398 0)
(0 -0.00209663 0)
(0 -0.00208858 0)
(0 -0.00208062 0)
(0 -0.0020734 0)
(0 -0.00206554 0)
(0 -0.00205746 0)
(0 -0.00204951 0)
(0 -0.00204149 0)
(0 -0.0020334 0)
(0 -0.00202569 0)
(0 -0.00201809 0)
(0 -0.00201048 0)
(0 -0.00200243 0)
(0 -0.00199432 0)
(0 -0.00198695 0)
(0 -0.00197914 0)
(0 -0.0019708 0)
(0 -0.00196287 0)
(0 -0.00195459 0)
(0 -0.00194515 0)
(0 -0.00193469 0)
(0 -0.00192283 0)
(0 -0.00190778 0)
(0 -0.00188732 0)
(0 -0.00186171 0)
(0 -0.00183232 0)
(0 -0.00179433 0)
(0 -0.00175068 0)
(0 -0.00170459 0)
(0 -0.00165193 0)
(0 -0.00159397 0)
(0 -0.00153328 0)
(0.000105275 -0.00146124 1.11728e-20)
(0.000201154 -0.00146451 -1.04036e-20)
(0.000301862 -0.00146912 -6.30383e-21)
(0.000402416 -0.00147605 1.90965e-20)
(0.000500148 -0.00148511 2.32897e-20)
(0.000595848 -0.00149492 1.24424e-20)
(0.000689118 -0.00150484 -4.40469e-21)
(0.000781126 -0.00151534 -8.55411e-21)
(0.000869567 -0.0015244 0)
(0.000953668 -0.00152969 -5.90939e-21)
(0.00103234 -0.00153027 -5.99115e-21)
(0.00110337 -0.00152573 -1.48778e-20)
(0.00117231 -0.00151383 -9.63817e-21)
(0.0012372 -0.00149296 3.24814e-21)
(0.00130128 -0.00146558 2.93315e-21)
(0.00136233 -0.00143753 -1.08422e-21)
(0.00141806 -0.0014114 5.60427e-21)
(0.00147769 -0.00138338 1.15314e-20)
(0.00153849 -0.00135427 -3.05697e-21)
(0.00159911 -0.00132485 -1.06548e-20)
(0.00165692 -0.00129583 -4.02134e-21)
(0.00171227 -0.00126743 1.05984e-20)
(0.00176781 -0.00123797 -3.31955e-21)
(0.00182544 -0.00120636 -6.74771e-21)
(0.00188066 -0.00117717 -8.69042e-21)
(0.00193229 -0.00114778 -1.64002e-20)
(0.00198421 -0.00111657 -4.11611e-21)
(0.00203752 -0.0010847 -2.77642e-21)
(0.00208968 -0.001052 -2.11814e-21)
(0.0021375 -0.00102147 9.58415e-21)
(0.00218716 -0.000989111 1.01087e-21)
(0.00223491 -0.000956427 -7.8575e-21)
(0.00227849 -0.000925758 1.51363e-20)
(0.00232124 -0.000895074 1.05078e-20)
(0.00236184 -0.000865232 -4.57102e-21)
(0.00240538 -0.000831855 -4.60002e-25)
(0.00244781 -0.000797967 -4.89597e-21)
(0.00248534 -0.000767782 -5.4953e-21)
(0.00252094 -0.000736966 3.67412e-21)
(0.00255584 -0.00070566 6.17525e-21)
(0.00259024 -0.000674743 7.97582e-22)
(0.00262403 -0.000642081 -8.91195e-21)
(0.0026558 -0.00061086 -1.09765e-21)
(0.00268501 -0.000580698 1.056e-20)
(0.002714 -0.000548804 3.8495e-21)
(0.0027408 -0.000518032 4.07918e-24)
(0.00276523 -0.00048846 -3.34152e-21)
(0.00278985 -0.000456216 -8.03252e-21)
(0.00281399 -0.000422435 -5.49154e-21)
(0.00283535 -0.000391358 2.02709e-21)
(0.00285388 -0.00036205 4.05183e-21)
(0.00287064 -0.000333373 -4.03313e-21)
(0.00288653 -0.000303963 -5.25325e-21)
(0.00290172 -0.000271981 5.02283e-22)
(0.00291545 -0.000240305 5.05607e-22)
(0.00292691 -0.000211199 1.15919e-21)
(0.00293724 -0.000179597 1.65839e-21)
(0.00294552 -0.000149526 -2.94624e-21)
(0.00295199 -0.000121092 -3.40089e-21)
(0.00295729 -9.16553e-05 7.33333e-21)
(0.00296116 -6.18743e-05 6.56038e-21)
(0.00296359 -3.19304e-05 -1.15952e-21)
(0.00297715 0 0)
(0.00298638 0 0)
(0.00299546 0 0)
(0.00300349 0 0)
(0.00300956 0 0)
(0.00301518 0 0)
(0.00302046 0 0)
(0.00302512 0 0)
(0.00302903 0 0)
(0.00303251 0 0)
(0.00303578 0 0)
(0.00303901 0 0)
(0.00304201 0 0)
(0.00304478 0 0)
(0.00304772 0 0)
(0.00305069 0 0)
(0.00305368 0 0)
(0.00305673 0 0)
(0.00305953 0 0)
(0.0030626 0 0)
(0.00306584 0 0)
(0.00306901 0 0)
(0.00307247 0 0)
(0.00307622 0 0)
(0.00308012 0 0)
(0.00308419 0 0)
(0.00308838 0 0)
(0.00309278 0 0)
(0.00309743 0 0)
(0.00310217 0 0)
(0.00310711 0 0)
(0.00311239 0 0)
(0.00311767 0 0)
(0.00312283 0 0)
(0.00312877 0 0)
(0.00313507 0 0)
(0.00314109 0 0)
(0.00314735 0 0)
(0.00315401 0 0)
(0.00316072 0 0)
(0.0031671 0 0)
(0.00317448 0 0)
(0.00318227 0 0)
(0.00318966 0 0)
(0.00319721 0 0)
(0.00320512 0 0)
(0.00321334 0 0)
(0.00322164 0 0)
(0.00323029 0 0)
(0.00323903 0 0)
(0.00324774 0 0)
(0.00325669 0 0)
(0.0032656 0 0)
(0.00327497 0 0)
(0.00328482 0 0)
(0.00329466 0 0)
(0.00330453 0 0)
(0.00331424 0 0)
(0.00332435 0 0)
(0.00333479 0 0)
(0.00334515 0 0)
(0.00335572 0 0)
(0.00336731 0 0)
(0.00337866 0 0)
(0.00338934 0 0)
(0.00340048 0 0)
(0.00341179 0 0)
(0.0034231 0 0)
(0.00343559 0 0)
(0.003448 0 0)
(0.00345947 0 0)
(0.00347133 0 0)
(0.00348295 0 0)
(0.00349585 0 0)
(0.00350906 0 0)
(0.00352139 0 0)
(0.00353408 0 0)
(0.0035467 0 0)
(0.00355919 0 0)
(0.00357282 0 0)
(0.00358626 0 0)
(0.00359999 0 0)
(0.003614 0 0)
(0.00362715 0 0)
(0.00364071 0 0)
(0.00365459 0 0)
(0.00366852 0 0)
(0.00368168 0 0)
(0.0036962 0 0)
(0.00371136 0 0)
(0.00372559 0 0)
(0.0037395 0 0)
(0.00375274 0 0)
(0.00376739 0 0)
(0.00378269 0 0)
(0.00379701 0 0)
(0.0038113 0 0)
(0.0038262 0 0)
(0.00384069 0 0)
(0.00385424 0 0)
(0.00387021 0 0)
(0.00388622 0 0)
(0.00390039 0 0)
(0.00391541 0 0)
(0.00393053 0 0)
(0.00394544 0 0)
(0.00396079 0 0)
(0.00397597 0 0)
(0.00399047 0 0)
(0.0040054 0 0)
(0.00402039 0 0)
(0.00403582 0 0)
(0.00405129 0 0)
(0.00406618 0 0)
(0.00408075 0 0)
(0.00409601 0 0)
(0.00411129 0 0)
(0.00412537 0 0)
(0.00414008 0 0)
(0.00415498 -1.16267e-06 3.68926e-21)
(0.00415474 -2.14301e-06 1.61221e-21)
(0.00415423 -3.18785e-06 -5.19175e-21)
(0.0041535 -4.40021e-06 3.92663e-21)
(0.00415262 -5.51132e-06 1.2331e-20)
(0.00415151 -6.64608e-06 7.49578e-21)
(0.00415022 -7.83162e-06 3.64789e-21)
(0.00414869 -9.10723e-06 3.76561e-21)
(0.00414702 -1.04041e-05 4.20964e-21)
(0.00414505 -1.17671e-05 -8.08913e-23)
(0.00414316 -1.29969e-05 -4.29627e-21)
(0.004141 -1.43707e-05 -2.46094e-21)
(0.00413833 -1.6022e-05 -3.33998e-21)
(0.00413572 -1.76002e-05 -6.52269e-21)
(0.00413293 -1.92254e-05 -5.45767e-21)
(0.00412996 -2.09354e-05 -3.87675e-21)
(0.00412684 -2.27285e-05 -1.73316e-21)
(0.00412365 -2.45444e-05 -4.93616e-22)
(0.00412012 -2.65699e-05 -4.93616e-22)
(0.00411623 -2.88039e-05 -4.85166e-22)
(0.00411251 -3.09587e-05 2.07271e-21)
(0.00410883 -3.30865e-05 3.00904e-22)
(0.00410462 -3.55111e-05 -4.90258e-22)
(0.0041004 -3.80247e-05 2.39291e-21)
(0.00409643 -4.04265e-05 6.26198e-22)
(0.00409183 -4.32094e-05 1.42697e-21)
(0.00408702 -4.61709e-05 -2.05889e-21)
(0.00408251 -4.90269e-05 -1.81735e-21)
(0.00407804 -5.18961e-05 -8.48223e-22)
(0.00407281 -5.5286e-05 -1.21287e-21)
(0.0040675 -5.88434e-05 2.35021e-21)
(0.00406273 -6.20906e-05 1.76283e-21)
(0.00405713 -6.59993e-05 3.80803e-21)
(0.00405163 -6.9936e-05 4.4848e-21)
(0.0040467 -7.35171e-05 2.94341e-22)
(0.00404157 -7.73591e-05 -1.07584e-21)
(0.00403629 -8.13912e-05 3.11237e-22)
(0.00403093 -8.5607e-05 2.52925e-21)
(0.00402509 -9.0285e-05 3.63031e-21)
(0.0040194 -9.49678e-05 1.38922e-21)
(0.00401353 -9.99043e-05 -1.62862e-21)
(0.00400828 -0.000104337 -1.62862e-21)
(0.00400305 -0.000108999 -2.70951e-21)
(0.00399725 -0.000114312 2.23143e-21)
(0.00399146 -0.000119722 5.30566e-21)
(0.00398551 -0.000125456 3.64714e-22)
(0.00398014 -0.000130735 2.32728e-21)
(0.00397454 -0.000136374 -1.28647e-22)
(0.00396888 -0.000142283 -2.54825e-21)
(0.00396328 -0.000148267 4.82943e-21)
(0.0039578 -0.000154283 4.92175e-21)
(0.00395223 -0.000160588 -3.21974e-22)
(0.00394678 -0.000166902 -1.75841e-21)
(0.00394113 -0.000173683 -2.83736e-21)
(0.00393562 -0.000180486 -2.2702e-21)
(0.00393079 -0.00018658 -4.22091e-21)
(0.00392603 -0.000192776 -5.09427e-21)
(0.00392086 -0.000199755 -6.92481e-22)
(0.00391578 -0.000206737 3.12612e-21)
(0.00391087 -0.000213702 2.07596e-21)
(0.00390553 -0.000221546 -3.25175e-21)
(0.00390064 -0.000228947 -6.31553e-21)
(0.00389621 -0.000235827 -1.66266e-21)
(0.00389181 -0.000242851 1.40113e-21)
(0.00388738 -0.000250117 -6.71046e-22)
(0.00388302 -0.000257473 -1.44641e-23)
(0.00387874 -0.000264872 5.13635e-21)
(0.00387409 -0.000273195 2.59473e-21)
(0.00387019 -0.000280278 3.47519e-21)
(0.00386648 -0.000287219 8.61203e-21)
(0.00386225 -0.000295298 3.25181e-21)
(0.00385845 -0.000302691 0)
(0.00385463 -0.000310256 6.66035e-22)
(0.00385087 -0.000317806 2.85718e-21)
(0.00384719 -0.000325281 -1.4529e-21)
(0.0038436 -0.000332625 -7.41739e-21)
(0.00383959 -0.00034086 -3.32898e-21)
(0.00383613 -0.000347972 -1.74889e-21)
(0.00383284 -0.000354694 -2.19326e-21)
(0.00381114 -0.000366423 -3.78289e-24)
(0.00379383 -0.000370077 -2.48629e-21)
(0.00377735 -0.000373559 -8.09898e-22)
(0.00375956 -0.000377314 1.67559e-22)
(0.00374189 -0.00038103 -2.35473e-21)
(0.00372508 -0.00038453 -1.75129e-21)
(0.00370794 -0.000388054 -6.41795e-22)
(0.00369019 -0.000391649 0)
(0.00367252 -0.000395156 -1.3253e-22)
(0.00365552 -0.000398455 -1.17554e-21)
(0.00363841 -0.00040169 -1.70658e-21)
(0.00362182 -0.00040474 -4.25243e-22)
(0.00360464 -0.000407818 2.22628e-21)
(0.00358673 -0.000410912 1.30091e-21)
(0.00356922 -0.000413841 -8.34468e-22)
(0.00355158 -0.000416686 -9.09234e-22)
(0.00353404 -0.000419392 -1.53163e-21)
(0.00351767 -0.000421828 -1.32948e-21)
(0.00349877 -0.000424533 -4.82702e-22)
(0.00347982 -0.00042714 1.73712e-21)
(0.00346348 -0.000429276 7.93495e-22)
(0.00344567 -0.000431512 -1.98085e-21)
(0.00342752 -0.000433678 -1.78188e-21)
(0.0034099 -0.000435684 1.65191e-22)
(0.00339211 -0.000437619 1.47502e-21)
(0.00337281 -0.000439612 -8.25512e-22)
(0.00335416 -0.000441473 -1.03852e-21)
(0.00333653 -0.000443129 -1.74207e-21)
(0.00331842 -0.00044474 -2.17119e-21)
(0.00330024 -0.000446304 -5.51402e-22)
(0.00327996 -0.000447985 -1.40023e-21)
(0.0032603 -0.000449536 -1.43932e-21)
(0.00324228 -0.00045088 1.51296e-21)
(0.00322288 -0.00045227 2.59351e-21)
(0.00320324 -0.000453628 -3.17465e-22)
(0.00318371 -0.000454932 -2.12256e-21)
(0.00316437 -0.000456186 1.73662e-21)
(0.00314355 -0.000457513 4.31646e-21)
(0.00312288 -0.000458782 -1.8732e-22)
(0.00310216 -0.00046003 -4.04457e-22)
(0.00308089 -0.000461312 1.42248e-21)
(0.00306093 -0.000462509 6.85835e-22)
(0.00304028 -0.000463724 -3.62252e-22)
(0.00301985 -0.000464909 -7.31385e-23)
(0.00299953 -0.000466109 2.09294e-21)
(0.00297699 -0.000467476 3.93343e-21)
(0.00295355 -0.000468939 2.11277e-21)
(0.00293196 -0.000470291 2.09125e-21)
(0.00291102 -0.000471619 9.5545e-22)
(0.00288844 -0.000473101 5.56645e-22)
(0.00286593 -0.000474625 4.93001e-21)
(0.00284521 -0.000476084 1.7917e-21)
(0.00282082 -0.000477885 -1.54693e-21)
(0.00279599 -0.00047979 -6.66027e-22)
(0.00277266 -0.000481672 -9.55396e-22)
(0.00274905 -0.000483637 -7.18284e-22)
(0.00272653 -0.000485587 -5.24549e-22)
(0.00270312 -0.000487723 1.52932e-21)
(0.00267912 -0.000490018 1.70903e-21)
(0.00265297 -0.000492668 -3.44839e-22)
(0.00262773 -0.000495347 0)
(0.00260189 -0.000498244 -1.38766e-21)
(0.00257588 -0.000501273 7.9823e-22)
(0.00254948 -0.000504517 3.95669e-21)
(0.0025227 -0.000507969 1.99442e-21)
(0.0024981 -0.000511309 1.49578e-21)
(0.00247249 -0.000514948 2.67829e-21)
(0.00244755 -0.000518631 4.58214e-21)
(0.00241903 -0.000523083 1.5535e-21)
(0.00239033 -0.000527778 -7.66522e-22)
(0.00236492 -0.00053214 4.21344e-21)
(0.00233827 -0.000536892 2.01904e-21)
(0.00230817 -0.000542538 3.12088e-22)
(0.0022789 -0.000548273 3.69034e-21)
(0.00224956 -0.000554312 2.63143e-21)
(0.00222339 -0.00055977 1.17594e-21)
(0.0021966 -0.000565664 5.84348e-22)
(0.00216591 -0.000572794 -8.82754e-22)
(0.00213575 -0.000580095 -9.22179e-22)
(0.00210462 -0.000587884 -1.74378e-22)
(0.0020752 -0.000595577 4.23608e-21)
(0.00204459 -0.000603862 1.03234e-20)
(0.00201308 -0.000612745 6.45807e-21)
(0.00198274 -0.000621643 3.57183e-22)
(0.00195321 -0.00063062 -5.39417e-22)
(0.00192266 -0.000640279 2.07442e-21)
(0.00189104 -0.000650645 4.05119e-21)
(0.0018568 -0.000662254 8.54934e-21)
(0.00182344 -0.000673998 9.26527e-21)
(0.00179298 -0.000685108 4.3534e-21)
(0.00176256 -0.000696537 4.58711e-21)
(0.00173124 -0.000708722 -3.72382e-21)
(0.00169851 -0.000721875 -5.98553e-21)
(0.00166585 -0.00073539 -2.13508e-21)
(0.00163428 -0.000748916 7.23258e-22)
(0.00159925 -0.000764437 2.84842e-22)
(0.00156466 -0.000780225 -2.9102e-22)
(0.00153098 -0.000796144 1.41253e-21)
(0.00149789 -0.000812193 5.18519e-21)
(0.00146517 -0.000828671 3.16642e-21)
(0.00143088 -0.000846427 3.2287e-22)
(0.00139874 -0.000863568 4.41896e-21)
(0.0013652 -0.000881942 3.12715e-21)
(0.00133064 -0.000901411 4.91138e-21)
(0.00129689 -0.000920987 1.26226e-21)
(0.00126296 -0.000941266 1.35984e-21)
(0.00122911 -0.000962149 4.60584e-21)
(0.00119625 -0.000982903 6.62567e-21)
(0.00116293 -0.00100456 5.14109e-21)
(0.00112974 -0.00102676 4.58153e-21)
(0.00109651 -0.00104953 4.27569e-21)
(0.00106386 -0.00107255 2.5332e-21)
(0.00103005 -0.00109697 7.25885e-21)
(0.000996752 -0.00112164 -2.1334e-21)
(0.000962396 -0.00114791 -6.85904e-21)
(0.000928374 -0.00117456 1.32178e-21)
(0.000894504 -0.00120177 5.11356e-21)
(0.000864785 -0.00122626 4.31549e-21)
(0.000836223 -0.00125064 -3.47854e-21)
(0.000804102 -0.00127833 3.07251e-21)
(0.000772347 -0.00130653 7.07474e-21)
(0.00073911 -0.00133661 1.759e-21)
(0.000709804 -0.00136408 -2.69802e-21)
(0.000681188 -0.0013916 -6.41408e-21)
(0.000651433 -0.00142055 -1.95706e-21)
(0.000622408 -0.00144961 7.84074e-21)
(0.000593732 -0.00147899 -1.64398e-21)
(0.000565947 -0.00150814 -1.32716e-20)
(0.000538843 -0.00153723 2.21347e-21)
(0.000511326 -0.0015673 4.27783e-21)
(0.000485325 -0.0015964 -6.61482e-21)
(0.000460443 -0.00162464 -1.20619e-20)
(0.000434718 -0.00165454 -5.00045e-22)
(0.000410296 -0.00168369 1.06867e-21)
(0.000387867 -0.00171079 8.0634e-21)
(0.000365264 -0.00173859 1.03765e-20)
(0.000343017 -0.00176639 -5.25278e-21)
(0.000319535 -0.00179637 -5.24192e-21)
(0.000296787 -0.00182552 -6.66979e-21)
(0.000277758 -0.00185037 -3.39296e-21)
(0.00025906 -0.00187538 2.39234e-21)
(0.000239753 -0.00190088 8.00116e-21)
(0.00022186 -0.00192495 7.51978e-21)
(0.000204888 -0.0019478 -1.65896e-21)
(0.000188313 -0.00196986 -4.99369e-21)
(0.000172758 -0.00199047 1.41623e-21)
(0.000157291 -0.00201078 5.08003e-21)
(0.000142116 -0.00203052 -1.89475e-21)
(0.000128047 -0.00204835 1.74441e-21)
(0.000114472 -0.00206505 5.87918e-21)
(0.000100753 -0.00208118 0)
(8.83515e-05 -0.00209484 1.18672e-21)
(7.69585e-05 -0.0021063 -1.06167e-21)
(6.5199e-05 -0.002117 -1.61756e-21)
(5.35351e-05 -0.00212642 1.18621e-21)
(4.23299e-05 -0.00213409 3.62555e-22)
(3.16913e-05 -0.00214 1.37588e-21)
(2.12754e-05 -0.00214426 2.34915e-21)
(1.11694e-05 -0.00214681 2.96403e-21)
(0 -0.0021424 0)
(0 -0.00213774 0)
(0 -0.00213204 0)
(0 -0.00212509 0)
(0 -0.00211845 0)
(0 -0.00211139 0)
(0 -0.00210398 0)
(0 -0.00209663 0)
(0 -0.00208858 0)
(0 -0.00208062 0)
(0 -0.0020734 0)
(0 -0.00206554 0)
(0 -0.00205746 0)
(0 -0.00204951 0)
(0 -0.00204149 0)
(0 -0.0020334 0)
(0 -0.00202569 0)
(0 -0.00201809 0)
(0 -0.00201048 0)
(0 -0.00200243 0)
(0 -0.00199432 0)
(0 -0.00198695 0)
(0 -0.00197914 0)
(0 -0.0019708 0)
(0 -0.00196287 0)
(0 -0.00195459 0)
(0 -0.00194515 0)
(0 -0.00193469 0)
(0 -0.00192283 0)
(0 -0.00190778 0)
(0 -0.00188732 0)
(0 -0.00186171 0)
(0 -0.00183232 0)
(0 -0.00179433 0)
(0 -0.00175068 0)
(0 -0.00170459 0)
(0 -0.00165193 0)
(0 -0.00159397 0)
(0 -0.00153328 0)
(0.000105275 -0.00146124 1.11728e-20)
(0.000201154 -0.00146451 -1.04036e-20)
(0.000301862 -0.00146912 -6.30383e-21)
(0.000402416 -0.00147605 1.90965e-20)
(0.000500148 -0.00148511 2.32897e-20)
(0.000595848 -0.00149492 1.24424e-20)
(0.000689118 -0.00150484 -4.40469e-21)
(0.000781126 -0.00151534 -8.55411e-21)
(0.000869567 -0.0015244 0)
(0.000953668 -0.00152969 -5.90939e-21)
(0.00103234 -0.00153027 -5.99115e-21)
(0.00110337 -0.00152573 -1.48778e-20)
(0.00117231 -0.00151383 -9.63817e-21)
(0.0012372 -0.00149296 3.24814e-21)
(0.00130128 -0.00146558 2.93315e-21)
(0.00136233 -0.00143753 -1.08422e-21)
(0.00141806 -0.0014114 5.60427e-21)
(0.00147769 -0.00138338 1.15314e-20)
(0.00153849 -0.00135427 -3.05697e-21)
(0.00159911 -0.00132485 -1.06548e-20)
(0.00165692 -0.00129583 -4.02134e-21)
(0.00171227 -0.00126743 1.05984e-20)
(0.00176781 -0.00123797 -3.31955e-21)
(0.00182544 -0.00120636 -6.74771e-21)
(0.00188066 -0.00117717 -8.69042e-21)
(0.00193229 -0.00114778 -1.64002e-20)
(0.00198421 -0.00111657 -4.11611e-21)
(0.00203752 -0.0010847 -2.77642e-21)
(0.00208968 -0.001052 -2.11814e-21)
(0.0021375 -0.00102147 9.58415e-21)
(0.00218716 -0.000989111 1.01087e-21)
(0.00223491 -0.000956427 -7.8575e-21)
(0.00227849 -0.000925758 1.51363e-20)
(0.00232124 -0.000895074 1.05078e-20)
(0.00236184 -0.000865232 -4.57102e-21)
(0.00240538 -0.000831855 -4.60002e-25)
(0.00244781 -0.000797967 -4.89597e-21)
(0.00248534 -0.000767782 -5.4953e-21)
(0.00252094 -0.000736966 3.67412e-21)
(0.00255584 -0.00070566 6.17525e-21)
(0.00259024 -0.000674743 7.97582e-22)
(0.00262403 -0.000642081 -8.91195e-21)
(0.0026558 -0.00061086 -1.09765e-21)
(0.00268501 -0.000580698 1.056e-20)
(0.002714 -0.000548804 3.8495e-21)
(0.0027408 -0.000518032 4.07918e-24)
(0.00276523 -0.00048846 -3.34152e-21)
(0.00278985 -0.000456216 -8.03252e-21)
(0.00281399 -0.000422435 -5.49154e-21)
(0.00283535 -0.000391358 2.02709e-21)
(0.00285388 -0.00036205 4.05183e-21)
(0.00287064 -0.000333373 -4.03313e-21)
(0.00288653 -0.000303963 -5.25325e-21)
(0.00290172 -0.000271981 5.02283e-22)
(0.00291545 -0.000240305 5.05607e-22)
(0.00292691 -0.000211199 1.15919e-21)
(0.00293724 -0.000179597 1.65839e-21)
(0.00294552 -0.000149526 -2.94624e-21)
(0.00295199 -0.000121092 -3.40089e-21)
(0.00295729 -9.16553e-05 7.33333e-21)
(0.00296116 -6.18743e-05 6.56038e-21)
(0.00296359 -3.19304e-05 -1.15952e-21)
(0.00250432 -0.000220685 0)
(0.00322248 -0.00015285 0)
(0.00158837 -0.000771024 0)
(0.00349185 -0.000243735 0)
(0.00368501 -9.37274e-05 0)
(0.00266532 -0.000260928 0)
(0.00307354 -6.96006e-05 0)
(0.000764208 -0.00151426 0)
(0.00276339 -0.000139264 0)
(0.00193695 -0.000509633 0)
(0.00309414 -0.000291285 0)
(0.00343829 -6.26552e-05 0)
(0.00300428 -4.65145e-05 0)
(0.00218891 -0.000456048 0)
(0.00374638 -0.000151713 0)
(0.00223398 -0.000416084 0)
(0.00296791 -0.000146443 0)
(0.00347776 -0.00016074 0)
(0.00389932 -4.64123e-05 0)
(0.0036207 -0.00030255 0)
(0.0010452 -0.00118722 0)
(0.00276574 -0.000342378 0)
(0.003293 -3.6315e-05 0)
(0.00139244 -0.00104804 0)
(0.00144328 -0.000827279 0)