/*--------------------------------*- C++ -*----------------------------------*\
| =========                 |                                                 |
| \\      /  F ield         | OpenFOAM: The Open Source CFD Toolbox           |
|  \\    /   O peration     | Version:  v2012                                 |
|   \\  /    A nd           | Website:  www.openfoam.com                      |
|    \\/     M anipulation  |                                                 |
\*---------------------------------------------------------------------------*/
FoamFile
{
    version     2.0;
    format      ascii;
    class       volScalarField;
    location    "8";
    object      sigmaHyd;
}
// * * * * * * * * * * * * * * * * * * * * * * * * * * * * * * * * * * * * * //

dimensions      [1 -1 -2 0 0 0 0];


internalField   nonuniform List<scalar> 
30465
(
5.75326e+07
4.71876e+07
7.06189e+07
5.48535e+07
5.04074e+07
5.02471e+07
7.32415e+07
7.45843e+07
8.23942e+07
5.97883e+07
5.72783e+07
7.87962e+07
5.29014e+07
3.14181e+06
7.45742e+07
7.31887e+07
5.12135e+07
5.4555e+07
8.17693e+07
4.847e+07
3.6746e+07
3.68242e+07
3.20098e+07
7.71249e+07
3.24246e+07
5.26705e+07
5.25712e+07
4.80915e+07
4.9727e+07
7.87815e+07
4.20913e+07
5.57355e+07
5.58022e+07
5.33156e+07
6.21165e+07
4.77064e+07
7.96561e+07
3.22573e+07
5.26086e+07
8.09844e+07
3.99926e+07
7.1069e+07
7.64025e+07
4.66597e+07
4.67164e+07
8.52693e+07
6.06629e+07
4.72324e+07
5.33438e+07
4.02796e+07
4.05234e+07
5.2935e+07
6.35091e+07
6.29039e+07
1.31389e+08
4.83094e+07
1.29368e+08
5.14754e+07
5.04385e+07
5.86906e+07
5.8638e+07
6.28656e+07
4.4394e+07
6.21601e+07
6.19085e+07
-6.46197e+07
6.68415e+07
1.01285e+08
3.15057e+07
5.14033e+07
3.97119e+07
5.09769e+07
8.62332e+07
6.82175e+07
5.60215e+07
8.26592e+07
5.17684e+07
5.17789e+07
7.23007e+06
6.12343e+07
7.50697e+07
7.48704e+07
5.19647e+07
5.181e+07
5.23502e+07
5.29625e+07
5.05554e+07
8.20061e+07
4.90276e+07
4.3939e+07
5.65324e+07
5.65663e+07
5.0935e+07
5.09691e+07
5.98069e+07
5.41903e+07
5.0727e+07
5.08447e+07
6.88727e+07
5.09966e+07
5.36955e+07
3.52187e+07
3.56237e+07
5.61803e+07
8.68351e+06
7.27756e+07
7.24264e+07
5.18554e+07
3.99521e+07
7.56119e+06
7.2323e+07
5.50493e+07
6.41034e+07
6.39125e+07
5.39474e+07
5.34873e+07
1.46932e+07
5.07066e+07
5.52483e+07
1.66403e+08
8.19573e+07
4.7635e+07
4.81469e+07
-2.56949e+07
4.72094e+07
4.69886e+07
3.03338e+07
6.04614e+07
4.75581e+07
-3.99769e+07
1.0739e+08
5.63154e+07
7.26731e+07
1.02773e+08
5.06812e+07
1.9443e+07
8.26265e+07
5.12211e+07
8.57717e+07
8.30526e+07
4.66868e+07
8.1274e+07
-7.35459e+06
4.0287e+07
4.81108e+07
6.33331e+07
5.71132e+07
5.71119e+07
6.39808e+07
6.14024e+07
4.62868e+07
5.59035e+07
5.42558e+07
5.42862e+07
5.31331e+07
8.81277e+06
6.96598e+07
5.25058e+07
7.60409e+07
4.64401e+07
4.64061e+07
7.67091e+07
6.86537e+07
6.90845e+07
1.0877e+07
5.49501e+07
5.15389e+07
1.06141e+08
5.15216e+07
5.45231e+07
4.83826e+07
5.6712e+07
5.35459e+07
5.36867e+07
5.10887e+07
5.54991e+07
6.01542e+07
5.08551e+07
1.04614e+07
7.91745e+07
7.4644e+07
5.91739e+07
5.88863e+07
4.7509e+07
4.77761e+07
2.49905e+07
7.12488e+07
-4.88288e+07
5.54507e+07
5.08323e+07
8.29034e+07
5.23772e+07
3.12287e+07
7.80308e+07
5.16822e+07
5.17882e+07
7.32038e+07
5.21901e+07
5.17114e+07
5.78641e+07
5.63298e+07
5.11424e+07
6.0029e+07
1.09794e+08
4.61759e+07
4.63176e+07
-3.26975e+07
1.10596e+08
5.40579e+07
4.5028e+07
7.0994e+07
4.56247e+07
2.82881e+07
5.21133e+07
8.51188e+07
6.99735e+07
7.05274e+07
5.22878e+07
5.23721e+07
8.22653e+07
5.83863e+07
5.4628e+07
5.46125e+07
5.07604e+07
6.63685e+07
-4.23631e+07
6.23542e+07
4.79544e+07
4.37029e+07
2.77455e+07
6.3489e+07
5.32505e+07
5.33485e+07
-3.90727e+06
1.70808e+07
1.71983e+07
5.92854e+07
5.8962e+07
7.49298e+07
7.49819e+07
5.62854e+07
2.78694e+07
4.97845e+07
2.00945e+07
5.02603e+07
7.56182e+07
5.4141e+07
5.24648e+07
9.71874e+07
1.72582e+07
5.21304e+07
-3.47291e+07
-3.60592e+07
6.2319e+07
5.21244e+07
1.07379e+08
6.92639e+07
6.72515e+07
6.07594e+07
1.16914e+08
5.10469e+07
2.91868e+07
2.99655e+07
-2.05198e+07
6.79086e+07
6.72424e+07
5.17588e+07
6.8186e+07
5.30812e+07
5.11085e+07
5.49242e+07
4.90089e+07
4.88748e+07
5.05616e+07
7.61983e+06
3.8028e+07
-1.54758e+07
4.04971e+07
7.71818e+07
3.43443e+07
7.76704e+07
5.65132e+07
-1.2903e+07
5.12759e+07
4.50144e+07
5.14917e+07
6.54985e+07
5.21377e+07
6.13323e+07
4.62593e+07
4.63104e+07
3.94701e+07
4.80264e+07
6.89175e+07
5.70786e+07
5.00195e+07
5.58e+07
2.60012e+07
2.62743e+07
5.12035e+07
5.59618e+07
5.57581e+07
8.59585e+07
4.19897e+07
4.5019e+07
6.17197e+07
6.14298e+07
5.6175e+07
-6.17854e+06
-1.01321e+07
5.33853e+07
5.3265e+07
7.62282e+07
4.93366e+07
8.1966e+07
1.64245e+07
1.13915e+08
1.16649e+08
7.00621e+07
1.3371e+08
5.56301e+07
1.36143e+08
5.56534e+07
1.25526e+07
4.72395e+07
4.70172e+07
1.05784e+08
3.15635e+07
4.97514e+07
7.05861e+07
1.08383e+07
6.42264e+07
1.58986e+07
7.8516e+07
376904
7.3263e+07
5.51102e+07
3.56992e+07
3.58815e+07
5.76322e+07
6.40526e+07
5.31373e+07
6.85652e+07
5.14474e+07
4.90246e+07
6.12573e+07
6.18404e+07
8.09039e+07
4.06585e+07
5.73305e+07
6.12716e+07
4.55953e+07
6.85472e+07
7.72566e+07
4.94563e+07
6.85274e+07
1.94249e+07
7.73063e+07
3.96353e+06
-3.99683e+07
5.05033e+07
5.09233e+07
5.31524e+07
-2.75017e+06
-3.71334e+07
7.45149e+07
6.21873e+07
3.16622e+07
3.24845e+07
4.59751e+07
1.33115e+08
5.67534e+07
7.91065e+07
4.12858e+07
4.07156e+07
6.90563e+07
4.82484e+07
5.9706e+07
5.15764e+07
5.20326e+07
1.11619e+07
4.94885e+07
4.96737e+07
7.03787e+07
6.84694e+07
4.41743e+07
-738612
7.33539e+07
7.29379e+07
327704
8.25087e+07
3.22425e+07
4.21864e+07
4.86022e+07
5.43693e+07
4.80442e+07
6.41245e+06
5.17712e+07
4.72466e+07
4.73113e+07
5.8532e+07
5.82591e+07
1.481e+07
3.05743e+07
6.16344e+07
4.80786e+07
5.01961e+07
5.60739e+07
5.0912e+07
4.50799e+07
4.67161e+07
6.87443e+07
4.62745e+07
5.95807e+07
5.35497e+07
-2.70863e+07
4.62871e+07
1.53111e+08
7.60003e+07
7.65177e+07
4.24118e+07
9.30704e+07
7.39649e+07
4.24823e+07
5.24288e+07
4.20903e+07
7.40174e+07
5.01562e+07
5.49632e+07
4.78237e+07
7.96143e+07
5.14399e+07
-2.95224e+06
4.98162e+07
4.97016e+07
4.62701e+07
6.28902e+07
5.20208e+07
8.7296e+07
3.95279e+07
6.9023e+07
8.93326e+06
5.21492e+07
5.58421e+07
5.89376e+07
5.52162e+07
4.55792e+07
4.52839e+07
7.82942e+07
-2.71892e+07
5.4225e+07
4.63779e+07
3.0697e+07
2.66845e+07
6.01625e+07
7.25564e+07
5.16482e+07
2.79727e+07
2.85379e+07
4.4126e+07
5.09338e+07
5.08738e+07
1.21943e+08
5.17067e+07
4.61874e+07
6.13414e+07
5.12086e+07
5.74646e+07
5.3655e+07
5.35392e+07
7.51798e+07
7.51357e+07
5.12081e+07
4.35244e+07
5.37058e+07
8.32535e+07
5.48077e+07
5.46793e+07
-146369
3.31389e+07
4.9353e+07
4.91817e+07
4.99159e+07
4.08172e+07
5.24598e+07
4.80185e+07
7.10356e+07
7.14897e+07
4.86387e+07
2.59528e+07
-4.63803e+07
5.63317e+07
4.66431e+07
6.63594e+07
5.74096e+07
7.67923e+07
3.99915e+07
5.31626e+07
5.11454e+07
4.75541e+07
1.16993e+08
5.26282e+07
5.2525e+07
1.00494e+08
3.82341e+07
6.14305e+07
4.28519e+07
7.34599e+07
2.93969e+07
7.04244e+07
6.5923e+07
7.81005e+07
4.49046e+07
5.57397e+07
4.64044e+07
4.62707e+07
4.14845e+07
-1.01386e+07
-6.32291e+07
6.41509e+07
1.27009e+08
6.22312e+07
5.8164e+07
4.94142e+07
5.09274e+07
1.78681e+07
7.4755e+07
6.86331e+07
1.09849e+07
-507343
5.11272e+07
2.89192e+07
7.42063e+07
2.992e+07
5.77277e+07
4.76723e+07
1.00336e+08
5.2051e+07
5.08608e+07
3.71197e+07
3.69093e+07
4.14109e+07
5.44406e+07
1.64016e+08
9.62904e+07
4.85556e+07
5.02634e+07
5.0173e+07
7.09273e+07
4.87287e+07
6.19476e+07
7.57202e+07
4.83144e+07
5.21019e+07
5.90332e+07
3.4665e+07
3.67278e+07
5.46831e+07
3.62744e+07
3.35435e+07
9.51633e+06
3.66741e+07
2.87076e+07
1.06717e+08
9.72667e+07
2.79583e+07
2.85895e+07
4.68915e+07
2.3789e+07
2.35489e+07
4.88516e+07
5.29272e+07
-1.01082e+06
9.06768e+07
5.20416e+07
9.09421e+07
5.6681e+07
5.65116e+07
6.67308e+07
5.44484e+07
6.91051e+07
5.15739e+07
2.64132e+07
4.418e+07
6.02434e+07
5.57426e+07
4.81827e+07
5.12701e+07
5.00796e+07
5.01651e+07
5.02858e+07
-4.31199e+07
4.62821e+07
6.29598e+07
6.28953e+07
5.0294e+07
5.03467e+07
6.44342e+07
6.27462e+07
2.64468e+07
5.94172e+07
3.68678e+07
4.59566e+07
3.72155e+07
7.94946e+07
4.85741e+07
4.43323e+07
4.45217e+07
6.49958e+07
5.95319e+07
8.07594e+07
8.1416e+07
8.02871e+07
4.76532e+07
1.67688e+08
5.44104e+07
1.21845e+08
5.45873e+07
1.68468e+08
6.69454e+07
5.12354e+07
4.87362e+07
6.88451e+07
5.07611e+07
-3.95685e+07
8.86465e+07
4.8809e+07
4.49526e+07
5.17846e+07
5.50601e+07
3.33712e+07
6.77012e+07
5.94383e+07
5.5277e+07
5.50799e+07
5.44914e+07
4.57125e+07
5.36832e+07
-1.66984e+07
4.24545e+07
5.98129e+07
6.99307e+07
-4.02947e+07
5.45821e+07
3.87811e+07
4.82748e+07
6.75219e+07
7.81595e+07
5.10697e+07
5.21168e+07
5.09044e+07
9.87489e+07
3.29088e+07
4.09034e+07
5.34547e+07
5.04192e+07
2.61825e+07
5.05295e+07
5.03142e+07
7.9477e+07
3.36617e+07
5.46258e+07
5.4772e+07
5.12858e+07
6.17614e+07
4.64197e+07
4.7917e+07
4.79026e+07
3.9768e+07
1.08919e+08
4.93178e+07
-1.62512e+06
2.99794e+07
9.26744e+07
7.34552e+07
5.11398e+07
5.02395e+07
1.29806e+08
5.12392e+07
3.97808e+07
5.24406e+07
7.30955e+07
4.99366e+07
4.32476e+07
1.64843e+08
1.06553e+08
4.92364e+07
5.46904e+07
5.45114e+07
5.46376e+07
5.22915e+07
5.05043e+07
6.67682e+07
5.85972e+07
5.13694e+07
6.09682e+07
5.47458e+07
5.4723e+07
7.4695e+07
7.0561e+07
7.5177e+07
7.6295e+07
5.95735e+07
5.05199e+07
5.05126e+07
1.18958e+08
9.53043e+06
7.84676e+07
7.11952e+07
5.20217e+07
6.98397e+07
5.21524e+07
5.22852e+07
6.12264e+07
7.44453e+07
-2.29751e+07
8.17065e+07
8.16147e+07
4.83986e+07
4.64103e+07
7.6327e+07
7.59904e+07
3.05055e+07
6.687e+07
7.3908e+07
5.3557e+07
5.82695e+07
8.58447e+07
5.20132e+07
5.22468e+07
4.59035e+07
4.58511e+07
3.90284e+07
1.34447e+08
3.99333e+07
1.32168e+08
5.77854e+07
5.63492e+07
3.04511e+07
4.51571e+07
3.56809e+07
3.59603e+07
4.40725e+07
4.43347e+07
4.17723e+07
1.08678e+08
9.96673e+07
2.14972e+07
8.32457e+07
4.97287e+07
3.29148e+07
6.89188e+07
6.41823e+07
6.01387e+07
1.02388e+08
6.65138e+07
5.39835e+07
4.95287e+07
6.79233e+07
2.36671e+07
1.45045e+07
2.32814e+07
9.97464e+07
4.80003e+07
-2.43988e+07
6.29538e+07
3.47074e+07
4.40598e+07
4.39378e+07
5.23295e+07
4.91059e+07
4.93383e+07
3.50808e+07
5.23489e+07
4.69158e+07
5.15176e+07
7.06794e+07
7.10763e+07
5.65312e+07
6.43264e+07
3.94382e+07
4.95716e+07
2.0231e+07
5.53543e+07
5.52545e+07
6.79096e+07
5.14036e+07
4.8229e+07
4.81835e+07
4.47033e+07
3.8455e+07
3.84463e+07
8.76094e+07
5.43427e+07
5.68967e+07
4.8771e+07
2.72522e+07
-5.42448e+07
4.78874e+07
4.5892e+07
1.75871e+07
5.76653e+07
5.2596e+07
5.2539e+07
6.59672e+07
7.42851e+07
5.90596e+07
4.69274e+07
2.0072e+07
2.91832e+07
4.63498e+07
7.36844e+07
4.00626e+07
5.0319e+07
5.25154e+07
5.26339e+07
-2.01229e+07
4.90214e+07
4.90661e+07
4.48072e+07
4.50174e+07
2.74144e+07
5.15954e+07
5.15755e+07
1.40651e+07
2.9046e+07
1.00762e+08
5.24217e+07
4.95412e+07
4.74685e+07
5.02946e+07
4.40319e+07
7.76984e+07
5.18327e+07
7.45269e+07
-6.49205e+06
5.18627e+07
7.37868e+07
4.62336e+07
4.7152e+07
8.26449e+07
-7.94299e+06
4.95046e+07
5.04538e+07
5.09641e+07
5.1002e+07
4.75722e+07
5.53074e+07
3.1707e+07
8.06448e+07
8.10778e+07
1.1666e+07
1.05001e+08
5.25828e+07
1.11538e+07
1.31758e+08
4.92003e+07
6.6947e+07
6.06403e+07
-670748
4.49672e+07
4.58517e+07
8.86565e+07
5.10062e+07
7.38539e+07
4.59549e+07
1.14519e+07
5.63634e+07
5.04923e+07
6.07442e+07
6.27027e+07
4.85435e+07
3.23172e+07
6.32796e+07
8.85811e+07
5.10839e+07
4.84746e+07
4.83803e+07
4.87195e+07
1.04042e+08
5.0884e+07
4.19677e+07
4.18548e+07
4.9548e+07
4.34403e+07
5.12362e+07
4.2533e+07
5.28203e+07
3.65738e+07
5.01472e+07
5.18019e+07
5.14064e+07
6.97195e+07
5.97055e+07
-4.91013e+07
5.50859e+07
6.86312e+07
1.90224e+06
5.16833e+07
5.13891e+07
9.21008e+07
7.36997e+07
5.22993e+07
5.08596e+07
5.24796e+07
4.67634e+07
7.40666e+07
5.1758e+07
7.31e+07
4.77044e+07
1.56578e+08
2.7194e+07
2.72036e+07
8.95734e+06
3.94482e+07
4.53223e+07
7.51995e+07
5.74529e+07
1.35509e+07
7.5406e+07
5.54956e+07
7.33147e+07
4.8331e+07
8.16817e+07
1.25887e+07
5.57155e+07
5.937e+06
7.56022e+07
4.63603e+07
7.43811e+07
5.69603e+07
7.45775e+07
5.58269e+07
8.27961e+07
5.70018e+07
8.30289e+07
4.85298e+07
4.98265e+07
7.23556e+06
7.75658e+07
5.4097e+07
5.12966e+07
7.1005e+07
7.73922e+07
6.81042e+07
8.25612e+07
6.59467e+07
6.09368e+07
2.33272e+07
4.35517e+07
5.32663e+07
5.12271e+07
5.22672e+07
3.96917e+07
5.56319e+07
5.6914e+07
5.14647e+07
8.8386e+07
4.65839e+07
5.83417e+07
5.10187e+07
5.08871e+07
6.59722e+07
4.11804e+07
7.46473e+07
4.16916e+07
5.27751e+07
3.17815e+07
2.35198e+07
5.07625e+07
8.02652e+07
9.17481e+07
-6.08158e+07
3.25325e+07
3.89007e+07
5.17202e+07
4.87537e+07
4.01449e+07
6.3293e+07
4.48772e+07
5.41567e+07
5.81127e+07
-2.20193e+07
5.3229e+07
5.13379e+07
5.01722e+07
1.26974e+08
5.88599e+07
5.8513e+07
4.93811e+07
4.46263e+07
5.04568e+07
1.57647e+07
3.07681e+07
3.04265e+07
4.14429e+07
4.15901e+07
6.66917e+07
1.207e+08
4.3967e+07
5.09143e+07
7.8414e+07
4.5561e+07
5.21085e+07
5.23883e+07
2.57781e+07
5.27444e+07
5.20203e+07
-1.68524e+07
1.22984e+08
3.19639e+07
1.249e+08
5.34473e+07
6.91655e+07
4.64498e+07
4.66804e+07
6.2935e+07
6.18306e+07
4.70894e+07
5.00476e+07
5.61054e+07
7.37745e+07
7.42889e+07
5.03024e+07
5.10585e+07
3.99929e+07
5.69173e+07
4.96276e+07
4.95348e+07
7.12908e+07
3.90783e+07
5.32669e+07
7.08738e+07
1.40094e+07
-2.00224e+07
1.29332e+07
1.32859e+08
5.26503e+07
4.72367e+07
4.75218e+07
3.69738e+07
-1.1663e+07
5.14098e+07
3.73816e+07
5.07694e+07
4.79598e+07
3.85857e+07
7.31912e+07
2.95714e+07
1.78815e+07
4.64461e+07
5.70619e+07
-5.73512e+06
5.65266e+07
4.66079e+07
6.71556e+07
5.08632e+07
7.1136e+07
5.68015e+07
7.44745e+07
5.21155e+07
5.20995e+07
4.85167e+07
1.37718e+07
4.77792e+07
4.76418e+07
2.19155e+07
9.67603e+07
4.94102e+07
4.59294e+07
7.80257e+07
5.57742e+07
5.58624e+07
5.22395e+07
4.74443e+07
8.62821e+07
6.73036e+07
4.73708e+07
4.78119e+07
-5.51281e+06
4.9778e+07
1.11753e+08
3.24609e+07
1.66977e+07
3.64642e+07
6.06121e+07
6.79271e+07
6.14472e+07
5.20586e+07
4.00527e+07
3.761e+07
4.72979e+07
4.26806e+07
4.97792e+07
4.95466e+07
9.82086e+07
3.77577e+07
-1.2175e+06
3.78618e+07
5.52249e+07
5.20558e+07
5.0111e+07
4.34912e+07
4.34097e+07
5.15675e+07
5.13875e+07
6.15996e+07
5.29839e+07
4.97102e+07
5.16005e+07
6.22574e+07
4.62022e+07
6.25314e+07
-1.78762e+07
4.21249e+07
5.68715e+07
7.29808e+07
-1.67209e+07
5.99743e+07
4.82253e+07
3.55277e+07
3.5759e+07
7.97579e+07
4.86399e+07
5.02913e+07
7.06357e+07
5.5471e+07
5.54368e+07
5.06135e+07
5.05839e+07
5.09502e+07
3.38019e+07
6.14283e+06
-3.31167e+07
9.98235e+07
2.29986e+07
5.69883e+07
1.03803e+08
6.45498e+07
5.87956e+07
7.08225e+07
5.17959e+07
5.16636e+07
3.27684e+07
1.7769e+07
5.40885e+07
5.43056e+07
3.80223e+07
1.72135e+07
4.06838e+07
5.17985e+07
4.75982e+06
6.58144e+07
4.17692e+07
7.46509e+07
4.54727e+07
7.48354e+07
5.31979e+07
5.64299e+07
5.42933e+07
5.42211e+07
7.18992e+07
2.22295e+07
2.96483e+07
5.21794e+07
5.77473e+07
6.05744e+07
4.82881e+07
4.8354e+07
5.12394e+07
2.63039e+07
5.25403e+07
1.05969e+08
1.18121e+07
5.92676e+07
6.18588e+07
4.66309e+07
5.69246e+07
5.05741e+07
8.159e+07
3.81662e+07
4.59728e+07
3.98957e+07
3.81836e+07
3.06534e+07
6.40128e+07
6.03155e+07
8.78617e+07
3.66636e+07
5.42642e+07
5.08914e+07
7.64674e+07
5.48956e+07
5.47929e+07
5.15168e+07
4.87729e+07
3.58589e+07
3.59138e+07
-3.0373e+06
5.44683e+07
6.89356e+07
4.83945e+07
5.09987e+07
6.00229e+07
5.21253e+07
5.21951e+07
1.05896e+08
5.88487e+07
4.65821e+07
4.10148e+07
1.03285e+08
5.41143e+07
5.42808e+07
5.15114e+07
6.70528e+07
1.01293e+08
2.21551e+07
3.90894e+07
7.62104e+07
4.89383e+07
5.11445e+07
5.65089e+07
5.6309e+07
6.72962e+07
5.23016e+07
6.72982e+07
5.00392e+07
5.01447e+07
7.26416e+07
3.26431e+07
5.48166e+07
1.43415e+08
6.77781e+07
6.10822e+07
4.66819e+07
4.91124e+07
1.05634e+07
1.42907e+08
4.98962e+07
1.31506e+08
5.30304e+07
2.80439e+07
1.96945e+07
5.29774e+07
5.27559e+07
4.69969e+07
4.75443e+07
8.08525e+07
5.9716e+07
6.0262e+07
6.31662e+07
5.12834e+07
2.82632e+07
5.27777e+07
4.74477e+07
6.01901e+07
4.20542e+07
4.79203e+07
4.77706e+07
5.09801e+07
-5.54934e+07
3.8583e+07
5.22758e+07
9.06854e+07
8.84134e+07
4.62803e+07
4.74987e+07
6.01894e+07
6.17423e+07
4.64364e+07
7.23852e+07
5.03642e+07
4.8784e+07
5.18853e+07
5.29563e+07
-2.12555e+07
4.62596e+07
5.0955e+07
3.50028e+07
4.89573e+07
4.90178e+07
7.33732e+07
5.75864e+07
5.73508e+07
5.48403e+07
2.78269e+07
1.06039e+08
5.15407e+07
1.99413e+07
4.90308e+07
4.89648e+07
4.98965e+07
4.32871e+07
5.05634e+07
6.45779e+07
1.07202e+08
1.06962e+08
5.28873e+07
4.855e+07
4.31221e+07
5.51682e+07
6.48875e+07
5.3292e+07
4.6093e+07
1.0621e+08
4.8257e+07
7.7837e+07
4.45402e+07
1.21057e+08
2.1194e+07
5.41504e+07
2.17418e+07
2.72614e+07
2.69372e+07
8.46735e+07
7.98364e+07
5.12885e+07
1.21335e+08
-7.85431e+06
2.79586e+06
1.49893e+08
6.04476e+06
1.97715e+07
4.64998e+07
2.99701e+07
5.25213e+07
4.80176e+07
4.78774e+07
4.87715e+07
4.95935e+07
4.834e+07
4.81633e+07
-2.36012e+06
3.29066e+07
6.65715e+07
3.82954e+07
1.99619e+07
7.31923e+07
3.84838e+07
2.08217e+07
2.6997e+07
1.86904e+07
6.15152e+07
1.94588e+07
6.74801e+07
5.1968e+07
5.18354e+07
5.11838e+07
5.03364e+07
2.38103e+07
9.70016e+07
4.90689e+07
4.5683e+07
4.32251e+07
6.62503e+07
-3.12053e+06
1.89485e+07
2.03535e+07
-9.50935e+06
3.83532e+07
3.20933e+07
6.16449e+07
7.33439e+07
6.19006e+07
3.87117e+07
6.91933e+07
6.91886e+07
3.50266e+07
8.70605e+07
-6.86971e+06
-581336
4.78716e+07
4.78114e+07
5.14767e+07
5.80822e+07
1.90466e+07
4.57886e+07
8.14635e+07
5.05293e+07
5.38625e+07
-9.9014e+06
3.97655e+07
-3.39606e+07
3.53962e+07
7.42329e+07
7.41853e+07
5.66932e+07
5.68173e+07
2.74754e+07
4.53941e+07
4.00675e+07
5.24667e+07
4.65088e+07
5.70547e+07
3.88944e+07
5.50966e+07
3.92645e+07
5.16186e+07
4.28881e+07
5.53884e+07
5.84622e+07
4.30417e+07
4.91513e+07
4.98049e+07
5.13239e+07
5.11687e+07
5.33475e+07
-4.1967e+07
5.58862e+07
4.28292e+07
3.91492e+07
3.39875e+07
4.70928e+07
8.36787e+07
1.02254e+08
4.72216e+07
1.07792e+08
5.59128e+07
5.24357e+07
5.53277e+07
2.51221e+07
7.59493e+07
7.69051e+06
7.77116e+07
3.29799e+07
5.69233e+07
5.05014e+07
5.42525e+07
5.43882e+07
6.09171e+07
4.89314e+07
5.17819e+07
5.21716e+07
7.4219e+07
5.35594e+07
5.06792e+07
5.77269e+07
6.41001e+07
4.82651e+07
-5.37096e+07
1.49465e+07
6.5794e+07
3.13871e+07
6.22912e+07
8.62833e+07
3.43378e+07
4.12695e+07
6.33683e+07
-2.63308e+07
1.11491e+07
2.48369e+07
5.69922e+07
5.11455e+07
6.31765e+07
6.3627e+07
3.95316e+07
-4.17825e+07
5.03581e+07
7.35139e+07
7.1697e+07
-4.01238e+07
5.31431e+07
5.19558e+07
4.71304e+07
7.28635e+07
5.712e+07
3.30169e+07
5.5032e+07
5.16946e+07
5.16197e+07
5.10311e+07
5.49817e+07
6.76638e+07
4.8772e+07
5.38448e+07
5.18168e+07
7.29407e+07
6.00775e+07
4.89091e+07
6.09786e+07
-4.37033e+07
5.84241e+07
3.25031e+07
5.54844e+07
7.40601e+07
4.79806e+07
5.0655e+07
4.70912e+07
6.22022e+07
5.75218e+07
2.36353e+07
5.39993e+07
4.47826e+07
5.05237e+07
6.27297e+07
5.13605e+07
5.14379e+07
3.69877e+07
3.73459e+07
4.30884e+07
7.45115e+07
5.20806e+07
2.81121e+07
5.26292e+07
5.43778e+07
5.42719e+07
9.16748e+07
4.14594e+07
5.44002e+07
5.21067e+07
5.22701e+07
5.25462e+07
3.97915e+07
-5.6198e+07
4.12947e+07
6.40018e+06
4.11159e+07
6.87623e+07
3.68482e+07
5.26191e+07
5.15665e+07
4.58866e+07
8.19789e+07
5.59208e+07
5.07598e+07
5.12367e+07
5.14773e+07
5.80508e+07
4.87601e+07
3.90967e+07
4.83698e+07
6.14509e+07
6.0808e+07
5.09151e+07
3.14617e+07
4.81617e+07
5.99758e+07
9.2025e+07
8.85362e+07
5.79173e+07
3.967e+07
4.32862e+07
7.35631e+07
6.23425e+07
5.01467e+07
5.64293e+07
4.36224e+07
5.06698e+07
4.63078e+07
4.64396e+07
4.5724e+07
4.58934e+07
3.24538e+07
4.59997e+07
6.98732e+07
9.81177e+07
5.15468e+07
6.84658e+07
3.83374e+07
-6.36655e+07
5.60499e+07
3.83646e+07
1.12975e+08
1.15008e+08
2.01514e+07
5.73644e+07
5.37815e+07
5.13505e+07
4.74308e+07
6.97525e+07
6.01401e+07
5.12784e+07
1.32216e+07
4.95136e+07
9.80023e+07
5.64274e+07
5.15268e+07
3.7157e+07
4.84207e+07
5.09578e+07
4.97259e+07
2.62629e+07
8.19394e+07
9.58411e+07
9.82346e+07
6.14209e+07
3.49262e+07
8.86984e+07
8.78229e+07
2.9275e+07
3.18924e+07
5.22801e+07
3.86095e+07
6.7436e+07
3.64221e+07
-2.63357e+07
5.79025e+07
5.79834e+07
6.65594e+07
6.80364e+07
3.72049e+07
4.83404e+07
4.9312e+07
2.78251e+07
6.82813e+07
2.83508e+07
5.10962e+07
5.20022e+07
4.94919e+07
5.33085e+07
4.96556e+07
2.77953e+07
5.25202e+07
5.00791e+07
3.85732e+07
4.95383e+07
4.94142e+07
4.81536e+07
4.80741e+07
5.21563e+07
5.4566e+07
3.79616e+07
6.47939e+07
5.51131e+07
2.87759e+07
3.6844e+07
6.78981e+07
3.55763e+07
6.08967e+07
2.77507e+07
7.10961e+07
5.00593e+07
5.01364e+07
6.10301e+07
3.81552e+07
3.88416e+07
4.28474e+07
7.60405e+07
4.98148e+07
5.46558e+07
6.14723e+07
7.58163e+07
-6.17757e+06
5.91146e+07
3.11177e+07
4.53104e+07
6.14184e+07
4.95114e+07
5.48524e+07
5.37951e+07
4.80509e+07
4.46553e+07
4.27236e+07
5.84377e+07
4.83619e+07
9.75804e+07
6.49068e+07
7.29378e+07
-7.62973e+07
7.46595e+07
4.94066e+07
1.14401e+08
4.75773e+07
6.75381e+07
4.02651e+07
6.33884e+07
5.53533e+07
4.68444e+07
4.67364e+07
5.18373e+07
5.95156e+07
5.22847e+07
5.6213e+07
3.99956e+07
4.03541e+07
6.58444e+07
1.74799e+07
4.01823e+07
6.68101e+07
5.13915e+07
5.69921e+07
5.9286e+07
6.0307e+07
8.14884e+06
2.47779e+07
3.50914e+07
2.65918e+07
5.078e+07
1.68353e+06
5.87407e+07
8.12401e+07
6.79374e+07
1.49723e+08
4.46809e+07
4.73075e+07
6.0785e+07
6.0279e+07
6.78621e+07
5.3645e+07
4.11442e+07
4.1385e+07
7.02005e+07
5.06529e+07
6.07094e+07
5.33306e+07
5.32176e+07
5.18674e+07
6.01895e+07
2.36957e+07
2.67842e+07
4.75716e+07
6.33932e+07
2.35028e+07
6.49615e+07
4.89405e+07
4.93558e+06
4.79576e+07
9.03974e+07
5.13583e+06
6.03556e+07
7.32664e+07
2.52039e+07
4.8485e+07
4.882e+07
4.87533e+07
5.40409e+07
5.12553e+07
5.72532e+07
5.71e+07
6.03748e+07
1.40567e+07
5.49118e+07
8.29413e+07
4.59131e+07
6.29048e+07
4.55716e+07
4.11354e+07
4.70308e+07
5.58246e+07
5.75263e+07
7.55676e+07
4.88959e+07
1.64704e+08
6.13168e+07
1.63631e+08
4.70457e+07
6.83032e+07
5.44198e+07
5.50351e+07
4.68791e+07
5.74906e+07
5.37345e+07
4.73553e+07
2.76153e+07
1.55791e+07
4.0882e+07
5.33996e+07
1.45685e+07
7.63992e+07
5.72983e+07
5.70704e+07
4.94348e+07
6.13867e+07
6.97263e+07
9.13704e+06
8.96029e+06
4.74827e+07
4.75383e+07
6.5771e+07
6.79282e+07
4.65981e+07
6.18276e+07
3.47385e+07
6.40898e+07
7.18313e+07
3.76073e+07
5.06814e+07
5.14997e+07
1.10801e+08
5.68623e+07
4.81716e+07
-1.45768e+06
4.63019e+07
6.19949e+07
-1.43207e+07
5.67058e+07
5.43493e+07
3.95121e+07
5.24355e+07
4.66564e+07
6.37165e+07
6.26547e+07
4.5675e+07
1.42365e+07
3.85703e+07
3.50449e+07
5.14923e+07
4.84739e+07
7.41445e+07
2.0268e+07
5.0583e+07
5.0401e+07
-8.36968e+06
4.94705e+07
4.88381e+07
4.16245e+07
-7.73338e+06
5.60984e+07
4.92459e+07
6.31023e+07
8.63364e+07
5.80589e+07
5.82845e+07
8.50323e+07
6.30716e+07
5.39248e+07
5.03799e+07
5.64374e+07
3.52727e+07
1.25966e+08
4.94337e+07
4.68868e+07
8.65548e+07
5.48851e+07
5.24377e+07
6.15261e+07
5.18725e+07
5.3597e+07
7.53899e+07
5.23988e+07
4.7567e+07
5.61333e+06
5.30338e+07
3.66886e+07
5.16541e+07
4.85698e+07
4.40205e+07
5.34655e+07
6.76369e+07
5.98469e+07
5.68619e+07
5.71014e+07
6.13793e+07
6.11794e+07
6.19057e+07
2.82284e+07
5.38764e+07
2.86421e+07
5.01922e+07
5.1171e+07
6.85296e+07
7.1675e+07
5.06943e+07
3.1106e+07
4.41629e+07
5.64531e+07
5.34884e+07
7.89152e+07
5.28604e+07
5.28074e+07
2.95768e+07
3.0342e+07
3.83084e+07
3.84247e+07
5.96051e+07
4.79008e+07
5.91959e+07
5.94084e+07
-3.73993e+06
4.03808e+07
4.05391e+07
5.28482e+07
7.01285e+07
6.76304e+07
5.8683e+07
5.59268e+07
6.65453e+07
5.22808e+07
3.49831e+07
2.25284e+07
5.05603e+07
5.65597e+07
1.3075e+07
5.09269e+07
6.08356e+07
7.28883e+07
4.26151e+07
1.07116e+07
5.61444e+07
1.03682e+07
5.74215e+07
5.40663e+07
5.39214e+07
5.56137e+07
4.74487e+07
3.32197e+07
4.88043e+06
6.708e+07
5.31229e+07
5.66411e+07
7.55684e+07
7.61734e+07
2.12562e+07
5.01592e+07
4.00258e+07
4.00465e+07
-2.7553e+07
7.40567e+07
8.79021e+07
5.3216e+07
1.00817e+08
5.69803e+07
7.97975e+07
5.82413e+07
6.72355e+07
1.03865e+07
5.00523e+07
4.99899e+07
5.2012e+07
6.20601e+07
6.17289e+07
1.38991e+08
1.71405e+07
5.35487e+07
5.49318e+07
4.92397e+07
5.16064e+07
8.19143e+07
8.58815e+06
4.71646e+07
4.70048e+07
5.0226e+07
4.53631e+07
3.49031e+07
4.26313e+07
6.65446e+07
6.6729e+07
5.04591e+07
9.4262e+07
9.20692e+07
7.5483e+07
8.0083e+07
5.96638e+07
4.56331e+07
5.07121e+07
5.05617e+07
1.07501e+08
2.62621e+07
8.17251e+07
-3.52411e+07
5.94047e+07
4.61525e+07
5.84775e+07
1.19798e+08
3.03478e+07
4.06135e+07
1.00662e+07
5.4191e+07
4.92317e+06
7.03849e+07
5.46457e+07
5.32532e+07
5.3177e+07
4.83315e+07
1.93889e+07
-2.71971e+07
4.15798e+07
6.0528e+07
5.64453e+07
4.99445e+07
1.07651e+08
7.34628e+07
4.50563e+07
4.45396e+07
7.2689e+07
1.46829e+07
4.62554e+07
5.98951e+07
5.52416e+07
3.63569e+07
5.50678e+07
2.80015e+07
1.66129e+08
5.40723e+07
4.74229e+07
4.58342e+07
5.48573e+07
6.04143e+07
6.05377e+07
5.4381e+07
4.79904e+07
4.99923e+07
4.73091e+07
3.07452e+07
4.04675e+07
4.39789e+07
5.26417e+07
5.0402e+07
6.79837e+07
4.45708e+07
4.95958e+07
4.95957e+07
1.84032e+07
4.62941e+07
5.96293e+07
4.53801e+07
7.34767e+07
4.77552e+07
4.5312e+07
1.03671e+08
7.01463e+07
5.13423e+07
5.01667e+07
4.70911e+07
5.29463e+07
6.3353e+07
7.36652e+07
3.16054e+07
7.39437e+07
5.1296e+07
5.27847e+07
5.27085e+07
3.33877e+07
3.46836e+07
4.2209e+07
4.83766e+07
5.51256e+07
5.51965e+07
1.20934e+08
4.18044e+07
1.21224e+08
2.24572e+07
3.87381e+07
4.72108e+07
7.40823e+07
7.41103e+07
6.80441e+07
3.78518e+07
4.9557e+07
6.59289e+07
9.42116e+07
4.78906e+07
4.77504e+07
3.82138e+07
5.76726e+07
4.68769e+07
6.41106e+07
4.6258e+07
6.20971e+07
4.91723e+07
4.88697e+07
5.51622e+07
1.37266e+07
5.50671e+07
1.03372e+08
5.02501e+07
5.01286e+07
4.62906e+07
5.32299e+07
-7.37354e+06
4.73509e+07
-1.26522e+07
2.67257e+07
7.94405e+07
7.45526e+07
6.95676e+07
4.83828e+07
1.6481e+08
5.2322e+07
7.0921e+07
-3.26266e+07
6.16958e+07
6.244e+07
5.33351e+07
5.38029e+07
1.27367e+07
6.23511e+07
4.81191e+07
4.81183e+07
1.02972e+08
7.16545e+07
5.76416e+07
7.41532e+07
5.28681e+07
5.78826e+07
7.58112e+07
8.29596e+07
5.28282e+07
5.28064e+07
6.52633e+07
3.92743e+07
5.11589e+07
5.12375e+07
1.41024e+08
5.65742e+07
2.97575e+07
5.8176e+07
4.92999e+07
4.94626e+07
4.51686e+07
4.53175e+07
3.06899e+07
4.95482e+07
5.90094e+07
4.8471e+07
5.01031e+07
8.91325e+07
4.92268e+07
6.51635e+07
4.19497e+07
4.43844e+07
1.66108e+08
3.76933e+07
4.82595e+07
2.46117e+07
7.25216e+07
5.50913e+07
2.4889e+07
4.47772e+07
5.22353e+07
4.97351e+07
4.97442e+07
7.25093e+07
5.78545e+07
8.06375e+07
5.81986e+07
4.63275e+07
3.40878e+07
4.8172e+07
5.09166e+07
1.42208e+08
2.05267e+06
7.39518e+07
1.4107e+08
4.75135e+07
5.66323e+07
5.12068e+07
8.44145e+07
2.65777e+07
5.53978e+07
3.90819e+07
8.05809e+07
5.54889e+07
5.15889e+07
-3.52849e+07
5.13276e+07
6.96603e+07
7.02779e+07
4.66887e+07
5.69193e+07
7.15203e+07
6.07912e+07
5.90529e+07
4.61402e+07
2.6537e+07
1.24847e+07
8.03823e+07
5.24292e+07
4.93178e+07
-6.06073e+07
7.42815e+07
5.51824e+07
6.90028e+07
-9.51139e+06
6.82436e+07
6.24058e+07
3.48169e+07
3.90816e+07
3.91461e+07
5.08275e+07
9.56851e+07
4.58539e+07
1.26562e+08
4.89611e+07
4.94315e+07
4.42848e+07
7.2322e+07
8.24746e+07
4.36554e+07
5.3405e+07
5.33176e+07
1.42175e+08
3.38863e+06
2.82124e+06
5.36574e+07
5.579e+07
4.90902e+07
5.19252e+07
7.96712e+07
6.47392e+07
3.67259e+07
7.69511e+07
7.98952e+07
4.92234e+07
6.26565e+07
4.14344e+07
5.32111e+07
1.0741e+08
6.82558e+07
6.76271e+07
9.05422e+07
6.47954e+07
3.92547e+07
6.52079e+07
5.14743e+07
4.74168e+07
-4.10386e+07
7.62981e+07
8.89417e+06
5.60946e+07
7.56341e+07
7.61815e+07
2.67687e+07
5.33411e+07
4.82932e+07
5.30579e+07
5.37704e+07
7.79144e+07
7.8392e+07
7.10663e+07
7.35568e+07
5.3827e+07
8.01454e+07
4.0959e+07
3.66964e+07
2.57468e+06
4.94934e+07
-4.01119e+06
2.42119e+07
3.59167e+07
3.59871e+07
8.86847e+07
4.73044e+07
2.93237e+07
7.07283e+07
2.97629e+07
5.16672e+07
5.76792e+07
4.81572e+07
5.01432e+07
5.09537e+07
4.61152e+07
4.64617e+07
7.11838e+07
5.47366e+07
7.3829e+06
5.45203e+06
7.24148e+07
-2.15894e+07
4.96312e+07
-4.583e+06
5.24462e+07
5.21848e+07
5.10529e+07
1.08752e+08
2.86679e+07
8.76956e+07
5.77773e+07
3.72254e+07
6.14296e+07
-1.60635e+07
4.06413e+07
5.58555e+07
4.04594e+07
7.61721e+07
4.53008e+07
5.11775e+07
4.95467e+07
2.82346e+07
3.48494e+06
5.85896e+07
5.05387e+07
5.8155e+07
4.81718e+07
4.83112e+07
5.34843e+07
5.57771e+07
3.5279e+07
5.11892e+07
6.0036e+07
5.43774e+07
5.07662e+07
8.84544e+07
8.96917e+07
5.15628e+07
5.54144e+07
4.47402e+07
5.29052e+07
4.27978e+07
7.54309e+07
6.31151e+07
5.91448e+07
4.82221e+07
6.28201e+07
4.9306e+07
-2.65819e+07
6.84596e+07
5.36247e+07
5.75318e+07
5.74221e+07
6.03003e+07
2.66117e+07
4.21132e+07
4.82299e+07
4.16143e+07
1.79848e+07
4.86195e+07
-1.45787e+07
5.63888e+07
5.58625e+07
3.67942e+07
5.21791e+07
5.21524e+07
5.22094e+07
4.13305e+07
5.28066e+07
5.26994e+07
3.74017e+07
7.37233e+07
6.5796e+07
5.17141e+07
6.14826e+07
2.90179e+07
8.22583e+07
8.71246e+07
5.33991e+07
5.35715e+07
3.37903e+07
5.01579e+07
5.32386e+07
8.27436e+07
8.80939e+07
5.31058e+07
5.80658e+07
4.88891e+07
4.89948e+07
7.88134e+07
3.34588e+07
5.46504e+07
-2.86384e+07
5.17755e+07
4.08075e+07
5.44748e+07
4.94576e+07
1.63773e+08
6.00692e+07
5.04432e+07
5.0295e+07
5.14538e+07
5.46738e+07
5.46233e+07
1.07308e+07
7.90733e+06
6.09484e+06
5.74784e+07
5.74551e+07
4.70616e+07
4.03499e+07
4.06751e+07
5.44153e+07
5.33856e+07
2.29957e+07
5.87846e+07
2.32067e+07
4.67291e+07
4.6992e+07
5.76332e+07
7.60976e+07
5.52703e+07
4.25244e+07
6.2861e+07
6.24654e+07
5.11112e+07
5.98604e+07
5.98689e+07
4.73494e+07
4.73101e+07
6.91984e+07
1.11288e+08
5.17387e+07
5.02936e+07
5.23181e+07
2.78496e+07
8.38316e+07
5.00705e+07
5.11081e+07
5.10609e+07
5.59974e+07
4.68709e+07
9.31147e+07
5.13642e+07
6.68866e+07
1.06231e+07
5.27806e+07
1.13606e+07
9.42877e+07
4.59918e+07
7.5097e+07
5.59764e+07
5.79666e+07
5.82786e+07
4.66777e+07
2.60756e+07
5.0398e+07
5.5651e+07
7.59588e+07
4.98458e+07
4.90617e+07
4.32668e+07
5.3465e+07
4.83803e+07
6.24173e+07
7.48935e+07
5.16254e+07
5.15262e+07
4.56571e+07
6.56647e+07
7.59707e+07
7.58464e+07
4.79851e+07
5.9444e+07
6.8068e+07
5.17995e+07
1.07043e+07
5.15085e+07
5.14776e+07
5.69219e+07
5.43526e+07
3.19225e+07
4.53173e+07
5.05544e+07
2.24615e+07
8.94541e+07
1.53276e+07
5.10702e+07
1.20907e+08
2.98512e+07
4.80606e+07
5.57502e+07
5.09209e+07
4.54475e+07
5.06738e+07
-1.98847e+07
2.23822e+07
5.17777e+07