/*--------------------------------*- C++ -*----------------------------------*\
| =========                 |                                                 |
| \\      /  F ield         | OpenFOAM: The Open Source CFD Toolbox           |
|  \\    /   O peration     | Version:  v2012                                 |
|   \\  /    A nd           | Website:  www.openfoam.com                      |
|    \\/     M anipulation  |                                                 |
\*---------------------------------------------------------------------------*/
FoamFile
{
    version     2.0;
    format      ascii;
    class       volSymmTensorField;
    location    "20";
    object      sigma;
}
// * * * * * * * * * * * * * * * * * * * * * * * * * * * * * * * * * * * * * //

dimensions      [1 -1 -2 0 0 0 0];


internalField   nonuniform List<symmTensor> 
8000
(
(-2.62235e+08 -185987 -4.12808e-08 122087 6.09434e-08 -4.48842e+07)
(-2.5165e+08 1.76819e+07 -1.87492e-07 4.58718e+06 2.35533e-07 -2.93605e+07)
(-2.58339e+08 -6.3032e+06 -6.91682e-08 -6.7093e+06 1.8557e-07 -2.55585e+07)
(-2.24572e+08 1.51088e+07 -6.96928e-08 -4.56594e+06 3.14457e-07 -1.51532e+07)
(-2.1827e+08 -9.34504e+06 3.77516e-09 -1.0084e+07 2.4715e-07 -8.31539e+06)
(-1.86743e+08 9.6778e+06 2.04142e-08 -8.2408e+06 1.6561e-07 -3.38097e+06)
(-1.76932e+08 -1.0062e+07 1.38659e-08 -9.79078e+06 2.26722e-07 6.37302e+06)
(-1.53878e+08 6.02498e+06 2.22663e-08 -1.08206e+07 2.0253e-08 7.01103e+06)
(-1.40325e+08 -1.01777e+07 7.15531e-09 -7.40078e+06 7.39135e-08 1.98401e+07)
(-1.24463e+08 3.18191e+06 4.60094e-08 -1.17589e+07 -4.18779e-08 1.66365e+07)
(-1.0752e+08 -9.99887e+06 3.7009e-08 -3.6367e+06 -3.35321e-08 3.21265e+07)
(-9.77381e+07 798436 9.38118e-10 -1.11446e+07 7.33574e-09 2.56311e+07)
(-7.78942e+07 -9.6474e+06 -3.51555e-08 1.09768e+06 2.07594e-08 4.32473e+07)
(-7.32034e+07 -1.28417e+06 -6.60018e-08 -9.16099e+06 -4.24585e-08 3.40109e+07)
(-5.09931e+07 -9.16568e+06 -3.52683e-08 6.53667e+06 -4.62364e-08 5.3179e+07)
(-5.05215e+07 -3.15283e+06 7.43923e-09 -6.00982e+06 2.96432e-08 4.16872e+07)
(-2.6491e+07 -8.54289e+06 3.97156e-08 1.24719e+07 -4.44729e-08 6.18301e+07)
(-2.94564e+07 -4.84928e+06 6.77514e-08 -1.88319e+06 -3.15816e-09 4.85327e+07)
(-4.16709e+06 -7.75888e+06 2.48643e-08 1.8719e+07 -6.30137e-08 6.90936e+07)
(-9.91692e+06 -6.38766e+06 5.4824e-08 2.97245e+06 -3.35868e-08 5.43191e+07)
(1.6077e+07 -6.74805e+06 2.96695e-08 2.50765e+07 -1.50515e-07 7.47358e+07)
(8.10947e+06 -7.75724e+06 6.48718e-08 8.3102e+06 -1.13631e-07 5.87704e+07)
(3.42331e+07 -5.44966e+06 2.7729e-08 3.13178e+07 -2.22789e-07 7.85267e+07)
(2.45041e+07 -8.90215e+06 9.02418e-08 1.38054e+07 -2.03779e-07 6.16028e+07)
(5.02111e+07 -3.84523e+06 6.24945e-08 3.71924e+07 -2.43532e-07 8.02993e+07)
(3.90518e+07 -9.71515e+06 6.31e-08 1.90624e+07 -2.30359e-07 6.25936e+07)
(6.38361e+07 -1.93316e+06 -9.20519e-09 4.24086e+07 -1.66451e-07 7.98739e+07)
(5.1549e+07 -1.00778e+07 -6.05682e-08 2.3714e+07 -8.46708e-10 6.16214e+07)
(7.49491e+07 205959 -4.54635e-08 4.66739e+07 -2.67504e-08 7.72789e+07)
(6.18966e+07 -9.88783e+06 -7.70973e-08 2.74738e+07 3.38308e-08 5.88382e+07)
(8.34926e+07 2.42839e+06 -2.29886e-08 4.97321e+07 -4.97552e-09 7.27651e+07)
(7.01611e+07 -9.09145e+06 -3.80508e-08 3.01887e+07 1.70838e-08 5.46349e+07)
(8.95779e+07 4.55718e+06 -1.30365e-08 5.13997e+07 1.05206e-08 6.67931e+07)
(7.65698e+07 -7.70119e+06 -1.59219e-08 3.18379e+07 1.06912e-08 4.95571e+07)
(9.34883e+07 6.42832e+06 -3.98683e-09 5.15843e+07 1.65924e-08 5.99469e+07)
(8.14764e+07 -5.78188e+06 -5.86857e-09 3.25119e+07 2.6243e-08 4.42118e+07)
(9.56396e+07 7.91734e+06 -6.13272e-09 5.02843e+07 3.83612e-08 5.28584e+07)
(8.52741e+07 -3.4478e+06 -1.21155e-08 3.23454e+07 1.93783e-08 3.91444e+07)
(9.64718e+07 8.97663e+06 -4.64603e-09 4.75688e+07 1.11315e-08 4.60413e+07)
(8.55478e+07 -638139 -5.47314e-09 3.22908e+07 0 3.53516e+07)
(-2.66792e+08 5.57012e+06 -2.16285e-07 -9.29523e+06 1.63999e-07 -4.19848e+07)
(-2.47379e+08 2.64269e+07 -2.07898e-07 3.85219e+06 2.82715e-07 -2.37011e+07)
(-2.53859e+08 1.82044e+06 -1.35845e-07 -1.01581e+07 2.60925e-07 -2.155e+07)
(-2.14629e+08 2.03337e+07 -1.06778e-07 -4.96894e+06 2.10846e-07 -1.20949e+07)
(-2.13987e+08 -4.19501e+06 -1.18145e-08 -1.22781e+07 2.16983e-07 -8.42425e+06)
(-1.78488e+08 1.27046e+07 -1.31604e-07 -6.60313e+06 1.23423e-07 142504)
(-1.76508e+08 -8.37227e+06 -7.93213e-08 -1.2014e+07 1.04307e-07 4.55461e+06)
(-1.46057e+08 6.40207e+06 -3.56917e-07 -7.09841e+06 6.0208e-08 1.1257e+07)
(-1.42285e+08 -1.14723e+07 -1.77929e-07 -1.00549e+07 1.91857e-08 1.6783e+07)
(-1.16755e+08 1.10369e+06 -3.00996e-07 -6.37166e+06 6.7831e-08 2.1453e+07)
(-1.11143e+08 -1.38244e+07 -8.47815e-08 -6.83071e+06 -2.75829e-08 2.8086e+07)
(-9.00482e+07 -3.43961e+06 -1.3132e-07 -4.45561e+06 7.58843e-08 3.08342e+07)
(-8.27867e+07 -1.55966e+07 -6.46751e-08 -2.67845e+06 -5.56669e-09 3.8334e+07)
(-6.55243e+07 -7.39054e+06 2.64028e-08 -1.45383e+06 -2.07918e-08 3.93768e+07)
(-5.69379e+07 -1.68624e+07 6.65741e-08 2.13479e+06 1.13923e-08 4.74213e+07)
(-4.29016e+07 -1.08355e+07 1.39443e-07 2.46994e+06 -2.57773e-08 4.69885e+07)
(-3.33851e+07 -1.76351e+07 1.12433e-07 7.37215e+06 -7.50617e-08 5.51846e+07)
(-2.20704e+07 -1.38127e+07 1.01409e-07 7.05501e+06 9.54968e-09 5.34013e+07)
(-1.19412e+07 -1.78652e+07 9.1287e-08 1.28557e+07 -6.98876e-08 6.14907e+07)
(-3.02102e+06 -1.62992e+07 1.1358e-07 1.19968e+07 -8.33365e-08 5.83478e+07)
(7.49893e+06 -1.74853e+07 9.5405e-08 1.84095e+07 -9.97399e-08 6.61864e+07)
(1.40474e+07 -1.81868e+07 7.28272e-08 1.68181e+07 -1.62352e-07 6.14466e+07)
(2.4983e+07 -1.6391e+07 1.04333e-07 2.38797e+07 -1.58335e-07 6.91127e+07)
(2.88843e+07 -1.93059e+07 2.13371e-08 2.10102e+07 -1.15088e-07 6.24274e+07)
(4.0497e+07 -1.4503e+07 2.68795e-08 2.91201e+07 -1.18554e-07 7.02221e+07)
(4.13068e+07 -1.94826e+07 -8.82617e-08 2.41452e+07 -6.52535e-08 6.12625e+07)
(5.39497e+07 -1.18145e+07 -8.59351e-08 3.39533e+07 -6.57829e-09 6.9561e+07)
(5.13126e+07 -1.86158e+07 -1.36771e-07 2.60037e+07 -2.21493e-08 5.82226e+07)
(6.5232e+07 -8.43041e+06 -1.32573e-07 3.81818e+07 6.10701e-08 6.73128e+07)
(5.91064e+07 -1.67187e+07 -1.02821e-07 2.66128e+07 3.26766e-09 5.38203e+07)
(7.4293e+07 -4.56236e+06 -5.60506e-08 4.16019e+07 3.10294e-08 6.37954e+07)
(6.50401e+07 -1.39186e+07 -4.452e-08 2.6191e+07 2.35738e-08 4.86661e+07)
(8.11988e+07 -472192 -3.58082e-08 4.40341e+07 2.379e-08 5.93959e+07)
(6.95519e+07 -1.0426e+07 -2.16674e-08 2.50745e+07 1.98135e-08 4.33606e+07)
(8.61578e+07 3.56724e+06 -1.75742e-08 4.53493e+07 1.41906e-08 5.45363e+07)
(7.30972e+07 -6.46616e+06 -1.09206e-08 2.36293e+07 4.99248e-09 3.84109e+07)
(8.9494e+07 7.33333e+06 -7.98586e-09 4.54984e+07 9.10614e-09 4.95971e+07)
(7.6082e+07 -2.2309e+06 9.3606e-10 2.21754e+07 2.58048e-08 3.42037e+07)
(9.07498e+07 1.09287e+07 -1.17223e-09 4.35331e+07 8.19788e-10 4.45207e+07)
(7.86272e+07 2.01161e+06 2.84651e-09 2.08398e+07 1.86739e-08 3.06454e+07)
(-2.66686e+08 1.42056e+07 -3.00328e-07 -1.28743e+07 8.3989e-08 -3.91416e+07)
(-2.39742e+08 3.49994e+07 -4.49126e-07 1.32408e+06 1.36876e-08 -1.99313e+07)
(-2.46083e+08 7.52239e+06 -2.52652e-07 -1.1853e+07 7.47392e-08 -2.01334e+07)
(-2.02757e+08 2.4443e+07 -4.61045e-07 -4.25947e+06 2.33654e-07 -8.11225e+06)
(-2.08511e+08 -789920 -4.28196e-07 -1.34699e+07 3.29036e-07 -8.07131e+06)
(-1.6772e+08 1.44847e+07 -5.12255e-07 -3.75236e+06 4.75908e-07 4.54259e+06)
(-1.73886e+08 -7.55708e+06 -4.83097e-07 -1.32732e+07 3.12076e-07 3.51207e+06)
(-1.35969e+08 5.96535e+06 -5.0301e-07 -2.23113e+06 3.71742e-07 1.61058e+07)
(-1.42133e+08 -1.30612e+07 -4.57895e-07 -1.16422e+07 2.7954e-08 1.43812e+07)
(-1.07078e+08 -1.38598e+06 -2.04326e-07 271925 -1.65354e-07 2.6637e+07)
(-1.13093e+08 -1.75242e+07 -9.10519e-08 -8.9201e+06 -2.20439e-07 2.43478e+07)
(-8.06636e+07 -7.77355e+06 2.49535e-08 3.68959e+06 -3.08816e-07 3.61328e+07)
(-8.65686e+07 -2.10796e+07 8.94444e-08 -5.40896e+06 9.59692e-09 3.32409e+07)
(-5.64793e+07 -1.33217e+07 1.21381e-07 7.84763e+06 -2.66785e-07 4.4433e+07)
(-6.23697e+07 -2.37736e+07 1.45913e-07 -1.37412e+06 -1.05677e-07 4.0894e+07)
(-3.44169e+07 -1.80807e+07 5.7085e-08 1.24664e+07 -8.79471e-08 5.12861e+07)
(-4.02872e+07 -2.55891e+07 8.45688e-08 2.99657e+06 -5.89307e-08 4.71688e+07)
(-1.45294e+07 -2.20177e+07 1.16157e-07 1.71405e+07 -9.25305e-08 5.63165e+07)
(-2.01753e+07 -2.64478e+07 1.32733e-07 7.51732e+06 -4.72037e-08 5.19212e+07)
(2.93682e+06 -2.49683e+07 1.11054e-07 2.126e+07 -8.52493e-08 5.91627e+07)
(-1.87523e+06 -2.62417e+07 7.88632e-08 1.2092e+07 -8.58177e-08 5.51377e+07)
(1.76847e+07 -2.66831e+07 5.41321e-08 2.41573e+07 -8.87615e-08 5.95974e+07)
(1.46678e+07 -2.48723e+07 -1.19422e-08 1.66089e+07 -5.90319e-08 5.68307e+07)
(2.96197e+07 -2.69735e+07 -2.0163e-08 2.54157e+07 -1.05266e-07 5.77865e+07)
(2.94198e+07 -2.23242e+07 -6.50874e-08 2.09437e+07 -7.10867e-09 5.71471e+07)
(3.89251e+07 -2.58074e+07 -6.14516e-08 2.50026e+07 -7.6614e-08 5.42535e+07)
(4.22902e+07 -1.8712e+07 -1.26161e-07 2.49566e+07 1.89772e-08 5.63327e+07)
(4.60054e+07 -2.3332e+07 -1.07064e-07 2.32334e+07 1.78976e-08 4.96971e+07)
(5.32027e+07 -1.42713e+07 -9.33778e-08 2.85043e+07 9.50616e-09 5.46871e+07)
(5.13745e+07 -1.98188e+07 -7.07674e-08 2.06241e+07 -1.09329e-08 4.47986e+07)
(6.21611e+07 -9.30999e+06 -5.62132e-08 3.14623e+07 -1.16906e-08 5.25079e+07)
(5.55372e+07 -1.5609e+07 -4.89312e-08 1.77162e+07 -2.15249e-08 4.00804e+07)
(6.9263e+07 -4.13895e+06 -2.07803e-08 3.3727e+07 4.22058e-09 5.00381e+07)
(5.89247e+07 -1.10302e+07 -1.01527e-08 1.49503e+07 7.27646e-09 3.58715e+07)
(7.4661e+07 988523 -8.29417e-09 3.51991e+07 -8.35018e-09 4.74383e+07)
(6.18653e+07 -6.31907e+06 1.27827e-09 1.26212e+07 -3.03726e-08 3.23089e+07)
(7.84519e+07 5.97675e+06 8.69264e-09 3.57403e+07 -1.38409e-08 4.47274e+07)
(6.44812e+07 -1.67209e+06 2.70452e-09 1.07985e+07 -1.72108e-08 2.92475e+07)
(8.10586e+07 1.05367e+07 -4.71331e-09 3.56103e+07 -1.09578e-08 4.19134e+07)
(6.69407e+07 2.83695e+06 -1.7542e-08 9.53573e+06 5.94974e-09 2.6685e+07)
(-2.63648e+08 2.31767e+07 -9.30771e-07 -1.4236e+07 1.62045e-07 -3.51022e+07)
(-2.25458e+08 4.12655e+07 -1.11849e-06 -3.93339e+06 6.65118e-07 -1.70571e+07)
(-2.36378e+08 1.2275e+07 -7.52282e-07 -1.33476e+07 6.13783e-07 -1.8649e+07)
(-1.88508e+08 2.72369e+07 -9.21605e-07 -2.33602e+06 7.74942e-07 -3.20025e+06)
(-2.01675e+08 1.62247e+06 -6.78357e-07 -1.44524e+07 5.49825e-07 -7.74047e+06)
(-1.54736e+08 1.52397e+07 -3.81633e-07 304978 3.24912e-07 9.6038e+06)
(-1.69875e+08 -7.31458e+06 -2.08305e-07 -1.41741e+07 1.77906e-07 2.43955e+06)
(-1.23843e+08 4.8356e+06 8.58895e-08 3.88316e+06 -4.58194e-07 2.12993e+07)
(-1.40746e+08 -1.47778e+07 -2.62558e-08 -1.27859e+07 -3.32944e-07 1.17537e+07)
(-9.55965e+07 -4.2316e+06 1.44357e-07 8.25872e+06 -6.67607e-07 3.17552e+07)
(-1.14117e+08 -2.09253e+07 7.5095e-08 -1.05705e+07 -4.32582e-07 2.00215e+07)
(-6.98611e+07 -1.21199e+07 1.33064e-07 1.31706e+07 -4.17446e-07 4.07161e+07)
(-8.97842e+07 -2.58279e+07 9.66734e-08 -7.76895e+06 -3.0974e-07 2.70756e+07)
(-4.66299e+07 -1.88911e+07 1.21551e-07 1.82323e+07 -3.0253e-07 4.78243e+07)
(-6.75278e+07 -2.94881e+07 7.82907e-08 -4.5749e+06 -2.66129e-07 3.27954e+07)
(-2.60461e+07 -2.44885e+07 1.14858e-07 2.29022e+07 -2.44813e-07 5.26307e+07)
(-4.71418e+07 -3.18269e+07 1.45832e-07 -1.15236e+06 -2.1689e-07 3.70766e+07)
(-8.46695e+06 -2.86515e+07 1.6651e-07 2.63351e+07 -2.363e-07 5.47522e+07)
(-2.84347e+07 -3.27336e+07 1.22266e-07 2.39406e+06 -1.78572e-07 3.998e+07)
(5.82708e+06 -3.1047e+07 6.75773e-08 2.77318e+07 -6.59972e-08 5.41549e+07)
(-1.13112e+07 -3.21201e+07 6.27067e-08 5.96423e+06 -6.48676e-08 4.16523e+07)
(1.69518e+07 -3.15405e+07 7.76241e-08 2.68447e+07 -7.50116e-08 5.13813e+07)
(4.18777e+06 -3.00331e+07 6.26335e-08 9.43064e+06 -1.19236e-07 4.23632e+07)
(2.53948e+07 -3.02744e+07 1.49093e-08 2.40407e+07 -1.22543e-08 4.73187e+07)
(1.79618e+07 -2.66743e+07 -5.79017e-08 1.26699e+07 3.52881e-08 4.24344e+07)
(3.18101e+07 -2.761e+07 -4.56646e-08 2.00563e+07 3.27429e-08 4.28416e+07)
(2.99414e+07 -2.23541e+07 -4.23357e-08 1.55898e+07 -1.95967e-08 4.21575e+07)
(3.68307e+07 -2.39807e+07 3.84793e-09 1.56744e+07 -1.82331e-08 3.85803e+07)
(4.01369e+07 -1.74291e+07 -5.87435e-08 1.8133e+07 -1.76697e-08 4.17427e+07)
(4.09536e+07 -1.98102e+07 4.20709e-09 1.14991e+07 -1.72339e-08 3.4884e+07)
(4.86456e+07 -1.22092e+07 -5.29742e-09 2.02776e+07 -4.52021e-08 4.12838e+07)
(4.4537e+07 -1.53985e+07 3.46968e-08 7.91936e+06 -4.11107e-08 3.18073e+07)
(5.55933e+07 -6.92233e+06 -1.57169e-09 2.20043e+07 -2.15317e-08 4.07464e+07)
(4.77812e+07 -1.09579e+07 -5.40846e-10 5.07779e+06 -1.42911e-08 2.92831e+07)
(6.11283e+07 -1.73889e+06 -2.51679e-10 2.33001e+07 -1.62208e-08 4.00586e+07)
(5.07211e+07 -6.56973e+06 -6.65528e-10 2.90372e+06 -1.71406e-08 2.71178e+07)
(6.55019e+07 3.22648e+06 -2.06128e-11 2.42845e+07 -1.30873e-08 3.91494e+07)
(5.34272e+07 -2.29518e+06 -1.09021e-08 1.35186e+06 1.43907e-09 2.5188e+07)
(6.87737e+07 7.96922e+06 -2.17455e-08 2.4852e+07 -2.2523e-09 3.79487e+07)
(5.59001e+07 1.81389e+06 -4.37047e-09 278945 -1.566e-08 2.33969e+07)
(-2.56604e+08 3.1426e+07 -1.46637e-06 -1.28488e+07 1.0819e-06 -2.73776e+07)
(-2.07173e+08 4.44652e+07 -8.01092e-07 -3.96975e+06 1.03498e-06 -1.16564e+07)
(-2.24318e+08 1.64564e+07 -5.71608e-07 -1.46058e+07 6.89688e-07 -1.70249e+07)
(-1.72327e+08 2.87772e+07 -1.58036e-07 -262191 -7.83226e-08 1.92373e+06)
(-1.93147e+08 3.60166e+06 -2.01588e-07 -1.53284e+07 -1.54409e-07 -7.62604e+06)
(-1.39975e+08 1.4987e+07 5.01095e-07 4.79012e+06 -4.61815e-07 1.45696e+07)
(-1.64517e+08 -7.26343e+06 4.90093e-07 -1.50256e+07 -5.43699e-07 834210)
(-1.10188e+08 2.9624e+06 5.90975e-07 1.0675e+07 -3.25473e-07 2.5868e+07)
(-1.3832e+08 -1.63345e+07 2.77129e-07 -1.39239e+07 -5.09071e-07 8.18781e+06)
(-8.30392e+07 -7.46819e+06 2.35917e-07 1.69281e+07 -2.12533e-07 3.53624e+07)
(-1.14338e+08 -2.37261e+07 1.65802e-07 -1.22272e+07 -4.27946e-07 1.42851e+07)
(-5.87279e+07 -1.63956e+07 1.39415e-07 2.29669e+07 -3.57169e-07 4.25094e+07)
(-9.23137e+07 -2.94608e+07 1.25965e-07 -1.01007e+07 -4.05744e-07 1.90322e+07)
(-3.75736e+07 -2.37467e+07 3.44235e-08 2.80294e+07 -4.24186e-07 4.67614e+07)
(-7.19991e+07 -3.34753e+07 1.08309e-07 -7.69144e+06 -2.61265e-07 2.24025e+07)
(-2.01254e+07 -2.91135e+07 3.51166e-08 3.08716e+07 -2.32342e-07 4.77391e+07)
(-5.31714e+07 -3.56438e+07 9.65086e-08 -5.11326e+06 -1.92848e-07 2.45606e+07)
(-6.5836e+06 -3.21123e+07 -1.1699e-08 3.05987e+07 -1.82612e-07 4.58054e+07)
(-3.57616e+07 -3.59336e+07 4.54133e-09 -2.49546e+06 -7.26332e-08 2.58429e+07)
(3.55992e+06 -3.28015e+07 4.14651e-08 2.74389e+07 -1.16941e-07 4.20807e+07)
(-1.98637e+07 -3.45187e+07 7.99758e-08 18632.5 -8.0778e-08 2.66703e+07)
(1.11923e+07 -3.16256e+07 6.68184e-09 2.2418e+07 -2.79518e-08 3.78151e+07)
(-5.61648e+06 -3.17448e+07 -6.37961e-09 2.31455e+06 5.27394e-09 2.73954e+07)
(1.72067e+07 -2.91904e+07 -8.66051e-08 1.67508e+07 7.07729e-08 3.39056e+07)
(6.9179e+06 -2.80189e+07 -1.82633e-08 4.34663e+06 1.95559e-08 2.82207e+07)
(2.22409e+07 -2.60245e+07 1.12488e-08 1.13203e+07 1.17448e-08 3.07308e+07)
(1.77808e+07 -2.37146e+07 8.62306e-09 6.12476e+06 2.29432e-09 2.91968e+07)
(2.66952e+07 -2.2509e+07 -4.70251e-09 6.61521e+06 -4.69652e-09 2.83382e+07)
(2.7102e+07 -1.91074e+07 4.37265e-08 7.703e+06 -2.44994e-08 3.02571e+07)
(3.07647e+07 -1.88502e+07 2.68266e-08 2.79596e+06 -2.57811e-08 2.65413e+07)
(3.50029e+07 -1.43897e+07 3.37599e-08 9.09835e+06 -7.46135e-08 3.12422e+07)
(3.45211e+07 -1.51518e+07 1.2911e-09 -175470 -1.43254e-08 2.51332e+07)
(4.16414e+07 -9.6627e+06 -1.16938e-08 1.03524e+07 1.62266e-08 3.20196e+07)
(3.79021e+07 -1.14176e+07 -1.25816e-08 -2.50614e+06 3.58633e-08 2.39026e+07)
(4.72229e+07 -5.0199e+06 -3.18517e-09 1.15447e+07 -1.12456e-08 3.25402e+07)
(4.09473e+07 -7.68982e+06 9.42873e-10 -4.2707e+06 1.5703e-08 2.27201e+07)
(5.18433e+07 -477372 -7.54022e-11 1.26426e+07 8.71138e-09 3.27267e+07)
(4.3685e+07 -4.00026e+06 4.61683e-10 -5.58214e+06 1.87223e-08 2.15786e+07)
(5.57941e+07 3.82823e+06 4.22525e-09 1.3793e+07 1.54882e-08 3.26324e+07)
(4.61709e+07 -374616 6.99877e-09 -6.48211e+06 7.32655e-09 2.03937e+07)
(-2.42245e+08 3.65432e+07 -4.5367e-07 -1.597e+07 5.73237e-08 -2.52754e+07)
(-1.87545e+08 4.65248e+07 1.56545e-07 -4.61912e+06 -9.31525e-07 -6.54517e+06)
(-2.11186e+08 1.94708e+07 1.52714e-07 -1.67213e+07 -5.14312e-07 -1.61329e+07)
(-1.54633e+08 2.87692e+07 2.65982e-07 2.06129e+06 -9.14583e-07 6.6616e+06)
(-1.83298e+08 4.82033e+06 5.90681e-07 -1.67847e+07 -5.7716e-07 -8.38603e+06)
(-1.24105e+08 1.33434e+07 5.14742e-07 9.74476e+06 -3.83757e-07 1.83972e+07)
(-1.57945e+08 -7.52163e+06 5.3185e-07 -1.6257e+07 -1.22335e-07 -2.00737e+06)
(-9.61324e+07 56394.4 2.54121e-07 1.77221e+07 -4.24838e-10 2.80035e+07)
(-1.34734e+08 -1.7681e+07 2.79773e-07 -1.52533e+07 -3.08457e-08 2.92023e+06)
(-7.10872e+07 -1.11809e+07 2.36306e-07 2.51903e+07 -1.76354e-07 3.47544e+07)
(-1.13321e+08 -2.57014e+07 2.20623e-07 -1.3881e+07 -3.37741e-07 6.35545e+06)
(-4.95651e+07 -2.0294e+07 2.4155e-07 3.10638e+07 -2.59311e-07 3.79829e+07)
(-9.3418e+07 -3.15235e+07 1.30337e-07 -1.22683e+07 -2.88565e-07 8.38109e+06)
(-3.24291e+07 -2.66847e+07 1.23822e-07 3.34275e+07 -1.51787e-07 3.74378e+07)
(-7.47687e+07 -3.50294e+07 1.09569e-08 -1.05248e+07 -2.07723e-07 9.41749e+06)
(-1.97214e+07 -3.00268e+07 4.84375e-08 3.13989e+07 -8.82522e-08 3.41431e+07)
(-5.73611e+07 -3.6307e+07 -3.45847e-08 -8.79062e+06 -8.72824e-08 1.00915e+07)
(-1.03916e+07 -3.08193e+07 2.17065e-08 2.614e+07 -2.88654e-09 2.99249e+07)
(-4.14018e+07 -3.57412e+07 -1.95537e-09 -7.22476e+06 -1.26767e-07 1.09556e+07)
(-3.16506e+06 -2.99451e+07 1.99771e-08 1.95472e+07 -4.52122e-08 2.61885e+07)
(-2.7066e+07 -3.38504e+07 -4.06254e-08 -5.89945e+06 -1.80601e-08 1.22871e+07)
(2.93276e+06 -2.81894e+07 -5.27424e-08 1.31246e+07 4.713e-08 2.35108e+07)
(-1.43983e+07 -3.11068e+07 -6.18655e-08 -4.80463e+06 2.82283e-08 1.40831e+07)
(8.38366e+06 -2.60091e+07 8.34887e-09 7.53452e+06 1.11302e-08 2.18375e+07)
(-3.30724e+06 -2.78386e+07 -3.6455e-08 -3.85885e+06 -1.12221e-08 1.6155e+07)
(1.341e+07 -2.3617e+07 -9.07019e-09 2.96288e+06 1.18673e-08 2.08895e+07)
(6.35762e+06 -2.42572e+07 -1.92891e-08 -2.97801e+06 -4.08968e-09 1.83035e+07)
(1.80624e+07 -2.10763e+07 8.49716e-09 -674305 -2.09004e-08 2.03415e+07)
(1.47414e+07 -2.04803e+07 1.68383e-08 -2.1089e+06 -1.06354e-08 2.0315e+07)
(2.23296e+07 -1.83967e+07 1.56762e-08 -3.54058e+06 1.48426e-08 1.99393e+07)
(2.19881e+07 -1.65776e+07 -1.24429e-08 -1.21468e+06 8.17695e-09 2.20502e+07)
(2.6085e+07 -1.55232e+07 -1.94629e-09 -5.93611e+06 1.91443e-08 1.95256e+07)
(2.82939e+07 -1.2609e+07 -6.35729e-09 -220275 9.83011e-09 2.35197e+07)
(2.94362e+07 -1.25348e+07 1.08275e-08 -7.84483e+06 -3.6596e-09 1.9039e+07)
(3.3754e+07 -8.61997e+06 2.27067e-09 852270 2.77748e-08 2.46639e+07)
(3.23868e+07 -9.44112e+06 1.91251e-08 -9.38279e+06 8.49789e-09 1.8457e+07)
(3.85587e+07 -4.71198e+06 3.18994e-09 2.06359e+06 7.91375e-09 2.55287e+07)
(3.50332e+07 -6.3135e+06 8.20356e-09 -1.05633e+07 8.4604e-09 1.78287e+07)
(4.2732e+07 -860914 2.80221e-09 3.31443e+06 4.4564e-09 2.61065e+07)
(3.74595e+07 -3.19861e+06 1.27273e-08 -1.13942e+07 -4.73274e-09 1.71414e+07)
(-2.22963e+08 4.0466e+07 5.54862e-07 -1.96121e+07 -1.19781e-06 -2.31236e+07)
(-1.66022e+08 4.65698e+07 6.698e-07 -4.65501e+06 -5.22001e-07 -1.71372e+06)
(-1.95991e+08 2.14188e+07 2.88386e-07 -1.91798e+07 -6.4571e-07 -1.58642e+07)
(-1.35973e+08 2.69625e+07 3.9006e-07 5.14566e+06 -3.64358e-07 1.00157e+07)
(-1.71805e+08 5.34494e+06 2.69371e-07 -1.83975e+07 -4.60484e-07 -1.03578e+07)
(-1.08419e+08 1.02096e+07 1.87293e-07 1.50018e+07 -2.02595e-07 1.90657e+07)
(-1.49709e+08 -7.94895e+06 1.90096e-07 -1.73553e+07 -1.35839e-07 -6.65551e+06)
(-8.377e+07 -3.80046e+06 2.14008e-07 2.39755e+07 -1.64161e-07 2.45888e+07)
(-1.29256e+08 -1.85037e+07 3.11524e-07 -1.61826e+07 -1.54947e-07 -4.78806e+06)
(-6.26107e+07 -1.48707e+07 2.1793e-07 3.07893e+07 -7.01819e-08 2.60151e+07)
(-1.10117e+08 -2.62558e+07 2.31877e-07 -1.50174e+07 -5.88718e-08 -4.51444e+06)
(-4.62074e+07 -2.21019e+07 8.70645e-08 3.24361e+07 1.10444e-08 2.34369e+07)
(-9.19981e+07 -3.11205e+07 1.31473e-07 -1.39491e+07 5.88327e-09 -4.96906e+06)
(-3.42921e+07 -2.54672e+07 1.44992e-08 2.84319e+07 8.72496e-08 1.89666e+07)
(-7.49754e+07 -3.3435e+07 5.38179e-08 -1.30641e+07 6.11301e-08 -5.03918e+06)
(-2.51892e+07 -2.62782e+07 6.93819e-08 2.1623e+07 7.44232e-08 1.50854e+07)
(-5.93857e+07 -3.38991e+07 7.45651e-08 -1.24607e+07 2.26538e-08 -4.10293e+06)
(-1.75232e+07 -2.59244e+07 5.58698e-08 1.46759e+07 3.04997e-08 1.28379e+07)
(-4.54108e+07 -3.31822e+07 -3.50136e-08 -1.21108e+07 5.61228e-08 -2.15361e+06)
(-1.05834e+07 -2.51796e+07 -6.04959e-08 8.80852e+06 7.17697e-08 1.20694e+07)
(-3.30507e+07 -3.17294e+07 -2.97417e-08 -1.19296e+07 5.89586e-08 447023)
(-4.24402e+06 -2.42566e+07 -2.94022e-09 4.04885e+06 2.33645e-08 1.21992e+07)
(-2.21382e+07 -2.97713e+07 7.31357e-09 -1.17717e+07 2.20639e-08 3.33455e+06)
(1.53127e+06 -2.31773e+07 2.09741e-08 212073 2.79813e-09 1.27404e+07)
(-1.25087e+07 -2.74365e+07 -2.08423e-09 -1.15479e+07 5.68082e-09 6.2142e+06)
(6.74768e+06 -2.18825e+07 9.76035e-10 -2.92056e+06 1.06563e-08 1.33509e+07)
(-4.01418e+06 -2.47943e+07 1.97134e-08 -1.12102e+07 2.0129e-08 8.87722e+06)
(1.14071e+07 -2.03264e+07 1.62424e-08 -5.5265e+06 5.313e-09 1.38279e+07)
(3.46538e+06 -2.18853e+07 -5.6314e-09 -1.07488e+07 -1.04445e-09 1.12053e+07)
(1.53856e+07 -1.84094e+07 -1.06757e-08 -7.92323e+06 2.32535e-08 1.41073e+07)
(1.01363e+07 -1.87758e+07 1.28814e-09 -1.00794e+07 1.91121e-08 1.33012e+07)
(1.89248e+07 -1.62768e+07 2.39032e-09 -9.91357e+06 1.68237e-08 1.4213e+07)
(1.60392e+07 -1.55254e+07 1.8102e-08 -9.26209e+06 7.90243e-09 1.50643e+07)
(2.19894e+07 -1.39155e+07 -5.87942e-09 -1.16556e+07 9.62626e-09 1.41503e+07)
(2.13242e+07 -1.22182e+07 1.77844e-08 -8.26616e+06 -4.15291e-09 1.65781e+07)
(2.47349e+07 -1.1428e+07 -5.76848e-09 -1.30687e+07 1.11181e-08 1.39758e+07)
(2.6051e+07 -8.88158e+06 7.43406e-10 -7.14019e+06 6.17427e-09 1.78376e+07)
(2.72093e+07 -8.84986e+06 1.02959e-08 -1.41927e+07 1.01583e-09 1.37026e+07)
(3.03037e+07 -5.5784e+06 2.13311e-08 -5.9037e+06 -1.1163e-08 1.88362e+07)
(2.94737e+07 -6.2317e+06 2.8813e-08 -1.50476e+07 -1.29549e-08 1.33355e+07)
(-2.00359e+08 4.2938e+07 1.00345e-06 -2.32671e+07 -1.27681e-07 -2.11649e+07)
(-1.42993e+08 4.44092e+07 7.82486e-07 -3.46327e+06 -1.60219e-07 1.80547e+06)
(-1.7831e+08 2.24525e+07 5.06765e-07 -2.141e+07 -2.42968e-07 -1.65955e+07)
(-1.1732e+08 2.34948e+07 6.13365e-07 8.89286e+06 -2.62688e-07 9.89779e+06)
(-1.57961e+08 5.51396e+06 4.54111e-07 -1.94474e+07 -1.88942e-07 -1.41454e+07)
(-9.46559e+07 6.09199e+06 3.67223e-07 1.95868e+07 -2.03493e-08 1.34589e+07)
(-1.38913e+08 -7.96675e+06 2.58196e-07 -1.76339e+07 -4.31773e-08 -1.39715e+07)
(-7.57235e+07 -7.57742e+06 1.37831e-07 2.70254e+07 3.7755e-08 1.20285e+07)
(-1.20985e+08 -1.78433e+07 1.50436e-07 -1.64131e+07 -4.6436e-09 -1.5794e+07)
(-6.15203e+07 -1.58827e+07 1.26051e-07 2.67971e+07 4.00311e-08 6.65394e+06)
(-1.03802e+08 -2.41319e+07 4.27697e-08 -1.57753e+07 8.16869e-08 -1.79503e+07)
(-5.09744e+07 -1.93887e+07 -2.49915e-08 1.99419e+07 7.34264e-08 1.11161e+06)
(-8.7582e+07 -2.76272e+07 -7.35869e-08 -1.5614e+07 8.88582e-08 -1.86553e+07)
(-4.17193e+07 -2.06029e+07 -6.12279e-08 1.22171e+07 6.88852e-08 -1.75135e+06)
(-7.28527e+07 -2.94077e+07 5.51208e-08 -1.58972e+07 6.15846e-08 -1.75368e+07)
(-3.27269e+07 -2.11196e+07 7.30208e-08 6.39703e+06 2.94923e-08 -1.90813e+06)
(-5.97649e+07 -3.01678e+07 4.73179e-08 -1.64731e+07 5.7011e-08 -1.50997e+07)
(-2.41168e+07 -2.15095e+07 -1.69632e-08 2.49134e+06 8.0098e-08 -500115)
(-4.82107e+07 -3.02134e+07 -2.95498e-08 -1.71569e+07 6.5481e-08 -1.20493e+07)
(-1.62637e+07 -2.16967e+07 -7.10134e-09 -393965 6.99909e-08 1.52778e+06)
(-3.79143e+07 -2.96814e+07 1.1028e-08 -1.77248e+07 3.58418e-08 -8.75565e+06)
(-9.31417e+06 -2.16717e+07 8.68823e-09 -2.73196e+06 1.49406e-08 3.6068e+06)
(-2.86921e+07 -2.86585e+07 3.56241e-08 -1.80817e+07 1.51039e-09 -5.50392e+06)
(-3.3203e+06 -2.13972e+07 3.72584e-08 -4.83573e+06 1.50683e-08 5.39343e+06)
(-2.04274e+07 -2.71987e+07 4.11493e-08 -1.82194e+07 1.9343e-09 -2.49144e+06)
(1.81688e+06 -2.08081e+07 2.20694e-08 -6.803e+06 1.0117e-08 6.76219e+06)
(-1.30423e+07 -2.53377e+07 -1.24373e-08 -1.81731e+07 1.2593e-08 172378)
(5.97766e+06 -1.97912e+07 -1.36799e-08 -8.98936e+06 2.33421e-08 7.75257e+06)
(-6.31504e+06 -2.31657e+07 -1.48852e-08 -1.78417e+07 2.28103e-08 2.68694e+06)
(9.64778e+06 -1.85431e+07 1.86818e-08 -1.08781e+07 -3.65631e-09 8.4478e+06)
(-291807 -2.07471e+07 -1.83684e-09 -1.73513e+07 -2.3848e-08 4.85159e+06)
(1.27306e+07 -1.6979e+07 1.50647e-08 -1.27225e+07 -1.31778e-08 8.88601e+06)
(5.19277e+06 -1.81632e+07 -9.30099e-09 -1.66451e+07 1.92015e-09 6.81227e+06)
(1.54717e+07 -1.52299e+07 1.11404e-08 -1.43104e+07 1.11534e-09 9.13452e+06)
(1.01584e+07 -1.54645e+07 -6.25368e-09 -1.57942e+07 -5.5829e-09 8.51762e+06)
(1.79046e+07 -1.3309e+07 6.416e-09 -1.56896e+07 -1.67073e-09 9.22085e+06)
(1.46944e+07 -1.27078e+07 1.1436e-08 -1.47981e+07 -1.43992e-08 9.99174e+06)
(2.00987e+07 -1.12709e+07 3.76462e-09 -1.68602e+07 -8.11189e-10 9.1846e+06)
(1.88892e+07 -9.94714e+06 2.59441e-08 -1.36583e+07 -4.26153e-09 1.12671e+07)
(2.22028e+07 -9.19737e+06 2.46007e-08 -1.77207e+07 -9.85578e-10 9.02451e+06)
(-1.75576e+08 4.36194e+07 7.75986e-07 -2.69865e+07 -1.05507e-07 -2.05891e+07)
(-1.19468e+08 4.0139e+07 3.89667e-07 -794032 -5.56321e-08 1.76172e+06)
(-1.58185e+08 2.26772e+07 5.53192e-07 -2.32657e+07 -7.04541e-08 -1.95245e+07)
(-9.99907e+07 1.90808e+07 1.59881e-07 1.25511e+07 2.01158e-07 3.21956e+06)
(-1.41445e+08 6.02082e+06 2.91813e-07 -2.01197e+07 1.63881e-07 -2.12138e+07)
(-8.42422e+07 2.73348e+06 3.34395e-08 2.10782e+07 2.48094e-07 -1.20176e+06)
(-1.25385e+08 -6.17239e+06 2.06679e-07 -1.82461e+07 1.08767e-07 -2.5251e+07)
(-7.48414e+07 -7.11388e+06 -6.95815e-09 1.68591e+07 3.36289e-08 -9.93525e+06)
(-1.09559e+08 -1.40636e+07 4.1226e-08 -1.7558e+07 6.84146e-08 -2.87551e+07)
(-6.77023e+07 -1.16999e+07 -3.6935e-08 5.58846e+06 1.03715e-07 -1.64359e+07)
(-9.44563e+07 -1.9197e+07 -9.21393e-09 -1.75001e+07 8.82345e-08 -2.93574e+07)
(-5.93357e+07 -1.47428e+07 -7.98999e-08 -2.55531e+06 1.06629e-07 -1.8227e+07)
(-8.10048e+07 -2.28796e+07 -5.39349e-08 -1.80825e+07 6.77262e-08 -2.77593e+07)
(-4.98179e+07 -1.71908e+07 0 -6.19148e+06 5.25421e-08 -1.68028e+07)
(-6.93034e+07 -2.54855e+07 1.44714e-08 -1.92158e+07 4.19937e-08 -2.52014e+07)
(-3.96211e+07 -1.9175e+07 -6.23292e-09 -7.90082e+06 7.2679e-08 -1.41493e+07)
(-5.90335e+07 -2.72224e+07 -3.6754e-08 -2.05043e+07 7.62096e-08 -2.233e+07)
(-3.01589e+07 -2.03027e+07 -6.80546e-08 -8.48916e+06 9.3992e-08 -1.08704e+07)
(-4.97917e+07 -2.81346e+07 -3.27426e-08 -2.16656e+07 7.2979e-08 -1.92653e+07)
(-2.15061e+07 -2.08246e+07 1.37878e-08 -8.62857e+06 3.44274e-08 -7.51329e+06)
(-4.1415e+07 -2.83449e+07 2.04374e-08 -2.2588e+07 1.7514e-08 -1.6202e+07)
(-1.39003e+07 -2.08839e+07 -1.2064e-08 -8.72652e+06 1.7163e-08 -4.42829e+06)
(-3.37809e+07 -2.79715e+07 2.77297e-08 -2.32138e+07 3.31899e-09 -1.32663e+07)
(-7.56542e+06 -2.067e+07 1.77156e-08 -9.13649e+06 1.70177e-08 -1.93873e+06)
(-2.68856e+07 -2.70638e+07 6.02529e-09 -2.36399e+07 1.7998e-08 -1.06045e+07)
(-2.60348e+06 -2.00439e+07 -2.16157e-08 -1.02884e+07 6.04584e-09 121788)
(-2.04093e+07 -2.5793e+07 5.77215e-09 -2.36455e+07 6.31376e-09 -7.8461e+06)
(1.53884e+06 -1.94088e+07 1.29988e-08 -1.14688e+07 1.79083e-09 1.62179e+06)
(-1.45808e+07 -2.41924e+07 1.92227e-08 -2.35127e+07 -1.0261e-08 -5.4674e+06)
(4.80784e+06 -1.8476e+07 2.17833e-08 -1.30062e+07 -1.01073e-08 2.72838e+06)
(-9.17053e+06 -2.23552e+07 -1.05954e-08 -2.3119e+07 -2.87871e-09 -3.19394e+06)
(7.62319e+06 -1.73921e+07 4.52261e-09 -1.44615e+07 8.06538e-09 3.51964e+06)
(-4.22781e+06 -2.03336e+07 6.40077e-09 -2.25811e+07 -9.47018e-10 -1.1835e+06)
(1.00156e+07 -1.61184e+07 1.3977e-08 -1.58981e+07 -1.0716e-09 4.04442e+06)
(337230 -1.81858e+07 2.55595e-09 -2.18889e+07 3.29648e-09 618228)
(1.20803e+07 -1.47139e+07 2.75764e-09 -1.72832e+07 9.54877e-09 4.37307e+06)
(4.62792e+06 -1.59846e+07 1.1676e-08 -2.10169e+07 6.62743e-10 2.26862e+06)
(1.40084e+07 -1.32462e+07 2.02378e-08 -1.84469e+07 7.12003e-09 4.49632e+06)
(8.61772e+06 -1.37502e+07 1.15148e-08 -2.00471e+07 3.73734e-09 3.63941e+06)
(1.58129e+07 -1.16983e+07 7.77818e-09 -1.94409e+07 -1.12888e-09 4.46455e+06)
(-1.4954e+08 4.24558e+07 1.33171e-07 -3.06994e+07 3.59649e-07 -2.3082e+07)
(-9.75858e+07 3.43545e+07 2.7292e-08 2.54386e+06 4.74216e-07 -5.44851e+06)
(-1.36e+08 2.26357e+07 -3.49734e-08 -2.52325e+07 3.7741e-07 -2.65544e+07)
(-8.64516e+07 1.53516e+07 -1.4451e-07 1.24569e+07 3.67835e-07 -1.29318e+07)
(-1.22586e+08 8.17132e+06 -3.38435e-09 -2.21164e+07 2.54085e-07 -3.27909e+07)
(-8.09056e+07 5.32893e+06 7.13144e-08 2.69412e+06 1.18753e-07 -2.29464e+07)
(-1.07475e+08 -2.41703e+06 -2.26264e-09 -1.8357e+07 9.29068e-08 -3.52604e+07)
(-7.84138e+07 1.83793e+06 -3.50281e-08 -3.74224e+06 1.40112e-07 -2.46468e+07)
(-9.4631e+07 -8.9274e+06 -8.17322e-08 -1.50503e+07 1.43031e-07 -3.29044e+07)
(-7.07938e+07 -3.50893e+06 0 -5.04737e+06 1.22598e-07 -2.27524e+07)
(-8.49906e+07 -1.32686e+07 0 -1.35842e+07 1.05084e-07 -2.95724e+07)
(-6.23496e+07 -8.50884e+06 -3.50281e-08 -5.70495e+06 9.04892e-08 -2.04164e+07)
(-7.51734e+07 -1.71544e+07 -1.7514e-08 -1.41073e+07 7.58942e-08 -2.67842e+07)
(-5.39443e+07 -1.25524e+07 -1.1676e-08 -6.62602e+06 7.29751e-08 -1.81711e+07)
(-6.56949e+07 -2.02512e+07 -1.7514e-08 -1.52314e+07 7.58942e-08 -2.42779e+07)
(-4.56709e+07 -1.56976e+07 2.3352e-08 -7.78408e+06 6.42181e-08 -1.60365e+07)
(-5.66142e+07 -2.25404e+07 -3.50281e-08 -1.71264e+07 8.17322e-08 -2.21222e+07)
(-3.77658e+07 -1.79108e+07 -2.91901e-08 -9.19322e+06 6.12991e-08 -1.40877e+07)
(-4.81686e+07 -2.40944e+07 -2.3352e-08 -1.9379e+07 4.96231e-08 -2.02643e+07)
(-3.02186e+07 -1.93116e+07 1.1676e-08 -1.07017e+07 2.91901e-08 -1.22761e+07)
(-4.03359e+07 -2.50593e+07 4.08661e-08 -2.16884e+07 2.3352e-08 -1.86073e+07)
(-2.28285e+07 -2.0056e+07 -5.83801e-09 -1.21539e+07 2.0433e-08 -1.04947e+07)
(-3.31348e+07 -2.56698e+07 2.91628e-08 -2.34724e+07 1.15941e-08 -1.69294e+07)
(-1.49516e+07 -2.0391e+07 -1.1676e-08 -1.33834e+07 1.7514e-08 -8.50048e+06)