/*--------------------------------*- C++ -*----------------------------------*\
| =========                 |                                                 |
| \\      /  F ield         | OpenFOAM: The Open Source CFD Toolbox           |
|  \\    /   O peration     | Version:  v2012                                 |
|   \\  /    A nd           | Website:  www.openfoam.com                      |
|    \\/     M anipulation  |                                                 |
\*---------------------------------------------------------------------------*/
FoamFile
{
    version     2.0;
    format      ascii;
    class       volScalarField;
    location    "20";
    object      sigmaEq;
}
// * * * * * * * * * * * * * * * * * * * * * * * * * * * * * * * * * * * * * //

dimensions      [1 -1 -2 0 0 0 0];


internalField   nonuniform List<scalar> 
8000
(
2.43e+08
2.43e+08
2.43e+08
2.16496e+08
2.09701e+08
1.81756e+08
1.76643e+08
1.53111e+08
1.49475e+08
1.2938e+08
1.2683e+08
1.09715e+08
1.07819e+08
9.34613e+07
9.17635e+07
8.00574e+07
7.80796e+07
6.90124e+07
6.62937e+07
5.98902e+07
5.59514e+07
5.23156e+07
4.6783e+07
4.61024e+07
3.88697e+07
4.13222e+07
3.27293e+07
3.82268e+07
2.95113e+07
3.71794e+07
3.01724e+07
3.82909e+07
3.41927e+07
4.12338e+07
3.99928e+07
4.54073e+07
4.62064e+07
5.02342e+07
5.20603e+07
5.18063e+07
2.43e+08
2.43e+08
2.3823e+08
2.09176e+08
2.03792e+08
1.7673e+08
1.73978e+08
1.49399e+08
1.48825e+08
1.26625e+08
1.27733e+08
1.07831e+08
1.10066e+08
9.24774e+07
9.52295e+07
8.00786e+07
8.26371e+07
7.0132e+07
7.17199e+07
6.21855e+07
6.1969e+07
5.5815e+07
5.29465e+07
5.06894e+07
4.4522e+07
4.66255e+07
3.7074e+07
4.36213e+07
3.17104e+07
4.18396e+07
2.99696e+07
4.15021e+07
3.23566e+07
4.27248e+07
3.75899e+07
4.53849e+07
4.39707e+07
4.91643e+07
5.0419e+07
5.36752e+07
2.43e+08
2.38988e+08
2.3057e+08
2.01106e+08
1.97801e+08
1.70128e+08
1.70134e+08
1.44157e+08
1.47013e+08
1.22699e+08
1.2785e+08
1.0529e+08
1.12029e+08
9.14454e+07
9.88977e+07
8.06582e+07
8.77555e+07
7.2338e+07
7.78891e+07
6.58566e+07
6.86668e+07
6.05248e+07
5.96282e+07
5.57868e+07
5.07028e+07
5.13836e+07
4.23258e+07
4.74279e+07
3.54949e+07
4.4328e+07
3.16115e+07
4.26107e+07
3.16326e+07
4.26198e+07
3.50284e+07
4.43044e+07
4.03529e+07
4.73306e+07
4.63883e+07
5.1275e+07
2.43e+08
2.26818e+08
2.2145e+08
1.91639e+08
1.90688e+08
1.62057e+08
1.65125e+08
1.37521e+08
1.44122e+08
1.17609e+08
1.2704e+08
1.01886e+08
1.13136e+08
8.98488e+07
1.01591e+08
8.08329e+07
9.15067e+07
7.39622e+07
8.2075e+07
6.81801e+07
7.26891e+07
6.26662e+07
6.31717e+07
5.71121e+07
5.37677e+07
5.17345e+07
4.50516e+07
4.70414e+07
3.78603e+07
4.3623e+07
3.31254e+07
4.18103e+07
3.15232e+07
4.1666e+07
3.29689e+07
4.29471e+07
3.65838e+07
4.53269e+07
4.14239e+07
4.84992e+07
2.43e+08
2.13823e+08
2.10452e+08
1.80199e+08
1.81899e+08
1.52125e+08
1.58519e+08
1.29233e+08
1.39694e+08
1.11101e+08
1.24602e+08
9.72569e+07
1.12279e+08
8.70358e+07
1.01677e+08
7.92981e+07
9.18022e+07
7.2614e+07
8.20126e+07
6.60457e+07
7.21812e+07
5.94682e+07
6.25624e+07
5.3319e+07
5.35758e+07
4.81236e+07
4.56771e+07
4.4259e+07
3.9278e+07
4.18085e+07
3.47701e+07
4.06815e+07
3.24134e+07
4.06719e+07
3.2253e+07
4.15945e+07
3.39623e+07
4.32993e+07
3.70365e+07
4.56068e+07
2.30624e+08
1.99014e+08
1.97658e+08
1.66668e+08
1.71071e+08
1.40296e+08
1.49891e+08
1.19328e+08
1.33098e+08
1.03231e+08
1.19549e+08
9.13362e+07
1.08021e+08
8.21796e+07
9.74029e+07
7.39319e+07
8.71053e+07
6.58532e+07
7.71508e+07
5.83174e+07
6.78327e+07
5.19763e+07
5.9438e+07
4.71441e+07
5.21036e+07
4.3778e+07
4.58979e+07
4.16124e+07
4.08318e+07
4.03542e+07
3.6936e+07
3.97649e+07
3.43027e+07
3.97709e+07
3.29998e+07
4.03026e+07
3.30568e+07
4.13539e+07
3.4308e+07
4.2867e+07
2.13454e+08
1.81739e+08
1.82307e+08
1.51017e+08
1.57853e+08
1.26741e+08
1.387e+08
1.08254e+08
1.23414e+08
9.46776e+07
1.10549e+08
8.38066e+07
9.8887e+07
7.33207e+07
8.80224e+07
6.32433e+07
7.81757e+07
5.47466e+07
6.95902e+07
4.8497e+07
6.22973e+07
4.43615e+07
5.6136e+07
4.18776e+07
5.09094e+07
4.04655e+07
4.6422e+07
3.96622e+07
4.25308e+07
3.91389e+07
3.92462e+07
3.88944e+07
3.66e+07
3.88666e+07
3.47207e+07
3.91144e+07
3.36623e+07
3.96524e+07
3.34757e+07
4.05043e+07
1.93053e+08
1.61703e+08
1.64038e+08
1.33092e+08
1.41562e+08
1.11804e+08
1.23922e+08
9.70236e+07
1.09342e+08
8.47555e+07
9.64835e+07
7.19451e+07
8.5203e+07
6.02019e+07
7.58134e+07
5.11159e+07
6.83068e+07
4.50035e+07
6.23505e+07
4.12102e+07
5.75508e+07
3.9169e+07
5.35553e+07
3.82747e+07
5.00628e+07
3.79515e+07
4.68482e+07
3.77994e+07
4.39045e+07
3.78109e+07
4.11892e+07
3.78107e+07
3.8789e+07
3.78714e+07
3.67573e+07
3.79953e+07
3.5181e+07
3.82466e+07
3.41496e+07
3.86679e+07
1.69642e+08
1.38661e+08
1.42354e+08
1.13114e+08
1.21232e+08
9.62531e+07
1.04363e+08
8.25935e+07
9.02923e+07
6.82135e+07
7.90944e+07
5.68491e+07
7.08124e+07
4.93912e+07
6.47559e+07
4.41595e+07
6.03379e+07
4.07462e+07
5.69124e+07
3.85024e+07
5.40904e+07
3.70931e+07
5.16038e+07
3.63967e+07
4.91946e+07
3.59541e+07
4.69553e+07
3.60609e+07
4.4722e+07
3.61761e+07
4.25782e+07
3.63511e+07
4.05259e+07
3.64945e+07
3.86328e+07
3.66715e+07
3.70033e+07
3.68984e+07
3.56504e+07
3.71765e+07
1.43157e+08
1.13271e+08
1.16884e+08
9.28619e+07
9.66224e+07
7.47529e+07
8.20903e+07
6.67982e+07
7.39602e+07
5.92365e+07
6.88549e+07
5.29993e+07
6.32334e+07
4.79448e+07
5.83286e+07
4.39329e+07
5.39553e+07
4.07785e+07
5.04555e+07
3.83599e+07
4.79436e+07
3.66216e+07
4.66499e+07
3.57959e+07
4.55157e+07
3.54859e+07
4.44587e+07
3.49684e+07
4.33032e+07
3.46798e+07
4.19732e+07
3.45352e+07
4.05322e+07
3.45029e+07
3.91673e+07
3.46238e+07
3.78473e+07
3.48518e+07
3.66507e+07
3.52062e+07
1.13805e+08
8.89667e+07
9.00275e+07
7.81426e+07
8.1303e+07
6.88658e+07
7.44744e+07
6.09592e+07
6.79463e+07
5.4251e+07
6.23177e+07
4.85623e+07
5.72145e+07
4.38325e+07
5.26577e+07
4.0009e+07
4.86688e+07
3.70247e+07
4.53138e+07
3.48034e+07
4.25708e+07
3.32517e+07
4.02942e+07
3.21994e+07
3.87621e+07
3.17328e+07
3.75839e+07
3.13271e+07
3.71793e+07
3.13033e+07
3.69847e+07
3.16172e+07
3.64605e+07
3.19095e+07
3.58726e+07
3.21899e+07
3.53095e+07
3.20801e+07
3.48664e+07
3.22291e+07
8.61382e+07
7.94569e+07
8.15846e+07
7.02504e+07
7.35246e+07
6.24278e+07
6.68882e+07
5.55994e+07
6.1142e+07
4.96175e+07
5.60562e+07
4.44166e+07
5.1477e+07
3.9976e+07
4.73876e+07
3.62753e+07
4.37872e+07
3.32819e+07
4.06784e+07
3.09462e+07
3.80296e+07
2.91973e+07
3.58113e+07
2.79521e+07
3.39948e+07
2.70885e+07
3.24489e+07
2.64952e+07
3.12746e+07
2.61011e+07
3.04396e+07
2.58391e+07
2.98803e+07
2.57597e+07
2.9586e+07
2.58837e+07
2.95887e+07
2.59859e+07
2.97113e+07
2.62664e+07
7.77351e+07
7.04932e+07
7.16248e+07
6.34635e+07
6.56498e+07
5.69432e+07
6.01595e+07
5.10015e+07
5.51576e+07
4.56515e+07
5.06122e+07
4.08955e+07
4.64866e+07
3.67361e+07
4.27696e+07
3.31689e+07
3.94544e+07
3.01792e+07
3.6534e+07
2.77397e+07
3.39948e+07
2.58086e+07
3.18069e+07
2.43269e+07
2.99562e+07
2.32275e+07
2.83926e+07
2.24305e+07
2.71133e+07
2.18704e+07
2.60999e+07
2.15014e+07
2.53357e+07
2.12832e+07
2.47715e+07
2.1153e+07
2.42951e+07
2.10553e+07
2.39178e+07
2.09326e+07
6.85216e+07
6.3177e+07
6.3817e+07
5.75643e+07
5.89954e+07
5.20937e+07
5.43476e+07
4.69465e+07
4.99831e+07
4.22034e+07
4.59405e+07
3.79033e+07
4.22289e+07
3.40658e+07
3.88503e+07
3.06983e+07
3.58029e+07
2.7798e+07
3.30825e+07
2.53527e+07
3.06797e+07
2.33402e+07
2.85814e+07
2.17279e+07
2.67734e+07
2.04732e+07
2.52314e+07
1.95255e+07
2.39394e+07
1.88332e+07
2.2877e+07
1.83458e+07
2.20169e+07
1.80151e+07
2.13201e+07
1.77997e+07
2.0741e+07
1.76626e+07
2.02528e+07
1.75957e+07
6.15113e+07
5.71953e+07
5.75224e+07
5.25109e+07
5.34228e+07
4.78524e+07
4.94058e+07
4.33863e+07
4.5576e+07
3.92038e+07
4.19861e+07
3.53551e+07
3.866e+07
3.18676e+07
3.56081e+07
2.87548e+07
3.28334e+07
2.60207e+07
3.03346e+07
2.36615e+07
2.81071e+07
2.16667e+07
2.61427e+07
2.00185e+07
2.44308e+07
1.86921e+07
2.29562e+07
1.76555e+07
2.17031e+07
1.6872e+07
2.06529e+07
1.63024e+07
1.9785e+07
1.59085e+07
1.90761e+07
1.56561e+07
1.85026e+07
1.55183e+07
1.80513e+07
1.54779e+07
5.59622e+07
5.22821e+07
5.2399e+07
4.82218e+07
4.87872e+07
4.41797e+07
4.52484e+07
4.02771e+07
4.186e+07
3.659e+07
3.8667e+07
3.31643e+07
3.56935e+07
3.0027e+07
3.29514e+07
2.71925e+07
3.04453e+07
2.46674e+07
2.81757e+07
2.24518e+07
2.61396e+07
2.05411e+07
2.43317e+07
1.89264e+07
2.27446e+07
1.75938e+07
2.13678e+07
1.65248e+07
2.01897e+07
1.56962e+07
1.91966e+07
1.50812e+07
1.83728e+07
1.46504e+07
1.77012e+07
1.43739e+07
1.71636e+07
1.42226e+07
1.6744e+07
1.41712e+07
5.14443e+07
4.81909e+07
4.81686e+07
4.4571e+07
4.49119e+07
4.10004e+07
4.17467e+07
3.75571e+07
3.87232e+07
3.42947e+07
3.5873e+07
3.12482e+07
3.32142e+07
2.84392e+07
3.07558e+07
2.58797e+07
2.85016e+07
2.35755e+07
2.64515e+07
2.15278e+07
2.46034e+07
1.97347e+07
2.29533e+07
1.81914e+07
2.14959e+07
1.6891e+07
2.02246e+07
1.58239e+07
1.91317e+07
1.49778e+07
1.82078e+07
1.43369e+07
1.74415e+07
1.38816e+07
1.68186e+07
1.35879e+07
1.63218e+07
1.34275e+07
1.59315e+07
1.33678e+07
4.76667e+07
4.47184e+07
4.46083e+07
4.14284e+07
4.16282e+07
3.82266e+07
3.87648e+07
3.51573e+07
3.60461e+07
3.22535e+07
3.34902e+07
2.95378e+07
3.11073e+07
2.70244e+07
2.89023e+07
2.47214e+07
2.6876e+07
2.2632e+07
2.50271e+07
2.07565e+07
2.33526e+07
1.90928e+07
2.18485e+07
1.76374e+07
2.05107e+07
1.63861e+07
1.93346e+07
1.53339e+07
1.83157e+07
1.44759e+07
1.74492e+07
1.38062e+07
1.67291e+07
1.33177e+07
1.6147e+07
1.29999e+07
1.569e+07
1.28354e+07
1.53373e+07
1.27938e+07
4.44234e+07
4.17072e+07
4.15466e+07
3.86799e+07
3.87949e+07
3.57752e+07
3.6183e+07
3.30131e+07
3.37217e+07
3.04104e+07
3.14183e+07
2.7979e+07
2.92758e+07
2.57264e+07
2.72946e+07
2.36562e+07
2.54724e+07
2.17691e+07
2.38057e+07
2.0063e+07
2.22897e+07
1.85343e+07
2.09192e+07
1.71779e+07
1.96889e+07
1.59881e+07
1.8594e+07
1.49591e+07
1.76306e+07
1.40862e+07
1.67963e+07
1.33669e+07
1.60905e+07
1.28027e+07
1.55144e+07
1.24004e+07
1.50686e+07
1.21731e+07
1.47462e+07
1.21357e+07
4.15674e+07
3.904e+07
3.8855e+07
3.62339e+07
3.63009e+07
3.35752e+07
3.39034e+07
3.10682e+07
3.16618e+07
2.87178e+07
2.95751e+07
2.65282e+07
2.76415e+07
2.45021e+07
2.58575e+07
2.26399e+07
2.42189e+07
2.09406e+07
2.27202e+07
1.9401e+07
2.13552e+07
1.80162e+07
2.01168e+07
1.67796e+07
1.89971e+07
1.56823e+07
1.79881e+07
1.47128e+07
1.70811e+07
1.38574e+07
1.62683e+07
1.30997e+07
1.55434e+07
1.24214e+07
1.49046e+07
1.1805e+07
1.43593e+07
1.12415e+07
1.39327e+07
1.07497e+07
3.8996e+07
3.66332e+07
3.64404e+07
3.40215e+07
3.40624e+07
3.15714e+07
3.18503e+07
2.92774e+07
2.97961e+07
2.71369e+07
2.7894e+07
2.51492e+07
2.61388e+07
2.33137e+07
2.45256e+07
2.16296e+07
2.30495e+07
2.00958e+07
2.17057e+07
1.87109e+07
2.0489e+07
1.74729e+07
1.93944e+07
1.63798e+07
1.84167e+07
1.54291e+07
1.75506e+07
1.46181e+07
1.67912e+07
1.39443e+07
1.61341e+07
1.3405e+07
1.55767e+07
1.29979e+07
1.51208e+07
1.27203e+07
1.47797e+07
1.2567e+07
1.46026e+07
1.25253e+07
3.6641e+07
3.44301e+07
3.42385e+07
3.19951e+07
3.20204e+07
2.97259e+07
2.99696e+07
2.76117e+07
2.80742e+07
2.56454e+07
2.63251e+07
2.38227e+07
2.47152e+07
2.21408e+07
2.32385e+07
2.05974e+07
2.18894e+07
1.91905e+07
2.0663e+07
1.79182e+07
1.95543e+07
1.67786e+07
1.85585e+07
1.57695e+07
1.76711e+07
1.48881e+07
1.6887e+07
1.41311e+07
1.62015e+07
1.3494e+07
1.56089e+07
1.29709e+07
1.5102e+07
1.25532e+07
1.46683e+07
1.2228e+07
1.42784e+07
1.19743e+07
1.38481e+07
1.17525e+07
3.44605e+07
3.23946e+07
3.22085e+07
3.01238e+07
3.01379e+07
2.80154e+07
2.82299e+07
2.60561e+07
2.64707e+07
2.42368e+07
2.48499e+07
2.25512e+07
2.33594e+07
2.09953e+07
2.19926e+07
1.95657e+07
2.07437e+07
1.82599e+07
1.96075e+07
1.70759e+07
1.85792e+07
1.60114e+07
1.76539e+07
1.50642e+07
1.68265e+07
1.42314e+07
1.60918e+07
1.35094e+07
1.54435e+07
1.28934e+07
1.48738e+07
1.23773e+07
1.43729e+07
1.19529e+07
1.39272e+07
1.16104e+07
1.35219e+07
1.13386e+07
1.31603e+07
1.11316e+07
3.24296e+07
3.05041e+07
3.03248e+07
2.83879e+07
2.83918e+07
2.6425e+07
2.66119e+07
2.46018e+07
2.49713e+07
2.29088e+07
2.34596e+07
2.13393e+07
2.20686e+07
1.98885e+07
2.07917e+07
1.8553e+07
1.96233e+07
1.73303e+07
1.85586e+07
1.62184e+07
1.75927e+07
1.52152e+07
1.67212e+07
1.4319e+07
1.59392e+07
1.35273e+07
1.52416e+07
1.28373e+07
1.46226e+07
1.22453e+07
1.4076e+07
1.17468e+07
1.3595e+07
1.1336e+07
1.31738e+07
1.10066e+07
1.28097e+07
1.0752e+07
1.25e+07
1.05654e+07
3.0534e+07
2.87453e+07
2.85721e+07
2.67749e+07
2.67677e+07
2.49451e+07
2.5104e+07
2.32433e+07
2.35681e+07
2.16607e+07
2.21506e+07
2.01909e+07
2.08439e+07
1.88294e+07
1.96421e+07
1.75734e+07
1.85402e+07
1.64206e+07
1.75339e+07
1.53693e+07
1.66193e+07
1.44184e+07
1.57924e+07
1.35666e+07
1.50493e+07
1.28124e+07
1.4386e+07
1.21541e+07
1.37981e+07
1.15891e+07
1.32814e+07
1.1114e+07
1.28316e+07
1.07245e+07
1.2445e+07
1.04153e+07
1.2118e+07
1.01802e+07
1.18468e+07
1.00125e+07
2.87664e+07
2.71101e+07
2.69412e+07
2.5277e+07
2.52568e+07
2.35694e+07
2.36988e+07
2.19768e+07
2.22562e+07
2.04916e+07
2.09209e+07
1.91084e+07
1.96866e+07
1.78238e+07
1.85484e+07
1.66354e+07
1.75024e+07
1.55417e+07
1.65452e+07
1.4542e+07
1.56738e+07
1.36357e+07
1.48853e+07
1.28224e+07
1.41768e+07
1.21016e+07
1.35455e+07
1.14722e+07
1.29882e+07
1.09326e+07
1.25016e+07
1.04803e+07
1.20822e+07
1.01115e+07
1.17265e+07
9.82161e+06
1.14302e+07
9.60466e+06
1.11891e+07
9.45404e+06
2.71228e+07
2.55938e+07
2.54269e+07
2.38891e+07
2.38538e+07
2.22938e+07
2.23918e+07
2.07994e+07
2.10324e+07
1.94004e+07
1.97691e+07
1.80928e+07
1.85972e+07
1.68742e+07
1.75132e+07
1.57433e+07
1.65142e+07
1.46996e+07
1.55981e+07
1.37429e+07
1.47629e+07
1.28738e+07
1.40068e+07
1.20925e+07
1.3328e+07
1.13993e+07
1.27243e+07
1.0794e+07
1.21935e+07
1.02757e+07
1.1733e+07
9.84258e+06
1.13394e+07
9.49158e+06
1.10093e+07
9.21837e+06
1.07383e+07
9.01744e+06
1.05221e+07
8.88228e+06
2.5601e+07
2.41935e+07
2.40259e+07
2.26079e+07
2.25551e+07
2.1115e+07
2.11801e+07
1.97089e+07
1.98945e+07
1.8386e+07
1.86941e+07
1.7144e+07
1.75757e+07
1.59819e+07
1.65373e+07
1.48993e+07
1.55774e+07
1.38968e+07
1.46949e+07
1.29752e+07
1.3889e+07
1.21356e+07
1.31589e+07
1.13793e+07
1.25036e+07
1.07074e+07
1.19219e+07
1.01205e+07
1.14123e+07
9.61842e+06
1.09724e+07
9.20015e+06
1.05995e+07
8.86326e+06
1.02902e+07
8.60395e+06
1.00403e+07
8.41702e+06
9.8452e+06
8.29607e+06
2.41998e+07
2.29073e+07
2.27363e+07
2.1431e+07
2.13587e+07
2.00308e+07
2.00615e+07
1.87035e+07
1.8841e+07
1.74474e+07
1.76948e+07
1.62619e+07
1.66217e+07
1.51473e+07
1.5621e+07
1.41046e+07
1.46925e+07
1.31352e+07
1.38364e+07
1.22409e+07
1.30528e+07
1.14236e+07
1.2342e+07
1.06854e+07
1.17039e+07
1.00283e+07
1.11382e+07
9.45379e+06
1.06439e+07
8.96268e+06
1.02194e+07
8.55472e+06
9.86243e+06
8.22828e+06
9.56972e+06
7.98012e+06
9.33734e+06
7.80539e+06
9.16061e+06
7.69772e+06
2.29183e+07
2.17336e+07
2.15565e+07
2.03568e+07
2.02628e+07
1.90398e+07
1.90347e+07
1.7782e+07
1.78708e+07
1.65839e+07
1.67708e+07
1.54464e+07
1.57351e+07
1.43713e+07
1.47646e+07
1.33607e+07
1.38603e+07
1.24168e+07
1.30236e+07
1.15425e+07
1.22556e+07
1.07405e+07
1.15575e+07
1.00139e+07
1.09304e+07
9.36532e+06
1.03745e+07
8.79742e+06
9.88998e+06
8.31202e+06
9.47578e+06
7.90987e+06
9.13018e+06
7.59025e+06
8.85037e+06
7.35062e+06
8.63259e+06
7.18646e+06
8.47212e+06
7.09145e+06
2.17554e+07
2.06713e+07
2.04855e+07
1.93839e+07
1.92665e+07
1.81408e+07
1.80988e+07
1.69438e+07
1.69834e+07
1.57953e+07
1.5922e+07
1.46981e+07
1.49164e+07
1.3655e+07
1.39691e+07
1.26692e+07
1.30822e+07
1.17442e+07
1.22582e+07
1.08833e+07
1.14994e+07
1.00903e+07
1.08079e+07
9.36896e+06
1.01855e+07
8.72304e+06
9.6338e+06
8.15615e+06
9.15355e+06
7.6713e+06
8.74475e+06
7.27047e+06
8.40632e+06
6.95405e+06
8.136e+06
6.72034e+06
7.93025e+06
6.5653e+06
7.78437e+06
6.48256e+06
2.07102e+07
1.97191e+07
1.95223e+07
1.85113e+07
1.83691e+07
1.7333e+07
1.72536e+07
1.61885e+07
1.6179e+07
1.5082e+07
1.51489e+07
1.40177e+07
1.41668e+07
1.29999e+07
1.32361e+07
1.20328e+07
1.23605e+07
1.11204e+07
1.15432e+07
1.02672e+07
1.07875e+07
9.47752e+06
1.00966e+07
8.75593e+06
9.47335e+06
8.10717e+06
8.92018e+06
7.53594e+06
8.43899e+06
7.04657e+06
8.03079e+06
6.6425e+06
7.6954e+06
6.32552e+06
7.43125e+06
6.09509e+06
7.23519e+06
5.94776e+06
7.1025e+06
5.87713e+06
1.97816e+07
1.88763e+07
1.86661e+07
1.77383e+07
1.75701e+07
1.66162e+07
1.64989e+07
1.55162e+07
1.5458e+07
1.44444e+07
1.44526e+07
1.34066e+07
1.34877e+07
1.24082e+07
1.2568e+07
1.14541e+07
1.1698e+07
1.05493e+07
1.0882e+07
9.69886e+06
1.01242e+07
8.90768e+06
9.4286e+06
8.18105e+06
8.79906e+06
7.52456e+06
8.23913e+06
6.94402e+06
7.75185e+06
6.44518e+06
7.33944e+06
6.0332e+06
7.00288e+06
5.71169e+06
6.74154e+06
5.48166e+06
6.55283e+06
5.3406e+06
6.43211e+06
5.28213e+06
1.89686e+07
1.81418e+07
1.79163e+07
1.70644e+07
1.68692e+07
1.599e+07
1.58349e+07
1.49271e+07
1.48211e+07
1.38835e+07
1.38343e+07
1.28663e+07
1.28811e+07
1.18819e+07
1.19672e+07
1.09363e+07
1.10981e+07
1.0035e+07
1.02789e+07
9.18339e+06
9.51441e+06
8.38699e+06
8.80953e+06
7.65154e+06
8.16898e+06
6.98331e+06
7.59736e+06
6.38911e+06
7.09899e+06
5.87617e+06
6.6775e+06
5.45159e+06
6.33537e+06
5.12128e+06
6.07324e+06
4.88844e+06
5.8894e+06
4.75203e+06
5.77946e+06
4.70585e+06
1.82704e+07
1.75151e+07
1.72725e+07
1.64893e+07
1.62665e+07
1.54547e+07
1.52622e+07
1.44217e+07
1.42691e+07
1.34e+07
1.32955e+07
1.2398e+07
1.23491e+07
1.14233e+07
1.14368e+07
1.04825e+07
1.05647e+07
9.58159e+06
9.73857e+06
8.72626e+06
8.96387e+06
7.9222e+06
8.24603e+06
7.17546e+06
7.5905e+06
6.49275e+06
7.0029e+06
5.88167e+06
6.48881e+06
5.35079e+06
6.05346e+06
4.90928e+06
5.70113e+06
4.56579e+06
5.43425e+06
4.32652e+06
5.25248e+06
4.19275e+06
5.152e+06
4.15894e+06
1.76861e+07
1.6996e+07
1.67347e+07
1.60133e+07
1.57622e+07
1.50103e+07
1.47811e+07
1.4e+07
1.38027e+07
1.2994e+07
1.28371e+07
1.20026e+07
1.18934e+07
1.10342e+07
1.09793e+07
1.00957e+07
1.01014e+07
9.19336e+06
9.2659e+06
8.33299e+06
8.4786e+06
7.52029e+06
7.74529e+06
6.76139e+06
7.07201e+06
6.06319e+06
6.46516e+06
5.4338e+06
5.93151e+06
4.88284e+06
5.47796e+06
4.42137e+06
5.11087e+06
4.06098e+06
4.83498e+06
3.81157e+06
4.652e+06
3.67784e+06
4.55931e+06
3.65594e+06
1.72157e+07
1.65855e+07
1.63035e+07
1.56369e+07
1.53571e+07
1.46562e+07
1.43917e+07
1.36602e+07
1.34216e+07
1.26645e+07
1.24594e+07
1.16803e+07
1.15152e+07
1.07161e+07
1.0597e+07
9.77873e+06
9.71181e+06
8.87448e+06
8.86571e+06
8.00904e+06
8.06469e+06
7.18813e+06
7.31477e+06
6.41785e+06
6.62236e+06
5.70518e+06
5.99447e+06
5.05851e+06
5.4389e+06
4.48816e+06
4.96407e+06
4.00667e+06
4.57853e+06
3.62823e+06
4.28966e+06
3.36638e+06
4.10188e+06
3.22978e+06
4.01466e+06
3.21761e+06
1.68606e+07
1.62866e+07
1.59811e+07
1.53598e+07
1.5051e+07
1.43855e+07
1.40909e+07
1.33972e+07
1.31231e+07
1.24094e+07
1.21615e+07
1.14315e+07
1.12154e+07
1.04712e+07
1.02926e+07
9.53516e+06
9.39966e+06
8.62951e+06
8.54285e+06
7.75999e+06
7.72814e+06
6.93234e+06
6.9617e+06
6.15275e+06
6.2502e+06
5.42834e+06
5.60115e+06
4.76784e+06
5.02324e+06
4.18227e+06
4.52634e+06
3.68545e+06
4.12104e+06
3.29349e+06
3.81725e+06
3.02225e+06
3.62202e+06
2.88223e+06
3.53724e+06
2.87427e+06
1.66286e+07
1.61095e+07
1.57729e+07
1.51511e+07
1.48305e+07
1.4182e+07
1.38687e+07
1.32056e+07
1.29033e+07
1.22286e+07
1.19432e+07
1.12588e+07
1.09961e+07
1.03037e+07
1.00694e+07
9.37019e+06
9.1696e+06
8.46452e+06
8.30288e+06
7.59262e+06
7.47535e+06
6.76037e+06
6.69328e+06
5.97414e+06
5.9636e+06
5.24137e+06
5.29436e+06
4.57144e+06
4.69523e+06
3.97665e+06
4.17772e+06
3.47287e+06
3.75476e+06
3.0789e+06
3.43879e+06
2.8122e+06
3.23826e+06
2.68022e+06
3.15469e+06
2.6737e+06
1.65762e+07
1.58727e+07
1.56056e+07
1.49711e+07
1.46653e+07
1.40412e+07
1.37176e+07
1.30899e+07
1.27628e+07
1.2129e+07
1.18083e+07
1.11698e+07
1.08627e+07
1.02215e+07
9.93378e+06
9.29228e+06
9.02861e+06
8.38889e+06
8.15365e+06
7.51751e+06
7.31504e+06
6.6841e+06
6.51908e+06
5.89503e+06
5.77277e+06
5.15784e+06
5.08447e+06
4.48236e+06
4.46479e+06
3.88225e+06
3.92727e+06
3.37667e+06
3.48841e+06
2.99083e+06
3.16544e+06
2.75151e+06
2.97013e+06
2.67373e+06
2.89969e+06
2.74251e+06
2.78138e+06
3.01586e+06
2.96191e+06
3.28441e+06
3.16418e+06
3.63606e+06
3.46065e+06
4.06924e+06
3.84185e+06
4.56739e+06
4.28784e+06
5.11537e+06
4.78075e+06
5.70145e+06
5.30658e+06
6.31658e+06
5.85453e+06
6.95339e+06
6.41605e+06
7.60532e+06
6.98414e+06
8.2661e+06
7.553e+06
8.9293e+06
8.11809e+06
9.58818e+06
8.67647e+06
1.02355e+07
9.22777e+06
1.0864e+07
9.77556e+06
1.1467e+07
1.03297e+07
1.20407e+07
1.09087e+07
1.25904e+07
1.15424e+07
1.31462e+07
1.22686e+07
1.3805e+07
3.33344e+06
3.75355e+06
3.45267e+06
3.95743e+06
3.62072e+06
4.22197e+06
3.85486e+06
4.55043e+06
4.15576e+06
4.93713e+06
4.51484e+06
5.37346e+06
4.92125e+06
5.8507e+06
5.36459e+06
6.3609e+06
5.83577e+06
6.89691e+06
6.32699e+06
7.4522e+06
6.8316e+06
8.02053e+06
7.34394e+06
8.59585e+06
7.85942e+06
9.17209e+06
8.37476e+06
9.74322e+06
8.88852e+06
1.03035e+07
9.40203e+06
1.08479e+07
9.92079e+06
1.13738e+07
1.04563e+07
1.18836e+07
1.1028e+07
1.23916e+07
1.16625e+07
1.2942e+07
4.10158e+06
4.55469e+06
4.17092e+06
4.69692e+06
4.2999e+06
4.89326e+06
4.48217e+06
5.14188e+06
4.71701e+06
5.43991e+06
5.00096e+06
5.78275e+06
5.32845e+06
6.16486e+06
5.69313e+06
6.58041e+06
6.08855e+06
7.02356e+06
6.50857e+06
7.48858e+06
6.94754e+06
7.96985e+06
7.40042e+06
8.46181e+06
7.8629e+06
8.95898e+06
8.33167e+06
9.45603e+06
8.80476e+06
9.94792e+06
9.2822e+06
1.04303e+07
9.7669e+06
1.09003e+07
1.02658e+07
1.1358e+07
1.07908e+07
1.18094e+07
1.1358e+07
1.22749e+07
4.85879e+06
5.2904e+06
4.90238e+06
5.38861e+06
5.00152e+06
5.53541e+06
5.14683e+06
5.72679e+06
5.33567e+06
5.96015e+06
5.56583e+06
6.23252e+06
5.83426e+06
6.5403e+06
6.13722e+06
6.87939e+06
6.47052e+06
7.24541e+06
6.82983e+06
7.63373e+06
7.21086e+06
8.03966e+06
7.60959e+06
8.45841e+06
8.0224e+06
8.88525e+06
8.44635e+06
9.3155e+06
8.87949e+06
9.74478e+06
9.32127e+06
1.01692e+07
9.77315e+06
1.05858e+07
1.02393e+07
1.09934e+07
1.0727e+07
1.13945e+07
1.1246e+07
1.17989e+07
5.5306e+06
5.92072e+06
5.56231e+06
5.98972e+06
5.64165e+06
6.10152e+06
5.76167e+06
6.25217e+06
5.91933e+06
6.43915e+06
6.11266e+06
6.6601e+06
6.3396e+06
6.91236e+06
6.59772e+06
7.19293e+06
6.88425e+06
7.49844e+06
7.19621e+06
7.82528e+06
7.53048e+06
8.16962e+06
7.88403e+06
8.5275e+06
8.25406e+06
8.89494e+06
8.63821e+06
9.26799e+06
9.03481e+06
9.64287e+06
9.44322e+06
1.00162e+07
9.86422e+06
1.03853e+07
1.03005e+07
1.07486e+07
1.07567e+07
1.11068e+07
1.12393e+07
1.14649e+07
6.09632e+06
6.43794e+06
6.12285e+06
6.48779e+06
6.18974e+06
6.57511e+06
6.29269e+06
6.69675e+06
6.42909e+06
6.85042e+06
6.59713e+06
7.03404e+06
6.79514e+06
7.24542e+06
7.02131e+06
7.48215e+06
7.27366e+06
7.74153e+06
7.54998e+06
8.02063e+06
7.84802e+06
8.31632e+06
8.16549e+06
8.62533e+06
8.50029e+06
8.94435e+06
8.85062e+06
9.27008e+06
9.21519e+06
9.59936e+06
9.59348e+06
9.92935e+06
9.98603e+06
1.02577e+07
1.03947e+07
1.05829e+07
1.08231e+07
1.09049e+07
1.12757e+07
1.12263e+07
6.55428e+06
6.84613e+06
6.57872e+06
6.88336e+06
6.63796e+06
6.95361e+06
6.72947e+06
7.05454e+06
6.85124e+06
7.18417e+06
7.00168e+06
7.34063e+06
7.17931e+06
7.52197e+06
7.38261e+06
7.7261e+06
7.60997e+06
7.9507e+06
7.85968e+06
8.19329e+06
8.12994e+06
8.45124e+06
8.41903e+06
8.72179e+06
8.72531e+06
9.00215e+06
9.04742e+06
9.28959e+06
9.38442e+06
9.58146e+06
9.73597e+06
9.87541e+06
1.01026e+07
1.01695e+07
1.04857e+07
1.04624e+07
1.08883e+07
1.07538e+07
1.13141e+07
1.10454e+07
6.91011e+06
7.15376e+06
6.93388e+06
7.1826e+06
6.98845e+06
7.24093e+06
7.07229e+06
7.32706e+06
7.18391e+06
7.4393e+06
7.32192e+06
7.57592e+06
7.48496e+06
7.73513e+06
7.67164e+06
7.915e+06
7.88054e+06
8.11346e+06
8.11017e+06
8.32829e+06
8.35904e+06
8.55718e+06
8.6257e+06
8.79773e+06
8.90886e+06
9.04756e+06
9.20744e+06
9.30432e+06
9.52077e+06
9.56584e+06
9.84864e+06
9.83014e+06
1.01916e+07
1.00956e+07
1.05509e+07
1.03613e+07
1.09291e+07
1.06268e+07
1.13294e+07
1.08933e+07
7.17236e+06
7.37081e+06
7.19607e+06
7.394e+06
7.24775e+06
7.44403e+06
7.32643e+06
7.51958e+06
7.43094e+06
7.61919e+06
7.56003e+06
7.74127e+06
7.71242e+06
7.88412e+06
7.8868e+06
8.04591e+06
8.08178e+06
8.22467e+06
8.29599e+06
8.41837e+06
8.52809e+06
8.62488e+06
8.77678e+06
8.84206e+06
9.04096e+06
9.06781e+06
9.31972e+06
9.30008e+06
9.61253e+06
9.53701e+06
9.91929e+06
9.77696e+06
1.02405e+07
1.00186e+07
1.05774e+07
1.02612e+07
1.09322e+07
1.05045e+07
1.13078e+07
1.07493e+07
7.35053e+06
7.50748e+06
7.3744e+06
7.52687e+06
7.42427e+06
7.5711e+06
7.49941e+06
7.6391e+06
7.59885e+06
7.72954e+06
7.72142e+06
7.84094e+06
7.86588e+06
7.97164e+06
8.03091e+06
8.11986e+06
8.21514e+06
8.28371e+06
8.41723e+06
8.46123e+06
8.63587e+06
8.65043e+06
8.86985e+06
8.84933e+06
9.11813e+06
9.056e+06
9.3799e+06
9.26861e+06
9.65467e+06
9.48553e+06
9.94239e+06
9.70535e+06
1.02435e+07
9.927e+06
1.05592e+07
1.01498e+07
1.08913e+07
1.03738e+07
1.12426e+07
1.05996e+07
7.45425e+06
7.57368e+06
7.47832e+06
7.59053e+06
7.52699e+06
7.63072e+06
7.59964e+06
7.69332e+06
7.69537e+06
7.7771e+06
7.81305e+06
7.88062e+06
7.95143e+06
8.00224e+06
8.10915e+06
8.14022e+06
8.28484e+06
8.29268e+06
8.47712e+06
8.45772e+06
8.68466e+06
8.6334e+06
8.90628e+06
8.81785e+06
9.14092e+06
9.00925e+06
9.38781e+06
9.20592e+06
9.64645e+06
9.40637e+06
9.91677e+06
9.60938e+06
1.01991e+07
9.81401e+06
1.04946e+07
1.00198e+07
1.08047e+07
1.02266e+07
1.11321e+07
1.04353e+07
7.49283e+06
7.57878e+06
7.51704e+06
7.59395e+06
7.56486e+06
7.63134e+06
7.63567e+06
7.69008e+06
7.72859e+06
7.76901e+06
7.84247e+06
7.86668e+06
7.97602e+06
7.98148e+06
8.12785e+06
8.11164e+06
8.29652e+06
8.25531e+06
8.48059e+06
8.41058e+06
8.67871e+06
8.57556e+06
8.88963e+06
8.74842e+06
9.11229e+06
8.92741e+06
9.34587e+06
9.11094e+06
9.58984e+06
9.29764e+06
9.84403e+06
9.48637e+06
1.01087e+07
9.67631e+06
1.03848e+07
9.86702e+06
1.06737e+07
1.00586e+07
1.09774e+07
1.02515e+07
7.47505e+06
7.53148e+06
7.49934e+06
7.54557e+06
7.54647e+06
7.58103e+06
7.61583e+06
7.63702e+06
7.7065e+06
7.71238e+06
7.81729e+06
7.80569e+06
7.94686e+06
7.91529e+06
8.09375e+06
8.03941e+06
8.25643e+06
8.17617e+06
8.43342e+06
8.32367e+06
8.62328e+06
8.48001e+06
8.82471e+06
8.64339e+06
9.03658e+06
8.8121e+06
9.25802e+06
8.98461e+06
9.48841e+06
9.15958e+06
9.72751e+06
9.33596e+06
9.97548e+06
9.51297e+06
1.0233e+07
9.69022e+06
1.05012e+07
9.86776e+06
1.0782e+07
1.00461e+07
7.40911e+06
7.4398e+06
7.43336e+06
7.45322e+06
7.47988e+06
7.48736e+06
7.54801e+06
7.54138e+06
7.63677e+06
7.61411e+06
7.74493e+06
7.70409e+06
7.87107e+06
7.80967e+06
8.01363e+06
7.92902e+06
8.17104e+06
8.06023e+06
8.3417e+06
8.2014e+06
8.52411e+06
8.3506e+06
8.71688e+06
8.50605e+06
8.91883e+06
8.66604e+06
9.12899e+06
8.82907e+06
9.34666e+06
8.99384e+06
9.57148e+06
9.1593e+06
9.80348e+06
9.32473e+06
1.00431e+07
9.48972e+06
1.02914e+07
9.6543e+06
1.05498e+07
9.81896e+06
7.30256e+06
7.31109e+06
7.32668e+06
7.32414e+06
7.37259e+06
7.35738e+06
7.43959e+06
7.40996e+06
7.52663e+06
7.48069e+06
7.63242e+06
7.56809e+06
7.75545e+06
7.67045e+06
7.89409e+06
7.78592e+06
8.04667e+06
7.91257e+06
8.2115e+06
8.04842e+06
8.38701e+06
8.19156e+06
8.57173e+06
8.34017e+06
8.76437e+06
8.49257e+06
8.96389e+06
8.64725e+06
9.16949e+06
8.80291e+06
9.38071e+06
8.95853e+06
9.59742e+06
9.11337e+06
9.81989e+06
9.26701e+06
1.00489e+07
9.41944e+06
1.02856e+07
9.57107e+06
7.16231e+06
7.15205e+06
7.18621e+06
7.16492e+06
7.23148e+06
7.19753e+06
7.29737e+06
7.24903e+06
7.38277e+06
7.31819e+06
7.48632e+06
7.4035e+06
7.60643e+06
7.50321e+06
7.74138e+06
7.61542e+06
7.88939e+06
7.73814e+06
8.04872e+06
7.86938e+06
8.21768e+06
8.0072e+06
8.39473e+06
8.14976e+06
8.57851e+06
8.29535e+06
8.76787e+06
8.44246e+06
8.96192e+06
8.58981e+06
9.16008e+06
8.73636e+06
9.36209e+06
8.88134e+06
9.56805e+06
9.02432e+06
9.77849e+06
9.16523e+06
9.99438e+06
9.30438e+06
6.99471e+06
6.96878e+06
7.01829e+06
6.98159e+06
7.06286e+06
7.01375e+06
7.12761e+06
7.06438e+06
7.21138e+06
7.13224e+06
7.31273e+06
7.21577e+06
7.42997e+06
7.31317e+06
7.56132e+06
7.42249e+06
7.70491e+06
7.54171e+06
7.85891e+06
7.6688e+06
8.02154e+06
7.80178e+06
8.19118e+06
7.93878e+06
8.3664e+06
8.07809e+06
8.54595e+06
8.21819e+06
8.72886e+06
8.35777e+06
8.91442e+06
8.49578e+06
9.10226e+06
8.63144e+06
9.29231e+06
8.76427e+06
9.48489e+06
8.89413e+06
9.68075e+06
9.02125e+06
6.80552e+06
6.76683e+06
6.8287e+06
6.77964e+06
6.87249e+06
6.81144e+06
6.93603e+06
6.86132e+06
7.01811e+06
6.92801e+06
7.11721e+06
7.00991e+06
7.23157e+06
7.10518e+06
7.35933e+06
7.21182e+06
7.49852e+06
7.32777e+06
7.64725e+06
7.45096e+06
7.80365e+06
7.57938e+06
7.96604e+06
7.71113e+06
8.13289e+06
7.84448e+06
8.30288e+06
7.97789e+06
8.47496e+06
8.11005e+06
8.64832e+06
8.23988e+06
8.82245e+06
8.36658e+06
8.99716e+06
8.48962e+06
9.17258e+06
8.6088e+06
9.34923e+06
8.72425e+06
6.59999e+06
6.55124e+06
6.62269e+06
6.56407e+06
6.66561e+06
6.59552e+06
6.72784e+06
6.64467e+06
6.80813e+06
6.71022e+06
6.90487e+06
6.79052e+06
7.01626e+06
6.8837e+06
7.14034e+06
6.98772e+06
7.27509e+06
7.10048e+06
7.41851e+06
7.21986e+06
7.56871e+06
7.34382e+06
7.72389e+06
7.47045e+06
7.88248e+06
7.598e+06
8.04309e+06
7.7249e+06
8.20457e+06
7.84983e+06
8.36605e+06
7.97169e+06
8.52689e+06
8.08965e+06
8.68678e+06
8.20315e+06
8.84571e+06
8.31192e+06
9.00397e+06
8.41601e+06
6.3829e+06
6.3266e+06
6.40506e+06
6.33943e+06
6.44699e+06
6.37049e+06
6.50779e+06
6.41886e+06
6.58613e+06
6.48319e+06
6.68037e+06
6.56182e+06
6.78862e+06
6.65284e+06
6.90887e+06
6.75416e+06
7.03904e+06
6.86366e+06
7.17706e+06
6.97918e+06
7.32098e+06
7.09866e+06
7.46894e+06
7.22016e+06
7.6193e+06
7.34192e+06
7.77062e+06
7.46235e+06
7.92168e+06
7.58011e+06
8.07152e+06
7.69409e+06
8.21944e+06
7.80343e+06
8.36499e+06
7.90754e+06
8.50803e+06
8.00609e+06
8.6487e+06
8.09903e+06
6.15864e+06
6.09712e+06
6.18017e+06
6.10989e+06
6.221e+06
6.14047e+06
6.2802e+06
6.18792e+06
6.3564e+06
6.25088e+06
6.44792e+06
6.32766e+06
6.55281e+06
6.41632e+06
6.66902e+06
6.51476e+06
6.7944e+06
6.62081e+06
6.92684e+06
6.7323e+06
7.06433e+06
6.84715e+06
7.20497e+06
6.96339e+06
7.34707e+06
7.07924e+06
7.48913e+06
7.19312e+06
7.62987e+06
7.30367e+06
7.76828e+06
7.40975e+06
7.90356e+06
7.5105e+06
8.03519e+06
7.60527e+06
8.16291e+06
7.6937e+06
8.28672e+06
7.77567e+06
5.9312e+06
5.86665e+06
5.95202e+06
5.87927e+06
5.99161e+06
5.90922e+06
6.04902e+06
5.95554e+06
6.12284e+06
6.01689e+06
6.21136e+06
6.09155e+06
6.31262e+06