/*--------------------------------*- C++ -*----------------------------------*\
| =========                 |                                                 |
| \\      /  F ield         | OpenFOAM: The Open Source CFD Toolbox           |
|  \\    /   O peration     | Version:  v2012                                 |
|   \\  /    A nd           | Website:  www.openfoam.com                      |
|    \\/     M anipulation  |                                                 |
\*---------------------------------------------------------------------------*/
FoamFile
{
    version     2.0;
    format      ascii;
    class       volScalarField;
    location    "7";
    object      epsilonEq;
}
// * * * * * * * * * * * * * * * * * * * * * * * * * * * * * * * * * * * * * //

dimensions      [0 0 0 0 0 0 0];


internalField   nonuniform List<scalar> 
32000
(
0.00623242
0.00609471
0.00601725
0.00587326
0.00578574
0.00564554
0.00555024
0.00541497
0.00531508
0.0051839
0.00508194
0.00495378
0.00485161
0.00472553
0.00462451
0.0044997
0.00440083
0.00427646
0.00418061
0.00405586
0.00396351
0.00383791
0.00374979
0.00362232
0.00353937
0.00340811
0.00333158
0.00319343
0.00312433
0.00298074
0.00293272
0.00282417
0.00278886
0.00269738
0.00266774
0.00258823
0.00256337
0.00249289
0.00247196
0.00240861
0.0023909
0.00233336
0.00231833
0.00226564
0.00225282
0.00220425
0.00219329
0.00214827
0.00213889
0.00209697
0.00208894
0.00204973
0.00204285
0.00200604
0.00200017
0.0019655
0.00196051
0.00192774
0.00192352
0.00189246
0.00188892
0.0018594
0.00185647
0.00182832
0.00182594
0.00179902
0.00179714
0.00177132
0.0017699
0.00174506
0.00174407
0.00172007
0.00171952
0.00169623
0.00169612
0.00167338
0.00167373
0.00165132
0.0016522
0.00162978
0.00616744
0.00603277
0.00594415
0.00580724
0.00572135
0.00558289
0.0054966
0.00535797
0.00527061
0.00513241
0.0050444
0.00490676
0.0048189
0.00468139
0.00459464
0.00445668
0.00437194
0.00423283
0.004151
0.00401
0.00393188
0.00378811
0.0037143
0.00356696
0.00349769
0.00334707
0.00328187
0.00313173
0.00307218
0.00294192
0.00291151
0.00280792
0.00278059
0.00269032
0.00266626
0.00258666
0.00256571
0.00249467
0.00247655
0.00241246
0.00239685
0.00233849
0.00232511
0.00227155
0.00226011
0.00221064
0.00220089
0.00215493
0.00214668
0.00210377
0.00209682
0.00205658
0.00205078
0.0020129
0.00200811
0.00197232
0.00196844
0.00193451
0.00193142
0.00189915
0.00189677
0.001866
0.00186426
0.00183481
0.00183365
0.0018054
0.00180475
0.00177757
0.00177739
0.00175116
0.00175141
0.00172602
0.00172665
0.00170201
0.00170297
0.00167901
0.00168022
0.00165696
0.00165829
0.00163595
0.0061203
0.00597755
0.00588495
0.00574235
0.00565677
0.00551259
0.00543117
0.00528524
0.00520636
0.00505878
0.00498179
0.00483241
0.00475729
0.00460592
0.00453298
0.00437914
0.00430884
0.00415227
0.00408512
0.00392564
0.00386201
0.0037
0.0036399
0.00347675
0.00341971
0.00325786
0.00320389
0.00304378
0.00300497
0.0028989
0.00287698
0.00278168
0.00276141
0.00267594
0.00265754
0.00258052
0.00256409
0.00249424
0.00247978
0.00241599
0.00240342
0.00234481
0.00233399
0.00227981
0.0022706
0.00222026
0.00221251
0.00216551
0.00215908
0.00211501
0.00210976
0.00206829
0.0020641
0.00202492
0.00202168
0.00198454
0.00198217
0.00194685
0.00194524
0.00191156
0.00191065
0.00187843
0.00187814
0.00184725
0.00184752
0.00181781
0.00181858
0.00178993
0.00179116
0.00176348
0.00176511
0.00173829
0.00174028
0.00171426
0.00171656
0.00169127
0.00169385
0.00166926
0.00167212
0.0016481
0.00606462
0.0059114
0.00582057
0.00566743
0.00558424
0.00542937
0.00535245
0.0051949
0.00512305
0.00496231
0.00489465
0.00473046
0.00466652
0.0044986
0.00443822
0.00426683
0.00420993
0.00403565
0.00398209
0.00380608
0.00375565
0.00357968
0.00353222
0.003358
0.00331363
0.0031423
0.00310065
0.00296413
0.00294804
0.00285466
0.00283872
0.00275293
0.00273798
0.00265884
0.00264522
0.00257213
0.00255998
0.00249235
0.00248171
0.00241897
0.00240981
0.00235142
0.00234368
0.00228916
0.00228274
0.00223166
0.00222648
0.00217847
0.00217442
0.00212915
0.00212613
0.00208331
0.00208124
0.00204061
0.00203939
0.00200075
0.0020003
0.00196344
0.00196369
0.00192844
0.00192932
0.00189552
0.00189698
0.00186449
0.00186646
0.00183516
0.0018376
0.00180738
0.00181023
0.00178098
0.00178422
0.00175585
0.00175942
0.00173186
0.00173574
0.0017089
0.00171307
0.00168687
0.00169131
0.00166566
0.0059914
0.00582575
0.00574065
0.00557367
0.0054958
0.00532613
0.00525525
0.00508204
0.00501751
0.00484015
0.00478132
0.00459966
0.00454585
0.00436048
0.00431109
0.00412312
0.0040776
0.00388846
0.00384639
0.00365771
0.00361884
0.00343193
0.00339621
0.00321213
0.00317984
0.00300164
0.00298799
0.00290627
0.00289405
0.00281332
0.00280194
0.00272455
0.00271421
0.0026408
0.00263163
0.00256231
0.00255438
0.00248906
0.00248237
0.00242084
0.00241537
0.00235738
0.00235308
0.00229835
0.00229516
0.00224343
0.00224126
0.00219228
0.00219107
0.00214459
0.00214425
0.00210006
0.00210052
0.00205841
0.0020596
0.00201939
0.00202124
0.00198277
0.00198522
0.00194832
0.00195131
0.00191585
0.00191934
0.00188518
0.00188912
0.00185616
0.0018605
0.00182862
0.00183332
0.00180243
0.00180746
0.00177746
0.0017828
0.00175361
0.00175921
0.00173075
0.00173661
0.00170879
0.00171488
0.00168763
0.00589569
0.00571489
0.00563803
0.00545412
0.0053841
0.00519653
0.00513352
0.00494173
0.00488551
0.00468948
0.00463955
0.00444001
0.0043957
0.00419394
0.00415455
0.00395192
0.00391687
0.00371461
0.00368356
0.00348234
0.00345529
0.00325466
0.00323214
0.00302949
0.00301434
0.00293797
0.00292966
0.00285537
0.00284785
0.00277452
0.00276788
0.0026964
0.00269072
0.0026217
0.00261704
0.0025508
0.00254718
0.00248384
0.00248127
0.00242085
0.00241928
0.0023617
0.0023611
0.00230624
0.00230655
0.00225427
0.00225542
0.00220556
0.0022075
0.0021599
0.00216256
0.00211706
0.00212037
0.00207682
0.00208073
0.00203899
0.00204343
0.00200335
0.00200829
0.00196975
0.00197512
0.00193799
0.00194376
0.00190793
0.00191405
0.00187942
0.00188586
0.00185232
0.00185905
0.00182651
0.0018335
0.00180187
0.00180909
0.00177828
0.00178571
0.00175565
0.00176328
0.00173389
0.00174169
0.00171289
0.00577335
0.00557446
0.00550726
0.00530424
0.00524365
0.00503633
0.00498252
0.00477123
0.00472408
0.00450969
0.00446884
0.00425266
0.00421762
0.00400087
0.00397111
0.00375471
0.00372983
0.00351416
0.00349389
0.00327878
0.00326288
0.00304812
0.00303575
0.00295513
0.00294912
0.0028822
0.00287735
0.0028096
0.00280589
0.00273819
0.0027356
0.00266872
0.00266719
0.00260172
0.00260123
0.00253758
0.00253808
0.00247649
0.00247794
0.00241855
0.00242088
0.00236374
0.0023669
0.002312
0.00231593
0.00226321
0.00226784
0.00221724
0.0022225
0.00217392
0.00217976
0.00213309
0.00213945
0.00209459
0.00210141
0.00205825
0.00206548
0.00202391
0.00203151
0.00199143
0.00199935
0.00196065
0.00196886
0.00193145
0.00193991
0.00190368
0.00191236
0.00187724
0.00188611
0.001852
0.00186104
0.00182785
0.00183704
0.00180471
0.00181403
0.00178246
0.0017919
0.00176103
0.00177057
0.00174033
0.00562081
0.00540208
0.00534508
0.00512185
0.00507134
0.00484421
0.00480021
0.00457025
0.00453267
0.00430134
0.00426991
0.00403845
0.00401278
0.00378211
0.00376177
0.00353248
0.00351698
0.00328963
0.00327831
0.00305441
0.00304613
0.00296223
0.00295736
0.00289771
0.00289454
0.00283251
0.0028309
0.00276758
0.0027674
0.00270363
0.00270476
0.00264121
0.00264353
0.00258075
0.00258417
0.00252256
0.00252697
0.00246683
0.00247215
0.00241367
0.0024198
0.0023631
0.00236997
0.00231511
0.00232264
0.00226963
0.00227775
0.00222656
0.0022352
0.00218581
0.0021949
0.00214725
0.00215673
0.00211075
0.00212057
0.00207617
0.00208629
0.0020434
0.00205376
0.0020123
0.00202287
0.00198275
0.00199349
0.00195464
0.00196552
0.00192785
0.00193884
0.00190227
0.00191335
0.0018778
0.00188894
0.00185434
0.00186554
0.00183181
0.00184304
0.00181011
0.00182137
0.00178917
0.00180044
0.00176891
0.00543631
0.00519717
0.00515031
0.00490725
0.00486684
0.00462112
0.00458703
0.00434029
0.00431235
0.00406609
0.00404397
0.00379941
0.00378265
0.00354081
0.00352877
0.00329078
0.00328273
0.0030511
0.00304589
0.00296413
0.00295963
0.00290543
0.0029032
0.00284612
0.0028459
0.00278674
0.00278832
0.00272784
0.00273105
0.00266993
0.00267458
0.00261339
0.00261934
0.00255853
0.00256563
0.0025056
0.00251371
0.00245474
0.00246375
0.00240605
0.00241583
0.00235956
0.00237002
0.00231526
0.00232631
0.00227313
0.00228467
0.00223308
0.00224504
0.00219505
0.00220735
0.00215893
0.00217152
0.00212463
0.00213744
0.00209204
0.00210503
0.00206105
0.00207417
0.00203156
0.00204477
0.00200346
0.00201673
0.00197665
0.00198995
0.00195103
0.00196434
0.00192651
0.0019398
0.001903
0.00191625
0.00188042
0.00189361
0.00185867
0.0018718
0.00183769
0.00185073
0.0018174
0.00183035
0.00179772
0.00521968
0.00496077
0.00492363
0.00466232
0.00463159
0.00436965
0.00434506
0.00408437
0.0040655
0.00380781
0.00379407
0.00354092
0.00353161
0.00328448
0.00327878
0.00304153
0.00303802
0.00296331
0.00295876
0.00290837
0.00290649
0.00285312
0.00285369
0.00279794
0.0028007
0.00274317
0.0027479
0.00268919
0.00269567
0.00263629
0.00264433
0.00258476
0.00259416
0.00253479
0.00254539
0.00248655
0.00249818
0.00244014
0.00245265
0.00239562
0.00240889
0.00235303
0.00236692
0.00231234
0.00232675
0.00227353
0.00228836
0.00223654
0.00225171
0.00220132
0.00221673
0.00216777
0.00218337
0.00213581
0.00215154
0.00210537
0.00212116
0.00207633
0.00209215
0.00204863
0.00206443
0.00202216
0.00203791
0.00199684
0.00201251
0.00197258
0.00198814
0.0019493
0.00196473
0.00192692
0.00194221
0.00190536
0.00192049
0.00188456
0.00189951
0.00186444
0.0018792
0.00184493
0.0018595
0.00182598
0.00497217
0.00469552
0.00466744
0.00439065
0.00436882
0.0040945
0.00407827
0.0038087
0.00379729
0.00353448
0.00352705
0.0032727
0.00326842
0.00302899
0.00302571
0.00296109
0.00295626
0.00290824
0.00290643
0.0028555
0.00285647
0.00280314
0.00280664
0.00275139
0.0027572
0.0027005
0.00270836
0.00265066
0.00266036
0.00260209
0.0026134
0.00255493
0.00256765
0.0025093
0.00252324
0.00246531
0.00248028
0.002423
0.00243884
0.00238241
0.00239897
0.00234352
0.00236067
0.00230634
0.00232394
0.00227081
0.00228876
0.00223688
0.00225509
0.0022045
0.00222288
0.00217359
0.00219207
0.00214408
0.00216259
0.00211589
0.00213437
0.00208895
0.00210735
0.00206317
0.00208144
0.00203847
0.00205659
0.00201478
0.00203271
0.00199202
0.00200974
0.00197012
0.00198761
0.00194901
0.00196624
0.00192863
0.00194559
0.0019089
0.00192559
0.00188978
0.00190617
0.00187119
0.00188728
0.00185308
0.00469652
0.00440556
0.00438557
0.00409854
0.00408413
0.00380417
0.00379423
0.00352383
0.00351727
0.00325809
0.00325398
0.00301767
0.00301259
0.00295813
0.00295306
0.002906
0.00290416
0.00285448
0.00285566
0.00280374
0.00280772
0.00275393
0.00276049
0.0027052
0.00271411
0.0026577
0.00266871
0.00261154
0.00262441
0.00256681
0.00258131
0.00252358
0.0025395
0.00248192
0.00249905
0.00244184
0.00245999
0.00240336
0.00242235
0.00236647
0.00238614
0.00233115
0.00235135
0.00229735
0.00231796
0.00226504
0.00228593
0.00223415
0.00225523
0.00220463
0.00222579
0.00217639
0.00219756
0.00214938
0.00217049
0.00212353
0.00214452
0.00209875
0.00211957
0.00207499
0.00209558
0.00205217
0.00207251
0.00203022
0.00205027
0.00200907
0.00202881
0.00198867
0.00200807
0.00196894
0.00198799
0.00194984
0.00196851
0.00193131
0.0019496
0.00191328
0.00193118
0.00189572
0.00191321
0.00187856
0.00439739
0.0040989
0.00408523
0.00379686
0.00378729
0.00351214
0.00350514
0.00324531
0.00323946
0.0030105
0.00300321
0.0029552
0.00294969
0.00290257
0.00290046
0.00285109
0.00285224
0.00280085
0.00280506
0.00275195
0.002759
0.00270448
0.00271414
0.00265853
0.00267055
0.00261413
0.00262826
0.00257132
0.00258731
0.00253013
0.00254774
0.00249054
0.00250956
0.00245256
0.00247276
0.00241616
0.00243734
0.00238131
0.00240328
0.00234796
0.00237056
0.00231606
0.00233914
0.00228556
0.00230897
0.0022564
0.00228002
0.00222851
0.00225224
0.00220182
0.00222556
0.00217627
0.00219993
0.00215178
0.0021753
0.0021283
0.0021516
0.00210575
0.00212879
0.00208406
0.00210679
0.00206318
0.00208556
0.00204304
0.00206504
0.00202359
0.00204517
0.00200476
0.00202591
0.0019865
0.0020072
0.00196877
0.00198899
0.0019515
0.00197125
0.00193466
0.00195392
0.0019182
0.00193696
0.00190208
0.00408388
0.00378945
0.00377896
0.00350257
0.00349375
0.00323814
0.00322905
0.00300782
0.00299829
0.00295286
0.00294649
0.00289891
0.00289616
0.00284636
0.00284715
0.00279551
0.00279966
0.00274648
0.00275377
0.00269934
0.00270951
0.00265411
0.0026669
0.00261078
0.00262593
0.00256933
0.00258657
0.00252971
0.00254878
0.00249187
0.00251252
0.00245574
0.00247774
0.00242127
0.0024444
0.00238838
0.00241243
0.002357
0.00238179
0.00232706
0.0023524
0.00229848
0.00232423
0.00227119
0.0022972
0.00224511
0.00227126
0.00222017
0.00224634
0.00219628
0.00222238
0.0021734
0.00219934
0.00215143
0.00217714
0.00213033
0.00215574
0.00211002
0.00213508
0.00209044
0.0021151
0.00207154
0.00209575
0.00205325
0.002077
0.00203553
0.00205878
0.00201833
0.00204105
0.00200159
0.00202377
0.00198528
0.0020069
0.00196934
0.00199039
0.00195375
0.00197421
0.00193845
0.00195832
0.00192341
0.00377189
0.00349767
0.00348579
0.00323836
0.00322514
0.00301056
0.00299801
0.00295249
0.00294464
0.00289592
0.00289216
0.00284114
0.0028413
0.00278856
0.00279242
0.00273836
0.00274567
0.0026906
0.00270109
0.00264527
0.00265865
0.0026023
0.00261828
0.0025616
0.00257989
0.00252305
0.00254337
0.00248655
0.00250864
0.00245198
0.00247558
0.00241921
0.00244409
0.00238815
0.00241407
0.00235866
0.00238543
0.00233066
0.00235808
0.00230403
0.00233193
0.00227868
0.0023069
0.00225451
0.00228291
0.00223145
0.00225989
0.00220939
0.00223778
0.00218827
0.00221651
0.00216801
0.00219601
0.00214855
0.00217622
0.00212981
0.0021571
0.00211173
0.00213859
0.00209426
0.00212063
0.00207734
0.00210319
0.00206092
0.00208622
0.00204496
0.00206967
0.0020294
0.0020535
0.00201421
0.00203768
0.00199934
0.00202217
0.00198477
0.00200694
0.00197045
0.00199195
0.00195635
0.00197718
0.00194244
0.0034837
0.00324666
0.00322895
0.00302561
0.00300579
0.00295551
0.00294603
0.00289454
0.00288959
0.00283613
0.0028355
0.00278061
0.00278405
0.00272818
0.0027354
0.00267888
0.00268957
0.00263263
0.00264648
0.00258932
0.002606
0.00254876
0.00256797
0.00251079
0.00253222
0.00247522
0.00249859
0.00244186
0.0024669
0.00241055
0.002437
0.00238111
0.00240874
0.0023534
0.00238197
0.00232726
0.00235657
0.00230255
0.00233242
0.00227915
0.00230941
0.00225695
0.00228743
0.00223584
0.00226641
0.00221571
0.00224625
0.00219649
0.00222687
0.00217807
0.00220821
0.00216039
0.00219021
0.00214337
0.00217279
0.00212696
0.00215591
0.00211109
0.00213952
0.0020957
0.00212357
0.00208074
0.00210802
0.00206618
0.00209282
0.00205196
0.00207794
0.00203805
0.00206334
0.0020244
0.00204899
0.00201099
0.00203486
0.00199778
0.00202092
0.00198475
0.00200715
0.00197186
0.00199351
0.0019591
0.00324316
0.00306017
0.00303107
0.00296402
0.00295217
0.00289668
0.00288983
0.00283269
0.0028308
0.00277265
0.00277536
0.00271673
0.00272364
0.00266484
0.00267557
0.00261682
0.00263099
0.00257244
0.00258969
0.00253142
0.00255142
0.00249351
0.00251593
0.00245845
0.00248297
0.00242596
0.00245231
0.00239583
0.00242371
0.00236781
0.00239698
0.0023417
0.00237192
0.00231731
0.00234836
0.00229446
0.00232614
0.00227299
0.00230512
0.00225276
0.00228516
0.00223364
0.00226616
0.0022155
0.00224802
0.00219824
0.00223063
0.00218176
0.00221391
0.00216597
0.0021978
0.00215081
0.00218222
0.00213618
0.00216711
0.00212203
0.00215243
0.00210831
0.00213811
0.00209496
0.00212412
0.00208193
0.00211042
0.00206919
0.00209697
0.00205668
0.00208373
0.00204439
0.00207068
0.00203227
0.00205779
0.0020203
0.00204503
0.00200845
0.00203238
0.00199669
0.00201982
0.00198501
0.00200732
0.00197339
0.00307685
0.00298236
0.0029651
0.00290528
0.00289524
0.00283284
0.00282896
0.00276612
0.00276762
0.00270507
0.00271133
0.00264936
0.00265986
0.00259859
0.00261287
0.00255235
0.00256998
0.00251023
0.00253085
0.00247185
0.00249509
0.00243685
0.00246237
0.00240488
0.00243236
0.00237561
0.00240478
0.00234877
0.00237935
0.00232408
0.00235581
0.00230131
0.00233395
0.00228022
0.00231356
0.00226062
0.00229447
0.00224233
0.0022765
0.0022252
0.00225953
0.00220907
0.00224342
0.00219382
0.00222807
0.00217934
0.00221336
0.00216552
0.00219922
0.00215229
0.00218556
0.00213955
0.00217233
0.00212723
0.00215946
0.00211528
0.00214689
0.00210364
0.00213459
0.00209226
0.0021225
0.0020811
0.0021106
0.00207012
0.00209885
0.00205929
0.00208722
0.00204857
0.00207568
0.00203793
0.00206422
0.00202737
0.0020528
0.00201684
0.00204142
0.00200634
0.00203005
0.00199585
0.00201868
0.00198534
0.00299779
0.00292536
0.00291055
0.00283923
0.00283249
0.00276282
0.00276249
0.00269463
0.00269973
0.00263362
0.00264345
0.00257896
0.00259297
0.00252996
0.00254766
0.00248602
0.00250697
0.00244657
0.00247038
0.00241113
0.00243743
0.00237926
0.0024077
0.00235054
0.00238081
0.0023246
0.00235641
0.00230112
0.00233419
0.00227978
0.00231386
0.00226033
0.00229518
0.0022425
0.00227793
0.0022261
0.0022619
0.00221092
0.00224693
0.0021968
0.00223285
0.00218358
0.00221954
0.00217112
0.00220688
0.00215933
0.00219476
0.00214808
0.00218309
0.00213729
0.0021718
0.00212688
0.00216082
0.00211678
0.00215009
0.00210694
0.00213956
0.0020973
0.00212919
0.00208781
0.00211893
0.00207845
0.00210876
0.00206916
0.00209865
0.00205993
0.00208857
0.00205072
0.00207849
0.00204153
0.00206841
0.00203231
0.0020583
0.00202307
0.00204815
0.00201378
0.00203794
0.00200444
0.00202767
0.00199502
0.00294318
0.00285813
0.00284545
0.00276707
0.00276266
0.00268854
0.00269085
0.00262
0.00262797
0.00255981
0.00257264
0.0025068
0.00252386
0.00246003
0.00248077
0.00241872
0.00244267
0.00238222
0.00240894
0.00234993
0.00237903
0.00232133
0.00235246
0.00229596
0.00232879
0.00227341
0.00230763
0.0022533
0.00228864
0.00223531
0.00227152
0.00221914
0.00225599
0.00220453
0.00224181
0.00219124
0.00222878
0.00217909
0.00221671
0.00216788
0.00220543
0.00215746
0.00219482
0.00214769
0.00218474
0.00213847
0.0021751
0.00212967
0.0021658
0.00212122
0.00215677
0.00211304
0.00214794
0.00210506
0.00213925
0.00209722
0.00213066
0.00208948
0.00212213
0.0020818
0.00211362
0.00207414
0.0021051
0.00206647
0.00209655
0.00205876
0.00208794
0.00205101
0.00207927
0.00204318
0.0020705
0.00203526
0.00206165
0.00202724
0.00205268
0.00201912
0.0020436
0.00201087
0.00203439
0.00200251
0.00287102
0.00278211
0.00277149
0.0026899
0.00268752
0.00261114
0.00261569
0.00254332
0.00255374
0.00248465
0.00250009
0.00243376
0.00245352
0.00238957
0.00241303
0.00235116
0.00237781
0.00231779
0.00234715
0.00228878
0.00232044
0.00226354
0.00229712
0.00224158
0.00227673
0.00222243
0.00225884
0.00220568
0.00224308
0.002191
0.00222913
0.00217805
0.00221669
0.00216657
0.00220551
0.00215632
0.00219539
0.00214709
0.00218611
0.00213868
0.00217753
0.00213095
0.0021695
0.00212376
0.00216189
0.00211698
0.00215461
0.00211052
0.00214756
0.00210429
0.00214068
0.00209822
0.00213388
0.00209224
0.00212714
0.00208631
0.00212038
0.00208037
0.00211359
0.00207439
0.00210673
0.00206834
0.00209978
0.00206219
0.00209271
0.00205593
0.0020855
0.00204954
0.00207815
0.00204301
0.00207065
0.00203631
0.00206298
0.00202946
0.00205514
0.00202244
0.00204713
0.00201524
0.00203894
0.00200787
0.00278804
0.00269848
0.00269046
0.00260781
0.00260784
0.0025306
0.00253756
0.00246468
0.00247758
0.00240831
0.0024263
0.00236008
0.00238242
0.00231885
0.00234489
0.00228362
0.00231281
0.00225356
0.00228541
0.00222796
0.00226201
0.00220617
0.00224202
0.00218765
0.00222494
0.0021719
0.00221032
0.0021585
0.00219776
0.00214707
0.00218693
0.00213728
0.00217751
0.00212885
0.00216925
0.00212153
0.00216193
0.00211511
0.00215535
0.0021094
0.00214935
0.00210424
0.00214378
0.00209949
0.00213853
0.00209504
0.00213349
0.0020908
0.00212857
0.00208667
0.00212371
0.00208258
0.00211884
0.00207849
0.00211391
0.00207434
0.00210889
0.00207009
0.00210374
0.0020657
0.00209843
0.00206117
0.00209294
0.00205646
0.00208726
0.00205155
0.00208138
0.00204644
0.00207528
0.00204112
0.00206896
0.00203558
0.00206241
0.00202982
0.00205564
0.00202384
0.00204864
0.00201763
0.00204141
0.0020112
0.00269692
0.00260839
0.00260327
0.00252102
0.0025238
0.00244682
0.00245645
0.00238389
0.00239944
0.00233063
0.00235125
0.00228566
0.00231061
0.00224781
0.00227643
0.00221608
0.00224777
0.00218957
0.00222381
0.00216753
0.00220385
0.00214929
0.00218728
0.00213425
0.00217355
0.00212192
0.0021622
0.00211184
0.00215282
0.00210362
0.00214504
0.00209692
0.00213858
0.00209146
0.00213315
0.00208698
0.00212854
0.00208326
0.00212455
0.00208013
0.00212101
0.00207742
0.00211779
0.00207499
0.00211477
0.00207275
0.00211184
0.00207059
0.00210894
0.00206844
0.00210598
0.00206622
0.00210292
0.0020639
0.0020997
0.00206141
0.0020963
0.00205874
0.00209268
0.00205586
0.00208882
0.00205273
0.00208471
0.00204936
0.00208033
0.00204572
0.00207568
0.00204181
0.00207075
0.00203762
0.00206554
0.00203316
0.00206005
0.00202842
0.00205428
0.0020234
0.00204823
0.00201812
0.00204191
0.00201256
0.00259944
0.00251293
0.00251081
0.00243001
0.00243571
0.00235987
0.00237237
0.00230084
0.00231921
0.00225143
0.00227482
0.00221031
0.00223795
0.00217632
0.00220752
0.00214842
0.00218258
0.00212571
0.0021623
0.00210742
0.00214594
0.00209284
0.00213288
0.00208136
0.00212255
0.00207247
0.00211448
0.0020657
0.00210825
0.00206065
0.0021035
0.00205699
0.00209992
0.00205442
0.00209725
0.00205268
0.00209525
0.00205157
0.00209375
0.0020509
0.00209257
0.00205053
0.00209158
0.00205031
0.00209067
0.00205015
0.00208975
0.00204996
0.00208874
0.00204966
0.00208757
0.0020492
0.0020862
0.00204853
0.00208458
0.00204761
0.00208269
0.00204641
0.0020805
0.00204491
0.002078
0.0020431
0.00207517
0.00204097
0.00207201
0.0020385
0.0020685
0.0020357
0.00206466
0.00203257
0.00206049
0.0020291
0.00205598
0.00202531
0.00205114
0.0020212
0.00204598
0.00201677
0.00204051
0.00201204
0.00249692
0.00241308
0.00241396
0.00233532
0.002344
0.00227001
0.00228547
0.00221561
0.00223688
0.00217068
0.00219689
0.00213393
0.0021643
0.00210421
0.00213803
0.00208049
0.00211713
0.00206185
0.00210075
0.00204749
0.00208816
0.0020367
0.00207872
0.00202887
0.00207186
0.00202346
0.0020671
0.00202
0.00206402
0.00201811
0.00206226
0.00201743
0.00206151
0.00201768
0.00206152
0.00201861
0.00206206
0.00202001
0.00206294
0.00202171
0.00206402
0.00202356
0.00206516
0.00202544
0.00206626
0.00202726
0.00206723
0.00202892
0.00206799
0.00203036
0.00206851
0.00203154
0.00206872
0.00203241
0.0020686
0.00203295
0.00206812
0.00203312
0.00206726
0.00203291
0.00206602
0.00203232
0.00206438
0.00203133
0.00206234
0.00202995
0.00205991
0.00202818
0.00205708
0.00202602
0.00205386
0.00202348
0.00205027
0.00202057
0.0020463
0.00201729
0.00204197
0.00201367
0.00203729
0.0020097
0.00239036
0.00230963
0.00231346
0.00223752
0.00224918
0.0021776
0.00219603
0.00212836
0.00215256
0.00208842
0.00211749
0.0020565
0.00208961
0.00203144
0.00206786
0.0020122
0.00205129
0.00199787
0.00203904
0.00198763
0.00203039
0.00198077
0.00202469
0.00197666
0.00202137
0.00197478
0.00201995
0.00197465
0.00202002
0.00197589
0.00202123
0.00197816
0.00202327
0.00198117
0.0020259
0.0019847
0.00202889
0.00198853
0.00203209
0.0019925
0.00203533
0.00199648
0.0020385
0.00200036
0.0020415
0.00200404
0.00204426
0.00200745
0.00204671
0.00201053
0.0020488
0.00201324
0.00205049
0.00201556
0.00205177
0.00201744
0.00205261
0.00201889
0.00205299
0.00201988
0.00205291
0.00202041
0.00205238
0.00202049
0.00205139
0.00202011
0.00204994
0.00201929
0.00204805
0.00201803
0.00204572
0.00201634
0.00204297
0.00201424
0.00203981
0.00201174
0.00203625
0.00200885
0.00203231
0.00200558
0.00228059
0.0022033
0.00220999
0.00213717
0.00215176
0.00208302
0.00210439
0.00203936
0.00206648
0.00200481
0.00203671
0.00197808
0.00201391
0.001958
0.00199699
0.00194352
0.001985
0.00193371
0.00197709
0.00192776
0.00197253
0.00192494
0.00197067
0.00192464
0.00197096
0.00192633
0.00197292
0.00192954
0.00197615
0.0019339
0.0019803
0.00193908
0.00198509
0.0019448
0.00199029
0.00195085
0.00199568
0.00195704
0.0020011
0.0019632
0.00200642
0.00196922
0.00201154
0.00197499
0.00201636
0.00198044
0.00202081
0.0019855
0.00202484
0.00199013
0.00202842
0.00199428
0.00203151
0.00199794
0.00203409
0.00200109
0.00203615
0.00200372
0.00203769
0.00200582
0.0020387
0.00200739
0.00203919
0.00200845
0.00203916
0.002009
0.00203863
0.00200906
0.00203761
0.00200862
0.00203611
0.00200772
0.00203414
0.00200637
0.00203173
0.00200458
0.00202889
0.00200236
0.00202563
0.00199975
0.00216827
0.00209468
0.00210414
0.00203474
0.0020522
0.00198666
0.00201093
0.0019489
0.00197888
0.00192005
0.00195474
0.0018988
0.00193729
0.00188396
0.00192545
0.00187447
0.00191826
0.00186937
0.00191486
0.00186784
0.00191451
0.00186917
0.00191659
0.00187274
0.00192054
0.00187802
0.00192591
0.00188458
0.0019323
0.00189204
0.00193938
0.00190009
0.00194689
0.00190848
0.0019546
0.00191699
0.00196232
0.00192545
0.00196991
0.00193373
0.00197724
0.0019417
0.00198422
0.00194929
0.00199077
0.00195642
0.00199683
0.00196304
0.00200237
0.00196912
0.00200734
0.00197463
0.00201174
0.00197955
0.00201554
0.00198387
0.00201875
0.00198759
0.00202136
0.00199072
0.00202338
0.00199327
0.00202482
0.00199523
0.0020257
0.00199664
0.00202601
0.00199749
0.0020258
0.00199783
0.00202506
0.00199765
0.00202382
0.00199698
0.0020221
0.00199584
0.00201992
0.00199426
0.0020173
0.00199224
0.00205399
0.00198427
0.00199642
0.0019307
0.00195095
0.00188889
0.00191599
0.00185727
0.00189006
0.00183438
0.00187178
0.00181885
0.00185992
0.00180946
0.00185336
0.00180513
0.00185113
0.00180488
0.00185236
0.00180788
0.00185634
0.00181343
0.00186242
0.00182091
0.00187008
0.00182981
0.00187886
0.00183971
0.0018884
0.00185024
0.00189839
0.00186113
0.00190858
0.00187212
0.00191875
0.00188303
0.00192875
0.0018937
0.00193843
0.00190401
0.0019477
0.00191386
0.00195646
0.00192318
0.00196467
0.00193191
0.00197227
0.00194001
0.00197922
0.00194746
0.00198552
0.00195424
0.00199115
0.00196034
0.0019961
0.00196576
0.00200038
0.0019705
0.002004
0.00197459
0.00200696
0.00197803
0.00200929
0.00198083
0.00201099
0.00198302
0.00201209
0.00198462
0.00201262
0.00198565
0.00201259
0.00198614
0.00201202
0.00198611
0.00201094
0.00198557
0.00200938
0.00198457
0.00200735
0.00198311
0.00193823
0.00187254
0.00188729
0.00182544
0.00184841
0.00179008
0.00181994
0.00176479
0.0018003
0.00174805
0.00178808
0.00173843
0.00178198
0.00173466
0.00178085
0.00173562
0.0017837
0.00174032
0.00178968
0.00174793
0.00179803
0.00175774
0.00180816
0.00176915
0.00181954
0.00178167
0.00183174
0.00179488
0.00184441
0.00180845
0.00185728
0.00182212
0.00187009
0.00183566
0.00188268
0.0018489
0.00189489
0.00186171
0.0019066
0.00187398
0.00191773
0.00188563
0.00192822
0.0018966
0.001938
0.00190685
0.00194706
0.00191636
0.00195537
0.0019251
0.00196293
0.00193308
0.00196971
0.00194028
0.00197575
0.00194673
0.00198103
0.00195243
0.00198559
0.00195741
0.00198943
0.00196167
0.00199257
0.00196525
0.00199505
0.00196817
0.00199689
0.00197045
0.0019981
0.00197213
0.00199873
0.00197323
0.00199878
0.00197378
0.0019983
0.0019738
0.00199731
0.00197333
0.00199583
0.00197238
0.00182145
0.00175988
0.00177716
0.00171935
0.00174497
0.00169056
0.00172311
0.00167176
0.00170992
0.00166133
0.0017039
0.00165777
0.00170368
0.00165974
0.0017081
0.00166609
0.00171613
0.00167582
0.00172689
0.00168808
0.00173967
0.00170217
0.00175385
0.0017175
0.00176894
0.00173361
0.00178454
0.00175009
0.00180031
0.00176665
0.001816
0.00178304
0.00183139
0.00179906
0.00184633
0.00181456
0.00186068
0.00182944
0.00187436
0.00184359
0.00188729
0.00185696
0.00189943
0.00186951
0.00191073
0.00188121
0.00192119
0.00189205
0.00193078
0.00190202
0.00193952
0.00191112
0.00194741
0.00191937
0.00195446
0.00192678
0.00196069
0.00193337
0.00196612
0.00193917
0.00197078
0.00194421
0.0019747
0.0019485
0.0019779
0.00195209
0.00198041
0.001955
0.00198226
0.00195727
0.00198349
0.00195893
0.00198413
0.00196002
0.0019842
0.00196055
0.00198374
0.00196057
0.00198277
0.0019601
0.00170403
0.00164667
0.0016664
0.00161275
0.00164097
0.00159065
0.00162583
0.00157848
0.00161921
0.00157449
0.0016195
0.0015771
0.00162528
0.00158492
0.00163531
0.00159673
0.00164856
0.00161152
0.00166414
0.00162843
0.00168134
0.00164679
0.00169956
0.00166601
0.00171833
0.00168566
0.00173728
0.00170536
0.00175609
0.00172484
0.00177455
0.00174387
0.00179245
0.00176229
0.00180967
0.00177998
0.00182611
0.00179684
0.00184168
0.0018128
0.00185634
0.00182782
0.00187006
0.00184187
0.00188281
0.00185495
0.00189459
0.00186705
0.00190541
0.00187817
0.00191527
0.00188834
0.0019242
0.00189757
0.00193221
0.00190589
0.00193933
0.00191332
0.0019456
0.00191989
0.00195103
0.00192564
0.00195566
0.0019306
0.00195953
0.00193481
0.00196267
0.0019383
0.00196512
0.00194111
0.00196692
0.00194328
0.00196809
0.00194485
0.00196868
0.00194586
0.00196871
0.00194633
0.00196822
0.0019463
0.0015863
0.00153321
0.00155534
0.00150597
0.00153673
0.00149065
0.00152841
0.00148523
0.00152846
0.00148781
0.00153516
0.0014967
0.001547
0.00151042
0.0015627
0.00152772
0.00158119
0.00154757
0.00160158
0.00156913
0.00162317
0.0015917
0.00164539
0.00161476
0.00166778
0.00163787
0.00169001
0.00166071
0.0017118
0.00168302
0.00173294
0.00170462
0.00175328
0.00172536
0.00177271
0.00174514
0.00179114
0.0017639
0.00180854
0.00178158
0.00182485
0.00179817
0.00184008
0.00181366
0.00185421
0.00182804
0.00186726
0.00184133
0.00187924
0.00185355
0.00189018
0.00186473
0.00190009
0.00187488
0.00190901
0.00188405
0.00191697
0.00189226
0.00192402
0.00189956
0.00193017
0.00190598
0.00193548
0.00191156
0.00193998
0.00191634
0.00194371
0.00192036
0.00194671
0.00192367
0.00194903
0.00192631
0.0019507
0.00192833
0.00195176
0.00192976
0.00195225
0.00193064
0.00195221
0.00193103
0.00146859
0.00141982
0.00144428
0.00139929
0.00143256
0.00139087
0.00143115
0.00139232
0.00143798
0.00140157
0.00145116
0.00141681
0.00146911
0.00143648
0.00149049
0.00145928
0.00151421
0.00148418
0.00153937
0.00151032
0.0015653
0.00153704
0.00159144
0.00156385
0.00161738
0.00159033
0.00164281
0.00161621
0.00166747
0.00164125
0.00169121
0.0016653
0.00171389
0.00168826
0.00173544
0.00171004
0.00175579