/*--------------------------------*- C++ -*----------------------------------*\
| =========                 |                                                 |
| \\      /  F ield         | OpenFOAM: The Open Source CFD Toolbox           |
|  \\    /   O peration     | Version:  v2012                                 |
|   \\  /    A nd           | Website:  www.openfoam.com                      |
|    \\/     M anipulation  |                                                 |
\*---------------------------------------------------------------------------*/
FoamFile
{
    version     2.0;
    format      ascii;
    class       pointSymmTensorField;
    location    "7";
    object      pEpsilon;
}
// * * * * * * * * * * * * * * * * * * * * * * * * * * * * * * * * * * * * * //

dimensions      [0 0 0 0 0 0 0];


internalField   nonuniform List<symmTensor> 
32562
(
(0.000823985 -2.52255e-05 0 -0.00204292 0 0)
(0.00103705 -4.38629e-06 0 -8.98688e-05 0 0)
(0.00121589 1.57012e-07 0 -0.000521123 0 0)
(0.000797019 3.21675e-05 0 -0.000351192 0 0)
(0.00650305 -0.000116364 0 -0.00420764 -4.33681e-18 0)
(0.000236107 -2.24304e-05 0 -0.000315584 0 0)
(0.00211438 4.30695e-05 0 -0.000582149 0 0)
(0.00184716 -0.000314743 0 -0.00113472 0 0)
(0.00217097 4.47084e-06 0 -0.000925804 0 0)
(0.00114476 -8.29459e-06 0 -0.000352154 0 0)
(0.000291023 -0.000610579 0 0.000189583 0 0)
(0.000291023 -0.000610579 0 0.000189583 0 0)
(0.00184716 -0.000314743 0 -0.00113472 0 0)
(0.00211438 4.30695e-05 0 -0.000582149 0 0)
(0.00650305 -0.000116364 0 -0.00420764 -4.33681e-18 0)
(0.000823985 -2.52255e-05 0 -0.00204292 0 0)
(0.000236107 -2.24304e-05 0 -0.000315584 0 0)
(0.00103705 -4.38629e-06 0 -8.98688e-05 0 0)
(0.00114476 -8.29459e-06 0 -0.000352154 0 0)
(0.00121589 1.57012e-07 0 -0.000521123 0 0)
(0.00217097 4.47084e-06 0 -0.000925804 0 0)
(0.000797019 3.21675e-05 0 -0.000351192 0 0)
(0.00210489 4.55784e-05 3.38813e-20 -0.00059328 0 0)
(0.00211046 9.20541e-05 0 -0.000601251 0 0)
(0.00211916 0.000136935 0 -0.000613727 0 0)
(0.00213072 0.000179148 0 -0.000630358 0 0)
(0.00214463 0.000218004 0 -0.000650551 -1.0842e-18 0)
(0.00216028 0.00025301 0 -0.000673644 0 0)
(0.0021771 0.000283839 0 -0.000698961 0 0)
(0.00219449 0.000310315 0 -0.000725852 0 0)
(0.00221192 0.000332385 0 -0.000753719 0 0)
(0.00222893 0.000350099 0 -0.000782039 0 0)
(0.00224511 0.00036358 0 -0.000810368 0 0)
(0.00226012 0.000373004 2.71051e-19 -0.000838345 0 0)
(0.00227371 0.000378577 0 -0.00086569 0 0)
(0.00228568 0.000380522 0 -0.000892197 0 0)
(0.00229587 0.00037906 5.42101e-19 -0.00091772 0 0)
(0.00230418 0.000374407 0 -0.000942164 0 0)
(0.00231055 0.000366764 0 -0.000965474 0 0)
(0.00231492 0.000356317 0 -0.000987622 1.0842e-18 0)
(0.00231727 0.000343231 0 -0.0010086 0 0)
(0.00231758 0.000327657 0 -0.0010284 0 0)
(0.00231584 0.000309734 0 -0.00104703 0 0)
(0.00231202 0.000289589 0 -0.00106448 0 0)
(0.00230612 0.000267341 0 -0.00108074 0 0)
(0.0022981 0.000243112 5.42101e-19 -0.00109578 0 0)
(0.00228794 0.000217023 0 -0.00110958 0 0)
(0.00227561 0.000189199 5.42101e-19 -0.00112207 0 0)
(0.00226107 0.000159778 0 -0.00113322 0 0)
(0.00224428 0.000128903 0 -0.00114296 0 0)
(0.00222521 9.67295e-05 0 -0.00115122 0 0)
(0.00220384 6.34244e-05 1.0842e-18 -0.00115794 0 0)
(0.00218015 2.91644e-05 0 -0.00116306 0 0)
(0.00215412 -5.86387e-06 0 -0.00116653 0 0)
(0.00212575 -4.14652e-05 0 -0.00116829 0 0)
(0.00209507 -7.74353e-05 0 -0.00116832 0 0)
(0.00206213 -0.000113556 0 -0.00116662 0 0)
(0.00202702 -0.000149576 0 -0.00116325 0 0)
(0.00198994 -0.000185134 0 -0.00115836 0 0)
(0.00195129 -0.000219413 0 -0.00115239 0 0)
(0.001912 -0.000249043 0 -0.00114689 0 0)
(0.00179804 -0.000354068 0 -0.00109788 0 0)
(0.00175268 -0.000384706 0 -0.0010907 0 0)
(0.00170476 -0.000413772 0 -0.00107753 0 0)
(0.00165496 -0.000441334 0 -0.00106108 0 0)
(0.00160365 -0.000467242 0 -0.00104231 -2.71051e-19 0)
(0.00155109 -0.000491332 0 -0.00102169 -2.71051e-19 0)
(0.00149748 -0.00051345 0 -0.000999496 0 0)
(0.00144302 -0.000533462 0 -0.000975938 0 0)
(0.00138789 -0.000551252 0 -0.000951182 0 0)
(0.00133226 -0.000566723 2.1684e-18 -0.000925377 0 0)
(0.00127632 -0.000579793 0 -0.000898668 0 0)
(0.00122025 -0.000590397 0 -0.000871196 0 0)
(0.00116422 -0.000598484 0 -0.0008431 0 0)
(0.0011084 -0.000604018 0 -0.000814522 0 0)
(0.00105298 -0.000606973 0 -0.000785601 0 0)
(0.00099813 -0.000607338 0 -0.000756477 0 0)
(0.000944019 -0.000605116 0 -0.000727289 0 0)
(0.000890821 -0.000600317 0 -0.000698176 -1.35525e-19 0)
(0.000838702 -0.000592968 0 -0.000669274 0 0)
(0.000787826 -0.000583102 0 -0.000640717 0 0)
(0.000738352 -0.000570767 0 -0.000612639 0 0)
(0.000690436 -0.000556018 0 -0.000585168 0 0)
(0.000644229 -0.000538922 0 -0.000558429 -6.77626e-20 0)
(0.000599874 -0.000519554 0 -0.000532546 0 0)
(0.000557513 -0.000498001 0 -0.000507636 0 0)
(0.000517277 -0.000474356 0 -0.000483812 0 0)
(0.000479295 -0.00044872 0 -0.000461181 0 0)
(0.000443685 -0.000421204 0 -0.000439847 0 0)
(0.000410563 -0.000391924 0 -0.000419907 0 0)
(0.000380033 -0.000361006 0 -0.000401453 0 0)
(0.000352194 -0.000328579 0 -0.000384568 0 0)
(0.000327139 -0.000294781 0 -0.000369333 0 0)
(0.000304951 -0.000259753 0 -0.000355821 0 0)
(0.000285707 -0.000223639 0 -0.000344098 -1.69407e-20 0)
(0.00026948 -0.000186589 0 -0.00033423 0 0)
(0.000256342 -0.000148745 0 -0.000326279 0 0)
(0.000246381 -0.000110227 0 -0.000320324 -8.47033e-21 0)
(0.00023975 -7.10566e-05 0 -0.000316482 0 0)
(0.000236884 -3.07221e-05 0 -0.000314924 0 0)
(0.000790324 -2.72919e-05 0 -0.00191781 0 0)
(0.000735412 -2.34126e-05 0 -0.00181146 0 0)
(0.000683564 -2.16134e-05 0 -0.00171356 0 0)
(0.0006349 -2.09113e-05 0 -0.00162214 0 0)
(0.000589602 -2.07935e-05 0 -0.00153639 0 0)
(0.000547719 -2.09841e-05 0 -0.00145584 0 0)
(0.000509189 -2.13315e-05 0 -0.00138011 0 0)
(0.000473886 -2.17508e-05 0 -0.00130889 0 0)
(0.000441646 -2.21941e-05 0 -0.00124189 0 0)
(0.00041229 -2.26345e-05 0 -0.00117884 0 0)
(0.000385637 -2.30568e-05 0 -0.00111948 0 0)
(0.000361506 -2.3453e-05 0 -0.00106359 0 0)
(0.000339726 -2.38188e-05 0 -0.00101093 0 0)
(0.000320133 -2.41527e-05 0 -0.000961318 0 0)
(0.000302572 -2.44542e-05 0 -0.000914548 0 0)
(0.000286897 -2.47242e-05 0 -0.000870446 0 0)
(0.000272975 -2.49634e-05 0 -0.000828845 0 0)
(0.000260678 -2.51734e-05 0 -0.000789592 0 0)
(0.000249888 -2.53555e-05 0 -0.000752543 0 0)
(0.000240497 -2.55112e-05 0 -0.000717562 0 0)
(0.000232402 -2.56418e-05 0 -0.000684525 0 0)
(0.00022551 -2.57488e-05 0 -0.000653315 0 0)
(0.00021973 -2.58332e-05 0 -0.000623823 0 0)
(0.000214983 -2.58961e-05 0 -0.000595947 0 0)
(0.00021119 -2.59382e-05 0 -0.000569591 0 0)
(0.000208281 -2.59601e-05 0 -0.000544668 0 0)
(0.000206189 -2.59616e-05 0 -0.000521094 0 0)
(0.000204851 -2.59423e-05 0 -0.000498791 0 0)
(0.000204208 -2.59009e-05 0 -0.000477687 0 0)
(0.000204204 -2.58348e-05 0 -0.000457716 0 0)
(0.000204786 -2.57402e-05 0 -0.000438813 0 0)
(0.000205901 -2.56107e-05 0 -0.000420923 0 0)
(0.0002075 -2.54374e-05 0 -0.000403993 0 0)
(0.000209532 -2.52068e-05 0 -0.000387978 0 0)
(0.000211949 -2.49003e-05 0 -0.000372842 0 0)
(0.000214704 -2.44924e-05 0 -0.000358566 0 0)
(0.000217763 -2.39515e-05 0 -0.000345161 0 0)
(0.000221124 -2.32456e-05 0 -0.000332703 0 0)
(0.000224881 -2.23665e-05 0 -0.000321428 0 0)
(0.000249048 -2.10617e-05 0 -0.000295012 0 0)
(0.000260056 -2.17599e-05 0 -0.000269492 0 0)
(0.000273163 -2.15825e-05 0 -0.000247288 0 0)
(0.000287685 -2.10536e-05 0 -0.00022803 0 0)
(0.000303202 -2.03936e-05 0 -0.000211355 0 0)
(0.000319436 -1.96941e-05 0 -0.000196946 0 0)
(0.000336188 -1.89934e-05 0 -0.000184532 0 0)
(0.000353309 -1.83078e-05 0 -0.000173882 0 0)
(0.000370681 -1.76443e-05 0 -0.000164796 0 0)
(0.000388212 -1.70054e-05 0 -0.000157102 0 0)
(0.000405826 -1.63922e-05 0 -0.00015065 0 0)
(0.000423461 -1.58045e-05 0 -0.00014531 0 0)
(0.000441068 -1.52419e-05 0 -0.000140968 0 0)
(0.000458606 -1.47036e-05 0 -0.000137522 0 0)
(0.000476041 -1.41888e-05 0 -0.000134885 0 0)
(0.000493345 -1.36966e-05 0 -0.000132978 0 0)
(0.000510497 -1.3226e-05 0 -0.000131729 0 0)
(0.000527479 -1.27761e-05 0 -0.000131077 0 0)
(0.000544276 -1.2346e-05 0 -0.000130965 0 0)
(0.000560875 -1.19347e-05 0 -0.000131343 0 0)
(0.000577269 -1.15414e-05 0 -0.000132164 0 0)
(0.000593449 -1.11653e-05 0 -0.000133385 0 0)
(0.000609409 -1.08054e-05 0 -0.00013497 0 0)
(0.000625145 -1.04611e-05 0 -0.000136883 0 0)
(0.000640653 -1.01316e-05 0 -0.000139091 0 0)
(0.00065593 -9.81612e-06 0 -0.000141564 0 0)
(0.000670974 -9.51409e-06 0 -0.000144275 0 0)
(0.000685784 -9.22483e-06 0 -0.000147196 0 0)
(0.000700357 -8.94774e-06 0 -0.000150303 0 0)
(0.000714693 -8.68224e-06 0 -0.000153573 0 0)
(0.000728791 -8.42779e-06 0 -0.000156983 0 0)
(0.00074265 -8.18389e-06 0 -0.000160512 0 0)
(0.000756268 -7.95004e-06 0 -0.000164141 0 0)
(0.000769644 -7.72579e-06 0 -0.000167848 0 0)
(0.000782779 -7.5107e-06 0 -0.000171616 0 0)
(0.00079567 -7.30438e-06 0 -0.000175426 0 0)
(0.000808316 -7.10642e-06 0 -0.00017926 0 0)
(0.000820716 -6.91647e-06 0 -0.0001831 0 0)
(0.000832868 -6.73417e-06 0 -0.000186931 0 0)
(0.000844769 -6.5592e-06 0 -0.000190733 0 0)
(0.000856419 -6.39125e-06 0 -0.000194492 0 0)
(0.000867814 -6.23001e-06 0 -0.000198189 0 0)
(0.000878951 -6.07521e-06 0 -0.00020181 0 0)
(0.000889828 -5.92656e-06 0 -0.000205337 0 0)
(0.000900441 -5.78382e-06 0 -0.000208754 0 0)
(0.000910786 -5.64673e-06 0 -0.000212044 0 0)
(0.000920859 -5.51505e-06 0 -0.000215192 0 0)
(0.000930656 -5.38855e-06 0 -0.000218179 0 0)
(0.000940172 -5.267e-06 0 -0.000220989 0 0)
(0.000949401 -5.15018e-06 0 -0.000223604 0 0)
(0.000958337 -5.03788e-06 0 -0.000226008 0 0)
(0.000966974 -4.92988e-06 0 -0.000228181 0 0)
(0.000975305 -4.82598e-06 0 -0.000230105 0 0)
(0.000983321 -4.72596e-06 0 -0.000231761 0 0)
(0.000991016 -4.62963e-06 0 -0.00023313 0 0)
(0.000998378 -4.53676e-06 0 -0.000234191 0 0)
(0.0010054 -4.44716e-06 0 -0.000234922 0 0)
(0.00101207 -4.36062e-06 0 -0.000235301 0 0)
(0.00101837 -4.27691e-06 0 -0.000235307 0 0)
(0.0010243 -4.19584e-06 0 -0.000234913 0 0)
(0.00102984 -4.11716e-06 0 -0.000234096 0 0)
(0.00103497 -4.04067e-06 0 -0.000232829 0 0)
(0.00103969 -3.96614e-06 0 -0.000231084 0 0)
(0.00104396 -3.89334e-06 0 -0.000228831 0 0)
(0.00104778 -3.82204e-06 0 -0.00022604 0 0)
(0.00105112 -3.75202e-06 0 -0.000222679 0 0)
(0.00105396 -3.68307e-06 0 -0.000218712 0 0)
(0.00105628 -3.61499e-06 0 -0.000214103 0 0)
(0.00105805 -3.54763e-06 0 -0.000208814 0 0)
(0.00105925 -3.48094e-06 0 -0.000202804 0 0)
(0.00105984 -3.41498e-06 0 -0.000196031 0 0)
(0.00105981 -3.35015e-06 0 -0.000188449 0 0)
(0.00105911 -3.28741e-06 0 -0.00018001 0 0)
(0.00105772 -3.22902e-06 0 -0.000170666 0 0)
(0.00105562 -3.18006e-06 0 -0.000160368 0 0)
(0.0010528 -3.15244e-06 0 -0.000149065 0 0)
(0.00104927 -3.17528e-06 0 -0.000136711 0 0)
(0.00104513 -3.32496e-06 0 -0.000123245 0 0)
(0.00104062 -3.82448e-06 0 -0.00010848 0 0)
(0.00103549 2.98218e-07 0 -8.8762e-05 -2.11758e-21 0)
(0.00103607 1.09012e-06 0 -9.00945e-05 2.11758e-21 0)
(0.00103663 1.02009e-06 0 -9.12832e-05 -8.47033e-21 0)
(0.00103732 7.91445e-07 0 -9.27622e-05 -8.47033e-21 0)
(0.00103816 5.20625e-07 0 -9.46219e-05 -1.27055e-20 0)
(0.00103916 2.36698e-07 0 -9.68844e-05 -2.11758e-20 0)
(0.00104032 -5.15763e-08 0 -9.95524e-05 -1.69407e-20 0)
(0.00104165 -3.41378e-07 0 -0.000102623 -1.69407e-20 0)
(0.00104313 -6.31769e-07 0 -0.00010609 -1.69407e-20 0)
(0.00104478 -9.22407e-07 0 -0.000109947 -8.47033e-21 0)
(0.00104658 -1.21311e-06 0 -0.000114188 -8.47033e-21 0)
(0.00104854 -1.50374e-06 0 -0.000118805 -1.69407e-20 0)
(0.00105064 -1.7941e-06 0 -0.00012379 0 0)
(0.0010529 -2.08399e-06 0 -0.000129135 -1.69407e-20 0)
(0.0010553 -2.37318e-06 0 -0.00013483 -1.69407e-20 0)
(0.00105783 -2.66141e-06 0 -0.000140866 -1.69407e-20 0)
(0.0010605 -2.94838e-06 2.1684e-18 -0.000147234 -1.69407e-20 0)
(0.00106331 -3.23377e-06 0 -0.000153922 -1.69407e-20 0)
(0.00106623 -3.51725e-06 0 -0.00016092 0 0)
(0.00106928 -3.79845e-06 0 -0.000168215 0 0)
(0.00107245 -4.07697e-06 0 -0.000175795 0 0)
(0.00107572 -4.35239e-06 0 -0.000183648 0 0)
(0.0010791 -4.62426e-06 0 -0.00019176 0 0)
(0.00108258 -4.89211e-06 0 -0.000200118 0 0)
(0.00108614 -5.15543e-06 0 -0.000208706 0 0)
(0.0010898 -5.4137e-06 0 -0.000217511 0 0)
(0.00109353 -5.66635e-06 0 -0.000226517 0 0)
(0.00109734 -5.91282e-06 0 -0.000235708 0 0)
(0.00110122 -6.15253e-06 0 -0.000245069 -3.38813e-20 0)
(0.00110515 -6.38493e-06 0 -0.000254582 0 0)
(0.00110914 -6.60954e-06 0 -0.00026423 0 0)
(0.00111317 -6.826e-06 0 -0.000273997 0 0)
(0.00111724 -7.03429e-06 0 -0.000283866 0 0)
(0.00112133 -7.23499e-06 0 -0.000293818 0 0)
(0.00112545 -7.42987e-06 0 -0.000303837 0 0)
(0.00112958 -7.62309e-06 0 -0.000313907 0 0)
(0.0011337 -7.82407e-06 0 -0.000324013 0 0)
(0.00113779 -8.05679e-06 0 -0.000334135 -6.77626e-20 0)
(0.00114174 -8.40961e-06 0 -0.000344202 0 0)
(0.00114706 -8.02718e-06 0 -0.00035771 0 0)
(0.00114897 -8.23004e-06 0 -0.000362117 -6.77626e-20 0)
(0.00115083 -8.31717e-06 0 -0.000366524 0 0)
(0.00115266 -8.35048e-06 0 -0.000370922 0 0)
(0.00115448 -8.3562e-06 0 -0.000375306 0 0)
(0.00115628 -8.34621e-06 0 -0.000379671 0 0)
(0.00115807 -8.32617e-06 0 -0.000384013 0 0)
(0.00115985 -8.29898e-06 0 -0.00038833 -6.77626e-20 0)
(0.00116162 -8.26613e-06 0 -0.00039262 0 0)
(0.00116338 -8.22844e-06 0 -0.000396879 0 0)
(0.00116512 -8.18635e-06 0 -0.000401106 0 0)
(0.00116685 -8.14009e-06 0 -0.000405299 0 0)
(0.00116856 -8.08976e-06 0 -0.000409457 0 0)
(0.00117026 -8.03541e-06 0 -0.000413576 -1.35525e-19 0)
(0.00117194 -7.97703e-06 0 -0.000417656 0 0)
(0.0011736 -7.9146e-06 0 -0.000421693 0 0)
(0.00117525 -7.84807e-06 0 -0.000425687 0 0)
(0.00117688 -7.77741e-06 2.1684e-18 -0.000429635 0 0)
(0.00117849 -7.70256e-06 0 -0.000433536 0 0)
(0.00118007 -7.62349e-06 0 -0.000437387 0 0)
(0.00118164 -7.54014e-06 0 -0.000441186 0 0)
(0.00118318 -7.45248e-06 0 -0.000444931 0 0)
(0.00118471 -7.36045e-06 0 -0.000448621 0 0)
(0.0011862 -7.26403e-06 0 -0.000452252 0 0)
(0.00118768 -7.16316e-06 0 -0.000455824 0 0)
(0.00118912 -7.05782e-06 0 -0.000459334 0 0)
(0.00119054 -6.94798e-06 0 -0.00046278 0 0)
(0.00119194 -6.83359e-06 0 -0.000466159 0 0)
(0.00119331 -6.71465e-06 0 -0.000469471 0 0)
(0.00119464 -6.59111e-06 0 -0.000472712 0 0)
(0.00119595 -6.46296e-06 0 -0.000475882 -1.35525e-19 0)
(0.00119723 -6.33018e-06 0 -0.000478976 0 0)
(0.00119848 -6.19274e-06 0 -0.000481995 -1.35525e-19 0)
(0.00119969 -6.05065e-06 0 -0.000484935 0 0)
(0.00120087 -5.90389e-06 0 -0.000487794 0 0)
(0.00120202 -5.75245e-06 0 -0.000490571 -1.35525e-19 0)
(0.00120314 -5.59634e-06 0 -0.000493264 0 0)
(0.00120422 -5.43555e-06 0 -0.00049587 0 0)
(0.00120526 -5.27011e-06 0 -0.000498388 0 0)
(0.00120627 -5.10003e-06 0 -0.000500815 0 0)
(0.00120724 -4.92534e-06 0 -0.00050315 0 0)
(0.00120817 -4.74607e-06 0 -0.000505391 0 0)
(0.00120907 -4.56227e-06 0 -0.000507537 0 0)
(0.00120992 -4.37399e-06 0 -0.000509585 0 0)
(0.00121074 -4.1813e-06 0 -0.000511533 0 0)
(0.00121152 -3.98429e-06 0 -0.000513381 0 0)
(0.00121225 -3.78305e-06 0 -0.000515126 0 0)
(0.00121295 -3.57772e-06 0 -0.000516767 0 0)
(0.0012136 -3.36843e-06 0 -0.000518302 0 0)
(0.00121421 -3.15536e-06 0 -0.000519731 0 0)
(0.00121477 -2.9387e-06 0 -0.000521053 0 0)
(0.0012153 -2.7187e-06 0 -0.000522265 0 0)
(0.00121578 -2.49563e-06 0 -0.000523368 0 0)
(0.00121622 -2.26982e-06 0 -0.000524361 0 0)
(0.00121661 -2.04166e-06 0 -0.000525243 0 0)
(0.00121697 -1.81159e-06 0 -0.000526013 0 0)
(0.00121728 -1.58015e-06 0 -0.000526673 0 0)
(0.00121754 -1.34797e-06 0 -0.000527222 0 0)
(0.00121776 -1.11576e-06 0 -0.000527661 0 0)
(0.00121794 -8.84398e-07 0 -0.000527991 0 0)
(0.00121808 -6.54894e-07 0 -0.000528213 0 0)
(0.00121818 -4.2844e-07 0 -0.00052833 0 0)
(0.00121824 -2.06442e-07 0 -0.000528344 0 0)
(0.00121826 9.44247e-09 0 -0.000528258 0 0)
(0.00121824 2.17266e-07 0 -0.000528077 0 0)
(0.00121819 4.14737e-07 0 -0.000527805 0 0)
(0.0012181 5.99168e-07 0 -0.000527449 0 0)
(0.00121798 7.67419e-07 0 -0.000527016 0 0)
(0.00121783 9.15838e-07 0 -0.000526514 0 0)
(0.00121766 1.04022e-06 0 -0.000525954 0 0)
(0.00121746 1.13577e-06 0 -0.000525348 0 0)
(0.00121724 1.19715e-06 0 -0.00052471 0 0)
(0.00121701 1.21856e-06 0 -0.000524057 2.71051e-19 0)
(0.00121678 1.19403e-06 0 -0.000523409 0 0)
(0.00121654 1.11799e-06 0 -0.000522788 0 0)
(0.00121632 9.86323e-07 0 -0.000522221 0 0)
(0.00121612 7.98349e-07 0 -0.000521739 0 0)
(0.00121598 5.60312e-07 0 -0.000521376 0 0)
(0.00121592 2.91501e-07 0 -0.000521172 0 0)
(0.00121544 2.08894e-07 0 -0.00052081 0 0)
(0.00121395 4.29677e-07 0 -0.000520271 0 0)
(0.00121208 5.03391e-07 0 -0.00051968 0 0)
(0.00121046 4.77108e-07 0 -0.000519218 0 0)
(0.00120947 3.90717e-07 0 -0.000519011 0 0)
(0.00120934 2.68073e-07 0 -0.000519142 0 0)
(0.00121018 1.23303e-07 0 -0.000519659 0 0)
(0.00121206 -3.48552e-08 0 -0.000520589 0 0)
(0.00121498 -2.00778e-07 0 -0.000521943 0 0)
(0.00121895 -3.70749e-07 0 -0.000523724 0 0)
(0.00122396 -5.42283e-07 0 -0.000525927 0 0)
(0.00122997 -7.13713e-07 0 -0.000528544 0 0)
(0.00123696 -8.83934e-07 0 -0.000531563 0 0)
(0.0012449 -1.05223e-06 0 -0.000534973 0 0)
(0.00125374 -1.21818e-06 0 -0.000538761 0 0)
(0.00126346 -1.38153e-06 0 -0.000542914 0 0)
(0.00127403 -1.54219e-06 0 -0.000547419 0 0)
(0.00128541 -1.70016e-06 0 -0.000552265 0 0)
(0.00129758 -1.85549e-06 0 -0.000557438 0 0)
(0.0013105 -2.00831e-06 0 -0.000562928 0 0)
(0.00132415 -2.15875e-06 0 -0.000568725 0 0)
(0.00133851 -2.30697e-06 0 -0.000574818 0 0)
(0.00135355 -2.45311e-06 0 -0.000581197 0 0)
(0.00136925 -2.59735e-06 0 -0.000587854 0 0)
(0.00138559 -2.73982e-06 0 -0.000594781 0 0)
(0.00140256 -2.88065e-06 0 -0.00060197 0 0)
(0.00142012 -3.01996e-06 0 -0.000609412 0 0)
(0.00143828 -3.15783e-06 0 -0.0006171 0 0)
(0.001457 -3.29433e-06 0 -0.000625028 0 0)
(0.00147628 -3.4295e-06 0 -0.000633188 0 0)
(0.00149609 -3.56334e-06 0 -0.000641574 0 0)
(0.00151642 -3.69581e-06 0 -0.000650178 0 0)
(0.00153725 -3.82687e-06 0 -0.000658993 0 0)
(0.00155858 -3.9564e-06 0 -0.000668012 0 0)
(0.00158037 -4.08428e-06 0 -0.000677227 0 0)
(0.0016026 -4.2103e-06 0 -0.000686629 0 0)
(0.00162527 -4.33425e-06 0 -0.000696211 0 0)
(0.00164835 -4.45587e-06 0 -0.000705962 0 0)
(0.00167181 -4.57481e-06 0 -0.000715873 0 0)
(0.00169563 -4.69073e-06 0 -0.000725932 0 0)
(0.00171977 -4.8032e-06 0 -0.000736128 -2.71051e-19 0)
(0.00174422 -4.91173e-06 0 -0.000746447 0 0)
(0.00176894 -5.01581e-06 0 -0.000756876 0 0)
(0.00179389 -5.11483e-06 0 -0.000767398 0 0)
(0.00181903 -5.20816e-06 0 -0.000777998 0 0)
(0.00184432 -5.29507e-06 0 -0.000788656 0 0)
(0.00186972 -5.37479e-06 0 -0.000799352 0 0)
(0.00189516 -5.4465e-06 0 -0.000810065 0 0)
(0.0019206 -5.50927e-06 0 -0.000820771 0 0)
(0.00194598 -5.56215e-06 0 -0.000831445 0 0)
(0.00197122 -5.6041e-06 0 -0.000842058 0 0)
(0.00199627 -5.63403e-06 0 -0.000852582 0 0)
(0.00202104 -5.65076e-06 0 -0.000862983 0 0)
(0.00204546 -5.65309e-06 0 -0.000873228 0 0)
(0.00206943 -5.63972e-06 0 -0.00088328 0 0)
(0.00209286 -5.60932e-06 0 -0.0008931 0 0)
(0.00211566 -5.56051e-06 0 -0.000902646 0 0)
(0.00213773 -5.49186e-06 0 -0.000911875 0 0)
(0.00215894 -5.40191e-06 0 -0.00092074 0 0)
(0.00217919 -5.28917e-06 0 -0.000929192 0 0)
(0.00219835 -5.15214e-06 0 -0.00093718 0 0)
(0.00221629 -4.9893e-06 0 -0.00094465 0 0)
(0.00223289 -4.79918e-06 0 -0.000951548 0 0)
(0.002248 -4.58031e-06 0 -0.000957816 0 0)
(0.00226148 -4.33127e-06 0 -0.000963395 0 0)
(0.00227319 -4.05073e-06 0 -0.000968224 0 0)
(0.00228297 -3.73744e-06 0 -0.000972242 0 0)
(0.00229068 -3.39027e-06 0 -0.000975386 0 0)
(0.00229617 -3.00824e-06 0 -0.000977594 0 0)
(0.00229927 -2.59056e-06 0 -0.000978804 0 0)
(0.00229986 -2.13665e-06 0 -0.000978953 0 0)
(0.00229776 -1.64617e-06 0 -0.000977981 0 0)
(0.00229285 -1.11902e-06 0 -0.000975831 0 0)
(0.00228498 -5.55403e-07 0 -0.000972445 0 0)
(0.00227403 4.43509e-08 0 -0.000967772 0 0)
(0.00225986 6.80144e-07 0 -0.00096176 0 0)
(0.00224236 1.35397e-06 0 -0.000954357 0 0)
(0.00222137 2.07924e-06 0 -0.000945496 0 0)
(0.00219648 2.9503e-06 0 -0.000934955 0 0)
(0.00214723 5.3202e-06 0 -0.000915291 0 0)
(0.00212256 5.65482e-06 0 -0.0009052 0 0)
(0.00209628 5.88634e-06 0 -0.00089436 0 0)
(0.00206824 6.12676e-06 0 -0.000882734 0 0)
(0.00203841 6.37097e-06 0 -0.000870339 0 0)
(0.00200683 6.613e-06 0 -0.000857191 0 0)
(0.00197353 6.85013e-06 0 -0.000843306 0 0)
(0.00193854 7.08119e-06 0 -0.000828704 0 0)
(0.00190193 7.30563e-06 0 -0.000813408 0 0)
(0.00186377 7.52311e-06 0 -0.000797448 0 0)
(0.00182413 7.73339e-06 0 -0.000780857 0 0)
(0.00178311 7.93618e-06 -2.71051e-19 -0.000763674 0 0)
(0.00174081 8.13116e-06 0 -0.000745944 0 0)
(0.00169734 8.31796e-06 0 -0.000727716 0 0)
(0.00165285 8.49609e-06 0 -0.000709044 0 0)
(0.00160747 8.66497e-06 0 -0.000689991 0 0)
(0.00156135 8.82392e-06 0 -0.000670621 0 0)
(0.00151466 8.97211e-06 0 -0.000651007 0 0)
(0.00146758 9.10858e-06 0 -0.000631226 0 0)
(0.00142031 9.23225e-06 0 -0.000611362 0 0)
(0.00137305 9.34187e-06 0 -0.000591502 0 0)
(0.00132602 9.43608e-06 0 -0.00057174 0 0)
(0.00127944 9.51338e-06 0 -0.000552173 0 0)
(0.00123356 9.57216e-06 0 -0.000532905 0 0)
(0.00118861 9.61071e-06 0 -0.000514041 0 0)
(0.00114485 9.62722e-06 0 -0.000495689 0 0)
(0.00110254 9.61985e-06 0 -0.00047796 0 0)
(0.00106194 9.58675e-06 0 -0.000460967 0 0)
(0.00102332 9.52604e-06 0 -0.000444821 0 0)
(0.000986923 9.43593e-06 -6.77626e-20 -0.000429634 0 0)
(0.000953015 9.31469e-06 0 -0.000415512 0 0)
(0.00092184 9.16065e-06 0 -0.00040256 0 0)
(0.000893632 8.97222e-06 0 -0.000390877 0 0)
(0.000868611 8.74768e-06 0 -0.000380554 0 0)
(0.000846979 8.48476e-06 0 -0.000371673 0 0)
(0.000828915 8.1793e-06 0 -0.000364304 0 0)
(0.00081457 7.82235e-06 0 -0.000358498 0 0)
(0.000803981 7.40183e-06 0 -0.000354218 0 0)
(0.000796125 7.04362e-06 0 -0.00035069 0 0)
(0.000824787 3.23922e-05 0 -0.000356545 0 0)
(0.000851263 3.17098e-05 0 -0.000366645 0 0)
(0.000876884 3.11745e-05 0 -0.000376336 0 0)
(0.000901805 3.07615e-05 0 -0.000385683 0 0)
(0.000926122 3.0449e-05 0 -0.000394724 0 0)
(0.000949898 3.02184e-05 0 -0.000403473 0 0)
(0.000973175 3.00543e-05 0 -0.000411941 0 0)
(0.000995986 2.99439e-05 0 -0.000420131 0 0)
(0.00101835 2.9877e-05 0 -0.000428046 0 0)
(0.0010403 2.98453e-05 0 -0.000435688 0 0)
(0.00106184 2.98422e-05 0 -0.00044306 0 0)
(0.00108299 2.98621e-05 0 -0.000450165 0 0)
(0.00110376 2.99009e-05 0 -0.000457007 0 0)
(0.00112416 2.99551e-05 0 -0.000463588 0 0)
(0.00114421 3.00219e-05 0 -0.000469914 0 0)
(0.00116392 3.0099e-05 0 -0.000475989 0 0)
(0.0011833 3.01847e-05 0 -0.000481818 0 0)
(0.00120235 3.02776e-05 0 -0.000487406 0 0)
(0.00122109 3.03764e-05 0 -0.000492759 0 0)
(0.00123954 3.04804e-05 0 -0.000497882 0 0)
(0.00125769 3.05888e-05 0 -0.000502781 0 0)
(0.00127556 3.0701e-05 0 -0.000507461 0 0)
(0.00129315 3.08166e-05 0 -0.000511929 0 0)
(0.00131048 3.09352e-05 0 -0.000516189 0 0)
(0.00132756 3.10566e-05 0 -0.000520249 0 0)
(0.00134439 3.11805e-05 0 -0.000524112 0 0)
(0.00136099 3.13067e-05 0 -0.000527786 0 0)
(0.00137736 3.14353e-05 0 -0.000531274 0 0)
(0.0013935 3.1566e-05 0 -0.000534584 0 0)
(0.00140944 3.16989e-05 0 -0.000537721 0 0)
(0.00142517 3.18339e-05 0 -0.000540689 0 0)
(0.00144071 3.1971e-05 0 -0.000543495 0 0)
(0.00145606 3.21103e-05 0 -0.000546143 0 0)
(0.00147123 3.22517e-05 0 -0.000548638 0 0)
(0.00148623 3.23953e-05 0 -0.000550987 0 0)
(0.00150107 3.25411e-05 0 -0.000553193 0 0)
(0.00151575 3.26893e-05 0 -0.000555263 0 0)
(0.00153029 3.28398e-05 0 -0.0005572 0 0)
(0.00154468 3.29928e-05 0 -0.00055901 0 0)
(0.00155895 3.31483e-05 0 -0.000560697 -1.0842e-18 0)
(0.00157308 3.33063e-05 0 -0.000562267 0 0)
(0.0015871 3.34671e-05 0 -0.000563724 0 0)
(0.00160101 3.36306e-05 0 -0.000565072 0 0)
(0.00161482 3.37969e-05 0 -0.000566317 0 0)
(0.00162853 3.39663e-05 0 -0.000567463 0 0)
(0.00164215 3.41387e-05 0 -0.000568515 0 0)
(0.00165569 3.43143e-05 0 -0.000569476 0 0)
(0.00166916 3.44931e-05 0 -0.000570353 0 0)
(0.00168256 3.46755e-05 0 -0.000571148 0 0)
(0.00169591 3.48613e-05 0 -0.000571867 0 0)
(0.0017092 3.50509e-05 0 -0.000572513 0 0)
(0.00172244 3.52443e-05 0 -0.000573092 -1.0842e-18 0)
(0.00173565 3.54418e-05 0 -0.000573608 0 0)
(0.00174884 3.56435e-05 0 -0.000574065 0 0)
(0.001762 3.58495e-05 0 -0.000574467 0 0)
(0.00177514 3.60602e-05 0 -0.000574819 0 0)
(0.00178828 3.62757e-05 0 -0.000575125 -1.0842e-18 0)
(0.00180142 3.64963e-05 0 -0.00057539 0 0)
(0.00181456 3.67224e-05 0 -0.000575617 0 0)
(0.00182773 3.69542e-05 0 -0.000575812 0 0)
(0.00184091 3.71921e-05 0 -0.000575977 0 0)
(0.00185413 3.74367e-05 0 -0.000576119 0 0)
(0.00186739 3.76883e-05 0 -0.00057624 0 0)
(0.0018807 3.79477e-05 0 -0.000576345 0 0)
(0.00189406 3.82154e-05 0 -0.000576439 0 0)
(0.00190749 3.84924e-05 0 -0.000576525 0 0)
(0.00192099 3.87795e-05 0 -0.000576608 0 0)
(0.00193458 3.90779e-05 0 -0.000576691 0 0)
(0.00194825 3.93889e-05 0 -0.000576779 0 0)
(0.00196203 3.97141e-05 0 -0.000576876 0 0)
(0.00197592 4.00553e-05 0 -0.000576985 -1.0842e-18 0)
(0.00198994 4.04147e-05 0 -0.00057711 -1.0842e-18 0)
(0.00200408 4.07949e-05 0 -0.000577256 0 0)
(0.00201837 4.11987e-05 0 -0.000577426 0 0)
(0.00203282 4.16296e-05 0 -0.000577623 -1.0842e-18 0)
(0.00204745 4.20913e-05 0 -0.000577855 -1.0842e-18 0)
(0.00206227 4.25878e-05 0 -0.000578126 -1.0842e-18 0)
(0.00207731 4.31231e-05 0 -0.000578446 0 0)
(0.0020926 4.37006e-05 0 -0.000578829 -1.0842e-18 0)
(0.00214617 4.25798e-05 0 -0.000585803 0 0)
(0.00217872 4.25182e-05 0 -0.000587327 0 0)
(0.0022123 4.25756e-05 0 -0.000589404 0 0)
(0.00224708 4.27224e-05 0 -0.000592103 0 0)
(0.00228322 4.29395e-05 0 -0.000595485 0 0)
(0.00232089 4.32143e-05 0 -0.000599622 0 0)
(0.00236025 4.35394e-05 0 -0.000604596 0 0)
(0.00240147 4.39108e-05 0 -0.000610502 0 0)
(0.00244477 4.43269e-05 0 -0.000617452 -1.0842e-18 0)
(0.00249037 4.4788e-05 0 -0.000625573 0 0)
(0.00253852 4.52959e-05 0 -0.000635016 -1.0842e-18 0)
(0.00258951 4.58538e-05 0 -0.000645951 -1.0842e-18 0)
(0.00264369 4.64659e-05 0 -0.000658582 -1.0842e-18 0)
(0.00270144 4.71377e-05 0 -0.000673146 -1.0842e-18 0)
(0.00276324 4.78756e-05 0 -0.000689927 -1.0842e-18 0)
(0.00282962 4.86871e-05 0 -0.000709265 -2.1684e-18 0)
(0.00290126 4.95795e-05 0 -0.000731579 -2.1684e-18 0)
(0.00297897 5.0559e-05 0 -0.000757389 -2.1684e-18 0)
(0.00306376 5.16275e-05 0 -0.000787354 -2.1684e-18 0)
(0.00315692 5.27751e-05 0 -0.000822331 -2.1684e-18 0)
(0.00326015 5.39644e-05 0 -0.000863465 -3.25261e-18 0)
(0.0033757 5.50955e-05 0 -0.000912343 -2.1684e-18 0)
(0.00350676 5.59224e-05 0 -0.000971277 -3.25261e-18 0)
(0.00365807 5.58386e-05 0 -0.00104387 -2.1684e-18 0)
(0.00383502 5.28976e-05 0 -0.00115637 -2.1684e-18 0)
(0.00402671 4.41796e-05 0 -0.00132289 -2.1684e-18 0)
(0.00421398 3.47203e-05 0 -0.0015102 -7.58942e-18 0)
(0.00439865 2.7082e-05 0 -0.00170175 -1.51788e-17 0)
(0.00458256 2.04517e-05 0 -0.00189829 -2.1684e-17 0)
(0.00476649 1.42589e-05 0 -0.0020998 -2.38524e-17 0)
(0.00495075 8.16487e-06 0 -0.00230583 -2.27682e-17 0)
(0.00513554 1.96707e-06 0 -0.00251629 -1.30104e-17 0)
(0.00532098 -4.78395e-06 0 -0.00273137 -1.0842e-17 0)
(0.00550697 -1.25803e-05 0 -0.002951 -8.67362e-18 0)
(0.00569313 -2.20581e-05 0 -0.00317509 -5.42101e-18 0)
(0.00587869 -3.40718e-05 0 -0.00340336 -3.25261e-18 0)
(0.0060622 -4.97056e-05 0 -0.0036352 -3.25261e-18 0)
(0.00624062 -7.01102e-05 0 -0.00386867 -4.33681e-18 0)
(0.006407 -9.51157e-05 0 -0.00409744 -4.33681e-18 0)
(0.00183353 -0.000317942 0 -0.00110936 0 0)
(0.00180375 -0.000329326 0 -0.00109038 0 0)
(0.00177534 -0.000344136 0 -0.00107266 0 0)
(0.00174674 -0.000359911 0 -0.00105347 0 0)
(0.00171797 -0.000375698 0 -0.00103257 0 0)
(0.00168925 -0.000391025 0 -0.00101016 0 0)
(0.00166075 -0.000405619 0 -0.000986541 0 0)
(0.00163267 -0.000419309 0 -0.000962032 0 0)
(0.00160515 -0.000431984 0 -0.000936919 0 0)
(0.0015783 -0.000443577 0 -0.000911463 0 0)
(0.00155224 -0.000454053 0 -0.000885897 0 0)
(0.00152705 -0.000463399 0 -0.00086043 0 0)
(0.0015028 -0.000471621 0 -0.000835238 0 0)
(0.00147954 -0.000478737 0 -0.000810477 0 0)
(0.00145732 -0.000484778 0 -0.000786276 0 0)
(0.00143617 -0.00048978 0 -0.000762744 0 0)
(0.00141609 -0.000493788 0 -0.000739968 0 0)
(0.0013971 -0.000496847 0 -0.000718019 -1.35525e-19 0)
(0.00137918 -0.000499007 0 -0.000696951 0 0)
(0.00136233 -0.000500318 0 -0.000676801 0 0)
(0.00134654 -0.000500831 0 -0.000657597 0 0)
(0.00133176 -0.000500596 0 -0.000639352 0 0)
(0.00131798 -0.000499662 0 -0.000622072 0 0)
(0.00130517 -0.000498077 0 -0.000605753 0 0)
(0.00129327 -0.000495885 0 -0.000590384 0 0)
(0.00128227 -0.000493132 0 -0.000575947 0 0)
(0.00127211 -0.000489859 0 -0.000562419 0 0)
(0.00126276 -0.000486105 0 -0.000549775 0 0)
(0.00125417 -0.000481908 0 -0.000537984 0 0)
(0.00124629 -0.000477302 0 -0.000527011 0 0)
(0.0012391 -0.000472321 0 -0.000516823 0 0)
(0.00123254 -0.000466995 0 -0.000507382 0 0)
(0.00122658 -0.000461353 0 -0.00049865 0 0)
(0.00122116 -0.000455423 0 -0.000490588 0 0)
(0.00121627 -0.000449228 0 -0.000483157 0 0)
(0.00121184 -0.000442791 0 -0.000476317 0 0)
(0.00120785 -0.000436134 0 -0.00047003 0 0)
(0.00120427 -0.000429277 0 -0.000464256 0 0)
(0.00120105 -0.000422237 0 -0.000458957 0 0)
(0.00119817 -0.00041503 0 -0.000454096 0 0)
(0.00119558 -0.000407671 0 -0.000449635 0 0)
(0.00119327 -0.000400175 0 -0.00044554 0 0)
(0.0011912 -0.000392552 0 -0.000441775 0 0)
(0.00118935 -0.000384814 0 -0.000438306 0 0)
(0.00118768 -0.00037697 0 -0.000435102 0 0)
(0.00118618 -0.000369028 0 -0.00043213 0 0)
(0.00118482 -0.000360996 0 -0.000429361 0 0)
(0.00118357 -0.00035288 0 -0.000426766 0 0)
(0.00118242 -0.000344684 0 -0.000424317 0 0)
(0.00118134 -0.000336412 0 -0.000421989 0 0)
(0.00118032 -0.000328066 0 -0.000419756 1.35525e-19 0)
(0.00117934 -0.000319649 0 -0.000417596 0 0)
(0.00117839 -0.000311159 0 -0.000415486 0 0)
(0.00117744 -0.000302597 0 -0.000413408 0 0)
(0.00117649 -0.000293959 0 -0.000411341 0 0)
(0.00117552 -0.000285244 0 -0.00040927 -1.35525e-19 0)
(0.00117452 -0.000276445 0 -0.00040718 0 0)
(0.00117349 -0.000267556 0 -0.000405057 0 0)
(0.0011724 -0.000258569 0 -0.000402889 0 0)
(0.00117127 -0.000249475 0 -0.00040067 0 0)
(0.00117007 -0.000240262 0 -0.00039839 0 0)