/*--------------------------------*- C++ -*----------------------------------*\
| =========                 |                                                 |
| \\      /  F ield         | OpenFOAM: The Open Source CFD Toolbox           |
|  \\    /   O peration     | Version:  v2012                                 |
|   \\  /    A nd           | Website:  www.openfoam.com                      |
|    \\/     M anipulation  |                                                 |
\*---------------------------------------------------------------------------*/
FoamFile
{
    version     2.0;
    format      ascii;
    class       pointScalarField;
    location    "7";
    object      pEpsilonEq;
}
// * * * * * * * * * * * * * * * * * * * * * * * * * * * * * * * * * * * * * //

dimensions      [0 0 0 0 0 0 0];


internalField   nonuniform List<scalar> 
32562
(
0.0017046
0.000723207
0.00102926
0.000680387
0.00623242
0.000320666
0.00163923
0.00177549
0.00183547
0.000903778
0.000725376
0.000725376
0.00177549
0.00163923
0.00623242
0.0017046
0.000320666
0.000723207
0.000903778
0.00102926
0.00183547
0.000680387
0.00163809
0.00164788
0.00166324
0.00168348
0.00170755
0.00173435
0.00176279
0.00179188
0.00182078
0.00184879
0.00187535
0.00190007
0.00192267
0.00194297
0.00196087
0.00197635
0.00198943
0.00200016
0.00200861
0.00201486
0.00201901
0.00202114
0.00202132
0.00201963
0.00201613
0.00201089
0.00200394
0.00199534
0.00198513
0.00197335
0.00196004
0.00194524
0.001929
0.00191137
0.00189242
0.00187225
0.00185107
0.00182923
0.00180739
0.00173697
0.00171492
0.00168889
0.00166068
0.00163089
0.00159981
0.0015676
0.00153432
0.00150004
0.00146479
0.00142861
0.00139153
0.00135357
0.00131476
0.00127513
0.00123471
0.00119354
0.00115164
0.00110905
0.00106583
0.00102201
0.000977664
0.000932843
0.000887625
0.000842099
0.000796368
0.000750556
0.000704813
0.000659325
0.000614322
0.000570095
0.00052702
0.000485581
0.000446411
0.000410335
0.000378408
0.000351936
0.000332442
0.000321609
0.00160838
0.00151379
0.00142615
0.00134423
0.00126759
0.00119595
0.00112903
0.00106655
0.00100825
0.00095387
0.000903146
0.000855842
0.000811732
0.000770604
0.000732259
0.000696515
0.000663199
0.000632153
0.00060323
0.000576294
0.000551218
0.000527886
0.000506189
0.000486027
0.000467307
0.000449943
0.000433855
0.000418969
0.000405214
0.000392526
0.000380844
0.00037011
0.000360269
0.000351271
0.000343069
0.000335627
0.000328932
0.000323025
0.000318099
0.000315425
0.000306781
0.000301638
0.0002994
0.00029958
0.000301774
0.000305646
0.000310914
0.000317338
0.000324719
0.000332889
0.000341706
0.000351053
0.000360832
0.000370959
0.000381366
0.000391993
0.000402793
0.000413724
0.000424749
0.000435839
0.000446967
0.000458111
0.000469251
0.00048037
0.000491451
0.000502482
0.000513449
0.00052434
0.000535145
0.000545854
0.000556456
0.000566944
0.000577307
0.000587538
0.000597627
0.000607567
0.000617348
0.000626963
0.000636403
0.000645659
0.000654722
0.000663584
0.000672236
0.000680667
0.000688869
0.000696832
0.000704544
0.000711996
0.000719176
0.000726072
0.000732674
0.000738966
0.000744938
0.000750574
0.000755859
0.000760779
0.000765317
0.000769455
0.000773176
0.000776461
0.000779288
0.000781636
0.000783483
0.000784805
0.000785575
0.000785767
0.000785352
0.000784302
0.000782584
0.000780167
0.000777018
0.000773103
0.000768391
0.000762854
0.000756476
0.000749263
0.000741268
0.000732601
0.000721734
0.000722618
0.000723439
0.000724451
0.000725707
0.000727222
0.000729001
0.000731044
0.000733348
0.000735912
0.000738732
0.000741807
0.000745131
0.000748703
0.000752516
0.000756568
0.000760852
0.000765364
0.000770098
0.000775048
0.000780207
0.000785568
0.000791122
0.000796864
0.000802782
0.000808869
0.000815115
0.00082151
0.000828044
0.000834704
0.00084148
0.000848361
0.000855333
0.000862384
0.000869501
0.00087667
0.000883876
0.000891091
0.000898204
0.000907794
0.000911049
0.000914272
0.000917477
0.000920667
0.000923844
0.000927007
0.000930154
0.000933284
0.000936394
0.000939485
0.000942554
0.0009456
0.00094862
0.000951615
0.000954582
0.000957519
0.000960425
0.000963299
0.000966138
0.000968942
0.000971709
0.000974436
0.000977123
0.000979767
0.000982368
0.000984923
0.000987431
0.000989891
0.0009923
0.000994657
0.00099696
0.000999208
0.0010014
0.00100353
0.00100561
0.00100762
0.00100957
0.00101145
0.00101327
0.00101502
0.0010167
0.00101831
0.00101985
0.00102132
0.00102271
0.00102403
0.00102527
0.00102643
0.00102751
0.00102852
0.00102944
0.00103029
0.00103105
0.00103173
0.00103233
0.00103285
0.00103329
0.00103364
0.00103392
0.00103412
0.00103424
0.00103428
0.00103425
0.00103415
0.00103398
0.00103375
0.00103347
0.00103313
0.00103274
0.00103232
0.00103187
0.00103141
0.00103094
0.00103049
0.00103007
0.00102971
0.00102944
0.0010293
0.00102882
0.00102761
0.00102612
0.00102487
0.00102414
0.00102412
0.00102491
0.00102655
0.00102908
0.00103248
0.00103674
0.00104185
0.00104778
0.0010545
0.00106199
0.00107021
0.00107915
0.00108877
0.00109904
0.00110996
0.00112149
0.00113362
0.00114631
0.00115957
0.00117337
0.00118769
0.00120252
0.00121784
0.00123364
0.00124991
0.00126663
0.00128379
0.00130137
0.00131936
0.00133774
0.00135651
0.00137563
0.0013951
0.00141489
0.00143498
0.00145534
0.00147596
0.00149681
0.00151784
0.00153904
0.00156036
0.00158176
0.00160321
0.00162465
0.00164603
0.0016673
0.0016884
0.00170926
0.00172982
0.00175001
0.00176974
0.00178893
0.00180749
0.00182534
0.00184237
0.00185848
0.00187356
0.0018875
0.00190019
0.00191151
0.00192132
0.00192952
0.00193597
0.00194054
0.00194311
0.00194355
0.00194174
0.00193756
0.0019309
0.00192163
0.00190967
0.00189491
0.00187721
0.0018562
0.00181522
0.00179457
0.00177253
0.00174898
0.00172393
0.00169739
0.00166939
0.00163996
0.00160917
0.00157705
0.0015437
0.00150917
0.00147356
0.00143696
0.00139949
0.00136127
0.00132243
0.0012831
0.00124345
0.00120363
0.00116382
0.0011242
0.00108497
0.00104633
0.00100847
0.000971633
0.000936019
0.000901853
0.000869357
0.000838751
0.00081025
0.000784061
0.000760382
0.000739396
0.000721273
0.000706162
0.000694182
0.00068534
0.000678606
0.000700672
0.000722405
0.000743407
0.000763807
0.000783681
0.000803076
0.000822021
0.000840538
0.000858642
0.000876348
0.000893666
0.000910607
0.00092718
0.000943397
0.000959265
0.000974795
0.000989996
0.00100488
0.00101945
0.00103371
0.00104769
0.00106138
0.00107479
0.00108794
0.00110084
0.00111348
0.00112588
0.00113805
0.00114999
0.00116172
0.00117323
0.00118455
0.00119568
0.00120662
0.00121738
0.00122797
0.0012384
0.00124867
0.0012588
0.00126879
0.00127864
0.00128836
0.00129797
0.00130746
0.00131685
0.00132614
0.00133534
0.00134445
0.00135349
0.00136245
0.00137135
0.00138019
0.00138898
0.00139773
0.00140645
0.00141513
0.00142379
0.00143243
0.00144107
0.0014497
0.00145834
0.00146699
0.00147566
0.00148436
0.00149309
0.00150186
0.00151068
0.00151956
0.00152851
0.00153752
0.00154662
0.00155581
0.0015651
0.00157449
0.00158401
0.00159366
0.00160345
0.00161342
0.00162357
0.00166158
0.00168349
0.00170633
0.00173024
0.00175536
0.0017818
0.00180973
0.00183929
0.00187066
0.00190405
0.0019397
0.00197786
0.00201884
0.00206301
0.0021108
0.0021627
0.00221935
0.0022815
0.00235011
0.00242641
0.00251201
0.0026091
0.0027208
0.00285183
0.00301755
0.00321781
0.00342578
0.00363512
0.00384729
0.00406272
0.00428136
0.00450324
0.00472849
0.004957
0.00518847
0.00542229
0.00565723
0.00589047
0.00611439
0.00175497
0.00173007
0.00170777
0.00168518
0.00166199
0.0016383
0.00161429
0.00159015
0.00156603
0.0015421
0.00151846
0.00149523
0.00147249
0.00145031
0.00142874
0.00140783
0.0013876
0.00136807
0.00134926
0.00133116
0.00131378
0.00129711
0.00128113
0.00126583
0.00125119
0.0012372
0.00122382
0.00121105
0.00119885
0.0011872
0.00117608
0.00116547
0.00115534
0.00114567
0.00113643
0.0011276
0.00111917
0.0011111
0.00110338
0.00109598
0.00108888
0.00108207
0.00107552
0.00106921
0.00106312
0.00105723
0.00105152
0.00104597
0.00104058
0.0010353
0.00103014
0.00102508
0.00102009
0.00101516
0.00101028
0.00100544
0.00100062
0.00099582
0.00099102
0.000986218
0.000981407
0.000976584
0.000971748
0.000966898
0.00096204
0.000957179
0.000952327
0.000947496
0.000942705
0.000937976
0.000933336
0.000928819
0.000924462
0.000920311
0.00091642
0.000912849
0.000909667
0.000906953
0.000904811
0.00181593
0.00182037
0.00182452
0.00182858
0.00183257
0.00183648
0.00184026
0.00184388
0.00184729
0.00185047
0.0018534
0.00185607
0.00185847
0.00186059
0.00186242
0.00186398
0.00186525
0.00186624
0.00186696
0.00186742
0.00186761
0.00186754
0.00186723
0.00186668
0.0018659
0.00186489
0.00186366
0.00186224
0.00186061
0.0018588
0.00185681
0.00185465
0.00185233
0.00184987
0.00184727
0.00184454
0.00184169
0.00183874
0.00183569
0.00183256
0.00182936
0.00182609
0.00182279
0.00181944
0.00181608
0.00181271
0.00180934
0.001806
0.00180269
0.00179943
0.00179624
0.00179314
0.00179013
0.00178725
0.00178451
0.00178193
0.00177952
0.00177732
0.00177534
0.00177362
0.00177216
0.001771
0.00177017
0.00176969
0.0017696
0.00176992
0.00177069
0.00177193
0.00177369
0.00177599
0.00177889
0.00178241
0.0017866
0.00179149
0.00179714
0.00180359
0.00181089
0.0018191
0.00182833
0.00617211
0.00611956
0.00606749
0.00600108
0.0059137
0.00580072
0.00565832
0.00548411
0.00527759
0.0050396
0.00477261
0.00448074
0.00417183
0.00385967
0.00356443
0.00330937
0.00311959
0.00301948
0.00295838
0.00289267
0.00281489
0.00272827
0.0026347
0.0025356
0.00243206
0.00232494
0.00221498
0.00210278
0.00198888
0.00187373
0.00175773
0.00164125
0.00152462
0.00140812
0.00129203
0.00117658
0.00106199
0.000948478
0.000836214
0.00061613
0.000508647
0.000403125
0.000299862
0.00019953
0.000104922
4.77209e-05
0.000111167
0.000199919
0.000289494
0.000377578
0.000463604
0.000547341
0.000628658
0.000707467
0.000783695
0.000857283
0.000928174
0.000996316
0.00106166
0.00112416
0.00118377
0.00124044
0.00129414
0.00134481
0.00139244
0.00143696
0.00147836
0.00151659
0.00155162
0.00158342
0.00161196
0.00163721
0.00165914
0.00167773
0.00169295
0.00170487
0.001714
0.00172484
0.000718666
0.000750478
0.00079503
0.000847258
0.000903452
0.000961068
0.00101843
0.00107445
0.00112847
0.00118008
0.00122907
0.00127534
0.00131887
0.00135969
0.00139787
0.0014335
0.00146667
0.0014975
0.00152609
0.00155257
0.00157703
0.00159959
0.00162035
0.00163942
0.00165688
0.00167282
0.00168735
0.00170052
0.00171243
0.00172315
0.00173274
0.00174126
0.00174877
0.0017553
0.00176086
0.00176537
0.00176862
0.00176983
0.00176658
0.000718666
0.000750478
0.00079503
0.000847258
0.000903452
0.000961068
0.00101843
0.00107445
0.00112847
0.00118008
0.00122907
0.00127534
0.00131887
0.00135969
0.00139787
0.0014335
0.00146667
0.0014975
0.00152609
0.00155257
0.00157703
0.00159959
0.00162035
0.00163942
0.00165688
0.00167282
0.00168735
0.00170052
0.00171243
0.00172315
0.00173274
0.00174126
0.00174877
0.0017553
0.00176086
0.00176537
0.00176862
0.00176983
0.00176658
0.00180739
0.00182923
0.00185107
0.00187225
0.00189242
0.00191137
0.001929
0.00194524
0.00196004
0.00197335
0.00198513
0.00199534
0.00200394
0.00201089
0.00201613
0.00201963
0.00202132
0.00202114
0.00201901
0.00201486
0.00200861
0.00200016
0.00198943
0.00197635
0.00196087
0.00194297
0.00192267
0.00190007
0.00187535
0.00184879
0.00182078
0.00179188
0.00176279
0.00173435
0.00170755
0.00168348
0.00166324
0.00164788
0.00163809
0.00166158
0.00168349
0.00170633
0.00173024
0.00175536
0.0017818
0.00180973
0.00183929
0.00187066
0.00190405
0.0019397
0.00197786
0.00201884
0.00206301
0.0021108
0.0021627
0.00221935
0.0022815
0.00235011
0.00242641
0.00251201
0.0026091
0.0027208
0.00285183
0.00301755
0.00321781
0.00342578
0.00363512
0.00384729
0.00406272
0.00428136
0.00450324
0.00472849
0.004957
0.00518847
0.00542229
0.00565723
0.00589047
0.00611439
0.00617211
0.00611956
0.00606749
0.00600108
0.0059137
0.00580072
0.00565832
0.00548411
0.00527759
0.0050396
0.00477261
0.00448074
0.00417183
0.00385967
0.00356443
0.00330937
0.00311959
0.00301948
0.00295838
0.00289267
0.00281489
0.00272827
0.0026347
0.0025356
0.00243206
0.00232494
0.00221498
0.00210278
0.00198888
0.00187373
0.00175773
0.00164125
0.00152462
0.00140812
0.00129203
0.00117658
0.00106199
0.000948478
0.000836214
0.00061613
0.000508647
0.000403125
0.000299862
0.00019953
0.000104922
4.77209e-05
0.000111167
0.000199919
0.000289494
0.000377578
0.000463604
0.000547341
0.000628658
0.000707467
0.000783695
0.000857283
0.000928174
0.000996316
0.00106166
0.00112416
0.00118377
0.00124044
0.00129414
0.00134481
0.00139244
0.00143696
0.00147836
0.00151659
0.00155162
0.00158342
0.00161196
0.00163721
0.00165914
0.00167773
0.00169295
0.00170487
0.001714
0.00172484
0.00160838
0.00151379
0.00142615
0.00134423
0.00126759
0.00119595
0.00112903
0.00106655
0.00100825
0.00095387
0.000903146
0.000855842
0.000811732
0.000770604
0.000732259
0.000696515
0.000663199
0.000632153
0.00060323
0.000576294
0.000551218
0.000527886
0.000506189
0.000486027
0.000467307
0.000449943
0.000433855
0.000418969
0.000405214
0.000392526
0.000380844
0.00037011
0.000360269
0.000351271
0.000343069
0.000335627
0.000328932
0.000323025
0.000318099
0.000321609
0.000332442
0.000351936
0.000378408
0.000410335
0.000446411
0.000485581
0.00052702
0.000570095
0.000614322
0.000659325
0.000704813
0.000750556
0.000796368
0.000842099
0.000887625
0.000932843
0.000977664
0.00102201
0.00106583
0.00110905
0.00115164
0.00119354
0.00123471
0.00127513
0.00131476
0.00135357
0.00139153
0.00142861
0.00146479
0.00150004
0.00153432
0.0015676
0.00159981
0.00163089
0.00166068
0.00168889
0.00171492
0.00173697
0.000315425
0.000306781
0.000301638
0.0002994
0.00029958
0.000301774
0.000305646
0.000310914
0.000317338
0.000324719
0.000332889
0.000341706
0.000351053
0.000360832
0.000370959
0.000381366
0.000391993
0.000402793
0.000413724
0.000424749
0.000435839
0.000446967
0.000458111
0.000469251
0.00048037
0.000491451
0.000502482
0.000513449
0.00052434
0.000535145
0.000545854
0.000556456
0.000566944
0.000577307
0.000587538
0.000597627
0.000607567
0.000617348
0.000626963
0.000636403
0.000645659
0.000654722
0.000663584
0.000672236
0.000680667
0.000688869
0.000696832
0.000704544
0.000711996
0.000719176
0.000726072
0.000732674
0.000738966
0.000744938
0.000750574
0.000755859
0.000760779
0.000765317
0.000769455
0.000773176
0.000776461
0.000779288
0.000781636
0.000783483
0.000784805
0.000785575
0.000785767
0.000785352
0.000784302
0.000782584
0.000780167
0.000777018
0.000773103
0.000768391
0.000762854
0.000756476
0.000749263
0.000741268
0.000732601
0.000721734
0.000722618
0.000723439
0.000724451
0.000725707
0.000727222
0.000729001
0.000731044
0.000733348
0.000735912
0.000738732
0.000741807
0.000745131
0.000748703
0.000752516
0.000756568
0.000760852
0.000765364
0.000770098
0.000775048
0.000780207
0.000785568
0.000791122
0.000796864
0.000802782
0.000808869
0.000815115
0.00082151
0.000828044
0.000834704
0.00084148
0.000848361
0.000855333
0.000862384
0.000869501
0.00087667
0.000883876
0.000891091
0.000898204
0.000904811
0.000906953
0.000909667
0.000912849
0.00091642
0.000920311
0.000924462
0.000928819
0.000933336
0.000937976
0.000942705
0.000947496
0.000952327
0.000957179
0.00096204
0.000966898
0.000971748
0.000976584
0.000981407
0.000986218
0.00099102
0.00099582
0.00100062
0.00100544
0.00101028
0.00101516
0.00102009
0.00102508
0.00103014
0.0010353
0.00104058
0.00104597
0.00105152
0.00105723
0.00106312
0.00106921
0.00107552
0.00108207
0.00108888
0.00109598
0.00110338
0.0011111
0.00111917
0.0011276
0.00113643
0.00114567
0.00115534
0.00116547
0.00117608
0.0011872
0.00119885
0.00121105
0.00122382
0.0012372
0.00125119
0.00126583
0.00128113
0.00129711
0.00131378
0.00133116
0.00134926
0.00136807
0.0013876
0.00140783
0.00142874
0.00145031
0.00147249
0.00149523
0.00151846
0.0015421
0.00156603
0.00159015
0.00161429
0.0016383
0.00166199
0.00168518
0.00170777
0.00173007
0.00175497
0.000907794
0.000911049
0.000914272
0.000917477
0.000920667
0.000923844
0.000927007
0.000930154
0.000933284
0.000936394
0.000939485
0.000942554
0.0009456
0.00094862
0.000951615
0.000954582
0.000957519
0.000960425
0.000963299
0.000966138
0.000968942
0.000971709
0.000974436
0.000977123
0.000979767
0.000982368
0.000984923
0.000987431
0.000989891
0.0009923
0.000994657
0.00099696
0.000999208
0.0010014
0.00100353
0.00100561
0.00100762
0.00100957
0.00101145
0.00101327
0.00101502
0.0010167
0.00101831
0.00101985
0.00102132
0.00102271
0.00102403
0.00102527
0.00102643
0.00102751
0.00102852
0.00102944
0.00103029
0.00103105
0.00103173
0.00103233
0.00103285
0.00103329
0.00103364
0.00103392
0.00103412
0.00103424
0.00103428
0.00103425
0.00103415
0.00103398
0.00103375
0.00103347
0.00103313
0.00103274
0.00103232
0.00103187
0.00103141
0.00103094
0.00103049
0.00103007
0.00102971
0.00102944
0.0010293
0.00102882
0.00102761
0.00102612
0.00102487
0.00102414
0.00102412
0.00102491
0.00102655
0.00102908
0.00103248
0.00103674
0.00104185
0.00104778
0.0010545
0.00106199
0.00107021
0.00107915
0.00108877
0.00109904
0.00110996
0.00112149
0.00113362
0.00114631
0.00115957
0.00117337
0.00118769
0.00120252
0.00121784
0.00123364
0.00124991
0.00126663
0.00128379
0.00130137
0.00131936
0.00133774
0.00135651
0.00137563
0.0013951
0.00141489
0.00143498
0.00145534
0.00147596
0.00149681
0.00151784
0.00153904
0.00156036
0.00158176
0.00160321
0.00162465
0.00164603
0.0016673
0.0016884
0.00170926
0.00172982
0.00175001
0.00176974
0.00178893
0.00180749
0.00182534
0.00184237
0.00185848
0.00187356
0.0018875
0.00190019
0.00191151
0.00192132
0.00192952
0.00193597
0.00194054
0.00194311
0.00194355
0.00194174
0.00193756
0.0019309
0.00192163
0.00190967
0.00189491
0.00187721
0.0018562
0.00182833
0.0018191
0.00181089
0.00180359
0.00179714
0.00179149
0.0017866
0.00178241
0.00177889
0.00177599
0.00177369
0.00177193
0.00177069
0.00176992
0.0017696
0.00176969
0.00177017
0.001771
0.00177216
0.00177362
0.00177534
0.00177732
0.00177952
0.00178193
0.00178451
0.00178725
0.00179013
0.00179314
0.00179624
0.00179943
0.00180269
0.001806
0.00180934
0.00181271
0.00181608
0.00181944
0.00182279
0.00182609
0.00182936
0.00183256
0.00183569
0.00183874
0.00184169
0.00184454
0.00184727
0.00184987
0.00185233
0.00185465
0.00185681
0.0018588
0.00186061
0.00186224
0.00186366
0.00186489
0.0018659
0.00186668
0.00186723
0.00186754
0.00186761
0.00186742
0.00186696
0.00186624
0.00186525
0.00186398
0.00186242
0.00186059
0.00185847
0.00185607
0.0018534
0.00185047
0.00184729
0.00184388
0.00184026
0.00183648
0.00183257
0.00182858
0.00182452
0.00182037
0.00181593
0.00181522
0.00179457
0.00177253
0.00174898
0.00172393
0.00169739
0.00166939
0.00163996
0.00160917
0.00157705
0.0015437
0.00150917
0.00147356
0.00143696
0.00139949
0.00136127
0.00132243
0.0012831
0.00124345
0.00120363
0.00116382
0.0011242
0.00108497
0.00104633
0.00100847
0.000971633
0.000936019
0.000901853
0.000869357
0.000838751
0.00081025
0.000784061
0.000760382
0.000739396
0.000721273
0.000706162
0.000694182
0.00068534
0.000678606
0.000700672
0.000722405
0.000743407
0.000763807
0.000783681
0.000803076
0.000822021
0.000840538
0.000858642
0.000876348
0.000893666
0.000910607
0.00092718
0.000943397
0.000959265
0.000974795
0.000989996
0.00100488
0.00101945
0.00103371
0.00104769
0.00106138
0.00107479
0.00108794
0.00110084
0.00111348
0.00112588
0.00113805
0.00114999
0.00116172
0.00117323
0.00118455
0.00119568
0.00120662
0.00121738
0.00122797
0.0012384
0.00124867
0.0012588
0.00126879
0.00127864
0.00128836
0.00129797
0.00130746
0.00131685
0.00132614
0.00133534
0.00134445
0.00135349
0.00136245
0.00137135
0.00138019
0.00138898
0.00139773
0.00140645
0.00141513
0.00142379
0.00143243
0.00144107
0.0014497
0.00145834
0.00146699
0.00147566
0.00148436
0.00149309
0.00150186
0.00151068
0.00151956
0.00152851
0.00153752
0.00154662
0.00155581
0.0015651
0.00157449
0.00158401
0.00159366
0.00160345
0.00161342
0.00162357
0.00601942
0.00579511
0.00556822
0.00533989
0.00511147
0.00488395
0.00465803
0.00443406
0.00421224
0.00399261
0.00377507
0.00355913
0.00334403
0.00313112
0.00294529
0.00280224
0.00268213
0.00257745
0.00248525
0.00240325
0.00232972
0.00226331
0.00220297
0.00214783
0.0020972
0.00205052
0.00200731
0.00196716
0.00192974
0.00189475
0.00186194
0.00183107
0.00180196
0.00177441
0.00174827
0.00172338
0.00169961
0.0016768
0.00165476
0.00595972
0.00573154
0.00550574
0.00528044
0.00505523
0.00483019
0.00460547
0.00438124
0.00415765
0.00393484
0.0037129
0.00349223
0.00327447
0.00306848
0.00290722
0.0027834
0.00267326
0.00257507
0.00248714
0.00240798
0.00233636
0.00227123
0.00221174
0.00215717
0.00210692
0.00206049
0.00201742
0.00197736
0.00193997
0.00190498
0.00187213
0.00184121
0.00181202
0.00178438
0.00175813
0.00173313
0.00170925
0.00168638
0.0016645
0.00589932
0.00566321
0.00543201
0.00520329
0.00497564
0.0047483
0.0045209
0.0042934
0.00406609
0.00383957
0.00361501
0.00339403
0.00317796
0.00299558
0.0028664
0.0027581
0.0026594
0.00256946
0.00248746
0.00241258
0.00234405
0.00228117
0.00222332
0.00216995
0.00212058
0.00207478
0.00203218
0.00199244
0.00195529
0.00192046
0.00188771
0.00185685
0.00182769
0.00180006
0.00177381
0.00174881
0.00172495
0.00170211
0.00168022
0.00582564
0.00558141
0.00534206
0.00510582
0.0048713
0.00463753
0.00440416
0.00417148
0.00394024
0.00371165
0.00348713
0.00326806
0.00306587
0.00292531
0.00282569
0.00273164
0.00264379
0.00256218
0.00248656
0.00241658
0.00235181
0.00229183
0.00223622
0.00218459
0.00213656
0.00209181
0.00205002
0.00201093
0.00197427
0.00193982
0.00190738
0.00187675
0.00184777
0.00182029
0.00179416
0.00176925
0.00174546
0.00172268
0.00170079
0.00573116
0.00547849
0.0052296
0.00498359
0.00473964
0.00449741
0.00425715
0.00401955
0.00378553
0.00355602
0.00333168
0.00311344
0.0029628
0.00287416
0.00278818
0.00270568
0.00262735
0.0025535
0.00248417
0.00241927
0.00235861
0.00230195
0.00224902
0.00219956
0.0021533
0.00210999
0.00206938
0.00203125
0.00199539
0.00196159
0.00192969
0.00189951
0.00187091
0.00184374
0.00181787
0.00179318
0.00176957
0.00174692
0.00172514
0.00561027
0.00534839
0.00508927
0.00483278
0.0045791
0.00432875
0.00408242
0.00384073
0.00360408
0.00337241
0.00314482
0.00298745
0.00290493
0.00282816
0.0027529
0.00267995
0.0026099
0.00254313
0.00247979
0.00241995
0.00236354
0.00231044
0.00226051
0.00221358
0.00216944
0.00212792
0.00208883
0.00205198
0.00201721
0.00198435
0.00195325
0.00192376
0.00189574
0.00186908
0.00184364
0.00181933
0.00179604
0.00177366
0.00175211
0.00545907
0.00518732
0.00491802
0.00465186
0.00438981
0.00413278
0.00388138
0.00363588
0.00339617
0.00316216
0.0030012
0.00292232
0.00285422
0.00278636
0.00271954
0.00265441
0.00259143
0.00253096
0.00247318
0.00241819
0.002366
0.00231658
0.00226984
0.00222566
0.00218393
0.00214449
0.0021072
0.00207194
0.00203854
0.00200689
0.00197684
0.00194827
0.00192106
0.00189511
0.0018703
0.00184654
0.00182373
0.00180178
0.0017806
0.00527566
0.00499399
0.00471544
0.00444127
0.00417272
0.00391066
0.00365554
0.00340762
0.00316759
0.00300541
0.00293063
0.00286972
0.00280842
0.00274744
0.00268737
0.00262868
0.00257176
0.00251685
0.00246414
0.00241373
0.00236565
0.00231991
0.00227644
0.00223517
0.00219602
0.00215889
0.00212365
0.0020902
0.00205843
0.00202821
0.00199945
0.00197203
0.00194585
0.00192081
0.00189682
0.00187379
0.00185163
0.00183026
0.00180961
0.00506009
0.00476923
0.00448302
0.00420293
0.00393016
0.00366557
0.00340979
0.00316422
0.00300317
0.00293356
0.00287777
0.00282162
0.00276557
0.00271008
0.00265555
0.0026023
0.0025506
0.00250064
0.00245256
0.00240644
0.00236231
0.00232017
0.00227998
0.00224171
0.00220527
0.00217059
0.00213758
0.00210614
0.00207619
0.00204762
0.00202034
0.00199427
0.0019693
0.00194536
0.00192237
0.00190023
0.00187889
0.00185826
0.00183827
0.004814
0.00451557
0.004224
0.00394089
0.00366745
0.00340462
0.00315479
0.00299704
0.00293337
0.00288086
0.00282829
0.00277598
0.0027242
0.00267326
0.0026234
0.00257483
0.00252772
0.00248221
0.00243838
0.00239627
0.0023559
0.00231728
0.00228036
0.0022451
0.00221144
0.00217932
0.00214865
0.00211937
0.00209138
0.00206462
0.00203899
0.00201442
0.00199084
0.00196816
0.00194631
0.00192523
0.00190484
0.00188509
0.00186591
0.0045406
0.00423748
0.00394442
0.00366297
0.00339414
0.00314214
0.00298923
0.00293131
0.00288057
0.00283019
0.00278037
0.0027313
0.00268317
0.00263614
0.00259035
0.00254592
0.00250295
0.00246149
0.00242159
0.00238326
0.0023465
0.00231128
0.00227757
0.00224531
0.00221446
0.00218495
0.00215671
0.00212967
0.00210377
0.00207892
0.00205507
0.00203214
0.00201006
0.00198877
0.0019682
0.0019483
0.00192899
0.00191024
0.00189198
0.00424551
0.00394295
0.00365457
0.00338141
0.00312993
0.00298219
0.00292815
0.0028779
0.00282849
0.00278005
0.0027327
0.00268653
0.00264165
0.00259812
0.002556
0.00251534
0.00247616
0.00243847
0.00240227
0.00236752
0.00233421
0.0023023
0.00227172
0.00224244
0.00221439
0.00218751
0.00216174
0.00213701
0.00211326
0.00209041
0.00206842
0.00204722
0.00202674
0.00200694
0.00198775
0.00196912
0.001951
0.00193334
0.0019161
0.00393893
0.0036451
0.00337014
0.0031211
0.00297735
0.00292463
0.00287377
0.00282423
0.00277611
0.00272949
0.00268443
0.00264096
0.00259909
0.00255881
0.00252011
0.00248297
0.00244735
0.00241322
0.00238052
0.00234921
0.00231923
0.00229052
0.00226302
0.00223667
0.0022114
0.00218715
0.00216385
0.00214145
0.00211988
0.00209909
0.00207901
0.0020596
0.00204079
0.00202254
0.0020048
0.00198752
0.00197065
0.00195416
0.00193801
0.0036373
0.00336322
0.00311747
0.00297535
0.00292158
0.00286912
0.00281835
0.00276949
0.00272264
0.00267781
0.00263499
0.00259413
0.00255515
0.00251799
0.00248256
0.00244879
0.00241658
0.00238586
0.00235654
0.00232855
0.00230179
0.0022762
0.0022517
0.00222822
0.00220569
0.00218404
0.00216321
0.00214314
0.00212377
0.00210504
0.0020869
0.0020693
0.00205219
0.00203554
0.00201929
0.0020034
0.00198784
0.00197257
0.00195755
0.0033626
0.00312139
0.00297788
0.00292029
0.00286484
0.00281165
0.00276096
0.00271288
0.00266742
0.00262448
0.00258397
0.00254574
0.00250966
0.00247558
0.00244337
0.00241289
0.00238401
0.00235661
0.00233057
0.0023058
0.00228218
0.00225963
0.00223806
0.00221739
0.00219755
0.00217846
0.00216006
0.00214229
0.00212509
0.00210841
0.00209221
0.00207643
0.00206104
0.00204599
0.00203124
0.00201677
0.00200253
0.0019885
0.00197466
0.00313767
0.00298936
0.00292215
0.00286199
0.00280493
0.0027512
0.00270087
0.00265387
0.00261006
0.00256924
0.0025312
0.00249574
0.00246263
0.00243167
0.00240268
0.00237546
0.00234986
0.00232572
0.0023029
0.00228126
0.00226071
0.00224112
0.00222241
0.00220448
0.00218725
0.00217066
0.00215464
0.00213913
0.00212407
0.00210941
0.00209511
0.00208113
0.00206743
0.00205398
0.00204074
0.00202767
0.00201477
0.00200199
0.00198932
0.00301403
0.0029293
0.00286238
0.00279953
0.0027412
0.00268738
0.00263786
0.00259235
0.00255055
0.00251214
0.00247682
0.00244429
0.00241427
0.0023865
0.00236075
0.0023368
0.00231445
0.00229351
0.00227384
0.00225528
0.00223771
0.002221
0.00220506
0.00218979
0.00217511
0.00216094
0.00214723
0.00213391
0.00212093
0.00210824
0.0020958
0.00208358
0.00207154
0.00205965
0.00204788
0.00203621
0.00202462
0.00201307
0.00200157
0.00294736
0.00286893
0.0027973
0.00273231
0.00267347
0.00262025
0.00257213
0.00252861
0.00248922
0.00245355
0.00242118
0.00239175
0.00236494
0.00234043
0.00231795
0.00229726
0.00227812
0.00226035
0.00224375
0.00222819
0.00221351
0.00219959
0.00218633
0.00217363
0.0021614
0.00214958
0.00213809
0.00212688
0.00211591
0.00210512
0.00209448
0.00208396
0.00207352
0.00206315
0.00205281
0.0020425
0.00203218
0.00202184
0.00201148
0.00288648
0.00280113
0.00272655
0.00266072
0.00260236
0.00255052
0.00250439
0.00246331
0.00242669
0.00239401
0.00236478
0.0023386
0.00231507
0.00229386
0.00227466
0.0022572
0.00224124
0.00222656
0.00221297
0.00220031
0.00218843
0.0021772
0.00216652
0.00215628
0.00214641
0.00213682
0.00212746
0.00211828
0.00210922
0.00210025
0.00209133
0.00208244
0.00207354
0.00206462
0.00205566
0.00204665
0.00203756
0.00202839
0.00201913
0.00281521
0.00272725
0.00265173
0.00258625
0.00252917
0.00247926
0.00243556
0.00239725
0.00236364
0.00233413
0.00230818
0.00228531
0.00226511
0.00224721
0.00223126
0.00221699
0.00220414
0.00219247
0.00218179
0.00217193
0.00216275
0.0021541
0.00214588
0.00213799
0.00213035
0.0021229
0.00211556
0.0021083
0.00210106
0.00209381
0.00208653
0.00207918
0.00207175
0.00206422
0.00205657
0.00204879
0.00204088
0.00203283
0.00202463
0.00273597
0.00264841
0.00257373
0.0025097
0.00245461
0.00240715
0.00236623
0.00233096
0.00230055
0.00227435
0.00225175
0.00223225
0.00221539
0.00220077
0.00218804
0.00217689
0.00216706
0.00215832
0.00215045
0.00214328
0.00213667
0.00213048
0.0021246
0.00211895
0.00211343
0.00210799
0.00210257
0.00209711
0.00209159
0.00208597
0.00208023
0.00207434
0.00206828
0.00206206
0.00205565
0.00204905
0.00204225
0.00203525
0.00202805
0.00265
0.00256495
0.00249263
0.00243111
0.00237878
0.00233431
0.00229658
0.00226462
0.00223762
0.00221486
0.0021957
0.0021796
0.00216608
0.00215472
0.00214516
0.00213707
0.00213018
0.00212426
0.00211909
0.0021145
0.00211034
0.00210649
0.00210284
0.00209929
0.00209578
0.00209223
0.0020886
0.00208485
0.00208094
0.00207684
0.00207254
0.00206802
0.00206326
0.00205826
0.00205301
0.00204751
0.00204175
0.00203575
0.0020295
0.00255832
0.00247716
0.00240842
0.00235039
0.00230157
0.00226065
0.00222653
0.00219821
0.00217484
0.00215567
0.00214005
0.00212741
0.00211724
0.00210913
0.00210268
0.00209759
0.00209356
0.00209036
0.00208779
0.00208567
0.00208386
0.00208222
0.00208067
0.00207911
0.00207748
0.00207571
0.00207377
0.00207161
0.0020692
0.00206652
0.00206357
0.00206032
0.00205676
0.0020529
0.00204874
0.00204426
0.00203949
0.00203441
0.00202905
0.00246186
0.00238553
0.00232126
0.00226751
0.00222285
0.00218604
0.00215594
0.00213158
0.00211209
0.00209669
0.00208473
0.00207561
0.00206883
0.00206395
0.0020606
0.00205844
0.0020572
0.00205664
0.00205657
0.00205681
0.00205723
0.0020577
0.00205813
0.00205845
0.00205859
0.00205849
0.00205811
0.00205743
0.00205643
0.00205508
0.00205337
0.0020513
0.00204887
0.00204607
0.00204291
0.00203939
0.00203552
0.00203131
0.00202677
0.00236145
0.00229055
0.00223142
0.00218256
0.00214263
0.00211039
0.00208472
0.00206463
0.00204926
0.00203781
0.00202963
0.00202411
0.00202075