/*--------------------------------*- C++ -*----------------------------------*\
| =========                 |                                                 |
| \\      /  F ield         | OpenFOAM: The Open Source CFD Toolbox           |
|  \\    /   O peration     | Version:  v2012                                 |
|   \\  /    A nd           | Website:  www.openfoam.com                      |
|    \\/     M anipulation  |                                                 |
\*---------------------------------------------------------------------------*/
FoamFile
{
    version     2.0;
    format      ascii;
    class       pointVectorField;
    location    "7";
    object      pointD;
}
// * * * * * * * * * * * * * * * * * * * * * * * * * * * * * * * * * * * * * //

dimensions      [0 1 0 0 0 0 0];


internalField   nonuniform List<vector> 
32562
(
(0.00253094 0 0)
(0.00358318 0 0)
(0.00330406 -0.000322502 0)
(0 -0.00180853 0)
(0 -0.00131647 0)
(0.00261487 0 0)
(0 -0.00167642 0)
(0.0015483 -0.000563952 0)
(0.000755984 -0.00104819 0)
(0.00345544 -9.80527e-05 0)
(0.00186245 -0.000830716 0)
(0.00186245 -0.000830716 0)
(0.0015483 -0.000563952 0)
(0 -0.00167642 0)
(0 -0.00131647 0)
(0.00253094 0 0)
(0.00261487 0 0)
(0.00358318 0 0)
(0.00345544 -9.80527e-05 0)
(0.00330406 -0.000322502 0)
(0.000755984 -0.00104819 0)
(0 -0.00180853 0)
(3.09317e-05 -0.00167503 0)
(6.1953e-05 -0.00167102 0)
(9.31421e-05 -0.00166441 0)
(0.000124576 -0.00165525 0)
(0.000156323 -0.00164362 0)
(0.000188446 -0.0016296 0)
(0.000220998 -0.0016133 0)
(0.000254021 -0.00159484 0)
(0.000287551 -0.00157434 0)
(0.000321614 -0.00155193 0)
(0.000356229 -0.00152775 0)
(0.000391408 -0.00150192 0)
(0.000427157 -0.00147458 0)
(0.000463477 -0.00144587 0)
(0.000500363 -0.0014159 0)
(0.000537808 -0.00138481 0)
(0.000575801 -0.00135273 0)
(0.000614328 -0.00131976 0)
(0.000653374 -0.00128604 0)
(0.000692922 -0.00125166 0)
(0.00073295 -0.00121674 0)
(0.000773438 -0.00118138 0)
(0.000814364 -0.00114569 0)
(0.000855702 -0.00110975 0)
(0.000897429 -0.00107366 0)
(0.000939515 -0.00103751 0)
(0.000981934 -0.00100138 0)
(0.00102466 -0.000965359 0)
(0.00106765 -0.000929514 0)
(0.00111088 -0.000893919 0)
(0.00115431 -0.000858643 0)
(0.00119791 -0.00082375 0)
(0.00124164 -0.000789299 0)
(0.00128546 -0.000755344 0)
(0.00132934 -0.000721936 0)
(0.00137323 -0.000689118 0)
(0.0014171 -0.000656926 0)
(0.00146091 -0.000625377 0)
(0.00150465 -0.000594453 0)
(0.00159134 -0.000535324 0)
(0.00163419 -0.000507335 0)
(0.00167678 -0.000480078 0)
(0.00171903 -0.000453609 0)
(0.0017609 -0.000427961 0)
(0.00180231 -0.00040316 0)
(0.00184323 -0.000379222 0)
(0.00188359 -0.000356157 0)
(0.00192335 -0.000333974 0)
(0.00196246 -0.000312673 0)
(0.00200086 -0.000292255 0)
(0.00203851 -0.000272717 0)
(0.00207535 -0.000254051 0)
(0.00211134 -0.000236249 0)
(0.00214643 -0.000219299 0)
(0.00218057 -0.000203188 0)
(0.00221371 -0.000187899 0)
(0.00224581 -0.000173413 0)
(0.00227683 -0.000159712 0)
(0.00230672 -0.000146772 0)
(0.00233544 -0.000134569 0)
(0.00236294 -0.000123077 0)
(0.0023892 -0.00011227 0)
(0.00241417 -0.000102117 0)
(0.00243782 -9.25876e-05 0)
(0.00246011 -8.36506e-05 0)
(0.002481 -7.5272e-05 0)
(0.00250048 -6.74173e-05 0)
(0.00251851 -6.00506e-05 0)
(0.00253506 -5.3135e-05 0)
(0.00255011 -4.66325e-05 0)
(0.00256364 -4.05042e-05 0)
(0.00257562 -3.47103e-05 0)
(0.00258604 -2.92104e-05 0)
(0.00259488 -2.39631e-05 0)
(0.00260212 -1.89264e-05 0)
(0.00260776 -1.40577e-05 0)
(0.00261179 -9.31328e-06 0)
(0.00261417 -4.64706e-06 0)
(0.00253606 0 0)
(0.00254083 0 0)
(0.00254527 0 0)
(0.00254939 0 0)
(0.00255322 0 0)
(0.00255678 0 0)
(0.00256008 0 0)
(0.00256316 0 0)
(0.00256602 0 0)
(0.00256869 0 0)
(0.00257119 0 0)
(0.00257352 0 0)
(0.00257572 0 0)
(0.00257778 0 0)
(0.00257973 0 0)
(0.00258157 0 0)
(0.00258332 0 0)
(0.00258499 0 0)
(0.00258658 0 0)
(0.00258811 0 0)
(0.00258959 0 0)
(0.00259102 0 0)
(0.00259241 0 0)
(0.00259377 0 0)
(0.0025951 0 0)
(0.00259641 0 0)
(0.0025977 0 0)
(0.00259899 0 0)
(0.00260026 0 0)
(0.00260154 0 0)
(0.00260282 0 0)
(0.0026041 0 0)
(0.00260539 0 0)
(0.00260669 0 0)
(0.00260801 0 0)
(0.00260934 0 0)
(0.00261069 0 0)
(0.00261206 0 0)
(0.00261345 0 0)
(0.0026187 0 0)
(0.00262269 0 0)
(0.00262686 0 0)
(0.00263125 0 0)
(0.00263588 0 0)
(0.00264076 0 0)
(0.0026459 0 0)
(0.0026513 0 0)
(0.00265697 0 0)
(0.00266292 0 0)
(0.00266914 0 0)
(0.00267564 0 0)
(0.00268241 0 0)
(0.00268946 0 0)
(0.00269678 0 0)
(0.00270437 0 0)
(0.00271224 0 0)
(0.00272036 0 0)
(0.00272876 0 0)
(0.00273741 0 0)
(0.00274632 0 0)
(0.00275549 0 0)
(0.0027649 0 0)
(0.00277457 0 0)
(0.00278447 0 0)
(0.00279462 0 0)
(0.00280501 0 0)
(0.00281562 0 0)
(0.00282647 0 0)
(0.00283754 0 0)
(0.00284884 0 0)
(0.00286035 0 0)
(0.00287208 0 0)
(0.00288402 0 0)
(0.00289616 0 0)
(0.00290851 0 0)
(0.00292105 0 0)
(0.0029338 0 0)
(0.00294673 0 0)
(0.00295985 0 0)
(0.00297316 0 0)
(0.00298664 0 0)
(0.0030003 0 0)
(0.00301414 0 0)
(0.00302814 0 0)
(0.0030423 0 0)
(0.00305662 0 0)
(0.0030711 0 0)
(0.00308573 0 0)
(0.00310051 0 0)
(0.00311542 0 0)
(0.00313047 0 0)
(0.00314566 0 0)
(0.00316097 0 0)
(0.00317641 0 0)
(0.00319196 0 0)
(0.00320762 0 0)
(0.0032234 0 0)
(0.00323927 0 0)
(0.00325524 0 0)
(0.00327129 0 0)
(0.00328743 0 0)
(0.00330365 0 0)
(0.00331993 0 0)
(0.00333628 0 0)
(0.00335268 0 0)
(0.00336913 0 0)
(0.00338563 0 0)
(0.00340215 0 0)
(0.00341869 0 0)
(0.00343525 0 0)
(0.00345181 0 0)
(0.00346837 0 0)
(0.00348491 0 0)
(0.00350142 0 0)
(0.00351789 0 0)
(0.00353431 0 0)
(0.00355067 0 0)
(0.00356696 0 0)
(0.00358299 -1.1391e-06 0)
(0.00358267 -2.3009e-06 0)
(0.00358216 -3.47692e-06 0)
(0.00358147 -4.66984e-06 0)
(0.0035806 -5.88452e-06 0)
(0.00357953 -7.1263e-06 0)
(0.00357828 -8.40065e-06 0)
(0.00357684 -9.713e-06 0)
(0.00357522 -1.10687e-05 0)
(0.00357342 -1.24731e-05 0)
(0.00357143 -1.39312e-05 0)
(0.00356927 -1.54483e-05 0)
(0.00356694 -1.70292e-05 0)
(0.00356443 -1.86788e-05 0)
(0.00356176 -2.0402e-05 0)
(0.00355893 -2.22033e-05 0)
(0.00355593 -2.40872e-05 0)
(0.00355278 -2.60581e-05 0)
(0.00354948 -2.81202e-05 0)
(0.00354604 -3.02775e-05 0)
(0.00354245 -3.25341e-05 0)
(0.00353873 -3.48935e-05 0)
(0.00353488 -3.73594e-05 0)
(0.0035309 -3.99352e-05 0)
(0.00352681 -4.2624e-05 0)
(0.0035226 -4.54289e-05 0)
(0.00351829 -4.83526e-05 0)
(0.00351387 -5.13977e-05 0)
(0.00350937 -5.45667e-05 0)
(0.00350477 -5.78617e-05 0)
(0.00350009 -6.12845e-05 0)
(0.00349534 -6.4837e-05 0)
(0.00349052 -6.85206e-05 0)
(0.00348563 -7.23365e-05 0)
(0.0034807 -7.62859e-05 0)
(0.00347571 -8.03694e-05 0)
(0.00347069 -8.45876e-05 0)
(0.00346563 -8.89411e-05 0)
(0.00346055 -9.343e-05 0)
(0.00345318 -0.000100139 0)
(0.00345093 -0.000102252 0)
(0.00344866 -0.00010439 0)
(0.0034464 -0.000106555 0)
(0.00344414 -0.000108745 0)
(0.00344187 -0.000110961 0)
(0.00343961 -0.000113202 0)
(0.00343735 -0.00011547 0)
(0.00343509 -0.000117762 0)
(0.00343283 -0.000120079 0)
(0.00343058 -0.000122422 0)
(0.00342833 -0.000124789 0)
(0.00342609 -0.000127181 0)
(0.00342385 -0.000129597 0)
(0.00342162 -0.000132037 0)
(0.00341939 -0.000134501 0)
(0.00341717 -0.000136989 0)
(0.00341496 -0.0001395 0)
(0.00341276 -0.000142034 0)
(0.00341056 -0.000144591 0)
(0.00340837 -0.00014717 0)
(0.0034062 -0.000149772 0)
(0.00340403 -0.000152395 0)
(0.00340187 -0.00015504 0)
(0.00339973 -0.000157707 0)
(0.00339759 -0.000160394 0)
(0.00339547 -0.000163101 0)
(0.00339336 -0.000165829 0)
(0.00339127 -0.000168576 0)
(0.00338918 -0.000171342 0)
(0.00338711 -0.000174128 0)
(0.00338506 -0.000176931 0)
(0.00338301 -0.000179753 0)
(0.00338099 -0.000182592 0)
(0.00337897 -0.000185449 0)
(0.00337698 -0.000188322 0)
(0.003375 -0.000191211 0)
(0.00337303 -0.000194115 0)
(0.00337108 -0.000197035 0)
(0.00336915 -0.000199969 0)
(0.00336723 -0.000202917 0)
(0.00336533 -0.000205879 0)
(0.00336345 -0.000208853 0)
(0.00336159 -0.00021184 0)
(0.00335974 -0.000214838 0)
(0.00335791 -0.000217848 0)
(0.0033561 -0.000220868 0)
(0.0033543 -0.000223899 0)
(0.00335252 -0.000226938 0)
(0.00335076 -0.000229986 0)
(0.00334902 -0.000233043 0)
(0.00334729 -0.000236106 0)
(0.00334558 -0.000239177 0)
(0.00334389 -0.000242254 0)
(0.00334221 -0.000245336 0)
(0.00334055 -0.000248423 0)
(0.00333891 -0.000251514 0)
(0.00333728 -0.000254609 0)
(0.00333567 -0.000257706 0)
(0.00333407 -0.000260806 0)
(0.00333249 -0.000263907 0)
(0.00333092 -0.00026701 0)
(0.00332936 -0.000270113 0)
(0.00332782 -0.000273215 0)
(0.00332629 -0.000276317 0)
(0.00332477 -0.000279417 0)
(0.00332326 -0.000282515 0)
(0.00332176 -0.000285611 0)
(0.00332026 -0.000288704 0)
(0.00331878 -0.000291794 0)
(0.0033173 -0.000294881 0)
(0.00331582 -0.000297963 0)
(0.00331435 -0.000301042 0)
(0.00331288 -0.000304117 0)
(0.00331142 -0.000307188 0)
(0.00330995 -0.000310256 0)
(0.00330848 -0.00031332 0)
(0.00330701 -0.000316382 0)
(0.00330554 -0.000319442 0)
(0.00328172 -0.000327126 0)
(0.00325941 -0.000331761 0)
(0.00323713 -0.000336376 0)
(0.00321489 -0.000340934 0)
(0.00319268 -0.000345405 0)
(0.00317048 -0.000349761 0)
(0.00314827 -0.000353981 0)
(0.00312603 -0.000358049 0)
(0.00310375 -0.000361954 0)
(0.0030814 -0.000365687 0)
(0.00305897 -0.000369243 0)
(0.00303643 -0.000372621 0)
(0.00301377 -0.000375822 0)
(0.00299097 -0.000378848 0)
(0.00296802 -0.000381702 0)
(0.00294489 -0.000384393 0)
(0.00292157 -0.000386926 0)
(0.00289805 -0.000389311 0)
(0.0028743 -0.000391557 0)
(0.00285033 -0.000393675 0)
(0.0028261 -0.000395677 0)
(0.00280162 -0.000397576 0)
(0.00277686 -0.000399385 0)
(0.00275182 -0.000401118 0)
(0.00272648 -0.000402789 0)
(0.00270083 -0.000404414 0)
(0.00267486 -0.000406009 0)
(0.00264855 -0.000407591 0)
(0.00262191 -0.000409177 0)
(0.00259491 -0.000410785 0)
(0.00256756 -0.000412433 0)
(0.00253983 -0.00041414 0)
(0.00251172 -0.000415926 0)
(0.00248321 -0.000417811 0)
(0.00245431 -0.000419816 0)
(0.002425 -0.000421962 0)
(0.00239528 -0.000424271 0)
(0.00236513 -0.000426767 0)
(0.00233455 -0.000429471 0)
(0.00230353 -0.000432409 0)
(0.00227207 -0.000435605 0)
(0.00224016 -0.000439083 0)
(0.0022078 -0.000442871 0)
(0.00217497 -0.000446994 0)
(0.00214169 -0.000451479 0)
(0.00210793 -0.000456354 0)
(0.00207371 -0.000461647 0)
(0.00203902 -0.000467387 0)
(0.00200385 -0.000473603 0)
(0.00196822 -0.000480325 0)
(0.00193212 -0.000487583 0)
(0.00189556 -0.000495407 0)
(0.00185853 -0.000503828 0)
(0.00182105 -0.000512876 0)
(0.00178313 -0.000522583 0)
(0.00174476 -0.00053298 0)
(0.00170597 -0.000544096 0)
(0.00166677 -0.000555962 0)
(0.00162717 -0.000568607 0)
(0.00158719 -0.000582062 0)
(0.00154684 -0.000596353 0)
(0.00150616 -0.000611508 0)
(0.00146516 -0.000627552 0)
(0.00142387 -0.00064451 0)
(0.00138232 -0.000662403 0)
(0.00134054 -0.000681251 0)
(0.00129856 -0.000701072 0)
(0.00125643 -0.00072188 0)
(0.00121418 -0.000743686 0)
(0.00117186 -0.000766497 0)
(0.00112951 -0.000790318 0)
(0.00108718 -0.000815147 0)
(0.00104492 -0.000840979 0)
(0.00100279 -0.000867802 0)
(0.000960838 -0.0008956 0)
(0.00091913 -0.00092435 0)
(0.000877724 -0.000954022 0)
(0.000836684 -0.000984581 0)
(0.000796076 -0.00101598 0)
(0.000727351 -0.00107184 0)
(0.000699044 -0.00109587 0)
(0.000671082 -0.00112022 0)
(0.000643488 -0.00114487 0)
(0.000616286 -0.00116979 0)
(0.000589498 -0.00119493 0)
(0.00056315 -0.00122026 0)
(0.000537262 -0.00124574 0)
(0.000511857 -0.00127132 0)
(0.000486957 -0.00129696 0)
(0.00046258 -0.00132262 0)
(0.000438747 -0.00134824 0)
(0.000415474 -0.00137378 0)
(0.000392778 -0.00139916 0)
(0.000370673 -0.00142435 0)
(0.000349172 -0.00144928 0)
(0.000328284 -0.0014739 0)
(0.000308019 -0.00149813 0)
(0.000288382 -0.00152192 0)
(0.000269376 -0.0015452 0)
(0.000251004 -0.00156791 0)
(0.000233261 -0.00158998 0)
(0.000216144 -0.00161135 0)
(0.000199645 -0.00163194 0)
(0.000183751 -0.0016517 0)
(0.000168447 -0.00167055 0)
(0.000153717 -0.00168843 0)
(0.000139538 -0.00170528 0)
(0.000125884 -0.00172104 0)
(0.000112728 -0.00173565 0)
(0.000100037 -0.00174905 0)
(8.77756e-05 -0.0017612 0)
(7.59053e-05 -0.00177204 0)
(6.43845e-05 -0.00178153 0)
(5.31688e-05 -0.00178963 0)
(4.22113e-05 -0.00179631 0)
(3.14628e-05 -0.00180154 0)
(2.08723e-05 -0.00180532 0)
(1.039e-05 -0.00180763 0)
(0 -0.00180744 0)
(0 -0.0018063 0)
(0 -0.00180514 0)
(0 -0.00180395 0)
(0 -0.00180273 0)
(0 -0.00180149 0)
(0 -0.00180021 0)
(0 -0.00179891 0)
(0 -0.00179759 0)
(0 -0.00179624 0)
(0 -0.00179486 0)
(0 -0.00179347 0)
(0 -0.00179205 0)
(0 -0.00179061 0)
(0 -0.00178915 0)
(0 -0.00178767 0)
(0 -0.00178618 0)
(0 -0.00178466 0)
(0 -0.00178313 0)
(0 -0.00178158 0)
(0 -0.00178002 0)
(0 -0.00177844 0)
(0 -0.00177685 0)
(0 -0.00177524 0)
(0 -0.00177362 0)
(0 -0.00177199 0)
(0 -0.00177035 0)
(0 -0.00176869 0)
(0 -0.00176703 0)
(0 -0.00176535 0)
(0 -0.00176367 0)
(0 -0.00176197 0)
(0 -0.00176027 0)
(0 -0.00175856 0)
(0 -0.00175684 0)
(0 -0.00175512 0)
(0 -0.00175338 0)
(0 -0.00175165 0)
(0 -0.0017499 0)
(0 -0.00174815 0)
(0 -0.0017464 0)
(0 -0.00174464 0)
(0 -0.00174287 0)
(0 -0.00174111 0)
(0 -0.00173934 0)
(0 -0.00173756 0)
(0 -0.00173578 0)
(0 -0.001734 0)
(0 -0.00173222 0)
(0 -0.00173043 0)
(0 -0.00172864 0)
(0 -0.00172685 0)
(0 -0.00172506 0)
(0 -0.00172327 0)
(0 -0.00172147 0)
(0 -0.00171968 0)
(0 -0.00171788 0)
(0 -0.00171608 0)
(0 -0.00171429 0)
(0 -0.00171249 0)
(0 -0.00171069 0)
(0 -0.00170889 0)
(0 -0.00170709 0)
(0 -0.00170529 0)
(0 -0.00170348 0)
(0 -0.00170168 0)
(0 -0.00169988 0)
(0 -0.00169808 0)
(0 -0.00169628 0)
(0 -0.00169448 0)
(0 -0.00169267 0)
(0 -0.00169087 0)
(0 -0.00168907 0)
(0 -0.00168726 0)
(0 -0.00168546 0)
(0 -0.00168365 0)
(0 -0.00168185 0)
(0 -0.00168004 0)
(0 -0.00167823 0)
(0 -0.00167276 0)
(0 -0.0016691 0)
(0 -0.00166542 0)
(0 -0.00166173 0)
(0 -0.00165802 0)
(0 -0.00165429 0)
(0 -0.00165053 0)
(0 -0.00164674 0)
(0 -0.0016429 0)
(0 -0.00163902 0)
(0 -0.00163509 0)
(0 -0.00163109 0)
(0 -0.00162702 0)
(0 -0.00162286 0)
(0 -0.00161861 0)
(0 -0.00161425 0)
(0 -0.00160975 0)
(0 -0.00160511 0)
(0 -0.0016003 0)
(0 -0.00159529 0)
(0 -0.00159004 0)
(0 -0.00158451 0)
(0 -0.00157866 0)
(0 -0.0015724 0)
(0 -0.00156564 0)
(0 -0.00155797 0)
(0 -0.00154914 0)
(0 -0.00153914 0)
(0 -0.00152793 0)
(0 -0.00151548 0)
(0 -0.00150175 0)
(0 -0.00148673 0)
(0 -0.00147037 0)
(0 -0.00145266 0)
(0 -0.00143356 0)
(0 -0.00141304 0)
(0 -0.00139108 0)
(0 -0.00136766 0)
(0 -0.00134277 0)
(0.00158229 -0.000534043 0)
(0.00161572 -0.000505341 0)
(0.00164863 -0.000478011 0)
(0.00168101 -0.000452096 0)
(0.00171287 -0.000427596 0)
(0.00174421 -0.000404492 0)
(0.00177501 -0.000382751 0)
(0.0018053 -0.000362337 0)
(0.00183507 -0.000343205 0)
(0.00186435 -0.000325311 0)
(0.00189314 -0.000308606 0)
(0.00192146 -0.000293041 0)
(0.00194932 -0.000278568 0)
(0.00197675 -0.000265136 0)
(0.00200376 -0.000252697 0)
(0.00203037 -0.000241204 0)
(0.0020566 -0.00023061 0)
(0.00208247 -0.000220868 0)
(0.002108 -0.000211935 0)
(0.00213321 -0.000203768 0)
(0.00215812 -0.000196324 0)
(0.00218275 -0.000189563 0)
(0.00220711 -0.000183447 0)
(0.00223123 -0.000177938 0)
(0.00225513 -0.000173 0)
(0.00227881 -0.000168598 0)
(0.00230229 -0.000164698 0)
(0.0023256 -0.000161269 0)
(0.00234874 -0.00015828 0)
(0.00237173 -0.000155699 0)
(0.00239458 -0.0001535 0)
(0.0024173 -0.000151654 0)
(0.00243991 -0.000150134 0)
(0.00246241 -0.000148916 0)
(0.00248481 -0.000147973 0)
(0.00250713 -0.000147283 0)
(0.00252937 -0.000146822 0)
(0.00255155 -0.000146569 0)
(0.00257365 -0.000146501 0)
(0.0025957 -0.000146599 0)
(0.00261771 -0.000146842 0)
(0.00263966 -0.00014721 0)
(0.00266158 -0.000147686 0)
(0.00268345 -0.000148251 0)
(0.0027053 -0.000148888 0)
(0.00272711 -0.000149579 0)
(0.0027489 -0.000150307 0)
(0.00277067 -0.000151058 0)
(0.00279241 -0.000151814 0)
(0.00281413 -0.000152561 0)
(0.00283583 -0.000153284 0)
(0.00285751 -0.000153968 0)
(0.00287918 -0.000154599 0)
(0.00290082 -0.000155162 0)
(0.00292245 -0.000155644 0)
(0.00294406 -0.000156031 0)
(0.00296565 -0.000156309 0)
(0.00298723 -0.000156466 0)
(0.00300878 -0.000156486 0)
(0.00303031 -0.000156357 0)
(0.00305182 -0.000156065 0)
(0.00307331 -0.000155597 0)
(0.00309477 -0.000154939 0)
(0.00311621 -0.000154076 0)
(0.00313763 -0.000152994 0)
(0.00315901 -0.000151678 0)
(0.00318037 -0.000150112 0)
(0.0032017 -0.000148281 0)
(0.003223 -0.000146166 0)
(0.00324426 -0.000143751 0)
(0.0032655 -0.000141016 0)
(0.00328671 -0.00013794 0)
(0.00330789 -0.000134502 0)
(0.00332904 -0.000130678 0)
(0.00335017 -0.000126443 0)
(0.00337126 -0.000121769 0)
(0.00339234 -0.000116627 0)
(0.00341339 -0.000110983 0)
(0.00343442 -0.000104803 0)
(0.00153483 -0.000570771 0)
(0.00152153 -0.000577582 0)
(0.00150838 -0.000584387 0)
(0.00149538 -0.000591188 0)
(0.00148254 -0.000597984 0)
(0.00146985 -0.000604778 0)
(0.00145731 -0.000611569 0)
(0.00144492 -0.000618357 0)
(0.00143268 -0.000625141 0)
(0.00142059 -0.00063192 0)
(0.00140864 -0.000638694 0)
(0.00139684 -0.00064546 0)
(0.00138518 -0.000652218 0)
(0.00137366 -0.000658965 0)
(0.00136227 -0.000665702 0)
(0.00135103 -0.000672425 0)
(0.00133992 -0.000679134 0)
(0.00132894 -0.000685827 0)
(0.00131808 -0.000692502 0)
(0.00130736 -0.000699159 0)
(0.00129676 -0.000705795 0)
(0.00128628 -0.00071241 0)
(0.00127592 -0.000719002 0)
(0.00126568 -0.00072557 0)
(0.00125555 -0.000732113 0)
(0.00124552 -0.000738629 0)
(0.00123561 -0.000745118 0)
(0.00122579 -0.000751578 0)
(0.00121608 -0.000758009 0)
(0.00120646 -0.00076441 0)
(0.00119694 -0.00077078 0)
(0.0011875 -0.000777118 0)
(0.00117815 -0.000783424 0)
(0.00116889 -0.000789696 0)
(0.0011597 -0.000795936 0)
(0.00115058 -0.000802141 0)
(0.00114153 -0.000808312 0)
(0.00113255 -0.000814448 0)
(0.00112363 -0.00082055 0)
(0.00111477 -0.000826616 0)
(0.00110596 -0.000832648 0)
(0.0010972 -0.000838644 0)
(0.00108849 -0.000844605 0)
(0.00107982 -0.000850531 0)
(0.00107119 -0.000856423 0)
(0.00106258 -0.00086228 0)
(0.00105401 -0.000868102 0)
(0.00104546 -0.000873891 0)
(0.00103692 -0.000879647 0)
(0.00102841 -0.00088537 0)
(0.0010199 -0.000891061 0)
(0.00101139 -0.000896721 0)
(0.00100289 -0.00090235 0)
(0.000994387 -0.00090795 0)
(0.000985872 -0.000913521 0)
(0.000977344 -0.000919065 0)
(0.000968797 -0.000924581 0)
(0.000960228 -0.000930073 0)
(0.000951631 -0.000935541 0)
(0.000943002 -0.000940986 0)
(0.000934335 -0.00094641 0)
(0.000925626 -0.000951815 0)
(0.00091687 -0.000957201 0)
(0.000908062 -0.000962572 0)
(0.000899197 -0.000967928 0)
(0.00089027 -0.000973273 0)
(0.000881275 -0.000978607 0)
(0.000872209 -0.000983933 0)
(0.000863066 -0.000989253 0)
(0.00085384 -0.00099457 0)
(0.000844528 -0.000999887 0)
(0.000835123 -0.00100521 0)
(0.000825621 -0.00101053 0)
(0.000816017 -0.00101586 0)
(0.000806305 -0.0010212 0)
(0.000796481 -0.00102656 0)
(0.000786541 -0.00103193 0)
(0.000776479 -0.00103732 0)
(0.000766294 -0.00104274 0)
(6.38394e-05 -0.00131835 0)
(0.000127313 -0.00132008 0)
(0.000190453 -0.00132185 0)
(0.000253143 -0.0013237 0)
(0.000315223 -0.00132557 0)
(0.000376513 -0.00132737 0)
(0.000436817 -0.00132891 0)
(0.000495926 -0.00132995 0)
(0.000553638 -0.00133019 0)
(0.000609769 -0.0013293 0)
(0.000664166 -0.00132693 0)
(0.000716711 -0.00132273 0)
(0.000767337 -0.00131639 0)
(0.000816053 -0.00130767 0)
(0.00086298 -0.00129654 0)
(0.000908382 -0.00128316 0)
(0.000952658 -0.00126799 0)
(0.000996345 -0.00125182 0)
(0.00103993 -0.00123532 0)
(0.00108355 -0.00121868 0)
(0.00112705 -0.00120176 0)
(0.00117034 -0.00118452 0)
(0.00121333 -0.00116695 0)
(0.00125596 -0.00114905 0)
(0.00129818 -0.00113082 0)
(0.00133995 -0.00111229 0)
(0.00138122 -0.00109347 0)
(0.00142198 -0.00107437 0)
(0.00146218 -0.00105502 0)
(0.00150181 -0.00103543 0)
(0.00154084 -0.00101563 0)
(0.00157926 -0.000995629 0)
(0.00161703 -0.000975452 0)
(0.00165415 -0.000955117 0)
(0.00169061 -0.000934641 0)
(0.00172638 -0.000914042 0)
(0.00176147 -0.000893335 0)
(0.00179584 -0.000872535 0)
(0.00182951 -0.000851658 0)
(0.00189465 -0.000809722 0)
(0.00192612 -0.000788688 0)
(0.00195684 -0.000767623 0)
(0.00198681 -0.000746536 0)
(0.00201602 -0.000725437 0)
(0.00204447 -0.000704333 0)
(0.00207214 -0.00068323 0)
(0.00209905 -0.000662134 0)
(0.00212517 -0.00064105 0)
(0.00215051 -0.000619983 0)
(0.00217506 -0.000598936 0)
(0.00219882 -0.000577911 0)
(0.00222178 -0.000556913 0)
(0.00224395 -0.000535942 0)
(0.00226531 -0.000515 0)
(0.00228587 -0.000494089 0)
(0.00230561 -0.000473208 0)
(0.00232454 -0.000452359 0)
(0.00234266 -0.000431542 0)
(0.00235995 -0.000410756 0)
(0.00237643 -0.000390001 0)
(0.00239208 -0.000369277 0)
(0.0024069 -0.000348582 0)
(0.00242088 -0.000327917 0)
(0.00243404 -0.000307279 0)
(0.00244636 -0.000286668 0)
(0.00245784 -0.000266082 0)
(0.00246848 -0.00024552 0)
(0.00247828 -0.000224981 0)
(0.00248724 -0.000204463 0)
(0.00249535 -0.000183964 0)
(0.00250262 -0.000163484 0)
(0.00250904 -0.00014302 0)
(0.00251462 -0.000122572 0)
(0.00251935 -0.000102137 0)
(0.00252324 -8.1716e-05 0)
(0.00252629 -6.13075e-05 0)
(0.00252853 -4.09104e-05 0)
(0.00253 -2.05132e-05 0)
(0.0018443 -0.000815701 0)
(0.00182704 -0.000801505 0)
(0.00181062 -0.000788074 0)
(0.001795 -0.000775361 0)
(0.00178013 -0.00076332 0)
(0.00176599 -0.000751909 0)
(0.00175254 -0.000741088 0)
(0.00173974 -0.000730822 0)
(0.00172756 -0.000721077 0)
(0.00171599 -0.000711821 0)
(0.00170497 -0.000703025 0)
(0.00169451 -0.000694661 0)
(0.00168455 -0.000686705 0)
(0.00167509 -0.000679131 0)
(0.0016661 -0.000671918 0)
(0.00165757 -0.000665045 0)
(0.00164946 -0.000658491 0)
(0.00164177 -0.000652239 0)
(0.00163446 -0.000646272 0)
(0.00162754 -0.000640572 0)
(0.00162098 -0.000635125 0)
(0.00161476 -0.000629915 0)
(0.00160888 -0.000624931 0)
(0.00160331 -0.000620158 0)
(0.00159804 -0.000615584 0)
(0.00159307 -0.000611199 0)
(0.00158838 -0.00060699 0)
(0.00158396 -0.000602949 0)
(0.00157979 -0.000599065 0)
(0.00157587 -0.000595328 0)
(0.00157219 -0.000591731 0)
(0.00156874 -0.000588263 0)
(0.00156551 -0.000584916 0)
(0.00156249 -0.000581682 0)
(0.00155967 -0.000578552 0)
(0.00155705 -0.000575515 0)
(0.00155462 -0.000572561 0)
(0.00155236 -0.000569673 0)
(0.00155027 -0.000566824 0)
(0.0018443 -0.000815701 0)
(0.00182704 -0.000801505 0)
(0.00181062 -0.000788074 0)
(0.001795 -0.000775361 0)
(0.00178013 -0.00076332 0)
(0.00176599 -0.000751909 0)
(0.00175254 -0.000741088 0)
(0.00173974 -0.000730822 0)
(0.00172756 -0.000721077 0)
(0.00171599 -0.000711821 0)
(0.00170497 -0.000703025 0)
(0.00169451 -0.000694661 0)
(0.00168455 -0.000686705 0)
(0.00167509 -0.000679131 0)
(0.0016661 -0.000671918 0)
(0.00165757 -0.000665045 0)
(0.00164946 -0.000658491 0)
(0.00164177 -0.000652239 0)
(0.00163446 -0.000646272 0)
(0.00162754 -0.000640572 0)
(0.00162098 -0.000635125 0)
(0.00161476 -0.000629915 0)
(0.00160888 -0.000624931 0)
(0.00160331 -0.000620158 0)
(0.00159804 -0.000615584 0)
(0.00159307 -0.000611199 0)
(0.00158838 -0.00060699 0)
(0.00158396 -0.000602949 0)
(0.00157979 -0.000599065 0)
(0.00157587 -0.000595328 0)
(0.00157219 -0.000591731 0)
(0.00156874 -0.000588263 0)
(0.00156551 -0.000584916 0)
(0.00156249 -0.000581682 0)
(0.00155967 -0.000578552 0)
(0.00155705 -0.000575515 0)
(0.00155462 -0.000572561 0)
(0.00155236 -0.000569673 0)
(0.00155027 -0.000566824 0)
(0.00150465 -0.000594453 0)
(0.00146091 -0.000625377 0)
(0.0014171 -0.000656926 0)
(0.00137323 -0.000689118 0)
(0.00132934 -0.000721936 0)
(0.00128546 -0.000755344 0)
(0.00124164 -0.000789299 0)
(0.00119791 -0.00082375 0)
(0.00115431 -0.000858643 0)
(0.00111088 -0.000893919 0)
(0.00106765 -0.000929514 0)
(0.00102466 -0.000965359 0)
(0.000981934 -0.00100138 0)
(0.000939515 -0.00103751 0)
(0.000897429 -0.00107366 0)
(0.000855702 -0.00110975 0)
(0.000814364 -0.00114569 0)
(0.000773438 -0.00118138 0)
(0.00073295 -0.00121674 0)
(0.000692922 -0.00125166 0)
(0.000653374 -0.00128604 0)
(0.000614328 -0.00131976 0)
(0.000575801 -0.00135273 0)
(0.000537808 -0.00138481 0)
(0.000500363 -0.0014159 0)
(0.000463477 -0.00144587 0)
(0.000427157 -0.00147458 0)
(0.000391408 -0.00150192 0)
(0.000356229 -0.00152775 0)
(0.000321614 -0.00155193 0)
(0.000287551 -0.00157434 0)
(0.000254021 -0.00159484 0)
(0.000220998 -0.0016133 0)
(0.000188446 -0.0016296 0)
(0.000156323 -0.00164362 0)
(0.000124576 -0.00165525 0)
(9.31421e-05 -0.00166441 0)
(6.1953e-05 -0.00167102 0)
(3.09317e-05 -0.00167503 0)
(0 -0.00167276 0)
(0 -0.0016691 0)
(0 -0.00166542 0)
(0 -0.00166173 0)
(0 -0.00165802 0)
(0 -0.00165429 0)
(0 -0.00165053 0)
(0 -0.00164674 0)
(0 -0.0016429 0)
(0 -0.00163902 0)
(0 -0.00163509 0)
(0 -0.00163109 0)
(0 -0.00162702 0)
(0 -0.00162286 0)
(0 -0.00161861 0)
(0 -0.00161425 0)
(0 -0.00160975 0)
(0 -0.00160511 0)
(0 -0.0016003 0)
(0 -0.00159529 0)
(0 -0.00159004 0)
(0 -0.00158451 0)
(0 -0.00157866 0)
(0 -0.0015724 0)
(0 -0.00156564 0)
(0 -0.00155797 0)
(0 -0.00154914 0)
(0 -0.00153914 0)
(0 -0.00152793 0)
(0 -0.00151548 0)
(0 -0.00150175 0)
(0 -0.00148673 0)
(0 -0.00147037 0)
(0 -0.00145266 0)
(0 -0.00143356 0)
(0 -0.00141304 0)
(0 -0.00139108 0)
(0 -0.00136766 0)
(0 -0.00134277 0)
(6.38394e-05 -0.00131835 0)
(0.000127313 -0.00132008 0)
(0.000190453 -0.00132185 0)
(0.000253143 -0.0013237 0)
(0.000315223 -0.00132557 0)
(0.000376513 -0.00132737 0)
(0.000436817 -0.00132891 0)
(0.000495926 -0.00132995 0)
(0.000553638 -0.00133019 0)
(0.000609769 -0.0013293 0)
(0.000664166 -0.00132693 0)
(0.000716711 -0.00132273 0)
(0.000767337 -0.00131639 0)
(0.000816053 -0.00130767 0)
(0.00086298 -0.00129654 0)
(0.000908382 -0.00128316 0)
(0.000952658 -0.00126799 0)
(0.000996345 -0.00125182 0)
(0.00103993 -0.00123532 0)
(0.00108355 -0.00121868 0)
(0.00112705 -0.00120176 0)
(0.00117034 -0.00118452 0)
(0.00121333 -0.00116695 0)
(0.00125596 -0.00114905 0)
(0.00129818 -0.00113082 0)
(0.00133995 -0.00111229 0)
(0.00138122 -0.00109347 0)
(0.00142198 -0.00107437 0)
(0.00146218 -0.00105502 0)
(0.00150181 -0.00103543 0)
(0.00154084 -0.00101563 0)
(0.00157926 -0.000995629 0)
(0.00161703 -0.000975452 0)
(0.00165415 -0.000955117 0)
(0.00169061 -0.000934641 0)
(0.00172638 -0.000914042 0)
(0.00176147 -0.000893335 0)
(0.00179584 -0.000872535 0)
(0.00182951 -0.000851658 0)
(0.00189465 -0.000809722 0)
(0.00192612 -0.000788688 0)
(0.00195684 -0.000767623 0)
(0.00198681 -0.000746536 0)
(0.00201602 -0.000725437 0)
(0.00204447 -0.000704333 0)
(0.00207214 -0.00068323 0)
(0.00209905 -0.000662134 0)
(0.00212517 -0.00064105 0)
(0.00215051 -0.000619983 0)
(0.00217506 -0.000598936 0)
(0.00219882 -0.000577911 0)
(0.00222178 -0.000556913 0)
(0.00224395 -0.000535942 0)
(0.00226531 -0.000515 0)
(0.00228587 -0.000494089 0)
(0.00230561 -0.000473208 0)
(0.00232454 -0.000452359 0)
(0.00234266 -0.000431542 0)
(0.00235995 -0.000410756 0)
(0.00237643 -0.000390001 0)
(0.00239208 -0.000369277 0)
(0.0024069 -0.000348582 0)
(0.00242088 -0.000327917 0)
(0.00243404 -0.000307279 0)
(0.00244636 -0.000286668 0)
(0.00245784 -0.000266082 0)
(0.00246848 -0.00024552 0)
(0.00247828 -0.000224981 0)
(0.00248724 -0.000204463 0)
(0.00249535 -0.000183964 0)
(0.00250262 -0.000163484 0)
(0.00250904 -0.00014302 0)
(0.00251462 -0.000122572 0)
(0.00251935 -0.000102137 0)
(0.00252324 -8.1716e-05 0)
(0.00252629 -6.13075e-05 0)
(0.00252853 -4.09104e-05 0)
(0.00253 -2.05132e-05 0)
(0.00253606 0 0)
(0.00254083 0 0)
(0.00254527 0 0)
(0.00254939 0 0)
(0.00255322 0 0)
(0.00255678 0 0)
(0.00256008 0 0)
(0.00256316 0 0)
(0.00256602 0 0)
(0.00256869 0 0)
(0.00257119 0 0)
(0.00257352 0 0)
(0.00257572 0 0)
(0.00257778 0 0)
(0.00257973 0 0)
(0.00258157 0 0)
(0.00258332 0 0)
(0.00258499 0 0)
(0.00258658 0 0)
(0.00258811 0 0)
(0.00258959 0 0)
(0.00259102 0 0)
(0.00259241 0 0)
(0.00259377 0 0)
(0.0025951 0 0)
(0.00259641 0 0)
(0.0025977 0 0)
(0.00259899 0 0)
(0.00260026 0 0)
(0.00260154 0 0)
(0.00260282 0 0)
(0.0026041 0 0)
(0.00260539 0 0)
(0.00260669 0 0)
(0.00260801 0 0)
(0.00260934 0 0)
(0.00261069 0 0)
(0.00261206 0 0)
(0.00261345 0 0)
(0.00261417 -4.64706e-06 0)
(0.00261179 -9.31328e-06 0)
(0.00260776 -1.40577e-05 0)
(0.00260212 -1.89264e-05 0)
(0.00259488 -2.39631e-05 0)
(0.00258604 -2.92104e-05 0)
(0.00257562 -3.47103e-05 0)
(0.00256364 -4.05042e-05 0)
(0.00255011 -4.66325e-05 0)
(0.00253506 -5.3135e-05 0)
(0.00251851 -6.00506e-05 0)
(0.00250048 -6.74173e-05 0)
(0.002481 -7.5272e-05 0)
(0.00246011 -8.36506e-05 0)
(0.00243782 -9.25876e-05 0)
(0.00241417 -0.000102117 0)
(0.0023892 -0.00011227 0)
(0.00236294 -0.000123077 0)
(0.00233544 -0.000134569 0)
(0.00230672 -0.000146772 0)
(0.00227683 -0.000159712 0)
(0.00224581 -0.000173413 0)
(0.00221371 -0.000187899 0)
(0.00218057 -0.000203188 0)
(0.00214643 -0.000219299 0)
(0.00211134 -0.000236249 0)
(0.00207535 -0.000254051 0)
(0.00203851 -0.000272717 0)
(0.00200086 -0.000292255 0)
(0.00196246 -0.000312673 0)
(0.00192335 -0.000333974 0)
(0.00188359 -0.000356157 0)
(0.00184323 -0.000379222 0)
(0.00180231 -0.00040316 0)
(0.0017609 -0.000427961 0)
(0.00171903 -0.000453609 0)
(0.00167678 -0.000480078 0)
(0.00163419 -0.000507335 0)
(0.00159134 -0.000535324 0)
(0.0026187 0 0)
(0.00262269 0 0)
(0.00262686 0 0)
(0.00263125 0 0)
(0.00263588 0 0)
(0.00264076 0 0)
(0.0026459 0 0)
(0.0026513 0 0)
(0.00265697 0 0)
(0.00266292 0 0)
(0.00266914 0 0)
(0.00267564 0 0)
(0.00268241 0 0)
(0.00268946 0 0)
(0.00269678 0 0)
(0.00270437 0 0)
(0.00271224 0 0)
(0.00272036 0 0)
(0.00272876 0 0)
(0.00273741 0 0)
(0.00274632 0 0)
(0.00275549 0 0)
(0.0027649 0 0)
(0.00277457 0 0)
(0.00278447 0 0)
(0.00279462 0 0)
(0.00280501 0 0)
(0.00281562 0 0)
(0.00282647 0 0)
(0.00283754 0 0)
(0.00284884 0 0)
(0.00286035 0 0)
(0.00287208 0 0)
(0.00288402 0 0)
(0.00289616 0 0)
(0.00290851 0 0)
(0.00292105 0 0)
(0.0029338 0 0)
(0.00294673 0 0)
(0.00295985 0 0)
(0.00297316 0 0)
(0.00298664 0 0)
(0.0030003 0 0)
(0.00301414 0 0)
(0.00302814 0 0)
(0.0030423 0 0)
(0.00305662 0 0)
(0.0030711 0 0)
(0.00308573 0 0)
(0.00310051 0 0)
(0.00311542 0 0)
(0.00313047 0 0)
(0.00314566 0 0)
(0.00316097 0 0)
(0.00317641 0 0)
(0.00319196 0 0)
(0.00320762 0 0)
(0.0032234 0 0)
(0.00323927 0 0)
(0.00325524 0 0)
(0.00327129 0 0)
(0.00328743 0 0)
(0.00330365 0 0)
(0.00331993 0 0)
(0.00333628 0 0)
(0.00335268 0 0)
(0.00336913 0 0)
(0.00338563 0 0)
(0.00340215 0 0)
(0.00341869 0 0)
(0.00343525 0 0)
(0.00345181 0 0)
(0.00346837 0 0)
(0.00348491 0 0)
(0.00350142 0 0)
(0.00351789 0 0)
(0.00353431 0 0)
(0.00355067 0 0)
(0.00356696 0 0)
(0.00358299 -1.1391e-06 0)
(0.00358267 -2.3009e-06 0)