/*--------------------------------*- C++ -*----------------------------------*\
| =========                 |                                                 |
| \\      /  F ield         | OpenFOAM: The Open Source CFD Toolbox           |
|  \\    /   O peration     | Version:  v2012                                 |
|   \\  /    A nd           | Website:  www.openfoam.com                      |
|    \\/     M anipulation  |                                                 |
\*---------------------------------------------------------------------------*/
FoamFile
{
    version     2.0;
    format      ascii;
    class       volSymmTensorField;
    location    "7";
    object      sigma;
}
// * * * * * * * * * * * * * * * * * * * * * * * * * * * * * * * * * * * * * //

dimensions      [1 -1 -2 0 0 0 0];


internalField   nonuniform List<symmTensor> 
32000
(
(2.8131e+08 -3.24821e+06 3.81358e-08 2.0999e+06 -2.7623e-07 1.18285e+08)
(2.7699e+08 -5.26536e+06 7.99905e-08 -2.07907e+06 -3.38037e-07 1.13875e+08)
(2.86016e+08 -2.69424e+06 3.83925e-08 7.04762e+06 -3.19476e-07 1.20851e+08)
(2.79921e+08 -5.29419e+06 7.93971e-08 1.09422e+06 -3.14657e-07 1.14887e+08)
(2.90253e+08 -2.1413e+06 4.12303e-08 1.15877e+07 -4.1114e-07 1.22732e+08)
(2.82626e+08 -5.24175e+06 9.10775e-08 4.07517e+06 -4.16388e-07 1.15536e+08)
(2.94031e+08 -1.66672e+06 5.06827e-08 1.57315e+07 -3.96595e-07 1.24015e+08)
(2.85309e+08 -5.21672e+06 1.27825e-07 7.08853e+06 -4.35083e-07 1.15991e+08)
(2.97425e+08 -1.26749e+06 7.74877e-08 1.9556e+07 -5.33379e-07 1.2479e+08)
(2.87981e+08 -5.23589e+06 1.62116e-07 1.0155e+07 -5.0728e-07 1.16264e+08)
(3.0051e+08 -931788 8.5561e-08 2.31374e+07 -5.75104e-07 1.25154e+08)
(2.90614e+08 -5.29704e+06 1.55992e-07 1.32531e+07 -6.13815e-07 1.16324e+08)
(3.03332e+08 -633817 6.10322e-08 2.65315e+07 -6.26384e-07 1.25134e+08)
(2.93176e+08 -5.39128e+06 1.77248e-07 1.63608e+07 -7.43413e-07 1.16147e+08)
(3.05919e+08 -354718 1.08428e-07 2.97752e+07 -7.40153e-07 1.24752e+08)
(2.95637e+08 -5.511e+06 3.66809e-07 1.94542e+07 -8.06673e-07 1.15708e+08)
(3.08282e+08 -78241.5 2.5827e-07 3.28896e+07 -9.52004e-07 1.24019e+08)
(2.97964e+08 -5.64474e+06 5.62509e-07 2.25026e+07 -9.3414e-07 1.15018e+08)
(3.10412e+08 215754 2.95229e-07 3.58764e+07 -1.14257e-06 1.22928e+08)
(3.00133e+08 -5.787e+06 3.35174e-07 2.5499e+07 -6.20244e-07 1.14023e+08)
(3.12311e+08 527984 3.93726e-08 3.87336e+07 -7.47602e-07 1.21536e+08)
(3.02123e+08 -5.92981e+06 2.60316e-07 2.84377e+07 -2.29359e-07 1.12688e+08)
(3.13936e+08 885830 2.13945e-07 4.14395e+07 -5.38734e-07 1.19756e+08)
(3.03914e+08 -6.06514e+06 2.6483e-07 3.1313e+07 -1.37337e-07 1.10999e+08)
(3.15237e+08 1.31252e+06 5.0704e-08 4.39557e+07 -2.69954e-07 1.17559e+08)
(3.05469e+08 -6.18278e+06 -2.14061e-08 3.40778e+07 -6.13953e-09 1.0899e+08)
(3.16148e+08 1.8473e+06 -8.01057e-08 4.62178e+07 -2.34429e-07 1.14909e+08)
(3.06711e+08 -6.31066e+06 -8.8001e-08 3.67056e+07 -2.20002e-08 1.06498e+08)
(3.16597e+08 2.53544e+06 -6.32442e-09 4.81545e+07 -8.99474e-08 1.11779e+08)
(3.05647e+08 -6.42143e+06 -5.83801e-09 3.96427e+07 -9.34082e-08 1.03587e+08)
(3.10253e+08 3.24815e+06 1.4595e-09 4.97583e+07 -1.63464e-07 1.08003e+08)
(2.9436e+08 -5.06969e+06 3.86768e-08 4.29526e+07 -9.34082e-08 1.01194e+08)
(2.97888e+08 3.27045e+06 3.50281e-08 5.06409e+07 -9.34082e-08 1.04559e+08)
(2.8409e+08 -3.99299e+06 4.37851e-08 4.43614e+07 -9.34082e-08 9.85353e+07)
(2.87129e+08 3.21953e+06 7.29751e-09 5.09821e+07 -7.00561e-08 1.01433e+08)
(2.74978e+08 -3.22543e+06 2.18925e-08 4.52895e+07 -1.40112e-07 9.60803e+07)
(2.77589e+08 3.14435e+06 1.24058e-08 5.09662e+07 -1.1676e-07 9.85667e+07)
(2.66766e+08 -2.64595e+06 2.3352e-08 4.58229e+07 -1.86816e-07 9.37767e+07)
(2.69016e+08 3.06424e+06 9.48677e-09 5.06993e+07 -1.40112e-07 9.59145e+07)
(2.59281e+08 -2.19091e+06 2.11628e-08 4.60426e+07 -1.40112e-07 9.15971e+07)
(2.61228e+08 2.98687e+06 1.1676e-08 5.02476e+07 -4.67041e-08 9.34427e+07)
(2.52401e+08 -1.82315e+06 1.82438e-08 4.60138e+07 -9.34082e-08 8.95243e+07)
(2.54094e+08 2.91503e+06 7.29751e-09 4.96553e+07 -1.63464e-07 9.11247e+07)
(2.46032e+08 -1.51929e+06 8.02727e-09 4.57873e+07 -1.63464e-07 8.75457e+07)
(2.47511e+08 2.84945e+06 -3.64876e-10 4.89534e+07 -9.34082e-08 8.89393e+07)
(2.40103e+08 -1.2638e+06 7.66239e-09 4.54021e+07 -1.1676e-07 8.56515e+07)
(2.414e+08 2.78996e+06 7.29751e-09 4.81644e+07 -1.40112e-07 8.68694e+07)
(2.34556e+08 -1.04596e+06 6.20289e-09 4.48886e+07 -1.1676e-07 8.38335e+07)
(2.35698e+08 2.73608e+06 -1.82438e-09 4.73053e+07 -1.1676e-07 8.4901e+07)
(2.29345e+08 -858079 -2.18925e-09 4.42704e+07 -1.1676e-07 8.20847e+07)
(2.30353e+08 2.68726e+06 -7.29751e-10 4.63893e+07 0 8.30226e+07)
(2.24431e+08 -694520 -7.29751e-10 4.35662e+07 -7.00561e-08 8.03991e+07)
(2.25322e+08 2.64294e+06 -3.64876e-10 4.54266e+07 -2.3352e-08 8.12245e+07)
(2.1978e+08 -551024 7.29751e-10 4.2791e+07 -7.00561e-08 7.87714e+07)
(2.20569e+08 2.60264e+06 1.4595e-09 4.44255e+07 -9.34082e-08 7.94984e+07)
(2.15366e+08 -424308 -7.29751e-10 4.19567e+07 -4.67041e-08 7.71968e+07)
(2.16065e+08 2.56595e+06 -1.09463e-09 4.33927e+07 -7.00561e-08 7.78373e+07)
(2.11163e+08 -311795 -2.55413e-09 4.10734e+07 -4.67041e-08 7.5671e+07)
(2.11783e+08 2.53253e+06 -2.18925e-09 4.23338e+07 -7.00561e-08 7.62351e+07)
(2.07152e+08 -211412 -2.18925e-09 4.0149e+07 -4.67041e-08 7.41904e+07)
(2.07702e+08 2.50212e+06 -1.09463e-09 4.12533e+07 -9.34082e-08 7.46864e+07)
(2.03314e+08 -121458 -1.4595e-09 3.91905e+07 0 7.27513e+07)
(2.038e+08 2.47453e+06 0 4.01551e+07 -2.3352e-08 7.31865e+07)
(1.99632e+08 -40496.5 -2.18925e-09 3.82035e+07 -2.3352e-08 7.13507e+07)
(2.00061e+08 2.44966e+06 -2.18925e-09 3.90421e+07 -7.00561e-08 7.1731e+07)
(1.96093e+08 32727.4 -4.01363e-09 3.71931e+07 -4.67041e-08 6.99857e+07)
(1.9647e+08 2.42751e+06 -2.18925e-09 3.79168e+07 -4.67041e-08 7.0316e+07)
(1.92683e+08 99351.3 -8.75702e-09 3.61636e+07 2.3352e-08 6.86539e+07)
(1.93012e+08 2.40818e+06 -4.37851e-09 3.67811e+07 0 6.89379e+07)
(1.8939e+08 160451 -7.29751e-09 3.51189e+07 -7.00561e-08 6.73527e+07)
(1.89675e+08 2.39195e+06 -2.55413e-09 3.56362e+07 -4.67041e-08 6.75932e+07)
(1.86205e+08 217064 -4.74338e-09 3.40625e+07 2.3352e-08 6.60802e+07)
(1.86445e+08 2.37931e+06 -2.18925e-09 3.44825e+07 7.00561e-08 6.62784e+07)
(1.83116e+08 270147 -2.91901e-09 3.29979e+07 -4.67041e-08 6.4834e+07)
(1.83313e+08 2.37108e+06 -1.4595e-09 3.332e+07 4.67041e-08 6.49897e+07)
(1.80112e+08 320301 -2.18925e-09 3.19284e+07 0 6.36121e+07)
(1.80263e+08 2.36852e+06 -7.29751e-10 3.21474e+07 -9.34082e-08 6.37232e+07)
(1.77179e+08 366792 0 3.08572e+07 -2.3352e-08 6.24109e+07)
(1.77281e+08 2.37359e+06 3.64876e-10 3.09635e+07 -2.3352e-08 6.24734e+07)
(1.74293e+08 404295 1.82438e-09 2.97862e+07 -4.67041e-08 6.12239e+07)
(2.83949e+08 -7.52654e+06 1.21126e-07 5.16858e+06 -2.6479e-07 1.20267e+08)
(2.76154e+08 -1.01509e+07 1.52732e-07 -2.34398e+06 -3.22029e-07 1.13052e+08)
(2.86679e+08 -7.62147e+06 1.5248e-07 8.15919e+06 -3.4965e-07 1.21062e+08)
(2.79558e+08 -1.03638e+07 2.13048e-07 1.35483e+06 -4.01157e-07 1.14401e+08)
(2.89868e+08 -7.45376e+06 1.8507e-07 1.16333e+07 -3.79978e-07 1.22091e+08)
(2.82643e+08 -1.04675e+07 2.66593e-07 4.75653e+06 -4.65287e-07 1.15338e+08)
(2.93128e+08 -7.18228e+06 2.47719e-07 1.5226e+07 -5.12649e-07 1.22999e+08)
(2.85546e+08 -1.05272e+07 3.80952e-07 8.01642e+06 -4.79113e-07 1.15968e+08)
(2.96303e+08 -6.87055e+06 3.26627e-07 1.87954e+07 -5.65617e-07 1.23646e+08)
(2.88325e+08 -1.05745e+07 4.10256e-07 1.12086e+07 -5.55585e-07 1.16326e+08)
(2.99318e+08 -6.53848e+06 2.80526e-07 2.22752e+07 -5.7617e-07 1.23972e+08)
(2.91001e+08 -1.06213e+07 2.71353e-07 1.43653e+07 -5.93046e-07 1.16422e+08)
(3.02137e+08 -6.19438e+06 2.52918e-07 2.56328e+07 -6.01227e-07 1.23973e+08)
(2.93569e+08 -1.06728e+07 2.09183e-07 1.74927e+07 -3.89628e-07 1.16238e+08)
(3.04734e+08 -5.82839e+06 4.03194e-07 2.8853e+07 -4.53331e-07 1.23614e+08)
(2.96017e+08 -1.07266e+07 4.48434e-09 2.05921e+07 -3.75576e-07 1.15763e+08)
(3.07103e+08 -5.43938e+06 2.79114e-07 3.19418e+07 -5.77236e-07 1.22887e+08)
(2.98323e+08 -1.07798e+07 -3.62451e-08 2.36474e+07 -1.93116e-07 1.14991e+08)
(3.09228e+08 -5.01981e+06 2.84335e-07 3.48937e+07 -6.85871e-08 1.21771e+08)
(3.00456e+08 -1.08234e+07 8.71158e-08 2.66371e+07 3.07694e-07 1.13899e+08)
(3.11082e+08 -4.54526e+06 3.55167e-07 3.76863e+07 1.70984e-07 1.20272e+08)
(3.02383e+08 -1.08546e+07 1.62983e-07 2.9547e+07 3.97785e-07 1.12429e+08)
(3.12645e+08 -3.99951e+06 1.20947e-07 4.03072e+07 2.78925e-07 1.18382e+08)
(3.04073e+08 -1.08722e+07 -7.7718e-08 3.23669e+07 2.14711e-08 1.10549e+08)
(3.13945e+08 -3.40717e+06 -6.23549e-09 4.28189e+07 -1.02599e-07 1.16076e+08)
(3.05497e+08 -1.08809e+07 1.37226e-08 3.50696e+07 -2.80265e-07 1.08269e+08)
(3.15047e+08 -2.83148e+06 -2.00694e-08 4.53292e+07 -1.49852e-07 1.13373e+08)
(3.06667e+08 -1.08563e+07 8.69305e-08 3.76631e+07 -2.91638e-07 1.05659e+08)
(3.1566e+08 -2.28832e+06 1.57221e-08 4.7464e+07 -2.28685e-07 1.10244e+08)
(3.03314e+08 -1.02771e+07 1.02165e-08 4.15568e+07 -2.3352e-07 1.03461e+08)
(3.06941e+08 -322396 2.77306e-08 4.80741e+07 -1.63464e-07 1.06504e+08)
(2.92448e+08 -7.61919e+06 2.18925e-08 4.27357e+07 -1.63464e-07 1.00555e+08)
(2.95919e+08 1.03182e+06 4.08661e-08 4.91456e+07 -2.3352e-07 1.03519e+08)
(2.82717e+08 -5.6443e+06 2.91901e-09 4.36611e+07 -1.63464e-07 9.79133e+07)
(2.85937e+08 1.95918e+06 2.18925e-08 4.96918e+07 -1.86816e-07 1.00689e+08)
(2.73935e+08 -4.14284e+06 1.4595e-08 4.43085e+07 -1.86816e-07 9.5473e+07)
(2.76878e+08 2.61857e+06 2.3352e-08 4.98582e+07 -1.40112e-07 9.8021e+07)
(2.65944e+08 -2.97503e+06 5.83801e-09 4.46959e+07 -1.1676e-07 9.31919e+07)
(2.68615e+08 3.10127e+06 1.7514e-08 4.97427e+07 -1.63464e-07 9.55072e+07)
(2.58617e+08 -2.0475e+06 1.4595e-09 4.48537e+07 0 9.10412e+07)
(2.61032e+08 3.46334e+06 2.18925e-08 4.94137e+07 -1.1676e-07 9.31337e+07)
(2.51855e+08 -1.29694e+06 7.29751e-09 4.4814e+07 -4.67041e-08 8.90007e+07)
(2.54036e+08 3.7407e+06 8.75702e-09 4.89199e+07 -9.34082e-08 9.08867e+07)
(2.45578e+08 -679492 8.75702e-09 4.46068e+07 -4.67041e-08 8.70555e+07)
(2.47548e+08 3.95715e+06 1.4595e-08 4.82974e+07 -2.10168e-07 8.87535e+07)
(2.39722e+08 -164210 1.1676e-08 4.42582e+07 -2.3352e-08 8.51942e+07)
(2.41502e+08 4.12887e+06 6.56776e-09 4.75728e+07 -7.00561e-08 8.67225e+07)
(2.34236e+08 271221 -9.48677e-09 4.37904e+07 -2.3352e-08 8.34078e+07)
(2.35845e+08 4.26709e+06 -7.29751e-09 4.67665e+07 -7.00561e-08 8.47836e+07)
(2.29074e+08 643179 -8.02727e-09 4.32223e+07 0 8.16889e+07)
(2.30532e+08 4.37975e+06 -1.4595e-09 4.58942e+07 -1.40112e-07 8.29278e+07)
(2.24201e+08 963892 -2.18925e-09 4.25694e+07 -7.00561e-08 8.00312e+07)
(2.25523e+08 4.47261e+06 2.91901e-09 4.49684e+07 -1.1676e-07 8.11474e+07)
(2.19586e+08 1.24263e+06 3.64876e-09 4.18452e+07 -9.34082e-08 7.84294e+07)
(2.20786e+08 4.54987e+06 -1.4595e-09 4.39988e+07 -1.40112e-07 7.94355e+07)
(2.15202e+08 1.48654e+06 -3.64876e-09 4.10606e+07 -1.1676e-07 7.68788e+07)
(2.16293e+08 4.61469e+06 -4.37851e-09 4.29935e+07 2.3352e-08 7.77859e+07)
(2.11026e+08 1.7012e+06 -6.56776e-09 4.02249e+07 4.67041e-08 7.53754e+07)
(2.12018e+08 4.66946e+06 -5.83801e-09 4.1959e+07 -2.3352e-08 7.61932e+07)
(2.07038e+08 1.89099e+06 7.29751e-10 3.93462e+07 7.00561e-08 7.39153e+07)
(2.07941e+08 4.71603e+06 7.29751e-10 4.09007e+07 2.3352e-08 7.46526e+07)
(2.0322e+08 2.05945e+06 3.64876e-09 3.84312e+07 -2.3352e-08 7.24954e+07)
(2.04043e+08 4.75584e+06 -2.18925e-09 3.98232e+07 -4.67041e-08 7.31597e+07)
(1.99556e+08 2.2094e+06 -2.91901e-09 3.74858e+07 -7.00561e-08 7.11125e+07)
(2.00306e+08 4.79004e+06 -3.64876e-09 3.87304e+07 -9.34082e-08 7.17108e+07)
(1.96031e+08 2.34317e+06 -2.18925e-09 3.6515e+07 -9.34082e-08 6.97639e+07)
(1.96715e+08 4.81954e+06 -1.1676e-08 3.76257e+07 7.00561e-08 7.03023e+07)
(1.92634e+08 2.46259e+06 -7.29751e-09 3.55232e+07 4.67041e-08 6.84472e+07)
(1.93258e+08 4.84504e+06 -1.02165e-08 3.65122e+07 -7.00561e-08 6.8931e+07)
(1.89351e+08 2.56913e+06 -2.91901e-09 3.45145e+07 -7.00561e-08 6.71598e+07)
(1.89921e+08 4.86698e+06 -4.37851e-09 3.5393e+07 -9.34082e-08 6.75942e+07)
(1.86173e+08 2.66384e+06 -3.64876e-09 3.34922e+07 4.67041e-08 6.58996e+07)
(1.86694e+08 4.8854e+06 -3.64876e-09 3.42712e+07 4.67041e-08 6.62894e+07)
(1.83089e+08 2.7473e+06 -1.4595e-09 3.24596e+07 2.3352e-08 6.46646e+07)
(1.83566e+08 4.8994e+06 -7.29751e-10 3.31507e+07 -4.67041e-08 6.5015e+07)
(1.80091e+08 2.81949e+06 0 3.14193e+07 -7.00561e-08 6.34531e+07)
(1.80531e+08 4.9058e+06 1.4595e-09 3.2038e+07 -4.67041e-08 6.37708e+07)
(1.77174e+08 2.87981e+06 3.64876e-09 3.03739e+07 -4.67041e-08 6.22645e+07)
(1.77589e+08 4.89495e+06 2.18925e-09 3.09455e+07 2.3352e-08 6.25603e+07)
(1.74351e+08 2.92844e+06 1.4595e-09 2.93259e+07 -4.67041e-08 6.11032e+07)
(2.84518e+08 -1.24097e+07 2.01014e-07 6.4929e+06 -3.66945e-07 1.20736e+08)
(2.75757e+08 -1.53245e+07 2.88897e-07 -1.75135e+06 -4.37499e-07 1.12789e+08)
(2.86933e+08 -1.25806e+07 2.9871e-07 9.20178e+06 -4.3569e-07 1.21174e+08)
(2.79184e+08 -1.55204e+07 4.15104e-07 2.0016e+06 -3.53571e-07 1.14063e+08)
(2.89634e+08 -1.25744e+07 4.07374e-07 1.22115e+07 -4.17359e-07 1.2173e+08)
(2.82404e+08 -1.56643e+07 5.24201e-07 5.57758e+06 -5.00141e-07 1.15035e+08)
(2.92476e+08 -1.24432e+07 5.22667e-07 1.53945e+07 -5.3624e-07 1.22253e+08)
(2.85439e+08 -1.57662e+07 7.7543e-07 9.01122e+06 -7.06337e-07 1.157e+08)
(2.9534e+08 -1.22188e+07 6.62691e-07 1.8646e+07 -6.9392e-07 1.22623e+08)
(2.88318e+08 -1.5836e+07 5.05718e-07 1.23402e+07 -7.20823e-07 1.1607e+08)
(2.98138e+08 -1.1923e+07 2.5062e-07 2.18913e+07 -5.7216e-07 1.22755e+08)
(2.91052e+08 -1.588e+07 -2.0033e-07 1.55871e+07 -7.96674e-07 1.16147e+08)
(3.00806e+08 -1.15611e+07 -1.99946e-07 2.5077e+07 -5.52536e-07 1.22589e+08)
(2.93646e+08 -1.59017e+07 -7.37148e-07 1.87712e+07 -4.59494e-07 1.1592e+08)
(3.033e+08 -1.11448e+07 -6.83376e-07 2.81685e+07 -1.39289e-07 1.22109e+08)
(2.96086e+08 -1.59035e+07 -1.29095e-06 2.1893e+07 -2.40975e-07 1.15356e+08)
(3.05589e+08 -1.06666e+07 -8.97782e-07 3.11471e+07 -8.85182e-08 1.21262e+08)
(2.98354e+08 -1.58816e+07 -7.73942e-07 2.49486e+07 -7.01028e-08 1.14435e+08)
(3.07648e+08 -1.01253e+07 -9.72087e-08 3.40048e+07 1.399e-07 1.20023e+08)
(3.0042e+08 -1.58364e+07 2.23623e-07 2.79163e+07 5.09076e-08 1.13148e+08)
(3.09467e+08 -9.52264e+06 2.20695e-07 3.67488e+07 1.96377e-07 1.18376e+08)
(3.02253e+08 -1.5764e+07 5.12963e-07 3.07733e+07 -2.01323e-07 1.11491e+08)
(3.11058e+08 -8.88166e+06 2.71004e-07 3.94055e+07 -4.60417e-07 1.1636e+08)
(3.03821e+08 -1.56706e+07 5.67144e-07 3.35075e+07 -6.74231e-07 1.09418e+08)
(3.12439e+08 -8.2113e+06 2.23651e-07 4.20121e+07 -5.0093e-07 1.13991e+08)
(3.0511e+08 -1.55557e+07 2.60129e-07 3.61148e+07 -5.39128e-07 1.0694e+08)
(3.13548e+08 -7.48647e+06 1.35682e-07 4.45145e+07 -3.94712e-07 1.11233e+08)
(3.06095e+08 -1.54204e+07 7.21309e-08 3.85652e+07 -3.46228e-07 1.0409e+08)
(3.12579e+08 -6.11705e+06 1.31355e-08 4.50487e+07 -3.26929e-07 1.07288e+08)
(2.98804e+08 -1.27142e+07 -1.1676e-08 4.13575e+07 -2.56873e-07 1.02049e+08)
(3.0232e+08 -3.16254e+06 -1.89735e-08 4.64536e+07 -2.80225e-07 1.04632e+08)
(2.89137e+08 -9.50861e+06 -2.77306e-08 4.19605e+07 -2.80225e-07 9.93292e+07)
(2.92649e+08 -964186 -2.62711e-08 4.73797e+07 -2.80225e-07 1.02009e+08)
(2.80236e+08 -6.9714e+06 -3.21091e-08 4.24613e+07 -2.3352e-07 9.68091e+07)
(2.83638e+08 690647 -1.1676e-08 4.79118e+07 -2.56873e-07 9.94648e+07)
(2.72041e+08 -4.95283e+06 -2.18925e-08 4.28339e+07 -1.86816e-07 9.44626e+07)
(2.7527e+08 1.95587e+06 -1.31355e-08 4.81275e+07 -9.34082e-08 9.70194e+07)
(2.64476e+08 -3.32903e+06 -2.18925e-08 4.30601e+07 -9.34082e-08 9.22608e+07)
(2.67503e+08 2.93882e+06 -5.83801e-09 4.80904e+07 -1.40112e-07 9.46779e+07)
(2.57465e+08 -2.00658e+06 -2.91901e-09 4.31369e+07 -2.3352e-08 9.01805e+07)
(2.6028e+08 3.71428e+06 4.37851e-09 4.7851e+07 -1.40112e-07 9.24392e+07)
(2.50942e+08 -916398 0 4.3071e+07 -9.34082e-08 8.82038e+07)
(2.53547e+08 4.33488e+06 8.75702e-09 4.74487e+07 -1.1676e-07 9.02987e+07)
(2.44849e+08 -7364.19 1.02165e-08 4.28739e+07 -1.63464e-07 8.6317e+07)
(2.47254e+08 4.83815e+06 1.02165e-08 4.69146e+07 2.3352e-08 8.82506e+07)
(2.39139e+08 758650 7.29751e-09 4.25588e+07 -7.00561e-08 8.45094e+07)
(2.41355e+08 5.25123e+06 -2.91901e-09 4.62732e+07 -1.1676e-07 8.62884e+07)
(2.33769e+08 1.41035e+06 -1.02165e-08 4.21393e+07 -1.63464e-07 8.27724e+07)
(2.35809e+08 5.59399e+06 -1.4595e-08 4.5544e+07 0 8.44059e+07)
(2.28702e+08 1.96956e+06 -1.60545e-08 4.16281e+07 -4.67041e-08 8.1099e+07)
(2.3058e+08 5.8812e+06 -4.37851e-09 4.47429e+07 -9.34082e-08 8.25969e+07)
(2.23907e+08 2.45308e+06 -5.83801e-09 4.1037e+07 -4.67041e-08 7.94832e+07)
(2.25637e+08 6.12394e+06 0 4.38823e+07 -1.40112e-07 8.08557e+07)
(2.19357e+08 2.87394e+06 -1.31355e-08 4.03764e+07 2.3352e-08 7.79201e+07)
(2.20951e+08 6.33065e+06 -7.29751e-09 4.29728e+07 0 7.9177e+07)
(2.15029e+08 3.24237e+06 -7.29751e-09 3.96558e+07 4.67041e-08 7.64054e+07)
(2.16497e+08 6.50782e+06 -1.4595e-09 4.20228e+07 -7.00561e-08 7.7556e+07)
(2.109e+08 3.56646e+06 -4.37851e-09 3.88833e+07 7.00561e-08 7.4935e+07)
(2.12255e+08 6.66046e+06 5.83801e-09 4.10396e+07 -1.63464e-07 7.59883e+07)
(2.06953e+08 3.85268e+06 2.91901e-09 3.80662e+07 -4.67041e-08 7.35057e+07)
(2.08203e+08 6.79252e+06 4.37851e-09 4.0029e+07 0 7.44697e+07)
(2.03171e+08 4.10622e+06 -2.91901e-09 3.72108e+07 -4.67041e-08 7.21144e+07)
(2.04326e+08 6.90709e+06 2.91901e-09 3.89964e+07 -1.40112e-07 7.29966e+07)
(1.99538e+08 4.33126e+06 -5.83801e-09 3.63229e+07 -7.00561e-08 7.07583e+07)
(2.00606e+08 7.00661e+06 -2.91901e-09 3.7946e+07 -7.00561e-08 7.15657e+07)
(1.96042e+08 4.5312e+06 -1.31355e-08 3.54073e+07 4.67041e-08 6.94347e+07)
(1.97031e+08 7.09298e+06 -7.29751e-09 3.6882e+07 4.67041e-08 7.01738e+07)
(1.9267e+08 4.70877e+06 -1.02165e-08 3.44685e+07 -2.3352e-08 6.81415e+07)
(1.93587e+08 7.16761e+06 -2.91901e-09 3.58077e+07 7.00561e-08 6.88183e+07)
(1.89411e+08 4.86614e+06 -4.37851e-09 3.35103e+07 -4.67041e-08 6.68765e+07)
(1.90262e+08 7.23147e+06 -5.83801e-09 3.47265e+07 4.67041e-08 6.74967e+07)
(1.86256e+08 5.005e+06 -2.91901e-09 3.25362e+07 4.67041e-08 6.56377e+07)
(1.87048e+08 7.28503e+06 0 3.36415e+07 -2.3352e-08 6.62068e+07)
(1.83196e+08 5.12668e+06 1.4595e-09 3.15493e+07 -1.63464e-07 6.44235e+07)
(1.83934e+08 7.32834e+06 1.4595e-09 3.25551e+07 0 6.49468e+07)
(1.80223e+08 5.23233e+06 -2.91901e-09 3.0552e+07 4.67041e-08 6.32326e+07)
(1.80913e+08 7.36157e+06 1.4595e-09 3.1468e+07 -4.67041e-08 6.37144e+07)
(1.77333e+08 5.32333e+06 5.83801e-09 2.95468e+07 -9.34082e-08 6.20641e+07)
(1.77976e+08 7.38814e+06 1.4595e-09 3.03739e+07 -7.00561e-08 6.25051e+07)
(1.74517e+08 5.40191e+06 -1.4595e-09 2.85353e+07 -2.3352e-08 6.09158e+07)
(2.84008e+08 -1.75968e+07 2.99798e-07 7.15239e+06 -6.09238e-07 1.20412e+08)
(2.75398e+08 -2.06135e+07 3.63664e-07 -677563 -7.44707e-07 1.12647e+08)
(2.86553e+08 -1.7668e+07 4.80948e-07 9.9991e+06 -6.59911e-07 1.20869e+08)
(2.78769e+08 -2.07514e+07 6.13662e-07 3.03631e+06 -7.2959e-07 1.13774e+08)
(2.89125e+08 -1.76655e+07 6.59222e-07 1.28993e+07 -5.91266e-07 1.21225e+08)
(2.82009e+08 -2.08772e+07 1.00653e-06 6.66557e+06 -6.96724e-07 1.14654e+08)
(2.91735e+08 -1.75695e+07 1.09573e-06 1.58659e+07 -7.09599e-07 1.21469e+08)
(2.85096e+08 -2.09758e+07 1.74592e-06 1.01913e+07 -9.39253e-07 1.15249e+08)
(2.94344e+08 -1.73775e+07 1.27136e-06 1.88708e+07 -8.76238e-07 1.21549e+08)
(2.88024e+08 -2.10408e+07 2.0399e-06 1.36135e+07 -9.66642e-07 1.15537e+08)
(2.96907e+08 -1.70928e+07 8.15154e-07 2.188e+07 -1.06712e-06 1.21411e+08)
(2.90791e+08 -2.10716e+07 3.85065e-07 1.69419e+07 -8.25007e-07 1.15498e+08)
(2.99375e+08 -1.67231e+07 -1.16034e-06 2.48595e+07 -5.28649e-07 1.20995e+08)
(2.93384e+08 -2.1065e+07 -1.50323e-06 2.01735e+07 -2.76982e-07 1.15128e+08)
(3.01705e+08 -1.62653e+07 -1.64982e-06 2.77798e+07 -3.67488e-07 1.20254e+08)
(2.95794e+08 -2.10159e+07 -1.57239e-06 2.33104e+07 -4.82273e-07 1.14401e+08)
(3.03866e+08 -1.57251e+07 -1.07918e-06 3.06213e+07 -4.04464e-07 1.1918e+08)
(2.98e+08 -2.09215e+07 -5.65182e-07 2.63471e+07 -4.59348e-07 1.13291e+08)
(3.05846e+08 -1.51075e+07 6.34344e-08 3.33892e+07 -2.89101e-07 1.17753e+08)
(2.99983e+08 -2.07812e+07 5.36801e-07 2.92781e+07 -5.78182e-07 1.11786e+08)
(3.07635e+08 -1.44319e+07 9.81845e-07 3.61017e+07 -6.20658e-07 1.15955e+08)
(3.01732e+08 -2.05893e+07 8.52329e-07 3.21035e+07 -7.38216e-07 1.09887e+08)
(3.09212e+08 -1.36966e+07 6.56098e-07 3.87499e+07 -6.73577e-07 1.13783e+08)
(3.03232e+08 -2.0339e+07 3.40072e-07 3.47944e+07 -4.29586e-07 1.07662e+08)
(3.10539e+08 -1.28846e+07 2.59662e-07 4.12915e+07 -4.28245e-07 1.11259e+08)
(3.04446e+08 -2.00289e+07 9.22277e-08 3.73301e+07 -3.13015e-07 1.05068e+08)
(3.11622e+08 -1.2006e+07 1.98262e-08 4.37335e+07 -3.1722e-07 1.08443e+08)
(3.02568e+08 -1.86584e+07 -4.08661e-08 4.03494e+07 -2.80225e-07 1.02875e+08)
(3.05972e+08 -8.65942e+06 -1.1676e-08 4.3725e+07 -2.3352e-07 1.04909e+08)
(2.93509e+08 -1.43332e+07 -2.91901e-08 4.02934e+07 -2.56873e-07 1.00141e+08)
(2.97146e+08 -5.28268e+06 -3.21091e-08 4.4657e+07 -2.3352e-07 1.02541e+08)
(2.85007e+08 -1.0853e+07 -5.54611e-08 4.0467e+07 -1.1676e-07 9.76422e+07)
(2.88696e+08 -2.60337e+06 -4.67041e-08 4.53259e+07 -1.40112e-07 1.00207e+08)
(2.77014e+08 -8.00429e+06 -5.25421e-08 4.06831e+07 -1.86816e-07 9.53091e+07)
(2.80646e+08 -470696 -3.21091e-08 4.57409e+07 -2.3352e-07 9.79162e+07)
(2.69513e+08 -5.65482e+06 -3.79471e-08 4.08644e+07 -1.40112e-07 9.31133e+07)
(2.73022e+08 1.23963e+06 -2.62711e-08 4.59275e+07 -1.63464e-07 9.56849e+07)
(2.62479e+08 -3.70392e+06 -2.0433e-08 4.09715e+07 -2.3352e-07 9.10352e+07)
(2.65826e+08 2.62366e+06 -1.4595e-08 4.59151e+07 -1.1676e-07 9.35222e+07)
(2.55879e+08 -2.07228e+06 -1.7514e-08 4.09853e+07 -1.63464e-07 8.90594e+07)
(2.59043e+08 3.75424e+06 -1.4595e-08 4.5732e+07 0 9.14326e+07)
(2.49678e+08 -697425 -1.1676e-08 4.08987e+07 -9.34082e-08 8.7173e+07)
(2.52652e+08 4.68644e+06 -5.83801e-09 4.54037e+07 -2.3352e-08 8.94168e+07)
(2.43841e+08 469682 -2.91901e-09 4.07118e+07 -2.3352e-08 8.53658e+07)
(2.46626e+08 5.462e+06 -2.91901e-09 4.49524e+07 -1.63464e-07 8.74734e+07)
(2.38335e+08 1.46756e+06 -8.75702e-09 4.04292e+07 -7.00561e-08 8.36294e+07)
(2.40936e+08 6.11272e+06 -1.31355e-08 4.43971e+07 -1.40112e-07 8.55999e+07)
(2.33131e+08 2.32654e+06 -1.7514e-08 4.00574e+07 -7.00561e-08 8.19566e+07)
(2.35556e+08 6.66299e+06 -1.1676e-08 4.3754e+07 -1.63464e-07 8.37929e+07)
(2.28201e+08 3.07059e+06 -1.7514e-08 3.96043e+07 4.67041e-08 8.03415e+07)
(2.30459e+08 7.13165e+06 -7.29751e-09 4.30367e+07 -2.3352e-08 8.20487e+07)
(2.2352e+08 3.71878e+06 -1.02165e-08 3.90777e+07 4.67041e-08 7.87792e+07)
(2.25622e+08 7.53338e+06 -2.91901e-09 4.2257e+07 -7.00561e-08 8.03636e+07)
(2.19065e+08 4.28633e+06 -1.60545e-08 3.84854e+07 -9.34082e-08 7.72652e+07)
(2.21022e+08 7.87969e+06 -1.31355e-08 4.14246e+07 -9.34082e-08 7.87338e+07)
(2.14818e+08 4.78549e+06 -7.29751e-09 3.78348e+07 -1.1676e-07 7.57957e+07)
(2.16639e+08 8.17966e+06 -7.29751e-09 4.05478e+07 -4.67041e-08 7.71559e+07)
(2.10758e+08 5.22615e+06 0 3.71328e+07 -4.67041e-08 7.43674e+07)
(2.12454e+08 8.4405e+06 -4.37851e-09 3.9634e+07 4.67041e-08 7.56264e+07)
(2.06872e+08 5.61635e+06 -1.02165e-08 3.63857e+07 2.3352e-08 7.29772e+07)
(2.08451e+08 8.668e+06 -1.1676e-08 3.86892e+07 -4.67041e-08 7.41422e+07)
(2.03142e+08 5.96267e+06 -1.1676e-08 3.55992e+07 -7.00561e-08 7.16224e+07)
(2.04615e+08 8.86678e+06 -8.75702e-09 3.77189e+07 -7.00561e-08 7.27001e+07)
(1.99557e+08 6.27049e+06 -8.75702e-09 3.47785e+07 -4.67041e-08 7.03006e+07)
(2.0093e+08 9.04055e+06 -1.60545e-08 3.67276e+07 7.00561e-08 7.12974e+07)
(1.96103e+08 6.54424e+06 -4.37851e-09 3.39282e+07 -2.3352e-08 6.90094e+07)
(1.97386e+08 9.19229e+06 -7.29751e-09 3.57196e+07 -9.34082e-08 6.99316e+07)
(1.9277e+08 6.78757e+06 -8.75702e-09 3.30527e+07 9.34082e-08 6.77468e+07)
(1.93969e+08 9.32439e+06 -1.4595e-09 3.46983e+07 -9.34082e-08 6.86002e+07)
(1.89548e+08 7.00351e+06 -2.91901e-09 3.21556e+07 -1.1676e-07 6.6511e+07)
(1.90669e+08 9.43874e+06 -4.37851e-09 3.36669e+07 -9.34082e-08 6.73009e+07)
(1.86427e+08 7.19457e+06 -2.91901e-09 3.12404e+07 -4.67041e-08 6.53001e+07)
(1.87477e+08 9.53693e+06 4.37851e-09 3.26279e+07 -1.40112e-07 6.60316e+07)
(1.83399e+08 7.36295e+06 0 3.03101e+07 -9.34082e-08 6.41127e+07)
(1.84384e+08 9.62045e+06 0 3.15831e+07 4.67041e-08 6.47902e+07)
(1.80457e+08 7.51064e+06 -4.37851e-09 2.93672e+07 0 6.29472e+07)
(1.81382e+08 9.69103e+06 0 3.05332e+07 0 6.35744e+07)
(1.77592e+08 7.63949e+06 4.37851e-09 2.84143e+07 -1.1676e-07 6.1802e+07)
(1.78461e+08 9.75014e+06 0 2.94806e+07 -4.67041e-08 6.23826e+07)
(1.74799e+08 7.75113e+06 1.4595e-09 2.74536e+07 -2.3352e-08 6.06757e+07)
(2.82875e+08 -2.2898e+07 2.84004e-07 7.63045e+06 -9.70165e-07 1.19632e+08)
(2.74923e+08 -2.5943e+07 2.68457e-07 733031 -1.16518e-06 1.12438e+08)
(2.85585e+08 -2.28465e+07 5.0722e-07 1.06296e+07 -1.08347e-06 1.2013e+08)
(2.7825e+08 -2.60251e+07 4.48702e-07 4.41964e+06 -1.06321e-06 1.13412e+08)
(2.88172e+08 -2.27681e+07 8.64644e-07 1.3545e+07 -8.41683e-07 1.20383e+08)
(2.81473e+08 -2.61078e+07 1.25422e-06 8.05945e+06 -8.34807e-07 1.1414e+08)
(2.90686e+08 -2.26298e+07 2.06854e-06 1.64242e+07 -9.60155e-07 1.2042e+08)
(2.84558e+08 -2.61724e+07 1.69107e-06 1.162e+07 -8.17529e-07 1.14581e+08)
(2.93141e+08 -2.2413e+07 2.12121e-06 1.92853e+07 -8.92905e-07 1.20238e+08)
(2.87482e+08 -2.62078e+07 7.73339e-07 1.50851e+07 -6.94365e-07 1.14701e+08)
(2.95523e+08 -2.21063e+07 2.60584e-07 2.21225e+07 -7.1275e-07 1.19806e+08)
(2.90227e+08 -2.62056e+07 -1.48398e-06 1.84438e+07 -2.66522e-07 1.14471e+08)
(2.97813e+08 -2.17067e+07 -1.70222e-06 2.49316e+07 -1.67774e-07 1.19098e+08)
(2.92775e+08 -2.61569e+07 -2.58651e-06 2.16887e+07 7.23677e-08 1.13868e+08)
(2.99989e+08 -2.12167e+07 -2.28194e-06 2.77057e+07 -1.49075e-07 1.18078e+08)
(2.95113e+08 -2.60511e+07 -1.44085e-06 2.48146e+07 -3.2514e-07 1.12878e+08)
(3.0203e+08 -2.06375e+07 -2.45462e-07 3.04422e+07 -7.13498e-07 1.16725e+08)
(2.97224e+08 -2.58822e+07 1.83507e-07 2.78103e+07 -1.01074e-06 1.11511e+08)
(3.03911e+08 -1.9966e+07 2.65159e-07 3.31305e+07 -7.66918e-07 1.15026e+08)
(2.991e+08 -2.56393e+07 5.15687e-07 3.06737e+07 -8.92135e-07 1.09775e+08)
(3.05591e+08 -1.91921e+07 6.20762e-07 3.57284e+07 -6.20496e-07 1.13001e+08)
(3.00735e+08 -2.53109e+07 3.56588e-07 3.34077e+07 -5.33168e-07 1.07666e+08)
(3.07043e+08 -1.8306e+07 2.49242e-07 3.82157e+07 -4.12144e-07 1.1064e+08)
(3.0214e+08 -2.4874e+07 1.42169e-07 3.60293e+07 -4.37443e-07 1.05197e+08)
(3.08228e+08 -1.73037e+07 4.97121e-08 4.05679e+07 -3.53508e-07 1.07919e+08)
(3.02943e+08 -2.41851e+07 -7.00561e-08 3.87397e+07 -2.80225e-07 1.02505e+08)
(3.06282e+08 -1.49309e+07 -6.12991e-08 4.10818e+07 -2.80225e-07 1.04209e+08)
(2.9549e+08 -1.9549e+07 -6.42181e-08 3.86108e+07 -2.3352e-07 1.0023e+08)
(2.99128e+08 -1.05639e+07 -5.83801e-08 4.18232e+07 -1.40112e-07 1.02285e+08)
(2.87892e+08 -1.54312e+07 -6.71371e-08 3.84702e+07 -2.10168e-07 9.79087e+07)
(2.9171e+08 -6.98795e+06 -6.12991e-08 4.24343e+07 -1.63464e-07 1.00243e+08)
(2.80485e+08 -1.19025e+07 -5.25421e-08 3.84593e+07 -1.63464e-07 9.56834e+07)
(2.84357e+08 -4.03469e+06 -4.67041e-08 4.28981e+07 -1.40112e-07 9.81766e+07)
(2.73361e+08 -8.89551e+06 -3.50281e-08 3.85081e+07 -1.40112e-07 9.35609e+07)
(2.77199e+08 -1.58743e+06 -3.79471e-08 4.32023e+07 -1.63464e-07 9.61204e+07)
(2.66557e+08 -6.33336e+06 -3.50281e-08 3.85611e+07 -1.63464e-07 9.15354e+07)
(2.703e+08 448164 -3.21091e-08 4.33473e+07 -4.67041e-08 9.40941e+07)
(2.60082e+08 -4.1457e+06 -3.21091e-08 3.85811e+07 -9.34082e-08 8.95991e+07)
(2.63691e+08 2.14937e+06 -3.21091e-08 4.33418e+07 -9.34082e-08 9.21098e+07)
(2.53934e+08 -2.27157e+06 -2.62711e-08 3.85449e+07 -1.1676e-07 8.77437e+07)
(2.57384e+08 3.57883e+06 -2.0433e-08 4.31982e+07 -7.00561e-08 9.01747e+07)
(2.481e+08 -659502 -1.7514e-08 3.84398e+07 -1.1676e-07 8.59618e+07)
(2.51379e+08 4.78687e+06 -1.1676e-08 4.29307e+07 -2.3352e-08 8.82928e+07)
(2.42562e+08 733329 -1.4595e-08 3.82597e+07 2.3352e-08 8.42466e+07)
(2.45665e+08 5.81374e+06 -1.1676e-08 4.25535e+07 -1.40112e-07 8.64656e+07)
(2.37304e+08 1.94224e+06 -8.75702e-09 3.80035e+07 -4.67041e-08 8.25921e+07)
(2.40231e+08 6.6916e+06 -1.4595e-08 4.20799e+07 -7.00561e-08 8.46932e+07)
(2.32304e+08 2.99626e+06 -5.83801e-09 3.76731e+07 -1.63464e-07 8.09932e+07)
(2.35059e+08 7.44614e+06 -5.83801e-09 4.15224e+07 -1.1676e-07 8.29745e+07)
(2.27545e+08 3.91921e+06 -2.62711e-08 3.72722e+07 2.3352e-08 7.94453e+07)
(2.30135e+08 8.098e+06 -1.1676e-08 4.08918e+07 4.67041e-08 8.13079e+07)
(2.23009e+08 4.73064e+06 0 3.68056e+07 -1.63464e-07 7.79444e+07)
(2.2544e+08 8.66373e+06 -1.4595e-08 4.01981e+07 -4.67041e-08 7.96914e+07)
(2.18678e+08 5.44665e+06 -1.1676e-08 3.62787e+07 -4.67041e-08 7.64869e+07)
(2.20959e+08 9.15674e+06 -1.4595e-08 3.94501e+07 2.3352e-08 7.81227e+07)
(2.14536e+08 6.08051e+06 -2.91901e-09 3.56968e+07 -9.34082e-08 7.50698e+07)
(2.16676e+08 9.58787e+06 -8.75702e-09 3.86553e+07 -4.67041e-08 7.65993e+07)
(2.10569e+08 6.64319e+06 2.91901e-09 3.50655e+07 -4.67041e-08 7.36902e+07)
(2.12576e+08 9.96597e+06 -8.75702e-09 3.78206e+07 -1.1676e-07 7.51189e+07)
(2.06762e+08 7.14381e+06 -5.83801e-09 3.43898e+07 0 7.23456e+07)
(2.08645e+08 1.02983e+07 -1.4595e-08 3.6952e+07 -2.3352e-08 7.36791e+07)
(2.03104e+08 7.58995e+06 5.83801e-09 3.36748e+07 -4.67041e-08 7.10335e+07)
(2.0487e+08 1.05906e+07 -5.83801e-09 3.60548e+07 -2.3352e-08 7.22776e+07)
(1.99582e+08 7.98795e+06 -5.83801e-09 3.2925e+07 -7.00561e-08 6.9752e+07)
(2.0124e+08 1.0848e+07 -2.91901e-09 3.51335e+07 2.3352e-08 7.09121e+07)
(1.96185e+08 8.34311e+06 -2.91901e-09 3.21447e+07 -4.67041e-08 6.84989e+07)
(1.97743e+08 1.10744e+07 0 3.41923e+07 4.67041e-08 6.95806e+07)
(1.92904e+08 8.65991e+06 -2.91901e-09 3.13378e+07 2.3352e-08 6.72726e+07)
(1.94369e+08 1.12732e+07 2.91901e-09 3.32347e+07 -7.00561e-08 6.8281e+07)
(1.8973e+08 8.94214e+06 0 3.05078e+07 -4.67041e-08 6.60712e+07)
(1.91107e+08 1.14471e+07 -8.75702e-09 3.22638e+07 -7.00561e-08 6.70113e+07)
(1.86653e+08 9.19303e+06 2.91901e-09 2.96581e+07 -7.00561e-08 6.48934e+07)
(1.8795e+08 1.15987e+07 -5.83801e-09 3.12823e+07 9.34082e-08 6.57696e+07)
(1.83667e+08 9.41538e+06 -1.1676e-08 2.87917e+07 4.67041e-08 6.37375e+07)