/*--------------------------------*- C++ -*----------------------------------*\
| =========                 |                                                 |
| \\      /  F ield         | OpenFOAM: The Open Source CFD Toolbox           |
|  \\    /   O peration     | Version:  v2012                                 |
|   \\  /    A nd           | Website:  www.openfoam.com                      |
|    \\/     M anipulation  |                                                 |
\*---------------------------------------------------------------------------*/
FoamFile
{
    version     2.0;
    format      ascii;
    class       volSymmTensorField;
    location    "9";
    object      epsilon;
}
// * * * * * * * * * * * * * * * * * * * * * * * * * * * * * * * * * * * * * //

dimensions      [0 0 0 0 0 0 0];


internalField   nonuniform List<symmTensor> 
4000
(
(0.00990922 -0.000342601 -1.70463e-18 -0.00748165 3.14477e-18 1.03126e-32)
(0.00954003 -0.000324059 6.27309e-20 -0.00702632 3.90438e-18 0)
(0.00917305 -0.000306535 -6.82039e-26 -0.00653804 -3.94618e-24 0)
(0.00881102 -0.00029019 2.79079e-18 -0.00609656 -3.39814e-18 0)
(0.0084499 -0.000272852 -4.11107e-18 -0.00562717 -3.12047e-18 0)
(0.00808516 -0.000256779 4.61002e-20 -0.00519042 1.44172e-18 0)
(0.00770696 -0.000238589 -2.34568e-18 -0.00471842 -1.5383e-20 0)
(0.00731482 -0.000218531 0 -0.00426493 0 0)
(0.00690015 -0.000197573 1.44055e-19 -0.00377681 2.09662e-18 0)
(0.00646463 -0.000171731 1.93141e-18 -0.00329978 9.74582e-19 0)
(0.00601602 -0.000143391 -1.80595e-19 -0.00280891 -1.5576e-18 0)
(0.00556021 -0.000113497 -1.9432e-19 -0.00234526 -1.29939e-18 0)
(0.00510931 -8.38786e-05 -1.01583e-19 -0.00189672 -5.24835e-19 0)
(0.00467181 -5.31519e-05 2.03164e-19 -0.00148973 8.23161e-19 0)
(0.00426429 -1.95227e-05 6.49795e-19 -0.0011248 3.65937e-19 0)
(0.00391152 1.98036e-05 -7.74215e-20 -0.000888152 -2.44363e-19 0)
(0.00364088 5.35324e-05 -5.14933e-19 -0.00078087 -2.67061e-19 0)
(0.0034215 7.49376e-05 -8.88143e-19 -0.000727816 -3.00346e-19 0)
(0.00324341 8.71471e-05 -3.92575e-19 -0.000687256 -4.77525e-20 0)
(0.00308966 9.54814e-05 -6.86785e-19 -0.00066873 1.55224e-19 0)
(0.0097824 -0.00101733 5.36282e-20 -0.00735598 2.08558e-18 4.68456e-33)
(0.00941775 -0.000962094 1.70418e-18 -0.00690601 1.84764e-18 0)
(0.00905331 -0.000911278 1.30717e-18 -0.00641958 -3.65654e-18 0)
(0.00868761 -0.000859849 2.94592e-18 -0.00597538 1.48522e-18 0)
(0.00831621 -0.000806652 -3.97808e-18 -0.00549535 2.14709e-19 0)
(0.00792513 -0.000753712 -5.04041e-25 -0.00503427 -4.97022e-24 0)
(0.00751715 -0.000692751 7.23048e-21 -0.00453487 5.42912e-20 0)
(0.00708607 -0.00062911 -2.52015e-18 -0.00404838 -2.30293e-18 0)
(0.00663565 -0.000555666 0 -0.00353257 0 0)
(0.00617734 -0.000476511 2.92375e-18 -0.00304445 1.04467e-18 0)
(0.00571755 -0.000388706 3.61598e-25 -0.00255717 9.07963e-25 0)
(0.0052705 -0.000299406 -5.77306e-19 -0.0021171 -1.14882e-18 0)
(0.0048487 -0.000210533 -2.93789e-19 -0.00171149 -4.59199e-19 0)
(0.00445945 -0.000125271 2.88241e-19 -0.00136439 3.60921e-19 0)
(0.0041213 -3.33468e-05 8.03781e-19 -0.00108468 4.33809e-19 0)
(0.00384502 6.87044e-05 -2.83455e-19 -0.000926199 8.41282e-20 0)
(0.00362142 0.000155173 -2.9188e-19 -0.000848816 7.28977e-20 0)
(0.00343017 0.000211518 -9.79221e-19 -0.000804255 -4.81606e-19 0)
(0.00326803 0.000245304 1.79948e-21 -0.000767082 3.33657e-21 0)
(0.00312372 0.000268918 -9.46439e-19 -0.000747444 -5.88878e-19 0)
(0.00954848 -0.00166143 1.77358e-18 -0.00712428 1.8288e-18 4.39756e-33)
(0.00917767 -0.00157191 1.73169e-18 -0.0066697 1.69175e-18 0)
(0.0088053 -0.00148163 -1.76224e-19 -0.00617525 -1.78729e-18 0)
(0.00841408 -0.00139195 -9.9864e-19 -0.00570727 3.31484e-18 0)
(0.00800267 -0.00129169 2.58488e-18 -0.00518851 -1.15772e-19 0)
(0.00755754 -0.00118828 6.68792e-19 -0.00467882 -2.64102e-18 0)
(0.00708797 -0.00107035 6.02385e-19 -0.00412572 2.2482e-18 0)
(0.00659916 -0.000945198 1.49636e-20 -0.00359561 4.1775e-20 0)
(0.00610676 -0.000809947 -3.03744e-18 -0.00305688 -2.72751e-18 0)
(0.00563221 -0.000668026 1.26067e-18 -0.00257666 8.32065e-19 0)
(0.00518566 -0.000525552 1.21541e-18 -0.00212924 7.48551e-19 0)
(0.00478609 -0.000385752 -2.44415e-19 -0.00176204 -6.80846e-19 0)
(0.00443699 -0.000255229 -1.71131e-18 -0.00145061 -8.27558e-19 0)
(0.00415066 -0.000129096 -1.44623e-19 -0.00122149 4.77074e-20 0)
(0.0039288 2.11771e-06 7.55554e-19 -0.00107095 4.96061e-19 0)
(0.0037563 0.000133251 3.12983e-19 -0.00100998 2.35607e-19 0)
(0.00359597 0.000238333 4.65085e-19 -0.000968151 2.27743e-19 0)
(0.00344491 0.000311454 -8.34525e-19 -0.000934311 -6.43696e-19 0)
(0.00330671 0.000359429 -2.83163e-21 -0.000900811 -3.48971e-21 0)
(0.00317767 0.000395016 -8.07349e-19 -0.000879351 -6.73333e-19 0)
(0.00921528 -0.00226378 -3.14159e-18 -0.00679391 2.44371e-18 4.36234e-33)
(0.00881375 -0.00212623 4.46804e-19 -0.00631071 3.63992e-18 0)
(0.00839477 -0.00198614 1.43976e-18 -0.00576943 -1.19183e-19 0)
(0.00793776 -0.00184123 -2.92742e-19 -0.0052416 -1.46388e-18 0)
(0.00744145 -0.00167175 2.95165e-18 -0.00464262 -2.828e-18 0)
(0.00691935 -0.00149779 8.2629e-19 -0.00406973 2.25285e-18 0)
(0.00637958 -0.00130144 5.01769e-19 -0.00346428 9.92514e-19 0)
(0.00584928 -0.00110469 2.75058e-18 -0.00291888 4.20525e-19 0)
(0.00535811 -0.000904034 2.75165e-19 -0.00241259 -3.89205e-19 0)
(0.00492261 -0.000712673 -1.22576e-18 -0.00200466 -9.89657e-19 0)
(0.00456077 -0.000533776 1.37507e-18 -0.00167248 5.66534e-19 0)
(0.00427307 -0.000371141 5.9033e-19 -0.00144092 3.12547e-19 0)
(0.00405711 -0.000222001 5.86703e-19 -0.00127605 2.78503e-19 0)
(0.00390304 -8.04467e-05 -1.61617e-18 -0.00118956 -8.6833e-19 0)
(0.00379115 5.81142e-05 -5.28509e-19 -0.0011443 -3.08285e-19 0)
(0.00368951 0.000185938 4.93997e-19 -0.00113145 2.94547e-19 0)
(0.00357582 0.000287465 1.06852e-18 -0.00110509 7.28221e-19 0)
(0.00345886 0.000364677 8.98187e-19 -0.00108018 5.61757e-19 0)
(0.00334348 0.000421649 -4.18955e-19 -0.00104817 -2.65689e-19 0)
(0.00323096 0.000466316 4.59023e-19 -0.0010258 3.56172e-19 0)
(0.00874825 -0.00279556 -1.58244e-18 -0.00633056 3.30354e-19 2.62243e-36)
(0.00828795 -0.00259367 8.31484e-19 -0.00579212 -3.64414e-18 0)
(0.00777023 -0.00236845 -3.93843e-19 -0.00515506 -1.57599e-18 0)
(0.00720033 -0.00213762 1.23021e-18 -0.00452573 -1.01109e-19 0)
(0.0065973 -0.00186614 -1.18298e-20 -0.00383692 -2.42532e-20 0)
(0.00599635 -0.00159865 -3.93651e-19 -0.0032117 7.80925e-19 0)
(0.0054274 -0.00132475 2.02804e-18 -0.00261162 -1.14167e-19 0)
(0.00493302 -0.00107207 8.09947e-20 -0.0021409 -2.62052e-19 0)
(0.004529 -0.000838573 7.02128e-19 -0.00176043 2.94237e-19 0)
(0.00423207 -0.000637283 0 -0.00152117 0 0)
(0.00402789 -0.000459748 7.01201e-19 -0.00136384 2.49708e-19 0)
(0.00389705 -0.000305056 -1.20413e-18 -0.00129491 -7.43703e-19 0)
(0.00381544 -0.000165363 1.74013e-18 -0.00125941 9.53015e-19 0)
(0.00375748 -3.62337e-05 1.63153e-18 -0.00125681 8.05053e-19 0)
(0.00370522 8.74272e-05 7.79142e-20 -0.00125459 1.37354e-19 0)
(0.00363656 0.000200364 -3.94753e-19 -0.00125393 -2.20946e-19 0)
(0.00355146 0.000295627 1.41861e-19 -0.00123103 1.17085e-19 0)
(0.00346021 0.000374119 4.42532e-19 -0.00121241 3.12385e-19 0)
(0.0033645 0.000437625 -1.78573e-19 -0.00118149 -1.08998e-19 0)
(0.00326845 0.000489566 8.43402e-19 -0.00115991 5.76508e-19 0)
(0.00808765 -0.00319987 3.00127e-18 -0.00566979 -6.45362e-19 -6.05131e-39)
(0.0075146 -0.00288585 -9.28591e-19 -0.00503608 1.67508e-18 0)
(0.00684613 -0.00253204 1.27073e-18 -0.00425322 -2.2946e-20 0)
(0.00615273 -0.00217671 -6.51968e-19 -0.00353328 -9.93775e-19 0)
(0.00549177 -0.00180234 -1.97283e-18 -0.00281286 -2.98211e-19 0)
(0.00488892 -0.00146019 -1.70332e-18 -0.00223641 -7.94128e-19 0)
(0.00441529 -0.0011555 -8.77285e-19 -0.00177234 -3.80034e-19 0)
(0.0040841 -0.000910017 1.00468e-18 -0.00150512 1.62445e-19 0)
(0.00388078 -0.000703402 -6.50213e-19 -0.00134362 -3.99993e-19 0)
(0.00377496 -0.000532637 -2.09503e-18 -0.00129995 -1.02785e-18 0)
(0.00372553 -0.000387301 2.39643e-19 -0.00128735 -4.59428e-19 0)
(0.00370271 -0.000259667 -1.25458e-18 -0.0013103 -5.97604e-19 0)
(0.00368511 -0.00014195 -1.20455e-18 -0.00132211 -3.90312e-19 0)
(0.0036637 -2.89974e-05 5.36501e-19 -0.00134349 3.83814e-19 0)
(0.00362852 8.12709e-05 4.55995e-19 -0.00134385 1.96043e-19 0)
(0.00357669 0.00018345 5.12041e-19 -0.00134441 3.72968e-19 0)
(0.00351134 0.000274903 3.60771e-19 -0.00132536 1.96719e-19 0)
(0.00344018 0.000354381 1.12736e-18 -0.00131205 7.57584e-19 0)
(0.00336226 0.000422577 -1.0173e-18 -0.00128472 -7.25799e-19 0)
(0.00328227 0.00048001 -6.60928e-20 -0.00126611 -3.96264e-20 0)
(0.00709246 -0.00334016 1.16973e-18 -0.00468072 2.06985e-18 7.58731e-33)
(0.0063778 -0.00286077 -1.87334e-18 -0.00394728 -1.03904e-18 0)
(0.00557872 -0.00235896 -1.63219e-18 -0.00305451 -1.74653e-18 0)
(0.00487727 -0.00191106 1.6954e-18 -0.00237028 1.53007e-18 0)
(0.00429304 -0.00150463 1.18184e-19 -0.00177844 3.78695e-20 0)
(0.00390776 -0.00119938 -1.79262e-19 -0.00145447 1.76118e-19 0)
(0.00368353 -0.000948973 -9.40071e-19 -0.00126444 -1.51299e-19 0)
(0.00359536 -0.000761481 -6.70595e-19 -0.00123964 -4.4863e-19 0)
(0.00357591 -0.000613934 2.15709e-18 -0.00125503 1.0358e-18 0)
(0.00358302 -0.000486829 -4.7083e-19 -0.00130332 -7.33871e-19 0)
(0.0035907 -0.000371602 1.41819e-20 -0.00132627 3.08468e-21 0)
(0.00359301 -0.000261612 -1.30767e-18 -0.00135899 -3.30788e-19 0)
(0.00358548 -0.000153113 -1.17333e-18 -0.00137121 -5.87418e-19 0)
(0.00356993 -4.71138e-05 5.22676e-19 -0.00139127 -5.63811e-20 0)
(0.00354063 5.60534e-05 -1.53907e-18 -0.00139168 -9.73319e-19 0)
(0.00350214 0.000153221 -9.55276e-19 -0.00139628 -5.74857e-19 0)
(0.00345301 0.000241943 -8.74465e-19 -0.00138386 -5.57694e-19 0)
(0.00339887 0.000321049 3.28134e-19 -0.00137696 1.63371e-19 0)
(0.00333769 0.000391405 1.07773e-18 -0.00135604 7.0582e-19 0)
(0.00327309 0.000451656 -7.12926e-19 -0.00134215 -5.25306e-19 0)
(0.00575192 -0.00308936 -4.93765e-19 -0.0033733 6.21671e-19 5.17326e-34)
(0.00497851 -0.00246914 3.04126e-18 -0.00263894 9.7511e-19 0)
(0.00423393 -0.00192912 -2.73393e-18 -0.00183204 -8.78746e-19 0)
(0.00376296 -0.00153171 8.67824e-19 -0.00142169 4.07139e-19 0)
(0.00348261 -0.00121597 -5.87516e-19 -0.00115491 7.27597e-19 0)
(0.0034042 -0.00101222 -1.34562e-18 -0.00115473 3.16829e-19 0)
(0.00340114 -0.000855845 -4.83686e-19 -0.00118237 -8.76693e-19 0)
(0.00342869 -0.000723971 -6.85996e-19 -0.00124605 -4.6998e-19 0)
(0.00345152 -0.000605454 -5.26951e-19 -0.00127217 -8.23131e-19 0)
(0.00346754 -0.0004944 1.40105e-18 -0.00131611 5.6877e-19 0)
(0.00347486 -0.000383365 6.08268e-19 -0.00133475 4.44123e-19 0)
(0.00347873 -0.000275151 7.87394e-25 -0.00136937 1.5992e-25 0)
(0.00347444 -0.000168605 -1.156e-18 -0.00138388 -5.61566e-19 0)
(0.00346433 -6.61912e-05 -2.67987e-20 -0.00140774 -2.8715e-19 0)
(0.00344487 3.2025e-05 4.83868e-19 -0.0014132 1.39279e-19 0)
(0.00341855 0.000123528 -9.42096e-19 -0.00142397 -5.48177e-19 0)
(0.00338349 0.000208572 -3.64398e-25 -0.0014184 -1.27689e-25 0)
(0.00334382 0.000284735 -1.42402e-18 -0.00141806 -1.18438e-18 0)
(0.00329747 0.000354731 1.30497e-19 -0.00140378 2.5146e-19 0)
(0.00324668 0.00041484 -9.93225e-19 -0.00139506 -6.98085e-19 0)
(0.00433271 -0.00254193 -1.92251e-18 -0.00203562 8.56346e-20 1.50393e-35)
(0.00370459 -0.00193984 1.12461e-18 -0.00149647 2.23434e-19 0)
(0.00331224 -0.00154847 -1.1769e-18 -0.00104752 -4.38665e-20 0)
(0.00320536 -0.00129114 -2.31059e-18 -0.00104747 -3.45931e-20 0)
(0.00319757 -0.00111759 1.77731e-18 -0.00105472 5.04499e-19 0)
(0.00324285 -0.000972294 2.24335e-18 -0.00114674 -3.88403e-19 0)
(0.00327072 -0.000849889 -4.40008e-19 -0.00116653 -9.25876e-19 0)
(0.00329899 -0.000731061 -6.70504e-19 -0.00122781 -4.7595e-19 0)
(0.00331506 -0.000611576 -2.08151e-18 -0.00124964 -9.93985e-19 0)
(0.00333528 -0.000496769 -1.49632e-18 -0.00130115 -1.40629e-19 0)
(0.00334738 -0.000386267 6.83728e-19 -0.0013251 7.51585e-20 0)
(0.00335859 -0.000280809 1.20357e-18 -0.00136607 9.0265e-19 0)
(0.00336085 -0.000179553 -6.67659e-25 -0.00138491 -1.05877e-25 0)
(0.00335906 -8.31566e-05 5.37552e-19 -0.00141337 9.8725e-20 0)
(0.0033482 8.45453e-06 6.02463e-20 -0.00142321 3.31735e-19 0)
(0.00333247 9.39254e-05 5.98764e-19 -0.00143904 7.43698e-19 0)
(0.00330879 0.000174015 9.04795e-19 -0.001439 5.19661e-19 0)
(0.00328121 0.000246003 9.72541e-19 -0.00144403 8.20737e-19 0)
(0.00324742 0.000313628 -9.37137e-19 -0.00143551 -8.06525e-19 0)
(0.00320866 0.000371762 3.12685e-19 -0.00143146 1.01676e-19 0)
(0.00328301 -0.00202709 -2.7246e-18 -0.00109644 2.20199e-20 1.06651e-33)
(0.00299416 -0.0016154 -1.21709e-18 -0.000910316 4.33782e-20 0)
(0.00297391 -0.00142625 0 -0.000877909 0 0)
(0.00301638 -0.00124409 -1.04916e-18 -0.00100403 3.67733e-20 0)
(0.0030511 -0.00111719 -2.53889e-18 -0.00101169 -9.55184e-19 0)
(0.00308726 -0.000974464 2.29061e-19 -0.00109626 -5.15276e-19 0)
(0.00311144 -0.0008474 1.59517e-18 -0.00111962 4.73437e-19 0)
(0.00314867 -0.00071918 1.37572e-18 -0.0011917 9.71029e-19 0)
(0.00317491 -0.000604999 1.97913e-18 -0.00122454 1.43613e-18 0)
(0.00320357 -0.000492293 -7.06322e-19 -0.00128194 -2.15717e-20 0)
(0.00322269 -0.000388573 -1.33368e-18 -0.00131235 -5.85662e-20 0)
(0.00324009 -0.000287306 -2.38493e-20 -0.00135644 -1.55819e-21 0)
(0.00324919 -0.000192606 5.65288e-19 -0.00138019 4.58625e-20 0)
(0.00325438 -0.000101777 5.53484e-19 -0.00141173 4.46004e-19 0)
(0.00325192 -1.64861e-05 6.04046e-19 -0.00142641 8.21649e-19 0)
(0.00324498 6.32048e-05 -4.43707e-19 -0.00144607 -6.30675e-20 0)
(0.0032313 0.000138148 -7.06287e-21 -0.00145116 -1.11566e-21 0)
(0.00321362 0.000205459 1.57725e-18 -0.00146037 6.12853e-19 0)
(0.00319073 0.000269779 8.21272e-19 -0.00145698 4.78542e-19 0)
(0.00316206 0.000324897 2.8985e-19 -0.00145677 6.81153e-19 0)
(0.00277156 -0.00179961 -1.70939e-18 -0.000722288 7.40787e-19 1.39709e-35)
(0.00274437 -0.0015657 -1.27053e-18 -0.000769592 1.35264e-19 0)
(0.00280133 -0.00141554 4.93791e-19 -0.000826641 1.12056e-18 0)
(0.00282967 -0.0012359 7.42034e-19 -0.000903023 5.13414e-19 0)
(0.00286867 -0.00110004 2.05373e-18 -0.00094829 -1.97795e-19 0)
(0.00291697 -0.000948551 2.07298e-20 -0.00103367 -1.77069e-21 0)
(0.00295841 -0.000828706 -3.38658e-19 -0.00108171 1.13237e-18 0)
(0.00300161 -0.000704048 -9.79866e-19 -0.00115467 6.00929e-19 0)
(0.00303727 -0.000595168 1.39248e-18 -0.00119912 4.45816e-19 0)
(0.00307156 -0.000487443 1.33109e-18 -0.0012591 4.5377e-19 0)
(0.00309855 -0.000388941 1.27198e-18 -0.0012968 4.55524e-19 0)
(0.00312226 -0.000294136 -1.18268e-18 -0.001344 -9.35301e-19 0)
(0.00313867 -0.000205431 -5.51672e-19 -0.0013727 -8.10449e-22 0)
(0.00315094 -0.000121709 -1.07231e-18 -0.00140745 -4.63229e-19 0)
(0.0031562 -4.25469e-05 -5.54942e-19 -0.00142618 -4.46388e-19 0)
(0.00315722 3.03931e-05 -1.14977e-18 -0.00144928 -1.29637e-18 0)
(0.00315213 9.99874e-05 -1.01601e-18 -0.00145829 -8.62924e-19 0)
(0.00314299 0.000161656 -3.56399e-19 -0.001471 -2.61146e-20 0)
(0.00312944 0.000221955 6.07793e-19 -0.00147158 8.05828e-19 0)
(0.00310942 0.000272975 6.19712e-19 -0.00147464 2.47062e-19 0)
(0.00250101 -0.00177793 2.11966e-18 -0.000575436 3.79575e-19 8.58028e-36)
(0.00253432 -0.00156647 -2.43418e-18 -0.000649462 4.04376e-19 0)
(0.00258419 -0.00138225 -1.20099e-18 -0.000728106 2.004e-19 0)
(0.00263597 -0.00120382 2.9917e-19 -0.00081978 -6.93794e-19 0)
(0.00269637 -0.00106505 7.4042e-19 -0.000893269 5.14374e-19 0)
(0.00275215 -0.000923073 5.29069e-19 -0.000981021 1.16111e-18 0)
(0.00280546 -0.000804675 6.73942e-19 -0.00104446 5.08643e-19 0)
(0.00285688 -0.000686874 1.2336e-19 -0.00112151 -6.07411e-19 0)
(0.00290132 -0.000583479 -1.31494e-18 -0.00117552 -9.85839e-19 0)
(0.00294318 -0.000482764 -1.32458e-18 -0.00123907 -4.09273e-19 0)
(0.0029772 -0.000391184 6.17291e-19 -0.0012828 -6.39048e-20 0)
(0.00300771 -0.000303424 1.18461e-18 -0.0013328 4.19645e-19 0)
(0.00303069 -0.000221819 1.16925e-18 -0.00136576 9.28021e-19 0)
(0.00304962 -0.000144994 5.02693e-19 -0.00140304 -3.35821e-20 0)
(0.00306177 -7.24833e-05 -7.7582e-20 -0.00142528 -4.76561e-19 0)
(0.00306972 -5.88779e-06 5.46372e-19 -0.00145098 4.40847e-19 0)
(0.00307207 5.79891e-05 -6.31518e-19 -0.00146324 4.79839e-19 0)
(0.00307008 0.000114293 6.366e-19 -0.00147859 8.63359e-19 0)
(0.00306449 0.000170098 3.31245e-19 -0.00148234 -9.15178e-21 0)
(0.00305169 0.000217056 -1.09998e-18 -0.00148796 -6.35902e-19 0)
(0.0022089 -0.00174944 2.5651e-18 -0.000412997 -1.87404e-19 1.11772e-33)
(0.00228297 -0.00152347 7.07062e-19 -0.000534006 -1.59836e-18 0)
(0.00237032 -0.00133614 -7.69633e-19 -0.000643923 -5.32098e-19 0)
(0.0024438 -0.00116799 -1.83816e-18 -0.000752003 -2.79345e-19 0)
(0.00252022 -0.00102738 -9.71754e-19 -0.000842806 2.20449e-19 0)
(0.00259018 -0.0008939 -1.97593e-20 -0.000939089 4.34821e-21 0)
(0.00265538 -0.000779818 -5.69548e-19 -0.00101463 -1.19974e-18 0)
(0.0027157 -0.000670407 2.14547e-18 -0.00109593 8.47725e-19 0)
(0.002769 -0.000573184 1.39404e-18 -0.00115767 3.50969e-19 0)
(0.00281763 -0.00048077 -6.4626e-19 -0.0012239 1.2165e-19 0)
(0.00285878 -0.000395861 -5.97493e-19 -0.00127256 1.0842e-19 0)
(0.00289532 -0.000316281 7.36221e-20 -0.00132465 1.14096e-18 0)
(0.00292463 -0.000241341 -1.97562e-20 -0.00136088 3.25388e-21 0)
(0.00294945 -0.000172335 3.79136e-19 -0.00140006 -6.03928e-19 0)
(0.00296778 -0.000106098 1.02291e-19 -0.00142476 5.16567e-19 0)
(0.00298172 -4.66357e-05 1.17355e-18 -0.00145234 1.38434e-18 0)
(0.00299054 1.16802e-05 1.31363e-19 -0.00146679 4.87131e-19 0)
(0.00299458 6.18584e-05 -1.00974e-18 -0.00148401 -8.4915e-19 0)
(0.00299591 0.00011299 6.26683e-19 -0.00148997 -8.57972e-20 0)
(0.00298911 0.000155192 7.66354e-19 -0.00149746 3.69002e-19 0)
(0.0019058 -0.00167242 3.62887e-18 -0.000269402 -2.40705e-18 -1.06609e-33)
(0.00203119 -0.00146072 1.29924e-18 -0.000427415 -3.91162e-19 0)
(0.00214363 -0.00128012 -1.43841e-18 -0.000560654 1.20434e-18 0)
(0.00224644 -0.00112183 2.36066e-20 -0.000688721 -7.05239e-21 0)
(0.00234018 -0.000987331 -2.46778e-18 -0.000795288 -7.60749e-19 0)
(0.00242639 -0.000864104 1.60903e-19 -0.000901144 -7.76445e-19 0)
(0.00250326 -0.000756675 -2.31076e-18 -0.000986531 -5.21929e-20 0)
(0.00257427 -0.000656853 -1.52551e-18 -0.00107315 4.25162e-19 0)
(0.00263593 -0.000567026 2.68214e-18 -0.00114094 6.2208e-19 0)
(0.00269238 -0.000483502 1.27532e-18 -0.00121034 9.80655e-19 0)
(0.00274019 -0.000406179 -1.22384e-18 -0.0012628 -3.23491e-19 0)
(0.00278302 -0.00033478 1.74177e-18 -0.00131696 8.09227e-19 0)
(0.00281824 -0.000267129 -8.28371e-19 -0.00135576 -2.23249e-18 0)
(0.00284866 -0.000205522 -1.68953e-18 -0.00139656 -1.36842e-18 0)
(0.00287269 -0.000145941 -2.37362e-18 -0.00142318 -5.83772e-19 0)
(0.00289196 -9.2948e-05 -3.81059e-25 -0.00145233 9.05437e-26 0)
(0.00290652 -4.04323e-05 -3.15614e-19 -0.00146838 -1.03112e-18 0)
(0.0029158 4.37147e-06 -9.9104e-19 -0.00148724 -8.44807e-19 0)
(0.002923 5.06693e-05 -1.57946e-18 -0.00149465 -6.75982e-19 0)
(0.00292136 8.87894e-05 1.662e-18 -0.00150388 6.23232e-19 0)
(0.00160959 -0.001566 -1.7872e-18 -0.000139783 4.39053e-19 6.26463e-34)
(0.00177578 -0.0013731 1.24634e-18 -0.000329942 2.04968e-18 0)
(0.00191949 -0.00120916 8.10633e-19 -0.00048729 5.26451e-19 0)
(0.00204801 -0.00106593 1.98169e-18 -0.000633691 -7.32736e-19 0)
(0.00216071 -0.000942695 4.14867e-20 -0.000754723 -1.52478e-20 0)
(0.0022631 -0.000831752 -1.18438e-19 -0.00087047 8.2481e-19 0)
(0.0023524 -0.000734036 7.07621e-19 -0.000964702 5.09894e-19 0)
(0.00243392 -0.000644809 -2.78404e-18 -0.00105644 -5.05461e-19 0)
(0.00250427 -0.00056376 -1.33002e-18 -0.00112954 -2.60913e-19 0)
(0.00256817 -0.000489749 1.21504e-18 -0.00120161 -4.1847e-19 0)
(0.00262249 -0.000420346 -1.79132e-18 -0.00125717 -7.67939e-19 0)
(0.00267122 -0.000357649 5.11041e-19 -0.00131278 -1.72136e-19 0)
(0.00271177 -0.000297048 3.59103e-18 -0.00135336 1.03601e-19 0)
(0.00274731 -0.000243412 1.14762e-18 -0.00139507 8.96788e-19 0)
(0.00277617 -0.000190002 -1.60921e-18 -0.00142276 5.40473e-19 0)
(0.00280016 -0.000144185 -9.10633e-19 -0.0014526 -3.0661e-19 0)
(0.00281949 -9.70351e-05 -1.71686e-19 -0.00146941 -5.41548e-19 0)
(0.00283314 -5.84008e-05 5.00469e-19 -0.00148889 4.15433e-19 0)
(0.0028454 -1.68734e-05 4.94866e-21 -0.00149702 -1.75844e-21 0)
(0.0028478 1.65627e-05 -9.17172e-19 -0.00150698 -7.0659e-20 0)
(0.00132571 -0.00142619 5.63889e-19 -3.30379e-05 1.61244e-19 -6.22854e-36)
(0.00152723 -0.0012626 -1.98661e-18 -0.000247157 -5.04938e-21 0)
(0.00169729 -0.00112183 1.03665e-18 -0.000423249 -4.63953e-19 0)
(0.00184941 -0.000998836 2.2056e-19 -0.000584393 -9.65855e-19 0)
(0.00197961 -0.000891523 4.21689e-19 -0.000717081 2.36605e-18 0)
(0.00209724 -0.000795991 -7.44136e-19 -0.000841004 -5.05343e-19 0)
(0.00219845 -0.00071052 3.53839e-20 -0.000942249 -8.2811e-19 0)
(0.00229006 -0.000633769 0 -0.00103822 0 0)
(0.00236894 -0.000562922 -1.30974e-18 -0.00111544 -9.83144e-19 0)
(0.00243982 -0.000499416 -4.10129e-20 -0.00118948 -7.35441e-19 0)
(0.00250081 -0.000438846 1.32536e-18 -0.00124749 1.64106e-18 0)
(0.00255468 -0.000385168 -3.29804e-18 -0.0013039 -7.52987e-19 0)
(0.00260096 -0.000332319 1.0094e-18 -0.00134602 2.70598e-19 0)
(0.00264067 -0.000286411 2.52632e-18 -0.00138811 9.75862e-19 0)
(0.00267476 -0.000239808 1.09038e-18 -0.00141679 8.69121e-19 0)
(0.00270257 -0.00020046 3.62008e-19 -0.00144716 -1.56361e-19 0)
(0.00272671 -0.000159219 5.20899e-19 -0.0014645 4.1252e-19 0)
(0.00274426 -0.000125766 -2.99504e-19 -0.00148504 1.34195e-19 0)
(0.00276099 -8.91997e-05 7.05776e-19 -0.00149332 9.1772e-19 0)
(0.00276729 -5.94111e-05 2.2093e-19 -0.00150492 5.0891e-19 0)
(0.00106519 -0.00126442 1.17051e-18 4.75727e-05 -7.4784e-19 1.26161e-34)
(0.00129458 -0.00113443 2.70072e-20 -0.000184223 -1.42573e-20 0)
(0.0014871 -0.00102201 2.41104e-20 -0.000375066 -1.26781e-20 0)
(0.00165882 -0.000922533 2.11886e-18 -0.000547503 2.57013e-18 0)
(0.00180443 -0.00083516 -7.60832e-19 -0.000689638 -5.04427e-19 0)
(0.00193552 -0.000756988 2.39994e-18 -0.000820052 -1.23926e-18 0)
(0.00204738 -0.000686531 -6.9358e-19 -0.000927096 3.56982e-19 0)
(0.00214833 -0.000623267 -6.65615e-19 -0.00102642 3.40281e-19 0)
(0.00223476 -0.000564268 -1.30346e-18 -0.00110704 -9.68325e-19 0)
(0.00231249 -0.000511735 -1.68778e-18 -0.00118258 8.57782e-19 0)
(0.00237902 -0.000460714 1.10653e-18 -0.00124247 2.13075e-19 0)
(0.00243831 -0.000416348 2.39922e-19 -0.00129938 -1.63732e-18 0)
(0.00248887 -0.00037115 -1.58053e-18 -0.00134244 -6.70575e-19 0)
(0.0025332 -0.000333476 1.67028e-19 -0.00138454 6.37526e-19 0)
(0.00257089 -0.000292826 1.8418e-19 -0.00141362 6.14148e-19 0)
(0.00260273 -0.000260968 -5.42009e-19 -0.00144371 -4.07984e-19 0)
(0.00263028 -0.000224301 3.02711e-19 -0.00146114 -1.65324e-19 0)
(0.00265113 -0.000197266 2.22844e-19 -0.00148116 5.48758e-19 0)
(0.0026714 -0.000164966 -1.24604e-18 -0.00148919 -6.13473e-19 0)
(0.00268015 -0.00013978 -4.78653e-19 -0.00150038 -3.74224e-19 0)
(0.000829451 -0.0010808 -5.12875e-19 9.94216e-05 -1.72721e-19 3.10474e-36)
(0.00107896 -0.000988788 -1.09843e-18 -0.000141817 6.73314e-19 0)
(0.00128851 -0.000907767 -1.42282e-18 -0.00034104 2.84533e-18 0)
(0.0014751 -0.000835095 2.45988e-18 -0.0005196 -5.21647e-19 0)
(0.00163316 -0.000769932 2.18549e-19 -0.000667122 -2.02743e-18 0)
(0.00177466 -0.000711446 -7.49732e-20 -0.000800687 9.70154e-19 0)
(0.00189566 -0.000657394 1.35141e-18 -0.000910888 9.38871e-20 0)
(0.00200369 -0.000609193 1.26722e-18 -0.00101114 -7.56047e-19 0)
(0.00209718 -0.000562828 6.64038e-19 -0.00109353 4.62862e-19 0)
(0.00217951 -0.000522244 -1.70189e-18 -0.00116844 1.77919e-19 0)
(0.00225204 -0.000481318 -1.33667e-18 -0.00122944 -1.65354e-18 0)
(0.00231413 -0.000446655 5.97814e-19 -0.00128471 4.38412e-19 0)
(0.00237039 -0.000409827 -1.41295e-18 -0.00132877 7.93492e-20 0)
(0.00241623 -0.000380051 -9.49476e-19 -0.00136867 -1.8104e-19 0)
(0.00245958 -0.000346667 1.36395e-19 -0.00139878 -8.36913e-19 0)
(0.0024924 -0.00032112 6.44791e-19 -0.00142689 -4.0888e-19 0)
(0.00252475 -0.000290981 -5.72065e-19 -0.0014445 3.75194e-19 0)
(0.00254773 -0.000269215 2.5933e-19 -0.0014644 -1.7269e-19 0)
(0.00257214 -0.000242385 -2.3786e-19 -0.001472 -5.43095e-19 0)
(0.00258397 -0.000221038 -9.12848e-19 -0.00148524 -4.64808e-20 0)
(0.000626007 -0.000887204 -4.55749e-19 0.000120906 -2.00782e-19 -6.20263e-36)
(0.000888385 -0.000834193 -2.25784e-18 -0.000123494 2.64869e-18 0)
(0.00110885 -0.000786888 -1.70474e-18 -0.000326387 1.53142e-19 0)
(0.00130567 -0.000742335 4.01087e-19 -0.000506961 -3.32788e-18 0)
(0.00147216 -0.000701942 7.17499e-19 -0.000656974 4.97471e-19 0)
(0.00162143 -0.000664121 -1.3829e-18 -0.000791239 -9.87288e-19 0)
(0.00174879 -0.000628879 1.40725e-20 -0.000902942 -9.65034e-21 0)
(0.00186273 -0.000596173 -1.26257e-18 -0.00100288 -5.75521e-20 0)
(0.00196097 -0.000564603 2.46249e-18 -0.00108612 1.00991e-18 0)
(0.00204807 -0.000535834 5.1509e-19 -0.00116013 -3.52882e-19 0)
(0.00212414 -0.000506873 -4.5402e-19 -0.00122165 3.12902e-19 0)
(0.00219048 -0.000481402 2.19463e-18 -0.00127581 9.84553e-19 0)
(0.00224934 -0.000454279 -1.72759e-19 -0.0013203 -6.96696e-19 0)
(0.00229942 -0.000432152 -9.02915e-19 -0.00135912 -1.60475e-19 0)
(0.0023448 -0.00040609 -2.27261e-18 -0.00138997 -7.16957e-19 0)
(0.00238182 -0.000388562 -3.0823e-19 -0.00141664 2.25224e-19 0)
(0.00241688 -0.000362202 1.29589e-18 -0.00143655 5.44006e-19 0)
(0.00244229 -0.000347186 -1.49863e-18 -0.00145433 -1.0896e-18 0)
(0.0024706 -0.000323492 9.67659e-19 -0.00146426 7.12283e-19 0)
(0.00248138 -0.000309195 1.75679e-18 -0.00147407 5.86943e-19 0)
(0.000453751 -0.000682439 -1.57069e-18 0.000110747 1.97575e-18 -7.40202e-34)
(0.000722024 -0.000669424 -2.55271e-19 -0.000129608 1.31673e-18 0)
(0.000948074 -0.000656069 -1.28143e-18 -0.000329812 -2.24359e-18 0)
(0.00115027 -0.000640548 7.17321e-19 -0.000507359 4.96223e-19 0)
(0.00132167 -0.000624953 7.14786e-19 -0.000655305 -5.62981e-19 0)
(0.00147527 -0.000608533 1.47074e-20 -0.000786719 -1.15323e-20 0)
(0.00160682 -0.000591733 -6.81798e-19 -0.000896596 -4.54689e-19 0)
(0.00172396 -0.000575088 1.01089e-19 -0.000993523 8.83886e-19 0)
(0.00182597 -0.000557477 -5.26334e-19 -0.00107519 4.12272e-19 0)
(0.00191509 -0.000540964 1.08065e-18 -0.00114582 6.72485e-20 0)
(0.00199507 -0.000522745 -8.73735e-19 -0.00120632 6.91653e-19 0)
(0.00206203 -0.000506637 1.55007e-18 -0.00125642 5.12681e-19 0)
(0.00212593 -0.000488076 1.85424e-18 -0.00130116 2.15392e-19 0)
(0.0021745 -0.000472569 8.77301e-19 -0.00133462 1.19968e-19 0)
(0.00222811 -0.000454335 8.43904e-19 -0.00136858 1.19623e-19 0)
(0.00226001 -0.000439343 -1.33465e-18 -0.00138748 3.31066e-19 0)
(0.00230265 -0.000421914 2.44414e-19 -0.00140979 -2.16827e-19 0)
(0.00232494 -0.000407922 -2.61723e-19 -0.00142087 -5.56139e-19 0)
(0.00236677 -0.000395064 3.59215e-19 -0.00143906 1.2497e-18 0)
(0.00237425 -0.000375865 1.06018e-18 -0.00144251 4.08001e-19 0)
(0.000316365 -0.000479034 3.85901e-19 7.0814e-05 2.32041e-19 -6.01339e-36)
(0.000583454 -0.000504527 1.87835e-19 -0.000159468 -1.33502e-18 0)
(0.000808529 -0.000525234 -8.32724e-20 -0.000352229 1.21265e-18 0)
(0.00101112 -0.0005383 1.37734e-18 -0.000522414 9.85219e-19 0)
(0.00118265 -0.000548605 1.37997e-18 -0.000665039 -1.46904e-19 0)
(0.00133722 -0.000553454 6.09466e-19 -0.000790589 -5.40668e-19 0)
(0.00146928 -0.000556889 -1.20179e-18 -0.000896537 3.40482e-20 0)
(0.00158757 -0.000556026 -1.06982e-18 -0.000988487 9.44595e-19 0)
(0.00169011 -0.00055495 -1.32062e-19 -0.00106726 -8.58905e-19 0)
(0.00178054 -0.000549831 -7.73296e-19 -0.00113357 -1.21707e-18 0)
(0.00186067 -0.000546102 -2.07905e-19 -0.00119195 1.11322e-18 0)
(0.00192939 -0.000537304 -1.51864e-18 -0.00123851 -4.48814e-19 0)
(0.00199228 -0.0005328 1.7902e-18 -0.00128136 1.5183e-19 0)
(0.00204408 -0.00051969 0 -0.00131297 0 0)
(0.00209343 -0.000516966 -1.03199e-20 -0.0013437 9.64228e-21 0)
(0.00213572 -0.000505003 8.76751e-20 -0.00136139 2.13633e-19 0)
(0.00217095 -0.00049999 -1.27197e-18 -0.00138579 -1.24108e-18 0)
(0.00220174 -0.00047624 7.37829e-20 -0.00139806 7.5309e-19 0)
(0.0022311 -0.000482134 -6.72207e-19 -0.0014145 -1.14568e-19 0)
(0.00226542 -0.000462372 -1.26042e-19 -0.00141862 -6.88622e-19 0)
(0.000212368 -0.000275261 0 -1.86489e-07 0 0)
(0.000472928 -0.000337958 -1.2029e-19 -0.000214999 1.34284e-18 0)
(0.000692601 -0.00039095 -1.52504e-18 -0.00039499 1.56602e-18 0)
(0.000891659 -0.000431701 -1.3654e-18 -0.00055391 -9.30719e-19 0)
(0.00106008 -0.000466371 2.51382e-18 -0.000687105 -1.40708e-18 0)
(0.00121309 -0.000491876 1.15874e-18 -0.000804316 -1.1641e-18 0)
(0.00134342 -0.000513971 -1.13208e-20 -0.000903096 1.13177e-20 0)
(0.00146163 -0.000528548 -1.08436e-18 -0.000988901 4.01585e-20 0)
(0.00156319 -0.000542023 4.42217e-19 -0.00106206 -4.41882e-19 0)
(0.00165493 -0.00054849 -3.87554e-19 -0.00112408 3.8963e-19 0)
(0.00173423 -0.000556233 4.02877e-19 -0.0011778 1.53129e-18 0)
(0.00180596 -0.000556395 -2.24284e-18 -0.00122191 -1.50346e-18 0)
(0.00186717 -0.000560618 5.44264e-19 -0.00126021 3.67473e-19 0)
(0.00192443 -0.000555517 8.38264e-19 -0.00129146 -8.85419e-19 0)
(0.00196915 -0.000557819 -1.29136e-18 -0.00131609 -4.15072e-19 0)
(0.00201767 -0.000547859 -4.12698e-21 -0.00133971 4.58572e-21 0)
(0.00205189 -0.000551177 9.22747e-19 -0.00135579 -1.62605e-19 0)
(0.00209114 -0.000533861 7.76537e-19 -0.00137212 8.43131e-19 0)
(0.00210826 -0.000537812 -6.32357e-19 -0.00137501 -1.02946e-19 0)
(0.00215401 -0.000532689 7.44169e-20 -0.0013812 2.05075e-19 0)
(0.000141302 -8.16304e-05 -1.13826e-18 -9.75451e-05 7.22403e-19 4.73594e-34)
(0.000388918 -0.000178347 -1.26941e-18 -0.000291316 -2.31967e-18 0)
(0.000597101 -0.000261655 1.38257e-18 -0.000453953 -1.61074e-18 0)
(0.000787894 -0.000328124 -1.87641e-18 -0.000597439 -2.55879e-19 0)
(0.000948466 -0.000386117 -1.1976e-18 -0.000717751 1.89939e-19 0)
(0.00109634 -0.000430977 1.66138e-18 -0.000823372 -7.40463e-19 0)
(0.00122106 -0.000471201 6.2818e-19 -0.000912318 4.05067e-19 0)
(0.00133638 -0.000500195 -8.86853e-19 -0.00098928 1.00088e-18 0)
(0.00143367 -0.000527948 -5.91525e-19 -0.00105473 -3.8978e-19 0)
(0.00152432 -0.000544926 1.34929e-18 -0.00110994 1.56523e-18 0)
(0.00160012 -0.000564058 6.7545e-19 -0.00115752 -7.67965e-19 0)