/*--------------------------------*- C++ -*----------------------------------*\
| =========                 |                                                 |
| \\      /  F ield         | OpenFOAM: The Open Source CFD Toolbox           |
|  \\    /   O peration     | Version:  v2012                                 |
|   \\  /    A nd           | Website:  www.openfoam.com                      |
|    \\/     M anipulation  |                                                 |
\*---------------------------------------------------------------------------*/
FoamFile
{
    version     2.0;
    format      ascii;
    class       volScalarField;
    location    "9";
    object      sigmaEq;
}
// * * * * * * * * * * * * * * * * * * * * * * * * * * * * * * * * * * * * * //

dimensions      [1 -1 -2 0 0 0 0];


internalField   nonuniform List<scalar> 
4000
(
2.43e+08
2.43e+08
2.43e+08
2.43e+08
2.43e+08
2.43e+08
2.43e+08
2.43e+08
2.43e+08
2.43e+08
2.43e+08
2.43e+08
2.43e+08
2.43e+08
2.43e+08
2.38168e+08
2.20161e+08
2.06754e+08
1.95958e+08
1.87201e+08
2.43e+08
2.43e+08
2.43e+08
2.43e+08
2.43e+08
2.43e+08
2.43e+08
2.43e+08
2.43e+08
2.43e+08
2.43e+08
2.43e+08
2.43e+08
2.43e+08
2.43e+08
2.36049e+08
2.21891e+08
2.10661e+08
2.01155e+08
1.93157e+08
2.43e+08
2.43e+08
2.43e+08
2.43e+08
2.43e+08
2.43e+08
2.43e+08
2.43e+08
2.43e+08
2.43e+08
2.43e+08
2.43e+08
2.43e+08
2.43e+08
2.43e+08
2.34567e+08
2.25384e+08
2.17061e+08
2.09323e+08
2.0243e+08
2.43e+08
2.43e+08
2.43e+08
2.43e+08
2.43e+08
2.43e+08
2.43e+08
2.43e+08
2.43e+08
2.43e+08
2.43e+08
2.43e+08
2.43e+08
2.43e+08
2.40991e+08
2.35763e+08
2.29761e+08
2.23741e+08
2.17497e+08
2.11705e+08
2.43e+08
2.43e+08
2.43e+08
2.43e+08
2.43e+08
2.43e+08
2.43e+08
2.43e+08
2.43e+08
2.43e+08
2.43e+08
2.43e+08
2.43e+08
2.43e+08
2.40652e+08
2.3764e+08
2.33238e+08
2.28818e+08
2.2374e+08
2.18978e+08
2.43e+08
2.43e+08
2.43e+08
2.43e+08
2.43e+08
2.43e+08
2.43e+08
2.43e+08
2.43e+08
2.43e+08
2.43e+08
2.43e+08
2.42371e+08
2.41723e+08
2.40012e+08
2.37837e+08
2.34503e+08
2.31267e+08
2.27244e+08
2.23467e+08
2.43e+08
2.43e+08
2.43e+08
2.43e+08
2.43e+08
2.43e+08
2.43e+08
2.43e+08
2.40692e+08
2.4031e+08
2.39774e+08
2.39871e+08
2.39132e+08
2.38712e+08
2.37227e+08
2.35788e+08
2.33424e+08
2.3121e+08
2.28225e+08
2.2538e+08
2.43e+08
2.43e+08
2.43e+08
2.43e+08
2.43e+08
2.40366e+08
2.35847e+08
2.35655e+08
2.34846e+08
2.35036e+08
2.34309e+08
2.34509e+08
2.3397e+08
2.33926e+08
2.33071e+08
2.324e+08
2.30908e+08
2.29571e+08
2.27498e+08
2.25465e+08
2.43e+08
2.43e+08
2.43e+08
2.39178e+08
2.31328e+08
2.30885e+08
2.28708e+08
2.28734e+08
2.27279e+08
2.27796e+08
2.27458e+08
2.28265e+08
2.28224e+08
2.28762e+08
2.28458e+08
2.28438e+08
2.2763e+08
2.26994e+08
2.25661e+08
2.24302e+08
2.43e+08
2.42893e+08
2.30523e+08
2.27039e+08
2.23081e+08
2.21792e+08
2.19204e+08
2.19638e+08
2.19157e+08
2.2031e+08
2.2064e+08
2.21887e+08
2.22391e+08
2.23376e+08
2.23634e+08
2.24128e+08
2.23922e+08
2.23832e+08
2.23125e+08
2.223e+08
2.40331e+08
2.25834e+08
2.21082e+08
2.15116e+08
2.1185e+08
2.10563e+08
2.09811e+08
2.10592e+08
2.11085e+08
2.12675e+08
2.13728e+08
2.15457e+08
2.1653e+08
2.17984e+08
2.18739e+08
2.19696e+08
2.19975e+08
2.20335e+08
2.20124e+08
2.19729e+08
2.25309e+08
2.14386e+08
2.07301e+08
2.02398e+08
2.00608e+08
1.99978e+08
2.00277e+08
2.01754e+08
2.03132e+08
2.05348e+08
2.07063e+08
2.09291e+08
2.10876e+08
2.12747e+08
2.13936e+08
2.15268e+08
2.15949e+08
2.16661e+08
2.16846e+08
2.16787e+08
2.09542e+08
1.99152e+08
1.9351e+08
1.90131e+08
1.89248e+08
1.89768e+08
1.91128e+08
1.93402e+08
1.95624e+08
1.98421e+08
2.00754e+08
2.03428e+08
2.05466e+08
2.07695e+08
2.09238e+08
2.10874e+08
2.11867e+08
2.12848e+08
2.1334e+08
2.13529e+08
1.91203e+08
1.83217e+08
1.7881e+08
1.77313e+08
1.77729e+08
1.79607e+08
1.82019e+08
1.85245e+08
1.88245e+08
1.91695e+08
1.94582e+08
1.97704e+08
2.00142e+08
2.02695e+08
2.04545e+08
2.0644e+08
2.07687e+08
2.08895e+08
2.09617e+08
2.10021e+08
1.71907e+08
1.66003e+08
1.63708e+08
1.64229e+08
1.66271e+08
1.69634e+08
1.73233e+08
1.77436e+08
1.81241e+08
1.85319e+08
1.8873e+08
1.92264e+08
1.95039e+08
1.97876e+08
1.99954e+08
2.02055e+08
2.03478e+08
2.04842e+08
2.05731e+08
2.06262e+08
1.51388e+08
1.47989e+08
1.47992e+08
1.50727e+08
1.5454e+08
1.59464e+08
1.64271e+08
1.69464e+08
1.74059e+08
1.78733e+08
1.82663e+08
1.8655e+08
1.89681e+08
1.92733e+08
1.95067e+08
1.97328e+08
1.98933e+08
2.00458e+08
2.01474e+08
2.02177e+08
1.30597e+08
1.29781e+08
1.32372e+08
1.37417e+08
1.43159e+08
1.4966e+08
1.5572e+08
1.61891e+08
1.6726e+08
1.7253e+08
1.76924e+08
1.81183e+08
1.84583e+08
1.87884e+08
1.90369e+08
1.92799e+08
1.94499e+08
1.9612e+08
1.97212e+08
1.97948e+08
1.09293e+08
1.11273e+08
1.16588e+08
1.24016e+08
1.31677e+08
1.39688e+08
1.46937e+08
1.53971e+08
1.60075e+08
1.65794e+08
1.70676e+08
1.75121e+08
1.78895e+08
1.82217e+08
1.85023e+08
1.87411e+08
1.89321e+08
1.91011e+08
1.92232e+08
1.93151e+08
8.83505e+07
9.32926e+07
1.01533e+08
1.11357e+08
1.20935e+08
1.30361e+08
1.38742e+08
1.46575e+08
1.53355e+08
1.59533e+08
1.64827e+08
1.69558e+08
1.73579e+08
1.7712e+08
1.80075e+08
1.82657e+08
1.84737e+08
1.86477e+08
1.87918e+08
1.88651e+08
6.7363e+07
7.56933e+07
8.70176e+07
9.92149e+07
1.10536e+08
1.21207e+08
1.30535e+08
1.39003e+08
1.46337e+08
1.52801e+08
1.58476e+08
1.63247e+08
1.67646e+08
1.70971e+08
1.74532e+08
1.76526e+08
1.79155e+08
1.8042e+08
1.82971e+08
1.83129e+08
4.72842e+07
5.95367e+07
7.40298e+07
8.83602e+07
1.01173e+08
1.12811e+08
1.22908e+08
1.31833e+08
1.39619e+08
1.46285e+08
1.52256e+08
1.57099e+08
1.61678e+08
1.65056e+08
1.68588e+08
1.71018e+08
1.73581e+08
1.74986e+08
1.77217e+08
1.78585e+08
2.81057e+07
4.5506e+07
6.29749e+07
7.90433e+07
9.29025e+07
1.05242e+08
1.15814e+08
1.25102e+08
1.33133e+08
1.40053e+08
1.46136e+08
1.51249e+08
1.55785e+08
1.59574e+08
1.62743e+08
1.65697e+08
1.68063e+08
1.70105e+08
1.71143e+08
1.7343e+08
1.35426e+07
3.59135e+07
5.48874e+07
7.16665e+07
8.58635e+07
9.84049e+07
1.09075e+08
1.18428e+08
1.26466e+08
1.33407e+08
1.39449e+08
1.4457e+08
1.49056e+08
1.52835e+08
1.56036e+08
1.58887e+08
1.60906e+08
1.63236e+08
1.6394e+08
1.665e+08
1.81268e+07
3.38451e+07
5.09407e+07
6.69562e+07
8.06222e+07
9.28899e+07
1.03269e+08
1.1251e+08
1.20319e+08
1.27247e+08
1.3305e+08
1.38242e+08
1.42434e+08
1.46365e+08
1.49206e+08
1.52274e+08
1.53947e+08
1.56474e+08
1.56879e+08
1.59685e+08
3.3765e+07
3.94857e+07
5.13402e+07
6.48195e+07
7.69593e+07
8.83128e+07
9.79952e+07
1.06795e+08
1.14198e+08
1.2089e+08
1.2642e+08
1.31495e+08
1.35483e+08
1.39379e+08
1.42039e+08
1.45154e+08
1.4658e+08
1.49303e+08
1.4948e+08
1.52437e+08
5.03361e+07
4.97399e+07
5.57666e+07
6.55556e+07
7.53222e+07
8.52011e+07
9.37713e+07
1.01871e+08
1.08629e+08
1.14965e+08
1.20056e+08
1.24962e+08
1.2862e+08
1.32464e+08
1.34875e+08
1.38014e+08
1.39288e+08
1.42068e+08
1.42219e+08
1.45164e+08
6.63741e+07
6.1619e+07
6.26811e+07
6.84275e+07
7.52757e+07
8.3167e+07
9.02741e+07
9.73659e+07
1.03311e+08
1.09095e+08
1.13688e+08
1.18286e+08
1.21616e+08
1.253e+08
1.27484e+08
1.3056e+08
1.31675e+08
1.34454e+08
1.34525e+08
1.37399e+08
8.16145e+07
7.38829e+07
7.10704e+07
7.30613e+07
7.68361e+07
8.24301e+07
8.7785e+07
9.36191e+07
9.85536e+07
1.03626e+08
1.076e+08
1.11783e+08
1.14721e+08
1.18162e+08
1.20106e+08
1.23042e+08
1.24036e+08
1.26729e+08
1.26784e+08
1.29509e+08
9.59339e+07
8.5864e+07
7.99717e+07
7.86716e+07
7.94712e+07
8.26186e+07
8.60356e+07
9.03908e+07
9.41591e+07
9.83541e+07
1.01613e+08
1.05266e+08
1.07755e+08
1.1087e+08
1.12533e+08
1.1526e+08
1.16096e+08
1.18634e+08
1.18641e+08
1.2115e+08
1.09222e+08
9.72636e+07
8.89246e+07
8.48561e+07
8.29662e+07
8.37048e+07
8.51162e+07
8.78462e+07
9.03242e+07
9.3491e+07
9.5948e+07
9.8942e+07
1.00941e+08
1.03619e+08
1.04995e+08
1.07421e+08
1.08106e+08
1.10436e+08
1.10387e+08
1.12696e+08
1.2148e+08
1.07921e+08
9.75615e+07
9.11593e+07
8.68897e+07
8.53547e+07
8.47717e+07
8.57991e+07
8.68833e+07
8.89095e+07
9.04539e+07
9.27048e+07
9.41179e+07
9.63098e+07
9.73213e+07
9.94175e+07
9.98967e+07
1.01965e+08
1.01846e+08
1.03794e+08
1.32599e+08
1.17693e+08
1.05675e+08
9.73319e+07
9.1026e+07
8.74388e+07
8.49755e+07
8.43041e+07
8.39647e+07
8.47591e+07
8.53382e+07
8.6726e+07
8.75355e+07
8.9097e+07
8.97764e+07
9.13704e+07
9.16972e+07
9.33697e+07
9.30753e+07
9.49237e+07
1.42612e+08
1.26542e+08
1.13131e+08
1.03157e+08
9.51169e+07
8.97108e+07
8.55202e+07
8.32069e+07
8.14396e+07
8.09555e+07
8.04848e+07
8.09506e+07
8.10357e+07
8.19526e+07
8.21589e+07
8.33134e+07
8.33775e+07
8.47816e+07
8.4464e+07
8.57354e+07
1.51419e+08
1.34371e+08
1.19803e+08
1.08484e+08
9.89879e+07
9.20298e+07
8.62977e+07
8.24859e+07
7.93306e+07
7.7605e+07
7.60236e+07
7.5567e+07
7.48251e+07
7.5094e+07
7.47393e+07
7.53929e+07
7.52493e+07
7.60009e+07
7.59621e+07
7.645e+07
1.59052e+08
1.41168e+08
1.25649e+08
1.13208e+08
1.02528e+08
9.42376e+07
8.72145e+07
8.20202e+07
7.76488e+07
7.46546e+07
7.20739e+07
7.05542e+07
6.90736e+07
6.84998e+07
6.76138e+07
6.76381e+07
6.70121e+07
6.73925e+07
6.68598e+07
6.74662e+07
1.65436e+08
1.46879e+08
1.30582e+08
1.17253e+08
1.05603e+08
9.62484e+07
8.81295e+07
8.1783e+07
7.63085e+07
7.21885e+07
6.86294e+07
6.6094e+07
6.38558e+07
6.23997e+07
6.10137e+07
6.02794e+07
5.93621e+07
5.9165e+07
5.82957e+07
5.85746e+07
1.70583e+08
1.51482e+08
1.34581e+08
1.20545e+08
1.08148e+08
9.79388e+07
8.89544e+07
8.16548e+07
7.52572e+07
7.01632e+07
6.57014e+07
6.22587e+07
5.92083e+07
5.69777e+07
5.49199e+07
5.35618e+07
5.21765e+07
5.14409e+07
5.04978e+07
5.01195e+07
1.74454e+08
1.54955e+08
1.37603e+08
1.23058e+08
1.10105e+08
9.92768e+07
8.96438e+07
8.16302e+07
7.45228e+07
6.86517e+07
6.34717e+07
5.92325e+07
5.5518e+07
5.25173e+07
4.99026e+07
4.78402e+07
4.60323e+07
4.46851e+07
4.3463e+07
4.25893e+07
1.77045e+08
1.57277e+08
1.39631e+08
1.24744e+08
1.11426e+08
1.00184e+08
9.01183e+07
8.16238e+07
7.40246e+07
6.76205e+07
6.19098e+07
5.71072e+07
5.28584e+07
4.92874e+07
4.61853e+07
4.35584e+07
4.13728e+07
3.94585e+07
3.80248e+07
3.66023e+07
1.78342e+08
1.58443e+08
1.40648e+08
1.25594e+08
1.12096e+08
1.0065e+08
9.03706e+07
8.16351e+07
7.37914e+07
6.71098e+07
6.11317e+07
5.6019e+07
5.1493e+07
4.7587e+07
4.42173e+07
4.12411e+07
3.88226e+07
3.65562e+07
3.49546e+07
3.32063e+07
3.16824e+07
3.52806e+07
4.15035e+07
4.92897e+07
5.80455e+07
6.69788e+07
7.62091e+07
8.52839e+07
9.46217e+07
1.03347e+08
1.12131e+08
1.20468e+08
1.28668e+08
1.36328e+08
1.43911e+08
1.50778e+08
1.57899e+08
1.64291e+08
1.71362e+08
1.7839e+08
2.96651e+07
3.3259e+07
3.94637e+07
4.71482e+07
5.56542e+07
6.45671e+07
7.36996e+07
8.26842e+07
9.16206e+07
1.00434e+08
1.09055e+08
1.17337e+08
1.25537e+08
1.33146e+08
1.40782e+08
1.47484e+08
1.54242e+08
1.59809e+08
1.65574e+08
1.70714e+08
2.94566e+07
3.29211e+07
3.89524e+07
4.63715e+07
5.46946e+07
6.32293e+07
7.19528e+07
8.077e+07
8.95336e+07
9.78703e+07
1.06278e+08
1.14133e+08
1.2207e+08
1.29439e+08
1.36971e+08
1.4401e+08
1.51144e+08
1.57896e+08
1.63966e+08
1.69324e+08
2.97868e+07
3.30119e+07
3.86379e+07
4.57099e+07
5.36077e+07
6.19075e+07
7.04188e+07
7.88341e+07
8.73279e+07
9.55685e+07
1.03708e+08
1.11474e+08
1.19091e+08
1.26177e+08
1.33085e+08
1.39435e+08
1.45597e+08
1.51567e+08
1.57444e+08
1.63318e+08
3.06605e+07
3.35876e+07
3.8794e+07
4.53561e+07
5.27938e+07
6.05895e+07
6.86203e+07
7.67045e+07
8.47747e+07
9.26185e+07
1.0047e+08
1.07957e+08
1.15474e+08
1.22619e+08
1.29716e+08
1.36506e+08
1.42916e+08
1.49127e+08
1.5447e+08
1.5979e+08
3.2266e+07
3.48978e+07
3.96137e+07
4.57154e+07
5.267e+07
6.00818e+07
6.77585e+07
7.54416e+07
8.31943e+07
9.07419e+07
9.81931e+07
1.05356e+08
1.12292e+08
1.18961e+08
1.25288e+08
1.31565e+08
1.37381e+08
1.43505e+08
1.4895e+08
1.5464e+08
3.37552e+07
3.60782e+07
4.03161e+07
4.58576e+07
5.22669e+07
5.91572e+07
6.63352e+07
7.36371e+07
8.09645e+07
8.82327e+07
9.54266e+07
1.02483e+08
1.09369e+08
1.1613e+08
1.22526e+08
1.2888e+08
1.34584e+08
1.40438e+08
1.45399e+08
1.5069e+08
3.59456e+07
3.80084e+07
4.17998e+07
4.68683e+07
5.27795e+07
5.92227e+07
6.59659e+07
7.284e+07
7.97549e+07
8.66106e+07
9.33264e+07
9.99423e+07
1.06262e+08
1.12576e+08
1.18435e+08
1.24514e+08
1.2992e+08
1.35832e+08
1.40738e+08
1.46156e+08
3.78133e+07
3.96197e+07
4.29819e+07
4.75404e+07
5.29251e+07
5.88812e+07
6.51528e+07
7.16619e+07
7.8201e+07
8.48289e+07
9.13041e+07
9.78288e+07
1.04017e+08
1.10307e+08
1.16021e+08
1.21986e+08
1.27112e+08
1.32726e+08
1.37323e+08
1.42339e+08
4.02154e+07
4.18147e+07
4.48073e+07
4.89327e+07
5.3842e+07
5.93389e+07
6.51471e+07
7.12086e+07
7.72954e+07
8.3482e+07
8.94921e+07
9.55875e+07
1.01331e+08
1.07256e+08
1.12654e+08
1.18384e+08
1.23409e+08
1.28889e+08
1.33519e+08
1.38429e+08
4.23215e+07
4.37257e+07
4.63738e+07
5.00756e+07
5.45264e+07
5.959e+07
6.49743e+07
7.06897e+07
7.64361e+07
8.23806e+07
8.81412e+07
9.40668e+07
9.96135e+07
1.05366e+08
1.10551e+08
1.16039e+08
1.2081e+08
1.26008e+08
1.30386e+08
1.35089e+08
4.47568e+07
4.60002e+07
4.83532e+07
5.1682e+07
5.57084e+07
6.0337e+07
6.52771e+07
7.05563e+07
7.5871e+07
8.13958e+07
8.67537e+07
9.22994e+07
9.75115e+07
1.02959e+08
1.07925e+08
1.13198e+08
1.17856e+08
1.229e+08
1.2719e+08
1.31765e+08
4.69968e+07
4.80959e+07
5.01857e+07
5.31768e+07
5.68239e+07
6.10749e+07
6.5641e+07
7.05865e+07
7.55812e+07
8.0832e+07
8.59261e+07
9.1232e+07
9.62111e+07
1.01414e+08
1.06151e+08
1.11167e+08
1.15596e+08
1.20409e+08
1.24491e+08
1.28886e+08
4.93867e+07
5.03616e+07
5.222e+07
5.49017e+07
5.81892e+07
6.20529e+07
6.62233e+07
7.07693e+07
7.53804e+07
8.02525e+07
8.50041e+07
8.9977e+07
9.46797e+07
9.96151e+07
1.04148e+08
1.08961e+08
1.13241e+08
1.17887e+08
1.21856e+08
1.26082e+08
5.16745e+07
5.25422e+07
5.42019e+07
5.6617e+07
5.95969e+07
6.31353e+07
6.69786e+07
7.1207e+07
7.55157e+07
8.0098e+07
8.45801e+07
8.92828e+07
9.37408e+07
9.84133e+07
1.02724e+08
1.07281e+08
1.11372e+08
1.15778e+08
1.19611e+08
1.23624e+08
5.39836e+07
5.47554e+07
5.62353e+07
5.84003e+07
6.10856e+07
6.42937e+07
6.77993e+07
7.16764e+07
7.56529e+07
7.98989e+07
8.4084e+07
8.84865e+07
9.26986e+07
9.71153e+07
1.01231e+08
1.05571e+08
1.09506e+08
1.13722e+08
1.17422e+08
1.21287e+08
5.6248e+07
5.69388e+07
5.82672e+07
6.02211e+07
6.26578e+07
6.55887e+07
6.88106e+07
7.23952e+07
7.60914e+07
8.00529e+07
8.39757e+07
8.81072e+07
9.20782e+07
9.6239e+07
1.00138e+08
1.04241e+08
1.07989e+08
1.11991e+08
1.15535e+08
1.19215e+08
5.84541e+07
5.90709e+07
6.02599e+07
6.20145e+07
6.42137e+07
6.68703e+07
6.98094e+07
7.30923e+07
7.65021e+07
8.0167e+07
8.38259e+07
8.76843e+07
9.14266e+07
9.53436e+07
9.90505e+07
1.02937e+08
1.06526e+08
1.10331e+08
1.13745e+08
1.17263e+08
6.06372e+07
6.11916e+07
6.22633e+07
6.38494e+07
6.5847e+07
6.82698e+07
7.09654e+07
7.39872e+07
7.71435e+07
8.05434e+07
8.39565e+07
8.75578e+07
9.10703e+07
9.47453e+07
9.82431e+07
1.01908e+08
1.05311e+08
1.08915e+08
1.12171e+08
1.15512e+08
6.27186e+07
6.32155e+07
6.41785e+07
6.56065e+07
6.74135e+07
6.96113e+07
7.20718e+07
7.48375e+07
7.77466e+07
8.08867e+07
8.40627e+07
8.74167e+07
9.0714e+07
9.41605e+07
9.74699e+07
1.00924e+08
1.04168e+08
1.07574e+08
1.10702e+08
1.13873e+08
6.47726e+07
6.52206e+07
6.60911e+07
6.73838e+07
6.90263e+07
7.10288e+07
7.32819e+07
7.58201e+07
7.85046e+07
8.14058e+07
8.43573e+07
8.74745e+07
9.05583e+07
9.3778e+07
9.68908e+07
1.00134e+08
1.03199e+08
1.06416e+08
1.09378e+08
1.12395e+08
6.67031e+07
6.71061e+07
6.78912e+07
6.9058e+07
7.05472e+07
7.23656e+07
7.44231e+07
7.67452e+07
7.92165e+07
8.18913e+07
8.46303e+07
8.75251e+07
9.04075e+07
9.34167e+07
9.6344e+07
9.93904e+07
1.02289e+08
1.0532e+08
1.08146e+08
1.10991e+08
6.8586e+07
6.89502e+07
6.96614e+07
7.07188e+07
7.20731e+07
7.37292e+07
7.56113e+07
7.77382e+07
8.00132e+07
8.24776e+07
8.50148e+07
8.76963e+07
9.03829e+07
9.31834e+07
9.59288e+07
9.87742e+07
1.0151e+08
1.0435e+08
1.07024e+08
1.09732e+08
7.03342e+07
7.06629e+07
7.13061e+07
7.22628e+07
7.34927e+07
7.49981e+07
7.67171e+07
7.8662e+07
8.07539e+07
8.30214e+07
8.53706e+07
8.78522e+07
9.03563e+07
9.29607e+07
9.55359e+07
9.81919e+07
1.00772e+08
1.0343e+08
1.05958e+08
1.08496e+08
7.20056e+07
7.23032e+07
7.28866e+07
7.37546e+07
7.48737e+07
7.62446e+07
7.78158e+07
7.95953e+07
8.15171e+07
8.36022e+07
8.57717e+07
8.80651e+07
9.03893e+07
9.2808e+07
9.52085e+07
9.76878e+07
1.00102e+08
1.02596e+08
1.04972e+08
1.0736e+08
7.35346e+07
7.38037e+07
7.43326e+07
7.51194e+07
7.61368e+07
7.73841e+07
7.88191e+07
8.04459e+07
8.22103e+07
8.41263e+07
8.61292e+07
8.82469e+07
9.04038e+07
9.2647e+07
9.48849e+07
9.71928e+07
9.94514e+07
1.01779e+08
1.04011e+08
1.06251e+08
7.49519e+07
7.5196e+07
7.56763e+07
7.63911e+07
7.73175e+07
7.8454e+07
7.97651e+07
8.12531e+07
8.28721e+07
8.4632e+07
8.64779e+07
8.84316e+07
9.04282e+07
9.25061e+07
9.45869e+07
9.67315e+07
9.8842e+07
1.01007e+08
1.03107e+08
1.0519e+08
7.62181e+07
7.64394e+07
7.68756e+07
7.75247e+07
7.83679e+07
7.94031e+07
8.06007e+07
8.19611e+07
8.34461e+07
8.50619e+07
8.67624e+07
8.85635e+07
9.04105e+07
9.2333e+07
9.42653e+07
9.62557e+07
9.82228e+07
1.00238e+08
1.02201e+08
1.04153e+08
7.73327e+07
7.7534e+07
7.7931e+07
7.85219e+07
7.92909e+07
8.02356e+07
8.13309e+07
8.25764e+07
8.39393e+07
8.54239e+07
8.69904e+07
8.86509e+07
9.03588e+07
9.21366e+07
9.39304e+07
9.57747e+07
9.76079e+07
9.94764e+07
1.01313e+08
1.03127e+08
7.82845e+07
7.84675e+07
7.8829e+07
7.93672e+07
8.00686e+07
8.09309e+07
8.19329e+07
8.30734e+07
8.43243e+07
8.56883e+07
8.71312e+07
8.86621e+07
9.02407e+07
9.18847e+07
9.3548e+07
9.52576e+07
9.69625e+07
9.86982e+07
1.0041e+08
1.02103e+08
7.90381e+07
7.92052e+07
7.95357e+07
8.00278e+07
8.067e+07
8.14602e+07
8.23798e+07
8.34277e+07
8.45793e+07
8.58364e+07
8.71691e+07
8.8584e+07
9.00467e+07
9.15697e+07
9.31154e+07
9.47015e+07
9.629e+07
9.79012e+07
9.95001e+07
1.01076e+08
7.96129e+07
7.97658e+07
8.00683e+07
8.05189e+07
8.11077e+07
8.18328e+07
8.26781e+07
8.36423e+07
8.4704e+07
8.58642e+07
8.70967e+07
8.84065e+07
8.97632e+07
9.11768e+07
9.26142e+07
9.40892e+07
9.55697e+07
9.70692e+07
9.85621e+07
1.00032e+08
7.99329e+07
8.00738e+07
8.03528e+07
8.07686e+07
8.13126e+07
8.1983e+07
8.27658e+07
8.36597e+07
8.46458e+07
8.57246e+07
8.68731e+07
8.80945e+07
8.93625e+07
9.06836e+07
9.20305e+07
9.34108e+07
9.48006e+07
9.62038e+07
9.76072e+07
9.89838e+07
8.00539e+07
8.01843e+07
8.04426e+07
8.08277e+07
8.13323e+07
8.19546e+07
8.26825e+07
8.35146e+07
8.44345e+07
8.54421e+07
8.65169e+07
8.76614e+07
8.88519e+07
9.00933e+07
9.13613e+07
9.26607e+07
9.39718e+07
9.5293e+07
9.6619e+07
9.79154e+07
7.98491e+07
7.99714e+07
8.02139e+07
8.05756e+07
8.10501e+07
8.16359e+07
8.23225e+07
8.31084e+07
8.39793e+07
8.49345e+07
8.59562e+07
8.70453e+07
8.81815e+07
8.93668e+07
9.05809e+07
9.18243e+07
9.30827e+07
9.43473e+07
9.56216e+07
9.68622e+07
7.94216e+07
7.95373e+07
7.97668e+07
8.01094e+07
8.05595e+07
8.11158e+07
8.17691e+07
8.25182e+07
8.33503e+07
8.42646e+07
8.52453e+07
8.62924e+07
8.7388e+07
8.85324e+07
8.9708e+07
9.09126e+07
9.21348e+07
9.3362e+07
9.46026e+07
9.58065e+07
7.85784e+07
7.86903e+07
7.89124e+07
7.92443e+07
7.9681e+07
8.02216e+07
8.08581e+07
8.15894e+07
8.24044e+07
8.33018e+07
8.42682e+07
8.53022e+07
8.63887e+07
8.75254e+07
8.86983e+07
8.99012e+07
9.11266e+07
9.23565e+07
9.36039e+07
9.48131e+07
7.74877e+07
7.75976e+07
7.78158e+07
7.81424e+07
7.85727e+07
7.91065e+07
7.97365e+07
8.04621e+07
8.12732e+07
8.2169e+07
8.31373e+07
8.4176e+07
8.52724e+07
8.6422e+07
8.76137e+07
8.8838e+07
9.00903e+07
9.13494e+07
9.26295e+07
9.38737e+07
7.58691e+07
7.59805e+07
7.62017e+07
7.65335e+07
7.6971e+07
7.75157e+07
7.81595e+07
7.89043e+07
7.97391e+07
8.06653e+07
8.16702e+07
8.27532e+07
8.39017e+07
8.5111e+07
8.63719e+07
8.76712e+07
8.90092e+07
9.03572e+07
9.17355e+07
9.30818e+07
7.39843e+07
7.40995e+07
7.43281e+07
7.46721e+07
7.51257e+07
7.5693e+07
7.63641e+07
7.71447e+07
7.80213e+07
7.89998e+07
8.00643e+07
8.12187e+07
8.24475e+07
8.37485e+07
8.51119e+07
8.65226e+07
8.79846e+07
8.94608e+07
9.09791e+07
9.24699e+07
1.82115e+08
1.81148e+08
1.83522e+08
1.84476e+08
1.86162e+08
1.87286e+08
1.8854e+08
1.8975e+08
1.90502e+08
1.91008e+08
1.91971e+08
1.92485e+08
1.92999e+08
1.93371e+08
1.93621e+08
1.93824e+08
1.939e+08
1.93955e+08
1.93914e+08
1.9386e+08
1.93748e+08
1.93628e+08
1.93496e+08
1.93357e+08
1.93256e+08
1.93152e+08
1.93142e+08
1.93136e+08
1.93272e+08
1.93449e+08
1.9376e+08
1.94251e+08
1.94883e+08
1.95726e+08
1.96805e+08
1.98102e+08
1.99746e+08
2.01623e+08
2.03964e+08
2.0656e+08
1.75818e+08
1.77736e+08
1.79465e+08
1.80867e+08
1.82087e+08
1.83362e+08
1.84145e+08
1.85388e+08
1.87114e+08
1.87021e+08
1.87384e+08
1.88275e+08
1.88624e+08
1.89219e+08
1.89504e+08
1.89903e+08
1.9012e+08
1.90387e+08
1.9055e+08
1.90737e+08
1.90874e+08
1.91028e+08
1.91175e+08
1.91346e+08
1.91548e+08
1.91794e+08
1.921e+08
1.92495e+08
1.92952e+08
1.93609e+08
1.94242e+08
1.95101e+08
1.96149e+08
1.97313e+08
1.98788e+08
2.0039e+08
2.02373e+08
2.04522e+08
2.07118e+08
2.09921e+08
1.72159e+08
1.73628e+08
1.74908e+08
1.76059e+08
1.77203e+08
1.7818e+08
1.79247e+08
1.79942e+08
1.8105e+08
1.82019e+08
1.82599e+08
1.83272e+08
1.83894e+08
1.84409e+08
1.84971e+08
1.85394e+08
1.85876e+08
1.86246e+08
1.86663e+08
1.87015e+08
1.87401e+08
1.87771e+08
1.88172e+08
1.88596e+08
1.89073e+08
1.89589e+08
1.9023e+08
1.90857e+08
1.91808e+08
1.92524e+08
1.934e+08
1.94756e+08
1.96037e+08
1.97557e+08
1.99334e+08
2.01224e+08
2.0351e+08
2.05896e+08
2.08753e+08
2.11733e+08
1.66758e+08
1.68682e+08
1.70223e+08
1.71583e+08
1.73077e+08
1.74051e+08
1.75293e+08
1.76139e+08
1.77302e+08
1.77905e+08
1.78771e+08
1.79404e+08
1.80103e+08
1.80701e+08
1.813e+08
1.81856e+08
1.82399e+08
1.82931e+08
1.83453e+08
1.8399e+08
1.84526e+08
1.85102e+08
1.85688e+08
1.86337e+08
1.87014e+08
1.8777e+08
1.88585e+08
1.89466e+08
1.90484e+08
1.92156e+08
1.92803e+08
1.94302e+08
1.96012e+08
1.97671e+08
1.99622e+08
2.01761e+08
2.04122e+08
2.06742e+08
2.09627e+08
2.1277e+08
1.62559e+08
1.6431e+08
1.65631e+08
1.67154e+08
1.68036e+08
1.69061e+08
1.70195e+08
1.71117e+08
1.72139e+08
1.73032e+08
1.73898e+08
1.74714e+08
1.75503e+08
1.76249e+08
1.76996e+08
1.77694e+08
1.78419e+08
1.79098e+08
1.79826e+08
1.80515e+08
1.81271e+08
1.82003e+08
1.82817e+08
1.83631e+08
1.84529e+08
1.8547e+08
1.86464e+08
1.87601e+08
1.88662e+08
1.90106e+08
1.91738e+08
1.93552e+08
1.94939e+08
1.96783e+08
1.98891e+08
2.01174e+08
2.0365e+08
2.06367e+08
2.09315e+08
2.12498e+08
1.57561e+08
1.59505e+08
1.6106e+08
1.62275e+08
1.63392e+08
1.64773e+08
1.66005e+08
1.67024e+08
1.68203e+08
1.69049e+08
1.70114e+08
1.7089e+08
1.71848e+08
1.72596e+08
1.73477e+08
1.74222e+08
1.75062e+08
1.75823e+08
1.76657e+08
1.77458e+08
1.78324e+08
1.79189e+08
1.80123e+08
1.81084e+08
1.82126e+08
1.83216e+08
1.8441e+08
1.85676e+08
1.87066e+08
1.88574e+08
1.90206e+08
1.91784e+08
1.93547e+08
1.9561e+08
1.97804e+08
2.00111e+08
2.0271e+08
2.0537e+08
2.08398e+08
2.11487e+08
1.53398e+08
1.55228e+08
1.56593e+08
1.57846e+08
1.59176e+08
1.60366e+08
1.61532e+08
1.62564e+08
1.63702e+08
1.64654e+08
1.65729e+08
1.66638e+08
1.67654e+08
1.6854e+08
1.69516e+08
1.70398e+08
1.71357e+08
1.72254e+08
1.73222e+08
1.74156e+08
1.7516e+08
1.76157e+08
1.77225e+08
1.78315e+08
1.79477e+08
1.80692e+08
1.81983e+08
1.83361e+08
1.84823e+08
1.86401e+08
1.88106e+08
1.89907e+08
1.91812e+08
1.93821e+08
1.96056e+08
1.9836e+08
2.00936e+08
2.03585e+08
2.06539e+08
2.09578e+08
1.48966e+08
1.5086e+08
1.5247e+08
1.53664e+08
1.54324e+08
1.56264e+08
1.57703e+08
1.58675e+08
1.59907e+08
1.60926e+08
1.62048e+08
1.63056e+08
1.64114e+08
1.65102e+08
1.66128e+08
1.67106e+08
1.68125e+08
1.69115e+08
1.70152e+08
1.71175e+08
1.72258e+08
1.73338e+08
1.74496e+08
1.75659e+08
1.76919e+08
1.78194e+08
1.79585e+08
1.81002e+08
1.82551e+08
1.84138e+08
1.85871e+08
1.87654e+08
1.89585e+08
1.9163e+08
1.93831e+08
1.96142e+08
1.98653e+08
2.01257e+08
2.04114e+08
2.07046e+08
1.45122e+08
1.46936e+08
1.48357e+08
1.49755e+08
1.5108e+08
1.52276e+08
1.53615e+08
1.54767e+08
1.55999e+08
1.57109e+08
1.58269e+08
1.59345e+08
1.6046e+08
1.61515e+08
1.62608e+08
1.6366e+08
1.6475e+08
1.65816e+08
1.66925e+08
1.68027e+08
1.69176e+08
1.70335e+08
1.71548e+08
1.72786e+08
1.74089e+08
1.7543e+08
1.7685e+08
1.7832e+08
1.79886e+08
1.81511e+08
1.83251e+08
1.85055e+08
1.86996e+08
1.89002e+08
1.91179e+08
1.93418e+08
1.95863e+08
1.98368e+08
2.01113e+08
2.03917e+08
1.41262e+08
1.4303e+08
1.44473e+08
1.45913e+08
1.47152e+08
1.48628e+08
1.4995e+08
1.51198e+08
1.52497e+08
1.53644e+08
1.54891e+08
1.55992e+08
1.5719e+08
1.58274e+08
1.59439e+08
1.60524e+08
1.61678e+08
1.62781e+08
1.63948e+08
1.65083e+08
1.66289e+08
1.67473e+08
1.68743e+08
1.69991e+08
1.71348e+08
1.7268e+08
1.74132e+08
1.75586e+08
1.77156e+08
1.78754e+08
1.8047e+08
1.82234e+08
1.84123e+08
1.86076e+08
1.8817e+08
1.90332e+08
1.9266e+08
1.95053e+08
1.97644e+08
2.00292e+08
1.37887e+08
1.39601e+08
1.41058e+08
1.42483e+08
1.43886e+08
1.45192e+08
1.46551e+08
1.47781e+08
1.49067e+08
1.50264e+08
1.51502e+08
1.52667e+08
1.53872e+08
1.55015e+08
1.562e+08
1.57338e+08
1.58518e+08
1.59668e+08
1.60859e+08
1.62038e+08
1.63256e+08
1.64482e+08
1.65747e+08
1.67035e+08
1.68369e+08
1.69722e+08
1.71159e+08
1.72612e+08
1.74162e+08
1.75736e+08
1.77416e+08
1.79132e+08
1.80965e+08
1.8284e+08
1.84851e+08
1.86907e+08
1.8912e+08
1.91378e+08
1.93819e+08
1.96301e+08
1.34584e+08
1.36242e+08
1.37705e+08
1.39165e+08
1.40561e+08
1.4194e+08
1.43296e+08
1.4458e+08
1.45907e+08
1.47139e+08
1.48412e+08
1.49605e+08
1.50838e+08
1.52007e+08
1.53212e+08
1.54374e+08
1.55566e+08
1.56737e+08
1.57933e+08
1.59128e+08
1.60352e+08
1.61579e+08
1.62872e+08
1.64123e+08
1.65564e+08
1.66788e+08
1.68211e+08
1.6961e+08
1.71101e+08
1.7263e+08
1.74229e+08
1.75883e+08
1.77617e+08
1.79407e+08
1.81297e+08
1.8324e+08
1.85305e+08
1.87418e+08
1.8968e+08
1.9198e+08
1.31684e+08
1.33273e+08
1.3474e+08
1.36181e+08
1.37609e+08
1.38951e+08
1.4038e+08
1.41599e+08
1.42843e+08
1.44145e+08
1.45405e+08
1.46617e+08
1.47861e+08
1.49031e+08
1.50256e+08
1.5141e+08
1.52624e+08
1.53779e+08
1.54996e+08
1.56168e+08
1.574e+08
1.58611e+08
1.59864e+08
1.61151e+08
1.62414e+08
1.63682e+08
1.65082e+08
1.66456e+08
1.67901e+08
1.69371e+08
1.70899e+08
1.7247e+08
1.74109e+08
1.75791e+08
1.77561e+08
1.79372e+08
1.81291e+08
1.83246e+08
1.85333e+08
1.87452e+08
1.289e+08
1.30413e+08
1.31899e+08
1.3332e+08
1.34752e+08
1.36103e+08
1.37483e+08
1.38516e+08
1.40099e+08
1.41332e+08
1.42614e+08
1.43807e+08
1.45059e+08
1.46223e+08
1.47452e+08
1.48599e+08
1.49811e+08
1.50954e+08
1.52153e+08
1.53309e+08
1.54486e+08
1.55688e+08
1.56804e+08
1.5812e+08
1.59967e+08
1.60635e+08
1.61846e+08
1.63262e+08
1.64618e+08
1.66022e+08
1.6748e+08
1.68939e+08
1.70492e+08
1.72043e+08
1.73699e+08
1.75364e+08
1.77135e+08
1.7893e+08
1.80835e+08
1.82761e+08
1.26422e+08
1.27854e+08
1.29332e+08
1.30724e+08
1.32119e+08
1.33469e+08
1.3475e+08
1.36106e+08
1.3747e+08
1.38645e+08
1.39906e+08
1.411e+08
1.42306e+08
1.43491e+08
1.44666e+08
1.45837e+08
1.46994e+08
1.48157e+08
1.49305e+08
1.50466e+08
1.51619e+08
1.5278e+08
1.53956e+08
1.55104e+08
1.56339e+08
1.57586e+08
1.5879e+08
1.60042e+08
1.61329e+08
1.62621e+08
1.63982e+08
1.65334e+08
1.66773e+08
1.68199e+08
1.69727e+08
1.71239e+08
1.72865e+08
1.74477e+08
1.76205e+08
1.77938e+08
1.24027e+08
1.25415e+08
1.26874e+08
1.28249e+08
1.29641e+08
1.30959e+08
1.32296e+08
1.33551e+08
1.34849e+08
1.36072e+08
1.37311e+08
1.38502e+08
1.39697e+08
1.40859e+08
1.42019e+08
1.43161e+08
1.44295e+08
1.45425e+08
1.46544e+08
1.47669e+08
1.48788e+08
1.4991e+08
1.51064e+08
1.52166e+08
1.53427e+08
1.54451e+08
1.55643e+08
1.56784e+08
1.57987e+08
1.5919e+08
1.60438e+08
1.61694e+08
1.63002e+08
1.6432e+08
1.65696e+08
1.67106e+08
1.6854e+08
1.70106e+08
1.71557e+08
1.73121e+08
1.21894e+08
1.23214e+08
1.24641e+08
1.25985e+08
1.2734e+08
1.28642e+08
1.29937e+08
1.31194e+08
1.32456e+08
1.33651e+08
1.34866e+08
1.36022e+08
1.37192e+08
1.3832e+08
1.39453e+08
1.40557e+08
1.41663e+08
1.42748e+08
1.43835e+08
1.44905e+08
1.45984e+08
1.47046e+08
1.48125e+08
1.49187e+08
1.50272e+08
1.51355e+08
1.52441e+08
1.53541e+08
1.54648e+08
1.5577e+08
1.5691e+08
1.58063e+08
1.59248e+08
1.60438e+08
1.61685e+08
1.62915e+08
1.64254e+08
1.65511e+08
1.66866e+08
1.6825e+08
1.1987e+08
1.21135e+08
1.22537e+08
1.23838e+08
1.25171e+08
1.26429e+08
1.27702e+08
1.28917e+08
1.30138e+08
1.31313e+08
1.32486e+08
1.33623e+08
1.34755e+08
1.35858e+08
1.36954e+08
1.38027e+08
1.39094e+08
1.40143e+08
1.41188e+08
1.42216e+08
1.43248e+08
1.44259e+08
1.45287e+08
1.46284e+08
1.47312e+08
1.48301e+08
1.49322e+08
1.50324e+08
1.51345e+08
1.52359e+08
1.53399e+08
1.54429e+08
1.55499e+08
1.56532e+08
1.57657e+08
1.58657e+08
1.59886e+08
1.61674e+08
1.62199e+08
1.63348e+08
1.1804e+08
1.19235e+08
1.20602e+08
1.21851e+08
1.23151e+08
1.24366e+08
1.25605e+08
1.26782e+08
1.27967e+08
1.29103e+08
1.30239e+08
1.31337e+08
1.32428e+08
1.3349e+08
1.34543e+08
1.35572e+08
1.36591e+08
1.37591e+08
1.38583e+08
1.39558e+08
1.40528e+08
1.41482e+08
1.42436e+08
1.43375e+08
1.44319e+08
1.45247e+08
1.46186e+08
1.47109e+08
1.48051e+08
1.4897e+08
1.49916e+08
1.50845e+08
1.51802e+08
1.52747e+08
1.53716e+08
1.54692e+08
1.55658e+08
1.56696e+08
1.57754e+08
1.58777e+08
1.16304e+08
1.17452e+08
1.18775e+08
1.1998e+08
1.21226e+08
1.22405e+08
1.23591e+08
1.24732e+08
1.25868e+08
1.26968e+08
1.28057e+08
1.29116e+08
1.30164e+08
1.31184e+08
1.32194e+08
1.33177e+08
1.34153e+08
1.35102e+08
1.36048e+08
1.36964e+08
1.37885e+08
1.38773e+08
1.39672e+08
1.40536e+08
1.41416e+08
1.42264e+08
1.43125e+08
1.43971e+08
1.44807e+08
1.4561e+08
1.46476e+08
1.4729e+08
1.48142e+08
1.4897e+08
1.4982e+08
1.50684e+08
1.51522e+08
1.5248e+08
1.53264e+08
1.54153e+08
1.14722e+08
1.15794e+08
1.17076e+08
1.18179e+08
1.19434e+08
1.20547e+08
1.21706e+08
1.22796e+08
1.23889e+08
1.24944e+08
1.25985e+08
1.27003e+08
1.27997e+08
1.28979e+08
1.2993e+08
1.30876e+08
1.31786e+08
1.32693e+08
1.33571e+08
1.34441e+08
1.3529e+08
1.36128e+08
1.36949e+08
1.3776e+08
1.38552e+08
1.39341e+08
1.40106e+08
1.40879e+08
1.41641e+08
1.42378e+08
1.43109e+08
1.43848e+08
1.44571e+08
1.45299e+08
1.46016e+08
1.4674e+08
1.47458e+08
1.48185e+08
1.48919e+08
1.49647e+08
1.13225e+08
1.14252e+08
1.15505e+08
1.16569e+08
1.17683e+08
1.18794e+08
1.19874e+08
1.20929e+08
1.21966e+08
1.22976e+08
1.23967e+08
1.24936e+08
1.25884e+08
1.26814e+08
1.27721e+08
1.28611e+08
1.29485e+08
1.30331e+08
1.31166e+08
1.31975e+08
1.32773e+08
1.33547e+08
1.3431e+08
1.3505e+08
1.35781e+08
1.36486e+08
1.37192e+08
1.37853e+08
1.38546e+08
1.39216e+08
1.39851e+08
1.40484e+08
1.41111e+08
1.41724e+08
1.42335e+08
1.42938e+08