/*--------------------------------*- C++ -*----------------------------------*\
| =========                 |                                                 |
| \\      /  F ield         | OpenFOAM: The Open Source CFD Toolbox           |
|  \\    /   O peration     | Version:  v2012                                 |
|   \\  /    A nd           | Website:  www.openfoam.com                      |
|    \\/     M anipulation  |                                                 |
\*---------------------------------------------------------------------------*/
FoamFile
{
    version     2.0;
    format      ascii;
    class       volSymmTensorField;
    location    "16";
    object      epsilon;
}
// * * * * * * * * * * * * * * * * * * * * * * * * * * * * * * * * * * * * * //

dimensions      [0 0 0 0 0 0 0];


internalField   nonuniform List<symmTensor> 
4000
(
(0.0092551 -0.000377575 -1.83457e-18 -0.00934401 3.94981e-18 1.29725e-32)
(0.00921185 -0.000371602 -4.80922e-20 -0.00907869 5.04701e-18 0)
(0.00903104 -0.000371598 -3.36492e-27 -0.0086827 -5.24238e-24 0)
(0.00876836 -0.00036412 2.802e-18 -0.00822384 -4.61735e-18 0)
(0.00844372 -0.000353778 -4.11056e-18 -0.00770253 -4.23802e-18 0)
(0.00806308 -0.000343456 5.55294e-20 -0.00714987 1.98636e-18 0)
(0.00765607 -0.000327202 -2.33078e-18 -0.00656355 2.09819e-21 0)
(0.00721401 -0.000311397 0 -0.00596993 0 0)
(0.00675792 -0.000290887 1.71882e-19 -0.0053535 2.97341e-18 0)
(0.00627298 -0.000268156 1.89058e-18 -0.00473875 1.34858e-18 0)
(0.00578236 -0.000239758 -2.06493e-19 -0.00411247 -2.28289e-18 0)
(0.00527501 -0.000210509 -2.2236e-19 -0.00350467 -1.94464e-18 0)
(0.00477285 -0.000176189 -1.1616e-19 -0.00290325 -8.04968e-19 0)
(0.00427762 -0.000139656 2.34781e-19 -0.0023494 1.30174e-18 0)
(0.00381066 -0.000101628 6.11504e-19 -0.00183105 5.53097e-19 0)
(0.0033737 -6.43465e-05 -1.08654e-19 -0.0013854 -3.82744e-19 0)
(0.00298794 -2.84398e-05 -4.7428e-19 -0.000998702 -3.24831e-19 0)
(0.00264932 4.52676e-06 -7.40024e-19 -0.000695966 -2.88651e-19 0)
(0.00237704 3.67092e-05 -2.88428e-19 -0.000459248 -4.64722e-20 0)
(0.0021619 6.78123e-05 -4.44172e-19 -0.000325272 3.22329e-20 0)
(0.00892076 -0.0010933 -4.4233e-19 -0.00899506 2.57822e-18 5.72386e-33)
(0.00887737 -0.00108266 1.4335e-18 -0.00873297 2.24218e-18 0)
(0.00872687 -0.00108484 1.44959e-18 -0.00836521 -4.85448e-18 0)
(0.00850099 -0.0010663 2.83097e-18 -0.00794609 1.86812e-18 0)
(0.00821879 -0.00104003 -3.93078e-18 -0.00746509 4.23024e-19 0)
(0.00786155 -0.00100669 -5.49093e-25 -0.00693807 -6.86566e-24 0)
(0.00746863 -0.000958882 8.42103e-21 -0.00636525 7.64152e-20 0)
(0.00701924 -0.000907019 -2.57245e-18 -0.00576747 -3.18113e-18 0)
(0.0065432 -0.000838231 0 -0.00513465 0 0)
(0.00603544 -0.000764415 2.90649e-18 -0.00450461 1.30165e-18 0)
(0.00551888 -0.000673653 4.18351e-25 -0.00386333 1.38594e-24 0)
(0.0049975 -0.000580093 -6.77137e-19 -0.00325597 -1.79305e-18 0)
(0.00449503 -0.000474374 -3.48837e-19 -0.00267199 -7.31107e-19 0)
(0.00401457 -0.000368876 3.48883e-19 -0.00215181 5.83957e-19 0)
(0.00357581 -0.000261255 8.08449e-19 -0.00168106 5.77165e-19 0)
(0.00318111 -0.000158553 -1.02483e-19 -0.00129378 2.01429e-19 0)
(0.00284373 -6.1243e-05 -7.92794e-20 -0.000966918 1.12926e-19 0)
(0.00256022 2.91255e-05 -8.78614e-19 -0.000725288 -4.5441e-19 0)
(0.0023389 0.000111835 3.26984e-21 -0.0005391 2.25981e-21 0)
(0.00216093 0.000191512 -7.857e-19 -0.000420663 -4.27486e-19 0)
(0.00835439 -0.00171786 7.5927e-19 -0.00840056 2.14468e-18 4.87162e-33)
(0.00829395 -0.00170575 1.26845e-18 -0.0081251 1.90911e-18 0)
(0.00817146 -0.0017113 2.6474e-20 -0.00778494 -2.27699e-18 0)
(0.00798474 -0.00168877 -1.17245e-18 -0.00740787 4.45796e-18 0)
(0.00773673 -0.0016489 2.49148e-18 -0.00696179 -3.55093e-19 0)
(0.00740258 -0.00159666 6.79003e-19 -0.0064603 -3.77997e-18 0)
(0.00700986 -0.00150814 6.2933e-19 -0.00589157 3.24735e-18 0)
(0.00654142 -0.00140921 1.65571e-20 -0.00528207 6.23063e-20 0)
(0.00603839 -0.00127769 -3.18924e-18 -0.00463356 -3.93389e-18 0)
(0.00550683 -0.00113667 1.31855e-18 -0.00399683 1.16137e-18 0)
(0.00497862 -0.000974918 1.2798e-18 -0.00336729 1.04392e-18 0)
(0.00447032 -0.000812525 -4.92633e-19 -0.0028009 -1.33408e-18 0)
(0.00400155 -0.00064328 -1.72623e-18 -0.00228281 -9.90625e-19 0)
(0.00358333 -0.000482622 5.78135e-20 -0.00185512 2.56561e-19 0)
(0.00322379 -0.000325997 1.06958e-18 -0.00149138 7.36938e-19 0)
(0.00292578 -0.000182741 4.96484e-19 -0.00121843 2.95936e-19 0)
(0.00268621 -4.96842e-05 3.60432e-19 -0.001 2.27535e-19 0)
(0.00249796 7.12012e-05 -1.04156e-18 -0.00085142 -5.96537e-19 0)
(0.00234707 0.000178161 -4.86284e-21 -0.000729781 -2.69449e-21 0)
(0.00221879 0.000275302 -7.98756e-19 -0.000641214 -5.30121e-19 0)
(0.00769693 -0.00223709 -3.64386e-18 -0.00769896 3.14595e-18 5.7362e-33)
(0.0075736 -0.00222041 -4.18175e-19 -0.00736966 4.36937e-18 0)
(0.0074333 -0.00221408 1.23997e-18 -0.00700701 -3.68115e-19 0)
(0.00722411 -0.00218023 -5.88903e-20 -0.00661703 -1.89464e-18 0)
(0.00696012 -0.00211102 2.99964e-18 -0.00615173 -4.39687e-18 0)
(0.00659662 -0.00201447 6.46319e-19 -0.00563563 3.21065e-18 0)
(0.00617273 -0.00186964 4.70252e-19 -0.00504489 1.49646e-18 0)
(0.00568314 -0.0017069 2.68051e-18 -0.00443365 2.01089e-21 0)
(0.00517526 -0.00150227 1.88875e-19 -0.00380348 -9.00171e-19 0)
(0.00466754 -0.00129517 -1.44753e-18 -0.00322133 -1.71946e-18 0)
(0.00419563 -0.00107236 1.29228e-18 -0.00268299 4.40081e-19 0)
(0.00377632 -0.00086322 7.65031e-19 -0.00224178 5.43613e-19 0)
(0.00342369 -0.000658627 7.96345e-19 -0.00187239 4.57688e-19 0)
(0.00314357 -0.000474757 -1.66466e-18 -0.00160729 -9.78897e-19 0)
(0.00292915 -0.000303364 -4.33053e-19 -0.00140246 -3.15491e-19 0)
(0.00277391 -0.000150163 3.89113e-19 -0.00127479 3.04063e-19 0)
(0.00265381 -1.04807e-05 1.38933e-18 -0.00116925 7.66903e-19 0)
(0.00255745 0.000112702 7.02036e-19 -0.00109909 5.64715e-19 0)
(0.00245874 0.000220306 -3.17875e-19 -0.00101339 -2.59934e-19 0)
(0.00235351 0.000307958 4.42231e-19 -0.000931754 3.29937e-19 0)
(0.00703167 -0.00267181 -1.27226e-18 -0.0069754 5.11978e-19 1.3062e-35)
(0.00679715 -0.00261759 1.63564e-18 -0.00654183 -4.65974e-18 0)
(0.00654049 -0.00255812 9.15152e-20 -0.00607113 -1.95541e-18 0)
(0.00622173 -0.00246314 1.03359e-18 -0.00557773 -4.28468e-19 0)
(0.00582659 -0.00231664 -5.59183e-21 -0.00499852 -3.36403e-20 0)
(0.00537197 -0.00215123 -4.5816e-19 -0.00440645 1.45694e-18 0)
(0.0049125 -0.00192735 1.85438e-18 -0.00380237 -1.15871e-18 0)
(0.00444404 -0.00170568 4.45353e-21 -0.00324667 -8.01678e-19 0)
(0.00400439 -0.00145231 6.27921e-19 -0.00272277 1.56211e-19 0)
(0.00362734 -0.0012186 0 -0.00231248 0 0)
(0.00331785 -0.000985665 9.06863e-19 -0.00197363 4.32719e-19 0)
(0.00309316 -0.000781095 -1.02418e-18 -0.00175396 -7.17286e-19 0)
(0.00294103 -0.000589785 1.81237e-18 -0.00159965 1.05649e-18 0)
(0.00285295 -0.000421589 2.08847e-18 -0.00152789 9.63748e-19 0)
(0.0028021 -0.000264741 -2.74908e-19 -0.00147831 9.99502e-20 0)
(0.00276978 -0.000125595 -6.36365e-19 -0.00145951 -2.73354e-19 0)
(0.00272568 2.60391e-06 -1.54669e-19 -0.00141437 7.768e-20 0)
(0.00267147 0.000114406 3.50372e-19 -0.00137254 3.12751e-19 0)
(0.00258439 0.000214791 5.09662e-20 -0.00128655 -7.45285e-20 0)
(0.00248523 0.000297566 4.473e-19 -0.00120376 5.29961e-19 0)
(0.00634593 -0.00300158 2.28804e-18 -0.00621283 -1.02537e-18 1.80407e-36)
(0.00593576 -0.00286239 -1.20871e-18 -0.00562549 2.42714e-18 0)
(0.00544945 -0.00267184 9.21179e-19 -0.00493483 -4.25219e-19 0)
(0.00491471 -0.00246436 -1.62125e-19 -0.00424661 -1.34507e-18 0)
(0.00447359 -0.00221727 -1.55388e-18 -0.00361561 3.74175e-19 0)
(0.00384475 -0.00192844 -1.23849e-18 -0.00290806 -8.04874e-19 0)
(0.00338109 -0.00163643 -7.27234e-19 -0.00234799 -6.44662e-19 0)
(0.00302866 -0.00140144 1.12904e-18 -0.00195008 7.27479e-19 0)
(0.00276845 -0.00117104 -4.91657e-19 -0.00165379 -2.83764e-19 0)
(0.00263013 -0.000983831 -1.98284e-18 -0.00151118 -9.91199e-19 0)
(0.00257087 -0.000812356 9.90116e-19 -0.0014404 -2.93935e-19 0)
(0.00259331 -0.000664084 -1.38901e-18 -0.0014667 -6.38352e-19 0)
(0.00264392 -0.000522332 -1.73906e-18 -0.00150587 -4.90408e-19 0)
(0.00271062 -0.000392082 4.2727e-19 -0.00157323 3.90527e-19 0)
(0.00275191 -0.000263767 6.88632e-19 -0.0016007 2.62668e-19 0)
(0.00276765 -0.000146023 4.31167e-19 -0.00161826 3.80027e-19 0)
(0.00274344 -2.95439e-05 5.617e-19 -0.00158479 2.67169e-19 0)
(0.00269746 7.38972e-05 1.43409e-18 -0.00154695 8.93991e-19 0)
(0.00262208 0.000174026 -1.2735e-18 -0.00146863 -8.29897e-19 0)
(0.00254228 0.000256441 -1.91519e-19 -0.00140104 -6.91474e-20 0)
(0.00550843 -0.00315536 -1.29588e-18 -0.00528644 2.95995e-18 8.37545e-33)
(0.00488904 -0.00286103 -7.86268e-19 -0.00451702 -9.07534e-19 0)
(0.00413664 -0.00248571 -2.88775e-19 -0.00357467 -2.47782e-18 0)
(0.0034122 -0.00212713 4.10558e-19 -0.00274252 2.84924e-18 0)
(0.00277689 -0.00172916 -2.29922e-21 -0.00198755 6.34227e-19 0)
(0.00228498 -0.00141113 -1.94505e-19 -0.00144607 -2.49304e-19 0)
(0.00192964 -0.00114487 -7.85993e-19 -0.00105242 -1.94041e-19 0)
(0.00179348 -0.000972791 -3.89827e-19 -0.000908436 -2.92642e-19 0)
(0.00178945 -0.000842634 1.70817e-18 -0.000889083 7.70089e-19 0)
(0.00190833 -0.00075382 1.26652e-19 -0.000999883 -6.35176e-19 0)
(0.00206741 -0.000667016 1.76258e-20 -0.00113578 2.54452e-21 0)
(0.00224555 -0.000585473 -1.69025e-18 -0.00130108 -3.39944e-19 0)
(0.00239334 -0.000493405 -1.23407e-18 -0.00142294 -5.88382e-19 0)
(0.00250863 -0.000400247 1.05177e-18 -0.00152889 7.36428e-20 0)
(0.00257369 -0.000296305 -1.53205e-18 -0.00157491 -9.98851e-19 0)
(0.0026089 -0.000194926 -1.07351e-18 -0.00161026 -6.32375e-19 0)
(0.00261016 -8.74236e-05 -9.87055e-19 -0.00160114 -6.1546e-19 0)
(0.00259787 8.09641e-06 5.09952e-19 -0.00159512 2.26943e-19 0)
(0.00256644 0.000106379 1.35725e-18 -0.00155639 8.22705e-19 0)
(0.00252842 0.000186243 -8.00805e-19 -0.00152561 -5.74217e-19 0)
(0.00433885 -0.00295327 -1.0637e-18 -0.00402443 1.2193e-18 9.765e-34)
(0.00354301 -0.0024676 1.49424e-18 -0.00312485 3.48814e-19 0)
(0.00265969 -0.0019364 -1.58831e-18 -0.0020867 4.74966e-19 0)
(0.00195315 -0.00149788 4.52892e-19 -0.00133464 3.6918e-20 0)
(0.00140316 -0.00112472 -6.89359e-19 -0.000735117 7.22188e-20 0)
(0.00111985 -0.000903471 -1.2969e-18 -0.00046436 2.45134e-19 0)
(0.00102635 -0.000737937 1.83666e-19 -0.000357066 -6.42285e-19 0)
(0.00110914 -0.000665807 -3.13026e-19 -0.000434981 -3.11738e-19 0)
(0.00125923 -0.00061765 1.24851e-19 -0.000551549 -6.66789e-19 0)
(0.00146027 -0.000598357 1.11845e-18 -0.000728373 3.44587e-19 0)
(0.00164678 -0.000567161 3.48383e-19 -0.000876845 3.29046e-19 0)
(0.00183065 -0.000531659 8.89123e-25 -0.00103963 1.20508e-25 0)
(0.0019788 -0.000472036 -1.0745e-18 -0.00115886 -4.62485e-19 0)
(0.00210728 -0.000409043 2.76881e-19 -0.00127831 -1.96624e-19 0)
(0.00219894 -0.000323642 6.37776e-19 -0.00135291 1.64359e-19 0)
(0.00227375 -0.000242936 -9.73659e-19 -0.00142843 -5.29602e-19 0)
(0.00232677 -0.000150664 -5.20513e-25 -0.00146877 -1.70723e-25 0)
(0.00236575 -7.06807e-05 -1.11021e-18 -0.00151081 -1.05975e-18 0)
(0.00238407 1.88937e-05 -1.25273e-19 -0.00151756 1.56912e-19 0)
(0.00238446 8.82526e-05 -1.07607e-18 -0.00152117 -7.30657e-19 0)
(0.00283597 -0.00225025 -1.18076e-18 -0.00245103 4.90711e-19 -2.10331e-36)
(0.0020105 -0.00163673 4.24199e-19 -0.00158985 4.88554e-19 0)
(0.00125881 -0.00115241 -6.34588e-19 -0.000740816 -1.44194e-19 0)
(0.000875237 -0.000873298 -1.53402e-18 -0.000368848 6.54521e-20 0)
(0.000672964 -0.000663103 1.02487e-18 -0.000151972 1.64038e-19 0)
(0.000727076 -0.000615271 2.07389e-18 -0.000236458 -6.62432e-19 0)
(0.000810231 -0.000584143 2.41878e-19 -0.000304304 -7.11794e-19 0)
(0.000940318 -0.000571129 -2.75285e-19 -0.000403206 -2.94463e-19 0)
(0.0010518 -0.00055166 -1.25102e-18 -0.000460626 -5.23334e-19 0)
(0.00117183 -0.000529142 -1.36087e-18 -0.00054543 6.30999e-20 0)
(0.00129222 -0.000496491 6.49756e-19 -0.000628349 -1.09429e-20 0)
(0.00142382 -0.000462082 6.39593e-19 -0.000750335 5.72858e-19 0)
(0.00154196 -0.000414587 -6.93712e-25 -0.000845301 -4.7856e-26 0)
(0.00165467 -0.000372717 5.91823e-19 -0.000956527 6.62592e-20 0)
(0.0017489 -0.000317592 -2.25699e-19 -0.00103708 2.24038e-19 0)
(0.00184845 -0.000266984 1.31581e-19 -0.00113595 5.12326e-19 0)
(0.00193102 -0.000201081 8.51128e-19 -0.00120558 4.27004e-19 0)
(0.00199826 -0.000145311 6.77902e-19 -0.00127366 6.29303e-19 0)
(0.00204517 -7.30304e-05 -6.6974e-19 -0.00131039 -6.34853e-19 0)
(0.00207068 -1.93774e-05 4.48036e-19 -0.00133742 1.38502e-19 0)
(0.00143767 -0.00129637 -1.10459e-18 -0.00104207 1.06702e-20 4.33743e-34)
(0.000827916 -0.000806213 -6.25983e-19 -0.000449642 4.33648e-21 0)
(0.000519494 -0.000576222 0 -6.38537e-05 0 0)
(0.000533783 -0.000526075 -7.0552e-19 -0.000143443 1.59357e-19 0)
(0.000606413 -0.000520861 -1.26482e-18 -0.000188083 -4.6396e-19 0)
(0.000729958 -0.00052939 4.1788e-19 -0.000297113 -4.15098e-19 0)
(0.000809017 -0.000540484 9.70422e-19 -0.000328179 1.82115e-19 0)
(0.000896965 -0.000542537 5.84599e-19 -0.000404104 5.6347e-19 0)
(0.000971562 -0.000518911 8.67398e-19 -0.000442239 8.35434e-19 0)
(0.00105763 -0.000493096 -6.12335e-19 -0.000519089 5.14456e-20 0)
(0.00113841 -0.000449251 -1.18615e-18 -0.000565111 8.04035e-20 0)
(0.00121516 -0.00041374 -2.19082e-20 -0.000633763 8.29489e-22 0)
(0.00128364 -0.000369762 5.39786e-19 -0.000672193 -1.34992e-20 0)
(0.00135057 -0.000334601 2.83356e-19 -0.000732216 2.64744e-19 0)
(0.0014312 -0.000289316 8.59418e-20 -0.000797334 5.16473e-19 0)
(0.00151116 -0.000250931 -4.77018e-19 -0.000883713 -3.66443e-20 0)
(0.00157744 -0.000202144 -7.92392e-21 -0.0009407 -8.21042e-22 0)
(0.00163112 -0.000163952 1.57458e-18 -0.00100181 4.45724e-19 0)
(0.00167584 -0.000112283 7.21172e-19 -0.00104199 3.41049e-19 0)
(0.00171471 -7.78254e-05 -2.33249e-19 -0.00108192 4.12728e-19 0)
(0.000651857 -0.000605402 -9.27498e-19 -0.000270052 4.25979e-19 -4.09865e-35)
(0.000410245 -0.000409554 -7.05547e-19 -6.99191e-05 2.17518e-19 0)
(0.000471762 -0.000446588 -1.37614e-19 -9.00937e-05 8.15298e-19 0)
(0.000552741 -0.000432864 2.45678e-19 -0.000192419 3.15722e-19 0)
(0.000621813 -0.000482185 1.35616e-18 -0.000195782 -3.36687e-19 0)
(0.000698719 -0.000473627 1.44193e-20 -0.000281954 -3.16231e-21 0)
(0.000761539 -0.000472063 -7.12974e-19 -0.000302466 8.42449e-19 0)
(0.000856652 -0.000461941 -9.80088e-19 -0.000395855 5.07287e-19 0)
(0.000925161 -0.000448583 8.7193e-19 -0.000429922 1.79523e-19 0)
(0.00101136 -0.000433463 8.64093e-19 -0.00051257 1.96908e-19 0)
(0.00106902 -0.000406574 8.51837e-19 -0.000545314 2.00102e-19 0)
(0.00113566 -0.000377465 -5.60598e-19 -0.000612414 -5.30835e-19 0)
(0.00118571 -0.000341294 -5.08701e-19 -0.000641906 4.10016e-20 0)
(0.00124587 -0.000306551 -7.64892e-19 -0.000699624 -2.32589e-19 0)
(0.00129736 -0.000266652 -2.88908e-19 -0.000729167 -2.53571e-19 0)
(0.00133924 -0.000231861 -3.90052e-19 -0.000772832 -7.63242e-19 0)
(0.00137392 -0.000192727 -5.38407e-19 -0.000794469 -5.02177e-19 0)
(0.00140586 -0.000161457 -3.9184e-19 -0.000829876 -4.08873e-21 0)
(0.00144465 -0.000121759 1.33216e-19 -0.000863602 4.88799e-19 0)
(0.00147952 -9.51844e-05 5.84852e-19 -0.000901307 1.52166e-19 0)
(0.000461712 -0.000372701 5.75348e-19 -9.99321e-05 4.00312e-19 4.15029e-36)
(0.000433736 -0.000360334 -1.27359e-18 -8.48197e-05 4.53713e-19 0)
(0.000508276 -0.000413113 -6.62934e-19 -0.000126742 2.14859e-19 0)
(0.000531496 -0.000389767 3.65914e-19 -0.000161108 -5.13478e-19 0)
(0.000592994 -0.000415086 2.70723e-19 -0.000193944 2.94796e-19 0)
(0.000669864 -0.000393004 -4.6155e-20 -0.000271777 7.57703e-19 0)
(0.000731669 -0.000408388 2.62538e-19 -0.000304484 2.88124e-19 0)
(0.00081297 -0.000388486 2.96593e-19 -0.000383419 -4.19348e-19 0)
(0.000875371 -0.000386479 -5.67942e-19 -0.000418857 -5.48207e-19 0)
(0.000952776 -0.00036287 -8.24687e-19 -0.000493311 -1.6665e-19 0)
(0.00101384 -0.00034808 5.05144e-19 -0.000530226 -9.09169e-20 0)
(0.00107978 -0.000323074 7.80113e-19 -0.000594231 1.87599e-19 0)
(0.00113096 -0.000301497 5.6997e-19 -0.0006257 5.17814e-19 0)
(0.0011822 -0.000274992 4.6048e-19 -0.000677178 -5.39289e-20 0)
(0.00122196 -0.00024409 1.69178e-19 -0.000703177 -3.0081e-19 0)
(0.0012598 -0.000211333 2.88033e-19 -0.000744061 2.49443e-19 0)
(0.00129221 -0.000178314 -8.94598e-19 -0.00076474 3.39601e-19 0)
(0.00132236 -0.000148074 1.49373e-19 -0.000795681 5.14057e-19 0)
(0.00135035 -0.000115419 3.59051e-19 -0.000812722 -1.99405e-20 0)
(0.00136908 -8.99545e-05 -8.10536e-19 -0.000832274 -3.57603e-19 0)
(0.000452437 -0.000359664 9.73724e-19 -9.13748e-05 1.11096e-21 4.93646e-34)
(0.000438914 -0.000351558 6.35562e-19 -7.78694e-05 -1.12515e-18 0)
(0.000491073 -0.000348608 -2.64711e-19 -0.000128893 -3.16497e-19 0)
(0.000527924 -0.000327903 -8.81949e-19 -0.000169134 -7.71956e-20 0)
(0.000592939 -0.0003488 -5.81623e-19 -0.00021459 2.08526e-19 0)
(0.000649037 -0.00033065 -1.2415e-20 -0.000272871 4.26334e-21 0)
(0.000713099 -0.000341072 -1.69661e-20 -0.000313412 -7.47338e-19 0)
(0.000779481 -0.00032502 1.11147e-18 -0.000379648 3.98184e-19 0)
(0.000840095 -0.000323826 8.16444e-19 -0.000416812 1.21627e-19 0)
(0.00090599 -0.000306388 -4.8586e-19 -0.000481465 1.27719e-19 0)
(0.000960428 -0.000294527 -4.68837e-19 -0.000514285 1.17466e-19 0)
(0.00101997 -0.000273045 -3.55243e-19 -0.000572534 7.33972e-19 0)
(0.00106838 -0.000254016 -1.67088e-20 -0.000601301 3.63684e-21 0)
(0.00111968 -0.000230428 5.51176e-19 -0.000651324 -4.18008e-19 0)
(0.00116187 -0.000207843 -1.3315e-19 -0.000675892 3.27845e-19 0)
(0.00120027 -0.000183809 4.08294e-19 -0.00071381 8.15996e-19 0)
(0.00123218 -0.000159092 -1.13248e-19 -0.000731235 3.08984e-19 0)
(0.00125822 -0.00013524 -5.29989e-19 -0.000757352 -4.85387e-19 0)
(0.00128215 -0.000107808 6.68085e-19 -0.000769914 -1.05204e-19 0)
(0.00130044 -8.68528e-05 5.78826e-19 -0.000785567 1.87509e-19 0)
(0.000402491 -0.000347591 1.96788e-18 -5.90304e-05 -1.4976e-18 -1.30992e-33)
(0.000416657 -0.000316194 6.40867e-19 -8.53648e-05 -2.95262e-19 0)
(0.000479472 -0.000305111 -8.61754e-19 -0.000139977 8.25809e-19 0)
(0.000509817 -0.000287644 1.29264e-20 -0.000177205 -5.70835e-21 0)
(0.000574498 -0.000291352 -1.13238e-18 -0.000225424 -3.55696e-19 0)
(0.000626056 -0.000277865 2.47796e-19 -0.000279118 -5.10352e-19 0)
(0.00068689 -0.000283327 -1.30297e-18 -0.000320029 1.1502e-19 0)
(0.000746846 -0.000270337 -1.00716e-18 -0.000379358 3.75248e-19 0)
(0.000803126 -0.000270759 1.50956e-18 -0.00041481 2.07048e-19 0)
(0.000862863 -0.000256222 5.61639e-19 -0.000472668 5.3753e-19 0)
(0.000913755 -0.000250064 -7.33279e-19 -0.000503175 -1.14997e-19 0)
(0.000967643 -0.000233497 9.75108e-19 -0.000554895 3.89662e-19 0)
(0.00101162 -0.000221255 1.24961e-19 -0.000579704 -1.37604e-18 0)
(0.00105712 -0.000202375 -8.06754e-19 -0.000623165 -7.53417e-19 0)
(0.00109421 -0.000184974 -1.65447e-18 -0.000642476 -1.84177e-19 0)
(0.0011309 -0.000163996 -3.47068e-25 -0.00067716 9.09319e-26 0)
(0.00116192 -0.000144458 1.62993e-19 -0.000691343 -6.55376e-19 0)
(0.00118957 -0.000123876 -4.96801e-19 -0.000716443 -4.75866e-19 0)
(0.00121526 -0.000104622 -1.12263e-18 -0.000725892 -3.06009e-19 0)
(0.00123535 -8.8783e-05 1.26366e-18 -0.000739948 2.59711e-19 0)
(0.000345581 -0.000314603 -7.5129e-19 -4.32558e-05 1.86314e-19 2.62627e-34)
(0.000384182 -0.000285853 3.151e-19 -8.64357e-05 1.25868e-18 0)
(0.000447794 -0.000262681 3.05877e-19 -0.000146074 3.05927e-19 0)
(0.000493642 -0.000246339 1.05172e-18 -0.000192996 -5.31756e-19 0)
(0.000555576 -0.000245283 2.30195e-20 -0.000242769 -1.12769e-20 0)
(0.000607575 -0.000233495 -1.99465e-19 -0.000293776 5.23889e-19 0)
(0.000665765 -0.000237266 2.92531e-19 -0.000335455 2.80197e-19 0)
(0.000720494 -0.000227181 -1.4769e-18 -0.000387813 -1.52007e-19 0)
(0.000773689 -0.000228337 -7.30243e-19 -0.000422591 -7.79804e-20 0)
(0.000827017 -0.00021806 8.40715e-19 -0.000472807 -3.46954e-19 0)
(0.000874411 -0.000214237 -9.55923e-19 -0.000501251 -3.58077e-19 0)
(0.00092311 -0.000202761 3.84137e-19 -0.000546573 -1.47798e-19 0)
(0.000964425 -0.000194308 2.4467e-18 -0.000569051 -2.19706e-19 0)
(0.00100624 -0.00018171 5.48842e-19 -0.000607476 4.87286e-19 0)
(0.00104134 -0.000169938 -1.3711e-18 -0.000624134 4.93145e-19 0)
(0.00107461 -0.0001565 -5.94839e-19 -0.000654111 -1.20704e-19 0)
(0.00110356 -0.000142807 6.52411e-20 -0.00066508 -3.4464e-19 0)
(0.00112813 -0.00012887 2.48793e-19 -0.000686282 2.30074e-19 0)
(0.00115226 -0.000114998 5.0155e-21 -0.00069265 -1.74098e-21 0)
(0.00117107 -0.000103517 -7.86836e-19 -0.000705479 5.59805e-20 0)
(0.000276487 -0.000268861 1.80354e-19 -2.42137e-05 1.41923e-19 -3.00747e-36)
(0.000334628 -0.000240142 -8.6624e-19 -8.53326e-05 1.77052e-20 0)
(0.000409073 -0.000220522 5.1161e-19 -0.000150647 -2.98897e-19 0)
(0.000459933 -0.000206608 2.12743e-19 -0.000201687 -5.9453e-19 0)
(0.000526582 -0.000202673 -8.59994e-20 -0.000254036 1.42478e-18 0)
(0.000577675 -0.000195331 -3.0489e-19 -0.000303083 -2.78687e-19 0)
(0.00063671 -0.000196713 1.42084e-19 -0.000344856 -5.10126e-19 0)
(0.000687709 -0.000191582 0 -0.000392362 0 0)
(0.000739737 -0.000192585 -5.6245e-19 -0.000425623 -5.32038e-19 0)
(0.000788297 -0.000187399 1.18516e-19 -0.000469949 -4.56821e-19 0)
(0.000833816 -0.000185596 4.5838e-19 -0.000496063 9.39802e-19 0)
(0.000877726 -0.000179328 -1.90065e-18 -0.000535507 -2.35805e-19 0)
(0.000917057 -0.000174253 5.91373e-19 -0.000555259 9.24098e-20 0)
(0.000954983 -0.000166585 1.44609e-18 -0.000588757 4.19574e-19 0)
(0.000988569 -0.00015892 5.14029e-19 -0.000602767 4.68474e-19 0)
(0.00101995 -0.000150059 3.10454e-19 -0.000629805 -1.36723e-19 0)
(0.00104835 -0.000141226 2.54284e-19 -0.000638648 2.22304e-19 0)
(0.00107295 -0.000131762 -2.80738e-19 -0.000658877 1.22473e-19 0)
(0.00109705 -0.000123317 2.17206e-19 -0.000663397 5.47572e-19 0)
(0.00111641 -0.000115635 -2.38304e-20 -0.000676388 3.26746e-19 0)
(0.000213804 -0.000213485 5.49496e-19 -1.79951e-05 -3.91899e-19 2.19618e-35)
(0.000287575 -0.000194077 1.2749e-20 -8.905e-05 -8.48745e-21 0)
(0.000368332 -0.000178624 1.17198e-20 -0.000160284 -7.72782e-21 0)
(0.000429582 -0.000170553 7.39205e-19 -0.000216855 1.4851e-18 0)
(0.000496433 -0.000168483 -3.10103e-19 -0.000270469 -2.79965e-19 0)
(0.000551589 -0.000165274 1.31738e-18 -0.000319767 -8.26143e-19 0)
(0.000608573 -0.000168405 -3.96538e-19 -0.000360986 2.43565e-19 0)
(0.000659412 -0.000166975 -3.96436e-19 -0.000405346 2.38053e-19 0)
(0.000708573 -0.000170215 -5.61526e-19 -0.000437193 -5.22063e-19 0)
(0.000754921 -0.000169017 -1.09231e-18 -0.000476871 6.27529e-19 0)
(0.000797379 -0.00016994 6.05996e-19 -0.000501104 5.9852e-20 0)
(0.000838493 -0.000168265 4.71452e-19 -0.000535676 -1.04282e-18 0)
(0.000875004 -0.000166257 -8.40745e-19 -0.00055338 -3.03127e-19 0)
(0.000910129 -0.000163884 -4.32906e-20 -0.000582304 3.9415e-19 0)
(0.000941392 -0.000159414 -3.51646e-20 -0.000594271 3.81955e-19 0)
(0.000970022 -0.000156241 -2.61071e-19 -0.000617156 -2.1633e-19 0)
(0.00099684 -0.000150516 2.67208e-19 -0.000624117 -1.41219e-19 0)
(0.0010191 -0.000146134 -1.45312e-20 -0.000641114 3.45592e-19 0)
(0.00104229 -0.000141197 -7.41117e-19 -0.000643677 -2.73043e-19 0)
(0.00105951 -0.000136422 -2.38889e-19 -0.000655121 -2.00355e-19 0)
(0.00015081 -0.000144571 -1.72115e-19 -1.89228e-05 -1.41605e-19 1.48472e-36)
(0.000235729 -0.00013629 -5.12016e-19 -9.65878e-05 3.84702e-19 0)
(0.000323724 -0.000130678 -8.07256e-19 -0.000170233 1.64756e-18 0)
(0.000389993 -0.000129398 1.15261e-18 -0.000228692 -3.36922e-19 0)
(0.00046106 -0.000131656 2.68379e-19 -0.000283317 -1.18835e-18 0)
(0.000516769 -0.000133929 -1.27422e-19 -0.000330759 5.73708e-19 0)
(0.000575838 -0.000139048 6.5752e-19 -0.000371888 8.04704e-21 0)
(0.000624411 -0.000142619 7.33792e-19 -0.000411994 -5.05407e-19 0)
(0.000674478 -0.000147397 2.89127e-19 -0.00044311 2.46883e-19 0)
(0.000716958 -0.000150921 -9.4793e-19 -0.00047723 2.01379e-19 0)
(0.00075997 -0.000153838 -4.87083e-19 -0.000500574 -9.35328e-19 0)
(0.000796512 -0.000156583 2.68958e-19 -0.000529141 2.32047e-19 0)
(0.000833744 -0.00015739 -8.59061e-19 -0.000546126 1.56247e-19 0)
(0.000864438 -0.000159011 -5.4695e-19 -0.000569428 -3.89541e-20 0)
(0.000896608 -0.000158237 2.7837e-19 -0.000580832 -5.52507e-19 0)
(0.00092192 -0.000158696 5.2568e-19 -0.000599416 -3.27002e-19 0)
(0.000948954 -0.000156941 -4.9146e-19 -0.000605305 3.08139e-19 0)
(0.000970115 -0.000156676 2.33065e-19 -0.000620293 -1.44023e-19 0)
(0.000993104 -0.000155017 1.06603e-21 -0.00062173 -3.42742e-19 0)
(0.00100989 -0.000153489 -6.71436e-19 -0.000633216 8.26287e-20 0)
(0.000100625 -7.66395e-05 -1.52712e-19 -3.13342e-05 -1.52889e-19 -2.95497e-36)
(0.000192428 -8.09007e-05 -1.09201e-18 -0.000110914 1.47546e-18 0)
(0.000283296 -8.6373e-05 -7.53036e-19 -0.000186504 8.58581e-20 0)
(0.000354519 -9.34348e-05 3.83568e-19 -0.000245487 -1.89993e-18 0)
(0.000425594 -0.000102914 2.95425e-19 -0.000300213 2.74241e-19 0)
(0.00048379 -0.000110838 -5.73996e-19 -0.000346275 -5.39481e-19 0)
(0.000541234 -0.000121482 7.67986e-21 -0.000386528 -6.04329e-21 0)
(0.000590295 -0.000129096 -6.2313e-19 -0.000423742 1.23631e-20 0)
(0.000637916 -0.000138798 1.1501e-18 -0.000453571 4.92771e-19 0)
(0.000679759 -0.000145509 3.16264e-19 -0.000484054 -2.3745e-19 0)
(0.000719954 -0.00015313 -2.91321e-19 -0.00050601 2.16229e-19 0)
(0.000755534 -0.000158773 1.07605e-18 -0.000530908 4.65557e-19 0)
(0.000789914 -0.000163931 2.03811e-20 -0.000546653 -4.21541e-19 0)
(0.000819651 -0.000168797 -5.07428e-19 -0.000566545 -3.17374e-20 0)
(0.00084955 -0.000171465 -1.2499e-18 -0.000577366 -2.64564e-19 0)
(0.000873169 -0.000176547 -2.47777e-19 -0.000592079 1.73665e-19 0)
(0.000900211 -0.000176603 7.14214e-19 -0.000599487 2.28103e-19 0)
(0.000918091 -0.000180806 -7.14697e-19 -0.000610847 -5.65941e-19 0)
(0.000942634 -0.000180834 4.64593e-19 -0.000613565 3.70969e-19 0)
(0.000951871 -0.000183205 1.08275e-18 -0.000620468 1.87288e-19 0)
(5.7089e-05 1.9943e-06 -7.73893e-19 -5.60782e-05 1.03827e-18 -4.67729e-34)
(0.000152855 -1.67782e-05 -1.5835e-19 -0.000134807 7.25879e-19 0)
(0.000246144 -3.46117e-05 -4.62496e-19 -0.000208461 -1.25263e-18 0)
(0.000319471 -5.09788e-05 2.93459e-19 -0.000265853 2.75581e-19 0)
(0.000392115 -6.80271e-05 3.55832e-19 -0.000318949 -3.25053e-19 0)
(0.000450427 -8.24452e-05 7.58948e-21 -0.000362153 -6.83841e-21 0)
(0.00050884 -9.78101e-05 -2.90482e-19 -0.000400973 -2.44536e-19 0)
(0.000556379 -0.000110342 -2.6388e-20 -0.000434172 5.10249e-19 0)
(0.000604809 -0.000123246 -3.03279e-19 -0.000462888 2.62845e-19 0)
(0.000643831 -0.000133864 5.47484e-19 -0.000488408 -9.41427e-21 0)
(0.000685287 -0.000144038 -5.45914e-19 -0.000509888 4.62899e-19 0)
(0.000716891 -0.00015269 7.70378e-19 -0.000528979 2.19797e-19 0)
(0.000753824 -0.000160527 1.00394e-18 -0.000545383 8.30029e-21 0)
(0.000778387 -0.000167048 4.82775e-19 -0.00055865 1.04584e-20 0)
(0.00081335 -0.000173894 4.78124e-19 -0.000571988 6.76193e-21 0)
(0.000830649 -0.00017774 -8.78105e-19 -0.00057955 3.3093e-19 0)
(0.000862486 -0.000183033 2.02604e-19 -0.000590666 -1.66236e-19 0)
(0.000876086 -0.000186439 -3.21722e-20 -0.000593621 -3.42058e-19 0)
(0.000908738 -0.000194466 -1.00844e-19 -0.000603353 8.09946e-19 0)
(0.000916252 -0.000191916 6.11129e-19 -0.00060529 1.51676e-19 0)
(2.7212e-05 7.33819e-05 1.30809e-19 -9.00173e-05 1.62415e-19 -2.83356e-36)
(0.000122604 4.18532e-05 1.19554e-19 -0.000163859 -7.22713e-19 0)
(0.000213386 1.09263e-05 -7.70118e-20 -0.000234213 6.6108e-19 0)
(0.0002869 -1.40949e-05 5.65855e-19 -0.000287657 5.42968e-19 0)
(0.000356881 -4.08468e-05 6.27207e-19 -0.000337954 -9.05443e-20 0)
(0.000415048 -6.08672e-05 3.1001e-19 -0.000377218 -3.12106e-19 0)
(0.000470438 -8.41531e-05 -5.66681e-19 -0.000413495 4.44447e-20 0)
(0.000517323 -9.99115e-05 -5.83632e-19 -0.000442503 5.71363e-19 0)
(0.000562319 -0.000120176 8.6465e-21 -0.000468861 -4.93139e-19 0)
(0.000600443 -0.000131961 -2.70743e-19 -0.000490111 -6.80989e-19 0)
(0.000637855 -0.000149825 -2.30867e-19 -0.000509279 6.72175e-19 0)
(0.000668945 -0.000157528 -7.47018e-19 -0.000524557 -1.84607e-19 0)
(0.000700615 -0.000173978 9.55502e-19 -0.000538284 -2.18449e-20 0)
(0.000726254 -0.000176968 0 -0.000549319 0 0)
(0.000753286 -0.000193418 -7.61923e-21 -0.000558605 6.893e-21 0)
(0.000777012 -0.000193558 1.11736e-20 -0.000566508 1.2952e-19 0)
(0.000798437 -0.000208511 -5.10983e-19 -0.000572988 -6.86894e-19 0)
(0.00081674 -0.000202008 -1.27224e-19 -0.000577295 4.90015e-19 0)
(0.000839659 -0.000218693 -4.02873e-19 -0.000585458 -2.62531e-21 0)
(0.000860484 -0.000216517 1.09365e-19 -0.000584847 -4.61251e-19 0)
(8.10285e-06 0.000149842 0 -0.000137831 0 0)
(0.000101855 0.000104354 -8.18833e-20 -0.000205865 7.17686e-19 0)
(0.00018992 6.10539e-05 -6.97123e-19 -0.000269991 8.25244e-19 0)
(0.000262449 2.64236e-05 -5.6633e-19 -0.000319011 -5.11449e-19 0)
(0.000330194 -9.03941e-06 1.17531e-18 -0.000364404 -7.77703e-19 0)
(0.000387685 -3.58186e-05 5.8033e-19 -0.000400069 -6.56898e-19 0)
(0.00044093 -6.54262e-05 -5.87083e-21 -0.000432244 6.52295e-21 0)
(0.000487506 -8.61275e-05 -5.15038e-19 -0.000458367 4.8603e-20 0)
(0.00053015 -0.000111217 2.46948e-19 -0.000481042 -2.66839e-19 0)
(0.000568626 -0.000126898 -2.24052e-19 -0.000500263 2.40496e-19 0)
(0.000603144 -0.000148538 5.55328e-20 -0.000515824 8.83147e-19 0)
(0.00063561 -0.000159853 -9.96658e-19 -0.00053014 -7.80653e-19 0)
(0.000663327 -0.000178873 2.44227e-19 -0.000539933 1.90404e-19 0)
(0.000691562 -0.000186306 5.77694e-19 -0.000551056 -5.97774e-19 0)
(0.00071271 -0.000202934 -6.59328e-19 -0.000555536 -1.63901e-19 0)
(0.000738424 -0.0002071 -3.16008e-21 -0.000565078 3.23695e-21 0)
(0.000756092 -0.00022411 5.78716e-19 -0.000564733 -1.88002e-19 0)
(0.000777056 -0.000222131 2.89833e-19 -0.000573516 4.78037e-19 0)
(0.000789614 -0.000237068 -3.70418e-19 -0.000569487 -2.27094e-21 0)
(0.000810506 -0.000242598 -6.47253e-21 -0.0005695 1.32074e-19 0)
(7.84362e-07 0.000216955 -4.76546e-19 -0.000192818 3.04863e-19 1.96552e-34)
(8.89991e-05 0.000160166 -4.93831e-19 -0.000251196 -1.25051e-18 0)
(0.000169877 0.000105111 6.24872e-19 -0.000307226 -8.33931e-19 0)
(0.000239114 6.26137e-05 -8.0796e-19 -0.000349162 -1.4929e-19 0)