/*--------------------------------*- C++ -*----------------------------------*\
| =========                 |                                                 |
| \\      /  F ield         | OpenFOAM: The Open Source CFD Toolbox           |
|  \\    /   O peration     | Version:  v2012                                 |
|   \\  /    A nd           | Website:  www.openfoam.com                      |
|    \\/     M anipulation  |                                                 |
\*---------------------------------------------------------------------------*/
FoamFile
{
    version     2.0;
    format      ascii;
    class       volVectorField;
    location    "7";
    object      D_0;
}
// * * * * * * * * * * * * * * * * * * * * * * * * * * * * * * * * * * * * * //

dimensions      [0 1 0 0 0 0 0];


internalField   nonuniform List<vector> 
2000
(
(0.000104615 -0.00144124 0)
(0.000173504 -0.00145672 0)
(8.73084e-05 -0.00151744 0)
(0.000143871 -0.00152688 0)
(7.12957e-05 -0.00156812 0)
(0.000120417 -0.00156995 0)
(5.65213e-05 -0.00159709 0)
(0.000102883 -0.00159622 0)
(4.84252e-05 -0.00161818 0)
(9.35648e-05 -0.00161822 0)
(4.48585e-05 -0.00163545 0)
(8.86129e-05 -0.00163565 0)
(4.28107e-05 -0.00165059 0)
(8.53039e-05 -0.00165028 0)
(4.10977e-05 -0.00166459 0)
(8.25045e-05 -0.00166351 0)
(3.94656e-05 -0.00167785 0)
(7.98685e-05 -0.00167606 0)
(3.81034e-05 -0.00169049 0)
(7.72791e-05 -0.00168829 0)
(0.000326354 -0.00142976 0)
(0.000381564 -0.00144447 0)
(0.000295892 -0.00149282 0)
(0.00034308 -0.00149649 0)
(0.000263183 -0.00153391 0)
(0.00030309 -0.00152573 0)
(0.000231704 -0.00155926 0)
(0.000271729 -0.00154953 0)
(0.000209528 -0.00158048 0)
(0.000249817 -0.00156962 0)
(0.00019417 -0.00159783 0)
(0.000234763 -0.00158646 0)
(0.000183366 -0.00161283 0)
(0.00022402 -0.00160103 0)
(0.00017546 -0.0016266 0)
(0.00021588 -0.00161409 0)
(0.000169337 -0.00163973 0)
(0.000209221 -0.00162613 0)
(0.000164265 -0.00165252 0)
(0.000203195 -0.00163735 0)
(0.000553647 -0.00140466 0)
(0.000600882 -0.00140728 0)
(0.000500801 -0.00145121 0)
(0.00053706 -0.00143802 0)
(0.000446202 -0.001475 0)
(0.000482022 -0.00145743 0)
(0.00040377 -0.0014958 0)
(0.000440526 -0.00147624 0)
(0.000372142 -0.00151354 0)
(0.000410148 -0.00149275 0)
(0.000348387 -0.00152879 0)
(0.000387555 -0.00150717 0)
(0.00033033 -0.0015424 0)
(0.000370345 -0.00151999 0)
(0.000316402 -0.00155498 0)
(0.000356893 -0.00153162 0)
(0.000305392 -0.00156691 0)
(0.000345985 -0.00154225 0)
(0.000296304 -0.00157842 0)
(0.000336605 -0.00155193 0)
(0.000758278 -0.00136399 0)
(0.000791914 -0.00134751 0)
(0.000685093 -0.00138238 0)
(0.00071696 -0.00136009 0)
(0.000623897 -0.00139876 0)
(0.000657174 -0.0013736 0)
(0.000575649 -0.00141341 0)
(0.000610829 -0.00138587 0)
(0.000537691 -0.00142605 0)
(0.000574861 -0.00139688 0)
(0.000507712 -0.00143727 0)
(0.000546664 -0.0014069 0)
(0.000483963 -0.00144755 0)
(0.000524349 -0.00141611 0)
(0.000465039 -0.00145717 0)
(0.000506474 -0.00142458 0)
(0.000449748 -0.00146631 0)
(0.000491853 -0.00143232 0)
(0.000437011 -0.00147506 0)
(0.000479442 -0.00143922 0)
(0.000940122 -0.00129597 0)
(0.000969148 -0.00127101 0)
(0.000863356 -0.00130344 0)
(0.000893668 -0.0012755 0)
(0.000799698 -0.00131124 0)
(0.000832041 -0.00127946 0)
(0.00074772 -0.00131805 0)
(0.000782516 -0.00128342 0)
(0.000705464 -0.00132403 0)
(0.000742756 -0.00128756 0)
(0.00067118 -0.00132961 0)
(0.000710729 -0.00129184 0)
(0.000643394 -0.001335 0)
(0.000684836 -0.00129612 0)
(0.000620823 -0.00134026 0)
(0.000663766 -0.00130024 0)
(0.000602322 -0.00134538 0)
(0.000646405 -0.00130405 0)
(0.000586817 -0.00135029 0)
(0.000631758 -0.00130735 0)
(0.00112309 -0.00122048 0)
(0.00115116 -0.00118797 0)
(0.00104126 -0.00121697 0)
(0.00107089 -0.00118114 0)
(0.000974391 -0.0012148 0)
(0.00100665 -0.00117573 0)
(0.00091978 -0.00121286 0)
(0.000955013 -0.00117155 0)
(0.000874995 -0.00121136 0)
(0.000913128 -0.0011686 0)
(0.000838218 -0.00121048 0)
(0.000878957 -0.00116666 0)
(0.000808028 -0.0012102 0)
(0.000850995 -0.00116546 0)
(0.000783215 -0.00121039 0)
(0.000828027 -0.00116473 0)
(0.000762689 -0.00121088 0)
(0.000809019 -0.0011642 0)
(0.000745432 -0.00121149 0)
(0.000793061 -0.00116359 0)
(0.00130248 -0.00113925 0)
(0.00132945 -0.00110041 0)
(0.00121784 -0.00112381 0)
(0.00124731 -0.00108129 0)
(0.00114903 -0.00111132 0)
(0.00118181 -0.00106597 0)
(0.00109292 -0.00110054 0)
(0.00112913 -0.00105357 0)
(0.00104687 -0.00109144 0)
(0.0010863 -0.00104358 0)
(0.00100895 -0.00108397 0)
(0.00105123 -0.00103551 0)
(0.000977693 -0.00107788 0)
(0.00102243 -0.0010289 0)
(0.00095187 -0.00107289 0)
(0.000998699 -0.00102334 0)
(0.000930408 -0.0010687 0)
(0.00097905 -0.00101851 0)
(0.000912325 -0.00106498 0)
(0.000962636 -0.00101405 0)
(0.00147511 -0.00105349 0)
(0.00150147 -0.00100938 0)
(0.00139078 -0.00102608 0)
(0.00142059 -0.000978408 0)
(0.0013223 -0.00100352 0)
(0.001356 -0.000953573 0)
(0.00126644 -0.000984256 0)
(0.00130394 -0.000933303 0)
(0.00122059 -0.000967909 0)
(0.00126152 -0.000916608 0)
(0.00118282 -0.000954116 0)
(0.00122676 -0.000902684 0)
(0.00115167 -0.000942437 0)
(0.00119819 -0.000890895 0)
(0.00112595 -0.000932452 0)
(0.00117467 -0.000880759 0)
(0.00110461 -0.000923799 0)
(0.0011553 -0.000871894 0)
(0.00108667 -0.00091612 0)
(0.00113929 -0.000863901 0)
(0.00163884 -0.00096488 0)
(0.00166499 -0.000916915 0)
(0.00155803 -0.00092652 0)
(0.00158848 -0.00087534 0)
(0.00149223 -0.000894724 0)
(0.001527 -0.000841925 0)
(0.00143845 -0.000867727 0)
(0.00147721 -0.000814568 0)
(0.00139429 -0.000844776 0)
(0.00143659 -0.000791846 0)
(0.00135796 -0.000825257 0)
(0.00140336 -0.000772653 0)
(0.00132801 -0.00080855 0)
(0.00137615 -0.000756101 0)
(0.00130318 -0.000794043 0)
(0.00135377 -0.000741503 0)
(0.00128241 -0.000781121 0)
(0.00133525 -0.000728423 0)
(0.00126494 -0.000769113 0)
(0.00132005 -0.000716752 0)
(0.00179191 -0.000875079 0)
(0.00181808 -0.000824745 0)
(0.00171756 -0.000827592 0)
(0.00174868 -0.000774577 0)
(0.00165664 -0.000788069 0)
(0.00169235 -0.000734076 0)
(0.00160654 -0.000754582 0)
(0.00164629 -0.00070079 0)
(0.00156522 -0.000726054 0)
(0.00160844 -0.000673026 0)
(0.00153125 -0.00070165 0)
(0.00157742 -0.000649563 0)
(0.00150355 -0.000680726 0)
(0.00155223 -0.000629479 0)
(0.00148118 -0.000662863 0)
(0.00153216 -0.000612014 0)
(0.00146322 -0.000647844 0)
(0.00151661 -0.000596472 0)
(0.00144857 -0.000635575 0)
(0.00150496 -0.000582153 0)
(0.00193305 -0.000785423 0)
(0.00195927 -0.000734156 0)
(0.00186753 -0.000731089 0)
(0.00189911 -0.000677896 0)
(0.00181348 -0.000685742 0)
(0.00184971 -0.000632286 0)
(0.00176868 -0.000647432 0)
(0.00180887 -0.000594694 0)
(0.00173145 -0.000614868 0)
(0.00177499 -0.000563205 0)
(0.00170057 -0.000586995 0)
(0.00174688 -0.000536431 0)
(0.0016752 -0.000562969 0)
(0.0017237 -0.000513378 0)
(0.00165504 -0.000542314 0)
(0.00170497 -0.000493405 0)
(0.00164039 -0.000525322 0)
(0.00169049 -0.000476424 0)
(0.00163123 -0.0005136 0)
(0.00167942 -0.000463592 0)
(0.00206142 -0.000696729 0)
(0.00208763 -0.000645785 0)
(0.00200632 -0.000638112 0)
(0.00203807 -0.000586129 0)
(0.00196056 -0.000589023 0)
(0.00199681 -0.000537569 0)
(0.00192239 -0.000547553 0)
(0.00196232 -0.000497444 0)
(0.0018906 -0.00051231 0)
(0.00193357 -0.000463782 0)
(0.00186433 -0.000482221 0)
(0.00190981 -0.000435138 0)
(0.00184291 -0.000456497 0)
(0.00189048 -0.000410342 0)
(0.00182595 -0.000434585 0)
(0.00187513 -0.000388354 0)
(0.00181321 -0.000416105 0)
(0.00186304 -0.000368631 0)
(0.00180391 -0.000400965 0)
(0.00185208 -0.00035231 0)
(0.00217621 -0.000609463 0)
(0.00220217 -0.000560022 0)
(0.00213247 -0.000549364 0)
(0.00216391 -0.00049976 0)
(0.00209585 -0.000498835 0)
(0.00213146 -0.000450471 0)
(0.00206501 -0.000456119 0)
(0.00210395 -0.000409574 0)
(0.00203917 -0.000419794 0)
(0.00208082 -0.000375125 0)
(0.00201782 -0.00038875 0)
(0.00206169 -0.000345699 0)
(0.00200061 -0.000362173 0)
(0.00204626 -0.000320142 0)
(0.00198736 -0.000339477 0)
(0.00203431 -0.000297466 0)
(0.00197782 -0.000320298 0)
(0.00202515 -0.000277216 0)
(0.00197089 -0.000305021 0)
(0.00201665 -0.000260224 0)
(0.0022766 -0.000524065 0)
(0.00230183 -0.000477193 0)
(0.00224447 -0.000465354 0)
(0.00227492 -0.000419101 0)
(0.00221721 -0.000415743 0)
(0.00225137 -0.00037131 0)
(0.00219391 -0.000373722 0)
(0.00223092 -0.000331481 0)
(0.00217424 -0.00033796 0)
(0.00221353 -0.000297826 0)
(0.00215802 -0.00030742 0)
(0.00219912 -0.000269036 0)
(0.00214509 -0.000281346 0)
(0.00218765 -0.000244053 0)
(0.0021354 -0.00025917 0)
(0.00217906 -0.000221966 0)
(0.00212876 -0.000240585 0)
(0.00217277 -0.00020231 0)
(0.00212414 -0.000226104 0)
(0.00216672 -0.000185785 0)
(0.00236203 -0.000440828 0)
(0.00238592 -0.000397388 0)
(0.00234115 -0.000386187 0)
(0.0023698 -0.000344062 0)
(0.002323 -0.000339751 0)
(0.00235479 -0.000299897 0)
(0.00230705 -0.000300325 0)
(0.00234116 -0.000262915 0)
(0.00229338 -0.000266749 0)
(0.00232929 -0.000231578 0)
(0.00228211 -0.000238112 0)
(0.00231944 -0.000204759 0)
(0.00227328 -0.000213749 0)
(0.00231177 -0.00018153 0)
(0.00226695 -0.00019317 0)
(0.00230638 -0.000161048 0)
(0.00226301 -0.000176132 0)
(0.00230282 -0.000142823 0)
(0.00226049 -0.00016311 0)
(0.00229904 -0.000127376 0)
(0.00243231 -0.000359797 0)
(0.00245422 -0.000320385 0)
(0.00242172 -0.000311558 0)
(0.00244779 -0.000274073 0)
(0.00241196 -0.000270307 0)
(0.00244051 -0.000235425 0)
(0.0024028 -0.000235192 0)
(0.00243309 -0.000202883 0)
(0.00239467 -0.000205276 0)
(0.00242628 -0.00017522 0)
(0.00238794 -0.000179807 0)
(0.0024206 -0.000151536 0)
(0.00238283 -0.000158237 0)
(0.00241638 -0.000131053 0)
(0.00237952 -0.00014017 0)
(0.00241386 -0.000113025 0)
(0.00237798 -0.000125405 0)
(0.00241272 -9.69527e-05 0)
(0.00237727 -0.000114341 0)
(0.00241097 -8.31484e-05 0)
(0.00248753 -0.000280741 0)
(0.00250684 -0.000245726 0)
(0.00248576 -0.000240816 0)
(0.00250851 -0.000208239 0)
(0.00248324 -0.000206479 0)
(0.00250774 -0.000176681 0)
(0.00247995 -0.000177178 0)
(0.00250559 -0.000149919 0)
(0.00247661 -0.000152217 0)
(0.0025031 -0.000127088 0)
(0.00247381 -0.00013102 0)
(0.00250099 -0.00010754 0)
(0.00247191 -0.00011317 0)
(0.00249973 -9.06593e-05 0)
(0.00247118 -9.83618e-05 0)
(0.00249967 -7.58023e-05 0)
(0.00247162 -8.64256e-05 0)
(0.00250056 -6.24808e-05 0)
(0.00247239 -7.76585e-05 0)
(0.00250053 -5.07883e-05 0)
(0.00252789 -0.000203091 0)
(0.00254389 -0.000172741 0)
(0.00253299 -0.000173193 0)
(0.00255169 -0.000145538 0)
(0.00253619 -0.00014727 0)
(0.00255587 -0.000122341 0)
(0.00253756 -0.000125055 0)
(0.00255781 -0.000102435 0)
(0.00253808 -0.000106095 0)
(0.00255876 -8.5365e-05 0)
(0.00253848 -9.00193e-05 0)
(0.00255951 -7.07462e-05 0)
(0.00253922 -7.65899e-05 0)
(0.00256064 -5.81484e-05 0)
(0.00254059 -6.5622e-05 0)
(0.00256256 -4.70728e-05 0)
(0.00254265 -5.69506e-05 0)
(0.0025651 -3.70559e-05 0)
(0.0025446 -5.06881e-05 0)
(0.00256654 -2.7942e-05 0)
(0.00255279 -0.000125933 0)
(0.00256448 -0.000100728 0)
(0.00256287 -0.000108097 0)
(0.00257642 -8.52767e-05 0)
(0.0025702 -9.18137e-05 0)
(0.00258422 -7.13961e-05 0)
(0.00257511 -7.75218e-05 0)
(0.00258935 -5.90613e-05 0)
(0.00257867 -6.52138e-05 0)
(0.00259302 -4.83202e-05 0)
(0.00258164 -5.47885e-05 0)
(0.00259603 -3.90646e-05 0)
(0.00258451 -4.61966e-05 0)
(0.00259897 -3.11052e-05 0)
(0.00258767 -3.94096e-05 0)
(0.00260235 -2.42039e-05 0)
(0.00259122 -3.43352e-05 0)
(0.00260611 -1.80845e-05 0)
(0.00259441 -3.08906e-05 0)
(0.00260881 -1.24034e-05 0)
(0.00255949 -4.98169e-05 0)
(0.00256588 -3.07585e-05 0)
(0.00257409 -4.41424e-05 0)
(0.00258186 -2.7214e-05 0)
(0.00258511 -3.78696e-05 0)
(0.00259307 -2.25722e-05 0)
(0.00259331 -3.20932e-05 0)
(0.002601 -1.8018e-05 0)
(0.00259979 -2.71542e-05 0)
(0.00260699 -1.40106e-05 0)
(0.00260522 -2.31376e-05 0)
(0.00261192 -1.05721e-05 0)
(0.00261009 -2.00545e-05 0)
(0.00261645 -7.61022e-06 0)
(0.00261482 -1.7805e-05 0)
(0.00262113 -5.00983e-06 0)
(0.00261967 -1.60316e-05 0)
(0.0026259 -2.60383e-06 0)
(0.00262434 -1.41574e-05 0)
(0.0026296 -9.54232e-08 0)
(0.00263378 -4.56833e-06 0)
(0.00263576 -4.55136e-06 0)
(0.00261424 -1.54712e-05 0)
(0.00261141 -1.44857e-05 0)
(0.00257406 -3.01039e-05 0)
(0.00256702 -2.90573e-05 0)
(0.00251199 -5.01762e-05 0)
(0.00250114 -4.9427e-05 0)
(0.00242771 -7.8335e-05 0)
(0.00241365 -7.78834e-05 0)
(0.00232191 -0.000117292 0)
(0.00230556 -0.000116989 0)
(0.00219617 -0.000169406 0)
(0.00217862 -0.000169027 0)
(0.00205276 -0.000236476 0)
(0.00203516 -0.000235669 0)
(0.00189511 -0.000319978 0)
(0.00187812 -0.000317983 0)
(0.00172882 -0.000425226 0)
(0.00171239 -0.000419868 0)
(0.00264409 -4.01119e-06 0)
(0.00264546 -5.61262e-06 0)
(0.00262731 -1.4114e-05 0)
(0.00262498 -1.59605e-05 0)
(0.00259142 -2.64448e-05 0)
(0.00258574 -2.89232e-05 0)
(0.00253605 -4.29347e-05 0)
(0.00252761 -4.60713e-05 0)
(0.00246145 -6.5484e-05 0)
(0.00245092 -6.90672e-05 0)
(0.00236833 -9.63173e-05 0)
(0.00235636 -0.000100001 0)
(0.00225794 -0.000137798 0)
(0.00224518 -0.000141162 0)
(0.00213204 -0.000192399 0)
(0.00211919 -0.000194913 0)
(0.0019919 -0.000262089 0)
(0.0019799 -0.000263145 0)
(0.00183672 -0.00034591 0)
(0.00182647 -0.000345345 0)
(0.00265822 -3.01055e-06 0)
(0.0026619 -6.49844e-06 0)
(0.00264384 -1.18974e-05 0)
(0.00264415 -1.58135e-05 0)
(0.00261169 -2.22389e-05 0)
(0.00260917 -2.67748e-05 0)
(0.00256191 -3.57868e-05 0)
(0.00255714 -4.08547e-05 0)
(0.00249508 -5.40756e-05 0)
(0.00248868 -5.94716e-05 0)
(0.00241198 -7.88422e-05 0)
(0.00240454 -8.42402e-05 0)
(0.00231346 -0.000112022 0)
(0.00230552 -0.00011699 0)
(0.00220015 -0.00015536 0)
(0.0021922 -0.00015945 0)
(0.0020723 -0.000209637 0)
(0.00206482 -0.000212496 0)
(0.00193225 -0.000274316 0)
(0.00192549 -0.000275471 0)
(0.00267839 -1.82108e-06 0)
(0.00268444 -6.81683e-06 0)
(0.00266613 -9.32308e-06 0)
(0.00266896 -1.44616e-05 0)
(0.00263726 -1.79385e-05 0)
(0.00263746 -2.34651e-05 0)
(0.00259233 -2.91008e-05 0)
(0.00259047 -3.4973e-05 0)
(0.00253198 -4.40515e-05 0)
(0.00252864 -5.01257e-05 0)
(0.00245689 -6.40724e-05 0)
(0.00245264 -7.01318e-05 0)
(0.00236768 -9.04237e-05 0)
(0.002363 -9.62039e-05 0)
(0.00226501 -0.000124197 0)
(0.00226026 -0.000129411 0)
(0.00215033 -0.000166446 0)
(0.00214576 -0.000170652 0)
(0.0020263 -0.000218437 0)
(0.00202222 -0.000220997 0)
(0.00270378 -9.73911e-07 0)
(0.00271168 -6.72821e-06 0)
(0.00269326 -7.32978e-06 0)
(0.00269808 -1.30141e-05 0)
(0.0026673 -1.46513e-05 0)
(0.00266956 -2.05417e-05 0)
(0.00262661 -2.40945e-05 0)
(0.00262686 -3.02278e-05 0)
(0.00257185 -3.65938e-05 0)
(0.00257067 -4.29151e-05 0)
(0.00250367 -5.30528e-05 0)
(0.0025016 -5.94586e-05 0)
(0.00242282 -7.43725e-05 0)
(0.00242034 -8.0707e-05 0)
(0.00233035 -0.00010153 0)
(0.00232784 -0.000107526 0)
(0.00222783 -0.000135674 0)
(0.00222561 -0.00014088 0)
(0.00211718 -0.000177885 0)
(0.00211543 -0.000181692 0)
(0.00273353 -6.30446e-07 0)
(0.00274292 -6.56182e-06 0)
(0.00272436 -6.34437e-06 0)
(0.00273083 -1.21903e-05 0)
(0.00270099 -1.29034e-05 0)
(0.00270498 -1.89104e-05 0)
(0.00266411 -2.12565e-05 0)
(0.00266614 -2.74984e-05 0)
(0.00261439 -3.21203e-05 0)
(0.00261502 -3.86007e-05 0)
(0.00255255 -4.61861e-05 0)
(0.00255232 -5.2858e-05 0)
(0.00247944 -6.41856e-05 0)
(0.00247886 -7.09261e-05 0)
(0.00239616 -8.69123e-05 0)
(0.00239568 -9.34782e-05 0)
(0.00230409 -0.000115159 0)
(0.00230401 -0.000121156 0)
(0.00220484 -0.000149618 0)
(0.00220527 -0.0001545 0)
(0.00276728 -6.67866e-07 0)
(0.00277802 -6.50541e-06 0)
(0.00275917 -6.28896e-06 0)
(0.00276714 -1.21338e-05 0)
(0.00273809 -1.26133e-05 0)
(0.00274371 -1.86676e-05 0)
(0.00270468 -2.04402e-05 0)
(0.00270842 -2.67772e-05 0)
(0.0026596 -3.03645e-05 0)
(0.002662 -3.7e-05 0)
(0.00260357 -4.29501e-05 0)
(0.00260517 -4.9848e-05 0)
(0.00253744 -5.87725e-05 0)
(0.00253875 -6.58245e-05 0)
(0.00246229 -7.84015e-05 0)
(0.00246374 -8.54018e-05 0)
(0.00237939 -0.000102368 0)
(0.00238127 -0.000108988 0)
(0.00229018 -0.000131162 0)
(0.00229261 -0.00013694 0)
(0.00280492 -9.23071e-07 0)
(0.00281695 -6.60589e-06 0)
(0.00279766 -6.89769e-06 0)
(0.00280707 -1.26941e-05 0)
(0.00277862 -1.34331e-05 0)
(0.0027858 -1.95096e-05 0)
(0.00274835 -2.12084e-05 0)
(0.00275377 -2.76276e-05 0)
(0.00270749 -3.07383e-05 0)
(0.00271165 -3.7509e-05 0)
(0.00265672 -4.2493e-05 0)
(0.00266014 -4.95761e-05 0)
(0.0025969 -5.69259e-05 0)
(0.00260005 -6.42232e-05 0)
(0.00252902 -7.44604e-05 0)
(0.00253232 -8.17982e-05 0)
(0.00245428 -9.54756e-05 0)
(0.00245801 -0.000102584 0)
(0.00237396 -0.000120302 0)
(0.00237826 -0.000126805 0)
(0.00284635 -1.28477e-06 0)
(0.00285962 -6.83721e-06 0)
(0.0028398 -7.91375e-06 0)
(0.00285058 -1.36575e-05 0)
(0.00282255 -1.4983e-05 0)
(0.00283124 -2.10593e-05 0)
(0.00279511 -2.30687e-05 0)
(0.00280215 -2.95344e-05 0)
(0.00275805 -3.26207e-05 0)
(0.00276393 -3.94807e-05 0)
(0.00271206 -4.40381e-05 0)
(0.00271724 -5.12528e-05 0)
(0.00265792 -5.76947e-05 0)
(0.00266285 -6.51728e-05 0)
(0.0025966 -7.39297e-05 0)
(0.00260166 -8.15199e-05 0)
(0.00252914 -9.30129e-05 0)
(0.00253463 -0.0001005 0)
(0.00245667 -0.000115115 0)
(0.00246275 -0.000122221 0)
(0.0028914 -1.68633e-06 0)
(0.00290585 -7.1488e-06 0)
(0.00288546 -9.13817e-06 0)
(0.00289754 -1.48329e-05 0)
(0.00286981 -1.69386e-05 0)
(0.00287992 -2.29891e-05 0)
(0.0028449 -2.55795e-05 0)
(0.00285347 -3.20429e-05 0)
(0.00281127 -3.54584e-05 0)
(0.00281876 -4.23433e-05 0)
(0.00276957 -4.69182e-05 0)
(0.00277642 -5.41916e-05 0)
(0.00272055 -6.02628e-05 0)
(0.00272718 -6.78466e-05 0)
(0.00266511 -7.57514e-05 0)
(0.00267187 -8.35176e-05 0)
(0.00260419 -9.35846e-05 0)
(0.00261137 -0.000101351 0)
(0.00253878 -0.000113882 0)
(0.00254656 -0.000121416 0)
(0.00293986 -2.08359e-06 0)
(0.00295542 -7.48651e-06 0)
(0.00293447 -1.04187e-05 0)
(0.00294777 -1.60596e-05 0)
(0.00292025 -1.90378e-05 0)
(0.00293169 -2.50285e-05 0)
(0.00289761 -2.83672e-05 0)
(0.00290762 -3.47697e-05 0)
(0.00286707 -3.87623e-05 0)
(0.00287607 -4.55936e-05 0)
(0.00282922 -5.05212e-05 0)
(0.00283764 -5.77588e-05 0)
(0.0027848 -6.38931e-05 0)
(0.00279302 -7.14771e-05 0)
(0.00273462 -7.90716e-05 0)
(0.00274299 -8.69042e-05 0)
(0.00267958 -9.61915e-05 0)
(0.00268838 -0.000104131 0)
(0.00262062 -0.000115353 0)
(0.00263005 -0.000123198 0)
(0.00299151 -2.44237e-06 0)
(0.00300809 -7.79764e-06 0)
(0.0029866 -1.163e-05 0)
(0.00300103 -1.71953e-05 0)
(0.00297367 -2.10611e-05 0)
(0.00298634 -2.69417e-05 0)
(0.00295309 -3.11126e-05 0)
(0.00296442 -3.73802e-05 0)
(0.00292532 -4.2107e-05 0)
(0.00293572 -4.87914e-05 0)
(0.00289095 -5.43048e-05 0)
(0.00290081 -6.13977e-05 0)
(0.00285066 -6.79159e-05 0)
(0.00286035 -7.53736e-05 0)
(0.00280522 -8.31054e-05 0)
(0.00281507 -9.0848e-05 0)
(0.00275547 -9.9992e-05 0)
(0.00276576 -0.000107903 0)
(0.00270225 -0.000118639 0)
(0.00271319 -0.000126564 0)
(0.00304607 -2.73303e-06 0)
(0.00306358 -8.03057e-06 0)
(0.00304163 -1.26606e-05 0)
(0.00305707 -1.81061e-05 0)
(0.00302987 -2.2812e-05 0)
(0.00304365 -2.85098e-05 0)
(0.00301115 -3.35296e-05 0)
(0.00302367 -3.95662e-05 0)
(0.00298589 -4.51128e-05 0)
(0.00299756 -5.15344e-05 0)
(0.00295465 -5.77962e-05 0)
(0.00296583 -6.46107e-05 0)
(0.00291807 -7.17604e-05 0)
(0.00292911 -7.89426e-05 0)
(0.00287689 -8.71365e-05 0)
(0.00288812 -9.46308e-05 0)
(0.0028319 -0.000104014 0)
(0.00284358 -0.000111728 0)
(0.00278388 -0.00012246 0)
(0.00279621 -0.000130258 0)
(0.00310327 -2.92724e-06 0)
(0.0031216 -8.13352e-06 0)
(0.00309927 -1.34034e-05 0)
(0.00311561 -1.86592e-05 0)
(0.00308861 -2.41038e-05 0)
(0.00310337 -2.95188e-05 0)
(0.00307158 -3.53486e-05 0)
(0.00308517 -4.10299e-05 0)
(0.0030486 -4.74214e-05 0)
(0.0030614 -5.34354e-05 0)
(0.00302018 -6.05362e-05 0)
(0.00303254 -6.69079e-05 0)
(0.00298695 -7.48544e-05 0)
(0.0029992 -8.15749e-05 0)
(0.00294958 -9.04917e-05 0)
(0.00296204 -9.7525e-05 0)
(0.00290881 -0.000107498 0)
(0.00292175 -0.000114792 0)
(0.00286539 -0.000125838 0)
(0.00287903 -0.000133332 0)
(0.00316278 -2.99512e-06 0)
(0.0031818 -8.05327e-06 0)
(0.00315923 -1.37481e-05 0)
(0.00317633 -1.8717e-05 0)
(0.00314961 -2.47447e-05 0)
(0.00316521 -2.97474e-05 0)
(0.00313416 -3.62942e-05 0)
(0.00314867 -4.14636e-05 0)
(0.00311325 -4.86741e-05 0)
(0.00312703 -5.40979e-05 0)
(0.00308738 -6.20825e-05 0)
(0.00310076 -6.78062e-05 0)
(0.00305714 -7.66548e-05 0)
(0.00307046 -8.26937e-05 0)
(0.00302321 -9.24846e-05 0)
(0.00303676 -9.88256e-05 0)
(0.00298632 -0.000109646 0)
(0.00300035 -0.000116239 0)
(0.00294719 -0.000128207 0)
(0.0029619 -0.000134959 0)
(0.00322423 -2.89955e-06 0)
(0.00324381 -7.73119e-06 0)
(0.00322118 -1.3569e-05 0)
(0.0032389 -1.81274e-05 0)
(0.00321256 -2.45215e-05 0)
(0.00322887 -2.89553e-05 0)
(0.00319859 -3.60669e-05 0)
(0.00321387 -4.05379e-05 0)
(0.00317959 -4.84844e-05 0)
(0.00319419 -5.30986e-05 0)
(0.00315604 -6.19653e-05 0)
(0.00317028 -6.67858e-05 0)
(0.00312851 -7.66356e-05 0)
(0.00314272 -8.17015e-05 0)
(0.00309766 -9.2577e-05 0)
(0.00311213 -9.79037e-05 0)
(0.00306419 -0.000109838 0)
(0.00307918 -0.000115403 0)
(0.00302878 -0.000128433 0)
(0.00304449 -0.000134171 0)
(0.0032872 -2.58768e-06 0)
(0.00330717 -7.09185e-06 0)
(0.00328469 -1.2708e-05 0)
(0.00330288 -1.6707e-05 0)
(0.00327708 -2.31885e-05 0)
(0.00329394 -2.68707e-05 0)
(0.00326453 -3.43413e-05 0)
(0.00328042 -3.78952e-05 0)
(0.00324733 -4.64419e-05 0)
(0.00326258 -4.99879e-05 0)
(0.00322592 -5.96763e-05 0)
(0.00324085 -6.32911e-05 0)
(0.00320085 -7.41726e-05 0)
(0.00321577 -7.79159e-05 0)
(0.00317275 -9.00023e-05 0)
(0.00318795 -9.39291e-05 0)
(0.00314228 -0.000107171 0)
(0.00315805 -0.000111322 0)
(0.00311019 -0.000125649 0)
(0.00312672 -0.00013001 0)
(0.0033511 -1.99832e-06 0)
(0.00337131 -6.03743e-06 0)
(0.0033492 -1.10035e-05 0)
(0.00336772 -1.42563e-05 0)
(0.00334265 -2.05073e-05 0)
(0.0033599 -2.32217e-05 0)
(0.00333151 -3.07785e-05 0)
(0.00334783 -3.31594e-05 0)
(0.00331601 -4.20768e-05 0)
(0.00333174 -4.42537e-05 0)
(0.00329659 -5.45933e-05 0)
(0.00331204 -5.66644e-05 0)
(0.00327379 -6.84724e-05 0)
(0.00328928 -7.05251e-05 0)
(0.00324821 -8.38152e-05 0)
(0.00326402 -8.59261e-05 0)
(0.00322046 -0.000100638 0)
(0.00323686 -0.000102892 0)
(0.00319123 -0.000118807 0)
(0.00320843 -0.000121333 0)
(0.00341507 -1.1593e-06 0)
(0.00343546 -4.56023e-06 0)
(0.0034139 -8.46257e-06 0)
(0.00343271 -1.07395e-05 0)
(0.00340851 -1.63021e-05 0)
(0.00342607 -1.78223e-05 0)
(0.00339876 -2.49368e-05 0)
(0.00341546 -2.58958e-05 0)
(0.00338488 -3.46822e-05 0)
(0.00340106 -3.51944e-05 0)
(0.00336734 -4.57911e-05 0)
(0.00338331 -4.59862e-05 0)
(0.00334667 -5.84272e-05 0)
(0.00336276 -5.84558e-05 0)
(0.0033235 -7.26858e-05 0)
(0.00333999 -7.26837e-05 0)
(0.00329847 -8.86365e-05 0)
(0.00331559 -8.86771e-05 0)
(0.0032722 -0.000106324 0)
(0.00329003 -0.000106433 0)
(0.00347793 -5.16221e-07 0)
(0.0034988 -3.17845e-06 0)
(0.00347793 -5.28449e-06 0)
(0.00349751 -6.71243e-06 0)
(0.0034737 -1.01802e-05 0)
(0.00349223 -1.05096e-05 0)
(0.00346522 -1.59585e-05 0)
(0.00348296 -1.53636e-05 0)
(0.00345292 -2.30787e-05 0)
(0.00347017 -2.17434e-05 0)
(0.00343727 -3.18286e-05 0)
(0.00345432 -2.99364e-05 0)
(0.00341878 -4.24236e-05 0)
(0.00343592 -4.0164e-05 0)
(0.00339799 -5.49968e-05 0)
(0.00341552 -5.2578e-05 0)
(0.00337556 -6.95597e-05 0)
(0.00339376 -6.71928e-05 0)
(0.00335225 -8.59636e-05 0)
(0.00337127 -8.38387e-05 0)
(0.00158476 -0.000527271 0)
(0.00161212 -0.000489679 0)
(0.00152889 -0.000553397 0)
(0.00155855 -0.000518531 0)
(0.00147751 -0.000578981 0)
(0.00150859 -0.000545239 0)
(0.00142944 -0.000604267 0)
(0.00146154 -0.000570761 0)
(0.0013839 -0.000629283 0)
(0.00141683 -0.00059559 0)
(0.0013404 -0.000654013 0)
(0.00137405 -0.000619964 0)
(0.00129865 -0.00067841 0)
(0.0013329 -0.000643973 0)
(0.00125843 -0.000702424 0)
(0.00129319 -0.000667628 0)
(0.00121955 -0.000726009 0)
(0.00125471 -0.000690913 0)
(0.00118181 -0.000749137 0)
(0.00121728 -0.000713808 0)
(0.00114501 -0.000771795 0)
(0.00118071 -0.000736304 0)
(0.00110894 -0.000793989 0)
(0.00114481 -0.000758405 0)
(0.00107337 -0.000815742 0)
(0.00110937 -0.000780136 0)
(0.00103805 -0.000837095 0)
(0.00107417 -0.000801541 0)
(0.00100275 -0.000858106 0)
(0.00103901 -0.000822681 0)
(0.000967232 -0.000878849 0)
(0.00100367 -0.000843636 0)
(0.000931271 -0.000899422 0)
(0.000967972 -0.000864516 0)
(0.000894683 -0.000919971 0)
(0.000931757 -0.000885491 0)
(0.000857337 -0.000940749 0)
(0.000894903 -0.000906818 0)
(0.000819172 -0.000962069 0)
(0.000857266 -0.000928545 0)
(0.0017102 -0.000418594 0)
(0.00173767 -0.000391883 0)
(0.00166 -0.000443 0)
(0.00168794 -0.00041539 0)
(0.00161178 -0.000467327 0)
(0.00164046 -0.000439168 0)
(0.00156567 -0.000491417 0)
(0.00159525 -0.000462979 0)
(0.00152163 -0.000515252 0)
(0.00155213 -0.00048667 0)
(0.00147945 -0.000538836 0)
(0.00151084 -0.000510142 0)
(0.00143893 -0.000562164 0)
(0.00147115 -0.000533339 0)
(0.00139988 -0.000585217 0)
(0.00143282 -0.000556233 0)
(0.00136208 -0.000607973 0)
(0.00139568 -0.000578813 0)
(0.00132535 -0.000630414 0)
(0.00135953 -0.000601083 0)
(0.00128953 -0.000652529 0)
(0.00132423 -0.000623054 0)
(0.00125445 -0.000674323 0)
(0.00128964 -0.000644751 0)
(0.00121994 -0.000695814 0)
(0.0012556 -0.000666207 0)
(0.00118586 -0.000717038 0)
(0.001222 -0.000687469 0)
(0.00115206 -0.000738052 0)
(0.0011887 -0.000708596 0)
(0.00111839 -0.000758932 0)
(0.00115559 -0.000729658 0)
(0.00108475 -0.000779776 0)
(0.00112257 -0.000750747 0)
(0.00105103 -0.000800722 0)
(0.00108956 -0.000772011 0)
(0.00101716 -0.000821979 0)
(0.00105649 -0.000793656 0)
(0.000983147 -0.000843767 0)
(0.00102329 -0.000815647 0)
(0.0018209 -0.000332583 0)
(0.00184793 -0.000314067 0)
(0.00177726 -0.000354354 0)
(0.00180454 -0.000334988 0)
(0.00173455 -0.000376389 0)
(0.00176236 -0.000356118 0)
(0.00169285 -0.000398539 0)
(0.00172135 -0.000377438 0)
(0.00165222 -0.000420708 0)
(0.00168153 -0.000398905 0)
(0.00161271 -0.000442822 0)
(0.00164286 -0.000420448 0)
(0.00157433 -0.000464825 0)
(0.00160534 -0.000441997 0)
(0.00153705 -0.000486675 0)
(0.0015689 -0.000463493 0)
(0.00150083 -0.000508349 0)
(0.00153348 -0.000484893 0)
(0.00146557 -0.000529833 0)
(0.001499 -0.000506175 0)
(0.00143121 -0.000551124 0)
(0.00146538 -0.000527327 0)
(0.00139764 -0.000572232 0)
(0.00143254 -0.000548355 0)
(0.00136478 -0.000593177 0)
(0.0014004 -0.000569279 0)
(0.00133253 -0.000613993 0)
(0.0013689 -0.000590134 0)
(0.00130081 -0.00063473 0)
(0.00133796 -0.000610966 0)
(0.00126956 -0.000655448 0)
(0.00130753 -0.000631829 0)
(0.00123872 -0.000676222 0)
(0.00127756 -0.000652792 0)
(0.00120827 -0.000697156 0)
(0.001248 -0.000673971 0)
(0.00117822 -0.000718416 0)
(0.00121886 -0.00069554 0)
(0.00114864 -0.000740183 0)
(0.0011901 -0.000717462 0)
(0.00192694 -0.000266668 0)
(0.00195316 -0.000253621 0)
(0.00188799 -0.000286235 0)
(0.00191439 -0.000272483 0)
(0.00184956 -0.000306068 0)
(0.00187647 -0.000291587 0)
(0.00181176 -0.00032609 0)
(0.00183936 -0.000310916 0)
(0.00177464 -0.000346267 0)
(0.00180305 -0.000330454 0)
(0.00173828 -0.000366551 0)
(0.00176756 -0.000350165 0)
(0.00170272 -0.000386895 0)
(0.00173289 -0.000370007 0)
(0.00166799 -0.000407256 0)
(0.00169906 -0.000389944 0)
(0.00163409 -0.000427605 0)
(0.00166607 -0.000409943 0)
(0.00160103 -0.000447929 0)
(0.0016339 -0.00042998 0)
(0.00156876 -0.000468218 0)
(0.00160252 -0.000450043 0)
(0.00153728 -0.000488449 0)
(0.00157194 -0.000470138 0)
(0.00150659 -0.000508639 0)
(0.00154215 -0.000490272 0)
(0.00147666 -0.000528815 0)
(0.00151315 -0.000510465 0)
(0.00144749 -0.000549016 0)
(0.00148494 -0.000530743 0)
(0.00141906 -0.000569291 0)
(0.0014575 -0.00055114 0)
(0.00139139 -0.000589695 0)
(0.00143084 -0.000571705 0)
(0.00136452 -0.00061031 0)
(0.00140498 -0.000592527 0)
(0.00133853 -0.000631271 0)
(0.00137995 -0.000613741 0)
(0.00131352 -0.00065272 0)
(0.00135578 -0.000635286 0)
(0.00202817 -0.000217718 0)
(0.00205369 -0.000209268 0)
(0.00199323 -0.000235299 0)
(0.00201893 -0.000226247 0)
(0.00195859 -0.000253163 0)
(0.00198478 -0.000243511 0)
(0.00192432 -0.000271241 0)
(0.00195123 -0.000261035 0)
(0.00189056 -0.00028956 0)
(0.00191828 -0.000278812 0)
(0.00185736 -0.000308082 0)
(0.00188594 -0.00029683 0)
(0.00182476 -0.000326781 0)
(0.00185425 -0.000315068 0)
(0.0017928 -0.000345628 0)
(0.00182324 -0.000333508 0)
(0.0017615 -0.000364586 0)
(0.00179294 -0.000352138 0)
(0.00173085 -0.000383585 0)
(0.00176339 -0.000370908 0)
(0.00170123 -0.000402736 0)
(0.00173466 -0.000389836 0)
(0.00167237 -0.000421985 0)
(0.00170675 -0.000408908 0)
(0.0016443 -0.000441315 0)
(0.00167969 -0.000428127 0)
(0.00161708 -0.000460731 0)
(0.0016535 -0.000447508 0)
(0.00159076 -0.000480263 0)
(0.00162824 -0.000467074 0)
(0.00156539 -0.000499946 0)
(0.00160395 -0.000486839 0)
(0.00154105 -0.000519815 0)
(0.0015807 -0.00050683 0)
(0.00151781 -0.00053993 0)
(0.00155852 -0.000527105 0)
(0.00149581 -0.000560391 0)
(0.00153751 -0.00054776 0)
(0.00147519 -0.000581297 0)
(0.00151771 -0.000568711 0)
(0.00212491 -0.000182508 0)
(0.00215001 -0.000177908 0)
(0.00209365 -0.000198302 0)
(0.00211887 -0.000193219 0)
(0.00206256 -0.000214419 0)
(0.00208818 -0.000208858 0)
(0.00203136 -0.000231054 0)
(0.0020578 -0.000224807 0)
(0.00200073 -0.000247669 0)
(0.00202793 -0.000241075 0)
(0.00197056 -0.000264504 0)
(0.00199862 -0.000257638 0)
(0.00194096 -0.000281518 0)
(0.00196994 -0.000274477 0)
(0.00191206 -0.000298683 0)
(0.00194199 -0.000291579 0)
(0.00188404 -0.000316001 0)
(0.00191487 -0.000308942 0)
(0.00185589 -0.000335605 0)
(0.0018878 -0.000326721 0)
(0.00182871 -0.000353466 0)
(0.00186169 -0.000344703 0)
(0.00180249 -0.000371551 0)
(0.00183655 -0.000362861 0)
(0.00177722 -0.000389839 0)
(0.00181237 -0.000381188 0)
(0.00175291 -0.000408315 0)
(0.00178906 -0.000399618 0)
(0.0017296 -0.000427051 0)
(0.00176688 -0.000418387 0)
(0.0017074 -0.000445998 0)
(0.0017458 -0.000437378 0)
(0.00168638 -0.000465187 0)
(0.00172589 -0.000456623 0)
(0.00166666 -0.000484648 0)
(0.00170723 -0.000476174 0)
(0.00164839 -0.000504448 0)
(0.00168991 -0.000496082 0)
(0.00163176 -0.000524638 0)
(0.00167404 -0.000516256 0)
(0.00221833 -0.000158803 0)
(0.00224314 -0.000157198 0)
(0.00219034 -0.000173153 0)
(0.0022153 -0.000171186 0)
(0.00216237 -0.000188124 0)
(0.00218772 -0.000185546 0)
(0.00213452 -0.000203121 0)
(0.00216052 -0.000200225 0)
(0.00210699 -0.000218422 0)