/*--------------------------------*- C++ -*----------------------------------*\
| =========                 |                                                 |
| \\      /  F ield         | OpenFOAM: The Open Source CFD Toolbox           |
|  \\    /   O peration     | Version:  v2012                                 |
|   \\  /    A nd           | Website:  www.openfoam.com                      |
|    \\/     M anipulation  |                                                 |
\*---------------------------------------------------------------------------*/
FoamFile
{
    version     2.0;
    format      ascii;
    class       pointVectorField;
    location    "7";
    object      pointD;
}
// * * * * * * * * * * * * * * * * * * * * * * * * * * * * * * * * * * * * * //

dimensions      [0 1 0 0 0 0 0];


internalField   nonuniform List<vector> 
2142
(
(0.00264633 0 4.07584e-24)
(0.00361052 0 3.06383e-21)
(0.00332351 -0.00031153 0)
(0 -0.00187182 1.64462e-22)
(0 -0.00145659 -6.61138e-21)
(0.00272022 0 0)
(0 -0.00175755 0)
(0.00163967 -0.000543699 0)
(0.000792677 -0.00102819 -2.52358e-21)
(0.00349888 -8.10899e-05 6.54116e-22)
(0.00195781 -0.000880442 -2.34373e-22)
(0.00195781 -0.000880442 -2.34373e-22)
(0.00163967 -0.000543699 0)
(0 -0.00175755 0)
(0 -0.00145659 -6.61138e-21)
(0.00264633 0 4.07584e-24)
(0.00272022 0 0)
(0.00361052 0 3.06383e-21)
(0.00349888 -8.10899e-05 6.54116e-22)
(0.00332351 -0.00031153 0)
(0.000792677 -0.00102819 -2.52358e-21)
(0 -0.00187182 1.64462e-22)
(0.000124065 -0.00173406 0)
(0.000255924 -0.00166871 0)
(0.000396348 -0.00156986 0)
(0.00054651 -0.00144567 0)
(0.000706233 -0.00130442 0)
(0.000874878 -0.00115331 0)
(0.0010515 -0.000998289 0)
(0.0012338 -0.000843982 0)
(0.00142074 -0.000699576 0)
(0.00185875 -0.000399185 0)
(0.00202935 -0.000299239 0)
(0.00218762 -0.000218268 0)
(0.0023291 -0.000154007 0)
(0.00245086 -0.000104696 0)
(0.00255077 -6.81361e-05 0)
(0.00262747 -4.17854e-05 0)
(0.00268078 -2.30682e-05 0)
(0.00271202 -9.16558e-06 0)
(0.00266094 0 0)
(0.00267497 0 0)
(0.00268484 0 0)
(0.002692 0 0)
(0.00269762 0 0)
(0.00270248 0 0)
(0.0027072 0 0)
(0.00271205 0 0)
(0.00271638 0 0)
(0.00272766 0 0)
(0.00273998 0 0)
(0.00275739 0 0)
(0.00278061 0 0)
(0.00280877 0 0)
(0.00284123 0 0)
(0.00287776 0 0)
(0.00291826 0 0)
(0.00296258 0 0)
(0.00301054 0 0)
(0.00306192 0 0)
(0.00311645 0 0)
(0.00317386 0 0)
(0.00323384 0 0)
(0.00329602 0 0)
(0.00336 0 0)
(0.00342525 0 0)
(0.00349102 0 0)
(0.00355624 0 0)
(0.00363111 -4.19637e-06 -2.65793e-23)
(0.00362807 -6.14639e-06 4.12328e-23)
(0.00362094 -8.82622e-06 3.56306e-21)
(0.00361005 -1.29788e-05 -6.25092e-21)
(0.00359589 -1.90084e-05 -6.74381e-21)
(0.00357895 -2.7191e-05 3.4446e-21)
(0.00355976 -3.77581e-05 5.25641e-21)
(0.00353897 -5.08574e-05 3.64322e-21)
(0.00351722 -6.65659e-05 6.36156e-21)
(0.00348747 -8.98966e-05 6.93009e-21)
(0.00347722 -9.80774e-05 1.36167e-20)
(0.00346643 -0.000108087 1.00313e-20)
(0.00345625 -0.000118718 3.53248e-21)
(0.00344641 -0.0001296 3.60779e-21)
(0.00343665 -0.000140644 1.71557e-20)
(0.00342745 -0.000152147 6.85072e-21)
(0.0034186 -0.000163886 1.5324e-23)
(0.00340989 -0.00017573 1.39487e-20)
(0.00340155 -0.000187842 1.75352e-20)
(0.00339356 -0.000200161 1.04921e-20)
(0.0033859 -0.000212642 1.40048e-20)
(0.00337859 -0.000225243 1.40511e-20)
(0.00337161 -0.000237919 -1.90033e-23)
(0.00336495 -0.000250627 1.04654e-20)
(0.00335857 -0.000263337 2.10265e-20)
(0.00335246 -0.000276009 1.75896e-20)
(0.00334657 -0.000288541 6.99142e-21)
(0.00334078 -0.000300864 -3.59474e-21)
(0.00326182 -0.000326204 0)
(0.0031735 -0.000343715 -1.14707e-22)
(0.00308505 -0.000359154 -1.14707e-22)
(0.00299494 -0.00037186 -2.83491e-22)
(0.00290187 -0.000381813 -1.79233e-22)
(0.00280485 -0.000389609 2.15963e-22)
(0.00270296 -0.000396135 1.11704e-22)
(0.00259543 -0.000402497 1.03078e-22)
(0.00248162 -0.000409934 2.09593e-22)
(0.0023609 -0.000419839 2.59687e-22)
(0.00223285 -0.000433782 -2.43833e-22)
(0.00209717 -0.000453084 -2.20981e-22)
(0.0019535 -0.000480041 5.04223e-22)
(0.00180186 -0.000516883 2.59063e-22)
(0.00164273 -0.000565099 -5.8095e-22)
(0.00147694 -0.000626806 -5.11813e-22)
(0.00130609 -0.000703829 5.59058e-22)
(0.00113257 -0.000797148 8.5507e-22)
(0.000958848 -0.000906289 1.28246e-21)
(0.000661811 -0.00113862 -3.31249e-21)
(0.000548694 -0.0012464 6.73454e-22)
(0.000443823 -0.00135791 6.73454e-22)
(0.00034911 -0.00146911 0)
(0.000265811 -0.0015757 -6.69482e-22)
(0.000194545 -0.0016731 -1.22004e-21)
(0.000135082 -0.00175661 -1.13978e-21)
(8.677e-05 -0.00182128 -8.07526e-22)
(4.64104e-05 -0.00185904 -4.37078e-23)
(0 -0.00187125 0)
(0 -0.00186639 0)
(0 -0.00186124 0)
(0 -0.00185586 0)
(0 -0.00185029 0)
(0 -0.00184454 0)
(0 -0.00183862 0)
(0 -0.00183258 0)
(0 -0.00182644 0)
(0 -0.00182022 0)
(0 -0.00181396 0)
(0 -0.00180768 0)
(0 -0.00180141 0)
(0 -0.00179516 0)
(0 -0.00178897 0)
(0 -0.00178285 0)
(0 -0.00177683 0)
(0 -0.00177093 0)
(0 -0.00176512 0)
(0 -0.00174635 0)
(0 -0.00173322 0)
(0 -0.00171942 0)
(0 -0.00170465 0)
(0 -0.00168807 0)
(0 -0.00166833 0)
(0 -0.00164058 0)
(0 -0.0015949 0)
(0 -0.001524 0)
(0.00176652 -0.000441488 0)
(0.00188238 -0.000353449 0)
(0.00198843 -0.000281967 0)
(0.00209052 -0.00022782 0)
(0.0021885 -0.000188754 0)
(0.00228298 -0.000161882 0)
(0.00237491 -0.000144754 0)
(0.00246501 -0.000135072 0)
(0.00255386 -0.000130825 0)
(0.00264192 -0.000130342 0)
(0.00272946 -0.000132414 0)
(0.00281653 -0.000135815 0)
(0.00290327 -0.000139263 0)
(0.00298981 -0.000141951 0)
(0.00307605 -0.000142866 0)
(0.00316188 -0.000140895 0)
(0.0032472 -0.000135005 0)
(0.00333205 -0.000123879 0)
(0.0034165 -0.000105496 0)
(0.00154741 -0.000596204 0)
(0.00149366 -0.000624375 0)
(0.00144333 -0.000651473 0)
(0.0013956 -0.000677992 0)
(0.00135002 -0.0007041 0)
(0.00130634 -0.000729843 0)
(0.00126435 -0.000755201 0)
(0.00122389 -0.000780132 0)
(0.00118474 -0.000804586 0)
(0.0011467 -0.000828528 0)
(0.0011095 -0.000851941 0)
(0.00107289 -0.000874827 0)
(0.00103659 -0.000897213 0)
(0.00100032 -0.000919147 0)
(0.000963797 -0.000940699 0)
(0.000926746 -0.000961964 0)
(0.000888906 -0.000983081 0)
(0.000850045 -0.00100426 0)
(0.000809967 -0.00102574 0)
(0.000241888 -0.00143613 -6.75098e-21)
(0.000482022 -0.00143233 1.99137e-23)
(0.000716826 -0.00140978 4.31922e-21)
(0.000921336 -0.00136847 3.1269e-22)
(0.00111102 -0.00130321 -4.55205e-21)
(0.00129785 -0.00122661 -1.62981e-21)
(0.0014785 -0.00114476 -5.69452e-21)
(0.00164997 -0.00105894 -1.62642e-21)
(0.00181019 -0.000970413 4.82043e-21)
(0.00209204 -0.000790025 -2.05107e-21)
(0.00221232 -0.000699766 -5.75792e-21)
(0.00231807 -0.000610079 -5.75792e-21)
(0.00240881 -0.000521374 4.7099e-21)
(0.00248442 -0.000433971 2.84319e-21)
(0.00254506 -0.000347961 -6.95222e-21)
(0.00259103 -0.000263107 1.19583e-22)
(0.00262222 -0.000178693 4.68873e-21)
(0.00263688 -9.43839e-05 -5.12195e-22)
(0.00190741 -0.000805238 0)
(0.00184438 -0.000755869 0)
(0.00179256 -0.000715001 0)
(0.00174972 -0.000680736 0)
(0.00171426 -0.000651702 0)
(0.00168505 -0.000626862 0)
(0.00166131 -0.000605461 0)
(0.00164262 -0.000587082 0)
(0.00162862 -0.000571813 0)
(0.00190741 -0.000805238 0)
(0.00184438 -0.000755869 0)
(0.00179256 -0.000715001 0)
(0.00174972 -0.000680736 0)
(0.00171426 -0.000651702 0)
(0.00168505 -0.000626862 0)
(0.00166131 -0.000605461 0)
(0.00164262 -0.000587082 0)
(0.00162862 -0.000571813 0)
(0.00142074 -0.000699576 0)
(0.0012338 -0.000843982 0)
(0.0010515 -0.000998289 0)
(0.000874878 -0.00115331 0)
(0.000706233 -0.00130442 0)
(0.00054651 -0.00144567 0)
(0.000396348 -0.00156986 0)
(0.000255924 -0.00166871 0)
(0.000124065 -0.00173406 0)
(0 -0.00174635 0)
(0 -0.00173322 0)
(0 -0.00171942 0)
(0 -0.00170465 0)
(0 -0.00168807 0)
(0 -0.00166833 0)
(0 -0.00164058 0)
(0 -0.0015949 0)
(0 -0.001524 0)
(0.000241888 -0.00143613 -6.75098e-21)
(0.000482022 -0.00143233 1.99137e-23)
(0.000716826 -0.00140978 4.31922e-21)
(0.000921336 -0.00136847 3.1269e-22)
(0.00111102 -0.00130321 -4.55205e-21)
(0.00129785 -0.00122661 -1.62981e-21)
(0.0014785 -0.00114476 -5.69452e-21)
(0.00164997 -0.00105894 -1.62642e-21)
(0.00181019 -0.000970413 4.82043e-21)
(0.00209204 -0.000790025 -2.05107e-21)
(0.00221232 -0.000699766 -5.75792e-21)
(0.00231807 -0.000610079 -5.75792e-21)
(0.00240881 -0.000521374 4.7099e-21)
(0.00248442 -0.000433971 2.84319e-21)
(0.00254506 -0.000347961 -6.95222e-21)
(0.00259103 -0.000263107 1.19583e-22)
(0.00262222 -0.000178693 4.68873e-21)
(0.00263688 -9.43839e-05 -5.12195e-22)
(0.00266094 0 0)
(0.00267497 0 0)
(0.00268484 0 0)
(0.002692 0 0)
(0.00269762 0 0)
(0.00270248 0 0)
(0.0027072 0 0)
(0.00271205 0 0)
(0.00271638 0 0)
(0.00271202 -9.16558e-06 0)
(0.00268078 -2.30682e-05 0)
(0.00262747 -4.17854e-05 0)
(0.00255077 -6.81361e-05 0)
(0.00245086 -0.000104696 0)
(0.0023291 -0.000154007 0)
(0.00218762 -0.000218268 0)
(0.00202935 -0.000299239 0)
(0.00185875 -0.000399185 0)
(0.00272766 0 0)
(0.00273998 0 0)
(0.00275739 0 0)
(0.00278061 0 0)
(0.00280877 0 0)
(0.00284123 0 0)
(0.00287776 0 0)
(0.00291826 0 0)
(0.00296258 0 0)
(0.00301054 0 0)
(0.00306192 0 0)
(0.00311645 0 0)
(0.00317386 0 0)
(0.00323384 0 0)
(0.00329602 0 0)
(0.00336 0 0)
(0.00342525 0 0)
(0.00349102 0 0)
(0.00355624 0 0)
(0.00363111 -4.19637e-06 -2.65793e-23)
(0.00362807 -6.14639e-06 4.12328e-23)
(0.00362094 -8.82622e-06 3.56306e-21)
(0.00361005 -1.29788e-05 -6.25092e-21)
(0.00359589 -1.90084e-05 -6.74381e-21)
(0.00357895 -2.7191e-05 3.4446e-21)
(0.00355976 -3.77581e-05 5.25641e-21)
(0.00353897 -5.08574e-05 3.64322e-21)
(0.00351722 -6.65659e-05 6.36156e-21)
(0.0034165 -0.000105496 0)
(0.00333205 -0.000123879 0)
(0.0032472 -0.000135005 0)
(0.00316188 -0.000140895 0)
(0.00307605 -0.000142866 0)
(0.00298981 -0.000141951 0)
(0.00290327 -0.000139263 0)
(0.00281653 -0.000135815 0)
(0.00272946 -0.000132414 0)
(0.00264192 -0.000130342 0)
(0.00255386 -0.000130825 0)
(0.00246501 -0.000135072 0)
(0.00237491 -0.000144754 0)
(0.00228298 -0.000161882 0)
(0.0021885 -0.000188754 0)
(0.00209052 -0.00022782 0)
(0.00198843 -0.000281967 0)
(0.00188238 -0.000353449 0)
(0.00176652 -0.000441488 0)
(0.00348747 -8.98966e-05 6.93009e-21)
(0.00347722 -9.80774e-05 1.36167e-20)
(0.00346643 -0.000108087 1.00313e-20)
(0.00345625 -0.000118718 3.53248e-21)
(0.00344641 -0.0001296 3.60779e-21)
(0.00343665 -0.000140644 1.71557e-20)
(0.00342745 -0.000152147 6.85072e-21)
(0.0034186 -0.000163886 1.5324e-23)
(0.00340989 -0.00017573 1.39487e-20)
(0.00340155 -0.000187842 1.75352e-20)
(0.00339356 -0.000200161 1.04921e-20)
(0.0033859 -0.000212642 1.40048e-20)
(0.00337859 -0.000225243 1.40511e-20)
(0.00337161 -0.000237919 -1.90033e-23)
(0.00336495 -0.000250627 1.04654e-20)
(0.00335857 -0.000263337 2.10265e-20)
(0.00335246 -0.000276009 1.75896e-20)
(0.00334657 -0.000288541 6.99142e-21)
(0.00334078 -0.000300864 -3.59474e-21)
(0.00326182 -0.000326204 0)
(0.0031735 -0.000343715 -1.14707e-22)
(0.00308505 -0.000359154 -1.14707e-22)
(0.00299494 -0.00037186 -2.83491e-22)
(0.00290187 -0.000381813 -1.79233e-22)
(0.00280485 -0.000389609 2.15963e-22)
(0.00270296 -0.000396135 1.11704e-22)
(0.00259543 -0.000402497 1.03078e-22)
(0.00248162 -0.000409934 2.09593e-22)
(0.0023609 -0.000419839 2.59687e-22)
(0.00223285 -0.000433782 -2.43833e-22)
(0.00209717 -0.000453084 -2.20981e-22)
(0.0019535 -0.000480041 5.04223e-22)
(0.00180186 -0.000516883 2.59063e-22)
(0.00164273 -0.000565099 -5.8095e-22)
(0.00147694 -0.000626806 -5.11813e-22)
(0.00130609 -0.000703829 5.59058e-22)
(0.00113257 -0.000797148 8.5507e-22)
(0.000958848 -0.000906289 1.28246e-21)
(0.000809967 -0.00102574 0)
(0.000850045 -0.00100426 0)
(0.000888906 -0.000983081 0)
(0.000926746 -0.000961964 0)
(0.000963797 -0.000940699 0)
(0.00100032 -0.000919147 0)
(0.00103659 -0.000897213 0)
(0.00107289 -0.000874827 0)
(0.0011095 -0.000851941 0)
(0.0011467 -0.000828528 0)
(0.00118474 -0.000804586 0)
(0.00122389 -0.000780132 0)
(0.00126435 -0.000755201 0)
(0.00130634 -0.000729843 0)
(0.00135002 -0.0007041 0)
(0.0013956 -0.000677992 0)
(0.00144333 -0.000651473 0)
(0.00149366 -0.000624375 0)
(0.00154741 -0.000596204 0)
(0.000661811 -0.00113862 -3.31249e-21)
(0.000548694 -0.0012464 6.73454e-22)
(0.000443823 -0.00135791 6.73454e-22)
(0.00034911 -0.00146911 0)
(0.000265811 -0.0015757 -6.69482e-22)
(0.000194545 -0.0016731 -1.22004e-21)
(0.000135082 -0.00175661 -1.13978e-21)
(8.677e-05 -0.00182128 -8.07526e-22)
(4.64104e-05 -0.00185904 -4.37078e-23)
(0 -0.00187125 0)
(0 -0.00186639 0)
(0 -0.00186124 0)
(0 -0.00185586 0)
(0 -0.00185029 0)
(0 -0.00184454 0)
(0 -0.00183862 0)
(0 -0.00183258 0)
(0 -0.00182644 0)
(0 -0.00182022 0)
(0 -0.00181396 0)
(0 -0.00180768 0)
(0 -0.00180141 0)
(0 -0.00179516 0)
(0 -0.00178897 0)
(0 -0.00178285 0)
(0 -0.00177683 0)
(0 -0.00177093 0)
(0 -0.00176512 0)
(0.000249808 -0.00152441 0)
(0.000220158 -0.00158447 0)
(0.000191617 -0.00162142 0)
(0.000168685 -0.00164576 0)
(0.00015373 -0.00166582 0)
(0.000143942 -0.00168245 0)
(0.000137041 -0.00169699 0)
(0.000131742 -0.00171041 0)
(0.000127365 -0.0017232 0)
(0.000471475 -0.00149767 0)
(0.000423223 -0.00154002 0)
(0.000377241 -0.00156545 0)
(0.00034144 -0.00158622 0)
(0.00031555 -0.00160411 0)
(0.000296773 -0.00161957 0)
(0.000282805 -0.0016334 0)
(0.000272025 -0.00164614 0)
(0.000263247 -0.00165814 0)
(0.000680844 -0.0014478 0)
(0.000613526 -0.00146956 0)
(0.000557534 -0.00148658 0)
(0.000514461 -0.00150227 0)
(0.000481533 -0.00151615 0)
(0.000456119 -0.00152861 0)
(0.00043626 -0.00154001 0)
(0.000420468 -0.00155059 0)
(0.000407515 -0.00156048 0)
(0.000868538 -0.00137413 0)
(0.000795638 -0.00138374 0)
(0.000736511 -0.00139331 0)
(0.000689279 -0.0014021 0)
(0.000651576 -0.00141022 0)
(0.000621386 -0.00141787 0)
(0.000597102 -0.00142513 0)
(0.000577384 -0.00143199 0)
(0.000561048 -0.00143841 0)
(0.00105154 -0.00128928 0)
(0.000976537 -0.00128916 0)
(0.000915243 -0.00128955 0)
(0.000865363 -0.00129035 0)
(0.000824711 -0.00129165 0)
(0.000791528 -0.00129341 0)
(0.000764385 -0.00129547 0)
(0.000742053 -0.00129767 0)
(0.000723432 -0.00129982 0)
(0.00123433 -0.00119788 0)
(0.00115691 -0.00118677 0)
(0.00109407 -0.00117773 0)
(0.00104279 -0.00117038 0)
(0.00100072 -0.00116458 0)
(0.000966079 -0.0011601 0)
(0.000937505 -0.00115663 0)
(0.000913831 -0.00115386 0)
(0.000894026 -0.0011515 0)
(0.00141364 -0.00110177 0)
(0.00133595 -0.00107938 0)
(0.00127302 -0.00106094 0)
(0.00122166 -0.00104561 0)
(0.00117945 -0.00103291 0)
(0.00114462 -0.00102234 0)
(0.00111582 -0.00101345 0)
(0.00109193 -0.00100584 0)
(0.00107197 -0.000999135 0)
(0.00158701 -0.00100284 0)
(0.00151171 -0.000969851 0)
(0.00145062 -0.000942632 0)
(0.0014007 -0.000919892 0)
(0.00135966 -0.000900786 0)
(0.00132581 -0.00088459 0)
(0.00129783 -0.000870675 0)
(0.00127459 -0.000858498 0)
(0.00125517 -0.000847564 0)
(0.00175224 -0.000903364 0)
(0.00168194 -0.00086119 0)
(0.0016246 -0.000826339 0)
(0.00157756 -0.000797149 0)
(0.00153883 -0.000772465 0)
(0.00150699 -0.000751379 0)
(0.00148086 -0.000733177 0)
(0.00145947 -0.000717333 0)
(0.00144198 -0.000703487 0)
(0.00205094 -0.000709727 0)
(0.00199695 -0.000655513 0)
(0.00195214 -0.000610541 0)
(0.00191481 -0.000572789 0)
(0.00188374 -0.000540755 0)
(0.00185808 -0.000513325 0)
(0.00183726 -0.000489712 0)
(0.00182104 -0.00046951 0)
(0.00180893 -0.000453 0)
(0.00218153 -0.000617537 0)
(0.00213767 -0.000561023 0)
(0.00210087 -0.000514014 0)
(0.00206997 -0.000474494 0)
(0.00204421 -0.000440929 0)
(0.00202305 -0.000412166 0)
(0.00200611 -0.000387296 0)
(0.00199305 -0.00036565 0)
(0.00198286 -0.000347254 0)
(0.00229787 -0.000529151 0)
(0.00226461 -0.000472965 0)
(0.00223623 -0.000426053 0)
(0.00221212 -0.000386509 0)
(0.00219193 -0.000352859 0)
(0.00217543 -0.000323991 0)
(0.00216245 -0.000299031 0)
(0.00215275 -0.000277364 0)
(0.00214533 -0.000259089 0)
(0.0023988 -0.000444838 0)
(0.00237599 -0.000391535 0)
(0.00235597 -0.000346827 0)
(0.0023386 -0.000309039 0)
(0.00232395 -0.000276848 0)
(0.00231204 -0.000249259 0)
(0.0023029 -0.000225481 0)
(0.00229639 -0.000204956 0)
(0.00229161 -0.000187779 0)
(0.00248356 -0.000364522 0)
(0.00247052 -0.000316429 0)
(0.00245835 -0.000275884 0)
(0.00244733 -0.000241517 0)
(0.00243789 -0.00021222 0)
(0.00243028 -0.000187154 0)
(0.0024247 -0.000165637 0)
(0.00242112 -0.000147168 0)
(0.00241872 -0.000131789 0)
(0.00255183 -0.000287775 0)
(0.00254737 -0.000246879 0)
(0.00254213 -0.000212212 0)
(0.00253676 -0.000182734 0)
(0.00253193 -0.000157592 0)
(0.00252813 -0.000136127 0)
(0.00252568 -0.000117781 0)
(0.00252465 -0.000102113 0)
(0.00252429 -8.90989e-05 0)
(0.00260349 -0.000213902 0)
(0.00260599 -0.000181877 0)
(0.00260643 -0.000154534 0)
(0.0026057 -0.000131177 0)
(0.00260472 -0.000111234 0)
(0.0026041 -9.42529e-05 0)
(0.00260426 -7.98179e-05 0)
(0.00260535 -6.75559e-05 0)
(0.00260666 -5.73559e-05 0)
(0.00263813 -0.000142095 0)
(0.0026458 -0.000120469 0)
(0.00265052 -0.000101585 0)
(0.00265343 -8.52464e-05 0)
(0.00265553 -7.12443e-05 0)
(0.00265747 -5.93575e-05 0)
(0.00265975 -4.93482e-05 0)
(0.00266257 -4.09544e-05 0)
(0.00266533 -3.39985e-05 0)
(0.00265422 -7.20215e-05 0)
(0.00266603 -6.15235e-05 0)
(0.00267432 -5.16845e-05 0)
(0.00268033 -4.29637e-05 0)
(0.00268506 -3.54914e-05 0)
(0.00268918 -2.92313e-05 0)
(0.00269323 -2.40713e-05 0)
(0.00269749 -1.97978e-05 0)
(0.00270157 -1.60815e-05 0)
(0.00271831 -9.8269e-06 0)
(0.00268716 -2.19938e-05 0)
(0.00263534 -3.84421e-05 0)
(0.00256244 -6.11091e-05 0)
(0.00246892 -9.2288e-05 0)
(0.00235594 -0.000134388 0)
(0.00222533 -0.000189673 0)
(0.00207933 -0.000260075 0)
(0.00192034 -0.000347608 0)
(0.00273232 -9.64537e-06 0)
(0.00270496 -2.05553e-05 0)
(0.00265879 -3.44252e-05 0)
(0.00259402 -5.29395e-05 0)
(0.00251126 -7.79201e-05 0)
(0.00241146 -0.000111442 0)
(0.00229577 -0.000155685 0)
(0.0021652 -0.000212452 0)
(0.00202031 -0.000282045 0)
(0.00275216 -8.82979e-06 0)
(0.00272795 -1.80901e-05 0)
(0.00268648 -2.95632e-05 0)
(0.00262827 -4.4662e-05 0)
(0.00255401 -6.48301e-05 0)
(0.00246442 -9.16317e-05 0)
(0.00236016 -0.000126592 0)
(0.00224185 -0.000170877 0)
(0.00211122 -0.000225053 0)
(0.00277758 -7.73157e-06 0)
(0.00275602 -1.54195e-05 0)
(0.00271855 -2.4934e-05 0)
(0.00266584 -3.7394e-05 0)
(0.00259855 -5.38811e-05 0)
(0.00251734 -7.54836e-05 0)
(0.0024229 -0.000103255 0)
(0.00231643 -0.000138243 0)
(0.00219992 -0.000181559 0)
(0.00280748 -6.87831e-06 0)
(0.00278818 -1.34852e-05 0)
(0.00275422 -2.16689e-05 0)
(0.00270632 -3.23088e-05 0)
(0.00264516 -4.62025e-05 0)
(0.00257147 -6.41519e-05 0)
(0.00248619 -8.69962e-05 0)
(0.00239062 -0.000115639 0)
(0.00228639 -0.000150966 0)
(0.00284136 -6.52394e-06 0)
(0.002824 -1.26718e-05 0)
(0.0027932 -2.01639e-05 0)
(0.00274967 -2.97213e-05 0)
(0.00269412 -4.19736e-05 0)
(0.00262737 -5.75523e-05 0)
(0.0025504 -7.71074e-05 0)
(0.00246441 -0.000101277 0)
(0.00237082 -0.000130637 0)
(0.00287911 -6.65337e-06 0)
(0.00286343 -1.28897e-05 0)
(0.00283549 -2.02425e-05 0)
(0.00279598 -2.93257e-05 0)
(0.00274559 -4.06644e-05 0)
(0.00268515 -5.47635e-05 0)
(0.0026156 -7.21092e-05 0)
(0.00253808 -9.3145e-05 0)
(0.00245386 -0.000118259 0)
(0.0029207 -7.14085e-06 0)
(0.00290647 -1.38622e-05 0)
(0.00288112 -2.14963e-05 0)
(0.00284527 -3.05721e-05 0)
(0.00279958 -4.15366e-05 0)
(0.00274484 -5.48031e-05 0)
(0.00268196 -7.07513e-05 0)
(0.002612 -8.97079e-05 0)
(0.00253609 -0.000111926 0)
(0.00296602 -7.84898e-06 0)
(0.00295308 -1.53009e-05 0)
(0.00293005 -2.35001e-05 0)
(0.00289749 -3.29049e-05 0)
(0.00285605 -4.39015e-05 0)
(0.00280646 -5.68339e-05 0)
(0.00274959 -7.20056e-05 0)
(0.0026864 -8.96622e-05 0)
(0.00261791 -0.000109968 0)
(0.00301489 -8.65906e-06 0)
(0.0030031 -1.69607e-05 0)
(0.00298215 -2.5885e-05 0)
(0.00295257 -3.58349e-05 0)
(0.00291495 -4.7148e-05 0)
(0.00287 -6.01122e-05 0)
(0.00281853 -7.49653e-05 0)
(0.00276142 -9.18858e-05 0)
(0.00269962 -0.000110989 0)
(0.00306711 -9.47073e-06 0)
(0.00305634 -1.86366e-05 0)
(0.00303727 -2.8338e-05 0)
(0.00301037 -3.89362e-05 0)
(0.0029762 -5.07299e-05 0)
(0.00293542 -6.3963e-05 0)
(0.0028888 -7.88271e-05 0)
(0.00283717 -9.54592e-05 0)
(0.00278141 -0.000113944 0)
(0.00312242 -1.01948e-05 0)
(0.00311258 -2.01475e-05 0)
(0.00309522 -3.05825e-05 0)
(0.00307074 -4.18314e-05 0)
(0.00303968 -5.41634e-05 0)
(0.00300265 -6.77887e-05 0)
(0.00296039 -8.2867e-05 0)
(0.00291369 -9.951e-05 0)
(0.00286336 -0.000117784 0)
(0.00318053 -1.07472e-05 0)
(0.00317157 -2.1324e-05 0)
(0.00315576 -3.23609e-05 0)
(0.00313348 -4.41709e-05 0)
(0.00310523 -5.70015e-05 0)
(0.00307159 -7.10379e-05 0)
(0.00303325 -8.64152e-05 0)
(0.00299097 -0.000103218 0)
(0.00294549 -0.000121476 0)
(0.00324115 -1.10437e-05 0)
(0.00323301 -2.19971e-05 0)
(0.00321864 -3.34182e-05 0)
(0.00319838 -4.56107e-05 0)
(0.00317267 -5.8806e-05 0)
(0.00314208 -7.31681e-05 0)
(0.00310727 -8.88112e-05 0)
(0.00306895 -0.000105806 0)
(0.00302787 -0.000124177 0)
(0.00330392 -1.09936e-05 0)
(0.00329659 -2.19862e-05 0)
(0.00328358 -3.34845e-05 0)
(0.00326518 -4.57908e-05 0)
(0.00324178 -5.91268e-05 0)
(0.00321395 -7.36412e-05 0)
(0.00318231 -8.94321e-05 0)
(0.00314757 -0.000106561 0)
(0.00311044 -0.000125062 0)
(0.00336842 -1.04889e-05 0)
(0.00336193 -2.10849e-05 0)
(0.00335023 -3.2264e-05 0)
(0.00333357 -4.43258e-05 0)
(0.00331231 -5.74835e-05 0)
(0.00328698 -7.18806e-05 0)
(0.0032582 -8.76116e-05 0)
(0.00322664 -0.00010472 0)
(0.003193 -0.000123196 0)
(0.00343415 -9.40236e-06 0)
(0.00342853 -1.90691e-05 0)
(0.00341814 -2.94454e-05 0)
(0.00340314 -4.08008e-05 0)
(0.00338387 -5.33376e-05 0)
(0.00336085 -6.72065e-05 0)
(0.00333466 -8.25157e-05 0)
(0.00330596 -9.93113e-05 0)
(0.00327541 -0.000117552 0)
(0.00350038 -7.66134e-06 0)
(0.00349573 -1.57808e-05 0)
(0.00348666 -2.47184e-05 0)
(0.00347327 -3.47068e-05 0)
(0.00345589 -4.59763e-05 0)
(0.00343503 -5.87187e-05 0)
(0.00341127 -7.30652e-05 0)
(0.00338525 -8.90816e-05 0)
(0.00335761 -0.000106758 0)
(0.00356621 -5.45962e-06 0)
(0.00356276 -1.12078e-05 0)
(0.00355504 -1.76537e-05 0)
(0.0035432 -2.5246e-05 0)
(0.00352764 -3.4322e-05 0)
(0.00350888 -4.51252e-05 0)
(0.00348749 -5.78161e-05 0)
(0.0034641 -7.24699e-05 0)
(0.00343934 -8.90689e-05 0)
(0.00169184 -0.000483274 0)
(0.00163947 -0.00050967 0)
(0.00158988 -0.00053538 0)
(0.00154273 -0.000560617 0)
(0.0014977 -0.000585495 0)
(0.0014545 -0.000610055 0)
(0.0014129 -0.000634296 0)
(0.00137269 -0.000658198 0)
(0.00133367 -0.000681742 0)
(0.00129567 -0.000704915 0)
(0.00125848 -0.000727717 0)
(0.00122193 -0.000750163 0)
(0.00118582 -0.000772287 0)
(0.00114997 -0.000794141 0)
(0.00111419 -0.000815795 0)
(0.00107832 -0.00083734 0)
(0.00104222 -0.000858908 0)
(0.00100577 -0.0008807 0)
(0.000968895 -0.00090293 0)
(0.00181583 -0.000386179 0)
(0.00176829 -0.000409552 0)
(0.00172244 -0.000433053 0)
(0.00167825 -0.000456558 0)
(0.00163563 -0.000479984 0)
(0.00159448 -0.000503269 0)
(0.00155466 -0.000526365 0)
(0.00151606 -0.000549242 0)
(0.00147855 -0.000571882 0)
(0.00144199 -0.000594281 0)
(0.00140627 -0.000616445 0)
(0.00137126 -0.000638393 0)
(0.00133685 -0.000660158 0)
(0.00130294 -0.00068179 0)
(0.00126941 -0.000703349 0)
(0.00123619 -0.000724912 0)
(0.00120321 -0.000746588 0)
(0.00117042 -0.000768539 0)
(0.00113781 -0.00079092 0)
(0.00192978 -0.000310175 0)
(0.00188761 -0.000331139 0)
(0.00184635 -0.000352316 0)
(0.00180604 -0.000373659 0)
(0.0017667 -0.000395119 0)
(0.00172835 -0.000416639 0)
(0.001691 -0.000438167 0)
(0.00165462 -0.000459661 0)
(0.00161918 -0.000481097 0)
(0.00158463 -0.000502458 0)
(0.00155091 -0.000523738 0)
(0.00151797 -0.000544943 0)
(0.00148579 -0.000566098 0)
(0.00145431 -0.00058724 0)
(0.00142349 -0.000608417 0)
(0.00139332 -0.000629685 0)
(0.00136379 -0.000651126 0)
(0.0013349 -0.000672873 0)
(0.00130671 -0.000695048 0)
(0.00203812 -0.000252386 0)
(0.00200028 -0.000271278 0)
(0.00196304 -0.00029042 0)
(0.00192644 -0.000309789 0)
(0.00189053 -0.000329366 0)
(0.00185534 -0.000349117 0)
(0.00182091 -0.000369009 0)
(0.00178725 -0.000389011 0)
(0.00175436 -0.000409087 0)
(0.0017223 -0.000429231 0)
(0.00169111 -0.000449451 0)
(0.00166074 -0.000469736 0)
(0.00163121 -0.000490095 0)
(0.00160254 -0.000510548 0)
(0.00157475 -0.00053113 0)
(0.00154788 -0.000551878 0)
(0.00152197 -0.000572852 0)
(0.00149709 -0.000594152 0)
(0.00147334 -0.000615863 0)
(0.00214154 -0.000210162 0)
(0.00210758 -0.000227191 0)
(0.00207396 -0.000244555 0)
(0.00204078 -0.000262186 0)
(0.00200815 -0.000280026 0)
(0.00197612 -0.000298096 0)
(0.00194475 -0.00031637 0)
(0.00191413 -0.000334831 0)
(0.00188414 -0.000353857 0)
(0.00185475 -0.000373117 0)
(0.00182628 -0.000392203 0)
(0.00179872 -0.000411463 0)
(0.00177211 -0.000430893 0)
(0.00174646 -0.000450505 0)
(0.00172187 -0.000470348 0)
(0.00169839 -0.000490416 0)
(0.0016761 -0.00051075 0)
(0.0016551 -0.000531417 0)
(0.00163553 -0.000552465 0)
(0.00224091 -0.000180733 0)
(0.00221045 -0.000196232 0)
(0.00218019 -0.000212096 0)
(0.00215029 -0.000228184 0)
(0.00212085 -0.000244582 0)
(0.00209194 -0.000261278 0)
(0.00206364 -0.000278258 0)
(0.00203604 -0.000295524 0)
(0.00200887 -0.000313412 0)
(0.00198233 -0.000331282 0)
(0.00195668 -0.000349384 0)
(0.00193198 -0.000367706 0)
(0.00190826 -0.000386234 0)
(0.00188561 -0.00040501 0)
(0.00186414 -0.000424048 0)
(0.00184391 -0.000443335 0)
(0.00182504 -0.000462909 0)
(0.00180762 -0.00048281 0)
(0.00179178 -0.000503052 0)
(0.00233719 -0.000161655 0)
(0.00230989 -0.000175876 0)
(0.00228281 -0.000190401 0)
(0.00225605 -0.000205252 0)
(0.00222967 -0.00022044 0)
(0.00220377 -0.000235975 0)
(0.00217822 -0.00025187 0)
(0.00215317 -0.000268081 0)
(0.00212884 -0.000284593 0)
(0.0021052 -0.000301409 0)
(0.00208236 -0.000318515 0)
(0.00206044 -0.000335901 0)
(0.00203954 -0.000353563 0)
(0.00201979 -0.000371497 0)
(0.0020013 -0.000389711 0)
(0.00198397 -0.00040819 0)
(0.00196806 -0.000426933 0)
(0.00195373 -0.000446003 0)
(0.00194105 -0.000465331 0)
(0.00243119 -0.000150508 0)
(0.00240676 -0.000163677 0)
(0.00238254 -0.000177186 0)
(0.0023586 -0.000191032 0)
(0.00233497 -0.000205228 0)
(0.0023117 -0.000219785 0)
(0.00228869 -0.00023469 0)
(0.00226631 -0.000249921 0)
(0.00224457 -0.000265509 0)
(0.00222356 -0.000281424 0)
(0.00220338 -0.000297659 0)
(0.00218411 -0.000314207 0)
(0.00216585 -0.00033106 0)
(0.00214871 -0.000348209 0)
(0.00213279 -0.000365659 0)
(0.00211797 -0.000383349 0)
(0.00210476 -0.00040132 0)
(0.002093 -0.000419544 0)
(0.00208312 -0.000437979 0)
(0.00252349 -0.000145184 0)
(0.00250158 -0.000157559 0)
(0.00247991 -0.000170268 0)
(0.00245853 -0.000183217 0)
(0.00243723 -0.000196632 0)
(0.00241633 -0.000210402 0)
(0.00239592 -0.000224441 0)
(0.00237588 -0.000238959 0)
(0.00235651 -0.000253818 0)
(0.00233787 -0.000269003 0)
(0.00232004 -0.000284508 0)
(0.00230312 -0.000300325 0)
(0.00228717 -0.000316442 0)
(0.00227228 -0.000332845 0)
(0.00225855 -0.000349524 0)
(0.0022461 -0.000366466 0)
(0.00223507 -0.000383649 0)
(0.00222561 -0.000401043 0)
(0.00221788 -0.000418607 0)
(0.00261465 -0.000143935 0)
(0.00259495 -0.000155715 0)
(0.00257553 -0.000167712 0)
(0.00255623 -0.000180072 0)
(0.00253709 -0.000192912 0)
(0.00251844 -0.000205979 0)
(0.00250015 -0.000219419 0)
(0.00248226 -0.000233332 0)
(0.00246501 -0.000247565 0)
(0.00244846 -0.000262107 0)
(0.00243267 -0.000276947 0)
(0.00241774 -0.000292078 0)
(0.00240375 -0.000307487 0)
(0.0023908 -0.000323163 0)
(0.00237898 -0.000339092 0)
(0.00236842 -0.000355255 0)
(0.00235922 -0.000371624 0)
(0.00235151 -0.000388164 0)
(0.00234544 -0.000404827 0)
(0.00270495 -0.00014546 0)
(0.00268719 -0.000156751 0)
(0.00266958 -0.000168382 0)
(0.00265217 -0.000180341 0)
(0.00263501 -0.000192614 0)
(0.00261817 -0.000205228 0)
(0.00260175 -0.000218181 0)
(0.0025858 -0.00023146 0)
(0.00257039 -0.000245063 0)
(0.00255561 -0.000258978 0)
(0.00254154 -0.000273189 0)
(0.00252828 -0.000287683 0)
(0.00251591 -0.000302445 0)
(0.00250454 -0.000317456 0)
(0.00249425 -0.000332695 0)
(0.00248515 -0.000348136 0)
(0.00247735 -0.000363747 0)
(0.00247095 -0.000379488 0)
(0.00246608 -0.000395304 0)
(0.00279441 -0.000148478 0)
(0.0027783 -0.000159377 0)
(0.00276235 -0.000170588 0)
(0.0027466 -0.000182107 0)
(0.0027311 -0.000193936 0)
(0.00271594 -0.000206088 0)
(0.00270107 -0.000218589 0)
(0.0026866 -0.000231397 0)
(0.00267273 -0.000244491 0)
(0.00265944 -0.000257881 0)
(0.00264681 -0.000271551 0)
(0.00263493 -0.000285484 0)
(0.00262389 -0.000299665 0)
(0.00261377 -0.000314073 0)
(0.00260466 -0.000328683 0)
(0.00259666 -0.000343465 0)
(0.00258985 -0.000358383 0)
(0.00258433 -0.000373391 0)
(0.0025802 -0.000388432 0)
(0.0028833 -0.000151577 0)
(0.00286861 -0.00016224 0)
(0.00285401 -0.000173218 0)
(0.00283963 -0.000184379 0)
(0.0028255 -0.000195835 0)
(0.00281168 -0.000207595 0)
(0.0027981 -0.000219664 0)
(0.00278502 -0.000231994 0)
(0.00277242 -0.000244533 0)
(0.00276029 -0.000257465 0)
(0.00274881 -0.000270654 0)
(0.00273803 -0.000284084 0)
(0.00272802 -0.000297739 0)
(0.00271885 -0.000311597 0)
(0.0027106 -0.000325632 0)
(0.00270334 -0.000339812 0)
(0.00269716 -0.000354099 0)
(0.00269214 -0.000368441 0)
(0.00268836 -0.000382779 0)
(0.00297165 -0.000154057 0)
(0.00295811 -0.000164421 0)
(0.00294467 -0.000174989 0)
(0.00293143 -0.00018583 0)
(0.00291841 -0.000196949 0)
(0.00290565 -0.00020835 0)
(0.00289324 -0.000220033 0)
(0.00288123 -0.000231877 0)
(0.00286961 -0.000244013 0)
(0.00285845 -0.000256528 0)
(0.00284788 -0.000269277 0)
(0.00283793 -0.000282243 0)
(0.00282868 -0.00029541 0)
(0.00282018 -0.000308757 0)
(0.00281248 -0.000322261 0)
(0.00280567 -0.000335891 0)
(0.00279979 -0.000349608 0)
(0.00279493 -0.000363357 0)
(0.00279114 -0.000377075 0)
(0.00305936 -0.000154715 0)
(0.00304677 -0.000164674 0)
(0.00303431 -0.000174902 0)
(0.00302201 -0.000185396 0)
(0.00300992 -0.000196155 0)
(0.00299808 -0.000207182 0)
(0.00298653 -0.000218479 0)
(0.00297533 -0.000230046 0)
(0.00296451 -0.000241868 0)
(0.00295414 -0.000253928 0)
(0.00294425 -0.000266218 0)
(0.00293491 -0.000278726 0)
(0.00292618 -0.000291432 0)
(0.0029181 -0.000304314 0)
(0.00291073 -0.000317346 0)
(0.00290411 -0.000330495 0)
(0.00289829 -0.000343721 0)
(0.00289332 -0.000356964 0)
(0.00288923 -0.000370159 0)
(0.00314646 -0.000152427 0)
(0.0031346 -0.000162061 0)
(0.00312288 -0.000171966 0)
(0.0031113 -0.000182138 0)
(0.00309993 -0.000192573 0)
(0.00308884 -0.000203251 0)