/*--------------------------------*- C++ -*----------------------------------*\
| =========                 |                                                 |
| \\      /  F ield         | OpenFOAM: The Open Source CFD Toolbox           |
|  \\    /   O peration     | Version:  v2012                                 |
|   \\  /    A nd           | Website:  www.openfoam.com                      |
|    \\/     M anipulation  |                                                 |
\*---------------------------------------------------------------------------*/
FoamFile
{
    version     2.0;
    format      ascii;
    class       volScalarField;
    location    "7";
    object      sigmaHyd;
}
// * * * * * * * * * * * * * * * * * * * * * * * * * * * * * * * * * * * * * //

dimensions      [1 -1 -2 0 0 0 0];


internalField   nonuniform List<scalar> 
2000
(
1.37788e+08
1.3886e+08
1.44506e+08
1.46208e+08
1.50674e+08
1.50657e+08
1.50105e+08
1.46164e+08
1.40209e+08
1.35005e+08
1.28626e+08
1.24082e+08
1.18583e+08
1.14771e+08
1.09842e+08
1.06501e+08
1.01777e+08
9.8726e+07
9.39793e+07
9.11364e+07
1.35099e+08
1.35801e+08
1.41342e+08
1.424e+08
1.46462e+08
1.43523e+08
1.43056e+08
1.36225e+08
1.33092e+08
1.26362e+08
1.23033e+08
1.17524e+08
1.14388e+08
1.09807e+08
1.06684e+08
1.02692e+08
9.94248e+07
9.58153e+07
9.22739e+07
8.89262e+07
1.32754e+08
1.32709e+08
1.37283e+08
1.35515e+08
1.37611e+08
1.312e+08
1.30421e+08
1.23056e+08
1.21643e+08
1.15315e+08
1.13944e+08
1.08656e+08
1.07193e+08
1.02604e+08
1.00903e+08
9.68131e+07
9.47893e+07
9.10791e+07
8.86416e+07
8.53071e+07
1.28244e+08
1.26318e+08
1.29166e+08
1.24009e+08
1.24275e+08
1.17343e+08
1.16809e+08
1.10367e+08
1.10019e+08
1.04509e+08
1.04256e+08
9.94419e+07
9.90344e+07
9.47284e+07
9.40452e+07
9.01687e+07
8.91353e+07
8.56436e+07
8.41919e+07
8.11186e+07
1.20268e+08
1.16572e+08
1.17704e+08
1.11536e+08
1.11135e+08
1.04562e+08
1.0446e+08
9.86666e+07
9.90841e+07
9.4065e+07
9.46225e+07
9.01556e+07
9.05814e+07
8.65532e+07
8.67375e+07
8.31088e+07
8.29853e+07
7.97351e+07
7.9245e+07
7.63932e+07
1.09745e+08
1.04656e+08
1.05301e+08
9.85201e+07
9.83278e+07
9.19202e+07
9.2516e+07
8.7043e+07
8.82472e+07
8.35037e+07
8.4843e+07
8.06108e+07
8.18295e+07
7.80147e+07
7.90213e+07
7.55921e+07
7.63363e+07
7.32721e+07
7.36965e+07
7.09883e+07
9.61483e+07
9.00471e+07
9.13398e+07
8.42128e+07
8.49582e+07
7.86629e+07
8.02371e+07
7.49826e+07
7.70706e+07
7.25468e+07
7.46957e+07
7.06778e+07
7.26733e+07
6.90684e+07
7.08472e+07
6.7622e+07
6.91575e+07
6.62875e+07
6.7523e+07
6.4974e+07
8.01086e+07
7.3536e+07
7.58343e+07
6.87806e+07
7.07455e+07
6.47434e+07
6.74107e+07
6.24589e+07
6.54721e+07
6.1229e+07
6.41967e+07
6.04505e+07
6.32027e+07
5.98691e+07
6.23634e+07
5.94148e+07
6.16416e+07
5.90597e+07
6.0971e+07
5.87256e+07
6.28012e+07
5.62053e+07
5.95047e+07
5.28742e+07
5.6052e+07
5.05373e+07
5.42524e+07
4.97137e+07
5.36084e+07
4.97097e+07
5.3477e+07
5.003e+07
5.35589e+07
5.0492e+07
5.37738e+07
5.10576e+07
5.41132e+07
5.17025e+07
5.45338e+07
5.24037e+07
4.52084e+07
3.88849e+07
4.30531e+07
3.70555e+07
4.13168e+07
3.6405e+07
4.10374e+07
3.69762e+07
4.16293e+07
3.81041e+07
4.25478e+07
3.93738e+07
4.35441e+07
4.05784e+07
4.44929e+07
4.15294e+07
4.52847e+07
4.2117e+07
4.59305e+07
4.2739e+07
2.803e+07
2.21662e+07
2.70215e+07
2.17827e+07
2.69342e+07
2.27129e+07
2.80709e+07
2.45566e+07
2.97751e+07
2.66785e+07
3.15709e+07
2.87065e+07
3.31621e+07
3.03091e+07
3.42115e+07
3.11061e+07
3.46312e+07
3.17007e+07
3.62709e+07
3.60609e+07
1.17535e+07
6.47129e+06
1.18385e+07
7.46098e+06
1.33088e+07
9.88598e+06
1.57763e+07
1.29338e+07
1.85287e+07
1.60017e+07
2.11524e+07
1.87505e+07
2.33006e+07
2.08061e+07
2.45847e+07
2.19997e+07
2.55077e+07
2.38805e+07
2.93462e+07
2.94214e+07
-3.27086e+06
-7.87573e+06
-2.14531e+06
-5.592e+06
787606
-1.79479e+06
4.47958e+06
2.32579e+06
8.17464e+06
6.21746e+06
1.15354e+07
9.62311e+06
1.42531e+07
1.22454e+07
1.608e+07
1.40789e+07
1.78517e+07
1.65569e+07
2.23795e+07
2.24411e+07
-1.67642e+07
-2.06218e+07
-1.46753e+07
-1.71749e+07
-1.04338e+07
-1.21873e+07
-5.68317e+06
-7.16666e+06
-1.19424e+06
-2.59878e+06
2.7927e+06
1.35148e+06
6.03982e+06
4.44341e+06
8.36095e+06
6.66847e+06
1.05302e+07
9.40786e+06
1.52797e+07
1.54255e+07
-2.85026e+07
-3.15759e+07
-2.55658e+07
-2.7139e+07
-2.02165e+07
-2.11751e+07
-1.46036e+07
-1.54449e+07
-9.49062e+06
-1.03628e+07
-5.02127e+06
-6.00826e+06
-1.37528e+06
-2.58426e+06
1.2713e+06
-98565.1
3.66745e+06
2.80226e+06
8.51065e+06
8.84e+06
-3.83527e+07
-4.06472e+07
-3.47072e+07
-3.54031e+07
-2.84611e+07
-2.86608e+07
-2.21753e+07
-2.23888e+07
-1.65973e+07
-1.69364e+07
-1.17808e+07
-1.22988e+07
-7.85154e+06
-8.63619e+06
-4.96814e+06
-5.94791e+06
-2.40313e+06
-2.93015e+06
2.45225e+06
3.02614e+06
-4.62935e+07
-4.78432e+07
-4.2067e+07
-4.19236e+07
-3.50882e+07
-3.4531e+07
-2.82761e+07
-2.78548e+07
-2.23694e+07
-2.21662e+07
-1.73229e+07
-1.73534e+07
-1.31982e+07
-1.35267e+07
-1.01287e+07
-1.06707e+07
-7.41657e+06
-7.54889e+06
-2.60735e+06
-1.75825e+06
-5.23589e+07
-5.3174e+07
-4.7607e+07
-4.65733e+07
-3.996e+07
-3.86231e+07
-3.27566e+07
-3.17415e+07
-2.66792e+07
-2.59789e+07
-2.15283e+07
-2.11067e+07
-1.73006e+07
-1.72e+07
-1.40946e+07
-1.42078e+07
-1.12306e+07
-1.09597e+07
-6.48417e+06
-5.37585e+06
-5.65101e+07
-5.65982e+07
-5.11613e+07
-4.92122e+07
-4.2953e+07
-4.1083e+07
-3.56629e+07
-3.42919e+07
-2.96185e+07
-2.85783e+07
-2.44818e+07
-2.37224e+07
-2.0243e+07
-1.98019e+07
-1.69513e+07
-1.66937e+07
-1.39073e+07
-1.32495e+07
-9.1836e+06
-7.80756e+06
-5.90376e+07
-5.84693e+07
-5.28546e+07
-5.05276e+07
-4.46277e+07
-4.25666e+07
-3.75612e+07
-3.58719e+07
-3.15797e+07
-3.01474e+07
-2.64548e+07
-2.52904e+07
-2.22404e+07
-2.13779e+07
-1.88907e+07
-1.815e+07
-1.55411e+07
-1.43535e+07
-1.05444e+07
-8.82653e+06
-2.87573e+06
751825
-1.49405e+06
2.83714e+06
1.2807e+06
6.03403e+06
5.08309e+06
1.00723e+07
9.8101e+06
1.48407e+07
1.53357e+07
2.02298e+07
2.14699e+07
2.60717e+07
2.79296e+07
3.20619e+07
3.42313e+07
3.76433e+07
4.01171e+07
4.30267e+07
5.12188e+06
7.0763e+06
6.50717e+06
8.86375e+06
9.15116e+06
1.15984e+07
1.25306e+07
1.48964e+07
1.64822e+07
1.86776e+07
2.09398e+07
2.28934e+07
2.57957e+07
2.74159e+07
3.08403e+07
3.20212e+07
3.57343e+07
3.65833e+07
4.03085e+07
4.06575e+07
9.40732e+06
1.08698e+07
1.05596e+07
1.23347e+07
1.27136e+07
1.45278e+07
1.53949e+07
1.71419e+07
1.84957e+07
2.01442e+07
2.20009e+07
2.35196e+07
2.58467e+07
2.72251e+07
2.994e+07
3.1256e+07
3.41995e+07
3.53935e+07
3.82125e+07
3.92389e+07
1.31643e+07
1.46944e+07
1.41467e+07
1.59403e+07
1.59266e+07
1.77708e+07
1.81262e+07
1.99595e+07
2.06853e+07
2.25037e+07
2.36201e+07
2.54354e+07
2.69415e+07
2.87884e+07
3.066e+07
3.25019e+07
3.45958e+07
3.62479e+07
3.82861e+07
3.95097e+07
1.72873e+07
1.88503e+07
1.81156e+07
1.98979e+07
1.96223e+07
2.14589e+07
2.15034e+07
2.33562e+07
2.37259e+07
2.56038e+07
2.63297e+07
2.82438e+07
2.93447e+07
3.12653e+07
3.27066e+07
3.4515e+07
3.61423e+07
3.76603e+07
3.92056e+07
4.03282e+07
2.14614e+07
2.29218e+07
2.21317e+07
2.37722e+07
2.33986e+07
2.50901e+07
2.50191e+07
2.67311e+07
2.69694e+07
2.87025e+07
2.92796e+07
3.10165e+07
3.1936e+07
3.36181e+07
3.48213e+07
3.6355e+07
3.76926e+07
3.89839e+07
4.02428e+07
4.12547e+07
2.5336e+07
2.66336e+07
2.5857e+07
2.73006e+07
2.68978e+07
2.83865e+07
2.82705e+07
2.97735e+07
2.9947e+07
3.14533e+07
3.19328e+07
3.34165e+07
3.41902e+07
3.56061e+07
3.66146e+07
3.79058e+07
3.90296e+07
4.01366e+07
4.1216e+07
4.21104e+07
2.8792e+07
2.99265e+07
2.91825e+07
3.04324e+07
3.00141e+07
3.13029e+07
3.11477e+07
3.24453e+07
3.2551e+07
3.38422e+07
3.42157e+07
3.54784e+07
3.61048e+07
3.73058e+07
3.81364e+07
3.92325e+07
4.0176e+07
4.11207e+07
4.20574e+07
4.28306e+07
3.18457e+07
3.28379e+07
3.21261e+07
3.3206e+07
3.27708e+07
3.38841e+07
3.36838e+07
3.4803e+07
3.48331e+07
3.59426e+07
3.62054e+07
3.72846e+07
3.77673e+07
3.87875e+07
3.94516e+07
4.03782e+07
4.11545e+07
4.19537e+07
4.27514e+07
4.34055e+07
3.45534e+07
3.54266e+07
3.47415e+07
3.56777e+07
3.5223e+07
3.61867e+07
3.59385e+07
3.69059e+07
3.68588e+07
3.78131e+07
3.79671e+07
3.88888e+07
3.92332e+07
4.00982e+07
4.0604e+07
4.13859e+07
4.20026e+07
4.2677e+07
4.33364e+07
4.38903e+07
3.69755e+07
3.77516e+07
3.70852e+07
3.79018e+07
3.74243e+07
3.82619e+07
3.79639e+07
3.88018e+07
3.86775e+07
3.94987e+07
3.95462e+07
4.03325e+07
4.0544e+07
4.12757e+07
4.16309e+07
4.2287e+07
4.27508e+07
4.33106e+07
4.38345e+07
4.42807e+07
3.91702e+07
3.98698e+07
3.92115e+07
3.99305e+07
3.94244e+07
4.01573e+07
3.98062e+07
4.05356e+07
4.03325e+07
4.10411e+07
4.09831e+07
4.16537e+07
4.17356e+07
4.23504e+07
4.25592e+07
4.30997e+07
4.34112e+07
4.38595e+07
4.42396e+07
4.45876e+07
4.11941e+07
4.1836e+07
4.11733e+07
4.18148e+07
4.12722e+07
4.19207e+07
4.15108e+07
4.21513e+07
4.18658e+07
4.24803e+07
4.23149e+07
4.28865e+07
4.28386e+07
4.33519e+07
4.34138e+07
4.38538e+07
4.4009e+07
4.43628e+07
4.459e+07
4.48545e+07
4.31016e+07
4.37034e+07
4.30221e+07
4.36046e+07
4.30159e+07
4.35986e+07
4.31228e+07
4.36924e+07
4.33186e+07
4.3856e+07
4.35786e+07
4.40675e+07
4.38867e+07
4.43144e+07
4.42286e+07
4.45854e+07
4.45854e+07
4.48635e+07
4.49345e+07
4.51263e+07
4.49443e+07
4.55217e+07
4.48069e+07
4.53466e+07
4.47013e+07
4.52351e+07
4.46853e+07
4.52008e+07
4.47312e+07
4.52077e+07
4.48117e+07
4.52334e+07
4.49149e+07
4.52709e+07
4.5034e+07
4.53141e+07
4.51565e+07
4.5348e+07
4.52606e+07
4.53505e+07
4.67708e+07
4.73386e+07
4.65739e+07
4.70868e+07
4.63732e+07
4.68772e+07
4.62424e+07
4.67241e+07
4.6146e+07
4.65797e+07
4.60523e+07
4.64206e+07
4.59528e+07
4.62453e+07
4.58468e+07
4.60548e+07
4.57268e+07
4.58411e+07
4.55784e+07
4.5601e+07
4.86313e+07
4.92063e+07
4.83749e+07
4.88865e+07
4.80903e+07
4.85991e+07
4.78572e+07
4.83362e+07
4.76219e+07
4.8035e+07
4.73487e+07
4.76773e+07
4.70369e+07
4.72737e+07
4.66954e+07
4.68367e+07
4.63254e+07
4.63654e+07
4.59214e+07
4.58571e+07
5.05861e+07
5.11871e+07
5.02884e+07
5.08444e+07
4.99544e+07
5.05083e+07
4.96296e+07
5.01243e+07
4.92392e+07
4.96332e+07
4.87583e+07
4.90383e+07
4.82038e+07
4.83704e+07
4.75997e+07
4.76549e+07
4.69546e+07
4.68951e+07
4.62595e+07
4.60819e+07
5.26705e+07
5.32673e+07
5.23809e+07
5.29457e+07
5.20277e+07
5.25442e+07
5.15847e+07
5.1991e+07
5.09895e+07
5.12598e+07
5.02506e+07
5.03915e+07
4.94119e+07
4.94343e+07
4.85114e+07
4.84202e+07
4.75607e+07
4.73514e+07
4.65459e+07
4.62261e+07
5.45964e+07
5.48306e+07
5.42784e+07
5.44388e+07
5.38586e+07
5.39506e+07
5.32611e+07
5.32421e+07
5.24466e+07
5.23256e+07
5.14646e+07
5.12599e+07
5.03717e+07
5.01001e+07
4.92139e+07
4.88899e+07
4.80118e+07
4.76374e+07
4.67531e+07
4.63344e+07
4.58276e+07
4.6436e+07
4.87226e+07
4.87777e+07
5.08017e+07
5.0496e+07
5.23112e+07
5.19642e+07
5.36541e+07
5.33799e+07
5.49586e+07
5.47781e+07
5.62355e+07
5.61474e+07
5.74724e+07
5.74755e+07
5.86622e+07
5.87593e+07
5.98083e+07
6.00062e+07
6.09234e+07
6.12314e+07
6.20277e+07
6.24552e+07
6.31454e+07
6.37013e+07
6.4303e+07
6.49928e+07
6.55257e+07
6.63501e+07
6.68369e+07
6.77938e+07
6.82759e+07
6.93727e+07
6.99387e+07
7.11958e+07
7.19267e+07
7.32759e+07
7.38106e+07
7.46819e+07
4.37239e+07
4.33558e+07
4.56434e+07
4.51149e+07
4.73296e+07
4.6816e+07
4.89643e+07
4.85518e+07
5.06196e+07
5.03081e+07
5.22766e+07
5.20502e+07
5.39088e+07
5.37584e+07
5.55023e+07
5.54268e+07
5.70547e+07
5.70583e+07
5.85716e+07
5.86606e+07
6.00645e+07
6.02451e+07
6.15484e+07
6.18255e+07
6.30404e+07
6.34162e+07
6.45572e+07
6.503e+07
6.6112e+07
6.66755e+07
6.77151e+07
6.83604e+07
6.93911e+07
7.01182e+07
7.12185e+07
7.204e+07
7.32806e+07
7.41194e+07
7.51299e+07
7.55253e+07
4.14747e+07
4.16383e+07
4.31477e+07
4.32521e+07
4.48422e+07
4.49602e+07
4.66262e+07
4.6765e+07
4.84575e+07
4.86096e+07
5.02893e+07
5.04518e+07
5.20974e+07
5.22728e+07
5.38743e+07
5.40677e+07
5.5621e+07
5.58382e+07
5.73423e+07
5.75875e+07
5.90449e+07
5.93204e+07
6.07391e+07
6.1047e+07
6.24362e+07
6.27785e+07
6.41468e+07
6.45231e+07
6.58771e+07
6.62833e+07
6.76287e+07
6.8059e+07
6.94147e+07
6.98719e+07
7.12977e+07
7.17965e+07
7.33451e+07
7.38265e+07
7.51568e+07
7.51819e+07
4.09921e+07
4.15275e+07
4.25023e+07
4.29716e+07
4.40601e+07
4.45126e+07
4.57423e+07
4.61761e+07
4.7506e+07
4.79108e+07
4.93009e+07
4.96744e+07
5.10993e+07
5.1446e+07
5.28905e+07
5.32196e+07
5.46724e+07
5.49926e+07
5.64402e+07
5.67481e+07
5.81899e+07
5.84816e+07
5.9929e+07
6.02104e+07
6.16692e+07
6.19441e+07
6.34187e+07
6.36869e+07
6.51787e+07
6.54353e+07
6.69443e+07
6.71824e+07
6.87202e+07
6.89414e+07
7.05553e+07
7.07711e+07
7.25028e+07
7.26503e+07
7.41825e+07
7.38729e+07
4.14144e+07
4.20468e+07
4.27592e+07
4.3323e+07
4.41351e+07
4.46776e+07
4.56343e+07
4.61498e+07
4.72258e+07
4.77061e+07
4.88706e+07
4.93093e+07
5.05455e+07
5.09477e+07
5.22473e+07
5.26199e+07
5.39755e+07
5.43122e+07
5.56879e+07
5.59481e+07
5.73537e+07
5.75873e+07
5.90204e+07
5.92245e+07
6.06948e+07
6.0865e+07
6.23791e+07
6.25147e+07
6.40681e+07
6.41621e+07
6.57495e+07
6.57914e+07
6.7422e+07
6.74144e+07
6.91213e+07
6.90676e+07
7.08775e+07
7.07154e+07
7.23461e+07
7.17605e+07
4.21345e+07
4.27515e+07
4.33175e+07
4.38618e+07
4.45148e+07
4.50335e+07
4.58342e+07
4.63347e+07
4.72526e+07
4.77141e+07
4.87269e+07
4.91443e+07
5.02415e+07
5.06078e+07
5.17794e+07
5.20824e+07
5.33258e+07
5.35482e+07
5.48389e+07
5.5063e+07
5.64323e+07
5.65988e+07
5.79929e+07
5.80947e+07
5.95307e+07
5.95699e+07
6.1078e+07
6.10788e+07
6.26239e+07
6.25423e+07
6.41415e+07
6.39955e+07
6.5645e+07
6.54275e+07
6.71454e+07
6.68578e+07
6.86521e+07
6.82352e+07
6.98699e+07
6.90828e+07
4.28742e+07
4.34215e+07
4.39014e+07
4.43588e+07
4.4899e+07
4.53352e+07
4.60292e+07
4.64359e+07
4.72499e+07
4.76082e+07
4.85232e+07
4.88253e+07
4.98373e+07
5.00905e+07
5.11728e+07
5.13777e+07
5.25286e+07
5.27134e+07
5.39426e+07
5.40655e+07
5.53615e+07
5.5407e+07
5.67504e+07
5.67285e+07
5.81198e+07
5.80436e+07
5.94984e+07
5.93415e+07
6.08439e+07
6.0612e+07
6.21781e+07
6.18767e+07
6.3484e+07
6.31006e+07
6.47732e+07
6.43221e+07
6.60182e+07
6.5401e+07
6.69781e+07
6.60738e+07
4.35105e+07
4.39629e+07
4.43796e+07
4.47496e+07
4.52201e+07
4.55585e+07
4.61574e+07
4.64694e+07
4.71766e+07
4.74515e+07
4.82444e+07
4.84852e+07
4.93935e+07
4.9629e+07
5.06164e+07
5.08112e+07
5.1829e+07
5.19278e+07
5.30107e+07
5.30325e+07
5.41984e+07
5.41511e+07
5.53898e+07
5.52733e+07
5.65743e+07
5.63781e+07
5.77297e+07
5.74446e+07
5.88471e+07
5.84918e+07
5.99811e+07
5.95773e+07
6.11134e+07
6.06455e+07
6.22161e+07
6.16052e+07
6.31644e+07
6.24539e+07
6.39155e+07
6.29418e+07
4.39951e+07
4.43575e+07
4.47107e+07
4.49883e+07
4.53891e+07
4.56325e+07
4.61682e+07
4.64126e+07
4.70445e+07
4.72591e+07
4.79631e+07
4.81298e+07
4.89643e+07
4.91015e+07
5.00155e+07
5.00733e+07
5.10092e+07
5.09772e+07
5.19717e+07
5.18771e+07
5.29421e+07
5.2787e+07
5.39178e+07
5.36959e+07
5.4884e+07
5.45916e+07
5.58291e+07
5.54734e+07
5.67647e+07
5.63579e+07
5.7717e+07
5.72359e+07
5.86443e+07
5.80552e+07
5.94825e+07
5.87899e+07
6.0228e+07
5.94049e+07
6.07542e+07
5.97455e+07
4.43813e+07
4.46732e+07
4.49458e+07
4.51555e+07
4.54545e+07
4.56538e+07
4.61214e+07
4.63451e+07
4.68609e+07
4.69737e+07
4.75478e+07
4.76376e+07
4.83723e+07
4.84581e+07
4.92363e+07
4.92033e+07
5.0012e+07
4.99257e+07
5.07968e+07
5.06625e+07
5.15966e+07
5.14049e+07
5.23965e+07
5.2141e+07
5.31852e+07
5.28643e+07
5.39588e+07
5.35714e+07
5.47189e+07
5.42558e+07
5.54551e+07
5.49009e+07
5.61374e+07
5.54859e+07
5.6746e+07
5.59933e+07
5.72585e+07
5.63913e+07
5.75994e+07
5.65994e+07
4.46879e+07
4.49149e+07
4.51427e+07
4.5304e+07
4.55524e+07
4.5702e+07
4.60644e+07
4.61734e+07
4.66068e+07
4.66783e+07
4.71778e+07
4.72271e+07
4.7828e+07
4.78198e+07
4.84757e+07
4.84077e+07
4.91057e+07
4.89827e+07
4.97316e+07
4.95516e+07
5.03531e+07
5.01108e+07
5.09659e+07
5.06595e+07
5.15667e+07
5.11944e+07
5.21511e+07
5.17095e+07
5.27111e+07
5.21947e+07
5.32339e+07
5.26368e+07
5.37032e+07
5.30206e+07
5.41021e+07
5.3327e+07
5.44061e+07
5.35277e+07
5.45763e+07
5.36094e+07
4.49056e+07
4.50771e+07
4.5262e+07
4.53759e+07
4.55771e+07
4.56609e+07
4.59318e+07
4.59834e+07
4.63284e+07
4.63447e+07
4.67651e+07
4.67418e+07
4.72395e+07
4.71732e+07
4.77206e+07
4.75978e+07
4.81928e+07
4.80233e+07
4.8658e+07
4.84277e+07
4.91076e+07
4.88163e+07
4.95449e+07
4.9193e+07
4.99691e+07
4.95557e+07
5.03746e+07
4.9897e+07
5.07526e+07
5.02074e+07
5.1092e+07
5.04755e+07
5.13795e+07
5.0687e+07
5.15967e+07
5.08199e+07
5.17171e+07
5.08492e+07
5.17353e+07
5.08215e+07
4.50723e+07
4.52043e+07
4.53389e+07
4.54151e+07
4.55574e+07
4.55888e+07
4.57792e+07
4.57753e+07
4.60276e+07
4.59872e+07
4.63058e+07
4.62342e+07
4.66348e+07
4.65326e+07
4.69819e+07
4.68393e+07
4.73238e+07
4.71135e+07
4.76268e+07
4.73594e+07
4.79087e+07
4.75849e+07
4.81793e+07
4.78043e+07
4.84405e+07
4.80124e+07
4.86845e+07
4.81996e+07
4.89016e+07
4.83566e+07
4.90818e+07
4.84734e+07
4.92125e+07
4.8536e+07
4.92735e+07
4.85194e+07
4.92359e+07
4.8401e+07
4.91232e+07
4.82781e+07
4.52236e+07
4.53029e+07
4.5374e+07
4.53966e+07
4.54781e+07
4.54674e+07
4.55894e+07
4.55549e+07
4.57225e+07
4.56641e+07
4.58837e+07
4.5801e+07
4.60793e+07
4.59546e+07
4.628e+07
4.60953e+07
4.64688e+07
4.62497e+07
4.66441e+07
4.63643e+07
4.67833e+07
4.64623e+07
4.69174e+07
4.65514e+07
4.70412e+07
4.66245e+07
4.71451e+07
4.66745e+07
4.72208e+07
4.66948e+07
4.72605e+07
4.66777e+07
4.72534e+07
4.66098e+07
4.71779e+07
4.64638e+07
4.70029e+07
4.62185e+07
4.67761e+07
4.60151e+07
4.53352e+07
4.53759e+07
4.53806e+07
4.53821e+07
4.54042e+07
4.53775e+07
4.54342e+07
4.53804e+07
4.54776e+07
4.53936e+07
4.55351e+07
4.5416e+07
4.55975e+07
4.54369e+07
4.56503e+07
4.5456e+07
4.57155e+07
4.54801e+07
4.57702e+07
4.54904e+07
4.5804e+07
4.54793e+07
4.58182e+07
4.54476e+07
4.58129e+07
4.53971e+07
4.57863e+07
4.53263e+07
4.57344e+07
4.52304e+07
4.56513e+07
4.51029e+07
4.55271e+07
4.49302e+07
4.53382e+07
4.46825e+07
4.50519e+07
4.43409e+07
4.4736e+07
4.40792e+07
4.54652e+07
4.54821e+07
4.54225e+07
4.54045e+07
4.53609e+07
4.53132e+07
4.52953e+07
4.52131e+07
4.5234e+07
4.51163e+07
4.51884e+07
4.50463e+07
4.51522e+07
4.4975e+07
4.51056e+07
4.48802e+07
4.5049e+07
4.47809e+07
4.49848e+07
4.46771e+07
4.49058e+07
4.45605e+07
4.48076e+07
4.44281e+07
4.4695e+07
4.42868e+07
4.45686e+07
4.41319e+07
4.44231e+07
4.39573e+07
4.42526e+07
4.37572e+07
4.40471e+07
4.35187e+07
4.37814e+07
4.32092e+07
4.34213e+07
4.28107e+07
4.30496e+07
4.25185e+07
4.56026e+07
4.55766e+07
4.54783e+07
4.54284e+07
4.53468e+07
4.5262e+07
4.51828e+07
4.50536e+07
4.50027e+07
4.48552e+07
4.48676e+07
4.47056e+07
4.47347e+07
4.45069e+07
4.45567e+07
4.42939e+07
4.43784e+07
4.40823e+07
4.4208e+07
4.3901e+07
4.40467e+07
4.37109e+07
4.38727e+07
4.35199e+07
4.36971e+07
4.33248e+07
4.35117e+07
4.3119e+07
4.33103e+07
4.28986e+07
4.30898e+07
4.26625e+07
4.28438e+07
4.24003e+07
4.25437e+07
4.20724e+07
4.21523e+07
4.16653e+07
4.17657e+07
4.13867e+07
4.56877e+07
4.55974e+07
4.54684e+07
4.53857e+07
4.52752e+07
4.51337e+07
4.50257e+07
4.48613e+07
4.47794e+07
4.45845e+07
4.45392e+07
4.42883e+07
4.42775e+07
4.39866e+07
4.40084e+07
4.36923e+07
4.37448e+07
4.34249e+07
4.35151e+07
4.31842e+07
4.32963e+07
4.2949e+07
4.30766e+07
4.27162e+07
4.28545e+07
4.24852e+07
4.26274e+07
4.22533e+07
4.23931e+07
4.20197e+07
4.2153e+07
4.17886e+07
4.19059e+07
4.15488e+07
4.16214e+07
4.12678e+07
4.12637e+07
4.09383e+07
4.09447e+07
4.07388e+07
4.5722e+07
4.55991e+07
4.54065e+07
4.52825e+07
4.51099e+07
4.49251e+07
4.47861e+07
4.45554e+07
4.44427e+07
4.41437e+07
4.4055e+07
4.37274e+07
4.36782e+07
4.33309e+07
4.33362e+07
4.29981e+07
4.30386e+07
4.2696e+07
4.27592e+07
4.23986e+07
4.24887e+07
4.2122e+07
4.22345e+07
4.1871e+07
4.19966e+07
4.16421e+07
4.17719e+07
4.14325e+07
4.15585e+07
4.12424e+07
4.13589e+07
4.10742e+07
4.11724e+07
4.09279e+07
4.09845e+07
4.07724e+07
4.07531e+07
4.05848e+07
4.05547e+07
4.04879e+07
4.57603e+07
4.55876e+07
4.53514e+07
4.52042e+07
4.49334e+07
4.47146e+07
4.4431e+07
4.41979e+07
4.39721e+07
4.37484e+07
4.35077e+07
4.32536e+07
4.30458e+07
4.28158e+07
4.2681e+07
4.24689e+07
4.23425e+07
4.21137e+07
4.20005e+07
4.17747e+07
4.16969e+07
4.14867e+07
4.1438e+07
4.12447e+07
4.12172e+07
4.10426e+07
4.10314e+07
4.08792e+07
4.08805e+07
4.07545e+07
4.07652e+07
4.06677e+07
4.06819e+07
4.06093e+07
4.06094e+07
4.05551e+07
4.05264e+07
4.05047e+07
4.04834e+07
4.04896e+07
8.74944e+07
8.61026e+07
8.41517e+07
8.30704e+07
8.12591e+07
8.02993e+07
7.8421e+07
7.75178e+07
7.55401e+07
7.46841e+07
7.26223e+07
7.1811e+07
6.96768e+07
6.89057e+07
6.67044e+07
6.59685e+07
6.37038e+07
6.29989e+07
6.06747e+07
5.99968e+07
5.76176e+07
5.6963e+07
5.4534e+07
5.38994e+07
5.1427e+07
5.08104e+07
4.83035e+07
4.7705e+07
4.5178e+07
4.4604e+07
4.20846e+07
4.15543e+07
3.90961e+07
3.86407e+07
3.63088e+07
3.59196e+07
3.36804e+07
3.32409e+07
3.10753e+07
3.10945e+07
8.63378e+07
8.4654e+07
8.34781e+07
8.20963e+07
8.09264e+07
7.96878e+07
7.83664e+07
7.72147e+07
7.57268e+07
7.46564e+07
7.30234e+07
7.20336e+07
7.02713e+07
6.93589e+07
6.74757e+07
6.66364e+07
6.46375e+07
6.38675e+07
6.17571e+07
6.10526e+07
5.88346e+07
5.81927e+07
5.58714e+07
5.52904e+07
5.28714e+07
5.2352e+07
4.98437e+07
4.9391e+07
4.68081e+07
4.6435e+07
4.38053e+07
4.35342e+07
4.09014e+07
4.07424e+07
3.81232e+07
3.80031e+07
3.53059e+07
3.51454e+07
3.26233e+07
3.31945e+07
8.36685e+07
8.18021e+07
8.12926e+07
7.97168e+07
7.9162e+07
7.7742e+07
7.6992e+07
7.56836e+07
7.4719e+07
7.35211e+07
7.23594e+07
7.12747e+07
6.99312e+07
6.89593e+07
6.74434e+07
6.65828e+07
6.49009e+07
6.41506e+07
6.23074e+07
6.16671e+07
5.96664e+07
5.91375e+07
5.69825e+07
5.65684e+07
5.42638e+07
5.39706e+07
5.15237e+07
5.13615e+07
4.87861e+07
4.87703e+07
4.60914e+07
4.62396e+07
4.34844e+07
4.37954e+07
4.09401e+07
4.13739e+07
3.83309e+07
3.89613e+07
3.60919e+07
3.74172e+07
8.02509e+07
7.84149e+07
7.84131e+07
7.68523e+07
7.67642e+07
7.53674e+07
7.5066e+07
7.37987e+07
7.326e+07
7.2125e+07
7.13581e+07
7.03608e+07
6.9376e+07
6.85194e+07
6.7324e+07
6.66094e+07
6.52094e+07
6.4638e+07
6.30383e+07
6.26119e+07
6.08174e+07
6.05385e+07
5.85545e+07
5.8427e+07
5.62602e+07
5.62897e+07
5.39503e+07
5.41451e+07
5.16493e+07
5.20214e+07
4.93939e+07
4.99559e+07
4.72184e+07
4.79733e+07
4.5109e+07
4.60557e+07
4.30354e+07
4.42489e+07
4.13622e+07
4.31177e+07
7.62949e+07
7.44751e+07
7.50311e+07
7.34583e+07
7.38962e+07
7.24872e+07
7.27101e+07
7.14402e+07
7.14232e+07
7.02967e+07
7.00419e+07
6.90656e+07
6.85784e+07
6.77569e+07
6.70419e+07
6.63787e+07
6.54399e+07
6.49378e+07
6.37793e+07
6.34414e+07
6.20676e+07
6.18974e+07
6.03136e+07
6.03155e+07
5.85289e+07
5.87087e+07
5.67298e+07
5.70953e+07
5.49401e+07
5.55022e+07
5.31934e+07
5.3964e+07
5.15234e+07
5.25119e+07
4.99434e+07
5.11661e+07
4.84812e+07
5.00082e+07
4.73926e+07
4.93379e+07
7.16535e+07
6.98228e+07
7.09703e+07
6.93528e+07
7.03604e+07
6.89044e+07
6.97046e+07
6.83959e+07
6.89624e+07
6.78047e+07
6.81339e+07
6.71337e+07
6.72266e+07
6.63888e+07
6.62474e+07
6.55765e+07
6.52033e+07
6.47036e+07
6.41017e+07
6.37776e+07
6.29506e+07
6.28062e+07
6.17593e+07
6.17993e+07
6.05398e+07
6.07699e+07
5.93082e+07
5.97359e+07
5.80873e+07
5.8723e+07
5.69083e+07
5.7764e+07
5.58057e+07
5.68959e+07
5.48164e+07
5.61734e+07
5.40158e+07
5.57083e+07
5.35539e+07
5.5531e+07
6.63247e+07
6.45405e+07
6.62101e+07
6.46182e+07
6.61275e+07
6.4706e+07
6.60144e+07
6.4736e+07
6.58301e+07
6.47004e+07
6.55692e+07
6.45958e+07
6.52335e+07
6.4423e+07
6.48294e+07
6.41867e+07
6.43643e+07
6.38923e+07
6.38457e+07
6.35453e+07
6.32804e+07
6.31526e+07
6.26765e+07
6.27241e+07
6.20455e+07
6.22742e+07
6.14037e+07
6.1823e+07
6.07741e+07
6.13971e+07
6.01871e+07
6.10293e+07
5.96801e+07
6.07648e+07
5.93137e+07
6.06907e+07
5.92043e+07
6.09343e+07
5.93815e+07
6.12561e+07
6.06272e+07
5.90576e+07
6.11254e+07
5.97264e+07
6.15828e+07
6.02662e+07
6.19538e+07
6.07736e+07
6.22757e+07
6.12495e+07
6.25475e+07
6.16737e+07
6.27633e+07
6.20352e+07
6.29204e+07
6.23313e+07
6.30175e+07
6.25637e+07
6.30556e+07
6.27381e+07
6.30402e+07
6.28651e+07
6.29824e+07
6.29605e+07
6.2899e+07
6.3045e+07
6.28126e+07
6.31433e+07
6.27505e+07
6.32839e+07
6.27443e+07
6.34994e+07
6.28354e+07
6.38425e+07
6.3106e+07
6.44258e+07
6.36965e+07
6.53646e+07
6.44957e+07
6.61533e+07
5.50606e+07
5.33871e+07
5.60205e+07
5.46325e+07
5.67799e+07
5.56705e+07
5.7601e+07
5.66601e+07
5.84461e+07
5.76106e+07
5.92461e+07
5.84967e+07
5.9965e+07
5.93048e+07
6.05966e+07
6.00369e+07
6.11496e+07
6.07043e+07
6.16397e+07
6.13223e+07
6.20855e+07
6.19093e+07
6.25077e+07
6.24851e+07
6.29286e+07
6.30716e+07
6.33719e+07
6.36928e+07
6.38629e+07
6.4374e+07
6.44295e+07
6.51459e+07
6.51148e+07
6.60674e+07
6.60156e+07
6.72622e+07
6.72661e+07
6.87939e+07
6.85907e+07
6.99349e+07
4.74496e+07
4.69875e+07
5.05341e+07
5.00726e+07
5.24841e+07
5.19816e+07
5.38489e+07
5.33707e+07
5.50152e+07
5.46124e+07
5.61152e+07
5.58073e+07
5.71704e+07
5.69613e+07
5.81781e+07
5.80663e+07
5.91374e+07
5.912e+07
6.00533e+07
6.01284e+07
6.09364e+07
6.11048e+07
6.18026e+07
6.20683e+07
6.26723e+07
6.3043e+07
6.35696e+07
6.40556e+07
6.45203e+07
6.51337e+07
6.55533e+07
6.63092e+07
6.67168e+07
6.76448e+07
6.8117e+07
6.92634e+07
6.98598e+07
7.11782e+07
7.15234e+07
7.25686e+07
)
;

boundaryField
{
    back
    {
        type            empty;
    }
    front
    {
        type            empty;
    }
    left
    {
        type            symmetry;
    }
    hole
    {
        type            zeroGradient;
    }
    down
    {
        type            symmetry;
    }
    right
    {
        type            zeroGradient;
    }
    up
    {
        type            zeroGradient;
    }
}


// ************************************************************************* //
