/*--------------------------------*- C++ -*----------------------------------*\
| =========                 |                                                 |
| \\      /  F ield         | OpenFOAM: The Open Source CFD Toolbox           |
|  \\    /   O peration     | Version:  v2012                                 |
|   \\  /    A nd           | Website:  www.openfoam.com                      |
|    \\/     M anipulation  |                                                 |
\*---------------------------------------------------------------------------*/
FoamFile
{
    version     2.0;
    format      ascii;
    class       volScalarField;
    location    "7";
    object      sigmaEq;
}
// * * * * * * * * * * * * * * * * * * * * * * * * * * * * * * * * * * * * * //

dimensions      [1 -1 -2 0 0 0 0];


internalField   nonuniform List<scalar> 
2000
(
2.43e+08
2.43e+08
2.43e+08
2.43e+08
2.43e+08
2.43e+08
2.4229e+08
2.29569e+08
2.04429e+08
2.04391e+08
1.7808e+08
1.84144e+08
1.61011e+08
1.68779e+08
1.49079e+08
1.56805e+08
1.39672e+08
1.46905e+08
1.31442e+08
1.37506e+08
2.43e+08
2.43e+08
2.43e+08
2.43e+08
2.43e+08
2.43e+08
2.28104e+08
2.20877e+08
2.01949e+08
2.00406e+08
1.81336e+08
1.85214e+08
1.66088e+08
1.7337e+08
1.5449e+08
1.63504e+08
1.45068e+08
1.54878e+08
1.36597e+08
1.46207e+08
2.43e+08
2.43e+08
2.43e+08
2.43e+08
2.39052e+08
2.27468e+08
2.1591e+08
2.09458e+08
1.96931e+08
1.95622e+08
1.82435e+08
1.85143e+08
1.71058e+08
1.76668e+08
1.61722e+08
1.69365e+08
1.53687e+08
1.62722e+08
1.46326e+08
1.55726e+08
2.43e+08
2.43e+08
2.41238e+08
2.2769e+08
2.2034e+08
2.10671e+08
2.02687e+08
1.97509e+08
1.8975e+08
1.88435e+08
1.8022e+08
1.81922e+08
1.7268e+08
1.76708e+08
1.66279e+08
1.7207e+08
1.60488e+08
1.67552e+08
1.54933e+08
1.6237e+08
2.43e+08
2.29713e+08
2.18819e+08
2.09065e+08
1.99936e+08
1.93259e+08
1.87446e+08
1.83971e+08
1.79858e+08
1.79092e+08
1.74832e+08
1.76254e+08
1.70927e+08
1.74079e+08
1.67447e+08
1.71903e+08
1.64026e+08
1.69367e+08
1.60462e+08
1.65876e+08
2.25186e+08
2.06051e+08
1.97537e+08
1.8654e+08
1.80528e+08
1.75048e+08
1.72436e+08
1.70405e+08
1.69301e+08
1.69408e+08
1.68084e+08
1.69684e+08
1.67308e+08
1.70018e+08
1.66376e+08
1.69867e+08
1.65054e+08
1.68979e+08
1.6326e+08
1.66927e+08
1.96306e+08
1.76769e+08
1.73035e+08
1.62068e+08
1.61287e+08
1.56401e+08
1.58329e+08
1.56795e+08
1.59301e+08
1.59558e+08
1.61245e+08
1.62589e+08
1.62944e+08
1.65006e+08
1.63998e+08
1.66488e+08
1.64319e+08
1.66915e+08
1.63932e+08
1.65981e+08
1.62857e+08
1.44553e+08
1.46379e+08
1.36812e+08
1.41682e+08
1.37715e+08
1.44384e+08
1.42979e+08
1.49293e+08
1.4908e+08
1.53964e+08
1.54414e+08
1.57636e+08
1.58471e+08
1.6022e+08
1.61203e+08
1.61861e+08
1.62711e+08
1.62699e+08
1.62843e+08
1.27181e+08
1.1152e+08
1.18852e+08
1.11859e+08
1.21974e+08
1.19363e+08
1.30171e+08
1.28867e+08
1.38563e+08
1.37622e+08
1.45545e+08
1.44746e+08
1.50847e+08
1.50064e+08
1.54587e+08
1.53568e+08
1.57123e+08
1.55284e+08
1.59212e+08
1.5507e+08
9.11188e+07
7.95052e+07
9.18354e+07
8.87765e+07
1.02913e+08
1.02378e+08
1.15808e+08
1.15137e+08
1.26692e+08
1.25575e+08
1.3508e+08
1.33731e+08
1.41414e+08
1.40163e+08
1.46382e+08
1.45627e+08
1.50855e+08
1.50752e+08
1.55601e+08
1.55348e+08
5.61799e+07
5.07769e+07
6.71901e+07
6.95385e+07
8.58229e+07
8.78549e+07
1.02334e+08
1.02709e+08
1.1488e+08
1.14142e+08
1.23915e+08
1.22759e+08
1.30123e+08
1.29479e+08
1.34204e+08
1.35759e+08
1.36934e+08
1.4305e+08
1.38581e+08
1.46506e+08
2.36405e+07
3.11007e+07
4.7817e+07
5.67167e+07
7.20013e+07
7.64377e+07
9.02569e+07
9.13675e+07
1.03505e+08
1.0272e+08
1.1309e+08
1.11471e+08
1.19984e+08
1.18484e+08
1.24799e+08
1.24297e+08
1.27777e+08
1.28316e+08
1.28626e+08
1.3188e+08
9.94913e+06
3.32077e+07
3.8667e+07
5.26699e+07
6.26096e+07
6.88554e+07
7.9939e+07
8.1581e+07
9.2429e+07
9.15413e+07
1.0144e+08
9.94012e+07
1.07842e+08
1.0575e+08
1.1218e+08
1.10874e+08
1.14763e+08
1.14699e+08
1.1574e+08
1.18637e+08
3.57114e+07
5.00402e+07
4.25062e+07
5.66354e+07
5.80378e+07
6.52755e+07
7.13683e+07
7.36954e+07
8.16329e+07
8.11035e+07
8.93001e+07
8.73796e+07
9.48819e+07
9.26895e+07
9.87765e+07
9.7244e+07
1.01237e+08
1.01126e+08
1.02223e+08
1.04811e+08
5.93231e+07
6.82373e+07
5.3594e+07
6.4815e+07
5.79587e+07
6.51165e+07
6.50182e+07
6.79837e+07
7.1823e+07
7.18994e+07
7.74906e+07
7.59834e+07
8.19209e+07
7.99603e+07
8.52328e+07
8.38256e+07
8.74597e+07
8.74212e+07
8.82558e+07
9.01859e+07
7.91465e+07
8.42218e+07
6.58894e+07
7.38774e+07
6.09012e+07
6.71269e+07
6.10004e+07
6.43381e+07
6.34854e+07
6.42397e+07
6.65645e+07
6.56394e+07
6.94712e+07
6.7924e+07
7.1948e+07
7.08056e+07
7.37359e+07
7.37905e+07
7.41558e+07
7.52246e+07
9.50577e+07
9.72103e+07
7.67736e+07
8.19397e+07
6.5028e+07
6.98688e+07
5.89545e+07
6.2262e+07
5.69133e+07
5.82705e+07
5.69836e+07
5.677e+07
5.79993e+07
5.70564e+07
5.93781e+07
5.86327e+07
6.05343e+07
6.06701e+07
6.03952e+07
6.03924e+07
1.0716e+08
1.07209e+08
8.52455e+07
8.80503e+07
6.89299e+07
7.22948e+07
5.83005e+07
6.1339e+07
5.22842e+07
5.42455e+07
4.92285e+07
5.00521e+07
4.80588e+07
4.82383e+07
4.81064e+07
4.82522e+07
4.84669e+07
4.89358e+07
4.75769e+07
4.64266e+07
1.15614e+08
1.13527e+08
9.09998e+07
9.24869e+07
7.19548e+07
7.48657e+07
5.85437e+07
6.1896e+07
4.9625e+07
5.2497e+07
4.38361e+07
4.59601e+07
4.04396e+07
4.20469e+07
3.89095e+07
4.03248e+07
3.81674e+07
3.94773e+07
3.62948e+07
3.50468e+07
1.19881e+08
1.16069e+08
9.44589e+07
9.48117e+07
7.39931e+07
7.61176e+07
5.91026e+07
6.16521e+07
4.84882e+07
5.07893e+07
4.09878e+07
4.29913e+07
3.60826e+07
3.79011e+07
3.33243e+07
3.47493e+07
3.12763e+07
3.16885e+07
2.73818e+07
2.54531e+07
1.30885e+07
1.99919e+07
2.4566e+07
3.09029e+07
3.8886e+07
4.46151e+07
5.46982e+07
5.96065e+07
7.08534e+07
7.48649e+07
8.67917e+07
8.97739e+07
1.02182e+08
1.04081e+08
1.16604e+08
1.17305e+08
1.29243e+08
1.27825e+08
1.38352e+08
1.40545e+08
1.42567e+07
2.18589e+07
2.33267e+07
3.27391e+07
3.69587e+07
4.5854e+07
5.15087e+07
5.95893e+07
6.62055e+07
7.33117e+07
8.06407e+07
8.65896e+07
9.45556e+07
9.90778e+07
1.07736e+08
1.10565e+08
1.19896e+08
1.21291e+08
1.30295e+08
1.31091e+08
2.00649e+07
2.64832e+07
2.68844e+07
3.58624e+07
3.83542e+07
4.74158e+07
5.08921e+07
5.95233e+07
6.35807e+07
7.15934e+07
7.6096e+07
8.33043e+07
8.815e+07
9.45301e+07
9.94463e+07
1.05456e+08
1.09897e+08
1.15735e+08
1.19604e+08
1.23735e+08
2.50946e+07
3.06386e+07
3.04328e+07
3.84744e+07
3.99843e+07
4.84472e+07
5.0758e+07
5.90976e+07
6.18065e+07
6.98471e+07
7.27628e+07
8.04652e+07
8.34534e+07
9.09092e+07
9.38951e+07
1.01043e+08
1.0411e+08
1.10242e+08
1.13588e+08
1.17418e+08
2.87929e+07
3.37832e+07
3.30873e+07
4.03711e+07
4.127e+07
4.90356e+07
5.07101e+07
5.85147e+07
6.05737e+07
6.82648e+07
7.05321e+07
7.80425e+07
8.04885e+07
8.76703e+07
9.03775e+07
9.68221e+07
9.98241e+07
1.05014e+08
1.08049e+08
1.11571e+08
3.20062e+07
3.6539e+07
3.54678e+07
4.20899e+07
4.25927e+07
4.9654e+07
5.10163e+07
5.81414e+07
5.99902e+07
6.70184e+07
6.91997e+07
7.59758e+07
7.84581e+07
8.47415e+07
8.75036e+07
9.29946e+07
9.58885e+07
1.0037e+08
1.03114e+08
1.06463e+08
3.53137e+07
3.93664e+07
3.80738e+07
4.40017e+07
4.42443e+07
5.05682e+07
5.17677e+07
5.81299e+07
5.99282e+07
6.61544e+07
6.8359e+07
7.42889e+07
7.6784e+07
8.22345e+07
8.49069e+07
8.96954e+07
9.23942e+07
9.6374e+07
9.89165e+07
1.02048e+08
3.88082e+07
4.23719e+07
4.09785e+07
4.61889e+07
4.62397e+07
5.18212e+07
5.28684e+07
5.84831e+07
6.01895e+07
6.56606e+07
6.77989e+07
7.29871e+07
7.53952e+07
8.01608e+07
8.27073e+07
8.69039e+07
8.946e+07
9.2965e+07
9.53878e+07
9.8233e+07
4.23777e+07
4.54874e+07
4.40569e+07
4.85882e+07
4.84723e+07
5.33561e+07
5.42162e+07
5.91509e+07
6.06901e+07
6.54982e+07
6.74907e+07
7.20348e+07
7.43123e+07
7.84652e+07
8.08961e+07
8.45409e+07
8.70047e+07
9.00575e+07
9.24332e+07
9.49188e+07
4.58945e+07
4.86065e+07
4.71651e+07
5.10963e+07
5.08248e+07
5.50848e+07
5.57351e+07
6.00647e+07
6.13911e+07
6.5615e+07
6.74145e+07
7.13928e+07
7.35039e+07
7.7117e+07
7.94062e+07
8.25624e+07
8.49075e+07
8.75647e+07
8.98455e+07
9.2069e+07
4.92595e+07
5.16301e+07
5.01875e+07
5.36077e+07
5.31906e+07
5.6911e+07
5.73455e+07
6.1146e+07
6.22351e+07
6.5949e+07
6.75155e+07
7.10087e+07
7.29044e+07
7.6068e+07
7.81704e+07
8.09206e+07
8.31249e+07
8.54089e+07
8.76191e+07
8.94955e+07
5.23922e+07
5.44686e+07
5.30273e+07
5.60209e+07
5.54673e+07
5.87339e+07
5.89538e+07
6.23053e+07
6.31453e+07
6.64246e+07
6.7736e+07
7.08145e+07
7.24658e+07
7.52414e+07
7.71201e+07
7.95195e+07
8.15271e+07
8.35134e+07
8.55557e+07
8.72009e+07
5.5216e+07
5.70343e+07
5.55941e+07
5.82354e+07
5.75549e+07
6.04489e+07
6.04616e+07
6.34422e+07
6.40313e+07
6.69481e+07
6.79946e+07
7.07234e+07
7.21193e+07
7.45632e+07
7.62117e+07
7.82981e+07
8.01094e+07
8.1796e+07
8.36886e+07
8.50567e+07
5.76517e+07
5.92363e+07
5.77966e+07
6.01493e+07
5.93541e+07
6.19488e+07
6.17684e+07
6.44505e+07
6.47966e+07
6.74187e+07
6.81973e+07
7.06389e+07
7.17628e+07
7.39378e+07
7.53259e+07
7.71827e+07
7.87574e+07
8.0267e+07
8.19589e+07
8.31205e+07
5.96121e+07
6.0974e+07
5.95399e+07
6.16556e+07
6.07674e+07
6.31223e+07
6.2774e+07
6.52195e+07
6.53371e+07
6.77316e+07
6.8242e+07
7.04692e+07
7.13116e+07
7.32834e+07
7.44008e+07
7.60576e+07
7.739e+07
7.86999e+07
8.0186e+07
8.1183e+07
6.09937e+07
6.21255e+07
6.07228e+07
6.2631e+07
6.17003e+07
6.3849e+07
6.33832e+07
6.56304e+07
6.55546e+07
6.77673e+07
6.80271e+07
7.00953e+07
7.066e+07
7.24916e+07
7.33363e+07
7.48542e+07
7.59398e+07
7.71015e+07
7.83544e+07
7.92202e+07
6.16579e+07
6.25177e+07
6.12308e+07
6.29082e+07
6.20456e+07
6.39733e+07
6.3479e+07
6.55223e+07
6.53285e+07
6.73536e+07
6.74408e+07
6.93437e+07
6.97074e+07
7.14112e+07
7.20366e+07
7.34706e+07
7.43328e+07
7.54144e+07
7.6486e+07
7.71903e+07
6.14173e+07
6.18922e+07
6.09243e+07
6.22669e+07
6.16519e+07
6.32607e+07
6.28934e+07
6.46339e+07
6.44943e+07
6.62365e+07
6.63444e+07
6.7997e+07
6.83615e+07
6.98644e+07
7.04614e+07
7.17837e+07
7.25598e+07
7.36569e+07
7.45768e+07
7.52851e+07
6.01486e+07
6.00405e+07
5.97339e+07
6.0602e+07
6.04273e+07
6.15425e+07
6.15516e+07
6.28103e+07
6.30073e+07
6.43357e+07
6.47291e+07
6.60706e+07
6.66635e+07
6.79495e+07
6.87416e+07
6.98998e+07
7.08447e+07
7.18431e+07
7.27976e+07
7.36469e+07
5.83496e+07
5.81136e+07
5.83186e+07
5.85053e+07
5.90094e+07
5.9386e+07
6.00912e+07
6.06411e+07
6.15025e+07
6.22448e+07
6.31953e+07
6.41262e+07
6.5122e+07
6.6201e+07
6.72441e+07
6.83759e+07
6.95135e+07
7.05236e+07
7.17722e+07
7.23399e+07
1.43667e+08
1.4148e+08
1.44139e+08
1.42867e+08
1.44161e+08
1.43309e+08
1.44004e+08
1.43318e+08
1.44062e+08
1.43208e+08
1.44317e+08
1.43063e+08
1.44634e+08
1.42885e+08
1.44894e+08
1.42662e+08
1.45028e+08
1.42394e+08
1.45015e+08
1.42093e+08
1.44873e+08
1.41793e+08
1.44649e+08
1.41546e+08
1.44413e+08
1.41421e+08
1.44256e+08
1.41503e+08
1.44282e+08
1.41887e+08
1.44609e+08
1.42687e+08
1.45387e+08
1.44062e+08
1.46843e+08
1.4626e+08
1.49204e+08
1.49404e+08
1.52062e+08
1.53643e+08
1.38452e+08
1.33841e+08
1.39232e+08
1.3458e+08
1.39439e+08
1.35169e+08
1.39461e+08
1.35791e+08
1.39508e+08
1.36403e+08
1.39612e+08
1.36939e+08
1.39759e+08
1.37371e+08
1.39931e+08
1.37711e+08
1.40121e+08
1.37993e+08
1.40336e+08
1.38262e+08
1.40601e+08
1.38573e+08
1.40954e+08
1.38987e+08
1.41452e+08
1.39571e+08
1.4216e+08
1.40397e+08
1.43146e+08
1.41536e+08
1.44477e+08
1.43063e+08
1.46237e+08
1.45082e+08
1.48563e+08
1.47751e+08
1.51587e+08
1.51106e+08
1.54803e+08
1.55392e+08
1.26844e+08
1.26406e+08
1.28396e+08
1.2754e+08
1.29853e+08
1.2851e+08
1.31192e+08
1.29422e+08
1.32375e+08
1.30291e+08
1.33391e+08
1.31119e+08
1.3427e+08
1.31915e+08
1.35059e+08
1.32693e+08
1.3581e+08
1.33474e+08
1.36572e+08
1.3428e+08
1.37389e+08
1.35143e+08
1.38301e+08
1.36113e+08
1.3937e+08
1.37249e+08
1.40647e+08
1.38606e+08
1.42176e+08
1.40232e+08
1.43992e+08
1.4217e+08
1.46137e+08
1.44481e+08
1.48702e+08
1.47277e+08
1.5177e+08
1.50561e+08
1.54872e+08
1.54684e+08
1.19816e+08
1.1967e+08
1.21011e+08
1.20818e+08
1.22327e+08
1.21981e+08
1.23778e+08
1.23184e+08
1.25272e+08
1.24391e+08
1.26725e+08
1.25564e+08
1.28113e+08
1.26705e+08
1.29446e+08
1.27836e+08
1.30749e+08
1.28976e+08
1.32044e+08
1.30127e+08
1.33361e+08
1.31392e+08
1.34755e+08
1.32749e+08
1.36271e+08
1.34243e+08
1.37955e+08
1.35916e+08
1.39839e+08
1.37795e+08
1.41946e+08
1.39906e+08
1.44302e+08
1.42285e+08
1.46974e+08
1.45014e+08
1.5002e+08
1.48071e+08
1.52985e+08
1.51845e+08
1.13634e+08
1.13683e+08
1.14862e+08
1.14929e+08
1.16194e+08
1.16239e+08
1.177e+08
1.17548e+08
1.19282e+08
1.18912e+08
1.20889e+08
1.20289e+08
1.2249e+08
1.217e+08
1.24095e+08
1.2319e+08
1.25743e+08
1.24808e+08
1.27447e+08
1.26186e+08
1.29004e+08
1.27527e+08
1.30677e+08
1.2902e+08
1.32464e+08
1.30665e+08
1.34385e+08
1.32474e+08
1.36465e+08
1.34444e+08
1.38695e+08
1.36572e+08
1.41092e+08
1.38878e+08
1.43703e+08
1.41406e+08
1.46547e+08
1.4411e+08
1.49207e+08
1.47374e+08
1.08211e+08
1.08562e+08
1.09486e+08
1.09831e+08
1.10833e+08
1.11258e+08
1.12461e+08
1.1276e+08
1.14077e+08
1.14227e+08
1.15772e+08
1.15679e+08
1.17527e+08
1.17082e+08
1.19332e+08
1.18394e+08
1.21167e+08
1.19574e+08
1.22953e+08
1.21603e+08
1.24674e+08
1.23368e+08
1.26448e+08
1.25091e+08
1.28318e+08
1.26837e+08
1.30256e+08
1.28611e+08
1.32313e+08
1.30512e+08
1.34504e+08
1.32516e+08
1.36808e+08
1.34629e+08
1.39247e+08
1.36859e+08
1.41774e+08
1.3913e+08
1.44041e+08
1.41799e+08
1.0367e+08
1.0419e+08
1.0503e+08
1.0551e+08
1.06373e+08
1.06863e+08
1.07979e+08
1.08378e+08
1.09674e+08
1.09943e+08
1.11405e+08
1.11543e+08
1.13149e+08
1.13204e+08
1.14878e+08
1.14646e+08
1.1657e+08
1.16247e+08
1.18502e+08
1.17828e+08
1.20374e+08
1.19406e+08
1.22189e+08
1.21006e+08
1.24002e+08
1.22662e+08
1.2592e+08
1.24379e+08
1.27852e+08
1.26155e+08
1.29869e+08
1.28042e+08
1.31958e+08
1.29723e+08
1.34073e+08
1.31738e+08
1.362e+08
1.33418e+08
1.37984e+08
1.35592e+08
9.97984e+07
1.004e+08
1.01162e+08
1.01742e+08
1.02532e+08
1.03104e+08
1.04052e+08
1.04533e+08
1.05672e+08
1.05968e+08
1.07304e+08
1.07356e+08
1.08932e+08
1.09139e+08
1.11068e+08
1.11004e+08
1.12703e+08
1.12474e+08
1.14364e+08
1.1393e+08
1.1607e+08
1.15398e+08
1.17805e+08
1.16869e+08
1.19553e+08
1.1832e+08
1.21281e+08
1.19718e+08
1.22961e+08
1.21064e+08
1.24611e+08
1.22859e+08
1.26858e+08
1.24627e+08
1.28438e+08
1.26193e+08
1.30415e+08
1.27676e+08
1.31685e+08
1.29016e+08
9.65345e+07
9.70601e+07
9.78903e+07
9.83406e+07
9.91926e+07
9.96668e+07
1.00625e+08
1.01177e+08
1.02167e+08
1.0265e+08
1.0376e+08
1.04114e+08
1.05429e+08
1.05676e+08
1.07183e+08
1.07159e+08
1.08832e+08
1.08558e+08
1.1042e+08
1.09945e+08
1.12e+08
1.11333e+08
1.13574e+08
1.12713e+08
1.15126e+08
1.14071e+08
1.16644e+08
1.15403e+08
1.18148e+08
1.16714e+08
1.19688e+08
1.17994e+08
1.21251e+08
1.19243e+08
1.22678e+08
1.20376e+08
1.24013e+08
1.21394e+08
1.25035e+08
1.22513e+08
9.36208e+07
9.41675e+07
9.49401e+07
9.53349e+07
9.61778e+07
9.64527e+07
9.78112e+07
9.81403e+07
9.94445e+07
9.93975e+07
1.00743e+08
1.00656e+08
1.024e+08
1.02375e+08
1.04042e+08
1.03703e+08
1.05342e+08
1.04989e+08
1.0669e+08
1.06257e+08
1.08062e+08
1.07491e+08
1.09426e+08
1.0868e+08
1.10768e+08
1.09824e+08
1.12085e+08
1.10931e+08
1.13386e+08
1.12014e+08
1.14661e+08
1.13037e+08
1.15857e+08
1.13958e+08
1.16934e+08
1.14749e+08
1.17843e+08
1.15351e+08
1.18476e+08
1.16046e+08
9.10457e+07
9.14999e+07
9.22905e+07
9.26818e+07
9.34552e+07
9.38796e+07
9.46797e+07
9.51737e+07
9.61303e+07
9.64549e+07
9.75122e+07
9.77271e+07
9.88702e+07
9.90425e+07
1.00358e+08
1.00287e+08
1.01735e+08
1.01466e+08
1.03027e+08
1.02587e+08
1.04257e+08
1.03652e+08
1.05435e+08
1.04666e+08
1.06568e+08
1.0563e+08
1.07658e+08
1.0654e+08
1.08698e+08
1.07385e+08
1.0967e+08
1.08143e+08
1.10547e+08
1.08783e+08
1.11297e+08
1.09273e+08
1.11873e+08
1.09564e+08
1.12213e+08
1.09885e+08
8.86658e+07
8.9088e+07
8.9872e+07
9.01978e+07
9.10135e+07
9.13225e+07
9.22006e+07
9.24732e+07
9.34244e+07
9.3642e+07
9.46798e+07
9.48447e+07
9.59323e+07
9.6051e+07
9.71657e+07
9.7062e+07
9.83436e+07
9.81198e+07
9.94737e+07
9.90998e+07
1.00542e+08
1.00012e+08
1.01548e+08
1.00861e+08
1.02497e+08
1.01648e+08
1.03383e+08
1.02364e+08
1.04194e+08
1.02995e+08
1.04914e+08
1.03519e+08
1.0552e+08
1.03914e+08
1.0598e+08
1.0414e+08
1.0625e+08
1.04157e+08
1.06308e+08
1.04154e+08
8.64623e+07
8.68482e+07
8.76079e+07
8.79653e+07
8.86829e+07
8.89703e+07
8.97368e+07
8.99272e+07
9.08226e+07
9.08766e+07
9.19052e+07
9.18049e+07
9.29775e+07
9.29511e+07
9.42865e+07
9.41134e+07
9.52481e+07
9.50274e+07
9.61705e+07
9.58245e+07
9.70519e+07
9.65629e+07
9.78838e+07
9.72542e+07
9.86563e+07
9.78851e+07
9.93543e+07
9.84364e+07
9.99632e+07
9.8889e+07
1.00467e+08
9.92229e+07
1.00844e+08
9.94127e+07
1.01062e+08
9.94184e+07
1.01075e+08
9.92006e+07
1.00894e+08
9.89155e+07
8.44111e+07
8.46257e+07
8.54497e+07
8.55435e+07
8.644e+07
8.6486e+07
8.7368e+07
8.74536e+07
8.83216e+07
8.84097e+07
8.93012e+07
8.93431e+07
9.03144e+07
9.02194e+07
9.13503e+07
9.10284e+07
9.22881e+07
9.18758e+07
9.31244e+07
9.26116e+07
9.37988e+07
9.32826e+07
9.44484e+07
9.38814e+07
9.50508e+07
9.4394e+07
9.55828e+07
9.48091e+07
9.60248e+07
9.51148e+07
9.63575e+07
9.52952e+07
9.65581e+07
9.53252e+07
9.65897e+07
9.51596e+07
9.6402e+07
9.47581e+07
9.60328e+07
9.42324e+07
8.22963e+07
8.256e+07
8.32051e+07
8.34142e+07
8.41169e+07
8.42482e+07
8.50164e+07
8.50784e+07
8.59013e+07
8.59088e+07
8.67699e+07
8.67405e+07
8.7611e+07
8.75359e+07
8.83806e+07
8.826e+07
8.91462e+07
8.89891e+07
8.99272e+07
8.96346e+07
9.06029e+07
9.02001e+07
9.11912e+07
9.06928e+07
9.16957e+07
9.11101e+07
9.21148e+07
9.14411e+07
9.24381e+07
9.16681e+07
9.26495e+07
9.17697e+07
9.27261e+07
9.17147e+07
9.26271e+07
9.14507e+07
9.22968e+07
9.09347e+07
9.17936e+07
9.02297e+07
8.01964e+07
8.04322e+07
8.10579e+07
8.12236e+07
8.18877e+07
8.19999e+07
8.27136e+07
8.27515e+07
8.35187e+07
8.34884e+07
8.43124e+07
8.42475e+07
8.50784e+07
8.49511e+07
8.58054e+07
8.55998e+07
8.64657e+07
8.62202e+07
8.70853e+07
8.68182e+07
8.76623e+07
8.73205e+07
8.81763e+07
8.77683e+07
8.86215e+07
8.81576e+07
8.8986e+07
8.84674e+07
8.92534e+07
8.86743e+07
8.94066e+07
8.87547e+07
8.9423e+07
8.86752e+07
8.92599e+07
8.83762e+07
8.8857e+07
8.78119e+07
8.82847e+07
8.69982e+07
7.80793e+07
7.82711e+07
7.89151e+07
7.91086e+07
7.97253e+07
7.98483e+07
8.04895e+07
8.05113e+07
8.1209e+07
8.11384e+07
8.20639e+07
8.19782e+07
8.28687e+07
8.25668e+07
8.34869e+07
8.31338e+07
8.41276e+07
8.36796e+07
8.4689e+07
8.42105e+07
8.51995e+07
8.47448e+07
8.56266e+07
8.52227e+07
8.60149e+07
8.5628e+07
8.63399e+07
8.59454e+07
8.65796e+07
8.61633e+07
8.67157e+07
8.62707e+07
8.67264e+07
8.62419e+07
8.65585e+07
8.59732e+07
8.61535e+07
8.5445e+07
8.55968e+07
8.46192e+07
7.60835e+07
7.61881e+07
7.70751e+07
7.71506e+07
7.8031e+07
7.79037e+07
7.87153e+07
7.86561e+07
7.93865e+07
7.93052e+07
8.00068e+07
7.99236e+07
8.06754e+07
8.05026e+07
8.1275e+07
8.10612e+07
8.18202e+07
8.16054e+07
8.24154e+07
8.21837e+07
8.30015e+07
8.2705e+07
8.35027e+07
8.31744e+07
8.39251e+07
8.35884e+07
8.42663e+07
8.39328e+07
8.45191e+07
8.41895e+07
8.46773e+07
8.4343e+07
8.47647e+07
8.44534e+07
8.46851e+07
8.43015e+07
8.43168e+07
8.39179e+07
8.38505e+07
8.33437e+07
7.43215e+07
7.4823e+07
7.53003e+07
7.59371e+07
7.63107e+07
7.66118e+07
7.72872e+07
7.74208e+07
7.81787e+07
7.80336e+07
7.87786e+07
7.86699e+07
7.94009e+07
7.92813e+07
8.00421e+07
7.99217e+07
8.06543e+07
8.05598e+07
8.12272e+07
8.11167e+07
8.17643e+07
8.16202e+07
8.22529e+07
8.20778e+07
8.2679e+07
8.24833e+07
8.3028e+07
8.28302e+07
8.32876e+07
8.31142e+07
8.34502e+07
8.33306e+07
8.3507e+07
8.35069e+07
8.35129e+07
8.35724e+07
8.33731e+07
8.33404e+07
8.29366e+07
8.29589e+07
7.32888e+07
7.32971e+07
7.44755e+07
7.49965e+07
7.57655e+07
7.58467e+07
7.6421e+07
7.67295e+07
7.73893e+07
7.79454e+07
7.82217e+07
7.85913e+07
7.88165e+07
7.92501e+07
7.96573e+07
8.02824e+07
8.04317e+07
8.0805e+07
8.09991e+07
8.13496e+07
8.15284e+07
8.18657e+07
8.20008e+07
8.23192e+07
8.24002e+07
8.26954e+07
8.27204e+07
8.29899e+07
8.29629e+07
8.32024e+07
8.31341e+07
8.33367e+07
8.3228e+07
8.33919e+07
8.32275e+07
8.33704e+07
8.31059e+07
8.32857e+07
8.29552e+07
8.31674e+07
1.26616e+08
1.29848e+08
1.2424e+08
1.27272e+08
1.22267e+08
1.24961e+08
1.20241e+08
1.22618e+08
1.18058e+08
1.20173e+08
1.15718e+08
1.17618e+08
1.1322e+08
1.14938e+08
1.10554e+08
1.12114e+08
1.07707e+08
1.09124e+08
1.04662e+08
1.05948e+08
1.01406e+08
1.02565e+08
9.79249e+07
9.89553e+07
9.42072e+07
9.51031e+07
9.02469e+07
9.09988e+07
8.60522e+07
8.66506e+07
8.1664e+07
8.21073e+07
7.71926e+07
7.74871e+07
7.28244e+07
7.29515e+07
6.86749e+07
6.8599e+07
6.49188e+07
6.19342e+07
1.32598e+08
1.37907e+08
1.2941e+08
1.35594e+08
1.26801e+08
1.33274e+08
1.24205e+08
1.30782e+08
1.21532e+08
1.28114e+08
1.18776e+08
1.25298e+08
1.15926e+08
1.22344e+08
1.12966e+08
1.1925e+08
1.09874e+08
1.16007e+08
1.06628e+08
1.126e+08
1.03208e+08
1.09015e+08
9.95981e+07
1.05235e+08
9.57865e+07
1.01247e+08
9.17726e+07
9.7045e+07
8.75756e+07
9.26442e+07
8.32494e+07
8.80966e+07
7.88911e+07
8.34913e+07
7.4565e+07
7.88549e+07
7.01058e+07
7.41317e+07
6.56773e+07
6.75252e+07
1.43287e+08
1.48137e+08
1.39836e+08
1.45864e+08
1.36898e+08
1.43539e+08
1.33992e+08
1.41015e+08
1.31033e+08
1.38287e+08
1.28008e+08
1.35378e+08
1.24907e+08
1.323e+08
1.2171e+08
1.29058e+08
1.18395e+08
1.25647e+08
1.14941e+08
1.22058e+08
1.11325e+08
1.18283e+08
1.07527e+08
1.14309e+08
1.03535e+08
1.10132e+08
9.93499e+07
1.05755e+08
9.49924e+07
1.01208e+08
9.0515e+07
9.65529e+07
8.59933e+07
9.1869e+07
8.14401e+07
8.71598e+07
7.67542e+07
8.24726e+07
7.24736e+07
7.66723e+07
1.52585e+08
1.56273e+08
1.49349e+08
1.54222e+08
1.46482e+08
1.52064e+08
1.43625e+08
1.49686e+08
1.40704e+08
1.47079e+08
1.37695e+08
1.44261e+08
1.34585e+08
1.41245e+08
1.31355e+08
1.38036e+08
1.27987e+08
1.34635e+08
1.24464e+08
1.3104e+08
1.20772e+08
1.27248e+08
1.169e+08
1.23259e+08
1.1285e+08
1.19079e+08
1.08634e+08
1.14727e+08
1.04291e+08
1.10249e+08
9.98868e+07
1.05725e+08
9.55119e+07
1.01251e+08
9.12275e+07
9.69044e+07
8.71033e+07
9.28902e+07
8.36904e+07
8.84067e+07
1.58851e+08
1.61404e+08
1.56184e+08
1.5972e+08
1.53706e+08
1.57883e+08
1.51185e+08
1.55815e+08
1.48567e+08
1.53504e+08
1.4583e+08
1.5096e+08
1.42959e+08
1.48194e+08
1.3994e+08
1.45215e+08
1.36763e+08
1.4203e+08
1.33415e+08
1.38645e+08
1.29891e+08
1.35064e+08
1.2619e+08
1.313e+08
1.22321e+08
1.27369e+08
1.18309e+08
1.23308e+08
1.14201e+08
1.19175e+08
1.10078e+08
1.15066e+08
1.06044e+08
1.11102e+08
1.02216e+08
1.07439e+08
9.87652e+07
1.04375e+08
9.6162e+07
1.01376e+08
1.62306e+08
1.63936e+08
1.6036e+08
1.62677e+08
1.58429e+08
1.61228e+08
1.56396e+08
1.59537e+08
1.54228e+08
1.57592e+08
1.51914e+08
1.55404e+08
1.49441e+08
1.52985e+08
1.46802e+08
1.50348e+08
1.43985e+08
1.47505e+08
1.40985e+08
1.44469e+08
1.378e+08
1.41255e+08
1.34438e+08
1.37881e+08
1.30919e+08
1.34379e+08
1.27282e+08
1.30796e+08
1.23587e+08
1.27206e+08
1.19928e+08
1.23719e+08
1.16429e+08
1.20484e+08
1.13249e+08
1.17715e+08
1.10632e+08
1.15763e+08
1.08944e+08
1.14329e+08
1.63472e+08
1.64253e+08
1.62322e+08
1.6336e+08
1.60993e+08
1.62273e+08
1.59492e+08
1.60948e+08
1.57838e+08
1.59375e+08
1.56013e+08
1.5756e+08
1.53997e+08
1.55516e+08
1.51774e+08
1.53264e+08
1.4934e+08
1.50822e+08
1.46703e+08
1.48208e+08
1.43883e+08
1.45443e+08
1.4091e+08
1.42555e+08
1.37824e+08
1.39588e+08
1.34677e+08
1.36602e+08
1.31541e+08
1.33687e+08
1.28514e+08
1.30969e+08
1.25727e+08
1.28617e+08
1.23375e+08
1.26892e+08
1.21751e+08
1.26169e+08
1.21093e+08
1.26324e+08
1.62603e+08
1.62413e+08
1.6232e+08
1.62003e+08
1.61677e+08
1.61192e+08
1.60786e+08
1.60127e+08
1.59617e+08
1.58878e+08
1.58154e+08
1.57467e+08
1.56419e+08
1.55889e+08
1.54455e+08
1.54134e+08
1.52311e+08
1.52197e+08
1.50028e+08
1.50085e+08
1.47638e+08
1.47827e+08
1.45172e+08
1.45464e+08
1.42662e+08
1.4306e+08
1.40155e+08
1.40697e+08
1.37718e+08
1.38484e+08
1.35451e+08
1.36561e+08
1.33492e+08
1.35124e+08
1.32062e+08
1.34474e+08
1.31494e+08
1.34982e+08
1.31871e+08
1.36644e+08
1.6018e+08
1.56735e+08
1.61339e+08
1.57107e+08
1.61001e+08
1.57672e+08
1.60005e+08
1.57923e+08
1.58797e+08
1.57705e+08
1.57506e+08
1.57018e+08
1.56144e+08
1.55923e+08
1.54695e+08
1.54501e+08
1.53144e+08
1.52832e+08
1.51479e+08
1.50988e+08
1.49706e+08
1.49035e+08
1.47846e+08
1.47038e+08
1.45939e+08
1.45071e+08
1.44054e+08
1.43226e+08
1.42279e+08
1.4162e+08
1.40732e+08
1.404e+08
1.39574e+08
1.3978e+08
1.39055e+08
1.40085e+08
1.39505e+08
1.41641e+08
1.40805e+08
1.44469e+08
1.57904e+08
1.58175e+08
1.56765e+08
1.57642e+08
1.56217e+08
1.55839e+08
1.55807e+08
1.54176e+08
1.55467e+08
1.52913e+08
1.55071e+08
1.51927e+08
1.54511e+08
1.51038e+08
1.53729e+08
1.50116e+08
1.52718e+08
1.49094e+08
1.51509e+08
1.47959e+08
1.50156e+08
1.46734e+08
1.48728e+08
1.45476e+08
1.47302e+08
1.44261e+08
1.45966e+08
1.43192e+08
1.44823e+08
1.42393e+08
1.43991e+08
1.42023e+08
1.43636e+08
1.42303e+08
1.44014e+08
1.43572e+08
1.45418e+08
1.461e+08
1.47517e+08
1.4983e+08
)
;

boundaryField
{
    back
    {
        type            empty;
    }
    front
    {
        type            empty;
    }
    left
    {
        type            symmetry;
    }
    hole
    {
        type            calculated;
        value           nonuniform List<scalar> 
20
(
2.43e+08
2.43e+08
2.43e+08
2.43e+08
2.43e+08
2.27252e+08
1.99096e+08
1.65817e+08
1.30105e+08
9.38366e+07
5.84771e+07
2.50303e+07
5.99478e+06
3.38264e+07
5.80894e+07
7.84325e+07
9.48092e+07
1.07349e+08
1.16108e+08
1.19951e+08
)
;
    }
    down
    {
        type            symmetry;
    }
    right
    {
        type            calculated;
        value           nonuniform List<scalar> 
30
(
5.82427e+07
5.88379e+07
5.96311e+07
6.0802e+07
6.23316e+07
6.41351e+07
6.61269e+07
6.82271e+07
7.03923e+07
7.26649e+07
7.39889e+07
7.46583e+07
7.55724e+07
7.65118e+07
7.72992e+07
7.81979e+07
7.90103e+07
7.96187e+07
8.02891e+07
8.08984e+07
8.14217e+07
8.18673e+07
8.22403e+07
8.25414e+07
8.27705e+07
8.29307e+07
8.30364e+07
8.31226e+07
8.31889e+07
8.31935e+07
)
;
    }
    up
    {
        type            calculated;
        value           nonuniform List<scalar> 
30
(
1.5425e+08
1.55798e+08
1.55063e+08
1.52203e+08
1.47681e+08
1.42023e+08
1.35689e+08
1.29153e+08
1.2256e+08
1.16046e+08
1.09842e+08
1.04081e+08
9.8826e+07
9.41387e+07
9.01393e+07
8.69206e+07
8.45623e+07
8.3353e+07
8.29407e+07
8.31654e+07
6.28906e+07
6.656e+07
7.59935e+07
8.80005e+07
1.01145e+08
1.14222e+08
1.26276e+08
1.36616e+08
1.44505e+08
1.49919e+08
)
;
    }
}


// ************************************************************************* //
