/*--------------------------------*- C++ -*----------------------------------*\
| =========                 |                                                 |
| \\      /  F ield         | OpenFOAM: The Open Source CFD Toolbox           |
|  \\    /   O peration     | Version:  v2012                                 |
|   \\  /    A nd           | Website:  www.openfoam.com                      |
|    \\/     M anipulation  |                                                 |
\*---------------------------------------------------------------------------*/
FoamFile
{
    version     2.0;
    format      ascii;
    class       volScalarField;
    location    "18";
    object      sigmaHyd;
}
// * * * * * * * * * * * * * * * * * * * * * * * * * * * * * * * * * * * * * //

dimensions      [1 -1 -2 0 0 0 0];


internalField   nonuniform List<scalar> 
1896
(
1.56529e+07
1.24686e+07
1.48204e+07
1.63104e+07
1.51839e+07
1.48798e+07
5.91745e+06
1.2766e+07
1.02962e+06
1.2511e+07
1.62163e+07
6.61432e+06
7.11538e+06
6.07649e+06
1.53527e+07
2.58243e+07
1.44638e+07
4.22552e+07
1.56975e+07
-6.96364e+06
-2.6361e+07
1.33372e+07
2.71948e+07
3.01498e+07
1.3305e+07
1.29737e+07
8.03456e+06
8.16654e+06
1.57452e+07
1.73881e+07
1.5735e+07
1.19093e+07
1.25754e+06
1.25826e+07
2.50695e+07
1.64417e+07
1.56548e+07
1.31083e+07
1.78076e+07
1.77898e+07
1.16611e+07
-755323
1.28624e+07
8.37473e+06
8.74302e+06
7.01201e+06
1.25336e+07
1.614e+07
1.46746e+07
2.33899e+07
1.49343e+07
1.39461e+07
1.30382e+07
1.38354e+07
2.48125e+06
1.27348e+07
7.5777e+06
1.60424e+07
1.39249e+07
1.82436e+07
1.28831e+07
2.21696e+07
2.08831e+07
1.42195e+07
-7.82712e+06
1.17913e+07
2.57043e+07
7.89848e+06
1.36078e+07
2.51378e+07
1.47849e+06
1.99088e+07
1.35522e+07
1.2218e+07
2.63729e+07
1.29112e+07
1.27524e+07
1.47618e+07
1.46001e+07
1.38406e+07
-3.29071e+06
2.82632e+07
1.07634e+07
1.20154e+07
1.15311e+07
1.43514e+07
1.1063e+07
1.03381e+07
5.40321e+06
1.11362e+07
1.28036e+07
-3.86761e+07
1.47063e+06
-7.17088e+06
2.97365e+07
1.36522e+07
1.23372e+07
1.69489e+07
1.18417e+07
9.20135e+06
9.48272e+06
6.16096e+06
1.4359e+07
2.69662e+06
6.59568e+06
1.3158e+07
1.37612e+07
5.87018e+06
2.10905e+07
-1.36559e+07
1.71291e+07
1.19059e+07
1.7374e+07
8.43028e+06
-3.98675e+07
1.08236e+07
1.12928e+07
1.23702e+07
551945
1.69349e+07
1.23279e+06
-113443
1.33066e+07
1.04039e+07
1.08995e+07
3.49184e+06
8.95768e+06
1.2609e+07
1.58504e+07
8.70868e+06
9.12193e+06
1.25647e+07
1.87411e+07
-7.51269e+06
1.53052e+07
2.70024e+07
4.98231e+06
1.09916e+07
1.18823e+07
1.82887e+07
1.37464e+07
1.12599e+07
1.70087e+07
4.03325e+07
1.23387e+07
1.46348e+07
1.35561e+07
1.59189e+07
2.67432e+07
1.1512e+07
8.88166e+06
1.24213e+07
1.32861e+07
1.38315e+07
1.35317e+07
1.33074e+07
9.7714e+06
1.1352e+07
-1.08012e+06
1.39024e+07
1.36237e+07
2.92535e+07
-831338
1.42664e+07
5.14158e+07
1.23155e+07
3.63671e+07
1.58669e+07
1.65889e+07
1.2486e+07
1.2082e+07
1.19637e+07
2.25036e+06
3.33566e+06
9.48501e+06
8.04371e+06
1.72944e+07
1.31912e+07
1.63492e+07
4.36184e+06
1.1911e+06
1.81186e+07
1.4436e+07
2.07532e+07
1.21995e+07
1.03988e+08
9.15954e+06
2.87182e+07
-3.02282e+07
-8.68596e+06
8.80817e+06
1.63866e+07
9.83691e+06
3.72875e+07
-1.96708e+06
5.00054e+06
1.36034e+07
7.14094e+06
5.44079e+06
9.96137e+06
9.85477e+06
-4.75933e+06
1.58678e+07
1.43091e+07
2.97963e+07
1.42138e+07
1.3767e+07
2.2529e+07
-2.1481e+07
1.23208e+07
2.72004e+07
1.56306e+07
1.30543e+07
1.36956e+07
7.37458e+06
5.41912e+06
-824567
2.13973e+07
1.88581e+07
1.60537e+07
-9.63511e+06
1.40531e+07
3.34938e+07
2.23517e+07
1.2166e+07
1.63361e+07
4.86626e+06
1.36643e+07
4.10312e+07
1.21374e+07
3.27055e+07
1.37015e+07
1.3198e+07
1.77163e+07
1.15493e+07
1.3688e+07
6.93843e+06
3.80763e+06
4.92636e+07
1.60906e+07
2.35772e+06
9.74507e+06
8.68155e+06
4.81794e+07
1.40476e+07
5.20375e+06
1.34255e+07
4.50973e+06
5.11825e+06
2.04883e+07
-5.15376e+06
1.3722e+07
1.23217e+07
1.69838e+07
1.16386e+07
1.33495e+07
-294920
4.55793e+07
2.32346e+07
2.47036e+07
1.57248e+07
-1.59885e+07
-1.94186e+07
8.99993e+06
1.40931e+07
7.62837e+06
2.63271e+07
6.55806e+06
1.69092e+07
1.39268e+07
8.06095e+06
-1.29031e+07
3.56015e+07
5.69979e+06
1.4146e+07
-936696
2.08019e+07
1.5455e+07
1.39049e+07
1.56345e+07
1.20028e+07
2.23218e+07
-230123
1.1562e+07
1.40056e+07
2.49757e+07
1.36509e+07
1.18422e+07
1.30623e+07
1.63406e+07
2.16614e+07
1.55106e+07
1.57939e+07
1.38743e+07
7.77716e+07
2.97041e+06
2.6277e+07
1.08222e+07
3.51526e+07
-1.06358e+07
3.72975e+07
1.49555e+07
2.51098e+07
2.19912e+07
1.35186e+07
1.31739e+07
1.24815e+07
-694329
1.36451e+06
1.32895e+07
1.36085e+07
1.19795e+07
3.76624e+06
1.6386e+07
1.23304e+07
1.62557e+07
1.1973e+07
1.37081e+07
1.40196e+07
1.44838e+07
1.23107e+07
3.16736e+07
2.87002e+07
1.32906e+07
-260230
1.16986e+07
1.26061e+07
1.46296e+06
1.50392e+07
1.32701e+07
-1.81941e+07
1.51699e+07
1.7039e+07
1.18162e+07
1.25244e+07
-1.75837e+07
7.60219e+06
2.8117e+07
1.5529e+07
1.25584e+07
1.24403e+07
-1.54045e+07
1.49264e+07
5.38769e+06
8.85971e+06
1.52648e+07
1.52116e+07
-1.36608e+06
1.01978e+07
-1.94742e+07
-6.0221e+06
1.50223e+07
1.04888e+06
1.403e+07
1.52661e+07
1.65318e+07
-1.62888e+07
1.53529e+07
1.15036e+07
3.13569e+06
1.58731e+06
7.07604e+07
3.85432e+07
-1.30449e+07
1.32228e+07
1.45821e+07
1.82578e+07
1.66413e+07
1.35018e+07
1.36583e+07
2.06502e+07
5.93417e+06
1.7198e+07
1.16369e+07
1.29574e+07
3.23812e+06
3.20442e+07
6.11483e+06
1.16295e+07
1.0196e+07
9.54461e+06
1.17727e+07
-6.80866e+06
1.39608e+07
2.9205e+06
1.51632e+07
2.59417e+07
1.26272e+07
1.6671e+07
3.81473e+07
1.28314e+07
1.50083e+07
3.53188e+07
-8.75677e+06
1.33641e+07
-4.56279e+06
1.87816e+07
1.90784e+07
1.37071e+07
1.37017e+07
1.29498e+07
1.75584e+07
1.49823e+07
1.18204e+06
1.7234e+07
-1.81451e+06
1.32275e+07
3.39821e+07
5.08519e+06
3.17883e+07
1.05242e+07
1.06776e+07
9.72689e+06
3.73584e+07
1.9078e+07
2.14375e+07
1.35275e+07
1.12804e+08
1.09785e+07
1.23272e+07
4.68611e+06
1.74422e+07
1.15863e+07
1.21552e+07
1.75062e+07
1.11055e+07
-8.36352e+06
1.75448e+07
3.90175e+06
1.76744e+07
-1.31848e+07
-162586
1.23414e+07
1.40996e+07
1.45291e+07
1.37542e+07
1.21332e+07
5.2402e+07
442657
1.31456e+07
285983
1.87048e+07
1.38921e+07
5.40791e+07
1.73206e+07
1.16736e+07
1.32514e+07
1.32759e+07
1.57455e+07
1.53498e+07
3.40044e+07
1.42241e+07
1.35936e+07
1.37879e+07
1.38929e+07
1.08543e+07
1.38211e+07
1.12418e+07
-1.68896e+07
1.02376e+07
1.04214e+07
1.41727e+07
1.64088e+07
1.66696e+07
1.54144e+07
3.13272e+07
1.97622e+07
1.82753e+07
1.538e+07
-1.65895e+07
1.45433e+07
8.85503e+06
1.45076e+07
1.34722e+07
1.3256e+07
1.22557e+07
1.56623e+07
-1.44514e+07
1.3275e+07
1.62324e+07
1.2315e+07
1.24274e+07
1.30874e+07
1.47506e+07
1.0722e+07
3.67604e+07
7.32059e+06
1.7575e+07
1.35356e+07
1.59227e+07
1.89367e+07
1.34203e+07
1.59983e+07
1.55199e+07
2.7511e+07
-1.01637e+06
1.38645e+07
1.43535e+07
9.55317e+06
1.40879e+07
1.26337e+07
1.41221e+07
1.13097e+07
-788108
1.52968e+07
-1.187e+07
1.04926e+07
-2.58849e+06
5.21943e+06
1.83341e+07
6.3236e+06
5.53087e+06
7.69919e+06
1.49126e+07
1.78469e+07
2.99453e+07
8.35837e+06
1.38048e+07
1.46546e+07
1.40731e+07
1.52104e+07
1.27541e+07
3.42341e+07
1.44311e+07
2.98505e+07
8.21063e+06
9.49125e+06
3.16361e+07
1.37488e+07
1.39262e+07
1.46553e+07
1.36845e+07
9.65899e+06
1.51751e+07
1.45275e+07
1.02826e+07
1.21285e+07
8.23628e+06
-2.45211e+07
2.33742e+07
-1.52348e+07
-7.72552e+06
1.6168e+07
1.19495e+07
1.06967e+07
9.53949e+06
4.02373e+06
8.05127e+06
1.1464e+07
1.2869e+07
1.40926e+07
1.87835e+07
1.54424e+07
-160907
9.32378e+06
2.93093e+07
1.65693e+06
2.22816e+07
1.3282e+07
2.67339e+07
3.16381e+07
1.33693e+07
1.33778e+07
2.53342e+07
1.34257e+07
6.06807e+07
7.11804e+06
1.38218e+07
-2.3695e+06
1.24104e+07
3.79917e+06
4.29913e+06
-3.86067e+06
-1.9319e+07
1.43878e+06
2.29962e+07
1.5256e+07
1.16636e+07
2.10671e+07
1.33222e+07
7.9525e+06
2.37174e+07
1.31273e+07
868635
1.35425e+07
1.48527e+07
-241605
-2.01727e+06
-9.50501e+06
1.0741e+07
2.48382e+07
1.80624e+07
8.28288e+06
-222224
3.24892e+07
8.58347e+06
1.40957e+07
1.76827e+07
1.98523e+07
1.03028e+07
1.91936e+07
3.37235e+07
2.49156e+07
7.69842e+07
5.0501e+06
2.56333e+07
2.25073e+07
2.23529e+07
1.1529e+07
1.52185e+07
1.33492e+07
1.05683e+07
1.25914e+07
4.3232e+07
-5.87849e+06
1.28155e+07
9.16685e+06
2.52409e+07
1.52634e+07
6.66875e+06
-705771
2.23824e+07
1.11397e+07
3.08571e+07
-1.06921e+07
1.34902e+07
3.23458e+07
1.87383e+07
4.11862e+06
1.35929e+07
4.22599e+06
5.13708e+07
1.50032e+07
2.26107e+07
-1.65784e+06
1.48285e+07
1.4051e+07
1.37156e+07
2.29326e+07
-1.61354e+06
1.29323e+07
1.35035e+07
1.38708e+07
1.56772e+07
1.29124e+07
-3.95638e+06
1.6971e+07
1.59955e+07
2.26455e+07
1.33536e+07
1.68743e+07
1.07194e+07
2.10778e+07
4.60355e+06
3.16291e+07
1.33772e+07
5.65128e+06
1.02124e+07
-2.21831e+06
3.02487e+06
1.25092e+07
1.27104e+07
1.32681e+07
3.21825e+06
4.26808e+06
1.71376e+07
1.35347e+07
1.53512e+07
1.64322e+07
1.50049e+07
1.0964e+07
1.25249e+07
1.58115e+07
8.24426e+06
1.31311e+07
7.4143e+07
3.32713e+07
2.26982e+07
5.08951e+06
1.26995e+07
1.20557e+07
1.43055e+07
6.44171e+07
-2.26176e+06
329251
1.64804e+06
1.31394e+07
1.4571e+07
3.17552e+07
1.49586e+07
1.41053e+07
2.52859e+07
1.35268e+07
3.18186e+07
1.28173e+07
1.27329e+07
1.23533e+07
1.35451e+07
1.37055e+07
1.2507e+07
1.64356e+07
6.38846e+06
1.48326e+07
1.45972e+07
6.58643e+06
1.65186e+07
1.40224e+07
2.80658e+07
7.73431e+06
9.31059e+06
1.63479e+07
1.16871e+07
1.64527e+07
1.59356e+07
3.12044e+07
1.48556e+07
2.90126e+07
2.83747e+07
2.58876e+07
1.32298e+07
1.25537e+07
1.29149e+07
3.70534e+07
4.03344e+06
2.32689e+07
2.63876e+06
1.79877e+07
1.15196e+07
1.29112e+07
2.15124e+07
1.37165e+07
7.82274e+06
-1.75743e+07
9.42044e+06
1.51667e+07
2.78537e+07
1.30853e+07
2.99528e+07
1.49708e+07
2.94376e+06
7.12795e+06
836298
1.35224e+07
6.00734e+06
-1.36505e+07
1.48286e+07
6.9406e+06
5.21134e+07
9.55059e+06
1.46089e+07
2.3113e+07
1.38172e+07
2.09241e+07
1.43528e+07
9.41877e+06
2.35361e+07
1.14357e+07
1.29006e+07
2.97529e+07
6.12192e+07
1.26441e+07
1.3154e+07
1.48325e+07
6.83719e+06
-1.8315e+07
2.08189e+07
-3.03304e+07
1.0013e+07
1.83849e+07
-8.67906e+06
7.3192e+06
2.69251e+07
1.17173e+07
8.50159e+06
1.32468e+07
1.2989e+07
1.40617e+07
5.00003e+06
2.39374e+07
6.17121e+06
1.84874e+07
1.9069e+07
2.66089e+07
1.34393e+07
1.00317e+07
1.16448e+07
1.09066e+07
1.35358e+07
8.87736e+06
6.17919e+06
2.84531e+07
5.73571e+06
1.42322e+07
-1.25161e+07
1.30652e+07
1.30254e+07
1.68333e+07
1.18839e+07
4.68132e+06
1.26802e+07
1.3531e+07
1.25468e+07
-7.612e+06
1.39815e+07
-1.07158e+07
1.56692e+07
1.67595e+07
9.06756e+06
9.57807e+06
-9.30265e+06
1.34384e+07
9.83451e+06
1.55114e+07
1.43593e+07
1.35645e+07
5.07739e+07
1.42515e+07
1.32144e+07
1.40739e+07
3.40416e+07
9.56265e+06
1.34757e+06
1.06159e+07
3.41479e+07
1.214e+07
1.33646e+07
1.42432e+07
1.26406e+07
2.03744e+07
-1.18029e+07
-8.10241e+06
8.75944e+06
3.15893e+07
9.32431e+06
1.3809e+07
2.7714e+07
1.19214e+07
1.41695e+07
2.11681e+07
1.30339e+07
1.23477e+07
1.19417e+07
1.3536e+07
1.32709e+07
1.81106e+07
1.41384e+07
6.23209e+06
1.5629e+07
3.20659e+07
-6.29032e+06
1.38224e+07
1.34492e+07
1.51619e+07
4.34083e+06
1.45119e+07
-2.20426e+06
-4.63343e+06
-1.63462e+07
1.47752e+07
2.93103e+06
1.33298e+07
2.17016e+07
3.30933e+07
2.99852e+07
1.37666e+07
1.40917e+07
1.41143e+07
1.41306e+07
8.08195e+06
1.34494e+07
1.35398e+07
2.39886e+07
1.47207e+07
1.94514e+07
-874514
106387
1.16243e+07
1.30394e+07
1.34044e+07
-5.99191e+06
1.66478e+07
1.20862e+07
1.43994e+07
1.44709e+07
1.29388e+07
1.27824e+07
3.58649e+07
-8.20716e+06
3.23316e+07
1.56958e+07
1.57736e+07
3.19223e+06
1.25406e+07
1.6883e+07
1.16856e+07
1.18669e+07
1.71827e+07
-1.05756e+07
1.17519e+07
1.47328e+07
-5.98175e+06
-4.78203e+06
-5.7857e+06
7.15771e+06
2.20232e+07
-1.02645e+07
-3.88956e+06
1.39631e+07
1.78188e+07
2.57025e+07
1.43008e+06
1.38614e+07
1.75426e+07
1.99032e+07
4.33264e+07
1.83356e+07
1.96642e+07
1.41174e+07
2.06083e+07
5.92648e+06
1.34302e+07
4.22663e+07
6.11399e+06
1.29336e+07
1.50936e+07
5.55205e+06
1.96443e+06
-2.24389e+06
1.32185e+07
1.42195e+07
-2.00074e+07
3.01412e+07
1.45469e+07
1.68749e+07
1.29582e+07
1.20608e+07
1.56304e+07
6.25748e+06
3.49602e+07
4.39035e+07
1.45848e+07
2.15403e+07
1.75755e+07
1.23793e+07
8.04987e+06
1.17884e+07
3.31454e+06
1.7722e+07
1.50142e+07
1.31183e+07
-761076
9.96086e+06
1.35893e+07
9.81275e+06
1.21566e+07
2.16877e+07
7.56758e+06
1.63966e+07
7.13481e+06
1.3591e+07
1.48185e+07
1.84618e+07
1.37021e+07
3.59223e+07
2.67783e+07
1.52034e+07
3.38894e+07
1.38427e+07
1.42098e+07
2.3087e+07
1.59862e+07
1.4806e+07
1.24112e+07
1.06228e+07
-6.19727e+06
2.01646e+07
1.395e+07
5.74388e+06
8.48479e+06
1.12233e+07
-2.708e+07
1.73212e+07
5.15944e+07
1.51078e+07
1.79991e+07
-4.97015e+06
-1.55038e+07
1.36024e+07
3.16837e+07
2.86892e+07
-4.23318e+06
6.93752e+06
1.62053e+07
1.74696e+07
1.39138e+07
1.85695e+07
1.46171e+07
1.38001e+07
7.35764e+06
9.04943e+06
3.16063e+07
7.5162e+06
9.65568e+06
9.45164e+06
1.36227e+07
-673233
3.96128e+07
-1.33023e+07
5.29883e+07
1.40228e+07
1.61041e+07
1.53142e+07
3.01045e+07
1.474e+07
1.22994e+07
2.9523e+07
2.13256e+07
1.64356e+07
-5.64617e+06
-5.16058e+06
1.13945e+07
-5.0761e+06
1.2341e+07
9.31068e+06
6.79229e+07
1.11576e+07
1.16403e+07
9.32607e+06
8.30226e+06
-9.03877e+06
2.27997e+07
1.02018e+07
2.45769e+07
1.23552e+07
1.51616e+07
1.56987e+07
2.93033e+07
1.67572e+07
1.64964e+07
1.21336e+07
-2.30153e+06
6.29481e+06
-3.70231e+06
1.51551e+07
1.36265e+07
1.30343e+07
2.61198e+06
5.74271e+07
1.67069e+07
1.17731e+07
7.20328e+06
1.08881e+07
1.38499e+07
2.49762e+07
1.37044e+07
1.3031e+07
3.26706e+06
-2.89579e+06
2.23291e+06
2.82041e+07
1.37104e+07
-3.75811e+06
1.59897e+07
1.18254e+07
1.36854e+07
1.2649e+07
1.42432e+07
1.68254e+07
1.39862e+07
1.04189e+07
3.29416e+07
2.7936e+07
2.01977e+07
2.88136e+06
9.86319e+06
-1.98403e+06
3.15973e+06
1.25146e+07
1.1414e+07
1.12139e+07
1.43253e+07
1.47382e+07
1.08141e+07
1.55018e+07
-167241
-1.00676e+07
1.47507e+07
-7.13483e+06
1.25884e+07
3.7283e+06
1.12163e+07
1.16297e+07
1.29102e+07
-2.17454e+06
-7.24545e+06
1.44407e+07
1.44641e+07
1.51053e+07
2.28794e+07
1.50697e+07
1.98052e+07
1.81633e+07
1.33998e+07
1.31576e+07
5.39956e+07
6.83585e+06
1.38802e+07
1.85143e+07
5.41076e+07
2.91272e+07
-3.30765e+06
1.3514e+07
1.21803e+07
1.21228e+07
1.239e+07
1.22948e+07
-8.77301e+06
2.93099e+07
1.41001e+07
9.00073e+06
4.40418e+06
1.28115e+07
1.10238e+07
1.54852e+07
1.61941e+07
-3.12053e+07
1.49312e+07
1.43521e+07
-2.51723e+06
2.05956e+07
-7.12098e+06
1.83553e+07
918227
2.38274e+07
1.24962e+07
-1.45834e+07
6.81222e+06
-1.54824e+07
1.34177e+07
-8.26847e+06
1.15289e+07
1.99785e+07
2.05418e+07
8.8756e+06
8.1259e+06
1.3804e+07
8.39085e+06
-1.45579e+07
2.72261e+07
1.17102e+07
1.33452e+07
5.56432e+06
1.48205e+07
-8.81219e+06
-2.69085e+06
1.57966e+07
1.40148e+07
1.29205e+07
1.5635e+07
1.20594e+07
1.47287e+07
1.28325e+07
2.74549e+07
2.72885e+07
3.03426e+07
2.95749e+07
-9.0623e+06
1.73391e+07
1.19917e+07
1.35044e+07
6.03998e+06
1.99866e+07
1.30468e+07
1.52542e+07
1.26215e+07
7.69358e+06
-9.81831e+06
2.42136e+06
1.54212e+07
1.28306e+07
1.39995e+07
1.36549e+07
1.44525e+07
1.44588e+07
1.20432e+07
1.31066e+07
1.1665e+07
1.71368e+07
1.04196e+07
1.12374e+07
1.90061e+07
1.09303e+07
1.06471e+07
1.91981e+07
1.68972e+07
1.80262e+07
5.95452e+07
1.34046e+07
1.31809e+07
2.73243e+07
1.20471e+07
1.16144e+07
2.2003e+07
1.57249e+07
1.17633e+07
3.10671e+07
5.59033e+06
-8.70453e+06
9.21125e+06
1.64437e+07
-3.10514e+06
-5.97486e+06
-1.8095e+07
8.06184e+06
3.51359e+06
1.73707e+07
1.36608e+07
1.35674e+07
-245158
164912
1.27923e+07
1.18881e+07
7.22751e+06
-4.55659e+06
1.92317e+07
1.30541e+07
1.3348e+07
1.6848e+07
1.30376e+07
1.47508e+07
1.2433e+07
3.95137e+06
3.66902e+06
1.49882e+07
1.39423e+07
4.11493e+06
-1.1717e+07
1.25047e+07
1.30099e+07
-619968
1.38144e+07
-7.66861e+06
2.57331e+07
1.52207e+07
2.84976e+07
3.44722e+07
-5.29983e+06
1.39675e+07
-1.27814e+07
1.4175e+07
1.41428e+07
1.26606e+06
1.58755e+06
1.192e+07
3.43315e+06
3.47074e+06
-2.69119e+06
2.814e+06
1.35236e+07
1.32427e+07
3.52011e+07
1.36066e+07
3.33621e+07
4.50602e+06
4.9581e+07
1.92877e+07
1.44429e+07
1.38997e+07
1.34069e+07
1.31106e+07
1.33668e+07
-1.11074e+07
1.47104e+07
2.70124e+07
1.76674e+07
3.40809e+07
2.59175e+07
-2.64639e+06
2.11668e+07
2.24113e+07
3.56383e+07
-8.71035e+06
7.83461e+06
1.97331e+07
1.31373e+07
-1.16455e+07
2.75835e+07
-7.37195e+06
1.33959e+07
1.29596e+07
4.80328e+06
6.04093e+06
6.45734e+06
-1.55655e+07
-3.85259e+06
1.08713e+07
-1.24102e+07
2.01343e+07
2.06202e+07
2.81685e+07
-3.68208e+06
8.60946e+06
9.89503e+06
1.34757e+07
4.37506e+07
-1.4703e+07
5.84252e+06
-5.75588e+06
5.05908e+06
1.51289e+07
1.55829e+07
3.15242e+07
1.33717e+07
2.09338e+07
1.42791e+07
1.39046e+07
1.43284e+07
2.84383e+06
-1.09473e+07
-1.72104e+07
1.25467e+07
144014
1.97436e+07
1.03374e+07
-4.59892e+07
-7.48317e+06
1.95978e+07
1.03218e+07
9.69155e+06
-8.08703e+06
-2.24826e+07
1.38615e+07
1.88278e+07
1.65577e+07
1.76102e+07
1.16376e+07
2.1253e+06
3.06203e+07
7.24807e+07
1.37638e+07
2.83376e+06
1.25035e+07
1.39334e+07
9.56254e+06
1.24543e+07
1.29085e+07
1.18812e+07
8.03741e+06
1.3252e+07
1.3976e+07
1.42901e+07
2.4133e+07
1.45784e+07
-1.07617e+07
1.30394e+07
1.35721e+07
1.26988e+07
5.97514e+07
1.71833e+07
9.16658e+06
9.75145e+06
1.28962e+07
-5.87574e+06
1.34281e+07
1.25182e+07
1.67757e+07
1.51241e+07
1.35103e+07
-3.77124e+06
1.43935e+07
1.9297e+07
2.32632e+07
-4.76144e+06
1.23347e+06
-3.74233e+06
1.4473e+07
6.64039e+06
1.90971e+07
2.00492e+07
2.09983e+07
1.40469e+07
-5.00765e+06
1.47514e+07
1.39943e+07
2.98207e+07
1.47147e+07
1.33012e+07
9.9855e+06
9.95267e+06
1.479e+07
-2.16009e+06
1.35373e+07
9.84141e+06
1.5399e+07
1.34671e+07
2.21806e+07
1.45696e+07
-1.58575e+06
1.33093e+07
1.77614e+07
1.55288e+07
1.28578e+07
-2.10844e+06
1.33394e+07
5.48539e+06
1.4103e+07
1.36127e+07
2.36783e+07
2.08128e+07
-1.62425e+07
1.80247e+07
9.7223e+06
1.97754e+07
3.20213e+07
1.46139e+07
1.44187e+07
1.75419e+07
1.81185e+07
1.15551e+07
1.15437e+07
1.36208e+07
1.39907e+07
-1.92891e+06
2.63347e+06
7.8812e+06
3.0289e+06
1.39095e+07
1.44067e+07
1.48666e+07
1.36243e+07
2.50519e+07
1.44367e+07
1.44407e+07
2.66262e+07
1.20915e+07
8.34387e+06
-1.26939e+06
2.32805e+07
1.55207e+07
2.98176e+06
1.15194e+07
4.30827e+06
1.33765e+07
1.23147e+07
1.29353e+07
1.26412e+07
-4.5257e+06
4.42683e+07
1.27522e+07
2.08307e+07
-2.296e+06
2.8425e+06
1.37005e+07
1.33969e+07
1.29591e+07
1.7462e+07
2.25747e+07
2.45879e+07
1.31465e+07
3.87834e+07
1.54033e+07
1.40424e+07
-5.65932e+06
-3.93339e+06
-1.54956e+06
1.47973e+07
1.37492e+07
2.55207e+07
2.46202e+07
4.22784e+07
-1.75448e+07
1.74075e+07
82348.2
1.59626e+07
9.48386e+06
1.42663e+07
-1.10567e+07
1.65819e+07
1.85633e+07
1.42772e+07
1.203e+07
1.13126e+07
1.92743e+07
1.52768e+07
-3.79195e+06
-8.89344e+06
9.72995e+06
1.03796e+07
1.25979e+07
1.4323e+07
1.17677e+07
1.82764e+07
1.46817e+07
2.50979e+07
1.34337e+07
1.32173e+07
-6.90702e+06
2.95163e+07
1.76459e+07
1.21705e+07
1.86861e+07
9.06667e+06
8.90262e+06
1.38482e+07
1.43337e+07
1.51239e+07
2.84382e+07
1.24373e+07
1.22386e+07
1.14291e+07
9.88456e+06
2.48179e+07
2.68454e+07
4.52537e+06
1.1658e+07
1.15769e+07
2.98733e+07
2.49518e+07
6.66607e+06
-1.64425e+07
6.30419e+06
8.43331e+06
1.40732e+07
2.13215e+07
1.97566e+07
1.04375e+07
-918730
2.83533e+07
2.87408e+07
958907
1.49098e+07
1.41892e+07
1.36631e+07
2.73875e+07
1.422e+07
1.37346e+07
1.32756e+07
5.12851e+06
1.36626e+07
1.43725e+07
1.2478e+07
-1.24786e+06
9.19297e+06
1.17841e+07
2.47823e+07
1.4736e+07
1.50734e+07
6.06482e+06
1.35177e+07
9.87039e+06
1.18988e+07
1.24254e+07
1.20708e+07
1.22853e+07
1.40755e+07
1.64053e+07
1.53389e+07
1.29653e+07
2.49245e+07
2.5041e+07
-3.53161e+06
4.77927e+06
7.03745e+06
8.86906e+06
1.16644e+07
1.91765e+07
-2.28427e+07
1.74074e+07
1.41807e+07
1.45404e+07
217544
1.56197e+07
1.40971e+07
1.13028e+07
-558750
1.07184e+07
3.85392e+07
7.78224e+06
1.09779e+07
1.26593e+07
-6.41544e+06
8.25058e+06
1.68851e+07
1.67158e+07
1.46002e+07
1.11e+07
1.37066e+07
1.4144e+07
3.1419e+07
7.43761e+06
2.256e+07
-1.51897e+06
1.439e+07
1.27286e+07
1.33692e+07
2.43661e+07
1.35431e+07
2.26514e+07
1.01959e+07
1.17685e+07
1.47551e+07
1.25658e+07
8.52865e+06
1.12973e+07
1.41244e+07
1.45917e+07
5.70695e+07
1.45326e+07
4.39063e+06
-1.03696e+07
1.16048e+07
8.92461e+06
1.37346e+07
9.07469e+06
1.29177e+07
6.83331e+06
6.74759e+06
2.05701e+06
4.32494e+06
1.43272e+07
-4.49038e+06
1.33695e+07
1.60562e+07
-4.75207e+06
1.25678e+07
1.20214e+07
3.4114e+07
2.31108e+07
2.16197e+07
2.9092e+07
2.12552e+07
2.40593e+07
1.69056e+07
1.15137e+07
3.12528e+07
-660421
3.04641e+07
1.28142e+07
1.04359e+07
1.43496e+07
1.33216e+07
1.60153e+07
1.64047e+07
1.09227e+07
3.08276e+06
1.52892e+07
1.23338e+07
1.84238e+07
1.36428e+07
3.33549e+07
3.09903e+07
3.80965e+06
-860494
5.20955e+07
1.46112e+07
1.43525e+07
1.81991e+07
-1.38075e+07
1.71658e+07
1.33982e+07
2.26332e+07
1.38923e+07
1.45707e+07
1.40234e+07
2.47576e+07
1.0629e+07
1.29497e+07
-1.19271e+07
-6.45607e+06
1.40354e+07
1.52093e+07
1.87085e+07
1.5844e+07
1.52535e+07
1.08038e+07
9.00167e+06
1.04503e+07
-4.12034e+06
1.33514e+07
2.1696e+07
1.34258e+07
1.16017e+07
1.02419e+07
1.42067e+07
2.35782e+07
2.89017e+07
2.42014e+07
1.20056e+06
1.66769e+07
2.91528e+07
1.98882e+07
1.40725e+07
1.34303e+07
1.35927e+07
1.40937e+07
1.41222e+07
2.39157e+07
1.21338e+07
-5.57441e+06
1.3874e+07
1.39378e+07
43756
1.90144e+07
1.74443e+07
1.538e+07
1.37432e+07
1.69853e+07
1.25982e+07
1.27854e+07
1.58893e+07
1.44115e+07
1.3484e+07
1.43707e+07
1.53715e+07
1.62887e+07
1.2545e+07
1.33209e+07
1.39063e+07
2.2099e+07
4.23414e+07
1.64803e+07
1.5734e+07
3.38366e+07
1.59023e+07
1.40937e+07
2.11817e+07
1.43463e+07
1.34186e+07
1.68167e+07
1.02873e+07
1.11436e+07
1.61041e+07
1.28524e+07
1.4237e+07
2.47523e+07
1.48282e+07
2.22045e+07
1.29634e+07
1.51198e+07
1.55365e+07
2.80198e+07
-1.0577e+07
2.1049e+07
1.16224e+07
1.28608e+07
1.47272e+07
2.7254e+07
-1.56431e+07
1.5862e+06
1.25752e+07
1.38682e+07
1.58901e+07
1.51117e+07
1.11337e+07
2.36669e+07
-2.55857e+06
1.15502e+07
1.43433e+07
1.36469e+07
1.37093e+07
4.16867e+07
-8.13087e+06
1.51961e+07
1.06359e+07
1.29706e+07
1.64764e+07
1.51679e+07
6.16875e+07
1.28553e+07
1.47077e+07
1.40797e+07
-8.55836e+06
-1.16307e+07
9.51054e+06
1.22371e+07
1.28652e+07
1.32864e+07
1.25371e+07
1.2451e+07
1.15663e+07
1.31425e+07
1.27347e+07
1.5383e+07
1.40041e+07
1.72076e+07
5.1349e+06
1.55382e+07
1.548e+07
1.45659e+07
1.43197e+07
1.28771e+07
1.20291e+07
1.51379e+07
1.40939e+07
1.42188e+07
1.33675e+07
8.69415e+06
9.95681e+06
9.55394e+06
1.48157e+07
1.2758e+07
1.54153e+07
2.90497e+07
2.88119e+07
9.06444e+06
9.83818e+06
1.19341e+07
-1.85833e+06
1.10342e+07
1.37917e+07
1.42042e+07
1.34598e+07
1.43215e+07
1.56392e+07
1.0167e+07
1.8854e+07
7.51653e+06
1.20749e+07
4.52282e+06
-2.36756e+06
1.30476e+07
1.96538e+07
1.81668e+07
2.09601e+07
1.46604e+07
1.59113e+07
2.42359e+07
2.4646e+07
1.246e+07
3.26569e+06
1.27765e+07
1.40026e+07
1.35947e+07
1.11829e+07
1.4362e+07
1.25438e+07
1.29664e+07
1.08675e+07
1.29044e+07
2.33674e+07
1.31408e+07
1.54237e+07
1.47082e+07
-3.24468e+06
-4.25139e+06
1.21438e+07
1.46066e+07
1.37977e+07
1.39657e+07
1.38319e+07
2.06248e+07
1.5558e+07
1.6462e+07
5.88373e+06
2.18174e+07
1.5114e+07
1.60533e+07
1.08533e+07
1.17504e+07
1.70609e+07
1.15888e+07
1.15487e+07
1.73893e+07
9.97426e+06
1.38577e+07
1.58331e+07
1.52232e+07
3.80903e+06
1.72355e+07
1.38716e+07
2.60555e+07
2.58139e+07
1.55639e+07
1.56978e+07
1.59442e+07
1.52694e+07
1.41256e+07
1.74371e+07
2.5101e+07
2.33363e+07
1.24241e+07
1.30285e+07
1.43195e+07
1.573e+07
1.53252e+07
1.73084e+07
9.8478e+06
8.52957e+06
7.24555e+06
2.67199e+07
2.71476e+07
1.45317e+07
1.41744e+07
1.49604e+07
1.51769e+07
1.45586e+07
)
;

boundaryField
{
    back
    {
        type            empty;
    }
    front
    {
        type            empty;
    }
    down
    {
        type            zeroGradient;
    }
    right
    {
        type            zeroGradient;
    }
    up
    {
        type            zeroGradient;
    }
    left
    {
        type            zeroGradient;
    }
    hole
    {
        type            zeroGradient;
    }
}


// ************************************************************************* //
