/*--------------------------------*- C++ -*----------------------------------*\
| =========                 |                                                 |
| \\      /  F ield         | OpenFOAM: The Open Source CFD Toolbox           |
|  \\    /   O peration     | Version:  v2012                                 |
|   \\  /    A nd           | Website:  www.openfoam.com                      |
|    \\/     M anipulation  |                                                 |
\*---------------------------------------------------------------------------*/
FoamFile
{
    version     2.0;
    format      ascii;
    class       volScalarField;
    location    "13";
    object      epsilonEq;
}
// * * * * * * * * * * * * * * * * * * * * * * * * * * * * * * * * * * * * * //

dimensions      [0 0 0 0 0 0 0];


internalField   nonuniform List<scalar> 
500
(
0.00998527
0.00842546
0.00816017
0.00630645
0.00617823
0.0044647
0.00446511
0.00324974
0.00332216
0.00249702
0.00826176
0.00553737
0.00585801
0.00352759
0.00399401
0.00276996
0.00310897
0.0024693
0.00270864
0.00228954
0.00487552
0.0021875
0.00267009
0.00195677
0.00225709
0.00202849
0.00226174
0.00209204
0.00229424
0.00211309
0.00156254
0.00129595
0.00158488
0.00150593
0.00175745
0.00170194
0.00190228
0.00183358
0.00199557
0.00190159
0.000827467
0.000840562
0.0011824
0.00122466
0.00146385
0.00148242
0.00165033
0.00164075
0.00176229
0.00171225
0.000294951
0.00056716
0.000811447
0.000960415
0.00110847
0.00119403
0.00126243
0.00133343
0.00130387
0.00144475
0.000586509
0.000688539
0.000707929
0.000895635
0.00093503
0.00108363
0.00110777
0.00122097
0.00126181
0.00131992
0.00103363
0.000938664
0.000796572
0.000895826
0.000830613
0.000962242
0.000933949
0.00103633
0.00103242
0.00109361
0.00138747
0.00114232
0.000951974
0.00089303
0.00076423
0.000806773
0.000726009
0.000788767
0.000746379
0.000800162
0.00160695
0.00111434
0.00101994
0.000784493
0.000716426
0.000605063
0.000562984
0.000512492
0.000502008
0.00047752
0.000549224
0.000369639
0.000775511
0.000575474
0.00110803
0.000836318
0.00140479
0.00107592
0.00161579
0.00126852
0.000427142
0.000386954
0.000684359
0.000589823
0.00100321
0.000824228
0.00129584
0.00103422
0.00152254
0.00119559
0.000428071
0.000441262
0.000628939
0.000608016
0.000897928
0.000809633
0.00116362
0.000999519
0.00139191
0.00115584
0.000482604
0.000512567
0.000619693
0.000638813
0.000827588
0.000803817
0.00105076
0.000970378
0.00125985
0.0011196
0.000556906
0.000588516
0.000645696
0.000679969
0.000796191
0.000808953
0.00097143
0.000948601
0.00114789
0.00108331
0.000632739
0.000659349
0.000689894
0.000723949
0.000794292
0.000821019
0.000924246
0.000932828
0.00106297
0.00104726
0.000699636
0.000717191
0.000736862
0.000761651
0.000807385
0.000832339
0.000899392
0.000918277
0.00100209
0.00101036
0.000750238
0.000754595
0.000774158
0.000783299
0.000820338
0.000833366
0.000883152
0.000898067
0.00095604
0.000969752
0.000777727
0.000761643
0.000789678
0.000776458
0.000817778
0.000814657
0.00086172
0.000865822
0.000914216
0.000923532
0.000773863
0.000713063
0.000762447
0.000733882
0.000787306
0.000770236
0.000825278
0.000820295
0.00087126
0.000878286
0.00174324
0.00154259
0.00178317
0.00163435
0.00181219
0.00170114
0.00183448
0.00175273
0.00185282
0.00179599
0.00187018
0.00183738
0.00189087
0.00188391
0.00192126
0.00194339
0.00197001
0.00202387
0.00204748
0.00213114
0.00148059
0.00137931
0.00155136
0.00145713
0.00160728
0.00152652
0.00165388
0.0015893
0.00169586
0.00164882
0.00173762
0.00170916
0.0017837
0.00177475
0.00183888
0.00185019
0.0019081
0.00194017
0.0019959
0.00204982
0.00136415
0.00128669
0.0014231
0.00135164
0.00147682
0.00141398
0.00152639
0.00147413
0.00157381
0.00153341
0.00162154
0.00159374
0.00167222
0.00165735
0.00172861
0.00172665
0.00179352
0.00180407
0.00186984
0.0018918
0.00127535
0.00121634
0.00132691
0.00127284
0.00137547
0.00132728
0.00142143
0.00138002
0.00146565
0.00143165
0.00150933
0.00148304
0.00155387
0.00153523
0.0016008
0.00158937
0.00165178
0.00164669
0.00170849
0.0017085
0.00119661
0.00115607
0.00124263
0.00120474
0.00128553
0.00125089
0.00132563
0.0012947
0.00136337
0.00133641
0.00139933
0.00137634
0.00143424
0.00141488
0.00146893
0.00145248
0.00150441
0.00148974
0.00154183
0.00152739
0.00112709
0.00110204
0.00116686
0.0011424
0.00120339
0.00118002
0.00123684
0.00121488
0.00126739
0.00124693
0.00129525
0.00127612
0.00132068
0.00130236
0.00134404
0.00132558
0.00136578
0.0013458
0.0013866
0.0013632
0.00106655
0.00105143
0.00109912
0.00108347
0.00112887
0.00111309
0.00115577
0.00114007
0.00117976
0.00116413
0.00120074
0.0011849
0.0012186
0.00120191
0.0012332
0.00121457
0.00124443
0.00122223
0.00125229
0.00122423
0.00101202
0.00100121
0.00103762
0.00102644
0.00106128
0.0010499
0.0010828
0.00107118
0.0011019
0.00108984
0.00111826
0.00110536
0.00113145
0.00111702
0.00114087
0.00112381
0.00114577
0.00112434
0.0011452
0.00111683
0.000959845
0.000951241
0.000981047
0.000973964
0.00100131
0.000994939
0.00102001
0.00101386
0.00103679
0.0010304
0.00105131
0.00104406
0.00106303
0.00105414
0.00107116
0.00105954
0.00107451
0.00105861
0.00107126
0.00104876
0.00091231
0.000914394
0.000936566
0.000940853
0.000958126
0.000965117
0.000977702
0.000986904
0.000995299
0.00100565
0.00101062
0.00102069
0.00102318
0.0010313
0.00103234
0.00103672
0.0010372
0.00103618
0.00103649
0.00102902
0.00259298
0.00228915
0.00231628
0.00211047
0.00212887
0.00193647
0.00196584
0.00179439
0.00182491
0.00165656
0.00169562
0.00151446
0.00156801
0.00135931
0.00143219
0.00118216
0.00127777
0.000975858
0.00109412
0.000748256
0.00244872
0.00226498
0.00239625
0.00219547
0.00228806
0.00210701
0.00219596
0.00200194
0.00208476
0.00189324
0.00195835
0.00176808
0.00181466
0.00162559
0.00164882
0.00146629
0.00145383
0.00129627
0.0012234
0.00113705
0.00228604
0.00213515
0.00229811
0.00212964
0.00226735
0.00210703
0.0022107
0.00206933
0.00214384
0.0020126
0.00205256
0.00193871
0.0019408
0.0018506
0.00181284
0.00175352
0.00167608
0.00165721
0.00154618
0.00157902
0.00205914
0.00194927
0.00209732
0.0019937
0.00211512
0.00201857
0.00211131
0.0020252
0.0020846
0.00201531
0.00203817
0.0019919
0.00197759
0.00195988
0.00191134
0.00192696
0.00185248
0.0019046
0.00182075
0.00190871
0.00184911
0.00181219
0.0019189
0.00187484
0.0019639
0.00191673
0.00198628
0.0019443
0.00198914
0.00196124
0.00197745
0.00197138
0.00195846
0.00198033
0.00194256
0.0019969
0.00194455
0.00203464
0.00198565
0.00211468
)
;

boundaryField
{
    back
    {
        type            empty;
    }
    front
    {
        type            empty;
    }
    left
    {
        type            calculated;
        value           nonuniform List<scalar> 
15
(
0.00998527
0.00816017
0.00617823
0.00446511
0.00332216
0.00259298
0.00231628
0.00212887
0.00196584
0.00182491
0.00169562
0.00156801
0.00143219
0.00127777
0.00109412
)
;
    }
    hole
    {
        type            calculated;
        value           nonuniform List<scalar> 10(0.00998527 0.00826176 0.00487552 0.00156254 0.000827467 0.000294951 0.000586509 0.00103363 0.00138747 0.00160695);
    }
    down
    {
        type            calculated;
        value           nonuniform List<scalar> 
15
(
0.00111434
0.000784493
0.000605063
0.000512492
0.00047752
0.000549224
0.000427142
0.000428071
0.000482604
0.000556906
0.000632739
0.000699636
0.000750238
0.000777727
0.000773863
)
;
    }
    right
    {
        type            calculated;
        value           nonuniform List<scalar> 
15
(
0.000713063
0.000733882
0.000770236
0.000820295
0.000878286
0.000914394
0.000940853
0.000965117
0.000986904
0.00100565
0.00102069
0.0010313
0.00103672
0.00103618
0.00102902
)
;
    }
    up
    {
        type            calculated;
        value           nonuniform List<scalar> 
15
(
0.00213114
0.00204982
0.0018918
0.0017085
0.00152739
0.0013632
0.00122423
0.00111683
0.00104876
0.00102902
0.000748256
0.00113705
0.00157902
0.00190871
0.00211468
)
;
    }
}


// ************************************************************************* //
