/*--------------------------------*- C++ -*----------------------------------*\
| =========                 |                                                 |
| \\      /  F ield         | OpenFOAM: The Open Source CFD Toolbox           |
|  \\    /   O peration     | Version:  v2012                                 |
|   \\  /    A nd           | Website:  www.openfoam.com                      |
|    \\/     M anipulation  |                                                 |
\*---------------------------------------------------------------------------*/
FoamFile
{
    version     2.0;
    format      ascii;
    class       pointVectorField;
    location    "13";
    object      pointD;
}
// * * * * * * * * * * * * * * * * * * * * * * * * * * * * * * * * * * * * * //

dimensions      [0 1 0 0 0 0 0];


internalField   nonuniform List<vector> 
572
(
(0.00282926 0 0)
(0.00386351 0 0)
(0.00355465 -0.000305997 0)
(0 -0.00212701 0)
(0 -0.000874673 0)
(0.00290176 0 0)
(0 -0.00196744 0)
(0.00187798 -0.000526768 0)
(0.000906495 -0.00104428 0)
(0.00371849 -8.59186e-05 0)
(0.00220822 -0.000840331 0)
(0.00220822 -0.000840331 0)
(0.00187798 -0.000526768 0)
(0 -0.00196744 0)
(0 -0.000874673 0)
(0.00282926 0 0)
(0.00290176 0 0)
(0.00386351 0 0)
(0.00371849 -8.59186e-05 0)
(0.00355465 -0.000305997 0)
(0.000906495 -0.00104428 0)
(0 -0.00212701 0)
(0.000374635 -0.00180176 0)
(0.000747245 -0.00147485 0)
(0.00112693 -0.00112692 0)
(0.0015056 -0.000808083 0)
(0.0021974 -0.000357705 0)
(0.00248342 -0.000222261 0)
(0.00271079 -0.000123579 0)
(0.00285706 -5.52383e-05 0)
(0.00285164 0 0)
(0.00286591 0 0)
(0.00287724 0 0)
(0.00288855 0 0)
(0.00295348 0 0)
(0.00300772 0 0)
(0.00307405 0 0)
(0.00315469 0 0)
(0.00324923 0 0)
(0.00335622 0 0)
(0.00347369 0 0)
(0.0035993 0 0)
(0.00373032 0 0)
(0.0038533 -5.96152e-06 0)
(0.00383292 -1.55864e-05 0)
(0.00380196 -3.09449e-05 0)
(0.00376275 -5.40099e-05 0)
(0.00369941 -0.000102625 0)
(0.00368021 -0.00012097 0)
(0.00366135 -0.000140856 0)
(0.00364314 -0.000162138 0)
(0.00362583 -0.000184627 0)
(0.00360959 -0.000208091 0)
(0.00359449 -0.000232263 0)
(0.00358047 -0.000256845 0)
(0.00356732 -0.000281526 0)
(0.003376 -0.00034573 0)
(0.00319345 -0.00037434 0)
(0.00299833 -0.000392971 0)
(0.00278366 -0.000407534 0)
(0.00254394 -0.000426674 0)
(0.00227481 -0.000461273 0)
(0.00197348 -0.000524515 0)
(0.00163993 -0.000631816 0)
(0.0012793 -0.000799912 0)
(0.000641352 -0.00127434 0)
(0.00040406 -0.0015345 0)
(0.000211318 -0.00179906 0)
(7.78692e-05 -0.00202047 0)
(0 -0.00211463 0)
(0 -0.0021006 0)
(0 -0.00208565 0)
(0 -0.00207028 0)
(0 -0.00205474 0)
(0 -0.0020391 0)
(0 -0.00202324 0)
(0 -0.0020068 0)
(0 -0.00198941 0)
(0 -0.00189381 0)
(0 -0.00177041 0)
(0 -0.00156672 0)
(0 -0.00126696 0)
(0.00209828 -0.000353923 0)
(0.0023025 -0.000237933 0)
(0.0024954 -0.000172662 0)
(0.00268009 -0.000143785 0)
(0.00285945 -0.000137192 0)
(0.00303564 -0.000141047 0)
(0.00320976 -0.000145805 0)
(0.00338195 -0.000143452 0)
(0.00355167 -0.000126384 0)
(0.0017558 -0.000581034 0)
(0.00164176 -0.000635876 0)
(0.00153513 -0.000690469 0)
(0.00143519 -0.000744254 0)
(0.00134099 -0.000796833 0)
(0.00125126 -0.00084799 0)
(0.00116448 -0.00089775 0)
(0.00107899 -0.000946462 0)
(0.000993284 -0.00099488 0)
(0.000719871 -0.00104516 0)
(0.00130771 -0.00120598 0)
(0.00169677 -0.00121685 0)
(0.00196391 -0.00103211 0)
(0.00241214 -0.000660472 0)
(0.00257885 -0.000489541 0)
(0.00270462 -0.000324287 0)
(0.00278623 -0.000162405 0)
(0.00209914 -0.000739691 0)
(0.00201809 -0.000666634 0)
(0.00195757 -0.000611167 0)
(0.00191243 -0.000566519 0)
(0.00209914 -0.000739691 0)
(0.00201809 -0.000666634 0)
(0.00195757 -0.000611167 0)
(0.00191243 -0.000566519 0)
(0.0015056 -0.000808083 0)
(0.00112693 -0.00112692 0)
(0.000747245 -0.00147485 0)
(0.000374635 -0.00180176 0)
(0 -0.00189381 0)
(0 -0.00177041 0)
(0 -0.00156672 0)
(0 -0.00126696 0)
(0.000719871 -0.00104516 0)
(0.00130771 -0.00120598 0)
(0.00169677 -0.00121685 0)
(0.00196391 -0.00103211 0)
(0.00241214 -0.000660472 0)
(0.00257885 -0.000489541 0)
(0.00270462 -0.000324287 0)
(0.00278623 -0.000162405 0)
(0.00285164 0 0)
(0.00286591 0 0)
(0.00287724 0 0)
(0.00288855 0 0)
(0.00285706 -5.52383e-05 0)
(0.00271079 -0.000123579 0)
(0.00248342 -0.000222261 0)
(0.0021974 -0.000357705 0)
(0.00295348 0 0)
(0.00300772 0 0)
(0.00307405 0 0)
(0.00315469 0 0)
(0.00324923 0 0)
(0.00335622 0 0)
(0.00347369 0 0)
(0.0035993 0 0)
(0.00373032 0 0)
(0.0038533 -5.96152e-06 0)
(0.00383292 -1.55864e-05 0)
(0.00380196 -3.09449e-05 0)
(0.00376275 -5.40099e-05 0)
(0.00355167 -0.000126384 0)
(0.00338195 -0.000143452 0)
(0.00320976 -0.000145805 0)
(0.00303564 -0.000141047 0)
(0.00285945 -0.000137192 0)
(0.00268009 -0.000143785 0)
(0.0024954 -0.000172662 0)
(0.0023025 -0.000237933 0)
(0.00209828 -0.000353923 0)
(0.00369941 -0.000102625 0)
(0.00368021 -0.00012097 0)
(0.00366135 -0.000140856 0)
(0.00364314 -0.000162138 0)
(0.00362583 -0.000184627 0)
(0.00360959 -0.000208091 0)
(0.00359449 -0.000232263 0)
(0.00358047 -0.000256845 0)
(0.00356732 -0.000281526 0)
(0.003376 -0.00034573 0)
(0.00319345 -0.00037434 0)
(0.00299833 -0.000392971 0)
(0.00278366 -0.000407534 0)
(0.00254394 -0.000426674 0)
(0.00227481 -0.000461273 0)
(0.00197348 -0.000524515 0)
(0.00163993 -0.000631816 0)
(0.0012793 -0.000799912 0)
(0.000993284 -0.00099488 0)
(0.00107899 -0.000946462 0)
(0.00116448 -0.00089775 0)
(0.00125126 -0.00084799 0)
(0.00134099 -0.000796833 0)
(0.00143519 -0.000744254 0)
(0.00153513 -0.000690469 0)
(0.00164176 -0.000635876 0)
(0.0017558 -0.000581034 0)
(0.000641352 -0.00127434 0)
(0.00040406 -0.0015345 0)
(0.000211318 -0.00179906 0)
(7.78692e-05 -0.00202047 0)
(0 -0.00211463 0)
(0 -0.0021006 0)
(0 -0.00208565 0)
(0 -0.00207028 0)
(0 -0.00205474 0)
(0 -0.0020391 0)
(0 -0.00202324 0)
(0 -0.0020068 0)
(0 -0.00198941 0)
(0.000687851 -0.00136822 0)
(0.00061249 -0.00157472 0)
(0.000517796 -0.00168997 0)
(0.00043599 -0.00175791 0)
(0.00119844 -0.00136701 0)
(0.00105223 -0.0014138 0)
(0.000924032 -0.00143693 0)
(0.000823623 -0.00145684 0)
(0.00152569 -0.00118326 0)
(0.00138909 -0.00115773 0)
(0.00128064 -0.00114199 0)
(0.00119482 -0.00113267 0)
(0.00182035 -0.000956491 0)
(0.00171045 -0.000902284 0)
(0.00162521 -0.000862644 0)
(0.00155849 -0.000832532 0)
(0.00234172 -0.000552308 0)
(0.00228823 -0.000475522 0)
(0.00224785 -0.000420265 0)
(0.00221799 -0.000381246 0)
(0.00254747 -0.000389495 0)
(0.00252224 -0.000320429 0)
(0.0025032 -0.000273013 0)
(0.00249025 -0.000241701 0)
(0.00270685 -0.000246391 0)
(0.00270588 -0.000194021 0)
(0.00270498 -0.000159383 0)
(0.00270625 -0.000137074 0)
(0.00281104 -0.000116814 0)
(0.00282494 -8.91987e-05 0)
(0.00283505 -7.15331e-05 0)
(0.00284509 -6.0632e-05 0)
(0.0029108 -2.46979e-05 0)
(0.00279187 -6.39471e-05 0)
(0.00260596 -0.000128888 0)
(0.00236836 -0.000225581 0)
(0.00297316 -1.37276e-05 0)
(0.00287802 -3.80993e-05 0)
(0.00272738 -8.07557e-05 0)
(0.00253112 -0.000146869 0)
(0.00304687 -1.17707e-05 0)
(0.00297049 -3.0528e-05 0)
(0.00284832 -6.13389e-05 0)
(0.00268698 -0.000108109 0)
(0.0031332 -1.38794e-05 0)
(0.00307121 -3.22368e-05 0)
(0.00297148 -5.83773e-05 0)
(0.00283898 -9.50365e-05 0)
(0.00323204 -1.74058e-05 0)
(0.00318115 -3.77975e-05 0)
(0.00309912 -6.34066e-05 0)
(0.00299016 -9.61341e-05 0)
(0.00334236 -2.07473e-05 0)
(0.0033002 -4.36953e-05 0)
(0.00323228 -7.0521e-05 0)
(0.00314253 -0.000102655 0)
(0.00346246 -2.27549e-05 0)
(0.00342732 -4.73459e-05 0)
(0.00337082 -7.5279e-05 0)
(0.0032968 -0.000107826 0)
(0.0035901 -2.23624e-05 0)
(0.0035606 -4.63533e-05 0)
(0.0035135 -7.37119e-05 0)
(0.00345252 -0.000105835 0)
(0.00372218 -1.8116e-05 0)
(0.00369713 -3.75146e-05 0)
(0.00365819 -6.12118e-05 0)
(0.00360839 -9.0614e-05 0)
(0.00200321 -0.000393141 0)
(0.00190924 -0.000434757 0)
(0.00181808 -0.000478003 0)
(0.0017305 -0.000522249 0)
(0.0016467 -0.000567047 0)
(0.00156662 -0.000612163 0)
(0.00149002 -0.000657605 0)
(0.00141665 -0.000703646 0)
(0.0013464 -0.00075083 0)
(0.00222496 -0.00027017 0)
(0.00214788 -0.000304391 0)
(0.00207227 -0.000340369 0)
(0.00199896 -0.000377862 0)
(0.00192861 -0.000416681 0)
(0.00186176 -0.000456731 0)
(0.00179889 -0.000498039 0)
(0.00174051 -0.000540768 0)
(0.00168725 -0.000585216 0)
(0.00243189 -0.000200161 0)
(0.00236885 -0.00022951 0)
(0.00230704 -0.000260637 0)
(0.00224724 -0.00029346 0)
(0.00219019 -0.000327904 0)
(0.00213664 -0.000363927 0)
(0.00208734 -0.000401529 0)
(0.00204311 -0.00044076 0)
(0.00200483 -0.000481714 0)
(0.00262843 -0.000168051 0)
(0.00257726 -0.000194104 0)
(0.00252728 -0.000221906 0)
(0.00247921 -0.000251406 0)
(0.00243379 -0.000282554 0)
(0.0023918 -0.000315298 0)
(0.00235403 -0.00034959 0)
(0.00232133 -0.000385383 0)
(0.0022946 -0.00042263 0)
(0.00281757 -0.000159374 0)
(0.00277616 -0.000183218 0)
(0.00273586 -0.00020869 0)
(0.00269734 -0.000235744 0)
(0.00266128 -0.000264318 0)
(0.00262839 -0.000294336 0)
(0.00259942 -0.000325707 0)
(0.00257514 -0.000358317 0)
(0.00255636 -0.000392028 0)
(0.00300143 -0.000161865 0)
(0.00296762 -0.000184161 0)
(0.00293481 -0.000207905 0)
(0.00290357 -0.000233052 0)
(0.00287449 -0.00025953 0)
(0.0028482 -0.000287248 0)
(0.00282531 -0.000316082 0)
(0.00280647 -0.000345876 0)
(0.00279236 -0.000376438 0)
(0.0031812 -0.000165537 0)
(0.00315298 -0.000186564 0)
(0.00312561 -0.000208863 0)
(0.00309957 -0.000232391 0)
(0.00307536 -0.000257077 0)
(0.00305344 -0.00028282 0)
(0.0030343 -0.000309483 0)
(0.00301841 -0.000336889 0)
(0.00300625 -0.000364812 0)
(0.0033573 -0.000162051 0)
(0.00333297 -0.000181841 0)
(0.00330936 -0.000202802 0)
(0.00328686 -0.000224885 0)
(0.00326584 -0.000248016 0)
(0.00324663 -0.000272091 0)
(0.00322954 -0.00029697 0)
(0.00321484 -0.000322475 0)
(0.00320274 -0.000348367 0)
(0.00352978 -0.000143762 0)
(0.0035082 -0.000162441 0)
(0.0034872 -0.000182334 0)
(0.0034671 -0.000203358 0)
(0.00344818 -0.000225411 0)
(0.00343066 -0.000248372 0)
(0.00341469 -0.000272091 0)
(0.00340034 -0.000296384 0)
(0.00338752 -0.000321026 0)
(0.000334488 -0.0018307 0)
(0.000301569 -0.00185794 0)
(0.000272218 -0.00188311 0)
(0.000246222 -0.00190709 0)
(0.000222061 -0.00192988 0)
(0.000198345 -0.00195146 0)
(0.000173717 -0.0019717 0)
(0.000146707 -0.00199029 0)
(0.000115546 -0.00200678 0)
(0.000681647 -0.00151489 0)
(0.000623124 -0.00155397 0)
(0.000569871 -0.00159137 0)
(0.000520344 -0.00162686 0)
(0.000473497 -0.00166057 0)
(0.0004275 -0.00169234 0)
(0.000380435 -0.0017221 0)
(0.000330244 -0.00174978 0)
(0.00027468 -0.00177539 0)
(0.00104137 -0.00117301 0)
(0.000962147 -0.00121889 0)
(0.000888562 -0.00126403 0)
(0.00081961 -0.00130795 0)
(0.000753867 -0.00135026 0)
(0.000689604 -0.00139068 0)
(0.000624835 -0.00142911 0)
(0.000557333 -0.00146566 0)
(0.000484641 -0.0015006 0)
(0.00140179 -0.000857437 0)
(0.00130491 -0.000907478 0)
(0.00121429 -0.000957474 0)
(0.00112906 -0.00100678 0)
(0.00104799 -0.00105487 0)
(0.000969553 -0.00110139 0)
(0.000891895 -0.00114623 0)
(0.000812916 -0.00118957 0)
(0.000730285 -0.00123194 0)
(0.000687851 -0.00136822 0)
(0.00061249 -0.00157472 0)
(0.000517796 -0.00168997 0)
(0.00043599 -0.00175791 0)
(0.00119844 -0.00136701 0)
(0.00105223 -0.0014138 0)
(0.000924032 -0.00143693 0)
(0.000823623 -0.00145684 0)
(0.00152569 -0.00118326 0)
(0.00138909 -0.00115773 0)
(0.00128064 -0.00114199 0)
(0.00119482 -0.00113267 0)
(0.00182035 -0.000956491 0)
(0.00171045 -0.000902284 0)
(0.00162521 -0.000862644 0)
(0.00155849 -0.000832532 0)
(0.00234172 -0.000552308 0)
(0.00228823 -0.000475522 0)
(0.00224785 -0.000420265 0)
(0.00221799 -0.000381246 0)
(0.00254747 -0.000389495 0)
(0.00252224 -0.000320429 0)
(0.0025032 -0.000273013 0)
(0.00249025 -0.000241701 0)
(0.00270685 -0.000246391 0)
(0.00270588 -0.000194021 0)
(0.00270498 -0.000159383 0)
(0.00270625 -0.000137074 0)
(0.00281104 -0.000116814 0)
(0.00282494 -8.91987e-05 0)
(0.00283505 -7.15331e-05 0)
(0.00284509 -6.0632e-05 0)
(0.0029108 -2.46979e-05 0)
(0.00279187 -6.39471e-05 0)
(0.00260596 -0.000128888 0)
(0.00236836 -0.000225581 0)
(0.00297316 -1.37276e-05 0)
(0.00287802 -3.80993e-05 0)
(0.00272738 -8.07557e-05 0)
(0.00253112 -0.000146869 0)
(0.00304687 -1.17707e-05 0)
(0.00297049 -3.0528e-05 0)
(0.00284832 -6.13389e-05 0)
(0.00268698 -0.000108109 0)
(0.0031332 -1.38794e-05 0)
(0.00307121 -3.22368e-05 0)
(0.00297148 -5.83773e-05 0)
(0.00283898 -9.50365e-05 0)
(0.00323204 -1.74058e-05 0)
(0.00318115 -3.77975e-05 0)
(0.00309912 -6.34066e-05 0)
(0.00299016 -9.61341e-05 0)
(0.00334236 -2.07473e-05 0)
(0.0033002 -4.36953e-05 0)
(0.00323228 -7.0521e-05 0)
(0.00314253 -0.000102655 0)
(0.00346246 -2.27549e-05 0)
(0.00342732 -4.73459e-05 0)
(0.00337082 -7.5279e-05 0)
(0.0032968 -0.000107826 0)
(0.0035901 -2.23624e-05 0)
(0.0035606 -4.63533e-05 0)
(0.0035135 -7.37119e-05 0)
(0.00345252 -0.000105835 0)
(0.00372218 -1.8116e-05 0)
(0.00369713 -3.75146e-05 0)
(0.00365819 -6.12118e-05 0)
(0.00360839 -9.0614e-05 0)
(0.00200321 -0.000393141 0)
(0.00190924 -0.000434757 0)
(0.00181808 -0.000478003 0)
(0.0017305 -0.000522249 0)
(0.0016467 -0.000567047 0)
(0.00156662 -0.000612163 0)
(0.00149002 -0.000657605 0)
(0.00141665 -0.000703646 0)
(0.0013464 -0.00075083 0)
(0.00222496 -0.00027017 0)
(0.00214788 -0.000304391 0)
(0.00207227 -0.000340369 0)
(0.00199896 -0.000377862 0)
(0.00192861 -0.000416681 0)
(0.00186176 -0.000456731 0)
(0.00179889 -0.000498039 0)
(0.00174051 -0.000540768 0)
(0.00168725 -0.000585216 0)
(0.00243189 -0.000200161 0)
(0.00236885 -0.00022951 0)
(0.00230704 -0.000260637 0)
(0.00224724 -0.00029346 0)
(0.00219019 -0.000327904 0)
(0.00213664 -0.000363927 0)
(0.00208734 -0.000401529 0)
(0.00204311 -0.00044076 0)
(0.00200483 -0.000481714 0)
(0.00262843 -0.000168051 0)
(0.00257726 -0.000194104 0)
(0.00252728 -0.000221906 0)
(0.00247921 -0.000251406 0)
(0.00243379 -0.000282554 0)
(0.0023918 -0.000315298 0)
(0.00235403 -0.00034959 0)
(0.00232133 -0.000385383 0)
(0.0022946 -0.00042263 0)
(0.00281757 -0.000159374 0)
(0.00277616 -0.000183218 0)
(0.00273586 -0.00020869 0)
(0.00269734 -0.000235744 0)
(0.00266128 -0.000264318 0)
(0.00262839 -0.000294336 0)
(0.00259942 -0.000325707 0)
(0.00257514 -0.000358317 0)
(0.00255636 -0.000392028 0)
(0.00300143 -0.000161865 0)
(0.00296762 -0.000184161 0)
(0.00293481 -0.000207905 0)
(0.00290357 -0.000233052 0)
(0.00287449 -0.00025953 0)
(0.0028482 -0.000287248 0)
(0.00282531 -0.000316082 0)
(0.00280647 -0.000345876 0)
(0.00279236 -0.000376438 0)
(0.0031812 -0.000165537 0)
(0.00315298 -0.000186564 0)
(0.00312561 -0.000208863 0)
(0.00309957 -0.000232391 0)
(0.00307536 -0.000257077 0)
(0.00305344 -0.00028282 0)
(0.0030343 -0.000309483 0)
(0.00301841 -0.000336889 0)
(0.00300625 -0.000364812 0)
(0.0033573 -0.000162051 0)
(0.00333297 -0.000181841 0)
(0.00330936 -0.000202802 0)
(0.00328686 -0.000224885 0)
(0.00326584 -0.000248016 0)
(0.00324663 -0.000272091 0)
(0.00322954 -0.00029697 0)
(0.00321484 -0.000322475 0)
(0.00320274 -0.000348367 0)
(0.00352978 -0.000143762 0)
(0.0035082 -0.000162441 0)
(0.0034872 -0.000182334 0)
(0.0034671 -0.000203358 0)
(0.00344818 -0.000225411 0)
(0.00343066 -0.000248372 0)
(0.00341469 -0.000272091 0)
(0.00340034 -0.000296384 0)
(0.00338752 -0.000321026 0)
(0.000334488 -0.0018307 0)
(0.000301569 -0.00185794 0)
(0.000272218 -0.00188311 0)
(0.000246222 -0.00190709 0)
(0.000222061 -0.00192988 0)
(0.000198345 -0.00195146 0)
(0.000173717 -0.0019717 0)
(0.000146707 -0.00199029 0)
(0.000115546 -0.00200678 0)
(0.000681647 -0.00151489 0)
(0.000623124 -0.00155397 0)
(0.000569871 -0.00159137 0)
(0.000520344 -0.00162686 0)
(0.000473497 -0.00166057 0)
(0.0004275 -0.00169234 0)
(0.000380435 -0.0017221 0)
(0.000330244 -0.00174978 0)
(0.00027468 -0.00177539 0)
(0.00104137 -0.00117301 0)
(0.000962147 -0.00121889 0)
(0.000888562 -0.00126403 0)
(0.00081961 -0.00130795 0)
(0.000753867 -0.00135026 0)
(0.000689604 -0.00139068 0)
(0.000624835 -0.00142911 0)
(0.000557333 -0.00146566 0)
(0.000484641 -0.0015006 0)
(0.00140179 -0.000857437 0)
(0.00130491 -0.000907478 0)
(0.00121429 -0.000957474 0)
(0.00112906 -0.00100678 0)
(0.00104799 -0.00105487 0)
(0.000969553 -0.00110139 0)
(0.000891895 -0.00114623 0)
(0.000812916 -0.00118957 0)
(0.000730285 -0.00123194 0)
)
;

boundaryField
{
    back
    {
        type            empty;
    }
    front
    {
        type            empty;
    }
    left
    {
        type            pointFixedDisplacementZeroShear;
    }
    hole
    {
        type            pointSolidTraction;
        traction        uniform (0 0 0);
        pressure        uniform 0;
    }
    down
    {
        type            pointFixedDisplacementZeroShear;
    }
    right
    {
        type            pointSolidTraction;
        tractionSeries  
{
        fileName        "$FOAM_CASE/constant/timeVsTraction";
        outOfBounds     clamp;
}
        pressure        uniform 0;
    }
    up
    {
        type            pointSolidTraction;
        traction        uniform (0 0 0);
        pressure        uniform 0;
    }
}


// ************************************************************************* //
