/*--------------------------------*- C++ -*----------------------------------*\
| =========                 |                                                 |
| \\      /  F ield         | OpenFOAM: The Open Source CFD Toolbox           |
|  \\    /   O peration     | Version:  v2012                                 |
|   \\  /    A nd           | Website:  www.openfoam.com                      |
|    \\/     M anipulation  |                                                 |
\*---------------------------------------------------------------------------*/
FoamFile
{
    version     2.0;
    format      ascii;
    class       pointVectorField;
    location    "1";
    object      pointD;
}
// * * * * * * * * * * * * * * * * * * * * * * * * * * * * * * * * * * * * * //

dimensions      [0 1 0 0 0 0 0];


internalField   nonuniform List<vector> 
7900
(
(0.000353958 0 0)
(0.000505605 0 0)
(0.000466629 -4.67374e-05 0)
(0 -0.000249207 0)
(0 -0.000192357 0)
(0.000353958 0 0)
(0.000505605 0 0)
(0.000466629 -4.67374e-05 0)
(0 -0.000249207 0)
(0 -0.000192357 0)
(0.000356579 0 0)
(0.000358481 0 0)
(0.000360002 0 0)
(0.000361157 0 0)
(0.000362041 0 0)
(0.000362841 0 0)
(0.000363586 0 0)
(0.000364342 0 0)
(0.000365121 0 0)
(0.000365975 0 0)
(0.000366818 0 0)
(0.000367782 0 0)
(0.000368874 0 0)
(0.000369984 0 0)
(0.000371274 0 0)
(0.00037261 0 0)
(0.000374054 0 0)
(0.000375623 0 0)
(0.000377275 0 0)
(0.000379036 0 0)
(0.000380902 0 0)
(0.000382859 0 0)
(0.00038491 0 0)
(0.000387053 0 0)
(0.000389286 0 0)
(0.000391609 0 0)
(0.000394016 0 0)
(0.000396511 0 0)
(0.000399085 0 0)
(0.000401741 0 0)
(0.000404471 0 0)
(0.000407273 0 0)
(0.00041015 0 0)
(0.000413101 0 0)
(0.00041612 0 0)
(0.000419203 0 0)
(0.00042235 0 0)
(0.000425556 0 0)
(0.000428822 0 0)
(0.000432145 0 0)
(0.000435523 0 0)
(0.000438952 0 0)
(0.000442428 0 0)
(0.00044595 0 0)
(0.000449518 0 0)
(0.000453124 0 0)
(0.000456766 0 0)
(0.000460441 0 0)
(0.000464152 0 0)
(0.00046788 0 0)
(0.000471635 0 0)
(0.000475405 0 0)
(0.00047919 0 0)
(0.000482983 0 0)
(0.000486779 0 0)
(0.000490576 0 0)
(0.000494373 0 0)
(0.00049813 0 0)
(0.000501873 0 0)
(0.000505544 -3.51438e-07 0)
(0.000505384 -7.04476e-07 0)
(0.000505171 -1.07313e-06 0)
(0.00050483 -1.44525e-06 0)
(0.000504402 -1.84399e-06 0)
(0.000503887 -2.28506e-06 0)
(0.000503279 -2.73207e-06 0)
(0.000502598 -3.2289e-06 0)
(0.000501834 -3.75997e-06 0)
(0.000500985 -4.31716e-06 0)
(0.000500063 -4.93614e-06 0)
(0.000499084 -5.61311e-06 0)
(0.000498029 -6.32957e-06 0)
(0.000496926 -7.11094e-06 0)
(0.00049577 -7.95782e-06 0)
(0.000494556 -8.85657e-06 0)
(0.000493314 -9.82061e-06 0)
(0.000492048 -1.08565e-05 0)
(0.000490733 -1.19465e-05 0)
(0.00048942 -1.31083e-05 0)
(0.000488077 -1.43341e-05 0)
(0.000486722 -1.56313e-05 0)
(0.000485385 -1.69921e-05 0)
(0.000484048 -1.84189e-05 0)
(0.000482711 -1.99027e-05 0)
(0.000481407 -2.14446e-05 0)
(0.000480112 -2.30456e-05 0)
(0.000478843 -2.47045e-05 0)
(0.00047762 -2.64053e-05 0)
(0.000476428 -2.81553e-05 0)
(0.00047528 -2.994e-05 0)
(0.000474172 -3.17615e-05 0)
(0.000473111 -3.36055e-05 0)
(0.000472087 -3.54765e-05 0)
(0.000471112 -3.73509e-05 0)
(0.000470171 -3.92374e-05 0)
(0.000469262 -4.11247e-05 0)
(0.000468381 -4.30022e-05 0)
(0.000467504 -4.48739e-05 0)
(0.000462288 -4.76164e-05 0)
(0.000457955 -4.84955e-05 0)
(0.000453629 -4.93633e-05 0)
(0.000449308 -5.02058e-05 0)
(0.000444989 -5.10207e-05 0)
(0.000440667 -5.17931e-05 0)
(0.000436328 -5.25293e-05 0)
(0.000431973 -5.32119e-05 0)
(0.000427586 -5.3859e-05 0)
(0.00042317 -5.44566e-05 0)
(0.000418715 -5.50114e-05 0)
(0.000414217 -5.55153e-05 0)
(0.000409666 -5.59964e-05 0)
(0.000405066 -5.64166e-05 0)
(0.0004004 -5.681e-05 0)
(0.000395668 -5.71947e-05 0)
(0.000390863 -5.75474e-05 0)
(0.000385991 -5.78652e-05 0)
(0.000381039 -5.81856e-05 0)
(0.000376004 -5.84896e-05 0)
(0.000370883 -5.88031e-05 0)
(0.000365669 -5.91108e-05 0)
(0.000360348 -5.94275e-05 0)
(0.000354959 -5.97628e-05 0)
(0.000349466 -6.01432e-05 0)
(0.000343853 -6.05187e-05 0)
(0.000338148 -6.09645e-05 0)
(0.000332322 -6.1422e-05 0)
(0.000326401 -6.1983e-05 0)
(0.000320354 -6.25679e-05 0)
(0.000314201 -6.32488e-05 0)
(0.000307928 -6.39849e-05 0)
(0.000301546 -6.48569e-05 0)
(0.000295017 -6.57805e-05 0)
(0.000288398 -6.68451e-05 0)
(0.000281635 -6.8008e-05 0)
(0.000274769 -6.9327e-05 0)
(0.00026778 -7.07679e-05 0)
(0.000260693 -7.23826e-05 0)
(0.000253457 -7.41424e-05 0)
(0.000246119 -7.60708e-05 0)
(0.000238683 -7.82074e-05 0)
(0.000231121 -8.05282e-05 0)
(0.000223495 -8.30448e-05 0)
(0.000215785 -8.57901e-05 0)
(0.00020794 -8.87447e-05 0)
(0.000200081 -9.1933e-05 0)
(0.000192151 -9.53771e-05 0)
(0.000184128 -9.90456e-05 0)
(0.000176125 -0.000102977 0)
(0.000168065 -0.000107156 0)
(0.000160012 -0.000111593 0)
(0.000151928 -0.000116285 0)
(0.000143912 -0.000121237 0)
(0.000135974 -0.000126405 0)
(0.000128081 -0.000131808 0)
(0.000120279 -0.000137473 0)
(0.000112583 -0.000143342 0)
(0.000105008 -0.000149336 0)
(9.76093e-05 -0.000155524 0)
(9.03802e-05 -0.000161881 0)
(8.3358e-05 -0.000168314 0)
(7.65603e-05 -0.000174834 0)
(7.00027e-05 -0.000181341 0)
(6.37237e-05 -0.00018788 0)
(5.76579e-05 -0.000194326 0)
(5.18987e-05 -0.000200649 0)
(4.64648e-05 -0.000206884 0)
(4.12448e-05 -0.000212818 0)
(3.63673e-05 -0.000218491 0)
(3.18234e-05 -0.000223843 0)
(2.74702e-05 -0.000228822 0)
(2.33558e-05 -0.000233326 0)
(1.96039e-05 -0.000237392 0)
(1.59354e-05 -0.00024089 0)
(1.24648e-05 -0.000243787 0)
(9.28581e-06 -0.000246126 0)
(6.04236e-06 -0.000247778 0)
(3.07902e-06 -0.000248783 0)
(0 -0.000247707 0)
(0 -0.000245958 0)
(0 -0.000244285 0)
(0 -0.00024232 0)
(0 -0.000240369 0)
(0 -0.000238218 0)
(0 -0.000236076 0)
(0 -0.000233938 0)
(0 -0.000231801 0)
(0 -0.000229493 0)
(0 -0.000227208 0)
(0 -0.000224884 0)
(0 -0.000222385 0)
(0 -0.000219722 0)
(0 -0.000216839 0)
(0 -0.000213439 0)
(0 -0.000209551 0)
(0 -0.00020499 0)
(0 -0.000199358 0)
(1.86268e-05 -0.000191784 0)
(3.73382e-05 -0.000190491 0)
(5.53702e-05 -0.000188667 0)
(7.36078e-05 -0.000185961 0)
(9.11417e-05 -0.000182371 0)
(0.000109154 -0.000178508 0)
(0.000126213 -0.000174021 0)
(0.000142749 -0.000168907 0)
(0.000159454 -0.000163243 0)
(0.000175174 -0.00015727 0)
(0.000190346 -0.000150913 0)
(0.000205063 -0.000144398 0)
(0.000219081 -0.000137466 0)
(0.000232583 -0.000130496 0)
(0.000245257 -0.000123304 0)
(0.000257381 -0.000116141 0)
(0.000268799 -0.000108788 0)
(0.000279669 -0.000101615 0)
(0.00028976 -9.43352e-05 0)
(0.000299159 -8.68064e-05 0)
(0.000307811 -7.95199e-05 0)
(0.000315735 -7.22219e-05 0)
(0.000322939 -6.47584e-05 0)
(0.000329375 -5.76162e-05 0)
(0.000335124 -5.03836e-05 0)
(0.000340022 -4.32085e-05 0)
(0.000344244 -3.57482e-05 0)
(0.000347698 -2.8705e-05 0)
(0.000350327 -2.14015e-05 0)
(0.000352216 -1.44427e-05 0)
(0.000353574 -7.29919e-06 0)
(0.000356579 0 0)
(0.000358481 0 0)
(0.000360002 0 0)
(0.000361157 0 0)
(0.000362041 0 0)
(0.000362841 0 0)
(0.000363586 0 0)
(0.000364342 0 0)
(0.000365121 0 0)
(0.000365975 0 0)
(0.000366818 0 0)
(0.000367782 0 0)
(0.000368874 0 0)
(0.000369984 0 0)
(0.000371274 0 0)
(0.00037261 0 0)
(0.000374054 0 0)
(0.000375623 0 0)
(0.000377275 0 0)
(0.000379036 0 0)
(0.000380902 0 0)
(0.000382859 0 0)
(0.00038491 0 0)
(0.000387053 0 0)
(0.000389286 0 0)
(0.000391609 0 0)
(0.000394016 0 0)
(0.000396511 0 0)
(0.000399085 0 0)
(0.000401741 0 0)
(0.000404471 0 0)
(0.000407273 0 0)
(0.00041015 0 0)
(0.000413101 0 0)
(0.00041612 0 0)
(0.000419203 0 0)
(0.00042235 0 0)
(0.000425556 0 0)
(0.000428822 0 0)
(0.000432145 0 0)
(0.000435523 0 0)
(0.000438952 0 0)
(0.000442428 0 0)
(0.00044595 0 0)
(0.000449518 0 0)
(0.000453124 0 0)
(0.000456766 0 0)
(0.000460441 0 0)
(0.000464152 0 0)
(0.00046788 0 0)
(0.000471635 0 0)
(0.000475405 0 0)
(0.00047919 0 0)
(0.000482983 0 0)
(0.000486779 0 0)
(0.000490576 0 0)
(0.000494373 0 0)
(0.00049813 0 0)
(0.000501873 0 0)
(0.000505544 -3.51438e-07 0)
(0.000505384 -7.04476e-07 0)
(0.000505171 -1.07313e-06 0)
(0.00050483 -1.44525e-06 0)
(0.000504402 -1.84399e-06 0)
(0.000503887 -2.28506e-06 0)
(0.000503279 -2.73207e-06 0)
(0.000502598 -3.2289e-06 0)
(0.000501834 -3.75997e-06 0)
(0.000500985 -4.31716e-06 0)
(0.000500063 -4.93614e-06 0)
(0.000499084 -5.61311e-06 0)
(0.000498029 -6.32957e-06 0)
(0.000496926 -7.11094e-06 0)
(0.00049577 -7.95782e-06 0)
(0.000494556 -8.85657e-06 0)
(0.000493314 -9.82061e-06 0)
(0.000492048 -1.08565e-05 0)
(0.000490733 -1.19465e-05 0)
(0.00048942 -1.31083e-05 0)
(0.000488077 -1.43341e-05 0)
(0.000486722 -1.56313e-05 0)
(0.000485385 -1.69921e-05 0)
(0.000484048 -1.84189e-05 0)
(0.000482711 -1.99027e-05 0)
(0.000481407 -2.14446e-05 0)
(0.000480112 -2.30456e-05 0)
(0.000478843 -2.47045e-05 0)
(0.00047762 -2.64053e-05 0)
(0.000476428 -2.81553e-05 0)
(0.00047528 -2.994e-05 0)
(0.000474172 -3.17615e-05 0)
(0.000473111 -3.36055e-05 0)
(0.000472087 -3.54765e-05 0)
(0.000471112 -3.73509e-05 0)
(0.000470171 -3.92374e-05 0)
(0.000469262 -4.11247e-05 0)
(0.000468381 -4.30022e-05 0)
(0.000467504 -4.48739e-05 0)
(0.000462288 -4.76164e-05 0)
(0.000457955 -4.84955e-05 0)
(0.000453629 -4.93633e-05 0)
(0.000449308 -5.02058e-05 0)
(0.000444989 -5.10207e-05 0)
(0.000440667 -5.17931e-05 0)
(0.000436328 -5.25293e-05 0)
(0.000431973 -5.32119e-05 0)
(0.000427586 -5.3859e-05 0)
(0.00042317 -5.44566e-05 0)
(0.000418715 -5.50114e-05 0)
(0.000414217 -5.55153e-05 0)
(0.000409666 -5.59964e-05 0)
(0.000405066 -5.64166e-05 0)
(0.0004004 -5.681e-05 0)
(0.000395668 -5.71947e-05 0)
(0.000390863 -5.75474e-05 0)
(0.000385991 -5.78652e-05 0)
(0.000381039 -5.81856e-05 0)
(0.000376004 -5.84896e-05 0)
(0.000370883 -5.88031e-05 0)
(0.000365669 -5.91108e-05 0)
(0.000360348 -5.94275e-05 0)
(0.000354959 -5.97628e-05 0)
(0.000349466 -6.01432e-05 0)
(0.000343853 -6.05187e-05 0)
(0.000338148 -6.09645e-05 0)
(0.000332322 -6.1422e-05 0)
(0.000326401 -6.1983e-05 0)
(0.000320354 -6.25679e-05 0)
(0.000314201 -6.32488e-05 0)
(0.000307928 -6.39849e-05 0)
(0.000301546 -6.48569e-05 0)
(0.000295017 -6.57805e-05 0)
(0.000288398 -6.68451e-05 0)
(0.000281635 -6.8008e-05 0)
(0.000274769 -6.9327e-05 0)
(0.00026778 -7.07679e-05 0)
(0.000260693 -7.23826e-05 0)
(0.000253457 -7.41424e-05 0)
(0.000246119 -7.60708e-05 0)
(0.000238683 -7.82074e-05 0)
(0.000231121 -8.05282e-05 0)
(0.000223495 -8.30448e-05 0)
(0.000215785 -8.57901e-05 0)
(0.00020794 -8.87447e-05 0)
(0.000200081 -9.1933e-05 0)
(0.000192151 -9.53771e-05 0)
(0.000184128 -9.90456e-05 0)
(0.000176125 -0.000102977 0)
(0.000168065 -0.000107156 0)
(0.000160012 -0.000111593 0)
(0.000151928 -0.000116285 0)
(0.000143912 -0.000121237 0)
(0.000135974 -0.000126405 0)
(0.000128081 -0.000131808 0)
(0.000120279 -0.000137473 0)
(0.000112583 -0.000143342 0)
(0.000105008 -0.000149336 0)
(9.76093e-05 -0.000155524 0)
(9.03802e-05 -0.000161881 0)
(8.3358e-05 -0.000168314 0)
(7.65603e-05 -0.000174834 0)
(7.00027e-05 -0.000181341 0)
(6.37237e-05 -0.00018788 0)
(5.76579e-05 -0.000194326 0)
(5.18987e-05 -0.000200649 0)
(4.64648e-05 -0.000206884 0)
(4.12448e-05 -0.000212818 0)
(3.63673e-05 -0.000218491 0)
(3.18234e-05 -0.000223843 0)
(2.74702e-05 -0.000228822 0)
(2.33558e-05 -0.000233326 0)
(1.96039e-05 -0.000237392 0)
(1.59354e-05 -0.00024089 0)
(1.24648e-05 -0.000243787 0)
(9.28581e-06 -0.000246126 0)
(6.04236e-06 -0.000247778 0)
(3.07902e-06 -0.000248783 0)
(0 -0.000247707 0)
(0 -0.000245958 0)
(0 -0.000244285 0)
(0 -0.00024232 0)
(0 -0.000240369 0)
(0 -0.000238218 0)
(0 -0.000236076 0)
(0 -0.000233938 0)
(0 -0.000231801 0)
(0 -0.000229493 0)
(0 -0.000227208 0)
(0 -0.000224884 0)
(0 -0.000222385 0)
(0 -0.000219722 0)
(0 -0.000216839 0)
(0 -0.000213439 0)
(0 -0.000209551 0)
(0 -0.00020499 0)
(0 -0.000199358 0)
(1.86268e-05 -0.000191784 0)
(3.73382e-05 -0.000190491 0)
(5.53702e-05 -0.000188667 0)
(7.36078e-05 -0.000185961 0)
(9.11417e-05 -0.000182371 0)
(0.000109154 -0.000178508 0)
(0.000126213 -0.000174021 0)
(0.000142749 -0.000168907 0)
(0.000159454 -0.000163243 0)
(0.000175174 -0.00015727 0)
(0.000190346 -0.000150913 0)
(0.000205063 -0.000144398 0)
(0.000219081 -0.000137466 0)
(0.000232583 -0.000130496 0)
(0.000245257 -0.000123304 0)
(0.000257381 -0.000116141 0)
(0.000268799 -0.000108788 0)
(0.000279669 -0.000101615 0)
(0.00028976 -9.43352e-05 0)
(0.000299159 -8.68064e-05 0)
(0.000307811 -7.95199e-05 0)
(0.000315735 -7.22219e-05 0)
(0.000322939 -6.47584e-05 0)
(0.000329375 -5.76162e-05 0)
(0.000335124 -5.03836e-05 0)
(0.000340022 -4.32085e-05 0)
(0.000344244 -3.57482e-05 0)
(0.000347698 -2.8705e-05 0)
(0.000350327 -2.14015e-05 0)
(0.000352216 -1.44427e-05 0)
(0.000353574 -7.29919e-06 0)
(0.000298623 -2.84618e-05 0)
(0.000389399 -2.01938e-05 0)
(0.000185808 -9.50826e-05 0)
(0.000423787 -3.13177e-05 0)
(0.000446182 -1.25115e-05 0)
(0.00031956 -3.40553e-05 0)
(0.000369058 -9.44571e-06 0)
(8.8474e-05 -0.000180457 0)
(0.000329223 -1.68535e-05 0)
(0.000229637 -6.52672e-05 0)
(0.000374368 -3.7393e-05 0)
(0.000415335 -8.59759e-06 0)
(0.000258763 -5.43955e-05 0)
(0.000359482 -6.24332e-06 0)
(0.000455167 -1.97179e-05 0)
(0.00026792 -5.33839e-05 0)
(0.000334037 -2.05802e-05 0)
(0.000473216 -6.36271e-06 0)
(0.000440296 -3.86817e-05 0)
(0.000420446 -2.10454e-05 0)
(0.000122439 -0.000145307 0)
(0.000157763 -0.000127687 0)
(0.000333363 -4.43206e-05 0)
(0.000396432 -5.00643e-06 0)
(0.000171693 -0.000102561 0)
(0.000249887 -5.1954e-05 0)
(0.00039904 -4.31009e-05 0)
(0.000441099 -6.1583e-06 0)
(0.000357708 -2.93639e-05 0)
(0.000388256 -1.19782e-05 0)
(0.000291987 -3.63537e-05 0)
(3.86896e-05 -0.000222724 0)
(0.00037923 -3.65599e-06 0)
(0.000361187 -1.93049e-05 0)
(0.000472034 -1.18578e-05 0)
(0.000454745 -2.74457e-05 0)
(0.00033887 -1.40619e-05 0)
(6.06125e-05 -0.000201041 0)
(0.000347689 -1.46379e-05 0)
(0.00029664 -5.11801e-05 0)
(0.000358343 -5.41216e-06 0)
(0.000295653 -2.90772e-05 0)
(0.00039514 -2.76446e-05 0)
(0.000413875 -1.46862e-05 0)
(0.000307984 -3.61232e-05 0)
(7.65704e-05 -0.000188708 0)
(0.000227141 -7.12972e-05 0)
(0.000220532 -9.10086e-05 0)
(0.000333948 -1.35895e-05 0)
(0.000355779 -4.75892e-05 0)
(0.000413948 -3.88253e-06 0)
(0.00021318 -7.40795e-05 0)
(0.000262432 -4.58788e-05 0)
(0.000131576 -0.000141356 0)
(0.000115717 -0.000165798 0)
(0.000418349 -4.55063e-05 0)
(0.00045926 -4.42551e-06 0)
(0.000400154 -3.43261e-05 0)
(0.000430942 -1.07028e-05 0)
(0.000191408 -8.98898e-05 0)
(0.000434306 -2.38836e-05 0)
(0.00021016 -8.28403e-05 0)
(0.000377387 -4.86263e-05 0)
(0.000428975 -3.78317e-06 0)
(0.000373544 -2.57262e-06 0)
(0.0001322 -0.000132841 0)
(0.000487479 -3.07545e-06 0)
(0.000451004 -4.22608e-05 0)
(0.000443313 -1.7629e-05 0)
(3.44959e-05 -0.000219792 0)
(0.000474957 -1.48399e-05 0)
(0.000261263 -5.06157e-05 0)
(0.000360726 -8.03925e-06 0)
(0.000271716 -6.40356e-05 0)
(0.000337609 -2.53156e-05 0)
(0.00035828 -1.48469e-05 0)
(0.000391869 -2.57304e-06 0)
(0.000468508 -2.05527e-05 0)
(0.000160103 -0.000113171 0)
(0.000295518 -3.29617e-05 0)
(0.00048435 -7.36198e-06 0)
(0.000457531 -3.22068e-05 0)
(0.000424162 -3.75011e-05 0)
(0.000456823 -8.44136e-06 0)
(0.000414456 -2.73534e-05 0)
(0.00042861 -1.56419e-05 0)
(0.000293836 -4.0879e-05 0)
(0.000268515 -6.05024e-05 0)
(0.000310231 -2.65269e-05 0)
(0.000334321 -3.62904e-05 0)
(0.000385338 -8.14738e-06 0)
(0.000354518 -3.71808e-05 0)
(0.00040104 -7.88161e-06 0)
(0.000313268 -5.32012e-05 0)
(0.000374937 -3.03936e-05 0)
(0.000398281 -1.4404e-05 0)
(9.41406e-05 -0.000168056 0)
(0.000359608 -5.39145e-06 0)
(0.000403058 -2.1625e-05 0)
(0.000368372 -2.44133e-06 0)
(0.000265967 -4.49753e-05 0)
(4.87276e-05 -0.000214523 0)
(0.000369569 -2.27294e-05 0)
(0.000184635 -0.000123595 0)
(0.000404383 -2.39152e-06 0)
(0.000379833 -1.68655e-05 0)
(0.000473581 -3.10276e-06 0)
(0.000433783 -4.62046e-05 0)
(1.97065e-05 -0.000237193 0)
(0.000314842 -3.0459e-05 0)
(0.000117625 -0.000157725 0)
(0.000320152 -1.91409e-05 0)
(0.000441303 -2.73289e-05 0)
(0.000350778 -1.3072e-05 0)
(0.000167256 -0.000112926 0)
(0.000221464 -7.05469e-05 0)
(0.000102051 -0.000166444 0)
(0.000384655 -5.31222e-06 0)
(0.00027959 -3.61875e-05 0)
(0.000334537 -5.25705e-05 0)
(0.000460872 -1.122e-05 0)
(0.00033338 -2.94649e-05 0)
(0.000243098 -6.85091e-05 0)
(0.000202172 -8.14715e-05 0)
(0.000160593 -0.00010996 0)
(0.000401623 -4.96194e-05 0)
(0.000447836 -3.12627e-06 0)
(0.000314022 -4.19695e-05 0)
(0.000439809 -3.33794e-05 0)
(0.000344752 -9.95345e-06 0)
(6.59203e-05 -0.000200063 0)
(0.00038443 -4.17044e-05 0)
(0.000427987 -6.74643e-06 0)
(0.000458621 -1.56119e-05 0)
(0.000342614 -2.87174e-05 0)
(0.00037451 -1.19965e-05 0)
(4.17522e-05 -0.000205282 0)
(6.19462e-05 -0.000202062 0)
(0.000346677 -1.13081e-05 0)
(0.000286919 -3.52467e-05 0)
(0.000355135 -1.27212e-05 0)
(0.000329646 -2.13544e-05 0)
(0.000329284 -1.90241e-05 0)
(8.67681e-05 -0.000186528 0)
(0.000382276 -1.57497e-06 0)
(2.1434e-05 -0.000231095 0)
(0.000411458 -3.73065e-05 0)
(0.000443827 -9.14572e-06 0)
(0.000346627 -1.0285e-05 0)
(0.000155654 -0.000119179 0)
(0.000289703 -4.74201e-05 0)
(0.000368919 -5.04239e-06 0)
(0.000318796 -1.94147e-05 0)
(0.000483058 -1.09775e-05 0)
(0.000403936 -1.07584e-05 0)
(8.88197e-05 -0.000181823 0)
(0.000469289 -2.35624e-05 0)
(0.000373372 -6.30191e-06 0)
(0.00023813 -5.85484e-05 0)
(0.000386062 -2.51046e-05 0)
(2.86985e-05 -0.000216879 0)
(0.000185649 -9.30088e-05 0)
(0.000454025 -2.37736e-05 0)
(0.000203927 -8.48546e-05 0)
(0.000216054 -7.46493e-05 0)
(0.00049163 -4.52761e-06 0)
(0.000459954 -3.60359e-05 0)
(0.000388043 -3.2948e-05 0)
(0.000419097 -1.10444e-05 0)
(0.000190797 -0.000102102 0)
(0.00024906 -5.91876e-05 0)
(0.000302399 -5.3595e-05 0)
(0.00028447 -6.01898e-05 0)
(0.000360283 -5.08383e-06 0)
(0.00036468 -2.66181e-06 0)
(0.00036267 -5.25785e-05 0)
(0.000421547 -2.32469e-06 0)
(0.000240277 -6.10677e-05 0)
(0.000152289 -0.00014994 0)
(0.000402175 -1.77424e-05 0)
(0.000414791 -1.81454e-05 0)
(0.000281941 -4.69144e-05 0)
(0.000345964 -1.99359e-05 0)
(0.000473012 -8.77732e-06 0)
(0.00036958 -4.35484e-05 0)
(0.00041946 -5.69647e-06 0)
(0.000250028 -8.7983e-05 0)
(0.000253288 -5.21041e-05 0)
(7.10898e-05 -0.000189537 0)
(0.000347941 -4.37149e-05 0)
(0.000405513 -5.42029e-06 0)
(0.000359568 -6.10953e-06 0)
(3.11979e-05 -0.000229847 0)
(0.000106726 -0.000153438 0)
(0.000301701 -2.61578e-05 0)
(0.000387309 -5.18782e-05 0)
(0.00043814 -2.40338e-06 0)
(0.00023141 -7.42205e-05 0)
(0.000314498 -4.71735e-05 0)
(0.000413361 -4.1995e-05 0)
(0.000451201 -6.41195e-06 0)
(0.000371781 -1.51668e-05 0)
(0.000355408 -2.40313e-05 0)
(0.000273962 -4.27066e-05 0)
(0.000432539 -2.06147e-05 0)
(0.000348841 -8.72712e-06 0)
(0.000408197 -2.46434e-05 0)
(0.000317003 -2.16827e-05 0)
(0.000206611 -7.9137e-05 0)
(0.00014111 -0.000127644 0)
(0.000451254 -1.44515e-05 0)
(0.000221838 -7.78429e-05 0)
(0.000275896 -4.64784e-05 0)
(0.000387916 -1.47948e-06 0)
(0.000371745 -2.65147e-05 0)
(0.000412278 -2.0313e-06 0)
(0.000478287 -1.62354e-05 0)
(0.000137118 -0.000126934 0)
(9.98876e-05 -0.000166175 0)
(0.000347742 -5.37172e-05 0)
(0.000226772 -6.57733e-05 0)
(0.000261496 -4.54943e-05 0)
(0.000316494 -2.68931e-05 0)
(0.00044535 -2.33774e-05 0)
(0.000422032 -4.9747e-05 0)
(0.000465011 -2.24671e-06 0)
(0.000494763 -1.54622e-06 0)
(0.000456814 -4.42124e-05 0)
(0.000488695 -8.10612e-06 0)
(0.000315584 -2.49029e-05 0)
(4.70073e-05 -0.000214486 0)
(0.000398736 -1.59844e-06 0)
(0.000303947 -4.06463e-05 0)
(0.000279592 -3.69466e-05 0)
(0.000427831 -4.15854e-05 0)
(0.000464141 -6.04167e-06 0)
(0.000144147 -0.00014418 0)
(0.000130855 -0.00013986 0)
(0.000401726 -3.01058e-05 0)
(0.000412492 -3.14451e-05 0)
(0.000435918 -1.26441e-05 0)
(0.00042446 -1.33227e-05 0)
(0.000467855 -2.71219e-05 0)
(0.000221246 -0.000109338 0)
(0.000465418 -1.87464e-05 0)
(0.000373428 -1.44547e-06 0)
(0.000439766 -1.53457e-05 0)
(0.000425066 -2.73984e-05 0)
(0.000140669 -0.000136611 0)
(0.000110575 -0.000160886 0)
(0.00018683 -9.19971e-05 0)
(0.000444903 -2.03111e-05 0)
(0.000316105 -2.01678e-05 0)
(0.000423617 -2.40001e-05 0)
(0.000173005 -0.000102163 0)
(0.000433978 -3.14444e-05 0)
(0.000236425 -6.33577e-05 0)
(0.000482317 -1.87815e-06 0)
(0.000442314 -4.71372e-05 0)
(0.000346423 -2.35929e-05 0)
(0.000228931 -6.43086e-05 0)
(0.000299053 -5.87574e-05 0)
(0.000345961 -1.6423e-05 0)
(0.000123279 -0.000168954 0)
(0.000366991 -3.82306e-06 0)
(0.00011901 -0.000145801 0)
(0.000398041 -3.88688e-05 0)
(0.000434899 -8.24323e-06 0)
(0.000192272 -9.31529e-05 0)
(0.000468317 -1.46834e-05 0)
(0.000407179 -1.30748e-05 0)
(0.000151534 -0.000117227 0)
(0.000378615 -7.43392e-06 0)
(0.000410733 -5.12199e-05 0)
(0.000456061 -2.12077e-06 0)
(0.000482642 -5.09207e-06 0)
(0.000449018 -3.89439e-05 0)
(0.000397426 -3.21165e-06 0)
(0.00036192 -4.08055e-05 0)
(0.000411118 -6.63238e-06 0)
(5.44895e-05 -0.000206232 0)
(0.00018058 -9.76406e-05 0)
(0.000450011 -3.16964e-05 0)
(0.000304443 -2.63968e-05 0)
(0.000348685 -3.42128e-05 0)
(0.000391264 -9.33757e-06 0)
(0.000351037 -1.12513e-05 0)
(0.000251264 -6.15368e-05 0)
(0.000268215 -4.22407e-05 0)
(0.000274782 -4.26961e-05 0)
(0.00046548 -8.31535e-06 0)
(0.000362335 -3.23072e-05 0)
(0.000254994 -6.37723e-05 0)
(0.000332925 -1.45261e-05 0)
(0.000252572 -6.85528e-05 0)
(0.000389916 -4.68039e-05 0)
(0.000436893 -4.5298e-06 0)
(0.000378156 -1.30615e-06 0)
(8.39053e-05 -0.000183696 0)
(0.000321356 -5.65618e-05 0)
(0.00033044 -2.44946e-05 0)
(0.000326841 -4.12223e-05 0)
(1.65034e-05 -0.000228498 0)
(0.000362187 -9.51649e-06 0)
(0.000385965 -3.59555e-06 0)
(0.000429695 -1.83898e-05 0)
(0.000325727 -2.95108e-05 0)
(0.000298579 -3.61613e-05 0)
(0.000247066 -5.45829e-05 0)
(0.000360396 -1.22722e-05 0)
(0.000374808 -5.38338e-05 0)
(0.000430235 -1.75856e-06 0)
(0.000389676 -3.64446e-05 0)
(0.000425152 -9.3697e-06 0)
(0.000484086 -1.23482e-05 0)
(0.000375521 -3.26171e-06 0)
(0.000368338 -1.62198e-06 0)
(0.000495707 -2.89198e-06 0)
(0.000461354 -3.91344e-05 0)
(0.000160112 -0.000111924 0)
(0.000275388 -5.41513e-05 0)
(0.000393625 -6.97156e-06 0)
(0.000341041 -3.90532e-05 0)
(0.000357459 -7.59828e-06 0)
(0.000348618 -9.00968e-06 0)
(4.7689e-05 -0.000210454 0)
(0.000475684 -1.99869e-05 0)
(0.000309227 -3.53637e-05 0)
(0.000322144 -4.57832e-05 0)
(0.000285733 -3.49773e-05 0)
(0.00032734 -4.95226e-05 0)
(8.38117e-05 -0.000186771 0)
(0.000389786 -1.40654e-05 0)
(0.000367953 -3.53695e-05 0)
(0.000454137 -1.05522e-05 0)
(0.000120004 -0.000140554 0)
(1.19305e-05 -0.000238028 0)
(0.000389243 -1.70371e-05 0)
(0.000462714 -1.29951e-05 0)
(0.000285072 -7.08711e-05 0)
(9.93073e-06 -0.000243784 0)
(0.000493114 -5.54444e-06 0)
(0.000466383 -3.15562e-05 0)
(0.000445584 -2.89925e-05 0)
(6.79783e-05 -0.000198021 0)
(0.000434204 -3.68032e-05 0)
(0.000143224 -0.000127614 0)
(0.000360255 -1.69705e-05 0)
(6.84251e-05 -0.000193273 0)
(0.000349639 -2.25524e-05 0)
(0.000193905 -0.000108262 0)
(0.000369701 -1.96539e-05 0)
(0.000379354 -1.98101e-05 0)
(0.000332792 -1.42594e-05 0)
(0.000330022 -3.38321e-05 0)
(0.000479722 -9.5431e-06 0)
(0.000421592 -3.53681e-05 0)
(6.29361e-05 -0.000202218 0)
(0.000379294 -2.29008e-05 0)
(0.000246784 -5.43929e-05 0)
(0.000278564 -4.28442e-05 0)
(0.000375425 -9.4949e-06 0)
(0.000449649 -3.45271e-05 0)
(0.000462388 -2.39541e-05 0)
(0.000299718 -2.92411e-05 0)
(0.000269591 -6.49198e-05 0)
(0.000299096 -3.52049e-05 0)
(0.000356095 -6.53645e-06 0)
(0.000393677 -1.17674e-06 0)
(0.000390265 -4.08009e-06 0)
(0.000304453 -3.05251e-05 0)
(0.000340534 -1.513e-05 0)
(0.000479278 -6.85919e-06 0)
(0.00039661 -1.03366e-05 0)
(0.000323686 -2.2452e-05 0)
(0.000395538 -2.43291e-05 0)
(1.55875e-05 -0.000224248 0)
(0.00035235 -9.85732e-06 0)
(0.000282388 -4.69143e-05 0)
(0.00037765 -3.34275e-05 0)
(0.000403218 -4.02497e-06 0)
(2.18692e-05 -0.000214224 0)
(0.000459159 -2.84313e-05 0)
(0.000363901 -2.61765e-06 0)
(0.000476343 -4.52038e-06 0)
(0.000439822 -4.22661e-05 0)
(0.00036764 -4.7988e-05 0)
(0.000422861 -4.01616e-06 0)
(0.000215165 -7.38469e-05 0)
(0.000343913 -4.80584e-05 0)
(0.000282616 -5.48576e-05 0)
(0.000407399 -8.61642e-06 0)
(0.000463287 -1.72087e-05 0)
(0.000324966 -2.82621e-05 0)
(7.84841e-05 -0.000179073 0)
(0.000388367 -6.22434e-06 0)
(0.000300972 -4.60751e-05 0)
(0.000384206 -3.00689e-05 0)
(2.65721e-05 -0.000231327 0)
(0.000172865 -0.000112463 0)
(0.000343404 -3.20481e-05 0)
(0.000383768 -1.00746e-05 0)
(0.000290329 -5.00283e-05 0)
(4.97108e-05 -0.00021441 0)
(0.000185885 -9.53965e-05 0)
(0.000244266 -7.84938e-05 0)
(0.000302826 -5.33625e-05 0)
(0.000434128 -2.66368e-05 0)
(0.000364291 -3.37377e-06 0)
(0.000359699 -2.6021e-05 0)
(9.75321e-05 -0.000173718 0)
(0.000354062 -6.84063e-06 0)
(0.000384062 -2.43126e-06 0)
(0.000405117 -4.53454e-05 0)
(0.00044745 -5.10663e-06 0)
(0.000206599 -8.14287e-05 0)
(0.000184869 -0.000136205 0)
(3.75341e-05 -0.000223123 0)
(6.3689e-05 -0.000197709 0)
(0.000427222 -4.45429e-05 0)
(0.00046665 -4.47035e-06 0)
(0.000394223 -2.17927e-05 0)
(0.000326601 -1.77431e-05 0)
(2.05835e-05 -0.000238193 0)
(0.000170915 -0.000107739 0)
(0.00025649 -6.22472e-05 0)
(0.000152137 -0.000123899 0)
(0.000248115 -5.61513e-05 0)
(0.000115203 -0.000153403 0)
(2.76261e-05 -0.000202529 0)
(0.000411979 -1.03653e-05 0)
(8.47856e-05 -0.000178887 0)
(0.000108562 -0.000167619 0)
(0.000335699 -1.58137e-05 0)
(0.000453071 -1.81117e-05 0)
(0.000189342 -9.82176e-05 0)
(0.000420452 -1.59683e-05 0)
(0.00020799 -8.11694e-05 0)
(0.000380951 -1.40405e-05 0)
(0.000197734 -8.47477e-05 0)
(0.00020119 -8.2004e-05 0)
(0.000188339 -9.08174e-05 0)
(0.000380461 -4.75027e-06 0)
(0.000338581 -2.11843e-05 0)
(0.000341678 -1.52012e-05 0)
(0.000137214 -0.000144151 0)
(0.000396496 -1.24346e-05 0)
(0.000407598 -1.24825e-06 0)
(0.000395102 -5.34615e-05 0)
(0.000444592 -1.6077e-06 0)
(7.11153e-05 -0.000194868 0)
(0.000350451 -1.01178e-05 0)
(0.000412132 -2.08555e-05 0)
(0.000316059 -2.22477e-05 0)
(0.000356442 -9.69413e-06 0)
(0.000467682 -1.11348e-05 0)
(0.000369147 -6.00475e-06 0)
(8.04047e-05 -0.000187693 0)
(0.000371241 -1.22084e-06 0)
(3.27657e-05 -0.000223606 0)
(4.47384e-05 -0.00020776 0)
(0.000362969 -2.82302e-06 0)
(0.000230565 -6.97416e-05 0)
(0.000428417 -5.04111e-05 0)
(0.000471368 -1.50414e-06 0)
(0.000320794 -3.71081e-05 0)
(0.000306365 -2.4629e-05 0)
(0.000370359 -3.84901e-06 0)
(0.000336676 -5.68799e-05 0)
(0.000201928 -8.26198e-05 0)
(0.000168515 -0.000126138 0)
(0.000273593 -4.12977e-05 0)
(0.000431712 -3.45522e-05 0)
(0.000360042 -5.44038e-06 0)
(0.000231466 -7.60701e-05 0)
(0.00044272 -1.10587e-05 0)
(0.000118191 -0.000152038 0)
(0.00040878 -3.26472e-06 0)
(0.000336138 -2.81024e-05 0)
(0.000310398 -5.87693e-05 0)
(0.000377136 -4.47581e-05 0)
(0.0004259 -5.31835e-06 0)
(0.000316958 -3.91301e-05 0)
(0.000171161 -0.000102706 0)
(0.000283901 -3.42435e-05 0)
(0.000366416 -1.27281e-05 0)
(0.000291417 -3.08881e-05 0)
(0.000339813 -1.222e-05 0)
(0.0001456 -0.000120208 0)
(0.000262654 -5.20768e-05 0)
(8.74835e-05 -0.00017946 0)
(0.000108362 -0.000156662 0)
(0.000203515 -8.24592e-05 0)
(5.36477e-05 -0.000210542 0)
(0.000336738 -1.82868e-05 0)
(9.01759e-05 -0.000167148 0)
(0.00021252 -8.90843e-05 0)
(0.000336289 -3.6795e-05 0)
(0.000317651 -2.27529e-05 0)
(0.0004501 -2.64349e-05 0)
(0.000235368 -6.08908e-05 0)
(0.000404041 -1.5202e-05 0)
(0.00048929 -1.14085e-06 0)
(0.00044945 -4.72504e-05 0)
(0.000238858 -6.75711e-05 0)
(0.000370426 -2.55406e-06 0)
(0.000349848 -1.63578e-05 0)
(3.484e-05 -0.000226678 0)
(0.000415637 -3.38598e-05 0)
(0.00028364 -4.11148e-05 0)
(0.000287775 -4.07786e-05 0)
(0.000455 -3.51299e-05 0)
(0.000258769 -5.12223e-05 0)
(0.000169206 -0.000107489 0)
(0.000385328 -8.819e-07 0)
(0.000316968 -2.77549e-05 0)
(0.000417672 -1.31674e-06 0)
(0.000377141 -4.0351e-05 0)
(0.000421112 -7.20339e-06 0)
(0.000416337 -2.36931e-05 0)
(0.000391178 -4.31339e-05 0)
(0.000434584 -6.15565e-06 0)
(0.00045382 -1.24017e-05 0)
(9.69235e-05 -0.00017229 0)
(0.000449932 -9.47199e-06 0)
(0.000176331 -9.93406e-05 0)
(6.30187e-05 -0.000200674 0)
(0.000293044 -3.41366e-05 0)
(0.000340771 -1.11802e-05 0)
(0.000476437 -1.30641e-05 0)
(0.00035194 -1.89289e-05 0)
(0.000409171 -4.78337e-05 0)
(0.000453312 -3.86429e-06 0)
(0.000145676 -0.000122764 0)
(0.000450738 -1.63757e-05 0)
(0.000345523 -2.5521e-05 0)
(0.000207551 -8.52888e-05 0)
(0.00036708 -1.43624e-05 0)
(0.000423001 -1.75865e-05 0)
(0.00048038 -1.71018e-05 0)
(0.000217556 -7.17311e-05 0)
(0.000490089 -8.81056e-06 0)
(0.000306122 -3.18471e-05 0)
(0.000407146 -4.07214e-05 0)
(0.000416205 -3.87833e-05 0)
(0.000444802 -7.32932e-06 0)
(0.000400012 -6.54637e-06 0)
(0.000432081 -2.93302e-05 0)
(7.40177e-05 -0.000192333 0)
(0.000354634 -5.57858e-05 0)
(0.00030896 -2.31774e-05 0)
(0.000350988 -2.84445e-05 0)
(0.000407031 -1.89429e-05 0)
(0.000368623 -8.13936e-06 0)
(0.000373999 -4.69529e-06 0)
(0.000458121 -2.10894e-05 0)
(0.000473294 -2.42883e-05 0)
(0.000263147 -4.45215e-05 0)
(0.000342868 -1.08153e-05 0)
(0.000351978 -8.26723e-06 0)
(0.000105075 -0.000179436 0)
(0.000353839 -1.94862e-05 0)
(0.000437184 -1.75713e-05 0)
(0.000356049 -6.56914e-06 0)
(0.000481047 -3.18075e-06 0)
(0.000443194 -4.39552e-05 0)
(0.00042023 -4.24809e-05 0)
(0.000456706 -6.74027e-06 0)
(0.000484553 -1.34645e-05 0)
(0.000277776 -3.78807e-05 0)
(0.000271797 -8.67288e-05 0)
(0.000227055 -6.95141e-05 0)
(0.000332059 -1.6897e-05 0)
(0.000307141 -4.65135e-05 0)
(0.000395919 -1.68801e-05 0)
(4.76933e-05 -0.000212247 0)
(0.000336958 -4.66349e-05 0)
(0.000402829 -2.73892e-05 0)
(0.000437285 -1.02682e-05 0)
(0.000170002 -0.000104727 0)
(0.000402562 -5.30789e-05 0)
(0.000450238 -1.56748e-06 0)
(0.000397452 -4.77611e-05 0)
(0.000442915 -4.06077e-06 0)
(0.00017647 -0.000115279 0)
(0.000161286 -0.000138438 0)
(0.000377586 -2.73535e-05 0)
(0.000341292 -1.24726e-05 0)
(0.00038167 -8.19295e-07 0)
(0.000363704 -5.74193e-06 0)
(0.000404302 -3.65087e-05 0)
(0.000354811 -1.05306e-05 0)
(0.000328599 -1.54835e-05 0)
(1.11241e-05 -0.000233041 0)
(0.000402992 -1.0217e-06 0)
(0.000343048 -1.88217e-05 0)
(0.000360433 -4.42678e-05 0)
(0.000414268 -5.24083e-06 0)
(0.000437538 -2.1486e-05 0)
(0.000294085 -4.34123e-05 0)
(0.000288272 -6.26494e-05 0)
(0.000104557 -0.000175851 0)
(0.000378087 -6.27333e-06 0)
(0.0001576 -0.000112104 0)
(0.000380325 -1.21589e-05 0)
(0.000250442 -5.66971e-05 0)
(0.000416026 -2.63684e-06 0)
(0.000326532 -1.63514e-05 0)