/*--------------------------------*- C++ -*----------------------------------*\
| =========                 |                                                 |
| \\      /  F ield         | OpenFOAM: The Open Source CFD Toolbox           |
|  \\    /   O peration     | Version:  v2012                                 |
|   \\  /    A nd           | Website:  www.openfoam.com                      |
|    \\/     M anipulation  |                                                 |
\*---------------------------------------------------------------------------*/
FoamFile
{
    version     2.0;
    format      ascii;
    class       volScalarField;
    location    "1";
    object      sigmaEq;
}
// * * * * * * * * * * * * * * * * * * * * * * * * * * * * * * * * * * * * * //

dimensions      [1 -1 -2 0 0 0 0];


internalField   nonuniform List<scalar> 
7666
(
4.17667e+06
9.89053e+06
3.30275e+07
1.22445e+07
1.8922e+07
2.00435e+07
1.05859e+07
1.24911e+07
2.08849e+07
1.02223e+07
9.45285e+06
1.22327e+07
1.23125e+07
1.0979e+07
1.00846e+07
2.07281e+07
1.2447e+07
2.01905e+07
1.29982e+07
9.6921e+06
7.393e+06
1.61192e+07
1.14091e+07
1.22833e+07
2.08448e+07
1.00371e+07
2.10087e+07
8.91e+06
1.23743e+07
1.19575e+07
1.22237e+07
2.02534e+07
7.04181e+06
1.15869e+07
7.73916e+06
9.09177e+06
8.90755e+06
1.20767e+07
1.90559e+07
1.04266e+07
1.53556e+07
2.18143e+07
2.04995e+07
1.1057e+07
1.82834e+07
1.04794e+07
2.00728e+07
1.6215e+07
1.75885e+07
5.85442e+06
8.71184e+06
1.56992e+07
1.07574e+07
2.10873e+07
6.73674e+06
1.97813e+07
6.20159e+06
5.80464e+06
2.19941e+07
1.99105e+07
7.53057e+06
1.20814e+07
1.169e+07
1.17927e+07
6.17385e+06
1.77822e+07
9.63827e+06
6.41341e+06
2.24438e+07
2.21387e+07
2.22369e+07
8.883e+06
8.96477e+06
1.18468e+07
1.18381e+07
1.06676e+07
1.60179e+07
1.10355e+07
1.11111e+07
7.56902e+06
1.10029e+07
9.24795e+06
1.31671e+07
1.93344e+07
1.27951e+07
1.50533e+07
1.49386e+07
1.62123e+07
1.68714e+07
1.2112e+07
1.13018e+07
1.13217e+07
1.61786e+07
2.33081e+07
1.92487e+07
2.01424e+07
7.3972e+06
3.51933e+07
1.30676e+07
9.49606e+06
1.62447e+07
1.18855e+07
8.53222e+06
2.42725e+07
1.22099e+07
1.85057e+07
2.06198e+07
1.7907e+07
1.05582e+07
1.56185e+07
1.12832e+07
1.7031e+07
1.00269e+07
7.22796e+06
9.17441e+06
1.90872e+07
9.00893e+06
7.86453e+06
1.22978e+07
1.22452e+07
2.06425e+07
1.17231e+07
1.1785e+07
1.00477e+07
1.1955e+07
5.45657e+06
1.78056e+07
1.59e+07
1.36352e+07
1.18584e+07
2.04151e+07
1.39074e+07
8.49889e+06
1.50801e+07
1.18424e+07
1.87033e+07
1.09483e+07
1.04513e+07
1.09369e+07
1.14777e+07
1.41243e+07
9.19998e+06
9.13876e+06
9.18081e+06
9.74707e+06
1.03271e+07
1.05641e+07
9.24232e+06
4.68186e+06
1.27076e+07
1.01923e+07
1.77816e+07
7.96399e+06
1.5155e+07
9.34944e+06
9.32501e+06
1.51815e+07
1.50188e+07
1.24359e+07
1.12694e+07
2.27389e+07
1.43051e+07
1.59076e+07
2.02673e+07
2.63128e+07
2.49957e+07
1.2818e+07
5.8796e+06
5.90608e+06
2.29707e+07
9.80842e+06
8.87124e+06
1.51642e+07
1.41187e+07
1.74088e+07
6.48992e+06
1.68593e+07
1.7961e+07
1.26196e+07
1.25342e+07
1.57599e+07
8.86484e+06
1.47182e+07
7.74194e+06
1.70718e+07
1.98216e+07
8.95995e+06
1.18859e+07
2.17532e+07
1.13844e+07
1.00878e+07
1.06251e+07
1.0567e+07
1.08119e+07
1.78291e+07
1.9309e+07
1.05398e+07
1.07571e+07
1.04287e+07
1.11344e+07
1.67375e+07
8.36536e+06
1.26136e+07
1.90631e+07
8.32748e+06
2.13314e+07
9.58577e+06
1.32268e+07
8.1084e+06
7.70107e+06
2.09818e+07
8.1113e+06
9.09569e+06
9.29015e+06
9.26829e+06
8.43137e+06
1.09921e+07
2.02091e+07
7.9166e+06
1.67604e+07
1.97071e+07
2.21069e+07
1.22346e+07
9.09688e+06
1.44875e+07
1.46854e+07
1.98375e+07
1.59813e+07
7.27738e+06
1.27945e+07
1.24712e+07
1.16424e+07
1.70025e+07
1.94191e+07
8.87184e+06
1.1857e+07
1.8639e+07
1.57238e+07
8.7208e+06
1.1633e+07
9.24622e+06
1.42936e+07
1.16122e+07
7.04281e+06
1.00759e+07
9.289e+06
1.26926e+07
9.71144e+06
2.40953e+07
1.71168e+07
1.69065e+07
8.37497e+06
1.95591e+07
1.40691e+07
8.97559e+06
1.19258e+07
1.5258e+07
1.60334e+07
1.78759e+07
1.13031e+07
1.58443e+07
2.05353e+07
1.89992e+07
1.60855e+07
1.02114e+07
1.27001e+07
1.12877e+07
1.91095e+07
2.16438e+07
4.18732e+06
1.05469e+07
1.03333e+07
1.1747e+07
1.57682e+07
4.654e+06
9.82835e+06
1.72842e+07
1.72462e+07
1.53818e+07
1.54551e+07
1.08624e+07
1.8785e+07
1.1095e+07
1.19268e+07
1.04902e+07
1.2957e+07
1.59313e+07
2.21249e+07
1.21042e+07
9.41074e+06
9.44512e+06
2.21123e+07
2.00565e+07
1.10104e+07
1.10231e+07
2.31482e+07
9.36844e+06
5.64952e+06
5.99425e+06
1.30787e+07
9.31054e+06
9.40222e+06
1.02963e+07
8.69487e+06
1.18786e+07
7.63057e+06
7.38366e+06
1.73878e+07
1.30221e+07
7.25494e+06
6.63873e+06
5.55911e+06
5.41283e+06
5.40242e+06
9.05697e+06
1.31613e+07
9.15672e+06
1.3232e+07
1.31634e+07
9.24866e+06
1.42043e+07
1.417e+07
1.83777e+07
1.36411e+07
1.12574e+07
8.99828e+06
4.66704e+06
1.22638e+07
6.47791e+06
1.13221e+07
1.1318e+07
1.57864e+07
3.63034e+07
1.14399e+07
2.07055e+07
2.08188e+07
2.00516e+07
7.86786e+06
8.89081e+06
1.18839e+07
1.10757e+07
1.99834e+07
7.80334e+06
1.45342e+07
1.52246e+07
1.34958e+07
8.86756e+06
2.01049e+07
9.03189e+06
8.72767e+06
1.18922e+07
1.82181e+07
2.16655e+07
7.40901e+06
2.25546e+07
1.69288e+07
1.2315e+07
9.24082e+06
1.93506e+07
7.94869e+06
1.30894e+07
1.7168e+07
1.53899e+07
1.7786e+07
9.2566e+06
2.05959e+07
1.89912e+07
1.82592e+07
1.05829e+07
1.89403e+07
1.23606e+07
1.36374e+07
1.1289e+07
1.29895e+07
9.90121e+06
1.07203e+07
1.42697e+07
2.94024e+07
7.23601e+06
2.00877e+07
2.08834e+07
9.94664e+06
3.93706e+06
1.76061e+07
1.83115e+07
1.34929e+07
1.85921e+07
1.92377e+07
2.51914e+07
1.19516e+07
1.19088e+07
6.41055e+06
6.05731e+06
1.57278e+07
1.89068e+07
2.39279e+07
1.03182e+07
1.17515e+07
9.60545e+06
8.5424e+06
1.92768e+07
1.47e+07
9.09475e+06
7.15712e+06
3.20149e+07
1.36824e+07
1.37098e+07
1.86801e+07
1.95912e+07
2.00794e+07
2.18561e+07
1.18507e+07
8.47565e+06
1.96484e+07
2.16445e+07
1.66977e+07
1.63543e+07
1.01498e+07
9.4347e+06
1.97135e+07
9.88794e+06
1.12253e+07
1.12404e+07
1.16478e+07
8.34819e+06
1.12627e+07
1.05521e+07
1.8023e+07
1.29517e+07
2.30159e+07
1.19061e+07
3.45736e+07
1.24191e+07
1.19044e+07
8.5107e+06
9.40412e+06
1.06243e+07
1.08541e+07
1.20115e+07
1.23548e+07
2.03493e+07
5.50423e+06
1.07253e+07
1.08195e+07
9.65469e+06
1.18857e+07
9.64896e+06
1.06695e+07
1.08029e+07
1.02008e+07
4.70508e+06
6.5903e+06
1.45918e+07
1.73288e+07
9.0462e+06
1.59544e+07
1.05726e+07
1.24841e+07
1.0728e+07
1.51519e+07
1.65535e+07
1.25241e+07
2.66714e+07
2.01948e+07
8.3726e+06
1.03381e+07
1.03116e+07
1.65446e+07
1.55387e+07
9.27592e+06
1.51784e+07
1.06709e+07
1.06889e+07
2.09094e+07
1.99578e+07
1.60038e+07
9.32692e+06
1.46903e+07
9.00183e+06
1.38669e+07
7.88793e+06
2.04526e+07
1.28627e+07
8.83902e+06
1.27611e+07
8.9464e+06
1.24954e+07
1.30086e+07
2.28902e+07
1.20041e+07
1.14124e+07
1.15468e+07
1.19167e+07
8.38925e+06
9.91886e+06
2.2847e+07
2.22904e+07
2.20095e+07
1.01432e+07
8.80479e+06
9.6556e+06
1.05619e+07
1.87306e+07
7.98182e+06
1.06073e+07
7.05966e+06
9.28715e+06
2.96922e+07
4.1609e+06
9.18399e+06
8.41018e+06
1.86109e+07
1.88002e+07
9.0679e+06
9.08472e+06
1.19769e+07
1.19049e+07
1.19291e+07
1.52332e+07
7.0317e+06
7.18567e+06
2.21962e+07
1.95246e+07
1.31369e+07
1.30044e+07
1.04811e+07
9.28147e+06
3.07518e+07
7.51512e+06
8.81364e+06
1.18546e+07
2.28756e+07
1.84414e+07
7.77665e+06
2.02118e+07
9.38164e+06
1.50317e+07
1.72554e+07
1.16904e+07
1.16301e+07
1.8761e+07
2.22703e+07
1.90305e+07
1.33925e+07
1.73127e+07
1.99032e+07
2.06604e+07
2.17186e+07
1.44544e+07
9.78873e+06
1.89457e+07
9.48882e+06
1.84756e+07
1.86494e+07
1.30801e+07
8.10748e+06
1.10387e+07
3.72721e+06
1.507e+07
1.50663e+07
1.87445e+07
1.52539e+07
1.14691e+07
1.33471e+07
1.32126e+07
5.63891e+06
8.6698e+06
9.04079e+06
2.85701e+07
1.09416e+07
1.29642e+07
9.59052e+06
1.51538e+07
9.3961e+06
1.75907e+07
6.97037e+06
2.01714e+07
2.29415e+07
1.98443e+07
2.06149e+07
1.79845e+07
9.81092e+06
8.84206e+06
8.71285e+06
1.49153e+07
1.99605e+07
2.21064e+07
9.39309e+06
1.12381e+07
2.08554e+07
1.19918e+07
2.03186e+07
1.44115e+07
9.57828e+06
9.25208e+06
7.87508e+06
1.20736e+07
9.07843e+06
1.19631e+07
1.14718e+07
1.05027e+07
2.01657e+07
1.74288e+07
1.75171e+07
6.20902e+06
9.86755e+06
1.4386e+07
8.3535e+06
2.0145e+07
1.92055e+07
2.18196e+07
2.11775e+07
4.39088e+06
1.05332e+07
9.36825e+06
1.1321e+07
8.98432e+06
9.00891e+06
1.1833e+07
1.1798e+07
1.04636e+07
4.38866e+06
1.52285e+07
9.16203e+06
1.02765e+07
1.14419e+07
1.22917e+07
4.56951e+06
1.33354e+07
2.02391e+07
1.17932e+07
2.22416e+07
1.06485e+07
1.50631e+07
9.58127e+06
8.30175e+06
1.2851e+07
9.98562e+06
1.3436e+07
8.88946e+06
1.62493e+07
1.04356e+07
3.95132e+06
8.09677e+06
8.64372e+06
1.19011e+07
8.081e+06
3.84123e+06
1.59746e+07
7.96081e+06
1.84175e+07
1.51497e+07
1.31951e+07
1.3054e+07
2.14903e+07
2.17979e+07
1.78104e+07
1.79663e+07
9.18057e+06
9.18292e+06
6.71787e+06
2.1188e+07
1.55166e+07
1.91519e+07
9.52805e+06
1.47783e+07
3.51681e+06
2.2664e+07
2.14277e+07
1.30078e+07
8.06694e+06
4.38961e+06
9.70892e+06
8.09633e+06
1.57495e+07
2.35037e+07
1.21562e+07
9.84561e+06
2.27242e+07
9.6015e+06
2.26779e+07
1.73181e+07
2.03502e+07
1.2318e+07
1.34771e+07
1.67925e+07
7.70239e+06
1.66148e+07
2.00048e+07
2.00363e+07
2.05633e+07
1.01427e+07
7.21713e+06
1.32875e+07
1.03239e+07
2.03109e+07
1.96339e+07
2.28782e+07
1.95181e+07
2.02887e+07
9.69816e+06
1.43446e+07
2.2414e+07
1.65373e+07
1.32833e+07
1.70588e+07
2.626e+07
4.54994e+06
1.21144e+07
1.91992e+07
8.81728e+06
1.72799e+07
2.77959e+07
1.65734e+07
1.40347e+07
8.52393e+06
1.28218e+07
8.94235e+06
1.24935e+07
1.69251e+07
1.66247e+07
1.70937e+07
8.56114e+06
1.19137e+07
7.54293e+06
2.15201e+07
9.22472e+06
1.84779e+07
2.30408e+07
9.18534e+06
1.63433e+07
1.29975e+07
8.80161e+06
1.46206e+07
1.45218e+07
2.07194e+07
1.58285e+07
1.15275e+07
2.58452e+07
1.74511e+07
2.13125e+07
4.33828e+07
1.73181e+07
2.03362e+07
1.1583e+07
1.74136e+07
9.14511e+06
1.8496e+07
2.42326e+07
1.11658e+07
1.05725e+07
1.17801e+07
1.18483e+07
1.07931e+07
7.67637e+06
1.15351e+07
1.8886e+07
1.88434e+07
1.83341e+07
7.85202e+06
1.88065e+07
9.61423e+06
1.72868e+07
1.43043e+07
2.19371e+07
8.29024e+06
7.67164e+06
1.98393e+07
1.0158e+07
2.17767e+07
1.12372e+07
2.18231e+07
1.20846e+07
9.2528e+06
9.21526e+06
9.21008e+06
2.10215e+07
1.10847e+07
1.00111e+07
1.00089e+07
9.91899e+06
1.50141e+07
8.92988e+06
1.23181e+07
1.08661e+07
1.0765e+07
1.05274e+07
1.87465e+07
2.14878e+07
2.65764e+07
1.59594e+07
1.07937e+07
1.18603e+07
1.17932e+07
2.34172e+07
1.19876e+07
1.57796e+07
7.61682e+06
7.98387e+06
8.00403e+06
7.55272e+06
1.25532e+07
1.34412e+07
1.91539e+07
7.2153e+06
1.79829e+07
1.08913e+07
1.57376e+07
8.45155e+06
1.01701e+07
7.29993e+06
1.87376e+07
1.45717e+07
2.10581e+07
1.024e+07
1.54969e+07
9.41025e+06
8.92216e+06
6.9714e+06
7.16613e+06
2.03578e+07
9.07127e+06
2.1131e+07
6.06383e+06
1.16808e+07
1.31598e+07
1.19616e+07
4.49854e+06
7.51966e+06
2.05376e+07
2.05616e+07
1.12267e+07
1.47405e+07
5.57376e+06
8.59867e+06
1.55868e+07
9.16543e+06
1.15395e+07
1.14864e+07
1.51154e+07
1.22502e+07
1.5379e+07
2.86188e+07
1.27778e+07
1.73136e+07
1.64152e+07
1.68736e+07
1.11587e+07
1.0887e+07
1.50557e+07
6.7127e+06
9.77388e+06
1.85251e+07
1.27606e+07
6.34169e+06
1.82891e+07
1.42667e+07
2.44247e+07
1.16334e+07
1.13679e+07
1.10763e+07
1.19958e+07
1.5596e+07
1.62693e+07
1.63444e+07
2.26433e+07
1.53065e+07
1.17065e+07
1.83789e+07
1.96075e+07
1.83486e+07
1.19857e+07
9.13772e+06
9.28091e+06
1.25211e+07
1.04189e+07
1.03113e+07
1.08415e+07
1.07939e+07
5.0405e+06
5.3308e+06
9.60129e+06
1.0209e+07
1.069e+07
4.43323e+06
8.85981e+06
1.04574e+07
7.36935e+06
9.22993e+06
1.4419e+07
1.42586e+07
1.01012e+07
1.40434e+07
8.6294e+06
1.3088e+07
1.02376e+07
1.28533e+07
1.31972e+07
1.2595e+07
1.34466e+07
2.05105e+07
1.40161e+07
8.44527e+06
1.88014e+07
1.46535e+07
1.1167e+07
9.22117e+06
6.0723e+06
9.67283e+06
1.67144e+07
1.68819e+07
1.85225e+07
1.71379e+07
1.29361e+07
1.37584e+07
3.75114e+06
9.63189e+06
1.94311e+07
4.1682e+07
1.51937e+07
9.12634e+06
1.81098e+07
1.88031e+07
9.78773e+06
1.15924e+07
1.62354e+07
1.30089e+07
1.78149e+07
2.2942e+07
6.98847e+06
1.04296e+07
1.76875e+07
1.74872e+07
1.14266e+07
7.36282e+06
1.58542e+07
1.65328e+07
1.58304e+07
2.49006e+07
1.142e+07
1.32563e+07
2.03203e+07
2.09473e+07
2.05923e+07
1.01829e+07
1.15584e+07
9.38138e+06
1.59451e+07
4.99077e+06
1.2119e+07
1.97379e+07
8.60131e+06
1.38006e+07
1.68024e+07
1.18507e+07
4.22776e+07
1.73035e+07
1.65336e+07
1.81815e+07
1.84658e+07
1.67829e+07
1.19045e+07
1.86658e+07
9.58175e+06
1.06865e+07
9.66259e+06
9.06406e+06
8.74677e+06
1.41932e+07
1.17865e+07
1.43192e+07
9.94088e+06
1.68121e+07
9.88136e+06
9.80375e+06
1.00504e+07
8.4509e+06
1.70595e+07
2.04899e+07
2.03545e+07
2.02845e+07
1.26175e+07
1.23665e+07
1.35707e+07
1.01985e+07
1.6247e+07
1.39971e+07
3.00949e+07
2.27289e+07
1.55993e+07
1.53261e+07
2.30805e+07
1.83016e+07
2.06984e+07
1.71314e+07
1.83047e+07
4.74837e+06
2.21119e+07
2.11068e+07
1.13069e+07
2.28395e+07
1.39776e+07
1.27785e+07
8.91147e+06
2.42024e+07
1.48641e+07
2.12162e+07
1.27048e+07
1.27794e+07
1.83828e+07
9.64302e+06
1.53273e+07
1.28051e+07
9.39564e+06
1.81955e+07
1.416e+07
8.42349e+06
2.19151e+07
1.86237e+07
1.28745e+07
1.27495e+07
8.97352e+06
1.49544e+07
6.77392e+06
3.01685e+07
1.24571e+07
6.46945e+06
1.04285e+07
1.02813e+07
1.90563e+07
1.15499e+07
1.98712e+07
7.47167e+06
1.97128e+07
9.79598e+06
1.06217e+07
2.64307e+07
1.60995e+07
9.46352e+06
1.16868e+07
2.2566e+07
1.10044e+07
7.63984e+06
1.3067e+07
9.07115e+06
1.2559e+07
1.06362e+07
1.33953e+07
9.18074e+06
1.26748e+07
1.23747e+07
1.50427e+07
1.51053e+07
1.46234e+07
1.8397e+07
1.13647e+07
2.13635e+07
1.46257e+07
1.00214e+07
9.7363e+06
1.18579e+07
1.94934e+07
9.34143e+06
1.43261e+07
1.86859e+07
9.07242e+06
6.37425e+06
3.38388e+06
1.27784e+07
6.86314e+06
7.74955e+06
1.1243e+07
8.5204e+06
1.81664e+07
4.73301e+06
1.98659e+07
1.91268e+07
1.93766e+07
2.21062e+07
1.37347e+07
9.59458e+06
1.70592e+07
1.54654e+07
1.14196e+07
1.91877e+07
2.10455e+07
1.10196e+07
1.1125e+07
9.65716e+06
1.00733e+07
1.15779e+07
1.25744e+07
2.09207e+07
1.34233e+07
1.33901e+07
1.86012e+07
1.50445e+07
9.12986e+06
1.22066e+07
1.55818e+07
1.20111e+07
1.1961e+07
1.27411e+07
1.02122e+07
1.19917e+07
9.11667e+06
9.78165e+06
1.69378e+07
5.01978e+06
3.80165e+07
9.3441e+06
2.03553e+07
1.55468e+07
1.12144e+07
1.16092e+07
9.59412e+06
6.63353e+06
9.39677e+06
9.89546e+06
1.19029e+07
4.9387e+06
6.54512e+06
1.17585e+07
1.27192e+07
1.48039e+07
1.3692e+07
1.14065e+07
1.19965e+07
1.95545e+07
1.93182e+07
1.08417e+07
2.27822e+07
2.0706e+07
1.23816e+07
1.63783e+07
5.28501e+06
2.12142e+07
2.07384e+07
1.67268e+07
1.42965e+07
1.282e+07
1.06376e+07
1.06419e+07
1.74456e+07
1.4709e+07
1.47526e+07
1.30771e+07
1.15776e+07
1.91909e+07
1.15873e+07
1.90046e+07
1.87909e+07
1.8188e+07
1.06846e+07
6.81454e+06
1.27555e+07
1.22631e+07
1.51826e+07
1.19754e+07
2.53416e+07
1.69247e+07
1.91283e+07
9.41016e+06
1.86448e+07
1.2843e+07
1.59111e+07
1.88583e+07
1.22347e+07
1.12026e+07
1.14296e+07
1.39637e+07
1.17004e+07
1.61564e+07
1.74823e+07
9.71591e+06
1.37845e+07
6.7834e+06
8.69385e+06
1.13749e+07
1.25584e+07
1.27913e+07
1.01217e+07
1.00788e+07
1.56333e+07
9.22862e+06
2.03566e+07
1.06098e+07
1.07045e+07
4.49663e+06
1.81009e+07
2.25688e+07
4.70489e+06
1.92831e+07
4.83284e+07
2.0898e+07
1.97547e+07
1.18026e+07
1.40044e+07
8.15992e+06
1.21206e+07
1.63325e+07
5.92159e+06
2.13618e+07
1.17834e+07
1.08713e+07
5.28893e+06
2.01526e+07
1.32582e+07
1.42609e+07
8.45238e+06
1.52836e+07
8.47444e+06
9.80051e+06
2.04165e+07
1.54287e+07
8.07824e+06
8.18099e+06
2.42078e+07
9.70838e+06
9.61559e+06
2.23538e+07
9.11044e+06
1.26713e+07
1.262e+07
3.76655e+07
1.10889e+07
1.09868e+07
1.30572e+07
1.96558e+07
1.24603e+07
2.17518e+07
2.25887e+07
1.7303e+07
1.21885e+07
1.53906e+07
2.22344e+07
9.84755e+06
1.41356e+07
1.13198e+07
2.10771e+07
1.56319e+07
2.10204e+07
8.8781e+06
1.57985e+07
2.23828e+07
9.53664e+06
2.05551e+07
1.72858e+07
1.19161e+07
2.11069e+07
2.12557e+07
2.31046e+07
1.82523e+07
9.21912e+06
1.67638e+07
1.66538e+07
2.31881e+07
9.24904e+06
1.76622e+07
1.16408e+07
7.05094e+06
2.1343e+07
1.19302e+07
1.12748e+07
4.0427e+06
1.19645e+07
1.19712e+07
2.25773e+07
1.51208e+07
9.54701e+06
9.60639e+06
9.63576e+06
1.46176e+07
1.88628e+07
1.02852e+07
1.29417e+07
8.76171e+06
1.47942e+07
2.0047e+07
1.93177e+07
2.17012e+07
4.97405e+06
4.71271e+06
1.93208e+07
1.9821e+07
9.31634e+06
4.13268e+06
4.46166e+06
9.51316e+06
5.48341e+06
1.45018e+07
1.08921e+07
1.75169e+07
1.06636e+07
2.48906e+07
5.62425e+06
1.32716e+07
5.80709e+06
1.031e+07
2.06026e+07
2.09618e+07
2.15114e+07
2.06968e+07
2.08239e+07
2.10816e+07
2.00111e+07
1.465e+07
1.56448e+07
8.99926e+06
6.78437e+06
1.68472e+07
6.79458e+06
1.18236e+07
1.36796e+07
1.7611e+07
1.10242e+07
7.04143e+06
1.7014e+07
1.75513e+07
1.58385e+07
1.32866e+07
1.61008e+07
1.58157e+07
1.45023e+07
1.29529e+07
1.82096e+07
1.76391e+07
1.75751e+07
1.80132e+07
2.16715e+07
2.04659e+07
2.27294e+07
9.80992e+06
7.73317e+06
1.90963e+07
2.17437e+07
2.80884e+07
1.83906e+07
1.008e+07
2.04289e+07
9.84135e+06
1.21266e+07
4.53189e+06
1.12954e+07
1.75923e+07
1.52422e+07
6.13654e+06
2.02738e+07
7.34281e+06
5.7126e+06
5.59954e+06
2.53645e+07
9.21044e+06
1.62508e+07
2.21273e+07
1.88995e+07
1.08008e+07
2.03109e+07
1.42282e+07
1.20365e+07
1.40183e+07
2.06186e+07
1.20248e+07
1.46151e+07
1.10807e+07
7.39356e+06
4.9544e+06
1.9461e+07
8.84903e+06
1.19193e+07
8.88323e+06
1.33639e+07
8.77479e+06
1.34388e+07
1.34737e+07
9.01629e+06
6.31942e+06
8.27152e+06
1.13511e+07
9.01875e+06
9.05702e+06
1.26598e+07
5.29321e+06
6.38619e+06
1.41289e+07
1.01668e+07
4.78637e+06
1.19377e+07
1.96372e+07
1.17987e+07
2.49093e+07
1.11692e+07
1.89772e+07
2.26672e+07
1.08165e+07
1.94293e+07
2.07772e+07
1.15779e+07
1.92404e+07
1.29168e+07
1.92599e+07
1.89371e+07
1.14977e+07
1.23048e+07
1.20863e+07
1.00021e+07
5.77269e+06
1.79368e+07
2.12748e+07
2.15128e+07
8.84281e+06
2.00701e+07
1.09713e+07
8.88585e+06
9.80935e+06
1.06988e+07
1.74494e+07
1.13416e+07
1.20506e+07
1.82161e+07
1.78894e+07
1.20902e+07
1.15793e+07
2.36907e+07
1.78499e+07
2.03597e+07
1.30462e+07
4.85074e+06
8.21274e+06
1.06549e+07
1.56664e+07
1.49199e+07
9.15733e+06
1.027e+07
1.02452e+07
1.63079e+07
9.92124e+06
9.98917e+06
1.00725e+07
1.53922e+07
1.03283e+07
1.01279e+07
1.27438e+07
1.5787e+07
1.14633e+07
1.14087e+07
1.41959e+07
8.07242e+06
1.16915e+07
1.16135e+07
2.79585e+07
1.21328e+07
9.11633e+06
1.06217e+07
6.828e+06
7.60817e+06
1.12126e+07
1.73392e+07
2.2018e+07
1.25755e+07
7.66028e+06
1.99645e+07
1.62022e+07
1.3245e+07
9.03205e+06
1.31106e+07
9.12896e+06
1.07407e+07
1.01385e+07
2.18359e+07
1.41691e+07
8.08685e+06
1.82604e+07
1.88011e+07
1.64827e+07
1.85937e+07
2.14206e+07
2.02999e+07
1.95339e+07
1.10632e+07
6.53333e+06
4.22326e+07
2.2495e+07
2.10865e+07
1.31281e+07
2.2637e+07
6.69354e+06
1.13345e+07
1.05089e+07
1.05242e+07
6.31825e+06
1.07302e+07
9.2632e+06
2.42687e+07
1.97834e+07
1.38468e+07
1.28836e+07
2.14784e+07
9.47235e+06
1.10863e+07
1.31617e+07
9.03672e+06
1.91923e+07
1.66785e+07
1.17689e+07
5.39839e+06
2.11078e+07
1.86381e+07
1.73843e+07
1.94407e+07
6.31274e+06
2.27198e+07
1.99154e+07
9.70265e+06
1.50312e+07
1.21933e+07
2.05263e+07
7.81859e+06
8.09824e+06
1.65811e+07
1.17541e+07
1.17671e+07
1.75072e+07
6.30177e+06
1.22139e+07
2.01227e+07
8.11548e+06
2.00186e+07
1.0022e+07
1.06689e+07
1.59934e+07
1.18359e+07
4.51181e+06
9.19313e+06
4.34902e+06
1.05956e+07
1.05359e+07
1.01737e+07
8.1955e+06
1.95962e+07
1.16461e+07
7.64433e+06
1.82142e+07
1.81884e+07
1.24529e+07
1.21337e+07
6.9499e+06
6.87829e+06
1.9585e+07
1.97185e+07
1.89471e+07
1.37185e+07
1.00358e+07
2.36764e+07
9.56626e+06
5.05196e+06
9.763e+06
1.31881e+07
8.78389e+06
2.02721e+07
1.12251e+07
1.38655e+07
1.38736e+07
1.5751e+07
1.70085e+07
1.97906e+07
9.49732e+06
1.54269e+07
1.54265e+07
8.57721e+06
2.09041e+07
1.4732e+07
9.90459e+06
1.52409e+07
1.01625e+07
1.5611e+07
1.57269e+07
2.18074e+07
7.41971e+06
9.80803e+06
9.74635e+06
4.46071e+07
3.41131e+07
9.56578e+06
1.17242e+07
1.31109e+07
8.69164e+06
2.00856e+07
7.62157e+06
1.16728e+07
1.71314e+07
1.2604e+07
9.03593e+06
1.81016e+07
2.11796e+07
7.31558e+06
1.27109e+07
1.96833e+07
1.27717e+07
1.96072e+07
3.30764e+07
1.18091e+07
1.1998e+07
6.01914e+06
1.13626e+07
2.0545e+07
1.40362e+07
1.40691e+07
1.91011e+07
6.19605e+06
2.12853e+07
9.16023e+06
2.00615e+07
1.45797e+07
1.96286e+07
1.58386e+07
1.38952e+07
7.90846e+06
1.35908e+07
2.3593e+07
1.02297e+07
2.04309e+07
1.30285e+07
2.03375e+07
1.21312e+07
1.283e+07
1.09957e+07
1.10171e+07
9.11253e+06
1.24046e+07
1.99512e+07
1.36904e+07
1.31255e+07
9.10749e+06
1.09422e+07
1.17711e+07
1.85016e+07
1.50397e+07
1.8757e+07
2.25284e+07
1.51066e+07
1.0507e+07
1.0956e+07
7.6802e+06
9.57446e+06
9.55582e+06
1.06649e+07
2.13975e+07
1.07695e+07
2.00837e+07
1.96463e+07
1.8396e+07
9.95012e+06
9.95972e+06
2.01867e+07
1.28486e+07
8.83838e+06
2.26458e+07
1.3699e+07
1.08694e+07
1.86585e+07
1.13789e+07
1.07241e+07
2.35947e+07
2.25679e+07
2.05569e+07
1.58979e+07
1.55563e+07
2.17859e+07
1.31422e+07
1.84184e+07
1.74091e+07
2.30655e+07
1.4471e+07
1.42432e+07
1.29899e+07
9.36217e+06
1.68892e+07
2.08719e+07
8.90347e+06
8.88377e+06
1.37646e+07
2.2368e+07
1.16387e+07
9.22544e+06
7.75103e+06
1.07095e+07
3.43848e+07
1.46751e+07
1.92324e+07
7.17475e+06
7.22258e+06
1.42367e+07
8.96806e+06
1.18576e+07
2.67728e+07
1.1944e+07
8.43345e+06
9.77654e+06
1.01845e+07
9.45526e+06
1.4328e+07
1.07255e+07
1.55635e+07
6.93985e+06
2.1855e+07
2.05942e+07
1.70494e+07
8.71736e+06
8.65114e+06
1.18735e+07
2.01528e+07
1.15776e+07
2.10113e+07
1.24373e+07
1.22882e+07
2.84252e+07
2.05464e+07
1.1788e+07
4.90537e+06
5.60188e+06
3.17085e+07
8.82083e+06
1.18117e+07
1.01163e+07
1.10468e+07
1.88671e+07
1.10077e+07
8.54278e+06
1.49574e+07
9.11154e+06
4.94126e+06
1.18081e+07
1.9433e+07
1.01643e+07
1.65462e+07
1.00291e+07
9.32925e+06
1.97454e+07
1.66591e+07
1.31822e+07
2.77734e+07
1.432e+07
1.91273e+07
1.97121e+07
1.96972e+07
2.19368e+07
7.97319e+06
1.28916e+07
1.18385e+07
9.80025e+06
1.0569e+07
1.8083e+07
1.61406e+07
1.53588e+07
8.52663e+06
9.70245e+06
9.93239e+06
1.86147e+07
1.47984e+07
1.47288e+07
1.24234e+07
9.31294e+06
8.23773e+06
7.991e+06
1.05403e+07
7.92874e+06
5.71914e+06
9.06438e+06
1.35483e+07
1.54051e+07
2.56625e+07
5.14622e+06
1.11742e+07
6.27697e+06
4.70431e+06
8.75563e+06
2.40938e+07
2.15424e+07
1.40681e+07
1.52896e+07
1.04943e+07
2.87672e+07
9.33401e+06
7.53349e+06
1.90311e+07
4.02951e+06
8.8357e+06
9.64917e+06
2.34799e+07
1.76729e+07
1.62919e+07
2.58475e+07
7.84191e+06
9.82578e+06
1.04281e+07
1.93858e+07
1.76599e+07
1.49138e+07
2.00589e+07
2.58378e+07
8.75401e+06
1.18248e+07
1.95829e+07
1.55406e+07
7.00217e+06
2.04246e+07
1.33331e+07
9.47031e+06
9.48881e+06
7.28472e+06
1.3027e+07
1.0061e+07
2.07748e+07
1.11689e+07
1.11129e+07
7.80315e+06
8.00643e+06
1.11793e+07
9.66049e+06
9.64025e+06
1.03713e+07
1.94664e+07
1.93947e+07
1.96888e+07
9.37915e+06
1.40866e+07
2.29558e+07
1.85015e+07
1.86326e+07
1.59851e+07
7.67614e+06
7.83984e+06
1.82927e+07
1.94043e+07
1.85462e+07
1.30925e+07
8.77032e+06
1.10634e+07
1.87373e+07
2.00894e+07
2.7486e+07
2.0865e+07
1.85801e+07
1.80599e+07
2.00832e+07
7.73237e+06
1.18851e+07
1.59067e+07
2.33719e+07
1.16966e+07
2.00187e+07
1.07052e+07
9.24964e+06
9.31764e+06
9.49747e+06
8.84297e+06
1.81027e+07
1.67475e+07
1.7017e+07
9.89733e+06
2.49701e+07
1.50404e+07
9.71414e+06
1.73987e+07
1.82141e+07
1.12805e+07
1.03491e+07
1.3319e+07
8.81217e+06
1.13421e+07
9.92198e+06
2.43417e+07
1.51347e+07
1.29754e+07
1.89985e+07
1.21982e+07
1.19536e+07
8.75794e+06
1.58079e+07
2.01927e+07
8.38598e+06
8.5366e+06
1.18829e+07
1.18745e+07
1.22869e+07
1.89332e+07
1.75449e+07
2.1455e+07
5.60415e+06
1.04745e+07
1.04285e+07
1.51083e+07
1.68533e+07
1.92153e+07
1.00005e+07
1.92864e+07
1.43476e+07
1.56898e+07
1.52476e+07
2.21271e+07
1.04159e+07
1.08531e+07
1.08347e+07
2.78971e+07
9.298e+06
9.17199e+06
3.0888e+07
1.05226e+07
1.45065e+07
3.84434e+06
9.2997e+06
1.5482e+07
2.80619e+07
1.37017e+07
1.02825e+07
1.18356e+07
2.66449e+07
1.66754e+07
1.00827e+07
2.25871e+07
1.79184e+07
1.22264e+07
5.06497e+06
1.06621e+07
1.44886e+07
7.20217e+06
3.27156e+07
9.96184e+06
9.14459e+06
8.44948e+06
1.86063e+07
2.57728e+07
2.24011e+07
1.83242e+07
1.20787e+07
9.11423e+06
1.49309e+07
2.4826e+07
1.15198e+07
9.30908e+06
1.80642e+07
1.7077e+07
1.10277e+07
5.88363e+06
1.12537e+07
1.51385e+07
1.51832e+07
1.7542e+07
1.9818e+07
1.21875e+07
1.20694e+07
7.45301e+06
1.96733e+07
1.22776e+07
1.80578e+07
1.1959e+07
1.14477e+07
1.19722e+07
1.78673e+07
1.20485e+07
1.24501e+07
2.08607e+07
2.36701e+07
1.31093e+07
9.57678e+06
1.50448e+07
1.99643e+07
7.58271e+06
1.49299e+07
1.32517e+07
8.93528e+06
1.06007e+07
2.32291e+07
1.25936e+07
9.0878e+06
1.86304e+07
1.38446e+07
8.66959e+06
1.28618e+07
1.28411e+07
7.32795e+06
1.72839e+07
8.76857e+06
1.40392e+07
1.34356e+07
9.15123e+06
9.19874e+06
1.15663e+07
1.28617e+07
6.94782e+06
1.5547e+07
1.35368e+07
1.62716e+07
1.71837e+07
9.74301e+06
2.30384e+07
1.93798e+07
1.25234e+07
9.19349e+06
2.06407e+07
1.25511e+07
1.18757e+07
2.28395e+07
1.97804e+07
1.50269e+07
1.57858e+07
6.60621e+06
8.88414e+06
1.17928e+07
1.67328e+07
1.90083e+07
1.80552e+07
9.36896e+06
1.53328e+07
2.05047e+07
1.74823e+07
1.94302e+07
1.38807e+07
1.23613e+07
1.50195e+07
1.15164e+07
1.22266e+07
1.23858e+07
2.10318e+07
1.25753e+07
2.04333e+07
1.35367e+07
8.51161e+06
1.20303e+07
9.0753e+06
2.08177e+07
1.73875e+07
9.75359e+06
1.34244e+07
1.71673e+07
1.24818e+07
1.69211e+07
1.965e+07
1.24332e+07
1.52279e+07
1.56447e+07
9.21032e+06
6.03976e+06
1.29636e+07
1.96065e+07
1.15339e+07
1.40131e+07
7.52268e+06
2.21759e+07
1.85187e+07
1.02896e+07
1.91956e+07
1.18472e+07
2.1983e+07
1.20094e+07
1.53084e+07
1.91931e+07
1.27359e+07
8.99477e+06
1.27796e+07
1.05189e+07
7.75625e+06
1.89423e+07
1.90185e+07
1.17017e+07
7.0896e+06
1.46882e+07
9.93428e+06
2.08926e+07
1.7629e+07
2.05466e+07
1.51028e+07
1.7124e+07
9.99162e+06
1.84616e+07
1.19495e+07
1.29698e+07
1.37131e+07
1.66102e+07
1.59719e+07
9.13499e+06
1.04262e+07
1.22067e+07
9.09398e+06
9.73231e+06
2.18915e+07
1.12162e+07
1.08219e+07
8.37705e+06
1.36529e+07
9.48235e+06
8.79062e+06
1.77559e+07
1.03381e+07
1.67339e+07
1.25181e+07
1.0305e+07
1.43024e+07
1.62537e+07
8.16097e+06
2.14663e+07
1.57792e+07
1.42865e+07
1.09042e+07
1.91966e+07
1.06179e+07
8.71465e+06
1.18298e+07
8.50044e+06
1.18872e+07
2.13308e+07
9.7125e+06
1.93951e+07
1.29515e+07
1.15543e+07
1.07332e+07
2.18622e+07
1.95985e+07
1.94864e+07
1.04152e+07
1.21235e+07
1.28949e+07
1.38023e+07
8.81429e+06
1.06955e+07
1.38335e+07
8.67414e+06
1.92763e+07
1.38353e+07
1.40095e+07
8.64146e+06
1.05284e+07
1.05307e+07
1.95148e+07
2.23805e+07
1.97953e+07
2.11836e+07
9.86706e+06
2.21978e+07
2.07241e+07
1.16697e+07
1.16003e+07
1.22341e+07
1.21337e+07
1.60595e+07
1.25583e+07
1.05784e+07
2.02366e+07
1.14347e+07
9.77173e+06
1.42617e+07
1.38409e+07
8.46324e+06
1.05871e+07
9.52122e+06
9.47703e+06
1.79579e+07
1.54879e+07
2.16931e+07
1.20325e+07
6.54851e+06
6.62098e+06
9.8254e+06
1.36606e+07
1.28928e+07
1.06205e+07
1.97985e+07
1.03859e+07
2.15697e+07
1.07892e+07
1.19338e+07
7.51419e+06
1.73266e+07
1.09434e+07
6.70499e+06
1.46253e+07
1.48206e+07
1.68683e+07
2.13362e+07
1.53981e+07
1.53643e+07
5.07236e+06
8.76695e+06
2.16251e+07
1.99431e+07
2.02111e+07
1.34705e+07
9.09279e+06
1.30551e+07
1.7706e+07
1.06277e+07
1.16819e+07
1.13764e+07
3.83708e+07
6.4589e+06
2.05738e+07
9.0635e+06
2.01364e+07
2.35044e+07
1.22777e+07
9.57225e+06
9.62554e+06
1.30834e+07
8.73388e+06
1.43501e+07
1.97094e+07
2.19853e+07
1.48192e+07
6.3344e+06
1.51016e+07
1.01958e+07
1.72909e+07
1.27355e+07
1.01282e+07
1.01897e+07
2.0009e+07
1.40164e+07
1.42494e+07
1.75424e+07
9.49361e+06
1.81883e+07
1.08679e+07
2.10816e+07
1.72255e+07
1.24362e+07
1.30525e+07
1.44842e+07
1.07403e+07
1.28611e+07
1.29233e+07
1.63035e+07
9.32406e+06
1.60509e+07
1.94684e+07
1.31348e+07
1.31589e+07
1.9658e+07
1.17471e+07
2.16064e+07
1.21043e+07
1.26767e+07
2.19461e+07
8.38047e+06
1.17257e+07
6.32556e+06
9.0346e+06
7.52023e+06
8.21879e+06
6.43192e+06
1.29076e+07
8.79613e+06
9.07001e+06
2.03495e+07
1.15332e+07
2.02896e+07
1.34279e+07
8.62297e+06
1.54645e+07
1.36201e+07
1.38949e+07
1.40207e+07
1.61517e+07
1.32013e+07
2.11371e+07
2.06105e+07
1.56186e+07
1.20139e+07
5.78766e+06
1.23413e+07
1.10574e+07
2.0592e+07
8.40897e+06
2.48617e+07
9.60128e+06
1.24733e+07
1.2443e+07
2.1894e+07
1.95174e+07
1.90787e+07
5.57416e+06
1.0021e+07
1.07304e+07
1.64839e+07
1.8739e+07
1.56497e+07
1.2385e+07
1.12942e+07
1.13002e+07
1.6163e+07
2.46252e+07
7.27619e+06
2.0876e+07
1.07199e+07
1.07269e+07
1.14246e+07
1.67551e+07
9.09087e+06
9.17447e+06
1.24621e+07
1.18404e+07
1.50404e+07
1.54342e+07
8.41132e+06
1.12942e+07
7.86146e+06
1.65913e+07
2.56636e+07
1.33673e+07
9.41858e+06
1.28103e+07
1.29448e+07
1.04987e+07
1.02536e+07
1.58087e+07
7.6862e+06
2.04063e+07
1.93938e+07
1.66752e+07
1.18955e+07
1.04422e+07
1.11577e+07
1.03298e+07
9.59977e+06
1.25585e+07
1.46054e+07
1.54679e+07
1.48747e+07
1.40041e+07
1.38386e+07
1.07726e+07
1.13922e+07
9.57908e+06
2.01941e+07
1.5452e+07
1.65179e+07
5.40532e+06
2.84423e+07
7.71493e+06
1.01145e+07
1.33022e+07
8.67767e+06
1.37516e+07
8.35429e+06
2.7971e+07
1.79138e+07
2.8198e+07
1.82115e+07
1.34827e+07
1.24971e+07
1.91248e+07
2.43674e+07
1.1858e+07
5.73528e+06
1.80564e+07
1.7296e+07
2.87087e+07
1.45125e+07
1.08113e+07
2.0966e+07
1.65568e+07
1.38709e+07
8.64078e+06
1.15819e+07
2.0453e+07
2.07353e+07
1.10012e+07
7.02287e+06
2.7921e+07
1.25173e+07
6.07644e+06
1.62803e+07
7.35913e+06
1.34648e+07
8.61071e+06
1.24645e+07
2.11888e+07
1.0557e+07
1.38775e+07
2.02361e+07
1.38938e+07
1.09688e+07
1.36552e+07
1.1103e+07
2.30998e+07
2.00468e+07
1.31042e+07
2.12155e+07
1.47609e+07
1.11062e+07
7.63435e+06
1.44411e+07
1.61022e+07
2.05195e+07
2.01209e+07
2.11999e+07
1.84911e+07
1.71747e+07
1.2484e+07
1.27655e+07
9.69021e+06
1.19203e+07
9.51328e+06
9.56108e+06
5.10641e+06
1.3596e+07
8.98454e+06
2.67558e+07
1.90813e+07
1.9168e+07
2.11911e+07
1.63736e+07
9.72945e+06
1.18751e+07
1.48457e+07
1.0137e+07
8.75233e+06
1.18626e+07
1.19371e+07
1.33731e+07
2.00611e+07
1.31533e+07
8.64789e+06
1.34923e+07
7.96757e+06
1.64615e+07
1.18309e+07
8.72921e+06
1.80702e+07
6.28958e+06
8.93691e+06
1.59587e+07
1.29229e+07
6.2857e+06
8.31326e+06
2.16638e+07
8.81785e+06
1.18851e+07
1.02292e+07
1.41551e+07
1.74667e+07
1.54176e+07
1.00191e+07
1.09655e+07
1.8595e+07
2.44675e+07
1.38354e+07
7.78564e+06
1.11663e+07
8.37463e+06
2.01682e+07