/*--------------------------------*- C++ -*----------------------------------*\
| =========                 |                                                 |
| \\      /  F ield         | OpenFOAM: The Open Source CFD Toolbox           |
|  \\    /   O peration     | Version:  v2012                                 |
|   \\  /    A nd           | Website:  www.openfoam.com                      |
|    \\/     M anipulation  |                                                 |
\*---------------------------------------------------------------------------*/
FoamFile
{
    version     2.0;
    format      ascii;
    class       pointScalarField;
    location    "13";
    object      pEpsilonEq;
}
// * * * * * * * * * * * * * * * * * * * * * * * * * * * * * * * * * * * * * //

dimensions      [0 0 0 0 0 0 0];


internalField   nonuniform List<scalar> 
2142
(
0.00167233
0.000703032
0.00102608
0.000634784
0.0110946
0.000383669
0.00261025
0.00163198
0.00219798
0.000886636
0.000393268
0.000393268
0.00163198
0.00261025
0.0110946
0.00167233
0.000383669
0.000703032
0.000886636
0.00102608
0.00219798
0.000634784
0.00251497
0.00261346
0.00265743
0.00253824
0.00230448
0.00209897
0.00196355
0.00185768
0.00176373
0.00148348
0.00139408
0.00127602
0.00113896
0.000988005
0.000827756
0.000664693
0.000511563
0.000399277
0.00135587
0.00109508
0.000896993
0.000744593
0.000627006
0.000536473
0.000467368
0.000415862
0.000380158
0.000341464
0.000304014
0.000304571
0.000326818
0.000361075
0.000401707
0.000445399
0.000490069
0.000534279
0.000576922
0.000617056
0.000653813
0.000686333
0.000713709
0.000734936
0.000748874
0.000754216
0.000749531
0.000733303
0.000699411
0.000708051
0.000719865
0.000735616
0.000755217
0.000778335
0.000804469
0.000832938
0.000862646
0.000904096
0.000918087
0.00093163
0.000944722
0.000957295
0.000969254
0.000980499
0.000990925
0.00100043
0.00100891
0.00101628
0.00102245
0.00102735
0.0010309
0.00103306
0.00103381
0.00103317
0.00103119
0.0010281
0.00102669
0.00103113
0.00104847
0.0010792
0.00112218
0.0011761
0.00123981
0.00131237
0.00139293
0.00148063
0.00157442
0.00167286
0.00177399
0.0018751
0.00197252
0.00206139
0.00213493
0.00219581
0.00221194
0.00215305
0.0020702
0.00194878
0.0017828
0.00157064
0.00132117
0.00105789
0.000815822
0.000628581
0.000762826
0.000888439
0.00100067
0.00110139
0.00119245
0.00127557
0.00135233
0.00142418
0.0014925
0.00155859
0.00162374
0.00168926
0.00175654
0.00182698
0.00190226
0.00198507
0.00207953
0.00218753
0.00232384
0.00312705
0.00380966
0.00468044
0.00571174
0.00683153
0.00794601
0.0089857
0.00991898
0.010711
0.00154027
0.00146544
0.00140722
0.00135366
0.00130358
0.00125711
0.00121448
0.00117575
0.00114085
0.00110953
0.0010813
0.00105552
0.00103143
0.00100821
0.000985162
0.000961823
0.000938227
0.00091524
0.000895243
0.00182047
0.00184184
0.00186024
0.00187722
0.00189324
0.00190838
0.00192257
0.00193575
0.00194795
0.00195932
0.00197019
0.00198114
0.00199299
0.00200689
0.00202426
0.00204684
0.00207667
0.00211611
0.00216801
0.010854
0.0101581
0.0088322
0.00668278
0.00393557
0.00198997
0.0013966
0.00107716
0.00072868
0.000199713
0.000388182
0.00066189
0.000923196
0.00115776
0.00135861
0.00152025
0.00163921
0.0017249
0.000530296
0.00081025
0.00102987
0.00119947
0.00132974
0.00142877
0.00150205
0.00155182
0.00157346
0.000530296
0.00081025
0.00102987
0.00119947
0.00132974
0.00142877
0.00150205
0.00155182
0.00157346
0.00176373
0.00185768
0.00196355
0.00209897
0.00230448
0.00253824
0.00265743
0.00261346
0.00251497
0.00312705
0.00380966
0.00468044
0.00571174
0.00683153
0.00794601
0.0089857
0.00991898
0.010711
0.010854
0.0101581
0.0088322
0.00668278
0.00393557
0.00198997
0.0013966
0.00107716
0.00072868
0.000199713
0.000388182
0.00066189
0.000923196
0.00115776
0.00135861
0.00152025
0.00163921
0.0017249
0.00135587
0.00109508
0.000896993
0.000744593
0.000627006
0.000536473
0.000467368
0.000415862
0.000380158
0.000399277
0.000511563
0.000664693
0.000827756
0.000988005
0.00113896
0.00127602
0.00139408
0.00148348
0.000341464
0.000304014
0.000304571
0.000326818
0.000361075
0.000401707
0.000445399
0.000490069
0.000534279
0.000576922
0.000617056
0.000653813
0.000686333
0.000713709
0.000734936
0.000748874
0.000754216
0.000749531
0.000733303
0.000699411
0.000708051
0.000719865
0.000735616
0.000755217
0.000778335
0.000804469
0.000832938
0.000862646
0.000895243
0.00091524
0.000938227
0.000961823
0.000985162
0.00100821
0.00103143
0.00105552
0.0010813
0.00110953
0.00114085
0.00117575
0.00121448
0.00125711
0.00130358
0.00135366
0.00140722
0.00146544
0.00154027
0.000904096
0.000918087
0.00093163
0.000944722
0.000957295
0.000969254
0.000980499
0.000990925
0.00100043
0.00100891
0.00101628
0.00102245
0.00102735
0.0010309
0.00103306
0.00103381
0.00103317
0.00103119
0.0010281
0.00102669
0.00103113
0.00104847
0.0010792
0.00112218
0.0011761
0.00123981
0.00131237
0.00139293
0.00148063
0.00157442
0.00167286
0.00177399
0.0018751
0.00197252
0.00206139
0.00213493
0.00219581
0.00221194
0.00216801
0.00211611
0.00207667
0.00204684
0.00202426
0.00200689
0.00199299
0.00198114
0.00197019
0.00195932
0.00194795
0.00193575
0.00192257
0.00190838
0.00189324
0.00187722
0.00186024
0.00184184
0.00182047
0.00215305
0.0020702
0.00194878
0.0017828
0.00157064
0.00132117
0.00105789
0.000815822
0.000628581
0.000762826
0.000888439
0.00100067
0.00110139
0.00119245
0.00127557
0.00135233
0.00142418
0.0014925
0.00155859
0.00162374
0.00168926
0.00175654
0.00182698
0.00190226
0.00198507
0.00207953
0.00218753
0.00232384
0.0101687
0.00925112
0.00821676
0.00708582
0.00593809
0.00488472
0.00400356
0.00331893
0.00281517
0.0092492
0.00805953
0.00679479
0.00557956
0.00456994
0.0038246
0.00331206
0.00297115
0.00274965
0.00760347
0.00605969
0.00471148
0.00377096
0.00323417
0.00296456
0.00283709
0.00277408
0.00272026
0.00518862
0.00365604
0.00280267
0.00248448
0.00242176
0.0024532
0.00250927
0.00254758
0.00255679
0.0027538
0.00204478
0.00192359
0.00196159
0.00204005
0.00212933
0.00220283
0.00226328
0.00229922
0.00162239
0.00160516
0.00166226
0.00174546
0.00183542
0.00191883
0.00199067
0.00204687
0.00208225
0.00133597
0.00138713
0.00148396
0.00159206
0.00169449
0.00178332
0.00185516
0.00190906
0.00194675
0.00105193
0.00117677
0.00132154
0.00145677
0.00157338
0.00166918
0.00174443
0.0018007
0.00184065
0.000770776
0.000979777
0.00117046
0.00132921
0.00145764
0.00155975
0.00163929
0.00169938
0.00174288
0.000410993
0.000697094
0.000915979
0.00108152
0.00120573
0.00129772
0.0013648
0.00141453
0.00146069
0.000481283
0.000666287
0.000847601
0.000996021
0.00111273
0.00120385
0.00127612
0.00133625
0.0013889
0.000657383
0.000709979
0.000820848
0.000933413
0.00103151
0.00111324
0.00118079
0.00123671
0.0012825
0.000855411
0.00080006
0.000828534
0.000889767
0.000956841
0.00101908
0.00107315
0.00111845
0.0011553
0.00104329
0.000907503
0.000859025
0.000861576
0.000888008
0.000922434
0.000956913
0.000987896
0.00101403
0.00120745
0.00101245
0.000899973
0.000845014
0.000825967
0.000826722
0.000836856
0.000850297
0.000863738
0.00134045
0.00110293
0.000940392
0.00083499
0.000771254
0.000735827
0.000718348
0.00071149
0.000710328
0.00143846
0.00116884
0.000968059
0.000824016
0.000723172
0.000654475
0.000609216
0.000580668
0.000563634
0.00148488
0.00118769
0.000969278
0.000805754
0.000682971
0.000591328
0.000523936
0.000475796
0.000443457
0.000355781
0.000477532
0.000629829
0.000788229
0.00094309
0.00108974
0.00122524
0.00134701
0.0014516
0.000338476
0.000460031
0.000607383
0.000759891
0.000908843
0.00104988
0.00118025
0.0012976
0.00139883
0.000343784
0.000454642
0.00059051
0.000732827
0.000873119
0.00100705
0.00113201
0.00124599
0.00134667
0.00036394
0.000459829
0.000581138
0.000711011
0.000840986
0.000966592
0.00108522
0.00119509
0.00129448
0.000393843
0.000474198
0.000579942
0.000696306
0.000814992
0.000931382
0.0010428
0.00114756
0.00124435
0.000429903
0.000496062
0.000586591
0.000689214
0.000796139
0.000902724
0.00100621
0.00110493
0.00119779
0.000469505
0.000523524
0.000600042
0.000689337
0.000784463
0.000880933
0.000975963
0.00106787
0.00115566
0.000510697
0.000554698
0.000618834
0.000695687
0.00077935
0.000865682
0.000951961
0.0010365
0.0011183
0.000551968
0.000587843
0.000641337
0.00070692
0.000779762
0.000856195
0.000933658
0.00101048
0.00108567
0.00059209
0.000621415
0.000665913
0.000721518
0.000784387
0.000851387
0.000920191
0.000989198
0.0010574
0.000630005
0.000654047
0.000691007
0.000737915
0.000791772
0.000849972
0.000910466
0.000971763
0.00103287
0.000664746
0.000684503
0.000715168
0.000754573
0.000800407
0.000850548
0.000903233
0.000957112
0.00101122
0.000695365
0.000711621
0.000737025
0.000769998
0.000808778
0.000851662
0.000897159
0.000944066
0.000991479
0.000720877
0.000734241
0.000755233
0.000782725
0.000815385
0.000851856
0.000890887
0.000931415
0.000972602
0.000740196
0.000751122
0.000768401
0.000791267
0.000818726
0.000849688
0.00088309
0.00091799
0.000953615
0.000752057
0.000760831
0.000774976
0.000794044
0.000817281
0.000843756
0.000872534
0.000902766
0.000933737
0.000754914
0.000761564
0.000773109
0.000789355
0.000809533
0.000832748
0.000858158
0.000884989
0.000912564
0.000746689
0.000750793
0.000760724
0.000775532
0.000794063
0.00081553
0.00083921
0.000864389
0.000890383
0.000723226
0.000725936
0.000736392
0.000751197
0.000769677
0.000791317
0.000815526
0.000841616
0.000868791
0.00162409
0.00166739
0.00170356
0.00173458
0.00176177
0.00178609
0.00180826
0.00182889
0.00184856
0.00186789
0.00188756
0.00190837
0.00193124
0.00195725
0.0019876
0.0020236
0.0020666
0.00211786
0.0021786
0.00153428
0.00157314
0.00160872
0.00164115
0.00167086
0.00169843
0.00172443
0.00174946
0.00177411
0.001799
0.0018248
0.00185221
0.00188204
0.0019151
0.00195232
0.00199466
0.00204319
0.00209911
0.00216645
0.00146756
0.00150185
0.00153469
0.00156598
0.00159584
0.00162454
0.00165245
0.00167998
0.00170759
0.0017358
0.00176513
0.00179616
0.00182949
0.00186575
0.0019056
0.00194972
0.0019988
0.00205348
0.00211366
0.00140894
0.00144106
0.00147224
0.00150252
0.00153201
0.00156089
0.00158943
0.00161791
0.00164669
0.00167614
0.00170667
0.00173871
0.00177269
0.0018091
0.0018484
0.00189106
0.00193754
0.0019883
0.00204409
0.00135516
0.00138629
0.00141658
0.00144614
0.0014751
0.00150365
0.00153197
0.00156031
0.00158891
0.00161808
0.0016481
0.00167929
0.001712
0.00174657
0.00178334
0.00182269
0.001865
0.00191067
0.00196013
0.00130544
0.00133587
0.00136544
0.00139426
0.00142249
0.00145028
0.00147778
0.00150519
0.00153271
0.00156056
0.00158895
0.00161814
0.00164838
0.00167992
0.00171304
0.00174803
0.00178517
0.00182476
0.00186711
0.00125956
0.00128914
0.0013178
0.00134566
0.00137284
0.00139948
0.00142569
0.00145164
0.00147746
0.00150334
0.00152944
0.00155594
0.00158303
0.00161092
0.00163981
0.00166992
0.00170147
0.0017347
0.00176986
0.00121743
0.00124581
0.00127325
0.00129982
0.00132562
0.00135076
0.00137532
0.00139942
0.00142318
0.00144671
0.00147015
0.00149362
0.00151727
0.00154126
0.00156573
0.00159086
0.00161682
0.00164381
0.00167203
0.00117894
0.00120575
0.00123161
0.00125657
0.0012807
0.00130405
0.0013267
0.00134872
0.0013702
0.00139121
0.00141184
0.00143219
0.00145236
0.00147246
0.0014926
0.00151292
0.00153354
0.00155463
0.00157635
0.00114387
0.00116878
0.00119277
0.00121584
0.00123805
0.00125942
0.00128
0.00129982
0.00131894
0.0013374
0.00135526
0.00137257
0.00138939
0.0014058
0.00142188
0.00143771
0.00145339
0.00146906
0.00148484
0.00111183
0.0011346
0.00115649
0.00117749
0.00119763
0.00121691
0.00123535
0.00125297
0.00126976
0.00128577
0.001301
0.00131547
0.00132922
0.00134227
0.00135467
0.00136646
0.00137772
0.00138851
0.00139896
0.0010823
0.00110276
0.00112243
0.00114127
0.00115929
0.00117647
0.00119281
0.00120829
0.00122291
0.00123665
0.00124951
0.00126146
0.00127251
0.00128263
0.00129183
0.00130012
0.00130751
0.00131405
0.0013198
0.00105459
0.00107271
0.00109014
0.00110683
0.00112277
0.00113793
0.0011523
0.00116582
0.00117849
0.00119025
0.00120108
0.00121091
0.00121971
0.00122742
0.001234
0.00123939
0.00124356
0.0012465
0.00124821
0.00102801
0.00104387
0.00105915
0.00107381
0.00108782
0.00110114
0.00111373
0.00112556
0.00113658
0.00114672
0.00115592
0.00116411
0.0011712
0.00117709
0.00118168
0.00118486
0.00118654
0.00118661
0.00118501
0.00100196
0.00101577
0.00102913
0.00104198
0.00105431
0.00106605
0.00107718
0.00108763
0.00109736
0.00110628
0.00111432
0.00112138
0.00112733
0.00113204
0.00113535
0.0011371
0.00113709
0.00113513
0.00113103
0.000976131
0.000988277
0.00100008
0.00101151
0.00102252
0.00103306
0.00104309
0.00105255
0.00106139
0.00106952
0.00107685
0.00108328
0.00108867
0.00109284
0.0010956
0.00109671
0.0010959
0.00109287
0.00108728
0.000950786
0.000961876
0.000972732
0.000983296
0.000993513
0.00100334
0.00101272
0.00102162
0.00102998
0.00103772
0.00104477
0.00105101
0.0010563
0.00106047
0.0010633
0.00106453
0.00106382
0.00106077
0.0010549
0.000927125
0.000938176
0.000949004
0.00095951
0.00096965
0.000979392
0.0009887
0.000997535
0.00100585
0.00101358
0.00102065
0.00102697
0.00103242
0.00103687
0.0010401
0.0010419
0.00104193
0.00103979
0.00103496
0.000908108
0.000920689
0.000932649
0.000944138
0.000955181
0.000965752
0.000975802
0.000985271
0.000994095
0.0010022
0.00100953
0.00101599
0.00102151
0.00102599
0.00102932
0.00103136
0.00103195
0.00103085
0.00102779
0.00235112
0.00223918
0.0021379
0.00205463
0.00197438
0.00189554
0.00181947
0.00174555
0.0016725
0.00159914
0.00152421
0.00144637
0.00136416
0.00127602
0.00118023
0.00107485
0.000957706
0.000826393
0.000678592
0.00251128
0.00242921
0.00235597
0.0022643
0.00217036
0.00208992
0.00201259
0.00193409
0.00185579
0.00177677
0.00169582
0.00161174
0.00152334
0.0014294
0.00132876
0.00122034
0.00110343
0.000978113
0.0008463
0.0026131
0.00255183
0.00246855
0.00239454
0.00232993
0.00224544
0.00216292
0.00209131
0.00201914
0.00194453
0.00186666
0.00178488
0.00169856
0.00160717
0.00151031
0.00140781
0.00130002
0.00118808
0.00107464
0.00253065
0.00250275
0.00246657
0.00241272
0.00234705
0.00229234
0.00223619
0.00217872
0.0021244
0.0020637
0.00199732
0.00192567
0.00184908
0.00176783
0.00168238
0.00159345
0.00150236
0.00141138
0.00132442
0.00233274
0.00233447
0.0023209
0.00229669
0.0022703
0.00224759
0.00222547
0.0021975
0.00216271
0.00211973
0.0020698
0.00201395
0.00195312
0.00188825
0.00182051
0.0017514
0.00168305
0.00161855
0.00156233
0.0021329
0.00214907
0.00216056
0.00216893
0.00217474
0.00217698
0.00217345
0.0021631
0.00214497
0.00211957
0.00208769
0.00205027
0.00200842
0.00196343
0.00191688
0.00187077
0.0018277
0.00179103
0.00176515
0.00200608
0.00203119
0.00205289
0.00207126
0.00208613
0.00209701
0.00210315
0.00210384
0.00209877
0.00208803
0.0020721
0.00205175
0.00202808
0.00200248
0.0019767
0.00195293
0.00193387
0.00192281
0.00192367
0.00190638
0.00193667
0.00196305
0.00198578
0.00200499
0.00202066
0.0020326
0.00204057
0.00204443
0.00204428
0.0020405
0.00203378
0.00202515
0.00201599
0.00200806
0.00200354
0.00200506
0.00201569
0.00203887
0.0018189
0.00185534
0.0018855
0.00191092
0.00193252
0.00195083
0.00196613
0.00197857
0.00198825
0.0019954
0.00200043
0.002004
0.0020071
0.00201103
0.00201748
0.00202852
0.00204664
0.0020747
0.00211601
0.0101687
0.00925112
0.00821676
0.00708582
0.00593809
0.00488472
0.00400356
0.00331893
0.00281517
0.0092492
0.00805953
0.00679479
0.00557956
0.00456994
0.0038246
0.00331206
0.00297115
0.00274965
0.00760347
0.00605969
0.00471148
0.00377096
0.00323417
0.00296456
0.00283709
0.00277408
0.00272026
0.00518862
0.00365604
0.00280267
0.00248448
0.00242176
0.0024532
0.00250927
0.00254758
0.00255679
0.0027538
0.00204478
0.00192359
0.00196159
0.00204005
0.00212933
0.00220283
0.00226328
0.00229922
0.00162239
0.00160516
0.00166226
0.00174546
0.00183542
0.00191883
0.00199067
0.00204687
0.00208225
0.00133597
0.00138713
0.00148396
0.00159206
0.00169449
0.00178332
0.00185516
0.00190906
0.00194675
0.00105193
0.00117677
0.00132154
0.00145677
0.00157338
0.00166918
0.00174443
0.0018007
0.00184065
0.000770776
0.000979777
0.00117046
0.00132921
0.00145764
0.00155975
0.00163929
0.00169938
0.00174288
0.000410993
0.000697094
0.000915979
0.00108152
0.00120573
0.00129772
0.0013648
0.00141453
0.00146069
0.000481283
0.000666287
0.000847601
0.000996021
0.00111273
0.00120385
0.00127612
0.00133625
0.0013889
0.000657383
0.000709979
0.000820848
0.000933413
0.00103151
0.00111324
0.00118079
0.00123671
0.0012825
0.000855411
0.00080006
0.000828534
0.000889767
0.000956841
0.00101908
0.00107315
0.00111845
0.0011553
0.00104329
0.000907503
0.000859025
0.000861576
0.000888008
0.000922434
0.000956913
0.000987896
0.00101403
0.00120745
0.00101245
0.000899973
0.000845014
0.000825967
0.000826722
0.000836856
0.000850297
0.000863738
0.00134045
0.00110293
0.000940392
0.00083499
0.000771254
0.000735827
0.000718348
0.00071149
0.000710328
0.00143846
0.00116884
0.000968059
0.000824016
0.000723172
0.000654475
0.000609216
0.000580668
0.000563634
0.00148488
0.00118769
0.000969278
0.000805754
0.000682971
0.000591328
0.000523936
0.000475796
0.000443457
0.000355781
0.000477532
0.000629829
0.000788229
0.00094309
0.00108974
0.00122524
0.00134701
0.0014516
0.000338476
0.000460031
0.000607383
0.000759891
0.000908843
0.00104988
0.00118025
0.0012976
0.00139883
0.000343784
0.000454642
0.00059051
0.000732827
0.000873119
0.00100705
0.00113201
0.00124599
0.00134667
0.00036394
0.000459829
0.000581138
0.000711011
0.000840986
0.000966592
0.00108522
0.00119509
0.00129448
0.000393843
0.000474198
0.000579942
0.000696306
0.000814992
0.000931382
0.0010428
0.00114756
0.00124435
0.000429903
0.000496062
0.000586591
0.000689214
0.000796139
0.000902724
0.00100621
0.00110493
0.00119779
0.000469505
0.000523524
0.000600042
0.000689337
0.000784463
0.000880933
0.000975963
0.00106787
0.00115566
0.000510697
0.000554698
0.000618834
0.000695687
0.00077935
0.000865682
0.000951961
0.0010365
0.0011183
0.000551968
0.000587843
0.000641337
0.00070692
0.000779762
0.000856195
0.000933658
0.00101048
0.00108567
0.00059209
0.000621415
0.000665913
0.000721518
0.000784387
0.000851387
0.000920191
0.000989198
0.0010574
0.000630005
0.000654047
0.000691007
0.000737915
0.000791772
0.000849972
0.000910466
0.000971763
0.00103287
0.000664746
0.000684503
0.000715168
0.000754573
0.000800407
0.000850548
0.000903233
0.000957112
0.00101122
0.000695365
0.000711621
0.000737025
0.000769998
0.000808778
0.000851662
0.000897159
0.000944066
0.000991479
0.000720877
0.000734241
0.000755233
0.000782725
0.000815385
0.000851856
0.000890887
0.000931415
0.000972602
0.000740196
0.000751122
0.000768401
0.000791267
0.000818726
0.000849688
0.00088309
0.00091799
0.000953615
0.000752057
0.000760831
0.000774976
0.000794044
0.000817281
0.000843756
0.000872534
0.000902766
0.000933737
0.000754914
0.000761564
0.000773109
0.000789355
0.000809533
0.000832748
0.000858158
0.000884989
0.000912564
0.000746689
0.000750793
0.000760724
0.000775532
0.000794063
0.00081553
0.00083921
0.000864389
0.000890383
0.000723226
0.000725936
0.000736392
0.000751197
0.000769677
0.000791317
0.000815526
0.000841616
0.000868791
0.00162409
0.00166739
0.00170356
0.00173458
0.00176177
0.00178609
0.00180826
0.00182889
0.00184856
0.00186789
0.00188756
0.00190837
0.00193124
0.00195725
0.0019876
0.0020236
0.0020666
0.00211786
0.0021786
0.00153428
0.00157314
0.00160872
0.00164115
0.00167086
0.00169843
0.00172443
0.00174946
0.00177411
0.001799
0.0018248
0.00185221
0.00188204
0.0019151
0.00195232
0.00199466
0.00204319
0.00209911
0.00216645
0.00146756
0.00150185
0.00153469
0.00156598
0.00159584
0.00162454
0.00165245
0.00167998
0.00170759
0.0017358
0.00176513
0.00179616
0.00182949
0.00186575
0.0019056
0.00194972
0.0019988
0.00205348
0.00211366
0.00140894
0.00144106
0.00147224
0.00150252
0.00153201
0.00156089
0.00158943
0.00161791
0.00164669
0.00167614
0.00170667
0.00173871
0.00177269
0.0018091
0.0018484
0.00189106
0.00193754
0.0019883
0.00204409
0.00135516
0.00138629
0.00141658
0.00144614
0.0014751
0.00150365
0.00153197
0.00156031
0.00158891
0.00161808
0.0016481
0.00167929
0.001712
0.00174657
0.00178334
0.00182269
0.001865
0.00191067
0.00196013
0.00130544
0.00133587
0.00136544
0.00139426
0.00142249
0.00145028
0.00147778
0.00150519
0.00153271
0.00156056
0.00158895
0.00161814
0.00164838
0.00167992
0.00171304
0.00174803
0.00178517
0.00182476
0.00186711
0.00125956
0.00128914
0.0013178
0.00134566
0.00137284
0.00139948
0.00142569
0.00145164
0.00147746
0.00150334
0.00152944
0.00155594
0.00158303
0.00161092
0.00163981
0.00166992
0.00170147
0.0017347
0.00176986
0.00121743
0.00124581
0.00127325
0.00129982
0.00132562
0.00135076
0.00137532
0.00139942
0.00142318
0.00144671
0.00147015
0.00149362
0.00151727
0.00154126
0.00156573
0.00159086
0.00161682
0.00164381
0.00167203
0.00117894
0.00120575
0.00123161
0.00125657
0.0012807
0.00130405
0.0013267
0.00134872
0.0013702
0.00139121
0.00141184
0.00143219
0.00145236
0.00147246
0.0014926
0.00151292
0.00153354
0.00155463
0.00157635
0.00114387
0.00116878
0.00119277
0.00121584
0.00123805
0.00125942
0.00128
0.00129982
0.00131894
0.0013374
0.00135526
0.00137257
0.00138939
0.0014058
0.00142188
0.00143771
0.00145339
0.00146906
0.00148484
0.00111183
0.0011346
0.00115649
0.00117749
0.00119763
0.00121691
0.00123535
0.00125297
0.00126976
0.00128577
0.001301
0.00131547
0.00132922
0.00134227
0.00135467
0.00136646
0.00137772
0.00138851
0.00139896
0.0010823
0.00110276
0.00112243
0.00114127
0.00115929
0.00117647
0.00119281
0.00120829
0.00122291
0.00123665
0.00124951
0.00126146
0.00127251
0.00128263
0.00129183
0.00130012
0.00130751
0.00131405
0.0013198
0.00105459
0.00107271
0.00109014
0.00110683
0.00112277
0.00113793
0.0011523
0.00116582
0.00117849
0.00119025
0.00120108
0.00121091
0.00121971
0.00122742
0.001234
0.00123939
0.00124356
0.0012465
0.00124821
0.00102801
0.00104387
0.00105915
0.00107381
0.00108782
0.00110114
0.00111373
0.00112556
0.00113658
0.00114672
0.00115592
0.00116411
0.0011712
0.00117709
0.00118168
0.00118486
0.00118654
0.00118661
0.00118501
0.00100196
0.00101577
0.00102913
0.00104198
0.00105431
0.00106605
0.00107718
0.00108763
0.00109736
0.00110628
0.00111432
0.00112138
0.00112733
0.00113204
0.00113535
0.0011371
0.00113709
0.00113513
0.00113103
0.000976131
0.000988277
0.00100008
0.00101151
0.00102252
0.00103306
0.00104309
0.00105255
0.00106139
0.00106952
0.00107685
0.00108328
0.00108867
0.00109284
0.0010956
0.00109671
0.0010959
0.00109287
0.00108728
0.000950786
0.000961876
0.000972732
0.000983296
0.000993513
0.00100334
0.00101272
0.00102162
0.00102998
0.00103772
0.00104477
0.00105101
0.0010563
0.00106047
0.0010633
0.00106453
0.00106382
0.00106077
0.0010549
0.000927125
0.000938176
0.000949004
0.00095951
0.00096965
0.000979392
0.0009887
0.000997535
0.00100585
0.00101358
0.00102065
0.00102697
0.00103242
0.00103687
0.0010401
0.0010419
0.00104193
0.00103979
0.00103496
0.000908108
0.000920689
0.000932649
0.000944138
0.000955181
0.000965752
0.000975802
0.000985271
0.000994095
0.0010022
0.00100953
0.00101599
0.00102151
0.00102599
0.00102932
0.00103136
0.00103195
0.00103085
0.00102779
0.00235112
0.00223918
0.0021379
0.00205463
0.00197438
0.00189554
0.00181947
0.00174555
0.0016725
0.00159914
0.00152421
0.00144637
0.00136416
0.00127602
0.00118023
0.00107485
0.000957706
0.000826393
0.000678592
0.00251128
0.00242921
0.00235597
0.0022643
0.00217036
0.00208992
0.00201259
0.00193409
0.00185579
0.00177677
0.00169582
0.00161174
0.00152334
0.0014294
0.00132876
0.00122034
0.00110343
0.000978113
0.0008463
0.0026131
0.00255183
0.00246855
0.00239454
0.00232993
0.00224544
0.00216292
0.00209131
0.00201914
0.00194453
0.00186666
0.00178488
0.00169856
0.00160717
0.00151031
0.00140781
0.00130002
0.00118808
0.00107464
0.00253065
0.00250275
0.00246657
0.00241272
0.00234705
0.00229234
0.00223619
0.00217872
0.0021244
0.0020637
0.00199732
0.00192567
0.00184908
0.00176783
0.00168238
0.00159345
0.00150236
0.00141138
0.00132442
0.00233274
0.00233447
0.0023209
0.00229669
0.0022703
0.00224759
0.00222547
0.0021975
0.00216271
0.00211973
0.0020698
0.00201395
0.00195312
0.00188825
0.00182051
0.0017514
0.00168305
0.00161855
0.00156233
0.0021329
0.00214907
0.00216056
0.00216893
0.00217474
0.00217698
0.00217345
0.0021631
0.00214497
0.00211957
0.00208769
0.00205027
0.00200842
0.00196343
0.00191688
0.00187077
0.0018277
0.00179103
0.00176515
0.00200608
0.00203119
0.00205289
0.00207126
0.00208613
0.00209701
0.00210315
0.00210384
0.00209877
0.00208803
0.0020721
0.00205175
0.00202808
0.00200248
0.0019767
0.00195293
0.00193387
0.00192281
0.00192367
0.00190638
0.00193667
0.00196305
0.00198578
0.00200499
0.00202066
0.0020326
0.00204057
0.00204443
0.00204428
0.0020405
0.00203378
0.00202515
0.00201599
0.00200806
0.00200354
0.00200506
0.00201569
0.00203887
0.0018189
0.00185534
0.0018855
0.00191092
0.00193252
0.00195083
0.00196613
0.00197857
0.00198825
0.0019954
0.00200043
0.002004
0.0020071
0.00201103
0.00201748
0.00202852
0.00204664
0.0020747
0.00211601
)
;

boundaryField
{
    back
    {
        type            empty;
    }
    front
    {
        type            empty;
    }
    left
    {
        type            calculated;
    }
    hole
    {
        type            calculated;
    }
    down
    {
        type            calculated;
    }
    right
    {
        type            calculated;
    }
    up
    {
        type            calculated;
    }
}


// ************************************************************************* //
