/*--------------------------------*- C++ -*----------------------------------*\
| =========                 |                                                 |
| \\      /  F ield         | OpenFOAM: The Open Source CFD Toolbox           |
|  \\    /   O peration     | Version:  v2012                                 |
|   \\  /    A nd           | Website:  www.openfoam.com                      |
|    \\/     M anipulation  |                                                 |
\*---------------------------------------------------------------------------*/
FoamFile
{
    version     2.0;
    format      ascii;
    class       volScalarField;
    location    "1";
    object      epsilonEq;
}
// * * * * * * * * * * * * * * * * * * * * * * * * * * * * * * * * * * * * * //

dimensions      [0 0 0 0 0 0 0];


internalField   nonuniform List<scalar> 
16000
(
0.000627653
0.000600422
0.000573979
0.000550366
0.000527824
0.000507344
0.000487997
0.000470216
0.000453515
0.000438051
0.000423564
0.000410084
0.000397464
0.000385681
0.000374644
0.000364314
0.000354627
0.000345541
0.000337008
0.000328989
0.000321446
0.000314343
0.000307649
0.000301333
0.000295368
0.000289729
0.00028439
0.000279332
0.000274531
0.000269972
0.000265633
0.000261504
0.000257562
0.000253798
0.000250193
0.000246737
0.000243415
0.000240216
0.000237133
0.000234137
0.000626627
0.000599461
0.000573084
0.000549533
0.000527052
0.00050663
0.000487341
0.000469615
0.000452968
0.000437556
0.00042312
0.000409689
0.000397116
0.00038538
0.000374388
0.000364101
0.000354455
0.00034541
0.000336916
0.000328936
0.000321429
0.000314362
0.000307702
0.000301419
0.000295486
0.000289878
0.000284569
0.00027954
0.000274765
0.000270232
0.000265915
0.000261805
0.000257886
0.00025414
0.000250556
0.000247118
0.000243814
0.000240632
0.000237564
0.000234585
0.00062458
0.000597544
0.000571298
0.00054787
0.000525511
0.000505206
0.000486031
0.000468415
0.000451876
0.000436568
0.000422233
0.0004089
0.000396422
0.000384778
0.000373875
0.000363675
0.000354114
0.00034515
0.000336734
0.000328829
0.000321395
0.000314398
0.000307806
0.000301588
0.000295717
0.000290166
0.000284913
0.000279934
0.000275206
0.000270721
0.000266435
0.000262391
0.000258517
0.00025482
0.000251278
0.000247878
0.00024461
0.000241461
0.000238422
0.000235476
0.000621519
0.000594677
0.000568628
0.000545384
0.000523207
0.000503076
0.000484071
0.00046662
0.000450242
0.000435088
0.000420905
0.000407718
0.000395382
0.000383875
0.000373105
0.000363034
0.000353596
0.000344752
0.000336453
0.000328659
0.000321333
0.000314439
0.000307947
0.000301826
0.000296049
0.00029059
0.000285425
0.000280536
0.000275888
0.000271491
0.00026727
0.00026326
0.000259459
0.000255812
0.00025233
0.000248985
0.000245767
0.000242671
0.000239675
0.000236779
0.000617459
0.000590874
0.000565084
0.000542084
0.000520149
0.000500248
0.00048147
0.000464236
0.000448071
0.000433123
0.000419139
0.000406146
0.000393998
0.000382673
0.000372079
0.000362178
0.000352905
0.00034422
0.000336074
0.000328429
0.000321245
0.00031449
0.000308131
0.000302136
0.000296486
0.000291137
0.000286095
0.000281289
0.000276752
0.000272409
0.00026816
0.000264394
0.000260696
0.000257126
0.000253729
0.000250442
0.000247291
0.000244254
0.000241312
0.000238476
0.000612416
0.00058615
0.000560682
0.000537984
0.000516348
0.000496733
0.000478235
0.000461272
0.00044537
0.000430677
0.000416941
0.000404187
0.000392272
0.000381172
0.000370795
0.000361104
0.000352034
0.000343544
0.000335585
0.00032812
0.000321109
0.000314518
0.000308317
0.000302472
0.000296966
0.000291757
0.000286847
0.00028219
0.000277783
0.000273653
0.000269588
0.000265711
0.000262147
0.000258685
0.000255358
0.000252178
0.000249097
0.00024615
0.000243273
0.000240517
0.000606411
0.000580524
0.000555437
0.000533099
0.000511819
0.000492543
0.000474379
0.000457737
0.000442148
0.000427757
0.000414315
0.000401846
0.000390206
0.000379372
0.000369253
0.00035981
0.000350979
0.000342719
0.000334982
0.00032773
0.00032092
0.000314528
0.000308506
0.000302851
0.000297496
0.000292482
0.000287694
0.000283243
0.000278998
0.000274965
0.000270428
0.00026742
0.000263889
0.000260497
0.000257221
0.000254156
0.000251149
0.000248308
0.000245506
0.000242848
0.000599469
0.000574018
0.000549372
0.000527448
0.000506578
0.000487695
0.000469915
0.000453643
0.000438415
0.000424373
0.00041127
0.000399129
0.000387806
0.000377279
0.000367457
0.0003583
0.000349746
0.000341753
0.000334272
0.000327267
0.000320697
0.000314532
0.000308734
0.000303282
0.000298137
0.000293291
0.000288698
0.000284358
0.000280239
0.000276279
0.000272623
0.000269135
0.000265706
0.000262466
0.00025936
0.000256379
0.000253503
0.000250746
0.000248041
0.000245471
0.000591619
0.000566659
0.000542509
0.000521052
0.000500645
0.000482204
0.000464858
0.000449003
0.000434182
0.000420533
0.000407811
0.000396038
0.000385072
0.000374889
0.000365398
0.000356561
0.000348315
0.000340617
0.000333421
0.000326688
0.000320381
0.000314464
0.000308909
0.000303682
0.000298765
0.000294117
0.000289742
0.000285568
0.000281638
0.000277862
0.000274155
0.000270917
0.000267714
0.00026461
0.000261655
0.000258788
0.000256027
0.000253376
0.000250765
0.000248296
0.00058289
0.000558475
0.000534875
0.000513936
0.000494042
0.000476091
0.000459226
0.000443833
0.000429463
0.000416249
0.000403949
0.000392583
0.000382011
0.000372207
0.000363083
0.000354598
0.00034669
0.000339317
0.000332432
0.000325997
0.000319973
0.000314328
0.000309029
0.000304047
0.000299358
0.000294933
0.000290755
0.000286795
0.000283044
0.00027948
0.000276082
0.000272884
0.000269796
0.000266853
0.000264016
0.000261295
0.000258652
0.000256127
0.00025362
0.000251264
0.000573319
0.000549498
0.000526499
0.000506126
0.000486793
0.000469377
0.000453037
0.000438149
0.000424272
0.000411532
0.000399692
0.000388769
0.000378626
0.000369234
0.000360507
0.000352404
0.000344862
0.00033784
0.000331291
0.000325177
0.00031946
0.000314107
0.000309087
0.00030437
0.000299933
0.000295747
0.000291796
0.000288051
0.0002845
0.000281131
0.000277903
0.000274874
0.000271953
0.000269164
0.000266473
0.00026389
0.000261374
0.000258974
0.000256575
0.000254335
0.000562942
0.000539762
0.000517412
0.00049765
0.000478922
0.000462085
0.000446313
0.000431971
0.000418625
0.000406396
0.000395053
0.000384607
0.000374925
0.000365976
0.000357675
0.000349979
0.000342829
0.000336181
0.00032999
0.000324217
0.000318826
0.000313782
0.000309058
0.000304622
0.000300455
0.00029652
0.000292818
0.000289289
0.000285963
0.000282771
0.000279642
0.000276882
0.000274152
0.000271508
0.000268977
0.000266523
0.000264139
0.000261863
0.000259575
0.000257452
0.000551799
0.000529304
0.000507647
0.000488539
0.000470459
0.000454241
0.000439076
0.000425317
0.000412539
0.000400857
0.000390043
0.000380106
0.000370914
0.000362436
0.000354587
0.000347324
0.000340588
0.000334335
0.000328521
0.000323107
0.000318056
0.000313337
0.000308918
0.000304773
0.000300877
0.000297205
0.00029374
0.000290457
0.000287347
0.000284371
0.000281566
0.000278899
0.000276296
0.000273821
0.000271424
0.000269126
0.000266872
0.000264732
0.000262561
0.000260559
0.00053993
0.000518161
0.00049724
0.000478824
0.000461432
0.000445871
0.00043135
0.000418209
0.000406033
0.00039493
0.000384675
0.000375276
0.000366601
0.000358619
0.000351245
0.000344437
0.000338133
0.000332294
0.000326871
0.000321831
0.000317132
0.000312749
0.000308644
0.000304804
0.000301183
0.000297796
0.000294577
0.000291566
0.000288737
0.000285961
0.000282951
0.000280831
0.000278461
0.00027609
0.000273825
0.00027168
0.000269548
0.000267549
0.000265491
0.000263614
0.000527381
0.000506374
0.000486226
0.00046854
0.000451872
0.000437003
0.00042316
0.000410671
0.000399127
0.000388633
0.000378966
0.000370131
0.000361998
0.000354535
0.000347657
0.000341323
0.000335472
0.000330063
0.00032505
0.000320398
0.000316069
0.000312034
0.000308262
0.000304729
0.00030141
0.000298284
0.000295334
0.000292538
0.000289884
0.000287378
0.000284929
0.000282578
0.00028038
0.000278235
0.000276154
0.000274154
0.000272171
0.000270298
0.00026836
0.000266597
0.000514194
0.000493984
0.000474644
0.000457722
0.000441811
0.000427665
0.000414532
0.000402724
0.000391842
0.000381982
0.000372928
0.000364681
0.000357111
0.000350187
0.000343824
0.000337979
0.000332594
0.000327628
0.000323036
0.000318782
0.00031483
0.000311151
0.000307716
0.000304499
0.000301481
0.000298631
0.000295949
0.000293378
0.000290958
0.000288615
0.000286287
0.000284272
0.000282249
0.000280267
0.000278356
0.000276491
0.000274651
0.000272903
0.000271085
0.000269435
0.000500415
0.000481033
0.000462532
0.000446404
0.000431281
0.000417888
0.000405494
0.000394393
0.000384199
0.000374998
0.00036658
0.00035894
0.000351953
0.000345584
0.00033975
0.000334408
0.000329501
0.000324987
0.000320823
0.000316972
0.000313401
0.000310081
0.000306984
0.000304086
0.000301367
0.0002988
0.000296383
0.000294068
0.00029187
0.000289772
0.000287746
0.000285803
0.000283934
0.000282122
0.000280355
0.000278647
0.000276941
0.000275329
0.000273631
0.000272097
0.000486091
0.000467563
0.00044993
0.000434623
0.000420316
0.000407703
0.000396072
0.000385704
0.00037622
0.000367701
0.000359937
0.000352923
0.000346535
0.000340736
0.000335444
0.000330617
0.000326198
0.000322145
0.000318416
0.000314977
0.000311792
0.000308837
0.000306079
0.000303506
0.000301077
0.000298801
0.000296617
0.000294533
0.000292575
0.000290683
0.000288863
0.00028713
0.000285437
0.000283799
0.000282186
0.000280625
0.000279054
0.000277569
0.000275988
0.000274565
0.000471268
0.000453618
0.000436878
0.000422417
0.00040895
0.000397141
0.000386297
0.000376683
0.00036793
0.00036011
0.000353018
0.000346645
0.000340869
0.000335651
0.000330911
0.000326607
0.00032268
0.000319093
0.0003158
0.000312773
0.000309972
0.00030738
0.000304959
0.000302706
0.000300587
0.000298587
0.000296767
0.000294864
0.000293124
0.000291449
0.000289828
0.000288269
0.000286743
0.000285263
0.000283797
0.000282377
0.000280936
0.000279578
0.000278113
0.000276797
0.000455992
0.000439241
0.000423416
0.000409823
0.000397218
0.000386234
0.000376198
0.000367357
0.000359353
0.000352248
0.000345842
0.000340123
0.000334969
0.000330342
0.000326162
0.000322386
0.000318958
0.000315839
0.000312989
0.000310374
0.000307965
0.000305734
0.000303659
0.00030173
0.000299894
0.000298271
0.000296507
0.000294816
0.000293412
0.000291947
0.000290545
0.000289172
0.000287819
0.000286499
0.00028518
0.000283899
0.000282586
0.000281349
0.000279997
0.000278784
0.000440311
0.000424475
0.000409584
0.000396877
0.000385154
0.000375014
0.000365803
0.000357752
0.000350512
0.000344136
0.000338429
0.000333373
0.000328851
0.000324821
0.000321206
0.000317963
0.000315037
0.00031239
0.000309982
0.000307781
0.000305758
0.000303884
0.000302138
0.000300501
0.000298923
0.000297482
0.000296551
0.00029476
0.000293456
0.000292243
0.000291024
0.00028983
0.000288645
0.000287477
0.000286303
0.000285156
0.00028397
0.00028285
0.00028161
0.000280496
0.000424269
0.000409363
0.000395422
0.000383619
0.000372794
0.000363513
0.000355143
0.000347897
0.000341433
0.000335797
0.000330797
0.000326413
0.000322527
0.000319098
0.00031605
0.00031334
0.000310915
0.000308737
0.000306768
0.000304978
0.000303337
0.000301824
0.000300413
0.000299078
0.000297836
0.000296539
0.000295516
0.000294543
0.000293355
0.000292313
0.000291258
0.000290229
0.000289202
0.000288185
0.000287153
0.000286138
0.000285076
0.000284072
0.000282942
0.000281924
0.000407913
0.000393948
0.00038097
0.000370084
0.000360172
0.000351765
0.000344249
0.000337818
0.000332141
0.000327254
0.000322968
0.00031926
0.000316014
0.000313187
0.000310706
0.000308527
0.0003066
0.000304887
0.000303352
0.000301967
0.000300703
0.000299545
0.000298463
0.000297455
0.0002965
0.000295578
0.000294768
0.000293815
0.000292947
0.000292086
0.000291224
0.00029037
0.000289499
0.000288631
0.000287734
0.000286847
0.000285904
0.000285009
0.000283986
0.000283059
0.000391286
0.000378271
0.000366267
0.00035631
0.000347323
0.000339801
0.000333151
0.000327546
0.000322664
0.000318531
0.000314965
0.000311935
0.00030933
0.000307106
0.00030519
0.000303541
0.000302108
0.000300857
0.000299752
0.000298767
0.000297877
0.000297059
0.000296302
0.000295578
0.0002949
0.000294219
0.000293588
0.000292956
0.000292284
0.000291627
0.000290938
0.000290248
0.000289528
0.0002888
0.000288033
0.000287269
0.00028644
0.000285652
0.000284732
0.000283891
0.000374431
0.000362373
0.000351351
0.000342333
0.000334281
0.000327655
0.000321879
0.000317108
0.000313027
0.000309653
0.000306807
0.000304457
0.000302492
0.000300867
0.000299513
0.000298388
0.000297443
0.000296647
0.000295966
0.000295375
0.000294851
0.000294375
0.000293934
0.00029351
0.0002931
0.000292682
0.000292269
0.000291821
0.000291363
0.00029088
0.00029037
0.000289837
0.000289267
0.000288677
0.00028804
0.000287394
0.000286679
0.000285993
0.000285174
0.000284416
0.000357391
0.000346293
0.000336259
0.000328188
0.000321081
0.000315359
0.000310465
0.000306532
0.000303256
0.000300644
0.00029852
0.000296846
0.000295518
0.000294489
0.00029369
0.000293082
0.000292619
0.000292269
0.000292002
0.000291794
0.000291626
0.000291478
0.00029134
0.000291197
0.000291045
0.000290871
0.000290674
0.000290447
0.00029018
0.000289881
0.000289537
0.000289158
0.000288731
0.000288274
0.00028776
0.000287229
0.000286621
0.000286033
0.000285312
0.000284633
0.000340204
0.000330069
0.000321029
0.000313912
0.000307756
0.000302945
0.000298938
0.000295848
0.00029338
0.000291528
0.000290123
0.000289124
0.000288427
0.000287986
0.000287735
0.000287635
0.000287645
0.000287732
0.000287871
0.000288038
0.000288216
0.00028839
0.000288548
0.00028868
0.00028878
0.00028884
0.000288857
0.000288825
0.000288745
0.000288615
0.000288432
0.0002882
0.000287912
0.000287581
0.000287188
0.000286767
0.000286264
0.00028577
0.000285145
0.000284541
0.000322911
0.000313738
0.000305695
0.000299538
0.000294339
0.000290444
0.000287329
0.000285085
0.000283424
0.000282332
0.000281642
0.000281311
0.000281237
0.000281376
0.000281663
0.000282062
0.000282532
0.000283046
0.000283577
0.000284108
0.000284621
0.000285104
0.000285547
0.000285943
0.000286285
0.00028657
0.000286795
0.000286958
0.000287056
0.000287092
0.000287062
0.000286973
0.000286817
0.00028661
0.000286331
0.000286016
0.000285614
0.00028521
0.000284677
0.000284145
0.000305547
0.000297336
0.000290293
0.000285099
0.000280863
0.00027789
0.000275669
0.000274272
0.000273416
0.000273079
0.000273099
0.000273428
0.000273969
0.000274677
0.000275491
0.000276376
0.000277295
0.000278223
0.000279136
0.000280018
0.000280855
0.000281636
0.000282355
0.000283004
0.00028358
0.000284081
0.000284505
0.000284852
0.00028512
0.000285314
0.000285431
0.000285478
0.000285449
0.000285359
0.00028519
0.000284977
0.000284672
0.000284355
0.000283912
0.000283448
0.000288149
0.000280898
0.000274854
0.00027063
0.000267361
0.000265313
0.000263988
0.000263437
0.000263384
0.000263797
0.000264518
0.000265497
0.000266642
0.000267906
0.000269233
0.000270591
0.000271946
0.000273273
0.000274554
0.000275775
0.000276923
0.000277991
0.000278973
0.000279865
0.000280665
0.000281373
0.000281987
0.000282511
0.000282943
0.000283288
0.000283546
0.000283723
0.000283815
0.000283838
0.000283775
0.000283659
0.000283448
0.000283213
0.000282857
0.000282457
0.000270748
0.000264454
0.000259413
0.000256163
0.000253865
0.000252745
0.000252317
0.00025261
0.000253355
0.00025451
0.000255923
0.000257541
0.000259275
0.000261082
0.000262908
0.000264724
0.000266499
0.000268212
0.000269847
0.000271392
0.000272838
0.00027418
0.000275414
0.000276538
0.000277551
0.000278456
0.000279252
0.000279943
0.000280531
0.00028102
0.000281411
0.000281713
0.000281921
0.000282051
0.000282089
0.000282065
0.000281944
0.000281789
0.000281516
0.000281178
0.000253378
0.000248038
0.000244001
0.000241729
0.000240407
0.000240218
0.000240687
0.000241821
0.000243357
0.000245245
0.000247338
0.000249581
0.000251889
0.000254223
0.000256532
0.000258789
0.000260968
0.000263051
0.000265024
0.000266879
0.000268609
0.000270212
0.000271685
0.00027303
0.000274246
0.000275338
0.000276307
0.000277158
0.000277893
0.00027852
0.000279038
0.000279458
0.000279777
0.000280009
0.000280144
0.000280209
0.000280175
0.000280094
0.000279903
0.000279621
0.000236067
0.000231679
0.000228648
0.00022736
0.00022702
0.000227765
0.000229131
0.000231101
0.00023342
0.000236029
0.000238787
0.000241639
0.000244505
0.000247348
0.000250121
0.000252802
0.000255368
0.000257804
0.000260099
0.000262249
0.000264249
0.000266099
0.000267799
0.000269352
0.00027076
0.000272028
0.00027316
0.000274162
0.000275037
0.000275793
0.000276432
0.000276963
0.000277386
0.000277716
0.000277942
0.000278092
0.00027814
0.00027813
0.000278017
0.000277791
0.000218844
0.000215405
0.000213384
0.000213089
0.000213736
0.000215419
0.000217679
0.00022048
0.000223571
0.000226888
0.000230295
0.000233739
0.000237144
0.000240475
0.000243694
0.00024678
0.000249713
0.000252484
0.000255085
0.000257514
0.000259768
0.000261851
0.000263765
0.000265514
0.000267103
0.000268537
0.000269823
0.000270967
0.000271974
0.000272852
0.000273605
0.000274243
0.000274766
0.000275189
0.000275504
0.000275735
0.000275862
0.000275921
0.000275884
0.000275708
0.000201735
0.000199244
0.000198241
0.000198949
0.00020059
0.000203215
0.000206366
0.00020999
0.000213841
0.000217851
0.000221888
0.000225902
0.000229825
0.000233625
0.000237267
0.000240737
0.000244018
0.000247106
0.000249995
0.000252686
0.00025518
0.000257482
0.000259596
0.000261529
0.000263287
0.000264877
0.000266306
0.000267582
0.000268712
0.000269705
0.000270564
0.000271301
0.000271916
0.000272425
0.000272822
0.000273128
0.000273329
0.000273451
0.000273486
0.000273358
0.000184763
0.000183225
0.000183248
0.000184972
0.000187618
0.000191187
0.000195228
0.000199665
0.000204261
0.000208943
0.00021359
0.000218153
0.00022257
0.000226815
0.000230859
0.00023469
0.000238299
0.000241683
0.000244841
0.000247777
0.000250494
0.000253
0.0002553
0.000257404
0.000259319
0.000261053
0.000262616
0.000264016
0.000265261
0.00026636
0.00026732
0.000268151
0.000268857
0.000269449
0.000269928
0.000270309
0.000270587
0.000270773
0.00027088
0.000270798
0.000167954
0.000167373
0.000168439
0.000171197
0.000174858
0.000179376
0.0001843
0.000189538
0.000194862
0.000200196
0.000205428
0.000210513
0.000215399
0.000220063
0.000224484
0.000228654
0.000232568
0.00023623
0.000239638
0.000242802
0.000245727
0.000248422
0.000250896
0.000253158
0.000255219
0.000257089
0.000258776
0.000260291
0.000261643
0.000262842
0.000263894
0.000264811
0.000265598
0.000266265
0.000266815
0.000267261
0.000267601
0.000267842
0.000268007
0.000267966
0.000151327
0.000151715
0.000153846
0.000157662
0.000162352
0.000167822
0.000173623
0.000179647
0.000185676
0.000191636
0.000197427
0.000203006
0.000208333
0.000213389
0.000218162
0.000222646
0.000226844
0.00023076
0.000234398
0.000237771
0.000240885
0.000243753
0.000246384
0.000248791
0.000250985
0.000252976
0.000254776
0.000256394
0.000257842
0.000259129
0.000260266
0.000261259
0.000262123
0.000262857
0.000263485
0.000263992
0.000264419
0.000264718
0.000264975
0.000264993
0.000134905
0.000136283
0.000139509
0.000144414
0.00015015
0.000156576
0.000163243
0.000170033
0.000176742
0.000183298
0.000189616
0.000195658
0.000201395
0.000206812
0.000211906
0.000216678
0.000221125
0.000225282
0.000229133
0.000232697
0.000235988
0.000239014
0.000241793
0.000244334
0.000246653
0.000248759
0.000250667
0.000252386
0.00025393
0.000255305
0.000256529
0.0002576
0.000258544
0.000259348
0.000260052
0.00026062
0.000261122
0.000261474
0.000261812
0.000261862
0.000118705
0.000121106
0.000125472
0.000131505
0.000138303
0.000145685
0.000153201
0.000160732
0.000168089
0.000175205
0.000182014
0.000188481
0.000194596
0.000200341
0.000205734
0.000210763
0.000215456
0.000219822
0.000223855
0.000227595
0.000231034
0.000234205
0.00023711
0.000239772
0.000242198
0.000244405
0.000246405
0.000248208
0.00024983
0.000251273
0.000252562
0.000253682
0.000254684
0.00025551
0.00025628
0.00025683
0.000257462
0.00025773
0.000258416
0.000258312
0.000102752
0.000106227
0.000111797
0.000119005
0.000126886
0.000135218
0.000143562
0.0001518
0.000159766
0.000167404
0.000174664
0.00018152
0.00018798
0.000194016
0.000199677
0.000204922
0.000209775
0.000214362
0.000218587
0.000222463
0.000226054
0.000229342
0.000232369
0.000235136
0.000237667
0.000239969
0.000242062
0.000243953
0.000245662
0.000247188
0.000248561
0.000249762
0.00025085
0.000251757
0.000252616
0.000253256
0.000253942
0.000254384
0.000254892
0.000255521
8.70585e-05
9.16921e-05
9.85511e-05
0.000106994
0.000115969
0.000125238
0.000134371
0.000143276
0.000151805
0.000159907
0.00016757
0.000174759
0.000181517
0.00018779
0.000193697
0.000199081
0.000204234
0.000209029
0.000213299
0.000217345
0.000221018
0.000224433
0.00022755
0.000230419
0.000233036
0.000235427
0.000237601
0.000239574
0.000241361
0.000242968
0.00024442
0.000245707
0.000246872
0.000247879
0.000248799
0.000249569
0.000250235
0.000250876
0.000251065
0.000252091
7.16603e-05
7.7584e-05
8.5853e-05
9.55944e-05
0.000105671
0.000115843
0.000125719
0.000135226
0.000144249
0.000152769
0.000160777
0.000168272
0.000175284
0.000181799
0.000187938
0.000193482
0.000198892
0.000203539
0.000208097
0.000212154
0.000215962
0.000219451
0.000222661
0.000225605
0.000228297
0.000230756
0.000232994
0.000235024
0.000236864
0.000238519
0.000240013
0.000241338
0.00024253
0.000243564
0.000244487
0.000245278
0.000245907
0.000246589
0.000246672
0.000247829
5.65774e-05
6.40157e-05
7.38577e-05
8.49553e-05
9.61039e-05
0.000107124
0.000117643
0.00012771
0.000137187
0.000146037
0.00015433
0.000162072
0.000169264
0.000175992
0.000182181
0.000188031
0.000193277
0.000198133
0.000202785
0.000206967
0.000210879
0.000214439
0.00021773
0.000220734
0.00022349
0.000226003
0.000228295
0.000230376
0.000232263
0.000233963
0.000235496
0.00023686
0.00023808
0.000239148
0.000240079
0.000240902
0.000241511
0.000242238
0.000242279
0.000243523
4.18767e-05
5.12142e-05
6.28178e-05
7.52888e-05
8.74511e-05
9.91956e-05
0.000110315
0.000120785
0.000130569
0.000139678
0.000148211
0.00015612
0.000163493
0.000170312
0.000176656
0.000182501
0.000187886
0.000192945
0.000197601
0.000201863
0.000205811
0.000209425
0.000212756
0.000215805
0.0002186
0.000221152
0.00022348
0.000225595
0.000227514
0.000229245
0.000230805
0.000232198
0.000233442
0.000234539
0.00023549
0.00023635
0.000236978
0.000237763
0.000237829
0.000239146
2.77142e-05
3.9659e-05
5.31858e-05
6.69219e-05
7.9944e-05
9.22331e-05
0.000103705
0.000114521
0.000124561
0.00013384
0.000142448
0.000150516
0.000157946
0.00016488
0.000171267
0.000177206
0.000182674
0.000187734
0.000192419
0.000196727
0.000200709
0.000204364
0.00020773
0.000210813
0.000213641
0.000216224
0.000218582
0.000220726
0.000222673
0.000224432
0.000226018
0.000227438
0.000228706
0.000229833
0.000230808
0.000231704
0.000232358
0.000233191
0.000233296
0.000234656
1.47273e-05
3.03545e-05
4.55129e-05
6.01615e-05
7.36731e-05
8.62488e-05
9.80949e-05
0.000108499
0.000119121
0.000128388
0.000137182
0.000145245
0.000152742
0.000159678
0.000166099
0.000172042
0.000177531
0.00018262
0.000187314
0.000191644
0.000195637
0.000199309
0.000202688
0.000205787
0.00020863
0.00021123
0.000213604
0.000215766
0.000217731
0.00021951
0.000221116
0.00022256
0.000223851
0.000225005
0.000226007
0.000226938
0.000227625
0.0002285
0.000228645
0.000230034
8.69495e-06
2.54429e-05
4.07426e-05
5.55074e-05
6.89568e-05
8.16438e-05
9.33567e-05
0.000104211
0.000114242
0.000123623
0.000132342
0.000140353
0.00014783
0.000154722
0.000161126
0.000167043
0.000172523
0.000177586
0.000182268
0.000186587
0.000190573
0.000194243
0.00019762
0.000200722
0.000203569
0.000206175
0.000208558
0.00021073
0.000212707
0.0002145
0.000216122
0.000217584
0.000218894
0.000220072
0.000221097
0.000222056
0.00022277
0.000223678
0.000223857
0.00022526
1.77756e-05
2.69497e-05
3.97206e-05
5.33026e-05
6.61074e-05
7.82744e-05
8.96644e-05
0.000100308
0.000110151
0.00011931
0.000127872
0.00013579
0.000143164
0.000149988
0.000156322
0.000162185
0.000167616
0.00017264
0.000177285
0.000181575
0.000185535
0.000189184
0.000192544
0.000195633
0.00019847
0.000201071
0.000203451
0.000205623
0.000207604
0.000209403
0.000211033
0.000212508
0.000213831
0.000215026
0.00021607
0.000217052
0.000217788
0.000218722
0.00021893
0.000220338
3.01744e-05
3.36637e-05
4.23848e-05
5.37033e-05
6.5115e-05
7.64053e-05
8.71284e-05
9.72515e-05
0.000106726
0.000115638
0.000123935
0.000131669
0.000138867
0.000145552
0.000151762
0.000157521
0.000162862
0.000167808
0.000172386
0.000176619
0.000180529
0.000184137
0.000187463
0.000190524
0.000193338
0.000195921
0.000198287
0.000200451
0.000202426
0.000204224
0.000205856
0.000207336
0.000208667
0.000209874
0.00021093
0.00021193
0.000212682
0.000213634
0.000213866
0.000215272
4.27903e-05
4.29205e-05
4.79001e-05
5.64212e-05
6.5934e-05
7.59209e-05
8.56896e-05
9.51418e-05
0.000104088
0.000112551
0.000120498
0.00012794
0.000134895
0.000141378
0.000147416
0.00015303
0.000158245
0.000163083
0.000167568
0.000171721
0.000175562
0.00017911
0.000182385
0.000185403
0.000188181
0.000190733
0.000193075
0.00019522
0.000197181
0.000198969
0.000200595
0.000202072
0.000203404
0.000204616
0.000205678
0.000206688
0.000207451
0.000208416
0.000208669
0.000210065
5.52301e-05
5.31881e-05
5.52237e-05
6.10148e-05
6.83901e-05
7.67958e-05
8.53709e-05
9.39111e-05
0.00010216
0.00011007
0.000117562
0.000124635
0.000131277
0.0001375
0.000143314
0.000148737
0.000153787
0.000158484
0.000162846
0.000166892
0.00017064
0.000174109
0.000177315
0.000180273
0.000183
0.000185509
0.000187815
0.00018993
0.000191867
0.000193636
0.000195249
0.000196716
0.000198044
0.000199256
0.00020032
0.00020134
0.000202106
0.000203076
0.000203346
0.000204727
6.73827e-05
6.37774e-05
6.35513e-05
6.69301e-05
7.21783e-05
7.88671e-05
8.60824e-05
9.35638e-05
0.000100969
0.000108199
0.000115137
0.000121751
0.000128011
0.00013391
0.00013945
0.000144639
0.000149488
0.00015401
0.000158221
0.000162136
0.000165771
0.000169141
0.000172261
0.000175145
0.000177808
0.000180262
0.000182522
0.000184597
0.000186501
0.000188243
0.000189835
0.000191284
0.0001926
0.0001938
0.000194859
0.000195872
0.00019664
0.000197616
0.000197896
0.000199262
7.92049e-05
7.43843e-05
7.23824e-05
7.3717e-05
7.69859e-05
8.19457e-05
8.77142e-05
9.40185e-05
0.000100466
0.000106914
0.000113208
0.000119288
0.000125098
0.000130618
0.000135834
0.000140746
0.000145355
0.000149671
0.000153702
0.00015746
0.000160958
0.000164208
0.000167224
0.000170017
0.0001726
0.000174985
0.000177185
0.000179208
0.000181067
0.000182769
0.000184331
0.000185749
0.000187054
0.000188228
0.000189299
0.000190331
0.000191075
0.000192021
0.000192329
0.000193659
9.06747e-05
8.4854e-05
8.14145e-05
8.10293e-05
8.25233e-05
8.58283e-05
9.01362e-05
9.52039e-05
0.000100612
0.000106196
0.000111767
0.000117241
0.000122538
0.000127624
0.000132468
0.00013706
0.000141393
0.000145469
0.000149292
0.000152869
0.000156208
0.00015932
0.000162214
0.000164901
0.000167393
0.000169698
0.000171829
0.000173792
0.000175604
0.000177263
0.000178796
0.000180181
0.000181476
0.000182616
0.000183704
0.000184644
0.00018534
0.000186359
0.000186635
0.000187978
0.000101775
9.51003e-05
9.04619e-05
8.86215e-05
8.85486e-05
9.03179e-05
9.32047e-05
9.70199e-05
0.000101344
0.000106005
0.00011079
0.000115597
0.000120326
0.000124926
0.000129353
0.000133585
0.000137606
0.000141411
0.000144998
0.000148368
0.000151526
0.000154479
0.000157234
0.000159799
0.000162183
0.000164395
0.000166441
0.000168336
0.000170079
0.00017169
0.00017316
0.000174511
0.00017575
0.00017682
0.00017793
0.000178577
0.000179658
0.0001805
0.000180881
0.000182147
0.000112498
0.000105072
9.94087e-05
9.63227e-05
9.48733e-05
9.5243e-05
9.67828e-05
9.93673e-05
0.000102592
0.000106294
0.000110248
0.000114339
0.000118452
0.00012252
0.000126488
0.000130322
0.000133997
0.0001375
0.000140822
0.000143961
0.000146915
0.000149689
0.000152286
0.000154711
0.000156972
0.000159075
0.000161025
0.000162835
0.000164502
0.00016605
0.000167459
0.000168778
0.000169945
0.000171078
0.000171999
0.000173022
0.000173811
0.00017468
0.000175014
0.000176228
0.000122831
0.000114734
0.000108177
0.000104012
0.000101352
0.000100458
0.000100743
0.000102144
0.000104282
0.000107012
0.000110107
0.000113446
0.000116903
0.000120401
0.000123871
0.000127272
0.000130569
0.000133741
0.000136772
0.000139655
0.000142385
0.00014496
0.000147382
0.000149652
0.000151776
0.000153758
0.000155602
0.000157316
0.000158904
0.000160372
0.000161731
0.000162977
0.000164132
0.000165186
0.000166155
0.000167105
0.000167791
0.000168672
0.00016899
0.000170182
0.000132768
0.000124062
0.000116715
0.000111603
0.000107872
0.000105842
0.000104972
0.000105254
0.000106337
0.000108102
0.000110325
0.00011289
0.000115662
0.000118557
0.000121498
0.000124435
0.000127323
0.000130136
0.000132851
0.000135455
0.000137939
0.000140296
0.000142525
0.000144626
0.000146598
0.000148447
0.000150173
0.000151784
0.000153279
0.000154671
0.000155954
0.000157149
0.000158236
0.00015926
0.000160161
0.000161056
0.000161744
0.000162618
0.000162919
0.000164076
0.000142303
0.000133039
0.000124983
0.000119034
0.000114352
0.000111301
0.000109374
0.000108611
0.000108685
0.000109508
0.000110864
0.000112644
0.000114712
0.00011698
0.000119364
0.000121808
0.000124261
0.000126689
0.000129064
0.000131367
0.000133583
0.000135704
0.000137723
0.000139637
0.000141444
0.000143146
0.000144742
0.000146237
0.000147631
0.000148931
0.000150137
0.000151259
0.00015229
0.000153257
0.000154116
0.000154969
0.000155618
0.000156459
0.000156745
0.000157853
0.000151428
0.000141651
0.000132954
0.000126256
0.000120725
0.000116756
0.000113865
0.000112132
0.000111253
0.000111167
0.000111671
0.000112668
0.000114024
0.00011565
0.000117458
0.000119388
0.000121382
0.000123403
0.000125415
0.000127396
0.000129326
0.000131192
0.000132984
0.000134696
0.000136324
0.000137865
0.000139319
0.000140688
0.000141969
0.00014317
0.000144286
0.000145331
0.00014629
0.000147196
0.000148001
0.000148803
0.00014942
0.000150223
0.000150495
0.000151551
0.000160136
0.000149885
0.000140606
0.000133234
0.00012694
0.000122145
0.000118379
0.000115754
0.000113983
0.000113033
0.000112715