/*--------------------------------*- C++ -*----------------------------------*\
| =========                 |                                                 |
| \\      /  F ield         | OpenFOAM: The Open Source CFD Toolbox           |
|  \\    /   O peration     | Version:  v2012                                 |
|   \\  /    A nd           | Website:  www.openfoam.com                      |
|    \\/     M anipulation  |                                                 |
\*---------------------------------------------------------------------------*/
FoamFile
{
    version     2.0;
    format      ascii;
    class       volScalarField;
    location    "1";
    object      sigmaHyd;
}
// * * * * * * * * * * * * * * * * * * * * * * * * * * * * * * * * * * * * * //

dimensions      [1 -1 -2 0 0 0 0];


internalField   nonuniform List<scalar> 
16000
(
2.50823e+07
2.44267e+07
2.39464e+07
2.33729e+07
2.29024e+07
2.23907e+07
2.19385e+07
2.14738e+07
2.10445e+07
2.06166e+07
2.02114e+07
1.98136e+07
1.9432e+07
1.90598e+07
1.87003e+07
1.83505e+07
1.80112e+07
1.76811e+07
1.73603e+07
1.70479e+07
1.67437e+07
1.64471e+07
1.61578e+07
1.58755e+07
1.55997e+07
1.53302e+07
1.50665e+07
1.48085e+07
1.45557e+07
1.4308e+07
1.4065e+07
1.38267e+07
1.35925e+07
1.33623e+07
1.31361e+07
1.29132e+07
1.2694e+07
1.24774e+07
1.22646e+07
1.20534e+07
2.50413e+07
2.43874e+07
2.39086e+07
2.33367e+07
2.28675e+07
2.23573e+07
2.19063e+07
2.14429e+07
2.10147e+07
2.0588e+07
2.01839e+07
1.97871e+07
1.94066e+07
1.90354e+07
1.86768e+07
1.83279e+07
1.79896e+07
1.76604e+07
1.73404e+07
1.70288e+07
1.67254e+07
1.64297e+07
1.61412e+07
1.58597e+07
1.55846e+07
1.53159e+07
1.50529e+07
1.47957e+07
1.45436e+07
1.42966e+07
1.40543e+07
1.38165e+07
1.35831e+07
1.33535e+07
1.3128e+07
1.29058e+07
1.26873e+07
1.24714e+07
1.22594e+07
1.20488e+07
2.49593e+07
2.43092e+07
2.38331e+07
2.32644e+07
2.27979e+07
2.22905e+07
2.18421e+07
2.13812e+07
2.09553e+07
2.05309e+07
2.01289e+07
1.97343e+07
1.93558e+07
1.89866e+07
1.86299e+07
1.82828e+07
1.79463e+07
1.76188e+07
1.73005e+07
1.69906e+07
1.66888e+07
1.63946e+07
1.61077e+07
1.58276e+07
1.5554e+07
1.52867e+07
1.50251e+07
1.47693e+07
1.45184e+07
1.42731e+07
1.40317e+07
1.37959e+07
1.35637e+07
1.33359e+07
1.31117e+07
1.2891e+07
1.2674e+07
1.24595e+07
1.2249e+07
1.20398e+07
2.48368e+07
2.41922e+07
2.37204e+07
2.31564e+07
2.26939e+07
2.21907e+07
2.1746e+07
2.12888e+07
2.08665e+07
2.04455e+07
2.00468e+07
1.96553e+07
1.92798e+07
1.89135e+07
1.85597e+07
1.82154e+07
1.78815e+07
1.75567e+07
1.7241e+07
1.69335e+07
1.66342e+07
1.63424e+07
1.60578e+07
1.57802e+07
1.55089e+07
1.52441e+07
1.49845e+07
1.47314e+07
1.44823e+07
1.42394e+07
1.39998e+07
1.37649e+07
1.35355e+07
1.33089e+07
1.30874e+07
1.28683e+07
1.26538e+07
1.24412e+07
1.22329e+07
1.20257e+07
2.46743e+07
2.40369e+07
2.35707e+07
2.3013e+07
2.25558e+07
2.20582e+07
2.16184e+07
2.11663e+07
2.07485e+07
2.0332e+07
1.99376e+07
1.95504e+07
1.91789e+07
1.88165e+07
1.84665e+07
1.81258e+07
1.77955e+07
1.74741e+07
1.71617e+07
1.68575e+07
1.65614e+07
1.62726e+07
1.59912e+07
1.57164e+07
1.54481e+07
1.51858e+07
1.49291e+07
1.46783e+07
1.44313e+07
1.41917e+07
1.39504e+07
1.37242e+07
1.34961e+07
1.32741e+07
1.30549e+07
1.2839e+07
1.26271e+07
1.24173e+07
1.22119e+07
1.20071e+07
2.44724e+07
2.3844e+07
2.33847e+07
2.28349e+07
2.23842e+07
2.18934e+07
2.14598e+07
2.10138e+07
2.06018e+07
2.01909e+07
1.98019e+07
1.94198e+07
1.90533e+07
1.86957e+07
1.83503e+07
1.80141e+07
1.76882e+07
1.73711e+07
1.70628e+07
1.67627e+07
1.64705e+07
1.61858e+07
1.59081e+07
1.56375e+07
1.53726e+07
1.51151e+07
1.48615e+07
1.46171e+07
1.43721e+07
1.41429e+07
1.39016e+07
1.3665e+07
1.34493e+07
1.32263e+07
1.30137e+07
1.27999e+07
1.25925e+07
1.23857e+07
1.21842e+07
1.19826e+07
2.4232e+07
2.36143e+07
2.31633e+07
2.26226e+07
2.21797e+07
2.16971e+07
2.12708e+07
2.08321e+07
2.04269e+07
2.00227e+07
1.964e+07
1.92641e+07
1.89034e+07
1.85516e+07
1.82117e+07
1.78809e+07
1.75602e+07
1.72482e+07
1.69449e+07
1.66496e+07
1.63623e+07
1.6082e+07
1.58094e+07
1.55425e+07
1.52836e+07
1.50282e+07
1.47831e+07
1.45367e+07
1.43074e+07
1.40651e+07
1.38128e+07
1.36125e+07
1.3402e+07
1.31773e+07
1.2969e+07
1.27566e+07
1.25533e+07
1.23493e+07
1.2152e+07
1.19536e+07
2.39541e+07
2.33487e+07
2.29071e+07
2.23771e+07
2.19431e+07
2.14699e+07
2.1052e+07
2.06217e+07
2.02243e+07
1.98278e+07
1.94523e+07
1.90835e+07
1.87296e+07
1.83844e+07
1.80508e+07
1.77262e+07
1.74114e+07
1.71051e+07
1.68075e+07
1.65176e+07
1.62355e+07
1.59604e+07
1.56924e+07
1.54304e+07
1.51754e+07
1.49249e+07
1.46821e+07
1.44408e+07
1.42104e+07
1.39743e+07
1.37588e+07
1.35477e+07
1.33251e+07
1.31165e+07
1.29066e+07
1.27032e+07
1.25024e+07
1.23046e+07
1.21113e+07
1.19178e+07
2.36399e+07
2.30482e+07
2.26172e+07
2.20992e+07
2.16753e+07
2.12127e+07
2.08041e+07
2.03834e+07
1.99948e+07
1.9607e+07
1.92397e+07
1.88788e+07
1.85326e+07
1.81948e+07
1.78685e+07
1.75508e+07
1.72428e+07
1.69431e+07
1.66519e+07
1.63683e+07
1.60923e+07
1.58233e+07
1.55612e+07
1.53053e+07
1.50557e+07
1.48117e+07
1.45732e+07
1.43401e+07
1.41108e+07
1.38886e+07
1.36645e+07
1.3456e+07
1.3245e+07
1.30403e+07
1.28383e+07
1.26394e+07
1.24449e+07
1.22519e+07
1.20644e+07
1.18755e+07
2.32905e+07
2.27141e+07
2.22948e+07
2.179e+07
2.13772e+07
2.09263e+07
2.05282e+07
2.0118e+07
1.9739e+07
1.93608e+07
1.90026e+07
1.86506e+07
1.83128e+07
1.79832e+07
1.76647e+07
1.73548e+07
1.70542e+07
1.67617e+07
1.64775e+07
1.62008e+07
1.59314e+07
1.56689e+07
1.54132e+07
1.51635e+07
1.49201e+07
1.46821e+07
1.44499e+07
1.42225e+07
1.40006e+07
1.37832e+07
1.35705e+07
1.33632e+07
1.31583e+07
1.29586e+07
1.27618e+07
1.25686e+07
1.23796e+07
1.21921e+07
1.20104e+07
1.18268e+07
2.29074e+07
2.23476e+07
2.19411e+07
2.14507e+07
2.105e+07
2.06118e+07
2.0225e+07
1.98263e+07
1.9458e+07
1.90902e+07
1.87418e+07
1.83995e+07
1.80709e+07
1.77503e+07
1.74405e+07
1.7139e+07
1.68466e+07
1.65621e+07
1.62856e+07
1.60164e+07
1.57545e+07
1.54992e+07
1.52505e+07
1.50079e+07
1.47711e+07
1.45402e+07
1.43142e+07
1.4094e+07
1.38775e+07
1.36671e+07
1.34595e+07
1.32575e+07
1.30595e+07
1.28651e+07
1.26752e+07
1.24877e+07
1.23053e+07
1.21236e+07
1.19485e+07
1.17703e+07
2.2492e+07
2.19501e+07
2.15573e+07
2.10824e+07
2.06947e+07
2.02702e+07
1.98957e+07
1.95093e+07
1.91524e+07
1.87959e+07
1.84582e+07
1.81262e+07
1.78076e+07
1.74967e+07
1.71962e+07
1.69037e+07
1.66201e+07
1.63441e+07
1.60759e+07
1.58148e+07
1.55608e+07
1.53132e+07
1.50721e+07
1.48368e+07
1.46074e+07
1.43834e+07
1.41645e+07
1.3951e+07
1.37409e+07
1.35378e+07
1.33336e+07
1.31424e+07
1.295e+07
1.27634e+07
1.25797e+07
1.23989e+07
1.22229e+07
1.20476e+07
1.18792e+07
1.17069e+07
2.2046e+07
2.15231e+07
2.11449e+07
2.06865e+07
2.03127e+07
1.99028e+07
1.95413e+07
1.91681e+07
1.88234e+07
1.84789e+07
1.81526e+07
1.78317e+07
1.75237e+07
1.72231e+07
1.69326e+07
1.66497e+07
1.63755e+07
1.61086e+07
1.58493e+07
1.55969e+07
1.53513e+07
1.51121e+07
1.4879e+07
1.46519e+07
1.44301e+07
1.42144e+07
1.40028e+07
1.37983e+07
1.3595e+07
1.34028e+07
1.32048e+07
1.3011e+07
1.28316e+07
1.26486e+07
1.2474e+07
1.2299e+07
1.21308e+07
1.19618e+07
1.18009e+07
1.16347e+07
2.1571e+07
2.10681e+07
2.07053e+07
2.02644e+07
1.99052e+07
1.95108e+07
1.91631e+07
1.88038e+07
1.84719e+07
1.81401e+07
1.78258e+07
1.75167e+07
1.722e+07
1.69302e+07
1.66502e+07
1.63776e+07
1.61133e+07
1.58561e+07
1.56062e+07
1.53629e+07
1.51263e+07
1.48958e+07
1.46715e+07
1.44524e+07
1.42398e+07
1.4031e+07
1.383e+07
1.36296e+07
1.34416e+07
1.32463e+07
1.30371e+07
1.28799e+07
1.27087e+07
1.2529e+07
1.23619e+07
1.21923e+07
1.20314e+07
1.18686e+07
1.17151e+07
1.15549e+07
2.10687e+07
2.05869e+07
2.02401e+07
1.98175e+07
1.94736e+07
1.90954e+07
1.87621e+07
1.84174e+07
1.80991e+07
1.77806e+07
1.7479e+07
1.71821e+07
1.68972e+07
1.66189e+07
1.635e+07
1.60881e+07
1.58341e+07
1.5587e+07
1.53469e+07
1.51132e+07
1.48858e+07
1.46643e+07
1.44487e+07
1.42382e+07
1.40336e+07
1.3833e+07
1.36386e+07
1.34464e+07
1.32624e+07
1.30761e+07
1.29039e+07
1.27351e+07
1.25614e+07
1.23967e+07
1.22334e+07
1.2074e+07
1.19194e+07
1.17648e+07
1.16186e+07
1.14655e+07
2.0541e+07
2.00809e+07
1.97509e+07
1.93473e+07
1.90194e+07
1.8658e+07
1.83398e+07
1.80103e+07
1.7706e+07
1.74015e+07
1.71129e+07
1.68289e+07
1.65563e+07
1.62899e+07
1.60326e+07
1.57819e+07
1.55388e+07
1.53022e+07
1.50724e+07
1.48486e+07
1.4631e+07
1.44191e+07
1.42127e+07
1.40115e+07
1.38156e+07
1.36244e+07
1.34377e+07
1.32559e+07
1.30771e+07
1.29048e+07
1.2731e+07
1.25702e+07
1.24077e+07
1.22506e+07
1.20966e+07
1.19447e+07
1.17986e+07
1.16513e+07
1.15133e+07
1.13669e+07
1.99896e+07
1.9552e+07
1.92393e+07
1.88553e+07
1.85439e+07
1.82e+07
1.78973e+07
1.75835e+07
1.72939e+07
1.70037e+07
1.67288e+07
1.64581e+07
1.61982e+07
1.59442e+07
1.56988e+07
1.54597e+07
1.52279e+07
1.50022e+07
1.4783e+07
1.45696e+07
1.43622e+07
1.416e+07
1.39634e+07
1.37715e+07
1.35852e+07
1.34026e+07
1.32258e+07
1.30518e+07
1.28835e+07
1.27179e+07
1.25576e+07
1.24004e+07
1.22471e+07
1.20967e+07
1.19509e+07
1.18064e+07
1.16682e+07
1.15284e+07
1.13986e+07
1.1259e+07
1.94163e+07
1.90019e+07
1.87069e+07
1.83432e+07
1.80487e+07
1.77227e+07
1.7436e+07
1.71385e+07
1.68638e+07
1.65885e+07
1.63276e+07
1.60706e+07
1.58238e+07
1.55827e+07
1.53495e+07
1.51224e+07
1.49021e+07
1.46877e+07
1.44794e+07
1.42767e+07
1.40795e+07
1.38875e+07
1.37007e+07
1.35186e+07
1.33413e+07
1.31684e+07
1.3e+07
1.28358e+07
1.26754e+07
1.25194e+07
1.23666e+07
1.22182e+07
1.20731e+07
1.19311e+07
1.17936e+07
1.16571e+07
1.15273e+07
1.13952e+07
1.12737e+07
1.11411e+07
1.88231e+07
1.84324e+07
1.81555e+07
1.78124e+07
1.75352e+07
1.72276e+07
1.69573e+07
1.66764e+07
1.64171e+07
1.6157e+07
1.59105e+07
1.56675e+07
1.54342e+07
1.52061e+07
1.49856e+07
1.47708e+07
1.45624e+07
1.43595e+07
1.41625e+07
1.39707e+07
1.37844e+07
1.36026e+07
1.34265e+07
1.32538e+07
1.30879e+07
1.2923e+07
1.27684e+07
1.26088e+07
1.24593e+07
1.23102e+07
1.21673e+07
1.20263e+07
1.18903e+07
1.1756e+07
1.1627e+07
1.14984e+07
1.13768e+07
1.12524e+07
1.11393e+07
1.10136e+07
1.82119e+07
1.78452e+07
1.75866e+07
1.72646e+07
1.70051e+07
1.67162e+07
1.64626e+07
1.61985e+07
1.59549e+07
1.57103e+07
1.54785e+07
1.52499e+07
1.50303e+07
1.48156e+07
1.4608e+07
1.44057e+07
1.42094e+07
1.40184e+07
1.38328e+07
1.36521e+07
1.34764e+07
1.33054e+07
1.3139e+07
1.2977e+07
1.28192e+07
1.26655e+07
1.25159e+07
1.23705e+07
1.22282e+07
1.20899e+07
1.19551e+07
1.18235e+07
1.16957e+07
1.15701e+07
1.14495e+07
1.13291e+07
1.12159e+07
1.10993e+07
1.09946e+07
1.08759e+07
1.75844e+07
1.72421e+07
1.70021e+07
1.67013e+07
1.64597e+07
1.61898e+07
1.59531e+07
1.57062e+07
1.54785e+07
1.52497e+07
1.50328e+07
1.48188e+07
1.46132e+07
1.4412e+07
1.42175e+07
1.40279e+07
1.38439e+07
1.36648e+07
1.34908e+07
1.33214e+07
1.31565e+07
1.29962e+07
1.28396e+07
1.26879e+07
1.2538e+07
1.23955e+07
1.22868e+07
1.21192e+07
1.19853e+07
1.18581e+07
1.17322e+07
1.16099e+07
1.14911e+07
1.13741e+07
1.12621e+07
1.11498e+07
1.10451e+07
1.09363e+07
1.08401e+07
1.07284e+07
1.69425e+07
1.66248e+07
1.64035e+07
1.61243e+07
1.59006e+07
1.56498e+07
1.54303e+07
1.52008e+07
1.49892e+07
1.47763e+07
1.45745e+07
1.43752e+07
1.41838e+07
1.39964e+07
1.38152e+07
1.36385e+07
1.34671e+07
1.33002e+07
1.3138e+07
1.29802e+07
1.28268e+07
1.26775e+07
1.25322e+07
1.23908e+07
1.22532e+07
1.21193e+07
1.19889e+07
1.18622e+07
1.17388e+07
1.16186e+07
1.15018e+07
1.13876e+07
1.12774e+07
1.11686e+07
1.1065e+07
1.09609e+07
1.08645e+07
1.07634e+07
1.06757e+07
1.05708e+07
1.6288e+07
1.5995e+07
1.57925e+07
1.55349e+07
1.53293e+07
1.50979e+07
1.48955e+07
1.46835e+07
1.44882e+07
1.42913e+07
1.41047e+07
1.39204e+07
1.37432e+07
1.35697e+07
1.34019e+07
1.32382e+07
1.30794e+07
1.29248e+07
1.27746e+07
1.26283e+07
1.24864e+07
1.23479e+07
1.22139e+07
1.20825e+07
1.19568e+07
1.18313e+07
1.17153e+07
1.15935e+07
1.1481e+07
1.13682e+07
1.12611e+07
1.11551e+07
1.10538e+07
1.09533e+07
1.08583e+07
1.07621e+07
1.06741e+07
1.05808e+07
1.05014e+07
1.04034e+07
1.56227e+07
1.53544e+07
1.51707e+07
1.49347e+07
1.47473e+07
1.45352e+07
1.43501e+07
1.41557e+07
1.39766e+07
1.37959e+07
1.36246e+07
1.34552e+07
1.32924e+07
1.31328e+07
1.29785e+07
1.28279e+07
1.26818e+07
1.25395e+07
1.24012e+07
1.22666e+07
1.21358e+07
1.20085e+07
1.18848e+07
1.17643e+07
1.16473e+07
1.15333e+07
1.14227e+07
1.13149e+07
1.12104e+07
1.11084e+07
1.10097e+07
1.09131e+07
1.08203e+07
1.07284e+07
1.06418e+07
1.05539e+07
1.04742e+07
1.03885e+07
1.03174e+07
1.02262e+07
1.49484e+07
1.47046e+07
1.45397e+07
1.43253e+07
1.4156e+07
1.39632e+07
1.37954e+07
1.36185e+07
1.34558e+07
1.32912e+07
1.31352e+07
1.29808e+07
1.28324e+07
1.26868e+07
1.2546e+07
1.24086e+07
1.22752e+07
1.21453e+07
1.20191e+07
1.18962e+07
1.17768e+07
1.16605e+07
1.15478e+07
1.14377e+07
1.13313e+07
1.12271e+07
1.11268e+07
1.1028e+07
1.09331e+07
1.08399e+07
1.07503e+07
1.06623e+07
1.05782e+07
1.04947e+07
1.04165e+07
1.03365e+07
1.02651e+07
1.0187e+07
1.01241e+07
1.00396e+07
1.42666e+07
1.40473e+07
1.39009e+07
1.37081e+07
1.35569e+07
1.33833e+07
1.32327e+07
1.30733e+07
1.29268e+07
1.27784e+07
1.26377e+07
1.24983e+07
1.23642e+07
1.22326e+07
1.21053e+07
1.1981e+07
1.18603e+07
1.17427e+07
1.16284e+07
1.15172e+07
1.14091e+07
1.13039e+07
1.12017e+07
1.11023e+07
1.10058e+07
1.09119e+07
1.08207e+07
1.07321e+07
1.06462e+07
1.05625e+07
1.04817e+07
1.04026e+07
1.03271e+07
1.02521e+07
1.01822e+07
1.01102e+07
1.00469e+07
9.97641e+06
9.9216e+06
9.84368e+06
1.3579e+07
1.3384e+07
1.3256e+07
1.30846e+07
1.29512e+07
1.27968e+07
1.26633e+07
1.25213e+07
1.2391e+07
1.22586e+07
1.21331e+07
1.20086e+07
1.18888e+07
1.17713e+07
1.16574e+07
1.15462e+07
1.14381e+07
1.13329e+07
1.12306e+07
1.1131e+07
1.10343e+07
1.09401e+07
1.08487e+07
1.07597e+07
1.06734e+07
1.05894e+07
1.0508e+07
1.04288e+07
1.03522e+07
1.02775e+07
1.02056e+07
1.01351e+07
1.00682e+07
1.00014e+07
9.93969e+06
9.87562e+06
9.82031e+06
9.75725e+06
9.71038e+06
9.63896e+06
1.28871e+07
1.27161e+07
1.26063e+07
1.2456e+07
1.23403e+07
1.22049e+07
1.20883e+07
1.19637e+07
1.18494e+07
1.17329e+07
1.16226e+07
1.15129e+07
1.14073e+07
1.13036e+07
1.12031e+07
1.11048e+07
1.10094e+07
1.09164e+07
1.0826e+07
1.0738e+07
1.06524e+07
1.05692e+07
1.04884e+07
1.04098e+07
1.03336e+07
1.02595e+07
1.01877e+07
1.01179e+07
1.00505e+07
9.98482e+06
9.92175e+06
9.85987e+06
9.80132e+06
9.74271e+06
9.68917e+06
9.6329e+06
9.58549e+06
9.52976e+06
9.49069e+06
9.42568e+06
1.21924e+07
1.20451e+07
1.19532e+07
1.18238e+07
1.17256e+07
1.16089e+07
1.15091e+07
1.14015e+07
1.13031e+07
1.12024e+07
1.11071e+07
1.1012e+07
1.09206e+07
1.08306e+07
1.07434e+07
1.0658e+07
1.05751e+07
1.04943e+07
1.04157e+07
1.03391e+07
1.02647e+07
1.01924e+07
1.01222e+07
1.00539e+07
9.98768e+06
9.92338e+06
9.86113e+06
9.80066e+06
9.74233e+06
9.68551e+06
9.63113e+06
9.5777e+06
9.52747e+06
9.47692e+06
9.43139e+06
9.38276e+06
9.34311e+06
9.2946e+06
9.26314e+06
9.20444e+06
1.14963e+07
1.13723e+07
1.1298e+07
1.11892e+07
1.11082e+07
1.101e+07
1.09267e+07
1.0836e+07
1.07533e+07
1.06682e+07
1.05876e+07
1.05071e+07
1.04296e+07
1.03532e+07
1.02791e+07
1.02065e+07
1.0136e+07
1.00672e+07
1.00002e+07
9.93506e+06
9.8717e+06
9.81011e+06
9.7503e+06
9.69223e+06
9.63593e+06
9.58131e+06
9.52848e+06
9.47721e+06
9.42785e+06
9.3798e+06
9.33398e+06
9.28891e+06
9.24686e+06
9.20427e+06
9.16659e+06
9.12551e+06
9.09346e+06
9.05203e+06
9.02803e+06
8.97553e+06
1.08002e+07
1.0699e+07
1.0642e+07
1.05534e+07
1.04893e+07
1.04093e+07
1.03422e+07
1.02682e+07
1.02009e+07
1.01312e+07
1.00653e+07
9.99907e+06
9.93533e+06
9.87233e+06
9.8112e+06
9.75126e+06
9.69294e+06
9.636e+06
9.5806e+06
9.52664e+06
9.4742e+06
9.42321e+06
9.37374e+06
9.32572e+06
9.27922e+06
9.23414e+06
9.19062e+06
9.14842e+06
9.10792e+06
9.0685e+06
9.03112e+06
8.99426e+06
8.96028e+06
8.9255e+06
8.89555e+06
8.86188e+06
8.83729e+06
8.80283e+06
8.78611e+06
8.73973e+06
1.01052e+07
1.00265e+07
9.98633e+06
9.91754e+06
9.87001e+06
9.80787e+06
9.75682e+06
9.69909e+06
9.64703e+06
9.59243e+06
9.54089e+06
9.48882e+06
9.43864e+06
9.38886e+06
9.34051e+06
9.29299e+06
9.24673e+06
9.2015e+06
9.15747e+06
9.11457e+06
9.07288e+06
9.03236e+06
8.99307e+06
8.95496e+06
8.91811e+06
8.88242e+06
8.84806e+06
8.81479e+06
8.78299e+06
8.75206e+06
8.72296e+06
8.69416e+06
8.66809e+06
8.64097e+06
8.61859e+06
8.59217e+06
8.57486e+06
8.54723e+06
8.53758e+06
8.49721e+06
9.41263e+06
9.35582e+06
9.33213e+06
9.28277e+06
9.25146e+06
9.20684e+06
9.17143e+06
9.12974e+06
9.09261e+06
9.05287e+06
9.01545e+06
8.97724e+06
8.9404e+06
8.90363e+06
8.86784e+06
8.83256e+06
8.79815e+06
8.76445e+06
8.73162e+06
8.69961e+06
8.6685e+06
8.63827e+06
8.60899e+06
8.58063e+06
8.55327e+06
8.52683e+06
8.50148e+06
8.47698e+06
8.45374e+06
8.43115e+06
8.4102e+06
8.38934e+06
8.37103e+06
8.35146e+06
8.33651e+06
8.31726e+06
8.3071e+06
8.28621e+06
8.28351e+06
8.24912e+06
8.7235e+06
8.68811e+06
8.68048e+06
8.65011e+06
8.63465e+06
8.60717e+06
8.5871e+06
8.56112e+06
8.53861e+06
8.51344e+06
8.48989e+06
8.46529e+06
8.44153e+06
8.41753e+06
8.39409e+06
8.37082e+06
8.34806e+06
8.32569e+06
8.30386e+06
8.28254e+06
8.26183e+06
8.24172e+06
8.22228e+06
8.2035e+06
8.18546e+06
8.16809e+06
8.15157e+06
8.13568e+06
8.12083e+06
8.1064e+06
8.09342e+06
8.0803e+06
8.06957e+06
8.05735e+06
8.04962e+06
8.03732e+06
8.03406e+06
8.01971e+06
8.02368e+06
7.99512e+06
8.03887e+06
8.02435e+06
8.03236e+06
8.02052e+06
8.02051e+06
8.00978e+06
8.00467e+06
7.99406e+06
7.98585e+06
7.97495e+06
7.96495e+06
7.95369e+06
7.94274e+06
7.93126e+06
7.91991e+06
7.90843e+06
7.89709e+06
7.88583e+06
7.87478e+06
7.86396e+06
7.85344e+06
7.84325e+06
7.83345e+06
7.82404e+06
7.81513e+06
7.80665e+06
7.79878e+06
7.79131e+06
7.78466e+06
7.77824e+06
7.77306e+06
7.76757e+06
7.76428e+06
7.75933e+06
7.75872e+06
7.75336e+06
7.75697e+06
7.74922e+06
7.75985e+06
7.73723e+06
7.3597e+06
7.36551e+06
7.38873e+06
7.39496e+06
7.41002e+06
7.41563e+06
7.42514e+06
7.42955e+06
7.43532e+06
7.43837e+06
7.44164e+06
7.44343e+06
7.44503e+06
7.44581e+06
7.44632e+06
7.44637e+06
7.44622e+06
7.44584e+06
7.44536e+06
7.44482e+06
7.4443e+06
7.44383e+06
7.44348e+06
7.44328e+06
7.44332e+06
7.44356e+06
7.44417e+06
7.44496e+06
7.44635e+06
7.44775e+06
7.45018e+06
7.45211e+06
7.45601e+06
7.45808e+06
7.46429e+06
7.46554e+06
7.47562e+06
7.47405e+06
7.49089e+06
7.47379e+06
6.68688e+06
6.71246e+06
6.75042e+06
6.77423e+06
6.80393e+06
6.82546e+06
6.84918e+06
6.86823e+06
6.88762e+06
6.90427e+06
6.92048e+06
6.93502e+06
6.94885e+06
6.96163e+06
6.97368e+06
6.98506e+06
6.99579e+06
7.00611e+06
7.01592e+06
7.02547e+06
7.03467e+06
7.04371e+06
7.05256e+06
7.06133e+06
7.07005e+06
7.07876e+06
7.08758e+06
7.09639e+06
7.10552e+06
7.11453e+06
7.12428e+06
7.13347e+06
7.14432e+06
7.15339e+06
7.16623e+06
7.17433e+06
7.19085e+06
7.19604e+06
7.21936e+06
7.20862e+06
6.02125e+06
6.06604e+06
6.11832e+06
6.15924e+06
6.20319e+06
6.24023e+06
6.27782e+06
6.31115e+06
6.34385e+06
6.3738e+06
6.40266e+06
6.42966e+06
6.45546e+06
6.47996e+06
6.50331e+06
6.52571e+06
6.54713e+06
6.56777e+06
6.58775e+06
6.60705e+06
6.62587e+06
6.64417e+06
6.66212e+06
6.67968e+06
6.697e+06
6.71406e+06
6.731e+06
6.74774e+06
6.76456e+06
6.78109e+06
6.7981e+06
6.81444e+06
6.83211e+06
6.84796e+06
6.86718e+06
6.88162e+06
6.90415e+06
6.915e+06
6.94419e+06
6.93772e+06
5.36359e+06
5.427e+06
5.49313e+06
5.55063e+06
5.60838e+06
5.66045e+06
5.71148e+06
5.75867e+06
5.80426e+06
5.84714e+06
5.88823e+06
5.9274e+06
5.96474e+06
6.00076e+06
6.03495e+06
6.06833e+06
6.0999e+06
6.13103e+06
6.16059e+06
6.18972e+06
6.21765e+06
6.24513e+06
6.27171e+06
6.29784e+06
6.32333e+06
6.3484e+06
6.37301e+06
6.39725e+06
6.42119e+06
6.4448e+06
6.46832e+06
6.4914e+06
6.51486e+06
6.5374e+06
6.56153e+06
6.58312e+06
6.60957e+06
6.62887e+06
6.66154e+06
6.66535e+06
4.71456e+06
4.79606e+06
4.87561e+06
4.94926e+06
5.02042e+06
5.08718e+06
5.15131e+06
5.21204e+06
5.27025e+06
5.32576e+06
5.3789e+06
5.42995e+06
5.47869e+06
5.52595e+06
5.57087e+06
5.61478e+06
5.65646e+06
5.69678e+06
5.73652e+06
5.77453e+06
5.81197e+06
5.84808e+06
5.88352e+06
5.91798e+06
5.95177e+06
5.98483e+06
6.01727e+06
6.04917e+06
6.08052e+06
6.11151e+06
6.14203e+06
6.1723e+06
6.20232e+06
6.23199e+06
6.26213e+06
6.29092e+06
6.3228e+06
6.34923e+06
6.38705e+06
6.39778e+06
4.07497e+06
4.17393e+06
4.2664e+06
4.35562e+06
4.43972e+06
4.5206e+06
4.59738e+06
4.67113e+06
4.7415e+06
4.80925e+06
4.87385e+06
4.93652e+06
4.99593e+06
5.05438e+06
5.10898e+06
5.16401e+06
5.21408e+06
5.26628e+06
5.31392e+06
5.36229e+06
5.40771e+06
5.45299e+06
5.4963e+06
5.53907e+06
5.58042e+06
5.62111e+06
5.66063e+06
5.69958e+06
5.73732e+06
5.77484e+06
5.8107e+06
5.84714e+06
5.88062e+06
5.91658e+06
5.94635e+06
5.98306e+06
6.00616e+06
6.0461e+06
6.05636e+06
6.13064e+06
3.44514e+06
3.56111e+06
3.66609e+06
3.77052e+06
3.86716e+06
3.96193e+06
4.05101e+06
4.13763e+06
4.21998e+06
4.29962e+06
4.37576e+06
4.44969e+06
4.52009e+06
4.58967e+06
4.65443e+06
4.72184e+06
4.77978e+06
4.83513e+06
4.89698e+06
4.95184e+06
5.00786e+06
5.06068e+06
5.11296e+06
5.16344e+06
5.2129e+06
5.26117e+06
5.30827e+06
5.35459e+06
5.39953e+06
5.44429e+06
5.48702e+06
5.53076e+06
5.57076e+06
5.6145e+06
5.65029e+06
5.69603e+06
5.72423e+06
5.776e+06
5.7895e+06
5.88945e+06
2.82609e+06
2.9584e+06
3.07539e+06
3.1944e+06
3.30312e+06
3.41099e+06
3.51201e+06
3.61046e+06
3.70454e+06
3.7957e+06
3.88262e+06
3.96762e+06
4.04785e+06
4.12792e+06
4.2016e+06
4.27838e+06
4.32746e+06
4.4183e+06
4.48169e+06
4.54876e+06
4.61023e+06
4.67263e+06
4.73168e+06
4.7904e+06
4.84688e+06
4.90262e+06
4.95657e+06
5.00987e+06
5.06131e+06
5.11272e+06
5.16149e+06
5.21185e+06
5.25731e+06
5.30818e+06
5.34861e+06
5.40317e+06
5.43478e+06
5.49939e+06
5.51468e+06
5.63834e+06
2.21769e+06
2.36594e+06
2.49444e+06
2.62782e+06
2.74797e+06
2.86926e+06
2.98136e+06
3.09259e+06
3.1982e+06
3.29975e+06
3.39805e+06
3.49208e+06
3.58391e+06
3.67084e+06
3.75767e+06
3.83653e+06
3.92105e+06
4.00247e+06
4.07426e+06
4.14877e+06
4.21872e+06
4.28849e+06
4.35554e+06
4.42157e+06
4.48557e+06
4.54843e+06
4.60949e+06
4.66968e+06
4.72788e+06
4.78599e+06
4.8412e+06
4.89811e+06
4.94964e+06
5.00706e+06
5.05305e+06
5.1144e+06
5.15072e+06
5.22272e+06
5.24113e+06
5.37428e+06
1.621e+06
1.78483e+06
1.92449e+06
2.07179e+06
2.20314e+06
2.33645e+06
2.45989e+06
2.57895e+06
2.69798e+06
2.81115e+06
2.91927e+06
3.02496e+06
3.12528e+06
3.22416e+06
3.31763e+06
3.41078e+06
3.49763e+06
3.58618e+06
3.66871e+06
3.75135e+06
3.82986e+06
3.90754e+06
3.98226e+06
4.05575e+06
4.1269e+06
4.19679e+06
4.2646e+06
4.33143e+06
4.39602e+06
4.46045e+06
4.5217e+06
4.58471e+06
4.64194e+06
4.70534e+06
4.75666e+06
4.82398e+06
4.86517e+06
4.94316e+06
4.96585e+06
5.10433e+06
1.0361e+06
1.21461e+06
1.36478e+06
1.52545e+06
1.66648e+06
1.81362e+06
1.94263e+06
2.08161e+06
2.21385e+06
2.33174e+06
2.4516e+06
2.56461e+06
2.67576e+06
2.78234e+06
2.88647e+06
2.98674e+06
3.08472e+06
3.17982e+06
3.27149e+06
3.36121e+06
3.44786e+06
3.53267e+06
3.6149e+06
3.69534e+06
3.77353e+06
3.85012e+06
3.92457e+06
3.99782e+06
4.06871e+06
4.13927e+06
4.20648e+06
4.27532e+06
4.33818e+06
4.4071e+06
4.46371e+06
4.53619e+06
4.5823e+06
4.66495e+06
4.69223e+06
4.83364e+06
462628
657001
817651
993549
1.14433e+06
1.30877e+06
1.44556e+06
1.59114e+06
1.72586e+06
1.8677e+06
1.98803e+06
2.11551e+06
2.23236e+06
2.34995e+06
2.46112e+06
2.57099e+06
2.67609e+06
2.77944e+06
2.87886e+06
2.97628e+06
3.07046e+06
3.16258e+06
3.25194e+06
3.33931e+06
3.42425e+06
3.5074e+06
3.58823e+06
3.6677e+06
3.74463e+06
3.82107e+06
3.89401e+06
3.96841e+06
4.0367e+06
4.11085e+06
4.17262e+06
4.24991e+06
4.301e+06
4.38787e+06
4.42011e+06
4.56361e+06
-96236.1
110344
282680
467648
633289
799903
960658
1.10894e+06
1.24906e+06
1.39818e+06
1.53338e+06
1.66897e+06
1.79707e+06
1.92285e+06
2.04366e+06
2.16143e+06
2.27531e+06
2.38618e+06
2.49362e+06
2.59828e+06
2.69989e+06
2.79894e+06
2.89527e+06
2.98926e+06
3.08076e+06
3.17022e+06
3.25725e+06
3.34272e+06
3.4255e+06
3.50762e+06
3.58611e+06
3.66585e+06
3.73941e+06
3.81852e+06
3.88532e+06
3.96713e+06
4.02312e+06
4.11388e+06
4.15112e+06
4.29622e+06
-642392
-422312
-241269
-43719.7
129462
308520
473096
634724
793056
946068
1.09218e+06
1.23526e+06
1.37217e+06
1.50605e+06
1.63489e+06
1.76059e+06
1.88207e+06
2.00047e+06
2.11522e+06
2.22703e+06
2.33562e+06
2.44147e+06
2.54444e+06
2.64489e+06
2.74268e+06
2.83826e+06
2.93126e+06
3.02252e+06
3.11096e+06
3.19855e+06
3.2824e+06
3.36729e+06
3.44595e+06
3.52985e+06
3.60158e+06
3.68773e+06
3.74858e+06
3.84304e+06
3.88535e+06
4.03177e+06
-1.17505e+06
-942505
-751540
-543032
-359453
-170256
4379.22
178021
341768
504177
658481
810059
955428
1.09735e+06
1.23432e+06
1.36767e+06
1.49683e+06
1.6225e+06
1.7445e+06
1.86322e+06
1.97864e+06
2.09107e+06
2.20048e+06
2.30717e+06
2.41106e+06
2.51256e+06
2.61133e+06
2.7082e+06
2.80211e+06
2.89498e+06
2.98402e+06
3.07387e+06
3.15747e+06
3.24598e+06
3.32246e+06
3.41277e+06
3.47836e+06
3.57635e+06
3.62367e+06
3.77114e+06
-1.69398e+06
-1.44907e+06
-1.24946e+06
-1.02975e+06
-837576
-637938
-454823
-271385
-97928.8
72683.2
235916
395393
548954
698534
843148
983848
1.12024e+06
1.25292e+06
1.38176e+06
1.50716e+06
1.62909e+06
1.74785e+06
1.86344e+06
1.97614e+06
2.08589e+06
2.19309e+06
2.29742e+06
2.39968e+06
2.49885e+06
2.59683e+06
2.69086e+06
2.78552e+06
2.8739e+06
2.96687e+06
3.04803e+06
3.14235e+06
3.21268e+06
3.314e+06
3.36639e+06
3.51462e+06
-2.19877e+06
-1.94199e+06
-1.73359e+06
-1.50326e+06
-1.30217e+06
-1.09276e+06
-900988
-708266
-526843
-347700
-176583
-9137.15
152104
309222
461204
609063
752469
891952
1.02746e+06
1.15932e+06
1.28757e+06
1.41247e+06
1.53405e+06
1.65258e+06
1.768e+06
1.88074e+06
1.99043e+06
2.09794e+06
2.20219e+06
2.30513e+06
2.40398e+06
2.5033e+06
2.59625e+06
2.69355e+06
2.77912e+06
2.87733e+06
2.95211e+06
3.0567e+06
3.11391e+06
3.26283e+06
-2.6892e+06
-2.42095e+06
-2.2043e+06
-1.96369e+06
-1.75425e+06
-1.53541e+06
-1.33535e+06
-1.13387e+06
-944233
-756998
-578003
-402937
-234223
-69875.2
89187.9
243920
394041
540056
681936
819997
954296
1.08508e+06
1.21239e+06
1.3365e+06
1.45736e+06
1.57538e+06
1.69021e+06
1.80272e+06
1.91183e+06
2.01951e+06
2.12293e+06
2.22677e+06
2.32406e+06
2.42564e+06
2.51549e+06
2.61761e+06
2.69732e+06
2.80458e+06
2.86704e+06
3.01597e+06
-3.16482e+06
-2.88554e+06
-2.66088e+06
-2.4104e+06
-2.19283e+06
-1.96498e+06
-1.75691e+06
-1.54706e+06
-1.3497e+06
-1.15463e+06
-968205
-785754
-609915
-438571
-272706
-111330
45267.7
197596
345635
489698
629847
766335
899206
1.02875e+06
1.15488e+06
1.27807e+06
1.39789e+06
1.51534e+06
1.62916e+06
1.74158e+06
1.8494e+06
1.95778e+06
2.05913e+06
2.16499e+06
2.25859e+06
2.36438e+06
2.44767e+06
2.55868e+06
2.62516e+06
2.77507e+06
-3.62548e+06
-3.33561e+06
-3.10329e+06
-2.84333e+06
-2.61798e+06
-2.38147e+06
-2.16571e+06
-1.94783e+06
-1.74298e+06
-1.54039e+06
-1.34677e+06
-1.15723e+06
-974520
-796459
-624060
-456310
-293504
-135125
18810.3
168615
314361
456293
594470
729165
860319
988373
1.11295e+06
1.23497e+06
1.35322e+06
1.46995e+06
1.58176e+06
1.69435e+06
1.79878e+06
1.90935e+06
2.00366e+06
2.11664e+06
2.20937e+06
2.31808e+06
2.39142e+06
2.53897e+06
-4.0708e+06
-3.77077e+06
-3.53109e+06
-3.26205e+06
-3.02922e+06
-2.78442e+06
-2.56128e+06
-2.33571e+06
-2.12371e+06
-1.9139e+06
-1.7134e+06
-1.51705e+06
-1.32776e+06
-1.14324e+06
-964573
-790689
-621912
-457704
-298089
-142740
8406.89
155617
298928
438659
574688
707579
836763
963503
1.08608e+06
1.20755e+06
1.32334e+06
1.44095e+06
1.54898e+06
1.6652e+06
1.76292e+06
1.89005e+06
1.96685e+06
2.0872e+06
2.15997e+06
2.31156e+06
-4.5006e+06
-4.19083e+06
-3.94411e+06
-3.66635e+06
-3.42637e+06
-3.17363e+06
-2.94341e+06
-2.71047e+06
-2.49159e+06
-2.27487e+06
-2.06776e+06
-1.86488e+06
-1.66929e+06
-1.47858e+06
-1.2939e+06
-1.11415e+06
-939658
-769876
-604829
-444189
-287877
-135651
12580.3
157050
297796
435116
568912
699658
826976
951721
1.07298e+06
1.19231e+06
1.30794e+06
1.42244e+06
1.53306e+06
1.64311e+06
1.73488e+06
1.85697e+06
1.93636e+06
2.08706e+06
-4.91459e+06
-4.59549e+06
-4.34204e+06
-4.05595e+06
-3.80913e+06
-3.54878e+06
-3.31181e+06
-3.07181e+06
-2.84637e+06
-2.62304e+06
-2.40963e+06
-2.20049e+06
-1.99887e+06
-1.80224e+06
-1.61181e+06
-1.42642e+06
-1.24645e+06
-1.07132e+06
-901066
-735341
-574081
-417022
-264098
-115031
30147.4
171855
309785
444766
575813
704770
829071
952916
1.07021e+06
1.19028e+06
1.29961e+06
1.41802e+06
1.51734e+06
1.63824e+06
1.72291e+06
1.87202e+06
-5.31255e+06
-4.98454e+06
-4.72465e+06
-4.43059e+06
-4.17722e+06
-3.90961e+06
-3.66616e+06
-3.41943e+06
-3.1877e+06
-2.95805e+06
-2.7386e+06
-2.52349e+06
-2.3161e+06
-2.11381e+06
-1.91788e+06
-1.72713e+06
-1.54193e+06
-1.3617e+06
-1.18647e+06
-1.01591e+06
-849919
-688263
-530839
-377415
-227941
-82125
59939.1
198749
333840
466271
594651
721475
843040
965445
1.07928e+06
1.19947e+06
1.30286e+06
1.42535e+06
1.51463e+06
1.66296e+06
-5.69425e+06
-5.35772e+06
-5.0917e+06
-4.79005e+06
-4.53045e+06
-4.25592e+06
-4.00632e+06
-3.75317e+06
-3.51548e+06
-3.2798e+06
-3.05462e+06
-2.83381e+06
-2.62095e+06
-2.41322e+06
-2.21207e+06
-2.01616e+06
-1.82598e+06
-1.64085e+06
-1.46088e+06
-1.28567e+06
-1.11517e+06
-949105
-787397
-629788
-476254
-326461
-180562
-37961
100731
236800
368533
498886
623570
749409
866311
989649
1.09685e+06
1.22122e+06
1.31478e+06
1.46238e+06
-6.05947e+06
-5.71483e+06
-5.44295e+06
-5.13405e+06
-4.8685e+06
-4.58736e+06
-4.33188e+06
-4.0726e+06
-3.82919e+06
-3.58777e+06
-3.35709e+06
-3.13086e+06
-2.91274e+06
-2.69989e+06
-2.49374e+06
-2.29296e+06
-2.09804e+06
-1.90829e+06
-1.72381e+06
-1.54421e+06
-1.36942e+06
-1.19918e+06
-1.0334e+06
-871823
-714408
-560855
-411252
-265102
-122857
16536.3
151705
285125
413183
541774
662068
787754
898505
1.02464e+06
1.12227e+06
1.26919e+06
-6.40797e+06
-6.05562e+06
-5.7782e+06
-5.46243e+06
-5.19126e+06
-4.90386e+06
-4.64285e+06
-4.37776e+06
-4.12904e+06
-3.88213e+06
-3.6464e+06
-3.41491e+06
-3.19202e+06
-2.9741e+06
-2.76332e+06
-2.55776e+06
-2.35836e+06
-2.16411e+06
-1.97534e+06
-1.7915e+06
-1.61263e+06
-1.43839e+06
-1.26872e+06
-1.10336e+06
-942252
-785104
-631997
-482434
-336857
-194230
-55874.6
80591.2
211740
343139
466541
594656
708748
836637
938144
1.08438e+06
-6.7396e+06
-6.37992e+06
-6.09722e+06
-5.7749e+06
-5.49835e+06
-5.205e+06
-4.93864e+06
-4.66807e+06
-4.4141e+06
-4.16208e+06
-3.92125e+06
-3.68498e+06
-3.45719e+06
-3.23475e+06
-3.01943e+06
-2.80955e+06
-2.6059e+06
-2.40753e+06
-2.21473e+06
-2.02696e+06
-1.84425e+06
-1.66626e+06
-1.49294e+06
-1.32401e+06
-1.15943e+06