/*--------------------------------*- C++ -*----------------------------------*\
| =========                 |                                                 |
| \\      /  F ield         | OpenFOAM: The Open Source CFD Toolbox           |
|  \\    /   O peration     | Version:  v2012                                 |
|   \\  /    A nd           | Website:  www.openfoam.com                      |
|    \\/     M anipulation  |                                                 |
\*---------------------------------------------------------------------------*/
FoamFile
{
    version     2.0;
    format      ascii;
    class       volSymmTensorField;
    location    "14";
    object      sigma;
}
// * * * * * * * * * * * * * * * * * * * * * * * * * * * * * * * * * * * * * //

dimensions      [1 -1 -2 0 0 0 0];


internalField   nonuniform List<symmTensor> 
500
(
(1.24574e+08 -1.59043e+07 4.90061e-10 5.05497e+06 1.22074e-11 9.28656e+07)
(1.37228e+08 -1.28138e+07 -2.34843e-09 1.63259e+07 3.44698e-09 9.74817e+07)
(1.78051e+08 -1.48938e+07 0 1.24073e+07 0 1.26755e+08)
(1.73898e+08 -1.42251e+07 4.76226e-09 3.427e+07 5.77174e-09 1.22983e+08)
(2.0806e+08 -1.31459e+07 1.15971e-08 2.97105e+07 7.2293e-09 1.32798e+08)
(1.9922e+08 -1.22644e+07 3.53018e-09 4.82804e+07 5.03239e-09 1.13776e+08)
(2.20848e+08 -8.30679e+06 0 4.32485e+07 0 1.10779e+08)
(2.07752e+08 -7.03701e+06 3.68992e-08 5.57944e+07 2.55618e-08 8.87545e+07)
(2.24275e+08 521172 3.90601e-08 4.69415e+07 1.80588e-08 8.25368e+07)
(2.00434e+08 4.02388e+06 1.24454e-08 5.30848e+07 2.30814e-08 7.17108e+07)
(1.1559e+08 -2.75321e+07 -1.30008e-08 1.5738e+07 1.01452e-08 9.82632e+07)
(1.35253e+08 -3.42767e+07 -7.99363e-09 1.17248e+07 1.23099e-08 9.04798e+07)
(1.6742e+08 -4.37786e+07 -2.22066e-08 3.96775e+07 -7.04336e-09 7.73782e+07)
(1.59153e+08 -3.41048e+07 1.49223e-08 2.11757e+07 1.10146e-08 9.13337e+07)
(1.93224e+08 -3.99938e+07 6.22105e-09 4.14343e+07 1.21968e-08 7.30157e+07)
(1.70652e+08 -2.32745e+07 -7.20625e-09 2.15236e+07 6.26493e-09 7.91051e+07)
(1.99865e+08 -2.11628e+07 -1.17857e-08 2.61868e+07 -3.67906e-08 6.99887e+07)
(1.7053e+08 -5.41322e+06 -3.84208e-08 1.28942e+07 -6.45636e-08 6.92929e+07)
(1.94475e+08 1.02301e+06 -2.4212e-08 1.04513e+07 -6.53129e-09 6.5444e+07)
(1.65369e+08 1.19959e+07 1.28579e-08 1.34643e+06 2.0013e-08 5.76209e+07)
(1.14285e+08 -5.6352e+07 1.58458e-08 3.13571e+07 -3.7392e-10 6.34967e+07)
(1.32217e+08 -4.57069e+07 -2.17193e-08 1.95917e+07 1.63644e-08 4.35829e+07)
(1.47158e+08 -5.24781e+07 -3.97259e-09 2.51873e+07 -7.80697e-09 4.77716e+07)
(1.3322e+08 -3.08158e+07 3.28141e-08 9.60391e+06 -2.73835e-09 4.95752e+07)
(1.55868e+08 -3.00025e+07 1.13968e-08 2.81122e+06 -1.88247e-09 5.22333e+07)
(1.38035e+08 -1.46143e+07 -4.73339e-09 -6.03964e+06 -1.1502e-08 4.60037e+07)
(1.58132e+08 -1.04861e+07 4.01166e-08 -1.21031e+07 4.28864e-08 4.79961e+07)
(1.39903e+08 -33069.1 -3.0721e-09 -1.96315e+07 9.9542e-09 4.20675e+07)
(1.53502e+08 6.45001e+06 -8.49745e-09 -2.21655e+07 -9.34253e-09 4.46266e+07)
(1.39719e+08 1.13034e+07 0 -2.82992e+07 0 3.76954e+07)
(8.75575e+07 -4.91016e+07 7.72009e-10 3.08201e+07 -6.61083e-09 3.71479e+07)
(9.48719e+07 -3.46547e+07 -5.80042e-08 1.02008e+07 -3.59126e-08 2.95513e+07)
(1.07723e+08 -3.41297e+07 -6.28695e-08 1.39277e+07 -7.16934e-08 3.11113e+07)
(1.05113e+08 -2.20781e+07 1.04089e-08 -7.62856e+06 -5.63345e-08 2.94779e+07)
(1.19044e+08 -2.1712e+07 1.74609e-08 -7.00635e+06 3.1401e-08 2.92605e+07)
(1.112e+08 -1.08424e+07 3.98909e-08 -2.00433e+07 5.27953e-08 2.5415e+07)
(1.25657e+08 -1.06957e+07 1.96602e-08 -2.49463e+07 1.92599e-08 2.84544e+07)
(1.14442e+08 -921472 -7.89845e-10 -2.70971e+07 1.20516e-08 1.89343e+07)
(1.3012e+08 -530904 -1.1001e-08 -4.05617e+07 -1.98152e-08 2.92901e+07)
(1.15996e+08 7.83196e+06 -8.92671e-10 -3.07833e+07 -1.0923e-08 1.3057e+07)
(4.76623e+07 -3.68327e+07 4.27639e-09 2.92457e+07 -1.23093e-08 1.44511e+07)
(5.49999e+07 -1.37839e+07 -1.55033e-08 -9.20862e+06 -2.2195e-08 1.90569e+07)
(7.6246e+07 -2.68163e+07 -3.33108e-08 -1.09042e+07 -4.52175e-08 1.92878e+07)
(7.64721e+07 -8.88249e+06 -4.99229e-08 -3.04074e+07 -5.11243e-08 1.36318e+07)
(9.09773e+07 -1.82333e+07 -4.34961e-08 -3.36179e+07 -9.91091e-09 1.9406e+07)
(8.90236e+07 -5.19129e+06 5.55392e-09 -4.67351e+07 -3.14826e-09 1.07603e+07)
(9.84445e+07 -9.44552e+06 7.37767e-09 -5.12008e+07 -3.44232e-09 1.74331e+07)
(9.51855e+07 -844416 -5.28274e-09 -6.4396e+07 1.8338e-09 4.81702e+06)
(1.05495e+08 1.25259e+06 -6.49141e-09 -7.27725e+07 1.76505e-09 1.45694e+07)
(9.7665e+07 3.93241e+06 -1.60641e-08 -8.69189e+07 -1.1056e-08 7.07365e+06)
(1.38225e+07 -6.74548e+06 7.99609e-09 2.6974e+06 -3.69048e-09 713703)
(1.90825e+07 6.71773e+06 3.10139e-08 -3.19663e+07 6.9898e-09 5.04102e+06)
(4.4588e+07 -1.61449e+07 4.97681e-08 -2.9222e+07 3.20856e-08 1.60464e+06)
(4.51153e+07 3.96963e+06 1.63017e-08 -4.34566e+07 1.76171e-08 -4.17478e+06)
(6.28779e+07 -1.39331e+07 2.07589e-08 -5.02832e+07 1.59257e-08 3.23545e+06)
(6.18357e+07 6.7948e+06 1.35533e-08 -6.00175e+07 2.067e-08 -9.3936e+06)
(6.84679e+07 -1.3536e+06 1.14523e-08 -7.30469e+07 9.10378e-09 2.81847e+06)
(7.21562e+07 1.53383e+07 0 -9.46397e+07 0 -3.6503e+06)
(6.42918e+07 1.67012e+07 0 -9.41308e+07 0 2.51096e+07)
(8.82025e+07 -1.96731e+06 -1.08121e-08 -6.13756e+07 -1.08087e-08 -3.17955e+06)
(-3.02035e+06 1.80315e+07 4.56774e-09 -3.69928e+07 -1.08508e-08 -1.15177e+07)
(-3.03105e+06 1.92551e+07 3.08699e-09 -5.91244e+07 -2.03459e-08 -7.65053e+06)
(1.48575e+07 -2.11891e+06 3.23942e-09 -4.48005e+07 -7.65639e-09 -1.44019e+07)
(1.72732e+07 9.2656e+06 -1.9759e-09 -6.4265e+07 4.45427e-09 -1.25053e+07)
(2.93077e+07 -7.35227e+06 -5.53519e-10 -5.77446e+07 1.78124e-08 -1.31035e+07)
(3.01537e+07 7.97907e+06 1.3816e-08 -7.56962e+07 1.37985e-08 -1.42206e+07)
(3.71028e+07 -1.33907e+06 2.73483e-08 -7.53917e+07 1.9414e-08 -1.13044e+07)
(3.68075e+07 1.66189e+07 2.60737e-08 -8.23361e+07 1.8207e-08 -6.86572e+06)
(4.28792e+07 1.94028e+06 4.37518e-08 -7.38417e+07 3.82808e-08 1.85821e+07)
(5.67944e+07 -1.58685e+06 8.81371e-09 -3.91126e+07 1.32977e-08 -1.08211e+07)
(-4.63715e+06 2.6842e+07 0 -7.32635e+07 0 -2.27544e+07)
(-1.14328e+07 2.25748e+07 0 -8.08344e+07 0 -1.83766e+07)
(-2.18362e+06 9.75854e+06 -2.54987e-09 -6.20453e+07 -9.16068e-09 -2.61529e+07)
(-85572.1 1.26022e+07 -1.31496e-08 -7.73528e+07 -1.30819e-08 -2.0845e+07)
(3.8225e+06 1.63462e+06 -2.48667e-08 -6.31659e+07 -1.40058e-08 -2.40953e+07)
(8.11357e+06 1.04848e+07 -1.52392e-08 -8.00721e+07 -1.34961e-08 -2.03061e+07)
(9.31561e+06 -453861 -3.67266e-08 -6.75323e+07 -2.76782e-08 -1.94531e+07)
(1.13835e+07 1.22284e+07 -1.38082e-08 -7.89984e+07 -2.15169e-08 -1.03298e+07)
(1.46742e+07 -4.17865e+06 -1.50939e-08 -5.69452e+07 3.67725e-09 5.74148e+06)
(2.38428e+07 -3.91975e+06 5.69667e-09 -3.66981e+07 1.74461e-09 -1.10683e+07)
(-1.15793e+06 2.0979e+07 7.96245e-10 -9.66809e+07 -8.15881e-09 -2.9695e+07)
(-1.13625e+07 1.7204e+07 -3.18759e-10 -9.44633e+07 -2.26428e-09 -2.542e+07)
(-8.15641e+06 1.35773e+07 0 -7.69106e+07 0 -3.22641e+07)
(-8.84184e+06 1.00903e+07 0 -8.60042e+07 0 -2.56766e+07)
(-9.61206e+06 7.00037e+06 1.15546e-08 -6.96733e+07 1.50427e-08 -3.04197e+07)
(-6.66363e+06 7.51366e+06 1.08923e-08 -8.42934e+07 1.60665e-08 -2.42666e+07)
(-8.47685e+06 1.63882e+06 1.80858e-08 -6.58188e+07 1.10586e-08 -2.65522e+07)
(-5.96026e+06 6.98012e+06 3.07499e-09 -7.86033e+07 4.97356e-09 -1.45459e+07)
(-6.18093e+06 -4.23618e+06 -6.01021e-10 -4.82787e+07 -7.76548e-09 -7.20515e+06)
(285876 -3.36539e+06 -2.04402e-09 -3.97031e+07 -3.8619e-09 -1.03304e+07)
(-291752 7.14413e+06 -8.34096e-10 -1.04745e+08 2.30382e-09 -3.3945e+07)
(-8.23761e+06 5.38075e+06 -2.59621e-09 -1.01116e+08 -3.56836e-09 -3.00461e+07)
(-7.53567e+06 9.30833e+06 2.37258e-09 -8.75228e+07 1.27893e-08 -3.60982e+07)
(-1.2574e+07 733524 2.82413e-09 -9.23202e+07 1.51351e-08 -2.76818e+07)
(-1.29069e+07 7.27354e+06 -9.63864e-10 -7.90141e+07 -1.1258e-09 -3.52597e+07)
(-1.59401e+07 -1.40171e+06 4.09399e-10 -8.72973e+07 2.82846e-09 -2.6031e+07)
(-1.57253e+07 3.04622e+06 -1.54707e-09 -6.88726e+07 -2.63514e-09 -3.16564e+07)
(-1.80563e+07 412436 -1.23894e-09 -7.28976e+07 -2.006e-09 -1.85487e+07)
(-1.71225e+07 -1.00237e+06 -3.64703e-10 -4.12703e+07 9.03871e-10 -1.63393e+07)
(-1.53368e+07 -258918 3.16959e-10 -3.49565e+07 -9.93759e-10 -1.00077e+07)
(-1.77838e+07 -2.3322e+06 3.29257e-10 1.55964e+07 1.13846e-09 -7.11967e+06)
(175819 -1.03421e+07 -9.75524e-11 2.03389e+07 2.62886e-10 -2.63822e+06)
(-4.50727e+06 -1.73411e+07 7.94042e-10 1.46898e+07 -7.67036e-10 -4.73654e+06)
(1.85013e+07 -2.00697e+07 0 2.24878e+07 0 1.44605e+06)
(2.51082e+07 -3.16891e+07 -1.10355e-09 1.02926e+07 9.74732e-10 2.77836e+06)
(4.7469e+07 -2.82904e+07 1.0973e-09 2.45681e+07 -1.29481e-10 8.94991e+06)
(6.86929e+07 -4.04189e+07 -2.81455e-09 2.71097e+06 7.95367e-10 6.11895e+06)
(7.63901e+07 -2.78946e+07 8.0424e-09 2.02538e+07 -7.44395e-11 2.40603e+07)
(1.08646e+08 -3.91188e+07 -1.08812e-08 -5.04566e+06 1.20491e-09 5.26266e+06)
(1.16641e+08 -2.89908e+07 -5.91609e-09 -815486 1.29221e-08 3.80138e+07)
(-1.82548e+06 -1.6923e+06 0 2.36799e+07 0 1.44483e+07)
(1.0337e+07 -7.80787e+06 8.01762e-10 2.09583e+07 -1.13836e-10 1.01518e+07)
(1.04134e+07 -1.41283e+07 -7.47134e-10 2.60167e+07 -2.24832e-10 1.52516e+07)
(2.66382e+07 -1.57752e+07 -4.14118e-09 1.75185e+07 1.07275e-10 1.65182e+07)
(3.29437e+07 -2.66751e+07 1.33664e-09 2.57314e+07 -2.97085e-11 2.3266e+07)
(5.05338e+07 -2.0547e+07 2.09783e-09 1.35167e+07 -7.1195e-11 2.70963e+07)
(6.47584e+07 -3.79874e+07 6.60679e-09 2.30636e+07 1.95981e-09 3.11218e+07)
(8.03045e+07 -2.47648e+07 6.76667e-09 1.27832e+07 3.9816e-10 3.4824e+07)
(9.65371e+07 -4.50398e+07 -5.41953e-09 1.7562e+07 -3.10238e-10 3.76379e+07)
(1.0494e+08 -2.14573e+07 6.87054e-09 3.664e+06 4.16172e-09 3.99836e+07)
(1.15033e+07 -2.49515e+06 0 8.61459e+06 0 1.21967e+07)
(1.80305e+07 -4.63163e+06 7.25689e-10 5.71377e+06 5.62761e-10 7.70658e+06)
(2.29407e+07 -9.049e+06 4.39111e-10 8.40993e+06 2.32907e-10 1.33389e+07)
(3.31265e+07 -1.10447e+07 -1.01541e-09 2.86209e+06 -9.19218e-10 1.21533e+07)
(4.21563e+07 -1.56259e+07 -2.19951e-09 8.02495e+06 -4.41616e-11 1.97342e+07)
(5.69676e+07 -1.7271e+07 -1.19514e-09 1.97626e+06 -1.07692e-09 1.86721e+07)
(6.62456e+07 -2.10767e+07 2.06167e-09 7.98983e+06 9.38967e-10 2.94036e+07)
(8.4056e+07 -2.16297e+07 3.04156e-10 2.26117e+06 -1.82598e-10 2.42898e+07)
(8.95921e+07 -2.53313e+07 1.95108e-09 8.43093e+06 -2.52776e-10 3.24171e+07)
(1.01703e+08 -2.04357e+07 3.37293e-09 1.79237e+06 1.17398e-09 3.09952e+07)
(1.82682e+07 -360452 -5.06138e-10 -1.38737e+06 9.98996e-10 8.38686e+06)
(2.46872e+07 -5.53869e+06 2.46793e-10 -1.39321e+06 -6.2542e-10 5.6118e+06)
(2.92326e+07 -5.36496e+06 -1.57115e-10 -1.09963e+06 -3.23757e-10 1.08521e+07)
(4.1438e+07 -1.27224e+07 3.13707e-09 -645206 1.50258e-09 8.95245e+06)
(4.72504e+07 -1.1982e+07 1.60962e-09 1.06765e+06 7.14262e-10 1.86069e+07)
(6.49036e+07 -1.92727e+07 -3.72041e-10 371020 -1.16561e-10 1.60311e+07)
(7.10957e+07 -1.87771e+07 -5.76549e-10 3.39821e+06 -2.74216e-10 2.55921e+07)
(8.69523e+07 -2.19573e+07 -2.04653e-09 519790 -4.29087e-10 2.4306e+07)
(9.32304e+07 -2.28394e+07 5.56394e-09 4.54902e+06 2.0436e-09 2.84638e+07)
(1.00521e+08 -2.11817e+07 -3.44032e-09 1.06929e+06 -6.10077e-10 3.02212e+07)
(2.35809e+07 830943 4.36811e-10 -638191 1.51762e-10 9.86983e+06)
(3.3106e+07 -8.27756e+06 -2.61689e-09 567210 -7.94474e-10 8.02845e+06)
(3.67985e+07 -6.66389e+06 -1.70624e-09 447061 -2.4016e-10 1.25777e+07)
(5.05936e+07 -1.61991e+07 -3.8218e-09 2.23219e+06 -7.42588e-10 1.21321e+07)
(5.59736e+07 -1.42864e+07 -2.83247e-10 3.00498e+06 6.27523e-10 2.00278e+07)
(7.12251e+07 -2.1557e+07 4.28665e-09 2.93242e+06 1.80873e-09 1.95345e+07)
(7.71206e+07 -2.03804e+07 -3.85202e-09 4.90972e+06 -2.14574e-09 2.55489e+07)
(8.80329e+07 -2.26851e+07 -3.82518e-09 2.54614e+06 -2.63907e-09 2.62821e+07)
(9.30895e+07 -2.2543e+07 3.49713e-09 5.13791e+06 2.25916e-09 2.87269e+07)
(9.80915e+07 -2.12128e+07 -3.26447e-09 2.08897e+06 1.2442e-09 3.03604e+07)
(3.19841e+07 759302 9.50119e-10 4.92177e+06 -4.666e-10 1.43428e+07)
(4.3612e+07 -1.0132e+07 3.21701e-09 5.48253e+06 2.16289e-10 1.31265e+07)
(4.59025e+07 -9.26321e+06 2.37049e-09 6.14561e+06 -2.77621e-10 1.6426e+07)
(5.93632e+07 -1.80021e+07 -3.19461e-09 5.96486e+06 -1.3215e-09 1.74526e+07)
(6.39065e+07 -1.68414e+07 2.83322e-09 7.28253e+06 1.67888e-09 2.21824e+07)
(7.56548e+07 -2.2109e+07 -8.65303e-10 5.54144e+06 1.5102e-09 2.33291e+07)
(8.02094e+07 -2.11351e+07 -3.17889e-09 7.41688e+06 -2.06134e-09 2.63432e+07)
(8.77103e+07 -2.23219e+07 -2.84667e-09 4.53146e+06 -2.2843e-09 2.76436e+07)
(9.13507e+07 -2.18639e+07 6.12029e-09 6.49276e+06 4.00171e-10 2.86364e+07)
(9.48439e+07 -2.04093e+07 5.06981e-11 3.46082e+06 -8.31435e-10 3.00206e+07)
(4.3472e+07 175756 -2.48167e-09 1.14598e+07 8.21515e-10 1.91494e+07)
(5.51406e+07 -1.04586e+07 -4.70585e-10 1.09933e+07 1.0291e-09 1.89932e+07)
(5.49117e+07 -1.04627e+07 -1.89368e-09 1.23614e+07 -5.44966e-10 2.07477e+07)
(6.73942e+07 -1.78368e+07 7.8822e-10 1.00868e+07 -4.14905e-10 2.2479e+07)
(6.92511e+07 -1.73203e+07 2.07711e-09 1.19403e+07 3.76091e-10 2.45236e+07)
(7.89768e+07 -2.11669e+07 7.01917e-09 8.60373e+06 9.4206e-10 2.63071e+07)
(8.099e+07 -2.0406e+07 -2.25955e-09 1.04934e+07 -1.51094e-09 2.71138e+07)
(8.68351e+07 -2.10221e+07 4.58837e-09 6.93428e+06 -1.08093e-09 2.86591e+07)
(8.8685e+07 -2.04214e+07 -5.81823e-10 8.46666e+06 -6.28507e-10 2.83885e+07)
(9.13078e+07 -1.89413e+07 1.26672e-09 5.33756e+06 -7.85576e-10 2.96667e+07)
(5.58421e+07 -387082 2.62515e-09 1.93936e+07 -1.98368e-10 2.39299e+07)
(6.63022e+07 -9.50835e+06 8.18058e-10 1.80613e+07 -1.30099e-10 2.55503e+07)
(6.30726e+07 -1.00236e+07 3.47783e-09 1.97181e+07 -5.48972e-10 2.54529e+07)
(7.46003e+07 -1.61761e+07 -8.98446e-11 1.60316e+07 -1.28464e-09 2.76419e+07)
(7.29485e+07 -1.59401e+07 2.90681e-09 1.78546e+07 6.60661e-10 2.74468e+07)
(8.1539e+07 -1.89063e+07 -3.12624e-09 1.34758e+07 3.43131e-10 2.93263e+07)
(8.06749e+07 -1.83087e+07 0 1.49585e+07 0 2.83219e+07)
(8.55343e+07 -1.84828e+07 4.58435e-09 1.07787e+07 8.08348e-10 2.98423e+07)
(8.55898e+07 -1.79522e+07 1.13993e-09 1.16892e+07 -3.4819e-10 2.83076e+07)
(8.74285e+07 -1.62248e+07 -3.24931e-09 8.19558e+06 -1.43546e-09 2.95357e+07)
(6.71897e+07 -530906 2.50323e-09 3.05741e+07 3.47755e-10 2.89275e+07)
(7.50879e+07 -7.18797e+06 4.00202e-09 2.81968e+07 -8.34299e-10 3.31593e+07)
(7.01787e+07 -7.98296e+06 1.28564e-09 2.964e+07 5.87601e-11 3.05814e+07)
(8.00735e+07 -1.23091e+07 -1.36353e-11 2.44122e+07 1.17319e-10 3.30967e+07)
(7.57617e+07 -1.27517e+07 1.4275e-10 2.56855e+07 4.51076e-11 3.07162e+07)
(8.27514e+07 -1.39414e+07 -5.03758e-09 1.97447e+07 -1.45833e-09 3.25164e+07)
(7.98589e+07 -1.44809e+07 -4.95552e-09 2.06887e+07 -9.23571e-10 2.95997e+07)
(8.36214e+07 -1.31135e+07 7.70799e-10 1.49711e+07 6.10359e-10 3.11052e+07)
(8.21585e+07 -1.41266e+07 -1.62534e-09 1.5511e+07 -3.63695e-10 2.82034e+07)
(8.34883e+07 -1.0864e+07 -6.49807e-09 1.06098e+07 -2.61034e-09 2.94003e+07)
(7.6026e+07 732561 -7.13855e-09 4.39538e+07 -1.12476e-09 3.26262e+07)
(7.95199e+07 -4.55691e+06 -2.32511e-09 4.1461e+07 6.67741e-11 3.46839e+07)
(7.59696e+07 -3.29739e+06 -3.11827e-09 4.08379e+07 -5.13589e-12 3.26722e+07)
(8.02614e+07 -5.06077e+06 -8.84157e-10 3.50033e+07 -3.4519e-10 3.40828e+07)
(7.78426e+07 -6.66439e+06 -8.96829e-11 3.41238e+07 2.62418e-10 3.07974e+07)
(8.11622e+07 -4.24436e+06 0 2.66244e+07 0 3.28263e+07)
(7.91277e+07 -7.76898e+06 -2.93338e-09 2.56334e+07 -2.90075e-09 2.92107e+07)
(8.15188e+07 -3.08067e+06 -3.75651e-09 1.8374e+07 -6.43556e-09 3.07296e+07)
(7.95142e+07 -7.64413e+06 -3.09569e-09 1.75535e+07 -1.0888e-10 2.76544e+07)
(8.10164e+07 -1.6556e+06 2.78805e-09 1.13112e+07 4.21622e-09 2.87816e+07)
(1.28874e+08 -2.87005e+07 4.66726e-09 -7.55396e+06 1.00625e-08 1.35465e+07)
(1.16072e+08 -2.76543e+07 -2.38744e-09 1.50394e+06 2.78854e-09 3.7822e+07)
(1.28945e+08 -2.57587e+07 3.12713e-09 -2.11771e+06 7.37161e-09 2.44425e+07)
(1.22991e+08 -2.44011e+07 1.29563e-08 2.215e+06 1.11936e-08 3.9887e+07)
(1.31219e+08 -2.50539e+07 1.41026e-08 1.74643e+06 7.96099e-09 2.86125e+07)
(1.26735e+08 -2.18972e+07 0 2.50506e+06 0 4.07867e+07)
(1.33417e+08 -2.4099e+07 -2.32392e-09 3.48908e+06 1.67459e-09 3.09109e+07)
(1.28613e+08 -1.98428e+07 -7.87015e-10 3.18216e+06 1.68915e-09 4.12692e+07)
(1.35972e+08 -2.26927e+07 3.68156e-09 3.55437e+06 5.60664e-09 3.32578e+07)
(1.30096e+08 -1.78146e+07 -6.30288e-10 4.11841e+06 1.67783e-09 4.17319e+07)
(1.39954e+08 -2.01979e+07 -3.85412e-09 2.39816e+06 -5.53648e-09 3.60902e+07)
(1.337e+08 -1.5978e+07 -1.56836e-08 5.01359e+06 -1.38876e-08 4.23655e+07)
(1.46426e+08 -1.67153e+07 -8.16591e-09 986848 -7.32584e-09 3.96196e+07)
(1.40105e+08 -1.44816e+07 9.44718e-09 5.60474e+06 3.20404e-09 4.40433e+07)
(1.55421e+08 -1.28942e+07 1.81793e-08 -136321 1.34461e-08 4.33981e+07)
(1.45951e+08 -1.22741e+07 3.6483e-09 5.50234e+06 2.02025e-09 4.66734e+07)
(1.63819e+08 -8.09638e+06 -3.88697e-09 -986878 -1.25522e-09 4.63989e+07)
(1.5351e+08 -8.27488e+06 1.2979e-08 3.89618e+06 8.87789e-09 4.99205e+07)
(1.70641e+08 -2.44752e+06 1.2218e-08 -1.47498e+06 7.97331e-09 5.10167e+07)
(1.6314e+08 -3.34767e+06 0 1.5977e+06 0 4.95767e+07)
(1.20189e+08 -4.27607e+07 5.4541e-09 8.3096e+06 3.15744e-09 2.90912e+07)
(1.11282e+08 -2.72248e+07 6.35799e-09 4.42944e+06 5.53321e-09 4.10053e+07)
(1.27378e+08 -3.65718e+07 1.19277e-09 3.56756e+06 -6.49632e-10 3.28432e+07)
(1.14429e+08 -2.4944e+07 0 4.25704e+06 0 4.13599e+07)
(1.29003e+08 -2.99567e+07 3.20874e-09 522848 4.10736e-09 3.58828e+07)
(1.16847e+08 -2.22878e+07 6.88234e-09 4.18722e+06 6.11953e-09 3.98279e+07)
(1.29839e+08 -2.40025e+07 4.79606e-09 -976010 2.23451e-09 3.71978e+07)
(1.19767e+08 -1.99612e+07 -7.79271e-09 4.12209e+06 -4.78542e-09 3.74959e+07)
(1.28971e+08 -1.88237e+07 -3.56094e-09 -1.35007e+06 -4.83129e-09 3.91886e+07)
(1.20073e+08 -1.72017e+07 7.41617e-09 3.89139e+06 4.63958e-09 3.91426e+07)
(1.29834e+08 -1.55058e+07 4.11316e-09 -1.01752e+06 2.23483e-09 4.09706e+07)
(1.24768e+08 -1.47233e+07 3.50027e-09 3.4909e+06 2.52534e-09 3.88833e+07)
(1.35326e+08 -1.28947e+07 4.40162e-09 -702798 4.49732e-09 4.15989e+07)
(1.30264e+08 -1.19596e+07 2.26873e-08 2.67768e+06 1.58279e-08 4.02616e+07)
(1.41246e+08 -9.72623e+06 1.55184e-08 -624239 9.57703e-09 4.25808e+07)
(1.35942e+08 -9.17607e+06 3.68956e-09 1.64452e+06 2.43359e-09 4.22453e+07)
(1.47233e+08 -5.9685e+06 -2.96022e-09 -633160 -1.74209e-09 4.44834e+07)
(1.42521e+08 -6.15807e+06 8.30534e-09 884884 5.33588e-09 4.44733e+07)
(1.53495e+08 -1.76227e+06 1.85332e-08 -601254 1.14944e-08 4.63348e+07)
(1.50238e+08 -2.69707e+06 2.91551e-09 565714 1.43072e-10 4.34776e+07)
(1.02191e+08 -2.6632e+07 -2.61485e-10 6.9601e+06 1.951e-10 3.61458e+07)
(1.09438e+08 -2.22846e+07 1.27852e-08 1.82375e+06 5.49296e-09 3.26141e+07)
(1.08277e+08 -2.62957e+07 1.22791e-08 5.6076e+06 5.75567e-09 3.52909e+07)
(1.10901e+08 -2.16197e+07 1.62505e-08 780178 7.31128e-09 3.44416e+07)
(1.11991e+08 -2.48756e+07 1.65881e-08 3.93622e+06 7.72788e-09 3.46068e+07)
(1.11589e+08 -2.04196e+07 1.31731e-08 283397 6.29141e-09 3.51613e+07)
(1.15211e+08 -2.26413e+07 1.70939e-08 2.25241e+06 8.06945e-09 3.42536e+07)
(1.12791e+08 -1.86405e+07 2.99503e-10 -3578.95 2.24708e-10 3.5872e+07)
(1.1975e+08 -1.99242e+07 3.79202e-09 790325 2.22923e-09 3.35691e+07)
(1.14414e+08 -1.72141e+07 3.58191e-09 139385 1.91761e-09 3.66074e+07)
(1.22827e+08 -1.65343e+07 1.05298e-08 -330793 5.42042e-09 3.48023e+07)
(1.17145e+08 -1.51325e+07 -6.40232e-09 372914 -3.38032e-09 3.71162e+07)
(1.26638e+08 -1.31005e+07 -7.00155e-09 -968181 -3.72371e-09 3.62611e+07)
(1.20868e+08 -1.24837e+07 -8.26381e-11 591515 -5.93953e-11 3.78258e+07)
(1.30896e+08 -9.52484e+06 1.50701e-08 -1.21766e+06 8.32613e-09 3.7887e+07)
(1.25435e+08 -9.51045e+06 1.03955e-08 691209 5.62947e-09 3.89848e+07)
(1.35783e+08 -5.76172e+06 1.97507e-08 -1.14802e+06 1.08563e-08 4.00423e+07)
(1.30806e+08 -6.21516e+06 1.85614e-08 644348 9.67209e-09 4.0717e+07)
(1.40749e+08 -1.68021e+06 1.64867e-08 -855342 8.96307e-09 4.19877e+07)
(1.37281e+08 -2.66175e+06 6.98416e-09 531270 2.40212e-10 3.94582e+07)
(1.02389e+08 -2.23838e+07 -8.66239e-09 3.49996e+06 -3.16359e-09 3.29858e+07)
(1.06732e+08 -2.09607e+07 -3.62765e-09 1.53234e+06 -6.38699e-10 3.07228e+07)
(1.05271e+08 -2.13725e+07 -2.85897e-09 3.09562e+06 -1.00538e-09 3.3186e+07)
(1.07122e+08 -2.00779e+07 2.78203e-09 1.17998e+06 1.13147e-09 3.1932e+07)
(1.06423e+08 -2.00767e+07 3.37202e-09 2.54073e+06 1.16672e-09 3.30977e+07)
(1.07132e+08 -1.90045e+07 9.24944e-09 912709 2.75568e-09 3.23427e+07)
(1.07992e+08 -1.85743e+07 6.38796e-09 1.90059e+06 2.30386e-09 3.29871e+07)
(1.0761e+08 -1.76886e+07 9.23812e-09 805490 2.89076e-09 3.27672e+07)
(1.10279e+08 -1.68458e+07 -1.58663e-10 1.24489e+06 1.55538e-10 3.30742e+07)
(1.08796e+08 -1.62044e+07 -5.57552e-09 662605 -2.21359e-09 3.33909e+07)
(1.13162e+08 -1.48208e+07 -9.81286e-09 636346 -3.67387e-09 3.34047e+07)
(1.10598e+08 -1.43978e+07 -3.82365e-09 568930 -8.66452e-10 3.41524e+07)
(1.1656e+08 -1.24226e+07 -2.13145e-09 143538 -1.21455e-09 3.40357e+07)
(1.13009e+08 -1.21598e+07 9.5005e-09 554534 3.29938e-09 3.50901e+07)
(1.20364e+08 -9.66078e+06 3.91048e-09 -199442 1.45135e-09 3.50166e+07)
(1.15957e+08 -9.41375e+06 1.19303e-09 557640 -1.46236e-10 3.62381e+07)
(1.24502e+08 -6.43654e+06 -3.29587e-09 -350432 -1.33531e-09 3.63486e+07)
(1.19161e+08 -6.01555e+06 -3.03705e-09 477624 -1.14882e-09 3.74976e+07)
(1.28202e+08 -2.54038e+06 -8.38765e-09 -336821 -2.82877e-09 3.73008e+07)
(1.23054e+08 -1.89424e+06 -1.72897e-09 181993 1.09942e-11 3.66516e+07)
(1.00086e+08 -2.14371e+07 -3.95947e-09 3.82726e+06 -1.28328e-09 3.17824e+07)
(1.02775e+08 -2.01797e+07 5.29106e-09 2.50655e+06 1.44069e-09 3.03001e+07)
(1.0223e+08 -2.01437e+07 2.57791e-09 3.40027e+06 9.95185e-10 3.19342e+07)
(1.0288e+08 -1.90388e+07 -2.44693e-09 2.28199e+06 -9.48071e-10 3.11516e+07)
(1.02755e+08 -1.86668e+07 -5.26634e-09 2.89961e+06 -1.71564e-09 3.18571e+07)
(1.02625e+08 -1.78318e+07 -2.72635e-09 2.03831e+06 -5.79183e-10 3.12982e+07)
(1.03554e+08 -1.71088e+07 -3.58173e-09 2.36365e+06 -4.46684e-10 3.1665e+07)
(1.02741e+08 -1.6506e+07 -3.63935e-09 1.7955e+06 -2.1482e-10 3.14571e+07)
(1.0483e+08 -1.54433e+07 3.71786e-09 1.83784e+06 4.83529e-10 3.1652e+07)
(1.0329e+08 -1.49658e+07 5.98771e-09 1.52191e+06 1.26846e-09 3.17598e+07)
(1.06487e+08 -1.36382e+07 1.29479e-08 1.32807e+06 2.91526e-09 3.18163e+07)
(1.04283e+08 -1.31489e+07 1.25475e-08 1.22233e+06 2.26856e-09 3.20812e+07)
(1.08731e+08 -1.15484e+07 -1.94756e-09 833201 -9.19254e-10 3.21457e+07)
(1.05789e+08 -1.0994e+07 4.22921e-09 929790 1.74889e-09 3.26845e+07)
(1.11139e+08 -9.22768e+06 -2.91608e-09 432591 -8.29019e-10 3.26484e+07)
(1.07113e+08 -8.28923e+06 0 623000 0 3.33047e+07)
(1.13355e+08 -6.38618e+06 -2.94855e-09 119949 -8.68397e-10 3.31768e+07)
(1.0829e+08 -4.98675e+06 -1.86994e-09 315133 -1.14777e-09 3.38367e+07)
(1.15051e+08 -2.95128e+06 -2.00518e-09 -40451.3 -1.22221e-09 3.33871e+07)
(1.09724e+08 -983301 0 13536.1 0 3.33443e+07)
(9.66149e+07 -2.03422e+07 3.73916e-09 4.74838e+06 1.08023e-09 3.08145e+07)
(9.82862e+07 -1.90572e+07 0 3.57046e+06 0 2.97128e+07)
(9.82807e+07 -1.89177e+07 2.58971e-09 4.21687e+06 4.79388e-10 3.0863e+07)
(9.83174e+07 -1.7751e+07 4.80196e-09 3.18612e+06 1.2506e-09 3.03186e+07)
(9.85748e+07 -1.737e+07 5.70035e-09 3.63892e+06 9.78918e-10 3.07448e+07)
(9.8044e+07 -1.64535e+07 8.23243e-09 2.78125e+06 1.25835e-09 3.03327e+07)
(9.90195e+07 -1.58302e+07 4.80754e-09 3.02669e+06 1.42164e-09 3.04924e+07)
(9.80155e+07 -1.51139e+07 2.55547e-09 2.37311e+06 4.60234e-10 3.0254e+07)
(9.9837e+07 -1.41621e+07 1.0378e-09 2.35048e+06 -3.93452e-10 3.0267e+07)
(9.79783e+07 -1.36007e+07 -9.8642e-10 1.9701e+06 -1.35871e-09 3.02842e+07)
(1.00544e+08 -1.23658e+07 -8.47744e-09 1.69624e+06 -1.68697e-09 3.02344e+07)
(9.81844e+07 -1.16804e+07 -1.0113e-08 1.56629e+06 -2.41315e-09 3.0373e+07)
(1.01689e+08 -1.05043e+07 -1.30812e-08 1.10155e+06 -1.95762e-09 3.03017e+07)
(9.86736e+07 -9.42692e+06 -3.78834e-09 1.11874e+06 1.35593e-09 3.04635e+07)
(1.02638e+08 -8.37365e+06 0 589571 0 3.03417e+07)
(9.88655e+07 -6.83624e+06 -1.73303e-09 686085 -9.66876e-10 3.05094e+07)
(1.0319e+08 -5.90499e+06 -1.82379e-09 197037 -1.014e-09 3.02694e+07)
(9.85622e+07 -3.81263e+06 -2.46003e-09 317624 -5.65128e-10 3.03826e+07)
(1.0318e+08 -3.01606e+06 -4.28391e-09 -33284 -3.03057e-10 3.00101e+07)
(9.81041e+07 -243988 -1.66177e-09 63196.7 4.08427e-11 3.01329e+07)
(9.25803e+07 -1.87063e+07 -3.10427e-09 6.08826e+06 -9.37253e-12 2.98424e+07)
(9.34861e+07 -1.74188e+07 -2.9514e-09 5.06001e+06 -3.26992e-10 2.91136e+07)
(9.39223e+07 -1.71774e+07 -4.59066e-09 5.25099e+06 -1.19572e-09 2.97648e+07)
(9.34656e+07 -1.59941e+07 -2.42814e-09 4.47373e+06 -3.92879e-10 2.94358e+07)
(9.42644e+07 -1.55352e+07 3.34834e-09 4.40327e+06 3.01774e-11 2.95131e+07)
(9.3182e+07 -1.45681e+07 5.34257e-09 3.85007e+06 7.85455e-10 2.92238e+07)
(9.43046e+07 -1.38096e+07 6.91695e-09 3.61386e+06 1.7838e-09 2.92862e+07)
(9.27525e+07 -1.29801e+07 0 3.18707e+06 0 2.92396e+07)
(9.44793e+07 -1.22562e+07 -3.48203e-09 2.81031e+06 -1.47623e-10 2.90444e+07)
(9.26705e+07 -1.13129e+07 -1.1921e-08 2.5166e+06 -2.79359e-09 2.89813e+07)
(9.47974e+07 -1.06854e+07 -1.34147e-08 2.07222e+06 -2.60588e-09 2.87845e+07)
(9.25995e+07 -9.54962e+06 -1.47188e-08 1.8872e+06 -3.36584e-09 2.88109e+07)
(9.5109e+07 -9.02515e+06 -1.65049e-08 1.3857e+06 -3.19916e-09 2.85761e+07)
(9.23497e+07 -7.54968e+06 -1.47333e-08 1.3203e+06 -1.79343e-09 2.86062e+07)
(9.509e+07 -7.19767e+06 -1.74399e-09 765538 -9.14938e-10 2.82804e+07)
(9.16492e+07 -5.2712e+06 1.57273e-09 835529 9.02664e-10 2.82295e+07)
(9.44619e+07 -5.16454e+06 1.64432e-09 247420 9.20927e-10 2.77592e+07)
(9.02419e+07 -2.65458e+06 -3.68592e-09 465433 -1.4414e-09 2.7576e+07)
(9.32186e+07 -2.89034e+06 2.34957e-09 -113840 -6.85637e-10 2.71429e+07)
(8.82924e+07 415928 1.50138e-09 238548 -3.62164e-11 2.76317e+07)
(8.81761e+07 -1.59726e+07 -1.33769e-09 8.57065e+06 4.51068e-10 2.87983e+07)
(8.84017e+07 -1.46055e+07 -1.44613e-09 7.3834e+06 4.34105e-10 2.85925e+07)
(8.91766e+07 -1.44324e+07 7.5882e-10 7.39898e+06 -2.19494e-10 2.85696e+07)
(8.83391e+07 -1.30767e+07 7.80103e-10 6.39536e+06 -2.26714e-10 2.87194e+07)
(8.92898e+07 -1.29354e+07 -2.31225e-09 6.29443e+06 -5.28621e-10 2.83414e+07)
(8.80619e+07 -1.15341e+07 -2.25142e-09 5.37864e+06 -5.63227e-10 2.85586e+07)
(8.95095e+07 -1.15304e+07 0 5.22872e+06 0 2.7875e+07)
(8.7855e+07 -1.00177e+07 1.82534e-09 4.41483e+06 8.43758e-10 2.8259e+07)
(8.96458e+07 -1.01089e+07 1.08205e-08 4.18319e+06 2.04144e-09 2.74887e+07)
(8.76464e+07 -8.44457e+06 6.40971e-09 3.47947e+06 7.79933e-10 2.79373e+07)
(8.96721e+07 -8.65135e+06 4.65195e-09 3.16892e+06 1.17277e-09 2.71744e+07)
(8.73609e+07 -6.78889e+06 3.37334e-09 2.58016e+06 1.78483e-09 2.75787e+07)
(8.94641e+07 -7.14648e+06 1.49892e-08 2.19887e+06 3.69358e-09 2.68593e+07)
(8.68352e+07 -5.03434e+06 9.85824e-09 1.76305e+06 2.67946e-09 2.71214e+07)
(8.88252e+07 -5.59291e+06 5.6004e-09 1.30142e+06 2.40145e-09 2.64301e+07)
(8.58244e+07 -3.17332e+06 0 1.08357e+06 0 2.64598e+07)
(8.74896e+07 -4.01086e+06 3.50968e-09 523177 4.00554e-10 2.57404e+07)
(8.40922e+07 -1.20535e+06 5.51851e-09 614511 1.12787e-09 2.55512e+07)
(8.5569e+07 -2.47326e+06 -2.19565e-09 -71174.5 -6.3527e-10 2.50684e+07)
(8.13832e+07 1.00854e+06 -2.02564e-09 416796 -6.37059e-11 2.59849e+07)
(8.37188e+07 -1.21054e+07 -7.76549e-09 1.08225e+07 -2.36952e-09 2.79672e+07)
(8.39608e+07 -1.00152e+07 -3.35415e-09 9.15502e+06 -1.15121e-09 2.77138e+07)
(8.48022e+07 -1.08063e+07 -2.19286e-09 8.97526e+06 -7.06075e-10 2.75412e+07)
(8.40096e+07 -8.72223e+06 0 7.6851e+06 0 2.75105e+07)
(8.51181e+07 -9.48351e+06 -5.17857e-09 7.41877e+06 -1.44587e-09 2.71325e+07)
(8.38074e+07 -7.42356e+06 -2.59859e-09 6.30481e+06 -9.6273e-10 2.71178e+07)
(8.51869e+07 -8.16561e+06 -9.30988e-09 6.01177e+06 -3.00619e-09 2.66521e+07)
(8.35583e+07 -6.07728e+06 -1.04385e-08 4.9897e+06 -4.43231e-09 2.66785e+07)
(8.51533e+07 -6.85085e+06 -1.82241e-08 4.71286e+06 -6.21111e-09 2.61935e+07)
(8.33355e+07 -4.69689e+06 -6.1027e-09 3.74891e+06 -1.72206e-09 2.6266e+07)
(8.4987e+07 -5.54924e+06 1.99339e-09 3.52232e+06 -7.82812e-11 2.57895e+07)
(8.31021e+07 -3.3095e+06 1.37406e-08 2.60721e+06 5.24677e-09 2.58716e+07)
(8.45941e+07 -4.29161e+06 3.30295e-09 2.45096e+06 1.8042e-09 2.54253e+07)
(8.27631e+07 -1.96428e+06 2.11407e-09 1.60897e+06 8.41838e-10 2.54517e+07)
(8.38458e+07 -3.12815e+06 0 1.51021e+06 0 2.50569e+07)
(8.21918e+07 -748336 -7.17901e-09 827300 -3.62387e-09 2.4941e+07)
(8.26437e+07 -2.13009e+06 -1.16918e-08 711892 -4.07951e-09 2.46424e+07)
(8.12876e+07 207991 -6.49689e-09 375502 -1.66543e-09 2.42845e+07)
(8.09512e+07 -1.37795e+06 -2.10478e-09 74201.1 2.08403e-09 2.42467e+07)
(7.92261e+07 962170 8.91049e-10 400733 8.30132e-11 2.43266e+07)
(7.9987e+07 -6.04695e+06 7.76465e-09 1.10602e+07 4.09465e-09 2.76973e+07)
(8.13107e+07 -2.56774e+06 6.63435e-09 8.75565e+06 5.53809e-09 2.69927e+07)
(8.08923e+07 -5.70454e+06 1.32531e-08 8.37407e+06 7.12434e-09 2.71515e+07)
(8.19486e+07 -1.95332e+06 5.81738e-09 6.52981e+06 5.11375e-09 2.62599e+07)
(8.11168e+07 -4.89325e+06 8.11363e-09 5.97207e+06 4.29599e-09 2.69464e+07)
(8.21791e+07 -1.45032e+06 0 4.58102e+06 0 2.55292e+07)
(8.10926e+07 -3.95746e+06 6.92534e-09 3.97258e+06 3.40482e-09 2.66466e+07)
(8.22453e+07 -1.02339e+06 6.69485e-09 2.94531e+06 4.67069e-09 2.48737e+07)
(8.10137e+07 -3.02651e+06 1.04028e-08 2.39372e+06 5.27417e-09 2.63114e+07)
(8.22304e+07 -642080 -5.35758e-10 1.64494e+06 -6.18632e-10 2.43809e+07)
(8.09183e+07 -2.14029e+06 -6.62356e-09 1.22176e+06 -3.04867e-09 2.5966e+07)
(8.21289e+07 -286905 -1.91203e-09 687589 -7.81428e-10 2.40547e+07)
(8.07744e+07 -1.32773e+06 8.09296e-09 436126 2.80575e-09 2.56097e+07)
(8.19148e+07 38835.8 1.06926e-08 66544.8 5.3777e-09 2.38624e+07)
(8.0519e+07 -635838 1.36227e-08 5752.32 6.54707e-09 2.52333e+07)
(8.15606e+07 299737 4.17931e-09 -241479 1.73562e-09 2.37396e+07)
(8.00845e+07 -140348 9.6913e-09 -126437 3.47822e-09 2.48335e+07)
(8.10513e+07 433598 6.12949e-09 -282606 1.86481e-09 2.36006e+07)
(7.95215e+07 55524 1.0562e-08 -61560.5 4.24931e-09 2.44602e+07)
(8.0514e+07 77661 1.59484e-09 33092.9 5.09672e-10 2.34629e+07)