/*--------------------------------*- C++ -*----------------------------------*\
| =========                 |                                                 |
| \\      /  F ield         | OpenFOAM: The Open Source CFD Toolbox           |
|  \\    /   O peration     | Version:  v2012                                 |
|   \\  /    A nd           | Website:  www.openfoam.com                      |
|    \\/     M anipulation  |                                                 |
\*---------------------------------------------------------------------------*/
FoamFile
{
    version     2.0;
    format      ascii;
    class       volScalarField;
    location    "1";
    object      sigmaHyd;
}
// * * * * * * * * * * * * * * * * * * * * * * * * * * * * * * * * * * * * * //

dimensions      [1 -1 -2 0 0 0 0];


internalField   nonuniform List<scalar> 
470
(
2.82794e+06
4.04599e+06
6.56656e+06
6.82599e+06
4.7529e+06
5.96549e+06
5.70106e+06
3.27613e+06
7.94106e+06
6.81266e+06
7.98983e+06
8.88951e+06
8.70726e+06
6.53939e+06
9.41336e+06
7.37001e+06
6.28334e+06
5.85785e+06
5.74629e+06
4.30258e+06
7.83336e+06
6.57955e+06
6.76958e+06
6.20455e+06
7.22564e+06
5.74527e+06
7.00358e+06
6.86106e+06
6.13511e+06
6.23196e+06
4.14225e+06
1.03159e+07
6.56156e+06
1.12297e+07
6.44325e+06
6.15417e+06
9.62843e+06
4.18598e+06
5.18762e+06
4.0072e+06
6.2133e+06
5.32829e+06
9.44903e+06
5.08367e+06
7.48149e+06
8.41859e+06
4.69771e+06
6.43108e+06
6.29529e+06
7.61243e+06
9.66479e+06
1.04653e+07
6.09804e+06
5.36712e+06
6.79948e+06
6.53769e+06
6.99516e+06
4.67882e+06
6.0696e+06
7.2756e+06
5.9535e+06
7.92315e+06
8.62347e+06
9.33742e+06
4.66196e+06
1.17327e+07
4.44055e+06
6.40032e+06
1.24712e+06
7.22071e+06
2.71588e+06
6.5693e+06
1.04128e+07
5.95067e+06
9.68869e+06
6.77911e+06
6.46371e+06
6.41497e+06
6.06633e+06
1.17872e+07
6.32579e+06
1.26625e+07
6.96958e+06
552607
7.63299e+06
6.54357e+06
8.57731e+06
9.15876e+06
9.54641e+06
8.54893e+06
9.89081e+06
9.05444e+06
5.92201e+06
6.21365e+06
9.16652e+06
9.67608e+06
4.69939e+06
6.12563e+06
4.48114e+06
6.37247e+06
6.51179e+06
6.99892e+06
1.07644e+07
6.69188e+06
7.08454e+06
5.94467e+06
6.41686e+06
5.04164e+06
-3.27836e+06
1.34245e+07
8.98143e+06
1.35782e+07
6.96731e+06
6.04766e+06
2.92069e+06
6.59008e+06
6.68064e+06
9.33303e+06
5.33936e+06
4.29417e+06
5.48936e+06
6.81153e+06
6.11736e+06
7.3486e+06
5.96552e+06
6.58378e+06
6.8683e+06
6.4412e+06
9.73529e+06
6.33641e+06
4.23915e+06
3.77772e+06
5.84114e+06
6.43017e+06
6.52556e+06
6.47394e+06
6.25014e+06
8.25064e+06
9.25509e+06
5.86096e+06
6.12129e+06
7.92702e+06
6.59184e+06
6.15029e+06
6.47649e+06
4.33734e+06
7.12899e+06
7.55619e+06
6.21867e+06
7.9886e+06
5.70475e+06
6.83944e+06
3.18074e+06
6.56614e+06
1.23271e+07
7.17055e+06
-7.33591e+06
5.50999e+06
6.16518e+06
6.39102e+06
1.51036e+07
8.50328e+06
6.57925e+06
9.96705e+06
9.8726e+06
4.26902e+06
3.21588e+06
9.37464e+06
5.92294e+06
4.88422e+06
5.19504e+06
6.35199e+06
6.37152e+06
6.36199e+06
6.36592e+06
6.0324e+06
6.09419e+06
12005.8
6.64139e+06
4.02845e+06
5.5613e+06
8.03483e+06
6.26502e+06
6.76501e+06
7.44328e+06
8.77156e+06
6.54619e+06
-92437.1
8.02372e+06
6.32766e+06
6.41635e+06
5.57105e+06
7.00315e+06
6.37024e+06
2.34194e+06
5.53952e+06
6.56403e+06
6.53124e+06
6.531e+06
2.65372e+07
3.68325e+06
2.11807e+06
1.77296e+07
3.89236e+06
7.01657e+06
7.18847e+06
5.32542e+06
5.26073e+06
5.4047e+06
-1.00811e+07
6.69111e+06
6.44418e+06
-5.08859e+06
5.84743e+06
8.40425e+06
8.10918e+06
6.45029e+06
5.00985e+06
6.10474e+06
5.71668e+06
-3.49895e+06
3.49308e+06
6.15961e+06
6.20112e+06
5.46414e+06
5.99864e+06
7.09408e+06
-834114
1.1102e+07
8.9811e+06
6.93073e+06
-224391
7.2382e+06
5.93939e+06
7.44734e+06
6.20923e+06
4.0675e+06
6.00828e+06
6.19303e+06
6.97562e+06
7.14606e+06
7.01198e+06
6.18116e+06
1.4191e+07
1.34232e+07
9.99837e+06
9.57881e+06
6.29009e+06
5.02496e+06
6.44183e+06
6.30901e+06
6.87506e+06
7.59654e+06
5.83059e+06
7.7668e+06
4.31155e+06
5.2173e+06
7.15522e+06
5.93814e+06
3.5021e+06
6.20934e+06
1.07646e+07
1.59774e+06
-1.33143e+06
4.50066e+06
7.20715e+06
5.95499e+06
6.08483e+06
5.55728e+06
7.61852e+06
6.52245e+06
1.06291e+06
1.02674e+07
2.75827e+06
7.4208e+06
6.75705e+06
7.69343e+06
6.90983e+06
8.27317e+06
6.26404e+06
6.17353e+06
7.1851e+06
5.47773e+06
6.99053e+06
6.41522e+06
6.99727e+06
8.12653e+06
7.42699e+06
6.30365e+06
2.6111e+06
1.93742e+06
2.19804e+06
1.77417e+06
8.57761e+06
7.90899e+06
6.06384e+06
6.37612e+06
6.11208e+06
7.28935e+06
6.51528e+06
6.5678e+06
1.91612e+06
6.55614e+06
6.18024e+06
1.05219e+07
4.41049e+06
6.36527e+06
6.52267e+06
1.72943e+06
3.08082e+06
8.83065e+06
6.44869e+06
2.37783e+07
6.37549e+06
2.18622e+06
8.6736e+06
2.75039e+06
900835
8.6812e+06
5.97309e+06
8.60966e+06
5.49738e+06
6.2258e+06
6.42804e+06
8.09059e+06
5.77143e+06
6.80696e+06
3.95766e+06
3.67495e+06
-260715
5.03347e+06
-1.83708e+06
5.49519e+06
6.55385e+06
690308
5.67988e+06
5.06594e+06
6.122e+06
8.85023e+06
6.04937e+06
5.6542e+06
1.45208e+07
9.37022e+06
-1.25989e+06
6.16972e+06
8.6011e+06
9.44488e+06
6.20715e+06
7.5609e+06
5.74432e+06
4.80812e+06
4.70255e+06
7.76526e+06
8.05665e+06
7.81585e+06
-1.91995e+06
8.09386e+06
6.13267e+06
7.31614e+06
987175
7.12613e+06
7.10343e+06
6.23293e+06
6.97388e+06
1.74066e+07
5.79509e+06
5.73023e+06
7.79871e+06
60447.9
5.97667e+06
5.26154e+06
5.2871e+06
7.20268e+06
6.53234e+06
-1.92014e+06
-3.12574e+06
-2.26811e+06
6.0831e+06
1.81157e+07
-2.15498e+06
5.72632e+06
1.13342e+07
5.13773e+06
6.85464e+06
6.33815e+06
1.38623e+07
8.85985e+06
8.67543e+06
7.54289e+06
5.82407e+06
9.20415e+06
6.14772e+06
6.47474e+06
1.18763e+07
6.43763e+06
6.01365e+06
6.98089e+06
5.88601e+06
9.28867e+06
6.82317e+06
8.66456e+06
1.83042e+07
6.5485e+06
866874
8.48456e+06
8.94414e+06
7.77593e+06
6.55874e+06
7.46254e+06
7.65545e+06
5.80442e+06
5.7933e+06
5.69168e+06
7.09676e+06
7.3418e+06
8.76049e+06
6.42283e+06
1.93352e+06
9.16556e+06
1.99573e+06
4.94455e+06
2.72044e+06
6.73193e+06
6.44892e+06
6.83936e+06
1.43774e+07
9.52539e+06
4.10164e+06
7.80574e+06
7.02857e+06
8.23352e+06
6.83801e+06
6.99092e+06
7.13927e+06
-2.97427e+06
-4.31943e+06
7.05187e+06
5.79866e+06
6.56434e+06
6.52222e+06
5.35246e+06
9.40448e+06
6.77392e+06
5.62307e+06
7.69726e+06
7.21658e+06
5.59811e+06
6.5103e+06
1.3973e+06
6.17545e+06
7.25417e+06
8.87654e+06
7.92756e+06
6.47871e+06
6.34426e+06
2.12011e+06
6.34007e+06
8.39243e+06
3.94916e+06
3.01061e+06
6.63068e+06
5.24474e+06
3.67502e+06
8.62434e+06
7.76647e+06
8.10531e+06
5.67909e+06
6.05709e+06
6.34356e+06
7.29077e+06
)
;

boundaryField
{
    back
    {
        type            empty;
    }
    front
    {
        type            empty;
    }
    down
    {
        type            zeroGradient;
    }
    right
    {
        type            zeroGradient;
    }
    up
    {
        type            zeroGradient;
    }
    left
    {
        type            zeroGradient;
    }
    hole
    {
        type            zeroGradient;
    }
}


// ************************************************************************* //
