/*--------------------------------*- C++ -*----------------------------------*\
| =========                 |                                                 |
| \\      /  F ield         | OpenFOAM: The Open Source CFD Toolbox           |
|  \\    /   O peration     | Version:  v2012                                 |
|   \\  /    A nd           | Website:  www.openfoam.com                      |
|    \\/     M anipulation  |                                                 |
\*---------------------------------------------------------------------------*/
FoamFile
{
    version     2.0;
    format      ascii;
    class       volScalarField;
    location    "18";
    object      sigmaEq;
}
// * * * * * * * * * * * * * * * * * * * * * * * * * * * * * * * * * * * * * //

dimensions      [1 -1 -2 0 0 0 0];


internalField   nonuniform List<scalar> 
500
(
1.70566e+08
8.18465e+07
8.80792e+07
3.98058e+07
5.52467e+07
5.76714e+07
5.16352e+07
7.60516e+07
6.75935e+07
8.92114e+07
1.27154e+08
4.03169e+07
8.25251e+07
4.82928e+07
6.22915e+07
6.51539e+07
5.24694e+07
7.52984e+07
5.88022e+07
8.35517e+07
6.95541e+07
3.70689e+07
5.61413e+07
4.34202e+07
5.16132e+07
5.52084e+07
5.22428e+07
6.3331e+07
5.57127e+07
6.70741e+07
2.18295e+07
5.75593e+06
2.13222e+07
2.20055e+07
3.0008e+07
3.50668e+07
3.96838e+07
4.4209e+07
4.73243e+07
4.96781e+07
1.31205e+07
1.35349e+07
6.76228e+06
1.87872e+07
1.678e+07
2.73859e+07
2.67306e+07
3.47864e+07
3.42817e+07
4.01766e+07
2.2663e+07
1.91317e+07
1.29095e+07
1.69462e+07
1.14849e+07
1.99881e+07
1.52911e+07
2.43909e+07
1.88094e+07
2.9576e+07
3.02167e+07
2.52985e+07
1.92203e+07
2.02035e+07
1.44573e+07
2.04961e+07
1.58162e+07
2.34382e+07
2.08907e+07
2.68707e+07
3.74524e+07
3.09484e+07
2.49269e+07
2.35228e+07
1.80645e+07
2.09782e+07
1.63531e+07
2.13309e+07
1.78894e+07
2.26927e+07
4.33907e+07
3.5147e+07
2.96662e+07
2.5364e+07
2.0777e+07
2.01976e+07
1.60636e+07
1.79422e+07
1.43757e+07
1.74508e+07
4.73391e+07
3.38754e+07
3.12811e+07
2.37133e+07
2.16891e+07
1.72911e+07
1.56686e+07
1.32701e+07
1.20475e+07
1.09763e+07
1.23734e+07
5.11591e+06
1.67246e+07
8.71982e+06
2.35989e+07
1.38463e+07
3.02326e+07
1.87885e+07
3.58637e+07
2.3228e+07
7.40499e+06
4.73557e+06
1.45077e+07
1.00769e+07
2.2431e+07
1.57198e+07
2.98547e+07
2.07561e+07
3.61839e+07
2.48777e+07
6.48376e+06
6.02117e+06
1.31188e+07
1.11543e+07
2.05798e+07
1.66812e+07
2.78242e+07
2.17649e+07
3.44049e+07
2.61326e+07
7.29424e+06
7.773e+06
1.24464e+07
1.20894e+07
1.8869e+07
1.71213e+07
2.53876e+07
2.19803e+07
3.1614e+07
2.6402e+07
9.05438e+06
9.84239e+06
1.26205e+07
1.31549e+07
1.77267e+07
1.74099e+07
2.32072e+07
2.17623e+07
2.865e+07
2.59177e+07
1.11716e+07
1.19357e+07
1.35049e+07
1.43328e+07
1.72714e+07
1.76976e+07
2.15764e+07
2.13505e+07
2.60021e+07
2.49818e+07
1.31947e+07
1.37393e+07
1.46999e+07
1.53968e+07
1.73173e+07
1.79083e+07
2.04812e+07
2.07964e+07
2.38415e+07
2.37708e+07
1.48015e+07
1.49677e+07
1.57525e+07
1.60302e+07
1.74712e+07
1.78081e+07
1.9657e+07
1.99949e+07
2.20636e+07
2.23228e+07
1.57297e+07
1.52981e+07
1.6212e+07
1.5835e+07
1.72272e+07
1.7113e+07
1.87145e+07
1.87927e+07
2.04206e+07
2.06454e+07
1.57166e+07
1.40613e+07
1.53764e+07
1.46314e+07
1.61558e+07
1.56913e+07
1.73446e+07
1.72083e+07
1.8785e+07
1.90121e+07
4.47118e+07
3.40771e+07
4.67841e+07
3.88509e+07
4.87182e+07
4.27476e+07
5.0529e+07
4.613e+07
5.22794e+07
4.92191e+07
5.40685e+07
5.2225e+07
5.60455e+07
5.53894e+07
5.84222e+07
5.89816e+07
6.1466e+07
6.32526e+07
6.54609e+07
6.82988e+07
3.62351e+07
3.14686e+07
3.97317e+07
3.49751e+07
4.25308e+07
3.82741e+07
4.49376e+07
4.13889e+07
4.71558e+07
4.44069e+07
4.93522e+07
4.74427e+07
5.16833e+07
5.06248e+07
5.43016e+07
5.4085e+07
5.73504e+07
5.79509e+07
6.09433e+07
6.23665e+07
3.39173e+07
3.05982e+07
3.6463e+07
3.31656e+07
3.88036e+07
3.57229e+07
4.09636e+07
3.82492e+07
4.30089e+07
4.07607e+07
4.50207e+07
4.32973e+07
4.70863e+07
4.59125e+07
4.92951e+07
4.86675e+07
5.17375e+07
5.1627e+07
5.45087e+07
5.48478e+07
3.21179e+07
2.9611e+07
3.40347e+07
3.16192e+07
3.58644e+07
3.36063e+07
3.75962e+07
3.55631e+07
3.92442e+07
3.74913e+07
4.08399e+07
3.94028e+07
4.24263e+07
4.13178e+07
4.40554e+07
4.32633e+07
4.57861e+07
4.52711e+07
4.76825e+07
4.73773e+07
3.00718e+07
2.82875e+07
3.16099e+07
2.99017e+07
3.30549e+07
3.14527e+07
3.44029e+07
3.29373e+07
3.56583e+07
3.43538e+07
3.68344e+07
3.57038e+07
3.79528e+07
3.69924e+07
3.90436e+07
3.82299e+07
4.01457e+07
3.94327e+07
4.13079e+07
4.06252e+07
2.79075e+07
2.67453e+07
2.91625e+07
2.8031e+07
3.03104e+07
2.923e+07
3.1351e+07
3.03386e+07
3.22864e+07
3.13518e+07
3.31215e+07
3.22642e+07
3.38654e+07
3.30705e+07
3.45326e+07
3.3767e+07
3.51452e+07
3.43548e+07
3.57358e+07
3.48435e+07
2.58022e+07
2.5082e+07
2.68034e+07
2.60793e+07
2.77043e+07
2.69922e+07
2.85041e+07
2.78145e+07
2.92012e+07
2.85374e+07
2.97939e+07
2.91488e+07
3.02803e+07
2.96331e+07
3.06594e+07
2.99713e+07
3.09332e+07
3.01431e+07
3.11108e+07
3.01307e+07
2.37936e+07
2.33175e+07
2.45715e+07
2.40906e+07
2.52771e+07
2.48001e+07
2.59065e+07
2.54354e+07
2.64532e+07
2.5984e+07
2.6909e+07
2.64299e+07
2.72625e+07
2.67508e+07
2.74977e+07
2.69143e+07
2.75932e+07
2.68758e+07
2.75244e+07
2.65776e+07
2.18392e+07
2.15083e+07
2.24847e+07
2.22043e+07
2.30954e+07
2.28445e+07
2.36536e+07
2.34184e+07
2.41503e+07
2.39157e+07
2.45756e+07
2.43222e+07
2.49146e+07
2.46158e+07
2.5143e+07
2.47615e+07
2.52228e+07
2.47054e+07
2.5097e+07
2.43624e+07
2.00719e+07
2.01277e+07
2.08321e+07
2.09668e+07
2.151e+07
2.17363e+07
2.21266e+07
2.24277e+07
2.26817e+07
2.30224e+07
2.31657e+07
2.34983e+07
2.35631e+07
2.38318e+07
2.38526e+07
2.39981e+07
2.40049e+07
2.39723e+07
2.39779e+07
2.37332e+07
8.60191e+07
9.07582e+07
9.44998e+07
8.04536e+07
8.41882e+07
7.04286e+07
7.51851e+07
6.30276e+07
6.77578e+07
5.60937e+07
6.13353e+07
4.90478e+07
5.5414e+07
4.13191e+07
4.95504e+07
3.23325e+07
4.34068e+07
2.18093e+07
3.70481e+07
1.36423e+07
7.28915e+07
8.41041e+07
8.0145e+07
8.1872e+07
8.72042e+07
7.82971e+07
8.48129e+07
7.3655e+07
8.05281e+07
6.91139e+07
7.515e+07
6.36034e+07
6.86435e+07
5.70405e+07
6.07481e+07
4.93667e+07
5.09772e+07
4.08067e+07
3.87222e+07
3.27382e+07
6.47626e+07
6.88172e+07
6.86304e+07
7.01697e+07
7.36929e+07
7.06246e+07
7.64988e+07
7.03573e+07
7.52271e+07
6.90485e+07
7.23614e+07
6.6821e+07
6.81402e+07
6.38425e+07
6.28283e+07
6.04066e+07
5.69282e+07
5.70829e+07
5.1645e+07
5.4927e+07
5.63086e+07
5.32416e+07
5.97376e+07
5.67577e+07
6.25411e+07
5.95215e+07
6.44858e+07
6.15083e+07
6.53078e+07
6.27561e+07
6.50763e+07
6.33878e+07
6.4036e+07
6.36454e+07
6.26395e+07
6.39313e+07
6.16412e+07
6.48491e+07
6.2201e+07
6.72102e+07
4.27403e+07
4.43256e+07
4.71279e+07
4.81437e+07
5.09671e+07
5.12859e+07
5.40594e+07
5.39676e+07
5.63591e+07
5.63026e+07
5.79841e+07
5.84238e+07
5.92138e+07
6.05521e+07
6.05057e+07
6.30476e+07
6.25225e+07
6.64597e+07
6.61616e+07
7.1615e+07
)
;

boundaryField
{
    back
    {
        type            empty;
    }
    front
    {
        type            empty;
    }
    left
    {
        type            calculated;
        value           nonuniform List<scalar> 
15
(
1.70566e+08
8.80792e+07
5.52467e+07
5.16352e+07
6.75935e+07
8.60191e+07
9.44998e+07
8.41882e+07
7.51851e+07
6.77578e+07
6.13353e+07
5.5414e+07
4.95504e+07
4.34068e+07
3.70481e+07
)
;
    }
    hole
    {
        type            calculated;
        value           nonuniform List<scalar> 10(1.70566e+08 1.27154e+08 6.95541e+07 2.18295e+07 1.31205e+07 2.2663e+07 3.02167e+07 3.74524e+07 4.33907e+07 4.73391e+07);
    }
    down
    {
        type            calculated;
        value           nonuniform List<scalar> 
15
(
3.38754e+07
2.37133e+07
1.72911e+07
1.32701e+07
1.09763e+07
1.23734e+07
7.40499e+06
6.48376e+06
7.29424e+06
9.05438e+06
1.11716e+07
1.31947e+07
1.48015e+07
1.57297e+07
1.57166e+07
)
;
    }
    right
    {
        type            calculated;
        value           nonuniform List<scalar> 
15
(
1.40613e+07
1.46314e+07
1.56913e+07
1.72083e+07
1.90121e+07
2.01277e+07
2.09668e+07
2.17363e+07
2.24277e+07
2.30224e+07
2.34983e+07
2.38318e+07
2.39981e+07
2.39723e+07
2.37332e+07
)
;
    }
    up
    {
        type            calculated;
        value           nonuniform List<scalar> 
15
(
6.82988e+07
6.23665e+07
5.48478e+07
4.73773e+07
4.06252e+07
3.48435e+07
3.01307e+07
2.65776e+07
2.43624e+07
2.37332e+07
1.36423e+07
3.27382e+07
5.4927e+07
6.72102e+07
7.1615e+07
)
;
    }
}


// ************************************************************************* //
