/*--------------------------------*- C++ -*----------------------------------*\
| =========                 |                                                 |
| \\      /  F ield         | OpenFOAM: The Open Source CFD Toolbox           |
|  \\    /   O peration     | Version:  v2012                                 |
|   \\  /    A nd           | Website:  www.openfoam.com                      |
|    \\/     M anipulation  |                                                 |
\*---------------------------------------------------------------------------*/
FoamFile
{
    version     2.0;
    format      ascii;
    class       volScalarField;
    location    "18";
    object      sigmaHyd;
}
// * * * * * * * * * * * * * * * * * * * * * * * * * * * * * * * * * * * * * //

dimensions      [1 -1 -2 0 0 0 0];


internalField   nonuniform List<scalar> 
500
(
-4.39166e+07
-1.0661e+06
1.1929e+07
4.74124e+07
5.32032e+07
7.06944e+07
7.53674e+07
6.67974e+07
7.87709e+07
5.67338e+07
-4.47816e+07
3.00192e+07
-1.41671e+07
6.06881e+07
1.09528e+07
4.87227e+07
3.23247e+07
3.68158e+07
4.5445e+07
3.03217e+07
-4.1553e+07
2.7728e+07
-2.92861e+07
1.73455e+07
-9.23771e+06
1.73911e+07
6.37956e+06
1.79167e+07
1.77419e+07
1.77706e+07
-2.32192e+07
2.8738e+06
-1.51097e+07
6.70286e+06
-7.13449e+06
9.34709e+06
801236
1.12043e+07
7.766e+06
1.23886e+07
-1.47003e+07
-982909
-1.12685e+07
2.10298e+06
-6.14094e+06
5.12215e+06
-714371
8.03715e+06
4.45319e+06
1.08856e+07
-1.67533e+07
-5.5664e+06
-1.12394e+07
-3.45408e+06
-5.77291e+06
-1.19454e+06
-276520
1.20835e+06
5.36019e+06
4.14436e+06
-2.03365e+07
-8.86217e+06
-1.45238e+07
-6.78116e+06
-9.54247e+06
-4.47575e+06
-5.29711e+06
-2.22907e+06
-2.04134e+06
-475383
-2.42019e+07
-1.21139e+07
-1.79588e+07
-9.95366e+06
-1.29813e+07
-7.71269e+06
-8.87467e+06
-5.5161e+06
-5.32666e+06
-3.48347e+06
-2.72506e+07
-1.5047e+07
-2.07407e+07
-1.30304e+07
-1.54228e+07
-1.04252e+07
-1.11525e+07
-7.85258e+06
-7.60338e+06
-5.36016e+06
-2.93028e+07
-2.00986e+07
-2.18615e+07
-1.57685e+07
-1.65486e+07
-1.23931e+07
-1.23444e+07
-9.64837e+06
-8.95104e+06
-7.40688e+06
-4.93648e+06
1.55701e+06
-6.3886e+06
3.76006e+06
-6.41219e+06
6.83158e+06
-5.42535e+06
1.0509e+07
-3.0721e+06
1.46788e+07
927433
4.73155e+06
-143788
6.46473e+06
-854656
8.94692e+06
-1.12111e+06
1.19351e+07
-756068
1.52213e+07
5.15392e+06
6.94544e+06
4.4001e+06
8.24278e+06
3.70336e+06
1.01143e+07
3.17986e+06
1.24289e+07
2.94791e+06
1.5018e+07
8.14476e+06
8.68903e+06
7.61994e+06
9.61796e+06
7.09676e+06
1.09537e+07
6.64959e+06
1.26522e+07
6.36686e+06
1.46275e+07
1.02703e+07
1.01674e+07
9.89709e+06
1.08044e+07
9.52205e+06
1.17041e+07
9.1949e+06
1.28725e+07
8.98738e+06
1.42931e+07
1.18221e+07
1.15072e+07
1.15373e+07
1.19154e+07
1.12398e+07
1.24642e+07
1.09736e+07
1.31843e+07
1.08007e+07
1.41019e+07
1.30209e+07
1.28179e+07
1.27746e+07
1.30424e+07
1.24853e+07
1.32971e+07
1.22027e+07
1.3625e+07
1.19847e+07
1.40811e+07
1.40423e+07
1.42204e+07
1.37864e+07
1.42951e+07
1.34418e+07
1.42742e+07
1.30759e+07
1.42196e+07
1.27462e+07
1.42302e+07
1.50524e+07
1.5884e+07
1.46986e+07
1.58469e+07
1.42162e+07
1.5474e+07
1.37325e+07
1.49954e+07
1.32516e+07
1.45165e+07
1.62927e+07
1.82758e+07
1.54655e+07
1.77591e+07
1.48759e+07
1.70212e+07
1.42366e+07
1.60075e+07
1.35827e+07
1.48118e+07
-516493
1.27617e+07
4.03628e+06
1.57209e+07
7.93496e+06
1.83025e+07
1.14781e+07
2.06793e+07
1.48195e+07
2.29401e+07
1.80371e+07
2.51654e+07
2.11654e+07
2.74505e+07
2.42089e+07
2.99002e+07
2.71374e+07
3.26022e+07
2.98447e+07
3.55495e+07
7.40574e+06
1.33036e+07
8.90736e+06
1.55085e+07
1.08723e+07
1.76593e+07
1.30646e+07
1.97493e+07
1.53757e+07
2.18037e+07
1.77402e+07
2.38603e+07
2.01041e+07
2.59624e+07
2.24172e+07
2.81517e+07
2.46399e+07
3.04643e+07
2.67828e+07
3.29408e+07
1.00557e+07
1.39922e+07
1.12142e+07
1.55622e+07
1.25497e+07
1.71775e+07
1.40286e+07
1.88131e+07
1.56061e+07
2.04611e+07
1.72384e+07
2.21244e+07
1.88842e+07
2.38106e+07
2.05071e+07
2.55286e+07
2.20758e+07
2.72856e+07
2.35573e+07
2.90801e+07
1.1377e+07
1.43082e+07
1.22893e+07
1.54378e+07
1.32524e+07
1.66085e+07
1.42691e+07
1.78057e+07
1.53282e+07
1.90183e+07
1.64116e+07
2.02384e+07
1.74983e+07
2.14604e+07
1.85672e+07
2.2679e+07
1.95986e+07
2.38878e+07
2.05777e+07
2.50778e+07
1.21509e+07
1.43366e+07
1.27808e+07
1.51255e+07
1.34254e+07
1.59334e+07
1.40851e+07
1.67517e+07
1.47559e+07
1.75713e+07
1.54297e+07
1.83835e+07
1.6096e+07
1.91798e+07
1.67437e+07
1.99517e+07
1.73621e+07
2.06907e+07
1.79421e+07
2.13875e+07
1.26111e+07
1.42378e+07
1.29756e+07
1.47418e+07
1.33449e+07
1.52464e+07
1.37167e+07
1.57452e+07
1.40871e+07
1.62305e+07
1.44511e+07
1.66946e+07
1.48021e+07
1.71292e+07
1.51329e+07
1.75263e+07
1.54358e+07
1.78784e+07
1.57035e+07
1.81784e+07
1.2877e+07
1.41407e+07
1.3019e+07
1.43972e+07
1.31631e+07
1.46437e+07
1.33066e+07
1.48747e+07
1.34463e+07
1.50837e+07
1.35779e+07
1.52629e+07
1.3696e+07
1.54034e+07
1.37941e+07
1.54967e+07
1.38645e+07
1.55347e+07
1.38979e+07
1.55116e+07
1.30354e+07
1.41108e+07
1.30013e+07
1.41411e+07
1.297e+07
1.41618e+07
1.29399e+07
1.41704e+07
1.29084e+07
1.416e+07
1.28725e+07
1.41212e+07
1.28284e+07
1.4043e+07
1.27701e+07
1.39125e+07
1.2689e+07
1.37153e+07
1.25724e+07
1.34377e+07
1.31511e+07
1.41197e+07
1.29892e+07
1.39131e+07
1.28336e+07
1.3727e+07
1.26802e+07
1.35483e+07
1.25298e+07
1.33706e+07
1.23835e+07
1.3187e+07
1.22414e+07
1.29866e+07
1.21013e+07
1.27525e+07
1.19578e+07
1.24579e+07
1.17994e+07
1.20614e+07
1.32567e+07
1.39781e+07
1.30504e+07
1.35437e+07
1.28207e+07
1.31177e+07
1.25922e+07
1.27262e+07
1.23758e+07
1.23857e+07
1.21771e+07
1.21068e+07
1.2e+07
1.18941e+07
1.18481e+07
1.17447e+07
1.17259e+07
1.16453e+07
1.16423e+07
1.15682e+07
7.48354e+07
4.93951e+07
7.11081e+07
4.26863e+07
6.20612e+07
3.76354e+07
5.35184e+07
3.2002e+07
4.56028e+07
2.691e+07
3.81064e+07
2.19115e+07
3.08242e+07
1.66683e+07
2.35468e+07
1.08369e+07
1.60437e+07
3.99326e+06
8.04184e+06
-4.48005e+06
4.89894e+07
3.31042e+07
4.98633e+07
3.0412e+07
4.88896e+07
2.87103e+07
4.61237e+07
2.672e+07
4.24207e+07
2.42869e+07
3.84312e+07
2.18484e+07
3.44172e+07
1.92728e+07
3.06093e+07
1.64476e+07
2.72872e+07
1.33025e+07
2.48943e+07
9.8699e+06
1.98537e+07
2.71677e+07
2.46701e+07
2.68585e+07
2.80795e+07
2.6458e+07
3.02364e+07
2.61756e+07
3.12637e+07
2.58281e+07
3.15128e+07
2.54808e+07
3.13373e+07
2.51614e+07
3.10508e+07
2.48891e+07
3.09354e+07
2.46925e+07
3.12238e+07
2.46105e+07
5.32388e+06
2.11892e+07
1.04607e+07
2.25938e+07
1.50909e+07
2.38012e+07
1.89949e+07
2.4887e+07
2.21396e+07
2.59445e+07
2.46376e+07
2.70509e+07
2.66826e+07
2.82745e+07
2.85051e+07
2.96835e+07
3.03503e+07
3.13476e+07
3.24674e+07
3.3313e+07
1.37792e+06
1.36846e+07
5.47547e+06
1.63026e+07
9.61143e+06
1.87976e+07
1.35256e+07
2.11729e+07
1.70786e+07
2.34474e+07
2.02578e+07
2.56725e+07
2.31428e+07
2.79396e+07
2.58694e+07
3.03893e+07
2.86088e+07
3.32339e+07
3.15814e+07
3.68331e+07
)
;

boundaryField
{
    back
    {
        type            empty;
    }
    front
    {
        type            empty;
    }
    left
    {
        type            zeroGradient;
    }
    hole
    {
        type            zeroGradient;
    }
    down
    {
        type            zeroGradient;
    }
    right
    {
        type            zeroGradient;
    }
    up
    {
        type            zeroGradient;
    }
}


// ************************************************************************* //
