/*--------------------------------*- C++ -*----------------------------------*\
| =========                 |                                                 |
| \\      /  F ield         | OpenFOAM: The Open Source CFD Toolbox           |
|  \\    /   O peration     | Version:  v2012                                 |
|   \\  /    A nd           | Website:  www.openfoam.com                      |
|    \\/     M anipulation  |                                                 |
\*---------------------------------------------------------------------------*/
FoamFile
{
    version     2.0;
    format      ascii;
    class       volScalarField;
    location    "4";
    object      epsilonEq;
}
// * * * * * * * * * * * * * * * * * * * * * * * * * * * * * * * * * * * * * //

dimensions      [0 0 0 0 0 0 0];


internalField   nonuniform List<scalar> 
8000
(
0.00255924
0.00238602
0.00233822
0.00219115
0.00214643
0.00202127
0.00198129
0.0018736
0.00183889
0.00174524
0.00171568
0.0016335
0.00160865
0.00153601
0.00151531
0.00145071
0.00143361
0.00137583
0.00136183
0.0013099
0.00129853
0.00125163
0.00124251
0.00119993
0.00119273
0.00115389
0.00114832
0.0011127
0.00110853
0.00107567
0.00107272
0.00104218
0.00104032
0.00101172
0.00101083
0.000983775
0.000983814
0.000957867
0.000958823
0.000933436
0.00251332
0.00235766
0.00230188
0.00216465
0.00212024
0.00199848
0.00196282
0.00185464
0.00182605
0.00172972
0.00170699
0.00162095
0.00160312
0.00152599
0.00151227
0.00144286
0.00143259
0.00136988
0.00136248
0.00130559
0.0013006
0.00124876
0.00124579
0.00119835
0.00119705
0.00115343
0.00115353
0.00111322
0.0011145
0.00107704
0.0010793
0.00104429
0.00104737
0.00101445
0.0010182
0.000987062
0.000991332
0.000961763
0.000966326
0.000938401
0.00248051
0.00232424
0.00227088
0.00213318
0.00209244
0.0019699
0.00193914
0.00182946
0.00180668
0.00170812
0.00169176
0.00160288
0.00159173
0.00151131
0.00150439
0.00143137
0.00142787
0.00136135
0.00136061
0.0012998
0.00130129
0.00124548
0.00124878
0.00119737
0.0012021
0.00115454
0.00116042
0.00111623
0.00112302
0.00108178
0.00108927
0.0010506
0.00105864
0.00102219
0.00103065
0.000996131
0.00100489
0.000972064
0.000981095
0.000949632
0.00243356
0.0022778
0.00222994
0.00209165
0.0020567
0.00193304
0.00190849
0.00179728
0.00178108
0.00168058
0.00167107
0.0015799
0.00157572
0.00149271
0.00149277
0.00141694
0.00142034
0.00135085
0.00135686
0.00129298
0.001301
0.00124208
0.00125164
0.00119711
0.00120783
0.00115717
0.00116873
0.00112151
0.00113367
0.00108946
0.00110202
0.00106047
0.00107328
0.00103405
0.001047
0.00100979
0.00102279
0.000987309
0.00100031
0.000966278
0.00237171
0.00221782
0.00217659
0.00203889
0.00201082
0.00188694
0.00186949
0.00175749
0.00174855
0.00164684
0.00164466
0.00155193
0.00155507
0.00147024
0.00147751
0.00139966
0.00141009
0.00133844
0.00135124
0.0012851
0.00129962
0.0012384
0.00125413
0.00119728
0.00121383
0.00116088
0.00117791
0.00112843
0.00114569
0.00109931
0.00111661
0.00107296
0.00109016
0.00104893
0.00106592
0.0010268
0.00104351
0.00100624
0.0010226
0.000986929
0.00229588
0.00214512
0.00211099
0.00197519
0.00195453
0.00183162
0.00182177
0.00171005
0.00170878
0.00160683
0.0016123
0.00151894
0.0015296
0.00144384
0.00145842
0.00137943
0.00139688
0.00132393
0.00134342
0.00127587
0.00129672
0.00123402
0.00125569
0.00119734
0.00121941
0.00116496
0.00118711
0.00113616
0.00115813
0.00111032
0.00113193
0.00108693
0.00110804
0.00106555
0.00108605
0.0010458
0.00106563
0.00102736
0.00104648
0.00100996
0.00220725
0.00206086
0.00203403
0.00190139
0.00188834
0.00176765
0.00176558
0.00165531
0.00166187
0.00156078
0.00157396
0.00148102
0.00149919
0.0014135
0.00143529
0.0013561
0.00138041
0.00130705
0.001333
0.0012649
0.00129177
0.00122842
0.00125566
0.0011966
0.00122379
0.0011686
0.00119542
0.00114373
0.00116993
0.00112141
0.00114682
0.00110115
0.00112565
0.00108257
0.00110606
0.00106531
0.00108774
0.0010491
0.00107042
0.0010337
0.00210717
0.0019663
0.0019468
0.00181852
0.00181312
0.00169582
0.00170154
0.00159388
0.0016082
0.0015091
0.00152988
0.00143842
0.0014639
0.00137929
0.00140803
0.00132961
0.00136043
0.0012876
0.00131958
0.00125181
0.00128424
0.00122107
0.00125339
0.00119439
0.00122618
0.00117098
0.00120194
0.00115019
0.00118009
0.00113149
0.00116017
0.00111445
0.0011418
0.00109871
0.00112467
0.00108398
0.0011085
0.00107002
0.00109306
0.00105662
0.00199706
0.00186275
0.00185052
0.00172769
0.00172986
0.00161705
0.00163043
0.00152649
0.00154837
0.00145234
0.00148043
0.00139151
0.00142394
0.00134142
0.00137667
0.00129997
0.00133681
0.00126539
0.00130289
0.00123628
0.00127371
0.00121149
0.00124831
0.00119009
0.00122591
0.00117135
0.00120588
0.00115469
0.00118772
0.00113961
0.00117104
0.00112577
0.00115548
0.00111284
0.0011408
0.00110059
0.00112677
0.00108883
0.00111321
0.00107739
0.0018784
0.00175159
0.00174648
0.00163009
0.00163962
0.00153235
0.00155313
0.00145395
0.00148305
0.00139112
0.00142612
0.00134073
0.00137961
0.00130015
0.00134134
0.00126727
0.00130952
0.00124037
0.00128274
0.00121808
0.00125985
0.00119931
0.00123998
0.00118321
0.00122241
0.00116912
0.00120661
0.00115651
0.00119213
0.00114499
0.00117863
0.00113425
0.00116585
0.00112404
0.00115358
0.00111418
0.00114165
0.00110452
0.00112992
0.00109495
0.00175266
0.00163414
0.00163595
0.00152688
0.00154353
0.00144273
0.00147057
0.00137711
0.00141302
0.00132614
0.00136752
0.00128659
0.00133134
0.00125582
0.0013023
0.0012317
0.00127866
0.00121255
0.00125907
0.00119709
0.00124249
0.00118429
0.00122812
0.00117339
0.00121533
0.00116382
0.00120366
0.00115515
0.00119277
0.00114704
0.00118238
0.00113925
0.00117229
0.00113162
0.00116235
0.00112402
0.00115245
0.00111634
0.0011425
0.00110853
0.00162133
0.00151176
0.00152024
0.00141925
0.00144272
0.00134922
0.00138373
0.00129685
0.00133907
0.00125812
0.00130527
0.00122966
0.00127959
0.00120882
0.00125985
0.00119348
0.00124439
0.00118204
0.00123195
0.00117328
0.00122158
0.00116629
0.00121257
0.00116042
0.00120443
0.00115518
0.00119677
0.00115024
0.00118933
0.00114535
0.00118192
0.00114035
0.0011744
0.00113513
0.00116669
0.00112963
0.00115873
0.0011238
0.00115048
0.00111761
0.00148582
0.00138571
0.00140059
0.00130835
0.00133829
0.00125283
0.00129359
0.00121407
0.00126204
0.00118778
0.00124007
0.00117053
0.0012249
0.00115959
0.0012144
0.00115292
0.001207
0.001149
0.00120153
0.00114672
0.00119717
0.00114531
0.00119334
0.00114422
0.00118965
0.00114307
0.0011858
0.00114162
0.00118164
0.00113973
0.00117705
0.00113731
0.00117197
0.00113431
0.00116638
0.00113074
0.00116026
0.00112661
0.00115363
0.00112193
0.00134747
0.00125723
0.00127823
0.00119528
0.00123136
0.00115458
0.00120112
0.00112964
0.00118278
0.0011159
0.00117263
0.00110979
0.00116785
0.0011086
0.0011664
0.00111036
0.0011668
0.00111368
0.00116804
0.00111758
0.00116944
0.00112144
0.00117053
0.00112482
0.00117104
0.00112748
0.00117079
0.00112927
0.00116971
0.00113014
0.00116776
0.00113007
0.00116496
0.0011291
0.00116135
0.00112728
0.00115696
0.00112469
0.00115186
0.00112138
0.00120755
0.00112747
0.00115431
0.00108112
0.00112301
0.00105547
0.00110732
0.00104446
0.00110216
0.00104323
0.00110367
0.00104808
0.00110904
0.00105635
0.00111631
0.00106619
0.00112419
0.00107636
0.0011318
0.00108607
0.00113862
0.00109483
0.00114433
0.00110237
0.00114877
0.00110854
0.00115188
0.0011133
0.00115367
0.00111667
0.00115417
0.00111873
0.00115349
0.00111958
0.0011517
0.00111933
0.00114893
0.00111811
0.00114526
0.00111605
0.0010672
0.000997507
0.00102993
0.00096692
0.00101428
0.000956481
0.00101315
0.000959434
0.00102104
0.000970539
0.00103392
0.000986024
0.00104906
0.00100332
0.00106465
0.00102077
0.00107957
0.00103735
0.00109314
0.00105243
0.00110501
0.00106572
0.00111501
0.00107706
0.0011231
0.00108644
0.00112931
0.00109391
0.00113374
0.00109956
0.00113651
0.00110353
0.00113777
0.00110599
0.00113767
0.0011071
0.00113638
0.00110708
0.00113404
0.00110611
0.000927505
0.000868338
0.000906148
0.00085369
0.000906215
0.000858619
0.000919601
0.000875461
0.000940274
0.000898594
0.000964124
0.00092424
0.000988525
0.000950018
0.0010119
0.000974513
0.00103334
0.000996942
0.00105241
0.00101692
0.00106891
0.0010343
0.00108284
0.0010491
0.00109427
0.00106141
0.00110334
0.00107135
0.00111022
0.00107909
0.00111509
0.0010848
0.00111814
0.00108869
0.00111959
0.00109097
0.00111966
0.00109192
0.00111856
0.00109188
0.000789429
0.00074092
0.000783985
0.000742478
0.000799893
0.000762942
0.000827682
0.000793504
0.000860767
0.000828198
0.00089502
0.000863363
0.00092804
0.000896916
0.000958539
0.000927765
0.000985901
0.000955418
0.00100991
0.000979728
0.00103058
0.00100075
0.00104805
0.00101863
0.00106252
0.00103357
0.00107422
0.00104579
0.00108338
0.0010555
0.00109022
0.00106289
0.00109498
0.00106814
0.0010979
0.00107145
0.00109924
0.00107313
0.00109934
0.00107377
0.000653868
0.000616174
0.000664493
0.00063442
0.00069647
0.000670634
0.000738501
0.000714621
0.000783467
0.000760213
0.000827384
0.000804062
0.000868217
0.000844519
0.000905052
0.000880893
0.000937599
0.000913014
0.000965903
0.00094099
0.00099018
0.000965071
0.00101073
0.000985564
0.00102787
0.00100279
0.00104194
0.00101707
0.00105322
0.00102867
0.00106199
0.0010378
0.0010685
0.00104459
0.00107297
0.0010491
0.00107569
0.00105133
0.00107713
0.00105191
0.000521647
0.000495057
0.000548851
0.000530889
0.000597317
0.000583128
0.000653337
0.000640046
0.000709445
0.000695616
0.000762075
0.000747092
0.000809728
0.000793407
0.000851953
0.000834327
0.000888813
0.000870018
0.000920615
0.000900836
0.000947775
0.000927212
0.000970744
0.000949601
0.000989972
0.000968451
0.00100589
0.000984192
0.00101891
0.00099722
0.00102939
0.00100789
0.00103766
0.00101643
0.00104401
0.0010228
0.00104873
0.00102603
0.00105263
0.00102205
0.000393533
0.000378716
0.000438586
0.000433786
0.000504223
0.000502276
0.000573768
0.000571261
0.000639971
0.000635551
0.000700108
0.000693367
0.000753414
0.000744357
0.000799956
0.000788764
0.000840146
0.000827064
0.000874519
0.000859807
0.000903634
0.00088754
0.000928023
0.00091077
0.000948164
0.00092995
0.000964468
0.000945465
0.000977262
0.000957631
0.000986757
0.00096669
0.000992983
0.000972827
0.000995591
0.000976294
0.000993248
0.000977946
0.000981557
0.00098168
0.000270343
0.00026906
0.000336155
0.000346151
0.000419741
0.000430566
0.00050178
0.000510021
0.000576536
0.000581298
0.000642694
0.000643945
0.000700387
0.000698401
0.00075023
0.00074538
0.000792974
0.000785649
0.000829374
0.000819948
0.000860132
0.000848953
0.00088588
0.000873275
0.000907177
0.000893457
0.00092451
0.000909989
0.000938298
0.000923326
0.000948909
0.000933923
0.000956709
0.00094231
0.000962224
0.000949204
0.00096679
0.000955588
0.000975138
0.000961957
0.000153673
0.00017119
0.000246592
0.000273456
0.000347709
0.000371318
0.000439759
0.000458219
0.000520638
0.000533982
0.000590835
0.000599545
0.000651375
0.000656025
0.000703349
0.000704501
0.000747776
0.000745953
0.000785579
0.000781253
0.000817572
0.000811174
0.000844475
0.000836398
0.000866926
0.000857537
0.000885498
0.000875148
0.000900727
0.000889755
0.000913148
0.000901867
0.000923363
0.000911988
0.00093212
0.000920581
0.000940264
0.000927929
0.000947548
0.000934029
5.55886e-05
0.000106242
0.000182116
0.000225409
0.000293954
0.000328703
0.000390579
0.000417843
0.000473835
0.000494659
0.000545461
0.000560772
0.000606982
0.000617589
0.00065972
0.000666326
0.000704821
0.000708039
0.000743277
0.000743645
0.000775956
0.000773944
0.000803615
0.000799641
0.00082693
0.000821361
0.000846508
0.000839664
0.000862914
0.000855055
0.00087668
0.000867982
0.000888305
0.000878827
0.0008982
0.000887881
0.000906561
0.000895328
0.000913496
0.000901286
8.97834e-05
0.00012394
0.000165305
0.000213423
0.000265606
0.00030666
0.000357228
0.000390612
0.000437617
0.000464192
0.000507404
0.000528099
0.000567701
0.000583352
0.000619638
0.000630975
0.000664255
0.000671914
0.000702485
0.000707016
0.000735153
0.000737033
0.000762992
0.000762633
0.000786653
0.000784405
0.000806716
0.000802867
0.000823697
0.000818473
0.000838049
0.000831611
0.000850147
0.000842599
0.000860279
0.000851693
0.000868661
0.000859098
0.000875453
0.000864973
0.000187262
0.000196241
0.000201178
0.000237828
0.000266569
0.000306458
0.000341744
0.00037735
0.000413102
0.000443078
0.000477318
0.000501823
0.000533928
0.000553487
0.000583333
0.000598533
0.00062619
0.00063759
0.000663208
0.000671316
0.000695072
0.000700335
0.000722416
0.000725222
0.000745815
0.000746495
0.000765779
0.00076461
0.000782758
0.000779968
0.000797139
0.00079291
0.000809246
0.00080373
0.000819347
0.000812672
0.000827664
0.000819946
0.000834379
0.000825728
0.000284014
0.000278763
0.000264141
0.000285257
0.000292644
0.000325078
0.000343856
0.000377421
0.000400624
0.000431248
0.00045555
0.000482005
0.00050593
0.00052807
0.000550992
0.000569059
0.000590741
0.000605107
0.000625505
0.000636567
0.000655727
0.000663863
0.000681875
0.000687432
0.000704405
0.000707688
0.000723738
0.000725013
0.000740252
0.000739749
0.000754282
0.000752199
0.000766117
0.000762627
0.000776006
0.000771264
0.000784167
0.000778311
0.000790784
0.000783944
0.000376073
0.000360464
0.000335234
0.000342763
0.00033461
0.000356773
0.000360657
0.000388727
0.00039944
0.000427973
0.000442013
0.000468417
0.000483805
0.000507059
0.000522748
0.000542581
0.000558038
0.000574523
0.000589495
0.000602845
0.00061723
0.000627713
0.000641492
0.000649384
0.00066258
0.000668144
0.000680805
0.000684283
0.000696463
0.000698075
0.000709831
0.000709776
0.000721158
0.000719613
0.000730668
0.000727795
0.000738559
0.000734505
0.000745006
0.000739909
0.000462583
0.000438391
0.0004068
0.000403016
0.000384322
0.000395872
0.000387823
0.000408334
0.000407795
0.000431948
0.000436123
0.000460527
0.000467437
0.000490272
0.000498666
0.000519082
0.000528214
0.000545898
0.000555337
0.000570256
0.000579761
0.000592024
0.000601468
0.000611246
0.000620569
0.000628059
0.00063724
0.000642643
0.000651683
0.000655193
0.000664101
0.000665902
0.000674695
0.000674957
0.00068365
0.00068253
0.000691139
0.000688783
0.000697317
0.000693861
0.000543116
0.000511377
0.000475707
0.000462302
0.000436529
0.000438114
0.000421138
0.000433243
0.000423352
0.000441513
0.000436838
0.000457543
0.000456469
0.000477389
0.000478715
0.000498484
0.000501384
0.000519283
0.000523216
0.000538921
0.00054354
0.000556957
0.000562046
0.00057321
0.000578632
0.000587647
0.00059332
0.000600324
0.000606196
0.000611342
0.000617383
0.000620824
0.000627015
0.000628903
0.000635233
0.000635711
0.000642172
0.000641377
0.000647961
0.000646021
0.00061736
0.000578792
0.000540451
0.000518642
0.000488129
0.000480629
0.000457256
0.00046087
0.000443692
0.000454928
0.000442817
0.000458495
0.000450322
0.000467966
0.000462753
0.000480653
0.000477635
0.000494716
0.000493332
0.00050897
0.000508821
0.000522698
0.000523505
0.000535491
0.000537061
0.000547141
0.00054934
0.000557568
0.000560301
0.00056677
0.000569969
0.00057479
0.000578405
0.000581699
0.000585693
0.000587581
0.000591923
0.000592525
0.000597191
0.000596622
0.00068504
0.000640216
0.000600178
0.000570887
0.000537274
0.000521535
0.000493766
0.00048919
0.000466662
0.000470571
0.000452613
0.000462345
0.000448242
0.00046146
0.000450522
0.000465392
0.00045701
0.000472213
0.000465889
0.000480547
0.000475889
0.000489457
0.000486169
0.000498335
0.000496192
0.000506806
0.000505639
0.000514649
0.000514331
0.000521755
0.000522186
0.000528078
0.000529183
0.000533621
0.000535337
0.000538411
0.000540689
0.000542496
0.000545294
0.000545929
0.0007459
0.000695323
0.000654339
0.000618303
0.000582807
0.000559588
0.000528992
0.000516692
0.000490508
0.000487049
0.000464832
0.000468069
0.000449373
0.000457273
0.000441657
0.000452452
0.000439494
0.000451772
0.000441092
0.000453802
0.000445071
0.000457476
0.000450421
0.000462036
0.000456433
0.000466959
0.000462628
0.000471897
0.000468692
0.000476629
0.000474431
0.000481021
0.000479732
0.000485
0.000484539
0.000488534
0.000488834
0.000491617
0.000492623
0.000494266
0.000799701
0.000743851
0.000702539
0.000660395
0.00062397
0.000593946
0.000561775
0.000542267
0.000513875
0.000503218
0.000478235
0.00047472
0.000452833
0.000454773
0.000435701
0.000441531
0.000425008
0.000433361
0.000419134
0.000428896
0.000416731
0.000427041
0.000416724
0.000426952
0.000418292
0.000428
0.000420831
0.000429731
0.000423907
0.000431822
0.000427217
0.000434051
0.000430556
0.000436269
0.00043379
0.000438378
0.000436835
0.00044032
0.000439646
0.000442064
0.000846215
0.00078558
0.000744492
0.000696825
0.000660255
0.000624032
0.000591312
0.000565102
0.000535733
0.00051815
0.000491762
0.000481434
0.000457748
0.000453317
0.000432119
0.000432272
0.000413386
0.000416907
0.000400177
0.000405993
0.000391274
0.000398488
0.000385641
0.000393535
0.000382423
0.000390452
0.000380947
0.000388712
0.000380689
0.000387914
0.000381256
0.000387757
0.000382356
0.000388021
0.000383777
0.000388543
0.000385368
0.000389205
0.000387025
0.000389925
0.00088522
0.000820344
0.000779996
0.000727375
0.000691327
0.00064944
0.000617032
0.000584555
0.000555278
0.000531032
0.00050449
0.000487385
0.000463266
0.000452224
0.000430302
0.000424256
0.000404371
0.000402293
0.00038433
0.000385265
0.000369135
0.000372229
0.000357854
0.000362375
0.000349679
0.000355027
0.000343929
0.00034963
0.000340046
0.000345738
0.000337577
0.000342996
0.000336164
0.000341128
0.000335528
0.000339912
0.00033545
0.000339169
0.000335764
0.000338757
0.000916507
0.000848071
0.000808963
0.000751944
0.00071698
0.000669785
0.000638458
0.000599886
0.000571738
0.000540977
0.000515509
0.00049171
0.000468521
0.000450793
0.000429594
0.000417045
0.000397641
0.000389406
0.000371671
0.000366934
0.000350791
0.000348798
0.000334198
0.00033427
0.000321176
0.000322724
0.000311101
0.000313627
0.000303434
0.000306531
0.000297716
0.000301066
0.000293561
0.000296925
0.000290645
0.000293852
0.000288694
0.000291618
0.000287473
0.000290007
0.000939955
0.000868964
0.000831505
0.000770364
0.000736984
0.000683826
0.000654701
0.000609825
0.000584073
0.000546927
0.000523853
0.000493586
0.000472704
0.00044844
0.000429412
0.000410327
0.000392921
0.000378255
0.000362315
0.00035137
0.0003368
0.000328935
0.000315679
0.000310311
0.000298339
0.000294944
0.000284241
0.000282357
0.000272914
0.000272143
0.000263942
0.000263955
0.000256963
0.000257501
0.000251653
0.000252528
0.000247713
0.000248804
0.00024484
0.000246061
0.000956091
0.000884277
0.000848137
0.000777898
0.000748949
0.00068864
0.000663815
0.000612877
0.000591078
0.000548146
0.000528792
0.000492662
0.000475363
0.000445049
0.000429513
0.000404196
0.000390199
0.000369179
0.000356553
0.000339222
0.000327845
0.000313662
0.00030345
0.000291931
0.000282833
0.000273542
0.000265534
0.00025808
0.000251153
0.000245191
0.000239346
0.000234578
0.000229812
0.000225998
0.000222287
0.000219257
0.000216516
0.000214194
0.000212186
0.000210633
0.000972108
0.000865839
0.000846961
0.000767324
0.000747885
0.000682826
0.000664399
0.000609391
0.000592686
0.000545447
0.000530681
0.0004898
0.000476944
0.000441429
0.000430346
0.000399433
0.000389951
0.000363021
0.00035497
0.000331502
0.00032473
0.000304274
0.000298658
0.000280816
0.000276264
0.000260677
0.000257129
0.000243468
0.000240898
0.000228856
0.000227274
0.000216556
0.000216009
0.000206336
0.000206913
0.000198037
0.000199862
0.000191636
0.000194829
0.000187421
0.000199343
0.000177636
0.000214278
0.000194027
0.00024871
0.000225935
0.000293432
0.000267049
0.000343665
0.000313174
0.000396687
0.000361837
0.000450888
0.000411583
0.000505262
0.000461516
0.000559141
0.000511052
0.000612049
0.000559794
0.000663628
0.000607456
0.000713587
0.000653826
0.000761678
0.000698739
0.000807668
0.000742063
0.000851321
0.000783688
0.000892371
0.000823515
0.000930482
0.000861458
0.000965178
0.000897452
0.000995673
0.000931507
0.00102024
0.000963845
0.00018799
0.000173975
0.000205629
0.000191481
0.00023972
0.00022325
0.000283624
0.000263698
0.000332836
0.000308883
0.000384725
0.000356445
0.00043774
0.000404979
0.000490912
0.000453613
0.000543596
0.000501775
0.000595337
0.000549068
0.00064579
0.000595208
0.000694684
0.000639983
0.00074179
0.000683227
0.000786902
0.000724805
0.000829819
0.000764601
0.000870324
0.000802502
0.000908154
0.000838385
0.000942946
0.000872089
0.000974106
0.000903343
0.00100039
0.000931535
0.000184447
0.000175412
0.000202243
0.000192864
0.000234795
0.000223397
0.000276717
0.000262158
0.000323893
0.000305541
0.000373793
0.000351296
0.000424893
0.00039805
0.000476237
0.000444937
0.000527188
0.000491381
0.000577295
0.000536983
0.000626225
0.000581455
0.000673716
0.000624582
0.000719555
0.0006662
0.000763555
0.000706176
0.000805544
0.0007444
0.000845341
0.000780767
0.000882741
0.000815164
0.00091747
0.000847451
0.000949111
0.000877405
0.000976847
0.00090458
0.000186274
0.000180601
0.000202956
0.000197206
0.000233198
0.000225815
0.000272418
0.000262261
0.000316908
0.000303296
0.000364259
0.000346789
0.000412967
0.000391394
0.000462072
0.000436239
0.000510932
0.00048074
0.000559094
0.000524488
0.000606225
0.000567186
0.000652068
0.000608614
0.000696418
0.000648607
0.000739104
0.000687033
0.000779972
0.000723786
0.00081887
0.000758771
0.000855635
0.000791893
0.000890062
0.000823038
0.000921858
0.000852046
0.000950494
0.00087863
0.000191812
0.000188455
0.000206828
0.000203782
0.000234346
0.000230099
0.000270471
0.000263887
0.000311898
0.000302256
0.000356357
0.000343211
0.000402373
0.000385434
0.000448977
0.000428051
0.000495517
0.000470464
0.000541529
0.00051225
0.000586676
0.000553104
0.000630699
0.000592798
0.0006734
0.000631161
0.000714613
0.000668061
0.000754198
0.000703393
0.000792026
0.000737068
0.000827963
0.000769006
0.000861856
0.000799117
0.000893493
0.000827284
0.00092253
0.000853319
0.000199888
0.000198153
0.000213096
0.000212032
0.000237761
0.000235928
0.000270636
0.000266919
0.000308822
0.000302472
0.000350207
0.00034074
0.000393359
0.000380449
0.000437308
0.000420727
0.000481387
0.000460965
0.000525123
0.000500727
0.000568168
0.000539697
0.000610261
0.000577636
0.0006512
0.000614368
0.000690827
0.000649756
0.000729008
0.000683697
0.000765628
0.000716104
0.000800578
0.000746906
0.000833736
0.000776029
0.000864952
0.000803388
0.000893995
0.000828854
0.000209676
0.000209095
0.000221149
0.000221521
0.000243029
0.000243029
0.000272674
0.000271227
0.000307586
0.000303934
0.000345834
0.000339464
0.000386047
0.000376603
0.000427264
0.00041449
0.00046881
0.00045251
0.000510201
0.000490218
0.000551078
0.000527284
0.000591174
0.000563463
0.000630285
0.000598569
0.00066825
0.000632462
0.000704942
0.000665034
0.000740255
0.000696201
0.000774093
0.000725896
0.000806361
0.000754056
0.000836948
0.000780616
0.000865696
0.000805488
0.000220599
0.000220854
0.000230506
0.00023191
0.00024979
0.000251157
0.000276344
0.000276669
0.000308055
0.000306587
0.000343193
0.000339402
0.000380465
0.000373972
0.000418935
0.000409461
0.000457926
0.000445256
0.000496946
0.000480904
0.000535628
0.000516067
0.000573697
0.000550492
0.000610943
0.000583984
0.000647204
0.000616398
0.000682354
0.000647622
0.000716291
0.000677572
0.000748931
0.000706182
0.000780194
0.000733396
0.000809996
0.000759162
0.000838228
0.000783418
0.000232255
0.000233125
0.000240793
0.000242934
0.000257728
0.000260102
0.000281405
0.000283091
0.000310065
0.00031034
0.000342186
0.000340516
0.000376573
0.000372565
0.000412327
0.000405685
0.000448781
0.000439274
0.000485438
0.000472878
0.000521927
0.000506155
0.000557965
0.000538841
0.000593336
0.000570737
0.000627875
0.000601692
0.000661455
0.000631589
0.000693977
0.000660342
0.00072536
0.000687885
0.000755537
0.000714166
0.000784442
0.000739142
0.000812
0.000762766
0.000244362
0.000245691
0.000251725
0.000254387
0.000266577
0.000269678
0.000287628
0.000290341
0.000313436
0.000315081
0.000342683
0.000342734
0.000374282
0.000372343
0.000407388
0.000403152
0.000441353
0.000434578
0.000475683
0.000466172
0.000510003
0.000497588
0.000544026
0.00052856
0.000577532
0.000558884
0.000610351
0.000588401
0.000642354
0.000616992
0.00067344
0.000644568
0.000703534
0.00067106
0.000732573
0.000696419
0.000760504
0.000720606
0.000787272
0.000743586
0.000256721
0.000258395
0.000263083
0.000266108
0.00027611
0.000279723
0.000294801
0.000298271
0.000317982
0.000320683
0.000344528
0.000345956
0.000373472
0.000373233
0.000404027
0.000401811
0.000435575
0.000431135
0.000467633
0.000460766
0.000499828
0.00049036
0.000531869
0.000519651
0.000563534
0.000548429
0.000594649
0.000576533
0.00062508
0.000603839
0.000654728
0.000630255
0.000683516
0.000655711
0.000711386
0.000680157
0.000738292
0.000703556
0.000764192
0.000725881
0.000269186
0.000271121
0.000274701
0.000277973
0.000286141
0.000290103
0.00030273
0.000306744
0.000323519
0.000327018
0.00034756
0.00035007
0.000374
0.00037514
0.000402124
0.000401586
0.000431346
0.000428883
0.000461205
0.000456609
0.000491331
0.000484429
0.000521436
0.000512076
0.000551295
0.000539339
0.000580732
0.000566056
0.000609611
0.000592099
0.000637829
0.000617372
0.000665309
0.000641803
0.000691994
0.000665342
0.000717843
0.000687954
0.000742822
0.000709612
0.000281651
0.000283782
0.000286449
0.000289879
0.000296515
0.000300699
0.000311244
0.000315632
0.000329875
0.00033396
0.000351613
0.000354957
0.000375717
0.000377956
0.000401541
0.000402378
0.000428546
0.000427735
0.000456289
0.000453626
0.000484415
0.000479725
0.00051264
0.000505772
0.000540737
0.000531556
0.000568531
0.000556913
0.000595883
0.000581714
0.000622688
0.000605861
0.000648868
0.000629279
0.000674364
0.000651916
0.000699138
0.000673736
0.000723161
0.000694717
0.000294037
0.00029631
0.000298226
0.000301747
0.000307102
0.000311414
0.000320195
0.000324823
0.00033689
0.000341387
0.000356527
0.000360494
0.000378466
0.000381565
0.000402135
0.00040408
0.000427038
0.000427591
0.000452761
0.000451723
0.000478965
0.000476163
0.000505372
0.000500658
0.000531759
0.000525001
0.000557951
0.000549029
0.000583808
0.00057261
0.000609223
0.000595646
0.000634116
0.00061806
0.000658428
0.000639798
0.00068212
0.000660824
0.000705165
0.000681114
0.000306277
0.000308649
0.000309949
0.000313509
0.000317797
0.00032216
0.000329452
0.000334213
0.000344419
0.000349186
0.000362149
0.000366565
0.000382097
0.000385849
0.000403757
0.000406578
0.000426681
0.000428343
0.000450487
0.000450797
0.000474852
0.000473643
0.00049951
0.000496639
0.000524245
0.000519582
0.000548882
0.000542312
0.00057328
0.000564698
0.000597333
0.00058664
0.000620958
0.000608059
0.000644096
0.0006289
0.000666705
0.000649125
0.00068876
0.000668711
0.000318322
0.000320754
0.000321552
0.000325107
0.00032851
0.000332863
0.000338902
0.00034371
0.000352329
0.000357251
0.000368338
0.000373056
0.000386462
0.000390693
0.000406261
0.000409756
0.000427333
0.000429878
0.000449327
0.000450738
0.000471943
0.00047206
0.000494927
0.000493612
0.00051807
0.000515201
0.000541201
0.000536667
0.000564182
0.000557882
0.000586904
0.000578746
0.000609285
0.00059918
0.000631262
0.000619127
0.000652794
0.000638546
0.000673853
0.000657414
0.000330125
0.000332584
0.000332978
0.000336491
0.000339162
0.000343458
0.000348446
0.000353231
0.000360504
0.000365485
0.000374961
0.000379859
0.000391423
0.000395982
0.000409505
0.000413499
0.000428851
0.00043208
0.000449142
0.000451434
0.0004701
0.000471304
0.000491487
0.000491471
0.000513103
0.000511751
0.000534782
0.000531989
0.000556389
0.000552061
0.000577815
0.000571865
0.000598978
0.000591325
0.000619813
0.000610379
0.000640277
0.000628987
0.000660341
0.000647123
0.000341646
0.000344101
0.000344175
0.000347615
0.000349687
0.000353883
0.000357996
0.000362701
0.000368838
0.000373799
0.0003819
0.000386875
0.000396849
0.00040161
0.000413353
0.000417695
0.000431097
0.000434837
0.000449794
0.000452771
0.000469188
0.000471262
0.000489057
0.000490105
0.000509213
0.000509124
0.000529496
0.000528173
0.000549775
0.000547129
0.000569943
0.000565895
0.000589916
0.00058439
0.00060963
0.000602556
0.00062904
0.00062035
0.000648114
0.000637743
0.000352849
0.000355269
0.000355097
0.000358434
0.000360022
0.000364084
0.000367473
0.00037205
0.000377233
0.00038211
0.000389043
0.000394008
0.00040262
0.000407474
0.000417678
0.000422236
0.000433939
0.000438037
0.000451148
0.000454638
0.000469071
0.000471823
0.000487503
0.000489402
0.000506268
0.000507212
0.000525213
0.000525111
0.000544212
0.000542983
0.000563161
0.00056073
0.000581976
0.000578275
0.000600593
0.000595559
0.000618964
0.000612537
0.000637057
0.000629177
0.000363695
0.000366052
0.000365702
0.000368909
0.000370114
0.000374008
0.000376807
0.000381213
0.000385605
0.000390339
0.00039629
0.00040117
0.000408623
0.000413475
0.000422357
0.000427019
0.00043725
0.000441573
0.000453074
0.000456925
0.000469618
0.000472877
0.000486694
0.000489255
0.000504137
0.000505906
0.000521803
0.000522697
0.000539572
0.000539515
0.000557343
0.000556268
0.000575034
0.000572879
0.000592581
0.000589288
0.000609933
0.00060545
0.000627057
0.000621332
0.00037415
0.000376416
0.000375947
0.000378996
0.000379907
0.000383606
0.000385931
0.00039013
0.000393871
0.000398415
0.000403546
0.000408278
0.000414752
0.000419523
0.000427277
0.000431944
0.000440911
0.000445342
0.000455449
0.000459525
0.000470703
0.000474316
0.000486502
0.000489554
0.000502692
0.000505098
0.00051914
0.000520824
0.000535731
0.000536623
0.000552367
0.000552407
0.00056897
0.000568101
0.000585474
0.000583646
0.00060183
0.000598995
0.000618001
0.000614115
0.000384177
0.000386322
0.00038579
0.000388656
0.000389353
0.000392827
0.000394783
0.00039874
0.000401958
0.000406267
0.000410724
0.000415253
0.000420909
0.000425529
0.000432332
0.000436918
0.000444806
0.000449244
0.000458154
0.000462336
0.000472205
0.000476035
0.000486804
0.000490195
0.000501811
0.000504685
0.0005171
0.000519388
0.000532564
0.000534204
0.000548111
0.000549047
0.000563662
0.000563844
0.000579155
0.000578537
0.00059454
0.00059308
0.000609777
0.000607437
0.000393735
0.000395731
0.000395188
0.000397844
0.000398401
0.000401622
0.000403303
0.000406987
0.000409793
0.000413829
0.000417742
0.000422019
0.000427003
0.00043141
0.000437419
0.000441849
0.000448829
0.000453183
0.000461076
0.000465259
0.000474007
0.000477934
0.000487482
0.000491076
0.000501372
0.000504563
0.000515564
0.000518289