/*--------------------------------*- C++ -*----------------------------------*\
| =========                 |                                                 |
| \\      /  F ield         | OpenFOAM: The Open Source CFD Toolbox           |
|  \\    /   O peration     | Version:  v2012                                 |
|   \\  /    A nd           | Website:  www.openfoam.com                      |
|    \\/     M anipulation  |                                                 |
\*---------------------------------------------------------------------------*/
FoamFile
{
    version     2.0;
    format      ascii;
    class       pointSymmTensorField;
    location    "4";
    object      pEpsilon;
}
// * * * * * * * * * * * * * * * * * * * * * * * * * * * * * * * * * * * * * //

dimensions      [0 0 0 0 0 0 0];


internalField   nonuniform List<symmTensor> 
8282
(
(0.000425131 -2.78331e-05 7.48099e-17 -0.00112346 0 0)
(0.000598827 -4.68193e-06 -4.72712e-16 -5.93321e-05 0 0)
(0.000694112 4.14321e-07 -1.02349e-15 -0.000297552 2.75035e-15 0)
(0.000495313 3.25405e-05 0 -0.000222031 -1.88651e-15 0)
(0.00302954 -3.00481e-05 0 -0.0012871 1.06702e-14 0)
(0.000146501 -2.57656e-05 -1.14925e-16 -0.000183683 0 0)
(0.00119731 4.02537e-05 0 -0.000364111 2.33103e-16 0)
(0.00105138 -0.000185006 -1.65016e-15 -0.00064889 2.62323e-15 0)
(0.00120654 5.43398e-06 -3.03821e-15 -0.000512241 2.18413e-15 0)
(0.000655361 -9.22416e-06 6.47269e-16 -0.00020287 -3.06287e-17 0)
(0.000213942 -0.000385127 -1.00722e-15 8.95815e-05 1.23247e-15 0)
(0.000213942 -0.000385127 -1.00722e-15 8.95815e-05 1.23247e-15 0)
(0.00105138 -0.000185006 -1.65016e-15 -0.00064889 2.62323e-15 0)
(0.00119731 4.02537e-05 0 -0.000364111 2.33103e-16 0)
(0.00302954 -3.00481e-05 0 -0.0012871 1.06702e-14 0)
(0.000425131 -2.78331e-05 7.48099e-17 -0.00112346 0 0)
(0.000146501 -2.57656e-05 -1.14925e-16 -0.000183683 0 0)
(0.000598827 -4.68193e-06 -4.72712e-16 -5.93321e-05 0 0)
(0.000655361 -9.22416e-06 6.47269e-16 -0.00020287 -3.06287e-17 0)
(0.000694112 4.14321e-07 -1.02349e-15 -0.000297552 2.75035e-15 0)
(0.00120654 5.43398e-06 -3.03821e-15 -0.000512241 2.18413e-15 0)
(0.000495313 3.25405e-05 0 -0.000222031 -1.88651e-15 0)
(0.00118685 3.66411e-05 1.94282e-15 -0.000375832 -4.21213e-16 0)
(0.00119225 7.37516e-05 3.13538e-15 -0.000383229 1.95698e-16 0)
(0.00120067 0.000108434 1.16071e-15 -0.000394809 5.94685e-16 0)
(0.00121176 0.000139139 2.4255e-15 -0.0004104 2.34892e-15 0)
(0.0012248 0.000164696 2.05361e-15 -0.00042955 3.44505e-15 0)
(0.0012389 0.000184154 -1.23328e-16 -0.000451656 -1.65612e-15 0)
(0.00125308 0.000196799 -5.9089e-17 -0.000475995 -9.38323e-15 0)
(0.00126627 0.000202171 -3.71231e-15 -0.000501754 4.10804e-15 0)
(0.00127744 0.000200081 -3.59765e-15 -0.000528064 4.938e-15 0)
(0.00128555 0.000190607 -2.675e-15 -0.000554039 1.28478e-16 0)
(0.00128971 0.000174081 1.27665e-15 -0.000578808 3.17021e-15 0)
(0.00128912 0.000151056 -3.51498e-15 -0.000601549 -3.40331e-15 0)
(0.00128313 0.000122282 2.11962e-16 -0.000621517 -3.23634e-15 0)
(0.00127126 8.86556e-05 -9.77408e-16 -0.000638074 2.35868e-15 0)
(0.00125322 5.11901e-05 -4.16225e-15 -0.000650714 2.42211e-15 0)
(0.00122891 1.09869e-05 2.77664e-15 -0.000659104 2.06215e-15 0)
(0.00119849 -3.07259e-05 -1.01367e-14 -0.000663153 5.53431e-15 0)
(0.00116249 -7.22741e-05 -3.71773e-15 -0.000663212 -1.26011e-15 0)
(0.0011221 -0.000109381 1.32327e-15 -0.000660984 2.17464e-15 0)
(0.000994887 -0.000231493 -1.50487e-15 -0.000609315 3.49357e-15 0)
(0.000940911 -0.00026402 -4.72712e-16 -0.00059849 2.05863e-15 0)
(0.000882954 -0.000292016 -1.98843e-15 -0.000579169 2.77258e-15 0)
(0.00082228 -0.000315168 -9.95298e-16 -0.000554733 2.18467e-15 0)
(0.000759882 -0.000333081 -2.66063e-15 -0.00052673 1.84762e-15 0)
(0.000696664 -0.000345436 4.78133e-16 -0.000496198 1.1498e-15 0)
(0.000633491 -0.000352023 4.98733e-17 -0.000463985 1.28749e-15 0)
(0.000571201 -0.000352737 -1.28586e-15 -0.000430851 -1.94621e-15 0)
(0.000510602 -0.000347578 -7.42678e-16 -0.00039751 -5.83978e-16 0)
(0.000452473 -0.000336645 2.40693e-16 -0.000364637 -5.71646e-16 0)
(0.000397554 -0.000320132 1.84314e-16 -0.000332872 -8.06985e-16 0)
(0.000346545 -0.000298323 -1.59378e-16 -0.000302822 -4.74677e-17 0)
(0.0003001 -0.000271583 2.1684e-17 -0.000275053 -2.58006e-16 0)
(0.000258825 -0.000240354 -8.67362e-17 -0.000250088 -3.23939e-16 0)
(0.000223273 -0.000205146 -3.14419e-17 -0.000228413 -1.00661e-16 0)
(0.000193953 -0.00016653 5.09575e-17 -0.000210473 -6.78643e-17 0)
(0.000171342 -0.000125116 -4.66207e-17 -0.000196691 5.19231e-17 0)
(0.00015595 -8.14667e-05 -4.98733e-17 -0.000187503 -7.87741e-18 0)
(0.000148619 -3.56006e-05 -1.84314e-17 -0.000183404 -5.73018e-18 0)
(0.000391479 -3.11351e-05 9.43256e-16 -0.000990683 0 0)
(0.000339378 -2.79102e-05 1.52439e-15 -0.000884731 0 0)
(0.000294757 -2.67369e-05 2.31152e-15 -0.000793284 0 0)
(0.000256852 -2.65485e-05 4.36933e-16 -0.00071312 0 0)
(0.000225071 -2.68078e-05 -1.2284e-15 -0.000642436 0 0)
(0.000198796 -2.72395e-05 -3.89229e-16 -0.000579932 0 0)
(0.000177401 -2.77026e-05 -7.15573e-16 -0.000524559 0 0)
(0.000160289 -2.81256e-05 -2.34188e-16 -0.000475436 0 0)
(0.000146909 -2.84738e-05 -4.38018e-16 -0.000431802 0 0)
(0.000136762 -2.8731e-05 -5.67038e-16 -0.000393004 0 0)
(0.000129406 -2.889e-05 -5.29091e-16 -0.000358472 0 0)
(0.000124449 -2.89469e-05 -5.75711e-16 -0.000327714 0 0)
(0.000121546 -2.88974e-05 -4.13081e-16 -0.0003003 0 0)
(0.000120395 -2.87341e-05 -2.87314e-16 -0.000275864 0 0)
(0.000120732 -2.8445e-05 -1.27936e-16 -0.000254092 0 0)
(0.000122329 -2.80127e-05 -4.22839e-17 -0.00023473 0 0)
(0.000125005 -2.74155e-05 -4.55365e-17 -0.000217595 0 0)
(0.000128649 -2.66371e-05 -1.30104e-16 -0.000202614 0 0)
(0.000133302 -2.56983e-05 -1.36609e-16 -0.000189937 0 0)
(0.000161584 -2.37693e-05 -4.11997e-17 -0.000160903 0 0)
(0.000175085 -2.37855e-05 1.95156e-17 -0.000135768 0 0)
(0.00019195 -2.26721e-05 -6.93889e-17 -0.000117168 0 0)
(0.000210592 -2.12198e-05 -1.21431e-16 -0.000103535 0 0)
(0.000230119 -1.97266e-05 -1.36609e-16 -9.37419e-05 0 0)
(0.000249992 -1.83018e-05 -1.53957e-16 -8.69556e-05 0 0)
(0.000269875 -1.69812e-05 -7.69784e-17 -8.25484e-05 0 0)
(0.000289552 -1.57714e-05 -2.9165e-16 -8.00412e-05 0 0)
(0.000308886 -1.46685e-05 -2.33103e-16 -7.9063e-05 0 0)
(0.000327789 -1.36644e-05 2.59124e-16 -7.9322e-05 0 0)
(0.000346207 -1.27502e-05 4.87891e-16 -8.05847e-05 0 0)
(0.000364107 -1.1917e-05 4.4127e-16 -8.26608e-05 0 0)
(0.000381469 -1.11568e-05 -3.51282e-16 -8.53924e-05 0 0)
(0.000398282 -1.04623e-05 2.49366e-16 -8.86454e-05 0 0)
(0.000414543 -9.82685e-06 7.01479e-16 -9.23039e-05 0 0)
(0.000430248 -9.24473e-06 -1.12757e-16 -9.62653e-05 0 0)
(0.000445396 -8.71078e-06 1.34658e-15 -0.000100437 0 0)
(0.000459985 -8.22045e-06 -1.27719e-15 -0.000104735 0 0)
(0.000474011 -7.76968e-06 -3.94975e-15 -0.000109078 0 0)
(0.00048747 -7.35491e-06 -1.47777e-15 -0.000113392 0 0)
(0.000500356 -6.97292e-06 6.34258e-16 -0.000117603 0 0)
(0.000512658 -6.62082e-06 -2.56522e-15 -0.000121639 0 0)
(0.000524365 -6.29601e-06 -1.56776e-15 -0.000125428 0 0)
(0.000535461 -5.99608e-06 -1.29454e-15 -0.000128899 0 0)
(0.000545926 -5.71881e-06 -1.31839e-15 -0.000131979 0 0)
(0.000555738 -5.46211e-06 8.08815e-16 -0.00013459 0 0)
(0.000564866 -5.22399e-06 7.22079e-16 -0.000136654 0 0)
(0.000573279 -5.00251e-06 -3.49113e-16 -0.000138086 0 0)
(0.000580936 -4.79581e-06 -5.3668e-16 -0.000138796 0 0)
(0.00058779 -4.60205e-06 2.72243e-15 -0.000138686 0 0)
(0.000593784 -4.4195e-06 1.45392e-15 -0.00013765 0 0)
(0.000598856 -4.24667e-06 5.00901e-16 -0.00013557 0 0)
(0.000602931 -4.08256e-06 1.02023e-15 -0.000132317 0 0)
(0.000605925 -3.92745e-06 4.02239e-16 -0.000127747 0 0)
(0.000607748 -3.78463e-06 5.93059e-16 -0.000121702 0 0)
(0.000608307 -3.66483e-06 6.10406e-16 -0.000114007 0 0)
(0.000607529 -3.59798e-06 -2.17925e-15 -0.000104468 0 0)
(0.000605403 -3.66682e-06 -9.97466e-16 -9.28625e-05 0 0)
(0.000602075 -4.11781e-06 1.23599e-16 -7.88e-05 0 0)
(0.000597318 1.11935e-07 2.62377e-16 -5.83712e-05 -2.71638e-16 0)
(0.000598254 6.0525e-07 1.10372e-15 -6.04619e-05 -6.17635e-17 0)
(0.000599358 1.74999e-07 2.28116e-15 -6.2888e-05 5.24186e-16 0)
(0.000600767 -4.22038e-07 -3.29597e-16 -6.60921e-05 3.18505e-15 0)
(0.000602502 -1.06214e-06 1.18395e-15 -7.01451e-05 2.82197e-16 0)
(0.000604562 -1.71442e-06 -2.19009e-16 -7.50423e-05 5.90975e-17 0)
(0.000606937 -2.36877e-06 5.61617e-16 -8.07555e-05 -1.72786e-16 0)
(0.000609612 -3.0207e-06 1.27936e-16 -8.72466e-05 -5.87578e-16 0)
(0.00061257 -3.66713e-06 -3.05745e-16 -9.4471e-05 8.48168e-16 0)
(0.00061579 -4.30509e-06 -2.31152e-15 -0.00010238 -3.45149e-16 0)
(0.000619249 -4.93134e-06 5.83301e-16 -0.000110918 -1.68526e-16 0)
(0.000622925 -5.5423e-06 -1.29237e-15 -0.000120029 7.41459e-16 0)
(0.00062679 -6.13409e-06 -7.48099e-16 -0.000129649 6.61329e-16 0)
(0.000630817 -6.70284e-06 -3.42608e-16 -0.000139712 5.18147e-16 0)
(0.000634978 -7.2451e-06 7.71952e-16 -0.000150149 -1.28783e-15 0)
(0.000639239 -7.75894e-06 -1.867e-15 -0.000160888 -6.14844e-16 0)
(0.000643564 -8.24638e-06 1.23599e-16 -0.000171853 -1.03711e-16 0)
(0.000647902 -8.72191e-06 -1.60462e-16 -0.000182962 -9.54166e-16 0)
(0.000652108 -9.26151e-06 1.02566e-15 -0.000194071 -2.74002e-15 0)
(0.000657856 -8.96581e-06 1.65883e-15 -0.000209013 4.95887e-16 0)
(0.000659914 -9.18086e-06 6.75458e-16 -0.000213867 -1.8201e-16 0)
(0.000661898 -9.24577e-06 2.81893e-16 -0.000218695 -4.88298e-16 0)
(0.000663837 -9.23398e-06 4.2826e-16 -0.000223482 4.66071e-16 0)
(0.000665742 -9.17641e-06 1.88651e-16 -0.000228213 2.92667e-16 0)
(0.000667615 -9.0868e-06 -2.20093e-16 -0.000232878 4.10777e-16 0)
(0.000669454 -8.97156e-06 4.99817e-16 -0.000237465 4.54552e-16 0)
(0.000671257 -8.83375e-06 7.28584e-16 -0.000241965 3.68832e-16 0)
(0.000673022 -8.67486e-06 1.00722e-15 -0.000246368 1.28824e-15 0)
(0.000674745 -8.49556e-06 5.31259e-16 -0.000250666 9.38174e-16 0)
(0.000676423 -8.2961e-06 2.69966e-16 -0.000254848 -2.22871e-16 0)
(0.000678053 -8.0765e-06 6.70037e-16 -0.000258906 2.8257e-17 0)
(0.000679631 -7.83669e-06 -3.90313e-17 -0.000262831 -3.72491e-16 0)
(0.000681154 -7.57652e-06 -1.86483e-16 -0.000266614 1.95631e-16 0)
(0.000682619 -7.29587e-06 1.6263e-16 -0.000270245 -5.18316e-16 0)
(0.000684022 -6.99465e-06 -4.88975e-16 -0.000273716 -5.69613e-16 0)
(0.00068536 -6.67279e-06 -1.44741e-15 -0.000277018 -1.34556e-15 0)
(0.00068663 -6.33033e-06 -7.49184e-16 -0.000280142 -1.71941e-15 0)
(0.000687829 -5.96744e-06 -9.54098e-16 -0.00028308 -2.09827e-15 0)
(0.000688955 -5.58439e-06 -1.19371e-15 -0.000285824 -8.76239e-16 0)
(0.000690003 -5.18167e-06 2.85145e-16 -0.000288364 -9.8161e-16 0)
(0.000690973 -4.75998e-06 -8.55436e-16 -0.000290694 -8.09086e-17 0)
(0.00069186 -4.32036e-06 -1.20672e-15 -0.000292807 -3.5223e-16 0)
(0.000692663 -3.86418e-06 -1.30104e-16 -0.000294696 1.3146e-17 0)
(0.00069338 -3.39335e-06 7.10152e-16 -0.000296355 -5.5213e-16 0)
(0.000694008 -2.91036e-06 1.76725e-16 -0.000297781 -5.5606e-16 0)
(0.000694547 -2.4185e-06 -1.40404e-15 -0.000298969 -1.16105e-15 0)
(0.000694996 -1.92203e-06 -7.11237e-16 -0.000299919 -1.4363e-15 0)
(0.000695353 -1.42647e-06 2.34188e-16 -0.00030063 -2.50491e-15 0)
(0.000695618 -9.38904e-07 7.275e-16 -0.000301106 -3.59223e-15 0)
(0.000695792 -4.6834e-07 2.19659e-15 -0.000301353 -1.9002e-15 0)
(0.000695875 -2.61996e-08 1.34224e-15 -0.000301381 -2.10091e-15 0)
(0.000695868 3.73189e-07 1.4615e-15 -0.000301206 -2.24701e-15 0)
(0.000695776 7.12051e-07 1.72388e-16 -0.000300849 -1.51111e-16 0)
(0.000695602 9.68709e-07 8.01225e-16 -0.000300339 3.38407e-16 0)
(0.000695353 1.11744e-06 9.20488e-16 -0.000299715 5.45083e-16 0)
(0.000695043 1.12918e-06 3.90313e-16 -0.000299031 5.67986e-16 0)
(0.000694695 9.74268e-07 6.92805e-16 -0.000298355 2.37074e-15 0)
(0.000694354 6.29983e-07 1.26093e-15 -0.000297783 1.99629e-15 0)
(0.000693521 5.01255e-07 4.52112e-16 -0.000297306 6.09457e-16 0)
(0.000692005 5.22225e-07 4.68375e-16 -0.000297048 -1.33628e-15 0)
(0.000691627 2.9208e-07 -1.75641e-16 -0.000297301 1.66967e-16 0)
(0.00069322 -5.0563e-08 -5.34512e-16 -0.000298303 1.2513e-15 0)
(0.000697033 -4.31396e-07 -4.77049e-16 -0.000300149 1.87919e-15 0)
(0.000703071 -8.18641e-07 -5.26922e-16 -0.000302857 -2.02597e-15 0)
(0.000711238 -1.19914e-06 -1.44416e-15 -0.000306405 -2.40517e-15 0)
(0.000721404 -1.5679e-06 -2.43187e-15 -0.000310752 1.14695e-15 0)
(0.00073343 -1.92363e-06 -5.80048e-16 -0.000315851 1.78893e-17 0)
(0.000747186 -2.26682e-06 -1.91904e-15 -0.000321653 -2.13181e-16 0)
(0.000762551 -2.59869e-06 -8.99888e-16 -0.000328114 3.06287e-16 0)
(0.000779419 -2.92067e-06 -1.08203e-15 -0.000335193 -5.50097e-16 0)
(0.000797696 -3.23409e-06 -8.76035e-16 -0.000342852 -2.20635e-15 0)
(0.000817294 -3.54001e-06 -1.90169e-15 -0.000351056 2.97573e-15 0)
(0.000838135 -3.83902e-06 -7.75205e-16 -0.000359771 1.71439e-16 0)
(0.000860142 -4.13121e-06 1.50704e-16 -0.000368967 1.56749e-15 0)
(0.000883236 -4.41607e-06 -1.4203e-16 -0.000378608 2.53148e-15 0)
(0.000907335 -4.6924e-06 -1.52873e-16 -0.000388659 -5.40746e-16 0)
(0.000932346 -4.95823e-06 2.04372e-15 -0.000399079 1.44009e-15 0)
(0.000958166 -5.21081e-06 4.40186e-15 -0.000409825 3.57705e-15 0)
(0.000984671 -5.44646e-06 -3.69062e-15 -0.000420841 -1.41651e-15 0)
(0.00101172 -5.66058e-06 9.56266e-16 -0.000432066 -7.24247e-15 0)
(0.00103913 -5.84751e-06 -5.30175e-15 -0.000443426 -2.33402e-15 0)
(0.00106671 -6.00056e-06 -1.02023e-15 -0.000454835 -2.03938e-15 0)
(0.00109422 -6.11189e-06 2.50234e-15 -0.000466191 2.33429e-15 0)
(0.00112138 -6.17256e-06 1.91036e-15 -0.000477376 -2.0112e-16 0)
(0.00114786 -6.17248e-06 1.7022e-15 -0.000488256 -1.50108e-15 0)
(0.0011733 -6.10054e-06 -1.52981e-15 -0.000498677 5.16595e-15 0)
(0.00119728 -5.94467e-06 -1.06198e-15 -0.000508463 -9.62772e-16 0)
(0.00121932 -5.69208e-06 3.57028e-15 -0.000517421 2.04643e-16 0)
(0.00123891 -5.32951e-06 -1.05168e-16 -0.000525339 -8.15591e-16 0)
(0.00125547 -4.84367e-06 -2.76905e-15 -0.000531984 5.00007e-15 0)
(0.00126841 -4.22185e-06 -1.94452e-15 -0.000537111 -9.06257e-15 0)
(0.00127707 -3.4526e-06 2.61835e-16 -0.000540463 -1.9784e-15 0)
(0.0012808 -2.52674e-06 3.6787e-15 -0.00054178 -1.55773e-15 0)
(0.00127895 -1.43829e-06 4.29344e-16 -0.000540804 -5.56684e-15 0)
(0.00127088 -1.84346e-07 5.93601e-16 -0.000537286 -7.79975e-15 0)
(0.00125597 1.24288e-06 -7.04189e-16 -0.000530984 -4.25007e-16 0)
(0.0012334 2.93335e-06 6.71934e-16 -0.000521515 8.2459e-15 0)
(0.00117843 6.67976e-06 -3.70987e-15 -0.000500205 -2.131e-15 0)
(0.00114759 7.30205e-06 2.24864e-15 -0.000487957 -1.20617e-15 0)
(0.0011133 7.73138e-06 1.22271e-15 -0.000474201 -9.29703e-16 0)
(0.00107559 8.1298e-06 2.36925e-15 -0.000458957 -2.0383e-16 0)
(0.00103474 8.49594e-06 -8.80914e-16 -0.000442363 1.90223e-15 0)
(0.00099116 8.82262e-06 2.36085e-16 -0.000424588 4.5916e-16 0)
(0.000945341 9.10551e-06 3.05108e-15 -0.000405845 -5.20417e-17 0)
(0.000897882 9.34161e-06 6.32767e-16 -0.000386385 4.69622e-15 0)
(0.000849475 9.52789e-06 -1.76115e-15 -0.0003665 1.32273e-16 0)
(0.000800891 9.66063e-06 1.23179e-15 -0.000346518 -5.97937e-16 0)
(0.000752964 9.73508e-06 -3.12115e-16 -0.000326799 1.11239e-15 0)
(0.000706581 9.74538e-06 -3.59006e-16 -0.000307722 -5.69206e-17 0)
(0.000662649 9.68454e-06 -7.64159e-16 -0.000289681 -5.85469e-16 0)
(0.000622078 9.5445e-06 3.01137e-16 -0.000273065 -1.80357e-15 0)
(0.00058575 9.31595e-06 4.87755e-16 -0.000258254 -6.90637e-16 0)
(0.00055449 8.98742e-06 -8.99515e-16 -0.000245596 -3.52366e-16 0)
(0.000529036 8.54262e-06 -3.04322e-16 -0.000235389 1.39862e-15 0)
(0.000509933 7.96187e-06 -3.10488e-16 -0.000227808 8.31583e-16 0)
(0.000496575 7.35911e-06 -1.15374e-15 -0.000222248 -7.86047e-16 0)
(0.000523152 3.28901e-05 0 -0.00022727 -2.23237e-15 0)
(0.000549274 3.2324e-05 0 -0.000237015 -1.71954e-15 0)
(0.000574156 3.19071e-05 0 -0.000246056 -1.58294e-15 0)
(0.000597988 3.16138e-05 0 -0.000254486 -1.38669e-15 0)
(0.000620898 3.14214e-05 0 -0.000262363 -1.10914e-15 0)
(0.000642978 3.13112e-05 0 -0.000269723 -1.05493e-15 0)
(0.000664302 3.12674e-05 0 -0.000276597 -1.36067e-15 0)
(0.000684927 3.12775e-05 0 -0.000283008 -1.6675e-15 0)
(0.000704905 3.13314e-05 0 -0.000288978 -1.67834e-15 0)
(0.000724281 3.14211e-05 0 -0.000294527 -1.47018e-15 0)
(0.000743095 3.15403e-05 0 -0.000299676 -1.27285e-15 0)
(0.000761387 3.1684e-05 0 -0.000304444 -2.40097e-15 0)
(0.000779193 3.18483e-05 0 -0.000308851 -1.95915e-15 0)
(0.000796548 3.20301e-05 0 -0.000312916 -1.50054e-15 0)
(0.000813484 3.22271e-05 0 -0.000316658 -6.38053e-16 0)
(0.000830035 3.24376e-05 0 -0.000320098 3.41524e-16 0)
(0.000846233 3.26602e-05 0 -0.000323254 6.30464e-16 0)
(0.000862108 3.28941e-05 0 -0.000326145 1.23762e-15 0)
(0.00087769 3.31385e-05 0 -0.00032879 1.16877e-15 0)
(0.000893009 3.33932e-05 0 -0.000331209 6.91179e-16 0)
(0.000908095 3.36579e-05 0 -0.000333419 2.76472e-16 0)
(0.000922978 3.39327e-05 0 -0.000335439 -1.55041e-16 0)
(0.000937685 3.42177e-05 0 -0.000337289 -1.1704e-15 0)
(0.000952247 3.45134e-05 0 -0.000338985 -1.07878e-15 0)
(0.000966692 3.48201e-05 0 -0.000340547 -2.31857e-15 0)
(0.000981049 3.51387e-05 0 -0.000341993 -1.9147e-15 0)
(0.000995347 3.54698e-05 0 -0.000343341 -1.47831e-15 0)
(0.00100962 3.58146e-05 0 -0.00034461 -2.11582e-15 0)
(0.00102389 3.61743e-05 0 -0.000345817 -8.44051e-16 0)
(0.00103819 3.65502e-05 0 -0.000346982 -7.65447e-16 0)
(0.00105256 3.69441e-05 0 -0.000348123 -1.0056e-15 0)
(0.00106702 3.73579e-05 0 -0.000349259 -1.00289e-15 0)
(0.00108161 3.77939e-05 0 -0.000350411 -2.06486e-15 0)
(0.00109636 3.82547e-05 0 -0.000351599 -1.87404e-15 0)
(0.00111132 3.87431e-05 0 -0.000352845 -1.99493e-15 0)
(0.00112653 3.92622e-05 0 -0.000354172 -2.34025e-15 0)
(0.00114202 3.9815e-05 0 -0.000355605 -7.17742e-16 0)
(0.00115786 4.0404e-05 0 -0.000357176 4.3097e-16 0)
(0.0011741 4.10302e-05 0 -0.000358923 3.46403e-16 0)
(0.0012317 3.93946e-05 0 -0.000370641 1.8014e-15 0)
(0.00126788 3.89443e-05 0 -0.000375952 1.00506e-15 0)
(0.00130641 3.85837e-05 0 -0.00038277 1.94126e-15 0)
(0.00134777 3.82686e-05 0 -0.000391388 2.97126e-15 0)
(0.00139247 3.79638e-05 0 -0.000402132 1.50813e-15 0)
(0.00144104 3.76381e-05 0 -0.000415379 6.04226e-15 0)
(0.00149412 3.72615e-05 0 -0.000431569 4.70815e-15 0)
(0.00155241 3.68014e-05 0 -0.000451218 4.65285e-15 0)
(0.0016167 3.62196e-05 0 -0.000474939 5.97504e-15 0)
(0.00168794 3.5467e-05 0 -0.000503456 4.35253e-15 0)
(0.0017672 3.4477e-05 0 -0.000537633 3.07913e-15 0)
(0.00185573 3.31537e-05 0 -0.000578509 4.52004e-15 0)
(0.00195501 3.1354e-05 0 -0.000627345 6.18754e-15 0)
(0.00206675 2.8855e-05 0 -0.000685683 1.44849e-15 0)
(0.00219296 2.52982e-05 0 -0.000755444 7.28313e-15 0)
(0.00233595 2.00929e-05 0 -0.000839042 7.03647e-15 0)
(0.00249831 1.22507e-05 0 -0.000939543 2.59016e-15 0)
(0.00268264 1.38939e-07 0 -0.0010608 4.00504e-15 0)
(0.00289044 -1.86905e-05 0 -0.00120712 9.09158e-15 0)
(0.00103459 -0.000188457 -7.55147e-16 -0.000617466 -1.15874e-15 0)
(0.000999382 -0.000200517 1.54011e-15 -0.000592166 2.30881e-15 0)
(0.000966774 -0.000215322 -1.62088e-16 -0.00056745 1.19154e-15 0)
(0.000935154 -0.000229786 1.48644e-15 -0.000541185 -2.28089e-15 0)
(0.000904761 -0.000242687 2.53703e-15 -0.000513838 2.44217e-15 0)
(0.000876009 -0.000253507 2.91217e-15 -0.000486234 -1.56288e-15 0)
(0.000849239 -0.000262067 3.63316e-15 -0.00045913 6.10406e-16 0)
(0.000824676 -0.000268374 2.95662e-15 -0.000433125 1.09003e-15 0)
(0.00080244 -0.000272543 -4.53197e-16 -0.000408655 9.87708e-16 0)
(0.000782558 -0.000274748 7.15573e-16 -0.000386009 6.01461e-16 0)
(0.000764987 -0.000275185 7.96889e-16 -0.00036535 -7.58942e-16 0)
(0.000749625 -0.00027406 -2.04914e-16 -0.000346743 -1.86618e-16 0)
(0.000736335 -0.000271572 -3.97902e-16 -0.000330174 -7.33124e-16 0)
(0.000724951 -0.000267907 1.07661e-15 -0.000315574 -1.16782e-15 0)
(0.000715296 -0.000263235 1.04192e-15 -0.000302831 -1.77938e-15 0)
(0.000707186 -0.00025771 2.66172e-15 -0.000291804 2.78254e-15 0)
(0.000700436 -0.000251464 1.08095e-15 -0.000282337 -1.71711e-15 0)
(0.00069487 -0.000244614 1.73472e-17 -0.000274264 -1.17792e-15 0)
(0.000690318 -0.000237261 3.04661e-16 -0.000267415 -1.20963e-15 0)
(0.000686622 -0.000229489 -8.13152e-17 -0.000261625 3.31292e-16 0)
(0.000683633 -0.00022137 -2.85254e-15 -0.000256729 -3.05948e-16 0)
(0.000681218 -0.000212961 -3.76218e-16 -0.000252575 -9.22927e-16 0)
(0.000679251 -0.000204308 -3.6646e-16 -0.000249015 -2.82177e-15 0)
(0.000677624 -0.000195446 -1.65775e-15 -0.000245914 -5.24483e-16 0)
(0.000676234 -0.000186399 -8.84709e-16 -0.000243148 -4.05627e-16 0)
(0.000674995 -0.00017718 1.1601e-16 -0.000240605 6.75593e-16 0)
(0.000673828 -0.000167794 -9.70361e-16 -0.000238184 4.29209e-16 0)
(0.000672667 -0.000158233 -4.31512e-16 -0.000235799 -2.35001e-16 0)
(0.000671459 -0.000148477 -1.2902e-16 -0.00023338 2.83519e-16 0)
(0.000670161 -0.000138495 1.04083e-15 -0.000230873 7.6111e-16 0)
(0.000668744 -0.000128239 1.72497e-15 -0.00022824 1.7476e-16 0)
(0.000667196 -0.00011764 -2.19009e-16 -0.000225466 1.34272e-15 0)
(0.000665518 -0.000106608 -1.48536e-16 -0.000222558 -6.33377e-16 0)
(0.000663732 -9.50203e-05 3.3285e-16 -0.000219543 -1.5931e-15 0)
(0.000661873 -8.27174e-05 1.7293e-15 -0.000216476 -9.84794e-16 0)
(0.000659999 -6.94919e-05 -6.57027e-16 -0.000213436 -1.40425e-15 0)
(0.000658178 -5.50791e-05 1.6057e-15 -0.000210524 -1.48542e-15 0)
(0.000656485 -3.91514e-05 -3.68629e-17 -0.000207864 -3.21398e-16 0)
(0.000655002 -2.133e-05 2.29526e-15 -0.000205631 -3.37797e-16 0)
(0.00107559 -0.000180024 7.03105e-16 -0.000703883 6.1149e-16 0)
(0.00109302 -0.000157878 1.34387e-15 -0.000698239 1.09884e-15 0)
(0.00110745 -0.000136913 1.19587e-15 -0.000693095 7.8686e-16 0)
(0.00111964 -0.000116958 -3.9156e-15 -0.000688274 -1.13841e-16 0)
(0.00113 -9.79069e-05 -3.90746e-15 -0.000683579 -1.24683e-16 0)
(0.00113879 -7.9691e-05 -6.45642e-15 -0.000678849 5.3668e-16 0)
(0.0011462 -6.22703e-05 -6.11436e-15 -0.000673961 -1.72822e-15 0)
(0.00115235 -4.56244e-05 -6.3209e-16 -0.000668836 -1.58375e-15 0)
(0.00115737 -2.9748e-05 4.2826e-16 -0.000663423 -1.14763e-15 0)
(0.00116136 -1.46457e-05 -2.97451e-15 -0.000657697 1.60299e-15 0)
(0.0011644 -3.29477e-07 4.19532e-15 -0.000651654 -5.54569e-16 0)
(0.00116658 1.31844e-05 3.09702e-15 -0.000645302 1.19479e-15 0)
(0.001168 2.5877e-05 2.03179e-15 -0.000638662 4.31784e-16 0)
(0.00116872 3.77286e-05 5.7994e-15 -0.000631761 -8.94467e-18 0)
(0.00116883 4.87191e-05 1.51138e-15 -0.000624635 1.75234e-15 0)
(0.00116841 5.8829e-05 -4.27176e-15 -0.000617323 1.19777e-15 0)
(0.00116754 6.80398e-05 -2.84549e-15 -0.000609866 1.18286e-15 0)
(0.0011663 7.6334e-05 5.29633e-16 -0.000602309 1.97054e-16 0)
(0.00116476 8.36952e-05 -8.83083e-16 -0.000594699 4.94125e-16 0)
(0.00116299 9.01082e-05 -2.57986e-15 -0.000587082 1.27556e-15 0)
(0.00116108 9.55587e-05 -3.06667e-15 -0.000579506 -6.28837e-16 0)
(0.00115911 0.000100033 -1.20346e-15 -0.00057202 8.4622e-16 0)
(0.00115714 0.000103518 6.19622e-16 -0.000564673 2.35868e-15 0)
(0.00115525 0.000106001 -3.83265e-16 -0.000557517 4.67237e-15 0)
(0.00115353 0.00010747 -4.14599e-15 -0.000550602 5.87963e-15 0)
(0.00115205 0.000107912 -2.28767e-16 -0.00054398 5.00359e-15 0)
(0.00115089 0.000107315 7.5081e-16 -0.000537705 2.64816e-15 0)
(0.00115013 0.000105665 8.06104e-16 -0.000531832 1.66479e-15 0)
(0.00114985 0.000102951 3.57245e-16 -0.00052642 1.19316e-15 0)
(0.00115015 9.91574e-05 -6.94974e-16 -0.000521527 7.51894e-16 0)
(0.0011511 9.42719e-05 -1.08745e-15 -0.000517218 3.52366e-16 0)
(0.00115281 8.82803e-05 -9.11814e-16 -0.00051356 -4.49944e-17 0)
(0.00115536 8.11694e-05 -1.45825e-15 -0.000510622 -2.32399e-15 0)
(0.00115887 7.2927e-05 -2.99728e-15 -0.000508482 -8.92298e-16 0)
(0.00116343 6.35437e-05 -3.51986e-15 -0.000507222 1.20672e-15 0)
(0.00116917 5.3017e-05 -1.46828e-15 -0.00050693 3.02547e-15 0)
(0.0011762 4.13605e-05 -6.69495e-17 -0.000507706 1.51084e-15 0)
(0.00118468 2.86304e-05 2.06866e-15 -0.000509667 7.48099e-17 0)
(0.00119482 1.50043e-05 -1.0739e-15 -0.00051297 8.57062e-16 0)
(0.00296639 -0.000152628 -9.693e-15 -0.00121417 8.81131e-15 0)
(0.00292123 -0.000287744 -2.23435e-14 -0.00117763 -8.14507e-15 0)
(0.00285035 -0.000429988 -2.26083e-14 -0.00113253 -8.30174e-15 0)
(0.0027509 -0.000564392 -2.18738e-15 -0.00107165 -1.088e-15 0)
(0.00262598 -0.00068561 -1.65102e-14 -0.000995976 -3.01029e-15 0)
(0.00247912 -0.000790467 -2.7269e-14 -0.000907858 2.99511e-15 0)
(0.00231413 -0.000876761 1.63996e-14 -0.00081012 -6.16694e-15 0)
(0.00213504 -0.000943001 -1.59543e-14 -0.0007058 -4.06305e-15 0)
(0.00194601 -0.000988346 6.79253e-16 -0.00059803 -1.48465e-14 0)
(0.00175122 -0.00101258 -4.93475e-15 -0.00048993 -3.2049e-15 0)
(0.00155474 -0.00101607 -5.78639e-15 -0.000384509 -1.78948e-15 0)
(0.0013604 -0.000999736 -1.42627e-15 -0.00028458 -1.24521e-15 0)
(0.00117172 -0.000964953 9.59519e-16 -0.000192683 3.37512e-15 0)
(0.000991829 -0.000913504 -5.13207e-15 -0.000111028 1.46259e-15 0)
(0.000823414 -0.000847492 -3.80934e-15 -4.14489e-05 -9.59519e-17 0)
(0.000668685 -0.000769259 -3.61744e-15 1.4619e-05 1.48156e-15 0)
(0.000529365 -0.000681312 4.6187e-16 5.61586e-05 3.26887e-16 0)
(0.000406694 -0.000586245 3.54534e-16 8.25697e-05 1.36555e-15 0)
(0.000301444 -0.000486669 -1.30972e-15 9.36545e-05 1.80899e-15 0)
(0.000144103 -0.000284026 -3.46945e-16 7.08347e-05 6.25585e-16 0)
(9.14467e-05 -0.000185577 -4.11997e-17 3.81734e-05 3.77844e-16 0)
(5.51498e-05 -9.17714e-05 -5.31259e-17 -7.38592e-06 2.968e-16 0)
(3.41107e-05 -4.37481e-06 3.68629e-17 -6.46028e-05 3.06558e-16 0)
(2.70077e-05 7.50693e-05 -2.1684e-17 -0.00013204 3.67545e-16 0)
(3.23439e-05 0.000145244 2.0383e-16 -0.000208087 4.5401e-16 0)
(4.84841e-05 0.000205064 6.93889e-17 -0.000290988 1.73472e-16 0)
(7.36878e-05 0.000253686 2.68882e-16 -0.000378867 2.25243e-16 0)
(0.00010614 0.000290521 4.55365e-17 -0.000469761 -6.09864e-17 0)
(0.000143983 0.000315243 -5.20417e-16 -0.000561655 -8.07731e-17 0)
(0.00018535 0.000327796 -1.04083e-16 -0.00065252 1.28166e-15 0)
(0.0002284 0.000328401 -1.14383e-15 -0.000740349 -1.66696e-17 0)
(0.000271357 0.000317546 -9.06393e-16 -0.000823203 9.37293e-16 0)
(0.000312541 0.000295986 -2.93277e-15 -0.00089924 -2.45125e-15 0)
(0.000350412 0.000264723 1.85399e-16 -0.000966756 -1.09586e-15 0)
(0.000383614 0.000224989 -3.95734e-16 -0.00102422 -1.84186e-15 0)
(0.000411062 0.000178192 8.09899e-16 -0.00107039 2.56936e-15 0)
(0.00043224 0.000125642 -9.19403e-16 -0.00110472 -1.98816e-16 0)
(0.00044967 6.54613e-05 -2.1825e-15 -0.00113153 -2.24757e-15 0)
(0.000290691 -0.000364313 -5.1608e-16 2.27423e-05 5.25567e-16 0)
(0.000407912 -0.000357663 -1.71304e-16 -8.34021e-05 2.45301e-16 0)
(0.000509229 -0.000348718 -7.23705e-16 -0.000174668 4.06576e-16 0)
(0.000596796 -0.000338138 -4.79217e-16 -0.000253058 5.7029e-16 0)
(0.00067246 -0.000326429 -7.25873e-16 -0.000320289 9.73614e-16 0)
(0.000737799 -0.00031398 6.47811e-16 -0.000377827 1.00207e-15 0)
(0.000794174 -0.000301089 2.16353e-15 -0.000426933 8.10712e-16 0)
(0.000842754 -0.000287985 8.44593e-16 -0.000468689 -2.84603e-17 0)
(0.000884553 -0.00027484 -4.20128e-16 -0.000504024 6.88468e-16 0)
(0.000920446 -0.00026178 -1.31026e-15 -0.000533741 1.23572e-15 0)
(0.000951197 -0.000248898 -2.85199e-15 -0.000558525 1.70599e-15 0)
(0.000977472 -0.000236254 -3.26887e-15 -0.000578964 5.3397e-16 0)
(0.000999854 -0.000223883 -5.67038e-16 -0.000595555 3.54263e-16 0)
(0.00101885 -0.000211794 1.48102e-15 -0.000608703 -6.37511e-16 0)
(0.0010349 -0.000199971 5.79506e-16 -0.000618719 -1.16443e-15 0)
(0.00104833 -0.000188368 -3.26995e-15 -0.000625777 1.58619e-15 0)
(0.00105931 -0.000176883 -2.72568e-15 -0.000629813 2.39582e-15 0)
(0.00106748 -0.000165274 2.69695e-15 -0.000630197 -1.40702e-15 0)
(0.00107096 -0.000152825 -2.84603e-16 -0.000624652 2.07408e-15 0)
(0.000290691 -0.000364313 -5.1608e-16 2.27423e-05 5.25567e-16 0)
(0.000407912 -0.000357663 -1.71304e-16 -8.34021e-05 2.45301e-16 0)
(0.000509229 -0.000348718 -7.23705e-16 -0.000174668 4.06576e-16 0)
(0.000596796 -0.000338138 -4.79217e-16 -0.000253058 5.7029e-16 0)
(0.00067246 -0.000326429 -7.25873e-16 -0.000320289 9.73614e-16 0)
(0.000737799 -0.00031398 6.47811e-16 -0.000377827 1.00207e-15 0)
(0.000794174 -0.000301089 2.16353e-15 -0.000426933 8.10712e-16 0)
(0.000842754 -0.000287985 8.44593e-16 -0.000468689 -2.84603e-17 0)
(0.000884553 -0.00027484 -4.20128e-16 -0.000504024 6.88468e-16 0)
(0.000920446 -0.00026178 -1.31026e-15 -0.000533741 1.23572e-15 0)
(0.000951197 -0.000248898 -2.85199e-15 -0.000558525 1.70599e-15 0)
(0.000977472 -0.000236254 -3.26887e-15 -0.000578964 5.3397e-16 0)
(0.000999854 -0.000223883 -5.67038e-16 -0.000595555 3.54263e-16 0)
(0.00101885 -0.000211794 1.48102e-15 -0.000608703 -6.37511e-16 0)
(0.0010349 -0.000199971 5.79506e-16 -0.000618719 -1.16443e-15 0)
(0.00104833 -0.000188368 -3.26995e-15 -0.000625777 1.58619e-15 0)
(0.00105931 -0.000176883 -2.72568e-15 -0.000629813 2.39582e-15 0)
(0.00106748 -0.000165274 2.69695e-15 -0.000630197 -1.40702e-15 0)
(0.00107096 -0.000152825 -2.84603e-16 -0.000624652 2.07408e-15 0)
(0.0011221 -0.000109381 1.32327e-15 -0.000660984 2.17464e-15 0)
(0.00116249 -7.22741e-05 -3.71773e-15 -0.000663212 -1.26011e-15 0)
(0.00119849 -3.07259e-05 -1.01367e-14 -0.000663153 5.53431e-15 0)
(0.00122891 1.09869e-05 2.77664e-15 -0.000659104 2.06215e-15 0)
(0.00125322 5.11901e-05 -4.16225e-15 -0.000650714 2.42211e-15 0)
(0.00127126 8.86556e-05 -9.77408e-16 -0.000638074 2.35868e-15 0)
(0.00128313 0.000122282 2.11962e-16 -0.000621517 -3.23634e-15 0)
(0.00128912 0.000151056 -3.51498e-15 -0.000601549 -3.40331e-15 0)
(0.00128971 0.000174081 1.27665e-15 -0.000578808 3.17021e-15 0)
(0.00128555 0.000190607 -2.675e-15 -0.000554039 1.28478e-16 0)
(0.00127744 0.000200081 -3.59765e-15 -0.000528064 4.938e-15 0)
(0.00126627 0.000202171 -3.71231e-15 -0.000501754 4.10804e-15 0)
(0.00125308 0.000196799 -5.9089e-17 -0.000475995 -9.38323e-15 0)
(0.0012389 0.000184154 -1.23328e-16 -0.000451656 -1.65612e-15 0)
(0.0012248 0.000164696 2.05361e-15 -0.00042955 3.44505e-15 0)
(0.00121176 0.000139139 2.4255e-15 -0.0004104 2.34892e-15 0)
(0.00120067 0.000108434 1.16071e-15 -0.000394809 5.94685e-16 0)