/*--------------------------------*- C++ -*----------------------------------*\
| =========                 |                                                 |
| \\      /  F ield         | OpenFOAM: The Open Source CFD Toolbox           |
|  \\    /   O peration     | Version:  v2012                                 |
|   \\  /    A nd           | Website:  www.openfoam.com                      |
|    \\/     M anipulation  |                                                 |
\*---------------------------------------------------------------------------*/
FoamFile
{
    version     2.0;
    format      ascii;
    class       volScalarField;
    location    "4";
    object      sigmaEq;
}
// * * * * * * * * * * * * * * * * * * * * * * * * * * * * * * * * * * * * * //

dimensions      [1 -1 -2 0 0 0 0];


internalField   nonuniform List<scalar> 
8000
(
2.06707e+08
1.92717e+08
1.88857e+08
1.76977e+08
1.73365e+08
1.63257e+08
1.60027e+08
1.51329e+08
1.48526e+08
1.40962e+08
1.38574e+08
1.31937e+08
1.29929e+08
1.24062e+08
1.22391e+08
1.17172e+08
1.15792e+08
1.11125e+08
1.09994e+08
1.05799e+08
1.04882e+08
1.01093e+08
1.00356e+08
9.69178e+07
9.63357e+07
9.31989e+07
9.27488e+07
8.98719e+07
8.95352e+07
8.68806e+07
8.66425e+07
8.41764e+07
8.40255e+07
8.17157e+07
8.1644e+07
7.94588e+07
7.94619e+07
7.73662e+07
7.74434e+07
7.53929e+07
2.02999e+08
1.90427e+08
1.85921e+08
1.74837e+08
1.7125e+08
1.61416e+08
1.58536e+08
1.49798e+08
1.47489e+08
1.39708e+08
1.37873e+08
1.30923e+08
1.29483e+08
1.23253e+08
1.22145e+08
1.16539e+08
1.15709e+08
1.10644e+08
1.10047e+08
1.05451e+08
1.05049e+08
1.00862e+08
1.00621e+08
9.67896e+07
9.66848e+07
9.31615e+07
9.317e+07
8.99141e+07
9.00172e+07
8.69919e+07
8.71743e+07
8.43468e+07
8.45954e+07
8.19365e+07
8.22395e+07
7.97242e+07
8.00691e+07
7.76809e+07
7.80494e+07
7.57939e+07
2.00349e+08
1.87727e+08
1.83417e+08
1.72296e+08
1.69005e+08
1.59107e+08
1.56623e+08
1.47764e+08
1.45924e+08
1.37963e+08
1.36642e+08
1.29464e+08
1.28563e+08
1.22068e+08
1.21508e+08
1.15611e+08
1.15328e+08
1.09955e+08
1.09895e+08
1.04983e+08
1.05104e+08
1.00597e+08
1.00863e+08
9.67104e+07
9.70924e+07
9.32514e+07
9.3726e+07
9.01574e+07
9.07053e+07
8.73744e+07
8.79798e+07
8.48558e+07
8.55056e+07
8.25614e+07
8.32445e+07
8.04568e+07
8.11644e+07
7.85129e+07
7.92423e+07
7.6701e+07
1.96557e+08
1.83976e+08
1.8011e+08
1.68941e+08
1.66118e+08
1.5613e+08
1.54148e+08
1.45165e+08
1.43856e+08
1.35739e+08
1.34971e+08
1.27607e+08
1.27269e+08
1.20565e+08
1.2057e+08
1.14445e+08
1.1472e+08
1.09107e+08
1.09593e+08
1.04433e+08
1.05081e+08
1.00322e+08
1.01094e+08
9.66894e+07
9.75553e+07
9.34638e+07
9.43978e+07
9.05832e+07
9.15654e+07
8.79947e+07
8.90094e+07
8.56532e+07
8.66879e+07
8.35196e+07
8.45651e+07
8.15599e+07
8.26098e+07
7.97442e+07
8.07939e+07
7.80456e+07
1.91562e+08
1.79131e+08
1.75801e+08
1.64679e+08
1.62412e+08
1.52407e+08
1.50997e+08
1.41951e+08
1.41229e+08
1.33014e+08
1.32838e+08
1.25348e+08
1.25602e+08
1.1875e+08
1.19337e+08
1.1305e+08
1.13892e+08
1.08105e+08
1.09138e+08
1.03797e+08
1.04969e+08
1.00024e+08
1.01295e+08
9.67036e+07
9.80398e+07
9.37633e+07
9.51386e+07
9.11426e+07
9.25369e+07
8.87903e+07
9.01878e+07
8.66623e+07
8.80515e+07
8.47212e+07
8.60934e+07
8.29342e+07
8.42833e+07
8.12733e+07
8.25948e+07
7.97135e+07
1.85436e+08
1.7326e+08
1.70503e+08
1.59535e+08
1.57866e+08
1.47939e+08
1.47143e+08
1.38119e+08
1.38017e+08
1.29782e+08
1.30224e+08
1.22683e+08
1.23544e+08
1.16618e+08
1.17795e+08
1.11415e+08
1.12825e+08
1.06933e+08
1.08507e+08
1.03051e+08
1.04735e+08
9.96709e+07
1.01421e+08
9.67082e+07
9.8491e+07
9.40931e+07
9.58819e+07
9.17669e+07
9.35414e+07
8.96799e+07
9.14251e+07
8.77906e+07
8.94953e+07
8.60634e+07
8.77197e+07
8.44681e+07
8.60703e+07
8.29789e+07
8.45232e+07
8.15734e+07
1.78278e+08
1.66454e+08
1.64287e+08
1.53574e+08
1.5252e+08
1.42771e+08
1.42605e+08
1.33698e+08
1.34228e+08
1.26063e+08
1.27128e+08
1.19621e+08
1.21088e+08
1.14167e+08
1.15927e+08
1.09531e+08
1.11494e+08
1.0557e+08
1.07665e+08
1.02165e+08
1.04335e+08
9.92188e+07
1.01419e+08
9.66486e+07
9.88448e+07
9.43872e+07
9.6553e+07
9.23782e+07
9.44944e+07
9.05752e+07
9.26275e+07
8.89393e+07
9.09175e+07
8.74382e+07
8.93352e+07
8.60445e+07
8.78556e+07
8.47353e+07
8.64574e+07
8.34912e+07
1.70195e+08
1.58816e+08
1.57241e+08
1.4688e+08
1.46444e+08
1.3697e+08
1.37432e+08
1.28737e+08
1.29893e+08
1.21889e+08
1.23567e+08
1.1618e+08
1.18238e+08
1.11405e+08
1.13725e+08
1.07391e+08
1.09881e+08
1.03998e+08
1.06582e+08
1.01108e+08
1.03727e+08
9.86248e+07
1.01235e+08
9.647e+07
9.9038e+07
9.45791e+07
9.70796e+07
9.29e+07
9.53149e+07
9.13896e+07
9.37062e+07
9.00132e+07
9.22227e+07
8.87419e+07
9.08386e+07
8.75521e+07
8.95323e+07
8.64244e+07
8.82858e+07
8.53424e+07
1.61301e+08
1.50453e+08
1.49465e+08
1.39545e+08
1.39719e+08
1.30608e+08
1.31689e+08
1.23294e+08
1.25061e+08
1.17304e+08
1.19574e+08
1.12391e+08
1.1501e+08
1.08346e+08
1.11192e+08
1.04997e+08
1.07973e+08
1.02205e+08
1.05233e+08
9.98535e+07
1.02877e+08
9.7851e+07
1.00825e+08
9.61228e+07
9.90155e+07
9.46093e+07
9.73979e+07
9.3263e+07
9.59316e+07
9.20458e+07
9.45836e+07
9.09273e+07
9.33275e+07
8.98832e+07
9.21416e+07
8.88939e+07
9.10083e+07
8.79437e+07
8.9913e+07
8.70198e+07
1.51717e+08
1.41474e+08
1.41062e+08
1.31661e+08
1.32431e+08
1.23767e+08
1.25445e+08
1.17435e+08
1.19785e+08
1.1236e+08
1.15186e+08
1.08289e+08
1.1143e+08
1.05012e+08
1.08339e+08
1.02357e+08
1.05769e+08
1.00184e+08
1.03606e+08
9.83835e+07
1.01757e+08
9.68674e+07
1.00152e+08
9.55671e+07
9.87335e+07
9.44288e+07
9.74567e+07
9.34106e+07
9.6287e+07
9.24802e+07
9.51969e+07
9.16125e+07
9.41648e+07
9.07879e+07
9.31737e+07
8.99913e+07
9.22099e+07
8.92111e+07
9.12627e+07
8.84381e+07
1.41561e+08
1.31988e+08
1.32135e+08
1.23325e+08
1.2467e+08
1.16528e+08
1.18777e+08
1.11228e+08
1.14128e+08
1.07112e+08
1.10453e+08
1.03917e+08
1.07531e+08
1.01431e+08
1.05185e+08
9.94832e+07
1.03276e+08
9.79371e+07
1.01694e+08
9.66878e+07
1.00355e+08
9.5654e+07
9.9194e+07
9.4774e+07
9.81612e+07
9.40011e+07
9.72191e+07
9.33002e+07
9.63391e+07
9.26452e+07
9.54999e+07
9.20166e+07
9.4685e+07
9.14004e+07
9.38823e+07
9.07861e+07
9.30825e+07
9.0166e+07
9.22786e+07
8.95349e+07
1.30954e+08
1.22103e+08
1.22789e+08
1.14632e+08
1.16527e+08
1.08975e+08
1.11763e+08
1.04746e+08
1.08155e+08
1.01617e+08
1.05426e+08
9.93189e+07
1.03352e+08
9.76352e+07
1.01757e+08
9.63964e+07
1.00509e+08
9.54722e+07
9.95036e+07
9.47646e+07
9.86658e+07
9.42005e+07
9.79387e+07
9.37263e+07
9.72809e+07
9.33033e+07
9.66622e+07
9.2904e+07
9.60611e+07
9.2509e+07
9.54624e+07
9.21051e+07
9.48554e+07
9.16837e+07
9.42329e+07
9.12391e+07
9.359e+07
9.07681e+07
9.29236e+07
9.02687e+07
1.20009e+08
1.11923e+08
1.13125e+08
1.05674e+08
1.08093e+08
1.0119e+08
1.04482e+08
9.80592e+07
1.01934e+08
9.59364e+07
1.0016e+08
9.45424e+07
9.89345e+07
9.3659e+07
9.80865e+07
9.31203e+07
9.74881e+07
9.28037e+07
9.70464e+07
9.262e+07
9.66945e+07
9.25059e+07
9.63855e+07
9.24174e+07
9.60868e+07
9.23246e+07
9.57764e+07
9.22079e+07
9.54403e+07
9.2055e+07
9.50695e+07
9.18593e+07
9.46592e+07
9.16176e+07
9.42072e+07
9.13292e+07
9.37131e+07
9.09951e+07
9.31775e+07
9.06172e+07
1.08834e+08
1.01546e+08
1.03242e+08
9.65418e+07
9.94563e+07
9.32547e+07
9.70138e+07
9.12401e+07
9.55325e+07
9.01306e+07
9.47124e+07
8.9637e+07
9.43266e+07
8.95409e+07
9.42091e+07
8.96831e+07
9.42416e+07
8.99508e+07
9.4342e+07
9.02664e+07
9.44547e+07
9.05776e+07
9.45429e+07
9.08508e+07
9.45839e+07
9.10655e+07
9.4564e+07
9.12103e+07
9.44766e+07
9.12801e+07
9.43194e+07
9.12747e+07
9.40933e+07
9.11964e+07
9.3801e+07
9.10498e+07
9.34467e+07
9.08402e+07
9.30347e+07
9.05732e+07
9.75327e+07
9.10652e+07
9.32328e+07
8.73215e+07
9.07044e+07
8.52494e+07
8.94374e+07
8.43606e+07
8.90208e+07
8.42612e+07
8.91424e+07
8.46528e+07
8.95759e+07
8.53205e+07
9.01639e+07
8.61149e+07
9.07999e+07
8.69366e+07
9.14149e+07
8.77211e+07
9.19657e+07
8.84289e+07
9.2427e+07
8.90375e+07
9.27856e+07
8.95356e+07
9.30367e+07
8.992e+07
9.31806e+07
9.01927e+07
9.32217e+07
9.03592e+07
9.31662e+07
9.04276e+07
9.30221e+07
9.04074e+07
9.27978e+07
9.03089e+07
9.25017e+07
9.01421e+07
8.61972e+07
8.05679e+07
8.31869e+07
7.80974e+07
8.19223e+07
7.72542e+07
8.18316e+07
7.74928e+07
8.24683e+07
7.83897e+07
8.3509e+07
7.96404e+07
8.47316e+07
8.10377e+07
8.59909e+07
8.24472e+07
8.71958e+07
8.37856e+07
8.82924e+07
8.50043e+07
8.92512e+07
8.60773e+07
9.00586e+07
8.69934e+07
9.07116e+07
8.77509e+07
9.12132e+07
8.83539e+07
9.15711e+07
8.88105e+07
9.1795e+07
8.91315e+07
9.18967e+07
8.93297e+07
9.18887e+07
8.94198e+07
9.17842e+07
8.94177e+07
9.15958e+07
8.93395e+07
7.49139e+07
7.0135e+07
7.31889e+07
6.89519e+07
7.31943e+07
6.935e+07
7.42755e+07
7.07103e+07
7.59452e+07
7.25788e+07
7.78715e+07
7.46501e+07
7.98424e+07
7.67322e+07
8.17301e+07
7.87107e+07
8.34623e+07
8.05223e+07
8.50022e+07
8.21358e+07
8.63353e+07
8.354e+07
8.74602e+07
8.47353e+07
8.83834e+07
8.5729e+07
8.9116e+07
8.65319e+07
8.96715e+07
8.71571e+07
9.00647e+07
8.76187e+07
9.03114e+07
8.79324e+07
9.04284e+07
8.81166e+07
9.04337e+07
8.81937e+07
9.03453e+07
8.81903e+07
6.37615e+07
5.98435e+07
6.33218e+07
5.99694e+07
6.46067e+07
6.16222e+07
6.68513e+07
6.40907e+07
6.95235e+07
6.68929e+07
7.22901e+07
6.97331e+07
7.49571e+07
7.24432e+07
7.74205e+07
7.49349e+07
7.96304e+07
7.71684e+07
8.15696e+07
7.91319e+07
8.32392e+07
8.08295e+07
8.46502e+07
8.22737e+07
8.58189e+07
8.34807e+07
8.67637e+07
8.4468e+07
8.75034e+07
8.52522e+07
8.80563e+07
8.5849e+07
8.84409e+07
8.62728e+07
8.86765e+07
8.65402e+07
8.8785e+07
8.66762e+07
8.87925e+07
8.67272e+07
5.28124e+07
4.97679e+07
5.36706e+07
5.12416e+07
5.62534e+07
5.41666e+07
5.96481e+07
5.77194e+07
6.328e+07
6.14018e+07
6.68272e+07
6.49434e+07
7.01252e+07
6.82112e+07
7.31003e+07
7.1149e+07
7.57292e+07
7.37434e+07
7.80152e+07
7.60031e+07
7.99761e+07
7.7948e+07
8.16358e+07
7.96033e+07
8.30205e+07
8.0995e+07
8.41563e+07
8.21481e+07
8.50676e+07
8.30847e+07
8.57762e+07
8.38222e+07
8.63017e+07
8.43711e+07
8.66628e+07
8.47346e+07
8.68826e+07
8.4915e+07
8.69992e+07
8.49623e+07
4.2133e+07
3.99854e+07
4.43303e+07
4.28795e+07
4.82448e+07
4.70988e+07
5.27695e+07
5.1696e+07
5.73014e+07
5.61844e+07
6.15522e+07
6.03421e+07
6.54011e+07
6.40829e+07
6.88116e+07
6.7388e+07
7.17887e+07
7.02707e+07
7.43574e+07
7.27598e+07
7.65511e+07
7.48902e+07
7.84062e+07
7.66985e+07
7.99593e+07
7.82211e+07
8.12451e+07
7.94924e+07
8.22964e+07
8.05447e+07
8.31429e+07
8.14061e+07
8.3811e+07
8.20961e+07
8.43236e+07
8.26106e+07
8.47054e+07
8.28716e+07
8.50199e+07
8.25498e+07
3.17853e+07
3.05886e+07
3.54243e+07
3.50366e+07
4.07257e+07
4.05685e+07
4.63428e+07
4.61403e+07
5.16899e+07
5.1333e+07
5.65472e+07
5.60028e+07
6.08527e+07
6.01212e+07
6.46118e+07
6.37079e+07
6.78579e+07
6.68013e+07
7.06342e+07
6.9446e+07
7.29858e+07
7.16859e+07
7.49557e+07
7.35622e+07
7.65825e+07
7.51113e+07
7.78993e+07
7.63645e+07
7.89327e+07
7.73472e+07
7.96996e+07
7.80788e+07
8.02025e+07
7.85745e+07
8.04131e+07
7.88545e+07
8.02239e+07
7.89879e+07
7.92796e+07
7.92896e+07
2.18354e+07
2.17318e+07
2.7151e+07
2.79583e+07
3.39021e+07
3.47765e+07
4.05284e+07
4.1194e+07
4.65664e+07
4.6951e+07
5.19099e+07
5.2011e+07
5.65697e+07
5.64093e+07
6.05955e+07
6.02038e+07
6.40479e+07
6.34563e+07
6.69879e+07
6.62265e+07
6.94722e+07
6.85693e+07
7.15518e+07
7.05338e+07
7.3272e+07
7.21639e+07
7.46719e+07
7.34991e+07
7.57856e+07
7.45763e+07
7.66427e+07
7.54322e+07
7.72727e+07
7.61096e+07
7.77181e+07
7.66665e+07
7.80869e+07
7.71821e+07
7.87611e+07
7.76965e+07
1.2412e+07
1.38269e+07
1.9917e+07
2.20868e+07
2.80842e+07
2.99911e+07
3.5519e+07
3.701e+07
4.20515e+07
4.31293e+07
4.77213e+07
4.84248e+07
5.26111e+07
5.29866e+07
5.68089e+07
5.6902e+07
6.03973e+07
6.025e+07
6.34506e+07
6.31012e+07
6.60347e+07
6.55179e+07
6.82076e+07
6.75552e+07
7.00209e+07
6.92626e+07
7.1521e+07
7.06851e+07
7.2751e+07
7.18648e+07
7.37543e+07
7.28431e+07
7.45793e+07
7.36605e+07
7.52866e+07
7.43546e+07
7.59444e+07
7.49481e+07
7.65327e+07
7.54408e+07
4.48985e+06
8.5811e+06
1.47094e+07
1.82061e+07
2.37424e+07
2.65491e+07
3.15468e+07
3.37488e+07
3.82713e+07
3.99532e+07
4.40565e+07
4.52931e+07
4.90254e+07
4.98822e+07
5.32851e+07
5.38187e+07
5.69278e+07
5.71878e+07
6.0034e+07
6.00636e+07
6.26734e+07
6.25109e+07
6.49074e+07
6.45864e+07
6.67905e+07
6.63407e+07
6.83718e+07
6.7819e+07
6.96969e+07
6.90621e+07
7.08088e+07
7.01062e+07
7.17477e+07
7.09822e+07
7.25469e+07
7.17134e+07
7.32222e+07
7.23149e+07
7.37824e+07
7.27961e+07
7.25174e+06
1.00105e+07
1.33516e+07
1.7238e+07
2.14528e+07
2.47687e+07
2.8853e+07
3.15495e+07
3.5346e+07
3.74925e+07
4.09827e+07
4.26541e+07
4.58528e+07
4.71169e+07
5.00477e+07
5.09634e+07
5.36514e+07
5.427e+07
5.67391e+07
5.71051e+07
5.93777e+07
5.95296e+07
6.16263e+07
6.15973e+07
6.35374e+07
6.33558e+07
6.51578e+07
6.4847e+07
6.65294e+07
6.61075e+07
6.76886e+07
6.71685e+07
6.86657e+07
6.8056e+07
6.94841e+07
6.87906e+07
7.01611e+07
6.93887e+07
7.07097e+07
6.98632e+07
1.5125e+07
1.58503e+07
1.6249e+07
1.92092e+07
2.15306e+07
2.47524e+07
2.76024e+07
3.04783e+07
3.3366e+07
3.57871e+07
3.85526e+07
4.05318e+07
4.3125e+07
4.47047e+07
4.71154e+07
4.8343e+07
5.05769e+07
5.14977e+07
5.35668e+07
5.42216e+07
5.61404e+07
5.65655e+07
5.8349e+07
5.85757e+07
6.02389e+07
6.02938e+07
6.18514e+07
6.1757e+07
6.32228e+07
6.29974e+07
6.43843e+07
6.40428e+07
6.53622e+07
6.49166e+07
6.6178e+07
6.56389e+07
6.68498e+07
6.62264e+07
6.73922e+07
6.66934e+07
2.29396e+07
2.25155e+07
2.13344e+07
2.304e+07
2.36366e+07
2.62563e+07
2.7773e+07
3.0484e+07
3.23581e+07
3.48315e+07
3.67944e+07
3.89312e+07
4.08636e+07
4.26518e+07
4.45032e+07
4.59624e+07
4.77137e+07
4.8874e+07
5.05216e+07
5.1415e+07
5.29625e+07
5.36197e+07
5.50745e+07
5.55233e+07
5.68942e+07
5.71594e+07
5.84557e+07
5.85588e+07
5.97896e+07
5.9749e+07
6.09228e+07
6.07546e+07
6.18786e+07
6.15968e+07
6.26774e+07
6.22944e+07
6.33365e+07
6.28636e+07
6.3871e+07
6.33186e+07
3.03752e+07
2.91144e+07
2.70766e+07
2.76847e+07
2.70262e+07
2.88162e+07
2.913e+07
3.13972e+07
3.22624e+07
3.45671e+07
3.57011e+07
3.78337e+07
3.90766e+07
4.09547e+07
4.22219e+07
4.38239e+07
4.50723e+07
4.64038e+07
4.7613e+07
4.86913e+07
4.98532e+07
5.06999e+07
5.18128e+07
5.24502e+07
5.35161e+07
5.39654e+07
5.49881e+07
5.5269e+07
5.62528e+07
5.6383e+07
5.73325e+07
5.7328e+07
5.82474e+07
5.81226e+07
5.90155e+07
5.87834e+07
5.96528e+07
5.93254e+07
6.01736e+07
5.97619e+07
3.73624e+07
3.54085e+07
3.28569e+07
3.25513e+07
3.10414e+07
3.19743e+07
3.13242e+07
3.29808e+07
3.29373e+07
3.48881e+07
3.52253e+07
3.71964e+07
3.77545e+07
3.95989e+07
4.02768e+07
4.19258e+07
4.26634e+07
4.40917e+07
4.48541e+07
4.60591e+07
4.68269e+07
4.78173e+07
4.85801e+07
4.93698e+07
5.01229e+07
5.07278e+07
5.14694e+07
5.19058e+07
5.26359e+07
5.29194e+07
5.3639e+07
5.37844e+07
5.44946e+07
5.45157e+07
5.52179e+07
5.51275e+07
5.58227e+07
5.56325e+07
5.63217e+07
5.60426e+07
4.38671e+07
4.13035e+07
3.84225e+07
3.73398e+07
3.52581e+07
3.53862e+07
3.4015e+07
3.49927e+07
3.41938e+07
3.56607e+07
3.5283e+07
3.69554e+07
3.68686e+07
3.85584e+07
3.86654e+07
4.02622e+07
4.04964e+07
4.19421e+07
4.22597e+07
4.35282e+07
4.39013e+07
4.4985e+07
4.5396e+07
4.62977e+07
4.67357e+07
4.74638e+07
4.7922e+07
4.84877e+07
4.8962e+07
4.93776e+07
4.98655e+07
5.01434e+07
5.06435e+07
5.0796e+07
5.13073e+07
5.13459e+07
5.18677e+07
5.18035e+07
5.23353e+07
5.21786e+07
4.98637e+07
4.67486e+07
4.36518e+07
4.18903e+07
3.94258e+07
3.882e+07
3.69322e+07
3.72241e+07
3.58367e+07
3.67442e+07
3.5766e+07
3.70323e+07
3.63721e+07
3.77973e+07
3.73762e+07
3.8822e+07
3.85782e+07
3.99578e+07
3.9846e+07
4.11091e+07
4.10971e+07
4.22179e+07
4.22831e+07
4.32512e+07
4.3378e+07
4.41922e+07
4.43697e+07
4.50344e+07
4.52551e+07
4.57776e+07
4.6036e+07
4.64253e+07
4.67174e+07
4.69834e+07
4.73059e+07
4.74584e+07
4.78092e+07
4.78578e+07
4.82346e+07
4.81887e+07
5.53301e+07
5.17097e+07
4.8476e+07
4.61101e+07
4.33952e+07
4.2124e+07
3.98811e+07
3.95115e+07
3.76919e+07
3.80077e+07
3.65572e+07
3.73432e+07
3.62041e+07
3.72718e+07
3.63883e+07
3.75893e+07
3.69123e+07
3.81403e+07
3.76295e+07
3.88134e+07
3.84372e+07
3.95331e+07
3.92675e+07
4.02502e+07
4.00771e+07
4.09343e+07
4.08401e+07
4.15678e+07
4.15421e+07
4.21417e+07
4.21766e+07
4.26524e+07
4.27417e+07
4.31001e+07
4.32388e+07
4.34871e+07
4.36711e+07
4.3817e+07
4.4043e+07
4.40942e+07
6.02458e+07
5.61607e+07
5.28504e+07
4.99398e+07
4.70729e+07
4.51975e+07
4.27263e+07
4.17328e+07
3.9618e+07
3.93386e+07
3.75441e+07
3.78056e+07
3.62955e+07
3.69335e+07
3.56723e+07
3.65442e+07
3.54976e+07
3.64893e+07
3.56267e+07
3.66532e+07
3.5948e+07
3.695e+07
3.63801e+07
3.73183e+07
3.68657e+07
3.77159e+07
3.73661e+07
3.81148e+07
3.78559e+07
3.8497e+07
3.83194e+07
3.88517e+07
3.87476e+07
3.91731e+07
3.91359e+07
3.94585e+07
3.94828e+07
3.97076e+07
3.97888e+07
3.99215e+07
6.45913e+07
6.00803e+07
5.67436e+07
5.33396e+07
5.03976e+07
4.79726e+07
4.53741e+07
4.37985e+07
4.15053e+07
4.06445e+07
3.86266e+07
3.83427e+07
3.65749e+07
3.67317e+07
3.51913e+07
3.56621e+07
3.43275e+07
3.50022e+07
3.38532e+07
3.46416e+07
3.36591e+07
3.44918e+07
3.36585e+07
3.44846e+07
3.37851e+07
3.45692e+07
3.39902e+07
3.4709e+07
3.42386e+07
3.48779e+07
3.4506e+07
3.5058e+07
3.47757e+07
3.52371e+07
3.50369e+07
3.54074e+07
3.52828e+07
3.55643e+07
3.55099e+07
3.57051e+07
6.83481e+07
6.34507e+07
6.0132e+07
5.6282e+07
5.33283e+07
5.04026e+07
4.77598e+07
4.56429e+07
4.32707e+07
4.18506e+07
3.97193e+07
3.8885e+07
3.6972e+07
3.6614e+07
3.49019e+07
3.49143e+07
3.33888e+07
3.36732e+07
3.2322e+07
3.27918e+07
3.16029e+07
3.21856e+07
3.11479e+07
3.17855e+07
3.0888e+07
3.15365e+07
3.07688e+07
3.1396e+07
3.07479e+07
3.13315e+07
3.07937e+07
3.13188e+07
3.08826e+07
3.13401e+07
3.09974e+07
3.13823e+07
3.11259e+07
3.14358e+07
3.12597e+07
3.14939e+07
7.14985e+07
6.62585e+07
6.29997e+07
5.87495e+07
5.5838e+07
5.24548e+07
4.98372e+07
4.7214e+07
4.48494e+07
4.28911e+07
4.07473e+07
3.93657e+07
3.74176e+07
3.65258e+07
3.47551e+07
3.42669e+07
3.26607e+07
3.24929e+07
3.10421e+07
3.11176e+07
2.98148e+07
3.00646e+07
2.89036e+07
2.92688e+07
2.82433e+07
2.86753e+07
2.77789e+07
2.82394e+07
2.74652e+07
2.7925e+07
2.72658e+07
2.77036e+07
2.71517e+07
2.75527e+07
2.71003e+07
2.74544e+07
2.7094e+07
2.73945e+07
2.71194e+07
2.73611e+07
7.40255e+07
6.84981e+07
6.53393e+07
6.07339e+07
5.79099e+07
5.4098e+07
5.15678e+07
4.84523e+07
4.61788e+07
4.36943e+07
4.16373e+07
3.97151e+07
3.78421e+07
3.64102e+07
3.4698e+07
3.36844e+07
3.21171e+07
3.1452e+07
3.00196e+07
2.9637e+07
2.83332e+07
2.81721e+07
2.69929e+07
2.69987e+07
2.59411e+07
2.60662e+07
2.51274e+07
2.53314e+07
2.45081e+07
2.47583e+07
2.40463e+07
2.43168e+07
2.37107e+07
2.39824e+07
2.34752e+07
2.37342e+07
2.33176e+07
2.35537e+07
2.3219e+07
2.34236e+07
7.59195e+07
7.01856e+07
6.716e+07
6.22217e+07
5.95257e+07
5.52321e+07
5.28797e+07
4.92551e+07
4.71751e+07
4.41748e+07
4.23112e+07
3.98665e+07
3.81799e+07
3.62202e+07
3.46833e+07
3.31418e+07
3.17359e+07
3.05513e+07
2.92639e+07
2.83798e+07
2.72031e+07
2.65678e+07
2.54971e+07
2.50635e+07
2.40966e+07
2.38224e+07
2.2958e+07
2.28057e+07
2.20431e+07
2.19807e+07
2.13184e+07
2.13194e+07
2.07547e+07
2.07981e+07
2.03258e+07
2.03965e+07
2.00076e+07
2.00957e+07
1.97755e+07
1.98742e+07
7.72227e+07
7.14224e+07
6.85033e+07
6.28302e+07
6.0492e+07
5.56209e+07
5.36158e+07
4.95016e+07
4.77409e+07
4.42733e+07
4.27101e+07
3.9792e+07
3.83947e+07
3.59463e+07
3.46914e+07
3.26466e+07
3.1516e+07
2.98183e+07
2.87985e+07
2.73987e+07
2.64798e+07
2.53342e+07
2.45094e+07
2.3579e+07
2.28442e+07
2.20938e+07
2.1447e+07
2.0845e+07
2.02854e+07
1.98039e+07
1.93318e+07
1.89467e+07
1.85618e+07
1.82537e+07
1.7954e+07
1.77092e+07
1.74879e+07
1.73003e+07
1.71381e+07
1.70126e+07
7.85164e+07
6.99331e+07
6.84084e+07
6.19762e+07
6.04061e+07
5.51513e+07
5.3663e+07
4.922e+07
4.78708e+07
4.40553e+07
4.28627e+07
3.95608e+07
3.85224e+07
3.56539e+07
3.47587e+07
3.22619e+07
3.1496e+07
2.93209e+07
2.86706e+07
2.67752e+07
2.62282e+07
2.4576e+07
2.41224e+07
2.26813e+07
2.23136e+07
2.10546e+07
2.07681e+07
1.96647e+07
1.94572e+07
1.84845e+07
1.83567e+07
1.7491e+07
1.74469e+07
1.66656e+07
1.67122e+07
1.59953e+07
1.61427e+07
1.54783e+07
1.57362e+07
1.51378e+07
1.61008e+07
1.43475e+07
1.73071e+07
1.56714e+07
2.00881e+07
1.82486e+07
2.37002e+07
2.15694e+07
2.77576e+07
2.52948e+07
3.20401e+07
2.92253e+07
3.64179e+07
3.32432e+07
4.08097e+07
3.72763e+07
4.51614e+07
4.12773e+07
4.94348e+07
4.52141e+07
5.36007e+07
4.90638e+07
5.76359e+07
5.2809e+07
6.15201e+07
5.64366e+07
6.52347e+07
5.99359e+07
6.87605e+07
6.32979e+07
7.20761e+07
6.65147e+07
7.51543e+07
6.95793e+07
7.79567e+07
7.24865e+07
8.04198e+07
7.52371e+07
8.24038e+07
7.7849e+07
1.51838e+07
1.40518e+07
1.66085e+07
1.54658e+07
1.9362e+07
1.80318e+07
2.29081e+07
2.12987e+07
2.68829e+07
2.49482e+07
3.10739e+07
2.87898e+07
3.53559e+07
3.27098e+07
3.96506e+07
3.6638e+07
4.39059e+07
4.05279e+07
4.80849e+07
4.43478e+07
5.216e+07
4.80745e+07
5.61091e+07
5.16909e+07
5.99138e+07
5.51837e+07
6.35575e+07
5.85419e+07
6.70239e+07
6.17562e+07
7.02954e+07
6.48175e+07
7.33509e+07
6.77157e+07
7.6161e+07
7.04379e+07
7.86778e+07
7.29623e+07
8.08008e+07
7.52394e+07
1.48977e+07
1.41679e+07
1.6335e+07
1.55774e+07
1.89642e+07
1.80436e+07
2.23502e+07
2.11743e+07
2.61606e+07
2.46783e+07
3.0191e+07
2.83739e+07
3.43183e+07
3.21502e+07
3.84653e+07
3.59372e+07
4.25806e+07
3.96885e+07
4.66277e+07
4.33717e+07
5.05797e+07
4.69637e+07
5.44155e+07
5.0447e+07
5.81179e+07
5.38085e+07
6.16718e+07
5.70373e+07
6.50632e+07
6.01246e+07
6.82776e+07
6.30619e+07
7.12983e+07
6.58402e+07
7.41034e+07
6.84479e+07
7.66589e+07
7.08673e+07
7.88992e+07
7.30622e+07
1.50452e+07
1.4587e+07
1.63926e+07
1.59282e+07
1.88352e+07
1.82389e+07
2.2003e+07
2.11826e+07
2.55964e+07
2.4497e+07
2.94209e+07
2.80099e+07
3.3355e+07
3.16126e+07
3.73212e+07
3.52347e+07
4.12676e+07
3.8829e+07
4.51576e+07
4.23625e+07
4.89643e+07
4.58111e+07
5.2667e+07
4.91573e+07
5.62492e+07
5.23875e+07
5.96969e+07
5.54912e+07
6.29977e+07
5.84597e+07
6.61395e+07
6.12854e+07
6.9109e+07
6.39606e+07
7.18896e+07
6.64761e+07
7.44577e+07
6.88191e+07
7.67706e+07
7.09663e+07
1.54925e+07
1.52214e+07
1.67053e+07
1.64593e+07
1.8928e+07
1.85849e+07
2.18457e+07
2.13139e+07
2.51918e+07
2.4413e+07
2.87827e+07
2.77209e+07
3.24993e+07
3.11312e+07
3.62636e+07
3.45733e+07
4.00225e+07
3.7999e+07
4.37389e+07
4.13741e+07
4.73853e+07
4.46738e+07
5.09411e+07
4.78799e+07
5.439e+07
5.09784e+07
5.77187e+07
5.39588e+07
6.0916e+07
5.68125e+07
6.39713e+07
5.95324e+07
6.6874e+07
6.2112e+07
6.96114e+07
6.45441e+07
7.21668e+07
6.68191e+07
7.4512e+07
6.89219e+07
1.61448e+07
1.60047e+07
1.72116e+07
1.71256e+07
1.92038e+07
1.90558e+07
2.1859e+07
2.15588e+07
2.49433e+07
2.44304e+07
2.8286e+07
2.75213e+07
3.17713e+07
3.07286e+07
3.5321e+07
3.39818e+07
3.88813e+07
3.72318e+07
4.24138e+07
4.04434e+07
4.58905e+07
4.35909e+07
4.92903e+07
4.66552e+07
5.2597e+07
4.9622e+07
5.57975e+07
5.24803e+07
5.88814e+07
5.52216e+07
6.18392e+07
5.78392e+07
6.46621e+07
6.0327e+07
6.73402e+07
6.26793e+07
6.98615e+07
6.4889e+07
7.22073e+07
6.69459e+07
1.69354e+07
1.68884e+07
1.7862e+07
1.78921e+07
1.96293e+07
1.96292e+07
2.20237e+07
2.19068e+07
2.48434e+07
2.45485e+07
2.79328e+07
2.74183e+07
3.11807e+07
3.0418e+07
3.45098e+07
3.3478e+07
3.78655e+07
3.65489e+07
4.12085e+07
3.95945e+07
4.45102e+07
4.25884e+07
4.77487e+07
4.55105e+07
5.09076e+07
4.8346e+07
5.3974e+07
5.10835e+07
5.69376e+07
5.37142e+07
5.97898e+07
5.62316e+07
6.25229e+07
5.863e+07
6.51292e+07
6.09045e+07
6.75997e+07
6.30498e+07
6.99216e+07
6.50587e+07
1.78176e+07
1.78382e+07
1.86178e+07
1.87312e+07
2.01753e+07
2.02858e+07
2.23201e+07
2.23463e+07
2.48814e+07
2.47628e+07
2.77194e+07
2.74132e+07
3.07299e+07
3.02054e+07
3.3837e+07
3.30718e+07
3.69864e+07
3.59629e+07
4.0138e+07
3.88422e+07
4.32623e+07
4.16824e+07
4.63371e+07
4.44628e+07
4.93454e+07
4.71679e+07
5.22741e+07
4.9786e+07
5.51132e+07
5.23079e+07
5.78543e+07
5.4727e+07
6.04906e+07
5.70377e+07
6.30156e+07
5.92358e+07
6.54227e+07
6.1317e+07
6.77031e+07
6.32761e+07
1.87591e+07
1.88293e+07
1.94486e+07
1.96216e+07
2.08165e+07
2.10083e+07
2.27289e+07
2.2865e+07
2.50437e+07
2.5066e+07
2.76381e+07
2.75032e+07
3.04155e+07
3.00918e+07
3.33033e+07
3.27668e+07
3.62477e+07
3.54798e+07
3.92085e+07
3.8194e+07
4.21556e+07
4.08817e+07
4.50664e+07
4.35217e+07
4.79233e+07
4.6098e+07
5.0713e+07
4.85982e+07
5.34252e+07
5.10129e+07
5.6052e+07
5.33353e+07
5.85868e+07
5.55599e+07
6.10242e+07
5.76827e+07
6.33588e+07
5.96999e+07
6.55846e+07
6.1608e+07
1.9737e+07
1.98443e+07
2.03316e+07
2.05466e+07
2.15312e+07
2.17817e+07
2.32315e+07
2.34506e+07
2.5316e+07
2.54488e+07
2.76782e+07
2.76824e+07
3.02305e+07
3.00738e+07
3.29045e+07
3.25623e+07
3.56477e+07
3.51005e+07
3.84205e+07
3.76523e+07
4.11926e+07
4.01898e+07
4.39406e+07
4.26914e+07
4.66468e+07
4.51406e+07
4.92976e+07
4.75247e+07
5.18824e+07
4.9834e+07
5.43932e+07
5.20612e+07
5.68239e+07
5.4201e+07
5.91693e+07
5.62493e+07
6.14253e+07
5.82028e+07
6.35873e+07
6.00589e+07
2.07351e+07
2.08704e+07
2.1249e+07
2.14934e+07
2.23012e+07
2.2593e+07
2.38108e+07
2.40911e+07
2.56831e+07
2.59013e+07
2.78273e+07
2.79426e+07
3.0165e+07
3.01457e+07
3.2633e+07
3.2454e+07
3.51811e+07
3.48225e+07
3.77704e+07
3.72157e+07
4.03707e+07
3.9606e+07
4.29587e+07
4.19718e+07
4.55162e+07
4.42962e+07
4.80293e+07
4.65661e+07
5.04873e+07
4.87716e+07
5.28819e+07
5.09052e+07
5.52071e+07
5.29612e+07
5.74581e+07
5.49357e+07
5.96313e+07
5.68257e+07
6.17232e+07
5.86288e+07
2.17419e+07
2.18983e+07
2.21874e+07
2.24516e+07
2.31114e+07
2.34314e+07
2.44512e+07
2.47754e+07
2.61304e+07
2.6413e+07
2.80722e+07
2.82749e+07
3.02077e+07
3.02998e+07
3.24792e+07
3.24358e+07
3.48395e+07
3.46405e+07
3.72511e+07
3.688e+07
3.96844e+07
3.9127e+07
4.2116e+07
4.136e+07
4.45277e+07
4.3562e+07
4.69053e+07
4.57199e+07
4.92378e+07
4.78234e+07
5.1517e+07
4.98646e+07
5.37365e+07
5.1838e+07
5.58919e+07
5.37392e+07
5.79796e+07
5.55655e+07
5.99972e+07
5.73149e+07
2.27488e+07
2.29209e+07
2.31363e+07
2.34133e+07
2.39493e+07
2.42873e+07
2.5139e+07
2.54934e+07
2.66438e+07
2.69737e+07
2.83995e+07
2.86696e+07
3.03463e+07
3.05272e+07
3.24322e+07
3.24998e+07
3.46133e+07
3.45478e+07
3.68541e+07
3.6639e+07
3.91258e+07
3.8747e+07
4.14055e+07
4.08508e+07
4.36749e+07
4.29334e+07
4.59198e+07
4.49815e+07
4.8129e+07
4.69846e+07
5.0294e+07
4.89349e+07
5.24085e+07
5.08264e+07
5.44679e+07
5.26547e+07
5.64688e+07
5.44172e+07
5.84091e+07
5.61118e+07
2.37491e+07
2.39327e+07
2.40875e+07
2.43719e+07
2.48044e+07
2.51526e+07
2.58619e+07
2.62357e+07
2.72104e+07
2.75735e+07
2.87964e+07
2.91168e+07
3.05684e+07
3.08187e+07
3.24801e+07
3.26372e+07
3.44915e+07
3.45362e+07
3.65692e+07
3.64853e+07
3.86856e+07
3.84593e+07
4.08185e+07
4.04377e+07
4.29498e+07
4.24039e+07
4.50653e+07
4.43446e+07
4.71537e+07
4.62493e+07
4.92065e+07
4.81099e+07
5.12171e+07
4.99202e+07
5.31807e+07
5.1676e+07
5.50943e+07
5.33742e+07
5.69556e+07
5.5013e+07
2.47378e+07
2.49294e+07
2.50344e+07
2.53219e+07
2.56682e+07
2.60206e+07
2.66096e+07
2.69941e+07
2.78184e+07
2.82035e+07
2.92505e+07
2.96072e+07
3.08617e+07
3.11648e+07
3.26111e+07
3.2839e+07
3.44627e+07
3.4597e+07
3.63855e+07
3.64105e+07
3.83534e+07
3.82558e+07
4.03451e+07
4.01131e+07
4.23429e+07
4.19663e+07
4.43327e+07
4.38021e+07
4.63034e+07
4.56103e+07
4.82461e+07
4.73824e+07
5.01543e+07
4.91125e+07
5.20231e+07
5.07958e+07
5.38492e+07
5.24294e+07
5.56306e+07
5.40113e+07
2.57106e+07
2.59071e+07
2.59715e+07
2.62587e+07
2.65335e+07
2.68851e+07
2.73728e+07
2.77612e+07
2.84574e+07
2.88549e+07
2.97503e+07
3.01314e+07
3.12142e+07
3.1556e+07
3.28134e+07
3.30956e+07
3.45153e+07
3.47209e+07
3.62918e+07
3.64058e+07
3.81184e+07
3.81279e+07
3.99749e+07
3.98687e+07
4.18441e+07
4.16124e+07
4.37124e+07
4.33462e+07
4.55685e+07
4.50597e+07
4.74038e+07
4.67449e+07
4.92115e+07
4.83953e+07
5.09866e+07
5.00064e+07
5.27257e+07
5.15749e+07
5.44266e+07
5.30988e+07
2.66639e+07
2.68626e+07
2.68944e+07
2.71781e+07
2.73939e+07
2.77408e+07
2.81437e+07
2.85302e+07
2.91177e+07
2.952e+07
3.02853e+07
3.06809e+07
3.16149e+07
3.19832e+07
3.30754e+07
3.3398e+07
3.46379e+07
3.48988e+07
3.62769e+07
3.6462e+07
3.79696e+07
3.80669e+07
3.96971e+07
3.96957e+07
4.1443e+07
4.13337e+07
4.31939e+07
4.29683e+07
4.49391e+07
4.45895e+07
4.66697e+07
4.61891e+07
4.8379e+07
4.77608e+07
5.00618e+07
4.92998e+07
5.17147e+07
5.08028e+07
5.33353e+07
5.22677e+07
2.75945e+07
2.77928e+07
2.77987e+07
2.80766e+07
2.82439e+07
2.85829e+07
2.8915e+07
2.92951e+07
2.97907e+07
3.01915e+07
3.08458e+07
3.12476e+07
3.20532e+07
3.24377e+07
3.33862e+07
3.37369e+07
3.48194e+07
3.51215e+07
3.63295e+07
3.657e+07
3.78959e+07
3.80635e+07
3.95008e+07
3.95854e+07
4.11288e+07
4.11216e+07
4.2767e+07
4.26601e+07
4.44049e+07
4.41912e+07
4.60338e+07
4.57069e+07
4.76471e+07
4.72007e+07
4.92394e+07
4.8668e+07
5.08071e+07
5.01052e+07
5.23477e+07
5.151e+07
2.84993e+07
2.86948e+07
2.86809e+07
2.89505e+07
2.90787e+07
2.94068e+07
2.96805e+07
3.00502e+07
3.04689e+07
3.08627e+07
3.14227e+07
3.18237e+07
3.25193e+07
3.29113e+07
3.37355e+07
3.41037e+07
3.50489e+07
3.53799e+07
3.64388e+07
3.67208e+07
3.78865e+07
3.81088e+07
3.93753e+07
3.95287e+07
4.08909e+07
4.09671e+07
4.2421e+07
4.24128e+07
4.39556e+07
4.38563e+07
4.5486e+07
4.52897e+07
4.70057e+07
4.67069e+07
4.85094e+07
4.81029e+07
4.99933e+07
4.94741e+07
5.14546e+07
5.08182e+07
2.93754e+07
2.95658e+07
2.95375e+07
2.97965e+07
2.98938e+07
3.02084e+07
3.04344e+07
3.07903e+07
3.1145e+07
3.15274e+07
3.2008e+07
3.24022e+07
3.30041e+07
3.33961e+07
3.41135e+07
3.449e+07
3.53164e+07
3.56655e+07
3.65945e+07
3.69054e+07
3.79307e+07
3.81939e+07
3.93099e+07
3.95167e+07
4.07187e+07
4.08616e+07
4.21456e+07
4.22178e+07
4.35808e+07
4.35762e+07
4.50162e+07
4.49294e+07
4.64451e+07
4.6271e+07
4.78623e+07
4.75964e+07
4.92638e+07
4.89017e+07
5.06469e+07
5.01845e+07
3.02198e+07
3.04028e+07
3.03649e+07
3.06112e+07
3.06848e+07
3.09835e+07
3.11714e+07
3.15105e+07
3.18127e+07
3.21796e+07
3.25941e+07
3.29763e+07
3.34992e+07
3.38845e+07
3.45109e+07
3.48878e+07
3.5612e+07
3.59699e+07
3.67863e+07
3.71155e+07
3.80184e+07
3.83101e+07
3.92944e+07
3.95409e+07
4.06021e+07
4.07964e+07
4.19305e+07
4.20665e+07
4.32705e+07
4.33426e+07
4.46143e+07
4.46175e+07
4.59552e+07
4.58851e+07
4.72883e+07
4.71407e+07
4.86094e+07
4.83804e+07
4.99155e+07
4.96016e+07
3.10296e+07
3.12029e+07
3.116e+07
3.13914e+07
3.14478e+07
3.17283e+07
3.18863e+07
3.22059e+07
3.24658e+07
3.28139e+07
3.31738e+07
3.35397e+07