/*--------------------------------*- C++ -*----------------------------------*\
| =========                 |                                                 |
| \\      /  F ield         | OpenFOAM: The Open Source CFD Toolbox           |
|  \\    /   O peration     | Version:  v2012                                 |
|   \\  /    A nd           | Website:  www.openfoam.com                      |
|    \\/     M anipulation  |                                                 |
\*---------------------------------------------------------------------------*/
FoamFile
{
    version     2.0;
    format      ascii;
    class       volSymmTensorField;
    location    "20";
    object      epsilon;
}
// * * * * * * * * * * * * * * * * * * * * * * * * * * * * * * * * * * * * * //

dimensions      [0 0 0 0 0 0 0];


internalField   nonuniform List<symmTensor> 
7666
(
(-9.1488e-05 -5.4614e-07 2.03572e-20 2.23319e-05 -3.54203e-21 0)
(-6.48868e-05 -5.6531e-05 8.18291e-21 5.53502e-05 -1.32112e-20 0)
(-0.000591429 -0.000557253 -2.06627e-20 -0.000168131 -4.30489e-21 0)
(-3.27423e-05 -8.61224e-05 -1.01672e-19 4.58432e-05 2.28048e-20 0)
(-5.3073e-05 -0.000133377 -9.16789e-21 3.89749e-05 4.91726e-21 0)
(0.000180577 -0.000158695 -1.33424e-19 -6.94677e-05 6.82896e-20 0)
(-1.1594e-05 -1.09838e-05 4.06914e-21 2.88385e-05 2.57014e-20 0)
(-1.1137e-05 -8.14834e-05 1.10234e-20 3.51061e-05 -1.19957e-21 0)
(0.000525606 -2.95378e-05 -1.21422e-19 -0.000277199 -1.14177e-19 0)
(-1.72058e-05 -2.2262e-05 -2.74186e-21 4.07735e-05 1.37858e-21 0)
(-8.81005e-05 -4.98402e-05 0 6.30046e-05 0 0)
(8.84541e-06 -3.27208e-05 2.42644e-20 7.34652e-06 -3.26233e-21 0)
(-2.02012e-05 -8.19639e-05 2.51204e-20 4.16088e-05 5.05512e-22 0)
(-3.64938e-05 -6.52443e-05 -1.50672e-20 4.45999e-05 7.95991e-21 0)
(-1.5813e-05 -7.58455e-06 0 4.02904e-05 0 0)
(-0.000340256 6.62329e-05 8.91808e-20 8.63784e-05 5.92802e-20 0)
(-2.38863e-05 -8.18222e-05 1.37785e-20 3.33266e-05 -1.24054e-20 0)
(0.000267219 -4.18249e-05 -3.70549e-20 -0.000107953 -2.74957e-20 0)
(1.78211e-05 -5.22856e-05 2.24121e-20 3.00164e-06 -3.28848e-21 0)
(-4.29931e-05 -4.12258e-05 1.29074e-20 5.01463e-05 -8.46376e-22 0)
(-7.41606e-05 -1.6161e-05 -3.39631e-20 6.74703e-05 2.88074e-21 0)
(7.61882e-05 -8.78541e-05 -2.74495e-20 -2.11114e-05 -1.47304e-20 0)
(-2.87514e-05 -6.78226e-05 1.8418e-20 3.89126e-05 -4.92311e-22 0)
(-6.45824e-05 -8.04448e-05 -3.38595e-21 5.80266e-05 -2.4732e-22 0)
(9.21887e-05 -0.000160447 -1.3486e-19 -4.37442e-05 5.92527e-20 0)
(-1.8364e-05 -9.56939e-06 -2.41125e-20 4.0551e-05 8.92029e-21 0)
(9.04873e-05 -0.000171013 -1.718e-19 -6.51582e-05 2.36658e-20 0)
(-0.000102061 -2.17499e-05 -3.72026e-20 5.497e-05 2.1255e-20 0)
(-2.40416e-05 -7.98744e-05 6.6655e-21 3.26984e-05 -2.49037e-21 0)
(1.50624e-06 -3.68274e-06 1.48857e-20 2.05538e-06 -5.56095e-21 0)
(6.82187e-06 -4.33992e-06 -1.85664e-22 -2.30846e-06 -5.08627e-22 0)
(0.000247942 -4.75259e-05 -9.0396e-20 -0.000108484 -4.05346e-20 0)
(-8.44002e-05 2.15044e-05 5.58204e-20 -1.39313e-05 -4.54355e-20 0)
(-1.69416e-07 -1.32516e-05 -7.0859e-21 9.77185e-06 -1.37662e-20 0)
(-3.67755e-05 5.08241e-05 9.2645e-21 -7.01371e-05 3.19282e-20 0)
(-5.58338e-05 -4.42011e-05 1.42179e-20 6.03261e-05 -1.38771e-20 0)
(-5.88045e-05 -4.02958e-05 5.42919e-21 6.0873e-05 8.28312e-21 0)
(6.78367e-06 -1.1592e-05 3.67523e-20 1.50535e-06 7.99994e-21 0)
(0.00018722 -0.000116085 -2.66116e-19 -6.9644e-05 -7.45659e-20 0)
(-2.04338e-05 -3.00686e-05 5.23484e-21 3.77162e-05 -3.49347e-21 0)
(-0.000164921 8.56044e-05 -6.40164e-20 3.418e-06 1.15568e-19 0)
(0.00122493 -0.000163735 -7.29226e-20 -0.00110031 1.83246e-19 0)
(0.00106675 -5.12213e-05 -3.60192e-19 -0.000195985 -1.62022e-19 0)
(-0.000109867 -3.71459e-05 -4.01366e-20 5.77995e-05 1.21418e-20 0)
(0.000795049 0.000303255 6.42976e-20 -0.00020622 -2.48118e-20 0)
(-1.29962e-05 -9.76563e-06 -1.28541e-20 3.38469e-05 2.25476e-20 0)
(0.00033478 -0.000119365 -1.42977e-19 -0.000120763 -1.6485e-19 0)
(-0.000157529 6.36617e-05 8.75947e-21 2.94898e-05 4.85248e-21 0)
(-0.000146521 -2.17659e-05 3.82202e-20 6.65404e-05 -5.54993e-20 0)
(-9.91354e-05 -1.21871e-05 -2.85844e-20 6.5179e-05 3.12104e-20 0)
(-0.0001065 -1.64336e-05 2.19144e-20 4.7287e-05 -1.17577e-20 0)
(8.35965e-05 -4.68078e-05 -1.46215e-20 -2.80469e-05 -7.20759e-21 0)
(-1.12215e-05 -6.65598e-06 1.29733e-20 2.17757e-05 -1.10835e-20 0)
(0.00054888 -3.42567e-05 -1.42352e-19 -0.000254879 -1.28554e-19 0)
(-8.50981e-05 -6.97208e-06 -6.03869e-21 6.91672e-05 -1.64094e-20 0)
(-0.00038239 0.000100266 -5.32763e-20 7.51982e-05 6.36746e-20 0)
(-9.73883e-05 -1.63755e-05 1.7581e-20 6.59376e-05 -2.28752e-20 0)
(-9.40667e-05 -1.33007e-05 8.66085e-21 6.79679e-05 2.93849e-21 0)
(-8.17782e-05 -0.000131303 2.00066e-19 -8.75908e-06 1.66008e-20 0)
(0.000213137 -0.000158446 3.49863e-20 -7.51486e-05 -4.69987e-20 0)
(-9.02707e-05 -2.99591e-05 2.33705e-20 6.72966e-05 3.66727e-22 0)
(2.88076e-06 -8.41004e-06 1.78589e-20 7.99702e-07 -9.11845e-21 0)
(-3.38283e-05 -7.7349e-05 3.60889e-20 4.29144e-05 -6.58307e-21 0)
(-2.94815e-05 -7.77212e-05 -1.99519e-20 4.32734e-05 4.65963e-22 0)
(-9.5688e-05 -2.03026e-05 2.12001e-20 6.42883e-05 5.50441e-22 0)
(-0.000140868 -4.6063e-05 -4.99535e-20 6.81505e-05 -2.68447e-21 0)
(-2.59542e-05 -2.30499e-05 -1.20564e-20 5.19678e-05 1.89382e-20 0)
(-9.88485e-05 -1.82313e-05 -1.14288e-20 6.44293e-05 1.14896e-20 0)
(-0.000261759 -6.49816e-05 -9.07769e-20 4.57773e-05 -5.77284e-20 0)
(-7.8902e-05 -0.000149202 0 -1.52371e-05 0 0)
(-0.00028019 -8.35675e-05 1.5053e-19 4.05217e-05 -5.02278e-20 0)
(-2.94189e-05 -4.38841e-06 -1.74891e-20 6.48305e-05 4.27101e-20 0)
(-2.93e-05 -4.49656e-06 4.61619e-21 6.67078e-05 1.46492e-20 0)
(6.75567e-08 -2.09788e-06 -3.35302e-21 1.47957e-06 1.7189e-22 0)
(3.43821e-07 -2.27259e-06 -2.82213e-21 1.18176e-06 1.23347e-22 0)
(-1.10809e-05 -1.1393e-06 5.03549e-21 2.60234e-05 -1.27971e-20 4.72628e-36)
(0.000427462 0.000248775 2.2944e-19 -0.000119267 4.17458e-19 0)
(-4.29146e-05 -6.83665e-05 3.38272e-22 4.61763e-05 1.20064e-20 0)
(-3.61773e-05 -6.90667e-05 0 4.6414e-05 0 0)
(-8.31811e-05 -3.31817e-05 -1.00979e-20 7.00837e-05 -3.15723e-21 0)
(-9.74195e-06 -2.48488e-05 5.04557e-21 2.26229e-05 -6.63319e-21 0)
(-2.60178e-05 -1.17645e-05 -7.41534e-21 5.64966e-05 3.83866e-21 0)
(-0.000101794 -5.38928e-05 8.5709e-21 6.35045e-05 -6.02919e-22 0)
(0.00101127 0.000131903 3.03755e-19 -0.000192978 2.40107e-19 0)
(2.11137e-05 -2.67383e-05 2.33052e-22 -1.0076e-06 7.91502e-22 0)
(6.16757e-05 -1.24879e-05 9.86972e-21 -3.12284e-05 -9.11181e-21 0)
(6.93676e-05 -1.47943e-05 -1.60474e-20 -2.32642e-05 -1.47979e-20 0)
(8.55313e-05 -6.63695e-05 -3.9991e-20 -3.50037e-05 4.54147e-22 0)
(-0.000160121 6.47512e-06 8.24384e-20 5.11611e-05 -2.52469e-20 0)
(4.39808e-06 -6.20999e-06 3.17643e-21 -4.68564e-07 -4.78178e-21 0)
(-1.45607e-05 -5.13195e-05 -2.90058e-21 2.98648e-05 1.34537e-21 0)
(-1.43277e-05 -5.0399e-05 -2.98239e-20 2.99674e-05 5.72765e-21 0)
(9.04965e-05 -2.26041e-06 -3.95776e-20 -3.51953e-05 -1.49075e-21 2.84852e-36)
(-7.36424e-05 -0.000207735 -2.94748e-19 -9.91757e-05 -4.44271e-19 0)
(0.000617321 -4.69739e-06 2.47702e-19 -0.00026625 1.00694e-19 -1.07194e-35)
(-0.000219642 8.9515e-06 -1.24745e-20 6.28038e-05 -6.93158e-20 0)
(8.6505e-06 5.31843e-05 4.33511e-21 -0.000122085 -3.21272e-20 0)
(0.000754936 -0.00137208 -7.72101e-20 -0.00123096 -3.51948e-19 0)
(1.80806e-05 -5.00016e-05 1.81644e-20 2.21215e-06 -2.73673e-21 0)
(-4.04576e-05 -3.90368e-05 -2.7952e-20 5.35894e-05 2.12848e-20 0)
(9.30599e-05 -7.44332e-06 9.87799e-21 -3.85195e-05 -1.60945e-20 0)
(2.05792e-06 -3.14035e-06 2.20076e-21 1.35516e-06 -8.12901e-21 0)
(-9.64119e-05 6.78351e-06 2.46261e-20 2.19424e-05 -1.92264e-20 0)
(0.000144168 -0.000534941 7.26836e-19 -0.000566598 -2.84644e-19 0)
(-0.00011463 3.74154e-05 -4.29804e-20 4.61276e-06 6.37528e-21 0)
(0.000174705 -0.000110514 1.04888e-20 -6.5995e-05 1.09101e-20 0)
(0.00103183 2.19019e-05 -9.28742e-19 -0.000697422 -6.67984e-19 0)
(3.09508e-05 -0.00014656 -3.97454e-20 1.36168e-05 1.47599e-21 0)
(-1.24377e-05 -1.03363e-05 -7.69831e-21 2.86849e-05 1.52216e-20 0)
(8.8446e-05 -3.49321e-05 1.35932e-21 -2.94599e-05 1.37561e-20 0)
(-4.80294e-05 -7.36321e-05 6.25632e-20 5.18145e-05 -1.91796e-20 0)
(2.89278e-06 -0.000132896 2.60777e-20 2.6575e-05 -2.9728e-21 0)
(-7.56636e-05 -5.90165e-05 -2.3858e-20 6.34004e-05 3.97213e-21 0)
(-8.45057e-05 -2.89689e-05 4.60082e-20 7.09134e-05 -2.67863e-20 0)
(-9.54883e-05 -4.35142e-05 -9.6802e-21 6.54084e-05 -6.67784e-21 0)
(2.25008e-06 -0.000146173 -4.73709e-20 2.14944e-05 -4.61162e-20 0)
(-0.000103316 -2.5777e-05 -2.92962e-20 5.57238e-05 1.51525e-20 0)
(-2.34251e-05 7.90694e-05 3.77562e-22 -0.000128368 -1.9995e-21 0)
(8.01318e-06 -1.58461e-05 -5.0604e-22 4.61217e-07 6.34159e-22 0)
(9.39827e-06 -1.72447e-05 1.10375e-20 4.90982e-07 -5.92845e-22 0)
(0.000327613 -8.93675e-05 1.2325e-20 -0.00015653 2.71015e-20 0)
(-1.08659e-06 -1.44781e-06 -8.3397e-21 1.29921e-06 -1.2793e-20 0)
(-6.07762e-07 -3.59665e-05 -3.1946e-20 1.26396e-05 5.97948e-21 0)
(-1.83263e-05 -1.31799e-05 -8.87654e-21 4.1186e-05 1.71002e-20 0)
(-6.63665e-05 -7.95566e-05 -1.78218e-21 5.93024e-05 8.46859e-22 0)
(-9.59525e-05 -1.41313e-06 2.06505e-20 6.62079e-05 7.94903e-21 0)
(2.87487e-05 -0.000140839 -3.05243e-21 1.38887e-05 2.61871e-20 0)
(1.0554e-05 -0.000120783 -3.27611e-20 1.41787e-05 -2.78391e-21 0)
(-5.37343e-05 -9.48533e-05 -1.3602e-19 5.53967e-05 3.78731e-20 0)
(-1.28182e-05 -6.39501e-05 0 2.79228e-05 0 0)
(-0.000341909 0.000114733 6.50398e-20 9.39393e-05 -1.29619e-19 0)
(3.75374e-05 -3.82118e-05 1.03824e-20 -1.56935e-05 4.38632e-21 0)
(-5.39241e-05 -2.49422e-05 1.54124e-20 6.16222e-05 -9.3181e-21 0)
(0.000379124 0.00010791 -1.55543e-19 -4.59101e-05 -1.19309e-19 0)
(1.54738e-06 -3.51297e-05 -1.43131e-21 1.38803e-05 -3.83528e-22 0)
(0.000169298 -9.56569e-05 -7.15968e-21 -6.6517e-05 -1.19671e-20 0)
(-1.02629e-05 -2.44322e-05 -1.70303e-20 2.51642e-05 6.8297e-21 0)
(-1.73595e-05 -2.9478e-05 9.30414e-21 3.56059e-05 -3.62426e-21 0)
(-2.42842e-05 -5.68287e-05 2.55786e-20 3.94277e-05 -1.32782e-20 0)
(-5.90993e-05 -7.79586e-05 3.41239e-20 6.02497e-05 -7.28544e-21 0)
(-6.15787e-05 -9.72169e-05 -4.20894e-20 5.11361e-05 6.80152e-21 0)
(-2.68051e-05 -9.14395e-06 3.09734e-21 5.76984e-05 -6.81285e-21 0)
(-3.28092e-05 -5.87748e-06 -7.38415e-21 5.70644e-05 7.40518e-21 0)
(-3.29775e-05 -5.20104e-06 -5.57587e-21 5.52953e-05 -5.43093e-21 0)
(-2.88363e-05 -2.3993e-05 1.84902e-20 4.78744e-05 -1.82347e-20 0)
(-2.5471e-05 -4.19086e-05 4.15989e-20 4.23334e-05 -2.05802e-20 0)
(-1.31283e-05 -1.3512e-05 -2.08662e-21 3.17112e-05 -6.90273e-21 0)
(-2.45219e-05 -8.11953e-06 1.43018e-20 6.08666e-05 -1.93218e-20 0)
(-9.08575e-05 -2.6279e-07 -1.82506e-20 2.31192e-05 5.10014e-21 0)
(3.45394e-06 -7.0327e-05 2.34346e-20 2.06798e-05 1.23243e-21 0)
(-1.81135e-05 -2.1096e-05 2.60901e-20 3.82348e-05 -2.43332e-20 0)
(-0.000172507 2.60923e-05 9.09967e-20 4.97768e-05 -7.34131e-20 0)
(-8.94209e-05 -3.54398e-05 -5.02445e-21 6.5628e-05 1.1878e-20 0)
(-0.000132763 6.64442e-05 -5.70098e-20 2.28649e-05 1.11775e-19 0)
(-3.80421e-05 -2.46484e-05 1.4394e-21 5.24691e-05 7.39667e-21 0)
(-3.60693e-05 -2.2622e-05 -1.61371e-20 5.30528e-05 9.64139e-21 0)
(-0.000161449 6.75575e-05 1.13967e-20 5.35752e-06 -4.51385e-20 0)
(-5.97099e-05 -0.000105225 4.27965e-20 4.58723e-05 -1.68853e-20 0)
(-5.21914e-05 -8.78434e-05 -3.77798e-20 5.37274e-05 1.03144e-20 0)
(-6.54829e-06 -1.09136e-05 -5.70353e-21 1.22754e-05 -8.02077e-21 0)
(0.00028835 -0.000383656 1.9802e-21 -0.000615587 -1.63379e-20 0)
(0.000488664 1.17551e-05 0 -0.000200668 0 0)
(6.81394e-05 -9.25216e-05 -1.53675e-20 -2.03241e-05 -1.02369e-21 0)
(0.00153876 0.000101756 5.24192e-20 -0.00084758 -1.05274e-19 0)
(0.000119711 -0.000538399 -6.81545e-19 -0.000162033 -7.48336e-19 0)
(-0.000341281 -0.000570313 2.14761e-19 -0.000133788 -5.01797e-19 0)
(-5.23758e-05 -8.81924e-05 2.09107e-20 5.09629e-05 -7.98812e-21 0)
(-9.97396e-05 -1.28729e-05 1.09699e-20 6.21943e-05 1.90306e-20 0)
(-9.41037e-05 -1.64296e-05 2.62937e-20 6.80807e-05 -1.23917e-20 0)
(0.00082076 -0.000313393 7.30241e-19 -0.000749078 7.96039e-19 0)
(-6.7491e-05 -5.87345e-05 0 6.11343e-05 0 0)
(-9.42147e-05 -4.24407e-05 3.57959e-20 6.47008e-05 -8.93839e-21 0)
(5.32575e-05 -7.9059e-05 7.74633e-21 -9.09281e-06 -5.84062e-21 0)
(4.61987e-05 -3.14787e-05 1.5423e-20 -1.36504e-05 7.34223e-21 0)
(-0.000187615 4.3812e-05 1.23337e-19 3.9526e-05 -1.10502e-20 0)
(-8.43071e-05 -9.27242e-06 2.06446e-20 6.99255e-05 8.92551e-21 0)
(2.71489e-05 -0.000126912 -1.33311e-19 7.51582e-06 2.6654e-20 0)
(0.000640972 -2.19495e-06 4.16714e-20 -0.000265272 1.30296e-19 -2.85125e-34)
(1.54432e-05 -1.10644e-05 7.23042e-22 -4.90679e-06 8.94172e-22 0)
(-3.59224e-05 -8.61714e-05 -8.84811e-20 4.27407e-05 1.89781e-20 0)
(5.6715e-05 -9.79399e-05 -1.57906e-20 -8.81554e-06 -3.45817e-21 0)
(3.41768e-05 2.56452e-05 -6.21419e-21 -0.000153486 8.4544e-20 0)
(4.87224e-05 -6.53849e-05 3.39112e-21 -1.26065e-05 9.18006e-21 0)
(-1.21582e-05 6.29256e-05 -7.13048e-21 -0.000130744 1.00702e-19 0)
(-0.000137776 -4.15495e-05 1.79747e-20 6.45312e-05 3.44094e-20 0)
(-0.000222461 1.05491e-05 -1.07566e-19 5.96112e-05 1.30943e-20 0)
(-2.954e-05 -2.61374e-06 6.59606e-21 6.65613e-05 2.32153e-20 0)
(-1.50647e-07 -3.63866e-07 -4.29386e-21 1.62843e-07 -6.04512e-21 0)
(-6.64519e-05 -0.000129056 1.65162e-19 2.55304e-06 1.18873e-21 0)
(-3.15425e-06 -1.78223e-05 2.98552e-20 1.47291e-05 -1.03433e-20 0)
(-6.64733e-05 -6.10046e-05 0 5.99535e-05 0 0)
(-1.74798e-05 -3.96262e-05 3.17764e-20 3.78924e-05 -1.26916e-20 0)
(-2.1402e-05 -3.97274e-05 -1.23803e-20 3.56861e-05 2.91069e-21 0)
(-2.41203e-05 -5.41035e-05 -3.63047e-20 4.17057e-05 1.86663e-20 0)
(-2.52261e-06 -0.000135067 -8.88166e-20 3.41137e-05 -6.41722e-22 0)
(0.000469665 -3.50544e-05 -5.51772e-19 -0.000294611 -4.88198e-19 0)
(-5.02615e-05 -6.42963e-05 1.59986e-20 5.24878e-05 2.95947e-21 0)
(-1.0268e-05 -4.43198e-06 0 2.37226e-05 0 0)
(-1.34849e-05 -1.27356e-05 -1.01086e-21 3.05217e-05 7.54382e-21 0)
(4.35518e-05 0.000125028 2.71094e-20 -0.000221918 -3.11805e-20 0)
(4.31252e-05 -0.000131681 3.11384e-20 1.08907e-05 9.71961e-21 0)
(-0.000100806 -2.72161e-05 0 5.35257e-05 0 0)
(1.35029e-05 -1.15445e-05 0 -5.07303e-06 0 0)
(0.000176119 -0.000103135 5.73426e-20 -6.96715e-05 5.6824e-21 0)
(-5.30054e-05 -1.73444e-05 0 6.24779e-05 0 0)
(0.00113502 -6.41457e-06 3.53031e-20 -0.000942148 -1.90677e-19 0)
(-3.46869e-05 -2.83757e-05 3.50914e-21 4.81587e-05 -2.45526e-21 0)
(-0.00012802 0.000104039 -9.88613e-20 -3.71108e-05 1.62219e-19 0)
(-9.9637e-05 -2.86823e-05 -1.69144e-20 6.10028e-05 1.07283e-20 0)
(-5.25575e-05 5.48648e-05 -1.22368e-20 -7.43989e-05 -2.19196e-20 0)
(0.000237428 -0.000155906 4.60127e-19 -0.000187439 1.03761e-19 0)
(-0.000101561 -2.81121e-05 -4.42453e-20 6.03941e-05 1.50326e-20 0)
(-3.36249e-05 -5.63489e-06 3.11145e-21 5.51254e-05 -3.36109e-20 0)
(-2.65312e-05 -1.33572e-05 7.99933e-21 5.67337e-05 -1.18361e-20 0)
(-2.63482e-05 -8.67359e-06 3.31188e-21 6.06217e-05 -7.50668e-21 0)
(-9.41554e-05 -4.0026e-05 1.99144e-20 6.3525e-05 9.65904e-22 0)
(-5.45661e-05 -7.04058e-05 -7.26174e-20 5.22634e-05 2.55074e-20 0)
(0.000273364 -0.000130762 3.83987e-21 -0.000119499 1.51572e-19 0)
(-8.68086e-05 -3.67261e-05 4.87965e-20 7.07571e-05 -3.12261e-20 0)
(0.000117496 -1.75478e-05 -1.79591e-20 -4.52431e-05 -1.08713e-20 0)
(0.000937028 0.00024685 -4.89235e-19 -0.000689068 -1.02684e-19 0)
(0.00118988 -0.00017975 -7.08813e-19 -0.00112049 -6.51304e-19 0)
(4.67392e-06 -3.35064e-06 -6.11041e-21 -2.63836e-06 -6.3073e-21 0)
(-3.12958e-05 -3.46109e-06 6.09626e-21 5.78594e-05 3.20286e-21 0)
(4.94897e-05 -3.96015e-05 -4.58452e-20 -1.84014e-05 8.17399e-21 0)
(-2.16809e-05 -0.000111759 -1.04614e-19 4.28694e-05 2.0402e-20 0)
(0.000992154 0.00026236 8.93292e-19 -0.000703011 7.90705e-19 0)
(0.000452611 0.000212103 9.99626e-20 -3.74244e-05 5.76251e-20 0)
(-7.03305e-05 -2.98558e-06 -1.89217e-20 6.84843e-05 -2.59573e-20 0)
(-4.26048e-05 -8.96342e-05 3.54773e-20 4.67113e-05 -7.5122e-21 0)
(-4.40692e-05 -8.90899e-05 -9.71463e-21 5.01796e-05 1.39651e-22 0)
(-1.77977e-06 -1.87721e-05 3.08592e-20 9.71099e-06 -7.51226e-21 0)
(-0.000163138 9.58156e-06 2.12701e-20 5.07866e-05 3.42921e-20 0)
(-0.00022325 4.95195e-05 4.0403e-20 5.39246e-05 -1.03487e-19 0)
(-2.95959e-05 -1.13434e-06 -7.29138e-21 6.94103e-05 -2.56012e-20 0)
(-7.64392e-07 -4.93456e-08 7.13058e-21 2.24025e-08 4.04367e-21 0)
(0.00094505 0.000354592 2.01623e-19 -0.000234757 2.23863e-19 0)
(7.88183e-05 -4.3234e-05 0 -3.21289e-05 0 0)
(-7.03904e-06 7.55941e-05 1.77843e-20 -0.000123875 -1.13973e-19 0)
(-1.25013e-06 -1.37845e-05 -1.95616e-20 7.45398e-06 1.38599e-20 0)
(-3.25703e-05 -1.5016e-05 7.0476e-21 5.41279e-05 -8.71086e-21 0)
(2.6001e-05 -9.04338e-05 1.17723e-19 7.05798e-06 -2.93319e-21 0)
(-4.04634e-05 -7.84079e-05 2.3784e-20 4.53597e-05 -1.80234e-20 0)
(-0.000101287 -2.3661e-05 -2.98291e-22 6.13257e-05 1.20587e-20 0)
(-7.10943e-05 -6.14683e-05 -2.70916e-20 6.40528e-05 4.14066e-21 0)
(-7.61307e-05 -5.26994e-05 -2.35259e-20 6.39911e-05 -8.17852e-22 0)
(7.00862e-05 5.9531e-05 1.41255e-22 -0.000210581 -3.16971e-21 0)
(-7.37448e-05 -5.77563e-05 1.58438e-20 6.48954e-05 -1.34299e-20 0)
(-1.08941e-05 -0.000411761 -4.37371e-20 -0.000241089 2.33563e-19 0)
(2.3409e-05 -0.000134446 -7.62333e-20 1.69163e-05 -4.802e-21 0)
(1.24143e-05 -0.000136016 -8.0013e-20 1.51797e-05 -3.95562e-21 0)
(-8.44542e-05 -4.06864e-05 3.93328e-20 6.74771e-05 -2.67578e-21 0)
(-4.42651e-06 -0.000155656 -8.94826e-21 1.9133e-05 5.92455e-21 0)
(3.95255e-05 -3.31443e-05 -4.53454e-20 -1.96778e-05 -6.132e-21 0)
(-2.91188e-05 -2.43422e-06 -1.89914e-20 6.27528e-05 3.26824e-20 0)
(1.074e-07 -4.46174e-07 -7.74067e-22 1.98182e-07 -1.56398e-21 0)
(0.000424762 0.000150068 -1.30503e-19 -1.84461e-05 -1.54409e-19 0)
(6.89118e-05 -8.09313e-05 -2.8795e-20 -3.08675e-05 5.76949e-21 0)
(-4.69804e-06 -0.000142774 -6.80106e-20 1.9402e-05 1.958e-20 0)
(-5.79117e-05 0.000147565 -3.72945e-21 -7.52726e-05 2.34974e-20 0)
(-0.000113406 -6.69504e-05 -5.67814e-20 6.59378e-05 1.99097e-20 0)
(4.33099e-05 -0.000160373 1.60451e-19 -1.4209e-05 9.11101e-21 0)
(0.000169981 -0.000125379 -1.65644e-19 -6.55927e-05 -2.9584e-20 0)
(9.09675e-05 -6.94516e-05 7.70012e-20 -3.12659e-05 2.08735e-20 0)
(-1.74868e-05 -1.49037e-05 -1.44558e-20 3.61792e-05 1.49509e-20 0)
(6.45241e-05 4.45332e-05 3.10089e-20 -0.000216901 -4.14739e-21 0)
(-4.97604e-05 -7.55719e-05 -6.71252e-21 5.158e-05 -4.91648e-21 0)
(0.000135476 -0.000150061 1.10741e-20 -3.43805e-05 -1.35537e-20 0)
(0.00237663 -7.90854e-05 -3.854e-19 -0.00113698 -3.00169e-19 0)
(-6.9468e-05 8.70618e-06 1.92767e-20 -2.55743e-05 8.50934e-21 0)
(-1.23009e-05 -3.9801e-06 5.61076e-21 2.63554e-05 -1.45319e-20 0)
(-1.40225e-05 -9.76067e-06 1.62455e-20 3.23994e-05 -1.46989e-20 0)
(-6.80457e-07 -1.89943e-05 -5.86694e-21 7.47287e-06 -3.4287e-21 0)
(7.4149e-05 -3.8127e-05 -1.32212e-20 -3.32125e-05 -6.88146e-21 0)
(-6.62582e-05 1.11242e-05 0 -2.20393e-05 0 0)
(-7.69677e-05 -5.63519e-05 4.8034e-20 6.27965e-05 -2.6732e-20 0)
(0.000568643 0.000327864 2.61163e-19 -0.000244095 2.04547e-19 0)
(0.000491515 0.000263768 7.57637e-20 -0.000291106 6.31322e-19 0)
(-5.27063e-05 -0.000107366 6.67434e-20 4.82389e-05 -1.96612e-20 0)
(-4.67324e-05 -0.000111256 6.56418e-20 4.83081e-05 -2.08936e-20 0)
(-9.3144e-06 -7.9486e-06 -4.56356e-21 2.38851e-05 -8.94074e-21 0)
(0.000193594 -5.07964e-05 5.09513e-20 -7.37932e-05 2.99952e-20 0)
(-7.50896e-05 -6.93029e-05 -5.40121e-20 5.99375e-05 2.52753e-20 0)
(4.26976e-07 -8.20124e-06 1.70557e-20 1.6805e-06 -1.88614e-21 0)
(-0.000107822 -1.56922e-05 -6.34372e-20 4.46978e-05 5.50401e-20 0)
(-0.000122359 3.03393e-05 3.06121e-21 2.15033e-05 1.04385e-20 0)
(8.33166e-05 -8.42316e-05 -2.76569e-21 -2.10451e-05 -5.83842e-21 0)
(-0.000156734 -0.00010031 6.43504e-20 2.33761e-05 7.44459e-20 0)
(-0.00011695 2.84488e-05 6.90687e-22 1.46575e-05 3.08416e-20 0)
(-2.59774e-05 -1.39586e-05 1.47645e-20 5.62657e-05 -1.84662e-20 0)
(-2.57044e-05 -1.44506e-05 9.37517e-21 5.57573e-05 -4.1888e-21 0)
(0.000351211 -0.000226448 6.61704e-19 -0.000438777 7.67992e-19 0)
(0.000305222 -0.000132824 1.21812e-19 -0.000114616 -1.13192e-20 0)
(-0.000103254 -3.71035e-05 -2.96459e-20 6.15103e-05 1.93696e-20 0)
(-4.83879e-05 -7.31831e-05 -6.96819e-20 5.4113e-05 2.47493e-20 0)
(-3.58965e-05 -0.000389377 -2.76771e-19 -0.000205742 1.86593e-20 0)
(-2.76866e-05 -1.25156e-05 -9.3051e-21 5.70532e-05 1.025e-20 0)
(-9.89333e-05 -9.2444e-06 2.76972e-20 4.6046e-05 -2.62687e-20 0)
(-0.000102484 -1.23237e-05 0 5.1545e-05 0 0)
(2.09818e-05 -4.25675e-05 -2.72339e-20 -3.70877e-06 -1.74506e-21 0)
(-4.2715e-05 -3.21436e-05 -1.96524e-20 5.46455e-05 3.02026e-20 0)
(-7.42303e-05 -5.22604e-05 -1.12061e-20 6.45119e-05 1.14807e-22 0)
(-2.80598e-05 -4.14684e-05 3.11666e-21 4.2281e-05 -1.60332e-21 0)
(-3.01107e-05 -1.19693e-06 -3.49849e-21 7.22841e-05 2.12759e-20 0)
(3.19415e-08 2.69886e-07 -1.07003e-20 -2.90114e-08 9.08358e-22 0)
(-9.37632e-05 -3.31091e-05 -3.5766e-20 6.79375e-05 -5.21983e-21 0)
(-6.99355e-05 -7.8097e-07 -2.48466e-21 6.78873e-05 -1.30403e-20 0)
(-0.000189767 6.00916e-05 5.395e-20 3.53919e-05 -8.71749e-20 0)
(-7.61232e-05 -8.22145e-05 5.22297e-20 5.9163e-05 -1.72813e-20 0)
(-8.68996e-05 -2.40328e-05 -2.77818e-20 6.75772e-05 1.16022e-20 0)
(-9.10452e-05 6.88324e-06 -2.74316e-20 9.68681e-06 1.40861e-20 0)
(-9.66654e-05 -1.22927e-05 1.75399e-20 6.53493e-05 5.14518e-21 0)
(-9.92343e-05 -1.12212e-05 -6.41749e-21 5.64073e-05 -6.88463e-21 0)
(-0.000102031 -9.73479e-06 -1.11243e-20 5.582e-05 -8.02465e-21 0)
(-7.35809e-05 -4.81215e-05 1.34321e-20 6.55598e-05 -1.40059e-20 0)
(2.75405e-05 -3.87598e-05 3.66725e-20 -1.78392e-06 -1.22281e-21 0)
(-4.66191e-05 -2.86646e-05 3.18783e-21 5.24498e-05 -1.08717e-20 0)
(-0.000113269 -4.48109e-05 -4.43545e-20 6.20056e-05 1.98365e-20 0)
(2.28003e-05 -4.38719e-05 -4.30864e-22 -2.36297e-06 -6.48808e-21 0)
(-4.27326e-05 -3.28584e-05 -3.53634e-20 5.47278e-05 2.70087e-20 0)
(-2.33867e-05 -0.000103039 6.43328e-20 3.39514e-05 -1.04456e-20 0)
(-1.05004e-05 -0.000105538 1.93195e-19 3.4082e-05 -3.02547e-20 0)
(0.000665749 -5.599e-06 -2.22857e-19 -0.000272424 -2.22422e-19 0)
(2.31374e-05 -6.58187e-05 4.3611e-21 9.97238e-07 4.98601e-21 0)
(-4.59419e-06 -1.06384e-05 -1.47682e-20 1.552e-05 3.74498e-21 0)
(-7.4563e-05 -4.98717e-05 8.62542e-21 6.34017e-05 2.12098e-21 0)
(-0.000101106 -4.63617e-07 5.91331e-22 5.50765e-05 -1.25461e-20 0)
(6.80761e-06 -3.0415e-05 -6.16972e-21 4.18157e-06 -5.72131e-22 0)
(-9.48741e-05 -2.21438e-05 4.0105e-20 6.58884e-05 2.49242e-21 0)
(-0.000109609 -2.08756e-05 3.23307e-21 5.20755e-05 8.3171e-21 0)
(-0.0001124 -1.53713e-05 2.43464e-20 4.58881e-05 -1.84582e-20 0)
(6.7269e-05 -8.75675e-05 -2.12231e-20 -2.17807e-05 1.08481e-21 0)
(0.00139965 -0.0015341 2.4312e-19 -0.00218838 -1.42528e-18 0)
(-4.57996e-06 -1.61843e-05 -1.97177e-21 1.31396e-05 1.07897e-20 0)
(0.000497986 -5.17374e-05 2.11001e-20 -0.000178749 1.0343e-20 0)
(0.000483154 -5.22865e-05 -4.37668e-21 -0.000214784 1.84235e-21 0)
(-0.000105273 -0.000104036 -1.35687e-19 5.41358e-05 7.65481e-20 0)
(-9.75796e-05 -2.98327e-06 -1.57723e-20 3.29098e-05 1.67187e-20 0)
(-2.87314e-05 -1.77178e-06 -1.82392e-21 6.59304e-05 6.74032e-21 0)
(2.259e-07 -1.15751e-08 -2.05268e-20 -2.24166e-07 8.85229e-21 0)
(-9.54688e-05 -5.2831e-05 1.86579e-21 6.57438e-05 -9.35975e-22 0)
(-0.000193649 -3.09157e-05 -2.08571e-20 5.54852e-05 1.61748e-20 0)
(-0.000104838 -2.83696e-06 -4.66673e-21 2.85977e-05 -1.45329e-21 0)
(-0.000236976 0.000262646 -2.52258e-20 -2.11414e-05 8.77332e-20 0)
(5.47107e-05 -8.38305e-05 7.19767e-20 -1.00439e-05 -6.56218e-23 0)
(2.74044e-05 -3.7186e-05 -1.75635e-20 -8.11398e-06 -8.06068e-21 0)
(-4.65097e-05 -2.64245e-05 0 5.68459e-05 0 0)
(-9.3164e-05 -0.000121432 -2.33045e-19 4.53123e-05 4.875e-20 0)
(-5.96153e-05 5.61365e-05 -3.02235e-20 -4.50648e-05 2.21728e-20 0)
(-3.03545e-05 -2.66515e-06 7.04701e-21 7.04569e-05 -8.07484e-21 0)
(1.37164e-07 -9.22744e-08 -6.93045e-21 2.14526e-07 1.8214e-20 0)
(0.00064376 0.000259235 5.55768e-19 -0.000324892 6.62465e-19 0)
(-0.00016923 -9.2341e-05 2.10835e-19 3.90986e-05 3.41e-20 0)
(-7.30687e-05 -1.29021e-05 -2.56079e-20 6.57963e-05 3.77597e-20 0)
(-8.65752e-05 -0.000151744 -1.68397e-19 -2.86723e-05 -4.39239e-20 0)
(0.000650497 0.000352689 -3.54106e-19 -0.000233077 -3.66171e-19 0)
(-5.66947e-05 -8.42622e-05 4.2389e-20 5.5221e-05 -1.23237e-20 0)
(-3.32e-05 -1.63807e-05 -1.94273e-20 5.42779e-05 2.92238e-20 0)
(0.000118812 -0.000158213 -1.05174e-19 -4.56692e-05 -2.74372e-20 0)
(3.10027e-05 2.3819e-05 -2.34494e-21 -0.000163091 -4.75748e-20 0)
(9.09094e-06 -6.7288e-05 1.94919e-21 9.1937e-06 -4.98007e-21 0)
(0.000574445 0.000323305 -9.11969e-20 -0.00019198 -1.26523e-19 0)
(8.11409e-05 -4.07026e-05 1.94238e-20 -2.41325e-05 5.41111e-21 0)
(0.000657094 0.000320965 -3.01836e-21 -0.000294705 3.54929e-19 0)
(-2.5963e-05 -1.09334e-05 9.09491e-22 5.80834e-05 -5.39487e-22 0)
(0.000386565 -7.57369e-05 1.06713e-19 -0.000169393 3.55916e-20 0)
(7.13362e-05 -0.000158165 -8.50987e-20 -1.95032e-05 -3.96737e-20 0)
(0.000130649 -0.000129765 -6.787e-20 -3.71137e-05 -1.27135e-20 0)
(-1.32017e-05 -2.26413e-05 0 3.51598e-05 0 0)
(0.000473867 -7.53087e-06 -1.8516e-20 -0.000272056 -1.90928e-19 0)
(6.83276e-06 -3.35052e-05 5.81929e-21 3.37999e-06 5.63497e-23 0)
(2.58718e-05 -6.56682e-05 -4.17881e-20 -4.20862e-07 1.16403e-20 0)
(5.38729e-05 3.17902e-05 1.56109e-20 -0.000201079 -2.20951e-20 0)
(1.1487e-05 -6.41386e-05 4.61294e-21 9.37554e-06 5.77692e-21 0)
(-1.67326e-05 -7.91195e-07 -4.33944e-21 4.20877e-05 1.47762e-20 4.16667e-36)
(6.10644e-05 2.41019e-05 1.42225e-20 -0.000168336 2.09408e-20 0)
(1.44062e-05 -8.9868e-05 -1.65229e-20 8.96002e-06 -2.81237e-21 0)
(-0.000670779 -0.000670314 -4.95308e-19 -0.000112233 -1.85836e-19 0)
(-8.73918e-05 1.57106e-05 -4.99768e-21 -2.08233e-07 1.62248e-20 0)
(0.00108856 0.000174275 -1.42783e-19 -0.000793166 1.33283e-19 0)
(0.000230384 -0.000140874 3.54165e-19 -0.000154539 -2.01548e-19 0)
(-5.42934e-05 8.75173e-05 1.59165e-22 -7.19331e-05 5.5893e-20 0)
(-9.11954e-05 -5.1621e-07 4.27735e-21 2.10682e-05 -3.55793e-21 0)
(-0.000195293 6.47713e-05 2.0109e-19 3.4665e-05 -1.15474e-19 0)
(0.000120858 -0.000126266 6.7292e-20 -4.00368e-05 1.40521e-20 0)
(2.67425e-05 -5.96311e-05 3.22763e-20 6.56964e-07 3.61684e-21 0)
(-0.000239065 7.97073e-05 1.34406e-20 4.35648e-05 -8.72041e-20 0)
(0.000519299 1.56709e-05 -2.47913e-19 -0.000270951 5.5971e-20 0)
(-0.000220425 -0.00045753 1.39988e-19 -1.66825e-06 1.48121e-19 0)
(1.38076e-06 -5.49077e-06 1.06344e-20 2.37654e-07 1.40186e-20 0)
(2.40728e-06 -4.88165e-06 -8.24714e-21 1.04859e-06 1.18317e-21 0)
(-0.000101946 -1.07755e-05 2.53398e-20 4.45688e-05 -3.61851e-21 0)
(-0.000101378 -1.03049e-05 2.51217e-20 4.59655e-05 -9.216e-21 0)
(0.00053659 0.000215924 0 -9.57918e-05 0 0)
(0.000486723 8.83244e-06 -8.85333e-20 -0.000321406 4.56651e-19 0)
(0.00179487 -0.000761622 6.6382e-19 -0.00128164 2.2727e-19 0)
(-5.09784e-05 -6.24514e-05 -2.16664e-20 5.57281e-05 1.32334e-20 0)
(-1.07889e-06 -1.81358e-06 -2.42653e-20 3.60274e-06 2.21094e-20 0)
(-8.87174e-05 -5.25616e-05 -3.26275e-20 6.68902e-05 1.83565e-20 0)
(-1.54167e-05 7.15373e-05 5.56478e-21 -9.88447e-05 -4.52323e-20 0)
(0.000194071 -8.557e-05 -1.80064e-19 -7.89951e-05 -7.14003e-20 0)
(-7.26271e-05 -9.57579e-05 -9.11641e-20 5.43355e-05 3.42934e-20 0)
(-8.27395e-05 -4.98909e-05 4.38959e-20 7.07525e-05 -2.37054e-20 0)
(-8.25733e-05 1.4977e-05 -2.70698e-20 9.19819e-09 2.73414e-20 0)
(0.00472523 -0.00176233 0 -0.00486522 0 0)
(1.36704e-05 -8.20143e-05 0 1.27939e-05 0 0)
(1.85275e-05 -8.1655e-05 0 9.6029e-06 0 0)
(7.87521e-05 -0.000151454 4.34339e-20 -8.8345e-06 -2.72366e-20 0)
(9.27343e-05 -0.000159835 -3.36904e-19 -1.52017e-05 -2.47541e-19 0)
(0.000352442 -0.000117398 -1.82411e-19 -0.000165512 -1.65279e-19 0)
(0.000153802 -0.000172217 0 -0.000199711 0 0)
(2.62397e-06 -7.30581e-06 -7.72459e-21 3.0563e-06 -1.08263e-20 0)
(-6.25986e-05 5.62182e-05 1.70489e-20 -5.27465e-05 -7.7274e-20 0)
(9.41283e-05 -0.000166684 -5.652e-20 -2.84717e-05 -6.10332e-20 0)
(0.000138398 -0.000157725 -1.60944e-19 -0.000149531 -1.40258e-19 0)
(6.68933e-05 -0.000108502 4.87692e-20 -2.26101e-05 2.56757e-21 0)
(7.7597e-05 -0.000106718 1.00347e-21 -1.32069e-05 1.69039e-22 0)
(-2.65778e-05 -3.94334e-05 -1.31929e-21 4.44848e-05 9.23846e-21 0)
(-2.80804e-05 -1.75932e-05 -6.40988e-21 5.18314e-05 6.04353e-21 0)
(0.00125384 0.000224185 7.32464e-21 -0.000803229 3.27591e-19 0)
(-7.66139e-05 6.0547e-05 -1.06638e-20 -4.10174e-05 7.06514e-20 0)
(-1.70982e-05 -5.6374e-05 2.35299e-20 3.57067e-05 -1.51205e-20 0)
(-4.23276e-06 -5.34753e-06 -2.5523e-20 1.53192e-05 2.86611e-21 0)
(-1.71533e-05 -6.45372e-05 -2.70795e-20 3.13765e-05 1.52897e-20 0)
(-8.20213e-05 -4.19342e-05 2.66747e-20 6.8239e-05 -2.26815e-20 0)
(-1.60406e-05 -5.20645e-05 1.80834e-23 3.1488e-05 -6.1288e-22 0)
(-0.000105555 -6.34947e-06 -3.0942e-20 4.16312e-05 2.73254e-20 0)
(0.000152196 -6.26561e-05 -2.93438e-20 -6.30098e-05 -1.2111e-20 0)
(1.75286e-05 -2.70331e-05 1.72018e-20 -6.72998e-06 7.14331e-22 0)
(-0.000313401 -0.000125174 0 1.67476e-05 0 0)
(-0.000260853 0.000289157 7.64243e-20 -5.99836e-05 -1.42004e-19 0)
(0.00254593 -0.00213857 2.31549e-19 -0.00304417 -1.87199e-18 0)
(-6.02107e-05 -8.38241e-05 -1.5996e-20 5.30896e-05 2.07416e-21 0)
(-8.78495e-08 1.46027e-07 -4.53496e-21 -1.01651e-06 4.63582e-21 0)
(-3.26256e-05 -5.08211e-07 6.23373e-21 7.52649e-05 -1.14436e-20 0)
(-2.82693e-05 -1.53108e-05 -1.44533e-20 5.31341e-05 1.88388e-20 0)
(-0.000111232 -1.5303e-05 -1.00917e-19 4.65357e-05 6.97425e-20 0)
(-3.55039e-05 -6.46172e-05 -1.80944e-20 4.51507e-05 -1.51419e-22 0)
(-9.04354e-06 -6.54096e-05 2.83883e-21 2.59247e-05 -8.5694e-21 0)
(-8.96384e-06 -6.9832e-05 -7.77189e-22 2.05458e-05 -8.50935e-21 0)
(-0.000281948 4.80608e-05 1.3247e-20 5.48714e-05 -1.27893e-20 0)
(-9.66091e-05 5.19313e-07 -1.74421e-20 2.19337e-05 8.85043e-21 0)
(-3.14817e-05 -6.15667e-05 7.4982e-21 4.82855e-05 -6.12147e-21 0)
(-3.88229e-05 -6.19917e-05 -4.38894e-20 4.08319e-05 6.87868e-21 0)
(-2.14959e-05 -1.45785e-05 1.69131e-20 4.99754e-05 -1.47699e-20 0)
(-3.84369e-05 -7.8162e-05 -5.17886e-20 4.34612e-05 5.12011e-21 0)