/*--------------------------------*- C++ -*----------------------------------*\
| =========                 |                                                 |
| \\      /  F ield         | OpenFOAM: The Open Source CFD Toolbox           |
|  \\    /   O peration     | Version:  v2012                                 |
|   \\  /    A nd           | Website:  www.openfoam.com                      |
|    \\/     M anipulation  |                                                 |
\*---------------------------------------------------------------------------*/
FoamFile
{
    version     2.0;
    format      ascii;
    class       volVectorField;
    location    "6";
    object      D_0;
}
// * * * * * * * * * * * * * * * * * * * * * * * * * * * * * * * * * * * * * //

dimensions      [0 1 0 0 0 0 0];


internalField   nonuniform List<vector> 
250
(
(0.000162739 -0.00120005 0)
(0.000137516 -0.00126193 0)
(0.000120856 -0.00129484 0)
(0.000111901 -0.00132846 0)
(0.000104814 -0.00135095 0)
(0.000469542 -0.00113481 0)
(0.000404408 -0.00117662 0)
(0.000358379 -0.00119716 0)
(0.000333621 -0.00122201 0)
(0.000313921 -0.00123564 0)
(0.000775843 -0.00100933 0)
(0.000688568 -0.00102342 0)
(0.000625904 -0.00102263 0)
(0.000590373 -0.0010338 0)
(0.000564835 -0.00103326 0)
(0.00105847 -0.000871447 0)
(0.000963558 -0.000851797 0)
(0.000894086 -0.000827223 0)
(0.000854687 -0.000821801 0)
(0.000827144 -0.000806539 0)
(0.00133712 -0.000706382 0)
(0.00124911 -0.000659329 0)
(0.00118641 -0.000616924 0)
(0.00114794 -0.000596699 0)
(0.00112524 -0.000574596 0)
(0.00156144 -0.000565675 0)
(0.00149694 -0.000499831 0)
(0.0014435 -0.000448183 0)
(0.00141991 -0.000416529 0)
(0.00139282 -0.000393037 0)
(0.00177375 -0.00042022 0)
(0.00173385 -0.000349401 0)
(0.00169698 -0.000291988 0)
(0.001684 -0.000260607 0)
(0.00166255 -0.00022794 0)
(0.00192862 -0.000289297 0)
(0.00191696 -0.000227553 0)
(0.00189845 -0.000178055 0)
(0.00189803 -0.00015034 0)
(0.00188563 -0.000120435 0)
(0.00204058 -0.000169008 0)
(0.00204918 -0.000126554 0)
(0.00204567 -9.18699e-05 0)
(0.00205321 -7.38579e-05 0)
(0.00204993 -5.23771e-05 0)
(0.00209564 -5.506e-05 0)
(0.00211603 -4.04386e-05 0)
(0.00212123 -2.84105e-05 0)
(0.00213306 -2.20994e-05 0)
(0.00213553 -1.42843e-05 0)
(0.00215833 -1.04029e-05 0)
(0.00208787 -3.85808e-05 0)
(0.00194931 -8.6325e-05 0)
(0.00175541 -0.000168135 0)
(0.0015124 -0.00029107 0)
(0.00218744 -5.65412e-06 0)
(0.0021283 -2.73214e-05 0)
(0.0020131 -5.55188e-05 0)
(0.00185643 -0.000113781 0)
(0.00166731 -0.00018135 0)
(0.00224989 -4.36223e-06 0)
(0.00220537 -2.32516e-05 0)
(0.0021183 -4.2609e-05 0)
(0.00199103 -8.77742e-05 0)
(0.00183536 -0.000133963 0)
(0.0023066 -5.05858e-06 0)
(0.00226848 -2.52971e-05 0)
(0.002197 -4.04906e-05 0)
(0.00209388 -7.50617e-05 0)
(0.00197295 -0.000106021 0)
(0.00239313 -6.54255e-06 0)
(0.00236214 -2.84161e-05 0)
(0.00230437 -4.5954e-05 0)
(0.00221757 -7.78202e-05 0)
(0.00211639 -0.000106023 0)
(0.00247501 -7.94596e-06 0)
(0.00244885 -3.0804e-05 0)
(0.00240123 -4.96187e-05 0)
(0.00233039 -7.86876e-05 0)
(0.00224879 -0.000106055 0)
(0.00257774 -9.32092e-06 0)
(0.00255579 -3.37469e-05 0)
(0.00251587 -5.53313e-05 0)
(0.00245621 -8.48698e-05 0)
(0.00238793 -0.000113322 0)
(0.00267848 -9.53169e-06 0)
(0.00266014 -3.30569e-05 0)
(0.00262696 -5.50601e-05 0)
(0.00257786 -8.37382e-05 0)
(0.00252163 -0.000112969 0)
(0.00279014 -8.44561e-06 0)
(0.00277478 -2.96239e-05 0)
(0.00274722 -4.9935e-05 0)
(0.00270638 -7.71107e-05 0)
(0.00266017 -0.000105486 0)
(0.00289938 -5.79714e-06 0)
(0.00288689 -2.12156e-05 0)
(0.00286466 -3.70492e-05 0)
(0.00283149 -5.95756e-05 0)
(0.00279458 -8.5794e-05 0)
(0.00132715 -0.000403956 0)
(0.00125291 -0.000439782 0)
(0.00118283 -0.000482683 0)
(0.00111891 -0.000519774 0)
(0.0010584 -0.000559751 0)
(0.00100141 -0.000595898 0)
(0.000945813 -0.000632909 0)
(0.000891502 -0.000667943 0)
(0.000836127 -0.000703129 0)
(0.000779919 -0.000738984 0)
(0.0015315 -0.000258715 0)
(0.0014678 -0.000291283 0)
(0.00140866 -0.000327997 0)
(0.00135122 -0.000361942 0)
(0.00129694 -0.00039802 0)
(0.00124489 -0.000432213 0)
(0.00119512 -0.000467321 0)
(0.00114717 -0.000501902 0)
(0.00110091 -0.000536794 0)
(0.00105592 -0.000573235 0)
(0.00171711 -0.000190471 0)
(0.00166227 -0.000216187 0)
(0.00160991 -0.00024744 0)
(0.00155955 -0.000275518 0)
(0.00151197 -0.000307216 0)
(0.00146675 -0.000337118 0)
(0.00142463 -0.000369088 0)
(0.00138504 -0.000400834 0)
(0.00134911 -0.000433568 0)
(0.00131599 -0.000467961 0)
(0.00187862 -0.000147386 0)
(0.00183509 -0.000169107 0)
(0.00179302 -0.000195495 0)
(0.00175187 -0.000220257 0)
(0.0017134 -0.000248157 0)
(0.00167648 -0.000275391 0)
(0.00164318 -0.000304535 0)
(0.00161215 -0.000334054 0)
(0.00158584 -0.00036454 0)
(0.00156271 -0.000396576 0)
(0.00203806 -0.000138419 0)
(0.00200252 -0.00015801 0)
(0.00196743 -0.000180765 0)
(0.00193363 -0.00020307 0)
(0.00190196 -0.000227721 0)
(0.00187209 -0.000252434 0)
(0.00184568 -0.000278724 0)
(0.00182178 -0.000305629 0)
(0.00180274 -0.000333406 0)
(0.00178714 -0.000362384 0)
(0.00218525 -0.000134241 0)
(0.00215716 -0.000152401 0)
(0.00212881 -0.000172886 0)
(0.00210181 -0.000193558 0)
(0.00207641 -0.000216045 0)
(0.00205266 -0.000238946 0)
(0.00203192 -0.000263143 0)
(0.00201348 -0.00028795 0)
(0.00199939 -0.000313495 0)
(0.00198841 -0.000339822 0)
(0.00233539 -0.000139902 0)
(0.00231215 -0.000157211 0)
(0.00228821 -0.000176162 0)
(0.00226594 -0.000195657 0)
(0.0022446 -0.000216372 0)
(0.00222512 -0.000237759 0)
(0.00220794 -0.000260018 0)
(0.00219297 -0.000282898 0)
(0.00218169 -0.000306332 0)
(0.00217314 -0.000330203 0)
(0.00247854 -0.00013891 0)
(0.00245846 -0.000155388 0)
(0.00243839 -0.000173291 0)
(0.00241925 -0.000191626 0)
(0.00240107 -0.000211174 0)
(0.00238436 -0.000231199 0)
(0.00236928 -0.000252138 0)
(0.00235644 -0.000273449 0)
(0.00234605 -0.000295272 0)
(0.00233786 -0.000317251 0)
(0.00262457 -0.000131086 0)
(0.00260672 -0.000146467 0)
(0.00258788 -0.000163238 0)
(0.00257154 -0.000180971 0)
(0.0025548 -0.000199467 0)
(0.00254021 -0.000218617 0)
(0.00252612 -0.000238509 0)
(0.00251356 -0.000258893 0)
(0.00250335 -0.000279498 0)
(0.00249429 -0.000300318 0)
(0.00276422 -0.000109165 0)
(0.00274853 -0.000124082 0)
(0.00273109 -0.000140236 0)
(0.00271566 -0.000157192 0)
(0.00270021 -0.000175053 0)
(0.00268621 -0.000193642 0)
(0.00267342 -0.000212847 0)
(0.00266128 -0.000232598 0)
(0.0026508 -0.000252645 0)
(0.00264139 -0.000272844 0)
(9.99898e-05 -0.00137068 0)
(9.36593e-05 -0.00138276 0)
(8.77366e-05 -0.00139632 0)
(8.22497e-05 -0.00140812 0)
(7.63787e-05 -0.00142119 0)
(7.08756e-05 -0.00143251 0)
(6.45206e-05 -0.00144489 0)
(5.82868e-05 -0.00145522 0)
(5.08468e-05 -0.00146626 0)
(4.3156e-05 -0.00147467 0)
(0.000299078 -0.00125444 0)
(0.000279429 -0.0012716 0)
(0.000260149 -0.00129116 0)
(0.000243022 -0.00130742 0)
(0.00022427 -0.00132579 0)
(0.000207099 -0.00134112 0)
(0.000187187 -0.00135816 0)
(0.000167782 -0.00137228 0)
(0.000144693 -0.0013875 0)
(0.000120731 -0.00139978 0)
(0.000540101 -0.00105105 0)
(0.00050725 -0.00107564 0)
(0.000472703 -0.00110474 0)
(0.000444538 -0.00112754 0)
(0.000412799 -0.00115412 0)
(0.000384853 -0.0011754 0)
(0.00035245 -0.00119952 0)
(0.000321127 -0.00121947 0)
(0.000284297 -0.00124108 0)
(0.000245952 -0.00125956 0)
(0.000792496 -0.000823609 0)
(0.000743828 -0.000855621 0)
(0.00069155 -0.000895286 0)
(0.000650202 -0.000925517 0)
(0.000605437 -0.000961256 0)
(0.000566278 -0.000989509 0)
(0.000523121 -0.00102119 0)
(0.00048093 -0.00104773 0)
(0.000432709 -0.00107596 0)
(0.000381613 -0.00110127 0)
(0.00108309 -0.000589239 0)
(0.00101887 -0.000624396 0)
(0.000950737 -0.00066894 0)
(0.000893737 -0.000704946 0)
(0.000836705 -0.0007462 0)
(0.000784686 -0.000781241 0)
(0.000731816 -0.000818369 0)
(0.000679412 -0.000851538 0)
(0.000622702 -0.000885183 0)
(0.00056252 -0.000917517 0)
)
;

boundaryField
{
    back
    {
        type            empty;
    }
    left
    {
        type            symmetry;
    }
    hole
    {
        type            calculated;
        value           nonuniform List<vector> 10((0.000183881 -0.00115719 3.49712e-21) (0.000527432 -0.00111114 -6.47017e-23) (0.000853976 -0.00100992 -1.25609e-20) (0.00114221 -0.000897892 1.06125e-20) (0.00141072 -0.00075323 4.66844e-22) (0.00161673 -0.000623679 6.92075e-21) (0.00180821 -0.000482 4.88617e-21) (0.00194092 -0.0003415 -3.36411e-21) (0.00203625 -0.00020454 -1.00887e-20) (0.00208206 -6.736e-05 6.84039e-22));
    }
    front
    {
        type            empty;
    }
    down
    {
        type            symmetry;
    }
    right
    {
        type            calculated;
        value           nonuniform List<vector> 
15
(
(0.00295448 -2.34972e-06 5.82189e-21)
(0.00294328 -1.15315e-05 9.24048e-21)
(0.00292349 -2.11709e-05 3.08831e-21)
(0.00289401 -3.87797e-05 4.72035e-21)
(0.00286161 -6.09651e-05 -2.15951e-21)
(0.00283443 -8.31102e-05 -9.72174e-21)
(0.0028194 -9.8162e-05 7.17622e-21)
(0.00280264 -0.000114517 3.7997e-21)
(0.00278778 -0.000133038 -1.64933e-22)
(0.00277288 -0.000152019 0)
(0.00275933 -0.000172687 6.89905e-21)
(0.00274693 -0.000193345 2.8813e-21)
(0.00273507 -0.000214902 -7.84256e-21)
(0.00272475 -0.000237081 -3.48605e-21)
(0.00271538 -0.000258442 0)
)
;
    }
    up
    {
        type            calculated;
        value           nonuniform List<vector> 
15
(
(0.000749983 -0.000757124 2.39855e-21)
(0.00103427 -0.00059159 -2.70181e-21)
(0.00130187 -0.000485313 -1.88575e-21)
(0.00155427 -0.000412709 -2.37496e-21)
(0.0017826 -0.00037696 -2.36112e-21)
(0.00198584 -0.000353039 -1.70593e-21)
(0.00217133 -0.000342168 -1.93581e-21)
(0.00233547 -0.000328247 2.91001e-21)
(0.00249074 -0.00031071 1.53666e-21)
(0.00263689 -0.000282948 0)
(3.87167e-05 -0.00147883 -1.73934e-21)
(0.000107041 -0.00140526 -8.83649e-22)
(0.000224405 -0.00126749 6.47533e-22)
(0.000352629 -0.00111254 2.45774e-21)
(0.000528666 -0.000933171 8.88841e-24)
)
;
    }
}


// ************************************************************************* //
