/*--------------------------------*- C++ -*----------------------------------*\
| =========                 |                                                 |
| \\      /  F ield         | OpenFOAM: The Open Source CFD Toolbox           |
|  \\    /   O peration     | Version:  v2012                                 |
|   \\  /    A nd           | Website:  www.openfoam.com                      |
|    \\/     M anipulation  |                                                 |
\*---------------------------------------------------------------------------*/
FoamFile
{
    version     2.0;
    format      ascii;
    class       pointVectorField;
    location    "6";
    object      pointD;
}
// * * * * * * * * * * * * * * * * * * * * * * * * * * * * * * * * * * * * * //

dimensions      [0 1 0 0 0 0 0];


internalField   nonuniform List<vector> 
572
(
(0.00216549 0 3.34424e-22)
(0.0030326 0 3.15061e-21)
(0.00278081 -0.00027671 0)
(0 -0.00153303 -7.46582e-22)
(0 -0.00122348 1.74354e-21)
(0.00222305 0 0)
(0 -0.00141454 0)
(0.00131989 -0.000478584 0)
(0.000650878 -0.000884089 1.12707e-21)
(0.00294748 -7.57638e-05 -6.68951e-21)
(0.00157063 -0.000713382 3.81785e-21)
(0.00157063 -0.000713382 3.81785e-21)
(0.00131989 -0.000478584 0)
(0 -0.00141454 0)
(0 -0.00122348 1.74354e-21)
(0.00216549 0 3.34424e-22)
(0.00222305 0 0)
(0.0030326 0 3.15061e-21)
(0.00294748 -7.57638e-05 -6.68951e-21)
(0.00278081 -0.00027671 0)
(0.000650878 -0.000884089 1.12707e-21)
(0 -0.00153303 -7.46582e-22)
(0.000212868 -0.0013523 0)
(0.00044829 -0.00118364 0)
(0.000711355 -0.000958391 0)
(0.00100031 -0.000717567 0)
(0.00162162 -0.000289435 0)
(0.00186836 -0.000161394 0)
(0.00205989 -7.94549e-05 0)
(0.00218241 -3.07342e-05 0)
(0.00218265 0 0)
(0.0021959 0 0)
(0.00220472 0 0)
(0.0022121 0 0)
(0.00225188 0 0)
(0.00229912 0 0)
(0.00236064 0 0)
(0.00243462 0 0)
(0.00252165 0 0)
(0.00261706 0 0)
(0.00272226 0 0)
(0.00283207 0 0)
(0.00294629 0 0)
(0.00305395 -7.09388e-06 7.78779e-21)
(0.00303789 -1.67513e-05 6.37486e-21)
(0.00301235 -3.07712e-05 4.03938e-21)
(0.00298029 -5.13011e-05 1.32681e-21)
(0.00292754 -9.34135e-05 -1.31884e-21)
(0.00291107 -0.000109645 5.68468e-21)
(0.00289468 -0.000127679 1.88064e-21)
(0.00287926 -0.000147072 -8.87194e-23)
(0.00286452 -0.000167579 3.56827e-21)
(0.00285107 -0.000188955 5.06156e-21)
(0.0028385 -0.000210789 -2.56042e-21)
(0.002827 -0.000233414 -5.85676e-21)
(0.00281679 -0.000255933 -1.80304e-21)
(0.00265515 -0.000306761 7.94846e-22)
(0.00249924 -0.000330218 2.30001e-21)
(0.00233401 -0.000346511 5.03689e-22)
(0.00215311 -0.00035933 -1.88436e-21)
(0.00195192 -0.000377335 -2.10494e-21)
(0.00172854 -0.00040822 -2.45175e-21)
(0.00147961 -0.000464335 -2.20603e-21)
(0.0012103 -0.00055702 -2.37619e-21)
(0.000924326 -0.000697913 -1.56803e-22)
(0.000456069 -0.00105963 1.28152e-21)
(0.000298182 -0.00123353 1.60833e-21)
(0.000170731 -0.00138606 -1.29748e-22)
(7.46497e-05 -0.00149676 -1.36407e-21)
(0 -0.00152694 0)
(0 -0.00151693 0)
(0 -0.00150592 0)
(0 -0.00149421 0)
(0 -0.00148201 0)
(0 -0.00146946 0)
(0 -0.00145668 0)
(0 -0.00144364 0)
(0 -0.00143049 0)
(0 -0.0013928 0)
(0 -0.00136377 0)
(0 -0.00133012 0)
(0 -0.00128023 0)
(0.00155423 -0.000301167 0)
(0.00173881 -0.000200883 0)
(0.00191014 -0.000151184 0)
(0.00206655 -0.000129041 0)
(0.00221861 -0.000125636 0)
(0.00236654 -0.000127724 0)
(0.00251412 -0.000130985 0)
(0.00266025 -0.0001268 0)
(0.00280576 -0.000112112 0)
(0.00120458 -0.000540428 0)
(0.00113243 -0.000581665 0)
(0.00106436 -0.000623969 0)
(0.00100217 -0.000664154 0)
(0.000943002 -0.000704072 0)
(0.000886429 -0.00074183 0)
(0.000830446 -0.000778823 0)
(0.000773584 -0.000814226 0)
(0.000714134 -0.000849524 0)
(0.00037759 -0.00117553 1.81627e-21)
(0.000722494 -0.00110009 -6.51793e-21)
(0.00103816 -0.000989041 -9.76098e-22)
(0.00132576 -0.000855802 5.7349e-21)
(0.00177598 -0.00057282 6.09877e-21)
(0.00194352 -0.000426552 7.74074e-22)
(0.00206138 -0.000282816 -6.96651e-21)
(0.00213433 -0.000140818 -4.86272e-21)
(0.00146458 -0.000629835 0)
(0.0013949 -0.000576107 0)
(0.00134857 -0.000538198 0)
(0.00131939 -0.000512843 0)
(0.00146458 -0.000629835 0)
(0.0013949 -0.000576107 0)
(0.00134857 -0.000538198 0)
(0.00131939 -0.000512843 0)
(0.00100031 -0.000717567 0)
(0.000711355 -0.000958391 0)
(0.00044829 -0.00118364 0)
(0.000212868 -0.0013523 0)
(0 -0.0013928 0)
(0 -0.00136377 0)
(0 -0.00133012 0)
(0 -0.00128023 0)
(0.00037759 -0.00117553 1.81627e-21)
(0.000722494 -0.00110009 -6.51793e-21)
(0.00103816 -0.000989041 -9.76098e-22)
(0.00132576 -0.000855802 5.7349e-21)
(0.00177598 -0.00057282 6.09877e-21)
(0.00194352 -0.000426552 7.74074e-22)
(0.00206138 -0.000282816 -6.96651e-21)
(0.00213433 -0.000140818 -4.86272e-21)
(0.00218265 0 0)
(0.0021959 0 0)
(0.00220472 0 0)
(0.0022121 0 0)
(0.00218241 -3.07342e-05 0)
(0.00205989 -7.94549e-05 0)
(0.00186836 -0.000161394 0)
(0.00162162 -0.000289435 0)
(0.00225188 0 0)
(0.00229912 0 0)
(0.00236064 0 0)
(0.00243462 0 0)
(0.00252165 0 0)
(0.00261706 0 0)
(0.00272226 0 0)
(0.00283207 0 0)
(0.00294629 0 0)
(0.00305395 -7.09388e-06 7.78779e-21)
(0.00303789 -1.67513e-05 6.37486e-21)
(0.00301235 -3.07712e-05 4.03938e-21)
(0.00298029 -5.13011e-05 1.32681e-21)
(0.00280576 -0.000112112 0)
(0.00266025 -0.0001268 0)
(0.00251412 -0.000130985 0)
(0.00236654 -0.000127724 0)
(0.00221861 -0.000125636 0)
(0.00206655 -0.000129041 0)
(0.00191014 -0.000151184 0)
(0.00173881 -0.000200883 0)
(0.00155423 -0.000301167 0)
(0.00292754 -9.34135e-05 -1.31884e-21)
(0.00291107 -0.000109645 5.68468e-21)
(0.00289468 -0.000127679 1.88064e-21)
(0.00287926 -0.000147072 -8.87194e-23)
(0.00286452 -0.000167579 3.56827e-21)
(0.00285107 -0.000188955 5.06156e-21)
(0.0028385 -0.000210789 -2.56042e-21)
(0.002827 -0.000233414 -5.85676e-21)
(0.00281679 -0.000255933 -1.80304e-21)
(0.00265515 -0.000306761 7.94846e-22)
(0.00249924 -0.000330218 2.30001e-21)
(0.00233401 -0.000346511 5.03689e-22)
(0.00215311 -0.00035933 -1.88436e-21)
(0.00195192 -0.000377335 -2.10494e-21)
(0.00172854 -0.00040822 -2.45175e-21)
(0.00147961 -0.000464335 -2.20603e-21)
(0.0012103 -0.00055702 -2.37619e-21)
(0.000924326 -0.000697913 -1.56803e-22)
(0.000714134 -0.000849524 0)
(0.000773584 -0.000814226 0)
(0.000830446 -0.000778823 0)
(0.000886429 -0.00074183 0)
(0.000943002 -0.000704072 0)
(0.00100217 -0.000664154 0)
(0.00106436 -0.000623969 0)
(0.00113243 -0.000581665 0)
(0.00120458 -0.000540428 0)
(0.000456069 -0.00105963 1.28152e-21)
(0.000298182 -0.00123353 1.60833e-21)
(0.000170731 -0.00138606 -1.29748e-22)
(7.46497e-05 -0.00149676 -1.36407e-21)
(0 -0.00152694 0)
(0 -0.00151693 0)
(0 -0.00150592 0)
(0 -0.00149421 0)
(0 -0.00148201 0)
(0 -0.00146946 0)
(0 -0.00145668 0)
(0 -0.00144364 0)
(0 -0.00143049 0)
(0.000310154 -0.0012394 0)
(0.000266947 -0.00128031 0)
(0.000240777 -0.00130897 0)
(0.000224427 -0.00133353 0)
(0.000611182 -0.00112587 0)
(0.000541325 -0.0011452 0)
(0.000496505 -0.00115978 0)
(0.000468469 -0.0011726 0)
(0.000907078 -0.000973198 0)
(0.000824932 -0.000964949 0)
(0.000770652 -0.000959842 0)
(0.000736945 -0.000957191 0)
(0.00119694 -0.000800387 0)
(0.00111494 -0.000765515 0)
(0.00106015 -0.000741382 0)
(0.00102659 -0.000724937 0)
(0.00170263 -0.000475483 0)
(0.00165217 -0.00041176 0)
(0.00161922 -0.000367094 0)
(0.00159706 -0.000336127 0)
(0.00190607 -0.000333315 0)
(0.00187838 -0.000271259 0)
(0.00186052 -0.000228207 0)
(0.00184822 -0.00019663 0)
(0.00205651 -0.00021051 0)
(0.00205003 -0.00016171 0)
(0.00204615 -0.000128033 0)
(0.0020439 -0.00010284 0)
(0.00215112 -0.000101332 0)
(0.00215908 -7.44493e-05 0)
(0.00216453 -5.60379e-05 0)
(0.00216931 -4.21323e-05 0)
(0.00221898 -2.09822e-05 0)
(0.00212041 -5.28659e-05 0)
(0.00196519 -0.000108071 0)
(0.00176449 -0.000191032 0)
(0.0022734 -1.55523e-05 0)
(0.00219497 -3.80242e-05 0)
(0.00206975 -7.66674e-05 0)
(0.00190781 -0.000132043 0)
(0.00234003 -1.49571e-05 0)
(0.00227799 -3.38092e-05 0)
(0.00217793 -6.2967e-05 0)
(0.00204766 -0.00010304 0)
(0.00241774 -1.68573e-05 0)
(0.00236668 -3.61869e-05 0)
(0.00228436 -6.16152e-05 0)
(0.00217806 -9.39732e-05 0)
(0.00250765 -1.90067e-05 0)
(0.00246577 -3.99229e-05 0)
(0.00239799 -6.48851e-05 0)
(0.00231016 -9.49754e-05 0)
(0.00260541 -2.11018e-05 0)
(0.00257041 -4.37434e-05 0)
(0.00251411 -6.92183e-05 0)
(0.00244164 -9.87524e-05 0)
(0.00271246 -2.20586e-05 0)
(0.00268318 -4.56631e-05 0)
(0.00263621 -7.18661e-05 0)
(0.00257586 -0.000101794 0)
(0.00282385 -2.07465e-05 0)
(0.00279944 -4.31564e-05 0)
(0.00276046 -6.84264e-05 0)
(0.00271064 -9.76963e-05 0)
(0.0029394 -1.67065e-05 0)
(0.00291932 -3.54163e-05 0)
(0.00288727 -5.74935e-05 0)
(0.00284653 -8.44033e-05 0)
(0.00144624 -0.000360468 0)
(0.00137694 -0.000398733 0)
(0.00131191 -0.000437697 0)
(0.00125061 -0.000475748 0)
(0.00119249 -0.000513634 0)
(0.00113681 -0.000550507 0)
(0.0010829 -0.000587208 0)
(0.00102996 -0.000623384 0)
(0.000977328 -0.00066027 0)
(0.00165293 -0.000247215 0)
(0.00159328 -0.000279854 0)
(0.0015364 -0.00031347 0)
(0.00148201 -0.000347042 0)
(0.00143034 -0.000381163 0)
(0.00138126 -0.000415106 0)
(0.0013347 -0.00044964 0)
(0.00129066 -0.00048432 0)
(0.00124909 -0.000520179 0)
(0.00183765 -0.000186729 0)
(0.00178766 -0.000213892 0)
(0.00173944 -0.000242461 0)
(0.0016934 -0.000271539 0)
(0.00164978 -0.00030174 0)
(0.00160891 -0.000332334 0)
(0.00157104 -0.000364009 0)
(0.00153659 -0.000396229 0)
(0.00150587 -0.000429797 0)
(0.00200864 -0.000158191 0)
(0.00196814 -0.000181573 0)
(0.00192871 -0.000206452 0)
(0.00189109 -0.000232214 0)
(0.00185559 -0.000259248 0)
(0.00182279 -0.000287028 0)
(0.00179307 -0.000315975 0)
(0.00176708 -0.000345655 0)
(0.00174529 -0.00037653 0)
(0.00217121 -0.000150491 0)
(0.00213828 -0.000171426 0)
(0.00210607 -0.00019372 0)
(0.00207552 -0.000217023 0)
(0.00204683 -0.000241532 0)
(0.00202071 -0.000266908 0)
(0.00199751 -0.000293351 0)
(0.00197796 -0.000320527 0)
(0.00196249 -0.000348639 0)
(0.00232818 -0.000150687 0)
(0.00230132 -0.000170049 0)
(0.002275 -0.000190631 0)
(0.00225012 -0.000212189 0)
(0.0022268 -0.000234817 0)
(0.00220577 -0.000258289 0)
(0.00218729 -0.000282644 0)
(0.00217206 -0.000307651 0)
(0.00216043 -0.000333312 0)
(0.00248195 -0.000152698 0)
(0.00245931 -0.000170958 0)
(0.00243717 -0.000190267 0)
(0.0024162 -0.000210459 0)
(0.00239658 -0.000231581 0)
(0.00237885 -0.000253464 0)
(0.00236328 -0.000276067 0)
(0.00235046 -0.000299204 0)
(0.00234051 -0.000322772 0)
(0.0026329 -0.000147635 0)
(0.00261299 -0.000164831 0)
(0.00259371 -0.000183119 0)
(0.00257547 -0.000202281 0)
(0.00255831 -0.000222249 0)
(0.00254265 -0.000242938 0)
(0.00252851 -0.000264283 0)
(0.00251659 -0.00028604 0)
(0.00250678 -0.000308084 0)
(0.0027818 -0.000131834 0)
(0.0027637 -0.000148173 0)
(0.00274607 -0.000165652 0)
(0.0027295 -0.00018402 0)
(0.00271375 -0.000203179 0)
(0.00269938 -0.000223047 0)
(0.00268601 -0.000243538 0)
(0.00267425 -0.000264431 0)
(0.00266411 -0.000285552 0)
(0.000199323 -0.00137071 0)
(0.00018605 -0.00138683 0)
(0.000173674 -0.00140264 0)
(0.000161415 -0.00141803 0)
(0.000149157 -0.00143304 0)
(0.000136435 -0.00144755 0)
(0.000122944 -0.00146148 0)
(0.00010831 -0.0014746 0)
(9.20989e-05 -0.00148673 0)
(0.000420265 -0.00120729 0)
(0.000392651 -0.00123076 0)
(0.000367005 -0.00125343 0)
(0.000342098 -0.00127525 0)
(0.000317293 -0.00129636 0)
(0.000291936 -0.00131656 0)
(0.000265138 -0.00133607 0)
(0.000236321 -0.00135449 0)
(0.000204488 -0.00137205 0)
(0.00066823 -0.000987773 0)
(0.000624583 -0.00102021 0)
(0.000584195 -0.00105157 0)
(0.000546286 -0.00108145 0)
(0.000509035 -0.00111035 0)
(0.000471947 -0.00113767 0)
(0.000433184 -0.00116419 0)
(0.000391935 -0.00118921 0)
(0.000346544 -0.00121355 0)
(0.000940882 -0.000751136 0)
(0.000880552 -0.000790234 0)
(0.000824024 -0.000828998 0)
(0.000772222 -0.000866019 0)
(0.000722161 -0.000902301 0)
(0.00067358 -0.000936506 0)
(0.000624018 -0.000969847 0)
(0.000572142 -0.00100141 0)
(0.000515899 -0.00103249 0)
(0.000310154 -0.0012394 0)
(0.000266947 -0.00128031 0)
(0.000240777 -0.00130897 0)
(0.000224427 -0.00133353 0)
(0.000611182 -0.00112587 0)
(0.000541325 -0.0011452 0)
(0.000496505 -0.00115978 0)
(0.000468469 -0.0011726 0)
(0.000907078 -0.000973198 0)
(0.000824932 -0.000964949 0)
(0.000770652 -0.000959842 0)
(0.000736945 -0.000957191 0)
(0.00119694 -0.000800387 0)
(0.00111494 -0.000765515 0)
(0.00106015 -0.000741382 0)
(0.00102659 -0.000724937 0)
(0.00170263 -0.000475483 0)
(0.00165217 -0.00041176 0)
(0.00161922 -0.000367094 0)
(0.00159706 -0.000336127 0)
(0.00190607 -0.000333315 0)
(0.00187838 -0.000271259 0)
(0.00186052 -0.000228207 0)
(0.00184822 -0.00019663 0)
(0.00205651 -0.00021051 0)
(0.00205003 -0.00016171 0)
(0.00204615 -0.000128033 0)
(0.0020439 -0.00010284 0)
(0.00215112 -0.000101332 0)
(0.00215908 -7.44493e-05 0)
(0.00216453 -5.60379e-05 0)
(0.00216931 -4.21323e-05 0)
(0.00221898 -2.09822e-05 0)
(0.00212041 -5.28659e-05 0)
(0.00196519 -0.000108071 0)
(0.00176449 -0.000191032 0)
(0.0022734 -1.55523e-05 0)
(0.00219497 -3.80242e-05 0)
(0.00206975 -7.66674e-05 0)
(0.00190781 -0.000132043 0)
(0.00234003 -1.49571e-05 0)
(0.00227799 -3.38092e-05 0)
(0.00217793 -6.2967e-05 0)
(0.00204766 -0.00010304 0)
(0.00241774 -1.68573e-05 0)
(0.00236668 -3.61869e-05 0)
(0.00228436 -6.16152e-05 0)
(0.00217806 -9.39732e-05 0)
(0.00250765 -1.90067e-05 0)
(0.00246577 -3.99229e-05 0)
(0.00239799 -6.48851e-05 0)
(0.00231016 -9.49754e-05 0)
(0.00260541 -2.11018e-05 0)
(0.00257041 -4.37434e-05 0)
(0.00251411 -6.92183e-05 0)
(0.00244164 -9.87524e-05 0)
(0.00271246 -2.20586e-05 0)
(0.00268318 -4.56631e-05 0)
(0.00263621 -7.18661e-05 0)
(0.00257586 -0.000101794 0)
(0.00282385 -2.07465e-05 0)
(0.00279944 -4.31564e-05 0)
(0.00276046 -6.84264e-05 0)
(0.00271064 -9.76963e-05 0)
(0.0029394 -1.67065e-05 0)
(0.00291932 -3.54163e-05 0)
(0.00288727 -5.74935e-05 0)
(0.00284653 -8.44033e-05 0)
(0.00144624 -0.000360468 0)
(0.00137694 -0.000398733 0)
(0.00131191 -0.000437697 0)
(0.00125061 -0.000475748 0)
(0.00119249 -0.000513634 0)
(0.00113681 -0.000550507 0)
(0.0010829 -0.000587208 0)
(0.00102996 -0.000623384 0)
(0.000977328 -0.00066027 0)
(0.00165293 -0.000247215 0)
(0.00159328 -0.000279854 0)
(0.0015364 -0.00031347 0)
(0.00148201 -0.000347042 0)
(0.00143034 -0.000381163 0)
(0.00138126 -0.000415106 0)
(0.0013347 -0.00044964 0)
(0.00129066 -0.00048432 0)
(0.00124909 -0.000520179 0)
(0.00183765 -0.000186729 0)
(0.00178766 -0.000213892 0)
(0.00173944 -0.000242461 0)
(0.0016934 -0.000271539 0)
(0.00164978 -0.00030174 0)
(0.00160891 -0.000332334 0)
(0.00157104 -0.000364009 0)
(0.00153659 -0.000396229 0)
(0.00150587 -0.000429797 0)
(0.00200864 -0.000158191 0)
(0.00196814 -0.000181573 0)
(0.00192871 -0.000206452 0)
(0.00189109 -0.000232214 0)
(0.00185559 -0.000259248 0)
(0.00182279 -0.000287028 0)
(0.00179307 -0.000315975 0)
(0.00176708 -0.000345655 0)
(0.00174529 -0.00037653 0)
(0.00217121 -0.000150491 0)
(0.00213828 -0.000171426 0)
(0.00210607 -0.00019372 0)
(0.00207552 -0.000217023 0)
(0.00204683 -0.000241532 0)
(0.00202071 -0.000266908 0)
(0.00199751 -0.000293351 0)
(0.00197796 -0.000320527 0)
(0.00196249 -0.000348639 0)
(0.00232818 -0.000150687 0)
(0.00230132 -0.000170049 0)
(0.002275 -0.000190631 0)
(0.00225012 -0.000212189 0)
(0.0022268 -0.000234817 0)
(0.00220577 -0.000258289 0)
(0.00218729 -0.000282644 0)
(0.00217206 -0.000307651 0)
(0.00216043 -0.000333312 0)
(0.00248195 -0.000152698 0)
(0.00245931 -0.000170958 0)
(0.00243717 -0.000190267 0)
(0.0024162 -0.000210459 0)
(0.00239658 -0.000231581 0)
(0.00237885 -0.000253464 0)
(0.00236328 -0.000276067 0)
(0.00235046 -0.000299204 0)
(0.00234051 -0.000322772 0)
(0.0026329 -0.000147635 0)
(0.00261299 -0.000164831 0)
(0.00259371 -0.000183119 0)
(0.00257547 -0.000202281 0)
(0.00255831 -0.000222249 0)
(0.00254265 -0.000242938 0)
(0.00252851 -0.000264283 0)
(0.00251659 -0.00028604 0)
(0.00250678 -0.000308084 0)
(0.0027818 -0.000131834 0)
(0.0027637 -0.000148173 0)
(0.00274607 -0.000165652 0)
(0.0027295 -0.00018402 0)
(0.00271375 -0.000203179 0)
(0.00269938 -0.000223047 0)
(0.00268601 -0.000243538 0)
(0.00267425 -0.000264431 0)
(0.00266411 -0.000285552 0)
(0.000199323 -0.00137071 0)
(0.00018605 -0.00138683 0)
(0.000173674 -0.00140264 0)
(0.000161415 -0.00141803 0)
(0.000149157 -0.00143304 0)
(0.000136435 -0.00144755 0)
(0.000122944 -0.00146148 0)
(0.00010831 -0.0014746 0)
(9.20989e-05 -0.00148673 0)
(0.000420265 -0.00120729 0)
(0.000392651 -0.00123076 0)
(0.000367005 -0.00125343 0)
(0.000342098 -0.00127525 0)
(0.000317293 -0.00129636 0)
(0.000291936 -0.00131656 0)
(0.000265138 -0.00133607 0)
(0.000236321 -0.00135449 0)
(0.000204488 -0.00137205 0)
(0.00066823 -0.000987773 0)
(0.000624583 -0.00102021 0)
(0.000584195 -0.00105157 0)
(0.000546286 -0.00108145 0)
(0.000509035 -0.00111035 0)
(0.000471947 -0.00113767 0)
(0.000433184 -0.00116419 0)
(0.000391935 -0.00118921 0)
(0.000346544 -0.00121355 0)
(0.000940882 -0.000751136 0)
(0.000880552 -0.000790234 0)
(0.000824024 -0.000828998 0)
(0.000772222 -0.000866019 0)
(0.000722161 -0.000902301 0)
(0.00067358 -0.000936506 0)
(0.000624018 -0.000969847 0)
(0.000572142 -0.00100141 0)
(0.000515899 -0.00103249 0)
)
;

boundaryField
{
    back
    {
        type            empty;
    }
    left
    {
        type            symmetry;
    }
    hole
    {
        type            calculated;
    }
    front
    {
        type            empty;
    }
    down
    {
        type            symmetry;
    }
    right
    {
        type            calculated;
    }
    up
    {
        type            calculated;
    }
}


// ************************************************************************* //
