/*--------------------------------*- C++ -*----------------------------------*\
| =========                 |                                                 |
| \\      /  F ield         | OpenFOAM: The Open Source CFD Toolbox           |
|  \\    /   O peration     | Version:  v2012                                 |
|   \\  /    A nd           | Website:  www.openfoam.com                      |
|    \\/     M anipulation  |                                                 |
\*---------------------------------------------------------------------------*/
FoamFile
{
    version     2.0;
    format      ascii;
    class       pointVectorField;
    location    "15";
    object      pointD;
}
// * * * * * * * * * * * * * * * * * * * * * * * * * * * * * * * * * * * * * //

dimensions      [0 1 0 0 0 0 0];


internalField   nonuniform List<vector> 
32562
(
(0.00229789 0 1.28755e-21)
(0.0029746 0 1.24335e-21)
(0.00273309 -0.000197613 -1.80474e-21)
(0 -0.00183734 1.81519e-22)
(0 -0.000580118 3.40676e-20)
(0.00236105 0 0)
(0 -0.00174634 0)
(0.00156601 -0.000445814 0)
(0.000691124 -0.000827721 2.5448e-21)
(0.00286701 -3.95504e-05 -8.69357e-21)
(0.00185912 -0.000720777 1.33852e-22)
(0.00185912 -0.000720777 1.33852e-22)
(0.00156601 -0.000445814 0)
(0 -0.00174634 0)
(0 -0.000580118 3.40676e-20)
(0.00229789 0 1.28755e-21)
(0.00236105 0 0)
(0.0029746 0 1.24335e-21)
(0.00286701 -3.95504e-05 -8.69357e-21)
(0.00273309 -0.000197613 -1.80474e-21)
(0.000691124 -0.000827721 2.5448e-21)
(0 -0.00183734 1.81519e-22)
(3.47199e-05 -0.00174356 0)
(6.96126e-05 -0.00173541 0)
(0.000104809 -0.00172236 0)
(0.000140502 -0.00170491 0)
(0.000177117 -0.00168334 0)
(0.000215058 -0.00165771 0)
(0.0002546 -0.00162811 0)
(0.000295913 -0.00159468 0)
(0.000339037 -0.00155767 0)
(0.000383876 -0.00151744 0)
(0.000430251 -0.00147446 0)
(0.000477883 -0.0014293 0)
(0.000526444 -0.00138255 0)
(0.000575549 -0.00133487 0)
(0.000624729 -0.00128694 0)
(0.000673396 -0.00123952 0)
(0.00072074 -0.00119363 0)
(0.00076586 -0.00115028 0)
(0.000808159 -0.00110997 0)
(0.000847777 -0.00107241 0)
(0.000885487 -0.00103672 0)
(0.000922298 -0.0010018 0)
(0.000959019 -0.000966945 0)
(0.000995753 -0.000932062 0)
(0.00103232 -0.000897472 0)
(0.00106876 -0.000863306 0)
(0.00110508 -0.00082959 0)
(0.00114124 -0.000796438 0)
(0.00117728 -0.000763861 0)
(0.00121315 -0.000731923 0)
(0.00124888 -0.000700631 0)
(0.00128443 -0.00067004 0)
(0.00131982 -0.000640132 0)
(0.00135499 -0.00061098 0)
(0.00139 -0.000582528 0)
(0.00142474 -0.000554886 0)
(0.00145933 -0.000527943 0)
(0.00149358 -0.000501861 0)
(0.00152771 -0.000476477 0)
(0.00160299 -0.000420007 0)
(0.00163603 -0.000397054 0)
(0.00166867 -0.000374956 0)
(0.00170087 -0.000353682 0)
(0.00173262 -0.000333243 0)
(0.00176392 -0.000313594 0)
(0.0017947 -0.00029474 0)
(0.00182499 -0.000276653 0)
(0.00185471 -0.000259331 0)
(0.00188387 -0.000242754 0)
(0.00191242 -0.000226915 0)
(0.00194034 -0.000211799 0)
(0.0019676 -0.000197389 0)
(0.00199417 -0.000183675 0)
(0.00202001 -0.000170635 0)
(0.00204512 -0.000158254 0)
(0.00206944 -0.00014652 0)
(0.00209296 -0.000135409 0)
(0.00211565 -0.000124899 0)
(0.00213748 -0.000114973 0)
(0.00215843 -0.000105606 0)
(0.00217846 -9.67784e-05 0)
(0.00219757 -8.84638e-05 0)
(0.00221571 -8.06407e-05 0)
(0.00223288 -7.32819e-05 0)
(0.00224905 -6.63636e-05 0)
(0.00226419 -5.98579e-05 0)
(0.00227829 -5.37392e-05 0)
(0.00229133 -4.7979e-05 0)
(0.0023033 -4.25501e-05 0)
(0.00231417 -3.74233e-05 0)
(0.00232394 -3.25702e-05 0)
(0.00233259 -2.79608e-05 0)
(0.00234011 -2.35661e-05 0)
(0.00234649 -1.93555e-05 0)
(0.00235172 -1.52991e-05 0)
(0.0023558 -1.13659e-05 0)
(0.00235871 -7.52574e-06 0)
(0.00236047 -3.74735e-06 0)
(0.00230119 0 0)
(0.00230529 0 0)
(0.00230909 0 0)
(0.00231262 0 0)
(0.00231589 0 0)
(0.00231893 0 0)
(0.00232175 0 0)
(0.00232437 0 0)
(0.0023268 0 0)
(0.00232907 0 0)
(0.00233118 0 0)
(0.00233314 0 0)
(0.00233497 0 0)
(0.00233668 0 0)
(0.00233827 0 0)
(0.00233977 0 0)
(0.00234117 0 0)
(0.00234248 0 0)
(0.00234371 0 0)
(0.00234488 0 0)
(0.00234597 0 0)
(0.00234701 0 0)
(0.002348 0 0)
(0.00234894 0 0)
(0.00234983 0 0)
(0.00235069 0 0)
(0.00235152 0 0)
(0.00235231 0 0)
(0.00235308 0 0)
(0.00235383 0 0)
(0.00235456 0 0)
(0.00235528 0 0)
(0.00235599 0 0)
(0.00235668 0 0)
(0.00235737 0 0)
(0.00235805 0 0)
(0.00235874 0 0)
(0.00235942 0 0)
(0.0023601 0 0)
(0.00236256 0 0)
(0.00236437 0 0)
(0.00236629 0 0)
(0.00236829 0 0)
(0.00237042 0 0)
(0.00237268 0 0)
(0.00237508 0 0)
(0.00237764 0 0)
(0.00238035 0 0)
(0.00238324 0 0)
(0.00238629 0 0)
(0.00238952 0 0)
(0.00239293 0 0)
(0.00239653 0 0)
(0.00240032 0 0)
(0.00240429 0 0)
(0.00240846 0 0)
(0.00241282 0 0)
(0.00241737 0 0)
(0.00242211 0 0)
(0.00242705 0 0)
(0.00243218 0 0)
(0.0024375 0 0)
(0.00244302 0 0)
(0.00244872 0 0)
(0.00245462 0 0)
(0.0024607 0 0)
(0.00246697 0 0)
(0.00247343 0 0)
(0.00248007 0 0)
(0.0024869 0 0)
(0.0024939 0 0)
(0.00250109 0 0)
(0.00250845 0 0)
(0.00251598 0 0)
(0.00252369 0 0)
(0.00253156 0 0)
(0.0025396 0 0)
(0.00254781 0 0)
(0.00255617 0 0)
(0.0025647 0 0)
(0.00257338 0 0)
(0.00258221 0 0)
(0.00259119 0 0)
(0.00260032 0 0)
(0.00260959 0 0)
(0.002619 0 0)
(0.00262855 0 0)
(0.00263823 0 0)
(0.00264803 0 0)
(0.00265797 0 0)
(0.00266802 0 0)
(0.00267819 0 0)
(0.00268848 0 0)
(0.00269887 0 0)
(0.00270937 0 0)
(0.00271997 0 0)
(0.00273066 0 0)
(0.00274144 0 0)
(0.00275231 0 0)
(0.00276326 0 0)
(0.00277428 0 0)
(0.00278537 0 0)
(0.00279652 0 0)
(0.00280773 0 0)
(0.00281899 0 0)
(0.00283029 0 0)
(0.00284163 0 0)
(0.002853 0 0)
(0.00286439 0 0)
(0.00287579 0 0)
(0.0028872 0 0)
(0.0028986 0 0)
(0.00290998 0 0)
(0.00292134 0 0)
(0.00293266 0 0)
(0.00294394 0 0)
(0.00295516 0 0)
(0.0029663 0 0)
(0.00297728 1.45365e-07 1.28085e-21)
(0.00297702 2.8582e-07 1.20228e-21)
(0.0029766 4.165e-07 2.39274e-21)
(0.00297601 5.3248e-07 -1.35118e-21)
(0.00297525 6.28975e-07 1.11711e-21)
(0.00297433 7.01072e-07 1.22893e-21)
(0.00297324 7.44101e-07 4.30885e-24)
(0.00297198 7.53188e-07 2.69623e-21)
(0.00297057 7.23814e-07 4.7134e-22)
(0.002969 6.51167e-07 -1.96713e-21)
(0.00296727 5.30922e-07 -3.76306e-21)
(0.00296538 3.58346e-07 -3.12295e-21)
(0.00296335 1.29351e-07 2.19027e-21)
(0.00296116 -1.60704e-07 4.13936e-21)
(0.00295883 -5.1562e-07 -9.48771e-23)
(0.00295636 -9.39937e-07 -5.54001e-21)
(0.00295375 -1.43712e-06 -5.96133e-21)
(0.002951 -2.0116e-06 -2.63469e-21)
(0.00294813 -2.66646e-06 -1.745e-21)
(0.00294512 -3.406e-06 -2.42145e-27)
(0.002942 -4.23289e-06 7.57779e-22)
(0.00293876 -5.1513e-06 2.05587e-21)
(0.0029354 -6.16342e-06 1.29787e-21)
(0.00293194 -7.27328e-06 1.90588e-21)
(0.00292837 -8.48258e-06 5.1516e-21)
(0.00292471 -9.79513e-06 3.24571e-21)
(0.00292095 -1.12122e-05 -1.32608e-21)
(0.00291711 -1.27373e-05 -6.54239e-22)
(0.00291319 -1.43713e-05 -2.69302e-21)
(0.00290919 -1.61172e-05 -2.72607e-21)
(0.00290513 -1.79757e-05 1.98794e-21)
(0.00290099 -1.99491e-05 2.70462e-21)
(0.00289681 -2.20382e-05 1.35521e-21)
(0.00289257 -2.42439e-05 -9.21932e-22)
(0.00288828 -2.65678e-05 5.94097e-21)
(0.00288396 -2.90091e-05 8.43557e-21)
(0.0028796 -3.15702e-05 5.93501e-21)
(0.00287521 -3.42483e-05 4.58646e-21)
(0.00287081 -3.70472e-05 -6.21448e-21)
(0.00286443 -4.12909e-05 -4.40717e-22)
(0.00286247 -4.2645e-05 2.25411e-21)
(0.0028605 -4.40224e-05 -2.81103e-21)
(0.00285854 -4.54227e-05 -3.23656e-21)
(0.00285658 -4.68458e-05 4.07006e-21)
(0.00285461 -4.82918e-05 -1.77336e-22)
(0.00285265 -4.97603e-05 -1.11389e-20)
(0.00285069 -5.12514e-05 -6.89153e-21)
(0.00284874 -5.27648e-05 1.819e-21)
(0.00284678 -5.43006e-05 -1.42362e-21)
(0.00284483 -5.58582e-05 -3.24263e-21)
(0.00284289 -5.7438e-05 3.99087e-21)
(0.00284095 -5.90393e-05 -3.13047e-22)
(0.00283901 -6.06623e-05 -1.11334e-20)
(0.00283708 -6.23065e-05 -6.82952e-21)
(0.00283516 -6.3972e-05 3.43088e-22)
(0.00283324 -6.56583e-05 -1.43561e-21)
(0.00283133 -6.73653e-05 -1.7787e-21)
(0.00282943 -6.90927e-05 -1.44984e-21)
(0.00282753 -7.08403e-05 -1.44984e-21)
(0.00282565 -7.26077e-05 -1.45467e-21)
(0.00282377 -7.43949e-05 -3.1937e-21)
(0.0028219 -7.62013e-05 -1.46855e-21)
(0.00282004 -7.80269e-05 3.96967e-21)
(0.00281819 -7.98711e-05 -6.92507e-22)
(0.00281635 -8.17338e-05 -9.25778e-21)
(0.00281453 -8.36146e-05 -2.95572e-21)
(0.00281271 -8.55131e-05 -2.7087e-21)
(0.00281091 -8.7429e-05 -7.95287e-21)
(0.00280912 -8.9362e-05 -4.80834e-21)
(0.00280734 -9.13115e-05 2.00008e-24)
(0.00280557 -9.32774e-05 -1.54315e-22)
(0.00280382 -9.52591e-05 -1.50473e-22)
(0.00280208 -9.72563e-05 3.20884e-21)
(0.00280035 -9.92686e-05 -1.34775e-21)
(0.00279864 -0.000101295 -3.16929e-21)
(0.00279694 -0.000103336 -1.5291e-23)
(0.00279525 -0.000105391 -1.41131e-21)
(0.00279358 -0.000107459 -1.48907e-21)
(0.00279193 -0.00010954 1.52316e-21)
(0.00279029 -0.000111633 -1.47931e-21)
(0.00278867 -0.000113738 -4.49752e-21)
(0.00278706 -0.000115854 1.44779e-21)
(0.00278546 -0.000117981 -1.51759e-21)
(0.00278389 -0.000120119 -8.81134e-21)
(0.00278232 -0.000122266 -4.43466e-23)
(0.00278078 -0.000124422 2.72492e-21)
(0.00277925 -0.000126587 -5.89566e-21)
(0.00277773 -0.00012876 -7.2083e-21)
(0.00277623 -0.000130941 -2.89429e-21)
(0.00277475 -0.000133128 -1.43136e-22)
(0.00277328 -0.000135323 -1.64882e-21)
(0.00277182 -0.000137523 -4.34504e-21)
(0.00277039 -0.000139728 -4.15821e-21)
(0.00276896 -0.000141938 1.49365e-21)
(0.00276756 -0.000144152 1.30439e-21)
(0.00276616 -0.00014637 -2.78599e-21)
(0.00276478 -0.00014859 2.5168e-21)
(0.00276342 -0.000150813 -7.3315e-22)
(0.00276206 -0.000153038 -6.7383e-21)
(0.00276072 -0.000155264 -2.49195e-21)
(0.00275939 -0.000157491 9.35476e-22)
(0.00275808 -0.000159718 1.52049e-21)
(0.00275677 -0.000161944 3.03548e-22)
(0.00275548 -0.000164169 -1.50987e-21)
(0.0027542 -0.000166393 -3.44821e-26)
(0.00275292 -0.000168615 1.67477e-25)
(0.00275166 -0.000170835 -2.67296e-21)
(0.0027504 -0.000173051 -8.11166e-22)
(0.00274914 -0.000175265 1.86124e-21)
(0.0027479 -0.000177475 5.31335e-21)
(0.00274665 -0.000179681 3.44009e-21)
(0.00274541 -0.000181884 -3.01489e-21)
(0.00274418 -0.000184082 -1.14271e-21)
(0.00274294 -0.000186276 1.14201e-21)
(0.0027417 -0.000188465 -3.01692e-21)
(0.00274047 -0.000190651 -2.65091e-21)
(0.00273923 -0.000192833 -9.75836e-30)
(0.00273798 -0.000195012 -1.15515e-21)
(0.00272077 -0.000201109 -1.29063e-21)
(0.00270484 -0.000205024 -1.93214e-21)
(0.00268894 -0.000208921 -1.92982e-21)
(0.00267308 -0.000212771 -1.92564e-21)
(0.00265724 -0.000216542 -2.45492e-21)
(0.00264141 -0.000220212 -4.23142e-22)
(0.00262558 -0.000223761 7.48636e-22)
(0.00260972 -0.000227175 0)
(0.00259383 -0.000230442 5.52591e-22)
(0.00257788 -0.000233557 -8.35308e-22)
(0.00256186 -0.000236512 -2.12513e-21)
(0.00254574 -0.000239308 -1.39469e-21)
(0.00252953 -0.000241941 -1.90785e-21)
(0.00251318 -0.000244416 -1.91828e-21)
(0.0024967 -0.000246736 -2.01604e-21)
(0.00248007 -0.000248905 -1.34816e-21)
(0.00246327 -0.00025093 -1.43263e-21)
(0.00244629 -0.000252817 -2.82427e-21)
(0.00242912 -0.000254576 -1.94882e-21)
(0.00241174 -0.000256214 9.59935e-22)
(0.00239414 -0.000257741 2.1116e-21)
(0.00237631 -0.000259168 -1.76084e-21)
(0.00235823 -0.000260507 -3.80235e-21)
(0.0023399 -0.000261767 -2.12887e-21)
(0.00232131 -0.000262964 -1.41186e-21)
(0.00230244 -0.00026411 -1.50563e-21)
(0.00228328 -0.000265218 -1.59521e-21)
(0.00226382 -0.000266303 -1.6195e-21)
(0.00224405 -0.000267379 -1.92952e-23)
(0.00222397 -0.000268462 -8.38323e-22)
(0.00220356 -0.000269566 -1.58514e-21)
(0.00218281 -0.000270709 -1.70815e-21)
(0.00216172 -0.000271907 -1.77955e-21)
(0.00214027 -0.000273178 -9.19846e-22)
(0.00211845 -0.000274539 -1.73602e-21)
(0.00209626 -0.000276009 -9.01293e-22)
(0.00207368 -0.00027761 -9.75816e-22)
(0.00205072 -0.000279355 -7.57872e-22)
(0.00202736 -0.000281265 1.1313e-21)
(0.00200358 -0.000283367 -1.54344e-22)
(0.00197939 -0.000285677 -1.1911e-21)
(0.00195477 -0.00028822 -2.01625e-21)
(0.00192972 -0.000291017 -1.94036e-21)
(0.00190424 -0.000294098 -3.24471e-21)
(0.0018783 -0.00029748 -4.42083e-21)
(0.00185192 -0.000301179 -3.10061e-21)
(0.00182507 -0.000305237 6.79456e-22)
(0.00179777 -0.000309676 3.43466e-21)
(0.00177 -0.000314521 -1.51068e-22)
(0.00174175 -0.000319798 1.33647e-21)
(0.00171304 -0.000325535 3.12261e-21)
(0.00168384 -0.000331762 -3.93168e-22)
(0.00165416 -0.000338505 -1.97636e-21)
(0.001624 -0.000345798 -7.7883e-22)
(0.00159336 -0.000353667 -5.09965e-22)
(0.00156224 -0.000362149 -2.51125e-21)
(0.00153064 -0.000371269 -1.7069e-21)
(0.00149858 -0.000381056 9.74334e-22)
(0.00146604 -0.000391562 3.4176e-22)
(0.00143303 -0.0004028 2.27653e-23)
(0.00139957 -0.000414792 2.11336e-21)
(0.00136566 -0.00042759 2.16282e-21)
(0.00133132 -0.000441219 8.46938e-22)
(0.00129657 -0.000455712 1.38947e-21)
(0.00126142 -0.000471095 4.61661e-22)
(0.00122592 -0.000487398 2.82619e-23)
(0.00119012 -0.000504641 2.52928e-21)
(0.00115399 -0.000522865 8.50487e-22)
(0.00111739 -0.000542146 -5.48227e-21)
(0.00108023 -0.000562555 -5.27109e-21)
(0.00104246 -0.00058413 -9.4807e-22)
(0.00100412 -0.000606896 -3.82334e-30)
(0.000965235 -0.000630815 3.21839e-21)
(0.000925981 -0.000655823 4.00533e-21)
(0.000886413 -0.000681923 1.7046e-21)
(0.000846667 -0.000709123 6.16586e-23)
(0.000806808 -0.000737471 3.59026e-23)
(0.000767042 -0.000766976 5.17656e-21)
(0.000727583 -0.000797804 6.41352e-21)
(0.000660588 -0.000854121 -2.56171e-21)
(0.000632865 -0.000879026 -1.75959e-21)
(0.000605157 -0.000904652 7.28084e-21)
(0.00057748 -0.000930936 3.426e-21)
(0.000549867 -0.000957921 -7.33884e-21)
(0.000522394 -0.000985595 -1.85326e-21)
(0.000495092 -0.00101397 6.17542e-21)
(0.000468027 -0.00104303 6.88659e-22)
(0.000441244 -0.00107278 -8.8253e-21)
(0.000414807 -0.0011032 -9.74543e-21)
(0.000388778 -0.00113424 -3.7759e-21)
(0.000363224 -0.00116591 -2.24527e-22)
(0.000338224 -0.00119812 -2.06377e-22)
(0.000313845 -0.00123084 -3.99446e-22)
(0.000290178 -0.00126396 -1.60371e-23)
(0.000267284 -0.00129742 -3.03365e-21)
(0.000245255 -0.00133108 -5.89916e-21)
(0.000224139 -0.00136484 -1.08164e-20)
(0.000204014 -0.00139853 -9.69237e-21)
(0.000184906 -0.00143203 9.28112e-22)
(0.00016687 -0.00146515 -1.26231e-21)
(0.000149908 -0.00149777 -1.45913e-21)
(0.00013405 -0.00152969 7.84916e-21)
(0.000119273 -0.00156078 5.5114e-21)
(0.000105587 -0.00159086 -1.0442e-21)
(9.29515e-05 -0.0016198 7.10006e-22)
(8.13568e-05 -0.00164745 9.02112e-22)
(7.07501e-05 -0.00167368 1.56452e-21)
(6.11056e-05 -0.00169835 2.28169e-21)
(5.23615e-05 -0.00172134 -1.47014e-21)
(4.44765e-05 -0.00174254 -2.42811e-21)
(3.73803e-05 -0.00176184 -9.62621e-22)
(3.10157e-05 -0.00177913 8.82242e-23)
(2.53033e-05 -0.00179432 0)
(2.01703e-05 -0.00180733 3.59861e-22)
(1.55273e-05 -0.00181808 6.21962e-22)
(1.12873e-05 -0.00182651 1.06678e-21)
(7.35231e-06 -0.00183257 6.91856e-22)
(3.62435e-06 -0.00183622 6.94489e-23)
(0 -0.00183704 0)
(0 -0.00183659 0)
(0 -0.00183609 0)
(0 -0.00183553 0)
(0 -0.00183493 0)
(0 -0.00183428 0)
(0 -0.00183359 0)
(0 -0.00183285 0)
(0 -0.00183207 0)
(0 -0.00183126 0)
(0 -0.00183041 0)
(0 -0.00182952 0)
(0 -0.0018286 0)
(0 -0.00182765 0)
(0 -0.00182667 0)
(0 -0.00182566 0)
(0 -0.00182463 0)
(0 -0.00182357 0)
(0 -0.00182248 0)
(0 -0.00182138 0)
(0 -0.00182025 0)
(0 -0.0018191 0)
(0 -0.00181794 0)
(0 -0.00181675 0)
(0 -0.00181555 0)
(0 -0.00181434 0)
(0 -0.00181311 0)
(0 -0.00181187 0)
(0 -0.00181061 0)
(0 -0.00180935 0)
(0 -0.00180808 0)
(0 -0.00180679 0)
(0 -0.0018055 0)
(0 -0.0018042 0)
(0 -0.0018029 0)
(0 -0.00180159 0)
(0 -0.00180027 0)
(0 -0.00179895 0)
(0 -0.00179763 0)
(0 -0.0017963 0)
(0 -0.00179498 0)
(0 -0.00179365 0)
(0 -0.00179232 0)
(0 -0.001791 0)
(0 -0.00178967 0)
(0 -0.00178834 0)
(0 -0.00178702 0)
(0 -0.0017857 0)
(0 -0.00178439 0)
(0 -0.00178307 0)
(0 -0.00178176 0)
(0 -0.00178046 0)
(0 -0.00177916 0)
(0 -0.00177787 0)
(0 -0.00177658 0)
(0 -0.0017753 0)
(0 -0.00177403 0)
(0 -0.00177277 0)
(0 -0.00177151 0)
(0 -0.00177026 0)
(0 -0.00176902 0)
(0 -0.00176778 0)
(0 -0.00176656 0)
(0 -0.00176534 0)
(0 -0.00176413 0)
(0 -0.00176293 0)
(0 -0.00176174 0)
(0 -0.00176055 0)
(0 -0.00175937 0)
(0 -0.0017582 0)
(0 -0.00175704 0)
(0 -0.00175588 0)
(0 -0.00175473 0)
(0 -0.00175357 0)
(0 -0.00175243 0)
(0 -0.00175127 0)
(0 -0.00175012 0)
(0 -0.00174897 0)
(0 -0.0017478 0)
(0 -0.00174425 0)
(0 -0.00174177 0)
(0 -0.00173896 0)
(0 -0.00173559 0)
(0 -0.00173151 0)
(0 -0.00172658 0)
(0 -0.00172066 0)
(0 -0.00171363 0)
(0 -0.00170534 0)
(0 -0.00169569 0)
(0 -0.00168455 0)
(0 -0.00167185 0)
(0 -0.0016575 0)
(0 -0.00164142 0)
(0 -0.00162357 0)
(0 -0.00160389 0)
(0 -0.00158234 0)
(0 -0.0015589 0)
(0 -0.00153352 0)
(0 -0.00150622 0)
(0 -0.00147694 0)
(0 -0.00144569 0)
(0 -0.00141246 0)
(0 -0.00137724 0)
(0 -0.00134002 0)
(0 -0.00130082 0)
(0 -0.00125963 0)
(0 -0.00121647 0)
(0 -0.00117136 0)
(0 -0.00112433 0)
(0 -0.00107541 0)
(0 -0.00102467 0)
(0 -0.00097215 0)
(0 -0.000917967 0)
(0 -0.0008622 0)
(0 -0.000804985 0)
(0 -0.000746455 0)
(0 -0.000686785 0)
(0 -0.000626137 0)
(0.00158979 -0.000416945 0)
(0.0016107 -0.000390511 0)
(0.00163144 -0.000365356 0)
(0.00165188 -0.000341679 0)
(0.0016721 -0.000319365 0)
(0.00169204 -0.00029837 0)
(0.00171175 -0.000278707 0)
(0.00173119 -0.000260259 0)
(0.00175037 -0.000243067 0)
(0.00176931 -0.000226988 0)
(0.00178799 -0.000212068 0)
(0.00180644 -0.000198169 0)
(0.00182466 -0.000185326 0)
(0.00184265 -0.000173417 0)
(0.00186042 -0.000162457 0)
(0.00187799 -0.000152352 0)
(0.00189536 -0.000143095 0)
(0.00191255 -0.000134609 0)
(0.00192957 -0.000126878 0)
(0.00194642 -0.000119838 0)
(0.00196312 -0.000113471 0)
(0.00197967 -0.000107719 0)
(0.0019961 -0.000102562 0)
(0.0020124 -9.79494e-05 0)
(0.00202859 -9.38596e-05 0)
(0.00204467 -9.02503e-05 0)
(0.00206066 -8.7097e-05 0)
(0.00207656 -8.43647e-05 0)
(0.00209238 -8.20285e-05 0)
(0.00210813 -8.00573e-05 0)
(0.00212382 -7.84296e-05 0)
(0.00213944 -7.71103e-05 0)
(0.00215502 -7.6082e-05 0)
(0.00217055 -7.53174e-05 0)
(0.00218603 -7.47959e-05 0)
(0.00220149 -7.44949e-05 0)
(0.00221691 -7.43937e-05 0)
(0.0022323 -7.44718e-05 0)
(0.00224767 -7.47101e-05 0)
(0.00226302 -7.50897e-05 0)
(0.00227835 -7.55919e-05 0)
(0.00229366 -7.62015e-05 0)
(0.00230896 -7.68988e-05 0)
(0.00232425 -7.76689e-05 0)
(0.00233953 -7.84949e-05 0)
(0.0023548 -7.93628e-05 0)
(0.00237007 -8.02582e-05 0)
(0.00238533 -8.11659e-05 0)
(0.00240058 -8.20726e-05 0)
(0.00241583 -8.29641e-05 0)
(0.00243107 -8.3828e-05 0)
(0.0024463 -8.46507e-05 0)
(0.00246153 -8.54203e-05 0)
(0.00247676 -8.61238e-05 0)
(0.00249197 -8.67499e-05 0)
(0.00250718 -8.72856e-05 0)
(0.00252238 -8.77201e-05 0)
(0.00253757 -8.80407e-05 0)
(0.00255274 -8.82369e-05 0)
(0.0025679 -8.82955e-05 0)
(0.00258305 -8.82065e-05 0)
(0.00259819 -8.79561e-05 0)
(0.0026133 -8.75346e-05 0)
(0.0026284 -8.6927e-05 0)
(0.00264348 -8.61238e-05 0)
(0.00265854 -8.51087e-05 0)
(0.00267358 -8.38717e-05 0)
(0.00268859 -8.23956e-05 0)
(0.00270358 -8.06674e-05 0)
(0.00271854 -7.86659e-05 0)
(0.00273349 -7.63867e-05 0)
(0.00274841 -7.3801e-05 0)
(0.0027633 -7.0896e-05 0)
(0.00277817 -6.76446e-05 0)
(0.00279302 -6.40319e-05 0)
(0.00280785 -6.0026e-05 0)
(0.00282266 -5.56078e-05 0)
(0.00283746 -5.07418e-05 0)
(0.00285224 -4.54016e-05 0)
(0.00154841 -0.000453021 0)
(0.00153646 -0.00045741 0)
(0.00152451 -0.000461838 0)
(0.00151262 -0.000466268 0)
(0.00150075 -0.00047073 0)
(0.00148893 -0.000475201 0)
(0.00147713 -0.000479699 0)
(0.00146538 -0.000484208 0)
(0.00145366 -0.000488741 0)
(0.00144197 -0.000493287 0)
(0.00143034 -0.000497852 0)
(0.00141873 -0.000502431 0)
(0.00140718 -0.000507028 0)
(0.00139565 -0.000511637 0)
(0.00138415 -0.000516253 0)
(0.00137271 -0.000520887 0)
(0.0013613 -0.000525526 0)
(0.00134995 -0.000530174 0)
(0.00133863 -0.00053483 0)
(0.00132736 -0.000539492 0)
(0.00131613 -0.000544162 0)
(0.00130494 -0.000548836 0)
(0.0012938 -0.000553518 0)
(0.00128268 -0.000558202 0)
(0.00127163 -0.000562895 0)
(0.00126058 -0.000567589 0)
(0.00124957 -0.000572283 0)
(0.00123861 -0.000576981 0)
(0.00122768 -0.000581681 0)
(0.00121679 -0.000586381 0)
(0.00120593 -0.000591085 0)
(0.00119511 -0.000595786 0)
(0.00118432 -0.000600491 0)
(0.00117356 -0.000605193 0)
(0.00116283 -0.000609899 0)
(0.00115214 -0.000614601 0)
(0.00114147 -0.000619306 0)
(0.00113083 -0.000624009 0)
(0.00112021 -0.000628715 0)
(0.00110962 -0.000633418 0)
(0.00109905 -0.000638124 0)
(0.00108851 -0.000642829 0)
(0.00107799 -0.000647537 0)
(0.0010675 -0.000652245 0)
(0.00105701 -0.000656956 0)
(0.00104653 -0.000661663 0)
(0.00103609 -0.000666374 0)
(0.00102566 -0.000671086 0)
(0.00101525 -0.0006758 0)
(0.00100485 -0.000680517 0)
(0.000994465 -0.000685236 0)
(0.000984091 -0.000689959 0)
(0.000973731 -0.000694684 0)
(0.000963378 -0.000699415 0)
(0.000953034 -0.00070415 0)
(0.000942694 -0.00070889 0)
(0.00093236 -0.000713637 0)
(0.000922027 -0.000718391 0)
(0.000911695 -0.000723153 0)
(0.000901362 -0.000727924 0)
(0.000891025 -0.000732706 0)
(0.000880682 -0.0007375 0)
(0.000870332 -0.000742306 0)
(0.000859972 -0.000747127 0)
(0.000849598 -0.000751965 0)
(0.00083921 -0.000756819 0)
(0.000828803 -0.000761694 0)
(0.000818376 -0.000766589 0)
(0.000807925 -0.000771508 0)
(0.000797449 -0.000776451 0)
(0.000786943 -0.000781421 0)
(0.000776405 -0.000786416 0)
(0.00076583 -0.000791444 0)
(0.000755215 -0.000796496 0)
(0.00074456 -0.000801583 0)
(0.000733851 -0.000806692 0)
(0.00072311 -0.000811832 0)
(0.000712349 -0.000817014 0)
(0.000701659 -0.000822304 0)
(9.89638e-05 -0.000567796 5.15891e-20)
(0.00019695 -0.000576985 -1.4605e-20)
(0.000293065 -0.000592112 -4.83273e-20)
(0.00038654 -0.000612842 -1.8026e-20)
(0.000476797 -0.000638707 1.11442e-20)
(0.000563522 -0.000669101 -4.19157e-21)
(0.000646655 -0.000703218 -1.46672e-20)
(0.000726324 -0.000740257 2.78525e-21)
(0.000802777 -0.000779449 2.64548e-20)
(0.000876281 -0.000820106 1.63812e-20)
(0.000946936 -0.000861704 1.20378e-20)
(0.0010147 -0.000903714 2.17438e-20)
(0.00107929 -0.00094554 -2.74483e-23)
(0.00114027 -0.000986277 1.02047e-20)
(0.00119713 -0.00102448 2.67028e-21)
(0.00124933 -0.00105856 -1.43659e-20)
(0.00129658 -0.00108704 -1.98965e-20)
(0.00133844 -0.00110807 -2.14355e-20)
(0.00137434 -0.00111894 1.17413e-21)
(0.00140418 -0.00111784 1.74167e-20)
(0.00142925 -0.00110606 6.93903e-21)
(0.00145175 -0.00108785 -1.03647e-20)
(0.00147375 -0.00106744 -1.10403e-20)
(0.00149624 -0.00104678 -4.06771e-21)
(0.00151913 -0.00102618 -8.02138e-21)
(0.00154228 -0.00100564 5.08069e-21)
(0.00156561 -0.000985121 1.20377e-20)
(0.00158904 -0.000964622 8.18691e-23)
(0.0016125 -0.000944133 -7.07948e-22)
(0.00163592 -0.000923656 -6.14608e-21)
(0.00165926 -0.00090319 -6.22567e-21)
(0.00168246 -0.000882743 3.9139e-21)
(0.0017055 -0.00086232 7.18399e-21)
(0.00172831 -0.000841931 7.53235e-21)
(0.00175088 -0.000821583 1.1369e-20)
(0.00177318 -0.000801286 4.78775e-21)
(0.00179517 -0.000781049 -9.47308e-21)
(0.00181684 -0.000760879 -3.20413e-21)
(0.00183816 -0.000740788 3.58043e-21)
(0.0018797 -0.000700861 -1.24062e-22)
(0.00189988 -0.000681036 -3.14883e-21)
(0.00191964 -0.000661319 -1.03107e-22)
(0.00193899 -0.000641702 -3.52173e-21)
(0.00195789 -0.0006222 -1.19393e-20)
(0.00197636 -0.000602806 3.80956e-22)
(0.00199436 -0.000583529 3.35066e-21)
(0.00201189 -0.000564371 -2.10867e-21)
(0.00202896 -0.000545331 3.59796e-21)
(0.00204554 -0.000526408 3.19622e-21)
(0.00206163 -0.000507604 2.59664e-21)
(0.00207723 -0.000488915 4.53766e-21)
(0.00209233 -0.000470343 1.3079e-21)
(0.00210693 -0.000451884 -7.0834e-21)
(0.00212102 -0.000433537 -5.03837e-21)
(0.00213459 -0.000415298 8.84412e-21)
(0.00214763 -0.000397165 9.57441e-21)
(0.00216016 -0.000379135 4.87579e-22)
(0.00217215 -0.000361203 -3.62684e-21)
(0.00218362 -0.000343369 -4.75352e-21)
(0.00219455 -0.000325624 -1.85426e-21)
(0.00220493 -0.000307969 -3.08047e-23)
(0.00221478 -0.000290395 -9.66375e-22)
(0.00222408 -0.000272902 4.96334e-22)
(0.00223283 -0.000255482 -1.95848e-21)
(0.00224103 -0.000238133 -6.47969e-21)
(0.00224867 -0.000220849 4.81576e-22)
(0.00225576 -0.000203624 5.69577e-21)
(0.00226229 -0.000186458 2.23274e-21)
(0.00226826 -0.000169342 2.2039e-21)
(0.00227366 -0.000152274 -1.39705e-21)
(0.0022785 -0.000135249 -9.74992e-22)
(0.00228278 -0.000118261 4.73944e-21)
(0.00228648 -0.000101306 3.07727e-21)
(0.00228962 -8.43785e-05 -1.29045e-21)
(0.00229219 -6.74753e-05 -4.0002e-21)
(0.00229419 -5.05898e-05 -4.519e-21)
(0.00229562 -3.3719e-05 -1.74683e-21)
(0.00229648 -1.6857e-05 1.27447e-21)
(0.00184629 -0.000708201 0)
(0.00183393 -0.000696166 0)
(0.00182203 -0.000684637 0)
(0.00181054 -0.000673577 0)
(0.00179945 -0.000662961 0)
(0.00178874 -0.000652765 0)
(0.00177838 -0.00064296 0)
(0.00176836 -0.000633531 0)
(0.00175866 -0.000624452 0)
(0.00174927 -0.000615709 0)
(0.00174017 -0.00060728 0)
(0.00173135 -0.000599153 0)
(0.00172279 -0.000591309 0)
(0.00171448 -0.000583737 0)
(0.00170642 -0.000576422 0)
(0.0016986 -0.000569351 0)
(0.001691 -0.000562513 0)
(0.00168361 -0.000555896 0)
(0.00167643 -0.000549491 0)
(0.00166946 -0.000543285 0)
(0.00166267 -0.000537273 0)
(0.00165608 -0.000531442 0)
(0.00164966 -0.000525787 0)
(0.00164342 -0.000520295 0)
(0.00163735 -0.000514965 0)
(0.00163144 -0.000509783 0)
(0.00162569 -0.000504747 0)
(0.00162009 -0.000499847 0)
(0.00161464 -0.000495079 0)
(0.00160934 -0.000490437 0)
(0.00160418 -0.000485914 0)
(0.00159915 -0.000481507 0)
(0.00159426 -0.000477208 0)
(0.0015895 -0.000473016 0)
(0.00158485 -0.000468925 0)
(0.00158035 -0.000464932 0)
(0.00157595 -0.000461034 0)
(0.0015717 -0.00045723 0)
(0.00156753 -0.000453519 0)
(0.00184629 -0.000708201 0)
(0.00183393 -0.000696166 0)
(0.00182203 -0.000684637 0)
(0.00181054 -0.000673577 0)
(0.00179945 -0.000662961 0)
(0.00178874 -0.000652765 0)
(0.00177838 -0.00064296 0)
(0.00176836 -0.000633531 0)
(0.00175866 -0.000624452 0)
(0.00174927 -0.000615709 0)
(0.00174017 -0.00060728 0)
(0.00173135 -0.000599153 0)
(0.00172279 -0.000591309 0)
(0.00171448 -0.000583737 0)
(0.00170642 -0.000576422 0)
(0.0016986 -0.000569351 0)
(0.001691 -0.000562513 0)
(0.00168361 -0.000555896 0)
(0.00167643 -0.000549491 0)
(0.00166946 -0.000543285 0)
(0.00166267 -0.000537273 0)
(0.00165608 -0.000531442 0)
(0.00164966 -0.000525787 0)
(0.00164342 -0.000520295 0)
(0.00163735 -0.000514965 0)
(0.00163144 -0.000509783 0)
(0.00162569 -0.000504747 0)
(0.00162009 -0.000499847 0)
(0.00161464 -0.000495079 0)
(0.00160934 -0.000490437 0)
(0.00160418 -0.000485914 0)
(0.00159915 -0.000481507 0)
(0.00159426 -0.000477208 0)
(0.0015895 -0.000473016 0)
(0.00158485 -0.000468925 0)
(0.00158035 -0.000464932 0)
(0.00157595 -0.000461034 0)
(0.0015717 -0.00045723 0)
(0.00156753 -0.000453519 0)
(0.00152771 -0.000476477 0)
(0.00149358 -0.000501861 0)
(0.00145933 -0.000527943 0)
(0.00142474 -0.000554886 0)
(0.00139 -0.000582528 0)
(0.00135499 -0.00061098 0)
(0.00131982 -0.000640132 0)
(0.00128443 -0.00067004 0)
(0.00124888 -0.000700631 0)
(0.00121315 -0.000731923 0)
(0.00117728 -0.000763861 0)
(0.00114124 -0.000796438 0)
(0.00110508 -0.00082959 0)
(0.00106876 -0.000863306 0)
(0.00103232 -0.000897472 0)
(0.000995753 -0.000932062 0)
(0.000959019 -0.000966945 0)
(0.000922298 -0.0010018 0)
(0.000885487 -0.00103672 0)
(0.000847777 -0.00107241 0)
(0.000808159 -0.00110997 0)
(0.00076586 -0.00115028 0)
(0.00072074 -0.00119363 0)
(0.000673396 -0.00123952 0)
(0.000624729 -0.00128694 0)
(0.000575549 -0.00133487 0)
(0.000526444 -0.00138255 0)
(0.000477883 -0.0014293 0)
(0.000430251 -0.00147446 0)
(0.000383876 -0.00151744 0)
(0.000339037 -0.00155767 0)
(0.000295913 -0.00159468 0)
(0.0002546 -0.00162811 0)
(0.000215058 -0.00165771 0)
(0.000177117 -0.00168334 0)
(0.000140502 -0.00170491 0)
(0.000104809 -0.00172236 0)
(6.96126e-05 -0.00173541 0)
(3.47199e-05 -0.00174356 0)
(0 -0.00174425 0)
(0 -0.00174177 0)
(0 -0.00173896 0)
(0 -0.00173559 0)
(0 -0.00173151 0)
(0 -0.00172658 0)
(0 -0.00172066 0)
(0 -0.00171363 0)
(0 -0.00170534 0)
(0 -0.00169569 0)
(0 -0.00168455 0)
(0 -0.00167185 0)
(0 -0.0016575 0)
(0 -0.00164142 0)
(0 -0.00162357 0)
(0 -0.00160389 0)
(0 -0.00158234 0)
(0 -0.0015589 0)
(0 -0.00153352 0)
(0 -0.00150622 0)
(0 -0.00147694 0)
(0 -0.00144569 0)
(0 -0.00141246 0)
(0 -0.00137724 0)
(0 -0.00134002 0)
(0 -0.00130082 0)
(0 -0.00125963 0)
(0 -0.00121647 0)
(0 -0.00117136 0)
(0 -0.00112433 0)
(0 -0.00107541 0)
(0 -0.00102467 0)
(0 -0.00097215 0)
(0 -0.000917967 0)
(0 -0.0008622 0)
(0 -0.000804985 0)
(0 -0.000746455 0)
(0 -0.000686785 0)
(0 -0.000626137 0)
(9.89638e-05 -0.000567796 5.15891e-20)
(0.00019695 -0.000576985 -1.4605e-20)
(0.000293065 -0.000592112 -4.83273e-20)
(0.00038654 -0.000612842 -1.8026e-20)
(0.000476797 -0.000638707 1.11442e-20)
(0.000563522 -0.000669101 -4.19157e-21)
(0.000646655 -0.000703218 -1.46672e-20)
(0.000726324 -0.000740257 2.78525e-21)
(0.000802777 -0.000779449 2.64548e-20)
(0.000876281 -0.000820106 1.63812e-20)
(0.000946936 -0.000861704 1.20378e-20)
(0.0010147 -0.000903714 2.17438e-20)
(0.00107929 -0.00094554 -2.74483e-23)
(0.00114027 -0.000986277 1.02047e-20)
(0.00119713 -0.00102448 2.67028e-21)
(0.00124933 -0.00105856 -1.43659e-20)
(0.00129658 -0.00108704 -1.98965e-20)
(0.00133844 -0.00110807 -2.14355e-20)
(0.00137434 -0.00111894 1.17413e-21)
(0.00140418 -0.00111784 1.74167e-20)
(0.00142925 -0.00110606 6.93903e-21)
(0.00145175 -0.00108785 -1.03647e-20)
(0.00147375 -0.00106744 -1.10403e-20)
(0.00149624 -0.00104678 -4.06771e-21)
(0.00151913 -0.00102618 -8.02138e-21)
(0.00154228 -0.00100564 5.08069e-21)
(0.00156561 -0.000985121 1.20377e-20)
(0.00158904 -0.000964622 8.18691e-23)
(0.0016125 -0.000944133 -7.07948e-22)
(0.00163592 -0.000923656 -6.14608e-21)
(0.00165926 -0.00090319 -6.22567e-21)
(0.00168246 -0.000882743 3.9139e-21)
(0.0017055 -0.00086232 7.18399e-21)
(0.00172831 -0.000841931 7.53235e-21)
(0.00175088 -0.000821583 1.1369e-20)
(0.00177318 -0.000801286 4.78775e-21)
(0.00179517 -0.000781049 -9.47308e-21)
(0.00181684 -0.000760879 -3.20413e-21)
(0.00183816 -0.000740788 3.58043e-21)
(0.0018797 -0.000700861 -1.24062e-22)
(0.00189988 -0.000681036 -3.14883e-21)
(0.00191964 -0.000661319 -1.03107e-22)
(0.00193899 -0.000641702 -3.52173e-21)
(0.00195789 -0.0006222 -1.19393e-20)
(0.00197636 -0.000602806 3.80956e-22)
(0.00199436 -0.000583529 3.35066e-21)
(0.00201189 -0.000564371 -2.10867e-21)
(0.00202896 -0.000545331 3.59796e-21)