/*--------------------------------*- C++ -*----------------------------------*\
| =========                 |                                                 |
| \\      /  F ield         | OpenFOAM: The Open Source CFD Toolbox           |
|  \\    /   O peration     | Version:  v2012                                 |
|   \\  /    A nd           | Website:  www.openfoam.com                      |
|    \\/     M anipulation  |                                                 |
\*---------------------------------------------------------------------------*/
FoamFile
{
    version     2.0;
    format      ascii;
    class       volSymmTensorField;
    location    "15";
    object      sigma;
}
// * * * * * * * * * * * * * * * * * * * * * * * * * * * * * * * * * * * * * //

dimensions      [1 -1 -2 0 0 0 0];


internalField   nonuniform List<symmTensor> 
16000
(
(-4.58692e+06 -46761 -7.14474e-09 -99334.9 2.94675e-08 5.2846e+07)
(8.76961e+06 -279594 -2.00877e-08 207577 3.02741e-08 5.79779e+07)
(2.12033e+07 -557795 2.4913e-09 652651 -3.4676e-08 6.30596e+07)
(3.32226e+07 -767392 -1.9266e-08 1.5547e+06 -7.66059e-08 6.78306e+07)
(4.4715e+07 -991285 9.38047e-09 2.56581e+06 1.32581e-09 7.26899e+07)
(5.54718e+07 -1.17929e+06 -6.30251e-16 3.91823e+06 2.16985e-14 7.7078e+07)
(6.61074e+07 -1.3579e+06 7.21702e-09 5.40468e+06 -8.36451e-08 8.16633e+07)
(7.58472e+07 -1.52086e+06 -1.5567e-09 7.09463e+06 8.73269e-08 8.57063e+07)
(8.56515e+07 -1.66438e+06 8.70282e-10 8.96455e+06 4.58486e-08 8.99599e+07)
(9.45565e+07 -1.80274e+06 -2.90938e-10 1.09101e+07 -4.44063e-08 9.36602e+07)
(1.0358e+08 -1.91983e+06 -1.93395e-09 1.308e+07 4.75905e-08 9.75329e+07)
(1.11777e+08 -2.03844e+06 3.36862e-09 1.52237e+07 -6.14742e-10 1.00881e+08)
(1.2009e+08 -2.13516e+06 -1.17078e-16 1.76262e+07 -1.01359e-14 1.04348e+08)
(1.27669e+08 -2.23901e+06 1.08275e-09 1.99287e+07 9.70498e-08 1.0731e+08)
(1.35343e+08 -2.32512e+06 2.176e-08 2.25111e+07 -5.00121e-08 1.10327e+08)
(1.42382e+08 -2.41334e+06 -1.75504e-09 2.49504e+07 -9.7658e-08 1.12883e+08)
(1.49477e+08 -2.49576e+06 1.04636e-09 2.76685e+07 4.87269e-08 1.15419e+08)
(1.56033e+08 -2.57025e+06 1.07753e-16 3.0228e+07 8.71876e-15 1.17488e+08)
(1.62594e+08 -2.64209e+06 -3.61161e-16 3.30458e+07 -8.36895e-15 1.19505e+08)
(1.68691e+08 -2.7074e+06 -2.55668e-08 3.56972e+07 4.76742e-08 1.21049e+08)
(1.74746e+08 -2.75387e+06 -1.6993e-09 3.85791e+07 -4.65541e-08 1.22424e+08)
(1.80368e+08 -2.80093e+06 -1.96857e-08 4.12761e+07 -9.11564e-08 1.2337e+08)
(1.85903e+08 -2.81605e+06 -1.70848e-08 4.41659e+07 -8.34823e-11 1.24038e+08)
(1.91009e+08 -2.81607e+06 -1.59665e-08 4.68463e+07 4.27768e-08 1.24232e+08)
(1.95937e+08 -2.78915e+06 2.54156e-09 4.96507e+07 4.13345e-08 1.24109e+08)
(2.00447e+08 -2.72249e+06 1.78938e-08 5.22227e+07 -3.90664e-08 1.23425e+08)
(2.04664e+08 -2.6223e+06 -4.3723e-08 5.48226e+07 -1.26129e-09 1.22424e+08)
(2.08417e+08 -2.47763e+06 2.96756e-08 5.71451e+07 7.14825e-08 1.20813e+08)
(2.11827e+08 -2.27273e+06 4.498e-08 5.93987e+07 -3.09331e-08 1.18836e+08)
(2.14632e+08 -2.03264e+06 -5.4634e-08 6.12972e+07 -3.30129e-08 1.16322e+08)
(2.1713e+08 -1.72057e+06 0 6.30357e+07 0 1.13413e+08)
(2.18903e+08 -1.36662e+06 -4.12605e-09 6.43427e+07 -2.53933e-08 1.10144e+08)
(2.20387e+08 -959642 -2.86462e-08 6.53834e+07 -1.8996e-09 1.06551e+08)
(2.21185e+08 -498496 -2.53768e-08 6.59603e+07 1.82875e-08 1.02743e+08)
(2.21617e+08 -7454.36 -3.03591e-08 6.61495e+07 -2.25796e-09 9.88133e+07)
(2.21604e+08 519300 -6.59672e-08 6.58936e+07 -2.078e-08 9.48197e+07)
(2.21208e+08 1.06885e+06 -6.32885e-08 6.51603e+07 -4.98676e-09 9.09421e+07)
(2.20396e+08 1.66477e+06 9.11406e-09 6.40098e+07 3.84576e-08 8.72019e+07)
(2.17184e+08 2.16855e+06 2.9274e-08 6.23267e+07 -9.3463e-09 8.38533e+07)
(2.0978e+08 2.44909e+06 -3.70383e-08 6.03365e+07 -3.67905e-08 8.1035e+07)
(-4.13978e+06 -154023 9.4186e-09 -87254.6 1.80038e-08 5.29226e+07)
(9.17077e+06 -850494 -6.04491e-08 258407 1.41838e-08 5.80417e+07)
(2.15813e+07 -1.67811e+06 6.70348e-10 738037 -7.52239e-08 6.31289e+07)
(3.35246e+07 -2.30625e+06 6.55466e-09 1.66336e+06 -3.79081e-08 6.78745e+07)
(4.49961e+07 -2.97278e+06 -1.05239e-09 2.7052e+06 8.31851e-08 7.2736e+07)
(5.5688e+07 -3.53416e+06 -1.17565e-15 4.06865e+06 1.08393e-14 7.70994e+07)
(6.62941e+07 -4.06867e+06 6.42459e-09 5.58063e+06 -8.44363e-08 8.16803e+07)
(7.59836e+07 -4.55378e+06 -1.56691e-09 7.2752e+06 9.09057e-08 8.56987e+07)
(8.57571e+07 -4.98663e+06 -7.49721e-09 9.16661e+06 1.29385e-07 8.99465e+07)
(9.46241e+07 -5.39894e+06 2.3847e-10 1.11155e+07 -3.92455e-08 9.36306e+07)
(1.03624e+08 -5.75554e+06 3.42477e-10 1.33063e+07 -9.32998e-08 9.74989e+07)
(1.11791e+08 -6.10884e+06 6.33123e-09 1.54563e+07 -5.28333e-08 1.00828e+08)
(1.20087e+08 -6.4106e+06 -3.81365e-09 1.78798e+07 5.02863e-08 1.04291e+08)
(1.27653e+08 -6.71722e+06 4.61306e-09 2.01968e+07 -5.04436e-08 1.07247e+08)
(1.35308e+08 -6.98478e+06 2.79891e-08 2.27985e+07 -5.73803e-08 1.10255e+08)
(1.42345e+08 -7.25212e+06 2.62103e-09 2.52538e+07 4.87222e-08 1.12794e+08)
(1.49422e+08 -7.48965e+06 3.10374e-09 2.79917e+07 4.85941e-08 1.15317e+08)
(1.55964e+08 -7.72362e+06 2.25385e-08 3.0552e+07 -2.55153e-09 1.17372e+08)
(1.62515e+08 -7.91717e+06 2.06499e-08 3.33843e+07 9.45269e-08 1.19335e+08)
(1.6857e+08 -8.10616e+06 3.2019e-08 3.60127e+07 4.63195e-08 1.20836e+08)
(1.74596e+08 -8.23581e+06 -1.02724e-08 3.88796e+07 -9.26018e-08 1.22152e+08)
(1.80164e+08 -8.33952e+06 -5.6573e-09 4.15312e+07 -4.48254e-08 1.22977e+08)
(1.85612e+08 -8.37806e+06 -1.71835e-08 4.43534e+07 5.37322e-10 1.23565e+08)
(1.90645e+08 -8.34097e+06 1.8531e-08 4.69518e+07 6.68606e-10 1.23578e+08)
(1.95446e+08 -8.23232e+06 -7.75609e-09 4.96373e+07 -4.0888e-08 1.23312e+08)
(1.99819e+08 -8.00869e+06 2.93389e-08 5.20644e+07 3.98376e-08 1.22458e+08)
(2.03887e+08 -7.6705e+06 -4.40916e-08 5.44953e+07 -2.76474e-09 1.21207e+08)
(2.07437e+08 -7.20906e+06 -2.03473e-08 5.66088e+07 -6.98418e-08 1.19438e+08)
(2.10662e+08 -6.58521e+06 4.61109e-08 5.86319e+07 6.70943e-08 1.17202e+08)
(2.13258e+08 -5.82715e+06 1.17809e-08 6.02891e+07 3.04633e-08 1.1456e+08)
(2.15529e+08 -4.91455e+06 -7.79016e-08 6.17369e+07 -6.34172e-08 1.11491e+08)
(2.17118e+08 -3.82732e+06 0 6.28043e+07 0 1.08135e+08)
(2.18384e+08 -2.65661e+06 -1.61358e-08 6.35376e+07 1.69812e-08 1.04515e+08)
(2.19021e+08 -1.27574e+06 4.22462e-08 6.39152e+07 2.63981e-08 1.00733e+08)
(2.19319e+08 100471 -1.82959e-08 6.38487e+07 1.14682e-08 9.69098e+07)
(2.19194e+08 1.64943e+06 -3.08814e-08 6.34871e+07 -6.71453e-09 9.30884e+07)
(2.18653e+08 3.17297e+06 -5.19943e-08 6.26087e+07 -3.57835e-08 8.9413e+07)
(2.18013e+08 4.79806e+06 -3.1943e-08 6.14903e+07 -7.38468e-09 8.59515e+07)
(2.15683e+08 6.31758e+06 9.55576e-08 5.98988e+07 2.20373e-08 8.26745e+07)
(2.09117e+08 7.21178e+06 -4.84081e-08 5.80001e+07 5.97673e-09 8.01353e+07)
(-3.24335e+06 -304225 5.62926e-08 -58412.8 -2.60767e-08 5.30804e+07)
(9.96239e+06 -1.45971e+06 -1.66336e-09 358839 -4.39386e-08 5.81639e+07)
(2.23317e+07 -2.81851e+06 -2.54967e-08 911525 7.03921e-08 6.32627e+07)
(3.41241e+07 -3.8664e+06 1.15991e-08 1.87983e+06 9.39631e-09 6.79549e+07)
(4.5552e+07 -4.95961e+06 2.45385e-15 2.98516e+06 -1.10997e-14 7.28193e+07)
(5.61191e+07 -5.89529e+06 -1.28169e-11 4.3704e+06 -4.81534e-08 7.71388e+07)
(6.66656e+07 -6.77539e+06 5.0441e-10 5.9363e+06 -4.96442e-08 8.17098e+07)
(7.62587e+07 -7.58596e+06 6.33763e-09 7.64251e+06 1.24076e-08 8.56904e+07)
(8.59738e+07 -8.3026e+06 -8.15185e-09 9.58167e+06 7.78748e-08 8.99217e+07)
(9.47672e+07 -8.99628e+06 -8.89304e-10 1.15405e+07 3.6039e-08 9.35753e+07)
(1.03722e+08 -9.5909e+06 -2.65758e-09 1.37776e+07 -1.32118e-07 9.74343e+07)
(1.11837e+08 -1.01864e+07 -2.82141e-09 1.59409e+07 5.12237e-08 1.00737e+08)
(1.201e+08 -1.06945e+07 -3.29537e-09 1.84107e+07 5.24189e-08 1.04184e+08)
(1.2763e+08 -1.12093e+07 -7.62792e-09 2.07427e+07 -1.45564e-07 1.07113e+08)
(1.35264e+08 -1.16503e+07 -7.67858e-09 2.33887e+07 2.7207e-09 1.10109e+08)
(1.42259e+08 -1.2099e+07 8.52446e-09 2.58512e+07 9.70118e-08 1.12593e+08)
(1.49322e+08 -1.24712e+07 -1.52751e-08 2.86194e+07 -4.56896e-08 1.15081e+08)
(1.55806e+08 -1.28488e+07 5.3818e-09 3.11704e+07 -5.12927e-08 1.17061e+08)
(1.62312e+08 -1.31406e+07 -1.27415e-08 3.39946e+07 1.49226e-09 1.18934e+08)
(1.683e+08 -1.3409e+07 5.6753e-08 3.65844e+07 8.67428e-08 1.20302e+08)
(1.7422e+08 -1.35921e+07 8.68674e-09 3.93842e+07 4.57592e-08 1.21473e+08)
(1.79681e+08 -1.36937e+07 6.50772e-09 4.19386e+07 -4.56917e-08 1.2208e+08)
(1.84971e+08 -1.36983e+07 2.42891e-08 4.4622e+07 -4.33072e-08 1.22417e+08)
(1.89805e+08 -1.35702e+07 1.86131e-08 4.70309e+07 -1.19371e-10 1.22177e+08)
(1.944e+08 -1.32931e+07 1.34654e-08 4.94871e+07 3.99138e-08 1.21535e+08)
(1.98468e+08 -1.28521e+07 -6.52129e-09 5.16147e+07 3.55829e-08 1.20365e+08)
(2.02252e+08 -1.21999e+07 1.62379e-08 5.37057e+07 3.57915e-08 1.18698e+08)
(2.05443e+08 -1.13435e+07 -4.12969e-08 5.54144e+07 -3.77117e-08 1.16605e+08)
(2.08294e+08 -1.02675e+07 -9.39558e-08 5.69957e+07 -4.75219e-08 1.14037e+08)
(2.10529e+08 -8.92521e+06 1.17953e-07 5.81665e+07 7.69548e-08 1.11119e+08)
(2.12388e+08 -7.42254e+06 3.72123e-10 5.91268e+07 4.7589e-10 1.07891e+08)
(2.13651e+08 -5.61311e+06 1.47747e-08 5.96792e+07 -3.04185e-08 1.04416e+08)
(2.14554e+08 -3.74562e+06 3.74002e-08 5.99919e+07 -2.48673e-09 1.00856e+08)
(2.1495e+08 -1.57437e+06 2.00515e-08 5.98925e+07 1.92653e-08 9.7199e+07)
(2.15049e+08 555429 3.9041e-08 5.95791e+07 3.54951e-08 9.36641e+07)
(2.14753e+08 2.89751e+06 1.26873e-08 5.88785e+07 -4.90722e-09 9.01695e+07)
(2.14202e+08 5.19736e+06 3.11984e-08 5.80012e+07 1.14479e-08 8.69514e+07)
(2.13515e+08 7.47134e+06 1.72976e-08 5.67943e+07 -1.82476e-09 8.38253e+07)
(2.12398e+08 9.90305e+06 3.14842e-08 5.54694e+07 1.1477e-08 8.10117e+07)
(2.07809e+08 1.15291e+07 4.97271e-08 5.38179e+07 5.94254e-08 7.84881e+07)
(-1.89745e+06 -522115 2.58e-08 -6723.66 -1.66373e-08 5.33221e+07)
(1.11212e+07 -2.12886e+06 3.47075e-08 504852 2.96936e-08 5.83322e+07)
(2.34404e+07 -3.98942e+06 -2.23405e-10 1.17592e+06 4.38417e-10 6.34538e+07)
(3.50106e+07 -5.45411e+06 2.78624e-08 2.19953e+06 -2.62421e-08 6.80587e+07)
(4.63722e+07 -6.95319e+06 9.51605e-09 3.4061e+06 1.11781e-08 7.29273e+07)
(5.67618e+07 -8.25955e+06 1.05994e-08 4.82077e+06 -4.19631e-08 7.71775e+07)
(6.72202e+07 -9.47713e+06 -8.15071e-09 6.47095e+06 4.30069e-08 8.17376e+07)
(7.66766e+07 -1.0611e+07 -2.9801e-09 8.19746e+06 5.32819e-08 8.5666e+07)
(8.6306e+07 -1.16127e+07 5.47624e-09 1.02083e+07 -3.69074e-08 8.98784e+07)
(9.49963e+07 -1.25874e+07 -6.56814e-09 1.21897e+07 1.22863e-07 9.3485e+07)
(1.03878e+08 -1.34261e+07 1.12077e-09 1.449e+07 4.18189e-08 9.73225e+07)
(1.11919e+08 -1.42635e+07 -8.29266e-09 1.66814e+07 -8.15965e-08 1.00591e+08)
(1.20123e+08 -1.49788e+07 5.02352e-09 1.9207e+07 -5.66623e-09 1.04006e+08)
(1.2759e+08 -1.56993e+07 3.15147e-09 2.15651e+07 -5.28661e-08 1.06882e+08)
(1.35175e+08 -1.63071e+07 -2.78177e-08 2.42518e+07 -3.29608e-08 1.09824e+08)
(1.42107e+08 -1.69152e+07 -3.33169e-09 2.67279e+07 5.24863e-08 1.12237e+08)
(1.49101e+08 -1.74147e+07 -2.07674e-08 2.95014e+07 8.16021e-09 1.14608e+08)
(1.55518e+08 -1.78856e+07 -2.33011e-08 3.2036e+07 7.13954e-09 1.16457e+08)
(1.6191e+08 -1.82522e+07 -1.27848e-08 3.48076e+07 3.69516e-09 1.18152e+08)
(1.67792e+08 -1.85384e+07 1.10955e-10 3.73172e+07 4.61547e-10 1.1929e+08)
(1.73546e+08 -1.87059e+07 1.55519e-08 3.99868e+07 -1.31927e-09 1.20171e+08)
(1.7881e+08 -1.87394e+07 -2.59764e-08 4.23523e+07 -1.31093e-07 1.20466e+08)
(1.83866e+08 -1.86049e+07 3.60452e-08 4.48031e+07 3.67452e-10 1.20386e+08)
(1.88391e+08 -1.82848e+07 -2.77361e-09 4.688e+07 7.75126e-08 1.19721e+08)
(1.92639e+08 -1.7734e+07 -8.23027e-10 4.89712e+07 3.53171e-08 1.18617e+08)
(1.96317e+08 -1.69437e+07 -2.20575e-08 5.06153e+07 2.77616e-08 1.16936e+08)
(1.99622e+08 -1.58793e+07 0 5.22045e+07 0 1.14875e+08)
(2.02374e+08 -1.45318e+07 5.04775e-08 5.32942e+07 3.91903e-08 1.12284e+08)
(2.04677e+08 -1.29151e+07 -2.8166e-08 5.42897e+07 -4.93821e-08 1.0947e+08)
(2.06458e+08 -1.09981e+07 -8.39496e-08 5.47597e+07 -6.4868e-08 1.06251e+08)
(2.07823e+08 -8.87787e+06 5.42437e-08 5.51437e+07 9.54063e-09 1.03021e+08)
(2.08708e+08 -6.51742e+06 -5.8707e-08 5.50259e+07 -4.61678e-08 9.95713e+07)
(2.0926e+08 -3.99915e+06 5.58245e-08 5.48682e+07 4.88625e-08 9.62869e+07)
(2.09385e+08 -1.32087e+06 8.29576e-08 5.42337e+07 5.8366e-08 9.29436e+07)
(2.09348e+08 1.3785e+06 6.09356e-08 5.37022e+07 2.98234e-08 8.99053e+07)
(2.08889e+08 4.163e+06 -2.377e-08 5.26711e+07 -1.66705e-08 8.68768e+07)
(2.08502e+08 6.89014e+06 -4.2702e-08 5.192e+07 -3.11139e-08 8.42006e+07)
(2.07595e+08 9.56072e+06 -3.19258e-10 5.06508e+07 -2.50507e-10 8.14693e+07)
(2.07169e+08 1.22671e+07 1.60018e-08 4.97357e+07 1.40525e-08 7.91638e+07)
(2.05656e+08 1.46175e+07 3.09533e-08 4.84215e+07 1.51296e-08 7.65563e+07)
(-99203.6 -827797 -1.9978e-08 78024.4 -9.55393e-09 5.36522e+07)
(1.26234e+07 -2.88474e+06 4.60056e-08 696536 -1.52829e-08 5.85391e+07)
(2.48878e+07 -5.20902e+06 -5.37738e-08 1.53863e+06 1.38153e-09 6.36933e+07)
(3.6175e+07 -7.08643e+06 -2.14158e-08 2.62784e+06 3.98715e-08 6.81869e+07)
(4.74465e+07 -8.96554e+06 2.67245e-08 3.97909e+06 -2.53602e-08 7.30568e+07)
(5.76199e+07 -1.06369e+07 2.08442e-08 5.4325e+06 -9.73451e-08 7.72178e+07)
(6.79623e+07 -1.21812e+07 1.0347e-08 7.20324e+06 2.49911e-08 8.17596e+07)
(7.72497e+07 -1.3636e+07 -1.80733e-08 8.95802e+06 9.99091e-09 8.56181e+07)
(8.67684e+07 -1.49217e+07 7.29501e-09 1.10731e+07 -3.49951e-08 8.98061e+07)
(9.53259e+07 -1.61776e+07 4.12959e-09 1.30822e+07 -5.60351e-08 9.33532e+07)
(1.04113e+08 -1.72606e+07 8.90335e-09 1.54739e+07 1.13217e-10 9.71534e+07)
(1.12046e+08 -1.83404e+07 3.9671e-09 1.76903e+07 3.91517e-08 1.00355e+08)
(1.20171e+08 -1.92562e+07 -9.43203e-09 2.02894e+07 -8.84362e-08 1.03719e+08)
(1.27538e+08 -2.01712e+07 3.8025e-09 2.26565e+07 4.68799e-08 1.065e+08)
(1.3504e+08 -2.09304e+07 3.17474e-09 2.53819e+07 1.02574e-07 1.09335e+08)
(1.41868e+08 -2.16696e+07 -1.14013e-08 2.78322e+07 5.95011e-08 1.11594e+08)
(1.48751e+08 -2.22551e+07 2.15945e-08 3.05873e+07 -9.38695e-09 1.13788e+08)
(1.55029e+08 -2.27797e+07 -2.15827e-08 3.30299e+07 -9.27932e-08 1.15378e+08)
(1.61265e+08 -2.31363e+07 1.23164e-09 3.57033e+07 -9.84167e-08 1.16775e+08)
(1.66928e+08 -2.33818e+07 -4.46631e-08 3.80169e+07 5.99037e-09 1.17545e+08)
(1.72456e+08 -2.34124e+07 4.85445e-08 4.0473e+07 -3.18588e-09 1.17992e+08)
(1.774e+08 -2.32827e+07 -2.18973e-08 4.25101e+07 -8.37456e-08 1.17781e+08)
(1.82111e+08 -2.28656e+07 -3.17468e-08 4.4588e+07 7.20953e-08 1.17179e+08)
(1.8621e+08 -2.22372e+07 7.52131e-08 4.61882e+07 1.15011e-07 1.15909e+08)
(1.89996e+08 -2.12615e+07 6.04142e-09 4.77332e+07 3.08591e-08 1.14287e+08)
(1.93137e+08 -2.00279e+07 4.67901e-08 4.87571e+07 1.52972e-08 1.12051e+08)
(1.95927e+08 -1.84264e+07 -1.6067e-08 4.96655e+07 -4.45535e-08 1.09593e+08)
(1.98093e+08 -1.65613e+07 -6.93434e-08 5.00484e+07 -5.92261e-08 1.06665e+08)
(1.99906e+08 -1.43716e+07 1.15376e-07 5.03192e+07 6.54798e-08 1.03732e+08)
(2.01175e+08 -1.19296e+07 -2.70953e-08 5.00934e+07 -1.40056e-08 1.0053e+08)
(2.02222e+08 -9.31655e+06 -3.70842e-08 4.98328e+07 -2.37901e-08 9.75276e+07)
(2.02692e+08 -6.48096e+06 4.36533e-08 4.91608e+07 2.76576e-08 9.44362e+07)
(2.02997e+08 -3.58321e+06 -1.52561e-07 4.85441e+07 -9.00586e-08 9.16012e+07)
(2.03015e+08 -652204 -6.65157e-08 4.76321e+07 -3.92433e-08 8.88677e+07)
(2.0292e+08 2.33411e+06 6.07702e-08 4.68509e+07 3.6467e-08 8.63538e+07)
(2.02543e+08 5.17875e+06 2.80498e-08 4.58676e+07 1.7539e-08 8.39272e+07)
(2.02245e+08 8.07186e+06 3.04622e-08 4.50862e+07 1.83779e-08 8.16678e+07)
(2.0155e+08 1.07806e+07 -5.24645e-08 4.41181e+07 -3.397e-08 7.94323e+07)
(2.01164e+08 1.34419e+07 1.06556e-08 4.33901e+07 2.93767e-09 7.73179e+07)
(2.002e+08 1.61066e+07 1.68516e-08 4.24992e+07 1.44126e-08 7.5098e+07)
(2.14361e+06 -1.24014e+06 -6.04997e-08 203404 7.51629e-09 5.4077e+07)
(1.44469e+07 -3.74545e+06 -6.88008e-10 935271 -8.45718e-08 5.87774e+07)
(2.66407e+07 -6.4983e+06 4.61387e-08 1.9994e+06 -1.67951e-08 6.39605e+07)
(3.7599e+07 -8.77582e+06 -6.47809e-08 3.16455e+06 5.86177e-08 6.83155e+07)
(4.87496e+07 -1.10118e+07 1.24122e-08 4.70143e+06 -6.05579e-08 7.31783e+07)
(5.86839e+07 -1.30349e+07 4.30315e-10 6.20982e+06 -1.00299e-09 7.72413e+07)
(6.88827e+07 -1.4895e+07 2.48698e-08 8.13317e+06 -1.11934e-08 8.17543e+07)
(7.798e+07 -1.66641e+07 6.86148e-09 9.93496e+06 2.7848e-08 8.55296e+07)
(8.73607e+07 -1.82301e+07 -9.66066e-09 1.21765e+07 3.28975e-08 8.96757e+07)
(9.57602e+07 -1.97622e+07 1.6288e-08 1.4228e+07 -1.39987e-07 9.31447e+07)
(1.04421e+08 -2.10826e+07 -7.11615e-09 1.67178e+07 6.9392e-08 9.68823e+07)
(1.12215e+08 -2.23904e+07 2.65219e-09 1.89613e+07 1.78314e-07 9.99787e+07)
(1.20215e+08 -2.34881e+07 2.09865e-09 2.16163e+07 4.85453e-08 1.03224e+08)
(1.27445e+08 -2.45654e+07 -1.1127e-08 2.39741e+07 -3.773e-08 1.05842e+08)
(1.34804e+08 -2.5439e+07 2.33137e-08 2.66944e+07 3.16471e-08 1.08484e+08)
(1.41473e+08 -2.62574e+07 -1.78548e-08 2.90698e+07 -9.33128e-08 1.10485e+08)
(1.48172e+08 -2.68665e+07 -6.18586e-10 3.17333e+07 -1.05362e-07 1.12356e+08)
(1.54233e+08 -2.73691e+07 2.53192e-08 3.40046e+07 -9.40014e-09 1.1355e+08)
(1.60217e+08 -2.76336e+07 2.17425e-08 3.64646e+07 1.38384e-07 1.1449e+08)
(1.65574e+08 -2.77226e+07 -3.47712e-08 3.84781e+07 -3.97789e-08 1.14706e+08)
(1.7075e+08 -2.75268e+07 -9.2611e-08 4.0558e+07 -1.65914e-07 1.14558e+08)
(1.75274e+08 -2.70738e+07 1.05697e-07 4.21396e+07 1.579e-07 1.13708e+08)
(1.79523e+08 -2.62869e+07 -9.68356e-09 4.36525e+07 2.96028e-08 1.12451e+08)
(1.83101e+08 -2.51819e+07 -1.17296e-08 4.46467e+07 -2.87447e-08 1.10605e+08)
(1.8633e+08 -2.37139e+07 -3.64386e-08 4.54558e+07 -3.31368e-08 1.08428e+08)
(1.88918e+08 -2.19127e+07 -5.49085e-08 4.57801e+07 -5.13461e-08 1.05872e+08)
(1.91123e+08 -1.97837e+07 1.5961e-07 4.58727e+07 9.82639e-08 1.03134e+08)
(1.92821e+08 -1.73682e+07 -2.64729e-08 4.55745e+07 -1.53027e-08 1.00327e+08)
(1.94083e+08 -1.47054e+07 -9.91061e-08 4.50863e+07 -5.96361e-08 9.74778e+07)
(1.95073e+08 -1.18507e+07 4.30534e-08 4.43174e+07 2.37032e-08 9.48051e+07)
(1.9571e+08 -8.93356e+06 -1.00245e-07 4.35437e+07 -6.12396e-08 9.21522e+07)
(1.96063e+08 -5.92474e+06 5.28138e-08 4.25102e+07 2.26494e-08 8.95505e+07)
(1.96415e+08 -2.9303e+06 1.08162e-07 4.17111e+07 6.20124e-08 8.74642e+07)
(1.96339e+08 76152.2 -9.54449e-08 4.06275e+07 -6.10172e-08 8.52779e+07)
(1.96467e+08 2.96234e+06 -5.9164e-08 3.99245e+07 -4.12334e-08 8.33454e+07)
(1.96156e+08 5.8008e+06 -3.22232e-08 3.89719e+07 -1.64507e-08 8.13733e+07)
(1.96026e+08 8.5534e+06 -2.85241e-08 3.83578e+07 -1.80249e-08 7.95185e+07)
(1.95571e+08 1.1222e+07 -2.17428e-10 3.75783e+07 -1.46342e-10 7.75735e+07)
(1.95175e+08 1.38075e+07 -2.98331e-08 3.70443e+07 -2.05412e-08 7.57156e+07)
(1.94687e+08 1.63338e+07 5.18379e-08 3.63891e+07 3.93597e-08 7.37473e+07)
(4.82608e+06 -1.77196e+06 2.87763e-08 379799 -3.54654e-08 5.46065e+07)
(1.65879e+07 -4.7302e+06 -7.80977e-08 1.22924e+06 -1.99893e-08 5.90618e+07)
(2.86787e+07 -7.87926e+06 -5.94455e-08 2.5675e+06 1.0809e-07 6.42574e+07)
(3.92707e+07 -1.05408e+07 5.73882e-08 3.81982e+06 9.12955e-09 6.84438e+07)
(5.02704e+07 -1.31158e+07 -9.73225e-09 5.58856e+06 -2.36767e-08 7.32829e+07)
(5.99478e+07 -1.54719e+07 -2.37088e-08 7.16976e+06 4.49189e-08 7.7228e+07)
(6.9986e+07 -1.76384e+07 -4.84706e-08 9.28433e+06 5.02927e-08 8.17006e+07)
(7.88727e+07 -1.97049e+07 4.21245e-08 1.11457e+07 -1.56982e-08 8.53713e+07)
(8.80945e+07 -2.15427e+07 3.22254e-08 1.35373e+07 -1.56638e-07 8.94532e+07)
(9.63011e+07 -2.33302e+07 -1.52489e-08 1.56246e+07 9.39803e-08 9.27927e+07)
(1.04802e+08 -2.48698e+07 -1.42094e-10 1.82137e+07 1.55958e-09 9.6414e+07)
(1.12406e+08 -2.63733e+07 -2.88456e-09 2.04525e+07 -3.42728e-08 9.9324e+07)
(1.20233e+08 -2.76171e+07 1.126e-08 2.31383e+07 -2.43173e-08 1.02372e+08)
(1.27264e+08 -2.88127e+07 2.19856e-09 2.54295e+07 -5.7777e-08 1.04718e+08)
(1.34421e+08 -2.97396e+07 2.5614e-08 2.80906e+07 2.73865e-08 1.07034e+08)
(1.40849e+08 -3.05734e+07 3.20939e-08 3.03048e+07 3.01778e-08 1.08617e+08)
(1.47293e+08 -3.11236e+07 -2.92619e-08 3.27901e+07 -8.89148e-08 1.10004e+08)
(1.5304e+08 -3.15075e+07 5.02492e-08 3.47644e+07 8.25822e-08 1.10633e+08)
(1.58673e+08 -3.15714e+07 -7.89134e-09 3.68848e+07 4.68529e-08 1.10929e+08)
(1.63615e+08 -3.13783e+07 -2.22312e-09 3.84207e+07 -8.00586e-08 1.1044e+08)
(1.68315e+08 -3.08186e+07 -2.99647e-08 3.99731e+07 -3.74785e-08 1.09603e+08)
(1.72312e+08 -2.99167e+07 -5.77966e-15 4.08734e+07 -5.82504e-15 1.08037e+08)
(1.75988e+08 -2.86297e+07 8.22411e-08 4.17022e+07 5.03316e-08 1.06215e+08)
(1.7897e+08 -2.69592e+07 4.254e-08 4.18595e+07 3.18157e-08 1.03872e+08)
(1.81612e+08 -2.49424e+07 2.0661e-08 4.19301e+07 1.59368e-08 1.01454e+08)
(1.83644e+08 -2.25889e+07 -1.95127e-07 4.14042e+07 -1.15313e-07 9.87926e+07)
(1.85387e+08 -1.99864e+07 -4.62867e-10 4.0856e+07 -2.46122e-10 9.62842e+07)
(1.86629e+08 -1.7178e+07 1.77307e-07 3.98667e+07 9.42747e-08 9.3763e+07)
(1.87671e+08 -1.4208e+07 9.08359e-10 3.89578e+07 4.37635e-10 9.14978e+07)
(1.88442e+08 -1.12907e+07 4.40771e-10 3.78237e+07 2.08744e-10 8.93189e+07)
(1.89284e+08 -8.21138e+06 -4.22303e-08 3.68487e+07 -3.0206e-08 8.71843e+07)
(1.89485e+08 -5.34342e+06 -7.27296e-08 3.57571e+07 -4.37305e-08 8.55691e+07)
(1.89819e+08 -2.34591e+06 2.86573e-08 3.49125e+07 2.21981e-08 8.40075e+07)
(1.89981e+08 428444 9.35547e-09 3.39446e+07 -2.06735e-09 8.22768e+07)
(1.90183e+08 3.19141e+06 -6.55697e-09 3.33338e+07 2.54707e-09 8.0759e+07)
(1.90052e+08 5.91302e+06 -3.3655e-08 3.24782e+07 -1.96934e-08 7.9058e+07)
(1.90023e+08 8.4978e+06 1.68284e-09 3.20403e+07 -3.50265e-09 7.74983e+07)
(1.89684e+08 1.11134e+07 2.40743e-10 3.12991e+07 1.55277e-10 7.57548e+07)
(1.89486e+08 1.35704e+07 -1.13568e-07 3.09905e+07 -8.46873e-08 7.41429e+07)
(1.88958e+08 1.60274e+07 -3.62503e-08 3.03451e+07 -2.59715e-08 7.23392e+07)
(7.91191e+06 -2.44109e+06 1.99827e-08 608416 1.55978e-08 5.52396e+07)
(1.90499e+07 -5.85016e+06 -1.03175e-08 1.59749e+06 1.06273e-07 5.94235e+07)
(3.09651e+07 -9.37774e+06 -1.44418e-07 3.23872e+06 9.42453e-08 6.45924e+07)
(4.11752e+07 -1.24008e+07 -4.58243e-10 4.60706e+06 5.16956e-10 6.85941e+07)
(5.19761e+07 -1.5305e+07 1.09908e-07 6.63523e+06 -1.05325e-07 7.33715e+07)
(6.13924e+07 -1.79669e+07 1.31157e-08 8.32103e+06 -9.77754e-08 7.71701e+07)
(7.12414e+07 -2.04213e+07 -7.55043e-08 1.06459e+07 1.12706e-07 8.15581e+07)
(7.99056e+07 -2.27552e+07 -3.23625e-08 1.25842e+07 -4.24438e-08 8.50773e+07)
(8.89357e+07 -2.4833e+07 4.57027e-08 1.51234e+07 -9.92604e-08 8.90278e+07)
(9.6918e+07 -2.68397e+07 2.03113e-08 1.72371e+07 -9.44428e-08 9.21655e+07)
(1.05212e+08 -2.85566e+07 -6.71043e-09 1.98952e+07 5.87276e-08 9.55737e+07)
(1.12574e+08 -3.02077e+07 5.2484e-10 2.20901e+07 7.89912e-08 9.81942e+07)
(1.20166e+08 -3.15469e+07 -2.11043e-09 2.4748e+07 -4.64154e-08 1.00907e+08)
(1.26927e+08 -3.2793e+07 -1.41401e-08 2.69047e+07 -3.42754e-08 1.0282e+08)
(1.33795e+08 -3.37029e+07 -1.94223e-08 2.941e+07 1.90069e-08 1.04628e+08)
(1.39904e+08 -3.44597e+07 1.1366e-08 3.13642e+07 -7.74148e-09 1.05608e+08)
(1.45972e+08 -3.48437e+07 -1.97867e-08 3.35218e+07 -4.27059e-08 1.06319e+08)
(1.51306e+08 -3.49852e+07 3.38362e-08 3.50573e+07 8.32605e-08 1.06202e+08)
(1.56454e+08 -3.46999e+07 6.36612e-08 3.66365e+07 3.99249e-08 1.05706e+08)
(1.60863e+08 -3.40928e+07 -1.23525e-07 3.75242e+07 -1.13418e-07 1.04484e+08)
(1.64977e+08 -3.30102e+07 1.01779e-09 3.83308e+07 -2.04134e-08 1.02934e+08)
(1.68369e+08 -3.15847e+07 6.65572e-08 3.84238e+07 5.35927e-08 1.00856e+08)
(1.71429e+08 -2.9698e+07 4.85858e-08 3.84126e+07 2.98408e-08 9.86689e+07)
(1.73841e+08 -2.75212e+07 7.81477e-08 3.77455e+07 3.97445e-08 9.62292e+07)
(1.75982e+08 -2.49965e+07 1.07731e-07 3.70829e+07 6.37071e-08 9.39392e+07)
(1.77597e+08 -2.23009e+07 -1.65366e-07 3.58946e+07 -7.50879e-08 9.16395e+07)
(1.79067e+08 -1.94193e+07 -1.39166e-07 3.4895e+07 -8.95234e-08 8.96777e+07)
(1.80108e+08 -1.64961e+07 5.67543e-08 3.35169e+07 4.56306e-08 8.77372e+07)
(1.81207e+08 -1.3566e+07 -2.99233e-08 3.25019e+07 -2.40043e-08 8.61911e+07)
(1.8187e+08 -1.06664e+07 1.80893e-07 3.12288e+07 9.07752e-08 8.45933e+07)
(1.82662e+08 -7.80092e+06 4.36274e-10 3.03284e+07 1.99566e-10 8.33781e+07)
(1.83197e+08 -5.0062e+06 -1.66579e-08 2.93156e+07 1.99928e-09 8.21504e+07)
(1.83595e+08 -2.26514e+06 5.69449e-08 2.85421e+07 1.90332e-08 8.08085e+07)
(1.83938e+08 383587 -1.08389e-08 2.77648e+07 3.19346e-09 7.94892e+07)
(1.84114e+08 3.02152e+06 -3.81008e-08 2.71361e+07 -2.08276e-08 7.81664e+07)
(1.84147e+08 5.6099e+06 -2.87397e-08 2.6477e+07 -2.3884e-08 7.67339e+07)
(1.84172e+08 8.1247e+06 -3.29818e-08 2.6011e+07 -1.95713e-08 7.53653e+07)
(1.83954e+08 1.06055e+07 8.99886e-08 2.54347e+07 6.18531e-08 7.3882e+07)
(1.8384e+08 1.30147e+07 -2.8318e-08 2.51169e+07 -2.37083e-08 7.24651e+07)
(1.83468e+08 1.53576e+07 -2.40609e-08 2.46172e+07 -1.12675e-08 7.09054e+07)
(1.13782e+07 -3.2645e+06 -1.48555e-09 899813 6.40947e-10 5.59804e+07)
(2.18593e+07 -7.11614e+06 9.04111e-08 2.05965e+06 3.18588e-08 5.98861e+07)
(3.35076e+07 -1.10112e+07 -1.62528e-08 4.02494e+06 -3.53157e-08 6.49784e+07)
(4.3308e+07 -1.43767e+07 -9.70672e-08 5.53887e+06 -9.083e-08 6.87639e+07)
(5.38646e+07 -1.76019e+07 9.81854e-08 7.84923e+06 -2.73144e-08 7.34274e+07)
(6.29836e+07 -2.05399e+07 4.17673e-08 9.66079e+06 -1.63752e-08 7.7019e+07)
(7.26267e+07 -2.32531e+07 1.71448e-08 1.2208e+07 8.47374e-08 8.12536e+07)
(8.10291e+07 -2.58081e+07 -3.28607e-08 1.42229e+07 -3.24295e-08 8.45303e+07)
(8.98491e+07 -2.80786e+07 -1.79938e-08 1.6897e+07 4.77462e-08 8.82505e+07)
(9.75631e+07 -3.02453e+07 2.41971e-08 1.90069e+07 -7.19482e-08 9.10652e+07)
(1.05608e+08 -3.20822e+07 -1.40896e-09 2.16924e+07 1.1791e-08 9.41202e+07)
(1.12674e+08 -3.38122e+07 -6.97693e-09 2.37783e+07 6.19752e-08 9.62824e+07)
(1.19962e+08 -3.51765e+07 -7.46605e-09 2.63374e+07 1.19023e-07 9.84675e+07)
(1.26371e+08 -3.63838e+07 -1.10633e-10 2.82467e+07 5.61472e-08 9.97365e+07)
(1.3286e+08 -3.71831e+07 -3.64991e-08 3.04863e+07 -2.39687e-08 1.0083e+08)
(1.38524e+08 -3.77368e+07 -3.38527e-08 3.20028e+07 -3.50874e-08 1.00993e+08)
(1.44112e+08 -3.78254e+07 -1.50927e-08 3.36714e+07 2.52821e-09 1.00869e+08)
(1.48879e+08 -3.75715e+07 -3.46523e-08 3.45358e+07 -2.68205e-09 9.98794e+07)
(1.53452e+08 -3.68048e+07 7.81029e-08 3.53931e+07 4.41945e-08 9.86307e+07)
(1.57204e+08 -3.56515e+07 -8.99092e-08 3.54219e+07 -6.28803e-08 9.6752e+07)
(1.60719e+08 -3.39991e+07 -9.70604e-08 3.53727e+07 -5.46043e-08 9.47958e+07)
(1.63488e+08 -3.20178e+07 8.48146e-08 3.45978e+07 3.90308e-08 9.25549e+07)
(1.66047e+08 -2.96422e+07 8.39111e-08 3.3793e+07 4.4333e-08 9.04963e+07)
(1.6802e+08 -2.7089e+07 -8.62267e-08 3.24833e+07 -4.50925e-08 8.84342e+07)
(1.69869e+08 -2.43048e+07 8.23659e-08 3.12784e+07 6.73146e-08 8.67342e+07)
(1.71298e+08 -2.15082e+07 1.19264e-07 2.9805e+07 4.57494e-08 8.51402e+07)
(1.72681e+08 -1.86268e+07 -1.44313e-07 2.85698e+07 -6.91736e-08 8.38694e+07)
(1.73798e+08 -1.5845e+07 5.58201e-08 2.72263e+07 2.21517e-08 8.26584e+07)
(1.74863e+08 -1.30575e+07 5.55082e-08 2.61853e+07 2.28508e-08 8.1672e+07)
(1.7573e+08 -1.03555e+07 -2.22935e-08 2.50574e+07 3.01022e-09 8.0669e+07)
(1.76625e+08 -7.73218e+06 5.78802e-08 2.42573e+07 5.02889e-08 7.97389e+07)
(1.77109e+08 -5.07915e+06 -2.90761e-08 2.33165e+07 -2.51965e-08 7.87016e+07)
(1.77639e+08 -2.49323e+06 8.70734e-08 2.26818e+07 7.56766e-08 7.76676e+07)
(1.77969e+08 30075.7 8.60935e-08 2.19088e+07 7.52471e-08 7.65504e+07)
(1.78266e+08 2.57556e+06 3.95264e-08 2.14025e+07 2.1109e-08 7.54725e+07)
(1.7833e+08 5.01239e+06 -8.22246e-09 2.07428e+07 4.70053e-09 7.42384e+07)
(1.78495e+08 7.45586e+06 2.25351e-08 2.03895e+07 3.04552e-08 7.31012e+07)
(1.78333e+08 9.80785e+06 4.12364e-09 1.98176e+07 -5.70876e-09 7.18246e+07)
(1.78365e+08 1.21373e+07 2.5971e-08 1.9604e+07 3.13883e-08 7.06687e+07)
(1.78062e+08 1.43713e+07 1.46948e-08 1.91229e+07 1.81287e-08 6.93035e+07)
(1.51508e+07 -4.26977e+06 -1.25773e-07 1.25475e+06 5.53492e-08 5.68096e+07)
(2.50239e+07 -8.53386e+06 -1.95714e-08 2.64948e+06 -3.96435e-08 6.04763e+07)
(3.62957e+07 -1.27904e+07 1.4133e-07 4.92859e+06 -1.77561e-07 6.54318e+07)
(4.56694e+07 -1.64755e+07 -1.56157e-07 6.63616e+06 1.01536e-07 6.89729e+07)
(5.59075e+07 -2.00112e+07 -8.66034e-08 9.21249e+06 9.58006e-08 7.34335e+07)
(6.46895e+07 -2.31892e+07 1.66379e-08 1.1169e+07 6.87934e-08 7.67311e+07)
(7.40681e+07 -2.61216e+07 3.76365e-08 1.39079e+07 -1.50048e-08 8.06782e+07)
(8.21784e+07 -2.88373e+07 5.68163e-08 1.59889e+07 -6.61493e-08 8.35774e+07)
(9.07371e+07 -3.12328e+07 -2.25211e-08 1.87499e+07 -6.94596e-09 8.68844e+07)
(9.8156e+07 -3.3485e+07 -1.42256e-08 2.08222e+07 4.67008e-08 8.91899e+07)
(1.05896e+08 -3.53543e+07 -1.54906e-08 2.34633e+07 9.23085e-08 9.16579e+07)
(1.12617e+08 -3.70779e+07 -1.2882e-08 2.53794e+07 8.12217e-08 9.31289e+07)
(1.19518e+08 -3.83572e+07 -6.21755e-09 2.77202e+07 -4.17342e-08 9.4526e+07)
(1.25491e+08 -3.94134e+07 -2.91999e-09 2.92691e+07 -5.10088e-08 9.49233e+07)
(1.31475e+08 -3.99536e+07 1.33787e-08 3.10491e+07 -6.14525e-09 9.50778e+07)
(1.36581e+08 -4.01591e+07 -4.48042e-08 3.1944e+07 -3.37445e-08 9.43053e+07)
(1.41543e+08 -3.97862e+07 -1.82565e-08 3.28759e+07 -2.65868e-09 9.32889e+07)
(1.45653e+08 -3.90096e+07 -6.43289e-08 3.28743e+07 -3.74353e-08 9.15707e+07)
(1.49549e+08 -3.76676e+07 -5.12841e-08 3.28164e+07 -2.83939e-08 8.98169e+07)
(1.52671e+08 -3.59547e+07 5.57e-08 3.19103e+07 2.57068e-08 8.77205e+07)
(1.55601e+08 -3.3812e+07 -5.08743e-08 3.1016e+07 -3.65995e-08 8.58777e+07)
(1.57919e+08 -3.14324e+07 -3.58545e-08 2.9499e+07 -1.68158e-09 8.40231e+07)
(1.60132e+08 -2.88281e+07 6.36831e-08 2.81679e+07 2.17678e-08 8.25939e+07)
(1.6191e+08 -2.61586e+07 2.86891e-08 2.64801e+07 2.45275e-08 8.12785e+07)
(1.63669e+08 -2.34326e+07 -1.84866e-14 2.51324e+07 -6.48285e-15 8.03561e+07)
(1.65106e+08 -2.07538e+07 1.19828e-07 2.36089e+07 7.31413e-08 7.94622e+07)
(1.6657e+08 -1.81037e+07 -3.0383e-08 2.24833e+07 4.23803e-09 7.88218e+07)
(1.67731e+08 -1.55154e+07 -5.61921e-08 2.12363e+07 -2.15705e-08 7.81079e+07)
(1.68927e+08 -1.29574e+07 -2.64285e-08 2.03517e+07 3.63667e-09 7.75314e+07)
(1.69808e+08 -1.045e+07 2.20877e-08 1.93373e+07 -4.38024e-09 7.67805e+07)