/*--------------------------------*- C++ -*----------------------------------*\
| =========                 |                                                 |
| \\      /  F ield         | OpenFOAM: The Open Source CFD Toolbox           |
|  \\    /   O peration     | Version:  v2012                                 |
|   \\  /    A nd           | Website:  www.openfoam.com                      |
|    \\/     M anipulation  |                                                 |
\*---------------------------------------------------------------------------*/
FoamFile
{
    version     2.0;
    format      ascii;
    class       volScalarField;
    location    "15";
    object      sigmaEq;
}
// * * * * * * * * * * * * * * * * * * * * * * * * * * * * * * * * * * * * * //

dimensions      [1 -1 -2 0 0 0 0];


internalField   nonuniform List<scalar> 
16000
(
5.53258e+07
5.4003e+07
5.50944e+07
5.74308e+07
6.11655e+07
6.51356e+07
6.98328e+07
7.42219e+07
7.89821e+07
8.32604e+07
8.76961e+07
9.16605e+07
9.56415e+07
9.9217e+07
1.02716e+08
1.05895e+08
1.08937e+08
1.11729e+08
1.1436e+08
1.16803e+08
1.19068e+08
1.21206e+08
1.23174e+08
1.25056e+08
1.26786e+08
1.28485e+08
1.30052e+08
1.31621e+08
1.33127e+08
1.3459e+08
1.36121e+08
1.37525e+08
1.39078e+08
1.40495e+08
1.41982e+08
1.43454e+08
1.44899e+08
1.46205e+08
1.45344e+08
1.40309e+08
5.51486e+07
5.39029e+07
5.50916e+07
5.7493e+07
6.12999e+07
6.53125e+07
7.00476e+07
7.44644e+07
7.92409e+07
8.35413e+07
8.79827e+07
9.19584e+07
9.59411e+07
9.95281e+07
1.03023e+08
1.06214e+08
1.09249e+08
1.12056e+08
1.1468e+08
1.1713e+08
1.19396e+08
1.21532e+08
1.2349e+08
1.25369e+08
1.27079e+08
1.28756e+08
1.30302e+08
1.31818e+08
1.33301e+08
1.34703e+08
1.36191e+08
1.37537e+08
1.39042e+08
1.40383e+08
1.4186e+08
1.43248e+08
1.44623e+08
1.46076e+08
1.46147e+08
1.41906e+08
5.48033e+07
5.37114e+07
5.50886e+07
5.76187e+07
6.15623e+07
6.5664e+07
7.04678e+07
7.49463e+07
7.9748e+07
8.40934e+07
8.85434e+07
9.25535e+07
9.65328e+07
1.00149e+08
1.03643e+08
1.06848e+08
1.09887e+08
1.12701e+08
1.15321e+08
1.17771e+08
1.20021e+08
1.22145e+08
1.24074e+08
1.25916e+08
1.27593e+08
1.29197e+08
1.30698e+08
1.32131e+08
1.33533e+08
1.34868e+08
1.3623e+08
1.37532e+08
1.38872e+08
1.40204e+08
1.41543e+08
1.42911e+08
1.44208e+08
1.45682e+08
1.4685e+08
1.44643e+08
5.43064e+07
5.34452e+07
5.50945e+07
5.78129e+07
6.19457e+07
6.61796e+07
7.10816e+07
7.56543e+07
8.04987e+07
8.49082e+07
8.93753e+07
9.34346e+07
9.74185e+07
1.01064e+08
1.04558e+08
1.0778e+08
1.10808e+08
1.13622e+08
1.16221e+08
1.18654e+08
1.20863e+08
1.2295e+08
1.24816e+08
1.26595e+08
1.28174e+08
1.29714e+08
1.31062e+08
1.32454e+08
1.33653e+08
1.34965e+08
1.36125e+08
1.3742e+08
1.38585e+08
1.39891e+08
1.41093e+08
1.42416e+08
1.43693e+08
1.44978e+08
1.46525e+08
1.47416e+08
5.36821e+07
5.31329e+07
5.51229e+07
5.80924e+07
6.24473e+07
6.68565e+07
7.18713e+07
7.65709e+07
8.14673e+07
8.59699e+07
9.04554e+07
9.45819e+07
9.85707e+07
1.02259e+08
1.05741e+08
1.08982e+08
1.1198e+08
1.14784e+08
1.17323e+08
1.19712e+08
1.21828e+08
1.23831e+08
1.25569e+08
1.27233e+08
1.2867e+08
1.30064e+08
1.3129e+08
1.32528e+08
1.33638e+08
1.3482e+08
1.35976e+08
1.37101e+08
1.38194e+08
1.39421e+08
1.40603e+08
1.41821e+08
1.43121e+08
1.44295e+08
1.45715e+08
1.46866e+08
5.29738e+07
5.28093e+07
5.51929e+07
5.84636e+07
6.3062e+07
6.76861e+07
7.28266e+07
7.76782e+07
8.26383e+07
8.7251e+07
9.17659e+07
9.59632e+07
9.99505e+07
1.03673e+08
1.07128e+08
1.10363e+08
1.13295e+08
1.16042e+08
1.18481e+08
1.20754e+08
1.22739e+08
1.2457e+08
1.26172e+08
1.27633e+08
1.28946e+08
1.30148e+08
1.31276e+08
1.32371e+08
1.33369e+08
1.34486e+08
1.355e+08
1.36651e+08
1.37747e+08
1.38878e+08
1.40072e+08
1.41212e+08
1.42419e+08
1.43598e+08
1.44768e+08
1.46084e+08
5.22362e+07
5.25298e+07
5.53434e+07
5.89523e+07
6.37994e+07
6.86606e+07
7.39348e+07
7.89568e+07
8.39893e+07
8.87178e+07
9.32585e+07
9.75209e+07
1.01491e+08
1.05229e+08
1.08616e+08
1.11803e+08
1.1462e+08
1.1726e+08
1.1953e+08
1.21646e+08
1.23422e+08
1.25077e+08
1.26453e+08
1.2776e+08
1.28865e+08
1.29974e+08
1.30953e+08
1.31982e+08
1.32922e+08
1.34029e+08
1.35276e+08
1.36168e+08
1.37178e+08
1.38355e+08
1.39438e+08
1.40586e+08
1.41633e+08
1.42799e+08
1.43861e+08
1.45022e+08
5.15441e+07
5.23632e+07
5.56393e+07
5.96072e+07
6.47022e+07
6.97946e+07
7.51963e+07
8.03771e+07
8.54699e+07
9.02998e+07
9.48469e+07
9.91491e+07
1.0307e+08
1.06773e+08
1.10045e+08
1.13124e+08
1.15761e+08
1.18223e+08
1.20263e+08
1.22165e+08
1.23693e+08
1.25154e+08
1.26313e+08
1.27496e+08
1.28463e+08
1.29537e+08
1.3046e+08
1.31518e+08
1.3253e+08
1.33577e+08
1.34614e+08
1.35706e+08
1.36691e+08
1.37797e+08
1.38791e+08
1.39843e+08
1.40865e+08
1.41891e+08
1.42926e+08
1.43982e+08
5.09753e+07
5.23727e+07
5.61357e+07
6.04651e+07
6.58011e+07
7.10942e+07
7.66042e+07
8.18987e+07
8.7024e+07
9.19086e+07
9.6424e+07
1.00716e+08
1.04534e+08
1.08146e+08
1.11243e+08
1.14148e+08
1.16549e+08
1.18775e+08
1.20561e+08
1.22215e+08
1.2354e+08
1.24808e+08
1.25869e+08
1.2696e+08
1.27942e+08
1.28998e+08
1.29991e+08
1.31089e+08
1.32083e+08
1.33182e+08
1.34238e+08
1.352e+08
1.36137e+08
1.37161e+08
1.38087e+08
1.3907e+08
1.4003e+08
1.40985e+08
1.41942e+08
1.42911e+08
5.06176e+07
5.26232e+07
5.6899e+07
6.15677e+07
6.71364e+07
7.25751e+07
7.81513e+07
8.34888e+07
8.85784e+07
9.34412e+07
9.78467e+07
1.02051e+08
1.05693e+08
1.09142e+08
1.11999e+08
1.14677e+08
1.168e+08
1.18785e+08
1.20326e+08
1.21805e+08
1.22988e+08
1.24204e+08
1.2525e+08
1.26395e+08
1.27432e+08
1.28569e+08
1.29617e+08
1.30713e+08
1.31728e+08
1.3276e+08
1.33704e+08
1.34684e+08
1.35551e+08
1.36532e+08
1.37359e+08
1.38316e+08
1.39149e+08
1.40073e+08
1.40923e+08
1.41843e+08
5.05292e+07
5.31569e+07
5.7955e+07
6.2934e+07
6.87086e+07
7.42276e+07
7.98004e+07
8.50842e+07
9.00453e+07
9.47734e+07
9.89826e+07
1.02995e+08
1.06392e+08
1.09602e+08
1.12188e+08
1.14606e+08
1.16489e+08
1.18272e+08
1.19678e+08
1.21093e+08
1.2229e+08
1.23569e+08
1.24726e+08
1.25962e+08
1.27091e+08
1.28269e+08
1.29308e+08
1.30399e+08
1.31336e+08
1.3233e+08
1.33212e+08
1.34127e+08
1.34958e+08
1.35847e+08
1.3663e+08
1.3752e+08
1.38283e+08
1.39137e+08
1.39936e+08
1.40768e+08
5.07567e+07
5.39773e+07
5.92591e+07
6.44942e+07
7.0419e+07
7.59603e+07
8.14526e+07
8.66155e+07
9.13514e+07
9.58712e+07
9.97816e+07
1.0354e+08
1.06614e+08
1.09539e+08
1.1183e+08
1.14006e+08
1.15707e+08
1.17398e+08
1.18812e+08
1.20308e+08
1.21648e+08
1.2307e+08
1.24353e+08
1.25667e+08
1.26819e+08
1.27985e+08
1.28989e+08
1.30033e+08
1.30915e+08
1.31881e+08
1.32749e+08
1.33596e+08
1.34327e+08
1.35193e+08
1.359e+08
1.3673e+08
1.37426e+08
1.38212e+08
1.38942e+08
1.39709e+08
5.13119e+07
5.50823e+07
6.0778e+07
6.62023e+07
7.21933e+07
7.77087e+07
8.30449e+07
8.80394e+07
9.24902e+07
9.67397e+07
1.00311e+08
1.03715e+08
1.06434e+08
1.09037e+08
1.11078e+08
1.13109e+08
1.14783e+08
1.1657e+08
1.18133e+08
1.19817e+08
1.21289e+08
1.2282e+08
1.24111e+08
1.2544e+08
1.26549e+08
1.27701e+08
1.28671e+08
1.29676e+08
1.30533e+08
1.31458e+08
1.32217e+08
1.33041e+08
1.33744e+08
1.34546e+08
1.35186e+08
1.35949e+08
1.36585e+08
1.37305e+08
1.37973e+08
1.38681e+08
5.22078e+07
5.64238e+07
6.23793e+07
6.79152e+07
7.38437e+07
7.93001e+07
8.44231e+07
8.93106e+07
9.34584e+07
9.74795e+07
1.00699e+08
1.03797e+08
1.06167e+08
1.08504e+08
1.10372e+08
1.1235e+08
1.14102e+08
1.15993e+08
1.17694e+08
1.19464e+08
1.21009e+08
1.22542e+08
1.23871e+08
1.25169e+08
1.26304e+08
1.27379e+08
1.28355e+08
1.29267e+08
1.30083e+08
1.30962e+08
1.31812e+08
1.32472e+08
1.33108e+08
1.33845e+08
1.34497e+08
1.35159e+08
1.35793e+08
1.36429e+08
1.3706e+08
1.37692e+08
5.33809e+07
5.78006e+07
6.38987e+07
6.9426e+07
7.52338e+07
8.07119e+07
8.56325e+07
9.04668e+07
9.44e+07
9.82179e+07
1.01097e+08
1.03719e+08
1.05823e+08
1.0804e+08
1.09948e+08
1.12122e+08
1.14044e+08
1.16104e+08
1.17907e+08
1.1967e+08
1.21108e+08
1.22516e+08
1.23705e+08
1.24911e+08
1.25944e+08
1.27025e+08
1.27893e+08
1.28864e+08
1.29627e+08
1.3046e+08
1.3115e+08
1.31911e+08
1.32506e+08
1.33182e+08
1.33767e+08
1.344e+08
1.34954e+08
1.35558e+08
1.361e+08
1.36718e+08
5.46994e+07
5.9239e+07
6.5372e+07
7.10124e+07
7.67059e+07
8.21444e+07
8.6951e+07
9.16352e+07
9.50695e+07
9.84814e+07
1.01061e+08
1.0358e+08
1.0572e+08
1.08086e+08
1.10212e+08
1.12475e+08
1.14386e+08
1.16357e+08
1.18013e+08
1.19675e+08
1.21092e+08
1.22549e+08
1.23823e+08
1.25136e+08
1.26118e+08
1.27087e+08
1.27872e+08
1.28718e+08
1.29393e+08
1.30188e+08
1.30834e+08
1.31481e+08
1.32008e+08
1.32656e+08
1.33155e+08
1.33747e+08
1.34229e+08
1.34791e+08
1.35285e+08
1.35869e+08
5.62474e+07
6.09307e+07
6.72533e+07
7.26805e+07
7.83278e+07
8.36729e+07
8.78561e+07
9.21763e+07
9.53393e+07
9.83574e+07
1.00309e+08
1.0229e+08
1.04465e+08
1.07194e+08
1.09303e+08
1.11533e+08
1.13321e+08
1.15438e+08
1.17428e+08
1.19304e+08
1.20624e+08
1.22088e+08
1.23368e+08
1.24578e+08
1.25534e+08
1.26636e+08
1.27544e+08
1.28513e+08
1.29245e+08
1.29949e+08
1.30525e+08
1.31144e+08
1.31644e+08
1.32222e+08
1.32697e+08
1.33231e+08
1.33697e+08
1.34196e+08
1.34658e+08
1.3519e+08
5.8082e+07
6.28608e+07
6.8787e+07
7.45909e+07
7.96229e+07
8.49308e+07
8.90153e+07
9.23756e+07
9.31262e+07
9.5321e+07
9.76736e+07
1.00686e+08
1.02679e+08
1.05118e+08
1.06836e+08
1.09028e+08
1.10652e+08
1.12654e+08
1.14274e+08
1.16303e+08
1.17954e+08
1.19871e+08
1.2168e+08
1.23606e+08
1.24597e+08
1.25642e+08
1.26568e+08
1.27498e+08
1.28183e+08
1.29022e+08
1.29726e+08
1.30434e+08
1.31001e+08
1.31587e+08
1.32081e+08
1.32581e+08
1.33037e+08
1.33504e+08
1.33963e+08
1.34475e+08
5.98967e+07
6.48108e+07
7.08493e+07
7.65954e+07
8.19624e+07
8.6194e+07
8.62507e+07
8.85719e+07
9.07444e+07
9.39328e+07
9.54992e+07
9.77872e+07
9.9288e+07
1.01737e+08
1.03456e+08
1.05864e+08
1.07652e+08
1.09929e+08
1.11701e+08
1.13689e+08
1.15153e+08
1.16853e+08
1.1827e+08
1.2011e+08
1.21722e+08
1.23376e+08
1.24926e+08
1.26416e+08
1.27163e+08
1.2793e+08
1.2859e+08
1.29233e+08
1.2982e+08
1.30456e+08
1.31027e+08
1.31576e+08
1.32099e+08
1.32561e+08
1.33063e+08
1.33549e+08
6.23841e+07
6.74307e+07
7.43069e+07
7.95223e+07
8.05488e+07
8.22794e+07
8.41607e+07
8.74237e+07
8.83772e+07
9.0793e+07
9.21986e+07
9.47948e+07
9.6393e+07
9.8855e+07
1.0048e+08
1.02776e+08
1.04436e+08
1.06627e+08
1.08363e+08
1.10518e+08
1.12277e+08
1.14272e+08
1.15908e+08
1.17654e+08
1.18953e+08
1.20409e+08
1.21661e+08
1.23244e+08
1.24703e+08
1.26014e+08
1.27252e+08
1.28206e+08
1.28776e+08
1.29326e+08
1.29867e+08
1.30311e+08
1.30851e+08
1.31315e+08
1.31888e+08
1.32402e+08
6.67719e+07
7.17124e+07
7.72472e+07
7.68606e+07
7.84925e+07
8.13007e+07
8.20843e+07
8.4146e+07
8.55144e+07
8.78939e+07
8.94176e+07
9.17521e+07
9.33523e+07
9.57169e+07
9.74188e+07
9.97548e+07
1.01505e+08
1.03738e+08
1.05468e+08
1.07551e+08
1.09207e+08
1.11177e+08
1.12809e+08
1.14741e+08
1.16322e+08
1.1806e+08
1.19554e+08
1.20888e+08
1.22002e+08
1.2322e+08
1.24371e+08
1.25674e+08
1.26806e+08
1.27761e+08
1.28691e+08
1.29313e+08
1.29821e+08
1.302e+08
1.30689e+08
1.31145e+08
7.23716e+07
7.34137e+07
7.55905e+07
7.60424e+07
7.74278e+07
7.84289e+07
7.96429e+07
8.16595e+07
8.28148e+07
8.50565e+07
8.64129e+07
8.87954e+07
9.03402e+07
9.27361e+07
9.44024e+07
9.67455e+07
9.84878e+07
1.00755e+08
1.02534e+08
1.04707e+08
1.06461e+08
1.0849e+08
1.10156e+08
1.12009e+08
1.13568e+08
1.15244e+08
1.16774e+08
1.18436e+08
1.19795e+08
1.21149e+08
1.22307e+08
1.23393e+08
1.24378e+08
1.25297e+08
1.26248e+08
1.2716e+08
1.27998e+08
1.28621e+08
1.29283e+08
1.29815e+08
7.50728e+07
7.29198e+07
7.53009e+07
7.37207e+07
7.54483e+07
7.59485e+07
7.73481e+07
7.8707e+07
8.01877e+07
8.20788e+07
8.36816e+07
8.58348e+07
8.75416e+07
8.98156e+07
9.16003e+07
9.38935e+07
9.5714e+07
9.79545e+07
9.97672e+07
1.01913e+08
1.03686e+08
1.05722e+08
1.0744e+08
1.09347e+08
1.10983e+08
1.12712e+08
1.14238e+08
1.1577e+08
1.17155e+08
1.18556e+08
1.19844e+08
1.21126e+08
1.22262e+08
1.23281e+08
1.24202e+08
1.24999e+08
1.25784e+08
1.26411e+08
1.2709e+08
1.27588e+08
7.45551e+07
7.26452e+07
7.29211e+07
7.19334e+07
7.32538e+07
7.33483e+07
7.48981e+07
7.59794e+07
7.75918e+07
7.92941e+07
8.09889e+07
8.30491e+07
8.48294e+07
8.70575e+07
8.89007e+07
9.11729e+07
9.30462e+07
9.52853e+07
9.71517e+07
9.93062e+07
1.01127e+08
1.03159e+08
1.04901e+08
1.06789e+08
1.08435e+08
1.10176e+08
1.11712e+08
1.13314e+08
1.14703e+08
1.16114e+08
1.17356e+08
1.18579e+08
1.19701e+08
1.20762e+08
1.21785e+08
1.22688e+08
1.23572e+08
1.24234e+08
1.24949e+08
1.25421e+08
7.33524e+07
7.11986e+07
7.10319e+07
6.99598e+07
7.09059e+07
7.10463e+07
7.24197e+07
7.34616e+07
7.50679e+07
7.67163e+07
7.84723e+07
8.04798e+07
8.2333e+07
8.45206e+07
8.64272e+07
8.86707e+07
9.05892e+07
9.28056e+07
9.46985e+07
9.68349e+07
9.86714e+07
1.00694e+08
1.0245e+08
1.04334e+08
1.05986e+08
1.07712e+08
1.09241e+08
1.10802e+08
1.12193e+08
1.13591e+08
1.14838e+08
1.16061e+08
1.17149e+08
1.18172e+08
1.19101e+08
1.19924e+08
1.20723e+08
1.21353e+08
1.22051e+08
1.22519e+08
7.12564e+07
6.93661e+07
6.85947e+07
6.78583e+07
6.84643e+07
6.86833e+07
6.99975e+07
7.10132e+07
7.26764e+07
7.42672e+07
7.61108e+07
7.8065e+07
8.00022e+07
8.2148e+07
8.41234e+07
8.63354e+07
8.83065e+07
9.04985e+07
9.2429e+07
9.45441e+07
9.64028e+07
9.8404e+07
1.00165e+08
1.0203e+08
1.03674e+08
1.05392e+08
1.06902e+08
1.08463e+08
1.09826e+08
1.11217e+08
1.1243e+08
1.13643e+08
1.14712e+08
1.15741e+08
1.16668e+08
1.17498e+08
1.18283e+08
1.1889e+08
1.19544e+08
1.19967e+08
6.86157e+07
6.67487e+07
6.60229e+07
6.53656e+07
6.59345e+07
6.62801e+07
6.75659e+07
6.86856e+07
7.03569e+07
7.20157e+07
7.38907e+07
7.58802e+07
7.78545e+07
8.00118e+07
8.20184e+07
8.42263e+07
8.6217e+07
8.8395e+07
9.03327e+07
9.24282e+07
9.42837e+07
9.62624e+07
9.80126e+07
9.98523e+07
1.01479e+08
1.03165e+08
1.04655e+08
1.06179e+08
1.07523e+08
1.08879e+08
1.10073e+08
1.11254e+08
1.123e+08
1.13296e+08
1.14204e+08
1.15011e+08
1.158e+08
1.1641e+08
1.17103e+08
1.17558e+08
6.53235e+07
6.37377e+07
6.30187e+07
6.26792e+07
6.32211e+07
6.38051e+07
6.51117e+07
6.63777e+07
6.81072e+07
6.98411e+07
7.17861e+07
7.38048e+07
7.5843e+07
7.80026e+07
8.00585e+07
8.22531e+07
8.42765e+07
8.64324e+07
8.83868e+07
9.04551e+07
9.23127e+07
9.42619e+07
9.60016e+07
9.78124e+07
9.94182e+07
1.01079e+08
1.0254e+08
1.04042e+08
1.05352e+08
1.06688e+08
1.07847e+08
1.0901e+08
1.10024e+08
1.11006e+08
1.11886e+08
1.12679e+08
1.13441e+08
1.14036e+08
1.14706e+08
1.15153e+08
6.16493e+07
6.02839e+07
5.98019e+07
5.96891e+07
6.04081e+07
6.12105e+07
6.26478e+07
6.40922e+07
6.59199e+07
6.77802e+07
6.97979e+07
7.18946e+07
7.39833e+07
7.61823e+07
7.82688e+07
8.04749e+07
8.25112e+07
8.466e+07
8.66125e+07
8.86614e+07
9.05057e+07
9.24279e+07
9.41461e+07
9.59249e+07
9.75042e+07
9.91293e+07
1.00562e+08
1.02027e+08
1.03311e+08
1.04611e+08
1.05747e+08
1.06879e+08
1.07875e+08
1.08832e+08
1.09703e+08
1.10481e+08
1.11246e+08
1.11839e+08
1.1252e+08
1.12978e+08
5.7545e+07
5.65e+07
5.62612e+07
5.65022e+07
5.74094e+07
5.85225e+07
6.01088e+07
6.17843e+07
6.373e+07
6.5741e+07
6.78489e+07
7.00314e+07
7.21847e+07
7.44227e+07
7.65506e+07
7.87643e+07
8.08221e+07
8.29581e+07
8.49156e+07
8.69397e+07
8.87759e+07
9.06668e+07
9.23668e+07
9.41121e+07
9.56664e+07
9.72589e+07
9.86624e+07
1.00098e+08
1.0135e+08
1.02625e+08
1.03731e+08
1.04843e+08
1.05813e+08
1.06756e+08
1.07606e+08
1.08376e+08
1.09126e+08
1.09721e+08
1.10395e+08
1.10865e+08
5.31835e+07
5.24581e+07
5.25576e+07
5.31357e+07
5.43415e+07
5.57565e+07
5.7576e+07
5.94879e+07
6.16024e+07
6.37796e+07
6.60028e+07
6.82907e+07
7.05172e+07
7.28135e+07
7.49825e+07
7.72203e+07
7.92947e+07
8.14314e+07
8.33873e+07
8.53965e+07
8.72178e+07
8.90839e+07
9.07602e+07
9.24747e+07
9.39998e+07
9.55586e+07
9.69305e+07
9.83316e+07
9.95526e+07
1.00795e+08
1.01872e+08
1.02954e+08
1.03899e+08
1.04818e+08
1.05649e+08
1.06402e+08
1.07139e+08
1.07724e+08
1.0839e+08
1.08857e+08
4.85337e+07
4.81722e+07
4.86302e+07
4.96123e+07
5.11333e+07
5.2904e+07
5.49661e+07
5.71478e+07
5.94362e+07
6.17964e+07
6.41383e+07
6.65375e+07
6.88406e+07
7.11943e+07
7.3408e+07
7.56654e+07
7.77605e+07
7.98913e+07
8.18504e+07
8.38375e+07
8.56496e+07
8.74845e+07
8.91431e+07
9.08225e+07
9.2325e+07
9.38488e+07
9.5196e+07
9.65655e+07
9.77617e+07
9.89784e+07
1.00033e+08
1.01097e+08
1.02022e+08
1.02933e+08
1.03747e+08
1.04502e+08
1.05225e+08
1.05823e+08
1.06479e+08
1.06962e+08
4.37317e+07
4.37509e+07
4.46235e+07
4.60227e+07
4.79223e+07
5.00516e+07
5.24065e+07
5.48577e+07
5.73541e+07
5.99002e+07
6.23819e+07
6.48996e+07
6.72909e+07
6.97132e+07
7.19772e+07
7.42674e+07
7.63854e+07
7.85241e+07
8.04863e+07
8.24648e+07
8.42662e+07
8.60818e+07
8.77203e+07
8.93742e+07
9.08503e+07
9.23456e+07
9.36625e+07
9.5003e+07
9.6167e+07
9.73556e+07
9.83771e+07
9.94155e+07
1.00309e+08
1.01197e+08
1.01982e+08
1.02719e+08
1.03418e+08
1.04002e+08
1.04639e+08
1.05111e+08
3.87366e+07
3.91685e+07
4.04835e+07
4.23435e+07
4.46371e+07
4.71516e+07
4.98001e+07
5.25317e+07
5.52306e+07
5.79638e+07
6.0579e+07
6.32109e+07
6.56861e+07
6.81686e+07
7.04812e+07
7.27929e+07
7.49345e+07
7.7068e+07
7.90367e+07
8.09922e+07
8.27886e+07
8.45703e+07
8.6197e+07
8.78115e+07
8.92723e+07
9.07272e+07
9.2028e+07
9.3331e+07
9.44796e+07
9.56377e+07
9.6645e+07
9.76636e+07
9.85437e+07
9.94258e+07
1.00196e+08
1.00942e+08
1.01624e+08
1.02231e+08
1.02847e+08
1.03342e+08
3.36784e+07
3.45524e+07
3.63636e+07
3.87102e+07
4.14396e+07
4.43412e+07
4.73073e+07
5.03122e+07
5.3228e+07
5.61432e+07
5.89012e+07
6.16483e+07
6.42137e+07
6.67638e+07
6.91291e+07
7.14754e+07
7.36435e+07
7.57887e+07
7.77658e+07
7.97173e+07
8.151e+07
8.32776e+07
8.48925e+07
8.6487e+07
8.79305e+07
8.93631e+07
9.06423e+07
9.1923e+07
9.30465e+07
9.41837e+07
9.51629e+07
9.61619e+07
9.70115e+07
9.78743e+07
9.86136e+07
9.93392e+07
9.99911e+07
1.00578e+08
1.01167e+08
1.0164e+08
2.8496e+07
2.98601e+07
3.22117e+07
3.50856e+07
3.82584e+07
4.15544e+07
4.48244e+07
4.80949e+07
5.12099e+07
5.42944e+07
5.71806e+07
6.00281e+07
6.26732e+07
6.52745e+07
6.76867e+07
7.00483e+07
7.22414e+07
7.43758e+07
7.63637e+07
7.82865e+07
8.00811e+07
8.18077e+07
8.34199e+07
8.49653e+07
8.64052e+07
8.77835e+07
8.90612e+07
9.02861e+07
9.14114e+07
9.24959e+07
9.34795e+07
9.44358e+07
9.52897e+07
9.61279e+07
9.68666e+07
9.75932e+07
9.82346e+07
9.88499e+07
9.94154e+07
9.99186e+07
2.33292e+07
2.52459e+07
2.82121e+07
3.16406e+07
3.52787e+07
3.8954e+07
4.25269e+07
4.60408e+07
4.93503e+07
5.25885e+07
5.55991e+07
5.85407e+07
6.12639e+07
6.39192e+07
6.63775e+07
6.87665e+07
7.09837e+07
7.31275e+07
7.51258e+07
7.70439e+07
7.88415e+07
8.05537e+07
8.2165e+07
8.36906e+07
8.51274e+07
8.64849e+07
8.77576e+07
8.8964e+07
9.00823e+07
9.11525e+07
9.21266e+07
9.3072e+07
9.3914e+07
9.47402e+07
9.54652e+07
9.61707e+07
9.67976e+07
9.73747e+07
9.79245e+07
9.83689e+07
1.81016e+07
2.06889e+07
2.43458e+07
2.83642e+07
3.24489e+07
3.64865e+07
4.0325e+07
4.40575e+07
4.75301e+07
5.08986e+07
5.40112e+07
5.70261e+07
5.9812e+07
6.25017e+07
6.49968e+07
6.7391e+07
6.96292e+07
7.1754e+07
7.37653e+07
7.56492e+07
7.74541e+07
7.91206e+07
8.07378e+07
8.22066e+07
8.36532e+07
8.49414e+07
8.62327e+07
8.73561e+07
8.85056e+07
8.94796e+07
9.04989e+07
9.13397e+07
9.2238e+07
9.29637e+07
9.37476e+07
9.4379e+07
9.50526e+07
9.56111e+07
9.61792e+07
9.66486e+07
1.29865e+07
1.64281e+07
2.0871e+07
2.54643e+07
2.99685e+07
3.43104e+07
3.83801e+07
4.22853e+07
4.58947e+07
4.93648e+07
5.25612e+07
5.56336e+07
5.84708e+07
6.11888e+07
6.37131e+07
6.61179e+07
6.8368e+07
7.04947e+07
7.25109e+07
7.43816e+07
7.61907e+07
7.78325e+07
7.94553e+07
8.08931e+07
8.23471e+07
8.36035e+07
8.49039e+07
8.59999e+07
8.716e+07
8.81155e+07
8.91476e+07
8.99818e+07
9.08984e+07
9.16265e+07
9.24428e+07
9.30689e+07
9.38052e+07
9.43036e+07
9.49868e+07
9.52322e+07
7.98684e+06
1.26474e+07
1.79009e+07
2.30116e+07
2.78332e+07
3.2416e+07
3.66425e+07
4.06765e+07
4.43786e+07
4.79159e+07
5.11702e+07
5.42747e+07
5.7146e+07
5.98761e+07
6.24175e+07
6.482e+07
6.70775e+07
6.91763e+07
7.12017e+07
7.30433e+07
7.4854e+07
7.64647e+07
7.80883e+07
7.94877e+07
8.09502e+07
8.21547e+07
8.34799e+07
8.45027e+07
8.57135e+07
8.6564e+07
8.76856e+07
8.83673e+07
8.94312e+07
8.99405e+07
9.09897e+07
9.13171e+07
9.24111e+07
9.25549e+07
9.37664e+07
9.37239e+07
3.92342e+06
1.00295e+07
1.58453e+07
2.1234e+07
2.62282e+07
3.09195e+07
3.52259e+07
3.93156e+07
4.30557e+07
4.6625e+07
4.98973e+07
5.30145e+07
5.58956e+07
5.86195e+07
6.11658e+07
6.35497e+07
6.57933e+07
6.78918e+07
6.99077e+07
7.17185e+07
7.35263e+07
7.50929e+07
7.67163e+07
7.80657e+07
7.95275e+07
8.06797e+07
8.20009e+07
8.2972e+07
8.41711e+07
8.49746e+07
8.60691e+07
8.67164e+07
8.77255e+07
8.82259e+07
8.91763e+07
8.9541e+07
9.0478e+07
9.0734e+07
9.17415e+07
9.20922e+07
4.59572e+06
9.48728e+06
1.49917e+07
2.02803e+07
2.51908e+07
2.98654e+07
3.41318e+07
3.82159e+07
4.19491e+07
4.54937e+07
4.87667e+07
5.18542e+07
5.47327e+07
5.74308e+07
5.99708e+07
6.2344e+07
6.45812e+07
6.66452e+07
6.86432e+07
7.04569e+07
7.22281e+07
7.38053e+07
7.53928e+07
7.67567e+07
7.81862e+07
7.93615e+07
8.06506e+07
8.1663e+07
8.28228e+07
8.36995e+07
8.47349e+07
8.55053e+07
8.64141e+07
8.71075e+07
8.78812e+07
8.85183e+07
8.91448e+07
8.97135e+07
9.01879e+07
9.07706e+07
8.91296e+06
1.12544e+07
1.55435e+07
2.02324e+07
2.48233e+07
2.92801e+07
3.34063e+07
3.7389e+07
4.10172e+07
4.45202e+07
4.7713e+07
5.07808e+07
5.35958e+07
5.62773e+07
5.87729e+07
6.11083e+07
6.33666e+07
6.53525e+07
6.73197e+07
6.90827e+07
7.08344e+07
7.23655e+07
7.39347e+07
7.52533e+07
7.66636e+07
7.77931e+07
7.90618e+07
8.00274e+07
8.11661e+07
8.19952e+07
8.30097e+07
8.37323e+07
8.46228e+07
8.52702e+07
8.60318e+07
8.66308e+07
8.72526e+07
8.7811e+07
8.82692e+07
8.89682e+07
1.37643e+07
1.45157e+07
1.73401e+07
2.11362e+07
2.51258e+07
2.92374e+07
3.30626e+07
3.68935e+07
4.0418e+07
4.37765e+07
4.6899e+07
4.98787e+07
5.26272e+07
5.52608e+07
5.76862e+07
5.99888e+07
6.21505e+07
6.41708e+07
6.60853e+07
6.78354e+07
6.95531e+07
7.10746e+07
7.2607e+07
7.39302e+07
7.52934e+07
7.64459e+07
7.76516e+07
7.86614e+07
7.97149e+07
8.06113e+07
8.15111e+07
8.23237e+07
8.30638e+07
8.38189e+07
8.43938e+07
8.51086e+07
8.55225e+07
8.61997e+07
8.64777e+07
8.73523e+07
1.86244e+07
1.8359e+07
1.99676e+07
2.27422e+07
2.6058e+07
2.96278e+07
3.31381e+07
3.66878e+07
3.99388e+07
4.31568e+07
4.61388e+07
4.90095e+07
5.16815e+07
5.4218e+07
5.65945e+07
5.88273e+07
6.09191e+07
6.28943e+07
6.47728e+07
6.6478e+07
6.81537e+07
6.96357e+07
7.11262e+07
7.24173e+07
7.37384e+07
7.48673e+07
7.60293e+07
7.70259e+07
7.8032e+07
7.89288e+07
7.97746e+07
8.06058e+07
8.12815e+07
8.20789e+07
8.2574e+07
8.33594e+07
8.36722e+07
8.44459e+07
8.4599e+07
8.55811e+07
2.34816e+07
2.25325e+07
2.31703e+07
2.50297e+07
2.75625e+07
3.05579e+07
3.3517e+07
3.67882e+07
3.98914e+07
4.28228e+07
4.56073e+07
4.83702e+07
5.08775e+07
5.33612e+07
5.56149e+07
5.78096e+07
5.98297e+07
6.17662e+07
6.35609e+07
6.52564e+07
6.68553e+07
6.83383e+07
6.97576e+07
7.10579e+07
7.2308e+07
7.34558e+07
7.45419e+07
7.55685e+07
7.64902e+07
7.74284e+07
7.81806e+07
7.90629e+07
7.96391e+07
8.04948e+07
8.08934e+07
8.17416e+07
8.1975e+07
8.28167e+07
8.2923e+07
8.39723e+07
2.82433e+07
2.67771e+07
2.66075e+07
2.76758e+07
2.94417e+07
3.1795e+07
3.43706e+07
3.71943e+07
3.98499e+07
4.26067e+07
4.52012e+07
4.77897e+07
5.01648e+07
5.25121e+07
5.46627e+07
5.67616e+07
5.86909e+07
6.05549e+07
6.22846e+07
6.39242e+07
6.54674e+07
6.69087e+07
6.8276e+07
6.95481e+07
7.07469e+07
7.18799e+07
7.29134e+07
7.3939e+07
7.4805e+07
7.57569e+07
7.64484e+07
7.73601e+07
7.78691e+07
7.87693e+07
7.90935e+07
7.99987e+07
8.01528e+07
8.10565e+07
8.10854e+07
8.2178e+07
3.29525e+07
3.10093e+07
3.02628e+07
3.06025e+07
3.17061e+07
3.3466e+07
3.55801e+07
3.78546e+07
4.01098e+07
4.26738e+07
4.50206e+07
4.73991e+07
4.96318e+07
5.18143e+07
5.38659e+07
5.58427e+07
5.7697e+07
5.94716e+07
6.11302e+07
6.27129e+07
6.41867e+07
6.55949e+07
6.68943e+07
6.81502e+07
6.92824e+07
7.04123e+07
7.13796e+07
7.24129e+07
7.32131e+07
7.41815e+07
7.4809e+07
7.57441e+07
7.61938e+07
7.71224e+07
7.73963e+07
7.83325e+07
7.84495e+07
7.93851e+07
7.93909e+07
8.04933e+07
3.75291e+07
3.52142e+07
3.39571e+07
3.3676e+07
3.41726e+07
3.53282e+07
3.68491e+07
3.88128e+07
4.07082e+07
4.28563e+07
4.49372e+07
4.70844e+07
4.9112e+07
5.11488e+07
5.30399e+07
5.4917e+07
5.66439e+07
5.83458e+07
5.99045e+07
6.14325e+07
6.28255e+07
6.4193e+07
6.54243e+07
6.66521e+07
6.77239e+07
6.88372e+07
6.97488e+07
7.07763e+07
7.15234e+07
7.24958e+07
7.30715e+07
7.40192e+07
7.44177e+07
7.53656e+07
7.55892e+07
7.6549e+07
7.66176e+07
7.75775e+07
7.754e+07
7.86398e+07
4.20337e+07
3.93939e+07
3.76937e+07
3.69104e+07
3.68457e+07
3.7458e+07
3.8484e+07
3.99087e+07
4.14423e+07
4.32932e+07
4.50484e+07
4.69876e+07
4.87787e+07
5.06547e+07
5.23787e+07
5.41285e+07
5.57338e+07
5.7336e+07
5.87993e+07
6.02525e+07
6.15657e+07
6.28794e+07
6.40409e+07
6.52318e+07
6.62411e+07
6.73308e+07
6.81858e+07
6.92003e+07
6.98962e+07
7.08642e+07
7.13943e+07
7.23443e+07
7.27039e+07
7.36587e+07
7.38513e+07
7.48198e+07
7.48664e+07
7.58337e+07
7.57826e+07
7.68616e+07
4.64062e+07
4.34696e+07
4.13889e+07
4.01482e+07
3.9578e+07
3.97055e+07
4.02084e+07
4.12405e+07
4.23677e+07
4.38455e+07
4.53042e+07
4.69551e+07
4.85231e+07
5.0191e+07
5.1741e+07
5.3343e+07
5.48093e+07
5.63057e+07
5.76567e+07
5.90331e+07
6.02545e+07
6.15123e+07
6.25974e+07
6.37481e+07
6.46927e+07
6.57544e+07
6.65538e+07
6.75496e+07
6.81974e+07
6.91533e+07
6.96421e+07
7.05839e+07
7.09082e+07
7.18569e+07
7.20185e+07
7.29833e+07
7.30003e+07
7.39688e+07
7.38903e+07
7.49445e+07
5.06822e+07
4.74833e+07
4.50546e+07
4.34191e+07
4.24064e+07
4.20626e+07
4.21286e+07
4.26965e+07
4.34519e+07
4.45742e+07
4.57113e+07
4.71018e+07
4.84105e+07
4.98848e+07
5.1234e+07
5.26883e+07
5.40004e+07
5.53823e+07
5.66134e+07
5.7901e+07
5.90268e+07
6.02162e+07
6.12233e+07
6.23216e+07
6.32015e+07
6.42236e+07
6.49689e+07
6.59351e+07
6.65378e+07
6.74722e+07
6.79236e+07
6.88513e+07
6.91448e+07
7.00861e+07
7.02233e+07
7.11845e+07
7.11852e+07
7.21428e+07
7.20598e+07
7.30723e+07
5.48331e+07
5.13843e+07
4.86497e+07
4.66551e+07
4.52374e+07
4.44841e+07
4.41109e+07
4.42856e+07
4.46445e+07
4.54121e+07
4.62282e+07
4.73232e+07
4.83813e+07
4.96228e+07
5.07763e+07
5.20527e+07
5.32099e+07
5.44579e+07
5.55644e+07
5.67517e+07
5.77761e+07
5.88904e+07
5.9814e+07
6.08563e+07
6.16669e+07
6.26473e+07
6.33352e+07
6.42698e+07
6.48262e+07
6.57346e+07
6.6152e+07
6.70536e+07
6.73267e+07
6.8237e+07
6.8364e+07
6.92916e+07
6.92666e+07
7.02209e+07
7.0112e+07
7.10994e+07
5.88655e+07
5.519e+07
5.21747e+07
4.98573e+07
4.80845e+07
4.69405e+07
4.61888e+07
4.5962e+07
4.59638e+07
4.63772e+07
4.6877e+07
4.76843e+07
4.84766e+07
4.94928e+07
5.04305e+07
5.1532e+07
5.25171e+07
5.36289e+07
5.45986e+07
5.56796e+07
5.65947e+07
5.76258e+07
5.84613e+07
5.94382e+07
6.01774e+07
6.11058e+07
6.17358e+07
6.26282e+07
6.31379e+07
6.40115e+07
6.43906e+07
6.52648e+07
6.55053e+07
6.63993e+07
6.6498e+07
6.74301e+07
6.73912e+07
6.83064e+07
6.82098e+07
6.9127e+07
6.27784e+07
5.88856e+07
5.56138e+07
5.30015e+07
5.08984e+07
4.9408e+07
4.82875e+07
4.77029e+07
4.73442e+07
4.74213e+07
4.76025e+07
4.81162e+07
4.86432e+07
4.9416e+07
5.01388e+07
5.10451e+07
5.18576e+07
5.28157e+07
5.36466e+07
5.46075e+07
5.54101e+07
5.63478e+07
5.70915e+07
5.7996e+07
5.86594e+07
5.95322e+07
6.0099e+07
6.09492e+07
6.14067e+07
6.22477e+07
6.25884e+07
6.34318e+07
6.36612e+07
6.45058e+07
6.46624e+07
6.54713e+07
6.53552e+07
6.63305e+07
6.61959e+07
6.71085e+07
6.65563e+07
6.24644e+07
5.8958e+07
5.60762e+07
5.36806e+07
5.18657e+07
5.04209e+07
4.94897e+07
4.88061e+07
4.85519e+07
4.84314e+07
4.86536e+07
4.89165e+07
4.94458e+07
4.99465e+07
5.06553e+07
5.12852e+07
5.20856e+07
5.2768e+07
5.36039e+07
5.42861e+07
5.51253e+07
5.57711e+07
5.65982e+07
5.71816e+07
5.79939e+07
5.84948e+07
5.92982e+07
5.97e+07
6.05054e+07
6.07948e+07
6.16134e+07
6.1783e+07
6.26176e+07
6.26724e+07
6.34868e+07
6.34849e+07
6.43465e+07
6.42392e+07
6.50713e+07
7.02179e+07
6.59333e+07
6.22069e+07
5.90761e+07
5.64053e+07
5.42969e+07
5.25409e+07
5.12952e+07
5.02924e+07
4.97291e+07
4.93081e+07
4.92477e+07
4.92448e+07
4.95294e+07
4.98044e+07
5.0309e+07
5.0752e+07
5.13852e+07
5.19152e+07
5.26153e+07
5.31744e+07
5.3903e+07
5.44502e+07
5.51864e+07
5.56917e+07
5.64278e+07
5.6868e+07
5.76059e+07
5.79607e+07
5.87096e+07
5.89594e+07
5.97337e+07
5.9855e+07
6.06754e+07
6.06295e+07
6.15319e+07
6.15527e+07
6.22989e+07
6.22023e+07
6.29493e+07
7.37323e+07
6.92719e+07
6.53438e+07
6.19852e+07
5.9068e+07
5.66876e+07
5.46548e+07
5.31109e+07
5.18209e+07
5.0957e+07
5.02583e+07
4.99161e+07
4.96601e+07
4.96948e+07
4.9749e+07
5.00408e+07
5.02966e+07
5.07535e+07
5.11279e+07
5.16839e+07
5.21152e+07
5.27265e+07
5.31698e+07
5.381e+07
5.4232e+07
5.48881e+07
5.52634e+07
5.59321e+07
5.624e+07
5.69256e+07
5.7149e+07
5.78599e+07
5.79857e+07
5.87322e+07
5.87528e+07
5.95461e+07
5.94617e+07
6.02487e+07
6.01266e+07
6.08428e+07
7.71316e+07
7.24984e+07
6.83796e+07
6.48067e+07
6.1657e+07
5.90264e+07
5.67293e+07
5.49129e+07
5.33435e+07
5.22032e+07
5.12285e+07
5.06238e+07
5.01106e+07
4.99095e+07
4.97343e+07
4.98221e+07
4.98802e+07
5.01647e+07
5.03725e+07
5.07849e+07
5.1078e+07
5.15706e+07
5.19e+07
5.24428e+07
5.27707e+07
5.33478e+07
5.36441e+07
5.42503e+07
5.44899e+07
5.51277e+07
5.52901e+07
5.59656e+07
5.60371e+07
5.67542e+07
5.67363e+07
5.74853e+07
5.7415e+07
5.81498e+07
5.80306e+07
5.86882e+07
8.0374e+07
7.55858e+07
7.129e+07
6.75235e+07
6.41623e+07
6.13026e+07
5.87683e+07
5.66965e+07
5.48775e+07
5.34692e+07
5.22473e+07
5.1377e+07
5.06311e+07
5.0181e+07
4.97951e+07
4.96612e+07
4.95344e+07
4.96288e+07
4.96782e+07
4.9931e+07
5.00912e+07
5.04508e+07
5.06711e+07
5.11024e+07
5.1343e+07
5.18251e+07
5.20543e+07
5.25772e+07
5.27687e+07
5.3331e+07
5.34631e+07
5.40681e+07
5.41246e+07
5.47751e+07
5.4749e+07
5.54396e+07
5.53395e+07
5.60446e+07
5.59049e+07
5.65212e+07
8.35012e+07
7.85571e+07
7.40963e+07
7.01426e+07
6.65845e+07
6.35093e+07
6.07506e+07
5.84433e+07
5.6381e+07
5.47299e+07
5.32581e+07
5.21523e+07
5.11621e+07
5.04957e+07
4.98813e+07
4.95538e+07
4.92222e+07
4.9146e+07
4.90182e+07
4.91228e+07
4.91334e+07
4.9366e+07
4.94614e+07
4.97855e+07
4.99224e+07
5.03148e+07
5.04578e+07
5.09061e+07
5.10265e+07
5.15259e+07
5.1601e+07
5.21505e+07
5.21649e+07
5.27624e+07
5.27114e+07
5.33473e+07
5.32402e+07
5.38918e+07
5.37509e+07
5.43075e+07
8.64645e+07
8.13839e+07
7.67652e+07
7.26471e+07
6.89033e+07
6.56367e+07
6.26716e+07
6.01489e+07
5.78705e+07
5.59849e+07
5.42995e+07