/*--------------------------------*- C++ -*----------------------------------*\
| =========                 |                                                 |
| \\      /  F ield         | OpenFOAM: The Open Source CFD Toolbox           |
|  \\    /   O peration     | Version:  v2012                                 |
|   \\  /    A nd           | Website:  www.openfoam.com                      |
|    \\/     M anipulation  |                                                 |
\*---------------------------------------------------------------------------*/
FoamFile
{
    version     2.0;
    format      ascii;
    class       volSymmTensorField;
    location    "14";
    object      sigma;
}
// * * * * * * * * * * * * * * * * * * * * * * * * * * * * * * * * * * * * * //

dimensions      [1 -1 -2 0 0 0 0];


internalField   nonuniform List<symmTensor> 
4000
(
(5.92127e+07 -1.48553e+06 -5.9196e-09 907096 3.1045e-08 7.29978e+07)
(8.04713e+07 -2.04007e+06 -3.82089e-09 2.85325e+06 4.3907e-08 8.17292e+07)
(1.00078e+08 -2.79335e+06 2.4146e-15 6.09006e+06 -5.12069e-14 9.08187e+07)
(1.17458e+08 -3.30679e+06 7.33706e-09 9.54285e+06 -5.09423e-08 9.83291e+07)
(1.34508e+08 -3.80776e+06 -1.32831e-08 1.3948e+07 -4.96406e-08 1.06364e+08)
(1.48842e+08 -4.29415e+06 2.98651e-10 1.82945e+07 2.62027e-08 1.12562e+08)
(1.63831e+08 -4.63691e+06 -1.35496e-08 2.35872e+07 7.66388e-10 1.19352e+08)
(1.76087e+08 -5.05019e+06 0 2.84554e+07 0 1.24157e+08)
(1.89259e+08 -5.28381e+06 2.15818e-09 3.43669e+07 5.27612e-08 1.29302e+08)
(1.99888e+08 -5.55167e+06 2.07655e-08 3.94485e+07 2.54572e-08 1.32238e+08)
(2.11233e+08 -5.59025e+06 -3.47229e-09 4.55914e+07 -4.96874e-08 1.3503e+08)
(2.2009e+08 -5.54441e+06 -4.36848e-09 5.04259e+07 -4.7123e-08 1.35282e+08)
(2.29101e+08 -5.20566e+06 -2.67977e-09 5.61277e+07 -2.18228e-08 1.34772e+08)
(2.35451e+08 -4.65241e+06 6.39438e-09 5.99809e+07 3.96829e-08 1.31549e+08)
(2.41309e+08 -3.7703e+06 1.85012e-08 6.4316e+07 1.88139e-08 1.27414e+08)
(2.44331e+08 -2.61594e+06 -3.98549e-09 6.6302e+07 -1.51011e-08 1.20935e+08)
(2.46543e+08 -1.18273e+06 -2.07633e-08 6.8362e+07 -1.47179e-08 1.14087e+08)
(2.46244e+08 422937 -3.86605e-08 6.7793e+07 -1.52854e-08 1.05907e+08)
(2.45642e+08 2.26772e+06 -1.78511e-08 6.7068e+07 -2.59615e-09 9.84297e+07)
(2.39658e+08 4.19243e+06 -3.13363e-08 6.36791e+07 4.76609e-09 9.1001e+07)
(6.03424e+07 -4.41601e+06 -1.7236e-08 1.20075e+06 2.13776e-08 7.31796e+07)
(8.11293e+07 -6.25102e+06 -6.28042e-09 3.27519e+06 1.76039e-08 8.17307e+07)
(1.00775e+08 -8.41283e+06 8.73823e-09 6.78246e+06 -5.13762e-08 9.09376e+07)
(1.17762e+08 -9.97447e+06 4.18614e-09 1.03118e+07 1.74293e-08 9.83119e+07)
(1.34879e+08 -1.14956e+07 -1.35289e-08 1.49461e+07 9.37103e-09 1.06459e+08)
(1.48943e+08 -1.28034e+07 -1.88022e-15 1.93645e+07 -9.26976e-14 1.12542e+08)
(1.63891e+08 -1.38947e+07 6.54991e-11 2.48569e+07 1.13978e-09 1.19317e+08)
(1.75955e+08 -1.49552e+07 -2.05338e-08 2.96841e+07 -4.95946e-08 1.23853e+08)
(1.8893e+08 -1.56135e+07 0 3.55883e+07 0 1.28627e+08)
(1.9921e+08 -1.62103e+07 3.40874e-08 4.03744e+07 2.2018e-08 1.30928e+08)
(2.10019e+08 -1.61614e+07 7.46847e-15 4.60833e+07 3.13193e-14 1.32821e+08)
(2.18183e+08 -1.57946e+07 -1.43827e-08 5.01838e+07 -4.53652e-08 1.31997e+08)
(2.26268e+08 -1.45564e+07 -8.73853e-09 5.48998e+07 -2.07744e-08 1.30337e+08)
(2.31597e+08 -1.27187e+07 1.0229e-08 5.75336e+07 1.87054e-08 1.26073e+08)
(2.36325e+08 -9.95494e+06 2.66143e-08 6.04736e+07 2.03024e-08 1.21112e+08)
(2.38295e+08 -6.53422e+06 -4.13634e-09 6.10479e+07 8.78346e-09 1.14302e+08)
(2.39656e+08 -2.46288e+06 -4.58645e-09 6.18104e+07 5.86106e-09 1.07638e+08)
(2.38536e+08 2.03258e+06 -4.58504e-08 6.02431e+07 -2.371e-08 1.00253e+08)
(2.37446e+08 6.75254e+06 1.69297e-10 5.8929e+07 1.49873e-10 9.39717e+07)
(2.34052e+08 1.17252e+07 -5.04366e-08 5.56393e+07 -2.871e-08 8.76607e+07)
(6.25158e+07 -7.59008e+06 -3.08551e-08 1.71701e+06 1.80526e-08 7.35125e+07)
(8.25999e+07 -1.05678e+07 -1.08195e-08 4.20058e+06 1.40891e-08 8.18265e+07)
(1.01993e+08 -1.41367e+07 7.13903e-09 8.17366e+06 -2.49064e-08 9.10835e+07)
(1.18506e+08 -1.6713e+07 -1.19136e-08 1.19266e+07 5.6334e-08 9.82797e+07)
(1.35308e+08 -1.9208e+07 8.97213e-09 1.69732e+07 -1.00858e-08 1.06384e+08)
(1.49061e+08 -2.14972e+07 5.45053e-09 2.15341e+07 -5.65575e-08 1.12227e+08)
(1.63757e+08 -2.30595e+07 4.07254e-09 2.71154e+07 5.13063e-08 1.18644e+08)
(1.75387e+08 -2.46467e+07 1.71354e-10 3.18195e+07 1.08838e-09 1.22489e+08)
(1.87869e+08 -2.53254e+07 -3.72645e-08 3.73701e+07 -7.20802e-08 1.26256e+08)
(1.97356e+08 -2.57712e+07 1.89928e-08 4.14175e+07 2.30779e-08 1.27142e+08)
(2.07079e+08 -2.50664e+07 2.305e-08 4.5983e+07 2.35872e-08 1.27274e+08)
(2.13863e+08 -2.37179e+07 -1.46815e-08 4.84905e+07 -3.85979e-08 1.24596e+08)
(2.20256e+08 -2.10386e+07 -4.51578e-08 5.11759e+07 -2.80756e-08 1.21112e+08)
(2.23823e+08 -1.75101e+07 3.10111e-09 5.15887e+07 9.93436e-09 1.15594e+08)
(2.26763e+08 -1.28285e+07 3.95e-08 5.21473e+07 2.88558e-08 1.10015e+08)
(2.27323e+08 -7.53222e+06 2.02481e-08 5.06849e+07 1.2976e-08 1.03627e+08)
(2.27522e+08 -1.67368e+06 1.72781e-08 4.96927e+07 1.03954e-08 9.8091e+07)
(2.25964e+08 4.35283e+06 -5.11034e-08 4.71756e+07 -3.13373e-08 9.25476e+07)
(2.2444e+08 1.02097e+07 -2.43032e-10 4.55516e+07 -1.61298e-10 8.81053e+07)
(2.22233e+08 1.60114e+07 -4.56729e-08 4.28254e+07 -3.24519e-08 8.35757e+07)
(6.58278e+07 -1.08694e+07 -3.60741e-08 2.69766e+06 3.99212e-08 7.41789e+07)
(8.45518e+07 -1.53894e+07 -3.09436e-08 5.67036e+06 4.85468e-08 8.19467e+07)
(1.04001e+08 -2.00176e+07 7.94389e-10 1.045e+07 -1.03229e-08 9.13386e+07)
(1.19443e+08 -2.36762e+07 7.64008e-09 1.43784e+07 -2.51577e-08 9.79407e+07)
(1.36494e+08 -2.7027e+07 2.19978e-08 1.9867e+07 -7.74819e-08 1.05899e+08)
(1.49123e+08 -2.97097e+07 -1.43589e-09 2.42963e+07 5.13119e-08 1.10776e+08)
(1.63204e+08 -3.16253e+07 3.01626e-09 2.99786e+07 2.65703e-08 1.16218e+08)
(1.73936e+08 -3.32319e+07 2.64108e-08 3.3938e+07 -1.03575e-08 1.18468e+08)
(1.85246e+08 -3.33842e+07 2.51728e-10 3.86724e+07 -2.31224e-08 1.20312e+08)
(1.93385e+08 -3.29633e+07 -2.97076e-08 4.10501e+07 -4.29568e-08 1.1893e+08)
(2.01337e+08 -3.08374e+07 2.65159e-08 4.36568e+07 7.99208e-09 1.16828e+08)
(2.06259e+08 -2.78176e+07 2.20924e-08 4.3618e+07 1.70566e-08 1.12304e+08)
(2.10656e+08 -2.33206e+07 2.61354e-08 4.37557e+07 1.59465e-08 1.07795e+08)
(2.12508e+08 -1.81196e+07 -5.93993e-08 4.16423e+07 -3.57505e-08 1.02309e+08)
(2.14078e+08 -1.21355e+07 -1.71683e-08 4.01912e+07 -1.2408e-08 9.78136e+07)
(2.13886e+08 -6.00888e+06 1.68556e-08 3.72584e+07 1.28439e-08 9.32906e+07)
(2.13856e+08 150142 6.14984e-08 3.55678e+07 3.54555e-08 8.99382e+07)
(2.12746e+08 5.99621e+06 3.43694e-08 3.296e+07 2.64293e-08 8.64826e+07)
(2.11921e+08 1.14705e+07 -1.64758e-08 3.18832e+07 -1.27147e-08 8.37313e+07)
(2.10613e+08 1.64609e+07 2.30905e-08 2.99747e+07 1.74689e-08 8.03991e+07)
(7.01452e+07 -1.48399e+07 8.97234e-10 3.95686e+06 9.59072e-09 7.50865e+07)
(8.75179e+07 -2.05317e+07 3.9327e-08 7.9037e+06 -6.86162e-08 8.22856e+07)
(1.06083e+08 -2.61498e+07 1.64883e-08 1.30879e+07 -2.77895e-08 9.10502e+07)
(1.20932e+08 -3.03088e+07 2.9149e-09 1.75008e+07 -1.36886e-08 9.68749e+07)
(1.36576e+08 -3.42303e+07 1.33305e-10 2.32665e+07 -5.84455e-10 1.03388e+08)
(1.48451e+08 -3.75966e+07 -6.74147e-09 2.7461e+07 3.34728e-08 1.06501e+08)
(1.61728e+08 -3.90192e+07 1.9885e-08 3.25237e+07 -3.8791e-08 1.09781e+08)
(1.70869e+08 -4.00179e+07 -1.94387e-09 3.48904e+07 -2.33018e-08 1.09277e+08)
(1.80407e+08 -3.88941e+07 1.14504e-08 3.77215e+07 1.22871e-09 1.08338e+08)
(1.86585e+08 -3.67951e+07 0 3.72832e+07 0 1.04659e+08)
(1.92347e+08 -3.28106e+07 2.80679e-08 3.71587e+07 1.44881e-08 1.01143e+08)
(1.95493e+08 -2.80779e+07 -3.31169e-08 3.43612e+07 -2.36132e-08 9.65847e+07)
(1.98369e+08 -2.23371e+07 6.5811e-08 3.24283e+07 3.90753e-08 9.32471e+07)
(1.99494e+08 -1.65001e+07 8.03905e-08 2.88664e+07 3.83344e-08 8.98504e+07)
(2.00787e+08 -1.05086e+07 -1.06726e-08 2.68396e+07 3.46875e-09 8.77842e+07)
(2.00972e+08 -4.90764e+06 -2.57738e-08 2.38819e+07 -1.17115e-08 8.55058e+07)
(2.01523e+08 502697 -5.75962e-09 2.26922e+07 2.80705e-09 8.39152e+07)
(2.01141e+08 5.46183e+06 1.56207e-08 2.06505e+07 1.35393e-08 8.17219e+07)
(2.01047e+08 1.03038e+07 1.15811e-09 2.02515e+07 -2.9634e-09 7.9759e+07)
(2.00042e+08 1.47179e+07 2.37905e-08 1.88e+07 2.45072e-08 7.70547e+07)
(7.57947e+07 -1.91161e+07 -3.07337e-09 6.00451e+06 -2.11825e-08 7.64763e+07)
(9.05968e+07 -2.60487e+07 -2.09744e-08 1.03941e+07 4.67532e-08 8.20994e+07)
(1.0823e+08 -3.20917e+07 -3.71402e-10 1.65613e+07 -1.65719e-08 8.98368e+07)
(1.21435e+08 -3.73319e+07 1.19633e-08 2.11549e+07 -2.62658e-08 9.3308e+07)
(1.38308e+08 -4.08446e+07 -1.221e-08 2.73531e+07 2.1248e-08 9.84338e+07)
(1.47108e+08 -4.36535e+07 -1.33441e-08 3.02031e+07 -1.51525e-08 9.70127e+07)
(1.5822e+08 -4.37782e+07 -1.42386e-08 3.35024e+07 -1.87698e-08 9.6311e+07)
(1.65728e+08 -4.31656e+07 3.19456e-08 3.31577e+07 2.64072e-08 9.273e+07)
(1.72625e+08 -4.01072e+07 -1.49256e-08 3.27456e+07 -8.37393e-09 8.95943e+07)
(1.76886e+08 -3.61858e+07 -6.99578e-08 2.92752e+07 -3.56631e-08 8.58226e+07)
(1.80885e+08 -3.11524e+07 3.74294e-08 2.67408e+07 -9.61623e-09 8.36224e+07)
(1.83265e+08 -2.59113e+07 -5.39955e-08 2.24203e+07 -2.54408e-08 8.16369e+07)
(1.85826e+08 -2.04753e+07 -6.80036e-08 1.9914e+07 -2.03562e-08 8.10202e+07)
(1.87224e+08 -1.53656e+07 1.68583e-08 1.64507e+07 1.53264e-08 8.01019e+07)
(1.88992e+08 -1.03265e+07 2.6943e-08 1.49885e+07 1.08335e-08 7.98166e+07)
(1.89628e+08 -5.67056e+06 1.72354e-08 1.26371e+07 1.50952e-08 7.86523e+07)
(1.9054e+08 -924167 2.24286e-08 1.19866e+07 1.12607e-08 7.77599e+07)
(1.90343e+08 3.48807e+06 5.89859e-08 1.02444e+07 3.79824e-08 7.59619e+07)
(1.90446e+08 8.07763e+06 -5.40876e-08 1.00324e+07 -3.64091e-08 7.44621e+07)
(1.89729e+08 1.21758e+07 -7.98954e-09 8.63636e+06 -3.29027e-09 7.22834e+07)
(8.18482e+07 -2.40444e+07 -8.97225e-08 9.01214e+06 5.57444e-08 7.76248e+07)
(9.45593e+07 -3.18134e+07 2.29955e-08 1.34802e+07 -6.37622e-09 8.10222e+07)
(1.10957e+08 -3.8294e+07 3.14071e-08 2.08581e+07 -5.47687e-08 8.62849e+07)
(1.21611e+08 -4.3824e+07 -2.13819e-08 2.49527e+07 8.20929e-08 8.54048e+07)
(1.3516e+08 -4.61979e+07 -2.84731e-09 2.97737e+07 2.50811e-08 8.43511e+07)
(1.43914e+08 -4.6812e+07 -5.04749e-09 3.04385e+07 -1.22528e-08 7.92636e+07)
(1.52095e+08 -4.50595e+07 -2.95941e-08 3.05694e+07 -8.59768e-09 7.44311e+07)
(1.57758e+08 -4.19812e+07 -1.83563e-08 2.67075e+07 -1.30242e-08 7.01747e+07)
(1.62786e+08 -3.76017e+07 8.10594e-08 2.32971e+07 3.72852e-08 6.83514e+07)
(1.66487e+08 -3.32087e+07 1.78767e-09 1.82e+07 -2.90955e-08 6.77904e+07)
(1.70155e+08 -2.85253e+07 7.71214e-10 1.49712e+07 1.27436e-10 6.87816e+07)
(1.72577e+08 -2.4167e+07 -7.15307e-08 1.10412e+07 -1.578e-08 6.95587e+07)
(1.75373e+08 -1.98322e+07 -5.16806e-08 9.13804e+06 -2.53152e-08 7.07812e+07)
(1.76873e+08 -1.57674e+07 4.18716e-08 6.43563e+06 3.84523e-09 7.09783e+07)
(1.78665e+08 -1.1511e+07 -6.25932e-08 5.42985e+06 -4.12918e-08 7.12703e+07)
(1.79208e+08 -7.40002e+06 -4.36228e-08 3.26989e+06 -2.62823e-08 7.05053e+07)
(1.80064e+08 -2.98836e+06 -4.05192e-08 2.61353e+06 -2.57996e-08 7.00154e+07)
(1.79928e+08 1.0405e+06 2.08395e-08 809194 9.79045e-09 6.87354e+07)
(1.8027e+08 5.33919e+06 5.69752e-08 550335 3.5668e-08 6.79526e+07)
(1.79834e+08 8.99972e+06 -3.45471e-08 -823235 -2.52797e-08 6.65096e+07)
(8.85758e+07 -2.98574e+07 -2.84051e-08 1.29336e+07 3.06939e-08 7.72682e+07)
(9.83944e+07 -3.75937e+07 -1.37046e-08 1.67534e+07 -9.47735e-09 7.65589e+07)
(1.1337e+08 -4.3984e+07 -1.78057e-08 2.44275e+07 3.37374e-08 7.7105e+07)
(1.2151e+08 -4.77098e+07 1.13779e-08 2.63907e+07 -2.39237e-09 7.04282e+07)
(1.3119e+08 -4.87322e+07 -2.49832e-08 2.86506e+07 -6.66678e-11 6.35949e+07)
(1.36359e+08 -4.71479e+07 -6.26766e-08 2.47804e+07 1.02967e-08 5.62936e+07)
(1.43101e+08 -4.25076e+07 8.61071e-11 2.12071e+07 -3.75905e-08 5.25492e+07)
(1.48005e+08 -3.81042e+07 -2.30828e-08 1.5007e+07 -1.97431e-08 5.11909e+07)
(1.53219e+08 -3.37251e+07 -2.38967e-09 1.17138e+07 -3.91536e-08 5.24995e+07)
(1.57042e+08 -3.03971e+07 6.30205e-08 7.34592e+06 2.13643e-08 5.41474e+07)
(1.60808e+08 -2.70831e+07 2.0683e-08 5.49494e+06 1.81448e-08 5.64983e+07)
(1.63434e+08 -2.39866e+07 4.28644e-14 2.29516e+06 6.7941e-15 5.79853e+07)
(1.66164e+08 -2.03813e+07 -5.20424e-08 823618 -2.33533e-08 5.95838e+07)
(1.67527e+08 -1.69774e+07 1.08287e-08 -1.9413e+06 -9.30704e-09 6.01076e+07)
(1.69063e+08 -1.28939e+07 2.82849e-08 -3.1822e+06 7.83456e-09 6.07497e+07)
(1.69372e+08 -9.17257e+06 -4.37876e-08 -5.55216e+06 -2.44639e-08 6.0503e+07)
(1.70259e+08 -5.08211e+06 -2.24936e-14 -6.33977e+06 -7.83366e-15 6.07065e+07)
(1.70126e+08 -1.59613e+06 -5.08948e-08 -8.15185e+06 -4.77531e-08 6.01631e+07)
(1.70637e+08 2.29004e+06 -4.31745e-09 -8.3809e+06 7.00217e-09 6.01177e+07)
(1.704e+08 5.39952e+06 -4.77499e-08 -9.71647e+06 -3.31269e-08 5.92829e+07)
(9.52248e+07 -3.60898e+07 -7.08908e-09 1.73302e+07 1.75869e-08 7.20406e+07)
(1.02254e+08 -4.18927e+07 2.41781e-09 1.89228e+07 1.72142e-08 6.48858e+07)
(1.13384e+08 -4.74493e+07 -2.38336e-08 2.67949e+07 -7.25468e-09 5.95301e+07)
(1.18951e+08 -4.89621e+07 -8.12352e-08 2.38436e+07 -4.04856e-11 5.06648e+07)
(1.2639e+08 -4.61803e+07 7.1098e-08 2.15602e+07 1.4894e-08 4.51123e+07)
(1.27858e+08 -4.20887e+07 1.2416e-07 1.36965e+07 -3.4466e-08 4.24665e+07)
(1.31197e+08 -3.82608e+07 2.70982e-09 1.04091e+07 -4.55794e-08 4.24819e+07)
(1.3757e+08 -3.56721e+07 -2.27275e-08 5.71133e+06 -2.03588e-08 4.29845e+07)
(1.44219e+08 -3.29943e+07 -8.71817e-08 4.52775e+06 -3.86124e-08 4.46241e+07)
(1.50009e+08 -3.02331e+07 -8.19004e-08 1.15958e+06 4.61346e-10 4.54869e+07)
(1.54097e+08 -2.679e+07 3.80024e-08 -163118 7.23511e-10 4.71206e+07)
(1.56048e+08 -2.33352e+07 4.41625e-08 -3.6815e+06 3.70341e-08 4.78414e+07)
(1.5841e+08 -1.9704e+07 -3.78085e-14 -5.25808e+06 -3.61188e-15 4.91155e+07)
(1.59113e+08 -1.66294e+07 3.1151e-08 -8.29212e+06 4.19336e-09 4.94799e+07)
(1.6022e+08 -1.3286e+07 -8.75629e-09 -9.62673e+06 1.27738e-08 5.02477e+07)
(1.60566e+08 -1.0368e+07 1.14327e-08 -1.20809e+07 2.84029e-08 5.05057e+07)
(1.61508e+08 -6.97697e+06 4.35567e-08 -1.31152e+07 2.27824e-08 5.11382e+07)
(1.61509e+08 -4.20748e+06 3.62651e-08 -1.49653e+07 3.2927e-08 5.10822e+07)
(1.62116e+08 -755343 -3.52539e-08 -1.56162e+07 -3.27103e-08 5.13118e+07)
(1.62002e+08 1.86986e+06 2.10097e-08 -1.69917e+07 6.89819e-09 5.08527e+07)
(9.95823e+07 -4.15322e+07 -2.76682e-08 2.11323e+07 5.012e-10 5.87427e+07)
(1.03962e+08 -4.52358e+07 -3.20184e-08 2.07613e+07 -9.64195e-10 4.74938e+07)
(1.14228e+08 -4.76992e+07 0 2.55164e+07 0 4.29479e+07)
(1.13233e+08 -4.33428e+07 -4.726e-08 1.56575e+07 7.27138e-09 3.86671e+07)
(1.167e+08 -4.01838e+07 -9.59096e-08 1.38786e+07 -3.5851e-08 3.91736e+07)
(1.22425e+08 -3.81101e+07 2.10142e-08 7.60358e+06 -2.6027e-08 3.90085e+07)
(1.27211e+08 -3.65363e+07 6.74712e-08 7.44451e+06 1.5733e-08 4.03966e+07)
(1.31007e+08 -3.46999e+07 4.77024e-08 3.04331e+06 4.00347e-08 4.0215e+07)
(1.35233e+08 -3.17774e+07 6.96362e-08 2.08507e+06 5.93548e-08 4.11953e+07)
(1.38913e+08 -2.88816e+07 -3.76047e-08 -2.32516e+06 1.82347e-09 4.09764e+07)
(1.43519e+08 -2.52594e+07 -7.22714e-08 -3.74264e+06 2.49293e-09 4.1933e+07)
(1.46763e+08 -2.21783e+07 -1.32458e-09 -7.63531e+06 9.97655e-12 4.17383e+07)
(1.50606e+08 -1.88457e+07 3.23821e-08 -8.8034e+06 1.33574e-10 4.25407e+07)
(1.53134e+08 -1.60229e+07 2.116e-08 -1.1991e+07 1.86656e-08 4.2415e+07)
(1.54597e+08 -1.27359e+07 1.29075e-08 -1.31759e+07 3.48338e-08 4.32085e+07)
(1.54472e+08 -9.97208e+06 -2.68489e-08 -1.59165e+07 -2.61324e-09 4.3184e+07)
(1.55186e+08 -6.96099e+06 -4.36297e-10 -1.69878e+07 -5.34526e-11 4.36538e+07)
(1.54656e+08 -4.62881e+06 8.80003e-08 -1.90718e+07 2.76288e-08 4.33916e+07)
(1.54835e+08 -1.77667e+06 4.12114e-08 -1.99752e+07 2.07928e-08 4.35266e+07)
(1.54751e+08 194368 -6.78135e-09 -2.14179e+07 2.5427e-08 4.33184e+07)
(1.02515e+08 -4.62229e+07 -5.42275e-08 2.32634e+07 2.32829e-08 4.38668e+07)
(1.01889e+08 -4.46319e+07 -5.13081e-08 2.01374e+07 1.12352e-08 3.66079e+07)
(1.05958e+08 -4.28734e+07 2.92638e-09 1.96796e+07 5.3341e-08 3.76912e+07)
(1.0844e+08 -3.88349e+07 2.30445e-08 1.17612e+07 2.20091e-08 3.60603e+07)
(1.13845e+08 -3.86456e+07 9.13715e-08 1.34738e+07 -1.73033e-08 3.81957e+07)
(1.16543e+08 -3.5677e+07 9.52722e-10 7.25792e+06 -1.60153e-10 3.71404e+07)
(1.20694e+08 -3.34076e+07 -3.53922e-08 7.25619e+06 5.47405e-08 3.83852e+07)
(1.24811e+08 -3.09355e+07 -5.75097e-08 1.37061e+06 3.14709e-08 3.78545e+07)
(1.28995e+08 -2.85326e+07 6.01102e-08 418967 1.51149e-08 3.88241e+07)
(1.32733e+08 -2.62255e+07 5.87986e-08 -4.59743e+06 1.60203e-08 3.84408e+07)
(1.3599e+08 -2.3478e+07 5.73342e-08 -5.79117e+06 1.61214e-08 3.90598e+07)
(1.38568e+08 -2.07484e+07 -4.34475e-08 -9.96448e+06 -3.82392e-08 3.8581e+07)
(1.41274e+08 -1.77968e+07 -3.08847e-08 -1.10972e+07 1.76806e-09 3.9053e+07)
(1.43686e+08 -1.50204e+07 -5.04291e-08 -1.45234e+07 -1.76327e-08 3.87489e+07)
(1.46556e+08 -1.20978e+07 -2.14895e-08 -1.5542e+07 -1.82453e-08 3.93041e+07)
(1.47885e+08 -9.52131e+06 -3.54306e-08 -1.82914e+07 -5.41685e-08 3.88779e+07)
(1.49517e+08 -6.8203e+06 -3.9805e-08 -1.91818e+07 -3.58531e-08 3.91007e+07)
(1.50065e+08 -4.6032e+06 -2.29853e-08 -2.12917e+07 -6.19744e-10 3.86967e+07)
(1.5042e+08 -2.07558e+06 1.50895e-08 -2.21227e+07 3.39011e-08 3.88636e+07)
(1.50226e+08 -300398 3.52148e-08 -2.35771e+07 1.05453e-08 3.86495e+07)
(9.95594e+07 -4.6787e+07 6.09518e-08 2.22782e+07 2.2961e-08 3.65513e+07)
(9.7444e+07 -4.19585e+07 -9.5117e-08 2.02765e+07 2.58368e-08 3.53161e+07)
(1.02549e+08 -4.12027e+07 -4.82039e-08 1.78441e+07 1.22349e-08 3.61179e+07)
(1.02985e+08 -3.67713e+07 2.02843e-08 1.37792e+07 -3.33705e-08 3.50291e+07)
(1.07002e+08 -3.53764e+07 2.40294e-08 1.20907e+07 2.11833e-08 3.57277e+07)
(1.1057e+08 -3.17558e+07 7.30363e-09 6.50119e+06 5.1729e-08 3.51214e+07)
(1.14513e+08 -3.04508e+07 2.24974e-08 5.10417e+06 2.0833e-08 3.58851e+07)
(1.18348e+08 -2.75055e+07 1.44448e-08 -88298.1 -2.80204e-08 3.54779e+07)
(1.22189e+08 -2.57334e+07 -4.61557e-08 -1.54152e+06 -3.99669e-08 3.61943e+07)
(1.25781e+08 -2.30123e+07 -5.70854e-08 -6.21454e+06 -1.40557e-08 3.587e+07)
(1.29419e+08 -2.09106e+07 3.17332e-08 -7.73468e+06 -4.94536e-09 3.65053e+07)
(1.32335e+08 -1.84385e+07 5.29357e-08 -1.16888e+07 1.50973e-08 3.61938e+07)
(1.35255e+08 -1.62509e+07 4.37508e-08 -1.2996e+07 3.77152e-08 3.66776e+07)
(1.37301e+08 -1.39483e+07 2.80977e-08 -1.62137e+07 -2.86099e-09 3.63262e+07)
(1.39368e+08 -1.14793e+07 6.08015e-09 -1.73803e+07 -2.08744e-08 3.65964e+07)
(1.40606e+08 -9.03721e+06 2.13744e-08 -2.00299e+07 1.80765e-08 3.61728e+07)
(1.42203e+08 -6.62921e+06 -4.93764e-08 -2.09129e+07 2.2603e-08 3.6387e+07)
(1.43152e+08 -4.48275e+06 1.66847e-08 -2.28549e+07 3.65092e-08 3.60892e+07)
(1.44494e+08 -2.23253e+06 2.11632e-08 -2.34974e+07 -9.89832e-10 3.62989e+07)
(1.4476e+08 -427766 -5.3416e-08 -2.47958e+07 -2.60575e-08 3.59894e+07)
(9.21621e+07 -4.53385e+07 8.50107e-08 2.3439e+07 -3.15835e-09 3.46803e+07)
(9.21198e+07 -4.10352e+07 3.86417e-08 2.14833e+07 -7.45841e-08 3.40809e+07)
(9.54113e+07 -3.75213e+07 -2.43698e-08 1.69894e+07 -2.24262e-08 3.37202e+07)
(9.74952e+07 -3.34283e+07 -6.84066e-08 1.26551e+07 -8.16196e-09 3.30451e+07)
(1.01858e+08 -3.1955e+07 -4.09434e-08 9.70346e+06 1.24861e-08 3.34684e+07)
(1.04722e+08 -2.86745e+07 -8.55989e-10 4.94735e+06 2.52582e-10 3.29007e+07)
(1.08976e+08 -2.72029e+07 -1.05317e-08 2.74726e+06 -5.20884e-08 3.3517e+07)
(1.12284e+08 -2.45496e+07 8.3173e-08 -1.95183e+06 3.14432e-08 3.30997e+07)
(1.16219e+08 -2.28835e+07 5.80089e-08 -3.75128e+06 1.11665e-08 3.37403e+07)
(1.19417e+08 -2.05498e+07 -3.1398e-08 -8.01645e+06 7.4663e-09 3.34202e+07)
(1.22862e+08 -1.86431e+07 -2.98999e-08 -9.49522e+06 6.85025e-09 3.40102e+07)
(1.25648e+08 -1.63963e+07 -1.38266e-08 -1.31807e+07 5.06612e-08 3.37401e+07)
(1.28634e+08 -1.43653e+07 -1.04215e-09 -1.43939e+07 2.11344e-10 3.42721e+07)
(1.30943e+08 -1.22442e+07 2.99033e-08 -1.74623e+07 -2.81336e-08 3.40443e+07)
(1.33475e+08 -1.02281e+07 -4.04758e-09 -1.84239e+07 2.28023e-08 3.45154e+07)
(1.35052e+08 -8.27481e+06 3.68757e-08 -2.07434e+07 5.84143e-08 3.42925e+07)
(1.36884e+08 -6.30634e+06 -2.81795e-09 -2.13511e+07 2.15358e-08 3.46597e+07)
(1.37779e+08 -4.52216e+06 -3.95003e-08 -2.29639e+07 -3.51932e-08 3.44445e+07)
(1.39048e+08 -2.53327e+06 3.95529e-08 -2.33491e+07 -6.1122e-09 3.47096e+07)
(1.39551e+08 -988939 3.78837e-08 -2.42502e+07 1.42175e-08 3.45901e+07)
(8.21076e+07 -4.35137e+07 1.45018e-07 2.48732e+07 -1.04247e-07 3.20942e+07)
(8.3768e+07 -3.83274e+07 4.92584e-08 2.00628e+07 -1.9127e-08 3.11492e+07)
(8.85001e+07 -3.46844e+07 -6.07164e-08 1.53174e+07 5.53281e-08 3.11453e+07)
(9.06628e+07 -3.10196e+07 9.46486e-10 1.08591e+07 -3.60507e-10 3.04566e+07)
(9.53319e+07 -2.88314e+07 -8.98364e-08 7.3844e+06 -2.81801e-08 3.08149e+07)
(9.84237e+07 -2.59791e+07 1.30615e-08 2.77942e+06 -3.48613e-08 3.03609e+07)
(1.02707e+08 -2.43822e+07 -9.41569e-08 241928 3.87469e-09 3.08846e+07)
(1.06076e+08 -2.20218e+07 -6.82421e-08 -4.12885e+06 2.30772e-08 3.0584e+07)
(1.09947e+08 -2.05334e+07 1.09181e-07 -6.05634e+06 1.94901e-08 3.11671e+07)
(1.13154e+08 -1.84518e+07 4.53505e-08 -9.96567e+06 3.96396e-08 3.09564e+07)
(1.16584e+08 -1.6905e+07 -5.17114e-08 -1.14424e+07 -1.04189e-08 3.15426e+07)
(1.19354e+08 -1.49961e+07 7.07103e-08 -1.47551e+07 3.04229e-08 3.13797e+07)
(1.22274e+08 -1.33568e+07 -8.56154e-09 -1.58168e+07 -9.68643e-08 3.19373e+07)
(1.24503e+08 -1.15447e+07 -6.26794e-08 -1.84993e+07 -5.54929e-08 3.18012e+07)
(1.26935e+08 -9.81597e+06 -1.10461e-07 -1.91909e+07 -1.76359e-08 3.23232e+07)
(1.2864e+08 -8.0686e+06 -2.12795e-14 -2.12613e+07 5.50012e-15 3.22136e+07)
(1.30667e+08 -6.37451e+06 1.93864e-09 -2.16026e+07 -4.57797e-08 3.27194e+07)
(1.31882e+08 -4.79725e+06 -3.77767e-08 -2.30309e+07 -3.47699e-08 3.26553e+07)
(1.33578e+08 -3.23359e+06 -7.47725e-08 -2.30439e+07 -2.43957e-08 3.31602e+07)
(1.34414e+08 -1.98559e+06 8.24807e-08 -2.36927e+07 2.13897e-08 3.32164e+07)
(7.09189e+07 -4.01302e+07 -6.2376e-08 2.417e+07 1.53725e-08 2.85267e+07)
(7.48369e+07 -3.55141e+07 3.47661e-08 1.85289e+07 8.83945e-08 2.80098e+07)
(7.99703e+07 -3.16012e+07 2.68187e-08 1.31377e+07 2.19918e-08 2.79324e+07)
(8.37069e+07 -2.82936e+07 7.81167e-08 8.23479e+06 -3.49486e-08 2.75825e+07)
(8.84877e+07 -2.61168e+07 1.67696e-09 4.34944e+06 -7.36262e-10 2.78511e+07)
(9.21338e+07 -2.35651e+07 -1.03313e-08 -84435.1 3.63206e-08 2.76148e+07)
(9.64896e+07 -2.20627e+07 2.44255e-08 -2.91202e+06 2.06511e-08 2.80733e+07)
(9.99781e+07 -2.00079e+07 -1.09619e-07 -6.89642e+06 -1.52688e-08 2.79245e+07)
(1.0387e+08 -1.86865e+07 -5.3428e-08 -8.95977e+06 -7.82043e-09 2.84732e+07)
(1.07059e+08 -1.69408e+07 5.6084e-08 -1.24395e+07 -2.18869e-08 2.83859e+07)
(1.10472e+08 -1.56066e+07 -7.08077e-08 -1.39072e+07 -2.84061e-08 2.89694e+07)
(1.13247e+08 -1.40481e+07 2.49186e-08 -1.68391e+07 -9.25838e-09 2.89223e+07)
(1.16194e+08 -1.26705e+07 1.64549e-07 -1.78082e+07 -7.79696e-09 2.95157e+07)
(1.18481e+08 -1.1252e+07 4.26666e-08 -2.01632e+07 3.61466e-08 2.94953e+07)
(1.20984e+08 -9.86219e+06 -8.5661e-08 -2.0686e+07 3.05981e-08 3.00894e+07)
(1.22728e+08 -8.56218e+06 -4.07392e-08 -2.24374e+07 -1.03115e-08 3.00871e+07)
(1.24821e+08 -7.20225e+06 2.22748e-11 -2.25485e+07 -2.41064e-08 3.06816e+07)
(1.26042e+08 -6.01404e+06 1.90099e-08 -2.37089e+07 1.69456e-08 3.07e+07)
(1.27837e+08 -4.74861e+06 3.00352e-10 -2.34785e+07 -1.07097e-10 3.13077e+07)
(1.28723e+08 -3.76028e+06 -4.95107e-08 -2.40272e+07 1.56814e-09 3.14086e+07)
(5.9115e+07 -3.57503e+07 1.72997e-08 2.29318e+07 8.78663e-09 2.4614e+07)
(6.46779e+07 -3.16211e+07 -7.06589e-08 1.62863e+07 6.16247e-10 2.42892e+07)
(7.10371e+07 -2.83045e+07 3.93274e-08 1.06116e+07 -2.05755e-08 2.44946e+07)
(7.55308e+07 -2.5479e+07 1.26956e-08 5.45309e+06 -4.17587e-08 2.42952e+07)
(8.09981e+07 -2.34378e+07 3.7373e-09 1.3799e+06 1.01011e-07 2.47134e+07)
(8.50231e+07 -2.13785e+07 -2.5592e-08 -2.95223e+06 -2.05332e-08 2.46213e+07)
(8.97328e+07 -1.9959e+07 6.5469e-09 -5.84788e+06 -3.58635e-08 2.51655e+07)
(9.33902e+07 -1.83526e+07 0 -9.55309e+06 0 2.51511e+07)
(9.74637e+07 -1.71768e+07 -4.60834e-08 -1.15817e+07 -3.95305e-08 2.57646e+07)
(1.00709e+08 -1.58363e+07 4.278e-09 -1.47108e+07 -3.20618e-08 2.57994e+07)
(1.04237e+08 -1.47209e+07 4.19211e-08 -1.60719e+07 6.8222e-08 2.64494e+07)
(1.07014e+08 -1.35385e+07 -1.36443e-07 -1.86434e+07 -2.2923e-08 2.65112e+07)
(1.10061e+08 -1.24191e+07 4.21846e-08 -1.94545e+07 8.5403e-09 2.71818e+07)
(1.12352e+08 -1.13357e+07 1.04176e-07 -2.14955e+07 3.45219e-08 2.72569e+07)
(1.1498e+08 -1.02188e+07 4.02465e-08 -2.18328e+07 3.4901e-08 2.79441e+07)
(1.16799e+08 -9.2138e+06 1.93982e-08 -2.33753e+07 -8.6219e-09 2.80271e+07)
(1.19074e+08 -8.15101e+06 1.95991e-08 -2.32949e+07 1.65652e-08 2.87337e+07)
(1.20444e+08 -7.23325e+06 -1.71423e-08 -2.43577e+07 7.67426e-09 2.88258e+07)
(1.22446e+08 -6.28455e+06 2.09745e-08 -2.39265e+07 3.92807e-08 2.95558e+07)
(1.23466e+08 -5.51529e+06 2.49681e-09 -2.44681e+07 2.28701e-08 2.96994e+07)
(4.77271e+07 -3.05273e+07 4.33277e-08 2.03703e+07 -2.94281e-08 2.04292e+07)
(5.48113e+07 -2.74159e+07 1.00192e-09 1.33453e+07 -6.04199e-10 2.0447e+07)
(6.19063e+07 -2.47757e+07 9.07772e-10 7.29007e+06 -5.44483e-10 2.07589e+07)
(6.75265e+07 -2.26376e+07 6.75766e-08 1.98187e+06 1.07243e-07 2.08525e+07)
(7.32914e+07 -2.10256e+07 -2.61286e-08 -2.26682e+06 -2.05789e-08 2.13074e+07)
(7.79953e+07 -1.9462e+07 9.65197e-08 -6.4831e+06 -5.62175e-08 2.14536e+07)
(8.28163e+07 -1.83735e+07 -2.85673e-08 -9.45894e+06 1.64481e-08 2.20072e+07)
(8.68436e+07 -1.71686e+07 -2.80678e-08 -1.28821e+07 1.59311e-08 2.21885e+07)
(9.09404e+07 -1.62827e+07 -4.59716e-08 -1.4926e+07 -3.88819e-08 2.28043e+07)
(9.43884e+07 -1.53071e+07 -7.48782e-08 -1.77042e+07 4.14215e-08 2.30053e+07)
(9.78976e+07 -1.44588e+07 4.4469e-08 -1.90272e+07 6.20501e-09 2.36611e+07)
(1.00807e+08 -1.36351e+07 2.40659e-08 -2.12446e+07 -7.26591e-08 2.38687e+07)
(1.03827e+08 -1.27645e+07 -6.24821e-08 -2.19763e+07 -2.44048e-08 2.45553e+07)
(1.06219e+08 -1.20509e+07 9.50431e-10 -2.36879e+07 2.78283e-08 2.47593e+07)
(1.08837e+08 -1.11602e+07 1.56442e-09 -2.39125e+07 2.69342e-08 2.54774e+07)
(1.10726e+08 -1.05288e+07 -2.02653e-08 -2.51597e+07 -1.62362e-08 2.56698e+07)
(1.13035e+08 -9.66423e+06 1.65801e-08 -2.49417e+07 -8.99069e-09 2.64281e+07)
(1.14449e+08 -9.07176e+06 3.00931e-09 -2.5773e+07 2.43208e-08 2.66027e+07)
(1.16551e+08 -8.33428e+06 -5.27451e-08 -2.51632e+07 -2.20207e-08 2.74162e+07)
(1.17541e+08 -7.75867e+06 -1.82588e-08 -2.5616e+07 -1.4978e-08 2.75774e+07)
(3.65297e+07 -2.44044e+07 -1.60496e-08 1.6775e+07 -9.00995e-09 1.59914e+07)
(4.47302e+07 -2.24293e+07 -4.04883e-08 9.60868e+06 2.7874e-08 1.63017e+07)
(5.26882e+07 -2.07701e+07 -5.84671e-08 3.5906e+06 1.18767e-07 1.68836e+07)
(5.90095e+07 -1.93999e+07 9.07988e-08 -1.6669e+06 -2.31612e-08 1.72028e+07)
(6.53676e+07 -1.83536e+07 1.50275e-08 -5.86025e+06 -8.52931e-08 1.78522e+07)
(7.04721e+07 -1.73831e+07 -6.6283e-09 -9.85688e+06 4.10371e-08 1.81846e+07)
(7.56943e+07 -1.66511e+07 5.08707e-08 -1.27481e+07 2.00332e-09 1.88838e+07)
(7.99192e+07 -1.59342e+07 5.26028e-08 -1.58407e+07 -3.44406e-08 1.92236e+07)
(8.43066e+07 -1.53193e+07 2.3558e-08 -1.77773e+07 1.84787e-08 1.99588e+07)
(8.78165e+07 -1.47586e+07 -6.90921e-08 -2.01657e+07 1.16194e-08 2.02952e+07)
(9.15747e+07 -1.41583e+07 -4.33778e-08 -2.13743e+07 -6.83172e-08 2.10601e+07)
(9.44582e+07 -1.3692e+07 2.15622e-08 -2.31862e+07 1.74298e-08 2.13816e+07)
(9.77313e+07 -1.30762e+07 -6.04655e-08 -2.38092e+07 8.13289e-09 2.21766e+07)
(1.00054e+08 -1.2666e+07 -3.93615e-08 -2.51446e+07 -4.70268e-09 2.24728e+07)
(1.02938e+08 -1.20518e+07 1.42336e-08 -2.52636e+07 -3.81258e-08 2.33022e+07)
(1.04772e+08 -1.16767e+07 3.34127e-08 -2.62196e+07 -2.11915e-08 2.35657e+07)
(1.07297e+08 -1.10931e+07 -3.0749e-08 -2.58584e+07 1.98381e-08 2.44315e+07)
(1.08757e+08 -1.07559e+07 1.44135e-08 -2.65521e+07 -9.25026e-09 2.46613e+07)
(1.11025e+08 -1.02568e+07 -3.8402e-09 -2.57889e+07 -2.41103e-08 2.55708e+07)
(1.12047e+08 -9.87211e+06 -4.43404e-08 -2.63019e+07 3.07868e-09 2.57235e+07)
(2.65071e+07 -1.81389e+07 -1.42391e-08 1.22079e+07 -9.98619e-09 1.16145e+07)
(3.55264e+07 -1.73903e+07 -8.49287e-08 5.2112e+06 1.08148e-07 1.22213e+07)
(4.39051e+07 -1.67961e+07 -6.10499e-08 -818356 6.21286e-09 1.2926e+07)
(5.08929e+07 -1.6288e+07 2.30436e-08 -5.86766e+06 -1.3789e-07 1.35076e+07)
(5.74644e+07 -1.59804e+07 2.47756e-08 -1.00362e+07 2.02338e-08 1.42285e+07)
(6.30525e+07 -1.56249e+07 -4.79332e-08 -1.37514e+07 -3.99606e-08 1.47904e+07)
(6.83568e+07 -1.54523e+07 5.65089e-10 -1.66056e+07 -4.22376e-10 1.55254e+07)
(7.29158e+07 -1.5187e+07 -4.79128e-08 -1.93589e+07 -5.07725e-10 1.60671e+07)
(7.73024e+07 -1.50342e+07 9.06992e-08 -2.12612e+07 3.83956e-08 1.68124e+07)
(8.10553e+07 -1.48194e+07 2.2171e-08 -2.32885e+07 -1.61797e-08 1.733e+07)
(8.47552e+07 -1.46224e+07 -2.00829e-08 -2.4473e+07 1.4612e-08 1.80847e+07)
(8.78452e+07 -1.44394e+07 8.29887e-08 -2.59364e+07 3.67565e-08 1.85727e+07)
(9.10205e+07 -1.41729e+07 -2.04352e-09 -2.65532e+07 -3.00081e-08 1.93402e+07)
(9.35421e+07 -1.40309e+07 -3.69209e-08 -2.75663e+07 -4.05137e-09 1.97927e+07)
(9.63227e+07 -1.36852e+07 -9.17654e-08 -2.77203e+07 -2.34456e-08 2.05807e+07)
(9.83195e+07 -1.36436e+07 -1.5837e-08 -2.83381e+07 1.13812e-08 2.09944e+07)
(1.00842e+08 -1.31934e+07 5.24204e-08 -2.81323e+07 1.89623e-08 2.1813e+07)
(1.02288e+08 -1.31613e+07 -5.57956e-08 -2.85662e+07 -4.2858e-08 2.21164e+07)
(1.04717e+08 -1.27739e+07 3.61595e-08 -2.78742e+07 2.80629e-08 2.30529e+07)
(1.05326e+08 -1.26736e+07 7.61871e-08 -2.82017e+07 1.77083e-08 2.31373e+07)
(1.71553e+07 -1.12554e+07 -5.97736e-08 6.41634e+06 7.80239e-08 7.0715e+06)
(2.67262e+07 -1.18212e+07 -1.10972e-08 -168154 5.34777e-08 7.96741e+06)
(3.55414e+07 -1.23454e+07 -4.14941e-08 -5.80537e+06 -9.18413e-08 8.92082e+06)
(4.29472e+07 -1.2744e+07 2.46914e-08 -1.04881e+07 2.02704e-08 9.73772e+06)
(4.98626e+07 -1.31855e+07 2.72804e-08 -1.43559e+07 -2.34683e-08 1.0652e+07)
(5.57333e+07 -1.34855e+07 5.72334e-10 -1.76948e+07 -4.88424e-10 1.14115e+07)
(6.13108e+07 -1.38279e+07 -2.39449e-08 -2.0307e+07 -1.82408e-08 1.23012e+07)