/*--------------------------------*- C++ -*----------------------------------*\
| =========                 |                                                 |
| \\      /  F ield         | OpenFOAM: The Open Source CFD Toolbox           |
|  \\    /   O peration     | Version:  v2012                                 |
|   \\  /    A nd           | Website:  www.openfoam.com                      |
|    \\/     M anipulation  |                                                 |
\*---------------------------------------------------------------------------*/
FoamFile
{
    version     2.0;
    format      ascii;
    class       volVectorField;
    location    "5";
    object      D_0;
}
// * * * * * * * * * * * * * * * * * * * * * * * * * * * * * * * * * * * * * //

dimensions      [0 1 0 0 0 0 0];


internalField   nonuniform List<vector> 
8000
(
(2.28506e-05 -0.000950784 0)
(4.43831e-05 -0.000955598 0)
(2.11901e-05 -0.000967596 0)
(4.21263e-05 -0.000972261 0)
(2.00352e-05 -0.000982774 0)
(4.02233e-05 -0.000986956 0)
(1.91642e-05 -0.000996237 0)
(3.85954e-05 -0.000999912 0)
(1.84328e-05 -0.00100826 0)
(3.71732e-05 -0.00101149 0)
(1.77841e-05 -0.00101912 0)
(3.59155e-05 -0.00102195 0)
(1.72028e-05 -0.00102901 0)
(3.48e-05 -0.00103149 0)
(1.66839e-05 -0.00103808 0)
(3.38106e-05 -0.00104026 0)
(1.62231e-05 -0.00104645 0)
(3.29327e-05 -0.00104837 0)
(1.58147e-05 -0.00105423 0)
(3.21528e-05 -0.00105594 0)
(1.5453e-05 -0.00106153 0)
(3.14584e-05 -0.00106305 0)
(1.51321e-05 -0.00106842 0)
(3.08385e-05 -0.00106978 0)
(1.48467e-05 -0.00107497 0)
(3.02832e-05 -0.0010762 0)
(1.45917e-05 -0.00108124 0)
(2.97826e-05 -0.00108235 0)
(1.43613e-05 -0.00108728 0)
(2.93261e-05 -0.00108828 0)
(1.41491e-05 -0.00109312 0)
(2.89018e-05 -0.00109403 0)
(1.39482e-05 -0.00109881 0)
(2.84971e-05 -0.00109964 0)
(1.37555e-05 -0.00110436 0)
(2.81012e-05 -0.00110512 0)
(1.35834e-05 -0.00110978 0)
(2.77103e-05 -0.00111052 0)
(1.34826e-05 -0.00111506 0)
(2.73279e-05 -0.00111583 0)
(9.37328e-05 -0.000947499 0)
(0.000113938 -0.000951334 0)
(8.84202e-05 -0.00096428 0)
(0.000107913 -0.00096783 0)
(8.39595e-05 -0.000979348 0)
(0.000102785 -0.000982341 0)
(8.01765e-05 -0.000992655 0)
(9.84093e-05 -0.000995108 0)
(7.69212e-05 -0.00100451 0)
(9.46297e-05 -0.00100648 0)
(7.40863e-05 -0.00101521 0)
(9.13259e-05 -0.00101675 0)
(7.15965e-05 -0.00102495 0)
(8.8416e-05 -0.00102609 0)
(6.93982e-05 -0.00103389 0)
(8.58422e-05 -0.00103468 0)
(6.74517e-05 -0.00104216 0)
(8.35605e-05 -0.00104263 0)
(6.57257e-05 -0.00104985 0)
(8.15345e-05 -0.00105005 0)
(6.41933e-05 -0.00105705 0)
(7.97325e-05 -0.00105702 0)
(6.28303e-05 -0.00106386 0)
(7.8126e-05 -0.00106361 0)
(6.16145e-05 -0.00107032 0)
(7.66888e-05 -0.00106989 0)
(6.05259e-05 -0.0010765 0)
(7.53971e-05 -0.00107591 0)
(5.95464e-05 -0.00108245 0)
(7.42291e-05 -0.00108171 0)
(5.86613e-05 -0.00108819 0)
(7.31653e-05 -0.00108732 0)
(5.78595e-05 -0.00109377 0)
(7.21882e-05 -0.00109279 0)
(5.71352e-05 -0.0010992 0)
(7.12807e-05 -0.00109812 0)
(5.64905e-05 -0.00110453 0)
(7.04244e-05 -0.00110333 0)
(5.5936e-05 -0.00110974 0)
(6.95964e-05 -0.00110842 0)
(0.000164271 -0.000941897 0)
(0.000183259 -0.000944711 0)
(0.000155529 -0.000958005 0)
(0.000173863 -0.000960426 0)
(0.00014798 -0.0009725 0)
(0.000165731 -0.000974241 0)
(0.00014142 -0.000985325 0)
(0.000158691 -0.000986429 0)
(0.000135697 -0.000996762 0)
(0.000152567 -0.000997319 0)
(0.000130686 -0.00100708 0)
(0.000147209 -0.00100716 0)
(0.000126284 -0.00101649 0)
(0.000142495 -0.00101613 0)
(0.000122402 -0.00102512 0)
(0.000138333 -0.00102437 0)
(0.000118968 -0.0010331 0)
(0.000134646 -0.001032 0)
(0.000115924 -0.00104054 0)
(0.000131373 -0.00103912 0)
(0.00011322 -0.0010475 0)
(0.000128462 -0.00104581 0)
(0.000110813 -0.00105408 0)
(0.000125866 -0.00105214 0)
(0.000108665 -0.00106033 0)
(0.000123544 -0.00105817 0)
(0.000106743 -0.0010663 0)
(0.00012146 -0.00106394 0)
(0.000105016 -0.00107204 0)
(0.00011958 -0.0010695 0)
(0.000103458 -0.00107759 0)
(0.000117874 -0.00107489 0)
(0.000102048 -0.00108299 0)
(0.000116314 -0.00108012 0)
(0.000100768 -0.00108825 0)
(0.000114872 -0.00108523 0)
(9.96099e-05 -0.0010934 0)
(0.000113524 -0.00109022 0)
(9.85683e-05 -0.00109845 0)
(0.000112242 -0.00109509 0)
(0.000234653 -0.000933855 0)
(0.000252437 -0.000935408 0)
(0.000222494 -0.000948951 0)
(0.000239734 -0.000950055 0)
(0.000211959 -0.000962547 0)
(0.000228744 -0.000962922 0)
(0.000202763 -0.000974589 0)
(0.000219193 -0.000974273 0)
(0.000194697 -0.000985344 0)
(0.000210844 -0.000984429 0)
(0.000187601 -0.000995064 0)
(0.00020351 -0.000993623 0)
(0.000181346 -0.00100393 0)
(0.000197046 -0.00100202 0)
(0.000175821 -0.00101208 0)
(0.000191333 -0.00100974 0)
(0.000170932 -0.00101961 0)
(0.000186273 -0.0010169 0)
(0.000166598 -0.00102663 0)
(0.000181782 -0.00102357 0)
(0.000162747 -0.00103321 0)
(0.000177787 -0.00102985 0)
(0.00015932 -0.00103943 0)
(0.000174226 -0.00103579 0)
(0.000156262 -0.00104534 0)
(0.000171044 -0.00104145 0)
(0.000153527 -0.00105098 0)
(0.000168191 -0.00104686 0)
(0.000151072 -0.00105641 0)
(0.000165622 -0.00105208 0)
(0.00014886 -0.00106166 0)
(0.000163297 -0.00105713 0)
(0.000146858 -0.00106675 0)
(0.000161177 -0.00106204 0)
(0.00014504 -0.00107172 0)
(0.000159226 -0.00106682 0)
(0.000143383 -0.00107658 0)
(0.000157406 -0.00107148 0)
(0.00014187 -0.00108134 0)
(0.000155681 -0.00107601 0)
(0.000304702 -0.000923399 0)
(0.00032131 -0.000923615 0)
(0.000289286 -0.000937195 0)
(0.000305472 -0.000936884 0)
(0.000275884 -0.000949629 0)
(0.000291758 -0.000948549 0)
(0.000264168 -0.000960637 0)
(0.000279824 -0.000958841 0)
(0.000253875 -0.000970476 0)
(0.000269372 -0.000968058 0)
(0.000244803 -0.000979382 0)
(0.000260174 -0.000976413 0)
(0.00023679 -0.000987516 0)
(0.000252052 -0.000984052 0)
(0.000229702 -0.000994999 0)
(0.000244866 -0.000991089 0)
(0.000223423 -0.00100193 0)
(0.000238497 -0.000997618 0)
(0.000217852 -0.00100839 0)
(0.000232841 -0.00100372 0)
(0.000212903 -0.00101445 0)
(0.000227811 -0.00100945 0)
(0.000208498 -0.00102018 0)
(0.00022333 -0.00101488 0)
(0.000204569 -0.00102562 0)
(0.000219327 -0.00102005 0)
(0.000201057 -0.00103083 0)
(0.000215742 -0.001025 0)
(0.000197907 -0.00103583 0)
(0.000212519 -0.00102977 0)
(0.000195071 -0.00104066 0)
(0.000209607 -0.00103438 0)
(0.000192508 -0.00104535 0)
(0.000206959 -0.00103886 0)
(0.00019018 -0.00104993 0)
(0.000204528 -0.00104321 0)
(0.000188055 -0.00105439 0)
(0.000202271 -0.00104745 0)
(0.000186105 -0.00105876 0)
(0.000200141 -0.00105156 0)
(0.000374222 -0.000910648 0)
(0.000389704 -0.000909481 0)
(0.000355781 -0.000922856 0)
(0.000370971 -0.000921091 0)
(0.000339702 -0.000933878 0)
(0.000354723 -0.00093131 0)
(0.00032562 -0.000943631 0)
(0.000340562 -0.000940332 0)
(0.000313233 -0.000952351 0)
(0.000328144 -0.000948423 0)
(0.000302305 -0.000960254 0)
(0.000317203 -0.000955767 0)
(0.000292644 -0.000967483 0)
(0.000307534 -0.000962493 0)
(0.00028409 -0.000974145 0)
(0.000298971 -0.000968699 0)
(0.000276505 -0.000980322 0)
(0.000291376 -0.000974463 0)
(0.000269773 -0.000986089 0)
(0.00028463 -0.000979856 0)
(0.00026379 -0.000991507 0)
(0.00027863 -0.000984932 0)
(0.000258464 -0.000996629 0)
(0.000273284 -0.000989742 0)
(0.000253715 -0.0010015 0)
(0.000268512 -0.000994324 0)
(0.000249472 -0.00100616 0)
(0.000264242 -0.000998712 0)
(0.000245669 -0.00101063 0)
(0.000260408 -0.00100294 0)
(0.00024225 -0.00101496 0)
(0.00025695 -0.00100702 0)
(0.000239163 -0.00101915 0)
(0.000253812 -0.00101098 0)
(0.000236363 -0.00102323 0)
(0.000250942 -0.00101482 0)
(0.000233808 -0.00102722 0)
(0.000248288 -0.00101855 0)
(0.000231462 -0.00103111 0)
(0.000245799 -0.00102215 0)
(0.000443055 -0.000895742 0)
(0.000457476 -0.000893163 0)
(0.000421863 -0.000906098 0)
(0.000436127 -0.000902864 0)
(0.000403337 -0.000915476 0)
(0.000417576 -0.000911419 0)
(0.000387085 -0.000923771 0)
(0.000401381 -0.000918981 0)
(0.000372772 -0.00093119 0)
(0.00038716 -0.000925774 0)
(0.000360131 -0.000937924 0)
(0.000374618 -0.000931955 0)
(0.000348947 -0.000944098 0)
(0.000363525 -0.000937629 0)
(0.000339037 -0.000949799 0)
(0.000353696 -0.000942875 0)
(0.000330246 -0.000955097 0)
(0.000344973 -0.000947759 0)
(0.000322439 -0.000960052 0)
(0.000337222 -0.000952336 0)
(0.000315498 -0.000964715 0)
(0.000330327 -0.000956652 0)
(0.000309319 -0.00096913 0)
(0.000324185 -0.000960746 0)
(0.000303811 -0.000973333 0)
(0.000318704 -0.000964651 0)
(0.000298892 -0.000977355 0)
(0.000313804 -0.000968393 0)
(0.000294487 -0.000981222 0)
(0.000309409 -0.000971995 0)
(0.000290532 -0.000984956 0)
(0.000305452 -0.000975474 0)
(0.000286966 -0.000988575 0)
(0.000301872 -0.000978844 0)
(0.000283737 -0.000992095 0)
(0.000298608 -0.000982111 0)
(0.000280797 -0.000995525 0)
(0.000295604 -0.000985271 0)
(0.000278101 -0.000998867 0)
(0.000292803 -0.000988314 0)
(0.000511054 -0.000878823 0)
(0.000524488 -0.000874822 0)
(0.000487422 -0.000887103 0)
(0.000500837 -0.000882406 0)
(0.000466714 -0.000894636 0)
(0.000480245 -0.000889112 0)
(0.000448518 -0.000901295 0)
(0.000462238 -0.000895049 0)
(0.000432472 -0.000907256 0)
(0.000446404 -0.000900399 0)
(0.000418285 -0.00091268 0)
(0.000432423 -0.000905285 0)
(0.000405722 -0.000917668 0)
(0.000420048 -0.000909787 0)
(0.000394583 -0.000922291 0)
(0.000409074 -0.000913965 0)
(0.000384695 -0.0009266 0)
(0.000399332 -0.000917869 0)
(0.000375911 -0.000930644 0)
(0.000390672 -0.000921539 0)
(0.000368099 -0.000934461 0)
(0.000382967 -0.000925011 0)
(0.000361144 -0.000938083 0)
(0.000376104 -0.000928313 0)
(0.000354946 -0.000941539 0)
(0.000369983 -0.000931469 0)
(0.000349412 -0.000944851 0)
(0.000364513 -0.000934498 0)
(0.000344463 -0.000948039 0)
(0.000359614 -0.000937416 0)
(0.000340023 -0.000951119 0)
(0.000355212 -0.000940235 0)
(0.000336029 -0.000954103 0)
(0.000351239 -0.000942964 0)
(0.00033242 -0.000957004 0)
(0.00034763 -0.000945604 0)
(0.000329142 -0.000959827 0)
(0.000344326 -0.000948149 0)
(0.000326146 -0.000962571 0)
(0.000341265 -0.000950587 0)
(0.000578079 -0.000860045 0)
(0.000590608 -0.000854634 0)
(0.000552347 -0.000866069 0)
(0.000564993 -0.000859935 0)
(0.000529748 -0.000871594 0)
(0.000542648 -0.000864645 0)
(0.000509858 -0.000876473 0)
(0.000523074 -0.000868825 0)
(0.000492295 -0.000880844 0)
(0.000505835 -0.000872612 0)
(0.000476749 -0.000884839 0)
(0.000490596 -0.000876095 0)
(0.000462968 -0.000888535 0)
(0.000477095 -0.000879328 0)
(0.00045074 -0.000891981 0)
(0.000465114 -0.00088235 0)
(0.000439879 -0.000895214 0)
(0.000454471 -0.000885193 0)
(0.000430224 -0.000898265 0)
(0.000445008 -0.000887883 0)
(0.000421636 -0.000901161 0)
(0.000436586 -0.000890444 0)
(0.000413991 -0.000903923 0)
(0.000429084 -0.000892893 0)
(0.000407177 -0.00090657 0)
(0.000422396 -0.000895245 0)
(0.000401097 -0.000909115 0)
(0.000416424 -0.000897511 0)
(0.000395664 -0.000911571 0)
(0.000411082 -0.0008997 0)
(0.000390798 -0.000913949 0)
(0.000406291 -0.000901818 0)
(0.000386428 -0.000916255 0)
(0.000401978 -0.000903868 0)
(0.00038249 -0.000918497 0)
(0.000398076 -0.000905849 0)
(0.000378924 -0.000920676 0)
(0.00039452 -0.000907751 0)
(0.000375676 -0.000922789 0)
(0.000391248 -0.000909558 0)
(0.000643995 -0.000839573 0)
(0.000655704 -0.000832781 0)
(0.000616524 -0.000843206 0)
(0.000628486 -0.00083568 0)
(0.000592347 -0.0008466 0)
(0.000604693 -0.000838285 0)
(0.000571032 -0.000849585 0)
(0.000583811 -0.000840609 0)
(0.000552183 -0.000852266 0)
(0.000565392 -0.000842743 0)
(0.000535479 -0.000854741 0)
(0.000549091 -0.00084474 0)
(0.000520656 -0.000857061 0)
(0.000534632 -0.000846629 0)
(0.00050749 -0.000859256 0)
(0.000521792 -0.000848427 0)
(0.000495789 -0.000861343 0)
(0.000510377 -0.000850148 0)
(0.000485382 -0.00086334 0)
(0.000500223 -0.000851805 0)
(0.000476121 -0.000865258 0)
(0.000491185 -0.000853405 0)
(0.000467875 -0.000867109 0)
(0.000483134 -0.000854958 0)
(0.000460528 -0.000868901 0)
(0.000475958 -0.000856466 0)
(0.000453975 -0.000870639 0)
(0.000469555 -0.000857935 0)
(0.000448124 -0.000872328 0)
(0.000463834 -0.000859365 0)
(0.000442892 -0.000873972 0)
(0.000458713 -0.000860756 0)
(0.000438202 -0.000875572 0)
(0.000454115 -0.000862108 0)
(0.000433986 -0.000877131 0)
(0.000449971 -0.000863413 0)
(0.000430182 -0.000878646 0)
(0.000446213 -0.000864658 0)
(0.00042673 -0.000880112 0)
(0.000442777 -0.000865827 0)
(0.000708674 -0.000817577 0)
(0.000719653 -0.00080945 0)
(0.00067984 -0.00081873 0)
(0.000691201 -0.000809874 0)
(0.00065441 -0.00081991 0)
(0.000666276 -0.000810305 0)
(0.00063195 -0.000820926 0)
(0.000644359 -0.000810708 0)
(0.000612059 -0.000821846 0)
(0.000624996 -0.000811128 0)
(0.000594409 -0.000822737 0)
(0.000607835 -0.000811584 0)
(0.000578729 -0.000823623 0)
(0.000592598 -0.000812078 0)
(0.000564789 -0.000824512 0)
(0.000579054 -0.000812606 0)
(0.000552389 -0.000825406 0)
(0.000567005 -0.000813164 0)
(0.000541354 -0.000826304 0)
(0.000556281 -0.00081375 0)
(0.00053153 -0.000827208 0)
(0.000546732 -0.000814358 0)
(0.000522782 -0.000828114 0)
(0.000538226 -0.000814986 0)
(0.000514987 -0.000829021 0)
(0.000530646 -0.000815629 0)
(0.000508039 -0.000829927 0)
(0.000523888 -0.000816281 0)
(0.000501839 -0.000830829 0)
(0.000517856 -0.000816938 0)
(0.000496303 -0.000831722 0)
(0.000512465 -0.000817592 0)
(0.00049135 -0.000832604 0)
(0.000507638 -0.000818238 0)
(0.000486909 -0.000833472 0)
(0.000503302 -0.000818864 0)
(0.000482915 -0.000834319 0)
(0.000499389 -0.000819455 0)
(0.000479306 -0.000835135 0)
(0.000495834 -0.00081999 0)
(0.000771995 -0.000794229 0)
(0.000782335 -0.00078483 0)
(0.000742179 -0.000792861 0)
(0.000753021 -0.000782751 0)
(0.000715826 -0.000791783 0)
(0.000727286 -0.000780977 0)
(0.00069251 -0.000790789 0)
(0.000704611 -0.000779428 0)
(0.000671828 -0.00078991 0)
(0.000684544 -0.000778103 0)
(0.000653451 -0.000789179 0)
(0.000666735 -0.000776989 0)
(0.000637106 -0.000788596 0)
(0.000650904 -0.000776061 0)
(0.00062256 -0.000788149 0)
(0.000636818 -0.000775295 0)
(0.00060961 -0.000787822 0)
(0.000624277 -0.000774668 0)
(0.000598078 -0.000787598 0)
(0.000613109 -0.000774164 0)
(0.000587807 -0.000787465 0)
(0.000603161 -0.000773765 0)
(0.000578658 -0.000787409 0)
(0.000594299 -0.000773457 0)
(0.000570507 -0.000787419 0)
(0.000586403 -0.000773225 0)
(0.000563243 -0.000787483 0)
(0.000579367 -0.000773057 0)
(0.000556768 -0.000787591 0)
(0.000573093 -0.000772939 0)
(0.000550992 -0.000787731 0)
(0.000567497 -0.000772859 0)
(0.000545835 -0.000787897 0)
(0.000562497 -0.000772805 0)
(0.000541222 -0.000788078 0)
(0.00055802 -0.000772762 0)
(0.000537086 -0.000788264 0)
(0.000553999 -0.000772712 0)
(0.000533361 -0.000788442 0)
(0.000550367 -0.000772631 0)
(0.000833847 -0.0007697 0)
(0.000843635 -0.000759105 0)
(0.000803426 -0.000765813 0)
(0.000813829 -0.000754539 0)
(0.000776482 -0.000762475 0)
(0.000787602 -0.000750567 0)
(0.000752598 -0.000759465 0)
(0.000764446 -0.000747067 0)
(0.000731379 -0.000756777 0)
(0.000743919 -0.000743997 0)
(0.000712497 -0.000754415 0)
(0.000725675 -0.000741309 0)
(0.000695682 -0.000752354 0)
(0.000709436 -0.000738955 0)
(0.000680702 -0.000750562 0)
(0.000694974 -0.000736891 0)
(0.000667354 -0.000749004 0)
(0.000682087 -0.000735077 0)
(0.00065546 -0.000747652 0)
(0.000670604 -0.000733482 0)
(0.000644861 -0.000746479 0)
(0.000660372 -0.000732077 0)
(0.000635417 -0.00074546 0)
(0.000651255 -0.000730835 0)
(0.000627004 -0.000744573 0)
(0.000643135 -0.000729734 0)
(0.000619509 -0.000743799 0)
(0.000635902 -0.000728753 0)
(0.000612833 -0.000743119 0)
(0.00062946 -0.000727871 0)
(0.000606885 -0.000742517 0)
(0.000623721 -0.000727071 0)
(0.000601582 -0.000741978 0)
(0.000618605 -0.000726334 0)
(0.00059685 -0.000741489 0)
(0.000614039 -0.000725643 0)
(0.000592619 -0.000741034 0)
(0.000609954 -0.000724975 0)
(0.000588822 -0.000740596 0)
(0.000606286 -0.000724305 0)
(0.000894125 -0.000744157 0)
(0.000903447 -0.000732451 0)
(0.000863467 -0.000737796 0)
(0.000873505 -0.000725455 0)
(0.000836256 -0.000732232 0)
(0.000847098 -0.00071933 0)
(0.00081209 -0.000727232 0)
(0.000823735 -0.000713913 0)
(0.000790584 -0.000722757 0)
(0.000802987 -0.000709123 0)
(0.000771419 -0.00071878 0)
(0.000784519 -0.000704884 0)
(0.00075433 -0.000715255 0)
(0.00076806 -0.000701123 0)
(0.000739089 -0.000712129 0)
(0.000753386 -0.000697777 0)
(0.000725496 -0.000709353 0)
(0.000740301 -0.000694792 0)
(0.000713376 -0.000706884 0)
(0.000728633 -0.000692121 0)
(0.00070257 -0.000704681 0)
(0.000718233 -0.000689725 0)
(0.000692941 -0.000702711 0)
(0.000708967 -0.000687566 0)
(0.000684362 -0.000700942 0)
(0.000700714 -0.000685614 0)
(0.000676723 -0.000699345 0)
(0.000693368 -0.000683839 0)
(0.000669923 -0.000697896 0)
(0.000686832 -0.000682214 0)
(0.000663871 -0.000696572 0)
(0.000681017 -0.000680717 0)
(0.000658485 -0.000695353 0)
(0.000675845 -0.000679323 0)
(0.000653687 -0.000694218 0)
(0.000671242 -0.000678012 0)
(0.000649408 -0.00069315 0)
(0.000667139 -0.000676757 0)
(0.000645578 -0.000692126 0)
(0.000663472 -0.00067553 0)
(0.000952733 -0.000717758 0)
(0.000961668 -0.000705038 0)
(0.000922191 -0.000709008 0)
(0.000931932 -0.000695706 0)
(0.000895026 -0.000701288 0)
(0.000905645 -0.000687504 0)
(0.000870853 -0.000694355 0)
(0.000882338 -0.000680235 0)
(0.000849304 -0.000688142 0)
(0.000861602 -0.000673779 0)
(0.000830072 -0.000682592 0)
(0.000843115 -0.000668033 0)
(0.0008129 -0.000677639 0)
(0.000826619 -0.000662905 0)
(0.000797569 -0.000673211 0)
(0.000811896 -0.000658313 0)
(0.000783885 -0.000669246 0)
(0.000798757 -0.000654189 0)
(0.000771674 -0.000665686 0)
(0.000787035 -0.000650474 0)
(0.000760783 -0.00066248 0)
(0.000776583 -0.000647115 0)
(0.000751077 -0.000659585 0)
(0.000767271 -0.000644069 0)
(0.000742431 -0.000656959 0)
(0.000758981 -0.000641294 0)
(0.000734737 -0.000654567 0)
(0.000751607 -0.000638754 0)
(0.000727892 -0.000652377 0)
(0.000745053 -0.000636417 0)
(0.000721808 -0.00065036 0)
(0.000739233 -0.000634253 0)
(0.000716401 -0.00064849 0)
(0.000734066 -0.000632234 0)
(0.000711594 -0.000646743 0)
(0.000729479 -0.000630336 0)
(0.000707314 -0.000645095 0)
(0.000725404 -0.000628529 0)
(0.000703492 -0.00064352 0)
(0.000721777 -0.000626781 0)
(0.00100958 -0.000690654 0)
(0.0010182 -0.000677022 0)
(0.000979489 -0.000679634 0)
(0.000988995 -0.000665484 0)
(0.000952666 -0.000669861 0)
(0.00096311 -0.000655312 0)
(0.00092875 -0.000661083 0)
(0.000940109 -0.00064628 0)
(0.000907391 -0.000653206 0)
(0.000919606 -0.000638236 0)
(0.000888299 -0.000646148 0)
(0.000901298 -0.000631053 0)
(0.00087123 -0.000639823 0)
(0.00088494 -0.000624617 0)
(0.000855974 -0.000634144 0)
(0.000870325 -0.000618833 0)
(0.000842344 -0.000629035 0)
(0.000857272 -0.000613619 0)
(0.000830174 -0.000624426 0)
(0.00084562 -0.000608903 0)
(0.000819318 -0.000620257 0)
(0.00083523 -0.000604625 0)
(0.000809642 -0.000616473 0)
(0.000825975 -0.000600731 0)
(0.000801028 -0.000613026 0)
(0.00081774 -0.000597172 0)
(0.000793366 -0.000609874 0)
(0.000810423 -0.000593905 0)
(0.00078656 -0.000606979 0)
(0.000803931 -0.000590893 0)
(0.000780518 -0.000604305 0)
(0.000798176 -0.0005881 0)
(0.000775159 -0.000601823 0)
(0.000793081 -0.000585495 0)
(0.000770403 -0.000599501 0)
(0.000788571 -0.000583046 0)
(0.000766175 -0.000597313 0)
(0.000784577 -0.000580723 0)
(0.000762404 -0.000595227 0)
(0.000781035 -0.00057849 0)
(0.00106459 -0.000662985 0)
(0.00107297 -0.000648548 0)
(0.00103526 -0.000649848 0)
(0.00104458 -0.000634962 0)
(0.00100905 -0.000638151 0)
(0.00101936 -0.000622956 0)
(0.000985638 -0.000627641 0)
(0.000996899 -0.000612276 0)
(0.000964689 -0.000618198 0)
(0.000976837 -0.000602745 0)
(0.000945933 -0.000609719 0)
(0.000958894 -0.000594211 0)
(0.000929141 -0.000602099 0)
(0.000942839 -0.000586546 0)
(0.000914115 -0.000595237 0)
(0.000928479 -0.00057964 0)
(0.000900679 -0.000589045 0)
(0.000915642 -0.000573399 0)
(0.000888676 -0.000583443 0)
(0.000904179 -0.000567742 0)
(0.000877966 -0.00057836 0)
(0.000893956 -0.000562598 0)
(0.000868423 -0.000573734 0)
(0.000884854 -0.000557905 0)
(0.000859933 -0.000569511 0)
(0.000876764 -0.000553609 0)
(0.000852392 -0.00056564 0)
(0.000869586 -0.00054966 0)
(0.000845704 -0.000562079 0)
(0.00086323 -0.000546015 0)
(0.000839781 -0.000558789 0)
(0.000857613 -0.000542636 0)
(0.000834542 -0.000555733 0)
(0.000852658 -0.000539486 0)
(0.000829906 -0.00055288 0)
(0.000848292 -0.000536531 0)
(0.000825796 -0.000550195 0)
(0.000844444 -0.000533733 0)
(0.000822133 -0.000547642 0)
(0.000841046 -0.000531049 0)
(0.0011177 -0.000634879 0)
(0.00112588 -0.000619747 0)
(0.00108939 -0.000619803 0)
(0.00109858 -0.000604298 0)
(0.00106406 -0.000606339 0)
(0.00107427 -0.000590616 0)
(0.00104138 -0.000594234 0)
(0.00105256 -0.000578426 0)
(0.00102104 -0.000583346 0)
(0.00103313 -0.000567527 0)
(0.0010028 -0.000573551 0)
(0.00101572 -0.00055775 0)
(0.000986449 -0.000564731 0)
(0.00100012 -0.000548951 0)
(0.000971796 -0.000556772 0)
(0.000986153 -0.000541008 0)
(0.00095868 -0.000549573 0)
(0.000973652 -0.000533818 0)
(0.000946955 -0.000543046 0)
(0.000962482 -0.000527289 0)
(0.000936491 -0.000537111 0)
(0.000952519 -0.000521344 0)
(0.000927172 -0.000531698 0)
(0.000943653 -0.000515913 0)
(0.00091889 -0.000526748 0)
(0.000935785 -0.000510934 0)
(0.000911547 -0.000522205 0)
(0.000928821 -0.000506352 0)
(0.000905051 -0.000518021 0)
(0.000922673 -0.000502116 0)
(0.000899313 -0.000514149 0)
(0.000917258 -0.000498183 0)
(0.000894256 -0.000510548 0)
(0.000912497 -0.000494516 0)
(0.000889804 -0.000507184 0)
(0.000908323 -0.000491086 0)
(0.000885888 -0.000504029 0)
(0.000904675 -0.000487861 0)
(0.000882427 -0.000501058 0)
(0.000901493 -0.000484794 0)
(0.00116882 -0.000606451 0)
(0.00117688 -0.000590737 0)
(0.00114181 -0.000589639 0)
(0.0011509 -0.000573629 0)
(0.00111757 -0.000574586 0)
(0.0011277 -0.00055845 0)
(0.00109582 -0.000561042 0)
(0.00110694 -0.000544907 0)
(0.00107628 -0.000548848 0)
(0.00108832 -0.00053278 0)
(0.00105873 -0.000537863 0)
(0.0010716 -0.000521883 0)
(0.00104297 -0.000527955 0)
(0.0010566 -0.000512063 0)
(0.00102882 -0.000519002 0)
(0.00104314 -0.000503186 0)
(0.00101614 -0.000510892 0)
(0.00103109 -0.000495138 0)
(0.00100479 -0.000503526 0)
(0.0010203 -0.000487822 0)
(0.000994652 -0.000496818 0)
(0.00101067 -0.000481152 0)
(0.000985621 -0.000490689 0)
(0.0010021 -0.000475053 0)
(0.0009776 -0.000485074 0)
(0.0009945 -0.00046946 0)
(0.000970506 -0.000479913 0)
(0.000987789 -0.000464315 0)
(0.000964257 -0.00047516 0)
(0.000981899 -0.000459561 0)
(0.000958768 -0.000470771 0)
(0.000976754 -0.000455141 0)
(0.000953943 -0.000466697 0)
(0.000972267 -0.000450996 0)
(0.000949678 -0.000462882 0)
(0.000968339 -0.000447071 0)
(0.000945879 -0.000459249 0)
(0.000964868 -0.000443335 0)
(0.000942497 -0.000455706 0)
(0.000961815 -0.000439806 0)
(0.00121793 -0.000577804 0)
(0.00122588 -0.000561617 0)
(0.00119242 -0.000559474 0)
(0.00120143 -0.000543073 0)
(0.00116948 -0.000543028 0)
(0.00117954 -0.000526591 0)
(0.00114884 -0.00052822 0)
(0.0011599 -0.000511869 0)
(0.00113027 -0.000514875 0)
(0.00114224 -0.000498669 0)
(0.00111355 -0.000502842 0)
(0.00112636 -0.000486794 0)
(0.00109851 -0.000491977 0)
(0.00111208 -0.000476081 0)
(0.00108499 -0.000482148 0)
(0.00109925 -0.000466388 0)
(0.00107285 -0.000473238 0)
(0.00108774 -0.000457595 0)
(0.00106198 -0.000465142 0)
(0.00107743 -0.000449597 0)
(0.00105224 -0.000457766 0)
(0.00106821 -0.000442302 0)
(0.00104356 -0.000451026 0)
(0.00105999 -0.000435628 0)
(0.00103583 -0.000444847 0)
(0.00105268 -0.000429506 0)
(0.00102898 -0.000439163 0)
(0.00104621 -0.000423877 0)
(0.00102294 -0.000433918 0)
(0.00104052 -0.000418693 0)
(0.00101768 -0.000429073 0)
(0.00103557 -0.000413918 0)
(0.00101315 -0.00042461 0)
(0.00103134 -0.000409515 0)
(0.00100928 -0.000420543 0)
(0.0010278 -0.000405434 0)
(0.00100596 -0.000416902 0)
(0.00102491 -0.000401582 0)
(0.00100295 -0.000413711 0)
(0.00102249 -0.000397784 0)
(0.00126496 -0.000549021 0)
(0.00127285 -0.000532468 0)
(0.00124114 -0.000529407 0)
(0.0012501 -0.000512723 0)
(0.00121967 -0.000511776 0)
(0.00122968 -0.000495148 0)
(0.00120031 -0.000495891 0)
(0.00121131 -0.000479432 0)
(0.00118285 -0.000481566 0)
(0.00119475 -0.000465327 0)
(0.0011671 -0.000468638 0)
(0.00117983 -0.000452627 0)
(0.00115291 -0.000456956 0)
(0.00116639 -0.00044116 0)
(0.00114013 -0.000446381 0)
(0.00115429 -0.00043078 0)
(0.00112864 -0.000436792 0)
(0.00114343 -0.000421363 0)
(0.00111833 -0.000428078 0)
(0.00113368 -0.000412799 0)
(0.00110909 -0.000420142 0)
(0.00112495 -0.000404992 0)
(0.00110084 -0.0004129 0)
(0.00111716 -0.00039786 0)
(0.00109349 -0.000406278 0)
(0.00111022 -0.000391329 0)
(0.00108695 -0.000400211 0)
(0.00110406 -0.000385335 0)
(0.00108116 -0.000394641 0)
(0.00109861 -0.000379824 0)
(0.00107605 -0.000389518 0)
(0.00109381 -0.00037475 0)
(0.00107158 -0.000384798 0)
(0.0010896 -0.000370087 0)
(0.00106776 -0.000380464 0)
(0.00108597 -0.000365837 0)
(0.00106465 -0.000376552 0)
(0.00108296 -0.000362054 0)
(0.00106232 -0.000373194 0)
(0.00108062 -0.00035889 0)
(0.00130988 -0.00052017 0)
(0.00131773 -0.000503356 0)
(0.0012879 -0.000499514 0)
(0.00129683 -0.000482653 0)
(0.00126804 -0.000480918 0)
(0.00127801 -0.000464202 0)
(0.0012501 -0.000464153 0)
(0.00126103 -0.000447688 0)
(0.00123388 -0.000449025 0)
(0.00124569 -0.000432852 0)
(0.00121922 -0.000435362 0)
(0.00123184 -0.000419484 0)
(0.00120598 -0.000423007 0)
(0.00121935 -0.000407406 0)
(0.00119405 -0.000411818 0)
(0.00120809 -0.00039647 0)
(0.00118331 -0.000401668 0)
(0.00119796 -0.000386546 0)
(0.00117367 -0.000392444 0)
(0.00118886 -0.000377521 0)
(0.00116502 -0.000384045 0)
(0.00118072 -0.000369297 0)
(0.00115729 -0.000376382 0)
(0.00117344 -0.000361787 0)
(0.0011504 -0.000369375 0)
(0.00116697 -0.000354917 0)
(0.00114429 -0.000362955 0)
(0.00116124 -0.000348617 0)
(0.0011389 -0.000357059 0)
(0.00115619 -0.000342827 0)
(0.00113417 -0.000351633 0)
(0.00115177 -0.000337487 0)
(0.00113007 -0.000346633 0)
(0.00114795 -0.000332535 0)
(0.00112658 -0.00034202 0)
(0.00114469 -0.000327909 0)
(0.00112373 -0.000337785 0)
(0.00114193 -0.000323607 0)
(0.00112153 -0.000333989 0)
(0.00113953 -0.00031982 0)
(0.00135265 -0.000491305 0)
(0.00136048 -0.000474333 0)
(0.00133263 -0.000469858 0)
(0.00134153 -0.000452921 0)
(0.00131451 -0.000450523 0)
(0.00132442 -0.000433818 0)
(0.00129809 -0.000433081 0)
(0.00130893 -0.000416704 0)
(0.00128321 -0.000417333 0)
(0.00129491 -0.000401317 0)
(0.00126974 -0.000403099 0)
(0.00128223 -0.000387441 0)
(0.00125756 -0.000390218 0)
(0.00127076 -0.000374895 0)
(0.00124656 -0.000378546 0)
(0.00126042 -0.000363529 0)
(0.00123665 -0.000367953 0)
(0.00125111 -0.00035321 0)
(0.00122775 -0.000358321 0)
(0.00124275 -0.000343822 0)
(0.00121977 -0.000349547 0)
(0.00123526 -0.000335264 0)
(0.00121264 -0.000341539 0)
(0.00122858 -0.000327445 0)
(0.00120629 -0.000334212 0)
(0.00122264 -0.000320286 0)
(0.00120066 -0.000327494 0)
(0.00121739 -0.000313713 0)
(0.00119571 -0.00032132 0)
(0.00121278 -0.000307663 0)
(0.00119139 -0.000315633 0)
(0.00120876 -0.000302074 0)
(0.00118767 -0.00031039 0)
(0.0012053 -0.000296888 0)
(0.00118457 -0.000305561 0)
(0.00120239 -0.000292045 0)
(0.00118208 -0.000301142 0)
(0.00119997 -0.000287548 0)
(0.00118016 -0.000297201 0)
(0.00119786 -0.00028355 0)
(0.00139323 -0.000462471 0)
(0.00140104 -0.000445441 0)
(0.00137526 -0.000440489 0)
(0.00138413 -0.000423575 0)
(0.00135896 -0.000420648 0)
(0.0013688 -0.000404046 0)
(0.00134415 -0.000402737 0)
(0.00135489 -0.000386536 0)
(0.00133069 -0.000386555 0)
(0.00134226 -0.000370779 0)
(0.00131848 -0.000371918 0)
(0.0013308 -0.000356557 0)
(0.00130742 -0.000358664 0)
(0.00132043 -0.00034369 0)
(0.00129743 -0.000346645 0)
(0.00131107 -0.000332025 0)
(0.00128842 -0.00033573 0)
(0.00130263 -0.000321428 0)
(0.00128031 -0.0003258 0)
(0.00129505 -0.000311782 0)
(0.00127305 -0.000316751 0)
(0.00128826 -0.000302985 0)
(0.00126656 -0.000308486 0)
(0.00128221 -0.000294943 0)
(0.00126079 -0.000300923 0)
(0.00127685 -0.000287577 0)
(0.00125569 -0.000293987 0)
(0.00127211 -0.000280814 0)
(0.00125122 -0.000287614 0)
(0.00126797 -0.000274589 0)
(0.00124734 -0.00028175 0)
(0.00126438 -0.000268842 0)
(0.00124403 -0.000276352 0)
(0.00126131 -0.00026351 0)
(0.0012413 -0.000271388 0)
(0.00125876 -0.000258537 0)
(0.00123916 -0.000266851 0)
(0.00125668 -0.000253923 0)
(0.00123754 -0.00026283 0)
(0.00125487 -0.000249824 0)
(0.00143157 -0.000433707 0)
(0.00143936 -0.000416718 0)
(0.00141571 -0.000411451 0)
(0.00142454 -0.000394654 0)
(0.00140129 -0.000391337 0)
(0.00141105 -0.000374927 0)
(0.00138815 -0.000373168 0)
(0.00139875 -0.000357226 0)
(0.00137617 -0.000356742 0)
(0.00138756 -0.000341283 0)
(0.00136528 -0.000341875 0)
(0.00137738 -0.000326883 0)
(0.00135539 -0.000328403 0)
(0.00136816 -0.000313845 0)
(0.00134645 -0.000316178 0)
(0.00135981 -0.000302018 0)
(0.00133837 -0.000305069 0)
(0.00135228 -0.000291268 0)
(0.00133111 -0.000294959 0)
(0.00134552 -0.000281478 0)
(0.0013246 -0.000285741 0)
(0.00133946 -0.000272547 0)
(0.00131879 -0.00027732 0)
(0.00133407 -0.000264382 0)
(0.00131363 -0.000269614 0)
(0.0013293 -0.000256903 0)
(0.00130909 -0.000262548 0)
(0.00132511 -0.000250038 0)
(0.00130512 -0.00025606 0)
(0.00132145 -0.000243723 0)
(0.0013017 -0.000250097 0)
(0.00131831 -0.000237898 0)
(0.00129882 -0.000244616 0)
(0.00131566 -0.000232498 0)
(0.00129647 -0.000239586 0)
(0.00131349 -0.000227464 0)
(0.00129468 -0.000235003 0)
(0.00131176 -0.000222792 0)
(0.00129338 -0.000230963 0)
(0.00131026 -0.000218637 0)
(0.00146764 -0.000405048 0)
(0.0014754 -0.000388195 0)
(0.00145393 -0.000382776 0)
(0.00146269 -0.000366187 0)
(0.00144142 -0.000362624 0)
(0.00145106 -0.000346492 0)
(0.00142997 -0.000344409 0)
(0.00144041 -0.000328803 0)
(0.0014195 -0.000327931 0)
(0.00143067 -0.00031286 0)
(0.00140996 -0.000313007 0)
(0.0014218 -0.000298449 0)
(0.00140128 -0.000299473 0)
(0.00141374 -0.000285393 0)
(0.00139342 -0.000287186 0)
(0.00140643 -0.000273544 0)
(0.00138631 -0.000276016 0)
(0.00139984 -0.000262769 0)
(0.00137991 -0.000265845 0)
(0.00139391 -0.000252953 0)
(0.00137418 -0.00025657 0)
(0.00138861 -0.000243997 0)
(0.00136907 -0.000248096 0)
(0.0013839 -0.000235809 0)
(0.00136455 -0.000240342 0)
(0.00137974 -0.000228312 0)
(0.00136058 -0.000233236 0)