/*--------------------------------*- C++ -*----------------------------------*\
| =========                 |                                                 |
| \\      /  F ield         | OpenFOAM: The Open Source CFD Toolbox           |
|  \\    /   O peration     | Version:  v2012                                 |
|   \\  /    A nd           | Website:  www.openfoam.com                      |
|    \\/     M anipulation  |                                                 |
\*---------------------------------------------------------------------------*/
FoamFile
{
    version     2.0;
    format      ascii;
    class       volVectorField;
    location    "20";
    object      D;
}
// * * * * * * * * * * * * * * * * * * * * * * * * * * * * * * * * * * * * * //

dimensions      [0 1 0 0 0 0 0];


internalField   nonuniform List<vector> 
2000
(
(0.000199408 0.000132105 0)
(0.000305331 0.000105672 0)
(0.000161439 -7.61196e-05 0)
(0.000246181 -0.000123698 0)
(0.000142371 -0.000263411 0)
(0.00021335 -0.00031363 0)
(0.000130004 -0.000423667 0)
(0.000187033 -0.000466711 0)
(0.000119158 -0.000553144 0)
(0.00015844 -0.000583268 0)
(0.000106858 -0.000648229 0)
(0.000126368 -0.000663292 0)
(9.23361e-05 -0.000708128 0)
(9.47117e-05 -0.000710798 0)
(7.64237e-05 -0.00073836 0)
(6.792e-05 -0.000733232 0)
(5.99049e-05 -0.000748092 0)
(4.84223e-05 -0.000738278 0)
(4.20837e-05 -0.000745907 0)
(3.80693e-05 -0.000733316 0)
(0.00035235 2.15635e-05 0)
(0.000429675 -7.56764e-05 0)
(0.000381685 -0.00014147 0)
(0.000458291 -0.000226195 0)
(0.00039077 -0.000297812 0)
(0.000453895 -0.000362817 0)
(0.000381564 -0.000432684 0)
(0.000423429 -0.000469073 0)
(0.000353748 -0.000533985 0)
(0.000373603 -0.000541886 0)
(0.000311243 -0.000600653 0)
(0.000314093 -0.00058735 0)
(0.000261213 -0.000639042 0)
(0.000254381 -0.000613799 0)
(0.00021066 -0.000658201 0)
(0.00020096 -0.000628356 0)
(0.000164364 -0.000666308 0)
(0.000157178 -0.000636136 0)
(0.000125006 -0.000668975 0)
(0.000123077 -0.000639012 0)
(0.00059277 -8.89713e-05 0)
(0.000672499 -0.000183748 0)
(0.000613322 -0.000245166 0)
(0.000670189 -0.000319846 0)
(0.000612412 -0.000368959 0)
(0.000644068 -0.000409046 0)
(0.000582558 -0.000453187 0)
(0.000592054 -0.000457024 0)
(0.000527033 -0.000500984 0)
(0.000522961 -0.000478849 0)
(0.000456545 -0.000525585 0)
(0.000447467 -0.000489231 0)
(0.00038261 -0.000538761 0)
(0.000374458 -0.000496701 0)
(0.000313584 -0.000547422 0)
(0.000309717 -0.000504804 0)
(0.000254142 -0.000554884 0)
(0.000255732 -0.000514321 0)
(0.000205773 -0.000561484 0)
(0.000212824 -0.00052366 0)
(0.000745433 -0.000253172 0)
(0.000788924 -0.000330445 0)
(0.000758386 -0.000356646 0)
(0.000775883 -0.000392451 0)
(0.000735001 -0.000408932 0)
(0.000731858 -0.000407309 0)
(0.000681507 -0.000423899 0)
(0.000667988 -0.000399827 0)
(0.000613483 -0.000422301 0)
(0.000598556 -0.000388834 0)
(0.000542544 -0.000417949 0)
(0.000530883 -0.000380839 0)
(0.000474552 -0.000416279 0)
(0.000467821 -0.000377425 0)
(0.000412259 -0.000418556 0)
(0.00041106 -0.00037887 0)
(0.000356306 -0.000424207 0)
(0.000361217 -0.000384502 0)
(0.000307417 -0.000431795 0)
(0.000316884 -0.000391382 0)
(0.000820245 -0.00036565 0)
(0.000825223 -0.000381471 0)
(0.000798863 -0.00038879 0)
(0.000786178 -0.000372798 0)
(0.000749606 -0.000374064 0)
(0.000732664 -0.000349298 0)
(0.000692764 -0.000356173 0)
(0.000677291 -0.000331032 0)
(0.000637759 -0.000341038 0)
(0.000624035 -0.000315368 0)
(0.000585636 -0.000329169 0)
(0.000573034 -0.000301362 0)
(0.000535567 -0.000320944 0)
(0.000525961 -0.000291605 0)
(0.000486463 -0.000314961 0)
(0.000482855 -0.000285538 0)
(0.000440794 -0.000313549 0)
(0.000442607 -0.000282677 0)
(0.000397874 -0.000314769 0)
(0.000404137 -0.000281427 0)
(0.000805677 -0.000367139 0)
(0.000790386 -0.000345272 0)
(0.00077424 -0.000340211 0)
(0.000761474 -0.000320807 0)
(0.000736311 -0.000316289 0)
(0.000724949 -0.000297613 0)
(0.000695148 -0.000296897 0)
(0.000684561 -0.000276956 0)
(0.000652606 -0.000280916 0)
(0.000643045 -0.000259268 0)
(0.000610376 -0.000267524 0)
(0.000602313 -0.000244398 0)
(0.000569208 -0.000256049 0)
(0.00056309 -0.00023203 0)
(0.000529939 -0.000246597 0)
(0.000525805 -0.000221848 0)
(0.000492383 -0.00023905 0)
(0.000490214 -0.000213247 0)
(0.000456066 -0.000233226 0)
(0.000458648 -0.000207656 0)
(0.000782536 -0.000312418 0)
(0.000771618 -0.000291735 0)
(0.000759426 -0.000288126 0)
(0.00074994 -0.000269654 0)
(0.00073052 -0.000266219 0)
(0.000722082 -0.000248004 0)
(0.000698342 -0.000247323 0)
(0.000690759 -0.000228097 0)
(0.000664306 -0.000230937 0)
(0.000657667 -0.000210223 0)
(0.000629405 -0.000216478 0)
(0.000623958 -0.000194434 0)
(0.0005945 -0.000203562 0)
(0.000590553 -0.000180609 0)
(0.000560476 -0.000191908 0)
(0.000558279 -0.000168603 0)
(0.000527923 -0.000181431 0)
(0.000527779 -0.000158263 0)
(0.00049704 -0.000172073 0)
(0.000499245 -0.000149659 0)
(0.000774291 -0.000262975 0)
(0.000767221 -0.000242085 0)
(0.000754509 -0.000241263 0)
(0.000748235 -0.000221592 0)
(0.000730845 -0.000221066 0)
(0.000725364 -0.000201484 0)
(0.000704485 -0.000202808 0)
(0.000699829 -0.000182385 0)
(0.000676183 -0.000186141 0)
(0.000672446 -0.00016442 0)
(0.000646525 -0.000170645 0)
(0.000643819 -0.000147602 0)
(0.000616192 -0.000156019 0)
(0.000614603 -0.000131998 0)
(0.000586007 -0.000142105 0)
(0.000585629 -0.00011779 0)
(0.000556826 -0.000128965 0)
(0.000557857 -0.000105276 0)
(0.000529218 -0.000116785 0)
(0.000532051 -9.47523e-05 0)
(0.000773178 -0.000217595 0)
(0.000768984 -0.000197728 0)
(0.000756556 -0.000198038 0)
(0.000753084 -0.000178202 0)
(0.000736911 -0.00017935 0)
(0.000734189 -0.000158973 0)
(0.000714919 -0.00016186 0)
(0.000712999 -0.000140379 0)
(0.000691007 -0.000145392 0)
(0.000689997 -0.000122352 0)
(0.000665408 -0.000129691 0)
(0.000665449 -0.000104712 0)
(0.000638292 -0.00011449 0)
(0.000639524 -8.73157e-05 0)
(0.000609924 -9.94671e-05 0)
(0.000612479 -7.02213e-05 0)
(0.000580934 -8.41818e-05 0)
(0.000585038 -5.40052e-05 0)
(0.000552765 -6.79609e-05 0)
(0.000559132 -4.01295e-05 0)
(0.000776139 -0.000176185 0)
(0.000774334 -0.000157677 0)
(0.000762515 -0.000158333 0)
(0.000761499 -0.000139187 0)
(0.000746503 -0.00014108 0)
(0.000746174 -0.000120926 0)
(0.000728349 -0.000124527 0)
(0.000728713 -0.00010296 0)
(0.000708386 -0.000108501 0)
(0.000709452 -8.5167e-05 0)
(0.000686922 -9.29075e-05 0)
(0.000688638 -6.74373e-05 0)
(0.000664279 -7.78683e-05 0)
(0.000666496 -4.97505e-05 0)
(0.000640963 -6.3841e-05 0)
(0.000643461 -3.23142e-05 0)
(0.000618045 -5.18525e-05 0)
(0.000620746 -1.59365e-05 0)
(0.000597319 -4.39629e-05 0)
(0.000600793 -2.32828e-06 0)
(0.000780431 -0.000138734 0)
(0.00078032 -0.000122221 0)
(0.000769852 -0.000122799 0)
(0.000770705 -0.000105201 0)
(0.000757253 -0.000107056 0)
(0.000758816 -8.81626e-05 0)
(0.000742742 -9.15184e-05 0)
(0.000745014 -7.0967e-05 0)
(0.00072665 -7.59941e-05 0)
(0.00072968 -5.33969e-05 0)
(0.000709422 -6.03918e-05 0)
(0.000713178 -3.52881e-05 0)
(0.000691836 -4.49498e-05 0)
(0.000696072 -1.65238e-05 0)
(0.00067549 -3.07085e-05 0)
(0.000679391 2.98375e-06 0)
(0.000662898 -2.05164e-05 0)
(0.000664031 2.2843e-05 0)
(0.000654352 -2.03187e-05 0)
(0.000646501 3.97975e-05 0)
(0.000783417 -0.000105983 0)
(0.000784121 -9.2151e-05 0)
(0.000775974 -9.26886e-05 0)
(0.000777788 -7.73742e-05 0)
(0.000766399 -7.90634e-05 0)
(0.000768957 -6.21169e-05 0)
(0.000754972 -6.53163e-05 0)
(0.000758176 -4.6405e-05 0)
(0.000742174 -5.16232e-05 0)
(0.000746001 -3.02544e-05 0)
(0.000728431 -3.84462e-05 0)
(0.000732932 -1.3684e-05 0)
(0.000714088 -2.65249e-05 0)
(0.000719498 3.54034e-06 0)
(0.000699434 -1.64386e-05 0)
(0.000706124 2.21408e-05 0)
(0.000684024 -7.40452e-06 0)
(0.000691771 4.24642e-05 0)
(0.000664408 4.11836e-06 0)
(0.00067109 6.18221e-05 0)
(0.000783603 -7.87337e-05 0)
(0.000784334 -6.79747e-05 0)
(0.000779225 -6.86122e-05 0)
(0.000781138 -5.62345e-05 0)
(0.000772424 -5.77608e-05 0)
(0.000775191 -4.34646e-05 0)
(0.000763584 -4.65799e-05 0)
(0.000767182 -2.99144e-05 0)
(0.000753214 -3.5325e-05 0)
(0.000757739 -1.56543e-05 0)
(0.000741739 -2.42795e-05 0)
(0.000747368 -5.79703e-07 0)
(0.000729592 -1.36187e-05 0)
(0.00073654 1.57331e-05 0)
(0.000717116 -3.00456e-06 0)
(0.000725455 3.3905e-05 0)
(0.000703545 8.72606e-06 0)
(0.000712717 5.36842e-05 0)
(0.000685266 2.19587e-05 0)
(0.000693997 7.28859e-05 0)
(0.000780911 -5.6866e-05 0)
(0.000781347 -4.89931e-05 0)
(0.000778951 -4.99284e-05 0)
(0.000780596 -4.05246e-05 0)
(0.000774489 -4.18872e-05 0)
(0.000777119 -3.04644e-05 0)
(0.000767958 -3.31783e-05 0)
(0.000771613 -1.91578e-05 0)
(0.000759912 -2.40479e-05 0)
(0.000764703 -6.72735e-06 0)
(0.000750788 -1.46859e-05 0)
(0.000756858 6.90112e-06 0)
(0.000740884 -5.05693e-06 0)
(0.000748443 2.20564e-05 0)
(0.000730227 5.38764e-06 0)
(0.000739501 3.91783e-05 0)
(0.00071798 1.74455e-05 0)
(0.000728764 5.80737e-05 0)
(0.000701377 3.064e-05 0)
(0.000712363 7.67377e-05 0)
(0.000775562 -3.95581e-05 0)
(0.000775495 -3.42047e-05 0)
(0.000775251 -3.55797e-05 0)
(0.000776376 -2.88312e-05 0)
(0.000772582 -3.01363e-05 0)
(0.000774764 -2.13751e-05 0)
(0.000767975 -2.37306e-05 0)
(0.000771307 -1.2287e-05 0)
(0.000761943 -1.66374e-05 0)
(0.000766564 -1.80042e-06 0)
(0.000754832 -9.00047e-06 0)
(0.000760923 1.00594e-05 0)
(0.000746807 -7.13605e-07 0)
(0.000754673 2.35231e-05 0)
(0.000737769 8.68945e-06 0)
(0.000747819 3.89815e-05 0)
(0.000726925 1.97669e-05 0)
(0.000739152 5.63467e-05 0)
(0.000711876 3.21899e-05 0)
(0.000724976 7.40538e-05 0)
(0.000767834 -2.60605e-05 0)
(0.000767086 -2.28008e-05 0)
(0.000768487 -2.47018e-05 0)
(0.000768863 -2.01513e-05 0)
(0.00076701 -2.15438e-05 0)
(0.000768495 -1.50354e-05 0)
(0.000763829 -1.72189e-05 0)
(0.00076657 -8.07314e-06 0)
(0.000759387 -1.20863e-05 0)
(0.000763561 3.58552e-07 0)
(0.000753929 -6.31005e-06 0)
(0.00075977 1.01376e-05 0)
(0.000747509 2.0824e-07 0)
(0.00075541 2.14261e-05 0)
(0.000739969 7.8974e-06 0)
(0.00075044 3.45887e-05 0)
(0.000730579 1.73553e-05 0)
(0.000743675 4.96888e-05 0)
(0.00071717 2.86177e-05 0)
(0.00073164 6.57318e-05 0)
(0.000758332 -1.59137e-05 0)
(0.000756904 -1.42003e-05 0)
(0.000759368 -1.65712e-05 0)
(0.000758949 -1.36474e-05 0)
(0.000758546 -1.51954e-05 0)
(0.000759272 -1.04114e-05 0)
(0.000756337 -1.2605e-05 0)
(0.000758381 -5.33851e-06 0)
(0.000753126 -9.29604e-06 0)
(0.000756656 1.03051e-06 0)
(0.000749069 -5.4914e-06 0)
(0.000754335 8.47842e-06 0)
(0.000744142 -1.09146e-06 0)
(0.000751565 1.71167e-05 0)
(0.000738135 4.39577e-06 0)
(0.000748239 2.7319e-05 0)
(0.000730343 1.17637e-05 0)
(0.000743191 3.93563e-05 0)
(0.000718817 2.14924e-05 0)
(0.00073328 5.28584e-05 0)
(0.000748341 -8.86773e-06 0)
(0.000746576 -7.99008e-06 0)
(0.000749309 -1.05363e-05 0)
(0.000748397 -8.56819e-06 0)
(0.000748745 -1.0244e-05 0)
(0.000748941 -6.55161e-06 0)
(0.000747182 -8.93859e-06 0)
(0.000748588 -2.98895e-06 0)
(0.000744974 -7.22982e-06 0)
(0.000747659 1.43041e-06 0)
(0.000742233 -5.38926e-06 0)
(0.000746376 6.39432e-06 0)
(0.000738883 -3.28817e-06 0)
(0.000744861 1.19724e-05 0)
(0.00073465 -3.10841e-07 0)
(0.000742956 1.85755e-05 0)
(0.000728814 4.59654e-06 0)
(0.000739532 2.67135e-05 0)
(0.000719683 1.23685e-05 0)
(0.000731913 3.66226e-05 0)
(0.000740062 -4.50438e-06 0)
(0.000738628 -3.74759e-06 0)
(0.000740707 -6.0033e-06 0)
(0.000739888 -4.34415e-06 0)
(0.00074026 -6.17592e-06 0)
(0.000740302 -2.90544e-06 0)
(0.000739237 -5.81029e-06 0)
(0.000740087 -4.54608e-07 0)
(0.000737963 -5.42044e-06 0)
(0.000739529 2.29301e-06 0)
(0.000736571 -5.22236e-06 0)
(0.000738885 4.96222e-06 0)
(0.000735 -5.06567e-06 0)
(0.000738299 7.54279e-06 0)
(0.000732945 -4.33149e-06 0)
(0.000737582 1.03729e-05 0)
(0.000729658 -1.92973e-06 0)
(0.000735684 1.40287e-05 0)
(0.000723649 3.25398e-06 0)
(0.000730518 1.91819e-05 0)
(0.000735783 -1.44422e-06 0)
(0.000735045 -5.36574e-07 0)
(0.000736466 -2.18048e-06 0)
(0.000735998 -5.82793e-07 0)
(0.000736804 -2.75608e-06 0)
(0.000736644 5.01968e-07 0)
(0.000737061 -3.37456e-06 0)
(0.000736954 2.05378e-06 0)
(0.000737298 -4.19743e-06 0)
(0.000737021 3.50973e-06 0)
(0.000737446 -5.25375e-06 0)
(0.000736989 4.48269e-06 0)
(0.000737342 -6.32246e-06 0)
(0.000736985 4.83761e-06 0)
(0.000736746 -6.79698e-06 0)
(0.00073689 4.75302e-06 0)
(0.000735217 -5.71542e-06 0)
(0.000735832 4.72109e-06 0)
(0.000731878 -2.25845e-06 0)
(0.000732181 5.44912e-06 0)
(0.000725527 5.44071e-06 0)
(0.000721974 1.29003e-05 0)
(0.00072159 1.9825e-05 0)
(0.000720027 2.92137e-05 0)
(0.000719467 3.27756e-05 0)
(0.00072086 4.2865e-05 0)
(0.000718695 4.46584e-05 0)
(0.000722081 5.49919e-05 0)
(0.000716747 5.46948e-05 0)
(0.000720161 6.52421e-05 0)
(0.000711154 6.14605e-05 0)
(0.000713031 7.2271e-05 0)
(0.000700401 6.3511e-05 0)
(0.000700056 7.45321e-05 0)
(0.000684064 5.98801e-05 0)
(0.000681713 7.09686e-05 0)
(0.000665798 4.89904e-05 0)
(0.000660899 6.09779e-05 0)
(0.000657017 1.08764e-05 0)
(0.000646087 3.16088e-05 0)
(0.000706415 1.77548e-06 0)
(0.000699899 1.20303e-05 0)
(0.000702658 1.19583e-05 0)
(0.000698107 2.20363e-05 0)
(0.000700419 1.83818e-05 0)
(0.000697393 2.83074e-05 0)
(0.000698405 2.22309e-05 0)
(0.000696624 3.15057e-05 0)
(0.000695673 2.44204e-05 0)
(0.00069436 3.28605e-05 0)
(0.000691361 2.45449e-05 0)
(0.000689464 3.23756e-05 0)
(0.000685451 2.06852e-05 0)
(0.000681959 2.83594e-05 0)
(0.000678648 8.20846e-06 0)
(0.000673035 1.64173e-05 0)
(0.000665269 -1.83974e-05 0)
(0.000658992 -9.31692e-06 0)
(0.000624053 -5.03015e-05 0)
(0.000619621 -4.26768e-05 0)
(0.000686577 -1.73249e-06 0)
(0.000680218 8.90513e-06 0)
(0.000682232 3.1418e-06 0)
(0.000678296 1.1772e-05 0)
(0.000680268 5.39973e-06 0)
(0.000678095 1.28275e-05 0)
(0.000678181 5.31622e-06 0)
(0.000677259 1.18788e-05 0)
(0.000675108 3.43356e-06 0)
(0.00067496 9.29937e-06 0)
(0.000671008 -5.55887e-07 0)
(0.000671063 5.007e-06 0)
(0.000665016 -8.26702e-06 0)
(0.000664824 -2.39556e-06 0)
(0.000651862 -2.09934e-05 0)
(0.000651398 -1.46502e-05 0)
(0.000620331 -3.5401e-05 0)
(0.000619641 -2.9481e-05 0)
(0.00057178 -4.29799e-05 0)
(0.000569425 -3.73944e-05 0)
(0.000669788 -3.05211e-06 0)
(0.000664542 5.46437e-06 0)
(0.000665309 -2.20854e-06 0)
(0.000662519 4.14632e-06 0)
(0.000662893 -2.39789e-06 0)
(0.000662343 2.34552e-06 0)
(0.000660246 -3.78398e-06 0)
(0.000661334 9.01577e-08 0)
(0.00065601 -6.53796e-06 0)
(0.000658154 -2.89667e-06 0)
(0.000648892 -1.08577e-05 0)
(0.00065165 -6.99622e-06 0)
(0.000635747 -1.62544e-05 0)
(0.000638783 -1.2171e-05 0)
(0.000611551 -2.06073e-05 0)
(0.000614331 -1.68994e-05 0)
(0.000576072 -2.21765e-05 0)
(0.000577393 -1.88662e-05 0)
(0.00053738 -2.348e-05 0)
(0.000536594 -1.96415e-05 0)
(0.000654931 -2.77136e-06 0)
(0.000650716 2.76878e-06 0)
(0.000650838 -3.54719e-06 0)
(0.000648907 4.94404e-07 0)
(0.000647422 -4.51138e-06 0)
(0.000647788 -1.75487e-06 0)
(0.000642903 -5.77175e-06 0)
(0.000645068 -3.66603e-06 0)
(0.000635608 -7.35875e-06 0)
(0.000638937 -5.32075e-06 0)
(0.000623437 -8.84736e-06 0)
(0.000627342 -6.68774e-06 0)
(0.000603911 -9.14015e-06 0)
(0.000607803 -7.12271e-06 0)
(0.000576453 -7.58904e-06 0)
(0.000579629 -5.89252e-06 0)
(0.000544687 -5.73489e-06 0)
(0.000546492 -3.93923e-06 0)
(0.000512824 -6.00285e-06 0)
(0.000512979 -3.56861e-06 0)
(0.000640532 -1.71357e-06 0)
(0.000636949 1.17041e-06 0)
(0.000636875 -2.14144e-06 0)
(0.000635404 -4.65784e-08 0)
(0.000632228 -2.42053e-06 0)
(0.000632794 -1.09271e-06 0)
(0.000625167 -2.49234e-06 0)
(0.000627328 -1.56637e-06 0)
(0.000614287 -1.99822e-06 0)
(0.000617446 -1.21302e-06 0)
(0.000598196 -4.51201e-07 0)
(0.000601757 1.89442e-07 0)
(0.000576342 2.34914e-06 0)
(0.000579778 2.77057e-06 0)
(0.000550167 5.60591e-06 0)
(0.000553033 6.00093e-06 0)
(0.000522562 7.75079e-06 0)
(0.000524468 8.53422e-06 0)
(0.000495753 7.46459e-06 0)
(0.0004964 9.04192e-06 0)
(0.000625827 -3.96465e-07 0)
(0.000622559 4.4658e-07 0)
(0.000622498 6.52999e-07 0)
(0.000621158 1.18967e-06 0)
(0.000616715 1.99131e-06 0)
(0.000617052 2.11608e-06 0)
(0.000607503 3.68266e-06 0)
(0.000609083 3.56321e-06 0)
(0.000594131 6.11506e-06 0)
(0.000596487 5.81723e-06 0)
(0.000576305 9.41386e-06 0)
(0.000579023 8.92589e-06 0)
(0.000554632 1.31286e-05 0)
(0.000557379 1.25472e-05 0)
(0.00053071 1.63124e-05 0)
(0.000533186 1.59091e-05 0)
(0.000506383 1.80641e-05 0)
(0.000508271 1.81499e-05 0)
(0.000482781 1.78974e-05 0)
(0.000483806 1.86647e-05 0)
(0.000610696 9.16133e-07 0)
(0.000607603 2.01663e-07 0)
(0.000607715 3.88732e-06 0)
(0.000606321 3.12516e-06 0)
(0.000601206 7.14292e-06 0)
(0.000601156 6.15275e-06 0)
(0.000590782 1.0595e-05 0)
(0.000591685 9.46772e-06 0)
(0.000576392 1.44248e-05 0)
(0.000577933 1.31996e-05 0)
(0.00055846 1.8477e-05 0)
(0.0005604 1.71947e-05 0)
(0.000537945 2.22008e-05 0)
(0.000540069 2.10026e-05 0)
(0.000516126 2.49702e-05 0)
(0.000518197 2.40597e-05 0)
(0.000494244 2.64872e-05 0)
(0.000496007 2.60051e-05 0)
(0.000473456 2.67858e-05 0)
(0.000474649 2.67631e-05 0)
(0.000595445 2.09632e-06 0)
(0.000592518 1.55401e-07 0)
(0.000592956 6.95689e-06 0)
(0.000591462 5.09088e-06 0)
(0.000586263 1.19623e-05 0)
(0.000585842 9.9827e-06 0)
(0.000575553 1.68407e-05 0)
(0.000575887 1.48354e-05 0)
(0.000561257 2.15822e-05 0)
(0.00056215 1.96208e-05 0)
(0.000544099 2.59551e-05 0)
(0.000545419 2.41063e-05 0)
(0.000525065 2.95691e-05 0)
(0.000526653 2.79464e-05 0)
(0.000505282 3.20854e-05 0)
(0.00050691 3.08285e-05 0)
(0.000485915 3.32875e-05 0)
(0.000487315 3.2529e-05 0)
(0.000468051 3.29862e-05 0)
(0.000469008 3.28359e-05 0)
(0.000580581 3.07288e-06 0)
(0.000577862 1.84247e-07 0)
(0.000578727 9.50266e-06 0)
(0.000577159 6.75146e-06 0)
(0.000572329 1.58629e-05 0)
(0.000571603 1.31011e-05 0)
(0.000562004 2.17522e-05 0)
(0.000561887 1.90828e-05 0)
(0.000548463 2.7064e-05 0)
(0.000548837 2.45743e-05 0)
(0.000532542 3.15866e-05 0)
(0.000533323 2.93461e-05 0)
(0.000515204 3.50522e-05 0)
(0.000516265 3.31482e-05 0)
(0.000497489 3.72467e-05 0)
(0.00049864 3.57917e-05 0)
(0.000480394 3.80537e-05 0)
(0.000481414 3.71625e-05 0)
(0.000464693 3.74458e-05 0)
(0.000465381 3.71631e-05 0)
(0.000566612 3.80763e-06 0)
(0.000564147 2.53212e-07 0)
(0.000565461 1.1365e-05 0)
(0.000563856 7.98983e-06 0)
(0.000559682 1.86364e-05 0)
(0.000558702 1.53495e-05 0)
(0.000550155 2.51581e-05 0)
(0.000549648 2.20676e-05 0)
(0.000537729 3.07876e-05 0)
(0.000537641 2.79772e-05 0)
(0.000523271 3.53497e-05 0)
(0.000523557 3.28808e-05 0)
(0.000507697 3.86575e-05 0)
(0.000508259 3.66047e-05 0)
(0.00049193 4.05911e-05 0)
(0.000492609 3.9048e-05 0)
(0.000476795 4.11374e-05 0)
(0.000477399 4.01852e-05 0)
(0.000462872 4.03624e-05 0)
(0.000463231 4.00016e-05 0)
(0.000553941 4.29923e-06 0)
(0.000551761 3.59571e-07 0)
(0.000553485 1.25474e-05 0)
(0.000551859 8.825e-06 0)
(0.000548499 2.03356e-05 0)
(0.000547281 1.67929e-05 0)
(0.000539982 2.71858e-05 0)
(0.000539101 2.39218e-05 0)
(0.000528824 3.29428e-05 0)
(0.000528286 3.00248e-05 0)
(0.000515878 3.74698e-05 0)
(0.000515677 3.49462e-05 0)
(0.000501994 4.06485e-05 0)
(0.000502062 3.85819e-05 0)
(0.000487983 4.24354e-05 0)
(0.000488188 4.09029e-05 0)
(0.000474524 4.28843e-05 0)
(0.000474702 4.19453e-05 0)
(0.000462057 4.21014e-05 0)
(0.000462065 4.17345e-05 0)
(0.000542829 4.58166e-06 0)
(0.000540937 5.11398e-07 0)
(0.000543009 1.31656e-05 0)
(0.000541359 9.35685e-06 0)
(0.000538882 2.11697e-05 0)
(0.000537415 1.76272e-05 0)
(0.000531449 2.81293e-05 0)
(0.000530179 2.49317e-05 0)
(0.000521575 3.38847e-05 0)
(0.000520567 3.10748e-05 0)
(0.000510067 3.8334e-05 0)
(0.000509354 3.59421e-05 0)
(0.000497707 4.14163e-05 0)
(0.000497253 3.94896e-05 0)
(0.000485208 4.3145e-05 0)
(0.000484913 4.17447e-05 0)
(0.000473134 4.36226e-05 0)
(0.000472868 4.27876e-05 0)
(0.000461841 4.29902e-05 0)
(0.000461498 4.26822e-05 0)
(0.000533394 4.71161e-06 0)
(0.000531772 7.21673e-07 0)
(0.00053414 1.33921e-05 0)
(0.000532441 9.72337e-06 0)
(0.000530868 2.1419e-05 0)
(0.000529131 1.81052e-05 0)
(0.000524506 2.83549e-05 0)
(0.000522822 2.54457e-05 0)
(0.000515843 3.40352e-05 0)
(0.000514331 3.1545e-05 0)
(0.000505621 3.8386e-05 0)
(0.000504356 3.63217e-05 0)
(0.000494559 4.13998e-05 0)
(0.000493542 3.97856e-05 0)
(0.000483312 4.31369e-05 0)
(0.000482473 4.20156e-05 0)
(0.00047238 4.36934e-05 0)
(0.000471608 4.31058e-05 0)
(0.000461997 4.31469e-05 0)
(0.000461211 4.3079e-05 0)
(0.000525631 4.75473e-06 0)
(0.000524244 1.00777e-06 0)
(0.00052688 1.34151e-05 0)
(0.000525104 1.00732e-05 0)
(0.000524424 2.13765e-05 0)
(0.000522399 1.84859e-05 0)
(0.00051906 2.82356e-05 0)
(0.000516951 2.58114e-05 0)
(0.000511487 3.38207e-05 0)
(0.000509454 3.18479e-05 0)
(0.000502373 3.80736e-05 0)
(0.00050052 3.65364e-05 0)
(0.000492374 4.10211e-05 0)
(0.000490739 3.99183e-05 0)
(0.000482071 4.27692e-05 0)
(0.000480635 4.21106e-05 0)
(0.000471893 4.3498e-05 0)
(0.000470605 4.32735e-05 0)
(0.000462139 4.34049e-05 0)
(0.000460928 4.3546e-05 0)
(0.000519428 4.77747e-06 0)
(0.000518222 1.39687e-06 0)
(0.000521134 1.34202e-05 0)
(0.000519259 1.05602e-05 0)
(0.000519423 2.13185e-05 0)
(0.000517117 1.90196e-05 0)
(0.000514952 2.81087e-05 0)
(0.000512439 2.63427e-05 0)
(0.000508329 3.36168e-05 0)
(0.00050579 3.23406e-05 0)
(0.000500145 3.78013e-05 0)
(0.000497703 3.69802e-05 0)
(0.000490981 4.07252e-05 0)
(0.000488705 4.03292e-05 0)
(0.000481373 4.25345e-05 0)
(0.000479291 4.25321e-05 0)
(0.000471783 4.34045e-05 0)
(0.00046988 4.37692e-05 0)
(0.000462575 4.34581e-05 0)
(0.000460812 4.41771e-05 0)
(0.000514567 4.84472e-06 0)
(0.000513469 1.94772e-06 0)
(0.000516676 1.35883e-05 0)
(0.000514709 1.13558e-05 0)
(0.000515625 2.14837e-05 0)
(0.000513086 1.99428e-05 0)
(0.000511943 2.82349e-05 0)
(0.000509072 2.72972e-05 0)
(0.000506139 3.37071e-05 0)
(0.000503131 3.32956e-05 0)
(0.000498728 3.78931e-05 0)
(0.000495727 3.79607e-05 0)
(0.00049022 4.08608e-05 0)
(0.000487322 4.13699e-05 0)
(0.000481091 4.27473e-05 0)
(0.00047836 4.36436e-05 0)
(0.000471788 4.37498e-05 0)
(0.000469267 4.49595e-05 0)
(0.000462743 4.40594e-05 0)
(0.00046043 4.55216e-05 0)
(0.00051069 5.02652e-06 0)
(0.000509633 2.78757e-06 0)
(0.000513062 1.40365e-05 0)
(0.000511074 1.26373e-05 0)
(0.00051266 2.19904e-05 0)
(0.000509947 2.14077e-05 0)
(0.000509725 2.87509e-05 0)
(0.000506529 2.88341e-05 0)
(0.000504608 3.42878e-05 0)
(0.000501176 3.49202e-05 0)
(0.000497771 3.8637e-05 0)
(0.000494301 3.975e-05 0)
(0.00048972 4.18523e-05 0)
(0.000486338 4.3406e-05 0)
(0.000480908 4.40088e-05 0)
(0.00047767 4.59677e-05 0)
(0.000471705 4.52576e-05 0)
(0.000468634 4.75366e-05 0)
(0.000462521 4.58698e-05 0)
(0.000459633 4.82851e-05 0)
(0.000507049 5.34627e-06 0)
(0.000506171 3.97445e-06 0)
(0.000509683 1.45332e-05 0)
(0.000507803 1.43479e-05 0)
(0.000510041 2.26928e-05 0)
(0.00050723 2.33186e-05 0)
(0.000507815 2.97767e-05 0)
(0.000504423 3.10637e-05 0)
(0.000503196 3.57524e-05 0)
(0.000499527 3.76065e-05 0)
(0.000496685 4.06138e-05 0)
(0.00049297 4.29236e-05 0)
(0.00048886 4.44071e-05 0)
(0.000485264 4.70689e-05 0)
(0.000480262 4.71932e-05 0)
(0.000476848 5.01596e-05 0)
(0.000471299 4.90139e-05 0)
(0.000468004 5.23036e-05 0)
(0.000462231 4.99575e-05 0)
(0.000458895 5.35424e-05 0)
(0.000502005 4.97561e-06 0)
(0.000501839 4.75059e-06 0)
(0.000506207 1.42712e-05 0)
(0.000504734 1.52993e-05 0)
(0.000507217 2.34616e-05 0)
(0.000504957 2.54294e-05 0)
(0.000505348 3.18594e-05 0)
(0.000502491 3.4551e-05 0)
(0.000501025 3.90926e-05 0)
(0.000497785 4.23391e-05 0)
(0.000494778 4.50557e-05 0)
(0.00049135 4.86916e-05 0)
(0.000487163 4.97669e-05 0)
(0.000483718 5.36268e-05 0)
(0.000478751 5.33307e-05 0)
(0.000475425 5.72702e-05 0)
(0.00047009 5.59112e-05 0)
(0.000466927 5.98774e-05 0)
(0.00046161 5.76982e-05 0)
(0.00045838 6.17991e-05 0)
(0.000600874 -7.34929e-05 0)
(0.000595573 -4.25441e-05 0)
(0.000575565 -7.32482e-05 0)
(0.000572295 -5.65708e-05 0)
(0.0005552 -7.19118e-05 0)
(0.000552121 -6.09841e-05 0)
(0.00053628 -7.0795e-05 0)
(0.000532507 -6.11275e-05 0)
(0.000516986 -7.01252e-05 0)
(0.000512373 -5.98306e-05 0)
(0.000496747 -6.9895e-05 0)
(0.000491474 -5.8464e-05 0)
(0.000475644 -7.00129e-05 0)
(0.000469983 -5.75533e-05 0)
(0.000453999 -7.03799e-05 0)
(0.000448208 -5.72085e-05 0)
(0.000432156 -7.09303e-05 0)
(0.000426449 -5.73789e-05 0)
(0.000410399 -7.16394e-05 0)
(0.00040495 -5.79797e-05 0)
(0.000388937 -7.25146e-05 0)
(0.000383889 -5.8942e-05 0)
(0.000367914 -7.35827e-05 0)
(0.000363397 -6.02264e-05 0)
(0.000347438 -7.48801e-05 0)
(0.000343577 -6.18211e-05 0)
(0.000327597 -7.64477e-05 0)
(0.000324522 -6.3735e-05 0)
(0.000308483 -7.83298e-05 0)
(0.000306332 -6.59916e-05 0)
(0.000290193 -8.05778e-05 0)
(0.00028912 -6.86289e-05 0)
(0.000272837 -8.32658e-05 0)
(0.000273021 -7.17141e-05 0)
(0.000256539 -8.65128e-05 0)
(0.000258188 -7.53421e-05 0)
(0.000241494 -9.04241e-05 0)
(0.000244785 -7.94594e-05 0)
(0.00022805 -9.47869e-05 0)
(0.000234042 -8.5778e-05 0)
(0.000581145 -6.45497e-05 0)
(0.000584174 -4.67934e-05 0)
(0.000558994 -6.2866e-05 0)
(0.000560113 -4.49001e-05 0)
(0.000537496 -6.09743e-05 0)
(0.000537121 -4.3874e-05 0)
(0.000517224 -5.87461e-05 0)
(0.000515762 -4.30978e-05 0)
(0.000498076 -5.64154e-05 0)
(0.000495806 -4.23154e-05 0)
(0.000479719 -5.42647e-05 0)
(0.00047683 -4.14837e-05 0)
(0.000461825 -5.24755e-05 0)
(0.000458461 -4.06676e-05 0)
(0.00044417 -5.11255e-05 0)
(0.000440464 -3.99736e-05 0)
(0.000426647 -5.02242e-05 0)
(0.000422739 -3.95072e-05 0)
(0.000409254 -4.97482e-05 0)
(0.000405289 -3.93509e-05 0)
(0.000392054 -4.96644e-05 0)
(0.000388184 -3.95584e-05 0)
(0.000375157 -4.99446e-05 0)
(0.000371532 -4.01582e-05 0)
(0.000358694 -5.05722e-05 0)
(0.000355468 -4.11604e-05 0)
(0.000342809 -5.15452e-05 0)
(0.000340137 -4.2564e-05 0)
(0.000327651 -5.28773e-05 0)
(0.000325696 -4.43626e-05 0)
(0.00031337 -5.45995e-05 0)
(0.000312307 -4.65531e-05 0)
(0.000300115 -5.67682e-05 0)
(0.000300135 -4.91443e-05 0)
(0.000288044 -5.9465e-05 0)
(0.000289337 -5.21237e-05 0)
(0.000277338 -6.27303e-05 0)
(0.000280029 -5.53029e-05 0)
(0.00026807 -6.64104e-05 0)
(0.000272689 -6.01947e-05 0)
(0.000538739 -4.55924e-05 0)
(0.000544735 -3.72932e-05 0)
(0.000524947 -4.30036e-05 0)
(0.000529345 -3.45771e-05 0)
(0.000511018 -4.09026e-05 0)
(0.000513596 -3.19668e-05 0)
(0.000496766 -3.90835e-05 0)
(0.000497647 -2.96107e-05 0)
(0.000482197 -3.74197e-05 0)
(0.000481685 -2.76049e-05 0)
(0.000467445 -3.58679e-05 0)
(0.000465889 -2.59844e-05 0)
(0.000452671 -3.44443e-05 0)
(0.000450388 -2.47393e-05 0)
(0.000438008 -3.31982e-05 0)
(0.000435258 -2.38474e-05 0)
(0.000423549 -3.21874e-05 0)
(0.000420539 -2.32907e-05 0)
(0.000409359 -3.14625e-05 0)
(0.000406257 -2.30614e-05 0)
(0.000395491 -3.10592e-05 0)
(0.000392438 -2.31576e-05 0)
(0.000382002 -3.09993e-05 0)
(0.000379123 -2.35784e-05 0)
(0.000368959 -3.12939e-05 0)
(0.000366374 -2.43253e-05 0)
(0.000356446 -3.19475e-05 0)
(0.000354276 -2.53977e-05 0)
(0.00034456 -3.29613e-05 0)
(0.00034293 -2.67927e-05 0)
(0.00033341 -3.43358e-05 0)
(0.000332457 -2.85097e-05 0)
(0.000323125 -3.60743e-05 0)
(0.000322988 -3.05498e-05 0)
(0.000313864 -3.81827e-05 0)
(0.000314655 -3.2897e-05 0)
(0.000305787 -4.06558e-05 0)
(0.000307585 -3.54904e-05 0)
(0.000298904 -4.34834e-05 0)
(0.000301519 -3.82797e-05 0)
(0.00050983 -2.51683e-05 0)
(0.000516616 -1.93455e-05 0)
(0.000499318 -2.33864e-05 0)
(0.000504546 -1.74783e-05 0)
(0.000488726 -2.18001e-05 0)
(0.000492336 -1.56932e-05 0)
(0.000478003 -2.03518e-05 0)
(0.000480064 -1.4012e-05 0)
(0.000467129 -1.90488e-05 0)
(0.000467826 -1.24681e-05 0)
(0.000456058 -1.79052e-05 0)
(0.00045566 -1.11433e-05 0)
(0.000444829 -1.693e-05 0)
(0.000443609 -1.00894e-05 0)
(0.000433517 -1.61372e-05 0)
(0.000431724 -9.32784e-06 0)
(0.000422209 -1.5542e-05 0)
(0.00042006 -8.86361e-06 0)
(0.000410988 -1.51643e-05 0)
(0.000408668 -8.69634e-06 0)
(0.000399933 -1.50193e-05 0)
(0.000397591 -8.83001e-06 0)
(0.000389154 -1.51132e-05 0)
(0.000386906 -9.25191e-06 0)
(0.00037874 -1.54615e-05 0)
(0.000376689 -9.94459e-06 0)
(0.000368782 -1.60729e-05 0)
(0.00036702 -1.08882e-05 0)
(0.000359369 -1.69526e-05 0)
(0.00035799 -1.20567e-05 0)
(0.000350582 -1.81073e-05 0)
(0.000349685 -1.3441e-05 0)
(0.000342489 -1.9544e-05 0)
(0.000342173 -1.50494e-05 0)
(0.000335154 -2.12618e-05 0)
(0.000335519 -1.68938e-05 0)
(0.000328604 -2.32577e-05 0)
(0.000329794 -1.90218e-05 0)
(0.000322806 -2.5539e-05 0)
(0.000325041 -2.1397e-05 0)
(0.000490041 -7.57013e-06 0)
(0.000496916 -3.55488e-06 0)
(0.000481833 -6.67332e-06 0)
(0.000487312 -2.42158e-06 0)
(0.000473516 -5.93203e-06 0)
(0.000477502 -1.30403e-06 0)
(0.00046508 -5.28002e-06 0)
(0.000467491 -2.40556e-07 0)
(0.000456526 -4.43008e-06 0)
(0.000457756 6.69295e-07 0)
(0.00044792 -3.64252e-06 0)
(0.000448244 1.4421e-06 0)
(0.000439238 -2.98582e-06 0)
(0.000438863 2.06388e-06 0)
(0.000430479 -2.47957e-06 0)
(0.000429588 2.5152e-06 0)
(0.000421672 -2.12244e-06 0)
(0.000420464 2.77602e-06 0)
(0.000412866 -1.90086e-06 0)
(0.000411568 2.8607e-06 0)
(0.000404244 -1.9576e-06 0)
(0.000402835 2.73229e-06 0)
(0.000395747 -2.22579e-06 0)
(0.000394314 2.37267e-06 0)
(0.000387469 -2.68873e-06 0)
(0.000386081 1.7868e-06 0)
(0.000379508 -3.33514e-06 0)
(0.000378201 9.83458e-07 0)
(0.000371969 -4.14906e-06 0)
(0.000370841 -3.67099e-08 0)
(0.000364975 -5.12559e-06 0)
(0.000364158 -1.25381e-06 0)
(0.000358566 -6.28951e-06 0)
(0.000358173 -2.63291e-06 0)
(0.000352754 -7.65708e-06 0)
(0.000352906 -4.17705e-06 0)
(0.000347527 -9.26102e-06 0)
(0.00034839 -5.94358e-06 0)
(0.000342864 -1.11557e-05 0)
(0.000344653 -7.91346e-06 0)
(0.000476092 5.3335e-06 0)
(0.000482925 8.58328e-06 0)
(0.000468833 5.48776e-06 0)
(0.000474733 9.12885e-06 0)
(0.000461191 5.64484e-06 0)
(0.000466227 9.77303e-06 0)
(0.00045682 6.42843e-06 0)
(0.000458699 1.01508e-05 0)
(0.000449816 6.9176e-06 0)
(0.00045118 1.07015e-05 0)
(0.000442851 7.47538e-06 0)
(0.000443664 1.12013e-05 0)
(0.000435925 7.97842e-06 0)
(0.000436207 1.15963e-05 0)
(0.000429089 8.3961e-06 0)
(0.000428877 1.18773e-05 0)
(0.000422435 8.66054e-06 0)
(0.00042173 1.20124e-05 0)
(0.000414558 7.94882e-06 0)
(0.000414269 1.19532e-05 0)
(0.000407668 7.86985e-06 0)
(0.000407141 1.15992e-05 0)
(0.00040095 7.59105e-06 0)
(0.000400365 1.10714e-05 0)
(0.000394434 7.17741e-06 0)
(0.00039396 1.04509e-05 0)
(0.00038815 6.70883e-06 0)