/*--------------------------------*- C++ -*----------------------------------*\
| =========                 |                                                 |
| \\      /  F ield         | OpenFOAM: The Open Source CFD Toolbox           |
|  \\    /   O peration     | Version:  v2012                                 |
|   \\  /    A nd           | Website:  www.openfoam.com                      |
|    \\/     M anipulation  |                                                 |
\*---------------------------------------------------------------------------*/
FoamFile
{
    version     2.0;
    format      ascii;
    class       volVectorField;
    location    "20";
    object      D_0;
}
// * * * * * * * * * * * * * * * * * * * * * * * * * * * * * * * * * * * * * //

dimensions      [0 1 0 0 0 0 0];


internalField   nonuniform List<vector> 
2000
(
(0.000201276 8.98082e-05 0)
(0.000308767 6.31205e-05 0)
(0.000163083 -0.000119578 0)
(0.000249272 -0.000167406 0)
(0.00014389 -0.000307811 0)
(0.0002162 -0.000358225 0)
(0.000131449 -0.000468806 0)
(0.00018972 -0.000511992 0)
(0.000120544 -0.000598883 0)
(0.000161014 -0.00062911 0)
(0.000108188 -0.000694486 0)
(0.00012886 -0.000709618 0)
(9.36093e-05 -0.000754852 0)
(9.71386e-05 -0.000757559 0)
(7.76373e-05 -0.000785517 0)
(7.02884e-05 -0.000780396 0)
(6.10602e-05 -0.000795659 0)
(5.07324e-05 -0.000785826 0)
(4.31895e-05 -0.000793869 0)
(4.03182e-05 -0.000781237 0)
(0.000360178 -2.00466e-05 0)
(0.000438866 -0.000117317 0)
(0.000388724 -0.000184201 0)
(0.000466563 -0.000268925 0)
(0.000397231 -0.000341444 0)
(0.00046151 -0.00040638 0)
(0.000387595 -0.000477014 0)
(0.000430576 -0.000513277 0)
(0.000359448 -0.000578881 0)
(0.000380406 -0.000586614 0)
(0.000316675 -0.000646038 0)
(0.000320635 -0.000632531 0)
(0.000266422 -0.000684874 0)
(0.000260713 -0.000659391 0)
(0.000215681 -0.000704454 0)
(0.000207115 -0.000674331 0)
(0.000169224 -0.00071297 0)
(0.000163178 -0.000682476 0)
(0.000129728 -0.000716042 0)
(0.000128934 -0.000685703 0)
(0.000606523 -0.000129512 0)
(0.000687453 -0.000224108 0)
(0.000625807 -0.000286652 0)
(0.000683766 -0.000361082 0)
(0.000623922 -0.000411213 0)
(0.000656618 -0.000450951 0)
(0.000593309 -0.000496039 0)
(0.000603836 -0.000499454 0)
(0.000537183 -0.000544321 0)
(0.00053416 -0.000521715 0)
(0.00046621 -0.000569343 0)
(0.000458213 -0.000532481 0)
(0.000391881 -0.000582905 0)
(0.000384841 -0.000540302 0)
(0.00032253 -0.000591934 0)
(0.000319802 -0.000548734 0)
(0.000262816 -0.000599755 0)
(0.000265563 -0.000558563 0)
(0.000214212 -0.000606711 0)
(0.000222427 -0.000568199 0)
(0.000765085 -0.000292274 0)
(0.000809644 -0.000369113 0)
(0.000776335 -0.000396436 0)
(0.000794821 -0.000431712 0)
(0.000751628 -0.000449284 0)
(0.000749453 -0.000447023 0)
(0.000697092 -0.000464684 0)
(0.00068456 -0.000439895 0)
(0.000628233 -0.000463437 0)
(0.000614334 -0.000429202 0)
(0.000556619 -0.000459391 0)
(0.000546034 -0.000421477 0)
(0.000488076 -0.000458005 0)
(0.000482468 -0.000418313 0)
(0.000425332 -0.000460553 0)
(0.000425296 -0.000419996 0)
(0.000369004 -0.000466468 0)
(0.00037511 -0.000425851 0)
(0.000319792 -0.000474317 0)
(0.000330477 -0.000432938 0)
(0.000845719 -0.000402982 0)
(0.000851658 -0.000418117 0)
(0.000822282 -0.000426492 0)
(0.000810516 -0.000409696 0)
(0.000771416 -0.000412069 0)
(0.000755405 -0.000386385 0)
(0.000713301 -0.000394401 0)
(0.000698801 -0.000368263 0)
(0.000657271 -0.000379441 0)
(0.00064458 -0.000352728 0)
(0.000604317 -0.000367728 0)
(0.000592808 -0.000338845 0)
(0.00055357 -0.000359652 0)
(0.000545115 -0.000329211 0)
(0.000503908 -0.000353815 0)
(0.000501502 -0.000323264 0)
(0.000457773 -0.000352549 0)
(0.000460833 -0.000320519 0)
(0.000414453 -0.000353909 0)
(0.000422 -0.000319374 0)
(0.000836833 -0.000402427 0)
(0.000822425 -0.000379646 0)
(0.000803096 -0.00037551 0)
(0.000791211 -0.000355055 0)
(0.000763353 -0.000351599 0)
(0.000752913 -0.000331757 0)
(0.000720748 -0.000332191 0)
(0.000711147 -0.000311013 0)
(0.000677045 -0.000316186 0)
(0.000668542 -0.000293262 0)
(0.000633872 -0.000302777 0)
(0.000626938 -0.000278351 0)
(0.00059193 -0.000291299 0)
(0.000587009 -0.000265962 0)
(0.000552024 -0.000281854 0)
(0.000549146 -0.000255772 0)
(0.000513931 -0.000274321 0)
(0.000513074 -0.000247168 0)
(0.00047715 -0.000268511 0)
(0.000481096 -0.000241573 0)
(0.000819178 -0.000345454 0)
(0.000809093 -0.000323658 0)
(0.000793639 -0.000320796 0)
(0.00078502 -0.000301067 0)
(0.000762806 -0.000298592 0)
(0.000755303 -0.000279013 0)
(0.00072909 -0.000279429 0)
(0.000722524 -0.000258779 0)
(0.000693814 -0.000262809 0)
(0.000688274 -0.000240644 0)
(0.000657905 -0.000248152 0)
(0.000653635 -0.000224647 0)
(0.000622174 -0.000235074 0)
(0.000619478 -0.000210655 0)
(0.000587468 -0.000223285 0)
(0.00058659 -0.00019851 0)
(0.00055434 -0.000212692 0)
(0.000555578 -0.00018805 0)
(0.000522957 -0.000203227 0)
(0.00052661 -0.000179333 0)
(0.000816174 -0.000293608 0)
(0.000809908 -0.000271444 0)
(0.000793945 -0.000271162 0)
(0.000788547 -0.000250076 0)
(0.00076833 -0.000250366 0)
(0.000763814 -0.000229277 0)
(0.000740407 -0.00023159 0)
(0.000736809 -0.000209619 0)
(0.000710844 -0.00021448 0)
(0.000708255 -0.000191201 0)
(0.000680162 -0.000198605 0)
(0.000678687 -0.000174011 0)
(0.000648996 -0.000183657 0)
(0.000648714 -0.000158097 0)
(0.000618127 -0.000169466 0)
(0.000619125 -0.000143627 0)
(0.000588376 -0.000156085 0)
(0.000590851 -0.000130885 0)
(0.00056028 -0.000143687 0)
(0.000564626 -0.000120149 0)
(0.000820007 -0.000245729 0)
(0.000816605 -0.000224468 0)
(0.000801023 -0.000225105 0)
(0.000798447 -0.000203745 0)
(0.000779483 -0.000205539 0)
(0.000777763 -0.000183564 0)
(0.000755965 -0.000187299 0)
(0.00075515 -0.0001642 0)
(0.000730819 -0.000170187 0)
(0.000731007 -0.00014554 0)
(0.000704221 -0.000153933 0)
(0.000705546 -0.000127374 0)
(0.000676297 -0.000138252 0)
(0.000678892 -0.00010953 0)
(0.000647274 -0.000122809 0)
(0.000651264 -9.20474e-05 0)
(0.000617749 -0.000107148 0)
(0.000623357 -7.54868e-05 0)
(0.000589133 -9.05857e-05 0)
(0.000597076 -6.12996e-05 0)
(0.000827572 -0.000201775 0)
(0.000826556 -0.0001818 0)
(0.000811763 -0.00018258 0)
(0.000811666 -0.000161852 0)
(0.00079398 -0.000164214 0)
(0.00079469 -0.000142423 0)
(0.000774386 -0.000146713 0)
(0.000775896 -0.000123504 0)
(0.00075325 -0.00012987 0)
(0.000755556 -0.000104923 0)
(0.000730836 -0.000113568 0)
(0.000733873 -8.65343e-05 0)
(0.000707431 -9.79118e-05 0)
(0.000711043 -6.82871e-05 0)
(0.000683509 -8.33471e-05 0)
(0.000687475 -5.03634e-05 0)
(0.000660104 -7.08886e-05 0)
(0.000664356 -3.35457e-05 0)
(0.000638964 -6.25762e-05 0)
(0.000644094 -1.95195e-05 0)
(0.000836095 -0.00016178 0)
(0.000836772 -0.00014377 0)
(0.000823582 -0.00014429 0)
(0.000825372 -0.000125104 0)
(0.000809397 -0.000127254 0)
(0.000812024 -0.000106739 0)
(0.000793581 -0.000110616 0)
(0.000797024 -8.84545e-05 0)
(0.000776412 -9.4145e-05 0)
(0.000780702 -6.99769e-05 0)
(0.000758297 -7.77183e-05 0)
(0.000763388 -5.11e-05 0)
(0.000739991 -6.15501e-05 0)
(0.000745617 -3.16776e-05 0)
(0.000723078 -4.66663e-05 0)
(0.000728404 -1.16051e-05 0)
(0.000710078 -3.59194e-05 0)
(0.00071264 8.72318e-06 0)
(0.000701282 -3.5291e-05 0)
(0.000694828 2.60178e-05 0)
(0.000842927 -0.000126499 0)
(0.000844421 -0.000111174 0)
(0.000833846 -0.000111508 0)
(0.000836608 -9.46432e-05 0)
(0.000822917 -9.64632e-05 0)
(0.000826549 -7.79616e-05 0)
(0.000810365 -8.15051e-05 0)
(0.000814744 -6.10741e-05 0)
(0.000796636 -6.6765e-05 0)
(0.000801716 -4.39363e-05 0)
(0.00078213 -5.26727e-05 0)
(0.000787942 -2.65243e-05 0)
(0.000767178 -3.9947e-05 0)
(0.000773939 -8.5722e-06 0)
(0.000752062 -2.91585e-05 0)
(0.000760123 1.06644e-05 0)
(0.00073634 -1.95334e-05 0)
(0.000745445 3.15362e-05 0)
(0.000716558 -7.56744e-06 0)
(0.00072452 5.13145e-05 0)
(0.00084656 -9.67374e-05 0)
(0.000848076 -8.45239e-05 0)
(0.000840868 -8.48554e-05 0)
(0.000843729 -7.09993e-05 0)
(0.000832971 -7.25204e-05 0)
(0.000836805 -5.6771e-05 0)
(0.000823214 -6.00705e-05 0)
(0.000827966 -4.20081e-05 0)
(0.000812081 -4.77164e-05 0)
(0.000817826 -2.67224e-05 0)
(0.000799986 -3.57121e-05 0)
(0.000806878 -1.07691e-05 0)
(0.000787355 -2.42175e-05 0)
(0.000795591 6.30389e-06 0)
(0.000774532 -1.2892e-05 0)
(0.000784165 2.51384e-05 0)
(0.000760751 -5.82399e-07 0)
(0.000771194 4.54868e-05 0)
(0.000742381 1.30684e-05 0)
(0.000752299 6.51283e-05 0)
(0.000846885 -7.23856e-05 0)
(0.000848089 -6.31315e-05 0)
(0.000843946 -6.37116e-05 0)
(0.000846518 -5.29328e-05 0)
(0.000838657 -5.41959e-05 0)
(0.00084232 -4.14472e-05 0)
(0.000831422 -4.42221e-05 0)
(0.000836183 -2.89477e-05 0)
(0.000822789 -3.39972e-05 0)
(0.000828735 -1.55039e-05 0)
(0.00081319 -2.36866e-05 0)
(0.000820446 -1.00679e-06 0)
(0.000802926 -1.3244e-05 0)
(0.000811686 1.48977e-05 0)
(0.000792027 -2.11897e-06 0)
(0.0008025 3.26688e-05 0)
(0.000779657 1.04806e-05 0)
(0.000791615 5.21185e-05 0)
(0.000763021 2.40567e-05 0)
(0.000775103 7.12114e-05 0)
(0.000844099 -5.26378e-05 0)
(0.00084476 -4.6007e-05 0)
(0.000843139 -4.70329e-05 0)
(0.000845142 -3.90404e-05 0)
(0.000839906 -4.01965e-05 0)
(0.000843057 -3.02589e-05 0)
(0.000834805 -3.25921e-05 0)
(0.000839165 -2.00531e-05 0)
(0.000828354 -2.44627e-05 0)
(0.000834039 -8.61289e-06 0)
(0.000820908 -1.59333e-05 0)
(0.000828082 4.06508e-06 0)
(0.000812638 -6.8897e-06 0)
(0.000821593 1.82324e-05 0)
(0.000803451 3.1362e-06 0)
(0.000814586 3.42979e-05 0)
(0.000792555 1.47003e-05 0)
(0.000805846 5.21804e-05 0)
(0.00077752 2.74569e-05 0)
(0.000791611 7.02904e-05 0)
(0.000838469 -3.67533e-05 0)
(0.000838386 -3.23415e-05 0)
(0.000838777 -3.39522e-05 0)
(0.000839955 -2.8308e-05 0)
(0.00083698 -2.95472e-05 0)
(0.000839341 -2.20263e-05 0)
(0.000833498 -2.41447e-05 0)
(0.00083716 -1.40709e-05 0)
(0.000828793 -1.80812e-05 0)
(0.000833912 -4.78613e-06 0)
(0.000823126 -1.15076e-05 0)
(0.000829923 5.72628e-06 0)
(0.000816562 -4.32031e-06 0)
(0.000825422 1.76446e-05 0)
(0.00080895 3.91118e-06 0)
(0.000820378 3.1349e-05 0)
(0.000799564 1.37841e-05 0)
(0.000813599 4.69112e-05 0)
(0.0007862 2.53215e-05 0)
(0.000801548 6.33191e-05 0)
(0.000830598 -2.427e-05 0)
(0.000829753 -2.15428e-05 0)
(0.000831549 -2.37296e-05 0)
(0.000831831 -1.98725e-05 0)
(0.000830617 -2.13073e-05 0)
(0.000832101 -1.56792e-05 0)
(0.000828274 -1.78085e-05 0)
(0.000831105 -9.77894e-06 0)
(0.000824933 -1.37153e-05 0)
(0.000829267 -2.69314e-06 0)
(0.000820774 -9.24327e-06 0)
(0.000826849 5.37212e-06 0)
(0.000815786 -4.29025e-06 0)
(0.000824019 1.45395e-05 0)
(0.000809769 1.63682e-06 0)
(0.000820685 2.51959e-05 0)
(0.00080202 9.33284e-06 0)
(0.000815673 3.7622e-05 0)
(0.000790555 1.92713e-05 0)
(0.000805777 5.14395e-05 0)
(0.000821771 -1.49216e-05 0)
(0.000820485 -1.31789e-05 0)
(0.000822855 -1.56923e-05 0)
(0.000822521 -1.29526e-05 0)
(0.000822345 -1.46028e-05 0)
(0.000823155 -1.02268e-05 0)
(0.000820779 -1.25995e-05 0)
(0.000822816 -6.03615e-06 0)
(0.000818546 -1.02874e-05 0)
(0.000821872 -1.0666e-06 0)
(0.000815788 -7.93755e-06 0)
(0.000820573 4.37131e-06 0)
(0.000812444 -5.42313e-06 0)
(0.000819065 1.03524e-05 0)
(0.00080825 -2.12833e-06 0)
(0.000817204 1.72979e-05 0)
(0.000802485 3.00647e-06 0)
(0.000813854 2.57293e-05 0)
(0.000793425 1.09206e-05 0)
(0.000806279 3.5887e-05 0)
(0.000814163 -8.25683e-06 0)
(0.000813068 -6.80352e-06 0)
(0.00081507 -9.22796e-06 0)
(0.000814664 -6.95922e-06 0)
(0.000814795 -8.89397e-06 0)
(0.000815277 -5.09091e-06 0)
(0.000813869 -8.07019e-06 0)
(0.000815173 -2.23517e-06 0)
(0.000812655 -7.28204e-06 0)
(0.000814679 8.7618e-07 0)
(0.000811318 -6.75221e-06 0)
(0.000814085 3.85947e-06 0)
(0.00080981 -6.33623e-06 0)
(0.000813557 6.70207e-06 0)
(0.000807841 -5.41696e-06 0)
(0.000812924 9.74517e-06 0)
(0.000804661 -2.89638e-06 0)
(0.000811132 1.35733e-05 0)
(0.000798748 2.356e-06 0)
(0.000806041 1.88734e-05 0)
(0.000809954 -2.91341e-06 0)
(0.000809372 -1.52105e-06 0)
(0.000811046 -3.47888e-06 0)
(0.000810805 -1.48554e-06 0)
(0.000811678 -3.85339e-06 0)
(0.000811768 -2.45499e-07 0)
(0.000812144 -4.28472e-06 0)
(0.000812286 1.4741e-06 0)
(0.000812544 -4.95133e-06 0)
(0.000812501 3.08326e-06 0)
(0.000812833 -5.88851e-06 0)
(0.000812587 4.18703e-06 0)
(0.000812861 -6.87671e-06 0)
(0.000812698 4.64827e-06 0)
(0.0008124 -7.30378e-06 0)
(0.00081273 4.64599e-06 0)
(0.000811015 -6.18953e-06 0)
(0.000811811 4.6774e-06 0)
(0.000807813 -2.687e-06 0)
(0.000808268 5.46265e-06 0)
(0.000801735 5.30854e-06 0)
(0.000798256 1.27607e-05 0)
(0.000797273 1.93792e-05 0)
(0.00079566 2.87854e-05 0)
(0.000794063 3.18992e-05 0)
(0.000795292 4.20083e-05 0)
(0.000791569 4.31905e-05 0)
(0.000794665 5.35393e-05 0)
(0.000787223 5.23964e-05 0)
(0.000790223 6.29555e-05 0)
(0.000778567 5.80134e-05 0)
(0.000779934 6.88357e-05 0)
(0.000764133 5.85314e-05 0)
(0.000763223 6.95689e-05 0)
(0.000743567 5.29334e-05 0)
(0.000740634 6.4051e-05 0)
(0.000720608 3.96046e-05 0)
(0.000715143 5.16479e-05 0)
(0.0007068 -1.47109e-06 0)
(0.000695349 1.93643e-05 0)
(0.000782921 1.64165e-06 0)
(0.00077646 1.18204e-05 0)
(0.00077873 1.15037e-05 0)
(0.000774143 2.14859e-05 0)
(0.000775526 1.75669e-05 0)
(0.000772382 2.73647e-05 0)
(0.000771981 2.09709e-05 0)
(0.000770007 3.009e-05 0)
(0.000767141 2.25727e-05 0)
(0.000765567 3.08447e-05 0)
(0.000760148 2.1891e-05 0)
(0.000757935 2.95588e-05 0)
(0.000751003 1.69298e-05 0)
(0.000747159 2.44618e-05 0)
(0.00074045 2.99289e-06 0)
(0.00073447 1.1095e-05 0)
(0.000722878 -2.54778e-05 0)
(0.00071624 -1.64501e-05 0)
(0.000677124 -5.9693e-05 0)
(0.000672355 -5.20488e-05 0)
(0.000763489 -1.82588e-06 0)
(0.000757264 8.63603e-06 0)
(0.000758791 2.77358e-06 0)
(0.000754905 1.1206e-05 0)
(0.000755959 4.75947e-06 0)
(0.000753771 1.19601e-05 0)
(0.000752479 4.35931e-06 0)
(0.000751489 1.06734e-05 0)
(0.000747498 2.06815e-06 0)
(0.000747237 7.678e-06 0)
(0.000740986 -2.48164e-06 0)
(0.000740893 2.83432e-06 0)
(0.000732096 -1.09732e-05 0)
(0.000731726 -5.32262e-06 0)
(0.000715601 -2.477e-05 0)
(0.000714936 -1.86041e-05 0)
(0.000680361 -4.06081e-05 0)
(0.000679456 -3.48037e-05 0)
(0.000627806 -5.00335e-05 0)
(0.000625238 -4.44871e-05 0)
(0.00074728 -3.07958e-06 0)
(0.000742247 5.17126e-06 0)
(0.00074252 -2.43037e-06 0)
(0.000739861 3.65659e-06 0)
(0.000739316 -2.80011e-06 0)
(0.000738834 1.66291e-06 0)
(0.000735389 -4.3968e-06 0)
(0.000736493 -8.10906e-07 0)
(0.000729406 -7.43103e-06 0)
(0.000731525 -4.07779e-06 0)
(0.000720098 -1.21475e-05 0)
(0.0007228 -8.5638e-06 0)
(0.000704358 -1.81168e-05 0)
(0.000707311 -1.42875e-05 0)
(0.000677212 -2.32907e-05 0)
(0.000679887 -1.97964e-05 0)
(0.000638478 -2.60004e-05 0)
(0.000639679 -2.28471e-05 0)
(0.000596256 -2.88101e-05 0)
(0.000595348 -2.50578e-05 0)
(0.000733148 -2.73965e-06 0)
(0.000729204 2.48114e-06 0)
(0.000728834 -3.62667e-06 0)
(0.000727091 1.10322e-07 0)
(0.000724705 -4.69482e-06 0)
(0.000725191 -2.23943e-06 0)
(0.000719016 -6.09254e-06 0)
(0.000721244 -4.28476e-06 0)
(0.000710131 -7.88371e-06 0)
(0.00071348 -6.1381e-06 0)
(0.000695991 -9.6831e-06 0)
(0.000699884 -7.80527e-06 0)
(0.000674158 -1.04437e-05 0)
(0.000678018 -8.68825e-06 0)
(0.000644096 -9.57219e-06 0)
(0.000647228 -8.10609e-06 0)
(0.000609447 -8.65572e-06 0)
(0.000611205 -7.04596e-06 0)
(0.000574449 -1.01525e-05 0)
(0.000574558 -7.84366e-06 0)
(0.000719597 -1.64581e-06 0)
(0.000716327 9.00959e-07 0)
(0.000715766 -2.12474e-06 0)
(0.000714526 -3.46247e-07 0)
(0.000710484 -2.45986e-06 0)
(0.000711206 -1.43628e-06 0)
(0.00070237 -2.631e-06 0)
(0.000704627 -1.99964e-06 0)
(0.000690066 -2.30954e-06 0)
(0.000693276 -1.81e-06 0)
(0.000672221 -1.04099e-06 0)
(0.000675803 -6.75431e-07 0)
(0.000648316 1.34078e-06 0)
(0.000651761 1.5021e-06 0)
(0.000619818 4.00829e-06 0)
(0.000622693 4.16496e-06 0)
(0.000589634 5.36817e-06 0)
(0.000591554 5.94547e-06 0)
(0.000560017 4.07909e-06 0)
(0.000560684 5.49787e-06 0)
(0.00070586 -3.16759e-07 0)
(0.000702941 1.95637e-07 0)
(0.000702394 7.07044e-07 0)
(0.000701321 9.32189e-07 0)
(0.000696055 2.00409e-06 0)
(0.000696582 1.83149e-06 0)
(0.000685912 3.60302e-06 0)
(0.000687622 3.19795e-06 0)
(0.000671277 5.86555e-06 0)
(0.000673721 5.292e-06 0)
(0.000651892 8.894e-06 0)
(0.000654672 8.13947e-06 0)
(0.000628386 1.22193e-05 0)
(0.000631187 1.13813e-05 0)
(0.000602375 1.48802e-05 0)
(0.000604911 1.42339e-05 0)
(0.000575726 1.5961e-05 0)
(0.000577684 1.58262e-05 0)
(0.000549604 1.49569e-05 0)
(0.000550707 1.55402e-05 0)
(0.000691824 9.88571e-07 0)
(0.000689114 -3.57729e-08 0)
(0.000688735 3.92574e-06 0)
(0.000687641 2.86791e-06 0)
(0.000681742 7.12546e-06 0)
(0.00068192 5.85198e-06 0)
(0.000670502 1.04692e-05 0)
(0.000671574 9.06887e-06 0)
(0.000654998 1.4117e-05 0)
(0.000656668 1.26266e-05 0)
(0.000635676 1.78983e-05 0)
(0.000637723 1.63567e-05 0)
(0.000613514 2.12526e-05 0)
(0.000615741 1.98003e-05 0)
(0.000589812 2.35459e-05 0)
(0.000591992 2.2389e-05 0)
(0.000565837 2.44712e-05 0)
(0.000567721 2.37574e-05 0)
(0.000542776 2.40511e-05 0)
(0.000544102 2.38231e-05 0)
(0.0006778 2.14815e-06 0)
(0.000675286 -7.42731e-08 0)
(0.000675222 6.94082e-06 0)
(0.000674059 4.80208e-06 0)
(0.000668109 1.18552e-05 0)
(0.000667951 9.61151e-06 0)
(0.000656683 1.65953e-05 0)
(0.000657227 1.43322e-05 0)
(0.000641398 2.11347e-05 0)
(0.000642466 1.89187e-05 0)
(0.000622998 2.52311e-05 0)
(0.000624473 2.31288e-05 0)
(0.000602483 2.84872e-05 0)
(0.000604222 2.66117e-05 0)
(0.000581001 3.05585e-05 0)
(0.000582786 2.90517e-05 0)
(0.000559742 3.12234e-05 0)
(0.000561313 3.02234e-05 0)
(0.000539824 3.02896e-05 0)
(0.000540967 2.99141e-05 0)
(0.000664288 3.09648e-06 0)
(0.000662013 -4.23346e-08 0)
(0.000662355 9.40947e-06 0)
(0.000661151 6.41208e-06 0)
(0.00065559 1.56327e-05 0)
(0.000655163 1.26289e-05 0)
(0.000644633 2.13465e-05 0)
(0.000644765 1.84361e-05 0)
(0.000630211 2.64311e-05 0)
(0.000630803 2.36982e-05 0)
(0.000613174 3.0666e-05 0)
(0.000614158 2.81782e-05 0)
(0.000594502 3.3778e-05 0)
(0.000595762 3.16228e-05 0)
(0.000575252 3.55486e-05 0)
(0.00057661 3.38407e-05 0)
(0.000556449 3.58575e-05 0)
(0.000557689 3.47167e-05 0)
(0.000538894 3.46752e-05 0)
(0.000539818 3.41531e-05 0)
(0.000651789 3.80049e-06 0)
(0.000649797 2.65959e-08 0)
(0.000650564 1.11869e-05 0)
(0.000649353 7.59273e-06 0)
(0.000644459 1.82722e-05 0)
(0.000643811 1.47664e-05 0)
(0.000634368 2.45792e-05 0)
(0.000634148 2.12658e-05 0)
(0.000621151 2.99535e-05 0)
(0.000621323 2.69129e-05 0)
(0.000605688 3.42123e-05 0)
(0.00060622 3.15044e-05 0)
(0.000588909 3.71637e-05 0)
(0.000589715 3.48634e-05 0)
(0.000571756 3.8684e-05 0)
(0.000572688 3.68873e-05 0)
(0.000555079 3.87573e-05 0)
(0.000555951 3.75496e-05 0)
(0.000539489 3.74466e-05 0)
(0.000540134 3.68355e-05 0)
(0.000640694 4.26299e-06 0)
(0.000639011 1.31407e-07 0)
(0.000640164 1.22884e-05 0)
(0.00063896 8.37253e-06 0)
(0.000634884 1.9844e-05 0)
(0.000634029 1.61049e-05 0)
(0.000625859 2.64415e-05 0)
(0.000625301 2.29735e-05 0)
(0.000613989 3.1915e-05 0)
(0.000613748 2.87818e-05 0)
(0.000600134 3.61203e-05 0)
(0.000600219 3.33688e-05 0)
(0.00058516 3.89339e-05 0)
(0.000585514 3.66272e-05 0)
(0.000569896 4.03078e-05 0)
(0.000570397 3.85259e-05 0)
(0.000555048 4.02921e-05 0)
(0.000555537 3.90988e-05 0)
(0.000541081 3.8991e-05 0)
(0.000541418 3.83704e-05 0)
(0.000631248 4.52085e-06 0)
(0.000629877 2.81782e-07 0)
(0.000631355 1.28376e-05 0)
(0.000630152 8.8583e-06 0)
(0.00062696 2.05691e-05 0)
(0.000625885 1.68519e-05 0)
(0.000619068 2.72424e-05 0)
(0.000618152 2.38602e-05 0)
(0.000608549 3.26876e-05 0)
(0.000607871 2.96795e-05 0)
(0.000596216 3.67954e-05 0)
(0.000595826 3.41901e-05 0)
(0.000582868 3.94995e-05 0)
(0.000582739 3.73449e-05 0)
(0.000569238 4.08089e-05 0)
(0.000569278 3.91685e-05 0)
(0.000555912 4.08226e-05 0)
(0.000555997 3.97396e-05 0)
(0.00054327 3.9679e-05 0)
(0.000543297 3.91205e-05 0)
(0.000623558 4.63256e-06 0)
(0.000622479 4.92268e-07 0)
(0.000624231 1.30123e-05 0)
(0.000623004 9.19299e-06 0)
(0.000620717 2.07356e-05 0)
(0.000619397 1.72676e-05 0)
(0.000613938 2.73583e-05 0)
(0.000612636 2.42849e-05 0)
(0.000604689 3.27059e-05 0)
(0.000603539 3.00368e-05 0)
(0.000593719 3.66969e-05 0)
(0.000592808 3.44376e-05 0)
(0.000581761 3.93182e-05 0)
(0.000581102 3.74936e-05 0)
(0.00056949 4.06257e-05 0)
(0.000569019 3.92806e-05 0)
(0.000557426 4.07131e-05 0)
(0.000557041 3.98912e-05 0)
(0.000545827 3.96594e-05 0)
(0.000545449 3.93495e-05 0)
(0.000617604 4.66483e-06 0)
(0.000616778 7.81741e-07 0)
(0.000618786 1.30038e-05 0)
(0.000617501 9.52898e-06 0)
(0.000616111 2.06422e-05 0)
(0.000614525 1.76174e-05 0)
(0.000610371 2.71703e-05 0)
(0.000608668 2.46031e-05 0)
(0.000602265 3.24065e-05 0)
(0.00060062 3.02771e-05 0)
(0.00059247 3.62854e-05 0)
(0.000591001 3.45761e-05 0)
(0.000581658 3.88285e-05 0)
(0.00058041 3.75384e-05 0)
(0.000570427 4.01379e-05 0)
(0.00056939 3.92782e-05 0)
(0.000559229 4.0389e-05 0)
(0.000558358 3.99531e-05 0)
(0.000548384 3.97752e-05 0)
(0.000547612 3.96997e-05 0)
(0.000613261 4.68493e-06 0)
(0.000612631 1.17884e-06 0)
(0.000614911 1.30008e-05 0)
(0.000613544 1.00235e-05 0)
(0.000613006 2.05703e-05 0)
(0.000611161 1.81566e-05 0)
(0.000608197 2.70228e-05 0)
(0.000606114 2.51364e-05 0)
(0.000601091 3.21749e-05 0)
(0.000598965 3.07677e-05 0)
(0.000592289 3.59778e-05 0)
(0.000590254 3.50129e-05 0)
(0.000582385 3.84892e-05 0)
(0.000580522 3.7936e-05 0)
(0.000571936 3.98507e-05 0)
(0.000570279 3.96788e-05 0)
(0.000561423 4.02346e-05 0)
(0.000559964 4.04197e-05 0)
(0.000551229 3.97626e-05 0)
(0.000549934 4.02956e-05 0)
(0.000610297 4.75886e-06 0)
(0.000609788 1.74414e-06 0)
(0.000612365 1.31875e-05 0)
(0.000610923 1.0852e-05 0)
(0.000611149 2.07638e-05 0)
(0.000609089 1.91274e-05 0)
(0.000607167 2.71843e-05 0)
(0.000604746 2.61504e-05 0)
(0.000600928 3.23048e-05 0)
(0.000598355 3.17913e-05 0)
(0.000592958 3.61112e-05 0)
(0.000590386 3.60686e-05 0)
(0.000583778 3.86657e-05 0)
(0.000581313 3.90558e-05 0)
(0.000573882 4.01019e-05 0)
(0.000571599 4.08698e-05 0)
(0.00056374 4.06157e-05 0)
(0.000561686 4.16875e-05 0)
(0.000553803 4.03986e-05 0)
(0.000551982 4.17152e-05 0)
(0.000608336 4.95787e-06 0)
(0.000607877 2.60736e-06 0)
(0.000610686 1.36842e-05 0)
(0.000609239 1.21956e-05 0)
(0.000610151 2.13455e-05 0)
(0.000607936 2.06872e-05 0)
(0.000606956 2.77979e-05 0)
(0.00060423 2.78111e-05 0)
(0.000601452 3.30021e-05 0)
(0.000598474 3.35658e-05 0)
(0.000594109 3.69874e-05 0)
(0.000591089 3.80305e-05 0)
(0.000585449 3.98021e-05 0)
(0.00058252 4.12828e-05 0)
(0.000575941 4.15171e-05 0)
(0.000573169 4.33986e-05 0)
(0.000565974 4.2282e-05 0)
(0.000563389 4.44775e-05 0)
(0.000555978 4.23712e-05 0)
(0.000553603 4.46943e-05 0)
(0.000606603 5.30329e-06 0)
(0.000606335 3.82579e-06 0)
(0.000609239 1.42544e-05 0)
(0.000607919 1.3995e-05 0)
(0.000609499 2.21677e-05 0)
(0.000607208 2.27392e-05 0)
(0.000607055 2.89877e-05 0)
(0.000604155 3.02342e-05 0)
(0.000602096 3.46719e-05 0)
(0.000598902 3.64964e-05 0)
(0.000595131 3.92059e-05 0)
(0.000591887 4.14937e-05 0)
(0.000586756 4.26301e-05 0)
(0.000583634 4.52733e-05 0)
(0.000577528 4.50017e-05 0)
(0.000574603 4.79491e-05 0)
(0.000567876 4.63593e-05 0)
(0.000565093 4.9628e-05 0)
(0.000558082 4.67888e-05 0)
(0.000555279 5.0351e-05 0)
(0.00060342 4.94612e-06 0)
(0.000603884 4.62386e-06 0)
(0.000607665 1.40696e-05 0)
(0.000606784 1.50321e-05 0)
(0.000608613 2.30938e-05 0)
(0.000606914 2.50257e-05 0)
(0.000606563 3.13084e-05 0)
(0.000604243 3.39912e-05 0)
(0.000601945 3.83253e-05 0)
(0.000599224 4.1586e-05 0)
(0.000595298 4.40282e-05 0)
(0.000592382 4.76966e-05 0)
(0.000587192 4.84276e-05 0)
(0.000584262 5.23323e-05 0)
(0.000578216 5.16231e-05 0)
(0.000575417 5.56125e-05 0)
(0.000568941 5.37781e-05 0)
(0.000566325 5.7792e-05 0)
(0.000559823 5.50863e-05 0)
(0.000557164 5.92276e-05 0)
(0.000646549 -8.84551e-05 0)
(0.000642019 -5.64502e-05 0)
(0.000619605 -8.89578e-05 0)
(0.000617162 -7.12217e-05 0)
(0.000597712 -8.83576e-05 0)
(0.000595498 -7.63742e-05 0)
(0.00057736 -8.79653e-05 0)
(0.000574484 -7.72474e-05 0)
(0.000556715 -8.8008e-05 0)
(0.000553028 -7.66684e-05 0)
(0.000535197 -8.8479e-05 0)
(0.000530876 -7.60071e-05 0)
(0.000512875 -8.92872e-05 0)
(0.00050819 -7.57892e-05 0)
(0.000490062 -9.03338e-05 0)
(0.000485267 -7.6125e-05 0)
(0.000467094 -9.15531e-05 0)
(0.000462401 -7.69645e-05 0)
(0.000444247 -9.29204e-05 0)
(0.000439825 -7.82231e-05 0)
(0.000421721 -9.44428e-05 0)
(0.000417711 -7.98327e-05 0)
(0.000399656 -9.61475e-05 0)
(0.000396184 -8.17545e-05 0)
(0.00037815 -9.80713e-05 0)
(0.000375341 -8.39774e-05 0)
(0.000357286 -0.000100256 0)
(0.000355268 -8.65116e-05 0)
(0.00033715 -0.000102748 0)
(0.000336059 -8.93823e-05 0)
(0.000317831 -0.0001056 0)
(0.000317822 -9.26295e-05 0)
(0.000299432 -0.000108888 0)
(0.000300687 -9.63233e-05 0)
(0.000282072 -0.000112736 0)
(0.000284802 -0.000100563 0)
(0.000265941 -0.000117257 0)
(0.000270328 -0.000105305 0)
(0.000251381 -0.00012225 0)
(0.00025849 -0.000112262 0)
(0.000630547 -7.60586e-05 0)
(0.00063433 -5.75179e-05 0)
(0.000606932 -7.50884e-05 0)
(0.000608815 -5.6304e-05 0)
(0.000584026 -7.39101e-05 0)
(0.000584434 -5.59653e-05 0)
(0.000562405 -7.23899e-05 0)
(0.000561749 -5.58796e-05 0)
(0.000541966 -7.076e-05 0)
(0.000540529 -5.57876e-05 0)
(0.000522372 -6.93014e-05 0)
(0.000520345 -5.56427e-05 0)
(0.000503291 -6.81952e-05 0)
(0.000500818 -5.55077e-05 0)
(0.000484493 -6.75184e-05 0)
(0.000481707 -5.54874e-05 0)
(0.000465867 -6.72808e-05 0)
(0.000462907 -5.56862e-05 0)
(0.000447404 -6.74587e-05 0)
(0.000444412 -5.61862e-05 0)
(0.000429164 -6.80196e-05 0)
(0.000426288 -5.70413e-05 0)
(0.000411249 -6.89356e-05 0)
(0.000408638 -5.82802e-05 0)
(0.000393786 -7.01908e-05 0)
(0.000391592 -5.99139e-05 0)
(0.000376915 -7.17844e-05 0)
(0.000375291 -6.19427e-05 0)
(0.000360779 -7.37317e-05 0)
(0.000359887 -6.4362e-05 0)
(0.000345525 -7.60659e-05 0)
(0.000345539 -6.71706e-05 0)
(0.000331297 -7.88461e-05 0)
(0.00033241 -7.038e-05 0)
(0.000318249 -8.21583e-05 0)
(0.000320656 -7.39824e-05 0)
(0.000306558 -8.60499e-05 0)
(0.000310389 -7.77973e-05 0)
(0.000296293 -9.03755e-05 0)
(0.000302085 -8.33373e-05 0)
(0.000591539 -5.43941e-05 0)
(0.000598281 -4.55282e-05 0)
(0.000576468 -5.24587e-05 0)
(0.000581609 -4.34301e-05 0)
(0.000561289 -5.10174e-05 0)
(0.000564618 -4.14467e-05 0)
(0.000545815 -4.98596e-05 0)
(0.000547466 -3.97249e-05 0)
(0.000530056 -4.88565e-05 0)
(0.000530338 -3.83588e-05 0)
(0.000514147 -4.7963e-05 0)
(0.000513414 -3.73811e-05 0)
(0.000498249 -4.71939e-05 0)
(0.00049682 -3.67799e-05 0)
(0.000482494 -4.65971e-05 0)
(0.000480631 -3.65307e-05 0)
(0.000466975 -4.62298e-05 0)
(0.000464883 -3.66143e-05 0)
(0.000451753 -4.61419e-05 0)
(0.000449599 -3.70218e-05 0)
(0.00043688 -4.63692e-05 0)
(0.000434804 -3.77508e-05 0)
(0.000422411 -4.69339e-05 0)
(0.000420537 -3.87999e-05 0)
(0.000408412 -4.78472e-05 0)
(0.000406856 -4.01709e-05 0)
(0.000394961 -4.91152e-05 0)
(0.000393844 -4.1864e-05 0)
(0.000382155 -5.07403e-05 0)
(0.000381601 -4.38772e-05 0)
(0.000370101 -5.27249e-05 0)
(0.000370247 -4.62113e-05 0)
(0.000358925 -5.50748e-05 0)
(0.000359909 -4.88698e-05 0)
(0.000348782 -5.77994e-05 0)
(0.000350721 -5.18406e-05 0)
(0.000339831 -6.08997e-05 0)
(0.000342808 -5.50701e-05 0)
(0.000332084 -6.43731e-05 0)
(0.00033591 -5.85078e-05 0)
(0.000565854 -3.19576e-05 0)
(0.000573369 -2.57351e-05 0)
(0.000554214 -3.07689e-05 0)
(0.000560166 -2.44296e-05 0)
(0.000542506 -2.97826e-05 0)
(0.000546849 -2.32147e-05 0)
(0.000530681 -2.89382e-05 0)
(0.000533494 -2.21118e-05 0)
(0.000518722 -2.82424e-05 0)
(0.000520196 -2.1154e-05 0)
(0.000506585 -2.77078e-05 0)
(0.000506995 -2.04216e-05 0)
(0.000494313 -2.73425e-05 0)
(0.000493932 -1.99649e-05 0)
(0.000481981 -2.71593e-05 0)
(0.00048106 -1.9804e-05 0)
(0.000469675 -2.71726e-05 0)
(0.000468434 -1.99427e-05 0)
(0.000457482 -2.7402e-05 0)
(0.000456104 -2.03794e-05 0)
(0.00044548 -2.78624e-05 0)
(0.00044411 -2.11172e-05 0)
(0.000433777 -2.85589e-05 0)
(0.000432534 -2.21435e-05 0)
(0.000422466 -2.95073e-05 0)
(0.000421448 -2.34408e-05 0)
(0.000411635 -3.0717e-05 0)
(0.000410934 -2.49892e-05 0)
(0.000401374 -3.21945e-05 0)
(0.000401084 -2.67629e-05 0)
(0.000391764 -3.39477e-05 0)
(0.000391983 -2.87536e-05 0)
(0.000382873 -3.59859e-05 0)
(0.0003837 -3.09713e-05 0)
(0.000374763 -3.8311e-05 0)
(0.0003763 -3.34314e-05 0)
(0.000367461 -4.09258e-05 0)
(0.000369855 -3.6187e-05 0)
(0.000360936 -4.38439e-05 0)
(0.000364409 -3.92012e-05 0)
(0.000549123 -1.29278e-05 0)
(0.000556716 -8.6543e-06 0)
(0.000539909 -1.25646e-05 0)
(0.000546103 -8.0286e-06 0)
(0.000530592 -1.23634e-05 0)
(0.000535304 -7.4279e-06 0)
(0.000521163 -1.22563e-05 0)
(0.00052432 -6.88975e-06 0)
(0.000511625 -1.19582e-05 0)
(0.000513627 -6.51321e-06 0)
(0.000502048 -1.17278e-05 0)
(0.000503174 -6.28154e-06 0)
(0.000492409 -1.16328e-05 0)
(0.000492868 -6.20819e-06 0)
(0.00048271 -1.16922e-05 0)
(0.000482688 -6.31208e-06 0)
(0.00047298 -1.19039e-05 0)
(0.000472676 -6.61275e-06 0)
(0.000463269 -1.22519e-05 0)
(0.000462914 -7.09426e-06 0)
(0.000453777 -1.28813e-05 0)
(0.00045334 -7.79417e-06 0)
(0.000444433 -1.37241e-05 0)
(0.000444004 -8.7289e-06 0)
(0.000435334 -1.47631e-05 0)
(0.000434981 -9.89317e-06 0)
(0.000426579 -1.5987e-05 0)
(0.000426337 -1.12783e-05 0)
(0.000418276 -1.73803e-05 0)
(0.000418242 -1.28841e-05 0)
(0.000410549 -1.89389e-05 0)
(0.000410856 -1.46909e-05 0)
(0.00040344 -2.06891e-05 0)
(0.000404201 -1.66642e-05 0)
(0.000396962 -2.265e-05 0)
(0.000398299 -1.88094e-05 0)
(0.000391105 -2.48584e-05 0)
(0.000393185 -2.11882e-05 0)
(0.000385849 -2.73739e-05 0)
(0.000388888 -2.378e-05 0)
(0.000538077 9.55866e-07 0)
(0.000545622 4.34259e-06 0)
(0.000529924 6.32253e-07 0)
(0.000536533 4.43109e-06 0)
(0.000521389 3.02798e-07 0)
(0.000527142 4.60767e-06 0)
(0.000516104 5.88569e-07 0)
(0.000518734 4.50936e-06 0)
(0.00050821 5.78674e-07 0)
(0.000510346 4.5728e-06 0)
(0.000500363 6.31725e-07 0)
(0.000501977 4.57577e-06 0)
(0.00049257 6.25777e-07 0)
(0.000493685 4.46486e-06 0)
(0.000484886 5.30811e-07 0)
(0.000485541 4.23168e-06 0)
(0.000477408 2.79039e-07 0)
(0.000477606 3.8453e-06 0)
(0.00046872 -1.03929e-06 0)
(0.000469353 3.24705e-06 0)
(0.000461025 -1.65163e-06 0)
(0.000461462 2.35048e-06 0)
(0.000453536 -2.46871e-06 0)
(0.000453952 1.2758e-06 0)
(0.000446279 -3.42616e-06 0)
(0.000446843 1.04895e-07 0)
(0.000439285 -4.44286e-06 0)