/*--------------------------------*- C++ -*----------------------------------*\
| =========                 |                                                 |
| \\      /  F ield         | OpenFOAM: The Open Source CFD Toolbox           |
|  \\    /   O peration     | Version:  v2012                                 |
|   \\  /    A nd           | Website:  www.openfoam.com                      |
|    \\/     M anipulation  |                                                 |
\*---------------------------------------------------------------------------*/
FoamFile
{
    version     2.0;
    format      ascii;
    class       volScalarField;
    location    "20";
    object      sigmaHyd;
}
// * * * * * * * * * * * * * * * * * * * * * * * * * * * * * * * * * * * * * //

dimensions      [1 -1 -2 0 0 0 0];


internalField   nonuniform List<scalar> 
2000
(
-7.21594e+07
-6.75031e+07
-5.14159e+07
-4.41279e+07
-2.79745e+07
-2.047e+07
-6.6898e+06
-41667.2
1.12562e+07
1.62362e+07
2.51711e+07
2.79371e+07
3.46906e+07
3.52964e+07
4.04895e+07
3.96843e+07
4.42613e+07
4.26726e+07
4.63665e+07
4.33431e+07
-7.19465e+07
-6.59021e+07
-5.13183e+07
-4.05119e+07
-2.5577e+07
-1.60606e+07
-4.14268e+06
2.24696e+06
1.15941e+07
1.40698e+07
2.17241e+07
2.06627e+07
2.74077e+07
2.409e+07
3.05713e+07
2.63708e+07
3.29484e+07
2.84048e+07
3.41131e+07
2.84647e+07
-6.5567e+07
-5.76004e+07
-4.42923e+07
-3.34344e+07
-1.97114e+07
-1.3105e+07
-2.56984e+06
-1.40963e+06
6.86022e+06
4.03142e+06
1.12044e+07
6.64067e+06
1.3316e+07
8.54161e+06
1.50901e+07
1.07483e+07
1.72837e+07
1.33338e+07
1.90317e+07
1.52014e+07
-5.53217e+07
-4.82229e+07
-3.7284e+07
-3.06342e+07
-1.95746e+07
-1.87025e+07
-1.04304e+07
-1.34166e+07
-6.58566e+06
-1.04553e+07
-4.1793e+06
-7.82536e+06
-1.84445e+06
-5.10149e+06
815689
-1.97448e+06
3.92561e+06
1.38732e+06
6.82031e+06
4.0951e+06
-4.60163e+07
-4.19078e+07
-3.52126e+07
-3.21429e+07
-2.5815e+07
-2.5549e+07
-2.11394e+07
-2.168e+07
-1.78153e+07
-1.85963e+07
-1.48479e+07
-1.58843e+07
-1.1987e+07
-1.29664e+07
-8.75563e+06
-9.92749e+06
-5.50727e+06
-7.04178e+06
-2.70268e+06
-4.7315e+06
-3.97364e+07
-3.62752e+07
-3.33116e+07
-2.97809e+07
-2.68987e+07
-2.47957e+07
-2.2976e+07
-2.18323e+07
-2.03112e+07
-1.97088e+07
-1.80656e+07
-1.77777e+07
-1.58287e+07
-1.59133e+07
-1.36517e+07
-1.41152e+07
-1.15241e+07
-1.22041e+07
-9.3902e+06
-1.02468e+07
-3.27185e+07
-2.94141e+07
-2.82732e+07
-2.51421e+07
-2.38727e+07
-2.1954e+07
-2.12709e+07
-2.01483e+07
-1.96577e+07
-1.89599e+07
-1.83566e+07
-1.79373e+07
-1.71077e+07
-1.68897e+07
-1.57935e+07
-1.56726e+07
-1.4239e+07
-1.41824e+07
-1.24684e+07
-1.2382e+07
-2.59572e+07
-2.37285e+07
-2.33757e+07
-2.13419e+07
-2.08008e+07
-1.94696e+07
-1.92548e+07
-1.83666e+07
-1.83212e+07
-1.76577e+07
-1.76118e+07
-1.70803e+07
-1.69311e+07
-1.64943e+07
-1.6138e+07
-1.57558e+07
-1.5049e+07
-1.4608e+07
-1.3397e+07
-1.27064e+07
-2.15505e+07
-2.03076e+07
-2.01151e+07
-1.88903e+07
-1.85463e+07
-1.76045e+07
-1.75029e+07
-1.67659e+07
-1.6858e+07
-1.62462e+07
-1.64192e+07
-1.59086e+07
-1.60664e+07
-1.56654e+07
-1.56667e+07
-1.54077e+07
-1.4973e+07
-1.50011e+07
-1.37167e+07
-1.43943e+07
-1.90975e+07
-1.84019e+07
-1.81496e+07
-1.72723e+07
-1.68995e+07
-1.60566e+07
-1.59502e+07
-1.51846e+07
-1.53597e+07
-1.46634e+07
-1.50693e+07
-1.45009e+07
-1.5138e+07
-1.49551e+07
-1.58437e+07
-1.66992e+07
-1.76851e+07
-2.0497e+07
-2.09744e+07
-2.55855e+07
-1.76919e+07
-1.71848e+07
-1.67721e+07
-1.58999e+07
-1.5376e+07
-1.44436e+07
-1.42158e+07
-1.33473e+07
-1.34275e+07
-1.26693e+07
-1.30592e+07
-1.26092e+07
-1.35436e+07
-1.39889e+07
-1.59899e+07
-1.81207e+07
-2.10843e+07
-2.33285e+07
-2.3207e+07
-1.60026e+07
-1.66447e+07
-1.61064e+07
-1.55523e+07
-1.46107e+07
-1.39475e+07
-1.30554e+07
-1.2711e+07
-1.20699e+07
-1.20521e+07
-1.181e+07
-1.21819e+07
-1.26474e+07
-1.37872e+07
-1.53379e+07
-1.7693e+07
-1.96648e+07
-2.17993e+07
-2.03153e+07
-1.63861e+07
-1.09839e+07
-1.54986e+07
-1.48533e+07
-1.42973e+07
-1.33503e+07
-1.27252e+07
-1.19882e+07
-1.17389e+07
-1.13872e+07
-1.15519e+07
-1.16596e+07
-1.23605e+07
-1.30216e+07
-1.45967e+07
-1.57059e+07
-1.8119e+07
-1.87168e+07
-1.97571e+07
-1.81788e+07
-1.35763e+07
-9.38909e+06
-1.40767e+07
-1.33495e+07
-1.29211e+07
-1.19906e+07
-1.15636e+07
-1.09069e+07
-1.0912e+07
-1.06374e+07
-1.11036e+07
-1.12007e+07
-1.22008e+07
-1.26531e+07
-1.43526e+07
-1.50276e+07
-1.71632e+07
-1.75226e+07
-1.82132e+07
-1.68983e+07
-1.24867e+07
-8.87976e+06
-1.24067e+07
-1.16226e+07
-1.137e+07
-1.045e+07
-1.02648e+07
-9.65157e+06
-9.90658e+06
-9.66761e+06
-1.03493e+07
-1.04359e+07
-1.15592e+07
-1.19365e+07
-1.35903e+07
-1.41827e+07
-1.61248e+07
-1.64845e+07
-1.70624e+07
-1.59074e+07
-1.18527e+07
-8.62893e+06
-1.05259e+07
-9.69472e+06
-9.64257e+06
-8.76927e+06
-8.84189e+06
-8.33961e+06
-8.81156e+06
-8.70185e+06
-9.5156e+06
-9.71925e+06
-1.08633e+07
-1.13311e+07
-1.28748e+07
-1.35197e+07
-1.52487e+07
-1.56221e+07
-1.60623e+07
-1.49839e+07
-1.1285e+07
-8.39192e+06
-8.45606e+06
-7.61873e+06
-7.80804e+06
-7.09138e+06
-7.46207e+06
-7.20523e+06
-7.88598e+06
-8.03552e+06
-8.93499e+06
-9.37733e+06
-1.04775e+07
-1.11342e+07
-1.2488e+07
-1.323e+07
-1.46326e+07
-1.49951e+07
-1.51548e+07
-1.40957e+07
-1.06739e+07
-8.10667e+06
-6.32692e+06
-5.6066e+06
-6.06711e+06
-5.68422e+06
-6.38449e+06
-6.50666e+06
-7.40307e+06
-7.89389e+06
-8.87567e+06
-9.60291e+06
-1.06403e+07
-1.14985e+07
-1.2606e+07
-1.34193e+07
-1.43771e+07
-1.46743e+07
-1.43854e+07
-1.33185e+07
-1.00495e+07
-7.84753e+06
-4.46391e+06
-4.01437e+06
-4.73867e+06
-4.79008e+06
-5.8181e+06
-6.29758e+06
-7.45303e+06
-8.19284e+06
-9.35201e+06
-1.02428e+07
-1.13249e+07
-1.22575e+07
-1.3191e+07
-1.39707e+07
-1.44819e+07
-1.46682e+07
-1.38581e+07
-1.28272e+07
-9.62699e+06
-7.8132e+06
-3.15754e+06
-3.08703e+06
-3.94173e+06
-4.35492e+06
-5.57503e+06
-6.22315e+06
-7.62363e+06
-8.41004e+06
-9.85835e+06
-1.07111e+07
-1.20564e+07
-1.28816e+07
-1.39254e+07
-1.45456e+07
-1.48733e+07
-1.4913e+07
-1.36846e+07
-1.26921e+07
-9.43584e+06
-7.86089e+06
-2.88104e+06
-663662
-2.35971e+06
408470
-1.55196e+06
1.72777e+06
-732104
3.17131e+06
122871
4.62592e+06
948893
5.97112e+06
1.68298e+06
7.14686e+06
2.17627e+06
7.94888e+06
1.8079e+06
7.64172e+06
-3531.32
7.21944e+06
619604
454107
1.43699e+06
1.55929e+06
2.91612e+06
3.22376e+06
4.69805e+06
5.06775e+06
6.52542e+06
6.789e+06
8.15133e+06
8.12795e+06
9.39292e+06
8.88044e+06
1.01571e+07
9.16549e+06
1.06017e+07
1.01357e+07
1.09159e+07
9.01496e+06
-1.75937e+06
-2.77819e+06
-947244
-1.74072e+06
463961
-321959
2.04582e+06
1.0935e+06
3.47038e+06
2.18467e+06
4.45573e+06
2.72114e+06
4.87449e+06
2.90169e+06
5.15659e+06
3.78671e+06
6.29793e+06
5.32535e+06
6.788e+06
6.16434e+06
-5.4561e+06
-6.35085e+06
-4.62119e+06
-5.2927e+06
-3.35867e+06
-4.02947e+06
-2.09636e+06
-2.90855e+06
-1.11571e+06
-2.10537e+06
-530546
-1.48204e+06
-16905.4
-373842
1.28355e+06
1.69864e+06
3.40949e+06
3.95347e+06
5.09847e+06
5.22659e+06
-8.38125e+06
-8.88817e+06
-7.46322e+06
-7.70688e+06
-6.16943e+06
-6.35533e+06
-4.94023e+06
-5.12543e+06
-3.89621e+06
-3.95261e+06
-2.84749e+06
-2.47685e+06
-1.29474e+06
-358724
1.00387e+06
2.09669e+06
3.36563e+06
4.04309e+06
4.83314e+06
4.99469e+06
-1.01546e+07
-1.02802e+07
-9.10804e+06
-8.91352e+06
-7.61701e+06
-7.30595e+06
-6.13793e+06
-5.70854e+06
-4.64383e+06
-3.96603e+06
-2.86733e+06
-1.87016e+06
-634066
478850
1.74634e+06
2.59246e+06
3.62461e+06
4.02205e+06
4.66959e+06
4.75016e+06
-1.09123e+07
-1.07239e+07
-9.72884e+06
-9.175e+06
-7.9876e+06
-7.30094e+06
-6.18165e+06
-5.37859e+06
-4.2732e+06
-3.32403e+06
-2.13791e+06
-1.1296e+06
115362
971515
2.11484e+06
2.65345e+06
3.53504e+06
3.77488e+06
4.38918e+06
4.51973e+06
-1.08706e+07
-1.04451e+07
-9.58449e+06
-8.78311e+06
-7.66061e+06
-6.76387e+06
-5.65497e+06
-4.7248e+06
-3.59918e+06
-2.66626e+06
-1.49426e+06
-652981
494343
1.13328e+06
2.12983e+06
2.52537e+06
3.28927e+06
3.47995e+06
4.03546e+06
4.02615e+06
-1.02358e+07
-9.64963e+06
-8.91569e+06
-7.98179e+06
-6.94573e+06
-5.97926e+06
-4.93082e+06
-4.01458e+06
-2.95364e+06
-2.11908e+06
-1.04822e+06
-347036
663899
1.18271e+06
2.04272e+06
2.35455e+06
3.00786e+06
3.10331e+06
3.56083e+06
3.50325e+06
-9.18699e+06
-8.50924e+06
-7.91511e+06
-6.94329e+06
-6.03826e+06
-5.09042e+06
-4.16135e+06
-3.31394e+06
-2.37679e+06
-1.64359e+06
-709053
-114729
757842
1.18073e+06
1.91469e+06
2.14134e+06
2.68401e+06
2.73174e+06
3.11506e+06
3.08376e+06
-7.87071e+06
-7.15773e+06
-6.72045e+06
-5.77704e+06
-5.0414e+06
-4.15959e+06
-3.3883e+06
-2.62792e+06
-1.84291e+06
-1.20563e+06
-420762
79057
809677
1.1477e+06
1.75534e+06
1.92093e+06
2.36686e+06
2.39286e+06
2.72765e+06
2.70312e+06
-6.40055e+06
-5.69371e+06
-5.42399e+06
-4.55039e+06
-4.00671e+06
-3.2141e+06
-2.61995e+06
-1.95144e+06
-1.33157e+06
-783637
-156250
261909
846579
1.11937e+06
1.60288e+06
1.72962e+06
2.08579e+06
2.10236e+06
2.38628e+06
2.37464e+06
-4.85937e+06
-4.1859e+06
-4.08541e+06
-3.30397e+06
-2.95994e+06
-2.26504e+06
-1.85422e+06
-1.27473e+06
-824155
-355450
112144
463665
902774
1.12761e+06
1.49048e+06
1.59368e+06
1.86386e+06
1.88226e+06
2.11429e+06
2.11771e+06
-3.30312e+06
-2.67848e+06
-2.74128e+06
-2.06077e+06
-1.9127e+06
-1.31503e+06
-1.08412e+06
-586910
-302307
97666.8
409113
706421
1.00401e+06
1.19251e+06
1.43794e+06
1.52475e+06
1.71027e+06
1.73166e+06
1.91323e+06
1.93571e+06
-1.76569e+06
-1.19645e+06
-1.41194e+06
-832333
-869285
-363906
-302964
119771
247005
587537
750095
1.00255e+06
1.16448e+06
1.32563e+06
1.4579e+06
1.53863e+06
1.63867e+06
1.66768e+06
1.77768e+06
1.77165e+06
-263345
250444
-106128
377811
169788
592270
495384
856266
834614
1.12884e+06
1.14825e+06
1.36722e+06
1.39756e+06
1.53797e+06
1.5585e+06
1.62502e+06
1.63457e+06
1.63609e+06
1.6601e+06
1.61027e+06
1.2027e+06
1.66544e+06
1.17888e+06
1.58058e+06
1.21713e+06
1.58323e+06
1.33457e+06
1.66175e+06
1.48689e+06
1.75387e+06
1.6233e+06
1.81441e+06
1.70873e+06
1.81919e+06
1.72395e+06
1.75723e+06
1.66611e+06
1.63209e+06
1.56163e+06
1.48234e+06
2.64161e+06
3.05714e+06
2.46804e+06
2.8288e+06
2.33164e+06
2.69428e+06
2.28472e+06
2.60608e+06
2.255e+06
2.49573e+06
2.19443e+06
2.33954e+06
2.08614e+06
2.13916e+06
1.92615e+06
1.89973e+06
1.71492e+06
1.62552e+06
1.46887e+06
1.33001e+06
4.04914e+06
4.40795e+06
3.81132e+06
4.17364e+06
3.59992e+06
3.93853e+06
3.39584e+06
3.64712e+06
3.13824e+06
3.27486e+06
2.82104e+06
2.85319e+06
2.46951e+06
2.41753e+06
2.1038e+06
1.98623e+06
1.72579e+06
1.55265e+06
1.3243e+06
1.10352e+06
5.29864e+06
5.45967e+06
5.06141e+06
5.16456e+06
4.77555e+06
4.82493e+06
4.38645e+06
4.34527e+06
3.87439e+06
3.75968e+06
3.29985e+06
3.13958e+06
2.7216e+06
2.54011e+06
2.17598e+06
1.98727e+06
1.66104e+06
1.4545e+06
1.13096e+06
888792
-1.02599e+06
4.88103e+06
2.25896e+06
6.01992e+06
3.68131e+06
5.55782e+06
3.4486e+06
4.59956e+06
2.96399e+06
3.88952e+06
2.73625e+06
3.57182e+06
2.81288e+06
3.57934e+06
3.12372e+06
3.81867e+06
3.59978e+06
4.22126e+06
4.19906e+06
4.74856e+06
4.90415e+06
5.38425e+06
5.71326e+06
6.12499e+06
6.63188e+06
6.97302e+06
7.66689e+06
7.9313e+06
8.82397e+06
9.00369e+06
1.01146e+07
1.02068e+07
1.15773e+07
1.15762e+07
1.32447e+07
1.30437e+07
1.48461e+07
1.40744e+07
1.54853e+07
1.42886e+07
7.95111e+06
7.86375e+06
7.73014e+06
7.15682e+06
6.62629e+06
6.01062e+06
5.38435e+06
5.0097e+06
4.49333e+06
4.33419e+06
3.99453e+06
3.95535e+06
3.80454e+06
3.81368e+06
3.84322e+06
3.8623e+06
4.05518e+06
4.06722e+06
4.40553e+06
4.40311e+06
4.87314e+06
4.85073e+06
5.44542e+06
5.39583e+06
6.11471e+06
6.02765e+06
6.87554e+06
6.73794e+06
7.7248e+06
7.52349e+06
8.66871e+06
8.39266e+06
9.72712e+06
9.35082e+06
1.08648e+07
1.0299e+07
1.17851e+07
1.09516e+07
1.21144e+07
1.13078e+07
6.65817e+06
6.04033e+06
6.18441e+06
5.53449e+06
5.48253e+06
4.92754e+06
4.80296e+06
4.38231e+06
4.27292e+06
3.97022e+06
3.91631e+06
3.70534e+06
3.72714e+06
3.58584e+06
3.69294e+06
3.60123e+06
3.79698e+06
3.73527e+06
4.01984e+06
3.96865e+06
4.34187e+06
4.28191e+06
4.74668e+06
4.66129e+06
5.22155e+06
5.09579e+06
5.75668e+06
5.57748e+06
6.34664e+06
6.10472e+06
6.99374e+06
6.68274e+06
7.70348e+06
7.31322e+06
8.45028e+06
7.98457e+06
9.16352e+06
8.72729e+06
9.83799e+06
9.36017e+06
5.51849e+06
5.29057e+06
5.16693e+06
4.87608e+06
4.63927e+06
4.34276e+06
4.12345e+06
3.84871e+06
3.71215e+06
3.4765e+06
3.43496e+06
3.25005e+06
3.29727e+06
3.16519e+06
3.28816e+06
3.1963e+06
3.38862e+06
3.32399e+06
3.57547e+06
3.51929e+06
3.82374e+06
3.7595e+06
4.11835e+06
4.03334e+06
4.44788e+06
4.32625e+06
4.80419e+06
4.63288e+06
5.18863e+06
4.9633e+06
5.61216e+06
5.34292e+06
6.08813e+06
5.79097e+06
6.64041e+06
6.35922e+06
7.34565e+06
7.1256e+06
8.14128e+06
7.76166e+06
5.16884e+06
5.09232e+06
4.92072e+06
4.77094e+06
4.41097e+06
4.20105e+06
3.85888e+06
3.64026e+06
3.42185e+06
3.24876e+06
3.15019e+06
3.06376e+06
3.03401e+06
2.98672e+06
3.02464e+06
2.98921e+06
3.10887e+06
3.07307e+06
3.2552e+06
3.2004e+06
3.43544e+06
3.38442e+06
3.64436e+06
3.56066e+06
3.85397e+06
3.73065e+06
4.05312e+06
3.87472e+06
4.26188e+06
4.05979e+06
4.53495e+06
4.33788e+06
4.89126e+06
4.69938e+06
5.35539e+06
5.18699e+06
6.00399e+06
5.84996e+06
6.7145e+06
6.38945e+06
5.01469e+06
5.02293e+06
4.94696e+06
4.81967e+06
4.42813e+06
4.062e+06
3.6603e+06
3.36527e+06
3.22092e+06
3.13167e+06
3.07894e+06
3.02756e+06
2.9875e+06
2.91665e+06
2.90759e+06
2.8203e+06
2.88846e+06
2.8185e+06
2.98304e+06
2.9805e+06
3.15734e+06
3.09969e+06
3.27866e+06
3.19256e+06
3.38835e+06
3.24404e+06
3.44239e+06
3.28446e+06
3.53658e+06
3.3994e+06
3.75369e+06
3.61551e+06
4.04317e+06
3.89193e+06
4.41594e+06
4.27235e+06
4.9387e+06
4.79248e+06
5.50307e+06
5.21188e+06
4.89445e+06
4.84828e+06
4.80711e+06
4.35317e+06
3.95688e+06
3.53274e+06
3.30664e+06
3.13925e+06
3.07583e+06
2.96754e+06
2.94762e+06
2.83254e+06
2.81116e+06
2.692e+06
2.69499e+06
2.60784e+06
2.67379e+06
2.63542e+06
2.77944e+06
2.72955e+06
2.87352e+06
2.79512e+06
2.93315e+06
2.82611e+06
2.96197e+06
2.8474e+06
2.99989e+06
2.87184e+06
3.05335e+06
2.9248e+06
3.17375e+06
3.03807e+06
3.35694e+06
3.2207e+06
3.632e+06
3.50604e+06
4.0337e+06
3.89632e+06
4.46178e+06
4.21021e+06
4.36675e+06
4.11704e+06
4.09112e+06
3.75276e+06
3.50289e+06
3.2933e+06
3.11274e+06
2.99196e+06
2.90217e+06
2.81736e+06
2.7725e+06
2.69491e+06
2.64049e+06
2.53758e+06
2.50336e+06
2.42581e+06
2.48242e+06
2.43637e+06
2.54173e+06
2.47444e+06
2.58716e+06
2.49513e+06
2.60685e+06
2.50035e+06
2.61416e+06
2.49708e+06
2.61602e+06
2.4904e+06
2.62784e+06
2.50111e+06
2.68459e+06
2.57006e+06
2.81027e+06
2.68938e+06
3.00183e+06
2.89202e+06
3.30529e+06
3.17654e+06
3.60789e+06
3.38327e+06
3.78599e+06
3.65476e+06
3.66849e+06
3.50321e+06
3.35251e+06
3.21001e+06
3.05936e+06
2.95375e+06
2.84647e+06
2.75294e+06
2.67846e+06
2.5694e+06
2.50999e+06
2.41418e+06
2.38067e+06
2.31607e+06
2.33323e+06
2.2665e+06
2.31917e+06
2.23869e+06
2.30885e+06
2.21651e+06
2.29578e+06
2.19462e+06
2.27989e+06
2.17211e+06
2.26344e+06
2.15399e+06
2.25931e+06
2.15407e+06
2.28907e+06
2.18004e+06
2.35335e+06
2.24006e+06
2.47251e+06
2.35368e+06
2.66403e+06
2.52367e+06
2.86508e+06
2.66332e+06
3.36841e+06
3.27957e+06
3.35904e+06
3.20385e+06
3.14075e+06
2.97697e+06
2.90397e+06
2.76354e+06
2.69719e+06
2.55837e+06
2.50317e+06
2.38814e+06
2.36209e+06
2.28119e+06
2.26475e+06
2.1867e+06
2.18659e+06
2.11341e+06
2.13199e+06
2.0596e+06
2.09157e+06
2.01702e+06
2.05771e+06
1.97934e+06
2.02638e+06
1.94365e+06
1.99804e+06
1.91085e+06
1.97785e+06
1.88347e+06
1.96984e+06
1.86483e+06
1.97958e+06
1.86256e+06
2.02131e+06
1.8914e+06
2.10878e+06
1.95858e+06
2.21388e+06
2.01956e+06
2.98708e+06
2.90949e+06
3.01672e+06
2.87221e+06
2.8518e+06
2.68851e+06
2.6448e+06
2.49198e+06
2.45467e+06
2.3238e+06
2.2995e+06
2.19404e+06
2.18864e+06
2.09645e+06
2.10006e+06
2.01787e+06
2.02936e+06
1.95521e+06
1.97325e+06
1.90354e+06
1.92575e+06
1.85655e+06
1.88117e+06
1.80836e+06
1.83582e+06
1.75654e+06
1.78874e+06
1.70066e+06
1.74044e+06
1.64122e+06
1.69256e+06
1.58033e+06
1.64976e+06
1.52364e+06
1.622e+06
1.48025e+06
1.61859e+06
1.45351e+06
1.62876e+06
1.44051e+06
2.63883e+06
2.57948e+06
2.68599e+06
2.5588e+06
2.55178e+06
2.40077e+06
2.37122e+06
2.2303e+06
2.21197e+06
2.09097e+06
2.08841e+06
1.98874e+06
1.99241e+06
1.90361e+06
1.91541e+06
1.8361e+06
1.85689e+06
1.78579e+06
1.8099e+06
1.74604e+06
1.76547e+06
1.69871e+06
1.71453e+06
1.63949e+06
1.65507e+06
1.57032e+06
1.58736e+06
1.49189e+06
1.51168e+06
1.40445e+06
1.42921e+06
1.30934e+06
1.34319e+06
1.20958e+06
1.25858e+06
1.10732e+06
1.17699e+06
1.00131e+06
1.10423e+06
924649
2.34963e+06
2.30707e+06
2.39122e+06
2.27546e+06
2.26823e+06
2.13381e+06
2.10487e+06
1.97155e+06
1.97056e+06
1.87618e+06
1.88738e+06
1.81054e+06
1.81276e+06
1.72863e+06
1.73373e+06
1.65839e+06
1.68881e+06
1.63214e+06
1.66302e+06
1.60119e+06
1.61876e+06
1.54256e+06
1.55328e+06
1.4677e+06
1.47519e+06
1.38255e+06
1.38706e+06
1.28668e+06
1.28848e+06
1.17883e+06
1.17936e+06
1.05883e+06
1.06054e+06
926432
931035
776549
784233
602385
639121
468178
2.14073e+06
2.11004e+06
2.16419e+06
2.03815e+06
2.01367e+06
1.8531e+06
1.84764e+06
1.7499e+06
1.77689e+06
1.69821e+06
1.72316e+06
1.63934e+06
1.64913e+06
1.56724e+06
1.57661e+06
1.51319e+06
1.54449e+06
1.48679e+06
1.51391e+06
1.44234e+06
1.45125e+06
1.37524e+06
1.37514e+06
1.297e+06
1.29052e+06
1.20665e+06
1.19415e+06
1.10141e+06
1.08319e+06
979848
956512
841199
813117
682617
646630
492068
442237
256674
229999
70351.6
1.90938e+06
1.83288e+06
1.88243e+06
1.75313e+06
1.73718e+06
1.62722e+06
1.62994e+06
1.54227e+06
1.56882e+06
1.48786e+06
1.51987e+06
1.44623e+06
1.47095e+06
1.40941e+06
1.42828e+06
1.3726e+06
1.39568e+06
1.33927e+06
1.36235e+06
1.30113e+06
1.31108e+06
1.24652e+06
1.24071e+06
1.16754e+06
1.15042e+06
1.06578e+06
1.04141e+06
946362
914883
810384
770567
656502
605824
478807
408740
258129
156353
-23944.5
-111163
-249162
1.6778e+06
1.60906e+06
1.64535e+06
1.55947e+06
1.55456e+06
1.47669e+06
1.47078e+06
1.40294e+06
1.41111e+06
1.35248e+06
1.3769e+06
1.3324e+06
1.35392e+06
1.30701e+06
1.31842e+06
1.25561e+06
1.27402e+06
1.20446e+06
1.23591e+06
1.17104e+06
1.19174e+06
1.11754e+06
1.11528e+06
1.02244e+06
1.00874e+06
907698
886193
782807
750792
646072
600430
493555
429488
316036
219828
86797.9
-59173
-217568
-359373
-461442
1.49212e+06
1.41686e+06
1.46385e+06
1.3798e+06
1.40729e+06
1.32531e+06
1.34051e+06
1.26644e+06
1.28669e+06
1.2379e+06
1.27505e+06
1.23306e+06
1.25572e+06
1.18249e+06
1.18418e+06
1.09909e+06
1.11013e+06
1.03589e+06
1.0768e+06
1.00494e+06
1.03585e+06
938724
940084
838576
829356
732807
715341
622282
593079
501820
457715
368483
302863
212342
103420
-3386.24
-178096
-300296
-482269
-526070
1.27621e+06
1.1637e+06
1.22415e+06
1.12769e+06
1.19285e+06
1.09646e+06
1.15987e+06
1.09109e+06
1.1511e+06
1.08024e+06
1.13182e+06
1.0289e+06
1.08095e+06
952870
1.00486e+06
873518
933236
807555
876856
753356
820897
690316
742801
613598
653603
530183
556854
440609
451096
344563
337561
245851
214031
131805
49325.9
-28642.5
-190877
-248453
-423533
-392141
1.00732e+06
880454
929448
836988
903699
815318
915654
802124
904160
728026
811759
610749
702142
494874
613221
427220
553447
375333
497269
312410
433928
252429
369635
200449
307797
154313
247172
112113
187157
74840.7
130592
44754.3
75926.2
21586.9
8957.54
-24707
-115121
-125686
-239132
-190647
735319
624083
668004
612834
624120
511178
494990
368104
390471
272115
261471
118942
120114
7140.24
58854.7
-32013.2
11515.9
-90977.7
-56898.3
-155418
-107202
-189070
-132845
-198376
-142122
-191645
-139543
-172038
-126071
-140666
-101810
-99485.6
-70322.1
-58390.8
-52871.2
-42551.9
-74478.2
-59067.4
-101884
-81403.2
4.31964e+07
3.94413e+07
3.89705e+07
3.54103e+07
3.51539e+07
3.2285e+07
3.23182e+07
2.99339e+07
3.00411e+07
2.7943e+07
2.80727e+07
2.6152e+07
2.62933e+07
2.44947e+07
2.46124e+07
2.29056e+07
2.29612e+07
2.13328e+07
2.1284e+07
1.97302e+07
1.95341e+07
1.8061e+07
1.76771e+07
1.63006e+07
1.56933e+07
1.44396e+07
1.35816e+07
1.24882e+07
1.13672e+07
1.04863e+07
9.12219e+06
8.52595e+06
6.99624e+06
6.75698e+06
5.14593e+06
5.17351e+06
3.20906e+06
2.96477e+06
-113597
-90685.7
3.14213e+07
2.63573e+07
2.86324e+07
2.43858e+07
2.6587e+07
2.31336e+07
2.51634e+07
2.20788e+07
2.38293e+07
2.09284e+07
2.24727e+07
1.98303e+07
2.11408e+07
1.87686e+07
1.98273e+07
1.76632e+07
1.85169e+07
1.65243e+07
1.71938e+07
1.5372e+07
1.58478e+07
1.42191e+07
1.44775e+07
1.30776e+07
1.30908e+07
1.19647e+07
1.17066e+07
1.09046e+07
1.03558e+07
9.92773e+06
9.08494e+06
9.06495e+06
7.94093e+06
8.28186e+06
6.8003e+06
7.21617e+06
4.96173e+06
5.11785e+06
2.01167e+06
3.08369e+06
1.89411e+07
1.52923e+07
1.82351e+07
1.49988e+07
1.76381e+07
1.47111e+07
1.70016e+07
1.42492e+07
1.62324e+07
1.39504e+07
1.5797e+07
1.39729e+07
1.55123e+07
1.37884e+07
1.50029e+07
1.33831e+07
1.43349e+07
1.29396e+07
1.36351e+07
1.24879e+07
1.29621e+07
1.20843e+07
1.23428e+07
1.17542e+07
1.17913e+07
1.15088e+07
1.13205e+07
1.13563e+07
1.09403e+07
1.12967e+07
1.06494e+07
1.13051e+07
1.03934e+07
1.1267e+07
9.92163e+06
1.08776e+07
8.74975e+06
9.90556e+06
7.16237e+06
9.01463e+06
8.22366e+06
5.44528e+06
8.89812e+06
6.31278e+06
9.41316e+06
7.0437e+06
9.83017e+06
7.7196e+06
1.02486e+07
8.40683e+06
1.06671e+07
8.83056e+06
1.0717e+07
9.05673e+06
1.07024e+07
9.49695e+06
1.08862e+07
9.83812e+06
1.09872e+07
1.01522e+07
1.10894e+07
1.05017e+07
1.12436e+07
1.09093e+07
1.14644e+07
1.13853e+07
1.17585e+07
1.19356e+07
1.21262e+07
1.25568e+07
1.25508e+07
1.32222e+07
1.2969e+07
1.3858e+07
1.32325e+07
1.43708e+07
1.32374e+07
1.48288e+07
1.32088e+07
1.52128e+07
-914644
-2.95595e+06
345722
-1.77593e+06
1.34652e+06
-702847
2.32969e+06
406458
3.35887e+06
1.55718e+06
4.36271e+06
2.74562e+06
5.34373e+06
3.9363e+06
6.27131e+06
4.91443e+06
6.94247e+06
5.86795e+06
7.72411e+06
6.88357e+06
8.554e+06
7.93677e+06
9.42139e+06
9.03546e+06
1.03379e+07
1.01949e+07
1.13185e+07
1.14271e+07
1.23706e+07
1.27335e+07
1.34852e+07
1.40985e+07
1.46291e+07
1.55016e+07
1.57854e+07
1.70092e+07
1.70916e+07
1.88453e+07
1.85636e+07
2.03285e+07
-7.54706e+06
-8.67187e+06
-6.34919e+06
-7.56148e+06
-5.2431e+06
-6.43381e+06
-4.08536e+06
-5.24203e+06
-2.86444e+06
-3.9774e+06
-1.56572e+06
-2.59142e+06
-154963
-1.05591e+06
1.27762e+06
478640
2.61152e+06
1.95173e+06
3.9344e+06
3.46235e+06
5.31946e+06
5.06078e+06
6.79294e+06
6.75477e+06
8.36054e+06
8.53791e+06
1.00195e+07
1.03989e+07
1.176e+07
1.23227e+07
1.35631e+07
1.42917e+07
1.54146e+07
1.63222e+07
1.73872e+07
1.85779e+07
1.97383e+07
2.1302e+07
2.22201e+07
2.33871e+07
-1.07287e+07
-1.08884e+07
-9.6357e+06
-9.70169e+06
-8.50946e+06
-8.47641e+06
-7.32471e+06
-7.27405e+06
-6.09024e+06
-6.00677e+06
-4.75365e+06
-4.60143e+06
-3.27738e+06
-3.05837e+06
-1.71137e+06
-1.42962e+06
-105728
271087
1.5846e+06
2.06376e+06
3.38788e+06
3.9493e+06
5.29748e+06
5.9114e+06
7.29103e+06
7.93073e+06
9.3449e+06
9.99257e+06
1.14397e+07
1.20872e+07
1.35616e+07
1.4214e+07
1.57255e+07
1.64265e+07
1.80673e+07
1.89315e+07
2.08652e+07
2.19063e+07
2.36688e+07
2.41118e+07
-1.13741e+07
-1.09404e+07
-9.74981e+06
-9.16661e+06
-8.3028e+06
-7.71001e+06
-7.17194e+06
-6.47772e+06
-6.05809e+06
-5.18165e+06
-4.76595e+06
-3.74458e+06
-3.27181e+06
-2.19928e+06
-1.63327e+06
-593776
91688.9
1.03917e+06
1.86645e+06
2.68565e+06
3.66765e+06
4.34644e+06
5.48605e+06
6.03387e+06
7.32632e+06
7.76674e+06
9.20189e+06
9.5639e+06
1.11274e+07
1.14389e+07
1.31161e+07
1.3407e+07
1.52087e+07
1.55347e+07
1.75565e+07
1.8007e+07
2.03736e+07
2.08858e+07
2.30903e+07
2.29416e+07
-1.25079e+07
-1.37519e+07
-1.07893e+07
-1.03096e+07
-8.7954e+06
-7.74103e+06
-6.95632e+06
-5.7701e+06
-5.12097e+06
-4.01197e+06
-3.3396e+06
-2.41891e+06
-1.70288e+06
-995735
-225013
294103
1.13738e+06
1.51299e+06
2.44837e+06
2.72584e+06
3.77015e+06
3.98725e+06
5.15292e+06
5.33687e+06
6.63161e+06
6.79953e+06
8.22642e+06
8.38736e+06
9.94491e+06
1.0103e+07
1.17898e+07
1.19537e+07
1.37933e+07
1.39943e+07
1.60739e+07
1.63464e+07
1.87222e+07
1.89088e+07
2.10777e+07
2.05516e+07
-2.14377e+07
-1.75271e+07
-1.26647e+07
-8.99957e+06
-7.50696e+06
-5.01845e+06
-5.1125e+06
-3.38337e+06
-3.69067e+06
-2.38438e+06
-2.50914e+06
-1.45753e+06
-1.38056e+06
-496781
-264778
500553
856921
1.53198e+06
2.00479e+06
2.60492e+06
3.20066e+06
3.7341e+06
4.46545e+06
4.93707e+06
5.81744e+06
6.23075e+06
7.27105e+06
7.62914e+06
8.83641e+06
9.14378e+06
1.05266e+07
1.07967e+07
1.23868e+07
1.26508e+07
1.45101e+07
1.47681e+07
1.68335e+07
1.68435e+07
1.8548e+07
1.77934e+07
)
;

boundaryField
{
    back
    {
        type            empty;
    }
    front
    {
        type            empty;
    }
    left
    {
        type            symmetry;
    }
    hole
    {
        type            zeroGradient;
    }
    down
    {
        type            symmetry;
    }
    right
    {
        type            zeroGradient;
    }
    up
    {
        type            zeroGradient;
    }
}


// ************************************************************************* //
