/*--------------------------------*- C++ -*----------------------------------*\
| =========                 |                                                 |
| \\      /  F ield         | OpenFOAM: The Open Source CFD Toolbox           |
|  \\    /   O peration     | Version:  v2012                                 |
|   \\  /    A nd           | Website:  www.openfoam.com                      |
|    \\/     M anipulation  |                                                 |
\*---------------------------------------------------------------------------*/
FoamFile
{
    version     2.0;
    format      ascii;
    class       volScalarField;
    location    "20";
    object      sigmaEq;
}
// * * * * * * * * * * * * * * * * * * * * * * * * * * * * * * * * * * * * * //

dimensions      [1 -1 -2 0 0 0 0];


internalField   nonuniform List<scalar> 
2000
(
2.06214e+08
1.95759e+08
1.42484e+08
1.50421e+08
1.07678e+08
1.13045e+08
8.34279e+07
8.86653e+07
6.60117e+07
7.15649e+07
5.02132e+07
5.50376e+07
3.4291e+07
3.791e+07
2.48671e+07
2.48558e+07
3.35667e+07
2.62576e+07
4.76406e+07
3.73607e+07
2.13902e+08
1.8532e+08
1.4243e+08
1.41126e+08
1.00635e+08
1.09653e+08
7.66843e+07
8.88787e+07
6.26858e+07
7.25592e+07
5.20848e+07
5.6645e+07
4.32062e+07
4.09431e+07
3.83333e+07
2.74107e+07
4.07756e+07
2.19114e+07
4.85924e+07
2.9971e+07
1.97654e+08
1.71986e+08
1.31604e+08
1.29352e+08
9.23394e+07
1.01109e+08
7.06203e+07
8.20451e+07
5.95341e+07
6.64675e+07
5.11374e+07
5.21288e+07
4.33337e+07
3.89803e+07
3.86772e+07
2.85528e+07
3.97427e+07
2.35426e+07
4.4773e+07
2.55489e+07
1.7505e+08
1.45331e+08
1.09214e+08
1.06001e+08
7.57902e+07
7.95378e+07
6.29586e+07
6.31032e+07
4.97719e+07
5.22613e+07
3.8941e+07
4.39107e+07
3.31244e+07
3.71107e+07
3.18578e+07
3.19204e+07
3.43586e+07
2.85753e+07
3.8683e+07
2.6654e+07
1.33455e+08
1.0592e+08
8.35097e+07
7.10288e+07
5.93346e+07
5.95159e+07
4.57685e+07
4.92447e+07
3.69508e+07
4.07964e+07
3.07939e+07
3.49293e+07
2.62511e+07
3.20112e+07
2.56118e+07
3.0253e+07
2.73605e+07
2.83896e+07
3.08422e+07
2.66002e+07
8.81256e+07
7.13684e+07
6.3522e+07
5.4948e+07
4.79457e+07
4.45972e+07
3.86569e+07
3.90188e+07
3.20773e+07
3.38703e+07
2.71875e+07
2.89977e+07
2.39398e+07
2.41634e+07
2.24303e+07
2.13698e+07
2.27675e+07
2.09942e+07
2.44893e+07
2.23506e+07
6.47737e+07
5.49077e+07
4.97547e+07
4.29762e+07
3.86764e+07
3.53493e+07
3.11425e+07
3.06344e+07
2.55218e+07
2.69761e+07
2.11762e+07
2.33744e+07
1.79474e+07
1.93939e+07
1.60397e+07
1.55727e+07
1.62028e+07
1.31249e+07
1.84412e+07
1.35544e+07
4.94938e+07
4.50892e+07
4.02082e+07
3.53958e+07
3.16999e+07
2.85893e+07
2.52378e+07
2.42783e+07
2.031e+07
2.13721e+07
1.65275e+07
1.89995e+07
1.36297e+07
1.65864e+07
1.14613e+07
1.37181e+07
1.04096e+07
1.04506e+07
1.19245e+07
7.38768e+06
4.19435e+07
3.86153e+07
3.44987e+07
3.09873e+07
2.73621e+07
2.49612e+07
2.16955e+07
2.07247e+07
1.73994e+07
1.77578e+07
1.42379e+07
1.55955e+07
1.20723e+07
1.39344e+07
1.07494e+07
1.25612e+07
9.85392e+06
1.17749e+07
9.43124e+06
1.32072e+07
3.77291e+07
3.52743e+07
3.11286e+07
2.87968e+07
2.50096e+07
2.3601e+07
2.02117e+07
1.98691e+07
1.67429e+07
1.71769e+07
1.43836e+07
1.50633e+07
1.29732e+07
1.31915e+07
1.23011e+07
1.18627e+07
1.25749e+07
1.44242e+07
1.84678e+07
3.17732e+07
3.57336e+07
3.35111e+07
2.92069e+07
2.78416e+07
2.37684e+07
2.35865e+07
1.97421e+07
2.08417e+07
1.7015e+07
1.91978e+07
1.54103e+07
1.84256e+07
1.53488e+07
1.90056e+07
1.89374e+07
2.42216e+07
2.99189e+07
4.00063e+07
4.72e+07
2.20813e+07
3.46379e+07
3.15599e+07
2.79669e+07
2.65276e+07
2.30278e+07
2.30704e+07
1.98315e+07
2.11173e+07
1.80445e+07
2.00618e+07
1.75429e+07
1.98286e+07
1.93238e+07
2.20847e+07
2.56398e+07
2.93437e+07
3.50947e+07
3.83453e+07
3.63415e+07
1.85974e+07
3.28827e+07
2.88128e+07
2.61981e+07
2.44079e+07
2.15613e+07
2.1613e+07
1.89516e+07
2.02412e+07
1.79473e+07
1.99052e+07
1.85342e+07
2.10439e+07
2.15758e+07
2.50603e+07
2.74888e+07
3.18921e+07
3.22768e+07
3.60552e+07
2.98582e+07
1.63814e+07
3.00548e+07
2.5623e+07
2.38973e+07
2.18984e+07
2.00057e+07
1.99024e+07
1.82384e+07
1.93511e+07
1.8028e+07
1.99327e+07
1.92533e+07
2.20212e+07
2.22964e+07
2.62262e+07
2.68226e+07
3.15897e+07
2.98398e+07
3.40231e+07
2.73209e+07
1.67449e+07
2.67381e+07
2.21699e+07
2.14414e+07
1.93089e+07
1.86407e+07
1.8215e+07
1.78284e+07
1.8444e+07
1.82283e+07
1.96633e+07
1.96149e+07
2.20446e+07
2.21666e+07
2.57566e+07
2.561e+07
2.99375e+07
2.76626e+07
3.17412e+07
2.5372e+07
1.74206e+07
2.3081e+07
1.83645e+07
1.89432e+07
1.66356e+07
1.73956e+07
1.64723e+07
1.74234e+07
1.72661e+07
1.81377e+07
1.873e+07
1.93753e+07
2.09546e+07
2.13268e+07
2.40151e+07
2.3819e+07
2.73006e+07
2.49984e+07
2.87061e+07
2.28509e+07
1.72133e+07
1.89901e+07
1.41358e+07
1.64498e+07
1.3778e+07
1.61974e+07
1.44276e+07
1.68192e+07
1.55346e+07
1.75716e+07
1.69965e+07
1.84678e+07
1.89031e+07
1.97341e+07
2.12869e+07
2.12135e+07
2.36674e+07
2.13493e+07
2.4549e+07
1.92367e+07
1.58572e+07
1.4531e+07
9.67304e+06
1.39087e+07
1.04641e+07
1.47462e+07
1.15995e+07
1.56911e+07
1.28998e+07
1.63616e+07
1.44466e+07
1.68979e+07
1.62346e+07
1.74717e+07
1.80853e+07
1.78259e+07
1.94301e+07
1.66207e+07
1.94241e+07
1.43978e+07
1.35249e+07
1.01139e+07
5.90404e+06
1.09687e+07
6.75787e+06
1.24595e+07
7.89551e+06
1.36795e+07
9.40088e+06
1.44962e+07
1.12525e+07
1.49624e+07
1.31858e+07
1.50304e+07
1.47555e+07
1.42003e+07
1.52805e+07
1.12916e+07
1.45486e+07
9.30362e+06
1.13695e+07
6.45711e+06
4.32107e+06
7.84282e+06
5.06075e+06
9.57933e+06
6.39383e+06
1.12541e+07
8.22317e+06
1.26162e+07
1.0328e+07
1.3373e+07
1.22499e+07
1.31289e+07
1.31651e+07
1.11936e+07
1.19311e+07
6.59764e+06
9.19075e+06
7.46258e+06
1.16053e+07
2.43296e+07
2.54316e+07
2.33675e+07
2.60211e+07
2.34399e+07
2.60841e+07
2.29287e+07
2.6167e+07
2.16463e+07
2.63132e+07
2.01663e+07
2.66717e+07
1.87815e+07
2.7553e+07
1.74493e+07
2.92677e+07
1.64706e+07
2.59321e+07
1.76204e+07
1.24187e+07
2.89619e+07
2.71079e+07
2.80145e+07
2.58034e+07
2.74287e+07
2.45203e+07
2.71219e+07
2.33166e+07
2.70532e+07
2.22089e+07
2.73977e+07
2.12853e+07
2.82717e+07
2.03414e+07
2.94789e+07
1.94648e+07
3.06878e+07
1.89207e+07
3.21486e+07
1.38463e+07
2.33787e+07
2.21123e+07
2.19513e+07
1.97328e+07
2.01606e+07
1.7416e+07
1.82509e+07
1.54273e+07
1.67465e+07
1.38943e+07
1.56998e+07
1.30941e+07
1.49785e+07
1.27958e+07
1.43264e+07
1.06177e+07
1.37765e+07
8.35934e+06
1.50746e+07
8.8253e+06
1.68184e+07
1.65295e+07
1.4765e+07
1.41077e+07
1.27916e+07
1.17066e+07
1.06072e+07
1.00545e+07
8.98634e+06
9.54625e+06
8.41665e+06
9.51221e+06
8.64989e+06
7.99995e+06
8.32367e+06
4.66631e+06
6.86212e+06
2.93859e+06
7.5932e+06
4.57807e+06
1.31165e+07
1.30098e+07
1.0658e+07
1.0715e+07
9.11564e+06
8.65899e+06
7.83678e+06
7.46324e+06
7.25316e+06
6.823e+06
7.20691e+06
5.51309e+06
6.54087e+06
3.0572e+06
4.31777e+06
2.115e+06
3.34527e+06
3.52914e+06
5.40358e+06
4.53658e+06
1.20935e+07
1.15904e+07
9.52044e+06
9.10277e+06
8.18197e+06
6.88369e+06
7.28342e+06
5.15877e+06
6.56578e+06
3.42001e+06
5.4302e+06
1.195e+06
3.35082e+06
2.0021e+06
2.21106e+06
4.1508e+06
4.24449e+06
5.2126e+06
5.76495e+06
5.57238e+06
1.24375e+07
1.13993e+07
9.7408e+06
8.61302e+06
8.0162e+06
6.05395e+06
6.65479e+06
3.88959e+06
5.26442e+06
2.33613e+06
3.59724e+06
2.89124e+06
2.77659e+06
4.70049e+06
4.23663e+06
6.05596e+06
5.83022e+06
6.60286e+06
6.67703e+06
6.99157e+06
1.31164e+07
1.16703e+07
1.03009e+07
8.8489e+06
8.11182e+06
6.45738e+06
6.326e+06
4.94066e+06
4.837e+06
4.65123e+06
4.04184e+06
5.48218e+06
4.65451e+06
6.62959e+06
5.98193e+06
7.46813e+06
7.03245e+06
7.78474e+06
7.55905e+06
7.55833e+06
1.35822e+07
1.19208e+07
1.0801e+07
9.39011e+06
8.46391e+06
7.52956e+06
6.74784e+06
6.69748e+06
5.72581e+06
6.76078e+06
5.60536e+06
7.34955e+06
6.28507e+06
8.01853e+06
7.17085e+06
8.39636e+06
7.76859e+06
8.25049e+06
7.88614e+06
7.73369e+06
1.3617e+07
1.19109e+07
1.1091e+07
9.86808e+06
8.95083e+06
8.57721e+06
7.5935e+06
8.15998e+06
6.98269e+06
8.28684e+06
7.03704e+06
8.63266e+06
7.52261e+06
8.91951e+06
8.04929e+06
8.90821e+06
8.26867e+06
8.47806e+06
8.03884e+06
7.84795e+06
1.32078e+07
1.15791e+07
1.11276e+07
1.00955e+07
9.39437e+06
9.3075e+06
8.43024e+06
9.15174e+06
8.05655e+06
9.27233e+06
8.09921e+06
9.4189e+06
8.3577e+06
9.41546e+06
8.56246e+06
9.1288e+06
8.48898e+06
8.52855e+06
8.10727e+06
7.84429e+06
1.24485e+07
1.09701e+07
1.09281e+07
1.00352e+07
9.67677e+06
9.66545e+06
9.04482e+06
9.69149e+06
8.79628e+06
9.79722e+06
8.77062e+06
9.80002e+06
8.82402e+06
9.59796e+06
8.77931e+06
9.1354e+06
8.50479e+06
8.43686e+06
8.02095e+06
7.73127e+06
1.14773e+07
1.01814e+07
1.05527e+07
9.733e+06
9.76703e+06
9.69334e+06
9.38692e+06
9.85066e+06
9.20118e+06
9.95119e+06
9.10068e+06
9.86511e+06
8.99391e+06
9.54027e+06
8.77258e+06
8.98106e+06
8.36739e+06
8.25822e+06
7.813e+06
7.55215e+06
1.04454e+07
9.33002e+06
1.00895e+07
9.27188e+06
9.69494e+06
9.46991e+06
9.4847e+06
9.71226e+06
9.32424e+06
9.81394e+06
9.16118e+06
9.68814e+06
8.94031e+06
9.30706e+06
8.59607e+06
8.68657e+06
8.10138e+06
7.91506e+06
7.51422e+06
7.26414e+06
9.50504e+06
8.53827e+06
9.63833e+06
8.74758e+06
9.51972e+06
9.08231e+06
9.39528e+06
9.356e+06
9.22854e+06
9.45014e+06
9.01513e+06
9.30979e+06
8.72344e+06
8.9252e+06
8.31706e+06
8.34032e+06
7.79106e+06
7.6342e+06
7.1787e+06
6.80631e+06
8.81269e+06
7.93821e+06
9.3005e+06
8.26556e+06
9.31152e+06
8.61868e+06
9.18568e+06
8.86333e+06
8.98132e+06
8.93309e+06
8.72069e+06
8.78987e+06
8.37939e+06
8.42837e+06
7.93276e+06
7.86358e+06
7.37839e+06
7.10662e+06
6.71892e+06
6.16583e+06
8.54759e+06
7.70032e+06
9.18035e+06
7.97305e+06
9.15786e+06
8.20256e+06
8.94673e+06
8.35593e+06
8.67412e+06
8.36404e+06
8.35404e+06
8.15956e+06
7.9564e+06
7.74686e+06
7.46824e+06
7.16701e+06
6.88672e+06
6.42098e+06
6.1938e+06
5.4765e+06
8.93662e+06
8.08779e+06
9.41537e+06
8.12117e+06
9.20054e+06
8.08891e+06
8.84289e+06
8.03105e+06
8.45872e+06
7.84474e+06
8.02007e+06
7.43946e+06
7.48611e+06
6.82625e+06
6.8798e+06
6.10467e+06
6.25801e+06
5.38006e+06
5.6318e+06
4.58081e+06
1.01438e+07
9.46692e+06
1.01934e+07
9.00459e+06
9.66185e+06
8.6615e+06
9.11835e+06
8.16114e+06
8.52289e+06
7.48039e+06
7.80993e+06
6.6523e+06
6.99079e+06
5.72252e+06
6.12653e+06
4.74141e+06
5.32376e+06
3.79911e+06
4.70335e+06
3.01434e+06
1.132e+07
1.1745e+07
1.12078e+07
1.16925e+07
1.08379e+07
1.0755e+07
1.0034e+07
9.42059e+06
8.96384e+06
7.9152e+06
7.76091e+06
6.39082e+06
6.51122e+06
4.96579e+06
5.27893e+06
3.71797e+06
4.15099e+06
2.68978e+06
3.34654e+06
1.92534e+06
2.0383e+07
2.1784e+07
2.26418e+07
2.22741e+07
2.54135e+07
2.3374e+07
2.72211e+07
2.45678e+07
2.79614e+07
2.5246e+07
2.78568e+07
2.52748e+07
2.72063e+07
2.47979e+07
2.62746e+07
2.40416e+07
2.52611e+07
2.32068e+07
2.43078e+07
2.24349e+07
2.35149e+07
2.18129e+07
2.29564e+07
2.13942e+07
2.26928e+07
2.12198e+07
2.27824e+07
2.13357e+07
2.32879e+07
2.18078e+07
2.42884e+07
2.27404e+07
2.59043e+07
2.42832e+07
2.82603e+07
2.64673e+07
3.11086e+07
2.87127e+07
3.02602e+07
2.67691e+07
3.09988e+07
1.98654e+07
2.62062e+07
1.91851e+07
2.25038e+07
1.85422e+07
2.0489e+07
1.8155e+07
1.97423e+07
1.80298e+07
1.9553e+07
1.8117e+07
1.94783e+07
1.82968e+07
1.93442e+07
1.84471e+07
1.91267e+07
1.85021e+07
1.88684e+07
1.84576e+07
1.86344e+07
1.83498e+07
1.849e+07
1.82319e+07
1.84918e+07
1.81609e+07
1.86922e+07
1.81958e+07
1.91454e+07
1.84068e+07
1.99229e+07
1.88944e+07
2.11255e+07
1.97843e+07
2.27976e+07
2.1117e+07
2.46656e+07
2.26886e+07
2.32923e+07
2.25205e+07
1.71771e+07
1.06669e+07
1.76501e+07
1.10477e+07
1.78571e+07
1.19057e+07
1.77038e+07
1.28001e+07
1.73071e+07
1.34969e+07
1.67919e+07
1.39565e+07
1.62776e+07
1.42318e+07
1.58323e+07
1.43986e+07
1.54887e+07
1.4517e+07
1.52641e+07
1.46185e+07
1.51666e+07
1.47096e+07
1.51938e+07
1.47921e+07
1.53343e+07
1.48743e+07
1.55809e+07
1.49783e+07
1.59411e+07
1.51463e+07
1.64518e+07
1.54361e+07
1.71737e+07
1.59019e+07
1.81298e+07
1.65945e+07
1.92903e+07
1.76325e+07
2.04167e+07
1.97758e+07
8.71368e+06
6.54065e+06
9.76141e+06
7.2604e+06
1.07992e+07
8.14012e+06
1.1588e+07
9.03959e+06
1.20203e+07
9.83749e+06
1.21858e+07
1.04835e+07
1.21978e+07
1.09726e+07
1.21524e+07
1.13251e+07
1.21037e+07
1.15733e+07
1.21071e+07
1.17483e+07
1.22103e+07
1.18912e+07
1.23643e+07
1.20024e+07
1.25636e+07
1.2078e+07
1.27856e+07
1.21241e+07
1.30099e+07
1.21836e+07
1.32932e+07
1.23486e+07
1.37267e+07
1.26955e+07
1.43733e+07
1.33189e+07
1.53703e+07
1.43433e+07
1.6798e+07
1.64993e+07
5.9876e+06
5.82466e+06
6.83566e+06
5.97481e+06
7.72959e+06
6.17499e+06
8.60345e+06
6.93132e+06
8.71423e+06
7.4694e+06
8.88767e+06
7.99923e+06
9.15274e+06
8.48705e+06
9.41668e+06
8.92095e+06
9.61589e+06
9.34217e+06
9.73484e+06
9.53104e+06
9.98649e+06
9.69242e+06
1.02361e+07
9.78294e+06
1.04551e+07
9.80407e+06
1.06579e+07
9.72292e+06
1.07648e+07
9.70356e+06
1.08845e+07
9.84538e+06
1.11808e+07
1.0181e+07
1.17133e+07
1.07903e+07
1.26249e+07
1.17842e+07
1.38498e+07
1.36235e+07
5.8916e+06
6.41386e+06
6.54934e+06
6.60049e+06
7.07816e+06
6.5506e+06
6.28059e+06
5.90859e+06
6.79378e+06
6.22315e+06
7.26047e+06
6.60797e+06
7.62911e+06
6.92033e+06
7.88756e+06
7.04156e+06
8.04315e+06
6.92532e+06
8.45421e+06
7.52748e+06
8.5615e+06
7.77319e+06
8.72073e+06
7.98213e+06
8.90278e+06
8.17133e+06
8.72285e+06
7.82599e+06
8.62319e+06
7.88512e+06
8.92195e+06
8.04097e+06
9.23121e+06
8.31483e+06
9.66664e+06
8.80952e+06
1.0381e+07
9.62945e+06
1.13456e+07
1.11254e+07
6.94744e+06
8.25301e+06
7.37288e+06
6.81451e+06
5.66974e+06
5.12514e+06
5.82086e+06
5.23277e+06
6.11614e+06
5.44572e+06
6.34541e+06
5.64e+06
6.52707e+06
5.79635e+06
6.7257e+06
6.16199e+06
6.83981e+06
6.51618e+06
7.1477e+06
6.60046e+06
7.37163e+06
6.65632e+06
7.50793e+06
6.63879e+06
7.56099e+06
6.55314e+06
7.72436e+06
6.57912e+06
7.64549e+06
6.59371e+06
7.64728e+06
6.67449e+06
7.73908e+06
6.82547e+06
8.00565e+06
7.26995e+06
8.50946e+06
7.83647e+06
9.17378e+06
9.01728e+06
7.35464e+06
7.63807e+06
7.11216e+06
6.75554e+06
6.3252e+06
6.10769e+06
6.02275e+06
5.84285e+06
5.99343e+06
5.83297e+06
6.05886e+06
6.01412e+06
6.14067e+06
5.9921e+06
5.93228e+06
5.78804e+06
6.22237e+06
5.89031e+06
6.45309e+06
5.94259e+06
6.58442e+06
5.93413e+06
6.63458e+06
5.87641e+06
6.62743e+06
5.76932e+06
6.57765e+06
5.65895e+06
6.50494e+06
5.53972e+06
6.43994e+06
5.56756e+06
6.58753e+06
5.64512e+06
6.6223e+06
5.9414e+06
7.13264e+06
6.44293e+06
7.48133e+06
7.14142e+06
7.41261e+06
7.73622e+06
7.20907e+06
7.03466e+06
6.67573e+06
6.45145e+06
6.3029e+06
6.08338e+06
6.10905e+06
5.84227e+06
6.01061e+06
5.63138e+06
5.90938e+06
5.55864e+06
5.83938e+06
5.5827e+06
5.89425e+06
5.56467e+06
5.95383e+06
5.49562e+06
5.97726e+06
5.38912e+06
5.95979e+06
5.26047e+06
5.90432e+06
5.12425e+06
5.81454e+06
4.99683e+06
5.71045e+06
4.90026e+06
5.62334e+06
4.82703e+06
5.56655e+06
4.79764e+06
5.5683e+06
4.86098e+06
5.71716e+06
5.07239e+06
5.96153e+06
5.63269e+06
7.58096e+06
7.84683e+06
7.4334e+06
7.25003e+06
6.91048e+06
6.64702e+06
6.47458e+06
6.24861e+06
6.17649e+06
5.84453e+06
5.8639e+06
5.53662e+06
5.65517e+06
5.40215e+06
5.58696e+06
5.25914e+06
5.50377e+06
5.14897e+06
5.45553e+06
5.04253e+06
5.41632e+06
4.92438e+06
5.36704e+06
4.78865e+06
5.29604e+06
4.63721e+06
5.20019e+06
4.47689e+06
5.0839e+06
4.31688e+06
4.95209e+06
4.15941e+06
4.81123e+06
4.02205e+06
4.68934e+06
3.93625e+06
4.62707e+06
3.9442e+06
4.65049e+06
4.2382e+06
7.67025e+06
7.79447e+06
7.5121e+06
7.26418e+06
7.00633e+06
6.708e+06
6.49881e+06
6.19571e+06
6.09182e+06
5.79054e+06
5.75953e+06
5.49413e+06
5.50983e+06
5.24616e+06
5.34601e+06
5.04889e+06
5.20503e+06
4.8814e+06
5.09497e+06
4.7288e+06
5.00034e+06
4.5746e+06
4.90386e+06
4.40719e+06
4.79156e+06
4.22198e+06
4.65601e+06
4.01815e+06
4.49286e+06
3.79586e+06
4.2998e+06
3.55855e+06
4.08e+06
3.31767e+06
3.84866e+06
3.09712e+06
3.63397e+06
2.93477e+06
3.47251e+06
2.97941e+06
7.60435e+06
7.6266e+06
7.43346e+06
7.12948e+06
6.94256e+06
6.58387e+06
6.4207e+06
6.08668e+06
5.9725e+06
5.67827e+06
5.61017e+06
5.35427e+06
5.32622e+06
5.05987e+06
5.10467e+06
4.87176e+06
4.90329e+06
4.67154e+06
4.749e+06
4.49004e+06
4.6231e+06
4.29925e+06
4.49078e+06
4.08708e+06
4.3395e+06
3.85201e+06
4.16293e+06
3.59328e+06
3.95542e+06
3.30988e+06
3.71231e+06
3.00278e+06
3.43203e+06
2.67691e+06
3.11753e+06
2.34212e+06
2.77559e+06
2.02441e+06
2.44234e+06
1.85082e+06
7.36414e+06
7.29643e+06
7.14379e+06
6.72272e+06
6.70423e+06
6.34633e+06
6.12742e+06
5.84834e+06
5.65418e+06
5.48976e+06
5.30945e+06
5.24431e+06
5.03296e+06
4.94567e+06
4.68709e+06
4.59018e+06
4.53442e+06
4.39653e+06
4.39691e+06
4.18981e+06
4.26101e+06
3.95568e+06
4.09144e+06
3.70143e+06
3.89902e+06
3.43033e+06
3.68449e+06
3.13844e+06
3.44284e+06
2.82016e+06
3.16782e+06
2.47096e+06
2.85299e+06
2.08709e+06
2.4892e+06
1.6622e+06
2.06093e+06
1.20392e+06
1.58691e+06
843714
7.08201e+06
7.20667e+06
6.78257e+06
6.61757e+06
5.92761e+06
5.76529e+06
5.57936e+06
5.33097e+06
5.26615e+06
4.99369e+06
4.96315e+06
4.67357e+06
4.66691e+06
4.39007e+06
4.39131e+06
4.13747e+06
4.21157e+06
3.99144e+06
4.06028e+06
3.74528e+06
3.81741e+06
3.49458e+06
3.60059e+06
3.23804e+06
3.39218e+06
2.96427e+06
3.17199e+06
2.66351e+06
2.92755e+06
2.32947e+06
2.65052e+06
1.95697e+06
2.33227e+06
1.53759e+06
1.95727e+06
1.05085e+06
1.49764e+06
474950
954732
317208
6.59487e+06
6.26692e+06
6.16552e+06
5.73728e+06
5.60616e+06
5.34699e+06
5.16008e+06
4.96407e+06
4.78685e+06
4.59636e+06
4.44963e+06
4.26033e+06
4.1531e+06
3.97141e+06
3.90103e+06
3.71865e+06
3.66999e+06
3.45194e+06
3.50614e+06
3.20215e+06
3.32671e+06
2.95621e+06
3.13836e+06
2.69316e+06
2.92462e+06
2.40513e+06
2.68696e+06
2.09356e+06
2.42825e+06
1.75735e+06
2.14689e+06
1.39112e+06
1.83653e+06
982732
1.48302e+06
512297
1.07436e+06
250533
698056
975651
5.98332e+06
5.61695e+06
5.51649e+06
5.12227e+06
5.04016e+06
4.70777e+06
4.63666e+06
4.33892e+06
4.28095e+06
4.00336e+06
3.95606e+06
3.72062e+06
3.70743e+06
3.43829e+06
3.506e+06
3.14695e+06
3.25936e+06
2.8508e+06
2.99228e+06
2.60249e+06
2.7659e+06
2.33179e+06
2.57603e+06
2.03572e+06
2.34401e+06
1.73028e+06
2.09422e+06
1.42491e+06
1.83811e+06
1.11632e+06
1.57572e+06
794832
1.30331e+06
448152
1.01934e+06
203581
776225
665680
808483
1.49258e+06
5.38779e+06
4.98366e+06
4.88358e+06
4.56188e+06
4.41636e+06
4.1755e+06
4.05565e+06
3.8067e+06
3.74651e+06
3.44127e+06
3.51976e+06
3.18695e+06
3.27512e+06
2.86014e+06
2.94397e+06
2.50527e+06
2.65825e+06
2.11464e+06
2.46538e+06
1.87986e+06
2.24025e+06
1.55531e+06
1.88659e+06
1.24652e+06
1.60321e+06
963219
1.36594e+06
702404
1.15043e+06
457479
941694
226939
735061
111591
560829
414936
587779
916376
932066
1.73215e+06
4.79744e+06
4.24366e+06
4.27583e+06
3.83641e+06
3.77886e+06
3.45773e+06
3.30504e+06
3.16123e+06
3.00332e+06
2.90268e+06
2.82447e+06
2.54931e+06
2.61752e+06
2.1968e+06
2.34136e+06
1.86629e+06
2.04996e+06
1.56223e+06
1.75149e+06
1.18888e+06
1.52909e+06
852461
1.27451e+06
559515
1.01957e+06
321384
781504
214294
564704
305548
366977
447814
211880
570839
122238
691210
416255
919931
859724
1.28077e+06
3.90068e+06
3.07915e+06
3.49052e+06
2.7751e+06
3.20936e+06
2.45459e+06
3.04059e+06
2.22284e+06
2.69868e+06
1.93542e+06
2.31272e+06
1.63176e+06
1.986e+06
1.32044e+06
1.60954e+06
1.03029e+06
1.32054e+06
803483
1.07767e+06
601440
810965
448536
548638
401469
309390
470121
108551
594597
111853
721118
240573
813768
327729
860728
348865
768525
386261
531768
733012
420116
2.74878e+06
1.88196e+06
2.71604e+06
938615
2.32323e+06
547896
1.99586e+06
198297
1.72994e+06
637724
1.36399e+06
640186
1.19326e+06
706706
1.04898e+06
1.16556e+06
823928
1.12671e+06
711338
1.13083e+06
653413
1.13388e+06
628877
1.11027e+06
620833
1.05115e+06
617960
956931
612648
832284
599572
684059
579858
515237
533095
342274
448562
165546
367534
115720
3.64059e+07
2.90997e+07
2.92672e+07
2.48064e+07
2.63626e+07
2.21507e+07
2.46086e+07
2.05737e+07
2.31568e+07
1.9612e+07
2.17974e+07
1.90658e+07
2.04208e+07
1.88021e+07
1.89868e+07
1.8693e+07
1.74996e+07
1.86773e+07
1.59636e+07
1.87088e+07
1.43735e+07
1.87445e+07
1.27149e+07
1.8739e+07
1.0975e+07
1.8642e+07
9.18121e+06
1.84047e+07
7.51578e+06
1.79936e+07
6.59204e+06
1.74152e+07
7.45787e+06
1.67515e+07
1.02202e+07
1.62633e+07
1.35418e+07
1.68677e+07
1.56685e+07
1.9163e+07
4.542e+07
3.32666e+07
4.06372e+07
3.23386e+07
3.87256e+07
3.22906e+07
3.69666e+07
3.23834e+07
3.50545e+07
3.24102e+07
3.36599e+07
3.24868e+07
3.24433e+07
3.25934e+07
3.11389e+07
3.28349e+07
2.98083e+07
3.31012e+07
2.84583e+07
3.32903e+07
2.70544e+07
3.3333e+07
2.55342e+07
3.31513e+07
2.38245e+07
3.26608e+07
2.18489e+07
3.1777e+07
1.95337e+07
3.04315e+07
1.68236e+07
2.8608e+07
1.37118e+07
2.63648e+07
1.02098e+07
2.36712e+07
5.97825e+06
2.01769e+07
3.9446e+06
1.07422e+07
4.40958e+07
3.02815e+07
4.44328e+07
3.07446e+07
4.53329e+07
3.23089e+07
4.59132e+07
3.4057e+07
4.44962e+07
3.62768e+07
4.30813e+07
3.84752e+07
4.13564e+07
3.89674e+07
3.95028e+07
3.90127e+07
3.80674e+07
3.88258e+07
3.6627e+07
3.86579e+07
3.5164e+07
3.83923e+07
3.36326e+07
3.79362e+07
3.198e+07
3.72241e+07
3.0162e+07
3.62336e+07
2.81473e+07
3.49908e+07
2.59173e+07
3.35611e+07
2.34407e+07
3.19591e+07
2.05225e+07
2.98837e+07
1.66129e+07
2.67197e+07
1.19995e+07
1.92867e+07
3.86654e+07
2.74278e+07
3.95212e+07
2.67881e+07
4.03728e+07
2.6961e+07
4.15716e+07
2.7828e+07
4.27729e+07
2.95649e+07
4.42994e+07
3.17933e+07
4.46185e+07
3.41822e+07
4.33473e+07
3.67729e+07
4.17257e+07
3.74732e+07
4.03663e+07
3.77571e+07
3.90047e+07
3.78652e+07
3.76244e+07
3.77975e+07
3.62159e+07
3.75736e+07
3.47716e+07
3.72411e+07
3.3287e+07
3.68665e+07
3.17596e+07
3.65055e+07
3.01652e+07
3.61247e+07
2.84074e+07
3.55425e+07
2.64327e+07
3.47028e+07
2.47299e+07
3.29441e+07
3.24121e+07
2.56993e+07
3.38946e+07
2.48986e+07
3.49009e+07
2.44611e+07
3.59482e+07
2.46302e+07
3.70745e+07
2.54598e+07
3.82339e+07
2.66251e+07
3.9656e+07
2.80983e+07
4.1204e+07
3.00731e+07
4.05369e+07
3.20079e+07
4.00341e+07
3.32108e+07
3.94788e+07
3.41983e+07
3.88818e+07
3.49953e+07
3.82518e+07
3.56667e+07
3.7604e+07
3.6296e+07
3.69639e+07
3.69678e+07
3.63639e+07
3.77451e+07
3.58358e+07
3.8655e+07
3.54477e+07
3.97925e+07
3.54863e+07
4.15398e+07
3.62805e+07
4.48173e+07
2.61977e+07
2.28207e+07
2.79172e+07
2.31278e+07
2.93811e+07
2.33745e+07
3.07221e+07
2.37117e+07
3.19948e+07
2.42181e+07
3.32865e+07
2.49945e+07
3.47525e+07
2.61347e+07
3.65763e+07
2.71813e+07
3.74621e+07
2.8019e+07
3.79554e+07
2.89483e+07
3.82493e+07
2.99913e+07
3.83726e+07
3.11266e+07
3.83684e+07
3.23499e+07
3.8314e+07
3.36851e+07
3.83166e+07
3.51751e+07
3.84961e+07
3.68699e+07
3.89818e+07
3.88572e+07
3.99933e+07
4.14169e+07
4.19772e+07
4.50373e+07
4.48816e+07
5.13566e+07
2.04697e+07
1.65149e+07
2.30345e+07
1.81968e+07
2.52777e+07
1.97426e+07
2.7102e+07
2.1011e+07
2.86093e+07
2.20872e+07
2.995e+07
2.30573e+07
3.11897e+07
2.39622e+07
3.22884e+07
2.47592e+07
3.30601e+07
2.53981e+07
3.35556e+07
2.60295e+07
3.38874e+07
2.67741e+07
3.41766e+07
2.77096e+07
3.45425e+07
2.88875e+07
3.50926e+07
3.03487e+07
3.59175e+07
3.21303e+07
3.70936e+07
3.42764e+07
3.87193e+07
3.69013e+07
4.10318e+07
4.03332e+07
4.44546e+07
4.49516e+07
4.86262e+07
5.22953e+07
1.39254e+07
9.38087e+06
1.80811e+07
1.32407e+07
2.16361e+07
1.65889e+07
2.39609e+07
1.85954e+07
2.53053e+07
1.98368e+07
2.59732e+07
2.07841e+07
2.62683e+07
2.16362e+07
2.64804e+07
2.24459e+07
2.68148e+07
2.32278e+07
2.73511e+07
2.39839e+07
2.80724e+07
2.47426e+07
2.89456e+07
2.55706e+07
2.99718e+07
2.6562e+07
3.11912e+07
2.78182e+07
3.2664e+07
2.94319e+07
3.44581e+07
3.14951e+07
3.66796e+07
3.4166e+07
3.95701e+07
3.77657e+07
4.34604e+07
4.25113e+07
4.78256e+07
4.96165e+07
1.26486e+07
1.27735e+07
2.09862e+07
8.95401e+06
2.16285e+07
1.13203e+07
2.03186e+07
1.48434e+07
2.03323e+07
1.8138e+07
2.16317e+07
2.07595e+07
2.32137e+07
2.26039e+07
2.45001e+07
2.37633e+07
2.53794e+07
2.4429e+07
2.59678e+07
2.48138e+07
2.64443e+07
2.51103e+07
2.69735e+07
2.54745e+07
2.76821e+07
2.60241e+07
2.86632e+07
2.68462e+07
2.9986e+07
2.80076e+07
3.17132e+07
2.95801e+07
3.39441e+07
3.17001e+07
3.68729e+07
3.45976e+07
4.06276e+07
3.82773e+07
4.4439e+07
4.36411e+07
3.87967e+07
3.2885e+07
1.78659e+07
3.40458e+07
2.1408e+07
3.51716e+07
2.42109e+07
3.36352e+07
2.51668e+07
3.15781e+07
2.53419e+07
2.97878e+07
2.52048e+07
2.8391e+07
2.49752e+07
2.73313e+07
2.47835e+07
2.65206e+07
2.47105e+07
2.58901e+07
2.48016e+07
2.54109e+07
2.50836e+07
2.50988e+07
2.55827e+07
2.50089e+07
2.63355e+07
2.52249e+07
2.73919e+07
2.58479e+07
2.88216e+07
2.69951e+07
3.07466e+07
2.88104e+07
3.33553e+07
3.13715e+07
3.6648e+07
3.42231e+07
3.95507e+07
3.51512e+07
)
;

boundaryField
{
    back
    {
        type            empty;
    }
    front
    {
        type            empty;
    }
    left
    {
        type            symmetry;
    }
    hole
    {
        type            calculated;
        value           nonuniform List<scalar> 
20
(
2.10807e+08
2.1723e+08
2.01829e+08
1.80697e+08
1.40891e+08
9.26922e+07
6.81278e+07
5.21464e+07
4.33876e+07
3.84756e+07
3.59098e+07
3.42834e+07
3.22136e+07
2.92884e+07
2.59169e+07
2.22065e+07
1.80639e+07
1.35591e+07
9.25192e+06
6.29831e+06
)
;
    }
    down
    {
        type            symmetry;
    }
    right
    {
        type            calculated;
        value           nonuniform List<scalar> 
30
(
1.14668e+07
1.10918e+07
1.02569e+07
9.05662e+06
7.68816e+06
6.29725e+06
4.9903e+06
3.82684e+06
2.78775e+06
1.70412e+06
1.20154e+06
1.181e+06
879016
586532
441056
182883
236530
174168
347303
417908
449350
446487
410999
346735
261211
166877
87922.7
72403.1
115518
157321
)
;
    }
    up
    {
        type            calculated;
        value           nonuniform List<scalar> 
30
(
2.63716e+07
2.18613e+07
1.97229e+07
1.64433e+07
1.35515e+07
1.10164e+07
8.86533e+06
7.07073e+06
5.58592e+06
4.18925e+06
2.93325e+06
1.82485e+06
845563
214600
812301
1.27793e+06
1.4815e+06
1.01904e+06
370570
123081
4.99115e+06
4.88394e+06
1.81432e+07
3.22017e+07
4.41318e+07
5.07474e+07
5.17082e+07
4.89798e+07
4.3218e+07
3.5296e+07
)
;
    }
}


// ************************************************************************* //
