/*--------------------------------*- C++ -*----------------------------------*\
| =========                 |                                                 |
| \\      /  F ield         | OpenFOAM: The Open Source CFD Toolbox           |
|  \\    /   O peration     | Version:  v2012                                 |
|   \\  /    A nd           | Website:  www.openfoam.com                      |
|    \\/     M anipulation  |                                                 |
\*---------------------------------------------------------------------------*/
FoamFile
{
    version     2.0;
    format      ascii;
    class       volSymmTensorField;
    location    "2";
    object      epsilon;
}
// * * * * * * * * * * * * * * * * * * * * * * * * * * * * * * * * * * * * * //

dimensions      [0 0 0 0 0 0 0];


internalField   nonuniform List<symmTensor> 
470
(
(0.000150812 -7.55924e-05 4.78784e-16 -5.38538e-05 1.66632e-16 0)
(0.00018684 -1.81245e-05 2.11203e-16 -4.81201e-05 1.39186e-16 0)
(0.000386806 -5.47004e-05 -1.47018e-16 -0.000161667 -1.79679e-16 0)
(0.000307694 -1.10052e-05 -6.07587e-16 -7.36597e-05 -4.01494e-17 0)
(0.000301894 -0.00014228 8.83625e-16 -0.000138937 7.77034e-17 0)
(0.00036002 -1.16161e-05 6.78927e-16 -0.000155489 -3.91831e-16 0)
(0.000309908 -0.000112583 -5.98913e-16 -0.000114443 4.02239e-17 0)
(0.000256722 -0.000163047 2.1619e-16 -0.000144398 1.01827e-16 0)
(0.000512165 -6.19725e-05 3.14744e-16 -0.0002399 7.90953e-16 0)
(0.000379264 -8.76983e-05 5.27356e-16 -0.000145687 -1.37477e-16 0)
(0.000503903 -5.56383e-05 7.39317e-16 -0.000229966 -6.69712e-16 0)
(0.000574193 6.46483e-05 -8.61724e-16 -0.00026941 -2.94198e-16 0)
(0.000567015 2.8336e-05 5.2329e-16 -0.00026848 5.45842e-16 0)
(0.000299501 -2.25384e-05 -5.44703e-16 -7.52935e-05 -1.01176e-16 0)
(0.000583037 -1.82351e-05 -1.81647e-15 -0.000260293 6.7638e-16 0)
(0.000449209 -7.93649e-05 1.18742e-15 -0.000196523 -4.92228e-16 0)
(0.000364416 -9.56079e-05 -1.75424e-16 -0.000148987 -2.61347e-16 0)
(0.000271986 -2.88107e-05 -3.8294e-16 -7.11454e-05 3.41871e-16 0)
(0.000258024 -1.21334e-05 -2.49583e-16 -6.10081e-05 -2.10084e-16 0)
(0.000200733 -6.97118e-05 4.05708e-16 -5.32164e-05 -2.71525e-17 0)
(0.000464632 -4.87128e-05 -1.73125e-15 -0.00019606 -3.4895e-16 0)
(0.000328024 -3.50866e-05 -3.30031e-16 -0.000102439 1.48021e-16 0)
(0.000398904 -3.61255e-05 2.40042e-16 -0.000166804 -9.35666e-17 0)
(0.000291125 -3.55525e-05 -3.06179e-16 -7.83977e-05 1.83901e-16 0)
(0.000565161 -4.62167e-05 -1.22428e-15 -0.000317424 -2.44488e-16 0)
(0.000295845 -9.538e-05 -3.05745e-16 -9.88649e-05 1.08962e-16 0)
(0.000515547 -6.27207e-05 -3.0942e-15 -0.000275425 -2.02908e-16 0)
(0.000416083 -2.22421e-05 2.75821e-16 -0.000180847 9.82233e-16 0)
(0.00035666 -2.85305e-05 -1.53306e-16 -0.000146314 7.50268e-17 0)
(0.00028783 -1.55307e-05 -4.57967e-16 -7.41629e-05 -1.70755e-16 0)
(0.00019519 -6.7604e-05 2.31586e-16 -5.31702e-05 1.65942e-17 0)
(0.000622497 5.52948e-06 -5.20471e-15 -0.000268808 1.09971e-15 0)
(0.000380919 -7.75573e-05 -1.20346e-16 -0.000155952 3.9053e-16 0)
(0.00066221 -0.000102601 3.55185e-16 -0.000277191 -1.87101e-15 0)
(0.000376188 -1.73372e-05 -5.78747e-16 -0.000155277 1.51788e-16 0)
(0.000363903 -1.62645e-05 7.63495e-16 -0.000152903 -5.334e-16 0)
(0.000581102 2.00381e-05 1.1099e-15 -0.000250984 3.06829e-17 0)
(0.000204803 -6.48238e-05 1.61112e-16 -6.12833e-05 -2.37068e-17 0)
(0.000239199 -6.17535e-05 1.03216e-16 -6.13379e-05 8.07866e-17 0)
(0.000204554 -9.07881e-05 3.79254e-16 -6.71647e-05 -9.53962e-17 0)
(0.000466486 -0.000109576 -1.93769e-15 -0.000253459 -5.26489e-16 0)
(0.000240919 -1.51267e-05 2.47849e-16 -5.82353e-05 -1.40297e-16 0)
(0.000571453 9.72428e-05 3.02492e-16 -0.000247487 -3.63804e-16 0)
(0.000391341 -0.000136412 -6.09972e-16 -0.000217044 -4.10506e-16 0)
(0.000446804 -1.93222e-05 1.75858e-16 -0.000190296 8.66169e-16 0)
(0.000530345 9.85369e-05 -3.29272e-16 -0.000241707 -3.40765e-16 0)
(0.000244232 -0.000101422 -3.96601e-16 -8.3168e-05 -2.5433e-16 0)
(0.000503972 -8.25116e-05 -2.37549e-15 -0.000283478 1.45438e-15 0)
(0.000459961 -0.000101458 -1.93985e-15 -0.000244123 9.7093e-16 0)
(0.000529761 -5.06709e-05 -8.99888e-16 -0.000268764 1.56423e-15 0)
(0.00058969 2.48784e-05 -1.21669e-15 -0.000258326 -1.12047e-15 0)
(0.000646445 -8.90916e-05 -1.17528e-15 -0.000287634 1.43494e-15 0)
(0.000283988 -4.22895e-05 3.88144e-17 -7.49121e-05 1.00499e-16 0)
(0.000248851 -2.69728e-05 -4.33247e-16 -6.4836e-05 3.28564e-18 0)
(0.000320238 -3.31584e-05 -1.99927e-16 -8.71133e-05 -1.23104e-16 0)
(0.000324593 -3.77444e-05 -2.32453e-16 -0.000100444 2.61767e-17 0)
(0.000409636 4.60721e-05 -6.02376e-16 -0.000169802 9.03466e-16 0)
(0.000292216 6.36345e-06 -6.62712e-16 -0.000131799 -3.25586e-16 0)
(0.000396508 -0.0001335 1.55843e-15 -0.000188408 1.50962e-16 0)
(0.000425131 -3.4016e-05 5.9024e-16 -0.000175682 7.59185e-16 0)
(0.000309451 -9.04591e-05 6.22549e-16 -0.000105331 -2.05334e-16 0)
(0.000546707 -7.00311e-06 -9.06501e-16 -0.000275056 6.18863e-16 0)
(0.000563521 3.39293e-06 -3.13877e-16 -0.000267859 7.26253e-16 0)
(0.000602139 8.25075e-05 1.38127e-16 -0.000281999 3.07843e-15 0)
(0.000284273 -0.000174484 2.60751e-16 -0.000124435 1.0133e-15 0)
(0.000598472 5.90945e-05 2.87357e-15 -0.000196207 6.05852e-16 0)
(0.000229353 -0.000110396 1.12974e-16 -7.71057e-05 -1.50907e-17 0)
(0.00033428 -3.70538e-05 -5.55112e-17 -0.00011484 7.89028e-17 0)
(0.000236999 -0.000182643 2.23996e-16 -0.000194241 1.5065e-16 0)
(0.000425542 -9.3156e-05 2.88181e-16 -0.000177975 2.6647e-16 0)
(0.000139186 -3.37022e-05 5.0784e-16 -4.607e-05 4.52536e-17 0)
(0.000363659 -9.78867e-05 -8.29632e-16 -0.000138426 -6.17399e-16 0)
(0.000669979 3.93501e-05 1.83816e-15 -0.000312969 1.9881e-15 0)
(0.000339952 -0.000121045 -2.73436e-16 -0.000135929 -5.50734e-16 0)
(0.000606246 7.95493e-05 3.76782e-15 -0.000274062 1.58012e-15 0)
(0.000320323 -1.28105e-05 -2.09468e-16 -8.78959e-05 2.04996e-16 0)
(0.000354871 -8.01535e-05 6.56376e-16 -0.000133259 -4.68037e-16 0)
(0.00034657 -8.81946e-05 5.89589e-16 -0.000126629 -5.30636e-16 0)
(0.000367985 -0.000123915 6.71663e-16 -0.000159997 -9.76866e-17 0)
(0.000590335 4.654e-05 9.71906e-16 -0.000186203 6.84023e-16 0)
(0.000427805 -0.000120815 -5.9024e-16 -0.000210921 5.52564e-16 0)
(0.000677211 9.66541e-05 3.89391e-15 -0.000243068 1.13863e-15 0)
(0.000402281 -5.54541e-05 -6.73506e-16 -0.000163324 2.32643e-16 0)
(0.000219899 -0.000136468 2.81893e-17 -0.000200952 1.27489e-16 0)
(0.000521392 -4.42488e-05 -8.25512e-16 -0.00025969 5.13803e-16 0)
(0.000327398 -1.55835e-05 -2.6628e-16 -0.000103047 -9.87437e-17 0)
(0.000578719 9.07984e-05 -3.74592e-16 -0.00028464 1.11521e-15 0)
(0.00042061 -0.00024706 2.2031e-16 -0.000106596 -1.57692e-15 0)
(0.000562712 0.000118918 2.15897e-15 -0.000235406 -2.5211e-15 0)
(0.000600552 3.53455e-05 6.05961e-16 -0.000307446 1.57573e-15 0)
(0.000620147 0.000103757 2.6911e-15 -0.000281034 7.42028e-16 0)
(0.000574051 3.48066e-05 2.05608e-15 -0.000263613 2.58962e-16 0)
(0.000338697 -0.000125123 -7.42462e-16 -0.000135656 -2.61875e-16 0)
(0.00034147 -9.30915e-05 -1.0842e-16 -0.000128431 -7.05368e-16 0)
(0.000566755 -3.73376e-06 5.89914e-16 -0.000252475 8.70723e-16 0)
(0.000579553 1.04444e-05 -2.79507e-16 -0.000247802 2.48011e-16 0)
(0.00027127 -0.000132456 -6.51172e-16 -0.000110148 -3.89791e-16 0)
(0.000329683 -0.000102671 -9.97466e-17 -0.000119661 -4.08582e-16 0)
(0.000300925 -0.000146005 5.5728e-17 -0.000147286 -3.82723e-17 0)
(0.000375537 -3.12877e-05 -1.16378e-15 -0.000157053 -2.14509e-16 0)
(0.000318182 -4.84656e-05 -3.27429e-17 -9.49208e-05 -1.72246e-16 0)
(0.000480096 -8.02214e-05 -1.92337e-16 -0.000240133 7.11128e-16 0)
(0.000664737 4.7925e-05 2.34995e-15 -0.000295672 -1.6855e-15 0)
(0.000310966 -2.99016e-05 -4.81603e-16 -8.15303e-05 1.70559e-17 0)
(0.000313568 -2.03009e-05 -5.33211e-16 -7.06689e-05 2.1413e-16 0)
(0.000345873 -2.14783e-05 4.59702e-16 -0.000142056 4.05221e-17 0)
(0.000347413 -2.79603e-05 5.37764e-17 -0.000127406 2.12802e-16 0)
(0.000286747 -0.000126119 2.32236e-16 -0.000113891 4.13149e-17 0)
(0.000132896 -1.68823e-05 -5.3256e-16 -0.000245297 -1.77907e-15 0)
(0.000722534 -1.2973e-05 5.09629e-16 -0.000262264 5.37764e-16 0)
(0.000553139 0.000100739 -1.64801e-15 -0.000245204 -1.81929e-15 0)
(0.000740775 -1.7266e-06 5.57405e-15 -0.000275238 -9.85106e-16 0)
(0.000318931 -1.29792e-05 -3.56269e-16 -8.00518e-05 5.59076e-16 0)
(0.000357344 -9.46112e-06 1.28651e-15 -0.000149996 -2.70779e-17 0)
(0.000300543 -0.00016157 2.60859e-16 -0.000200405 2.17505e-16 0)
(0.000384764 -0.000110915 2.60209e-18 -0.000158818 -1.60828e-16 0)
(0.000298743 -9.92273e-06 4.22405e-16 -6.96928e-05 -3.53247e-17 0)
(0.000559841 -1.59779e-05 1.679e-15 -0.000239851 -1.55583e-15 0)
(0.000292627 -0.000118071 -7.78457e-17 -0.000109563 -4.22337e-16 0)
(0.000193969 -2.16253e-05 4.20887e-16 -4.674e-05 2.4918e-17 0)
(0.000321642 -0.000135444 2.35922e-16 -0.000133435 -4.00633e-16 0)
(0.000313173 -3.38381e-05 -1.86049e-16 -7.96343e-05 -1.3891e-16 0)
(0.000283806 -2.56253e-05 -3.41741e-16 -7.40685e-05 1.43267e-17 0)
(0.000307089 -7.99527e-06 3.38054e-16 -5.51373e-05 2.57667e-17 0)
(0.00034383 -7.37742e-06 -2.09685e-16 -0.000139297 -5.82379e-16 0)
(0.000407397 -0.000118432 9.94213e-16 -0.000181668 2.52565e-16 0)
(0.000414884 -0.000104644 1.67336e-15 -0.000179399 1.64595e-16 0)
(0.000320948 -4.96501e-05 -1.47451e-17 -0.000100107 3.1984e-18 0)
(0.00058127 -2.7741e-05 6.18505e-15 -0.000247489 -1.42811e-15 0)
(0.000301363 -4.15044e-05 4.996e-16 -8.41145e-05 -2.28428e-16 0)
(0.000246033 -0.000129282 2.76472e-16 -0.000100691 -2.62248e-16 0)
(0.000242623 -0.000144834 9.17452e-16 -0.000113101 7.40307e-17 0)
(0.000315939 -0.000111091 -1.26418e-16 -0.000115671 -1.18381e-16 0)
(0.000314474 -5.48642e-05 9.84022e-16 -9.40108e-05 1.23545e-16 0)
(0.000332015 -1.30753e-05 -2.70834e-16 -0.000108281 -1.02254e-16 0)
(0.000385449 -3.10097e-05 -4.41704e-16 -0.000163485 -6.38053e-17 0)
(0.000354343 -0.0001111 -1.70176e-15 -0.000140053 -2.00347e-16 0)
(0.000505285 -0.000170078 6.38703e-16 -0.000222406 1.05184e-15 0)
(0.000568356 6.08747e-05 -1.39775e-15 -0.000251038 -6.58544e-16 0)
(0.000349808 -6.9824e-06 5.96311e-16 -0.00014886 2.93792e-16 0)
(0.000356631 -1.22739e-05 1.19219e-15 -0.000146758 -3.12386e-16 0)
(0.000600153 -1.72257e-05 9.23523e-16 -0.00032837 -7.02075e-16 0)
(0.000331725 -5.27712e-05 -7.82794e-17 -0.000105719 3.73603e-16 0)
(0.000328836 -8.28505e-05 3.53233e-16 -0.000117969 -3.21249e-16 0)
(0.00033752 -7.61102e-05 -2.47415e-16 -0.000115469 -1.61424e-16 0)
(0.000210205 -6.65305e-05 3.31983e-16 -6.14964e-05 -5.60024e-17 0)
(0.000310134 -1.04006e-05 -2.12937e-16 -6.57111e-05 3.01715e-16 0)
(0.000564778 7.40354e-06 -7.86589e-16 -0.000305708 4.67996e-16 0)
(0.000315418 -7.11448e-05 7.47449e-16 -0.000102206 2.37149e-16 0)
(0.000570649 5.3976e-05 -1.86168e-15 -0.000296754 1.38903e-15 0)
(0.000261388 -4.17341e-05 -2.56089e-16 -6.57963e-05 -3.0256e-17 0)
(0.00030041 -1.47806e-05 -8.76686e-16 -6.59149e-05 1.85932e-16 0)
(0.000301448 -0.00015815 3.82723e-16 -0.000192394 1.29223e-16 0)
(0.000316325 -2.80631e-05 -2.41343e-16 -9.11998e-05 1.01976e-16 0)
(0.000702764 -0.000252733 -8.64836e-15 -0.000280119 -1.21756e-15 0)
(0.000439539 -9.97978e-05 1.11868e-15 -0.000193692 5.64165e-16 0)
(0.000151539 8.22708e-05 -6.79578e-16 -0.000403056 -1.22809e-15 0)
(0.000285381 -9.48733e-05 2.02095e-16 -9.64675e-05 8.89249e-17 0)
(0.000307644 -9.08618e-05 6.25801e-16 -9.62665e-05 -1.91389e-16 0)
(0.000364295 -8.68243e-05 4.159e-16 -0.000145174 -1.37639e-16 0)
(0.000820765 -0.000137376 -1.8123e-15 -0.000302929 -5.39391e-16 0)
(0.000541926 -2.80512e-05 -6.58761e-16 -0.000250385 5.5007e-16 0)
(0.000386934 4.78249e-05 6.99121e-16 -0.00016136 -1.28001e-15 0)
(0.000616296 -2.00214e-05 -8.34185e-16 -0.000274569 7.04081e-16 0)
(0.000530998 -7.14262e-06 -5.55125e-16 -0.000192508 6.9454e-16 0)
(0.000410642 -0.000139736 -2.79724e-17 -0.000264275 2.40828e-16 0)
(0.000358057 -0.0001805 3.62449e-16 -0.000247798 1.2284e-16 0)
(0.000568973 -5.09268e-06 3.2873e-15 -0.000247557 2.04697e-16 0)
(0.000362297 -0.000133856 1.86483e-17 -0.000159225 -4.03079e-16 0)
(0.000424775 -0.000140204 -1.60137e-15 -0.000257316 -5.66794e-16 0)
(0.000416377 -0.000134423 -3.39355e-17 -0.000238261 -4.88962e-16 0)
(0.000341662 -6.23025e-05 -7.22946e-16 -0.000123879 3.17996e-16 0)
(0.000348424 -5.65955e-05 -4.64906e-16 -0.000129972 3.34802e-16 0)
(0.000351578 -7.51134e-05 3.76218e-16 -0.000133453 1.15725e-16 0)
(0.000341917 -7.09247e-05 -3.58654e-16 -0.000123657 2.44135e-16 0)
(0.000314747 -8.66106e-05 6.99094e-16 -0.000107922 -1.5706e-16 0)
(0.000273778 -2.54264e-05 -5.71591e-16 -6.48344e-05 1.23604e-16 0)
(0.000106047 -4.44825e-05 1.35742e-16 -0.000105635 4.98767e-17 0)
(0.000532734 -4.94015e-05 7.45606e-16 -0.000305029 -1.15224e-15 0)
(0.000344661 -0.00016162 -1.79544e-16 -0.000206543 -5.33238e-16 0)
(0.000390988 -0.000139808 -1.08203e-16 -0.000200315 -4.32949e-16 0)
(0.000531409 7.80756e-05 7.88215e-17 -0.000255929 1.56179e-16 0)
(0.000354846 -0.000111028 -1.91362e-15 -0.000140045 1.74407e-16 0)
(0.000411841 -0.00010248 -2.83627e-16 -0.000179898 9.69277e-17 0)
(0.000433634 -7.61935e-05 4.59702e-16 -0.000178436 -6.96058e-17 0)
(0.000532095 -3.58559e-05 -1.81734e-15 -0.000231356 8.23045e-16 0)
(0.000363793 -4.78184e-05 -7.00828e-16 -0.000139352 2.12341e-16 0)
(6.93808e-05 -3.45666e-05 1.47885e-16 -7.255e-05 -2.93243e-18 0)
(0.00048024 5.17201e-05 2.14856e-15 -0.000205141 -1.06946e-15 0)
(0.00030021 -4.4957e-05 -3.10299e-16 -8.32617e-05 1.57026e-16 0)
(0.00035757 -3.17466e-05 3.56919e-16 -0.000137581 2.36654e-16 0)
(0.000283688 -0.000102219 3.12901e-16 -9.26809e-05 -4.80742e-17 0)
(0.000400014 -9.94501e-05 -7.40293e-16 -0.000159905 1.21024e-17 0)
(0.000376193 -0.000104511 -1.56819e-15 -0.000157784 -6.00512e-17 0)
(0.000147487 -9.20769e-05 1.52439e-16 -6.71917e-05 -1.68878e-16 0)
(0.000264349 -4.26268e-05 -9.47593e-17 -7.44224e-05 1.39422e-17 0)
(0.00040053 -3.39925e-05 4.40403e-16 -0.000175478 6.54262e-16 0)
(0.000370969 -6.73477e-05 -3.12033e-16 -0.000147041 -6.9145e-17 0)
(0.000378053 -5.27999e-05 -6.92805e-16 -0.000154133 -2.92775e-16 0)
(0.00135258 -0.000154403 -1.1666e-15 -0.000442734 -7.44825e-15 0)
(0.000173947 -2.77745e-05 4.48643e-16 -4.76646e-05 1.85407e-16 0)
(0.000120218 -2.7584e-05 3.72532e-16 -4.75991e-05 3.8601e-17 0)
(0.000950206 2.06185e-05 7.59565e-16 -0.000342335 2.05912e-15 0)
(0.000415527 -0.000161897 -8.47738e-16 -0.000282074 2.09143e-16 0)
(0.000419883 -8.20188e-05 4.14382e-16 -0.000179315 -2.36979e-16 0)
(0.000436987 -5.17776e-05 3.06612e-16 -0.000190525 5.76145e-16 0)
(0.000239383 -4.41951e-05 -2.41343e-16 -5.67972e-05 1.95327e-16 0)
(0.000245609 -4.37819e-05 6.76542e-17 -6.52412e-05 -2.21804e-16 0)
(0.000480799 -0.000123257 1.74014e-16 -0.000295495 1.86645e-16 0)
(0.000167139 5.98453e-05 -1.21886e-15 -0.000512776 -1.72476e-15 0)
(0.000321811 -4.54411e-05 -2.4156e-16 -9.24014e-05 -8.14913e-17 0)
(0.000387786 -6.85301e-05 -1.35916e-15 -0.000166843 4.03513e-16 0)
(9.75384e-05 -4.04991e-05 -2.06432e-16 -0.000272004 -5.12557e-17 0)
(0.000279799 -5.29996e-05 4.03974e-16 -7.93161e-05 -3.93227e-17 0)
(0.000532004 -5.51243e-05 -1.22222e-15 -0.000243858 -2.22451e-16 0)
(0.000493971 -5.7496e-05 1.14654e-15 -0.000215942 -8.86877e-16 0)
(0.000324037 -6.78246e-05 4.02239e-16 -0.000102884 3.78644e-16 0)
(0.000255159 -8.90818e-05 7.80192e-16 -8.33927e-05 5.43558e-17 0)
(0.000299335 -6.41294e-05 9.12898e-17 -9.00291e-05 9.41562e-17 0)
(0.000475391 -0.000105175 -1.40025e-15 -0.000279391 -6.73832e-16 0)
(0.00014385 -6.38632e-05 3.67545e-16 -0.000263814 -3.25877e-16 0)
(0.000197771 -0.000104617 1.56776e-16 -7.80087e-05 -1.59937e-16 0)
(0.000362349 -4.36683e-05 -1.14166e-15 -0.000151162 1.94614e-17 0)
(0.000292922 -4.84103e-05 -1.25984e-16 -8.03118e-05 8.0746e-17 0)
(0.000485592 -0.000109829 -2.29211e-15 -0.00029825 -1.19604e-15 0)
(0.000361626 -2.59902e-05 -1.16465e-15 -0.000155958 1.16443e-16 0)
(0.000492379 -8.46251e-05 7.71952e-16 -0.000249153 -6.83617e-16 0)
(8.52302e-05 -9.41758e-05 -2.36356e-17 -0.000113828 8.91485e-17 0)
(0.000601629 8.619e-05 1.23965e-15 -0.000220989 -1.28695e-16 0)
(0.000545993 4.08521e-05 -2.52728e-15 -0.000238069 -1.08236e-15 0)
(0.000485887 -8.77562e-05 -1.13548e-15 -0.000248262 8.5099e-16 0)
(0.000166183 -0.000137665 -1.69136e-17 -0.000173876 -3.07981e-17 0)
(0.00030586 -8.8996e-06 4.56232e-16 -5.7693e-05 -1.81187e-16 0)
(0.000346713 -4.11404e-06 6.62231e-16 -0.000143077 -8.62483e-17 0)
(0.000437906 -5.48978e-05 7.40944e-16 -0.000182569 -8.42425e-17 0)
(0.000332469 -0.000103148 -6.61363e-16 -0.000119581 -2.1001e-16 0)
(0.000285284 -0.000135745 -3.85109e-16 -0.000145827 8.21337e-16 0)
(0.000339073 -2.07743e-05 1.30321e-16 -0.000133075 -4.07931e-17 0)
(0.000338969 -1.07162e-05 -3.06396e-16 -0.000126637 -2.41764e-16 0)
(0.00031467 -1.18818e-05 1.46584e-16 -7.55056e-05 2.58135e-16 0)
(0.00031622 -1.97154e-05 -2.73219e-17 -7.12125e-05 4.43642e-17 0)
(0.000308608 -2.03031e-05 4.55365e-16 -6.81976e-05 -2.74032e-17 0)
(0.000348577 -1.72576e-05 3.85759e-16 -0.000136652 -4.23218e-16 0)
(0.000730598 3.90303e-05 3.41249e-15 -0.000244051 2.81535e-15 0)
(0.000646873 -2.16972e-05 1.06496e-15 -0.000186649 2.14097e-15 0)
(0.000496669 5.94693e-05 -2.05998e-17 -0.000153868 -2.55221e-16 0)
(0.000498708 4.12802e-05 -1.13066e-15 -0.000170292 1.52558e-15 0)
(0.00033737 -3.31344e-05 -8.43509e-17 -0.00012171 8.50286e-17 0)
(0.000228291 -1.39905e-05 3.03577e-17 -5.60062e-05 1.30025e-16 0)
(0.000360544 -6.45952e-05 -3.0336e-16 -0.000139681 3.25762e-16 0)
(0.000353892 -5.6635e-05 -6.90637e-16 -0.000137584 4.31038e-16 0)
(0.000410159 -5.59545e-05 -3.20924e-16 -0.000174443 4.21185e-16 0)
(0.000301471 -2.38386e-06 2.59992e-16 -4.1018e-05 -3.41175e-16 0)
(0.000349259 -2.09315e-06 1.31666e-15 -0.000149353 -5.73543e-16 0)
(0.00046797 -8.30432e-05 1.52461e-15 -0.00020168 1.97081e-16 0)
(0.000205136 -4.84168e-05 -3.19406e-16 -5.73119e-05 2.82485e-16 0)
(0.000250835 -6.9891e-05 9.56266e-17 -7.19564e-05 -4.32664e-18 0)
(0.000307195 -9.79936e-06 6.17562e-16 -6.18729e-05 -1.69308e-16 0)
(0.000345419 -7.96593e-06 6.0672e-16 -0.000141826 -5.78259e-16 0)
(0.000169492 -2.48905e-05 3.75784e-16 -4.94199e-05 1.13903e-16 0)
(0.000371218 -0.000115915 -1.17506e-15 -0.000158327 -1.86767e-16 0)
(0.000599425 8.50014e-05 4.15423e-15 -0.000230355 -1.92771e-16 0)
(0.000103689 -3.25589e-05 2.97939e-16 -4.89089e-05 -4.33427e-18 0)
(0.000138339 -4.44257e-05 -2.99023e-16 -0.000183988 1.62359e-16 0)
(0.000224669 -7.74403e-05 9.91178e-16 -7.03605e-05 -7.13947e-17 0)
(0.000304807 -8.67456e-06 3.71665e-16 -5.77046e-05 9.39427e-17 0)
(0.00035096 -8.53146e-06 4.47559e-16 -0.000146789 -2.05348e-16 0)
(0.000280045 -1.00961e-05 -8.45244e-16 -7.14224e-05 8.64871e-17 0)
(0.000261464 -7.43518e-05 1.01872e-15 -7.09292e-05 -8.40562e-17 0)
(0.0004569 -2.18782e-05 -4.19803e-16 -0.000195694 9.85431e-16 0)
(0.000391509 -1.27289e-05 6.9107e-16 -0.000167883 2.70725e-16 0)
(0.000224379 -0.000157927 -4.87891e-16 -0.000187936 7.43763e-17 0)
(0.000623472 1.18093e-05 -1.98409e-16 -0.000271446 5.10334e-16 0)
(0.000333633 -0.000133956 3.02492e-16 -0.000239064 4.50296e-16 0)
(0.000415275 2.03966e-06 -1.90235e-15 -0.000160848 3.82073e-16 0)
(0.00051676 -7.61556e-05 1.41803e-15 -0.00028509 5.24483e-16 0)
(0.000551667 -9.42229e-05 1.65297e-15 -0.000287892 3.21358e-16 0)
(0.000400778 -8.01237e-05 -2.14455e-16 -0.00016387 -1.30321e-16 0)
(0.000536802 -2.26884e-05 7.00611e-16 -0.00025315 4.35334e-16 0)
(0.0003319 -5.20999e-05 -3.90313e-16 -0.000117133 2.11067e-16 0)
(0.000352943 -0.000103443 -1.88174e-15 -0.00014128 -1.42993e-16 0)
(0.000448034 -9.01813e-05 2.90566e-16 -0.000201687 -4.64581e-17 0)
(0.00029736 -0.000118904 -2.4568e-16 -0.000109552 -4.04184e-16 0)
(0.00044444 -0.000109424 5.45787e-16 -0.000204764 2.66199e-16 0)
(0.000295252 -2.35998e-05 -1.21647e-16 -7.53018e-05 -2.55228e-16 0)
(0.000312256 -1.62757e-05 -5.11743e-17 -7.23502e-05 -1.62708e-16 0)
(0.000474312 -4.54906e-05 -2.31629e-15 -0.000195688 4.37503e-16 0)
(0.000466888 8.14538e-05 6.18375e-16 -0.000212248 -2.92518e-16 0)
(0.000306771 -6.09959e-05 5.87638e-16 -9.06461e-05 2.83715e-16 0)
(0.000199314 -0.000122909 -3.01408e-17 -0.000109791 -8.68209e-17 0)
(0.000298341 -0.000123497 9.86624e-17 -0.000231915 7.53792e-16 0)
(0.00033364 -0.000134139 5.05021e-16 -0.000258279 4.54498e-16 0)
(0.000148303 -0.000120821 8.19657e-17 -8.74744e-05 -2.42007e-16 0)
(0.000521886 -3.04765e-05 -2.79724e-16 -0.000227796 -2.0061e-15 0)
(0.00049365 -7.73399e-05 -4.20996e-16 -0.000222485 2.24972e-17 0)
(0.000304518 -7.72353e-05 6.47269e-16 -9.6615e-05 5.53079e-17 0)
(0.000311346 -5.59792e-05 5.00251e-16 -9.27363e-05 4.59431e-17 0)
(0.000369332 -1.17667e-05 2.17274e-16 -0.000159775 -2.2771e-16 0)
(0.000471778 -8.59354e-05 2.35055e-16 -0.000221858 -5.78747e-16 0)
(0.000294551 -1.05308e-05 -8.79288e-16 -7.11701e-05 -1.38473e-16 0)
(0.000336981 -4.67675e-05 -2.68882e-17 -0.000111799 -8.12881e-17 0)
(0.000216009 -8.53881e-05 8.97719e-17 -0.000150313 4.07335e-16 0)
(0.000338832 -2.53232e-05 8.06646e-17 -0.00011405 8.01225e-17 0)
(0.000334412 -1.37523e-05 8.76035e-17 -0.000122518 9.9069e-17 0)
(0.000606432 0.000107684 2.32645e-15 -0.000245683 -1.84856e-15 0)
(0.00034451 -0.000162979 -4.2002e-16 -0.000193293 -2.41072e-16 0)
(0.000343815 -4.76924e-05 -9.36751e-17 -0.000125577 1.94709e-16 0)
(0.000336298 -5.96357e-05 -6.68085e-16 -0.000112664 2.79819e-16 0)
(0.00020931 -0.00016616 -1.96674e-16 -0.000150015 1.31798e-17 0)
(0.00025853 -0.000164667 -4.49944e-17 -0.000152902 2.25013e-16 0)
(0.000599987 4.04066e-05 -8.4828e-16 -0.000297222 1.37797e-15 0)
(0.000551705 -4.57672e-05 1.37238e-15 -0.000330608 -5.07461e-16 0)
(0.00116772 -0.000337192 -7.99632e-15 -0.000352468 -9.11782e-15 0)
(0.000327063 -8.3878e-05 3.11166e-16 -0.000108474 -1.01319e-16 0)
(0.000333752 -0.000170841 1.0159e-15 -0.000258796 5.79777e-16 0)
(0.000572563 2.6924e-05 -4.79109e-16 -0.000275182 1.11315e-15 0)
(0.00033375 -0.000170898 8.64109e-16 -0.000239451 5.86662e-16 0)
(0.000144738 -0.00011635 -9.71445e-17 -0.000113852 9.98821e-17 0)
(0.000525609 -3.59148e-05 -4.32922e-16 -0.000227968 -3.66081e-16 0)
(0.000287991 -8.59206e-05 2.01228e-16 -8.3199e-05 1.22549e-16 0)
(0.000516123 -2.46258e-05 -3.9298e-15 -0.000220935 1.35517e-15 0)
(0.00027061 -7.76207e-05 3.2808e-16 -8.21288e-05 -1.46787e-16 0)
(0.000308954 -7.94816e-05 7.76072e-16 -9.54982e-05 -2.03322e-16 0)
(0.000303466 -4.32271e-05 -1.46584e-16 -8.3076e-05 -4.75423e-17 0)
(0.00049948 -6.67345e-05 1.45218e-15 -0.000222088 -2.09655e-15 0)
(0.000267293 -9.78439e-06 -4.98299e-16 -6.94155e-05 -1.28656e-17 0)
(0.000407209 -1.46437e-05 4.24357e-16 -0.000173828 9.59817e-16 0)
(0.000342737 -0.000168994 -9.54098e-18 -0.000207046 -1.28288e-16 0)
(0.00027392 -0.000145572 7.37257e-18 -0.000147922 1.66588e-16 0)
(0.000191413 -0.000154994 -1.95373e-16 -0.000200352 -3.67517e-16 0)
(0.000265239 -0.000102369 8.30499e-17 -9.26632e-05 -4.83127e-16 0)
(0.000105815 -8.41577e-05 1.22732e-16 -0.0001688 -3.46674e-16 0)
(0.000383297 -0.000139958 2.53703e-17 -0.000194891 5.5194e-16 0)
(0.000413879 -0.000115539 7.26849e-16 -0.000189176 5.52753e-16 0)
(0.000171603 -0.000125755 -1.79761e-16 -0.000147936 -2.69831e-17 0)
(0.000356742 -0.00014135 -2.30501e-16 -0.000162004 -4.83012e-17 0)
(0.000222372 -2.00918e-05 -1.05168e-16 -4.86827e-05 3.01741e-16 0)
(0.000297916 -6.6431e-05 5.71375e-16 -8.80189e-05 2.37847e-18 0)
(0.000540198 4.07192e-05 -2.82814e-15 -0.000236761 -8.77228e-16 0)
(0.000350212 -3.88245e-05 -1.09504e-16 -0.000142805 4.20426e-16 0)
(0.000270956 -6.18784e-05 1.72171e-16 -7.70978e-05 -2.94381e-16 0)
(0.000746558 2.40004e-05 1.42627e-16 -0.000248702 1.55052e-15 0)
(0.00055901 -2.50678e-05 -3.09236e-15 -0.000237745 -5.17544e-16 0)
(0.00011655 -7.63117e-05 1.97975e-16 -0.000159747 -1.50548e-16 0)
(0.00032428 -7.1675e-05 -5.24754e-16 -0.000112747 2.77732e-16 0)
(0.000500117 -2.25222e-05 -4.05448e-15 -0.000205222 5.26407e-16 0)
(0.000550229 5.09332e-05 1.04626e-16 -0.000226404 1.63715e-16 0)
(0.000313224 -7.67043e-05 3.26779e-16 -0.000100407 4.84096e-17 0)
(0.000306539 -2.09469e-06 -1.47018e-16 -4.73081e-05 -2.8688e-16 0)
(0.000346314 -1.24177e-06 3.97685e-16 -0.000149366 -4.90601e-17 0)
(0.000217883 -1.54525e-05 1.77375e-16 -5.30328e-05 2.71862e-16 0)
(0.000292833 -0.000147027 6.26669e-17 -0.000131603 1.66425e-16 0)
(0.000459407 -7.17935e-05 1.20303e-15 -0.00019317 -1.28749e-17 0)
(0.000484122 -1.92967e-05 -9.25909e-16 -0.000207895 9.02192e-16 0)
(0.000469982 5.2413e-05 1.88597e-15 -0.00020201 -1.03465e-15 0)
(4.78136e-05 -2.0357e-05 2.23129e-16 -0.000113641 -1.65903e-16 0)
(0.000448557 9.65318e-05 8.79559e-16 -0.000171053 -1.58294e-15 0)
(0.00034245 -0.000114688 -1.74817e-15 -0.000132187 -6.27482e-17 0)
(0.0003056 -7.52933e-07 -4.2414e-16 -5.47603e-05 2.28707e-17 0)
(0.000103162 -2.00744e-05 1.22081e-16 -6.93162e-05 -7.3641e-18 0)
(0.000304963 -9.54783e-06 -1.77159e-16 -6.06384e-05 1.24141e-16 0)
(0.000311166 -1.17328e-05 -1.68051e-16 -6.76193e-05 6.06781e-16 0)
(0.000339471 -1.13779e-05 -2.46331e-16 -0.00012577 -1.15359e-16 0)
(0.000395253 -9.67928e-05 -5.48606e-16 -0.000156149 -4.6187e-17 0)
(0.000782251 -0.000375289 -5.70681e-15 -0.000185453 -3.34097e-15 0)
(0.000349038 -9.88053e-07 1.92554e-16 -0.000150349 -9.21572e-18 0)
(0.000271552 -6.37544e-05 -4.77049e-18 -7.50867e-05 -1.37294e-16 0)
(0.00049381 5.20516e-05 3.00769e-15 -0.000226426 9.04225e-17 0)
(7.61508e-05 -6.81115e-05 7.30752e-17 -7.40783e-05 3.01137e-17 0)
(0.000349321 -5.3745e-06 1.99493e-16 -0.000144406 2.9886e-16 0)
(0.00026371 -9.93603e-05 7.06466e-16 -8.33146e-05 -3.19426e-16 0)
(0.000314506 -0.000134329 -5.05455e-16 -0.000133234 -2.14537e-16 0)
(0.000415768 3.85437e-05 -3.59562e-16 -0.000168819 -1.37173e-15 0)
(0.000303056 -3.13925e-05 -1.2425e-16 -7.90897e-05 -6.29989e-17 0)
(0.000136374 -3.37449e-05 8.45678e-17 -0.000202207 9.32685e-17 0)
(0.000167857 3.12163e-05 -4.55365e-18 -0.000275026 3.44316e-16 0)
(8.2668e-05 -3.76232e-05 2.09251e-16 -0.000160432 -1.9577e-16 0)
(0.000343246 -3.41245e-05 3.37187e-16 -0.000134683 4.69527e-16 0)
(0.000917891 -7.33977e-05 1.02706e-15 -0.000296781 5.62679e-15 0)
(0.000166964 -4.831e-05 -2.51318e-16 -0.000240849 -2.94334e-16 0)
(0.000378892 -0.000134125 -3.23526e-16 -0.000182561 -1.08014e-16 0)
(0.000647849 3.15675e-05 3.47004e-15 -0.000259246 -1.13527e-15 0)
(0.000292449 2.6133e-05 -3.98851e-16 -0.000116298 -1.5825e-15 0)
(0.000316328 -3.21779e-05 -9.42172e-16 -8.13115e-05 -7.24383e-18 0)
(0.000323161 -6.18315e-05 6.78927e-16 -0.000105853 4.73403e-16 0)
(0.000897049 -0.00012455 -3.18661e-15 -0.00042177 -4.2015e-15 0)
(0.000510581 0.000113172 -6.55509e-16 -0.000206815 -1.79197e-15 0)
(0.000510035 7.84351e-05 9.15663e-16 -0.000212592 -2.0898e-15 0)
(0.000462471 -2.58679e-05 -3.20815e-15 -0.000203858 6.30491e-16 0)
(0.000285659 -6.97261e-05 4.2002e-16 -8.59767e-05 -1.91721e-16 0)
(0.000658368 -1.66578e-05 7.59375e-16 -0.000342798 -3.18539e-16 0)
(0.000281996 -9.06073e-06 -9.08778e-16 -7.1217e-05 -8.84319e-17 0)
(0.000385802 -1.28791e-05 -5.72459e-17 -0.000163811 -1.06225e-16 0)
(0.000683276 9.02119e-05 4.69514e-15 -0.00027609 9.07477e-17 0)
(0.000351286 -4.24938e-05 2.82543e-16 -0.000130568 5.21244e-16 0)
(0.000283625 -5.56875e-05 4.43222e-16 -7.74426e-05 -2.30627e-16 0)
(0.00030459 -6.44229e-06 1.30104e-16 -6.52457e-05 1.83772e-16 0)
(0.00034862 -2.52388e-06 8.07297e-16 -0.000146814 5.36436e-16 0)
(0.000569359 -7.16925e-06 -7.82686e-16 -0.00025089 1.15299e-15 0)
(0.000412064 -5.87183e-05 -7.00611e-16 -0.000178126 2.30176e-16 0)
(0.000541066 -4.10334e-05 -1.4267e-15 -0.000243996 1.19246e-15 0)
(0.000895096 -6.69923e-05 9.23415e-16 -0.000267523 4.80995e-15 0)
(0.000375885 -7.1525e-05 7.7412e-17 -0.000151365 5.25025e-17 0)
(0.00013709 -0.000124197 -2.85579e-16 -0.000107368 9.51523e-17 0)
(0.000610481 3.35237e-05 -2.16515e-16 -0.000319582 2.86744e-15 0)
(0.00049442 6.84551e-05 -1.32265e-15 -0.000187764 -2.42428e-16 0)
(0.000570963 1.22254e-05 -6.83373e-16 -0.00030436 9.50412e-16 0)
(0.000373995 -4.85464e-05 -1.00115e-15 -0.000149124 -2.91813e-16 0)
(0.000302216 -4.55915e-06 -2.01662e-16 -4.63578e-05 -1.37905e-16 0)
(0.000296297 -1.25208e-06 -3.11383e-16 -3.38246e-05 -3.50908e-16 0)
(0.000346797 -3.18925e-07 2.29417e-16 -0.000147788 -5.3687e-16 0)
(0.000348366 -1.28387e-07 8.26813e-16 -0.000149739 -4.18177e-16 0)
(0.000260097 -1.07812e-05 -5.53377e-16 -6.49534e-05 -1.11694e-16 0)
(0.000420529 -1.82052e-05 2.31369e-16 -0.000177212 1.2248e-15 0)
(0.000390911 6.05318e-05 -8.6106e-16 -0.000139192 -1.57166e-15 0)
(0.000475472 -0.000291587 -1.93042e-15 -0.000175112 -6.12899e-16 0)
(0.000316558 -3.9588e-05 -4.40186e-16 -9.63461e-05 -2.04745e-16 0)
(0.000216127 -0.000154064 -3.63425e-16 -0.000149835 7.70393e-17 0)
(0.000534493 8.90748e-05 1.82021e-15 -0.000220245 7.28584e-17 0)
(0.000139272 -7.53203e-05 -6.50521e-18 -7.08467e-05 -1.2262e-16 0)
(0.00032986 -0.000145405 -5.82433e-16 -0.000160333 6.64751e-18 0)
(0.00016031 -8.48842e-05 1.79327e-16 -6.70377e-05 -5.64564e-17 0)
(0.000395055 -8.15935e-05 -3.10732e-16 -0.000164246 1.9994e-16 0)
(0.000307996 -4.2007e-05 -7.50485e-16 -8.68904e-05 -5.06797e-17 0)
(0.000389177 -7.34508e-05 -5.65303e-16 -0.000154684 3.26941e-16 0)
(0.000718747 6.90541e-06 3.22327e-15 -0.000225807 6.11382e-15 0)
(0.000524993 0.000106892 1.11049e-16 -0.000198408 -1.58575e-15 0)
(0.000422196 -0.000153983 -6.86517e-16 -0.000281569 -7.01831e-16 0)
(0.000553433 -1.04457e-05 -1.38182e-15 -0.000285807 7.56123e-16 0)
(0.000419548 3.95335e-05 9.76053e-17 -0.000178568 -1.42345e-15 0)
(0.000547788 -6.00125e-06 2.67147e-16 -0.000265496 7.85233e-16 0)
(0.000547644 -6.82763e-05 2.85796e-16 -0.000313198 -1.47552e-15 0)
(0.000440742 -9.73041e-05 1.01308e-15 -0.000201053 -4.44794e-17 0)
(0.000469352 -0.000101296 1.20758e-15 -0.000224577 -8.78963e-16 0)
(5.69001e-05 -5.64467e-05 4.41921e-16 -0.000158875 -2.58745e-16 0)
(9.23873e-05 1.22608e-05 4.23923e-16 -0.000240482 -2.33144e-16 0)
(0.000310194 -6.02508e-06 -2.086e-16 -6.84158e-05 1.5335e-16 0)
(0.000350342 -5.32762e-06 1.23729e-15 -0.000151531 3.41578e-16 0)
(0.000343503 -3.76128e-05 2.2096e-16 -0.00011844 2.17057e-16 0)