/*--------------------------------*- C++ -*----------------------------------*\
| =========                 |                                                 |
| \\      /  F ield         | OpenFOAM: The Open Source CFD Toolbox           |
|  \\    /   O peration     | Version:  v2012                                 |
|   \\  /    A nd           | Website:  www.openfoam.com                      |
|    \\/     M anipulation  |                                                 |
\*---------------------------------------------------------------------------*/
FoamFile
{
    version     2.0;
    format      ascii;
    class       volScalarField;
    location    "2";
    object      epsilonEq;
}
// * * * * * * * * * * * * * * * * * * * * * * * * * * * * * * * * * * * * * //

dimensions      [0 0 0 0 0 0 0];


internalField   nonuniform List<scalar> 
470
(
0.00015042
0.000144838
0.000331505
0.000233932
0.000307765
0.000305632
0.000284903
0.000300799
0.000449323
0.000328899
0.000438163
0.000503107
0.000493616
0.000230405
0.000499085
0.000393043
0.000324354
0.000211743
0.000196051
0.00017434
0.000395832
0.000262796
0.000338232
0.000228537
0.00051896
0.000261483
0.000469252
0.000354377
0.000300548
0.000221526
0.000169988
0.000527967
0.000331241
0.000569794
0.000316188
0.00030713
0.000493389
0.00017746
0.000196741
0.000194159
0.000440255
0.000183969
0.000497819
0.000389312
0.000378295
0.00046999
0.000228753
0.000470289
0.000429122
0.0004728
0.000502728
0.000561892
0.000224004
0.000193733
0.000250632
0.000260194
0.000348048
0.000250685
0.000377647
0.000358862
0.000269978
0.000483076
0.000490026
0.000530123
0.000314821
0.000482847
0.000223899
0.000272795
0.000326604
0.000373887
0.000117974
0.000320066
0.000581626
0.000315672
0.000528216
0.000248533
0.00030569
0.000300641
0.000343804
0.00047121
0.000400848
0.000561875
0.000342171
0.000289672
0.000462151
0.000260149
0.000518714
0.000430105
0.000493041
0.000534819
0.000545748
0.000496203
0.000316952
0.000300333
0.000484465
0.000490455
0.000273442
0.0002937
0.000313067
0.000318056
0.000256037
0.000433461
0.000570665
0.000241645
0.000237313
0.000290842
0.000285607
0.000279341
0.000222398
0.0005891
0.000486331
0.000606777
0.000244187
0.000301155
0.000345789
0.00034723
0.000226294
0.000474222
0.000276098
0.000149484
0.000312134
0.000242939
0.000220125
0.000225554
0.000287271
0.000374205
0.000372137
0.000260387
0.000492293
0.000238897
0.000254371
0.000268352
0.00028811
0.000255017
0.000265349
0.000327413
0.000320992
0.000473256
0.000489828
0.000295705
0.000299269
0.000544048
0.000270508
0.000283968
0.000285661
0.000181566
0.000232096
0.000510012
0.000264455
0.000512851
0.000205563
0.000226125
0.000340534
0.000249078
0.000653477
0.000391989
0.000344353
0.000254105
0.000265242
0.000319226
0.000689822
0.00046877
0.000330018
0.000527311
0.000432765
0.000424562
0.000408833
0.000483481
0.000345157
0.000429428
0.000412878
0.000287556
0.00029302
0.000302039
0.000290264
0.000272589
0.0002096
0.000132569
0.000492914
0.000371783
0.000382946
0.000472434
0.00032125
0.000369728
0.00037397
0.000453927
0.00030501
9.11539e-05
0.000410558
0.000238624
0.000297398
0.00025535
0.000352273
0.00033898
0.000165478
0.000211391
0.000343166
0.000317905
0.000322017
0.0010946
0.00013846
0.000104824
0.000773634
0.000446253
0.000367531
0.000376272
0.000188545
0.000195908
0.000474288
0.000414902
0.000256498
0.00033797
0.00022603
0.000226272
0.000462526
0.000425428
0.000268927
0.000228177
0.00024675
0.000457074
0.000249867
0.000203809
0.000308862
0.000233627
0.000474116
0.000308056
0.000446555
0.000158507
0.000501567
0.00046656
0.000442945
0.000252631
0.000225844
0.000290852
0.00037362
0.00029553
0.000297796
0.000282132
0.000278254
0.000239352
0.000239213
0.000233022
0.000289603
0.000587351
0.000505716
0.000398545
0.000404281
0.000277278
0.000174644
0.000307233
0.000299986
0.000352517
0.000215973
0.000295496
0.000408106
0.000168859
0.00021166
0.000228514
0.000289527
0.000135654
0.000341209
0.000504262
9.75134e-05
0.000193635
0.000199138
0.000225143
0.000295489
0.000214822
0.00021962
0.000387529
0.000331782
0.000300117
0.000530013
0.000366396
0.000343274
0.000477511
0.000504501
0.000347954
0.000466513
0.000275598
0.000317276
0.000397868
0.000279217
0.000403529
0.00022779
0.000236761
0.000401271
0.000412059
0.000250594
0.000229959
0.000338452
0.000376047
0.000195972
0.000445185
0.000432545
0.000257667
0.000252816
0.000313659
0.000420908
0.000224224
0.000275109
0.000234375
0.000273562
0.000273561
0.000521492
0.000366562
0.00028595
0.000278366
0.000283269
0.000306298
0.000529802
0.000517413
0.000997885
0.000279142
0.000395698
0.00050035
0.000386587
0.00020111
0.00044817
0.000245826
0.000437693
0.000231204
0.000260793
0.000240194
0.000433637
0.000205595
0.000344779
0.000375337
0.000298891
0.000288444
0.000244908
0.000187141
0.000376159
0.000380308
0.000234911
0.000347207
0.000168465
0.000245821
0.000462237
0.00029633
0.000222848
0.000598739
0.000473193
0.000182808
0.000274747
0.00041973
0.000464933
0.0002644
0.00022183
0.000293618
0.000166742
0.000302919
0.000395854
0.000410614
0.000402699
9.86061e-05
0.000385945
0.00031232
0.000224228
0.000102863
0.000226515
0.000233667
0.000278202
0.000346688
0.000734516
0.000295832
0.000223072
0.000429499
0.000117085
0.000293189
0.000238582
0.000307463
0.000350244
0.000235724
0.00020053
0.000260686
0.000149193
0.000287271
0.000736109
0.000243219
0.000365165
0.000540723
0.00024505
0.000245404
0.000267761
0.000790913
0.000445962
0.000438288
0.000395375
0.000238643
0.000587832
0.000215945
0.000326172
0.000579714
0.000291916
0.000228724
0.000228064
0.000293857
0.000485394
0.00035607
0.00046636
0.000707323
0.00032417
0.000201456
0.000547028
0.000414514
0.000513316
0.000316194
0.000218638
0.000209723
0.000293153
0.000295104
0.000199011
0.000355131
0.000324954
0.00051427
0.000253589
0.00027709
0.000459813
0.000151
0.000333886
0.000166742
0.000345063
0.000244465
0.000334512
0.000569611
0.000448911
0.00044599
0.000492827
0.000357469
0.000478936
0.000509253
0.000395358
0.000425265
0.000144649
0.000198925
0.000233078
0.000297302
0.000280436
0.000397927
0.000481279
0.000487333
0.000236637
0.00045962
0.000411303
0.000527317
0.00049106
0.000312831
0.000144556
0.000280819
0.000355109
0.000444596
0.00041763
0.000276033
0.000269064
0.000254995
0.000427524
0.000429256
0.00027266
0.000236116
0.000330688
0.000328171
0.000218513
0.00043166
0.000405154
0.000421929
0.000252553
0.000241611
0.000399712
0.000417982
)
;

boundaryField
{
    back
    {
        type            empty;
    }
    front
    {
        type            empty;
    }
    down
    {
        type            calculated;
        value           nonuniform List<scalar> 
15
(
0.000183969
0.000117974
0.000226294
0.000149484
9.11539e-05
0.00022603
0.000135654
9.75134e-05
0.000214822
0.000224224
0.000166742
0.000149193
0.000228064
0.000218638
0.000199011
)
;
    }
    right
    {
        type            calculated;
        value           nonuniform List<scalar> 10(0.000248533 0.000225554 0.000287271 0.000265349 0.000215973 0.000295496 0.000233667 0.000278202 0.000209723 0.000295104);
    }
    up
    {
        type            calculated;
        value           nonuniform List<scalar> 
20
(
0.000527967
0.000378295
0.000502728
0.000250685
0.000301155
0.000492293
0.000330018
0.000527311
0.000331782
0.000530013
0.000313659
0.000437693
0.000462237
0.000473193
0.000410614
0.000402699
0.00024505
0.000293857
0.000293153
0.000355131
)
;
    }
    left
    {
        type            calculated;
        value           nonuniform List<scalar> 5(0.000348048 0.00047121 0.000773634 0.000404281 0.000598739);
    }
    hole
    {
        type            calculated;
        value           nonuniform List<scalar> 8(0.000430105 0.000344353 0.0010946 0.000414902 0.000234375 0.000997885 0.000734516 0.000260686);
    }
}


// ************************************************************************* //
