/*--------------------------------*- C++ -*----------------------------------*\
| =========                 |                                                 |
| \\      /  F ield         | OpenFOAM: The Open Source CFD Toolbox           |
|  \\    /   O peration     | Version:  v2012                                 |
|   \\  /    A nd           | Website:  www.openfoam.com                      |
|    \\/     M anipulation  |                                                 |
\*---------------------------------------------------------------------------*/
FoamFile
{
    version     2.0;
    format      ascii;
    class       volSymmTensorField;
    location    "2";
    object      sigma;
}
// * * * * * * * * * * * * * * * * * * * * * * * * * * * * * * * * * * * * * //

dimensions      [1 -1 -2 0 0 0 0];


internalField   nonuniform List<symmTensor> 
470
(
(1.20363e+07 -4.07036e+06 2.57807e-05 1.01579e+06 8.97248e-06 3.91561e+06)
(1.56627e+07 -975937 1.13724e-05 3.01106e+06 7.49464e-06 5.60214e+06)
(2.99202e+07 -2.94541e+06 -7.91634e-06 387028 -9.67504e-06 9.09217e+06)
(2.60195e+07 -592588 -3.27162e-05 5.48508e+06 -2.16189e-06 9.45137e+06)
(2.28368e+07 -7.66124e+06 4.75798e-05 -900309 4.18403e-06 6.58093e+06)
(2.76456e+07 -625480 3.65576e-05 -112562 -2.10986e-05 8.25991e+06)
(2.45811e+07 -6.06218e+06 -3.22492e-05 1.73147e+06 2.1659e-06 7.89378e+06)
(1.83597e+07 -8.77945e+06 1.1641e-05 -3.23907e+06 5.48299e-06 4.53618e+06)
(3.85734e+07 -3.33698e+06 1.69477e-05 -1.9224e+06 4.25898e-05 1.09953e+07)
(2.98548e+07 -4.72222e+06 2.83961e-05 1.58823e+06 -7.4026e-06 9.43291e+06)
(3.81961e+07 -2.99591e+06 3.98094e-05 -1.31994e+06 -3.60614e-05 1.10628e+07)
(4.32266e+07 3.48106e+06 -4.64005e-05 -2.19815e+06 -1.58414e-05 1.23085e+07)
(4.25878e+07 1.52578e+06 2.81772e-05 -2.40042e+06 2.93915e-05 1.20562e+07)
(2.51815e+07 -1.2136e+06 -2.93302e-05 5.00027e+06 -5.44796e-06 9.05454e+06)
(4.44282e+07 -981889 -9.781e-05 -981888 3.64204e-05 1.30339e+07)
(3.43928e+07 -4.27349e+06 6.39379e-05 -377347 -2.65046e-05 1.02046e+07)
(2.83224e+07 -5.14812e+06 -9.4459e-06 677612 -1.40725e-05 8.7e+06)
(2.27563e+07 -1.55134e+06 -2.06199e-05 4.27996e+06 1.84084e-05 8.11087e+06)
(2.185e+07 -653337 -1.34391e-05 4.67135e+06 -1.13122e-05 7.9564e+06)
(1.67661e+07 -3.75371e+06 2.18458e-05 3.09192e+06 -1.46206e-06 5.95742e+06)
(3.58649e+07 -2.623e+06 -9.32214e-05 289124 -1.87896e-05 1.08462e+07)
(2.6773e+07 -1.88928e+06 -1.77709e-05 3.59418e+06 7.97035e-06 9.11014e+06)
(3.08527e+07 -1.94522e+06 1.29254e-05 391485 -5.0382e-06 9.37326e+06)
(2.42669e+07 -1.91437e+06 -1.64865e-05 4.3695e+06 9.90236e-06 8.59092e+06)
(4.04365e+07 -2.48859e+06 -6.59228e-05 -7.08735e+06 -1.31647e-05 1.00047e+07)
(2.38851e+07 -5.13585e+06 -1.64632e-05 2.63149e+06 5.8672e-06 7.95499e+06)
(3.74575e+07 -3.37727e+06 -0.000166611 -5.13329e+06 -1.09258e-05 9.69726e+06)
(3.19044e+07 -1.19765e+06 1.48519e-05 -237977 5.28895e-05 9.49993e+06)
(2.76996e+07 -1.53626e+06 -8.25495e-06 616351 4.0399e-06 8.49477e+06)
(2.41274e+07 -836267 -2.46598e-05 4.63549e+06 -9.1945e-06 8.62887e+06)
(1.62457e+07 -3.64022e+06 1.247e-05 2.87241e+06 8.93535e-07 5.73542e+06)
(4.78027e+07 297741 -0.000280254 -190673 5.9215e-05 1.42836e+07)
(2.95963e+07 -4.17616e+06 -6.48019e-06 687850 2.10285e-05 9.08524e+06)
(5.12063e+07 -5.52466e+06 1.91253e-05 623187 -0.000100747 1.55489e+07)
(2.91777e+07 -933542 -3.11633e-05 560381 8.17322e-06 8.92143e+06)
(2.81159e+07 -875782 4.11113e-05 287923 -2.87216e-05 8.52115e+06)
(4.46218e+07 1.07897e+06 5.97637e-05 -182863 1.65216e-06 1.33317e+07)
(1.68238e+07 -3.49051e+06 8.67529e-06 2.49611e+06 -1.27652e-06 5.79598e+06)
(2.00628e+07 -3.32519e+06 5.55779e-06 3.88005e+06 4.35005e-06 7.18286e+06)
(1.65629e+07 -4.88859e+06 2.04214e-05 1.93187e+06 -5.13672e-06 5.54843e+06)
(3.37215e+07 -5.90022e+06 -0.000104337 -5.04475e+06 -2.83494e-05 8.60303e+06)
(2.03502e+07 -814514 1.33457e-05 4.24188e+06 -7.55448e-06 7.37763e+06)
(4.38538e+07 5.23615e+06 1.62881e-05 -242921 -1.95894e-05 1.30833e+07)
(2.81111e+07 -7.34529e+06 -3.28447e-05 -4.64804e+06 -2.21042e-05 7.03892e+06)
(3.44177e+07 -1.04043e+06 9.46925e-06 112292 4.66399e-05 1.0359e+07)
(4.02135e+07 5.30583e+06 -1.773e-05 -1.3585e+06 -1.83489e-05 1.16565e+07)
(1.96555e+07 -5.46119e+06 -2.13554e-05 2.02624e+06 -1.36947e-05 6.50452e+06)
(3.60415e+07 -4.44293e+06 -0.000127911 -6.35963e+06 7.83125e-05 8.90457e+06)
(3.34837e+07 -5.4631e+06 -0.000104454 -4.42851e+06 5.22809e-05 8.71656e+06)
(3.90659e+07 -2.72843e+06 -4.84555e-05 -3.93161e+06 8.42279e-05 1.05403e+07)
(4.51345e+07 1.33961e+06 -6.55142e-05 -527820 -6.03329e-05 1.3382e+07)
(4.9299e+07 -4.79724e+06 -6.3284e-05 -997551 7.72661e-05 1.44904e+07)
(2.37351e+07 -2.27712e+06 2.09001e-06 4.40971e+06 5.41147e-06 8.44344e+06)
(2.08311e+07 -1.45238e+06 -2.33287e-05 3.94023e+06 1.76919e-07 7.43139e+06)
(2.66583e+07 -1.78545e+06 -1.07653e-05 4.72395e+06 -6.6287e-06 9.41466e+06)
(2.65303e+07 -2.03239e+06 -1.25167e-05 3.64368e+06 1.40951e-06 9.05218e+06)
(3.17429e+07 2.48081e+06 -3.24356e-05 542401 4.86482e-05 9.6856e+06)
(2.22131e+07 342647 -3.56845e-05 -618522 -1.75315e-05 6.47836e+06)
(2.97545e+07 -7.18848e+06 8.39156e-05 -1.74097e+06 8.1287e-06 8.40406e+06)
(3.29656e+07 -1.83163e+06 3.17821e-05 614109 4.08792e-05 1.00739e+07)
(2.4906e+07 -4.87087e+06 3.35219e-05 2.57163e+06 -1.10565e-05 8.2433e+06)
(4.04086e+07 -377091 -4.88116e-05 -3.84018e+06 3.33234e-05 1.09705e+07)
(4.22836e+07 182696 -1.6901e-05 -2.48299e+06 3.91059e-05 1.19402e+07)
(4.53516e+07 4.44271e+06 7.43763e-06 -2.2558e+06 0.000165762 1.29287e+07)
(2.1762e+07 -9.3953e+06 1.40404e-05 -245304 5.45621e-05 6.45502e+06)
(4.84707e+07 3.18201e+06 0.000154731 5.68029e+06 3.26228e-05 1.62453e+07)
(1.84982e+07 -5.94442e+06 6.08321e-06 1.9966e+06 -8.12578e-07 6.14845e+06)
(2.68617e+07 -1.9952e+06 -2.98906e-06 2.67828e+06 4.24861e-06 8.86199e+06)
(1.44883e+07 -9.83461e+06 1.20613e-05 -8.73233e+06 8.11192e-06 1.72678e+06)
(3.29117e+07 -5.01609e+06 1.55174e-05 414633 1.43484e-05 9.9979e+06)
(1.12551e+07 -1.81473e+06 2.73452e-05 1.27976e+06 2.43673e-06 3.76045e+06)
(2.86776e+07 -5.27082e+06 -4.46725e-05 1.64225e+06 -3.32446e-05 9.09595e+06)
(5.04935e+07 2.11885e+06 9.89777e-05 -2.43446e+06 0.000107052 1.44177e+07)
(2.65445e+07 -6.51782e+06 -1.47235e-05 920140 -2.96549e-05 8.23939e+06)
(4.60591e+07 4.28343e+06 0.000202883 -1.3421e+06 8.50832e-05 1.34151e+07)
(2.66346e+07 -689797 -1.1279e-05 4.6536e+06 1.10382e-05 9.38646e+06)
(2.80582e+07 -4.31596e+06 3.53433e-05 1.77429e+06 -2.5202e-05 8.94975e+06)
(2.75437e+07 -4.74894e+06 3.17471e-05 2.06379e+06 -2.85727e-05 8.88226e+06)
(2.82141e+07 -6.67234e+06 3.61665e-05 -215672 -5.26005e-06 8.39953e+06)
(4.8108e+07 2.506e+06 5.23334e-05 6.29442e+06 3.6832e-05 1.63207e+07)
(3.17945e+07 -6.50542e+06 -3.17821e-05 -2.5985e+06 2.97534e-05 8.75879e+06)
(5.39979e+07 5.20445e+06 0.000209672 4.44438e+06 6.13108e-05 1.75327e+07)
(3.13115e+07 -2.98599e+06 -3.62657e-05 855836 1.25269e-05 9.65019e+06)
(1.26059e+07 -7.34829e+06 1.51788e-06 -1.00554e+07 6.86477e-06 765149)
(3.86437e+07 -2.38263e+06 -4.44506e-05 -3.41454e+06 2.76663e-05 1.05688e+07)
(2.66895e+07 -839110 -1.43382e-05 3.51164e+06 -5.31697e-06 9.06033e+06)
(4.30381e+07 4.88914e+06 -2.01703e-05 -3.45047e+06 6.00498e-05 1.18763e+07)
(3.53296e+07 -1.33032e+07 1.18628e-05 6.94158e+06 -8.4911e-05 1.26814e+07)
(4.3518e+07 6.40326e+06 0.000116252 542382 -0.000135751 1.32181e+07)
(4.41744e+07 1.90322e+06 3.26286e-05 -4.71781e+06 8.48467e-05 1.1837e+07)
(4.70875e+07 5.58692e+06 0.000144905 -1.43761e+06 3.99554e-05 1.3695e+07)
(4.34474e+07 1.8742e+06 0.000110712 -1.65764e+06 1.39441e-05 1.25369e+07)
(2.64372e+07 -6.73739e+06 -3.99787e-05 895121 -1.4101e-05 8.1997e+06)
(2.69904e+07 -5.01262e+06 -5.83801e-06 1.68801e+06 -3.79814e-05 8.60351e+06)
(4.32097e+07 -201048 3.17646e-05 -902694 4.68851e-05 1.26921e+07)
(4.46044e+07 562393 -1.50504e-05 54473.3 1.33545e-05 1.33977e+07)
(2.11137e+07 -7.13224e+06 -3.50631e-05 575820 -2.09887e-05 6.50685e+06)
(2.62338e+07 -5.52844e+06 -5.37097e-06 2.03835e+06 -2.20005e-05 8.48165e+06)
(2.24083e+07 -7.86183e+06 3.00074e-06 -1.72615e+06 -2.06082e-06 6.20466e+06)
(2.90446e+07 -1.68472e+06 -6.26652e-05 366733 -1.15505e-05 8.82341e+06)
(2.61492e+07 -2.60969e+06 -1.76308e-06 3.90521e+06 -9.27478e-06 9.01633e+06)
(3.55421e+07 -4.31961e+06 -1.03566e-05 -3.23942e+06 3.82915e-05 9.69081e+06)
(5.06981e+07 2.58058e+06 0.000126536 -1.01629e+06 -9.07577e-05 1.49045e+07)
(2.601e+07 -1.61009e+06 -2.59324e-05 4.87559e+06 9.18392e-07 9.26568e+06)
(2.66938e+07 -1.09312e+06 -2.87113e-05 6.00412e+06 1.15301e-05 9.80937e+06)
(2.6855e+07 -1.15652e+06 2.47532e-05 581928 2.18196e-06 8.23109e+06)
(2.75917e+07 -1.50556e+06 2.89565e-06 2.02454e+06 1.14586e-05 8.88488e+06)
(2.2421e+07 -6.791e+06 1.2505e-05 848121 2.22465e-06 6.98073e+06)
(2.6167e+06 -909045 -2.86763e-05 -1.77476e+07 -9.57963e-05 -4.53927e+06)
(5.74935e+07 -698547 2.74416e-05 4.46594e+06 2.89565e-05 1.85878e+07)
(4.22202e+07 5.42439e+06 -8.87392e-05 -767458 -9.79618e-05 1.24358e+07)
(5.86884e+07 -92970.8 0.000300141 3.98005e+06 -5.30442e-05 1.88005e+07)
(2.68203e+07 -698880 -1.91837e-05 5.33657e+06 3.01041e-05 9.64705e+06)
(2.76153e+07 -509445 6.92738e-05 296973 -1.45804e-06 8.37369e+06)
(2.02271e+07 -8.69992e+06 1.40463e-05 -6.74698e+06 1.17118e-05 4.04403e+06)
(2.98428e+07 -5.97232e+06 1.40112e-07 572991 -8.65996e-06 9.12473e+06)
(2.53363e+07 -534301 2.27449e-05 5.49744e+06 -1.9021e-06 9.25012e+06)
(4.30679e+07 -860351 9.04074e-05 7607.93 -8.37755e-05 1.29227e+07)
(2.31498e+07 -6.35768e+06 -4.19169e-06 1.49342e+06 -2.27412e-05 7.39296e+06)
(1.63902e+07 -1.16444e+06 2.26632e-05 3.429e+06 1.34174e-06 5.94578e+06)
(2.49198e+07 -7.29315e+06 1.27035e-05 415697 -2.15725e-05 7.60065e+06)
(2.62945e+07 -1.82205e+06 -1.0018e-05 5.14335e+06 -7.47977e-06 9.43135e+06)
(2.37521e+07 -1.37982e+06 -1.84014e-05 4.48189e+06 7.71439e-07 8.47019e+06)
(2.67106e+07 -430515 1.82029e-05 7.20605e+06 1.38744e-06 1.0175e+07)
(2.67738e+07 -397246 -1.12907e-05 759319 -3.13589e-05 8.25995e+06)
(3.10528e+07 -6.37713e+06 5.35346e-05 -666108 1.35996e-05 9.116e+06)
(3.18499e+07 -5.6347e+06 9.01039e-05 -149990 8.86283e-06 9.50996e+06)
(2.62004e+07 -2.67347e+06 -7.9397e-07 3.52823e+06 1.72221e-07 8.91858e+06)
(4.47788e+07 -1.49375e+06 0.000333041 153326 -7.68983e-05 1.34796e+07)
(2.50007e+07 -2.23485e+06 2.69016e-05 4.24425e+06 -1.23e-05 8.77349e+06)
(1.91176e+07 -6.96132e+06 1.48869e-05 447772 -1.41211e-05 5.8696e+06)
(1.8295e+07 -7.79875e+06 4.94013e-05 -859366 3.98627e-06 5.23068e+06)
(2.50998e+07 -5.98185e+06 -6.80712e-06 1.85929e+06 -6.37438e-06 8.08774e+06)
(2.58365e+07 -2.95422e+06 5.29858e-05 3.84119e+06 6.65241e-06 8.90331e+06)
(2.69131e+07 -704055 -1.45834e-05 3.20487e+06 -5.50597e-06 9.03539e+06)
(2.97189e+07 -1.66975e+06 -2.37841e-05 160878 -3.43567e-06 8.96392e+06)
(2.77341e+07 -5.98231e+06 -9.16334e-05 1.11274e+06 -1.07879e-05 8.65404e+06)
(3.86316e+07 -9.15807e+06 3.43917e-05 -551740 5.66375e-05 1.1424e+07)
(4.34185e+07 3.27787e+06 -7.52636e-05 -702706 -3.54601e-05 1.28147e+07)
(2.6951e+07 -375975 3.21091e-05 99611.7 1.58196e-05 8.11517e+06)
(2.76789e+07 -660900 6.41948e-05 573268 -1.68208e-05 8.47564e+06)
(4.32918e+07 -927539 4.97282e-05 -6.70558e+06 -3.7804e-05 1.09759e+07)
(2.69893e+07 -2.84153e+06 -4.21504e-06 3.43459e+06 2.01171e-05 9.12717e+06)
(2.62223e+07 -4.46118e+06 1.90202e-05 2.16361e+06 -1.7298e-05 8.51578e+06)
(2.71416e+07 -4.09824e+06 -1.33223e-05 2.74988e+06 -8.69207e-06 8.96744e+06)
(1.73243e+07 -3.58241e+06 1.7876e-05 2.6942e+06 -3.01552e-06 6.00555e+06)
(2.65704e+07 -560031 -1.14659e-05 6.33261e+06 1.62462e-05 9.8709e+06)
(4.08735e+07 398652 -4.23548e-05 -5.99881e+06 2.51998e-05 1.04624e+07)
(2.55945e+07 -3.83087e+06 4.02473e-05 3.10706e+06 1.27696e-05 8.61047e+06)
(4.17884e+07 2.9064e+06 -0.000100244 -4.91794e+06 7.47937e-05 1.10611e+07)
(2.19736e+07 -2.24722e+06 -1.37894e-05 4.35601e+06 -1.62917e-06 7.89888e+06)
(2.56459e+07 -795878 -4.72062e-05 5.92072e+06 1.00117e-05 9.46999e+06)
(2.06359e+07 -8.51576e+06 2.06082e-05 -5.95558e+06 6.95818e-06 4.4041e+06)
(2.61245e+07 -1.51109e+06 -1.29954e-05 4.18083e+06 5.49101e-06 9.09158e+06)
(5.49095e+07 -1.36087e+07 -0.000465681 1.98501e+06 -6.55609e-05 1.70683e+07)
(3.35959e+07 -5.37373e+06 6.02366e-05 -501093 3.03781e-05 9.92845e+06)
(-1.99762e+06 4.42997e+06 -3.65927e-05 -3.18604e+07 -6.61279e-05 -1.01574e+07)
(2.29959e+07 -5.10856e+06 1.08821e-05 2.43481e+06 4.78826e-06 7.62921e+06)
(2.51019e+07 -4.89256e+06 3.3697e-05 3.35282e+06 -1.03056e-05 8.5364e+06)
(2.8465e+07 -4.67515e+06 2.23946e-05 1.03204e+06 -7.41136e-06 8.8491e+06)
(6.51077e+07 -7.39719e+06 -9.75853e-05 4.60105e+06 -2.90441e-05 2.09126e+07)
(4.09544e+07 -1.51045e+06 -3.54718e-05 -1.7085e+06 2.96192e-05 1.17738e+07)
(2.99446e+07 2.57519e+06 3.7645e-05 421129 -6.89236e-05 9.10973e+06)
(4.69857e+07 -1.07807e+06 -4.49177e-05 -983929 3.7912e-05 1.38005e+07)
(4.22619e+07 -384603 -2.98913e-05 3.30391e+06 3.73983e-05 1.36698e+07)
(2.80224e+07 -7.52426e+06 -1.50621e-06 -8.31926e+06 1.29677e-05 5.91095e+06)
(2.37327e+07 -9.71923e+06 1.95165e-05 -8.89022e+06 6.61447e-06 4.45275e+06)
(4.36173e+07 -274221 0.000177009 -349719 1.10222e-05 1.29803e+07)
(2.77093e+07 -7.20763e+06 1.00414e-06 -372652 -2.17043e-05 8.201e+06)
(2.96353e+07 -7.54945e+06 -8.62274e-05 -7.09273e+06 -3.05197e-05 6.76277e+06)
(2.96134e+07 -7.23818e+06 -1.8273e-06 -5.63631e+06 -2.63287e-05 7.19313e+06)
(2.71923e+07 -3.35475e+06 -3.89279e-05 2.12463e+06 1.71229e-05 8.79507e+06)
(2.75834e+07 -3.04745e+06 -2.50334e-05 1.82363e+06 1.80278e-05 8.82211e+06)
(2.774e+07 -4.04457e+06 2.02579e-05 1.62299e+06 6.23135e-06 8.80891e+06)
(2.72253e+07 -3.81902e+06 -1.93121e-05 2.1559e+06 1.31457e-05 8.81436e+06)
(2.53005e+07 -4.66365e+06 3.76435e-05 2.54136e+06 -8.45709e-06 8.35255e+06)
(2.318e+07 -1.36911e+06 -3.0778e-05 4.94703e+06 6.65561e-06 8.43811e+06)
(5.72683e+06 -2.39521e+06 7.30919e-06 -5.67142e+06 2.68567e-06 16623.4)
(3.78815e+07 -2.66008e+06 4.0148e-05 -7.22889e+06 -6.20435e-05 9.19577e+06)
(2.41365e+07 -8.7026e+06 -9.66775e-06 -5.54368e+06 -2.87128e-05 5.57785e+06)
(2.87534e+07 -7.52813e+06 -5.82634e-06 -3.08592e+06 -2.33126e-05 7.70026e+06)
(3.97395e+07 4.20407e+06 4.24423e-06 -2.65566e+06 8.40966e-06 1.11252e+07)
(2.77817e+07 -5.97843e+06 -0.000103041 1.13374e+06 9.39117e-06 8.67464e+06)
(3.1543e+07 -5.51816e+06 -1.52722e-05 -319863 5.21918e-06 9.36694e+06)
(3.36556e+07 -4.10273e+06 2.47532e-05 698003 -3.748e-06 1.03061e+07)
(4.07965e+07 -1.9307e+06 -9.78568e-05 -312406 4.43178e-05 1.21452e+07)
(2.86528e+07 -2.57484e+06 -3.77369e-05 1.56037e+06 1.14337e-05 9.06395e+06)
(3.6079e+06 -1.86128e+06 7.96305e-06 -4.03453e+06 -1.579e-07 -127990)
(3.69689e+07 2.78493e+06 0.000115692 63692.9 -5.75861e-05 1.11098e+07)
(2.49265e+07 -2.42076e+06 -1.67084e-05 4.27805e+06 8.45527e-06 8.76137e+06)
(2.81379e+07 -1.70943e+06 1.92187e-05 1.47597e+06 1.27429e-05 8.88417e+06)
(2.29893e+07 -5.50412e+06 1.68485e-05 2.72325e+06 -2.58861e-06 7.71376e+06)
(3.12359e+07 -5.355e+06 -3.98619e-05 1.08638e+06 6.51668e-07 9.69668e+06)
(2.90768e+07 -5.62749e+06 -8.4441e-05 324242 -3.23353e-06 8.82033e+06)
(1.11843e+07 -4.95799e+06 8.20824e-06 -375335 -9.09343e-06 3.24268e+06)
(2.19043e+07 -2.29529e+06 -5.10242e-06 3.66275e+06 7.50732e-07 7.67011e+06)
(3.06556e+07 -1.83037e+06 2.3714e-05 -360137 3.52295e-05 9.08865e+06)
(2.90185e+07 -3.62642e+06 -1.68018e-05 1.12568e+06 -3.72319e-06 9.04325e+06)
(2.93996e+07 -2.84307e+06 -3.73049e-05 743482 -1.57648e-05 9.04293e+06)
(1.09575e+08 -8.31402e+06 -6.2817e-05 1.29043e+07 -0.00040106 3.67438e+07)
(1.44663e+07 -1.49555e+06 2.41577e-05 2.53332e+06 9.98346e-06 5.09988e+06)
(9.40601e+06 -1.48529e+06 2.00594e-05 369680 2.07851e-06 2.93271e+06)
(7.57135e+07 1.11023e+06 4.08997e-05 6.11523e+06 0.000110876 2.45486e+07)
(2.77639e+07 -8.71755e+06 -4.56474e-05 -9.79919e+06 1.12615e-05 5.38942e+06)
(3.23243e+07 -4.4164e+06 2.23129e-05 59850.5 -1.27604e-05 9.71526e+06)
(3.34833e+07 -2.78803e+06 1.65099e-05 -305781 3.10232e-05 9.95326e+06)
(2.02635e+07 -2.37974e+06 -1.29954e-05 4.31534e+06 1.05176e-05 7.37365e+06)
(2.05092e+07 -2.35749e+06 3.64292e-06 3.7711e+06 -1.19433e-05 7.28409e+06)
(3.33726e+07 -6.63694e+06 9.37001e-06 -8.42785e+06 1.00501e-05 7.48343e+06)
(-4.95862e+06 3.22244e+06 -6.56309e-05 -4.15694e+07 -9.28718e-05 -1.39584e+07)
(2.65929e+07 -2.44683e+06 -1.30071e-05 4.28916e+06 -4.388e-06 9.26461e+06)
(2.98035e+07 -3.69008e+06 -7.31853e-05 -61141.9 2.17276e-05 8.92271e+06)
(-1.79366e+06 -2.18072e+06 -1.11156e-05 -2.16921e+07 -2.75992e-06 -7.04573e+06)
(2.31626e+07 -2.85383e+06 2.17524e-05 3.82557e+06 -2.11737e-06 8.09644e+06)
(4.0283e+07 -2.96823e+06 -6.58119e-05 -1.49416e+06 -1.19781e-05 1.16367e+07)
(3.78265e+07 -3.09594e+06 6.1737e-05 -399560 -4.77549e-05 1.12281e+07)
(2.63793e+07 -3.6521e+06 2.1659e-05 3.39128e+06 2.03885e-05 8.93117e+06)
(2.06761e+07 -4.79671e+06 4.20103e-05 2.44634e+06 2.92685e-06 6.93672e+06)
(2.45707e+07 -3.45312e+06 4.91561e-06 3.605e+06 5.06995e-06 8.45272e+06)
(3.35134e+07 -5.66327e+06 -7.53979e-05 -7.12872e+06 -3.62832e-05 7.9154e+06)
(2.90105e+06 -3.43879e+06 1.97909e-05 -1.90501e+07 -1.75472e-05 -4.84471e+06)
(1.54858e+07 -5.63322e+06 8.44176e-06 636101 -8.61198e-06 4.83657e+06)
(2.80398e+07 -2.35137e+06 -6.14743e-05 389200 1.04792e-06 8.52869e+06)
(2.43589e+07 -2.60671e+06 -6.78377e-06 4.26168e+06 4.34786e-06 8.58616e+06)
(3.3713e+07 -5.91389e+06 -0.000123421 -8.4939e+06 -6.4402e-05 7.56574e+06)
(2.7778e+07 -1.39947e+06 -6.27119e-05 -91942.1 6.27002e-06 8.30581e+06)
(3.63353e+07 -4.55674e+06 4.15666e-05 -3.59337e+06 -3.68101e-05 9.82257e+06)
(3.43439e+06 -5.071e+06 -1.27269e-06 -7.28415e+06 4.80031e-06 -1.15493e+06)
(4.77674e+07 4.641e+06 6.67504e-05 3.47261e+06 -6.92972e-06 1.5372e+07)
(4.1835e+07 2.19973e+06 -0.000136084 -383739 -5.82809e-05 1.24354e+07)
(3.57595e+07 -4.72533e+06 -6.11415e-05 -3.77156e+06 4.58226e-05 9.59639e+06)
(8.63761e+06 -7.41274e+06 -9.1073e-07 -9.67326e+06 -1.65836e-06 -310696)
(2.64915e+07 -479209 2.45664e-05 6.91558e+06 -9.75623e-06 1.00221e+07)
(2.6893e+07 -221525 3.56586e-05 519624 -4.64414e-06 8.22377e+06)
(3.38912e+07 -2.95604e+06 3.9897e-05 481083 -4.53614e-06 1.03117e+07)
(2.64996e+07 -5.5541e+06 -3.56119e-05 2.1584e+06 -1.13082e-05 8.59739e+06)
(2.09934e+07 -7.30934e+06 -2.07366e-05 -2.22031e+06 4.42259e-05 5.63192e+06)
(2.6577e+07 -1.11861e+06 7.01729e-06 1.15356e+06 -2.19655e-06 8.31916e+06)
(2.68272e+07 -577025 -1.64982e-05 1.75608e+06 -1.3018e-05 8.57497e+06)
(2.66023e+07 -639789 7.89299e-06 5.59287e+06 1.38996e-05 9.65855e+06)
(2.69218e+07 -1.0616e+06 -1.47118e-06 6.06002e+06 2.38884e-06 9.89454e+06)
(2.63263e+07 -1.09324e+06 2.45196e-05 6.03671e+06 -1.47556e-06 9.70889e+06)
(2.73281e+07 -929253 2.07716e-05 1.20034e+06 -2.27887e-05 8.55853e+06)
(5.89889e+07 2.10163e+06 0.000183749 6.50783e+06 0.000151596 1.9649e+07)
(5.34176e+07 -1.16831e+06 5.73439e-05 8.53562e+06 0.000115283 1.8586e+07)
(4.05876e+07 3.20219e+06 -1.10922e-06 5.55872e+06 -1.37427e-05 1.38439e+07)
(4.01165e+07 2.22278e+06 -6.08817e-05 4.09339e+06 8.21467e-05 1.3263e+07)
(2.68754e+07 -1.78416e+06 -4.54197e-06 2.15575e+06 4.57846e-06 8.70935e+06)
(1.92502e+07 -753337 1.63464e-06 3.94192e+06 7.00133e-06 6.95764e+06)
(2.83334e+07 -3.4782e+06 -1.63348e-05 1.39817e+06 1.7541e-05 8.91946e+06)
(2.77913e+07 -3.04958e+06 -3.71881e-05 1.3272e+06 2.32097e-05 8.73555e+06)
(3.16048e+07 -3.01293e+06 -1.72805e-05 126232 2.26792e-05 9.51932e+06)
(2.67513e+07 -128361 1.39996e-05 8.30963e+06 -1.83709e-05 1.05183e+07)
(2.68794e+07 -112708 7.08968e-05 31013.1 -3.08831e-05 8.07312e+06)
(3.59524e+07 -4.47156e+06 8.20941e-05 -105642 1.0612e-05 1.0754e+07)
(1.70156e+07 -2.60706e+06 -1.71988e-05 2.88381e+06 1.52108e-05 5.96984e+06)
(2.07305e+07 -3.76336e+06 5.14913e-06 3.34938e+06 -2.32973e-07 7.22395e+06)
(2.64485e+07 -527658 3.32533e-05 6.57561e+06 -9.1166e-06 9.90723e+06)
(2.68215e+07 -428935 3.26695e-05 585261 -3.1137e-05 8.22203e+06)
(1.39755e+07 -1.34026e+06 2.02345e-05 2.18798e+06 6.13324e-06 4.84905e+06)
(2.85862e+07 -6.2416e+06 -6.32724e-05 72277.4 -1.00567e-05 8.59755e+06)
(4.71815e+07 4.577e+06 0.000223689 2.50106e+06 -1.038e-05 1.49048e+07)
(7.79549e+06 -1.75317e+06 1.60429e-05 -421300 -2.33384e-07 2.21226e+06)
(5.60549e+06 -2.39215e+06 -1.61012e-05 -1.17505e+07 8.74242e-06 -1.84351e+06)
(1.83292e+07 -4.16986e+06 5.33711e-05 2.44304e+06 -3.84433e-06 6.23168e+06)
(2.63918e+07 -467092 2.00127e-05 6.87196e+06 5.05845e-06 9.97913e+06)
(2.71432e+07 -459386 2.40993e-05 341324 -1.10572e-05 8.24537e+06)
(2.35045e+07 -543638 -4.55131e-05 4.57933e+06 4.657e-06 8.42515e+06)
(2.17735e+07 -4.00356e+06 5.4854e-05 3.87543e+06 -4.5261e-06 7.69469e+06)
(3.5151e+07 -1.17806e+06 -2.26048e-05 11358.3 5.30617e-05 1.05487e+07)
(3.01124e+07 -685405 3.72115e-05 -8760.22 1.45775e-05 9.03108e+06)
(1.35536e+07 -8.50375e+06 -2.62711e-05 -8.64792e+06 4.00488e-06 1.47172e+06)
(4.7788e+07 635887 -1.06836e-05 -399866 2.74795e-05 1.42164e+07)
(2.1784e+07 -7.21301e+06 1.62881e-05 -9.0535e+06 2.42467e-05 3.81915e+06)
(3.26359e+07 109828 -0.000102434 1.61393e+06 2.05732e-05 1.0275e+07)
(3.71814e+07 -4.10068e+06 7.63554e-05 -5.99506e+06 2.82414e-05 9.35591e+06)
(4.03576e+07 -5.07354e+06 8.90063e-05 -4.84944e+06 1.73039e-05 1.06524e+07)
(3.11478e+07 -4.31435e+06 -1.15476e-05 743702 -7.01729e-06 9.56746e+06)
(4.03599e+07 -1.22168e+06 3.77252e-05 -2.17601e+06 2.34411e-05 1.14552e+07)
(2.65448e+07 -2.80538e+06 -2.10168e-05 2.36611e+06 1.13651e-05 8.67328e+06)
(2.75526e+07 -5.57002e+06 -0.000101325 940598 -7.69961e-06 8.54796e+06)
(3.40735e+07 -4.85592e+06 1.56459e-05 -911486 -2.50159e-06 9.94861e+06)
(2.35962e+07 -6.40251e+06 -1.32289e-05 1.68561e+06 -2.17637e-05 7.58455e+06)
(3.36106e+07 -5.89206e+06 2.93886e-05 -1.34658e+06 1.43338e-05 9.67919e+06)
(2.47808e+07 -1.27076e+06 -6.55025e-06 4.8279e+06 -1.3743e-05 8.88262e+06)
(2.65023e+07 -876386 -2.75554e-06 5.79274e+06 -8.76121e-06 9.68852e+06)
(3.6792e+07 -2.44949e+06 -0.000124723 715067 2.35578e-05 1.12521e+07)
(3.54236e+07 4.38597e+06 3.32971e-05 -1.14523e+06 -1.5751e-05 1.02835e+07)
(2.52466e+07 -3.2844e+06 3.1642e-05 3.84719e+06 1.5277e-05 8.72813e+06)
(1.43477e+07 -6.61817e+06 -1.62297e-06 -2.29643e+06 -4.67497e-06 3.61537e+06)
(1.87471e+07 -6.64985e+06 5.31259e-06 -9.80517e+06 4.05888e-05 2.68258e+06)
(2.10087e+07 -7.22288e+06 2.71935e-05 -1.08639e+07 2.44729e-05 3.04343e+06)
(1.04421e+07 -6.50572e+06 4.41354e-06 -2.25361e+06 -1.30312e-05 2.45655e+06)
(3.99783e+07 -1.64104e+06 -1.50621e-05 -389266 -0.000108021 1.18767e+07)
(3.75321e+07 -4.16445e+06 -2.2669e-05 -1.02903e+06 1.21139e-06 1.09509e+07)
(2.47932e+07 -4.15882e+06 3.48529e-05 3.19374e+06 2.97812e-06 8.39609e+06)
(2.55933e+07 -3.01426e+06 2.69366e-05 3.83498e+06 2.47386e-06 8.82847e+06)
(2.835e+07 -633592 1.16994e-05 -140369 -1.22613e-05 8.46289e+06)
(3.54964e+07 -4.62729e+06 1.26568e-05 -1.85326e+06 -3.11633e-05 1.00929e+07)
(2.48816e+07 -567044 -4.73463e-05 5.18892e+06 -7.45624e-06 9.02116e+06)
(2.7239e+07 -2.51825e+06 -1.44783e-06 3.07394e+06 -4.37705e-06 9.09388e+06)
(1.42843e+07 -4.59782e+06 4.83387e-06 -5.44071e+06 2.19334e-05 2.65309e+06)
(2.73225e+07 -1.36356e+06 4.34348e-06 2.93658e+06 4.31429e-06 9.07773e+06)
(2.6564e+07 -740508 4.71711e-06 1.96014e+06 5.33448e-06 8.55725e+06)
(4.72227e+07 5.79835e+06 0.000125271 1.33966e+06 -9.95381e-05 1.45687e+07)
(2.46574e+07 -8.77581e+06 -2.26165e-05 -4.30123e+06 -1.29808e-05 6.10684e+06)
(2.73266e+07 -2.56805e+06 -5.04404e-06 2.05161e+06 1.04843e-05 8.81345e+06)
(2.71397e+07 -3.21116e+06 -3.59738e-05 2.96489e+06 1.50672e-05 9.03139e+06)
(1.36651e+07 -8.94709e+06 -1.05902e-05 -5.68316e+06 7.09683e-07 2.39459e+06)
(1.81866e+07 -8.86669e+06 -2.42277e-06 -3.96741e+06 1.21161e-05 4.26575e+06)
(4.45341e+07 2.17574e+06 -4.56766e-05 -3.77722e+06 7.41982e-05 1.2227e+07)
(3.86362e+07 -2.46439e+06 7.38976e-05 -8.873e+06 -2.73248e-05 8.92895e+06)
(9.58012e+07 -1.81565e+07 -0.000430571 1.39448e+07 -0.000490959 3.29238e+07)
(2.64387e+07 -4.51651e+06 1.67551e-05 2.98667e+06 -5.45562e-06 8.8276e+06)
(2.09983e+07 -9.19911e+06 5.47022e-05 -1.09081e+07 3.12188e-05 3.02707e+06)
(4.28399e+07 1.44975e+06 -2.57982e-05 -2.80791e+06 5.99389e-05 1.20096e+07)
(2.17794e+07 -9.20222e+06 4.6529e-05 -9.08531e+06 3.15895e-05 3.80823e+06)
(9.04089e+06 -6.26501e+06 -5.23086e-06 -4.88319e+06 5.37827e-06 1.24731e+06)
(4.03221e+07 -1.93387e+06 -2.33112e-05 -255090 -1.9712e-05 1.20201e+07)
(2.37776e+07 -4.6265e+06 1.08353e-05 3.79049e+06 6.59878e-06 8.27044e+06)
(3.97123e+07 -1.32601e+06 -0.000211605 24588.2 7.29708e-05 1.19211e+07)
(2.21831e+07 -4.17958e+06 1.76658e-05 3.18943e+06 -7.90394e-06 7.61175e+06)
(2.52563e+07 -4.27978e+06 4.17885e-05 3.47813e+06 -1.09481e-05 8.62034e+06)
(2.52408e+07 -2.32762e+06 -7.89299e-06 4.42704e+06 -2.55997e-06 8.90036e+06)
(3.80974e+07 -3.5934e+06 7.81943e-05 -756216 -0.000112891 1.12024e+07)
(2.23839e+07 -526852 -2.68315e-05 4.25345e+06 -6.92762e-07 7.99121e+06)
(3.13517e+07 -788506 2.285e-05 65059.7 5.16825e-05 9.42502e+06)
(2.39349e+07 -9.09968e+06 -5.13745e-07 -5.66877e+06 -6.90783e-06 5.47983e+06)
(1.98379e+07 -7.83851e+06 3.96985e-07 -2.87663e+06 8.9701e-06 5.08839e+06)
(9.94587e+06 -8.34583e+06 -1.05201e-05 -1.11492e+07 -1.97894e-05 -360990)
(2.12515e+07 -5.51219e+06 4.47192e-06 1.97986e+06 -2.60145e-05 6.96942e+06)
(3.15406e+06 -4.53157e+06 6.60863e-06 -1.16329e+07 -1.8667e-05 -2.54365e+06)
(2.82478e+07 -7.53621e+06 1.36609e-06 -2.8854e+06 2.97199e-05 7.60872e+06)
(3.13603e+07 -6.22135e+06 3.9138e-05 -1.11182e+06 2.97636e-05 9.07456e+06)
(1.0196e+07 -6.77145e+06 -9.67942e-06 -7.00995e+06 -1.45294e-06 955811)
(2.70737e+07 -7.61114e+06 -1.24116e-05 -858817 -2.60083e-06 7.86445e+06)
(1.89883e+07 -1.08187e+06 -5.66287e-06 4.39301e+06 1.62476e-05 7.01438e+06)
(2.45183e+07 -3.57706e+06 3.07663e-05 3.73714e+06 1.28071e-07 8.47662e+06)
(4.13417e+07 2.19257e+06 -0.000152285 -494533 -4.72354e-05 1.22542e+07)
(2.72336e+07 -2.09055e+06 -5.89639e-06 686535 2.26383e-05 8.37605e+06)
(2.24188e+07 -3.33192e+06 9.27076e-06 3.67747e+06 -1.58513e-05 7.82889e+06)
(6.03049e+07 1.29233e+06 7.6799e-06 6.71403e+06 8.34894e-05 2.01057e+07)
(4.30747e+07 -1.3498e+06 -0.000166512 172483 -2.78677e-05 1.29741e+07)
(4.53132e+06 -4.10909e+06 1.06602e-05 -1.03462e+07 -8.10644e-06 -1.74447e+06)
(2.60039e+07 -3.85942e+06 -2.8256e-05 2.47171e+06 1.49548e-05 8.54269e+06)
(3.88386e+07 -1.21273e+06 -0.000218318 858805 2.8345e-05 1.19092e+07)
(4.27052e+07 2.74256e+06 5.63368e-06 886545 8.8154e-06 1.30775e+07)
(2.54604e+07 -4.13023e+06 1.75958e-05 3.18797e+06 2.60667e-06 8.59451e+06)
(2.69749e+07 -112791 -7.91634e-06 7.92158e+06 -1.54474e-05 1.04689e+07)
(2.66014e+07 -66864.6 2.14138e-05 -89115.9 -2.6417e-06 7.95368e+06)
(1.83895e+07 -832055 9.55099e-06 3.80178e+06 1.46387e-05 6.6574e+06)
(2.22792e+07 -7.91686e+06 3.37437e-06 -575110 8.96135e-06 6.51122e+06)
(3.54892e+07 -3.8658e+06 6.47786e-05 350460 -6.93264e-07 1.07519e+07)
(3.72235e+07 -1.03905e+06 -4.98566e-05 -38968.8 4.85796e-05 1.11554e+07)
(3.61287e+07 2.82224e+06 0.000101552 -55527.3 -5.57121e-05 1.0822e+07)
(-83816.7 -1.09615e+06 1.20146e-05 -8.77751e+06 -8.93325e-06 -2.6584e+06)
(3.536e+07 5.19787e+06 4.73609e-05 1.99632e+06 -8.5235e-05 1.12069e+07)
(2.6931e+07 -6.1755e+06 -9.41321e-05 1.37363e+06 -3.37875e-06 8.49139e+06)
(2.65854e+07 -40542.5 -2.28383e-05 7.18141e+06 1.2315e-06 1.013e+07)
(6.92174e+06 -1.08093e+06 6.5736e-06 -2.36555e+06 -3.96529e-07 1.36686e+06)
(2.6288e+07 -514114 -9.53931e-06 6.60181e+06 6.68452e-06 9.86695e+06)
(2.65906e+07 -631765 -9.04892e-06 6.19448e+06 3.26728e-05 9.83552e+06)
(2.69094e+07 -612658 -1.3264e-05 1.85796e+06 -6.21164e-06 8.63021e+06)
(3.0939e+07 -5.21192e+06 -2.95403e-05 1.24812e+06 -2.48699e-06 9.65614e+06)
(6.62227e+07 -2.02079e+07 -0.00030729 1.41155e+07 -0.000179898 2.41014e+07)
(2.68183e+07 -53202.8 1.03683e-05 -71731.3 -4.96231e-07 8.02397e+06)
(2.25562e+07 -3.43293e+06 -2.56873e-07 3.89103e+06 -7.39275e-06 7.93416e+06)
(3.7388e+07 2.80278e+06 0.000161952 -1.39394e+06 4.8689e-06 1.07982e+07)
(4.18413e+06 -3.66754e+06 3.93482e-06 -3.90514e+06 1.62151e-06 83697.1)
(2.7085e+07 -289396 1.07419e-05 499669 1.60925e-05 8.27539e+06)
(2.1485e+07 -5.35017e+06 3.80405e-05 2.79903e+06 -1.71999e-05 7.28521e+06)
(2.42555e+07 -7.23309e+06 -2.72168e-05 146464 -1.1552e-05 7.3206e+06)
(3.23604e+07 2.07543e+06 -1.9361e-05 882714 -7.38625e-05 9.97295e+06)
(2.53632e+07 -1.69036e+06 -6.69036e-06 4.7861e+06 -3.39225e-06 9.04478e+06)
(4.68456e+06 -1.81703e+06 4.55365e-06 -1.35467e+07 5.02215e-06 -2.65866e+06)
(4.71053e+06 1.68088e+06 -2.45196e-07 -1.9137e+07 1.85401e-05 -4.32795e+06)
(1.3109e+06 -2.02586e+06 1.12674e-05 -1.17791e+07 -1.05414e-05 -3.14046e+06)
(2.69052e+07 -1.83747e+06 1.81562e-05 1.17063e+06 2.52822e-05 8.42276e+06)
(7.45082e+07 -3.95218e+06 5.53035e-05 9.10281e+06 0.000302981 2.50833e+07)
(6.00654e+06 -2.60131e+06 -1.35325e-05 -1.59526e+07 -1.58487e-05 -2.98381e+06)
(2.83306e+07 -7.22209e+06 -1.74206e-05 -1.90147e+06 -5.81612e-06 7.92874e+06)
(5.05777e+07 1.69979e+06 0.000186848 1.73415e+06 -6.11298e-05 1.56936e+07)
(2.2861e+07 1.40716e+06 -2.14766e-05 851590 -8.52116e-05 7.11379e+06)
(2.65241e+07 -1.73266e+06 -5.07323e-05 5.11272e+06 -3.90052e-07 9.49104e+06)
(2.61769e+07 -3.32939e+06 3.65576e-05 3.07611e+06 2.54909e-05 8.77591e+06)
(6.74966e+07 -6.70653e+06 -0.000171586 -3.51674e+06 -0.000226235 1.9194e+07)
(3.97603e+07 6.0939e+06 -3.52966e-05 1.1313e+06 -9.64907e-05 1.22675e+07)
(3.94755e+07 4.22343e+06 4.93049e-05 564891 -0.000112528 1.20121e+07)
(3.53463e+07 -1.39288e+06 -0.000172747 -532977 3.39495e-05 1.0444e+07)
(2.34457e+07 -3.75448e+06 2.26165e-05 3.43459e+06 -1.03234e-05 8.0641e+06)
(4.81948e+07 -896957 4.08894e-05 -5.71412e+06 -1.71521e-05 1.27442e+07)
(2.36966e+07 -487886 -4.89342e-05 4.67747e+06 -4.76172e-06 8.51223e+06)
(2.9739e+07 -693488 -3.08247e-06 144452 -5.71979e-06 8.96503e+06)
(5.32358e+07 4.85757e+06 0.000252815 1.57765e+06 4.88642e-06 1.6444e+07)
(2.78291e+07 -2.28813e+06 1.52139e-05 1.88308e+06 2.8067e-05 8.91364e+06)
(2.35987e+07 -2.99856e+06 2.38658e-05 4.1566e+06 -1.24184e-05 8.32659e+06)
(2.60669e+07 -346892 7.00561e-06 6.15262e+06 9.89543e-06 9.66585e+06)