/*--------------------------------*- C++ -*----------------------------------*\
| =========                 |                                                 |
| \\      /  F ield         | OpenFOAM: The Open Source CFD Toolbox           |
|  \\    /   O peration     | Version:  v2012                                 |
|   \\  /    A nd           | Website:  www.openfoam.com                      |
|    \\/     M anipulation  |                                                 |
\*---------------------------------------------------------------------------*/
FoamFile
{
    version     2.0;
    format      ascii;
    class       pointSymmTensorField;
    location    "10";
    object      pEpsilon;
}
// * * * * * * * * * * * * * * * * * * * * * * * * * * * * * * * * * * * * * //

dimensions      [0 0 0 0 0 0 0];


internalField   nonuniform List<symmTensor> 
530
(
(0.00061932 -0.000136045 0 -0.00248434 0 0)
(0.00147901 -2.86497e-05 0 -0.000126032 0 0)
(0.00173571 -3.5508e-06 0 -0.000746505 0 0)
(0.00157481 0.000357376 0 -0.000825508 2.1684e-18 0)
(0.00942815 -0.000414818 0 -0.00516772 8.67362e-18 0)
(0.00061932 -0.000136045 0 -0.00248434 0 0)
(0.00147901 -2.86497e-05 0 -0.000126032 0 0)
(0.00173571 -3.5508e-06 0 -0.000746505 0 0)
(0.00157481 0.000357376 0 -0.000825508 2.1684e-18 0)
(0.00942815 -0.000414818 0 -0.00516772 8.67362e-18 0)
(0.000467514 -0.000152 0 -0.00125514 0 0)
(0.000348389 -0.000193863 0 -0.000625115 0 0)
(0.000388483 -0.000145946 0 -0.00032559 0 0)
(0.000535959 -0.000149436 0 -0.000214065 0 0)
(0.000711812 -0.000136681 0 -0.000198613 0 0)
(0.000841571 -0.000100245 0 -0.000191137 0 0)
(0.000976606 -8.98425e-05 0 -0.000193116 0 0)
(0.00108557 -6.64542e-05 0 -0.000226762 0 0)
(0.00121185 -5.63452e-05 0 -0.00025497 0 0)
(0.00130477 -4.30044e-05 0 -0.000298599 0 0)
(0.00139772 -4.79517e-05 0 -0.000311345 0 0)
(0.0014563 -6.21512e-05 0 -0.000316914 0 0)
(0.00149061 -4.14219e-05 0 -0.000294909 0 0)
(0.00149719 -2.37864e-05 0 -0.000223764 0 0)
(0.00152666 -1.50297e-05 0 -0.000155016 -8.47033e-21 0)
(0.00151956 -2.63058e-05 0 -0.000197179 0 0)
(0.00155749 -5.06007e-05 0 -0.000276078 0 0)
(0.00157681 -5.58633e-05 0 -0.000353896 0 0)
(0.00162689 -6.19354e-05 0 -0.000469104 0 0)
(0.00166827 -5.93421e-05 0 -0.000574437 0 0)
(0.00168852 -4.56877e-05 0 -0.000648575 0 0)
(0.00172182 -2.3482e-05 0 -0.000717804 0 0)
(0.0017251 -1.01705e-05 0 -0.000742468 0 0)
(0.00174069 -5.66426e-06 0 -0.000752457 0 0)
(0.00176517 -2.81564e-05 0 -0.000758811 0 0)
(0.00183222 -5.8364e-05 0 -0.000794794 0 0)
(0.00192548 -5.49163e-05 0 -0.000829808 0 0)
(0.0020631 -6.48633e-05 0 -0.000885244 0 0)
(0.00219454 -9.5285e-05 0 -0.000918342 0 0)
(0.00238777 -8.89641e-05 0 -0.00100779 0 0)
(0.00255941 -0.000106597 0 -0.00104325 0 0)
(0.00278231 -0.000113787 0 -0.00113841 0 0)
(0.00295308 -0.000133921 0 -0.00116655 0 0)
(0.00317419 -9.49512e-05 0 -0.00129922 0 0)
(0.00335984 -6.85509e-05 0 -0.00147541 0 0)
(0.00333567 -2.93094e-05 0 -0.00127715 0 0)
(0.00336212 4.17331e-05 0 -0.00137837 0 0)
(0.00321316 0.000144635 0 -0.00134124 0 0)
(0.00293895 0.000221326 0 -0.00125586 0 0)
(0.00249954 0.000269412 0 -0.001159 0 0)
(0.00189678 0.000208059 2.71051e-19 -0.000980774 0 0)
(0.00150359 0.000240986 0 -0.000773861 0 0)
(0.00242314 0.000297673 0 -0.000878781 0 0)
(0.00328919 0.00027324 0 -0.00102577 2.1684e-18 0)
(0.00458336 0.000239268 0 -0.00200878 4.33681e-18 0)
(0.00673047 -0.000175246 0 -0.00384894 0 0)
(0.00834291 -0.00237512 -4.33681e-18 -0.00540524 -1.0842e-18 0)
(0.00474117 -0.00234421 -3.25261e-18 -0.00163068 1.0842e-18 0)
(0.00236029 -0.00146599 0 -0.00063971 0 0)
(0.0012095 -0.000630953 0 -0.00059933 0 0)
(0.000623793 -9.69319e-05 0 -0.00109028 0 0)
(0.000608 0.000280244 0 -0.00174577 0 0)
(0.000673195 0.000282424 0 -0.00229314 0 0)
(0.000467514 -0.000152 0 -0.00125514 0 0)
(0.000348389 -0.000193863 0 -0.000625115 0 0)
(0.000388483 -0.000145946 0 -0.00032559 0 0)
(0.000535959 -0.000149436 0 -0.000214065 0 0)
(0.000711812 -0.000136681 0 -0.000198613 0 0)
(0.000841571 -0.000100245 0 -0.000191137 0 0)
(0.000976606 -8.98425e-05 0 -0.000193116 0 0)
(0.00108557 -6.64542e-05 0 -0.000226762 0 0)
(0.00121185 -5.63452e-05 0 -0.00025497 0 0)
(0.00130477 -4.30044e-05 0 -0.000298599 0 0)
(0.00139772 -4.79517e-05 0 -0.000311345 0 0)
(0.0014563 -6.21512e-05 0 -0.000316914 0 0)
(0.00149061 -4.14219e-05 0 -0.000294909 0 0)
(0.00149719 -2.37864e-05 0 -0.000223764 0 0)
(0.00152666 -1.50297e-05 0 -0.000155016 -8.47033e-21 0)
(0.00151956 -2.63058e-05 0 -0.000197179 0 0)
(0.00155749 -5.06007e-05 0 -0.000276078 0 0)
(0.00157681 -5.58633e-05 0 -0.000353896 0 0)
(0.00162689 -6.19354e-05 0 -0.000469104 0 0)
(0.00166827 -5.93421e-05 0 -0.000574437 0 0)
(0.00168852 -4.56877e-05 0 -0.000648575 0 0)
(0.00172182 -2.3482e-05 0 -0.000717804 0 0)
(0.0017251 -1.01705e-05 0 -0.000742468 0 0)
(0.00174069 -5.66426e-06 0 -0.000752457 0 0)
(0.00176517 -2.81564e-05 0 -0.000758811 0 0)
(0.00183222 -5.8364e-05 0 -0.000794794 0 0)
(0.00192548 -5.49163e-05 0 -0.000829808 0 0)
(0.0020631 -6.48633e-05 0 -0.000885244 0 0)
(0.00219454 -9.5285e-05 0 -0.000918342 0 0)
(0.00238777 -8.89641e-05 0 -0.00100779 0 0)
(0.00255941 -0.000106597 0 -0.00104325 0 0)
(0.00278231 -0.000113787 0 -0.00113841 0 0)
(0.00295308 -0.000133921 0 -0.00116655 0 0)
(0.00317419 -9.49512e-05 0 -0.00129922 0 0)
(0.00335984 -6.85509e-05 0 -0.00147541 0 0)
(0.00333567 -2.93094e-05 0 -0.00127715 0 0)
(0.00336212 4.17331e-05 0 -0.00137837 0 0)
(0.00321316 0.000144635 0 -0.00134124 0 0)
(0.00293895 0.000221326 0 -0.00125586 0 0)
(0.00249954 0.000269412 0 -0.001159 0 0)
(0.00189678 0.000208059 2.71051e-19 -0.000980774 0 0)
(0.00150359 0.000240986 0 -0.000773861 0 0)
(0.00242314 0.000297673 0 -0.000878781 0 0)
(0.00328919 0.00027324 0 -0.00102577 2.1684e-18 0)
(0.00458336 0.000239268 0 -0.00200878 4.33681e-18 0)
(0.00673047 -0.000175246 0 -0.00384894 0 0)
(0.00834291 -0.00237512 -4.33681e-18 -0.00540524 -1.0842e-18 0)
(0.00474117 -0.00234421 -3.25261e-18 -0.00163068 1.0842e-18 0)
(0.00236029 -0.00146599 0 -0.00063971 0 0)
(0.0012095 -0.000630953 0 -0.00059933 0 0)
(0.000623793 -9.69319e-05 0 -0.00109028 0 0)
(0.000608 0.000280244 0 -0.00174577 0 0)
(0.000673195 0.000282424 0 -0.00229314 0 0)
(0.00186818 -0.000781876 0 -0.000977026 0 0)
(0.00162811 -0.000499182 0 -0.000555014 0 0)
(0.0028526 -0.000167227 0 -0.00156626 0 0)
(0.00202061 -0.000601495 0 -0.000830916 0 0)
(0.00129896 -0.000603498 0 -0.000441655 0 0)
(0.00176707 -0.000270489 0 -0.000664707 0 0)
(0.00152733 -0.000253161 0 -0.000405201 0 0)
(0.00343186 0.000413945 0 -0.00158183 0 0)
(0.00105544 -0.000776329 0 -0.000833661 0 0)
(0.00262252 -0.000394849 0 -0.0012255 0 0)
(0.00134767 -0.000371917 0 -0.000356201 0 0)
(0.00198015 -0.000418793 0 -0.00081575 0 0)
(0.00097297 -0.000569023 0 -0.000374862 0 0)
(0.00190932 -0.000720337 0 -0.00129065 0 0)
(0.00163985 -0.000245183 0 -0.000512212 0 0)
(0.00246694 -0.000452175 0 -0.00107535 0 0)
(0.00165413 -0.00062796 0 -0.000616274 0 0)
(0.00168995 -0.000728779 0 -0.000692788 0 0)
(0.00310735 0.00031885 0 -0.00149617 0 0)
(0.0029287 -0.000247429 0 -0.00151751 0 0)
(0.00140508 -0.000204926 0 -0.000342456 -3.38813e-20 0)
(0.00193596 -0.00023643 0 -0.000797939 0 0)
(0.00151801 -8.90032e-05 0 -0.000296837 0 0)
(0.00177136 -9.74266e-05 0 -0.000721891 0 0)
(0.00230506 -0.000592088 0 -0.00132886 0 0)
(0.00299781 -3.50128e-05 0 -0.00140847 0 0)
(0.00227369 -0.000362081 0 -0.000969545 0 0)
(0.00112797 -0.000328767 0 -0.000272049 0 0)
(0.00167285 -0.000376649 0 -0.000562995 0 0)
(0.00150534 -0.000385105 0 -0.000439475 0 0)
(0.00287436 0.00056045 5.42101e-19 -0.00107039 0 0)
(0.00211019 -0.000651896 0 -0.000959413 2.71051e-19 0)
(0.0015652 -0.000167692 0 -0.000387188 0 0)
(0.00170509 -0.000164829 0 -0.000610725 0 0)
(0.00181909 -0.000411973 0 -0.000698005 0 0)
(0.0046095 -0.000331749 5.96311e-18 -0.0019112 0 0)
(0.00138507 -0.000766932 0 -0.0006284 1.35525e-19 0)
(0.000939967 -0.000355114 0 -0.000236404 0 0)
(0.000622872 -0.000499464 0 -0.000442735 0 0)
(0.000540954 -0.000379506 0 -0.000937665 0 0)
(0.00165662 -0.000825747 0 -0.00103072 0 0)
(0.00111636 -0.00055568 0 -0.0011818 0 0)
(0.00186154 -0.000559651 0 -0.000726189 0 0)
(0.00137288 -0.000513345 0 -0.000407425 0 0)
(0.00285531 -0.000267449 0 -0.00126978 0 0)
(0.00294827 0.000577619 0 -0.00133423 0 0)
(0.00245576 -0.000348047 0 -0.0010592 0 0)
(0.0014714 -0.000125332 0 -0.000334745 0 0)
(0.00183075 -0.000124468 0 -0.000763896 0 0)
(0.00213448 -0.000539598 0 -0.00126996 0 0)
(0.00128434 -0.000189995 0 -0.000300126 0 0)
(0.00205685 -0.000251938 0 -0.000858192 0 0)
(0.00115378 -0.000785924 0 -0.000640039 0 0)
(0.00268703 -0.000333188 0 -0.00139594 0 0)
(0.00219951 -0.000645296 0 -0.00112705 0 0)
(0.00318765 0.000189338 0 -0.0016427 0 0)
(0.00301566 -0.000126451 0 -0.0013525 0 0)
(0.00350441 -0.000422812 1.0842e-18 -0.00161647 0 0)
(0.00159231 -0.000297373 0 -0.000471614 0 0)
(0.0017995 -0.00050353 0 -0.000676947 0 0)
(0.00150549 -0.000477972 0 -0.000462386 0 0)
(0.00070661 -0.000324833 0 -0.000247716 0 0)
(0.00117206 -0.000640053 0 -0.000434148 0 0)
(0.00263354 -0.000371324 0 -0.00155551 0 0)
(0.00159914 -0.000137835 0 -0.00044322 0 0)
(0.0031413 0.00013404 0 -0.00143263 0 0)
(0.00244785 -0.000496856 0 -0.00112041 0 0)
(0.00373082 8.20485e-05 5.42101e-19 -0.00127206 0 0)
(0.00220292 -0.000228108 0 -0.000936711 0 0)
(0.00117448 -0.000156429 0 -0.000254067 0 0)
(0.00177703 -0.000667455 0 -0.000711978 0 0)
(0.00220323 -0.00058306 0 -0.000966439 0 0)
(0.0015523 -0.000665836 0 -0.000574316 0 0)
(0.00144276 -0.000555531 0 -0.00117252 0 0)
(0.00169152 -0.000293437 0 -0.000588008 0 0)
(0.00172065 -9.03553e-05 0 -0.000669717 0 0)
(0.00153427 -9.44438e-05 0 -0.000301205 0 0)
(0.00301513 6.26531e-05 0 -0.00153066 0 0)
(0.00274756 -0.000262607 0 -0.00117898 0 0)
(0.00146912 -0.000777296 0 -0.00108587 0 0)
(0.00160712 -0.000420943 0 -0.000516065 0 0)
(0.00150561 -5.01397e-05 0 -0.000248534 1.69407e-20 0)
(0.00174453 -2.98653e-05 0 -0.000728175 0 0)
(0.00170861 -0.00056311 0 -0.000625378 0 0)
(0.00165733 -0.000136999 0 -0.000535838 0 0)
(0.000470781 -0.00034099 0 -0.000611466 0 0)
(0.0014322 -0.000713486 0 -0.000566847 0 0)
(0.00222622 -0.000501247 0 -0.000942989 0 0)
(0.00206161 -0.000520636 0 -0.000834599 2.71051e-19 0)
(0.000979745 -0.000226991 0 -0.000217959 0 0)
(0.00109466 -0.000439412 0 -0.00030216 0 0)
(0.00141405 -0.000329693 0 -0.000378448 0 0)
(0.00127069 -0.000424071 0 -0.000342223 0 0)
(0.00148653 -0.000292842 0 -0.00039569 0 0)
(0.00184231 -0.000741231 0 -0.000839405 0 0)
(0.00193716 -0.000683355 0 -0.000829466 0 0)
(0.00171424 -0.000441727 0 -0.000607145 0 0)
(0.00174799 -0.000181211 0 -0.000674511 0 0)
(0.00153364 -0.000173212 0 -0.000358342 0 0)
(0.00301688 0.000415517 0 -0.00137105 0 0)
(0.00258807 0.000513379 0 -0.00111132 0 0)
(0.00221288 -0.000696362 0 -0.0010382 0 0)
(0.00184079 -0.000304278 0 -0.000723136 0 0)
(0.00134407 -0.000101026 0 -0.000309907 -1.69407e-20 0)
(0.00199251 -0.000725867 0 -0.00125649 0 0)
(0.00199591 -0.000133578 0 -0.00084938 0 0)
(0.00317616 1.77163e-05 0 -0.00139115 0 0)
(0.0019374 -0.000354315 4.33681e-18 -0.000786161 0 0)
(0.00151744 -0.000812096 0 -0.000817615 0 0)
(0.00149901 -7.31163e-05 0 -0.000310078 1.69407e-20 0)
(0.0017982 -6.51162e-05 0 -0.000750339 0 0)
(0.00152027 -0.000548787 0 -0.000498991 0 0)
(0.00174763 -0.000356799 0 -0.000644536 0 0)
(0.00332242 5.33942e-05 0 -0.00166988 0 0)
(0.00319002 0.000508755 0 -0.00153683 0 0)
(0.00256008 -0.000433668 0 -0.00147963 -5.42101e-19 0)
(0.00215566 0.000280787 0 -0.000770553 2.1684e-18 0)
(0.002459 -0.000218707 0 -0.00104287 0 0)
(0.00293025 -0.000139887 0 -0.00163023 0 0)
(0.000732974 -0.000143206 0 -0.00137181 0 0)
(0.00158701 -0.00022831 0 -0.000450445 0 0)
(0.00194825 -0.000737921 0 -0.00105884 0 0)
(0.00155779 -0.000344851 0 -0.000458281 0 0)
(0.00526905 -0.00147541 1.0842e-18 -0.00306306 -2.1684e-18 0)
(0.0035249 0.000469737 -5.42101e-19 -0.0013671 0 0)
(0.00281952 -0.000207496 0 -0.00138453 0 0)
(0.00212627 -0.000402916 0 -0.000862243 0 0)
(0.00146752 -0.000218797 0 -0.000367412 0 0)
(0.00180251 -0.000208568 0 -0.000719237 0 0)
(0.00708257 -0.00106055 2.1684e-18 -0.00417037 0 0)
(0.000780454 -0.000244438 0 -0.000206916 -1.69407e-20 0)
(0.000938824 -0.000734386 0 -0.000644277 0 0)
(0.000579145 -0.000268129 0 -0.000295301 0 0)
(0.000573157 -4.16862e-05 0 -0.00152164 0 0)
(0.000835735 -0.000652984 0 -0.000947331 0 0)
(0.00270817 -0.000221232 0 -0.00114917 0 0)
(0.00206544 -0.000692987 0 -0.000989974 0 0)
(0.00106165 -0.000153403 0 -0.000218076 8.47033e-21 0)
(0.000700771 -0.000601766 0 -0.000691083 -6.77626e-20 0)
(0.0037625 0.000159736 -1.0842e-18 -0.00159386 0 0)
(0.00185724 -0.000611474 0 -0.000735868 0 0)
(0.00156079 -9.21479e-05 0 -0.000346915 0 0)
(0.00168526 -8.99116e-05 0 -0.000609369 0 0)
(0.00189621 -0.000118394 0 -0.000800991 0 0)
(0.00133742 -0.000805148 0 -0.000832778 0 0)
(0.00141707 -8.88911e-05 0 -0.00032181 0 0)
(0.00538091 -0.000388738 8.13152e-19 -0.00253458 0 0)
(0.00168263 -0.000221101 0 -0.000570065 0 0)
(0.0028289 0.000205209 5.42101e-19 -0.000801849 0 0)
(0.000785927 -0.00011178 0 -0.00117274 0 0)
(0.00143126 -0.000596471 0 -0.000477363 0 0)
(0.00313156 0.000635532 0 -0.00138008 0 0)
(0.00124702 -0.000293389 0 -0.000308258 0 0)
(0.000920999 -0.000458349 0 -0.00027099 0 0)
(0.00238394 -0.000465357 0 -0.00103147 0 0)
(0.00119685 -0.000730455 0 -0.000543863 0 0)
(0.00247346 -0.000516366 0 -0.00128572 0 0)
(0.00122893 -0.00050148 0 -0.00036589 0 0)
(0.00303877 8.20415e-05 0 -0.00159299 0 0)
(0.00161476 -0.000792215 0 -0.000779836 0 0)
(0.0031195 -0.00015622 0 -0.00138507 0 0)
(0.000698932 -0.00049155 0 -0.000343711 -3.38813e-20 0)
(0.00195063 -0.000494095 0 -0.000778442 0 0)
(0.000376769 -0.000157169 0 -0.000890021 -3.38813e-20 0)
(0.00287467 -0.000105607 0 -0.00144395 0 0)
(0.00281646 -0.000265519 0 -0.00128558 0 0)
(0.0017184 -0.000230898 0 -0.000623107 0 0)
(0.00173961 -4.29848e-05 0 -0.000706459 0 0)
(0.00150829 -5.31231e-05 0 -0.00024977 0 0)
(0.003061 -0.00103933 0 -0.00129242 -1.0842e-18 0)
(0.0016494 -0.000320663 0 -0.00053126 1.35525e-19 0)
(0.00150631 -0.000162064 0 -0.00034827 0 0)
(0.00234566 -0.000552987 0 -0.00106525 0 0)
(0.00236114 -0.000184026 0 -0.0010239 0 0)
(0.00259477 -0.000413788 0 -0.00145837 0 0)
(0.00190103 -0.000445881 0 -0.000748105 0 0)
(0.00262245 -0.000391098 0 -0.0011719 0 0)
(0.00144486 -0.000415939 0 -0.000417535 0 0)
(0.00186348 -0.000205883 0 -0.000764152 0 0)
(0.00140221 -0.000465814 0 -0.000406674 0 0)
(0.00155303 -0.000445152 0 -0.000475256 0 0)
(0.00157084 -0.000770595 0 -0.000694758 1.35525e-19 0)
(0.00229448 -0.000594616 0 -0.00146334 0 0)
(0.00256854 -0.000355834 0 -0.00109693 0 0)
(0.00279823 0.000405839 0 -0.00123217 0 0)
(0.00134563 -0.000488897 0 -0.000897868 0 0)
(0.00154415 -0.000697507 0 -0.0012418 0 0)
(0.000949915 -0.00065542 0 -0.000483668 0 0)
(0.00213141 0.000416863 0 -0.000827132 0 0)
(0.00309395 0.000252167 0 -0.00136793 0 0)
(0.00134902 -0.000274855 0 -0.000336849 -3.38813e-20 0)
(0.00126677 -9.64745e-05 0 -0.000274434 -8.47033e-21 0)
(0.000434356 -0.000230142 0 -0.000400487 -1.69407e-20 0)
(0.00295387 -0.00014366 0 -0.0012694 0 0)
(0.00240069 -0.000563141 0 -0.0011964 0 0)
(0.00210851 -0.000141177 0 -0.000898764 0 0)
(0.00176402 -0.000604546 0 -0.000683779 0 0)
(0.00161208 -0.000363482 0 -0.000513508 0 0)
(0.00206672 -0.00034453 0 -0.000858384 0 0)
(0.00227007 -0.000550499 0 -0.00146784 0 0)
(0.00149895 -4.73473e-05 0 -0.000274258 0 0)
(0.00175404 -2.75091e-05 0 -0.000745527 0 0)
(0.00261314 -0.000191595 0 -0.00111233 0 0)
(0.00155997 -0.000231384 0 -0.000418068 0 0)
(0.00150166 -1.4565e-05 0 -0.000179636 0 0)
(0.00173707 -7.61732e-06 0 -0.00074263 0 0)
(0.00224995 -0.000605181 0 -0.00107309 0 0)
(0.00186818 -0.000781876 0 -0.000977026 0 0)
(0.00162811 -0.000499182 0 -0.000555014 0 0)
(0.0028526 -0.000167227 0 -0.00156626 0 0)
(0.00202061 -0.000601495 0 -0.000830916 0 0)
(0.00129896 -0.000603498 0 -0.000441655 0 0)
(0.00176707 -0.000270489 0 -0.000664707 0 0)
(0.00152733 -0.000253161 0 -0.000405201 0 0)
(0.00343186 0.000413945 0 -0.00158183 0 0)
(0.00105544 -0.000776329 0 -0.000833661 0 0)
(0.00262252 -0.000394849 0 -0.0012255 0 0)
(0.00134767 -0.000371917 0 -0.000356201 0 0)
(0.00198015 -0.000418793 0 -0.00081575 0 0)
(0.00097297 -0.000569023 0 -0.000374862 0 0)
(0.00190932 -0.000720337 0 -0.00129065 0 0)
(0.00163985 -0.000245183 0 -0.000512212 0 0)
(0.00246694 -0.000452175 0 -0.00107535 0 0)
(0.00165413 -0.00062796 0 -0.000616274 0 0)
(0.00168995 -0.000728779 0 -0.000692788 0 0)
(0.00310735 0.00031885 0 -0.00149617 0 0)
(0.0029287 -0.000247429 0 -0.00151751 0 0)
(0.00140508 -0.000204926 0 -0.000342456 -3.38813e-20 0)
(0.00193596 -0.00023643 0 -0.000797939 0 0)
(0.00151801 -8.90032e-05 0 -0.000296837 0 0)
(0.00177136 -9.74266e-05 0 -0.000721891 0 0)
(0.00230506 -0.000592088 0 -0.00132886 0 0)
(0.00299781 -3.50128e-05 0 -0.00140847 0 0)
(0.00227369 -0.000362081 0 -0.000969545 0 0)
(0.00112797 -0.000328767 0 -0.000272049 0 0)
(0.00167285 -0.000376649 0 -0.000562995 0 0)
(0.00150534 -0.000385105 0 -0.000439475 0 0)
(0.00287436 0.00056045 5.42101e-19 -0.00107039 0 0)
(0.00211019 -0.000651896 0 -0.000959413 2.71051e-19 0)
(0.0015652 -0.000167692 0 -0.000387188 0 0)
(0.00170509 -0.000164829 0 -0.000610725 0 0)
(0.00181909 -0.000411973 0 -0.000698005 0 0)
(0.0046095 -0.000331749 5.96311e-18 -0.0019112 0 0)
(0.00138507 -0.000766932 0 -0.0006284 1.35525e-19 0)
(0.000939967 -0.000355114 0 -0.000236404 0 0)
(0.000622872 -0.000499464 0 -0.000442735 0 0)
(0.000540954 -0.000379506 0 -0.000937665 0 0)
(0.00165662 -0.000825747 0 -0.00103072 0 0)
(0.00111636 -0.00055568 0 -0.0011818 0 0)
(0.00186154 -0.000559651 0 -0.000726189 0 0)
(0.00137288 -0.000513345 0 -0.000407425 0 0)
(0.00285531 -0.000267449 0 -0.00126978 0 0)
(0.00294827 0.000577619 0 -0.00133423 0 0)
(0.00245576 -0.000348047 0 -0.0010592 0 0)
(0.0014714 -0.000125332 0 -0.000334745 0 0)
(0.00183075 -0.000124468 0 -0.000763896 0 0)
(0.00213448 -0.000539598 0 -0.00126996 0 0)
(0.00128434 -0.000189995 0 -0.000300126 0 0)
(0.00205685 -0.000251938 0 -0.000858192 0 0)
(0.00115378 -0.000785924 0 -0.000640039 0 0)
(0.00268703 -0.000333188 0 -0.00139594 0 0)
(0.00219951 -0.000645296 0 -0.00112705 0 0)
(0.00318765 0.000189338 0 -0.0016427 0 0)
(0.00301566 -0.000126451 0 -0.0013525 0 0)
(0.00350441 -0.000422812 1.0842e-18 -0.00161647 0 0)
(0.00159231 -0.000297373 0 -0.000471614 0 0)
(0.0017995 -0.00050353 0 -0.000676947 0 0)
(0.00150549 -0.000477972 0 -0.000462386 0 0)
(0.00070661 -0.000324833 0 -0.000247716 0 0)
(0.00117206 -0.000640053 0 -0.000434148 0 0)
(0.00263354 -0.000371324 0 -0.00155551 0 0)
(0.00159914 -0.000137835 0 -0.00044322 0 0)
(0.0031413 0.00013404 0 -0.00143263 0 0)
(0.00244785 -0.000496856 0 -0.00112041 0 0)
(0.00373082 8.20485e-05 5.42101e-19 -0.00127206 0 0)
(0.00220292 -0.000228108 0 -0.000936711 0 0)
(0.00117448 -0.000156429 0 -0.000254067 0 0)
(0.00177703 -0.000667455 0 -0.000711978 0 0)
(0.00220323 -0.00058306 0 -0.000966439 0 0)
(0.0015523 -0.000665836 0 -0.000574316 0 0)
(0.00144276 -0.000555531 0 -0.00117252 0 0)
(0.00169152 -0.000293437 0 -0.000588008 0 0)
(0.00172065 -9.03553e-05 0 -0.000669717 0 0)
(0.00153427 -9.44438e-05 0 -0.000301205 0 0)
(0.00301513 6.26531e-05 0 -0.00153066 0 0)
(0.00274756 -0.000262607 0 -0.00117898 0 0)
(0.00146912 -0.000777296 0 -0.00108587 0 0)
(0.00160712 -0.000420943 0 -0.000516065 0 0)
(0.00150561 -5.01397e-05 0 -0.000248534 1.69407e-20 0)
(0.00174453 -2.98653e-05 0 -0.000728175 0 0)
(0.00170861 -0.00056311 0 -0.000625378 0 0)
(0.00165733 -0.000136999 0 -0.000535838 0 0)
(0.000470781 -0.00034099 0 -0.000611466 0 0)
(0.0014322 -0.000713486 0 -0.000566847 0 0)
(0.00222622 -0.000501247 0 -0.000942989 0 0)
(0.00206161 -0.000520636 0 -0.000834599 2.71051e-19 0)
(0.000979745 -0.000226991 0 -0.000217959 0 0)
(0.00109466 -0.000439412 0 -0.00030216 0 0)
(0.00141405 -0.000329693 0 -0.000378448 0 0)
(0.00127069 -0.000424071 0 -0.000342223 0 0)
(0.00148653 -0.000292842 0 -0.00039569 0 0)
(0.00184231 -0.000741231 0 -0.000839405 0 0)
(0.00193716 -0.000683355 0 -0.000829466 0 0)
(0.00171424 -0.000441727 0 -0.000607145 0 0)
(0.00174799 -0.000181211 0 -0.000674511 0 0)
(0.00153364 -0.000173212 0 -0.000358342 0 0)
(0.00301688 0.000415517 0 -0.00137105 0 0)
(0.00258807 0.000513379 0 -0.00111132 0 0)
(0.00221288 -0.000696362 0 -0.0010382 0 0)
(0.00184079 -0.000304278 0 -0.000723136 0 0)
(0.00134407 -0.000101026 0 -0.000309907 -1.69407e-20 0)
(0.00199251 -0.000725867 0 -0.00125649 0 0)
(0.00199591 -0.000133578 0 -0.00084938 0 0)
(0.00317616 1.77163e-05 0 -0.00139115 0 0)
(0.0019374 -0.000354315 4.33681e-18 -0.000786161 0 0)
(0.00151744 -0.000812096 0 -0.000817615 0 0)
(0.00149901 -7.31163e-05 0 -0.000310078 1.69407e-20 0)
(0.0017982 -6.51162e-05 0 -0.000750339 0 0)
(0.00152027 -0.000548787 0 -0.000498991 0 0)
(0.00174763 -0.000356799 0 -0.000644536 0 0)
(0.00332242 5.33942e-05 0 -0.00166988 0 0)
(0.00319002 0.000508755 0 -0.00153683 0 0)
(0.00256008 -0.000433668 0 -0.00147963 -5.42101e-19 0)
(0.00215566 0.000280787 0 -0.000770553 2.1684e-18 0)
(0.002459 -0.000218707 0 -0.00104287 0 0)
(0.00293025 -0.000139887 0 -0.00163023 0 0)
(0.000732974 -0.000143206 0 -0.00137181 0 0)
(0.00158701 -0.00022831 0 -0.000450445 0 0)
(0.00194825 -0.000737921 0 -0.00105884 0 0)
(0.00155779 -0.000344851 0 -0.000458281 0 0)
(0.00526905 -0.00147541 1.0842e-18 -0.00306306 -2.1684e-18 0)
(0.0035249 0.000469737 -5.42101e-19 -0.0013671 0 0)
(0.00281952 -0.000207496 0 -0.00138453 0 0)
(0.00212627 -0.000402916 0 -0.000862243 0 0)
(0.00146752 -0.000218797 0 -0.000367412 0 0)
(0.00180251 -0.000208568 0 -0.000719237 0 0)
(0.00708257 -0.00106055 2.1684e-18 -0.00417037 0 0)
(0.000780454 -0.000244438 0 -0.000206916 -1.69407e-20 0)
(0.000938824 -0.000734386 0 -0.000644277 0 0)
(0.000579145 -0.000268129 0 -0.000295301 0 0)
(0.000573157 -4.16862e-05 0 -0.00152164 0 0)
(0.000835735 -0.000652984 0 -0.000947331 0 0)
(0.00270817 -0.000221232 0 -0.00114917 0 0)
(0.00206544 -0.000692987 0 -0.000989974 0 0)
(0.00106165 -0.000153403 0 -0.000218076 8.47033e-21 0)
(0.000700771 -0.000601766 0 -0.000691083 -6.77626e-20 0)
(0.0037625 0.000159736 -1.0842e-18 -0.00159386 0 0)
(0.00185724 -0.000611474 0 -0.000735868 0 0)
(0.00156079 -9.21479e-05 0 -0.000346915 0 0)
(0.00168526 -8.99116e-05 0 -0.000609369 0 0)
(0.00189621 -0.000118394 0 -0.000800991 0 0)
(0.00133742 -0.000805148 0 -0.000832778 0 0)
(0.00141707 -8.88911e-05 0 -0.00032181 0 0)
(0.00538091 -0.000388738 8.13152e-19 -0.00253458 0 0)
(0.00168263 -0.000221101 0 -0.000570065 0 0)
(0.0028289 0.000205209 5.42101e-19 -0.000801849 0 0)
(0.000785927 -0.00011178 0 -0.00117274 0 0)
(0.00143126 -0.000596471 0 -0.000477363 0 0)
(0.00313156 0.000635532 0 -0.00138008 0 0)
(0.00124702 -0.000293389 0 -0.000308258 0 0)
(0.000920999 -0.000458349 0 -0.00027099 0 0)
(0.00238394 -0.000465357 0 -0.00103147 0 0)
(0.00119685 -0.000730455 0 -0.000543863 0 0)
(0.00247346 -0.000516366 0 -0.00128572 0 0)
(0.00122893 -0.00050148 0 -0.00036589 0 0)
(0.00303877 8.20415e-05 0 -0.00159299 0 0)
(0.00161476 -0.000792215 0 -0.000779836 0 0)
(0.0031195 -0.00015622 0 -0.00138507 0 0)
(0.000698932 -0.00049155 0 -0.000343711 -3.38813e-20 0)
(0.00195063 -0.000494095 0 -0.000778442 0 0)
(0.000376769 -0.000157169 0 -0.000890021 -3.38813e-20 0)
(0.00287467 -0.000105607 0 -0.00144395 0 0)
(0.00281646 -0.000265519 0 -0.00128558 0 0)
(0.0017184 -0.000230898 0 -0.000623107 0 0)
(0.00173961 -4.29848e-05 0 -0.000706459 0 0)
(0.00150829 -5.31231e-05 0 -0.00024977 0 0)
(0.003061 -0.00103933 0 -0.00129242 -1.0842e-18 0)
(0.0016494 -0.000320663 0 -0.00053126 1.35525e-19 0)
(0.00150631 -0.000162064 0 -0.00034827 0 0)
(0.00234566 -0.000552987 0 -0.00106525 0 0)
(0.00236114 -0.000184026 0 -0.0010239 0 0)
(0.00259477 -0.000413788 0 -0.00145837 0 0)
(0.00190103 -0.000445881 0 -0.000748105 0 0)
(0.00262245 -0.000391098 0 -0.0011719 0 0)
(0.00144486 -0.000415939 0 -0.000417535 0 0)
(0.00186348 -0.000205883 0 -0.000764152 0 0)
(0.00140221 -0.000465814 0 -0.000406674 0 0)
(0.00155303 -0.000445152 0 -0.000475256 0 0)
(0.00157084 -0.000770595 0 -0.000694758 1.35525e-19 0)
(0.00229448 -0.000594616 0 -0.00146334 0 0)
(0.00256854 -0.000355834 0 -0.00109693 0 0)
(0.00279823 0.000405839 0 -0.00123217 0 0)
(0.00134563 -0.000488897 0 -0.000897868 0 0)
(0.00154415 -0.000697507 0 -0.0012418 0 0)
(0.000949915 -0.00065542 0 -0.000483668 0 0)
(0.00213141 0.000416863 0 -0.000827132 0 0)
(0.00309395 0.000252167 0 -0.00136793 0 0)
(0.00134902 -0.000274855 0 -0.000336849 -3.38813e-20 0)
(0.00126677 -9.64745e-05 0 -0.000274434 -8.47033e-21 0)
(0.000434356 -0.000230142 0 -0.000400487 -1.69407e-20 0)
(0.00295387 -0.00014366 0 -0.0012694 0 0)
(0.00240069 -0.000563141 0 -0.0011964 0 0)
(0.00210851 -0.000141177 0 -0.000898764 0 0)
(0.00176402 -0.000604546 0 -0.000683779 0 0)
(0.00161208 -0.000363482 0 -0.000513508 0 0)
(0.00206672 -0.00034453 0 -0.000858384 0 0)
(0.00227007 -0.000550499 0 -0.00146784 0 0)
(0.00149895 -4.73473e-05 0 -0.000274258 0 0)
(0.00175404 -2.75091e-05 0 -0.000745527 0 0)
(0.00261314 -0.000191595 0 -0.00111233 0 0)
(0.00155997 -0.000231384 0 -0.000418068 0 0)
(0.00150166 -1.4565e-05 0 -0.000179636 0 0)
(0.00173707 -7.61732e-06 0 -0.00074263 0 0)
(0.00224995 -0.000605181 0 -0.00107309 0 0)
)
;

boundaryField
{
    back
    {
        type            empty;
    }
    front
    {
        type            empty;
    }
    down
    {
        type            calculated;
    }
    right
    {
        type            calculated;
    }
    up
    {
        type            calculated;
    }
    left
    {
        type            calculated;
    }
    hole
    {
        type            calculated;
    }
}


// ************************************************************************* //
