/*--------------------------------*- C++ -*----------------------------------*\
| =========                 |                                                 |
| \\      /  F ield         | OpenFOAM: The Open Source CFD Toolbox           |
|  \\    /   O peration     | Version:  v2012                                 |
|   \\  /    A nd           | Website:  www.openfoam.com                      |
|    \\/     M anipulation  |                                                 |
\*---------------------------------------------------------------------------*/
FoamFile
{
    version     2.0;
    format      ascii;
    class       pointVectorField;
    location    "10";
    object      pointD;
}
// * * * * * * * * * * * * * * * * * * * * * * * * * * * * * * * * * * * * * //

dimensions      [0 1 0 0 0 0 0];


internalField   nonuniform List<vector> 
530
(
(0.00384714 0 0)
(0.00531445 0 0)
(0.00490971 -0.000451408 0)
(0 -0.00280175 0)
(0 -0.0017087 0)
(0.00384714 0 0)
(0.00531445 0 0)
(0.00490971 -0.000451408 0)
(0 -0.00280175 0)
(0 -0.0017087 0)
(0.00389983 0 0)
(0.00394082 0 0)
(0.0039709 0 0)
(0.00401639 0 0)
(0.00407851 0 0)
(0.00415579 0 0)
(0.00424562 0 0)
(0.00434814 0 0)
(0.00446304 0 0)
(0.0045884 0 0)
(0.00472472 0 0)
(0.00486905 0 0)
(0.00501577 0 0)
(0.00516574 0 0)
(0.0053062 -1.08886e-05 0)
(0.00528152 -2.57391e-05 0)
(0.00524543 -4.83838e-05 0)
(0.00519726 -7.79585e-05 0)
(0.00514495 -0.000118727 0)
(0.00508974 -0.000170785 0)
(0.0050349 -0.00023254 0)
(0.00498713 -0.000301744 0)
(0.00494558 -0.000376485 0)
(0.00473636 -0.000486077 0)
(0.00456204 -0.00051705 0)
(0.00438291 -0.000540531 0)
(0.00419718 -0.000556908 0)
(0.00399914 -0.000570678 0)
(0.00378493 -0.000579821 0)
(0.00355588 -0.000597417 0)
(0.00330565 -0.000620407 0)
(0.00303692 -0.000659611 0)
(0.00274273 -0.000719662 0)
(0.00243429 -0.000813276 0)
(0.00210206 -0.000947674 0)
(0.00176232 -0.00110967 0)
(0.00141528 -0.00133303 0)
(0.00108172 -0.00159662 0)
(0.000767958 -0.00189953 0)
(0.000495459 -0.0022175 0)
(0.000279431 -0.00250202 0)
(0.000136194 -0.00270236 0)
(0 -0.00271258 0)
(0 -0.00262297 0)
(0 -0.00250883 0)
(0 -0.00220255 0)
(0.0010005 -0.00164404 0)
(0.00182803 -0.00174535 0)
(0.00241071 -0.00149442 0)
(0.00288822 -0.00119303 0)
(0.0032902 -0.000869136 0)
(0.00358537 -0.000565533 0)
(0.00377011 -0.000281349 0)
(0.00389983 0 0)
(0.00394082 0 0)
(0.0039709 0 0)
(0.00401639 0 0)
(0.00407851 0 0)
(0.00415579 0 0)
(0.00424562 0 0)
(0.00434814 0 0)
(0.00446304 0 0)
(0.0045884 0 0)
(0.00472472 0 0)
(0.00486905 0 0)
(0.00501577 0 0)
(0.00516574 0 0)
(0.0053062 -1.08886e-05 0)
(0.00528152 -2.57391e-05 0)
(0.00524543 -4.83838e-05 0)
(0.00519726 -7.79585e-05 0)
(0.00514495 -0.000118727 0)
(0.00508974 -0.000170785 0)
(0.0050349 -0.00023254 0)
(0.00498713 -0.000301744 0)
(0.00494558 -0.000376485 0)
(0.00473636 -0.000486077 0)
(0.00456204 -0.00051705 0)
(0.00438291 -0.000540531 0)
(0.00419718 -0.000556908 0)
(0.00399914 -0.000570678 0)
(0.00378493 -0.000579821 0)
(0.00355588 -0.000597417 0)
(0.00330565 -0.000620407 0)
(0.00303692 -0.000659611 0)
(0.00274273 -0.000719662 0)
(0.00243429 -0.000813276 0)
(0.00210206 -0.000947674 0)
(0.00176232 -0.00110967 0)
(0.00141528 -0.00133303 0)
(0.00108172 -0.00159662 0)
(0.000767958 -0.00189953 0)
(0.000495459 -0.0022175 0)
(0.000279431 -0.00250202 0)
(0.000136194 -0.00270236 0)
(0 -0.00271258 0)
(0 -0.00262297 0)
(0 -0.00250883 0)
(0 -0.00220255 0)
(0.0010005 -0.00164404 0)
(0.00182803 -0.00174535 0)
(0.00241071 -0.00149442 0)
(0.00288822 -0.00119303 0)
(0.0032902 -0.000869136 0)
(0.00358537 -0.000565533 0)
(0.00377011 -0.000281349 0)
(0.00325511 -0.000268596 0)
(0.00423963 -0.000184358 0)
(0.00211041 -0.000941757 0)
(0.00352674 -0.000301342 0)
(0.00397183 -8.95836e-05 0)
(0.00450886 -0.000311211 0)
(0.00476547 -0.000106939 0)
(0.00104989 -0.00191817 0)
(0.00359223 -0.000168276 0)
(0.00253951 -0.000617789 0)
(0.00436766 -7.46051e-05 0)
(0.00391687 -0.000357859 0)
(0.00388795 -5.63514e-05 0)
(0.00290078 -0.000550937 0)
(0.004797 -0.000186484 0)
(0.00297435 -0.000480408 0)
(0.00391106 -0.000177814 0)
(0.00359767 -0.000189128 0)
(0.00138067 -0.00149193 0)
(0.00182347 -0.00137337 0)
(0.00463565 -5.73158e-05 0)
(0.00418303 -0.000421715 0)
(0.00504734 -4.69778e-05 0)
(0.00464999 -0.000389903 0)
(0.00276521 -0.000510899 0)
(0.00190877 -0.00101603 0)
(0.00350248 -0.000436575 0)
(0.00422569 -3.87054e-05 0)
(0.00449282 -0.000218525 0)
(0.00449351 -0.000121465 0)
(0.000441858 -0.00245896 0)
(0.00319925 -0.000327039 0)
(0.00498163 -0.00010793 0)
(0.00480105 -0.000259361 0)
(0.00422827 -0.000298746 0)
(0.000826218 -0.00222397 0)
(0.00365944 -0.000129654 0)
(0.00408599 -3.14518e-05 0)
(0.00387423 -5.21829e-05 0)
(0.00380384 -0.000126706 0)
(0.00323774 -0.000289709 0)
(0.00339691 -0.00037125 0)
(0.00386572 -0.000263624 0)
(0.00415115 -9.64233e-05 0)
(0.00253029 -0.000673555 0)
(0.000859965 -0.0020051 0)
(0.00320549 -0.000492196 0)
(0.00483559 -4.44517e-05 0)
(0.00442163 -0.000437508 0)
(0.00253273 -0.000944627 0)
(0.00448732 -3.47696e-05 0)
(0.00395712 -0.000452768 0)
(0.00364276 -0.000124396 0)
(0.00236116 -0.00073131 0)
(0.00292782 -0.000412144 0)
(0.00151272 -0.00147802 0)
(0.00208655 -0.000894255 0)
(0.00148749 -0.00175863 0)
(0.00471042 -0.000155189 0)
(0.00408177 -0.000257885 0)
(0.00428646 -0.000131443 0)
(0.00401037 -2.13125e-05 0)
(0.00389316 -7.38152e-05 0)
(0.00234198 -0.00085528 0)
(0.00500295 -0.000136833 0)
(0.00149207 -0.00132278 0)
(0.00283223 -0.000482816 0)
(0.000383296 -0.002492 0)
(0.0037165 -0.000489563 0)
(0.00438631 -2.11011e-05 0)
(0.00367626 -0.000214822 0)
(0.00325129 -0.000361181 0)
(0.00382621 -0.00014525 0)
(0.00302032 -0.000648704 0)
(0.004624 -0.000241927 0)
(0.0048442 -0.00030032 0)
(0.00511177 -6.52712e-05 0)
(0.00179727 -0.00113994 0)
(0.00277076 -0.000601169 0)
(0.00327234 -0.000323346 0)
(0.0044388 -0.000173303 0)
(0.00514599 -2.54409e-05 0)
(0.00477248 -0.000407255 0)
(0.00403577 -0.000205057 0)
(0.00493555 -0.000193867 0)
(0.00389234 -5.5653e-05 0)
(0.00377497 -0.000123584 0)
(0.00337725 -0.000389056 0)
(0.00363471 -0.000337141 0)
(0.00419518 -1.75258e-05 0)
(0.00408432 -5.00733e-05 0)
(0.00450126 -8.34233e-05 0)
(0.00423707 -6.80102e-05 0)
(0.00463376 -9.60503e-05 0)
(0.00338379 -0.00023714 0)
(0.00344108 -0.000263278 0)
(0.00430733 -0.000234123 0)
(0.00465772 -0.000319885 0)
(0.00492442 -8.83901e-05 0)
(0.00103315 -0.00177276 0)
(0.000561237 -0.00229646 0)
(0.00234793 -0.0011996 0)
(0.00432474 -0.000348902 0)
(0.00462223 -2.27242e-05 0)
(0.00298587 -0.000424601 0)
(0.00409582 -0.000501296 0)
(0.00174282 -0.00111513 0)
(0.00407575 -0.000371591 0)
(0.00346006 -0.000184545 0)
(0.00496802 -2.84039e-05 0)
(0.00455512 -0.000451931 0)
(0.00413169 -0.000138744 0)
(0.00442381 -0.000275439 0)
(0.00140304 -0.00167664 0)
(0.00114961 -0.00176447 0)
(0.00246025 -0.00071548 0)
(0.000207943 -0.0026495 0)
(0.00333027 -0.000524814 0)
(0.0019562 -0.00114044 0)
(0.00366875 -0.000294217 0)
(0.00485273 -0.000143436 0)
(0.00307062 -0.000348744 0)
(0.00460093 -0.000138283 0)
(0.00132102 -0.00197284 0)
(0.000723542 -0.00222426 0)
(0.00223245 -0.000800747 0)
(0.00372301 -0.000401012 0)
(0.00475462 -7.33893e-05 0)
(0.00449348 -0.000369488 0)
(0.00061848 -0.0021449 0)
(0.00408846 -1.73984e-05 0)
(0.00370674 -0.000109649 0)
(0.00397467 -1.8634e-05 0)
(0.00385509 -0.000123721 0)
(0.00361096 -0.00021233 0)
(0.00296019 -0.000596062 0)
(0.00312535 -0.000331021 0)
(0.00428604 -1.50029e-05 0)
(0.00375875 -0.000108307 0)
(0.00107914 -0.00197162 0)
(0.00373719 -0.000249312 0)
(0.00511034 -8.85067e-05 0)
(0.00494193 -0.000232026 0)
(0.00428101 -0.000490026 0)
(0.00348327 -0.000188 0)
(0.00474002 -2.41192e-05 0)
(0.000383398 -0.00237288 0)
(0.00476179 -0.000232858 0)
(0.000229863 -0.00259559 0)
(0.00339963 -0.000545725 0)
(0.00400677 -0.000113087 0)
(0.000769365 -0.00214404 0)
(0.00435675 -4.86177e-05 0)
(0.00399125 -4.30726e-05 0)
(0.00316624 -0.00043848 0)
(0.00373174 -9.87538e-05 0)
(0.00266496 -0.000548623 0)
(0.00411776 -6.8743e-05 0)
(0.00178048 -0.00120692 0)
(0.00346966 -0.000191817 0)
(0.0022625 -0.00081593 0)
(0.00391539 -4.22964e-05 0)
(0.0038597 -0.000321546 0)
(0.00389609 -5.83552e-05 0)
(0.0020685 -0.000926388 0)
(0.00239925 -0.000710504 0)
(0.00466547 -0.000274292 0)
(0.00484528 -0.000347457 0)
(0.0051738 -3.93638e-05 0)
(0.00192994 -0.00157832 0)
(0.00463504 -0.000200797 0)
(0.00489015 -6.40522e-05 0)
(0.0030179 -0.000419793 0)
(0.00348488 -0.000530841 0)
(0.00223741 -0.00103313 0)
(0.00404165 -0.000318255 0)
(0.00272173 -0.000556181 0)
(0.00438653 -0.000105721 0)
(0.00433748 -0.000413619 0)
(0.00427378 -9.75169e-05 0)
(0.0043749 -0.000146824 0)
(0.0036016 -0.000162772 0)
(0.00268989 -0.000616439 0)
(0.00300354 -0.000519118 0)
(0.000750169 -0.00203644 0)
(0.00282637 -0.000936492 0)
(0.00314869 -0.000466786 0)
(0.00379454 -7.71199e-05 0)
(0.000323123 -0.00254391 0)
(0.00116483 -0.00159555 0)
(0.00447064 -5.98004e-05 0)
(0.00451699 -1.52179e-05 0)
(0.00394303 -2.6942e-05 0)
(0.00252861 -0.000716773 0)
(0.00278945 -0.000487518 0)
(0.00390899 -0.00052114 0)
(0.00389258 -0.000218857 0)
(0.00457616 -0.000177841 0)
(0.00386747 -0.000414898 0)
(0.00261109 -0.000759484 0)
(0.00507191 -1.65712e-05 0)
(0.00465271 -0.000461484 0)
(0.00315072 -0.000574107 0)
(0.00484858 -0.00011946 0)
(0.00522958 -9.79819e-06 0)
(0.00483332 -0.000429785 0)
(0.00298556 -0.000401381 0)
(0.00325511 -0.000268596 0)
(0.00423963 -0.000184358 0)
(0.00211041 -0.000941757 0)
(0.00352674 -0.000301342 0)
(0.00397183 -8.95836e-05 0)
(0.00450886 -0.000311211 0)
(0.00476547 -0.000106939 0)
(0.00104989 -0.00191817 0)
(0.00359223 -0.000168276 0)
(0.00253951 -0.000617789 0)
(0.00436766 -7.46051e-05 0)
(0.00391687 -0.000357859 0)
(0.00388795 -5.63514e-05 0)
(0.00290078 -0.000550937 0)
(0.004797 -0.000186484 0)
(0.00297435 -0.000480408 0)
(0.00391106 -0.000177814 0)
(0.00359767 -0.000189128 0)
(0.00138067 -0.00149193 0)
(0.00182347 -0.00137337 0)
(0.00463565 -5.73158e-05 0)
(0.00418303 -0.000421715 0)
(0.00504734 -4.69778e-05 0)
(0.00464999 -0.000389903 0)
(0.00276521 -0.000510899 0)
(0.00190877 -0.00101603 0)
(0.00350248 -0.000436575 0)
(0.00422569 -3.87054e-05 0)
(0.00449282 -0.000218525 0)
(0.00449351 -0.000121465 0)
(0.000441858 -0.00245896 0)
(0.00319925 -0.000327039 0)
(0.00498163 -0.00010793 0)
(0.00480105 -0.000259361 0)
(0.00422827 -0.000298746 0)
(0.000826218 -0.00222397 0)
(0.00365944 -0.000129654 0)
(0.00408599 -3.14518e-05 0)
(0.00387423 -5.21829e-05 0)
(0.00380384 -0.000126706 0)
(0.00323774 -0.000289709 0)
(0.00339691 -0.00037125 0)
(0.00386572 -0.000263624 0)
(0.00415115 -9.64233e-05 0)
(0.00253029 -0.000673555 0)
(0.000859965 -0.0020051 0)
(0.00320549 -0.000492196 0)
(0.00483559 -4.44517e-05 0)
(0.00442163 -0.000437508 0)
(0.00253273 -0.000944627 0)
(0.00448732 -3.47696e-05 0)
(0.00395712 -0.000452768 0)
(0.00364276 -0.000124396 0)
(0.00236116 -0.00073131 0)
(0.00292782 -0.000412144 0)
(0.00151272 -0.00147802 0)
(0.00208655 -0.000894255 0)
(0.00148749 -0.00175863 0)
(0.00471042 -0.000155189 0)
(0.00408177 -0.000257885 0)
(0.00428646 -0.000131443 0)
(0.00401037 -2.13125e-05 0)
(0.00389316 -7.38152e-05 0)
(0.00234198 -0.00085528 0)
(0.00500295 -0.000136833 0)
(0.00149207 -0.00132278 0)
(0.00283223 -0.000482816 0)
(0.000383296 -0.002492 0)
(0.0037165 -0.000489563 0)
(0.00438631 -2.11011e-05 0)
(0.00367626 -0.000214822 0)
(0.00325129 -0.000361181 0)
(0.00382621 -0.00014525 0)
(0.00302032 -0.000648704 0)
(0.004624 -0.000241927 0)
(0.0048442 -0.00030032 0)
(0.00511177 -6.52712e-05 0)
(0.00179727 -0.00113994 0)
(0.00277076 -0.000601169 0)
(0.00327234 -0.000323346 0)
(0.0044388 -0.000173303 0)
(0.00514599 -2.54409e-05 0)
(0.00477248 -0.000407255 0)
(0.00403577 -0.000205057 0)
(0.00493555 -0.000193867 0)
(0.00389234 -5.5653e-05 0)
(0.00377497 -0.000123584 0)
(0.00337725 -0.000389056 0)
(0.00363471 -0.000337141 0)
(0.00419518 -1.75258e-05 0)
(0.00408432 -5.00733e-05 0)
(0.00450126 -8.34233e-05 0)
(0.00423707 -6.80102e-05 0)
(0.00463376 -9.60503e-05 0)
(0.00338379 -0.00023714 0)
(0.00344108 -0.000263278 0)
(0.00430733 -0.000234123 0)
(0.00465772 -0.000319885 0)
(0.00492442 -8.83901e-05 0)
(0.00103315 -0.00177276 0)
(0.000561237 -0.00229646 0)
(0.00234793 -0.0011996 0)
(0.00432474 -0.000348902 0)
(0.00462223 -2.27242e-05 0)
(0.00298587 -0.000424601 0)
(0.00409582 -0.000501296 0)
(0.00174282 -0.00111513 0)
(0.00407575 -0.000371591 0)
(0.00346006 -0.000184545 0)
(0.00496802 -2.84039e-05 0)
(0.00455512 -0.000451931 0)
(0.00413169 -0.000138744 0)
(0.00442381 -0.000275439 0)
(0.00140304 -0.00167664 0)
(0.00114961 -0.00176447 0)
(0.00246025 -0.00071548 0)
(0.000207943 -0.0026495 0)
(0.00333027 -0.000524814 0)
(0.0019562 -0.00114044 0)
(0.00366875 -0.000294217 0)
(0.00485273 -0.000143436 0)
(0.00307062 -0.000348744 0)
(0.00460093 -0.000138283 0)
(0.00132102 -0.00197284 0)
(0.000723542 -0.00222426 0)
(0.00223245 -0.000800747 0)
(0.00372301 -0.000401012 0)
(0.00475462 -7.33893e-05 0)
(0.00449348 -0.000369488 0)
(0.00061848 -0.0021449 0)
(0.00408846 -1.73984e-05 0)
(0.00370674 -0.000109649 0)
(0.00397467 -1.8634e-05 0)
(0.00385509 -0.000123721 0)
(0.00361096 -0.00021233 0)
(0.00296019 -0.000596062 0)
(0.00312535 -0.000331021 0)
(0.00428604 -1.50029e-05 0)
(0.00375875 -0.000108307 0)
(0.00107914 -0.00197162 0)
(0.00373719 -0.000249312 0)
(0.00511034 -8.85067e-05 0)
(0.00494193 -0.000232026 0)
(0.00428101 -0.000490026 0)
(0.00348327 -0.000188 0)
(0.00474002 -2.41192e-05 0)
(0.000383398 -0.00237288 0)
(0.00476179 -0.000232858 0)
(0.000229863 -0.00259559 0)
(0.00339963 -0.000545725 0)
(0.00400677 -0.000113087 0)
(0.000769365 -0.00214404 0)
(0.00435675 -4.86177e-05 0)
(0.00399125 -4.30726e-05 0)
(0.00316624 -0.00043848 0)
(0.00373174 -9.87538e-05 0)
(0.00266496 -0.000548623 0)
(0.00411776 -6.8743e-05 0)
(0.00178048 -0.00120692 0)
(0.00346966 -0.000191817 0)
(0.0022625 -0.00081593 0)
(0.00391539 -4.22964e-05 0)
(0.0038597 -0.000321546 0)
(0.00389609 -5.83552e-05 0)
(0.0020685 -0.000926388 0)
(0.00239925 -0.000710504 0)
(0.00466547 -0.000274292 0)
(0.00484528 -0.000347457 0)
(0.0051738 -3.93638e-05 0)
(0.00192994 -0.00157832 0)
(0.00463504 -0.000200797 0)
(0.00489015 -6.40522e-05 0)
(0.0030179 -0.000419793 0)
(0.00348488 -0.000530841 0)
(0.00223741 -0.00103313 0)
(0.00404165 -0.000318255 0)
(0.00272173 -0.000556181 0)
(0.00438653 -0.000105721 0)
(0.00433748 -0.000413619 0)
(0.00427378 -9.75169e-05 0)
(0.0043749 -0.000146824 0)
(0.0036016 -0.000162772 0)
(0.00268989 -0.000616439 0)
(0.00300354 -0.000519118 0)
(0.000750169 -0.00203644 0)
(0.00282637 -0.000936492 0)
(0.00314869 -0.000466786 0)
(0.00379454 -7.71199e-05 0)
(0.000323123 -0.00254391 0)
(0.00116483 -0.00159555 0)
(0.00447064 -5.98004e-05 0)
(0.00451699 -1.52179e-05 0)
(0.00394303 -2.6942e-05 0)
(0.00252861 -0.000716773 0)
(0.00278945 -0.000487518 0)
(0.00390899 -0.00052114 0)
(0.00389258 -0.000218857 0)
(0.00457616 -0.000177841 0)
(0.00386747 -0.000414898 0)
(0.00261109 -0.000759484 0)
(0.00507191 -1.65712e-05 0)
(0.00465271 -0.000461484 0)
(0.00315072 -0.000574107 0)
(0.00484858 -0.00011946 0)
(0.00522958 -9.79819e-06 0)
(0.00483332 -0.000429785 0)
(0.00298556 -0.000401381 0)
)
;

boundaryField
{
    back
    {
        type            empty;
    }
    front
    {
        type            empty;
    }
    down
    {
        type            pointFixedDisplacementZeroShear;
    }
    right
    {
        type            pointSolidTraction;
        tractionSeries  
{
        fileName        "$FOAM_CASE/constant/timeVsTraction";
        outOfBounds     clamp;
}
        pressure        uniform 0;
    }
    up
    {
        type            pointSolidTraction;
        traction        uniform (0 0 0);
        pressure        uniform 0;
    }
    left
    {
        type            pointFixedDisplacementZeroShear;
    }
    hole
    {
        type            pointSolidTraction;
        traction        uniform (0 0 0);
        pressure        uniform 0;
    }
}


// ************************************************************************* //
