/*--------------------------------*- C++ -*----------------------------------*\
| =========                 |                                                 |
| \\      /  F ield         | OpenFOAM: The Open Source CFD Toolbox           |
|  \\    /   O peration     | Version:  v2012                                 |
|   \\  /    A nd           | Website:  www.openfoam.com                      |
|    \\/     M anipulation  |                                                 |
\*---------------------------------------------------------------------------*/
FoamFile
{
    version     2.0;
    format      ascii;
    class       volScalarField;
    location    "15";
    object      epsilonEq;
}
// * * * * * * * * * * * * * * * * * * * * * * * * * * * * * * * * * * * * * //

dimensions      [0 0 0 0 0 0 0];


internalField   nonuniform List<scalar> 
8000
(
0.0104989
0.0104295
0.0103495
0.0102034
0.0100983
0.00991221
0.00977709
0.00956214
0.00939842
0.00915789
0.00896927
0.00870363
0.00849452
0.00820294
0.00797818
0.00766028
0.00742499
0.00708126
0.00684081
0.0064728
0.00623272
0.00584607
0.00561221
0.00521507
0.00499294
0.00459684
0.00439161
0.00400984
0.00382584
0.00347102
0.00331161
0.00299361
0.00286093
0.00258582
0.00248064
0.00225082
0.00217237
0.00198731
0.0019336
0.0018002
0.0103907
0.010245
0.0101824
0.00997977
0.00991599
0.00966373
0.00959117
0.00929406
0.00921031
0.00887127
0.00877642
0.00839616
0.00829206
0.00787174
0.00776123
0.00730236
0.00718907
0.00669642
0.0065834
0.00606664
0.00595646
0.00543058
0.00532428
0.00480964
0.00470676
0.00422507
0.00412479
0.00369399
0.00359634
0.00322739
0.00313389
0.00283003
0.00274337
0.00250149
0.00242464
0.00223795
0.00217311
0.00203459
0.00198965
0.00187366
0.0102017
0.00996734
0.00993211
0.00963961
0.00962033
0.00926745
0.00925745
0.00884505
0.00884104
0.00836942
0.00837015
0.00784094
0.00784653
0.00726298
0.00727392
0.0066458
0.00666192
0.00600517
0.00602492
0.00536586
0.00538505
0.00475584
0.0047683
0.00419965
0.00419958
0.00371291
0.00369706
0.00330129
0.00326989
0.00296247
0.00291881
0.00268871
0.00263797
0.00246932
0.00241769
0.00229261
0.00224743
0.00214399
0.00210843
0.00201817
0.00990203
0.00955602
0.009557
0.00914121
0.00917187
0.00868059
0.00873761
0.00816851
0.00824936
0.00760361
0.00770611
0.00698997
0.00711126
0.00634099
0.00647649
0.00567817
0.00582082
0.00503574
0.00517478
0.00444975
0.00457263
0.00394569
0.00404227
0.00353332
0.00359855
0.00320866
0.00324293
0.00295911
0.00296695
0.0027683
0.00275661
0.00261889
0.00259575
0.00249534
0.00246904
0.00238553
0.00236137
0.00228225
0.00226568
0.00217937
0.00946153
0.00897482
0.0090169
0.00843888
0.00852529
0.0078509
0.0079808
0.00721154
0.00738221
0.00652867
0.00673472
0.00582235
0.00605452
0.00512318
0.00536792
0.00447855
0.00471696
0.00393195
0.00414461
0.00350381
0.00367744
0.00319054
0.00332033
0.002973
0.00306144
0.00282651
0.00288042
0.00272706
0.00275535
0.00265339
0.00266534
0.00258978
0.00259375
0.00252828
0.00252949
0.0024625
0.00246518
0.00239113
0.0023963
0.00231402
0.00885035
0.00818152
0.0082678
0.00748311
0.00762873
0.00673298
0.00693599
0.0059469
0.00620064
0.0051559
0.00544772
0.00440441
0.00471488
0.00375878
0.00406064
0.00326741
0.00353516
0.00293504
0.00315464
0.00273554
0.00290456
0.00263032
0.00275444
0.00258396
0.00267233
0.00256838
0.00263101
0.0025627
0.00260875
0.00255372
0.00259072
0.00253975
0.00257119
0.00251491
0.00254409
0.00248078
0.00250875
0.00243699
0.00246463
0.00238338
0.00802651
0.0071295
0.0072622
0.0062413
0.00644268
0.00532696
0.00558811
0.004431
0.00473598
0.00361449
0.00394054
0.00297055
0.00328435
0.00254671
0.00282127
0.00231777
0.00254298
0.00222802
0.00240587
0.00222025
0.00235933
0.002255
0.00236456
0.002305
0.00239367
0.00235267
0.00242758
0.00238809
0.00245476
0.00241675
0.00247623
0.00243015
0.0024854
0.00243339
0.00248455
0.00242442
0.00247271
0.00240372
0.00244933
0.00237221
0.00694066
0.00579385
0.00597163
0.00473813
0.00497923
0.00373253
0.0040145
0.00285352
0.00314739
0.00222662
0.00249594
0.00188385
0.002109
0.00175091
0.00193359
0.00174225
0.00189232
0.00179368
0.00192177
0.00187396
0.00198668
0.0019616
0.00206349
0.00204269
0.00213683
0.00210894
0.00219789
0.00217331
0.00225456
0.00221908
0.00229581
0.00225687
0.00232775
0.00228072
0.002347
0.00229229
0.00235399
0.00229322
0.00234944
0.00227671
0.00556643
0.00421294
0.00442656
0.00309928
0.00334955
0.00217242
0.00242196
0.001609
0.00180515
0.00138423
0.00152116
0.00134251
0.00144086
0.00137416
0.00145721
0.00143334
0.0015144
0.00151021
0.00159437
0.0015933
0.00168252
0.00167525
0.00176887
0.00174803
0.00184507
0.00183464
0.0019272
0.00190143
0.00199247
0.00196773
0.00205313
0.00201979
0.00210069
0.00206114
0.00213667
0.00209387
0.00216239
0.00210731
0.00216972
0.00210567
0.00394386
0.00253363
0.00275836
0.00157723
0.0017838
0.00116527
0.00128968
0.00111291
0.00117917
0.00114752
0.00119665
0.00119652
0.00124092
0.00124872
0.00129174
0.00130289
0.00134892
0.00135609
0.00140684
0.00140802
0.00146351
0.00146041
0.00151735
0.00151982
0.00158963
0.00157258
0.00164892
0.00163966
0.00171823
0.00169795
0.00177891
0.0017535
0.00183368
0.00180866
0.00188399
0.00184601
0.00191671
0.00187121
0.0019355
0.00189093
0.00224098
0.00114432
0.00128048
0.000971589
0.00101318
0.000993092
0.00102836
0.00102685
0.00106474
0.00106786
0.0011077
0.00111505
0.0011561
0.00116542
0.00120759
0.00121657
0.0012596
0.00126677
0.00131007
0.00131527
0.00135836
0.001362
0.00140637
0.00140568
0.0014479
0.00144937
0.00149821
0.00148928
0.00153962
0.00152873
0.00158221
0.00156692
0.00162797
0.00159889
0.00166099
0.00162782
0.00168809
0.00166035
0.00171574
0.00168583
0.000968426
0.00090408
0.000914337
0.000910618
0.000933272
0.00092895
0.000959115
0.000958686
0.000993537
0.000997618
0.0010355
0.00104315
0.00108307
0.00109248
0.00113371
0.00114332
0.00118533
0.001194
0.00123642
0.00124338
0.00128621
0.0012906
0.00133363
0.00133517
0.00137931
0.00137636
0.00142153
0.00141353
0.00145945
0.00144643
0.00149288
0.00147492
0.00151967
0.00149994
0.00154197
0.00152281
0.00156606
0.00154294
0.00158354
0.00156204
0.000893073
0.000856216
0.000869976
0.00084869
0.000874402
0.000863051
0.000895798
0.000892541
0.000929327
0.000932365
0.000971413
0.00097881
0.00101911
0.00102892
0.00106988
0.00108043
0.00112173
0.00113167
0.00117314
0.00118144
0.00122302
0.00122886
0.00127067
0.00127323
0.00131519
0.00131406
0.00135615
0.00135091
0.00139275
0.00138358
0.00142447
0.00141216
0.00145157
0.00143696
0.00147503
0.00145815
0.00149489
0.00147575
0.00151127
0.0014895
0.000832854
0.000786214
0.000806192
0.000778457
0.000809828
0.000795699
0.000833197
0.000829162
0.000869519
0.000872718
0.000914081
0.000922062
0.000963489
0.000974149
0.00101521
0.00102683
0.00106737
0.00107858
0.00111856
0.00112834
0.00116777
0.00117532
0.00121422
0.00121899
0.0012573
0.00125899
0.00129658
0.00129506
0.00133169
0.00132713
0.0013625
0.00135525
0.00138909
0.00137953
0.00141157
0.00140015
0.00143014
0.00141726
0.0014445
0.00143111
0.000745012
0.000698836
0.000728061
0.000700081
0.000740079
0.000726464
0.00077096
0.00076798
0.000813437
0.000817853
0.000862526
0.000871683
0.000914862
0.000926644
0.000968145
0.000980902
0.00102077
0.00103325
0.00107161
0.00108288
0.00111985
0.00112925
0.0011649
0.00117201
0.00120636
0.00121095
0.00124395
0.00124597
0.00127752
0.00127706
0.00130702
0.00130432
0.00133249
0.00132789
0.00135406
0.00134804
0.00137191
0.00136505
0.00138632
0.00137932
0.000638925
0.000598565
0.000638247
0.000614987
0.000665003
0.000655419
0.000707936
0.000708255
0.000759445
0.000766423
0.000814785
0.000825885
0.000871053
0.000884356
0.000926455
0.000940524
0.000979844
0.00099362
0.00103047
0.00104319
0.00107782
0.00108897
0.00112158
0.00113083
0.00116152
0.00116871
0.00119755
0.00120263
0.00122963
0.00123268
0.00125781
0.00125899
0.0012822
0.00128178
0.00130301
0.00130135
0.00132053
0.00131805
0.00133512
0.00133234
0.000521035
0.000489887
0.000540497
0.000526062
0.000586234
0.000584036
0.000644239
0.000650193
0.000706608
0.000717667
0.000769245
0.000783247
0.00083006
0.000845465
0.00088797
0.000903675
0.000942403
0.000957619
0.000993053
0.00100723
0.00103976
0.00105253
0.00108246
0.00109361
0.00112115
0.00113058
0.00115587
0.00116356
0.0011867
0.00119271
0.00121377
0.00121819
0.00123726
0.00124022
0.00125741
0.00125907
0.00127454
0.00127514
0.00128905
0.00128897
0.000396277
0.000377179
0.0004393
0.000437402
0.000506993
0.000515088
0.000581481
0.000595066
0.000655193
0.000671681
0.00072524
0.000743058
0.000790619
0.000808742
0.000851075
0.000868803
0.000906643
0.000923499
0.00095747
0.000973137
0.00100374
0.00101803
0.00104564
0.00105846
0.00108337
0.00109471
0.00111711
0.00112701
0.00114704
0.00115557
0.00117335
0.00118055
0.00119623
0.0012021
0.00121591
0.00122037
0.00123269
0.00123563
0.001247
0.00124852
0.000268835
0.000265602
0.000340429
0.000354868
0.000431996
0.000452574
0.00052251
0.000545023
0.000606525
0.000629313
0.00068304
0.000705312
0.000752296
0.000773606
0.000814854
0.000834926
0.000871309
0.000889973
0.000922211
0.00093938
0.000968044
0.000983701
0.00100924
0.00102343
0.00104617
0.00105898
0.00107916
0.00109074
0.00110852
0.00111901
0.00113449
0.001144
0.00115726
0.00116579
0.00117703
0.00118429
0.00119399
0.00119919
0.00120856
0.00121059
0.000144004
0.000165678
0.000253563
0.000287799
0.000367917
0.000401757
0.000471195
0.000502858
0.000562714
0.000591982
0.000643664
0.000670604
0.000715391
0.000740107
0.000779088
0.000801679
0.00083576
0.000856316
0.000886245
0.000904862
0.00093125
0.000948037
0.000971383
0.000986472
0.00100718
0.00102073
0.00103913
0.00105134
0.00106769
0.00107879
0.00109328
0.00110353
0.00111628
0.0011259
0.00113701
0.00114587
0.00115577
0.00116222
0.00117318
0.00116938
5.5695e-05
0.000115818
0.000198684
0.000250511
0.00032378
0.000368733
0.000432144
0.000471672
0.000526394
0.000561488
0.000608723
0.000640073
0.000680903
0.000709
0.000744355
0.000769559
0.000800228
0.000822807
0.000849447
0.00086961
0.000892764
0.000910681
0.000930788
0.000946599
0.000964003
0.000977831
0.000992779
0.00100474
0.00101737
0.0010276
0.00103786
0.00104659
0.0010541
0.00106187
0.00106542
0.00107377
0.00106984
0.0010838
0.00106134
0.0010987
0.000134304
0.000165329
0.000202658
0.000255491
0.000308783
0.000358538
0.000409841
0.000454238
0.000500321
0.000539736
0.000580232
0.000615306
0.000650558
0.000681864
0.000712394
0.000740405
0.000766742
0.000791853
0.000814477
0.000837019
0.000856341
0.00087661
0.000892962
0.00091124
0.00092487
0.000941448
0.000952515
0.000967725
0.000976287
0.000990549
0.000996551
0.00101045
0.00101374
0.00102812
0.00102863
0.00104458
0.00104339
0.00106119
0.00106547
0.00107821
0.000251001
0.000259071
0.000259907
0.000298432
0.000325837
0.000372063
0.000406866
0.000451808
0.000486402
0.000527783
0.000559615
0.000597107
0.000625435
0.000659253
0.000684004
0.000714501
0.000735852
0.0007634
0.000781613
0.000806568
0.000821913
0.000844616
0.000857344
0.000878124
0.000888455
0.000907645
0.000915771
0.00093371
0.000939822
0.000956856
0.000961197
0.000977641
0.000980637
0.00099664
0.000999132
0.00101435
0.00101777
0.00103096
0.00103577
0.00104619
0.000367171
0.000360704
0.0003416
0.000363629
0.000368607
0.000405399
0.000422683
0.000463783
0.000485342
0.000525881
0.000547738
0.000585888
0.000606288
0.00064151
0.000659751
0.000692022
0.000707892
0.000737396
0.000750915
0.000777912
0.000789203
0.000813976
0.000823212
0.000846043
0.000853423
0.000874581
0.000880332
0.000900051
0.000904443
0.000922898
0.000926275
0.000943528
0.00094633
0.000962275
0.000964987
0.000979342
0.000982278
0.000994791
0.000998121
0.00100861
0.000479577
0.000461874
0.0004311
0.000438772
0.000427267
0.000452401
0.000453939
0.000487936
0.000496429
0.000533413
0.000544762
0.000581598
0.000593488
0.000628722
0.000639957
0.000673009
0.000683025
0.000713741
0.000722316
0.00075075
0.00075785
0.000784144
0.000789844
0.000814173
0.000818613
0.000841144
0.000844513
0.000865382
0.000867906
0.000887199
0.000889129
0.000906863
0.000908449
0.000924588
0.000926032
0.000940524
0.000941964
0.000954773
0.00095628
0.000967406
0.0005873
0.000560025
0.000521676
0.000517167
0.000493997
0.000507428
0.000496115
0.000521223
0.000517795
0.000549051
0.000550133
0.000583746
0.000587002
0.00062074
0.000624734
0.000657405
0.000661321
0.00069235
0.000695759
0.00072491
0.000727624
0.000754842
0.000756818
0.000782134
0.00078342
0.000806898
0.000807594
0.000829302
0.00082954
0.00084953
0.000849448
0.000867757
0.000867482
0.000884136
0.000883772
0.0008988
0.000898416
0.000911862
0.000911495
0.00092342
0.000689858
0.000654024
0.000610386
0.00059532
0.000563829
0.000566306
0.000544999
0.000560577
0.000546979
0.000571052
0.00056272
0.000591483
0.000586428
0.000617196
0.000614
0.000645066
0.000642801
0.000673157
0.000671258
0.000700341
0.00069849
0.00072601
0.000724049
0.000749873
0.000747748
0.00077183
0.000769548
0.000791887
0.00078949
0.000810109
0.000807653
0.000826585
0.000824126
0.000841417
0.000839003
0.000854707
0.000852372
0.000866554
0.000864317
0.000877058
0.000786893
0.0007432
0.000695712
0.00067127
0.000633751
0.000626177
0.000597275
0.00060335
0.000581474
0.000597565
0.000581049
0.000603732
0.000591061
0.000617548
0.0006075
0.000635762
0.000627439
0.000656101
0.000648886
0.00067707
0.000670562
0.00069773
0.000691684
0.000717519
0.000711795
0.000736122
0.000730648
0.000753382
0.00074813
0.000769241
0.000764206
0.000783701
0.000778888
0.000796799
0.000792218
0.000808595
0.000804252
0.000819158
0.000815058
0.000828568
0.000878079
0.000827066
0.000776731
0.000743798
0.000701884
0.000685097
0.000650511
0.000647429
0.000619053
0.000626848
0.000603541
0.000619317
0.000599992
0.000621125
0.000604831
0.000629181
0.000615145
0.000641101
0.000628737
0.000655156
0.000644042
0.000670148
0.00065999
0.000685275
0.000675877
0.000700021
0.000691255
0.000714068
0.000705853
0.00072723
0.000719514
0.000739412
0.000732163
0.000750578
0.000743775
0.000760732
0.000754359
0.000769902
0.000763947
0.000778135
0.000963098
0.000905215
0.000852798
0.000812071
0.000766979
0.000741713
0.000702958
0.000691192
0.000657881
0.000657384
0.000628687
0.000637081
0.000612222
0.00062719
0.00060547
0.000624946
0.000605759
0.00062804
0.000610889
0.000634655
0.000619151
0.000643429
0.000629276
0.000653376
0.000640354
0.000663803
0.000651754
0.00067424
0.000663048
0.000684374
0.000673956
0.000694007
0.000684303
0.000703023
0.000693988
0.000711359
0.000702959
0.000718996
0.000711202
0.000725937
0.00104163
0.000977283
0.000923413
0.000875472
0.000828163
0.000795054
0.000753348
0.000733403
0.000696507
0.000687909
0.000655148
0.000655957
0.000626746
0.000634993
0.000608819
0.000622631
0.000599046
0.000616761
0.00059538
0.000615607
0.000596111
0.000617745
0.000599872
0.000622071
0.000605612
0.000627759
0.000612552
0.000634206
0.000620122
0.000640981
0.00062792
0.000647784
0.000635667
0.000654412
0.000643179
0.000660734
0.000650335
0.00066667
0.000657065
0.000672178
0.00111336
0.00104294
0.000988162
0.000933514
0.000884783
0.000844393
0.000800751
0.000773122
0.000733804
0.000717397
0.000681792
0.000675004
0.000642621
0.000643808
0.000614244
0.000621784
0.000594706
0.000607072
0.000582198
0.000598029
0.000575121
0.000593261
0.000572114
0.000591622
0.000572067
0.000592206
0.000574097
0.000594309
0.000577525
0.0005974
0.000581841
0.000601082
0.000586665
0.000605069
0.000591725
0.000609157
0.000596828
0.000613203
0.000601843
0.000617115
0.00117798
0.00110187
0.00104669
0.000985807
0.000936341
0.000889182
0.000844467
0.00080963
0.0007689
0.000745026
0.000707684
0.000693415
0.000658996
0.000652962
0.000621112
0.00062194
0.000592387
0.000598744
0.000571274
0.000581908
0.000556351
0.000570135
0.000546349
0.00056231
0.000540172
0.0005575
0.000536903
0.000554946
0.000535793
0.000554041
0.000536248
0.000554312
0.000537802
0.000555394
0.000540102
0.000557012
0.000542881
0.00055896
0.000545942
0.00056109
0.00123518
0.0011538
0.00109869
0.00103203
0.000982446
0.000928999
0.000883965
0.000842372
0.000801121
0.000770136
0.000732059
0.000710496
0.000675123
0.000661827
0.000628803
0.000622628
0.000591694
0.00059151
0.000562479
0.000567193
0.000539931
0.000548513
0.00052292
0.000534433
0.000510432
0.000524049
0.000501574
0.000516592
0.00049558
0.000511418
0.000491812
0.000508
0.000489742
0.000505911
0.000488949
0.000504812
0.000489099
0.000504436
0.000489934
0.00050458
0.00128468
0.00119849
0.00114391
0.00107195
0.0010228
0.000963525
0.000918845
0.000870909
0.000829934
0.000792166
0.000754276
0.000725622
0.000690324
0.000669799
0.000636708
0.000623354
0.000592186
0.000585062
0.000555616
0.000553795
0.000525936
0.000528524
0.000502165
0.000508314
0.000483401
0.00049233
0.000468826
0.000479834
0.000457709
0.000470188
0.000449412
0.000462841
0.000443383
0.000457332
0.000439158
0.000453272
0.000436349
0.000450339
0.000434645
0.000448273
0.00132619
0.00123576
0.00118216
0.00110542
0.0010572
0.000992513
0.000948791
0.000894827
0.000854869
0.000810547
0.000773731
0.000738147
0.000703936
0.000676248
0.000644204
0.000623594
0.000593382
0.00057905
0.000550427
0.000541592
0.00051439
0.000510293
0.000484407
0.00048432
0.000459689
0.000462919
0.000439513
0.000445418
0.000423221
0.000431217
0.000410219
0.000419785
0.000399972
0.000410655
0.000392008
0.000403417
0.000385912
0.000397707
0.00038133
0.000393207
0.00135946
0.00126553
0.00121339
0.00113237
0.00108553
0.00101564
0.000973462
0.000913446
0.00087533
0.000824486
0.000789712
0.00074731
0.000715245
0.000680514
0.000650655
0.000622833
0.000594792
0.000573151
0.000546638
0.00053049
0.000505297
0.000493992
0.000469976
0.000462897
0.000439967
0.000436532
0.000414638
0.000414298
0.000393414
0.000395658
0.000375773
0.000380134
0.000361235
0.000367294
0.000349358
0.000356744
0.000339726
0.000348107
0.000331953
0.000341004
0.00138434
0.0012881
0.00123779
0.00115265
0.00110759
0.00103136
0.00099188
0.000925304
0.00089025
0.000832894
0.000801318
0.00075234
0.000723545
0.000682063
0.000655525
0.000620728
0.000596048
0.000567209
0.000544078
0.000520549
0.000498732
0.000479927
0.000459249
0.000444638
0.000424973
0.000414068
0.000395333
0.000387681
0.000369824
0.000365009
0.000347999
0.000345642
0.000329452
0.000329216
0.000313801
0.0003154
0.00030066
0.000303866
0.000289606
0.000294217
0.0014016
0.00130519
0.00125609
0.00115995
0.00112027
0.00103593
0.00100162
0.000928634
0.000898259
0.000835039
0.000807858
0.000753006
0.000728506
0.000680904
0.000658679
0.000617422
0.000597137
0.000561475
0.00054285
0.000512149
0.000494952
0.000468662
0.000452709
0.000430346
0.000415493
0.000396627
0.000382767
0.00036701
0.000354073
0.000341078
0.000329019
0.000318478
0.000307269
0.000298924
0.000288528
0.000282192
0.000272501
0.000268093
0.000258779
0.000256398
0.00142098
0.00127919
0.00125253
0.00114485
0.00111702
0.00102766
0.00100089
0.000924006
0.000899354
0.000832074
0.000809904
0.000750502
0.000730826
0.000678113
0.00066078
0.00061386
0.000598654
0.000556812
0.000543501
0.000506139
0.000494509
0.000461115
0.000450977
0.000421096
0.000412299
0.000385521
0.000377959
0.0003539
0.000347516
0.000325806
0.000320603
0.000300877
0.000296926
0.000278822
0.000276275
0.000259461
0.000258545
0.000242831
0.00024379
0.000229498
0.000242343
0.000200115
0.000257109
0.000214916
0.0002946
0.000248156
0.00034354
0.000292289
0.000398711
0.000342297
0.00045713
0.00039523
0.000516996
0.000449362
0.000577175
0.000503644
0.000636918
0.000557412
0.000695709
0.000610233
0.000753178
0.000661822
0.000809051
0.000712
0.000863117
0.000760664
0.000915197
0.000807775
0.000965121
0.000853345
0.00101268
0.000897428
0.00105756
0.000940108
0.00109915
0.000981459
0.00113615
0.00102146
0.00116507
0.00105972
0.000209314
0.000178427
0.00023036
0.000197275
0.000270892
0.00023391
0.00032238
0.000280742
0.000379517
0.000332726
0.000439375
0.000387047
0.000500286
0.000442122
0.000561228
0.000497006
0.000621538
0.000551103
0.00068076
0.00060402
0.000738571
0.000655493
0.000794732
0.000705348
0.000849063
0.000753475
0.00090142
0.000799811
0.000951666
0.00084433
0.000999649
0.000887019
0.00104514
0.00092786
0.00108771
0.00096677
0.00112647
0.00100346
0.00115911
0.00103699
0.000188549
0.000166003
0.000212689
0.000187436
0.000254631
0.000225759
0.000306847
0.000273541
0.000364289
0.000325975
0.00042416
0.000380421
0.00048489
0.000435407
0.000545534
0.000490057
0.000605484
0.000543814
0.000664325
0.000596307
0.000721762
0.000647285
0.000777584
0.000696578
0.000831631
0.000744075
0.000883783
0.000789707
0.000933935
0.000833436
0.000981977
0.000875242
0.00102776
0.000915096
0.001071
0.00095293
0.00111116
0.000988551
0.00114685
0.00102138
0.000177346
0.000161208
0.000202333
0.0001837
0.000244192
0.000222198
0.000295769
0.000269597
0.000352325
0.000321389
0.000411206
0.000375083
0.000470912
0.000429276
0.000530537
0.000483124
0.000589502
0.000536086
0.000647412
0.0005878
0.000703989
0.000638017
0.000759033
0.000686565
0.000812402
0.000733331
0.000863988
0.000778243
0.000913709
0.00082126
0.000961486
0.000862359
0.00100722
0.00090152
0.00105075
0.000938701
0.00109174
0.000973789
0.00112939
0.00100646
0.000173661
0.000162438
0.000197926
0.000184733
0.000238432
0.000222205
0.00028834
0.000268244
0.000343168
0.000318621
0.000400364
0.000370949
0.000458463
0.000423856
0.000516576
0.000476503
0.000574128
0.000528351
0.00063073
0.000579032
0.000686107
0.000628293
0.000740067
0.000675957
0.000792471
0.000721905
0.000843222
0.000766061
0.000892251
0.00080838
0.000939501
0.00084884
0.000984909
0.000887427
0.00102838
0.000924119
0.00106972
0.000958856
0.00110848
0.000991456
0.000175761
0.000168236
0.000198326
0.000189483
0.000236539
0.000225089
0.000284026
0.000269079
0.000336526
0.000317496
0.00039155
0.000368021
0.000447639
0.000419287
0.000503895
0.000470447
0.000559736
0.000520946
0.000614765
0.000570405
0.000668705
0.000618561
0.00072136
0.000665228
0.000772593
0.00071028
0.000822309
0.000753634
0.000870446
0.000795241
0.000916961
0.000835078
0.000961816
0.000873135
0.00100496
0.000909402
0.00104628
0.000943853
0.00108554
0.00097639
0.000182186
0.000177402
0.00020257
0.000197129
0.000237901
0.000230358
0.000282455
0.000271848
0.000332208
0.000317925
0.000384717
0.000366333
0.00043851
0.0004157
0.000492666
0.000465156
0.000546584
0.000514126
0.000599852
0.000562215
0.000652182
0.000609145
0.000703372
0.00065472
0.00075328
0.000698802
0.000801811
0.000741303
0.000848904
0.000782168
0.000894522
0.000821369
0.000938642
0.000858898
0.00098124
0.000894755
0.00102227
0.000928931
0.00106159
0.000961385
0.000191779
0.000189017
0.000209854
0.000207032
0.000242028
0.000237641
0.000283344
0.000276368
0.000330074
0.000319855
0.000379829
0.000365925
0.000431122
0.000413199
0.000483002
0.000460786
0.000534843
0.000508086
0.000586211
0.000554683
0.000636805
0.000600285
0.00068641
0.00064468
0.000734878
0.000687723
0.000782108
0.000729314
0.000828037
0.000769392
0.000872632
0.000807926
0.000915875
0.000844905
0.000957761
0.000880333
0.000998271
0.000914215
0.00103735
0.000946541
0.000203667
0.000202409
0.000219521
0.000218695
0.0002485
0.000246634
0.000286451
0.000282484
0.000329998
0.000323236
0.000376843
0.000366818
0.000425493
0.000411859
0.000474971
0.000457448
0.000524619
0.000502963
0.000573984
0.000547968
0.000622745
0.000592151
0.000670674
0.000635288
0.000717611
0.000677221
0.00076345
0.000717842
0.000808122
0.000757081
0.000851591
0.000794901
0.000893843
0.000831288
0.000934881
0.000866248
0.000974707
0.000899793
0.00101331
0.000931932
0.000217214
0.000217093
0.00023104
0.000231732
0.000256949
0.000257074
0.000291547
0.000290048
0.000331854
0.000328007
0.000375701
0.000369011
0.000421615
0.000411721
0.0004686
0.000455216
0.000515973
0.000498855
0.000563255
0.00054218
0.000610108
0.000584864
0.000656288
0.00062667
0.000701623
0.000667425
0.000745997
0.000707011
0.000789334
0.000745352
0.000831594
0.000782401
0.000872762
0.000818143
0.000912842
0.00085258
0.000951849
0.000885727
0.000989796
0.000917606
0.000231961
0.000232713
0.00024399
0.000245834
0.000267046
0.000268729
0.000298407
0.000298908
0.000335498
0.000334083
0.000376323
0.000372475
0.000419452
0.000412796
0.000463886
0.000454128
0.000508922
0.000495817
0.000554063
0.000537392
0.000598949
0.000578507
0.000643322
0.000618911
0.000686997
0.000658422
0.000729845
0.00069691
0.000771783
0.000734288
0.000812763
0.000770505
0.000852767
0.000805538
0.000891798
0.000839385
0.000929876
0.000872063
0.000967026
0.000903599
0.000247567
0.000249001
0.000258033
0.000260749
0.000278498
0.000281383
0.000306804
0.000308904
0.000340774
0.000341362
0.000378604
0.000377154
0.00041894
0.000415062
0.000460794
0.000454188
0.000503457
0.000493875
0.000546413
0.00053364
0.000589288
0.000573126
0.000631807
0.000612067
0.000673772
0.00065027
0.000715042
0.000687595
0.000755526
0.000723947
0.000795166
0.000759265
0.000833939
0.00079352
0.000871844
0.000826706
0.000908899
0.000858836
0.000945138
0.00088994
0.000263776
0.00026575
0.000272896
0.000276269
0.000291041
0.000294843
0.000316518
0.000319875
0.000347509
0.000349722
0.000382419
0.000382964
0.000419989
0.000418469
0.000459263
0.000455372
0.000499536
0.000493024
0.000540282
0.000530936
0.000581112
0.000568741
0.000621741
0.000606164
0.000661956
0.000643002
0.000701606
0.000679103
0.000740588
0.000714364
0.000778837
0.000748717
0.00081632
0.000782124
0.000853031
0.000814573
0.000888986
0.000846074
0.000924217
0.000876654
0.00028039
0.000282788
0.000288354
0.000292214
0.000304444
0.000308929
0.000327333
0.000331657
0.000355521
0.00035903
0.000387623
0.000389803
0.000422487
0.000422942
0.000459209
0.00045763
0.000497095
0.000493232
0.00053562
0.000529261
0.000574387
0.000565347
0.000613099
0.000601207
0.000651533
0.000636627
0.000689528
0.000671448
0.000726968
0.000705558
0.00076378
0.00073888
0.000799923
0.00077137
0.000835383
0.000803007
0.00087017
0.000833797
0.000904313
0.000863762
0.000297244
0.000299975
0.000304219
0.000308431
0.000318497
0.000323475
0.000339042
0.00034409
0.000364625
0.00036914
0.000394057
0.00039755
0.000426305
0.000428386
0.000460524
0.000460887
0.000496048
0.000494444
0.000532358
0.000528578
0.000569056
0.000562919
0.000605836
0.000597178
0.000642467
0.000631136
0.000678777
0.000664627
0.000714643
0.00069753
0.000749981
0.000729761
0.00078474
0.000761267
0.0008189
0.000792021
0.000852462
0.000822022
0.00088545
0.000851285
0.000314202
0.000317186
0.000320328
0.000324781
0.000333015
0.000338329
0.000351451
0.000357017
0.000374634
0.000379907
0.000401554
0.000406074
0.000431296
0.00043469
0.000463085
0.000465053
0.000496291
0.000496585
0.000530409
0.000528826
0.000565043
0.000561408
0.000599887
0.000594042
0.000634701
0.000626504
0.000669308
0.000658623
0.000703574
0.00069027
0.000737407
0.000721353
0.000770747
0.000751814
0.000803565
0.000781618
0.000835854
0.000810755
0.00086763
0.000839235
0.000331142
0.000334309
0.00033654
0.000341141
0.000347832
0.000353351
0.000364379
0.000370289
0.000385367
0.00039118
0.000409942
0.000415237
0.000437306
0.00044173
0.000466756
0.000470019
0.000497703
0.000499566
0.000529666
0.00052993
0.000562258
0.000560752
0.000595172
0.000591747
0.000628168
0.000622688
0.000661059
0.0006534
0.000693708
0.000683749
0.000726012
0.000713638
0.000757906
0.000742999
0.000789348
0.000771791
0.000820325
0.000799997
0.000850844
0.00082762
0.000347957
0.000351241
0.000352728
0.000357395
0.000362797
0.00036841
0.000377656
0.000383762
0.000396646
0.000402814
0.000419049
0.000424898
0.000444172
0.000449374
0.000471387
0.000475667
0.000500152
0.00050328
0.000530012
0.000531797
0.000560595
0.000560872
0.000591598
0.000590226
0.000622782
0.000619631
0.000653957
0.000648912
0.000684978
0.000677931
0.000715739
0.000706584
0.000746164
0.000734798
0.000776205
0.000762526
0.000805839
0.000789742
0.000835065
0.000816441
0.000364546
0.000367888
0.000368777
0.000373437
0.000377771
0.000383382
0.000391126
0.0003973
0.000408303
0.000414666
0.000428704
0.000434913
0.00045173
0.000457485
0.000476825
0.00048187
0.000503495
0.000507613
0.000531317
0.000534325
0.000559936
0.000561677
0.000589058
0.000589397
0.000618447
0.000617264
0.000647913
0.000645099
0.000677307
0.000672763
0.000706517
0.000700149
0.000735461
0.000727178
0.000764083
0.000753796
0.000792352
0.00077997
0.000820258
0.000805689
0.000380815
0.000384156
0.000384578
0.000389166
0.000392628
0.000398153
0.000404642
0.000410775
0.00042018
0.000426597
0.000438743
0.000445141
0.000459817
0.000465925
0.000482912
0.000488496
0.000507584
0.000512442
0.000533443
0.000537401
0.000560153
0.000563064
0.000587435
0.00058917
0.000615056
0.000615503
0.000642829
0.000641888
0.000670604
0.000668184
0.000698264
0.00069428
0.000725722
0.000720093
0.000752916
0.000745564
0.000779806
0.000770655
0.000806375
0.000795345
0.000396674
0.000399959
0.000400031
0.000404485
0.000407249
0.000412613
0.000418067
0.000424062
0.000432125
0.000438474
0.000449006
0.000455443
0.00046827
0.000474556
0.000489489
0.000495411
0.000512266
0.000517637
0.000536244
0.000540904
0.000561111
0.000564922
0.000586602
0.000589443
0.000612493
0.000614259
0.000638599
0.000639198
0.000664771
0.000664119
0.00069089
0.000688912
0.000716866
0.000713489
0.000742629
0.000737786
0.000768135
0.00076176
0.000793357
0.000785384
0.000412034
0.000415208
0.000415038
0.000419301
0.000421521
0.000426655
0.000431272
0.000437044
0.000443995
0.000450168
0.00045934
0.000465685
0.000476932
0.000483239
0.000496399
0.000502477
0.000517387
0.000523068
0.000539573
0.000544709
0.00056267
0.000567134
0.000586427
0.000590107
0.000610632
0.000613431
0.000635105
0.000636937
0.000659699
0.000660488
0.000684295
0.000683972
0.000708799
0.000707301
0.000733139
0.000730406
0.000757263
0.000753239
0.000781137
0.000775767
0.00042681
0.000429817
0.000429506
0.000433519
0.000435338
0.000440178
0.000444136
0.000449606
0.000455653
0.000461555
0.000469597
0.000475735
0.000485649
0.000491839
0.000503485
0.000509559
0.000522792
0.0005286
0.000543279
0.000548688
0.000564683
0.000569577
0.000586772
0.000591047
0.000609343
0.000612911
0.000632225
0.000635007
0.000655274
0.000657201
0.000678372
0.000679381
0.000701423
0.000701458
0.000724353
0.000723361