/*--------------------------------*- C++ -*----------------------------------*\
| =========                 |                                                 |
| \\      /  F ield         | OpenFOAM: The Open Source CFD Toolbox           |
|  \\    /   O peration     | Version:  v2012                                 |
|   \\  /    A nd           | Website:  www.openfoam.com                      |
|    \\/     M anipulation  |                                                 |
\*---------------------------------------------------------------------------*/
FoamFile
{
    version     2.0;
    format      ascii;
    class       pointScalarField;
    location    "15";
    object      pEpsilonEq;
}
// * * * * * * * * * * * * * * * * * * * * * * * * * * * * * * * * * * * * * //

dimensions      [0 0 0 0 0 0 0];


internalField   nonuniform List<scalar> 
8282
(
0.00135726
0.000477088
0.000734266
0.000300195
0.0104989
0.000235845
0.00184103
0.00114664
0.00174828
0.000625798
0.000101215
0.000101215
0.00114664
0.00184103
0.0104989
0.00135726
0.000235845
0.000477088
0.000625798
0.000734266
0.00174828
0.000300195
0.00184108
0.00194748
0.00209969
0.00225152
0.00236032
0.00239545
0.00234779
0.00221825
0.00202529
0.00181418
0.00164545
0.001543
0.00147061
0.00141187
0.00136013
0.00131327
0.00127019
0.00123057
0.00119531
0.00108437
0.00105511
0.00101841
0.000977646
0.000933949
0.000887802
0.000839462
0.000789103
0.000736886
0.000683
0.000627686
0.000571273
0.000514223
0.000457203
0.000401219
0.000347845
0.000299636
0.000260727
0.000237391
0.00122118
0.00109359
0.000981935
0.000883224
0.000795741
0.000718158
0.000649331
0.000588249
0.000534016
0.000485846
0.000443045
0.000405006
0.000371198
0.000341159
0.000314494
0.000290873
0.000270058
0.000251969
0.000236884
0.000216253
0.000191213
0.000176688
0.000170441
0.000170623
0.000175658
0.000184266
0.000195468
0.000208545
0.000222976
0.000238384
0.000254484
0.000271058
0.000287932
0.000304958
0.000322011
0.000338977
0.000355754
0.000372246
0.00038836
0.000404008
0.000419102
0.000433556
0.000447283
0.000460193
0.000472194
0.000483187
0.000493072
0.000501737
0.000509063
0.000514921
0.000519168
0.000521652
0.000522205
0.000520655
0.000516832
0.000510592
0.000501866
0.000490708
0.00047497
0.000477032
0.000479461
0.000482639
0.000486638
0.000491472
0.000497133
0.000503605
0.000510864
0.000518879
0.000527614
0.000537025
0.000547059
0.000557657
0.00056875
0.000580264
0.000592111
0.000604183
0.000616236
0.000632686
0.000638263
0.000643755
0.000649184
0.000654551
0.000659849
0.000665069
0.000670199
0.000675229
0.000680148
0.000684944
0.000689607
0.000694123
0.000698484
0.000702676
0.00070669
0.000710513
0.000714136
0.000717548
0.000720739
0.000723699
0.000726419
0.00072889
0.000731105
0.000733058
0.000734742
0.000736154
0.000737291
0.000738154
0.000738744
0.000739068
0.000739134
0.000738956
0.000738555
0.000737958
0.000737205
0.000736348
0.000735468
0.000734685
0.000733456
0.000731656
0.000731345
0.000733566
0.000738666
0.00074668
0.00075751
0.000771004
0.000787
0.000805344
0.000825896
0.000848536
0.000873158
0.000899674
0.000928006
0.000958085
0.000989845
0.00102322
0.00105815
0.00109454
0.00113231
0.00117135
0.00121152
0.00125267
0.00129461
0.00133709
0.00137986
0.00142257
0.00146485
0.00150621
0.00154608
0.00158372
0.00161774
0.00165474
0.00169707
0.00174406
0.00177957
0.0017929
0.00177517
0.00173832
0.00172475
0.00170358
0.00167259
0.00163053
0.00157588
0.00150719
0.00142352
0.00132492
0.00121295
0.00109072
0.000962561
0.000833342
0.00070792
0.000590864
0.000486444
0.000398697
0.000331158
0.000283855
0.000360091
0.000422761
0.000482163
0.000538407
0.00059167
0.000642139
0.000689998
0.000735426
0.000778591
0.000819658
0.000858782
0.000896114
0.000931797
0.000965968
0.00099876
0.0010303
0.00106071
0.00109011
0.00111861
0.00114632
0.00117336
0.00119983
0.00122585
0.00125151
0.00127695
0.00130228
0.00132763
0.00135316
0.00137903
0.00140543
0.0014326
0.00146081
0.0014904
0.00152182
0.00155563
0.00159251
0.00163338
0.0016798
0.00173393
0.00204228
0.00231316
0.00265476
0.00306769
0.00354792
0.00408622
0.00466874
0.00527874
0.00589899
0.00651417
0.00711158
0.0076817
0.00821802
0.00871519
0.00916883
0.00957457
0.0099267
0.0102161
0.0104227
0.00111658
0.00109316
0.00107494
0.00105678
0.00103818
0.00101934
0.00100054
0.000981967
0.000963768
0.000946035
0.000928834
0.000912209
0.000896189
0.000880797
0.000866044
0.000851934
0.000838464
0.000825619
0.000813379
0.00080171
0.000790571
0.000779913
0.000769676
0.000759797
0.000750206
0.000740831
0.000731601
0.000722448
0.000713314
0.000704151
0.000694929
0.000685643
0.000676319
0.000667026
0.000657884
0.00064908
0.000640889
0.000633705
0.000628105
0.00122947
0.00124104
0.00125187
0.00126263
0.00127348
0.00128445
0.00129546
0.00130648
0.00131745
0.00132834
0.00133914
0.00134984
0.00136044
0.00137096
0.0013814
0.00139179
0.00140212
0.00141241
0.00142267
0.00143292
0.00144318
0.00145347
0.00146384
0.00147434
0.00148503
0.00149602
0.0015074
0.00151931
0.00153191
0.00154535
0.00155982
0.00157551
0.0015926
0.00161127
0.00163167
0.00165388
0.0016779
0.00170362
0.00173184
0.0105031
0.0103353
0.0100673
0.00966341
0.0090919
0.00831383
0.0072833
0.00597136
0.00440617
0.00272789
0.00133697
0.000913068
0.000858363
0.000784147
0.000688774
0.000579153
0.000460579
0.00033743
0.000214154
8.23496e-05
0.000183568
0.000297155
0.00040917
0.000517339
0.000620825
0.000719138
0.000811898
0.000898762
0.000979401
0.00105349
0.00112073
0.0011808
0.00123342
0.00127833
0.0013153
0.00134421
0.00136557
0.00138534
0.000173597
0.000302905
0.000415803
0.00051424
0.000600367
0.000675999
0.00074262
0.000801437
0.000853435
0.000899427
0.000940093
0.000976005
0.00100765
0.00103544
0.00105968
0.00108058
0.00109803
0.00111113
0.00111646
0.000173597
0.000302905
0.000415803
0.00051424
0.000600367
0.000675999
0.00074262
0.000801437
0.000853435
0.000899427
0.000940093
0.000976005
0.00100765
0.00103544
0.00105968
0.00108058
0.00109803
0.00111113
0.00111646
0.00119531
0.00123057
0.00127019
0.00131327
0.00136013
0.00141187
0.00147061
0.001543
0.00164545
0.00181418
0.00202529
0.00221825
0.00234779
0.00239545
0.00236032
0.00225152
0.00209969
0.00194748
0.00184108
0.00204228
0.00231316
0.00265476
0.00306769
0.00354792
0.00408622
0.00466874
0.00527874
0.00589899
0.00651417
0.00711158
0.0076817
0.00821802
0.00871519
0.00916883
0.00957457
0.0099267
0.0102161
0.0104227
0.0105031
0.0103353
0.0100673
0.00966341
0.0090919
0.00831383
0.0072833
0.00597136
0.00440617
0.00272789
0.00133697
0.000913068
0.000858363
0.000784147
0.000688774
0.000579153
0.000460579
0.00033743
0.000214154
8.23496e-05
0.000183568
0.000297155
0.00040917
0.000517339
0.000620825
0.000719138
0.000811898
0.000898762
0.000979401
0.00105349
0.00112073
0.0011808
0.00123342
0.00127833
0.0013153
0.00134421
0.00136557
0.00138534
0.00122118
0.00109359
0.000981935
0.000883224
0.000795741
0.000718158
0.000649331
0.000588249
0.000534016
0.000485846
0.000443045
0.000405006
0.000371198
0.000341159
0.000314494
0.000290873
0.000270058
0.000251969
0.000236884
0.000237391
0.000260727
0.000299636
0.000347845
0.000401219
0.000457203
0.000514223
0.000571273
0.000627686
0.000683
0.000736886
0.000789103
0.000839462
0.000887802
0.000933949
0.000977646
0.00101841
0.00105511
0.00108437
0.000216253
0.000191213
0.000176688
0.000170441
0.000170623
0.000175658
0.000184266
0.000195468
0.000208545
0.000222976
0.000238384
0.000254484
0.000271058
0.000287932
0.000304958
0.000322011
0.000338977
0.000355754
0.000372246
0.00038836
0.000404008
0.000419102
0.000433556
0.000447283
0.000460193
0.000472194
0.000483187
0.000493072
0.000501737
0.000509063
0.000514921
0.000519168
0.000521652
0.000522205
0.000520655
0.000516832
0.000510592
0.000501866
0.000490708
0.00047497
0.000477032
0.000479461
0.000482639
0.000486638
0.000491472
0.000497133
0.000503605
0.000510864
0.000518879
0.000527614
0.000537025
0.000547059
0.000557657
0.00056875
0.000580264
0.000592111
0.000604183
0.000616236
0.000628105
0.000633705
0.000640889
0.00064908
0.000657884
0.000667026
0.000676319
0.000685643
0.000694929
0.000704151
0.000713314
0.000722448
0.000731601
0.000740831
0.000750206
0.000759797
0.000769676
0.000779913
0.000790571
0.00080171
0.000813379
0.000825619
0.000838464
0.000851934
0.000866044
0.000880797
0.000896189
0.000912209
0.000928834
0.000946035
0.000963768
0.000981967
0.00100054
0.00101934
0.00103818
0.00105678
0.00107494
0.00109316
0.00111658
0.000632686
0.000638263
0.000643755
0.000649184
0.000654551
0.000659849
0.000665069
0.000670199
0.000675229
0.000680148
0.000684944
0.000689607
0.000694123
0.000698484
0.000702676
0.00070669
0.000710513
0.000714136
0.000717548
0.000720739
0.000723699
0.000726419
0.00072889
0.000731105
0.000733058
0.000734742
0.000736154
0.000737291
0.000738154
0.000738744
0.000739068
0.000739134
0.000738956
0.000738555
0.000737958
0.000737205
0.000736348
0.000735468
0.000734685
0.000733456
0.000731656
0.000731345
0.000733566
0.000738666
0.00074668
0.00075751
0.000771004
0.000787
0.000805344
0.000825896
0.000848536
0.000873158
0.000899674
0.000928006
0.000958085
0.000989845
0.00102322
0.00105815
0.00109454
0.00113231
0.00117135
0.00121152
0.00125267
0.00129461
0.00133709
0.00137986
0.00142257
0.00146485
0.00150621
0.00154608
0.00158372
0.00161774
0.00165474
0.00169707
0.00174406
0.00177957
0.0017929
0.00177517
0.00173184
0.00170362
0.0016779
0.00165388
0.00163167
0.00161127
0.0015926
0.00157551
0.00155982
0.00154535
0.00153191
0.00151931
0.0015074
0.00149602
0.00148503
0.00147434
0.00146384
0.00145347
0.00144318
0.00143292
0.00142267
0.00141241
0.00140212
0.00139179
0.0013814
0.00137096
0.00136044
0.00134984
0.00133914
0.00132834
0.00131745
0.00130648
0.00129546
0.00128445
0.00127348
0.00126263
0.00125187
0.00124104
0.00122947
0.00173832
0.00172475
0.00170358
0.00167259
0.00163053
0.00157588
0.00150719
0.00142352
0.00132492
0.00121295
0.00109072
0.000962561
0.000833342
0.00070792
0.000590864
0.000486444
0.000398697
0.000331158
0.000283855
0.000360091
0.000422761
0.000482163
0.000538407
0.00059167
0.000642139
0.000689998
0.000735426
0.000778591
0.000819658
0.000858782
0.000896114
0.000931797
0.000965968
0.00099876
0.0010303
0.00106071
0.00109011
0.00111861
0.00114632
0.00117336
0.00119983
0.00122585
0.00125151
0.00127695
0.00130228
0.00132763
0.00135316
0.00137903
0.00140543
0.0014326
0.00146081
0.0014904
0.00152182
0.00155563
0.00159251
0.00163338
0.0016798
0.00173393
0.0102855
0.0100366
0.00972791
0.00936293
0.00894519
0.00847784
0.00796445
0.00740971
0.00681998
0.0062047
0.00557719
0.00495406
0.0043542
0.00379597
0.00329441
0.00285958
0.00249598
0.00220323
0.00198121
0.0100712
0.0097808
0.00944083
0.0090483
0.00860277
0.00810539
0.00755935
0.0069712
0.0063521
0.00571876
0.00509274
0.00449706
0.00395176
0.00347052
0.00305983
0.0027197
0.00244547
0.00223006
0.00206128
0.00974714
0.00939021
0.00898722
0.00853282
0.00802501
0.00746544
0.00686133
0.00622681
0.0055844
0.00496315
0.00439117
0.00388873
0.00346508
0.00311943
0.00284396
0.00262683
0.00245481
0.0023141
0.00219392
0.00927483
0.00882244
0.00832098
0.00776712
0.00716268
0.00651748
0.00585085
0.00519385
0.00458476
0.00405547
0.00362212
0.00328438
0.00303042
0.00284286
0.00270289
0.00259316
0.00250006
0.00241399
0.00232882
0.00861512
0.00802936
0.00739076
0.00670505
0.00598831
0.00526891
0.00459056
0.0040022
0.00353506
0.00319332
0.00296037
0.00281034
0.00271679
0.00265648
0.00261115
0.00256991
0.00252599
0.00247581
0.00241856
0.0077228
0.00696597
0.00616545
0.00534734
0.00455346
0.0038462
0.00328667
0.0028976
0.00266074
0.00253735
0.00248765
0.00247947
0.00248899
0.00249999
0.0025062
0.00250394
0.00249119
0.0024684
0.00243511
0.00655876
0.00562021
0.00468153
0.00379926
0.00306024
0.00253807
0.0022346
0.00209858
0.00206868
0.00209721
0.00215277
0.00221421
0.00226839
0.00231406
0.00234903
0.00237162
0.00238298
0.00238212
0.00236968
0.00512367
0.00405765
0.00308935
0.00233452
0.0018715
0.00165915
0.00160301
0.00162832
0.00169341
0.00177642
0.00186201
0.00193959
0.00201251
0.00207703
0.00212982
0.00217243
0.00220233
0.00222103
0.0022254
0.00350051
0.00245441
0.00172796
0.00138182
0.00128426
0.00129154
0.00133558
0.0013954
0.00146368
0.00153359
0.00160037
0.00167131
0.00174255
0.00180836
0.00187049
0.00192291
0.00196796
0.00200034
0.00201629
0.00191387
0.0012807
0.00108973
0.00108994
0.001129
0.00117695
0.0012285
0.00128147
0.00133362
0.00138451
0.00143619
0.00148734
0.00153983
0.00159414
0.00164365
0.00169311
0.00173596
0.0017668
0.00179187
0.0010164
0.000953981
0.000977702
0.00101145
0.00105269
0.00109961
0.00114972
0.00120077
0.00125121
0.00130026
0.00134725
0.00139215
0.00143528
0.00147501
0.00151225
0.00154521
0.00157276
0.00159946
0.00162428
0.000891722
0.000894478
0.000913474
0.000944733
0.000985041
0.00103145
0.00108131
0.00113248
0.0011834
0.00123294
0.00128028
0.0013248
0.00136579
0.0014027
0.00143512
0.0014631
0.00148757
0.00150919
0.00152789
0.000833248
0.000830168
0.000848523
0.000881241
0.00092338
0.000971277
0.00102216
0.00107396
0.00112515
0.00117461
0.00122151
0.00126521
0.00130523
0.00134119
0.00137293
0.00140055
0.00142427
0.00144418
0.00146024
0.000756387
0.000758547
0.000782725
0.00082088
0.000867392
0.000918384
0.000971176
0.0010239
0.00107523
0.00112424
0.00117026
0.00121281
0.00125158
0.00128638
0.00131715
0.00134394
0.00136686
0.00138609
0.00140182
0.000665571
0.000680302
0.000715631
0.000762703
0.000815738
0.000871098
0.000926492
0.000980456
0.00103203
0.00108056
0.00112564
0.00116699
0.00120446
0.00123798
0.00126759
0.00129338
0.00131554
0.00133434
0.00135011
0.000564853
0.000597198
0.000647555
0.000706017
0.000767026
0.000827578
0.000886045
0.000941525
0.000993509
0.00104171
0.00108597
0.00112624
0.00116252
0.00119487
0.00122339
0.00124825
0.00126968
0.00128799
0.00130357
0.000458501
0.000512335
0.000580133
0.000651134
0.000720591
0.000786524
0.000848154
0.00090523
0.000957729
0.00100573
0.00104935
0.00108875
0.00112408
0.00115549
0.00118316
0.00120729
0.00122809
0.00124587
0.00126103
0.00035134
0.000430164
0.000516222
0.000599373
0.000676631
0.000747377
0.000811769
0.000870196
0.000923095
0.000970881
0.00101394
0.0010526
0.00108718
0.00111795
0.00114513
0.00116891
0.00118947
0.00120699
0.00122182
0.000250671
0.000357144
0.000459796
0.000552852
0.000636065
0.00071028
0.000776494
0.000835626
0.000888475
0.000935724
0.000977966
0.00101572
0.00104943
0.00107952
0.00110633
0.00113015
0.00115115
0.00116939
0.00118499
0.000158792
0.000279355
0.000389427
0.000486381
0.000571373
0.000645892
0.000711296
0.000768747
0.000819218
0.000863518
0.000902317
0.000936169
0.000965529
0.000990765
0.00101218
0.00103004
0.00104475
0.00105739
0.00107198
0.000216018
0.000292835
0.000384184
0.000471529
0.000550739
0.000621328
0.000683801
0.00073891
0.000787428
0.000830073
0.000867491
0.000900261
0.00092891
0.000953945
0.000975892
0.000995383
0.00101327
0.00103069
0.00104837
0.000303761
0.000336845
0.000399892
0.000470536
0.000539366
0.000603056
0.00066067
0.000712205
0.000758026
0.000798624
0.00083453
0.000866272
0.00089437
0.000919345
0.00094173
0.000962068
0.000980863
0.000998414
0.00101465
0.000399207
0.000399074
0.000432795
0.000482651
0.000537411
0.000591435
0.000642214
0.000688786
0.000730934
0.000768798
0.000802685
0.000832975
0.000860081
0.000884416
0.000906373
0.000926296
0.000944431
0.000960902
0.000975748
0.000494997
0.00047001
0.000477658
0.000505801
0.000544251
0.000586395
0.00062851
0.000668688
0.000706057
0.000740309
0.000771443
0.000799621
0.000825076
0.00084807
0.000868853
0.000887636
0.000904585
0.000919821
0.000933429
0.00058835
0.000544031
0.000529689
0.000537256
0.000558644
0.000587469
0.000619423
0.000651877
0.00068334
0.000713032
0.000740603
0.000765949
0.000789102
0.000810166
0.000829266
0.000846533
0.000862085
0.000876032
0.000888469
0.000677927
0.000617946
0.000585234
0.00057427
0.000578983
0.000593867
0.000614627
0.000638249
0.000662771
0.000686986
0.000710195
0.00073202
0.000752284
0.000770929
0.000787969
0.000803451
0.000817444
0.000830026
0.000841279
0.000762929
0.000689849
0.000641696
0.000614442
0.000603564
0.000604593
0.000613636
0.000627631
0.000644353
0.000662272
0.000680383
0.00069805
0.000714889
0.000730683
0.000745324
0.000758771
0.000771029
0.000782131
0.000792127
0.000842786
0.000758512
0.00069725
0.000655827
0.000630779
0.000618561
0.000615846
0.000619777
0.000628073
0.000639021
0.000651387
0.000664316
0.000677233
0.000689763
0.000701671
0.000712821
0.000723143
0.000732611
0.000741233
0.000917043
0.00082308
0.000750598
0.000696904
0.000659214
0.000634695
0.000620588
0.000614372
0.000613882
0.00061736
0.000623446
0.000631122
0.000639651
0.000648512
0.000657349
0.000665922
0.000674079
0.000681728
0.000688823
0.000985309
0.000882916
0.000800792
0.000736502
0.000687681
0.000651997
0.000627171
0.00061105
0.000601687
0.0005974
0.000596802
0.000598786
0.000602501
0.000607303
0.000612723
0.00061842
0.000624158
0.000629773
0.000635159
0.00104724
0.000937526
0.000847122
0.000773723
0.000715211
0.000669581
0.00063492
0.000609408
0.000591351
0.000579224
0.000571698
0.000567656
0.000566185
0.000566559
0.000568217
0.000570727
0.00057377
0.00057711
0.000580578
0.00110252
0.000986516
0.000889048
0.000807875
0.000741016
0.000686676
0.000643194
0.000609016
0.000582691
0.000562879
0.000548371
0.000538103
0.000531162
0.000526786
0.000524353
0.000523361
0.000523418
0.000524219
0.000525532
0.00115088
0.00102958
0.000926158
0.000838417
0.000764453
0.000702603
0.000651379
0.000609421
0.000575472
0.000548371
0.000527047
0.000510534
0.000497971
0.000488606
0.000481797
0.000477003
0.00047378
0.000471762
0.000470661
0.0011921
0.00106648
0.00095814
0.000864902
0.000784948
0.000716725
0.000658865
0.000610135
0.000569409
0.000535658
0.00050794
0.000485396
0.000467247
0.000452795
0.000441421
0.000432581
0.000425805
0.000420691
0.000416899
0.00122603
0.00109709
0.000984708
0.000886837
0.000801859
0.000728355
0.000665015
0.000610648
0.000564188
0.000524679
0.00049127
0.000463193
0.000439757
0.00042034
0.000404378
0.000391367
0.000380847
0.000372404
0.000365665
0.00125269
0.00112131
0.00100525
0.000903329
0.00081431
0.000736737
0.000669217
0.000610516
0.000559562
0.00051543
0.000477317
0.000444519
0.000416418
0.000392465
0.00037217
0.00035509
0.000340819
0.000328968
0.000319146
0.00127256
0.0011377
0.00101765
0.000912845
0.00082135
0.0007413
0.000671136
0.000609568
0.000555523
0.000508092
0.000466504
0.000430097
0.000398299
0.000370618
0.000346627
0.000325953
0.000308267
0.000293259
0.000280576
0.00128002
0.00113878
0.00101875
0.000914421
0.000822917
0.000742315
0.000671145
0.000608211
0.000552506
0.000503174
0.000459479
0.000420788
0.000386558
0.000356325
0.000329696
0.000306347
0.000286018
0.000268519
0.000253715
0.000212351
0.00024056
0.000283409
0.000334242
0.00038915
0.000445906
0.000503187
0.000560165
0.000616295
0.000671207
0.000724645
0.000776436
0.000826461
0.000874644
0.000920927
0.000965245
0.00100746
0.00104724
0.00108355
0.000192977
0.000224191
0.000269142
0.000321433
0.000377292
0.000434628
0.000492225
0.000549329
0.000605445
0.000660233
0.000713457
0.000764954
0.00081461
0.000862345
0.000908096
0.000951791
0.000993297
0.00103232
0.00106807
0.000181992
0.000214523
0.00025996
0.00031224
0.000367808
0.000424692
0.000481746
0.00053826
0.000593765
0.000647939
0.000700557
0.000751462
0.000800546
0.000847733
0.000892968
0.000936194
0.00097732
0.00101616
0.00105223
0.000177803
0.000210136
0.000254762
0.000305956
0.000360356
0.000416071
0.000471992
0.000527424
0.000581907
0.000635125
0.000686856
0.000736943
0.000785281
0.000831798
0.000876444
0.000919178
0.000959944
0.00099863
0.00103496
0.000178989
0.000209973
0.000252812
0.000302146
0.000354758
0.000408802
0.000463175
0.000517179
0.00057035
0.000622367
0.000673004
0.000722103
0.000769555
0.000815289
0.000859261
0.000901437
0.000941786
0.000980246
0.00101666
0.000184327
0.000213226
0.000253611
0.00030054
0.000350926
0.00040294
0.000455466
0.000507792
0.000559438
0.000610073
0.000659461
0.000707437
0.00075389
0.000798744
0.000841956
0.0008835
0.000923356
0.000961496
0.000997839
0.000192815
0.000219261
0.000256792
0.000300957
0.00034881
0.000398536
0.000448998
0.000499459
0.00054942
0.000598532
0.000646548
0.000693295
0.000738652
0.00078254
0.000824913
0.000865748
0.000905033
0.000942758
0.00097889
0.00020367
0.000227563
0.000262063
0.000303254
0.000348372
0.000395626
0.000443863
0.000492317
0.000540467
0.000587945
0.00063449
0.000679916
0.000724094
0.000766938
0.000808398
0.000848449
0.000887084
0.000924304
0.000960103
0.000216299
0.000237711
0.000269164
0.000307296
0.000349562
0.000394222
0.000440116
0.000486456
0.000532696
0.00057845
0.000623439
0.000667465
0.000710389
0.000752118
0.000792594
0.000831788
0.000869695
0.000906322
0.000941678
0.000230253
0.000249351
0.000277858
0.000312943
0.000352312
0.000394309
0.000437781
0.000481926
0.000526178
0.000570132
0.000613493
0.000656051
0.000697653
0.000738198
0.000777621
0.000815889
0.000852992
0.000888939
0.000923748
0.000245192
0.000262185
0.000287917
0.000320042
0.000356532
0.000395841
0.000436846
0.000478741
0.000520946
0.000563039
0.000604712
0.000645739
0.000685958
0.000725256
0.000763561
0.000800833
0.000837057
0.000872241
0.000906407
0.000260851
0.000275959
0.000299126
0.00032843
0.00036211
0.000398749
0.000437273
0.000476886
0.000517003
0.000557188
0.000597121
0.000636564
0.000675343
0.000713336
0.000750461
0.00078667
0.000821944
0.000856286
0.000889717
0.000277017
0.000290454
0.00031128
0.000337936
0.000368914
0.000402937
0.000438996
0.00047632
0.000514324
0.000552568
0.000590721
0.000628534
0.000665824
0.000702457
0.000738345
0.00077343
0.000807686
0.00084111
0.00087372
0.000293514
0.000305477
0.000324189
0.000348388
0.000376799
0.000408289
0.000441926
0.000476974
0.00051286
0.000549144
0.000585488
0.000621635
0.000657392
0.00069262
0.000727217
0.00076112
0.000794295
0.000826731
0.000858442
0.000310196
0.000320861
0.000337672
0.000359613
0.00038561
0.000414674
0.000445955
0.000478763
0.000512542
0.00054686
0.000581378
0.000615832
0.000650024
0.000683805
0.000717066
0.000749736
0.000781772
0.000813157
0.000843896
0.00032693
0.000336454
0.000351564
0.000371441
0.00039519
0.00042195
0.000450961
0.00048158
0.000513282
0.000545644
0.00057833
0.000611076
0.000643677
0.000675979
0.000707866
0.000739258
0.000770104
0.000800381
0.000830086
0.0003436
0.00035212
0.000365711
0.000383712
0.000405378
0.000429968
0.000456807
0.000485308
0.000514976
0.000545405
0.000576267
0.0006073
0.000638296
0.000669095
0.000699576
0.000729653
0.000759268
0.000788388
0.000817003
0.000360098
0.000367734
0.000379969
0.00039627
0.000416016
0.000438576
0.000463354
0.000489817
0.000517507
0.000546041
0.000575099
0.000604424
0.000633809
0.000663091
0.000692145
0.000720878
0.000749226
0.000777148
0.000804627
0.000376325
0.000383179
0.000394205
0.000408968
0.000426953
0.000447622
0.000470453
0.00049497
0.000520751
0.000547436
0.000574721
0.000602355
0.000630134
0.000657895
0.000685508
0.000712877
0.000739932
0.000766625
0.00079293
0.000392185
0.000398347
0.000408292
0.000421665
0.000438039
0.000456955
0.000477959
0.000500627
0.000524575
0.000549469
0.000575022
0.000600992
0.000627179
0.000653422
0.000679591
0.000705585
0.000731328
0.000756768
0.000781872
0.000407585
0.000413134
0.000422113
0.00043423
0.000449131
0.000466426
0.000485722
0.000506642
0.000528841
0.000552009
0.000575879
0.000600221
0.000624841
0.00064958
0.000674309
0.000698924
0.000723347
0.00074752
0.000771404
0.000422436
0.00042744
0.000435552
0.000446536
0.000460093
0.000475893
0.000493597
0.000512872
0.000533408
0.000554923
0.000577168
0.000599925
0.00062301
0.000646267
0.000669569
0.000692811
0.000715913
0.000738813
0.000761466
0.000436649
0.000441165
0.000448501
0.000458459
0.000470791
0.000485216
0.00050144
0.000519172
0.000538135
0.000558073
0.000578755
0.000599979
0.000621568
0.000643373
0.00066527
0.000687154
0.000708943
0.000730571
0.000751992
0.000450134
0.000454214
0.000460851
0.000469882
0.000481096
0.000494257
0.00050911
0.0005254
0.00054288
0.00056132
0.000580508
0.000600255
0.000620395
0.000640786
0.000661306
0.000681853
0.000702344
0.000722713
0.000742907
0.000462799
0.000466489
0.000472497
0.000480687
0.000490883
0.000502883
0.000516467
0.000531413
0.000547501
0.000564525
0.00058229
0.000600622
0.000619366
0.000638387
0.000657567
0.000676807
0.000696024
0.000715151
0.000734133
0.000474549
0.000477888
0.000483329
0.000490758
0.000500026
0.000510961
0.000523374
0.000537071
0.000551857
0.000567547
0.000583964
0.000600949
0.000618355
0.000636056
0.00065394
0.000671909
0.000689884
0.000707796
0.000725589
0.000485286
0.00048831
0.000493239
0.000499977
0.000508399
0.000518359
0.000529694
0.000542233
0.000555806
0.000570246
0.000585393
0.000601101
0.000617235
0.000633673
0.000650311
0.000667055
0.000683827
0.000700558
0.000717193
0.000494905
0.000497645
0.000502111
0.000508222
0.000515875
0.000524944
0.000535288
0.000546759
0.000559207
0.000572482
0.00058644
0.000600946
0.000615876
0.000631117
0.000646567
0.000662139
0.000677755
0.00069335
0.000708867
0.000503294
0.000505777
0.000509824
0.000515369
0.000522322
0.000530578
0.000540016
0.000550507
0.000561917
0.000574113
0.000586966
0.000600351
0.000614153
0.000628267
0.000642597
0.000657058
0.000671577
0.000686089
0.000700537
0.00051033
0.000512583
0.000516251
0.000521282
0.000527601
0.00053512
0.000543733
0.000553329
0.00056379
0.000574998
0.000586833
0.000599183
0.000611941
0.000625008
0.000638293
0.000651717
0.000665207
0.000678701
0.000692143
0.000515883
0.000517926
0.000521252
0.000525818
0.000531566
0.000538418
0.000546287
0.000555076
0.000564679
0.00057499
0.000585901
0.000597309
0.000609115
0.000621225
0.000633555
0.000646026
0.00065857
0.000671125
0.000683637
0.000519807
0.000521659
0.000524674
0.000528822
0.000534056
0.000540314
0.000547521
0.00055559
0.00056443
0.000573943
0.000584032
0.0005946
0.000605556
0.000616812
0.000628287
0.000639906
0.000651603
0.000663316
0.000674994
0.000521945
0.000523619
0.00052635
0.00053012
0.000534899
0.000540635
0.000547264
0.000554709
0.000562886
0.000571708
0.000581084
0.000590927
0.00060115
0.000611669
0.000622408
0.000633295
0.000644263
0.000655253
0.000666213
0.000522124
0.000523625
0.000526091
0.000529524
0.000533906
0.000539197
0.000545339
0.000552262
0.000559887
0.000568134
0.000576921
0.000586166
0.000595788
0.000605708
0.000615851
0.000626146
0.00063653
0.000646943
0.000657332
0.00052016
0.000521475
0.000523684
0.000526817
0.000530871
0.000535806
0.000541565
0.000548077
0.000555271
0.000563074
0.000571409
0.000580202
0.000589375
0.000598855
0.000608569
0.000618446
0.00062842
0.000638434
0.000648433
0.000515856
0.000516934
0.000518881
0.000521763
0.000525578
0.000530267
0.000535758
0.000541985
0.000548883
0.000556385
0.000564424
0.000572931
0.000581836
0.000591066
0.000600549
0.000610214
0.000619995
0.000629829
0.000639661
0.000508996
0.000509708
0.000511385
0.000514122
0.00051783
0.000522397
0.000527749
0.000533826
0.000540575
0.00054794
0.000555861
0.000564278
0.000573124
0.00058233
0.000591824
0.000601533
0.000611385
0.00062131
0.000631249
0.000499293
0.000499354
0.000500927
0.000503736
0.000507478
0.000512046
0.000517385
0.000523458
0.000530224
0.000537638
0.000545651
0.000554207
0.000563246
0.000572701
0.0005825
0.000592566
0.000602819
0.000613176
0.000623558
0.000485828
0.000485585
0.000487598
0.000490592
0.000494431
0.000499087
0.000504541
0.00051077
0.000517745
0.00052543
0.000533784
0.000542756
0.000552292
0.000562325
0.000572787
0.000583597
0.000594668
0.000605899
0.000617166
0.00115378
0.00117382
0.00119154
0.0012076
0.00122244
0.00123634
0.00124953
0.00126214
0.0012743
0.0012861
0.00129761
0.00130888
0.00131999
0.00133097
0.00134186
0.00135271
0.00136355
0.00137442
0.00138535
0.00139638
0.00140755
0.0014189
0.0014305
0.00144242
0.00145473
0.00146754
0.00148094
0.00149506
0.00151005
0.00152605
0.00154323
0.00156174
0.00158176
0.00160344
0.00162691
0.00165222
0.00167928
0.0017078
0.0017473
0.00112493
0.00114291
0.00116
0.00117609
0.00119125
0.00120558
0.0012192
0.00123223
0.00124477
0.00125692
0.00126875
0.00128033
0.00129173
0.00130302
0.00131423
0.00132543
0.00133666
0.00134797
0.00135941
0.00137103
0.00138287
0.001395
0.00140749
0.00142039
0.0014338
0.00144779
0.00146248
0.00147796
0.00149437
0.00151184
0.00153051
0.00155056
0.00157215
0.0015955
0.00162085
0.00164849
0.00167881
0.00171772
0.00176714
0.00110376
0.00111946
0.00113485
0.0011498
0.00116423
0.00117815
0.00119159
0.00120459
0.00121721
0.00122952
0.00124157
0.00125342
0.00126512
0.00127674
0.00128833
0.00129993
0.00131161
0.00132341
0.00133537
0.00134757
0.00136005
0.00137287
0.00138609
0.00139979
0.00141404
0.00142892
0.00144451
0.00146093
0.00147826
0.00149664
0.00151621
0.00153711
0.00155955
0.00158377
0.00161011
0.00163902
0.00167184
0.00171196
0.00175864
0.0010839
0.0010983
0.00111252
0.00112649
0.00114017
0.00115355
0.00116663
0.00117943
0.00119197
0.0012043
0.00121645
0.00122847
0.00124041
0.0012523
0.00126421
0.00127617
0.00128824
0.00130047
0.0013129
0.00132559
0.0013386
0.00135198
0.00136579
0.00138009
0.00139496
0.00141046
0.00142668
0.00144369
0.00146159
0.00148048
0.00150046
0.00152167
0.00154423
0.00156833
0.00159414
0.00162187
0.00165161
0.00168581
0.00172721
0.00106411
0.00107783
0.00109138
0.00110474
0.00111791
0.00113087
0.00114365
0.00115623
0.00116866
0.00118095
0.00119314
0.00120526
0.00121734
0.00122943
0.00124157
0.0012538
0.00126616
0.00127871
0.00129148
0.00130453
0.0013179
0.00133166
0.00134585
0.00136053
0.00137576
0.0013916
0.00140812
0.00142538
0.00144345
0.00146241
0.00148232
0.00150324
0.00152525
0.00154836
0.00157259
0.00159786
0.00162404
0.00165273
0.00168571
0.00104432
0.00105768
0.00107087
0.00108389
0.00109674
0.00110945
0.00112201
0.00113444
0.00114677
0.00115901
0.0011712
0.00118335
0.00119551
0.00120771
0.00121997
0.00123235
0.00124488
0.0012576
0.00127055
0.00128378
0.00129732
0.00131124
0.00132557
0.00134036
0.00135567
0.00137154
0.00138802
0.00140516
0.00142302
0.00144164
0.00146104
0.00148127
0.00150232
0.00152419
0.00154683
0.00157013
0.00159395