/*--------------------------------*- C++ -*----------------------------------*\
| =========                 |                                                 |
| \\      /  F ield         | OpenFOAM: The Open Source CFD Toolbox           |
|  \\    /   O peration     | Version:  v2012                                 |
|   \\  /    A nd           | Website:  www.openfoam.com                      |
|    \\/     M anipulation  |                                                 |
\*---------------------------------------------------------------------------*/
FoamFile
{
    version     2.0;
    format      ascii;
    class       volSymmTensorField;
    location    "17";
    object      epsilon;
}
// * * * * * * * * * * * * * * * * * * * * * * * * * * * * * * * * * * * * * //

dimensions      [0 0 0 0 0 0 0];


internalField   nonuniform List<symmTensor> 
500
(
(0.00629636 -0.00133227 -2.02554e-14 -0.00662711 -5.59819e-14 0)
(0.00569285 -0.00130982 -3.65266e-14 -0.00539374 -2.29515e-14 0)
(0.00575901 -0.000881727 -5.33547e-15 -0.00519551 -2.48759e-15 0)
(0.00456615 -0.00121765 -5.36105e-15 -0.00347392 -1.06449e-14 0)
(0.00470843 -0.000314316 1.37726e-15 -0.00348842 -7.982e-15 0)
(0.00337669 -0.000922953 5.72188e-15 -0.00191682 -7.56643e-15 0)
(0.00354812 0.00016326 1.93465e-15 -0.00198967 2.67234e-15 0)
(0.00247756 -0.0005246 4.52709e-15 -0.00111134 9.64506e-15 0)
(0.00262527 0.000416457 6.86842e-16 -0.00104318 1.09795e-14 0)
(0.00186377 -0.000201313 2.42915e-15 -0.000693841 4.85592e-15 0)
(0.00471479 -0.00225298 -4.00721e-14 -0.00507044 -2.4848e-14 0)
(0.00332776 -0.00169288 -1.88109e-15 -0.00251879 -8.66061e-16 0)
(0.00343804 -0.0015614 -5.9334e-15 -0.00333674 -1.02283e-14 0)
(0.00219343 -0.00112717 1.85637e-15 -0.000895451 -4.58618e-15 0)
(0.00242484 -0.000770746 4.46637e-15 -0.00194116 -6.48288e-15 0)
(0.00178207 -0.000626572 -2.19681e-15 -0.000718066 5.29351e-15 0)
(0.00201681 -0.00019601 3.50924e-15 -0.00120386 7.15877e-15 0)
(0.00159974 -0.000279745 1.69699e-15 -0.000763171 6.68324e-15 0)
(0.00181798 0.000169148 4.14133e-15 -0.000810043 5.58407e-15 0)
(0.00146182 -4.52864e-05 1.79772e-15 -0.000755897 2.82543e-15 0)
(0.00192337 -0.00179641 1.99862e-15 -0.00230324 4.76724e-15 0)
(0.000703898 -0.000663302 -4.9548e-16 2.20576e-05 3.63902e-15 0)
(0.000711713 -0.00084894 1.11608e-15 -0.000919825 -2.83627e-16 0)
(0.000803015 -0.000416785 -1.11543e-15 -0.000288412 2.37549e-15 0)
(0.000793379 -0.000511297 -3.94997e-15 -0.000688596 4.86872e-15 0)
(0.000988203 -0.000315555 -2.49995e-15 -0.000496251 2.12265e-15 0)
(0.00104951 -0.000284206 -6.89769e-16 -0.000702182 4.07627e-15 0)
(0.00110537 -0.00021453 -9.36751e-17 -0.00062164 -9.72529e-16 0)
(0.00122414 -8.80178e-05 1.63021e-15 -0.000703036 2.33678e-15 0)
(0.00115491 -0.000112743 -1.21214e-15 -0.000686674 1.78503e-15 0)
(-2.58228e-05 -0.000316203 -3.32178e-15 -0.000142206 5.6153e-15 0)
(0.000319715 -0.000165063 -1.29714e-15 -7.82674e-05 -2.75387e-16 0)
(0.000220536 -0.000300385 -9.82287e-17 -0.000255809 9.43473e-16 0)
(0.000530663 -0.00020693 -3.5345e-16 -0.000249642 2.99457e-16 0)
(0.000485724 -0.000287841 -1.08442e-15 -0.000394041 7.90709e-16 0)
(0.000699031 -0.000217909 7.36607e-16 -0.000388605 1.26169e-15 0)
(0.000707826 -0.00024195 -9.24391e-16 -0.000490487 -7.87239e-16 0)
(0.000820801 -0.000203605 9.53881e-16 -0.000488856 -7.11345e-16 0)
(0.000873906 -0.000178121 -6.35776e-16 -0.000547099 -3.78278e-16 0)
(0.000896349 -0.000173052 -2.54679e-15 -0.000550916 -5.03503e-16 0)
(-8.02148e-06 -1.74167e-05 -1.61763e-15 -0.000119809 -8.65844e-16 0)
(0.000256489 -1.20509e-05 -1.15229e-15 -0.000145266 -9.28402e-16 0)
(0.000197294 -8.91907e-05 -8.92732e-16 -0.000244755 -4.23598e-16 0)
(0.000427454 -9.08649e-05 -2.2508e-15 -0.000278467 4.32271e-16 0)
(0.000388641 -0.000139381 3.13551e-16 -0.00033887 1.48265e-15 0)
(0.000564651 -0.000140758 -8.94684e-16 -0.000370385 1.30462e-15 0)
(0.000552021 -0.000163217 1.25377e-15 -0.000405665 5.58798e-16 0)
(0.000674779 -0.00016509 -1.47408e-15 -0.000432378 -8.65139e-16 0)
(0.000681398 -0.000167085 -2.64632e-15 -0.000446122 -1.86125e-15 0)
(0.00075623 -0.00016917 -4.52394e-15 -0.000465692 -2.89449e-15 0)
(-6.66507e-05 0.000171972 -1.19414e-15 -0.000190172 -5.10984e-16 0)
(0.00019498 8.65696e-05 -1.079e-15 -0.000225267 3.45644e-16 0)
(0.000132145 4.38002e-05 -2.10834e-15 -0.000252488 2.93114e-16 0)
(0.000294942 -4.70081e-05 -8.18356e-16 -0.000296547 4.43168e-16 0)
(0.000278065 -4.35192e-05 -1.87372e-15 -0.000278276 6.82614e-16 0)
(0.000367202 -0.000141971 -2.24213e-16 -0.000330943 4.2479e-16 0)
(0.000388845 -0.000100428 -1.31687e-15 -0.000275769 -3.75134e-17 0)
(0.000422946 -0.00021596 2.17708e-16 -0.000341525 -2.17003e-16 0)
(0.000467179 -0.000137557 -2.67104e-15 -0.000239867 -2.40818e-15 0)
(0.000476763 -0.00029249 -8.37871e-16 -0.000334532 -5.09738e-16 0)
(-3.0738e-05 0.000292795 -4.95264e-16 -0.000365352 4.62141e-16 0)
(0.000227998 0.000128672 3.58654e-16 -0.000367215 1.82254e-16 0)
(0.000107196 0.000102875 1.19479e-16 -0.000353468 2.5804e-16 0)
(0.000264022 -3.95559e-05 5.5381e-16 -0.000366632 -2.04047e-16 0)
(0.000205512 -2.9979e-05 2.50884e-16 -0.000332922 8.08002e-17 0)
(0.000296533 -0.000156706 3.90313e-16 -0.000353707 2.0486e-16 0)
(0.000282459 -0.000129075 6.50088e-16 -0.000314557 3.14825e-16 0)
(0.000329238 -0.000240922 4.80952e-16 -0.000339816 3.82615e-16 0)
(0.000351962 -0.000213703 5.70507e-16 -0.000314989 5.00901e-16 0)
(0.00036412 -0.000295012 4.87891e-16 -0.00033761 3.94622e-16 0)
(6.44574e-05 0.000345801 2.2031e-16 -0.000589561 1.3932e-16 0)
(0.000283777 0.000114003 5.95444e-16 -0.000523925 -1.11169e-15 0)
(0.000118336 0.000132371 9.07477e-16 -0.000480323 -9.10811e-16 0)
(0.000246939 -4.57183e-05 4.19369e-16 -0.000441884 -9.94918e-16 0)
(0.000161647 -1.25961e-05 2.22912e-16 -0.000399811 1.05412e-16 0)
(0.000232698 -0.000152388 2.06432e-16 -0.000378521 1.04517e-16 0)
(0.0002019 -0.000115282 3.67111e-16 -0.000342498 3.21222e-16 0)
(0.000235968 -0.00022226 -1.19262e-16 -0.000332477 4.41975e-16 0)
(0.00024388 -0.000185698 2.30501e-16 -0.000303546 4.16469e-16 0)
(0.0002498 -0.000267321 2.79724e-16 -0.000300242 -9.48406e-17 0)
(0.000184835 0.000312098 2.71918e-16 -0.000806079 -5.26949e-16 0)
(0.000324133 4.59499e-05 2.78423e-16 -0.000650591 -3.31725e-16 0)
(0.000149108 0.000130501 3.41524e-16 -0.000599905 -1.1408e-15 0)
(0.000214685 -7.01268e-05 -5.83734e-16 -0.000494232 -5.35311e-16 0)
(0.000133782 1.15015e-05 -1.48536e-16 -0.000450375 -3.29381e-16 0)
(0.000165227 -0.000133523 -3.21791e-16 -0.000382847 -3.96818e-16 0)
(0.000137026 -6.72542e-05 -1.33574e-16 -0.000349402 3.59162e-16 0)
(0.000149415 -0.000173411 -1.24466e-16 -0.000305959 -4.33803e-16 0)
(0.000152478 -0.000120713 4.51028e-17 -0.000280832 -3.7058e-16 0)
(0.000153648 -0.000202743 7.58942e-17 -0.000251468 -9.18008e-16 0)
(0.000289929 0.000179314 -1.92554e-16 -0.000971137 2.80253e-16 0)
(0.000227317 -8.97026e-05 -6.54858e-17 -0.000685007 7.07848e-17 0)
(0.000166734 9.40382e-05 -2.72352e-16 -0.00065571 -2.86175e-16 0)
(0.000137507 -8.5452e-05 6.58111e-16 -0.000486708 -2.95581e-16 0)
(0.000111234 4.35283e-05 -1.65666e-16 -0.000466243 -6.05093e-16 0)
(9.34697e-05 -8.28171e-05 3.1637e-16 -0.000358845 -4.73729e-17 0)
(9.27906e-05 8.39753e-06 -4.94396e-17 -0.000344483 -4.64032e-16 0)
(7.77349e-05 -7.99991e-05 2.44379e-16 -0.000275523 -2.40876e-16 0)
(9.59783e-05 -1.95259e-05 8.0231e-17 -0.000266117 -7.39263e-16 0)
(8.1666e-05 -7.67947e-05 9.56266e-17 -0.000224592 -1.55624e-16 0)
(0.000145478 -7.42836e-05 -1.21431e-17 -0.000224592 -1.87967e-16 0)
(0.000138841 -1.13094e-05 1.9082e-17 -7.18039e-05 -3.4956e-16 0)
(0.000135524 -0.00019753 1.04083e-17 -0.00024792 -7.02251e-16 0)
(0.000209602 -8.65759e-05 3.72098e-16 -8.38825e-05 4.02686e-16 0)
(0.000203308 -0.000294613 5.93709e-16 -0.000314874 -1.92304e-16 0)
(0.000316206 -0.000141029 1.43115e-16 -0.000110868 6.95787e-16 0)
(0.000309049 -0.000357153 6.7806e-16 -0.000393089 5.48369e-16 0)
(0.00043814 -0.000168193 -4.25007e-17 -0.000140814 -5.84981e-16 0)
(0.00043312 -0.000381037 -7.73361e-16 -0.000453949 -7.66314e-16 0)
(0.000560712 -0.000168716 7.1991e-16 -0.000163693 2.51628e-15 0)
(0.00013835 -7.80983e-05 1.63715e-16 -8.13546e-05 -8.82371e-17 0)
(0.000160822 -3.85201e-05 -5.89806e-17 -2.01192e-05 -1.825e-16 0)
(0.000158054 -0.000193754 7.069e-17 -0.000128098 6.47658e-17 0)
(0.000228753 -0.000115267 1.36176e-16 -4.38758e-05 3.6642e-16 0)
(0.000223387 -0.000292384 2.56522e-16 -0.000211031 8.98844e-16 0)
(0.000327191 -0.000170391 8.2833e-16 -8.08927e-05 1.69957e-15 0)
(0.000320978 -0.000357917 7.50268e-17 -0.000313666 5.62115e-16 0)
(0.000438763 -0.000197481 -2.81979e-15 -0.000120661 3.05951e-15 0)
(0.000434405 -0.000382369 -4.02022e-16 -0.000414239 8.2955e-16 0)
(0.000546192 -0.00019851 -3.0375e-15 -0.00015178 1.32519e-15 0)
(0.000176499 -6.47048e-05 -3.33934e-17 -2.35456e-05 -5.20006e-17 0)
(0.000199761 -4.46973e-05 -1.94289e-16 -8.29874e-06 -5.63362e-18 0)
(0.000197521 -0.000170208 -1.1254e-16 -6.41069e-05 -2.72319e-17 0)
(0.000255141 -0.000120299 1.7434e-16 -3.16537e-05 -4.96412e-17 0)
(0.000250765 -0.000264498 4.8247e-16 -0.000135094 6.89016e-16 0)
(0.000336741 -0.000177836 2.02442e-15 -6.81406e-05 -9.40329e-16 0)
(0.000331535 -0.000334654 3.92481e-16 -0.000228448 2.08018e-15 0)
(0.000433678 -0.000211363 1.1189e-16 -0.000110669 -2.04494e-16 0)
(0.000429873 -0.000372605 -3.87581e-15 -0.000330695 2.62805e-15 0)
(0.000532542 -0.000221192 -1.7087e-15 -0.000150431 4.0789e-16 0)
(0.000229109 -5.04914e-05 -5.54244e-16 -9.0505e-06 2.2339e-17 0)
(0.000247507 -4.30129e-05 1.1189e-16 -1.62833e-05 2.22795e-17 0)
(0.000245717 -0.000143218 2.62811e-16 -3.92515e-05 -1.23087e-17 0)
(0.000289673 -0.000113765 3.68629e-16 -3.60843e-05 1.07832e-16 0)
(0.000286196 -0.000228131 8.53918e-16 -9.32102e-05 -6.44883e-16 0)
(0.000353353 -0.000170584 7.66748e-16 -6.81406e-05 -3.76774e-16 0)
(0.000349166 -0.000296481 1.94007e-15 -0.000167433 -1.64244e-15 0)
(0.00043283 -0.000208282 -2.48846e-15 -0.00010824 -6.37199e-16 0)
(0.000429665 -0.000342138 -7.51569e-16 -0.000254433 -4.29391e-16 0)
(0.00051992 -0.000225748 -1.84683e-15 -0.000150675 -3.2028e-16 0)
(0.000283486 -3.89949e-05 -4.11129e-16 -1.59754e-05 9.80441e-19 0)
(0.000297019 -3.81833e-05 7.12971e-16 -3.22153e-05 -3.88954e-16 0)
(0.000295586 -0.000118364 7.67398e-16 -3.75794e-05 -1.01807e-16 0)
(0.000328099 -0.000101941 8.16187e-16 -4.82577e-05 3.01134e-16 0)
(0.000325366 -0.000191723 3.36536e-16 -7.69891e-05 3.72967e-16 0)
(0.000376073 -0.000155091 -1.2091e-15 -7.52145e-05 -1.58165e-16 0)
(0.000372802 -0.000253242 -1.42247e-15 -0.000132807 -2.67764e-16 0)
(0.000438441 -0.000193214 -7.02563e-16 -0.000110749 -2.41666e-15 0)
(0.000435944 -0.000298679 -2.69619e-15 -0.000201151 -1.29554e-15 0)
(0.000511086 -0.000214404 2.18358e-16 -0.000151456 -8.18247e-16 0)
(0.000333786 -3.04056e-05 4.17635e-16 -3.16351e-05 -2.12003e-16 0)
(0.000343526 -3.19738e-05 9.91394e-16 -4.83912e-05 -9.44044e-16 0)
(0.000342363 -9.70179e-05 1.02847e-15 -4.72524e-05 -5.47984e-16 0)
(0.000365913 -8.78474e-05 6.93022e-16 -6.12835e-05 -8.42168e-16 0)
(0.000363762 -0.000158461 -4.09828e-17 -7.60863e-05 1.35864e-17 0)
(0.000401065 -0.000135441 1.12584e-15 -8.37309e-05 -2.07116e-16 0)
(0.000398558 -0.0002106 -6.10623e-16 -0.000117568 -1.16663e-15 0)
(0.000448225 -0.00017099 2.49713e-15 -0.000114455 -2.36071e-16 0)
(0.000446343 -0.000250411 1.37282e-15 -0.000169713 -1.97141e-15 0)
(0.000505683 -0.000192294 1.82471e-15 -0.000151349 7.14557e-17 0)
(0.00037691 -2.41966e-05 1.56429e-15 -4.79088e-05 -4.16439e-16 0)
(0.000383764 -2.49862e-05 2.2907e-15 -5.90317e-05 -5.23917e-16 0)
(0.000382798 -7.89712e-05 1.14925e-15 -5.96708e-05 -1.17675e-15 0)
(0.000399339 -7.26692e-05 -2.46331e-16 -6.94349e-05 -1.07464e-15 0)
(0.000397627 -0.000128857 5.52076e-16 -8.14194e-05 -8.38453e-16 0)
(0.000424229 -0.000113585 -2.1684e-17 -8.84417e-05 3.05569e-16 0)
(0.000422322 -0.000170721 2.24603e-15 -0.000112873 6.61441e-16 0)
(0.000458524 -0.000144584 1.47451e-16 -0.000115263 4.16984e-16 0)
(0.000457157 -0.000202255 1.86721e-15 -0.000152888 3.27327e-16 0)
(0.000501632 -0.000163478 -1.36349e-15 -0.000148165 -3.49987e-16 0)
(0.000410766 -1.98663e-05 2.5366e-15 -5.87898e-05 -8.60535e-17 0)
(0.000414999 -1.73419e-05 -1.46497e-15 -5.86657e-05 4.03984e-16 0)
(0.000414177 -6.33724e-05 -4.83988e-16 -6.81089e-05 -2.97106e-16 0)
(0.000424971 -5.62824e-05 -2.29417e-15 -6.69111e-05 6.6959e-16 0)
(0.000423585 -0.000101841 -1.30256e-15 -8.54618e-05 -1.14944e-16 0)
(0.000441812 -8.94317e-05 -8.23126e-16 -8.41491e-05 1.40134e-15 0)
(0.000440357 -0.000133117 -5.43185e-16 -0.000110641 8.9466e-16 0)
(0.000465823 -0.000114542 1.23339e-15 -0.00010933 1.35826e-15 0)
(0.000464853 -0.000155495 -4.34982e-16 -0.000142651 2.24355e-16 0)
(0.00049652 -0.000129587 3.1572e-16 -0.000139791 1.0196e-15 0)
(0.000433434 -1.72379e-05 -2.49627e-15 -5.86675e-05 2.7402e-16 0)
(0.00043362 -9.10038e-06 -2.48239e-15 -3.98636e-05 2.38367e-16 0)
(0.000432915 -4.86694e-05 -2.34578e-15 -6.61553e-05 8.85184e-16 0)
(0.000438563 -3.67531e-05 -1.17961e-16 -4.56171e-05 -3.80318e-17 0)
(0.000437425 -7.43349e-05 -9.12031e-16 -8.15665e-05 9.63e-16 0)
(0.000450535 -5.98498e-05 -6.34041e-16 -6.5912e-05 3.68852e-16 0)
(0.000449382 -9.46133e-05 2.48716e-16 -0.000104432 1.37508e-15 0)
(0.000467521 -7.83064e-05 6.34041e-16 -9.35887e-05 3.02343e-16 0)
(0.000466824 -0.00010785 1.70263e-15 -0.000132666 1.18656e-15 0)
(0.000488743 -8.92072e-05 -7.53737e-16 -0.000125517 -6.05188e-17 0)
(0.000442759 -1.70896e-05 -2.54484e-15 -4.00019e-05 -5.709e-19 0)
(0.000429899 -1.37004e-07 1.61893e-15 1.75751e-05 1.79146e-16 0)
(0.000429387 -2.90635e-05 8.99454e-16 -4.52158e-05 -1.27123e-16 0)
(0.00043616 -6.15922e-06 2.01662e-15 -2.63214e-07 -1.70681e-16 0)
(0.000435146 -3.9883e-05 4.21104e-16 -6.4193e-05 -2.94825e-16 0)
(0.000447653 -1.75782e-05 2.05348e-15 -2.82491e-05 5.05902e-16 0)
(0.000446645 -4.81955e-05 3.23092e-16 -9.00074e-05 3.18898e-16 0)
(0.000462615 -2.85381e-05 2.63244e-16 -6.58729e-05 1.23552e-15 0)
(0.000462049 -5.2638e-05 -5.9501e-16 -0.00012002 1.44402e-16 0)
(0.000479063 -3.69003e-05 -5.41884e-16 -0.000109072 -3.7754e-16 0)
(0.000560712 -0.000420294 -2.92106e-15 -0.000499073 -7.58942e-19 0)
(0.000678424 -0.000209703 -1.08464e-15 -0.000333722 4.72734e-15 0)
(0.000678424 -0.000364277 -1.16411e-15 -0.000519913 3.455e-15 0)
(0.000772012 -0.000193836 -1.02002e-15 -0.000369628 2.5907e-15 0)
(0.000772012 -0.000310674 -1.64007e-15 -0.000531668 2.01597e-15 0)
(0.000850316 -0.000166868 1.73299e-15 -0.000398403 3.72207e-16 0)
(0.000850316 -0.000258939 -1.68724e-15 -0.000536873 1.67165e-15 0)
(0.000917854 -0.000134721 4.19239e-15 -0.000420792 7.38775e-16 0)
(0.000917854 -0.000210637 1.8709e-15 -0.00053664 4.22243e-16 0)
(0.00097808 -0.00010068 1.64365e-15 -0.000438203 1.94267e-15 0)
(0.00097808 -0.000168252 -1.09266e-15 -0.000532519 -1.80503e-15 0)
(0.00103478 -6.67786e-05 -3.00606e-15 -0.00045261 -2.34947e-16 0)
(0.00103478 -0.000134078 -3.9002e-15 -0.000527245 -2.97584e-15 0)
(0.00109248 -3.40937e-05 -1.44004e-15 -0.000466514 -2.19594e-15 0)
(0.00109248 -0.000109195 1.7305e-15 -0.000524895 1.61692e-15 0)
(0.00115628 -2.64635e-06 8.48497e-16 -0.000482777 1.46031e-15 0)
(0.00115628 -9.23179e-05 7.42472e-15 -0.000530789 3.68542e-15 0)
(0.00123094 2.87382e-05 -7.55689e-16 -0.000504214 1.81712e-15 0)
(0.00123094 -7.77382e-05 4.38386e-15 -0.000551461 1.52466e-15 0)
(0.00131847 6.22308e-05 -8.35269e-16 -0.000532611 5.10659e-16 0)
(0.000546192 -0.000343595 -1.16313e-15 -0.000333722 4.15548e-15 0)
(0.000616347 -0.000223555 -1.75164e-15 -0.000269401 -3.66135e-16 0)
(0.000616347 -0.000341464 -1.20368e-15 -0.000369628 1.76566e-15 0)
(0.000688114 -0.000217475 4.53197e-16 -0.000296388 -1.00679e-15 0)
(0.000688114 -0.000324087 2.42146e-15 -0.000398403 1.11619e-16 0)
(0.000757459 -0.000203475 5.81566e-16 -0.000322569 1.53219e-15 0)
(0.000757459 -0.000298372 4.22861e-15 -0.000420792 8.62537e-16 0)
(0.000823642 -0.000183051 1.73472e-18 -0.000347116 3.07371e-17 0)
(0.000823642 -0.000268287 1.15164e-15 -0.000438203 1.52065e-15 0)
(0.00088742 -0.000157614 -5.51642e-16 -0.000370068 1.1499e-15 0)
(0.00088742 -0.000236267 -1.76963e-15 -0.00045261 1.63831e-15 0)
(0.000950363 -0.000128109 -7.34222e-16 -0.000392041 2.1066e-15 0)
(0.000950363 -0.000203608 -1.39905e-15 -0.000466514 -1.4711e-15 0)
(0.00101449 -9.48914e-05 -3.61256e-16 -0.000414003 3.8448e-15 0)
(0.00101449 -0.0001705 -3.44776e-16 -0.000482777 1.2979e-15 0)
(0.00108194 -5.76581e-05 -1.47235e-16 -0.000437081 3.79926e-15 0)
(0.00108194 -0.00013606 -2.66529e-15 -0.000504214 1.96216e-15 0)
(0.00115477 -1.54393e-05 -2.34556e-15 -0.000462386 1.16476e-15 0)
(0.00115477 -9.88959e-05 -1.95785e-15 -0.000532611 3.97008e-16 0)
(0.00123508 3.34166e-05 1.03867e-16 -0.000491009 1.32002e-16 0)
(0.000532542 -0.000327137 -1.60332e-15 -0.000269401 -1.0327e-15 0)
(0.000586055 -0.000237064 -2.00968e-15 -0.000229668 -4.15656e-16 0)
(0.000586055 -0.000326412 -2.87747e-16 -0.000296388 -1.25255e-15 0)
(0.000642176 -0.000231676 -2.68622e-15 -0.000253026 -8.8189e-16 0)
(0.000642176 -0.0003176 -9.15717e-16 -0.000322569 1.01573e-15 0)
(0.00069934 -0.000220853 -1.9533e-15 -0.000276823 -1.38472e-15 0)
(0.00069934 -0.000301639 -1.19262e-15 -0.000347116 -2.6605e-16 0)
(0.000756661 -0.000204517 -1.68919e-15 -0.000300553 -2.56671e-15 0)
(0.000756661 -0.000279649 -6.22332e-16 -0.000370068 -4.33437e-16 0)
(0.000813874 -0.000182768 1.661e-15 -0.000323971 5.57063e-16 0)
(0.000813874 -0.000252457 7.78023e-16 -0.000392041 2.92203e-15 0)
(0.000871151 -0.000155655 1.41987e-15 -0.000347059 8.74409e-16 0)
(0.000871151 -0.000220442 -5.59448e-16 -0.000414003 3.89212e-15 0)
(0.000928911 -0.000123032 8.69964e-16 -0.000369945 -1.4962e-17 0)
(0.000928911 -0.00018347 5.05455e-16 -0.000437081 3.21696e-15 0)
(0.000987656 -8.44872e-05 1.36479e-15 -0.000392819 -2.20207e-15 0)
(0.000987656 -0.000140862 -9.60169e-16 -0.000462386 2.6815e-16 0)
(0.00104781 -3.93089e-05 1.17484e-15 -0.000415834 -2.60111e-15 0)
(0.00104781 -9.12156e-05 -1.07553e-16 -0.000491009 -2.04155e-16 0)
(0.00110943 1.35092e-05 2.498e-15 -0.000438963 1.14763e-16 0)
(0.00051992 -0.000309364 -2.28073e-15 -0.000229668 6.82505e-17 0)
(0.000564046 -0.000236175 -2.67147e-16 -0.000203691 -1.38154e-16 0)
(0.000564046 -0.000306754 -2.35575e-15 -0.000253026 -7.82509e-16 0)
(0.000609634 -0.000230989 -1.5864e-15 -0.000225243 2.07679e-16 0)
(0.000609634 -0.000298802 -2.61466e-15 -0.000276823 -1.74535e-15 0)
(0.000656184 -0.000221219 -2.04827e-15 -0.000247087 1.22244e-17 0)
(0.000656184 -0.000285154 -1.50075e-15 -0.000300553 -1.98719e-15 0)
(0.00070319 -0.000206558 -1.09157e-15 -0.000268943 -8.09032e-16 0)
(0.00070319 -0.00026572 8.81673e-16 -0.000323971 -4.97107e-16 0)
(0.000750244 -0.000186762 -7.37257e-18 -0.000290551 -3.40087e-16 0)
(0.000750244 -0.000240455 1.80433e-15 -0.000347059 3.97347e-16 0)
(0.000797035 -0.000161593 -1.17528e-16 -0.000311678 -1.67515e-15 0)
(0.000797035 -0.000209218 7.85396e-16 -0.000369945 -1.80658e-15 0)
(0.000843315 -0.000130763 -1.67834e-16 -0.000332108 -1.83924e-15 0)
(0.000843315 -0.0001717 1.09526e-15 -0.000392819 -2.46782e-15 0)
(0.000888831 -9.39021e-05 -2.05131e-15 -0.000351614 3.4315e-16 0)
(0.000888831 -0.000127376 9.78384e-16 -0.000415834 -2.28718e-15 0)
(0.00093325 -5.05428e-05 -2.15973e-15 -0.000369919 1.97325e-16 0)
(0.00093325 -7.55377e-05 1.64864e-15 -0.000438963 -3.32145e-16 0)
(0.000976103 -1.34467e-07 -4.93919e-15 -0.000386666 7.4707e-16 0)
(0.000511086 -0.000280105 2.22045e-16 -0.000203691 -1.20346e-17 0)
(0.000546979 -0.000221348 -7.38559e-16 -0.00018742 2.77678e-16 0)
(0.000546979 -0.000276759 -1.17506e-15 -0.000225243 4.95921e-16 0)
(0.000583495 -0.000216697 -1.93205e-15 -0.00020692 -4.45201e-16 0)
(0.000583495 -0.000268812 -2.06475e-15 -0.000247087 3.26365e-16 0)
(0.000620337 -0.000207872 -1.11196e-15 -0.000226441 1.98951e-16 0)
(0.000620337 -0.000255902 -1.03238e-15 -0.000268943 -7.00937e-17 0)
(0.000657121 -0.000194643 -1.03433e-15 -0.000245745 -5.13803e-16 0)
(0.000657121 -0.00023774 -9.93129e-16 -0.000290551 -1.05222e-15 0)
(0.000693426 -0.000176784 1.80411e-16 -0.000264549 -1.94243e-15 0)
(0.000693426 -0.000214069 8.04478e-17 -0.000311678 -1.86026e-15 0)
(0.0007288 -0.000154067 2.13241e-15 -0.000282541 -2.54804e-15 0)
(0.0007288 -0.00018463 2.25297e-16 -0.000332108 -1.96564e-15 0)
(0.00076277 -0.000126251 7.85396e-16 -0.000299371 -1.48427e-16 0)
(0.00076277 -0.000149122 -2.28723e-15 -0.000351614 1.14761e-15 0)
(0.000794823 -9.30673e-05 5.62484e-16 -0.000314657 1.43516e-15 0)
(0.000794823 -0.000107194 -2.11159e-15 -0.000369919 1.06301e-15 0)
(0.000824399 -5.42166e-05 1.93985e-15 -0.000327972 4.80898e-16 0)
(0.000824399 -5.84395e-05 -4.51332e-15 -0.000386666 2.59775e-16 0)
(0.000850874 -9.37699e-06 2.30631e-15 -0.000338847 -1.05862e-15 0)
(0.000505683 -0.000242161 -5.02202e-16 -0.00018742 1.49755e-16 0)
(0.000533533 -0.000196878 1.78633e-15 -0.000176722 -3.44465e-16 0)
(0.000533533 -0.000238728 -7.56773e-16 -0.00020692 -5.93079e-16 0)
(0.00056154 -0.000192805 1.32836e-15 -0.000193758 9.11895e-16 0)
(0.00056154 -0.000231099 -8.27029e-16 -0.000226441 4.91808e-16 0)
(0.000589393 -0.000185001 1.3262e-15 -0.000210676 1.64812e-15 0)
(0.000589393 -0.000219057 -3.07263e-16 -0.000245745 3.50875e-17 0)
(0.000616712 -0.000173354 4.84855e-16 -0.000227214 1.08285e-15 0)
(0.000616712 -0.000202392 9.1073e-18 -0.000264549 -1.35424e-15 0)
(0.000643052 -0.000157748 -2.21394e-15 -0.000243063 2.51632e-15 0)
(0.000643052 -0.000180898 1.08138e-15 -0.000282541 -1.16309e-15 0)
(0.00066791 -0.000138061 -2.16971e-15 -0.000257861 1.10334e-15 0)
(0.00066791 -0.000154369 8.73433e-16 -0.000299371 -3.81287e-16 0)
(0.000690733 -0.000114161 -6.62231e-16 -0.0002712 5.72025e-16 0)
(0.000690733 -0.000122589 1.18764e-15 -0.000314657 1.20085e-15 0)
(0.000710917 -8.58899e-05 -3.89879e-16 -0.000282623 1.914e-15 0)
(0.000710917 -8.53224e-05 1.93617e-15 -0.000327972 1.15972e-15 0)
(0.000727826 -5.30599e-05 -1.66707e-15 -0.000291628 2.46461e-15 0)
(0.000727826 -4.23163e-05 3.44906e-15 -0.000338847 -5.41423e-16 0)
(0.000740798 -1.54422e-05 5.75061e-16 -0.000297679 5.94576e-16 0)
(0.000501632 -0.000199684 1.59031e-15 -0.000176722 -4.68592e-16 0)
(0.000522 -0.000166336 -1.54998e-15 -0.00016746 -6.81475e-16 0)
(0.000522 -0.000196234 1.2271e-15 -0.000193758 8.26589e-16 0)
(0.000542325 -0.000162584 -9.81853e-16 -0.000182176 3.16018e-16 0)
(0.000542325 -0.000189099 1.35243e-15 -0.000210676 1.55745e-15 0)
(0.000562272 -0.000155665 -1.86049e-16 -0.000196754 -9.30869e-16 0)
(0.000562272 -0.000178188 6.19513e-16 -0.000227214 8.30268e-16 0)
(0.000581448 -0.000145581 8.75602e-16 -0.000210908 -1.0407e-15 0)
(0.000581448 -0.000163409 -1.63389e-15 -0.000243063 2.68869e-15 0)
(0.000599387 -0.000132345 1.26114e-15 -0.0002243 -4.28666e-16 0)
(0.000599387 -0.000144668 -2.60837e-15 -0.000257861 1.4351e-15 0)
(0.000615551 -0.000115973 5.58147e-16 -0.00023655 -4.04706e-16 0)
(0.000615551 -0.000121864 -5.97829e-16 -0.0002712 3.38136e-16 0)
(0.00062933 -9.6474e-05 -2.45463e-16 -0.00024722 -6.81584e-16 0)
(0.00062933 -9.48798e-05 -1.07596e-15 -0.000282623 1.16602e-15 0)
(0.00064004 -7.38368e-05 -9.37618e-16 -0.000255805 -2.34133e-15 0)
(0.00064004 -6.35719e-05 -2.10487e-15 -0.000291628 1.59078e-15 0)
(0.000646941 -4.79965e-05 -2.43729e-16 -0.000261722 -2.84674e-15 0)
(0.000646941 -2.77538e-05 -8.61724e-16 -0.000297679 6.31927e-16 0)
(0.000649262 -1.87917e-05 -8.80372e-16 -0.000264317 -2.40747e-15 0)
(0.00049652 -0.000154755 -2.11853e-15 -0.00016746 -3.25017e-16 0)
(0.000510595 -0.000131002 7.35956e-16 -0.000156624 1.02736e-15 0)
(0.000510595 -0.000151123 -7.61544e-16 -0.000182176 -3.68832e-17 0)
(0.000524611 -0.000127249 8.99454e-16 -0.000170005 7.84583e-16 0)
(0.000524611 -0.000144483 -6.66351e-16 -0.000196754 -7.8831e-16 0)
(0.000538241 -0.000120995 1.31839e-16 -0.000183219 -7.31565e-16 0)
(0.000538241 -0.000134842 9.62121e-16 -0.000210908 -1.80265e-15 0)
(0.000551085 -0.000112351 8.37871e-16 -0.00019591 -1.70282e-15 0)
(0.000551085 -0.000122208 2.16559e-15 -0.0002243 -1.66875e-15 0)
(0.000562687 -0.000101415 -1.73039e-16 -0.000207771 -1.38003e-15 0)
(0.000562687 -0.0001066 8.68012e-16 -0.00023655 -4.95968e-16 0)
(0.000572514 -8.83342e-05 -1.94289e-16 -0.000218466 -1.02888e-15 0)
(0.000572514 -8.80434e-05 -2.48282e-16 -0.00024722 -1.13703e-15 0)
(0.000579926 -7.33106e-05 4.46691e-16 -0.00022759 -4.57696e-16 0)
(0.000579926 -6.65548e-05 -2.1207e-16 -0.000255805 -2.4124e-15 0)
(0.000584142 -5.65772e-05 1.97368e-15 -0.000234643 -5.20471e-16 0)
(0.000584142 -4.21119e-05 7.36824e-16 -0.000261722 -3.60161e-15 0)
(0.00058422 -3.83583e-05 2.20483e-15 -0.000238993 -7.47395e-16 0)
(0.00058422 -1.46061e-05 -3.80121e-16 -0.000264317 -2.37684e-15 0)
(0.00057905 -1.87825e-05 2.84061e-16 -0.00023983 1.00083e-15 0)
(0.000488743 -0.000106374 6.50521e-16 -0.000156624 1.08432e-15 0)
(0.000498589 -8.89882e-05 -1.47451e-16 -0.000144233 -2.81933e-16 0)
(0.000498589 -0.000102586 1.20628e-15 -0.000170005 6.6303e-16 0)
(0.000508423 -8.53931e-05 9.28511e-16 -0.000158696 -1.02964e-15 0)
(0.000508423 -9.66879e-05 6.22549e-16 -0.000183219 -5.36226e-16 0)
(0.000517788 -8.02798e-05 -6.47486e-16 -0.000172228 -1.69995e-15 0)
(0.000517788 -8.86838e-05 -3.51498e-16 -0.00019591 -1.70953e-15 0)
(0.000526391 -7.34528e-05 -1.04994e-15 -0.00018483 -1.72895e-15 0)
(0.000526391 -7.86179e-05 -3.49547e-16 -0.000207771 -1.43952e-15 0)
(0.000533917 -6.50136e-05 -4.88758e-16 -0.000196323 -1.56334e-15 0)
(0.000533917 -6.65977e-05 -6.04117e-16 -0.000218466 -1.46546e-15 0)
(0.000539957 -5.52278e-05 -7.82794e-16 -0.000206451 -1.5538e-15 0)
(0.000539957 -5.27907e-05 4.996e-16 -0.00022759 -3.20748e-16 0)
(0.000543961 -4.44989e-05 -2.35489e-16 -0.000214898 -1.08474e-15 0)
(0.000543961 -3.74106e-05 1.72562e-15 -0.000234643 -7.91061e-17 0)
(0.000545171 -3.33825e-05 5.85469e-17 -0.000221286 -1.30478e-15 0)
(0.000545171 -2.06891e-05 2.11051e-15 -0.000238993 -1.47966e-16 0)
(0.000542518 -2.26261e-05 -1.52222e-16 -0.000225133 -1.05113e-15 0)
(0.000542518 -2.81133e-06 7.01912e-16 -0.00023983 8.10306e-16 0)
(0.000534413 -1.32457e-05 -9.32414e-16 -0.000225771 -1.27695e-15 0)
(0.000479063 -4.94715e-05 -5.38632e-16 -0.000144233 -9.09185e-16 0)
(0.000488974 -3.29003e-05 -9.17235e-17 -0.000137572 -6.53279e-16 0)
(0.000488974 -4.66191e-05 5.93709e-16 -0.000158696 -9.35816e-16 0)
(0.000497432 -3.29111e-05 -6.54641e-16 -0.000155718 2.38323e-15 0)
(0.000497432 -4.27862e-05 -6.89553e-16 -0.000172228 -4.81399e-16 0)
(0.000504986 -3.10548e-05 1.27719e-16 -0.000172779 2.36334e-15 0)
(0.000504986 -3.78177e-05 -7.65013e-16 -0.00018483 -1.09399e-15 0)
(0.000511699 -2.78585e-05 1.67271e-15 -0.000188233 1.91653e-15 0)
(0.000511699 -3.17517e-05 3.33934e-17 -0.000196323 -7.40754e-16 0)
(0.000517438 -2.36123e-05 1.65883e-15 -0.000201578 1.74388e-15 0)
(0.000517438 -2.47256e-05 -2.58474e-16 -0.000206451 -9.37022e-16 0)
(0.000521973 -1.8573e-05 1.63433e-15 -0.000212349 2.79357e-15 0)
(0.000521973 -1.69672e-05 -2.91434e-16 -0.000214898 -3.85054e-16 0)
(0.000525 -1.30676e-05 3.18105e-16 -0.000220137 2.09044e-15 0)
(0.000525 -8.82217e-06 -5.18249e-16 -0.000221286 -9.85296e-16 0)
(0.000526139 -7.57376e-06 2.46548e-16 -0.000224622 1.36779e-15 0)
(0.000526139 -8.13474e-07 -4.00287e-16 -0.000225133 -7.30671e-16 0)
(0.000524918 -2.8034e-06 1.00961e-15 -0.00022563 1.5902e-15 0)
(0.000524918 6.24101e-06 -4.90059e-16 -0.000225771 -1.20401e-15 0)
(0.000520802 2.06572e-07 9.88359e-16 -0.000223239 2.63769e-15 0)
(0.00197573 0.000518113 5.70426e-16 -0.00048659 -1.14058e-16 0)
(0.0016456 -6.77771e-05 3.73827e-15 -0.000624941 -1.23382e-15 0)
(0.00172652 0.000509021 1.19701e-15 -0.000314741 -3.70602e-15 0)
(0.0014708 2.56017e-05 1.83664e-15 -0.000575627 4.23706e-16 0)
(0.00152806 0.000480979 -2.36031e-16 -0.000284276 -3.74548e-15 0)
(0.001308 5.82957e-05 -2.99608e-15 -0.000509742 2.28203e-15 0)
(0.00135235 0.00045612 -1.18292e-15 -0.00026754 -3.55987e-15 0)
(0.00116772 9.29446e-05 -4.65784e-15 -0.000476462 2.06042e-15 0)
(0.00120055 0.000432498 -1.11364e-15 -0.000263781 -3.44494e-15 0)
(0.00103705 0.00010612 -2.98454e-15 -0.000443832 2.81676e-15 0)
(0.00106202 0.000411802 -3.98837e-16 -0.000266097 -8.22909e-16 0)
(0.000907289 0.000100823 -5.27952e-16 -0.000411029 2.5006e-15 0)
(0.000926781 0.000394972 1.13028e-16 -0.00026824 2.8688e-16 0)
(0.000769559 7.81701e-05 -7.6954e-16 -0.000375183 1.78677e-16 0)
(0.000784894 0.000382502 -4.769e-16 -0.000264062 -6.31006e-17 0)
(0.000613698 3.6502e-05 -2.05313e-15 -0.000332266 -6.0672e-16 0)
(0.000625201 0.00037458 -5.62755e-16 -0.000246604 -5.39933e-17 0)
(0.000426871 -2.92924e-05 -1.67573e-15 -0.000277039 -3.36103e-16 0)
(0.000433764 0.00037111 -3.04912e-16 -0.000206896 2.62377e-17 0)
(0.000191375 -0.000129536 -1.30795e-15 -0.00020287 -5.05238e-16 0)
(0.00164275 0.000351639 2.74764e-15 -0.000588501 3.88361e-16 0)
(0.00145193 0.000113965 -3.62882e-15 -0.00072345 6.54511e-15 0)
(0.00159512 0.000463101 8.54189e-16 -0.000537856 3.3323e-15 0)
(0.00138573 0.000187914 -2.42807e-15 -0.000710173 8.06169e-15 0)
(0.00150022 0.000504888 -2.55069e-15 -0.000471309 4.86883e-15 0)
(0.00131115 0.000237993 5.0307e-17 -0.000671691 4.35784e-15 0)
(0.00140821 0.000540492 -4.31583e-15 -0.000438037 3.48842e-15 0)
(0.00122256 0.000270863 7.57315e-16 -0.000624474 1.39732e-15 0)
(0.00130127 0.000552339 -2.6428e-15 -0.000405568 3.75069e-15 0)
(0.00113106 0.000293717 1.5026e-15 -0.000582443 -2.7452e-16 0)
(0.00118983 0.000542596 -2.21936e-16 -0.000373186 2.01293e-15 0)
(0.00103346 0.00029421 -5.3912e-16 -0.00053506 -3.51672e-15 0)
(0.00107543 0.000513017 -1.31679e-15 -0.000337984 -9.23415e-16 0)
(0.000930049 0.000270793 -3.19043e-15 -0.000485014 -2.57693e-15 0)
(0.000957998 0.000462057 -2.73523e-15 -0.000295948 -7.51894e-16 0)
(0.000821056 0.000220612 -1.38285e-15 -0.000434591 -6.69603e-16 0)
(0.000837227 0.000384063 -1.50192e-15 -0.000241905 -5.26705e-16 0)
(0.000708007 0.000139306 1.29568e-15 -0.000386605 -6.18863e-16 0)
(0.000714447 0.00026739 -7.23136e-16 -0.000169376 -6.35993e-16 0)
(0.000596278 2.13501e-05 1.99133e-15 -0.000345821 -1.56168e-15 0)