/*--------------------------------*- C++ -*----------------------------------*\
| =========                 |                                                 |
| \\      /  F ield         | OpenFOAM: The Open Source CFD Toolbox           |
|  \\    /   O peration     | Version:  v2012                                 |
|   \\  /    A nd           | Website:  www.openfoam.com                      |
|    \\/     M anipulation  |                                                 |
\*---------------------------------------------------------------------------*/
FoamFile
{
    version     2.0;
    format      ascii;
    class       volScalarField;
    location    "12";
    object      sigmaHyd;
}
// * * * * * * * * * * * * * * * * * * * * * * * * * * * * * * * * * * * * * //

dimensions      [1 -1 -2 0 0 0 0];


internalField   nonuniform List<scalar> 
8000
(
9.75354e+07
9.89605e+07
1.04628e+08
1.06516e+08
1.1151e+08
1.13482e+08
1.18305e+08
1.20447e+08
1.25278e+08
1.27445e+08
1.32161e+08
1.34283e+08
1.38829e+08
1.40868e+08
1.45187e+08
1.47097e+08
1.51135e+08
1.52872e+08
1.56567e+08
1.58059e+08
1.61334e+08
1.62494e+08
1.65261e+08
1.65995e+08
1.68169e+08
1.68379e+08
1.69885e+08
1.69496e+08
1.70294e+08
1.69302e+08
1.69406e+08
1.67872e+08
1.67342e+08
1.65369e+08
1.64261e+08
1.61913e+08
1.60076e+08
1.5722e+08
1.54105e+08
1.50885e+08
9.61933e+07
9.79763e+07
1.03301e+08
1.06154e+08
1.10972e+08
1.13651e+08
1.18126e+08
1.20815e+08
1.25175e+08
1.27826e+08
1.32049e+08
1.34597e+08
1.3866e+08
1.41049e+08
1.44919e+08
1.4707e+08
1.50707e+08
1.52507e+08
1.55869e+08
1.57174e+08
1.60223e+08
1.60862e+08
1.6356e+08
1.63364e+08
1.65691e+08
1.64565e+08
1.66517e+08
1.64476e+08
1.66063e+08
1.63219e+08
1.64462e+08
1.61001e+08
1.6192e+08
1.58051e+08
1.58638e+08
1.54521e+08
1.54568e+08
1.50235e+08
1.49266e+08
1.44789e+08
9.63732e+07
9.82964e+07
1.03586e+08
1.06548e+08
1.11545e+08
1.14285e+08
1.18921e+08
1.21579e+08
1.26044e+08
1.28595e+08
1.32874e+08
1.3525e+08
1.39326e+08
1.4142e+08
1.45269e+08
1.4692e+08
1.50514e+08
1.51512e+08
1.54828e+08
1.54954e+08
1.57986e+08
1.57071e+08
1.59819e+08
1.57817e+08
1.603e+08
1.57311e+08
1.59551e+08
1.55783e+08
1.57795e+08
1.53512e+08
1.55296e+08
1.50746e+08
1.52296e+08
1.47664e+08
1.48958e+08
1.44348e+08
1.45249e+08
1.40669e+08
1.40809e+08
1.36214e+08
9.65489e+07
9.84869e+07
1.03859e+08
1.06872e+08
1.12032e+08
1.14725e+08
1.19485e+08
1.21967e+08
1.26546e+08
1.28777e+08
1.33169e+08
1.35012e+08
1.39184e+08
1.4043e+08
1.4435e+08
1.44743e+08
1.48389e+08
1.47695e+08
1.51069e+08
1.49175e+08
1.52304e+08
1.49284e+08
1.52201e+08
1.48299e+08
1.51023e+08
1.46566e+08
1.49096e+08
1.44391e+08
1.46708e+08
1.41975e+08
1.44052e+08
1.39413e+08
1.41237e+08
1.36746e+08
1.38305e+08
1.33978e+08
1.35201e+08
1.31001e+08
1.3169e+08
1.27749e+08
9.70293e+07
9.90492e+07
1.04259e+08
1.0727e+08
1.12409e+08
1.14945e+08
1.19703e+08
1.21813e+08
1.26399e+08
1.2796e+08
1.32358e+08
1.33116e+08
1.37272e+08
1.36934e+08
1.40816e+08
1.39169e+08
1.42792e+08
1.39847e+08
1.43262e+08
1.39288e+08
1.42539e+08
1.37942e+08
1.41038e+08
1.36212e+08
1.39137e+08
1.34354e+08
1.37079e+08
1.32463e+08
1.34957e+08
1.30528e+08
1.32774e+08
1.28517e+08
1.30512e+08
1.2642e+08
1.28163e+08
1.2422e+08
1.25686e+08
1.21906e+08
1.23025e+08
1.19419e+08
9.78526e+07
9.98479e+07
1.04754e+08
1.07565e+08
1.12512e+08
1.14614e+08
1.19194e+08
1.20493e+08
1.24888e+08
1.25114e+08
1.2931e+08
1.28141e+08
1.32118e+08
1.29422e+08
1.3321e+08
1.29209e+08
1.3287e+08
1.28098e+08
1.31653e+08
1.2665e+08
1.30077e+08
1.25205e+08
1.28466e+08
1.23864e+08
1.26923e+08
1.22571e+08
1.25405e+08
1.21238e+08
1.23838e+08
1.1981e+08
1.2218e+08
1.18281e+08
1.20428e+08
1.16653e+08
1.18586e+08
1.14946e+08
1.16663e+08
1.13166e+08
1.14623e+08
1.11274e+08
9.88732e+07
1.00663e+08
1.05116e+08
1.07407e+08
1.11934e+08
1.13092e+08
1.17194e+08
1.169e+08
1.20755e+08
1.18712e+08
1.22415e+08
1.18624e+08
1.22335e+08
1.17342e+08
1.21164e+08
1.15821e+08
1.19704e+08
1.14589e+08
1.18408e+08
1.137e+08
1.17361e+08
1.12999e+08
1.16458e+08
1.12315e+08
1.15547e+08
1.11543e+08
1.1454e+08
1.10645e+08
1.13413e+08
1.09626e+08
1.12173e+08
1.08485e+08
1.10825e+08
1.07237e+08
1.09398e+08
1.05943e+08
1.07937e+08
1.0464e+08
1.06414e+08
1.03233e+08
9.97373e+07
1.00979e+08
1.04848e+08
1.05955e+08
1.09754e+08
1.09013e+08
1.12266e+08
1.0946e+08
1.12422e+08
1.07864e+08
1.10803e+08
1.05499e+08
1.08654e+08
1.03629e+08
1.07059e+08
1.02625e+08
1.06209e+08
1.02186e+08
1.05791e+08
1.01934e+08
1.05474e+08
1.01678e+08
1.05098e+08
1.01377e+08
1.04619e+08
1.00964e+08
1.04008e+08
1.0041e+08
1.03256e+08
9.9691e+07
1.02358e+08
9.8839e+07
1.01356e+08
9.79496e+07
1.00331e+08
9.70735e+07
9.93179e+07
9.6179e+07
9.82171e+07
9.51285e+07
9.95386e+07
9.95582e+07
1.02683e+08
1.01608e+08
1.04385e+08
1.01278e+08
1.03405e+08
9.8993e+07
1.00882e+08
9.65292e+07
9.83965e+07
9.47261e+07
9.6837e+07
9.38233e+07
9.61513e+07
9.33902e+07
9.58111e+07
9.30412e+07
9.55155e+07
9.27086e+07
9.52674e+07
9.25007e+07
9.51009e+07
9.2244e+07
9.48191e+07
9.18519e+07
9.4378e+07
9.12969e+07
9.37481e+07
9.06354e+07
9.30276e+07
9.00045e+07
9.2328e+07
8.93988e+07
9.16481e+07
8.87818e+07
9.0949e+07
8.81155e+07
9.01365e+07
8.72954e+07
9.67059e+07
9.51185e+07
9.73129e+07
9.46145e+07
9.62762e+07
9.29164e+07
9.39434e+07
9.08147e+07
9.19012e+07
8.93249e+07
9.05831e+07
8.83706e+07
8.98339e+07
8.7766e+07
8.93639e+07
8.73152e+07
8.89674e+07
8.693e+07
8.86116e+07
8.65899e+07
8.82904e+07
8.619e+07
8.78596e+07
8.5645e+07
8.72852e+07
8.49843e+07
8.66125e+07
8.43069e+07
8.59672e+07
8.37206e+07
8.54216e+07
8.31424e+07
8.4859e+07
8.25257e+07
8.42605e+07
8.18988e+07
8.36325e+07
8.12566e+07
8.29158e+07
8.05245e+07
9.14265e+07
8.94674e+07
9.0849e+07
8.85487e+07
8.93019e+07
8.68798e+07
8.75247e+07
8.5192e+07
8.61118e+07
8.39355e+07
8.51189e+07
8.30595e+07
8.44335e+07
8.244e+07
8.39254e+07
8.19748e+07
8.35142e+07
8.15964e+07
8.31512e+07
8.12411e+07
8.27581e+07
8.08472e+07
8.22735e+07
8.03843e+07
8.17131e+07
7.98747e+07
8.11287e+07
7.93164e+07
8.05096e+07
7.86736e+07
7.98207e+07
7.79633e+07
7.90983e+07
7.726e+07
7.84157e+07
7.66242e+07
7.77914e+07
7.6009e+07
7.71349e+07
7.53518e+07
8.61456e+07
8.46416e+07
8.56244e+07
8.34572e+07
8.39901e+07
8.14649e+07
8.21235e+07
7.96653e+07
8.06758e+07
7.83803e+07
7.96764e+07
7.75171e+07
7.89932e+07
7.69337e+07
7.85098e+07
7.65256e+07
7.81452e+07
7.62171e+07
7.7834e+07
7.59484e+07
7.75222e+07
7.5675e+07
7.71756e+07
7.53732e+07
7.67884e+07
7.50313e+07
7.63498e+07
7.46377e+07
7.58438e+07
7.41926e+07
7.52857e+07
7.37191e+07
7.47231e+07
7.32488e+07
7.41883e+07
7.27687e+07
7.36328e+07
7.22483e+07
7.30292e+07
7.17083e+07
8.17709e+07
7.98465e+07
8.05387e+07
7.78802e+07
7.82968e+07
7.54956e+07
7.62696e+07
7.36578e+07
7.48411e+07
7.24487e+07
7.39081e+07
7.16856e+07
7.33054e+07
7.12088e+07
7.29131e+07
7.09126e+07
7.26485e+07
7.07235e+07
7.24502e+07
7.05881e+07
7.22735e+07
7.04696e+07
7.20909e+07
7.03454e+07
7.18865e+07
7.0202e+07
7.16504e+07
7.00332e+07
7.13813e+07
6.98411e+07
7.109e+07
6.96361e+07
7.07934e+07
6.94287e+07
7.04936e+07
6.9227e+07
7.01874e+07
6.90387e+07
6.98885e+07
6.88882e+07
7.62388e+07
7.37232e+07
7.45331e+07
7.14135e+07
7.19801e+07
6.89577e+07
6.99484e+07
6.72359e+07
6.86402e+07
6.61947e+07
6.78537e+07
6.56012e+07
6.73975e+07
6.52883e+07
6.71505e+07
6.51539e+07
6.70338e+07
6.51295e+07
6.69915e+07
6.51667e+07
6.69847e+07
6.52322e+07
6.69878e+07
6.5305e+07
6.69859e+07
6.53732e+07
6.69714e+07
6.54324e+07
6.69441e+07
6.54846e+07
6.69102e+07
6.55372e+07
6.68804e+07
6.56033e+07
6.68688e+07
6.57011e+07
6.68919e+07
6.58479e+07
6.69561e+07
6.60185e+07
6.93274e+07
6.64135e+07
6.74992e+07
6.41303e+07
6.50081e+07
6.18728e+07
6.31745e+07
6.04102e+07
6.20927e+07
5.96214e+07
6.1523e+07
5.92611e+07
6.1271e+07
5.91666e+07
6.122e+07
5.92413e+07
6.1296e+07
5.94218e+07
6.14476e+07
5.96636e+07
6.16391e+07
5.99365e+07
6.18473e+07
6.02213e+07
6.20587e+07
6.05075e+07
6.22674e+07
6.07915e+07
6.24735e+07
6.10755e+07
6.2683e+07
6.13678e+07
6.2908e+07
6.16841e+07
6.31681e+07
6.20474e+07
6.34839e+07
6.24684e+07
6.38336e+07
6.28839e+07
6.14628e+07
5.83214e+07
5.97386e+07
5.62751e+07
5.75237e+07
5.43684e+07
5.60116e+07
5.32505e+07
5.52307e+07
5.2771e+07
5.4934e+07
5.26913e+07
5.49346e+07
5.28575e+07
5.51221e+07
5.31785e+07
5.54272e+07
5.3595e+07
5.58022e+07
5.40664e+07
5.62144e+07
5.45653e+07
5.66426e+07
5.50742e+07
5.70742e+07
5.5583e+07
5.75035e+07
5.60876e+07
5.79309e+07
5.65898e+07
5.8363e+07
5.70979e+07
5.88141e+07
5.76299e+07
5.93069e+07
5.82097e+07
5.98573e+07
5.88379e+07
6.04138e+07
5.94131e+07
5.29753e+07
4.97216e+07
5.14859e+07
4.80342e+07
4.96759e+07
4.65731e+07
4.85626e+07
4.58555e+07
4.81306e+07
4.57225e+07
4.81449e+07
4.59544e+07
4.84317e+07
4.64093e+07
4.88879e+07
4.7002e+07
4.94484e+07
4.76772e+07
5.00694e+07
4.83981e+07
5.07217e+07
4.91409e+07
5.13863e+07
4.98907e+07
5.20512e+07
5.06381e+07
5.27094e+07
5.13777e+07
5.33583e+07
5.21073e+07
5.40015e+07
5.28307e+07
5.46523e+07
5.35619e+07
5.53352e+07
5.43257e+07
5.60692e+07
5.51334e+07
5.68057e+07
5.5919e+07
4.41129e+07
4.08332e+07
4.29313e+07
3.95714e+07
4.16012e+07
3.86078e+07
4.09332e+07
3.83217e+07
4.08801e+07
3.85563e+07
4.12286e+07
3.91172e+07
4.18226e+07
3.9877e+07
4.25667e+07
4.07566e+07
4.34005e+07
4.17052e+07
4.42844e+07
4.26901e+07
4.51937e+07
4.36917e+07
4.6114e+07
4.46997e+07
4.70372e+07
4.57097e+07
4.79586e+07
4.67202e+07
4.88743e+07
4.773e+07
4.97813e+07
4.87383e+07
5.06815e+07
4.97501e+07
5.15912e+07
5.07898e+07
5.25476e+07
5.19153e+07
5.35986e+07
5.32147e+07
3.50759e+07
3.18357e+07
3.42382e+07
3.10267e+07
3.34214e+07
3.05771e+07
3.32171e+07
3.07295e+07
3.35533e+07
3.13345e+07
3.42435e+07
3.22255e+07
3.51506e+07
3.32895e+07
3.61876e+07
3.4454e+07
3.72983e+07
3.56718e+07
3.8447e+07
3.69139e+07
3.96129e+07
3.81642e+07
4.07862e+07
3.94156e+07
4.19642e+07
4.0667e+07
4.3149e+07
4.19211e+07
4.43447e+07
4.31853e+07
4.55585e+07
4.44754e+07
4.68077e+07
4.58263e+07
4.81361e+07
4.72985e+07
4.96243e+07
4.89465e+07
5.13501e+07
5.07955e+07
2.60235e+07
2.28689e+07
2.55386e+07
2.25103e+07
2.52355e+07
2.25641e+07
2.54887e+07
2.31417e+07
2.62054e+07
2.41029e+07
2.72266e+07
2.53075e+07
2.84337e+07
2.66564e+07
2.97472e+07
2.80818e+07
3.11139e+07
2.95383e+07
3.24995e+07
3.0997e+07
3.3884e+07
3.24417e+07
3.5257e+07
3.38644e+07
3.66154e+07
3.52628e+07
3.79614e+07
3.66367e+07
3.93002e+07
3.79826e+07
4.06365e+07
3.92819e+07
4.19622e+07
4.04706e+07
4.32257e+07
4.13907e+07
4.42891e+07
4.18248e+07
4.49015e+07
4.15545e+07
1.70731e+07
1.40332e+07
1.69311e+07
1.41054e+07
1.71221e+07
1.46393e+07
1.78126e+07
1.56209e+07
1.88902e+07
1.69176e+07
2.02216e+07
1.8414e+07
2.17053e+07
2.00236e+07
2.3268e+07
2.16829e+07
2.48585e+07
2.33477e+07
2.64427e+07
2.49887e+07
2.79989e+07
2.65862e+07
2.95124e+07
2.81253e+07
3.09713e+07
2.95906e+07
3.23618e+07
3.09628e+07
3.36624e+07
3.22104e+07
3.48302e+07
3.3261e+07
3.57602e+07
3.39439e+07
3.62501e+07
3.4046e+07
3.62701e+07
3.41071e+07
3.71913e+07
3.7531e+07
8.30383e+06
5.39513e+06
8.48775e+06
5.87747e+06
9.15029e+06
6.87226e+06
1.02591e+07
8.24263e+06
1.16815e+07
9.86182e+06
1.33078e+07
1.16387e+07
1.50537e+07
1.35001e+07
1.68527e+07
1.53876e+07
1.8656e+07
1.72591e+07
2.04303e+07
1.90865e+07
2.21534e+07
2.0851e+07
2.38094e+07
2.25379e+07
2.53835e+07
2.41318e+07
2.6858e+07
2.5611e+07
2.82019e+07
2.69296e+07
2.93405e+07
2.79728e+07
3.00976e+07
2.85222e+07
3.02623e+07
2.85617e+07
3.03743e+07
2.95193e+07
3.32343e+07
3.38394e+07
-233526
-2.99913e+06
263290
-2.11808e+06
1.38413e+06
-671261
2.9022e+06
1.08183e+06
4.66249e+06
3.01948e+06
6.57944e+06
5.07545e+06
8.58641e+06
7.19097e+06
1.06251e+07
9.31419e+06
1.26507e+07
1.14066e+07
1.46324e+07
1.34426e+07
1.65499e+07
1.54048e+07
1.8388e+07
1.72786e+07
2.01315e+07
1.90474e+07
2.17597e+07
2.06856e+07
2.32331e+07
2.21373e+07
2.44562e+07
2.32723e+07
2.5236e+07
2.38932e+07
2.54686e+07
2.41249e+07
2.6025e+07
2.5363e+07
2.93543e+07
2.99713e+07
-8.49999e+06
-1.11099e+07
-7.69599e+06
-9.83428e+06
-6.1221e+06
-7.9401e+06
-4.19925e+06
-5.80932e+06
-2.10487e+06
-3.55795e+06
99951.7
-1.22674e+06
2.3672e+06
1.14045e+06
4.64731e+06
3.49842e+06
6.89957e+06
5.81221e+06
9.09599e+06
8.05842e+06
1.12178e+07
1.02206e+07
1.32498e+07
1.22837e+07
1.51757e+07
1.42289e+07
1.69715e+07
1.60253e+07
1.85905e+07
1.76094e+07
1.99272e+07
1.88456e+07
2.07927e+07
1.95472e+07
2.11259e+07
1.98467e+07
2.17962e+07
2.11715e+07
2.53013e+07
2.59793e+07
-1.64551e+07
-1.88945e+07
-1.5347e+07
-1.72298e+07
-1.33266e+07
-1.48982e+07
-1.10076e+07
-1.24012e+07
-8.58835e+06
-9.84772e+06
-6.1048e+06
-7.25284e+06
-3.58622e+06
-4.64556e+06
-1.07343e+06
-2.06444e+06
1.39708e+06
458897
3.79971e+06
2.90284e+06
6.11665e+06
5.2512e+06
8.33227e+06
7.48753e+06
1.04278e+07
9.59012e+06
1.23755e+07
1.15246e+07
1.41239e+07
1.32241e+07
1.55635e+07
1.45507e+07
1.6506e+07
1.5315e+07
1.68906e+07
1.56558e+07
1.76139e+07
1.70504e+07
2.12586e+07
2.20208e+07
-2.40534e+07
-2.63074e+07
-2.26476e+07
-2.42661e+07
-2.01949e+07
-2.15156e+07
-1.74963e+07
-1.86711e+07
-1.47683e+07
-1.58332e+07
-1.20215e+07
-1.29916e+07
-9.26698e+06
-1.01611e+07
-6.53697e+06
-7.37389e+06
-3.86404e+06
-4.65861e+06
-1.27178e+06
-2.03543e+06
1.22259e+06
479585
3.60265e+06
2.869e+06
5.84785e+06
5.10952e+06
7.9282e+06
7.16525e+06
9.79039e+06
8.96788e+06
1.13231e+07
1.03774e+07
1.2335e+07
1.12021e+07
1.27671e+07
1.15882e+07
1.35434e+07
1.30467e+07
1.73017e+07
1.81386e+07
-3.12488e+07
-3.33053e+07
-2.95577e+07
-3.09071e+07
-2.66953e+07
-2.77633e+07
-2.36401e+07
-2.45951e+07
-2.06241e+07
-2.1494e+07
-1.76335e+07
-1.84257e+07
-1.46618e+07
-1.53915e+07
-1.17334e+07
-1.24178e+07
-8.87703e+06
-9.53021e+06
-6.11455e+06
-6.74757e+06
-3.46246e+06
-4.08546e+06
-937451
-1.56158e+06
1.43913e+06
800146
3.6364e+06
2.96315e+06
5.60017e+06
4.85819e+06
7.21763e+06
6.3435e+06
8.2951e+06
7.22587e+06
8.77553e+06
7.65629e+06
9.60016e+06
9.16531e+06
1.344e+07
1.43407e+07
-3.80019e+07
-3.98528e+07
-3.60428e+07
-3.71221e+07
-3.27986e+07
-3.36146e+07
-2.94134e+07
-3.0149e+07
-2.61329e+07
-2.68079e+07
-2.29201e+07
-2.35345e+07
-1.97518e+07
-2.03174e+07
-1.66451e+07
-1.71774e+07
-1.36254e+07
-1.41374e+07
-1.07123e+07
-1.12146e+07
-7.92165e+06
-8.42384e+06
-5.26974e+06
-5.78262e+06
-2.77819e+06
-3.31509e+06
-478321
-1.05827e+06
1.57501e+06
917809
3.26779e+06
2.47018e+06
4.4049e+06
3.40472e+06
4.93028e+06
3.87475e+06
5.79417e+06
5.42035e+06
9.68668e+06
1.06462e+07
-4.42832e+07
-4.59242e+07
-4.20761e+07
-4.28878e+07
-3.84804e+07
-3.90473e+07
-3.47935e+07
-3.53114e+07
-3.1273e+07
-3.17539e+07
-2.786e+07
-2.82971e+07
-2.45164e+07
-2.4918e+07
-2.12519e+07
-2.16318e+07
-1.80885e+07
-1.84587e+07
-1.50439e+07
-1.54142e+07
-1.21326e+07
-1.25121e+07
-9.37066e+06
-9.76952e+06
-6.77955e+06
-7.21079e+06
-4.39088e+06
-4.87323e+06
-2.26004e+06
-2.82742e+06
-501850
-1.21697e+06
687844
-236315
1.2534e+06
268478
2.14787e+06
1.83861e+06
6.06795e+06
7.08555e+06
-5.00731e+07
-5.15034e+07
-4.76388e+07
-4.8188e+07
-4.37223e+07
-4.40447e+07
-3.97617e+07
-4.00647e+07
-3.60252e+07
-3.63138e+07
-3.24341e+07
-3.26948e+07
-2.89357e+07
-2.91737e+07
-2.55332e+07
-2.57606e+07
-2.2245e+07
-2.24727e+07
-1.90869e+07
-1.93236e+07
-1.60719e+07
-1.63263e+07
-1.32156e+07
-1.34973e+07
-1.05394e+07
-1.08611e+07
-8.07496e+06
-8.45499e+06
-5.8781e+06
-6.35001e+06
-4.06394e+06
-4.68981e+06
-2.82834e+06
-3.66841e+06
-2.2268e+06
-3.13263e+06
-1.30884e+06
-1.54796e+06
2.61669e+06
3.69352e+06
-5.53607e+07
-5.65819e+07
-5.27195e+07
-5.3013e+07
-4.85118e+07
-4.85955e+07
-4.43038e+07
-4.43957e+07
-4.0374e+07
-4.04725e+07
-3.66253e+07
-3.67112e+07
-3.29919e+07
-3.3067e+07
-2.947e+07
-2.95449e+07
-2.60748e+07
-2.61591e+07
-2.28198e+07
-2.29214e+07
-1.97168e+07
-1.98437e+07
-1.67807e+07
-1.69421e+07
-1.40326e+07
-1.42407e+07
-1.15044e+07
-1.17773e+07
-9.25202e+06
-9.62266e+06
-7.39039e+06
-7.91993e+06
-6.11456e+06
-6.86203e+06
-5.48005e+06
-6.29763e+06
-4.54394e+06
-4.70637e+06
-632453
505588
-6.01423e+07
-6.11578e+07
-5.73133e+07
-5.73587e+07
-5.2841e+07
-5.2692e+07
-4.84095e+07
-4.8294e+07
-4.4307e+07
-4.42178e+07
-4.04197e+07
-4.03322e+07
-3.66692e+07
-3.65824e+07
-3.30453e+07
-3.29679e+07
-2.95594e+07
-2.94998e+07
-2.62228e+07
-2.6188e+07
-2.30461e+07
-2.30433e+07
-2.00433e+07
-2.00813e+07
-1.72354e+07
-1.73261e+07
-1.46543e+07
-1.48152e+07
-1.23557e+07
-1.26192e+07
-1.04538e+07
-1.08799e+07
-9.14223e+06
-9.7884e+06
-8.47634e+06
-9.19613e+06
-7.52547e+06
-7.60397e+06
-3.64508e+06
-2.44351e+06
-6.44199e+07
-6.52345e+07
-6.14197e+07
-6.12246e+07
-5.67058e+07
-5.63297e+07
-5.2071e+07
-5.17518e+07
-4.78139e+07
-4.75396e+07
-4.38053e+07
-4.35466e+07
-3.99545e+07
-3.97073e+07
-3.62446e+07
-3.60154e+07
-3.26828e+07
-3.24789e+07
-2.92784e+07
-2.91058e+07
-2.60406e+07
-2.59058e+07
-2.29829e+07
-2.28944e+07
-2.01258e+07
-2.00951e+07
-1.75012e+07
-1.75454e+07
-1.51644e+07
-1.5315e+07
-1.32283e+07
-1.35437e+07
-1.18839e+07
-1.24198e+07
-1.11865e+07
-1.17984e+07
-1.0222e+07
-1.02083e+07
-6.38731e+06
-5.11964e+06
-6.82001e+07
-6.88191e+07
-6.50419e+07
-6.46132e+07
-6.01043e+07
-5.95059e+07
-5.52827e+07
-5.47631e+07
-5.08868e+07
-5.04303e+07
-4.67728e+07
-4.63451e+07
-4.28372e+07
-4.24306e+07
-3.90553e+07
-3.86743e+07
-3.54307e+07
-3.50811e+07
-3.19703e+07
-3.16575e+07
-2.86824e+07
-2.84126e+07
-2.55798e+07
-2.53613e+07
-2.26829e+07
-2.25267e+07
-2.00231e+07
-1.99457e+07
-1.76548e+07
-1.76867e+07
-1.56891e+07
-1.58867e+07
-1.43132e+07
-1.47297e+07
-1.35819e+07
-1.40746e+07
-1.26015e+07
-1.24854e+07
-8.82458e+06
-7.48819e+06
-7.14932e+07
-7.19226e+07
-6.81859e+07
-6.75297e+07
-6.30367e+07
-6.22195e+07
-5.80405e+07
-5.7322e+07
-5.35191e+07
-5.28811e+07
-4.93137e+07
-4.87168e+07
-4.53064e+07
-4.47385e+07
-4.14641e+07
-4.09276e+07
-3.77868e+07
-3.72868e+07
-3.42802e+07
-3.38221e+07
-3.09516e+07
-3.05418e+07
-2.78136e+07
-2.74602e+07
-2.48858e+07
-2.45995e+07
-2.21987e+07
-2.19953e+07
-1.98053e+07
-1.97135e+07
-1.78136e+07
-1.78869e+07
-1.64056e+07
-1.66934e+07
-1.56339e+07
-1.59943e+07
-1.46296e+07
-1.43973e+07
-1.09194e+07
-9.51253e+06
-7.43141e+07
-7.45606e+07
-7.08613e+07
-6.99796e+07
-6.55021e+07
-6.44586e+07
-6.03337e+07
-5.94064e+07
-5.56953e+07
-5.48675e+07
-5.14099e+07
-5.06349e+07
-4.73405e+07
-4.66011e+07
-4.34457e+07
-4.27431e+07
-3.97238e+07
-3.90636e+07
-3.61801e+07
-3.55682e+07
-3.28214e+07
-3.22646e+07
-2.96592e+07
-2.91657e+07
-2.67119e+07
-2.62921e+07
-2.4008e+07
-2.36766e+07
-2.15978e+07
-2.1381e+07
-1.95842e+07
-1.95308e+07
-1.8141e+07
-1.82934e+07
-1.73156e+07
-1.75295e+07
-1.62673e+07
-1.59011e+07
-1.26283e+07
-1.1153e+07
-7.66795e+07
-7.67397e+07
-7.30681e+07
-7.19301e+07
-6.74682e+07
-6.61559e+07
-6.21137e+07
-6.09525e+07
-5.73683e+07
-5.6339e+07
-5.30169e+07
-5.20538e+07
-4.88947e+07
-4.79742e+07
-4.49557e+07
-4.40793e+07
-4.11994e+07
-4.03735e+07
-3.76313e+07
-3.68624e+07
-3.42576e+07
-3.35529e+07
-3.10886e+07
-3.04568e+07
-2.81405e+07
-2.75921e+07
-2.54384e+07
-2.49869e+07
-2.30273e+07
-2.26957e+07
-2.10011e+07
-2.0831e+07
-1.95189e+07
-1.95401e+07
-1.86145e+07
-1.86734e+07
-1.74794e+07
-1.69648e+07
-1.39048e+07
-1.23768e+07
-7.85571e+07
-7.83799e+07
-7.47258e+07
-7.32317e+07
-6.88144e+07
-6.72006e+07
-6.32956e+07
-6.19444e+07
-5.84976e+07
-5.7316e+07
-5.41087e+07
-5.29977e+07
-4.9947e+07
-4.88814e+07
-4.59756e+07
-4.49595e+07
-4.21986e+07
-4.12394e+07
-3.86223e+07
-3.77273e+07
-3.52529e+07
-3.44304e+07
-3.21002e+07
-3.13597e+07
-2.91782e+07
-2.85306e+07
-2.65074e+07
-2.59657e+07
-2.41241e+07
-2.37083e+07
-2.21073e+07
-2.18496e+07
-2.0589e+07
-2.05007e+07
-1.95714e+07
-1.94824e+07
-1.82791e+07
-1.76205e+07
-1.47416e+07
-1.32021e+07
-7.97909e+07
-7.934e+07
-7.56451e+07
-7.38066e+07
-6.95004e+07
-6.78524e+07
-6.40407e+07
-6.27355e+07
-5.92901e+07
-5.81179e+07
-5.4878e+07
-5.37486e+07
-5.06724e+07
-4.95794e+07
-4.66648e+07
-4.56183e+07
-4.28656e+07
-4.18732e+07
-3.92818e+07
-3.835e+07
-3.5921e+07
-3.50572e+07
-3.27936e+07
-3.20076e+07
-2.99134e+07
-2.92169e+07
-2.72968e+07
-2.67042e+07
-2.49702e+07
-2.45011e+07
-2.29902e+07
-2.2671e+07
-2.14472e+07
-2.12723e+07
-2.02878e+07
-2.007e+07
-1.87629e+07
-1.79823e+07
-1.52271e+07
-1.37067e+07
-8.05518e+07
-7.99786e+07
-7.6038e+07
-7.43707e+07
-7.01922e+07
-6.87235e+07
-6.49982e+07
-6.37005e+07
-6.02627e+07
-5.90241e+07
-5.57702e+07
-5.45683e+07
-5.14816e+07
-5.03237e+07
-4.74055e+07
-4.62972e+07
-4.3548e+07
-4.24916e+07
-3.99134e+07
-3.89121e+07
-3.65105e+07
-3.55703e+07
-3.3355e+07
-3.24848e+07
-3.04673e+07
-2.96791e+07
-2.78704e+07
-2.71793e+07
-2.55916e+07
-2.50169e+07
-2.36728e+07
-2.32363e+07
-2.21551e+07
-2.18393e+07
-2.08865e+07
-2.0496e+07
-1.90552e+07
-1.81317e+07
-1.53551e+07
-1.38576e+07
-8.84881e+06
-6.01925e+06
-8.35452e+06
-5.14936e+06
-7.43696e+06
-3.93973e+06
-6.22961e+06
-2.47504e+06
-4.72375e+06
-780409
-2.92048e+06
1.14956e+06
-824727
3.32451e+06
1.55183e+06
5.74191e+06
4.18869e+06
8.38582e+06
7.05884e+06
1.12318e+07
1.01315e+07
1.42508e+07
1.33737e+07
1.74108e+07
1.67504e+07
2.0678e+07
2.02266e+07
2.40178e+07
2.37692e+07
2.73985e+07
2.73555e+07
3.07994e+07
3.09764e+07
3.42096e+07
3.45908e+07
3.75465e+07
3.80397e+07
4.06356e+07
4.15863e+07
4.44776e+07
-2.41741e+06
-1.07357e+06
-1.82062e+06
-260518
-655797
1.00801e+06
783381
2.46523e+06
2.3918e+06
4.05454e+06
4.16643e+06
5.80121e+06
6.13205e+06
7.73511e+06
8.30339e+06
9.86758e+06
1.06779e+07
1.21932e+07
1.32406e+07
1.4696e+07
1.59691e+07
1.73543e+07
1.88368e+07
2.01419e+07
2.18134e+07
2.30288e+07
2.48657e+07
2.59802e+07
2.79571e+07
2.89552e+07
3.10503e+07
3.19067e+07
3.41107e+07
3.47854e+07
3.70932e+07
3.75958e+07
4.00213e+07
4.07497e+07
4.33277e+07
4.37716e+07
518121
1.39637e+06
1.06904e+06
2.14668e+06
2.14664e+06
3.26852e+06
3.4274e+06
4.52056e+06
4.81734e+06
5.87692e+06
6.34198e+06
7.37708e+06
8.03758e+06
9.05267e+06
9.92181e+06
1.09158e+07
1.19956e+07
1.29644e+07
1.42492e+07
1.51871e+07
1.66658e+07
1.75664e+07
1.92231e+07
2.00789e+07
2.18937e+07
2.26944e+07
2.46422e+07
2.53721e+07
2.74238e+07
2.80619e+07
3.01886e+07
3.07267e+07
3.2914e+07
3.34191e+07
3.56963e+07
3.63988e+07
3.88217e+07
3.96411e+07
4.19283e+07
4.26403e+07
2.84292e+06
3.8284e+06
3.39407e+06
4.55476e+06
4.37154e+06
5.56511e+06
5.4937e+06
6.67249e+06
6.70443e+06
7.87486e+06
8.04088e+06
9.21461e+06
9.54e+06
1.07209e+07
1.12188e+07
1.24048e+07
1.30794e+07
1.42653e+07
1.51144e+07
1.62935e+07
1.73097e+07
1.84736e+07
1.96447e+07
2.07827e+07
2.20912e+07
2.31894e+07
2.46121e+07
2.56575e+07
2.71678e+07
2.81644e+07
2.9745e+07
3.07472e+07
3.2419e+07
3.35453e+07
3.53791e+07
3.66382e+07
3.85928e+07
3.97661e+07
4.16014e+07
4.24593e+07
5.63117e+06
6.76147e+06
6.1586e+06
7.43784e+06
7.05739e+06
8.36649e+06
8.0776e+06
9.38339e+06
9.18057e+06
1.04906e+07
1.04026e+07
1.17269e+07
1.17768e+07
1.31181e+07
1.33184e+07
1.46737e+07
1.50296e+07
1.63927e+07
1.69043e+07
1.8267e+07
1.89296e+07
2.02823e+07
2.10862e+07
2.24184e+07
2.33488e+07
2.46525e+07
2.56918e+07
2.69714e+07
2.81068e+07
2.93909e+07
3.06312e+07
3.19692e+07
3.33551e+07
3.47539e+07
3.63061e+07
3.7659e+07
3.92815e+07
4.04241e+07
4.19032e+07
4.27448e+07
8.79518e+06
9.97089e+06
9.26315e+06
1.05669e+07
1.00803e+07
1.14113e+07
1.10187e+07
1.23489e+07
1.20397e+07
1.33753e+07
1.31736e+07
1.45225e+07
1.44485e+07
1.58126e+07
1.58771e+07
1.72532e+07
1.7461e+07
1.88432e+07
1.91948e+07
2.05754e+07
2.10675e+07
2.24387e+07
2.30638e+07
2.44202e+07
2.51688e+07
2.65113e+07
2.73756e+07
2.87155e+07
2.96971e+07
3.10506e+07
3.21652e+07
3.35313e+07
3.47938e+07
3.6129e+07
3.75131e+07
3.87424e+07
4.01451e+07
4.11942e+07
4.24455e+07
4.32681e+07
1.20603e+07
1.32103e+07
1.24512e+07
1.3712e+07
1.31745e+07
1.44612e+07
1.40273e+07
1.53134e+07
1.4966e+07
1.62555e+07
1.60126e+07
1.73119e+07
1.719e+07
1.85004e+07
1.85088e+07
1.98274e+07
1.99699e+07
2.12919e+07
2.15689e+07
2.28888e+07
2.3298e+07
2.46116e+07
2.51489e+07
2.64547e+07
2.71162e+07
2.84167e+07
2.92016e+07
3.05e+07
3.14117e+07
3.27042e+07
3.37464e+07
3.50149e+07
3.61792e+07
3.73936e+07
3.86428e+07
3.97669e+07
4.10144e+07
4.19961e+07
4.3101e+07
4.38897e+07
1.52593e+07
1.63515e+07
1.55707e+07
1.67586e+07
1.61934e+07
1.74082e+07
1.69544e+07
1.817e+07
1.78061e+07
1.90242e+07
1.87623e+07
1.99878e+07
1.9841e+07
2.10749e+07
2.10509e+07
2.22912e+07
2.23929e+07
2.36362e+07
2.38644e+07
2.51073e+07
2.54612e+07
2.67014e+07
2.71796e+07
2.84163e+07
2.90179e+07
3.02498e+07
3.09746e+07
3.21978e+07
3.30445e+07
3.42497e+07
3.52127e+07
3.63864e+07
3.74511e+07
3.85763e+07
3.97085e+07
4.07574e+07
4.18813e+07
4.28054e+07
4.37954e+07
4.45512e+07
1.8317e+07
1.93396e+07
1.8555e+07
1.96601e+07
1.90794e+07
2.02138e+07
1.97484e+07
2.08869e+07
2.05127e+07
2.16543e+07
2.13789e+07
2.25272e+07
2.2361e+07
2.3517e+07
2.34664e+07
2.46286e+07
2.46965e+07
2.58627e+07
2.60501e+07
2.7218e+07
2.75254e+07
2.8693e+07
2.91201e+07
3.02852e+07
3.08316e+07
3.19906e+07
3.26545e+07
3.38017e+07
3.45786e+07
3.57064e+07
3.6588e+07
3.76865e+07
3.86575e+07
3.97125e+07
4.07419e+07
4.17298e+07
4.27501e+07
4.36341e+07
4.45312e+07
4.52769e+07
2.12024e+07
2.21525e+07
2.1377e+07
2.23983e+07
2.18119e+07
2.28656e+07
2.23946e+07
2.34563e+07
2.30758e+07
2.41422e+07
2.38563e+07
2.49298e+07
2.47473e+07
2.58286e+07
2.5755e+07
2.68432e+07
2.68814e+07
2.79747e+07
2.81264e+07
2.92226e+07
2.94886e+07
3.05854e+07
3.09658e+07
3.20601e+07
3.2554e+07
3.36417e+07
3.42464e+07
3.53225e+07
3.60327e+07
3.70906e+07
3.78975e+07
3.89287e+07
3.98172e+07
4.08098e+07
4.17516e+07
4.26864e+07
4.36246e+07
4.44706e+07
4.53081e+07
4.603e+07
2.39052e+07
2.47848e+07
2.40275e+07
2.49687e+07
2.43849e+07
2.53609e+07
2.48901e+07
2.58776e+07
2.54949e+07
2.64891e+07
2.61964e+07
2.71984e+07
2.70029e+07
2.80133e+07
2.79204e+07
2.89381e+07
2.8951e+07
2.99743e+07
3.00947e+07
3.11213e+07
3.13503e+07
3.23777e+07
3.27155e+07
3.37403e+07
3.41858e+07
3.52042e+07
3.57545e+07
3.67618e+07
3.74117e+07
3.84017e+07
3.91425e+07
4.01071e+07
4.09247e+07
4.18528e+07
4.27224e+07
4.35972e+07
4.44707e+07
4.52655e+07
4.60586e+07
4.67436e+07
2.64267e+07
2.724e+07
2.65073e+07
2.7374e+07
2.67993e+07
2.77021e+07
2.72364e+07
2.81537e+07
2.77726e+07
2.86984e+07
2.84021e+07
2.93363e+07
2.91313e+07
3.00741e+07
2.99655e+07
3.09157e+07
3.09067e+07
3.18625e+07
3.19553e+07
3.29143e+07
3.31099e+07
3.40694e+07
3.43681e+07
3.53249e+07
3.5726e+07
3.66763e+07
3.71769e+07
3.8116e+07
3.87112e+07
3.9633e+07
4.03142e+07
4.12109e+07
4.19651e+07
4.28268e+07
4.36325e+07
4.44468e+07
4.5263e+07
4.60101e+07
4.67634e+07
4.74208e+07
2.87748e+07
2.95269e+07
2.88228e+07
2.96212e+07
2.90602e+07
2.98953e+07
2.94382e+07
3.02898e+07
2.99133e+07
3.07745e+07
3.04776e+07
3.13476e+07
3.11359e+07
3.20144e+07
3.18929e+07
3.27786e+07
3.27506e+07
3.36415e+07
3.37093e+07
3.4603e+07
3.47678e+07
3.56616e+07
3.5924e+07
3.68148e+07
3.71741e+07
3.80581e+07
3.85118e+07
3.93843e+07
3.99276e+07
4.07829e+07
4.14078e+07
4.22392e+07
4.29341e+07
4.37348e+07
4.44813e+07
4.52425e+07
4.60063e+07
4.67117e+07
4.74291e+07
4.80526e+07
3.09604e+07
3.1657e+07
3.09833e+07
3.17198e+07
3.11754e+07
3.19482e+07
3.1502e+07
3.22926e+07
3.19227e+07
3.27234e+07
3.24279e+07
3.32373e+07
3.30211e+07
3.38387e+07
3.37064e+07
3.45307e+07
3.44858e+07
3.53148e+07
3.53595e+07
3.61908e+07
3.63268e+07
3.71576e+07
3.73856e+07
3.82129e+07
3.85323e+07
3.93526e+07
3.97613e+07
4.05702e+07
4.10637e+07
4.18565e+07
4.24279e+07
4.31994e+07
4.38387e+07
4.45839e+07
4.52762e+07
4.59874e+07
4.67042e+07
4.73659e+07
4.80499e+07
4.86356e+07
3.29961e+07
3.36424e+07
3.29995e+07
3.36801e+07
3.31539e+07
3.38696e+07
3.34358e+07
3.41697e+07
3.38077e+07
3.45519e+07
3.4259e+07
3.50117e+07
3.47923e+07
3.55525e+07
3.54109e+07
3.61772e+07
3.61168e+07
3.68871e+07
3.69104e+07
3.76823e+07
3.77909e+07
3.85619e+07
3.87569e+07
3.95239e+07
3.9805e+07
4.05649e+07
4.09303e+07
4.16794e+07
4.21254e+07
4.28596e+07
4.33805e+07
4.40956e+07
4.46832e+07
4.5374e+07
4.60157e+07
4.66743e+07
4.73458e+07
4.79561e+07
4.86082e+07
4.91456e+07
3.48943e+07
3.54953e+07
3.48827e+07
3.55128e+07
3.50053e+07
3.5669e+07
3.52479e+07
3.59296e+07
3.55758e+07
3.62676e+07
3.59779e+07
3.66776e+07
3.64557e+07
3.71621e+07
3.70121e+07
3.77238e+07
3.76491e+07
3.8364e+07
3.83669e+07
3.90828e+07
3.91653e+07
3.98796e+07
4.0043e+07
4.0753e+07
4.09973e+07
4.17001e+07
4.20241e+07
4.27164e+07
4.31172e+07
4.37953e+07
4.42683e+07
4.49278e+07
4.54658e+07
4.61013e+07
4.66935e+07
4.72973e+07
4.79224e+07
4.84826e+07
4.90991e+07
4.96025e+07
3.66675e+07
3.72277e+07
3.66441e+07
3.72286e+07
3.67395e+07
3.73557e+07
3.69472e+07
3.7581e+07
3.72351e+07
3.78785e+07
3.75919e+07
3.82424e+07
3.80182e+07
3.86745e+07
3.85165e+07
3.91771e+07
3.90886e+07
3.97515e+07
3.9735e+07
4.03981e+07
4.04555e+07
4.11164e+07
4.12492e+07
4.19055e+07
4.21142e+07
4.2763e+07
4.30469e+07
4.36851e+07
4.4042e+07
4.46659e+07
4.50919e+07
4.56975e+07
4.61865e+07
4.67691e+07
4.73114e+07
4.78657e+07
4.84439e+07
4.89619e+07
4.9543e+07
5.00111e+07
3.83275e+07
3.88512e+07
3.82945e+07
3.88381e+07
3.83664e+07
3.89395e+07
3.85427e+07
3.91326e+07
3.87941e+07
3.93929e+07
3.91089e+07
3.97139e+07
3.94871e+07
4.0097e+07
3.9931e+07
4.05441e+07
4.04419e+07
4.10564e+07
4.10207e+07
4.16345e+07
4.16673e+07
4.22782e+07
4.23812e+07
4.29868e+07
4.31608e+07
4.37585e+07
4.40032e+07
4.459e+07
4.49037e+07
4.54764e+07
4.5856e+07
4.64112e+07
4.68516e+07
4.73858e+07
4.78792e+07
4.83881e+07
4.8921e+07
4.93978e+07
4.99431e+07
5.03748e+07
3.98858e+07
4.03767e+07
3.98447e+07
4.03515e+07
3.98957e+07
4.04298e+07
4.00436e+07
4.05935e+07
4.02613e+07
4.08192e+07
4.05371e+07
4.11002e+07
4.08703e+07
4.14371e+07
4.12628e+07
4.18318e+07
4.1716e+07
4.22854e+07
4.22307e+07
4.27985e+07
4.28071e+07
4.33712e+07
4.34449e+07
4.4003e+07
4.41428e+07
4.46925e+07
4.48985e+07
4.54373e+07
4.57084e+07
4.62333e+07
4.65672e+07
4.70754e+07
4.74681e+07
4.79563e+07
4.84015e+07
4.88653e+07
4.9352e+07
4.97837e+07
5.02897e+07
5.06745e+07
4.13532e+07
4.1815e+07
4.1305e+07
4.17788e+07
4.13372e+07
4.1836e+07
4.1459e+07
4.19724e+07
4.16453e+07
4.2166e+07
4.18845e+07
4.24093e+07
4.21754e+07
4.27027e+07
4.25194e+07
4.30478e+07
4.2918e+07
4.34457e+07
4.33719e+07
4.3897e+07
4.38814e+07
4.4402e+07
4.44465e+07
4.49605e+07
4.50663e+07
4.55715e+07
4.57392e+07
4.62332e+07
4.64622e+07
4.69427e+07
4.72313e+07
4.76954e+07
4.80404e+07
4.84848e+07
4.88808e+07
4.9301e+07
4.9738e+07
5.01271e+07
5.05861e+07
5.09362e+07
4.27401e+07
4.31762e+07
4.26854e+07
4.31297e+07
4.27001e+07
4.31673e+07
4.27977e+07
4.32783e+07
4.29548e+07