/*--------------------------------*- C++ -*----------------------------------*\
| =========                 |                                                 |
| \\      /  F ield         | OpenFOAM: The Open Source CFD Toolbox           |
|  \\    /   O peration     | Version:  v2012                                 |
|   \\  /    A nd           | Website:  www.openfoam.com                      |
|    \\/     M anipulation  |                                                 |
\*---------------------------------------------------------------------------*/
FoamFile
{
    version     2.0;
    format      ascii;
    class       volScalarField;
    location    "12";
    object      sigmaEq;
}
// * * * * * * * * * * * * * * * * * * * * * * * * * * * * * * * * * * * * * //

dimensions      [1 -1 -2 0 0 0 0];


internalField   nonuniform List<scalar> 
8000
(
1.55461e+08
1.56152e+08
1.64446e+08
1.60793e+08
1.68569e+08
1.6626e+08
1.7233e+08
1.7123e+08
1.76336e+08
1.75552e+08
1.80266e+08
1.79343e+08
1.8385e+08
1.82696e+08
1.86947e+08
1.85621e+08
1.89528e+08
1.88102e+08
1.91627e+08
1.90133e+08
1.933e+08
1.91734e+08
1.94628e+08
1.92962e+08
1.95719e+08
1.93917e+08
1.96692e+08
1.94745e+08
1.97662e+08
1.9561e+08
1.98715e+08
1.96644e+08
1.9986e+08
1.9791e+08
2.01024e+08
1.99496e+08
2.01995e+08
2.01143e+08
1.95784e+08
1.97488e+08
1.53031e+08
1.56594e+08
1.61185e+08
1.61289e+08
1.67274e+08
1.66056e+08
1.72369e+08
1.70751e+08
1.76785e+08
1.75167e+08
1.80722e+08
1.79135e+08
1.84247e+08
1.82599e+08
1.87325e+08
1.8556e+08
1.89924e+08
1.88031e+08
1.92066e+08
1.90032e+08
1.93837e+08
1.91595e+08
1.95356e+08
1.92786e+08
1.96737e+08
1.93729e+08
1.98063e+08
1.94569e+08
1.99362e+08
1.95442e+08
2.00589e+08
1.96441e+08
2.01638e+08
1.97596e+08
2.02397e+08
1.99046e+08
2.03024e+08
2.00541e+08
1.99819e+08
2.00531e+08
1.54804e+08
1.55786e+08
1.62219e+08
1.61541e+08
1.67215e+08
1.66955e+08
1.7166e+08
1.71698e+08
1.75773e+08
1.75934e+08
1.79523e+08
1.79724e+08
1.82886e+08
1.8305e+08
1.85839e+08
1.85874e+08
1.88396e+08
1.88173e+08
1.90622e+08
1.89966e+08
1.92611e+08
1.91335e+08
1.94446e+08
1.92425e+08
1.96166e+08
1.93404e+08
1.97761e+08
1.94408e+08
1.99193e+08
1.95503e+08
2.00426e+08
1.96681e+08
2.01453e+08
1.97881e+08
2.02303e+08
1.99139e+08
2.03052e+08
2.0053e+08
2.03231e+08
2.01528e+08
1.54344e+08
1.5722e+08
1.62527e+08
1.62894e+08
1.68088e+08
1.68336e+08
1.72514e+08
1.73113e+08
1.76384e+08
1.77334e+08
1.79888e+08
1.81024e+08
1.83052e+08
1.84141e+08
1.85873e+08
1.86645e+08
1.88385e+08
1.88555e+08
1.90649e+08
1.89986e+08
1.92709e+08
1.91142e+08
1.94568e+08
1.92232e+08
1.96192e+08
1.93395e+08
1.97565e+08
1.94657e+08
1.98715e+08
1.95965e+08
1.99705e+08
1.97261e+08
2.00561e+08
1.98473e+08
2.01335e+08
1.99541e+08
2.02165e+08
2.00546e+08
2.02841e+08
2.01008e+08
1.55793e+08
1.58883e+08
1.63612e+08
1.64742e+08
1.6931e+08
1.70238e+08
1.73768e+08
1.74951e+08
1.77552e+08
1.79033e+08
1.80899e+08
1.82477e+08
1.83891e+08
1.85207e+08
1.86579e+08
1.87222e+08
1.88993e+08
1.88686e+08
1.91132e+08
1.89877e+08
1.92974e+08
1.91049e+08
1.94512e+08
1.92334e+08
1.95801e+08
1.93719e+08
1.96926e+08
1.95115e+08
1.97965e+08
1.96426e+08
1.9897e+08
1.9764e+08
1.99911e+08
1.98705e+08
2.0085e+08
1.99581e+08
2.01635e+08
2.00346e+08
2.02476e+08
2.00674e+08
1.58044e+08
1.61309e+08
1.65199e+08
1.67017e+08
1.70864e+08
1.72352e+08
1.75267e+08
1.76841e+08
1.78946e+08
1.80552e+08
1.82167e+08
1.83469e+08
1.8504e+08
1.8562e+08
1.87555e+08
1.87196e+08
1.89665e+08
1.88523e+08
1.91355e+08
1.89843e+08
1.9272e+08
1.91248e+08
1.93936e+08
1.92703e+08
1.95128e+08
1.94121e+08
1.96306e+08
1.9543e+08
1.97457e+08
1.96602e+08
1.98548e+08
1.97675e+08
1.99533e+08
1.98578e+08
2.00454e+08
1.99353e+08
2.01309e+08
1.9995e+08
2.0209e+08
2.00267e+08
1.61176e+08
1.64203e+08
1.67292e+08
1.69581e+08
1.72614e+08
1.7448e+08
1.76886e+08
1.78368e+08
1.80558e+08
1.81376e+08
1.83825e+08
1.83714e+08
1.86571e+08
1.85579e+08
1.88572e+08
1.87266e+08
1.89973e+08
1.88857e+08
1.91083e+08
1.90353e+08
1.92184e+08
1.91776e+08
1.93396e+08
1.93128e+08
1.94681e+08
1.94358e+08
1.95919e+08
1.95477e+08
1.97079e+08
1.965e+08
1.98134e+08
1.97437e+08
1.99096e+08
1.98234e+08
1.9998e+08
1.98936e+08
2.00773e+08
1.99555e+08
2.01567e+08
1.99855e+08
1.64603e+08
1.6729e+08
1.69706e+08
1.72012e+08
1.74615e+08
1.76195e+08
1.78965e+08
1.79537e+08
1.82883e+08
1.8215e+08
1.86106e+08
1.84319e+08
1.87935e+08
1.86318e+08
1.89242e+08
1.88053e+08
1.90367e+08
1.89693e+08
1.91402e+08
1.91158e+08
1.92519e+08
1.92362e+08
1.93871e+08
1.93412e+08
1.95022e+08
1.94461e+08
1.96082e+08
1.95403e+08
1.9707e+08
1.96271e+08
1.9798e+08
1.97065e+08
1.98831e+08
1.97806e+08
1.99608e+08
1.98477e+08
2.00333e+08
1.99065e+08
2.01101e+08
1.99358e+08
1.67998e+08
1.70225e+08
1.72575e+08
1.74022e+08
1.77566e+08
1.77667e+08
1.82108e+08
1.80899e+08
1.84845e+08
1.82847e+08
1.83625e+08
1.81532e+08
1.83621e+08
1.82724e+08
1.85569e+08
1.84568e+08
1.88214e+08
1.86546e+08
1.90641e+08
1.88757e+08
1.92143e+08
1.91166e+08
1.93622e+08
1.92397e+08
1.94653e+08
1.93546e+08
1.95622e+08
1.94517e+08
1.96566e+08
1.95438e+08
1.97562e+08
1.96311e+08
1.98385e+08
1.97113e+08
1.99124e+08
1.97775e+08
1.99792e+08
1.98318e+08
2.00477e+08
1.986e+08
1.71259e+08
1.73032e+08
1.76548e+08
1.76492e+08
1.81243e+08
1.79351e+08
1.78323e+08
1.74463e+08
1.75869e+08
1.74258e+08
1.75583e+08
1.7459e+08
1.7662e+08
1.75727e+08
1.78477e+08
1.77632e+08
1.80824e+08
1.79974e+08
1.83568e+08
1.8256e+08
1.86447e+08
1.85539e+08
1.89206e+08
1.8821e+08
1.91723e+08
1.90588e+08
1.93814e+08
1.92557e+08
1.94898e+08
1.93986e+08
1.95818e+08
1.94861e+08
1.96641e+08
1.95669e+08
1.97474e+08
1.96409e+08
1.98214e+08
1.97036e+08
1.98938e+08
1.97508e+08
1.74043e+08
1.76956e+08
1.77135e+08
1.72168e+08
1.71582e+08
1.6909e+08
1.68132e+08
1.66455e+08
1.66703e+08
1.65211e+08
1.67001e+08
1.65727e+08
1.68626e+08
1.67521e+08
1.71083e+08
1.70109e+08
1.73974e+08
1.73162e+08
1.77035e+08
1.76466e+08
1.80067e+08
1.79752e+08
1.82877e+08
1.82849e+08
1.85463e+08
1.85667e+08
1.88013e+08
1.88228e+08
1.90284e+08
1.90558e+08
1.92231e+08
1.92492e+08
1.93899e+08
1.94094e+08
1.95305e+08
1.95348e+08
1.96264e+08
1.96065e+08
1.96859e+08
1.96496e+08
1.73373e+08
1.70316e+08
1.66714e+08
1.64101e+08
1.61525e+08
1.58763e+08
1.58253e+08
1.56118e+08
1.57398e+08
1.55794e+08
1.58441e+08
1.57203e+08
1.60732e+08
1.59782e+08
1.6377e+08
1.63069e+08
1.67203e+08
1.66736e+08
1.70779e+08
1.70547e+08
1.7431e+08
1.74281e+08
1.77656e+08
1.77804e+08
1.80728e+08
1.81042e+08
1.83472e+08
1.83965e+08
1.85861e+08
1.86519e+08
1.87886e+08
1.88692e+08
1.89606e+08
1.90546e+08
1.91141e+08
1.922e+08
1.92414e+08
1.93501e+08
1.93387e+08
1.9446e+08
1.68479e+08
1.59872e+08
1.58132e+08
1.52773e+08
1.51329e+08
1.47957e+08
1.48268e+08
1.46065e+08
1.48197e+08
1.46676e+08
1.50103e+08
1.49021e+08
1.5319e+08
1.52436e+08
1.56919e+08
1.56441e+08
1.60935e+08
1.60699e+08
1.64995e+08
1.64971e+08
1.68931e+08
1.69083e+08
1.72634e+08
1.72927e+08
1.76036e+08
1.7644e+08
1.79092e+08
1.79585e+08
1.8178e+08
1.82333e+08
1.84098e+08
1.84683e+08
1.86059e+08
1.86648e+08
1.87669e+08
1.88228e+08
1.88916e+08
1.89404e+08
1.89783e+08
1.90151e+08
1.56397e+08
1.47406e+08
1.46738e+08
1.40202e+08
1.40466e+08
1.36317e+08
1.38269e+08
1.35779e+08
1.39191e+08
1.37678e+08
1.42049e+08
1.41104e+08
1.45976e+08
1.45397e+08
1.50415e+08
1.50101e+08
1.55012e+08
1.54907e+08
1.59539e+08
1.596e+08
1.63851e+08
1.6404e+08
1.67858e+08
1.68142e+08
1.71506e+08
1.71856e+08
1.74768e+08
1.75151e+08
1.7763e+08
1.78011e+08
1.80095e+08
1.80439e+08
1.82172e+08
1.82439e+08
1.83874e+08
1.84005e+08
1.85208e+08
1.85121e+08
1.86177e+08
1.85738e+08
1.41871e+08
1.32784e+08
1.33296e+08
1.26697e+08
1.2843e+08
1.24303e+08
1.27808e+08
1.25352e+08
1.30157e+08
1.2869e+08
1.34192e+08
1.33306e+08
1.39052e+08
1.38529e+08
1.44214e+08
1.4394e+08
1.49364e+08
1.4927e+08
1.5431e+08
1.54351e+08
1.58941e+08
1.59078e+08
1.63191e+08
1.63389e+08
1.67029e+08
1.67256e+08
1.70442e+08
1.70665e+08
1.73431e+08
1.73618e+08
1.76008e+08
1.76123e+08
1.78189e+08
1.78187e+08
1.79999e+08
1.79814e+08
1.81462e+08
1.81002e+08
1.8259e+08
1.81706e+08
1.25537e+08
1.1673e+08
1.18675e+08
1.12398e+08
1.15747e+08
1.12002e+08
1.17065e+08
1.14901e+08
1.21074e+08
1.19777e+08
1.26422e+08
1.25604e+08
1.32277e+08
1.31748e+08
1.38177e+08
1.37841e+08
1.43865e+08
1.43671e+08
1.49202e+08
1.49113e+08
1.54115e+08
1.541e+08
1.58569e+08
1.586e+08
1.62556e+08
1.62601e+08
1.66083e+08
1.66111e+08
1.69171e+08
1.6915e+08
1.71848e+08
1.71747e+08
1.74146e+08
1.73928e+08
1.76102e+08
1.75719e+08
1.77751e+08
1.77145e+08
1.7909e+08
1.78189e+08
1.07956e+08
9.97617e+07
1.0325e+08
9.7664e+07
1.0271e+08
9.96278e+07
1.0624e+08
1.04556e+08
1.12029e+08
1.11013e+08
1.18721e+08
1.18015e+08
1.25562e+08
1.25011e+08
1.3217e+08
1.3171e+08
1.38363e+08
1.37965e+08
1.4406e+08
1.43711e+08
1.49233e+08
1.4892e+08
1.53876e+08
1.53586e+08
1.57998e+08
1.57711e+08
1.61618e+08
1.61308e+08
1.6477e+08
1.64407e+08
1.67507e+08
1.6706e+08
1.69893e+08
1.69336e+08
1.71994e+08
1.7131e+08
1.73852e+08
1.73019e+08
1.75436e+08
1.7438e+08
8.96606e+07
8.23433e+07
8.74171e+07
8.28873e+07
8.96143e+07
8.74886e+07
9.55395e+07
9.45263e+07
1.03143e+08
1.02519e+08
1.11137e+08
1.10599e+08
1.18888e+08
1.18329e+08
1.26121e+08
1.2551e+08
1.32737e+08
1.32067e+08
1.38719e+08
1.37988e+08
1.44093e+08
1.43298e+08
1.48895e+08
1.48034e+08
1.53159e+08
1.52225e+08
1.56906e+08
1.55877e+08
1.60145e+08
1.58981e+08
1.62899e+08
1.6153e+08
1.6524e+08
1.63577e+08
1.67316e+08
1.65264e+08
1.69299e+08
1.66781e+08
1.71196e+08
1.68093e+08
7.10625e+07
6.4903e+07
7.15642e+07
6.85266e+07
7.68184e+07
7.59853e+07
8.52352e+07
8.51088e+07
9.45926e+07
9.45042e+07
1.03768e+08
1.03503e+08
1.12303e+08
1.11822e+08
1.20045e+08
1.19361e+08
1.26972e+08
1.26104e+08
1.33122e+08
1.32077e+08
1.38559e+08
1.37334e+08
1.43363e+08
1.41947e+08
1.47624e+08
1.46007e+08
1.51435e+08
1.49606e+08
1.54859e+08
1.52795e+08
1.57899e+08
1.5553e+08
1.60469e+08
1.57611e+08
1.62454e+08
1.58683e+08
1.63959e+08
1.5836e+08
1.6585e+08
1.56673e+08
5.25005e+07
4.79001e+07
5.61457e+07
5.52044e+07
6.48033e+07
6.56535e+07
7.57e+07
7.66962e+07
8.66376e+07
8.72597e+07
9.67958e+07
9.69667e+07
1.05938e+08
1.05712e+08
1.14045e+08
1.135e+08
1.21175e+08
1.20377e+08
1.2741e+08
1.26408e+08
1.32835e+08
1.31657e+08
1.37525e+08
1.36189e+08
1.41551e+08
1.40072e+08
1.44994e+08
1.43404e+08
1.47978e+08
1.4635e+08
1.50696e+08
1.49183e+08
1.53429e+08
1.52317e+08
1.56542e+08
1.56313e+08
1.60397e+08
1.6175e+08
1.6483e+08
1.69192e+08
3.42541e+07
3.20673e+07
4.18497e+07
4.39115e+07
5.42549e+07
5.71843e+07
6.74128e+07
6.97224e+07
7.961e+07
8.10793e+07
9.0479e+07
9.12179e+07
1.00026e+08
1.00202e+08
1.08354e+08
1.08121e+08
1.1559e+08
1.15074e+08
1.21856e+08
1.21158e+08
1.27264e+08
1.26471e+08
1.31917e+08
1.31112e+08
1.359e+08
1.35178e+08
1.39281e+08
1.38767e+08
1.42106e+08
1.41986e+08
1.44409e+08
1.45022e+08
1.46271e+08
1.48285e+08
1.47937e+08
1.52564e+08
1.49898e+08
1.58523e+08
1.52496e+08
1.61504e+08
1.66315e+07
1.96886e+07
3.01062e+07
3.63143e+07
4.61474e+07
5.13727e+07
6.09097e+07
6.45758e+07
7.38363e+07
7.61628e+07
8.50533e+07
8.63534e+07
9.4771e+07
9.53185e+07
1.03186e+08
1.03198e+08
1.1047e+08
1.10113e+08
1.16772e+08
1.16172e+08
1.22219e+08
1.21478e+08
1.26925e+08
1.26127e+08
1.30994e+08
1.30221e+08
1.34527e+08
1.33868e+08
1.37625e+08
1.37195e+08
1.40377e+08
1.40362e+08
1.42835e+08
1.43558e+08
1.4499e+08
1.46777e+08
1.46717e+08
1.49168e+08
1.47707e+08
1.5141e+08
4.43916e+06
1.82037e+07
2.4179e+07
3.44302e+07
4.16493e+07
4.88889e+07
5.66675e+07
6.15233e+07
6.95467e+07
7.26155e+07
8.06366e+07
8.2389e+07
9.02206e+07
9.10094e+07
9.85222e+07
9.86081e+07
1.05723e+08
1.05297e+08
1.11976e+08
1.11176e+08
1.17407e+08
1.16338e+08
1.22125e+08
1.20872e+08
1.26215e+08
1.24863e+08
1.29746e+08
1.28401e+08
1.32764e+08
1.31592e+08
1.35294e+08
1.34561e+08
1.37349e+08
1.37404e+08
1.38949e+08
1.39988e+08
1.40179e+08
1.41969e+08
1.41264e+08
1.44505e+08
1.86491e+07
2.84376e+07
2.7238e+07
3.85386e+07
4.15114e+07
4.98736e+07
5.4943e+07
6.06431e+07
6.68306e+07
7.04781e+07
7.72278e+07
7.93386e+07
8.63013e+07
8.72678e+07
9.42156e+07
9.43305e+07
1.01116e+08
1.00596e+08
1.07128e+08
1.06136e+08
1.12356e+08
1.11021e+08
1.16889e+08
1.15324e+08
1.208e+08
1.19121e+08
1.24148e+08
1.22495e+08
1.2698e+08
1.25537e+08
1.29326e+08
1.28333e+08
1.31211e+08
1.30924e+08
1.32685e+08
1.33292e+08
1.33872e+08
1.35352e+08
1.34943e+08
1.38032e+08
3.46428e+07
4.19297e+07
3.64273e+07
4.65496e+07
4.53031e+07
5.37583e+07
5.56534e+07
6.17736e+07
6.56605e+07
6.97163e+07
7.47978e+07
7.72123e+07
8.29685e+07
8.4121e+07
9.02063e+07
9.04008e+07
9.65824e+07
9.60547e+07
1.02176e+08
1.0111e+08
1.07062e+08
1.05607e+08
1.11311e+08
1.096e+08
1.14983e+08
1.13151e+08
1.1813e+08
1.1633e+08
1.20796e+08
1.19212e+08
1.23013e+08
1.21864e+08
1.24815e+08
1.24342e+08
1.26269e+08
1.26676e+08
1.27461e+08
1.28761e+08
1.28431e+08
1.31186e+08
5.00623e+07
5.57488e+07
4.77687e+07
5.63246e+07
5.17246e+07
5.96051e+07
5.83994e+07
6.45468e+07
6.59149e+07
7.02012e+07
7.33232e+07
7.59844e+07
8.02442e+07
8.15909e+07
8.65476e+07
8.68666e+07
9.22066e+07
9.17373e+07
9.72385e+07
9.61761e+07
1.0168e+08
1.00188e+08
1.05572e+08
1.03799e+08
1.08961e+08
1.07051e+08
1.11884e+08
1.09998e+08
1.14377e+08
1.127e+08
1.16469e+08
1.15221e+08
1.18198e+08
1.1763e+08
1.19633e+08
1.1996e+08
1.20814e+08
1.22034e+08
1.21663e+08
1.2405e+08
6.46947e+07
6.91377e+07
5.95206e+07
6.66328e+07
5.95251e+07
6.6545e+07
6.26238e+07
6.85049e+07
6.7388e+07
7.17303e+07
7.27555e+07
7.55887e+07
7.8154e+07
7.96825e+07
8.33046e+07
8.37706e+07
8.80776e+07
8.77071e+07
9.24198e+07
9.14098e+07
9.6319e+07
9.48411e+07
9.97847e+07
9.79961e+07
1.02836e+08
1.00893e+08
1.05496e+08
1.03566e+08
1.07786e+08
1.06061e+08
1.09733e+08
1.08442e+08
1.11378e+08
1.1078e+08
1.12788e+08
1.13099e+08
1.13958e+08
1.15147e+08
1.14688e+08
1.16699e+08
7.84299e+07
8.18163e+07
7.10072e+07
7.6849e+07
6.78593e+07
7.39452e+07
6.77778e+07
7.32093e+07
6.98164e+07
7.40624e+07
7.30023e+07
7.59231e+07
7.66959e+07
7.83777e+07
8.05214e+07
8.11416e+07
8.42623e+07
8.40178e+07
8.77964e+07
8.68755e+07
9.10598e+07
8.9636e+07
9.40237e+07
9.22609e+07
9.66795e+07
9.47421e+07
9.90298e+07
9.70939e+07
1.01084e+08
9.93508e+07
1.02861e+08
1.01569e+08
1.04406e+08
1.03822e+08
1.05787e+08
1.06117e+08
1.06946e+08
1.08125e+08
1.07555e+08
1.09173e+08
9.1199e+07
9.36505e+07
8.19254e+07
8.66448e+07
7.62164e+07
8.13853e+07
7.3408e+07
7.82939e+07
7.29187e+07
7.69513e+07
7.39321e+07
7.68573e+07
7.58351e+07
7.76316e+07
7.82181e+07
7.89893e+07
8.08091e+07
8.07101e+07
8.34299e+07
8.26298e+07
8.59683e+07
8.46355e+07
8.83568e+07
8.66579e+07
9.05576e+07
8.8663e+07
9.25513e+07
9.06451e+07
9.43324e+07
9.26248e+07
9.59146e+07
9.46525e+07
9.73438e+07
9.67989e+07
9.86851e+07
9.90544e+07
9.98285e+07
1.01009e+08
1.00312e+08
1.01511e+08
1.0296e+08
1.04569e+08
9.21205e+07
9.58373e+07
8.42903e+07
8.8593e+07
7.91729e+07
8.34749e+07
7.64295e+07
8.01686e+07
7.53882e+07
7.82443e+07
7.55063e+07
7.73742e+07
7.63906e+07
7.73012e+07
7.77502e+07
7.78088e+07
7.93718e+07
7.87191e+07
8.1105e+07
7.9897e+07
8.2848e+07
8.12489e+07
8.45347e+07
8.27181e+07
8.61237e+07
8.42799e+07
8.75943e+07
8.59412e+07
8.89526e+07
8.77449e+07
9.02459e+07
8.97595e+07
9.15362e+07
9.19562e+07
9.26576e+07
9.38413e+07
9.30046e+07
9.37559e+07
1.13692e+08
1.14533e+08
1.01507e+08
1.0432e+08
9.18937e+07
9.53906e+07
8.48257e+07
8.85402e+07
8.01184e+07
8.35158e+07
7.72053e+07
7.99342e+07
7.56196e+07
7.75157e+07
7.5011e+07
7.60429e+07
7.51001e+07
7.53215e+07
7.5662e+07
7.51788e+07
7.65236e+07
7.5472e+07
7.75573e+07
7.60933e+07
7.86728e+07
7.69693e+07
7.98085e+07
7.80596e+07
8.0929e+07
7.93585e+07
8.20329e+07
8.0902e+07
8.31683e+07
8.27559e+07
8.43935e+07
8.48718e+07
8.54838e+07
8.66679e+07
8.56818e+07
8.59507e+07
1.23387e+08
1.23527e+08
1.10039e+08
1.12032e+08
9.89085e+07
1.01661e+08
9.01897e+07
9.33339e+07
8.37949e+07
8.68283e+07
7.92236e+07
8.17845e+07
7.60691e+07
7.79559e+07
7.40296e+07
7.51619e+07
7.28544e+07
7.32385e+07
7.23277e+07
7.20314e+07
7.22703e+07
7.14045e+07
7.25409e+07
7.12474e+07
7.30325e+07
7.14788e+07
7.36675e+07
7.20476e+07
7.43976e+07
7.29386e+07
7.52149e+07
7.4183e+07
7.61689e+07
7.58444e+07
7.73137e+07
7.78541e+07
7.83619e+07
7.95386e+07
7.83949e+07
7.81417e+07
1.32052e+08
1.31553e+08
1.1769e+08
1.18937e+08
1.05257e+08
1.07328e+08
9.51371e+07
9.77422e+07
8.7306e+07
8.99747e+07
8.12984e+07
8.36685e+07
7.67441e+07
7.85926e+07
7.3381e+07
7.45926e+07
7.09919e+07
7.15337e+07
6.93826e+07
6.92859e+07
6.83835e+07
6.77303e+07
6.78525e+07
6.67652e+07
6.76759e+07
6.63106e+07
6.77665e+07
6.63125e+07
6.80671e+07
6.67511e+07
6.85657e+07
6.76556e+07
6.9314e+07
6.90898e+07
7.03618e+07
7.09644e+07
7.13551e+07
7.25104e+07
7.12033e+07
7.03816e+07
1.39701e+08
1.38622e+08
1.24449e+08
1.25021e+08
1.10884e+08
1.12338e+08
9.95714e+07
1.01683e+08
9.05303e+07
9.28527e+07
8.33054e+07
8.54778e+07
7.75391e+07
7.93272e+07
7.29926e+07
7.42607e+07
6.9478e+07
7.01657e+07
6.68286e+07
6.69369e+07
6.48943e+07
6.44767e+07
6.35444e+07
6.26996e+07
6.26692e+07
6.15361e+07
6.21802e+07
6.09367e+07
6.20173e+07
6.08834e+07
6.21679e+07
6.14079e+07
6.26878e+07
6.25769e+07
6.36215e+07
6.42809e+07
6.45424e+07
6.56531e+07
6.4179e+07
6.27345e+07
1.46357e+08
1.44754e+08
1.30305e+08
1.30278e+08
1.15742e+08
1.16659e+08
1.03415e+08
1.05097e+08
9.33744e+07
9.5383e+07
8.51483e+07
8.71233e+07
7.83655e+07
8.00725e+07
7.27957e+07
7.40939e+07
6.82741e+07
6.90901e+07
6.46609e+07
6.49754e+07
6.18306e+07
6.16726e+07
5.96723e+07
5.91148e+07
5.80892e+07
5.72476e+07
5.7001e+07
5.60329e+07
5.63516e+07
5.54604e+07
5.61323e+07
5.55694e+07
5.64053e+07
5.64318e+07
5.72067e+07
5.79175e+07
5.8029e+07
5.90629e+07
5.74146e+07
5.52917e+07
1.52044e+08
1.49983e+08
1.35235e+08
1.34712e+08
1.1978e+08
1.2026e+08
1.0661e+08
1.07941e+08
9.57865e+07
9.75259e+07
8.67752e+07
8.85689e+07
7.91701e+07
8.07964e+07
7.27444e+07
7.40704e+07
6.73543e+07
6.83039e+07
6.28836e+07
6.3426e+07
5.92305e+07
5.93763e+07
5.63062e+07
5.61054e+07
5.4034e+07
5.35752e+07
5.23494e+07
5.17613e+07
5.12082e+07
5.06647e+07
5.0611e+07
5.03341e+07
5.06265e+07
5.08461e+07
5.12745e+07
5.20454e+07
5.19538e+07
5.28802e+07
5.10296e+07
4.82036e+07
1.56794e+08
1.54379e+08
1.39187e+08
1.3829e+08
1.2295e+08
1.23125e+08
1.09162e+08
1.10266e+08
9.77988e+07
9.93854e+07
8.82078e+07
8.99306e+07
7.99565e+07
8.16046e+07
7.28373e+07
7.42808e+07
6.67279e+07
6.78873e+07
6.15297e+07
6.23675e+07
5.71582e+07
5.76764e+07
5.35439e+07
5.37812e+07
5.06314e+07
5.06595e+07
4.83781e+07
4.83003e+07
4.67599e+07
4.67126e+07
4.57932e+07
4.59474e+07
4.55509e+07
4.60703e+07
4.60193e+07
4.68842e+07
4.64826e+07
4.7271e+07
4.51618e+07
4.16812e+07
1.60639e+08
1.57991e+08
1.42097e+08
1.40985e+08
1.2528e+08
1.25391e+08
1.1119e+08
1.12369e+08
9.95152e+07
1.01247e+08
8.94976e+07
9.14138e+07
8.07421e+07
8.26267e+07
7.30796e+07
7.48e+07
6.64038e+07
6.78797e+07
6.06242e+07
6.18197e+07
5.56664e+07
5.65855e+07
5.14742e+07
5.21563e+07
4.80088e+07
4.85247e+07
4.52468e+07
4.56949e+07
4.31855e+07
4.36884e+07
4.1861e+07
4.25544e+07
4.13503e+07
4.23212e+07
4.15887e+07
4.26951e+07
4.17263e+07
4.24743e+07
3.98878e+07
3.60545e+07
1.63552e+08
1.60049e+08
1.4388e+08
1.43173e+08
1.26883e+08
1.27686e+08
1.1272e+08
1.14544e+08
1.00807e+08
1.03031e+08
9.04478e+07
9.2715e+07
8.13212e+07
8.34659e+07
7.32756e+07
7.52214e+07
6.6202e+07
6.79142e+07
6.00108e+07
6.148e+07
5.46337e+07
5.58718e+07
5.00238e+07
5.10646e+07
4.61535e+07
4.70527e+07
4.30126e+07
4.38446e+07
4.06102e+07
4.14645e+07
3.89862e+07
3.99601e+07
3.81925e+07
3.9344e+07
3.80756e+07
3.92767e+07
3.76609e+07
3.85555e+07
3.51451e+07
3.22471e+07
1.64674e+08
1.60471e+08
1.44789e+08
1.44226e+08
1.27541e+08
1.28363e+08
1.132e+08
1.1446e+08
1.01063e+08
1.02356e+08
9.04881e+07
9.17507e+07
8.11632e+07
8.24106e+07
7.29258e+07
7.41563e+07
6.5663e+07
6.68539e+07
5.9287e+07
6.04107e+07
5.37329e+07
5.47702e+07
4.89561e+07
4.99081e+07
4.49289e+07
4.58297e+07
4.16382e+07
4.25626e+07
3.90907e+07
4.01429e+07
3.73216e+07
3.85845e+07
3.63521e+07
3.77549e+07
3.59097e+07
3.70155e+07
3.47868e+07
3.4892e+07
3.10449e+07
2.86773e+07
1.65041e+07
1.91355e+07
2.04999e+07
2.2175e+07
2.60157e+07
2.77178e+07
3.30228e+07
3.48059e+07
4.09653e+07
4.27432e+07
4.92831e+07
5.10645e+07
5.77313e+07
5.95315e+07
6.62192e+07
6.80163e+07
7.46996e+07
7.64466e+07
8.3134e+07
8.47774e+07
9.14864e+07
9.29765e+07
9.97218e+07
1.01017e+08
1.07804e+08
1.08874e+08
1.15695e+08
1.16521e+08
1.2335e+08
1.23935e+08
1.30718e+08
1.31118e+08
1.37728e+08
1.38092e+08
1.44234e+08
1.44506e+08
1.49852e+08
1.49325e+08
1.53579e+08
1.60064e+08
1.37508e+07
1.7546e+07
1.69312e+07
2.20903e+07
2.32691e+07
2.84354e+07
3.07841e+07
3.57144e+07
3.89416e+07
4.35295e+07
4.73855e+07
5.161e+07
5.58946e+07
5.97775e+07
6.43628e+07
6.79257e+07
7.27437e+07
7.59922e+07
8.10124e+07
8.39381e+07
8.91492e+07
9.17361e+07
9.71336e+07
9.93637e+07
1.04941e+08
1.06799e+08
1.12541e+08
1.14015e+08
1.19893e+08
1.20968e+08
1.26949e+08
1.27566e+08
1.33676e+08
1.33696e+08
1.40085e+08
1.39489e+08
1.46291e+08
1.4603e+08
1.52263e+08
1.53363e+08
1.61184e+07
1.96173e+07
1.91897e+07
2.43739e+07
2.51911e+07
3.06926e+07
3.22935e+07
3.76849e+07
3.98223e+07
4.50432e+07
4.75861e+07
5.26211e+07
5.54664e+07
6.0298e+07
6.33622e+07
6.79766e+07
7.12017e+07
7.55889e+07
7.89411e+07
8.30903e+07
8.65534e+07
9.04496e+07
9.40187e+07
9.76406e+07
1.01317e+08
1.04632e+08
1.08419e+08
1.11376e+08
1.15284e+08
1.17803e+08
1.21847e+08
1.23884e+08
1.28034e+08
1.29833e+08
1.33871e+08
1.36292e+08
1.39792e+08
1.43084e+08
1.46037e+08
1.48547e+08
1.8907e+07
2.21876e+07
2.17692e+07
2.66628e+07
2.719e+07
3.26002e+07
3.37097e+07
3.91872e+07
4.06771e+07
4.61142e+07
4.78677e+07
5.3248e+07
5.51887e+07
6.04923e+07
6.2565e+07
6.77626e+07
6.99274e+07
7.49899e+07
7.72221e+07
8.2123e+07
8.44108e+07
8.91232e+07
9.14636e+07
9.59555e+07
9.83494e+07
1.0258e+08
1.05026e+08
1.08956e+08
1.11436e+08
1.15089e+08
1.17544e+08
1.21113e+08
1.23447e+08
1.27323e+08
1.29525e+08
1.3381e+08
1.36079e+08
1.39953e+08
1.42539e+08
1.44723e+08
2.08844e+07
2.41292e+07
2.35148e+07
2.82836e+07
2.85336e+07
3.38215e+07
3.456e+07
4.0024e+07
4.10813e+07
4.65916e+07
4.78635e+07
5.33764e+07
5.47909e+07
6.02793e+07
6.17889e+07
6.72211e+07
6.87956e+07
7.4136e+07
7.57577e+07
8.09704e+07
8.26303e+07
8.768e+07
8.93739e+07
9.42274e+07
9.59495e+07
1.00586e+08
1.0232e+08
1.06764e+08
1.08474e+08
1.1283e+08
1.14492e+08
1.18917e+08
1.20588e+08
1.25097e+08
1.2695e+08
1.3118e+08
1.33336e+08
1.3674e+08
1.39013e+08
1.41093e+08
2.23459e+07
2.55892e+07
2.4689e+07
2.94502e+07
2.94367e+07
3.46428e+07
3.51212e+07
4.05101e+07
4.13012e+07
4.6766e+07
4.77691e+07
5.3256e+07
5.44004e+07
5.98731e+07
6.11106e+07
6.65359e+07
6.78367e+07
7.31801e+07
7.45267e+07
7.97535e+07
8.11352e+07
8.62144e+07
8.76225e+07
9.25352e+07
9.39585e+07
9.87123e+07
1.00139e+08
1.04776e+08
1.06209e+08
1.10783e+08
1.12274e+08
1.16776e+08
1.18426e+08
1.22703e+08
1.24594e+08
1.28392e+08
1.30455e+08
1.33564e+08
1.35597e+08
1.37723e+08
2.37479e+07
2.69136e+07
2.57676e+07
3.04743e+07
3.02509e+07
3.53445e+07
3.56641e+07
4.09061e+07
4.15674e+07
4.68741e+07
4.77642e+07
5.30903e+07
5.41341e+07
5.94435e+07
6.05889e+07
6.58493e+07
6.70621e+07
7.22437e+07
7.35023e+07
7.8578e+07
7.98683e+07
8.48181e+07
8.61302e+07
9.09474e+07
9.22767e+07
9.69694e+07
9.83239e+07
1.02904e+08
1.04315e+08
1.08771e+08
1.10289e+08
1.14564e+08
1.1623e+08
1.2022e+08
1.22029e+08
1.25605e+08
1.27482e+08
1.30489e+08
1.323e+08
1.34508e+08
2.52963e+07
2.83032e+07
2.69944e+07
3.15392e+07
3.11684e+07
3.60771e+07
3.63029e+07
4.13349e+07
4.19434e+07
4.70206e+07
4.78827e+07
5.29685e+07
5.39993e+07
5.90642e+07
6.02054e+07
6.52221e+07
6.64341e+07
7.13789e+07
7.26357e+07
7.74894e+07
7.87752e+07
8.35249e+07
8.48328e+07
8.94718e+07
9.08056e+07
9.53283e+07
9.67038e+07
1.01097e+08
1.02539e+08
1.06776e+08
1.08307e+08
1.12344e+08
1.13974e+08
1.17751e+08
1.19465e+08
1.22883e+08
1.24629e+08
1.27535e+08
1.2921e+08
1.31417e+08
2.70247e+07
2.98286e+07
2.84266e+07
3.27241e+07
3.22516e+07
3.69113e+07
3.70713e+07
4.18516e+07
4.24312e+07
4.72477e+07
4.81072e+07
5.29248e+07
5.39695e+07
5.87638e+07
5.99283e+07
6.46781e+07
6.5918e+07
7.06049e+07
7.18912e+07
7.65003e+07
7.78168e+07
8.23365e+07
8.36776e+07
8.80971e+07
8.94673e+07
9.37733e+07
9.51835e+07
9.93578e+07
1.0082e+08
1.04838e+08
1.06362e+08
1.10187e+08
1.11775e+08
1.15356e+08
1.16998e+08
1.20262e+08
1.21908e+08
1.24765e+08
1.26303e+08
1.28613e+08
2.89075e+07
3.14966e+07
3.00472e+07
3.4054e+07
3.35067e+07
3.78796e+07
3.79805e+07
4.24869e+07
4.30333e+07
4.75805e+07
4.84305e+07
5.29791e+07
5.40322e+07
5.85586e+07
5.97441e+07
6.42302e+07
6.54994e+07
6.993e+07
7.12513e+07
7.56132e+07
7.69687e+07
8.12495e+07
8.26316e+07
8.68189e+07
8.82273e+07
9.2307e+07
9.37455e+07
9.77009e+07
9.91748e+07
1.02984e+08
1.04497e+08
1.0813e+08
1.09681e+08
1.13094e+08
1.14666e+08
1.178e+08
1.19349e+08
1.22135e+08
1.23576e+08
1.25946e+08
3.09083e+07
3.32906e+07
3.18223e+07
3.55274e+07
3.49208e+07
3.89932e+07
3.90337e+07
4.32579e+07
4.37588e+07
4.80372e+07
4.88607e+07
5.31478e+07
5.41927e+07
5.84622e+07
5.96548e+07
6.38883e+07
6.51769e+07
6.93599e+07
7.07098e+07
7.48294e+07
7.62196e+07
8.02635e+07
8.16823e+07
8.56381e+07
8.70804e+07
9.09351e+07
9.23994e+07
9.61382e+07
9.76242e+07
1.01229e+08
1.02735e+08
1.06179e+08
1.07704e+08
1.10946e+08
1.1248e+08
1.15464e+08
1.16978e+08
1.19641e+08
1.21063e+08
1.23371e+08
3.2994e+07
3.51865e+07
3.37177e+07
3.71303e+07
3.64747e+07
4.02491e+07
4.02275e+07
4.41705e+07
4.4615e+07
4.86284e+07
4.94095e+07
5.34427e+07
5.44621e+07
5.84849e+07
5.96685e+07
6.36602e+07
6.49543e+07
6.88992e+07
7.02664e+07
7.41513e+07
7.55667e+07
7.93794e+07
8.08275e+07
8.45562e+07
8.60281e+07
8.96602e+07
9.11508e+07
9.46721e+07
9.61786e+07
9.95702e+07
1.0109e+08
1.04326e+08
1.05857e+08
1.08902e+08
1.10436e+08
1.13251e+08
1.14758e+08
1.17305e+08
1.18715e+08
1.20979e+08
3.51372e+07
3.716e+07
3.5703e+07
3.88426e+07
3.81466e+07
4.16353e+07
4.1552e+07
4.52212e+07
4.56022e+07
4.93567e+07
5.00834e+07
5.38696e+07
5.48489e+07
5.86331e+07
5.97927e+07
6.35513e+07
6.48364e+07
6.85518e+07
6.9923e+07
7.3581e+07
7.50103e+07
7.85986e+07
8.00671e+07
8.3574e+07
8.50693e+07
8.84827e+07
8.99968e+07
9.33022e+07
9.48299e+07
9.80091e+07
9.95461e+07
1.02577e+08
1.04118e+08
1.06978e+08
1.0851e+08
1.11176e+08
1.12673e+08
1.15111e+08
1.16525e+08
1.18709e+08
3.73158e+07
3.9189e+07
3.77523e+07
4.06425e+07
3.99136e+07
4.31349e+07
4.2992e+07
4.63993e+07
4.67132e+07
5.02173e+07
5.08814e+07
5.44279e+07
5.53558e+07
5.89086e+07
6.00308e+07
6.35639e+07
6.48262e+07
6.83201e+07
6.96814e+07
7.31208e+07
7.45509e+07
7.79229e+07
7.94001e+07
8.26931e+07
8.42017e+07
8.74039e+07
8.89329e+07
9.20313e+07
9.3572e+07
9.6552e+07
9.80965e+07
1.00942e+08
1.02483e+08
1.05177e+08
1.06704e+08
1.09228e+08
1.10721e+08
1.13051e+08
1.14458e+08
1.16583e+08
3.95126e+07
4.12539e+07
3.98432e+07
4.25086e+07
4.17535e+07
4.4728e+07
4.45291e+07
4.76896e+07
4.79355e+07
5.12e+07
5.17962e+07
5.51117e+07
5.59793e+07
5.93085e+07
6.03821e+07
6.36974e+07
6.4924e+07
6.82044e+07
6.95424e+07
7.27716e+07
7.41892e+07
7.73539e+07
7.88268e+07
8.19153e+07
8.34253e+07
8.64266e+07
8.79597e+07
9.08627e+07
9.24075e+07
9.52007e+07
9.67479e+07
9.94189e+07
1.0096e+08
1.03494e+08
1.05022e+08
1.07394e+08
1.08894e+08
1.11069e+08
1.12509e+08
1.14491e+08
4.17131e+07
4.33379e+07
4.19568e+07
4.44207e+07
4.36451e+07
4.63944e+07
4.61436e+07
4.90742e+07
4.92527e+07
5.22908e+07
5.28159e+07
5.59107e+07
5.67115e+07
5.98261e+07
6.08418e+07
6.39477e+07
6.51273e+07
6.82028e+07
6.95051e+07
7.25329e+07
7.39251e+07
7.68916e+07
7.8348e+07
8.12414e+07
8.27419e+07
8.55519e+07
8.70804e+07
8.9797e+07
9.13407e+07
9.39536e+07
9.55018e+07
9.7999e+07
9.95435e+07
1.01909e+08
1.03442e+08
1.05654e+08
1.07162e+08
1.09197e+08
1.10642e+08
1.12535e+08
4.39046e+07
4.54256e+07
4.40764e+07
4.636e+07
4.55689e+07
4.81138e+07
4.78155e+07
5.0534e+07
5.0647e+07
5.3473e+07
5.39256e+07
5.68118e+07
5.7541e+07
6.04514e+07
6.14016e+07
6.43077e+07
6.54308e+07
6.83103e+07
6.95661e+07
7.24015e+07
7.37572e+07
7.65342e+07
7.79633e+07
8.06703e+07
8.21514e+07
8.47782e+07
8.62942e+07
8.88309e+07
9.03681e+07
9.28043e+07
9.43518e+07
9.6676e+07
9.82242e+07
1.00423e+08
1.01962e+08
1.04021e+08
1.05534e+08
1.07437e+08
1.08898e+08
1.10675e+08
4.60753e+07
4.7503e+07
4.6187e+07
4.83091e+07
4.75066e+07
4.98667e+07
4.95253e+07
5.20494e+07
5.20994e+07
5.47287e+07
5.51086e+07
5.77992e+07
5.84539e+07
6.11714e+07
6.20505e+07
6.4767e+07
6.5826e+07
6.85192e+07
6.97195e+07
7.23715e+07
7.36809e+07
7.62774e+07
7.76692e+07
8.01985e+07
8.16507e+07
8.41022e+07
8.5597e+07
8.79611e+07
8.94834e+07
9.1751e+07
9.32877e+07
9.54501e+07
9.69892e+07
9.90378e+07
1.00568e+08
1.02492e+08
1.04e+08
1.05787e+08
1.07247e+08
1.08931e+08
4.82141e+07
4.95572e+07
4.82744e+07
5.02518e+07
4.9441e+07
5.16346e+07
5.1254e+07
5.36009e+07
5.3591e+07
5.6039e+07
5.63473e+07
5.8856e+07
5.94345e+07
6.19713e+07
6.27754e+07
6.53134e+07
6.63021e+07
6.88192e+07
6.99563e+07
7.24347e+07
7.3689e+07
7.61144e+07
7.74596e+07
7.982e+07
8.12338e+07
8.3519e+07
8.49827e+07
8.71839e+07
8.86814e+07
9.07905e+07
9.23078e+07
9.43179e+07
9.58427e+07
9.77457e+07
9.92674e+07
1.01051e+08
1.0256e+08
1.04206e+08
1.05687e+08
1.07222e+08
5.03101e+07
5.15755e+07
5.03257e+07
5.21728e+07
5.13564e+07
5.33998e+07
5.29837e+07
5.51697e+07
5.51033e+07
5.73851e+07
5.76234e+07
5.9964e+07
6.0466e+07
6.28348e+07
6.35612e+07
6.59323e+07
6.6846e+07
6.91979e+07
7.02654e+07
7.25806e+07
7.37722e+07
7.60363e+07
7.73262e+07
7.95275e+07
8.08937e+07
8.30223e+07
8.44458e+07
8.64935e+07
8.79577e+07
8.99173e+07
9.14084e+07
9.32725e+07
9.47785e+07
9.6538e+07
9.80491e+07
9.96905e+07
1.01197e+08
1.02701e+08
1.04188e+08
1.05587e+08
5.23523e+07
5.35459e+07
5.23281e+07
5.40576e+07
5.32374e+07
5.51455e+07
5.46973e+07
5.67374e+07
5.66178e+07
5.87481e+07
5.89187e+07
6.11051e+07
6.15311e+07
6.37447e+07
6.43918e+07
6.66081e+07
6.74434e+07
6.96414e+07
7.06341e+07
7.27968e+07
7.3919e+07
7.60323e+07
7.72595e+07
7.9312e+07
8.06222e+07
8.26044e+07
8.39788e+07
8.58829e+07
8.73048e+07
8.91242e+07
9.05792e+07
9.23077e+07
9.37827e+07
9.54129e+07
9.68952e+07
9.84174e+07
9.9893e+07
1.01298e+08
1.02748e+08
1.04086e+08
5.43299e+07
5.54564e+07
5.42694e+07
5.58923e+07
5.50698e+07
5.68557e+07
5.63784e+07
5.82866e+07
5.81171e+07
6.01097e+07
6.02154e+07