/*--------------------------------*- C++ -*----------------------------------*\
| =========                 |                                                 |
| \\      /  F ield         | OpenFOAM: The Open Source CFD Toolbox           |
|  \\    /   O peration     | Version:  v2012                                 |
|   \\  /    A nd           | Website:  www.openfoam.com                      |
|    \\/     M anipulation  |                                                 |
\*---------------------------------------------------------------------------*/
FoamFile
{
    version     2.0;
    format      ascii;
    class       volVectorField;
    location    "12";
    object      D_0;
}
// * * * * * * * * * * * * * * * * * * * * * * * * * * * * * * * * * * * * * //

dimensions      [0 1 0 0 0 0 0];


internalField   nonuniform List<vector> 
250
(
(0.000560929 -0.00152653 0)
(0.000515351 -0.00201317 0)
(0.00041946 -0.00223861 0)
(0.000344011 -0.00243835 0)
(0.000270755 -0.00250069 0)
(0.00136269 -0.00175017 0)
(0.00121433 -0.00197166 0)
(0.00101041 -0.00201097 0)
(0.000865074 -0.00209796 0)
(0.000711059 -0.00209718 0)
(0.00179141 -0.00165859 0)
(0.00162155 -0.00166288 0)
(0.00143545 -0.00161778 0)
(0.00131847 -0.00163671 0)
(0.00119463 -0.00161342 0)
(0.00208174 -0.00142662 0)
(0.00193401 -0.0013759 0)
(0.00179313 -0.0013163 0)
(0.00170258 -0.00130051 0)
(0.00161277 -0.00125724 0)
(0.00248514 -0.00114367 0)
(0.00234686 -0.0010555 0)
(0.00222693 -0.000968597 0)
(0.00214891 -0.000924684 0)
(0.0020798 -0.000869372 0)
(0.0027469 -0.000901231 0)
(0.00265878 -0.000794763 0)
(0.00256889 -0.00070634 0)
(0.00252794 -0.00064777 0)
(0.00246767 -0.000600924 0)
(0.00305075 -0.00067587 0)
(0.00299305 -0.0005633 0)
(0.00293105 -0.000465377 0)
(0.00290583 -0.000410764 0)
(0.00286025 -0.000346951 0)
(0.00325078 -0.000453081 0)
(0.00323955 -0.000360935 0)
(0.00320921 -0.000282439 0)
(0.00320847 -0.000237154 0)
(0.00318105 -0.000183886 0)
(0.00340669 -0.000272908 0)
(0.00342277 -0.000207727 0)
(0.0034153 -0.000151654 0)
(0.0034269 -0.000121962 0)
(0.00341556 -8.33461e-05 0)
(0.00348012 -8.21426e-05 0)
(0.00351417 -6.17313e-05 0)
(0.00352029 -4.34316e-05 0)
(0.00353917 -3.4036e-05 0)
(0.00353774 -2.07267e-05 0)
(0.0035684 -1.36105e-05 0)
(0.00346601 -5.68592e-05 0)
(0.00326452 -0.000122972 0)
(0.00297631 -0.000244093 0)
(0.00261946 -0.000421714 0)
(0.00359053 -3.04726e-06 0)
(0.00350318 -3.37289e-05 0)
(0.00333266 -6.36474e-05 0)
(0.00310068 -0.000149754 0)
(0.00282178 -0.000234366 0)
(0.00367321 -7.61727e-07 0)
(0.00360532 -2.60118e-05 0)
(0.00347535 -4.25955e-05 0)
(0.00327735 -0.000109195 0)
(0.00304433 -0.000163583 0)
(0.00373552 1.23733e-07 0)
(0.00367745 -2.6527e-05 0)
(0.0035712 -3.31142e-05 0)
(0.00341345 -8.23376e-05 0)
(0.00323456 -0.000112699 0)
(0.00385296 -3.53801e-06 0)
(0.00380404 -3.30592e-05 0)
(0.00371714 -4.66887e-05 0)
(0.00357919 -9.16643e-05 0)
(0.00342709 -0.00012141 0)
(0.00395672 -4.8678e-06 0)
(0.00391593 -3.45773e-05 0)
(0.00384502 -4.91856e-05 0)
(0.00373439 -8.86887e-05 0)
(0.00361281 -0.00011842 0)
(0.00409802 -8.42952e-06 0)
(0.00406278 -4.12883e-05 0)
(0.00400238 -6.29312e-05 0)
(0.00390673 -0.000103329 0)
(0.00380377 -0.000136496 0)
(0.00423406 -8.39206e-06 0)
(0.00420481 -3.87392e-05 0)
(0.00415477 -6.07552e-05 0)
(0.00407656 -9.92928e-05 0)
(0.00399172 -0.000134385 0)
(0.00438868 -7.30764e-06 0)
(0.00436361 -3.45497e-05 0)
(0.00432146 -5.49197e-05 0)
(0.00425498 -9.13437e-05 0)
(0.00418451 -0.000125481 0)
(0.00453947 -2.86229e-06 0)
(0.00451885 -2.06916e-05 0)
(0.00448453 -3.3708e-05 0)
(0.00442979 -6.25858e-05 0)
(0.0043729 -9.35263e-05 0)
(0.00231614 -0.000595405 0)
(0.00218843 -0.000639619 0)
(0.00205902 -0.00070139 0)
(0.00194015 -0.000750294 0)
(0.00182345 -0.000809558 0)
(0.00171324 -0.000861153 0)
(0.00160555 -0.000918091 0)
(0.00150167 -0.000972048 0)
(0.00139939 -0.00102827 0)
(0.00129863 -0.00108729 0)
(0.00261254 -0.000349653 0)
(0.00250544 -0.000391425 0)
(0.00240493 -0.00044421 0)
(0.00230405 -0.000490354 0)
(0.00220771 -0.000543737 0)
(0.00211359 -0.000593165 0)
(0.00202379 -0.00064693 0)
(0.00193711 -0.000699961 0)
(0.00185562 -0.0007551 0)
(0.00177783 -0.000813549 0)
(0.00285344 -0.000247018 0)
(0.00276094 -0.0002788 0)
(0.00267011 -0.000323941 0)
(0.00258304 -0.00036054 0)
(0.0024995 -0.000407153 0)
(0.00242032 -0.000448647 0)
(0.00234671 -0.000496638 0)
(0.00227792 -0.000543369 0)
(0.00221698 -0.000593448 0)
(0.00216175 -0.00064634 0)
(0.00308609 -0.000172626 0)
(0.0030147 -0.000199773 0)
(0.00294516 -0.000238149 0)
(0.00287622 -0.000271338 0)
(0.00281211 -0.000312733 0)
(0.00274948 -0.000351382 0)
(0.0026941 -0.000395374 0)
(0.00264168 -0.00043917 0)
(0.00259885 -0.000485751 0)
(0.00256122 -0.000534705 0)
(0.00330114 -0.00016686 0)
(0.00324271 -0.000191874 0)
(0.00318357 -0.000224305 0)
(0.00312725 -0.000254165 0)
(0.00307408 -0.000289909 0)
(0.00302397 -0.000324413 0)
(0.00298017 -0.000363072 0)
(0.00294034 -0.000401947 0)
(0.00290965 -0.00044316 0)
(0.00288463 -0.00048603 0)
(0.00351194 -0.000157656 0)
(0.00346697 -0.000181189 0)
(0.00342045 -0.00021036 0)
(0.00337659 -0.00023847 0)
(0.00333524 -0.000271103 0)
(0.00329635 -0.000303408 0)
(0.00326302 -0.000339 0)
(0.00323292 -0.000374952 0)
(0.00321086 -0.000412788 0)
(0.00319356 -0.000451626 0)
(0.00371906 -0.000173171 0)
(0.00368194 -0.000195883 0)
(0.00364193 -0.000222469 0)
(0.00360606 -0.000248967 0)
(0.00357079 -0.000278422 0)
(0.00353923 -0.000308264 0)
(0.00351134 -0.000340251 0)
(0.00348716 -0.000372784 0)
(0.00346944 -0.000406637 0)
(0.00345611 -0.000440962 0)
(0.00392254 -0.000170325 0)
(0.0038909 -0.000191981 0)
(0.00385792 -0.000217088 0)
(0.00382746 -0.000242013 0)
(0.00379798 -0.000269829 0)
(0.00377122 -0.000297746 0)
(0.00374719 -0.000327842 0)
(0.00372657 -0.00035807 0)
(0.00371028 -0.000389544 0)
(0.00369741 -0.000421052 0)
(0.00412642 -0.000160973 0)
(0.00409845 -0.000180912 0)
(0.00406692 -0.00020418 0)
(0.00404148 -0.000228135 0)
(0.00401376 -0.000254158 0)
(0.0039909 -0.000280501 0)
(0.00396795 -0.000308759 0)
(0.00394794 -0.000337399 0)
(0.00393193 -0.000366551 0)
(0.00391769 -0.000395956 0)
(0.00432254 -0.000125397 0)
(0.00429832 -0.000144822 0)
(0.00426925 -0.000167144 0)
(0.0042452 -0.000190112 0)
(0.00421981 -0.000215083 0)
(0.00419772 -0.000240887 0)
(0.00417702 -0.000267952 0)
(0.00415782 -0.000295764 0)
(0.00414128 -0.000324173 0)
(0.00412646 -0.000352757 0)
(0.000228698 -0.00255189 0)
(0.00019817 -0.00256598 0)
(0.00017444 -0.00259267 0)
(0.000156792 -0.00260549 0)
(0.000138555 -0.00262888 0)
(0.000123675 -0.00264116 0)
(0.000105925 -0.00266197 0)
(8.93407e-05 -0.00267326 0)
(6.7823e-05 -0.00269003 0)
(4.51432e-05 -0.00269775 0)
(0.000628763 -0.00214779 0)
(0.000558829 -0.00218145 0)
(0.000498316 -0.00223405 0)
(0.000444481 -0.00226383 0)
(0.000389734 -0.00230689 0)
(0.000343072 -0.00233414 0)
(0.000290117 -0.00237088 0)
(0.000240208 -0.00239527 0)
(0.000179195 -0.00242532 0)
(0.000115312 -0.00244636 0)
(0.00111811 -0.00165968 0)
(0.00103078 -0.00170892 0)
(0.000942971 -0.00177612 0)
(0.000863042 -0.00181981 0)
(0.000779931 -0.00187684 0)
(0.000707332 -0.00191728 0)
(0.000628002 -0.00196704 0)
(0.000553287 -0.00200441 0)
(0.000467311 -0.00204687 0)
(0.000378806 -0.00208205 0)
(0.00152796 -0.00128128 0)
(0.00142036 -0.00132647 0)
(0.00130499 -0.00139354 0)
(0.0012063 -0.00144054 0)
(0.00110095 -0.00150458 0)
(0.00100903 -0.00155203 0)
(0.000909452 -0.00161024 0)
(0.000815733 -0.0016566 0)
(0.000711186 -0.00170826 0)
(0.000603889 -0.00175446 0)
(0.00199829 -0.000886748 0)
(0.00188069 -0.000929032 0)
(0.00175284 -0.000997206 0)
(0.00163985 -0.00104474 0)
(0.0015217 -0.00110992 0)
(0.00141251 -0.00116102 0)
(0.00130026 -0.00122188 0)
(0.0011908 -0.00127482 0)
(0.00107579 -0.00133173 0)
(0.000957329 -0.00138795 0)
)
;

boundaryField
{
    back
    {
        type            empty;
    }
    left
    {
        type            symmetry;
    }
    hole
    {
        type            calculated;
        value           nonuniform List<vector> 10((0.000569857 -0.00127126 1.40268e-21) (0.00142049 -0.00161456 1.5501e-20) (0.00188987 -0.00165266 -1.72324e-20) (0.00219849 -0.00147312 1.68713e-20) (0.00258991 -0.00121881 4.18403e-22) (0.00282113 -0.000986953 9.55713e-21) (0.00309763 -0.000767423 5.89416e-21) (0.0032649 -0.000528013 -6.16007e-21) (0.00339808 -0.000324167 -1.47276e-20) (0.00345836 -9.95176e-05 1.69245e-21));
    }
    front
    {
        type            empty;
    }
    down
    {
        type            symmetry;
    }
    right
    {
        type            calculated;
        value           nonuniform List<vector> 
15
(
(0.00461552 2.8923e-06 7.97189e-21)
(0.00459686 -5.2265e-06 1.27914e-20)
(0.00456604 -7.91508e-06 4.28503e-21)
(0.00451688 -2.91167e-05 6.88079e-21)
(0.00446649 -5.32891e-05 -2.80356e-21)
(0.00442097 -8.33473e-05 -1.49574e-20)
(0.00439778 -0.000103138 1.08656e-20)
(0.0043699 -0.000125586 6.13978e-21)
(0.00434673 -0.000151437 -9.12396e-22)
(0.0043223 -0.000177943 0)
(0.00430091 -0.000207415 9.75451e-21)
(0.00428089 -0.000236736 4.61197e-21)
(0.00426213 -0.000267804 -1.06886e-20)
(0.00424585 -0.00029964 -4.93969e-21)
(0.0042311 -0.000330095 0)
)
;
    }
    up
    {
        type            calculated;
        value           nonuniform List<vector> 
15
(
(0.00124865 -0.00111732 3.95567e-21)
(0.0017426 -0.000843102 -4.34192e-21)
(0.00213948 -0.000673163 -2.88318e-21)
(0.00254841 -0.000559456 -3.63649e-21)
(0.00287799 -0.000507681 -3.49619e-21)
(0.00318996 -0.000471194 -2.53992e-21)
(0.00345367 -0.000458214 -2.77285e-21)
(0.00369382 -0.000436857 4.15314e-21)
(0.00391223 -0.000410646 2.17126e-21)
(0.00411938 -0.000367072 0)
(3.01993e-05 -0.0027018 -3.08168e-21)
(7.60516e-05 -0.00245527 -2.53422e-21)
(0.000328801 -0.0020968 6.69773e-22)
(0.000545007 -0.00177499 4.51616e-21)
(0.000894517 -0.00141546 2.77708e-22)
)
;
    }
}


// ************************************************************************* //
