/*--------------------------------*- C++ -*----------------------------------*\
| =========                 |                                                 |
| \\      /  F ield         | OpenFOAM: The Open Source CFD Toolbox           |
|  \\    /   O peration     | Version:  v2012                                 |
|   \\  /    A nd           | Website:  www.openfoam.com                      |
|    \\/     M anipulation  |                                                 |
\*---------------------------------------------------------------------------*/
FoamFile
{
    version     2.0;
    format      ascii;
    class       volSymmTensorField;
    location    "12";
    object      sigma;
}
// * * * * * * * * * * * * * * * * * * * * * * * * * * * * * * * * * * * * * //

dimensions      [1 -1 -2 0 0 0 0];


internalField   nonuniform List<symmTensor> 
250
(
(2.00667e+08 -1.77004e+07 6.07946e-09 1.62671e+07 -1.59862e-09 1.26513e+08)
(2.36338e+08 -1.83827e+07 3.82993e-09 3.01674e+07 7.4172e-09 1.40342e+08)
(2.7123e+08 -1.60989e+07 7.01677e-09 5.16429e+07 -5.71034e-09 1.51999e+08)
(2.80934e+08 -8.7472e+06 -7.93144e-09 5.34318e+07 -1.72576e-08 1.38796e+08)
(2.83685e+08 1.86047e+06 1.54374e-09 5.69927e+07 1.50505e-09 1.19605e+08)
(1.98394e+08 -5.06318e+07 -4.64992e-09 2.84485e+07 4.65831e-09 1.17233e+08)
(2.19059e+08 -4.63252e+07 9.54322e-09 2.87058e+07 6.09193e-09 1.09976e+08)
(2.42793e+08 -3.27366e+07 2.40034e-08 3.35187e+07 1.45793e-08 1.05283e+08)
(2.40284e+08 -1.13046e+07 -1.49962e-08 1.81596e+07 -7.73046e-09 9.02946e+07)
(2.36454e+08 7.65294e+06 -2.07299e-09 1.38193e+07 -3.84214e-09 8.07773e+07)
(1.83052e+08 -6.73478e+07 -2.27627e-08 3.43146e+07 1.79003e-09 7.45033e+07)
(1.8039e+08 -4.08841e+07 -4.32557e-08 1.14574e+07 1.30077e-08 5.75541e+07)
(1.91494e+08 -2.40112e+07 1.72327e-08 539268 5.66255e-09 5.76099e+07)
(1.99793e+08 -5.18573e+06 2.55092e-08 -1.71751e+07 5.8112e-09 5.47854e+07)
(2.04497e+08 3.6186e+06 -3.04319e-08 -1.81794e+07 -1.44278e-08 5.72028e+07)
(1.29274e+08 -5.36338e+07 -2.6074e-09 2.15384e+07 1.26428e-08 4.52437e+07)
(1.41923e+08 -2.99973e+07 -1.16832e-08 -2.10152e+06 4.36665e-09 4.19465e+07)
(1.60939e+08 -2.36131e+07 -7.19192e-09 -1.45009e+07 -6.30659e-09 4.39315e+07)
(1.70564e+08 -1.15255e+07 1.95323e-08 -2.26438e+07 1.81074e-09 4.4376e+07)
(1.76656e+08 -7.57106e+06 -5.07201e-09 -2.39051e+07 -9.99174e-09 4.58253e+07)
(7.09525e+07 -3.14218e+07 1.0866e-09 9.4093e+06 -1.02742e-09 2.41085e+07)
(1.00525e+08 -2.42433e+07 -1.70565e-08 -1.35168e+07 -3.14457e-10 2.61024e+07)
(1.21797e+08 -2.11297e+07 -1.53535e-08 -2.37424e+07 -1.12656e-08 2.94165e+07)
(1.38679e+08 -1.62445e+07 4.12414e-09 -3.29688e+07 -1.30836e-08 3.1713e+07)
(1.45345e+08 -1.26671e+07 7.19957e-09 -3.36809e+07 5.98777e-09 3.34994e+07)
(2.57902e+07 -4.96505e+06 5.12653e-09 -1.79227e+07 1.65133e-09 2.36027e+06)
(5.74246e+07 -1.61686e+07 -8.53212e-09 -3.65399e+07 -1.76498e-08 6.2654e+06)
(8.36498e+07 -2.08338e+07 -6.11825e-09 -3.93966e+07 -5.4484e-09 1.3276e+07)
(9.76869e+07 -2.5961e+07 -1.11103e-09 -4.53093e+07 1.18956e-08 1.57133e+07)
(1.14418e+08 -2.66347e+07 3.31388e-10 -3.71099e+07 3.544e-09 2.31924e+07)
(2.36561e+06 1.45143e+07 1.93184e-08 -5.98117e+07 -2.60796e-08 -1.72338e+07)
(2.6692e+07 -7.59257e+06 -8.44965e-09 -6.05514e+07 -1.82307e-08 -1.01578e+07)
(5.05154e+07 -2.0414e+07 -9.47992e-09 -5.69729e+07 1.74891e-08 -1.93724e+06)
(6.08949e+07 -2.7805e+07 1.11174e-08 -5.14141e+07 6.72278e-09 2.84425e+06)
(7.86589e+07 -3.36685e+07 -5.13178e-09 -4.17255e+07 -9.62255e-09 1.108e+07)
(-8.13227e+06 2.70413e+07 6.95516e-09 -1.05218e+08 -2.52449e-08 -3.40052e+07)
(5.00565e+06 -62456.9 1.26072e-08 -8.60399e+07 -5.15854e-09 -2.43103e+07)
(2.36366e+07 -1.63056e+07 -4.04457e-09 -6.54863e+07 1.80466e-08 -1.25549e+07)
(3.08117e+07 -2.42747e+07 -5.27853e-09 -5.30908e+07 1.73618e-09 -6.68373e+06)
(4.6352e+07 -3.26742e+07 -9.512e-11 -3.54461e+07 -7.74749e-09 3.27177e+06)
(-8.57893e+06 2.26861e+07 -3.11835e-09 -1.40336e+08 -1.87653e-08 -4.46743e+07)
(-8.8115e+06 3.03406e+06 5.75599e-09 -1.0449e+08 2.68608e-09 -3.39905e+07)
(2.36476e+06 -1.05307e+07 2.97367e-09 -7.34804e+07 2.40988e-09 -2.13347e+07)
(6.6235e+06 -1.61674e+07 -8.10615e-09 -5.55657e+07 -5.08483e-09 -1.46827e+07)
(1.83519e+07 -2.34031e+07 1.10035e-09 -3.41877e+07 -1.4934e-09 -4.75076e+06)
(-6.6608e+06 9.01346e+06 1.65708e-09 -1.62115e+08 -1.06672e-08 -5.06329e+07)
(-1.38302e+07 1.05152e+06 3.229e-09 -1.16288e+08 2.89546e-09 -3.90354e+07)
(-7.92918e+06 -3.95916e+06 -1.06642e-09 -7.67811e+07 -1.04209e-09 -2.54131e+07)
(-4.93909e+06 -5.84811e+06 -1.60135e-10 -5.63338e+07 -4.53236e-10 -1.83819e+07)
(3.4384e+06 -8.52433e+06 1.34283e-09 -3.17672e+07 1.16971e-09 -8.49863e+06)
(1.55871e+07 -8.53127e+06 -6.19346e-11 -1.55593e+07 2.57718e-10 8332.87)
(2.88425e+07 -2.50435e+07 -3.48116e-10 -1.9059e+07 -2.57654e-10 2.93506e+06)
(5.37632e+07 -3.37329e+07 -4.58026e-09 -2.24938e+07 -2.34142e-09 9.38083e+06)
(8.47091e+07 -3.71533e+07 -4.44734e-09 -2.89307e+07 -2.44735e-09 1.67335e+07)
(1.20395e+08 -3.29399e+07 -1.61913e-08 -3.28137e+07 -1.03181e-08 2.62744e+07)
(3.41429e+07 -7.62851e+06 6.37677e-10 3.07411e+06 8.53586e-11 1.11651e+07)
(4.14887e+07 -2.38486e+07 4.24099e-09 -473150 9.42171e-10 1.23047e+07)
(5.66716e+07 -3.31285e+07 -6.93799e-11 -7.14039e+06 -4.09693e-11 1.48594e+07)
(7.67189e+07 -3.89034e+07 -5.82575e-10 -1.1793e+07 1.43972e-10 1.94778e+07)
(1.01456e+08 -3.44849e+07 4.3451e-09 -1.8671e+07 1.56189e-09 2.48354e+07)
(4.97454e+07 -6.38178e+06 -5.27302e-10 1.26999e+07 -1.85285e-10 1.87336e+07)
(5.60928e+07 -1.92584e+07 1.55744e-09 1.04041e+07 2.92457e-10 1.99491e+07)
(6.9897e+07 -2.9233e+07 -2.47461e-10 4.21689e+06 -2.05307e-11 2.22342e+07)
(8.48246e+07 -3.61621e+07 3.33693e-09 -385059 6.88868e-10 2.53318e+07)
(1.02556e+08 -3.96234e+07 5.81631e-09 -8.65835e+06 1.77017e-09 2.81693e+07)
(6.20936e+07 -5.87642e+06 -2.10802e-09 1.80051e+07 1.32604e-11 2.40296e+07)
(6.56998e+07 -1.70365e+07 1.13299e-10 1.66696e+07 2.77738e-10 2.47108e+07)
(7.41231e+07 -2.59679e+07 -2.84695e-09 1.2382e+07 -7.97648e-10 2.59515e+07)
(8.59735e+07 -3.0741e+07 -7.43421e-09 9.24718e+06 -1.80978e-09 2.85662e+07)
(1.00144e+08 -3.42501e+07 1.47671e-08 2.94584e+06 4.16066e-09 3.09269e+07)
(7.51523e+07 -5.12838e+06 -8.40378e-10 1.9977e+07 -5.23345e-10 2.85388e+07)
(7.81217e+07 -1.382e+07 -1.8583e-09 1.85079e+07 -6.35545e-10 2.89889e+07)
(8.44491e+07 -2.28791e+07 -4.70175e-09 1.47855e+07 -2.7935e-10 2.97704e+07)
(9.22523e+07 -2.80266e+07 -6.13273e-09 1.15048e+07 1.31211e-10 3.11272e+07)
(1.01156e+08 -3.25978e+07 1.04708e-09 7.35593e+06 7.81202e-10 3.25534e+07)
(8.31275e+07 -4.32948e+06 2.84861e-09 2.23925e+07 -4.69025e-11 3.1656e+07)
(8.5145e+07 -1.13932e+07 2.69917e-09 2.11579e+07 9.77947e-10 3.18909e+07)
(8.92619e+07 -1.8587e+07 9.90142e-10 1.85561e+07 9.18044e-10 3.23454e+07)
(9.57815e+07 -2.25474e+07 -7.57644e-09 1.50225e+07 -2.19179e-09 3.32412e+07)
(1.02815e+08 -2.64652e+07 -4.99389e-09 1.14003e+07 -2.13419e-09 3.42645e+07)
(9.29247e+07 -3.72717e+06 0 2.28897e+07 0 3.47443e+07)
(9.4177e+07 -9.51225e+06 2.4143e-09 2.15152e+07 3.87904e-10 3.47077e+07)
(9.65292e+07 -1.59537e+07 3.54291e-09 1.91333e+07 -6.56207e-10 3.46988e+07)
(1.00181e+08 -1.96416e+07 2.71358e-10 1.57523e+07 -1.29307e-09 3.478e+07)
(1.04123e+08 -2.29083e+07 4.21724e-09 1.26912e+07 9.23644e-10 3.50442e+07)
(9.81095e+07 -2.77673e+06 3.10259e-09 2.59313e+07 -3.43008e-10 3.72123e+07)
(9.8942e+07 -7.10162e+06 3.47067e-09 2.44582e+07 7.75098e-11 3.70201e+07)
(1.00442e+08 -1.17801e+07 4.36857e-09 2.2053e+07 5.64782e-10 3.67484e+07)
(1.03073e+08 -1.46483e+07 -4.47939e-09 1.82555e+07 -1.26648e-09 3.63986e+07)
(1.05689e+08 -1.70516e+07 -6.39887e-10 1.47563e+07 5.29562e-10 3.61337e+07)
(1.04314e+08 -2.08945e+06 -3.43774e-16 3.02432e+07 -6.95736e-18 4.03671e+07)
(1.04516e+08 -5.24208e+06 -2.97212e-09 2.84285e+07 1.74477e-10 3.98833e+07)
(1.04949e+08 -8.76733e+06 1.74678e-09 2.55007e+07 9.06364e-10 3.91349e+07)
(1.05649e+08 -1.08088e+07 -6.41165e-10 2.10185e+07 3.89723e-10 3.80003e+07)
(1.06664e+08 -1.23697e+07 3.82955e-11 1.66333e+07 7.84222e-10 3.69891e+07)
(1.06571e+08 -739565 -1.66474e-09 3.75496e+07 9.43559e-12 4.3236e+07)
(1.06619e+08 -1.78168e+06 -2.63427e-09 3.51461e+07 -7.14862e-10 4.25295e+07)
(1.06714e+08 -3.08114e+06 -8.586e-10 3.15454e+07 -3.61838e-10 4.14778e+07)
(1.06771e+08 -3.73889e+06 -1.32804e-09 2.54323e+07 -9.20298e-10 3.9661e+07)
(1.07005e+08 -4.50967e+06 5.1452e-10 2.00361e+07 1.12151e-10 3.81124e+07)
(1.36575e+08 -2.72072e+07 -9.29972e-09 -3.28028e+07 -6.24776e-09 3.11318e+07)
(1.40344e+08 -2.14789e+07 -2.5076e-09 -2.66053e+07 -2.37459e-09 3.41217e+07)
(1.51386e+08 -1.72396e+07 1.50962e-08 -2.54437e+07 4.4305e-09 3.77828e+07)
(1.60346e+08 -1.31818e+07 1.13417e-08 -1.93496e+07 2.56063e-09 4.2299e+07)
(1.6983e+08 -9.38702e+06 -1.05001e-08 -1.73608e+07 -5.43631e-09 4.57407e+07)
(1.78912e+08 -6.42691e+06 8.1693e-09 -1.13584e+07 6.58878e-09 5.02661e+07)
(1.88231e+08 -3.76806e+06 2.70948e-09 -9.13645e+06 4.572e-09 5.37284e+07)
(1.98813e+08 -2.06134e+06 5.0569e-09 -3.74807e+06 3.88581e-09 5.85196e+07)
(2.10489e+08 -842481 7.61168e-09 -2.61108e+06 4.22586e-09 6.23632e+07)
(2.251e+08 -213887 -7.58461e-09 861951 -2.21963e-09 6.77887e+07)
(1.28194e+08 -2.70307e+07 -4.254e-09 -1.89725e+07 -1.96193e-09 3.27663e+07)
(1.39434e+08 -2.59069e+07 -2.91859e-23 -1.5711e+07 -2.28208e-23 3.7117e+07)
(1.49753e+08 -2.26982e+07 3.19307e-09 -1.48365e+07 8.90678e-10 4.04749e+07)
(1.59532e+08 -2.04681e+07 -8.18519e-09 -1.1147e+07 -4.11178e-09 4.45155e+07)
(1.68608e+08 -1.74517e+07 -2.19389e-09 -9.95456e+06 -8.45201e-10 4.75961e+07)
(1.78256e+08 -1.47233e+07 -5.97843e-09 -6.14999e+06 -3.49155e-09 5.16318e+07)
(1.87478e+08 -1.18312e+07 3.13458e-09 -5.15808e+06 1.78381e-09 5.4696e+07)
(1.97982e+08 -8.84203e+06 -6.56837e-09 -1.77308e+06 -3.62917e-09 5.88627e+07)
(2.08699e+08 -5.76843e+06 1.35324e-08 -1.58743e+06 8.38868e-09 6.21336e+07)
(2.21368e+08 -2.0853e+06 6.15052e-09 664890 2.43567e-09 6.66097e+07)
(1.17476e+08 -3.66871e+07 -1.38726e-08 -9.424e+06 -5.44692e-09 3.24156e+07)
(1.2695e+08 -3.43457e+07 5.46296e-09 -6.97932e+06 2.36378e-09 3.59911e+07)
(1.34633e+08 -3.1544e+07 1.7051e-08 -7.56103e+06 7.6203e-09 3.81215e+07)
(1.44071e+08 -2.83349e+07 -1.41662e-08 -4.69506e+06 -6.87105e-09 4.18127e+07)
(1.52143e+08 -2.5055e+07 6.7569e-09 -5.20339e+06 3.6407e-09 4.40819e+07)
(1.61489e+08 -2.12909e+07 3.65838e-09 -2.29894e+06 2.67571e-09 4.77569e+07)
(1.70108e+08 -1.74894e+07 -5.91108e-09 -2.86046e+06 -3.91767e-09 5.01742e+07)
(1.8003e+08 -1.30875e+07 -8.36014e-09 -272930 -5.10619e-09 5.39271e+07)
(1.89585e+08 -8.4883e+06 -7.95873e-09 -1.17332e+06 -5.40086e-09 5.65235e+07)
(2.00729e+08 -3.01038e+06 8.23014e-10 760278 1.61492e-09 6.04467e+07)
(1.14469e+08 -3.30516e+07 1.4346e-08 -248904 5.22301e-09 3.4266e+07)
(1.23266e+08 -3.17478e+07 -5.84007e-09 529475 -2.70431e-09 3.71385e+07)
(1.30682e+08 -2.99337e+07 2.16778e-09 -1.16893e+06 4.21277e-10 3.88538e+07)
(1.39085e+08 -2.78139e+07 2.29827e-09 13555.6 4.49391e-10 4.17297e+07)
(1.46333e+08 -2.50762e+07 -2.29139e-18 -1.29714e+06 -2.84943e-18 4.35109e+07)
(1.54391e+08 -2.20079e+07 2.55075e-09 77164.8 5.24809e-10 4.63405e+07)
(1.61589e+08 -1.83024e+07 2.67736e-09 -1.0058e+06 5.64416e-10 4.81748e+07)
(1.69614e+08 -1.40789e+07 9.55043e-09 368987 4.93491e-09 5.0995e+07)
(1.76936e+08 -9.11845e+06 3.33489e-09 -664484 3.95544e-09 5.28816e+07)
(1.85201e+08 -3.38369e+06 2.62066e-09 554165 2.03779e-09 5.57266e+07)
(1.11116e+08 -3.24641e+07 -1.40953e-09 4.59537e+06 -2.08385e-09 3.47134e+07)
(1.17339e+08 -3.13691e+07 1.90754e-09 4.44532e+06 7.75299e-11 3.65354e+07)
(1.22512e+08 -2.99576e+07 4.79084e-09 2.77009e+06 2.57176e-09 3.75848e+07)
(1.29011e+08 -2.78215e+07 -3.19042e-10 2.90348e+06 -2.43317e-09 3.95744e+07)
(1.34187e+08 -2.52943e+07 6.4924e-09 1.38231e+06 3.07729e-09 4.06708e+07)
(1.40432e+08 -2.20912e+07 -2.30839e-09 1.72906e+06 -2.01758e-10 4.26485e+07)
(1.45506e+08 -1.84453e+07 -4.53439e-09 376178 -6.17275e-09 4.37645e+07)
(1.51454e+08 -1.4057e+07 7.48938e-09 889555 8.1182e-10 4.57031e+07)
(1.56283e+08 -9.10657e+06 4.89281e-09 -267059 3.78494e-09 4.68049e+07)
(1.61798e+08 -3.3053e+06 4.25606e-09 437895 1.95679e-09 4.86708e+07)
(1.10641e+08 -2.69671e+07 3.91113e-09 8.18167e+06 2.02885e-09 3.56469e+07)
(1.15329e+08 -2.60214e+07 8.28254e-11 7.35903e+06 2.20992e-09 3.68064e+07)
(1.19404e+08 -2.51917e+07 -5.67996e-09 5.41993e+06 -2.37332e-09 3.74471e+07)
(1.24384e+08 -2.34391e+07 -3.5302e-09 4.77908e+06 -2.50934e-09 3.87488e+07)
(1.28228e+08 -2.14897e+07 5.78239e-09 3.04496e+06 7.95619e-09 3.93818e+07)
(1.32826e+08 -1.88192e+07 2.17619e-09 2.64788e+06 6.77888e-11 4.06423e+07)
(1.36276e+08 -1.57566e+07 -1.50015e-08 1.18316e+06 -1.20275e-08 4.12378e+07)
(1.40258e+08 -1.20276e+07 -2.45851e-09 1.09848e+06 2.80572e-09 4.24069e+07)
(1.43104e+08 -7.76834e+06 1.59724e-10 -12999.6 9.20781e-09 4.29272e+07)
(1.46237e+08 -2.83742e+06 -3.81431e-09 302319 1.42231e-09 4.39617e+07)
(1.09308e+08 -2.3382e+07 4.21575e-09 9.65546e+06 3.15144e-09 3.56891e+07)
(1.11897e+08 -2.26298e+07 4.98584e-09 8.61542e+06 1.98775e-09 3.61539e+07)
(1.14544e+08 -2.19194e+07 -3.14682e-09 6.70913e+06 -2.19148e-09 3.63759e+07)
(1.17549e+08 -2.02992e+07 -3.80419e-09 5.70321e+06 3.17885e-11 3.69757e+07)
(1.19857e+08 -1.86583e+07 2.9499e-18 4.00354e+06 2.60728e-18 3.71582e+07)
(1.2261e+08 -1.61874e+07 4.00746e-09 3.16044e+06 4.61326e-11 3.7731e+07)
(1.24387e+08 -1.36253e+07 1.15153e-10 1.75488e+06 2.61939e-09 3.78425e+07)
(1.26585e+08 -1.0254e+07 -4.16648e-09 1.20945e+06 -1.41215e-10 3.83383e+07)
(1.27633e+08 -6.63561e+06 -8.2187e-10 212544 2.71989e-09 3.83538e+07)
(1.28756e+08 -2.37278e+06 5.00587e-09 182647 1.5506e-09 3.86816e+07)
(1.09138e+08 -1.76854e+07 -1.52936e-10 1.14906e+07 4.27736e-10 3.61886e+07)
(1.107e+08 -1.67765e+07 1.75765e-09 1.01187e+07 6.329e-11 3.62457e+07)
(1.11978e+08 -1.61554e+07 8.84459e-09 8.03611e+06 4.28669e-09 3.60044e+07)
(1.14126e+08 -1.49407e+07 -6.45028e-10 6.7883e+06 -2.09006e-09 3.62742e+07)
(1.15227e+08 -1.36023e+07 -4.60821e-10 4.85075e+06 -2.20014e-09 3.60233e+07)
(1.17009e+08 -1.17526e+07 5.91703e-09 3.79011e+06 2.63179e-09 3.62398e+07)
(1.17579e+08 -9.70261e+06 1.92759e-09 2.17241e+06 1.33134e-10 3.59254e+07)
(1.18313e+08 -7.18256e+06 -4.16114e-10 1.38852e+06 2.40057e-09 3.59105e+07)
(1.18309e+08 -4.58215e+06 7.45203e-10 350469 -2.43421e-09 3.55977e+07)
(1.1797e+08 -1.59327e+06 4.18434e-09 105733 -2.32342e-09 3.54229e+07)
(1.07742e+08 -1.26291e+07 -6.6667e-10 1.29441e+07 -6.16805e-10 3.62058e+07)
(1.07246e+08 -1.17498e+07 -8.27319e-09 1.09793e+07 -4.06927e-09 3.54677e+07)
(1.0881e+08 -1.15198e+07 -6.269e-10 8.94081e+06 -1.73818e-09 3.53252e+07)
(1.0967e+08 -1.02701e+07 3.9647e-09 7.10629e+06 2.28198e-09 3.50329e+07)
(1.09938e+08 -9.29431e+06 -3.87556e-09 5.30376e+06 -2.39322e-09 3.45726e+07)
(1.10473e+08 -7.75918e+06 -7.54984e-23 3.74559e+06 -2.8774e-23 3.42655e+07)
(1.10192e+08 -6.12744e+06 8.62839e-09 2.34066e+06 9.32499e-09 3.37599e+07)
(1.1062e+08 -4.52255e+06 1.8191e-09 1.25291e+06 2.63103e-10 3.35617e+07)
(1.10215e+08 -2.62781e+06 -1.207e-10 461564 -6.70356e-09 3.32029e+07)
(1.09511e+08 -935419 -1.04092e-09 -20116.7 -1.21395e-09 3.28472e+07)
(1.0678e+08 -4.34565e+06 2.6795e-09 1.48937e+07 3.08364e-09 3.6502e+07)
(1.07243e+08 -4.23287e+06 -1.94517e-09 1.26514e+07 -2.22811e-09 3.59683e+07)
(1.07271e+08 -4.12736e+06 -1.10078e-09 9.81065e+06 -1.86993e-09 3.51244e+07)
(1.07151e+08 -3.52144e+06 1.65788e-10 7.64451e+06 1.49102e-09 3.44386e+07)
(1.07287e+08 -3.15466e+06 0 5.41992e+06 0 3.38121e+07)
(1.07088e+08 -2.44951e+06 -1.74368e-09 3.66175e+06 -9.0175e-10 3.32248e+07)
(1.07368e+08 -1.93856e+06 -8.26735e-10 2.16643e+06 -2.26735e-09 3.28603e+07)
(1.07344e+08 -1.2771e+06 1.90955e-09 1.08132e+06 -1.08541e-09 3.25276e+07)
(1.07013e+08 -599322 8.83068e-10 316225 3.86664e-10 3.21987e+07)
(1.06785e+08 -190843 0 45969.1 0 3.20494e+07)
(2.74893e+08 1.02289e+07 -3.91562e-09 4.80853e+07 -2.95779e-09 1.0189e+08)
(2.6245e+08 1.62915e+07 2.40802e-09 4.65596e+07 3.83556e-09 9.2703e+07)
(2.34594e+08 2.04651e+07 1.93881e-14 3.76894e+07 2.07895e-14 8.16849e+07)
(2.1192e+08 2.18976e+07 -4.30355e-09 3.3952e+07 -2.49158e-09 7.37616e+07)
(1.85544e+08 2.1435e+07 3.85212e-09 2.43995e+07 2.39203e-09 6.2983e+07)
(1.6489e+08 2.03529e+07 -1.26565e-08 2.03441e+07 -1.23476e-08 5.55703e+07)
(1.38406e+08 1.78714e+07 1.03781e-08 1.12619e+07 1.24463e-08 4.49004e+07)
(1.15693e+08 1.46555e+07 1.58578e-08 8.41842e+06 1.25926e-08 3.72334e+07)
(8.51049e+07 1.00442e+07 -4.33593e-09 1.32609e+06 -1.44645e-09 2.59293e+07)
(5.57288e+07 3.99243e+06 1.00028e-08 1.49935e+06 3.18395e-09 1.71685e+07)
(2.28223e+08 2.20656e+07 1.43317e-08 4.086e+06 9.36348e-09 7.4726e+07)
(2.2841e+08 3.03445e+07 9.88949e-09 6.81682e+06 4.49002e-09 7.45319e+07)
(2.22986e+08 3.62708e+07 1.05231e-08 1.81942e+06 1.11277e-08 6.9458e+07)
(2.18562e+08 3.92458e+07 -2.89129e-08 5.37086e+06 -2.61609e-08 6.71799e+07)
(2.00918e+08 4.00661e+07 -2.52284e-10 1.02342e+06 -1.57735e-10 6.05823e+07)
(1.87339e+08 3.90783e+07 2.50951e-08 4.06987e+06 1.60676e-08 5.74226e+07)
(1.68339e+08 3.51605e+07 1.16979e-09 -261827 -8.21389e-09 5.04231e+07)
(1.53235e+08 2.93085e+07 -2.4172e-08 2.6929e+06 -8.38312e-09 4.67783e+07)
(1.32887e+08 2.02859e+07 -1.87775e-08 -1.46002e+06 -1.15091e-08 3.94282e+07)
(1.15235e+08 8.14418e+06 2.48441e-09 1.89085e+06 2.45823e-09 3.51379e+07)
(2.03389e+08 1.36921e+07 7.27269e-09 -2.36291e+07 6.58514e-09 5.73285e+07)
(2.0672e+08 1.88374e+07 5.5778e-09 -1.74386e+07 5.45037e-09 6.02233e+07)
(2.06046e+08 2.33041e+07 2.37209e-08 -1.893e+07 1.36629e-08 5.80282e+07)
(2.10658e+08 2.69783e+07 2.56172e-08 -1.20653e+07 1.30341e-08 5.99405e+07)
(2.04006e+08 2.95244e+07 -3.84752e-08 -1.30503e+07 -2.13188e-08 5.72868e+07)
(1.99253e+08 3.05712e+07 8.86591e-09 -6.39301e+06 2.24492e-09 5.7858e+07)
(1.89435e+08 2.84201e+07 5.39257e-08 -7.31782e+06 3.68805e-08 5.46352e+07)
(1.83319e+08 2.43806e+07 9.56338e-09 -1.24678e+06 1.20227e-08 5.46217e+07)
(1.74209e+08 1.69381e+07 -1.63393e-08 -2.97915e+06 -7.19451e-09 5.13691e+07)
(1.68627e+08 6.92762e+06 -1.43799e-08 1.79633e+06 -5.58999e-10 5.11269e+07)
(1.83875e+08 -1.15194e+06 -3.04806e-08 -2.65219e+07 -1.44754e-08 4.72059e+07)
(1.91937e+08 5.07018e+06 3.69414e-08 -2.17827e+07 2.1059e-08 5.10462e+07)
(1.93111e+08 9.63098e+06 3.11427e-08 -2.29389e+07 1.60652e-08 5.10518e+07)
(1.99679e+08 1.50581e+07 -2.49887e-08 -1.67729e+07 -5.34736e-09 5.48717e+07)
(2.00256e+08 1.8162e+07 5.22492e-09 -1.70414e+07 5.73565e-09 5.49645e+07)
(2.02264e+08 2.12266e+07 -3.3435e-09 -9.93158e+06 -1.07413e-08 5.76997e+07)
(2.00231e+08 2.0825e+07 -3.32482e-08 -9.68873e+06 -2.10611e-08 5.71625e+07)
(2.00018e+08 1.89493e+07 4.60574e-09 -2.83161e+06 5.59625e-09 5.91559e+07)
(1.98475e+08 1.35918e+07 9.82886e-09 -3.39617e+06 1.16572e-08 5.85236e+07)
(1.99911e+08 5.6568e+06 -1.59436e-08 1.56754e+06 -3.27473e-09 6.04435e+07)
(1.54173e+08 -1.17485e+07 -1.59489e-08 -3.34773e+07 -2.46657e-09 3.62087e+07)
(1.64695e+08 -6.4456e+06 -1.23532e-08 -2.77742e+07 -5.72829e-09 4.10761e+07)
(1.71292e+08 -3.19116e+06 1.7228e-08 -2.86845e+07 1.49641e-08 4.27821e+07)
(1.79843e+08 1.4855e+06 1.40976e-08 -2.19179e+07 7.17383e-09 4.73775e+07)
(1.86346e+08 4.67549e+06 2.39081e-08 -2.14286e+07 7.89755e-09 4.94754e+07)
(1.93117e+08 7.98402e+06 3.63515e-08 -1.3976e+07 2.06038e-08 5.37424e+07)
(1.99128e+08 9.50762e+06 -1.90329e-08 -1.2235e+07 -1.30394e-08 5.6068e+07)
(2.06049e+08 9.39947e+06 -3.55258e-08 -4.97705e+06 -1.82667e-08 6.03214e+07)
(2.14015e+08 7.34009e+06 -4.40188e-09 -3.74006e+06 -4.42647e-09 6.30824e+07)
(2.24998e+08 2.94817e+06 5.92419e-09 1.10928e+06 -1.73697e-10 6.78321e+07)
)
;

boundaryField
{
    back
    {
        type            empty;
    }
    left
    {
        type            symmetry;
    }
    hole
    {
        type            calculated;
        value           nonuniform List<symmTensor> 10((1.8131e+08 -1.42694e+07 6.09429e-09 1.12303e+06 -4.79631e-10 1.07507e+08) (1.82484e+08 -4.38105e+07 -5.50252e-09 1.0518e+07 6.00172e-10 1.01449e+08) (1.70546e+08 -7.06424e+07 -1.94177e-08 2.9261e+07 8.04305e-09 6.95809e+07) (1.06355e+08 -6.51746e+07 -6.93248e-09 3.9939e+07 4.95953e-09 4.38883e+07) (4.28881e+07 -3.66299e+07 6.68267e-10 3.12849e+07 -9.75133e-10 2.22519e+07) (1.84279e+06 -2.15763e+06 1.1323e-09 2.52626e+06 -1.35364e-09 1.31071e+06) (-1.50291e+07 2.45253e+07 1.68504e-08 -4.00216e+07 -2.79341e-08 -1.65152e+07) (-1.59243e+07 3.84446e+07 9.94398e-09 -9.28134e+07 -2.40069e-08 -3.26213e+07) (-7.69028e+06 3.20323e+07 4.35848e-09 -1.33424e+08 -1.69014e-08 -4.23344e+07) (-984367 1.25076e+07 7.62388e-10 -1.58924e+08 -1.07432e-08 -4.79724e+07));
    }
    front
    {
        type            empty;
    }
    down
    {
        type            symmetry;
    }
    right
    {
        type            calculated;
        value           nonuniform List<symmTensor> 
15
(
(1.0692e+08 -0.0640126 2.76815e-17 3.76994e+07 9.43559e-12 4.33858e+07)
(1.0692e+08 -0.181928 3.35699e-17 3.52752e+07 -7.14862e-10 4.26585e+07)
(1.0692e+08 -0.294285 9.90638e-18 3.16336e+07 -3.61838e-10 4.15661e+07)
(1.0692e+08 -0.388997 -1.65987e-17 2.54962e+07 -9.20298e-10 3.97249e+07)
(1.0692e+08 -0.492571 -2.64251e-17 1.99996e+07 1.12151e-10 3.80759e+07)
(1.0692e+08 -0.562519 1.27864e-16 1.49539e+07 3.08364e-09 3.65622e+07)
(1.0692e+08 -0.598618 -8.26922e-17 1.2513e+07 -2.22811e-09 3.58299e+07)
(1.0692e+08 -0.63092 -9.3212e-17 9.66031e+06 -1.86993e-09 3.49741e+07)
(1.0692e+08 -0.644186 9.99461e-17 7.54555e+06 1.49102e-09 3.43397e+07)
(1.0692e+08 -0.668902 0 5.26253e+06 0 3.36548e+07)
(1.0692e+08 -0.731133 7.39964e-18 3.58996e+06 -9.0175e-10 3.3153e+07)
(1.0692e+08 -0.882486 -1.30378e-16 1.97445e+06 -2.26735e-09 3.26683e+07)
(1.0692e+08 -1.15766 -1.79004e-16 899526 -1.08541e-09 3.23459e+07)
(1.0692e+08 -1.7645 -5.93894e-18 276437 3.86664e-10 3.21589e+07)
(1.0692e+08 -2.33873 0 103711 0 3.21071e+07)
)
;
    }
    up
    {
        type            calculated;
        value           nonuniform List<symmTensor> 
15
(
(2.24731e+08 1.64436 -7.58461e-09 0.166769 -2.58751e-17 6.74192e+07)
(2.21083e+08 1.01886 6.15052e-09 0.212816 4.72617e-17 6.63248e+07)
(2.00403e+08 0.626145 8.23014e-10 0.207632 1.27711e-17 6.01209e+07)
(1.84964e+08 0.326329 2.62066e-09 0.172286 3.47186e-17 5.54891e+07)
(1.61611e+08 0.143645 4.25606e-09 0.105664 3.00221e-17 4.84832e+07)
(1.46107e+08 0.077777 -3.81431e-09 0.0335558 1.97536e-18 4.38321e+07)
(1.28678e+08 0.146633 5.00587e-09 -0.0266135 1.04968e-17 3.86033e+07)
(1.17925e+08 0.297134 4.18434e-09 -0.0888947 6.936e-17 3.53775e+07)
(1.09519e+08 0.750466 -1.04092e-09 -0.15881 2.14808e-17 3.28558e+07)
(1.06766e+08 1.99286 0 -0.120085 0 3.20297e+07)
(5.50863e+07 0.434853 1.00028e-08 -0.772091 -1.04872e-16 1.65259e+07)
(1.14425e+08 1.20449 2.48441e-09 -0.63505 7.77424e-17 3.43275e+07)
(1.67857e+08 1.71739 -1.43799e-08 -0.422809 1.43763e-16 5.03571e+07)
(1.99239e+08 1.98584 -1.59436e-08 -0.231983 -1.2511e-17 5.97717e+07)
(2.24522e+08 2.08096 5.92419e-09 0.000582144 -1.2842e-16 6.73566e+07)
)
;
    }
}


// ************************************************************************* //
