/*--------------------------------*- C++ -*----------------------------------*\
| =========                 |                                                 |
| \\      /  F ield         | OpenFOAM: The Open Source CFD Toolbox           |
|  \\    /   O peration     | Version:  v2012                                 |
|   \\  /    A nd           | Website:  www.openfoam.com                      |
|    \\/     M anipulation  |                                                 |
\*---------------------------------------------------------------------------*/
FoamFile
{
    version     2.0;
    format      ascii;
    class       volVectorField;
    location    "3";
    object      D_0;
}
// * * * * * * * * * * * * * * * * * * * * * * * * * * * * * * * * * * * * * //

dimensions      [0 1 0 0 0 0 0];


internalField   nonuniform List<vector> 
250
(
(7.52745e-05 -0.00057763 0)
(6.46457e-05 -0.000606357 0)
(5.71479e-05 -0.000622876 0)
(5.29773e-05 -0.000638723 0)
(4.97562e-05 -0.000650036 0)
(0.000223932 -0.00054575 0)
(0.000194139 -0.000566045 0)
(0.000172967 -0.000576338 0)
(0.000161083 -0.00058791 0)
(0.000152071 -0.000594948 0)
(0.000371437 -0.000487401 0)
(0.000329514 -0.000493943 0)
(0.00029988 -0.000493998 0)
(0.000282811 -0.000498655 0)
(0.000270938 -0.00049905 0)
(0.000510153 -0.000418866 0)
(0.000464204 -0.00040932 0)
(0.000431213 -0.000398147 0)
(0.000412007 -0.000394868 0)
(0.000399108 -0.00038848 0)
(0.000642309 -0.00034127 0)
(0.000600107 -0.000318397 0)
(0.000570075 -0.000298485 0)
(0.00055173 -0.000288098 0)
(0.000541017 -0.000278227 0)
(0.000752887 -0.000272491 0)
(0.000721223 -0.000240591 0)
(0.000695945 -0.000215817 0)
(0.000683589 -0.000200478 0)
(0.000671406 -0.00018909 0)
(0.000854222 -0.000202696 0)
(0.000834858 -0.000168367 0)
(0.000817691 -0.000141306 0)
(0.000810838 -0.000125574 0)
(0.000801463 -0.000110635 0)
(0.000929656 -0.000139573 0)
(0.00092362 -0.000109568 0)
(0.000915253 -8.60289e-05 0)
(0.000914256 -7.22424e-05 0)
(0.000909249 -5.85391e-05 0)
(0.000983463 -8.15336e-05 0)
(0.000987351 -6.09458e-05 0)
(0.000986195 -4.46348e-05 0)
(0.000989196 -3.55114e-05 0)
(0.000988415 -2.58047e-05 0)
(0.00101017 -2.65905e-05 0)
(0.00101971 -1.94532e-05 0)
(0.00102269 -1.3745e-05 0)
(0.00102785 -1.05716e-05 0)
(0.00102969 -7.05774e-06 0)
(0.0010398 -4.94606e-06 0)
(0.00100552 -1.827e-05 0)
(0.000938472 -4.1461e-05 0)
(0.000844868 -8.08277e-05 0)
(0.000727266 -0.000141059 0)
(0.00105527 -3.03919e-06 0)
(0.00102688 -1.30196e-05 0)
(0.00097159 -2.73559e-05 0)
(0.000896 -5.46184e-05 0)
(0.000804231 -8.87854e-05 0)
(0.00108396 -2.40842e-06 0)
(0.00106241 -1.08206e-05 0)
(0.00102018 -2.08904e-05 0)
(0.000959234 -4.15276e-05 0)
(0.000883839 -6.49456e-05 0)
(0.00111287 -2.90798e-06 0)
(0.00109462 -1.19002e-05 0)
(0.00105999 -2.03568e-05 0)
(0.00101048 -3.61137e-05 0)
(0.000951375 -5.23857e-05 0)
(0.00115326 -3.50179e-06 0)
(0.00113843 -1.32481e-05 0)
(0.00111032 -2.24045e-05 0)
(0.00106901 -3.68751e-05 0)
(0.00101985 -5.12062e-05 0)
(0.00119401 -4.21961e-06 0)
(0.00118152 -1.47163e-05 0)
(0.00115828 -2.45755e-05 0)
(0.00112438 -3.81051e-05 0)
(0.00108449 -5.19177e-05 0)
(0.00124268 -4.74414e-06 0)
(0.00123223 -1.5947e-05 0)
(0.00121278 -2.68167e-05 0)
(0.0011844 -4.05723e-05 0)
(0.00115117 -5.46709e-05 0)
(0.00129201 -4.85749e-06 0)
(0.00128327 -1.5885e-05 0)
(0.00126705 -2.6974e-05 0)
(0.0012436 -4.05422e-05 0)
(0.00121616 -5.49619e-05 0)
(0.00134551 -4.2721e-06 0)
(0.00133821 -1.40982e-05 0)
(0.00132475 -2.42538e-05 0)
(0.00130533 -3.70574e-05 0)
(0.00128277 -5.10151e-05 0)
(0.00139845 -3.005e-06 0)
(0.00139252 -1.01306e-05 0)
(0.00138163 -1.81329e-05 0)
(0.00136586 -2.87715e-05 0)
(0.00134779 -4.16486e-05 0)
(0.000639944 -0.000194101 0)
(0.000603854 -0.000211952 0)
(0.000570495 -0.000232244 0)
(0.000539606 -0.000250531 0)
(0.000510686 -0.000269518 0)
(0.000483226 -0.000287208 0)
(0.000456567 -0.000304876 0)
(0.000430408 -0.000321916 0)
(0.000403759 -0.000338812 0)
(0.000376643 -0.00035615 0)
(0.000738363 -0.00012544 0)
(0.000707502 -0.00014149 0)
(0.000678803 -0.000158926 0)
(0.00065102 -0.000175566 0)
(0.000624794 -0.000192755 0)
(0.000599667 -0.000209426 0)
(0.000575675 -0.000226208 0)
(0.000552575 -0.00024297 0)
(0.000530288 -0.000259712 0)
(0.000508634 -0.000277286 0)
(0.000827553 -9.13348e-05 0)
(0.000801174 -0.000104155 0)
(0.000776119 -0.000118853 0)
(0.000751911 -0.000132773 0)
(0.000729067 -0.000147784 0)
(0.000707341 -0.000162486 0)
(0.000687063 -0.000177739 0)
(0.000668033 -0.000193215 0)
(0.000650702 -0.000208943 0)
(0.000634755 -0.000225591 0)
(0.000906026 -7.17216e-05 0)
(0.000884954 -8.25423e-05 0)
(0.000864575 -9.49826e-05 0)
(0.000844732 -0.00010719 0)
(0.000826067 -0.000120423 0)
(0.000808318 -0.000133734 0)
(0.000792151 -0.000147641 0)
(0.000777268 -0.000161966 0)
(0.000764503 -0.000176595 0)
(0.000753393 -0.000192058 0)
(0.000982452 -6.64367e-05 0)
(0.000965329 -7.60851e-05 0)
(0.000948503 -8.68765e-05 0)
(0.00093227 -9.78112e-05 0)
(0.000917014 -0.000109566 0)
(0.000902701 -0.000121622 0)
(0.000889927 -0.000134222 0)
(0.000878493 -0.000147288 0)
(0.000869257 -0.000160657 0)
(0.000861769 -0.000174675 0)
(0.00105404 -6.52731e-05 0)
(0.00104039 -7.41958e-05 0)
(0.00102674 -8.39669e-05 0)
(0.00101369 -9.40636e-05 0)
(0.0010014 -0.000104821 0)
(0.000989989 -0.000115955 0)
(0.000979922 -0.000127562 0)
(0.000971095 -0.00013958 0)
(0.000964247 -0.000151867 0)
(0.000959 -0.000164581 0)
(0.00112611 -6.73146e-05 0)
(0.00111482 -7.57558e-05 0)
(0.00110339 -8.48289e-05 0)
(0.00109262 -9.42976e-05 0)
(0.00108237 -0.000104249 0)
(0.00107299 -0.000114613 0)
(0.0010647 -0.000125328 0)
(0.00105752 -0.0001364 0)
(0.00105203 -0.000147696 0)
(0.00104792 -0.000159233 0)
(0.00119555 -6.736e-05 0)
(0.0011858 -7.53976e-05 0)
(0.00117616 -8.39875e-05 0)
(0.00116689 -9.29022e-05 0)
(0.00115815 -0.000102295 0)
(0.00115009 -0.000112007 0)
(0.00114283 -0.000122081 0)
(0.00113665 -0.000132399 0)
(0.00113164 -0.000142917 0)
(0.00112773 -0.000153539 0)
(0.00126582 -6.32308e-05 0)
(0.0012571 -7.07372e-05 0)
(0.00124818 -7.8794e-05 0)
(0.00124017 -8.73876e-05 0)
(0.0012322 -9.62807e-05 0)
(0.0012251 -0.000105552 0)
(0.00121835 -0.000115124 0)
(0.00121231 -0.00012497 0)
(0.00120735 -0.000134908 0)
(0.00120299 -0.000144958 0)
(0.0013334 -5.28531e-05 0)
(0.00132564 -6.01093e-05 0)
(0.0013174 -6.78801e-05 0)
(0.00130985 -7.60979e-05 0)
(0.00130248 -8.47133e-05 0)
(0.00129571 -9.37036e-05 0)
(0.00128954 -0.000102981 0)
(0.00128374 -0.000112525 0)
(0.0012787 -0.000122212 0)
(0.00127422 -0.00013198 0)
(4.74224e-05 -0.000659389 0)
(4.4386e-05 -0.000665395 0)
(4.15523e-05 -0.00067183 0)
(3.88595e-05 -0.000677683 0)
(3.60745e-05 -0.000683879 0)
(3.33352e-05 -0.000689491 0)
(3.03255e-05 -0.00069536 0)
(2.723e-05 -0.000700473 0)
(2.36828e-05 -0.000705731 0)
(1.99234e-05 -0.000709862 0)
(0.000144901 -0.000603667 0)
(0.000135451 -0.000612141 0)
(0.000126314 -0.000621292 0)
(0.000117943 -0.000629349 0)
(0.000109168 -0.000637946 0)
(0.000100721 -0.000645552 0)
(9.14283e-05 -0.000653552 0)
(8.19456e-05 -0.000660534 0)
(7.10909e-05 -0.00066774 0)
(5.95601e-05 -0.00067374 0)
(0.000259163 -0.000507016 0)
(0.000243221 -0.000519277 0)
(0.000227015 -0.000532784 0)
(0.000213128 -0.000544186 0)
(0.000198324 -0.000556522 0)
(0.0001845 -0.000567143 0)
(0.000169311 -0.000578396 0)
(0.000153948 -0.000588265 0)
(0.000136485 -0.000598469 0)
(0.000117922 -0.00060746 0)
(0.000382517 -0.000396035 0)
(0.00035869 -0.000412182 0)
(0.000334079 -0.000430623 0)
(0.000313699 -0.000445862 0)
(0.000292709 -0.000462479 0)
(0.00027349 -0.000476629 0)
(0.000253137 -0.000491457 0)
(0.00023263 -0.000504575 0)
(0.000209686 -0.000517962 0)
(0.000185083 -0.000530269 0)
(0.000521002 -0.000284595 0)
(0.000489529 -0.000302473 0)
(0.000457341 -0.000323262 0)
(0.000429505 -0.000341361 0)
(0.000402446 -0.000360712 0)
(0.00037723 -0.000378098 0)
(0.000352009 -0.00039565 0)
(0.000326753 -0.000411887 0)
(0.000299598 -0.000427932 0)
(0.000270694 -0.000443545 0)
)
;

boundaryField
{
    back
    {
        type            empty;
    }
    left
    {
        type            symmetry;
    }
    hole
    {
        type            calculated;
        value           nonuniform List<vector> 10((8.53222e-05 -0.000558776 1.66967e-21) (0.000251626 -0.000534223 -1.81615e-23) (0.000409274 -0.000487602 -6.07981e-21) (0.00055056 -0.000431621 5.13149e-21) (0.000677755 -0.000363749 2.26348e-22) (0.00077971 -0.000300608 3.35797e-21) (0.000870811 -0.000232425 2.36134e-21) (0.000935635 -0.000164818 -1.59266e-21) (0.000981375 -9.86647e-05 -4.85617e-21) (0.00100362 -3.25466e-05 3.05799e-22));
    }
    front
    {
        type            empty;
    }
    down
    {
        type            symmetry;
    }
    right
    {
        type            calculated;
        value           nonuniform List<vector> 
15
(
(0.00142506 -1.3689e-06 2.81864e-21)
(0.00141974 -5.43928e-06 4.46896e-21)
(0.00141005 -1.0498e-05 1.49378e-21)
(0.00139604 -1.87278e-05 2.28094e-21)
(0.00138016 -2.97007e-05 -1.04593e-21)
(0.00136729 -4.02654e-05 -4.69746e-21)
(0.00135986 -4.75974e-05 3.46539e-21)
(0.00135194 -5.55258e-05 1.82522e-21)
(0.00134468 -6.44264e-05 -7.97511e-23)
(0.00133757 -7.36494e-05 0)
(0.00133102 -8.35816e-05 3.3339e-21)
(0.00132504 -9.36211e-05 1.38277e-21)
(0.00131937 -0.000104043 -3.79985e-21)
(0.00131441 -0.000114765 -1.68503e-21)
(0.00130996 -0.000125147 0)
)
;
    }
    up
    {
        type            calculated;
        value           nonuniform List<vector> 
15
(
(0.00036217 -0.000364904 1.15884e-21)
(0.000498203 -0.000286124 -1.30194e-21)
(0.000627946 -0.000233971 -9.12457e-22)
(0.000749325 -0.000199831 -1.14534e-21)
(0.000859574 -0.000181715 -1.14147e-21)
(0.000957766 -0.000170955 -8.23951e-22)
(0.00104704 -0.00016501 -9.36176e-22)
(0.00112659 -0.000158849 1.40759e-21)
(0.00120127 -0.000149974 7.41747e-22)
(0.0012721 -0.000136866 0)
(1.77819e-05 -0.000711884 -8.45754e-22)
(5.30435e-05 -0.000676386 -4.20651e-22)
(0.000107565 -0.000611276 3.17899e-22)
(0.000171195 -0.000535709 1.18986e-21)
(0.000254448 -0.000451065 3.06423e-25)
)
;
    }
}


// ************************************************************************* //
