/*--------------------------------*- C++ -*----------------------------------*\
| =========                 |                                                 |
| \\      /  F ield         | OpenFOAM: The Open Source CFD Toolbox           |
|  \\    /   O peration     | Version:  v2012                                 |
|   \\  /    A nd           | Website:  www.openfoam.com                      |
|    \\/     M anipulation  |                                                 |
\*---------------------------------------------------------------------------*/
FoamFile
{
    version     2.0;
    format      ascii;
    class       pointVectorField;
    location    "16";
    object      pointD;
}
// * * * * * * * * * * * * * * * * * * * * * * * * * * * * * * * * * * * * * //

dimensions      [0 1 0 0 0 0 0];


internalField   nonuniform List<vector> 
572
(
(0.00180843 0 0)
(0.00236864 0 0)
(0.00217358 -0.000160393 0)
(0 -0.00142651 0)
(0 -0.000371737 0)
(0.00184971 0 0)
(0 -0.00133282 0)
(0.00124981 -0.00031613 0)
(0.000573051 -0.000631887 0)
(0.00227673 -3.62665e-05 0)
(0.0014731 -0.000530777 0)
(0.0014731 -0.000530777 0)
(0.00124981 -0.00031613 0)
(0 -0.00133282 0)
(0 -0.000371737 0)
(0.00180843 0 0)
(0.00184971 0 0)
(0.00236864 0 0)
(0.00227673 -3.62665e-05 0)
(0.00217358 -0.000160393 0)
(0.000573051 -0.000631887 0)
(0 -0.00142651 0)
(0.000267512 -0.00119685 0)
(0.000524974 -0.000945521 0)
(0.000777392 -0.000700873 0)
(0.00101864 -0.000492684 0)
(0.00143964 -0.000214361 0)
(0.00160755 -0.000133516 0)
(0.00173987 -7.46552e-05 0)
(0.00182446 -3.35724e-05 0)
(0.00182254 0 0)
(0.00183127 0 0)
(0.00183761 0 0)
(0.00184335 0 0)
(0.00187628 0 0)
(0.00190281 0 0)
(0.00193594 0 0)
(0.00197758 0 0)
(0.00202779 0 0)
(0.00208583 0 0)
(0.00215054 0 0)
(0.00222045 0 0)
(0.00229384 0 0)
(0.00236217 -9.22869e-08 0)
(0.00234924 -2.51945e-06 0)
(0.0023296 -8.60627e-06 0)
(0.00230475 -1.96127e-05 0)
(0.00226466 -4.5289e-05 0)
(0.00225253 -5.53605e-05 0)
(0.00224061 -6.64182e-05 0)
(0.00222912 -7.83694e-05 0)
(0.00221822 -9.10922e-05 0)
(0.00220801 -0.000104438 0)
(0.00219852 -0.000118236 0)
(0.00218973 -0.000132294 0)
(0.0021815 -0.000146412 0)
(0.00207151 -0.000185261 0)
(0.00196697 -0.000202963 0)
(0.00185436 -0.000214154 0)
(0.00172913 -0.000222543 0)
(0.00158754 -0.000233615 0)
(0.00142647 -0.000254363 0)
(0.00124355 -0.000293441 0)
(0.00103788 -0.000361322 0)
(0.000811582 -0.000470043 0)
(0.000399675 -0.000788719 0)
(0.000242281 -0.000972706 0)
(0.000115487 -0.00116866 0)
(3.46911e-05 -0.00134075 0)
(0 -0.00141953 0)
(0 -0.0014114 0)
(0 -0.00140271 0)
(0 -0.00139384 0)
(0 -0.00138497 0)
(0 -0.00137611 0)
(0 -0.00136713 0)
(0 -0.00135769 0)
(0 -0.00134744 0)
(0 -0.0012753 0)
(0 -0.00116983 0)
(0 -0.000988097 0)
(0 -0.000718326 0)
(0.00136669 -0.000203574 0)
(0.00147795 -0.000128922 0)
(0.00158488 -8.75204e-05 0)
(0.00168836 -6.97558e-05 0)
(0.00178953 -6.63314e-05 0)
(0.00188932 -6.95339e-05 0)
(0.00198814 -7.32038e-05 0)
(0.00208592 -7.22171e-05 0)
(0.00218222 -6.17403e-05 0)
(0.0011675 -0.000347277 0)
(0.0010893 -0.000379301 0)
(0.00101504 -0.000411678 0)
(0.0009446 -0.000444035 0)
(0.000877689 -0.000476084 0)
(0.000813775 -0.000507631 0)
(0.000752105 -0.000538643 0)
(0.000691828 -0.000569311 0)
(0.00063221 -0.000600112 0)
(0.00054933 -0.000540072 0)
(0.000975482 -0.000729214 0)
(0.00121407 -0.000786656 0)
(0.00134587 -0.000659611 0)
(0.00158102 -0.000413349 0)
(0.00167072 -0.000304276 0)
(0.00173914 -0.000200621 0)
(0.00178396 -0.0001002 0)
(0.00140881 -0.000466285 0)
(0.00135651 -0.000416855 0)
(0.00131371 -0.000377639 0)
(0.00127877 -0.000345139 0)
(0.00140881 -0.000466285 0)
(0.00135651 -0.000416855 0)
(0.00131371 -0.000377639 0)
(0.00127877 -0.000345139 0)
(0.00101864 -0.000492684 0)
(0.000777392 -0.000700873 0)
(0.000524974 -0.000945521 0)
(0.000267512 -0.00119685 0)
(0 -0.0012753 0)
(0 -0.00116983 0)
(0 -0.000988097 0)
(0 -0.000718326 0)
(0.00054933 -0.000540072 0)
(0.000975482 -0.000729214 0)
(0.00121407 -0.000786656 0)
(0.00134587 -0.000659611 0)
(0.00158102 -0.000413349 0)
(0.00167072 -0.000304276 0)
(0.00173914 -0.000200621 0)
(0.00178396 -0.0001002 0)
(0.00182254 0 0)
(0.00183127 0 0)
(0.00183761 0 0)
(0.00184335 0 0)
(0.00182446 -3.35724e-05 0)
(0.00173987 -7.46552e-05 0)
(0.00160755 -0.000133516 0)
(0.00143964 -0.000214361 0)
(0.00187628 0 0)
(0.00190281 0 0)
(0.00193594 0 0)
(0.00197758 0 0)
(0.00202779 0 0)
(0.00208583 0 0)
(0.00215054 0 0)
(0.00222045 0 0)
(0.00229384 0 0)
(0.00236217 -9.22869e-08 0)
(0.00234924 -2.51945e-06 0)
(0.0023296 -8.60627e-06 0)
(0.00230475 -1.96127e-05 0)
(0.00218222 -6.17403e-05 0)
(0.00208592 -7.22171e-05 0)
(0.00198814 -7.32038e-05 0)
(0.00188932 -6.95339e-05 0)
(0.00178953 -6.63314e-05 0)
(0.00168836 -6.97558e-05 0)
(0.00158488 -8.75204e-05 0)
(0.00147795 -0.000128922 0)
(0.00136669 -0.000203574 0)
(0.00226466 -4.5289e-05 0)
(0.00225253 -5.53605e-05 0)
(0.00224061 -6.64182e-05 0)
(0.00222912 -7.83694e-05 0)
(0.00221822 -9.10922e-05 0)
(0.00220801 -0.000104438 0)
(0.00219852 -0.000118236 0)
(0.00218973 -0.000132294 0)
(0.0021815 -0.000146412 0)
(0.00207151 -0.000185261 0)
(0.00196697 -0.000202963 0)
(0.00185436 -0.000214154 0)
(0.00172913 -0.000222543 0)
(0.00158754 -0.000233615 0)
(0.00142647 -0.000254363 0)
(0.00124355 -0.000293441 0)
(0.00103788 -0.000361322 0)
(0.000811582 -0.000470043 0)
(0.00063221 -0.000600112 0)
(0.000691828 -0.000569311 0)
(0.000752105 -0.000538643 0)
(0.000813775 -0.000507631 0)
(0.000877689 -0.000476084 0)
(0.0009446 -0.000444035 0)
(0.00101504 -0.000411678 0)
(0.0010893 -0.000379301 0)
(0.0011675 -0.000347277 0)
(0.000399675 -0.000788719 0)
(0.000242281 -0.000972706 0)
(0.000115487 -0.00116866 0)
(3.46911e-05 -0.00134075 0)
(0 -0.00141953 0)
(0 -0.0014114 0)
(0 -0.00140271 0)
(0 -0.00139384 0)
(0 -0.00138497 0)
(0 -0.00137611 0)
(0 -0.00136713 0)
(0 -0.00135769 0)
(0 -0.00134744 0)
(0.000543587 -0.000831049 0)
(0.000484575 -0.00101502 0)
(0.000400035 -0.00111288 0)
(0.000324606 -0.00116617 0)
(0.000912242 -0.000874337 0)
(0.000794424 -0.000909431 0)
(0.000683824 -0.000923112 0)
(0.000594364 -0.000934857 0)
(0.00109879 -0.000757056 0)
(0.000996881 -0.000733014 0)
(0.00090996 -0.000717356 0)
(0.000837333 -0.000707442 0)
(0.00125701 -0.00060675 0)
(0.00118164 -0.0005666 0)
(0.0011179 -0.000536063 0)
(0.00106416 -0.00051227 0)
(0.00154097 -0.000346988 0)
(0.00150774 -0.000297533 0)
(0.00148014 -0.000260194 0)
(0.00145747 -0.000232481 0)
(0.0016539 -0.000244359 0)
(0.00163868 -0.000201181 0)
(0.00162562 -0.00017007 0)
(0.0016151 -0.00014826 0)
(0.00174185 -0.000154587 0)
(0.0017415 -0.000122417 0)
(0.00174018 -0.000100097 0)
(0.00173935 -8.47979e-05 0)
(0.00179966 -7.34065e-05 0)
(0.00180823 -5.65617e-05 0)
(0.00181387 -4.52494e-05 0)
(0.00181884 -3.77862e-05 0)
(0.00185114 -1.32645e-05 0)
(0.00178099 -3.49627e-05 0)
(0.00167088 -7.18303e-05 0)
(0.00152922 -0.00012784 0)
(0.00188203 -5.46402e-06 0)
(0.00182512 -1.71888e-05 0)
(0.00173482 -3.97928e-05 0)
(0.00161662 -7.65976e-05 0)
(0.00191941 -3.71614e-06 0)
(0.00187327 -1.1607e-05 0)
(0.00179942 -2.67396e-05 0)
(0.00170161 -5.15927e-05 0)
(0.00196443 -4.82163e-06 0)
(0.00192673 -1.23678e-05 0)
(0.00186609 -2.46549e-05 0)
(0.00178541 -4.34157e-05 0)
(0.00201725 -7.00159e-06 0)
(0.00198615 -1.58581e-05 0)
(0.00193605 -2.79525e-05 0)
(0.00186949 -4.44982e-05 0)
(0.00207731 -9.15977e-06 0)
(0.00205144 -1.97146e-05 0)
(0.0020098 -3.27248e-05 0)
(0.0019548 -4.91145e-05 0)
(0.00214361 -1.05144e-05 0)
(0.00212194 -2.22086e-05 0)
(0.00208714 -3.60488e-05 0)
(0.00204161 -5.28623e-05 0)
(0.00221475 -1.03567e-05 0)
(0.00219644 -2.17653e-05 0)
(0.00216725 -3.53442e-05 0)
(0.0021295 -5.19985e-05 0)
(0.00228875 -7.74492e-06 0)
(0.00227305 -1.63197e-05 0)
(0.00224869 -2.76512e-05 0)
(0.00221758 -4.26462e-05 0)
(0.00130413 -0.000225134 0)
(0.00124127 -0.000248558 0)
(0.00117951 -0.000273403 0)
(0.0011196 -0.000299287 0)
(0.00106193 -0.000325922 0)
(0.00100667 -0.000353145 0)
(0.000953908 -0.000380938 0)
(0.000903693 -0.000409454 0)
(0.000856169 -0.000439011 0)
(0.00142751 -0.000146472 0)
(0.00137677 -0.000165467 0)
(0.00132654 -0.000185824 0)
(0.0012775 -0.000207425 0)
(0.00123022 -0.000230165 0)
(0.00118521 -0.000253987 0)
(0.00114295 -0.000278898 0)
(0.00110392 -0.000304976 0)
(0.00106867 -0.000332376 0)
(0.00154383 -0.000102485 0)
(0.0015028 -0.000118735 0)
(0.00146232 -0.000136268 0)
(0.00142297 -0.000155061 0)
(0.00138532 -0.000175084 0)
(0.00134995 -0.000196315 0)
(0.00131745 -0.000218747 0)
(0.00128843 -0.000242392 0)
(0.00126356 -0.000267278 0)
(0.00165514 -8.29972e-05 0)
(0.0016221 -9.74448e-05 0)
(0.00158971 -0.000113099 0)
(0.00155847 -0.000129948 0)
(0.00152892 -0.000147969 0)
(0.0015016 -0.000167134 0)
(0.00147708 -0.000187406 0)
(0.00145596 -0.00020874 0)
(0.00143887 -0.000231082 0)
(0.00176272 -7.84788e-05 0)
(0.00173614 -9.17286e-05 0)
(0.00171023 -0.000106073 0)
(0.00168544 -0.000121493 0)
(0.00166223 -0.000137955 0)
(0.00164108 -0.000155412 0)
(0.0016225 -0.000173801 0)
(0.00160702 -0.000193037 0)
(0.00159518 -0.000213018 0)
(0.00186749 -8.09634e-05 0)
(0.0018459 -9.33625e-05 0)
(0.00182494 -0.00010672 0)
(0.00180497 -0.00012101 0)
(0.00178641 -0.000136192 0)
(0.00176965 -0.000152204 0)
(0.00175511 -0.000168966 0)
(0.00174321 -0.00018637 0)
(0.0017344 -0.000204283 0)
(0.00196997 -8.40358e-05 0)
(0.00195202 -9.57097e-05 0)
(0.00193461 -0.000108215 0)
(0.00191806 -0.000121526 0)
(0.00190269 -0.000135599 0)
(0.00188881 -0.000150367 0)
(0.00187673 -0.000165741 0)
(0.00186675 -0.000181604 0)
(0.00185918 -0.000197804 0)
(0.00207028 -8.2384e-05 0)
(0.00205484 -9.33198e-05 0)
(0.00203988 -0.000105014 0)
(0.00202563 -0.000117436 0)
(0.00201234 -0.000130537 0)
(0.00200021 -0.000144251 0)
(0.00198946 -0.000158488 0)
(0.00198024 -0.00017313 0)
(0.0019727 -0.000188022 0)
(0.00216835 -7.11655e-05 0)
(0.00215469 -8.14253e-05 0)
(0.00214141 -9.24655e-05 0)
(0.00212871 -0.000104232 0)
(0.00211677 -0.000116661 0)
(0.00210574 -0.000129673 0)
(0.0020957 -0.000143173 0)
(0.00208671 -0.000157041 0)
(0.0020787 -0.000171132 0)
(0.000234088 -0.00121708 0)
(0.000207272 -0.00123588 0)
(0.000183628 -0.00125284 0)
(0.000163142 -0.00126882 0)
(0.000144482 -0.00128384 0)
(0.000126442 -0.00129789 0)
(0.000107856 -0.00131088 0)
(8.74673e-05 -0.00132262 0)
(6.37585e-05 -0.00133276 0)
(0.000473225 -0.000973696 0)
(0.000427289 -0.00100129 0)
(0.000385746 -0.00102759 0)
(0.000347416 -0.00105234 0)
(0.000311612 -0.00107569 0)
(0.000276865 -0.0010975 0)
(0.000241626 -0.00111767 0)
(0.000204228 -0.00113621 0)
(0.000162843 -0.00115315 0)
(0.000713794 -0.000731041 0)
(0.000654402 -0.000761448 0)
(0.00059903 -0.000791619 0)
(0.000547194 -0.000821138 0)
(0.000497991 -0.000849614 0)
(0.000450231 -0.000876779 0)
(0.000402488 -0.000902513 0)
(0.000353137 -0.000926871 0)
(0.000300383 -0.000950107 0)
(0.000945759 -0.000522421 0)
(0.000876651 -0.00055313 0)
(0.000811243 -0.000584312 0)
(0.000749275 -0.000615478 0)
(0.000690191 -0.000646185 0)
(0.000633126 -0.000676101 0)
(0.000576948 -0.000705072 0)
(0.000520326 -0.000733185 0)
(0.000461779 -0.000760822 0)
(0.000543587 -0.000831049 0)
(0.000484575 -0.00101502 0)
(0.000400035 -0.00111288 0)
(0.000324606 -0.00116617 0)
(0.000912242 -0.000874337 0)
(0.000794424 -0.000909431 0)
(0.000683824 -0.000923112 0)
(0.000594364 -0.000934857 0)
(0.00109879 -0.000757056 0)
(0.000996881 -0.000733014 0)
(0.00090996 -0.000717356 0)
(0.000837333 -0.000707442 0)
(0.00125701 -0.00060675 0)
(0.00118164 -0.0005666 0)
(0.0011179 -0.000536063 0)
(0.00106416 -0.00051227 0)
(0.00154097 -0.000346988 0)
(0.00150774 -0.000297533 0)
(0.00148014 -0.000260194 0)
(0.00145747 -0.000232481 0)
(0.0016539 -0.000244359 0)
(0.00163868 -0.000201181 0)
(0.00162562 -0.00017007 0)
(0.0016151 -0.00014826 0)
(0.00174185 -0.000154587 0)
(0.0017415 -0.000122417 0)
(0.00174018 -0.000100097 0)
(0.00173935 -8.47979e-05 0)
(0.00179966 -7.34065e-05 0)
(0.00180823 -5.65617e-05 0)
(0.00181387 -4.52494e-05 0)
(0.00181884 -3.77862e-05 0)
(0.00185114 -1.32645e-05 0)
(0.00178099 -3.49627e-05 0)
(0.00167088 -7.18303e-05 0)
(0.00152922 -0.00012784 0)
(0.00188203 -5.46402e-06 0)
(0.00182512 -1.71888e-05 0)
(0.00173482 -3.97928e-05 0)
(0.00161662 -7.65976e-05 0)
(0.00191941 -3.71614e-06 0)
(0.00187327 -1.1607e-05 0)
(0.00179942 -2.67396e-05 0)
(0.00170161 -5.15927e-05 0)
(0.00196443 -4.82163e-06 0)
(0.00192673 -1.23678e-05 0)
(0.00186609 -2.46549e-05 0)
(0.00178541 -4.34157e-05 0)
(0.00201725 -7.00159e-06 0)
(0.00198615 -1.58581e-05 0)
(0.00193605 -2.79525e-05 0)
(0.00186949 -4.44982e-05 0)
(0.00207731 -9.15977e-06 0)
(0.00205144 -1.97146e-05 0)
(0.0020098 -3.27248e-05 0)
(0.0019548 -4.91145e-05 0)
(0.00214361 -1.05144e-05 0)
(0.00212194 -2.22086e-05 0)
(0.00208714 -3.60488e-05 0)
(0.00204161 -5.28623e-05 0)
(0.00221475 -1.03567e-05 0)
(0.00219644 -2.17653e-05 0)
(0.00216725 -3.53442e-05 0)
(0.0021295 -5.19985e-05 0)
(0.00228875 -7.74492e-06 0)
(0.00227305 -1.63197e-05 0)
(0.00224869 -2.76512e-05 0)
(0.00221758 -4.26462e-05 0)
(0.00130413 -0.000225134 0)
(0.00124127 -0.000248558 0)
(0.00117951 -0.000273403 0)
(0.0011196 -0.000299287 0)
(0.00106193 -0.000325922 0)
(0.00100667 -0.000353145 0)
(0.000953908 -0.000380938 0)
(0.000903693 -0.000409454 0)
(0.000856169 -0.000439011 0)
(0.00142751 -0.000146472 0)
(0.00137677 -0.000165467 0)
(0.00132654 -0.000185824 0)
(0.0012775 -0.000207425 0)
(0.00123022 -0.000230165 0)
(0.00118521 -0.000253987 0)
(0.00114295 -0.000278898 0)
(0.00110392 -0.000304976 0)
(0.00106867 -0.000332376 0)
(0.00154383 -0.000102485 0)
(0.0015028 -0.000118735 0)
(0.00146232 -0.000136268 0)
(0.00142297 -0.000155061 0)
(0.00138532 -0.000175084 0)
(0.00134995 -0.000196315 0)
(0.00131745 -0.000218747 0)
(0.00128843 -0.000242392 0)
(0.00126356 -0.000267278 0)
(0.00165514 -8.29972e-05 0)
(0.0016221 -9.74448e-05 0)
(0.00158971 -0.000113099 0)
(0.00155847 -0.000129948 0)
(0.00152892 -0.000147969 0)
(0.0015016 -0.000167134 0)
(0.00147708 -0.000187406 0)
(0.00145596 -0.00020874 0)
(0.00143887 -0.000231082 0)
(0.00176272 -7.84788e-05 0)
(0.00173614 -9.17286e-05 0)
(0.00171023 -0.000106073 0)
(0.00168544 -0.000121493 0)
(0.00166223 -0.000137955 0)
(0.00164108 -0.000155412 0)
(0.0016225 -0.000173801 0)
(0.00160702 -0.000193037 0)
(0.00159518 -0.000213018 0)
(0.00186749 -8.09634e-05 0)
(0.0018459 -9.33625e-05 0)
(0.00182494 -0.00010672 0)
(0.00180497 -0.00012101 0)
(0.00178641 -0.000136192 0)
(0.00176965 -0.000152204 0)
(0.00175511 -0.000168966 0)
(0.00174321 -0.00018637 0)
(0.0017344 -0.000204283 0)
(0.00196997 -8.40358e-05 0)
(0.00195202 -9.57097e-05 0)
(0.00193461 -0.000108215 0)
(0.00191806 -0.000121526 0)
(0.00190269 -0.000135599 0)
(0.00188881 -0.000150367 0)
(0.00187673 -0.000165741 0)
(0.00186675 -0.000181604 0)
(0.00185918 -0.000197804 0)
(0.00207028 -8.2384e-05 0)
(0.00205484 -9.33198e-05 0)
(0.00203988 -0.000105014 0)
(0.00202563 -0.000117436 0)
(0.00201234 -0.000130537 0)
(0.00200021 -0.000144251 0)
(0.00198946 -0.000158488 0)
(0.00198024 -0.00017313 0)
(0.0019727 -0.000188022 0)
(0.00216835 -7.11655e-05 0)
(0.00215469 -8.14253e-05 0)
(0.00214141 -9.24655e-05 0)
(0.00212871 -0.000104232 0)
(0.00211677 -0.000116661 0)
(0.00210574 -0.000129673 0)
(0.0020957 -0.000143173 0)
(0.00208671 -0.000157041 0)
(0.0020787 -0.000171132 0)
(0.000234088 -0.00121708 0)
(0.000207272 -0.00123588 0)
(0.000183628 -0.00125284 0)
(0.000163142 -0.00126882 0)
(0.000144482 -0.00128384 0)
(0.000126442 -0.00129789 0)
(0.000107856 -0.00131088 0)
(8.74673e-05 -0.00132262 0)
(6.37585e-05 -0.00133276 0)
(0.000473225 -0.000973696 0)
(0.000427289 -0.00100129 0)
(0.000385746 -0.00102759 0)
(0.000347416 -0.00105234 0)
(0.000311612 -0.00107569 0)
(0.000276865 -0.0010975 0)
(0.000241626 -0.00111767 0)
(0.000204228 -0.00113621 0)
(0.000162843 -0.00115315 0)
(0.000713794 -0.000731041 0)
(0.000654402 -0.000761448 0)
(0.00059903 -0.000791619 0)
(0.000547194 -0.000821138 0)
(0.000497991 -0.000849614 0)
(0.000450231 -0.000876779 0)
(0.000402488 -0.000902513 0)
(0.000353137 -0.000926871 0)
(0.000300383 -0.000950107 0)
(0.000945759 -0.000522421 0)
(0.000876651 -0.00055313 0)
(0.000811243 -0.000584312 0)
(0.000749275 -0.000615478 0)
(0.000690191 -0.000646185 0)
(0.000633126 -0.000676101 0)
(0.000576948 -0.000705072 0)
(0.000520326 -0.000733185 0)
(0.000461779 -0.000760822 0)
)
;

boundaryField
{
    back
    {
        type            empty;
    }
    front
    {
        type            empty;
    }
    left
    {
        type            pointFixedDisplacementZeroShear;
    }
    hole
    {
        type            pointSolidTraction;
        traction        uniform (0 0 0);
        pressure        uniform 0;
    }
    down
    {
        type            pointFixedDisplacementZeroShear;
    }
    right
    {
        type            pointSolidTraction;
        tractionSeries  
{
        fileName        "$FOAM_CASE/constant/timeVsTraction";
        outOfBounds     clamp;
}
        pressure        uniform 0;
    }
    up
    {
        type            pointSolidTraction;
        traction        uniform (0 0 0);
        pressure        uniform 0;
    }
}


// ************************************************************************* //
