/*--------------------------------*- C++ -*----------------------------------*\
| =========                 |                                                 |
| \\      /  F ield         | OpenFOAM: The Open Source CFD Toolbox           |
|  \\    /   O peration     | Version:  v2012                                 |
|   \\  /    A nd           | Website:  www.openfoam.com                      |
|    \\/     M anipulation  |                                                 |
\*---------------------------------------------------------------------------*/
FoamFile
{
    version     2.0;
    format      ascii;
    class       volSymmTensorField;
    location    "14";
    object      sigma;
}
// * * * * * * * * * * * * * * * * * * * * * * * * * * * * * * * * * * * * * //

dimensions      [1 -1 -2 0 0 0 0];


internalField   nonuniform List<symmTensor> 
2000
(
(9.91574e+07 -6.11375e+06 -5.17778e-09 3.35714e+06 -9.04963e-10 8.67801e+07)
(1.06539e+08 -6.76189e+06 6.3063e-09 5.45358e+06 -3.3181e-08 8.80301e+07)
(1.31568e+08 -3.43841e+06 -9.54854e-09 3.85031e+06 -6.35761e-09 9.98676e+07)
(1.31114e+08 -7.80771e+06 -5.83884e-09 1.24483e+07 2.02069e-08 1.03946e+08)
(1.53128e+08 -1.57433e+06 1.11553e-08 1.03091e+07 4.20062e-09 1.14143e+08)
(1.54877e+08 -1.00403e+07 2.66705e-09 1.92811e+07 -1.41878e-08 1.15671e+08)
(1.72894e+08 -2.59069e+06 -8.58932e-09 2.02332e+07 9.17754e-09 1.22677e+08)
(1.74964e+08 -1.21055e+07 -2.08802e-08 2.74701e+07 -1.58236e-08 1.24782e+08)
(1.90496e+08 -4.5004e+06 -4.19314e-08 3.11251e+07 -1.66917e-08 1.27835e+08)
(1.9116e+08 -1.29776e+07 -4.37175e-09 3.67638e+07 2.22077e-08 1.29316e+08)
(2.05226e+08 -5.99554e+06 0 4.1572e+07 0 1.2762e+08)
(2.03478e+08 -1.21518e+07 0 4.60176e+07 0 1.2677e+08)
(2.16376e+08 -6.23684e+06 -1.42447e-08 5.03568e+07 3.48516e-09 1.20835e+08)
(2.11738e+08 -9.48319e+06 -2.65204e-08 5.37243e+07 -1.05009e-08 1.17738e+08)
(2.23962e+08 -4.96018e+06 -1.40824e-08 5.65754e+07 -6.89367e-09 1.09037e+08)
(2.16723e+08 -5.31094e+06 2.33909e-08 5.85695e+07 1.17378e-08 1.05588e+08)
(2.29251e+08 -2.36237e+06 0 5.9847e+07 0 9.53538e+07)
(2.2056e+08 -487819 0 5.98501e+07 0 9.27757e+07)
(2.29457e+08 1.70221e+06 0 6.02152e+07 0 8.3687e+07)
(2.19999e+08 4.46873e+06 -1.31261e-08 5.7052e+07 -6.22849e-09 8.14352e+07)
(9.33808e+07 -7.26398e+06 0 3.40882e+06 0 8.93218e+07)
(1.06351e+08 -1.72597e+07 -3.88542e-09 6.17969e+06 3.96539e-09 8.50863e+07)
(1.26758e+08 -1.42122e+07 -4.55024e-09 1.01148e+07 9.24986e-09 9.23878e+07)
(1.3168e+08 -2.18012e+07 1.89065e-09 1.5258e+07 -3.16352e-09 1.01171e+08)
(1.52717e+08 -1.8647e+07 4.68361e-09 1.7817e+07 -1.4225e-08 1.06621e+08)
(1.54529e+08 -2.53451e+07 4.30844e-09 2.46645e+07 -1.60846e-08 1.13094e+08)
(1.7375e+08 -2.22001e+07 -1.10235e-08 2.68776e+07 2.14521e-08 1.15318e+08)
(1.72535e+08 -2.68318e+07 -2.16812e-08 3.31304e+07 -3.50018e-09 1.18292e+08)
(1.90283e+08 -2.43389e+07 -6.39911e-08 3.57344e+07 -2.53605e-08 1.17433e+08)
(1.85273e+08 -2.54596e+07 -3.83799e-08 3.9631e+07 2.76628e-09 1.16549e+08)
(2.02336e+08 -2.38583e+07 -1.89332e-08 4.19389e+07 -1.24416e-08 1.13352e+08)
(1.93217e+08 -2.09326e+07 6.51777e-09 4.34494e+07 4.80389e-09 1.093e+08)
(2.10262e+08 -2.01963e+07 3.3779e-08 4.42733e+07 2.26579e-08 1.05323e+08)
(1.97519e+08 -1.38239e+07 -6.18447e-09 4.44474e+07 2.64087e-09 9.98541e+07)
(2.15032e+08 -1.37964e+07 -4.65777e-08 4.32509e+07 -3.44954e-08 9.62196e+07)
(1.99794e+08 -5.19699e+06 -2.35949e-08 4.29421e+07 -2.98159e-08 9.10807e+07)
(2.17731e+08 -5.55048e+06 1.52093e-08 4.02102e+07 1.45578e-08 8.78837e+07)
(2.01554e+08 4.22121e+06 3.02291e-08 3.91377e+07 2.43356e-08 8.34703e+07)
(2.17412e+08 3.93512e+06 4.93018e-08 3.64967e+07 3.43256e-08 7.91309e+07)
(2.00968e+08 1.34895e+07 3.88852e-08 3.34421e+07 3.51649e-08 7.44552e+07)
(9.77295e+07 -1.70987e+07 -5.90021e-09 2.82173e+06 6.47125e-09 9.12981e+07)
(1.07616e+08 -2.58021e+07 -2.15833e-09 1.18963e+07 2.70596e-08 8.59807e+07)
(1.2801e+08 -2.60504e+07 3.57037e-09 1.28396e+07 -9.84958e-09 9.4358e+07)
(1.31826e+08 -3.21741e+07 -1.78312e-09 1.99642e+07 3.4585e-09 9.95372e+07)
(1.52771e+08 -3.29037e+07 -9.19953e-11 2.52577e+07 8.11338e-09 1.01164e+08)
(1.51712e+08 -3.57088e+07 -1.24068e-08 2.67365e+07 -1.9372e-08 1.05183e+08)
(1.71595e+08 -3.68782e+07 -3.29281e-08 3.55359e+07 -2.08126e-09 9.87585e+07)
(1.64985e+08 -3.48249e+07 -2.21805e-08 3.05302e+07 6.49284e-09 1.01206e+08)
(1.83912e+08 -3.58625e+07 0 3.99401e+07 0 9.17475e+07)
(1.72707e+08 -2.97128e+07 0 3.07673e+07 0 9.29313e+07)
(1.90565e+08 -3.02799e+07 -1.60125e-08 3.72008e+07 -1.10636e-08 8.57394e+07)
(1.76924e+08 -2.17635e+07 -6.4639e-08 2.81729e+07 -3.61366e-08 8.50426e+07)
(1.93496e+08 -2.19572e+07 -6.71936e-08 3.0646e+07 -4.19719e-08 8.18296e+07)
(1.79422e+08 -1.26384e+07 7.66963e-10 2.40751e+07 -1.75927e-08 7.89584e+07)
(1.94613e+08 -1.26529e+07 4.10214e-08 2.35618e+07 3.74856e-08 7.91764e+07)
(1.81184e+08 -3.42221e+06 3.25004e-08 1.96136e+07 2.87809e-08 7.45904e+07)
(1.95075e+08 -3.58126e+06 2.18661e-08 1.73263e+07 9.12738e-09 7.68891e+07)
(1.8264e+08 5.52787e+06 -8.89356e-09 1.55543e+07 -4.08727e-09 7.07479e+07)
(1.94805e+08 5.07341e+06 -7.88301e-09 1.23221e+07 1.52975e-09 7.26983e+07)
(1.826e+08 1.39921e+07 4.7769e-08 1.22437e+07 4.66814e-08 6.62212e+07)
(1.00492e+08 -2.91779e+07 1.99466e-08 1.03154e+07 -2.01795e-08 8.93884e+07)
(1.11431e+08 -3.45662e+07 1.42439e-08 1.35768e+07 -4.31197e-08 8.34272e+07)
(1.2811e+08 -4.22218e+07 -4.83096e-09 2.4851e+07 2.18173e-08 8.06369e+07)
(1.29949e+08 -4.00584e+07 -8.23013e-09 1.9826e+07 8.82336e-09 8.53789e+07)
(1.49936e+08 -4.7507e+07 -6.79027e-09 3.46561e+07 -3.02049e-09 7.3341e+07)
(1.43915e+08 -4.02458e+07 7.63433e-09 2.15494e+07 3.18634e-09 7.84746e+07)
(1.62784e+08 -4.52786e+07 4.34168e-08 3.4976e+07 2.78174e-08 6.45159e+07)
(1.52262e+08 -3.56204e+07 3.98218e-08 1.88543e+07 3.73201e-08 6.86055e+07)
(1.69655e+08 -3.56351e+07 6.02071e-08 2.57987e+07 6.4292e-08 6.14264e+07)
(1.57086e+08 -2.83757e+07 3.29883e-08 1.37194e+07 5.56054e-08 6.29228e+07)
(1.72573e+08 -2.48496e+07 8.0359e-08 1.67699e+07 8.48412e-08 6.11097e+07)
(1.60311e+08 -2.04362e+07 2.98127e-08 8.1917e+06 4.11858e-08 6.06389e+07)
(1.73545e+08 -1.56422e+07 4.46689e-08 9.87136e+06 1.96297e-08 6.15845e+07)
(1.62474e+08 -1.2451e+07 4.66987e-08 3.2513e+06 3.35751e-08 5.98716e+07)
(1.74483e+08 -7.5569e+06 2.54496e-08 3.8811e+06 3.59634e-08 6.22693e+07)
(1.64046e+08 -4.69347e+06 3.76641e-08 -754310 5.04768e-08 5.99765e+07)
(1.75276e+08 -477886 2.48038e-08 -666257 9.88507e-09 6.27332e+07)
(1.65716e+08 2.39668e+06 5.64063e-09 -3.46913e+06 1.85667e-09 5.93236e+07)
(1.76137e+08 5.86632e+06 -3.7779e-08 -4.06132e+06 -3.21173e-08 6.16437e+07)
(1.66655e+08 8.69223e+06 -1.39408e-08 -4.69915e+06 -1.36575e-08 5.67931e+07)
(1.04997e+08 -4.35206e+07 -2.2932e-09 2.17759e+07 -1.62071e-09 7.13159e+07)
(1.14989e+08 -4.12516e+07 1.75763e-08 1.37017e+07 -1.43372e-09 6.64451e+07)
(1.23222e+08 -5.38826e+07 1.16406e-08 3.25903e+07 -6.02152e-09 5.48399e+07)
(1.27914e+08 -4.60625e+07 -3.02079e-08 1.88296e+07 -3.83798e-08 5.3433e+07)
(1.38219e+08 -5.15788e+07 -1.56259e-08 2.62028e+07 1.53829e-08 4.77679e+07)
(1.31263e+08 -4.01146e+07 8.54129e-09 1.5424e+07 3.25972e-08 4.89334e+07)
(1.42732e+08 -3.95898e+07 -1.1348e-08 1.37508e+07 -3.24667e-08 4.90413e+07)
(1.35354e+08 -3.17346e+07 -2.54916e-08 8.38993e+06 -3.01847e-08 4.59774e+07)
(1.48414e+08 -3.01029e+07 -6.03989e-08 5.57137e+06 -3.34083e-08 4.67551e+07)
(1.40477e+08 -2.41833e+07 1.3449e-08 1.29772e+06 -6.61043e-10 4.46037e+07)
(1.53923e+08 -2.15013e+07 -2.67598e-08 -927473 -3.53283e-08 4.4997e+07)
(1.44585e+08 -1.71852e+07 -6.58268e-08 -5.13895e+06 -3.41501e-08 4.47727e+07)
(1.56338e+08 -1.27483e+07 -6.18995e-08 -6.29586e+06 -4.70527e-08 4.61091e+07)
(1.48556e+08 -1.17406e+07 -1.54376e-08 -9.5717e+06 -2.90642e-08 4.45765e+07)
(1.5848e+08 -6.10698e+06 1.92674e-11 -9.56368e+06 1.10562e-08 4.68679e+07)
(1.50386e+08 -6.22502e+06 -2.85334e-08 -1.27947e+07 -6.23627e-09 4.59807e+07)
(1.5995e+08 -514909 -1.33533e-08 -1.23433e+07 -2.30917e-08 4.79694e+07)
(1.51813e+08 -947524 -7.35652e-09 -1.49866e+07 -3.15527e-08 4.65255e+07)
(1.61379e+08 4.25247e+06 2.71176e-08 -1.49129e+07 2.75079e-08 4.80353e+07)
(1.52737e+08 4.1381e+06 1.56663e-09 -1.65941e+07 1.01312e-08 4.59559e+07)
(1.07625e+08 -5.19337e+07 1.8792e-08 2.93295e+07 -1.03532e-08 4.34986e+07)
(1.11032e+08 -4.81361e+07 1.0877e-07 2.38941e+07 -1.56514e-09 3.9058e+07)
(1.12945e+08 -4.66937e+07 7.00901e-08 2.67856e+07 3.67208e-08 4.18396e+07)
(1.14887e+08 -4.09287e+07 -3.86147e-09 1.71967e+07 4.0381e-08 3.98008e+07)
(1.18636e+08 -4.01188e+07 -5.30243e-08 1.91734e+07 -4.43899e-08 3.94328e+07)
(1.18289e+08 -3.37424e+07 -5.05616e-08 8.73456e+06 -4.59114e-08 3.89468e+07)
(1.24061e+08 -3.26664e+07 -1.5606e-08 9.61857e+06 4.56987e-09 3.77252e+07)
(1.2152e+08 -2.66929e+07 5.89338e-08 1.18549e+06 2.97092e-08 3.7816e+07)
(1.29545e+08 -2.56909e+07 3.03223e-08 714091 2.92733e-08 3.71157e+07)
(1.25657e+08 -2.0046e+07 7.03182e-08 -5.41946e+06 6.25901e-08 3.68746e+07)
(1.35143e+08 -1.95554e+07 5.11393e-08 -6.78463e+06 4.56772e-08 3.66585e+07)
(1.29995e+08 -1.41196e+07 3.64824e-08 -1.07995e+07 4.69078e-08 3.61255e+07)
(1.4026e+08 -1.37638e+07 0 -1.31469e+07 0 3.6795e+07)
(1.34501e+08 -8.81996e+06 1.89296e-08 -1.58807e+07 1.55586e-08 3.56919e+07)
(1.44291e+08 -8.04436e+06 5.74753e-10 -1.83947e+07 1.32403e-08 3.72933e+07)
(1.38124e+08 -4.43571e+06 1.01452e-08 -2.01488e+07 1.44988e-08 3.56375e+07)
(1.47117e+08 -2.65e+06 2.80235e-08 -2.22921e+07 1.68164e-08 3.78428e+07)
(1.41015e+08 -931706 9.66555e-09 -2.33471e+07 1.69857e-09 3.59455e+07)
(1.48822e+08 1.89633e+06 6.62051e-08 -2.4589e+07 8.00734e-08 3.83485e+07)
(1.43094e+08 1.85849e+06 7.43345e-08 -2.52245e+07 8.81855e-08 3.6286e+07)
(9.48008e+07 -5.24584e+07 2.21225e-08 2.85278e+07 -1.50457e-08 3.68337e+07)
(9.63948e+07 -4.36888e+07 -4.08532e-08 2.20203e+07 -5.46551e-08 3.3936e+07)
(9.99774e+07 -4.1713e+07 2.6893e-08 2.15773e+07 1.65989e-08 3.60748e+07)
(1.00122e+08 -3.51617e+07 9.40948e-08 1.25755e+07 4.07362e-08 3.41952e+07)
(1.04787e+08 -3.29558e+07 5.43061e-08 1.20551e+07 4.57772e-08 3.42123e+07)
(1.03895e+08 -2.73282e+07 2.66321e-08 3.08065e+06 5.7669e-08 3.26581e+07)
(1.10036e+08 -2.59433e+07 -1.41828e-08 2.27352e+06 5.88477e-09 3.25666e+07)
(1.08115e+08 -2.09551e+07 -2.29497e-08 -5.22042e+06 -1.60225e-08 3.14086e+07)
(1.1551e+08 -2.03756e+07 -1.31966e-08 -6.40955e+06 -5.12305e-08 3.17601e+07)
(1.12662e+08 -1.56996e+07 -5.63203e-08 -1.20603e+07 -6.13302e-08 3.06511e+07)
(1.20723e+08 -1.57143e+07 -4.50155e-08 -1.36855e+07 -1.03153e-08 3.15898e+07)
(1.17245e+08 -1.12324e+07 0 -1.76663e+07 0 3.01798e+07)
(1.25467e+08 -1.16197e+07 -1.90539e-08 -1.95811e+07 -4.61128e-08 3.16366e+07)
(1.21703e+08 -7.21069e+06 -1.82772e-08 -2.21786e+07 -4.68095e-08 2.98319e+07)
(1.29765e+08 -7.95073e+06 3.10925e-09 -2.42124e+07 2.85311e-08 3.1743e+07)
(1.25944e+08 -3.7926e+06 1.10772e-07 -2.56543e+07 1.03622e-07 2.97652e+07)
(1.33993e+08 -4.87318e+06 5.73355e-08 -2.75893e+07 4.35259e-08 3.18037e+07)
(1.29994e+08 -1.17658e+06 3.64146e-08 -2.80528e+07 4.26602e-08 2.99268e+07)
(1.37643e+08 -2.055e+06 -3.22881e-08 -3.01114e+07 -2.83933e-08 3.23414e+07)
(1.33589e+08 677525 -1.6141e-08 -2.9485e+07 -1.37374e-08 3.02343e+07)
(7.42529e+07 -4.88664e+07 -2.0464e-08 3.26213e+07 4.88843e-09 2.91361e+07)
(7.69242e+07 -3.65869e+07 -6.92857e-08 1.86661e+07 1.59128e-08 2.92164e+07)
(8.34301e+07 -3.68403e+07 -1.03626e-07 1.72736e+07 -6.43447e-08 2.99132e+07)
(8.32927e+07 -2.78353e+07 -1.3436e-07 6.34787e+06 -1.09734e-07 2.78273e+07)
(9.04813e+07 -2.77005e+07 -6.13425e-08 4.13062e+06 -5.96447e-08 2.8238e+07)
(8.90251e+07 -2.0941e+07 -8.07151e-09 -4.16996e+06 -6.11198e-08 2.58231e+07)
(9.71057e+07 -2.12776e+07 -2.3209e-08 -6.57613e+06 -1.64334e-08 2.69296e+07)
(9.4788e+07 -1.59366e+07 -3.37783e-08 -1.24006e+07 -1.01331e-08 2.46653e+07)
(1.0329e+08 -1.67309e+07 -9.60554e-09 -1.49107e+07 -1.34801e-08 2.6426e+07)
(1.00345e+08 -1.22085e+07 -5.0576e-08 -1.86357e+07 -4.61922e-08 2.41673e+07)
(1.08795e+08 -1.32527e+07 -5.1641e-08 -2.13342e+07 -4.52792e-08 2.64748e+07)
(1.05462e+08 -9.19213e+06 -1.9555e-08 -2.32905e+07 -3.33502e-08 2.40023e+07)
(1.13601e+08 -1.03855e+07 -1.19656e-09 -2.62675e+07 -1.64274e-08 2.6888e+07)
(1.10062e+08 -6.53124e+06 -8.596e-08 -2.66617e+07 -5.47831e-08 2.4098e+07)
(1.17974e+08 -7.95736e+06 -1.07782e-07 -3.00114e+07 -8.56196e-08 2.75868e+07)
(1.14314e+08 -4.12153e+06 -6.71964e-08 -2.90528e+07 -7.32127e-08 2.46019e+07)
(1.22373e+08 -5.96719e+06 -9.61164e-09 -3.27559e+07 5.94809e-10 2.84774e+07)
(1.18541e+08 -2.10505e+06 3.36107e-08 -3.06674e+07 1.28778e-08 2.56862e+07)
(1.27103e+08 -4.54624e+06 5.50368e-08 -3.45389e+07 4.12704e-08 2.93855e+07)
(1.22908e+08 -818253 2.02708e-08 -3.12827e+07 2.71278e-08 2.7074e+07)
(5.12e+07 -3.83577e+07 4.00942e-08 3.08181e+07 -2.65611e-08 2.15051e+07)
(5.55464e+07 -2.73524e+07 -1.32193e-09 1.17407e+07 -5.49348e-08 2.25622e+07)
(6.46871e+07 -2.95465e+07 4.69714e-08 1.12911e+07 7.15525e-08 2.17488e+07)
(6.51018e+07 -2.02009e+07 -2.03805e-08 -1.95369e+06 5.35853e-08 2.04785e+07)
(7.47626e+07 -2.26481e+07 2.51056e-08 -4.06902e+06 1.58293e-08 2.08008e+07)
(7.33364e+07 -1.51349e+07 1.03537e-08 -1.23833e+07 -8.18821e-09 1.86461e+07)
(8.34251e+07 -1.80483e+07 5.49799e-08 -1.51974e+07 4.5274e-08 2.04477e+07)
(8.09083e+07 -1.18595e+07 6.42397e-09 -1.98655e+07 1.61238e-08 1.79595e+07)
(9.09351e+07 -1.48828e+07 3.27696e-08 -2.29943e+07 9.01792e-09 2.0678e+07)
(8.7723e+07 -9.68768e+06 0 -2.51974e+07 0 1.80254e+07)
(9.73432e+07 -1.23917e+07 2.14529e-08 -2.84121e+07 3.38863e-08 2.12034e+07)
(9.36977e+07 -8.17543e+06 2.99019e-08 -2.88736e+07 2.96636e-08 1.84152e+07)
(1.02722e+08 -1.01595e+07 7.03218e-08 -3.21053e+07 5.8223e-08 2.19994e+07)
(9.88493e+07 -7.12209e+06 3.00862e-08 -3.09951e+07 2.89968e-08 1.8811e+07)
(1.07292e+08 -8.10257e+06 2.78537e-08 -3.4531e+07 1.16985e-08 2.32449e+07)
(1.03317e+08 -6.44439e+06 -1.83502e-08 -3.13558e+07 -1.3157e-08 1.88681e+07)
(1.11748e+08 -6.5441e+06 -3.89659e-08 -3.61696e+07 -4.36792e-08 2.5074e+07)
(1.07403e+08 -6.15196e+06 -3.03164e-08 -2.95047e+07 -2.69369e-08 1.79692e+07)
(1.1767e+08 -6.34978e+06 -2.51161e-08 -3.77797e+07 -1.26582e-08 2.6971e+07)
(1.11327e+08 -6.06178e+06 3.25303e-08 -2.54074e+07 1.38427e-08 1.59804e+07)
(2.99909e+07 -2.43304e+07 -2.06853e-08 2.27955e+07 2.39322e-08 1.27449e+07)
(3.51629e+07 -1.61145e+07 7.80316e-08 1.51787e+06 5.71157e-08 1.44888e+07)
(4.62783e+07 -2.05082e+07 -1.38896e-08 2.26375e+06 -2.84314e-08 1.28137e+07)
(4.74893e+07 -1.22045e+07 -9.68173e-09 -1.20407e+07 1.08435e-08 1.24968e+07)
(5.85827e+07 -1.72803e+07 -6.03467e-08 -1.2969e+07 -1.77703e-08 1.2964e+07)
(5.77688e+07 -9.86785e+06 9.06823e-09 -2.13013e+07 -9.11645e-09 1.14366e+07)
(6.86585e+07 -1.53609e+07 -1.23444e-08 -2.31421e+07 -2.41526e-08 1.37915e+07)
(6.67142e+07 -8.68615e+06 -3.07068e-08 -2.72905e+07 -6.1455e-09 1.14249e+07)
(7.69202e+07 -1.41323e+07 -3.13504e-08 -2.97e+07 -7.04575e-09 1.50218e+07)
(7.44644e+07 -8.03783e+06 0 -3.12503e+07 0 1.20202e+07)
(8.3702e+07 -1.31361e+07 -2.01425e-08 -3.38858e+07 -1.41367e-08 1.63045e+07)
(8.11637e+07 -7.58498e+06 0 -3.423e+07 0 1.29915e+07)
(8.93473e+07 -1.20823e+07 3.42857e-09 -3.66719e+07 1.75627e-08 1.74065e+07)
(8.70023e+07 -7.21963e+06 5.59585e-08 -3.73534e+07 3.63563e-08 1.41115e+07)
(9.42784e+07 -1.06572e+07 3.52482e-08 -3.91667e+07 6.18449e-09 1.805e+07)
(9.22216e+07 -7.01953e+06 -7.44808e-09 -4.2049e+07 2.58764e-09 1.47366e+07)
(9.93454e+07 -8.49295e+06 -8.22102e-09 -4.3037e+07 2.60194e-09 1.78575e+07)
(9.7295e+07 -7.59437e+06 4.14071e-08 -4.94297e+07 2.32554e-08 1.39833e+07)
(1.06072e+08 -5.26979e+06 3.07296e-08 -5.00493e+07 2.63847e-08 1.68047e+07)
(1.0226e+08 -9.2763e+06 5.97777e-09 -6.10456e+07 1.53662e-08 1.61774e+07)
(1.26982e+07 -9.08917e+06 1.71786e-08 9.43173e+06 -2.38603e-08 3.79262e+06)
(1.76365e+07 -4.20715e+06 -1.46478e-08 -1.15047e+07 -4.34528e-08 6.04967e+06)
(2.98421e+07 -1.08986e+07 2.4656e-08 -9.10535e+06 1.27113e-08 3.758e+06)
(3.1603e+07 -4.17007e+06 3.11837e-08 -2.32073e+07 9.24695e-10 4.4715e+06)
(4.32245e+07 -1.19043e+07 5.11599e-08 -2.22461e+07 6.53342e-08 5.112e+06)
(4.31189e+07 -4.85244e+06 9.89274e-08 -3.02758e+07 8.26606e-08 4.43176e+06)
(5.41511e+07 -1.29292e+07 1.05977e-07 -3.04001e+07 7.88037e-08 7.00559e+06)
(5.28267e+07 -5.86481e+06 2.8572e-08 -3.4233e+07 5.17576e-08 5.24789e+06)
(6.30587e+07 -1.36136e+07 5.20427e-08 -3.52668e+07 3.86736e-08 9.01403e+06)
(6.10205e+07 -6.7844e+06 9.09076e-09 -3.63285e+07 1.50377e-08 6.27366e+06)
(7.02368e+07 -1.37157e+07 5.08419e-08 -3.81993e+07 3.78135e-08 1.08792e+07)
(6.79308e+07 -7.23903e+06 1.03547e-08 -3.76714e+07 1.44325e-08 6.98239e+06)
(7.57045e+07 -1.29017e+07 -1.48329e-08 -4.05256e+07 -3.54041e-08 1.21902e+07)
(7.37406e+07 -6.59188e+06 -1.13086e-08 -4.03072e+07 -1.38836e-08 6.65017e+06)
(7.9138e+07 -1.03755e+07 -7.65356e-09 -4.42214e+07 4.36098e-09 1.21416e+07)
(7.87568e+07 -3.99013e+06 -2.20736e-08 -4.80018e+07 -7.61934e-09 5.12799e+06)
(8.02431e+07 -5.25724e+06 -5.07069e-08 -5.11188e+07 -5.31614e-08 1.14208e+07)
(8.42924e+07 -298479 -2.80832e-08 -6.2753e+07 -4.14557e-08 8.00028e+06)
(8.07239e+07 -18164.9 5.22444e-09 -5.67994e+07 1.53145e-08 1.9723e+07)
(9.58842e+07 -9.93736e+06 3.50608e-08 -4.83991e+07 2.92577e-08 9.84671e+06)
(341031 5.24241e+06 0 -8.13046e+06 0 -4.73044e+06)
(4.05441e+06 7.00342e+06 0 -2.67693e+07 0 -2.11981e+06)
(1.63153e+07 -1.65906e+06 0 -2.23228e+07 0 -4.78454e+06)
(1.81939e+07 3.21558e+06 -2.71556e-08 -3.51672e+07 5.89225e-10 -3.11971e+06)
(2.92049e+07 -6.61024e+06 -2.90481e-08 -3.17127e+07 8.18756e-10 -2.20416e+06)
(2.98787e+07 -332555 3.22479e-08 -3.91658e+07 -8.75385e-09 -2.17929e+06)
(3.9757e+07 -1.04035e+07 1.47586e-08 -3.68798e+07 -2.0436e-08 726442)
(3.96059e+07 -3.32531e+06 0 -4.08523e+07 0 -620103)
(4.83987e+07 -1.30104e+07 -1.64555e-08 -3.96074e+07 8.5012e-09 3.34977e+06)
(4.77487e+07 -5.66639e+06 6.40802e-08 -4.17952e+07 4.46884e-08 1.01195e+06)
(5.54759e+07 -1.43845e+07 3.39003e-08 -4.138e+07 4.01319e-08 5.30453e+06)
(5.44954e+07 -7.24058e+06 8.90298e-09 -4.35032e+07 3.78752e-08 2.32612e+06)
(6.09105e+07 -1.40092e+07 1.23038e-08 -4.38872e+07 -6.0189e-09 5.92751e+06)
(5.97154e+07 -7.44893e+06 -3.83044e-08 -4.77939e+07 -3.72246e-08 2.52827e+06)
(6.41752e+07 -1.09223e+07 2.25525e-08 -4.88949e+07 2.69469e-08 4.6144e+06)
(6.31828e+07 -5.31795e+06 4.25534e-08 -5.4828e+07 3.32079e-08 1.62438e+06)
(6.56749e+07 -5.94645e+06 1.55252e-08 -5.48267e+07 -9.14455e-09 4.64118e+06)
(6.60951e+07 -1.77206e+06 -4.67468e-08 -5.70347e+07 -3.15061e-08 5.27569e+06)
(6.98803e+07 -6.02689e+06 -4.81007e-08 -5.11585e+07 -3.22905e-08 1.88911e+07)
(7.91551e+07 -1.35394e+07 -2.14353e-08 -3.57173e+07 -1.91499e-08 5.45868e+06)
(-7.08233e+06 1.69968e+07 4.89288e-09 -2.8331e+07 -2.30048e-08 -1.25011e+07)
(-5.23369e+06 1.64176e+07 -3.76169e-08 -4.34327e+07 -3.65344e-08 -9.66546e+06)
(6.19223e+06 6.20955e+06 -4.42308e-08 -3.66911e+07 -3.2237e-08 -1.25897e+07)
(7.74207e+06 9.42295e+06 -4.03028e-08 -4.76183e+07 -3.50797e-08 -9.98408e+06)
(1.74243e+07 -1.88507e+06 -4.39984e-08 -4.1366e+07 -7.92462e-09 -8.99958e+06)
(1.85869e+07 3.48065e+06 2.23459e-08 -4.81705e+07 -1.37421e-10 -8.06084e+06)
(2.68375e+07 -7.83393e+06 4.56462e-08 -4.31969e+07 3.04438e-08 -5.29751e+06)
(2.75902e+07 -1.14849e+06 -1.55616e-09 -4.74955e+07 2.97158e-08 -5.8461e+06)
(3.46744e+07 -1.1776e+07 -4.92512e-08 -4.38618e+07 -4.79287e-08 -2.26916e+06)
(3.51242e+07 -4.52745e+06 -8.39576e-09 -4.6941e+07 -3.89998e-08 -3.95774e+06)
(4.11152e+07 -1.38247e+07 -1.20691e-08 -4.45975e+07 7.53787e-09 -197190)
(4.13952e+07 -6.54446e+06 4.12132e-08 -4.75882e+07 2.89481e-08 -2.80079e+06)
(4.59878e+07 -1.36925e+07 2.738e-08 -4.66661e+07 1.89086e-08 377656)
(4.62606e+07 -6.65056e+06 1.66811e-09 -5.04173e+07 2.12842e-08 -2.90971e+06)
(4.90562e+07 -1.12095e+07 -6.36878e-08 -5.06255e+07 -5.25732e-08 -568903)
(4.9452e+07 -4.7283e+06 -7.39197e-08 -5.45477e+07 -6.13745e-08 -3.32163e+06)
(5.14359e+07 -8.46545e+06 -5.42014e-09 -5.32789e+07 4.57644e-09 1.05572e+06)
(5.19483e+07 -3.85982e+06 -1.34513e-08 -5.49224e+07 -8.76718e-09 1.93122e+06)
(5.66031e+07 -1.06412e+07 -1.92437e-08 -4.73733e+07 -2.34826e-08 1.5043e+07)
(6.33648e+07 -1.71961e+07 -9.80438e-09 -3.37614e+07 3.74455e-09 3.81472e+06)
(-1.02301e+07 2.51739e+07 0 -4.95661e+07 0 -1.92965e+07)
(-1.05809e+07 2.32496e+07 0 -6.05076e+07 0 -1.6312e+07)
(-614317 1.2138e+07 3.66686e-08 -5.14986e+07 6.70646e-08 -1.9384e+07)
(246841 1.40772e+07 5.15074e-08 -5.99395e+07 6.4971e-08 -1.59988e+07)
(8.10747e+06 2.16121e+06 3.98059e-08 -5.10141e+07 2.73835e-08 -1.4969e+07)
(9.51975e+06 6.59045e+06 3.64035e-08 -5.67135e+07 2.93428e-08 -1.32748e+07)
(1.57269e+07 -5.04932e+06 2.03403e-08 -4.92446e+07 -1.15436e-09 -1.06627e+07)
(1.73215e+07 998966 -3.19453e-09 -5.34202e+07 7.60259e-09 -1.05874e+07)
(2.22882e+07 -9.80101e+06 -2.92692e-08 -4.75859e+07 -3.3757e-08 -7.31377e+06)
(2.39193e+07 -2.94593e+06 -5.62747e-08 -5.1074e+07 -5.07388e-08 -8.4677e+06)
(2.78487e+07 -1.24277e+07 -6.02479e-08 -4.68237e+07 -4.70088e-08 -5.05703e+06)
(2.94115e+07 -5.30702e+06 -4.54891e-08 -5.03061e+07 -3.52122e-08 -7.12322e+06)
(3.22541e+07 -1.29289e+07 -7.80824e-08 -4.77388e+07 -4.70076e-08 -4.23525e+06)
(3.35884e+07 -5.82752e+06 -1.2436e-08 -5.16463e+07 -3.00284e-08 -6.90429e+06)
(3.54018e+07 -1.14595e+07 4.64098e-08 -5.04679e+07 5.6168e-08 -4.6958e+06)
(3.63196e+07 -4.83976e+06 7.63137e-08 -5.44295e+07 6.26634e-08 -6.95067e+06)
(3.81312e+07 -9.78775e+06 6.06676e-08 -5.22608e+07 4.03303e-08 -2.83718e+06)
(3.89007e+07 -5.06925e+06 5.60349e-08 -5.44747e+07 4.24693e-08 -1.75119e+06)
(4.2962e+07 -1.22172e+07 5.31988e-08 -4.60208e+07 2.92898e-08 1.06817e+07)
(4.87347e+07 -1.75344e+07 3.20512e-08 -3.32236e+07 2.6166e-08 428726)
(-1.01762e+07 2.93269e+07 -3.32707e-09 -7.02703e+07 2.31716e-08 -2.49388e+07)
(-1.27245e+07 2.70698e+07 1.16753e-08 -7.68336e+07 4.43791e-08 -2.1929e+07)
(-4.63114e+06 1.5781e+07 -4.85637e-08 -6.57408e+07 -5.55702e-08 -2.50396e+07)
(-4.63442e+06 1.69407e+07 -4.55162e-08 -7.14278e+07 -4.88878e-08 -2.10228e+07)
(1.13555e+06 5.23719e+06 -4.92688e-08 -6.00827e+07 -2.10111e-08 -1.99781e+07)
(2.60186e+06 8.82876e+06 -1.80766e-08 -6.44777e+07 -1.86581e-08 -1.7619e+07)
(6.62007e+06 -2.35126e+06 -3.89471e-08 -5.47334e+07 -3.8726e-08 -1.52163e+07)
(8.85961e+06 2.88063e+06 -2.15667e-08 -5.86527e+07 -4.13415e-08 -1.45309e+07)
(1.16688e+07 -7.40612e+06 1.83231e-08 -5.0735e+07 2.14187e-08 -1.16288e+07)
(1.42555e+07 -1.29182e+06 1.72421e-08 -5.4559e+07 2.16453e-08 -1.22024e+07)
(1.62025e+07 -1.04053e+07 4.41464e-08 -4.84033e+07 3.22244e-08 -9.22087e+06)
(1.87908e+07 -3.90568e+06 3.1185e-08 -5.24376e+07 2.05804e-08 -1.07093e+07)
(2.00357e+07 -1.14863e+07 4.04213e-08 -4.81893e+07 1.26973e-08 -8.23803e+06)
(2.22547e+07 -4.92075e+06 -1.11036e-08 -5.26652e+07 -5.6048e-09 -1.03222e+07)
(2.30388e+07 -1.08147e+07 6.20174e-09 -5.01632e+07 1.20089e-08 -8.55022e+06)
(2.46007e+07 -4.70923e+06 3.01107e-08 -5.46915e+07 2.00573e-08 -1.02185e+07)
(2.5736e+07 -9.82272e+06 2.10215e-08 -5.15618e+07 1.3415e-08 -6.72798e+06)
(2.69164e+07 -5.38981e+06 6.06444e-09 -5.43318e+07 1.22338e-08 -5.20261e+06)
(2.98632e+07 -1.20863e+07 1.0929e-08 -4.5057e+07 6.57329e-09 6.26527e+06)
(3.4696e+07 -1.61373e+07 -1.41517e-08 -3.27049e+07 -2.30574e-10 -2.86904e+06)
(-8.11856e+06 2.94296e+07 3.27688e-09 -8.89176e+07 -1.73028e-08 -2.93813e+07)
(-1.25521e+07 2.77723e+07 -3.15457e-09 -9.13396e+07 -2.18144e-08 -2.64514e+07)
(-6.50183e+06 1.69851e+07 1.01559e-08 -7.85342e+07 7.23805e-09 -2.94962e+07)
(-7.40893e+06 1.78847e+07 -1.34758e-10 -8.15037e+07 7.9074e-09 -2.49997e+07)
(-3.73909e+06 7.11435e+06 -1.60814e-08 -6.81736e+07 -1.41795e-08 -2.39998e+07)
(-2.39838e+06 1.00236e+07 -2.383e-08 -7.12357e+07 -2.91885e-08 -2.10838e+07)
(-449118 -27069 2.6705e-08 -5.96392e+07 2.58633e-08 -1.89722e+07)
(2.17427e+06 4.28383e+06 2.52203e-08 -6.32186e+07 2.00446e-08 -1.77372e+07)
(3.04316e+06 -4.89226e+06 -3.18043e-09 -5.3607e+07 -1.90831e-08 -1.52854e+07)
(6.26437e+06 208268 -2.66819e-08 -5.76463e+07 -1.32263e-08 -1.53114e+07)
(6.49819e+06 -7.98621e+06 -5.67934e-08 -4.99404e+07 -3.2008e-08 -1.28289e+07)
(9.78332e+06 -2.49589e+06 -2.02152e-08 -5.44081e+07 -2.89271e-08 -1.37617e+07)
(9.65554e+06 -9.45657e+06 3.68812e-08 -4.87963e+07 4.17754e-08 -1.17713e+07)
(1.25336e+07 -3.85281e+06 3.66635e-08 -5.37087e+07 3.90258e-08 -1.32783e+07)
(1.2325e+07 -9.41384e+06 -1.92118e-08 -5.00839e+07 -2.97773e-08 -1.19648e+07)
(1.44741e+07 -4.12781e+06 -3.96505e-08 -5.4929e+07 -3.19278e-08 -1.30555e+07)
(1.47569e+07 -8.95362e+06 -6.13396e-09 -5.09131e+07 9.12992e-09 -1.01385e+07)
(1.63597e+07 -4.93737e+06 1.84216e-08 -5.38452e+07 9.23815e-09 -8.20881e+06)
(1.80433e+07 -1.08747e+07 2.10248e-08 -4.39303e+07 8.00412e-09 2.18045e+06)
(2.20796e+07 -1.36627e+07 2.80784e-09 -3.20232e+07 4.54119e-10 -5.73566e+06)
(-5.18731e+06 2.59057e+07 2.96581e-09 -1.04287e+08 -3.56201e-08 -3.26985e+07)
(-1.1001e+07 2.55417e+07 -2.77331e-08 -1.03253e+08 -5.46838e-08 -2.98682e+07)
(-6.92985e+06 1.58131e+07 -1.64605e-08 -8.91878e+07 -1.35153e-08 -3.2806e+07)
(-8.6586e+06 1.6911e+07 -5.4719e-09 -8.96862e+07 -2.2282e-08 -2.80151e+07)
(-6.89407e+06 7.67074e+06 -5.90299e-10 -7.50327e+07 -6.78689e-09 -2.70372e+07)
(-5.80251e+06 1.0076e+07 -1.32103e-08 -7.67227e+07 -3.87055e-10 -2.37669e+07)
(-5.62803e+06 1.70998e+06 -4.26172e-08 -6.40201e+07 -3.17637e-08 -2.1899e+07)
(-2.86417e+06 5.06099e+06 -3.78412e-08 -6.70574e+07 -3.93051e-08 -2.03252e+07)
(-3.5949e+06 -2.52096e+06 -7.48578e-10 -5.64708e+07 5.1882e-09 -1.82505e+07)
(-35550.3 1.39658e+06 0 -6.04599e+07 0 -1.79227e+07)
(-1.18632e+06 -5.44242e+06 2.09989e-08 -5.17836e+07 1.76936e-08 -1.58631e+07)
(2.50859e+06 -1.2019e+06 1.24948e-08 -5.64114e+07 1.0357e-08 -1.63728e+07)
(1.27394e+06 -7.12404e+06 6.12988e-09 -4.98041e+07 4.68719e-09 -1.47997e+07)
(4.56062e+06 -2.72747e+06 2.02776e-08 -5.48588e+07 1.05396e-08 -1.5779e+07)
(3.53434e+06 -7.5908e+06 4.39885e-08 -5.0233e+07 2.46848e-08 -1.48494e+07)
(6.04748e+06 -3.28631e+06 3.26274e-08 -5.5011e+07 2.34235e-08 -1.5344e+07)
(5.60543e+06 -7.57233e+06 2.86679e-08 -5.00821e+07 1.73485e-08 -1.2938e+07)
(7.45776e+06 -3.99947e+06 3.32265e-08 -5.27289e+07 2.41882e-08 -1.05865e+07)
(8.04249e+06 -9.00273e+06 2.44449e-08 -4.23158e+07 1.02325e-08 -1.41888e+06)
(1.14458e+07 -1.04735e+07 1.69494e-08 -3.09542e+07 1.35563e-08 -8.09062e+06)
(-2.35364e+06 1.94336e+07 -1.16437e-09 -1.15684e+08 3.90471e-08 -3.50283e+07)
(-8.9023e+06 2.08118e+07 1.32123e-08 -1.12368e+08 4.04418e-08 -3.20608e+07)
(-6.73743e+06 1.24766e+07 2.17578e-08 -9.72042e+07 3.88011e-08 -3.49854e+07)
(-8.9304e+06 1.4146e+07 1.62827e-08 -9.55955e+07 3.12479e-08 -3.00958e+07)
(-8.82983e+06 6.91356e+06 1.1296e-08 -8.03922e+07 1.78539e-09 -2.90147e+07)
(-7.95337e+06 8.94929e+06 1.21088e-08 -8.0682e+07 1.22473e-08 -2.56735e+07)
(-9.18544e+06 2.73426e+06 9.17991e-09 -6.78388e+07 9.4998e-09 -2.39391e+07)
(-6.47108e+06 5.04788e+06 4.70824e-09 -7.01405e+07 1.31077e-08 -2.23623e+07)
(-8.44112e+06 -499510 -2.49831e-08 -5.94029e+07 -2.46361e-08 -2.05131e+07)
(-4.7901e+06 2.03085e+06 -1.72449e-08 -6.30579e+07 -1.92017e-08 -2.01379e+07)
(-7.03819e+06 -2.99003e+06 -2.73128e-08 -5.40042e+07 -1.48671e-08 -1.83309e+07)
(-3.14777e+06 -293891 -8.87896e-09 -5.85397e+07 -8.80041e-09 -1.86226e+07)
(-5.27388e+06 -4.69911e+06 -2.07484e-09 -5.12222e+07 6.55027e-09 -1.7347e+07)
(-1.76517e+06 -1.8533e+06 1.39186e-08 -5.62651e+07 1.172e-08 -1.78172e+07)
(-3.41386e+06 -5.57263e+06 -9.23699e-09 -5.05072e+07 -1.24032e-08 -1.72711e+07)
(-749311 -2.57361e+06 -9.50578e-09 -5.51267e+07 -8.19637e-09 -1.69474e+07)
(-1.63693e+06 -5.95755e+06 -2.16542e-08 -4.87815e+07 -1.30612e-08 -1.52634e+07)
(201561 -3.04363e+06 -1.08066e-08 -5.1073e+07 -6.16746e-09 -1.21558e+07)
(152727 -6.8847e+06 2.50835e-10 -3.97215e+07 1.12551e-08 -4.82573e+06)
(2.85293e+06 -7.18704e+06 -1.79656e-09 -2.95099e+07 -1.17229e-09 -9.70941e+06)
(-354057 1.06557e+07 7.5347e-10 -1.22899e+08 -9.75869e-09 -3.63634e+07)
(-6.64497e+06 1.47309e+07 0 -1.18126e+08 0 -3.37045e+07)
(-6.53937e+06 7.54306e+06 -1.02354e-08 -1.02049e+08 -2.98777e-08 -3.60676e+07)
(-8.22763e+06 1.02201e+07 -5.55602e-09 -9.96954e+07 -3.17426e-08 -3.07981e+07)
(-9.62307e+06 5.1645e+06 3.65852e-09 -8.38882e+07 6.17233e-09 -3.02976e+07)
(-8.7961e+06 6.47045e+06 -5.73813e-10 -8.40198e+07 6.74061e-10 -2.65979e+07)
(-1.11205e+07 3.01037e+06 1.04328e-08 -7.09444e+07 1.47013e-08 -2.56641e+07)
(-8.80134e+06 3.49418e+06 1.10328e-08 -7.30556e+07 2.10223e-08 -2.37718e+07)
(-1.15749e+07 998349 1.29084e-08 -6.22826e+07 1.76359e-08 -2.25322e+07)
(-8.44927e+06 1.16508e+06 5.49207e-09 -6.54366e+07 8.52416e-09 -2.18775e+07)
(-1.12064e+07 -751066 6.41316e-09 -5.65138e+07 4.48921e-09 -2.04896e+07)
(-7.86618e+06 -587760 3.33367e-09 -6.02656e+07 5.00865e-09 -2.05465e+07)
(-1.02059e+07 -2.17168e+06 -1.55982e-08 -5.30229e+07 -1.72516e-08 -1.95162e+07)
(-7.18788e+06 -1.69878e+06 -1.21433e-08 -5.71095e+07 -1.57247e-08 -1.96808e+07)
(-8.83578e+06 -3.24157e+06 6.91624e-11 -5.09027e+07 1.62715e-09 -1.92551e+07)
(-6.52254e+06 -2.06367e+06 6.8998e-11 -5.45952e+07 1.29188e-09 -1.83457e+07)
(-7.37442e+06 -4.04745e+06 -3.0785e-09 -4.69568e+07 -2.82999e-09 -1.71754e+07)
(-5.76193e+06 -1.96776e+06 -2.8392e-09 -4.88469e+07 -5.3405e-09 -1.32051e+07)
(-5.92287e+06 -4.77824e+06 -1.28226e-08 -3.60166e+07 -1.1021e-08 -8.32314e+06)
(-3.96032e+06 -4.2306e+06 1.01784e-09 -2.90411e+07 8.7973e-10 -9.37628e+06)
(523689 397204 -1.03065e-11 -1.25301e+08 -5.69792e-12 -3.83359e+07)
(-5.45042e+06 7.46525e+06 -7.10883e-09 -1.21288e+08 1.52532e-08 -3.43227e+07)
(-4.12611e+06 2.52584e+06 -3.91037e-09 -1.0326e+08 1.73488e-08 -3.92329e+07)
(-8.51851e+06 4.72144e+06 5.3071e-09 -1.02721e+08 8.82108e-09 -2.9588e+07)
(-8.31055e+06 2.70338e+06 2.19558e-09 -8.56138e+07 -9.97593e-09 -3.31774e+07)
(-1.05129e+07 2.35838e+06 1.26599e-09 -8.6542e+07 -9.8788e-09 -2.58997e+07)
(-1.11862e+07 2.22733e+06 -3.71382e-09 -7.33091e+07 -1.57683e-08 -2.82497e+07)
(-1.16701e+07 648574 -6.03943e-09 -7.4725e+07 -1.97856e-08 -2.37596e+07)
(-1.28261e+07 1.62565e+06 -9.96384e-10 -6.48431e+07 -3.86066e-09 -2.4783e+07)