/*--------------------------------*- C++ -*----------------------------------*\
| =========                 |                                                 |
| \\      /  F ield         | OpenFOAM: The Open Source CFD Toolbox           |
|  \\    /   O peration     | Version:  v2012                                 |
|   \\  /    A nd           | Website:  www.openfoam.com                      |
|    \\/     M anipulation  |                                                 |
\*---------------------------------------------------------------------------*/
FoamFile
{
    version     2.0;
    format      ascii;
    class       volVectorField;
    location    "9";
    object      D;
}
// * * * * * * * * * * * * * * * * * * * * * * * * * * * * * * * * * * * * * //

dimensions      [0 1 0 0 0 0 0];


internalField   nonuniform List<vector> 
32000
(
(3.6911e-05 -0.0015724 0)
(7.07215e-05 -0.00158688 0)
(3.57257e-05 -0.00162056 0)
(6.79277e-05 -0.00163529 0)
(3.47043e-05 -0.0016664 0)
(6.63108e-05 -0.00168111 0)
(3.39511e-05 -0.00171052 0)
(6.52021e-05 -0.00172486 0)
(3.33549e-05 -0.00175293 0)
(6.43559e-05 -0.00176685 0)
(3.28659e-05 -0.00179377 0)
(6.36428e-05 -0.00180725 0)
(3.24453e-05 -0.00183313 0)
(6.29871e-05 -0.00184614 0)
(3.20609e-05 -0.00187103 0)
(6.23389e-05 -0.00188355 0)
(3.168e-05 -0.00190749 0)
(6.16689e-05 -0.0019195 0)
(3.12898e-05 -0.00194249 0)
(6.09677e-05 -0.00195399 0)
(3.0885e-05 -0.00197605 0)
(6.02294e-05 -0.00198704 0)
(3.04633e-05 -0.00200817 0)
(5.9444e-05 -0.00201864 0)
(3.00084e-05 -0.00203885 0)
(5.86059e-05 -0.00204878 0)
(2.95272e-05 -0.00206807 0)
(5.77197e-05 -0.00207748 0)
(2.90231e-05 -0.00209585 0)
(5.67876e-05 -0.00210472 0)
(2.84965e-05 -0.00212217 0)
(5.57985e-05 -0.00213051 0)
(2.79373e-05 -0.00214704 0)
(5.47547e-05 -0.00215484 0)
(2.73496e-05 -0.00217046 0)
(5.3658e-05 -0.00217771 0)
(2.67344e-05 -0.00219242 0)
(5.24982e-05 -0.00219912 0)
(2.60836e-05 -0.00221293 0)
(5.12777e-05 -0.00221907 0)
(2.54015e-05 -0.00223198 0)
(4.99993e-05 -0.00223757 0)
(2.46861e-05 -0.00224959 0)
(4.86588e-05 -0.00225462 0)
(2.39376e-05 -0.00226576 0)
(4.72632e-05 -0.00227024 0)
(2.31616e-05 -0.00228052 0)
(4.58137e-05 -0.00228444 0)
(2.23521e-05 -0.00229388 0)
(4.43226e-05 -0.00229726 0)
(2.15277e-05 -0.00230588 0)
(4.28e-05 -0.00230874 0)
(2.06928e-05 -0.00231658 0)
(4.12605e-05 -0.00231892 0)
(1.98554e-05 -0.00232601 0)
(3.97259e-05 -0.00232789 0)
(1.90253e-05 -0.00233426 0)
(3.8189e-05 -0.00233569 0)
(1.81971e-05 -0.00234139 0)
(3.67045e-05 -0.00234246 0)
(1.74149e-05 -0.00234746 0)
(3.52341e-05 -0.00234806 0)
(1.673e-05 -0.00235265 0)
(3.41067e-05 -0.00235332 0)
(1.62633e-05 -0.00235763 0)
(3.31986e-05 -0.00235824 0)
(1.58861e-05 -0.00236234 0)
(3.24282e-05 -0.00236287 0)
(1.55589e-05 -0.00236684 0)
(3.17514e-05 -0.00236731 0)
(1.5267e-05 -0.00237119 0)
(3.11438e-05 -0.00237162 0)
(1.50019e-05 -0.00237543 0)
(3.05876e-05 -0.00237582 0)
(1.47592e-05 -0.00237957 0)
(3.00689e-05 -0.00237995 0)
(1.4549e-05 -0.00238363 0)
(2.95802e-05 -0.00238403 0)
(1.44154e-05 -0.0023876 0)
(2.91206e-05 -0.00238808 0)
(0.000131992 -0.00157766 0)
(0.000163638 -0.00159443 0)
(0.000131416 -0.00162321 0)
(0.000163263 -0.00163947 0)
(0.000130524 -0.00166804 0)
(0.00016225 -0.00168382 0)
(0.000129487 -0.00171172 0)
(0.00016097 -0.0017269 0)
(0.000128356 -0.00175395 0)
(0.000159572 -0.00176855 0)
(0.000127173 -0.00179471 0)
(0.000158101 -0.00180875 0)
(0.000125949 -0.001834 0)
(0.000156565 -0.00184747 0)
(0.000124679 -0.00187181 0)
(0.000154962 -0.00188472 0)
(0.000123352 -0.00190816 0)
(0.000153279 -0.00192048 0)
(0.000121957 -0.00194304 0)
(0.000151506 -0.00195477 0)
(0.000120492 -0.00197646 0)
(0.000149636 -0.0019876 0)
(0.000118945 -0.00200841 0)
(0.000147664 -0.00201895 0)
(0.000117313 -0.0020389 0)
(0.000145583 -0.00204883 0)
(0.000115589 -0.00206793 0)
(0.000143381 -0.00207724 0)
(0.000113774 -0.0020955 0)
(0.000141056 -0.00210418 0)
(0.000111853 -0.0021216 0)
(0.000138604 -0.00212964 0)
(0.000109822 -0.00214623 0)
(0.000136013 -0.00215362 0)
(0.000107687 -0.00216939 0)
(0.000133281 -0.00217611 0)
(0.000105438 -0.00219107 0)
(0.000130407 -0.00219712 0)
(0.000103064 -0.00221127 0)
(0.000127386 -0.00221664 0)
(0.000100578 -0.00223 0)
(0.000124222 -0.00223468 0)
(9.79781e-05 -0.00224727 0)
(0.000120923 -0.00225126 0)
(9.52644e-05 -0.00226309 0)
(0.000117495 -0.00226638 0)
(9.24588e-05 -0.00227748 0)
(0.000113964 -0.0022801 0)
(8.95712e-05 -0.00229048 0)
(0.000110348 -0.00229243 0)
(8.66228e-05 -0.00230213 0)
(0.000106679 -0.00230344 0)
(8.36334e-05 -0.00231248 0)
(0.000102987 -0.0023132 0)
(8.06265e-05 -0.0023216 0)
(9.93172e-05 -0.00232178 0)
(7.76593e-05 -0.0023296 0)
(9.56915e-05 -0.00232927 0)
(7.47276e-05 -0.00233653 0)
(9.22071e-05 -0.00233581 0)
(7.19373e-05 -0.00234249 0)
(8.89378e-05 -0.00234142 0)
(6.948e-05 -0.00234776 0)
(8.61682e-05 -0.00234668 0)
(6.74676e-05 -0.00235278 0)
(8.38342e-05 -0.00235163 0)
(6.57668e-05 -0.00235753 0)
(8.18367e-05 -0.00235633 0)
(6.43034e-05 -0.00236208 0)
(8.00986e-05 -0.00236083 0)
(6.30284e-05 -0.00236646 0)
(7.85665e-05 -0.0023652 0)
(6.19088e-05 -0.00237072 0)
(7.7202e-05 -0.00236945 0)
(6.09242e-05 -0.00237488 0)
(7.59746e-05 -0.00237361 0)
(6.00668e-05 -0.00237897 0)
(7.48571e-05 -0.00237768 0)
(5.93426e-05 -0.00238298 0)
(7.38208e-05 -0.00238168 0)
(0.000231496 -0.00158076 0)
(0.000263595 -0.0015975 0)
(0.000229563 -0.00162685 0)
(0.000261184 -0.0016435 0)
(0.000227818 -0.00167162 0)
(0.000259121 -0.00168791 0)
(0.000226071 -0.00171506 0)
(0.000257069 -0.00173076 0)
(0.000224224 -0.001757 0)
(0.000254923 -0.00177208 0)
(0.000222263 -0.00179745 0)
(0.00025265 -0.00181191 0)
(0.000220191 -0.00183643 0)
(0.000250243 -0.00185026 0)
(0.000218005 -0.00187393 0)
(0.000247699 -0.00188711 0)
(0.000215698 -0.00190994 0)
(0.000245013 -0.00192247 0)
(0.000213262 -0.00194446 0)
(0.000242177 -0.00195633 0)
(0.000210687 -0.0019775 0)
(0.000239176 -0.00198869 0)
(0.000207974 -0.00200905 0)
(0.000236006 -0.00201956 0)
(0.000205109 -0.00203912 0)
(0.000232658 -0.00204892 0)
(0.000202072 -0.00206769 0)
(0.000229113 -0.00207677 0)
(0.000198854 -0.00209476 0)
(0.000225355 -0.00210311 0)
(0.000195458 -0.00212034 0)
(0.000221384 -0.00212793 0)
(0.000191871 -0.00214441 0)
(0.000217184 -0.00215121 0)
(0.000188068 -0.00216696 0)
(0.000212742 -0.00217296 0)
(0.000184059 -0.00218799 0)
(0.000208062 -0.00219318 0)
(0.000179845 -0.00220751 0)
(0.000203147 -0.00221188 0)
(0.000175413 -0.00222553 0)
(0.000197995 -0.00222905 0)
(0.000170788 -0.00224205 0)
(0.000192632 -0.00224474 0)
(0.000165983 -0.00225711 0)
(0.000187085 -0.00225898 0)
(0.000161019 -0.00227073 0)
(0.000181375 -0.00227179 0)
(0.000155939 -0.00228298 0)
(0.000175565 -0.00228327 0)
(0.000150768 -0.0022939 0)
(0.00016971 -0.00229348 0)
(0.000145592 -0.00230358 0)
(0.000163876 -0.00230252 0)
(0.000140456 -0.00231212 0)
(0.000158149 -0.00231049 0)
(0.000135441 -0.00231963 0)
(0.000152598 -0.00231753 0)
(0.000130606 -0.00232621 0)
(0.000147298 -0.00232368 0)
(0.000126049 -0.00233195 0)
(0.0001424 -0.00232917 0)
(0.000122038 -0.00233722 0)
(0.000138197 -0.00233441 0)
(0.000118644 -0.00234225 0)
(0.000134591 -0.00233939 0)
(0.000115726 -0.00234706 0)
(0.000131464 -0.00234416 0)
(0.000113192 -0.00235169 0)
(0.000128722 -0.00234877 0)
(0.000110971 -0.00235617 0)
(0.000126296 -0.00235324 0)
(0.000109011 -0.00236054 0)
(0.000124131 -0.0023576 0)
(0.000107275 -0.00236481 0)
(0.000122184 -0.00236187 0)
(0.000105741 -0.00236901 0)
(0.000120416 -0.00236606 0)
(0.000104393 -0.00237313 0)
(0.000118792 -0.00237016 0)
(0.000328887 -0.00158752 0)
(0.000360277 -0.00160512 0)
(0.000326529 -0.00163311 0)
(0.000357617 -0.00165041 0)
(0.000324184 -0.00167746 0)
(0.000354978 -0.00169431 0)
(0.000321765 -0.00172046 0)
(0.000352239 -0.00173665 0)
(0.000319204 -0.00176193 0)
(0.000349351 -0.00177745 0)
(0.000316471 -0.0018019 0)
(0.000346276 -0.00181672 0)
(0.00031355 -0.00184037 0)
(0.000342993 -0.00185448 0)
(0.000310442 -0.00187734 0)
(0.000339498 -0.00189072 0)
(0.000307147 -0.0019128 0)
(0.000335789 -0.00192545 0)
(0.000303657 -0.00194674 0)
(0.000331859 -0.00195864 0)
(0.000299961 -0.00197918 0)
(0.000327693 -0.0019903 0)
(0.000296034 -0.00201008 0)
(0.000323271 -0.00202041 0)
(0.000291877 -0.00203945 0)
(0.000318579 -0.00204896 0)
(0.000287482 -0.00206728 0)
(0.000313613 -0.00207595 0)
(0.000282826 -0.00209356 0)
(0.000308351 -0.00210136 0)
(0.000277881 -0.00211828 0)
(0.000302764 -0.00212517 0)
(0.000272645 -0.00214142 0)
(0.000296847 -0.00214738 0)
(0.000267117 -0.00216299 0)
(0.000290607 -0.002168 0)
(0.000261271 -0.00218299 0)
(0.000284032 -0.00218702 0)
(0.000255125 -0.00220141 0)
(0.000277126 -0.00220446 0)
(0.000248699 -0.0022183 0)
(0.000269929 -0.00222036 0)
(0.000241995 -0.00223366 0)
(0.000262465 -0.00223476 0)
(0.000235065 -0.00224755 0)
(0.000254782 -0.00224771 0)
(0.000227957 -0.00226004 0)
(0.000246959 -0.00225931 0)
(0.000220729 -0.00227119 0)
(0.000239062 -0.00226965 0)
(0.000213479 -0.00228112 0)
(0.000231189 -0.00227884 0)
(0.000206271 -0.00228992 0)
(0.00022344 -0.00228701 0)
(0.000199221 -0.00229772 0)
(0.000215891 -0.00229426 0)
(0.000192376 -0.00230463 0)
(0.000208676 -0.00230076 0)
(0.000185883 -0.00231078 0)
(0.000201815 -0.00230648 0)
(0.000179812 -0.00231625 0)
(0.000195648 -0.00231189 0)
(0.000174532 -0.00232151 0)
(0.000190277 -0.0023171 0)
(0.000169962 -0.00232657 0)
(0.000185589 -0.00232213 0)
(0.000165974 -0.00233145 0)
(0.000181467 -0.00232699 0)
(0.000162468 -0.00233618 0)
(0.000177817 -0.0023317 0)
(0.000159367 -0.00234078 0)
(0.000174562 -0.0023363 0)
(0.000156609 -0.00234527 0)
(0.000171641 -0.00234079 0)
(0.000154146 -0.00234967 0)
(0.000169001 -0.00234519 0)
(0.000151941 -0.002354 0)
(0.000166594 -0.0023495 0)
(0.000149969 -0.00235825 0)
(0.000164377 -0.00235372 0)
(0.00042611 -0.00159606 0)
(0.000457113 -0.00161414 0)
(0.000422958 -0.00164131 0)
(0.000453538 -0.00165907 0)
(0.000419847 -0.00168521 0)
(0.000450072 -0.00170248 0)
(0.000416654 -0.00172768 0)
(0.000446516 -0.00174424 0)
(0.000413293 -0.00176856 0)
(0.000442792 -0.00178437 0)
(0.000409727 -0.00180788 0)
(0.000438848 -0.00182293 0)
(0.000405938 -0.00184565 0)
(0.000434657 -0.00185991 0)
(0.000401897 -0.00188188 0)
(0.000430191 -0.00189533 0)
(0.000397582 -0.00191657 0)
(0.000425428 -0.00192918 0)
(0.00039299 -0.00194969 0)
(0.00042035 -0.00196144 0)
(0.000388112 -0.00198125 0)
(0.000414948 -0.00199211 0)
(0.000382937 -0.00201123 0)
(0.000409209 -0.00202117 0)
(0.000377434 -0.00203961 0)
(0.000403108 -0.00204859 0)
(0.000371572 -0.00206637 0)
(0.000396611 -0.00207435 0)
(0.000365341 -0.0020915 0)
(0.000389694 -0.00209844 0)
(0.000358737 -0.00211498 0)
(0.000382363 -0.00212085 0)
(0.000351734 -0.00213681 0)
(0.00037461 -0.00214158 0)
(0.000344322 -0.00215699 0)
(0.000366426 -0.00216064 0)
(0.000336525 -0.00217552 0)
(0.000357824 -0.00217803 0)
(0.000328353 -0.00219245 0)
(0.000348849 -0.00219383 0)
(0.000319824 -0.00220778 0)
(0.000339538 -0.00220806 0)
(0.000311009 -0.00222161 0)
(0.000329959 -0.00222083 0)
(0.000301961 -0.00223401 0)
(0.000320206 -0.00223224 0)
(0.000292767 -0.00224507 0)
(0.000310363 -0.0022424 0)
(0.000283537 -0.00225493 0)
(0.000300561 -0.00225146 0)
(0.000274363 -0.0022637 0)
(0.000290903 -0.00225954 0)
(0.000265373 -0.00227153 0)
(0.000281509 -0.0022668 0)
(0.000256658 -0.00227853 0)
(0.000272475 -0.00227335 0)
(0.000248331 -0.00228486 0)
(0.000263906 -0.00227933 0)
(0.000240479 -0.00229059 0)
(0.0002559 -0.0022848 0)
(0.000233319 -0.00229593 0)
(0.00024878 -0.00229014 0)
(0.00022704 -0.00230116 0)
(0.000242483 -0.00229533 0)
(0.000221504 -0.00230625 0)
(0.000236897 -0.00230039 0)
(0.000216599 -0.0023112 0)
(0.000231919 -0.00230532 0)
(0.000212235 -0.00231602 0)
(0.000227461 -0.00231014 0)
(0.000208333 -0.00232073 0)
(0.000223451 -0.00231484 0)
(0.00020483 -0.00232535 0)
(0.000219822 -0.00231945 0)
(0.000201674 -0.00232987 0)
(0.000216521 -0.00232397 0)
(0.000198822 -0.00233431 0)
(0.000213496 -0.00232839 0)
(0.000196239 -0.00233868 0)
(0.000210699 -0.00233272 0)
(0.000522248 -0.00160685 0)
(0.000552638 -0.00162539 0)
(0.000518365 -0.0016515 0)
(0.000548319 -0.00166966 0)
(0.000514469 -0.00169476 0)
(0.000544033 -0.00171234 0)
(0.000510452 -0.00173654 0)
(0.000539613 -0.00175333 0)
(0.000506229 -0.00177667 0)
(0.000534982 -0.00179264 0)
(0.000501758 -0.00181518 0)
(0.000530087 -0.00183029 0)
(0.000497006 -0.00185207 0)
(0.000524889 -0.00186631 0)
(0.000491951 -0.00188735 0)
(0.000519357 -0.00190068 0)
(0.000486574 -0.00192102 0)
(0.000513463 -0.00193339 0)
(0.000480844 -0.00195306 0)
(0.000507178 -0.00196444 0)
(0.00047472 -0.00198345 0)
(0.000500464 -0.00199379 0)
(0.000468172 -0.00201217 0)
(0.000493288 -0.00202142 0)
(0.000461184 -0.00203918 0)
(0.000485619 -0.00204731 0)
(0.000453745 -0.00206449 0)
(0.000477441 -0.00207142 0)
(0.000445833 -0.00208806 0)
(0.000468752 -0.00209377 0)
(0.000437412 -0.00210988 0)
(0.000459539 -0.00211434 0)
(0.00042849 -0.00212995 0)
(0.000449796 -0.00213313 0)
(0.000419088 -0.0021483 0)
(0.000439547 -0.00215019 0)
(0.000409221 -0.00216495 0)
(0.000428846 -0.00216557 0)
(0.00039892 -0.00217996 0)
(0.000417748 -0.00217935 0)
(0.000388275 -0.00219342 0)
(0.000406338 -0.00219163 0)
(0.000377361 -0.00220542 0)
(0.000394739 -0.00220257 0)
(0.000366291 -0.0022161 0)
(0.000383057 -0.00221228 0)
(0.000355197 -0.00222562 0)
(0.000371448 -0.00222096 0)
(0.00034419 -0.0022341 0)
(0.000360028 -0.00222875 0)
(0.000333417 -0.00224173 0)
(0.000348942 -0.00223581 0)
(0.000322989 -0.00224863 0)
(0.000338267 -0.00224225 0)
(0.000312995 -0.00225494 0)
(0.000328152 -0.00224825 0)
(0.000303551 -0.00226078 0)
(0.000318619 -0.00225382 0)
(0.000294726 -0.00226622 0)
(0.000309836 -0.00225917 0)
(0.000286765 -0.00227151 0)
(0.00030196 -0.00226444 0)
(0.000279674 -0.00227672 0)
(0.000294906 -0.00226962 0)
(0.000273336 -0.00228182 0)
(0.000288568 -0.0022747 0)
(0.000267651 -0.00228682 0)
(0.000282856 -0.00227968 0)
(0.000262536 -0.00229171 0)
(0.000277689 -0.00228456 0)
(0.000257916 -0.00229651 0)
(0.000272998 -0.00228935 0)
(0.000253731 -0.00230121 0)
(0.00026872 -0.00229404 0)
(0.000249928 -0.00230584 0)
(0.000264801 -0.00229865 0)
(0.000246461 -0.00231038 0)
(0.000261189 -0.00230316 0)
(0.000243291 -0.00231485 0)
(0.000257835 -0.00230757 0)
(0.000617184 -0.00161953 0)
(0.00064687 -0.00163842 0)
(0.000612487 -0.00166345 0)
(0.000641702 -0.00168187 0)
(0.000607753 -0.00170592 0)
(0.000636532 -0.00172368 0)
(0.00060286 -0.00174684 0)
(0.000631192 -0.00176372 0)
(0.000597725 -0.00178603 0)
(0.0006256 -0.001802 0)
(0.000592295 -0.00182352 0)
(0.000619693 -0.00183853 0)
(0.000586528 -0.00185932 0)
(0.00061342 -0.00187333 0)
(0.000580383 -0.00189341 0)
(0.00060673 -0.00190637 0)
(0.000573814 -0.00192579 0)
(0.000599579 -0.00193764 0)
(0.000566781 -0.00195641 0)
(0.00059192 -0.00196712 0)
(0.000559255 -0.00198527 0)
(0.000583716 -0.00199476 0)
(0.000551208 -0.00201234 0)
(0.000574931 -0.00202055 0)
(0.000542612 -0.00203759 0)
(0.000565542 -0.00204445 0)
(0.000533435 -0.00206099 0)
(0.000555535 -0.00206647 0)
(0.000523645 -0.00208253 0)
(0.000544901 -0.00208659 0)
(0.000513257 -0.00210221 0)
(0.000533645 -0.00210484 0)
(0.000502294 -0.00212008 0)
(0.000521794 -0.00212126 0)
(0.000490779 -0.00213617 0)
(0.000509417 -0.00213594 0)
(0.000478762 -0.00215055 0)
(0.000496595 -0.00214897 0)
(0.000466352 -0.00216334 0)
(0.000483434 -0.0021605 0)
(0.000453659 -0.00217469 0)
(0.000470085 -0.00217071 0)
(0.000440811 -0.00218473 0)
(0.000456686 -0.00217977 0)
(0.000427974 -0.00219368 0)
(0.000443408 -0.00218787 0)
(0.00041527 -0.00220168 0)
(0.000430385 -0.0021952 0)
(0.000402869 -0.00220893 0)
(0.000417765 -0.00220191 0)
(0.000390879 -0.00221557 0)
(0.000405629 -0.00220813 0)
(0.000379388 -0.00222172 0)
(0.000394112 -0.002214 0)
(0.000368517 -0.00222752 0)
(0.000383246 -0.00221958 0)
(0.000358305 -0.00223301 0)
(0.000373036 -0.00222487 0)
(0.000348816 -0.00223827 0)
(0.000363722 -0.00223012 0)
(0.000340252 -0.0022435 0)
(0.000355274 -0.00223533 0)
(0.000332517 -0.00224868 0)
(0.000347611 -0.00224048 0)
(0.000325518 -0.00225378 0)
(0.00034065 -0.00224555 0)
(0.000319171 -0.00225879 0)
(0.00033431 -0.00225054 0)
(0.000313403 -0.00226372 0)
(0.000328523 -0.00225545 0)
(0.000308146 -0.00226857 0)
(0.000323225 -0.00226028 0)
(0.000303344 -0.00227334 0)
(0.000318358 -0.00226502 0)
(0.000298944 -0.00227802 0)
(0.000313868 -0.00226967 0)
(0.000294902 -0.00228263 0)
(0.000309708 -0.00227424 0)
(0.000291176 -0.00228716 0)
(0.000305827 -0.0022787 0)
(0.000710923 -0.00163379 0)
(0.000739857 -0.00165284 0)
(0.000705315 -0.00167686 0)
(0.000733707 -0.00169536 0)
(0.000699634 -0.00171837 0)
(0.000727538 -0.00173613 0)
(0.000693751 -0.00175825 0)
(0.000721156 -0.00177502 0)
(0.000687573 -0.0017963 0)
(0.000714465 -0.00181204 0)
(0.000681042 -0.00183255 0)
(0.000707391 -0.0018472 0)
(0.000674101 -0.00186698 0)
(0.000699867 -0.00188048 0)
(0.0006667 -0.00189957 0)
(0.000691834 -0.00191187 0)
(0.000658787 -0.00193031 0)
(0.000683237 -0.00194132 0)
(0.000650316 -0.00195915 0)
(0.000674026 -0.0019688 0)
(0.00064124 -0.00198607 0)
(0.000664153 -0.00199429 0)
(0.000631516 -0.00201105 0)
(0.000653578 -0.00201775 0)
(0.000621105 -0.00203404 0)
(0.000642279 -0.00203918 0)
(0.000609984 -0.00205504 0)
(0.000630254 -0.0020586 0)
(0.000598166 -0.00207407 0)
(0.000617519 -0.00207603 0)
(0.00058568 -0.00209116 0)
(0.000604115 -0.00209153 0)
(0.000572567 -0.0021064 0)
(0.000590119 -0.00210522 0)
(0.000558899 -0.00211987 0)
(0.000575646 -0.00211724 0)
(0.000544804 -0.00213173 0)
(0.000560831 -0.00212778 0)
(0.000530427 -0.00214216 0)
(0.000545848 -0.00213704 0)
(0.00051592 -0.00215136 0)
(0.000530874 -0.00214526 0)
(0.000501475 -0.00215955 0)
(0.000516084 -0.00215264 0)
(0.000487236 -0.00216691 0)
(0.000501636 -0.00215939 0)
(0.00047338 -0.00217366 0)
(0.000487663 -0.00216565 0)
(0.000460001 -0.00217993 0)
(0.000474244 -0.00217154 0)
(0.000447188 -0.00218582 0)
(0.000461491 -0.00217719 0)
(0.000435048 -0.00219146 0)
(0.000449426 -0.00218263 0)
(0.000423593 -0.00219688 0)
(0.000438055 -0.00218789 0)
(0.000412847 -0.00220212 0)
(0.000427447 -0.00219303 0)
(0.00040293 -0.00220728 0)
(0.000417715 -0.00219817 0)
(0.000393888 -0.00221243 0)
(0.000408808 -0.0022033 0)
(0.000385633 -0.00221754 0)
(0.00040065 -0.00220838 0)
(0.000378088 -0.0022226 0)
(0.000393167 -0.0022134 0)
(0.000371181 -0.0022276 0)
(0.000386294 -0.00221837 0)
(0.000364849 -0.00223252 0)
(0.000379968 -0.00222326 0)
(0.000359031 -0.00223737 0)
(0.000374133 -0.00222807 0)
(0.000353675 -0.00224215 0)
(0.000368736 -0.00223281 0)
(0.000348732 -0.00224685 0)
(0.000363727 -0.00223746 0)
(0.00034416 -0.00225148 0)
(0.00035906 -0.00224203 0)
(0.000339915 -0.00225602 0)
(0.000354689 -0.0022465 0)
(0.000802963 -0.0016495 0)
(0.000830983 -0.00166859 0)
(0.000796392 -0.00169149 0)
(0.000823836 -0.00170991 0)
(0.00078969 -0.00173182 0)
(0.000816588 -0.00174937 0)
(0.000782726 -0.00177041 0)
(0.000809057 -0.00178685 0)
(0.000775402 -0.00180706 0)
(0.000801141 -0.00182231 0)
(0.000767644 -0.00184176 0)
(0.000792749 -0.00185575 0)
(0.000759385 -0.00187449 0)
(0.000783806 -0.00188714 0)
(0.000750562 -0.00190522 0)
(0.000774242 -0.00191645 0)
(0.000741117 -0.00193391 0)
(0.000763995 -0.00194362 0)
(0.000730991 -0.00196052 0)
(0.000753007 -0.00196863 0)
(0.00072013 -0.00198501 0)
(0.000741234 -0.00199144 0)
(0.000708491 -0.00200737 0)
(0.000728646 -0.00201206 0)
(0.000696053 -0.00202759 0)
(0.000715241 -0.00203052 0)
(0.000682824 -0.0020457 0)
(0.000701045 -0.00204687 0)
(0.00066884 -0.00206176 0)
(0.000686116 -0.0020612 0)
(0.000654167 -0.00207588 0)
(0.000670553 -0.00207365 0)
(0.000638908 -0.00208818 0)
(0.0006545 -0.00208443 0)
(0.000623207 -0.00209887 0)
(0.000638135 -0.00209377 0)
(0.000607251 -0.00210818 0)
(0.000621655 -0.00210193 0)
(0.000591233 -0.00211637 0)
(0.000605268 -0.00210918 0)
(0.000575345 -0.00212366 0)
(0.000589154 -0.00211575 0)
(0.000559763 -0.00213029 0)
(0.000573476 -0.00212183 0)
(0.000544641 -0.00213645 0)
(0.000558341 -0.00212756 0)
(0.000530057 -0.00214225 0)
(0.000543824 -0.00213305 0)
(0.000516108 -0.00214781 0)
(0.000530008 -0.0021384 0)
(0.000502862 -0.00215321 0)
(0.000516897 -0.00214362 0)
(0.000490319 -0.00215846 0)
(0.0005045 -0.00214874 0)
(0.000478488 -0.00216359 0)
(0.000492796 -0.00215373 0)
(0.000467396 -0.00216863 0)
(0.000481926 -0.00215873 0)
(0.000457161 -0.00217368 0)
(0.000471883 -0.00216375 0)
(0.000447743 -0.00217873 0)
(0.000462612 -0.00216877 0)
(0.000439067 -0.00218375 0)
(0.000454049 -0.00217375 0)
(0.00043107 -0.00218873 0)
(0.000446132 -0.00217869 0)
(0.00042369 -0.00219367 0)
(0.000438804 -0.00218357 0)
(0.00041687 -0.00219854 0)
(0.000432012 -0.00218839 0)
(0.00041056 -0.00220334 0)
(0.000425705 -0.00219314 0)
(0.000404711 -0.00220807 0)
(0.000419835 -0.00219782 0)
(0.000399279 -0.00221274 0)
(0.000414358 -0.00220242 0)
(0.000394223 -0.00221733 0)
(0.000409229 -0.00220694 0)
(0.000389501 -0.00222184 0)
(0.000404406 -0.00221136 0)
(0.000893333 -0.00166617 0)
(0.000920375 -0.00168508 0)
(0.000885673 -0.00170689 0)
(0.000912053 -0.00172499 0)
(0.000877827 -0.00174581 0)
(0.000903574 -0.00176287 0)
(0.000869636 -0.00178282 0)
(0.000894725 -0.0017986 0)
(0.000860991 -0.00181774 0)
(0.000885389 -0.00183213 0)
(0.000851809 -0.00185052 0)
(0.000875464 -0.00186344 0)
(0.000842014 -0.00188113 0)
(0.000864864 -0.00189248 0)
(0.000831532 -0.00190954 0)
(0.000853511 -0.0019192 0)
(0.000820297 -0.00193568 0)
(0.000841343 -0.00194356 0)
(0.000808248 -0.00195952 0)
(0.000828312 -0.00196554 0)
(0.000795342 -0.00198104 0)
(0.000814394 -0.00198516 0)
(0.000781562 -0.00200026 0)
(0.000799589 -0.00200244 0)
(0.000766918 -0.00201723 0)
(0.000783933 -0.00201748 0)
(0.000751452 -0.00203202 0)
(0.0007675 -0.0020304 0)
(0.00073525 -0.00204477 0)
(0.000750415 -0.00204141 0)
(0.000718452 -0.00205568 0)
(0.000732864 -0.00205076 0)
(0.000701245 -0.00206502 0)
(0.000715062 -0.00205875 0)
(0.000683842 -0.00207306 0)
(0.00069724 -0.00206571 0)
(0.000666471 -0.00208011 0)
(0.00067962 -0.00207192 0)
(0.00064933 -0.00208644 0)
(0.000662388 -0.00207763 0)
(0.000632605 -0.00209228 0)
(0.000645674 -0.002083 0)
(0.0006164 -0.00209779 0)
(0.000629564 -0.00208816 0)
(0.000600801 -0.00210308 0)
(0.000614132 -0.00209321 0)
(0.000585898 -0.00210825 0)
(0.000599416 -0.00209819 0)
(0.000571703 -0.00211333 0)
(0.000585403 -0.0021031 0)
(0.000558208 -0.00211832 0)
(0.00057209 -0.00210796 0)
(0.000545415 -0.00212324 0)
(0.000559461 -0.00211275 0)
(0.000533331 -0.00212811 0)
(0.000547605 -0.00211756 0)
(0.000522047 -0.00213299 0)
(0.000536556 -0.00212241 0)
(0.000511576 -0.0021379 0)
(0.000526275 -0.00212728 0)
(0.00050186 -0.00214281 0)
(0.000516713 -0.00213214 0)
(0.000492842 -0.00214771 0)
(0.000507817 -0.00213698 0)
(0.000484468 -0.00215257 0)
(0.000499535 -0.00214178 0)
(0.000476686 -0.00215739 0)
(0.000491821 -0.00214653 0)
(0.000469448 -0.00216215 0)
(0.000484626 -0.00215123 0)
(0.000462709 -0.00216685 0)
(0.000477906 -0.00215586 0)
(0.000456425 -0.00217149 0)
(0.000471619 -0.00216043 0)
(0.000450555 -0.00217606 0)
(0.000465723 -0.00216492 0)
(0.000445063 -0.00218056 0)
(0.000460179 -0.00216932 0)
(0.000439907 -0.00218498 0)
(0.000454946 -0.00217363 0)
(0.000981625 -0.00168351 0)
(0.00100752 -0.00170198 0)
(0.000972757 -0.00172264 0)
(0.000997914 -0.00174012 0)
(0.000963617 -0.00175979 0)
(0.000988049 -0.00177604 0)
(0.000954032 -0.00179485 0)
(0.000977697 -0.00180959 0)
(0.000943879 -0.0018276 0)
(0.000966729 -0.00184071 0)
(0.000933059 -0.00185799 0)
(0.000955034 -0.00186936 0)
(0.000921488 -0.00188598 0)
(0.000942518 -0.00189548 0)
(0.000909093 -0.0019115 0)
(0.000929114 -0.00191903 0)
(0.000895804 -0.00193452 0)
(0.000914772 -0.00194 0)
(0.000881577 -0.00195503 0)
(0.000899467 -0.00195842 0)
(0.0008664 -0.00197306 0)
(0.000883212 -0.00197433 0)
(0.000850293 -0.00198867 0)
(0.000866056 -0.00198787 0)
(0.000833319 -0.00200198 0)
(0.000848102 -0.00199919 0)
(0.000815598 -0.00201317 0)
(0.000829521 -0.00200859 0)
(0.000797307 -0.00202253 0)
(0.000810542 -0.00201639 0)
(0.000778676 -0.00203037 0)
(0.000791424 -0.00202296 0)
(0.000759964 -0.00203707 0)
(0.000772422 -0.00202869 0)
(0.000741408 -0.00204295 0)
(0.00075376 -0.00203386 0)
(0.000723212 -0.00204831 0)
(0.000735589 -0.00203871 0)
(0.000705522 -0.00205334 0)
(0.00071802 -0.00204338 0)
(0.000688432 -0.00205818 0)
(0.000701126 -0.00204796 0)
(0.000672022 -0.00206294 0)
(0.00068494 -0.00205252 0)
(0.000656319 -0.00206765 0)
(0.000669454 -0.00205706 0)
(0.000641304 -0.00207233 0)
(0.000654646 -0.00206158 0)
(0.000626971 -0.00207698 0)
(0.000640524 -0.0020661 0)
(0.000613331 -0.00208161 0)
(0.000627097 -0.00207061 0)
(0.000600394 -0.00208622 0)
(0.00061443 -0.00207518 0)
(0.000588234 -0.00209089 0)
(0.000602525 -0.00207981 0)
(0.000576848 -0.00209561 0)
(0.000591359 -0.00208446 0)
(0.0005662 -0.00210034 0)
(0.000580897 -0.00208913 0)
(0.000556249 -0.00210508 0)
(0.000571102 -0.00209379 0)
(0.000546951 -0.00210979 0)
(0.000561933 -0.00209843 0)
(0.000538263 -0.00211448 0)
(0.000553347 -0.00210303 0)
(0.000530142 -0.00211912 0)
(0.000545305 -0.00210759 0)
(0.000522546 -0.00212372 0)
(0.000537766 -0.0021121 0)
(0.000515434 -0.00212826 0)
(0.00053069 -0.00211656 0)
(0.00050877 -0.00213274 0)
(0.000524039 -0.00212095 0)
(0.000502515 -0.00213715 0)
(0.000517775 -0.00212527 0)
(0.000496634 -0.0021415 0)
(0.000511862 -0.00212951 0)
(0.000491089 -0.00214578 0)
(0.000506263 -0.00213366 0)
(0.00106767 -0.0017009 0)
(0.00109226 -0.0017186 0)
(0.0010574 -0.0017381 0)
(0.00108116 -0.00175457 0)
(0.00104676 -0.00177307 0)
(0.00106967 -0.00178805 0)
(0.00103555 -0.0018057 0)
(0.00105756 -0.00181889 0)
(0.00102363 -0.00183576 0)
(0.00104469 -0.00184703 0)
(0.00101091 -0.00186319 0)
(0.00103094 -0.0018724 0)
(0.000997285 -0.00188794 0)
(0.00101624 -0.00189498 0)
(0.000982682 -0.00190997 0)
(0.00100052 -0.00191477 0)
(0.000967065 -0.00192928 0)
(0.000983765 -0.0019318 0)
(0.000950443 -0.00194592 0)
(0.000966017 -0.00194617 0)
(0.000932849 -0.00195999 0)
(0.000947343 -0.00195801 0)
(0.000914364 -0.00197164 0)
(0.000927878 -0.00196758 0)
(0.000895136 -0.00198112 0)
(0.000907841 -0.00197524 0)
(0.000875394 -0.00198879 0)
(0.000887509 -0.00198141 0)
(0.000855438 -0.00199509 0)
(0.000867189 -0.00198657 0)
(0.00083555 -0.00200043 0)
(0.000847152 -0.0019911 0)
(0.000815982 -0.00200517 0)
(0.000827612 -0.0019953 0)
(0.000796904 -0.00200958 0)
(0.000808685 -0.00199934 0)
(0.000778434 -0.00201385 0)
(0.000790425 -0.00200334 0)
(0.000760619 -0.00201805 0)
(0.000772845 -0.00200734 0)
(0.000743498 -0.00202226 0)
(0.000755971 -0.00201138 0)
(0.000727073 -0.00202647 0)
(0.000739794 -0.00201544 0)
(0.00071133 -0.00203069 0)
(0.000724307 -0.00201953 0)
(0.000696274 -0.00203493 0)
(0.000709529 -0.00202367 0)
(0.000681934 -0.00203922 0)
(0.000695474 -0.00202789 0)
(0.000668315 -0.00204356 0)
(0.000682136 -0.00203216 0)
(0.000655429 -0.00204796 0)
(0.000669508 -0.00203648 0)
(0.000643263 -0.0020524 0)
(0.000657576 -0.00204084 0)
(0.0006318 -0.00205687 0)
(0.000646321 -0.00204522 0)
(0.000621016 -0.00206136 0)
(0.00063572 -0.00204962 0)
(0.00061088 -0.00206584 0)
(0.000625742 -0.00205401 0)
(0.000601357 -0.00207031 0)
(0.000616353 -0.00205838 0)
(0.000592412 -0.00207475 0)
(0.00060752 -0.00206273 0)
(0.000584009 -0.00207916 0)
(0.000599207 -0.00206704 0)
(0.000576111 -0.00208353 0)
(0.000591379 -0.0020713 0)
(0.000568684 -0.00208785 0)
(0.000584001 -0.00207552 0)
(0.000561692 -0.00209212 0)
(0.000577038 -0.00207968 0)
(0.000555103 -0.00209632 0)
(0.000570456 -0.00208377 0)
(0.000548882 -0.00210047 0)
(0.000564222 -0.0020878 0)
(0.000542996 -0.00210455 0)
(0.000558302 -0.00209173 0)
(0.00115111 -0.00171768 0)
(0.00117421 -0.00173417 0)
(0.00113924 -0.00175247 0)
(0.00116137 -0.00176744 0)
(0.00112685 -0.00178474 0)
(0.00114799 -0.00179789 0)
(0.00111375 -0.00181435 0)
(0.00113385 -0.0018254 0)
(0.00109978 -0.00184109 0)
(0.00111879 -0.00184989 0)
(0.00108486 -0.00186492 0)
(0.00110271 -0.00187134 0)
(0.00106889 -0.00188579 0)
(0.00108556 -0.00188977 0)
(0.00105185 -0.00190372 0)
(0.00106734 -0.00190524 0)
(0.00103376 -0.00191881 0)
(0.00104807 -0.00191788 0)
(0.00101464 -0.00193117 0)
(0.00102785 -0.00192786 0)
(0.000994605 -0.00194098 0)
(0.00100686 -0.00193552 0)
(0.000973863 -0.00194859 0)
(0.000985384 -0.00194134 0)
(0.000952728 -0.0019545 0)
(0.000963768 -0.00194587 0)
(0.000931552 -0.00195924 0)
(0.000942379 -0.00194969 0)
(0.000910611 -0.00196328 0)
(0.000921453 -0.00195314 0)
(0.000890156 -0.00196699 0)
(0.00090116 -0.00195649 0)
(0.000870328 -0.00197058 0)
(0.000881569 -0.00195983 0)
(0.00085118 -0.00197414 0)
(0.000862697 -0.0019632 0)
(0.000832724 -0.00197772 0)
(0.000844544 -0.00196664 0)
(0.000814985 -0.00198138 0)
(0.000827125 -0.00197017 0)
(0.000797961 -0.0019851 0)
(0.000810415 -0.00197378 0)
(0.000781644 -0.00198888 0)
(0.000794406 -0.00197746 0)
(0.000766035 -0.00199272 0)
(0.000779095 -0.0019812 0)
(0.000751133 -0.00199663 0)
(0.000764475 -0.00198501 0)
(0.000736924 -0.0020006 0)
(0.000750536 -0.00198889 0)
(0.0007234 -0.00200463 0)
(0.00073727 -0.00199282 0)
(0.000710558 -0.00200872 0)
(0.000724669 -0.00199681 0)
(0.000698386 -0.00201284 0)
(0.000712721 -0.00200083 0)
(0.00068687 -0.00201699 0)
(0.000701407 -0.00200488 0)
(0.000675987 -0.00202116 0)
(0.000690705 -0.00200894 0)
(0.000665712 -0.00202534 0)
(0.00068059 -0.002013 0)
(0.000656015 -0.0020295 0)
(0.000671033 -0.00201705 0)
(0.000646867 -0.00203364 0)
(0.000662004 -0.00202108 0)
(0.000638236 -0.00203776 0)
(0.000653474 -0.00202508 0)
(0.000630092 -0.00204185 0)
(0.00064541 -0.00202905 0)
(0.000622402 -0.00204589 0)
(0.000637783 -0.00203298 0)
(0.000615136 -0.00204989 0)
(0.00063056 -0.00203685 0)
(0.000608263 -0.00205383 0)
(0.00062371 -0.00204068 0)
(0.000601752 -0.00205773 0)
(0.000617203 -0.00204443 0)
(0.00059557 -0.00206156 0)
(0.000611007 -0.00204811 0)
(0.00123162 -0.00173296 0)
(0.00125301 -0.0017477 0)
(0.00121786 -0.00176476 0)
(0.00123813 -0.00177762 0)
(0.00120343 -0.00179367 0)
(0.00122257 -0.00180438 0)
(0.00118814 -0.0018196 0)
(0.0012061 -0.00182787 0)
(0.00117184 -0.00184236 0)
(0.00118857 -0.00184804 0)