/*--------------------------------*- C++ -*----------------------------------*\
| =========                 |                                                 |
| \\      /  F ield         | OpenFOAM: The Open Source CFD Toolbox           |
|  \\    /   O peration     | Version:  v2012                                 |
|   \\  /    A nd           | Website:  www.openfoam.com                      |
|    \\/     M anipulation  |                                                 |
\*---------------------------------------------------------------------------*/
FoamFile
{
    version     2.0;
    format      ascii;
    class       pointVectorField;
    location    "11";
    object      pointD;
}
// * * * * * * * * * * * * * * * * * * * * * * * * * * * * * * * * * * * * * //

dimensions      [0 1 0 0 0 0 0];


internalField   nonuniform List<vector> 
32562
(
(0.00373176 0 1.55112e-21)
(0.00499959 0 1.16416e-21)
(0.00460649 -0.000384217 0)
(0 -0.00283914 -1.16311e-22)
(0 -0.00136162 1.10114e-20)
(0.00384001 0 0)
(0 -0.00267304 0)
(0.00243855 -0.000759158 0)
(0.00112788 -0.00141084 6.58642e-22)
(0.00482572 -9.32421e-05 1.26678e-20)
(0.00290176 -0.00119562 2.51017e-21)
(0.00290176 -0.00119562 2.51017e-21)
(0.00243855 -0.000759158 0)
(0 -0.00267304 0)
(0 -0.00136162 1.10114e-20)
(0.00373176 0 1.55112e-21)
(0.00384001 0 0)
(0.00499959 0 1.16416e-21)
(0.00482572 -9.32421e-05 1.26678e-20)
(0.00460649 -0.000384217 0)
(0.00112788 -0.00141084 6.58642e-22)
(0 -0.00283914 -1.16311e-22)
(5.16768e-05 -0.00266979 0)
(0.000104138 -0.00265955 0)
(0.000157038 -0.00264325 0)
(0.000210558 -0.00262134 0)
(0.00026493 -0.00259414 0)
(0.000320592 -0.00256173 0)
(0.00037802 -0.00252413 0)
(0.000437474 -0.00248151 0)
(0.000499014 -0.00243418 0)
(0.000562544 -0.00238257 0)
(0.000627883 -0.00232722 0)
(0.000694764 -0.00226875 0)
(0.000762817 -0.00220787 0)
(0.00083161 -0.00214534 0)
(0.00090067 -0.0020819 0)
(0.000969448 -0.00201836 0)
(0.00103726 -0.0019556 0)
(0.00110332 -0.00189458 0)
(0.00116703 -0.00183594 0)
(0.00122845 -0.00177957 0)
(0.00128833 -0.00172468 0)
(0.00134764 -0.00167021 0)
(0.0014071 -0.00161558 0)
(0.0014668 -0.00156078 0)
(0.00152667 -0.00150605 0)
(0.0015867 -0.00145158 0)
(0.00164685 -0.00139753 0)
(0.00170712 -0.001344 0)
(0.00176748 -0.00129108 0)
(0.00182792 -0.00123885 0)
(0.00188841 -0.00118738 0)
(0.00194891 -0.00113674 0)
(0.00200939 -0.00108698 0)
(0.00206982 -0.00103815 0)
(0.00213019 -0.000990344 0)
(0.00219045 -0.000943566 0)
(0.00225038 -0.000897719 0)
(0.00230943 -0.000852744 0)
(0.00236811 -0.000810444 0)
(0.00251061 -0.00070984 0)
(0.00256816 -0.000670813 0)
(0.00262527 -0.000633144 0)
(0.00268184 -0.000596718 0)
(0.00273777 -0.000561551 0)
(0.00279297 -0.000527674 0)
(0.00284738 -0.000495103 0)
(0.00290093 -0.000463844 0)
(0.00295353 -0.000433897 0)
(0.00300514 -0.000405256 0)
(0.00305568 -0.000377911 0)
(0.0031051 -0.000351847 0)
(0.00315334 -0.000327044 0)
(0.00320033 -0.000303479 0)
(0.00324603 -0.000281126 0)
(0.00329038 -0.000259957 0)
(0.00333333 -0.000239939 0)
(0.00337482 -0.000221038 0)
(0.00341481 -0.000203217 0)
(0.00345324 -0.000186438 0)
(0.00349008 -0.000170661 0)
(0.00352527 -0.000155844 0)
(0.00355877 -0.000141942 0)
(0.00359054 -0.000128911 0)
(0.00362055 -0.000116704 0)
(0.00364875 -0.000105273 0)
(0.00367512 -9.45699e-05 0)
(0.00369961 -8.45449e-05 0)
(0.0037222 -7.51473e-05 0)
(0.00374286 -6.6326e-05 0)
(0.00376157 -5.80293e-05 0)
(0.0037783 -5.02052e-05 0)
(0.00379303 -4.28019e-05 0)
(0.00380575 -3.5769e-05 0)
(0.00381644 -2.90583e-05 0)
(0.00382511 -2.26244e-05 0)
(0.00383177 -1.64231e-05 0)
(0.00383648 -1.0408e-05 0)
(0.00383935 -4.49759e-06 0)
(0.00373779 0 0)
(0.00374464 0 0)
(0.00375089 0 0)
(0.00375663 0 0)
(0.00376193 0 0)
(0.00376684 0 0)
(0.00377141 0 0)
(0.00377564 0 0)
(0.00377958 0 0)
(0.00378325 0 0)
(0.00378667 0 0)
(0.00378986 0 0)
(0.00379284 0 0)
(0.00379564 0 0)
(0.00379825 0 0)
(0.00380071 0 0)
(0.00380303 0 0)
(0.00380522 0 0)
(0.00380729 0 0)
(0.00380926 0 0)
(0.00381113 0 0)
(0.00381292 0 0)
(0.00381463 0 0)
(0.00381628 0 0)
(0.00381787 0 0)
(0.00381942 0 0)
(0.00382092 0 0)
(0.00382239 0 0)
(0.00382384 0 0)
(0.00382526 0 0)
(0.00382667 0 0)
(0.00382807 0 0)
(0.00382948 0 0)
(0.00383089 0 0)
(0.00383232 0 0)
(0.00383379 0 0)
(0.00383531 0 0)
(0.00383689 0 0)
(0.00383843 0 0)
(0.00384254 0 0)
(0.00384596 0 0)
(0.0038496 0 0)
(0.00385363 0 0)
(0.00385804 0 0)
(0.00386278 0 0)
(0.00386784 0 0)
(0.00387323 0 0)
(0.00387897 0 0)
(0.00388504 0 0)
(0.00389146 0 0)
(0.00389823 0 0)
(0.00390535 0 0)
(0.00391282 0 0)
(0.00392064 0 0)
(0.00392882 0 0)
(0.00393735 0 0)
(0.00394623 0 0)
(0.00395546 0 0)
(0.00396503 0 0)
(0.00397495 0 0)
(0.00398522 0 0)
(0.00399582 0 0)
(0.00400677 0 0)
(0.00401804 0 0)
(0.00402966 0 0)
(0.0040416 0 0)
(0.00405386 0 0)
(0.00406645 0 0)
(0.00407936 0 0)
(0.00409258 0 0)
(0.00410611 0 0)
(0.00411995 0 0)
(0.0041341 0 0)
(0.00414854 0 0)
(0.00416328 0 0)
(0.00417831 0 0)
(0.00419362 0 0)
(0.00420921 0 0)
(0.00422508 0 0)
(0.00424121 0 0)
(0.00425761 0 0)
(0.00427427 0 0)
(0.00429118 0 0)
(0.00430834 0 0)
(0.00432573 0 0)
(0.00434336 0 0)
(0.00436121 0 0)
(0.00437928 0 0)
(0.00439756 0 0)
(0.00441605 0 0)
(0.00443473 0 0)
(0.00445361 0 0)
(0.00447267 0 0)
(0.0044919 0 0)
(0.0045113 0 0)
(0.00453086 0 0)
(0.00455057 0 0)
(0.00457043 0 0)
(0.00459042 0 0)
(0.00461054 0 0)
(0.00463078 0 0)
(0.00465114 0 0)
(0.00467159 0 0)
(0.00469214 0 0)
(0.00471277 0 0)
(0.00473348 0 0)
(0.00475425 0 0)
(0.00477506 0 0)
(0.00479591 0 0)
(0.00481679 0 0)
(0.00483768 0 0)
(0.00485856 0 0)
(0.00487942 0 0)
(0.00490024 0 0)
(0.004921 0 0)
(0.00494168 0 0)
(0.00496225 0 0)
(0.00498266 0 0)
(0.00500629 -6.36096e-07 6.14265e-21)
(0.00500602 -1.05542e-06 7.53037e-21)
(0.00500544 -1.47408e-06 3.36944e-23)
(0.00500455 -1.92458e-06 -6.30787e-21)
(0.00500336 -2.41789e-06 -3.79163e-21)
(0.00500189 -2.95941e-06 -1.37726e-21)
(0.00500013 -3.55575e-06 -3.78156e-21)
(0.0049981 -4.21452e-06 -2.39413e-23)
(0.0049958 -4.94341e-06 2.23785e-23)
(0.00499322 -5.74999e-06 -4.69515e-21)
(0.00499038 -6.64169e-06 -3.89528e-21)
(0.00498729 -7.62582e-06 2.3369e-21)
(0.00498394 -8.70952e-06 -5.5678e-21)
(0.00498034 -9.89976e-06 -9.46281e-21)
(0.00497651 -1.12033e-05 -3.96211e-21)
(0.00497244 -1.26266e-05 -6.20815e-21)
(0.00496814 -1.41758e-05 -2.24604e-21)
(0.00496362 -1.58569e-05 -4.13686e-22)
(0.00495889 -1.76755e-05 -4.266e-23)
(0.00495396 -1.96366e-05 -1.84733e-21)
(0.00494882 -2.17452e-05 -3.85184e-21)
(0.0049435 -2.40057e-05 7.34699e-23)
(0.004938 -2.64222e-05 -2.89671e-22)
(0.00493232 -2.89981e-05 2.20014e-22)
(0.00492648 -3.17369e-05 6.35262e-21)
(0.00492048 -3.46415e-05 6.36073e-21)
(0.00491433 -3.77143e-05 2.22474e-21)
(0.00490805 -4.09578e-05 -6.58587e-21)
(0.00490163 -4.4374e-05 -8.83255e-21)
(0.00489508 -4.79651e-05 4.49752e-21)
(0.00488842 -5.17334e-05 6.73213e-21)
(0.00488165 -5.56811e-05 -6.88329e-21)
(0.00487477 -5.98116e-05 -4.52191e-21)
(0.00486779 -6.41285e-05 2.26941e-21)
(0.00486072 -6.8637e-05 -2.39928e-21)
(0.00485356 -7.33446e-05 -4.77438e-21)
(0.00484633 -7.82621e-05 -2.32062e-21)
(0.00483905 -8.33999e-05 5.03212e-21)
(0.00483172 -8.8763e-05 1.3086e-20)
(0.00482174 -9.62565e-05 1.30298e-20)
(0.00481841 -9.88728e-05 1.71033e-20)
(0.00481506 -0.000101578 2.12143e-20)
(0.00481173 -0.000104365 1.7186e-20)
(0.00480843 -0.000107229 1.31748e-20)
(0.00480516 -0.000110167 1.7296e-20)
(0.00480194 -0.000113181 1.73396e-20)
(0.00479877 -0.000116273 2.60854e-20)
(0.00479567 -0.000119447 2.16056e-20)
(0.00479264 -0.000122707 4.20085e-21)
(0.00478971 -0.000126053 4.49622e-21)
(0.00478689 -0.000129484 1.3283e-20)
(0.0047842 -0.000132996 1.31413e-20)
(0.00478166 -0.000136583 8.77562e-21)
(0.00477928 -0.000140233 1.77078e-20)
(0.00477709 -0.000143934 3.08023e-20)
(0.0047751 -0.000147662 2.66143e-20)
(0.00477333 -0.000151331 9.09872e-21)
(0.00477171 -0.000155308 -8.69041e-21)
(0.00477039 -0.000159196 -6.85563e-22)
(0.0047694 -0.00016252 1.72738e-20)
(0.00476844 -0.000165587 9.26896e-21)
(0.00476746 -0.000168283 3.85725e-21)
(0.0047663 -0.000170529 1.209e-20)
(0.00476477 -0.000172317 1.23873e-20)
(0.00476267 -0.000173698 1.23652e-20)
(0.00475986 -0.000174822 1.2739e-20)
(0.00475622 -0.000175946 3.38396e-21)
(0.00475178 -0.000177398 -4.82205e-21)
(0.00474666 -0.000179462 4.18071e-23)
(0.00474111 -0.000182253 -9.31686e-21)
(0.0047354 -0.000185709 -2.78208e-20)
(0.00472975 -0.000189678 -1.33952e-20)
(0.00472431 -0.000193999 9.58784e-21)
(0.00471915 -0.000198539 9.25322e-21)
(0.00471432 -0.000203203 5.30237e-21)
(0.00470981 -0.000207929 4.24774e-21)
(0.00470561 -0.000212678 -9.31837e-21)
(0.00470171 -0.000217421 -4.43965e-21)
(0.00469808 -0.000222138 1.41181e-20)
(0.00469472 -0.00022681 2.29112e-20)
(0.00469159 -0.00023142 9.00654e-21)
(0.00468867 -0.000235955 -4.57477e-21)
(0.00468593 -0.000240407 9.1915e-21)
(0.00468334 -0.000244777 1.81766e-20)
(0.00468087 -0.000249069 1.36321e-20)
(0.0046785 -0.000253286 9.03213e-21)
(0.0046762 -0.000257438 4.5794e-21)
(0.00467395 -0.000261539 -8.90903e-21)
(0.00467173 -0.000265597 -1.81415e-20)
(0.00466955 -0.000269625 -9.12873e-21)
(0.00466738 -0.000273631 4.5641e-21)
(0.00466523 -0.00027762 4.5641e-21)
(0.00466308 -0.000281598 0)
(0.00466095 -0.000285569 -4.4228e-21)
(0.00465883 -0.000289536 -1.79752e-20)
(0.00465671 -0.000293502 -1.35524e-20)
(0.00465461 -0.000297467 0)
(0.00465251 -0.000301434 0)
(0.00465042 -0.000305403 0)
(0.00464835 -0.000309373 0)
(0.00464628 -0.000313346 4.5774e-21)
(0.00464423 -0.000317319 -4.40635e-21)
(0.00464219 -0.000321293 -1.35658e-20)
(0.00464016 -0.000325268 8.79735e-21)
(0.00463814 -0.000329242 1.33794e-20)
(0.00463614 -0.000333214 1.96703e-22)
(0.00463414 -0.000337185 -4.3926e-21)
(0.00463216 -0.000341154 -4.5893e-21)
(0.00463018 -0.00034512 -4.59133e-21)
(0.00462822 -0.00034908 8.79826e-26)
(0.00462626 -0.000353033 2.13768e-22)
(0.0046243 -0.000356979 -1.33446e-20)
(0.00462235 -0.000360922 -1.79325e-20)
(0.00462039 -0.00036486 -9.17817e-21)
(0.00461844 -0.000368795 8.75085e-21)
(0.00461648 -0.000372727 1.35498e-20)
(0.00461452 -0.000376656 -4.37633e-21)
(0.00461255 -0.000380584 -8.96266e-21)
(0.00458697 -0.000389001 1.23483e-22)
(0.00455826 -0.000395181 -2.38961e-22)
(0.00452961 -0.000401336 -3.62444e-22)
(0.00450102 -0.000407418 2.26231e-22)
(0.00447245 -0.000413382 1.21371e-22)
(0.00444389 -0.000419199 -3.29695e-22)
(0.0044153 -0.000424852 -2.24834e-22)
(0.00438667 -0.000430319 2.13637e-22)
(0.00435794 -0.000435588 2.13637e-22)
(0.00432901 -0.000440724 1.46492e-22)
(0.00430001 -0.000445832 1.46492e-22)
(0.00427098 -0.000450586 5.27428e-24)
(0.00424173 -0.000454856 -1.31036e-23)
(0.0042123 -0.000458979 3.40752e-22)
(0.00418274 -0.000462962 1.69622e-22)
(0.00415294 -0.00046671 -2.254e-22)
(0.00412287 -0.000470213 -3.58926e-23)
(0.00409251 -0.000473475 -3.67979e-22)
(0.00406181 -0.000476518 -1.42609e-22)
(0.00403075 -0.000479379 3.14998e-22)
(0.00399936 -0.000482045 4.66624e-22)
(0.00396761 -0.00048454 4.91434e-22)
(0.00393544 -0.000486912 2.44762e-22)
(0.00390285 -0.000489152 -2.65315e-22)
(0.00386982 -0.000491295 -1.13948e-22)
(0.00383632 -0.000493377 2.62971e-22)
(0.00380236 -0.00049543 -2.96608e-22)
(0.00376794 -0.000497447 -2.47806e-22)
(0.00373302 -0.000499443 3.00818e-23)
(0.00369759 -0.000501458 1.30495e-22)
(0.00366164 -0.000503516 -3.11383e-23)
(0.00362514 -0.000505649 -5.96506e-22)
(0.00358809 -0.000507891 -4.34873e-22)
(0.00355049 -0.000510259 0)
(0.00351229 -0.000512769 3.02277e-22)
(0.0034735 -0.000515458 6.05079e-22)
(0.00343411 -0.000518363 3.02802e-22)
(0.00339408 -0.000521521 3.00939e-22)
(0.0033534 -0.000524962 3.00939e-22)
(0.00331209 -0.000528714 -2.00438e-22)
(0.00327011 -0.000532807 3.05253e-22)
(0.00322747 -0.000537286 8.57447e-22)
(0.00318414 -0.000542224 5.59356e-22)
(0.00314015 -0.000547578 -4.56705e-23)
(0.00309545 -0.000553378 -2.53271e-22)
(0.00305001 -0.000559742 2.89024e-23)
(0.00300384 -0.000566711 -2.25583e-22)
(0.00295694 -0.000574312 -9.1988e-22)
(0.00290932 -0.000582578 -7.83653e-23)
(0.00286096 -0.000591558 6.49354e-22)
(0.00281189 -0.00060126 6.54835e-22)
(0.00276208 -0.000611763 1.62945e-22)
(0.00271153 -0.000623144 -2.53302e-22)
(0.00266025 -0.000635414 1.76264e-22)
(0.00260825 -0.000648595 -1.42676e-22)
(0.00255549 -0.000662759 -5.68481e-22)
(0.00250201 -0.000677982 1.54538e-22)
(0.00244783 -0.00069429 4.39544e-23)
(0.00239297 -0.000711732 5.95654e-23)
(0.00233741 -0.000730362 5.95954e-22)
(0.0022812 -0.000750238 -7.26393e-22)
(0.0022244 -0.000771318 3.38642e-23)
(0.00216693 -0.000793732 8.16101e-22)
(0.00210886 -0.000817581 1.40203e-22)
(0.00205026 -0.000842818 8.43586e-23)
(0.00199113 -0.000869495 -1.08952e-21)
(0.00193158 -0.000897637 1.06305e-21)
(0.00187165 -0.000927298 1.12313e-21)
(0.00181132 -0.000958556 -1.02944e-21)
(0.00175045 -0.000991484 2.78679e-22)
(0.001689 -0.00102614 2.78679e-22)
(0.00162703 -0.00106252 -1.2392e-21)
(0.00156456 -0.00110055 -1.2392e-21)
(0.00150171 -0.00114028 9.22495e-22)
(0.00143865 -0.00118169 9.22495e-22)
(0.00137551 -0.00122468 0)
(0.00131242 -0.00126927 0)
(0.00124958 -0.00131545 5.98217e-22)
(0.0011871 -0.00136331 1.25947e-21)
(0.00107811 -0.00145264 3.56046e-21)
(0.00103442 -0.00149082 1.28654e-21)
(0.000990991 -0.0015299 -5.31072e-21)
(0.000947772 -0.00156981 -2.45735e-21)
(0.00090484 -0.00161053 -3.44946e-21)
(0.000862264 -0.00165205 1.37046e-21)
(0.000820111 -0.00169435 9.61948e-21)
(0.000778446 -0.00173741 -6.65224e-21)
(0.000737336 -0.00178119 -4.3262e-21)
(0.000696851 -0.00182564 1.09847e-20)
(0.000657064 -0.00187073 1.0111e-20)
(0.000618053 -0.00191637 1.47724e-21)
(0.000579897 -0.00196251 -6.26305e-21)
(0.000542681 -0.00200903 -4.59844e-21)
(0.000506487 -0.00205585 1.46451e-21)
(0.000471399 -0.00210284 2.03869e-21)
(0.000437494 -0.00214985 -1.95646e-21)
(0.000404844 -0.00219673 0)
(0.000373512 -0.00224332 0)
(0.000343546 -0.00228943 0)
(0.000314984 -0.00233487 4.14643e-21)
(0.000287847 -0.00237945 2.53234e-21)
(0.000262142 -0.00242298 -1.61409e-21)
(0.000237866 -0.00246525 -1.11346e-21)
(0.000214999 -0.00250609 1.33583e-21)
(0.000193515 -0.00254531 1.14383e-21)
(0.000173375 -0.00258273 -1.30546e-21)
(0.000154531 -0.00261818 0)
(0.00013693 -0.0026515 -1.04632e-21)
(0.000120508 -0.00268255 -9.02067e-23)
(0.000105196 -0.00271116 3.14355e-21)
(9.09143e-05 -0.00273722 6.23316e-23)
(7.75788e-05 -0.00276058 -2.1251e-21)
(6.50957e-05 -0.00278114 1.57983e-21)
(5.33635e-05 -0.00279878 -5.3766e-22)
(4.22728e-05 -0.0028134 -1.34586e-21)
(3.17197e-05 -0.00282495 3.26911e-22)
(2.16583e-05 -0.00283328 -1.35328e-23)
(1.18653e-05 -0.00283787 3.14386e-22)
(0 -0.00283861 0)
(0 -0.00283746 0)
(0 -0.00283626 0)
(0 -0.00283502 0)
(0 -0.00283372 0)
(0 -0.00283237 0)
(0 -0.00283096 0)
(0 -0.0028295 0)
(0 -0.00282798 0)
(0 -0.00282642 0)
(0 -0.0028248 0)
(0 -0.00282314 0)
(0 -0.00282143 0)
(0 -0.00281967 0)
(0 -0.00281788 0)
(0 -0.00281604 0)
(0 -0.00281416 0)
(0 -0.00281225 0)
(0 -0.00281031 0)
(0 -0.00280833 0)
(0 -0.00280633 0)
(0 -0.00280429 0)
(0 -0.00280223 0)
(0 -0.00280014 0)
(0 -0.00279802 0)
(0 -0.00279589 0)
(0 -0.00279373 0)
(0 -0.00279155 0)
(0 -0.00278936 0)
(0 -0.00278714 0)
(0 -0.00278492 0)
(0 -0.00278267 0)
(0 -0.00278042 0)
(0 -0.00277815 0)
(0 -0.00277587 0)
(0 -0.00277358 0)
(0 -0.00277128 0)
(0 -0.00276897 0)
(0 -0.00276666 0)
(0 -0.00276434 0)
(0 -0.00276201 0)
(0 -0.00275968 0)
(0 -0.00275735 0)
(0 -0.00275502 0)
(0 -0.00275268 0)
(0 -0.00275034 0)
(0 -0.002748 0)
(0 -0.00274567 0)
(0 -0.00274333 0)
(0 -0.002741 0)
(0 -0.00273866 0)
(0 -0.00273634 0)
(0 -0.00273401 0)
(0 -0.00273169 0)
(0 -0.00272938 0)
(0 -0.00272707 0)
(0 -0.00272477 0)
(0 -0.00272247 0)
(0 -0.00272018 0)
(0 -0.0027179 0)
(0 -0.00271562 0)
(0 -0.00271336 0)
(0 -0.0027111 0)
(0 -0.00270885 0)
(0 -0.00270661 0)
(0 -0.00270437 0)
(0 -0.00270215 0)
(0 -0.00269993 0)
(0 -0.00269772 0)
(0 -0.00269551 0)
(0 -0.00269331 0)
(0 -0.00269112 0)
(0 -0.00268893 0)
(0 -0.00268674 0)
(0 -0.00268456 0)
(0 -0.00268237 0)
(0 -0.0026802 0)
(0 -0.00267803 0)
(0 -0.00267587 0)
(0 -0.0026691 0)
(0 -0.0026645 0)
(0 -0.00265945 0)
(0 -0.00265382 0)
(0 -0.00264748 0)
(0 -0.00264029 0)
(0 -0.0026321 0)
(0 -0.00262277 0)
(0 -0.00261215 0)
(0 -0.00260011 0)
(0 -0.00258653 0)
(0 -0.00257132 0)
(0 -0.00255437 0)
(0 -0.00253562 0)
(0 -0.00251501 0)
(0 -0.00249248 0)
(0 -0.00246798 0)
(0 -0.00244149 0)
(0 -0.00241297 0)
(0 -0.0023824 0)
(0 -0.00234975 0)
(0 -0.002315 0)
(0 -0.00227813 0)
(0 -0.00223913 0)
(0 -0.00219798 0)
(0 -0.00215468 0)
(0 -0.00210923 0)
(0 -0.00206164 0)
(0 -0.00201193 0)
(0 -0.00196013 0)
(0 -0.0019063 0)
(0 -0.00185048 0)
(0 -0.00179275 0)
(0 -0.00173319 0)
(0 -0.00167188 0)
(0 -0.0016089 0)
(0 -0.00154422 0)
(0 -0.00147779 0)
(0 -0.00140958 0)
(0.00247789 -0.000716878 0)
(0.00251791 -0.000674027 0)
(0.00255737 -0.000633592 0)
(0.00259634 -0.000595461 0)
(0.00263468 -0.000559551 0)
(0.00267239 -0.000525752 0)
(0.00270952 -0.00049398 0)
(0.00274608 -0.000464159 0)
(0.00278208 -0.000436256 0)
(0.00281753 -0.000410184 0)
(0.00285246 -0.000385849 0)
(0.0028869 -0.000363223 0)
(0.00292084 -0.000342229 0)
(0.00295433 -0.000322749 0)
(0.00298738 -0.00030474 0)
(0.00302001 -0.00028813 0)
(0.00305223 -0.000272837 0)
(0.00308408 -0.000258803 0)
(0.00311558 -0.000245979 0)
(0.00314675 -0.00023431 0)
(0.00317761 -0.000223691 0)
(0.00320819 -0.00021407 0)
(0.00323851 -0.000205425 0)
(0.00326855 -0.000197676 0)
(0.00329837 -0.000190753 0)
(0.00332798 -0.000184621 0)
(0.0033574 -0.000179247 0)
(0.00338662 -0.000174565 0)
(0.00341566 -0.000170527 0)
(0.00344456 -0.000167092 0)
(0.00347332 -0.000164207 0)
(0.00350195 -0.00016183 0)
(0.00353047 -0.000159933 0)
(0.00355888 -0.000158477 0)
(0.0035872 -0.000157424 0)
(0.00361542 -0.000156727 0)
(0.00364358 -0.000156366 0)
(0.00367168 -0.000156321 0)
(0.00369971 -0.000156538 0)
(0.00372768 -0.00015698 0)
(0.0037556 -0.000157632 0)
(0.00378348 -0.000158466 0)
(0.00381131 -0.000159438 0)
(0.0038391 -0.000160523 0)
(0.00386685 -0.000161694 0)
(0.00389455 -0.000162926 0)
(0.00392219 -0.000164196 0)
(0.00394973 -0.000165488 0)
(0.0039771 -0.000166821 0)
(0.00400418 -0.00016832 0)
(0.00403074 -0.000170314 0)
(0.00405664 -0.000173165 0)
(0.00408324 -0.00017625 0)
(0.0041145 -0.000172231 0)
(0.0041327 -0.000149519 0)
(0.00416948 -0.000140314 0)
(0.00422318 -0.00015939 0)
(0.0042523 -0.000169121 0)
(0.00427607 -0.000171535 0)
(0.0042992 -0.000172338 0)
(0.00432318 -0.000172728 0)
(0.00434799 -0.000172807 0)
(0.00437349 -0.000172516 0)
(0.00439946 -0.000171892 0)
(0.00442574 -0.000170897 0)
(0.00445222 -0.000169447 0)
(0.00447887 -0.000167538 0)
(0.00450565 -0.000165145 0)
(0.00453253 -0.000162234 0)
(0.00455948 -0.000158763 0)
(0.00458648 -0.000154692 0)
(0.00461346 -0.000149987 0)
(0.00464033 -0.000144651 0)
(0.00466701 -0.000138753 0)
(0.00469349 -0.000132423 0)
(0.00471983 -0.000125757 0)
(0.00474623 -0.00011869 0)
(0.00477282 -0.00011099 0)
(0.00479962 -0.000102346 0)
(0.00240508 -0.000775579 0)
(0.00238535 -0.000784231 0)
(0.00236593 -0.000792729 0)
(0.0023467 -0.000801172 0)
(0.00232762 -0.000809596 0)
(0.00230867 -0.000818017 0)
(0.00228986 -0.000826442 0)
(0.00227119 -0.000834872 0)
(0.00225266 -0.000843305 0)
(0.00223426 -0.000851741 0)
(0.00221599 -0.000860179 0)
(0.00219785 -0.000868618 0)
(0.00217985 -0.000877057 0)
(0.00216197 -0.000885494 0)
(0.00214421 -0.000893931 0)
(0.00212658 -0.000902364 0)
(0.00210907 -0.000910793 0)
(0.00209167 -0.000919218 0)
(0.00207439 -0.000927636 0)
(0.00205723 -0.000936046 0)
(0.00204018 -0.000944447 0)
(0.00202324 -0.000952838 0)
(0.0020064 -0.000961217 0)
(0.00198967 -0.000969584 0)
(0.00197305 -0.000977936 0)
(0.00195652 -0.000986273 0)
(0.0019401 -0.000994593 0)
(0.00192378 -0.0010029 0)
(0.00190755 -0.00101118 0)
(0.00189141 -0.00101945 0)
(0.00187535 -0.00102769 0)
(0.00185935 -0.00103597 0)
(0.00184341 -0.00104427 0)
(0.00182756 -0.00105249 0)
(0.00181181 -0.00106066 0)
(0.00179616 -0.00106879 0)
(0.00178056 -0.00107692 0)
(0.001765 -0.00108504 0)
(0.00174951 -0.00109314 0)
(0.00173407 -0.00110123 0)
(0.00171868 -0.00110929 0)
(0.00170334 -0.00111733 0)
(0.00168805 -0.00112536 0)
(0.00167281 -0.00113337 0)
(0.00165761 -0.00114135 0)
(0.00164244 -0.00114932 0)
(0.00162731 -0.00115727 0)
(0.00161222 -0.0011652 0)
(0.00159714 -0.00117311 0)
(0.0015821 -0.00118101 0)
(0.00156706 -0.0011889 0)
(0.00155203 -0.00119677 0)
(0.00153701 -0.00120463 0)
(0.00152199 -0.00121246 0)
(0.00150698 -0.00122026 0)
(0.00149197 -0.00122807 0)
(0.00147695 -0.00123588 0)
(0.00146192 -0.00124368 0)
(0.00144687 -0.00125148 0)
(0.0014318 -0.00125927 0)
(0.00141671 -0.00126706 0)
(0.00140159 -0.00127485 0)
(0.00138644 -0.00128264 0)
(0.00137126 -0.00129043 0)
(0.00135603 -0.00129822 0)
(0.00134075 -0.00130603 0)
(0.0013254 -0.00131387 0)
(0.00130997 -0.00132173 0)
(0.00129449 -0.0013296 0)
(0.00127894 -0.00133748 0)
(0.0012633 -0.00134539 0)
(0.00124759 -0.00135333 0)
(0.00123178 -0.0013613 0)
(0.00121588 -0.00136931 0)
(0.00119986 -0.00137734 0)
(0.00118373 -0.00138541 0)
(0.0011675 -0.00139352 0)
(0.00115118 -0.00140169 0)
(0.00113488 -0.00140999 0)
(0.000109749 -0.00135448 -3.20498e-21)
(0.000234341 -0.00136427 -2.78712e-21)
(0.000360752 -0.0013757 1.66962e-20)
(0.000483587 -0.00139344 3.72735e-22)
(0.000604247 -0.00141547 2.55322e-20)
(0.000721542 -0.00144177 2.74178e-21)
(0.000835527 -0.00147139 -5.12285e-20)
(0.000945969 -0.00150369 -1.35647e-20)
(0.00105288 -0.00153793 -1.23545e-20)
(0.0011564 -0.00157338 8.33723e-21)
(0.00125657 -0.00160939 2.19999e-20)
(0.00135348 -0.00164533 -1.82177e-20)
(0.00144702 -0.00168053 -8.53001e-22)
(0.00153693 -0.00171416 1.06393e-21)
(0.00162275 -0.0017451 -9.78832e-21)
(0.00170391 -0.00177184 -6.72068e-21)
(0.00177983 -0.0017926 -1.57219e-20)
(0.00185016 -0.0018057 -1.86494e-20)
(0.00191483 -0.00180974 -7.49065e-21)
(0.00197375 -0.00180354 4.47316e-22)
(0.00202709 -0.00178645 4.72463e-22)
(0.00207639 -0.0017603 5.34621e-21)
(0.00212454 -0.00173009 -1.2913e-21)
(0.00217301 -0.00169939 -1.21037e-20)
(0.00222156 -0.00166863 -1.32977e-21)
(0.00227009 -0.00163779 5.62446e-21)
(0.00231848 -0.00160682 -5.71458e-21)
(0.00236663 -0.00157571 -1.5541e-21)
(0.00241444 -0.00154445 5.64029e-21)
(0.00246183 -0.00151307 -1.88946e-21)
(0.00250874 -0.00148156 -7.55115e-21)
(0.00255512 -0.00144995 -5.54279e-24)
(0.00260091 -0.00141826 5.65615e-21)
(0.00264607 -0.0013865 -1.00817e-20)
(0.00269056 -0.00135469 1.06134e-21)
(0.00273433 -0.00132286 5.61691e-21)
(0.00277737 -0.00129102 -3.06838e-21)
(0.00281963 -0.00125919 1.03946e-20)
(0.00286111 -0.00122739 1.30935e-20)
(0.00294158 -0.00116392 -2.64536e-21)
(0.00298055 -0.00113228 -2.72686e-21)
(0.00301864 -0.00110072 -1.55463e-20)
(0.00305584 -0.00106924 -7.88934e-21)
(0.00309215 -0.00103786 1.25932e-20)
(0.00312753 -0.00100658 2.94254e-21)
(0.00316199 -0.000975404 7.38842e-21)
(0.0031955 -0.000944343 2.14568e-22)
(0.00322806 -0.000913399 -1.04349e-20)
(0.00325966 -0.000882575 1.15681e-20)
(0.00329028 -0.000851873 1.30378e-20)
(0.00331993 -0.000821297 -1.06436e-21)
(0.00334857 -0.000790847 -3.99452e-21)
(0.00337622 -0.000760524 -6.64427e-21)
(0.00340287 -0.000730328 -1.52508e-22)
(0.0034285 -0.000700257 1.59369e-22)
(0.00345311 -0.000670312 3.12909e-21)
(0.00347671 -0.000640488 1.8311e-20)
(0.00349927 -0.000610785 -8.76485e-21)
(0.0035208 -0.000581198 -1.19333e-20)
(0.0035413 -0.000551724 8.36438e-21)
(0.00356075 -0.000522358 5.40303e-21)
(0.00357916 -0.000493096 3.49444e-22)
(0.00359653 -0.000463933 5.10208e-21)
(0.00361285 -0.000434862 7.98757e-22)
(0.00362812 -0.000405879 -9.85204e-21)
(0.00364234 -0.000376976 -3.17841e-21)
(0.0036555 -0.000348146 6.38599e-21)
(0.00366761 -0.000319383 6.3831e-21)
(0.00367865 -0.000290679 -5.80823e-21)
(0.00368864 -0.000262025 -5.80833e-21)
(0.00369756 -0.000233413 -3.04113e-21)
(0.00370541 -0.000204834 1.19612e-21)
(0.00371218 -0.000176277 3.13393e-21)
(0.00371788 -0.000147731 -5.31487e-21)
(0.00372248 -0.000119181 -1.96293e-21)
(0.00372599 -9.05957e-05 4.38959e-22)
(0.00372831 -6.19176e-05 -6.26662e-22)
(0.00372925 -3.31403e-05 2.73932e-21)
(0.00288486 -0.00116921 0)
(0.00286209 -0.00114896 0)
(0.00284031 -0.00112966 0)
(0.00281947 -0.00111126 0)
(0.00279951 -0.00109369 0)
(0.00278039 -0.00107691 0)
(0.00276205 -0.00106086 0)
(0.00274446 -0.00104551 0)
(0.00272757 -0.00103081 0)
(0.00271136 -0.00101673 0)
(0.00269578 -0.00100324 0)
(0.00268081 -0.000990292 0)
(0.00266643 -0.000977869 0)
(0.0026526 -0.000965938 0)
(0.0026393 -0.000954473 0)
(0.00262651 -0.000943449 0)
(0.00261421 -0.000932842 0)
(0.00260237 -0.000922631 0)
(0.00259097 -0.000912793 0)
(0.00258001 -0.000903309 0)
(0.00256946 -0.000894161 0)
(0.0025593 -0.000885332 0)
(0.00254952 -0.000876804 0)
(0.0025401 -0.000868562 0)
(0.00253104 -0.000860591 0)
(0.00252231 -0.000852877 0)
(0.00251391 -0.000845408 0)
(0.00250582 -0.000838171 0)
(0.00249803 -0.000831156 0)
(0.00249053 -0.00082435 0)
(0.00248332 -0.000817747 0)
(0.00247638 -0.000811337 0)
(0.0024697 -0.000805116 0)
(0.00246329 -0.000799081 0)
(0.00245713 -0.000793234 0)
(0.00245124 -0.000787584 0)
(0.00244563 -0.00078214 0)
(0.00244027 -0.000776915 0)
(0.00243514 -0.000771917 0)
(0.00288486 -0.00116921 0)
(0.00286209 -0.00114896 0)
(0.00284031 -0.00112966 0)
(0.00281947 -0.00111126 0)
(0.00279951 -0.00109369 0)
(0.00278039 -0.00107691 0)
(0.00276205 -0.00106086 0)
(0.00274446 -0.00104551 0)
(0.00272757 -0.00103081 0)
(0.00271136 -0.00101673 0)
(0.00269578 -0.00100324 0)
(0.00268081 -0.000990292 0)
(0.00266643 -0.000977869 0)
(0.0026526 -0.000965938 0)
(0.0026393 -0.000954473 0)
(0.00262651 -0.000943449 0)
(0.00261421 -0.000932842 0)
(0.00260237 -0.000922631 0)
(0.00259097 -0.000912793 0)
(0.00258001 -0.000903309 0)
(0.00256946 -0.000894161 0)
(0.0025593 -0.000885332 0)
(0.00254952 -0.000876804 0)
(0.0025401 -0.000868562 0)
(0.00253104 -0.000860591 0)
(0.00252231 -0.000852877 0)
(0.00251391 -0.000845408 0)
(0.00250582 -0.000838171 0)
(0.00249803 -0.000831156 0)
(0.00249053 -0.00082435 0)
(0.00248332 -0.000817747 0)
(0.00247638 -0.000811337 0)
(0.0024697 -0.000805116 0)
(0.00246329 -0.000799081 0)
(0.00245713 -0.000793234 0)
(0.00245124 -0.000787584 0)
(0.00244563 -0.00078214 0)
(0.00244027 -0.000776915 0)
(0.00243514 -0.000771917 0)
(0.00236811 -0.000810444 0)
(0.00230943 -0.000852744 0)
(0.00225038 -0.000897719 0)
(0.00219045 -0.000943566 0)
(0.00213019 -0.000990344 0)
(0.00206982 -0.00103815 0)
(0.00200939 -0.00108698 0)
(0.00194891 -0.00113674 0)
(0.00188841 -0.00118738 0)
(0.00182792 -0.00123885 0)
(0.00176748 -0.00129108 0)
(0.00170712 -0.001344 0)
(0.00164685 -0.00139753 0)
(0.0015867 -0.00145158 0)
(0.00152667 -0.00150605 0)
(0.0014668 -0.00156078 0)
(0.0014071 -0.00161558 0)
(0.00134764 -0.00167021 0)
(0.00128833 -0.00172468 0)
(0.00122845 -0.00177957 0)
(0.00116703 -0.00183594 0)
(0.00110332 -0.00189458 0)
(0.00103726 -0.0019556 0)
(0.000969448 -0.00201836 0)
(0.00090067 -0.0020819 0)
(0.00083161 -0.00214534 0)
(0.000762817 -0.00220787 0)
(0.000694764 -0.00226875 0)
(0.000627883 -0.00232722 0)
(0.000562544 -0.00238257 0)
(0.000499014 -0.00243418 0)
(0.000437474 -0.00248151 0)
(0.00037802 -0.00252413 0)
(0.000320592 -0.00256173 0)
(0.00026493 -0.00259414 0)
(0.000210558 -0.00262134 0)
(0.000157038 -0.00264325 0)
(0.000104138 -0.00265955 0)
(5.16768e-05 -0.00266979 0)
(0 -0.0026691 0)
(0 -0.0026645 0)
(0 -0.00265945 0)
(0 -0.00265382 0)
(0 -0.00264748 0)
(0 -0.00264029 0)
(0 -0.0026321 0)
(0 -0.00262277 0)
(0 -0.00261215 0)
(0 -0.00260011 0)
(0 -0.00258653 0)
(0 -0.00257132 0)
(0 -0.00255437 0)
(0 -0.00253562 0)
(0 -0.00251501 0)
(0 -0.00249248 0)
(0 -0.00246798 0)
(0 -0.00244149 0)
(0 -0.00241297 0)
(0 -0.0023824 0)
(0 -0.00234975 0)
(0 -0.002315 0)
(0 -0.00227813 0)
(0 -0.00223913 0)
(0 -0.00219798 0)
(0 -0.00215468 0)
(0 -0.00210923 0)
(0 -0.00206164 0)
(0 -0.00201193 0)
(0 -0.00196013 0)
(0 -0.0019063 0)
(0 -0.00185048 0)
(0 -0.00179275 0)
(0 -0.00173319 0)
(0 -0.00167188 0)
(0 -0.0016089 0)
(0 -0.00154422 0)
(0 -0.00147779 0)
(0 -0.00140958 0)
(0.000109749 -0.00135448 -3.20498e-21)
(0.000234341 -0.00136427 -2.78712e-21)
(0.000360752 -0.0013757 1.66962e-20)
(0.000483587 -0.00139344 3.72735e-22)
(0.000604247 -0.00141547 2.55322e-20)
(0.000721542 -0.00144177 2.74178e-21)
(0.000835527 -0.00147139 -5.12285e-20)
(0.000945969 -0.00150369 -1.35647e-20)
(0.00105288 -0.00153793 -1.23545e-20)
(0.0011564 -0.00157338 8.33723e-21)
(0.00125657 -0.00160939 2.19999e-20)
(0.00135348 -0.00164533 -1.82177e-20)
(0.00144702 -0.00168053 -8.53001e-22)
(0.00153693 -0.00171416 1.06393e-21)
(0.00162275 -0.0017451 -9.78832e-21)
(0.00170391 -0.00177184 -6.72068e-21)
(0.00177983 -0.0017926 -1.57219e-20)
(0.00185016 -0.0018057 -1.86494e-20)
(0.00191483 -0.00180974 -7.49065e-21)
(0.00197375 -0.00180354 4.47316e-22)
(0.00202709 -0.00178645 4.72463e-22)
(0.00207639 -0.0017603 5.34621e-21)
(0.00212454 -0.00173009 -1.2913e-21)
(0.00217301 -0.00169939 -1.21037e-20)
(0.00222156 -0.00166863 -1.32977e-21)
(0.00227009 -0.00163779 5.62446e-21)
(0.00231848 -0.00160682 -5.71458e-21)
(0.00236663 -0.00157571 -1.5541e-21)
(0.00241444 -0.00154445 5.64029e-21)
(0.00246183 -0.00151307 -1.88946e-21)
(0.00250874 -0.00148156 -7.55115e-21)
(0.00255512 -0.00144995 -5.54279e-24)
(0.00260091 -0.00141826 5.65615e-21)
(0.00264607 -0.0013865 -1.00817e-20)
(0.00269056 -0.00135469 1.06134e-21)
(0.00273433 -0.00132286 5.61691e-21)
(0.00277737 -0.00129102 -3.06838e-21)
(0.00281963 -0.00125919 1.03946e-20)
(0.00286111 -0.00122739 1.30935e-20)
(0.00294158 -0.00116392 -2.64536e-21)
(0.00298055 -0.00113228 -2.72686e-21)
(0.00301864 -0.00110072 -1.55463e-20)
(0.00305584 -0.00106924 -7.88934e-21)
(0.00309215 -0.00103786 1.25932e-20)
(0.00312753 -0.00100658 2.94254e-21)
(0.00316199 -0.000975404 7.38842e-21)
(0.0031955 -0.000944343 2.14568e-22)
(0.00322806 -0.000913399 -1.04349e-20)
(0.00325966 -0.000882575 1.15681e-20)
(0.00329028 -0.000851873 1.30378e-20)
(0.00331993 -0.000821297 -1.06436e-21)
(0.00334857 -0.000790847 -3.99452e-21)
(0.00337622 -0.000760524 -6.64427e-21)
(0.00340287 -0.000730328 -1.52508e-22)
(0.0034285 -0.000700257 1.59369e-22)
(0.00345311 -0.000670312 3.12909e-21)
(0.00347671 -0.000640488 1.8311e-20)
(0.00349927 -0.000610785 -8.76485e-21)