/*--------------------------------*- C++ -*----------------------------------*\
| =========                 |                                                 |
| \\      /  F ield         | OpenFOAM: The Open Source CFD Toolbox           |
|  \\    /   O peration     | Version:  v2012                                 |
|   \\  /    A nd           | Website:  www.openfoam.com                      |
|    \\/     M anipulation  |                                                 |
\*---------------------------------------------------------------------------*/
FoamFile
{
    version     2.0;
    format      ascii;
    class       volScalarField;
    location    "11";
    object      sigmaEq;
}
// * * * * * * * * * * * * * * * * * * * * * * * * * * * * * * * * * * * * * //

dimensions      [1 -1 -2 0 0 0 0];


internalField   nonuniform List<scalar> 
32000
(
1.95817e+08
1.95923e+08
1.98868e+08
1.97007e+08
1.9961e+08
1.98652e+08
2.00682e+08
2.0032e+08
2.02168e+08
2.01921e+08
2.0377e+08
2.03454e+08
2.05313e+08
2.04913e+08
2.06739e+08
2.06287e+08
2.08048e+08
2.07567e+08
2.09256e+08
2.08754e+08
2.10374e+08
2.09853e+08
2.11411e+08
2.10873e+08
2.12373e+08
2.11821e+08
2.13264e+08
2.127e+08
2.14091e+08
2.13516e+08
2.1486e+08
2.14275e+08
2.15572e+08
2.14979e+08
2.16232e+08
2.15632e+08
2.16844e+08
2.16238e+08
2.17409e+08
2.16796e+08
2.1793e+08
2.17311e+08
2.18412e+08
2.17786e+08
2.18853e+08
2.1822e+08
2.19259e+08
2.18618e+08
2.19632e+08
2.18985e+08
2.19975e+08
2.19326e+08
2.20293e+08
2.19648e+08
2.2059e+08
2.19955e+08
2.20874e+08
2.20258e+08
2.21149e+08
2.20564e+08
2.21425e+08
2.2089e+08
2.21696e+08
2.21229e+08
2.21981e+08
2.21593e+08
2.22276e+08
2.21991e+08
2.22575e+08
2.22398e+08
2.22901e+08
2.22872e+08
2.23087e+08
2.2332e+08
2.23024e+08
2.23449e+08
2.19704e+08
2.21454e+08
2.13191e+08
2.14709e+08
1.94708e+08
1.96219e+08
1.9753e+08
1.97297e+08
1.99165e+08
1.98652e+08
2.00748e+08
2.00266e+08
2.02357e+08
2.01953e+08
2.03957e+08
2.03576e+08
2.05503e+08
2.05092e+08
2.06955e+08
2.06497e+08
2.083e+08
2.07799e+08
2.09537e+08
2.09005e+08
2.10675e+08
2.10121e+08
2.11725e+08
2.11154e+08
2.12695e+08
2.12112e+08
2.13591e+08
2.13e+08
2.14418e+08
2.13824e+08
2.15184e+08
2.14588e+08
2.15891e+08
2.15297e+08
2.16542e+08
2.15953e+08
2.17143e+08
2.16559e+08
2.17695e+08
2.1712e+08
2.18202e+08
2.17636e+08
2.18667e+08
2.1811e+08
2.19092e+08
2.18547e+08
2.19482e+08
2.18947e+08
2.19842e+08
2.19316e+08
2.20172e+08
2.19658e+08
2.20482e+08
2.19974e+08
2.20779e+08
2.20273e+08
2.21066e+08
2.20562e+08
2.21349e+08
2.20845e+08
2.21628e+08
2.21131e+08
2.21909e+08
2.21418e+08
2.22195e+08
2.21714e+08
2.22478e+08
2.22038e+08
2.22739e+08
2.22352e+08
2.22939e+08
2.22716e+08
2.23015e+08
2.23094e+08
2.22931e+08
2.23198e+08
2.20482e+08
2.21934e+08
2.14448e+08
2.15833e+08
1.95368e+08
1.95752e+08
1.97779e+08
1.97267e+08
1.98979e+08
1.98859e+08
2.00398e+08
2.00483e+08
2.01977e+08
2.0212e+08
2.03565e+08
2.03706e+08
2.0509e+08
2.05204e+08
2.06525e+08
2.06599e+08
2.0786e+08
2.07891e+08
2.09097e+08
2.09088e+08
2.10238e+08
2.10197e+08
2.11291e+08
2.11224e+08
2.12263e+08
2.12175e+08
2.13161e+08
2.13056e+08
2.13989e+08
2.13872e+08
2.14752e+08
2.14628e+08
2.15455e+08
2.15328e+08
2.16103e+08
2.15975e+08
2.16698e+08
2.16571e+08
2.17245e+08
2.17121e+08
2.1775e+08
2.17625e+08
2.18215e+08
2.18087e+08
2.18647e+08
2.18511e+08
2.19051e+08
2.189e+08
2.19431e+08
2.19257e+08
2.19798e+08
2.19586e+08
2.20156e+08
2.19893e+08
2.20511e+08
2.20188e+08
2.20862e+08
2.20476e+08
2.21216e+08
2.20762e+08
2.21569e+08
2.21051e+08
2.2192e+08
2.21351e+08
2.22265e+08
2.21653e+08
2.22599e+08
2.21982e+08
2.22895e+08
2.22287e+08
2.23159e+08
2.22614e+08
2.23284e+08
2.22952e+08
2.23163e+08
2.23237e+08
2.2234e+08
2.22974e+08
2.17166e+08
2.19254e+08
1.95064e+08
1.9597e+08
1.97854e+08
1.97466e+08
1.99206e+08
1.99076e+08
2.00611e+08
2.00726e+08
2.02132e+08
2.02365e+08
2.0367e+08
2.03934e+08
2.05158e+08
2.05406e+08
2.06565e+08
2.06777e+08
2.07881e+08
2.0805e+08
2.09104e+08
2.09231e+08
2.1024e+08
2.10327e+08
2.11292e+08
2.11343e+08
2.12265e+08
2.12285e+08
2.13163e+08
2.1316e+08
2.13992e+08
2.13972e+08
2.14758e+08
2.14722e+08
2.15464e+08
2.15416e+08
2.16112e+08
2.16059e+08
2.1671e+08
2.16651e+08
2.17262e+08
2.17193e+08
2.1777e+08
2.17692e+08
2.18241e+08
2.18148e+08
2.1868e+08
2.18564e+08
2.19091e+08
2.18946e+08
2.19482e+08
2.19294e+08
2.19857e+08
2.19618e+08
2.20221e+08
2.19923e+08
2.20574e+08
2.20215e+08
2.2092e+08
2.20498e+08
2.21257e+08
2.20782e+08
2.21581e+08
2.21066e+08
2.21897e+08
2.2136e+08
2.22197e+08
2.21647e+08
2.22491e+08
2.21952e+08
2.22754e+08
2.22216e+08
2.2301e+08
2.22496e+08
2.23145e+08
2.22737e+08
2.2328e+08
2.23041e+08
2.23024e+08
2.22994e+08
2.20758e+08
2.22521e+08
1.95173e+08
1.96114e+08
1.98009e+08
1.97699e+08
1.99431e+08
1.99365e+08
2.00869e+08
2.01028e+08
2.0239e+08
2.0266e+08
2.03908e+08
2.04212e+08
2.05369e+08
2.05665e+08
2.06748e+08
2.07016e+08
2.0804e+08
2.0827e+08
2.09246e+08
2.09434e+08
2.10368e+08
2.10515e+08
2.11408e+08
2.11522e+08
2.12371e+08
2.12457e+08
2.13263e+08
2.13323e+08
2.14087e+08
2.14124e+08
2.14846e+08
2.14867e+08
2.15544e+08
2.15554e+08
2.16188e+08
2.16182e+08
2.16782e+08
2.1676e+08
2.17327e+08
2.1729e+08
2.17832e+08
2.17771e+08
2.18301e+08
2.18208e+08
2.18739e+08
2.18605e+08
2.19155e+08
2.18966e+08
2.19547e+08
2.193e+08
2.19922e+08
2.19612e+08
2.20282e+08
2.1991e+08
2.20625e+08
2.20201e+08
2.20955e+08
2.20492e+08
2.21264e+08
2.20787e+08
2.21559e+08
2.21076e+08
2.21846e+08
2.21377e+08
2.2211e+08
2.21662e+08
2.22375e+08
2.21957e+08
2.22612e+08
2.22222e+08
2.22831e+08
2.22459e+08
2.22996e+08
2.22653e+08
2.23099e+08
2.22806e+08
2.23229e+08
2.22983e+08
2.23033e+08
2.22893e+08
1.95335e+08
1.96373e+08
1.982e+08
1.97991e+08
1.99698e+08
1.99694e+08
2.01164e+08
2.01369e+08
2.02684e+08
2.02994e+08
2.04187e+08
2.04532e+08
2.05628e+08
2.05968e+08
2.06988e+08
2.07301e+08
2.08261e+08
2.08541e+08
2.09449e+08
2.09694e+08
2.10554e+08
2.10766e+08
2.11581e+08
2.11761e+08
2.12536e+08
2.12682e+08
2.1342e+08
2.13537e+08
2.14233e+08
2.14328e+08
2.14982e+08
2.15056e+08
2.15674e+08
2.15721e+08
2.1631e+08
2.16329e+08
2.16892e+08
2.16885e+08
2.17429e+08
2.17385e+08
2.17927e+08
2.17837e+08
2.1839e+08
2.18244e+08
2.18827e+08
2.18612e+08
2.19235e+08
2.18954e+08
2.19621e+08
2.19272e+08
2.19985e+08
2.19578e+08
2.20324e+08
2.19879e+08
2.2064e+08
2.20178e+08
2.20938e+08
2.2048e+08
2.21214e+08
2.20778e+08
2.21486e+08
2.21068e+08
2.21757e+08
2.21373e+08
2.22002e+08
2.21653e+08
2.22256e+08
2.21927e+08
2.22493e+08
2.22202e+08
2.22689e+08
2.22407e+08
2.229e+08
2.22587e+08
2.23003e+08
2.22759e+08
2.23126e+08
2.22845e+08
2.23204e+08
2.22892e+08
1.95632e+08
1.96695e+08
1.98455e+08
1.98347e+08
2.0002e+08
2.00082e+08
2.01507e+08
2.0176e+08
2.03018e+08
2.03371e+08
2.04503e+08
2.0489e+08
2.05923e+08
2.0631e+08
2.07262e+08
2.07631e+08
2.08515e+08
2.08859e+08
2.09685e+08
2.10001e+08
2.10777e+08
2.11059e+08
2.11792e+08
2.12041e+08
2.12733e+08
2.1295e+08
2.13601e+08
2.13789e+08
2.14402e+08
2.14557e+08
2.15141e+08
2.15256e+08
2.15819e+08
2.15892e+08
2.16437e+08
2.16468e+08
2.17006e+08
2.16983e+08
2.17533e+08
2.17444e+08
2.18019e+08
2.17858e+08
2.18474e+08
2.18231e+08
2.18896e+08
2.18577e+08
2.1929e+08
2.18901e+08
2.19654e+08
2.19218e+08
2.19987e+08
2.19531e+08
2.20293e+08
2.19841e+08
2.20585e+08
2.20147e+08
2.20859e+08
2.20459e+08
2.21111e+08
2.20753e+08
2.21373e+08
2.21033e+08
2.21638e+08
2.21328e+08
2.21872e+08
2.21597e+08
2.2211e+08
2.21834e+08
2.22369e+08
2.22091e+08
2.22566e+08
2.22324e+08
2.22741e+08
2.22492e+08
2.22963e+08
2.22647e+08
2.23008e+08
2.22811e+08
2.23082e+08
2.22719e+08
1.9603e+08
1.97105e+08
1.98759e+08
1.98776e+08
2.00393e+08
2.00529e+08
2.019e+08
2.022e+08
2.03398e+08
2.03788e+08
2.04859e+08
2.05285e+08
2.06255e+08
2.06687e+08
2.07572e+08
2.07994e+08
2.08806e+08
2.09211e+08
2.09958e+08
2.10342e+08
2.11032e+08
2.11388e+08
2.1203e+08
2.12355e+08
2.12952e+08
2.13243e+08
2.13804e+08
2.14052e+08
2.14587e+08
2.14785e+08
2.15305e+08
2.15446e+08
2.1596e+08
2.1604e+08
2.16559e+08
2.16568e+08
2.17112e+08
2.17035e+08
2.17621e+08
2.17453e+08
2.18092e+08
2.1783e+08
2.18526e+08
2.18181e+08
2.18925e+08
2.18515e+08
2.19288e+08
2.18844e+08
2.19617e+08
2.19171e+08
2.19917e+08
2.19492e+08
2.20202e+08
2.19806e+08
2.20479e+08
2.20117e+08
2.20738e+08
2.20423e+08
2.2099e+08
2.20702e+08
2.21254e+08
2.20967e+08
2.2152e+08
2.21245e+08
2.21753e+08
2.21505e+08
2.21974e+08
2.2172e+08
2.22216e+08
2.21948e+08
2.22446e+08
2.22187e+08
2.22612e+08
2.22367e+08
2.22757e+08
2.22502e+08
2.22967e+08
2.22635e+08
2.22999e+08
2.22662e+08
1.96551e+08
1.97597e+08
1.99142e+08
1.99278e+08
2.0083e+08
2.01036e+08
2.02352e+08
2.02689e+08
2.03834e+08
2.04249e+08
2.05269e+08
2.05719e+08
2.06637e+08
2.071e+08
2.07927e+08
2.08392e+08
2.09136e+08
2.09594e+08
2.10265e+08
2.10709e+08
2.11314e+08
2.11736e+08
2.12288e+08
2.12677e+08
2.13186e+08
2.13532e+08
2.14011e+08
2.14302e+08
2.14766e+08
2.14991e+08
2.15456e+08
2.15602e+08
2.16086e+08
2.1614e+08
2.16663e+08
2.16612e+08
2.17194e+08
2.17032e+08
2.1768e+08
2.17414e+08
2.18123e+08
2.17773e+08
2.18523e+08
2.1812e+08
2.18884e+08
2.18465e+08
2.19213e+08
2.18805e+08
2.19517e+08
2.19141e+08
2.19805e+08
2.19466e+08
2.20087e+08
2.19777e+08
2.20365e+08
2.20081e+08
2.20628e+08
2.20367e+08
2.20886e+08
2.20628e+08
2.2115e+08
2.20879e+08
2.21413e+08
2.2114e+08
2.21643e+08
2.21393e+08
2.21851e+08
2.21603e+08
2.22077e+08
2.21796e+08
2.22309e+08
2.22021e+08
2.22485e+08
2.2224e+08
2.22615e+08
2.22356e+08
2.22714e+08
2.22445e+08
2.22891e+08
2.22468e+08
1.97177e+08
1.98185e+08
1.9961e+08
1.99856e+08
2.01331e+08
2.01603e+08
2.02858e+08
2.03231e+08
2.04321e+08
2.04757e+08
2.05726e+08
2.06195e+08
2.07065e+08
2.07549e+08
2.08327e+08
2.08816e+08
2.09506e+08
2.09994e+08
2.10604e+08
2.11081e+08
2.11621e+08
2.12078e+08
2.1256e+08
2.12983e+08
2.13422e+08
2.13795e+08
2.1421e+08
2.14518e+08
2.1493e+08
2.15152e+08
2.15589e+08
2.15704e+08
2.16192e+08
2.16183e+08
2.16743e+08
2.16607e+08
2.1724e+08
2.16995e+08
2.17688e+08
2.17365e+08
2.18089e+08
2.17729e+08
2.18451e+08
2.1809e+08
2.18784e+08
2.18445e+08
2.19097e+08
2.18792e+08
2.19397e+08
2.19125e+08
2.19692e+08
2.19438e+08
2.19984e+08
2.19736e+08
2.20266e+08
2.20022e+08
2.20535e+08
2.20289e+08
2.20795e+08
2.20539e+08
2.21052e+08
2.2078e+08
2.21306e+08
2.21026e+08
2.21532e+08
2.21268e+08
2.21731e+08
2.21475e+08
2.21937e+08
2.21662e+08
2.22147e+08
2.21851e+08
2.22359e+08
2.22055e+08
2.22475e+08
2.22233e+08
2.22553e+08
2.22286e+08
2.22663e+08
2.22264e+08
1.97908e+08
1.98863e+08
2.00175e+08
2.00505e+08
2.01899e+08
2.02227e+08
2.03418e+08
2.03823e+08
2.04856e+08
2.05312e+08
2.06232e+08
2.06712e+08
2.07539e+08
2.08027e+08
2.08766e+08
2.09255e+08
2.09909e+08
2.10393e+08
2.10967e+08
2.11439e+08
2.11942e+08
2.12391e+08
2.12836e+08
2.1325e+08
2.13654e+08
2.14013e+08
2.14402e+08
2.14679e+08
2.15088e+08
2.15252e+08
2.15714e+08
2.15744e+08
2.1628e+08
2.16178e+08
2.16783e+08
2.16578e+08
2.17231e+08
2.16963e+08
2.17629e+08
2.17344e+08
2.17992e+08
2.1772e+08
2.18334e+08
2.18088e+08
2.18663e+08
2.18445e+08
2.18984e+08
2.18782e+08
2.193e+08
2.19098e+08
2.19608e+08
2.19396e+08
2.19903e+08
2.1968e+08
2.20185e+08
2.1995e+08
2.20452e+08
2.20207e+08
2.20704e+08
2.2045e+08
2.2095e+08
2.20679e+08
2.21192e+08
2.20909e+08
2.21408e+08
2.21136e+08
2.21603e+08
2.21338e+08
2.21798e+08
2.21524e+08
2.21992e+08
2.21691e+08
2.22179e+08
2.21872e+08
2.2233e+08
2.22041e+08
2.22396e+08
2.22136e+08
2.22485e+08
2.22093e+08
1.98726e+08
1.99624e+08
2.00842e+08
2.0122e+08
2.02534e+08
2.02904e+08
2.04025e+08
2.04463e+08
2.05432e+08
2.05909e+08
2.06773e+08
2.0726e+08
2.08041e+08
2.08522e+08
2.09228e+08
2.09691e+08
2.10327e+08
2.10769e+08
2.11338e+08
2.11756e+08
2.12265e+08
2.12654e+08
2.13115e+08
2.13459e+08
2.13897e+08
2.14161e+08
2.14615e+08
2.14763e+08
2.15262e+08
2.15282e+08
2.15836e+08
2.15743e+08
2.16334e+08
2.16169e+08
2.16769e+08
2.16577e+08
2.17159e+08
2.16978e+08
2.17527e+08
2.17373e+08
2.17883e+08
2.17757e+08
2.18234e+08
2.18122e+08
2.1858e+08
2.18462e+08
2.18918e+08
2.18777e+08
2.19239e+08
2.19074e+08
2.19545e+08
2.19355e+08
2.19835e+08
2.19624e+08
2.20108e+08
2.19881e+08
2.20365e+08
2.20125e+08
2.20608e+08
2.20353e+08
2.20844e+08
2.2057e+08
2.21071e+08
2.20791e+08
2.21274e+08
2.21004e+08
2.21468e+08
2.21197e+08
2.21654e+08
2.2138e+08
2.21831e+08
2.21547e+08
2.22003e+08
2.21697e+08
2.22163e+08
2.21859e+08
2.2223e+08
2.21979e+08
2.2231e+08
2.21935e+08
1.99613e+08
2.00456e+08
2.01597e+08
2.01988e+08
2.03228e+08
2.03623e+08
2.04672e+08
2.05136e+08
2.06035e+08
2.0653e+08
2.07329e+08
2.07822e+08
2.08549e+08
2.09016e+08
2.09685e+08
2.10115e+08
2.10733e+08
2.11123e+08
2.11699e+08
2.12042e+08
2.12594e+08
2.12868e+08
2.13432e+08
2.13593e+08
2.14203e+08
2.14223e+08
2.14878e+08
2.14781e+08
2.15457e+08
2.15282e+08
2.15945e+08
2.15755e+08
2.1636e+08
2.1621e+08
2.1674e+08
2.16644e+08
2.17108e+08
2.17058e+08
2.1747e+08
2.17452e+08
2.17833e+08
2.17818e+08
2.18195e+08
2.18157e+08
2.18549e+08
2.18475e+08
2.18885e+08
2.18775e+08
2.19203e+08
2.19059e+08
2.19502e+08
2.1933e+08
2.19785e+08
2.1959e+08
2.2005e+08
2.19835e+08
2.20299e+08
2.20064e+08
2.20534e+08
2.20282e+08
2.2075e+08
2.20489e+08
2.20959e+08
2.20692e+08
2.2116e+08
2.20884e+08
2.21347e+08
2.21067e+08
2.21522e+08
2.21241e+08
2.21685e+08
2.21406e+08
2.2184e+08
2.21543e+08
2.21987e+08
2.21693e+08
2.22071e+08
2.21803e+08
2.22154e+08
2.21774e+08
2.00548e+08
2.01344e+08
2.0242e+08
2.02798e+08
2.03969e+08
2.04368e+08
2.05349e+08
2.05823e+08
2.06651e+08
2.07158e+08
2.07886e+08
2.08389e+08
2.09044e+08
2.09519e+08
2.10117e+08
2.10547e+08
2.11117e+08
2.11476e+08
2.12063e+08
2.123e+08
2.12972e+08
2.13011e+08
2.13813e+08
2.13634e+08
2.14526e+08
2.14205e+08
2.15111e+08
2.14735e+08
2.15582e+08
2.1526e+08
2.15979e+08
2.15774e+08
2.1635e+08
2.16257e+08
2.16721e+08
2.16703e+08
2.17091e+08
2.17115e+08
2.17461e+08
2.17491e+08
2.17831e+08
2.17842e+08
2.18192e+08
2.18169e+08
2.18533e+08
2.18473e+08
2.18852e+08
2.18759e+08
2.19151e+08
2.19031e+08
2.19435e+08
2.1929e+08
2.19704e+08
2.19533e+08
2.19955e+08
2.19758e+08
2.20191e+08
2.19971e+08
2.20414e+08
2.20181e+08
2.20627e+08
2.20382e+08
2.20831e+08
2.20573e+08
2.21022e+08
2.20754e+08
2.21201e+08
2.20926e+08
2.21369e+08
2.21093e+08
2.21525e+08
2.2125e+08
2.21675e+08
2.21385e+08
2.2182e+08
2.21526e+08
2.21899e+08
2.21641e+08
2.21995e+08
2.21607e+08
2.0151e+08
2.02277e+08
2.03284e+08
2.03637e+08
2.04741e+08
2.05125e+08
2.06043e+08
2.06518e+08
2.07274e+08
2.07804e+08
2.08435e+08
2.08984e+08
2.09516e+08
2.10047e+08
2.10535e+08
2.10981e+08
2.11518e+08
2.11781e+08
2.12482e+08
2.1247e+08
2.13372e+08
2.13102e+08
2.1413e+08
2.13715e+08
2.14732e+08
2.14303e+08
2.15209e+08
2.14893e+08
2.15638e+08
2.15464e+08
2.16044e+08
2.15989e+08
2.16443e+08
2.16451e+08
2.16825e+08
2.1685e+08
2.17189e+08
2.1721e+08
2.17533e+08
2.17563e+08
2.17878e+08
2.17902e+08
2.18206e+08
2.18215e+08
2.18508e+08
2.18505e+08
2.18793e+08
2.18771e+08
2.1907e+08
2.1902e+08
2.19341e+08
2.19256e+08
2.19596e+08
2.19476e+08
2.19836e+08
2.19687e+08
2.20062e+08
2.19892e+08
2.20277e+08
2.2009e+08
2.20483e+08
2.20276e+08
2.20678e+08
2.20451e+08
2.20861e+08
2.20621e+08
2.21035e+08
2.20787e+08
2.21203e+08
2.2095e+08
2.21357e+08
2.21106e+08
2.21494e+08
2.21239e+08
2.21621e+08
2.21372e+08
2.21715e+08
2.21473e+08
2.21819e+08
2.21443e+08
2.02479e+08
2.03254e+08
2.04158e+08
2.04503e+08
2.05513e+08
2.05904e+08
2.06732e+08
2.07239e+08
2.07888e+08
2.08467e+08
2.08977e+08
2.09559e+08
2.10024e+08
2.10497e+08
2.11062e+08
2.11301e+08
2.12105e+08
2.12046e+08
2.13047e+08
2.12763e+08
2.13806e+08
2.13513e+08
2.14349e+08
2.14192e+08
2.14811e+08
2.14778e+08
2.153e+08
2.15268e+08
2.1579e+08
2.15708e+08
2.16288e+08
2.16111e+08
2.16769e+08
2.16515e+08
2.17193e+08
2.16934e+08
2.17546e+08
2.17336e+08
2.17938e+08
2.17703e+08
2.18266e+08
2.18057e+08
2.18517e+08
2.18372e+08
2.18745e+08
2.18613e+08
2.18968e+08
2.18839e+08
2.19191e+08
2.19071e+08
2.19414e+08
2.19279e+08
2.1962e+08
2.19478e+08
2.19812e+08
2.19665e+08
2.19997e+08
2.19844e+08
2.20187e+08
2.20014e+08
2.20368e+08
2.20174e+08
2.20538e+08
2.20335e+08
2.20701e+08
2.20496e+08
2.20859e+08
2.20652e+08
2.21013e+08
2.20803e+08
2.21164e+08
2.20954e+08
2.21308e+08
2.21098e+08
2.21434e+08
2.21234e+08
2.21528e+08
2.2134e+08
2.21643e+08
2.21307e+08
2.03431e+08
2.04263e+08
2.04995e+08
2.05403e+08
2.06258e+08
2.0671e+08
2.07425e+08
2.0795e+08
2.08556e+08
2.09056e+08
2.09696e+08
2.10022e+08
2.10883e+08
2.10893e+08
2.11974e+08
2.11703e+08
2.12864e+08
2.12448e+08
2.1336e+08
2.13219e+08
2.13737e+08
2.13094e+08
2.1342e+08
2.12967e+08
2.13429e+08
2.13166e+08
2.13747e+08
2.13478e+08
2.14238e+08
2.13876e+08
2.14874e+08
2.14357e+08
2.15652e+08
2.1492e+08
2.16508e+08
2.15558e+08
2.17005e+08
2.1644e+08
2.17496e+08
2.17104e+08
2.17958e+08
2.17487e+08
2.18383e+08
2.17886e+08
2.18712e+08
2.18325e+08
2.18979e+08
2.18676e+08
2.19331e+08
2.18963e+08
2.19557e+08
2.19255e+08
2.19748e+08
2.19479e+08
2.19923e+08
2.19665e+08
2.20101e+08
2.19849e+08
2.20259e+08
2.19998e+08
2.20414e+08
2.20152e+08
2.20561e+08
2.20303e+08
2.20702e+08
2.20446e+08
2.2084e+08
2.20582e+08
2.20976e+08
2.20718e+08
2.21111e+08
2.2086e+08
2.2124e+08
2.21006e+08
2.21354e+08
2.21143e+08
2.21446e+08
2.21254e+08
2.21568e+08
2.21236e+08
2.04369e+08
2.05242e+08
2.05794e+08
2.06288e+08
2.07066e+08
2.07464e+08
2.08302e+08
2.0858e+08
2.09577e+08
2.09643e+08
2.10853e+08
2.10561e+08
2.11824e+08
2.11352e+08
2.12373e+08
2.1147e+08
2.11218e+08
2.09883e+08
2.10302e+08
2.09554e+08
2.10117e+08
2.09402e+08
2.10105e+08
2.09277e+08
2.10245e+08
2.09373e+08
2.10536e+08
2.09706e+08
2.10948e+08
2.10222e+08
2.1145e+08
2.10872e+08
2.12025e+08
2.11612e+08
2.12736e+08
2.1239e+08
2.1356e+08
2.13313e+08
2.14472e+08
2.14283e+08
2.15446e+08
2.15163e+08
2.1651e+08
2.15999e+08
2.17567e+08
2.16861e+08
2.18151e+08
2.17883e+08
2.18599e+08
2.18245e+08
2.18937e+08
2.18592e+08
2.19273e+08
2.18933e+08
2.1959e+08
2.19279e+08
2.19873e+08
2.19526e+08
2.20094e+08
2.19769e+08
2.20283e+08
2.1996e+08
2.20444e+08
2.20113e+08
2.20588e+08
2.20253e+08
2.20725e+08
2.20392e+08
2.20867e+08
2.20547e+08
2.21006e+08
2.20701e+08
2.21136e+08
2.20852e+08
2.21257e+08
2.20996e+08
2.21357e+08
2.21113e+08
2.21483e+08
2.21102e+08
2.05386e+08
2.06123e+08
2.06705e+08
2.07051e+08
2.08094e+08
2.08171e+08
2.09494e+08
2.09294e+08
2.10753e+08
2.1028e+08
2.11286e+08
2.09785e+08
2.0881e+08
2.07238e+08
2.07422e+08
2.0644e+08
2.06639e+08
2.05595e+08
2.06183e+08
2.04978e+08
2.05928e+08
2.04712e+08
2.05873e+08
2.04756e+08
2.06032e+08
2.05042e+08
2.06383e+08
2.05527e+08
2.06896e+08
2.06173e+08
2.07539e+08
2.06948e+08
2.08291e+08
2.07829e+08
2.09134e+08
2.08818e+08
2.10057e+08
2.09876e+08
2.10998e+08
2.10948e+08
2.11907e+08
2.12e+08
2.12795e+08
2.13013e+08
2.13783e+08
2.13969e+08
2.14887e+08
2.15112e+08
2.15956e+08
2.16092e+08
2.16997e+08
2.16967e+08
2.1797e+08
2.17763e+08
2.18667e+08
2.18552e+08
2.1904e+08
2.18845e+08
2.19319e+08
2.19122e+08
2.19611e+08
2.19394e+08
2.19897e+08
2.1966e+08
2.20169e+08
2.19896e+08
2.20403e+08
2.20112e+08
2.20575e+08
2.20265e+08
2.20735e+08
2.20406e+08
2.20884e+08
2.20545e+08
2.2102e+08
2.20686e+08
2.2114e+08
2.2083e+08
2.21273e+08
2.20859e+08
2.0648e+08
2.06943e+08
2.07873e+08
2.07777e+08
2.09421e+08
2.08995e+08
2.10462e+08
2.09809e+08
2.08057e+08
2.05776e+08
2.0551e+08
2.04039e+08
2.03868e+08
2.02457e+08
2.02715e+08
2.01218e+08
2.0189e+08
2.00474e+08
2.01416e+08
2.00106e+08
2.01246e+08
2.00046e+08
2.01324e+08
2.00261e+08
2.0162e+08
2.00711e+08
2.02105e+08
2.01353e+08
2.02751e+08
2.02149e+08
2.03531e+08
2.0307e+08
2.04423e+08
2.04094e+08
2.05406e+08
2.05207e+08
2.06453e+08
2.06373e+08
2.07538e+08
2.07559e+08
2.08635e+08
2.08747e+08
2.09735e+08
2.09938e+08
2.10831e+08
2.11148e+08
2.11906e+08
2.12323e+08
2.12907e+08
2.13423e+08
2.13836e+08
2.14432e+08
2.14786e+08
2.15368e+08
2.15829e+08
2.16395e+08
2.16796e+08
2.17257e+08
2.17692e+08
2.17998e+08
2.18491e+08
2.18621e+08
2.19061e+08
2.19056e+08
2.19319e+08
2.19245e+08
2.19541e+08
2.19445e+08
2.19781e+08
2.19651e+08
2.20021e+08
2.19861e+08
2.20233e+08
2.20066e+08
2.20438e+08
2.20275e+08
2.20631e+08
2.20461e+08
2.20805e+08
2.20521e+08
2.07209e+08
2.07842e+08
2.09194e+08
2.08925e+08
2.09802e+08
2.06565e+08
2.05482e+08
2.03615e+08
2.02536e+08
2.0088e+08
2.00329e+08
1.98597e+08
1.98694e+08
1.97034e+08
1.97574e+08
1.96005e+08
1.96866e+08
1.95435e+08
1.9651e+08
1.95253e+08
1.96465e+08
1.95386e+08
1.96692e+08
1.95782e+08
1.97151e+08
1.964e+08
1.97804e+08
1.97204e+08
1.98617e+08
1.98158e+08
1.99561e+08
1.99235e+08
2.0061e+08
2.0041e+08
2.0174e+08
2.01658e+08
2.02925e+08
2.02953e+08
2.04141e+08
2.0427e+08
2.05373e+08
2.05594e+08
2.06611e+08
2.0692e+08
2.07843e+08
2.08243e+08
2.09054e+08
2.09528e+08
2.10224e+08
2.10759e+08
2.11344e+08
2.11938e+08
2.12411e+08
2.13076e+08
2.13408e+08
2.14144e+08
2.1431e+08
2.15108e+08
2.15125e+08
2.15974e+08
2.1592e+08
2.16785e+08
2.1674e+08
2.1756e+08
2.17468e+08
2.18198e+08
2.18121e+08
2.18732e+08
2.18715e+08
2.19161e+08
2.19223e+08
2.19435e+08
2.19508e+08
2.19576e+08
2.19673e+08
2.19737e+08
2.19832e+08
2.19923e+08
2.1999e+08
2.19999e+08
2.07962e+08
2.08951e+08
2.07861e+08
2.05193e+08
2.04067e+08
2.01622e+08
2.0043e+08
1.97998e+08
1.97297e+08
1.95161e+08
1.94963e+08
1.9306e+08
1.93333e+08
1.91631e+08
1.92276e+08
1.90768e+08
1.91689e+08
1.90373e+08
1.91495e+08
1.90366e+08
1.91628e+08
1.90682e+08
1.92038e+08
1.91265e+08
1.92679e+08
1.92068e+08
1.93512e+08
1.93052e+08
1.94501e+08
1.9418e+08
1.95615e+08
1.95424e+08
1.96826e+08
1.96756e+08
1.9811e+08
1.98151e+08
1.99443e+08
1.99585e+08
2.00806e+08
2.01039e+08
2.02181e+08
2.02499e+08
2.03554e+08
2.03953e+08
2.04911e+08
2.05386e+08
2.06237e+08
2.0678e+08
2.07522e+08
2.08125e+08
2.08761e+08
2.0942e+08
2.09948e+08
2.10663e+08
2.11073e+08
2.11834e+08
2.12126e+08
2.12926e+08
2.13106e+08
2.13942e+08
2.14007e+08
2.14884e+08
2.14816e+08
2.15732e+08
2.15523e+08
2.16468e+08
2.16134e+08
2.17103e+08
2.16681e+08
2.17683e+08
2.17216e+08
2.18205e+08
2.17694e+08
2.18636e+08
2.18105e+08
2.19019e+08
2.18462e+08
2.19377e+08
2.18769e+08
2.19611e+08
2.07299e+08
2.05444e+08
2.03011e+08
2.00572e+08
1.98572e+08
1.95893e+08
1.94657e+08
1.92064e+08
1.91574e+08
1.89252e+08
1.89317e+08
1.87313e+08
1.8778e+08
1.86071e+08
1.8685e+08
1.854e+08
1.86424e+08
1.85204e+08
1.86415e+08
1.85403e+08
1.86748e+08
1.85927e+08
1.87362e+08
1.86718e+08
1.88204e+08
1.87724e+08
1.89233e+08
1.88903e+08
1.9041e+08
1.90217e+08
1.91703e+08
1.91637e+08
1.93084e+08
1.93132e+08
1.94528e+08
1.9468e+08
1.96012e+08
1.96258e+08
1.97518e+08
1.97849e+08
1.99028e+08
1.99436e+08
2.00529e+08
2.01007e+08
2.02007e+08
2.02548e+08
2.03451e+08
2.04047e+08
2.04851e+08
2.05496e+08
2.06198e+08
2.06889e+08
2.07485e+08
2.0822e+08
2.08706e+08
2.09477e+08
2.09854e+08
2.10656e+08
2.10926e+08
2.11758e+08
2.11918e+08
2.12776e+08
2.12823e+08
2.13704e+08
2.1364e+08
2.14542e+08
2.14373e+08
2.15296e+08
2.15023e+08
2.15971e+08
2.15585e+08
2.16559e+08
2.16056e+08
2.17049e+08
2.16438e+08
2.17444e+08
2.16734e+08
2.17765e+08
2.16948e+08
2.18044e+08
2.04494e+08
2.00193e+08
1.98238e+08
1.94655e+08
1.92751e+08
1.89706e+08
1.88486e+08
1.85867e+08
1.85416e+08
1.8315e+08
1.83314e+08
1.81367e+08
1.81978e+08
1.80329e+08
1.81263e+08
1.79889e+08
1.81061e+08
1.79936e+08
1.81279e+08
1.80378e+08
1.81841e+08
1.81141e+08
1.8268e+08
1.82162e+08
1.83742e+08
1.83388e+08
1.8498e+08
1.84775e+08
1.86356e+08
1.86285e+08
1.87837e+08
1.87886e+08
1.89393e+08
1.89549e+08
1.91e+08
1.91252e+08
1.92636e+08
1.92972e+08
1.94282e+08
1.94694e+08
1.95924e+08
1.96402e+08
1.97545e+08
1.98083e+08
1.99136e+08
1.99724e+08
2.00684e+08
2.01317e+08
2.02182e+08
2.02853e+08
2.03622e+08
2.04326e+08
2.04996e+08
2.05728e+08
2.063e+08
2.07055e+08
2.07529e+08
2.08301e+08
2.08677e+08
2.09464e+08
2.09741e+08
2.10541e+08
2.10719e+08
2.11525e+08
2.11608e+08
2.12417e+08
2.12408e+08
2.13219e+08
2.13119e+08
2.13928e+08
2.13739e+08
2.14537e+08
2.14268e+08
2.15049e+08
2.14711e+08
2.15468e+08
2.15065e+08
2.15794e+08
2.15313e+08
2.16002e+08
1.9862e+08
1.9401e+08
1.92212e+08
1.88049e+08
1.86434e+08
1.83008e+08
1.82061e+08
1.79294e+08
1.79049e+08
1.76785e+08
1.77115e+08
1.75239e+08
1.7601e+08
1.74457e+08
1.75556e+08
1.74287e+08
1.75622e+08
1.74608e+08
1.76106e+08
1.75322e+08
1.76926e+08
1.76348e+08
1.78014e+08
1.77619e+08
1.79311e+08
1.79079e+08
1.80771e+08
1.80684e+08
1.82355e+08
1.82395e+08
1.84027e+08
1.84181e+08
1.85761e+08
1.86013e+08
1.87531e+08
1.87869e+08
1.89317e+08
1.8973e+08
1.911e+08
1.91578e+08
1.92866e+08
1.93399e+08
1.94602e+08
1.95182e+08
1.96296e+08
1.96915e+08
1.97939e+08
1.98591e+08
1.99522e+08
2.00201e+08
2.0104e+08
2.01739e+08
2.02486e+08
2.032e+08
2.03856e+08
2.0458e+08
2.05144e+08
2.05874e+08
2.06348e+08
2.07079e+08
2.07465e+08
2.08192e+08
2.08491e+08
2.0921e+08
2.09426e+08
2.10132e+08
2.10266e+08
2.10957e+08
2.11011e+08
2.11681e+08
2.11661e+08
2.12303e+08
2.12218e+08
2.12822e+08
2.12684e+08
2.13241e+08
2.13058e+08
2.13557e+08
2.1333e+08
2.13729e+08
1.91665e+08
1.86808e+08
1.85272e+08
1.80835e+08
1.79525e+08
1.75905e+08
1.75294e+08
1.72412e+08
1.72485e+08
1.70183e+08
1.70795e+08
1.68943e+08
1.69962e+08
1.68476e+08
1.69797e+08
1.68621e+08
1.70157e+08
1.69251e+08
1.70932e+08
1.70262e+08
1.72032e+08
1.7157e+08
1.73384e+08
1.73104e+08
1.74929e+08
1.74809e+08
1.7662e+08
1.76639e+08
1.78416e+08
1.78556e+08
1.80283e+08
1.80528e+08
1.82195e+08
1.82528e+08
1.84126e+08
1.84536e+08
1.86058e+08
1.86532e+08
1.87973e+08
1.88501e+08
1.89857e+08
1.9043e+08
1.91699e+08
1.92307e+08
1.93488e+08
1.94124e+08
1.95216e+08
1.95873e+08
1.96875e+08
1.97548e+08
1.9846e+08
1.99142e+08
1.99965e+08
2.00652e+08
2.01387e+08
2.02073e+08
2.02722e+08
2.03402e+08
2.03966e+08
2.04637e+08
2.05118e+08
2.05774e+08
2.06175e+08
2.06813e+08
2.07136e+08
2.07752e+08
2.08e+08
2.0859e+08
2.08766e+08
2.09324e+08
2.09435e+08
2.09955e+08
2.10011e+08
2.10482e+08
2.10496e+08
2.10906e+08
2.1089e+08
2.11222e+08
2.11187e+08
2.114e+08
1.83827e+08
1.78821e+08
1.77681e+08
1.73044e+08
1.72155e+08
1.68395e+08
1.68203e+08
1.65237e+08
1.65706e+08
1.63369e+08
1.64342e+08
1.62499e+08
1.63841e+08
1.624e+08
1.64007e+08
1.62903e+08
1.64692e+08
1.63874e+08
1.65779e+08
1.65207e+08
1.67174e+08
1.66813e+08
1.68803e+08
1.68624e+08
1.70605e+08
1.70582e+08
1.72532e+08
1.72642e+08
1.74543e+08
1.74767e+08
1.76606e+08
1.76925e+08
1.78693e+08
1.79093e+08
1.80783e+08
1.81249e+08
1.82857e+08
1.83377e+08
1.84898e+08
1.85462e+08
1.86895e+08
1.87493e+08
1.88836e+08
1.89459e+08
1.90713e+08
1.91354e+08
1.92518e+08
1.9317e+08
1.94245e+08
1.94902e+08
1.95889e+08
1.96545e+08
1.97445e+08
1.98096e+08
1.98911e+08
1.99552e+08
2.00284e+08
2.0091e+08
2.01561e+08
2.02169e+08
2.02741e+08
2.03327e+08
2.03822e+08
2.04382e+08
2.04804e+08
2.05335e+08
2.05686e+08
2.06184e+08
2.06468e+08
2.06928e+08
2.07154e+08
2.0757e+08
2.07746e+08
2.08108e+08
2.0825e+08
2.08545e+08
2.08668e+08
2.08878e+08
2.08997e+08
2.09084e+08
1.7527e+08
1.70198e+08
1.69516e+08
1.64763e+08
1.6436e+08
1.60517e+08
1.60804e+08
1.57789e+08
1.58709e+08
1.56356e+08
1.57745e+08
1.55917e+08
1.57635e+08
1.56236e+08
1.58179e+08
1.57135e+08
1.59222e+08
1.58479e+08
1.60646e+08
1.60156e+08
1.62355e+08
1.62079e+08
1.64273e+08
1.64178e+08
1.66339e+08
1.66397e+08
1.68506e+08
1.68691e+08
1.70733e+08
1.71025e+08
1.72991e+08
1.7337e+08
1.75253e+08
1.75702e+08
1.77498e+08
1.78004e+08
1.79708e+08
1.80259e+08
1.81872e+08
1.82456e+08
1.83975e+08
1.84584e+08
1.8601e+08
1.86635e+08
1.87969e+08
1.88602e+08
1.89845e+08
1.90481e+08
1.91634e+08
1.92266e+08
1.93332e+08
1.93954e+08
1.94934e+08
1.95543e+08
1.9644e+08
1.97031e+08
1.97847e+08
1.98416e+08
1.99153e+08
1.99697e+08
2.00359e+08
2.00874e+08
2.01462e+08
2.01945e+08
2.02464e+08
2.02913e+08
2.03365e+08
2.03775e+08
2.04166e+08
2.04534e+08
2.04871e+08
2.0519e+08
2.05484e+08
2.05745e+08
2.06011e+08
2.06202e+08
2.06457e+08
2.0656e+08
2.06822e+08
2.06805e+08
1.66149e+08
1.61066e+08
1.60872e+08
1.56071e+08
1.5619e+08
1.52319e+08
1.5312e+08
1.50097e+08
1.51504e+08
1.49164e+08
1.51005e+08
1.4921e+08
1.51341e+08
1.4999e+08
1.52305e+08
1.51323e+08
1.53741e+08
1.53066e+08
1.55526e+08
1.55109e+08
1.57566e+08
1.57364e+08
1.59785e+08
1.59761e+08
1.62123e+08
1.62247e+08
1.64533e+08
1.64778e+08
1.66979e+08
1.67322e+08
1.6943e+08
1.69852e+08
1.71863e+08
1.72348e+08
1.7426e+08
1.74792e+08
1.76604e+08
1.77171e+08
1.78884e+08
1.79476e+08
1.8109e+08
1.81697e+08
1.83214e+08
1.83828e+08
1.8525e+08
1.85865e+08
1.87193e+08
1.87802e+08
1.8904e+08
1.89637e+08
1.90788e+08
1.91369e+08
1.92434e+08
1.92994e+08
1.93977e+08
1.94513e+08
1.95416e+08
1.95924e+08
1.96751e+08
1.97228e+08
1.97981e+08
1.98425e+08
1.99107e+08
1.99515e+08
2.0013e+08
2.00499e+08
2.01051e+08
2.01378e+08
2.01873e+08
2.02154e+08
2.026e+08
2.02828e+08
2.03236e+08
2.03403e+08
2.03789e+08
2.03883e+08
2.04266e+08
2.04268e+08
2.04666e+08
2.0455e+08
1.56578e+08
1.51524e+08
1.51834e+08
1.47039e+08
1.47702e+08
1.43852e+08
1.45188e+08
1.42199e+08
1.44115e+08
1.4182e+08
1.44136e+08
1.42396e+08
1.44963e+08
1.43676e+08
1.46386e+08
1.45472e+08
1.48243e+08
1.47639e+08
1.50413e+08
1.50066e+08
1.528e+08
1.52664e+08
1.5533e+08
1.55367e+08
1.57946e+08
1.58124e+08
1.60603e+08
1.60895e+08
1.63267e+08
1.63649e+08
1.65911e+08
1.66363e+08
1.68514e+08
1.69018e+08
1.71058e+08
1.71602e+08
1.73532e+08
1.74102e+08
1.75925e+08
1.7651e+08
1.78228e+08
1.78821e+08
1.80437e+08
1.8103e+08
1.82547e+08
1.83132e+08
1.84554e+08
1.85127e+08
1.86455e+08
1.87011e+08
1.88251e+08
1.88784e+08
1.89938e+08
1.90445e+08
1.91517e+08
1.91995e+08
1.92988e+08
1.93434e+08
1.94351e+08
1.94762e+08
1.95607e+08
1.95981e+08
1.96757e+08
1.97091e+08
1.97803e+08
1.98095e+08
1.98747e+08
1.98994e+08
1.99591e+08
1.99789e+08
2.00341e+08
2.00484e+08
2.01002e+08
2.01081e+08
2.01581e+08
2.01585e+08
2.02088e+08
2.01997e+08
2.02521e+08
2.02313e+08
1.46653e+08
1.41659e+08
1.4248e+08
1.37736e+08
1.38952e+08
1.35169e+08
1.37052e+08
1.34135e+08
1.36573e+08
1.34356e+08
1.3716e+08
1.35502e+08
1.38518e+08
1.37313e+08
1.40431e+08
1.39597e+08
1.42734e+08
1.42206e+08
1.45306e+08
1.45029e+08
1.48053e+08
1.47979e+08
1.50902e+08
1.50994e+08
1.538e+08
1.54024e+08
1.56706e+08
1.57034e+08
1.59588e+08
1.59996e+08
1.62422e+08
1.62891e+08
1.65191e+08
1.65704e+08
1.6788e+08
1.68423e+08
1.70479e+08
1.7104e+08
1.7298e+08
1.73549e+08
1.75378e+08
1.75946e+08
1.77668e+08
1.78229e+08
1.79847e+08
1.80395e+08
1.81915e+08
1.82444e+08
1.83869e+08
1.84375e+08
1.8571e+08