/*--------------------------------*- C++ -*----------------------------------*\
| =========                 |                                                 |
| \\      /  F ield         | OpenFOAM: The Open Source CFD Toolbox           |
|  \\    /   O peration     | Version:  v2012                                 |
|   \\  /    A nd           | Website:  www.openfoam.com                      |
|    \\/     M anipulation  |                                                 |
\*---------------------------------------------------------------------------*/
FoamFile
{
    version     2.0;
    format      ascii;
    class       volSymmTensorField;
    location    "19";
    object      epsilon;
}
// * * * * * * * * * * * * * * * * * * * * * * * * * * * * * * * * * * * * * //

dimensions      [0 0 0 0 0 0 0];


internalField   nonuniform List<symmTensor> 
7666
(
(-3.3972e-05 -1.40535e-05 1.30104e-18 -5.91498e-06 6.75985e-18 0)
(8.02063e-05 -0.000105029 5.65954e-17 1.5648e-05 1.19804e-17 0)
(0.00114138 -0.00108338 2.1452e-15 -0.00145025 -4.11747e-15 0)
(0.000125712 -0.000144486 2.1684e-19 -1.88784e-05 -2.42363e-16 0)
(0.000215902 -0.000171613 -1.17961e-16 -0.000100611 -1.54661e-16 0)
(0.000477594 -0.000154292 -1.26418e-16 -0.000214235 -1.14665e-15 0)
(0.000152428 -2.18742e-05 4.72062e-16 -2.34664e-05 -4.13284e-17 0)
(0.0001528 -0.000137298 -1.53523e-16 -3.30942e-05 -2.19432e-17 0)
(0.000825088 -1.94779e-05 3.1534e-15 -0.000362822 2.6151e-16 0)
(0.000142243 -4.00773e-05 -4.58184e-16 -7.01494e-06 2.07997e-17 0)
(2.75813e-05 -0.000108579 -7.78457e-17 2.34227e-05 1.16484e-17 0)
(0.000185991 -5.57726e-05 -1.11022e-16 -6.627e-05 6.98701e-17 0)
(0.000142155 -0.00013892 -3.95083e-16 -2.71359e-05 9.07003e-18 0)
(0.000121726 -0.000111786 -2.55872e-16 -6.16948e-06 -5.33224e-17 0)
(0.000143387 -1.53086e-05 -2.49366e-17 -6.063e-06 -1.37453e-16 0)
(-5.94938e-05 1.38957e-05 -2.71051e-17 -7.53217e-05 -1.05168e-17 0)
(0.000152557 -0.000135416 -3.14852e-16 -3.09192e-05 -1.54821e-17 0)
(0.000546248 -3.98788e-05 8.64543e-16 -0.000233848 1.92066e-16 0)
(0.000203334 -8.82557e-05 -5.63785e-18 -7.15712e-05 2.21204e-16 0)
(0.0001071 -7.25487e-05 1.64799e-17 9.90683e-06 -1.35458e-16 0)
(4.58222e-05 -3.02563e-05 -7.95804e-17 3.85369e-05 6.64447e-17 0)
(0.000303167 -0.000133337 2.97288e-16 -0.000120347 -1.19704e-16 0)
(0.00013495 -0.000115389 -7.069e-17 -1.57857e-05 -6.47794e-17 0)
(9.17987e-05 -0.000152558 -4.55365e-18 -6.10762e-06 -7.59246e-17 0)
(0.000384503 -0.000156282 -2.70508e-16 -0.000204562 -3.21032e-16 0)
(0.000143166 -1.49388e-05 8.0231e-17 -2.98482e-06 -6.13252e-18 0)
(0.000384811 -0.000139731 1.88651e-16 -0.000201208 -8.58688e-17 0)
(-7.07314e-06 -7.98765e-05 3.62124e-17 3.57084e-06 2.26835e-17 0)
(0.000148657 -0.000137669 -3.79037e-16 -2.74127e-05 -1.52974e-17 0)
(0.000177922 -7.10679e-06 -3.79688e-16 -7.33346e-05 1.19228e-16 0)
(0.000184762 -7.37584e-06 3.94866e-16 -7.9192e-05 2.74174e-16 0)
(0.000548105 -5.92379e-05 -8.68663e-16 -0.000233396 2.36099e-16 0)
(-2.28317e-05 -3.56616e-05 2.10335e-17 -5.60855e-05 -5.06898e-17 0)
(0.000170269 -2.24708e-05 2.2508e-16 -5.97137e-05 -1.9192e-16 0)
(1.09309e-05 8.53931e-06 1.22298e-16 -0.000163991 -1.14051e-16 0)
(7.7497e-05 -7.88628e-05 -1.21431e-17 2.07123e-05 -7.24721e-17 0)
(7.6141e-05 -7.16766e-05 2.84061e-17 2.32787e-05 -7.54486e-17 0)
(0.000182223 -1.78348e-05 -5.0372e-16 -7.35902e-05 5.59889e-17 0)
(0.000455577 -0.000140542 3.85976e-17 -0.000194279 -3.77275e-16 0)
(0.000143412 -5.21065e-05 1.18178e-16 -1.10241e-05 1.34072e-16 0)
(3.75378e-06 1.01896e-07 2.2096e-16 -0.000104672 6.3995e-17 0)
(0.00163375 -0.000215617 -9.09266e-15 -0.00114599 -3.80512e-15 0)
(0.00173531 1.36099e-05 2.27611e-15 -0.000432839 -3.92308e-15 0)
(1.78994e-05 -0.000113599 2.38524e-18 -1.56012e-06 1.28042e-17 0)
(0.00104086 0.00037749 2.06307e-15 -0.000256081 1.56125e-17 0)
(0.000149801 -1.69869e-05 5.75061e-16 -2.13421e-05 4.16334e-17 0)
(0.000589591 -0.000106844 -9.51279e-16 -0.000247458 -1.16571e-15 0)
(1.76396e-05 -1.19288e-05 1.72171e-16 -0.000118093 1.22e-16 0)
(5.17436e-05 -9.18545e-05 1.12757e-16 -7.22323e-05 4.96565e-17 0)
(-1.59151e-06 -2.66798e-05 5.63785e-18 4.3306e-05 3.64233e-17 0)
(-1.41127e-05 -8.19862e-05 4.77049e-17 3.43522e-06 5.36697e-17 0)
(0.000304913 -7.36163e-05 -4.35199e-16 -0.000129718 -1.55461e-16 0)
(0.000155938 -1.29185e-05 -3.1225e-17 -3.13542e-05 9.91435e-17 0)
(0.000789146 -2.925e-05 3.05441e-15 -0.000361132 4.39536e-16 0)
(2.95007e-05 -1.68976e-05 1.82146e-17 4.45202e-05 1.30663e-17 0)
(-9.0856e-05 1.71295e-05 6.50521e-18 -4.8622e-05 3.54643e-16 0)
(1.04695e-06 -4.01539e-05 -5.65954e-17 4.24211e-05 5.14708e-17 0)
(-7.5409e-06 -3.32598e-05 -3.18755e-17 4.47849e-05 5.04239e-17 0)
(0.00021411 -0.000141308 -5.15647e-16 -0.000171882 -4.6946e-17 0)
(0.000484246 -0.000136919 -1.24965e-15 -0.000208725 -6.14038e-16 0)
(2.39623e-05 -6.6248e-05 5.22585e-17 3.88473e-05 6.08508e-17 0)
(0.000183022 -1.70748e-05 -7.76722e-16 -7.28759e-05 1.05432e-16 0)
(0.000127308 -0.000129489 -1.39645e-16 -1.46842e-05 8.40324e-17 0)
(0.000128414 -0.000133029 -1.88217e-16 -1.72248e-05 4.80979e-17 0)
(-8.78786e-06 -4.59843e-05 -2.0383e-17 3.98664e-05 -4.11311e-17 0)
(7.72701e-05 -0.000114837 1.54607e-16 -7.07945e-05 -8.26975e-17 0)
(0.000125537 -4.16678e-05 -1.67184e-16 1.03287e-05 1.54373e-16 0)
(3.38755e-07 -4.82338e-05 -4.53197e-17 4.04122e-05 -3.69052e-18 0)
(9.42207e-06 -8.8647e-05 1.46584e-16 -0.000112661 -2.63136e-16 0)
(0.000246577 -0.000134968 -1.00094e-15 -0.000179704 2.3744e-17 0)
(6.38948e-05 -0.000121727 1.9559e-16 -0.000118534 -4.84855e-16 0)
(0.000122773 -6.90514e-06 2.08167e-17 4.26626e-05 2.88017e-16 0)
(0.000123875 -7.61499e-06 1.66317e-16 3.91642e-05 4.35062e-16 0)
(0.000174213 -3.38571e-06 -1.04083e-16 -7.21829e-05 2.88482e-17 0)
(0.000173915 -3.29598e-06 -3.92698e-16 -7.19368e-05 -1.01556e-16 0)
(0.000154367 -4.15116e-06 2.7452e-16 -2.91746e-05 1.38873e-16 0)
(0.000718457 0.000319275 -1.04815e-16 -0.000204387 2.97722e-16 0)
(0.000114783 -0.000118716 -6.39679e-17 -3.72426e-06 7.87639e-17 0)
(0.000114019 -0.0001217 -1.09071e-16 -6.92575e-06 5.00122e-17 0)
(2.31046e-05 -6.72187e-05 6.80879e-17 3.79039e-05 8.45457e-17 0)
(0.000158486 -4.27576e-05 -3.25477e-16 -3.28953e-05 1.402e-16 0)
(0.00012662 -1.98304e-05 -8.67362e-18 2.69168e-05 3.21669e-16 0)
(4.05946e-05 -0.000131449 -2.71051e-17 -1.59307e-05 -2.71474e-17 0)
(0.00131277 2.35378e-07 7.22865e-16 -0.000298791 -2.81264e-15 0)
(0.000203415 -4.47798e-05 -1.1666e-16 -8.2633e-05 -2.82231e-18 0)
(0.0002857 -1.65704e-05 -2.84061e-17 -0.000121209 -1.59852e-17 0)
(0.000279483 -2.55911e-05 -2.71051e-16 -0.000120984 -1.9786e-16 0)
(0.000324672 -9.65866e-05 5.93492e-16 -0.000130123 -2.57152e-16 0)
(3.59058e-05 -8.03216e-05 3.44776e-17 -7.28064e-05 4.61192e-17 0)
(0.0001822 -1.09132e-05 -5.65303e-16 -7.63422e-05 3.73711e-17 0)
(0.000150708 -8.91687e-05 6.6982e-16 -2.71376e-05 1.14189e-16 0)
(0.000153894 -8.67008e-05 4.82904e-16 -2.63921e-05 1.55237e-16 0)
(0.000327255 -6.79856e-06 -3.37837e-16 -0.000139035 -2.4133e-16 0)
(0.000232703 -0.00018154 7.03647e-16 -0.000256085 -1.04376e-15 0)
(0.000925712 -5.54022e-06 -4.56395e-16 -0.000397496 -1.29562e-16 0)
(3.13584e-05 -3.58423e-05 1.59378e-16 -0.000105092 -2.34459e-17 0)
(3.97272e-05 3.59893e-05 4.92228e-17 -0.000237052 -3.39748e-16 0)
(0.00118801 -0.00141836 -1.07141e-15 -0.0014775 -7.70954e-15 0)
(0.000207795 -8.34355e-05 9.7795e-17 -7.39775e-05 1.35983e-16 0)
(0.000101632 -6.89896e-05 -6.46184e-17 1.12868e-05 -9.3155e-17 0)
(0.000329638 -8.6261e-06 -5.52293e-16 -0.000143024 -1.20177e-16 0)
(0.000175363 -4.92606e-06 -4.55148e-16 -7.25583e-05 3.39931e-17 0)
(-1.55951e-05 -5.43879e-05 -1.34441e-17 -3.63728e-05 2.94852e-17 0)
(0.000782798 -0.00044602 -1.81604e-16 -0.000623491 2.64328e-15 0)
(2.40974e-06 -4.96893e-05 -9.99634e-17 -8.19667e-05 -5.84724e-17 0)
(0.000426221 -0.000129104 1.9147e-16 -0.000179365 -1.36989e-16 0)
(0.00152236 0.000174336 2.85899e-15 -0.000740878 -5.51425e-16 0)
(0.000270991 -0.000178757 1.15793e-16 -0.000109566 9.50371e-17 0)
(0.0001515 -1.49401e-05 5.46438e-16 -2.42011e-05 3.13741e-17 0)
(0.000305295 -5.09632e-05 -3.21141e-16 -0.000130959 7.83946e-17 0)
(0.00010271 -0.000132122 7.91468e-17 -2.36956e-06 4.85858e-17 0)
(0.000240107 -0.000184983 -5.67255e-16 -9.11967e-05 2.96716e-16 0)
(5.954e-05 -0.000115135 -2.17057e-16 1.84458e-05 -7.73646e-17 0)
(1.90854e-05 -5.9131e-05 4.90059e-17 4.02473e-05 2.03135e-17 0)
(1.68605e-05 -0.000103844 -1.19262e-17 2.43527e-05 7.57925e-18 0)
(0.000256795 -0.000180108 -1.06078e-15 -0.00011797 1.40526e-16 0)
(-3.28216e-07 -9.12797e-05 9.32414e-18 1.325e-05 -7.18453e-18 0)
(3.33278e-05 4.35672e-05 6.72205e-17 -0.00021231 -2.36681e-16 0)
(0.000189542 -2.73829e-05 3.4521e-16 -7.55273e-05 -2.35662e-16 0)
(0.000188438 -3.08023e-05 -9.19403e-17 -7.28974e-05 -1.77043e-16 0)
(0.000652689 -7.90947e-05 -5.58689e-16 -0.000272665 4.68457e-16 0)
(0.000171476 -1.66151e-06 6.15827e-17 -6.91449e-05 1.13794e-16 0)
(0.000174691 -6.21224e-05 -5.94143e-17 -4.96365e-05 1.98808e-16 0)
(0.000142999 -2.10944e-05 7.69784e-17 -2.2173e-06 -5.18791e-17 0)
(8.60464e-05 -0.000143931 -1.61763e-16 -2.9776e-06 -2.94124e-17 0)
(-6.10101e-06 -6.06536e-06 2.68882e-17 4.52285e-05 5.97243e-18 0)
(0.000272769 -0.000186288 1.94723e-16 -0.000109138 5.93804e-17 0)
(0.000233934 -0.000176294 3.03577e-16 -8.17615e-05 -1.51301e-16 0)
(0.000109028 -0.000163784 1.32273e-16 -2.38236e-05 -4.29276e-17 0)
(0.000157099 -0.000108464 -1.8258e-16 -3.25511e-05 -1.15625e-16 0)
(-0.000132082 3.16353e-05 2.3267e-16 -4.81864e-05 4.65231e-16 0)
(0.000240981 -6.19484e-05 -1.55691e-16 -9.73814e-05 1.95732e-16 0)
(7.93061e-05 -4.36787e-05 2.74954e-16 2.56879e-05 -1.22415e-16 0)
(0.000611585 0.000164365 9.8991e-17 -0.000115767 1.96891e-16 0)
(0.000175561 -6.01085e-05 2.83844e-16 -5.3403e-05 3.60897e-16 0)
(0.000436033 -0.000131586 3.88578e-16 -0.000183059 -3.57163e-16 0)
(0.000156788 -4.23738e-05 -2.1684e-16 -3.22291e-05 1.81349e-16 0)
(0.000143907 -5.1925e-05 -1.79327e-16 -1.23827e-05 -4.58753e-17 0)
(0.000131037 -9.9334e-05 1.3249e-16 -1.38338e-05 1.90261e-16 0)
(8.32289e-05 -0.000139011 1.30538e-16 7.34086e-07 -7.3946e-17 0)
(0.000123516 -0.000169122 -3.49113e-17 -2.90799e-05 -2.31054e-17 0)
(0.000126785 -1.72519e-05 -2.1684e-19 2.91904e-05 3.65324e-16 0)
(0.000117661 -9.51593e-06 -2.73219e-17 2.19248e-05 6.22103e-17 0)
(0.000119616 -9.87858e-06 -5.76796e-17 2.19351e-05 8.60645e-17 0)
(0.000128478 -4.28706e-05 -2.46764e-16 8.64214e-06 1.62004e-16 0)
(0.000130296 -7.22607e-05 1.93639e-16 -5.02711e-06 3.926e-17 0)
(0.000150807 -2.29655e-05 5.60533e-16 -2.36601e-05 -2.63935e-18 0)
(0.000128455 -1.5548e-05 1.04083e-16 2.80548e-05 1.20668e-16 0)
(-3.7982e-05 -2.69966e-05 2.88398e-17 4.99401e-07 9.80136e-18 0)
(0.000179818 -0.000116823 -5.27573e-16 -5.22554e-05 -2.85592e-16 0)
(0.000143709 -3.58748e-05 -2.74954e-16 -4.73966e-06 -6.90772e-17 0)
(2.64424e-05 -4.0593e-05 2.1272e-16 -9.28146e-05 -5.17164e-17 0)
(2.97908e-05 -7.57128e-05 -1.73472e-18 3.60471e-05 9.2767e-17 0)
(9.74842e-06 -8.79362e-06 3.23092e-17 -0.000115862 4.45878e-17 0)
(0.000112612 -4.33492e-05 4.72712e-17 1.48464e-05 7.62796e-17 0)
(0.00011168 -4.24378e-05 -1.04083e-16 1.40867e-05 6.26288e-17 0)
(1.05427e-05 -2.69181e-05 3.96818e-17 -9.58164e-05 1.51192e-16 0)
(0.000141102 -0.000175998 1.17528e-16 -4.20001e-05 1.25057e-16 0)
(0.000106913 -0.000150257 3.74267e-16 -1.2153e-05 -2.05263e-16 0)
(0.000165289 -2.02738e-05 2.41127e-16 -4.80518e-05 -7.8309e-17 0)
(0.000888191 -0.000302064 2.17968e-15 -0.000718272 3.37827e-15 0)
(0.000683201 5.93224e-05 -8.29008e-16 -0.000296839 1.0983e-16 0)
(0.000294095 -0.000132008 2.0383e-16 -0.000114479 1.92785e-18 0)
(0.00147935 -3.35788e-05 1.85816e-15 -0.000811087 -7.1514e-16 0)
(0.000203207 -0.000633211 1.22168e-15 -0.000431086 1.24185e-15 0)
(0.000501924 -0.000440957 3.27321e-16 -0.00030881 1.41488e-15 0)
(0.000116233 -0.000157778 3.6993e-16 -1.58723e-05 -1.74983e-16 0)
(-7.87828e-06 -3.79835e-05 -2.49366e-17 4.11589e-05 2.10716e-17 0)
(-9.97827e-06 -3.8442e-05 -4.18502e-17 4.21558e-05 4.32978e-17 0)
(0.000885702 -0.000222772 3.27483e-15 -0.000795129 4.35058e-15 0)
(6.77407e-05 -0.000107254 -1.21431e-17 1.84113e-05 -2.25446e-17 0)
(1.72647e-05 -9.35497e-05 2.38524e-18 2.44801e-05 1.04829e-17 0)
(0.000267437 -0.000125685 1.8258e-16 -0.000102509 -2.19708e-16 0)
(0.000247765 -5.18709e-05 -2.58907e-16 -0.000105364 -2.39405e-17 0)
(2.11244e-05 -4.41377e-05 1.65449e-16 -9.46316e-05 -7.89841e-17 0)
(2.05939e-05 -1.63198e-05 3.16587e-17 4.49295e-05 -3.49431e-17 0)
(0.000262861 -0.000184291 2.34405e-16 -9.87907e-05 9.7873e-17 0)
(0.000924524 1.21097e-05 1.78563e-15 -0.000398506 -1.53989e-15 0)
(0.000198317 -1.8492e-05 3.2808e-16 -8.4013e-05 2.81323e-16 0)
(0.000134152 -0.000148398 1.73256e-16 -2.26329e-05 -2.16166e-16 0)
(0.000275612 -0.000148652 3.68195e-16 -0.000104761 -4.12556e-16 0)
(7.26348e-05 2.01795e-05 2.95987e-16 -0.000299144 -2.41431e-16 0)
(0.00025939 -0.000106336 1.18829e-16 -0.000100093 3.47526e-16 0)
(4.24922e-05 2.54182e-05 1.34007e-16 -0.000224223 -2.96895e-16 0)
(6.38605e-05 -0.000120432 2.07516e-16 -6.02717e-05 -1.27692e-16 0)
(3.73019e-05 -5.96998e-05 1.04517e-16 -9.19675e-05 -1.55068e-16 0)
(0.000123501 -1.74972e-06 -4.30862e-16 3.89832e-05 -9.29388e-17 0)
(0.000173863 2.13411e-07 2.64979e-16 -7.44803e-05 1.3249e-16 0)
(0.000212647 -0.000144517 -8.49798e-16 -0.000160257 -8.7983e-17 0)
(0.000166344 -3.07423e-05 -2.73219e-16 -5.05429e-05 -1.69515e-16 0)
(7.17948e-05 -0.000114834 3.5345e-17 1.59576e-05 -8.48083e-17 0)
(0.000140778 -6.93719e-05 2.73869e-16 -1.44361e-05 -2.29576e-16 0)
(0.000141094 -6.79452e-05 1.63931e-16 -1.09326e-05 -1.69467e-16 0)
(0.000130483 -9.45439e-05 -9.32414e-17 -1.26372e-05 2.41704e-16 0)
(0.000229648 -0.000189487 1.59378e-16 -9.69903e-05 -1.04321e-16 0)
(0.000725088 2.36011e-05 2.90349e-16 -0.000378771 -1.8117e-16 0)
(9.5762e-05 -0.000116074 1.30755e-16 5.42537e-06 -2.76573e-17 0)
(0.00015553 -5.02018e-06 1.40513e-16 -3.2621e-05 3.21097e-16 0)
(0.000149926 -2.30219e-05 7.34222e-16 -1.66157e-05 9.49355e-18 0)
(0.000110308 0.000165213 -4.22839e-17 -0.000364355 6.17182e-17 0)
(0.000266825 -0.000173947 1.64582e-16 -0.000101403 2.1371e-16 0)
(-1.01542e-05 -8.22533e-05 2.60209e-18 1.5993e-05 -3.60599e-17 0)
(0.000198858 -1.92237e-05 1.52873e-16 -8.32255e-05 1.00472e-16 0)
(0.000460795 -0.000128551 5.37656e-16 -0.000192968 -5.15199e-16 0)
(7.81588e-05 -3.05365e-05 5.96311e-17 2.69539e-05 6.31184e-17 0)
(0.00131146 6.6789e-05 6.47486e-16 -0.000992564 -1.89757e-15 0)
(0.000119416 -4.78662e-05 7.26415e-17 1.09429e-05 -4.6331e-17 0)
(1.28161e-05 1.83031e-05 -1.06252e-17 -0.000139784 2.10064e-17 0)
(-3.82296e-06 -7.99409e-05 -2.51535e-17 2.21707e-05 -4.55619e-17 0)
(3.8009e-06 -1.37388e-06 1.43982e-16 -0.000139947 -4.60244e-17 0)
(0.00053548 -9.43527e-05 1.39071e-15 -0.000310223 1.20683e-15 0)
(-1.33472e-06 -8.34245e-05 -2.84061e-17 2.47161e-05 -1.43233e-17 0)
(0.000115446 -1.02836e-05 -4.81386e-17 2.17075e-05 1.40657e-16 0)
(0.000126469 -2.13542e-05 -3.79471e-17 2.48083e-05 1.54004e-16 0)
(0.000129202 -1.52461e-05 1.25767e-16 2.79632e-05 2.97092e-16 0)
(2.14104e-05 -8.89881e-05 -1.01264e-16 3.10272e-05 -7.30752e-17 0)
(9.51307e-05 -0.000127879 1.48102e-16 2.42789e-06 1.88041e-17 0)
(0.000592513 -0.000114805 -1.4203e-15 -0.000252149 -8.69124e-16 0)
(1.20382e-05 -8.1701e-05 -1.42247e-16 3.44927e-05 -5.06898e-17 0)
(0.000351251 -2.5178e-05 2.5804e-17 -0.000152903 -4.52478e-16 0)
(0.00122391 0.000352628 -4.79217e-17 -0.000677003 -2.43945e-15 0)
(0.00153287 -7.55877e-05 -5.86098e-15 -0.00113191 -2.5533e-15 0)
(0.000185547 -6.43423e-06 2.21394e-16 -7.87041e-05 3.58383e-16 0)
(0.000117354 -5.52479e-06 -1.36826e-16 2.33747e-05 6.53838e-17 0)
(0.000261938 -6.24581e-05 1.85615e-16 -0.000107765 -9.25638e-18 0)
(0.000161407 -0.000176526 2.77556e-17 -4.76413e-05 1.86322e-16 0)
(0.00139646 0.000289048 1.00278e-15 -0.00080284 -2.2404e-15 0)
(0.000721552 0.000221179 6.91816e-16 -0.000182529 -1.8323e-16 0)
(4.7308e-05 -3.65576e-06 -1.63064e-16 3.8872e-05 4.8165e-17 0)
(0.00012433 -0.000157361 3.31332e-16 -2.03623e-05 -1.62153e-16 0)
(0.000116941 -0.000150608 2.71267e-16 -1.63207e-05 -1.50372e-16 0)
(0.000173588 -3.33844e-05 -2.52185e-16 -5.58078e-05 -3.1563e-17 0)
(3.66879e-05 -6.90803e-05 2.73219e-17 -8.60761e-05 -6.13929e-18 0)
(6.70761e-06 -1.57334e-06 8.08815e-17 -0.000103381 -5.04696e-17 0)
(0.000122791 -6.29983e-07 -3.16587e-17 4.35156e-05 1.5727e-16 0)
(0.000173011 6.66044e-07 7.04731e-17 -7.39804e-05 -2.13418e-17 0)
(0.00116515 0.000288696 2.84159e-15 -0.000427228 1.32273e-16 0)
(0.000309919 -6.36026e-05 -7.1167e-16 -0.000129697 -7.62059e-17 0)
(5.02772e-05 4.15488e-05 1.0777e-16 -0.00025073 -1.85073e-16 0)
(0.000173007 -2.52009e-05 1.18395e-16 -5.82542e-05 -1.89098e-16 0)
(0.000116256 -2.75111e-05 -1.04951e-16 1.76697e-05 -2.91422e-17 0)
(0.000218219 -0.000144197 2.12504e-16 -7.5415e-05 1.90214e-16 0)
(0.000118622 -0.000132138 1.71954e-16 -1.12939e-05 -1.14241e-16 0)
(-3.70894e-06 -6.44605e-05 -8.45678e-18 3.19816e-05 -2.83604e-17 0)
(5.83751e-05 -0.000117508 -1.94506e-16 1.6778e-05 -1.19648e-16 0)
(5.1136e-05 -0.00010098 -1.09504e-16 2.3766e-05 -2.76404e-17 0)
(0.000138874 6.80311e-05 -1.21214e-16 -0.000400115 -6.20882e-16 0)
(5.22732e-05 -0.00011011 -1.28803e-16 1.99564e-05 -6.25347e-17 0)
(0.000327424 -0.000419757 1.70133e-15 -0.000398645 1.75348e-15 0)
(0.000255815 -0.000187056 -1.6263e-16 -9.86348e-05 3.86098e-16 0)
(0.000242863 -0.00017875 -4.06359e-16 -9.17808e-05 4.26071e-16 0)
(3.48047e-05 -8.48428e-05 -4.16334e-17 3.28948e-05 4.8535e-17 0)
(0.000279312 -0.000171818 -9.39136e-16 -0.000128145 -3.94921e-17 0)
(0.000248172 -5.3444e-05 -3.56703e-16 -0.000101525 1.5807e-16 0)
(0.00012213 -2.67452e-06 -7.93636e-17 3.61443e-05 1.95208e-16 0)
(0.000175254 -1.47774e-06 1.73472e-16 -7.47713e-05 1.75048e-16 0)
(0.000650377 0.000114927 2.12165e-16 -0.0001035 2.59775e-16 0)
(0.000307722 -0.000119839 5.52726e-16 -0.000121271 1.78758e-17 0)
(0.00024947 -0.000178739 1.43982e-16 -0.000100358 6.72002e-17 0)
(2.16455e-05 0.000102678 7.30752e-17 -0.000222189 -4.84096e-17 0)
(8.02269e-05 -0.000141634 -1.58294e-17 -4.44965e-05 4.5445e-17 0)
(0.000321498 -0.000162791 -3.23851e-16 -0.000163186 1.66832e-16 0)
(0.000448409 -0.000136048 2.2302e-16 -0.000187048 -7.49482e-16 0)
(0.000313842 -0.000102914 1.17918e-15 -0.000130989 -1.084e-16 0)
(0.000145961 -2.60359e-05 1.7911e-16 -7.21281e-06 3.78387e-17 0)
(0.000139395 6.64235e-05 -7.30752e-17 -0.000395549 -5.60316e-16 0)
(0.000100896 -0.000131861 9.97466e-17 -2.38636e-06 1.50941e-16 0)
(0.000393763 -0.000169463 -1.1563e-15 -0.000169093 -3.50861e-16 0)
(0.00227942 3.39926e-05 9.78628e-17 -0.00111347 -2.16905e-15 0)
(-3.03921e-05 -1.48218e-05 4.33681e-17 -5.60279e-05 -3.46021e-17 0)
(0.000152478 -4.88528e-06 3.72098e-16 -2.39048e-05 -1.40946e-17 0)
(0.000149455 -1.62894e-05 5.70507e-16 -1.28687e-05 1.98782e-17 0)
(0.000176055 -3.37722e-05 -1.7022e-16 -5.86353e-05 -1.71863e-16 0)
(0.000311159 -6.29877e-05 -6.27319e-16 -0.000129407 9.82423e-17 0)
(-2.46343e-05 -1.06321e-05 3.10082e-17 -7.28811e-05 -4.55687e-17 0)
(5.95052e-05 -0.000111432 -9.90961e-17 2.01956e-05 -6.69292e-17 0)
(0.000810946 0.000391841 -3.08198e-15 -0.000328925 -1.25767e-16 0)
(0.000751784 0.000298559 -2.07679e-16 -0.000358327 1.09884e-15 0)
(0.00014315 -0.000180517 3.85976e-17 -4.70725e-05 2.36331e-16 0)
(0.000157505 -0.000174542 7.45931e-17 -5.01662e-05 1.22204e-16 0)
(0.000157156 -1.36314e-05 6.72205e-17 -3.57386e-05 2.23278e-18 0)
(0.000450768 -6.70261e-05 -2.66931e-16 -0.000195367 1.14871e-16 0)
(6.99241e-05 -0.000131044 -5.24754e-17 8.13423e-06 -3.02526e-17 0)
(0.000178757 -1.54883e-05 -4.85072e-16 -6.98015e-05 2.17938e-16 0)
(-6.41918e-06 -8.65434e-05 1.95156e-17 -1.41941e-05 2.18238e-17 0)
(6.12825e-06 -6.11921e-05 -1.08854e-16 -7.20104e-05 1.27882e-16 0)
(0.000299389 -0.000122548 3.01842e-16 -0.000121409 1.7887e-16 0)
(0.00011935 -0.000107172 4.6122e-16 -0.000135718 -6.33174e-17 0)
(-4.46583e-06 -4.86756e-05 -1.10155e-16 -6.9343e-05 6.43135e-17 0)
(0.000128042 -2.49424e-05 -8.67362e-17 2.03692e-05 1.90476e-16 0)
(0.000126927 -2.79292e-05 -6.91721e-17 1.80206e-05 -6.16454e-17 0)
(0.000644216 -0.000206082 3.24437e-15 -0.000609437 7.63929e-16 0)
(0.000559659 -0.000116301 4.78242e-16 -0.000246458 -8.38793e-16 0)
(1.26393e-05 -0.000107817 3.49113e-17 -1.97575e-06 7.5535e-18 0)
(9.76498e-05 -0.000126303 9.32414e-17 2.34801e-08 -1.15095e-17 0)
(0.00037204 -0.000389313 8.45244e-16 -0.000381111 1.62609e-15 0)
(0.000127508 -2.18916e-05 -1.95156e-18 2.18226e-05 1.26051e-16 0)
(-3.02582e-05 -4.41555e-05 4.33681e-18 2.15066e-05 -5.43372e-18 0)
(-2.00333e-05 -4.53505e-05 1.25767e-17 2.11243e-05 -1.44817e-17 0)
(0.000210206 -7.09792e-05 1.20563e-16 -7.94399e-05 2.16644e-16 0)
(0.000103097 -5.65883e-05 -4.18502e-17 1.47787e-05 -6.19266e-17 0)
(5.83062e-05 -0.000101761 -4.03323e-17 2.37797e-05 -2.79148e-17 0)
(0.00012966 -7.20884e-05 1.56125e-16 -3.35392e-06 9.24791e-17 0)
(0.000119696 -4.15816e-06 -9.90961e-17 5.02536e-05 1.92613e-16 0)
(0.000173974 4.46446e-08 -1.8323e-16 -7.42754e-05 -1.21e-16 0)
(5.02705e-06 -7.54307e-05 -3.68629e-17 3.39658e-05 -3.05609e-18 0)
(5.11283e-05 -4.25951e-06 -1.28153e-16 3.82702e-05 2.40418e-17 0)
(8.08815e-06 -2.05874e-05 1.17311e-16 -9.37762e-05 1.40946e-16 0)
(8.58966e-05 -0.000157636 1.75641e-16 -1.18191e-05 -1.53274e-16 0)
(2.99448e-05 -5.05035e-05 2.66714e-17 4.09862e-05 4.38255e-17 0)
(-3.14402e-05 -4.00282e-05 1.25767e-17 -2.80455e-05 -4.45201e-17 0)
(-1.09183e-05 -2.66487e-05 -2.62377e-17 4.24458e-05 2.3445e-17 0)
(-2.31778e-05 -3.72642e-05 5.85469e-18 3.5621e-05 -2.31816e-17 0)
(-1.79796e-05 -3.05858e-05 6.07153e-18 3.22636e-05 -1.43936e-17 0)
(5.30911e-05 -9.50878e-05 1.12974e-16 2.65147e-05 1.66086e-17 0)
(0.000213392 -6.45023e-05 3.01408e-16 -8.41894e-05 2.77583e-16 0)
(0.000101246 -5.02577e-05 -1.86049e-16 1.75245e-05 8.82778e-17 0)
(4.24319e-05 -0.000130016 -1.77809e-17 -1.95015e-05 1.91599e-18 0)
(0.000212915 -7.30814e-05 3.02709e-16 -8.03982e-05 2.39514e-16 0)
(9.98331e-05 -5.79706e-05 -1.27068e-16 1.53155e-05 -5.89654e-17 0)
(0.000170664 -0.000168896 3.89662e-16 -4.62343e-05 -1.018e-16 0)
(0.000170813 -0.000168016 4.84422e-16 -4.84767e-05 -2.25753e-16 0)
(0.000864844 -1.54211e-07 1.01877e-15 -0.00037523 -1.15825e-15 0)
(0.000218768 -0.00010844 3.67545e-16 -7.57901e-05 4.0383e-16 0)
(0.000163088 -1.73888e-05 8.23994e-17 -5.08731e-05 -1.18229e-16 0)
(4.85369e-05 -9.51284e-05 -2.01662e-17 2.6724e-05 -3.16214e-17 0)
(-2.46929e-05 -6.5676e-06 -1.47451e-17 3.52776e-05 5.41762e-18 0)
(0.000189334 -5.33127e-05 -2.50234e-16 -6.51209e-05 1.3975e-16 0)
(-1.91562e-06 -4.92407e-05 -3.40439e-17 4.00436e-05 1.28342e-17 0)
(2.5868e-06 -9.90391e-05 5.05238e-17 -1.47268e-05 -8.23147e-18 0)
(8.48198e-06 -9.30781e-05 5.33427e-17 -2.28283e-05 1.84145e-18 0)
(0.000286649 -0.000134096 3.57353e-16 -0.000114567 1.09835e-16 0)
(0.00206015 -0.00216786 7.90145e-15 -0.00218482 -5.95758e-15 0)
(0.000168624 -2.93612e-05 -4.92228e-17 -5.14926e-05 -1.88532e-16 0)
(0.000748901 -6.03182e-05 2.12981e-15 -0.000327545 1.54206e-15 0)
(0.000786146 -3.28058e-05 2.60686e-15 -0.000338023 1.44318e-15 0)
(0.000162223 -0.000152157 2.80592e-16 -0.000104889 1.39672e-16 0)
(-2.28527e-05 -5.6298e-05 -1.12757e-17 -1.53696e-05 -4.54687e-18 0)
(0.000121797 -4.25867e-06 -3.36103e-16 4.08897e-05 1.49503e-16 0)
(0.000174432 -8.53652e-07 3.15286e-16 -7.36097e-05 1.72683e-16 0)
(3.20471e-05 -0.000120915 -1.10589e-17 5.98849e-06 7.60466e-17 0)
(7.89766e-05 -9.45235e-05 2.52402e-16 -9.5403e-05 1.25496e-16 0)
(-2.43868e-05 -6.36915e-05 -1.73472e-17 -7.6701e-06 -3.41862e-18 0)
(-7.70783e-05 0.000176166 7.97973e-17 -0.000125971 2.87314e-17 0)
(0.000270897 -0.0001255 4.14165e-17 -0.000102522 -2.32751e-16 0)
(0.000226644 -6.49475e-05 2.60209e-16 -8.81008e-05 -1.65548e-16 0)
(9.02698e-05 -4.88565e-05 9.25909e-17 1.99093e-05 1.15718e-16 0)
(0.000179183 -0.000142169 2.83844e-16 -0.00010668 3.64563e-16 0)
(4.52288e-06 -1.08015e-06 7.43763e-17 -0.000138781 -1.11551e-16 0)
(0.00012021 -2.30768e-06 -2.54571e-16 4.8849e-05 2.39939e-17 0)
(0.000174467 -2.70183e-08 -3.49547e-16 -7.43917e-05 -6.86198e-17 0)
(0.000858847 0.000297722 1.3861e-15 -0.00046585 2.47307e-16 0)
(0.000140615 -0.000120039 1.20563e-16 -0.000135133 -1.17094e-16 0)
(4.92538e-05 -2.52375e-05 -7.09068e-17 3.99722e-05 2.03838e-17 0)
(0.000233219 -0.000130952 -7.76289e-17 -0.000183105 -2.70237e-16 0)
(0.000846692 0.000362793 -2.42617e-16 -0.000295251 -7.3574e-16 0)
(9.4329e-05 -0.000151442 2.10552e-16 -8.88124e-06 -1.97379e-16 0)
(0.000115956 -2.76515e-05 -1.38561e-16 1.78916e-05 1.25158e-17 0)
(0.000409614 -0.000162234 -3.24393e-16 -0.000171926 7.07171e-17 0)
(6.83895e-05 2.27824e-05 1.62197e-16 -0.000279049 -2.49917e-16 0)
(0.000199225 -0.000109528 -2.0795e-16 -6.23735e-05 -2.70425e-16 0)
(0.000847319 0.000366468 -8.29035e-16 -0.000316646 -4.32597e-16 0)
(0.000295738 -6.16529e-05 -3.42825e-16 -0.000125131 1.61383e-16 0)
(0.000838373 0.000331494 5.46763e-16 -0.000408334 -9.33606e-16 0)
(0.000123866 -2.0624e-05 2.69966e-16 2.35504e-05 2.13453e-16 0)
(0.000683309 -5.54926e-05 -8.36787e-16 -0.000284434 5.98751e-17 0)
(0.000348418 -0.000172749 -6.17128e-16 -0.000146866 1.51246e-16 0)
(0.000374329 -0.000162772 -1.14156e-15 -0.000156168 -4.94328e-16 0)
(0.000149271 -3.99182e-05 1.0365e-16 -2.03436e-05 1.15759e-16 0)
(0.000760908 4.25713e-05 -1.0636e-16 -0.000418303 -3.65918e-16 0)
(0.000191542 -5.84211e-05 3.77302e-17 -6.58034e-05 4.38255e-17 0)
(0.000218326 -0.000105655 4.00504e-16 -7.93197e-05 2.80332e-16 0)
(0.000118407 4.52342e-05 -3.64292e-17 -0.000366241 -6.63715e-16 0)
(0.000194939 -0.000108352 -5.34078e-16 -6.23583e-05 -2.49336e-16 0)
(0.000141401 -4.34872e-06 -2.85579e-16 1.01066e-06 -5.17097e-17 0)
(0.00010319 1.89908e-05 7.39426e-17 -0.000351643 -4.52444e-16 0)
(0.000218196 -0.000144606 2.10335e-17 -7.05463e-05 1.49947e-16 0)
(0.000225829 -0.000843898 -1.7009e-15 -0.000210342 4.00287e-16 0)
(-2.26295e-05 -4.16006e-05 6.72205e-18 -4.63436e-05 -4.78218e-17 0)
(0.00120088 0.000173458 3.19964e-15 -0.000873475 -1.49631e-15 0)
(0.000536395 -0.000107911 4.61653e-16 -0.000315049 7.6523e-16 0)
(2.05812e-05 2.62982e-05 6.09322e-17 -0.000182531 -1.99588e-16 0)
(-3.29083e-05 -3.99598e-06 -1.64799e-17 -5.08067e-06 1.60846e-18 0)
(1.59322e-05 -6.67242e-06 1.70653e-16 -0.000115279 2.91298e-16 0)
(0.000396927 -0.000146554 -1.15576e-15 -0.000159655 3.22509e-16 0)
(0.000215825 -9.95543e-05 1.46801e-16 -7.83936e-05 3.80489e-16 0)
(-1.00461e-05 2.82518e-06 3.55618e-17 -9.17115e-05 -3.87873e-16 0)
(0.000754235 5.17319e-05 -1.13576e-15 -0.000452929 -1.03324e-16 0)
(-1.9709e-05 -0.000586918 1.92121e-16 -0.000239253 1.2065e-15 0)
(0.000178733 -1.09219e-05 -5.82217e-16 -7.15989e-05 1.94574e-16 0)
(0.000176569 -8.77851e-06 -4.98082e-16 -7.21248e-05 1.00102e-16 0)
(-2.49997e-05 -5.62153e-05 2.38524e-18 1.72746e-05 -4.61167e-18 0)
(-2.31018e-05 -4.46596e-05 8.67362e-19 1.40837e-05 -7.01979e-18 0)
(0.000721129 0.00024097 8.47453e-16 -0.000106647 -5.7029e-17 0)
(0.000762888 7.42492e-05 -1.70502e-15 -0.000396207 6.31006e-17 0)
(0.00201731 -0.000816007 -4.29778e-15 -0.00156331 -1.96045e-15 0)
(9.24011e-05 -0.000110241 6.44016e-17 7.97324e-06 2.70271e-17 0)
(0.000172148 -4.49705e-06 -9.62772e-17 -6.98615e-05 1.82087e-17 0)
(3.69569e-05 -0.000107939 -7.63278e-17 2.20461e-05 -3.86518e-17 0)
(3.13696e-05 3.42861e-05 5.74627e-17 -0.000214652 -1.71026e-16 0)
(0.000480077 -0.000106929 2.49366e-16 -0.000205967 -8.21595e-16 0)
(0.000119396 -0.00016966 6.72205e-18 -3.37832e-05 3.3167e-16 0)
(2.89956e-05 -0.000101212 -7.39426e-17 2.65264e-05 -7.70122e-17 0)
(-2.4539e-05 -3.3268e-05 -3.46945e-18 -5.36471e-05 -5.90433e-17 0)
(0.00489665 -0.00138197 -6.19654e-15 -0.00481298 9.14297e-15 0)
(0.000203547 -0.000135089 1.04734e-16 -6.46457e-05 -2.23527e-16 0)
(0.00020681 -0.000130781 2.10335e-16 -6.8112e-05 1.63647e-17 0)
(0.000334553 -0.000179241 -8.30065e-16 -0.000140819 5.96609e-16 0)
(0.000358621 -0.000178007 -1.33357e-17 -0.000161 5.12286e-17 0)
(0.000616862 -9.70022e-05 -1.22135e-15 -0.000292757 9.99472e-16 0)
(0.000463 -0.000109095 1.19186e-15 -0.000316871 7.72711e-16 0)
(0.000175622 -1.26273e-05 -1.62197e-16 -6.96816e-05 5.70172e-17 0)
(-1.14754e-06 -9.41426e-06 1.58077e-16 -0.000121597 -3.99596e-17 0)
(0.000381592 -0.000162568 -2.53703e-16 -0.000165458 3.23499e-16 0)
(0.000466457 -0.000123824 4.75423e-16 -0.000326177 4.04299e-16 0)
(0.000313722 -0.00015154 2.20527e-16 -0.000120947 5.69071e-17 0)
(0.000295605 -0.000152928 1.70653e-16 -0.000117481 1.25056e-17 0)
(0.000125824 -6.94912e-05 -1.95156e-18 -1.73663e-06 -5.37256e-17 0)
(0.000124786 -3.04512e-05 -7.24247e-17 1.71703e-05 6.19113e-17 0)
(0.00135119 0.000214943 -3.54859e-16 -0.000813721 -1.35699e-15 0)
(2.76067e-06 -1.3758e-05 -4.90059e-17 -0.000124273 -4.48521e-17 0)
(0.000143977 -9.64718e-05 8.86877e-17 -2.1448e-05 3.24022e-16 0)
(0.00016296 -8.28618e-06 9.69277e-17 -5.16208e-05 -1.03826e-16 0)
(0.000150894 -0.000107723 -9.60603e-17 -2.65433e-05 -3.30428e-17 0)
(3.19404e-05 -8.42892e-05 -9.08561e-17 3.29201e-05 -5.53214e-17 0)
(0.000148658 -9.01808e-05 5.47305e-16 -2.57633e-05 1.99855e-16 0)
(-4.83705e-06 -7.78944e-05 6.50521e-18 -2.72204e-05 5.3873e-17 0)
(0.000412663 -7.9285e-05 -1.43765e-16 -0.000174149 1.28546e-16 0)
(0.000210609 -4.72731e-05 -2.13154e-16 -8.20694e-05 3.65749e-17 0)
(4.72416e-05 -0.000133676 2.3332e-16 -0.000127037 -1.42464e-16 0)
(-9.92593e-05 0.00019933 7.04731e-17 -0.000107392 2.54788e-18 0)
(0.00264771 -0.00192636 9.92696e-16 -0.00317533 -3.69973e-15 0)
(0.000104066 -0.000152744 2.9577e-16 -9.65918e-06 -1.87028e-16 0)
(0.000174358 8.64979e-07 4.46908e-16 -7.52526e-05 -2.87627e-16 0)
(0.000116495 7.52247e-07 -2.55872e-17 5.75567e-05 3.11519e-16 0)
(0.000127215 -2.43968e-05 -3.33934e-17 2.01645e-05 1.14277e-16 0)
(2.57925e-06 -9.45642e-05 4.33681e-19 -1.26557e-05 3.61628e-17 0)
(0.00011333 -0.00011308 -1.73039e-16 -5.8655e-06 1.62766e-17 0)
(0.000160202 -0.000111239 -2.92951e-16 -3.61812e-05 -1.70159e-16 0)
(0.000169344 -0.000116862 5.20634e-16 -3.99874e-05 -4.47914e-16 0)