/*--------------------------------*- C++ -*----------------------------------*\
| =========                 |                                                 |
| \\      /  F ield         | OpenFOAM: The Open Source CFD Toolbox           |
|  \\    /   O peration     | Version:  v2012                                 |
|   \\  /    A nd           | Website:  www.openfoam.com                      |
|    \\/     M anipulation  |                                                 |
\*---------------------------------------------------------------------------*/
FoamFile
{
    version     2.0;
    format      ascii;
    class       pointSymmTensorField;
    location    "19";
    object      pEpsilon;
}
// * * * * * * * * * * * * * * * * * * * * * * * * * * * * * * * * * * * * * //

dimensions      [0 0 0 0 0 0 0];


internalField   nonuniform List<symmTensor> 
7900
(
(0.00020513 7.18699e-06 -1.55854e-15 -0.000531888 0 0)
(0.000116849 -1.54207e-06 -6.66784e-17 6.24748e-05 0 0)
(0.000173614 2.23721e-07 6.50521e-18 -7.45945e-05 -3.37593e-16 0)
(-0.000136547 4.65477e-05 0 2.86676e-05 -1.07878e-16 0)
(0.00646598 -0.000161681 0 -0.00705207 1.88803e-14 0)
(0.00020513 7.18699e-06 -1.55854e-15 -0.000531888 0 0)
(0.000116849 -1.54207e-06 -6.66784e-17 6.24748e-05 0 0)
(0.000173614 2.23721e-07 6.50521e-18 -7.45945e-05 -3.37593e-16 0)
(-0.000136547 4.65477e-05 0 2.86676e-05 -1.07878e-16 0)
(0.00646598 -0.000161681 0 -0.00705207 1.88803e-14 0)
(0.000173351 2.09251e-06 -6.59195e-16 -0.000459705 0 0)
(0.000134091 1.36678e-06 7.04731e-18 -0.000387135 0 0)
(0.00010085 -3.0338e-06 2.98156e-17 -0.000336172 0 0)
(6.90101e-05 -4.06297e-06 -1.70762e-16 -0.000280724 0 0)
(4.2716e-05 -2.4585e-06 8.61941e-17 -0.000234258 0 0)
(2.40573e-05 -2.47088e-06 -3.95734e-17 -0.000196085 0 0)
(8.72964e-06 -2.80883e-06 2.54788e-17 -0.000162896 0 0)
(-3.29145e-06 -3.15876e-06 -3.36103e-17 -0.000134979 0 0)
(-1.33018e-05 -4.41255e-06 5.09575e-17 -0.000108326 0 0)
(-2.29048e-05 -6.62069e-06 5.74627e-17 -8.3943e-05 0 0)
(-3.02941e-05 -5.1368e-06 9.6494e-17 -6.08862e-05 0 0)
(-3.26063e-05 -5.36178e-06 3.57787e-17 -4.51401e-05 0 0)
(-3.66538e-05 -6.91486e-06 1.40946e-17 -2.83815e-05 0 0)
(-3.7156e-05 -4.41161e-06 -3.90313e-17 -1.59069e-05 0 0)
(-3.68093e-05 -6.93728e-06 -2.1684e-17 -5.09831e-06 0 0)
(-3.75773e-05 -5.2981e-06 -6.50521e-18 5.68166e-06 0 0)
(-3.52456e-05 -4.27328e-06 -3.30682e-17 1.40796e-05 0 0)
(-3.30125e-05 -5.29576e-06 -9.21572e-18 2.18419e-05 0 0)
(-3.06883e-05 -4.58016e-06 5.42101e-19 2.86683e-05 0 0)
(-2.68728e-05 -5.31911e-06 -3.79471e-18 3.33394e-05 0 0)
(-2.22127e-05 -5.29829e-06 -2.6563e-17 3.6769e-05 0 0)
(-1.87155e-05 -5.03788e-06 -7.58942e-18 4.04028e-05 0 0)
(-1.33414e-05 -5.03655e-06 -2.27682e-17 4.27813e-05 0 0)
(-9.08547e-06 -5.00976e-06 8.23994e-17 4.46621e-05 0 0)
(-3.12716e-06 -4.75989e-06 -3.57787e-17 4.54525e-05 0 0)
(1.75051e-06 -4.02816e-06 -4.60786e-17 4.64655e-05 0 0)
(7.23575e-06 -4.64209e-06 5.25838e-17 4.67734e-05 0 0)
(1.3719e-05 -4.28666e-06 -7.26415e-17 4.65407e-05 0 0)
(1.87807e-05 -4.2766e-06 1.91904e-16 4.5819e-05 0 0)
(2.5394e-05 -4.2362e-06 -2.00577e-17 4.48353e-05 0 0)
(3.02776e-05 -4.02836e-06 -1.44741e-16 4.37484e-05 0 0)
(3.6539e-05 -4.10357e-06 -3.14419e-17 4.2602e-05 0 0)
(4.28875e-05 -3.60678e-06 -6.93889e-17 4.08991e-05 0 0)
(4.80508e-05 -3.25012e-06 -2.52077e-16 3.88957e-05 0 0)
(5.44036e-05 -3.18425e-06 -9.26993e-17 3.75408e-05 0 0)
(5.96915e-05 -2.51853e-06 1.20346e-16 3.56824e-05 0 0)
(6.44077e-05 -2.19828e-06 -3.7405e-17 3.38666e-05 0 0)
(6.97529e-05 -2.6497e-06 -2.17925e-16 3.23981e-05 0 0)
(7.50103e-05 -3.09166e-06 -1.55041e-16 3.0498e-05 0 0)
(8.03532e-05 -3.06173e-06 2.13046e-16 2.86072e-05 0 0)
(8.51371e-05 -2.63085e-06 5.07949e-16 2.68749e-05 0 0)
(8.98496e-05 -2.38623e-06 1.77809e-16 2.56533e-05 0 0)
(9.35141e-05 -2.63647e-06 1.77809e-16 2.44548e-05 0 0)
(9.79856e-05 -2.88038e-06 -3.9465e-16 2.33191e-05 0 0)
(0.000102429 -2.5576e-06 -4.60786e-16 2.2318e-05 0 0)
(0.000105951 -1.92473e-06 -5.14996e-16 2.16918e-05 0 0)
(0.000108712 -1.85481e-06 -6.64074e-16 2.15437e-05 0 0)
(0.00011217 -1.97856e-06 -9.54098e-17 2.14911e-05 0 0)
(0.000114799 -2.25591e-06 -1.6263e-17 2.20029e-05 0 0)
(0.000116943 -1.90262e-06 -1.6263e-17 2.30057e-05 0 0)
(0.000119047 -2.07116e-06 2.49366e-17 2.42433e-05 0 0)
(0.000120809 -2.03875e-06 -6.9931e-17 2.5729e-05 0 0)
(0.000121774 -1.6348e-06 -1.69678e-16 2.81296e-05 0 0)
(0.000122613 -1.48974e-06 -3.68629e-17 3.08031e-05 0 0)
(0.000122725 -1.32212e-06 2.73219e-16 3.4631e-05 0 0)
(0.000122856 -1.52722e-06 1.42573e-16 3.83483e-05 0 0)
(0.000121368 -2.29467e-06 4.32597e-16 4.37711e-05 0 0)
(0.00011925 -1.32929e-06 3.5345e-16 4.97649e-05 0 0)
(0.000117782 -1.11252e-06 2.56414e-16 5.58851e-05 0 0)
(0.000116637 -5.56403e-07 6.22332e-16 6.28582e-05 1.1988e-16 0)
(0.000114168 -7.44927e-07 -5.04154e-17 6.33309e-05 -2.38334e-17 0)
(0.00011905 -9.51712e-07 2.4503e-16 6.03798e-05 -1.07069e-16 0)
(0.000118017 -8.03394e-07 8.29415e-17 5.98285e-05 3.04805e-17 0)
(0.000119266 -9.47488e-07 -5.42101e-18 5.67626e-05 -3.45615e-16 0)
(0.000120211 -2.32688e-06 2.3744e-16 5.44654e-05 2.43641e-16 0)
(0.000121053 -1.52794e-06 4.42897e-16 5.21112e-05 -1.48485e-17 0)
(0.000122417 -2.27692e-06 5.38848e-16 4.84894e-05 7.8647e-17 0)
(0.000124684 -2.7508e-06 1.54499e-16 4.49015e-05 2.55753e-16 0)
(0.000125719 -1.49742e-06 4.12539e-16 4.13146e-05 -4.90195e-16 0)
(0.000127663 -1.79159e-06 2.60209e-17 3.60029e-05 -2.99401e-16 0)
(0.000129718 -2.80072e-06 -1.19262e-16 3.12834e-05 1.82366e-16 0)
(0.000131051 -2.15788e-06 -8.45678e-17 2.71591e-05 -4.77218e-17 0)
(0.000133909 -2.68385e-06 -7.02021e-16 2.08605e-05 -2.2941e-16 0)
(0.000136383 -3.50758e-06 -7.80626e-17 1.52045e-05 -3.32291e-16 0)
(0.000137679 -3.2728e-06 -4.61328e-16 1.05223e-05 1.98714e-17 0)
(0.000140326 -3.63425e-06 -2.54245e-16 4.2094e-06 4.97547e-17 0)
(0.000143753 -4.20471e-06 -7.60568e-16 -2.31446e-06 -9.89334e-18 0)
(0.000145247 -3.40494e-06 -7.55147e-16 -7.51583e-06 -3.05321e-16 0)
(0.000148517 -3.11518e-06 -1.14871e-15 -1.42079e-05 2.20279e-16 0)
(0.000150469 -3.10227e-06 1.0842e-17 -1.99967e-05 8.15523e-17 0)
(0.00015235 -3.65769e-06 5.07407e-16 -2.57809e-05 -5.39289e-16 0)
(0.000155739 -3.67599e-06 2.29309e-16 -3.23062e-05 5.82725e-16 0)
(0.000158379 -3.5568e-06 3.19298e-16 -3.82623e-05 4.67647e-16 0)
(0.000159634 -2.86941e-06 -2.07083e-16 -4.28938e-05 1.65078e-16 0)
(0.000162505 -2.4456e-06 -2.80808e-16 -4.87022e-05 -2.38372e-16 0)
(0.000164473 -2.011e-06 5.22043e-16 -5.40513e-05 -5.19824e-17 0)
(0.000165657 -2.32941e-06 -2.49366e-16 -5.78677e-05 9.3343e-17 0)
(0.000167709 -1.83573e-06 2.8894e-16 -6.22586e-05 -1.49476e-16 0)
(0.00016923 -1.93363e-06 3.68629e-16 -6.60203e-05 -8.46821e-17 0)
(0.000170825 -1.39961e-06 2.46114e-16 -6.9397e-05 -1.00077e-16 0)
(0.000171454 -1.24263e-06 2.78098e-16 -7.17023e-05 3.15045e-16 0)
(0.000172875 -8.21162e-07 2.17925e-16 -7.42142e-05 -1.91895e-17 0)
(0.000173316 -9.76638e-07 1.29074e-15 -7.5389e-05 -8.48303e-17 0)
(0.000173831 -1.53022e-07 9.12898e-16 -7.61307e-05 1.55918e-16 0)
(0.000174135 1.05021e-07 1.79978e-16 -7.66709e-05 -1.46156e-16 0)
(0.000173749 2.59727e-07 6.70579e-16 -7.60761e-05 -3.62471e-16 0)
(0.000174338 4.36055e-07 1.29562e-16 -7.57155e-05 -2.20694e-16 0)
(0.000173911 2.97376e-07 3.05203e-16 -7.49997e-05 -4.52231e-17 0)
(0.000173171 3.23539e-07 5.43727e-16 -7.42964e-05 -7.04062e-16 0)
(0.000172516 4.80622e-07 -1.02349e-15 -7.40897e-05 -2.24879e-16 0)
(0.00017212 2.33021e-07 -7.96889e-17 -7.4338e-05 -4.64005e-17 0)
(0.000171608 4.6691e-08 2.33103e-16 -7.4016e-05 -4.57838e-16 0)
(0.000171776 -3.45174e-07 5.45354e-16 -7.44283e-05 1.23464e-16 0)
(0.000172466 -2.70016e-07 2.11419e-16 -7.46375e-05 2.38304e-16 0)
(0.000174031 -9.22813e-07 6.34258e-17 -7.55942e-05 3.71e-17 0)
(0.000175758 -1.1871e-06 -4.56991e-16 -7.58568e-05 2.35797e-16 0)
(0.000178967 -1.66427e-06 3.82723e-16 -7.78076e-05 -3.05271e-16 0)
(0.000181721 -1.82549e-06 -5.0307e-16 -7.88104e-05 -9.47999e-17 0)
(0.000185823 -2.16082e-06 1.37152e-16 -8.11369e-05 2.14282e-16 0)
(0.000189755 -1.98769e-06 -2.40151e-16 -8.18769e-05 1.04693e-17 0)
(0.000194885 -2.63647e-06 9.86624e-16 -8.47771e-05 4.4786e-16 0)
(0.000199322 -2.44469e-06 -4.01155e-17 -8.59932e-05 -4.85519e-17 0)
(0.000205467 -3.03011e-06 9.36751e-16 -8.82462e-05 1.74455e-16 0)
(0.000212533 -3.73451e-06 -1.70762e-16 -9.18704e-05 1.93056e-16 0)
(0.000219315 -4.17201e-06 9.30788e-16 -9.48482e-05 -2.08573e-16 0)
(0.000225314 -3.54838e-06 7.83878e-16 -9.67095e-05 -1.40269e-16 0)
(0.000233367 -3.98512e-06 -2.71593e-16 -0.000100221 -1.10114e-16 0)
(0.000241319 -4.7457e-06 -1.14492e-15 -0.000103254 -4.17181e-16 0)
(0.000250437 -4.99105e-06 1.00126e-15 -0.000107596 -9.21572e-18 0)
(0.000259639 -5.15574e-06 -5.31801e-16 -0.000111081 6.51877e-17 0)
(0.000268535 -7.00086e-06 -5.04154e-17 -0.000114978 -4.16164e-16 0)
(0.000277731 -4.77615e-06 5.37764e-16 -0.000118724 3.18417e-16 0)
(0.000288959 -4.44418e-06 -3.90855e-16 -0.000123926 -4.28937e-17 0)
(0.000298229 -5.45648e-06 1.6263e-18 -0.000126533 2.20025e-16 0)
(0.00031042 -5.4704e-06 -1.40079e-15 -0.000132802 6.93144e-16 0)
(0.000320316 -6.66989e-06 -2.02204e-16 -0.000135328 -5.56263e-16 0)
(0.000333384 -5.93037e-06 -3.95734e-16 -0.000142252 -9.17506e-17 0)
(0.000345053 -7.08217e-06 -2.33103e-16 -0.00014561 2.82164e-16 0)
(0.000358408 -5.71708e-06 4.22839e-16 -0.000152533 1.16891e-17 0)
(0.000370111 -6.69575e-06 9.15067e-16 -0.000155608 -8.64956e-16 0)
(0.000386605 -6.81817e-06 -3.71339e-16 -0.000164559 5.80726e-16 0)
(0.000398998 -9.64578e-06 1.30809e-15 -0.000168487 1.32334e-15 0)
(0.000414981 -8.04437e-06 -2.81513e-15 -0.000175971 2.04525e-15 0)
(0.00042879 -9.30494e-06 3.57624e-15 -0.000179301 1.10694e-15 0)
(0.0004452 -8.96967e-06 1.07661e-15 -0.000188176 1.41407e-15 0)
(0.000459608 -9.89872e-06 3.19298e-16 -0.000193013 2.14401e-16 0)
(0.000479122 -8.09684e-06 -1.24141e-15 -0.000203026 9.26485e-16 0)
(0.000495651 -8.71339e-06 8.05562e-16 -0.000209207 -2.50109e-15 0)
(0.000510913 -1.10314e-05 2.55384e-15 -0.000213256 -9.40952e-16 0)
(0.000532432 -8.84623e-06 3.08998e-15 -0.00022453 1.33303e-15 0)
(0.000548049 -1.24235e-05 3.86464e-15 -0.000229439 1.91355e-15 0)
(0.000565221 -1.11065e-05 2.54733e-15 -0.000236682 1.42349e-15 0)
(0.000588592 -8.30168e-06 -2.76146e-15 -0.000247578 1.35871e-15 0)
(0.000605036 -1.31845e-05 -1.63823e-15 -0.000253543 1.18937e-15 0)
(0.000621196 -9.66663e-06 1.25876e-15 -0.000259028 6.71799e-16 0)
(0.000643551 -6.57664e-06 -6.33987e-16 -0.000271032 -1.39252e-16 0)
(0.00065556 -7.2764e-06 1.85317e-15 -0.000274222 -2.61909e-15 0)
(0.000684364 2.42577e-06 -4.90764e-15 -0.000292513 -7.93094e-16 0)
(0.000721181 4.8977e-06 -3.91451e-15 -0.000311363 6.74916e-16 0)
(0.000769965 7.65003e-06 2.06459e-15 -0.000355582 -1.44429e-15 0)
(0.000807549 -1.21275e-05 9.99905e-16 -0.000392386 3.21059e-16 0)
(0.000823942 -1.81207e-05 -3.95734e-17 -0.000390608 -3.02221e-17 0)
(0.000842405 -1.84953e-05 5.82759e-16 -0.000392406 1.146e-15 0)
(0.000844587 -2.10411e-05 3.45915e-15 -0.000356526 -1.99737e-15 0)
(0.000885591 -9.02831e-06 3.30627e-15 -0.000408741 6.75729e-16 0)
(0.000924344 -1.95892e-05 -1.69705e-15 -0.000450614 8.90672e-16 0)
(0.000889444 -3.77797e-05 -3.29923e-15 -0.000354226 3.16845e-15 0)
(0.000896597 -1.25174e-05 -2.2153e-15 -0.000372172 -1.8838e-15 0)
(0.000913558 -1.44436e-05 -5.97111e-15 -0.000377672 -3.10895e-16 0)
(0.000918697 -3.51528e-06 3.27307e-15 -0.000376613 4.00613e-16 0)
(0.000917433 4.03992e-06 -1.30511e-15 -0.000374942 -2.14022e-15 0)
(0.000911354 1.72199e-05 2.63339e-15 -0.000376053 -1.36826e-15 0)
(0.000885439 2.21662e-05 1.85344e-15 -0.000353726 -3.08184e-16 0)
(0.000851309 2.23195e-05 2.32317e-15 -0.000353535 -1.29074e-15 0)
(0.000789752 3.74676e-05 1.75139e-15 -0.000327286 -3.50197e-16 0)
(0.000726495 4.82228e-05 -5.20095e-15 -0.000311134 5.52943e-16 0)
(0.000634325 5.42003e-05 2.46849e-15 -0.0002713 -1.98951e-16 0)
(0.000536004 5.29799e-05 -5.54281e-16 -0.000235007 -1.32761e-15 0)
(0.000444523 6.72556e-05 8.47321e-16 -0.000204934 -2.77556e-16 0)
(0.000355163 6.04134e-05 7.35267e-16 -0.000173887 -3.70255e-16 0)
(0.00023603 4.87331e-05 1.34289e-16 -0.000122014 2.33103e-16 0)
(0.000155716 6.51492e-05 1.49315e-16 -0.000100662 -2.93819e-16 0)
(8.40065e-05 4.51747e-05 -3.58752e-16 -7.71356e-05 -1.07878e-16 0)
(-2.34616e-05 2.93335e-05 -4.24364e-16 -2.39069e-05 4.44523e-17 0)
(-6.62783e-05 4.81851e-05 -4.29945e-16 -1.96447e-05 -2.25514e-16 0)
(-0.000127558 3.89542e-07 -1.20558e-16 1.56048e-05 -4.20128e-16 0)
(-0.00016445 2.28569e-05 -8.96457e-17 3.31374e-05 -3.07913e-16 0)
(3.47962e-05 3.38285e-05 0 -1.73574e-05 -2.93277e-16 0)
(0.000176956 2.28318e-05 0 -3.87356e-05 -5.91974e-16 0)
(0.000311417 4.87118e-05 0 -6.53195e-05 -5.52943e-17 0)
(0.000438663 4.58615e-05 0 -8.42086e-05 1.19262e-17 0)
(0.000561091 6.48996e-05 0 -9.54343e-05 7.32921e-16 0)
(0.000665579 5.5449e-05 0 -9.14324e-05 5.35596e-16 0)
(0.00076609 5.2105e-05 0 -7.7051e-05 2.72026e-15 0)
(0.000864242 6.14244e-05 0 -4.79013e-05 2.88506e-15 0)
(0.00102026 8.35518e-05 0 -6.67585e-05 -4.11997e-16 0)
(0.00121707 4.60366e-05 0 -0.000136468 -5.66279e-15 0)
(0.00151094 4.78646e-05 0 -0.000300271 -1.99493e-16 0)
(0.0019964 8.43936e-05 0 -0.000753789 1.23057e-15 0)
(0.00264246 6.26434e-05 0 -0.00158003 -3.20707e-15 0)
(0.00365269 2.81042e-06 0 -0.00258003 -1.40984e-14 0)
(0.00458705 -1.44241e-05 0 -0.00387959 -2.70888e-15 0)
(0.00553948 -0.000163265 0 -0.00527372 -2.59791e-14 0)
(0.00639762 -0.00029643 0 -0.006315 -3.32606e-15 0)
(0.00673401 -0.000320547 0 -0.00711514 1.45879e-15 0)
(0.00601453 -0.000449894 0 -0.00704458 -8.21171e-15 0)
(0.00683775 -0.00101211 -2.86832e-14 -0.00871833 -3.15725e-14 0)
(0.00619277 -0.00182846 -5.32538e-14 -0.00792282 -9.42009e-15 0)
(0.00513132 -0.00222602 -3.42619e-14 -0.00627685 2.28543e-15 0)
(0.00416543 -0.00210802 -1.38783e-14 -0.00518515 1.82173e-14 0)
(0.003858 -0.00218254 -1.80634e-14 -0.00468373 1.54613e-14 0)
(0.00265955 -0.00243723 -1.04246e-14 -0.003095 1.1827e-14 0)
(0.00109213 -0.00156619 1.11835e-14 -0.00127644 5.24645e-15 0)
(0.000276644 -0.000537369 5.26272e-15 -0.000458479 1.60814e-15 0)
(-0.000406044 9.49629e-05 2.96367e-15 0.000254969 1.13651e-15 0)
(-0.000510077 0.000335695 -1.68268e-15 0.000105393 1.36582e-15 0)
(-0.000405562 0.000322065 -1.3623e-15 6.18974e-05 -2.6563e-16 0)
(-0.000308381 0.00030284 6.83047e-17 7.71239e-07 1.66425e-16 0)
(-0.000254446 0.000309449 -3.05745e-16 -2.4134e-05 4.79759e-16 0)
(-0.000206523 0.000314609 -2.60209e-17 -6.45991e-05 1.26553e-15 0)
(-0.000170836 0.000301416 2.35272e-16 -9.97161e-05 2.95987e-16 0)
(-0.000137733 0.000312544 -5.20417e-17 -0.000130426 5.25025e-16 0)
(-0.000102572 0.000305841 4.06576e-17 -0.000169243 5.3153e-16 0)
(-7.21478e-05 0.000310331 -2.04914e-16 -0.000199474 2.29038e-16 0)
(-4.46205e-05 0.00031334 -7.80626e-17 -0.00023262 2.59124e-16 0)
(-9.80792e-06 0.000298478 -3.95734e-17 -0.000275918 4.49131e-16 0)
(2.29157e-05 0.000290439 -2.65087e-16 -0.00030799 1.54499e-16 0)
(4.58312e-05 0.000281322 -1.07336e-16 -0.00033677 4.90466e-16 0)
(6.64008e-05 0.000254845 -5.88722e-16 -0.000366311 6.08644e-16 0)
(9.9224e-05 0.000243656 -2.34188e-16 -0.000397694 2.40083e-16 0)
(0.000121457 0.000220793 6.55942e-17 -0.000423789 8.1654e-16 0)
(0.000147395 0.000200696 3.04661e-16 -0.000453851 2.23183e-15 0)
(0.000169771 0.000159946 -7.16658e-16 -0.000478906 1.45927e-15 0)
(0.00017382 0.000138162 -6.01732e-17 -0.000487596 -2.79545e-15 0)
(0.000191465 0.000101524 1.77267e-16 -0.000505868 1.37812e-15 0)
(0.000200002 7.79053e-05 9.11272e-16 -0.000512988 -2.71261e-15 0)
(0.000200166 4.04616e-05 -1.41922e-15 -0.00052073 -2.90597e-15 0)
(0.000173351 2.09251e-06 -6.59195e-16 -0.000459705 0 0)
(0.000134091 1.36678e-06 7.04731e-18 -0.000387135 0 0)
(0.00010085 -3.0338e-06 2.98156e-17 -0.000336172 0 0)
(6.90101e-05 -4.06297e-06 -1.70762e-16 -0.000280724 0 0)
(4.2716e-05 -2.4585e-06 8.61941e-17 -0.000234258 0 0)
(2.40573e-05 -2.47088e-06 -3.95734e-17 -0.000196085 0 0)
(8.72964e-06 -2.80883e-06 2.54788e-17 -0.000162896 0 0)
(-3.29145e-06 -3.15876e-06 -3.36103e-17 -0.000134979 0 0)
(-1.33018e-05 -4.41255e-06 5.09575e-17 -0.000108326 0 0)
(-2.29048e-05 -6.62069e-06 5.74627e-17 -8.3943e-05 0 0)
(-3.02941e-05 -5.1368e-06 9.6494e-17 -6.08862e-05 0 0)
(-3.26063e-05 -5.36178e-06 3.57787e-17 -4.51401e-05 0 0)
(-3.66538e-05 -6.91486e-06 1.40946e-17 -2.83815e-05 0 0)
(-3.7156e-05 -4.41161e-06 -3.90313e-17 -1.59069e-05 0 0)
(-3.68093e-05 -6.93728e-06 -2.1684e-17 -5.09831e-06 0 0)
(-3.75773e-05 -5.2981e-06 -6.50521e-18 5.68166e-06 0 0)
(-3.52456e-05 -4.27328e-06 -3.30682e-17 1.40796e-05 0 0)
(-3.30125e-05 -5.29576e-06 -9.21572e-18 2.18419e-05 0 0)
(-3.06883e-05 -4.58016e-06 5.42101e-19 2.86683e-05 0 0)
(-2.68728e-05 -5.31911e-06 -3.79471e-18 3.33394e-05 0 0)
(-2.22127e-05 -5.29829e-06 -2.6563e-17 3.6769e-05 0 0)
(-1.87155e-05 -5.03788e-06 -7.58942e-18 4.04028e-05 0 0)
(-1.33414e-05 -5.03655e-06 -2.27682e-17 4.27813e-05 0 0)
(-9.08547e-06 -5.00976e-06 8.23994e-17 4.46621e-05 0 0)
(-3.12716e-06 -4.75989e-06 -3.57787e-17 4.54525e-05 0 0)
(1.75051e-06 -4.02816e-06 -4.60786e-17 4.64655e-05 0 0)
(7.23575e-06 -4.64209e-06 5.25838e-17 4.67734e-05 0 0)
(1.3719e-05 -4.28666e-06 -7.26415e-17 4.65407e-05 0 0)
(1.87807e-05 -4.2766e-06 1.91904e-16 4.5819e-05 0 0)
(2.5394e-05 -4.2362e-06 -2.00577e-17 4.48353e-05 0 0)
(3.02776e-05 -4.02836e-06 -1.44741e-16 4.37484e-05 0 0)
(3.6539e-05 -4.10357e-06 -3.14419e-17 4.2602e-05 0 0)
(4.28875e-05 -3.60678e-06 -6.93889e-17 4.08991e-05 0 0)
(4.80508e-05 -3.25012e-06 -2.52077e-16 3.88957e-05 0 0)
(5.44036e-05 -3.18425e-06 -9.26993e-17 3.75408e-05 0 0)
(5.96915e-05 -2.51853e-06 1.20346e-16 3.56824e-05 0 0)
(6.44077e-05 -2.19828e-06 -3.7405e-17 3.38666e-05 0 0)
(6.97529e-05 -2.6497e-06 -2.17925e-16 3.23981e-05 0 0)
(7.50103e-05 -3.09166e-06 -1.55041e-16 3.0498e-05 0 0)
(8.03532e-05 -3.06173e-06 2.13046e-16 2.86072e-05 0 0)
(8.51371e-05 -2.63085e-06 5.07949e-16 2.68749e-05 0 0)
(8.98496e-05 -2.38623e-06 1.77809e-16 2.56533e-05 0 0)
(9.35141e-05 -2.63647e-06 1.77809e-16 2.44548e-05 0 0)
(9.79856e-05 -2.88038e-06 -3.9465e-16 2.33191e-05 0 0)
(0.000102429 -2.5576e-06 -4.60786e-16 2.2318e-05 0 0)
(0.000105951 -1.92473e-06 -5.14996e-16 2.16918e-05 0 0)
(0.000108712 -1.85481e-06 -6.64074e-16 2.15437e-05 0 0)
(0.00011217 -1.97856e-06 -9.54098e-17 2.14911e-05 0 0)
(0.000114799 -2.25591e-06 -1.6263e-17 2.20029e-05 0 0)
(0.000116943 -1.90262e-06 -1.6263e-17 2.30057e-05 0 0)
(0.000119047 -2.07116e-06 2.49366e-17 2.42433e-05 0 0)
(0.000120809 -2.03875e-06 -6.9931e-17 2.5729e-05 0 0)
(0.000121774 -1.6348e-06 -1.69678e-16 2.81296e-05 0 0)
(0.000122613 -1.48974e-06 -3.68629e-17 3.08031e-05 0 0)
(0.000122725 -1.32212e-06 2.73219e-16 3.4631e-05 0 0)
(0.000122856 -1.52722e-06 1.42573e-16 3.83483e-05 0 0)
(0.000121368 -2.29467e-06 4.32597e-16 4.37711e-05 0 0)
(0.00011925 -1.32929e-06 3.5345e-16 4.97649e-05 0 0)
(0.000117782 -1.11252e-06 2.56414e-16 5.58851e-05 0 0)
(0.000116637 -5.56403e-07 6.22332e-16 6.28582e-05 1.1988e-16 0)
(0.000114168 -7.44927e-07 -5.04154e-17 6.33309e-05 -2.38334e-17 0)
(0.00011905 -9.51712e-07 2.4503e-16 6.03798e-05 -1.07069e-16 0)
(0.000118017 -8.03394e-07 8.29415e-17 5.98285e-05 3.04805e-17 0)
(0.000119266 -9.47488e-07 -5.42101e-18 5.67626e-05 -3.45615e-16 0)
(0.000120211 -2.32688e-06 2.3744e-16 5.44654e-05 2.43641e-16 0)
(0.000121053 -1.52794e-06 4.42897e-16 5.21112e-05 -1.48485e-17 0)
(0.000122417 -2.27692e-06 5.38848e-16 4.84894e-05 7.8647e-17 0)
(0.000124684 -2.7508e-06 1.54499e-16 4.49015e-05 2.55753e-16 0)
(0.000125719 -1.49742e-06 4.12539e-16 4.13146e-05 -4.90195e-16 0)
(0.000127663 -1.79159e-06 2.60209e-17 3.60029e-05 -2.99401e-16 0)
(0.000129718 -2.80072e-06 -1.19262e-16 3.12834e-05 1.82366e-16 0)
(0.000131051 -2.15788e-06 -8.45678e-17 2.71591e-05 -4.77218e-17 0)
(0.000133909 -2.68385e-06 -7.02021e-16 2.08605e-05 -2.2941e-16 0)
(0.000136383 -3.50758e-06 -7.80626e-17 1.52045e-05 -3.32291e-16 0)
(0.000137679 -3.2728e-06 -4.61328e-16 1.05223e-05 1.98714e-17 0)
(0.000140326 -3.63425e-06 -2.54245e-16 4.2094e-06 4.97547e-17 0)
(0.000143753 -4.20471e-06 -7.60568e-16 -2.31446e-06 -9.89334e-18 0)
(0.000145247 -3.40494e-06 -7.55147e-16 -7.51583e-06 -3.05321e-16 0)
(0.000148517 -3.11518e-06 -1.14871e-15 -1.42079e-05 2.20279e-16 0)
(0.000150469 -3.10227e-06 1.0842e-17 -1.99967e-05 8.15523e-17 0)
(0.00015235 -3.65769e-06 5.07407e-16 -2.57809e-05 -5.39289e-16 0)
(0.000155739 -3.67599e-06 2.29309e-16 -3.23062e-05 5.82725e-16 0)
(0.000158379 -3.5568e-06 3.19298e-16 -3.82623e-05 4.67647e-16 0)
(0.000159634 -2.86941e-06 -2.07083e-16 -4.28938e-05 1.65078e-16 0)
(0.000162505 -2.4456e-06 -2.80808e-16 -4.87022e-05 -2.38372e-16 0)
(0.000164473 -2.011e-06 5.22043e-16 -5.40513e-05 -5.19824e-17 0)
(0.000165657 -2.32941e-06 -2.49366e-16 -5.78677e-05 9.3343e-17 0)
(0.000167709 -1.83573e-06 2.8894e-16 -6.22586e-05 -1.49476e-16 0)
(0.00016923 -1.93363e-06 3.68629e-16 -6.60203e-05 -8.46821e-17 0)
(0.000170825 -1.39961e-06 2.46114e-16 -6.9397e-05 -1.00077e-16 0)
(0.000171454 -1.24263e-06 2.78098e-16 -7.17023e-05 3.15045e-16 0)
(0.000172875 -8.21162e-07 2.17925e-16 -7.42142e-05 -1.91895e-17 0)
(0.000173316 -9.76638e-07 1.29074e-15 -7.5389e-05 -8.48303e-17 0)
(0.000173831 -1.53022e-07 9.12898e-16 -7.61307e-05 1.55918e-16 0)
(0.000174135 1.05021e-07 1.79978e-16 -7.66709e-05 -1.46156e-16 0)
(0.000173749 2.59727e-07 6.70579e-16 -7.60761e-05 -3.62471e-16 0)
(0.000174338 4.36055e-07 1.29562e-16 -7.57155e-05 -2.20694e-16 0)
(0.000173911 2.97376e-07 3.05203e-16 -7.49997e-05 -4.52231e-17 0)
(0.000173171 3.23539e-07 5.43727e-16 -7.42964e-05 -7.04062e-16 0)
(0.000172516 4.80622e-07 -1.02349e-15 -7.40897e-05 -2.24879e-16 0)
(0.00017212 2.33021e-07 -7.96889e-17 -7.4338e-05 -4.64005e-17 0)
(0.000171608 4.6691e-08 2.33103e-16 -7.4016e-05 -4.57838e-16 0)
(0.000171776 -3.45174e-07 5.45354e-16 -7.44283e-05 1.23464e-16 0)
(0.000172466 -2.70016e-07 2.11419e-16 -7.46375e-05 2.38304e-16 0)
(0.000174031 -9.22813e-07 6.34258e-17 -7.55942e-05 3.71e-17 0)
(0.000175758 -1.1871e-06 -4.56991e-16 -7.58568e-05 2.35797e-16 0)
(0.000178967 -1.66427e-06 3.82723e-16 -7.78076e-05 -3.05271e-16 0)
(0.000181721 -1.82549e-06 -5.0307e-16 -7.88104e-05 -9.47999e-17 0)
(0.000185823 -2.16082e-06 1.37152e-16 -8.11369e-05 2.14282e-16 0)
(0.000189755 -1.98769e-06 -2.40151e-16 -8.18769e-05 1.04693e-17 0)
(0.000194885 -2.63647e-06 9.86624e-16 -8.47771e-05 4.4786e-16 0)
(0.000199322 -2.44469e-06 -4.01155e-17 -8.59932e-05 -4.85519e-17 0)
(0.000205467 -3.03011e-06 9.36751e-16 -8.82462e-05 1.74455e-16 0)
(0.000212533 -3.73451e-06 -1.70762e-16 -9.18704e-05 1.93056e-16 0)
(0.000219315 -4.17201e-06 9.30788e-16 -9.48482e-05 -2.08573e-16 0)
(0.000225314 -3.54838e-06 7.83878e-16 -9.67095e-05 -1.40269e-16 0)
(0.000233367 -3.98512e-06 -2.71593e-16 -0.000100221 -1.10114e-16 0)
(0.000241319 -4.7457e-06 -1.14492e-15 -0.000103254 -4.17181e-16 0)
(0.000250437 -4.99105e-06 1.00126e-15 -0.000107596 -9.21572e-18 0)
(0.000259639 -5.15574e-06 -5.31801e-16 -0.000111081 6.51877e-17 0)
(0.000268535 -7.00086e-06 -5.04154e-17 -0.000114978 -4.16164e-16 0)
(0.000277731 -4.77615e-06 5.37764e-16 -0.000118724 3.18417e-16 0)
(0.000288959 -4.44418e-06 -3.90855e-16 -0.000123926 -4.28937e-17 0)
(0.000298229 -5.45648e-06 1.6263e-18 -0.000126533 2.20025e-16 0)
(0.00031042 -5.4704e-06 -1.40079e-15 -0.000132802 6.93144e-16 0)
(0.000320316 -6.66989e-06 -2.02204e-16 -0.000135328 -5.56263e-16 0)
(0.000333384 -5.93037e-06 -3.95734e-16 -0.000142252 -9.17506e-17 0)
(0.000345053 -7.08217e-06 -2.33103e-16 -0.00014561 2.82164e-16 0)
(0.000358408 -5.71708e-06 4.22839e-16 -0.000152533 1.16891e-17 0)
(0.000370111 -6.69575e-06 9.15067e-16 -0.000155608 -8.64956e-16 0)
(0.000386605 -6.81817e-06 -3.71339e-16 -0.000164559 5.80726e-16 0)
(0.000398998 -9.64578e-06 1.30809e-15 -0.000168487 1.32334e-15 0)
(0.000414981 -8.04437e-06 -2.81513e-15 -0.000175971 2.04525e-15 0)
(0.00042879 -9.30494e-06 3.57624e-15 -0.000179301 1.10694e-15 0)
(0.0004452 -8.96967e-06 1.07661e-15 -0.000188176 1.41407e-15 0)
(0.000459608 -9.89872e-06 3.19298e-16 -0.000193013 2.14401e-16 0)
(0.000479122 -8.09684e-06 -1.24141e-15 -0.000203026 9.26485e-16 0)
(0.000495651 -8.71339e-06 8.05562e-16 -0.000209207 -2.50109e-15 0)
(0.000510913 -1.10314e-05 2.55384e-15 -0.000213256 -9.40952e-16 0)
(0.000532432 -8.84623e-06 3.08998e-15 -0.00022453 1.33303e-15 0)
(0.000548049 -1.24235e-05 3.86464e-15 -0.000229439 1.91355e-15 0)
(0.000565221 -1.11065e-05 2.54733e-15 -0.000236682 1.42349e-15 0)
(0.000588592 -8.30168e-06 -2.76146e-15 -0.000247578 1.35871e-15 0)
(0.000605036 -1.31845e-05 -1.63823e-15 -0.000253543 1.18937e-15 0)
(0.000621196 -9.66663e-06 1.25876e-15 -0.000259028 6.71799e-16 0)
(0.000643551 -6.57664e-06 -6.33987e-16 -0.000271032 -1.39252e-16 0)
(0.00065556 -7.2764e-06 1.85317e-15 -0.000274222 -2.61909e-15 0)
(0.000684364 2.42577e-06 -4.90764e-15 -0.000292513 -7.93094e-16 0)
(0.000721181 4.8977e-06 -3.91451e-15 -0.000311363 6.74916e-16 0)
(0.000769965 7.65003e-06 2.06459e-15 -0.000355582 -1.44429e-15 0)
(0.000807549 -1.21275e-05 9.99905e-16 -0.000392386 3.21059e-16 0)
(0.000823942 -1.81207e-05 -3.95734e-17 -0.000390608 -3.02221e-17 0)
(0.000842405 -1.84953e-05 5.82759e-16 -0.000392406 1.146e-15 0)
(0.000844587 -2.10411e-05 3.45915e-15 -0.000356526 -1.99737e-15 0)
(0.000885591 -9.02831e-06 3.30627e-15 -0.000408741 6.75729e-16 0)
(0.000924344 -1.95892e-05 -1.69705e-15 -0.000450614 8.90672e-16 0)
(0.000889444 -3.77797e-05 -3.29923e-15 -0.000354226 3.16845e-15 0)
(0.000896597 -1.25174e-05 -2.2153e-15 -0.000372172 -1.8838e-15 0)
(0.000913558 -1.44436e-05 -5.97111e-15 -0.000377672 -3.10895e-16 0)
(0.000918697 -3.51528e-06 3.27307e-15 -0.000376613 4.00613e-16 0)
(0.000917433 4.03992e-06 -1.30511e-15 -0.000374942 -2.14022e-15 0)
(0.000911354 1.72199e-05 2.63339e-15 -0.000376053 -1.36826e-15 0)
(0.000885439 2.21662e-05 1.85344e-15 -0.000353726 -3.08184e-16 0)
(0.000851309 2.23195e-05 2.32317e-15 -0.000353535 -1.29074e-15 0)
(0.000789752 3.74676e-05 1.75139e-15 -0.000327286 -3.50197e-16 0)
(0.000726495 4.82228e-05 -5.20095e-15 -0.000311134 5.52943e-16 0)
(0.000634325 5.42003e-05 2.46849e-15 -0.0002713 -1.98951e-16 0)
(0.000536004 5.29799e-05 -5.54281e-16 -0.000235007 -1.32761e-15 0)
(0.000444523 6.72556e-05 8.47321e-16 -0.000204934 -2.77556e-16 0)
(0.000355163 6.04134e-05 7.35267e-16 -0.000173887 -3.70255e-16 0)
(0.00023603 4.87331e-05 1.34289e-16 -0.000122014 2.33103e-16 0)
(0.000155716 6.51492e-05 1.49315e-16 -0.000100662 -2.93819e-16 0)
(8.40065e-05 4.51747e-05 -3.58752e-16 -7.71356e-05 -1.07878e-16 0)
(-2.34616e-05 2.93335e-05 -4.24364e-16 -2.39069e-05 4.44523e-17 0)
(-6.62783e-05 4.81851e-05 -4.29945e-16 -1.96447e-05 -2.25514e-16 0)
(-0.000127558 3.89542e-07 -1.20558e-16 1.56048e-05 -4.20128e-16 0)
(-0.00016445 2.28569e-05 -8.96457e-17 3.31374e-05 -3.07913e-16 0)
(3.47962e-05 3.38285e-05 0 -1.73574e-05 -2.93277e-16 0)
(0.000176956 2.28318e-05 0 -3.87356e-05 -5.91974e-16 0)
(0.000311417 4.87118e-05 0 -6.53195e-05 -5.52943e-17 0)
(0.000438663 4.58615e-05 0 -8.42086e-05 1.19262e-17 0)
(0.000561091 6.48996e-05 0 -9.54343e-05 7.32921e-16 0)
(0.000665579 5.5449e-05 0 -9.14324e-05 5.35596e-16 0)
(0.00076609 5.2105e-05 0 -7.7051e-05 2.72026e-15 0)
(0.000864242 6.14244e-05 0 -4.79013e-05 2.88506e-15 0)
(0.00102026 8.35518e-05 0 -6.67585e-05 -4.11997e-16 0)
(0.00121707 4.60366e-05 0 -0.000136468 -5.66279e-15 0)
(0.00151094 4.78646e-05 0 -0.000300271 -1.99493e-16 0)
(0.0019964 8.43936e-05 0 -0.000753789 1.23057e-15 0)
(0.00264246 6.26434e-05 0 -0.00158003 -3.20707e-15 0)
(0.00365269 2.81042e-06 0 -0.00258003 -1.40984e-14 0)
(0.00458705 -1.44241e-05 0 -0.00387959 -2.70888e-15 0)
(0.00553948 -0.000163265 0 -0.00527372 -2.59791e-14 0)
(0.00639762 -0.00029643 0 -0.006315 -3.32606e-15 0)
(0.00673401 -0.000320547 0 -0.00711514 1.45879e-15 0)
(0.00601453 -0.000449894 0 -0.00704458 -8.21171e-15 0)
(0.00683775 -0.00101211 -2.86832e-14 -0.00871833 -3.15725e-14 0)
(0.00619277 -0.00182846 -5.32538e-14 -0.00792282 -9.42009e-15 0)
(0.00513132 -0.00222602 -3.42619e-14 -0.00627685 2.28543e-15 0)
(0.00416543 -0.00210802 -1.38783e-14 -0.00518515 1.82173e-14 0)
(0.003858 -0.00218254 -1.80634e-14 -0.00468373 1.54613e-14 0)
(0.00265955 -0.00243723 -1.04246e-14 -0.003095 1.1827e-14 0)
(0.00109213 -0.00156619 1.11835e-14 -0.00127644 5.24645e-15 0)
(0.000276644 -0.000537369 5.26272e-15 -0.000458479 1.60814e-15 0)
(-0.000406044 9.49629e-05 2.96367e-15 0.000254969 1.13651e-15 0)
(-0.000510077 0.000335695 -1.68268e-15 0.000105393 1.36582e-15 0)
(-0.000405562 0.000322065 -1.3623e-15 6.18974e-05 -2.6563e-16 0)
(-0.000308381 0.00030284 6.83047e-17 7.71239e-07 1.66425e-16 0)
(-0.000254446 0.000309449 -3.05745e-16 -2.4134e-05 4.79759e-16 0)
(-0.000206523 0.000314609 -2.60209e-17 -6.45991e-05 1.26553e-15 0)
(-0.000170836 0.000301416 2.35272e-16 -9.97161e-05 2.95987e-16 0)
(-0.000137733 0.000312544 -5.20417e-17 -0.000130426 5.25025e-16 0)
(-0.000102572 0.000305841 4.06576e-17 -0.000169243 5.3153e-16 0)
(-7.21478e-05 0.000310331 -2.04914e-16 -0.000199474 2.29038e-16 0)
(-4.46205e-05 0.00031334 -7.80626e-17 -0.00023262 2.59124e-16 0)
(-9.80792e-06 0.000298478 -3.95734e-17 -0.000275918 4.49131e-16 0)
(2.29157e-05 0.000290439 -2.65087e-16 -0.00030799 1.54499e-16 0)
(4.58312e-05 0.000281322 -1.07336e-16 -0.00033677 4.90466e-16 0)
(6.64008e-05 0.000254845 -5.88722e-16 -0.000366311 6.08644e-16 0)
(9.9224e-05 0.000243656 -2.34188e-16 -0.000397694 2.40083e-16 0)
(0.000121457 0.000220793 6.55942e-17 -0.000423789 8.1654e-16 0)
(0.000147395 0.000200696 3.04661e-16 -0.000453851 2.23183e-15 0)
(0.000169771 0.000159946 -7.16658e-16 -0.000478906 1.45927e-15 0)
(0.00017382 0.000138162 -6.01732e-17 -0.000487596 -2.79545e-15 0)
(0.000191465 0.000101524 1.77267e-16 -0.000505868 1.37812e-15 0)
(0.000200002 7.79053e-05 9.11272e-16 -0.000512988 -2.71261e-15 0)
(0.000200166 4.04616e-05 -1.41922e-15 -0.00052073 -2.90597e-15 0)
(0.000111806 -0.000166854 6.17995e-17 -4.0139e-05 -3.33583e-16 0)
(0.000145883 -0.000120853 5.59448e-16 -2.58447e-05 -1.83129e-17 0)
(0.000246484 -0.000151145 -1.38236e-16 -0.0001546 -7.15844e-16 0)
(0.000178541 -6.79345e-05 2.47198e-16 -5.44765e-05 8.0159e-17 0)