/*--------------------------------*- C++ -*----------------------------------*\
| =========                 |                                                 |
| \\      /  F ield         | OpenFOAM: The Open Source CFD Toolbox           |
|  \\    /   O peration     | Version:  v2012                                 |
|   \\  /    A nd           | Website:  www.openfoam.com                      |
|    \\/     M anipulation  |                                                 |
\*---------------------------------------------------------------------------*/
FoamFile
{
    version     2.0;
    format      ascii;
    class       volScalarField;
    location    "19";
    object      sigmaHyd;
}
// * * * * * * * * * * * * * * * * * * * * * * * * * * * * * * * * * * * * * //

dimensions      [1 -1 -2 0 0 0 0];


internalField   nonuniform List<scalar> 
7666
(
-2.32674e+06
5.5915e+06
-1.80178e+07
6.23197e+06
6.72535e+06
1.53626e+07
7.52274e+06
6.98287e+06
2.69655e+07
7.88833e+06
2.97523e+06
6.98373e+06
6.70947e+06
6.7408e+06
8.01057e+06
-7.86424e+06
7.09553e+06
1.82233e+07
7.68618e+06
6.82538e+06
4.92095e+06
1.06645e+07
6.95123e+06
4.99864e+06
1.04966e+07
8.17723e+06
1.07101e+07
-204301
7.07258e+06
6.10091e+06
6.15828e+06
1.83581e+07
-4.6035e+06
6.44906e+06
-8.92849e+06
5.72887e+06
5.79949e+06
6.33694e+06
1.52423e+07
7.72264e+06
-5.88688e+06
2.84526e+07
7.59777e+07
953124
4.57787e+07
7.49346e+06
1.99578e+07
-5.85981e+06
-1.19517e+06
2.43335e+06
-622854
1.02197e+07
7.26739e+06
2.49675e+07
4.31788e+06
-8.13622e+06
2.53564e+06
2.17257e+06
2.46325e+06
1.60721e+07
3.66389e+06
6.4252e+06
6.5697e+06
6.48603e+06
1.81292e+06
377744
7.92552e+06
2.37714e+06
-6.02227e+06
3.90095e+06
-3.18729e+06
9.65042e+06
9.51064e+06
5.95175e+06
5.94875e+06
7.30287e+06
2.99874e+07
6.47842e+06
6.2471e+06
3.55883e+06
7.32615e+06
8.95629e+06
1.43873e+06
5.91486e+07
7.04561e+06
9.5953e+06
9.24576e+06
1.13487e+07
-2.15253e+06
6.17503e+06
7.20829e+06
7.43763e+06
1.09795e+07
-1.36399e+06
3.08126e+07
-4.30114e+06
-1.15106e+07
-1.68873e+07
7.80601e+06
6.58691e+06
1.08858e+07
5.99693e+06
-3.03146e+06
9.29289e+06
-4.64082e+06
1.43999e+07
4.55867e+07
9.41646e+06
7.42575e+06
1.01696e+07
5.8532e+06
8.68645e+06
4.54917e+06
3.46108e+06
2.4041e+06
8.09815e+06
753773
-1.04406e+07
6.65088e+06
6.73987e+06
2.21681e+07
5.96933e+06
7.29486e+06
8.21226e+06
4.84568e+06
2.28244e+06
9.54511e+06
8.87675e+06
4.97027e+06
7.26527e+06
-1.05157e+07
8.37664e+06
6.12465e+06
2.89227e+07
7.12587e+06
1.47568e+07
7.26592e+06
7.67226e+06
6.83684e+06
4.89784e+06
5.50875e+06
9.09856e+06
8.14253e+06
8.25715e+06
7.99865e+06
7.30736e+06
7.41692e+06
9.12976e+06
-2.18648e+06
7.44117e+06
8.10655e+06
-3.87171e+06
3.84055e+06
-6.18995e+06
7.43509e+06
7.3364e+06
-4.9743e+06
5.78093e+06
5.52768e+06
6.83882e+06
9.91195e+06
2.25378e+07
1.04776e+07
3.89823e+07
-1.32929e+07
1.1265e+07
5.85437e+06
1.94137e+06
1.87703e+06
5.2834e+06
5.02554e+06
2.43511e+06
9.62077e+06
8.30673e+06
-4.28792e+06
3.8222e+06
9.57078e+06
3.06843e+07
6.66774e+06
6.5053e+06
9.96634e+06
-1.3213e+07
9.29233e+06
-1.0601e+07
209349
-3.18883e+06
9.47823e+06
5.79734e+06
3.05607e+06
6.75507e+06
5.11889e+06
7.36995e+06
7.59277e+06
6.87435e+06
7.73838e+06
2.02018e+07
5.9026e+06
7.1697e+06
7.77643e+06
-1.48194e+07
9.64965e+06
340600
6.74521e+06
1.56233e+07
6.13157e+06
1.86021e+07
7.60429e+06
-7.40647e+06
1.07029e+06
-7.94184e+06
1.314e+07
1.36391e+06
8.00062e+06
8.82453e+06
9.16797e+06
3.05886e+06
5.69092e+06
1.98546e+07
2.7143e+06
1.15703e+07
3.19032e+07
2.33893e+07
6.23251e+06
8.20916e+06
8.99343e+06
6.63635e+06
3.46276e+07
3.1443e+07
5.02716e+06
6.06481e+06
5.8695e+06
6.8705e+06
-2.88098e+06
-5.63929e+06
9.7012e+06
5.77676e+06
4.30453e+07
1.0513e+07
-1.16931e+07
6.69394e+06
7.81234e+06
8.33021e+06
6.26082e+06
1.64924e+06
4.38393e+06
4.36928e+06
-1.52391e+07
4.21339e+06
-4.15453e+06
9.16886e+06
8.81314e+06
3.94914e+06
8.81803e+06
8.55441e+06
9.23269e+06
5.86148e+06
3.19012e+07
1.08763e+07
8.6982e+06
-1.16984e+07
2.08427e+06
9.23483e+06
1.52461e+07
1.06664e+07
8.09362e+06
-1.49424e+07
5.74642e+06
1.31058e+07
6.80139e+07
-5.04117e+06
7.50012e+06
7.96751e+06
6.84949e+06
1.06022e+07
-5.6884e+06
4.64922e+06
2.81179e+07
2.29517e+07
5.60454e+06
6.26144e+06
7.08267e+06
1.48984e+07
4.5534e+06
6.35575e+06
-1.20244e+06
-3.84313e+06
1.03821e+07
-954780
-4.30551e+06
8.6573e+06
8.45528e+06
2.02879e+06
1.827e+07
622039
5.69761e+06
-529199
8.71093e+06
-510510
63639
7.628e+06
6.87609e+06
4.78834e+06
7.36784e+06
9.91374e+06
5.81573e+06
2.27458e+06
5.21491e+06
-4.99847e+06
4.32119e+06
4.13764e+06
-3.47e+06
1.8391e+06
725857
833234
4.64367e+06
7.53679e+06
6.92826e+06
1.33761e+06
7.73013e+06
6.717e+06
7.25841e+06
7.13626e+06
2.85608e+07
8.34036e+06
6.54587e+06
4.39022e+06
617436
7.24576e+06
2.22413e+06
-708166
-836868
1.00381e+07
-7.27214e+06
6.83265e+06
2.45791e+07
2.61405e+07
3.34447e+06
-2.22963e+06
9.49007e+06
5.88131e+06
2.21874e+06
-958208
-1.86999e+06
-1.18445e+07
9.82185e+06
8.08168e+06
6.42711e+06
4.22933e+06
-7.83174e+06
9.86176e+06
5.83773e+06
2.29248e+07
319754
5.20485e+06
2.92329e+06
3.21674e+07
4.98446e+06
7.80777e+06
1.38651e+07
-1.22885e+07
7.98299e+06
3.09559e+07
9.95205e+06
2.50856e+07
8.5993e+06
2.32677e+07
1.17572e+07
1.2726e+07
7.52079e+06
1.99853e+07
7.33474e+06
8.10867e+06
-1.4457e+07
7.73387e+06
8.30734e+06
-1.44931e+07
8.61292e+06
903422
-4.02343e+06
1.90989e+07
1.29118e+07
-9.4471e+06
-2.21602e+06
-5.79523e+06
1.38409e+07
8.01684e+06
-5.93586e+06
1.75762e+07
-1.51061e+07
6.24948e+06
6.09259e+06
-450631
-526053
3.58448e+07
2.13897e+07
2.64836e+07
5.85517e+06
5.96668e+06
3.44184e+06
-1.06915e+07
1.59897e+07
4.99411e+06
3.23878e+06
-4.56086e+06
4.88051e+06
8.10257e+06
8.09069e+06
1.13012e+07
1.15278e+07
1.89061e+07
8.52418e+06
6.17984e+06
-7.16012e+06
1.26078e+07
8.18304e+06
1.12452e+07
1.03906e+07
7.23842e+06
8.28076e+06
3.13524e+07
-7.08824e+06
7.14752e+06
6.49478e+06
7.25379e+06
3.78353e+06
7.16886e+06
-1.87002e+06
1.39133e+07
7.49816e+06
-4.65474e+06
-1.20547e+07
-3.0778e+07
5.50708e+06
5.78118e+06
1.0153e+07
8.59711e+06
-587795
6.26879e+06
7.23457e+06
7.54579e+06
-6.1098e+06
-2.33455e+06
6.3462e+06
6.78344e+06
8.46869e+06
6.48947e+06
-1.46096e+07
7.19378e+06
7.12907e+06
7.94544e+06
-2.39841e+06
-9.15357e+06
4.54899e+06
2.80577e+07
3.34446e+06
9.4515e+06
7.77463e+06
3.17434e+06
6.75704e+06
8.10615e+06
3.58362e+07
3.23574e+06
2.12584e+07
2.02131e+07
-6.45856e+06
7.77055e+06
7.73136e+06
9.17763e+06
9.69364e+06
-3.62008e+06
9.02806e+06
7.28702e+06
7.5214e+06
7.52551e+06
1.79756e+07
9.78611e+06
8.89002e+06
9.05014e+06
7.36504e+06
-1.20353e+07
-7.05076e+06
-1.86902e+06
7.00198e+06
7.31379e+06
6.76616e+06
7.53904e+06
-1.06073e+07
5.61785e+06
1.75439e+06
7.24772e+06
7.1776e+06
5.29061e+06
5.73477e+06
1.03277e+07
6.44417e+06
-48119.3
9.98826e+06
9.9895e+06
7.33566e+06
-1.42463e+07
4.82502e+06
3.79408e+06
2.95694e+07
-1.18222e+07
3.63538e+06
3.65944e+06
9.11937e+06
3.16533e+07
-6.577e+06
6.99365e+06
4.84379e+06
1.47629e+07
1.5535e+07
9.13926e+06
9.09052e+06
5.94623e+06
5.89183e+06
7.23379e+06
1.93057e+06
2.72367e+06
3.11196e+06
6.24167e+07
6.36614e+06
-7.57981e+06
7.50695e+06
-1.48271e+07
8.83053e+06
4.77092e+06
5.11915e+06
9.54823e+06
5.77355e+06
-4.28086e+06
1.392e+07
3.32449e+06
2.0072e+07
-8.65263e+06
2.31357e+07
1.15081e+07
7.18909e+06
7.45516e+06
2.1578e+07
-2.06522e+06
3.85577e+07
8.00559e+06
1.13215e+07
1.85551e+07
2.19609e+07
2.56403e+07
8.9067e+06
8.38238e+06
1.2719e+07
-1.08855e+07
5.30381e+06
3.22774e+07
7.32313e+06
-1.16226e+07
6.48448e+06
-2.26306e+06
2.24935e+07
7.51949e+06
6.7912e+06
2.97896e+07
6.73342e+06
2.05517e+06
-8.86364e+06
-1.87391e+06
5.16967e+06
9.42191e+06
-5.75898e+06
6.45852e+06
7.67999e+06
6.82495e+06
9.89642e+06
8.94584e+06
-479833
-2.88426e+06
1.92844e+07
147380
1.8066e+07
7.9113e+06
2.82884e+07
2.21796e+06
7.00928e+06
-9.50159e+06
9.62377e+06
1.8772e+07
6.01129e+06
8.64641e+06
6.74399e+06
4.12783e+06
6.18005e+06
1.36444e+07
8.70144e+06
436223
6.09982e+06
-8.03169e+06
7.3896e+06
8.89417e+06
5.98339e+06
7.41632e+06
-1.11839e+07
2.46453e+07
1.31349e+07
1.28368e+07
3.58449e+06
5.30004e+06
8.71175e+06
4.97444e+06
-5.10695e+06
3.97155e+07
6.16765e+06
2.43439e+07
-1.03335e+06
-9.3173e+06
5.85926e+06
7.0368e+06
9.4207e+06
9.444e+06
6.03535e+06
6.05188e+06
7.81822e+06
-977679
1.88911e+07
-1.0316e+07
8.03228e+06
-4.17637e+06
2.72246e+06
-7.84123e+06
7.71576e+06
1.98229e+07
6.93609e+06
6.1659e+07
-3.85138e+06
2.08253e+07
-1.40887e+07
2.62489e+06
7.15739e+06
-1.1137e+07
7.72629e+06
6.71179e+06
9.57232e+06
6.49611e+06
-3.58669e+06
-9.37425e+06
-1.96942e+06
6.1523e+06
-1.29977e+06
-3.89651e+06
3.18684e+07
-1.4184e+06
1.36492e+07
2.58355e+07
7.87677e+06
7.51803e+06
7.48031e+06
4.55855e+06
1.11589e+07
1.21969e+07
9.20094e+06
9.31462e+06
-7.98186e+06
7.83604e+06
-3.29081e+06
2.27561e+07
6.10325e+06
-3.10445e+06
-2.74785e+06
5.43933e+07
1.07362e+07
7.49954e+06
5.9057e+06
-3.42268e+06
3.95753e+06
2.49931e+06
9.98659e+06
-7.11675e+06
6.90904e+06
8.41921e+06
1.75505e+06
3.72312e+06
1.16252e+06
1.27004e+07
2.16418e+07
6.67538e+06
8.28327e+06
1.50762e+06
5.72004e+06
5.99632e+06
1.85449e+07
1.8481e+07
2.22796e+07
6.68209e+06
3.56152e+06
8.04279e+06
7.86221e+06
9.45743e+06
1.3642e+07
-1.68119e+06
1.43541e+07
2.00371e+07
7.80401e+06
2.25251e+07
-1.29161e+06
1.12343e+07
5.91058e+06
1.22355e+07
4.54789e+07
-6.54424e+06
7.42839e+06
1.63042e+07
-1.1641e+06
7.32892e+06
4.28261e+07
1.13963e+07
8.49724e+06
6.03764e+06
6.77406e+06
7.4782e+06
2.68957e+06
1.17726e+07
3.64117e+07
2.06163e+06
1.0145e+07
5.74595e+06
3.06157e+06
1.16243e+07
8.88243e+06
2.52929e+07
-1.36674e+06
7.87065e+06
-7.52664e+06
7.20944e+06
7.12904e+06
9.11561e+06
9.02073e+06
1.14474e+07
1.02603e+07
7.13108e+06
4.42668e+06
1.74607e+06
8.22212e+06
-7.17229e+07
2.6712e+07
1.3674e+07
7.01219e+06
-7.44942e+06
8.90823e+06
1.08562e+07
4.04435e+07
7.0919e+06
1.2087e+06
7.24899e+06
7.37503e+06
1.892e+06
3.16684e+06
6.68779e+06
1.33502e+07
1.46892e+07
1.36286e+07
2.91336e+06
1.51571e+07
7.39378e+06
1.28916e+07
8.56376e+06
7.61984e+06
6.24335e+06
5.06018e+06
1.80375e+07
8.17959e+06
-2.41153e+06
1.00322e+07
7.92599e+06
6.34847e+06
8.70386e+06
7.92183e+06
4.90606e+06
-8.04952e+06
2.53443e+06
8.16698e+06
8.21107e+06
8.18431e+06
2.46778e+07
5.841e+06
6.72545e+06
7.19894e+06
7.10062e+06
-9.43292e+06
1.54278e+07
-9.88685e+06
5.1949e+07
2.33373e+07
6.15749e+06
6.2736e+06
6.26738e+06
-1.08928e+06
7.52929e+06
2.28744e+07
5.28942e+06
5.33201e+06
5.35237e+06
4.83561e+06
1.24849e+07
7.95718e+06
3.10844e+07
-44230.2
1.35417e+07
7.0137e+06
1.01905e+07
4.41524e+06
7.9228e+06
4.04734e+06
4.80092e+06
5.4693e+06
6.79033e+06
7.8339e+06
8.19873e+06
9.01696e+06
7.27433e+06
4.17592e+06
4.64195e+06
4.15061e+07
9.2277e+06
3.20018e+06
1.71557e+06
6.40495e+06
7.69066e+06
6.51732e+06
-8.28704e+06
4.5456e+06
1.09242e+07
-1.73999e+07
6.23161e+06
9.17523e+06
-3.76718e+06
-2.69909e+06
9.92573e+06
9.26483e+06
7.09454e+06
7.17646e+06
9.82892e+06
6.33634e+06
8.55764e+06
3.27079e+07
7.21996e+06
1.24612e+07
-5.79295e+06
8.09049e+06
5.80759e+06
7.29759e+06
-9.82044e+06
-1.04803e+07
5.19742e+06
-6.7523e+06
5.44756e+06
-1.03879e+07
-1.83708e+07
8.7211e+06
-8.06893e+06
6.51219e+06
7.08956e+06
7.44876e+06
7.26229e+06
1.01776e+07
4.63699e+06
4.9298e+06
-3.56883e+06
2.47615e+07
6.32155e+06
1.4427e+07
1.64438e+07
1.3858e+07
-1.02192e+07
5.81906e+06
6.26529e+06
-9.26349e+06
4.47176e+06
4.2904e+06
7.19867e+06
7.02852e+06
1.2751e+06
1.7847e+06
-1.41626e+07
2.32658e+06
7.46257e+06
-2.78732e+06
-7.14671e+06
-2.14235e+06
440689
7.38282e+06
8.16329e+06
7.79366e+06
5.30559e+06
8.4012e+06
5.98693e+06
4.7061e+06
725646
5.2141e+06
7.44432e+06
4.93001e+06
7.88222e+06
2.716e+07
8.35496e+06
6.19324e+06
2.27365e+07
9.05514e+06
7.36503e+06
7.41205e+06
3.33536e+06
7.78859e+06
1.15826e+07
1.24402e+07
9.14485e+06
1.24247e+07
-4.49927e+06
5.575e+06
-3.51813e+06
6.97103e+06
-5.3682e+06
-4.38131e+07
-8.39411e+06
8.75089e+06
8.31478e+06
-4.79912e+06
7.6747e+06
6.39723e+06
-7.05617e+06
7.65066e+06
2.57419e+07
-2.78374e+06
-9.58494e+06
7.2123e+06
1.31293e+07
2.28106e+07
-1.33776e+07
5.26508e+06
1.08256e+07
-1.49595e+07
8.89792e+06
5.22487e+07
5.00853e+06
8.12594e+06
1.99631e+07
2.08428e+07
1.89571e+07
7.90837e+06
6.21771e+06
-7.78203e+06
-1.15877e+07
-1.52374e+06
6.22468e+06
6.06024e+06
6.34438e+06
8.16081e+06
-1.82233e+07
6.78866e+06
-4.23779e+07
1.22689e+07
1.1789e+07
1.37695e+07
1.48266e+07
2.36407e+07
6.56789e+06
3.75529e+07
-668723
7.25629e+06
-1.3781e+07
9.14865e+06
-908162
5.84861e+06
3.9906e+06
6.02231e+06
5.643e+06
6.18607e+06
7.40727e+06
7.05064e+06
342252
-3.8684e+06
1.24594e+07
3.8782e+06
3.15761e+06
2.05959e+07
4.0371e+06
-8.76871e+06
3.41518e+06
-1.09972e+07
1.09246e+07
-217972
3.03427e+07
-5.38378e+06
-8.13073e+06
9.78638e+06
-1.98926e+06
2.96852e+07
1.10287e+07
-2.02391e+06
1.34851e+07
-2.93886e+06
7.14978e+06
-1.33345e+06
-2.50577e+06
-8.97291e+06
4.98124e+06
6.70503e+06
7.48896e+06
-1.15533e+07
-8.36546e+06
9.05396e+06
7.09686e+06
7.53854e+06
5.04525e+07
8.72956e+06
9.62338e+06
7.39652e+06
8.87329e+06
2.97768e+07
8.75636e+06
5.7926e+06
1.87745e+07
5.30527e+07
7.50629e+06
6.90379e+06
7.44763e+06
6.56287e+06
3.816e+06
-1.55444e+06
1.38711e+07
3.93707e+06
6.39744e+06
2.46611e+06
2.23438e+07
9.13772e+06
1.2145e+07
-5.1214e+06
1.221e+07
8.35645e+06
7.27001e+06
4.15006e+07
9.10998e+06
6.36091e+06
6.58793e+06
1.80809e+07
7.38386e+06
-1.01113e+07
7.48719e+06
7.0099e+06
3.77455e+06
7.12929e+06
7.89336e+06
6.57925e+06
3.71463e+06
7.0628e+06
3.59577e+06
3.93453e+06
7.25416e+06
2.81126e+07
7.24284e+06
7.51192e+06
8.95866e+06
-1.36058e+07
-1.27326e+07
6.79582e+06
2.86525e+07
5.94361e+06
-1.57749e+07
5.6953e+07
9.43269e+06
-8.32446e+06
-3.30036e+06
7.72442e+06
-1.01442e+07
4.80503e+06
9.02513e+06
4.73941e+06
1.23724e+07
791658
1.80154e+07
1.53199e+07
1.60254e+07
3.20867e+06
8.32091e+06
8.08161e+06
1.24332e+07
9.90581e+06
-8.36914e+06
1.59284e+07
5.31754e+07
7.05319e+06
6.65191e+06
5.92487e+06
3.01152e+06
6.75265e+06
4.25507e+06
9.79487e+06
8.06331e+06
2.86252e+06
1.07431e+07
9.39854e+06
7.20014e+06
8.55412e+06
1.04418e+07
6.99975e+06
6.81659e+06
5.57042e+06
-9.38718e+06
5.9215e+06
8.45757e+06
6.20712e+06
6.88234e+06
975058
-3.10459e+07
4.46262e+06
1.38301e+07
8.43506e+06
4.38899e+06
7.25162e+06
-588650
2.62678e+06
-1.01887e+07
79290.2
-2.70983e+06
-6.45382e+06
3.32599e+06
7.33675e+06
6.86723e+06
9.28631e+06
5.09392e+06
-1.46512e+07
-5.15955e+06
-525317
4.52416e+07
7.14083e+06
-457904
1.90133e+07
7.5086e+06
1.15442e+07
-2.34557e+06
28557.6
-3.75465e+06
9.94067e+06
7.66173e+06
2.43526e+06
7.17383e+06
7.1004e+06
7.28288e+06
7.46123e+06
7.61456e+06
7.71063e+06
6.59861e+06
1.43689e+07
1.38904e+06
1.47836e+07
2.48859e+07
7.45051e+06
7.27716e+06
1.16089e+06
7.1358e+06
6.4277e+06
9.79221e+06
7.11105e+06
-1.70924e+07
1.18845e+07
1.5712e+07
4.23494e+06
-7.39426e+06
7.74428e+06
1.05016e+07
2.86714e+07
6.22875e+06
6.51307e+06
3.79517e+06
-1.29115e+07
6.22264e+06
1.08063e+07
1.27007e+07
-6.61868e+06
-1.33926e+07
-1.43935e+07
4.48648e+06
6.86617e+06
1.16941e+07
2.54178e+06
7.87418e+06
7.58015e+06
6.84041e+06
8.15779e+06
6.30642e+07
7.52614e+06
7.25477e+06
-1.83582e+06
1.36192e+07
3.32011e+06
-1.21086e+06
2.84969e+07
-6.42377e+07
1.11474e+07
1.76396e+07
7.12178e+06
8.19826e+06
6.2556e+06
7.56204e+06
2.8501e+06
-6.96331e+06
-5.60139e+06
6.71366e+06
-9.84199e+06
1.96907e+06
-9615.91
7.7386e+06
8.89006e+06
5.64503e+06
9.63911e+06
-1.20349e+07
6.22461e+06
2.80366e+07
9.86434e+06
5.82638e+06
5.87035e+06
1.34042e+07
8.46221e+06
8.85369e+06
4.26511e+06
7.85807e+06
7.06761e+06
7.13372e+06
-2.56471e+07
-3.45492e+06
-2.94219e+06
7.95423e+06
1.75314e+07
6.87149e+06
490522
2.62149e+06
1.25048e+07
7.36676e+06
7.81912e+06
3.59279e+06
-1.35196e+07
-1.50768e+07
6.81492e+06
-5.59626e+06
1.05115e+07
-8.49019e+06
2.85135e+06
2.07307e+07
2.26014e+06
3.45831e+06
5.05252e+07
1.26101e+07
-5.47647e+06
1.91908e+07
2.38286e+07
-2.03835e+06
-2.07211e+06
4.2984e+06
1.20588e+07
1.1966e+07
8.06351e+07
8.05144e+06
1.25005e+07
6.57744e+06
4.4763e+06
5.25536e+06
6.50735e+06
7.21045e+06
-3.19386e+06
6.04457e+06
6.00398e+06
2.73395e+06
7.16346e+06
6.11177e+06
7.99954e+06
8.70804e+06
-7.20201e+06
1.52565e+07
-2.38882e+06
6.95604e+06
7.17691e+06
9.54124e+06
2.08534e+07
1.5872e+07
6.4743e+06
-1.82355e+06
-1.06318e+06
1.55925e+07
2.41595e+07
8.37425e+06
-7.43112e+06
-1.51882e+06
7.46375e+06
2.20461e+06
-7.83532e+06
7.35053e+06
1.26012e+07
7.42836e+06
2.96946e+06
2.55769e+06
2.16648e+06
1.6603e+06
7.75769e+06
2.18923e+07
2.32586e+07
4.69383e+06
-1.41959e+07
-5.12873e+06
7.73691e+07
1.89104e+07
6.72816e+06
-705508
7.70959e+06
915024
1.00386e+07
1.12591e+06
7.20395e+06
8.29533e+06
1.32573e+07
6.20901e+06
-1.39584e+07
2.82161e+06
-342726
-213711
1.85294e+07
997055
1.08416e+07
8.3637e+06
7.83174e+06
1.21096e+07
1.12786e+07
1.12873e+07
1.15458e+07
5.8034e+06
1.89711e+07
-2.06146e+06
1.0796e+06
4.01276e+06
1.42482e+07
-720688
1.37691e+07
6.13692e+06
8.09853e+06
1.7926e+07
7.19977e+06
6.48961e+06
-3.61483e+06
6.69862e+06
1.21692e+07
2.16697e+07
3.33357e+06
-5.19926e+06
-1.17957e+07
1.25128e+06
1.30695e+06
-1.39434e+07
8.04464e+06
2.27809e+06
532678
3.47915e+07
5.89565e+06
7.39136e+06
8.71842e+06
-1.93841e+06
2.48468e+06
1.97441e+07
-1.61765e+06
2.87588e+06
5.94957e+06
-1.16879e+07
-5.64636e+06
1.5572e+07
2.91371e+06
-1.68558e+07
6.79427e+06
7.65005e+06
6.57688e+06
7.94053e+06
8.07722e+06
6.38106e+06
3.48948e+06
1.84581e+06
6.79556e+06
7.41404e+06
7.55232e+06
7.6226e+06
-5.56873e+06
-5.44809e+06
8.49437e+06
7.98006e+06
-5.00384e+06
-7.64871e+06
2.11308e+07
-3.38032e+06
-7.24298e+06
6.22607e+06
1.51087e+07
487206
-7.6701e+06
1.95979e+07
2.82383e+07
7.27215e+06
1.61134e+07
7.87611e+06
2.26416e+07
1.96504e+07
7.15788e+06
7.20766e+06
7.18148e+06
-5.79203e+06
-9.93782e+06
4.57591e+07
2.66467e+07
5.18083e+06
-2.87413e+06
9.43702e+06
4.03622e+06
-8.65233e+06
7.83585e+06
7.38401e+06
8.1047e+06
9.09914e+06
3.51849e+06
1.42617e+07
1.31703e+07
3.4947e+06
7.27587e+06
-1.13562e+06
1.35506e+07
2.16184e+07
7.77272e+06
953991
1.47011e+06
5.99041e+06
4.92799e+06
9.27665e+06
3.9831e+06
7.89466e+06
8.01419e+06
-2.95278e+06
8.20835e+06
5.89099e+06
7.5231e+06
6.97886e+06
7.73395e+06
2.26316e+06
7.15033e+06
1.02966e+07
7.22135e+06
7.44312e+06
8.40783e+06
6.12172e+06
6.00176e+06
7.34508e+06
3.15653e+07
6.05482e+06
8.35516e+06
6.58749e+06
4.47706e+06
4.39918e+06
7.21108e+06
-8.41063e+06
5.23365e+06
1.07718e+07
5.45599e+06
4.56826e+07
1.11927e+07
7.83778e+06
6.71436e+06
7.52687e+06
6.98513e+06
6.3651e+06
7.51165e+06
7.04691e+06
8.571e+06
6.01875e+06
-9.16238e+06
3.80845e+06
2.73191e+07
4.50436e+06
6.74052e+06
1.26561e+07
1.36165e+07
-1.5664e+06
-174331
-3.90857e+07
8.06408e+06
9.40838e+06
-1.5868e+07
3.89736e+06
3.57909e+06
6.5931e+06
7.81341e+06
7.57266e+06
-1.0606e+07
4.15742e+06
7.14592e+06
7.53141e+07
-8.1566e+06
1.85454e+06
7.52244e+06
-304916
8.89623e+06
7.14163e+06
7.5499e+06
6.98515e+06
3.50605e+07
2.02868e+07
6.15741e+06
1.99818e+06
1.10658e+07
1.47401e+07
-6.71126e+06
2.69423e+07
3.31325e+06
2.46678e+07
1.31562e+07
8.39191e+06
8.03192e+06
7.2236e+06
1.46765e+07
3.99728e+06
3.6423e+06
2.29325e+07
6.44994e+06
6.2868e+06
2.80235e+07
-6.20225e+06
6.33473e+06
1.9118e+07
4.80245e+06
1.58026e+07
43484.9
7.57106e+06
2.41272e+07
6.80835e+06
308480
-1.31942e+07
-7.26854e+06
7.46659e+06
7.29217e+06
7.79773e+06
3.4892e+06
9.83748e+06
1.13278e+06
5.21179e+06
1.43272e+07
1.38004e+07
1.11128e+07
1.14942e+07
4.66057e+06
2.52766e+06
5.96726e+07
1.70211e+07
2.47283e+07
6.03226e+06
-6.07534e+06
-4.96298e+06
-2.38023e+06
1.49721e+06
-2.01293e+06
7.30571e+06
7.05504e+06
9.71476e+06
7.28891e+06
-1.03385e+06
-714125
1.04121e+07
2.65563e+07
1.6604e+07
8.37404e+06
1.01289e+07
-6.8282e+06
-1.7272e+06
1.93501e+07
-596764
8.38069e+06
4.60562e+06
7.80857e+06
9.92904e+06
1.05108e+07
7.58437e+07
2.65712e+06
8.29316e+06
8.58929e+06
-5.24325e+07
-1.0143e+07
8.22399e+06
6.10048e+06
7.20367e+06
7.04027e+06
9.11092e+06
2.40471e+06
7.24728e+06
2.51074e+07
6.592e+06
7.69065e+06
8.42613e+06
854493
1.37964e+06
6.94547e+06
-1.77055e+06
7.17875e+06
1.6596e+07
2.8077e+06
4.81442e+06
6.74155e+06
-14195.3
7.10062e+06
1.21778e+07
7.6985e+06
7.79939e+06
2.23955e+07
-3.96927e+06
9.37467e+06
-1.66419e+06
1.40587e+07
8.72603e+06
1.86661e+07
-991828
-5.75225e+06
5.53182e+06
1.73077e+07
2.11731e+06
2.9355e+06
1.6611e+07
-5.55682e+06
2.54595e+06
1.33479e+07
-2.18938e+06
7.06924e+06
6.83865e+06
9.31499e+06
6.7024e+06
1.77126e+07
1.93655e+07
5.3867e+06
-5.59013e+06
1.7736e+06
5.93574e+06
2.43942e+07
9.42412e+06
1.53666e+07
1.2983e+06
9.55672e+06
7.68375e+06
4.74641e+06
-1.18126e+07
7.85557e+06
7.85033e+06
4.39744e+06
-2.48082e+06
7.25977e+06
1.78061e+07
1.73355e+07
1.44821e+07
8.15306e+06
7.92643e+06
1.39998e+07
6.8407e+06
7.34036e+06
-6.94395e+06
7.22081e+06
7.17524e+06
1.4652e+07
7.48036e+06
7.61003e+06
-9.22638e+06
2.22049e+06
1.35272e+07
1.07248e+07
1.01247e+07
1.01562e+07
5.35914e+06
1.41579e+07
9.53555e+06
1.77739e+07
8.9398e+06
8.50959e+06
7.57893e+06
6.87825e+06
1.231e+07
-1.72928e+07
9.55547e+06
9.72653e+06
-277247
-1.43002e+06
5.41025e+06
8.33095e+06
-1.17053e+07
-6.92334e+06
-9.5301e+06
8.70424e+06
9.21877e+06
4.65039e+06
4.89736e+06
6.65867e+06
9.29815e+06
5.79393e+06
629342
6.37006e+06
4.43457e+06
5.25187e+06
1.50121e+06
-1.33691e+07
8.89851e+06
7.64741e+06
6.81843e+06
2.44488e+06
-6.91636e+06
1.91466e+07
1.05724e+07
4.46652e+06
1.00064e+07
5.79633e+06
1.78004e+07
6.78743e+06
1.20335e+07
7.43346e+06
7.48201e+06
-1.83151e+07
4.28888e+06
7.12195e+06
1.19492e+06
-6.97823e+06
-1.46344e+07
9.74963e+06
5.94491e+06
7.67713e+06
7.36055e+06
8.62589e+06
4.54924e+06
-1.17195e+07
-4.88904e+06
5.75576e+06
-7.11425e+06
7.22263e+06
1.64486e+07
-1.36537e+07
2.16879e+07
8.29533e+06
8.64869e+06
1.00515e+07
1.17689e+07
7.41347e+06
-2.21534e+07
2.0531e+07
2.0612e+07
1.58392e+06
-2.20738e+06
-3.4382e+06
-8.78574e+06
7.725e+06
6.89391e+06
-7.84955e+06
7.43528e+06
1.2693e+07
1.12703e+07
7.0339e+06
-8.90932e+06
2.27004e+06
8.12582e+06
1.3936e+07
9.2136e+06
9.3503e+06
6.99734e+06
9.04365e+06
5.32167e+06
5.07641e+06
5.69556e+06
5.94957e+06
-7.69284e+06
-1.14544e+07
4.59803e+06
9.90059e+06
1.9916e+07
-7.15868e+06
-2.11583e+06
-7.53287e+06
479243
6.85703e+06
-1.18914e+07
4.07076e+06
8.76244e+06
9.49394e+06
6.64153e+06
-2.60831e+07
-5.14766e+06
-3.06985e+06
1.58227e+07
-6.86113e+06
-1.07859e+07
7.11522e+06
-1.52583e+06
6.72712e+06
-1.06571e+07
-7.37533e+06
5.76294e+06
5.73391e+06
7.53101e+06
1.63185e+07
7.07305e+06
5.85417e+06
1.71792e+07
3.9596e+07
9.91636e+06
5.83235e+06
1.2728e+07
9.89526e+06
-6.26306e+06
1.89145e+07
8.17298e+06
8.90452e+06
-1.25292e+07
-5.84462e+06
-1.17673e+06
8.03855e+06
2.70173e+07
6.89431e+06
7.11768e+06
-805314
3.74542e+06
6.72707e+06
7.70514e+06
7.58099e+06
3.56886e+06
1.64306e+07
1.56278e+07
1.72812e+07
-1.3404e+07
6.25842e+06
-229098
1.47319e+07
1.49857e+07
1.10777e+07
5.20676e+06
4.71725e+06
9.26504e+06
1.96176e+07
-1.19979e+06
7.3549e+06
7.03936e+06
7.22636e+06
-1.7318e+06
1.81813e+07
5.18373e+07
6.558e+06
1.49537e+07
5.23715e+07
1.17374e+07
5.38751e+06
7.01232e+06
1.09353e+07
261083
7.10453e+06
1.79925e+07
7.49646e+06
4.71082e+06
4.9761e+06
470802
198148
1.38018e+07
1.13742e+07
1.20035e+07
7.89667e+06
-1.80661e+07
9.01964e+06
7.17124e+06
8.82671e+06
2.24403e+07
7.12563e+06
3.48864e+06
7.75965e+06
6.73287e+06
-9.91777e+06
-1.22318e+07
-1.39732e+07
8.90304e+06
536546
1.5673e+07
7.2598e+06
6.93505e+06
5.04435e+06
8.30408e+06
1.54606e+07
1.04618e+07
1.01967e+07
5.78224e+06
5.78213e+06
7.57287e+06
4.81454e+06
2.02444e+07
1.35182e+06
1.96669e+06
7.0218e+06
7.23195e+06
9.77748e+06
1.11118e+07
3.06422e+07
-1.27756e+07
1.57091e+07
6.51651e+06
1.03188e+07
4.26795e+06
-1.44335e+06
7.78486e+06
7.33634e+06
7.35332e+06
-1.96847e+07
8.71378e+06
8.72641e+06
-2.68816e+07
1.27487e+06
2.85775e+07
-2.69043e+06
8.09399e+06
6.17963e+06
-1.96898e+07
7.39695e+06
7.83769e+06
6.4942e+06
-1.94442e+07
2.29472e+06
5.99559e+06
-1.65968e+07
1.28159e+07
1.48384e+06
722912
6.57409e+06
8.80541e+06
2.08823e+06
1.5956e+07
8.10295e+06
9.13491e+06
6.34132e+06
-9.22715e+06
2.36793e+07
5.61013e+06
1.29773e+07
5.97734e+06
8.26892e+06
9.25676e+06
-1.7039e+07
7.40468e+06
8.01008e+06
7.41479e+06
1.22853e+07
7.25297e+06
-3.36524e+06
-8.45862e+06
9.7165e+06
9.89156e+06
1.28707e+07
2.00609e+07
7.56409e+06
7.23133e+06
4.04632e+06
2.03497e+07
7.1192e+06
2.62288e+07
2.91345e+06
7.37152e+06
3.20962e+06
4.42051e+07
6.76047e+06
7.32697e+06
1.28779e+07
8.22156e+06
7.95584e+06
6.46031e+06
1.94357e+07
1.80286e+07
-3.19784e+06
2.8741e+06
7.4706e+06
6.97645e+06
6.40534e+06
4.93617e+07
6.77066e+06
7.62514e+06
5.93369e+07
8.47185e+06
6.05274e+06
7.51141e+06
7.74317e+06
5.01162e+06
8.10736e+06
-7.17102e+06
-1.02966e+06
7.85117e+06
6.5271e+06
9.24297e+06
7.03869e+06
7.17543e+06
4.57142e+06
1.33512e+06
8.08434e+06
-8.22995e+06
1.20677e+07
3.24286e+06
4.35602e+07
5.66243e+06
895020
8.99546e+06
2.62537e+06
1.24402e+06
6.65069e+06
3.32054e+07
-6.9265e+06
2.84358e+06
-105184
531488
9.64871e+06
5.94905e+06
2.09518e+06
-2.51041e+06
4.32292e+06
-1.06301e+07
9.76548e+06
1.45919e+07
1.26443e+07
1.59143e+07
2.48996e+06
6.66882e+06
7.17355e+06
6.96094e+06
7.19208e+06
7.22818e+06
2.70303e+07
6.839e+06
1.6418e+07
7.63267e+06
6.71102e+06
6.44621e+06
7.31341e+06
1.61787e+07
874153
8.18787e+06
7.92283e+06
1.22274e+06
-8.50038e+06
3.18573e+06
2.30176e+07
6.99269e+06
9.37166e+06
1.05506e+07
8.46764e+06
-9.68114e+06
4.89696e+06
2.32178e+07
7.1149e+06
7.79584e+06
5.45447e+06
-1.11582e+07
1.4782e+07
7.86037e+06
7.919e+06
5.39776e+06
-6.64768e+06
6.23957e+06
1.00522e+07
2.5349e+06
6.80466e+06
7.54423e+06
7.2338e+06
5.75364e+06
1.60391e+06
1.58097e+07
2.64664e+06
6.12236e+06
-1.28153e+07
5.08833e+06
6.09958e+06
1.24091e+07
7.72474e+06
1.17643e+07
-1.66845e+07
1.17e+07
7.33247e+06
1.13869e+07
6.88014e+06
7.40081e+06
7.49725e+06
8.07802e+06
2.2575e+07
8.11607e+06
7.89618e+06
6.13455e+06
8.15743e+06
7.44318e+06
2.19233e+07
7.04534e+06
7.55148e+06
6.55783e+06
7.78513e+06
841767
-1.24416e+07
5.86498e+07
7.70884e+06
4.37956e+06
-2.63392e+06
5.91908e+06
8.09139e+06
-1.50275e+07
2.45213e+06
2.55059e+07
1.05845e+07
7.60467e+06
6.08663e+06
3.57721e+06
7.65041e+06
9.86137e+06
5.87069e+06
1.01473e+07
5.77285e+06
6.88068e+06
8.47071e+06
8.70253e+06
-1.4888e+07
5.62033e+06
5.60315e+06
6.06544e+06
-9.72185e+06
1.00245e+07
2.26855e+06
6.56863e+06
-1.06544e+07
8.52853e+06
5.9599e+06
7.59431e+06
8.22563e+06
6.26264e+06
-3.49594e+06
5.73738e+06
8.47303e+06
5.98794e+06
6.62975e+06
-8.45582e+06
1.66066e+07
-537025
1.79384e+07
1.22129e+07
6.67369e+06
-3.36133e+06
1.84564e+07
7.12111e+06
7.36693e+06
7.52176e+06
7.22332e+06
5.19906e+06
6.92084e+06
7.00851e+06
1.68792e+07
7.0213e+06
6.62439e+06
8.55469e+06
8.3062e+06
6.17384e+06
6.36053e+06
7.64797e+06
7.79297e+06
2.62298e+07
9.87986e+06
5.1651e+07
6.60726e+06
3.93477e+06
4.20293e+06
6.69726e+06
1.08486e+06
7.61836e+06
7.6622e+06
2.21553e+07
3.39872e+06
2.69386e+07
7.25886e+06
7.00656e+06
1.07742e+06
2.38034e+07
5.21806e+06
4.24143e+06
8.84127e+06
8.92494e+06
2.43499e+07
5.76238e+07
1.02218e+07
9.84548e+06
-8.62287e+06
-1.36189e+07
9.45908e+06
1.17418e+07
1.57251e+07
7.32833e+06
-6.71706e+06
-6.32434e+06
4.16954e+06
7.49797e+06
4.75319e+06
4.69422e+06
-2.81389e+07
-4.13189e+06
7.48656e+06
742457
1.80048e+07
-1.09305e+06
7.22357e+06
8.13912e+06
8.22179e+06
7.13879e+06
7.08169e+06
-9.36868e+06
8.7533e+06
3.05257e+06
7.31096e+06
601112
7.53662e+06
7.91785e+06
1.26529e+07
7.53924e+06
7.31298e+06
7.47866e+06
1.0856e+07
8.44219e+06
6.26964e+06
1.31513e+07
8.78191e+06
-6.19949e+06
5.07181e+06
-6.8446e+06
1.23414e+07
7.35736e+06
7.14917e+06
8.57989e+06
7.36314e+06
7.50605e+06
7.60427e+06
7.9777e+06
2.77373e+06
8.3494e+06
1.67209e+07
7.88926e+06
7.68474e+06
1.73589e+07
9.2781e+06
5.1485e+07
7.47141e+06
7.01687e+06
4.27742e+07
-1.37427e+07
1.8812e+06
3.68881e+06
9.47804e+06
5.47148e+06
-3.43351e+06
3.94523e+06
7.07049e+06
7.18672e+06
7.08069e+06
1.76605e+07
6.55374e+06
1.61061e+07
7.51556e+06
6.83652e+06
1.03033e+07
8.13812e+06
6.38833e+06
6.93042e+06
8.73176e+06
6.88814e+06
8.32996e+06
1.54751e+07
1.00051e+07
6.05947e+06
960828
5.49917e+06
7.20245e+06
1.41244e+07
-745191
5.49161e+07
7.17243e+06
7.21874e+06
7.50396e+06
3.95714e+06
1.55619e+07
1.51208e+07
-539148
7.38089e+06
7.58185e+06
3.1276e+06
-3.64004e+06
-1.53315e+07
-7.26811e+06
6.98849e+06
7.2184e+06
-9.78237e+06
6.1023e+07
1.42595e+06
6.10485e+06
7.50721e+06
7.38228e+06
-1.35429e+07
1.17552e+07
8.40341e+06
8.61549e+06
7.40827e+06
6.27975e+06
6.53343e+06
7.42392e+06
-1.47789e+07
-8.30093e+06
-2.43344e+06
-1.33391e+07
1.62106e+07
8.00168e+06
6.431e+06
5.68298e+06
6.24236e+06
7.60016e+06
3.97405e+06
8.44761e+06
-1.29406e+07
2.02989e+07
1.68808e+07
323695
6.64498e+06
7.10065e+06
7.34699e+06
6.82054e+06
8.53555e+06
7.09002e+06
-1.6391e+07
2.57435e+06
8.497e+06
8.14421e+06
6.85812e+06
7.35397e+06
7.18497e+06
8.50063e+06
2.82196e+07
4.06214e+06
8.13383e+06
-1.45394e+07
1.06294e+07
5.04991e+06
3.58149e+06
7.43569e+06
6.89645e+06
8.1216e+06
6.36895e+06
4.79498e+06
-1.12599e+07
-2.03498e+07
9.21525e+06
4.06201e+06
7.5454e+06
1.46059e+07
1.34318e+07
7.03927e+06
2.77341e+06
1.34694e+07
-1.09334e+07
3.93996e+07
8.90741e+06
7.33724e+06
1.42488e+06
-5.48366e+06
8.28104e+06
6.15159e+06
5.53776e+06
1.60966e+07
8.61039e+06
7.27744e+06
4.73063e+06
2.62312e+07
7.15042e+06
2.98855e+06
8.27752e+06
4.40433e+06
7.83864e+06
6.63436e+06
5.9707e+06
1.33084e+06
6.90228e+06
-7.90213e+06
1.62866e+07
8.20768e+06
-5.49216e+06
-7.62367e+06
7.06413e+06
5.34315e+07
1.79591e+07
6.9868e+06
2.63085e+07
9.27742e+06
7.16326e+06
5.48122e+06
8.65645e+06
9.08354e+06
1.87679e+07
1.06098e+07
1.48679e+07
2.66146e+07
1.18681e+07
-1.15096e+07
-1.93401e+06
1.10242e+06
5.3345e+06
8.63195e+06
8.70413e+06
1.41586e+06
7.93135e+06
6.46804e+06
4.76734e+07
1.57485e+07
1.55553e+07
4.79501e+07
-1.60754e+07
7.32387e+06
7.23613e+06
2.11724e+06
7.97792e+06
9.86488e+06
5.86629e+06
7.49951e+06
7.74673e+06
2.86888e+07
7.13408e+06
7.00142e+06
7.29482e+06
5.33034e+06
1.11465e+07
5.73366e+06
9.77112e+06
1.37061e+07
980004
5.70525e+06
-5.04953e+06
4.46763e+06
-1.06209e+07
6.00148e+06
5.94006e+06
9.63038e+06
5.88023e+06
6.32605e+06
8.12551e+06
1.25922e+07
-4.04951e+06
8.09922e+06
7.15957e+06
2.95548e+06
-1.12266e+07
318812
-1.47008e+07