/*--------------------------------*- C++ -*----------------------------------*\
| =========                 |                                                 |
| \\      /  F ield         | OpenFOAM: The Open Source CFD Toolbox           |
|  \\    /   O peration     | Version:  v2012                                 |
|   \\  /    A nd           | Website:  www.openfoam.com                      |
|    \\/     M anipulation  |                                                 |
\*---------------------------------------------------------------------------*/
FoamFile
{
    version     2.0;
    format      ascii;
    class       volSymmTensorField;
    location    "16";
    object      epsilon;
}
// * * * * * * * * * * * * * * * * * * * * * * * * * * * * * * * * * * * * * //

dimensions      [0 0 0 0 0 0 0];


internalField   nonuniform List<symmTensor> 
32000
(
(0.00884928 -0.000271521 -1.2081e-15 -0.00903263 5.37164e-14 0)
(0.00890304 -0.000222045 3.61094e-16 -0.00900821 3.65494e-14 0)
(0.00890223 -0.000263434 1.55819e-15 -0.00896942 4.28374e-14 0)
(0.00891974 -0.000233649 -7.38206e-16 -0.0089191 2.69457e-14 0)
(0.00891947 -0.000247099 -2.27856e-15 -0.00886516 2.71942e-14 0)
(0.008908 -0.00023832 -5.57451e-15 -0.00880852 1.4448e-14 0)
(0.00890818 -0.000228854 -3.23244e-15 -0.0087321 1.53871e-14 0)
(0.00887086 -0.000241401 -4.35513e-15 -0.00867634 9.6327e-15 0)
(0.00887145 -0.000210979 -1.07924e-15 -0.0085757 8.80004e-15 0)
(0.0088104 -0.000244375 -8.17104e-15 -0.0085233 2.13718e-15 0)
(0.00881138 -0.000194228 -6.98169e-15 -0.00839909 3.47834e-15 0)
(0.00872824 -0.000247665 -8.67248e-15 -0.00835043 8.98565e-15 0)
(0.00872958 -0.000178694 -1.60153e-15 -0.00820432 1.22031e-14 0)
(0.00862595 -0.000251137 -1.84881e-15 -0.00815909 9.37401e-15 0)
(0.00862764 -0.000164264 -2.28306e-16 -0.00799309 4.56774e-15 0)
(0.00850508 -0.000254604 -2.13154e-16 -0.00795072 1.23512e-15 0)
(0.00850711 -0.000150753 1.71575e-17 -0.00776688 6.87818e-16 0)
(0.00836713 -0.000257867 4.61436e-16 -0.00772682 -1.2941e-15 0)
(0.00836947 -0.000137984 4.3715e-16 -0.00752711 2.37961e-15 0)
(0.00821346 -0.000260825 1.82891e-15 -0.00748877 2.04025e-15 0)
(0.00821609 -0.000125773 1.36504e-15 -0.00727499 4.15033e-15 0)
(0.00804544 -0.000263333 -8.6953e-17 -0.00723801 -2.31217e-15 0)
(0.00804835 -0.000114019 -1.44345e-15 -0.00701183 -1.71716e-15 0)
(0.00786447 -0.000265244 -8.84302e-16 -0.00697597 -6.21248e-15 0)
(0.00786764 -0.000102646 5.66197e-16 -0.00673897 -5.87507e-15 0)
(0.00767186 -0.000266529 -4.6786e-16 -0.00670397 -5.42491e-15 0)
(0.00767527 -9.15786e-05 -1.02324e-15 -0.00645762 -1.21778e-15 0)
(0.00746874 -0.000267225 -8.1616e-16 -0.00642324 2.42428e-16 0)
(0.00747238 -8.07445e-05 2.1581e-16 -0.00616882 1.84314e-16 0)
(0.00725624 -0.000267293 -1.56017e-15 -0.00613494 -3.12836e-15 0)
(0.00726009 -7.01161e-05 -1.74735e-15 -0.00587376 -6.12054e-15 0)
(0.00703535 -0.000266727 -1.1308e-15 -0.00584001 -8.7764e-15 0)
(0.00703939 -5.95931e-05 6.27753e-16 -0.00557349 -1.04855e-14 0)
(0.00680689 -0.000265542 3.56255e-15 -0.0055395 -8.38912e-15 0)
(0.00681111 -4.908e-05 2.8727e-15 -0.00526867 -8.79158e-15 0)
(0.00657171 -0.000263702 4.97893e-15 -0.00523441 -8.88655e-15 0)
(0.0065761 -3.85722e-05 2.02797e-15 -0.00496051 -9.1884e-15 0)
(0.00633067 -0.000261086 3.21311e-15 -0.00492565 -6.77279e-15 0)
(0.00633522 -2.79899e-05 1.13435e-15 -0.00465008 -4.27523e-15 0)
(0.00608448 -0.000257719 3.78809e-15 -0.00461426 -2.01662e-15 0)
(0.00608918 -1.72453e-05 2.58596e-15 -0.00433798 -5.43836e-16 0)
(0.00583405 -0.000253487 2.8635e-15 -0.00430147 1.46497e-15 0)
(0.00583888 -6.41565e-06 2.34188e-16 -0.00402578 4.9548e-15 0)
(0.00558026 -0.000248299 5.66848e-16 -0.00398827 3.59044e-15 0)
(0.0055852 4.56871e-06 3.22415e-16 -0.0037147 7.7785e-15 0)
(0.00532398 -0.000242144 3.75446e-16 -0.00367621 7.20908e-15 0)
(0.00532902 1.56967e-05 4.69866e-17 -0.00340576 1.21895e-14 0)
(0.00506643 -0.000234843 -7.16929e-18 -0.00336688 1.07965e-14 0)
(0.00507154 2.68057e-05 -5.379e-17 -0.00310107 9.46552e-15 0)
(0.00480874 -0.000226372 -2.1524e-15 -0.00306159 6.04855e-15 0)
(0.0048139 3.79437e-05 -2.05283e-15 -0.00280199 4.8234e-15 0)
(0.00455226 -0.000216697 -4.18658e-15 -0.00276278 3.77606e-15 0)
(0.00455745 4.88854e-05 -2.05315e-15 -0.00251052 4.68158e-15 0)
(0.00429865 -0.000205622 -3.42414e-15 -0.00247219 3.79688e-15 0)
(0.00430383 5.94756e-05 -1.30566e-15 -0.00222921 5.30652e-15 0)
(0.00404955 -0.000193229 -1.79476e-15 -0.00219217 4.22665e-15 0)
(0.00405469 6.96158e-05 -4.55284e-16 -0.00195926 5.56282e-15 0)
(0.00380701 -0.000179444 -8.93396e-16 -0.00192525 4.54411e-15 0)
(0.00381206 7.88862e-05 -4.19912e-16 -0.00170399 4.01892e-15 0)
(0.00357291 -0.00016439 1.51436e-16 -0.00167317 3.0826e-15 0)
(0.00357783 8.72606e-05 5.65601e-16 -0.0014648 -2.39826e-16 0)
(0.00334939 -0.000148133 1.02453e-15 -0.00143872 2.79724e-16 0)
(0.00335414 9.4381e-05 4.37462e-16 -0.00124409 -4.30688e-15 0)
(0.00313846 -0.000130815 1.54905e-17 -0.00122318 3.51715e-16 0)
(0.00314298 0.000100164 -4.20074e-16 -0.00104363 -2.20006e-15 0)
(0.00294195 -0.000112669 -1.86803e-15 -0.00102846 4.6187e-15 0)
(0.0029462 0.000104492 -1.40407e-15 -0.000864342 2.66193e-15 0)
(0.00276157 -9.38664e-05 -3.33792e-15 -0.000855293 5.90587e-15 0)
(0.00276551 0.000107299 -1.85732e-15 -0.000707873 4.58401e-16 0)
(0.00259853 -7.47266e-05 -2.52024e-15 -0.000704283 1.01872e-15 0)
(0.00260212 0.000108758 -6.08237e-16 -0.000573902 -1.82363e-15 0)
(0.00245379 -5.5426e-05 -1.35929e-15 -0.000575499 2.38958e-16 0)
(0.00245701 0.000108949 -7.18907e-16 -0.000463065 -2.10856e-15 0)
(0.00232762 -3.63881e-05 -1.66659e-15 -0.000468466 -1.53913e-15 0)
(0.00233045 0.000108197 -9.07443e-16 -0.000374675 -2.63504e-15 0)
(0.00221964 -1.79778e-05 -1.65867e-15 -0.000382347 -1.87177e-15 0)
(0.00222208 0.000106857 -7.11433e-16 -0.000307498 -2.60729e-15 0)
(0.00213393 1.84269e-06 -1.88298e-15 -0.000330931 -2.02052e-15 0)
(0.00213589 0.000101885 -1.12388e-15 -0.00029019 -1.03693e-15 0)
(0.00205855 9.99633e-06 -1.72844e-15 -0.00030645 -7.79325e-16 0)
(0.00879584 -0.000584258 -6.45716e-15 -0.00899394 1.44577e-14 0)
(0.00883264 -0.000537176 -5.3423e-15 -0.00893522 7.27977e-15 0)
(0.00882938 -0.000592033 -7.61544e-16 -0.00890499 1.3875e-14 0)
(0.00884092 -0.00055861 -4.05779e-15 -0.00883067 3.57602e-15 0)
(0.00883905 -0.000589751 -7.28156e-15 -0.00879469 4.21007e-15 0)
(0.00882558 -0.0005721 -8.17201e-15 -0.00871005 4.31729e-16 0)
(0.00882494 -0.000582241 -7.53515e-15 -0.00866294 5.09044e-15 0)
(0.00878729 -0.000581342 -8.44106e-15 -0.00857137 9.40502e-15 0)
(0.00878783 -0.000571373 -1.22471e-14 -0.00851045 7.29126e-15 0)
(0.00872689 -0.000587794 -1.56658e-14 -0.00841436 7.36152e-15 0)
(0.00872856 -0.000558273 -1.31745e-14 -0.00833823 7.65187e-15 0)
(0.00864556 -0.000592111 -6.63814e-15 -0.00823958 7.99014e-15 0)
(0.00864834 -0.000543555 -2.36811e-15 -0.00814762 6.54555e-15 0)
(0.0085445 -0.000594681 -1.72307e-15 -0.0080478 2.13458e-15 0)
(0.00854836 -0.000527662 -1.17744e-15 -0.00794002 1.69352e-15 0)
(0.0084251 -0.000595626 3.49276e-16 -0.00784006 1.67032e-15 0)
(0.00842998 -0.000510901 1.74421e-15 -0.00771691 -7.67615e-16 0)
(0.0082886 -0.000595151 -1.23859e-15 -0.00761736 6.54663e-15 0)
(0.00829447 -0.000493522 -1.10442e-15 -0.00747966 5.60489e-15 0)
(0.00813641 -0.000593315 -9.11435e-16 -0.00738095 9.53686e-15 0)
(0.00814322 -0.000475618 6.0054e-16 -0.00722971 -5.34295e-16 0)
(0.00796989 -0.000590143 -1.98349e-15 -0.00713211 -1.00961e-15 0)
(0.00797758 -0.000457204 -2.09484e-15 -0.00696848 -7.26546e-15 0)
(0.00779038 -0.000585596 -4.22297e-17 -0.00687211 -4.94765e-15 0)
(0.0077989 -0.000438362 1.35742e-16 -0.00669727 -3.46793e-15 0)
(0.00759901 -0.000579783 -3.37024e-16 -0.00660198 -2.76688e-16 0)
(0.00760831 -0.000419162 -7.40022e-16 -0.00641732 -8.08815e-16 0)
(0.00739697 -0.000572694 -2.68172e-15 -0.00632284 -5.76058e-15 0)
(0.00740701 -0.000399526 -4.47949e-15 -0.0061298 -7.90622e-15 0)
(0.00718505 -0.000564479 -6.27086e-15 -0.00603562 -1.20984e-14 0)
(0.00719579 -0.000379409 -2.6724e-15 -0.00583564 -9.86667e-15 0)
(0.00696431 -0.000554903 -2.74195e-16 -0.00574139 -1.05283e-14 0)
(0.00697569 -0.000358828 4.186e-15 -0.0055359 -7.34894e-15 0)
(0.00673556 -0.000544085 5.02669e-15 -0.00544097 -7.19954e-15 0)
(0.00674754 -0.000337601 6.46515e-15 -0.00523158 -8.35616e-15 0)
(0.00649958 -0.000531914 4.07178e-15 -0.00513552 -8.27203e-15 0)
(0.00651214 -0.000315575 3.74847e-15 -0.00492358 -6.4111e-15 0)
(0.00625728 -0.000518158 1.6411e-15 -0.00482611 -5.6127e-15 0)
(0.00627037 -0.000292807 3.74906e-15 -0.00461296 -3.71274e-15 0)
(0.00600951 -0.000502867 3.08705e-15 -0.00451375 -5.80872e-15 0)
(0.00602311 -0.000269045 3.39784e-15 -0.00430094 -2.03049e-15 0)
(0.00575708 -0.0004859 3.29733e-16 -0.00419989 -4.84378e-15 0)
(0.00577114 -0.000244253 1.40485e-16 -0.00398851 -2.54701e-15 0)
(0.00550112 -0.000467009 -9.61714e-16 -0.003886 -4.08874e-15 0)
(0.00551558 -0.000218539 -4.57588e-16 -0.00367721 1.66967e-15 0)
(0.00524285 -0.000446171 -1.39995e-15 -0.00357359 -1.23382e-15 0)
(0.00525766 -0.000191673 -5.93519e-16 -0.00336864 3.14289e-15 0)
(0.00498325 -0.000423453 -2.43899e-15 -0.00326471 -5.85903e-16 0)
(0.00499837 -0.000163899 -3.89294e-15 -0.00306411 3.84501e-15 0)
(0.00472406 -0.000398525 -2.86313e-15 -0.00296134 5.74193e-16 0)
(0.0047394 -0.000135356 -3.23689e-15 -0.00276604 1.82146e-15 0)
(0.00446698 -0.000371493 4.98489e-16 -0.00266588 2.35055e-16 0)
(0.00448245 -0.000106068 -1.87594e-15 -0.00247617 1.39168e-15 0)
(0.00421379 -0.000342431 1.03899e-15 -0.00238094 -2.34621e-16 0)
(0.00422929 -7.65947e-05 -1.05013e-15 -0.00219682 1.19869e-15 0)
(0.00396671 -0.000311359 1.08095e-16 -0.00210864 5.76796e-17 0)
(0.00398213 -4.69666e-05 -1.08794e-15 -0.00193053 2.17317e-15 0)
(0.00372764 -0.000278621 -2.00496e-16 -0.00185185 5.36897e-16 0)
(0.00374286 -1.78535e-05 5.5419e-16 -0.00167899 2.04611e-15 0)
(0.00349893 -0.000244362 2.47182e-15 -0.00161229 1.23512e-15 0)
(0.0035138 1.04572e-05 2.48084e-15 -0.00144502 2.76558e-15 0)
(0.0032824 -0.000209142 3.05244e-15 -0.00139211 1.92381e-15 0)
(0.0032968 3.75191e-05 1.12445e-15 -0.00122985 3.9556e-15 0)
(0.00307999 -0.000173163 -1.56795e-15 -0.00119222 4.72278e-15 0)
(0.00309376 6.29079e-05 -4.08137e-15 -0.00103542 7.76159e-15 0)
(0.00289308 -0.000137101 -4.4735e-15 -0.0010136 6.48136e-15 0)
(0.00290612 8.64499e-05 -4.12168e-15 -0.000862431 6.49697e-15 0)
(0.00272282 -0.000101187 -3.29652e-15 -0.000856237 3.59912e-15 0)
(0.002735 0.000107759 -3.14706e-15 -0.000711503 3.51672e-15 0)
(0.00257001 -6.59422e-05 -2.79236e-15 -0.000719947 2.58647e-15 0)
(0.00258125 0.000126862 -2.86967e-15 -0.000582708 2.05478e-15 0)
(0.00243508 -3.15957e-05 -1.89353e-15 -0.00060413 1.88131e-15 0)
(0.00244528 0.000143445 -1.30619e-15 -0.000475575 5.49474e-16 0)
(0.00231856 1.70307e-06 -1.45687e-15 -0.000508175 1.34571e-15 0)
(0.00232763 0.000157244 -2.55178e-15 -0.000389271 -7.28584e-17 0)
(0.00222188 3.44832e-05 -2.86366e-15 -0.000431889 2.43729e-16 0)
(0.00222998 0.000173383 -3.08743e-15 -0.000337705 -1.0391e-15 0)
(0.00213945 6.70377e-05 -3.51128e-15 -0.000376511 -1.05775e-15 0)
(0.00214586 0.000176892 -2.85287e-15 -0.000313039 -1.78199e-15 0)
(0.00206783 8.54981e-05 -2.44008e-15 -0.000342648 -2.33667e-15 0)
(0.00871451 -0.000901997 -2.65429e-15 -0.00890637 2.87747e-16 0)
(0.0087323 -0.000859412 7.75514e-15 -0.00882127 1.88478e-15 0)
(0.00872647 -0.000918311 1.66886e-15 -0.00880223 -1.28196e-15 0)
(0.00872625 -0.000882658 -1.53696e-15 -0.00869923 -2.36887e-15 0)
(0.00872213 -0.000924196 -8.17917e-15 -0.00868222 -1.20921e-15 0)
(0.00870054 -0.000899401 -8.44122e-15 -0.00856438 5.80829e-15 0)
(0.00869815 -0.000923235 -9.32636e-15 -0.00854436 1.16993e-14 0)
(0.00865469 -0.000911169 -9.27958e-15 -0.00841468 1.33305e-14 0)
(0.00865404 -0.000917124 -1.18217e-14 -0.00838837 1.10441e-14 0)
(0.00858912 -0.000918864 -1.06819e-14 -0.00824967 6.7394e-15 0)
(0.00859021 -0.000906848 -8.05188e-15 -0.00821476 3.42456e-15 0)
(0.00850455 -0.000923085 -4.18616e-15 -0.00806949 3.7843e-15 0)
(0.00850738 -0.000893175 -2.13355e-15 -0.00802428 3.98423e-15 0)
(0.00840193 -0.000924264 -2.46076e-15 -0.00787456 7.51417e-15 0)
(0.00840648 -0.000876597 -5.16893e-16 -0.00781795 5.56521e-15 0)
(0.00828202 -0.000922775 -3.46034e-15 -0.00766528 5.04046e-15 0)
(0.00828825 -0.000857642 -5.49474e-15 -0.00759673 8.36809e-15 0)
(0.00814594 -0.000918776 -6.59672e-15 -0.00744248 1.06672e-14 0)
(0.00815381 -0.000836672 -2.08535e-15 -0.00736185 1.2691e-14 0)
(0.00799482 -0.000912446 2.77393e-15 -0.00720701 5.9746e-15 0)
(0.00800427 -0.000813941 1.32929e-15 -0.00711458 2.30805e-15 0)
(0.00782984 -0.000903839 1.32088e-15 -0.00695978 -1.90516e-15 0)
(0.00784081 -0.000789579 1.30104e-17 -0.00685616 -2.95727e-15 0)
(0.00765191 -0.000893121 1.76676e-15 -0.00670158 -7.83878e-16 0)
(0.00766434 -0.000763796 1.21344e-15 -0.00658762 3.57353e-16 0)
(0.00746191 -0.000880399 -1.91362e-16 -0.00643316 -6.39029e-16 0)
(0.00747574 -0.00073663 -3.67268e-15 -0.00631008 -6.19405e-15 0)
(0.00726068 -0.000865645 -2.88148e-15 -0.00615527 -7.0729e-15 0)
(0.00727583 -0.00070825 -3.6955e-15 -0.00602446 -1.08147e-14 0)
(0.00704917 -0.000848867 -3.25423e-16 -0.00586884 -6.37164e-15 0)
(0.00706559 -0.000678404 -5.6102e-16 -0.00573184 -8.37871e-15 0)
(0.00682797 -0.000830065 2.11381e-15 -0.00557469 -4.30905e-15 0)
(0.0068456 -0.000647176 3.25022e-15 -0.00543304 -6.36709e-15 0)
(0.00659805 -0.000809055 3.29793e-15 -0.00527391 -1.62327e-15 0)
(0.00661681 -0.000614473 2.73523e-15 -0.00512921 -2.48543e-15 0)
(0.0063603 -0.000785734 1.53122e-15 -0.00496751 1.38908e-15 0)
(0.00638016 -0.000579988 8.07893e-16 -0.00482144 -3.72879e-15 0)
(0.00611554 -0.000759943 1.3224e-15 -0.00465684 1.1692e-15 0)
(0.00613642 -0.000543779 1.52905e-15 -0.00451073 -2.89525e-15 0)
(0.0058648 -0.000731649 2.35304e-15 -0.0043434 9.43256e-16 0)
(0.00588664 -0.000505797 8.69693e-16 -0.00419853 -4.8312e-15 0)
(0.00560935 -0.000700603 1.61058e-15 -0.00402869 -3.31332e-15 0)
(0.00563208 -0.000465777 -5.07407e-17 -0.0038863 -4.85723e-15 0)
(0.00535036 -0.000666748 5.1299e-16 -0.00371484 -5.46872e-16 0)
(0.00537389 -0.000423847 -1.35238e-15 -0.00357554 -2.65456e-15 0)
(0.00508944 -0.000629998 -7.9407e-16 -0.00340406 -1.38778e-17 0)
(0.00511364 -0.000380317 -2.6769e-15 -0.0032683 -2.26945e-15 0)
(0.00482854 -0.000590334 -2.90675e-16 -0.00309874 1.47235e-15 0)
(0.00485331 -0.000334999 9.02381e-16 -0.00296653 -8.06646e-17 0)
(0.00456947 -0.000547971 3.05469e-15 -0.0028019 1.94896e-15 0)
(0.00459466 -0.000288417 2.8913e-15 -0.0026726 1.01221e-15 0)
(0.00431468 -0.000502754 3.20013e-15 -0.0025161 1.24423e-15 0)
(0.0043401 -0.000240893 3.62026e-15 -0.00238911 -1.14925e-15 0)
(0.00406633 -0.000455301 4.20085e-15 -0.00224439 -2.18488e-15 0)
(0.00409182 -0.000192833 2.67885e-15 -0.00211814 -2.34274e-15 0)
(0.00382694 -0.000405707 3.14017e-15 -0.00198919 -1.36089e-15 0)
(0.00385226 -0.000144981 1.37607e-15 -0.00186254 -5.33861e-16 0)
(0.00359868 -0.000354702 2.36822e-15 -0.00175265 -7.27716e-16 0)
(0.00362363 -9.76714e-05 2.66258e-15 -0.00162401 -4.16334e-16 0)
(0.00338346 -0.000302777 2.948e-15 -0.00153629 1.20867e-15 0)
(0.00340781 -5.17664e-05 3.31576e-15 -0.00140467 2.04047e-15 0)
(0.00318295 -0.000250573 2.08731e-15 -0.00134087 3.22008e-15 0)
(0.00320651 -7.50049e-06 -8.66521e-16 -0.00120543 3.87104e-15 0)
(0.0029981 -0.000198805 -1.28223e-15 -0.00116658 3.52626e-15 0)
(0.00302068 3.43743e-05 -2.42476e-15 -0.00102727 3.18582e-15 0)
(0.00282972 -0.000147963 -6.41278e-16 -0.00101287 2.20657e-15 0)
(0.00285116 7.37461e-05 -1.94633e-15 -0.000870182 2.70704e-15 0)
(0.00267791 -9.86403e-05 -2.61632e-15 -0.000878871 1.867e-15 0)
(0.00269808 0.00011024 -3.62083e-15 -0.000733989 1.87003e-15 0)
(0.00254259 -5.11112e-05 -4.50272e-15 -0.000763232 1.3752e-15 0)
(0.0025614 0.000143886 -2.66519e-15 -0.000618115 1.93465e-15 0)
(0.00242328 -5.60387e-06 -1.77297e-15 -0.000664521 1.86049e-15 0)
(0.00244068 0.000174958 -1.14644e-15 -0.000521977 2.57259e-15 0)
(0.002319 3.79009e-05 -2.33174e-15 -0.000580881 3.25998e-15 0)
(0.00233508 0.000204843 -2.95117e-15 -0.000445451 2.27466e-15 0)
(0.00222672 7.9229e-05 -3.20989e-15 -0.000509261 2.68318e-15 0)
(0.00224149 0.000232461 -3.54e-15 -0.000389668 5.49907e-16 0)
(0.00214168 0.000116737 -2.58509e-15 -0.000445759 1.24987e-15 0)
(0.00215413 0.000245627 -2.15642e-15 -0.000355364 -9.78818e-16 0)
(0.00208226 0.000157213 -1.20073e-15 -0.000414676 -3.27429e-16 0)
(0.00859136 -0.00122382 4.56698e-15 -0.0087778 3.90421e-16 0)
(0.00859189 -0.00117998 5.52726e-16 -0.00865924 -1.87534e-15 0)
(0.00858365 -0.00123973 5.79181e-16 -0.00865662 -1.44719e-15 0)
(0.00856885 -0.00120029 -6.24815e-15 -0.00851963 -3.95647e-15 0)
(0.0085623 -0.00124798 -8.60629e-15 -0.00852278 2.13826e-15 0)
(0.00852932 -0.00121589 -1.1244e-14 -0.00836898 3.14028e-15 0)
(0.0085247 -0.00124961 -1.1004e-14 -0.00837431 8.49928e-15 0)
(0.00847266 -0.00122681 -1.41841e-14 -0.00820628 6.25932e-15 0)
(0.00847011 -0.00124549 -1.129e-14 -0.00821073 6.86018e-15 0)
(0.00839906 -0.00123331 -9.53762e-15 -0.0080312 2.37245e-15 0)
(0.00839864 -0.00123634 -5.07884e-15 -0.00803217 2.6409e-15 0)
(0.00830883 -0.00123582 1.01264e-16 -0.00784358 -1.88564e-15 0)
(0.00831061 -0.00122275 6.21573e-16 -0.00783903 2.84495e-15 0)
(0.0082023 -0.0012347 -3.08456e-16 -0.00764333 -1.61915e-15 0)
(0.0082063 -0.00120524 -6.31559e-15 -0.0076317 2.61857e-15 0)
(0.00808018 -0.00123014 -8.49353e-15 -0.00743078 -4.85072e-15 0)
(0.00808641 -0.00118418 -6.69365e-15 -0.00741097 3.07913e-17 0)
(0.0079432 -0.00122228 -2.66074e-15 -0.00720634 -2.20332e-15 0)
(0.00795165 -0.00115992 2.25547e-15 -0.00717767 1.91579e-15 0)
(0.0077921 -0.00121129 5.56369e-15 -0.00697041 -3.2461e-16 0)
(0.00780275 -0.00113267 6.0106e-15 -0.0069327 -4.19153e-16 0)
(0.00762749 -0.00119726 7.24496e-15 -0.00672331 -2.34903e-15 0)
(0.00764029 -0.0011027 4.21353e-15 -0.00667682 -1.67011e-15 0)
(0.00744991 -0.00118029 4.90981e-15 -0.0064653 -1.2954e-15 0)
(0.00746481 -0.00107015 1.0198e-15 -0.00641079 -1.38236e-15 0)
(0.00725992 -0.00116043 3.78788e-15 -0.00619688 -2.82977e-16 0)
(0.00727688 -0.00103507 3.26204e-15 -0.00613534 -4.88108e-16 0)
(0.00705815 -0.00113759 5.32495e-15 -0.00591866 -1.32706e-16 0)
(0.00707712 -0.000997481 2.41376e-15 -0.00585141 -2.42991e-15 0)
(0.00684516 -0.00111177 1.89356e-15 -0.00563129 2.23779e-16 0)
(0.00686607 -0.000957409 1.78698e-15 -0.0055598 2.11636e-16 0)
(0.00662185 -0.00108273 4.04559e-15 -0.00533571 4.00439e-15 0)
(0.00664463 -0.000914665 4.39774e-15 -0.00526162 4.05253e-15 0)
(0.00638904 -0.00105036 5.97341e-15 -0.0050331 6.54208e-15 0)
(0.00641363 -0.000869193 3.62503e-15 -0.00495785 4.58791e-15 0)
(0.00614761 -0.00101464 3.36374e-15 -0.0047248 5.12524e-15 0)
(0.00617393 -0.000820912 1.74882e-15 -0.00464985 6.67218e-15 0)
(0.00589888 -0.000975201 6.94215e-16 -0.00441252 7.60763e-15 0)
(0.00592681 -0.000769843 1.10393e-15 -0.00433911 5.77012e-15 0)
(0.00564419 -0.000932123 -2.49215e-15 -0.0040982 6.34649e-15 0)
(0.00567362 -0.000715883 -4.40023e-16 -0.00402712 2.8662e-15 0)
(0.00538503 -0.000885417 -7.01316e-16 -0.00378427 3.88274e-15 0)
(0.00541585 -0.000659217 1.92023e-15 -0.00371595 1.85919e-15 0)
(0.00512365 -0.000834773 -2.82115e-15 -0.00347347 6.07066e-15 0)
(0.00515566 -0.000599984 -3.62682e-15 -0.00340783 6.13875e-15 0)
(0.00486213 -0.000780581 -5.19609e-15 -0.00316888 6.31786e-15 0)
(0.00489515 -0.00053851 5.7029e-17 -0.00310508 3.75307e-15 0)
(0.00460305 -0.00072299 -4.05763e-16 -0.00287395 4.61306e-15 0)
(0.00463684 -0.00047539 1.41049e-15 -0.0028107 4.27176e-15 0)
(0.00434938 -0.000662185 3.67111e-16 -0.00259189 4.23663e-15 0)
(0.00438367 -0.000410839 2.36519e-15 -0.00252719 2.08861e-15 0)
(0.00410351 -0.000598995 3.46435e-15 -0.00232606 6.83047e-16 0)
(0.00413803 -0.000345931 4.87425e-15 -0.00225754 -1.21778e-15 0)
(0.00386858 -0.000533588 4.66516e-15 -0.0020789 -2.01141e-15 0)
(0.003903 -0.00028099 4.41747e-15 -0.00200416 -2.00404e-15 0)
(0.00364639 -0.000467234 3.15113e-15 -0.00185257 -6.3274e-16 0)
(0.00368044 -0.000217043 2.83633e-15 -0.00176917 -1.88217e-16 0)
(0.00343911 -0.000400249 3.96851e-15 -0.00164783 1.20346e-15 0)
(0.00347248 -0.000154602 3.75562e-15 -0.00155408 2.243e-15 0)
(0.00324763 -0.000333895 3.95013e-15 -0.00146513 4.81906e-15 0)
(0.00328011 -9.43544e-05 1.90787e-15 -0.00135963 4.89626e-15 0)
(0.00307268 -0.000268561 2.1877e-15 -0.00130345 6.17909e-15 0)
(0.00310403 -3.68142e-05 1.89475e-15 -0.00118605 4.11086e-15 0)
(0.00291404 -0.000205275 9.23686e-16 -0.00116175 4.81256e-15 0)
(0.00294413 1.76927e-05 -5.38523e-16 -0.00103281 3.22008e-15 0)
(0.00277123 -0.000144294 -9.56266e-16 -0.00103799 5.62181e-15 0)
(0.00279992 6.88849e-05 -1.74307e-15 -0.000899054 3.70407e-15 0)
(0.00264316 -8.62127e-05 -1.56288e-16 -0.000930222 4.08918e-15 0)
(0.00267041 0.000116795 -1.98393e-15 -0.00078348 1.71087e-15 0)
(0.00252853 -3.10534e-05 -5.38957e-16 -0.000836161 2.37744e-15 0)
(0.00255432 0.000161522 -2.22045e-15 -0.000684688 1.95503e-15 0)
(0.00242533 2.07635e-05 -1.73673e-15 -0.000753468 3.60953e-15 0)
(0.00244974 0.000203343 -2.45843e-15 -0.000600849 4.16941e-15 0)
(0.00233152 6.94781e-05 -2.74571e-15 -0.00067965 5.1144e-15 0)
(0.00235452 0.000241797 -2.87961e-15 -0.00052888 4.54671e-15 0)
(0.00224525 0.000114461 -1.11938e-15 -0.000613096 4.51679e-15 0)
(0.00226644 0.000273486 -5.61563e-16 -0.000464681 3.26258e-15 0)
(0.00217177 0.000157781 -5.41559e-17 -0.000556448 3.1559e-15 0)
(0.00219176 0.00030727 -1.17603e-15 -0.000432755 1.69743e-15 0)
(0.00209371 0.000194723 -2.24427e-15 -0.000497144 1.93985e-15 0)
(0.00842112 -0.0015396 -5.95964e-15 -0.00860158 1.92945e-15 0)
(0.00840613 -0.0014906 -1.79544e-15 -0.00844763 7.16647e-15 0)
(0.00839548 -0.00155143 -2.07852e-15 -0.00846329 7.72277e-16 0)
(0.00836571 -0.00150594 -3.67501e-15 -0.00829064 3.42521e-15 0)
(0.00835669 -0.00155789 -1.05001e-14 -0.00831408 -3.29164e-16 0)
(0.00831113 -0.00151741 -1.13452e-14 -0.00812395 -1.90646e-15 0)
(0.00830405 -0.00155861 -1.52449e-14 -0.008153 -5.69206e-16 0)
(0.0082423 -0.0015246 -1.39988e-14 -0.00794763 -4.24248e-15 0)
(0.00823739 -0.00155372 -1.11765e-14 -0.00797977 -1.76465e-15 0)
(0.00815904 -0.0015276 -8.89143e-15 -0.00776131 -5.45289e-15 0)
(0.00815647 -0.00154359 -2.07614e-15 -0.00779419 -5.72762e-15 0)
(0.00806125 -0.00152658 -3.09572e-15 -0.00756461 -7.76983e-15 0)
(0.00806113 -0.00152861 -1.80487e-15 -0.0075962 -8.25858e-15 0)
(0.00794913 -0.00152166 -7.15031e-15 -0.00735744 -6.03228e-15 0)
(0.00795159 -0.00150901 -7.78566e-15 -0.00738608 -6.74938e-15 0)
(0.00782308 -0.00151283 -7.97582e-15 -0.00713984 -7.09372e-15 0)
(0.0078282 -0.00148503 -4.65849e-15 -0.00716427 -7.34048e-15 0)
(0.00768337 -0.00150016 -2.09284e-15 -0.00691172 -3.8281e-15 0)
(0.00769119 -0.00145689 3.22691e-15 -0.00693113 -8.75602e-16 0)
(0.00753019 -0.00148371 4.55441e-15 -0.00667287 2.76472e-16 0)
(0.00754075 -0.00142469 8.12653e-15 -0.00668697 -1.1035e-15 0)
(0.00736354 -0.0014635 6.30496e-15 -0.00642309 -3.28296e-16 0)
(0.00737688 -0.0013886 6.10102e-15 -0.00643206 -1.21821e-15 0)
(0.00718367 -0.00143946 3.99572e-15 -0.00616241 2.09902e-15 0)
(0.00719979 -0.00134868 5.53485e-15 -0.00616688 3.05918e-15 0)
(0.00699081 -0.00141151 6.33467e-15 -0.00589106 6.79881e-15 0)
(0.00700972 -0.00130485 6.59954e-15 -0.00589203 3.70255e-15 0)
(0.00678546 -0.00137938 4.90753e-15 -0.0056095 5.23236e-15 0)
(0.0068071 -0.00125717 3.09366e-15 -0.00560816 3.93544e-15 0)
(0.00656829 -0.00134295 2.3602e-15 -0.00531857 6.39354e-15 0)
(0.00659263 -0.00120545 3.40418e-15 -0.00531621 6.36448e-15 0)
(0.00634007 -0.00130207 3.6852e-15 -0.00501942 5.52184e-15 0)
(0.00636705 -0.0011497 5.90196e-15 -0.00501733 5.62181e-15 0)
(0.00610176 -0.00125661 3.93349e-15 -0.00471346 3.25217e-15 0)
(0.00613128 -0.00108998 3.75058e-15 -0.00471284 4.73536e-15 0)
(0.00585501 -0.0012063 3.26345e-16 -0.00440272 4.63475e-15 0)
(0.00588694 -0.00102613 -1.07347e-15 -0.00440443 5.98263e-15 0)
(0.00560127 -0.00115126 -4.49846e-15 -0.00408957 4.06055e-15 0)
(0.00563546 -0.000958485 -6.21215e-15 -0.00409399 6.29358e-15 0)
(0.00534255 -0.00109163 -6.60724e-15 -0.00377692 4.75054e-15 0)
(0.0053788 -0.00088734 -3.05572e-15 -0.00378393 5.79484e-15 0)
(0.00508178 -0.00102721 -3.24155e-15 -0.00346823 3.43432e-15 0)
(0.00511984 -0.00081279 -5.52694e-15 -0.00347691 5.7016e-15 0)
(0.00482145 -0.000958637 -5.88689e-15 -0.00316728 4.30732e-15 0)
(0.00486102 -0.00073568 -4.70565e-15 -0.00317594 4.89149e-15 0)
(0.004565 -0.000886187 -4.7217e-16 -0.00287816 5.85903e-16 0)
(0.00460572 -0.000656623 -1.43538e-15 -0.00288442 2.94036e-15 0)
(0.00431585 -0.00081046 1.11369e-15 -0.00260474 -1.04344e-15 0)
(0.00435734 -0.000576299 1.09775e-15 -0.00260546 6.96058e-16 0)
(0.00407699 -0.000732442 1.64929e-15 -0.00235049 -3.41437e-15 0)
(0.00411883 -0.000495903 2.02139e-15 -0.00234238 -1.16573e-15 0)
(0.00385169 -0.000652727 2.05548e-15 -0.00211795 -3.95647e-15 0)
(0.00389349 -0.000415875 3.33734e-15 -0.00209759 -2.83887e-15 0)
(0.00364168 -0.000572684 1.69027e-15 -0.00190862 -3.22442e-15 0)
(0.00368306 -0.000337578 1.81317e-15 -0.0018732 -1.00744e-15 0)
(0.0034488 -0.00049297 1.13353e-15 -0.00172275 -1.41033e-15 0)
(0.00348944 -0.000261252 3.63061e-15 -0.00167002 3.77736e-16 0)
(0.00327331 -0.000414734 4.09975e-15 -0.00155962 -1.25334e-16 0)
(0.00331293 -0.000187957 4.6219e-15 -0.00148851 3.31072e-15 0)
(0.00311501 -0.000338805 3.47042e-15 -0.00141744 1.51658e-15 0)
(0.00315348 -0.000117739 3.05409e-15 -0.00132769 4.37107e-15 0)
(0.00297302 -0.000265571 1.41141e-15 -0.00129391 2.56696e-15 0)
(0.00301015 -5.12631e-05 -4.0354e-16 -0.00118659 5.11136e-15 0)
(0.00284573 -0.000195875 -2.10866e-15 -0.00118647 3.65853e-15 0)
(0.00288152 1.16101e-05 -1.15869e-15 -0.00106321 5.75104e-15 0)
(0.00273132 -0.000129749 -3.90313e-18 -0.0010922 5.59882e-15 0)
(0.00276575 7.06224e-05 1.73668e-15 -0.000955668 5.81479e-15 0)
(0.00262774 -6.74937e-05 2.22375e-15 -0.00100854 4.72192e-15 0)
(0.00266087 0.000126015 1.68106e-15 -0.000861704 3.60129e-15 0)
(0.00253279 -9.10357e-06 1.32533e-15 -0.000932949 4.83077e-15 0)
(0.00256464 0.000177464 -4.84259e-16 -0.000778996 5.18726e-15 0)
(0.0024445 4.52098e-05 4.64472e-16 -0.000863381 6.58414e-15 0)
(0.00247513 0.000225076 -1.13955e-15 -0.000705031 5.89199e-15 0)
(0.00236147 9.56458e-05 1.04165e-15 -0.000798358 6.46618e-15 0)
(0.00239078 0.000268167 1.09185e-15 -0.000638191 5.6192e-15 0)
(0.0022837 0.000142596 2.00469e-15 -0.000737458 6.54988e-15 0)
(0.00231215 0.000310129 2.37494e-16 -0.000581298 5.26489e-15 0)
(0.00220449 0.00018473 -2.91434e-16 -0.000675937 5.80655e-15 0)
(0.00223091 0.000340723 -1.66252e-15 -0.000520975 3.84762e-15 0)
(0.00213514 0.000224355 -2.06757e-16 -0.000621395 3.82984e-15 0)
(0.00820582 -0.00184012 -8.86595e-15 -0.00837683 9.87838e-15 0)
(0.00817534 -0.00178468 -6.28891e-15 -0.00818932 7.69588e-15 0)
(0.00816221 -0.00184695 -7.87673e-16 -0.0082215 7.57836e-15 0)
(0.00811747 -0.00179406 -7.2377e-15 -0.00801469 2.7812e-15 0)
(0.00810599 -0.00184923 -1.09597e-14 -0.0080566 -2.94187e-15 0)
(0.0080476 -0.00179943 -1.22673e-14 -0.007832 -7.50832e-15 0)
(0.00803801 -0.00184639 -1.14314e-14 -0.00788226 -1.00451e-14 0)
(0.00796562 -0.00180079 -7.24572e-15 -0.00764136 -8.24471e-15 0)
(0.00795815 -0.00183832 -7.59505e-15 -0.00769815 -6.06373e-15 0)
(0.00787119 -0.00179821 -6.7497e-15 -0.00744248 -4.22817e-15 0)
(0.00786608 -0.00182511 -9.0223e-15 -0.00750391 -5.67168e-15 0)
(0.00776418 -0.00179165 -8.97264e-15 -0.00723512 -5.25318e-15 0)
(0.00776164 -0.00180682 -8.29632e-15 -0.00729945 -5.16796e-15 0)
(0.00764464 -0.00178098 -8.74951e-15 -0.00701909 -3.53493e-15 0)
(0.00764489 -0.0017834 -7.7798e-15 -0.00708482 -4.78155e-15 0)
(0.00751243 -0.00176609 -3.94801e-15 -0.00679393 -5.12286e-15 0)
(0.00751563 -0.00175491 -1.61828e-15 -0.00685991 -3.96037e-15 0)
(0.00736718 -0.00174693 -4.0148e-16 -0.00655896 -3.11339e-15 0)
(0.00737349 -0.00172138 4.76615e-16 -0.00662453 -1.81539e-15 0)
(0.00720848 -0.00172338 2.4168e-15 -0.0063135 -1.30451e-15 0)
(0.00721804 -0.00168279 4.73406e-15 -0.00637848 1.55605e-15 0)
(0.00703603 -0.00169527 4.61382e-15 -0.00605712 3.46142e-15 0)
(0.00704898 -0.00163903 4.10793e-15 -0.00612179 4.81364e-15 0)
(0.00684983 -0.00166223 2.9564e-15 -0.00578973 5.10291e-15 0)
(0.00686624 -0.00159007 3.6762e-15 -0.00585468 6.08129e-15 0)
(0.00665012 -0.00162403 4.93637e-16 -0.00551155 5.98957e-15 0)
(0.00667005 -0.00153569 1.55735e-15 -0.00557759 8.20069e-15 0)
(0.0064374 -0.00158034 -1.66306e-15 -0.00522332 6.84674e-15 0)
(0.00646085 -0.00147587 1.03129e-15 -0.00529135 6.29575e-15 0)
(0.00621244 -0.001531 -4.27176e-16 -0.00492616 3.48202e-15 0)
(0.00623938 -0.00141059 1.23707e-15 -0.00499706 2.79377e-15 0)
(0.00597628 -0.0014759 2.33396e-15 -0.00462168 1.94332e-15 0)
(0.00600664 -0.00133994 2.86457e-15 -0.00469612 2.36443e-15 0)
(0.00573084 -0.00141478 3.79579e-16 -0.00431223 1.44936e-15 0)
(0.00576447 -0.00126393 -1.90158e-15 -0.00439049 2.2881e-15 0)
(0.00547801 -0.00134785 -4.70555e-15 -0.0040007 4.67508e-16 0)
(0.0055147 -0.00118305 -5.82184e-15 -0.00408247 9.88792e-16 0)
(0.00522033 -0.00127537 -7.05967e-15 -0.00369063 -1.26852e-15 0)
(0.00525981 -0.00109788 -6.11078e-15 -0.00377489 3.85976e-16 0)
(0.0049614 -0.00119749 -3.05821e-15 -0.0033863 2.32019e-16 0)
(0.00500332 -0.00100875 -3.75416e-15 -0.00347111 2.32583e-15 0)
(0.00470453 -0.00111498 -2.05131e-15 -0.00309229 -1.71304e-16 0)
(0.00474845 -0.000916889 -1.95601e-15 -0.00317479 -3.51282e-16 0)
(0.0044539 -0.00102854 1.5078e-15 -0.00281343 -3.4135e-15 0)
(0.00449933 -0.000823154 1.67748e-15 -0.00288994 -2.89829e-15 0)
(0.00421355 -0.000939071 1.61698e-15 -0.00255404 -5.0745e-15 0)
(0.00425995 -0.000728675 1.95677e-15 -0.00262031 -5.42058e-15 0)
(0.00398686 -0.000847916 9.23523e-16 -0.00231755 -6.54381e-15 0)
(0.00403368 -0.000634764 6.37402e-16 -0.00236931 -6.13789e-15 0)
(0.00377704 -0.000756018 -2.10964e-15 -0.00210618 -5.32257e-15 0)
(0.0038238 -0.000542191 -9.82612e-16 -0.00213945 -5.30999e-15 0)
(0.00358558 -0.000664842 -2.54137e-16 -0.00192048 -6.22506e-15 0)
(0.00363182 -0.000452201 1.20075e-15 -0.00193225 -5.18899e-15 0)