/*--------------------------------*- C++ -*----------------------------------*\
| =========                 |                                                 |
| \\      /  F ield         | OpenFOAM: The Open Source CFD Toolbox           |
|  \\    /   O peration     | Version:  v2012                                 |
|   \\  /    A nd           | Website:  www.openfoam.com                      |
|    \\/     M anipulation  |                                                 |
\*---------------------------------------------------------------------------*/
FoamFile
{
    version     2.0;
    format      ascii;
    class       volScalarField;
    location    "9";
    object      epsilonEq;
}
// * * * * * * * * * * * * * * * * * * * * * * * * * * * * * * * * * * * * * //

dimensions      [0 0 0 0 0 0 0];


internalField   nonuniform List<scalar> 
1000
(
0.0100797
0.00920123
0.00818327
0.00703758
0.00585058
0.00477657
0.00378994
0.0030947
0.00267895
0.00243204
0.00977801
0.0085529
0.00714897
0.00590997
0.00478064
0.00395518
0.00332909
0.0029786
0.00275384
0.0025996
0.00846702
0.00682722
0.00520304
0.00421474
0.00348976
0.00316485
0.00299657
0.00295414
0.00286066
0.00277316
0.00601317
0.00448142
0.00341231
0.003055
0.00290191
0.00293201
0.00291914
0.00293512
0.00287013
0.00282515
0.00379173
0.00297978
0.00276845
0.00277788
0.00276141
0.00280942
0.00279294
0.00281964
0.00279045
0.00278027
0.00283099
0.00258828
0.00256695
0.00255661
0.00256141
0.00261706
0.00264014
0.00268906
0.00269254
0.00270478
0.00242409
0.00230254
0.00227875
0.00232682
0.00239035
0.00247166
0.00251947
0.00257904
0.00259887
0.00262132
0.00195635
0.00193102
0.00200835
0.00211672
0.00221622
0.00231973
0.00238731
0.00245684
0.00248909
0.00252051
0.00148585
0.00158615
0.00174517
0.00191862
0.00205666
0.00218372
0.00226759
0.00234469
0.00238633
0.00241736
0.000991917
0.00123167
0.00148875
0.00171131
0.00188717
0.00202127
0.00213051
0.00219807
0.00227062
0.00228986
0.000563036
0.000943936
0.00127209
0.00152653
0.0017229
0.00186633
0.00198117
0.00205718
0.00212417
0.00217306
0.00030158
0.000769604
0.00111426
0.00138484
0.00157709
0.00173445
0.00183433
0.00192971
0.00196467
0.00203756
0.000512743
0.00074245
0.00100606
0.00124675
0.00141578
0.001565
0.00165184
0.001747
0.00177093
0.00184558
0.000860944
0.000863064
0.000981458
0.0011575
0.00127985
0.00141162
0.00147521
0.00156685
0.00157892
0.001653
0.00118844
0.00103818
0.00101078
0.0010934
0.00115565
0.00125416
0.00129316
0.00137247
0.00137463
0.00144113
0.00147269
0.00122182
0.00107976
0.0010644
0.00105863
0.00111079
0.00112224
0.00118005
0.0011754
0.00122787
0.00170723
0.0013839
0.0011579
0.00105373
0.000980475
0.000976052
0.000954921
0.000982282
0.000967169
0.00100033
0.00188564
0.00151335
0.00123049
0.00105787
0.000927217
0.000864427
0.000809282
0.000798277
0.000771869
0.000779704
0.0020067
0.00160233
0.00128354
0.00106415
0.000891359
0.000778137
0.000689718
0.000636511
0.000594523
0.00057153
0.00206745
0.0016478
0.00131196
0.00106954
0.000875046
0.000732528
0.000622793
0.00053784
0.000482489
0.000430663
0.000400405
0.000549484
0.000764417
0.000984631
0.00121069
0.00141309
0.00161819
0.00179516
0.00198494
0.00216454
0.000387753
0.000525691
0.0007287
0.000938282
0.00115757
0.0013523
0.00154609
0.00170149
0.00184896
0.00198199
0.000397794
0.000514632
0.000692585
0.000880831
0.00108001
0.00126779
0.0014565
0.001637
0.00178977
0.00193326
0.000450122
0.000546943
0.000700569
0.000870274
0.00104542
0.00121238
0.00136541
0.00151983
0.00164789
0.00179394
0.000486496
0.000563778
0.000690403
0.000842218
0.00100017
0.00116599
0.00131487
0.00147275
0.00159198
0.00171668
0.000548636
0.000611064
0.000714312
0.00084412
0.000975566
0.00111829
0.00124305
0.00138402
0.00149745
0.00162094
0.000599942
0.000650225
0.000735
0.000849403
0.000967242
0.00110109
0.00121782
0.00134702
0.00144961
0.00155781
0.000657521
0.000697596
0.000765463
0.000860116
0.000958159
0.00107264
0.0011754
0.00129177
0.00138948
0.0014915
0.000713679
0.000746448
0.00080304
0.000884269
0.000970735
0.00107194
0.00116478
0.00126688
0.00135505
0.00144561
0.000764369
0.000790442
0.0008362
0.00090272
0.000975658
0.00106194
0.00114445
0.00123545
0.00131677
0.00139985
0.000817274
0.000838709
0.000877138
0.000933053
0.000996133
0.0010699
0.00114264
0.00122097
0.00129391
0.00136699
0.000859844
0.000877061
0.00090864
0.000954545
0.00100816
0.00107074
0.00113485
0.00120345
0.00126874
0.00133457
0.000903579
0.000917752
0.000944175
0.000982381
0.00102791
0.00108067
0.00113599
0.00119433
0.00125235
0.00130725
0.000935434
0.000946997
0.000968856
0.00100055
0.00103901
0.00108388
0.00113169
0.00118241
0.00123368
0.00128282
0.000964917
0.00097446
0.000992767
0.0010191
0.00105162
0.00108927
0.00113015
0.00117326
0.00121723
0.00126046
0.000981828
0.000989742
0.00100507
0.00102715
0.00105479
0.00108685
0.00112224
0.00115925
0.00119807
0.00123492
0.000990911
0.000997606
0.00101075
0.00102957
0.00105346
0.00108115
0.00111197
0.00114453
0.00117823
0.00121152
0.000986321
0.000992138
0.00100367
0.00102018
0.00104143
0.00106612
0.00109397
0.00112343
0.00115434
0.00118469
0.000965947
0.000971362
0.000982271
0.000997838
0.00101835
0.00104211
0.00106979
0.00109875
0.00113041
0.00116066
0.000929923
0.000935381
0.000946475
0.000962385
0.000983689
0.00100854
0.00103813
0.00106921
0.001104
0.00113741
0.00225316
0.00223257
0.00227774
0.00228631
0.00232071
0.00233303
0.00235082
0.00236013
0.00236713
0.00237031
0.00237332
0.00237409
0.00237736
0.00238081
0.00239042
0.0024033
0.00242723
0.00245811
0.0025064
0.00256563
0.00209824
0.00213599
0.00217521
0.00219736
0.00221812
0.00223899
0.00225187
0.00226905
0.00228364
0.00229365
0.00230628
0.00231926
0.00233505
0.00235377
0.00237773
0.00240657
0.00244438
0.00248897
0.00254725
0.00261415
0.00199886
0.00202392
0.00205538
0.00208082
0.00210227
0.00212067
0.00214321
0.00216853
0.00218191
0.00219881
0.00222242
0.00224278
0.00226986
0.00229646
0.00233122
0.00236784
0.00241501
0.00246609
0.00253084
0.00260125
0.00187732
0.00191608
0.00195416
0.00198025
0.00201305
0.00203509
0.00206595
0.00208434
0.00210854
0.00213279
0.00216017
0.00218567
0.00221761
0.00224839
0.00228753
0.00232702
0.00237663
0.00242819
0.00249195
0.0025592
0.00178697
0.00182474
0.001857
0.00188682
0.00191621
0.00194259
0.00197088
0.0019964
0.00202438
0.00204997
0.00208039
0.00210861
0.00214297
0.00217609
0.00221649
0.00225683
0.00230573
0.00235574
0.0024158
0.00247814
0.00169477
0.00173432
0.00177016
0.00180255
0.00183616
0.00186481
0.00189662
0.00192355
0.00195392
0.00198171
0.0020129
0.00204257
0.00207641
0.00210957
0.00214789
0.0021864
0.00223117
0.00227694
0.00233042
0.00238533
0.00162662
0.00166376
0.00169729
0.00172998
0.00176128
0.0017911
0.00182103
0.00184926
0.00187876
0.00190666
0.00193687
0.00196575
0.0019979
0.00202909
0.00206451
0.00209934
0.00213949
0.00217932
0.00222571
0.00227251
0.00156012
0.00159536
0.00162978
0.00166247
0.0016945
0.00172441
0.00175466
0.00178268
0.00181182
0.00183897
0.00186787
0.00189513
0.00192471
0.00195315
0.00198425
0.00201515
0.00204835
0.00208342
0.00212207
0.00216033
0.0015094
0.00154174
0.00157395
0.00160502
0.00163468
0.00166336
0.00169113
0.00171796
0.00174442
0.00177005
0.00179578
0.00182097
0.00184656
0.00187216
0.00189823
0.00192513
0.00195238
0.0019791
0.00201086
0.00204223
0.00146078
0.0014901
0.00152149
0.00155059
0.00157927
0.00160624
0.00163264
0.00165771
0.0016823
0.0017058
0.00172904
0.00175135
0.0017738
0.00179531
0.00181767
0.00183869
0.00186202
0.00188265
0.00190538
0.00192864
0.00142228
0.00144975
0.00147727
0.00150411
0.00152984
0.00155443
0.00157822
0.00160079
0.00162274
0.00164347
0.00166378
0.00168288
0.0017018
0.00171948
0.00173731
0.00175383
0.00177094
0.00178664
0.00180348
0.00181934
0.00138408
0.00140831
0.00143609
0.00145894
0.00148328
0.00150517
0.00152689
0.00154715
0.00156668
0.001585
0.00160258
0.00161889
0.00163464
0.00164894
0.00166295
0.00167534
0.00168766
0.00169843
0.00170895
0.00171872
0.00135455
0.00138302
0.00139801
0.00141746
0.00144035
0.00145927
0.00147906
0.00149659
0.00151387
0.00152957
0.0015446
0.00155816
0.00157098
0.00158223
0.0015927
0.00160155
0.00160938
0.00161599
0.00162133
0.00162564
0.00132402
0.00134085
0.00136095
0.00138043
0.00139908
0.00141669
0.0014335
0.00144926
0.00146407
0.00147763
0.00149048
0.00150181
0.00151226
0.00152103
0.00152878
0.00153439
0.00153931
0.00154216
0.00154322
0.00154286
0.00129454
0.0013114
0.00132835
0.00134483
0.00136095
0.00137602
0.00139077
0.00140432
0.00141725
0.00142914
0.00144014
0.00144982
0.00145857
0.0014655
0.00147179
0.00147505
0.00147651
0.00147719
0.00147486
0.00147061
0.00126507
0.00127841
0.00129465
0.00130861
0.00132338
0.00133672
0.00134994
0.00136272
0.0013737
0.0013835
0.00139406
0.00140261
0.00141017
0.00141662
0.0014207
0.00142052
0.00142386
0.00142254
0.00141743
0.0014102
0.00123702
0.00124951
0.00126325
0.00127618
0.00128882
0.00130108
0.00131336
0.00132413
0.00133349
0.00134448
0.00135343
0.00136145
0.001368
0.00137405
0.00137722
0.00138066
0.00138098
0.00137872
0.00137282
0.00136463
0.00120792
0.0012197
0.00123251
0.00124468
0.00125653
0.00126799
0.00127978
0.00128953
0.00130055
0.00131072
0.00131876
0.00132685
0.00133363
0.00133941
0.00134389
0.0013463
0.00134736
0.00134571
0.00134053
0.00133221
0.00118432
0.00119651
0.00120962
0.00122215
0.00123243
0.00124571
0.00126066
0.00126911
0.00127948
0.00128903
0.0012974
0.00130572
0.00131224
0.00131863
0.00132296
0.00132678
0.00132832
0.00132845
0.00132568
0.00132045
0.00116331
0.00117751
0.00119233
0.00120651
0.00121865
0.00123653
0.0012511
0.00125909
0.00127224
0.00128109
0.00129108
0.00129861
0.00130602
0.00131148
0.00131641
0.00131954
0.00132202
0.0013228
0.00132278
0.00132095
0.00228155
0.00219851
0.00212025
0.00205416
0.00198822
0.00193111
0.00187092
0.00181668
0.00175709
0.00170082
0.00163736
0.00157473
0.00150302
0.00142979
0.0013451
0.00125673
0.00115358
0.00104479
0.000916439
0.000780955
0.00247937
0.00240772
0.00233214
0.00226414
0.00219281
0.00212828
0.00205906
0.00199526
0.0019256
0.00185947
0.00178634
0.00171458
0.00163446
0.00155349
0.00146237
0.0013683
0.00126166
0.00115055
0.00102391
0.000892493
0.0026792
0.0026253
0.00255571
0.00249324
0.00242155
0.00235648
0.00228309
0.00221526
0.00213953
0.00206767
0.00198804
0.00191018
0.00182439
0.00173822
0.0016436
0.00154683
0.00144089
0.00133226
0.00121434
0.00109484
0.00275352
0.0027282
0.00267129
0.00262647
0.00256371
0.00250992
0.00244193
0.00238048
0.0023076
0.00223883
0.00216079
0.00208442
0.00200038
0.00191586
0.0018248
0.00173188
0.00163349
0.00153371
0.00143071
0.0013282
0.00273581
0.00273922
0.00269958
0.00267672
0.00262897
0.00259281
0.00253775
0.00248999
0.00242827
0.00236998
0.00230181
0.00223382
0.00215919
0.00208257
0.00200191
0.00191866
0.00183407
0.00174879
0.00166643
0.00158625
0.00268051
0.00270571
0.00267848
0.00267341
0.0026374
0.00261543
0.00257183
0.0025353
0.00248523
0.00243676
0.00238096
0.00232313
0.00226225
0.00219765
0.00213303
0.00206506
0.00199996
0.00193442
0.00187594
0.00182018
0.00260994
0.00265143
0.00263589
0.00264653
0.00262612
0.00261831
0.00259208
0.00256782
0.0025345
0.00249675
0.00245602
0.0024083
0.00236126
0.00230748
0.00225695
0.00220208
0.00215338
0.00210497
0.00206755
0.00203511
0.00251709
0.00256733
0.00255987
0.00257321
0.0025633
0.0025569
0.00254396
0.00252442
0.00250655
0.00247835
0.00245457
0.00242067
0.0023918
0.0023553
0.00232465
0.00229035
0.00226423
0.0022399
0.00222825
0.00222337
0.00242829
0.00248427
0.00250563
0.00252332
0.00253803
0.00253474
0.00253693
0.00252089
0.00251121
0.00248772
0.00247011
0.00244342
0.00242224
0.00239628
0.00237661
0.00235628
0.00234475
0.00233725
0.00234315
0.00235791
0.00230879
0.00233929
0.00238202
0.00240133
0.00243583
0.00244662
0.00246604
0.00246773
0.00247291
0.00246567
0.00246026
0.00244731
0.00243684
0.00242326
0.00241493
0.00240799
0.00241116
0.00242098
0.00244809
0.00248784
)
;

boundaryField
{
    back
    {
        type            empty;
    }
    left
    {
        type            symmetry;
    }
    hole
    {
        type            calculated;
        value           nonuniform List<scalar> 
20
(
0.0101575
0.00986582
0.00856835
0.00611849
0.00387439
0.00285315
0.00243498
0.0019576
0.00146636
0.000947696
0.000468857
9.33499e-06
0.000443495
0.000840513
0.00118964
0.0014859
0.00172832
0.00191178
0.00203598
0.00209822
)
;
    }
    front
    {
        type            empty;
    }
    down
    {
        type            symmetry;
    }
    right
    {
        type            calculated;
        value           nonuniform List<scalar> 
30
(
0.000929978
0.000935372
0.000946297
0.000962049
0.000983074
0.00100777
0.00103706
0.00106809
0.00110268
0.00113626
0.00116213
0.0011766
0.0011918
0.00120594
0.00121973
0.00123447
0.00124877
0.00125881
0.00127141
0.00128078
0.00129077
0.0012984
0.00130589
0.00131133
0.00131631
0.00131942
0.001322
0.00132296
0.00132343
0.00132258
)
;
    }
    up
    {
        type            calculated;
        value           nonuniform List<scalar> 
30
(
0.00256629
0.00261475
0.00260205
0.00255994
0.00247877
0.00238579
0.00227283
0.00216033
0.00204209
0.00192877
0.00181925
0.00171857
0.00162548
0.00154265
0.00147052
0.00141014
0.00136439
0.00133215
0.00132039
0.00132097
0.000779605
0.000890652
0.00109278
0.00132628
0.00158479
0.00181916
0.00203449
0.002223
0.00235787
0.00248796
)
;
    }
}


// ************************************************************************* //
