/*--------------------------------*- C++ -*----------------------------------*\
| =========                 |                                                 |
| \\      /  F ield         | OpenFOAM: The Open Source CFD Toolbox           |
|  \\    /   O peration     | Version:  v2012                                 |
|   \\  /    A nd           | Website:  www.openfoam.com                      |
|    \\/     M anipulation  |                                                 |
\*---------------------------------------------------------------------------*/
FoamFile
{
    version     2.0;
    format      ascii;
    class       volSymmTensorField;
    location    "9";
    object      sigma;
}
// * * * * * * * * * * * * * * * * * * * * * * * * * * * * * * * * * * * * * //

dimensions      [1 -1 -2 0 0 0 0];


internalField   nonuniform List<symmTensor> 
1000
(
(2.88428e+08 -1.10839e+07 1.11914e-09 8.8867e+06 -9.22493e-09 1.40123e+08)
(2.99208e+08 -1.1497e+07 -1.17645e-08 1.98987e+07 -1.68786e-08 1.47628e+08)
(3.14786e+08 -1.12971e+07 -1.242e-08 3.58269e+07 1.76278e-08 1.57921e+08)
(3.2353e+08 -1.1119e+07 1.23912e-08 4.53181e+07 -1.94752e-11 1.59391e+08)
(3.35178e+08 -9.71519e+06 1.27204e-08 5.84908e+07 7.20855e-10 1.60103e+08)
(3.37891e+08 -7.79505e+06 3.27442e-09 6.36881e+07 1.20385e-08 1.51026e+08)
(3.41965e+08 -4.6129e+06 -1.36232e-08 7.2389e+07 -2.29769e-09 1.4023e+08)
(3.34253e+08 742105 -8.12372e-09 6.87698e+07 -1.45882e-08 1.22858e+08)
(3.02595e+08 5.79114e+06 -1.75972e-08 6.81592e+07 -1.41701e-08 1.11226e+08)
(2.71976e+08 8.65824e+06 3.04753e-09 5.91345e+07 7.28892e-09 9.93332e+07)
(2.85958e+08 -3.34417e+07 0 1.36733e+07 0 1.40344e+08)
(2.9553e+08 -3.38218e+07 1.23443e-08 2.37233e+07 -2.07827e-09 1.45199e+08)
(3.10692e+08 -3.27129e+07 -1.44153e-08 3.91258e+07 -1.4166e-08 1.51943e+08)
(3.17449e+08 -3.08227e+07 2.82115e-09 4.6435e+07 -2.80902e-08 1.48586e+08)
(3.2602e+08 -2.55881e+07 8.05348e-09 5.55788e+07 1.11519e-08 1.43568e+08)
(3.2579e+08 -1.88538e+07 3.34602e-08 5.62023e+07 2.81513e-08 1.32051e+08)
(3.25565e+08 -8.74975e+06 -1.41659e-08 5.7455e+07 -6.61979e-09 1.2146e+08)
(3.14958e+08 4.54525e+06 7.7021e-09 5.04441e+07 1.98276e-09 1.09621e+08)
(2.91025e+08 1.54624e+07 -2.61509e-08 4.84083e+07 -1.80472e-08 1.0183e+08)
(2.68285e+08 2.18535e+07 -5.03443e-09 4.07352e+07 -5.51995e-09 9.2706e+07)
(2.80255e+08 -5.51575e+07 1.56418e-08 2.27487e+07 -2.1976e-08 1.37724e+08)
(2.87021e+08 -5.30368e+07 1.28986e-08 2.85616e+07 -3.32099e-09 1.35219e+08)
(3.00992e+08 -4.98241e+07 3.91336e-08 4.23362e+07 1.64857e-08 1.3392e+08)
(3.02703e+08 -4.38685e+07 -1.51125e-08 4.23976e+07 -9.38236e-09 1.22989e+08)
(3.07063e+08 -3.26799e+07 2.68044e-09 4.35332e+07 -1.83834e-09 1.13988e+08)
(3.03538e+08 -1.9463e+07 6.89212e-08 3.59765e+07 3.18342e-08 1.04791e+08)
(2.99906e+08 -5.34086e+06 -1.03872e-09 3.13173e+07 1.05385e-08 9.93671e+07)
(2.89763e+08 7.98237e+06 -1.1048e-08 2.44549e+07 -1.56089e-09 9.42652e+07)
(2.77436e+08 1.85252e+07 6.58134e-14 2.24636e+07 3.86729e-14 8.997e+07)
(2.62782e+08 2.52894e+07 -1.87481e-08 1.75398e+07 -1.43124e-08 8.40966e+07)
(2.70299e+08 -7.43191e+07 -3.23179e-10 3.43448e+07 -3.05439e-10 1.25427e+08)
(2.71741e+08 -6.8297e+07 -3.28097e-08 3.10797e+07 -1.36701e-08 1.11197e+08)
(2.84662e+08 -6.02613e+07 1.69258e-08 4.02896e+07 9.32946e-09 1.04454e+08)
(2.82542e+08 -4.49731e+07 4.37044e-08 2.62421e+07 1.5551e-08 9.34503e+07)
(2.78651e+08 -2.95815e+07 -2.2165e-08 2.39667e+07 -2.9147e-09 9.07854e+07)
(2.76008e+08 -1.61973e+07 -1.45359e-09 1.28011e+07 -3.02072e-10 8.66428e+07)
(2.75594e+08 -4.79587e+06 2.97107e-08 1.17268e+07 1.52852e-08 8.61963e+07)
(2.71025e+08 5.60793e+06 -1.39616e-08 5.04717e+06 -1.10002e-08 8.28216e+07)
(2.64064e+08 1.48787e+07 -1.32504e-08 5.4246e+06 -1.07032e-08 8.08465e+07)
(2.54312e+08 2.18619e+07 -1.19242e-08 1.27264e+06 -1.01377e-08 7.66754e+07)
(2.54636e+08 -8.83736e+07 -4.03914e-09 4.38887e+07 2.86267e-09 1.01215e+08)
(2.54323e+08 -7.4367e+07 -3.07791e-08 2.88599e+07 -1.02482e-10 8.49549e+07)
(2.52203e+08 -5.66576e+07 -2.63978e-08 2.95084e+07 5.25086e-10 8.45134e+07)
(2.51173e+08 -4.00975e+07 -1.00323e-09 1.24621e+07 -3.3566e-11 7.90905e+07)
(2.55941e+08 -2.90565e+07 4.09327e-08 1.28411e+07 1.93779e-09 8.06345e+07)
(2.55522e+08 -1.79238e+07 2.18111e-09 2.92256e+06 -1.0539e-08 7.75333e+07)
(2.55688e+08 -8.07712e+06 1.20008e-09 2.64594e+06 1.02675e-08 7.75003e+07)
(2.5251e+08 1.69987e+06 -2.91088e-08 -4.10598e+06 -2.34855e-08 7.45213e+07)
(2.49117e+08 1.00898e+07 3.67432e-10 -4.10382e+06 7.59759e-11 7.35039e+07)
(2.43123e+08 1.69776e+07 -2.14102e-08 -8.15176e+06 -1.32625e-08 7.04914e+07)
(2.23948e+08 -9.12658e+07 2.86927e-08 4.34465e+07 -8.07516e-09 8.02183e+07)
(2.20368e+08 -6.82697e+07 5.02146e-13 2.98739e+07 -6.7696e-14 7.50727e+07)
(2.27802e+08 -5.44624e+07 3.98185e-08 2.26045e+07 2.70452e-08 7.51219e+07)
(2.29048e+08 -4.02666e+07 -3.37948e-08 1.16106e+07 -4.27254e-08 7.21977e+07)
(2.32354e+08 -2.96166e+07 0 7.66241e+06 0 7.2005e+07)
(2.33579e+08 -1.83512e+07 -5.92948e-10 -1.70761e+06 1.3745e-08 6.95613e+07)
(2.35368e+08 -9.68372e+06 5.85612e-08 -4.22542e+06 2.3509e-08 6.93427e+07)
(2.34646e+08 -1.18489e+06 2.74647e-08 -1.07479e+07 1.19564e-08 6.71693e+07)
(2.3406e+08 5.81743e+06 3.19368e-09 -1.1465e+07 1.15184e-08 6.67784e+07)
(2.30848e+08 1.18475e+07 -3.84268e-08 -1.53139e+07 -2.30813e-08 6.46603e+07)
(1.83522e+08 -8.56777e+07 -6.59506e-08 4.58888e+07 5.17466e-09 6.88233e+07)
(1.91095e+08 -6.63041e+07 -8.75538e-08 3.00947e+07 2.30701e-08 6.63569e+07)
(1.98134e+08 -5.1035e+07 7.98827e-09 1.85663e+07 -4.05107e-08 6.501e+07)
(2.03671e+08 -3.78395e+07 2.53551e-08 6.14199e+06 -2.46558e-08 6.2944e+07)
(2.09713e+08 -2.829e+07 -7.22953e-08 -436186 -1.78572e-08 6.27829e+07)
(2.13114e+08 -1.92601e+07 -3.22803e-08 -9.23227e+06 -9.55425e-09 6.11644e+07)
(2.16569e+08 -1.19456e+07 -4.46966e-08 -1.23844e+07 -2.20001e-08 6.12555e+07)
(2.17663e+08 -5.26411e+06 1.00464e-08 -1.81819e+07 -1.90927e-09 5.98443e+07)
(2.19006e+08 540815 1.91307e-08 -1.89279e+07 -3.80982e-09 6.00234e+07)
(2.1775e+08 5.42422e+06 2.59673e-08 -2.22765e+07 3.28461e-09 5.8642e+07)
(1.40064e+08 -7.50287e+07 -3.11491e-08 4.5531e+07 1.66061e-08 5.56784e+07)
(1.54908e+08 -5.87488e+07 -4.67184e-13 2.48909e+07 1.90996e-13 5.39398e+07)
(1.68754e+08 -4.64427e+07 2.66239e-08 1.15187e+07 -1.07959e-08 5.40818e+07)
(1.77632e+08 -3.65656e+07 7.58294e-08 -1.14961e+06 3.30438e-08 5.29448e+07)
(1.86252e+08 -2.84763e+07 1.38555e-09 -8.13703e+06 -5.45629e-10 5.34345e+07)
(1.91678e+08 -2.15756e+07 -1.38066e-08 -1.64244e+07 5.26054e-09 5.2576e+07)
(1.97067e+08 -1.55647e+07 2.88011e-08 -1.95522e+07 6.95153e-09 5.32544e+07)
(1.99757e+08 -1.04938e+07 -9.16476e-09 -2.48096e+07 3.49316e-09 5.24843e+07)
(2.02979e+08 -5.84361e+06 -2.25731e-08 -2.52058e+07 -7.52914e-09 5.33321e+07)
(2.03164e+08 -1.96841e+06 2.04683e-08 -2.83846e+07 7.58042e-09 5.24338e+07)
(9.97774e+07 -6.01103e+07 -4.19143e-11 3.87249e+07 2.82266e-08 4.15507e+07)
(1.21567e+08 -4.98646e+07 -5.66169e-08 1.71061e+07 5.7599e-08 4.16018e+07)
(1.38469e+08 -4.15965e+07 -4.89592e-09 2.41077e+06 2.73994e-08 4.2264e+07)
(1.51375e+08 -3.4927e+07 7.24828e-08 -1.01026e+07 6.83362e-09 4.23816e+07)
(1.6189e+08 -2.93005e+07 3.18861e-08 -1.769e+07 4.68448e-09 4.326e+07)
(1.69653e+08 -2.4685e+07 -1.01762e-08 -2.50951e+07 2.67158e-08 4.33674e+07)
(1.76376e+08 -2.02674e+07 3.26902e-09 -2.83537e+07 1.85095e-08 4.44068e+07)
(1.8068e+08 -1.7012e+07 5.6381e-08 -3.26086e+07 6.77504e-09 4.44214e+07)
(1.85219e+08 -1.33689e+07 -5.81758e-09 -3.29105e+07 -1.53857e-08 4.56926e+07)
(1.86348e+08 -1.09465e+07 1.93935e-08 -3.53118e+07 2.42259e-08 4.53109e+07)
(6.36373e+07 -4.09885e+07 9.49552e-09 2.61089e+07 7.63003e-09 2.69239e+07)
(8.93456e+07 -3.77622e+07 2.21506e-08 5.61673e+06 -1.65189e-08 2.84887e+07)
(1.09706e+08 -3.47183e+07 -1.73833e-08 -8.22614e+06 -1.42899e-08 3.04438e+07)
(1.24884e+08 -3.19999e+07 -1.70168e-09 -1.9278e+07 -2.4494e-08 3.16817e+07)
(1.37723e+08 -2.92951e+07 -2.77135e-09 -2.62343e+07 -2.25701e-08 3.34467e+07)
(1.46746e+08 -2.6946e+07 -1.1573e-08 -3.19432e+07 8.6338e-09 3.44407e+07)
(1.55541e+08 -2.45349e+07 -2.99278e-08 -3.49818e+07 -2.20422e-08 3.61676e+07)
(1.60528e+08 -2.24627e+07 -6.08186e-09 -3.74603e+07 -1.67064e-08 3.69203e+07)
(1.674e+08 -2.06281e+07 -3.40746e-08 -3.81538e+07 -1.36666e-08 3.87739e+07)
(1.69129e+08 -1.83089e+07 -1.07961e-08 -3.91175e+07 9.81844e-09 3.90034e+07)
(3.49025e+07 -2.2195e+07 5.89317e-10 8.72159e+06 -5.43329e-10 1.30872e+07)
(6.21686e+07 -2.55377e+07 -5.68613e-08 -8.45479e+06 -7.30679e-09 1.61142e+07)
(8.26019e+07 -2.82682e+07 1.74291e-08 -2.07175e+07 1.29116e-08 1.85653e+07)
(9.94921e+07 -2.90466e+07 1.16993e-08 -2.94774e+07 -3.88166e-08 2.10044e+07)
(1.12226e+08 -3.02527e+07 3.30606e-08 -3.55759e+07 2.18474e-08 2.2995e+07)
(1.2305e+08 -2.95136e+07 -2.55793e-08 -3.95593e+07 -7.89158e-10 2.50471e+07)
(1.31128e+08 -3.01621e+07 -1.48609e-08 -4.23104e+07 -9.70932e-09 2.66454e+07)
(1.38443e+08 -2.82281e+07 6.4114e-09 -4.36123e+07 -2.98971e-08 2.84492e+07)
(1.43436e+08 -2.902e+07 1.37292e-08 -4.46005e+07 8.20551e-09 2.96506e+07)
(1.50455e+08 -2.71556e+07 -7.14717e-09 -4.32244e+07 2.37511e-08 3.2169e+07)
(1.3005e+07 -2.99071e+06 3.83078e-08 -1.44761e+07 -4.85944e-08 -441319)
(3.99542e+07 -1.27993e+07 7.66628e-10 -2.70359e+07 -9.51138e-10 3.87549e+06)
(5.99028e+07 -2.04178e+07 -4.81826e-08 -3.54919e+07 -5.96788e-09 7.32325e+06)
(7.73349e+07 -2.49906e+07 -1.63794e-08 -4.14695e+07 -1.073e-08 1.07596e+07)
(8.9834e+07 -2.90075e+07 2.49132e-08 -4.4929e+07 -9.53827e-10 1.34715e+07)
(1.018e+08 -3.06247e+07 3.16026e-08 -4.73892e+07 -1.11179e-08 1.63233e+07)
(1.09421e+08 -3.27767e+07 2.65678e-10 -4.79595e+07 -3.26778e-10 1.84385e+07)
(1.18361e+08 -3.24947e+07 -1.87129e-08 -4.86957e+07 -1.15142e-09 2.08996e+07)
(1.22193e+08 -3.3674e+07 1.54768e-08 -4.73361e+07 2.91743e-08 2.2457e+07)
(1.31373e+08 -3.38475e+07 -1.52161e-08 -4.50699e+07 -8.5917e-09 2.5891e+07)
(-2.2116e+06 1.32474e+07 -6.72325e-09 -4.07646e+07 -8.27263e-09 -1.28929e+07)
(2.23317e+07 -1.45447e+06 2.79212e-08 -4.66234e+07 -8.1264e-09 -7.28751e+06)
(3.96935e+07 -1.3052e+07 -3.64993e-09 -5.03979e+07 -2.92394e-08 -3.21133e+06)
(5.65607e+07 -2.04909e+07 -2.37664e-08 -5.22503e+07 3.9882e-09 1.29312e+06)
(6.76942e+07 -2.68538e+07 -2.99254e-08 -5.28827e+07 1.4772e-08 4.44346e+06)
(8.00921e+07 -3.02766e+07 1.33114e-08 -5.2561e+07 9.06787e-09 8.25933e+06)
(8.6947e+07 -3.37094e+07 2.39442e-08 -5.13308e+07 -9.6515e-09 1.06849e+07)
(9.69153e+07 -3.48772e+07 2.9099e-08 -4.99301e+07 6.77714e-09 1.40956e+07)
(1.0032e+08 -3.65389e+07 -3.49393e-09 -4.72909e+07 6.45751e-09 1.59087e+07)
(1.10479e+08 -3.83681e+07 -1.40269e-08 -4.28008e+07 -5.10155e-10 2.03035e+07)
(-1.10322e+07 2.59238e+07 6.04185e-09 -6.94586e+07 7.92835e-09 -2.41472e+07)
(9.55725e+06 7.67053e+06 -1.41315e-08 -6.82876e+07 -1.09696e-08 -1.76191e+07)
(2.36612e+07 -6.52962e+06 2.14838e-08 -6.63982e+07 -6.22474e-09 -1.28211e+07)
(3.87507e+07 -1.63163e+07 1.35859e-08 -6.39868e+07 8.78378e-09 -7.57082e+06)
(4.80929e+07 -2.42016e+07 -5.74634e-09 -6.09761e+07 1.17625e-08 -3.86496e+06)
(5.98856e+07 -2.92844e+07 -3.74829e-08 -5.80226e+07 -2.20493e-08 558888)
(6.57326e+07 -3.34976e+07 8.01597e-09 -5.44104e+07 1.50894e-08 3.39666e+06)
(7.57192e+07 -3.60062e+07 1.11964e-08 -5.13117e+07 6.57307e-09 7.32227e+06)
(7.87067e+07 -3.79201e+07 -8.41818e-09 -4.73102e+07 -1.17044e-08 9.41895e+06)
(8.8808e+07 -4.07803e+07 -8.3955e-09 -4.15603e+07 -1.06487e-08 1.41743e+07)
(-1.49907e+07 3.3918e+07 1.03353e-08 -9.86276e+07 -5.11631e-08 -3.40855e+07)
(753700 1.40176e+07 5.41712e-09 -8.96224e+07 -1.94705e-08 -2.66606e+07)
(1.09213e+07 -1.30234e+06 7.24771e-09 -8.18762e+07 2.44084e-08 -2.12865e+07)
(2.35935e+07 -1.23604e+07 2.35036e-08 -7.46353e+07 1.62518e-08 -1.53125e+07)
(3.08899e+07 -2.08731e+07 1.88097e-08 -6.81054e+07 -1.48931e-08 -1.11646e+07)
(4.15301e+07 -2.70595e+07 8.40591e-09 -6.20564e+07 1.46017e-08 -6.15788e+06)
(4.64591e+07 -3.15179e+07 5.42446e-09 -5.63368e+07 2.1618e-08 -2.9633e+06)
(5.58659e+07 -3.50955e+07 5.06184e-09 -5.11702e+07 -2.0056e-08 1.4087e+06)
(5.87224e+07 -3.69459e+07 -9.43761e-09 -4.60034e+07 -4.92586e-09 3.8157e+06)
(6.80014e+07 -4.04207e+07 -4.98031e-09 -3.91684e+07 5.54273e-09 8.64989e+06)
(-1.51728e+07 3.68315e+07 -4.04155e-09 -1.26392e+08 1.7627e-08 -4.24696e+07)
(-4.7404e+06 1.71954e+07 6.27016e-09 -1.10093e+08 4.34164e-08 -3.44499e+07)
(1.51134e+06 2.2331e+06 7.9016e-09 -9.66633e+07 2.25239e-08 -2.85456e+07)
(1.12572e+07 -8.95955e+06 -7.72905e-11 -8.48905e+07 4.8284e-10 -2.209e+07)
(1.65766e+07 -1.73024e+07 -9.72375e-09 -7.49066e+07 -5.66604e-09 -1.7499e+07)
(2.55587e+07 -2.38224e+07 9.16658e-09 -6.59582e+07 6.2386e-09 -1.21198e+07)
(2.9743e+07 -2.81665e+07 -8.89998e-09 -5.82231e+07 -4.62669e-09 -8.54402e+06)
(3.80988e+07 -3.2191e+07 9.67627e-09 -5.11108e+07 -7.18077e-09 -3.9036e+06)
(4.1114e+07 -3.39481e+07 8.48211e-09 -4.49471e+07 -1.2767e-09 -1.14993e+06)
(4.92639e+07 -3.75025e+07 6.51898e-11 -3.72259e+07 4.21171e-09 3.61138e+06)
(-1.31934e+07 3.48188e+07 1.08253e-09 -1.51253e+08 -1.40519e-08 -4.93339e+07)
(-7.80301e+06 1.72654e+07 -1.58089e-08 -1.28139e+08 -1.87915e-08 -4.07826e+07)
(-5.22342e+06 4.03944e+06 -1.59216e-08 -1.09596e+08 -1.53485e-08 -3.44459e+07)
(1.63095e+06 -6.14061e+06 -8.10142e-09 -9.35363e+07 -2.54154e-08 -2.75716e+07)
(5.09493e+06 -1.34919e+07 -1.5141e-08 -8.05223e+07 -1.9211e-08 -2.26282e+07)
(1.23326e+07 -1.95887e+07 -1.48111e-08 -6.8795e+07 -3.00057e-09 -1.69387e+07)
(1.58219e+07 -2.33581e+07 7.09499e-09 -5.93334e+07 1.50225e-08 -1.30535e+07)
(2.29852e+07 -2.72628e+07 -7.16174e-09 -5.03613e+07 -8.04441e-09 -8.21283e+06)
(2.61301e+07 -2.87028e+07 6.01606e-09 -4.3334e+07 -1.26333e-09 -5.16116e+06)
(3.31258e+07 -3.19166e+07 -1.35231e-09 -3.49114e+07 8.22272e-10 -535675)
(-1.03198e+07 2.83846e+07 -2.98794e-09 -1.71391e+08 -2.3458e-08 -5.45134e+07)
(-9.26532e+06 1.45645e+07 5.36706e-09 -1.42827e+08 8.15992e-09 -4.56277e+07)
(-9.6893e+06 4.2123e+06 9.76812e-09 -1.20143e+08 2.328e-08 -3.89498e+07)
(-5.39026e+06 -3.89891e+06 -5.69791e-09 -1.00646e+08 -5.87781e-09 -3.18108e+07)
(-3.40458e+06 -9.66877e+06 9.95269e-09 -8.51711e+07 3.71216e-09 -2.65727e+07)
(2.23327e+06 -1.46095e+07 1.40506e-08 -7.11983e+07 2.25688e-08 -2.06895e+07)
(5.22895e+06 -1.75686e+07 1.13218e-08 -6.03465e+07 1.11339e-08 -1.65353e+07)
(1.126e+07 -2.08009e+07 -2.21343e-09 -4.98369e+07 -7.0643e-09 -1.15731e+07)
(1.46037e+07 -2.1924e+07 4.74196e-09 -4.2134e+07 2.46779e-09 -8.25911e+06)
(2.05617e+07 -2.44683e+07 0 -3.3148e+07 0 -3.77587e+06)
(-7.73145e+06 1.85059e+07 3.8814e-09 -1.85669e+08 1.86364e-08 -5.802e+07)
(-9.8178e+06 9.6685e+06 1.02104e-08 -1.53143e+08 1.32231e-08 -4.88881e+07)
(-1.24126e+07 3.10057e+06 -6.35356e-09 -1.2751e+08 -9.62917e-09 -4.19769e+07)
(-9.99567e+06 -2.11755e+06 -2.80339e-09 -1.05498e+08 -4.4542e-09 -3.46481e+07)
(-9.09227e+06 -5.76222e+06 7.59267e-09 -8.82903e+07 1.19814e-08 -2.92148e+07)
(-4.65479e+06 -8.96985e+06 1.95557e-09 -7.26698e+07 3.24266e-09 -2.31974e+07)
(-2.03702e+06 -1.08174e+07 -3.11165e-09 -6.0849e+07 -2.91793e-09 -1.88658e+07)
(3.13568e+06 -1.29383e+07 -3.13319e-09 -4.92206e+07 -4.1995e-09 -1.38255e+07)
(6.59646e+06 -1.36122e+07 -4.44917e-09 -4.10479e+07 -3.88042e-09 -1.03354e+07)
(1.18073e+07 -1.52339e+07 -1.30694e-09 -3.16884e+07 -1.05738e-09 -5.96434e+06)
(-6.22026e+06 6.4193e+06 -7.30335e-09 -1.93028e+08 -4.81827e-09 -5.97745e+07)
(-9.96227e+06 3.38296e+06 -9.44748e-09 -1.58484e+08 -2.903e-08 -5.05339e+07)
(-1.36725e+07 1.11929e+06 4.32875e-09 -1.31338e+08 -1.74439e-08 -4.35032e+07)
(-1.22532e+07 -683502 4.46683e-09 -1.08047e+08 6.92475e-09 -3.60899e+07)
(-1.1896e+07 -1.94988e+06 -3.6965e-09 -8.99467e+07 -5.56183e-09 -3.05528e+07)
(-8.10128e+06 -3.06553e+06 -1.13089e-10 -7.34837e+07 -5.86404e-09 -2.44755e+07)
(-5.6621e+06 -3.71641e+06 8.18108e-10 -6.11633e+07 -1.90565e-09 -2.00476e+07)
(-955000 -4.4591e+06 -4.78078e-09 -4.89527e+07 -3.63807e-09 -1.49723e+07)
(2.58317e+06 -4.70551e+06 -1.00067e-09 -4.05389e+07 -1.83109e-09 -1.13867e+07)
(7.39326e+06 -5.26576e+06 4.20231e-09 -3.09822e+07 1.18123e-09 -7.07668e+06)
(1.47421e+07 -5.37989e+06 2.47135e-09 -2.09885e+07 3.35893e-09 -1.87393e+06)
(1.88025e+07 -1.54764e+07 4.45279e-09 -2.20343e+07 2.37333e-09 -969531)
(2.69021e+07 -2.48842e+07 -1.40762e-09 -2.41407e+07 -8.19675e-10 828415)
(3.84451e+07 -3.23303e+07 1.59834e-09 -2.67053e+07 8.46015e-10 3.52197e+06)
(5.3421e+07 -3.79872e+07 2.60872e-09 -2.9934e+07 1.87678e-09 7.04611e+06)
(7.06759e+07 -4.07238e+07 1.29391e-08 -3.25602e+07 3.81644e-09 1.14347e+07)
(9.02701e+07 -4.11798e+07 -1.01542e-08 -3.55632e+07 -6.34184e-09 1.64121e+07)
(1.10779e+08 -3.84265e+07 -1.04207e-08 -3.69841e+07 -5.1272e-09 2.21385e+07)
(1.31149e+08 -3.43781e+07 -1.75711e-08 -3.94223e+07 -1.40374e-08 2.75181e+07)
(1.50968e+08 -2.86619e+07 3.15151e-08 -4.09205e+07 1.89155e-08 3.30143e+07)
(2.64702e+07 -5.11698e+06 -3.13625e-09 -7.9503e+06 -1.02977e-09 5.55598e+06)
(2.96891e+07 -1.46669e+07 8.61277e-11 -9.31275e+06 2.18379e-11 6.11291e+06)
(3.61042e+07 -2.38628e+07 -7.11465e-09 -1.19578e+07 -2.55254e-09 7.24393e+06)
(4.52281e+07 -3.12779e+07 -8.20528e-09 -1.55794e+07 -2.32788e-09 8.89461e+06)
(5.70298e+07 -3.76091e+07 1.30117e-08 -1.99385e+07 4.4853e-09 1.11274e+07)
(7.06017e+07 -4.11173e+07 7.58478e-09 -2.44261e+07 2.76422e-09 1.38527e+07)
(8.59903e+07 -4.33052e+07 -5.04003e-09 -2.8529e+07 -1.35472e-09 1.72384e+07)
(1.02321e+08 -4.15518e+07 0 -3.18843e+07 0 2.11311e+07)
(1.19833e+08 -3.85877e+07 9.35261e-09 -3.30678e+07 6.50882e-09 2.60295e+07)
(1.37092e+08 -3.16041e+07 8.17063e-10 -3.50071e+07 -3.05362e-09 3.06254e+07)
(3.58856e+07 -4.69734e+06 7.1357e-10 1.02159e+06 6.02112e-10 1.10721e+07)
(3.87371e+07 -1.34016e+07 5.43417e-09 -63830.7 1.61957e-09 1.1602e+07)
(4.44032e+07 -2.18851e+07 -3.40208e-09 -2.08287e+06 -9.53822e-10 1.26961e+07)
(5.26262e+07 -2.86937e+07 -1.31424e-08 -5.12302e+06 -3.66867e-09 1.4251e+07)
(6.32372e+07 -3.47059e+07 -2.00308e-09 -8.65776e+06 -7.4511e-10 1.63738e+07)
(7.58243e+07 -3.82419e+07 6.01066e-10 -1.31782e+07 -1.59404e-10 1.87938e+07)
(8.97732e+07 -4.09796e+07 -7.92447e-09 -1.72521e+07 -2.94028e-09 2.17563e+07)
(1.04802e+08 -4.09456e+07 -1.36706e-08 -2.26456e+07 -5.36472e-09 2.4647e+07)
(1.19414e+08 -4.0173e+07 1.50407e-08 -2.52746e+07 6.50425e-09 2.82419e+07)
(1.32904e+08 -3.68565e+07 3.11841e-08 -2.99155e+07 1.57426e-08 3.08965e+07)
(4.59762e+07 -4.4409e+06 -3.02152e-09 6.79808e+06 -1.10767e-09 1.58323e+07)
(4.81505e+07 -1.27051e+07 2.01343e-09 5.70423e+06 1.17868e-10 1.61564e+07)
(5.24117e+07 -2.08846e+07 9.8641e-09 3.87929e+06 1.96241e-09 1.68873e+07)
(5.86937e+07 -2.76449e+07 6.46981e-09 887460 1.41473e-09 1.78743e+07)
(6.67117e+07 -3.37553e+07 1.04728e-08 -2.02994e+06 2.78193e-09 1.94045e+07)
(7.6538e+07 -3.76639e+07 -9.72139e-09 -6.20951e+06 -2.98848e-09 2.10985e+07)
(8.76215e+07 -4.04521e+07 -2.51568e-08 -9.03042e+06 -8.12672e-09 2.35773e+07)
(1.00373e+08 -4.07809e+07 4.38166e-09 -1.38199e+07 1.6022e-09 2.59659e+07)
(1.1398e+08 -3.95989e+07 4.43905e-09 -1.57638e+07 1.6869e-09 2.9465e+07)
(1.27026e+08 -3.72075e+07 -4.88732e-09 -2.08035e+07 -2.10578e-09 3.18666e+07)
(5.43626e+07 -3.88797e+06 -6.00172e-10 1.24048e+07 -4.59228e-10 2.00302e+07)
(5.63645e+07 -1.11998e+07 -5.52815e-09 1.14454e+07 -6.30748e-10 2.0343e+07)
(6.02244e+07 -1.84122e+07 -4.8854e-09 9.95139e+06 -7.58553e-10 2.10527e+07)
(6.60154e+07 -2.46025e+07 2.56329e-09 7.16681e+06 1.86675e-10 2.19547e+07)
(7.32373e+07 -3.02548e+07 1.27914e-08 4.55666e+06 2.05824e-09 2.33382e+07)
(8.20961e+07 -3.45404e+07 9.25522e-09 295539 1.44152e-09 2.47175e+07)
(9.16792e+07 -3.78446e+07 1.00686e-08 -2.58648e+06 2.65016e-09 2.67278e+07)
(1.02331e+08 -3.97825e+07 -3.93073e-09 -7.46837e+06 -9.61593e-10 2.84587e+07)
(1.13332e+08 -3.99126e+07 8.31779e-09 -9.54325e+06 2.51324e-09 3.11366e+07)
(1.23753e+08 -3.89483e+07 4.9661e-09 -1.37998e+07 1.43693e-09 3.29861e+07)
(6.24223e+07 -3.65747e+06 0 1.5045e+07 0 2.32402e+07)
(6.39169e+07 -1.065e+07 -6.90038e-10 1.4233e+07 5.66379e-10 2.3445e+07)
(6.67869e+07 -1.74334e+07 -2.95042e-10 1.31015e+07 -6.57361e-10 2.39665e+07)
(7.11949e+07 -2.3412e+07 -1.26821e-08 1.08069e+07 -2.51649e-09 2.46006e+07)
(7.67866e+07 -2.86329e+07 1.45681e-10 8.90947e+06 -5.39522e-12 2.57088e+07)
(8.39011e+07 -3.27853e+07 -3.21342e-09 5.46446e+06 -2.08941e-10 2.68097e+07)
(9.20048e+07 -3.56362e+07 1.5569e-10 3.25504e+06 8.3047e-13 2.85779e+07)
(1.01336e+08 -3.76566e+07 3.48287e-09 -896888 5.62898e-10 3.01317e+07)
(1.11453e+08 -3.79463e+07 -1.89591e-08 -3.08333e+06 -5.7691e-09 3.25109e+07)
(1.21042e+08 -3.78894e+07 2.29955e-08 -7.09575e+06 7.66163e-09 3.4184e+07)
(6.99161e+07 -3.18606e+06 2.4125e-09 1.81841e+07 -1.53595e-11 2.64301e+07)
(7.12932e+07 -9.42956e+06 -2.80437e-09 1.74218e+07 -1.10686e-09 2.66145e+07)
(7.39143e+07 -1.5424e+07 6.08547e-10 1.63575e+07 -6.9646e-10 2.70816e+07)
(7.78838e+07 -2.10089e+07 2.99524e-09 1.41806e+07 8.04143e-10 2.76193e+07)
(8.28273e+07 -2.59048e+07 1.03977e-09 1.2325e+07 9.59341e-10 2.85457e+07)
(8.89106e+07 -3.02767e+07 -3.34914e-09 9.12085e+06 -5.66384e-11 2.94094e+07)
(9.57067e+07 -3.34029e+07 -8.83055e-09 6.96496e+06 -1.63995e-09 3.08015e+07)
(1.03294e+08 -3.60485e+07 6.38302e-09 3.40675e+06 1.78799e-09 3.20102e+07)
(1.11602e+08 -3.69017e+07 -3.4186e-09 1.37317e+06 -1.64765e-09 3.38926e+07)
(1.19616e+08 -3.74162e+07 -2.33166e-09 -1.915e+06 1.08651e-09 3.53104e+07)
(7.6329e+07 -2.95853e+06 4.83364e-10 1.94399e+07 5.66961e-10 2.87307e+07)
(7.7367e+07 -8.85913e+06 1.15803e-09 1.88408e+07 6.09112e-10 2.88623e+07)
(7.93832e+07 -1.43793e+07 -7.64224e-09 1.8037e+07 -4.72821e-10 2.92261e+07)
(8.24747e+07 -1.96098e+07 -8.53783e-09 1.63218e+07 -5.69568e-10 2.96389e+07)
(8.64929e+07 -2.40101e+07 6.19942e-10 1.48563e+07 9.98108e-10 3.04048e+07)
(9.15248e+07 -2.80654e+07 6.27402e-09 1.22614e+07 -1.10325e-10 3.11359e+07)
(9.74352e+07 -3.08695e+07 -8.3404e-09 1.03375e+07 -1.33914e-09 3.23318e+07)
(1.04073e+08 -3.34877e+07 -1.52762e-08 7.28815e+06 -3.24746e-09 3.34083e+07)
(1.11472e+08 -3.45519e+07 4.14112e-10 5.20931e+06 -1.05441e-11 3.50044e+07)
(1.18574e+08 -3.5537e+07 1.13728e-08 2.3022e+06 6.53346e-09 3.62628e+07)
(8.28857e+07 -2.61738e+06 -2.86863e-09 2.10221e+07 2.21762e-11 3.11723e+07)
(8.38061e+07 -7.95876e+06 2.90781e-09 2.04547e+07 -7.03598e-11 3.12782e+07)
(8.56022e+07 -1.29171e+07 1.93318e-09 1.9639e+07 7.14254e-10 3.15724e+07)
(8.8263e+07 -1.78076e+07 -1.60856e-10 1.80476e+07 1.00908e-11 3.18932e+07)
(9.17113e+07 -2.19507e+07 -1.63678e-08 1.65866e+07 -2.53186e-09 3.24894e+07)
(9.58646e+07 -2.59495e+07 7.0452e-09 1.42924e+07 -2.96242e-10 3.30471e+07)
(1.00766e+08 -2.88014e+07 9.10892e-09 1.24525e+07 2.53964e-09 3.39656e+07)
(1.0618e+08 -3.15001e+07 1.63316e-15 9.88336e+06 -2.43043e-17 3.48189e+07)
(1.12333e+08 -3.2782e+07 -1.54323e-09 7.92346e+06 1.59722e-09 3.60769e+07)
(1.18353e+08 -3.39519e+07 2.47551e-09 5.44092e+06 1.83666e-09 3.71381e+07)
(8.81132e+07 -2.40153e+06 2.64465e-09 2.16579e+07 -7.19833e-10 3.29313e+07)
(8.8824e+07 -7.35538e+06 3.23835e-09 2.12031e+07 -8.38161e-11 3.30081e+07)
(9.02602e+07 -1.18754e+07 2.98756e-09 2.0522e+07 -1.09442e-10 3.32347e+07)
(9.23853e+07 -1.63625e+07 9.05912e-09 1.92214e+07 5.26372e-10 3.3482e+07)
(9.52639e+07 -2.01015e+07 -6.74411e-09 1.79318e+07 -7.58111e-10 3.39587e+07)
(9.87434e+07 -2.37562e+07 -6.96973e-09 1.59798e+07 -2.18429e-09 3.4417e+07)
(1.02979e+08 -2.63862e+07 7.69248e-09 1.42381e+07 1.08893e-09 3.51652e+07)
(1.0765e+08 -2.8966e+07 3.65348e-09 1.19561e+07 -1.28539e-10 3.58819e+07)
(1.1299e+08 -3.03091e+07 1.30418e-08 1.00336e+07 1.47168e-09 3.6907e+07)
(1.18196e+08 -3.16547e+07 9.68884e-09 7.78521e+06 1.7808e-09 3.77942e+07)
(9.37041e+07 -2.15799e+06 3.26404e-09 2.2492e+07 -2.09957e-11 3.48588e+07)
(9.43017e+07 -6.6653e+06 3.28614e-09 2.20606e+07 -7.33432e-11 3.49087e+07)
(9.55246e+07 -1.07713e+07 3.32738e-09 2.13669e+07 -1.084e-10 3.50675e+07)
(9.72722e+07 -1.49228e+07 4.56212e-09 2.01597e+07 1.81463e-09 3.52296e+07)
(9.96633e+07 -1.8414e+07 3.71804e-09 1.88842e+07 -1.31146e-09 3.55643e+07)
(1.02465e+08 -2.18622e+07 -6.42408e-09 1.71299e+07 -2.2434e-09 3.58784e+07)
(1.05945e+08 -2.43988e+07 3.83528e-09 1.54498e+07 1.24646e-09 3.64185e+07)
(1.09726e+08 -2.68577e+07 -8.27075e-09 1.34308e+07 -1.20344e-09 3.69471e+07)
(1.14174e+08 -2.82352e+07 5.2827e-09 1.15557e+07 1.54655e-09 3.77189e+07)
(1.18549e+08 -2.9555e+07 -4.02418e-09 9.53063e+06 1.16836e-09 3.8424e+07)
(9.80459e+07 -1.95929e+06 -3.59169e-10 2.29841e+07 -8.32014e-10 3.6309e+07)
(9.85137e+07 -6.0671e+06 -3.30135e-09 2.26105e+07 6.23591e-11 3.63373e+07)
(9.95047e+07 -9.78486e+06 -2.08464e-09 2.19707e+07 9.91761e-10 3.64426e+07)
(1.00909e+08 -1.35417e+07 0 2.09055e+07 0 3.65443e+07)
(1.02898e+08 -1.67018e+07 9.20546e-10 1.96905e+07 -1.18698e-09 3.67764e+07)
(1.0522e+08 -1.98159e+07 1.61563e-10 1.80958e+07 -6.43972e-12 3.69948e+07)
(1.08156e+08 -2.21581e+07 7.18894e-09 1.64485e+07 2.52456e-09 3.73814e+07)
(1.11343e+08 -2.44223e+07 -3.92123e-09 1.45636e+07 1.85217e-10 3.7772e+07)
(1.15076e+08 -2.57472e+07 9.45141e-09 1.27091e+07 3.0927e-09 3.83356e+07)
(1.18779e+08 -2.7076e+07 5.74643e-09 1.07765e+07 -9.88487e-12 3.88666e+07)
(1.027e+08 -1.76835e+06 3.33428e-10 2.37267e+07 8.91823e-10 3.79279e+07)
(1.0307e+08 -5.48559e+06 4.35934e-09 2.33619e+07 8.64886e-10 3.79295e+07)
(1.03864e+08 -8.86158e+06 -1.41479e-09 2.27125e+07 -9.5215e-10 3.7973e+07)
(1.04963e+08 -1.22816e+07 3.787e-09 2.16825e+07 -1.05191e-10 3.79937e+07)
(1.06542e+08 -1.51896e+07 -2.58804e-09 2.04771e+07 -1.0873e-09 3.81058e+07)
(1.08349e+08 -1.80351e+07 -1.00755e-08 1.89462e+07 -9.08152e-10 3.81887e+07)
(1.107e+08 -2.0216e+07 6.62337e-09 1.73412e+07 2.59425e-09 3.84123e+07)
(1.13178e+08 -2.22851e+07 -4.01027e-09 1.55179e+07 -1.41892e-09 3.86088e+07)
(1.16282e+08 -2.35469e+07 -3.87154e-09 1.36995e+07 -1.56207e-09 3.89946e+07)
(1.19053e+08 -2.47748e+07 2.74223e-08 1.18357e+07 6.14209e-09 3.92665e+07)
(1.06295e+08 -1.57875e+06 -6.14025e-10 2.45099e+07 -1.86081e-09 3.92414e+07)
(1.06579e+08 -4.90326e+06 7.6846e-09 2.41607e+07 -5.16203e-11 3.9222e+07)
(1.07204e+08 -7.91466e+06 1.06487e-09 2.35209e+07 9.89535e-10 3.92175e+07)
(1.08064e+08 -1.09663e+07 -3.62945e-09 2.25235e+07 5.45862e-11 3.91764e+07)
(1.09326e+08 -1.35628e+07 4.36607e-09 2.13261e+07 2.25021e-09 3.91955e+07)
(1.10769e+08 -1.6103e+07 -7.71647e-09 1.98187e+07 1.52536e-10 3.91762e+07)
(1.12665e+08 -1.80702e+07 -3.66785e-09 1.82183e+07 8.2775e-11 3.92651e+07)
(1.14671e+08 -1.99144e+07 3.67078e-09 1.63936e+07 -9.58105e-11 3.93195e+07)
(1.1719e+08 -2.11136e+07 -7.52557e-09 1.4578e+07 -1.49062e-09 3.95305e+07)
(1.19537e+08 -2.21229e+07 -3.82998e-09 1.2652e+07 1.00933e-10 3.96568e+07)
(1.10044e+08 -1.40297e+06 -7.97086e-09 2.57387e+07 -9.59629e-10 4.07349e+07)
(1.10249e+08 -4.35655e+06 -1.06814e-08 2.53814e+07 9.68026e-10 4.06892e+07)
(1.10709e+08 -7.03923e+06 6.05362e-09 2.47048e+07 2.03239e-09 4.06241e+07)
(1.11329e+08 -9.7571e+06 -1.15711e-08 2.36901e+07 -1.32692e-11 4.05056e+07)
(1.12257e+08 -1.2078e+07 -3.86373e-09 2.24337e+07 -7.96461e-12 4.04073e+07)
(1.13307e+08 -1.43422e+07 3.86507e-09 2.09111e+07 1.45272e-12 4.02654e+07)
(1.1472e+08 -1.60911e+07 1.02405e-09 1.92369e+07 -1.35014e-09 4.01869e+07)
(1.16215e+08 -1.77305e+07 7.96905e-10 1.74027e+07 -1.46932e-09 4.00852e+07)
(1.18109e+08 -1.87493e+07 3.49103e-09 1.54957e+07 1.60647e-09 4.00814e+07)
(1.19957e+08 -1.96548e+07 3.62816e-09 1.35436e+07 1.73091e-09 4.005e+07)
(1.12911e+08 -1.20578e+06 -4.18631e-09 2.72906e+07 -9.59384e-10 4.20604e+07)
(1.13055e+08 -3.74552e+06 -5.91978e-09 2.69174e+07 -2.93409e-09 4.19917e+07)
(1.13387e+08 -6.05273e+06 5.21541e-09 2.62037e+07 1.08385e-09 4.18771e+07)
(1.13827e+08 -8.38986e+06 6.69152e-09 2.51398e+07 2.21345e-09 4.16899e+07)
(1.14505e+08 -1.03932e+07 -3.70245e-09 2.38131e+07 -2.29463e-09 4.14954e+07)
(1.15257e+08 -1.23396e+07 -5.16561e-10 2.22104e+07 -2.36719e-09 4.12403e+07)
(1.16302e+08 -1.38637e+07 -3.80069e-09 2.04449e+07 -1.17324e-10 4.10242e+07)
(1.17373e+08 -1.52577e+07 2.78605e-09 1.85132e+07 1.46704e-09 4.07659e+07)
(1.188e+08 -1.61628e+07 3.86011e-09 1.65073e+07 1.2534e-10 4.05921e+07)
(1.20102e+08 -1.68852e+07 1.56979e-08 1.44676e+07 2.76299e-09 4.0371e+07)
(1.15715e+08 -1.01333e+06 1.17668e-08 2.96336e+07 -8.07297e-10 4.36045e+07)
(1.15801e+08 -3.14854e+06 3.43258e-09 2.92259e+07 -8.3429e-10 4.35081e+07)
(1.16005e+08 -5.08983e+06 -3.99347e-09 2.84268e+07 -1.3866e-10 4.33296e+07)
(1.16272e+08 -7.05834e+06 5.37926e-09 2.72658e+07 1.21401e-09 4.30613e+07)
(1.16693e+08 -8.7454e+06 -7.5102e-11 2.57838e+07 -7.37569e-12 4.2743e+07)
(1.17162e+08 -1.03845e+07 -1.80837e-09 2.40356e+07 9.76168e-10 4.23594e+07)
(1.1782e+08 -1.1659e+07 -4.09358e-09 2.20727e+07 -2.94316e-10 4.19679e+07)
(1.1852e+08 -1.28211e+07 -7.68926e-09 1.99603e+07 -4.35024e-09 4.15441e+07)
(1.19429e+08 -1.35505e+07 -1.71323e-09 1.77584e+07 -2.89044e-09 4.11562e+07)
(1.20319e+08 -1.41194e+07 1.23876e-08 1.55063e+07 7.79415e-09 4.07477e+07)
(1.17742e+08 -775415 8.26465e-09 3.25681e+07 9.07683e-10 4.50929e+07)
(1.17787e+08 -2.40883e+06 4.55011e-09 3.21106e+07 9.75717e-10 4.49692e+07)
(1.17903e+08 -3.89699e+06 9.23382e-10 3.12106e+07 8.83483e-10 4.47339e+07)
(1.18044e+08 -5.40868e+06 1.21401e-09 2.99046e+07 9.4837e-10 4.43845e+07)
(1.18283e+08 -6.7082e+06 3.99313e-09 2.82338e+07 3.83894e-10 4.39551e+07)
(1.18533e+08 -7.97759e+06 -1.87202e-09 2.62632e+07 -1.15345e-09 4.3439e+07)
(1.18912e+08 -8.96171e+06 1.87384e-09 2.40512e+07 -7.88403e-10 4.28889e+07)
(1.19286e+08 -9.87385e+06 1.5492e-09 2.16723e+07 -9.09706e-10 4.22874e+07)
(1.19822e+08 -1.04194e+07 -3.79313e-09 1.91978e+07 -4.96681e-10 4.17061e+07)
(1.20289e+08 -1.08747e+07 -8.77844e-09 1.66833e+07 1.68585e-10 4.10917e+07)
(1.19397e+08 -524097 -8.04451e-09 3.68583e+07 -1.4242e-10 4.68766e+07)
(1.1941e+08 -1.63263e+06 8.55462e-09 3.63258e+07 1.10117e-09 4.67207e+07)
(1.1945e+08 -2.64047e+06 8.02609e-10 3.52588e+07 7.29269e-10 4.64126e+07)
(1.19493e+08 -3.67264e+06 8.00166e-09 3.37342e+07 9.26088e-10 4.59681e+07)
(1.1958e+08 -4.55565e+06 -3.9847e-09 3.17379e+07 -5.66071e-10 4.53952e+07)
(1.19665e+08 -5.43061e+06 9.60444e-09 2.94274e+07 2.32805e-09 4.47277e+07)