/*--------------------------------*- C++ -*----------------------------------*\
| =========                 |                                                 |
| \\      /  F ield         | OpenFOAM: The Open Source CFD Toolbox           |
|  \\    /   O peration     | Version:  v2012                                 |
|   \\  /    A nd           | Website:  www.openfoam.com                      |
|    \\/     M anipulation  |                                                 |
\*---------------------------------------------------------------------------*/
FoamFile
{
    version     2.0;
    format      ascii;
    class       volScalarField;
    location    "9";
    object      sigmaHyd;
}
// * * * * * * * * * * * * * * * * * * * * * * * * * * * * * * * * * * * * * //

dimensions      [1 -1 -2 0 0 0 0];


internalField   nonuniform List<scalar> 
1000
(
1.45813e+08
1.55578e+08
1.69511e+08
1.7608e+08
1.8459e+08
1.84202e+08
1.84861e+08
1.75294e+08
1.6066e+08
1.43481e+08
1.46658e+08
1.54817e+08
1.67254e+08
1.70823e+08
1.75056e+08
1.71348e+08
1.6816e+08
1.58341e+08
1.47088e+08
1.33909e+08
1.46909e+08
1.50267e+08
1.59083e+08
1.5603e+08
1.54862e+08
1.48102e+08
1.4353e+08
1.36161e+08
1.29957e+08
1.21473e+08
1.43357e+08
1.38006e+08
1.43135e+08
1.34078e+08
1.31135e+08
1.25151e+08
1.24506e+08
1.19631e+08
1.16778e+08
1.10753e+08
1.33247e+08
1.22713e+08
1.22075e+08
1.14242e+08
1.16472e+08
1.11992e+08
1.11945e+08
1.07642e+08
1.06172e+08
1.01821e+08
1.15871e+08
1.08438e+08
1.08509e+08
1.04286e+08
1.04007e+08
1.00477e+08
1.00162e+08
9.70223e+07
9.64577e+07
9.33982e+07
9.94114e+07
9.58489e+07
9.39033e+07
9.09191e+07
9.06865e+07
8.83486e+07
8.84801e+07
8.64418e+07
8.67005e+07
8.47051e+07
8.04244e+07
7.7913e+07
7.81182e+07
7.64759e+07
7.71831e+07
7.59431e+07
7.6923e+07
7.58107e+07
7.70352e+07
7.57378e+07
6.00176e+07
6.00915e+07
6.1048e+07
6.12179e+07
6.24867e+07
6.26418e+07
6.41432e+07
6.41643e+07
6.60004e+07
6.54491e+07
3.889e+07
4.11503e+07
4.39744e+07
4.57625e+07
4.83118e+07
4.97477e+07
5.22421e+07
5.33294e+07
5.60068e+07
5.63383e+07
1.89038e+07
2.3276e+07
2.68166e+07
3.03397e+07
3.32151e+07
3.61791e+07
3.84878e+07
4.10932e+07
4.28286e+07
4.64664e+07
-637460
5.59794e+06
1.0578e+07
1.55417e+07
1.94588e+07
2.35781e+07
2.66333e+07
3.01883e+07
3.24379e+07
3.73981e+07
-1.8623e+07
-1.05264e+07
-4.63858e+06
1.86784e+06
6.41833e+06
1.19302e+07
1.54337e+07
2.03603e+07
2.29792e+07
2.93273e+07
-3.48793e+07
-2.54498e+07
-1.85194e+07
-1.09356e+07
-5.58271e+06
807283
4.90628e+06
1.05766e+07
1.36052e+07
2.0474e+07
-4.92346e+07
-3.85098e+07
-3.07471e+07
-2.21181e+07
-1.61267e+07
-8.89472e+06
-4.28032e+06
2.03479e+06
5.51156e+06
1.24943e+07
-6.13449e+07
-4.9761e+07
-4.12325e+07
-3.19078e+07
-2.52763e+07
-1.75064e+07
-1.23414e+07
-5.63853e+06
-1.66101e+06
5.21643e+06
-7.126e+07
-5.89082e+07
-4.97552e+07
-3.98257e+07
-3.26852e+07
-2.4467e+07
-1.8855e+07
-1.1863e+07
-7.45501e+06
-773752
-7.87415e+07
-6.59067e+07
-5.62608e+07
-4.5949e+07
-3.83828e+07
-2.98848e+07
-2.38843e+07
-1.67167e+07
-1.19298e+07
-5.45404e+06
-8.38066e+07
-7.06162e+07
-6.06333e+07
-5.00472e+07
-4.21991e+07
-3.35073e+07
-2.72506e+07
-1.99701e+07
-1.49289e+07
-8.61515e+06
-8.63409e+07
-7.29934e+07
-6.2838e+07
-5.21299e+07
-4.41318e+07
-3.53535e+07
-2.89577e+07
-2.16266e+07
-1.64475e+07
-1.02219e+07
-2.70678e+06
-1.40043e+06
1.1966e+06
5.08728e+06
1.01777e+07
1.65168e+07
2.37063e+07
3.19778e+07
3.97483e+07
4.76874e+07
8.0253e+06
8.82977e+06
1.04634e+07
1.28478e+07
1.60729e+07
2.00094e+07
2.48999e+07
3.05228e+07
3.75981e+07
4.42367e+07
1.59931e+07
1.67584e+07
1.83388e+07
2.05847e+07
2.36511e+07
2.71466e+07
3.14258e+07
3.56012e+07
4.07938e+07
4.46283e+07
2.28688e+07
2.3337e+07
2.43928e+07
2.58185e+07
2.80288e+07
3.04757e+07
3.40561e+07
3.75063e+07
4.25605e+07
4.60296e+07
2.89325e+07
2.93843e+07
3.04095e+07
3.17123e+07
3.37107e+07
3.5703e+07
3.86068e+07
4.11071e+07
4.49751e+07
4.76465e+07
3.35691e+07
3.3865e+07
3.46183e+07
3.55341e+07
3.7135e+07
3.87251e+07
4.12792e+07
4.35236e+07
4.69603e+07
4.93768e+07
3.81768e+07
3.84432e+07
3.91178e+07
3.98946e+07
4.12327e+07
4.24803e+07
4.44911e+07
4.62369e+07
4.8956e+07
5.10039e+07
4.14999e+07
4.169e+07
4.22154e+07
4.28118e+07
4.3918e+07
4.4974e+07
4.67015e+07
4.82564e+07
5.0562e+07
5.23796e+07
4.50267e+07
4.51796e+07
4.56045e+07
4.60679e+07
4.69291e+07
4.77347e+07
4.90614e+07
5.02939e+07
5.21111e+07
5.3644e+07
4.75675e+07
4.76784e+07
4.80056e+07
4.83629e+07
4.90515e+07
4.97134e+07
5.07941e+07
5.18294e+07
5.331e+07
5.45917e+07
5.03517e+07
5.04236e+07
5.0653e+07
5.08872e+07
5.13706e+07
5.18243e+07
5.26045e+07
5.3368e+07
5.44828e+07
5.55013e+07
5.24464e+07
5.24872e+07
5.26394e+07
5.27862e+07
5.31215e+07
5.34369e+07
5.39954e+07
5.45596e+07
5.53736e+07
5.61407e+07
5.47848e+07
5.4787e+07
5.48499e+07
5.48798e+07
5.50417e+07
5.51614e+07
5.54844e+07
5.57682e+07
5.63255e+07
5.67183e+07
5.6682e+07
5.6654e+07
5.66475e+07
5.65881e+07
5.66157e+07
5.65878e+07
5.67163e+07
5.67948e+07
5.70997e+07
5.7282e+07
5.88393e+07
5.87733e+07
5.86792e+07
5.85081e+07
5.83661e+07
5.81611e+07
5.80478e+07
5.79008e+07
5.78953e+07
5.78501e+07
6.07539e+07
6.06546e+07
6.04891e+07
6.02188e+07
5.99379e+07
5.95693e+07
5.92571e+07
5.88841e+07
5.8633e+07
5.83136e+07
6.29843e+07
6.2845e+07
6.25872e+07
6.21996e+07
6.17399e+07
6.11858e+07
6.06203e+07
6.00081e+07
5.94479e+07
5.88578e+07
6.51342e+07
6.49556e+07
6.46157e+07
6.41109e+07
6.34907e+07
6.27452e+07
6.19506e+07
6.10818e+07
6.02421e+07
5.93546e+07
6.77106e+07
6.74854e+07
6.70404e+07
6.63984e+07
6.55709e+07
6.46066e+07
6.35096e+07
6.23602e+07
6.11332e+07
5.99446e+07
7.03503e+07
7.0078e+07
6.95345e+07
6.87496e+07
6.77232e+07
6.65188e+07
6.5125e+07
6.36477e+07
6.20441e+07
6.04774e+07
5.20261e+07
5.47993e+07
5.78318e+07
6.08086e+07
6.39735e+07
6.68038e+07
6.95099e+07
7.21755e+07
7.45382e+07
7.69858e+07
7.91819e+07
8.14958e+07
8.36153e+07
8.59054e+07
8.80625e+07
9.04615e+07
9.27864e+07
9.54434e+07
9.80734e+07
1.01148e+08
5.15885e+07
5.48299e+07
5.84386e+07
6.10381e+07
6.38614e+07
6.664e+07
6.91081e+07
7.18086e+07
7.43576e+07
7.67148e+07
7.91271e+07
8.15214e+07
8.39079e+07
8.63907e+07
8.88457e+07
9.14849e+07
9.4096e+07
9.69724e+07
9.98279e+07
1.03036e+08
4.96888e+07
5.29639e+07
5.57289e+07
5.92315e+07
6.14241e+07
6.45472e+07
6.68534e+07
7.01102e+07
7.20993e+07
7.48488e+07
7.7252e+07
7.99664e+07
8.24114e+07
8.51603e+07
8.77005e+07
9.05616e+07
9.32558e+07
9.63123e+07
9.9222e+07
1.0256e+08
5.02769e+07
5.3813e+07
5.60551e+07
5.9147e+07
6.14685e+07
6.42911e+07
6.66852e+07
6.92959e+07
7.14484e+07
7.42322e+07
7.64737e+07
7.91807e+07
8.15125e+07
8.42274e+07
8.66682e+07
8.94649e+07
9.20429e+07
9.499e+07
9.77382e+07
1.00903e+08
5.10345e+07
5.41903e+07
5.60397e+07
5.89164e+07
6.08296e+07
6.35797e+07
6.55471e+07
6.82209e+07
7.02256e+07
7.28084e+07
7.49087e+07
7.74582e+07
7.96484e+07
8.22159e+07
8.45021e+07
8.71361e+07
8.9531e+07
9.22782e+07
9.47966e+07
9.77023e+07
5.23151e+07
5.50526e+07
5.66898e+07
5.92205e+07
6.09649e+07
6.33821e+07
6.52026e+07
6.75449e+07
6.94151e+07
7.17277e+07
7.36529e+07
7.59576e+07
7.7943e+07
8.02673e+07
8.23194e+07
8.46923e+07
8.68191e+07
8.92688e+07
9.148e+07
9.4031e+07
5.34843e+07
5.57574e+07
5.71459e+07
5.93229e+07
6.08096e+07
6.29243e+07
6.44893e+07
6.65584e+07
6.81889e+07
7.02275e+07
7.19177e+07
7.39441e+07
7.56892e+07
7.77227e+07
7.95186e+07
8.15783e+07
8.34208e+07
8.55252e+07
8.7408e+07
8.95719e+07
5.45642e+07
5.64077e+07
5.76243e+07
5.9457e+07
6.07564e+07
6.25484e+07
6.3912e+07
6.56738e+07
6.70862e+07
6.88299e+07
7.02794e+07
7.2017e+07
7.3493e+07
7.52372e+07
7.67281e+07
7.84929e+07
7.9983e+07
8.17848e+07
8.33848e+07
8.5109e+07
5.54803e+07
5.69399e+07
5.79592e+07
5.94569e+07
6.05423e+07
6.20178e+07
6.31571e+07
6.46118e+07
6.57939e+07
6.72302e+07
6.84452e+07
6.98658e+07
7.1105e+07
7.2512e+07
7.37676e+07
7.51616e+07
7.64262e+07
7.7708e+07
7.90706e+07
8.04391e+07
5.61831e+07
5.72942e+07
5.81579e+07
5.93525e+07
6.0263e+07
6.1445e+07
6.23913e+07
6.35583e+07
6.45306e+07
6.56806e+07
6.66701e+07
6.78005e+07
6.87997e+07
6.99063e+07
7.09097e+07
7.19855e+07
7.29908e+07
7.40238e+07
7.48994e+07
7.60047e+07
5.67545e+07
5.76233e+07
5.82738e+07
5.92113e+07
5.99093e+07
6.08311e+07
6.15598e+07
6.2465e+07
6.32109e+07
6.4097e+07
6.48481e+07
6.5712e+07
6.64566e+07
6.72942e+07
6.802e+07
6.88268e+07
6.95206e+07
7.02914e+07
7.09379e+07
7.16647e+07
5.71626e+07
5.7743e+07
5.82898e+07
5.89534e+07
5.9509e+07
6.01734e+07
6.07341e+07
6.13892e+07
6.19488e+07
6.25859e+07
6.31366e+07
6.37482e+07
6.42805e+07
6.48591e+07
6.53616e+07
6.58999e+07
6.63592e+07
6.68509e+07
6.72493e+07
6.76883e+07
5.75284e+07
5.8351e+07
5.82609e+07
5.86863e+07
5.90973e+07
5.95328e+07
5.99275e+07
6.03584e+07
6.07367e+07
6.11515e+07
6.1509e+07
6.18972e+07
6.22257e+07
6.25778e+07
6.2866e+07
6.31733e+07
6.34068e+07
6.36615e+07
6.38304e+07
6.40182e+07
5.77663e+07
5.7983e+07
5.81857e+07
5.84763e+07
5.8684e+07
5.89608e+07
5.91653e+07
5.94225e+07
5.96167e+07
5.9844e+07
6.00228e+07
6.02146e+07
6.03651e+07
6.05111e+07
6.06226e+07
6.07079e+07
6.07718e+07
6.08025e+07
6.07877e+07
6.07455e+07
5.8049e+07
5.81401e+07
5.81726e+07
5.82936e+07
5.8341e+07
5.84442e+07
5.84928e+07
5.85774e+07
5.86137e+07
5.86778e+07
5.87047e+07
5.87268e+07
5.87321e+07
5.87023e+07
5.86767e+07
5.85783e+07
5.84297e+07
5.83261e+07
5.81134e+07
5.79139e+07
5.82827e+07
5.82109e+07
5.81334e+07
5.80997e+07
5.80119e+07
5.7984e+07
5.78784e+07
5.786e+07
5.77215e+07
5.76083e+07
5.75271e+07
5.74127e+07
5.72757e+07
5.71447e+07
5.69409e+07
5.66215e+07
5.64901e+07
5.6242e+07
5.58846e+07
5.55329e+07
5.8571e+07
5.83528e+07
5.81367e+07
5.7941e+07
5.77369e+07
5.75316e+07
5.73542e+07
5.71247e+07
5.68965e+07
5.67115e+07
5.65201e+07
5.62775e+07
5.60488e+07
5.57989e+07
5.55172e+07
5.52433e+07
5.49675e+07
5.4565e+07
5.41944e+07
5.37041e+07
5.88307e+07
5.84668e+07
5.81201e+07
5.77748e+07
5.74463e+07
5.70994e+07
5.68085e+07
5.64533e+07
5.61888e+07
5.59303e+07
5.55904e+07
5.53211e+07
5.5e+07
5.47126e+07
5.43911e+07
5.40649e+07
5.37196e+07
5.33451e+07
5.29205e+07
5.24527e+07
5.90744e+07
5.85802e+07
5.80173e+07
5.75667e+07
5.69646e+07
5.65915e+07
5.63125e+07
5.57465e+07
5.53955e+07
5.49612e+07
5.46242e+07
5.4262e+07
5.39578e+07
5.36497e+07
5.33788e+07
5.31057e+07
5.28549e+07
5.25834e+07
5.23132e+07
5.19873e+07
5.93029e+07
5.86299e+07
5.79153e+07
5.72864e+07
5.65324e+07
5.61497e+07
5.55687e+07
5.49431e+07
5.44483e+07
5.3997e+07
5.35659e+07
5.32302e+07
5.29011e+07
5.26699e+07
5.24512e+07
5.23182e+07
5.21974e+07
5.21403e+07
5.20735e+07
5.2021e+07
1.34245e+08
1.27366e+08
1.21651e+08
1.15494e+08
1.10136e+08
1.04465e+08
9.93552e+07
9.39949e+07
8.90306e+07
8.38419e+07
7.89302e+07
7.379e+07
6.88463e+07
6.36386e+07
5.85808e+07
5.31905e+07
4.79338e+07
4.2239e+07
3.66917e+07
3.05512e+07
1.26693e+08
1.21567e+08
1.16807e+08
1.11835e+08
1.07203e+08
1.02406e+08
9.78601e+07
9.31769e+07
8.86707e+07
8.4034e+07
7.95174e+07
7.48535e+07
7.02745e+07
6.5505e+07
6.08073e+07
5.58485e+07
5.09704e+07
4.57309e+07
4.06042e+07
3.4945e+07
1.16585e+08
1.1358e+08
1.10099e+08
1.06673e+08
1.03075e+08
9.95217e+07
9.58291e+07
9.2182e+07
8.84083e+07
8.46666e+07
8.08124e+07
7.69553e+07
7.30091e+07
6.90041e+07
6.4944e+07
6.07511e+07
5.65475e+07
5.21203e+07
4.77389e+07
4.29451e+07
1.07685e+08
1.06272e+08
1.03889e+08
1.01768e+08
9.91073e+07
9.67401e+07
9.38724e+07
9.12953e+07
8.82763e+07
8.55088e+07
8.23748e+07
7.94266e+07
7.61954e+07
7.30695e+07
6.97444e+07
6.64384e+07
6.30134e+07
5.95212e+07
5.59862e+07
5.21827e+07
9.97571e+07
9.97832e+07
9.81383e+07
9.72592e+07
9.53341e+07
9.41422e+07
9.20185e+07
9.05335e+07
8.827e+07
8.65195e+07
8.41548e+07
8.21711e+07
7.97294e+07
7.75473e+07
7.50448e+07
7.27003e+07
7.01508e+07
6.7682e+07
6.51017e+07
6.24121e+07
9.21311e+07
9.35372e+07
9.24791e+07
9.27121e+07
9.14088e+07
9.12325e+07
8.97687e+07
8.92191e+07
8.76568e+07
8.67927e+07
8.51729e+07
8.4061e+07
8.24102e+07
8.11159e+07
7.94531e+07
7.8038e+07
7.63806e+07
7.49044e+07
7.32733e+07
7.16637e+07
8.41342e+07
8.68932e+07
8.6407e+07
8.77576e+07
8.71553e+07
8.79845e+07
8.73037e+07
8.76633e+07
8.69136e+07
8.68859e+07
8.60763e+07
8.57581e+07
8.49078e+07
8.43982e+07
8.35392e+07
8.29355e+07
8.21123e+07
8.15122e+07
8.07823e+07
8.0171e+07
7.59801e+07
7.99376e+07
8.00374e+07
8.21587e+07
8.2195e+07
8.36232e+07
8.36461e+07
8.45784e+07
8.45942e+07
8.5194e+07
8.52038e+07
8.55991e+07
8.56164e+07
8.59128e+07
8.59694e+07
8.62632e+07
8.64074e+07
8.67943e+07
8.70871e+07
8.75849e+07
6.67874e+07
7.15932e+07
7.30947e+07
7.60252e+07
7.74235e+07
7.95296e+07
8.06783e+07
8.22069e+07
8.31121e+07
8.4258e+07
8.49986e+07
8.59273e+07
8.65903e+07
8.74348e+07
8.81057e+07
8.89795e+07
8.97427e+07
9.07544e+07
9.16988e+07
9.29166e+07
5.80451e+07
6.15813e+07
6.37734e+07
6.65334e+07
6.86773e+07
7.11596e+07
7.31666e+07
7.53604e+07
7.72118e+07
7.91616e+07
8.08722e+07
8.26793e+07
8.4321e+07
8.60958e+07
8.77672e+07
8.96305e+07
9.14438e+07
9.35265e+07
9.56013e+07
9.803e+07
)
;

boundaryField
{
    back
    {
        type            empty;
    }
    left
    {
        type            symmetry;
    }
    hole
    {
        type            zeroGradient;
    }
    front
    {
        type            empty;
    }
    down
    {
        type            symmetry;
    }
    right
    {
        type            zeroGradient;
    }
    up
    {
        type            zeroGradient;
    }
}


// ************************************************************************* //
