/*--------------------------------*- C++ -*----------------------------------*\
| =========                 |                                                 |
| \\      /  F ield         | OpenFOAM: The Open Source CFD Toolbox           |
|  \\    /   O peration     | Version:  v2012                                 |
|   \\  /    A nd           | Website:  www.openfoam.com                      |
|    \\/     M anipulation  |                                                 |
\*---------------------------------------------------------------------------*/
FoamFile
{
    version     2.0;
    format      ascii;
    class       volVectorField;
    location    "9";
    object      D_0;
}
// * * * * * * * * * * * * * * * * * * * * * * * * * * * * * * * * * * * * * //

dimensions      [0 1 0 0 0 0 0];


internalField   nonuniform List<vector> 
2000
(
(0.000205379 -0.00176633 0)
(0.000333233 -0.00179529 0)
(0.000172572 -0.00193865 0)
(0.000278657 -0.0019742 0)
(0.000150574 -0.00207907 0)
(0.000243732 -0.00211069 0)
(0.000132987 -0.00219032 0)
(0.000215425 -0.00221211 0)
(0.000116355 -0.00227289 0)
(0.0001889 -0.0022833 0)
(9.91196e-05 -0.00232932 0)
(0.0001635 -0.00232907 0)
(8.14125e-05 -0.00236321 0)
(0.000140182 -0.00235365 0)
(6.56897e-05 -0.002381 0)
(0.000124188 -0.00237155 0)
(5.69594e-05 -0.00239543 0)
(0.000114665 -0.00238735 0)
(5.26436e-05 -0.00240862 0)
(0.000108077 -0.00240143 0)
(0.000528566 -0.00180606 0)
(0.000626741 -0.00186368 0)
(0.00050881 -0.00194544 0)
(0.000600927 -0.00198944 0)
(0.000482181 -0.0020641 0)
(0.000563022 -0.00209081 0)
(0.000448421 -0.00215695 0)
(0.000516223 -0.00216277 0)
(0.000406765 -0.0022215 0)
(0.000463666 -0.0022086 0)
(0.000359902 -0.0022624 0)
(0.000410047 -0.00223614 0)
(0.000313389 -0.00228657 0)
(0.000363797 -0.00225555 0)
(0.000277854 -0.00230499 0)
(0.000330908 -0.00227488 0)
(0.000253824 -0.00232165 0)
(0.000308051 -0.00229228 0)
(0.000237298 -0.00233731 0)
(0.000291201 -0.00230754 0)
(0.000909508 -0.00182258 0)
(0.00100305 -0.00186729 0)
(0.000859529 -0.00194731 0)
(0.000934069 -0.00197085 0)
(0.000802931 -0.00203678 0)
(0.000860975 -0.00203374 0)
(0.000735875 -0.00209247 0)
(0.000781854 -0.00206516 0)
(0.000661874 -0.00212269 0)
(0.000703657 -0.00208203 0)
(0.000591719 -0.00214076 0)
(0.000636367 -0.00209676 0)
(0.000535078 -0.00215803 0)
(0.000584061 -0.00211373 0)
(0.000492079 -0.00217484 0)
(0.000544198 -0.00213055 0)
(0.000459478 -0.00219105 0)
(0.000513617 -0.00214633 0)
(0.000434179 -0.00220667 0)
(0.000489437 -0.00216058 0)
(0.00123499 -0.00184568 0)
(0.0012985 -0.00186061 0)
(0.00115506 -0.00192048 0)
(0.00120075 -0.00190386 0)
(0.00106322 -0.00195573 0)
(0.00109856 -0.00191458 0)
(0.000968476 -0.00196743 0)
(0.00100476 -0.00191881 0)
(0.000884876 -0.0019777 0)
(0.000925967 -0.00192685 0)
(0.000815625 -0.00198883 0)
(0.000861448 -0.00193671 0)
(0.000758744 -0.00200085 0)
(0.000808634 -0.00194754 0)
(0.000712378 -0.0020132 0)
(0.000765541 -0.00195874 0)
(0.000674591 -0.00202553 0)
(0.000730285 -0.00196974 0)
(0.000643333 -0.00203752 0)
(0.000701044 -0.00197992 0)
(0.00149999 -0.00181101 0)
(0.0015359 -0.001779 0)
(0.00138696 -0.00181942 0)
(0.00141731 -0.00177117 0)
(0.00127978 -0.00181777 0)
(0.00131367 -0.00176598 0)
(0.00118806 -0.00181782 0)
(0.00122638 -0.0017632 0)
(0.00110934 -0.00181977 0)
(0.00115236 -0.00176256 0)
(0.00104208 -0.00182325 0)
(0.00108964 -0.00176403 0)
(0.000985104 -0.00182795 0)
(0.00103671 -0.00176711 0)
(0.000937097 -0.00183349 0)
(0.000992162 -0.00177121 0)
(0.000896623 -0.00183948 0)
(0.00095459 -0.00177575 0)
(0.00086211 -0.0018455 0)
(0.000922654 -0.00178012 0)
(0.00171588 -0.00170152 0)
(0.00174353 -0.00165181 0)
(0.00159995 -0.00168481 0)
(0.00163125 -0.00163197 0)
(0.00149853 -0.00167214 0)
(0.00153413 -0.00161469 0)
(0.00141054 -0.00166216 0)
(0.00145092 -0.00160108 0)
(0.00133462 -0.00165454 0)
(0.00137981 -0.001591 0)
(0.00126929 -0.00164911 0)
(0.00131905 -0.00158381 0)
(0.00121328 -0.0016455 0)
(0.00126715 -0.00157881 0)
(0.00116536 -0.00164329 0)
(0.00122283 -0.00157537 0)
(0.00112427 -0.00164205 0)
(0.00118489 -0.00157297 0)
(0.00108872 -0.00164131 0)
(0.00115228 -0.00157105 0)
(0.0019323 -0.00157597 0)
(0.00196151 -0.00151821 0)
(0.00181597 -0.00154655 0)
(0.00184887 -0.00148531 0)
(0.00171708 -0.00152219 0)
(0.00175477 -0.00145764 0)
(0.00163264 -0.00150153 0)
(0.00167539 -0.00143455 0)
(0.00156008 -0.00148419 0)
(0.00160775 -0.00141557 0)
(0.00149755 -0.00146983 0)
(0.0015498 -0.00140005 0)
(0.00144369 -0.00145799 0)
(0.00150007 -0.00138729 0)
(0.00139729 -0.00144815 0)
(0.00145735 -0.00137667 0)
(0.00135718 -0.00143983 0)
(0.00142057 -0.00136766 0)
(0.00132223 -0.00143248 0)
(0.00138882 -0.00135971 0)
(0.00214514 -0.00144876 0)
(0.00217516 -0.00138545 0)
(0.00203161 -0.00140599 0)
(0.00206628 -0.00133855 0)
(0.00193607 -0.00136989 0)
(0.00197609 -0.00129964 0)
(0.00185525 -0.00133881 0)
(0.00190058 -0.00126711 0)
(0.0017863 -0.00131215 0)
(0.00183663 -0.00123978 0)
(0.00172717 -0.00128936 0)
(0.00178205 -0.00121662 0)
(0.00167634 -0.00126978 0)
(0.00173526 -0.00119679 0)
(0.00163256 -0.00125282 0)
(0.00169509 -0.00117966 0)
(0.00159475 -0.00123799 0)
(0.0016606 -0.00116473 0)
(0.0015618 -0.00122481 0)
(0.00163097 -0.0011515 0)
(0.00234968 -0.00132047 0)
(0.00238068 -0.00125291 0)
(0.00224222 -0.00126496 0)
(0.00227878 -0.00119343 0)
(0.00215225 -0.00121799 0)
(0.00219456 -0.00114436 0)
(0.00207643 -0.00117752 0)
(0.00212418 -0.0011033 0)
(0.00201205 -0.0011426 0)
(0.0020648 -0.00106853 0)
(0.00195712 -0.00111243 0)
(0.00201438 -0.00103864 0)
(0.00191001 -0.00108618 0)
(0.00197138 -0.00101249 0)
(0.0018693 -0.00106306 0)
(0.00193443 -0.000989186 0)
(0.0018338 -0.0010422 0)
(0.00190249 -0.000968241 0)
(0.00180281 -0.0010227 0)
(0.0018752 -0.00094966 0)
(0.00254274 -0.00119259 0)
(0.0025747 -0.00112261 0)
(0.00244461 -0.00112631 0)
(0.00248293 -0.00105284 0)
(0.00236239 -0.00107021 0)
(0.00240672 -0.000995371 0)
(0.002293 -0.00102195 0)
(0.00234273 -0.000947246 0)
(0.00223408 -0.000980202 0)
(0.00228857 -0.000906378 0)
(0.00218403 -0.000943919 0)
(0.00224266 -0.000871236 0)
(0.00214167 -0.00091234 0)
(0.00220391 -0.000840664 0)
(0.00210596 -0.000885015 0)
(0.00217155 -0.000813716 0)
(0.0020759 -0.000861802 0)
(0.00214505 -0.00078958 0)
(0.00205027 -0.000842771 0)
(0.00212392 -0.000767513 0)
(0.00272179 -0.00106645 0)
(0.0027545 -0.000995879 0)
(0.0026358 -0.000992157 0)
(0.00267544 -0.00091895 0)
(0.0025635 -0.000929245 0)
(0.00260919 -0.000855536 0)
(0.00250222 -0.000875315 0)
(0.00255315 -0.000802385 0)
(0.00244996 -0.000828744 0)
(0.00250541 -0.00075709 0)
(0.00240535 -0.000788219 0)
(0.00246464 -0.000717895 0)
(0.00236752 -0.000752718 0)
(0.0024299 -0.000683531 0)
(0.00233638 -0.00072177 0)
(0.00240077 -0.000653179 0)
(0.0023127 -0.000696095 0)
(0.00237721 -0.000626798 0)
(0.00229664 -0.000678514 0)
(0.00235783 -0.000606288 0)
(0.00288511 -0.000942886 0)
(0.00291827 -0.000873364 0)
(0.00281318 -0.000863812 0)
(0.00285354 -0.000792723 0)
(0.00275238 -0.000796729 0)
(0.00279858 -0.000726117 0)
(0.00270059 -0.00073928 0)
(0.00275163 -0.000670234 0)
(0.00265642 -0.000689743 0)
(0.0027115 -0.000622607 0)
(0.00261892 -0.000646844 0)
(0.0026774 -0.000581428 0)
(0.00258741 -0.00060971 0)
(0.00264874 -0.00054521 0)
(0.0025615 -0.000577775 0)
(0.00262512 -0.000512575 0)
(0.00254098 -0.000550585 0)
(0.00260557 -0.000482828 0)
(0.00252455 -0.000527817 0)
(0.00258685 -0.000457776 0)
(0.00303128 -0.00082239 0)
(0.00306439 -0.000755426 0)
(0.0029745 -0.000742087 0)
(0.00301478 -0.000674677 0)
(0.00292612 -0.000673785 0)
(0.00297184 -0.000607749 0)
(0.00288452 -0.00061532 0)
(0.0029346 -0.000551434 0)
(0.00284884 -0.000564942 0)
(0.00290251 -0.000503299 0)
(0.00281856 -0.000521321 0)
(0.00287521 -0.000461551 0)
(0.00279337 -0.00048351 0)
(0.00285246 -0.00042471 0)
(0.00277317 -0.00045082 0)
(0.00283408 -0.00039148 0)
(0.00275766 -0.000422769 0)
(0.00281912 -0.000361338 0)
(0.00274508 -0.000399922 0)
(0.00280438 -0.00033566 0)
(0.00315902 -0.00070537 0)
(0.00319136 -0.000642288 0)
(0.00311761 -0.000627486 0)
(0.00315681 -0.00056499 0)
(0.0030818 -0.000560964 0)
(0.00312587 -0.000500594 0)
(0.0030505 -0.000503956 0)
(0.00309833 -0.0004462 0)
(0.00302342 -0.000454829 0)
(0.00307427 -0.000399578 0)
(0.00300046 -0.000412345 0)
(0.00305376 -0.000359088 0)
(0.00298154 -0.000375614 0)
(0.00303683 -0.000323383 0)
(0.00296666 -0.000343944 0)
(0.0030235 -0.000291281 0)
(0.00295555 -0.000316938 0)
(0.00301294 -0.000262242 0)
(0.00294663 -0.000295382 0)
(0.00300207 -0.000237446 0)
(0.00326749 -0.000592032 0)
(0.0032982 -0.000533879 0)
(0.00324088 -0.000519971 0)
(0.00327788 -0.000463341 0)
(0.00321718 -0.00045809 0)
(0.00325833 -0.000404186 0)
(0.0031958 -0.000404957 0)
(0.00324003 -0.000353984 0)
(0.00317698 -0.000359164 0)
(0.00322362 -0.000310837 0)
(0.00316096 -0.000319631 0)
(0.00320954 -0.000273353 0)
(0.0031479 -0.000285574 0)
(0.00319809 -0.000240359 0)
(0.00313792 -0.000256397 0)
(0.00318947 -0.000210766 0)
(0.00313083 -0.000231793 0)
(0.00318302 -0.000183987 0)
(0.00312513 -0.000212459 0)
(0.00317565 -0.00016092 0)
(0.0033564 -0.000482283 0)
(0.00338458 -0.000429756 0)
(0.00334324 -0.000418991 0)
(0.00337694 -0.000368823 0)
(0.00333061 -0.000364292 0)
(0.00336764 -0.000317301 0)
(0.00331832 -0.00031721 0)
(0.00335769 -0.000273319 0)
(0.00330703 -0.000276636 0)
(0.00334821 -0.000235395 0)
(0.0032973 -0.000241692 0)
(0.00333994 -0.000202438 0)
(0.00328948 -0.000211742 0)
(0.0033334 -0.000173479 0)
(0.00328383 -0.000186297 0)
(0.00332896 -0.00014755 0)
(0.00328025 -0.000165088 0)
(0.00332609 -0.000124035 0)
(0.00327728 -0.00014866 0)
(0.0033218 -0.000103492 0)
(0.00342585 -0.000375702 0)
(0.00345066 -0.000329194 0)
(0.00342415 -0.00032356 0)
(0.00345357 -0.000280118 0)
(0.00342102 -0.000278204 0)
(0.00345284 -0.000238195 0)
(0.00341653 -0.000239065 0)
(0.00344992 -0.000202122 0)
(0.0034117 -0.000205363 0)
(0.00344631 -0.000170906 0)
(0.00340736 -0.000176444 0)
(0.00344298 -0.000143794 0)
(0.00340403 -0.00015183 0)
(0.00344062 -0.000120024 0)
(0.00340203 -0.000131131 0)
(0.00343971 -9.87579e-05 0)
(0.00340135 -0.00011408 0)
(0.00343983 -7.93597e-05 0)
(0.00340062 -0.000101027 0)
(0.00343814 -6.20269e-05 0)
(0.00347617 -0.000271452 0)
(0.00349673 -0.000231214 0)
(0.00348334 -0.000232559 0)
(0.00350755 -0.000195766 0)
(0.00348768 -0.000198403 0)
(0.00351328 -0.000164999 0)
(0.00348935 -0.000168803 0)
(0.00351579 -0.000138176 0)
(0.00348969 -0.000143297 0)
(0.0035168 -0.000114856 0)
(0.00348974 -0.000121501 0)
(0.0035174 -9.46362e-05 0)
(0.00349009 -0.000103154 0)
(0.00351839 -7.69946e-05 0)
(0.00349111 -8.79941e-05 0)
(0.00352032 -6.12672e-05 0)
(0.00349281 -7.57082e-05 0)
(0.00352286 -4.68121e-05 0)
(0.00349392 -6.63251e-05 0)
(0.00352339 -3.34124e-05 0)
(0.00350676 -0.000168204 0)
(0.00352179 -0.000134786 0)
(0.00352032 -0.000145096 0)
(0.0035379 -0.000114764 0)
(0.00353003 -0.000123669 0)
(0.00354833 -9.63219e-05 0)
(0.00353637 -0.000104657 0)
(0.00355505 -7.9632e-05 0)
(0.00354082 -8.81688e-05 0)
(0.0035597 -6.49161e-05 0)
(0.0035444 -7.4153e-05 0)
(0.00356336 -5.21349e-05 0)
(0.00354778 -6.25764e-05 0)
(0.00356687 -4.10856e-05 0)
(0.00355143 -5.33633e-05 0)
(0.0035709 -3.14458e-05 0)
(0.0035554 -4.62673e-05 0)
(0.00357525 -2.27982e-05 0)
(0.00355851 -4.1011e-05 0)
(0.00357777 -1.46055e-05 0)
(0.00351412 -6.64503e-05 0)
(0.00352229 -4.11891e-05 0)
(0.00353361 -5.91251e-05 0)
(0.00354372 -3.66902e-05 0)
(0.00354824 -5.09056e-05 0)
(0.0035587 -3.04235e-05 0)
(0.00355909 -4.33009e-05 0)
(0.0035692 -2.41365e-05 0)
(0.00356759 -3.68094e-05 0)
(0.00357701 -1.85525e-05 0)
(0.00357465 -3.15685e-05 0)
(0.00358332 -1.37752e-05 0)
(0.00358087 -2.75825e-05 0)
(0.00358906 -9.72144e-06 0)
(0.00358677 -2.46512e-05 0)
(0.00359491 -6.2361e-06 0)
(0.00359267 -2.21708e-05 0)
(0.00360073 -3.04676e-06 0)
(0.00359804 -1.92477e-05 0)
(0.00360477 3.34163e-07 0)
(0.00360897 -5.37474e-06 0)
(0.00361077 -4.48071e-06 0)
(0.00358328 -1.83287e-05 0)
(0.00357908 -1.57648e-05 0)
(0.00353117 -3.63088e-05 0)
(0.00352176 -3.34088e-05 0)
(0.00345075 -6.14864e-05 0)
(0.00343642 -5.87696e-05 0)
(0.00334115 -9.73997e-05 0)
(0.00332236 -9.48808e-05 0)
(0.00320291 -0.000147757 0)
(0.00318066 -0.000145255 0)
(0.00303784 -0.00021582 0)
(0.00301346 -0.000213076 0)
(0.00284873 -0.000304102 0)
(0.00282372 -0.000300717 0)
(0.0026403 -0.000414787 0)
(0.00261552 -0.000409756 0)
(0.00242064 -0.000556703 0)
(0.00239586 -0.000546594 0)
(0.00361875 -5.00627e-06 0)
(0.00361933 -5.892e-06 0)
(0.00359668 -1.70244e-05 0)
(0.00359267 -1.81539e-05 0)
(0.00354998 -3.22271e-05 0)
(0.00354176 -3.41197e-05 0)
(0.00347789 -5.2973e-05 0)
(0.00346612 -5.57022e-05 0)
(0.00338053 -8.16644e-05 0)
(0.00336591 -8.4946e-05 0)
(0.00325861 -0.000121308 0)
(0.00324181 -0.00012465 0)
(0.00311361 -0.000175248 0)
(0.00309536 -0.000178056 0)
(0.00294782 -0.000247236 0)
(0.00292894 -0.000248766 0)
(0.00276231 -0.000340523 0)
(0.00274415 -0.000339983 0)
(0.00255385 -0.000453286 0)
(0.00253788 -0.000450738 0)
(0.00363315 -3.93323e-06 0)
(0.00363672 -7.35941e-06 0)
(0.00361414 -1.45326e-05 0)
(0.00361359 -1.86671e-05 0)
(0.00357216 -2.71163e-05 0)
(0.00356812 -3.21332e-05 0)
(0.00350707 -4.39417e-05 0)
(0.00350017 -4.96708e-05 0)
(0.00341946 -6.69765e-05 0)
(0.00341042 -7.31095e-05 0)
(0.00331028 -9.85739e-05 0)
(0.00329973 -0.000104628 0)
(0.00318048 -0.00014151 0)
(0.00316902 -0.00014685 0)
(0.00303036 -0.000198327 0)
(0.00301859 -0.000202356 0)
(0.00285913 -0.000269923 0)
(0.00284768 -0.00027229 0)
(0.00266982 -0.000354981 0)
(0.00265893 -0.00035508 0)
(0.0036556 -2.3065e-06 0)
(0.00366238 -8.07878e-06 0)
(0.00363934 -1.11081e-05 0)
(0.00364219 -1.72075e-05 0)
(0.00360144 -2.1294e-05 0)
(0.00360108 -2.7997e-05 0)
(0.00354237 -3.4777e-05 0)
(0.00353944 -4.19408e-05 0)
(0.00346282 -5.32198e-05 0)
(0.003458 -6.0583e-05 0)
(0.00336356 -7.83693e-05 0)
(0.00335747 -8.55961e-05 0)
(0.00324508 -0.000111927 0)
(0.00323828 -0.000118662 0)
(0.00310776 -0.00015526 0)
(0.00310063 -0.000161186 0)
(0.00295337 -0.000209726 0)
(0.00294613 -0.000214283 0)
(0.00278603 -0.000277338 0)
(0.00277904 -0.000279625 0)
(0.00368497 -9.7034e-07 0)
(0.00369425 -8.1433e-06 0)
(0.00367103 -8.0748e-06 0)
(0.00367652 -1.52005e-05 0)
(0.00363672 -1.63462e-05 0)
(0.00363908 -2.37778e-05 0)
(0.00358285 -2.73421e-05 0)
(0.00358271 -3.50659e-05 0)
(0.00351015 -4.23138e-05 0)
(0.00350819 -5.02046e-05 0)
(0.00341932 -6.24511e-05 0)
(0.00341615 -7.03572e-05 0)
(0.00331111 -8.89057e-05 0)
(0.00330727 -9.66484e-05 0)
(0.00318679 -0.000122987 0)
(0.00318272 -0.000130239 0)
(0.00304869 -0.000166435 0)
(0.0030447 -0.000172578 0)
(0.00289958 -0.00022098 0)
(0.00289592 -0.000225177 0)
(0.00372003 -2.773e-07 0)
(0.00373132 -7.97352e-06 0)
(0.00370793 -6.24228e-06 0)
(0.00371558 -1.3793e-05 0)
(0.00367684 -1.32548e-05 0)
(0.00368141 -2.09882e-05 0)
(0.00362765 -2.25919e-05 0)
(0.00362976 -3.05773e-05 0)
(0.00356116 -3.5183e-05 0)
(0.00356147 -4.3412e-05 0)
(0.00347822 -5.19203e-05 0)
(0.00347737 -6.0343e-05 0)
(0.0033799 -7.37829e-05 0)
(0.0033785 -8.22559e-05 0)
(0.00326772 -0.000101928 0)
(0.00326631 -0.000110125 0)
(0.00314369 -0.000137593 0)
(0.00314261 -0.00014497 0)
(0.00301002 -0.000181865 0)
(0.00300941 -0.000187673 0)
(0.00376033 -1.33792e-07 0)
(0.0037734 -7.86713e-06 0)
(0.00374965 -5.68962e-06 0)
(0.00375925 -1.33648e-05 0)
(0.00372147 -1.21492e-05 0)
(0.00372809 -2.00411e-05 0)
(0.00367664 -2.05945e-05 0)
(0.00368087 -2.87923e-05 0)
(0.00361601 -3.17895e-05 0)
(0.0036185 -4.03229e-05 0)
(0.00354051 -4.64768e-05 0)
(0.00354195 -5.53166e-05 0)
(0.00345135 -6.54621e-05 0)
(0.00345236 -7.44734e-05 0)
(0.00335 -8.95906e-05 0)
(0.00335112 -9.84918e-05 0)
(0.00323826 -0.000119671 0)
(0.00323984 -0.000128009 0)
(0.00311811 -0.000156441 0)
(0.00312026 -0.000163593 0)
(0.00380579 -3.41975e-07 0)
(0.00382055 -7.94223e-06 0)
(0.00379625 -6.14471e-06 0)
(0.00380769 -1.38245e-05 0)
(0.00377069 -1.26962e-05 0)
(0.0037793 -2.06854e-05 0)
(0.00372991 -2.09297e-05 0)
(0.00373624 -2.93106e-05 0)
(0.00367474 -3.15189e-05 0)
(0.00367945 -4.03148e-05 0)
(0.00360617 -4.50977e-05 0)
(0.00360991 -5.42713e-05 0)
(0.00352535 -6.23083e-05 0)
(0.00352874 -7.17334e-05 0)
(0.00343372 -8.3764e-05 0)
(0.00343726 -9.32058e-05 0)
(0.00333292 -0.000110005 0)
(0.00333696 -0.000119103 0)
(0.00322471 -0.00014149 0)
(0.00322942 -0.000149747 0)
(0.00385632 -7.4824e-07 0)
(0.00387273 -8.19621e-06 0)
(0.00384775 -7.28016e-06 0)
(0.00386096 -1.49231e-05 0)
(0.00382455 -1.44247e-05 0)
(0.00383507 -2.2458e-05 0)
(0.00378748 -2.29877e-05 0)
(0.00379588 -3.1487e-05 0)
(0.00373735 -3.35717e-05 0)
(0.00374424 -4.25515e-05 0)
(0.00367511 -4.67218e-05 0)
(0.00368112 -5.61382e-05 0)
(0.0036019 -6.29604e-05 0)
(0.0036076 -7.26948e-05 0)
(0.00351905 -8.27643e-05 0)
(0.00352491 -9.26138e-05 0)
(0.00342805 -0.000106516 0)
(0.00343442 -0.000116192 0)
(0.00333046 -0.00013447 0)
(0.00333756 -0.000143599 0)
(0.00391178 -1.25104e-06 0)
(0.00392977 -8.57129e-06 0)
(0.00390404 -8.81295e-06 0)
(0.00391896 -1.6398e-05 0)
(0.00388298 -1.68801e-05 0)
(0.00389534 -2.48995e-05 0)
(0.00384928 -2.6151e-05 0)
(0.00385966 -3.46805e-05 0)
(0.00380374 -3.71679e-05 0)
(0.00381272 -4.62234e-05 0)
(0.00374726 -5.04027e-05 0)
(0.00375544 -5.99452e-05 0)
(0.00368093 -6.62785e-05 0)
(0.00368884 -7.62051e-05 0)
(0.003606 -8.5158e-05 0)
(0.00361409 -9.52946e-05 0)
(0.00352382 -0.000107322 0)
(0.00353244 -0.000117421 0)
(0.00343576 -0.000132941 0)
(0.00344513 -0.000142695 0)
(0.00397195 -1.77864e-06 0)
(0.00399143 -8.99422e-06 0)
(0.00396495 -1.05104e-05 0)
(0.00398147 -1.80111e-05 0)
(0.00394581 -1.96687e-05 0)
(0.0039599 -2.76063e-05 0)
(0.00391518 -2.98651e-05 0)
(0.00392741 -3.83225e-05 0)
(0.0038738 -4.1592e-05 0)
(0.00388473 -5.05951e-05 0)
(0.00382253 -5.52631e-05 0)
(0.00383273 -6.47844e-05 0)
(0.00376239 -7.12268e-05 0)
(0.00377237 -8.11846e-05 0)
(0.00369457 -8.97529e-05 0)
(0.00370477 -0.000100012 0)
(0.00362034 -0.000111027 0)
(0.00363109 -0.000121394 0)
(0.00354099 -0.000135188 0)
(0.00355254 -0.000145393 0)
(0.00403655 -2.27426e-06 0)
(0.00405741 -9.39062e-06 0)
(0.00403021 -1.21749e-05 0)
(0.00404821 -1.9547e-05 0)
(0.00401282 -2.245e-05 0)
(0.00402851 -3.02196e-05 0)
(0.00398497 -3.36447e-05 0)
(0.00399891 -4.19095e-05 0)
(0.00394735 -4.62114e-05 0)
(0.00396009 -5.50146e-05 0)
(0.00390077 -6.05142e-05 0)
(0.00391285 -6.98462e-05 0)
(0.00384623 -7.68472e-05 0)
(0.00385812 -8.66459e-05 0)
(0.00378482 -9.54395e-05 0)
(0.00379695 -0.000105591 0)
(0.00371773 -0.000116453 0)
(0.00373043 -0.000126796 0)
(0.00364611 -0.00013997 0)
(0.00365965 -0.000150301 0)
(0.00410523 -2.68893e-06 0)
(0.00412735 -9.68727e-06 0)
(0.00409951 -1.36299e-05 0)
(0.00411886 -2.08039e-05 0)
(0.00408373 -2.49193e-05 0)
(0.00410086 -3.24089e-05 0)
(0.00405841 -3.70541e-05 0)
(0.00407389 -4.49793e-05 0)
(0.00402419 -5.04581e-05 0)
(0.00403856 -5.88855e-05 0)
(0.00398185 -6.5461e-05 0)
(0.00399563 -7.44024e-05 0)
(0.00393233 -8.23155e-05 0)
(0.00394597 -9.17334e-05 0)
(0.00387668 -0.000101202 0)
(0.00389058 -0.000111015 0)
(0.00381599 -0.000122239 0)
(0.0038305 -0.000132318 0)
(0.00375136 -0.000145513 0)
(0.00376672 -0.000155677 0)
(0.00417761 -2.97712e-06 0)
(0.00420084 -9.81108e-06 0)
(0.00417249 -1.47099e-05 0)
(0.00419303 -2.15857e-05 0)
(0.0041582 -2.67916e-05 0)
(0.00417662 -3.38561e-05 0)
(0.0041352 -3.9687e-05 0)
(0.00415206 -4.70909e-05 0)
(0.00410407 -5.38e-05 0)
(0.0041199 -6.16391e-05 0)
(0.00406556 -6.94321e-05 0)
(0.00408084 -7.77423e-05 0)
(0.00402055 -8.68075e-05 0)
(0.00403573 -9.55735e-05 0)
(0.00397003 -0.000106083 0)
(0.00398552 -0.00011525 0)
(0.00391502 -0.000127323 0)
(0.00393115 -0.000136815 0)
(0.00385654 -0.000150481 0)
(0.00387359 -0.000160216 0)
(0.00425325 -3.09256e-06 0)
(0.00427744 -9.68766e-06 0)
(0.00424876 -1.52489e-05 0)
(0.0042703 -2.1693e-05 0)
(0.00423589 -2.77811e-05 0)
(0.0042554 -3.42394e-05 0)
(0.00421504 -4.11367e-05 0)
(0.00423307 -4.77979e-05 0)
(0.00418672 -5.57122e-05 0)
(0.00420379 -6.27028e-05 0)
(0.00415164 -7.17868e-05 0)
(0.00416822 -7.91716e-05 0)
(0.00411066 -8.9547e-05 0)
(0.00412719 -9.73453e-05 0)
(0.00406476 -0.000109117 0)
(0.00408162 -0.000117306 0)
(0.00401492 -0.000130587 0)
(0.00403244 -0.000139098 0)
(0.00396216 -0.000154045 0)
(0.00398059 -0.00016275 0)
(0.00433165 -2.98015e-06 0)
(0.0043566 -9.23549e-06 0)
(0.00432783 -1.50626e-05 0)
(0.00435019 -2.09087e-05 0)
(0.00431636 -2.75777e-05 0)
(0.00433677 -3.32158e-05 0)
(0.00429751 -4.09705e-05 0)
(0.00431653 -4.66316e-05 0)
(0.00427178 -5.56397e-05 0)
(0.0042899 -6.14768e-05 0)
(0.00423983 -7.18541e-05 0)
(0.00425749 -7.79565e-05 0)
(0.00420248 -8.97848e-05 0)
(0.00422011 -9.62057e-05 0)
(0.00416067 -0.000109536 0)
(0.00417868 -0.000116295 0)
(0.00411539 -0.000131164 0)
(0.0041341 -0.00013823 0)
(0.00406756 -0.000154684 0)
(0.00408724 -0.000161965 0)
(0.00441219 -2.56382e-06 0)
(0.00443768 -8.34842e-06 0)
(0.00440914 -1.3924e-05 0)
(0.00443212 -1.89734e-05 0)
(0.00439905 -2.58309e-05 0)
(0.00442019 -3.04017e-05 0)
(0.00438214 -3.87286e-05 0)
(0.00440195 -4.30917e-05 0)
(0.00435884 -5.30063e-05 0)
(0.00437777 -5.73358e-05 0)
(0.00432976 -6.89217e-05 0)
(0.00434826 -7.33256e-05 0)
(0.00429569 -8.66481e-05 0)
(0.00431419 -9.12075e-05 0)
(0.00425751 -0.000106275 0)
(0.00427642 -0.000111066 0)
(0.00421618 -0.000127799 0)
(0.00423585 -0.000132879 0)
(0.00417271 -0.000151163 0)
(0.00419342 -0.000156515 0)
(0.00449406 -1.75577e-06 0)
(0.00451989 -6.88374e-06 0)
(0.00449185 -1.16072e-05 0)
(0.0045153 -1.56056e-05 0)
(0.00448323 -2.22139e-05 0)
(0.00450488 -2.54231e-05 0)
(0.00446824 -3.39486e-05 0)
(0.0044886 -3.6665e-05 0)
(0.00444723 -4.71687e-05 0)
(0.00446676 -4.95798e-05 0)
(0.00442081 -6.2133e-05 0)
(0.00443996 -6.43767e-05 0)
(0.00438974 -7.90358e-05 0)
(0.00440895 -8.12314e-05 0)
(0.00435489 -9.80117e-05 0)
(0.00437454 -0.000100263 0)
(0.0043171 -0.000119073 0)
(0.00433754 -0.000121499 0)
(0.00427735 -0.000142017 0)
(0.00429887 -0.000144806 0)
(0.00457603 -5.94358e-07 0)
(0.00460213 -4.82775e-06 0)
(0.00457483 -8.15538e-06 0)
(0.0045987 -1.07714e-05 0)
(0.00456782 -1.65218e-05 0)
(0.0045899 -1.80545e-05 0)
(0.00455474 -2.60467e-05 0)
(0.0045756 -2.67747e-05 0)
(0.0045359 -3.71607e-05 0)
(0.00455602 -3.72459e-05 0)
(0.00451195 -5.02087e-05 0)
(0.00453178 -4.98351e-05 0)
(0.00448369 -6.54105e-05 0)
(0.00450367 -6.47901e-05 0)
(0.00445199 -8.28926e-05 0)
(0.00447252 -8.22118e-05 0)
(0.00441777 -0.000102749 0)
(0.00443913 -0.000102103 0)
(0.0043819 -0.000125035 0)
(0.0044042 -0.000124458 0)
(0.00465634 2.19913e-07 0)
(0.00468317 -2.95612e-06 0)
(0.00465687 -3.95717e-06 0)
(0.00468184 -5.36917e-06 0)
(0.00465146 -8.29021e-06 0)
(0.00467493 -8.14435e-06 0)
(0.00464009 -1.38643e-05 0)
(0.00466243 -1.24093e-05 0)
(0.00462334 -2.13417e-05 0)
(0.00464496 -1.88375e-05 0)
(0.0046019 -3.11271e-05 0)
(0.00462321 -2.78355e-05 0)
(0.00457649 -4.35132e-05 0)
(0.00459789 -3.97066e-05 0)
(0.00454791 -5.86723e-05 0)
(0.00456982 -5.46475e-05 0)
(0.00451711 -7.66055e-05 0)
(0.00453993 -7.26542e-05 0)
(0.00448516 -9.70959e-05 0)
(0.00450904 -9.34624e-05 0)
(0.00222389 -0.000697628 0)
(0.00225668 -0.000643772 0)
(0.0021452 -0.000731043 0)
(0.00218114 -0.000681915 0)
(0.00207248 -0.000763783 0)
(0.0021104 -0.000716584 0)
(0.00200398 -0.000796282 0)
(0.00204333 -0.000749488 0)
(0.00193859 -0.000828607 0)
(0.00197914 -0.000781507 0)
(0.00187569 -0.000860737 0)
(0.00191734 -0.000813065 0)
(0.00181493 -0.0008926 0)
(0.00185759 -0.000844315 0)
(0.00175611 -0.000924111 0)
(0.00179966 -0.000875274 0)
(0.00169902 -0.000955196 0)
(0.00174336 -0.000905903 0)
(0.00164348 -0.000985799 0)
(0.0016885 -0.000936161 0)
(0.00158925 -0.00101589 0)
(0.00163486 -0.000966017 0)
(0.0015361 -0.00104547 0)
(0.00158221 -0.000995466 0)
(0.00148374 -0.00107456 0)
(0.00153031 -0.00102453 0)
(0.00143189 -0.0011032 0)
(0.00147891 -0.00105326 0)
(0.00138025 -0.00113147 0)
(0.00142776 -0.00108175 0)
(0.00132854 -0.00115948 0)
(0.00137662 -0.00111009 0)
(0.00127651 -0.00118735 0)
(0.00132527 -0.00113843 0)
(0.00122395 -0.00121529 0)
(0.00127356 -0.00116702 0)
(0.00117077 -0.00124367 0)
(0.00122137 -0.00119621 0)
(0.00111696 -0.0012729 0)
(0.00116855 -0.00122604 0)
(0.00238168 -0.000549784 0)
(0.00241572 -0.000511577 0)
(0.0023112 -0.000580853 0)
(0.00234565 -0.000541428 0)
(0.00224314 -0.000611885 0)
(0.00227848 -0.000571814 0)
(0.00217778 -0.000642668 0)
(0.00221428 -0.00060237 0)
(0.00211507 -0.000673208 0)
(0.00215285 -0.000632877 0)
(0.00205477 -0.000703544 0)
(0.00209383 -0.000663204 0)
(0.00199662 -0.000733685 0)
(0.0020369 -0.00069328 0)
(0.00194036 -0.000763614 0)
(0.00198178 -0.000723074 0)
(0.00188575 -0.000793297 0)
(0.00192822 -0.000752578 0)
(0.00183258 -0.000822704 0)
(0.00187602 -0.000781799 0)
(0.00178065 -0.000851813 0)
(0.00182501 -0.000810751 0)
(0.00172978 -0.000880618 0)
(0.00177501 -0.000839461 0)
(0.00167979 -0.000909136 0)
(0.00172589 -0.000867972 0)
(0.0016305 -0.000937413 0)
(0.00167751 -0.00089634 0)
(0.00158177 -0.000965518 0)
(0.00162972 -0.000924639 0)
(0.00153345 -0.000993553 0)
(0.00158243 -0.00095296 0)
(0.0014854 -0.00102165 0)
(0.00153552 -0.000981421 0)
(0.00143755 -0.00104998 0)
(0.00148892 -0.00101022 0)
(0.00138986 -0.00107885 0)
(0.00144259 -0.00103964 0)
(0.00134238 -0.00110853 0)
(0.00139646 -0.00106959 0)
(0.00251868 -0.000431406 0)
(0.00255275 -0.000405135 0)
(0.00245799 -0.000459059 0)
(0.00249219 -0.000431638 0)
(0.00239834 -0.000487154 0)
(0.00243307 -0.000458495 0)
(0.00233984 -0.000515479 0)
(0.00237538 -0.000485697 0)
(0.00228259 -0.000543914 0)
(0.00231916 -0.000513201 0)
(0.00222669 -0.000572365 0)
(0.00226442 -0.000540923 0)
(0.0021722 -0.000600765 0)
(0.00221115 -0.000568773 0)
(0.00211913 -0.000629068 0)
(0.00215931 -0.00059667 0)
(0.00206744 -0.000657247 0)
(0.00210884 -0.000624559 0)
(0.00201706 -0.000685288 0)
(0.00205965 -0.000652404 0)
(0.0019679 -0.000713189 0)
(0.00201168 -0.000680192 0)
(0.00191988 -0.00074096 0)
(0.00196483 -0.000707923 0)
(0.00187289 -0.000768627 0)
(0.00191903 -0.000735623 0)
(0.00182686 -0.000796232 0)
(0.00187421 -0.000763333 0)
(0.0017817 -0.000823838 0)
(0.00183033 -0.000791112 0)
(0.00173736 -0.000851522 0)
(0.00178732 -0.000819024 0)
(0.0016938 -0.00087938 0)
(0.00174516 -0.000847159 0)
(0.00165102 -0.000907545 0)
(0.00170383 -0.000875669 0)
(0.00160908 -0.000936239 0)
(0.00166335 -0.000904786 0)
(0.00156812 -0.000965694 0)
(0.0016237 -0.000934444 0)
(0.00265142 -0.000340362 0)
(0.00268478 -0.000321809 0)
(0.00259755 -0.000365283 0)
(0.00263096 -0.000345767 0)
(0.00254423 -0.000390604 0)
(0.00257816 -0.000370102 0)
(0.00249158 -0.000416228 0)
(0.00252633 -0.000394801 0)
(0.00243972 -0.000442118 0)
(0.00247549 -0.000419849 0)
(0.00238875 -0.000468225 0)
(0.00242566 -0.000445211 0)
(0.00233876 -0.000494492 0)
(0.0023769 -0.000470842 0)
(0.00228981 -0.000520867 0)
(0.00232923 -0.000496695 0)
(0.00224195 -0.000547317 0)
(0.00228268 -0.000522729 0)
(0.00219518 -0.000573827 0)
(0.00223725 -0.000548913 0)
(0.00214951 -0.000600386 0)
(0.00219291 -0.000575229 0)
(0.00210495 -0.00062696 0)
(0.0021497 -0.000601683 0)
(0.00206153 -0.000653571 0)
(0.00210766 -0.000628283 0)
(0.00201925 -0.000680255 0)
(0.0020668 -0.000655046 0)
(0.00197812 -0.00070706 0)
(0.00202714 -0.000682002 0)
(0.00193816 -0.000734048 0)
(0.00198869 -0.000709191 0)
(0.00189943 -0.000761292 0)
(0.0019515 -0.000736676 0)
(0.00186199 -0.000788894 0)
(0.00191561 -0.000764571 0)
(0.00182598 -0.000817035 0)
(0.00188109 -0.000793061 0)
(0.00179158 -0.0008459 0)
(0.00184799 -0.000822047 0)
(0.0027792 -0.000272852 0)
(0.00281189 -0.000260749 0)
(0.00273108 -0.000295304 0)
(0.00276383 -0.00028237 0)
(0.00268324 -0.000318166 0)
(0.00271651 -0.000304409 0)
(0.00263578 -0.000341349 0)
(0.0026699 -0.000326838 0)
(0.0025889 -0.000364874 0)
(0.00262404 -0.000349663 0)
(0.00254267 -0.000388722 0)
(0.00257896 -0.000372872 0)
(0.00249718 -0.00041287 0)
(0.00253471 -0.000396442 0)
(0.00245249 -0.000437285 0)
(0.00249135 -0.000420356 0)
(0.00240866 -0.000461921 0)
(0.00244893 -0.000444599 0)
(0.00236568 -0.000486681 0)
(0.00240754 -0.000469105 0)
(0.00232413 -0.000511733 0)
(0.00236728 -0.000493901 0)
(0.00228363 -0.000536995 0)
(0.00232817 -0.000518967 0)
(0.00224427 -0.000562439 0)
(0.00229027 -0.000544307 0)
(0.00220613 -0.000588074 0)
(0.00225364 -0.000569936 0)
(0.00216932 -0.00061393 0)
(0.00221838 -0.000595879 0)
(0.00213394 -0.000640052 0)
(0.00218459 -0.000622152 0)
(0.00210011 -0.000666487 0)
(0.00215237 -0.00064878 0)
(0.00206797 -0.000693312 0)
(0.00212179 -0.00067584 0)
(0.00203767 -0.000720661 0)
(0.00209298 -0.000703459 0)
(0.00200948 -0.000748661 0)
(0.00206603 -0.000731515 0)
(0.002902 -0.000224566 0)
(0.00293431 -0.0002178 0)
(0.00285903 -0.000244784 0)
(0.00289138 -0.000237332 0)
(0.00281616 -0.000265455 0)
(0.00284896 -0.000257323 0)
(0.00277331 -0.000286724 0)
(0.00280698 -0.000277772 0)
(0.00273096 -0.000308073 0)
(0.00276564 -0.000298677 0)
(0.00268917 -0.000329744 0)
(0.002725 -0.000320021 0)
(0.0026481 -0.000351695 0)
(0.00268519 -0.000341788 0)
(0.00260796 -0.000373897 0)
(0.00264634 -0.000363962 0)
(0.002569 -0.000396364 0)
(0.00260863 -0.000386545 0)
(0.00252974 -0.000422129 0)
(0.00257093 -0.000409763 0)
(0.00249187 -0.000445459 0)
(0.00253458 -0.000433326 0)
(0.00245534 -0.000469154 0)
(0.00249958 -0.000457185 0)
(0.00242014 -0.00049318 0)
(0.00246596 -0.000481321 0)
(0.00238633 -0.000517504 0)
(0.0024335 -0.000505634 0)
(0.00235399 -0.000542245 0)
(0.00240279 -0.000530462 0)
(0.00232325 -0.000567319 0)
(0.00237366 -0.000555621 0)
(0.00229424 -0.000592766 0)
(0.00234624 -0.000581157 0)
(0.00226711 -0.000618629 0)
(0.00232065 -0.000607142 0)
(0.0022421 -0.000644993 0)
(0.00229704 -0.000633647 0)
(0.00221946 -0.000671922 0)
(0.00227554 -0.000660542 0)
(0.00302102 -0.000192137 0)
(0.0030531 -0.000189593 0)
(0.00298259 -0.000210493 0)
(0.00301482 -0.000207458 0)
(0.00294444 -0.000229682 0)
(0.00297691 -0.000225852 0)
(0.00290617 -0.000248943 0)
(0.00293946 -0.000244679 0)
(0.00286826 -0.000268625 0)
(0.00290254 -0.000263983 0)
(0.00283085 -0.000288762 0)
(0.00286623 -0.000283771 0)
(0.00279404 -0.000309355 0)
(0.00283062 -0.000304035 0)