/*--------------------------------*- C++ -*----------------------------------*\
| =========                 |                                                 |
| \\      /  F ield         | OpenFOAM: The Open Source CFD Toolbox           |
|  \\    /   O peration     | Version:  v2012                                 |
|   \\  /    A nd           | Website:  www.openfoam.com                      |
|    \\/     M anipulation  |                                                 |
\*---------------------------------------------------------------------------*/
FoamFile
{
    version     2.0;
    format      ascii;
    class       volSymmTensorField;
    location    "9";
    object      epsilon;
}
// * * * * * * * * * * * * * * * * * * * * * * * * * * * * * * * * * * * * * //

dimensions      [0 0 0 0 0 0 0];


internalField   nonuniform List<symmTensor> 
2000
(
(0.0149928 -0.00158694 4.17203e-18 -0.0131513 -3.94814e-19 7.98342e-34)
(0.00927983 -0.000600749 2.30433e-18 -0.00638886 -2.26492e-18 0)
(0.0111546 -0.000921135 -3.23968e-18 -0.00783896 -4.36199e-19 0)
(0.00839063 -0.000637936 -1.46898e-18 -0.00575294 1.07986e-18 0)
(0.00917259 -0.000641314 2.62326e-18 -0.00602661 2.83498e-19 0)
(0.00758409 -0.000555028 4.2511e-19 -0.00484514 -6.4383e-19 0)
(0.00775035 -0.000495495 -1.26531e-18 -0.00456989 3.43575e-19 0)
(0.00675611 -0.000418776 -2.78117e-18 -0.00378833 -9.48963e-19 0)
(0.0065573 -0.00040893 -4.45286e-18 -0.0033221 -8.41983e-19 0)
(0.00589751 -0.000257332 -6.06727e-19 -0.00275741 5.39771e-19 0)
(0.00550195 -0.000338782 0 -0.00226443 0 0)
(0.00508359 -8.95522e-05 0 -0.00185067 0 0)
(0.00458524 -0.000268533 -6.80742e-19 -0.00141139 9.17751e-21 0)
(0.0043874 6.84201e-05 -1.19705e-18 -0.00110375 -3.47961e-19 0)
(0.00386297 -0.000200021 -4.82799e-19 -0.000877476 -1.43932e-19 0)
(0.00387909 0.000243068 7.37368e-19 -0.000773699 2.6361e-19 0)
(0.00336987 -0.000107916 0 -0.000791356 0 0)
(0.00352692 0.000331573 0 -0.000730218 0 0)
(0.00302506 -6.23144e-05 0 -0.000699298 0 0)
(0.00316064 0.000377309 -2.71207e-19 -0.000734702 -9.86942e-20 0)
(0.00749675 -0.00161379 0 -0.00615447 0 0)
(0.00908423 -0.00185908 1.08342e-18 -0.00590995 6.63801e-19 0)
(0.00766859 -0.00150944 6.36702e-21 -0.00534334 5.19362e-19 0)
(0.00809666 -0.00160837 9.76582e-19 -0.00512643 1.5117e-19 0)
(0.00707667 -0.00133472 2.8365e-19 -0.00450546 -5.44774e-19 0)
(0.0070374 -0.00128711 3.08619e-19 -0.00417823 -5.49654e-19 0)
(0.00622803 -0.00108938 -1.13013e-18 -0.00335473 4.2931e-19 0)
(0.00596063 -0.000910054 -2.39385e-18 -0.0031076 -7.48573e-19 0)
(0.00537353 -0.000825771 -4.42385e-18 -0.00230393 -1.46437e-18 0)
(0.00501395 -0.000540762 -2.92949e-18 -0.00219062 -8.05421e-19 0)
(0.00463957 -0.000566879 -7.70664e-19 -0.00155242 -3.49151e-19 0)
(0.00431911 -0.000227483 1.84318e-19 -0.00152912 1.10029e-19 0)
(0.00407517 -0.000327639 1.21567e-18 -0.00109484 5.91508e-19 0)
(0.00388913 4.37197e-05 1.90468e-19 -0.00111917 1.65218e-19 0)
(0.00372582 -8.66843e-05 -1.36902e-18 -0.000994358 -7.06787e-19 0)
(0.00368863 0.000282871 -1.04093e-18 -0.0010424 -6.45268e-19 0)
(0.00342586 0.000126711 4.75878e-19 -0.000947166 2.4905e-19 0)
(0.0034847 0.000437325 7.29961e-19 -0.00099971 4.72074e-19 0)
(0.00316434 0.000260813 9.7745e-19 -0.000856122 5.63411e-19 0)
(0.00322407 0.000530945 9.26238e-19 -0.000979539 6.07698e-19 0)
(0.00892547 -0.00344736 -1.44425e-18 -0.007294 4.25817e-19 1.58283e-34)
(0.00802019 -0.00261903 -2.48076e-18 -0.00503507 1.86611e-19 0)
(0.00725036 -0.00247112 -1.83893e-19 -0.00453786 -4.25297e-19 0)
(0.00663681 -0.00204655 1.00728e-18 -0.00397523 5.04959e-19 0)
(0.00596542 -0.0018505 2.46917e-19 -0.00302709 2.52345e-19 0)
(0.00535952 -0.00142729 -2.05259e-18 -0.00286072 -1.11405e-18 0)
(0.0049421 -0.00131241 -2.21662e-18 -0.00187225 -8.43429e-19 0)
(0.00438087 -0.000890516 -1.79186e-18 -0.00195214 -9.04743e-19 0)
(0.00423912 -0.000891053 0 -0.00130797 0 0)
(0.00386068 -0.000511761 0 -0.00142914 0 0)
(0.00385523 -0.000538159 -5.11513e-19 -0.00118433 -3.07763e-19 0)
(0.00368409 -0.000222493 -1.65435e-18 -0.0012743 -8.68326e-19 0)
(0.00369282 -0.000238217 -1.6792e-18 -0.00122989 -9.69144e-19 0)
(0.00364277 4.95116e-05 -3.18063e-19 -0.00127446 -3.75594e-19 0)
(0.00355551 2.22296e-05 1.09929e-18 -0.00125596 7.772e-19 0)
(0.00356592 0.000265776 8.35227e-19 -0.00126886 6.10564e-19 0)
(0.00339763 0.000224356 3.36803e-19 -0.00121592 1.86521e-19 0)
(0.00344841 0.000427238 -1.41793e-19 -0.00125033 -9.20217e-20 0)
(0.00323335 0.000372381 -1.05453e-20 -0.00114368 3.55527e-20 0)
(0.00327207 0.000540071 1.1737e-18 -0.00122904 9.63726e-19 0)
(0.00636278 -0.00345584 2.01831e-18 -0.004381 -6.69719e-19 2.25346e-34)
(0.00585577 -0.00260469 1.10699e-18 -0.00339113 -5.15478e-19 0)
(0.0050416 -0.00231853 4.45697e-19 -0.00231156 3.13497e-19 0)
(0.00447955 -0.001736 -8.87967e-19 -0.00226326 -3.17388e-19 0)
(0.0040414 -0.00156654 -3.63977e-19 -0.00128047 -3.04211e-20 0)
(0.00363326 -0.0011136 2.88753e-19 -0.00142476 3.43974e-20 0)
(0.0035781 -0.00105654 1.4354e-18 -0.00105863 9.19974e-19 0)
(0.00341805 -0.000752733 1.33027e-18 -0.00124916 9.62237e-19 0)
(0.0034878 -0.00070035 1.81711e-18 -0.00121998 1.50282e-18 0)
(0.00344315 -0.000466421 1.2203e-18 -0.00128919 1.16545e-18 0)
(0.00350246 -0.000420146 2.27573e-18 -0.00130607 1.81362e-18 0)
(0.00347104 -0.000213986 9.64394e-19 -0.00134454 8.53032e-19 0)
(0.0034929 -0.000179282 9.33458e-19 -0.00135316 4.65449e-19 0)
(0.00346629 8.67422e-06 1.09697e-18 -0.00138273 7.42918e-19 0)
(0.00343404 3.33407e-05 8.10818e-19 -0.00137675 7.56603e-19 0)
(0.00342896 0.000199681 1.20555e-18 -0.00139817 1.103e-18 0)
(0.0033441 0.000213272 4.44675e-19 -0.00137176 2.13804e-19 0)
(0.00336526 0.000354519 9.01309e-20 -0.00139303 4.08323e-20 0)
(0.00324206 0.000360134 -8.56583e-19 -0.00133563 -6.74557e-19 0)
(0.00325564 0.000472824 -3.4432e-19 -0.00137856 -2.99424e-19 0)
(0.00406169 -0.0027074 -1.12865e-18 -0.00181122 2.42257e-19 4.36225e-34)
(0.00362923 -0.00190085 1.33877e-18 -0.00141338 7.59003e-19 0)
(0.00323483 -0.00170221 3.27258e-19 -0.000854982 -2.5774e-19 0)
(0.0030947 -0.0013297 -1.1441e-18 -0.00102026 -1.00857e-18 0)
(0.00310117 -0.00125485 -2.29213e-19 -0.000994707 2.68788e-19 0)
(0.00310167 -0.000992174 4.52065e-19 -0.00110409 6.42835e-19 0)
(0.00317651 -0.00092155 -4.7617e-19 -0.00110813 -6.33014e-19 0)
(0.00315512 -0.000702655 -7.49303e-19 -0.00120059 -6.3003e-19 0)
(0.00325045 -0.000640878 -1.39644e-18 -0.00120643 -7.38134e-19 0)
(0.00320268 -0.000452508 2.40938e-19 -0.00128802 1.55637e-20 0)
(0.00328817 -0.000400125 -7.48687e-19 -0.00130593 -6.97635e-19 0)
(0.00324477 -0.000230744 -1.43003e-18 -0.0013599 -7.86377e-19 0)
(0.00329367 -0.000188976 -1.46373e-18 -0.00138512 -1.0188e-18 0)
(0.0032687 -3.70515e-05 -5.27669e-19 -0.00141318 -5.89656e-19 0)
(0.003273 -4.25591e-06 9.73228e-20 -0.00143539 2.25222e-19 0)
(0.00326945 0.000128321 -4.96994e-19 -0.0014464 -1.66099e-19 0)
(0.00323201 0.000154395 -4.34676e-19 -0.00145732 -5.08482e-19 0)
(0.00324872 0.000264796 -4.80607e-19 -0.00145752 -7.13814e-19 0)
(0.00318053 0.00028782 6.75579e-19 -0.00145017 6.08038e-19 0)
(0.0031902 0.000374616 1.41978e-19 -0.00145483 2.23984e-19 0)
(0.00260944 -0.00190006 4.58587e-19 -0.000606527 -2.45382e-19 -5.37166e-35)
(0.00272703 -0.00161132 2.66091e-18 -0.000674956 1.26691e-19 0)
(0.00268858 -0.00151357 1.92692e-18 -0.000679779 8.35969e-19 0)
(0.00272449 -0.00125505 1.44849e-19 -0.000883619 7.89039e-19 0)
(0.00280087 -0.00116459 -1.48447e-18 -0.000829431 -9.90369e-19 0)
(0.00277559 -0.000927982 -1.40016e-18 -0.00102817 -1.02157e-18 0)
(0.00289724 -0.000857067 -3.13616e-19 -0.00101237 6.26646e-20 0)
(0.00286052 -0.000653179 1.43371e-18 -0.00115028 7.14584e-19 0)
(0.00297789 -0.000603661 8.09288e-19 -0.00117584 6.46663e-19 0)
(0.00294712 -0.000429519 1.84062e-18 -0.00126007 1.4105e-18 0)
(0.00303948 -0.000393307 1.30221e-18 -0.00130559 1.01826e-18 0)
(0.00302091 -0.000242021 1.03856e-18 -0.00135095 1.02378e-18 0)
(0.00307848 -0.000213559 0 -0.00140213 0 0)
(0.003075 -8.19261e-05 4.63083e-19 -0.00141975 3.53361e-19 0)
(0.00309518 -5.83535e-05 1.0663e-19 -0.00146923 2.63554e-19 0)
(0.00310707 5.38464e-05 2.93138e-19 -0.00146662 3.13208e-19 0)
(0.00309368 7.45145e-05 5.95674e-19 -0.00151017 3.83805e-19 0)
(0.00311903 0.00016625 1.68721e-19 -0.00149074 5.14833e-20 0)
(0.0030818 0.000186805 1.74158e-18 -0.00152421 1.76772e-18 0)
(0.00309837 0.000259742 1.96619e-18 -0.00149912 1.96136e-18 0)
(0.00216842 -0.00192531 4.90959e-19 -0.000201355 -3.22857e-19 -8.61522e-35)
(0.00223414 -0.00151125 -1.23086e-18 -0.00049547 -1.15582e-18 0)
(0.00227753 -0.00144616 7.42071e-19 -0.000570626 3.74592e-19 0)
(0.00233179 -0.00113888 2.43791e-18 -0.000755153 9.64862e-19 0)
(0.00243376 -0.00106888 1.49203e-18 -0.000804591 1.02969e-18 0)
(0.0024612 -0.000832912 8.82111e-19 -0.000944887 1.24875e-18 0)
(0.00258372 -0.00078561 -2.96777e-19 -0.00100247 9.87625e-20 0)
(0.00259013 -0.0005969 -5.89202e-19 -0.0011041 -3.7161e-19 0)
(0.00270658 -0.000570086 -5.4589e-19 -0.00117466 -1.07796e-18 0)
(0.00270773 -0.000411839 -1.5348e-18 -0.00123761 -1.37225e-18 0)
(0.00280105 -0.000396943 -9.93702e-19 -0.00131495 -2.97094e-19 0)
(0.00280728 -0.000260626 0 -0.00134437 0 0)
(0.00286986 -0.000251446 -6.53431e-19 -0.00142223 -9.77592e-19 0)
(0.00288515 -0.000133996 -6.59807e-19 -0.00142545 -9.9239e-19 0)
(0.00291648 -0.000127135 2.40021e-19 -0.00149994 5.87362e-19 0)
(0.00294121 -2.82984e-05 2.78468e-18 -0.00148248 2.33278e-18 0)
(0.00294564 -2.16831e-05 1.3422e-18 -0.001552 1.00218e-18 0)
(0.00297874 5.77754e-05 9.64467e-19 -0.00151463 9.40123e-19 0)
(0.00296444 6.65692e-05 -7.69592e-19 -0.00157858 -6.42139e-19 0)
(0.00298841 0.000129862 -3.82994e-19 -0.00152722 -3.11386e-19 0)
(0.00158494 -0.00173512 -5.80579e-19 0.000118867 1.73883e-19 1.02572e-34)
(0.001691 -0.00133021 -1.70798e-18 -0.000352731 2.99037e-19 0)
(0.00184924 -0.00131287 -2.7834e-18 -0.000389425 -1.41766e-18 0)
(0.00191333 -0.000990344 -3.61079e-18 -0.000661134 -2.44451e-18 0)
(0.00208927 -0.000976052 -1.67546e-18 -0.000732605 -1.32259e-18 0)
(0.00213003 -0.000729367 -4.00231e-19 -0.000885834 -1.31082e-18 0)
(0.00228991 -0.000733416 -6.01711e-19 -0.000988803 -3.75086e-19 0)
(0.00231625 -0.000541255 -8.10325e-19 -0.00106847 -2.59181e-19 0)
(0.00244861 -0.000556415 -2.70283e-19 -0.00118479 -2.95194e-19 0)
(0.00247051 -0.000400601 -1.31707e-18 -0.00121573 -1.04449e-18 0)
(0.00257117 -0.000418669 -1.32202e-18 -0.00133335 -1.02067e-18 0)
(0.00259522 -0.000288681 -5.80137e-19 -0.00132959 -7.21906e-19 0)
(0.00266332 -0.0003056 -1.07622e-19 -0.00144462 -3.36569e-19 0)
(0.00269206 -0.000195716 -2.05642e-18 -0.0014149 -1.29108e-18 0)
(0.0027312 -0.000210733 -2.63239e-18 -0.00152694 -1.94664e-18 0)
(0.00276258 -0.000117468 -1.76601e-18 -0.00147842 -1.62354e-18 0)
(0.00278267 -0.000131262 -1.82258e-19 -0.00158567 -7.14999e-21 0)
(0.00281053 -5.28959e-05 7.30731e-19 -0.00152432 3.38388e-19 0)
(0.00282643 -6.53371e-05 1.29703e-18 -0.00162036 9.49236e-19 0)
(0.00283524 -1.92507e-07 5.60578e-19 -0.00155183 5.9227e-19 0)
(0.00104859 -0.00140955 1.01095e-18 0.000304702 -6.58255e-19 2.52466e-34)
(0.00119321 -0.00106419 -1.32796e-19 -0.000257867 -1.19363e-18 0)
(0.00143687 -0.00110375 1.31435e-18 -0.000276953 1.56814e-18 0)
(0.00152262 -0.000805683 -3.87891e-19 -0.000600557 1.15264e-18 0)
(0.00174947 -0.000856109 6.50883e-19 -0.000682357 3.56574e-19 0)
(0.00180547 -0.000617616 2.2742e-19 -0.000847767 -1.67859e-19 0)
(0.00199587 -0.000682417 1.42775e-18 -0.000973054 1.01535e-18 0)
(0.00203526 -0.000488839 1.99021e-19 -0.00104013 3.49549e-19 0)
(0.00218729 -0.000556691 7.8215e-19 -0.00118416 2.30646e-19 0)
(0.00221914 -0.00039576 0 -0.00119105 0 0)
(0.00233756 -0.000456955 6.01048e-19 -0.00133634 7.28067e-19 0)
(0.00236518 -0.000323684 7.72402e-19 -0.00130613 6.57838e-19 0)
(0.0024543 -0.000371777 1.75041e-18 -0.00144522 1.2985e-18 0)
(0.00248057 -0.000266393 7.65232e-19 -0.00138684 6.40722e-19 0)
(0.00254111 -0.000297327 6.29473e-19 -0.00152389 2.88431e-19 0)
(0.00257312 -0.000221644 -4.38678e-19 -0.00142981 -3.01369e-19 0)
(0.00260493 -0.000235606 -1.00861e-18 -0.00158332 -9.34185e-19 0)
(0.00265415 -0.000188203 -7.46501e-19 -0.00142507 -6.00823e-19 0)
(0.00266822 -0.000194073 -5.59479e-19 -0.00162892 -3.01554e-19 0)
(0.00272269 -0.000160568 7.16734e-19 -0.00137238 3.72422e-19 0)
(0.000622597 -0.00100441 -4.84483e-19 0.000367996 5.54938e-19 -1.33465e-34)
(0.000779279 -0.000744637 2.06758e-18 -0.000243743 1.26237e-18 0)
(0.00108632 -0.000848568 -3.86065e-19 -0.000226619 -6.32421e-19 0)
(0.00117967 -0.000595021 -2.2476e-19 -0.000591324 2.38238e-19 0)
(0.00143666 -0.000714754 -1.52043e-18 -0.000657038 -4.1256e-19 0)
(0.00150283 -0.00049755 2.02522e-19 -0.000839463 -1.93443e-19 0)
(0.00170336 -0.000624423 -3.46616e-19 -0.000958404 -5.2801e-19 0)
(0.00175795 -0.000438466 -7.41404e-19 -0.00102277 -1.61024e-19 0)
(0.00190551 -0.000559404 -7.49648e-19 -0.00117064 -1.83152e-19 0)
(0.00195964 -0.000397485 0 -0.00115972 0 0)
(0.00206274 -0.000506007 -5.00092e-19 -0.00131966 -3.19636e-19 0)
(0.00211868 -0.00036342 0 -0.00126599 0 0)
(0.00219086 -0.000457313 1.40838e-19 -0.00142312 3.56944e-19 0)
(0.00224407 -0.0003328 1.35344e-18 -0.00135757 8.25906e-19 0)
(0.00230503 -0.000408128 7.71928e-19 -0.00149522 1.94873e-19 0)
(0.00234811 -0.000307457 -1.42003e-19 -0.00144771 3.50148e-20 0)
(0.00242288 -0.000352317 -1.55919e-19 -0.00155181 3.01323e-20 0)
(0.00244702 -0.000297184 9.42564e-19 -0.0015384 5.2369e-19 0)
(0.00255836 -0.000283311 7.45855e-19 -0.00161138 5.58975e-19 0)
(0.00250754 -0.000313026 2.00325e-19 -0.00166233 3.00723e-19 0)
(0.000326776 -0.000571717 4.11747e-19 0.000294898 -5.63377e-19 -1.39434e-34)
(0.000473634 -0.000403835 -4.1653e-19 -0.000320417 -9.94072e-19 0)
(0.000814327 -0.000572882 6.40681e-19 -0.000251437 2.84735e-19 0)
(0.000902603 -0.000372454 7.88761e-19 -0.000639748 2.29039e-20 0)
(0.00116762 -0.000561563 1.35094e-18 -0.000663507 1.46834e-18 0)
(0.00123478 -0.00037021 2.56452e-18 -0.000867259 1.88078e-18 0)
(0.00143423 -0.000559902 2.70151e-18 -0.000947772 1.78154e-18 0)
(0.00149202 -0.000383697 7.88505e-19 -0.00103106 1.14213e-18 0)
(0.00163612 -0.000557239 1.31212e-18 -0.00114366 8.71369e-19 0)
(0.00169451 -0.000398603 2.4966e-19 -0.00114801 3.26696e-19 0)
(0.00178894 -0.000547052 1.26859e-18 -0.00128 8.47045e-19 0)
(0.00185785 -0.000406678 2.78651e-19 -0.00123036 3.10637e-19 0)
(0.00190231 -0.000525646 -4.39726e-19 -0.00137694 -7.26136e-19 0)
(0.00199771 -0.000400404 -2.99333e-19 -0.00129559 -2.96656e-19 0)
(0.00198482 -0.000486976 -1.53963e-19 -0.00145223 6.5561e-20 0)
(0.00212541 -0.000371899 -5.28422e-19 -0.00138448 -1.97526e-19 0)
(0.0020336 -0.00042652 -1.2848e-18 -0.00153377 -1.07866e-18 0)
(0.00220486 -0.000333718 -7.79379e-19 -0.00158041 -8.35349e-19 0)
(0.00198507 -0.000375564 1.80313e-19 -0.00167429 2.74005e-19 0)
(0.00235436 -0.000442377 9.31113e-19 -0.00148601 6.8161e-19 0)
(0.000166939 -0.000159589 0 9.66253e-05 0 0)
(0.000282872 -7.42483e-05 0 -0.000484815 0 0)
(0.000629412 -0.000303061 0 -0.000355156 0 0)
(0.000701378 -0.000155 -6.94944e-19 -0.000740221 1.41854e-20 0)
(0.000949252 -0.000404611 -7.32742e-19 -0.000710769 1.25621e-20 0)
(0.00101382 -0.00024025 7.96624e-19 -0.000918112 -1.82393e-19 0)
(0.00119018 -0.000485324 3.35579e-19 -0.000951376 -4.41246e-19 0)
(0.00125428 -0.000317367 0 -0.00104114 0 0)
(0.00137808 -0.000542815 -3.79898e-19 -0.00111208 1.64125e-19 0)
(0.00144443 -0.000379197 1.63177e-18 -0.00112922 1.02951e-18 0)
(0.00153015 -0.000577503 8.90778e-19 -0.00122047 8.75261e-19 0)
(0.00159798 -0.000423531 3.02493e-19 -0.00119948 7.88957e-19 0)
(0.0016578 -0.000586097 2.67855e-19 -0.00129717 -9.61385e-20 0)
(0.00172823 -0.000445235 -9.92854e-19 -0.00126742 -8.00435e-19 0)
(0.00176451 -0.000558992 5.88613e-19 -0.00136232 5.5058e-19 0)
(0.00183969 -0.000435402 1.06925e-18 -0.00134503 7.01507e-19 0)
(0.00181898 -0.000501798 3.17782e-19 -0.00144565 -1.21392e-19 0)
(0.00188833 -0.000405726 -1.13248e-18 -0.00143717 -6.56e-19 0)
(0.00171903 -0.00048302 -1.1477e-18 -0.00159411 -6.74419e-19 0)
(0.00208171 -0.000541405 -5.62772e-19 -0.0012487 -4.22562e-19 0)
(0.000129749 0.000194426 9.44981e-20 -0.0002057 -5.38677e-19 -2.57095e-34)
(0.000199577 0.000214334 -1.02358e-18 -0.000720925 -8.66538e-19 0)
(0.000528629 -6.2932e-05 -1.17486e-18 -0.000525031 -7.59307e-19 0)
(0.000573456 4.02166e-05 -1.07266e-18 -0.000884192 -8.32754e-19 0)
(0.000786729 -0.000255718 -1.13363e-18 -0.000793746 -1.94885e-19 0)
(0.000839927 -0.000116752 5.68231e-19 -0.000992611 6.37186e-21 0)
(0.00098203 -0.000401532 1.17581e-18 -0.000970927 7.1584e-19 0)
(0.00104431 -0.000245265 2.30806e-21 -0.00106182 6.60283e-19 0)
(0.00113919 -0.000503979 -1.28152e-18 -0.0010861 -1.09073e-18 0)
(0.00120941 -0.000343775 -2.74006e-19 -0.00110775 -8.4547e-19 0)
(0.0012705 -0.000568994 -2.73434e-19 -0.00116301 1.37917e-19 0)
(0.00134825 -0.000413327 1.0522e-18 -0.0011436 6.55845e-19 0)
(0.00138429 -0.000597411 6.88999e-19 -0.00121764 4.21164e-19 0)
(0.00147092 -0.000450921 8.85747e-20 -0.00118072 4.17359e-19 0)
(0.00148232 -0.000587741 -1.6106e-18 -0.0012627 -1.10805e-18 0)
(0.00157087 -0.000456176 -1.88133e-18 -0.0012307 -1.27283e-18 0)
(0.00153253 -0.000559341 -1.09671e-19 -0.0013184 6.64384e-20 0)
(0.0015944 -0.00046087 -3.29151e-19 -0.0013189 -1.82965e-19 0)
(0.00144853 -0.000569315 -5.10922e-19 -0.00143054 -4.49812e-19 0)
(0.00175572 -0.000622311 -2.15751e-19 -0.00113386 3.14965e-20 0)
(0.0001919 0.000462696 0 -0.000579004 0 0)
(0.000206008 0.000436926 0 -0.00100678 0 0)
(0.000498062 0.000130244 9.88575e-19 -0.000741213 1.6419e-18 0)
(0.000508226 0.000197027 1.40203e-18 -0.00105994 1.58469e-18 0)
(0.000671908 -0.000124542 1.05332e-18 -0.000902015 6.63634e-19 0)
(0.00071036 -9.14597e-06 9.67639e-19 -0.00108433 7.09206e-19 0)
(0.000804889 -0.000314525 5.15944e-19 -0.00100083 -9.86359e-21 0)
(0.000866246 -0.000171981 -7.22813e-20 -0.00108933 1.69523e-19 0)
(0.000919119 -0.000448368 -7.75502e-19 -0.001059 -7.72221e-19 0)
(0.00099605 -0.000295048 -1.47893e-18 -0.00108673 -1.16816e-18 0)
(0.00102122 -0.000536914 -1.5534e-18 -0.00109461 -1.06836e-18 0)
(0.00110833 -0.000383206 -1.17967e-18 -0.00108612 -7.92898e-19 0)
(0.0011159 -0.000584803 -1.97012e-18 -0.00111973 -1.06442e-18 0)
(0.0012099 -0.000436939 -3.60044e-19 -0.00109533 -6.02411e-19 0)
(0.00120337 -0.000594057 1.22082e-18 -0.00114418 1.12692e-18 0)
(0.0012949 -0.000460525 1.95433e-18 -0.00112527 1.2881e-18 0)
(0.00125167 -0.000582366 1.50494e-18 -0.00118629 8.43304e-19 0)
(0.00131334 -0.000484383 1.40275e-18 -0.00120337 8.52213e-19 0)
(0.00116787 -0.00059991 1.26552e-18 -0.00128544 6.21769e-19 0)
(0.00144922 -0.000647364 8.72766e-19 -0.00100964 5.80668e-19 0)
(0.000323675 0.000626923 -7.11867e-20 -0.000984302 5.81757e-19 -2.08414e-34)
(0.000280528 0.000578426 3.3808e-19 -0.001315 1.13922e-18 0)
(0.000522089 0.000262329 -1.33955e-18 -0.000981452 -1.38988e-18 0)
(0.000493968 0.000304636 -1.26106e-18 -0.00125197 -1.22294e-18 0)
(0.000600428 -2.20285e-05 -1.32618e-18 -0.00102432 -5.31208e-19 0)
(0.00062026 7.44824e-05 -4.91966e-19 -0.00118745 -4.60041e-19 0)
(0.000662774 -0.000233263 -1.04253e-18 -0.00103808 -9.3559e-19 0)
(0.000719409 -0.000104327 -5.99277e-19 -0.0011254 -9.74328e-19 0)
(0.00072777 -0.000382914 4.91026e-19 -0.00103508 4.9625e-19 0)
(0.000807596 -0.000239004 4.6587e-19 -0.00107226 4.96259e-19 0)
(0.000795837 -0.000484787 1.14824e-18 -0.00102665 7.43262e-19 0)
(0.000888867 -0.000337173 8.12416e-19 -0.00103337 4.72859e-19 0)
(0.000868135 -0.000545574 1.01164e-18 -0.00102061 3.26333e-19 0)
(0.000967558 -0.000401935 -2.83394e-19 -0.00101429 -1.27899e-19 0)
(0.000943625 -0.000567981 1.71296e-19 -0.00102467 2.30365e-19 0)
(0.00103743 -0.000438693 7.64328e-19 -0.0010252 4.2025e-19 0)
(0.00098772 -0.000567016 5.22262e-19 -0.00105435 2.78644e-19 0)
(0.00104731 -0.000473179 1.766e-19 -0.0010892 2.1469e-19 0)
(0.000899828 -0.000585713 2.63076e-19 -0.00114226 1.3505e-19 0)
(0.00115108 -0.000625737 -3.52747e-19 -0.000885105 -6.13656e-20 0)
(0.000492294 0.00068152 9.39149e-20 -0.00138358 -4.7604e-19 -1.21946e-34)
(0.00039771 0.000633446 -9.13095e-20 -0.00161863 -5.81811e-19 0)
(0.000582076 0.000325864 2.93191e-19 -0.00122441 1.82458e-19 0)
(0.000516981 0.000357746 -2.61692e-21 -0.00144352 2.0459e-19 0)
(0.000564593 4.48386e-05 -4.46455e-19 -0.00115108 -3.61243e-19 0)
(0.000564497 0.000129111 -6.66074e-19 -0.00129231 -7.35844e-19 0)
(0.000555724 -0.00016373 7.28689e-19 -0.0010812 6.4019e-19 0)
(0.000604873 -4.6691e-05 6.86856e-19 -0.00116542 4.98161e-19 0)
(0.000570867 -0.000312424 -1.02218e-19 -0.00101867 -4.2602e-19 0)
(0.000649989 -0.000179123 -7.08918e-19 -0.00106371 -3.30192e-19 0)
(0.000603936 -0.000415928 -1.48544e-18 -0.000967808 -7.72029e-19 0)
(0.000699173 -0.000277287 -5.502e-19 -0.000988099 -6.32135e-19 0)
(0.000652187 -0.000481156 9.79329e-19 -0.000931904 8.81785e-19 0)
(0.000754215 -0.00034532 9.69673e-19 -0.000941688 8.14687e-19 0)
(0.000712857 -0.000510519 -5.12772e-19 -0.000916032 -5.74002e-19 0)
(0.000807711 -0.000388195 -1.01475e-18 -0.000932622 -6.43905e-19 0)
(0.000749345 -0.000515955 -1.27713e-19 -0.000931938 1.36573e-19 0)
(0.000806518 -0.000427092 4.42479e-19 -0.000979264 1.97062e-19 0)
(0.000657767 -0.000532151 4.87504e-19 -0.001005 1.81353e-19 0)
(0.000876291 -0.000562154 7.25124e-20 -0.000768519 2.00778e-20 0)
(0.000666842 0.000632813 7.53909e-20 -0.0017439 -9.77347e-19 -5.60105e-34)
(0.000530666 0.000605309 -8.79101e-19 -0.00189524 -1.43644e-18 0)
(0.000657665 0.000320761 -5.08132e-19 -0.00144835 -3.43264e-19 0)
(0.000562099 0.000356798 -1.59566e-19 -0.001616 -5.90647e-19 0)
(0.000552173 7.33297e-05 -1.43045e-20 -0.00127174 -1.71287e-19 0)
(0.000535159 0.000154056 -3.74577e-19 -0.00138621 -2.1428e-20 0)
(0.00047838 -0.000109425 -1.19009e-18 -0.00112792 -8.24823e-19 0)
(0.00052083 -2.74142e-07 -1.05888e-18 -0.00120248 -9.86922e-19 0)
(0.000448584 -0.000240984 -1.59862e-20 -0.00101312 1.12188e-19 0)
(0.000526333 -0.000117072 0 -0.00105939 0 0)
(0.000449852 -0.000334816 5.64827e-19 -0.000924292 4.12074e-19 0)
(0.000545643 -0.000205528 3.33897e-19 -0.000952545 2.37178e-19 0)
(0.00047555 -0.000396312 1.61072e-19 -0.000860566 1.03918e-19 0)
(0.000577846 -0.000269422 5.22687e-19 -0.000881717 2.40217e-19 0)
(0.000520893 -0.000426967 1.11932e-18 -0.000824726 5.43296e-19 0)
(0.000614189 -0.000312329 8.2008e-19 -0.0008522 4.78938e-19 0)
(0.000548032 -0.000435083 7.09734e-19 -0.000824882 3.59412e-19 0)
(0.000601224 -0.000350237 8.01783e-19 -0.000877974 4.72246e-19 0)
(0.000453879 -0.000445431 5.65786e-19 -0.000879846 2.28187e-19 0)
(0.000641609 -0.000461717 4.75831e-19 -0.000663021 2.87423e-19 0)
(0.000819218 0.000494273 -1.2659e-20 -0.00204126 1.06447e-18 -4.54901e-34)
(0.000652788 0.000506186 4.31896e-19 -0.00213074 1.10201e-18 0)
(0.000725058 0.000253961 6.7968e-19 -0.00163595 1.03899e-18 0)
(0.00061324 0.000309932 5.11093e-19 -0.00175154 8.36249e-19 0)
(0.000547763 6.7187e-05 3.63214e-19 -0.00137668 6.77359e-20 0)
(0.000523105 0.000154463 3.58103e-19 -0.00145839 3.29622e-19 0)
(0.000425182 -6.96744e-05 2.66047e-19 -0.00117463 2.47778e-19 0)
(0.000465156 3.60971e-05 1.36658e-19 -0.00123345 3.22425e-19 0)
(0.000361659 -0.000170993 -7.04242e-19 -0.00101807 -6.12407e-19 0)
(0.000439015 -5.56116e-05 -4.75533e-19 -0.00106024 -4.66799e-19 0)
(0.000337327 -0.000245672 -7.44492e-19 -0.000897495 -3.85913e-19 0)
(0.000433065 -0.000127603 -2.37343e-19 -0.000930007 -2.01625e-19 0)
(0.000343707 -0.000296564 -5.09629e-20 -0.000809137 1.16691e-19 0)
(0.000444114 -0.00018228 3.57646e-19 -0.000840304 2.53112e-19 0)
(0.000375178 -0.000324232 -2.41273e-19 -0.00075341 -2.42905e-19 0)
(0.000462391 -0.000221209 -2.33678e-19 -0.000792234 -1.64593e-19 0)
(0.000393792 -0.000332879 -5.36512e-19 -0.000734111 -2.79633e-19 0)
(0.000437441 -0.000254048 -2.4136e-19 -0.000792546 -1.32558e-19 0)
(0.000301501 -0.000335932 4.9073e-20 -0.000763774 1.81732e-19 0)
(0.000456303 -0.000337052 -4.7045e-20 -0.000570846 -2.71704e-20 0)
(0.000926677 0.000283117 1.05659e-20 -0.002258 -2.44011e-19 1.04823e-35)
(0.000766233 0.000365716 0 -0.00227332 0 0)
(0.000771809 0.000144194 -3.53035e-19 -0.00176772 -8.08727e-19 0)
(0.000658679 0.000239053 -2.03863e-19 -0.00185285 -8.48829e-19 0)
(0.00055909 4.02288e-05 9.7878e-20 -0.00144614 1.56704e-19 0)
(0.000528174 0.000135444 -1.72664e-20 -0.0015239 1.90072e-20 0)
(0.000412138 -4.08437e-05 3.20165e-19 -0.00120389 4.02246e-19 0)
(0.000441649 5.34127e-05 3.03033e-19 -0.00126929 5.38903e-19 0)
(0.000323961 -0.000105387 3.77137e-19 -0.00102019 4.39687e-19 0)
(0.000388952 -1.12896e-05 1.43538e-19 -0.00106999 2.08031e-19 0)
(0.000275725 -0.000154105 1.81145e-19 -0.000879839 1.23414e-19 0)
(0.000360123 -6.21784e-05 8.56356e-20 -0.000916773 1.13472e-19 0)
(0.000261704 -0.000188051 -4.33327e-19 -0.000775593 -3.87339e-19 0)
(0.0003528 -0.000101025 -2.98799e-19 -0.000807183 -3.33395e-19 0)
(0.000276574 -0.000208407 1.58719e-21 -0.00070336 2.7771e-20 0)
(0.000354699 -0.000128828 7.20916e-21 -0.000741329 2.05641e-20 0)
(0.000284584 -0.000217112 -7.9423e-20 -0.00065988 -6.05635e-20 0)
(0.000316207 -0.000150806 -7.6695e-20 -0.000721777 -9.08078e-20 0)
(0.000202591 -0.000216576 -3.17146e-19 -0.000649846 -2.44632e-19 0)
(0.000302972 -0.000206273 2.48591e-20 -0.000527835 1.93146e-20 0)
(0.00103048 2.80301e-05 -2.79363e-22 -0.00231741 -1.00442e-22 -4.35626e-40)
(0.000805973 0.000182818 -1.82689e-19 -0.00235985 4.05903e-19 0)
(0.000902767 2.78467e-05 -5.85971e-20 -0.00175915 4.69549e-19 0)
(0.000612688 0.000125238 1.54511e-19 -0.0019702 2.40513e-19 0)
(0.000649951 2.33399e-06 3.38143e-20 -0.00142918 -2.77564e-19 0)
(0.000456405 7.71604e-05 4.72258e-20 -0.00161567 -2.60164e-19 0)
(0.000463458 -2.76998e-05 -1.24629e-19 -0.00118751 -4.13488e-19 0)
(0.00035718 4.16646e-05 -1.60667e-19 -0.00132519 -5.21513e-19 0)
(0.000342699 -5.24858e-05 -3.23175e-20 -0.00100185 -9.85029e-20 0)
(0.00029411 1.52392e-05 6.93393e-21 -0.00109881 -1.81775e-19 0)
(0.000269833 -6.904e-05 -1.36442e-19 -0.000858512 -2.97059e-19 0)
(0.000256208 -7.01325e-06 -1.18352e-19 -0.000930407 -3.40745e-19 0)
(0.00023716 -7.95931e-05 -4.87149e-20 -0.000751189 -7.11705e-20 0)
(0.000240477 -2.67343e-05 -5.13383e-20 -0.000810942 -2.88551e-19 0)
(0.000237312 -8.65241e-05 -1.70452e-19 -0.0006721 -2.88479e-19 0)
(0.000237324 -3.96464e-05 -9.81813e-20 -0.000724345 -3.78724e-19 0)
(0.000232826 -8.82133e-05 -1.6815e-19 -0.000608052 -2.57198e-19 0)
(0.000212956 -3.69564e-05 -9.60133e-20 -0.000646285 -3.32121e-19 0)
(0.000151674 -7.79096e-05 -1.30687e-19 -0.00054585 -1.82261e-19 0)
(0.000199529 -4.47876e-05 -4.03216e-20 -0.000460538 -1.37816e-19 0)
(0.000127947 -3.98888e-05 2.53882e-20 -0.000148055 -2.64625e-20 0)
(0.000252386 -0.000129178 -2.98514e-20 -0.000149342 -1.3038e-20 0)
(0.000245927 -0.000229731 9.8363e-20 -0.00015831 2.90799e-20 0)
(0.000340845 -0.000294895 -3.54941e-20 -0.000169346 -1.55327e-20 0)
(0.00037287 -0.000397075 -6.53186e-20 -0.00023692 -3.48957e-20 0)
(0.000470108 -0.00045747 3.45523e-20 -0.000229521 -2.10303e-20 0)
(0.000579713 -0.000552165 -5.27102e-20 -0.000327388 -2.07412e-20 0)
(0.000637844 -0.00061045 2.17602e-19 -0.000331741 3.65447e-20 0)
(0.000841429 -0.000675473 -7.67889e-20 -0.00044579 -1.31593e-20 0)
(0.000845011 -0.000738385 -4.13765e-19 -0.000467156 -9.78023e-20 0)
(0.00113865 -0.000755386 2.63039e-19 -0.000591075 -3.80413e-20 0)
(0.00109027 -0.000827906 2.3141e-19 -0.000623879 -1.05498e-19 0)
(0.0014565 -0.000785872 1.37928e-19 -0.000753766 -6.48582e-20 0)
(0.00136685 -0.000873631 7.3829e-20 -0.000789843 -1.51599e-19 0)
(0.00178004 -0.000763281 1.18826e-19 -0.00091878 5.708e-20 0)
(0.00165735 -0.000870741 2.35575e-19 -0.000953491 -2.03068e-21 0)
(0.00209158 -0.00068731 -2.16823e-19 -0.00105965 3.88528e-20 0)
(0.00189395 -0.000790001 -5.22784e-20 -0.00114225 1.3515e-19 0)
(0.00233707 -0.000567361 4.49791e-19 -0.0011675 7.19755e-20 0)
(0.00216463 -0.000673638 1.56931e-19 -0.00139911 -1.26546e-19 0)
(0.000125797 -2.72553e-05 -5.0003e-21 -0.000164882 -3.90767e-20 0)
(0.00027042 -0.000136286 -3.33783e-20 -0.000166647 -2.34704e-20 0)
(0.000217356 -0.000213779 6.47784e-20 -0.000158532 1.67134e-20 0)
(0.000359782 -0.00030155 -4.40155e-20 -0.000206821 -1.19085e-20 0)
(0.000341594 -0.000384884 9.34763e-20 -0.000216533 2.60174e-20 0)
(0.000478475 -0.000458147 -8.03657e-20 -0.000285035 -2.31625e-20 0)
(0.000512428 -0.000538729 -8.95367e-20 -0.000303352 -2.18179e-20 0)
(0.000631461 -0.000596016 0 -0.000392342 0 0)
(0.000731647 -0.000665055 1.02402e-19 -0.000412109 2.6142e-20 0)
(0.000817867 -0.000706315 1.15666e-19 -0.000524791 2.83117e-20 0)
(0.000987423 -0.000754467 -2.52171e-19 -0.000541835 -5.59071e-20 0)
(0.00103167 -0.000780415 -1.04156e-19 -0.000676302 -2.54693e-21 0)
(0.0012647 -0.000802496 3.19665e-19 -0.000687071 1.1909e-19 0)
(0.0012596 -0.000811123 -3.89451e-20 -0.000842869 -1.21676e-20 0)
(0.00155148 -0.000808691 -1.78736e-19 -0.000837124 -7.72498e-20 0)
(0.00149236 -0.000797614 -3.0145e-19 -0.00101237 -1.61222e-19 0)
(0.00184153 -0.000773837 -1.94318e-19 -0.000977359 -9.56233e-20 0)
(0.00175583 -0.000755602 1.84947e-19 -0.00114128 1.0607e-19 0)
(0.00209271 -0.000698014 3.55443e-19 -0.00112214 2.11544e-19 0)
(0.00201164 -0.000663891 2.65114e-19 -0.0012761 1.67907e-19 0)
(0.000270497 -3.18106e-05 -1.84945e-20 -0.000184089 -2.62769e-20 0)
(0.000391422 -0.000130357 9.63585e-21 -0.000188356 -8.39521e-21 0)
(0.00033563 -0.000194525 6.57328e-22 -0.000200454 -1.19541e-20 0)
(0.000475039 -0.000285985 1.0188e-19 -0.000231723 1.40133e-20 0)
(0.000450634 -0.000346919 4.8527e-20 -0.000253443 6.15964e-22 0)
(0.000584961 -0.000428028 -5.22466e-20 -0.000307889 -3.12398e-20 0)
(0.000599862 -0.000480007 -3.5249e-20 -0.000331741 6.91683e-21 0)
(0.000722958 -0.00054916 1.36218e-19 -0.000405089 4.86312e-20 0)
(0.000783025 -0.000587403 0 -0.000427587 0 0)
(0.00088696 -0.000643347 -1.16287e-19 -0.000521409 -3.57738e-20 0)
(0.0009959 -0.00066407 -2.20059e-19 -0.000537473 -6.65103e-20 0)
(0.00107124 -0.000705819 1.0261e-19 -0.000653576 3.44636e-20 0)
(0.00122767 -0.000705876 2.07842e-19 -0.000657781 7.39826e-20 0)