/*--------------------------------*- C++ -*----------------------------------*\
| =========                 |                                                 |
| \\      /  F ield         | OpenFOAM: The Open Source CFD Toolbox           |
|  \\    /   O peration     | Version:  v2012                                 |
|   \\  /    A nd           | Website:  www.openfoam.com                      |
|    \\/     M anipulation  |                                                 |
\*---------------------------------------------------------------------------*/
FoamFile
{
    version     2.0;
    format      ascii;
    class       volScalarField;
    location    "9";
    object      sigmaHyd;
}
// * * * * * * * * * * * * * * * * * * * * * * * * * * * * * * * * * * * * * //

dimensions      [1 -1 -2 0 0 0 0];


internalField   nonuniform List<scalar> 
2000
(
1.43205e+08
1.46078e+08
1.56022e+08
1.58976e+08
1.67491e+08
1.69636e+08
1.76302e+08
1.77592e+08
1.82534e+08
1.82267e+08
1.85053e+08
1.82695e+08
1.82839e+08
1.78072e+08
1.74384e+08
1.6734e+08
1.60232e+08
1.52996e+08
1.45121e+08
1.38789e+08
1.41534e+08
1.43921e+08
1.52323e+08
1.55999e+08
1.63735e+08
1.65235e+08
1.71529e+08
1.70038e+08
1.75226e+08
1.70376e+08
1.74598e+08
1.67061e+08
1.69886e+08
1.6048e+08
1.60749e+08
1.50918e+08
1.48928e+08
1.40265e+08
1.36918e+08
1.29452e+08
1.41163e+08
1.43191e+08
1.50764e+08
1.51988e+08
1.5862e+08
1.55681e+08
1.60919e+08
1.54056e+08
1.58635e+08
1.49643e+08
1.53887e+08
1.44385e+08
1.47819e+08
1.38533e+08
1.40516e+08
1.32087e+08
1.32652e+08
1.25253e+08
1.24448e+08
1.17976e+08
1.38641e+08
1.37868e+08
1.44096e+08
1.406e+08
1.45419e+08
1.38147e+08
1.41752e+08
1.33104e+08
1.36551e+08
1.2842e+08
1.3196e+08
1.2452e+08
1.27615e+08
1.20724e+08
1.23019e+08
1.16718e+08
1.18117e+08
1.12422e+08
1.12803e+08
1.07741e+08
1.30998e+08
1.27397e+08
1.31409e+08
1.25229e+08
1.27597e+08
1.20263e+08
1.22571e+08
1.15654e+08
1.18431e+08
1.12184e+08
1.15165e+08
1.0939e+08
1.12185e+08
1.0679e+08
1.09189e+08
1.04201e+08
1.06088e+08
1.01541e+08
1.02761e+08
9.86744e+07
1.1897e+08
1.14216e+08
1.16793e+08
1.10172e+08
1.11779e+08
1.04891e+08
1.07057e+08
1.00855e+08
1.03678e+08
9.81379e+07
1.01206e+08
9.61301e+07
9.91242e+07
9.44329e+07
9.72062e+07
9.29034e+07
9.53707e+07
9.14621e+07
9.34744e+07
8.9922e+07
1.05269e+08
9.92647e+07
1.01607e+08
9.42766e+07
9.61794e+07
8.93111e+07
9.21055e+07
8.6167e+07
8.95982e+07
8.43855e+07
8.798e+07
8.32812e+07
8.6779e+07
8.2504e+07
8.58168e+07
8.1946e+07
8.50347e+07
8.15488e+07
8.42824e+07
8.11085e+07
8.85034e+07
8.1391e+07
8.45373e+07
7.6759e+07
7.97148e+07
7.29368e+07
7.67552e+07
7.10906e+07
7.53847e+07
7.0501e+07
7.48249e+07
7.04901e+07
7.4634e+07
7.07526e+07
7.46623e+07
7.12092e+07
7.48783e+07
7.18378e+07
7.51733e+07
7.24932e+07
6.90484e+07
6.14627e+07
6.57023e+07
5.80698e+07
6.23447e+07
5.59665e+07
6.09448e+07
5.56923e+07
6.09448e+07
5.6437e+07
6.16011e+07
5.76118e+07
6.25525e+07
5.89901e+07
6.37043e+07
6.05279e+07
6.50664e+07
6.22033e+07
6.65816e+07
6.39664e+07
4.83946e+07
4.08851e+07
4.61649e+07
3.91051e+07
4.46511e+07
3.89032e+07
4.49535e+07
4.02292e+07
4.63435e+07
4.22595e+07
4.81558e+07
4.44719e+07
5.00627e+07
4.6564e+07
5.1866e+07
4.82186e+07
5.33799e+07
4.92303e+07
5.46032e+07
5.01898e+07
2.7739e+07
2.06574e+07
2.68096e+07
2.05848e+07
2.72278e+07
2.22774e+07
2.92082e+07
2.51273e+07
3.19072e+07
2.83297e+07
3.47212e+07
3.13892e+07
3.72167e+07
3.37805e+07
3.883e+07
3.48565e+07
3.93641e+07
3.554e+07
4.17671e+07
4.23321e+07
7.90514e+06
1.47521e+06
8.30225e+06
3.09669e+06
1.06249e+07
6.62697e+06
1.42205e+07
1.09307e+07
1.81607e+07
1.52272e+07
2.18974e+07
1.90382e+07
2.4898e+07
2.17767e+07
2.6543e+07
2.32037e+07
2.76603e+07
2.58443e+07
3.34946e+07
3.42606e+07
-1.05288e+07
-1.61457e+07
-8.83222e+06
-1.29036e+07
-4.69497e+06
-7.67723e+06
389570
-2.08542e+06
5.43037e+06
3.15378e+06
9.97116e+06
7.67601e+06
1.35448e+07
1.10401e+07
1.58037e+07
1.3303e+07
1.81323e+07
1.67315e+07
2.48502e+07
2.54897e+07
-2.71296e+07
-3.18257e+07
-2.42191e+07
-2.71186e+07
-1.84502e+07
-2.04147e+07
-1.20759e+07
-1.3737e+07
-6.10394e+06
-7.71208e+06
-855974
-2.57077e+06
3.31956e+06
1.34266e+06
6.1881e+06
4.07522e+06
9.00212e+06
7.78332e+06
1.59111e+07
1.66021e+07
-4.15724e+07
-4.52896e+07
-3.75887e+07
-3.93317e+07
-3.04338e+07
-3.14152e+07
-2.3007e+07
-2.38833e+07
-1.63012e+07
-1.7264e+07
-1.05036e+07
-1.16674e+07
-5.87381e+06
-7.3806e+06
-2.63119e+06
-4.35614e+06
426497
-493220
7.36621e+06
8.24653e+06
-5.3663e+07
-5.64019e+07
-4.87818e+07
-4.94287e+07
-4.05101e+07
-4.05568e+07
-3.22712e+07
-3.23868e+07
-2.50297e+07
-2.53546e+07
-1.88484e+07
-1.94538e+07
-1.39083e+07
-1.49061e+07
-1.03995e+07
-1.16484e+07
-7.15729e+06
-7.66586e+06
-277727
873270
-6.33607e+07
-6.51658e+07
-5.77519e+07
-5.73594e+07
-4.85856e+07
-4.77105e+07
-3.97317e+07
-3.90883e+07
-3.21331e+07
-3.1819e+07
-2.57165e+07
-2.57475e+07
-2.0569e+07
-2.10197e+07
-1.68384e+07
-1.75455e+07
-1.34091e+07
-1.3425e+07
-6.64191e+06
-5.17979e+06
-7.07156e+07
-7.16107e+07
-6.44644e+07
-6.29806e+07
-5.45042e+07
-5.26898e+07
-4.52226e+07
-4.38831e+07
-3.74773e+07
-3.65883e+07
-3.09849e+07
-3.04894e+07
-2.57358e+07
-2.56709e+07
-2.18188e+07
-2.19867e+07
-1.81545e+07
-1.76581e+07
-1.14903e+07
-9.74152e+06
-7.57031e+07
-7.57095e+07
-6.87284e+07
-6.61288e+07
-5.81248e+07
-5.56966e+07
-4.88187e+07
-4.70868e+07
-4.11903e+07
-3.99178e+07
-3.47687e+07
-3.38781e+07
-2.9521e+07
-2.9039e+07
-2.54562e+07
-2.51478e+07
-2.14855e+07
-2.04977e+07
-1.48526e+07
-1.28109e+07
-7.87224e+07
-7.79495e+07
-7.0714e+07
-6.77143e+07
-6.01708e+07
-5.7559e+07
-5.12215e+07
-4.91173e+07
-4.37273e+07
-4.19712e+07
-3.7362e+07
-3.59587e+07
-3.21616e+07
-3.1133e+07
-2.79871e+07
-2.70456e+07
-2.3541e+07
-2.18785e+07
-1.65348e+07
-1.40938e+07
-5.70951e+06
-721767
-3.89817e+06
2.06649e+06
-268723
6.314e+06
4.67921e+06
1.16498e+07
1.08074e+07
1.79074e+07
1.79427e+07
2.49322e+07
2.58362e+07
3.25064e+07
3.41192e+07
4.02315e+07
4.21457e+07
4.73753e+07
4.96096e+07
5.44273e+07
5.14351e+06
7.66546e+06
7.01405e+06
1.01014e+07
1.0594e+07
1.38331e+07
1.51526e+07
1.82994e+07
2.04348e+07
2.33564e+07
2.63281e+07
2.89197e+07
3.26801e+07
3.48105e+07
3.92219e+07
4.07708e+07
4.55759e+07
4.68136e+07
5.162e+07
5.20825e+07
1.04625e+07
1.22634e+07
1.2056e+07
1.43041e+07
1.503e+07
1.734e+07
1.86987e+07
2.09096e+07
2.28784e+07
2.49369e+07
2.7526e+07
2.93857e+07
3.25517e+07
3.42243e+07
3.78896e+07
3.95691e+07
4.35711e+07
4.51628e+07
4.89268e+07
5.03432e+07
1.49958e+07
1.69281e+07
1.6393e+07
1.87091e+07
1.88923e+07
2.12812e+07
2.19309e+07
2.42955e+07
2.5398e+07
2.77327e+07
2.93075e+07
3.16496e+07
3.3707e+07
3.61558e+07
3.87026e+07
4.12326e+07
4.40881e+07
4.6399e+07
4.91475e+07
5.08669e+07
2.01675e+07
2.22096e+07
2.13849e+07
2.37542e+07
2.35464e+07
2.59942e+07
2.61838e+07
2.86527e+07
2.92396e+07
3.17543e+07
3.2785e+07
3.53881e+07
3.69063e+07
3.95737e+07
4.15516e+07
4.40947e+07
4.63181e+07
4.84534e+07
5.05409e+07
5.21136e+07
2.55882e+07
2.75485e+07
2.66126e+07
2.8849e+07
2.848e+07
3.07906e+07
3.08029e+07
3.31469e+07
3.35503e+07
3.59418e+07
3.67869e+07
3.9211e+07
4.0512e+07
4.28757e+07
4.45514e+07
4.67011e+07
4.85402e+07
5.03382e+07
5.20504e+07
5.34531e+07
3.07497e+07
3.25289e+07
3.15819e+07
3.35901e+07
3.31631e+07
3.52359e+07
3.51814e+07
3.72772e+07
3.76022e+07
3.97114e+07
4.04449e+07
4.25278e+07
4.36517e+07
4.56326e+07
4.70567e+07
4.88487e+07
5.04075e+07
5.19346e+07
5.34192e+07
5.46565e+07
3.54427e+07
3.70235e+07
3.60968e+07
3.78614e+07
3.73983e+07
3.92154e+07
3.91038e+07
4.09298e+07
4.11683e+07
4.29834e+07
4.35815e+07
4.53502e+07
4.62806e+07
4.79512e+07
4.9139e+07
5.06522e+07
5.19731e+07
5.32715e+07
5.45713e+07
5.56268e+07
3.96485e+07
4.10462e+07
4.01425e+07
4.16813e+07
4.11789e+07
4.2759e+07
4.25771e+07
4.4158e+07
4.42895e+07
4.58496e+07
4.62948e+07
4.7804e+07
4.85373e+07
4.99537e+07
5.09159e+07
5.21919e+07
5.32882e+07
5.43784e+07
5.54906e+07
5.63739e+07
4.34149e+07
4.46532e+07
4.37666e+07
4.51069e+07
4.45596e+07
4.59314e+07
4.56708e+07
4.7039e+07
4.70553e+07
4.83978e+07
4.86871e+07
4.99758e+07
5.05158e+07
5.17155e+07
5.24599e+07
5.35328e+07
5.44104e+07
5.53253e+07
5.62487e+07
5.69954e+07
4.68067e+07
4.79111e+07
4.70321e+07
4.82025e+07
4.76051e+07
4.87981e+07
4.84543e+07
4.96401e+07
4.95387e+07
5.06945e+07
5.08286e+07
5.1928e+07
5.22793e+07
5.32928e+07
5.38267e+07
5.47245e+07
5.53904e+07
5.61472e+07
5.68854e+07
5.74842e+07
4.98934e+07
5.08893e+07
5.00054e+07
5.10343e+07
5.03799e+07
5.14227e+07
5.09909e+07
5.20228e+07
5.1801e+07
5.27984e+07
5.27774e+07
5.37148e+07
5.38803e+07
5.4731e+07
5.50584e+07
5.57966e+07
5.62508e+07
5.6855e+07
5.73953e+07
5.78611e+07
5.27461e+07
5.36583e+07
5.27543e+07
5.3669e+07
5.29484e+07
5.38685e+07
5.33421e+07
5.4247e+07
5.39e+07
5.47645e+07
5.45856e+07
5.53845e+07
5.53632e+07
5.60731e+07
5.61929e+07
5.67933e+07
5.70297e+07
5.75061e+07
5.78355e+07
5.81894e+07
5.54358e+07
5.62878e+07
5.53468e+07
5.61725e+07
5.53747e+07
5.61979e+07
5.55686e+07
5.63715e+07
5.58922e+07
5.66473e+07
5.63047e+07
5.69874e+07
5.67755e+07
5.73667e+07
5.72778e+07
5.77644e+07
5.77849e+07
5.81593e+07
5.82737e+07
5.85305e+07
5.80311e+07
5.88442e+07
5.7848e+07
5.86073e+07
5.77203e+07
5.847e+07
5.77286e+07
5.84524e+07
5.7832e+07
5.84999e+07
5.79856e+07
5.85736e+07
5.8165e+07
5.86567e+07
5.83551e+07
5.87373e+07
5.85386e+07
5.87957e+07
5.86908e+07
5.88066e+07
6.05968e+07
6.13913e+07
6.03197e+07
6.10347e+07
6.00449e+07
6.07477e+07
5.98811e+07
6.05539e+07
5.97764e+07
6.03822e+07
5.96797e+07
6.01921e+07
5.95718e+07
5.99753e+07
5.94471e+07
5.97297e+07
5.92943e+07
5.94442e+07
5.90961e+07
5.91168e+07
6.32007e+07
6.39996e+07
6.28314e+07
6.35377e+07
6.24279e+07
6.31326e+07
6.21123e+07
6.27786e+07
6.18064e+07
6.23818e+07
6.14534e+07
6.19092e+07
6.10452e+07
6.13704e+07
6.05904e+07
6.07798e+07
6.00892e+07
6.01356e+07
5.95355e+07
5.94363e+07
6.59241e+07
6.67526e+07
6.54903e+07
6.62533e+07
6.50115e+07
6.57783e+07
6.45635e+07
6.52519e+07
6.40359e+07
6.45841e+07
6.33868e+07
6.37737e+07
6.2635e+07
6.28608e+07
6.18111e+07
6.18793e+07
6.09262e+07
6.08337e+07
5.99681e+07
5.97111e+07
6.8813e+07
6.96313e+07
6.8391e+07
6.91708e+07
6.78902e+07
6.86099e+07
6.72769e+07
6.7844e+07
6.64573e+07
6.68319e+07
6.54391e+07
6.56301e+07
6.42829e+07
6.43063e+07
6.30412e+07
6.29053e+07
6.17297e+07
6.14292e+07
6.03277e+07
5.98736e+07
7.14769e+07
7.18015e+07
7.10286e+07
7.12526e+07
7.04439e+07
7.05732e+07
6.96128e+07
6.95849e+07
6.84776e+07
6.83052e+07
6.71094e+07
6.68195e+07
6.55899e+07
6.52078e+07
6.39851e+07
6.35316e+07
6.23227e+07
6.17996e+07
6.05814e+07
5.99947e+07
5.71607e+07
5.87126e+07
6.13496e+07
6.20094e+07
6.43962e+07
6.44226e+07
6.66169e+07
6.65125e+07
6.86338e+07
6.85882e+07
7.06464e+07
7.06981e+07
7.26654e+07
7.28141e+07
7.46623e+07
7.49056e+07
7.66164e+07
7.69578e+07
7.85245e+07
7.89731e+07
8.03993e+07
8.09677e+07
8.22658e+07
8.29673e+07
8.4157e+07
8.50029e+07
8.6109e+07
8.71058e+07
8.8156e+07
8.93024e+07
9.03291e+07
9.16191e+07
9.26815e+07
9.41226e+07
9.53471e+07
9.69612e+07
9.84503e+07
1.00123e+08
1.01312e+08
1.02224e+08
5.58546e+07
5.55954e+07
5.84786e+07
5.79615e+07
6.07415e+07
6.02322e+07
6.29594e+07
6.25944e+07
6.52676e+07
6.50418e+07
6.76381e+07
6.75193e+07
7.00217e+07
6.99896e+07
7.23874e+07
7.2436e+07
7.47226e+07
7.48552e+07
7.7028e+07
7.72519e+07
7.93142e+07
7.9637e+07
8.15981e+07
8.20257e+07
8.39004e+07
8.44348e+07
8.62417e+07
8.68794e+07
8.86381e+07
8.93683e+07
9.1101e+07
9.19099e+07
9.36621e+07
9.45487e+07
9.64285e+07
9.74075e+07
9.95031e+07
1.00462e+08
1.0222e+08
1.02513e+08
5.32575e+07
5.35612e+07
5.55117e+07
5.57243e+07
5.77802e+07
5.80178e+07
6.01964e+07
6.0473e+07
6.27173e+07
6.3018e+07
6.5277e+07
6.55924e+07
6.78373e+07
6.81659e+07
7.03823e+07
7.0727e+07
7.2908e+07
7.32733e+07
7.54155e+07
7.5804e+07
7.79098e+07
7.83214e+07
8.04007e+07
8.08361e+07
8.29009e+07
8.33607e+07
8.54224e+07
8.59044e+07
8.79714e+07
8.84688e+07
9.05483e+07
9.10526e+07
9.317e+07
9.36852e+07
9.59216e+07
9.64687e+07
9.88918e+07
9.93895e+07
1.01505e+08
1.01339e+08
5.28108e+07
5.35938e+07
5.48391e+07
5.55236e+07
5.6922e+07
5.75861e+07
5.91949e+07
5.9838e+07
6.16083e+07
6.22148e+07
6.40931e+07
6.46578e+07
6.66079e+07
6.71342e+07
6.91341e+07
6.96313e+07
7.16642e+07
7.21412e+07
7.41866e+07
7.46352e+07
7.66912e+07
7.71034e+07
7.91852e+07
7.95675e+07
8.16821e+07
8.20376e+07
8.4191e+07
8.45175e+07
8.67126e+07
8.70028e+07
8.92402e+07
8.94856e+07
9.17805e+07
9.19846e+07
9.44021e+07
9.4583e+07
9.71789e+07
9.72509e+07
9.95735e+07
9.89931e+07
5.35406e+07
5.44411e+07
5.53463e+07
5.6146e+07
5.71778e+07
5.79461e+07
5.91889e+07
5.99229e+07
6.13516e+07
6.20412e+07
6.36125e+07
6.42488e+07
6.59361e+07
6.65206e+07
6.83119e+07
6.88504e+07
7.07363e+07
7.12175e+07
7.31452e+07
7.35093e+07
7.5493e+07
7.58124e+07
7.78445e+07
7.81105e+07
8.02039e+07
8.04085e+07
8.25721e+07
8.27126e+07
8.4943e+07
8.50128e+07
8.73042e+07
8.72913e+07
8.96556e+07
8.95638e+07
9.20467e+07
9.1882e+07
9.45216e+07
9.41992e+07
9.65986e+07
9.5678e+07
5.46272e+07
5.54951e+07
5.62239e+07
5.69817e+07
5.78084e+07
5.85167e+07
5.9554e+07
6.02437e+07
6.14687e+07
6.21188e+07
6.34897e+07
6.40798e+07
6.55766e+07
6.60913e+07
6.77012e+07
6.81229e+07
6.98448e+07
7.01504e+07
7.19491e+07
7.22599e+07
7.41762e+07
7.43965e+07
7.63511e+07
7.64716e+07
7.84881e+07
7.85087e+07
8.06288e+07
8.05886e+07
8.27675e+07
8.26067e+07
8.48733e+07
8.46164e+07
8.69626e+07
8.65991e+07
8.90501e+07
8.85842e+07
9.11534e+07
9.0505e+07
9.28629e+07
9.16963e+07
5.56982e+07
5.64557e+07
5.70828e+07
5.76856e+07
5.8369e+07
5.89458e+07
5.98577e+07
6.0413e+07
6.15071e+07
6.19996e+07
6.32417e+07
6.3655e+07
6.50364e+07
6.53807e+07
6.68663e+07
6.71451e+07
6.87345e+07
6.89872e+07
7.06933e+07
7.08556e+07
7.26572e+07
7.27047e+07
7.45729e+07
7.45195e+07
7.64543e+07
7.63206e+07
7.83458e+07
7.80941e+07
8.01883e+07
7.98287e+07
8.20178e+07
8.15576e+07
8.38112e+07
8.32341e+07
8.55872e+07
8.49151e+07
8.73117e+07
8.64093e+07
8.86504e+07
8.73487e+07
5.65629e+07
5.71649e+07
5.77169e+07
5.81986e+07
5.88069e+07
5.92552e+07
6.00467e+07
6.0466e+07
6.14157e+07
6.17868e+07
6.28615e+07
6.31868e+07
6.44242e+07
6.47424e+07
6.60939e+07
6.63568e+07
6.77576e+07
6.78865e+07
6.93818e+07
6.93999e+07
7.10118e+07
7.09296e+07
7.2642e+07
7.24602e+07
7.42585e+07
7.39626e+07
7.58304e+07
7.54082e+07
7.73471e+07
7.68257e+07
7.88878e+07
7.82986e+07
8.043e+07
7.97505e+07
8.19367e+07
8.10617e+07
8.32427e+07
8.22294e+07
8.42824e+07
8.29055e+07
5.71901e+07
5.76718e+07
5.81463e+07
5.85097e+07
5.9036e+07
5.93548e+07
6.00665e+07
6.03907e+07
6.12388e+07
6.15241e+07
6.24762e+07
6.26958e+07
6.38321e+07
6.40124e+07
6.52616e+07
6.53328e+07
6.66153e+07
6.65605e+07
6.79263e+07
6.77827e+07
6.92469e+07
6.90174e+07
7.05723e+07
7.02483e+07
7.18816e+07
7.14581e+07
7.31583e+07
7.26461e+07
7.44201e+07
7.38368e+07
7.57057e+07
7.50194e+07
7.69587e+07
7.61238e+07
7.80947e+07
7.71178e+07
7.91116e+07
7.79557e+07
7.98353e+07
7.84252e+07
5.76816e+07
5.80677e+07
5.8441e+07
5.87097e+07
5.91075e+07
5.93619e+07
5.99903e+07
6.02806e+07
6.09756e+07
6.1114e+07
6.18916e+07
6.20017e+07
6.30053e+07
6.31127e+07
6.41767e+07
6.41193e+07
6.52251e+07
6.50944e+07
6.62867e+07
6.60899e+07
6.73689e+07
6.70925e+07
6.84497e+07
6.80847e+07
6.95128e+07
6.90567e+07
7.05525e+07
7.00041e+07
7.15718e+07
7.09187e+07
7.25576e+07
7.17788e+07
7.34705e+07
7.25579e+07
7.42858e+07
7.32346e+07
7.49757e+07
7.37685e+07
7.54392e+07
7.40511e+07
5.80592e+07
5.83557e+07
5.86728e+07
5.88749e+07
5.92096e+07
5.93947e+07
5.98834e+07
6.00141e+07
6.06006e+07
6.06827e+07
6.13616e+07
6.14162e+07
6.22368e+07
6.22136e+07
6.31106e+07
6.30059e+07
6.39604e+07
6.37812e+07
6.48048e+07
6.45476e+07
6.56424e+07
6.52995e+07
6.64663e+07
6.60347e+07
6.72712e+07
6.67486e+07
6.8051e+07
6.74325e+07
6.87953e+07
6.80735e+07
6.94871e+07
6.86545e+07
7.01057e+07
6.9156e+07
7.06302e+07
6.95544e+07
7.10297e+07
6.98132e+07
7.12538e+07
6.99182e+07
5.83143e+07
5.85367e+07
5.87965e+07
5.89356e+07
5.92081e+07
5.93045e+07
5.96702e+07
5.97241e+07
6.01919e+07
6.01997e+07
6.07724e+07
6.07283e+07
6.14078e+07
6.1306e+07
6.20543e+07
6.18764e+07
6.26899e+07
6.24487e+07
6.33158e+07
6.29918e+07
6.39191e+07
6.35112e+07
6.45033e+07
6.40116e+07
6.50668e+07
6.44902e+07
6.5602e+07
6.4937e+07
6.60974e+07
6.53395e+07
6.65384e+07
6.5683e+07
6.69078e+07
6.59489e+07
6.71824e+07
6.61087e+07
6.73277e+07
6.613e+07
6.73396e+07
6.6082e+07
5.85046e+07
5.8675e+07
5.88653e+07
5.89541e+07
5.91473e+07
5.9174e+07
5.94307e+07
5.94098e+07
5.97531e+07
5.96859e+07
6.01207e+07
6.0013e+07
6.05596e+07
6.04104e+07
6.1024e+07
6.08205e+07
6.14833e+07
6.11887e+07
6.18898e+07
6.15168e+07
6.22649e+07
6.18137e+07
6.26215e+07
6.20996e+07
6.29626e+07
6.23679e+07
6.3278e+07
6.26057e+07
6.35547e+07
6.28004e+07
6.37794e+07
6.29388e+07
6.39357e+07
6.30024e+07
6.3997e+07
6.29577e+07
6.39245e+07
6.27749e+07
6.37538e+07
6.25934e+07
5.86804e+07
5.87797e+07
5.88821e+07
5.88971e+07
5.90073e+07
5.8975e+07
5.91415e+07
5.90822e+07
5.9313e+07
5.92235e+07
5.95249e+07
5.94026e+07
5.97829e+07
5.9604e+07
6.00485e+07
5.97895e+07
6.03006e+07
5.99949e+07
6.05335e+07
6.01441e+07
6.07136e+07
6.02678e+07
6.08845e+07
6.03775e+07
6.10398e+07
6.04636e+07
6.1166e+07
6.05164e+07
6.12518e+07
6.05267e+07
6.12869e+07
6.04844e+07
6.12568e+07
6.03714e+07
6.11323e+07
6.01501e+07
6.08707e+07
5.97918e+07
6.05405e+07
5.94971e+07
5.87993e+07
5.88424e+07
5.88552e+07
5.88415e+07
5.88729e+07
5.88232e+07
5.89026e+07
5.88186e+07
5.89547e+07
5.88307e+07
5.90272e+07
5.88565e+07
5.91066e+07
5.8881e+07
5.91737e+07
5.89027e+07
5.92578e+07
5.89312e+07
5.93275e+07
5.894e+07
5.93664e+07
5.89179e+07
5.93763e+07
5.8865e+07
5.93574e+07
5.8784e+07
5.93073e+07
5.86736e+07
5.92209e+07
5.85274e+07
5.90904e+07
5.83365e+07
5.89022e+07
5.80824e+07
5.86237e+07
5.7723e+07
5.82089e+07
5.72315e+07
5.7754e+07
5.68549e+07
5.89416e+07
5.89529e+07
5.88786e+07
5.8842e+07
5.87866e+07
5.87112e+07
5.86902e+07
5.85696e+07
5.86018e+07
5.84344e+07
5.85369e+07
5.83382e+07
5.84857e+07
5.82394e+07
5.8419e+07
5.81062e+07
5.83377e+07
5.79663e+07
5.82462e+07
5.78214e+07
5.81333e+07
5.76569e+07
5.79914e+07
5.74673e+07
5.78269e+07
5.72637e+07
5.76422e+07
5.70407e+07
5.74304e+07
5.679e+07
5.71832e+07
5.65033e+07
5.68869e+07
5.61625e+07
5.65055e+07
5.57207e+07
5.59901e+07
5.51514e+07
5.54575e+07
5.47321e+07
5.90965e+07
5.90492e+07
5.89243e+07
5.88451e+07
5.8742e+07
5.86169e+07
5.85158e+07
5.83319e+07
5.82688e+07
5.8063e+07
5.80864e+07
5.78618e+07
5.79056e+07
5.75889e+07
5.76583e+07
5.72932e+07
5.741e+07
5.70006e+07
5.71752e+07
5.6751e+07
5.69517e+07
5.64869e+07
5.67065e+07
5.62188e+07
5.64578e+07
5.59449e+07
5.61957e+07
5.5656e+07
5.59113e+07
5.53468e+07
5.56e+07
5.50152e+07
5.52525e+07
5.46461e+07
5.48274e+07
5.4182e+07
5.42705e+07
5.36025e+07
5.37176e+07
5.32033e+07
5.91778e+07
5.90413e+07
5.88767e+07
5.87534e+07
5.86149e+07
5.84128e+07
5.82777e+07
5.80479e+07
5.79472e+07
5.76759e+07
5.76228e+07
5.72727e+07
5.72655e+07
5.68587e+07
5.6895e+07
5.64538e+07
5.65317e+07
5.60861e+07
5.62155e+07
5.57556e+07
5.59141e+07
5.5432e+07
5.56099e+07
5.51106e+07
5.53016e+07
5.47913e+07
5.49862e+07
5.44705e+07
5.46602e+07
5.41469e+07
5.43261e+07
5.38266e+07
5.39814e+07
5.34929e+07
5.35817e+07
5.30983e+07
5.30749e+07
5.26313e+07
5.26205e+07
5.2347e+07
5.91881e+07
5.9008e+07
5.87559e+07
5.85785e+07
5.8356e+07
5.80978e+07
5.79241e+07
5.76012e+07
5.74629e+07
5.70415e+07
5.6933e+07
5.64703e+07
5.6415e+07
5.59252e+07
5.59455e+07
5.54702e+07
5.55384e+07
5.50583e+07
5.51563e+07
5.46516e+07
5.47855e+07
5.42735e+07
5.44369e+07
5.39307e+07
5.41109e+07
5.36185e+07
5.38028e+07
5.33329e+07
5.35104e+07
5.30742e+07
5.32369e+07
5.28457e+07
5.29814e+07
5.26473e+07
5.27222e+07
5.24336e+07
5.23974e+07
5.21699e+07
5.21164e+07
5.20319e+07
5.92079e+07
5.89637e+07
5.86518e+07
5.84485e+07
5.80871e+07
5.77813e+07
5.73998e+07
5.70733e+07
5.67735e+07
5.64604e+07
5.61367e+07
5.57799e+07
5.55014e+07
5.51802e+07
5.50047e+07
5.471e+07
5.45449e+07
5.42268e+07
5.40784e+07
5.37647e+07
5.36653e+07
5.33745e+07
5.3315e+07
5.30485e+07
5.30175e+07
5.27779e+07
5.27683e+07
5.25606e+07
5.25673e+07
5.23967e+07
5.24152e+07
5.22847e+07
5.23071e+07
5.22108e+07
5.22114e+07
5.21394e+07
5.20971e+07
5.20696e+07
5.20359e+07
5.20466e+07
1.32706e+08
1.29367e+08
1.26425e+08
1.238e+08
1.21112e+08
1.18827e+08
1.16021e+08
1.13932e+08
1.10936e+08
1.09018e+08
1.0586e+08
1.04102e+08
1.00808e+08
9.91929e+07
9.57771e+07
9.42865e+07
9.07556e+07
8.93722e+07
8.57318e+07
8.44407e+07
8.06963e+07
7.94846e+07
7.56424e+07
7.44995e+07
7.05672e+07
6.94857e+07
6.54746e+07
6.44521e+07
6.0382e+07
5.94267e+07
5.53391e+07
5.448e+07
5.04592e+07
4.97444e+07
4.58936e+07
4.53051e+07
4.15644e+07
4.0907e+07
3.72358e+07
3.73731e+07
1.26912e+08
1.22654e+08
1.22091e+08
1.18502e+08
1.17796e+08
1.14625e+08
1.13547e+08
1.1068e+08
1.09206e+08
1.06616e+08
1.04792e+08
1.02463e+08
1.0033e+08
9.82424e+07
9.58248e+07
9.39585e+07
9.12743e+07
8.96107e+07
8.66735e+07
8.51972e+07
8.20184e+07
8.07172e+07
7.73074e+07
7.61734e+07
7.25437e+07
7.15742e+07
6.77386e+07
6.69393e+07
6.29201e+07
6.23089e+07
5.81485e+07
5.77581e+07
5.35238e+07
5.33668e+07
4.90834e+07
4.90413e+07
4.45634e+07
4.45278e+07
4.02722e+07
4.14833e+07
1.17569e+08
1.13396e+08
1.14173e+08
1.10561e+08
1.11107e+08
1.07881e+08
1.07986e+08
1.05058e+08
1.04685e+08
1.02041e+08
1.01226e+08
9.88608e+07
9.76393e+07
9.55454e+07
9.39454e+07
9.2113e+07
9.01543e+07
8.85759e+07
8.62737e+07
8.49446e+07
8.23108e+07
8.12302e+07
7.82751e+07
7.74465e+07
7.41804e+07
7.36127e+07
7.00487e+07
6.97571e+07
6.59166e+07
6.59247e+07
6.1844e+07
6.21783e+07
5.78962e+07
5.85531e+07
5.40308e+07
5.49556e+07
5.00684e+07
5.14014e+07
4.67192e+07
4.91641e+07
1.08303e+08
1.04813e+08
1.06123e+08
1.0307e+08
1.04156e+08
1.01419e+08
1.02104e+08
9.96244e+07
9.98541e+07
9.76301e+07
9.74122e+07
9.54519e+07
9.48054e+07
9.31133e+07
9.20552e+07
9.06335e+07
8.91783e+07
8.8029e+07
8.619e+07
8.53161e+07
8.31057e+07
8.25122e+07
7.99428e+07
7.9637e+07
7.67225e+07
7.67151e+07
7.34728e+07
7.37783e+07
7.02333e+07
7.08711e+07
6.70587e+07
6.80485e+07
6.39982e+07
6.53463e+07
6.10341e+07
6.27505e+07
5.81504e+07
6.03596e+07
5.5884e+07
5.88876e+07
9.99419e+07
9.69791e+07
9.87564e+07
9.61252e+07
9.76943e+07
9.53227e+07
9.65555e+07
9.44052e+07
9.52424e+07
9.3318e+07
9.37495e+07
9.20639e+07
9.20929e+07
9.06569e+07
9.02893e+07
8.91113e+07
8.8354e+07
8.74419e+07
8.63029e+07
8.56648e+07
8.41534e+07
8.37984e+07
8.19252e+07
8.18642e+07
7.96424e+07
7.98877e+07
7.73346e+07
7.79014e+07
7.50414e+07
7.59477e+07
7.28131e+07
7.40778e+07
7.06989e+07
7.23383e+07
6.87262e+07
7.07745e+07
6.69631e+07
6.95208e+07
6.57252e+07
6.88316e+07
9.18939e+07
8.92272e+07
9.15482e+07
8.91397e+07
9.12584e+07
8.90789e+07
9.09136e+07
8.89408e+07
9.04352e+07
8.86723e+07
8.98074e+07
8.8266e+07
8.9035e+07
8.77265e+07
8.81277e+07
8.70637e+07
8.70984e+07
8.6291e+07
8.59623e+07
8.54237e+07
8.47375e+07
8.44792e+07
8.34442e+07
8.34775e+07
8.21062e+07
8.24428e+07
8.07525e+07
8.14058e+07
7.94198e+07
8.04058e+07
7.81538e+07
7.949e+07
7.70048e+07
7.87141e+07
7.60356e+07
7.81713e+07
7.53739e+07
7.80224e+07
7.51426e+07
7.81024e+07
8.3735e+07
8.13238e+07
8.41412e+07
8.19586e+07
8.45595e+07
8.26085e+07
8.49498e+07
8.31854e+07
8.52395e+07
8.36681e+07
8.54086e+07
8.40451e+07
8.54554e+07
8.43146e+07
8.53884e+07
8.4483e+07
8.52209e+07
8.45591e+07
8.49664e+07
8.45526e+07
8.46382e+07
8.44757e+07
8.42514e+07
8.43454e+07
8.38256e+07
8.41854e+07
8.33876e+07
8.40281e+07
8.29733e+07
8.39137e+07
8.26264e+07
8.38896e+07
8.24018e+07
8.40233e+07
8.2396e+07
8.44514e+07
8.27844e+07
8.53413e+07
8.34978e+07
8.6144e+07
7.5647e+07
7.36466e+07
7.68578e+07
7.50687e+07
7.79836e+07
7.62992e+07
7.89846e+07
7.74812e+07
7.99222e+07
7.8628e+07
8.07974e+07
7.97084e+07
8.15977e+07
8.07007e+07
8.2314e+07
8.15968e+07
8.29407e+07
8.23963e+07
8.34774e+07
8.31069e+07
8.39313e+07
8.37452e+07
8.43204e+07
8.43367e+07
8.46723e+07
8.49152e+07
8.50237e+07
8.55202e+07
8.54169e+07
8.61947e+07
8.58985e+07
8.6986e+07
8.65294e+07
8.79716e+07
8.74341e+07
8.93184e+07
8.88111e+07
9.11653e+07
9.03867e+07
9.26057e+07
6.80419e+07
6.5821e+07
6.98419e+07
6.81264e+07
7.13752e+07
7.0064e+07
7.29826e+07
7.18971e+07
7.46283e+07
7.3665e+07
7.62092e+07
7.5333e+07
7.76663e+07
7.68808e+07
7.89887e+07
7.83129e+07
8.01907e+07
7.96487e+07
8.12976e+07
8.09139e+07
8.23403e+07
8.21379e+07
8.33523e+07
8.33525e+07
8.43692e+07
8.45919e+07
8.54281e+07
8.58918e+07
8.65666e+07
8.72887e+07
8.78243e+07
8.88251e+07
8.92624e+07
9.05849e+07
9.10223e+07
9.2746e+07
9.32846e+07
9.53662e+07
9.55493e+07
9.72539e+07
5.7124e+07
5.69574e+07
6.2318e+07
6.2051e+07
6.56523e+07
6.52071e+07
6.79926e+07
6.75032e+07
6.99968e+07
6.95631e+07
7.18947e+07
7.15609e+07
7.37288e+07
7.35115e+07
7.54988e+07
7.54032e+07
7.72048e+07
7.72313e+07
7.88549e+07
7.90032e+07
8.04654e+07
8.07372e+07
8.20597e+07
8.24607e+07
8.3668e+07
8.42079e+07
8.53252e+07
8.6017e+07
8.70678e+07
8.79259e+07
8.89352e+07
8.99782e+07
9.09947e+07
9.22618e+07
9.33976e+07
9.4948e+07
9.62768e+07
9.80196e+07
9.89366e+07
1.0019e+08
)
;

boundaryField
{
    back
    {
        type            empty;
    }
    front
    {
        type            empty;
    }
    left
    {
        type            symmetry;
    }
    hole
    {
        type            zeroGradient;
    }
    down
    {
        type            symmetry;
    }
    right
    {
        type            zeroGradient;
    }
    up
    {
        type            zeroGradient;
    }
}


// ************************************************************************* //
