/*--------------------------------*- C++ -*----------------------------------*\
| =========                 |                                                 |
| \\      /  F ield         | OpenFOAM: The Open Source CFD Toolbox           |
|  \\    /   O peration     | Version:  v2012                                 |
|   \\  /    A nd           | Website:  www.openfoam.com                      |
|    \\/     M anipulation  |                                                 |
\*---------------------------------------------------------------------------*/
FoamFile
{
    version     2.0;
    format      ascii;
    class       pointScalarField;
    location    "9";
    object      pEpsilonEq;
}
// * * * * * * * * * * * * * * * * * * * * * * * * * * * * * * * * * * * * * //

dimensions      [0 0 0 0 0 0 0];


internalField   nonuniform List<scalar> 
530
(
0.00166837
0.000941004
0.00132351
0.00129075
0.00648267
0.00166837
0.000941004
0.00132351
0.00129075
0.00648267
0.000912808
0.000545919
0.000410818
0.000447611
0.000538477
0.000603242
0.000680482
0.000753089
0.000835066
0.000903504
0.000961314
0.000997264
0.00100735
0.000984788
0.000977837
0.00098827
0.0010387
0.00107845
0.00115113
0.00121599
0.00125702
0.00130381
0.00131592
0.00132885
0.00134545
0.00139866
0.00146483
0.00156444
0.0016521
0.00179495
0.00190408
0.00206467
0.00216741
0.00233477
0.00249674
0.00239382
0.00243058
0.00231064
0.00212666
0.00184756
0.00146736
0.00120786
0.00170156
0.00211658
0.00286708
0.00441194
0.00649465
0.00381016
0.00223972
0.00122466
0.000901544
0.0012517
0.00159349
0.000912808
0.000545919
0.000410818
0.000447611
0.000538477
0.000603242
0.000680482
0.000753089
0.000835066
0.000903504
0.000961314
0.000997264
0.00100735
0.000984788
0.000977837
0.00098827
0.0010387
0.00107845
0.00115113
0.00121599
0.00125702
0.00130381
0.00131592
0.00132885
0.00134545
0.00139866
0.00146483
0.00156444
0.0016521
0.00179495
0.00190408
0.00206467
0.00216741
0.00233477
0.00249674
0.00239382
0.00243058
0.00231064
0.00212666
0.00184756
0.00146736
0.00120786
0.00170156
0.00211658
0.00286708
0.00441194
0.00649465
0.00381016
0.00223972
0.00122466
0.000901544
0.0012517
0.00159349
0.00171339
0.00128753
0.00233931
0.00163514
0.00113719
0.00133472
0.0010989
0.00259538
0.00129144
0.0020645
0.00102081
0.00154591
0.000947945
0.0018711
0.00119956
0.00191934
0.00138067
0.00148033
0.00239525
0.00241868
0.000997711
0.00147503
0.00102663
0.00133647
0.00202139
0.00228928
0.00175153
0.000859317
0.0012707
0.00113835
0.00204809
0.0017576
0.00109623
0.00126094
0.0014116
0.00306682
0.00134202
0.000761682
0.000774313
0.000871579
0.00167134
0.00134593
0.00149564
0.00111283
0.00216924
0.00222222
0.00188264
0.00101845
0.00138907
0.00193374
0.000911983
0.00156827
0.00126406
0.00218081
0.00188349
0.00252966
0.00227156
0.00269631
0.0011702
0.00142343
0.00118245
0.00063271
0.00109947
0.00227028
0.00113231
0.00234979
0.00194783
0.00237596
0.00167681
0.000826839
0.00149653
0.00177659
0.00133711
0.00151262
0.00126812
0.00128611
0.00103777
0.00236813
0.00207475
0.0015852
0.00123259
0.000999341
0.00132098
0.00138122
0.00120093
0.000670869
0.00130621
0.00175078
0.0016274
0.000723456
0.000903797
0.00104917
0.00099743
0.00108341
0.00161979
0.00162941
0.00133047
0.00131284
0.0010688
0.00226084
0.00191379
0.00193817
0.00140551
0.00093468
0.00189008
0.00151669
0.00235472
0.00149454
0.00150576
0.00101959
0.00136135
0.00123454
0.00133677
0.00261777
0.00244867
0.00219007
0.00153695
0.00185844
0.00243183
0.00110245
0.00114322
0.00177733
0.00116001
0.00406011
0.00249669
0.00220505
0.00163819
0.00104424
0.0013652
0.00494757
0.000618079
0.00114132
0.000554394
0.00109569
0.00116416
0.00203654
0.00177088
0.000749445
0.000969356
0.00277767
0.00151886
0.00106936
0.00124158
0.00144022
0.00143277
0.000979095
0.00334988
0.00124108
0.00186718
0.0010199
0.00120756
0.00233469
0.000922687
0.00082029
0.0018597
0.00120913
0.00205312
0.00102198
0.00243372
0.0015191
0.00234052
0.000767007
0.00153825
0.00068328
0.00226772
0.0021576
0.00128371
0.00130947
0.00100139
0.00252522
0.00123002
0.00104812
0.00188344
0.00179401
0.00223117
0.00148488
0.0020305
0.00111011
0.00141673
0.00110499
0.00119837
0.00145032
0.00209501
0.00195979
0.00206219
0.00132097
0.00165357
0.00103368
0.0015609
0.00228054
0.000982428
0.000877249
0.000504242
0.00220899
0.00197945
0.0015999
0.00144884
0.00121539
0.00159105
0.00208597
0.00100474
0.00133358
0.001968
0.00111674
0.000971805
0.00132264
0.00186155
0.00171339
0.00128753
0.00233931
0.00163514
0.00113719
0.00133472
0.0010989
0.00259538
0.00129144
0.0020645
0.00102081
0.00154591
0.000947945
0.0018711
0.00119956
0.00191934
0.00138067
0.00148033
0.00239525
0.00241868
0.000997711
0.00147503
0.00102663
0.00133647
0.00202139
0.00228928
0.00175153
0.000859317
0.0012707
0.00113835
0.00204809
0.0017576
0.00109623
0.00126094
0.0014116
0.00306682
0.00134202
0.000761682
0.000774313
0.000871579
0.00167134
0.00134593
0.00149564
0.00111283
0.00216924
0.00222222
0.00188264
0.00101845
0.00138907
0.00193374
0.000911983
0.00156827
0.00126406
0.00218081
0.00188349
0.00252966
0.00227156
0.00269631
0.0011702
0.00142343
0.00118245
0.00063271
0.00109947
0.00227028
0.00113231
0.00234979
0.00194783
0.00237596
0.00167681
0.000826839
0.00149653
0.00177659
0.00133711
0.00151262
0.00126812
0.00128611
0.00103777
0.00236813
0.00207475
0.0015852
0.00123259
0.000999341
0.00132098
0.00138122
0.00120093
0.000670869
0.00130621
0.00175078
0.0016274
0.000723456
0.000903797
0.00104917
0.00099743
0.00108341
0.00161979
0.00162941
0.00133047
0.00131284
0.0010688
0.00226084
0.00191379
0.00193817
0.00140551
0.00093468
0.00189008
0.00151669
0.00235472
0.00149454
0.00150576
0.00101959
0.00136135
0.00123454
0.00133677
0.00261777
0.00244867
0.00219007
0.00153695
0.00185844
0.00243183
0.00110245
0.00114322
0.00177733
0.00116001
0.00406011
0.00249669
0.00220505
0.00163819
0.00104424
0.0013652
0.00494757
0.000618079
0.00114132
0.000554394
0.00109569
0.00116416
0.00203654
0.00177088
0.000749445
0.000969356
0.00277767
0.00151886
0.00106936
0.00124158
0.00144022
0.00143277
0.000979095
0.00334988
0.00124108
0.00186718
0.0010199
0.00120756
0.00233469
0.000922687
0.00082029
0.0018597
0.00120913
0.00205312
0.00102198
0.00243372
0.0015191
0.00234052
0.000767007
0.00153825
0.00068328
0.00226772
0.0021576
0.00128371
0.00130947
0.00100139
0.00252522
0.00123002
0.00104812
0.00188344
0.00179401
0.00223117
0.00148488
0.0020305
0.00111011
0.00141673
0.00110499
0.00119837
0.00145032
0.00209501
0.00195979
0.00206219
0.00132097
0.00165357
0.00103368
0.0015609
0.00228054
0.000982428
0.000877249
0.000504242
0.00220899
0.00197945
0.0015999
0.00144884
0.00121539
0.00159105
0.00208597
0.00100474
0.00133358
0.001968
0.00111674
0.000971805
0.00132264
0.00186155
)
;

boundaryField
{
    back
    {
        type            empty;
    }
    front
    {
        type            empty;
    }
    down
    {
        type            calculated;
    }
    right
    {
        type            calculated;
    }
    up
    {
        type            calculated;
    }
    left
    {
        type            calculated;
    }
    hole
    {
        type            calculated;
    }
}


// ************************************************************************* //
