/*--------------------------------*- C++ -*----------------------------------*\
| =========                 |                                                 |
| \\      /  F ield         | OpenFOAM: The Open Source CFD Toolbox           |
|  \\    /   O peration     | Version:  v2012                                 |
|   \\  /    A nd           | Website:  www.openfoam.com                      |
|    \\/     M anipulation  |                                                 |
\*---------------------------------------------------------------------------*/
FoamFile
{
    version     2.0;
    format      ascii;
    class       volSymmTensorField;
    location    "8";
    object      epsilon;
}
// * * * * * * * * * * * * * * * * * * * * * * * * * * * * * * * * * * * * * //

dimensions      [0 0 0 0 0 0 0];


internalField   nonuniform List<symmTensor> 
470
(
(0.000579442 -0.000307053 -2.60209e-18 -0.000201749 0 0)
(0.0007262 -7.36608e-05 -1.73472e-18 -0.000178473 3.38813e-21 0)
(0.00155347 -0.00022812 1.73472e-18 -0.000648158 -2.1684e-19 0)
(0.00122435 -4.56923e-05 -3.46945e-18 -0.000282395 6.77626e-21 0)
(0.00118683 -0.000580561 -8.67362e-19 -0.000543784 0 0)
(0.00144197 -4.81878e-05 -2.60209e-18 -0.000622918 3.25261e-19 0)
(0.00123045 -0.000467525 3.46945e-18 -0.000447224 0 0)
(0.00100293 -0.000663295 1.73472e-18 -0.00056326 -2.71051e-20 0)
(0.00207494 -0.000278206 1.73472e-18 -0.000969393 -5.42101e-19 0)
(0.00152128 -0.000366317 0 -0.000580491 -1.0842e-19 0)
(0.00203484 -0.000246708 0 -0.000924351 1.0842e-19 0)
(0.0023663 0.000249149 0 -0.00111326 2.1684e-19 0)
(0.00232278 8.84773e-05 8.67362e-19 -0.00110915 -8.67362e-19 0)
(0.00119021 -9.3517e-05 -1.73472e-18 -0.000288898 -1.35525e-20 0)
(0.00239216 -9.06986e-05 4.33681e-19 -0.00107067 0 0)
(0.00181411 -0.000335272 1.73472e-18 -0.000792353 -2.1684e-19 0)
(0.00145864 -0.000399329 -1.73472e-18 -0.000593856 0 0)
(0.00107597 -0.000119401 0 -0.000271531 -6.77626e-21 0)
(0.00101825 -5.00608e-05 -8.67362e-19 -0.000229575 -6.77626e-21 0)
(0.000782402 -0.000284355 0 -0.000199362 -1.35525e-20 0)
(0.00187932 -0.0002059 1.73472e-18 -0.000792094 -1.0842e-19 0)
(0.00130905 -0.000145806 1.73472e-18 -0.000402519 -1.6263e-19 0)
(0.00160398 -0.000150644 -8.67362e-19 -0.00067004 2.1684e-19 0)
(0.00115544 -0.000147542 0 -0.000301865 -5.42101e-20 0)
(0.00226762 -0.000216608 8.67362e-19 -0.00127472 -6.50521e-19 0)
(0.00117164 -0.000395293 -8.67362e-19 -0.000383693 -2.71051e-20 0)
(0.0020469 -0.000281599 4.33681e-19 -0.00109876 0 0)
(0.0016755 -9.28968e-05 0 -0.000728633 0 0)
(0.00142805 -0.00011857 -2.60209e-18 -0.000584728 1.0842e-19 0)
(0.00114195 -6.44434e-05 -8.67362e-19 -0.000284479 6.77626e-21 0)
(0.000760393 -0.000276286 0 -0.000198716 -1.35525e-20 0)
(0.00256878 1.61514e-05 0 -0.00110748 0 0)
(0.00152817 -0.000324167 2.60209e-18 -0.000623654 -2.71051e-19 0)
(0.00260716 -0.000504779 -4.33681e-19 -0.00113509 1.30104e-18 0)
(0.00150918 -7.21111e-05 0 -0.00062203 0 0)
(0.00145817 -6.75616e-05 1.73472e-18 -0.000612238 1.0842e-19 0)
(0.00239749 7.1907e-05 -1.30104e-18 -0.00103745 1.0842e-18 0)
(0.000797876 -0.000265351 -2.60209e-18 -0.000230118 2.71051e-20 0)
(0.000939713 -0.000253618 1.73472e-18 -0.00023069 0 0)
(0.000797237 -0.000367668 8.67362e-19 -0.000257346 -1.35525e-20 0)
(0.00184899 -0.000459572 0 -0.00100507 2.1684e-19 0)
(0.000947762 -6.2399e-05 8.67362e-19 -0.000218153 -6.77626e-21 0)
(0.00236852 0.000402325 2.1684e-19 -0.00103988 0 0)
(0.00154641 -0.000570638 1.73472e-18 -0.00085589 -2.1684e-19 0)
(0.00180356 -8.09645e-05 -1.73472e-18 -0.000767797 2.1684e-19 0)
(0.00221258 0.000423809 -6.50521e-19 -0.00103147 1.30104e-18 0)
(0.00095715 -0.000416657 -1.73472e-18 -0.000318396 -2.71051e-20 0)
(0.00201875 -0.000362847 -2.60209e-18 -0.00113273 4.33681e-19 0)
(0.00183096 -0.000438524 8.67362e-19 -0.000971097 0 0)
(0.00212817 -0.000229612 -2.60209e-18 -0.00107854 5.42101e-19 0)
(0.00245926 9.54591e-05 4.33681e-19 -0.00107855 -6.50521e-19 0)
(0.00240112 -0.000396678 -1.30104e-18 -0.00111755 4.33681e-19 0)
(0.00112555 -0.000175155 0 -0.000286723 -1.35525e-20 0)
(0.000980229 -0.000111538 -8.67362e-19 -0.000245254 -6.77626e-21 0)
(0.00127659 -0.00013779 -2.60209e-18 -0.000338692 2.71051e-20 0)
(0.00129467 -0.000156864 2.60209e-18 -0.000393879 -5.42101e-20 0)
(0.00166146 0.000212159 0 -0.000683798 0 0)
(0.00113247 3.25394e-05 0 -0.000514045 0 0)
(0.0015844 -0.00056045 -8.67362e-19 -0.000746742 1.6263e-19 0)
(0.00171346 -0.000142291 2.60209e-18 -0.000706971 0 0)
(0.00122977 -0.000376026 -2.60209e-18 -0.000411912 -2.71051e-20 0)
(0.00219634 -6.51819e-05 0 -0.00111069 -2.1684e-19 0)
(0.00230232 -9.18623e-06 4.33681e-19 -0.00109311 -2.1684e-19 0)
(0.0024584 0.000300025 1.30104e-18 -0.00117642 -1.0842e-18 0)
(0.00108407 -0.00063528 0 -0.0004919 -2.1684e-19 0)
(0.0025039 0.000243532 2.1684e-19 -0.000772212 0 0)
(0.000898005 -0.000452191 2.60209e-18 -0.000293883 1.35525e-20 0)
(0.00133499 -0.000153997 2.60209e-18 -0.000453811 -1.0842e-19 0)
(0.000924519 -0.000723631 0 -0.000775074 0 0)
(0.00171073 -0.000393121 3.46945e-18 -0.000712342 -2.1684e-19 0)
(0.00053523 -0.000136825 -1.73472e-18 -0.000174532 0 0)
(0.00145558 -0.000408397 -8.67362e-19 -0.000549033 3.25261e-19 0)
(0.00274699 9.9196e-05 4.33681e-19 -0.00130765 8.67362e-19 0)
(0.00135017 -0.000503511 0 -0.000534552 2.71051e-20 0)
(0.00250969 0.000265947 -1.73472e-18 -0.00121864 1.73472e-18 0)
(0.00127717 -5.32301e-05 0 -0.000342368 0 0)
(0.00141963 -0.000334007 1.73472e-18 -0.000529246 -1.6263e-19 0)
(0.00138504 -0.000367333 -2.60209e-18 -0.000500794 2.1684e-19 0)
(0.00146281 -0.000517544 1.73472e-18 -0.000631311 -5.42101e-20 0)
(0.00249267 0.000204248 -5.42101e-20 -0.000765047 -4.33681e-19 0)
(0.0017044 -0.00050812 -1.73472e-18 -0.000834935 2.1684e-19 0)
(0.0028478 0.00045028 4.33681e-19 -0.00101361 0 0)
(0.001618 -0.000231697 8.67362e-19 -0.000655312 1.0842e-19 0)
(0.00084756 -0.000529496 -8.67362e-19 -0.000803266 -5.42101e-20 0)
(0.00210548 -0.000213546 0 -0.00104841 -2.1684e-19 0)
(0.00130648 -6.47433e-05 1.73472e-18 -0.000405045 -5.42101e-20 0)
(0.00241019 0.000360779 1.30104e-18 -0.00122258 -1.30104e-18 0)
(0.00156023 -0.000906116 8.67362e-19 -0.000424675 -4.33681e-19 0)
(0.00235125 0.00050284 3.25261e-19 -0.00102938 -8.67362e-19 0)
(0.00240189 6.67391e-05 8.67362e-19 -0.00127441 -2.1684e-19 0)
(0.00259736 0.0004273 0 -0.00119964 -4.33681e-19 0)
(0.0023707 0.000128263 4.33681e-19 -0.00108724 -6.50521e-19 0)
(0.00134853 -0.000520924 8.67362e-19 -0.000533393 8.13152e-20 0)
(0.0013629 -0.000387817 2.60209e-18 -0.000508298 0 0)
(0.00232077 -4.12221e-05 0 -0.00103789 -4.33681e-19 0)
(0.00238769 3.18556e-05 8.67362e-19 -0.00101778 2.1684e-19 0)
(0.00106872 -0.000545265 2.60209e-18 -0.000426772 -2.71051e-20 0)
(0.001314 -0.000427199 2.60209e-18 -0.00047048 5.42101e-20 0)
(0.00118121 -0.000600827 0 -0.000574873 5.42101e-20 0)
(0.0015066 -0.000130252 -8.67362e-19 -0.000629421 -1.0842e-19 0)
(0.00126784 -0.00020131 8.67362e-19 -0.000370553 5.42101e-20 0)
(0.00192664 -0.000351736 0 -0.000960727 0 0)
(0.00261714 8.98778e-05 1.0842e-18 -0.0012378 -8.67362e-19 0)
(0.00123813 -0.000124154 -2.60209e-18 -0.000315511 2.71051e-20 0)
(0.00124891 -8.4351e-05 -8.67362e-19 -0.000270351 4.06576e-20 0)
(0.00138324 -8.91708e-05 -8.67362e-19 -0.000567129 1.0842e-19 0)
(0.00138966 -0.000116193 -1.73472e-18 -0.000506232 5.42101e-20 0)
(0.00112849 -0.000517721 2.60209e-18 -0.000442645 -5.42101e-20 0)
(0.000544088 -5.18019e-05 8.67362e-19 -0.00101607 2.71051e-20 0)
(0.00288593 -0.000258536 2.38524e-18 -0.00116526 0 0)
(0.00231777 0.000442818 4.33681e-19 -0.00103876 -8.67362e-19 0)
(0.00316956 -4.04794e-05 1.0842e-18 -0.00122353 -4.33681e-19 0)
(0.00127133 -5.39531e-05 0 -0.000309576 -2.71051e-20 0)
(0.00143072 -3.92756e-05 -2.60209e-18 -0.000600073 3.25261e-19 0)
(0.00117231 -0.000640381 -8.67362e-19 -0.000797416 0 0)
(0.0015378 -0.000464891 8.67362e-19 -0.000630224 0 0)
(0.00118734 -4.11296e-05 2.60209e-18 -0.000266126 -1.35525e-20 0)
(0.0022857 -7.21934e-05 0 -0.000977372 -2.1684e-19 0)
(0.00115458 -0.000487949 -3.46945e-18 -0.000425797 1.35525e-19 0)
(0.000755369 -8.8659e-05 1.73472e-18 -0.00017187 3.38813e-21 0)
(0.00127573 -0.000561419 -8.67362e-19 -0.000522332 0 0)
(0.00124707 -0.000140582 2.60209e-18 -0.000307227 -6.77626e-20 0)
(0.00112509 -0.000106184 -2.60209e-18 -0.000283665 6.77626e-21 0)
(0.00122221 -3.32125e-05 -2.60209e-18 -0.000206305 1.35525e-20 0)
(0.00137484 -3.06005e-05 -2.60209e-18 -0.000555882 1.0842e-19 0)
(0.0016345 -0.000498527 0 -0.000723637 1.6263e-19 0)
(0.0016606 -0.000441597 -1.73472e-18 -0.000714236 1.0842e-19 0)
(0.00127942 -0.000206321 1.73472e-18 -0.000392479 0 0)
(0.00237575 -0.000120961 0 -0.00101127 -2.1684e-19 0)
(0.00119803 -0.000172271 1.73472e-18 -0.000325701 -6.77626e-20 0)
(0.000963198 -0.000526029 -2.60209e-18 -0.000390711 8.13152e-20 0)
(0.000948447 -0.000592882 2.60209e-18 -0.000437334 -1.0842e-19 0)
(0.00125296 -0.000461215 8.67362e-19 -0.000452204 -2.71051e-20 0)
(0.00125232 -0.000227975 -1.73472e-18 -0.00036676 2.71051e-20 0)
(0.00132576 -5.43187e-05 -2.60209e-18 -0.000427073 1.0842e-19 0)
(0.00154774 -0.000129115 8.67362e-19 -0.000656094 2.1684e-19 0)
(0.00141294 -0.000463722 8.67362e-19 -0.000553498 0 0)
(0.00192247 -0.000632583 -4.33681e-19 -0.000882782 -4.33681e-19 0)
(0.00234935 0.000233599 2.1684e-19 -0.00104851 0 0)
(0.00139957 -2.89141e-05 -2.60209e-18 -0.000595408 2.1684e-19 0)
(0.0014279 -5.09437e-05 8.67362e-19 -0.000586651 -3.25261e-19 0)
(0.00238871 -0.000102753 0 -0.00131794 0 0)
(0.00132416 -0.000219396 -8.67362e-19 -0.000415515 1.0842e-19 0)
(0.0013113 -0.000344765 -1.73472e-18 -0.000465525 1.6263e-19 0)
(0.00134785 -0.000316735 0 -0.00045515 0 0)
(0.000819352 -0.000271837 8.67362e-19 -0.000231377 6.77626e-21 0)
(0.00123467 -4.31738e-05 -3.46945e-18 -0.000249781 1.69407e-20 0)
(0.00229366 -6.75533e-06 0 -0.0012478 6.50521e-19 0)
(0.00125591 -0.000295607 8.67362e-19 -0.000400078 1.35525e-19 0)
(0.00233538 0.000187757 1.30104e-18 -0.00123457 -2.1684e-19 0)
(0.00103191 -0.000172457 2.60209e-18 -0.000248876 -1.35525e-20 0)
(0.00119432 -6.13468e-05 -8.67362e-19 -0.000250626 2.37169e-20 0)
(0.00117203 -0.00063785 -8.67362e-19 -0.000756221 2.1684e-19 0)
(0.00126045 -0.000116516 0 -0.000355804 -8.13152e-20 0)
(0.00264025 -0.00107248 1.0842e-18 -0.00126269 -4.33681e-19 0)
(0.00177166 -0.000422903 0 -0.000777933 0 0)
(0.000611867 0.000357793 -1.73472e-18 -0.00166266 0 0)
(0.00112961 -0.000393229 0 -0.000374095 -2.71051e-20 0)
(0.00122247 -0.000377352 0 -0.000373827 -2.71051e-20 0)
(0.00145919 -0.000362175 0 -0.000578625 -1.0842e-19 0)
(0.00311841 -0.000565612 4.33681e-19 -0.00119352 1.0842e-18 0)
(0.0022057 -0.000140054 4.33681e-19 -0.00101995 -2.1684e-19 0)
(0.00158667 0.000219736 0 -0.000664295 -4.33681e-19 0)
(0.00253284 -9.07047e-05 -4.33681e-19 -0.00113144 6.50521e-19 0)
(0.00221681 -4.04416e-05 -1.0842e-19 -0.000777303 -8.67362e-19 0)
(0.00160316 -0.000558911 0 -0.00104664 1.0842e-19 0)
(0.00140361 -0.000731017 1.30104e-18 -0.000977807 -2.1684e-19 0)
(0.00232669 -2.66484e-05 0 -0.00101155 2.1684e-19 0)
(0.00144464 -0.000559085 0 -0.000628094 -5.42101e-20 0)
(0.00167733 -0.000583571 1.30104e-18 -0.0010152 -1.6263e-19 0)
(0.00163436 -0.000549027 4.33681e-19 -0.000941011 -1.0842e-19 0)
(0.0013654 -0.000259181 -8.67362e-19 -0.000490743 -1.0842e-19 0)
(0.00139364 -0.000235429 2.60209e-18 -0.000516517 0 0)
(0.00140645 -0.000312819 0 -0.000530063 5.42101e-20 0)
(0.00136619 -0.000295181 0 -0.000489814 -1.6263e-19 0)
(0.00125244 -0.000359894 1.73472e-18 -0.000422811 -1.6263e-19 0)
(0.00108348 -0.000105285 0 -0.000245285 -6.77626e-21 0)
(0.000410518 -0.000174437 0 -0.000434852 -2.03288e-20 0)
(0.0021154 -0.000235394 -8.67362e-19 -0.00122209 6.50521e-19 0)
(0.00135247 -0.000662812 -1.30104e-18 -0.000811017 5.42101e-20 0)
(0.00154586 -0.000574917 1.73472e-18 -0.000789861 1.0842e-19 0)
(0.00221104 0.000324488 -8.67362e-19 -0.0010761 1.51788e-18 0)
(0.00141716 -0.000463601 1.73472e-18 -0.000553646 5.42101e-20 0)
(0.00165588 -0.000431153 0 -0.000720198 1.0842e-19 0)
(0.0017476 -0.000321092 8.67362e-19 -0.00071677 -2.1684e-19 0)
(0.00216411 -0.000162815 -8.67362e-19 -0.000938281 0 0)
(0.00145769 -0.00019898 5.20417e-18 -0.000555628 -1.6263e-19 0)
(0.000264138 -0.000138524 0 -0.000293524 0 0)
(0.00199407 0.000233636 -2.1684e-19 -0.000851453 -4.33681e-19 0)
(0.00119305 -0.000186532 1.73472e-18 -0.000321706 -2.71051e-20 0)
(0.00143188 -0.000131972 1.73472e-18 -0.000548469 3.25261e-19 0)
(0.00112213 -0.000422862 -8.67362e-19 -0.000357661 4.06576e-20 0)
(0.00160526 -0.00041728 8.67362e-19 -0.000637495 -2.71051e-19 0)
(0.00150674 -0.000437458 -8.67362e-19 -0.000628955 0 0)
(0.000565679 -0.000371488 0 -0.000257374 5.42101e-20 0)
(0.00104392 -0.000176382 0 -0.000284737 1.35525e-20 0)
(0.00161058 -0.000141696 -1.73472e-18 -0.000706026 0 0)
(0.00148743 -0.000280745 -1.73472e-18 -0.000587056 3.25261e-19 0)
(0.00151701 -0.000220054 -2.60209e-18 -0.000617121 2.1684e-19 0)
(0.00643441 -0.000826372 1.95156e-18 -0.00289029 -4.33681e-19 0)
(0.000674293 -0.000111375 -2.60209e-18 -0.000179368 0 0)
(0.000458299 -0.00010878 0 -0.000183806 0 0)
(0.00431631 -4.70332e-05 1.19262e-18 -0.00205021 -1.30104e-18 0)
(0.001618 -0.000637876 -1.73472e-18 -0.00111114 4.33681e-19 0)
(0.00169097 -0.000344358 -1.73472e-18 -0.000720269 1.0842e-19 0)
(0.00176304 -0.000217402 -8.67362e-19 -0.000768878 -1.0842e-19 0)
(0.000941205 -0.000182038 8.67362e-19 -0.000212164 -2.03288e-20 0)
(0.000966243 -0.000180588 4.33681e-18 -0.000246643 -4.06576e-20 0)
(0.00184377 -0.000469672 2.1684e-18 -0.00116818 -4.33681e-19 0)
(0.000679896 0.000250264 8.67362e-19 -0.002103 -1.0842e-19 0)
(0.001283 -0.00018885 8.67362e-19 -0.00036033 8.13152e-20 0)
(0.00155738 -0.000286221 -8.67362e-19 -0.000669488 2.1684e-19 0)
(0.000401234 -0.000158896 0 -0.00112551 -2.71051e-20 0)
(0.00110812 -0.000219709 -1.73472e-18 -0.000304971 -2.71051e-20 0)
(0.00216451 -0.00024249 -1.73472e-18 -0.000990059 1.0842e-19 0)
(0.00199986 -0.000250475 -1.73472e-18 -0.00087284 0 0)
(0.00129183 -0.000281986 8.67362e-19 -0.000403279 0 0)
(0.00100461 -0.00036833 -8.67362e-19 -0.000320393 -1.35525e-20 0)
(0.00118914 -0.000266183 -1.73472e-18 -0.000349391 0 0)
(0.00186861 -0.00043604 -8.67362e-19 -0.00110664 3.25261e-19 0)
(0.000570686 -0.000236811 8.67362e-19 -0.00108838 -8.13152e-20 0)
(0.000767928 -0.000426573 -8.67362e-19 -0.000298013 1.35525e-20 0)
(0.00145168 -0.000181699 -8.67362e-19 -0.000604812 0 0)
(0.00116252 -0.000200886 0 -0.000309421 2.71051e-20 0)
(0.00192663 -0.000469942 -8.67362e-19 -0.00118584 -2.1684e-19 0)
(0.00144867 -0.000108055 -8.67362e-19 -0.000624839 2.1684e-19 0)
(0.00198556 -0.000370055 0 -0.0010008 2.1684e-19 0)
(0.000325829 -0.000367896 0 -0.000461702 2.71051e-20 0)
(0.00252331 0.000410413 -3.25261e-19 -0.000914841 2.60209e-18 0)
(0.00226895 0.000164257 -2.1684e-19 -0.000990962 0 0)
(0.00194739 -0.00037827 -1.30104e-18 -0.000992722 2.1684e-19 0)
(0.000648315 -0.000538294 -8.67362e-19 -0.000709753 0 0)
(0.00121706 -3.69105e-05 -1.73472e-18 -0.000216742 0 0)
(0.00138675 -1.70392e-05 -1.73472e-18 -0.000571452 2.1684e-19 0)
(0.00176678 -0.000230486 0 -0.0007352 0 0)
(0.00132406 -0.000429128 0 -0.00047013 1.35525e-19 0)
(0.0011033 -0.000488606 1.73472e-18 -0.000604908 -2.1684e-19 0)
(0.00135503 -8.62487e-05 3.46945e-18 -0.000529897 -5.42101e-20 0)
(0.0013546 -4.45058e-05 8.67362e-19 -0.000503176 -5.42101e-20 0)
(0.00125363 -4.93257e-05 0 -0.000290687 0 0)
(0.00126002 -8.19478e-05 8.67362e-19 -0.000272803 0 0)
(0.00122842 -8.42513e-05 3.46945e-18 -0.000260292 -2.71051e-20 0)
(0.0013945 -7.1659e-05 0 -0.000544743 0 0)
(0.0031558 0.00013196 2.71051e-19 -0.00102006 1.73472e-18 0)
(0.00278213 -0.00014706 2.1684e-19 -0.000757871 -8.67362e-19 0)
(0.00205076 0.000274464 0 -0.000594352 0 0)
(0.0020667 0.000186365 0 -0.000684894 -8.67362e-19 0)
(0.00134788 -0.000137658 -8.67362e-19 -0.000482549 0 0)
(0.000895493 -5.75463e-05 -1.73472e-18 -0.000209083 3.38813e-21 0)
(0.00144386 -0.000269056 0 -0.000556727 -1.0842e-19 0)
(0.00141638 -0.000235692 -8.67362e-19 -0.000547941 2.1684e-19 0)
(0.00165087 -0.000233929 0 -0.000701339 -3.25261e-19 0)
(0.00119888 -9.93689e-06 -1.73472e-18 -0.000147709 1.35525e-20 0)
(0.00139735 -8.62612e-06 0 -0.000597588 0 0)
(0.00189061 -0.000354294 -8.67362e-19 -0.000810749 -1.0842e-19 0)
(0.000800141 -0.000198975 4.33681e-18 -0.000214185 -1.69407e-20 0)
(0.000987848 -0.000288557 0 -0.000273745 -5.42101e-20 0)
(0.00122261 -4.06845e-05 0 -0.000234063 -1.35525e-20 0)
(0.00138139 -3.30396e-05 1.73472e-18 -0.000566248 -1.0842e-19 0)
(0.000656516 -0.000101585 1.73472e-18 -0.000184692 -1.35525e-20 0)
(0.00148455 -0.000485192 0 -0.000628233 1.0842e-19 0)
(0.00252009 0.000358202 0 -0.00100999 4.33681e-19 0)
(0.000396405 -0.000131139 2.60209e-18 -0.000191751 -3.38813e-21 0)
(0.000535581 -0.000133996 0 -0.000755859 -1.0842e-19 0)
(0.000878806 -0.000318871 3.46945e-18 -0.000266689 -2.71051e-20 0)
(0.00121266 -3.6055e-05 3.46945e-18 -0.000216724 -2.71051e-20 0)
(0.00140441 -3.53653e-05 2.60209e-18 -0.000586859 0 0)
(0.00110957 -4.18011e-05 0 -0.000272778 -6.77626e-21 0)
(0.001031 -0.000306809 -8.67362e-19 -0.000269375 0 0)
(0.00184664 -9.19215e-05 2.60209e-18 -0.000790883 -1.0842e-19 0)
(0.0015727 -5.29791e-05 0 -0.00067436 -1.0842e-19 0)
(0.000876443 -0.000598933 0 -0.000772031 -1.0842e-19 0)
(0.00258908 3.81829e-05 -4.33681e-19 -0.00112629 2.1684e-19 0)
(0.00128916 -0.000521382 1.73472e-18 -0.000948256 0 0)
(0.00168712 1.15435e-05 0 -0.000634155 0 0)
(0.00196149 -0.000313855 1.73472e-18 -0.00111718 -2.1684e-19 0)
(0.00214568 -0.000415218 -4.33681e-19 -0.00111862 0 0)
(0.00161055 -0.000335863 1.73472e-18 -0.000656285 0 0)
(0.00217782 -0.000113696 -4.33681e-19 -0.00102487 1.0842e-19 0)
(0.00132489 -0.000216559 -1.73472e-18 -0.000463066 1.6263e-19 0)
(0.00141013 -0.000431262 0 -0.00056048 1.6263e-19 0)
(0.00180292 -0.000385261 8.67362e-19 -0.000810164 -3.25261e-19 0)
(0.00117758 -0.000492189 3.46945e-18 -0.000425741 -2.71051e-20 0)
(0.00178802 -0.000464763 -8.67362e-19 -0.00081794 3.25261e-19 0)
(0.00117279 -9.79249e-05 -3.46945e-18 -0.000289337 4.06576e-20 0)
(0.00124337 -6.76114e-05 -1.73472e-18 -0.000277141 0 0)
(0.00191989 -0.000192014 -8.67362e-19 -0.00079008 2.1684e-19 0)
(0.00193481 0.000366418 -3.25261e-19 -0.000890175 8.67362e-19 0)
(0.00122001 -0.000253414 8.67362e-19 -0.000352392 -8.13152e-20 0)
(0.000774307 -0.000491314 8.67362e-19 -0.000434024 1.35525e-20 0)
(0.00113992 -0.000463542 -8.67362e-19 -0.000914568 4.33681e-19 0)
(0.00129022 -0.000505935 8.67362e-19 -0.00103231 0 0)
(0.000570722 -0.000485817 -1.73472e-18 -0.000340966 -1.35525e-20 0)
(0.00212174 -0.000131625 -8.67362e-19 -0.00092721 2.1684e-19 0)
(0.0019985 -0.000334268 4.33681e-19 -0.000895674 -3.25261e-19 0)
(0.00121029 -0.000320764 0 -0.000376259 0 0)
(0.00123925 -0.000232485 -3.46945e-18 -0.000361118 5.42101e-20 0)
(0.00148043 -4.8897e-05 -1.73472e-18 -0.000640645 0 0)
(0.00190023 -0.000371681 -8.67362e-19 -0.000890873 0 0)
(0.00116976 -4.36471e-05 3.46945e-18 -0.00027186 -6.77626e-21 0)
(0.00134619 -0.000194468 5.20417e-18 -0.000441139 -5.42101e-20 0)
(0.000805455 -0.000266096 4.33681e-19 -0.000624748 -4.33681e-19 0)
(0.00135402 -0.000105266 4.33681e-18 -0.000450805 -1.0842e-19 0)
(0.00133567 -5.70986e-05 0 -0.000486063 -1.0842e-19 0)
(0.00256154 0.000496023 -1.0842e-19 -0.00105126 -8.67362e-19 0)
(0.00136065 -0.000671943 0 -0.000760626 5.42101e-20 0)
(0.00137454 -0.000198352 2.60209e-18 -0.00049822 -2.1684e-19 0)
(0.00134311 -0.000248037 -2.60209e-18 -0.000444379 -2.1684e-19 0)
(0.000812133 -0.000664028 8.67362e-19 -0.000590813 2.71051e-20 0)
(0.00101059 -0.000661131 0 -0.000604165 -8.13152e-20 0)
(0.00243385 0.000129721 8.67362e-19 -0.00121261 2.1684e-19 0)
(0.00217803 -0.000223432 8.67362e-19 -0.00131985 8.67362e-19 0)
(0.00502428 -0.00186053 1.30104e-18 -0.00181302 -4.33681e-19 0)
(0.00130399 -0.00034885 0 -0.000425543 0 0)
(0.00130045 -0.00066567 -1.73472e-18 -0.00103455 2.1684e-19 0)
(0.00233239 8.69581e-05 -1.30104e-18 -0.00112331 -4.33681e-19 0)
(0.00130024 -0.000682178 -1.73472e-18 -0.000949944 4.33681e-19 0)
(0.000560895 -0.000459883 8.67362e-19 -0.000461801 -2.71051e-20 0)
(0.00213699 -0.000159377 2.1684e-18 -0.000927374 -2.1684e-19 0)
(0.00114061 -0.000355615 8.67362e-19 -0.000319708 2.71051e-20 0)
(0.00209522 -0.000104219 8.67362e-19 -0.000896476 -2.1684e-19 0)
(0.00106922 -0.000321385 -1.73472e-18 -0.000315591 0 0)
(0.00122827 -0.000330066 1.73472e-18 -0.00037156 2.71051e-20 0)
(0.00120655 -0.000179526 -8.67362e-19 -0.000321275 1.35525e-20 0)
(0.00202584 -0.00028779 8.67362e-19 -0.00089801 1.0842e-19 0)
(0.00105664 -4.0544e-05 2.60209e-18 -0.000264417 -6.77626e-21 0)
(0.00163841 -6.10853e-05 0 -0.000699337 1.0842e-19 0)
(0.00134699 -0.000684198 8.67362e-19 -0.000818616 -5.42101e-20 0)
(0.00106734 -0.000589096 -8.67362e-19 -0.000578144 0 0)
(0.000751468 -0.00059867 8.67362e-19 -0.000818833 -2.1684e-19 0)
(0.00104424 -0.000422837 -1.73472e-18 -0.000357618 1.35525e-20 0)
(0.000412896 -0.000319832 0 -0.000689052 -2.1684e-19 0)
(0.00152227 -0.00058563 1.73472e-18 -0.000769848 -1.0842e-19 0)
(0.00164981 -0.000485134 2.60209e-18 -0.000749959 -1.6263e-19 0)
(0.000662272 -0.000494858 0 -0.000592075 8.13152e-20 0)
(0.00141786 -0.000586913 0 -0.000637239 1.0842e-19 0)
(0.000871355 -8.21174e-05 0 -0.000179623 -3.38813e-21 0)
(0.00118282 -0.000275741 -8.67362e-19 -0.000340976 8.13152e-20 0)
(0.00226644 0.000171812 -6.50521e-19 -0.000997287 1.30104e-18 0)
(0.00140121 -0.000161409 8.67362e-19 -0.000570066 1.0842e-19 0)
(0.00107127 -0.000256139 1.73472e-18 -0.000295252 -1.35525e-20 0)
(0.00329247 5.46696e-05 2.1684e-19 -0.00116392 -2.1684e-18 0)
(0.00227813 -0.000107812 0 -0.000967717 -3.25261e-19 0)
(0.000455638 -0.000295748 1.73472e-18 -0.000659234 -1.35525e-20 0)
(0.00129285 -0.000298036 6.07153e-18 -0.000444337 -1.6263e-19 0)
(0.00202863 -9.56056e-05 8.67362e-19 -0.000830796 -2.1684e-19 0)
(0.00228896 0.000210033 -4.33681e-19 -0.000944904 0 0)
(0.00124653 -0.000318892 8.67362e-19 -0.000392538 -1.6263e-19 0)
(0.00121987 -8.72183e-06 1.73472e-18 -0.000173678 -3.38813e-21 0)
(0.00138509 -5.10511e-06 -1.73472e-18 -0.00059755 2.1684e-19 0)
(0.000853143 -6.34954e-05 0 -0.000196985 0 0)
(0.00115432 -0.000606844 8.67362e-19 -0.000512364 1.0842e-19 0)
(0.00185604 -0.000304524 2.60209e-18 -0.000778774 -2.1684e-19 0)
(0.0019601 -8.12918e-05 1.73472e-18 -0.000841583 -3.25261e-19 0)
(0.00196203 0.000230429 -8.67362e-19 -0.000846927 0 0)
(0.000183079 -7.5996e-05 -8.67362e-19 -0.000468053 -2.71051e-20 0)
(0.00184684 0.000447266 -1.0842e-19 -0.000695341 -1.30104e-18 0)
(0.00136625 -0.000478174 8.67362e-19 -0.000521878 5.42101e-20 0)
(0.00121591 -3.1485e-06 8.67362e-19 -0.00020449 -5.0822e-21 0)
(0.000393639 -7.71863e-05 0 -0.000279603 6.77626e-21 0)
(0.00121327 -3.96131e-05 -2.60209e-18 -0.000228867 6.77626e-21 0)
(0.00123916 -4.87392e-05 0 -0.00025821 0 0)
(0.00135677 -4.72489e-05 -1.73472e-18 -0.000499781 1.0842e-19 0)
(0.0015875 -0.00040528 0 -0.000622741 1.0842e-19 0)
(0.00281356 -0.00141111 0 -0.000680443 0 0)
(0.00139635 -4.06681e-06 1.73472e-18 -0.000601605 -1.0842e-19 0)
(0.00107315 -0.000263585 4.33681e-18 -0.000287097 -4.06576e-20 0)
(0.00205401 0.000231264 -4.33681e-19 -0.000945752 4.33681e-19 0)
(0.000287579 -0.000269576 1.73472e-18 -0.000296618 -4.74338e-20 0)
(0.00139753 -2.22596e-05 -3.46945e-18 -0.000576931 4.33681e-19 0)
(0.00103945 -0.00040946 -2.60209e-18 -0.000318921 2.71051e-20 0)
(0.00124263 -0.000556056 3.46945e-18 -0.000521372 -5.42101e-20 0)
(0.00169353 0.000188937 -5.42101e-20 -0.000685383 4.33681e-19 0)
(0.00120524 -0.000130284 -1.73472e-18 -0.00030519 1.35525e-20 0)
(0.000551658 -0.000102131 0 -0.00084315 1.0842e-19 0)
(0.000658415 0.000179308 8.67362e-19 -0.00115122 -2.1684e-19 0)
(0.000329512 -0.00014852 1.73472e-18 -0.000664611 -1.35525e-20 0)
(0.00137228 -0.000141776 -1.73472e-18 -0.000536373 2.71051e-19 0)
(0.00426729 -0.000545207 2.05998e-18 -0.00134955 3.03577e-18 0)
(0.00064744 -0.000161501 -1.73472e-18 -0.000984636 -2.1684e-19 0)
(0.00150057 -0.000555389 1.73472e-18 -0.000719497 -1.0842e-19 0)
(0.00269546 2.36751e-05 6.50521e-19 -0.00118208 -4.33681e-19 0)
(0.00114517 0.000127524 -5.42101e-20 -0.000449606 8.67362e-19 0)
(0.00126029 -0.000133723 -2.60209e-18 -0.000314352 -2.71051e-20 0)
(0.00128837 -0.000256931 0 -0.000415706 5.42101e-20 0)
(0.00420574 -0.000914727 2.81893e-18 -0.00286217 4.33681e-19 0)
(0.00212421 0.000502169 2.1684e-19 -0.000871355 4.33681e-19 0)
(0.00212314 0.00037073 4.33681e-19 -0.00089322 -2.1684e-18 0)
(0.00186984 -0.000108967 8.67362e-19 -0.000825225 -1.0842e-19 0)
(0.00113202 -0.000289154 1.73472e-18 -0.000332147 2.71051e-20 0)
(0.00258552 -0.000102523 1.73472e-18 -0.00136955 -6.50521e-19 0)
(0.00111759 -3.75948e-05 0 -0.00027203 -1.35525e-20 0)
(0.00154921 -5.36195e-05 8.67362e-19 -0.000657564 -2.1684e-19 0)
(0.00289573 0.000367088 8.67362e-19 -0.00119525 -4.33681e-19 0)
(0.00140571 -0.000176706 -6.07153e-18 -0.000519188 5.42101e-20 0)
(0.00112357 -0.00023078 0 -0.000297071 -2.71051e-20 0)
(0.00121167 -2.67116e-05 1.73472e-18 -0.000247854 0 0)
(0.00139452 -1.0425e-05 1.73472e-18 -0.000586864 -3.25261e-19 0)
(0.00233265 -4.40031e-05 0 -0.00102407 -2.1684e-19 0)
(0.00165881 -0.000245761 0 -0.000717042 3.25261e-19 0)
(0.00220484 -0.000186503 4.33681e-19 -0.000994974 2.1684e-19 0)
(0.00403925 -0.000422012 1.51788e-18 -0.00120776 -1.73472e-18 0)
(0.00150766 -0.000298309 -3.46945e-18 -0.000605162 0 0)
(0.000525191 -0.000494872 -2.60209e-18 -0.000423625 1.0842e-19 0)
(0.0024946 8.6586e-05 -4.33681e-19 -0.00131864 6.50521e-19 0)
(0.00203755 0.000323878 -5.42101e-20 -0.000760009 -1.73472e-18 0)
(0.00229491 -6.12656e-06 -1.30104e-18 -0.00125016 4.33681e-19 0)
(0.00150017 -0.000202218 0 -0.00059616 1.0842e-19 0)
(0.00120194 -1.88974e-05 -1.73472e-18 -0.00016974 3.38813e-21 0)
(0.00117745 -5.21279e-06 0 -0.000117879 3.38813e-21 0)
(0.00138706 -1.2896e-06 -8.67362e-19 -0.000590979 -1.0842e-19 0)
(0.00139359 -4.95005e-07 1.73472e-18 -0.000599106 -2.1684e-19 0)
(0.00102695 -4.45622e-05 0 -0.000245828 -3.38813e-21 0)
(0.00169359 -7.60071e-05 -1.73472e-18 -0.000713074 2.1684e-19 0)
(0.00158508 0.00028315 -5.42101e-20 -0.000548229 -4.33681e-19 0)
(0.00178937 -0.00110752 -8.67362e-19 -0.000643211 8.67362e-19 0)
(0.00126125 -0.000164417 -4.33681e-18 -0.000376825 1.89735e-19 0)
(0.000842159 -0.000612149 5.20417e-18 -0.00059994 0 0)
(0.00222412 0.00038657 2.1684e-19 -0.000918186 0 0)
(0.000533851 -0.000299832 0 -0.000277701 -1.35525e-20 0)
(0.001303 -0.000602378 -1.73472e-18 -0.000628452 -2.71051e-20 0)
(0.000621213 -0.000342014 -8.67362e-19 -0.00026043 -1.35525e-20 0)
(0.00158736 -0.000341418 1.73472e-18 -0.000657616 -1.6263e-19 0)
(0.00122561 -0.000174475 2.60209e-18 -0.000337467 2.71051e-20 0)
(0.0015632 -0.000306825 2.60209e-18 -0.000618407 -1.0842e-19 0)
(0.00309298 -4.43932e-05 1.40946e-18 -0.000992348 2.1684e-18 0)
(0.00218369 0.000487504 -2.1684e-19 -0.000824623 1.73472e-18 0)
(0.00165699 -0.000628387 -4.33681e-19 -0.00110869 1.0842e-19 0)
(0.00224467 -7.23896e-05 8.67362e-19 -0.00115808 0 0)
(0.00171536 0.000188801 -1.6263e-19 -0.000730361 1.30104e-18 0)
(0.00222369 -5.6104e-05 -4.33681e-19 -0.00108121 4.33681e-19 0)
(0.00216362 -0.000296598 -8.67362e-19 -0.00124763 1.0842e-19 0)
(0.00176609 -0.000414362 1.73472e-18 -0.00080236 -1.0842e-19 0)
(0.00189034 -0.00043412 8.67362e-19 -0.000899416 -4.33681e-19 0)
(0.000227857 -0.000215528 -8.67362e-19 -0.00065572 -1.35525e-20 0)
(0.000369684 5.75392e-05 2.60209e-18 -0.000995293 -5.42101e-20 0)
(0.00123485 -2.50507e-05 1.73472e-18 -0.000260879 0 0)
(0.00140174 -2.20613e-05 -8.67362e-19 -0.000606473 -2.1684e-19 0)
(0.00137336 -0.000156381 8.67362e-19 -0.000468791 -5.42101e-20 0)
(0.00173021 -0.000437167 -8.67362e-19 -0.000836753 1.0842e-19 0)
(0.00193523 -0.000423126 0 -0.00122694 -1.0842e-19 0)
(0.0023403 -0.000121692 -1.73472e-18 -0.00101791 3.25261e-19 0)
(0.00122416 -0.000118478 -4.33681e-18 -0.00028958 2.71051e-20 0)
(0.00184074 -0.000473062 3.03577e-18 -0.0011008 -5.42101e-19 0)
(0.00192754 -0.000216137 -1.73472e-18 -0.000859825 5.42101e-19 0)
(0.0022325 -0.000300249 -4.33681e-19 -0.00127776 0 0)
(0.00195313 -0.00044538 4.33681e-19 -0.00122978 3.25261e-19 0)
(0.00149316 -0.000149297 -1.73472e-18 -0.000596285 2.1684e-19 0)
(0.000451004 -0.000328712 8.67362e-19 -0.000276454 -1.35525e-20 0)
(0.00134565 -0.00018837 8.67362e-19 -0.000496517 -1.6263e-19 0)
(0.00167359 -0.00028404 0 -0.000669611 1.0842e-19 0)
(0.0021371 -0.000154456 8.67362e-19 -0.000896383 0 0)
(0.00196536 -0.000223511 -8.67362e-19 -0.000864334 0 0)
(0.00132593 -0.000267653 8.67362e-19 -0.000433183 -5.42101e-20 0)
(0.00129477 -0.000253712 -3.46945e-18 -0.00042157 1.6263e-19 0)
(0.000748161 -0.000621131 -4.33681e-18 -0.000470237 1.0842e-19 0)
(0.00183047 -0.000467887 4.33681e-19 -0.000956125 0 0)
(0.00205165 -9.69911e-05 -8.67362e-19 -0.000884078 0 0)
(0.000995606 -0.000558636 8.67362e-19 -0.000467853 -8.13152e-20 0)
(0.00078675 -0.000545138 0 -0.000384631 1.35525e-20 0)
(0.00149549 -0.000420881 3.46945e-18 -0.00058043 -1.0842e-19 0)
(0.00130621 -0.000586041 -1.73472e-18 -0.000590588 -5.42101e-20 0)
(0.000826268 -0.000445562 1.73472e-18 -0.000335571 -6.77626e-20 0)
(0.00206905 -0.000170755 8.67362e-19 -0.000866682 0 0)
(0.00189341 -0.000292055 1.73472e-18 -0.000815986 0 0)
(0.0019799 -0.000299642 8.67362e-19 -0.000850202 -3.25261e-19 0)
(0.00115376 -0.000351704 3.46945e-18 -0.000374549 -8.13152e-20 0)
(0.00115063 -0.000305898 1.73472e-18 -0.000317847 -5.42101e-20 0)
(0.00170879 -0.000511476 1.73472e-18 -0.000831817 -1.0842e-19 0)
(0.00188532 -0.000358273 -8.67362e-19 -0.000880128 -2.1684e-19 0)
)
;

boundaryField
{
    back
    {
        type            empty;
    }
    front
    {
        type            empty;
    }
    down
    {
        type            calculated;
        value           nonuniform List<symmTensor> 
15
(
(0.000947762 -6.2399e-05 8.67362e-19 -0.000218153 -6.77626e-21 0)
(0.00053523 -0.000136825 -1.73472e-18 -0.000174532 0 0)
(0.00118734 -4.11296e-05 2.60209e-18 -0.000266126 -1.35525e-20 0)