/*--------------------------------*- C++ -*----------------------------------*\
| =========                 |                                                 |
| \\      /  F ield         | OpenFOAM: The Open Source CFD Toolbox           |
|  \\    /   O peration     | Version:  v2012                                 |
|   \\  /    A nd           | Website:  www.openfoam.com                      |
|    \\/     M anipulation  |                                                 |
\*---------------------------------------------------------------------------*/
FoamFile
{
    version     2.0;
    format      ascii;
    class       volVectorField;
    location    "16";
    object      D_0;
}
// * * * * * * * * * * * * * * * * * * * * * * * * * * * * * * * * * * * * * //

dimensions      [0 1 0 0 0 0 0];


internalField   nonuniform List<vector> 
250
(
(0.000462033 -0.000699547 0)
(0.000430981 -0.00114578 0)
(0.000345834 -0.00134668 0)
(0.000276071 -0.00152542 0)
(0.000206636 -0.00156981 0)
(0.00103361 -0.000973186 0)
(0.000928292 -0.00116545 0)
(0.000755145 -0.00118921 0)
(0.000627465 -0.00126057 0)
(0.000486013 -0.00124773 0)
(0.00127111 -0.000958516 0)
(0.00115915 -0.000953848 0)
(0.00101529 -0.000908323 0)
(0.00092218 -0.000922081 0)
(0.000813737 -0.000896504 0)
(0.00134226 -0.000831612 0)
(0.00126146 -0.000793863 0)
(0.00116897 -0.000751392 0)
(0.00110639 -0.000739226 0)
(0.00103524 -0.000705617 0)
(0.00157784 -0.000655818 0)
(0.00149754 -0.000599049 0)
(0.00141924 -0.000540669 0)
(0.00136742 -0.000510979 0)
(0.00131075 -0.000469377 0)
(0.00166421 -0.000509137 0)
(0.00162311 -0.00044926 0)
(0.00157082 -0.000397765 0)
(0.00154759 -0.000360906 0)
(0.00150741 -0.000332025 0)
(0.00183462 -0.000390902 0)
(0.00180254 -0.000325473 0)
(0.00176584 -0.000266127 0)
(0.00174779 -0.000232556 0)
(0.00171769 -0.000190601 0)
(0.00192039 -0.000249028 0)
(0.00191792 -0.000200932 0)
(0.0019012 -0.000157688 0)
(0.0019004 -0.000131862 0)
(0.0018828 -0.000100334 0)
(0.00200281 -0.000161633 0)
(0.00201225 -0.000124065 0)
(0.0020076 -9.15182e-05 0)
(0.00201318 -7.31024e-05 0)
(0.00200479 -4.93013e-05 0)
(0.00203678 -3.92932e-05 0)
(0.00205671 -3.03354e-05 0)
(0.00205966 -2.09305e-05 0)
(0.00206998 -1.65723e-05 0)
(0.00206739 -9.22326e-06 0)
(0.00208146 -5.2491e-06 0)
(0.00202772 -3.08e-05 0)
(0.00192037 -6.25832e-05 0)
(0.00176629 -0.000128137 0)
(0.00157617 -0.000220974 0)
(0.00208478 1.74008e-06 0)
(0.00203901 -1.55674e-05 0)
(0.00194767 -2.42903e-05 0)
(0.00182605 -7.13404e-05 0)
(0.00167656 -0.000107002 0)
(0.00212275 2.54994e-06 0)
(0.00208533 -1.07181e-05 0)
(0.00201454 -1.34603e-05 0)
(0.00190343 -5.01544e-05 0)
(0.00177748 -7.16517e-05 0)
(0.00214796 4.58164e-06 0)
(0.0021167 -9.3008e-06 0)
(0.00206 -3.37254e-06 0)
(0.00197431 -3.03305e-05 0)
(0.00187933 -3.71007e-05 0)
(0.00220333 1.22141e-06 0)
(0.00217536 -1.44125e-05 0)
(0.00212811 -1.52488e-05 0)
(0.00204888 -3.94647e-05 0)
(0.00196692 -4.85568e-05 0)
(0.00225315 1.52496e-06 0)
(0.00223053 -1.35577e-05 0)
(0.00219298 -1.3443e-05 0)
(0.00213122 -3.42792e-05 0)
(0.00206673 -4.36373e-05 0)
(0.00232112 -1.66365e-06 0)
(0.00230062 -1.88627e-05 0)
(0.00226797 -2.48057e-05 0)
(0.00221246 -4.58305e-05 0)
(0.00215728 -5.83574e-05 0)
(0.00238984 -1.03703e-06 0)
(0.00237312 -1.63156e-05 0)
(0.00234646 -2.175e-05 0)
(0.00230162 -4.16852e-05 0)
(0.00225649 -5.55537e-05 0)
(0.00246584 -9.5808e-07 0)
(0.00245106 -1.4911e-05 0)
(0.00242828 -2.02122e-05 0)
(0.00238915 -3.89684e-05 0)
(0.00235137 -5.25428e-05 0)
(0.00254222 1.93319e-06 0)
(0.00252999 -6.71817e-06 0)
(0.00251136 -7.35489e-06 0)
(0.00247883 -2.20387e-05 0)
(0.00244811 -3.37829e-05 0)
(0.00139624 -0.00031877 0)
(0.00132007 -0.000337703 0)
(0.0012382 -0.000370652 0)
(0.001163 -0.000393271 0)
(0.00108776 -0.000425727 0)
(0.00101618 -0.000451778 0)
(0.000946942 -0.000483741 0)
(0.000879986 -0.000513109 0)
(0.000816275 -0.000545298 0)
(0.00075431 -0.000579397 0)
(0.00156327 -0.000169871 0)
(0.00149998 -0.000188599 0)
(0.00144153 -0.000216589 0)
(0.00138001 -0.000238768 0)
(0.00132194 -0.000267798 0)
(0.00126339 -0.000293192 0)
(0.00120835 -0.000323245 0)
(0.00115437 -0.000352164 0)
(0.00110486 -0.000383628 0)
(0.0010578 -0.000416931 0)
(0.00166659 -0.00011729 0)
(0.00161173 -0.000130777 0)
(0.00155632 -0.000154915 0)
(0.00150387 -0.000171487 0)
(0.00145273 -0.000196719 0)
(0.00140459 -0.000216963 0)
(0.00135989 -0.000243248 0)
(0.00131832 -0.000267611 0)
(0.00128219 -0.000295255 0)
(0.00124984 -0.000324193 0)
(0.00179635 -6.97885e-05 0)
(0.00175499 -8.13089e-05 0)
(0.00171498 -0.000102175 0)
(0.00167432 -0.00011778 0)
(0.0016372 -0.000140548 0)
(0.00159985 -0.00016006 0)
(0.00156776 -0.000184458 0)
(0.00153652 -0.000207714 0)
(0.00151197 -0.000233615 0)
(0.00149014 -0.000260493 0)
(0.00189414 -7.23817e-05 0)
(0.00186018 -8.34335e-05 0)
(0.0018248 -0.000100552 0)
(0.00179178 -0.000114544 0)
(0.00176015 -0.000133611 0)
(0.00173063 -0.000150616 0)
(0.0017049 -0.000171368 0)
(0.00168155 -0.000191331 0)
(0.00166397 -0.000213466 0)
(0.00164976 -0.000236153 0)
(0.0020095 -6.43931e-05 0)
(0.00198411 -7.49147e-05 0)
(0.00195721 -9.04915e-05 0)
(0.00193209 -0.00010396 0)
(0.00190837 -0.000121566 0)
(0.00188585 -0.000137813 0)
(0.00186696 -0.000157113 0)
(0.00184948 -0.000175831 0)
(0.00183721 -0.000196325 0)
(0.0018274 -0.000217039 0)
(0.00210803 -7.72277e-05 0)
(0.00208715 -8.76026e-05 0)
(0.00206324 -0.00010142 0)
(0.00204292 -0.000114051 0)
(0.00202205 -0.000129473 0)
(0.00200409 -0.00014418 0)
(0.00198786 -0.000160983 0)
(0.00197412 -0.000177461 0)
(0.00196413 -0.000195184 0)
(0.00195678 -0.000212889 0)
(0.00221642 -7.43271e-05 0)
(0.00219912 -8.42739e-05 0)
(0.00217967 -9.74308e-05 0)
(0.00216273 -0.000109455 0)
(0.00214568 -0.000124134 0)
(0.00213056 -0.000138082 0)
(0.00211708 -0.000154021 0)
(0.00210519 -0.000169489 0)
(0.00209615 -0.000186119 0)
(0.00208889 -0.000202519 0)
(0.00231699 -7.0875e-05 0)
(0.00230176 -7.98569e-05 0)
(0.00228282 -9.18666e-05 0)
(0.00226898 -0.00010319 0)
(0.00225246 -0.000116678 0)
(0.00223997 -0.000129447 0)
(0.00222649 -0.000144147 0)
(0.00221534 -0.000158526 0)
(0.00220634 -0.000173438 0)
(0.00219846 -0.000188351 0)
(0.002418 -5.02956e-05 0)
(0.00240486 -5.90987e-05 0)
(0.00238758 -7.06555e-05 0)
(0.0023745 -8.17153e-05 0)
(0.00235945 -9.46616e-05 0)
(0.00234735 -0.000107545 0)
(0.00233507 -0.000121578 0)
(0.00232471 -0.00013576 0)
(0.00231541 -0.000150506 0)
(0.00230738 -0.000165248 0)
(0.00016814 -0.00160917 0)
(0.000141495 -0.00161378 0)
(0.000121933 -0.00163218 0)
(0.000107892 -0.00163589 0)
(9.37097e-05 -0.00165114 0)
(8.27314e-05 -0.00165485 0)
(6.93295e-05 -0.00166777 0)
(5.72975e-05 -0.00167142 0)
(4.09569e-05 -0.00168093 0)
(2.3833e-05 -0.00168265 0)
(0.000415461 -0.0012874 0)
(0.000358377 -0.00130765 0)
(0.000311876 -0.00134825 0)
(0.000269365 -0.00136538 0)
(0.000227752 -0.00139702 0)
(0.000192755 -0.00141259 0)
(0.000153268 -0.00143845 0)
(0.000116699 -0.00145242 0)
(7.11509e-05 -0.00147242 0)
(2.35909e-05 -0.00148476 0)
(0.000755251 -0.000933552 0)
(0.000688887 -0.000963661 0)
(0.000625799 -0.00101334 0)
(0.000563989 -0.00103927 0)
(0.000503553 -0.00108011 0)
(0.000449487 -0.0011043 0)
(0.000392957 -0.00113893 0)
(0.000339511 -0.00116158 0)
(0.000279125 -0.00118992 0)
(0.000216952 -0.0012121 0)
(0.000975305 -0.000718452 0)
(0.000900618 -0.000740363 0)
(0.000822413 -0.00078085 0)
(0.000751434 -0.000805925 0)
(0.000677523 -0.000846138 0)
(0.000612047 -0.000873261 0)
(0.000542372 -0.000910295 0)
(0.000477353 -0.000937812 0)
(0.000405931 -0.000970374 0)
(0.000333485 -0.000998899 0)
(0.0012596 -0.000478394 0)
(0.00118536 -0.000493845 0)
(0.00110577 -0.000533287 0)
(0.00103149 -0.000553695 0)
(0.0009532 -0.000592103 0)
(0.000879444 -0.000617331 0)
(0.000803768 -0.000653815 0)
(0.000729994 -0.000682937 0)
(0.000653919 -0.000717368 0)
(0.000576428 -0.000751172 0)
)
;

boundaryField
{
    back
    {
        type            empty;
    }
    left
    {
        type            symmetry;
    }
    hole
    {
        type            calculated;
        value           nonuniform List<vector> 10((0.000455915 -0.000471176 -1.09814e-21) (0.00105221 -0.000854058 1.55192e-20) (0.00131532 -0.000952295 -8.509e-21) (0.00140095 -0.000859549 9.43986e-21) (0.00163274 -0.000699621 8.77668e-23) (0.00169932 -0.00055378 4.65801e-21) (0.00185826 -0.000440622 2.64026e-21) (0.00192574 -0.000287469 -3.85043e-21) (0.00199728 -0.000188724 -7.84755e-21) (0.00202434 -4.79639e-05 1.27157e-21));
    }
    front
    {
        type            empty;
    }
    down
    {
        type            symmetry;
    }
    right
    {
        type            calculated;
        value           nonuniform List<vector> 
15
(
(0.00258025 5.37715e-06 3.97716e-21)
(0.0025691 2.02502e-06 6.45949e-21)
(0.00255229 7.577e-06 2.16794e-21)
(0.00252284 -2.93556e-06 3.63985e-21)
(0.00249547 -1.05942e-05 -1.32324e-21)
(0.00246806 -2.60866e-05 -8.29974e-21)
(0.00245546 -3.53036e-05 5.92693e-21)
(0.00243894 -4.69014e-05 3.50944e-21)
(0.00242632 -5.97059e-05 -7.82804e-22)
(0.00241188 -7.34237e-05 0)
(0.00240015 -8.8474e-05 5.02763e-21)
(0.0023883 -0.000103864 2.61704e-21)
(0.00237818 -0.000120382 -5.38783e-21)
(0.00236907 -0.000136953 -2.55421e-21)
(0.00236106 -0.000153021 0)
)
;
    }
    up
    {
        type            calculated;
        value           nonuniform List<vector> 
15
(
(0.000725268 -0.000596878 2.29289e-21)
(0.00103741 -0.000433898 -2.48338e-21)
(0.00123734 -0.000338996 -1.57224e-21)
(0.00148311 -0.000274187 -2.00427e-21)
(0.00164629 -0.0002477 -1.85487e-21)
(0.00182555 -0.000227551 -1.36612e-21)
(0.00195562 -0.000221842 -1.42486e-21)
(0.00208693 -0.000210794 2.15639e-21)
(0.00219548 -0.000195833 1.10346e-21)
(0.00230358 -0.000172654 0)
(1.2061e-05 -0.00168383 -1.85347e-21)
(-6.43335e-06 -0.00148987 -1.93802e-21)
(0.000181823 -0.00122142 2.13319e-22)
(0.000294355 -0.00101163 2.81046e-21)
(0.000536654 -0.000768005 2.87731e-22)
)
;
    }
}


// ************************************************************************* //
