/*--------------------------------*- C++ -*----------------------------------*\
| =========                 |                                                 |
| \\      /  F ield         | OpenFOAM: The Open Source CFD Toolbox           |
|  \\    /   O peration     | Version:  v2012                                 |
|   \\  /    A nd           | Website:  www.openfoam.com                      |
|    \\/     M anipulation  |                                                 |
\*---------------------------------------------------------------------------*/
FoamFile
{
    version     2.0;
    format      ascii;
    class       volScalarField;
    location    "16";
    object      epsilonEq;
}
// * * * * * * * * * * * * * * * * * * * * * * * * * * * * * * * * * * * * * //

dimensions      [0 0 0 0 0 0 0];


internalField   nonuniform List<scalar> 
250
(
0.0102963
0.00804901
0.00545604
0.00380708
0.00240889
0.00554112
0.00369848
0.00255755
0.00210203
0.00173717
0.00124603
0.000760526
0.000973489
0.00120277
0.00141532
0.000523649
0.000597646
0.000864276
0.000979195
0.00106932
0.000290299
0.000498751
0.000697008
0.000845625
0.00092062
0.000279534
0.000439489
0.000593356
0.000723476
0.000783339
0.000487442
0.000460967
0.000567264
0.000601207
0.000668372
0.000743136
0.00055386
0.000503148
0.000490841
0.000514531
0.000868484
0.000591767
0.000451912
0.000372334
0.000350041
0.000965294
0.000643396
0.000428934
0.000315356
0.000210923
0.00016905
0.000349424
0.000514826
0.000694314
0.000883586
0.000153619
0.000323711
0.000471225
0.000614377
0.000718259
0.000188066
0.000311696
0.000476062
0.000608024
0.000759724
0.000220606
0.00030711
0.000429288
0.000529382
0.000652114
0.000293436
0.000350391
0.000461552
0.000544436
0.00064159
0.000319489
0.000359092
0.000432829
0.000507734
0.000587921
0.000381016
0.000407935
0.000461779
0.000514535
0.000569236
0.000393852
0.000414285
0.000450083
0.000497276
0.00054031
0.000410072
0.000423996
0.000448646
0.000481153
0.000513175
0.000390962
0.000404026
0.000422141
0.000456185
0.000484388
0.000934208
0.000905153
0.000968728
0.000998135
0.00106417
0.00110219
0.00117296
0.00122737
0.00132121
0.00141399
0.000836934
0.000896058
0.000956242
0.00100352
0.00106063
0.00110804
0.00117001
0.00122448
0.00129973
0.00137133
0.000816337
0.000842669
0.000875407
0.000902295
0.000945097
0.000975535
0.00102863
0.00106931
0.00113503
0.00119209
0.000738419
0.000779372
0.000826246
0.000862467
0.000906859
0.000939834
0.000983662
0.00101718
0.00106395
0.00110348
0.0007041
0.00073073
0.000758311
0.00078284
0.000808688
0.00082997
0.000855952
0.00087673
0.000904669
0.000927803
0.0006522
0.000677379
0.000708352
0.000732944
0.00075856
0.0007788
0.000799782
0.000815451
0.000833064
0.000845199
0.000615883
0.000630694
0.000651152
0.000665746
0.000681234
0.000692208
0.000703218
0.000709864
0.000715908
0.000717812
0.000582011
0.000593855
0.000611454
0.000626357
0.000640341
0.000651635
0.000660121
0.000664162
0.000667354
0.00066379
0.000540463
0.000545914
0.000563036
0.000573958
0.000582528
0.000591022
0.000598784
0.000600446
0.000600909
0.000598808
0.000512365
0.000525804
0.000543152
0.000552685
0.000566985
0.000574092
0.000584592
0.000590495
0.000593384
0.000593454
0.00186777
0.0015783
0.00142624
0.00126708
0.00112408
0.000982135
0.000829403
0.000653067
0.000441243
0.000168692
0.00181374
0.00179421
0.00175104
0.00160106
0.00152419
0.0013948
0.00127209
0.00109834
0.000930047
0.000714783
0.00167155
0.00167217
0.00162251
0.00153266
0.00151005
0.00143773
0.00138661
0.00128712
0.00123108
0.00114861
0.00116921
0.00120863
0.00126284
0.00131153
0.00136118
0.00136322
0.00137443
0.00134247
0.00135028
0.00133795
0.000996809
0.00103205
0.00110014
0.00113945
0.00121467
0.00124081
0.00130983
0.00133484
0.00141845
0.00148603
)
;

boundaryField
{
    back
    {
        type            empty;
    }
    left
    {
        type            symmetry;
    }
    hole
    {
        type            calculated;
        value           nonuniform List<scalar> 10(0.0104033 0.00563058 0.00126236 0.000476876 0.000149682 0.000191028 0.000446373 0.000738675 0.000879496 0.000982023);
    }
    front
    {
        type            empty;
    }
    down
    {
        type            symmetry;
    }
    right
    {
        type            calculated;
        value           nonuniform List<scalar> 
15
(
0.000389422
0.000401731
0.000418317
0.000451454
0.000477876
0.000507095
0.000519081
0.000536282
0.000546819
0.000560931
0.000569259
0.000579421
0.000584934
0.000589374
0.000589853
)
;
    }
    up
    {
        type            calculated;
        value           nonuniform List<scalar> 
15
(
0.00141772
0.00137403
0.00119469
0.0011051
0.000928889
0.000846026
0.00071823
0.000664272
0.000598968
0.000593812
0.000160709
0.000711145
0.00115428
0.00134364
0.00149224
)
;
    }
}


// ************************************************************************* //
