/*--------------------------------*- C++ -*----------------------------------*\
| =========                 |                                                 |
| \\      /  F ield         | OpenFOAM: The Open Source CFD Toolbox           |
|  \\    /   O peration     | Version:  v2012                                 |
|   \\  /    A nd           | Website:  www.openfoam.com                      |
|    \\/     M anipulation  |                                                 |
\*---------------------------------------------------------------------------*/
FoamFile
{
    version     2.0;
    format      ascii;
    class       volSymmTensorField;
    location    "16";
    object      epsilon;
}
// * * * * * * * * * * * * * * * * * * * * * * * * * * * * * * * * * * * * * //

dimensions      [0 0 0 0 0 0 0];


internalField   nonuniform List<symmTensor> 
250
(
(0.00896863 -0.00153616 7.58125e-19 -0.00859719 -7.17972e-20 -3.16542e-37)
(0.00737058 -0.00110003 3.58933e-19 -0.00638424 4.61257e-19 0)
(0.00543173 -0.000684273 3.0196e-19 -0.00387553 -1.89192e-19 0)
(0.00410127 -0.00029015 -2.73513e-19 -0.0023927 -4.81011e-19 0)
(0.00289911 -1.44122e-05 3.32215e-20 -0.00114889 2.76786e-20 0)
(0.00439574 -0.00244004 -1.70182e-19 -0.00386271 1.66682e-19 3.44516e-35)
(0.00322988 -0.00150021 3.26802e-19 -0.00241015 1.88131e-19 0)
(0.00257002 -0.00085349 4.72852e-19 -0.00146787 3.11148e-19 0)
(0.00228863 -0.00033649 -2.89097e-19 -0.00123763 -1.35302e-19 0)
(0.00199516 9.90855e-06 -1.66858e-20 -0.000952849 -6.31547e-20 0)
(0.000927121 -0.000828924 -2.67518e-19 -0.00042375 2.39905e-20 3.89022e-35)
(0.000680039 -0.000435596 -6.06734e-19 -0.00028073 2.22702e-19 0)
(0.000997378 -0.000367236 2.11877e-19 -0.000492078 5.43767e-20 0)
(0.00127622 -0.00017162 3.58207e-19 -0.000756552 5.25366e-20 0)
(0.00152161 -9.25861e-05 -4.26153e-19 -0.000895962 -1.72298e-19 0)
(0.000477712 -0.000298656 -6.09048e-20 -0.000183312 1.47164e-19 -2.96247e-35)
(0.000611935 -0.000187797 -1.30955e-19 -0.000339792 5.82935e-20 0)
(0.000872563 -0.000267784 -6.54093e-20 -0.000509519 -6.55363e-20 0)
(0.00102485 -0.00018453 2.42347e-19 -0.000613392 4.6261e-21 0)
(0.00113675 -0.000190407 -2.9623e-20 -0.000654257 -1.10645e-19 0)
(0.000290744 -8.4862e-05 1.14925e-20 -0.000178066 -1.01541e-20 1.93656e-38)
(0.000491208 -0.00011149 -1.72376e-19 -0.000338725 4.55534e-21 0)
(0.000697971 -0.000152196 -1.45691e-19 -0.00046233 -1.18592e-19 0)
(0.000852456 -0.000149489 8.08482e-20 -0.000572211 -1.59504e-19 0)
(0.000946616 -0.000148879 7.10461e-20 -0.000607623 6.31996e-20 0)
(0.000136707 0.000136001 4.00995e-20 -0.000257695 2.27546e-20 1.77215e-36)
(0.000347817 -2.05683e-05 -6.52773e-20 -0.000411401 -1.81304e-19 0)
(0.000529378 -0.00011872 -5.34059e-20 -0.00046995 -5.48792e-20 0)
(0.000642297 -0.000198702 -2.88011e-20 -0.000544779 1.29518e-19 0)
(0.000741587 -0.000243397 -4.11547e-21 -0.000518282 3.99277e-20 0)
(0.00017285 0.000242226 1.82667e-19 -0.000493377 -2.56744e-19 1.93105e-35)
(0.000276778 2.81221e-05 -7.2175e-20 -0.000508355 -1.93256e-19 0)
(0.000411488 -0.000125182 -1.08638e-19 -0.000535889 1.9424e-19 0)
(0.000449385 -0.000210065 1.04579e-19 -0.00050292 6.83736e-20 0)
(0.000529516 -0.000287089 -3.44563e-20 -0.000475222 -1.08254e-19 0)
(0.00026347 0.000343152 5.81599e-20 -0.000783275 -2.37325e-19 -3.06214e-35)
(0.000264796 7.42895e-05 1.1013e-19 -0.000655681 -4.67713e-20 0)
(0.000305019 -9.60784e-05 -4.30071e-20 -0.000534612 1.85237e-19 0)
(0.000306688 -0.000184763 -5.20141e-20 -0.000454214 2.00652e-20 0)
(0.000340281 -0.00027959 1.13125e-20 -0.000353611 -8.66531e-20 0)
(0.000370275 0.000254791 -2.75235e-20 -0.000997872 -1.92008e-19 -1.86073e-35)
(0.000236515 8.06874e-05 5.22956e-20 -0.000734055 2.79517e-20 0)
(0.000207972 -5.63438e-05 2.74241e-20 -0.000542189 2.52233e-20 0)
(0.000169571 -0.00011405 -7.53065e-20 -0.000416548 -5.27575e-20 0)
(0.000174095 -0.000191747 1.38897e-20 -0.000290653 -1.84874e-20 0)
(0.000455887 9.91148e-05 2.06928e-20 -0.00115451 -1.15128e-19 -6.39332e-36)
(0.000255618 1.84425e-05 3.31476e-20 -0.00081101 2.61309e-20 0)
(0.000165561 -2.79476e-05 -1.01772e-20 -0.000542571 -9.88437e-21 0)
(0.000112096 -4.83462e-05 -2.20959e-21 -0.000399282 -5.3813e-21 0)
(8.24334e-05 -7.42511e-05 1.06994e-20 -0.000238896 1.21203e-20 0)
(0.000103085 -7.82722e-05 1.66359e-21 -0.000143267 1.8577e-21 0)
(0.000194419 -0.000229328 -1.6825e-21 -0.000200441 -3.59895e-21 0)
(0.000356515 -0.000314178 -4.16282e-20 -0.000274405 -2.45359e-20 0)
(0.000560693 -0.000358963 -4.13914e-20 -0.000399592 -2.48522e-20 0)
(0.000825255 -0.000353008 -1.61814e-19 -0.000521182 -1.06848e-19 0)
(0.000163218 -7.11004e-05 4.53554e-21 -5.23735e-05 9.91819e-22 0)
(0.000216516 -0.000230879 3.5508e-20 -9.34864e-05 9.35225e-21 0)
(0.000333303 -0.000316371 -3.66278e-22 -0.000173977 -5.51537e-22 0)
(0.000468472 -0.000386133 -1.00417e-20 -0.000252988 3.53937e-21 0)
(0.000652432 -0.000348114 4.53088e-20 -0.000365134 1.26237e-20 0)
(0.000243429 -6.32329e-05 -5.16991e-21 -3.04066e-05 -9.72931e-22 0)
(0.00028908 -0.000194229 1.51167e-20 -6.22151e-05 2.04475e-21 0)
(0.00040443 -0.000298518 -1.89667e-21 -0.000144075 -3.96331e-22 0)
(0.000505457 -0.000376603 2.80896e-20 -0.000210633 7.71887e-21 0)
(0.000655951 -0.000430161 5.38781e-20 -0.000320743 1.76515e-20 0)
(0.000307046 -5.78535e-05 -1.70103e-20 -1.60398e-05 -1.4892e-23 0)
(0.000333511 -0.00017185 2.78362e-21 -3.37264e-05 1.39889e-21 0)
(0.000407262 -0.00026135 -2.92166e-20 -8.84969e-05 -5.19036e-21 0)
(0.000497763 -0.000311356 -7.29784e-20 -0.000143419 -1.37103e-20 0)
(0.000617389 -0.000356275 1.45792e-19 -0.000229958 3.49326e-20 0)
(0.000400187 -5.52142e-05 -8.52339e-21 -5.38307e-05 -3.27316e-21 0)
(0.000422333 -0.000144592 -1.89712e-20 -7.12293e-05 -4.28289e-21 0)
(0.000479514 -0.000245034 -4.38109e-20 -0.000116254 -1.55815e-21 0)
(0.000537482 -0.00029864 -5.40943e-20 -0.000158695 1.6555e-21 0)
(0.000612509 -0.000354116 1.27273e-20 -0.000212027 6.76577e-21 0)
(0.000446807 -4.47254e-05 2.47312e-20 -4.85081e-05 -4.44905e-22 0)
(0.000465114 -0.000115427 2.62775e-20 -6.39422e-05 5.70786e-21 0)
(0.000504331 -0.000191482 1.183e-20 -9.53384e-05 6.55397e-21 0)
(0.000563937 -0.000231159 -7.49e-20 -0.000143724 -1.70711e-20 0)
(0.000626159 -0.00027706 -5.14272e-20 -0.000190281 -1.77093e-20 0)
(0.000518476 -4.16466e-05 0 -8.69166e-05 0 0)
(0.000530095 -0.000100645 2.24252e-20 -0.000100036 2.78993e-21 0)
(0.000553845 -0.000173296 3.01367e-20 -0.000122623 -5.99784e-21 0)
(0.000587768 -0.000210301 -1.28121e-21 -0.000157667 -1.11184e-20 0)
(0.000625077 -0.000247999 4.12467e-20 -0.000188974 7.27687e-21 0)
(0.000548713 -2.93547e-05 2.7638e-20 -7.29471e-05 -2.10862e-21 0)
(0.000560158 -7.21723e-05 3.14109e-20 -8.76351e-05 7.91841e-22 0)
(0.000579206 -0.000122561 4.08455e-20 -0.000109294 4.51185e-21 0)
(0.000612026 -0.000151184 -4.34888e-20 -0.000148835 -1.05579e-20 0)
(0.000641933 -0.000178855 -4.74677e-21 -0.000180858 4.43959e-21 0)
(0.000577263 -2.3534e-05 -3.10415e-27 -6.74177e-05 -6.8177e-29 0)
(0.000583828 -5.57391e-05 -2.624e-20 -8.16174e-05 7.57104e-22 0)
(0.000595159 -9.54924e-05 1.8174e-20 -0.000102257 6.84781e-21 0)
(0.00061352 -0.000115768 -4.51635e-21 -0.000138641 2.92812e-21 0)
(0.00063361 -0.000133886 2.52248e-21 -0.0001707 6.37624e-21 0)
(0.000577157 -7.52902e-06 -1.5028e-20 -1.78735e-05 -1.40955e-21 -3.3208e-36)
(0.000585885 -1.76736e-05 -2.40896e-20 -3.70582e-05 -7.51825e-21 -7.90491e-36)
(0.000597438 -3.13194e-05 -7.86785e-21 -6.22717e-05 -3.9159e-21 -8.26168e-37)
(0.000618831 -3.80205e-05 -1.27668e-20 -0.000110925 -8.43826e-21 -1.30686e-36)
(0.000636256 -4.69014e-05 4.37333e-21 -0.000148462 2.06693e-21 -4.211e-37)
(0.000914334 -0.000313139 -9.22174e-20 -0.000563863 -6.31965e-20 0)
(0.000920181 -0.000272145 -2.17227e-20 -0.000532982 -2.48208e-20 0)
(0.00101234 -0.000245536 1.86495e-19 -0.000571786 3.27874e-20 0)
(0.0010821 -0.000214449 1.47342e-19 -0.000565945 1.63048e-20 0)
(0.00117472 -0.000179483 -1.22255e-19 -0.000602776 -5.2372e-20 0)
(0.0012504 -0.000148688 8.13383e-20 -0.00059725 6.83726e-20 0)
(0.00134433 -0.000113373 1.29982e-20 -0.000632295 4.99018e-20 0)
(0.00143438 -8.38992e-05 5.23716e-20 -0.000633843 4.07392e-20 0)
(0.00154829 -5.19763e-05 8.67874e-20 -0.00068242 4.43508e-20 0)
(0.00167482 -2.01318e-05 -8.32601e-20 -0.00070973 -2.35315e-20 6.91501e-36)
(0.000860063 -0.000281252 -4.42279e-20 -0.000455374 -1.77739e-20 0)
(0.000944359 -0.000286545 -2.32602e-34 -0.000471952 -2.56151e-34 0)
(0.00103226 -0.000263956 4.24372e-20 -0.000508179 4.1899e-21 0)
(0.00110817 -0.000253115 -9.10154e-20 -0.000519519 -3.83768e-20 0)
(0.00118856 -0.000226506 -3.27108e-20 -0.000553621 -5.51037e-21 0)
(0.00126705 -0.000201751 -5.98226e-20 -0.000564922 -3.62841e-20 0)
(0.0013489 -0.000168742 3.18435e-20 -0.000602275 1.85842e-20 0)
(0.0014336 -0.000131654 -6.76857e-20 -0.000617414 -3.79547e-20 0)
(0.00152511 -8.77455e-05 1.45474e-19 -0.000663397 8.76763e-20 0)
(0.0016232 -3.31619e-05 6.66888e-20 -0.000689009 2.54485e-20 7.51952e-36)
(0.000760603 -0.000410901 -1.49405e-19 -0.000367367 -4.88269e-20 0)
(0.000824374 -0.000392044 6.43668e-20 -0.000379592 1.97611e-20 0)
(0.00088504 -0.000368525 1.85e-19 -0.000411503 6.96181e-20 0)
(0.000954181 -0.000336003 -1.57643e-19 -0.000423059 -6.25026e-20 0)
(0.00102355 -0.000303799 7.55663e-20 -0.000461419 3.4085e-20 0)
(0.00109395 -0.000260913 4.48234e-20 -0.000472581 2.46509e-20 0)
(0.00117008 -0.000217752 -6.56415e-20 -0.000515707 -3.80952e-20 0)
(0.00124548 -0.000163918 -8.84689e-20 -0.000529948 -5.02843e-20 0)
(0.00132802 -0.000106753 -8.33322e-20 -0.000577658 -5.42434e-20 0)
(0.00141134 -3.82293e-05 1.01167e-20 -0.000597848 1.60437e-20 4.7406e-36)
(0.000738188 -0.000349312 1.46542e-19 -0.000303285 4.71233e-20 0)
(0.000805442 -0.000340298 -6.16734e-20 -0.000327167 -2.41678e-20 0)
(0.000871572 -0.000325467 2.05752e-20 -0.000369523 4.18167e-21 0)
(0.000935778 -0.000306714 2.20909e-20 -0.000389247 4.37372e-21 0)
(0.00100027 -0.000279875 -2.80367e-29 -0.000429912 -2.72102e-29 0)
(0.00106184 -0.000248832 2.50669e-20 -0.000446835 5.09497e-21 0)
(0.00112452 -0.000208285 2.65466e-20 -0.000485842 5.52314e-21 0)
(0.00118473 -0.000162292 9.82604e-20 -0.00050138 4.87637e-20 0)
(0.00124585 -0.000104524 3.51308e-20 -0.000539009 3.98165e-20 0)
(0.0013055 -4.01351e-05 2.71425e-20 -0.000554167 2.04681e-20 6.04792e-36)
(0.000694588 -0.000355907 -2.14939e-20 -0.000263938 -1.84063e-20 0)
(0.000741593 -0.00034631 1.75068e-20 -0.00028431 4.67499e-22 0)
(0.000784557 -0.000332937 5.19263e-20 -0.000314575 2.32376e-20 0)
(0.000835767 -0.000310211 -9.61285e-21 -0.000334655 -2.26487e-20 0)
(0.000879811 -0.000283847 6.71956e-20 -0.000365816 2.84578e-20 0)
(0.00092875 -0.000248091 -2.1925e-20 -0.00038317 -1.68572e-21 0)
(0.000972173 -0.000207959 -5.15215e-20 -0.000413852 -5.90613e-20 0)
(0.00101754 -0.000158454 7.20628e-20 -0.000428044 7.29826e-21 0)
(0.00105787 -0.000102463 4.90392e-20 -0.000456277 3.65583e-20 0)
(0.00109734 -3.74847e-05 4.18709e-20 -0.000465985 1.88774e-20 5.57789e-36)
(0.000697269 -0.000284435 4.10997e-20 -0.000242738 1.79311e-20 0)
(0.000736011 -0.000275108 4.84182e-21 -0.000263703 2.01526e-20 0)
(0.000773733 -0.000268441 -5.76667e-20 -0.000294152 -2.16464e-20 0)
(0.000815592 -0.0002499 -3.69818e-20 -0.000315025 -2.32709e-20 0)
(0.000851005 -0.000230714 6.49029e-20 -0.000343805 7.55887e-20 0)
(0.000889101 -0.00020214 2.0989e-20 -0.000361201 4.76748e-22 0)
(0.000920372 -0.000169783 -1.53582e-19 -0.000386821 -1.15863e-19 0)
(0.00095198 -0.00013013 -2.24314e-20 -0.000399031 2.73735e-20 0)
(0.000976926 -8.34173e-05 3.93081e-21 -0.000419737 9.02305e-20 0)
(0.000999446 -3.13347e-05 -3.69897e-20 -0.000425047 1.39194e-20 4.11291e-36)
(0.00067375 -0.000253297 4.66959e-20 -0.000229268 2.79299e-20 0)
(0.000696041 -0.000245573 5.03862e-20 -0.000244197 1.72954e-20 0)
(0.000720354 -0.000238744 -3.3531e-20 -0.000267373 -1.97509e-20 0)
(0.000747284 -0.000220721 -3.52822e-20 -0.000283824 8.93524e-22 0)
(0.000769116 -0.000203889 3.13361e-29 -0.000305233 2.40035e-29 0)
(0.000793468 -0.000176176 3.74628e-20 -0.000319354 -8.6162e-23 0)
(0.000811209 -0.000149045 3.55096e-21 -0.000337679 2.47266e-20 0)
(0.000829557 -0.000111561 -3.91667e-20 -0.000347015 -9.38263e-22 0)
(0.000840134 -7.23401e-05 -6.73866e-21 -0.000359749 2.58054e-20 0)
(0.000848476 -2.58561e-05 4.73329e-20 -0.000361499 1.44555e-20 4.2713e-36)
(0.000679703 -0.000185468 -6.44896e-22 -0.000219136 3.77074e-21 0)
(0.000695741 -0.000175684 1.64244e-20 -0.000233383 5.91549e-22 0)
(0.000712074 -0.00017105 8.87325e-20 -0.000254831 3.91094e-20 0)
(0.000733388 -0.000156434 -8.39735e-21 -0.000270423 -1.91456e-20 0)
(0.000747658 -0.000144077 -6.70191e-21 -0.000290297 -2.04644e-20 0)
(0.000765723 -0.000122461 5.7779e-20 -0.000303196 2.46556e-20 0)
(0.000774686 -0.000102534 1.8288e-20 -0.000318927 1.29161e-21 0)
(0.000783249 -7.63648e-05 -2.66066e-21 -0.000325937 2.26237e-20 0)
(0.000786468 -4.79376e-05 6.25422e-21 -0.000335649 -2.31231e-20 0)
(0.000784733 -1.71448e-05 3.86997e-20 -0.000334718 -2.1895e-20 1.29391e-35)
(0.00065371 -0.000136089 -7.39196e-21 -0.000203392 -5.36191e-21 0)
(0.000658624 -0.000126572 -8.25142e-20 -0.000215801 -3.63623e-20 0)
(0.000672821 -0.000124437 -8.9457e-21 -0.000235692 -1.5351e-20 0)
(0.000685476 -0.000110399 3.9168e-20 -0.00025076 2.0657e-20 0)
(0.00069194 -0.00010061 -3.82949e-20 -0.000265634 -2.18901e-20 0)
(0.000701937 -8.32175e-05 -7.15677e-34 -0.000278022 -2.67347e-34 0)
(0.000709322 -6.61346e-05 8.77295e-20 -0.000290511 8.64012e-20 0)
(0.000710871 -4.80673e-05 1.67815e-20 -0.000296692 2.59657e-21 0)
(0.000710016 -2.82148e-05 -4.73157e-21 -0.000302241 -6.14938e-20 0)
(0.000707586 -9.85203e-06 -1.04395e-20 -0.000302702 -1.11803e-20 3.30354e-36)
(0.000652263 -4.55534e-05 2.71094e-20 -0.000188994 2.78767e-20 -2.51707e-36)
(0.000661924 -4.39477e-05 -1.93247e-20 -0.000205374 -2.04537e-20 -1.82479e-36)
(0.00067243 -4.30815e-05 -1.14911e-20 -0.000228668 -1.68917e-20 -9.63135e-50)
(0.000677939 -3.69623e-05 2.64344e-21 -0.000242826 1.28786e-20 2.49615e-37)
(0.000686834 -3.35727e-05 0 -0.000261667 0 0)
(0.000690459 -2.67097e-05 -1.62997e-20 -0.000272724 -9.26946e-21 -3.07829e-36)
(0.000697262 -2.11446e-05 -8.56248e-21 -0.000286161 -2.11387e-20 -2.39224e-50)
(0.000701492 -1.30865e-05 1.74259e-20 -0.000293425 -9.31226e-21 -4.93646e-36)
(0.000701791 -6.903e-06 8.28359e-21 -0.000299265 3.85129e-21 -7.82202e-37)
(0.000701495 -2.23776e-06 0 -0.000299894 0 0)
(0.00236232 0.000123369 -6.36276e-20 -0.000721001 -4.13977e-20 0)
(0.00205096 0.000217821 5.52624e-20 -0.000493611 3.15128e-20 0)
(0.00180568 0.000297173 2.88463e-25 -0.000463379 2.2216e-25 0)
(0.00158635 0.000327436 -4.97596e-20 -0.000391439 -3.6251e-20 0)
(0.00136332 0.000325833 4.31132e-20 -0.000381604 3.47412e-20 0)
(0.00117706 0.000312748 -1.63131e-19 -0.000326779 -1.29094e-19 0)
(0.000955618 0.000277102 1.70633e-19 -0.000317511 8.76667e-20 0)
(0.000748882 0.000229167 1.96689e-19 -0.000243172 1.35299e-19 0)
(0.000478369 0.000157818 -7.1793e-20 -0.00019867 6.77912e-22 0)
(0.000189853 6.3713e-05 1.19479e-19 -6.26081e-05 3.51399e-20 1.90906e-35)
(0.00201403 0.000269553 2.36365e-19 -0.00102805 1.39191e-19 0)
(0.00198071 0.000420821 1.74568e-19 -0.000951172 5.75239e-20 0)
(0.00189766 0.000506923 1.34541e-19 -0.000902399 1.63473e-19 0)
(0.00175236 0.000531951 -3.77972e-19 -0.000741124 -3.51297e-19 0)
(0.00161559 0.000560898 -3.6225e-21 -0.000717212 -1.87654e-21 0)
(0.00147278 0.000556308 3.48405e-19 -0.00061344 1.91211e-19 0)
(0.0013207 0.000509055 4.3887e-20 -0.000586809 -1.31896e-19 0)
(0.00116998 0.000428812 -3.40767e-19 -0.000480861 -8.24229e-20 0)
(0.0010077 0.000299762 -2.49958e-19 -0.000452729 -1.46614e-19 0)
(0.000840106 0.000122338 2.56898e-20 -0.000338449 3.47714e-20 -1.84237e-37)
(0.0017549 6.73892e-05 9.55491e-20 -0.00111335 8.8183e-20 0)
(0.0017813 0.000153091 7.23109e-20 -0.00106926 7.38966e-20 0)
(0.00173623 0.00021687 3.52396e-19 -0.00100839 1.78854e-19 0)
(0.00169108 0.000254729 3.6847e-19 -0.000870815 1.55863e-19 0)
(0.00164705 0.000315769 -5.29779e-19 -0.000848865 -2.56371e-19 0)
(0.00158993 0.000344657 1.27952e-19 -0.000753787 2.1803e-20 0)
(0.00152335 0.000340246 6.92636e-19 -0.000734423 4.52706e-19 0)
(0.00145736 0.000297481 1.10545e-19 -0.000638483 1.54292e-19 0)
(0.00140541 0.000212878 -2.11562e-19 -0.000636205 -8.57321e-20 0)
(0.0013636 8.7425e-05 -1.91257e-19 -0.000563572 -3.06896e-21 1.38562e-36)
(0.00125997 -0.000131939 -3.77993e-19 -0.000723905 -1.42748e-19 0)
(0.00132656 -6.80841e-05 4.5605e-19 -0.000734228 2.19619e-19 0)
(0.00138727 -8.23095e-06 4.03587e-19 -0.000770814 1.68591e-19 0)
(0.0014669 5.50914e-05 -3.66191e-19 -0.00076566 -4.53537e-20 0)
(0.00151722 0.000114358 5.6682e-20 -0.000791597 6.7271e-20 0)
(0.00154416 0.000167407 -1.18167e-20 -0.000747438 -1.32163e-19 0)
(0.00155412 0.000185401 -4.19082e-19 -0.000751276 -2.4267e-19 0)
(0.00155194 0.000182368 5.10645e-20 -0.000689927 6.77351e-20 0)
(0.00156594 0.000135561 1.10993e-19 -0.000702999 1.41788e-19 0)
(0.00158729 5.90986e-05 -1.96437e-19 -0.000665007 -3.74261e-20 1.43874e-35)
(0.00103564 -0.000167039 -1.98386e-19 -0.000643019 -1.0411e-20 0)
(0.00110623 -0.00012916 -1.44689e-19 -0.00064216 -5.37822e-20 0)
(0.00118361 -0.000104672 1.76976e-19 -0.00068868 1.611e-19 0)
(0.00126361 -7.19446e-05 1.73238e-19 -0.00067519 7.06957e-20 0)
(0.00135004 -3.82551e-05 3.19428e-19 -0.000720816 7.17321e-20 0)
(0.00141528 3.12645e-06 4.48858e-19 -0.000693018 2.15756e-19 0)
(0.00149594 3.08888e-05 -2.26649e-19 -0.000728166 -1.4387e-19 0)
(0.00155935 4.65009e-05 -4.37346e-19 -0.00069643 -1.96596e-19 0)
(0.00165673 4.24078e-05 -4.85301e-20 -0.000741045 -5.11604e-20 0)
(0.00176284 1.83369e-05 7.3801e-20 -0.000742429 -3.33543e-21 -1.0645e-36)
)
;

boundaryField
{
    back
    {
        type            empty;
    }
    left
    {
        type            symmetry;
    }
    hole
    {
        type            calculated;
        value           nonuniform List<symmTensor> 10((0.00898989 -0.00140938 7.59074e-19 -0.00880701 -5.97404e-20 -3.16542e-37) (0.00452208 -0.00221327 -2.04308e-19 -0.00416548 1.56757e-20 3.23209e-35) (0.000997604 -0.000767296 -2.36823e-19 -0.000536988 9.80952e-20 3.89022e-35) (0.000343642 -0.000358537 -1.06224e-19 -2.17256e-05 6.90072e-20 -2.71337e-35) (7.02798e-05 -0.000124749 8.68632e-21 3.07632e-05 -8.79599e-21 -2.38425e-40) (-3.92609e-05 0.000159208 5.1353e-21 -8.96931e-05 -3.95478e-21 5.59473e-37) (2.03359e-05 0.000335603 1.62935e-19 -0.000321661 -2.71863e-19 1.99901e-35) (0.000191421 0.000440744 9.24242e-20 -0.000690066 -2.23132e-19 -3.06214e-35) (0.000364392 0.000336921 4.49417e-20 -0.000958098 -1.74017e-19 -1.75772e-35) (0.000486986 0.000129629 8.28005e-21 -0.0011499 -1.16154e-19 -6.3504e-36));
    }
    front
    {
        type            empty;
    }
    down
    {
        type            symmetry;
    }
    right
    {
        type            calculated;
        value           nonuniform List<symmTensor> 
15
(
(0.000574991 -1.18337e-12 5.07739e-28 -1.78735e-05 -1.40955e-21 -3.3208e-36)
(0.000583213 -3.30949e-12 6.13615e-28 -3.70582e-05 -7.51825e-21 -7.90491e-36)
(0.000594018 -5.35803e-12 1.81448e-28 -6.22717e-05 -3.9159e-21 -8.26168e-37)
(0.00061487 -7.10606e-12 -3.02501e-28 -0.000110925 -8.43826e-21 -1.30686e-36)
(0.000630957 -9.02642e-12 -4.85006e-28 -0.000148462 2.06693e-21 -4.211e-37)
(0.000648328 -1.02785e-11 2.33451e-27 -0.000188994 2.78767e-20 -2.51707e-36)
(0.000655348 -1.09765e-11 -1.51532e-27 -0.000205374 -2.04537e-20 -1.82479e-36)
(0.000665331 -1.15911e-11 -1.71246e-27 -0.000228668 -1.68917e-20 -9.63135e-50)
(0.000671399 -1.17572e-11 1.82638e-27 -0.000242826 1.28786e-20 2.49615e-37)
(0.000679473 -1.21948e-11 0 -0.000261667 0 0)
(0.000684212 -1.32972e-11 1.39066e-28 -0.000272724 -9.26946e-21 -3.07829e-36)
(0.000689971 -1.61539e-11 -2.38657e-27 -0.000286161 -2.11387e-20 -2.39224e-50)
(0.000693084 -2.13514e-11 -3.30417e-27 -0.000293425 -9.31226e-21 -4.93646e-36)
(0.000695587 -3.28275e-11 -1.11642e-28 -0.000299265 3.85129e-21 -7.82202e-37)
(0.000695857 -4.35611e-11 0 -0.000299894 0 0)
)
;
    }
    up
    {
        type            calculated;
        value           nonuniform List<symmTensor> 
15
(
(0.00167482 2.97952e-11 -8.32601e-20 -0.000717778 -4.75817e-28 6.91501e-36)
(0.0016232 1.86264e-11 6.66888e-20 -0.000695656 8.55899e-28 7.51952e-36)
(0.00141134 1.13745e-11 1.01167e-20 -0.000604858 2.35672e-28 4.7406e-36)
(0.0013055 5.98983e-12 2.71425e-20 -0.0005595 6.30338e-28 6.04792e-36)
(0.00109734 2.63586e-12 4.18709e-20 -0.000470287 5.45821e-28 5.57789e-36)
(0.000999446 1.40246e-12 -3.69897e-20 -0.000428334 3.59802e-29 4.11291e-36)
(0.000848476 2.7104e-12 4.73329e-20 -0.000363633 1.92069e-28 4.2713e-36)
(0.000784733 5.40269e-12 3.86997e-20 -0.000336314 1.26833e-27 1.29391e-35)
(0.000707586 1.38326e-11 -1.04395e-20 -0.000303251 3.99954e-28 3.30354e-36)
(0.000701495 3.70896e-11 0 -0.000300641 0 0)
(0.000189853 7.89067e-12 1.19479e-19 -8.13655e-05 -1.93156e-27 1.90906e-35)
(0.000840106 2.20963e-11 2.56898e-20 -0.000360045 1.42618e-27 -1.84237e-37)
(0.0013636 3.13506e-11 -1.91257e-19 -0.0005844 2.60761e-27 1.38562e-36)
(0.00158729 3.636e-11 -1.96437e-19 -0.000680269 -2.11566e-28 1.43874e-35)
(0.00176284 3.79561e-11 7.3801e-20 -0.000755505 -2.33186e-27 -1.0645e-36)
)
;
    }
}


// ************************************************************************* //
