/*--------------------------------*- C++ -*----------------------------------*\
| =========                 |                                                 |
| \\      /  F ield         | OpenFOAM: The Open Source CFD Toolbox           |
|  \\    /   O peration     | Version:  v2012                                 |
|   \\  /    A nd           | Website:  www.openfoam.com                      |
|    \\/     M anipulation  |                                                 |
\*---------------------------------------------------------------------------*/
FoamFile
{
    version     2.0;
    format      ascii;
    class       volScalarField;
    location    "16";
    object      sigmaHyd;
}
// * * * * * * * * * * * * * * * * * * * * * * * * * * * * * * * * * * * * * //

dimensions      [1 -1 -2 0 0 0 0];


internalField   nonuniform List<scalar> 
250
(
2.16673e+07
5.75367e+07
9.07778e+07
9.96665e+07
1.02096e+08
3.10931e+07
4.78175e+07
6.42916e+07
6.13084e+07
6.08017e+07
2.93633e+07
2.3293e+07
2.94758e+07
3.03139e+07
3.6496e+07
1.71733e+07
1.5875e+07
2.11776e+07
2.40016e+07
2.81453e+07
6.57289e+06
8.89486e+06
1.37457e+07
1.63476e+07
1.97746e+07
-7.05759e+06
-3.70906e+06
3.46663e+06
5.68854e+06
1.30261e+07
-1.86974e+07
-1.35087e+07
-7.25676e+06
-3.12291e+06
3.16714e+06
-3.0322e+07
-2.28016e+07
-1.33929e+07
-8.60568e+06
-777603
-3.66098e+07
-2.90231e+07
-1.9496e+07
-1.4407e+07
-6.79923e+06
-4.07533e+07
-3.23979e+07
-2.19922e+07
-1.67525e+07
-9.12701e+06
-2.3439e+06
-351291
4.78972e+06
9.39757e+06
1.77376e+07
6.46595e+06
7.17672e+06
9.29403e+06
1.25699e+07
1.67591e+07
1.24263e+07
1.32338e+07
1.51874e+07
1.7198e+07
1.95538e+07
1.69754e+07
1.74875e+07
1.85946e+07
2.06701e+07
2.26002e+07
2.02041e+07
2.04811e+07
2.11902e+07
2.20959e+07
2.33614e+07
2.32341e+07
2.34017e+07
2.38579e+07
2.45124e+07
2.54263e+07
2.51743e+07
2.50868e+07
2.51546e+07
2.50892e+07
2.54393e+07
2.7753e+07
2.75638e+07
2.74115e+07
2.70195e+07
2.6896e+07
2.9741e+07
2.92956e+07
2.87527e+07
2.77013e+07
2.70031e+07
3.26249e+07
3.20149e+07
3.1218e+07
2.96278e+07
2.84546e+07
2.04441e+07
2.25867e+07
2.56989e+07
3.01092e+07
3.33636e+07
3.81006e+07
4.15355e+07
4.66982e+07
5.05089e+07
5.62966e+07
2.36069e+07
2.75571e+07
3.05713e+07
3.43377e+07
3.7038e+07
4.09577e+07
4.35532e+07
4.76106e+07
5.02667e+07
5.44943e+07
2.29388e+07
2.59456e+07
2.7623e+07
3.09821e+07
3.27907e+07
3.62462e+07
3.81715e+07
4.17396e+07
4.37712e+07
4.74534e+07
2.53694e+07
2.78993e+07
2.92862e+07
3.1881e+07
3.3271e+07
3.58756e+07
3.72563e+07
3.98623e+07
4.12322e+07
4.38278e+07
2.51213e+07
2.66748e+07
2.74156e+07
2.92315e+07
2.99831e+07
3.18255e+07
3.25687e+07
3.4387e+07
3.5093e+07
3.68288e+07
2.65143e+07
2.75513e+07
2.79756e+07
2.91998e+07
2.95866e+07
3.07941e+07
3.11238e+07
3.22554e+07
3.25027e+07
3.35066e+07
2.59282e+07
2.63576e+07
2.64239e+07
2.70352e+07
2.70599e+07
2.76566e+07
2.76226e+07
2.81483e+07
2.80225e+07
2.8407e+07
2.68664e+07
2.69709e+07
2.66725e+07
2.70063e+07
2.66794e+07
2.69807e+07
2.65859e+07
2.66766e+07
2.62978e+07
2.62508e+07
2.62685e+07
2.58314e+07
2.54992e+07
2.53584e+07
2.48679e+07
2.47283e+07
2.44306e+07
2.41604e+07
2.37868e+07
2.36182e+07
2.7024e+07
2.66321e+07
2.58861e+07
2.53816e+07
2.48014e+07
2.43679e+07
2.39809e+07
2.38039e+07
2.34807e+07
2.34268e+07
9.57435e+07
9.08456e+07
7.83006e+07
6.97033e+07
5.72667e+07
4.95997e+07
3.72229e+07
2.94998e+07
1.63158e+07
7.42261e+06
5.75156e+07
6.00563e+07
5.80568e+07
5.89889e+07
5.24054e+07
5.01279e+07
4.28102e+07
4.01985e+07
3.23736e+07
2.92633e+07
3.74233e+07
4.15357e+07
4.24576e+07
4.78486e+07
4.65606e+07
4.87749e+07
4.60206e+07
4.77678e+07
4.48703e+07
4.66683e+07
3.12707e+07
3.45526e+07
3.59599e+07
4.09056e+07
4.23282e+07
4.64752e+07
4.68325e+07
5.02843e+07
5.0338e+07
5.38001e+07
2.29029e+07
2.70708e+07
2.88709e+07
3.43245e+07
3.67048e+07
4.21322e+07
4.4787e+07
5.03371e+07
5.34148e+07
5.95242e+07
)
;

boundaryField
{
    back
    {
        type            empty;
    }
    left
    {
        type            symmetry;
    }
    hole
    {
        type            zeroGradient;
    }
    front
    {
        type            empty;
    }
    down
    {
        type            symmetry;
    }
    right
    {
        type            zeroGradient;
    }
    up
    {
        type            zeroGradient;
    }
}


// ************************************************************************* //
