/*--------------------------------*- C++ -*----------------------------------*\
| =========                 |                                                 |
| \\      /  F ield         | OpenFOAM: The Open Source CFD Toolbox           |
|  \\    /   O peration     | Version:  v2012                                 |
|   \\  /    A nd           | Website:  www.openfoam.com                      |
|    \\/     M anipulation  |                                                 |
\*---------------------------------------------------------------------------*/
FoamFile
{
    version     2.0;
    format      ascii;
    class       volSymmTensorField;
    location    "14";
    object      epsilon;
}
// * * * * * * * * * * * * * * * * * * * * * * * * * * * * * * * * * * * * * //

dimensions      [0 0 0 0 0 0 0];


internalField   nonuniform List<symmTensor> 
32000
(
(0.0122293 -0.000304442 -7.60163e-18 -0.0115762 7.54547e-19 4.60055e-33)
(0.0106429 -0.000238311 -1.3118e-17 -0.00979059 3.58413e-18 0)
(0.0114004 -0.000198644 0 -0.0103577 0 0)
(0.0105097 -0.000265445 4.28244e-18 -0.00973965 4.79357e-18 0)
(0.0109985 -0.000149175 2.07716e-17 -0.00998547 -3.93377e-18 0)
(0.0104263 -0.000272289 1.42619e-17 -0.00960449 -2.51133e-18 0)
(0.0107512 -0.00013163 1.67791e-17 -0.00966649 5.35073e-18 0)
(0.0103305 -0.000271665 7.62466e-18 -0.00940964 -4.46933e-18 0)
(0.010564 -0.00012735 0 -0.00940233 0 0)
(0.010218 -0.000267759 -4.78976e-19 -0.00920601 3.21585e-18 0)
(0.010394 -0.000127651 1.18718e-17 -0.00915737 4.79547e-19 0)
(0.0100851 -0.000261521 2.75848e-18 -0.00898273 -5.24999e-18 0)
(0.0102217 -0.00012982 7.42018e-18 -0.00890855 -3.83195e-18 0)
(0.00993197 -0.000253343 6.48883e-18 -0.00873973 2.11962e-18 0)
(0.0100384 -0.000132886 8.32684e-18 -0.00864849 8.32e-18 0)
(0.00975914 -0.000244184 -8.14199e-18 -0.00847849 -7.91933e-18 0)
(0.00984039 -0.000136272 -2.93385e-17 -0.00837544 2.42377e-18 0)
(0.00956906 -0.000233922 -2.42946e-17 -0.00820068 3.9745e-18 0)
(0.00962779 -0.000139487 -1.49009e-17 -0.00808972 -4.35907e-18 0)
(0.0093636 -0.000222996 -1.05818e-17 -0.00791008 -3.10642e-19 0)
(0.009402 -0.00014214 -3.94817e-18 -0.00779202 -3.65143e-18 0)
(0.00914501 -0.000211433 -3.84835e-18 -0.00760908 -3.4747e-18 0)
(0.00916433 -0.000144114 -1.02899e-17 -0.00748459 -5.4902e-19 0)
(0.00891477 -0.000200283 -6.25198e-18 -0.00729905 2.94148e-18 0)
(0.00891667 -0.000145503 0 -0.00717026 0 0)
(0.00867622 -0.000188586 -7.37632e-18 -0.0069815 -3.96232e-18 0)
(0.00866123 -0.000146341 -1.56569e-17 -0.00685088 2.03008e-18 0)
(0.00843042 -0.000177122 -1.16771e-17 -0.00666057 2.93701e-18 0)
(0.00840042 -0.000146325 -3.57556e-18 -0.00652737 -2.95612e-18 0)
(0.00817931 -0.000165627 0 -0.00633767 0 0)
(0.00813516 -0.000145819 5.55035e-18 -0.00620129 -2.24725e-18 0)
(0.00792307 -0.000154517 1.22276e-17 -0.00601162 5.04452e-18 0)
(0.00786685 -0.000145087 1.54309e-17 -0.00587546 5.76152e-18 0)
(0.00766392 -0.000143631 1.84045e-18 -0.00568638 -6.38536e-18 0)
(0.00759693 -0.000143888 -6.51773e-18 -0.00554956 -4.90209e-18 0)
(0.00740326 -0.000132717 1.30063e-19 -0.00536318 1.72771e-18 0)
(0.00732549 -0.000142309 3.15007e-18 -0.00522395 2.28896e-18 0)
(0.00714038 -0.000121903 0 -0.00503952 0 0)
(0.00705303 -0.00014068 -4.68235e-18 -0.00490129 1.64184e-18 0)
(0.00687623 -0.000111144 -7.34695e-18 -0.00471884 1.05017e-18 0)
(0.00678022 -0.000138672 4.47032e-18 -0.0045804 -1.50304e-18 0)
(0.00661183 -0.00010039 4.37812e-18 -0.00440193 -1.43515e-18 0)
(0.00650694 -0.000136249 -4.2601e-18 -0.0042615 1.36793e-18 0)
(0.00634684 -8.91383e-05 -9.61926e-18 -0.00408576 -2.19877e-18 0)
(0.00623339 -0.000133879 -1.35154e-17 -0.00394724 -8.82536e-19 0)
(0.00608148 -7.79853e-05 -1.3172e-17 -0.00377492 -9.07361e-19 0)
(0.0059597 -0.000131048 -9.03248e-18 -0.00363533 -1.96282e-18 0)
(0.00581649 -6.68832e-05 -3.77457e-18 -0.00346805 1.02286e-18 0)
(0.00568644 -0.00012766 0 -0.00332889 0 0)
(0.00555302 -5.49056e-05 2.50765e-19 -0.00316522 9.76012e-19 0)
(0.00541461 -0.000123859 9.25639e-18 -0.0030294 -4.88418e-19 0)
(0.00529146 -4.30229e-05 6.77392e-18 -0.00287124 -1.54633e-18 0)
(0.00514518 -0.000119164 -3.24967e-18 -0.00273534 7.6935e-19 0)
(0.00503277 -3.07032e-05 -7.28702e-18 -0.00258338 -7.83518e-19 0)
(0.00487971 -0.000114053 -8.26235e-18 -0.00245249 3.10708e-19 0)
(0.00477884 -1.84907e-05 -2.43067e-18 -0.00230719 1.69985e-18 0)
(0.00461976 -0.000108196 5.75305e-18 -0.00217949 -1.14062e-18 0)
(0.00453144 -6.20843e-06 4.25695e-18 -0.00204311 -5.52136e-19 0)
(0.0043673 -0.000101449 1.92359e-18 -0.00192069 8.02217e-19 0)
(0.00429258 6.41479e-06 2.70483e-19 -0.00179285 5.42434e-19 0)
(0.00412474 -9.40071e-05 4.35182e-18 -0.00167878 3.03311e-19 0)
(0.00406443 1.86265e-05 7.49184e-19 -0.00156139 -9.82885e-19 0)
(0.00389421 -8.56049e-05 -6.47072e-18 -0.00145328 3.98682e-20 0)
(0.0038488 3.10199e-05 -5.26315e-18 -0.00134665 -4.3577e-19 0)
(0.00367783 -7.70243e-05 -5.47239e-18 -0.00124962 -8.00094e-19 0)
(0.00364785 4.27553e-05 -6.47927e-19 -0.00115485 6.88027e-19 0)
(0.0034771 -6.78285e-05 5.72581e-18 -0.00106608 4.73072e-20 0)
(0.00346256 5.42982e-05 1.97671e-18 -0.000983565 -2.34742e-19 0)
(0.00329324 -5.83688e-05 3.42257e-18 -0.000905806 2.37581e-19 0)
(0.00329389 6.5336e-05 2.48842e-18 -0.000835846 4.90419e-19 0)
(0.00312642 -4.85392e-05 4.60481e-18 -0.000767355 5.65954e-19 0)
(0.00314158 7.57249e-05 5.46299e-18 -0.000710255 7.54689e-19 0)
(0.00297642 -3.77889e-05 6.60805e-18 -0.00065118 5.01975e-20 0)
(0.00300545 8.53796e-05 8.21597e-18 -0.000605508 1.02495e-18 0)
(0.00283974 -2.66191e-05 3.7058e-18 -0.000549643 7.84229e-19 0)
(0.0028816 9.53517e-05 -2.26413e-19 -0.000517121 -1.65294e-19 0)
(0.00271833 -1.59009e-05 -1.17553e-18 -0.000498603 -2.40594e-19 0)
(0.00277157 0.000100037 9.53386e-19 -0.000452991 1.44482e-19 0)
(0.00262216 -1.13828e-05 -1.54648e-18 -0.000488052 5.1214e-20 0)
(0.00266279 0.000110358 -2.03791e-18 -0.000455552 -2.0634e-19 0)
(0.0100443 -0.00052841 2.81508e-18 -0.00969459 -1.72417e-18 1.10433e-32)
(0.0106476 -0.000662248 8.11834e-18 -0.00960591 -5.30642e-18 0)
(0.0104219 -0.00052728 7.95505e-18 -0.00959583 -5.10304e-18 0)
(0.0105996 -0.000670806 1.14735e-17 -0.00962493 2.75332e-18 0)
(0.0104792 -0.000525864 6.42225e-18 -0.00963855 2.24485e-18 0)
(0.0105197 -0.000670143 7.88565e-18 -0.00950836 -5.02853e-18 0)
(0.0104216 -0.000522366 -7.72942e-18 -0.00950603 4.65734e-18 0)
(0.0104189 -0.000663095 -7.73661e-18 -0.00932137 4.80629e-18 0)
(0.0103122 -0.000521217 2.80344e-18 -0.00931936 -5.50684e-18 0)
(0.0102982 -0.000653604 7.0783e-18 -0.00911837 -1.36941e-18 0)
(0.0101714 -0.000521059 1.43607e-17 -0.00910159 -5.16523e-18 0)
(0.010156 -0.000642143 1.86057e-17 -0.00889497 -1.52913e-18 0)
(0.0100072 -0.00052028 6.50777e-18 -0.00885954 2.35766e-18 0)
(0.00999406 -0.000628807 1.14043e-17 -0.00865145 -1.84905e-19 0)
(0.00982441 -0.000518123 4.16919e-18 -0.00859974 4.04875e-18 0)
(0.00981492 -0.000613496 4.40466e-18 -0.00839137 9.12421e-19 0)
(0.00962549 -0.000514463 4.31701e-18 -0.0083252 9.44345e-19 0)
(0.0096201 -0.000596539 0 -0.00811606 0 0)
(0.00941226 -0.000509345 0 -0.00803814 0 0)
(0.00941121 -0.000577828 1.23598e-19 -0.00782841 -2.66363e-18 0)
(0.00918629 -0.00050252 -1.67618e-17 -0.00774012 2.73349e-18 0)
(0.00918952 -0.000558228 -1.27028e-17 -0.00753018 1.35095e-18 0)
(0.0089505 -0.000494259 -7.85497e-18 -0.00743306 -6.85778e-18 0)
(0.00895801 -0.000537628 3.89169e-18 -0.00722458 3.22765e-18 0)
(0.00870641 -0.000484692 6.00355e-18 -0.00711894 -2.94799e-19 0)
(0.00871762 -0.00051635 5.98457e-18 -0.00691196 -2.7912e-18 0)
(0.00845531 -0.000474254 -2.07316e-18 -0.00679987 3.33309e-18 0)
(0.0084695 -0.000494243 -5.86257e-18 -0.0065952 4.03375e-19 0)
(0.00819798 -0.000462704 7.3318e-18 -0.00647669 -7.68818e-18 0)
(0.00821475 -0.000472187 1.13759e-17 -0.00627488 -6.48697e-19 0)
(0.00793711 -0.000450356 9.0559e-18 -0.00615098 2.68398e-18 0)
(0.00795635 -0.000450112 2.15623e-18 -0.00595294 -9.34327e-19 0)
(0.00767316 -0.000437404 6.70973e-18 -0.00582371 3.29885e-18 0)
(0.00769446 -0.000426944 -3.21817e-18 -0.00563019 -6.53676e-19 0)
(0.00740553 -0.000423731 -7.9435e-18 -0.00549621 1.20026e-18 0)
(0.00742774 -0.000403923 -2.06177e-18 -0.00530738 7.42909e-19 0)
(0.00713627 -0.000409383 -7.89703e-18 -0.00516821 -6.52885e-19 0)
(0.00715885 -0.000380853 -1.46307e-18 -0.00498515 3.84646e-18 0)
(0.00686598 -0.000394306 9.16199e-18 -0.00484067 -1.41295e-18 0)
(0.00688849 -0.000356365 8.94347e-18 -0.00466388 -2.96561e-18 0)
(0.0065938 -0.000378554 0 -0.0045157 0 0)
(0.00661508 -0.000331735 3.00481e-18 -0.00434545 1.92102e-18 0)
(0.00632087 -0.000361943 6.93911e-18 -0.00419147 6.94363e-19 0)
(0.00634033 -0.000306416 4.38743e-18 -0.00402875 1.10544e-19 0)
(0.0060477 -0.000344426 2.83795e-18 -0.00387044 1.75072e-18 0)
(0.00606487 -0.000279681 -3.56454e-19 -0.00371529 -1.16241e-18 0)
(0.00577499 -0.000325859 8.51682e-19 -0.00355512 -2.51709e-18 0)
(0.00578881 -0.000252408 4.37244e-18 -0.00340808 1.27357e-18 0)
(0.00550379 -0.0003058 1.31781e-17 -0.0032426 2.64253e-19 0)
(0.00551359 -0.000223572 6.3146e-18 -0.00310464 -2.07808e-18 0)
(0.00523504 -0.000284696 -6.7586e-19 -0.00293961 1.99522e-18 0)
(0.00524006 -0.000194184 -2.84024e-18 -0.00281008 1.43219e-18 0)
(0.00497055 -0.000262311 6.42583e-18 -0.00264513 -1.48915e-19 0)
(0.00497082 -0.000164162 6.07234e-18 -0.00252533 -8.61319e-19 0)
(0.00471212 -0.000238442 8.72136e-19 -0.00236175 1.16963e-18 0)
(0.0047078 -0.000132922 -2.45447e-18 -0.00225174 1.00232e-18 0)
(0.00446161 -0.000213539 3.98466e-18 -0.0020942 -2.51982e-19 0)
(0.0044529 -0.000102046 9.55997e-18 -0.00199404 1.66508e-18 0)
(0.00422186 -0.000186881 9.92664e-18 -0.00184046 1.02243e-18 0)
(0.00420913 -7.03037e-05 9.91029e-18 -0.00175099 1.21007e-18 0)
(0.00399419 -0.000159764 1.59117e-18 -0.00160739 1.80485e-18 0)
(0.00397825 -3.94172e-05 -4.62663e-18 -0.00152803 -1.33665e-18 0)
(0.00378089 -0.000131656 -3.02176e-18 -0.00139288 -8.83615e-19 0)
(0.00376279 -8.69505e-06 -3.6267e-18 -0.00132484 -4.45151e-19 0)
(0.00358305 -0.000103213 0 -0.00120063 0 0)
(0.00356407 2.10672e-05 7.20524e-19 -0.001144 7.30425e-19 0)
(0.00340162 -7.46333e-05 5.35604e-18 -0.00102957 6.81889e-19 0)
(0.00338326 4.98659e-05 6.60906e-18 -0.000985026 1.20919e-18 0)
(0.00323699 -4.60542e-05 7.35835e-19 -0.000880318 5.82092e-19 0)
(0.00322085 7.78787e-05 -3.34477e-18 -0.00084929 -1.49829e-18 0)
(0.00308891 -1.80737e-05 -5.70642e-18 -0.000753318 -1.37229e-18 0)
(0.00307642 0.000104699 -5.0006e-18 -0.000736048 -1.0819e-18 0)
(0.00295654 9.16857e-06 -2.46658e-18 -0.000645809 -7.26783e-19 0)
(0.00294899 0.000130397 2.96423e-19 -0.00064305 2.21909e-19 0)
(0.00283942 3.53746e-05 3.96501e-18 -0.000550488 8.88872e-19 0)
(0.00283733 0.00015334 -3.6234e-19 -0.000563126 -2.85643e-19 0)
(0.00274102 6.28434e-05 -6.03043e-19 -0.000492685 7.04001e-21 0)
(0.00274575 0.000169728 -6.31755e-19 -0.000497365 -2.59064e-20 0)
(0.00265596 8.31385e-05 2.45334e-18 -0.000475202 4.32425e-19 0)
(0.0026506 0.000187264 1.11258e-18 -0.000490995 2.43371e-19 0)
(0.0107989 -0.000997177 -7.87505e-18 -0.0103537 1.74385e-18 6.08847e-33)
(0.0104986 -0.00104228 -2.23871e-18 -0.00948491 2.96395e-18 0)
(0.0105549 -0.000927958 -1.71763e-17 -0.00970596 -1.3935e-19 0)
(0.0104094 -0.0010522 -7.13858e-18 -0.00946072 2.07621e-18 0)
(0.0104164 -0.000914188 -4.16337e-18 -0.00954483 -4.44773e-18 0)
(0.0103178 -0.00105128 8.90231e-18 -0.00933583 4.9411e-18 0)
(0.0102998 -0.000908341 1.94931e-17 -0.0093401 -5.504e-18 0)
(0.0102123 -0.00104292 1.8758e-17 -0.00914663 -2.79034e-18 0)
(0.0101753 -0.000904962 1.86318e-17 -0.00912985 -1.76414e-18 0)
(0.0100924 -0.00103059 1.90143e-17 -0.0089426 -5.66078e-18 0)
(0.0100334 -0.000900967 -4.18015e-19 -0.00890868 3.25414e-18 0)
(0.009955 -0.00101476 -4.54743e-18 -0.00872055 -7.8114e-19 0)
(0.00987317 -0.000895227 0 -0.00867068 0 0)
(0.00979919 -0.000995947 4.44906e-18 -0.00848107 7.79531e-19 0)
(0.00969578 -0.000887366 -2.4811e-18 -0.00841612 4.76513e-18 0)
(0.00962634 -0.000974544 -2.51276e-18 -0.00822569 4.80838e-18 0)
(0.00950342 -0.00087703 6.67371e-18 -0.00814795 -3.69056e-18 0)
(0.00943863 -0.000950844 1.0883e-17 -0.00795707 -3.00699e-18 0)
(0.0092979 -0.000864335 -2.28689e-18 -0.00786773 4.25689e-18 0)
(0.00923784 -0.000925037 -2.26717e-18 -0.0076761 1.66138e-18 0)
(0.00908037 -0.000849763 -8.44974e-18 -0.00757759 4.56214e-18 0)
(0.00902505 -0.000896956 -8.48689e-18 -0.00738582 2.29777e-18 0)
(0.00885189 -0.000832856 -1.40357e-17 -0.00727872 -3.63121e-18 0)
(0.00880049 -0.000867483 -6.08987e-18 -0.00708708 6.54247e-19 0)
(0.00861504 -0.000813999 -3.94282e-18 -0.0069727 -3.16677e-18 0)
(0.00856748 -0.000837132 -3.74188e-18 -0.00678242 -7.22764e-19 0)
(0.00837128 -0.000793496 -1.91737e-18 -0.00666029 3.28499e-18 0)
(0.00832791 -0.000805423 -9.38307e-18 -0.00647161 -2.71225e-19 0)
(0.00812096 -0.000772009 -1.08398e-17 -0.0063443 -4.29895e-18 0)
(0.00808163 -0.000772487 3.71975e-18 -0.0061579 2.71663e-18 0)
(0.00786475 -0.000748943 -8.21223e-18 -0.00602496 3.49501e-18 0)
(0.00782815 -0.000738544 1.27122e-18 -0.00584227 1.58939e-18 0)
(0.00760352 -0.000724448 -1.95675e-18 -0.00570064 -5.20035e-18 0)
(0.00756883 -0.000704024 -1.8279e-18 -0.00552243 -5.05009e-18 0)
(0.00733842 -0.000699038 2.72817e-18 -0.00537443 -1.14918e-18 0)
(0.00730567 -0.000667747 3.80078e-18 -0.0052012 3.99258e-18 0)
(0.0070693 -0.000672252 1.13156e-17 -0.00504814 3.0441e-18 0)
(0.00703704 -0.00063028 7.44957e-18 -0.00488137 -9.24723e-19 0)
(0.00679688 -0.000643758 0 -0.00471952 0 0)
(0.00676408 -0.000591856 -2.82132e-18 -0.00456016 -6.11107e-19 0)
(0.00652191 -0.000614081 -8.08154e-18 -0.00439084 2.4024e-18 0)
(0.00648843 -0.000551168 -8.56922e-18 -0.00423941 9.96783e-19 0)
(0.0062449 -0.000582693 1.94758e-18 -0.00406553 -4.53434e-18 0)
(0.00620951 -0.00050919 8.16103e-18 -0.00392318 -7.38112e-19 0)
(0.00596735 -0.000548966 5.46828e-18 -0.00374105 2.3429e-18 0)
(0.00592927 -0.000465111 5.34582e-18 -0.00360861 2.2921e-18 0)
(0.00568945 -0.000513946 1.62009e-18 -0.00342226 -1.34994e-19 0)
(0.00564876 -0.000419227 6.22791e-18 -0.00329975 9.7109e-19 0)
(0.00541327 -0.000476684 -3.86125e-18 -0.0031119 -8.20289e-20 0)
(0.00537001 -0.000372911 4.3568e-18 -0.00299928 1.13674e-18 0)
(0.0051418 -0.000437184 9.12835e-19 -0.00280972 -9.11924e-19 0)
(0.00509659 -0.000323913 4.45664e-19 -0.002707 -1.71557e-18 0)
(0.00487576 -0.000396351 2.61529e-19 -0.00252212 -1.57328e-18 0)
(0.00482889 -0.000274864 6.34043e-18 -0.00242936 2.66752e-18 0)
(0.00461829 -0.000353097 5.46285e-18 -0.00224744 3.19869e-18 0)
(0.00457053 -0.000224776 -4.69453e-18 -0.00216449 -2.46094e-18 0)
(0.00437128 -0.000309018 -9.59733e-18 -0.00199272 -2.3087e-18 0)
(0.00432363 -0.000175302 -7.72352e-18 -0.00191813 -1.93746e-18 0)
(0.00413699 -0.000263693 -8.3877e-18 -0.00175655 -2.73119e-18 0)
(0.00409121 -0.000126223 -3.94602e-18 -0.00169043 -7.35052e-19 0)
(0.00391744 -0.000218007 -6.33915e-19 -0.00154328 2.91034e-19 0)
(0.00387491 -7.84235e-05 -6.78879e-19 -0.00148416 2.44543e-19 0)
(0.00371387 -0.000172164 6.02312e-19 -0.00135142 -2.07764e-19 0)
(0.00367625 -3.20655e-05 7.30579e-18 -0.00129945 2.7459e-18 0)
(0.00352762 -0.000126562 2.96427e-18 -0.00118246 1.10619e-18 0)
(0.00349599 1.26428e-05 1.96558e-18 -0.00113725 4.07681e-19 0)
(0.00335864 -8.19217e-05 -2.57823e-18 -0.00103471 -8.73386e-19 0)
(0.00333379 5.54721e-05 -4.32465e-19 -0.000996712 -3.36734e-19 0)
(0.00320739 -3.79561e-05 -4.53297e-19 -0.000907365 -3.13293e-19 0)
(0.00318938 9.68717e-05 0 -0.000878128 0 0)
(0.00307204 4.25073e-06 1.70193e-18 -0.000798729 4.00833e-19 0)
(0.00306044 0.000136641 2.10698e-18 -0.000780073 7.61573e-19 0)
(0.00295108 4.52262e-05 3.67764e-18 -0.000706267 1.07712e-18 0)
(0.00294487 0.000175276 4.3958e-18 -0.00070032 1.74559e-18 0)
(0.00284256 8.4379e-05 3.72213e-18 -0.000625784 1.47502e-18 0)
(0.00284081 0.000210233 1.28807e-18 -0.000632369 2.64191e-19 0)
(0.00273662 0.000120429 -1.87583e-18 -0.000546835 -6.40367e-19 0)
(0.00274297 0.000236798 1.67967e-18 -0.0005656 9.12324e-19 0)
(0.00265965 0.000160723 2.37421e-18 -0.00053412 7.00639e-19 0)
(0.00265948 0.000254202 3.55887e-18 -0.000540865 1.25355e-18 0)
(0.0102855 -0.0013474 9.81898e-18 -0.00987263 -1.58464e-19 2.31176e-33)
(0.010265 -0.00141657 -5.73647e-18 -0.00927248 2.97618e-18 0)
(0.0102543 -0.00129676 1.66366e-17 -0.00938825 -8.69917e-19 0)
(0.01017 -0.00142291 3.06474e-18 -0.00923156 -6.3552e-18 0)
(0.0101602 -0.00128407 -1.06276e-17 -0.00927124 1.14699e-17 0)
(0.0100697 -0.00141764 -1.92255e-17 -0.00909517 7.27918e-18 0)
(0.0100481 -0.00127282 -1.20856e-18 -0.00907502 -9.82797e-18 0)
(0.00995778 -0.00140457 -6.35385e-18 -0.00889946 -6.97412e-18 0)
(0.00992349 -0.00126354 -7.31508e-18 -0.00886401 4.86968e-18 0)
(0.00983468 -0.0013884 -7.73468e-18 -0.00869396 8.14659e-18 0)
(0.00978462 -0.00125407 -4.02833e-19 -0.00864337 3.19282e-18 0)
(0.00969854 -0.00136898 -3.69823e-18 -0.00847438 -6.65776e-18 0)
(0.00962991 -0.00124302 3.07548e-18 -0.00840926 -1.11401e-17 0)
(0.00954877 -0.00134563 1.96381e-18 -0.00824018 7.86764e-19 0)
(0.00945941 -0.0012294 1.928e-17 -0.00816249 3.92642e-18 0)
(0.00938407 -0.00131879 2.39216e-18 -0.00799236 -4.77419e-18 0)
(0.0092746 -0.00121286 -8.7425e-18 -0.00790349 8.23286e-18 0)
(0.00920493 -0.00128872 -1.68872e-17 -0.00773245 1.70164e-18 0)
(0.00907708 -0.00119346 -6.26371e-18 -0.00763319 -1.92809e-18 0)
(0.00901275 -0.00125594 -1.02901e-17 -0.00746226 3.60746e-19 0)
(0.00886823 -0.00117117 1.85593e-18 -0.00735235 2.04686e-18 0)
(0.00880934 -0.00122108 1.86352e-18 -0.00718113 4.63957e-18 0)
(0.00864941 -0.00114663 3.87287e-18 -0.00706354 6.94229e-19 0)
(0.00859686 -0.00118357 7.80762e-18 -0.00689216 3.66089e-18 0)
(0.00842051 -0.0011197 2.36812e-19 -0.00676729 2.35006e-18 0)
(0.00837388 -0.00114367 7.41433e-18 -0.00659679 1.33377e-18 0)
(0.00818326 -0.00109029 1.07506e-17 -0.00646464 -5.05305e-18 0)
(0.00814073 -0.00110204 7.44707e-18 -0.00629634 -3.68474e-18 0)
(0.00793887 -0.00105862 -1.29335e-18 -0.0061545 5.07935e-18 0)
(0.0078991 -0.00105858 -9.28828e-18 -0.00598907 -2.29817e-18 0)
(0.00768677 -0.00102527 -2.39386e-18 -0.00583785 -1.21631e-18 0)
(0.00764996 -0.00101252 -1.22084e-18 -0.00567621 4.59845e-18 0)
(0.00742719 -0.000989706 5.17333e-18 -0.0055172 5.46428e-21 0)
(0.00739229 -0.000963979 4.71916e-18 -0.00536133 -1.84988e-18 0)
(0.00716173 -0.000951256 1.37536e-18 -0.00519261 -2.29456e-18 0)
(0.00712683 -0.000914029 4.49694e-18 -0.005043 -1.62384e-18 0)
(0.00689132 -0.000910707 -1.28349e-18 -0.00486362 2.07602e-18 0)
(0.00685604 -0.000860567 -8.24007e-19 -0.00472117 3.57095e-18 0)
(0.0066146 -0.000868185 8.6621e-18 -0.00453265 -9.33168e-19 0)
(0.00657828 -0.000804333 1.19988e-17 -0.0043999 1.09455e-18 0)
(0.00633421 -0.000821992 1.70111e-17 -0.00420194 2.67433e-18 0)
(0.00629514 -0.000746263 5.55103e-18 -0.00407868 -1.30774e-18 0)
(0.00605214 -0.000773084 4.24431e-18 -0.00387198 4.55305e-19 0)
(0.00601024 -0.000684534 1.06169e-18 -0.0037588 -1.42392e-18 0)
(0.00576882 -0.000721972 5.83071e-18 -0.00354786 3.28307e-20 0)
(0.00572362 -0.000621095 7.04156e-18 -0.003446 2.28151e-18 0)
(0.00548821 -0.000667122 6.03522e-18 -0.00323041 3.37953e-18 0)
(0.00543913 -0.000555536 -2.92184e-18 -0.00313895 -1.66149e-18 0)
(0.00521187 -0.000610623 -4.437e-18 -0.00292427 1.97833e-19 0)
(0.00515962 -0.000488163 -4.43256e-18 -0.00284361 1.41281e-19 0)
(0.00494235 -0.000551597 -1.92935e-20 -0.00263302 -1.5792e-18 0)
(0.00488753 -0.000420815 5.47453e-18 -0.00256216 1.49226e-18 0)
(0.00468325 -0.000490739 -1.24714e-18 -0.00235881 1.12545e-19 0)
(0.00462746 -0.000352789 2.57645e-18 -0.00229631 1.41522e-18 0)
(0.0044365 -0.000429184 4.98897e-18 -0.00210623 1.52906e-18 0)
(0.00438173 -0.000286547 2.436e-18 -0.00205115 2.90943e-19 0)
(0.00420563 -0.000366639 1.74419e-18 -0.00187571 6.42663e-19 0)
(0.00415401 -0.00022084 2.34564e-18 -0.00182643 1.27348e-18 0)
(0.00399092 -0.000304972 -1.46327e-18 -0.00166971 1.41142e-19 0)
(0.00394459 -0.00015805 -3.39531e-18 -0.00162525 -1.54842e-18 0)
(0.00379475 -0.000243415 -4.89739e-18 -0.00148738 -2.09371e-18 0)
(0.00375538 -9.69783e-05 -7.80683e-18 -0.00144633 -3.54096e-18 0)
(0.0036162 -0.000183904 -2.72519e-18 -0.00132834 -1.50368e-18 0)
(0.00358521 -3.90921e-05 4.02125e-18 -0.00129013 2.17312e-18 0)
(0.00345578 -0.000125616 5.80682e-18 -0.00119069 2.57258e-18 0)
(0.00343375 1.65217e-05 1.86757e-18 -0.00115495 6.6493e-19 0)
(0.00331172 -6.98981e-05 3.08082e-18 -0.00107184 1.17034e-18 0)
(0.00329841 6.93855e-05 2.30965e-18 -0.00103881 1.04284e-18 0)
(0.00318298 -1.60014e-05 1.76577e-18 -0.000969422 8.92266e-19 0)
(0.00317734 0.000120183 0 -0.00094066 0 0)
(0.00306649 3.49799e-05 4.8453e-19 -0.000879535 8.15742e-20 0)
(0.00306624 0.000168812 2.57318e-18 -0.000856948 1.30491e-18 0)
(0.00296089 8.38858e-05 4.63206e-18 -0.000801392 1.89689e-18 0)
(0.0029634 0.000215341 5.35411e-18 -0.000786715 2.34257e-18 0)
(0.00286019 0.000128929 -6.00665e-19 -0.000725763 3.07153e-20 0)
(0.00286319 0.000258235 -6.42856e-18 -0.00072208 -3.21904e-18 0)
(0.0027675 0.000172041 -6.76052e-18 -0.000649229 -3.02424e-18 0)
(0.00276787 0.000297607 -5.02207e-18 -0.000666391 -2.28263e-18 0)
(0.00267022 0.000213639 -2.28804e-18 -0.000592369 -1.14246e-18 0)
(0.0026608 0.000309619 1.50653e-18 -0.000594139 8.27519e-19 0)
(0.0101116 -0.0017227 -9.614e-18 -0.00967514 3.98296e-19 2.00245e-33)
(0.00998511 -0.0017624 1.02575e-17 -0.00899916 -2.95858e-18 0)
(0.00999999 -0.00165261 -8.14363e-19 -0.00911958 -1.01964e-17 0)
(0.0098698 -0.00176655 5.95832e-18 -0.00893603 7.10067e-19 0)
(0.00987721 -0.00163259 7.71122e-18 -0.00896658 7.70758e-18 0)
(0.00975621 -0.00175733 3.80353e-18 -0.00878836 3.60842e-18 0)
(0.00975221 -0.00161424 -2.38453e-18 -0.008755 -2.80529e-18 0)
(0.00963622 -0.00173971 7.22973e-18 -0.00858521 -5.47835e-18 0)
(0.00962156 -0.00159808 -4.45872e-18 -0.00853692 -4.42084e-19 0)
(0.00950973 -0.00171895 -3.9132e-18 -0.00837622 -3.45341e-18 0)
(0.00948171 -0.00158191 3.84269e-19 -0.00831469 -3.11266e-18 0)
(0.00937365 -0.00169445 -3.50507e-19 -0.00815871 2.95663e-18 0)
(0.0093308 -0.00156403 -8.86444e-18 -0.00808357 1.98405e-18 0)
(0.00922628 -0.0016666 2.38172e-19 -0.00793 -2.84094e-18 0)
(0.00916846 -0.00154401 -8.27256e-18 -0.00784339 -3.93958e-18 0)
(0.0090687 -0.00163533 0 -0.00769062 0 0)
(0.00899395 -0.0015215 -2.13822e-18 -0.00759391 4.37926e-18 0)
(0.00890094 -0.00160032 -1.02256e-17 -0.00744105 7.85575e-19 0)
(0.0088065 -0.00149603 -4.0771e-18 -0.00733456 -3.21286e-18 0)
(0.00872143 -0.00156163 -8.048e-18 -0.00718118 -6.07173e-18 0)
(0.00860743 -0.00146725 -1.19371e-17 -0.0070663 1.4942e-18 0)
(0.00852946 -0.00151919 -1.55689e-17 -0.00691299 3.70957e-18 0)
(0.00839776 -0.0014351 -1.14328e-17 -0.0067884 3.58576e-18 0)
(0.00832488 -0.00147388 -1.53424e-17 -0.00663602 9.86884e-19 0)
(0.00817856 -0.00140001 -1.13864e-17 -0.00650111 9.13633e-19 0)
(0.00810969 -0.00142559 -7.0564e-18 -0.00635013 6.14057e-18 0)
(0.00794869 -0.00136211 3.15371e-18 -0.00620418 -6.20609e-18 0)
(0.00788422 -0.00137361 1.06369e-17 -0.00605584 -2.97158e-18 0)
(0.00770698 -0.00132104 1.22998e-17 -0.0058981 1.1103e-18 0)
(0.00764684 -0.00131744 1.93299e-18 -0.00575468 -9.67709e-19 0)
(0.00745558 -0.00127568 3.85311e-18 -0.00558505 2.55448e-18 0)
(0.00739716 -0.00125807 -3.28927e-18 -0.00544689 -6.55679e-19 0)
(0.00719635 -0.00122671 0 -0.00526446 0 0)
(0.00713812 -0.0011949 -3.70379e-18 -0.00513243 -2.337e-18 0)
(0.00692813 -0.00117467 -1.21937e-17 -0.00493706 5.96962e-19 0)
(0.00686987 -0.00112701 -9.06198e-18 -0.00481409 1.34161e-18 0)
(0.00665088 -0.0011186 -3.62595e-18 -0.00460503 -2.21513e-18 0)
(0.0065913 -0.00105527 0 -0.00449256 0 0)
(0.00636867 -0.00105744 -2.81634e-18 -0.00427109 -7.02983e-19 0)
(0.00630611 -0.000979952 3.44199e-18 -0.0041684 2.04783e-18 0)
(0.00608288 -0.000993028 8.72811e-18 -0.00393785 -1.65423e-18 0)
(0.00601771 -0.000900342 1.20453e-17 -0.00384682 3.53134e-19 0)
(0.00579515 -0.000924947 4.13361e-18 -0.0036098 3.07434e-18 0)
(0.005727 -0.000818748 -7.28822e-19 -0.00353073 -1.10681e-18 0)
(0.00551037 -0.000852605 -1.18861e-17 -0.00328958 -1.96572e-18 0)
(0.00543974 -0.000734295 -9.34329e-18 -0.00322131 -1.34578e-18 0)
(0.00523022 -0.000778422 -3.13181e-18 -0.002983 -1.72004e-18 0)
(0.00515881 -0.000648795 -3.02177e-18 -0.00292576 -1.71777e-18 0)
(0.00495967 -0.000701049 -4.0863e-18 -0.00269365 -2.92668e-19 0)
(0.00488855 -0.000563392 -9.09361e-18 -0.00264499 -2.83891e-18 0)
(0.00470198 -0.000623136 -1.08677e-17 -0.00242576 -3.65882e-18 0)
(0.00463348 -0.000478808 -3.81563e-18 -0.00238474 -6.25764e-19 0)
(0.0044602 -0.000544497 -2.78667e-18 -0.0021819 -1.49122e-18 0)
(0.0043964 -0.000396339 -1.90632e-18 -0.00214654 -8.40695e-19 0)
(0.00423666 -0.000466781 2.2251e-18 -0.00196448 5.35733e-19 0)
(0.0041797 -0.000316557 2.99014e-18 -0.0019332 1.24125e-18 0)
(0.00403267 -0.000390037 2.54745e-18 -0.00177285 1.36497e-18 0)
(0.00398454 -0.000239915 0 -0.00174417 0 0)
(0.00384847 -0.000315824 5.28495e-18 -0.00160736 2.26317e-18 0)
(0.0038105 -0.000167366 7.39741e-18 -0.00157957 3.99009e-18 0)
(0.00368437 -0.000243459 5.36808e-18 -0.00146455 2.99458e-18 0)
(0.00365741 -9.77543e-05 -3.59565e-18 -0.00143748 -2.22827e-18 0)
(0.00353752 -0.000174907 -1.20843e-17 -0.00134264 -5.98441e-18 0)
(0.00352161 -3.23959e-05 -5.43349e-18 -0.00131533 -2.72756e-18 0)
(0.00340711 -0.000108722 -2.37791e-18 -0.00123788 -1.48805e-18 0)
(0.0034015 3.01799e-05 2.42365e-18 -0.00121047 1.3059e-18 0)
(0.00328936 -4.65144e-05 6.31448e-19 -0.00114628 3.96799e-19 0)
(0.00329252 8.94162e-05 1.32331e-18 -0.00111939 7.45348e-19 0)
(0.0031816 1.25358e-05 0 -0.0010652 0 0)
(0.00319193 0.000145275 5.35404e-19 -0.00103922 3.62453e-19 0)
(0.00308124 6.78687e-05 2.62654e-18 -0.000990438 1.30639e-18 0)
(0.00309613 0.000198649 2.17122e-18 -0.000967191 1.07037e-18 0)
(0.0029844 0.000119336 -4.36643e-18 -0.00092098 -2.20574e-18 0)
(0.00300227 0.000248015 -3.75515e-18 -0.000900895 -2.05645e-18 0)
(0.00289075 0.000166811 -5.17452e-18 -0.000852143 -2.6435e-18 0)
(0.00290856 0.000294953 -5.00195e-18 -0.000837877 -2.83662e-18 0)
(0.00279459 0.000209285 -4.91028e-18 -0.000777171 -2.79285e-18 0)
(0.00281059 0.000332234 -1.95384e-18 -0.000765087 -1.13061e-18 0)
(0.00270177 0.000248483 -1.39756e-18 -0.000695714 -8.23818e-19 0)
(0.00270048 0.000366876 1.56177e-18 -0.000706636 9.85262e-19 0)
(0.00975406 -0.00204866 -1.45376e-18 -0.0093008 3.66114e-18 5.4694e-32)
(0.00965084 -0.00207898 -2.06609e-17 -0.00867034 1.64267e-17 0)
(0.00965475 -0.00197463 2.09524e-18 -0.00875913 -2.72703e-18 0)
(0.00951786 -0.00207836 1.09608e-17 -0.00858334 -2.88392e-18 0)
(0.0095273 -0.00195009 3.68173e-18 -0.00859423 3.5518e-18 0)
(0.00939017 -0.00206443 0 -0.00842363 0 0)
(0.00939593 -0.00192474 7.07323e-18 -0.00837474 -5.4746e-18 0)
(0.00926032 -0.00204131 1.49418e-17 -0.00821317 -2.22532e-18 0)
(0.0092611 -0.00190118 1.75265e-17 -0.00815121 -6.88866e-18 0)
(0.00912895 -0.00201541 1.26203e-17 -0.00800063 -4.56706e-18 0)
(0.00912018 -0.00187784 1.67924e-17 -0.00792737 -3.28559e-18 0)
(0.00899285 -0.00198655 1.69229e-17 -0.00778268 -6.74588e-18 0)
(0.00897165 -0.00185345 8.06729e-18 -0.0076992 3.56995e-18 0)
(0.00885038 -0.00195412 0 -0.0075584 0 0)
(0.00881429 -0.00182712 6.21691e-18 -0.0074651 -4.15576e-18 0)
(0.00869923 -0.00191757 9.94875e-18 -0.00732743 1.34264e-18 0)
(0.00864708 -0.001798 1.99782e-17 -0.00722341 -1.53671e-18 0)
(0.00853722 -0.00187685 1.18622e-17 -0.00708825 -5.35891e-18 0)
(0.0084698 -0.00176575 -1.77378e-18 -0.00697328 6.52391e-18 0)
(0.00836409 -0.00183234 -5.82711e-18 -0.00683952 1.2213e-18 0)
(0.00828156 -0.00173041 1.54596e-18 -0.00671383 -6.13702e-18 0)
(0.00818026 -0.00178373 5.71013e-18 -0.00658087 -1.02532e-18 0)
(0.00808075 -0.00169153 7.73129e-18 -0.00644378 3.35028e-18 0)
(0.00798475 -0.00173034 0 -0.00631256 0 0)
(0.00786578 -0.00164836 -1.50878e-18 -0.00616188 3.21009e-18 0)
(0.00777519 -0.00167136 -9.00556e-18 -0.00603438 9.77719e-20 0)
(0.00763655 -0.00160004 -7.47591e-18 -0.00586779 -3.22431e-18 0)
(0.00754965 -0.00160656 3.90052e-18 -0.00574544 2.50822e-18 0)
(0.00739545 -0.00154613 -2.8331e-18 -0.0055632 1.28171e-18 0)
(0.00730924 -0.00153716 3.33388e-18 -0.00544591 6.23625e-19 0)
(0.00714337 -0.0014876 5.58281e-18 -0.00524842 -4.21431e-18 0)
(0.00705723 -0.00146154 6.15691e-18 -0.00513868 -2.54429e-18 0)
(0.00687867 -0.00142401 3.83565e-18 -0.0049243 2.33716e-18 0)
(0.00679224 -0.00137961 0 -0.00482482 0 0)
(0.00660252 -0.00135436 -9.28427e-19 -0.00459266 1.9244e-18 0)
(0.00651457 -0.00129219 -4.62297e-18 -0.00450437 -2.58238e-19 0)
(0.00631951 -0.00127844 -7.40391e-18 -0.00425831 -1.21832e-18 0)
(0.00622882 -0.00119993 -4.43338e-18 -0.00418063 -4.36317e-19 0)
(0.00603201 -0.00119796 -1.44854e-19 -0.00392478 -2.71388e-18 0)
(0.00593953 -0.00110261 1.53254e-18 -0.0038595 -2.02862e-19 0)
(0.0057425 -0.0011128 -1.73361e-18 -0.00359664 3.5653e-19 0)
(0.00564865 -0.00100276 -3.41159e-18 -0.0035433 -1.95865e-18 0)
(0.00545704 -0.00102306 -3.94664e-18 -0.00327913 -9.14561e-19 0)
(0.00536294 -0.000900309 3.19429e-19 -0.00323648 1.96122e-18 0)
(0.00517844 -0.00093141 6.13678e-18 -0.00297809 1.91136e-18 0)
(0.00508638 -0.000797453 2.78647e-18 -0.0029458 1.7132e-19 0)
(0.00491278 -0.000837038 0 -0.00269835 0 0)
(0.00482429 -0.000695874 2.20634e-18 -0.00267332 9.4554e-19 0)
(0.00466342 -0.000743275 -3.05223e-19 -0.00244437 4.23384e-19 0)
(0.00458165 -0.000596515 -8.41162e-18 -0.00242544 -4.00629e-18 0)
(0.00443391 -0.000649611 -1.93567e-18 -0.00221805 -1.41356e-18 0)
(0.0043611 -0.000500539 3.77412e-18 -0.0022027 2.34523e-18 0)
(0.00422559 -0.000558707 3.82893e-18 -0.00202145 2.22355e-18 0)
(0.00416393 -0.000409212 1.00622e-18 -0.00200804 3.5922e-19 0)
(0.00404053 -0.000469624 -4.57971e-18 -0.00185251 -2.45816e-18 0)
(0.00399165 -0.000321884 -1.79501e-18 -0.00183929 -9.83685e-19 0)
(0.00387645 -0.000384805 -1.96101e-18 -0.00170943 -9.358e-19 0)
(0.00384135 -0.000239655 -1.09584e-18 -0.00169549 -5.85932e-19 0)
(0.00373252 -0.000303408 -4.16672e-18 -0.00158915 -2.34627e-18 0)
(0.00371087 -0.000161753 0 -0.00157332 0 0)
(0.00360595 -0.00022596 4.98088e-18 -0.00148697 2.80197e-18 0)
(0.00359709 -8.78169e-05 1.86229e-18 -0.00147003 1.09147e-18 0)