/*--------------------------------*- C++ -*----------------------------------*\
| =========                 |                                                 |
| \\      /  F ield         | OpenFOAM: The Open Source CFD Toolbox           |
|  \\    /   O peration     | Version:  v2012                                 |
|   \\  /    A nd           | Website:  www.openfoam.com                      |
|    \\/     M anipulation  |                                                 |
\*---------------------------------------------------------------------------*/
FoamFile
{
    version     2.0;
    format      ascii;
    class       volScalarField;
    location    "14";
    object      epsilonEq;
}
// * * * * * * * * * * * * * * * * * * * * * * * * * * * * * * * * * * * * * //

dimensions      [0 0 0 0 0 0 0];


internalField   nonuniform List<scalar> 
32000
(
0.0137503
0.0118039
0.0125689
0.0116978
0.012121
0.0115723
0.0117947
0.0114054
0.011535
0.0112238
0.0112965
0.0110191
0.0110546
0.0107914
0.0107999
0.0105419
0.0105294
0.0102731
0.0102433
0.00998804
0.00994282
0.00968959
0.00962999
0.00937939
0.00930753
0.00906024
0.00897782
0.00873514
0.0086428
0.00840601
0.00830392
0.00807236
0.00796361
0.00773771
0.00762257
0.0074036
0.00728107
0.00706826
0.0069409
0.00673416
0.00660186
0.00640237
0.00626403
0.0060711
0.005929
0.00574301
0.00559566
0.00541784
0.00526605
0.00509641
0.00494163
0.00478155
0.00462223
0.00447249
0.00431188
0.00417331
0.00401089
0.00388539
0.00372269
0.00361089
0.00345014
0.00335359
0.00319432
0.0031136
0.0029591
0.00289511
0.00274448
0.00269743
0.00255248
0.00252229
0.00238229
0.00236854
0.00223364
0.00223518
0.00210071
0.00211749
0.00199934
0.00201905
0.0019315
0.00194908
0.0114132
0.0117235
0.0115766
0.0117068
0.0116342
0.011594
0.0115251
0.0114286
0.0113551
0.0112424
0.0111492
0.0110321
0.010916
0.0107987
0.0106618
0.0105459
0.0103899
0.0102754
0.0101025
0.00998957
0.00980154
0.00969042
0.00948975
0.00938143
0.00916918
0.00906343
0.00884183
0.00873867
0.00850862
0.00840824
0.00817209
0.008075
0.00783307
0.00773942
0.00749196
0.00740123
0.00714987
0.00706239
0.00680771
0.00672346
0.00646616
0.00638463
0.00612494
0.00604634
0.00578574
0.00570977
0.00545033
0.0053767
0.00511787
0.00504672
0.00479254
0.00472313
0.00447498
0.00440808
0.00416767
0.00410352
0.00387424
0.00381314
0.00359545
0.00353822
0.0033356
0.00328261
0.00309505
0.0030477
0.00287623
0.00283548
0.00267913
0.00264632
0.00250413
0.00248093
0.00235105
0.00233841
0.00221789
0.00221685
0.00210102
0.00211196
0.0020131
0.00202634
0.00195082
0.00196338
0.0122675
0.011605
0.01175
0.0115405
0.0115765
0.0114165
0.011392
0.0112472
0.0112001
0.0110608
0.010992
0.0108536
0.0107636
0.0106257
0.0105156
0.0103786
0.0102512
0.0101153
0.00997211
0.00983729
0.00968037
0.00954691
0.00937721
0.00924488
0.00906508
0.00893467
0.00874533
0.00861722
0.00841982
0.00829427
0.00808901
0.00796611
0.00775257
0.00763238
0.00741298
0.0072957
0.00707111
0.00695669
0.00672616
0.0066146
0.00637992
0.0062713
0.00603452
0.00592877
0.00568949
0.00558664
0.00534769
0.0052478
0.00501175
0.0049151
0.00468344
0.00459054
0.00436667
0.00427799
0.00406245
0.00397879
0.00377573
0.00369736
0.00350717
0.00343571
0.00326029
0.00319632
0.00303514
0.0029802
0.00283326
0.0027882
0.00265384
0.00261956
0.00249669
0.00247405
0.00235977
0.0023493
0.00224084
0.00224274
0.00213666
0.00214984
0.00203613
0.00206165
0.00198406
0.00199974
0.0117426
0.0114027
0.0114427
0.0113257
0.0113202
0.01119
0.0111428
0.011013
0.0109504
0.0108237
0.0107442
0.0106184
0.0105212
0.0103965
0.0102817
0.0101578
0.0100266
0.00990355
0.00975748
0.00963564
0.00947558
0.00935491
0.00918321
0.00906425
0.0088806
0.00876367
0.00856934
0.00845421
0.00824959
0.00813592
0.00792169
0.00780996
0.00758708
0.00747767
0.00724665
0.00713895
0.00690089
0.00679493
0.00655035
0.00644696
0.00619754
0.00609594
0.00584418
0.00574451
0.00549332
0.00539611
0.00514761
0.00505244
0.00481084
0.0047185
0.00448631
0.0043973
0.00417752
0.00409259
0.0038882
0.0038088
0.00362077
0.00354808
0.00337692
0.0033124
0.00315767
0.00310229
0.00296246
0.00291724
0.00279064
0.0027561
0.00263992
0.00261615
0.00250844
0.00249555
0.00239237
0.00238973
0.00229037
0.00229697
0.00219425
0.00220975
0.00210461
0.00213077
0.00202206
0.00203321
0.0115967
0.0111527
0.0112063
0.0110519
0.0110458
0.0109021
0.0108516
0.010716
0.0106511
0.0105223
0.0104431
0.0103176
0.0102236
0.0100996
0.00999207
0.00986923
0.009748
0.00962662
0.0094905
0.00937085
0.00922079
0.0091026
0.00893907
0.00882173
0.00864621
0.00852931
0.00834145
0.00822571
0.00802433
0.00791068
0.00769705
0.00758438
0.0073606
0.00724842
0.00701483
0.0069042
0.00666072
0.00655171
0.00630195
0.00619354
0.00594119
0.00583445
0.00558173
0.00547707
0.00522784
0.00512546
0.00488412
0.00478561
0.00455525
0.00446101
0.00424598
0.00415765
0.00395953
0.00387839
0.00369894
0.00362632
0.00346481
0.00340203
0.00325777
0.0032054
0.00307631
0.00303528
0.002918
0.00288806
0.00278039
0.00276128
0.00265923
0.00265023
0.0025514
0.00255158
0.00245317
0.00246165
0.00236137
0.00237716
0.00227346
0.00229587
0.00218245
0.00220769
0.00209215
0.00211912
0.0112538
0.0108516
0.0108771
0.0107273
0.0107066
0.0105624
0.0105034
0.0103659
0.0102966
0.0101668
0.0100863
0.00996146
0.00986911
0.00974814
0.00964328
0.00952522
0.00940708
0.00929059
0.00915982
0.0090435
0.00890053
0.0087839
0.00862748
0.0085112
0.00833889
0.00822371
0.00803432
0.00791977
0.00771595
0.0076005
0.00738479
0.00726892
0.00704023
0.00692483
0.00668371
0.00656869
0.00632045
0.00620523
0.00595422
0.00584027
0.00558891
0.00547697
0.00523095
0.00512184
0.0048858
0.00478146
0.00455948
0.00446069
0.00425722
0.00416623
0.00398218
0.00390036
0.00373691
0.00366571
0.00352164
0.0034621
0.00333465
0.00328741
0.00317384
0.00313849
0.00303528
0.00301191
0.00291452
0.00290171
0.00280842
0.00280516
0.00271208
0.00271736
0.00262242
0.00263475
0.00253719
0.00255628
0.00245164
0.00247704
0.0023669
0.00239549
0.00227962
0.00231478
0.002187
0.00221136
0.0109167
0.0105347
0.0105216
0.0103803
0.0103289
0.0101928
0.010112
0.00998037
0.00989635
0.00977015
0.00968237
0.00955922
0.00946539
0.00934427
0.00924233
0.00912276
0.00901066
0.00889236
0.00876771
0.00865079
0.00851049
0.00839467
0.00823618
0.00812068
0.00794336
0.00782696
0.00763325
0.00751473
0.00730679
0.00718695
0.00696365
0.00684323
0.00660585
0.00648485
0.00623978
0.00611812
0.00587119
0.00575041
0.00550454
0.00538598
0.00514826
0.00503301
0.00480931
0.00469978
0.00449434
0.0043919
0.00420857
0.00411591
0.00395478
0.0038732
0.00373426
0.00366518
0.00354614
0.00349019
0.00338645
0.00334398
0.00325095
0.0032209
0.00313657
0.00311778
0.00303688
0.00302862
0.00294699
0.00294737
0.00286478
0.00287246
0.00278681
0.0028012
0.00270898
0.00272964
0.00263191
0.00265724
0.00255444
0.00258428
0.00247242
0.0025083
0.00239077
0.00242677
0.0023042
0.0023354
0.0105822
0.0101995
0.0101637
0.0100108
0.0099429
0.00980014
0.0097053
0.00956907
0.00947361
0.00934441
0.00924731
0.0091227
0.00902089
0.0088998
0.00879042
0.00867209
0.00855198
0.00843547
0.00830104
0.00818517
0.00803346
0.00791705
0.00774676
0.00762853
0.00744081
0.00731991
0.00711629
0.00699297
0.00677383
0.00664861
0.00641585
0.00628937
0.00604938
0.00592197
0.00568221
0.0055552
0.0053205
0.00519591
0.00497364
0.00485329
0.00465037
0.00453694
0.00435694
0.00425259
0.00409825
0.00400561
0.00387578
0.00379597
0.00368894
0.00362306
0.003535
0.00348303
0.00340833
0.00336965
0.00330271
0.00327601
0.00321365
0.00319691
0.00313647
0.00312864
0.0030653
0.00306558
0.00299695
0.00300384
0.00293099
0.00294338
0.00286564
0.00288361
0.00279794
0.00282101
0.00272782
0.00275563
0.002657
0.00268934
0.00258515
0.0026203
0.00250586
0.00254704
0.00242482
0.00245438
0.0102131
0.00986785
0.00978655
0.00964665
0.00954105
0.00940816
0.00928059
0.00915192
0.00902723
0.00890357
0.00878057
0.00865984
0.00853462
0.0084156
0.00828402
0.00816565
0.00802309
0.00790438
0.00774744
0.00762752
0.00745436
0.00733241
0.00714295
0.00701842
0.00681355
0.00668632
0.00646782
0.00633804
0.00610941
0.00597792
0.0057446
0.00561258
0.00538285
0.00525187
0.00503337
0.00490552
0.00470521
0.00458313
0.00440782
0.0042942
0.00414709
0.00404458
0.00392627
0.00383686
0.00374479
0.00366935
0.00359939
0.00353848
0.00348501
0.00343757
0.00339459
0.00335914
0.00332077
0.00329576
0.00325761
0.00324126
0.00320224
0.00319299
0.00315022
0.00314751
0.0030982
0.00310157
0.00304474
0.00305332
0.0029906
0.00300355
0.0029357
0.00295314
0.002878
0.00290056
0.00281645
0.0028436
0.00275354
0.00278363
0.00268862
0.00272384
0.00262133
0.00265807
0.00254463
0.00257568
0.00988163
0.00953822
0.00942776
0.00928238
0.00914841
0.00901294
0.00885684
0.00872565
0.00857125
0.00844476
0.00829021
0.00816599
0.00800666
0.0078832
0.00771457
0.00759085
0.00741067
0.00728568
0.00709273
0.00696581
0.00676
0.00663076
0.0064134
0.00628173
0.00605579
0.00592183
0.00569219
0.0055567
0.00532975
0.00519415
0.00497789
0.0048439
0.00464683
0.00451735
0.0043469
0.00422467
0.00408612
0.00397407
0.00386883
0.00376954
0.00369542
0.00361021
0.00356261
0.00349198
0.0034643
0.00340761
0.00339262
0.00334787
0.00333954
0.00330481
0.00329736
0.00327106
0.00326039
0.0032412
0.0032264
0.00321303
0.00319301
0.00318511
0.00315787
0.00315511
0.0031198
0.00312207
0.00307826
0.00308513
0.00303464
0.0030455
0.0029901
0.00300516
0.00294239
0.00296198
0.00289121
0.00291481
0.00283512
0.00286352
0.00277854
0.0028083
0.00272048
0.00275445
0.00265365
0.00268045
0.00953264
0.00921072
0.00906148
0.00892125
0.00874913
0.00861687
0.00841989
0.00828961
0.00809016
0.00796177
0.00775807
0.00762942
0.00741701
0.00728679
0.00706564
0.00693241
0.00670332
0.00656684
0.00633072
0.00619177
0.00595086
0.00581027
0.00556859
0.00542724
0.00519061
0.00504952
0.00482531
0.0046858
0.00448302
0.00434728
0.00417499
0.00404575
0.00390986
0.00379032
0.00369386
0.00358651
0.00352787
0.00343477
0.00340882
0.00333027
0.00332933
0.00326464
0.00328016
0.00322733
0.00325164
0.0032082
0.00323492
0.00319907
0.0032229
0.00319338
0.00321146
0.00318733
0.0031993
0.00317985
0.00318504
0.00317012
0.00316747
0.00315689
0.00314601
0.00313968
0.00312025
0.00311841
0.00309
0.00309255
0.0030579
0.00306416
0.00302428
0.00303443
0.00298651
0.00300084
0.00294451
0.00296357
0.00289842
0.00292066
0.00285063
0.00287676
0.00279986
0.00282811
0.00274171
0.00276417
0.00919359
0.00887377
0.00868934
0.00854577
0.00833259
0.00819829
0.0079524
0.0078191
0.00756233
0.00742932
0.00716108
0.00702631
0.00674863
0.00661
0.00632657
0.00618447
0.00589835
0.00575359
0.00546963
0.00532316
0.0050486
0.00490145
0.00464489
0.00449838
0.00426914
0.00412537
0.0039326
0.00379476
0.00364665
0.00351779
0.00341811
0.0033015
0.00324982
0.00314768
0.00313825
0.00305135
0.00307489
0.00300217
0.00304806
0.0029875
0.00304578
0.00299454
0.00305724
0.00301301
0.00307394
0.00303518
0.00309012
0.00305584
0.00310346
0.00307304
0.00311344
0.00308666
0.00311946
0.00309644
0.00312074
0.00310149
0.00311688
0.0031014
0.00310789
0.00309637
0.00309365
0.00308642
0.00307587
0.00307237
0.00305613
0.00305587
0.00303236
0.00303596
0.00300407
0.00301154
0.00297206
0.0029831
0.0029378
0.00295299
0.00289714
0.00291564
0.00285534
0.00287472
0.00280686
0.00282249
0.00882216
0.00850375
0.00827718
0.00812767
0.00786435
0.00772402
0.00741968
0.00727932
0.00695578
0.0068151
0.00647892
0.00633521
0.00599243
0.00584569
0.00550174
0.00535221
0.00501639
0.00486443
0.00454806
0.00439486
0.00410966
0.00395721
0.00371442
0.00356605
0.00337563
0.0032354
0.00310623
0.00297719
0.0029101
0.00279594
0.00278498
0.00268728
0.00272232
0.0026404
0.00270802
0.00263943
0.00272606
0.0026676
0.00276298
0.00271112
0.00280805
0.00276051
0.00285349
0.00280903
0.00289498
0.00285315
0.00293165
0.00289241
0.00296368
0.00292729
0.00299059
0.00295728
0.00301152
0.00298133
0.00302606
0.0029991
0.0030345
0.00301108
0.00303748
0.00301788
0.00303698
0.00302088
0.00303256
0.0030198
0.00302327
0.00301424
0.00300926
0.00300396
0.00299175
0.00299016
0.00297156
0.00297362
0.00294631
0.00295237
0.002915
0.0029238
0.00288234
0.00289339
0.0028427
0.00285043
0.00839357
0.00806571
0.00778969
0.00762671
0.00730534
0.00715352
0.00678586
0.00663561
0.00624799
0.00609842
0.00570106
0.00555122
0.00515244
0.00500193
0.00461395
0.00446307
0.00409995
0.00394905
0.00362654
0.00347689
0.0032098
0.00306464
0.00286613
0.0027298
0.00260869
0.00248515
0.00243776
0.00233175
0.00234646
0.00225829
0.00231971
0.00224693
0.00233883
0.00227743
0.00238576
0.00233176
0.00244691
0.00239715
0.00251301
0.00246583
0.0025779
0.00253242
0.00263868
0.00259472
0.00269538
0.00265292
0.00274811
0.00270722
0.00279556
0.00275637
0.00283634
0.00279885
0.00286987
0.00283426
0.00289669
0.00286343
0.00291831
0.00288788
0.00293554
0.00290785
0.00294787
0.00292307
0.00295399
0.00293243
0.00295519
0.00293713
0.00295309
0.00293863
0.00294776
0.00293673
0.00293729
0.00292957
0.00292085
0.0029165
0.0028996
0.0028985
0.00287747
0.00287705
0.00284683
0.00284599
0.00785866
0.00752275
0.00718412
0.00700639
0.00662151
0.00645725
0.00603243
0.00587187
0.00543388
0.00527717
0.00483781
0.00468482
0.00425856
0.00410926
0.00371111
0.00356555
0.00321344
0.00307172
0.00278479
0.00265024
0.00244442
0.00232133
0.00220384
0.00209489
0.00205647
0.00196618
0.00199058
0.00191629
0.00198405
0.00192027
0.00201595
0.0019572
0.00206992
0.00201277
0.00213559
0.00207829
0.00220632
0.00214837
0.00227732
0.0022198
0.0023473
0.00229096
0.00241655
0.00236161
0.00248442
0.00243122
0.00254785
0.002497
0.00260485
0.0025562
0.00265466
0.00260835
0.00269768
0.00265427
0.00273673
0.00269647
0.00277161
0.00273429
0.0028009
0.00276625
0.00282222
0.00279043
0.00283882
0.0028103
0.0028526
0.00282734
0.00286283
0.00284055
0.00286712
0.00284776
0.00286529
0.00284849
0.00285949
0.00284575
0.00284965
0.00283811
0.00283847
0.00282943
0.00281682
0.00280817
0.00718894
0.00684521
0.00644088
0.00624869
0.00580916
0.00563487
0.00516933
0.00500325
0.00453659
0.00437875
0.00392976
0.00377882
0.00336368
0.00321846
0.00285511
0.00271519
0.00242912
0.00229726
0.0021051
0.00199114
0.00189448
0.00180519
0.00178039
0.00171754
0.00174008
0.00169463
0.00174256
0.00170404
0.00176905
0.00172871
0.00180956
0.00176289
0.00185904
0.0018046
0.00191434
0.00185278
0.00197236
0.00190587
0.00203548
0.00196487
0.00210413
0.0020311
0.00217713
0.00210388
0.00224895
0.00217693
0.00231706
0.00224565
0.00237964
0.00231032
0.00243694
0.00237053
0.00249363
0.00243056
0.00254701
0.00248704
0.00259382
0.00253658
0.00263046
0.0025764
0.00266328
0.00261319
0.00269394
0.00264771
0.00272046
0.00267762
0.00274048
0.00270088
0.00275337
0.002717
0.00276103
0.00272817
0.00276485
0.00273568
0.00276754
0.00274193
0.00276583
0.00274226
0.00275255
0.00273168
0.00637221
0.00602882
0.0055738
0.00537213
0.00489805
0.0047184
0.00423653
0.0040683
0.00360891
0.00344852
0.00302912
0.00287249
0.00251164
0.00235749
0.00209242
0.00195636
0.0018041
0.00170399
0.00165484
0.00159566
0.00159975
0.00158211
0.00160496
0.00160265
0.00162388
0.00162505
0.00164585
0.00164675
0.00166861
0.00166752
0.00169159
0.0016875
0.00171473
0.00170676
0.00173741
0.00172539
0.00177328
0.00174625
0.00182023
0.00178078
0.0018768
0.00182826
0.00193547
0.00187801
0.00199591
0.00192986
0.00205607
0.00198575
0.0021162
0.00204258
0.00218379
0.00210976
0.00225019
0.00217626
0.00231026
0.00223687
0.00235959
0.00228772
0.00240804
0.00233906
0.00245609
0.0023905
0.00249979
0.00243709
0.0025362
0.00247645
0.00256479
0.00250837
0.00258772
0.00253523
0.00260779
0.00255952
0.00262646
0.0025819
0.00263954
0.00259799
0.00264693
0.00260789
0.00264329
0.00260935
0.00543683
0.00510859
0.0046227
0.00441937
0.00393124
0.00374915
0.00328153
0.003107
0.00268027
0.0025072
0.00214669
0.00198635
0.00175854
0.00163821
0.00155877
0.00149966
0.00152119
0.00150818
0.00153229
0.00152915
0.00155207
0.00155016
0.00157259
0.0015692
0.00159354
0.00158858
0.00161481
0.00160883
0.00163601
0.00162958
0.00165675
0.00165038
0.001677
0.00167082
0.00169775
0.0016906
0.00171884
0.00171123
0.00173989
0.00173185
0.00176042
0.00175083
0.00178087
0.00176848
0.00180044
0.00178562
0.00183606
0.00180483
0.00189227
0.00185575
0.00194907
0.00190256
0.00200327
0.00194862
0.00205154
0.00199097
0.00210363
0.00203893
0.002163
0.00209651
0.00221876
0.00215022
0.00226778
0.00219781
0.00230924
0.00223882
0.00234536
0.00227614
0.00238116
0.00231404
0.00241615
0.00235068
0.00244356
0.00237977
0.00246426
0.00240288
0.00248074
0.00242215
0.00249155
0.00244107
0.00443323
0.00411771
0.00362281
0.00341341
0.00294082
0.0027539
0.00231551
0.00213976
0.0017881
0.00164854
0.0015004
0.00143927
0.00145316
0.00144
0.00146234
0.00145838
0.00147761
0.00147426
0.0014953
0.00148975
0.0015138
0.00150681
0.00153313
0.00152554
0.00155344
0.00154541
0.00157443
0.00156605
0.00159571
0.00158715
0.00161701
0.00160843
0.00163823
0.00162976
0.00165935
0.00165144
0.00168039
0.00167314
0.00170066
0.00169426
0.00171959
0.00171437
0.00173751
0.00173323
0.00175619
0.00175075
0.00177582
0.00177011
0.0017943
0.00178744
0.00181176
0.00180328
0.00182798
0.0018179
0.00185329
0.0018343
0.00190384
0.00188047
0.00195083
0.00191856
0.00199401
0.00195416
0.00203256
0.00198689
0.00206895
0.00202042
0.00211267
0.00206208
0.00215694
0.00210313
0.00219236
0.00213602
0.00222202
0.00216414
0.00224802
0.00219002
0.00227533
0.00221713
0.00229714
0.00224609
0.00336239
0.00306047
0.00260273
0.0023937
0.00197245
0.00180481
0.00151652
0.00141783
0.00140297
0.00138521
0.00140289
0.00139649
0.00141111
0.00140661
0.00142307
0.00141706
0.00143712
0.00143064
0.00145372
0.00144641
0.00147219
0.00146386
0.00149184
0.0014829
0.00151233
0.00150323
0.00153339
0.00152445
0.0015548
0.00154617
0.00157638
0.00156817
0.00159804
0.00159034
0.00161971
0.00161268
0.00164121
0.00163487
0.00166228
0.00165651
0.0016827
0.00167741
0.00170248
0.00169766
0.00172162
0.00171767
0.00173999
0.00173686
0.00175693
0.00175482
0.00177259
0.00177133
0.00178833
0.00178665
0.00180509
0.00180291
0.00182054
0.00181727
0.00183479
0.00183027
0.0018477
0.00184183
0.00186669
0.00185881
0.00190633
0.00189393
0.00194112
0.0019212
0.00197159
0.00194554
0.00199895
0.00196788
0.00202316
0.0019897
0.00205219
0.00201687
0.00208153
0.00204383
0.00210542
0.00207178
0.00229111
0.00206079
0.00169672
0.00155627
0.00137439
0.00135255
0.00136138
0.00135677
0.00136084
0.00135819
0.00136433
0.00135963
0.00137152
0.00136594
0.00138261
0.00137577
0.00139663
0.00138882
0.00141293
0.00140462
0.00143108
0.00142254
0.00145068
0.00144211
0.00147135
0.00146293
0.00149277
0.00148466
0.00151467
0.00150699
0.00153686
0.00152969
0.0015592
0.00155261
0.00158152
0.00157557
0.00160363
0.00159832
0.00162533
0.00162061
0.00164651
0.00164232
0.00166715
0.00166349
0.00168722
0.00168421
0.00170654
0.00170409
0.00172496
0.00172297
0.00174242
0.00174087
0.00175896
0.00175805
0.00177441
0.00177421
0.00178842
0.00178906
0.00180123
0.00180265
0.00181378
0.00181551
0.00182669
0.00182794
0.00183843
0.00183892
0.0018492
0.00184893
0.00185927
0.00185795
0.00186842
0.00186875
0.00189089
0.00189032
0.00191495
0.00190955
0.00193578
0.001926
0.00195394
0.00194507
0.001519
0.00140705
0.00133523
0.00133208
0.00133755
0.0013331
0.00133353
0.00132587
0.00132835
0.00132165
0.00132818
0.00132167
0.00133342
0.0013265
0.00134315
0.00133571
0.00135642
0.00134856
0.00137244
0.0013644
0.00139057
0.0013826
0.00141033
0.0014026
0.00143131
0.00142396
0.00145319
0.00144628
0.00147567
0.00146925
0.00149852
0.00149265
0.00152155
0.00151625
0.00154456
0.00153985
0.00156739
0.00156323
0.00158987
0.00158622
0.00161188
0.00160872
0.00163334
0.00163071
0.00165414
0.00165206
0.00167417
0.0016726
0.00169336
0.00169222
0.00171168
0.00171096
0.00172914
0.0017289
0.00174562
0.00174583
0.00176108
0.0017617
0.0017755
0.00177655
0.00178889
0.0017904
0.0018011
0.00180315
0.00181204
0.0018147
0.00182186
0.00182524
0.00183102
0.00183531
0.00184028
0.00184486
0.00184905
0.00185353
0.00185716
0.0018619
0.00186477
0.00187023
0.0018719
0.00187766
0.00132465
0.00133399
0.0013191
0.00132074
0.00131065
0.00130443
0.00130043
0.00129062
0.00129333
0.00128307
0.00129159
0.00128201
0.00129537
0.00128651
0.00130402
0.00129568
0.00131667
0.00130872
0.0013325
0.0013249
0.00135078
0.00134357
0.00137091
0.00136415
0.00139241
0.00138615
0.00141489
0.00140916
0.00143803
0.00143286
0.00146158
0.00145696
0.00148532
0.00148125
0.00150903
0.00150551
0.00153255
0.00152954
0.00155572
0.0015532
0.00157844
0.00157638
0.0016006
0.001599
0.0016221
0.00162093
0.00164285
0.00164206
0.00166279
0.00166236
0.00168185
0.00168179
0.00169999
0.00170031
0.00171716
0.00171783
0.00173332
0.00173431
0.00174846
0.00174976
0.00176256
0.00176419
0.00177559
0.00177756
0.00178756
0.00178996
0.00179857
0.00180146
0.00180867
0.00181208
0.0018178
0.00182177
0.0018259
0.00183049
0.00183304
0.00183833
0.00183934
0.00184552
0.00184501
0.0018526
0.00134305
0.00131821
0.0013079
0.00129334
0.00128201
0.00126997
0.00126397
0.00125255
0.00125416
0.00124303
0.00125167
0.00124107
0.0012553
0.00124551
0.00126399
0.00125512
0.00127684
0.00126885
0.00129302
0.00128583
0.00131181
0.00130533
0.00133256
0.00132674
0.00135477
0.00134956
0.00137799
0.00137339
0.00140189
0.00139787
0.00142619
0.00142273
0.00145064
0.00144771
0.00147504
0.00147261
0.00149922
0.00149726
0.00152304
0.00152152
0.00154637
0.00154526
0.00156912
0.00156839
0.00159119
0.0015908
0.0016125
0.00161242
0.00163298
0.00163319
0.00165259
0.00165306
0.00167127
0.00167199
0.00168898
0.00168991
0.00170569
0.0017068
0.00172136
0.00172267
0.00173599
0.00173748
0.00174956
0.00175123
0.0017621
0.00176392
0.0017736
0.00177559
0.00178408
0.00178622
0.00179353
0.0017958
0.00180201
0.00180443
0.00180956
0.00181219
0.00181624
0.00181905
0.00182197
0.00182487
0.00132313
0.00129261
0.00128224
0.00125813
0.00124873
0.0012297
0.0012256
0.0012106
0.00121321
0.00120083
0.00120986
0.00119912
0.00121364
0.00120411
0.00122302
0.00121455
0.00123678
0.0012293
0.00125393
0.00124738
0.00127368
0.00126799
0.00129538
0.00129047
0.0013185
0.0013143
0.00134261
0.00133906
0.00136734
0.00136439
0.00139242
0.00139001
0.00141759
0.00141569
0.00144267
0.00144122
0.00146747
0.00146644
0.00149186
0.0014912
0.00151572
0.0015154
0.00153895
0.00153892
0.00156147
0.0015617
0.0015832
0.00158364
0.00160407
0.00160471
0.00162404
0.00162484
0.00164307
0.001644
0.0016611
0.00166213
0.00167813
0.00167923
0.00169411
0.00169526
0.00170903
0.0017102
0.00172289
0.00172405
0.00173567
0.00173679
0.00174737
0.00174844
0.001758
0.00175899
0.00176759
0.00176845
0.00177618
0.00177689
0.00178381
0.00178432
0.00179048
0.00179071
0.00179616
0.00179578
0.00128981
0.0012551
0.00124519
0.00121644
0.00120828
0.00118558
0.0011835
0.00116595
0.00117054
0.00115674
0.00116729
0.00115612
0.00117171
0.00116239
0.00118209
0.00117419
0.00119706
0.00119033
0.00121551
0.00120979
0.00123653
0.00123172
0.00125943
0.00125544
0.00128366
0.0012804
0.00130877
0.00130617
0.00133441
0.00133241
0.00136031
0.00135882
0.00138621
0.00138519
0.00141193
0.00141131
0.0014373
0.00143703
0.00146219
0.00146223
0.00148649
0.00148678
0.00151011
0.00151061
0.00153296
0.00153363
0.00155497
0.00155578
0.0015761
0.001577
0.00159629
0.00159726
0.0016155
0.0016165
0.00163369
0.00163469
0.00165085
0.00165182
0.00166694
0.00166785
0.00168195
0.00168277
0.00169587
0.00169656
0.0017087
0.00170923
0.00172044
0.00172077
0.00173112
0.00173118
0.00174075
0.00174049
0.00174936
0.0017487
0.00175698
0.00175582
0.00176362
0.00176181
0.00176924
0.00176651
0.00124534
0.00120822
0.00120021
0.00116834
0.00116244
0.00113738
0.00113787
0.00111867
0.00112581
0.00111096
0.00112382
0.00111212
0.00112966
0.0011203
0.00114157
0.00113399
0.0011581
0.00115193
0.00117807
0.00117306
0.00120055
0.00119653
0.00122481
0.00122164
0.00125026
0.00124784
0.00127646
0.00127469
0.00130307
0.00130186
0.00132979
0.00132908
0.00135641
0.00135612
0.00138275
0.0013828
0.00140864
0.00140898
0.00143398
0.00143455
0.00145864
0.00145939
0.00148256
0.00148344
0.00150564
0.00150662
0.00152785
0.00152888
0.00154911
0.00155016
0.0015694
0.00157043
0.00158868
0.00158966
0.00160692
0.00160781
0.00162409
0.00162487
0.00164017
0.00164082
0.00165516
0.00165563
0.00166905
0.00166932
0.00168185
0.00168186
0.00169355
0.00169327
0.00170419
0.00170354
0.00171379
0.00171269
0.00172236
0.00172074
0.00172997
0.00172768
0.00173663
0.00173348
0.00174236
0.00173815
0.00119182
0.00115363
0.00114831
0.00111462
0.00111179
0.00108527
0.00108898
0.00106871
0.00107899
0.00106343
0.0010792
0.00106712
0.00108725
0.00107779
0.00110127
0.00109385
0.00111978
0.00111397
0.00114159
0.00113709
0.00116573
0.00116231
0.00119147
0.00118895
0.00121824
0.00121648
0.00124559
0.00124448
0.00127319
0.00127262
0.00130076
0.00130064
0.00132809
0.00132834
0.00135501
0.00135556
0.00138139
0.00138216
0.00140711
0.00140805
0.00143208
0.00143314
0.00145623
0.00145735
0.00147949
0.00148063
0.0015018
0.00150293
0.00152314
0.00152422
0.00154346
0.00154445
0.00156274
0.00156361
0.00158095
0.00158168
0.00159807
0.00159862
0.0016141
0.00161445
0.00162902
0.00162914
0.00164285
0.00164269
0.00165558
0.00165511
0.00166723
0.0016664
0.00167782
0.00167657
0.0016874
0.00168563
0.00169598
0.0016936
0.00170363
0.00170049
0.00171041
0.00170633
0.00171635
0.0017112
0.00113119
0.00109274
0.00109065
0.00105608
0.00105686
0.00102962
0.00103703
0.00101624
0.0010301
0.00101422
0.00103333
0.0010211
0.00104426
0.00103481
0.00106096
0.00105369
0.00108189
0.00107635
0.00110584
0.00110171
0.00113187
0.00112888
0.00115925
0.00115721
0.00118743
0.00118617
0.00121599
0.00121536
0.0012446
0.00124449
0.00127302
0.00127332
0.00130105
0.00130168
0.00132854
0.00132941
0.00135537
0.00135641
0.00138144
0.00138259
0.00140668
0.00140788
0.00143101
0.00143222
0.00145439
0.00145556
0.00147678
0.00147788
0.00149815
0.00149913
0.00151846
0.00151931
0.0015377
0.00153838
0.00155586
0.00155633
0.00157291
0.00157317
0.00158887
0.00158887
0.00160372
0.00160344
0.00161748
0.00161689
0.00163016
0.00162921
0.00164178
0.00164042
0.00165237
0.00165054
0.00166196
0.00165957
0.00167061
0.00166755
0.00167836
0.0016745
0.00168531
0.00168049
0.0016915
0.00168564
0.00106488
0.00102673
0.00102821
0.000993478
0.000998217
0.000970929
0.000982333
0.000961567
0.000979294
0.000963504
0.000986243
0.000974174
0.00100064
0.000991411
0.00102048
0.00101348
0.00104421
0.00103898
0.00107061
0.0010668
0.00109874
0.0010961
0.00112791
0.00112623
0.00115761
0.00115669
0.00118743
0.00118713
0.00121709
0.00121727
0.00124637
0.00124692
0.00127509
0.00127592
0.00130313
0.00130415
0.00133039
0.00133153
0.00135678
0.00135797
0.00138224
0.00138344
0.00140673
0.00140788
0.00143021
0.00143127
0.00145264
0.00145358
0.00147401
0.0014748
0.0014943
0.00149491
0.0015135
0.00151389
0.0015316
0.00153175
0.00154859
0.00154848
0.00156449
0.00156408
0.00157929
0.00157857
0.001593
0.00159193
0.00160566
0.0016042
0.00161727
0.00161537
0.00162789
0.00162549
0.00163755
0.00163455
0.0016463
0.0016426
0.0016542
0.00164969
0.00166134
0.00165587
0.00166776
0.00166133
0.000994017
0.000956582
0.000961852
0.000927533
0.000936464
0.000909696
0.000925297
0.000905067
0.00092683
0.000911567
0.000938088
0.000926524
0.000956441
0.000947685
0.000979829
0.000973258
0.00100666
0.00100183
0.00103574
0.0010323
0.00106615
0.00106384
0.00109724
0.00109584
0.00112853
0.00112786
0.00115967
0.00115958
0.00119041
0.00119076
0.00122055
0.00122122
0.00124997
0.00125086
0.00127854
0.00127958
0.0013062
0.0013073
0.00133289
0.001334
0.00135856
0.00135962
0.00138318
0.00138415
0.00140674
0.00140758
0.0014292
0.00142988
0.00145057
0.00145105
0.00147083
0.00147109
0.00148999
0.00149
0.00150803
0.00150778
0.00152498
0.00152444
0.00154083
0.00153998
0.00155559
0.00155441
0.00156929
0.00156774
0.00158195
0.00157999
0.00159359
0.00159117
0.00160427
0.00160132
0.00161402
0.00161046
0.0016229
0.00161863
0.00163098
0.0016259
0.00163832
0.00163234
0.00164497
0.00163818
0.000919548
0.000883137
0.000892331
0.000858915
0.000872192
0.000846459
0.000866377
0.000847174
0.000873057
0.000858757
0.000889114
0.000878418
0.000911823
0.000903821
0.000939066
0.000933134
0.000969242
0.000964937
0.00100117
0.000998161
0.00103398
0.00103202
0.00106707
0.00106595
0.00110002
0.00109955
0.00113251
0.00113255
0.00116434
0.00116476
0.00119535
0.00119603
0.00122544
0.00122629
0.00125454
0.00125547
0.00128258
0.00128353
0.00130955
0.00131045
0.00133541
0.00133622
0.00136015
0.00136082
0.00138376
0.00138426
0.00140624
0.00140654
0.00142759
0.00142767
0.00144782
0.00144765
0.00146693
0.00146649
0.00148494
0.00148422
0.00150185
0.00150083
0.00151768
0.00151634
0.00153245
0.00153076
0.00154616
0.00154411
0.00155886
0.00155639
0.00157056
0.00156763
0.00158131
0.00157784
0.00159116
0.00158705
0.00160018
0.00159534
0.00160842
0.00160276
0.00161598
0.00160943
0.00162285
0.00161557
0.000842257
0.000807132
0.000820332
0.000788255
0.000805978
0.000781765
0.000806068
0.000788367
0.000818393
0.000805484
0.000839658
0.00083019
0.000867034
0.000860076
0.000898356
0.000893283
0.00093203
0.000928412
0.000966909
0.000964438
0.00100219
0.00100063
0.00103733
0.00103649
0.00107194
0.00107166
0.00110579
0.00110592
0.0011387
0.00113913
0.00117056
0.00117118
0.00120132
0.00120203
0.00123091
0.00123165
0.00125932
0.00126001
0.00128654
0.00128714
0.00131256
0.00131302
0.00133739
0.00133767
0.00136104
0.00136112
0.00138352
0.00138336
0.00140485
0.00140443
0.00142503
0.00142435
0.0014441
0.00144312
0.00146206
0.00146077
0.00147894
0.00147733
0.00149476
0.00149281
0.00150954
0.00150724
0.00152331
0.00152064
0.00153608
0.001533
0.0015479
0.00154435
0.00155878
0.00155467
0.00156878
0.001564
0.00157793
0.00157235
0.00158631
0.00157978
0.00159401
0.00158636
0.00160105
0.00159227
0.000762824
0.000729212
0.00074647
0.00071615
0.00073839
0.000716178
0.000744896
0.000729174
0.00076331
0.000752219
0.000790121
0.000782241
0.000822396
0.000816768
0.00085794
0.000853945
0.000895188
0.000892418
0.000933053
0.000931229
0.000970806
0.000969719
0.00100797
0.00100745
0.00104423
0.00104414
0.0010794
0.00107962
0.00111337
0.00111378
0.00114605
0.00114657
0.00117743
0.00117796
0.00120749
0.00120797
0.00123623
0.0012366
0.00126366
0.00126388