/*--------------------------------*- C++ -*----------------------------------*\
| =========                 |                                                 |
| \\      /  F ield         | OpenFOAM: The Open Source CFD Toolbox           |
|  \\    /   O peration     | Version:  v2012                                 |
|   \\  /    A nd           | Website:  www.openfoam.com                      |
|    \\/     M anipulation  |                                                 |
\*---------------------------------------------------------------------------*/
FoamFile
{
    version     2.0;
    format      ascii;
    class       volSymmTensorField;
    location    "14";
    object      sigma;
}
// * * * * * * * * * * * * * * * * * * * * * * * * * * * * * * * * * * * * * //

dimensions      [1 -1 -2 0 0 0 0];


internalField   nonuniform List<symmTensor> 
32000
(
(6.02322e+07 -796240 1.98964e-08 689086 3.92806e-09 7.31459e+07)
(6.20351e+07 -1.5841e+06 1.27172e-08 871888 3.09813e-08 7.3317e+07)
(7.01207e+07 334171 0 374085 0 7.56396e+07)
(7.01093e+07 -1.67644e+06 -4.88662e-09 1.73864e+06 3.60888e-08 7.79476e+07)
(7.84089e+07 984114 -2.0044e-09 1.0602e+06 -3.28754e-08 8.00551e+07)
(7.9019e+07 -2.12429e+06 -3.58557e-09 2.45348e+06 -2.58335e-08 8.20469e+07)
(8.71982e+07 962908 3.07065e-09 2.34046e+06 4.23859e-08 8.36861e+07)
(8.79129e+07 -2.60021e+06 2.13004e-09 3.45652e+06 -4.19915e-08 8.61565e+07)
(9.60822e+07 742792 0 3.80925e+06 0 8.74581e+07)
(9.6676e+07 -2.96036e+06 -6.34883e-10 4.79817e+06 3.00356e-08 9.02776e+07)
(1.04865e+08 510224 1.52051e-08 5.40498e+06 2.32677e-09 9.13143e+07)
(1.05342e+08 -3.2028e+06 3.06701e-09 6.4121e+06 -5.21676e-08 9.42667e+07)
(1.13489e+08 288721 1.48047e-08 7.15896e+06 -3.91383e-08 9.51984e+07)
(1.13895e+08 -3.35469e+06 1.04767e-08 8.23417e+06 2.02244e-08 9.81436e+07)
(1.21901e+08 67972.7 1.5955e-08 9.08375e+06 8.52756e-08 9.90558e+07)
(1.22273e+08 -3.4424e+06 -1.82312e-08 1.02222e+07 -8.3962e-08 1.01912e+08)
(1.30061e+08 -156651 -8.18627e-08 1.11647e+07 3.08507e-08 1.02827e+08)
(1.30418e+08 -3.48558e+06 -6.24058e-08 1.23487e+07 4.96864e-08 1.0556e+08)
(1.37944e+08 -381358 -4.75713e-08 1.33761e+07 -4.81008e-08 1.06469e+08)
(1.38295e+08 -3.49806e+06 -3.3187e-08 1.45923e+07 -1.97213e-09 1.0906e+08)
(1.45541e+08 -599893 -1.41782e-08 1.56935e+07 -4.36556e-08 1.09955e+08)
(1.45888e+08 -3.48981e+06 -1.51824e-08 1.69345e+07 -4.30289e-08 1.12393e+08)
(1.52853e+08 -807080 -4.43506e-08 1.80972e+07 -5.60717e-09 1.13265e+08)
(1.53198e+08 -3.46868e+06 -2.54368e-08 1.9359e+07 3.96701e-08 1.1555e+08)
(1.59889e+08 -1.00123e+06 0 2.05732e+07 0 1.16388e+08)
(1.60236e+08 -3.44063e+06 -3.6991e-08 2.18526e+07 -5.38554e-08 1.18527e+08)
(1.66659e+08 -1.1825e+06 -8.57816e-08 2.31099e+07 3.0665e-08 1.19305e+08)
(1.67009e+08 -3.40883e+06 -6.21874e-08 2.44046e+07 4.43715e-08 1.21294e+08)
(1.73176e+08 -1.3519e+06 -2.16012e-08 2.56976e+07 -4.31259e-08 1.22006e+08)
(1.73529e+08 -3.37457e+06 0 2.70057e+07 0 1.23847e+08)
(1.7945e+08 -1.51028e+06 3.75743e-08 2.83283e+07 -3.57016e-08 1.2449e+08)
(1.79807e+08 -3.33864e+06 8.51352e-08 2.96481e+07 7.91215e-08 1.26181e+08)
(1.85489e+08 -1.65938e+06 1.15202e-07 3.09953e+07 9.14696e-08 1.26729e+08)
(1.85849e+08 -3.30097e+06 1.07075e-08 3.23247e+07 -1.08097e-07 1.28269e+08)
(1.91299e+08 -1.80204e+06 -5.37447e-08 3.36923e+07 -8.2873e-08 1.28712e+08)
(1.91661e+08 -3.2599e+06 1.97229e-09 3.50298e+07 3.06165e-08 1.30099e+08)
(1.96886e+08 -1.93972e+06 2.86331e-08 3.6413e+07 4.06439e-08 1.30441e+08)
(1.97246e+08 -3.21306e+06 0 3.7757e+07 0 1.31665e+08)
(2.02245e+08 -2.07397e+06 -4.66456e-08 3.91513e+07 3.20003e-08 1.31871e+08)
(2.02601e+08 -3.15727e+06 -7.38217e-08 4.04996e+07 2.23036e-08 1.32928e+08)
(2.07375e+08 -2.20728e+06 4.89547e-08 4.18991e+07 -3.08575e-08 1.32987e+08)
(2.07721e+08 -3.08817e+06 4.80063e-08 4.32498e+07 -3.0704e-08 1.33869e+08)
(2.12272e+08 -2.34014e+06 -5.12736e-08 4.46465e+07 2.96062e-08 1.3379e+08)
(2.12601e+08 -3.0005e+06 -1.19767e-07 4.59981e+07 -4.49025e-08 1.34481e+08)
(2.16921e+08 -2.47281e+06 -1.79387e-07 4.73822e+07 -1.62105e-08 1.34222e+08)
(2.17222e+08 -2.88731e+06 -1.79223e-07 4.87318e+07 -1.66249e-08 1.34703e+08)
(2.21309e+08 -2.60507e+06 -1.32148e-07 5.009e+07 -4.32191e-08 1.34265e+08)
(2.2157e+08 -2.74117e+06 -5.56391e-08 5.14348e+07 2.57666e-08 1.34523e+08)
(2.25417e+08 -2.73421e+06 0 5.27504e+07 0 1.33904e+08)
(2.25627e+08 -2.55465e+06 4.9707e-09 5.40865e+07 2.4561e-08 1.33926e+08)
(2.29222e+08 -2.85766e+06 1.64207e-07 5.53398e+07 -1.49585e-08 1.33098e+08)
(2.29365e+08 -2.31954e+06 1.21869e-07 5.66619e+07 -4.33723e-08 1.32862e+08)
(2.32703e+08 -2.96906e+06 -6.35e-08 5.78273e+07 2.16841e-08 1.31856e+08)
(2.32764e+08 -2.02837e+06 -1.47373e-07 5.91299e+07 -1.95448e-08 1.31344e+08)
(2.35831e+08 -3.06212e+06 -1.78816e-07 6.01801e+07 1.08865e-08 1.3014e+08)
(2.3579e+08 -1.67311e+06 -5.20225e-08 6.14533e+07 5.08036e-08 1.29348e+08)
(2.38582e+08 -3.13134e+06 1.3733e-07 6.23597e+07 -3.56814e-08 1.27966e+08)
(2.38422e+08 -1.24725e+06 1.03776e-07 6.35903e+07 -1.82172e-08 1.26895e+08)
(2.40932e+08 -3.16615e+06 5.11968e-08 6.43222e+07 2.51438e-08 1.25359e+08)
(2.40642e+08 -748225 8.07885e-09 6.54938e+07 1.76719e-08 1.24027e+08)
(2.42861e+08 -3.15977e+06 1.27227e-07 6.60225e+07 9.48233e-09 1.22342e+08)
(2.42438e+08 -179361 2.09196e-08 6.71161e+07 -3.3885e-08 1.20774e+08)
(2.44354e+08 -3.10301e+06 -2.08142e-07 6.74145e+07 2.1731e-09 1.19018e+08)
(2.438e+08 453032 -1.73111e-07 6.84092e+07 -1.56134e-08 1.17238e+08)
(2.45406e+08 -2.99208e+06 -1.93712e-07 6.84559e+07 -2.97096e-08 1.15411e+08)
(2.44723e+08 1.14219e+06 -2.22159e-08 6.93277e+07 2.62516e-08 1.13462e+08)
(2.46012e+08 -2.82206e+06 2.21222e-07 6.91078e+07 1.7565e-09 1.11621e+08)
(2.45223e+08 1.87217e+06 7.68843e-08 6.98319e+07 -9.21801e-09 1.09542e+08)
(2.46167e+08 -2.58822e+06 1.43925e-07 6.93389e+07 1.0136e-08 1.07719e+08)
(2.45279e+08 2.63412e+06 1.05833e-07 6.9885e+07 2.13846e-08 1.05575e+08)
(2.45899e+08 -2.28229e+06 2.09472e-07 6.91291e+07 2.57557e-08 1.0376e+08)
(2.44948e+08 3.40649e+06 2.49436e-07 6.9457e+07 3.52652e-08 1.01602e+08)
(2.45104e+08 -1.87699e+06 3.22349e-07 6.84719e+07 2.79697e-09 9.98817e+07)
(2.44161e+08 4.1531e+06 4.00517e-07 6.85218e+07 5.07961e-08 9.7678e+07)
(2.43674e+08 -1.39075e+06 1.93017e-07 6.73914e+07 4.06862e-08 9.58171e+07)
(2.42577e+08 4.93915e+06 -1.17482e-08 6.70323e+07 -8.49642e-09 9.35524e+07)
(2.39134e+08 -856202 -6.32976e-08 6.59138e+07 -1.29551e-08 9.27617e+07)
(2.38752e+08 5.38662e+06 5.13362e-08 6.51223e+07 7.7798e-09 8.95141e+07)
(2.31506e+08 -612922 -8.32722e-08 6.40335e+07 2.75768e-09 9.03132e+07)
(2.3078e+08 5.94238e+06 -1.09733e-07 6.2869e+07 -1.11106e-08 8.73987e+07)
(5.84309e+07 -398349 7.03352e-09 395313 -1.35013e-08 7.26312e+07)
(6.17053e+07 -3.03285e+06 -5.62282e-10 654830 -4.96307e-08 7.21407e+07)
(6.89838e+07 -804042 3.85521e-09 987996 -4.70926e-08 7.41223e+07)
(7.02981e+07 -3.51811e+06 -1.35929e-08 1.8577e+06 8.55453e-09 7.72204e+07)
(7.82645e+07 -1.10218e+06 -4.268e-09 1.55444e+06 1.2792e-08 7.88991e+07)
(7.93574e+07 -4.07425e+06 3.737e-09 3.10661e+06 -4.97292e-08 8.14896e+07)
(8.73119e+07 -1.45621e+06 -7.77371e-09 2.41278e+06 4.51315e-08 8.32196e+07)
(8.83642e+07 -4.65829e+06 -6.42379e-09 4.40569e+06 4.93812e-08 8.55266e+07)
(9.61454e+07 -1.92616e+06 7.54293e-09 3.61593e+06 -5.14253e-08 8.74372e+07)
(9.72066e+07 -5.24101e+06 5.86736e-09 5.82545e+06 -1.89584e-08 8.95573e+07)
(1.04832e+08 -2.47147e+06 2.21923e-08 5.0839e+06 -5.72708e-08 9.15152e+07)
(1.05889e+08 -5.7831e+06 2.25984e-08 7.41151e+06 -3.03681e-08 9.35073e+07)
(1.13378e+08 -3.03527e+06 9.9946e-09 6.74829e+06 2.04179e-08 9.54892e+07)
(1.14403e+08 -6.25577e+06 1.90701e-08 9.1739e+06 -1.07101e-08 9.73625e+07)
(1.21732e+08 -3.57926e+06 7.6963e-09 8.57674e+06 4.10115e-08 9.93792e+07)
(1.22716e+08 -6.65043e+06 9.29487e-09 1.11005e+07 6.66634e-09 1.01102e+08)
(1.29843e+08 -4.0868e+06 1.1683e-08 1.05546e+07 8.82472e-09 1.03168e+08)
(1.30794e+08 -6.97331e+06 0 1.31709e+07 0 1.04706e+08)
(1.37681e+08 -4.55375e+06 0 1.26691e+07 0 1.06819e+08)
(1.38612e+08 -7.23718e+06 4.60047e-10 1.53647e+07 -3.17736e-08 1.08155e+08)
(1.45236e+08 -4.98187e+06 -6.35997e-08 1.49047e+07 3.92559e-08 1.10306e+08)
(1.46158e+08 -7.45515e+06 -4.79232e-08 1.76642e+07 2.44988e-08 1.11438e+08)
(1.52512e+08 -5.37487e+06 -3.55462e-08 1.72449e+07 -8.6705e-08 1.13618e+08)
(1.53433e+08 -7.63755e+06 1.76636e-08 2.00544e+07 4.01284e-08 1.1455e+08)
(1.59519e+08 -5.73575e+06 2.94408e-08 1.96734e+07 -5.8234e-09 1.1675e+08)
(1.60442e+08 -7.79186e+06 2.86416e-08 2.25216e+07 -4.19175e-08 1.17481e+08)
(1.66264e+08 -6.06747e+06 -9.96722e-09 2.21769e+07 4.85244e-08 1.19674e+08)
(1.67193e+08 -7.92414e+06 -3.24357e-08 2.50547e+07 9.19737e-09 1.20209e+08)
(1.72758e+08 -6.37391e+06 4.08783e-08 2.4744e+07 -1.18437e-07 1.22375e+08)
(1.73697e+08 -8.0381e+06 7.0414e-08 2.76439e+07 -1.65205e-08 1.22725e+08)
(1.79014e+08 -6.65816e+06 6.35923e-08 2.7365e+07 3.97348e-08 1.24857e+08)
(1.7996e+08 -8.13479e+06 1.43441e-08 3.02797e+07 -1.62453e-08 1.25023e+08)
(1.85038e+08 -6.92207e+06 5.3157e-08 3.00317e+07 5.28234e-08 1.27099e+08)
(1.85989e+08 -8.21463e+06 -2.51276e-08 3.29532e+07 -8.93438e-09 1.27082e+08)
(1.90834e+08 -7.16827e+06 -6.52185e-08 3.27377e+07 2.41054e-08 1.29067e+08)
(1.91785e+08 -8.27526e+06 -1.6898e-08 3.56549e+07 1.45152e-08 1.28873e+08)
(1.96408e+08 -7.39824e+06 -7.32028e-08 3.54748e+07 -8.82056e-09 1.30758e+08)
(1.97347e+08 -8.31145e+06 -1.03738e-08 3.83741e+07 7.24776e-08 1.30388e+08)
(2.01757e+08 -7.6097e+06 9.12492e-08 3.82322e+07 -3.16706e-08 1.32149e+08)
(2.0267e+08 -8.31756e+06 8.93764e-08 4.10991e+07 -6.48449e-08 1.31604e+08)
(2.06874e+08 -7.80097e+06 0 4.10005e+07 0 1.33198e+08)
(2.07745e+08 -8.28431e+06 3.61563e-08 4.38159e+07 3.69976e-08 1.32481e+08)
(2.11756e+08 -7.96942e+06 8.61137e-08 4.37666e+07 1.13527e-08 1.33895e+08)
(2.12558e+08 -8.19869e+06 5.50459e-08 4.65066e+07 -1.44559e-09 1.33002e+08)
(2.16387e+08 -8.10536e+06 4.09811e-08 4.65116e+07 3.83154e-08 1.34198e+08)
(2.17091e+08 -8.0487e+06 -6.43861e-09 4.91516e+07 -2.61735e-08 1.33131e+08)
(2.20748e+08 -8.2007e+06 8.53848e-09 4.92158e+07 -6.09454e-08 1.3407e+08)
(2.21324e+08 -7.81889e+06 6.8396e-08 5.17279e+07 2.6472e-08 1.32835e+08)
(2.24823e+08 -8.2435e+06 2.17661e-07 5.18537e+07 -9.754e-10 1.33513e+08)
(2.25234e+08 -7.49279e+06 1.02535e-07 5.42084e+07 -5.86478e-08 1.32098e+08)
(2.28582e+08 -8.21538e+06 -8.05509e-09 5.43947e+07 5.37424e-08 1.32476e+08)
(2.28792e+08 -7.05445e+06 -4.99417e-08 5.65635e+07 4.09176e-08 1.30892e+08)
(2.32004e+08 -8.10354e+06 1.28982e-07 5.68072e+07 -7.64578e-09 1.30961e+08)
(2.31971e+08 -6.48565e+06 1.22477e-07 5.87591e+07 -2.96656e-08 1.29218e+08)
(2.35064e+08 -7.88749e+06 2.25558e-08 5.9052e+07 3.44281e-08 1.28965e+08)
(2.34748e+08 -5.77509e+06 -5.30698e-08 6.07606e+07 3.17874e-08 1.27085e+08)
(2.37731e+08 -7.54817e+06 9.72891e-08 6.10893e+07 -9.47538e-09 1.26501e+08)
(2.37107e+08 -4.91504e+06 2.42936e-07 6.2534e+07 4.563e-08 1.24507e+08)
(2.39989e+08 -7.06842e+06 2.72881e-07 6.28792e+07 3.10334e-08 1.23637e+08)
(2.39039e+08 -3.90473e+06 2.75948e-07 6.40471e+07 3.47178e-08 1.21556e+08)
(2.41815e+08 -6.43605e+06 5.37462e-08 6.43861e+07 6.28037e-08 1.20403e+08)
(2.40541e+08 -2.74617e+06 -1.44006e-07 6.52676e+07 -4.4976e-08 1.18265e+08)
(2.43207e+08 -5.64577e+06 -1.02432e-07 6.55788e+07 -3.24989e-08 1.16891e+08)
(2.41614e+08 -1.44822e+06 -1.2163e-07 6.6165e+07 -1.58215e-08 1.1474e+08)
(2.44157e+08 -4.69804e+06 0 6.64335e+07 0 1.13157e+08)
(2.42273e+08 -28687.4 2.83559e-08 6.67146e+07 2.83261e-08 1.11051e+08)
(2.44661e+08 -3.60159e+06 2.1237e-07 6.6936e+07 2.9248e-08 1.09304e+08)
(2.42547e+08 1.48901e+06 2.63727e-07 6.6895e+07 5.0981e-08 1.07284e+08)
(2.44704e+08 -2.37401e+06 3.2858e-08 6.70813e+07 2.5443e-08 1.05416e+08)
(2.42413e+08 3.08491e+06 -1.46051e-07 6.66903e+07 -6.59045e-08 1.03552e+08)
(2.44275e+08 -1.03639e+06 -2.64207e-07 6.68724e+07 -6.49301e-08 1.01583e+08)
(2.41933e+08 4.73387e+06 -2.30703e-07 6.60865e+07 -5.15282e-08 9.99095e+07)
(2.43375e+08 371896 -1.21723e-07 6.63204e+07 -3.60774e-08 9.78662e+07)
(2.41097e+08 6.38603e+06 1.47295e-08 6.50777e+07 1.08571e-08 9.63902e+07)
(2.41996e+08 1.82936e+06 2.0674e-07 6.5435e+07 4.65961e-08 9.39812e+07)
(2.39659e+08 7.95373e+06 -1.88773e-08 6.37275e+07 -1.47418e-08 9.27225e+07)
(2.38348e+08 3.38388e+06 -3.24715e-08 6.42251e+07 3.79078e-10 9.07543e+07)
(2.367e+08 9.1392e+06 -3.40176e-08 6.20706e+07 -1.39496e-09 8.88518e+07)
(2.31376e+08 4.47669e+06 1.32103e-07 6.27753e+07 2.32844e-08 8.8363e+07)
(2.29423e+08 1.00835e+07 5.99083e-08 6.02603e+07 1.31046e-08 8.66985e+07)
(5.87346e+07 -1.4131e+06 3.14863e-09 -5745.99 1.34172e-08 7.29755e+07)
(6.13883e+07 -4.41434e+06 -4.80618e-09 1.21501e+06 2.67808e-08 7.23463e+07)
(6.9122e+07 -1.73887e+06 1.56739e-08 728023 2.5722e-08 7.47745e+07)
(7.04908e+07 -5.13876e+06 2.76955e-09 2.28978e+06 2.97412e-08 7.7377e+07)
(7.84358e+07 -2.4767e+06 1.20524e-08 1.90659e+06 -3.03189e-08 7.94654e+07)
(7.98576e+07 -6.04342e+06 -1.60694e-08 3.55151e+06 2.6429e-08 8.18218e+07)
(8.76003e+07 -3.38226e+06 1.35195e-08 3.25339e+06 -7.40245e-08 8.35969e+07)
(8.89442e+07 -6.95234e+06 4.97329e-09 4.98898e+06 -5.47024e-08 8.59331e+07)
(9.64807e+07 -4.30307e+06 1.51317e-08 4.7252e+06 -3.93336e-08 8.76955e+07)
(9.77833e+07 -7.80982e+06 1.90752e-08 6.57168e+06 -8.1289e-08 8.99543e+07)
(1.05126e+08 -5.20832e+06 -5.21978e-09 6.33884e+06 3.19449e-08 9.17333e+07)
(1.06439e+08 -8.60527e+06 -3.91672e-09 8.2859e+06 -1.50821e-09 9.38641e+07)
(1.13579e+08 -6.09122e+06 0 8.09994e+06 0 9.56829e+07)
(1.14908e+08 -9.33256e+06 6.46653e-09 1.01303e+07 2.44095e-09 9.76739e+07)
(1.21825e+08 -6.93711e+06 -9.73358e-09 9.99927e+06 5.36039e-08 9.95346e+07)
(1.23156e+08 -9.98554e+06 -8.97265e-09 1.21041e+07 5.57459e-08 1.01372e+08)
(1.29835e+08 -7.72936e+06 2.05991e-08 1.20237e+07 -4.78348e-08 1.0327e+08)
(1.31153e+08 -1.05624e+07 3.1101e-08 1.42011e+07 -4.69569e-08 1.04937e+08)
(1.37585e+08 -8.45849e+06 -9.0777e-09 1.41623e+07 5.26061e-08 1.06873e+08)
(1.3889e+08 -1.1068e+07 -7.85355e-09 1.64112e+07 2.2555e-08 1.08356e+08)
(1.45066e+08 -9.12344e+06 -3.28882e-08 1.64063e+07 6.40082e-08 1.1032e+08)
(1.46362e+08 -1.15103e+07 -3.27413e-08 1.8722e+07 3.79889e-08 1.11605e+08)
(1.52279e+08 -9.72841e+06 -6.16987e-08 1.87469e+07 -3.6642e-08 1.13588e+08)
(1.53572e+08 -1.18983e+07 -2.6889e-08 2.11213e+07 1.48768e-08 1.14673e+08)
(1.5923e+08 -1.02803e+07 -2.04202e-08 2.11747e+07 -4.07238e-08 1.16674e+08)
(1.60527e+08 -1.22398e+07 -1.90961e-08 2.35974e+07 -6.38942e-09 1.1756e+08)
(1.65927e+08 -1.07857e+07 -9.11526e-09 2.36793e+07 4.92741e-08 1.19571e+08)
(1.67234e+08 -1.2541e+07 -5.33346e-08 2.61393e+07 5.45799e-09 1.20258e+08)
(1.7238e+08 -1.12498e+07 -6.99027e-08 2.62509e+07 -5.70888e-08 1.2225e+08)
(1.73697e+08 -1.28053e+07 2.53647e-08 2.87358e+07 3.81699e-08 1.22736e+08)
(1.78596e+08 -1.16783e+07 -5.36134e-08 2.88816e+07 6.30179e-08 1.24687e+08)
(1.79923e+08 -1.30332e+07 1.02396e-08 3.13754e+07 2.44542e-08 1.24981e+08)
(1.84584e+08 -1.20754e+07 -1.99317e-08 3.1562e+07 -8.63133e-08 1.26876e+08)
(1.85912e+08 -1.32228e+07 -1.90539e-08 3.40454e+07 -8.41908e-08 1.26983e+08)
(1.90344e+08 -1.24398e+07 2.15879e-08 3.42792e+07 -2.30188e-08 1.28789e+08)
(1.9166e+08 -1.33682e+07 3.71578e-08 3.67311e+07 6.72215e-08 1.28707e+08)
(1.95874e+08 -1.27686e+07 1.0869e-07 3.70196e+07 4.59108e-08 1.30386e+08)
(1.97161e+08 -1.34608e+07 6.9823e-08 3.9416e+07 -2.68776e-08 1.30121e+08)
(2.01174e+08 -1.30604e+07 0 3.97702e+07 0 1.31651e+08)
(2.02405e+08 -1.34888e+07 -3.04958e-08 4.20806e+07 -8.39727e-09 1.31211e+08)
(2.06233e+08 -1.33072e+07 -8.67597e-08 4.25116e+07 5.92835e-08 1.32546e+08)
(2.07375e+08 -1.34364e+07 -9.76521e-08 4.47023e+07 3.30563e-08 1.31929e+08)
(2.11036e+08 -1.34946e+07 1.53055e-08 4.52183e+07 -1.0219e-07 1.33028e+08)
(2.12052e+08 -1.32857e+07 1.02877e-07 4.72566e+07 -2.84299e-08 1.32238e+08)
(2.15569e+08 -1.36106e+07 8.00646e-08 4.78647e+07 4.7712e-08 1.33081e+08)
(2.16414e+08 -1.30173e+07 8.00199e-08 4.97158e+07 4.54319e-08 1.32119e+08)
(2.19807e+08 -1.36351e+07 2.41289e-08 5.04184e+07 -5.38762e-09 1.32661e+08)
(2.20433e+08 -1.26096e+07 9.90557e-08 5.20502e+07 1.42809e-08 1.31524e+08)
(2.23724e+08 -1.35455e+07 -6.47004e-08 5.28431e+07 2.81993e-09 1.31748e+08)
(2.24085e+08 -1.20407e+07 7.77874e-08 5.42283e+07 2.29199e-08 1.30445e+08)
(2.27299e+08 -1.33198e+07 1.36948e-08 5.51009e+07 -2.6179e-08 1.30351e+08)
(2.27342e+08 -1.12908e+07 2.95326e-09 5.62181e+07 -4.79901e-08 1.28887e+08)
(2.30501e+08 -1.29286e+07 -8.87326e-10 5.71485e+07 -4.5886e-08 1.28457e+08)
(2.3018e+08 -1.03446e+07 1.41753e-07 5.79904e+07 6.87698e-08 1.26835e+08)
(2.33306e+08 -1.23479e+07 1.37115e-07 5.89467e+07 9.19928e-08 1.26113e+08)
(2.32591e+08 -9.19513e+06 -1.17837e-07 5.95197e+07 -6.97073e-08 1.24336e+08)
(2.35688e+08 -1.15548e+07 -2.49131e-07 6.04598e+07 -6.57573e-08 1.2335e+08)
(2.34566e+08 -7.84001e+06 -2.03416e-07 6.07843e+07 -5.46836e-08 1.21433e+08)
(2.37645e+08 -1.05384e+07 -2.43291e-07 6.16608e+07 -8.68022e-08 1.20253e+08)
(2.36109e+08 -6.28381e+06 -1.1257e-07 6.1766e+07 -2.19665e-08 1.18208e+08)
(2.39166e+08 -9.29131e+06 -1.71751e-08 6.25322e+07 1.064e-08 1.16885e+08)
(2.37232e+08 -4.5399e+06 -1.90711e-08 6.24527e+07 9.003e-09 1.14745e+08)
(2.40259e+08 -7.81939e+06 1.83746e-08 6.30693e+07 -7.8672e-09 1.13348e+08)
(2.37964e+08 -2.63308e+06 2.55628e-07 6.28403e+07 1.01529e-07 1.11142e+08)
(2.40935e+08 -6.14e+06 1.12062e-07 6.32822e+07 4.36363e-08 1.09719e+08)
(2.38321e+08 -587679 7.23949e-08 6.29274e+07 1.63292e-08 1.07497e+08)
(2.4121e+08 -4.27778e+06 -1.04472e-07 6.31913e+07 -3.67678e-08 1.06077e+08)
(2.38346e+08 1.56641e+06 -1.84639e-08 6.27154e+07 -1.39577e-08 1.03879e+08)
(2.41074e+08 -2.26605e+06 -2.04348e-08 6.28254e+07 -1.37479e-08 1.02496e+08)
(2.38014e+08 3.80538e+06 0 6.22067e+07 0 1.00396e+08)
(2.40561e+08 -142785 7.79742e-08 6.2217e+07 1.92188e-08 9.90047e+07)
(2.37372e+08 6.10837e+06 9.66546e-08 6.14024e+07 3.58456e-08 9.70873e+07)
(2.39642e+08 2.0526e+06 1.79213e-07 6.13991e+07 5.35966e-08 9.56757e+07)
(2.36428e+08 8.44819e+06 2.13023e-07 6.02945e+07 8.57246e-08 9.3976e+07)
(2.38278e+08 4.29152e+06 1.91433e-07 6.03969e+07 7.6043e-08 9.23489e+07)
(2.35141e+08 1.07077e+07 6.51744e-08 5.88938e+07 1.38292e-08 9.08336e+07)
(2.36051e+08 6.48464e+06 -1.01006e-07 5.92489e+07 -3.44813e-08 8.86939e+07)
(2.3304e+08 1.25981e+07 8.93765e-08 5.72167e+07 4.85132e-08 8.72275e+07)
(2.29909e+08 8.65429e+06 1.27842e-07 5.79366e+07 3.77267e-08 8.66969e+07)
(2.2786e+08 1.36878e+07 1.91632e-07 5.55343e+07 6.74991e-08 8.46578e+07)
(5.85953e+07 -2.58223e+06 -2.76291e-08 387778 -2.50021e-09 7.28196e+07)
(6.16082e+07 -5.98916e+06 -8.37086e-11 1.223e+06 3.96497e-08 7.23787e+07)
(6.96366e+07 -3.53125e+06 -1.83003e-08 1.17875e+06 -4.72969e-08 7.4391e+07)
(7.08859e+07 -7.0751e+06 1.82823e-08 2.51008e+06 -6.03267e-08 7.75493e+07)
(7.91821e+07 -4.52197e+06 -3.06886e-08 2.35001e+06 1.19914e-07 7.93657e+07)
(8.03979e+07 -8.25135e+06 -5.23032e-09 3.93031e+06 1.10494e-07 8.20635e+07)
(8.83376e+07 -5.63569e+06 2.90866e-08 3.79069e+06 -8.53071e-08 8.36757e+07)
(8.95531e+07 -9.42336e+06 2.091e-08 5.48208e+06 -4.98147e-08 8.61784e+07)
(9.7146e+07 -6.80379e+06 -1.58462e-08 5.42423e+06 5.97275e-08 8.78258e+07)
(9.83957e+07 -1.0549e+07 -2.14773e-08 7.16916e+06 9.53807e-08 9.01879e+07)
(1.05705e+08 -7.97754e+06 -7.26909e-09 7.20311e+06 3.25183e-08 9.18654e+07)
(1.0701e+08 -1.16063e+07 9.09664e-09 8.98785e+06 -6.0899e-08 9.40832e+07)
(1.14056e+08 -9.12547e+06 2.45185e-08 9.10342e+06 -1.21949e-07 9.58058e+07)
(1.15409e+08 -1.25831e+07 1.87957e-09 1.09298e+07 4.88714e-09 9.7869e+07)
(1.22185e+08 -1.02238e+07 3.67573e-08 1.1112e+07 1.41448e-08 9.96372e+07)
(1.23569e+08 -1.34745e+07 1.06274e-08 1.29863e+07 -5.80817e-08 1.01527e+08)
(1.3007e+08 -1.12568e+07 -3.2443e-08 1.32207e+07 1.08202e-07 1.0334e+08)
(1.31474e+08 -1.42815e+07 -4.77984e-08 1.51501e+07 4.75992e-08 1.05041e+08)
(1.37701e+08 -1.22166e+07 -1.94398e-08 1.54232e+07 -1.50427e-08 1.069e+08)
(1.39116e+08 -1.50077e+07 -3.45588e-08 1.74125e+07 2.0475e-08 1.08397e+08)
(1.45073e+08 -1.31011e+07 6.45198e-09 1.77142e+07 2.38661e-08 1.10308e+08)
(1.46499e+08 -1.56593e+07 6.42263e-09 1.9765e+07 5.78509e-08 1.11597e+08)
(1.52191e+08 -1.39128e+07 1.72254e-08 2.00882e+07 4.41566e-09 1.13548e+08)
(1.53627e+08 -1.62424e+07 3.57553e-08 2.21973e+07 3.86806e-08 1.14621e+08)
(1.59057e+08 -1.46566e+07 1.66615e-09 2.25395e+07 3.30643e-08 1.16596e+08)
(1.60506e+08 -1.67621e+07 3.87821e-08 2.46984e+07 8.27384e-09 1.17446e+08)
(1.6568e+08 -1.53394e+07 5.87685e-08 2.50623e+07 -8.92277e-08 1.19435e+08)
(1.67143e+08 -1.72219e+07 4.13469e-08 2.72559e+07 -6.67959e-08 1.20064e+08)
(1.72066e+08 -1.59683e+07 -4.64433e-09 2.76498e+07 8.14799e-08 1.22054e+08)
(1.7354e+08 -1.76233e+07 -6.22837e-08 2.98567e+07 -2.22436e-08 1.22474e+08)
(1.78221e+08 -1.65465e+07 -1.79746e-08 3.02903e+07 -1.68406e-08 1.24429e+08)
(1.79693e+08 -1.7962e+07 -4.29534e-09 3.24847e+07 7.87415e-08 1.24634e+08)
(1.84143e+08 -1.70706e+07 4.02782e-08 3.29673e+07 -7.34445e-09 1.26517e+08)
(1.85599e+08 -1.82298e+07 3.56747e-08 3.51204e+07 -4.03898e-08 1.26504e+08)
(1.89829e+08 -1.75381e+07 8.56381e-09 3.56654e+07 -4.42719e-08 1.28288e+08)
(1.9125e+08 -1.84178e+07 3.76285e-08 3.77427e+07 -3.79793e-08 1.28078e+08)
(1.9528e+08 -1.79457e+07 -8.66361e-09 3.83672e+07 4.23737e-08 1.29723e+08)
(1.96631e+08 -1.85114e+07 -2.11522e-09 4.03274e+07 7.13248e-08 1.29321e+08)
(2.00482e+08 -1.82799e+07 8.8907e-08 4.10463e+07 -3.39456e-08 1.30764e+08)
(2.01722e+08 -1.849e+07 1.31994e-07 4.28458e+07 -8.35818e-10 1.3016e+08)
(2.05416e+08 -1.85216e+07 2.03114e-07 4.36717e+07 2.74339e-08 1.31368e+08)
(2.06506e+08 -1.83347e+07 6.33126e-08 4.52685e+07 -3.98811e-08 1.3058e+08)
(2.10069e+08 -1.86549e+07 5.54761e-08 4.62131e+07 2.48359e-09 1.31518e+08)
(2.10954e+08 -1.80226e+07 1.01792e-08 4.75641e+07 -3.51672e-08 1.3055e+08)
(2.14414e+08 -1.86542e+07 8.23385e-08 4.86321e+07 -1.05114e-08 1.31167e+08)
(2.1504e+08 -1.75286e+07 1.09367e-07 4.96993e+07 4.06054e-08 1.30018e+08)
(2.18422e+08 -1.84917e+07 1.07053e-07 5.08874e+07 7.53708e-08 1.30307e+08)
(2.1874e+08 -1.6832e+07 -5.28677e-08 5.16429e+07 -3.67409e-08 1.28987e+08)
(2.22068e+08 -1.81399e+07 -7.51595e-08 5.29369e+07 1.41044e-08 1.2893e+08)
(2.22024e+08 -1.59108e+07 -7.72284e-08 5.33651e+07 1.33318e-08 1.27438e+08)
(2.2532e+08 -1.7566e+07 -8.97913e-09 5.4735e+07 -4.56522e-08 1.27055e+08)
(2.24876e+08 -1.47518e+07 1.13229e-07 5.48411e+07 3.22045e-08 1.25391e+08)
(2.28155e+08 -1.67456e+07 -2.50437e-08 5.62445e+07 5.64632e-09 1.24727e+08)
(2.27289e+08 -1.33508e+07 6.29371e-08 5.60534e+07 3.8528e-08 1.22905e+08)
(2.30555e+08 -1.566e+07 1.24014e-07 5.74356e+07 4.1298e-08 1.22014e+08)
(2.2926e+08 -1.17083e+07 5.78356e-08 5.69897e+07 5.45475e-09 1.20034e+08)
(2.32516e+08 -1.43009e+07 4.83129e-08 5.82895e+07 1.93824e-08 1.19006e+08)
(2.30802e+08 -9.83676e+06 6.87003e-08 5.76464e+07 3.98811e-08 1.16891e+08)
(2.34041e+08 -1.26734e+07 -3.75078e-08 5.8804e+07 6.40299e-09 1.15789e+08)
(2.31938e+08 -7.75842e+06 -1.0522e-07 5.80293e+07 -5.13568e-08 1.13547e+08)
(2.35143e+08 -1.07929e+07 -1.62689e-07 5.89921e+07 -7.38728e-08 1.12464e+08)
(2.327e+08 -5.50373e+06 -2.60618e-07 5.81527e+07 -1.25697e-07 1.10129e+08)
(2.35856e+08 -8.69218e+06 -1.01119e-07 5.88823e+07 -5.67324e-08 1.09111e+08)
(2.33126e+08 -3.106e+06 1.47652e-07 5.8035e+07 8.21211e-08 1.06698e+08)
(2.36199e+08 -6.40789e+06 2.2278e-07 5.85131e+07 1.02816e-07 1.05798e+08)
(2.33233e+08 -596090 6.92255e-08 5.7696e+07 2.69094e-08 1.03351e+08)
(2.36209e+08 -3.97989e+06 1.23657e-07 5.79291e+07 4.96888e-08 1.0256e+08)
(2.33062e+08 1.99723e+06 9.33448e-08 5.71543e+07 4.41155e-08 1.00109e+08)
(2.35886e+08 -1.44966e+06 7.71741e-08 5.71768e+07 3.93691e-08 9.94238e+07)
(2.32577e+08 4.65691e+06 0 5.64234e+07 0 9.70419e+07)
(2.35273e+08 1.1417e+06 2.11184e-08 5.62997e+07 4.09862e-09 9.63657e+07)
(2.31836e+08 7.35512e+06 1.16378e-07 5.55208e+07 6.00228e-08 9.41252e+07)
(2.34328e+08 3.76732e+06 2.2011e-07 5.53364e+07 9.22104e-08 9.34388e+07)
(2.30818e+08 1.00817e+07 2.51298e-07 5.44555e+07 1.13e-07 9.13988e+07)
(2.33204e+08 6.36884e+06 -2.91859e-08 5.43213e+07 9.99774e-10 9.03956e+07)
(2.29621e+08 1.2757e+07 -3.17079e-07 5.32262e+07 -1.60409e-07 8.86351e+07)
(2.31539e+08 8.97274e+06 -3.53027e-07 5.32745e+07 -1.58593e-07 8.70656e+07)
(2.27814e+08 1.53256e+07 -2.57514e-07 5.1727e+07 -1.18224e-07 8.57964e+07)
(2.27909e+08 1.15036e+07 -1.23202e-07 5.2231e+07 -6.15171e-08 8.41278e+07)
(2.25487e+08 1.66718e+07 8.11211e-08 5.02205e+07 4.45587e-08 8.22126e+07)
(5.90381e+07 -3.75378e+06 3.19361e-08 524148 4.60293e-09 7.29137e+07)
(6.21686e+07 -7.51798e+06 -1.29957e-08 1.47629e+06 -6.30315e-08 7.24471e+07)
(7.02344e+07 -5.22839e+06 5.21669e-08 1.47235e+06 -8.04261e-08 7.44031e+07)
(7.15531e+07 -9.00364e+06 -1.64524e-08 2.81514e+06 -1.50987e-08 7.76607e+07)
(7.99678e+07 -6.61403e+06 -4.32337e-08 2.78517e+06 4.38098e-08 7.93489e+07)
(8.11209e+07 -1.05384e+07 -2.0806e-08 4.33249e+06 2.02007e-08 8.22565e+07)
(8.91957e+07 -8.03294e+06 1.21115e-08 4.34651e+06 -1.93569e-08 8.36532e+07)
(9.0266e+07 -1.20177e+07 1.535e-08 6.00045e+06 -7.45341e-08 8.63905e+07)
(9.7985e+07 -9.45026e+06 4.85882e-10 6.09526e+06 7.19344e-09 8.77954e+07)
(9.90614e+07 -1.34173e+07 1.05665e-08 7.80154e+06 -2.4037e-08 9.03811e+07)
(1.06471e+08 -1.08493e+07 9.38059e-09 7.99108e+06 -3.3225e-08 9.18194e+07)
(1.07603e+08 -1.47287e+07 -7.94788e-09 9.7253e+06 3.2497e-08 9.42332e+07)
(1.14717e+08 -1.22126e+07 -1.83772e-08 1.00052e+07 4.15091e-08 9.57326e+07)
(1.15911e+08 -1.59459e+07 6.30267e-09 1.17635e+07 -3.24868e-08 9.79655e+07)
(1.22723e+08 -1.35211e+07 -1.02775e-08 1.21182e+07 -2.79745e-08 9.95364e+07)
(1.23969e+08 -1.70659e+07 0 1.39077e+07 0 1.01575e+08)
(1.30478e+08 -1.47601e+07 -1.24176e-08 1.43181e+07 5.72179e-08 1.03213e+08)
(1.31767e+08 -1.80894e+07 -2.92504e-08 1.61486e+07 3.20647e-08 1.05041e+08)
(1.37978e+08 -1.5921e+07 -1.04003e-08 1.65976e+07 -3.30916e-08 1.06739e+08)
(1.39303e+08 -1.90204e+07 -2.26479e-08 1.84767e+07 -6.18873e-08 1.08341e+08)
(1.45226e+08 -1.70007e+07 -4.86217e-08 1.89523e+07 4.1959e-08 1.10095e+08)
(1.46581e+08 -1.98633e+07 -6.46311e-08 2.08817e+07 8.23174e-08 1.1146e+08)
(1.52225e+08 -1.80006e+07 -5.3682e-08 2.138e+07 7.10662e-08 1.13268e+08)
(1.53611e+08 -2.06227e+07 -7.21859e-08 2.33527e+07 4.51249e-08 1.14396e+08)
(1.58984e+08 -1.89253e+07 -5.95138e-08 2.38774e+07 3.41343e-08 1.16247e+08)
(1.60395e+08 -2.13013e+07 -3.63255e-08 2.58777e+07 1.06284e-07 1.17147e+08)
(1.65509e+08 -1.97788e+07 1.6136e-08 2.64378e+07 -1.02178e-07 1.19011e+08)
(1.66932e+08 -2.18961e+07 6.26879e-08 2.84413e+07 -6.87135e-08 1.19682e+08)
(1.71801e+08 -2.05597e+07 8.16189e-08 2.90477e+07 -5.10294e-09 1.21518e+08)
(1.73219e+08 -2.23995e+07 1.22648e-08 3.10223e+07 -2.01217e-08 1.2195e+08)
(1.77853e+08 -2.12628e+07 3.08194e-08 3.16901e+07 3.65035e-08 1.23726e+08)
(1.79252e+08 -2.28038e+07 -2.55604e-08 3.35984e+07 -4.18141e-09 1.23937e+08)
(1.83666e+08 -2.18854e+07 0 3.43477e+07 0 1.25619e+08)
(1.85019e+08 -2.30977e+07 -3.44125e-08 3.61454e+07 -3.44862e-08 1.25626e+08)
(1.89234e+08 -2.24202e+07 -1.08226e-07 3.69972e+07 3.79209e-08 1.27154e+08)
(1.905e+08 -2.326e+07 -8.14766e-08 3.8632e+07 4.79575e-08 1.26947e+08)
(1.94541e+08 -2.28483e+07 -4.07985e-08 3.96051e+07 -3.70163e-08 1.28265e+08)
(1.95676e+08 -2.32697e+07 0 4.10243e+07 0 1.27846e+08)
(1.99565e+08 -2.31476e+07 -3.27324e-08 4.2135e+07 -8.50054e-09 1.28919e+08)
(2.00528e+08 -2.31079e+07 4.43999e-08 4.32906e+07 3.56929e-08 1.28308e+08)
(2.0429e+08 -2.32986e+07 9.99843e-08 4.45504e+07 -6e-08 1.29088e+08)
(2.05024e+08 -2.2747e+07 1.51165e-07 4.53946e+07 -2.47204e-08 1.28278e+08)
(2.08689e+08 -2.32712e+07 6.74883e-08 4.68062e+07 6.46599e-08 1.28726e+08)
(2.09137e+08 -2.21627e+07 -1.43829e-08 4.73012e+07 -2.5261e-08 1.27721e+08)
(2.12731e+08 -2.30335e+07 -1.83675e-07 4.88548e+07 -1.96928e-08 1.27834e+08)
(2.12845e+08 -2.13347e+07 -1.46792e-07 4.89794e+07 -8.75572e-09 1.26643e+08)
(2.1639e+08 -2.25546e+07 -6.0619e-08 5.06493e+07 -3.92914e-08 1.26417e+08)
(2.16119e+08 -2.02422e+07 -5.97076e-08 5.03998e+07 -3.92814e-08 1.25032e+08)
(2.1963e+08 -2.18005e+07 -7.33141e-08 5.21431e+07 2.22896e-09 1.24512e+08)
(2.18952e+08 -1.88787e+07 -1.81948e-07 5.15434e+07 -5.86932e-08 1.22939e+08)
(2.22434e+08 -2.07511e+07 -2.37461e-07 5.33033e+07 -8.59742e-08 1.22184e+08)
(2.21336e+08 -1.7243e+07 -7.81138e-08 5.23988e+07 -9.52507e-09 1.20431e+08)
(2.24791e+08 -1.93941e+07 -7.24983e-08 5.41082e+07 -4.21545e-08 1.19526e+08)
(2.23282e+08 -1.53449e+07 -4.76806e-08 5.29638e+07 -2.29615e-08 1.17594e+08)
(2.267e+08 -1.77296e+07 5.41475e-08 5.45528e+07 1.35996e-08 1.1663e+08)
(2.24811e+08 -1.32076e+07 7.96583e-08 5.32486e+07 3.62425e-08 1.14543e+08)
(2.28181e+08 -1.57785e+07 7.82518e-08 5.46556e+07 4.41049e-08 1.13612e+08)
(2.25958e+08 -1.08642e+07 0 5.32751e+07 0 1.11379e+08)
(2.29255e+08 -1.35732e+07 1.62879e-07 5.44527e+07 7.62774e-08 1.1055e+08)
(2.2676e+08 -8.35397e+06 2.40635e-07 5.30732e+07 1.37238e-07 1.08197e+08)
(2.29968e+08 -1.11571e+07 1.90853e-07 5.3991e+07 1.08816e-07 1.07538e+08)
(2.2725e+08 -5.71412e+06 -1.30369e-07 5.26756e+07 -8.11435e-08 1.05095e+08)
(2.30358e+08 -8.58199e+06 -4.34698e-07 5.33252e+07 -2.28572e-07 1.04602e+08)
(2.27473e+08 -2.98504e+06 -1.91551e-07 5.21172e+07 -1.04619e-07 1.0209e+08)
(2.3045e+08 -5.8961e+06 -9.78045e-08 5.25099e+07 -5.92989e-08 1.01785e+08)
(2.27434e+08 -194461 9.1806e-08 5.14292e+07 5.23717e-08 9.92406e+07)
(2.30288e+08 -3.14314e+06 2.70147e-08 5.15947e+07 1.64598e-08 9.90568e+07)
(2.27165e+08 2.6336e+06 5.31596e-08 5.06389e+07 3.10677e-08 9.65067e+07)
(2.29865e+08 -359669 0 5.06207e+07 0 9.64031e+07)
(2.26643e+08 5.47402e+06 2.35232e-08 4.97765e+07 1.54464e-08 9.38874e+07)
(2.2921e+08 2.41889e+06 1.14608e-07 4.96199e+07 5.951e-08 9.37917e+07)
(2.25883e+08 8.31993e+06 9.25724e-08 4.88603e+07 4.86849e-08 9.13661e+07)
(2.2833e+08 5.17549e+06 -1.99854e-07 4.86194e+07 -1.04109e-07 9.12071e+07)
(2.24908e+08 1.11426e+07 -1.6978e-07 4.79189e+07 -9.5822e-08 8.89151e+07)
(2.27272e+08 7.86573e+06 -2.47724e-07 4.7643e+07 -1.29288e-07 8.85885e+07)