/*--------------------------------*- C++ -*----------------------------------*\
| =========                 |                                                 |
| \\      /  F ield         | OpenFOAM: The Open Source CFD Toolbox           |
|  \\    /   O peration     | Version:  v2012                                 |
|   \\  /    A nd           | Website:  www.openfoam.com                      |
|    \\/     M anipulation  |                                                 |
\*---------------------------------------------------------------------------*/
FoamFile
{
    version     2.0;
    format      ascii;
    class       volVectorField;
    location    "13";
    object      D;
}
// * * * * * * * * * * * * * * * * * * * * * * * * * * * * * * * * * * * * * //

dimensions      [0 1 0 0 0 0 0];


internalField   nonuniform List<vector> 
1000
(
(0.000224546 -0.00109105 0)
(0.000226226 -0.00133633 0)
(0.000223114 -0.00154528 0)
(0.00021076 -0.00173837 0)
(0.000193672 -0.00188445 0)
(0.000172097 -0.00200792 0)
(0.000149858 -0.0020891 0)
(0.000128785 -0.00215172 0)
(0.000110086 -0.00218689 0)
(9.52099e-05 -0.00221185 0)
(0.000664337 -0.00117191 0)
(0.000666707 -0.00140734 0)
(0.000651614 -0.00159101 0)
(0.000612047 -0.00175381 0)
(0.000559248 -0.00186611 0)
(0.000497942 -0.00195962 0)
(0.000435037 -0.00201669 0)
(0.000377639 -0.00206294 0)
(0.000326997 -0.00208935 0)
(0.000288937 -0.00211265 0)
(0.00106183 -0.00131994 0)
(0.00104838 -0.00151672 0)
(0.00100548 -0.0016359 0)
(0.000935244 -0.00173448 0)
(0.000852248 -0.00178775 0)
(0.000763954 -0.00183508 0)
(0.000676803 -0.00186132 0)
(0.000601306 -0.00189054 0)
(0.000536901 -0.00191225 0)
(0.000491768 -0.00193913 0)
(0.00137027 -0.00145723 0)
(0.0013253 -0.0015742 0)
(0.00124549 -0.0016025 0)
(0.00116066 -0.00163609 0)
(0.00106794 -0.00163663 0)
(0.000983506 -0.00165329 0)
(0.000901472 -0.00166029 0)
(0.000834423 -0.001682 0)
(0.000776029 -0.00170174 0)
(0.000732325 -0.00172798 0)
(0.00157159 -0.00148999 0)
(0.00148928 -0.00151759 0)
(0.00139482 -0.00149327 0)
(0.00131525 -0.00149874 0)
(0.00123203 -0.00148206 0)
(0.00116677 -0.00149083 0)
(0.00109945 -0.00148676 0)
(0.00104888 -0.00150177 0)
(0.000996939 -0.00150878 0)
(0.00095647 -0.00152338 0)
(0.00171692 -0.00140454 0)
(0.00163 -0.00138919 0)
(0.00154143 -0.00136742 0)
(0.00147416 -0.00136133 0)
(0.00139941 -0.00134608 0)
(0.00134385 -0.00134446 0)
(0.00128395 -0.00133573 0)
(0.0012408 -0.0013372 0)
(0.00119232 -0.00133254 0)
(0.00115738 -0.00133442 0)
(0.00185221 -0.00130353 0)
(0.00177322 -0.00127929 0)
(0.00169158 -0.00125116 0)
(0.00162789 -0.00123412 0)
(0.00156039 -0.0012118 0)
(0.00150942 -0.00120077 0)
(0.00145521 -0.00118544 0)
(0.00141535 -0.00117809 0)
(0.00137259 -0.00116798 0)
(0.00134099 -0.00116189 0)
(0.00200235 -0.00119096 0)
(0.00192341 -0.0011547 0)
(0.0018487 -0.00111862 0)
(0.00179074 -0.00109337 0)
(0.0017309 -0.00106612 0)
(0.00168649 -0.00104821 0)
(0.00163856 -0.0010282 0)
(0.00160398 -0.00101442 0)
(0.00156557 -0.00099956 0)
(0.00153797 -0.000987299 0)
(0.00213675 -0.00108555 0)
(0.00206513 -0.00104092 0)
(0.00199652 -0.000998725 0)
(0.00194396 -0.000966877 0)
(0.0018903 -0.000935072 0)
(0.0018503 -0.000911331 0)
(0.00180824 -0.000887513 0)
(0.00177726 -0.000868558 0)
(0.00174427 -0.000850851 0)
(0.00171973 -0.000834248 0)
(0.00227818 -0.000972837 0)
(0.00221336 -0.000920631 0)
(0.0021527 -0.000872367 0)
(0.00210603 -0.000835599 0)
(0.00205934 -0.000799485 0)
(0.00202467 -0.000772358 0)
(0.00198851 -0.000744922 0)
(0.00196209 -0.000723644 0)
(0.00193446 -0.000702765 0)
(0.00191358 -0.000684815 0)
(0.00239855 -0.000869466 0)
(0.00234384 -0.000812552 0)
(0.00229211 -0.000760472 0)
(0.00225166 -0.000720764 0)
(0.00221278 -0.000681654 0)
(0.00218148 -0.000652965 0)
(0.00215316 -0.000622811 0)
(0.0021277 -0.000601431 0)
(0.00210882 -0.000577806 0)
(0.00208689 -0.000561529 0)
(0.00252205 -0.000764631 0)
(0.00247694 -0.000704306 0)
(0.00243461 -0.000650347 0)
(0.00240076 -0.000608284 0)
(0.00236931 -0.000568662 0)
(0.00234273 -0.000537964 0)
(0.00232028 -0.000508248 0)
(0.00229821 -0.000484559 0)
(0.00228375 -0.000462016 0)
(0.0022642 -0.000442432 0)
(0.002625 -0.000664611 0)
(0.0025916 -0.000604447 0)
(0.00255933 -0.000550718 0)
(0.00253317 -0.000508744 0)
(0.00250954 -0.000469168 0)
(0.0024882 -0.000438552 0)
(0.00247235 -0.000408824 0)
(0.00245396 -0.000385146 0)
(0.00244523 -0.000362744 0)
(0.0024283 -0.000342842 0)
(0.0027242 -0.000568163 0)
(0.00270117 -0.000509394 0)
(0.0026784 -0.000457947 0)
(0.00265915 -0.00041673 0)
(0.00264257 -0.000379451 0)
(0.00262602 -0.000349188 0)
(0.00261547 -0.000321752 0)
(0.00260065 -0.000298242 0)
(0.00259589 -0.000278089 0)
(0.00258209 -0.000258588 0)
(0.00280543 -0.000473686 0)
(0.00279342 -0.000419803 0)
(0.00277976 -0.000372794 0)
(0.00276809 -0.00033484 0)
(0.00275794 -0.000300937 0)
(0.00274693 -0.000272887 0)
(0.00274089 -0.000248236 0)
(0.00273046 -0.000226213 0)
(0.00272868 -0.000208543 0)
(0.00271869 -0.000190018 0)
(0.00287764 -0.000384026 0)
(0.00287489 -0.000336228 0)
(0.00286921 -0.000295186 0)
(0.00286399 -0.000261325 0)
(0.00285942 -0.000232104 0)
(0.00285322 -0.000206989 0)
(0.002851 -0.000186138 0)
(0.00284456 -0.000166457 0)
(0.00284517 -0.000151914 0)
(0.00283895 -0.000135567 0)
(0.00293364 -0.000294951 0)
(0.00293936 -0.000255969 0)
(0.00294046 -0.000222581 0)
(0.0029413 -0.000194852 0)
(0.00294123 -0.000171207 0)
(0.0029397 -0.000150497 0)
(0.0029403 -0.000133804 0)
(0.0029378 -0.000117411 0)
(0.00293992 -0.000105991 0)
(0.00293734 -9.22268e-05 0)
(0.00297753 -0.000210013 0)
(0.00298962 -0.000180739 0)
(0.00299599 -0.000155969 0)
(0.00300143 -0.000135072 0)
(0.00300489 -0.000117693 0)
(0.00300696 -0.000102076 0)
(0.00300978 -8.99834e-05 0)
(0.00301041 -7.76709e-05 0)
(0.00301371 -6.95792e-05 0)
(0.00301411 -5.93387e-05 0)
(0.00300607 -0.000124589 0)
(0.00302275 -0.00010675 0)
(0.00303273 -9.16107e-05 0)
(0.00304153 -7.88422e-05 0)
(0.00304731 -6.82326e-05 0)
(0.00305204 -5.86275e-05 0)
(0.00305624 -5.12641e-05 0)
(0.00305917 -4.36112e-05 0)
(0.00306311 -3.87127e-05 0)
(0.00306569 -3.22657e-05 0)
(0.00302081 -4.20782e-05 0)
(0.00303975 -3.58998e-05 0)
(0.00305157 -3.07503e-05 0)
(0.00306203 -2.63297e-05 0)
(0.00306901 -2.27555e-05 0)
(0.00307507 -1.94577e-05 0)
(0.00308 -1.70152e-05 0)
(0.0030841 -1.44332e-05 0)
(0.00308839 -1.28452e-05 0)
(0.00309209 -1.07238e-05 0)
(0.00309997 -8.61977e-06 0)
(0.00307568 -2.54445e-05 0)
(0.00302836 -4.73096e-05 0)
(0.00295734 -7.36061e-05 0)
(0.00286632 -0.000109058 0)
(0.00275372 -0.000153866 0)
(0.00262521 -0.000211389 0)
(0.00247827 -0.000283268 0)
(0.00231855 -0.000372009 0)
(0.00214702 -0.000476407 0)
(0.00311243 -6.00724e-06 0)
(0.00308985 -1.64784e-05 0)
(0.00304605 -3.28598e-05 0)
(0.00298014 -5.17654e-05 0)
(0.00289623 -8.06984e-05 0)
(0.00279235 -0.000114982 0)
(0.0026754 -0.000163135 0)
(0.00254243 -0.000216459 0)
(0.00240147 -0.000289719 0)
(0.00225109 -0.000362581 0)
(0.00313141 -4.28251e-06 0)
(0.00311231 -1.02761e-05 0)
(0.00307527 -2.20894e-05 0)
(0.00301903 -3.41563e-05 0)
(0.00294697 -5.59702e-05 0)
(0.00285655 -8.0016e-05 0)
(0.00275257 -0.000119253 0)
(0.00263263 -0.000159844 0)
(0.00250012 -0.000223645 0)
(0.0023594 -0.000281221 0)
(0.0031495 -4.0833e-06 0)
(0.00313158 -8.23103e-06 0)
(0.00309688 -1.9114e-05 0)
(0.00304464 -2.76347e-05 0)
(0.00297801 -4.64756e-05 0)
(0.00289588 -6.2806e-05 0)
(0.00280206 -9.47526e-05 0)
(0.00269673 -0.000121554 0)
(0.00258004 -0.000172477 0)
(0.00245747 -0.000213599 0)
(0.00317874 -3.33267e-06 0)
(0.00316346 -5.30162e-06 0)
(0.00313345 -1.43622e-05 0)
(0.00308836 -1.99756e-05 0)
(0.00302943 -3.62805e-05 0)
(0.00295678 -4.87756e-05 0)
(0.00287093 -7.68549e-05 0)
(0.00277491 -9.84483e-05 0)
(0.00266579 -0.00014118 0)
(0.00255254 -0.000173825 0)
(0.00320384 -3.75583e-06 0)
(0.00318961 -5.67919e-06 0)
(0.0031615 -1.48946e-05 0)
(0.00312013 -1.90149e-05 0)
(0.00306593 -3.33249e-05 0)
(0.00300095 -4.17651e-05 0)
(0.00292384 -6.45813e-05 0)
(0.00283963 -7.99125e-05 0)
(0.00274271 -0.000114237 0)
(0.00264258 -0.000139638 0)
(0.00324243 -3.66902e-06 0)
(0.00323003 -5.42176e-06 0)
(0.00320497 -1.43889e-05 0)
(0.00316843 -1.83352e-05 0)
(0.00311922 -3.19708e-05 0)
(0.00306061 -3.99951e-05 0)
(0.00298933 -6.0543e-05 0)
(0.00291216 -7.42131e-05 0)
(0.00282255 -0.000102799 0)
(0.00273084 -0.000124032 0)
(0.00327563 -4.07553e-06 0)
(0.00326423 -6.56051e-06 0)
(0.003241 -1.57848e-05 0)
(0.00320782 -1.96415e-05 0)
(0.00316292 -3.20569e-05 0)
(0.00311059 -3.887e-05 0)
(0.00304651 -5.64078e-05 0)
(0.00297811 -6.80857e-05 0)
(0.0028978 -9.20456e-05 0)
(0.0028161 -0.000110345 0)
(0.00332198 -4.34189e-06 0)
(0.00331178 -7.86199e-06 0)
(0.00329062 -1.75597e-05 0)
(0.00326064 -2.25416e-05 0)
(0.00321935 -3.50226e-05 0)
(0.0031715 -4.27571e-05 0)
(0.00311229 -5.91482e-05 0)
(0.00304947 -7.0805e-05 0)
(0.00297572 -9.16968e-05 0)
(0.00290111 -0.00010843 0)
(0.00336348 -4.63423e-06 0)
(0.00335417 -9.16922e-06 0)
(0.00333475 -1.91328e-05 0)
(0.00330761 -2.47744e-05 0)
(0.00327009 -3.67634e-05 0)
(0.00322712 -4.47367e-05 0)
(0.00317373 -5.98435e-05 0)
(0.0031175 -7.13602e-05 0)
(0.00305101 -9.02408e-05 0)
(0.00298433 -0.000106128 0)
(0.00341623 -5.01036e-06 0)
(0.00340773 -1.09486e-05 0)
(0.00338986 -2.16108e-05 0)
(0.00336496 -2.86705e-05 0)
(0.00333032 -4.10755e-05 0)
(0.00329077 -5.02518e-05 0)
(0.00324154 -6.5107e-05 0)
(0.00318989 -7.7241e-05 0)
(0.00312901 -9.49485e-05 0)
(0.00306818 -0.00011067 0)
(0.00346538 -5.19835e-06 0)
(0.00345764 -1.20676e-05 0)
(0.00344132 -2.29732e-05 0)
(0.00341873 -3.08538e-05 0)
(0.00338727 -4.3214e-05 0)
(0.00335151 -5.30969e-05 0)
(0.00330699 -6.7636e-05 0)
(0.00326042 -8.03294e-05 0)
(0.00320541 -9.74678e-05 0)
(0.00315089 -0.000113379 0)
(0.00352342 -5.49309e-06 0)
(0.00351627 -1.35372e-05 0)
(0.0035012 -2.50075e-05 0)
(0.00348033 -3.40364e-05 0)
(0.00345129 -4.68453e-05 0)
(0.0034183 -5.7706e-05 0)
(0.00337732 -7.24626e-05 0)
(0.0033346 -8.57852e-05 0)
(0.00328425 -0.00010285 0)
(0.00323463 -0.000119018 0)
(0.00357902 -5.53732e-06 0)
(0.00357251 -1.41057e-05 0)
(0.00355876 -2.5645e-05 0)
(0.00353977 -3.51892e-05 0)
(0.00351334 -4.80482e-05 0)
(0.00348337 -5.94247e-05 0)
(0.00344621 -7.42529e-05 0)
(0.00340744 -8.807e-05 0)
(0.00336206 -0.000105235 0)
(0.00331696 -0.000121808 0)
(0.00364119 -5.57279e-06 0)
(0.00363518 -1.46911e-05 0)
(0.00362247 -2.63032e-05 0)
(0.00360493 -3.64131e-05 0)
(0.00358054 -4.9333e-05 0)
(0.00355295 -6.12672e-05 0)
(0.00351877 -7.61131e-05 0)
(0.00348334 -9.04505e-05 0)
(0.0034418 -0.000107574 0)
(0.00340108 -0.000124613 0)
(0.00370169 -5.35514e-06 0)
(0.0036962 -1.42968e-05 0)
(0.0036846 -2.5509e-05 0)
(0.00366862 -3.55017e-05 0)
(0.0036464 -4.813e-05 0)
(0.00362129 -6.00574e-05 0)
(0.00359024 -7.47715e-05 0)
(0.00355802 -8.92341e-05 0)
(0.00352049 -0.000106376 0)
(0.00348354 -0.000123669 0)
(0.00376659 -4.95029e-06 0)
(0.00376154 -1.34108e-05 0)
(0.00375087 -2.38464e-05 0)
(0.00373618 -3.3439e-05 0)
(0.00371575 -4.53834e-05 0)
(0.00369273 -5.70499e-05 0)
(0.00366426 -7.12273e-05 0)
(0.00363488 -8.55877e-05 0)
(0.00360064 -0.000102405 0)
(0.00356724 -0.000119706 0)
(0.00382994 -4.28479e-06 0)
(0.00382536 -1.14852e-05 0)
(0.00381566 -2.06559e-05 0)
(0.00380234 -2.91045e-05 0)
(0.00378378 -3.99752e-05 0)
(0.00376292 -5.07131e-05 0)
(0.00373708 -6.4102e-05 0)
(0.00371051 -7.78121e-05 0)
(0.00367952 -9.41586e-05 0)
(0.00364944 -0.000111112 0)
(0.00389565 -3.20465e-06 0)
(0.0038915 -8.33409e-06 0)
(0.00388266 -1.54091e-05 0)
(0.00387058 -2.19464e-05 0)
(0.00385369 -3.09142e-05 0)
(0.00383479 -4.00673e-05 0)
(0.00381132 -5.18653e-05 0)
(0.00378731 -6.44873e-05 0)
(0.00375926 -7.96363e-05 0)
(0.00373223 -9.61452e-05 0)
(0.00395907 -1.80783e-06 0)
(0.00395537 -3.99442e-06 0)
(0.00394748 -8.36141e-06 0)
(0.00393673 -1.21308e-05 0)
(0.00392165 -1.86509e-05 0)
(0.00390485 -2.53922e-05 0)
(0.00388392 -3.51769e-05 0)
(0.0038626 -4.59178e-05 0)
(0.00383766 -5.96375e-05 0)
(0.00381372 -7.492e-05 0)
(0.00201933 -0.000553838 0)
(0.0019596 -0.00057597 0)
(0.00189947 -0.00060222 0)
(0.00184199 -0.000625746 0)
(0.00178463 -0.000651553 0)
(0.0017294 -0.000675999 0)
(0.00167443 -0.000701629 0)
(0.00162123 -0.000726444 0)
(0.00156841 -0.000751992 0)
(0.00151692 -0.000776808 0)
(0.00146584 -0.000802043 0)
(0.00141579 -0.00082689 0)
(0.00136601 -0.000851721 0)
(0.001317 -0.000876683 0)
(0.001268 -0.000901177 0)
(0.00121947 -0.000926493 0)
(0.00117076 -0.00095094 0)
(0.00112195 -0.00097708 0)
(0.00107313 -0.00100208 0)
(0.00102306 -0.0010298 0)
(0.00214548 -0.000426143 0)
(0.00209144 -0.000446988 0)
(0.0020384 -0.000471748 0)
(0.00198417 -0.000494666 0)
(0.00193378 -0.000518272 0)
(0.00188209 -0.000541625 0)
(0.00183188 -0.00056529 0)
(0.00178271 -0.000588897 0)
(0.00173282 -0.000612546 0)
(0.0016847 -0.000636412 0)
(0.00163658 -0.000659938 0)
(0.00158966 -0.000684081 0)
(0.001543 -0.000707524 0)
(0.00149725 -0.000732088 0)
(0.00145184 -0.000755569 0)
(0.00140715 -0.000780842 0)
(0.00136283 -0.000804634 0)
(0.00131918 -0.000831055 0)
(0.00127587 -0.000855677 0)
(0.00123347 -0.00088383 0)
(0.00225822 -0.00033626 0)
(0.00220603 -0.000354169 0)
(0.00215563 -0.000377644 0)
(0.00210566 -0.000396454 0)
(0.00205627 -0.000420008 0)
(0.00200815 -0.000439555 0)
(0.00196006 -0.0004629 0)
(0.00191377 -0.000483334 0)
(0.00186798 -0.000506596 0)
(0.00182271 -0.000527726 0)
(0.00177854 -0.000550775 0)
(0.0017351 -0.00057277 0)
(0.00169264 -0.000595831 0)
(0.001651 -0.000618648 0)
(0.00161032 -0.00064195 0)
(0.00157057 -0.000665719 0)
(0.00153178 -0.000689556 0)
(0.00149421 -0.000714551 0)
(0.00145744 -0.000739315 0)
(0.00142273 -0.000765935 0)
(0.0023682 -0.000259144 0)
(0.0023215 -0.000274867 0)
(0.00227742 -0.000296263 0)
(0.00223146 -0.000313389 0)
(0.00218819 -0.000334993 0)
(0.00214322 -0.00035331 0)
(0.00210107 -0.000375059 0)
(0.00205697 -0.000394418 0)
(0.00201656 -0.000416291 0)
(0.00197472 -0.000436523 0)
(0.00193511 -0.000458626 0)
(0.00189532 -0.000479708 0)
(0.00185713 -0.000502119 0)
(0.0018194 -0.000524092 0)
(0.00178309 -0.000546966 0)
(0.00174761 -0.000569936 0)
(0.00171357 -0.00059349 0)
(0.0016807 -0.000617634 0)
(0.00164936 -0.000642117 0)
(0.00161963 -0.000667687 0)
(0.00247018 -0.000210848 0)
(0.00242711 -0.000224947 0)
(0.002386 -0.00024391 0)
(0.00234389 -0.00025927 0)
(0.00230328 -0.000278708 0)
(0.00226243 -0.000295211 0)
(0.00222281 -0.000315075 0)
(0.00218343 -0.000332626 0)
(0.00214528 -0.000352999 0)
(0.00210753 -0.000371441 0)
(0.00207111 -0.000392214 0)
(0.00203531 -0.000411663 0)
(0.00200094 -0.000432872 0)
(0.00196739 -0.000453398 0)
(0.00193539 -0.000475157 0)
(0.00190445 -0.000496843 0)
(0.0018752 -0.000519318 0)
(0.00184725 -0.000542287 0)
(0.00182121 -0.000565673 0)
(0.00179669 -0.000590091 0)
(0.00256881 -0.0001703 0)
(0.00253084 -0.000182886 0)
(0.00249445 -0.00020004 0)
(0.00245681 -0.000214006 0)
(0.00242093 -0.000231861 0)
(0.00238406 -0.000247143 0)
(0.00234909 -0.000265592 0)
(0.00231339 -0.000282107 0)
(0.00227968 -0.000301103 0)
(0.00224562 -0.00031876 0)
(0.00221347 -0.00033832 0)
(0.00218142 -0.000357068 0)
(0.00215124 -0.000377229 0)
(0.00212155 -0.000397057 0)
(0.00209379 -0.000417884 0)
(0.00206689 -0.000438822 0)
(0.00204207 -0.000460407 0)
(0.00201845 -0.000482526 0)
(0.00199712 -0.000504985 0)
(0.00197735 -0.000528395 0)
(0.00266329 -0.000149297 0)
(0.00262904 -0.000160969 0)
(0.00259564 -0.000176247 0)
(0.00256165 -0.000189175 0)
(0.00252875 -0.000205268 0)
(0.00249553 -0.000219407 0)
(0.00246354 -0.000236254 0)
(0.00243152 -0.000251553 0)
(0.00240085 -0.00026912 0)
(0.00237043 -0.000285533 0)
(0.0023415 -0.000303791 0)
(0.00231309 -0.000321305 0)
(0.00228632 -0.000340252 0)
(0.00226035 -0.000358869 0)
(0.00223621 -0.000378527 0)
(0.00221315 -0.000398263 0)
(0.00219216 -0.000418678 0)
(0.0021725 -0.000439556 0)
(0.00215525 -0.000460798 0)
(0.00213958 -0.000482835 0)
(0.00275528 -0.000131839 0)
(0.00272533 -0.000142776 0)
(0.00269559 -0.000156679 0)
(0.00266565 -0.000168876 0)
(0.00263645 -0.000183691 0)
(0.00260704 -0.000197121 0)
(0.00257874 -0.000212776 0)
(0.00255033 -0.000227399 0)
(0.00252331 -0.000243842 0)
(0.00249638 -0.000259609 0)
(0.00247104 -0.00027681 0)
(0.00244604 -0.000293677 0)
(0.00242283 -0.00031162 0)
(0.00240024 -0.000329546 0)
(0.00237963 -0.000348231 0)
(0.00235995 -0.000367181 0)
(0.00234247 -0.000386617 0)
(0.00232631 -0.000406557 0)
(0.00231245 -0.000426761 0)
(0.00230027 -0.00044768 0)
(0.00284567 -0.000127044 0)
(0.00281888 -0.000137513 0)
(0.00279185 -0.000150251 0)
(0.00276502 -0.000161854 0)
(0.00273857 -0.000175524 0)
(0.00271223 -0.000188242 0)
(0.0026867 -0.000202796 0)
(0.00266134 -0.000216602 0)
(0.0026371 -0.000231998 0)
(0.00261319 -0.000246857 0)
(0.00259064 -0.000263058 0)
(0.00256865 -0.000278933 0)
(0.00254823 -0.000295905 0)
(0.00252864 -0.000312757 0)
(0.00251079 -0.000330464 0)
(0.0024941 -0.000348254 0)
(0.00247933 -0.000366644 0)
(0.00246607 -0.00038534 0)
(0.00245515 -0.000404362 0)
(0.00244571 -0.000423909 0)
(0.00293425 -0.000122937 0)
(0.00291088 -0.000133066 0)
(0.00288665 -0.000144956 0)
(0.00286315 -0.000156178 0)
(0.00283953 -0.000168999 0)
(0.00281638 -0.000181294 0)
(0.00279368 -0.000195007 0)
(0.00277138 -0.000208344 0)
(0.00274995 -0.000222908 0)
(0.00272896 -0.000237243 0)
(0.00270917 -0.000252615 0)
(0.00268994 -0.000267901 0)
(0.00267222 -0.000284032 0)
(0.00265522 -0.000300214 0)
(0.00264001 -0.000317049 0)
(0.00262571 -0.000334066 0)
(0.00261352 -0.000351537 0)
(0.00260236 -0.000369324 0)
(0.00259377 -0.000387346 0)
(0.0025865 -0.000405797 0)
(0.00302271 -0.000126188 0)
(0.00300173 -0.000136109 0)
(0.00297983 -0.000147356 0)
(0.00295872 -0.000158223 0)
(0.00293741 -0.000170363 0)
(0.00291665 -0.000182195 0)
(0.00289624 -0.000195187 0)
(0.0028763 -0.000207972 0)
(0.00285711 -0.000221774 0)
(0.00283844 -0.000235479 0)
(0.00282083 -0.000250044 0)
(0.00280386 -0.000264622 0)
(0.00278823 -0.000279894 0)
(0.00277339 -0.000295283 0)
(0.00276017 -0.000311196 0)
(0.00274792 -0.000327318 0)
(0.00273756 -0.000343795 0)
(0.00272837 -0.000360551 0)
(0.00272136 -0.000377506 0)
(0.00271573 -0.000394763 0)
(0.0031097 -0.000128265 0)
(0.00309149 -0.000138009 0)
(0.00307147 -0.000148739 0)
(0.00305295 -0.000159415 0)
(0.00303368 -0.000170983 0)
(0.00301536 -0.000182564 0)
(0.00299704 -0.000194958 0)
(0.0029794 -0.000207411 0)
(0.00296229 -0.000220598 0)
(0.00294576 -0.000233882 0)
(0.00293015 -0.00024781 0)
(0.00291517 -0.000261873 0)
(0.00290141 -0.000276475 0)
(0.00288838 -0.000291249 0)
(0.00287685 -0.000306442 0)
(0.00286618 -0.000321839 0)
(0.00285728 -0.000337522 0)
(0.00284942 -0.000353431 0)
(0.00284358 -0.000369488 0)
(0.002839 -0.000385765 0)
(0.00319713 -0.000133481 0)
(0.00318054 -0.000143125 0)
(0.00316265 -0.000153605 0)
(0.0031457 -0.000163913 0)
(0.00312832 -0.000175092 0)
(0.0031117 -0.000186292 0)
(0.00309512 -0.0001982 0)
(0.00307919 -0.000210225 0)
(0.0030637 -0.000222852 0)
(0.00304882 -0.000235642 0)
(0.00303473 -0.000248949 0)
(0.00302129 -0.000262441 0)
(0.00300892 -0.000276363 0)
(0.00299727 -0.00029048 0)
(0.00298697 -0.000304932 0)
(0.00297748 -0.000319574 0)
(0.00296961 -0.000334448 0)
(0.00296268 -0.000349487 0)
(0.00295759 -0.000364655 0)
(0.00295364 -0.00037994 0)
(0.00328357 -0.00013629 0)
(0.00326809 -0.000145664 0)
(0.00325211 -0.000155769 0)
(0.0032367 -0.00016593 0)
(0.00322108 -0.000176754 0)
(0.00320602 -0.000187687 0)
(0.00319106 -0.000199219 0)
(0.00317665 -0.000210892 0)
(0.00316267 -0.000223103 0)
(0.00314922 -0.000235471 0)
(0.00313649 -0.000248309 0)
(0.00312433 -0.000261316 0)
(0.00311314 -0.000274715 0)
(0.00310257 -0.000288276 0)
(0.00309322 -0.000302147 0)
(0.00308457 -0.000316156 0)
(0.00307732 -0.000330372 0)
(0.00307096 -0.000344703 0)
(0.00306615 -0.000359136 0)
(0.00306239 -0.000373608 0)
(0.00337046 -0.000138939 0)
(0.00335658 -0.000148153 0)
(0.00334149 -0.000157989 0)
(0.00332752 -0.000167877 0)
(0.00331291 -0.000178388 0)
(0.00329919 -0.00018897 0)
(0.00328528 -0.000200133 0)
(0.0032721 -0.000211397 0)
(0.00325913 -0.000223184 0)
(0.00324677 -0.000235085 0)
(0.003235 -0.000247459 0)
(0.00322376 -0.000259942 0)
(0.0032134 -0.000272832 0)
(0.00320356 -0.000285818 0)
(0.00319485 -0.000299131 0)
(0.00318664 -0.000312518 0)
(0.00317985 -0.000326128 0)
(0.00317368 -0.000339759 0)
(0.00316893 -0.000353525 0)
(0.00316503 -0.000367233 0)
(0.00345594 -0.000137905 0)
(0.003443 -0.000146915 0)
(0.00342914 -0.000156401 0)
(0.00341614 -0.000166111 0)
(0.00340274 -0.000176204 0)
(0.00338997 -0.000186596 0)
(0.0033772 -0.000197296 0)
(0.00336496 -0.000208342 0)
(0.00335299 -0.000219639 0)
(0.00334155 -0.000231283 0)
(0.00333064 -0.000243114 0)
(0.00332017 -0.000255319 0)
(0.00331051 -0.00026764 0)
(0.00330122 -0.000280301 0)
(0.003293 -0.000293042 0)
(0.0032851 -0.000306029 0)
(0.00327823 -0.000319115 0)
(0.00327214 -0.000332233 0)
(0.00326705 -0.000345452 0)
(0.00326272 -0.000358565 0)
(0.00354196 -0.000133806 0)
(0.00352988 -0.000142522 0)
(0.00351677 -0.000151792 0)
(0.00350467 -0.000161142 0)
(0.00349196 -0.000171034 0)
(0.00348012 -0.000181001 0)
(0.00346798 -0.0001915 0)
(0.00345669 -0.00020209 0)
(0.00344523 -0.000213147 0)
(0.00343431 -0.000224462 0)
(0.00342409 -0.000235895 0)
(0.00341417 -0.000247723 0)
(0.0034049 -0.000259627 0)
(0.00339611 -0.000271873 0)
(0.00338794 -0.000284178 0)
(0.00338043 -0.000296719 0)
(0.00337344 -0.000309325 0)
(0.00336715 -0.000322027 0)
(0.00336157 -0.000334759 0)
(0.00335661 -0.000347418 0)
(0.00362638 -0.000124964 0)
(0.00361496 -0.000133385 0)
(0.00360258 -0.000142387 0)
(0.00359112 -0.00015145 0)
(0.00357918 -0.000161078 0)
(0.00356788 -0.000170755 0)
(0.00355666 -0.000180998 0)
(0.00354567 -0.000191277 0)
(0.00353518 -0.000202063 0)
(0.00352479 -0.00021292 0)
(0.00351506 -0.000224228 0)
(0.00350554 -0.000235576 0)
(0.00349668 -0.000247333 0)
(0.0034881 -0.000259109 0)
(0.00348019 -0.000271227 0)
(0.00347262 -0.000283337 0)
(0.00346564 -0.000295691 0)
(0.00345908 -0.000308011 0)
(0.00345303 -0.000320459 0)
(0.00344737 -0.000332779 0)
(0.00371112 -0.000109389 0)
(0.00370023 -0.000117745 0)
(0.00368838 -0.000126374 0)
(0.0036775 -0.000135465 0)
(0.00366601 -0.000144744 0)
(0.00365534 -0.000154481 0)
(0.00364447 -0.000164412 0)
(0.00363409 -0.000174832 0)
(0.00362389 -0.000185316 0)
(0.00361406 -0.000196281 0)
(0.00360462 -0.000207312 0)
(0.00359554 -0.000218733 0)
(0.00358689 -0.000230239 0)
(0.00357863 -0.000242026 0)
(0.00357078 -0.00025391 0)
(0.00356333 -0.000265962 0)
(0.00355621 -0.000278109 0)
(0.00354944 -0.000290313 0)
(0.0035429 -0.000302577 0)
(0.00353658 -0.000314785 0)
(0.00379459 -8.76755e-05 0)
(0.00378421 -9.57662e-05 0)
(0.00377286 -0.000104286 0)
(0.00376251 -0.000113214 0)
(0.00375125 -0.000122497 0)
(0.0037412 -0.000132164 0)
(0.00373151 -0.000142528 0)
(0.00372101 -0.000152677 0)
(0.00371149 -0.000163577 0)
(0.00370186 -0.0001744 0)
(0.00369284 -0.000185796 0)
(0.00368401 -0.00019715 0)
(0.00367564 -0.000208948 0)
(0.00366758 -0.000220701 0)
(0.00365991 -0.000232779 0)
(0.00365257 -0.000244801 0)
(0.00364553 -0.000257033 0)
(0.00363875 -0.0002692 0)
(0.00363212 -0.00028147 0)
(0.00362557 -0.000293673 0)
(8.68997e-05 -0.00222195 0)
(8.15562e-05 -0.00223044 0)
(7.68478e-05 -0.00223698 0)
(7.26474e-05 -0.0022448 0)
(6.86719e-05 -0.00225137 0)
(6.50103e-05 -0.00225904 0)
(6.13625e-05 -0.00226588 0)
(5.8069e-05 -0.00227343 0)
(5.46011e-05 -0.00228048 0)
(5.1421e-05 -0.00228786 0)
(4.79743e-05 -0.002295 0)
(4.47145e-05 -0.00230209 0)
(4.11302e-05 -0.00230914 0)
(3.76282e-05 -0.00231578 0)
(3.37419e-05 -0.00232249 0)
(2.98385e-05 -0.0023284 0)
(2.54712e-05 -0.00233444 0)
(2.09866e-05 -0.00233924 0)
(1.59313e-05 -0.00234415 0)
(1.064e-05 -0.00234732 0)
(0.000266454 -0.00212718 0)
(0.000250142 -0.00213972 0)
(0.000235802 -0.00215056 0)
(0.000224296 -0.00216175 0)
(0.000213683 -0.00217212 0)
(0.000204642 -0.00218268 0)
(0.000194785 -0.0021926 0)
(0.000185849 -0.00220254 0)
(0.000176147 -0.00221224 0)
(0.000167134 -0.00222164 0)
(0.000157331 -0.00223103 0)
(0.00014796 -0.00223988 0)
(0.000137705 -0.00224884 0)
(0.000127627 -0.00225701 0)
(0.000116499 -0.00226537 0)
(0.000105299 -0.00227268 0)
(9.28156e-05 -0.00228017 0)
(7.9998e-05 -0.00228631 0)
(6.55985e-05 -0.00229259 0)
(5.05499e-05 -0.00229714 0)
(0.000459482 -0.00196135 0)
(0.000433778 -0.00198281 0)
(0.000410482 -0.00200337 0)
(0.000390342 -0.00202182 0)
(0.000370857 -0.00203926 0)
(0.000352552 -0.00205418 0)
(0.000334092 -0.00206861 0)
(0.000318357 -0.0020823 0)
(0.000300984 -0.00209553 0)
(0.000285206 -0.002108 0)
(0.000268072 -0.00212036 0)
(0.000251831 -0.00213187 0)
(0.000234226 -0.00214347 0)
(0.000216987 -0.00215408 0)
(0.000198178 -0.00216489 0)
(0.000179287 -0.00217452 0)
(0.000158477 -0.00218437 0)
(0.000137149 -0.00219283 0)
(0.000113451 -0.00220147 0)
(8.87405e-05 -0.00220847 0)
(0.00069169 -0.0017515 0)
(0.00065593 -0.00177896 0)
(0.000620135 -0.00180565 0)
(0.000588337 -0.00183029 0)
(0.000557211 -0.00185432 0)
(0.000528949 -0.00187569 0)
(0.00050196 -0.00189685 0)
(0.00047581 -0.00191481 0)
(0.00044975 -0.00193256 0)
(0.000426048 -0.00194885 0)
(0.00040149 -0.00196507 0)
(0.000378487 -0.00197996 0)
(0.000354003 -0.00199494 0)
(0.000330342 -0.00200861 0)
(0.000304681 -0.00202249 0)
(0.000279148 -0.00203502 0)
(0.000251069 -0.00204779 0)
(0.000222421 -0.00205915 0)
(0.000190585 -0.00207072 0)
(0.000157399 -0.00208077 0)
(0.000911921 -0.00153889 0)
(0.000870638 -0.00156625 0)
(0.000827268 -0.00159344 0)
(0.000788695 -0.00162046 0)
(0.00074863 -0.00164744 0)
(0.000712382 -0.00167287 0)
(0.000674962 -0.00169823 0)
(0.000640737 -0.00172105 0)
(0.000605294 -0.0017438 0)
(0.000572447 -0.00176375 0)
(0.000539508 -0.00178482 0)
(0.000508709 -0.00180335 0)
(0.000476762 -0.00182282 0)
(0.000446041 -0.00183997 0)
(0.000413369 -0.00185787 0)
(0.00038099 -0.00187377 0)
(0.000345881 -0.00189021 0)
(0.000310121 -0.00190497 0)
(0.000270755 -0.00192007 0)
(0.000229695 -0.00193384 0)
(0.00111334 -0.00134304 0)
(0.00107233 -0.00136837 0)
(0.00102595 -0.00139416 0)
(0.000985969 -0.00141955 0)
(0.000941443 -0.00144605 0)
(0.000901684 -0.00147056 0)
(0.000858506 -0.00149665 0)
(0.000818822 -0.00151971 0)
(0.000776848 -0.00154452 0)
(0.000739147 -0.00156677 0)
(0.000699939 -0.00159061 0)
(0.000663573 -0.00161182 0)
(0.000625676 -0.00163418 0)
(0.000589275 -0.00165416 0)
(0.000550998 -0.00167491 0)
(0.000513047 -0.0016937 0)
(0.000472606 -0.00171295 0)
(0.000431439 -0.00173072 0)
(0.00038695 -0.00174874 0)
(0.00034068 -0.00176587 0)
(0.00129884 -0.00116879 0)
(0.00125471 -0.00119329 0)
(0.0012036 -0.00121822 0)
(0.00116039 -0.0012424 0)
(0.00111142 -0.00126799 0)
(0.00106852 -0.00129191 0)
(0.00102139 -0.00131777 0)
(0.000978743 -0.00134151 0)
(0.000933548 -0.00136732 0)
(0.00089155 -0.0013909 0)
(0.000848167 -0.00141609 0)
(0.000806875 -0.00143909 0)
(0.000764444 -0.00146318 0)
(0.000723102 -0.0014853 0)
(0.000680291 -0.00150806 0)
(0.000637627 -0.00152921 0)
(0.000592836 -0.00155069 0)
(0.000547256 -0.00157105 0)
(0.000498719 -0.00159156 0)
(0.000448422 -0.00161161 0)
(0.00149582 -0.000992773 0)
(0.00144815 -0.00101679 0)
(0.00139317 -0.00104286 0)
(0.00134686 -0.00106661 0)
(0.00129526 -0.00109299 0)
(0.00124956 -0.00111654 0)
(0.00120032 -0.00114276 0)
(0.00115486 -0.00116628 0)
(0.00110719 -0.00119212 0)
(0.0010621 -0.00121567 0)
(0.00101563 -0.001241 0)
(0.000970829 -0.0012644 0)
(0.000924919 -0.00128897 0)
(0.000879876 -0.00131199 0)
(0.000833544 -0.00133567 0)
(0.000787275 -0.00135822 0)
(0.000739274 -0.00138106 0)
(0.000690507 -0.00140331 0)
(0.000639471 -0.00142566 0)
(0.000586863 -0.00144812 0)
(0.00167789 -0.000839417 0)
(0.00162501 -0.000863238 0)
(0.00156547 -0.000890427 0)
(0.00151358 -0.000914593 0)
(0.00145791 -0.000941878 0)
(0.0014073 -0.000966328 0)
(0.00135483 -0.000993237 0)
(0.00130549 -0.0010178 0)
(0.00125533 -0.00104416 0)
(0.00120705 -0.00106869 0)
(0.00115843 -0.00109441 0)
(0.0011109 -0.00111877 0)
(0.001063 -0.00114381 0)
(0.00101559 -0.00116788 0)
(0.000967449 -0.00119226 0)
(0.000919194 -0.00121606 0)
(0.000869691 -0.00123997 0)
(0.000819404 -0.00126374 0)
(0.000767317 -0.00128757 0)
(0.000713775 -0.00131182 0)
(0.00187408 -0.000689196 0)
(0.00181784 -0.000711832 0)
(0.00175768 -0.00073837 0)
(0.00170164 -0.000761856 0)
(0.00164451 -0.000788426 0)
(0.00158968 -0.000812752 0)
(0.00153478 -0.000839162 0)
(0.00148156 -0.00086403 0)
(0.00142843 -0.000890175 0)
(0.0013767 -0.000915264 0)
(0.00132501 -0.000941075 0)
(0.00127446 -0.000966163 0)
(0.0012237 -0.000991563 0)
(0.00117374 -0.00101653 0)
(0.00112316 -0.00104154 0)
(0.00107287 -0.00106645 0)
(0.00102153 -0.00109128 0)
(0.000969712 -0.00111645 0)
(0.000916619 -0.00114161 0)
(0.000861826 -0.00116774 0)
)
;

boundaryField
{
    back
    {
        type            empty;
    }
    left
    {
        type            symmetry;
    }
    hole
    {
        type            calculated;
        value           nonuniform List<vector> 
20
(
(0.000222255 -0.000966217 -3.4123e-20)
(0.000658288 -0.00105123 0)
(0.00105975 -0.00121627 -5.85892e-20)
(0.00138482 -0.00139104 -8.88964e-22)
(0.00160754 -0.00146924 -3.83343e-21)
(0.00176285 -0.00141225 2.96172e-21)
(0.0019015 -0.00132 -2.0266e-20)
(0.00205086 -0.00121405 -2.00837e-21)
(0.00218222 -0.00111442 1.71207e-20)
(0.00231895 -0.00100636 8.96783e-21)
(0.00243324 -0.00090575 -6.08196e-24)
(0.00255051 -0.000802974 -7.01098e-22)
(0.00264628 -0.000702628 -7.50907e-21)
(0.00273879 -0.000605006 6.73836e-21)
(0.00281335 -0.000507374 -9.29748e-21)
(0.00287975 -0.000413663 2.10557e-21)
(0.00293066 -0.000319129 -2.21441e-21)
(0.00297065 -0.000228039 -5.69056e-21)
(0.00299645 -0.000135623 4.59726e-21)
(0.00300981 -4.58455e-05 -5.80768e-21)
)
;
    }
    front
    {
        type            empty;
    }
    down
    {
        type            symmetry;
    }
    right
    {
        type            calculated;
        value           nonuniform List<vector> 
30
(
(0.00399088 -7.53439e-07 7.48897e-21)
(0.00398739 -6.73541e-07 -3.11265e-21)
(0.00397993 -2.98537e-06 -7.10337e-22)
(0.00396979 -4.6013e-06 -5.64395e-21)
(0.00395555 -9.23312e-06 7.30868e-21)
(0.00393975 -1.40591e-05 -3.71724e-21)