/*--------------------------------*- C++ -*----------------------------------*\
| =========                 |                                                 |
| \\      /  F ield         | OpenFOAM: The Open Source CFD Toolbox           |
|  \\    /   O peration     | Version:  v2012                                 |
|   \\  /    A nd           | Website:  www.openfoam.com                      |
|    \\/     M anipulation  |                                                 |
\*---------------------------------------------------------------------------*/
FoamFile
{
    version     2.0;
    format      ascii;
    class       volVectorField;
    location    "13";
    object      D_0;
}
// * * * * * * * * * * * * * * * * * * * * * * * * * * * * * * * * * * * * * //

dimensions      [0 1 0 0 0 0 0];


internalField   nonuniform List<vector> 
1000
(
(0.000227406 -0.0011307 0)
(0.000228835 -0.00137728 0)
(0.000225522 -0.00158718 0)
(0.000213014 -0.00178112 0)
(0.000195806 -0.00192788 0)
(0.000174134 -0.00205197 0)
(0.000151824 -0.0021337 0)
(0.000130683 -0.00219681 0)
(0.000111943 -0.00223248 0)
(9.70137e-05 -0.00225787 0)
(0.000672741 -0.00121109 0)
(0.000674351 -0.00144772 0)
(0.000658664 -0.00163226 0)
(0.000618623 -0.00179585 0)
(0.000565476 -0.00190877 0)
(0.000503865 -0.00200285 0)
(0.000440755 -0.00206042 0)
(0.000383153 -0.00210713 0)
(0.000332384 -0.00213398 0)
(0.000294171 -0.00215769 0)
(0.0010759 -0.00135813 0)
(0.00106124 -0.00155592 0)
(0.00101739 -0.00167581 0)
(0.000946411 -0.00177505 0)
(0.000862857 -0.00182884 0)
(0.000774077 -0.00187664 0)
(0.000686602 -0.00190331 0)
(0.000610771 -0.00193292 0)
(0.000546178 -0.001955 0)
(0.000500796 -0.00198222 0)
(0.00138972 -0.00149413 0)
(0.00134317 -0.00161183 0)
(0.0012621 -0.00164063 0)
(0.00117627 -0.00167468 0)
(0.00108283 -0.00167561 0)
(0.000997732 -0.00169261 0)
(0.000915275 -0.00169993 0)
(0.00084778 -0.00172191 0)
(0.000789141 -0.00174193 0)
(0.000745116 -0.00176841 0)
(0.00159653 -0.00152509 0)
(0.00151235 -0.00155308 0)
(0.0014164 -0.00152901 0)
(0.00133565 -0.00153473 0)
(0.00125155 -0.00151829 0)
(0.00118551 -0.00152721 0)
(0.00111768 -0.00152337 0)
(0.00106658 -0.00153849 0)
(0.00101435 -0.00154572 0)
(0.000973513 -0.0015604 0)
(0.00174693 -0.00143776 0)
(0.00165797 -0.00142244 0)
(0.00156775 -0.00140062 0)
(0.00149917 -0.00139456 0)
(0.00142343 -0.00137933 0)
(0.00136701 -0.00137771 0)
(0.00130654 -0.00136905 0)
(0.0012628 -0.00137051 0)
(0.001214 -0.00136593 0)
(0.00117867 -0.00136779 0)
(0.00188739 -0.00133445 0)
(0.00180626 -0.00130988 0)
(0.00172291 -0.00128142 0)
(0.00165783 -0.00126416 0)
(0.00158929 -0.00124167 0)
(0.00153741 -0.00123047 0)
(0.00148258 -0.00121508 0)
(0.00144212 -0.00120758 0)
(0.00139901 -0.00119746 0)
(0.00136702 -0.00119124 0)
(0.00204214 -0.00121964 0)
(0.0019611 -0.0011827 0)
(0.00188468 -0.00114602 0)
(0.00182535 -0.00112032 0)
(0.00176445 -0.00109271 0)
(0.00171914 -0.00107447 0)
(0.00167058 -0.00105424 0)
(0.0016354 -0.00104021 0)
(0.00159663 -0.00102523 0)
(0.00156868 -0.00101275 0)
(0.00218125 -0.00111175 0)
(0.00210762 -0.00106613 0)
(0.00203736 -0.00102308 0)
(0.00198346 -0.000990588 0)
(0.00192878 -0.000958243 0)
(0.00188789 -0.000934044 0)
(0.00184522 -0.000909885 0)
(0.00181367 -0.000890581 0)
(0.00178032 -0.000872653 0)
(0.00175546 -0.00085577 0)
(0.00232676 -0.000996622 0)
(0.00226014 -0.000943189 0)
(0.00219797 -0.000893868 0)
(0.00215009 -0.00085628 0)
(0.00210244 -0.000819487 0)
(0.00206696 -0.000791782 0)
(0.00203021 -0.000763902 0)
(0.0020033 -0.000742201 0)
(0.00197531 -0.000721018 0)
(0.00195419 -0.000702764 0)
(0.00245121 -0.000890806 0)
(0.00239491 -0.000832466 0)
(0.00234184 -0.000779173 0)
(0.0023003 -0.000738523 0)
(0.00226056 -0.000698622 0)
(0.00222853 -0.000669286 0)
(0.00219968 -0.000638606 0)
(0.00217373 -0.000616771 0)
(0.00215457 -0.000592781 0)
(0.00213233 -0.000576183 0)
(0.00257823 -0.000783519 0)
(0.00253183 -0.000721662 0)
(0.00248838 -0.000666401 0)
(0.00245363 -0.00062332 0)
(0.00242146 -0.000582835 0)
(0.00239427 -0.000551436 0)
(0.0023714 -0.000521136 0)
(0.00234892 -0.000496946 0)
(0.00233426 -0.000473999 0)
(0.00231442 -0.000454034 0)
(0.00268453 -0.000681144 0)
(0.00265012 -0.000619389 0)
(0.00261696 -0.000564322 0)
(0.00259008 -0.000521284 0)
(0.00256588 -0.00048082 0)
(0.00254404 -0.000449469 0)
(0.00252785 -0.000419141 0)
(0.00250912 -0.000394933 0)
(0.00250027 -0.000372125 0)
(0.00248308 -0.00035181 0)
(0.00278658 -0.000582307 0)
(0.00276287 -0.00052199 0)
(0.00273945 -0.000469238 0)
(0.0027197 -0.000426984 0)
(0.00270269 -0.000388832 0)
(0.00268578 -0.000357851 0)
(0.00267499 -0.000329825 0)
(0.00265993 -0.000305793 0)
(0.0026551 -0.000285248 0)
(0.00264111 -0.000265333 0)
(0.00287038 -0.000485582 0)
(0.00285797 -0.000430241 0)
(0.00284389 -0.000382012 0)
(0.0028319 -0.000343074 0)
(0.00282147 -0.000308356 0)
(0.00281022 -0.000279622 0)
(0.00280404 -0.000254425 0)
(0.00279345 -0.000231903 0)
(0.00279166 -0.000213881 0)
(0.00278155 -0.000194963 0)
(0.00294468 -0.000393636 0)
(0.00294181 -0.000344557 0)
(0.00293593 -0.000302439 0)
(0.00293058 -0.000267714 0)
(0.00292586 -0.000237772 0)
(0.00291956 -0.000212055 0)
(0.00291727 -0.000190723 0)
(0.00291078 -0.000170601 0)
(0.00291141 -0.000155753 0)
(0.00290517 -0.000139056 0)
(0.00300242 -0.000302411 0)
(0.00300824 -0.000262362 0)
(0.00300933 -0.000228084 0)
(0.00301018 -0.000199632 0)
(0.00301009 -0.00017539 0)
(0.00300856 -0.000154177 0)
(0.00300917 -0.000137088 0)
(0.00300669 -0.000120327 0)
(0.00300887 -0.000108659 0)
(0.00300634 -9.46046e-05 0)
(0.0030476 -0.000215275 0)
(0.00305997 -0.000185211 0)
(0.00306647 -0.000159779 0)
(0.00307206 -0.000138349 0)
(0.00307558 -0.000120525 0)
(0.00307775 -0.000104537 0)
(0.00308064 -9.21489e-05 0)
(0.00308135 -7.9564e-05 0)
(0.00308475 -7.12895e-05 0)
(0.00308525 -6.08315e-05 0)
(0.00307701 -0.000127768 0)
(0.0030941 -0.000109435 0)
(0.00310432 -9.38849e-05 0)
(0.00311334 -8.07817e-05 0)
(0.00311926 -6.98968e-05 0)
(0.00312414 -6.00585e-05 0)
(0.00312845 -5.25131e-05 0)
(0.00313151 -4.46902e-05 0)
(0.00313557 -3.96799e-05 0)
(0.00313829 -3.30983e-05 0)
(0.00309219 -4.31085e-05 0)
(0.0031116 -3.6768e-05 0)
(0.0031237 -3.14809e-05 0)
(0.00313444 -2.6951e-05 0)
(0.00314159 -2.32843e-05 0)
(0.00314784 -1.99103e-05 0)
(0.00315289 -1.74065e-05 0)
(0.00315715 -1.47683e-05 0)
(0.00316157 -1.31426e-05 0)
(0.00316543 -1.09757e-05 0)
(0.00317356 -8.82965e-06 0)
(0.00314859 -2.61463e-05 0)
(0.00309993 -4.85687e-05 0)
(0.00302694 -7.56234e-05 0)
(0.00293334 -0.000112027 0)
(0.00281765 -0.000158094 0)
(0.00268557 -0.000217175 0)
(0.00253466 -0.00029101 0)
(0.00237062 -0.000382085 0)
(0.00219444 -0.000489289 0)
(0.00318661 -6.15075e-06 0)
(0.00316343 -1.69877e-05 0)
(0.00311843 -3.37743e-05 0)
(0.00305074 -5.32762e-05 0)
(0.00296451 -8.29552e-05 0)
(0.00285782 -0.000118265 0)
(0.00273765 -0.00016768 0)
(0.00260108 -0.000222587 0)
(0.00245625 -0.000297734 0)
(0.00230179 -0.000372792 0)
(0.00320619 -4.39988e-06 0)
(0.00318656 -1.07001e-05 0)
(0.00314849 -2.28363e-05 0)
(0.00309073 -3.53794e-05 0)
(0.00301669 -5.77767e-05 0)
(0.00292385 -8.26304e-05 0)
(0.00281706 -0.000122875 0)
(0.00269394 -0.000164747 0)
(0.00255798 -0.000230102 0)
(0.00241349 -0.000289504 0)
(0.00322511 -4.18336e-06 0)
(0.00320673 -8.62069e-06 0)
(0.00317109 -1.97747e-05 0)
(0.00311746 -2.8723e-05 0)
(0.00304903 -4.80385e-05 0)
(0.00296471 -6.50545e-05 0)
(0.00286835 -9.77912e-05 0)
(0.00276018 -0.000125634 0)
(0.0026404 -0.000177767 0)
(0.00251451 -0.000220368 0)
(0.0032552 -3.4238e-06 0)
(0.00323951 -5.66098e-06 0)
(0.00320869 -1.49592e-05 0)
(0.00316239 -2.0948e-05 0)
(0.0031019 -3.76552e-05 0)
(0.00302733 -5.07331e-05 0)
(0.00293924 -7.94787e-05 0)
(0.00284069 -0.00010194 0)
(0.0027288 -0.000145675 0)
(0.00261253 -0.000179516 0)
(0.00328137 -3.85033e-06 0)
(0.00326678 -6.06299e-06 0)
(0.00323792 -1.55091e-05 0)
(0.00319545 -1.99999e-05 0)
(0.00313983 -3.4662e-05 0)
(0.00307309 -4.36267e-05 0)
(0.00299397 -6.69898e-05 0)
(0.00290747 -8.30626e-05 0)
(0.00280806 -0.000118199 0)
(0.00270522 -0.000144606 0)
(0.00332106 -3.76538e-06 0)
(0.00330832 -5.80595e-06 0)
(0.00328261 -1.50004e-05 0)
(0.0032451 -1.93005e-05 0)
(0.00319463 -3.32651e-05 0)
(0.00313446 -4.17673e-05 0)
(0.00306139 -6.28043e-05 0)
(0.00298216 -7.71182e-05 0)
(0.00289031 -0.0001064 0)
(0.00279618 -0.00012847 0)
(0.00335555 -4.1852e-06 0)
(0.00334384 -6.98873e-06 0)
(0.00332002 -1.64583e-05 0)
(0.00328595 -2.06818e-05 0)
(0.00323989 -3.34187e-05 0)
(0.00318613 -4.06902e-05 0)
(0.00312042 -5.86721e-05 0)
(0.00305016 -7.09352e-05 0)
(0.00296781 -9.55011e-05 0)
(0.00288392 -0.000114537 0)
(0.0034032 -4.45899e-06 0)
(0.00339272 -8.30433e-06 0)
(0.00337103 -1.82588e-05 0)
(0.00334026 -2.36064e-05 0)
(0.00329793 -3.64096e-05 0)
(0.0032488 -4.45843e-05 0)
(0.00318813 -6.13993e-05 0)
(0.00312363 -7.3595e-05 0)
(0.00304805 -9.50393e-05 0)
(0.00297147 -0.000112426 0)
(0.00344617 -4.7686e-06 0)
(0.00343661 -9.65891e-06 0)
(0.00341671 -1.99091e-05 0)
(0.00338882 -2.5936e-05 0)
(0.00335037 -3.82637e-05 0)
(0.00330622 -4.66784e-05 0)
(0.00325149 -6.22055e-05 0)
(0.00319374 -7.42396e-05 0)
(0.00312558 -9.36425e-05 0)
(0.00305709 -0.000110136 0)
(0.00350042 -5.15312e-06 0)
(0.00349169 -1.14544e-05 0)
(0.00347338 -2.24184e-05 0)
(0.00344781 -2.9868e-05 0)
(0.00341232 -4.26213e-05 0)
(0.00337171 -5.22369e-05 0)
(0.00332127 -6.7511e-05 0)
(0.00326825 -8.01495e-05 0)
(0.00320587 -9.83611e-05 0)
(0.00314341 -0.000114662 0)
(0.0035512 -5.35713e-06 0)
(0.00354325 -1.26139e-05 0)
(0.00352653 -2.3851e-05 0)
(0.00350332 -3.21405e-05 0)
(0.00347108 -4.48721e-05 0)
(0.00343434 -5.52038e-05 0)
(0.00338872 -7.01746e-05 0)
(0.00334088 -8.337e-05 0)
(0.00328451 -0.000101012 0)
(0.00322852 -0.000117486 0)
(0.00361089 -5.65757e-06 0)
(0.00360355 -1.40924e-05 0)
(0.00358811 -2.59051e-05 0)
(0.00356669 -3.53462e-05 0)
(0.00353694 -4.8536e-05 0)
(0.00350307 -5.9848e-05 0)
(0.00346109 -7.50425e-05 0)
(0.00341722 -8.88678e-05 0)
(0.00336565 -0.000106437 0)
(0.0033147 -0.000123166 0)
(0.00366825 -5.7119e-06 0)
(0.00366157 -1.46854e-05 0)
(0.00364748 -2.65863e-05 0)
(0.00362797 -3.6555e-05 0)
(0.0036009 -4.98111e-05 0)
(0.00357012 -6.16478e-05 0)
(0.00353204 -7.69255e-05 0)
(0.00349223 -9.12503e-05 0)
(0.00344573 -0.000108926 0)
(0.00339941 -0.00012606 0)
(0.0037322 -5.74693e-06 0)
(0.00372602 -1.52628e-05 0)
(0.00371301 -2.72362e-05 0)
(0.003695 -3.7765e-05 0)
(0.00367003 -5.10828e-05 0)
(0.00364171 -6.3475e-05 0)
(0.00360671 -7.87722e-05 0)
(0.00357032 -9.36187e-05 0)
(0.00352777 -0.000111254 0)
(0.00348596 -0.000128859 0)
(0.00379454 -5.52938e-06 0)
(0.00378891 -1.48669e-05 0)
(0.00377704 -2.64407e-05 0)
(0.00376062 -3.68509e-05 0)
(0.00373787 -4.98773e-05 0)
(0.00371208 -6.22621e-05 0)
(0.00368028 -7.74283e-05 0)
(0.00364719 -9.23996e-05 0)
(0.00360876 -0.000110057 0)
(0.00357081 -0.000127915 0)
(0.00386132 -5.11346e-06 0)
(0.00385614 -1.39436e-05 0)
(0.00384521 -2.472e-05 0)
(0.00383013 -3.4707e-05 0)
(0.00380921 -4.7033e-05 0)
(0.00378558 -5.9139e-05 0)
(0.00375644 -7.37575e-05 0)
(0.00372627 -8.8616e-05 0)
(0.00369122 -0.000105944 0)
(0.00365693 -0.000123806 0)
(0.00392656 -4.43346e-06 0)
(0.00392186 -1.19771e-05 0)
(0.00391193 -2.14605e-05 0)
(0.00389826 -3.02792e-05 0)
(0.00387926 -4.15061e-05 0)
(0.00385784 -5.26635e-05 0)
(0.0038314 -6.6473e-05 0)
(0.00380411 -8.06669e-05 0)
(0.00377239 -9.75092e-05 0)
(0.00374151 -0.000115016 0)
(0.00399418 -3.32487e-06 0)
(0.00398992 -8.74145e-06 0)
(0.00398088 -1.60745e-05 0)
(0.00396848 -2.293e-05 0)
(0.0039512 -3.22061e-05 0)
(0.0039318 -4.17346e-05 0)
(0.00390778 -5.39161e-05 0)
(0.00388314 -6.69889e-05 0)
(0.00385443 -8.26105e-05 0)
(0.00382668 -9.96539e-05 0)
(0.00405948 -1.89206e-06 0)
(0.00405568 -4.30008e-06 0)
(0.00404761 -8.85517e-06 0)
(0.00403658 -1.28807e-05 0)
(0.00402116 -1.96452e-05 0)
(0.00400391 -2.67078e-05 0)
(0.0039825 -3.68226e-05 0)
(0.00396061 -4.79722e-05 0)
(0.0039351 -6.21253e-05 0)
(0.00391053 -7.79156e-05 0)
(0.00206363 -0.00056866 0)
(0.0020025 -0.000591524 0)
(0.00194107 -0.000618521 0)
(0.00188231 -0.000642787 0)
(0.00182377 -0.000669329 0)
(0.00176738 -0.000694506 0)
(0.00171134 -0.000720853 0)
(0.00165707 -0.000746378 0)
(0.00160325 -0.000772618 0)
(0.00155075 -0.000798118 0)
(0.00149873 -0.00082402 0)
(0.00144773 -0.000849521 0)
(0.00139702 -0.000874994 0)
(0.00134708 -0.000900583 0)
(0.00129715 -0.000925697 0)
(0.00124767 -0.000951621 0)
(0.001198 -0.000976673 0)
(0.00114821 -0.00100342 0)
(0.00109837 -0.00102902 0)
(0.00104726 -0.00105736 0)
(0.00219343 -0.000437982 0)
(0.00213811 -0.000459526 0)
(0.00208384 -0.000484982 0)
(0.00202838 -0.000508621 0)
(0.00197687 -0.000532907 0)
(0.00192404 -0.000556969 0)
(0.00187277 -0.00058131 0)
(0.00182252 -0.000605606 0)
(0.00177165 -0.000629922 0)
(0.00172253 -0.000654452 0)
(0.00167346 -0.000678631 0)
(0.00162559 -0.000703414 0)
(0.00157801 -0.000727496 0)
(0.00153134 -0.00075268 0)
(0.00148503 -0.000776786 0)
(0.00143943 -0.000802668 0)
(0.0013942 -0.000827076 0)
(0.00134963 -0.00085411 0)
(0.00130539 -0.000879349 0)
(0.00126205 -0.000908136 0)
(0.00230981 -0.000345901 0)
(0.00225642 -0.000364443 0)
(0.00220489 -0.000388544 0)
(0.0021538 -0.000408004 0)
(0.00210333 -0.000432187 0)
(0.00205416 -0.000452383 0)
(0.00200503 -0.00047636 0)
(0.00195777 -0.000497433 0)
(0.00191103 -0.0005213 0)
(0.00186481 -0.000543078 0)
(0.00181973 -0.000566731 0)
(0.00177538 -0.000589356 0)
(0.00173204 -0.000613018 0)
(0.00168953 -0.000636453 0)
(0.001648 -0.000660353 0)
(0.00160739 -0.000684736 0)
(0.00156777 -0.000709175 0)
(0.00152936 -0.00073479 0)
(0.00149176 -0.000760168 0)
(0.00145622 -0.000787429 0)
(0.00242295 -0.000267043 0)
(0.00237517 -0.000283336 0)
(0.00233002 -0.000305294 0)
(0.00228303 -0.000323009 0)
(0.00223873 -0.000345184 0)
(0.00219279 -0.000364101 0)
(0.00214965 -0.000386426 0)
(0.00210465 -0.000406388 0)
(0.00206328 -0.000428836 0)
(0.00202056 -0.000449667 0)
(0.00198006 -0.000472347 0)
(0.00193942 -0.000494025 0)
(0.00190039 -0.000517013 0)
(0.00186186 -0.000539581 0)
(0.00182474 -0.000563034 0)
(0.00178849 -0.000586603 0)
(0.00175369 -0.000610745 0)
(0.00172008 -0.000635501 0)
(0.00168801 -0.000660589 0)
(0.00165757 -0.000686794 0)
(0.00252812 -0.000217476 0)
(0.00248406 -0.000232083 0)
(0.00244199 -0.00025155 0)
(0.00239894 -0.000267443 0)
(0.0023574 -0.000287396 0)
(0.00231564 -0.000304451 0)
(0.00227513 -0.000324837 0)
(0.00223489 -0.000342952 0)
(0.00219588 -0.00036385 0)
(0.0021573 -0.000382866 0)
(0.00212009 -0.000404171 0)
(0.0020835 -0.000424199 0)
(0.00204837 -0.000445948 0)
(0.00201408 -0.000467057 0)
(0.00198137 -0.000489367 0)
(0.00194973 -0.000511643 0)
(0.00191981 -0.000534686 0)
(0.00189121 -0.000558257 0)
(0.00186456 -0.000582234 0)
(0.00183945 -0.000607275 0)
(0.00262958 -0.000176045 0)
(0.00259072 -0.000189092 0)
(0.00255344 -0.000206694 0)
(0.00251495 -0.000221147 0)
(0.0024782 -0.000239465 0)
(0.0024405 -0.000255254 0)
(0.00240469 -0.000274181 0)
(0.0023682 -0.000291218 0)
(0.00233369 -0.000310705 0)
(0.00229888 -0.000328895 0)
(0.00226598 -0.000348957 0)
(0.00223322 -0.000368247 0)
(0.00220232 -0.000388923 0)
(0.00217198 -0.000409302 0)
(0.00214357 -0.00043066 0)
(0.00211606 -0.000452161 0)
(0.00209064 -0.000474294 0)
(0.00206647 -0.000496992 0)
(0.00204463 -0.000520022 0)
(0.00202437 -0.000544033 0)
(0.00272694 -0.000154399 0)
(0.00269189 -0.000166486 0)
(0.0026577 -0.000182174 0)
(0.00262294 -0.000195544 0)
(0.00258927 -0.000212066 0)
(0.0025553 -0.000226672 0)
(0.00252256 -0.000243963 0)
(0.00248982 -0.000259749 0)
(0.00245843 -0.000277775 0)
(0.00242733 -0.000294691 0)
(0.00239773 -0.000313425 0)
(0.00236868 -0.000331455 0)
(0.00234129 -0.000350894 0)
(0.00231474 -0.00037004 0)
(0.00229003 -0.000390209 0)
(0.00226643 -0.000410487 0)
(0.00224494 -0.000431432 0)
(0.00222482 -0.000452869 0)
(0.00220714 -0.000474662 0)
(0.00219109 -0.000497278 0)
(0.00282157 -0.000136603 0)
(0.00279091 -0.000147924 0)
(0.00276044 -0.000162202 0)
(0.0027298 -0.000174808 0)
(0.0026999 -0.000190018 0)
(0.0026698 -0.000203881 0)
(0.00264081 -0.00021995 0)
(0.00261175 -0.000235026 0)
(0.00258408 -0.000251901 0)
(0.00255653 -0.000268139 0)
(0.00253058 -0.00028579 0)
(0.00250501 -0.000303143 0)
(0.00248124 -0.000321555 0)
(0.00245812 -0.000339983 0)
(0.00243702 -0.000359154 0)
(0.00241688 -0.000378621 0)
(0.00239896 -0.000398562 0)
(0.00238241 -0.000419034 0)
(0.00236821 -0.000439765 0)
(0.00235571 -0.000461234 0)
(0.00291466 -0.000131555 0)
(0.00288722 -0.00014238 0)
(0.00285956 -0.00015547 0)
(0.0028321 -0.000167455 0)
(0.00280503 -0.000181498 0)
(0.00277808 -0.000194621 0)
(0.00275194 -0.000209568 0)
(0.00272599 -0.0002238 0)
(0.00270118 -0.000239609 0)
(0.00267672 -0.000254913 0)
(0.00265363 -0.000271547 0)
(0.00263114 -0.000287884 0)
(0.00261022 -0.000305309 0)
(0.00259018 -0.000322636 0)
(0.0025719 -0.000340817 0)
(0.00255481 -0.000359096 0)
(0.00253968 -0.000377983 0)
(0.00252611 -0.000397178 0)
(0.00251492 -0.000416703 0)
(0.00250523 -0.000436778 0)
(0.00300578 -0.000127419 0)
(0.00298183 -0.000137885 0)
(0.00295703 -0.000150107 0)
(0.00293295 -0.000161689 0)
(0.00290876 -0.000174863 0)
(0.00288507 -0.000187541 0)
(0.00286182 -0.000201628 0)
(0.00283899 -0.000215367 0)
(0.00281703 -0.000230325 0)
(0.00279555 -0.000245081 0)
(0.00277527 -0.000260866 0)
(0.0027556 -0.000276589 0)
(0.00273744 -0.000293153 0)
(0.00272005 -0.000309786 0)
(0.00270445 -0.000327071 0)
(0.00268982 -0.000344556 0)
(0.00267731 -0.000362492 0)
(0.0026659 -0.000380761 0)
(0.00265707 -0.000399264 0)
(0.00264962 -0.000418209 0)
(0.00309683 -0.000130628 0)
(0.00307534 -0.000140871 0)
(0.00305292 -0.000152439 0)
(0.0030313 -0.000163649 0)
(0.0030095 -0.000176131 0)
(0.00298824 -0.000188327 0)
(0.00296735 -0.00020168 0)
(0.00294693 -0.00021485 0)
(0.00292728 -0.000229033 0)
(0.00290817 -0.00024314 0)
(0.00289013 -0.000258106 0)
(0.00287276 -0.000273103 0)
(0.00285675 -0.000288793 0)
(0.00284157 -0.000304617 0)
(0.00282801 -0.000320964 0)
(0.00281548 -0.000337535 0)
(0.00280485 -0.00035446 0)
(0.00279544 -0.000371677 0)
(0.00278824 -0.000389092 0)
(0.00278247 -0.000406821 0)
(0.00318632 -0.000132808 0)
(0.00316764 -0.000142862 0)
(0.00314715 -0.000153901 0)
(0.00312817 -0.000164907 0)
(0.00310845 -0.000176805 0)
(0.00308968 -0.000188735 0)
(0.00307092 -0.000201478 0)
(0.00305285 -0.000214298 0)
(0.00303532 -0.000227853 0)
(0.0030184 -0.000241522 0)
(0.0030024 -0.000255834 0)
(0.00298706 -0.000270298 0)
(0.00297296 -0.0002853 0)
(0.00295961 -0.00030049 0)
(0.00294779 -0.000316097 0)
(0.00293687 -0.000331922 0)
(0.00292775 -0.000348032 0)
(0.00291969 -0.000364379 0)
(0.00291369 -0.000380873 0)
(0.00290899 -0.000397595 0)
(0.00327629 -0.000138056 0)
(0.00325928 -0.000148002 0)
(0.00324097 -0.000158785 0)
(0.0032236 -0.000169411 0)
(0.00320582 -0.000180911 0)
(0.00318879 -0.00019245 0)
(0.00317181 -0.000204697 0)
(0.0031555 -0.000217077 0)
(0.00313963 -0.000230062 0)
(0.0031244 -0.000243223 0)
(0.00310997 -0.000256904 0)
(0.0030962 -0.000270782 0)
(0.00308353 -0.000285093 0)
(0.0030716 -0.00029961 0)
(0.00306104 -0.000314463 0)
(0.00305132 -0.000329517 0)
(0.00304325 -0.000344803 0)
(0.00303615 -0.000360261 0)
(0.00303092 -0.000375849 0)
(0.00302687 -0.000391558 0)
(0.00336521 -0.000140968 0)
(0.00334934 -0.000150636 0)
(0.00333298 -0.000161035 0)
(0.00331718 -0.000171507 0)
(0.00330119 -0.000182643 0)
(0.00328575 -0.000193904 0)
(0.00327044 -0.000205764 0)
(0.00325567 -0.000217781 0)
(0.00324134 -0.000230338 0)
(0.00322757 -0.000243064 0)
(0.00321453 -0.000256263 0)
(0.00320207 -0.000269641 0)
(0.0031906 -0.000283415 0)
(0.00317978 -0.00029736 0)
(0.00317018 -0.000311616 0)
(0.00316133 -0.000326018 0)
(0.00315389 -0.000340629 0)
(0.00314737 -0.00035536 0)
(0.00314244 -0.000370193 0)
(0.00313858 -0.000385068 0)
(0.00345461 -0.00014361 0)
(0.00344037 -0.000153111 0)
(0.00342493 -0.000163236 0)
(0.00341061 -0.000173426 0)
(0.00339566 -0.000184242 0)
(0.00338159 -0.000195142 0)
(0.00336736 -0.000206627 0)
(0.00335385 -0.000218223 0)
(0.00334057 -0.000230348 0)
(0.00332791 -0.000242596 0)
(0.00331585 -0.000255321 0)
(0.00330434 -0.000268164 0)
(0.00329372 -0.000281418 0)
(0.00328364 -0.000294775 0)
(0.00327471 -0.000308463 0)
(0.0032663 -0.00032223 0)
(0.00325934 -0.000336222 0)
(0.00325301 -0.000350238 0)
(0.00324814 -0.000364391 0)
(0.00324414 -0.000378485 0)
(0.00354255 -0.000142574 0)
(0.00352927 -0.000151863 0)
(0.00351509 -0.000161631 0)
(0.00350176 -0.000171635 0)
(0.00348804 -0.000182025 0)
(0.00347495 -0.000192726 0)
(0.00346187 -0.000203737 0)
(0.00344932 -0.000215107 0)
(0.00343707 -0.00022673 0)
(0.00342534 -0.000238711 0)
(0.00341417 -0.000250881 0)
(0.00340343 -0.000263435 0)
(0.00339353 -0.000276107 0)
(0.00338402 -0.000289128 0)
(0.00337559 -0.000302229 0)
(0.00336749 -0.000315585 0)
(0.00336045 -0.000329042 0)
(0.00335421 -0.000342529 0)
(0.00334899 -0.00035612 0)
(0.00334455 -0.000369604 0)
(0.00363104 -0.000138326 0)
(0.00361865 -0.000147314 0)
(0.00360524 -0.000156859 0)
(0.00359282 -0.000166495 0)
(0.00357983 -0.000176677 0)
(0.00356768 -0.000186946 0)
(0.00355526 -0.00019775 0)
(0.00354368 -0.000208655 0)
(0.00353195 -0.000220032 0)
(0.00352076 -0.000231675 0)
(0.00351029 -0.00024344 0)
(0.00350012 -0.000255608 0)
(0.00349062 -0.000267855 0)
(0.00348162 -0.000280451 0)
(0.00347324 -0.000293109 0)
(0.00346554 -0.000306008 0)
(0.00345838 -0.000318972 0)
(0.00345193 -0.000332037 0)
(0.00344621 -0.00034513 0)
(0.00344113 -0.00035815 0)
(0.0037179 -0.00012928 0)
(0.00370618 -0.000137966 0)
(0.00369352 -0.000147234 0)
(0.00368176 -0.000156577 0)
(0.00366954 -0.000166486 0)
(0.00365796 -0.000176457 0)
(0.00364646 -0.000186997 0)
(0.0036352 -0.000197584 0)
(0.00362445 -0.000208681 0)
(0.00361381 -0.000219857 0)
(0.00360384 -0.000231489 0)
(0.00359408 -0.000243168 0)
(0.00358499 -0.000255261 0)
(0.00357621 -0.000267377 0)
(0.00356809 -0.00027984 0)
(0.00356034 -0.000292298 0)
(0.00355319 -0.000305003 0)
(0.00354646 -0.000317675 0)
(0.00354026 -0.000330477 0)
(0.00353446 -0.000343149 0)
(0.00380508 -0.000113301 0)
(0.00379391 -0.000121916 0)
(0.00378178 -0.000130806 0)
(0.00377062 -0.000140173 0)
(0.00375887 -0.00014973 0)
(0.00374792 -0.000159758 0)
(0.00373679 -0.000169983 0)
(0.00372616 -0.000180709 0)
(0.0037157 -0.000191501 0)
(0.00370564 -0.000202784 0)
(0.00369596 -0.000214137 0)
(0.00368666 -0.000225887 0)
(0.00367779 -0.000237727 0)
(0.00366933 -0.000249852 0)
(0.00366128 -0.000262078 0)
(0.00365365 -0.000274476 0)
(0.00364635 -0.00028697 0)
(0.00363941 -0.000299523 0)
(0.0036327 -0.000312139 0)
(0.00362622 -0.000324695 0)
(0.00389097 -9.10591e-05 0)
(0.00388031 -9.94035e-05 0)
(0.0038687 -0.00010818 0)
(0.00385808 -0.000117381 0)
(0.00384655 -0.00012694 0)
(0.00383626 -0.000136896 0)
(0.00382633 -0.000147563 0)
(0.00381557 -0.000158012 0)
(0.00380581 -0.000169227 0)
(0.00379595 -0.000180367 0)
(0.0037867 -0.000192091 0)
(0.00377765 -0.000203775 0)
(0.00376908 -0.000215909 0)
(0.00376082 -0.000228002 0)
(0.00375296 -0.000240423 0)
(0.00374544 -0.000252791 0)
(0.00373821 -0.000265371 0)
(0.00373127 -0.000277887 0)
(0.00372448 -0.000290506 0)
(0.00371776 -0.000303058 0)
(8.8668e-05 -0.00226831 0)
(8.32637e-05 -0.00227702 0)
(7.85085e-05 -0.00228379 0)
(7.42525e-05 -0.00229183 0)
(7.02325e-05 -0.00229862 0)
(6.65184e-05 -0.00230649 0)
(6.28274e-05 -0.00231356 0)
(5.94824e-05 -0.00232132 0)
(5.59717e-05 -0.00232859 0)
(5.27393e-05 -0.00233617 0)
(4.9249e-05 -0.00234352 0)
(4.59352e-05 -0.00235081 0)
(4.23047e-05 -0.00235806 0)
(3.87461e-05 -0.00236489 0)
(3.48092e-05 -0.0023718 0)
(3.08457e-05 -0.00237789 0)
(2.64214e-05 -0.0023841 0)
(2.18722e-05 -0.00238907 0)
(1.67516e-05 -0.00239413 0)
(1.13899e-05 -0.00239744 0)
(0.000271574 -0.00217255 0)
(0.000255079 -0.00218533 0)
(0.000240592 -0.00219643 0)
(0.000228917 -0.00220786 0)
(0.000218163 -0.00221848 0)
(0.00020896 -0.00222927 0)
(0.000198968 -0.00223943 0)
(0.000189872 -0.0022496 0)
(0.000180034 -0.00225953 0)
(0.000170859 -0.00226916 0)
(0.000160916 -0.00227878 0)
(0.000151379 -0.00228785 0)
(0.000140974 -0.00229702 0)
(0.000130722 -0.00230541 0)
(0.000119431 -0.00231397 0)
(0.000108046 -0.00232148 0)
(9.53817e-05 -0.00232917 0)
(8.23639e-05 -0.00233549 0)
(6.77597e-05 -0.00234194 0)
(5.24927e-05 -0.00234665 0)
(0.000468326 -0.00200475 0)
(0.000442312 -0.00202651 0)
(0.000418767 -0.00204736 0)
(0.000398344 -0.0020661 0)
(0.000378622 -0.00208382 0)
(0.00036005 -0.00209903 0)
(0.000341362 -0.00211374 0)
(0.000325364 -0.0021277 0)
(0.000307766 -0.00214119 0)
(0.000291724 -0.00215394 0)
(0.000274358 -0.00216656 0)
(0.000257847 -0.00217833 0)
(0.000239997 -0.00219018 0)
(0.000222475 -0.00220103 0)
(0.000203398 -0.00221208 0)
(0.000184207 -0.00222194 0)
(0.000163099 -0.00223202 0)
(0.000141446 -0.00224069 0)
(0.000117411 -0.00224954 0)
(9.23419e-05 -0.00225673 0)
(0.000704223 -0.00179223 0)
(0.00066802 -0.00182005 0)
(0.000631861 -0.00184709 0)
(0.000599666 -0.00187208 0)
(0.000568188 -0.00189645 0)
(0.000539559 -0.00191817 0)
(0.000512226 -0.00193966 0)
(0.000485723 -0.00195795 0)
(0.000459321 -0.00197602 0)
(0.000435264 -0.00199263 0)
(0.000410363 -0.00200915 0)
(0.000386989 -0.00202435 0)
(0.000362151 -0.00203963 0)
(0.000338097 -0.00205359 0)
(0.000312057 -0.00206775 0)
(0.000286102 -0.00208056 0)
(0.000257605 -0.00209361 0)
(0.000228498 -0.00210522 0)
(0.00019619 -0.00211704 0)
(0.0001625 -0.00212733 0)
(0.000928628 -0.00157623 0)
(0.000886766 -0.001604 0)
(0.000842904 -0.00163165 0)
(0.000803809 -0.00165907 0)
(0.000763281 -0.00168649 0)
(0.00072655 -0.0017123 0)
(0.000688688 -0.00173807 0)
(0.000653999 -0.00176128 0)
(0.000618123 -0.00178442 0)
(0.000584817 -0.00180475 0)
(0.000551443 -0.00182619 0)
(0.000520174 -0.00184509 0)
(0.000487777 -0.0018649 0)
(0.000456564 -0.00188241 0)
(0.00042341 -0.00190064 0)
(0.000390503 -0.00191688 0)
(0.000354864 -0.00193363 0)
(0.000318528 -0.00194871 0)
(0.000278562 -0.00196411 0)
(0.000236864 -0.00197816 0)
(0.00113422 -0.00137672 0)
(0.00109248 -0.00140253 0)
(0.00104548 -0.00142885 0)
(0.00100484 -0.00145472 0)
(0.000959741 -0.00148173 0)
(0.00091937 -0.0015067 0)
(0.000875649 -0.00153327 0)
(0.000835383 -0.00155679 0)
(0.000792881 -0.00158205 0)
(0.000754609 -0.00160474 0)
(0.000714872 -0.00162901 0)
(0.000677928 -0.00165065 0)
(0.000639483 -0.00167341 0)
(0.000602485 -0.00169381 0)
(0.00056362 -0.00171495 0)
(0.000525036 -0.00173412 0)
(0.000483949 -0.00175375 0)
(0.000442094 -0.00177189 0)
(0.000396879 -0.00179028 0)
(0.000349844 -0.00180774 0)
(0.00132437 -0.00119843 0)
(0.00127936 -0.00122348 0)
(0.00122746 -0.00124905 0)
(0.00118346 -0.00127377 0)
(0.00113377 -0.00129996 0)
(0.00109015 -0.0013244 0)
(0.00104236 -0.00135083 0)
(0.000999021 -0.00137508 0)
(0.000953191 -0.00140143 0)
(0.000910531 -0.0014255 0)
(0.000866521 -0.0014512 0)
(0.000824571 -0.00147468 0)
(0.000781498 -0.00149924 0)
(0.00073948 -0.00152183 0)
(0.000695989 -0.00154504 0)
(0.000652607 -0.00156664 0)
(0.000607074 -0.00158855 0)
(0.000560711 -0.00160933 0)
(0.000511342 -0.00163026 0)
(0.000460168 -0.00165072 0)
(0.00152592 -0.0010185 0)
(0.00147725 -0.00104314 0)
(0.0014213 -0.0010699 0)
(0.00137407 -0.00109426 0)
(0.00132162 -0.0011213 0)
(0.00127507 -0.00114545 0)
(0.00122504 -0.00117229 0)
(0.00117878 -0.00119639 0)
(0.00113037 -0.00122282 0)
(0.00108451 -0.00124693 0)
(0.00103731 -0.00127281 0)
(0.000991753 -0.00129676 0)
(0.000945114 -0.00132186 0)
(0.000899296 -0.0013454 0)
(0.000852199 -0.00136958 0)
(0.000805121 -0.00139263 0)
(0.000756289 -0.00141596 0)
(0.00070665 -0.0014387 0)
(0.00065469 -0.00146152 0)
(0.000601112 -0.00148445 0)
(0.00171291 -0.000861211 0)
(0.00165886 -0.000885712 0)
(0.00159818 -0.000913662 0)
(0.00154522 -0.000938502 0)
(0.00148854 -0.000966516 0)
(0.00143695 -0.000991627 0)
(0.00138357 -0.00101923 0)
(0.00133332 -0.00104443 0)
(0.00128232 -0.00107144 0)
(0.00123319 -0.00109658 0)
(0.00118376 -0.00112292 0)
(0.0011354 -0.00114786 0)
(0.0010867 -0.00117348 0)
(0.00103845 -0.00119812 0)
(0.000989479 -0.00122305 0)
(0.000940357 -0.0012474 0)
(0.000889957 -0.00127184 0)
(0.000838738 -0.00129614 0)
(0.00078566 -0.0013205 0)
(0.000731082 -0.00134527 0)
(0.00191392 -0.000707384 0)
(0.00185637 -0.000730724 0)
(0.00179492 -0.000758021 0)
(0.00173764 -0.000782225 0)
(0.00167937 -0.000809538 0)
(0.0016234 -0.000834585 0)
(0.00156746 -0.000861717 0)
(0.0015132 -0.000887292 0)
(0.0014591 -0.000914132 0)
(0.0014064 -0.000939904 0)
(0.00135381 -0.000966379 0)
(0.00130233 -0.00099212 0)
(0.00125069 -0.00101815 0)
(0.00119981 -0.00104374 0)
(0.00114834 -0.00106936 0)
(0.00109712 -0.00109486 0)
(0.00104483 -0.00112028 0)
(0.000992028 -0.00114603 0)
(0.0009379 -0.00117176 0)
(0.000882031 -0.00119846 0)
)
;

boundaryField
{
    back
    {
        type            empty;
    }
    left
    {
        type            symmetry;
    }
    hole
    {
        type            calculated;
        value           nonuniform List<vector> 
20
(
(0.000225286 -0.00100511 -3.43197e-20)
(0.000667208 -0.00108973 0)
(0.00107463 -0.00125391 -5.88312e-20)
(0.00140534 -0.00142757 -8.97213e-22)
(0.00163372 -0.00150418 -3.79318e-21)
(0.00179421 -0.00144554 3.08177e-21)
(0.00193808 -0.00135121 -2.08527e-20)
(0.00209203 -0.00124324 -2.09907e-21)
(0.00222803 -0.00114132 1.75571e-20)
(0.00236871 -0.00103098 9.20668e-21)
(0.00248693 -0.000928044 -6.83167e-24)
(0.00260753 -0.000822872 -6.83695e-22)
(0.00270647 -0.000720194 -7.71978e-21)
(0.00280163 -0.000620151 6.92656e-21)
(0.00287857 -0.000520204 -9.53581e-21)
(0.00294689 -0.000424093 2.1542e-21)
(0.0029994 -0.000327266 -2.26771e-21)
(0.00304055 -0.000233805 -5.84158e-21)
(0.00306715 -0.000139113 4.71872e-21)
(0.0030809 -4.69803e-05 -5.95477e-21)
)
;
    }
    front
    {
        type            empty;
    }
    down
    {
        type            symmetry;
    }
    right
    {
        type            calculated;
        value           nonuniform List<vector> 
30
(
(0.00409223 -8.09989e-07 7.7087e-21)
(0.00408864 -9.00232e-07 -3.20698e-21)
(0.00408101 -3.34625e-06 -7.27938e-22)
(0.00407061 -5.16949e-06 -5.79957e-21)
(0.00405605 -9.99632e-06 7.52293e-21)
(0.00403983 -1.50999e-05 -3.82601e-21)