/*--------------------------------*- C++ -*----------------------------------*\
| =========                 |                                                 |
| \\      /  F ield         | OpenFOAM: The Open Source CFD Toolbox           |
|  \\    /   O peration     | Version:  v2012                                 |
|   \\  /    A nd           | Website:  www.openfoam.com                      |
|    \\/     M anipulation  |                                                 |
\*---------------------------------------------------------------------------*/
FoamFile
{
    version     2.0;
    format      ascii;
    class       volScalarField;
    location    "13";
    object      epsilonEq;
}
// * * * * * * * * * * * * * * * * * * * * * * * * * * * * * * * * * * * * * //

dimensions      [0 0 0 0 0 0 0];


internalField   nonuniform List<scalar> 
1000
(
0.0120687
0.011362
0.0103832
0.00910457
0.00768953
0.00630315
0.00500598
0.0039586
0.00309947
0.00252392
0.0115766
0.0105599
0.00922067
0.00782244
0.00643476
0.00524981
0.00421783
0.00347887
0.00292399
0.00262927
0.00995961
0.00837702
0.00659098
0.00534728
0.00433016
0.00373556
0.00331145
0.00313611
0.00304397
0.00302053
0.00688453
0.00496063
0.00346155
0.00289191
0.0025501
0.00265009
0.00275061
0.00298446
0.00308727
0.00310442
0.00362318
0.00231905
0.00184362
0.0018881
0.00194729
0.00219105
0.0023353
0.00255532
0.0025798
0.00261396
0.00186032
0.00160338
0.00167399
0.00174824
0.00182316
0.00192725
0.00199341
0.00207527
0.00210262
0.00215565
0.00152816
0.00147048
0.00153316
0.00157555
0.00167447
0.00177767
0.00185015
0.0019349
0.00197229
0.00201976
0.00121855
0.00120068
0.00132061
0.00143341
0.00155653
0.00166803
0.00174533
0.00182395
0.00185445
0.0019064
0.000885639
0.00100632
0.00117567
0.00131855
0.00144954
0.00156152
0.00164213
0.00171992
0.00176054
0.00180373
0.000535123
0.000765985
0.00101386
0.00118986
0.00135097
0.00145821
0.00155791
0.00161776
0.00168099
0.00171211
0.000275408
0.00060521
0.000879116
0.00106941
0.00122863
0.00133963
0.00143395
0.00149957
0.00155765
0.00160641
0.00031381
0.000565019
0.000809656
0.00100282
0.00114686
0.00126807
0.00134169
0.00142193
0.00144702
0.00150873
0.00056625
0.000625405
0.000766179
0.000923037
0.00103631
0.0011482
0.00120775
0.00128586
0.0013021
0.00136277
0.000832158
0.000763979
0.000787566
0.000887741
0.000953723
0.0010496
0.00108496
0.00115926
0.00116321
0.0012232
0.00107798
0.000916496
0.000838058
0.000864571
0.000877344
0.000943936
0.000955551
0.00101886
0.00101147
0.00106481
0.00128451
0.00106045
0.000907742
0.000864241
0.000824225
0.000851638
0.000840326
0.000883878
0.000870958
0.000911494
0.00145898
0.00118513
0.000978351
0.00087162
0.000783298
0.000763917
0.00072632
0.000742324
0.000719465
0.000742702
0.00158832
0.00128157
0.00103909
0.000885371
0.000759743
0.000694648
0.000633361
0.000615199
0.00058437
0.000584438
0.00167823
0.00134831
0.00108297
0.000896237
0.000744156
0.000640683
0.000556965
0.000502692
0.000459781
0.000432034
0.00172232
0.00138182
0.00110586
0.000903275
0.000738281
0.000613587
0.000517078
0.000437416
0.000385713
0.000333003
0.00029631
0.000406382
0.000570192
0.000730182
0.000901995
0.0010462
0.00120304
0.00132891
0.0014739
0.00162108
0.000274288
0.000382583
0.000544122
0.000701325
0.000873339
0.00101492
0.00116578
0.00127363
0.00138449
0.00147758
0.000265531
0.000361083
0.000506817
0.00065046
0.000809468
0.000951978
0.00110234
0.00124451
0.00136069
0.00147555
0.000307206
0.00038937
0.000518658
0.000652393
0.000792481
0.000920045
0.00103685
0.00115669
0.00125178
0.00136887
0.000326986
0.000393946
0.000501385
0.000626113
0.000754553
0.000890963
0.00100857
0.00114029
0.00123036
0.0013296
0.000377696
0.000433307
0.000521769
0.000630778
0.000736145
0.000853408
0.000949296
0.00106656
0.00115557
0.00125723
0.000417163
0.000462543
0.000535285
0.000635221
0.000732013
0.000847494
0.000940254
0.00105025
0.0011307
0.00121913
0.000462775
0.000499339
0.000557491
0.000640758
0.000720679
0.000819319
0.000901416
0.00100124
0.00108091
0.00116668
0.000511229
0.000541383
0.000590257
0.000663346
0.000735597
0.00082463
0.00090036
0.000988099
0.00105983
0.00113544
0.000550419
0.000574305
0.000613775
0.000673411
0.000734696
0.000810553
0.000879177
0.000958263
0.00102614
0.00109704
0.000598366
0.000618065
0.000651558
0.000702073
0.000755899
0.000821012
0.000882039
0.000949732
0.00101059
0.00107224
0.000630951
0.000646612
0.00067423
0.000715421
0.00076174
0.000816955
0.000871922
0.000931658
0.000987224
0.00104366
0.000671618
0.000684473
0.000707693
0.000741894
0.000781406
0.000827713
0.000875177
0.000925456
0.000974966
0.00102091
0.000695812
0.000706241
0.0007255
0.000753844
0.000787484
0.000827109
0.000868632
0.000912798
0.000957221
0.00099867
0.00072408
0.000732596
0.000748701
0.000772002
0.000800364
0.000833268
0.000868567
0.000905776
0.000943443
0.000979891
0.00073638
0.00074341
0.000756929
0.000776435
0.000800721
0.000828751
0.000859744
0.000891603
0.000925624
0.000956287
0.000746811
0.000752629
0.000764125
0.000780407
0.000801216
0.000825014
0.000851705
0.000879477
0.000908497
0.000936436
0.000741577
0.000746579
0.000756664
0.000770839
0.000789391
0.000810503
0.000834753
0.000859812
0.000886616
0.000912128
0.000726741
0.000731225
0.000740621
0.000753515
0.000771222
0.000790909
0.000814885
0.000838854
0.000866382
0.000891277
0.00069554
0.000699994
0.000709527
0.000722537
0.000740937
0.000761317
0.000787031
0.000812565
0.000842966
0.000870457
0.00168539
0.00165927
0.00171019
0.00171865
0.00176298
0.00178152
0.00181254
0.001837
0.00185887
0.00187957
0.00190376
0.00192381
0.0019515
0.00197479
0.0020097
0.0020422
0.00209027
0.00214083
0.00220968
0.00230531
0.0015739
0.00160943
0.00165901
0.0016748
0.00170387
0.00173003
0.00175469
0.00178043
0.00180992
0.00183076
0.00186078
0.00188563
0.00192001
0.00195067
0.00199317
0.00203362
0.00208809
0.00214507
0.0022151
0.00232204
0.00152296
0.00154576
0.00157574
0.00159807
0.00162518
0.00164044
0.00167524
0.00172251
0.00172801
0.00174575
0.00178616
0.00181171
0.0018531
0.00188645
0.00193309
0.00197589
0.0020314
0.00208616
0.00215395
0.00222942
0.00143868
0.00147707
0.00151675
0.00154122
0.00157862
0.00160118
0.00163902
0.00165962
0.00169038
0.00171947
0.00175367
0.00178394
0.00182198
0.00185657
0.00189972
0.00194077
0.00199086
0.00203938
0.00209872
0.00215359
0.00138566
0.00142167
0.0014499
0.0014786
0.00150633
0.00153342
0.00156141
0.00159086
0.0016176
0.00164486
0.00167738
0.00170628
0.00174344
0.00177637
0.00181849
0.00185713
0.00190531
0.00195087
0.00200657
0.00205974
0.00131983
0.00135763
0.00139087
0.00142154
0.00145442
0.00148198
0.00151437
0.00154066
0.00157207
0.00159945
0.00163159
0.00166038
0.00169448
0.00172569
0.00176293
0.00179784
0.00183957
0.00187961
0.00192747
0.00197449
0.00127602
0.00131017
0.00133831
0.00136867
0.00139581
0.00142391
0.0014507
0.00147752
0.00150456
0.00153071
0.00155908
0.00158561
0.00161602
0.00164409
0.00167719
0.00170802
0.00174445
0.00177955
0.00181976
0.00185945
0.00122573
0.00125746
0.00128764
0.00131748
0.00134634
0.00137374
0.00140158
0.00142723
0.00145437
0.00147907
0.00150602
0.00153053
0.00155783
0.00158301
0.00161119
0.00163807
0.00166769
0.00169742
0.0017307
0.00176311
0.00118972
0.00121775
0.00124473
0.00127233
0.00129748
0.00132304
0.0013469
0.00137075
0.00139377
0.00141635
0.00143896
0.00146077
0.00148341
0.00150496
0.00152818
0.00154981
0.00157445
0.0016022
0.00162354
0.00164843
0.00115025
0.00117512
0.00120226
0.00122784
0.00125293
0.00127666
0.0012999
0.00132196
0.00134366
0.00136423
0.00138476
0.00140405
0.00142385
0.00144213
0.00146169
0.00147929
0.00149921
0.00151659
0.00153601
0.00155516
0.00112044
0.00114295
0.00116621
0.00118924
0.00121103
0.0012321
0.00125228
0.00127154
0.00129018
0.00130775
0.001325
0.00134104
0.00135706
0.00137179
0.00138676
0.00140057
0.00141461
0.00142825
0.00144136
0.00145427
0.00108709
0.00110708
0.00113154
0.00115064
0.00117193
0.00119049
0.0012093
0.0012266
0.00124337
0.00125901
0.00127401
0.00128782
0.00130118
0.00131313
0.00132489
0.00133509
0.00134527
0.00135405
0.00136263
0.00137043
0.00106359
0.00108615
0.00109918
0.00111462
0.00113479
0.00115005
0.00116721
0.00118155
0.00119627
0.00120918
0.00122178
0.00123293
0.00124349
0.00125268
0.00126112
0.00126829
0.00127437
0.00127965
0.00128357
0.00128677
0.00103625
0.00104887
0.00106616
0.00108271
0.0010988
0.00111363
0.00112807
0.00114129
0.00115391
0.00116519
0.00117608
0.00118542
0.00119416
0.00120128
0.00120762
0.00121199
0.00121588
0.00121793
0.00121844
0.00121771
0.0010103
0.00102346
0.00103803
0.00105162
0.00106544
0.00107779
0.00109038
0.00110143
0.0011124
0.00112203
0.00113123
0.00113902
0.00114625
0.00115169
0.00115675
0.00115916
0.00116006
0.00116028
0.0011579
0.00115388
0.000983744
0.000993844
0.00100826
0.00101957
0.00103253
0.00104347
0.00105488
0.00106553
0.00107483
0.00108283
0.00109181
0.00109894
0.00110506
0.00111066
0.00111349
0.00111314
0.0011157
0.00111475
0.00110981
0.00110349
0.000959005
0.000968802
0.000980663
0.000991239
0.00100218
0.00101205
0.0010228
0.00103124
0.00103974
0.00104826
0.001056
0.00106248
0.00106789
0.00107295
0.00107531
0.00107821
0.00107806
0.00107615
0.00107081
0.00106373
0.000932681
0.000942104
0.000953254
0.0009633
0.000973662
0.000982981
0.00099336
0.00100114
0.00101083
0.00101932
0.00102609
0.00103289
0.00103858
0.00104337
0.00104715
0.00104899
0.00104992
0.00104831
0.00104386
0.00103652
0.000912107
0.000921977
0.000933286
0.000943785
0.000952562
0.000963513
0.000976638
0.000983343
0.000992389
0.00100035
0.00100735
0.00101453
0.00101981
0.00102543
0.00102882
0.00103223
0.00103329
0.00103349
0.00103096
0.00102644
0.000893147
0.000904906
0.000917703
0.000929706
0.000940072
0.000955502
0.000967963
0.000974301
0.000985968
0.000993205
0.00100194
0.0010082
0.00101463
0.00101915
0.00102345
0.00102597
0.0010282
0.00102869
0.00102878
0.00102699
0.00224779
0.00213156
0.0020238
0.00194484
0.00186719
0.00180708
0.001735
0.00167506
0.00160214
0.00153897
0.00146217
0.00139189
0.00130691
0.00122502
0.00112655
0.00102767
0.000909306
0.000786809
0.000640973
0.00048659
0.00244689
0.0023466
0.00225901
0.0021955
0.00211956
0.00204047
0.00195031
0.00188143
0.0017967
0.00172356
0.00163738
0.00155708
0.00146421
0.0013731
0.00126831
0.00116192
0.00103975
0.000913136
0.000768773
0.000618229
0.00289783
0.00284255
0.00273319
0.00261299
0.00246304
0.00232271
0.00223646
0.00213889
0.00203273
0.00194522
0.00184795
0.00176096
0.00166277
0.00156881
0.0014626
0.00135611
0.00123654
0.00111405
0.000979092
0.000841041
0.00299277
0.00297197
0.00287395
0.00279344
0.00267848
0.00258981
0.00246411
0.00232918
0.00223906
0.00214845
0.00205478
0.00196609
0.00186888
0.00177534
0.0016718
0.00156891
0.00145672
0.00134346
0.00122441
0.00110527
0.00255645
0.00264365
0.00263826
0.00265484
0.00260742
0.00257336
0.00248843
0.00241819
0.00232098
0.00226482
0.00220098
0.00213171
0.0020542
0.00197134
0.00188487
0.00179251
0.00170128
0.00160614
0.00151978
0.00143461
0.00214932
0.00229147
0.00229568
0.00233727
0.00231136
0.00231749
0.00227634
0.00225575
0.00223937
0.00223024
0.00219741
0.00215668
0.00210702
0.00204779
0.00198892
0.00192186
0.00186248
0.00179992
0.00175431
0.00171266
0.00201815
0.00208523
0.00207977
0.00211499
0.00211315
0.00214108
0.00214561
0.00216894
0.0021783
0.00218007
0.00217315
0.00215266
0.00212972
0.0020939
0.00206103
0.00201933
0.00198714
0.00195302
0.00193844
0.00192998
0.00189695
0.00196393
0.00196824
0.0019979
0.00200434
0.00202033
0.00203215
0.00204187
0.00205691
0.00206248
0.00207197
0.00206872
0.00206964
0.00205892
0.00205472
0.00204316
0.00204293
0.00204188
0.00205986
0.00208368
0.00181379
0.00186878
0.0019024
0.00192807
0.00195807
0.00197164
0.00199555
0.00200449
0.00202336
0.00202926
0.00204315
0.00204597
0.00205517
0.00205672
0.0020646
0.00206967
0.00208355
0.00209935
0.00213017
0.00216322
0.00172627
0.00174864
0.0017933
0.00181363
0.00185511
0.00187377
0.00190769
0.00192462
0.00195133
0.00196687
0.00198835
0.00200248
0.00202112
0.002036
0.00205635
0.00207713
0.00210694
0.00214124
0.00219205
0.00224682
)
;

boundaryField
{
    back
    {
        type            empty;
    }
    left
    {
        type            symmetry;
    }
    hole
    {
        type            calculated;
        value           nonuniform List<scalar> 
20
(
0.0121247
0.0116355
0.0100254
0.00697121
0.00369353
0.00187556
0.00152366
0.00121618
0.000859131
0.0004799
0.000133247
0.000217799
0.000537675
0.000825897
0.00108461
0.00129871
0.00147829
0.00161092
0.00170283
0.00174788
)
;
    }
    front
    {
        type            empty;
    }
    down
    {
        type            symmetry;
    }
    right
    {
        type            calculated;
        value           nonuniform List<scalar> 
30
(
0.000696337
0.000700711
0.000710039
0.000722849
0.000740907
0.000761076
0.000786417
0.000811854
0.000841972
0.000869584
0.00089218
0.000904185
0.00091729
0.000929275
0.000940941
0.00095377
0.000965751
0.000974302
0.000985089
0.000993046
0.00100159
0.00100804
0.00101448
0.00101901
0.00102335
0.00102585
0.00102819
0.00102881
0.00102939
0.00102844
)
;
    }
    up
    {
        type            calculated;
        value           nonuniform List<scalar> 
30
(
0.0023082
0.00232575
0.002231
0.00215389
0.00206036
0.00197496
0.00185993
0.00176325
0.00164864
0.00155525
0.00145431
0.00137032
0.00128667
0.00121755
0.00115385
0.00110347
0.00106353
0.00103654
0.0010264
0.00102707
0.000485764
0.00061642
0.000838767
0.00110263
0.00143295
0.00171203
0.00192997
0.00208415
0.00216333
0.00224688
)
;
    }
}


// ************************************************************************* //
