/*--------------------------------*- C++ -*----------------------------------*\
| =========                 |                                                 |
| \\      /  F ield         | OpenFOAM: The Open Source CFD Toolbox           |
|  \\    /   O peration     | Version:  v2012                                 |
|   \\  /    A nd           | Website:  www.openfoam.com                      |
|    \\/     M anipulation  |                                                 |
\*---------------------------------------------------------------------------*/
FoamFile
{
    version     2.0;
    format      ascii;
    class       pointSymmTensorField;
    location    "19";
    object      pEpsilon;
}
// * * * * * * * * * * * * * * * * * * * * * * * * * * * * * * * * * * * * * //

dimensions      [0 0 0 0 0 0 0];


internalField   nonuniform List<symmTensor> 
530
(
(9.76358e-05 1.89386e-06 1.21485e-15 -0.000404691 0 0)
(0.000125695 -5.19503e-06 3.95734e-17 4.02782e-05 0 0)
(0.00017336 -5.64331e-07 1.20346e-16 -7.48749e-05 2.90481e-16 0)
(0.000127744 0.00015197 0 -0.000104151 8.81456e-16 0)
(0.00372239 -0.000407715 0 -0.00350786 5.62943e-14 0)
(9.76358e-05 1.89386e-06 1.21485e-15 -0.000404691 0 0)
(0.000125695 -5.19503e-06 3.95734e-17 4.02782e-05 0 0)
(0.00017336 -5.64331e-07 1.20346e-16 -7.48749e-05 2.90481e-16 0)
(0.000127744 0.00015197 0 -0.000104151 8.81456e-16 0)
(0.00372239 -0.000407715 0 -0.00350786 5.62943e-14 0)
(6.02989e-05 -7.93416e-06 -4.87891e-17 -0.000226365 0 0)
(9.03861e-06 -1.82673e-05 -9.1073e-17 -0.000105365 0 0)
(-1.18707e-05 -1.58392e-05 3.41524e-17 -3.53465e-05 0 0)
(-9.74035e-06 -1.90346e-05 2.33103e-17 -1.55363e-07 0 0)
(3.90555e-06 -1.90849e-05 -1.07336e-16 1.60746e-05 0 0)
(1.81918e-05 -1.54354e-05 -1.9082e-16 2.53545e-05 0 0)
(3.7279e-05 -1.42986e-05 2.80808e-16 2.85924e-05 0 0)
(5.43195e-05 -1.11925e-05 1.91362e-16 2.46508e-05 0 0)
(7.57496e-05 -9.73705e-06 -3.05745e-16 2.01425e-05 0 0)
(9.23493e-05 -7.68168e-06 1.83772e-16 1.20948e-05 0 0)
(0.000109356 -8.69608e-06 5.94143e-16 9.28784e-06 0 0)
(0.000120503 -1.12923e-05 4.43439e-16 7.42548e-06 0 0)
(0.000127258 -7.55497e-06 6.451e-17 1.06509e-05 0 0)
(0.000128796 -4.30995e-06 -7.29126e-16 2.29707e-05 0 0)
(0.000134339 -2.83927e-06 -2.87856e-16 3.50004e-05 -1.16802e-15 0)
(0.000133148 -4.96115e-06 1.15142e-15 2.716e-05 -7.09695e-16 0)
(0.000140164 -9.40455e-06 1.23599e-16 1.24599e-05 -4.16368e-16 0)
(0.000143788 -1.05254e-05 -2.72677e-16 -2.07439e-06 -1.4713e-15 0)
(0.000153065 -1.15825e-05 1.80411e-15 -2.35032e-05 -2.76455e-16 0)
(0.000160964 -1.1008e-05 -3.28513e-16 -4.33522e-05 9.03001e-16 0)
(0.00016473 -8.48563e-06 -1.43603e-15 -5.71428e-05 -2.9351e-16 0)
(0.000170924 -4.23118e-06 1.89735e-17 -6.98587e-05 3.07312e-16 0)
(0.00017148 -1.77142e-06 -4.11997e-17 -7.4234e-05 -1.11029e-16 0)
(0.000174146 -9.7649e-07 6.72205e-17 -7.58929e-05 -4.24092e-16 0)
(0.000178468 -5.10628e-06 3.15828e-15 -7.69676e-05 2.92768e-16 0)
(0.000190917 -1.09187e-05 1.28586e-15 -8.38773e-05 -2.45911e-16 0)
(0.000208378 -1.04339e-05 -1.30701e-15 -9.04489e-05 -4.75152e-16 0)
(0.000234765 -1.27217e-05 -1.63986e-15 -0.000101252 2.08031e-17 0)
(0.000260742 -1.90132e-05 -1.1189e-15 -0.000107787 -7.15065e-16 0)
(0.000300455 -1.8875e-05 1.30267e-15 -0.00012624 -3.41693e-16 0)
(0.000337484 -2.38435e-05 -1.19425e-15 -0.000134637 9.30212e-16 0)
(0.000388614 -2.79258e-05 3.6543e-15 -0.000155314 -7.26212e-16 0)
(0.000434531 -3.77515e-05 -9.1073e-17 -0.000165243 -2.16559e-15 0)
(0.000501575 -3.2406e-05 -6.62448e-16 -0.000199201 4.48047e-15 0)
(0.000572558 -3.59442e-05 2.10267e-14 -0.000252814 2.71721e-15 0)
(0.000594859 -3.6841e-05 -1.60516e-15 -0.000205578 3.25166e-15 0)
(0.000652791 -2.57124e-05 9.91042e-15 -0.000248839 -5.04791e-15 0)
(0.000682414 1.25995e-05 -2.33646e-15 -0.000271528 -1.94167e-15 0)
(0.000640971 4.69571e-05 -1.07391e-14 -0.000238656 3.35181e-15 0)
(0.000526073 8.86384e-05 3.41771e-15 -0.000240337 6.89824e-16 0)
(0.000299164 9.04491e-05 -6.36394e-15 -0.000180122 -4.77049e-17 0)
(0.000121763 0.000108987 -4.44602e-15 -9.80916e-05 -2.13046e-16 0)
(0.000458663 0.000126407 0 -0.00011982 1.33248e-15 0)
(0.000864142 0.000101831 0 -0.000214767 -3.18268e-15 0)
(0.00163204 9.38284e-05 0 -0.00105723 9.11922e-15 0)
(0.00280631 -0.000248179 0 -0.00254037 6.25503e-15 0)
(0.0029312 -0.00143438 8.6258e-14 -0.00359735 -1.76863e-14 0)
(0.000712982 -0.000821039 2.87877e-14 -0.000511756 -2.73148e-14 0)
(-5.59526e-05 3.29129e-05 7.30644e-15 -3.4576e-05 -5.56629e-15 0)
(-5.6848e-05 0.000164367 1.66208e-15 -0.000108623 -8.92163e-16 0)
(-1.04515e-05 0.000169351 7.47557e-16 -0.000221143 1.5084e-16 0)
(7.31749e-05 0.000146349 9.9855e-16 -0.000332582 1.35586e-15 0)
(0.000104864 8.45792e-05 -8.21283e-16 -0.00038581 -3.19345e-15 0)
(6.02989e-05 -7.93416e-06 -4.87891e-17 -0.000226365 0 0)
(9.03861e-06 -1.82673e-05 -9.1073e-17 -0.000105365 0 0)
(-1.18707e-05 -1.58392e-05 3.41524e-17 -3.53465e-05 0 0)
(-9.74035e-06 -1.90346e-05 2.33103e-17 -1.55363e-07 0 0)
(3.90555e-06 -1.90849e-05 -1.07336e-16 1.60746e-05 0 0)
(1.81918e-05 -1.54354e-05 -1.9082e-16 2.53545e-05 0 0)
(3.7279e-05 -1.42986e-05 2.80808e-16 2.85924e-05 0 0)
(5.43195e-05 -1.11925e-05 1.91362e-16 2.46508e-05 0 0)
(7.57496e-05 -9.73705e-06 -3.05745e-16 2.01425e-05 0 0)
(9.23493e-05 -7.68168e-06 1.83772e-16 1.20948e-05 0 0)
(0.000109356 -8.69608e-06 5.94143e-16 9.28784e-06 0 0)
(0.000120503 -1.12923e-05 4.43439e-16 7.42548e-06 0 0)
(0.000127258 -7.55497e-06 6.451e-17 1.06509e-05 0 0)
(0.000128796 -4.30995e-06 -7.29126e-16 2.29707e-05 0 0)
(0.000134339 -2.83927e-06 -2.87856e-16 3.50004e-05 -1.16802e-15 0)
(0.000133148 -4.96115e-06 1.15142e-15 2.716e-05 -7.09695e-16 0)
(0.000140164 -9.40455e-06 1.23599e-16 1.24599e-05 -4.16368e-16 0)
(0.000143788 -1.05254e-05 -2.72677e-16 -2.07439e-06 -1.4713e-15 0)
(0.000153065 -1.15825e-05 1.80411e-15 -2.35032e-05 -2.76455e-16 0)
(0.000160964 -1.1008e-05 -3.28513e-16 -4.33522e-05 9.03001e-16 0)
(0.00016473 -8.48563e-06 -1.43603e-15 -5.71428e-05 -2.9351e-16 0)
(0.000170924 -4.23118e-06 1.89735e-17 -6.98587e-05 3.07312e-16 0)
(0.00017148 -1.77142e-06 -4.11997e-17 -7.4234e-05 -1.11029e-16 0)
(0.000174146 -9.7649e-07 6.72205e-17 -7.58929e-05 -4.24092e-16 0)
(0.000178468 -5.10628e-06 3.15828e-15 -7.69676e-05 2.92768e-16 0)
(0.000190917 -1.09187e-05 1.28586e-15 -8.38773e-05 -2.45911e-16 0)
(0.000208378 -1.04339e-05 -1.30701e-15 -9.04489e-05 -4.75152e-16 0)
(0.000234765 -1.27217e-05 -1.63986e-15 -0.000101252 2.08031e-17 0)
(0.000260742 -1.90132e-05 -1.1189e-15 -0.000107787 -7.15065e-16 0)
(0.000300455 -1.8875e-05 1.30267e-15 -0.00012624 -3.41693e-16 0)
(0.000337484 -2.38435e-05 -1.19425e-15 -0.000134637 9.30212e-16 0)
(0.000388614 -2.79258e-05 3.6543e-15 -0.000155314 -7.26212e-16 0)
(0.000434531 -3.77515e-05 -9.1073e-17 -0.000165243 -2.16559e-15 0)
(0.000501575 -3.2406e-05 -6.62448e-16 -0.000199201 4.48047e-15 0)
(0.000572558 -3.59442e-05 2.10267e-14 -0.000252814 2.71721e-15 0)
(0.000594859 -3.6841e-05 -1.60516e-15 -0.000205578 3.25166e-15 0)
(0.000652791 -2.57124e-05 9.91042e-15 -0.000248839 -5.04791e-15 0)
(0.000682414 1.25995e-05 -2.33646e-15 -0.000271528 -1.94167e-15 0)
(0.000640971 4.69571e-05 -1.07391e-14 -0.000238656 3.35181e-15 0)
(0.000526073 8.86384e-05 3.41771e-15 -0.000240337 6.89824e-16 0)
(0.000299164 9.04491e-05 -6.36394e-15 -0.000180122 -4.77049e-17 0)
(0.000121763 0.000108987 -4.44602e-15 -9.80916e-05 -2.13046e-16 0)
(0.000458663 0.000126407 0 -0.00011982 1.33248e-15 0)
(0.000864142 0.000101831 0 -0.000214767 -3.18268e-15 0)
(0.00163204 9.38284e-05 0 -0.00105723 9.11922e-15 0)
(0.00280631 -0.000248179 0 -0.00254037 6.25503e-15 0)
(0.0029312 -0.00143438 8.6258e-14 -0.00359735 -1.76863e-14 0)
(0.000712982 -0.000821039 2.87877e-14 -0.000511756 -2.73148e-14 0)
(-5.59526e-05 3.29129e-05 7.30644e-15 -3.4576e-05 -5.56629e-15 0)
(-5.6848e-05 0.000164367 1.66208e-15 -0.000108623 -8.92163e-16 0)
(-1.04515e-05 0.000169351 7.47557e-16 -0.000221143 1.5084e-16 0)
(7.31749e-05 0.000146349 9.9855e-16 -0.000332582 1.35586e-15 0)
(0.000104864 8.45792e-05 -8.21283e-16 -0.00038581 -3.19345e-15 0)
(0.000135414 -0.000144972 -9.21572e-17 -6.15808e-05 3.83189e-16 0)
(0.000148723 -9.52266e-05 4.09286e-16 -3.1697e-05 -1.90582e-17 0)
(0.000286444 -0.000129925 -2.02936e-15 -0.00017829 5.87638e-16 0)
(0.000215481 -0.000127413 -1.08691e-15 -7.42097e-05 -6.34131e-17 0)
(7.85114e-05 -0.000103482 4.73254e-16 -1.50577e-06 2.24798e-16 0)
(0.00017908 -5.13364e-05 -9.32956e-16 -5.84123e-05 -2.6629e-16 0)
(0.000133266 -4.72824e-05 3.17129e-16 -8.60912e-06 -2.2912e-16 0)
(0.000677596 -2.48519e-05 6.6795e-15 -0.000422272 -1.63335e-15 0)
(3.02087e-05 -5.90565e-05 -6.72205e-17 -7.68102e-05 4.01849e-16 0)
(0.000315912 -0.000136084 -2.46033e-15 -0.000130093 -1.56664e-15 0)
(9.73285e-05 -6.73124e-05 -2.42861e-16 4.588e-06 -1.26297e-16 0)
(0.0002189 -8.39811e-05 3.42066e-16 -8.4471e-05 7.64955e-17 0)
(2.83007e-05 -7.38821e-05 1.24141e-16 -5.35258e-07 -1.71753e-16 0)
(6.0965e-05 -4.95265e-05 1.73472e-16 -9.45166e-05 1.99358e-16 0)
(0.00015494 -4.61274e-05 -7.22079e-16 -2.98729e-05 -1.44758e-16 0)
(0.000311121 -0.000117214 7.04731e-18 -0.000126237 9.48677e-16 0)
(0.000145963 -0.000120721 -5.96853e-16 -3.49926e-05 3.77383e-16 0)
(0.000137156 -0.000137971 3.08998e-17 -3.54954e-05 -8.60967e-17 0)
(0.000527836 -2.70732e-05 -3.00324e-15 -0.000292147 1.95726e-15 0)
(9.66475e-05 -0.000144055 7.66531e-16 -0.00015681 -8.89723e-16 0)
(0.000110051 -3.76136e-05 -1.21973e-16 4.29723e-06 -4.3836e-16 0)
(0.000211347 -4.5722e-05 -8.80914e-16 -8.38521e-05 6.01478e-16 0)
(0.000132459 -1.66141e-05 -4.70544e-16 9.95743e-06 6.91708e-17 0)
(0.000180108 -1.80915e-05 -3.98444e-16 -7.0117e-05 7.08848e-16 0)
(0.000171421 -0.000136282 1.23707e-15 -0.000102257 -1.64324e-17 0)
(0.000456782 -9.44003e-05 -4.0972e-15 -0.000215809 3.13551e-15 0)
(0.000277915 -7.82567e-05 5.62701e-16 -0.000114788 -2.10183e-16 0)
(5.85258e-05 -5.53991e-05 3.25261e-18 1.91006e-05 -6.15158e-17 0)
(0.000160227 -7.16517e-05 -3.73508e-16 -3.74268e-05 -1.37867e-16 0)
(0.000127506 -7.19524e-05 2.40693e-16 -1.24207e-05 4.67956e-16 0)
(0.000621177 0.000215974 -8.70845e-15 -0.000225063 -2.42536e-15 0)
(0.000212108 -0.000145044 1.14058e-15 -7.9742e-05 8.8753e-16 0)
(0.000141163 -3.13592e-05 -3.78387e-16 -6.97834e-06 5.90092e-16 0)
(0.000167681 -3.08894e-05 5.12286e-16 -4.92089e-05 1.00221e-16 0)
(0.000187732 -7.99576e-05 -1.48265e-15 -6.26493e-05 -4.12251e-16 0)
(0.00127135 -0.000411412 7.14354e-15 -0.000791714 -3.41659e-15 0)
(7.62889e-05 -0.000123357 2.71593e-16 -2.05227e-05 -2.4536e-16 0)
(2.83164e-05 -5.34646e-05 -1.31188e-16 2.17428e-05 -4.37556e-17 0)
(-1.66395e-06 -4.4875e-05 -4.22839e-17 -3.55937e-05 -1.422e-16 0)
(2.56084e-05 2.27137e-06 -3.57787e-17 -0.000152917 1.9846e-16 0)
(7.39613e-05 -0.000108177 -2.56414e-16 -6.07876e-05 3.60955e-16 0)
(3.82836e-05 2.18393e-05 1.50162e-16 -0.000153047 -5.20756e-16 0)
(0.000191236 -0.000111895 9.90961e-16 -6.15917e-05 -2.2645e-16 0)
(9.77105e-05 -9.23779e-05 3.98986e-16 -5.13791e-07 6.58267e-16 0)
(0.00041382 -9.12977e-05 6.00865e-15 -0.000178496 -3.13914e-15 0)
(0.000617995 0.000141138 5.24849e-15 -0.000327404 3.70526e-16 0)
(0.000317348 -8.09687e-05 -1.88651e-16 -0.000133409 -6.36749e-16 0)
(0.000123032 -2.32303e-05 -3.25803e-16 4.34292e-06 3.42134e-16 0)
(0.000191215 -2.3338e-05 1.86862e-15 -7.78381e-05 -1.25954e-16 0)
(-2.00123e-05 2.54164e-05 -2.94903e-16 -9.57047e-05 -7.56638e-16 0)
(8.78398e-05 -3.40139e-05 1.11673e-16 1.27127e-05 -1.54764e-16 0)
(0.000234873 -4.98368e-05 -8.78204e-16 -9.52871e-05 -2.24498e-16 0)
(3.86541e-05 -9.52367e-05 -5.52943e-17 -2.73361e-05 -2.02466e-16 0)
(0.000282526 -0.000137836 5.39391e-17 -0.000140157 -6.06679e-16 0)
(0.000190499 -0.000148481 -3.25261e-18 -8.59748e-05 -8.12728e-16 0)
(0.000444301 -0.000113593 -2.42401e-15 -0.000321169 -3.03075e-15 0)
(0.000468755 -8.60894e-05 5.69206e-17 -0.000209165 -1.82099e-15 0)
(0.000288835 -0.000273271 6.5269e-16 -0.000417019 -5.91974e-15 0)
(0.000145504 -5.58771e-05 -3.91939e-16 -2.12917e-05 -3.31423e-16 0)
(0.000181886 -9.85862e-05 1.99331e-15 -5.571e-05 -2.75959e-16 0)
(0.000125108 -8.94154e-05 -5.61617e-16 -1.39408e-05 -5.68999e-16 0)
(2.07453e-06 -3.98072e-05 -3.90313e-17 7.99671e-06 2.76112e-17 0)
(5.54059e-05 -9.94172e-05 3.64292e-16 7.37338e-07 -2.07875e-16 0)
(0.000154005 -0.000109023 1.42735e-15 -0.00012336 1.45825e-16 0)
(0.000147774 -2.58581e-05 -3.36103e-17 -1.79052e-05 -1.26875e-16 0)
(0.000565737 -4.09584e-05 2.12504e-16 -0.000269119 1.76955e-15 0)
(0.00028363 -0.000138159 8.34836e-17 -0.000113781 -3.38949e-16 0)
(0.00104481 -7.58473e-05 1.68282e-15 -0.000385561 4.62521e-15 0)
(0.000263777 -4.67506e-05 -1.03108e-15 -0.000110823 -4.65817e-16 0)
(6.84948e-05 -2.69617e-05 7.53521e-17 2.07343e-05 8.99062e-17 0)
(0.000162926 -0.000132224 -2.60534e-15 -4.71334e-05 -2.8196e-16 0)
(0.000249157 -0.000133602 -1.0842e-18 -9.73948e-05 -2.20576e-16 0)
(0.000120249 -0.000122782 -9.12898e-16 -2.21802e-05 3.93316e-16 0)
(2.50367e-05 4.76794e-05 2.3744e-16 -0.000135724 -4.24194e-16 0)
(0.000164514 -5.55131e-05 1.05005e-15 -4.3635e-05 2.11678e-16 0)
(0.000170728 -1.67737e-05 1.71954e-15 -6.06076e-05 -1.25996e-16 0)
(0.000135744 -1.76044e-05 5.74627e-17 8.54673e-06 2.89626e-16 0)
(0.00043336 -9.85536e-05 3.99474e-15 -0.000236063 1.14681e-15 0)
(0.000384931 -7.65199e-05 2.33103e-16 -0.000158677 3.3407e-16 0)
(4.92133e-05 -5.62636e-05 2.15756e-16 -9.09851e-05 -4.23178e-16 0)
(0.000146801 -7.97968e-05 -9.70361e-17 -2.72099e-05 4.51812e-16 0)
(0.000130427 -9.25701e-06 -1.04897e-15 1.84201e-05 -2.07352e-16 0)
(0.000175065 -5.36025e-06 -7.47015e-16 -7.1444e-05 3.78217e-16 0)
(0.000161497 -0.000108895 -4.52112e-16 -4.23088e-05 -3.63466e-16 0)
(0.000158771 -2.56462e-05 -8.29415e-16 -3.53825e-05 -5.52138e-17 0)
(5.36623e-06 -1.60682e-05 1.0842e-17 -9.35734e-05 2.11038e-16 0)
(9.40911e-05 -0.000123249 -5.60533e-16 -1.62816e-05 -1.31011e-16 0)
(0.000263564 -0.000111537 -1.09504e-15 -0.000103858 -7.66065e-16 0)
(0.000231081 -0.000109055 -3.71881e-16 -8.32464e-05 -8.97347e-17 0)
(3.67791e-05 -3.54954e-05 5.42101e-17 2.48414e-05 1.12528e-16 0)
(4.94447e-05 -7.07337e-05 2.16298e-16 1.64605e-05 -1.91294e-16 0)
(0.000110536 -6.06713e-05 1.34983e-16 -9.84255e-07 -3.32342e-16 0)
(8.20455e-05 -7.48972e-05 5.80048e-16 8.55214e-06 1.14218e-16 0)
(0.000124892 -5.44414e-05 -1.91362e-16 -5.51919e-06 -1.63615e-16 0)
(0.000151644 -0.000144297 8.80372e-16 -5.0594e-05 -1.91887e-16 0)
(0.000187026 -0.000142275 9.90419e-16 -6.20064e-05 1.01707e-16 0)
(0.000167039 -8.48401e-05 -1.82471e-15 -4.42471e-05 -1.49167e-16 0)
(0.000175696 -3.40318e-05 5.85469e-16 -6.10007e-05 -2.34052e-16 0)
(0.000135091 -3.23411e-05 -1.66967e-16 -9.79793e-07 1.38128e-16 0)
(0.000601302 7.29319e-05 -1.41895e-15 -0.000301151 -4.09232e-15 0)
(0.000534446 0.000179562 3.94717e-16 -0.000250173 3.57516e-16 0)
(-7.02412e-05 4.27182e-05 1.32869e-15 -8.30658e-05 -7.82387e-16 0)
(0.000192933 -5.84937e-05 -3.34476e-16 -6.91253e-05 -7.39968e-17 0)
(9.92559e-05 -1.83672e-05 3.41524e-16 9.98206e-06 -4.81469e-17 0)
(9.77651e-05 -9.79283e-05 4.2067e-16 -8.32533e-05 6.58314e-17 0)
(0.000222447 -2.58435e-05 -5.62701e-16 -9.39506e-05 2.60412e-16 0)
(0.000552737 -4.97455e-05 4.4642e-15 -0.00024061 -2.05131e-15 0)
(0.000211273 -6.96509e-05 -2.15756e-16 -8.04405e-05 9.19573e-16 0)
(7.95755e-05 -0.000119958 -2.11419e-17 -3.95089e-05 1.68644e-16 0)
(0.000128632 -1.35702e-05 2.10335e-16 8.10978e-06 4.13716e-16 0)
(0.000184922 -1.2018e-05 -2.49366e-16 -7.53492e-05 4.00308e-16 0)
(0.000125189 -0.000102675 1.22135e-15 -1.72237e-05 5.20417e-17 0)
(0.000174617 -6.82136e-05 5.39933e-16 -5.34388e-05 4.77413e-16 0)
(0.000414422 -0.000197425 2.64708e-15 -0.000393603 -1.26852e-15 0)
(0.00062703 5.68026e-05 -2.17247e-15 -0.000389319 7.86047e-18 0)
(0.000197245 -0.000129317 -5.82759e-16 -0.00012534 3.19433e-16 0)
(0.000352632 0.000130185 4.34596e-16 -8.39844e-05 -1.07444e-15 0)
(0.000317953 -4.89179e-05 -7.26415e-17 -0.00013261 3.51688e-17 0)
(0.000230214 -0.000143053 -1.29074e-15 -0.000182486 -1.14831e-15 0)
(6.512e-05 5.91331e-05 -1.15468e-16 -0.000233536 -5.51215e-16 0)
(0.000145011 -4.28312e-05 -2.52619e-16 -1.82607e-05 8.69162e-17 0)
(0.000122234 -0.000128281 -8.43509e-16 -5.93532e-05 2.13385e-16 0)
(0.00013827 -6.47118e-05 -7.58942e-18 -1.7473e-05 -2.48608e-16 0)
(0.00133861 -0.000782099 -2.45789e-15 -0.0015835 -1.34899e-14 0)
(0.000804322 5.9143e-05 9.43961e-15 -0.000360382 5.72106e-15 0)
(0.000377888 -0.000122131 2.6403e-15 -0.000182342 2.60879e-15 0)
(0.000247907 -8.31822e-05 -3.91939e-16 -9.3711e-05 -6.65937e-16 0)
(0.000122068 -4.05497e-05 -2.85145e-16 -1.26073e-06 -7.78817e-16 0)
(0.000185929 -3.94454e-05 -1.04788e-15 -6.92283e-05 1.10128e-15 0)
(0.0027968 -0.000758726 2.44797e-14 -0.00266028 1.15272e-14 0)
(8.34529e-06 -3.41105e-05 -3.1984e-17 2.10399e-05 -5.69344e-17 0)
(2.20631e-05 -7.16302e-05 -1.71846e-16 -4.58445e-05 4.96277e-17 0)
(-3.21172e-06 -2.59767e-05 3.57787e-17 -1.64463e-05 3.4686e-18 0)
(7.44216e-05 3.12045e-05 4.81386e-16 -0.000264605 1.16082e-15 0)
(2.50017e-05 -2.14286e-05 2.07083e-16 -0.000121953 -1.33187e-16 0)
(0.000374845 -5.56975e-05 1.41759e-15 -0.000156748 4.74914e-16 0)
(0.000182882 -0.000149499 2.10498e-15 -7.14691e-05 8.48642e-16 0)
(4.98933e-05 -2.51095e-05 -1.6263e-17 2.59471e-05 -3.84161e-17 0)
(1.05689e-05 -3.85835e-05 -2.33103e-17 -8.22297e-05 -5.74288e-17 0)
(0.000693231 -0.000122995 9.75972e-15 -0.000439905 4.15927e-15 0)
(0.000185705 -0.000123576 -5.06322e-16 -5.83961e-05 -6.3231e-16 0)
(0.000140781 -1.72337e-05 4.30428e-16 -2.28785e-07 1.89494e-16 0)
(0.000164164 -1.67524e-05 4.51028e-16 -4.94818e-05 -1.26661e-16 0)
(0.000203366 -2.25653e-05 -3.65376e-16 -8.48741e-05 -6.71189e-17 0)
(4.9402e-05 -8.42398e-05 3.9736e-16 -5.3557e-05 2.66138e-16 0)
(0.00011286 -1.63528e-05 5.77338e-16 7.22157e-06 -5.95188e-16 0)
(0.00202598 -0.00037593 1.31961e-15 -0.00144895 7.03918e-15 0)
(0.000163279 -4.16006e-05 -5.38848e-16 -4.10888e-05 -1.83611e-16 0)
(0.000624055 6.77965e-05 1.76657e-16 -7.87423e-05 2.93819e-16 0)
(4.35285e-05 0.000110997 1.32815e-16 -0.000213738 -2.64952e-17 0)
(0.000104624 -0.000108117 -3.49113e-16 -9.35817e-06 4.24198e-16 0)
(0.000689137 0.000159526 4.32163e-15 -0.000371658 3.03577e-15 0)
(7.97886e-05 -5.16533e-05 5.59448e-16 1.25049e-05 4.13505e-16 0)
(2.37921e-05 -6.5666e-05 1.94614e-16 1.69567e-05 5.02968e-17 0)
(0.000297365 -0.000111311 -3.4315e-16 -0.000120615 3.65749e-16 0)
(4.94896e-05 -0.000101092 -6.50521e-18 -1.29043e-05 7.10428e-17 0)
(0.000246571 -0.000147493 1.34224e-15 -0.00011683 -1.42478e-15 0)
(7.20794e-05 -8.68866e-05 6.36427e-16 7.11999e-06 3.53831e-16 0)
(0.000376579 -0.000124547 -1.18151e-15 -0.00024564 2.73043e-15 0)
(0.00010404 -0.000136611 -3.57787e-17 -3.57726e-05 -1.40802e-16 0)
(0.000497773 -6.66131e-05 1.57209e-16 -0.000220333 1.0142e-15 0)
(-4.89792e-07 -5.47615e-05 -7.53521e-17 -6.34591e-06 -4.88542e-17 0)
(0.000211387 -9.97167e-05 1.20997e-15 -7.50961e-05 -1.02847e-16 0)
(2.7167e-05 5.73949e-06 2.50451e-16 -0.000156944 -2.04457e-16 0)
(0.000363887 -0.00011949 2.0009e-15 -0.000182337 -2.79589e-16 0)
(0.000398012 -0.000107348 -4.48047e-16 -0.000175464 7.03139e-16 0)
(0.000170012 -4.35304e-05 -1.1048e-15 -5.09017e-05 -4.21577e-16 0)
(0.000174235 -7.84027e-06 4.08202e-16 -6.74869e-05 -5.1686e-16 0)
(0.000131017 -9.88358e-06 3.35018e-16 1.7902e-05 2.13334e-16 0)
(4.08642e-06 -9.32427e-05 4.79705e-15 -0.000189628 -5.45923e-15 0)
(0.000156206 -6.06324e-05 -6.34258e-17 -3.24566e-05 8.82397e-17 0)
(0.00012974 -3.012e-05 3.95734e-17 1.37968e-06 3.73976e-17 0)
(0.000272221 -0.000138542 -5.11201e-16 -0.000109066 -6.28922e-16 0)
(0.000296194 -3.94918e-05 -7.16658e-16 -0.000128768 -1.03623e-15 0)
(7.36147e-05 -8.01168e-05 4.56991e-16 -9.21611e-05 8.21419e-16 0)
(0.00020317 -8.81985e-05 1.59161e-15 -7.11967e-05 6.91213e-16 0)
(0.000341952 -0.000118029 -2.13859e-15 -0.000140757 -1.22335e-15 0)
(0.000115099 -7.69669e-05 1.2322e-15 -6.92795e-06 -2.88427e-16 0)
(0.000197564 -3.92439e-05 -5.45896e-16 -7.7699e-05 -4.60464e-16 0)
(0.00010571 -8.51476e-05 -3.94107e-16 -2.74712e-06 -2.9478e-16 0)
(0.000135489 -8.37668e-05 -8.0231e-17 -1.77326e-05 -3.42807e-16 0)
(0.000110069 -0.00013664 -2.92735e-16 -2.96634e-05 -1.94542e-16 0)
(0.000119865 -0.000101517 7.71952e-16 -0.000105799 1.40221e-15 0)
(0.000342302 -9.08083e-05 6.16369e-16 -0.000138563 -4.6663e-16 0)
(0.000588733 0.000114185 -4.40213e-15 -0.000270321 -1.82281e-15 0)
(-6.29659e-07 0.000116046 2.18467e-16 -0.000119324 -4.27718e-16 0)
(4.25279e-05 -1.13933e-05 3.0195e-16 -0.000119677 1.33526e-15 0)
(2.3062e-05 -7.52379e-05 2.54788e-17 -1.81109e-05 -8.00044e-17 0)
(0.000361546 0.000181817 -7.54063e-16 -0.000127764 1.89898e-15 0)
(0.000613915 1.4491e-05 -8.62117e-15 -0.000285726 1.18612e-15 0)
(9.86967e-05 -4.97169e-05 -3.27429e-16 6.78999e-06 1.20702e-18 0)
(8.52563e-05 -1.71767e-05 1.03541e-16 1.68154e-05 -4.90325e-16 0)
(-6.65115e-06 -1.63282e-05 -4.22839e-17 -5.07152e-05 -1.61368e-16 0)
(0.000441765 -5.03036e-05 -1.88895e-15 -0.000186235 2.85274e-15 0)
(0.000257471 -0.000153476 8.96093e-16 -0.000113216 -1.35485e-15 0)
(0.000244329 -2.78482e-05 -2.23834e-15 -0.000103472 -6.86673e-16 0)
(0.000170318 -0.000118918 2.14238e-15 -5.01213e-05 1.08714e-15 0)
(0.000148653 -6.86142e-05 -1.71412e-15 -2.82975e-05 2.0715e-16 0)
(0.000236784 -6.92998e-05 -2.07028e-15 -9.46839e-05 -2.11758e-18 0)
(6.26781e-05 -4.52304e-05 8.13152e-17 -0.000106403 -6.04443e-17 0)
(0.000128998 -8.74889e-06 -7.28042e-16 1.41057e-05 6.88224e-16 0)
(0.000176662 -4.91225e-06 1.61546e-16 -7.45344e-05 -2.81215e-18 0)
(0.00035133 -4.47712e-05 1.08258e-15 -0.000147422 -8.21995e-16 0)
(0.000139794 -4.32795e-05 -1.60462e-16 -1.17395e-05 1.3853e-16 0)
(0.000129741 -2.73781e-06 -9.09646e-16 3.07439e-05 2.76208e-16 0)
(0.000173628 -1.28297e-06 -7.26415e-17 -7.41184e-05 -2.12097e-17 0)
(0.000230261 -0.000148147 -2.58582e-16 -9.5037e-05 -1.60293e-16 0)
(0.000135414 -0.000144972 -9.21572e-17 -6.15808e-05 3.83189e-16 0)
(0.000148723 -9.52266e-05 4.09286e-16 -3.1697e-05 -1.90582e-17 0)
(0.000286444 -0.000129925 -2.02936e-15 -0.00017829 5.87638e-16 0)
(0.000215481 -0.000127413 -1.08691e-15 -7.42097e-05 -6.34131e-17 0)
(7.85114e-05 -0.000103482 4.73254e-16 -1.50577e-06 2.24798e-16 0)
(0.00017908 -5.13364e-05 -9.32956e-16 -5.84123e-05 -2.6629e-16 0)
(0.000133266 -4.72824e-05 3.17129e-16 -8.60912e-06 -2.2912e-16 0)
(0.000677596 -2.48519e-05 6.6795e-15 -0.000422272 -1.63335e-15 0)
(3.02087e-05 -5.90565e-05 -6.72205e-17 -7.68102e-05 4.01849e-16 0)
(0.000315912 -0.000136084 -2.46033e-15 -0.000130093 -1.56664e-15 0)
(9.73285e-05 -6.73124e-05 -2.42861e-16 4.588e-06 -1.26297e-16 0)
(0.0002189 -8.39811e-05 3.42066e-16 -8.4471e-05 7.64955e-17 0)
(2.83007e-05 -7.38821e-05 1.24141e-16 -5.35258e-07 -1.71753e-16 0)
(6.0965e-05 -4.95265e-05 1.73472e-16 -9.45166e-05 1.99358e-16 0)
(0.00015494 -4.61274e-05 -7.22079e-16 -2.98729e-05 -1.44758e-16 0)
(0.000311121 -0.000117214 7.04731e-18 -0.000126237 9.48677e-16 0)
(0.000145963 -0.000120721 -5.96853e-16 -3.49926e-05 3.77383e-16 0)
(0.000137156 -0.000137971 3.08998e-17 -3.54954e-05 -8.60967e-17 0)
(0.000527836 -2.70732e-05 -3.00324e-15 -0.000292147 1.95726e-15 0)
(9.66475e-05 -0.000144055 7.66531e-16 -0.00015681 -8.89723e-16 0)
(0.000110051 -3.76136e-05 -1.21973e-16 4.29723e-06 -4.3836e-16 0)
(0.000211347 -4.5722e-05 -8.80914e-16 -8.38521e-05 6.01478e-16 0)
(0.000132459 -1.66141e-05 -4.70544e-16 9.95743e-06 6.91708e-17 0)
(0.000180108 -1.80915e-05 -3.98444e-16 -7.0117e-05 7.08848e-16 0)
(0.000171421 -0.000136282 1.23707e-15 -0.000102257 -1.64324e-17 0)
(0.000456782 -9.44003e-05 -4.0972e-15 -0.000215809 3.13551e-15 0)
(0.000277915 -7.82567e-05 5.62701e-16 -0.000114788 -2.10183e-16 0)
(5.85258e-05 -5.53991e-05 3.25261e-18 1.91006e-05 -6.15158e-17 0)
(0.000160227 -7.16517e-05 -3.73508e-16 -3.74268e-05 -1.37867e-16 0)
(0.000127506 -7.19524e-05 2.40693e-16 -1.24207e-05 4.67956e-16 0)
(0.000621177 0.000215974 -8.70845e-15 -0.000225063 -2.42536e-15 0)
(0.000212108 -0.000145044 1.14058e-15 -7.9742e-05 8.8753e-16 0)
(0.000141163 -3.13592e-05 -3.78387e-16 -6.97834e-06 5.90092e-16 0)
(0.000167681 -3.08894e-05 5.12286e-16 -4.92089e-05 1.00221e-16 0)
(0.000187732 -7.99576e-05 -1.48265e-15 -6.26493e-05 -4.12251e-16 0)
(0.00127135 -0.000411412 7.14354e-15 -0.000791714 -3.41659e-15 0)
(7.62889e-05 -0.000123357 2.71593e-16 -2.05227e-05 -2.4536e-16 0)
(2.83164e-05 -5.34646e-05 -1.31188e-16 2.17428e-05 -4.37556e-17 0)
(-1.66395e-06 -4.4875e-05 -4.22839e-17 -3.55937e-05 -1.422e-16 0)
(2.56084e-05 2.27137e-06 -3.57787e-17 -0.000152917 1.9846e-16 0)
(7.39613e-05 -0.000108177 -2.56414e-16 -6.07876e-05 3.60955e-16 0)
(3.82836e-05 2.18393e-05 1.50162e-16 -0.000153047 -5.20756e-16 0)
(0.000191236 -0.000111895 9.90961e-16 -6.15917e-05 -2.2645e-16 0)
(9.77105e-05 -9.23779e-05 3.98986e-16 -5.13791e-07 6.58267e-16 0)
(0.00041382 -9.12977e-05 6.00865e-15 -0.000178496 -3.13914e-15 0)
(0.000617995 0.000141138 5.24849e-15 -0.000327404 3.70526e-16 0)
(0.000317348 -8.09687e-05 -1.88651e-16 -0.000133409 -6.36749e-16 0)
(0.000123032 -2.32303e-05 -3.25803e-16 4.34292e-06 3.42134e-16 0)
(0.000191215 -2.3338e-05 1.86862e-15 -7.78381e-05 -1.25954e-16 0)
(-2.00123e-05 2.54164e-05 -2.94903e-16 -9.57047e-05 -7.56638e-16 0)
(8.78398e-05 -3.40139e-05 1.11673e-16 1.27127e-05 -1.54764e-16 0)
(0.000234873 -4.98368e-05 -8.78204e-16 -9.52871e-05 -2.24498e-16 0)
(3.86541e-05 -9.52367e-05 -5.52943e-17 -2.73361e-05 -2.02466e-16 0)
(0.000282526 -0.000137836 5.39391e-17 -0.000140157 -6.06679e-16 0)
(0.000190499 -0.000148481 -3.25261e-18 -8.59748e-05 -8.12728e-16 0)
(0.000444301 -0.000113593 -2.42401e-15 -0.000321169 -3.03075e-15 0)
(0.000468755 -8.60894e-05 5.69206e-17 -0.000209165 -1.82099e-15 0)
(0.000288835 -0.000273271 6.5269e-16 -0.000417019 -5.91974e-15 0)
(0.000145504 -5.58771e-05 -3.91939e-16 -2.12917e-05 -3.31423e-16 0)
(0.000181886 -9.85862e-05 1.99331e-15 -5.571e-05 -2.75959e-16 0)
(0.000125108 -8.94154e-05 -5.61617e-16 -1.39408e-05 -5.68999e-16 0)
(2.07453e-06 -3.98072e-05 -3.90313e-17 7.99671e-06 2.76112e-17 0)
(5.54059e-05 -9.94172e-05 3.64292e-16 7.37338e-07 -2.07875e-16 0)
(0.000154005 -0.000109023 1.42735e-15 -0.00012336 1.45825e-16 0)
(0.000147774 -2.58581e-05 -3.36103e-17 -1.79052e-05 -1.26875e-16 0)
(0.000565737 -4.09584e-05 2.12504e-16 -0.000269119 1.76955e-15 0)
(0.00028363 -0.000138159 8.34836e-17 -0.000113781 -3.38949e-16 0)
(0.00104481 -7.58473e-05 1.68282e-15 -0.000385561 4.62521e-15 0)
(0.000263777 -4.67506e-05 -1.03108e-15 -0.000110823 -4.65817e-16 0)
(6.84948e-05 -2.69617e-05 7.53521e-17 2.07343e-05 8.99062e-17 0)
(0.000162926 -0.000132224 -2.60534e-15 -4.71334e-05 -2.8196e-16 0)
(0.000249157 -0.000133602 -1.0842e-18 -9.73948e-05 -2.20576e-16 0)
(0.000120249 -0.000122782 -9.12898e-16 -2.21802e-05 3.93316e-16 0)
(2.50367e-05 4.76794e-05 2.3744e-16 -0.000135724 -4.24194e-16 0)
(0.000164514 -5.55131e-05 1.05005e-15 -4.3635e-05 2.11678e-16 0)
(0.000170728 -1.67737e-05 1.71954e-15 -6.06076e-05 -1.25996e-16 0)
(0.000135744 -1.76044e-05 5.74627e-17 8.54673e-06 2.89626e-16 0)
(0.00043336 -9.85536e-05 3.99474e-15 -0.000236063 1.14681e-15 0)
(0.000384931 -7.65199e-05 2.33103e-16 -0.000158677 3.3407e-16 0)
(4.92133e-05 -5.62636e-05 2.15756e-16 -9.09851e-05 -4.23178e-16 0)
(0.000146801 -7.97968e-05 -9.70361e-17 -2.72099e-05 4.51812e-16 0)
(0.000130427 -9.25701e-06 -1.04897e-15 1.84201e-05 -2.07352e-16 0)
(0.000175065 -5.36025e-06 -7.47015e-16 -7.1444e-05 3.78217e-16 0)
(0.000161497 -0.000108895 -4.52112e-16 -4.23088e-05 -3.63466e-16 0)
(0.000158771 -2.56462e-05 -8.29415e-16 -3.53825e-05 -5.52138e-17 0)
(5.36623e-06 -1.60682e-05 1.0842e-17 -9.35734e-05 2.11038e-16 0)
(9.40911e-05 -0.000123249 -5.60533e-16 -1.62816e-05 -1.31011e-16 0)
(0.000263564 -0.000111537 -1.09504e-15 -0.000103858 -7.66065e-16 0)
(0.000231081 -0.000109055 -3.71881e-16 -8.32464e-05 -8.97347e-17 0)
(3.67791e-05 -3.54954e-05 5.42101e-17 2.48414e-05 1.12528e-16 0)
(4.94447e-05 -7.07337e-05 2.16298e-16 1.64605e-05 -1.91294e-16 0)
(0.000110536 -6.06713e-05 1.34983e-16 -9.84255e-07 -3.32342e-16 0)
(8.20455e-05 -7.48972e-05 5.80048e-16 8.55214e-06 1.14218e-16 0)
(0.000124892 -5.44414e-05 -1.91362e-16 -5.51919e-06 -1.63615e-16 0)
(0.000151644 -0.000144297 8.80372e-16 -5.0594e-05 -1.91887e-16 0)
(0.000187026 -0.000142275 9.90419e-16 -6.20064e-05 1.01707e-16 0)
(0.000167039 -8.48401e-05 -1.82471e-15 -4.42471e-05 -1.49167e-16 0)
(0.000175696 -3.40318e-05 5.85469e-16 -6.10007e-05 -2.34052e-16 0)
(0.000135091 -3.23411e-05 -1.66967e-16 -9.79793e-07 1.38128e-16 0)
(0.000601302 7.29319e-05 -1.41895e-15 -0.000301151 -4.09232e-15 0)
(0.000534446 0.000179562 3.94717e-16 -0.000250173 3.57516e-16 0)
(-7.02412e-05 4.27182e-05 1.32869e-15 -8.30658e-05 -7.82387e-16 0)
(0.000192933 -5.84937e-05 -3.34476e-16 -6.91253e-05 -7.39968e-17 0)
(9.92559e-05 -1.83672e-05 3.41524e-16 9.98206e-06 -4.81469e-17 0)
(9.77651e-05 -9.79283e-05 4.2067e-16 -8.32533e-05 6.58314e-17 0)
(0.000222447 -2.58435e-05 -5.62701e-16 -9.39506e-05 2.60412e-16 0)
(0.000552737 -4.97455e-05 4.4642e-15 -0.00024061 -2.05131e-15 0)
(0.000211273 -6.96509e-05 -2.15756e-16 -8.04405e-05 9.19573e-16 0)
(7.95755e-05 -0.000119958 -2.11419e-17 -3.95089e-05 1.68644e-16 0)
(0.000128632 -1.35702e-05 2.10335e-16 8.10978e-06 4.13716e-16 0)
(0.000184922 -1.2018e-05 -2.49366e-16 -7.53492e-05 4.00308e-16 0)
(0.000125189 -0.000102675 1.22135e-15 -1.72237e-05 5.20417e-17 0)
(0.000174617 -6.82136e-05 5.39933e-16 -5.34388e-05 4.77413e-16 0)
(0.000414422 -0.000197425 2.64708e-15 -0.000393603 -1.26852e-15 0)
(0.00062703 5.68026e-05 -2.17247e-15 -0.000389319 7.86047e-18 0)
(0.000197245 -0.000129317 -5.82759e-16 -0.00012534 3.19433e-16 0)
(0.000352632 0.000130185 4.34596e-16 -8.39844e-05 -1.07444e-15 0)
(0.000317953 -4.89179e-05 -7.26415e-17 -0.00013261 3.51688e-17 0)
(0.000230214 -0.000143053 -1.29074e-15 -0.000182486 -1.14831e-15 0)
(6.512e-05 5.91331e-05 -1.15468e-16 -0.000233536 -5.51215e-16 0)
(0.000145011 -4.28312e-05 -2.52619e-16 -1.82607e-05 8.69162e-17 0)
(0.000122234 -0.000128281 -8.43509e-16 -5.93532e-05 2.13385e-16 0)
(0.00013827 -6.47118e-05 -7.58942e-18 -1.7473e-05 -2.48608e-16 0)