/*--------------------------------*- C++ -*----------------------------------*\
| =========                 |                                                 |
| \\      /  F ield         | OpenFOAM: The Open Source CFD Toolbox           |
|  \\    /   O peration     | Version:  v2012                                 |
|   \\  /    A nd           | Website:  www.openfoam.com                      |
|    \\/     M anipulation  |                                                 |
\*---------------------------------------------------------------------------*/
FoamFile
{
    version     2.0;
    format      ascii;
    class       pointScalarField;
    location    "19";
    object      pEpsilonEq;
}
// * * * * * * * * * * * * * * * * * * * * * * * * * * * * * * * * * * * * * //

dimensions      [0 0 0 0 0 0 0];


internalField   nonuniform List<scalar> 
530
(
0.000307557
7.43559e-05
0.000147032
0.000220862
0.00420146
0.000307557
7.43559e-05
0.000147032
0.000220862
0.00420146
0.000174757
7.64111e-05
2.76754e-05
2.2904e-05
2.40699e-05
2.33553e-05
2.79261e-05
3.39612e-05
4.66779e-05
5.86316e-05
7.07303e-05
7.90608e-05
8.19862e-05
7.94798e-05
8.05376e-05
8.14414e-05
9.02344e-05
9.73198e-05
0.000111517
0.000124954
0.000133384
0.000143123
0.000145534
0.000148033
0.000151422
0.000163103
0.000177359
0.00019958
0.000219893
0.000254041
0.000282187
0.000325126
0.000360371
0.000418634
0.000490063
0.000481886
0.000538509
0.000567719
0.000528052
0.00046405
0.00029842
0.000178918
0.000381589
0.000669847
0.00156818
0.00310145
0.00412309
0.00118461
5.00726e-05
0.000199895
0.000242892
0.00030152
0.000313946
0.000174757
7.64111e-05
2.76754e-05
2.2904e-05
2.40699e-05
2.33553e-05
2.79261e-05
3.39612e-05
4.66779e-05
5.86316e-05
7.07303e-05
7.90608e-05
8.19862e-05
7.94798e-05
8.05376e-05
8.14414e-05
9.02344e-05
9.73198e-05
0.000111517
0.000124954
0.000133384
0.000143123
0.000145534
0.000148033
0.000151422
0.000163103
0.000177359
0.00019958
0.000219893
0.000254041
0.000282187
0.000325126
0.000360371
0.000418634
0.000490063
0.000481886
0.000538509
0.000567719
0.000528052
0.00046405
0.00029842
0.000178918
0.000381589
0.000669847
0.00156818
0.00310145
0.00412309
0.00118461
5.00726e-05
0.000199895
0.000242892
0.00030152
0.000313946
0.000203873
0.000156406
0.000309515
0.000227676
0.000130656
0.000154702
0.00010685
0.00064133
9.33231e-05
0.000307953
0.000100311
0.000205158
8.74124e-05
0.000107022
0.000126334
0.000293048
0.000178086
0.00019096
0.000480909
0.000222452
8.40667e-05
0.000183415
8.73146e-05
0.000150504
0.000224192
0.00041125
0.000250055
7.26617e-05
0.000146776
0.00012207
0.000564212
0.000241639
0.000103088
0.000136059
0.000176521
0.00129228
0.00015414
6.40635e-05
5.67715e-05
0.000111497
0.000147224
0.00011959
0.000199672
0.000125076
0.000366351
0.000577814
0.000283245
8.49584e-05
0.000162125
6.52605e-05
6.74343e-05
0.000204479
0.000116444
0.00029519
0.00023683
0.000462822
0.000412991
0.000517177
0.000123089
0.000183154
0.000135934
4.62145e-05
0.000120519
0.000203951
0.000109157
0.000494308
0.000285134
0.000859038
0.000228667
5.11297e-05
0.000198769
0.000257665
0.000167126
0.000114049
0.000142037
0.000139862
9.0109e-05
0.000408229
0.000334661
0.000104721
0.00014203
8.22062e-05
0.000146584
0.000176734
0.00012302
6.68713e-05
0.000158073
0.000253813
0.000226317
4.63606e-05
8.66964e-05
0.000101917
0.000100955
0.00010585
0.000206229
0.000222258
0.000161719
0.000147245
9.77995e-05
0.000537193
0.000507127
7.141e-05
0.000170753
6.65755e-05
0.000154054
0.000189985
0.000473207
0.000191666
0.000155215
8.46462e-05
0.000155264
0.000148701
0.000158657
0.00051928
0.000595737
0.000239915
0.000306857
0.00027327
0.000290366
0.000193767
0.000114529
0.00018268
0.000123653
0.00191533
0.000691911
0.000358826
0.000225319
9.42546e-05
0.000159027
0.00327051
4.12435e-05
9.18758e-05
3.16392e-05
0.000208878
9.41018e-05
0.000321898
0.00022966
4.08764e-05
7.36616e-05
0.00067476
0.000204997
9.60152e-05
0.000130577
0.000173012
0.000114005
7.53559e-05
0.00206167
0.000133748
0.000451454
0.000204226
0.000144654
0.000648248
7.75429e-05
7.71325e-05
0.000279691
0.00012277
0.000273671
0.000110314
0.000389409
0.000178654
0.000431696
6.33644e-05
0.00020659
0.000114953
0.000349504
0.000361238
0.000142725
0.000144307
8.2821e-05
0.00016711
0.000135896
9.28009e-05
0.000277506
0.000255718
0.000133255
0.00019339
0.000317398
0.000119005
0.000170019
0.000121515
0.000136829
0.000179222
0.000175322
0.000304441
0.000524061
0.000155725
9.8003e-05
9.00858e-05
0.000360496
0.000531067
8.57187e-05
5.57888e-05
3.69912e-05
0.000376949
0.000281995
0.000208711
0.000191464
0.000135366
0.000212768
0.000111667
8.23258e-05
0.000149078
0.00030035
0.000109424
7.83484e-05
0.000146839
0.000258008
0.000203873
0.000156406
0.000309515
0.000227676
0.000130656
0.000154702
0.00010685
0.00064133
9.33231e-05
0.000307953
0.000100311
0.000205158
8.74124e-05
0.000107022
0.000126334
0.000293048
0.000178086
0.00019096
0.000480909
0.000222452
8.40667e-05
0.000183415
8.73146e-05
0.000150504
0.000224192
0.00041125
0.000250055
7.26617e-05
0.000146776
0.00012207
0.000564212
0.000241639
0.000103088
0.000136059
0.000176521
0.00129228
0.00015414
6.40635e-05
5.67715e-05
0.000111497
0.000147224
0.00011959
0.000199672
0.000125076
0.000366351
0.000577814
0.000283245
8.49584e-05
0.000162125
6.52605e-05
6.74343e-05
0.000204479
0.000116444
0.00029519
0.00023683
0.000462822
0.000412991
0.000517177
0.000123089
0.000183154
0.000135934
4.62145e-05
0.000120519
0.000203951
0.000109157
0.000494308
0.000285134
0.000859038
0.000228667
5.11297e-05
0.000198769
0.000257665
0.000167126
0.000114049
0.000142037
0.000139862
9.0109e-05
0.000408229
0.000334661
0.000104721
0.00014203
8.22062e-05
0.000146584
0.000176734
0.00012302
6.68713e-05
0.000158073
0.000253813
0.000226317
4.63606e-05
8.66964e-05
0.000101917
0.000100955
0.00010585
0.000206229
0.000222258
0.000161719
0.000147245
9.77995e-05
0.000537193
0.000507127
7.141e-05
0.000170753
6.65755e-05
0.000154054
0.000189985
0.000473207
0.000191666
0.000155215
8.46462e-05
0.000155264
0.000148701
0.000158657
0.00051928
0.000595737
0.000239915
0.000306857
0.00027327
0.000290366
0.000193767
0.000114529
0.00018268
0.000123653
0.00191533
0.000691911
0.000358826
0.000225319
9.42546e-05
0.000159027
0.00327051
4.12435e-05
9.18758e-05
3.16392e-05
0.000208878
9.41018e-05
0.000321898
0.00022966
4.08764e-05
7.36616e-05
0.00067476
0.000204997
9.60152e-05
0.000130577
0.000173012
0.000114005
7.53559e-05
0.00206167
0.000133748
0.000451454
0.000204226
0.000144654
0.000648248
7.75429e-05
7.71325e-05
0.000279691
0.00012277
0.000273671
0.000110314
0.000389409
0.000178654
0.000431696
6.33644e-05
0.00020659
0.000114953
0.000349504
0.000361238
0.000142725
0.000144307
8.2821e-05
0.00016711
0.000135896
9.28009e-05
0.000277506
0.000255718
0.000133255
0.00019339
0.000317398
0.000119005
0.000170019
0.000121515
0.000136829
0.000179222
0.000175322
0.000304441
0.000524061
0.000155725
9.8003e-05
9.00858e-05
0.000360496
0.000531067
8.57187e-05
5.57888e-05
3.69912e-05
0.000376949
0.000281995
0.000208711
0.000191464
0.000135366
0.000212768
0.000111667
8.23258e-05
0.000149078
0.00030035
0.000109424
7.83484e-05
0.000146839
0.000258008
)
;

boundaryField
{
    back
    {
        type            empty;
    }
    front
    {
        type            empty;
    }
    down
    {
        type            calculated;
    }
    right
    {
        type            calculated;
    }
    up
    {
        type            calculated;
    }
    left
    {
        type            calculated;
    }
    hole
    {
        type            calculated;
    }
}


// ************************************************************************* //
