/*--------------------------------*- C++ -*----------------------------------*\
| =========                 |                                                 |
| \\      /  F ield         | OpenFOAM: The Open Source CFD Toolbox           |
|  \\    /   O peration     | Version:  v2012                                 |
|   \\  /    A nd           | Website:  www.openfoam.com                      |
|    \\/     M anipulation  |                                                 |
\*---------------------------------------------------------------------------*/
FoamFile
{
    version     2.0;
    format      ascii;
    class       volScalarField;
    location    "19";
    object      sigmaEq;
}
// * * * * * * * * * * * * * * * * * * * * * * * * * * * * * * * * * * * * * //

dimensions      [1 -1 -2 0 0 0 0];


internalField   nonuniform List<scalar> 
470
(
5.19724e+06
1.73725e+06
1.5494e+07
7.00747e+06
1.13592e+07
1.28423e+07
1.30028e+07
1.14424e+07
2.71245e+07
1.59741e+07
2.37689e+07
3.65132e+07
3.50586e+07
6.80881e+06
3.60221e+07
2.16044e+07
1.57462e+07
5.52632e+06
4.05448e+06
5.20288e+06
2.1466e+07
9.67053e+06
1.58648e+07
6.97184e+06
2.34447e+07
1.07296e+07
1.85563e+07
1.71339e+07
1.25519e+07
6.03892e+06
5.2111e+06
4.05942e+07
1.59088e+07
1.68387e+07
1.37603e+07
1.30159e+07
3.86037e+07
5.15607e+06
5.7569e+06
5.82318e+06
1.66999e+07
3.34043e+06
4.09908e+07
1.66351e+07
1.91702e+07
4.7827e+07
8.66871e+06
2.2868e+07
2.02447e+07
2.28284e+07
4.70009e+07
1.01285e+07
6.74367e+06
4.25138e+06
8.69885e+06
9.46643e+06
2.82146e+07
5.47887e+06
1.93949e+07
1.76679e+07
1.15197e+07
2.43801e+07
3.21864e+07
3.35809e+07
1.29663e+07
5.69831e+07
8.84281e+06
1.0433e+07
8.84937e+06
1.94655e+07
2.35139e+06
1.53769e+07
3.22556e+07
1.45773e+07
5.19213e+07
8.29778e+06
1.38904e+07
1.3689e+07
1.60923e+07
7.07352e+07
1.83433e+07
4.13484e+07
1.64946e+07
5.83662e+06
2.6903e+07
9.16879e+06
4.73062e+07
1.29655e+07
5.2515e+07
2.83992e+07
4.53649e+07
3.86219e+07
1.53814e+07
1.37475e+07
3.46839e+07
3.6729e+07
1.19701e+07
1.35229e+07
1.29057e+07
1.40681e+07
9.35544e+06
2.2314e+07
3.00252e+07
7.94593e+06
7.51229e+06
1.16926e+07
1.13531e+07
1.107e+07
1.7562e+07
5.50415e+07
5.10828e+07
2.73103e+07
7.95942e+06
1.24326e+07
8.34156e+06
1.70802e+07
6.44936e+06
3.02335e+07
1.17575e+07
2.27047e+06
1.46568e+07
8.0842e+06
6.04729e+06
6.6634e+06
1.13613e+07
1.98697e+07
1.85628e+07
9.76436e+06
3.22944e+07
7.91221e+06
9.28783e+06
1.13041e+07
1.27845e+07
9.48096e+06
9.62008e+06
1.48156e+07
1.53145e+07
1.0506e+07
4.04115e+07
1.20107e+07
1.23198e+07
2.01073e+07
1.05792e+07
1.23569e+07
1.22994e+07
5.14034e+06
7.01305e+06
3.06277e+07
1.0574e+07
3.55578e+07
5.53285e+06
6.56972e+06
9.37053e+06
8.4688e+06
2.59105e+07
2.18446e+07
2.70034e+07
1.05105e+07
1.12067e+07
1.51885e+07
1.1969e+07
3.01249e+07
3.15484e+07
3.86225e+07
5.20089e+07
9.3976e+06
1.27902e+07
3.18338e+07
1.73701e+07
1.63274e+07
1.22378e+07
1.20742e+07
1.24063e+07
1.34976e+07
1.25177e+07
1.15492e+07
5.33778e+06
5.44263e+06
2.00654e+07
1.36983e+07
1.43133e+07
4.38667e+07
1.56605e+07
1.96123e+07
1.95735e+07
2.76597e+07
1.32093e+07
2.8931e+06
4.06623e+07
7.9219e+06
1.2356e+07
1.06815e+07
1.7872e+07
1.70295e+07
5.32819e+06
5.85858e+06
1.62003e+07
1.46269e+07
1.47118e+07
1.65282e+08
1.57275e+06
1.22456e+06
6.77616e+07
8.13035e+06
1.91154e+07
1.94971e+07
4.77733e+06
4.9752e+06
7.3135e+06
2.84432e+07
9.37819e+06
1.63095e+07
1.73216e+07
7.31154e+06
2.88214e+07
2.44105e+07
1.08517e+07
8.86491e+06
9.09848e+06
1.32082e+07
1.55139e+07
7.49059e+06
1.34449e+07
7.67183e+06
1.91211e+07
1.31489e+07
2.51674e+07
4.40927e+06
6.17294e+07
4.18813e+07
2.14989e+07
8.73297e+06
6.63152e+06
1.16177e+07
1.92566e+07
1.34585e+07
1.46503e+07
1.09903e+07
1.06105e+07
7.5774e+06
7.69261e+06
7.21506e+06
1.15754e+07
4.47544e+07
6.25685e+07
3.71622e+07
4.13952e+07
1.07392e+07
2.71172e+06
1.37024e+07
1.29281e+07
1.73365e+07
6.08345e+06
1.20167e+07
2.2822e+07
4.25809e+06
7.10856e+06
6.80573e+06
1.15188e+07
2.06209e+06
1.71908e+07
5.46735e+07
1.90556e+06
1.53906e+07
6.85772e+06
6.56555e+06
1.20156e+07
5.39047e+06
7.59106e+06
2.02815e+07
1.49982e+07
1.14071e+07
4.54795e+07
6.31853e+06
2.30697e+07
4.17893e+06
1.00179e+07
1.73529e+07
2.70499e+07
1.09199e+07
1.51691e+07
2.16397e+07
1.24798e+07
2.20424e+07
6.70085e+06
7.35195e+06
2.18096e+07
4.29344e+07
9.31788e+06
6.14988e+06
7.36925e+06
9.11508e+06
6.4027e+06
2.67129e+07
2.5087e+07
1.02778e+07
9.2969e+06
1.34577e+07
2.32391e+07
6.19042e+06
1.08389e+07
2.04223e+07
1.03706e+07
1.02429e+07
5.35377e+07
1.58308e+07
1.16515e+07
1.13551e+07
7.879e+06
9.43049e+06
2.78916e+07
1.73002e+07
1.30978e+08
1.20232e+07
9.45454e+06
2.97662e+07
9.69931e+06
5.89502e+06
2.73011e+07
9.60403e+06
2.50511e+07
8.55082e+06
1.05156e+07
8.04504e+06
2.56009e+07
4.65108e+06
1.62273e+07
1.24599e+07
9.20882e+06
1.05546e+07
9.93418e+06
8.02982e+06
1.79124e+07
1.76473e+07
5.34984e+06
1.63221e+07
2.70282e+06
9.08696e+06
4.91479e+07
1.23341e+07
7.40085e+06
4.25962e+07
2.916e+07
8.85188e+06
1.13784e+07
2.35034e+07
4.27756e+07
1.08059e+07
6.4277e+06
1.18402e+07
2.45136e+06
1.3835e+07
2.17498e+07
2.22424e+07
4.33165e+07
5.57535e+06
4.16902e+07
1.52729e+07
6.48715e+06
2.04391e+06
6.63291e+06
7.2251e+06
1.06573e+07
1.75872e+07
2.51029e+07
1.20112e+07
7.3827e+06
4.24551e+07
2.85642e+06
1.17979e+07
9.39858e+06
1.38134e+07
3.22644e+07
7.49583e+06
1.75831e+07
2.62126e+07
9.90186e+06
1.15345e+07
6.09066e+07
1.39459e+07
1.51532e+07
5.45145e+07
1.3007e+07
8.26884e+06
1.05524e+07
7.32766e+07
4.7855e+07
5.27478e+07
2.10466e+07
8.72908e+06
1.28107e+07
5.47782e+06
1.45964e+07
3.48299e+07
1.20625e+07
7.52026e+06
6.65744e+06
1.18192e+07
3.30229e+07
1.77741e+07
3.0234e+07
3.56112e+07
1.52264e+07
5.32352e+06
3.37649e+07
4.34569e+07
2.86887e+07
1.41352e+07
6.19492e+06
5.73838e+06
1.17917e+07
1.19615e+07
4.21709e+06
1.70248e+07
2.86136e+07
9.89016e+06
8.98088e+06
7.80356e+06
4.30666e+07
3.08639e+06
1.50122e+07
4.79711e+06
1.71369e+07
8.37845e+06
1.61262e+07
5.52049e+07
5.09442e+07
1.27425e+07
2.84843e+07
3.22472e+07
2.92343e+07
1.59473e+07
1.99813e+07
2.35099e+07
9.06512e+06
1.46415e+07
7.00914e+06
1.21252e+07
1.10694e+07
1.83738e+07
1.44065e+07
3.25776e+07
7.46825e+06
9.51693e+06
2.29065e+07
1.1674e+07
8.53962e+06
1.36967e+07
4.06745e+06
1.1213e+07
1.78453e+07
2.66469e+07
2.38222e+07
1.12869e+07
1.06767e+07
8.57393e+06
2.23591e+07
2.46107e+07
8.53789e+06
8.565e+06
1.60334e+07
1.39863e+07
6.28141e+06
2.4959e+07
2.24698e+07
2.44268e+07
1.01913e+07
9.06085e+06
2.0486e+07
2.13027e+07
)
;

boundaryField
{
    back
    {
        type            empty;
    }
    front
    {
        type            empty;
    }
    down
    {
        type            calculated;
        value           nonuniform List<scalar> 
15
(
3.34043e+06
2.35139e+06
6.44936e+06
2.27047e+06
2.8931e+06
1.73216e+07
2.06209e+06
1.90556e+06
5.39047e+06
6.19042e+06
2.45136e+06
9.90186e+06
6.65744e+06
6.19492e+06
4.21709e+06
)
;
    }
    right
    {
        type            calculated;
        value           nonuniform List<scalar> 10(8.29778e+06 6.6634e+06 1.13613e+07 9.62008e+06 6.08345e+06 1.20167e+07 7.2251e+06 1.06573e+07 5.73838e+06 1.19615e+07);
    }
    up
    {
        type            calculated;
        value           nonuniform List<scalar> 
20
(
4.05942e+07
1.91702e+07
4.70009e+07
5.47887e+06
1.24326e+07
3.22944e+07
3.15484e+07
3.86225e+07
1.49982e+07
4.54795e+07
1.34577e+07
2.50511e+07
4.91479e+07
2.916e+07
2.22424e+07
4.33165e+07
1.3007e+07
1.18192e+07
1.17917e+07
1.70248e+07
)
;
    }
    left
    {
        type            calculated;
        value           nonuniform List<scalar> 5(2.82146e+07 7.07352e+07 6.77616e+07 4.13952e+07 4.25962e+07);
    }
    hole
    {
        type            calculated;
        value           nonuniform List<scalar> 8(1.29655e+07 2.70034e+07 1.65282e+08 2.84432e+07 2.04223e+07 1.30978e+08 2.51029e+07 2.62126e+07);
    }
}


// ************************************************************************* //
