/*--------------------------------*- C++ -*----------------------------------*\
| =========                 |                                                 |
| \\      /  F ield         | OpenFOAM: The Open Source CFD Toolbox           |
|  \\    /   O peration     | Version:  v2012                                 |
|   \\  /    A nd           | Website:  www.openfoam.com                      |
|    \\/     M anipulation  |                                                 |
\*---------------------------------------------------------------------------*/
FoamFile
{
    version     2.0;
    format      ascii;
    class       volVectorField;
    location    "7";
    object      D;
}
// * * * * * * * * * * * * * * * * * * * * * * * * * * * * * * * * * * * * * //

dimensions      [0 1 0 0 0 0 0];


internalField   nonuniform List<vector> 
470
(
(0.00270382 -1.41978e-05 0)
(0.00278652 -1.16728e-05 0)
(0.00273335 -0.000295806 0)
(0.00331336 -1.75904e-05 0)
(0.00241493 -0.000100575 0)
(0.00299671 -0.00033604 0)
(0.00269532 -0.000104188 0)
(0.00240677 -9.75987e-05 0)
(0.00167431 -0.000456981 0)
(0.00268139 -0.000213017 0)
(0.00177325 -0.000402157 0)
(0.000989974 -0.000943929 0)
(0.0011103 -0.000837169 0)
(0.00320522 -3.2184e-05 0)
(0.00132375 -0.00066951 0)
(0.00223981 -0.000315628 0)
(0.00263945 -0.000201712 0)
(0.00309436 -2.67843e-05 0)
(0.00300549 -1.03484e-05 0)
(0.00273036 -2.15306e-05 0)
(0.00223086 -0.000347022 0)
(0.00332375 -0.00012301 0)
(0.00273926 -0.00032664 0)
(0.00320633 -4.29516e-05 0)
(0.00148243 -0.000577405 0)
(0.00275119 -8.84118e-05 0)
(0.00163597 -0.00047002 0)
(0.00254422 -0.000382333 0)
(0.00304882 -0.000282385 0)
(0.00325872 -1.63545e-05 0)
(0.0027691 -1.54243e-05 0)
(0.00133144 -0.000680289 0)
(0.00264372 -0.000239455 0)
(0.00101408 -0.0011381 0)
(0.00293429 -0.000348694 0)
(0.00306599 -0.0003038 0)
(0.000995184 -0.000893217 0)
(0.00277824 -2.59888e-05 0)
(0.00280693 -2.50039e-05 0)
(0.00265956 -2.7132e-05 0)
(0.00191207 -0.000307306 0)
(0.00296528 -4.11638e-06 0)
(0.000749608 -0.00119221 0)
(0.0020331 -0.000249335 0)
(0.00246383 -0.000394929 0)
(0.000636253 -0.00130268 0)
(0.002669 -5.15416e-05 0)
(0.0016843 -0.000426192 0)
(0.00182019 -0.000361823 0)
(0.00165097 -0.000460682 0)
(0.000843837 -0.00100575 0)
(0.0012545 -0.00098822 0)
(0.00305652 -3.57124e-05 0)
(0.00301027 -1.72179e-05 0)
(0.00334769 -9.31045e-05 0)
(0.00330671 -0.000111808 0)
(2.93613e-05 -0.00185222 0)
(5.66648e-05 -0.00184481 0)
(0.00221729 -0.000201681 0)
(0.00258912 -0.000347011 0)
(0.00283705 -0.000110651 0)
(0.00140302 -0.000626184 0)
(0.00134388 -0.000649139 0)
(0.000979213 -0.0010048 0)
(0.00172161 -0.000760286 0)
(0.000353936 -0.00158839 0)
(0.00268202 -4.491e-05 0)
(0.00326697 -0.000146712 0)
(0.00232366 -0.000156516 0)
(0.00225376 -0.000253134 0)
(0.00271243 -2.25426e-06 0)
(0.0026809 -0.000176504 0)
(0.000944398 -0.00109552 0)
(0.0024739 -0.000133645 0)
(0.000795902 -0.00120877 0)
(0.00346779 -7.91544e-05 0)
(0.00282811 -0.000189535 0)
(0.00283173 -0.000163574 0)
(0.00231186 -0.000168729 0)
(6.7657e-05 -0.00172709 0)
(0.00204664 -0.000241621 0)
(0.000496596 -0.00148818 0)
(0.00266006 -0.000294145 0)
(0.00227193 -0.00020942 0)
(0.00154995 -0.000520162 0)
(0.0034056 -0.000105973 0)
(0.000836368 -0.00112998 0)
(0.00163588 -0.000938038 0)
(0.000603459 -0.00136549 0)
(0.00107996 -0.000953054 0)
(0.000762026 -0.00122448 0)
(0.00109642 -0.000823827 0)
(0.00254591 -0.000128085 0)
(0.00276716 -0.000153612 0)
(0.00123865 -0.000726287 0)
(0.00120291 -0.000737431 0)
(0.00259684 -7.08806e-05 0)
(0.00277709 -0.000129067 0)
(0.00234762 -0.000126817 0)
(0.00286899 -0.000316411 0)
(0.00322876 -9.00793e-05 0)
(0.00174311 -0.000404177 0)
(0.000944289 -0.00114437 0)
(0.00339177 -6.2876e-05 0)
(0.00340879 -4.78541e-05 0)
(0.00318447 -0.000237035 0)
(0.00322165 -0.000208603 0)
(0.00252601 -7.38265e-05 0)
(0.00253877 -0.000167431 0)
(0.000657782 -0.00139492 0)
(0.000572987 -0.00137777 0)
(0.000646562 -0.00136621 0)
(0.00346156 -7.18151e-05 0)
(0.00303139 -0.000354982 0)
(0.00229721 -0.000163748 0)
(0.002366 -0.00018925 0)
(0.00335201 -4.75188e-06 0)
(0.00176256 -0.000489324 0)
(0.00258355 -8.65026e-05 0)
(0.00282354 2.15123e-08 0)
(0.0024939 -0.000108677 0)
(0.00329109 -6.1679e-05 0)
(0.00315528 -2.31424e-05 0)
(0.0035385 -3.26669e-05 0)
(0.00335127 -0.000195599 0)
(0.00226564 -0.00022397 0)
(0.00218974 -0.000230196 0)
(0.00323481 -0.000115358 0)
(0.00168346 -0.000539867 0)
(0.0032504 -5.82358e-05 0)
(0.00257105 -5.52576e-05 0)
(0.0025126 -7.61974e-05 0)
(0.0026225 -0.000109062 0)
(0.00317173 -9.48741e-05 0)
(0.00342489 -0.000113659 0)
(0.00281092 -0.000334879 0)
(0.00252734 -0.000158126 0)
(0.0016523 -0.000733222 0)
(0.000857418 -0.00104987 0)
(0.00316592 -0.000296748 0)
(0.00311459 -0.000304806 0)
(0.00135466 -0.00070892 0)
(0.00318522 -0.000130041 0)
(0.00291347 -0.000141175 0)
(0.00297543 -0.000148962 0)
(0.00272141 -3.07839e-05 0)
(0.00344954 -2.21279e-05 0)
(0.00127022 -0.000725851 0)
(0.00304341 -0.00010383 0)
(0.00103886 -0.0009226 0)
(0.00297397 -2.47559e-05 0)
(0.00340788 -2.02501e-05 0)
(0.00220765 -0.000191283 0)
(0.00340867 -7.80217e-05 0)
(0.000991508 -0.00126516 0)
(0.00216862 -0.000289587 0)
(0.00246611 -0.000279876 0)
(0.00281412 -8.08398e-05 0)
(0.00284805 -9.00331e-05 0)
(0.00276492 -0.000211519 0)
(0.000932219 -0.00123244 0)
(0.00145752 -0.000580136 0)
(0.000276149 -0.00160806 0)
(0.00148054 -0.000616497 0)
(0.000116575 -0.00174724 0)
(0.00200521 -0.000306287 0)
(0.00207982 -0.000247933 0)
(0.00157513 -0.000565387 0)
(0.00238121 -0.000160587 0)
(0.0019249 -0.00031176 0)
(0.00204023 -0.000257277 0)
(0.00304594 -0.00017472 0)
(0.00304786 -0.000198179 0)
(0.00290828 -0.000192698 0)
(0.00296897 -0.000174781 0)
(0.0028947 -0.000110288 0)
(0.00306722 -1.78837e-05 0)
(0.00263216 -1.87152e-05 0)
(0.00147337 -0.000606569 0)
(0.00215333 -0.000195432 0)
(0.00216269 -0.000185428 0)
(0.000752861 -0.00115138 0)
(0.00257714 -0.000153529 0)
(0.00234147 -0.000245901 0)
(0.00233877 -0.000279587 0)
(0.00167314 -0.000466781 0)
(0.00299328 -0.000245663 0)
(0.00265196 -9.17056e-06 0)
(0.000380937 -0.00150667 0)
(0.00315919 -5.38323e-05 0)
(0.00310385 -0.00025681 0)
(0.00274937 -6.4468e-05 0)
(0.00242674 -0.00021646 0)
(0.00250453 -0.000200809 0)
(0.00264121 -2.78823e-05 0)
(0.00299403 -3.62628e-05 0)
(0.00267363 -0.000350448 0)
(0.00283224 -0.000242768 0)
(0.00282125 -0.000273031 0)
(0.000353079 -0.00147106 0)
(0.00273087 -1.5291e-05 0)
(0.00269081 -8.8211e-06 0)
(0.000140563 -0.00159579 0)
(0.00183687 -0.000472358 0)
(0.00241668 -0.000281053 0)
(0.00238215 -0.000349901 0)
(0.00289855 -2.09181e-05 0)
(0.00291609 -2.82001e-05 0)
(0.00176727 -0.000548324 0)
(0.00256244 -0.00011239 0)
(0.00325028 -0.000100737 0)
(0.00265207 -0.00027248 0)
(0.00260668 -4.01126e-05 0)
(0.00306117 -4.89224e-05 0)
(0.0017574 -0.000444221 0)
(0.00186241 -0.000395575 0)
(0.00306436 -0.000117171 0)
(0.00280034 -5.9181e-05 0)
(0.00306616 -7.2363e-05 0)
(0.00183449 -0.000374821 0)
(0.00251577 -0.000134867 0)
(0.00262235 -4.18191e-05 0)
(0.00295214 -0.000269451 0)
(0.00309992 -5.65154e-05 0)
(0.00171331 -0.000445316 0)
(0.00292389 -0.00031435 0)
(0.00178852 -0.000384126 0)
(0.00255992 -6.74591e-05 0)
(0.000314962 -0.0016366 0)
(0.000793392 -0.00107008 0)
(0.00183374 -0.00035042 0)
(0.00248793 -0.000106928 0)
(0.00353505 -1.76608e-05 0)
(0.0032801 -0.000264529 0)
(0.00243738 -0.000320559 0)
(0.00270231 -0.00012556 0)
(0.00203429 -0.000546189 0)
(0.00328679 -0.000186199 0)
(0.00334293 -0.00017964 0)
(0.00349608 -4.77179e-05 0)
(0.00343588 -6.19006e-05 0)
(0.00346348 -3.48962e-05 0)
(0.00323136 -0.000243502 0)
(0.000285043 -0.00160369 0)
(0.000123033 -0.00168207 0)
(0.000210343 -0.00170745 0)
(4.42259e-05 -0.00180023 0)
(0.00326897 -0.000162089 0)
(0.00292252 -8.92628e-06 0)
(0.00291138 -0.000221038 0)
(0.00297779 -0.000221367 0)
(0.00257868 -0.000323617 0)
(0.00356595 -1.79827e-05 0)
(0.00333041 -0.000240701 0)
(0.00207504 -0.000305882 0)
(0.0028528 -1.08442e-05 0)
(0.0028745 -3.90984e-05 0)
(0.00352276 -3.12927e-05 0)
(0.00330447 -0.000223282 0)
(0.00276106 1.69441e-06 0)
(0.00243427 -0.000181727 0)
(0.000551606 -0.00141834 0)
(0.00267644 -5.91811e-06 0)
(0.00212663 -0.000480547 0)
(0.00278246 -4.19486e-05 0)
(0.00347338 -2.66118e-05 0)
(0.00321192 -0.000269603 0)
(0.003138 -5.23565e-06 0)
(0.00282313 -4.17806e-05 0)
(0.00239378 -0.000381249 0)
(0.00275095 -0.000385388 0)
(0.00217771 -0.000378555 0)
(0.00104783 -0.000847721 0)
(0.00197283 -0.000396376 0)
(8.15747e-05 -0.001798 0)
(0.00149757 -0.000758926 0)
(0.00130018 -0.000858161 0)
(0.00250211 -0.000254533 0)
(0.0015577 -0.000510553 0)
(0.00316694 -0.000149531 0)
(0.0026369 -0.000163869 0)
(0.00203985 -0.000304042 0)
(0.00263771 -8.12363e-05 0)
(0.00209168 -0.000269871 0)
(0.00331644 -3.16495e-05 0)
(0.00336696 -3.42498e-05 0)
(0.00228984 -0.000354939 0)
(0.000449265 -0.00146546 0)
(0.0030895 -8.5463e-05 0)
(0.00253839 -5.4307e-05 0)
(0.00179176 -0.000608562 0)
(0.00210267 -0.000358444 0)
(0.00258295 -3.97946e-05 0)
(0.00185906 -0.000454245 0)
(0.00191793 -0.000350964 0)
(0.00297861 -8.97808e-05 0)
(0.00315307 -8.12588e-05 0)
(0.00288348 -0.000375602 0)
(0.00188408 -0.000350698 0)
(0.00323219 -5.83839e-06 0)
(0.00319532 -0.000155764 0)
(0.0019998 -0.000731567 0)
(0.00331018 -0.000160724 0)
(0.00337515 -0.000140518 0)
(0.000512587 -0.00145873 0)
(0.00224778 -0.000158085 0)
(0.00310469 -0.00019451 0)
(0.00309265 -0.000158568 0)
(0.00239076 -0.000108559 0)
(0.00240754 -9.67145e-05 0)
(0.00120465 -0.000787355 0)
(0.00137235 -0.00072669 0)
(0.000826662 -0.00136025 0)
(0.0029329 -0.00012384 0)
(0.00215977 -0.00027052 0)
(0.00123716 -0.000739588 0)
(0.00203591 -0.000312955 0)
(0.0025749 -5.13554e-05 0)
(0.0017171 -0.000479235 0)
(0.00284093 -6.40212e-05 0)
(0.00210125 -0.000442424 0)
(0.0028891 -5.91298e-05 0)
(0.00292967 -9.26706e-05 0)
(0.00318999 -6.63265e-05 0)
(0.00192611 -0.000382031 0)
(0.00309016 -8.73048e-06 0)
(0.0026851 -0.000376486 0)
(0.00225585 -0.000155252 0)
(0.00234841 -0.000119292 0)
(0.0023735 -0.000203536 0)
(0.00270554 -6.72648e-05 0)
(0.00246889 -0.000144555 0)
(0.00215647 -0.000207099 0)
(0.00214672 -0.000215806 0)
(0.00243421 -0.000115826 0)
(0.00234772 -0.000143745 0)
(0.00285544 -1.21842e-05 0)
(0.00300852 -7.47844e-05 0)
(0.000626963 -0.00119919 0)
(0.00307052 -0.000236161 0)
(0.00296377 -4.39762e-05 0)
(6.94169e-05 -0.0016878 0)
(0.00193055 -0.000471886 0)
(0.00258463 -6.21108e-05 0)
(0.00303485 -0.000136212 0)
(0.00216822 -0.000410727 0)
(0.000626235 -0.00124405 0)
(0.00299042 -0.000104766 0)
(0.00354587 -1.1207e-05 0)
(0.00327759 -0.00028491 0)
(0.00289073 -1.78225e-06 0)
(0.00245434 -0.000103467 0)
(0.00215972 -0.000314798 0)
(0.0023003 -0.000414732 0)
(0.000416321 -0.00142779 0)
(0.00262322 -2.45706e-05 0)
(0.000280328 -0.00165545 0)
(0.00264579 -0.000150134 0)
(0.00349577 -7.39359e-06 0)
(0.00265987 -9.85204e-06 0)
(0.00349181 -1.16631e-05 0)
(0.00351673 -4.99265e-05 0)
(0.00339955 -0.000148171 0)
(0.00253649 -0.000221397 0)
(0.0012758 -0.00116227 0)
(0.00320018 -0.000323915 0)
(0.00291145 -4.71937e-05 0)
(0.000535456 -0.00133094 0)
(0.00261829 -2.81354e-05 0)
(0.00320934 -0.000304555 0)
(0.00272857 -4.60877e-05 0)
(0.00244155 -0.00011292 0)
(0.00020365 -0.00173094 0)
(0.00335575 -4.58273e-05 0)
(0.00236967 -0.000326033 0)
(0.00228083 -0.000480129 0)
(0.00263573 -1.43863e-05 0)
(0.0031799 -0.000201099 0)
(0.000508103 -0.00147427 0)
(0.00230857 -0.00028988 0)
(0.00223711 -0.000172053 0)
(0.000756308 -0.00128318 0)
(0.000145267 -0.00176084 0)
(0.00332984 -7.52316e-05 0)
(0.00312535 -0.000112008 0)
(0.000574411 -0.00148481 0)
(0.000457076 -0.00149388 0)
(0.000366575 -0.00158272 0)
(0.00224544 -0.000396622 0)
(0.00297828 -6.40672e-05 0)
(0.00125817 -0.00085418 0)
(0.00317435 -1.21407e-05 0)
(0.00281736 -0.000368202 0)
(0.000697487 -0.00130975 0)
(0.0031116 -0.000216151 0)
(0.00299846 -5.3015e-05 0)
(0.00344534 -2.00661e-06 0)
(0.00313666 -0.000344419 0)
(0.0014637 -0.000579413 0)
(0.00252071 -0.000308874 0)
(0.00156813 -0.000529644 0)
(0.000184939 -0.00160865 0)
(0.00276576 -0.000234717 0)
(0.00252827 -6.29297e-05 0)
(0.00108476 -0.000912663 0)
(0.000189918 -0.00174276 0)
(0.00123089 -0.000795548 0)
(0.00288177 -0.000278017 0)
(0.00355302 -2.61654e-06 0)
(0.00358541 -4.80481e-06 0)
(0.00325978 -0.000320141 0)
(0.00330924 -0.00029415 0)
(0.00305183 -3.22635e-06 0)
(0.0026128 -0.000396206 0)
(0.000134753 -0.00178671 0)
(0.00135728 -0.00103792 0)
(0.00331302 -8.82896e-05 0)
(0.002462 -9.01607e-05 0)
(0.000555804 -0.00135758 0)
(0.00263303 -2.90508e-05 0)
(0.00231754 -0.000145352 0)
(0.00266192 -1.82026e-05 0)
(0.00256717 -0.000256101 0)
(0.00327844 -7.6142e-05 0)
(0.00269222 -0.000249996 0)
(0.00031269 -0.00160764 0)
(0.000387243 -0.00156663 0)
(0.00186171 -0.000376045 0)
(0.00143618 -0.000594615 0)
(0.000241202 -0.00168075 0)
(0.00133787 -0.000661565 0)
(0.00160906 -0.000523403 0)
(0.00202868 -0.000277726 0)
(0.00194433 -0.00031762 0)
(0.0025865 -6.91988e-05 0)
(0.00259727 -5.01483e-05 0)
(0.00340077 -1.24753e-05 0)
(0.00309366 -0.000338198 0)
(0.0032049 -0.000181996 0)
(0.00198985 -0.00028047 0)
(0.0016319 -0.000535494 0)
(0.00159796 -0.000531075 0)
(0.00326789 -4.27479e-05 0)
(0.00156131 -0.000639801 0)
(0.00214443 -0.000381909 0)
(0.00153026 -0.000633326 0)
(0.00177921 -0.000462315 0)
(0.00297801 -0.000289293 0)
(0.00263763 -2.75071e-05 0)
(0.00316349 -0.000178735 0)
(0.00257085 -0.00028021 0)
(0.00192557 -0.000413935 0)
(0.00202507 -0.000383779 0)
(0.00308405 -0.000141632 0)
(0.00313402 -0.000126481 0)
(0.00247742 -7.54262e-05 0)
(0.00190904 -0.000318809 0)
(0.00202009 -0.00043974 0)
(0.00248733 -7.04146e-05 0)
(0.00254207 -5.55765e-05 0)
(0.00256723 -0.000179343 0)
(0.00238301 -0.000115279 0)
(0.00259083 -4.25888e-05 0)
(0.00206045 -0.000396916 0)
(0.00202028 -0.000346506 0)
(0.00207344 -0.000348999 0)
(0.00290572 -8.20812e-05 0)
(0.00292618 -6.75859e-05 0)
(0.00205107 -0.000259891 0)
(0.0018903 -0.000332908 0)
)
;

boundaryField
{
    back
    {
        type            empty;
    }
    front
    {
        type            empty;
    }
    down
    {
        type            symmetry;
    }
    right
    {
        type            calculated;
        value           nonuniform List<vector> 10((0.00350837 -6.41453e-05 -4.77219e-21) (0.00357392 -2.24506e-05 4.62296e-21) (0.00339089 -0.000182194 -5.34664e-21) (0.00346537 -9.81309e-05 3.92893e-21) (0.00359291 -1.35288e-05 2.48024e-21) (0.00336111 -0.000233556 -5.34808e-21) (0.00354321 -4.21007e-05 -5.15211e-21) (0.00342722 -0.00013935 3.97301e-21) (0.00360488 -3.39856e-06 -1.87086e-21) (0.00333165 -0.000289238 -7.34434e-21));
    }
    up
    {
        type            calculated;
        value           nonuniform List<vector> 
20
(
(0.00130541 -0.000704978 0)
(0.00246338 -0.00041829 0)
(0.000775522 -0.00103729 -2.522e-20)
(3.07586e-05 -0.00186014 -4.58089e-21)
(0.00302713 -0.000372231 1.34462e-21)
(0.00166476 -0.000560948 8.42806e-21)
(0.000220885 -0.00162643 -2.47908e-21)
(0.00145556 -0.000639828 0)
(0.0027496 -0.000400453 -2.88837e-21)
(0.00100438 -0.000872931 4.51058e-21)
(0.00288073 -0.000390082 -5.30514e-21)
(0.00209454 -0.000459158 2.8294e-21)
(0.000577017 -0.00121872 8.8152e-21)
(0.00192219 -0.000492482 2.48291e-21)
(0.00229672 -0.000431874 2.65651e-21)
(0.000371816 -0.00144449 -3.53304e-21)
(0.000117525 -0.00177379 3.53199e-21)
(0.00313206 -0.000354846 -1.41893e-21)
(0.00325497 -0.000329768 -2.85075e-21)
(0.00261051 -0.000408845 1.63067e-21)
)
;
    }
    left
    {
        type            symmetry;
    }
    hole
    {
        type            calculated;
        value           nonuniform List<vector> 8((0.00175927 -0.00101011 -1.51167e-21) (0.00246953 -0.000343161 6.73763e-21) (0.000396289 -0.00137424 -2.54594e-20) (0.00254548 -0.000135685 -4.09993e-21) (0.00206558 -0.000808838 9.33652e-21) (0.000910118 -0.00134344 -1.58433e-20) (0.0013595 -0.00117694 0) (0.00231005 -0.000540908 -1.62155e-20));
    }
}


// ************************************************************************* //
