/*--------------------------------*- C++ -*----------------------------------*\
| =========                 |                                                 |
| \\      /  F ield         | OpenFOAM: The Open Source CFD Toolbox           |
|  \\    /   O peration     | Version:  v2012                                 |
|   \\  /    A nd           | Website:  www.openfoam.com                      |
|    \\/     M anipulation  |                                                 |
\*---------------------------------------------------------------------------*/
FoamFile
{
    version     2.0;
    format      ascii;
    class       volSymmTensorField;
    location    "7";
    object      sigma;
}
// * * * * * * * * * * * * * * * * * * * * * * * * * * * * * * * * * * * * * //

dimensions      [1 -1 -2 0 0 0 0];


internalField   nonuniform List<symmTensor> 
470
(
(5.02406e+07 -1.3531e+07 -6.14106e-09 5.65072e+06 -1.81899e-10 1.24004e+07)
(5.09007e+07 -7.92332e+06 -1.09251e-09 9.76042e+06 1.0813e-09 1.9548e+07)
(1.07706e+08 -1.03649e+07 -1.52847e-09 1.38549e+06 6.33577e-10 3.19349e+07)
(8.73872e+07 -2.56008e+06 -4.89381e-09 2.02498e+07 -6.379e-10 3.30897e+07)
(6.90865e+07 -3.18488e+07 6.42057e-09 -6.11507e+06 2.28893e-09 2.07175e+07)
(9.9157e+07 -3.22766e+06 -1.30255e-08 913589 -1.54994e-09 2.86489e+07)
(8.60508e+07 -2.11126e+07 3.56265e-09 9.00234e+06 9.86599e-11 2.71401e+07)
(6.7349e+07 -2.83695e+07 -4.6726e-09 -1.08615e+07 -1.9431e-09 1.62132e+07)
(1.41852e+08 -9.97832e+06 -1.49471e-11 -4.79791e+06 -6.97598e-10 3.93604e+07)
(1.02419e+08 -1.78879e+07 -8.79044e-09 3.70052e+06 -2.00751e-09 3.33921e+07)
(1.33702e+08 -1.60086e+07 6.23156e-09 -7.87775e+06 2.91484e-09 4.0268e+07)
(1.56822e+08 1.15767e+07 -8.81253e-09 -9.69301e+06 -6.28589e-09 4.42363e+07)
(1.56452e+08 8.01048e+06 -7.91287e-09 -8.57456e+06 -5.89571e-09 4.54204e+07)
(8.4137e+07 -6.32223e+06 2.75905e-09 1.81896e+07 1.63032e-09 3.19048e+07)
(1.67429e+08 970144 5.97874e-09 -1.32671e+06 3.98812e-09 4.89275e+07)
(1.25579e+08 -1.43369e+07 3.42565e-09 828942 -2.74205e-09 3.73328e+07)
(1.029e+08 -1.92158e+07 2e-09 5.19512e+06 3.02865e-09 3.10226e+07)
(8.09117e+07 -6.83915e+06 9.49943e-11 1.70701e+07 -1.21268e-09 2.84639e+07)
(7.25247e+07 -3.84283e+06 -4.48481e-09 1.6743e+07 6.35754e-11 2.71172e+07)
(4.98789e+07 -1.42138e+07 -4.73431e-09 8.1577e+06 -2.57894e-11 1.89411e+07)
(1.29311e+08 -1.27233e+07 4.59211e-09 -388896 4.14878e-09 3.93699e+07)
(9.3675e+07 -6.49355e+06 2.45497e-10 1.2887e+07 7.94887e-10 3.23878e+07)
(1.06755e+08 -8.54219e+06 -3.26135e-09 745962 -1.42041e-09 3.29862e+07)
(8.72327e+07 -6.78667e+06 4.13233e-09 1.81278e+07 1.08516e-09 3.01306e+07)
(1.36923e+08 -6.26808e+06 -7.53219e-09 -2.0488e+07 -4.58572e-09 3.54326e+07)
(8.15424e+07 -2.23118e+07 4.25076e-09 8.7167e+06 -6.64678e-10 2.86013e+07)
(1.31288e+08 -1.58422e+07 -1.89284e-09 -2.48143e+07 -1.17509e-09 3.33703e+07)
(1.18308e+08 -5.59822e+06 1.00737e-08 -604794 3.92465e-09 3.47643e+07)
(9.84321e+07 -5.37238e+06 5.28628e-09 2.10747e+06 -1.3157e-09 2.98207e+07)
(8.75131e+07 -2.52295e+06 -1.78002e-09 1.80459e+07 -5.03757e-10 3.14281e+07)
(5.295e+07 -8.67505e+06 9.04204e-10 1.08378e+07 -8.40798e-10 1.84263e+07)
(1.67467e+08 -1.82463e+06 0 1.09195e+06 0 4.92472e+07)
(1.06671e+08 -1.78346e+07 -5.40028e-09 2.98158e+06 -2.26253e-09 3.2711e+07)
(1.86203e+08 -1.55408e+07 -5.68791e-09 -1.9797e+06 -5.49643e-09 5.57713e+07)
(9.91558e+07 -2.70195e+06 -8.877e-09 -206951 -6.18604e-10 3.1614e+07)
(9.71173e+07 -4.15916e+06 -9.802e-11 1.80526e+06 1.99761e-09 2.94301e+07)
(1.66523e+08 4.63541e+06 6.6063e-10 -5.38201e+06 4.43067e-10 4.91052e+07)
(6.10373e+07 -1.27098e+07 -2.24503e-09 9.13139e+06 -8.82811e-10 1.92188e+07)
(5.93096e+07 -1.28266e+07 -6.76201e-09 1.10688e+07 -1.47367e-09 2.56222e+07)
(4.38645e+07 -1.75162e+07 2.90384e-09 3.89144e+06 8.15639e-10 1.72943e+07)
(1.10776e+08 -2.52116e+07 -1.31268e-09 -1.92678e+07 -5.63725e-10 2.98811e+07)
(7.01728e+07 -1.01391e+06 -3.29179e-09 1.60816e+07 1.6727e-09 2.51635e+07)
(1.527e+08 2.01216e+07 1.02369e-08 -5.11126e+06 1.00408e-08 4.58782e+07)
(1.08881e+08 -2.598e+07 6.32396e-09 -1.79782e+07 3.08729e-09 2.66648e+07)
(1.20562e+08 -839500 0 827267 0 3.68809e+07)
(1.53914e+08 2.06283e+07 1.89897e-08 -4.30671e+06 1.80359e-08 4.25289e+07)
(6.82394e+07 -2.31035e+07 -7.4871e-09 7.22083e+06 -1.72546e-09 2.1771e+07)
(1.27781e+08 -1.44523e+07 3.91921e-09 -1.50743e+07 2.24487e-09 3.08474e+07)
(1.2626e+08 -2.0137e+07 -8.29224e-09 -1.96161e+07 -4.29429e-09 2.83228e+07)
(1.33492e+08 -1.481e+07 8.59668e-09 -1.63347e+07 5.45523e-09 3.90196e+07)
(1.61722e+08 529074 2.2565e-08 695403 6.0248e-09 4.68636e+07)
(1.55653e+08 -2.28954e+07 0 1.23802e+06 0 4.63931e+07)
(7.87723e+07 -8.55747e+06 2.48954e-09 1.59966e+07 -4.48314e-11 2.9795e+07)
(7.5242e+07 -5.1108e+06 -7.0876e-09 1.69478e+07 -1.82924e-09 2.59781e+07)
(9.28263e+07 -6.73402e+06 0 1.586e+07 0 3.38403e+07)
(9.29651e+07 -8.15364e+06 3.08841e-09 1.49867e+07 1.96065e-10 3.2053e+07)
(8.95442e+07 -891190 -2.36137e-10 5.59841e+06 -2.36217e-09 3.38782e+07)
(9.71417e+07 3.85674e+06 6.71273e-09 -1.70979e+06 1.50907e-09 2.72131e+07)
(1.04432e+08 -2.47232e+07 8.65948e-10 -2.33686e+06 4.10017e-10 3.00105e+07)
(1.13265e+08 -7.65924e+06 3.64488e-10 -589597 6.33476e-11 3.59771e+07)
(8.84046e+07 -1.9649e+07 7.03263e-09 9.47652e+06 1.27479e-09 2.94487e+07)
(1.48495e+08 -2.12868e+06 9.83073e-09 -2.14648e+07 7.25446e-09 3.78273e+07)
(1.52784e+08 -2.3606e+06 1.70551e-08 -6.06647e+06 1.14966e-08 4.57831e+07)
(1.58491e+08 1.42886e+07 -9.38384e-09 -1.86566e+07 -8.86495e-09 4.73261e+07)
(9.29203e+07 -2.82115e+07 -2.30769e-10 -8.31071e+06 1.69344e-08 2.31089e+07)
(1.99156e+08 1.314e+07 -1.60619e-08 1.27112e+07 -9.35899e-09 6.755e+07)
(6.02161e+07 -1.89361e+07 2.89053e-09 6.82267e+06 2.24871e-09 2.00146e+07)
(9.40502e+07 -8.11354e+06 -6.24238e-10 1.1202e+07 7.01552e-10 3.13778e+07)
(4.78576e+07 -2.58396e+07 2.85452e-09 -3.33227e+07 3.70047e-09 2.36662e+06)
(1.16157e+08 -2.12557e+07 -6.25551e-09 -1.00521e+06 -2.56006e-09 3.61466e+07)
(3.55098e+07 -2.47544e+06 -2.61599e-09 3.15652e+06 3.57036e-10 1.19023e+07)
(9.81958e+07 -2.10197e+07 -4.01163e-09 5.08401e+06 -9.09797e-10 3.21934e+07)
(1.65924e+08 8.65469e+06 1.76103e-08 -8.50681e+06 1.61408e-08 5.41284e+07)
(9.2903e+07 -2.72265e+07 0 1.35e+06 0 2.84181e+07)
(1.73947e+08 1.71318e+07 2.16327e-09 -5.18394e+06 3.90953e-09 4.96568e+07)
(9.35299e+07 -945165 1.16896e-09 1.7224e+07 5.50641e-10 3.29437e+07)
(9.86925e+07 -1.71766e+07 6.61624e-10 5.83494e+06 -2.16196e-09 3.14865e+07)
(9.54497e+07 -1.80651e+07 -4.25637e-10 7.19233e+06 -1.22875e-09 3.12853e+07)
(9.98462e+07 -2.76446e+07 6.36275e-09 -3.31665e+06 2.20726e-09 2.87373e+07)
(1.75973e+08 -1.0006e+06 3.63424e-09 2.7758e+07 -2.05578e-09 6.64007e+07)
(1.05251e+08 -2.60855e+07 -6.19195e-09 -9.51326e+06 -2.39769e-09 2.89735e+07)
(1.94057e+08 8.70521e+06 -4.8884e-09 9.43718e+06 -5.37092e-09 6.79152e+07)
(1.08234e+08 -1.2242e+07 -6.04777e-09 1.59387e+06 3.71342e-09 3.41239e+07)
(4.615e+07 -3.13508e+07 -9.28572e-09 -4.10565e+07 -4.75664e-09 1.36961e+06)
(1.43491e+08 -8.58557e+06 2.8143e-09 -1.23582e+07 1.62779e-09 3.68052e+07)
(9.35759e+07 -4.41416e+06 -1.71755e-10 1.44666e+07 5.39325e-10 3.20791e+07)
(1.62373e+08 2.06034e+07 -2.08437e-08 -1.03336e+07 -1.80851e-08 4.32447e+07)
(6.37294e+07 -5.29184e+07 -1.06414e-08 4.28181e+07 8.31363e-09 4.11809e+07)
(1.64977e+08 2.27491e+07 2.79932e-09 -2.47114e+06 1.36073e-09 4.63406e+07)
(1.71356e+08 4.13643e+06 1.01405e-08 -2.07845e+07 3.98494e-09 4.05543e+07)
(1.6411e+08 2.07745e+07 -8.94616e-09 -4.73719e+06 -6.51294e-09 4.89425e+07)
(1.59887e+08 2.3778e+06 -2.54977e-08 -1.38331e+06 -1.72423e-08 4.49281e+07)
(9.10522e+07 -2.40046e+07 -2.91001e-09 5.12835e+06 -6.69809e-11 2.8902e+07)
(9.6027e+07 -1.95996e+07 -1.12419e-08 6.51411e+06 -1.35709e-09 3.04245e+07)
(1.61951e+08 4.54593e+06 1.33371e-08 -3.46345e+06 8.78345e-09 4.51331e+07)
(1.6717e+08 -2.31209e+06 -3.48121e-09 -1.82321e+06 -1.98284e-09 4.86885e+07)
(7.21509e+07 -2.41917e+07 -9.46278e-09 5.51344e+06 -9.14937e-10 2.29647e+07)
(9.06114e+07 -2.02844e+07 3.74473e-09 8.95661e+06 1.35135e-09 2.94523e+07)
(8.31409e+07 -3.07822e+07 -2.7845e-09 -8.32395e+06 -6.9527e-10 2.04219e+07)
(1.02122e+08 -7.40307e+06 9.69438e-09 1.29313e+06 3.71675e-09 3.14901e+07)
(9.08271e+07 -9.94787e+06 2.42967e-09 1.55471e+07 -1.1622e-09 3.19334e+07)
(1.30823e+08 -1.42061e+07 -6.91698e-09 -1.44816e+07 -4.26609e-09 3.68272e+07)
(1.86758e+08 -445193 0 -2.65307e+06 0 5.1223e+07)
(9.26294e+07 -5.30377e+06 3.64998e-09 2.07575e+07 7.82064e-10 3.33997e+07)
(9.17921e+07 -5.44026e+06 -3.41172e-09 2.11334e+07 -7.07304e-10 3.54237e+07)
(9.58299e+07 -4.51206e+06 -2.7059e-09 4.32715e+06 3.17003e-10 2.86324e+07)
(9.46714e+07 -5.60694e+06 2.62387e-09 5.27509e+06 -3.74818e-10 3.06093e+07)
(7.2444e+07 -2.78797e+07 5.47525e-09 130146 1.19135e-09 2.29467e+07)
(830867 7.96667e+06 -2.1688e-10 -9.83098e+07 -2.75315e-09 -1.82251e+07)
(2.33179e+08 -1.28257e+07 8.94643e-09 1.47387e+07 6.58601e-09 6.5729e+07)
(1.50147e+08 2.65863e+07 2.40914e-09 -242661 1.27294e-09 4.68725e+07)
(1.95553e+08 7.60016e+06 6.13875e-09 1.73723e+07 3.98722e-09 7.15168e+07)
(9.32175e+07 -3.64895e+06 5.42965e-10 1.91129e+07 3.25819e-10 3.37971e+07)
(9.68776e+07 -539509 2.07036e-09 306281 -5.01449e-10 2.96315e+07)
(5.28844e+07 -3.38499e+07 2.40719e-09 -2.59122e+07 2.16129e-09 1.31463e+07)
(1.04145e+08 -2.50868e+07 -5.91637e-11 -24312.9 -1.56239e-10 3.21771e+07)
(8.95758e+07 -822687 2.85284e-09 2.11868e+07 -1.80667e-09 3.30567e+07)
(1.52414e+08 -6.06336e+06 -4.02448e-09 -493017 -3.12068e-09 4.78952e+07)
(8.00587e+07 -2.57995e+07 -2.63442e-09 5.1646e+06 4.91634e-10 2.47503e+07)
(5.57262e+07 -1.0925e+06 -1.48993e-10 1.26383e+07 3.94349e-10 1.97781e+07)
(8.5673e+07 -2.61627e+07 9.82278e-11 2.59786e+06 -1.05169e-09 2.62869e+07)
(9.00731e+07 -8.08666e+06 1.9583e-09 1.75411e+07 -4.16312e-10 3.33232e+07)
(8.29333e+07 -4.29055e+06 4.66538e-09 1.7934e+07 4.24394e-10 2.97441e+07)
(9.40187e+07 -597584 -1.2089e-09 2.53586e+07 -1.06913e-09 3.54377e+07)
(9.36705e+07 -620306 1.37404e-09 3.68544e+06 1.34432e-09 2.92935e+07)
(1.10591e+08 -2.1989e+07 -5.07488e-09 430259 -1.86974e-09 3.25477e+07)
(1.12243e+08 -2.43084e+07 -1.24819e-09 -3.78861e+06 -1.41557e-09 3.34936e+07)
(9.30775e+07 -9.73246e+06 5.05268e-09 1.40146e+07 2.35148e-09 3.12798e+07)
(1.57866e+08 -1.43339e+06 -1.3797e-08 -13564.8 -4.43328e-09 4.62672e+07)
(8.95223e+07 -7.54708e+06 -5.25451e-09 1.74996e+07 7.1258e-10 3.17103e+07)
(5.5723e+07 -2.5308e+07 4.35548e-09 59010 1.14241e-09 1.97139e+07)
(6.85135e+07 -2.58833e+07 8.46179e-10 -2.07203e+06 2.58521e-10 1.8429e+07)
(8.66024e+07 -2.56514e+07 -2.99859e-10 5.74684e+06 -1.0873e-09 2.79253e+07)
(9.06554e+07 -1.17222e+07 -9.15302e-09 1.39986e+07 -3.31899e-09 3.14574e+07)
(9.39073e+07 -933528 -9.93943e-10 1.1331e+07 -1.8495e-09 3.18719e+07)
(1.04833e+08 -6.14972e+06 5.97455e-09 500878 1.60884e-10 3.14011e+07)
(9.74865e+07 -2.43746e+07 -3.33557e-09 3.73855e+06 -1.03012e-10 3.01335e+07)
(8.91237e+07 -2.81929e+07 -1.67112e-08 -1.61748e+07 -5.08282e-09 3.63179e+07)
(1.56088e+08 1.41664e+07 6.50588e-09 -5.51599e+06 4.77682e-09 4.54501e+07)
(9.54518e+07 -2.40485e+06 5.91754e-09 1.2713e+06 1.16239e-09 2.81163e+07)
(9.53713e+07 -2.48915e+06 -2.18521e-09 364007 -1.63823e-10 3.01242e+07)
(1.44153e+08 -4.14141e+06 0 -2.68471e+07 0 3.79793e+07)
(9.26436e+07 -1.07209e+07 -5.64697e-09 1.19641e+07 -2.28997e-09 3.21769e+07)
(9.36628e+07 -1.71649e+07 2.61861e-09 9.47287e+06 6.00405e-10 2.98572e+07)
(9.31976e+07 -1.56756e+07 9.46271e-10 9.19282e+06 -1.00262e-09 3.15367e+07)
(5.72238e+07 -1.77205e+07 5.57256e-09 7.84386e+06 3.76535e-10 2.05129e+07)
(9.1912e+07 -2.73987e+06 -4.78924e-09 2.50561e+07 -5.46913e-11 3.53423e+07)
(1.50248e+08 3.49912e+06 3.82036e-09 -1.51344e+07 2.21124e-09 3.91119e+07)
(8.97075e+07 -1.44495e+07 6.55025e-09 1.26685e+07 -1.37166e-09 2.99848e+07)
(1.5525e+08 1.51229e+07 4.92828e-09 -1.39976e+07 5.27405e-09 4.33146e+07)
(7.24897e+07 -7.38392e+06 -5.12416e-09 1.53021e+07 8.65211e-10 2.80774e+07)
(9.13375e+07 -2.52288e+06 -2.09239e-09 2.32291e+07 -6.4553e-11 3.43539e+07)
(7.73734e+07 -3.52683e+07 -1.25725e-09 -2.74911e+07 -1.28705e-09 1.09812e+07)
(9.38525e+07 -4.42955e+06 -6.63844e-09 1.9055e+07 -8.18436e-10 3.25638e+07)
(2.22656e+08 -4.67401e+07 2.79341e-09 2.6412e+07 8.36875e-09 5.15993e+07)
(1.23859e+08 -1.76239e+07 -5.74692e-09 264117 -8.49594e-10 3.49991e+07)
(-7.27863e+06 1.80031e+07 1.42852e-09 -7.0288e+07 7.4981e-10 -2.63923e+07)
(8.33433e+07 -1.8679e+07 -3.01204e-09 9.59567e+06 -2.31606e-09 2.75372e+07)
(8.35432e+07 -1.88859e+07 -7.62202e-09 1.09891e+07 -8.08716e-10 2.89618e+07)
(1.01662e+08 -1.65672e+07 8.67574e-09 5.31148e+06 1.58111e-09 3.11393e+07)
(1.93505e+08 -3.07125e+07 -8.98381e-10 2.23239e+07 1.64588e-09 7.20895e+07)
(1.5245e+08 -2.35786e+06 -1.26101e-08 -6.50793e+06 -8.16409e-09 4.47782e+07)
(1.17702e+08 1.76485e+06 6.11092e-09 -1.16639e+06 6.35653e-10 3.49981e+07)
(1.65714e+08 545279 0 564766 0 4.67726e+07)
(1.57661e+08 1.69066e+07 3.93936e-09 1.8679e+07 3.32171e-09 5.68925e+07)
(8.73004e+07 -3.28555e+07 2.69484e-09 -3.33718e+07 2.26433e-09 1.64766e+07)
(8.59729e+07 -2.92214e+07 8.52933e-09 -2.80069e+07 5.63914e-09 1.52681e+07)
(1.62338e+08 -4.76259e+06 2.00834e-09 -3.38578e+06 3.07791e-09 4.84765e+07)
(9.83774e+07 -2.51441e+07 7.54844e-10 1.00117e+06 1.09109e-09 2.89562e+07)
(1.07733e+08 -2.51091e+07 8.75233e-09 -2.43543e+07 4.31188e-09 2.3568e+07)
(9.33059e+07 -3.19734e+07 5.10455e-09 -2.41423e+07 1.56202e-09 2.30542e+07)
(9.55849e+07 -1.27874e+07 -5.18389e-09 8.28709e+06 -5.18306e-10 3.10266e+07)
(9.63036e+07 -1.16143e+07 -3.68288e-09 7.12058e+06 1.15457e-09 3.1088e+07)
(9.75207e+07 -1.52166e+07 7.38366e-10 6.54877e+06 1.44472e-09 3.14081e+07)
(9.60935e+07 -1.51155e+07 7.0341e-09 7.82544e+06 -1.13145e-09 3.09087e+07)
(8.9622e+07 -1.78759e+07 -1.19254e-08 1.03073e+07 -1.9031e-09 2.91911e+07)
(7.68492e+07 -4.12617e+06 1.9402e-09 1.73555e+07 3.44776e-10 2.88523e+07)
(4.08029e+06 -8.45866e+06 0 -1.93546e+07 0 -7.09405e+06)
(1.41964e+08 -8.77238e+06 1.77811e-08 -3.12102e+07 1.26805e-08 3.43167e+07)
(9.19051e+07 -2.85684e+07 9.74366e-10 -2.12073e+07 4.43755e-10 1.96247e+07)
(8.96474e+07 -3.11688e+07 5.82442e-09 -1.34404e+07 2.36186e-09 2.50356e+07)
(1.55072e+08 1.48958e+07 7.52685e-09 -5.19102e+06 4.41569e-09 4.37753e+07)
(9.67901e+07 -2.24798e+07 4.9231e-09 4.27302e+06 -9.96296e-10 3.12003e+07)
(1.14438e+08 -1.93615e+07 -3.16338e-10 1.768e+06 -1.52009e-09 3.367e+07)
(1.18031e+08 -1.77922e+07 4.63618e-09 346748 4.44088e-11 3.67769e+07)
(1.45404e+08 -1.22672e+07 5.82633e-09 -3.66514e+06 4.20081e-09 4.34899e+07)
(9.84924e+07 -9.74608e+06 -5.06581e-09 3.69237e+06 4.89953e-10 3.17029e+07)
(1.35969e+07 -2.00758e+06 0 -2.01491e+07 0 -3.77356e+06)
(1.23858e+08 1.39339e+07 3.51433e-09 1.33601e+06 8.31458e-09 3.95527e+07)
(8.56981e+07 -8.86684e+06 -7.27953e-09 1.70608e+07 -1.99476e-09 3.06856e+07)
(9.63626e+07 -5.8845e+06 1.53397e-09 3.36995e+06 -8.32655e-10 3.05926e+07)
(7.62864e+07 -1.93996e+07 -3.24401e-09 1.07391e+07 5.54848e-10 2.63996e+07)
(1.07403e+08 -2.20896e+07 0 1.46848e+06 0 3.426e+07)
(1.06234e+08 -2.04959e+07 -2.10468e-09 3.57069e+06 1.01308e-09 3.12408e+07)
(4.49796e+07 -1.81669e+07 0 -2.41721e+06 0 1.18941e+07)
(7.71728e+07 -1.08136e+07 -2.71064e-09 1.51744e+07 4.56677e-10 2.72069e+07)
(1.10794e+08 -5.78996e+06 -8.39117e-09 517977 2.54397e-10 3.26947e+07)
(1.02075e+08 -1.35742e+07 7.16033e-11 3.48099e+06 -1.54322e-09 3.21844e+07)
(1.03728e+08 -1.15221e+07 7.71185e-09 3.03173e+06 2.22545e-09 3.1241e+07)
(2.78881e+08 -2.7275e+07 -3.61865e-09 4.29663e+06 -5.5665e-09 1.25163e+08)
(4.06363e+07 -8.67372e+06 2.40102e-09 5.99691e+06 3.26049e-11 1.52551e+07)
(3.09926e+07 -8.64701e+06 -1.6185e-09 364196 -6.29712e-10 9.21251e+06)
(2.96108e+08 -9.54099e+06 -2.74741e-08 2.91472e+07 -7.34597e-09 8.96564e+07)
(9.39291e+07 -2.28647e+07 1.56531e-08 -3.66323e+07 6.85058e-09 1.77865e+07)
(1.16897e+08 -1.55016e+07 -6.27671e-09 860946 1.0641e-09 3.53985e+07)
(1.25017e+08 -9.49088e+06 5.76111e-10 2.12798e+06 -1.66122e-09 3.50276e+07)
(6.49819e+07 -7.85807e+06 5.00256e-09 1.52442e+07 -1.85025e-09 2.50918e+07)
(7.06737e+07 -1.10876e+07 3.87449e-09 1.47023e+07 -4.10755e-10 2.50494e+07)
(9.30486e+07 -2.33106e+07 2.05495e-09 -2.04044e+07 5.77991e-10 1.43372e+07)
(-759571 9.64575e+06 -9.71371e-10 -1.00153e+08 -5.17049e-09 -3.72235e+07)
(9.20617e+07 -1.01432e+07 1.1647e-09 1.43567e+07 -2.58779e-11 3.25068e+07)
(1.08604e+08 -1.37726e+07 9.58152e-10 2.32469e+06 -1.70826e-09 3.28576e+07)
(-5.39428e+06 3.80299e+06 -1.44254e-09 -1.05324e+08 -5.81864e-09 -2.34685e+07)
(8.21909e+07 -9.45295e+06 2.41176e-09 1.50285e+07 -5.30341e-10 2.92058e+07)
(1.44879e+08 -9.24314e+06 -5.29622e-09 -1.43225e+06 -1.96601e-09 4.26875e+07)
(1.40397e+08 -1.25459e+07 8.36735e-09 -3.93963e+06 3.88213e-09 4.16321e+07)
(9.07433e+07 -1.45548e+07 4.80519e-09 1.15241e+07 2.64354e-09 3.13471e+07)
(7.67009e+07 -1.93226e+07 -1.24638e-09 1.19055e+07 1.58728e-09 2.459e+07)
(8.53535e+07 -1.22863e+07 1.06635e-09 1.46028e+07 1.73472e-09 3.00953e+07)
(1.0981e+08 -2.64049e+07 -8.59511e-09 -3.0534e+07 -5.66502e-09 2.73047e+07)
(-7.42521e+06 -9.77849e+06 -7.06085e-09 -6.03916e+07 -4.45919e-09 -1.91464e+07)
(5.82578e+07 -2.26178e+07 -4.36044e-09 1.49307e+06 -6.11658e-11 1.70314e+07)
(1.00747e+08 -9.59996e+06 -9.47848e-09 3.45629e+06 -1.06882e-09 3.00347e+07)
(8.45636e+07 -1.11043e+07 -1.28382e-09 1.53205e+07 -6.79386e-10 3.0115e+07)
(1.23179e+08 -1.67545e+07 -1.29366e-08 -2.65989e+07 -9.37458e-09 2.61415e+07)
(1.02112e+08 -5.76259e+06 -5.61852e-09 718289 -6.53508e-09 2.98679e+07)
(1.30275e+08 -1.46334e+07 -8.99237e-09 -8.59535e+06 -4.68183e-09 3.58902e+07)
(1.9928e+07 -1.84239e+07 4.2188e-09 -3.72066e+07 2.21663e-09 -9.30091e+06)
(1.59358e+08 2.03547e+07 6.68532e-09 2.05165e+07 5.29347e-09 5.42787e+07)
(1.6045e+08 7.54966e+06 -6.81975e-09 -3.46081e+06 -6.40071e-09 4.56493e+07)
(1.23616e+08 -1.98557e+07 -1.41969e-08 -1.38374e+07 -7.19601e-09 3.31404e+07)
(1.5278e+07 -2.17576e+07 -6.23242e-09 -3.47487e+07 -4.78474e-09 -5.09262e+06)
(9.2409e+07 -430747 -8.31615e-10 2.87376e+07 -1.58012e-10 3.60836e+07)
(9.43049e+07 -719373 4.44515e-09 614102 2.18828e-09 2.86747e+07)
(1.17554e+08 -1.16106e+07 -1.64474e-09 1.07041e+06 2.80341e-09 3.77604e+07)
(9.1071e+07 -2.26437e+07 -3.35869e-09 5.34302e+06 -9.94358e-12 3.09357e+07)
(3.21418e+07 -2.23355e+06 1.07011e-08 -1.74503e+07 1.33319e-08 1.9714e+07)
(9.42332e+07 -4.26433e+06 0 6.61911e+06 0 2.98103e+07)
(9.42793e+07 -2.65739e+06 -2.66764e-09 4.96553e+06 -2.7675e-09 2.99282e+07)
(9.26755e+07 -2.76932e+06 -2.54551e-09 2.42034e+07 -9.08643e-10 3.47185e+07)
(9.30172e+07 -4.89768e+06 0 2.06845e+07 0 3.47135e+07)
(9.35642e+07 -2.24803e+06 6.57137e-10 2.44985e+07 2.65122e-10 3.4586e+07)
(9.38687e+07 -2.55873e+06 -2.19265e-10 2.29022e+06 -5.89244e-10 3.01275e+07)
(2.05318e+08 2.18017e+06 7.07658e-09 4.57165e+07 2.99614e-09 6.58952e+07)
(2.08821e+08 2.06909e+07 1.27551e-08 3.61082e+07 5.08704e-09 6.65307e+07)
(1.60507e+08 1.6363e+07 -8.36974e-09 9.36137e+06 -5.58961e-09 4.87848e+07)
(1.3266e+08 -1.58127e+06 7.07054e-09 1.50296e+07 3.68166e-09 4.42909e+07)
(9.43493e+07 -6.34318e+06 3.49038e-09 9.88078e+06 9.98024e-11 3.03712e+07)
(6.6757e+07 -4.66297e+06 5.87057e-09 1.39307e+07 1.23261e-09 2.55299e+07)
(9.90441e+07 -1.346e+07 1.47383e-10 5.24282e+06 -1.21236e-09 3.15623e+07)
(9.86936e+07 -1.18796e+07 -1.16496e-09 5.36059e+06 1.15223e-09 3.07608e+07)
(1.1399e+08 -9.73271e+06 1.04128e-08 710920 -4.46575e-09 3.39949e+07)
(9.31252e+07 -427858 -1.2011e-09 2.75488e+07 -8.1833e-11 3.65903e+07)
(9.38857e+07 -283203 2.56921e-09 1.9142e+06 1.22615e-09 2.82736e+07)
(1.24713e+08 -1.81903e+07 7.66947e-09 -455624 2.21449e-09 3.82696e+07)
(6.3605e+07 -8.68168e+06 -1.16562e-09 1.48109e+07 -1.31882e-10 2.04359e+07)
(7.24826e+07 -1.32703e+07 2.07128e-09 1.41592e+07 5.55692e-10 2.48653e+07)
(9.30184e+07 -2.20138e+06 1.85953e-09 2.70911e+07 5.44976e-10 3.51087e+07)
(9.38815e+07 -1.94574e+06 8.34273e-09 2.27668e+06 2.34554e-09 2.94277e+07)
(4.45024e+07 -466187 3.82502e-10 9.309e+06 1.25111e-09 1.62645e+07)
(1.03217e+08 -2.29781e+07 -2.11298e-12 2.77764e+06 -1.36246e-09 3.10228e+07)
(1.8695e+08 2.36843e+07 -7.69772e-09 3.24054e+06 -5.18682e-09 5.34221e+07)
(2.48454e+07 -506444 8.23641e-10 -4.934e+06 -2.44919e-10 4.81612e+06)
(3.2126e+07 -1.39171e+07 3.05474e-09 -2.83864e+07 -1.34489e-08 -6.83631e+06)
(6.87289e+07 -1.59985e+07 2.81664e-09 1.18979e+07 4.53003e-10 2.18607e+07)
(9.31679e+07 -3.01182e+06 4.03841e-09 2.56486e+07 1.11397e-09 3.49721e+07)
(9.43314e+07 -2.25166e+06 -1.32156e-09 1.67624e+06 -1.88797e-09 2.89744e+07)
(8.04599e+07 -621859 3.12455e-09 1.78301e+07 -5.57615e-10 2.98188e+07)
(7.00987e+07 -1.62768e+07 0 1.23828e+07 0 2.60103e+07)
(1.24829e+08 -6.28263e+06 -4.06919e-09 579101 -3.31151e-09 3.72654e+07)
(1.07215e+08 -1.00419e+06 4.67847e-09 182841 8.52785e-10 3.21313e+07)
(3.83521e+07 -1.1916e+07 4.44416e-09 -4.63007e+07 -1.94322e-09 1.62265e+06)
(1.65563e+08 -73379.7 -4.86277e-09 -1.9396e+06 -2.0016e-09 5.10867e+07)
(7.64709e+07 -3.08551e+07 0 -3.82714e+07 0 1.15123e+07)
(1.29021e+08 1.29805e+07 8.5771e-09 2.70577e+06 3.70505e-09 3.52459e+07)
(1.25245e+08 -2.93661e+07 1.02027e-08 -1.9233e+07 -9.62646e-10 2.95718e+07)
(1.51176e+08 -1.29193e+07 9.36722e-09 -1.96917e+07 9.1544e-09 3.90629e+07)
(1.108e+08 -1.81653e+07 -6.99878e-09 2.82477e+06 -3.43674e-09 3.39706e+07)
(1.4355e+08 -9.95976e+06 5.40531e-10 -8.31693e+06 6.33756e-12 4.26749e+07)
(9.45106e+07 -1.06074e+07 -9.74702e-10 1.11705e+07 -1.20049e-09 3.03426e+07)
(9.83083e+07 -2.09124e+07 5.19637e-09 5.94114e+06 -6.78437e-10 3.01397e+07)
(1.26178e+08 -1.89017e+07 3.09775e-09 -2.9238e+06 -5.57684e-11 3.59607e+07)
(7.97859e+07 -2.31544e+07 7.17113e-09 6.80603e+06 2.08754e-09 2.65444e+07)
(1.1736e+08 -2.11705e+07 3.68237e-09 -2.5086e+06 4.70986e-10 3.44621e+07)
(8.96259e+07 -4.27281e+06 -1.84985e-09 1.99018e+07 -6.52646e-10 3.23607e+07)
(9.01663e+07 -4.74434e+06 6.21265e-09 2.13767e+07 5.78898e-10 3.40175e+07)
(1.25331e+08 -1.0013e+07 -1.56042e-08 2.40586e+06 2.70223e-11 3.9098e+07)
(1.3859e+08 1.85172e+07 1.44121e-09 1.1723e+06 1.86507e-09 3.71874e+07)
(8.81594e+07 -1.33343e+07 -9.66138e-09 1.35424e+07 -1.25787e-09 3.07446e+07)
(3.59302e+07 -2.61217e+07 -4.17879e-09 -9.66214e+06 -1.51061e-09 1.07953e+07)
(9.29101e+07 -2.60985e+07 4.99958e-09 -3.76892e+07 -1.1357e-08 1.76061e+07)
(5.21819e+07 -3.18056e+07 -7.60395e-09 -3.80269e+07 2.16946e-09 3.05501e+06)
(4.03738e+07 -2.09674e+07 -2.65082e-09 -6.74142e+06 -9.22491e-10 7.56609e+06)
(1.52676e+08 -5.28768e+06 1.51628e-08 6128.98 4.01486e-09 4.2873e+07)
(1.30007e+08 -1.62707e+07 -3.48843e-09 -3.17156e+06 1.58976e-10 3.94962e+07)
(8.67096e+07 -1.53228e+07 7.63331e-09 1.27839e+07 1.41679e-09 2.93157e+07)
(8.87077e+07 -1.10435e+07 5.60222e-09 1.53747e+07 1.12728e-09 3.0861e+07)
(1.01111e+08 -940678 5.33532e-09 645288 2.52627e-09 3.02755e+07)
(1.31928e+08 -1.66749e+07 -2.19528e-09 -6.30471e+06 -1.18972e-09 3.6891e+07)
(8.45277e+07 -746035 -2.80155e-09 1.88958e+07 -3.02198e-10 3.1367e+07)
(9.40607e+07 -9.88864e+06 -6.31283e-09 9.33737e+06 1.12443e-10 3.23035e+07)
(3.29019e+07 -2.24365e+07 -2.77585e-09 2.93465e+07 1.10694e-08 -455193)
(9.3263e+07 -4.80447e+06 3.36477e-09 8.26547e+06 1.26336e-10 3.17727e+07)
(9.36271e+07 -3.39572e+06 -4.1483e-09 9.77986e+06 -1.12533e-09 3.07576e+07)
(1.65001e+08 2.51389e+07 -5.95374e-09 4.33061e+06 -5.15219e-09 5.30208e+07)
(8.84433e+07 -2.9683e+07 -5.99978e-09 -8.96107e+06 -8.34071e-10 2.20321e+07)
(9.61346e+07 -1.01781e+07 -5.02678e-10 6.75686e+06 1.31475e-09 3.11321e+07)
(9.41634e+07 -1.27474e+07 -4.04376e-09 9.64454e+06 -2.50271e-09 3.14442e+07)
(5.40417e+07 -2.87398e+07 -7.73562e-09 -2.52348e+07 -4.94835e-09 9.45336e+06)
(5.27347e+07 -2.95752e+07 5.3949e-09 -1.34489e+07 1.6691e-09 1.13166e+07)
(1.52205e+08 4.37726e+06 4.70252e-10 -1.89866e+07 8.26188e-11 4.16014e+07)
(1.45955e+08 -5.24151e+06 -4.84876e-09 -3.04989e+07 -8.30389e-09 3.58963e+07)
(2.37893e+08 -6.83347e+07 -2.23039e-08 1.68861e+07 2.1448e-09 9.18728e+07)
(9.03835e+07 -1.7651e+07 -6.59089e-09 1.00078e+07 3.61109e-10 3.08028e+07)
(5.59356e+07 -2.16949e+07 -1.00788e-08 -3.563e+07 -5.62544e-09 4.78972e+06)
(1.53571e+08 2.93678e+06 6.07039e-09 -1.35997e+07 5.39014e-09 4.37099e+07)
(8.18639e+07 -2.5367e+07 6.8498e-09 -4.20667e+07 -2.28387e-09 1.11506e+07)
(1.64977e+07 -1.83972e+07 -2.05775e-09 -1.95968e+07 2.34224e-10 1.62756e+06)
(1.54431e+08 -6.76078e+06 -1.58564e-08 -2.91372e+06 -6.09197e-09 4.37712e+07)
(7.74187e+07 -1.75815e+07 -9.16666e-09 1.26843e+07 -1.87948e-09 2.73272e+07)
(1.4005e+08 -1.12353e+06 -1.43985e-09 606872 -1.45642e-09 4.08827e+07)
(7.85594e+07 -1.55314e+07 5.8583e-09 1.32857e+07 1.52815e-09 2.69005e+07)
(8.60562e+07 -1.73081e+07 -2.78474e-09 1.21339e+07 -2.06787e-09 2.92324e+07)
(8.83516e+07 -1.01851e+07 -1.56402e-09 1.61091e+07 3.04639e-10 3.14279e+07)
(1.38199e+08 -1.17703e+07 0 -494382 0 4.13659e+07)
(7.84596e+07 -2.67811e+06 3.81512e-09 1.70793e+07 1.53172e-09 2.87664e+07)
(1.10103e+08 -3.78524e+06 -9.13966e-09 341745 -7.75953e-10 3.32345e+07)
(7.21422e+07 -3.17739e+07 5.85104e-09 -1.59069e+07 2.04797e-09 1.75483e+07)
(6.62229e+07 -3.31402e+07 -3.92737e-09 -1.5568e+07 -1.52067e-09 1.7129e+07)
(2.67313e+07 -1.33553e+07 6.26744e-09 -5.08914e+07 -2.51296e-09 -1.14209e+07)
(7.67396e+07 -2.28549e+07 -2.83905e-09 7.84716e+06 1.08185e-11 2.5318e+07)
(1.6829e+07 -1.75837e+07 1.59356e-10 -5.31419e+07 -2.47461e-10 -1.55416e+07)
(1.05255e+08 -2.63208e+07 -1.45181e-08 -8.45188e+06 -5.88996e-09 2.50308e+07)
(1.06678e+08 -2.68932e+07 -4.88331e-09 -6.99815e+06 -2.11264e-09 3.08641e+07)
(3.68105e+07 -3.06747e+07 1.61707e-09 -3.12751e+07 1.54654e-09 -3.47405e+06)
(9.08635e+07 -2.65435e+07 -2.70306e-09 -2.48261e+06 -1.87219e-09 2.73923e+07)
(5.90654e+07 -5.33828e+06 5.08076e-10 1.49693e+07 8.20804e-10 2.16071e+07)
(8.45421e+07 -1.45936e+07 8.0468e-09 1.36638e+07 5.75902e-10 2.95414e+07)
(1.51838e+08 1.87569e+06 -1.78476e-08 703779 -4.64333e-09 4.3963e+07)
(9.77253e+07 -8.67216e+06 1.52118e-09 4.91458e+06 -8.61922e-10 2.98551e+07)
(7.69743e+07 -1.15135e+07 -2.7152e-09 1.54432e+07 -8.02672e-10 2.7285e+07)
(2.4165e+08 -8.29685e+06 1.2318e-08 3.11189e+07 2.75598e-09 8.07115e+07)
(1.48345e+08 -631600 -7.50936e-09 40569.5 -1.05405e-09 4.45899e+07)
(-3.72381e+06 -9.96864e+06 2.17699e-09 -3.75616e+07 2.0504e-09 -9.61171e+06)
(9.29755e+07 -1.44487e+07 6.21996e-09 1.09551e+07 2.20849e-09 3.02653e+07)
(1.34922e+08 -5.44178e+06 6.61233e-10 399263 -1.93861e-09 4.13947e+07)
(1.45595e+08 9.50717e+06 -7.43665e-09 -1.14291e+06 -5.39997e-09 4.59649e+07)
(8.90084e+07 -1.57427e+07 1.49204e-08 1.11098e+07 8.37587e-10 3.08966e+07)
(9.2621e+07 -1.18007e+06 -1.15713e-09 2.89349e+07 -6.72528e-10 3.67605e+07)
(9.38831e+07 -525624 2.42533e-09 496082 -7.8472e-10 2.84037e+07)
(6.23293e+07 -379927 1.24879e-10 1.49034e+07 5.83379e-10 2.33136e+07)
(8.1084e+07 -2.7268e+07 1.14964e-08 -1.53956e+06 3.94096e-09 2.29923e+07)
(1.2737e+08 -1.67309e+07 -6.85512e-09 306155 -7.66687e-10 3.79253e+07)
(1.29714e+08 -973296 -1.54478e-10 -543545 -1.26666e-09 3.93875e+07)
(1.33394e+08 2.11592e+06 1.55591e-09 -2.17685e+06 1.86938e-09 4.19955e+07)
(4.31931e+06 -1.29052e+07 0 -4.43906e+07 0 -8.93228e+06)
(1.23089e+08 1.10883e+07 -1.20184e-08 -1.35892e+06 -1.09512e-08 4.08427e+07)
(9.53534e+07 -2.22822e+07 5.06697e-09 6.97048e+06 -9.22007e-10 2.8726e+07)
(9.28265e+07 -1.74516e+06 9.37191e-10 2.76015e+07 5.72917e-11 3.5732e+07)
(1.84725e+07 -9.87124e+06 1.32677e-09 -1.009e+07 9.40151e-10 4.179e+06)
(9.25368e+07 -195059 7.32823e-10 2.73804e+07 8.34901e-10 3.56512e+07)
(9.35902e+07 -415212 2.33212e-09 2.13867e+07 2.32981e-09 3.44084e+07)
(9.36259e+07 -340981 -1.86951e-09 7.39645e+06 -1.44828e-09 3.04377e+07)
(1.06552e+08 -2.00419e+07 4.27035e-09 2.39181e+06 1.05796e-09 3.39054e+07)
(1.4411e+08 -8.24822e+07 0 4.08295e+07 0 6.70747e+07)
(9.41451e+07 -713776 1.00086e-09 109713 1.35371e-09 2.85951e+07)
(7.58228e+07 -1.43573e+07 3.52903e-09 1.36007e+07 2.05444e-09 2.72551e+07)
(1.44165e+08 9.98513e+06 -9.52576e-09 -1.39191e+06 -7.00219e-09 3.99578e+07)
(2.21011e+07 -1.67779e+07 -2.02639e-09 -2.10148e+07 -5.55669e-10 -361092)
(9.45222e+07 -530349 0 165869 0 2.86321e+07)
(6.93232e+07 -1.9853e+07 4.27376e-09 1.01063e+07 -1.07616e-09 2.38779e+07)
(8.57506e+07 -2.88317e+07 -1.59972e-10 -80690.2 5.05261e-11 2.54162e+07)
(1.20326e+08 1.87537e+07 -9.67936e-09 4.25104e+06 -8.77497e-09 3.7077e+07)
(9.12716e+07 -4.87251e+06 2.60615e-09 2.08216e+07 5.63466e-10 3.29013e+07)
(1.02802e+07 6.68308e+06 -1.5011e-08 -7.28866e+07 -1.44098e-08 -8.11023e+06)
(-4.85183e+06 1.06608e+07 4.39662e-09 -3.13784e+07 -2.45917e-08 -6.15584e+06)
(468651 754124 0 -5.65628e+07 0 -1.95205e+07)
(9.57306e+07 -7.41686e+06 2.64393e-09 6.77813e+06 -3.87315e-10 2.99762e+07)
(2.3477e+08 -1.51812e+07 5.1084e-09 3.20056e+07 9.12559e-10 8.5281e+07)
(2.28324e+07 -1.71712e+07 -1.21005e-09 -5.79376e+07 1.80198e-10 -8.83319e+06)
(9.4162e+07 -2.91854e+07 1.26058e-09 -8.8823e+06 1.61039e-09 2.75079e+07)
(1.97569e+08 3.19162e+06 -3.66035e-09 -1.79487e+06 -4.14121e-09 5.85411e+07)
(1.03307e+08 1.60086e+06 -1.45014e-09 -410379 -1.8174e-09 3.25601e+07)
(9.19107e+07 -7.53295e+06 -1.18207e-09 1.79579e+07 -4.518e-10 3.32053e+07)
(9.04941e+07 -1.26609e+07 -2.7779e-09 1.30977e+07 2.58245e-10 3.14741e+07)
(2.77224e+08 -4.05911e+07 -7.84421e-09 2.28776e+07 -3.25513e-09 7.53052e+07)
(1.41452e+08 1.96303e+07 6.07792e-09 -1.01576e+06 5.07436e-09 4.3464e+07)
(1.38001e+08 2.3996e+07 1.3544e-09 5.04977e+06 9.77031e-10 3.99046e+07)
(1.33679e+08 -4.55454e+06 9.30084e-09 -830865 -2.57563e-09 3.8913e+07)
(8.17863e+07 -1.3448e+07 3.98526e-09 1.41278e+07 5.25183e-10 2.85057e+07)
(1.52757e+08 -1.8501e+06 -1.82292e-08 -2.02838e+07 -1.50966e-08 3.97961e+07)
(8.30824e+07 -2.97216e+06 2.04973e-09 1.83367e+07 5.2918e-10 2.9704e+07)
(1.04216e+08 -3.38797e+06 6.39092e-09 245853 -3.22996e-10 3.14361e+07)
(1.79687e+08 1.3063e+07 4.59306e-09 5.95423e+06 1.91832e-09 5.35332e+07)
(9.60046e+07 -8.89258e+06 -4.9111e-10 5.64753e+06 1.30634e-09 3.12276e+07)
(8.02033e+07 -1.31444e+07 2.07277e-09 1.44411e+07 1.18152e-09 2.87539e+07)