/*--------------------------------*- C++ -*----------------------------------*\
| =========                 |                                                 |
| \\      /  F ield         | OpenFOAM: The Open Source CFD Toolbox           |
|  \\    /   O peration     | Version:  v2012                                 |
|   \\  /    A nd           | Website:  www.openfoam.com                      |
|    \\/     M anipulation  |                                                 |
\*---------------------------------------------------------------------------*/
FoamFile
{
    version     2.0;
    format      ascii;
    class       volVectorField;
    location    "18";
    object      D;
}
// * * * * * * * * * * * * * * * * * * * * * * * * * * * * * * * * * * * * * //

dimensions      [0 1 0 0 0 0 0];


internalField   nonuniform List<vector> 
1896
(
(0.00139939 -6.91802e-07 0)
(0.00130136 -4.27919e-05 0)
(0.00138489 -5.74387e-07 0)
(0.000627568 -0.000492848 0)
(0.00138812 -1.73034e-06 0)
(0.0013794 -2.34128e-06 0)
(0.000558563 -0.000526633 0)
(0.00132229 -1.79912e-06 0)
(0.00110614 -6.49872e-05 0)
(0.00132139 -7.61128e-07 0)
(0.00141553 3.06198e-07 0)
(0.00123696 2.604e-06 0)
(0.00126009 2.75612e-06 0)
(0.00124285 3.42827e-06 0)
(0.00060366 -0.000433677 0)
(0.000102638 -0.000803768 0)
(0.00117936 -6.18512e-05 0)
(0.0007174 -0.000651316 0)
(0.00112488 -4.75594e-05 0)
(0.0010254 -0.000374351 0)
(0.00121395 -9.51359e-05 0)
(0.00128729 -2.75111e-05 0)
(0.0006648 -0.000182593 0)
(0.000631996 -0.000204582 0)
(0.00126992 -4.61413e-05 0)
(0.00128083 -4.26946e-05 0)
(0.00126279 2.42161e-06 0)
(0.00127109 2.02753e-06 0)
(0.00140543 -4.96557e-08 0)
(0.00103755 -4.28133e-05 0)
(0.00105414 -3.94446e-05 0)
(0.0012926 -5.74679e-05 0)
(0.00124128 -2.75318e-06 0)
(0.00130255 -4.51022e-05 0)
(0.000842895 -0.00011783 0)
(0.00141909 3.81388e-06 0)
(0.00107881 -3.85867e-05 0)
(0.00135213 -1.69288e-05 0)
(0.000612754 -0.000679902 0)
(0.00101461 -4.429e-05 0)
(0.00128096 -6.91641e-05 0)
(0.000918244 -0.000432258 0)
(0.00110586 -1.42899e-05 0)
(0.000867571 -0.000215876 0)
(0.00127147 1.61351e-06 0)
(0.00126738 2.15142e-06 0)
(0.000552532 -0.000479217 0)
(0.00141478 5.96968e-07 0)
(0.000765304 -0.000219183 0)
(0.000436149 -0.000510124 0)
(0.00138117 -1.14684e-06 0)
(0.00134409 -2.8919e-06 0)
(0.00133742 -2.56462e-06 0)
(0.001291 -2.85444e-05 0)
(0.00108836 -6.48066e-05 0)
(0.00122647 -7.88031e-05 0)
(0.000975015 -0.000103222 0)
(0.00141193 2.35366e-06 0)
(0.00137399 -6.9296e-06 0)
(0.00106598 -8.66723e-05 0)
(0.00132616 -1.49225e-06 0)
(0.000480249 -0.000469668 0)
(0.000489549 -0.000434573 0)
(0.00134486 -8.40467e-06 0)
(0.00105242 -0.000376569 0)
(0.00128205 -6.6142e-05 0)
(0.00076667 -0.000129183 0)
(0.00120091 2.00506e-06 0)
(0.00134578 -1.65873e-05 0)
(0.000742296 -0.000141468 0)
(0.00125545 -7.16764e-07 0)
(0.000565879 -0.000362527 0)
(0.00134513 -1.76833e-05 0)
(0.00123489 -7.939e-05 0)
(0.000822522 -0.000127733 0)
(0.00129079 -4.19197e-05 0)
(0.00128995 -4.52643e-05 0)
(0.00137096 -6.41211e-06 0)
(0.00136292 -7.98609e-06 0)
(0.00122311 -1.77584e-05 0)
(0.00094885 -0.000427371 0)
(0.000677391 -0.000175602 0)
(0.00128927 7.19528e-07 0)
(0.00128738 -4.67657e-07 0)
(0.00129383 -5.38261e-07 0)
(0.00118347 -3.08255e-05 0)
(0.00120544 2.08942e-07 0)
(0.00120763 8.89881e-07 0)
(0.00101359 -9.69527e-05 0)
(0.00114693 -4.90594e-06 0)
(0.0012351 -6.41405e-06 0)
(0.000200941 -0.000196951 0)
(0.00115619 -3.05942e-05 0)
(0.000817086 -0.000521228 0)
(0.00060404 -0.000218406 0)
(0.00127619 -3.68356e-05 0)
(0.00134735 -2.47721e-05 0)
(0.00143513 6.19662e-06 0)
(0.00134175 -3.15539e-05 0)
(0.00116309 -2.19375e-06 0)
(0.00115628 -3.47506e-06 0)
(0.00120231 1.02713e-06 0)
(0.00134489 -7.3073e-06 0)
(0.00114136 -3.05e-05 0)
(0.00106758 -4.4552e-05 0)
(0.00111901 -1.0773e-05 0)
(0.00119409 -3.0537e-05 0)
(0.000829956 -0.000289823 0)
(0.000765962 -0.000141749 0)
(5.63776e-05 -0.000273949 0)
(0.00143585 7.66295e-06 0)
(0.00134935 -2.65258e-05 0)
(0.00084615 -0.000104689 0)
(0.000982462 -9.08342e-05 0)
(0.000914642 -0.000648019 0)
(0.00119263 -1.08454e-06 0)
(0.00129783 4.88419e-07 0)
(0.00119828 -4.38047e-06 0)
(0.000949036 -0.000281292 0)
(0.00106151 -4.28492e-05 0)
(0.000919449 -0.000286141 0)
(0.00111046 -7.18602e-05 0)
(0.00134172 -2.09623e-05 0)
(0.0012859 1.0187e-06 0)
(0.00128741 8.66166e-07 0)
(0.00102534 -0.000102117 0)
(0.000832694 -0.000264844 0)
(0.00131445 -2.14947e-06 0)
(0.00111305 -6.9649e-05 0)
(0.00113838 -6.32648e-06 0)
(0.00112945 -9.92766e-06 0)
(0.00123136 -8.36173e-06 0)
(0.000821937 -0.000116625 0)
(0.000854524 -0.00051105 0)
(0.00113446 -4.8578e-05 0)
(0.000462424 -0.000435737 0)
(0.000759988 -0.000402785 0)
(0.000721033 -0.000434393 0)
(0.00129364 -6.04154e-05 0)
(0.00096608 -4.92888e-05 0)
(0.0013252 -2.26099e-05 0)
(0.000853746 -0.000180381 0)
(0.0010071 -4.40002e-05 0)
(0.000174446 -0.000919293 0)
(0.00126893 -3.60429e-06 0)
(0.00119638 -4.50184e-05 0)
(0.00120999 -4.43609e-05 0)
(0.00110288 -6.71254e-05 0)
(0.00061326 -0.00023513 0)
(0.00120093 -2.7508e-06 0)
(0.00126174 2.88282e-06 0)
(0.00133554 -2.93439e-05 0)
(0.00132016 -2.24692e-05 0)
(0.00133514 -1.17595e-05 0)
(0.00132058 -1.24211e-05 0)
(0.000900613 -0.000110151 0)
(0.00129321 4.13709e-07 0)
(0.000904929 -0.000116227 0)
(0.000781484 -0.000498718 0)
(0.00135167 -1.67036e-06 0)
(0.00135108 -2.41878e-06 0)
(0.000740675 -0.00015522 0)
(0.00110193 -8.31544e-05 0)
(0.00137104 -7.79018e-06 0)
(0.000183361 -0.000946445 0)
(0.00131514 -5.92897e-07 0)
(1.46527e-05 -0.00106663 0)
(0.00141566 2.30251e-06 0)
(0.00141917 2.41353e-06 0)
(0.00132395 -3.44874e-05 0)
(0.00132435 -3.71241e-05 0)
(0.00127232 -6.54883e-05 0)
(0.00123231 -1.68001e-06 0)
(0.00123542 -3.59088e-07 0)
(0.000690292 -0.000433908 0)
(0.000637921 -0.000460701 0)
(0.000707312 -0.000238908 0)
(0.00127347 -3.96942e-05 0)
(0.00141958 5.00821e-07 0)
(0.00110642 -3.74409e-05 0)
(0.0012355 -3.29069e-06 0)
(0.00106497 -7.52839e-05 0)
(0.00133874 -1.24347e-05 0)
(0.000688903 -0.000237165 0)
(0.000638775 -0.000433282 0)
(0.000152827 -0.000984138 0)
(0.00117536 -4.68195e-07 0)
(0.000255988 -0.000756904 0)
(0.00122882 -2.44643e-05 0)
(0.00122286 -3.72699e-05 0)
(0.000762215 -0.000372912 0)
(0.00141889 1.01409e-06 0)
(0.000880861 -0.000170138 0)
(0.000379708 -0.000382064 0)
(0.00100697 -0.000400691 0)
(0.00121812 -1.67499e-07 0)
(0.00111438 -1.4188e-05 0)
(0.000893766 -0.000195569 0)
(0.00122321 1.46176e-06 0)
(0.00128856 7.76044e-07 0)
(0.00120187 1.99696e-06 0)
(0.000970382 -0.000390283 0)
(0.00141442 8.94678e-07 0)
(0.00132368 -1.36488e-05 0)
(0.000311625 -0.000745923 0)
(0.00132833 -1.0754e-05 0)
(0.000795846 -0.000203188 0)
(0.000883081 -8.73793e-05 0)
(0.00123468 -1.14932e-05 0)
(0.00122532 -7.57033e-05 0)
(0.00076408 -0.000144676 0)
(0.00108934 -3.98952e-05 0)
(0.00122698 -5.69612e-05 0)
(0.00122984 -5.9841e-05 0)
(0.00123085 3.58739e-06 0)
(0.00111244 -3.08452e-05 0)
(0.000966142 -0.00035464 0)
(0.000964987 -8.38044e-05 0)
(0.000983613 -8.19565e-05 0)
(0.00103211 -4.0319e-05 0)
(0.00121683 -4.63194e-05 0)
(0.00130959 -1.35431e-05 0)
(0.000479244 -0.000301762 0)
(0.000739276 -0.000155547 0)
(0.0013579 -1.90228e-05 0)
(0.000985538 -4.35976e-05 0)
(0.000791069 -0.000410839 0)
(0.0012176 -3.71925e-05 0)
(7.69166e-05 -0.00102044 0)
(0.00130302 -5.17015e-05 0)
(6.3955e-05 -0.00102641 0)
(0.00133889 -2.40327e-06 0)
(0.00134493 -1.42703e-06 0)
(0.00144423 5.13015e-06 0)
(0.00133763 -4.02702e-05 0)
(0.00132087 -5.14588e-06 0)
(0.00120996 2.56241e-06 0)
(0.000894431 -0.000259447 0)
(0.000174414 -0.000930085 0)
(0.00107851 -8.55907e-05 0)
(0.000830131 -0.000398606 0)
(0.000799696 -0.000269434 0)
(0.00122922 3.24567e-06 0)
(0.000219596 -0.000892256 0)
(0.00129279 -2.50987e-05 0)
(0.00123156 1.51448e-06 0)
(0.00138397 -2.36129e-06 0)
(0.00123755 2.11301e-06 0)
(0.00124313 1.88678e-06 0)
(0.00090211 -8.07263e-05 0)
(0.00104963 -0.000209902 0)
(0.00108927 -1.71965e-05 0)
(0.0013022 -4.93605e-05 0)
(0.00143271 1.5291e-06 0)
(0.00131452 -5.29294e-05 0)
(0.00128378 -1.75265e-05 0)
(0.00118694 -2.53804e-05 0)
(0.000216019 -0.000872705 0)
(0.000538471 -0.000398876 0)
(0.000848355 -0.000107063 0)
(0.00112203 -7.63627e-05 0)
(0.001206 -0.000106376 0)
(0.00120347 -9.94352e-05 0)
(0.00121477 2.91939e-06 0)
(0.00116949 -6.59783e-05 0)
(0.00104594 -5.26478e-05 0)
(2.04566e-05 -0.00106741 0)
(0.00116459 -6.97299e-06 0)
(0.00105755 -8.12485e-05 0)
(0.0012911 -1.58438e-05 0)
(0.00116016 -2.90462e-06 0)
(0.00124958 -8.32372e-06 0)
(0.000363364 -0.000404191 0)
(0.00125031 2.27832e-06 0)
(0.00117892 -5.70145e-05 0)
(0.00120024 -1.95769e-05 0)
(0.000779391 -0.000130724 0)
(0.0014021 3.84858e-06 0)
(0.00125957 -1.66156e-05 0)
(0.00140824 -8.61028e-08 0)
(0.00127167 -6.81431e-05 0)
(0.000870279 -8.89093e-05 0)
(0.00121935 -1.1789e-05 0)
(0.00128856 -6.83813e-05 0)
(0.00122621 -3.48594e-05 0)
(0.000144925 -0.000800848 0)
(0.00119635 -2.03241e-05 0)
(0.00119019 -2.54894e-06 0)
(0.00122035 -1.5174e-05 0)
(0.00142039 4.91585e-08 0)
(6.06903e-05 -0.000856904 0)
(0.00111428 -4.17677e-05 0)
(0.00108883 -3.29867e-05 0)
(0.00118356 -2.23137e-05 0)
(4.00227e-05 -0.00104178 0)
(0.00125663 2.54647e-07 0)
(0.000102929 -0.000754744 0)
(0.00119203 6.30672e-07 0)
(0.000316547 -0.000773783 0)
(0.00119339 -8.43172e-05 0)
(0.000262894 -0.00079161 0)
(0.0010829 -3.14631e-05 0)
(0.000608743 -0.000245586 0)
(0.00054225 -0.000520954 0)
(0.00130645 -1.93317e-05 0)
(0.00129262 -5.02362e-06 0)
(0.0012854 -5.4786e-06 0)
(0.00122784 -7.5867e-06 0)
(0.00122658 -6.02457e-06 0)
(0.00127055 -1.58925e-05 0)
(0.00136695 -8.99215e-06 0)
(0.00115299 -4.79151e-06 0)
(0.00124097 1.05871e-06 0)
(0.00142798 4.28324e-06 0)
(0.00133173 -3.5325e-05 0)
(0.00110808 -6.30154e-05 0)
(0.00131839 -1.7466e-08 0)
(0.00135461 -1.46857e-05 0)
(0.00108025 -1.79586e-05 0)
(0.00136238 -9.6899e-06 0)
(0.00126105 -3.31672e-06 0)
(0.000305169 -0.000545924 0)
(0.000266695 -0.000588659 0)
(0.0010608 -2.12475e-05 0)
(0.00120715 -1.51154e-05 0)
(0.00113338 -8.6774e-06 0)
(0.00108384 -1.67536e-05 0)
(0.00121913 -5.58093e-06 0)
(0.00138727 -2.56308e-06 0)
(0.00131549 -3.32426e-05 0)
(0.00122611 -5.77584e-05 0)
(0.0011324 -8.75051e-05 0)
(0.00143307 2.6456e-06 0)
(0.00131936 -4.85652e-05 0)
(0.00132332 -4.89453e-07 0)
(0.00122296 -7.37438e-05 0)
(0.00122387 3.0423e-06 0)
(0.000588101 -0.00024567 0)
(0.00138942 -2.44828e-06 0)
(0.00130993 -3.62705e-05 0)
(0.00102264 -3.56897e-05 0)
(0.00120893 -8.4977e-05 0)
(0.00102178 -3.21269e-05 0)
(0.0010849 -4.45306e-05 0)
(0.00126669 2.63598e-06 0)
(0.00111059 -5.15856e-05 0)
(0.00111905 -3.65872e-05 0)
(0.000799422 -0.000538584 0)
(0.00117947 1.24372e-07 0)
(0.00122538 -5.73218e-05 0)
(0.00122021 -2.82155e-05 0)
(0.00137945 -4.04945e-06 0)
(0.00102813 -0.000136248 0)
(0.00117614 -2.16277e-05 0)
(0.00115951 -5.60069e-05 0)
(0.00109837 -5.21609e-05 0)
(0.00111785 -0.000276272 0)
(0.000582528 -0.000617938 0)
(0.00118039 -1.70321e-06 0)
(0.000923896 -0.000255437 0)
(0.00103204 -0.000121134 0)
(5.59169e-05 -0.00103496 0)
(0.000570166 -0.000669811 0)
(0.00118052 -0.000101902 0)
(0.0013009 -3.55273e-05 0)
(0.00119042 -5.30231e-05 0)
(0.000925018 -6.08898e-05 0)
(0.000941099 -5.5175e-05 0)
(0.00119055 -1.13541e-05 0)
(3.15569e-05 -0.00105118 0)
(0.000523793 -0.000484531 0)
(0.00124863 2.55525e-06 0)
(0.00144183 3.74215e-06 0)
(0.00133047 -4.49299e-05 0)
(0.00129957 -3.86673e-05 0)
(0.00115795 -1.91181e-05 0)
(0.000851894 -0.000637475 0)
(0.000990568 -0.000107909 0)
(0.00121521 -1.24088e-06 0)
(0.00118147 -4.41914e-07 0)
(0.0012056 1.7803e-06 0)
(0.001304 -5.77041e-05 0)
(0.00120006 -4.93676e-05 0)
(0.00136011 -1.01301e-05 0)
(0.00117 -1.70943e-05 0)
(0.00141011 7.03914e-06 0)
(0.000448583 -0.000738009 0)
(0.00130902 -3.3253e-05 0)
(0.00142686 1.22558e-06 0)
(0.000407554 -0.000740394 0)
(0.00130921 -2.00501e-06 0)
(0.00138445 -2.53822e-06 0)
(0.000202921 -0.000583706 0)
(0.000913829 -0.000567625 0)
(0.00131797 -6.90832e-06 0)
(0.00121141 -3.2208e-05 0)
(0.00102804 -6.2338e-05 0)
(0.000910896 -6.81905e-05 0)
(0.00127485 -2.32326e-05 0)
(0.00127556 -2.1387e-05 0)
(0.00118279 -1.45592e-05 0)
(3.8637e-05 -0.00102756 0)
(0.00111805 -8.13189e-05 0)
(0.00125541 -9.13906e-07 0)
(0.00102789 -5.86676e-05 0)
(0.00106858 -0.000126501 0)
(0.00121404 -2.03255e-05 0)
(0.000500553 -0.000292125 0)
(0.00125439 1.97334e-06 0)
(0.000142835 -0.000703179 0)
(0.0010805 -1.93695e-05 0)
(0.0012735 1.84599e-06 0)
(0.00127142 1.99001e-06 0)
(0.000166094 -0.000893884 0)
(0.000919919 -6.87028e-05 0)
(0.000918252 -7.21248e-05 0)
(0.00130713 -1.19537e-05 0)
(0.0001017 -0.000934424 0)
(0.0010646 -2.30017e-05 0)
(0.001295 -3.71129e-06 0)
(0.00104799 -7.28002e-05 0)
(0.00144506 2.21495e-06 0)
(0.00132672 -5.17797e-05 0)
(0.000672146 -0.000403451 0)
(0.000991862 -4.30029e-05 0)
(0.00115683 -3.126e-06 0)
(0.00120244 -5.05345e-05 0)
(0.00105593 -9.19348e-05 0)
(0.000639972 -0.000504191 0)
(0.000633516 -0.000539562 0)
(0.00116269 -0.000140702 0)
(0.00104878 -0.000138099 0)
(0.00107356 -1.78741e-05 0)
(0.00123704 -4.23661e-05 0)
(0.000971649 -4.89628e-05 0)
(0.000986522 -4.56149e-05 0)
(0.00126503 -6.57192e-05 0)
(0.000102317 -0.000871218 0)
(0.00100158 -0.000189905 0)
(0.00136598 -1.03182e-05 0)
(0.00101828 -0.000171677 0)
(0.00104353 -7.12779e-05 0)
(0.00131504 -1.06623e-05 0)
(0.000170471 -0.000935703 0)
(0.00143841 1.84088e-06 0)
(0.00131929 -5.36352e-05 0)
(0.00127409 -7.9019e-06 0)
(0.00132848 -5.20922e-06 0)
(0.00141729 8.23299e-06 0)
(0.00113395 -7.36826e-05 0)
(0.000381811 -0.000403809 0)
(0.00121708 -3.04724e-05 0)
(0.00121732 -2.73466e-05 0)
(0.00132443 -7.42384e-06 0)
(0.00120299 -2.11049e-05 0)
(0.00128016 1.50228e-06 0)
(0.00131505 -9.55598e-06 0)
(0.00103693 -3.04433e-05 0)
(0.00117887 -0.000162165 0)
(0.00125014 1.77505e-06 0)
(0.000808847 -0.000243854 0)
(0.00131063 -2.02856e-05 0)
(0.000962718 -4.88038e-05 0)
(0.00105304 -4.9406e-05 0)
(0.00110754 -3.5871e-05 0)
(0.000303466 -0.000515805 0)
(0.000943805 -5.91443e-05 0)
(0.000958952 -5.58919e-05 0)
(0.00139804 -5.34291e-07 0)
(0.000903174 -0.000607025 0)
(0.00136912 -4.59494e-06 0)
(0.00123744 3.55787e-06 0)
(0.00120617 -3.7349e-05 0)
(0.0013046 -2.28138e-05 0)
(0.00133431 -2.29658e-05 0)
(0.00124755 -5.73201e-06 0)
(0.00105803 -3.13249e-05 0)
(0.00124874 -4.97913e-06 0)
(0.00128617 -3.4214e-05 0)
(1.62237e-05 -0.00107243 0)
(0.0012099 -7.31017e-06 0)
(0.0013289 -4.89879e-07 0)
(0.00125666 -6.81281e-06 0)
(0.00136101 -5.57681e-06 0)
(0.00121664 1.75293e-07 0)
(0.000494602 -0.000289062 0)
(0.0012369 3.49953e-06 0)
(0.00103728 -6.81673e-05 0)
(0.00120663 -1.55578e-05 0)
(0.00108123 -7.36792e-05 0)
(0.000929914 -6.08901e-05 0)
(0.0011981 -1.69433e-05 0)
(0.00111143 -7.3712e-05 0)
(0.00141053 5.98373e-06 0)
(0.000539718 -0.000617572 0)
(0.000816652 -0.000595355 0)
(0.00124272 -2.06092e-05 0)
(0.00121127 -4.83027e-05 0)
(0.00126094 3.25587e-06 0)
(0.00117003 -5.47386e-05 0)
(0.00132484 -2.98186e-05 0)
(0.00124 -2.54794e-05 0)
(0.00125576 1.03441e-06 0)
(0.000892644 -0.000537132 0)
(0.00139093 -1.86586e-06 0)
(0.00124885 -1.62229e-05 0)
(0.00128401 1.95328e-06 0)
(0.000902423 -0.000471073 0)
(0.00113709 -2.00079e-05 0)
(0.0010044 -8.42659e-05 0)
(0.00112712 -1.91046e-05 0)
(0.00105567 -6.22866e-05 0)
(0.00127138 3.10808e-07 0)
(0.00137266 -4.70867e-06 0)
(3.64879e-05 -0.000970753 0)
(0.000193047 -0.000742129 0)
(0.00125402 3.70464e-06 0)
(0.0012351 -1.99788e-05 0)
(0.00135618 -8.17019e-06 0)
(0.0013504 -8.67819e-06 0)
(0.00139381 -5.34328e-07 0)
(0.00133474 -2.7316e-05 0)
(0.000255706 -0.000533615 0)
(0.00135645 -3.05597e-06 0)
(0.000517875 -0.000303733 0)
(0.00118077 3.79073e-07 0)
(0.00118533 1.11482e-06 0)
(0.000524311 -0.000288867 0)
(0.00128552 -2.3004e-05 0)
(0.00129595 -2.08585e-05 0)
(0.00138395 -1.25545e-06 0)
(0.00131494 -1.55646e-05 0)
(0.0012801 2.12519e-06 0)
(0.0010678 -3.01912e-05 0)
(0.0013526 -7.56449e-06 0)
(0.0012735 1.99511e-06 0)
(0.00124704 -7.51572e-05 0)
(1.6434e-05 -0.00100505 0)
(0.00117236 -0.00019037 0)
(0.000862352 -0.000112026 0)
(0.0008559 -0.000597922 0)
(0.00125349 -3.0718e-06 0)
(0.00102636 -3.23033e-05 0)
(0.00125553 -1.96052e-07 0)
(0.00125173 1.45202e-07 0)
(0.00114159 -4.66544e-06 0)
(0.000970448 -0.00015407 0)
(0.00122961 3.44933e-06 0)
(0.00122421 -9.1058e-07 0)
(0.00128371 -7.5155e-06 0)
(0.00135461 -8.58226e-07 0)
(0.000646194 -0.00029055 0)
(0.000937215 -6.24586e-05 0)
(0.00107936 -9.72898e-05 0)
(0.00128511 1.0241e-06 0)
(0.000156488 -0.000883199 0)
(0.00105875 -0.00010116 0)
(0.000863344 -8.70254e-05 0)
(0.00125138 -2.42653e-05 0)
(0.000185692 -0.000678545 0)
(0.000190718 -0.000617601 0)
(0.00126741 -2.02421e-05 0)
(0.00120528 -7.26959e-05 0)
(0.000222877 -0.000737715 0)
(0.00135942 -1.38268e-05 0)
(0.000181013 -0.000964856 0)
(0.00126882 8.50236e-07 0)
(0.00119502 -4.10623e-05 0)
(0.000940485 -0.000344196 0)
(0.00120605 -4.61721e-06 0)
(0.00114446 -2.4546e-05 0)
(0.001234 9.41331e-07 0)
(0.00124073 -1.16223e-05 0)
(0.000767862 -0.000675176 0)
(0.000909074 -0.000358842 0)
(0.000557237 -0.00033343 0)
(0.00138673 -2.88381e-06 0)
(0.00106555 -2.04631e-05 0)
(0.000990861 -8.54512e-05 0)
(0.00131686 -6.34197e-06 0)
(0.00116169 -3.83295e-06 0)
(0.000838038 -0.000106473 0)
(0.00125011 -4.10526e-05 0)
(0.00117402 -2.28664e-05 0)
(0.000921171 -7.97074e-05 0)
(0.000948321 -5.62286e-05 0)
(0.00125189 -5.36792e-07 0)
(0.00124898 -4.25002e-06 0)
(0.00124201 -2.1494e-05 0)
(0.000837679 -0.000202171 0)
(0.000543946 -0.000359218 0)
(0.000455524 -0.000627192 0)
(0.000950636 -0.000117951 0)
(0.00124751 -3.60988e-06 0)
(0.000423421 -0.000684673 0)
(0.00127986 6.60689e-07 0)
(0.00125809 -2.1429e-05 0)
(0.000978943 -5.02986e-05 0)
(0.000870274 -8.32588e-05 0)
(0.00116269 -1.82414e-06 0)
(0.00103162 -8.27439e-05 0)
(0.000218203 -0.000782286 0)
(4.35504e-06 -0.00107658 0)
(7.33299e-05 -0.00101687 0)
(0.000798524 -0.000345544 0)
(0.000437079 -0.000548113 0)
(0.000871071 -9.73206e-05 0)
(0.000885868 -9.50195e-05 0)
(0.00131335 1.18371e-07 0)
(0.00139198 -1.17202e-06 0)
(0.00128496 -1.06756e-05 0)
(0.00130046 2.84441e-07 0)
(0.001295 -1.92932e-06 0)
(0.00020609 -0.000950708 0)
(0.00124174 -1.39688e-05 0)
(0.00137131 -9.14692e-06 0)
(0.00122141 3.15495e-06 0)
(0.000452649 -0.000675898 0)
(0.000899934 -9.17873e-05 0)
(0.00125132 3.01945e-06 0)
(0.00124291 -3.19091e-06 0)
(0.000920193 -9.13368e-05 0)
(0.00111419 -1.04817e-05 0)
(0.000453906 -0.000355528 0)
(0.00123735 -2.76652e-05 0)
(0.00130184 -1.51565e-05 0)
(0.000415697 -0.000384873 0)
(0.000598426 -0.000387707 0)
(0.00122216 -6.94561e-07 0)
(0.00125009 -2.95586e-05 0)
(0.00124764 1.93044e-06 0)
(0.000662961 -0.000688551 0)
(0.00115676 -6.57531e-05 0)
(0.000775884 -0.000129173 0)
(0.00100215 -0.00021146 0)
(0.00136629 -8.01659e-06 0)
(0.00136118 -9.07863e-06 0)
(0.00110634 -1.76624e-05 0)
(0.000756527 -0.000137042 0)
(0.00118045 -3.20152e-05 0)
(0.00132561 -3.65497e-06 0)
(0.0013277 -2.86863e-06 0)
(0.000619219 -0.000390016 0)
(0.000467389 -0.000537183 0)
(0.00121318 -7.35234e-05 0)
(0.00106486 -0.000183152 0)
(0.00104386 -6.17905e-05 0)
(0.0014059 -2.21978e-07 0)
(0.000487678 -0.00039635 0)
(0.00120454 -6.4956e-05 0)
(0.00108864 -6.9763e-05 0)
(0.00125331 1.96249e-06 0)
(0.000970408 -9.89279e-05 0)
(0.00107831 -5.35212e-05 0)
(0.000354481 -0.000468985 0)
(0.00127737 -1.1907e-05 0)
(0.000923686 -0.000189063 0)
(0.00109084 -1.5697e-05 0)
(0.00104025 -0.000160833 0)
(0.000953582 -0.000205361 0)
(0.0012514 -6.08821e-05 0)
(0.00131273 -3.77445e-05 0)
(0.00123226 -3.99405e-05 0)
(0.000984157 -0.000165852 0)
(0.000926363 -0.000209583 0)
(0.000868259 -9.76643e-05 0)
(0.00131589 -2.92336e-05 0)
(0.00139022 -1.11259e-06 0)
(0.0010417 -3.47284e-05 0)
(0.00112727 -4.23799e-05 0)
(0.0010973 -1.2864e-05 0)
(0.00126406 -6.11958e-06 0)
(0.00101152 -3.82359e-05 0)
(0.00102582 -5.50525e-05 0)
(0.00126841 -3.57283e-05 0)
(0.000138099 -0.000974828 0)
(0.000217662 -0.000625336 0)
(0.000387665 -0.00064018 0)
(0.00125562 1.35977e-06 0)
(0.00130168 -5.29277e-06 0)
(0.00129416 -5.00881e-05 0)
(0.0011795 -8.33713e-05 0)
(1.8252e-05 -0.00105245 0)
(0.00120907 -2.21554e-05 0)
(0.0011271 -5.28921e-05 0)
(0.00113199 -4.6137e-05 0)
(0.00119092 -8.09967e-05 0)
(0.0013757 -2.62314e-06 0)
(0.000649078 -0.000195907 0)
(0.00114283 -2.98108e-05 0)
(0.00113816 -2.76839e-05 0)
(0.00076992 -0.000132852 0)
(0.00117374 -8.65656e-05 0)
(0.000362527 -0.000650101 0)
(0.0012675 -4.93309e-05 0)
(0.00128081 -4.9262e-05 0)
(0.00124771 -6.78211e-05 0)
(0.00120589 -3.35007e-05 0)
(0.000475014 -0.000575786 0)
(0.00125313 -6.97316e-05 0)
(0.00142838 6.49652e-06 0)
(0.00109778 -3.00817e-05 0)
(0.0011502 -6.43131e-05 0)
(0.00115169 -5.91064e-05 0)
(0.00110649 -2.4068e-05 0)
(0.00100191 -3.73781e-05 0)
(0.00124165 -3.12155e-05 0)
(0.000776452 -0.000134187 0)
(0.0012671 9.11927e-07 0)
(0.000757098 -0.00032398 0)
(0.000928149 -6.13399e-05 0)
(0.00130581 -8.3458e-07 0)
(0.000944882 -5.63963e-05 0)
(0.0011213 -8.50548e-05 0)
(0.000274688 -0.000676443 0)
(0.00138079 -6.70734e-07 0)
(0.000203518 -0.000694624 0)
(0.000453281 -0.000581219 0)
(0.000870324 -0.000116604 0)
(0.0011983 -8.39599e-05 0)
(0.00125117 -9.06303e-06 0)
(0.00122227 -6.47639e-05 0)
(0.000263353 -0.000503563 0)
(0.00125819 1.17094e-06 0)
(0.000717782 -0.000170042 0)
(0.00124968 4.7846e-07 0)
(0.00144741 3.39046e-06 0)
(0.00133337 -4.72335e-05 0)
(0.00122989 -7.19781e-05 0)
(0.000713244 -0.000178643 0)
(0.00118717 -4.90032e-05 0)
(0.00127436 1.26989e-06 0)
(0.00118808 -0.000141747 0)
(0.00127859 9.37023e-07 0)
(6.51859e-05 -0.000958851 0)
(0.000470097 -0.000394562 0)
(0.00129354 -3.58737e-05 0)
(4.29993e-05 -0.00104925 0)
(0.00111304 -3.20005e-05 0)
(0.00124566 -2.58344e-07 0)
(0.00113221 -1.56178e-05 0)
(0.0010085 -0.00015608 0)
(0.00135601 -1.24201e-06 0)
(0.00126436 1.22842e-06 0)
(0.00117914 -0.000119753 0)
(0.00137977 -4.07464e-06 0)
(0.00115453 -7.63627e-06 0)
(0.000434187 -0.000806502 0)
(0.00102699 -4.97934e-05 0)
(0.00135089 -1.11394e-05 0)
(0.000848937 -9.90397e-05 0)
(0.00113704 -1.40047e-05 0)
(0.000880745 -8.23991e-05 0)
(0.00119289 -6.66569e-05 0)
(0.00128353 1.37828e-07 0)
(3.06721e-05 -0.00105428 0)
(0.000760377 -0.000295435 0)
(0.00132536 -2.68122e-05 0)
(0.000666499 -0.000182285 0)
(0.000329848 -0.000865728 0)
(0.00102585 -3.05052e-05 0)
(0.000727957 -0.000300518 0)
(0.00111312 -2.20731e-05 0)
(0.00126222 1.47391e-06 0)
(0.00122999 -4.29896e-05 0)
(0.000893507 -7.28346e-05 0)
(0.00122291 -6.02435e-05 0)
(0.000697808 -0.00040155 0)
(0.000637661 -0.000311242 0)
(0.00109591 -0.000283384 0)
(0.00107488 -3.68363e-05 0)
(0.000544033 -0.000295123 0)
(0.000728229 -0.00035153 0)
(0.00106132 -3.61397e-05 0)
(0.00123565 -1.74564e-05 0)
(0.00106337 -2.0119e-05 0)
(0.00106748 -1.94368e-05 0)
(0.00120713 -1.16223e-06 0)
(0.000905701 -0.00010865 0)
(0.00120319 -4.19795e-07 0)
(0.000902118 -6.97435e-05 0)
(0.000890115 -7.44748e-05 0)
(0.000401476 -0.000529376 0)
(0.0012985 -7.3793e-06 0)
(0.0012174 2.00971e-06 0)
(0.00129915 6.78859e-07 0)
(0.00130355 5.11737e-07 0)
(0.00132316 -1.97972e-05 0)
(0.000557751 -0.000572719 0)
(0.00116513 -8.54874e-06 0)
(0.000551217 -0.00026893 0)
(0.000942661 -0.000167322 0)
(0.00135234 -5.41374e-06 0)
(0.00108767 -0.000326718 0)
(0.00134885 -6.99415e-07 0)
(0.00130558 -6.98693e-06 0)
(0.000901543 -7.32125e-05 0)
(0.00108491 -1.6488e-05 0)
(0.00125864 6.16085e-07 0)
(0.00126992 -5.24344e-06 0)
(0.00132379 -2.39797e-05 0)
(0.0012506 -4.47877e-06 0)
(0.00122558 -3.01416e-05 0)
(0.00134782 -1.22661e-05 0)
(0.00121454 -6.1249e-05 0)
(0.00141079 2.59187e-06 0)
(0.00101791 -3.81478e-05 0)
(0.00100622 -6.63704e-05 0)
(0.000986556 -7.11841e-05 0)
(0.00125155 -5.49325e-06 0)
(0.00112869 -1.64458e-05 0)
(0.00127537 2.10619e-06 0)
(0.00140082 -6.60763e-07 0)
(0.00121996 -4.11595e-05 0)
(0.00128448 -2.51033e-05 0)
(0.000531314 -0.000745644 0)
(0.00136816 -8.77854e-07 0)
(0.00109872 -1.34064e-05 0)
(0.00134535 -4.23581e-06 0)
(0.00042277 -0.000349479 0)
(0.000958621 -9.21934e-05 0)
(0.00120259 -1.28902e-05 0)
(0.000963011 -8.34805e-05 0)
(0.000207344 -0.000847742 0)
(0.0011461 -6.78096e-06 0)
(0.00130818 -4.88036e-06 0)
(0.00136327 -3.07109e-07 0)
(0.00128406 -5.35719e-05 0)
(0.00100911 -9.05919e-05 0)
(0.00114922 -0.000139541 0)
(0.00106404 -0.000331934 0)
(0.00126688 2.83015e-06 0)
(0.000467194 -0.000335974 0)
(0.0012716 2.79887e-06 0)
(0.00125414 -4.27581e-05 0)
(8.05009e-05 -0.00100731 0)
(0.00131131 -4.99613e-08 0)
(0.00124016 -3.6467e-05 0)
(0.000934229 -8.9369e-05 0)
(0.00119027 -7.82709e-06 0)
(0.0012013 -6.6771e-06 0)
(0.00125483 -7.62271e-05 0)
(0.0012004 -5.28367e-05 0)
(0.00124307 -6.13637e-05 0)
(0.00104358 -8.32465e-05 0)
(0.00132791 -1.78092e-05 0)
(0.00114175 -1.19381e-05 0)
(0.00139608 -1.15842e-06 0)
(0.000364434 -0.000442933 0)
(0.00125266 -3.79218e-06 0)
(0.00122644 -3.08441e-05 0)
(0.00123504 -2.93818e-05 0)
(0.00139068 -1.12192e-06 0)
(0.00116506 -1.17015e-05 0)
(0.00114252 -7.47673e-05 0)
(0.00125372 -1.74027e-06 0)
(0.000949725 -0.00057065 0)
(0.00119119 -0.000119818 0)
(0.00113583 -3.44347e-05 0)
(0.00125791 3.60945e-07 0)
(0.00123159 -4.58094e-05 0)
(0.00059148 -0.000307918 0)
(0.000536879 -0.000269445 0)
(0.000562647 -0.000248712 0)
(0.00119488 -7.6272e-05 0)
(0.00132553 -1.60111e-05 0)
(0.00137238 -6.78928e-06 0)
(0.00131675 -1.69484e-05 0)
(0.000931178 -0.000144516 0)
(0.00122771 -1.40415e-05 0)
(0.00122046 -4.7992e-05 0)
(0.000809997 -0.000108079 0)
(0.00114283 -8.46806e-05 0)
(0.00101573 -7.92612e-05 0)
(0.00116591 -3.95956e-05 0)
(0.00115103 -3.78738e-05 0)
(0.0012713 9.74409e-07 0)
(0.000709569 -0.000485471 0)
(0.00132881 -2.70191e-05 0)
(0.00101062 -0.000445518 0)
(0.00106681 -3.4679e-05 0)
(0.000809113 -0.00021387 0)
(0.00139846 2.63623e-06 0)
(0.00102638 -2.97536e-05 0)
(0.00133304 -1.36579e-06 0)
(0.00128659 -3.35186e-06 0)
(0.000549942 -0.000252288 0)
(0.00124045 -2.02728e-05 0)
(0.000536087 -0.000261311 0)
(0.00109445 -4.91762e-05 0)
(0.00109949 -4.46228e-05 0)
(0.000725727 -0.000452409 0)
(0.00131167 -9.78098e-07 0)
(0.00143895 5.23564e-06 0)
(0.00132851 -3.96449e-05 0)
(0.00133641 -3.79319e-05 0)
(0.00143092 3.65747e-06 0)
(0.00112618 -0.000239899 0)
(0.00126037 -2.19745e-06 0)
(0.00139791 1.46201e-06 0)
(0.00123519 -1.8342e-05 0)
(0.00122685 -2.16644e-05 0)
(0.00106458 -0.000225617 0)
(0.00095112 -0.000130372 0)
(0.000624675 -0.000289099 0)
(0.00118887 -7.28529e-05 0)
(0.00101753 -0.000329266 0)
(0.00118741 -2.65927e-05 0)
(0.00100909 -5.14488e-05 0)
(0.000793339 -0.000120022 0)
(0.000973671 -0.000189962 0)
(0.0013337 -1.43742e-05 0)
(0.00094848 -5.57373e-05 0)
(0.000731039 -0.000183541 0)
(0.000256926 -0.000863573 0)
(0.000970113 -5.9284e-05 0)
(0.000966557 -6.57161e-05 0)
(0.00136846 -7.15542e-07 0)
(0.000741247 -0.000170416 0)
(0.00122609 2.93991e-06 0)
(0.00135793 -3.03217e-07 0)
(2.33039e-05 -0.00105685 0)
(0.000864568 -0.000284551 0)
(0.00125693 -5.77731e-05 0)
(0.00114282 -3.96567e-05 0)
(0.000898363 -0.000233243 0)
(0.00120799 -8.31914e-06 0)
(0.00122357 -1.39671e-05 0)
(0.00124008 -8.91907e-06 0)
(0.001364 -3.87631e-06 0)
(0.00114669 -0.000231187 0)
(0.000374882 -0.000681523 0)
(0.00119334 -3.42344e-05 0)
(0.00102744 -4.87429e-05 0)
(0.00117552 -6.67195e-06 0)
(0.00117097 -6.15734e-06 0)
(0.00140708 -1.65071e-07 0)
(0.000866905 -0.000240808 0)
(0.000103363 -0.000969577 0)
(6.02931e-05 -0.00104015 0)
(0.00104057 -2.92127e-05 0)
(0.000812149 -0.000106648 0)
(0.00103049 -7.80044e-05 0)
(0.00109072 -1.42794e-05 0)
(0.00114955 -6.50942e-06 0)
(0.0011764 -4.29011e-06 0)
(0.0011216 -3.83109e-05 0)
(0.00103787 -5.28539e-05 0)
(0.000848218 -0.000132028 0)
(0.00121036 -8.6908e-06 0)
(0.000648294 -0.000590985 0)
(0.00106151 -2.73631e-05 0)
(0.000873198 -0.000118241 0)
(0.00105445 -3.1234e-05 0)
(0.000885361 -0.000135444 0)
(0.000955316 -9.68923e-05 0)
(0.00124378 2.88775e-06 0)
(0.000824183 -0.000134493 0)
(0.00124016 2.99752e-06 0)
(0.00121043 -6.68216e-05 0)
(0.00109057 -2.35055e-05 0)
(0.000942075 -5.59549e-05 0)
(0.00134116 -5.13579e-06 0)
(0.000335771 -0.000797009 0)
(0.000303573 -0.000658176 0)
(0.00108428 -2.72547e-05 0)
(0.000566726 -0.000243385 0)
(0.0013376 -7.57352e-06 0)
(0.00135378 -6.11788e-06 0)
(0.000788537 -0.000117829 0)
(0.00141444 1.36573e-06 0)
(0.00137112 -4.17517e-06 0)
(0.000790999 -0.000239265 0)
(0.00126545 1.19368e-06 0)
(0.00124673 -1.10821e-05 0)
(0.000953729 -9.27781e-05 0)
(0.00127431 -3.27865e-05 0)
(0.00119007 -1.69477e-06 0)
(5.13845e-06 -0.0010766 0)
(0.0012632 -2.85643e-07 0)
(0.00119529 -0.000137185 0)
(0.00108676 -9.00548e-05 0)
(0.0003971 -0.000799256 0)
(0.00139062 -1.57691e-07 0)
(0.00102058 -8.91333e-05 0)
(0.000976994 -0.000504189 0)
(0.00122062 -5.6694e-05 0)
(0.00132551 -9.90588e-06 0)
(0.000307773 -0.000694414 0)
(0.000539715 -0.000573124 0)
(0.00111181 -0.000110452 0)
(0.00117974 -2.97743e-06 0)
(0.00106963 -5.60426e-05 0)
(0.00105634 -5.76675e-05 0)
(0.00121804 -5.7365e-05 0)
(0.00100501 -5.64006e-05 0)
(0.000838643 -0.000144696 0)
(0.00135429 -2.2054e-06 0)
(0.00113223 -1.07028e-05 0)
(0.00110408 -1.58369e-05 0)
(0.00063135 -0.000203476 0)
(0.00121878 3.74394e-06 0)
(0.00108877 -1.91275e-05 0)
(0.00123054 3.36853e-06 0)
(0.000899644 -9.73689e-05 0)
(0.00125437 1.38779e-07 0)
(0.000260029 -0.000834268 0)
(0.00122971 -4.48858e-05 0)
(0.000247461 -0.00089521 0)
(0.00125714 -3.76003e-05 0)
(0.00140583 2.69471e-07 0)
(0.00139953 -8.22564e-07 0)
(0.000638572 -0.000198636 0)
(0.00114582 -3.50223e-05 0)
(0.00131305 -4.19191e-05 0)
(0.000143445 -0.000848056 0)
(0.000111662 -0.000891801 0)
(0.00105799 -6.99685e-05 0)
(0.001201 -4.05287e-05 0)
(0.000947916 -0.000522974 0)
(0.00131258 -6.08052e-08 0)
(0.00125406 -1.27023e-06 0)
(0.00132342 -1.36569e-07 0)
(0.00122049 3.23687e-06 0)
(9.04868e-05 -0.00102283 0)
(0.00123566 -1.00772e-06 0)
(0.00123998 2.28662e-07 0)
(0.0012459 3.1339e-06 0)
(0.00109994 -2.30235e-05 0)
(0.00112439 -0.000138203 0)
(0.000601799 -0.000276133 0)
(0.00122274 2.17606e-06 0)
(0.000883658 -0.000102113 0)
(0.0012816 -6.00882e-05 0)
(0.000921334 -7.51631e-05 0)
(0.000905837 -7.83735e-05 0)
(0.000721367 -0.000158956 0)
(0.000557915 -0.000411731 0)
(0.00142659 2.7571e-06 0)
(0.00132056 -4.31058e-05 0)
(0.0011164 -8.82165e-05 0)
(0.000834745 -0.000342565 0)
(0.00113359 -8.02672e-05 0)