/*--------------------------------*- C++ -*----------------------------------*\
| =========                 |                                                 |
| \\      /  F ield         | OpenFOAM: The Open Source CFD Toolbox           |
|  \\    /   O peration     | Version:  v2012                                 |
|   \\  /    A nd           | Website:  www.openfoam.com                      |
|    \\/     M anipulation  |                                                 |
\*---------------------------------------------------------------------------*/
FoamFile
{
    version     2.0;
    format      ascii;
    class       pointVectorField;
    location    "18";
    object      pointD;
}
// * * * * * * * * * * * * * * * * * * * * * * * * * * * * * * * * * * * * * //

dimensions      [0 1 0 0 0 0 0];


internalField   nonuniform List<vector> 
2014
(
(0.00122929 0 2.02927e-21)
(0.00144871 0 -1.2875e-22)
(0.00132615 -5.69775e-05 1.72564e-21)
(0 -0.00108374 1.02461e-21)
(0 -0.000123845 0)
(0.00122929 0 2.02927e-21)
(0.00144871 0 -1.2875e-22)
(0.00132615 -5.69775e-05 1.72564e-21)
(0 -0.00108374 1.02461e-21)
(0 -0.000123845 0)
(0.00123976 0 0)
(0.00124679 0 0)
(0.00125057 0 0)
(0.00125294 0 0)
(0.00125377 0 0)
(0.00125448 0 0)
(0.00125491 0 0)
(0.00125516 0 0)
(0.0012565 0 0)
(0.0012588 0 0)
(0.0012614 0 0)
(0.00126479 0 0)
(0.00126909 0 0)
(0.00127431 0 0)
(0.00128039 0 0)
(0.00128717 0 0)
(0.00129564 0 0)
(0.00130472 0 0)
(0.00131368 0 0)
(0.00132379 0 0)
(0.00133448 0 0)
(0.00134641 0 0)
(0.00135976 0 0)
(0.00137235 0 0)
(0.00138442 0 0)
(0.00139737 0 0)
(0.00141226 0 0)
(0.00142647 0 0)
(0.0014388 0 0)
(0.00145172 2.75768e-06 4.84165e-22)
(0.00144993 5.10776e-06 6.12915e-22)
(0.00144696 7.11241e-06 -3.20131e-22)
(0.00144291 8.73329e-06 7.67776e-23)
(0.00143758 1.01738e-05 -2.95929e-23)
(0.00143142 1.07641e-05 -5.06038e-22)
(0.001425 1.0679e-05 -7.80805e-22)
(0.00141781 9.89034e-06 -3.99087e-23)
(0.00140925 7.93276e-06 -4.32631e-23)
(0.00140049 5.16847e-06 -1.17067e-21)
(0.00139264 2.00075e-06 3.55568e-23)
(0.00138385 -2.39277e-06 1.39206e-21)
(0.00137513 -7.78706e-06 4.56892e-22)
(0.00136766 -1.32819e-05 2.18132e-22)
(0.00135989 -2.00125e-05 2.72055e-21)
(0.00135259 -2.74914e-05 2.21615e-21)
(0.00134642 -3.46892e-05 1.66524e-21)
(0.00134076 -4.20192e-05 2.15421e-21)
(0.00133539 -4.95393e-05 1.88104e-21)
(0.0013116 -6.30595e-05 4.80864e-22)
(0.00129547 -6.79187e-05 2.45394e-22)
(0.00127814 -7.27808e-05 -1.26641e-22)
(0.00126141 -7.69637e-05 -3.72035e-22)
(0.00124391 -8.04954e-05 -2.18867e-22)
(0.0012248 -8.34789e-05 -5.62953e-23)
(0.00120676 -8.57344e-05 3.44691e-22)
(0.00118573 -8.77274e-05 2.59004e-22)
(0.00116376 -8.93033e-05 -4.66679e-23)
(0.0011432 -9.04604e-05 -5.08784e-22)
(0.0011208 -9.14583e-05 -4.65674e-22)
(0.00109792 -9.24808e-05 6.32712e-22)
(0.00107107 -9.39548e-05 5.26107e-22)
(0.00104329 -9.56394e-05 -4.07707e-22)
(0.00101387 -9.78653e-05 -6.66683e-22)
(0.000983371 -0.000101259 -4.46024e-22)
(0.000952936 -0.000105302 3.07318e-22)
(0.000919851 -0.000110316 8.66642e-22)
(0.000886266 -0.000116991 -4.66555e-22)
(0.000843595 -0.000127244 -3.02236e-21)
(0.000799061 -0.000139694 -1.28023e-21)
(0.00075781 -0.000153461 9.47405e-22)
(0.000712652 -0.00017025 2.31147e-22)
(0.000665681 -0.00019062 -6.70227e-22)
(0.000617127 -0.000215107 -1.62247e-21)
(0.000566533 -0.000243241 -4.59089e-22)
(0.000511496 -0.000277533 -1.16041e-21)
(0.000451341 -0.000318396 -8.02154e-22)
(0.000390583 -0.000365431 8.51404e-22)
(0.000330196 -0.00041939 -3.80362e-22)
(0.000270219 -0.000479586 2.65247e-21)
(0.000208734 -0.00055135 5.93511e-21)
(0.000148476 -0.000631536 1.36758e-21)
(9.60108e-05 -0.000715943 -3.05753e-21)
(5.10415e-05 -0.000811186 -4.63713e-21)
(2.03693e-05 -0.000900512 1.92477e-21)
(3.6772e-06 -0.000972935 -4.58244e-22)
(-3.79721e-06 -0.00102972 -6.40697e-21)
(-6.24523e-06 -0.0010666 1.14951e-22)
(0 -0.00108168 0)
(0 -0.0010716 0)
(0 -0.00106422 0)
(0 -0.00105714 0)
(0 -0.00104712 0)
(0 -0.00102135 0)
(0 -0.000936067 0)
(0 -0.000718976 0)
(0 -0.000420342 0)
(0.000353253 -7.93909e-05 -1.52358e-20)
(0.000660846 -0.000275718 -1.53336e-21)
(0.000859799 -0.000486131 1.52698e-20)
(0.000952579 -0.000592653 1.54394e-21)
(0.000980228 -0.000548658 -2.13154e-21)
(0.00101184 -0.000488082 -2.18403e-22)
(0.00104597 -0.000424377 2.42923e-21)
(0.00108122 -0.000364824 4.48301e-22)
(0.00111136 -0.000315399 -9.11655e-23)
(0.00113822 -0.000267626 -2.64867e-21)
(0.0011625 -0.000222395 -1.36579e-21)
(0.00118425 -0.000173504 8.01486e-22)
(0.00120238 -0.000126237 -1.14932e-21)
(0.00121474 -8.52253e-05 -6.85149e-22)
(0.00122157 -4.53215e-05 2.00828e-21)
(0.00123976 0 0)
(0.00124679 0 0)
(0.00125057 0 0)
(0.00125294 0 0)
(0.00125377 0 0)
(0.00125448 0 0)
(0.00125491 0 0)
(0.00125516 0 0)
(0.0012565 0 0)
(0.0012588 0 0)
(0.0012614 0 0)
(0.00126479 0 0)
(0.00126909 0 0)
(0.00127431 0 0)
(0.00128039 0 0)
(0.00128717 0 0)
(0.00129564 0 0)
(0.00130472 0 0)
(0.00131368 0 0)
(0.00132379 0 0)
(0.00133448 0 0)
(0.00134641 0 0)
(0.00135976 0 0)
(0.00137235 0 0)
(0.00138442 0 0)
(0.00139737 0 0)
(0.00141226 0 0)
(0.00142647 0 0)
(0.0014388 0 0)
(0.00145172 2.75768e-06 4.84165e-22)
(0.00144993 5.10776e-06 6.12915e-22)
(0.00144696 7.11241e-06 -3.20131e-22)
(0.00144291 8.73329e-06 7.67776e-23)
(0.00143758 1.01738e-05 -2.95929e-23)
(0.00143142 1.07641e-05 -5.06038e-22)
(0.001425 1.0679e-05 -7.80805e-22)
(0.00141781 9.89034e-06 -3.99087e-23)
(0.00140925 7.93276e-06 -4.32631e-23)
(0.00140049 5.16847e-06 -1.17067e-21)
(0.00139264 2.00075e-06 3.55568e-23)
(0.00138385 -2.39277e-06 1.39206e-21)
(0.00137513 -7.78706e-06 4.56892e-22)
(0.00136766 -1.32819e-05 2.18132e-22)
(0.00135989 -2.00125e-05 2.72055e-21)
(0.00135259 -2.74914e-05 2.21615e-21)
(0.00134642 -3.46892e-05 1.66524e-21)
(0.00134076 -4.20192e-05 2.15421e-21)
(0.00133539 -4.95393e-05 1.88104e-21)
(0.0013116 -6.30595e-05 4.80864e-22)
(0.00129547 -6.79187e-05 2.45394e-22)
(0.00127814 -7.27808e-05 -1.26641e-22)
(0.00126141 -7.69637e-05 -3.72035e-22)
(0.00124391 -8.04954e-05 -2.18867e-22)
(0.0012248 -8.34789e-05 -5.62953e-23)
(0.00120676 -8.57344e-05 3.44691e-22)
(0.00118573 -8.77274e-05 2.59004e-22)
(0.00116376 -8.93033e-05 -4.66679e-23)
(0.0011432 -9.04604e-05 -5.08784e-22)
(0.0011208 -9.14583e-05 -4.65674e-22)
(0.00109792 -9.24808e-05 6.32712e-22)
(0.00107107 -9.39548e-05 5.26107e-22)
(0.00104329 -9.56394e-05 -4.07707e-22)
(0.00101387 -9.78653e-05 -6.66683e-22)
(0.000983371 -0.000101259 -4.46024e-22)
(0.000952936 -0.000105302 3.07318e-22)
(0.000919851 -0.000110316 8.66642e-22)
(0.000886266 -0.000116991 -4.66555e-22)
(0.000843595 -0.000127244 -3.02236e-21)
(0.000799061 -0.000139694 -1.28023e-21)
(0.00075781 -0.000153461 9.47405e-22)
(0.000712652 -0.00017025 2.31147e-22)
(0.000665681 -0.00019062 -6.70227e-22)
(0.000617127 -0.000215107 -1.62247e-21)
(0.000566533 -0.000243241 -4.59089e-22)
(0.000511496 -0.000277533 -1.16041e-21)
(0.000451341 -0.000318396 -8.02154e-22)
(0.000390583 -0.000365431 8.51404e-22)
(0.000330196 -0.00041939 -3.80362e-22)
(0.000270219 -0.000479586 2.65247e-21)
(0.000208734 -0.00055135 5.93511e-21)
(0.000148476 -0.000631536 1.36758e-21)
(9.60108e-05 -0.000715943 -3.05753e-21)
(5.10415e-05 -0.000811186 -4.63713e-21)
(2.03693e-05 -0.000900512 1.92477e-21)
(3.6772e-06 -0.000972935 -4.58244e-22)
(-3.79721e-06 -0.00102972 -6.40697e-21)
(-6.24523e-06 -0.0010666 1.14951e-22)
(0 -0.00108168 0)
(0 -0.0010716 0)
(0 -0.00106422 0)
(0 -0.00105714 0)
(0 -0.00104712 0)
(0 -0.00102135 0)
(0 -0.000936067 0)
(0 -0.000718976 0)
(0 -0.000420342 0)
(0.000353253 -7.93909e-05 -1.52358e-20)
(0.000660846 -0.000275718 -1.53336e-21)
(0.000859799 -0.000486131 1.52698e-20)
(0.000952579 -0.000592653 1.54394e-21)
(0.000980228 -0.000548658 -2.13154e-21)
(0.00101184 -0.000488082 -2.18403e-22)
(0.00104597 -0.000424377 2.42923e-21)
(0.00108122 -0.000364824 4.48301e-22)
(0.00111136 -0.000315399 -9.11655e-23)
(0.00113822 -0.000267626 -2.64867e-21)
(0.0011625 -0.000222395 -1.36579e-21)
(0.00118425 -0.000173504 8.01486e-22)
(0.00120238 -0.000126237 -1.14932e-21)
(0.00121474 -8.52253e-05 -6.85149e-22)
(0.00122157 -4.53215e-05 2.00828e-21)
(0.00104915 -3.65549e-05 0)
(0.00123367 -1.49706e-05 0)
(0.000779023 -0.000227958 0)
(0.00107468 -2.71054e-05 0)
(0.001213 2.12703e-06 0)
(0.0012633 -3.94806e-05 0)
(0.00134505 -6.48833e-06 0)
(0.000501501 -0.000575972 0)
(0.00117606 -4.2246e-05 0)
(0.000828035 -0.000109277 0)
(0.00114058 -4.40597e-05 0)
(0.00128078 -9.77427e-07 0)
(0.00121196 -1.98361e-06 0)
(0.00102865 -0.000152459 0)
(0.00133109 -1.59163e-05 0)
(0.000926021 -6.4241e-05 0)
(0.00110859 -1.09365e-05 0)
(0.00117866 -8.53625e-06 0)
(0.000514851 -0.000397471 0)
(0.000803188 -0.000376182 0)
(0.0010443 -5.61529e-05 0)
(0.00119246 -5.75044e-05 0)
(0.000644574 -0.000222135 0)
(0.000955092 -0.0001053 0)
(0.00139741 -9.23926e-07 0)
(0.00129016 -4.83914e-05 0)
(0.00133089 -2.0967e-06 0)
(0.00126666 2.62521e-06 0)
(0.00121663 -3.39595e-05 0)
(0.000172592 -0.000905157 0)
(0.00129908 -1.38269e-05 0)
(0.00100879 -3.50375e-05 0)
(0.00124812 2.92569e-06 0)
(0.000501107 -0.000737512 0)
(0.00122966 -9.7752e-06 0)
(0.00137911 -4.39847e-06 0)
(0.00132458 -2.54765e-05 0)
(0.00114463 -2.09114e-05 0)
(0.00122231 -4.68905e-05 0)
(0.00130111 -6.18374e-06 0)
(0.00114954 -0.000106262 0)
(0.00113518 -2.49979e-05 0)
(0.00107167 -6.39655e-05 0)
(0.00124022 -4.7525e-06 0)
(0.00080979 -0.000109137 0)
(0.000314809 -0.000619676 0)
(0.00117413 -1.34019e-06 0)
(0.000960711 -7.12795e-05 0)
(0.0012333 -6.28113e-05 0)
(0.00097865 -0.000276262 0)
(0.00136612 -1.90957e-06 0)
(0.00127497 -2.52525e-05 0)
(0.00109599 -6.44525e-05 0)
(0.00129253 7.7735e-07 0)
(0.000816426 -0.000147503 0)
(0.000943061 -6.92848e-05 0)
(0.000696766 -0.000166379 0)
(0.000648717 -0.000397279 0)
(0.00124567 9.65015e-07 0)
(0.000765082 -0.000522067 0)
(0.00124564 8.68479e-07 0)
(0.00119131 -2.35736e-05 0)
(0.0011232 -1.15462e-05 0)
(0.000896479 -0.000214011 0)
(0.000910696 -6.721e-05 0)
(0.000498012 -0.000326767 0)
(0.00111861 -1.27723e-05 0)
(0.00100663 -3.77437e-05 0)
(0.00114547 -6.95878e-05 0)
(0.000193778 -0.00092606 0)
(0.00136939 -7.43862e-06 0)
(0.00107715 -0.000198149 0)
(0.000860042 -9.76204e-05 0)
(0.00131662 -4.48081e-07 0)
(0.0013311 -1.13888e-05 0)
(0.00141124 1.83312e-06 0)
(0.00132241 -3.26042e-05 0)
(0.000667762 -0.000262985 0)
(0.0011655 -2.8504e-06 0)
(0.00124088 -1.66434e-05 0)
(0.00102035 -4.63109e-05 0)
(0.0012036 -1.20853e-06 0)
(0.00126588 2.38994e-06 0)
(0.00122029 3.15405e-06 0)
(0.00142477 1.3492e-06 0)
(0.00130629 -5.37292e-05 0)
(0.00110255 -4.04809e-05 0)
(0.00129994 -2.54988e-05 0)
(0.00126326 -8.03645e-06 0)
(0.00106929 -1.99936e-05 0)
(0.00119636 -1.40208e-05 0)
(0.00135801 -1.26427e-05 0)
(0.00119132 -1.82961e-05 0)
(0.00118285 -4.53559e-05 0)
(0.000348952 -0.000496588 0)
(0.00109688 -9.6199e-05 0)
(0.00137874 -3.54577e-06 0)
(0.00129155 -3.89578e-05 0)
(0.00122335 -4.42389e-05 0)
(0.00124697 -2.23983e-05 0)
(0.000934858 -0.000387786 0)
(0.000182856 -0.00079116 0)
(0.00123781 3.44837e-06 0)
(4.97639e-05 -0.00103183 0)
(0.00100345 -7.80932e-05 0)
(0.000478577 -0.000499678 0)
(0.000678716 -0.000466533 0)
(0.00102639 -6.10853e-05 0)
(0.0009547 -0.000144752 0)
(0.00116659 -7.17129e-06 0)
(0.00119747 -7.03991e-05 0)
(0.000795839 -0.00029341 0)
(0.00125919 -6.46747e-05 0)
(0.00107351 -1.98178e-05 0)
(0.00124677 -2.03042e-06 0)
(0.00134961 -3.405e-06 0)
(0.00119421 -9.82666e-05 0)
(0.00138982 -8.13433e-07 0)
(0.00134886 -1.13066e-06 0)
(0.00130225 -2.79952e-06 0)
(0.000598247 -0.000226184 0)
(0.0012839 1.42477e-06 0)
(0.00074776 -0.000158373 0)
(0.000323573 -0.000708377 0)
(0.000508703 -0.00067645 0)
(0.00131674 -8.22902e-06 0)
(0.00104699 -7.73803e-05 0)
(0.000874204 -0.000155874 0)
(0.000381571 -0.000738257 0)
(0.00127404 1.1936e-06 0)
(0.00100387 -4.18838e-05 0)
(0.00112034 -1.93891e-05 0)
(0.00125767 -4.9427e-05 0)
(0.00123459 -3.99161e-05 0)
(0.00130545 -1.80638e-05 0)
(0.00119001 -6.15476e-05 0)
(0.00121643 -2.37979e-05 0)
(0.00125761 1.48447e-06 0)
(0.00113615 -3.83948e-05 0)
(0.00109072 -3.7366e-05 0)
(0.00126734 -1.38072e-05 0)
(9.19866e-05 -0.00100709 0)
(0.000789856 -0.000625064 0)
(0.000719171 -0.000154923 0)
(0.00137078 -3.10855e-06 0)
(0.00107206 -3.66265e-05 0)
(0.00142293 2.68487e-06 0)
(0.00132191 -4.02043e-05 0)
(0.00127768 -4.4175e-06 0)
(0.00122732 -4.00337e-06 0)
(0.00114965 -5.4782e-05 0)
(0.00122899 2.13125e-06 0)
(0.000696184 -0.00030319 0)
(0.00060552 -0.000577919 0)
(0.000957421 -5.03653e-05 0)
(0.000904064 -9.29879e-05 0)
(0.00139618 3.56797e-07 0)
(0.00129987 -3.2913e-07 0)
(0.000250556 -0.00091502 0)
(0.000972435 -5.53286e-05 0)
(0.00124818 -3.26018e-05 0)
(0.000893112 -0.000106384 0)
(0.000721005 -0.00019933 0)
(0.00134962 -1.88734e-05 0)
(0.00103644 -0.000106851 0)
(0.001225 -5.38962e-05 0)
(0.00132325 -4.41384e-06 0)
(0.00118002 -3.46897e-05 0)
(0.00124843 -5.56001e-06 0)
(0.000778104 -0.000125084 0)
(0.00135534 -9.67942e-06 0)
(0.00087354 -8.11788e-05 0)
(0.00124273 -2.26517e-05 0)
(0.00132912 -2.02668e-05 0)
(0.00115141 -3.14345e-05 0)
(0.00125743 -1.30567e-06 0)
(0.000893206 -0.000284515 0)
(0.00115058 -3.76453e-06 0)
(0.001144 -0.000163003 0)
(0.00135852 -7.2286e-06 0)
(0.0011887 -9.35021e-06 0)
(0.000795047 -0.000123755 0)
(0.00108437 -5.41295e-05 0)
(0.00122845 -1.01098e-05 0)
(0.0011162 -1.97626e-05 0)
(0.00119907 -4.9307e-08 0)
(0.00111084 -7.8302e-05 0)
(0.00115794 -1.59049e-05 0)
(0.0010484 -0.000279987 0)
(0.00109073 -0.000140697 0)
(0.000893034 -8.00168e-05 0)
(0.00130754 2.1489e-07 0)
(0.000887662 -0.000498897 0)
(0.00116817 -7.57382e-05 0)
(0.00121059 -5.5906e-06 0)
(0.000383752 -0.000416149 0)
(0.000920685 -7.49066e-05 0)
(0.000232267 -0.000642202 0)
(9.25991e-05 -0.000935791 0)
(0.000520079 -0.000285314 0)
(0.000948392 -8.89595e-05 0)
(0.00116254 -6.04993e-06 0)
(0.000975545 -0.000210179 0)
(0.00118765 8.80291e-07 0)
(0.00133376 -5.3194e-07 0)
(0.00121645 -2.49227e-05 0)
(0.00129473 -3.18276e-05 0)
(0.00122102 -7.38161e-05 0)
(0.00100603 -5.94696e-05 0)
(0.00127711 -1.93465e-05 0)
(0.00140818 2.68247e-06 0)
(0.000847433 -9.3025e-05 0)
(0.00123545 2.53959e-06 0)
(0.00129219 -9.81561e-06 0)
(0.000965187 -7.62872e-05 0)
(0.00137583 -7.97989e-07 0)
(0.000560346 -0.000318725 0)
(0.00096086 -5.12239e-05 0)
(0.00123171 -1.70131e-06 0)
(0.00128036 -2.99751e-05 0)
(0.000641954 -0.000196624 0)
(0.00126418 1.67937e-06 0)
(0.000999302 -9.33546e-05 0)
(0.000845016 -0.000111587 0)
(0.000439122 -0.000480861 0)
(0.00126368 -5.55887e-05 0)
(0.00125546 3.33096e-06 0)
(0.00114756 -7.31734e-05 0)
(0.00129368 6.51164e-07 0)
(0.00128208 -6.30805e-05 0)
(0.000779241 -0.000198547 0)
(0.000867312 -0.000194647 0)
(0.00112237 -5.22604e-05 0)
(0.00134612 -2.22631e-06 0)
(0.000679172 -0.00018499 0)
(0.000817077 -0.000432097 0)
(0.00021084 -0.000888525 0)
(0.00107295 -8.01765e-05 0)
(0.00127509 1.53667e-06 0)
(0.00141152 2.00396e-07 0)
(0.0011685 -2.13039e-05 0)
(0.00102469 -3.92571e-05 0)
(0.000581529 -0.000375786 0)
(0.00131842 -1.29675e-06 0)
(0.00100021 -5.27721e-05 0)
(0.00109806 -2.91593e-05 0)
(0.00137738 -5.17314e-06 0)
(0.000996042 -0.000362453 0)
(0.00072654 -0.000403011 0)
(0.00059457 -0.000477885 0)
(0.00105696 -2.18599e-05 0)
(0.00121598 -8.00756e-05 0)
(0.00112354 -6.18232e-05 0)
(0.00125441 -4.23486e-08 0)
(0.00113493 -7.61927e-06 0)
(0.00109759 -1.73447e-05 0)
(0.00125507 2.53478e-06 0)
(0.00121242 -3.94753e-05 0)
(0.00132468 -6.17868e-06 0)
(0.00135264 -1.23812e-05 0)
(0.00107178 -2.32076e-05 0)
(0.000460558 -0.000388608 0)
(0.00120878 -1.81957e-05 0)
(0.00119452 7.9559e-08 0)
(0.00114613 -1.18144e-05 0)
(0.000856759 -0.00055944 0)
(0.00127952 1.66277e-06 0)
(0.00114845 -5.00224e-06 0)
(0.0013629 -1.19733e-05 0)
(0.00122663 4.98787e-07 0)
(0.00124395 2.38443e-06 0)
(0.00105287 -2.69266e-05 0)
(0.0014327 1.2845e-06 0)
(0.00131113 -5.64589e-05 0)
(0.00138383 -1.69688e-06 0)
(0.000753412 -0.000143205 0)
(0.00101607 -3.30516e-05 0)
(0.00116433 -6.05673e-05 0)
(0.0012455 -2.77304e-05 0)
(0.000415292 -0.000592604 0)
(0.00103208 -0.000189042 0)
(0.00123626 3.4341e-06 0)
(0.00131767 -1.15444e-05 0)
(0.00111683 -6.4599e-05 0)
(0.000855712 -9.31812e-05 0)
(0.00138739 -2.65064e-06 0)
(0.00131976 -2.99522e-05 0)
(0.000566398 -0.000269154 0)
(0.00125987 -5.05041e-06 0)
(0.000115112 -0.000997904 0)
(0.00139271 -1.67764e-06 0)
(0.00130085 -4.04053e-05 0)
(0.00110224 -1.29697e-05 0)
(0.00121572 -9.63882e-06 0)
(0.00129708 -2.24109e-05 0)
(0.00125664 8.57315e-07 0)
(0.0012376 -7.34613e-05 0)
(0.00113247 -8.03547e-05 0)
(0.00139396 5.61209e-07 0)
(0.000967782 -5.09417e-05 0)
(0.00132689 -1.44103e-05 0)
(0.00120753 -4.10205e-05 0)
(0.00136155 -7.69598e-07 0)
(0.000417825 -0.000368608 0)
(0.00124289 -4.42942e-05 0)
(0.00142595 4.74419e-06 0)
(0.00133626 -3.13489e-05 0)
(0.000626268 -0.000256277 0)
(0.00127879 -4.63853e-05 0)
(0.00126184 3.96644e-07 0)
(0.00095354 -0.000183039 0)
(0.00127111 2.41585e-06 0)
(0.00121628 1.03019e-06 0)
(0.00110671 -0.000251281 0)
(0.000342287 -0.000814143 0)
(0.00121736 -6.15644e-05 0)
(0.00122335 3.22698e-06 0)
(0.00114677 -7.90765e-06 0)
(0.0010428 -4.69041e-05 0)
(0.00101854 -8.39738e-05 0)
(0.0011098 -4.70527e-05 0)
(0.00119921 -4.87737e-05 0)
(0.000154015 -0.000738845 0)
(0.00143462 3.58165e-06 0)
(0.00132687 -4.31815e-05 0)
(0.00086538 -0.000105453 0)
(0.0014091 1.40112e-07 0)
(4.29873e-05 -0.00104694 0)
(0.00131719 -4.91667e-08 0)
(0.00129077 -5.43685e-05 0)
(0.00137116 -6.499e-06 0)
(0.00133556 -8.85352e-06 0)
(0.000835965 -0.000243029 0)
(1.9697e-05 -0.00106325 0)
(0.00119829 -8.97885e-06 0)
(0.00125157 -2.18607e-06 0)
(0.00132897 -9.50951e-07 0)
(0.00136228 -4.74521e-06 0)
(0.000655745 -0.000622588 0)
(0.000248372 -0.000573561 0)
(0.000921967 -0.000318643 0)
(0.00116912 -3.13978e-05 0)
(0.000381604 -0.000698033 0)
(0.00117675 -0.000140902 0)
(0.000758428 -0.000601859 0)
(0.000596963 -0.000324541 0)
(0.00109878 -1.43929e-05 0)
(0.00125016 -7.90171e-06 0)
(0.000263963 -0.000717423 0)
(0.000728846 -0.000238952 0)
(0.00110031 -4.56265e-05 0)
(0.00105678 -6.35882e-05 0)
(0.000872678 -0.000129286 0)
(0.00118129 -6.7274e-05 0)
(0.00123401 -1.61037e-05 0)
(0.00128639 1.48219e-07 0)
(0.000896353 -8.70865e-05 0)
(0.00124658 -1.77397e-05 0)
(0.0013045 1.46998e-07 0)
(0.0011855 -4.70759e-06 0)
(0.00091683 -6.47757e-05 0)
(0.00112594 -3.21788e-05 0)
(0.00125737 2.68821e-06 0)
(0.00121295 -1.67849e-05 0)
(0.00102352 -3.30969e-05 0)
(0.00123347 -2.78206e-05 0)
(0.000245823 -0.000846206 0)
(0.0012021 -6.85924e-05 0)
(0.000972047 -9.07489e-05 0)
(0.000748764 -0.000146251 0)
(0.0010828 -1.62418e-05 0)
(0.00127068 1.05301e-06 0)
(0.00134714 -2.2755e-05 0)
(0.00066426 -0.000185314 0)
(0.00107229 -4.4958e-05 0)
(0.00123973 -1.33275e-06 0)
(0.000896767 -7.89846e-05 0)
(0.00092817 -0.000132988 0)
(0.000988615 -5.79602e-05 0)
(0.00124558 -1.07812e-05 0)
(0.00127221 -4.26851e-05 0)
(0.00134346 -1.92558e-05 0)
(0.00119593 1.48265e-06 0)
(5.6721e-05 -0.00103447 0)
(0.00128233 -6.54797e-06 0)
(0.00131683 -2.01699e-05 0)
(0.000102461 -0.000985456 0)
(0.00116038 -2.31671e-05 0)
(0.000205313 -0.000827637 0)
(0.00120994 -5.61865e-06 0)
(0.00105647 -0.00011891 0)
(0.00103214 -0.000243143 0)
(0.00131235 -2.60047e-05 0)
(0.00108325 -8.11033e-05 0)
(4.4794e-05 -0.000996209 0)
(0.0012431 -5.38012e-06 0)
(0.000592393 -0.000535188 0)
(0.00120574 -3.06246e-05 0)
(0.00115933 -4.65706e-05 0)
(0.000831287 -0.00031493 0)
(0.00111059 -0.000158439 0)
(0.000312583 -0.000568833 0)
(0.00131247 -1.45195e-05 0)
(0.00114705 -1.41078e-05 0)
(0.00102849 -6.70475e-05 0)
(0.00124548 -1.70181e-05 0)
(0.000642194 -0.00069657 0)
(0.00104894 -4.54758e-05 0)
(0.0010619 -5.31821e-05 0)
(0.00138281 -2.47441e-06 0)
(0.000961564 -5.53004e-05 0)
(0.000739927 -0.000142525 0)
(0.00125316 3.37742e-06 0)
(0.0003138 -0.000481079 0)
(0.00118391 -7.82134e-05 0)
(0.00119531 -2.68106e-05 0)
(0.000982577 -0.000424575 0)
(0.0012931 -6.38388e-05 0)
(0.00129399 -4.34902e-06 0)
(0.00105124 -3.61609e-05 0)
(0.000100643 -0.000860902 0)
(0.000824615 -0.000118843 0)
(0.00071641 -0.000332817 0)
(0.000769228 -0.000267664 0)
(0.00124464 -3.87574e-05 0)
(0.00129448 -1.28446e-06 0)
(0.00112747 -9.49643e-05 0)
(0.00136216 -2.87154e-06 0)
(0.00118302 -5.45569e-08 0)
(0.00137683 -5.52494e-06 0)
(0.00141176 7.18293e-07 0)
(0.000682516 -0.000516995 0)
(0.000999438 -4.37244e-05 0)
(0.00142322 5.19305e-07 0)
(0.00130492 -4.62141e-05 0)
(0.000525136 -0.000272362 0)
(0.00126956 -2.43896e-06 0)
(0.00119324 -2.86715e-06 0)
(0.00122485 -2.00785e-05 0)
(0.00117687 -2.75136e-06 0)
(0.00104078 -3.25442e-05 0)
(0.00138831 -3.75995e-07 0)
(0.00100343 -0.000140988 0)
(0.00108485 -2.93976e-05 0)
(0.00075544 -0.000429461 0)
(0.00116481 -0.000121123 0)
(0.00119455 -3.74959e-05 0)
(0.000517604 -0.000433194 0)
(0.000500043 -0.000676731 0)
(0.000302629 -0.000417158 0)
(0.00131806 -2.79342e-06 0)
(0.00134361 -5.43525e-07 0)
(0.00128103 -1.59308e-05 0)
(0.00122192 -7.1495e-06 0)
(0.00139418 -1.14177e-06 0)
(0.000146064 -0.000957397 0)
(0.00133456 -3.3204e-06 0)
(0.000235491 -0.000692273 0)
(0.000763374 -0.000166197 0)
(0.000705872 -0.000191347 0)
(0.000973925 -7.70052e-05 0)
(0.000968196 -0.000116911 0)
(0.000869935 -0.000380968 0)
(0.000494607 -0.000625105 0)
(0.00124384 -7.55707e-06 0)
(0.00118054 -5.26697e-05 0)
(0.00135612 -1.04698e-05 0)
(0.00128196 8.79182e-07 0)
(0.000568188 -0.000433459 0)
(0.00113095 -3.82947e-05 0)
(0.00117763 -8.8295e-05 0)
(0.00119103 -4.6658e-05 0)
(0.00134864 -4.85709e-06 0)
(0.001264 -2.31899e-05 0)
(0.00122618 -5.38896e-05 0)
(0.00123776 -5.55501e-05 0)
(0.00131205 -6.91323e-06 0)
(0.00123407 -2.71358e-05 0)
(0.00124543 -6.47026e-05 0)
(0.00125349 -7.19826e-07 0)
(0.00126142 -7.04648e-05 0)
(0.000948336 -5.37545e-05 0)
(0.000442002 -0.000799862 0)
(0.0012037 -7.80231e-05 0)
(0.00113846 -1.96616e-05 0)
(0.001097 -3.49596e-05 0)
(0.00039468 -0.000561459 0)
(0.000835748 -9.68322e-05 0)
(0.000262784 -0.000810856 0)
(0.0014085 6.83111e-07 0)
(0.00131305 -3.984e-05 0)
(0.00125196 -4.13736e-06 0)
(0.00136341 -7.36889e-06 0)
(0.00130535 -1.05943e-05 0)
(0.000794878 -0.000129325 0)
(0.000988696 -7.88665e-05 0)
(0.00119681 -0.00012086 0)
(0.00109799 -2.07321e-05 0)
(0.00135838 -1.57502e-06 0)
(0.000628143 -0.000218074 0)
(0.000657788 -0.000191484 0)
(0.000129513 -0.000928837 0)
(0.000916578 -9.91893e-05 0)
(0.000916809 -0.000177708 0)
(0.00130444 -3.23146e-05 0)
(0.00123504 3.0721e-06 0)
(0.00117887 -2.94691e-06 0)
(0.00127757 -9.74643e-06 0)
(0.0012277 -9.77621e-08 0)
(0.00127289 -5.68334e-05 0)
(0.000947874 -0.000256603 0)
(0.00137661 -1.45574e-06 0)
(0.000501946 -0.000530285 0)
(0.00133896 -1.54735e-06 0)
(0.00105307 -8.66744e-05 0)
(0.00126217 9.13151e-07 0)
(0.00141991 5.15554e-06 0)
(0.00043547 -0.00043591 0)
(0.000575266 -0.000236724 0)
(0.00128554 -2.10921e-05 0)
(0.00112616 -3.11628e-05 0)
(0.00112871 -7.67673e-06 0)
(0.00128708 -2.67779e-06 0)
(0.00121232 -5.18717e-05 0)
(0.00121772 -1.33849e-05 0)
(0.000772506 -0.000128317 0)
(0.000890905 -0.000619295 0)
(0.00128937 1.07326e-06 0)
(0.0012936 -1.72501e-05 0)
(0.00113872 -5.82207e-06 0)
(0.00109853 -1.97408e-05 0)
(0.00141007 4.72345e-06 0)
(0.00086464 -0.000262031 0)
(0.00117437 -2.97042e-05 0)
(0.000824771 -0.000192127 0)
(0.00122866 -2.42592e-05 0)
(0.00136432 -9.55031e-06 0)
(0.00111848 -2.49974e-05 0)
(0.00122886 -3.72915e-05 0)
(0.00107431 -6.97575e-05 0)
(0.00107906 -3.01663e-05 0)
(0.00121297 2.13083e-06 0)
(0.00123506 -4.93528e-06 0)
(0.00126588 2.2564e-06 0)
(0.00135281 -6.92039e-06 0)
(0.000928161 -7.88384e-05 0)
(0.00124519 3.08503e-06 0)
(3.70261e-05 -0.00104876 0)
(0.0011561 -3.6332e-05 0)
(0.000342003 -0.000642712 0)
(0.00133078 -7.56775e-06 0)
(0.000692373 -0.000167522 0)
(0.00114619 -4.64968e-05 0)
(0.00121348 5.36833e-07 0)
(0.00113689 -0.000211836 0)
(0.00130915 -4.2678e-06 0)
(0.00122683 -5.5282e-05 0)
(0.00137256 -5.16965e-06 0)
(0.00120916 2.58818e-06 0)
(0.00143498 5.26376e-06 0)
(0.00133671 -3.54533e-05 0)
(0.000117339 -0.000977646 0)
(0.00123663 -3.50381e-05 0)
(0.00128557 9.58901e-07 0)
(0.000950781 -6.67727e-05 0)
(0.00124982 -1.01576e-05 0)
(0.00116186 -6.95889e-05 0)
(0.00133393 -2.4194e-05 0)
(0.00128895 5.48327e-07 0)
(0.000894103 -8.78785e-05 0)
(0.000855889 -9.2993e-05 0)
(0.000938355 -6.44171e-05 0)
(0.00133684 -4.69691e-06 0)
(0.000824874 -0.000164272 0)
(0.00112413 -1.47838e-05 0)
(0.000568216 -0.000291517 0)
(0.00111059 -5.46486e-05 0)
(0.00125154 -1.34302e-05 0)
(0.00131653 -1.80506e-05 0)
(0.00107875 -1.72161e-05 0)
(0.00125375 2.31155e-06 0)
(0.00103852 -8.67515e-05 0)
(0.00116729 -1.4282e-05 0)
(0.00122836 -2.74126e-05 0)
(0.00109279 -8.37776e-05 0)
(0.000702282 -0.000167801 0)
(0.0012627 3.04284e-06 0)
(0.000981 -4.37427e-05 0)
(0.00128681 -1.23406e-05 0)
(0.00116098 -8.03566e-05 0)
(0.000925815 -6.43594e-05 0)
(0.00132868 -1.84024e-07 0)
(0.00118651 -1.93305e-05 0)
(0.00100371 -6.00525e-05 0)
(0.000907637 -0.000160026 0)
(0.00125207 1.65131e-06 0)
(0.000931325 -9.88973e-05 0)
(0.00126741 -2.93706e-05 0)
(0.000925516 -8.57145e-05 0)
(0.00122676 -1.57028e-06 0)
(0.00116022 -1.19683e-05 0)
(0.00115173 -2.59652e-05 0)
(0.00121685 -6.91406e-05 0)
(0.00114429 -7.72924e-06 0)
(0.00136106 -1.5015e-05 0)
(0.000672648 -0.000237424 0)
(0.000991209 -4.20745e-05 0)
(0.000878486 -7.91713e-05 0)
(0.000278246 -0.000836089 0)
(0.00119773 -1.114e-05 0)
(0.000968275 -0.000325212 0)
(0.00115423 -8.25094e-05 0)
(0.000864861 -0.000333927 0)
(0.00139194 5.34684e-07 0)
(0.00130194 3.53507e-07 0)
(0.000941265 -0.000474391 0)
(0.00121185 -1.05517e-05 0)
(0.00117053 -1.08506e-06 0)
(0.00104227 -2.74537e-05 0)
(0.000759219 -0.0005712 0)
(0.000567248 -0.00025307 0)
(0.000880187 -0.000442526 0)
(0.000818071 -0.000107878 0)
(0.00085224 -0.000121641 0)
(0.00125356 -3.10235e-06 0)
(0.00127587 2.14612e-06 0)
(0.00127971 -3.37479e-05 0)
(0.00046349 -0.000319625 0)
(0.00125302 -2.36419e-06 0)
(0.0012636 -1.86292e-05 0)
(0.00134544 -1.56076e-05 0)
(0.000677105 -0.000284715 0)
(0.00129419 4.41155e-07 0)
(0.000882495 -0.000107406 0)
(0.00134304 -1.25264e-05 0)
(0.00124537 -5.87928e-07 0)
(0.00133466 -2.03481e-05 0)
(0.000949843 -5.41452e-05 0)
(0.00113003 -1.35833e-05 0)
(0.0012079 -2.27044e-05 0)
(0.00119972 -6.27392e-05 0)
(2.32633e-05 -0.00106375 0)
(0.00114037 -5.0735e-05 0)
(0.00130964 -5.6558e-07 0)
(0.00110054 -5.63939e-05 0)
(0.00127514 1.67069e-07 0)
(0.00098777 -4.07344e-05 0)
(0.00140485 4.21759e-06 0)
(0.00122988 2.93639e-06 0)
(0.000789777 -0.000117674 0)
(0.000761753 -0.000347686 0)
(0.0012586 1.69003e-06 0)
(0.000240743 -0.000911296 0)
(0.000924405 -0.000539833 0)
(0.000864316 -9.51245e-05 0)
(0.0012264 -3.88181e-06 0)
(0.000816591 -0.000109053 0)
(0.00117414 -1.68733e-05 0)
(0.00111058 -8.51046e-05 0)
(0.000887314 -7.76096e-05 0)
(0.00121216 -2.98125e-06 0)
(0.00113955 -6.27452e-05 0)
(0.00014095 -0.000875766 0)
(0.000570758 -0.000455876 0)
(0.000667332 -0.000427028 0)
(0.00139623 -7.8795e-07 0)
(0.00134639 -1.01936e-05 0)
(0.00138343 -3.32494e-06 0)
(0.00138722 -2.55722e-06 0)
(0.00124583 -9.72217e-06 0)
(0.00104176 -0.000335326 0)
(0.000398356 -0.000431503 0)
(0.000999481 -4.84883e-05 0)
(0.00117518 -4.08386e-05 0)
(0.00125573 -4.50221e-05 0)
(0.000911503 -0.000123223 0)
(0.00124502 -1.63505e-05 0)
(0.00137205 -2.24445e-06 0)
(0.000774175 -0.000178685 0)
(0.00123326 -3.21058e-05 0)
(0.00117718 -1.25003e-05 0)
(0.000641884 -0.000357934 0)
(0.0010099 -6.50688e-05 0)
(0.000732305 -0.000261778 0)
(0.00123919 -9.80657e-06 0)
(0.000803745 -0.000137776 0)
(0.0013111 -4.71838e-05 0)
(0.00140095 -1.98769e-07 0)
(0.00110992 -0.000200985 0)
(0.00133423 -2.60715e-05 0)
(0.00121346 -6.93363e-05 0)
(0.00129866 6.45931e-07 0)
(0.00073631 -0.000146459 0)
(0.00131407 -5.54844e-06 0)
(0.00142128 1.66221e-06 0)
(0.00143975 2.56488e-06 0)
(0.00132398 -4.98045e-05 0)
(0.00126354 -3.40773e-05 0)
(5.45782e-05 -0.000936283 0)
(0.00109786 -7.30279e-05 0)
(0.00111582 -2.89053e-05 0)
(0.00133437 -1.71578e-05 0)
(0.000357051 -0.000838412 0)
(0.00135255 -4.64829e-07 0)
(0.0011664 -1.65619e-06 0)
(0.00119685 -5.0675e-06 0)
(0.00126931 -7.04091e-07 0)
(0.00134531 -8.88358e-06 0)
(0.00125653 2.33953e-07 0)
(0.00109064 -0.00011836 0)
(0.00109731 -1.58622e-05 0)
(0.00115485 -2.05132e-05 0)
(0.000939191 -8.35787e-05 0)
(0.000785992 -0.000135195 0)
(0.000828976 -0.000485329 0)
(0.00120803 -5.34194e-05 0)
(0.000756171 -0.000473061 0)
(0.00117087 -2.5224e-05 0)
(0.000114845 -0.000991206 0)
(0.001099 -2.45471e-05 0)
(0.00131857 -2.18744e-05 0)
(0.0012736 -7.01162e-05 0)
(0.000696415 -0.00055561 0)
(0.00107576 -0.000166107 0)
(0.00116293 -0.00018052 0)
(0.00112423 -7.11351e-05 0)
(0.000993806 -0.000233081 0)
(0.00106174 -0.000146199 0)
(0.00124145 -4.93749e-05 0)
(0.00023543 -0.000626822 0)
(0.00102547 -4.66952e-05 0)
(0.00128291 -2.66978e-05 0)
(0.000342037 -0.000431425 0)
(0.00106868 -5.27113e-05 0)
(0.0013876 -8.74449e-07 0)
(0.00105003 -2.66551e-05 0)
(0.000983112 -5.3478e-05 0)
(0.00115171 -7.55277e-05 0)
(0.000725829 -0.00021631 0)
(0.0013072 -1.48326e-06 0)
(0.00111329 -1.03243e-05 0)
(0.0013235 -3.08636e-07 0)
(0.00103385 -8.78874e-05 0)
(0.000444865 -0.000377059 0)
(0.00101096 -0.000299581 0)
(0.00133896 -9.61401e-07 0)
(0.000175008 -0.000658356 0)
(0.000829816 -0.000107652 0)
(0.000793751 -0.000121986 0)
(0.000969655 -6.55545e-05 0)
(0.00119634 -5.93438e-06 0)
(0.00092446 -7.03943e-05 0)
(0.00103188 -7.12868e-05 0)
(0.000941058 -9.86273e-05 0)
(0.00124192 -1.62335e-05 0)
(0.00122853 -4.86257e-05 0)
(0.00108731 -4.74733e-05 0)
(0.00113979 -0.000133805 0)
(0.00118133 -1.47288e-05 0)
(0.000664802 -0.000224532 0)
(0.00116272 -8.44222e-06 0)
(0.00121809 -7.92586e-05 0)
(0.00124549 2.2121e-06 0)
(0.00127683 6.92014e-07 0)
(0.00136651 -1.14144e-05 0)
(0.00116043 -3.96066e-06 0)
(0.000639159 -0.00032769 0)
(0.00129118 -8.02108e-06 0)
(0.00135874 -3.82714e-06 0)
(0.00124249 -2.38908e-06 0)
(0.000513687 -0.000364536 0)
(0.0011926 3.33289e-07 0)
(0.000507514 -0.000343035 0)
(0.000490481 -0.000314168 0)
(0.00127084 -5.98178e-06 0)
(0.00137798 -3.22876e-07 0)
(0.000817591 -0.000224219 0)
(0.0010766 -0.000295324 0)
(0.000368202 -0.000544753 0)
(0.00111878 -0.000123751 0)
(0.001309 1.15069e-07 0)
(0.000924519 -0.0002325 0)
(0.00102914 -7.40495e-05 0)