/*--------------------------------*- C++ -*----------------------------------*\
| =========                 |                                                 |
| \\      /  F ield         | OpenFOAM: The Open Source CFD Toolbox           |
|  \\    /   O peration     | Version:  v2012                                 |
|   \\  /    A nd           | Website:  www.openfoam.com                      |
|    \\/     M anipulation  |                                                 |
\*---------------------------------------------------------------------------*/
FoamFile
{
    version     2.0;
    format      ascii;
    class       volScalarField;
    location    "18";
    object      sigmaEq;
}
// * * * * * * * * * * * * * * * * * * * * * * * * * * * * * * * * * * * * * //

dimensions      [1 -1 -2 0 0 0 0];


internalField   nonuniform List<scalar> 
500
(
9.5641e+07
8.64582e+07
6.87826e+07
6.0381e+07
7.91192e+07
4.82277e+07
8.07928e+07
5.62937e+07
9.19868e+07
6.29874e+07
1.02384e+08
6.66347e+07
4.22803e+07
5.70967e+07
7.61634e+07
5.69654e+07
8.44526e+07
5.44075e+07
8.66933e+07
5.99144e+07
3.8567e+07
2.57763e+07
4.63775e+07
3.52601e+07
5.63384e+07
4.2222e+07
6.29913e+07
4.97144e+07
6.55091e+07
5.76608e+07
1.43556e+07
1.01771e+07
1.59918e+07
2.56931e+07
3.08164e+07
3.2899e+07
4.17346e+07
3.47543e+07
5.46686e+07
3.83728e+07
6.44854e+06
1.79867e+07
2.35969e+07
2.98609e+07
3.47907e+07
4.48255e+07
4.59915e+07
6.12279e+07
6.85393e+07
8.77699e+07
2.22363e+07
3.16931e+07
2.82532e+07
3.11448e+07
4.23098e+07
4.97233e+07
6.37724e+07
8.87503e+07
9.88705e+07
6.23871e+07
4.09376e+07
3.71017e+07
2.73788e+07
3.54502e+07
3.61863e+07
5.09223e+07
5.61143e+07
6.98931e+07
6.44413e+07
3.62966e+07
4.69104e+07
3.58289e+07
3.51479e+07
3.75822e+07
3.67073e+07
4.8925e+07
4.16455e+07
5.69695e+07
3.65479e+07
1.84384e+07
4.40419e+07
3.30542e+07
3.91078e+07
3.65586e+07
3.79186e+07
4.40019e+07
3.44887e+07
4.65021e+07
2.15148e+07
1.53954e+07
3.73482e+07
3.25706e+07
3.85446e+07
3.71251e+07
3.8511e+07
4.02999e+07
3.13309e+07
3.38984e+07
1.13732e+07
1.28571e+07
3.55716e+07
3.38785e+07
3.48219e+07
3.56796e+07
3.42287e+07
3.81667e+07
4.20341e+07
2.75758e+07
5.73178e+07
4.18878e+07
3.39607e+07
2.65674e+07
3.40914e+07
2.02774e+07
3.45138e+07
1.23738e+07
4.11701e+07
1.66036e+07
5.5704e+07
2.64891e+07
1.40286e+07
9.45033e+06
9.78003e+06
1.93772e+06
8.78136e+06
1.07097e+07
1.7677e+07
2.68791e+07
2.94956e+07
3.24993e+07
4.26725e+06
1.95548e+06
6.03832e+06
8.27552e+06
1.16064e+07
2.21846e+07
2.36674e+07
3.42181e+07
3.69068e+07
3.77211e+07
5.97665e+06
4.75216e+06
9.07866e+06
1.58581e+07
1.76927e+07
2.84257e+07
2.99548e+07
3.65956e+07
3.83497e+07
3.89596e+07
6.20075e+06
1.0088e+07
1.0876e+07
2.1972e+07
2.29826e+07
3.18303e+07
3.27994e+07
3.67047e+07
3.74956e+07
3.77108e+07
4.04285e+06
1.41435e+07
1.35037e+07
2.5763e+07
2.53388e+07
3.30896e+07
3.24581e+07
3.54217e+07
3.50138e+07
3.50446e+07
1.45531e+06
1.63399e+07
1.43509e+07
2.67002e+07
2.43413e+07
3.16235e+07
2.94487e+07
3.2026e+07
3.08957e+07
3.06364e+07
5.11887e+06
1.52105e+07
1.29773e+07
2.30455e+07
2.04955e+07
2.59884e+07
2.42635e+07
2.60084e+07
2.55211e+07
2.50802e+07
1.28556e+07
1.33406e+07
1.27105e+07
1.41313e+07
1.51916e+07
1.66332e+07
1.77501e+07
1.99445e+07
2.00386e+07
2.22271e+07
5.95629e+07
4.00376e+07
5.40054e+07
4.3474e+07
5.57364e+07
4.51553e+07
5.74613e+07
4.51076e+07
5.84344e+07
4.40543e+07
5.87199e+07
4.41635e+07
5.95112e+07
4.60261e+07
6.19607e+07
4.55559e+07
6.23779e+07
4.57335e+07
6.17582e+07
4.92e+07
6.65179e+07
3.60266e+07
6.46188e+07
3.62389e+07
5.86978e+07
3.60707e+07
5.31419e+07
3.68717e+07
4.6932e+07
3.4324e+07
4.32468e+07
3.58552e+07
4.38487e+07
3.75783e+07
4.43059e+07
3.9103e+07
4.40107e+07
4.03648e+07
4.4156e+07
4.12464e+07
3.4659e+07
3.91292e+07
3.96093e+07
3.93197e+07
4.1374e+07
3.81954e+07
4.15292e+07
3.6813e+07
4.19761e+07
3.54669e+07
4.01822e+07
3.46933e+07
3.89488e+07
3.4418e+07
3.79749e+07
3.46209e+07
3.73692e+07
3.53434e+07
3.74e+07
3.65602e+07
3.82954e+07
4.18956e+07
3.87073e+07
4.05178e+07
3.72933e+07
3.85259e+07
3.58476e+07
3.64488e+07
3.47251e+07
3.47718e+07
3.39051e+07
3.34536e+07
3.33397e+07
3.2379e+07
3.30426e+07
3.17547e+07
3.30728e+07
3.16231e+07
3.33599e+07
3.2295e+07
3.912e+07
4.12037e+07
3.88489e+07
3.93898e+07
3.69435e+07
3.71516e+07
3.50563e+07
3.49551e+07
3.3394e+07
3.29722e+07
3.20936e+07
3.18333e+07
3.09342e+07
3.02054e+07
3.01316e+07
2.94082e+07
2.99676e+07
2.88391e+07
2.98884e+07
2.87436e+07
3.76109e+07
3.87787e+07
3.7122e+07
3.71728e+07
3.53601e+07
3.53356e+07
3.36841e+07
3.35261e+07
3.22704e+07
3.12379e+07
3.01895e+07
2.92256e+07
2.94867e+07
2.81978e+07
2.87411e+07
2.72903e+07
2.80323e+07
2.64021e+07
2.73304e+07
2.5672e+07
3.4869e+07
3.52192e+07
3.44887e+07
3.38272e+07
3.32317e+07
3.23458e+07
3.13539e+07
3.00481e+07
2.96932e+07
2.87259e+07
2.86907e+07
2.75263e+07
2.79171e+07
2.64566e+07
2.71814e+07
2.53931e+07
2.63178e+07
2.42275e+07
2.53241e+07
2.28521e+07
3.06139e+07
3.03011e+07
3.04064e+07
2.91763e+07
2.9431e+07
2.79949e+07
2.86386e+07
2.6864e+07
2.76582e+07
2.59642e+07
2.69014e+07
2.52766e+07
2.6259e+07
2.46562e+07
2.55942e+07
2.39366e+07
2.47538e+07
2.29726e+07
2.37539e+07
2.12857e+07
2.58017e+07
2.5518e+07
2.62895e+07
2.50669e+07
2.59658e+07
2.45828e+07
2.55809e+07
2.42475e+07
2.52509e+07
2.4078e+07
2.49545e+07
2.40216e+07
2.46227e+07
2.39885e+07
2.41845e+07
2.38768e+07
2.36136e+07
2.36045e+07
2.29479e+07
2.25311e+07
2.1656e+07
2.35803e+07
2.31469e+07
2.46325e+07
2.36829e+07
2.52009e+07
2.3916e+07
2.54872e+07
2.40115e+07
2.55646e+07
2.4011e+07
2.54569e+07
2.3919e+07
2.51875e+07
2.37399e+07
2.47949e+07
2.34885e+07
2.43383e+07
2.3167e+07
2.38892e+07
7.20952e+07
5.58896e+07
5.81179e+07
4.97655e+07
4.95856e+07
4.59557e+07
4.39494e+07
4.38899e+07
3.91477e+07
4.28456e+07
3.44636e+07
4.25749e+07
2.98739e+07
4.34044e+07
2.64084e+07
4.58168e+07
2.6778e+07
4.98249e+07
3.19817e+07
4.7323e+07
8.53962e+07
6.55033e+07
8.56006e+07
6.46619e+07
8.28705e+07
6.46609e+07
7.89796e+07
6.45938e+07
7.26536e+07
6.37375e+07
6.56462e+07
6.31253e+07
5.88655e+07
6.37167e+07
5.24311e+07
6.62174e+07
4.67339e+07
7.07953e+07
4.23419e+07
7.41528e+07
6.93559e+07
6.30745e+07
7.50913e+07
6.48192e+07
7.92153e+07
6.43966e+07
8.19751e+07
6.30475e+07
8.02233e+07
6.08004e+07
7.57741e+07
6.00629e+07
7.16142e+07
6.21847e+07
6.84558e+07
6.7451e+07
6.72424e+07
7.5969e+07
6.84013e+07
9.09121e+07
6.76094e+07
5.16142e+07
7.85882e+07
5.11353e+07
7.92726e+07
5.547e+07
7.93016e+07
5.85443e+07
7.86284e+07
5.9142e+07
7.56994e+07
5.99121e+07
7.32264e+07
6.22074e+07
7.27602e+07
6.68105e+07
7.54677e+07
7.42608e+07
8.04857e+07
8.94506e+07
1.04064e+08
8.67138e+07
8.18608e+07
8.56409e+07
7.83381e+07
7.93165e+07
7.57819e+07
7.20333e+07
7.38721e+07
6.58432e+07
7.23562e+07
6.17193e+07
7.17003e+07
6.00776e+07
7.26276e+07
6.05292e+07
7.55508e+07
6.44838e+07
7.91154e+07
6.78813e+07
)
;

boundaryField
{
    back
    {
        type            empty;
    }
    front
    {
        type            empty;
    }
    left
    {
        type            symmetry;
    }
    hole
    {
        type            calculated;
        value           nonuniform List<scalar> 10(1.03182e+08 1.16272e+08 4.70137e+07 1.21108e+07 6.32196e+06 1.997e+07 3.74974e+07 4.28811e+07 4.1051e+07 3.7459e+07);
    }
    down
    {
        type            symmetry;
    }
    right
    {
        type            calculated;
        value           nonuniform List<scalar> 
15
(
1.21132e+07
1.12373e+07
1.36431e+07
1.74457e+07
2.08178e+07
2.16299e+07
2.22045e+07
2.27782e+07
2.32308e+07
2.35284e+07
2.36938e+07
2.37636e+07
2.37798e+07
2.38078e+07
2.38326e+07
)
;
    }
    up
    {
        type            calculated;
        value           nonuniform List<scalar> 
15
(
5.03203e+07
4.13186e+07
3.65531e+07
3.20594e+07
2.84536e+07
2.56458e+07
2.31289e+07
2.17756e+07
2.28304e+07
2.38935e+07
4.15548e+07
6.89341e+07
8.73927e+07
8.59829e+07
6.85161e+07
)
;
    }
}


// ************************************************************************* //
