/*--------------------------------*- C++ -*----------------------------------*\
| =========                 |                                                 |
| \\      /  F ield         | OpenFOAM: The Open Source CFD Toolbox           |
|  \\    /   O peration     | Version:  v2012                                 |
|   \\  /    A nd           | Website:  www.openfoam.com                      |
|    \\/     M anipulation  |                                                 |
\*---------------------------------------------------------------------------*/
FoamFile
{
    version     2.0;
    format      ascii;
    class       volSymmTensorField;
    location    "18";
    object      sigma;
}
// * * * * * * * * * * * * * * * * * * * * * * * * * * * * * * * * * * * * * //

dimensions      [1 -1 -2 0 0 0 0];


internalField   nonuniform List<symmTensor> 
500
(
(-7.27811e+07 3.95244e+06 1.13729e-08 -978003 -8.82634e-10 3.54639e+07)
(-5.27861e+07 -7.45891e+06 8.96289e-09 3.43607e+06 4.56026e-09 4.55917e+07)
(1.85028e+07 -4.90318e+06 0 -9.94037e+06 0 6.79378e+07)
(1.7334e+07 -1.38737e+07 -1.89222e-09 1.55924e+07 2.56962e-09 7.18361e+07)
(7.74597e+07 -8.97669e+06 2.55272e-10 3.01655e+06 5.62622e-09 8.33862e+07)
(6.97103e+07 -1.53005e+07 -3.1867e-09 2.93155e+07 3.63092e-09 6.95077e+07)
(1.09794e+08 -7.38466e+06 0 1.79123e+07 0 6.95217e+07)
(9.60921e+07 -1.19036e+07 2.45685e-08 3.90097e+07 1.91863e-08 5.02275e+07)
(1.25997e+08 123045 2.27753e-08 2.51936e+07 1.49342e-08 4.66039e+07)
(1.01102e+08 -1.97578e+06 2.96542e-09 3.93961e+07 2.0136e-08 3.70828e+07)
(-6.4348e+07 2.01827e+07 2.30891e-09 1.57243e+06 9.4242e-09 4.6081e+07)
(-3.28367e+07 -1.14694e+07 1.36362e-08 -2.21007e+06 2.23906e-08 4.0287e+07)
(1.72362e+07 -2.42327e+07 -2.16081e-09 2.26211e+07 2.31142e-09 2.19794e+07)
(1.79176e+07 -2.65696e+07 1.56595e-09 7.18439e+06 3.59064e-09 4.50441e+07)
(6.73312e+07 -3.67623e+07 2.28113e-10 2.45227e+07 7.90028e-09 2.66383e+07)
(4.96509e+07 -2.56551e+07 -8.44868e-09 1.02092e+07 4.74484e-09 4.01168e+07)
(9.00044e+07 -2.64028e+07 6.4466e-10 1.11078e+07 -2.72601e-08 3.12578e+07)
(6.19963e+07 -1.31305e+07 -1.45865e-08 4.95061e+06 -4.58119e-08 3.49859e+07)
(9.5009e+07 -8.06032e+06 -2.02001e-08 -2.37057e+06 -3.99298e-09 3.1871e+07)
(6.55779e+07 1.59698e+06 5.82863e-09 -3.25308e+06 1.40338e-08 2.57953e+07)
(-2.39902e+07 3.47381e+06 -8.64015e-09 2.79543e+06 3.7791e-09 1.96203e+07)
(-1.10479e+06 -1.45159e+07 -1.67468e-08 5.25876e+06 1.29533e-08 693127)
(2.04853e+07 -2.51761e+07 -1.07221e-09 1.00068e+07 -5.27485e-09 2.32288e+06)
(1.50358e+07 -1.93019e+07 2.29868e-08 2.47648e+06 -3.87116e-09 1.14559e+07)
(4.18765e+07 -2.30213e+07 8.63451e-09 -3.67852e+06 -1.96004e-09 1.38416e+07)
(3.0657e+07 -1.51284e+07 -9.5672e-10 -7.44721e+06 -7.39935e-09 1.42777e+07)
(5.28343e+07 -1.44036e+07 2.2632e-08 -1.37114e+07 2.78749e-08 1.46359e+07)
(3.81439e+07 -6.50273e+06 -4.48882e-09 -1.75964e+07 6.73089e-09 1.40718e+07)
(5.39626e+07 -2.62635e+06 -4.54153e-09 -2.14652e+07 -5.75425e-09 1.43164e+07)
(4.18905e+07 2.15934e+06 0 -2.4487e+07 0 1.12111e+07)
(-2.85732e+06 6.28079e+06 4.15445e-09 -6.28075e+06 -5.98223e-09 4.31623e+06)
(1.86868e+06 -5.30027e+06 -2.64036e-08 -2.45964e+06 -2.06498e-08 -2.58564e+06)
(1.18953e+07 -5.27815e+06 -2.52704e-08 3.04063e+06 -4.17643e-08 -3.17901e+06)
(1.39481e+07 -1.04511e+07 1.42294e-08 -7.05485e+06 -3.53807e-08 2.17671e+06)
(2.35685e+07 -1.0166e+07 6.71997e-09 -2.88035e+06 1.93295e-08 -377329)
(2.14127e+07 -9.5986e+06 1.79897e-08 -1.11725e+07 3.0825e-08 2.02239e+06)
(3.04623e+07 -8.59601e+06 1.05125e-08 -1.39111e+07 1.15207e-08 1.69151e+06)
(2.39209e+07 -4.43548e+06 -2.49294e-09 -1.38812e+07 7.96281e-09 -3.76059e+06)
(3.51591e+07 -3.30879e+06 -4.37705e-09 -2.76188e+07 -1.27354e-08 3.87015e+06)
(2.45618e+07 2.67264e+06 1.06709e-09 -1.56839e+07 -7.30955e-09 -1.09316e+07)
(-343801 1.79578e+06 4.31033e-09 -5.89073e+06 -8.35268e-09 -6.08929e+06)
(-727883 6.69659e+06 -6.51478e-09 -1.47708e+07 -1.3428e-08 -1.33958e+06)
(1.1874e+07 -1.85776e+06 -1.47747e-08 -1.50849e+07 -2.69937e-08 -2.77749e+06)
(1.27065e+07 648124 -2.40193e-08 -2.16472e+07 -2.94803e-08 -2.17301e+06)
(1.82902e+07 -3.33696e+06 -2.45177e-08 -2.13213e+07 -4.23513e-09 -1.0927e+06)
(1.96493e+07 -1.44952e+06 3.75732e-09 -3.18775e+07 -2.06022e-09 -2.68422e+06)
(1.9867e+07 -69638.1 5.14937e-09 -3.30792e+07 -2.80636e-09 -3.03868e+06)
(2.05798e+07 966440 -3.72933e-09 -4.97936e+07 1.25701e-09 -8.97244e+06)
(2.11322e+07 8.40262e+06 -4.71916e-09 -5.53118e+07 1.68152e-09 -6.93803e+06)
(1.82121e+07 6.74507e+06 -9.93929e-09 -7.89498e+07 -8.03459e-09 -8.30689e+06)
(-4.34129e+06 1.06408e+07 3.20516e-09 -1.81399e+07 -7.82698e-10 -7.78031e+06)
(-8.30127e+06 1.52841e+07 1.39782e-08 -2.34164e+07 3.67844e-09 -4.35717e+06)
(8.11882e+06 2.03766e+06 2.43886e-08 -2.42487e+07 1.84083e-08 -8.27999e+06)
(5.26689e+06 1.05524e+07 7.45424e-09 -2.38298e+07 9.49383e-09 -1.0271e+07)
(1.55461e+07 3.09397e+06 1.07732e-08 -3.29123e+07 9.44733e-09 -8.19636e+06)
(1.31798e+07 1.35488e+07 6.19154e-09 -3.72662e+07 1.19905e-08 -1.56612e+07)
(1.39943e+07 1.48844e+07 6.20884e-09 -5.27607e+07 5.88306e-09 -1.16306e+07)
(1.6278e+07 2.40675e+07 0 -7.24129e+07 0 -1.2597e+07)
(3.87539e+06 3.29219e+07 0 -7.5756e+07 0 6.1067e+06)
(2.49337e+07 1.24574e+07 -4.08285e-09 -4.23e+07 -5.34832e-09 -1.47095e+07)
(-6.12558e+06 1.84036e+07 1.90626e-09 -3.34662e+07 -4.72558e-09 -9.83701e+06)
(-1.26156e+07 1.62204e+07 1.89967e-09 -3.35439e+07 -8.94807e-09 -6.99444e+06)
(-2.30151e+06 9.48206e+06 1.36084e-09 -2.75592e+07 -4.02611e-09 -1.37449e+07)
(-4.71475e+06 1.12786e+07 -1.07072e-09 -3.63324e+07 2.22438e-09 -9.32777e+06)
(1.66618e+06 9.119e+06 -5.14521e-10 -3.59008e+07 1.09847e-08 -1.58852e+07)
(-790468 1.39603e+07 6.21917e-09 -5.03408e+07 8.33772e-09 -1.26437e+07)
(1.72943e+06 1.63056e+07 1.40875e-08 -5.35127e+07 1.24228e-08 -1.79904e+07)
(-1.32813e+06 2.5843e+07 1.44167e-08 -5.83179e+07 1.25546e-08 -8.71375e+06)
(1.59933e+06 1.82642e+07 2.46906e-08 -5.23439e+07 2.67664e-08 5.76513e+06)
(1.08334e+07 1.33963e+07 3.52373e-09 -1.82108e+07 9.05821e-09 -1.57879e+07)
(-3.38415e+06 1.80538e+07 0 -4.24024e+07 0 -1.38963e+07)
(-1.16328e+07 1.30132e+07 0 -3.87929e+07 0 -1.0299e+07)
(-6.35511e+06 1.49686e+07 -1.01699e-09 -3.36348e+07 -4.15983e-09 -1.77444e+07)
(-9.06171e+06 1.10447e+07 -4.0579e-09 -4.2561e+07 -6.59273e-09 -1.15e+07)
(-7.0489e+06 1.38679e+07 -9.43267e-09 -3.89928e+07 -7.27154e-09 -2.07485e+07)
(-7.74735e+06 1.43797e+07 -6.47328e-09 -5.25617e+07 -8.44087e-09 -1.38115e+07)
(-7.87862e+06 1.39826e+07 -1.69421e-08 -4.62325e+07 -1.69599e-08 -2.03809e+07)
(-1.00952e+07 1.95829e+07 -6.38776e-09 -5.45654e+07 -1.54874e-08 -7.59458e+06)
(-7.95486e+06 9.64515e+06 -9.3724e-09 -3.66815e+07 3.64891e-09 -1.39588e+06)
(-3.83053e+06 8.10923e+06 2.94535e-09 -1.76211e+07 5.55308e-10 -1.0481e+07)
(-836353 1.26932e+07 5.70373e-10 -4.4178e+07 -2.85988e-09 -1.56176e+07)
(-8.06675e+06 7.18632e+06 -3.69859e-10 -4.04751e+07 -8.35213e-11 -1.20266e+07)
(-5.34681e+06 1.4456e+07 0 -3.97139e+07 0 -1.84469e+07)
(-9.59276e+06 6.94587e+06 0 -4.58378e+07 0 -1.33447e+07)
(-8.91782e+06 1.31638e+07 3.72553e-09 -4.35988e+07 8.08087e-09 -2.22726e+07)
(-1.14453e+07 9.18138e+06 4.23832e-09 -5.4233e+07 9.9675e-09 -1.5227e+07)
(-1.16649e+07 1.02304e+07 6.96027e-09 -4.51445e+07 6.46282e-09 -2.25035e+07)
(-1.43289e+07 1.17755e+07 1.4203e-09 -5.32151e+07 3.52324e-09 -9.02617e+06)
(-1.36078e+07 5.01287e+06 1.62134e-10 -3.02355e+07 -5.27429e-09 -8.50001e+06)
(-1.20436e+07 4.99106e+06 -5.99944e-10 -2.1398e+07 -2.96152e-09 -6.88928e+06)
(-1.21149e+06 6.44321e+06 -3.39508e-10 -4.17062e+07 5.44518e-10 -1.50964e+07)
(-3.9944e+06 -79883.5 -1.15131e-09 -4.05313e+07 -4.34392e-10 -1.45416e+07)
(-5.1875e+06 8.45154e+06 -4.30771e-10 -4.51246e+07 7.11591e-09 -1.6486e+07)
(-8.25316e+06 -1.029e+06 1.5016e-10 -4.86165e+07 7.11072e-09 -1.60574e+07)
(-9.33173e+06 7.59821e+06 -5.81354e-10 -5.01138e+07 -5.29917e-10 -2.1816e+07)
(-1.28009e+07 -419999 -3.71277e-11 -5.53016e+07 1.99015e-09 -1.76556e+07)
(-1.28884e+07 4.73942e+06 -5.96237e-10 -4.68694e+07 -1.5242e-09 -2.29356e+07)
(-1.68437e+07 2.67691e+06 -7.31256e-10 -4.82455e+07 -1.30183e-09 -1.28457e+07)
(-1.61756e+07 1.66865e+06 -2.70842e-10 -2.51069e+07 5.11887e-10 -1.28201e+07)
(-1.71231e+07 2.86563e+06 6.43093e-10 -1.89959e+07 -8.94439e-10 -6.31046e+06)
(-1.90594e+07 -188707 3.06223e-10 2.12438e+07 1.24642e-09 -5.76088e+06)
(-8.93687e+06 -5.82448e+06 -5.97883e-10 2.62547e+07 3.36653e-10 -2.16444e+06)
(-1.51153e+07 -7.36287e+06 1.33461e-10 2.14215e+07 -8.13888e-10 -3.82758e+06)
(-700406 -1.00514e+07 0 3.00302e+07 0 -1.51115e+06)
(-2.89397e+06 -1.57017e+07 2.96898e-10 1.95972e+07 9.46125e-10 1.10028e+06)
(1.40068e+07 -1.38622e+07 4.82628e-10 3.42179e+07 -4.22772e-10 157165)
(1.97847e+07 -2.22665e+07 -8.83254e-10 1.55682e+07 2.16475e-09 1.36256e+06)
(2.6395e+07 -1.03733e+07 4.50772e-10 3.34392e+07 -2.9219e-09 9.9073e+06)
(4.17326e+07 -2.33168e+07 -3.8892e-09 1.12722e+07 2.21027e-09 -4.45624e+06)
(5.34633e+07 -1.20256e+07 -5.05117e-09 1.50217e+07 1.05924e-08 1.9668e+07)
(-1.16254e+07 -832700 0 2.74491e+07 0 1.039e+07)
(-4.95507e+06 -2.92043e+06 3.06792e-10 2.4847e+07 -3.24191e-10 6.18902e+06)
(-6.57657e+06 -7.11559e+06 -1.38078e-09 3.00737e+07 3.25079e-10 1.00468e+07)
(1.78091e+06 -5.5674e+06 -2.09202e-09 2.22953e+07 1.23361e-09 1.04395e+07)
(3.38173e+06 -1.45481e+07 6.72715e-10 3.05125e+07 -5.11308e-10 1.48974e+07)
(1.26962e+07 -6.0946e+06 1.7883e-09 2.00967e+07 -9.41134e-10 1.71732e+07)
(2.06665e+07 -2.32288e+07 3.10442e-09 2.91911e+07 -1.44414e-10 2.02658e+07)
(2.97004e+07 -8.48323e+06 4.61568e-09 2.29244e+07 -2.02426e-09 2.12776e+07)
(3.98325e+07 -3.11108e+07 -1.64312e-09 2.55129e+07 1.49421e-09 2.59264e+07)
(4.4569e+07 -5.24887e+06 2.51506e-09 1.71237e+07 1.97739e-09 2.34918e+07)
(-4.96261e+06 -2.40225e+06 0 9.92122e+06 0 6.13211e+06)
(-3.81766e+06 1.25288e+06 1.11566e-10 6.80305e+06 6.54414e-10 1.49421e+06)
(296415 -3.23052e+06 8.31168e-10 9.49661e+06 -4.2642e-10 5.82262e+06)
(2.34365e+06 243710 2.60186e-10 4.1895e+06 -1.31955e-09 4.27712e+06)
(9.56871e+06 -5.05269e+06 -5.3701e-11 8.75449e+06 -3.34256e-10 9.32254e+06)
(1.56219e+07 -2.44596e+06 3.31816e-10 4.67736e+06 -1.90535e-09 7.52063e+06)
(2.2765e+07 -7.5241e+06 1.21764e-09 9.07795e+06 2.51995e-10 1.73836e+07)
(3.35852e+07 -5.62086e+06 6.68829e-10 7.42342e+06 -1.2228e-09 9.80982e+06)
(3.62158e+07 -1.11761e+07 2.63756e-09 1.08834e+07 -1.11427e-09 1.98113e+07)
(4.32697e+07 -4.3695e+06 1.84541e-09 9.58055e+06 -1.42647e-09 1.42715e+07)
(-4.53335e+06 -479584 6.25123e-10 -4.63507e+06 2.68694e-10 -399518)
(-4.21085e+06 1.02074e+06 1.62102e-09 -4.55426e+06 -1.87709e-09 -3.6017e+06)
(758842 1.00769e+06 -9.43113e-10 -4.9133e+06 5.54836e-10 969907)
(5.33087e+06 -1.03891e+06 6.33207e-10 -3.20644e+06 2.63191e-09 -2.19079e+06)
(1.00993e+07 -1.00138e+06 5.97109e-10 -2.68509e+06 6.39907e-10 6.72728e+06)
(2.11489e+07 -4.65354e+06 -3.15678e-10 -924694 1.1858e-10 2.25359e+06)
(2.56306e+07 -5.3686e+06 -4.05575e-10 518893 -8.26845e-11 1.22189e+07)
(3.64759e+07 -6.20593e+06 -9.01279e-10 846041 -6.9547e-10 8.50136e+06)
(4.07534e+07 -8.76973e+06 3.2834e-09 3.0178e+06 9.22143e-10 1.39228e+07)
(4.37687e+07 -5.59478e+06 -1.43212e-09 3.55659e+06 -1.09219e-09 1.28825e+07)
(-6.6566e+06 1.03109e+06 -1.49918e-10 -8.26046e+06 1.88671e-10 -1.92666e+06)
(-2.74183e+06 -2.07611e+06 -1.60567e-09 -6.32927e+06 -9.43663e-10 -4.5337e+06)
(2.47531e+06 1196.43 4.94224e-10 -7.58305e+06 -1.60086e-09 4269.15)
(9.98284e+06 -5.41823e+06 -2.62604e-10 -3.4416e+06 -3.07732e-09 -2.04408e+06)
(1.50755e+07 -3.45123e+06 1.28346e-09 -4.12604e+06 -8.55844e-10 6.35521e+06)
(2.55209e+07 -8.1549e+06 3.47881e-09 -1.29392e+06 -1.75008e-11 3.79271e+06)
(3.01318e+07 -7.52724e+06 -3.19605e-09 -662381 -6.24917e-10 1.07217e+07)
(3.73858e+07 -8.09786e+06 -2.78687e-09 -187156 -5.15789e-10 9.44976e+06)
(4.06064e+07 -8.96165e+06 2.81451e-09 1.13506e+06 5.59053e-10 1.30427e+07)
(4.26656e+07 -6.67922e+06 -9.94874e-10 1.06244e+06 -7.67761e-10 1.25959e+07)
(-5.83136e+06 1.36878e+06 -2.09775e-10 -5.61034e+06 -1.81569e-10 5574.54)
(1.61713e+06 -5.06942e+06 8.51938e-10 -3.99374e+06 1.07448e-09 -2.21728e+06)
(6.32291e+06 -3.25922e+06 -2.05115e-10 -4.39878e+06 1.09918e-09 1.413e+06)
(1.49101e+07 -8.97735e+06 -3.29967e-09 -1.9654e+06 1.19198e-11 1.23761e+06)
(2.01816e+07 -7.25677e+06 2.93333e-09 -1.87376e+06 5.33761e-10 6.83318e+06)
(2.80641e+07 -1.06383e+07 1.06945e-09 -720339 -5.97638e-10 6.44423e+06)
(3.21008e+07 -9.61217e+06 -3.02408e-09 143215 -6.17116e-10 1.04079e+07)
(3.65668e+07 -9.55133e+06 -2.37468e-09 -120441 -6.25655e-10 1.02177e+07)
(3.89235e+07 -9.41849e+06 2.45319e-09 984170 1.43203e-09 1.21914e+07)
(4.01816e+07 -7.4147e+06 -2.75209e-10 339834 -6.77207e-11 1.2097e+07)
(-772398 1.02571e+06 1.78472e-10 -878621 2.96175e-10 2.8049e+06)
(8.24095e+06 -6.80724e+06 1.42776e-09 -320279 -1.05153e-10 1.50012e+06)
(1.08475e+07 -5.67549e+06 -1.38818e-09 364013 -3.58614e-10 3.79246e+06)
(1.9701e+07 -1.0891e+07 -2.0871e-10 359768 1.42692e-10 4.80297e+06)
(2.30055e+07 -9.57799e+06 1.23718e-09 1.50957e+06 4.00792e-10 7.75368e+06)
(2.95002e+07 -1.19573e+07 3.67497e-09 664680 1.20149e-09 8.57276e+06)
(3.17359e+07 -1.07599e+07 -2.38578e-09 2.02324e+06 -4.12702e-10 1.02412e+07)
(3.49413e+07 -1.0478e+07 1.09761e-09 798664 6.99255e-10 1.07256e+07)
(3.6225e+07 -9.7055e+06 -7.27028e-10 1.88346e+06 -1.13173e-10 1.13814e+07)
(3.70532e+07 -8.0126e+06 6.06606e-11 895888 1.72414e-10 1.15582e+07)
(6.83738e+06 490499 8.65244e-11 5.48358e+06 8.68914e-12 6.01358e+06)
(1.59826e+07 -7.2744e+06 1.57595e-10 5.05139e+06 1.51168e-11 6.20151e+06)
(1.53021e+07 -6.64414e+06 3.72397e-10 6.47394e+06 2.98201e-10 7.00692e+06)
(2.42961e+07 -1.1355e+07 -1.70056e-09 4.56353e+06 -1.43273e-10 8.59354e+06)
(2.42836e+07 -1.02356e+07 2.11627e-09 6.2576e+06 3.22697e-10 9.39727e+06)
(3.02318e+07 -1.20628e+07 -6.8148e-10 3.85158e+06 -4.04945e-10 1.05939e+07)
(3.01402e+07 -1.08412e+07 0 5.31843e+06 0 1.04809e+07)
(3.27427e+07 -1.03785e+07 2.13755e-09 3.12555e+06 8.81193e-10 1.12522e+07)
(3.29448e+07 -9.44092e+06 -1.88154e-10 4.02785e+06 3.76668e-10 1.074e+07)
(3.33447e+07 -7.7097e+06 -2.06825e-09 2.48395e+06 -6.93873e-10 1.11332e+07)
(1.51233e+07 58212.5 1.29641e-10 1.46622e+07 8.91629e-10 9.79049e+06)
(2.30989e+07 -6.26624e+06 1.93109e-10 1.30856e+07 1.86583e-10 1.18984e+07)
(1.94951e+07 -6.1505e+06 9.92908e-10 1.47239e+07 -1.71919e-10 1.09571e+07)
(2.77874e+07 -9.49846e+06 3.27112e-10 1.07879e+07 -5.36164e-11 1.26772e+07)
(2.48729e+07 -9.16676e+06 4.06149e-10 1.24645e+07 -1.15004e-10 1.14231e+07)
(2.99495e+07 -9.58349e+06 -3.30865e-09 8.11216e+06 -8.26861e-10 1.25334e+07)
(2.80681e+07 -9.39869e+06 -1.58555e-09 9.45833e+06 -1.29338e-09 1.07651e+07)
(3.0172e+07 -7.85986e+06 2.21666e-09 5.66027e+06 -5.87382e-10 1.15533e+07)
(2.93467e+07 -8.10712e+06 -4.13636e-10 6.48793e+06 -5.50512e-10 1.00268e+07)
(2.96188e+07 -5.36881e+06 -3.3408e-09 3.68754e+06 -1.7862e-09 1.0471e+07)
(2.24223e+07 558247 -1.5952e-09 2.62224e+07 -1.41696e-09 1.19328e+07)
(2.65128e+07 -3.49579e+06 -4.94421e-10 2.3354e+07 -8.73709e-10 1.3365e+07)
(2.31281e+07 -3.22554e+06 -1.41177e-09 2.39979e+07 6.75547e-11 1.21711e+07)
(2.76886e+07 -3.70127e+06 -5.64834e-10 1.80139e+07 -2.67189e-10 1.34493e+07)
(2.50797e+07 -5.3785e+06 -4.23209e-10 1.85126e+07 3.4843e-10 1.12295e+07)
(2.82876e+07 -2.67076e+06 0 1.19389e+07 0 1.27101e+07)
(2.61827e+07 -5.4929e+06 1.32402e-09 1.22841e+07 -3.28989e-09 1.03074e+07)
(2.83194e+07 -1.49164e+06 -8.04543e-10 6.67658e+06 -5.82205e-09 1.11895e+07)
(2.63897e+07 -4.79161e+06 -3.62572e-09 7.09075e+06 8.10233e-10 9.43735e+06)
(2.77077e+07 -253933 6.13019e-10 2.79679e+06 3.75377e-09 9.91979e+06)
(5.14548e+07 -1.76664e+07 1.91379e-09 1.04578e+07 7.11981e-09 -5.79779e+06)
(4.51761e+07 -1.68772e+07 -2.08865e-09 1.68254e+07 2.21539e-09 1.89316e+07)
(5.12257e+07 -1.92782e+07 9.41161e-10 1.43945e+07 4.1081e-09 4.80603e+06)
(4.9559e+07 -1.71887e+07 5.46124e-09 1.53574e+07 4.9443e-09 2.12189e+07)
(5.20474e+07 -2.20896e+07 6.87183e-09 1.64771e+07 2.04608e-09 7.92306e+06)
(5.01668e+07 -1.7434e+07 0 1.31966e+07 0 2.1579e+07)
(5.20334e+07 -2.37851e+07 -1.58623e-09 1.61807e+07 1.10152e-09 8.7981e+06)
(4.87824e+07 -1.73828e+07 -9.38591e-10 1.14318e+07 7.27331e-10 2.10568e+07)
(5.22274e+07 -2.431e+07 1.11031e-09 1.40785e+07 2.04304e-09 9.69767e+06)
(4.71754e+07 -1.67206e+07 -9.08475e-10 1.00627e+07 6.86913e-10 2.03105e+07)
(5.38337e+07 -2.31638e+07 -1.15845e-09 1.07912e+07 -1.97856e-09 1.11263e+07)
(4.77488e+07 -1.57031e+07 -5.29053e-09 8.87187e+06 -4.94018e-09 1.95299e+07)
(5.77563e+07 -2.04632e+07 -3.41871e-09 7.26383e+06 -2.342e-09 1.31903e+07)
(5.07408e+07 -1.45033e+07 4.85269e-09 7.67558e+06 9.84664e-10 1.93892e+07)
(6.34695e+07 -1.68269e+07 8.24676e-09 4.14216e+06 4.1811e-09 1.51005e+07)
(5.1896e+07 -1.19228e+07 1.53163e-09 6.16695e+06 6.77663e-10 2.00581e+07)
(6.66357e+07 -1.16899e+07 -1.90414e-09 1.60412e+06 -4.22125e-10 1.65355e+07)
(5.36443e+07 -6.87451e+06 4.38611e-09 3.46601e+06 2.85892e-09 2.07208e+07)
(6.80985e+07 -5.58462e+06 4.74778e-09 -133572 2.27569e-09 1.88562e+07)
(5.69289e+07 -650916 0 977005 0 2.05029e+07)
(5.57986e+07 -3.08315e+07 2.46263e-09 1.88008e+07 1.03536e-09 1.39275e+07)
(4.66334e+07 -1.35613e+07 2.2543e-09 1.64704e+07 3.24338e-09 2.35623e+07)
(5.99782e+07 -2.66843e+07 9.66446e-10 1.32652e+07 -5.14118e-10 1.65504e+07)
(4.70434e+07 -1.25394e+07 0 1.49415e+07 0 2.27068e+07)
(5.77658e+07 -2.19668e+07 9.03738e-10 9.31789e+06 2.13693e-09 1.81337e+07)
(4.61955e+07 -1.12926e+07 2.4886e-09 1.30234e+07 3.35045e-09 1.99537e+07)
(5.43981e+07 -1.78755e+07 2.48628e-09 6.78962e+06 8.57446e-10 1.77277e+07)
(4.54599e+07 -1.04141e+07 -3.39229e-09 1.08946e+07 -2.15395e-09 1.64259e+07)
(4.96039e+07 -1.45339e+07 -5.24835e-10 5.24555e+06 -2.17388e-09 1.77728e+07)
(4.22243e+07 -9.17532e+06 2.94605e-09 8.61206e+06 1.92454e-09 1.6573e+07)
(4.65554e+07 -1.24853e+07 1.82587e-09 4.24028e+06 7.75367e-10 1.76703e+07)
(4.27924e+07 -8.07528e+06 1.21661e-09 6.3155e+06 1.08964e-09 1.49603e+07)
(4.77301e+07 -1.0901e+07 7.85677e-10 3.24059e+06 1.68272e-09 1.64451e+07)
(4.39136e+07 -6.43505e+06 7.6281e-09 3.84217e+06 6.62187e-09 1.47342e+07)
(4.88494e+07 -8.62693e+06 5.99851e-09 2.1192e+06 3.23799e-09 1.53869e+07)
(4.46539e+07 -4.71426e+06 1.23455e-09 1.58676e+06 9.95105e-10 1.4677e+07)
(4.91611e+07 -5.77167e+06 -1.26593e-09 1.09075e+06 -5.49013e-10 1.4931e+07)
(4.55141e+07 -2.74652e+06 2.68031e-09 268358 2.20659e-09 1.44474e+07)
(4.97473e+07 -2.72333e+06 5.91447e-09 347764 4.1999e-09 1.51853e+07)
(4.65402e+07 -137918 5.86165e-10 65937.6 8.01905e-11 1.42853e+07)
(4.15624e+07 -1.30657e+07 -4.54855e-10 1.18535e+07 1.716e-10 2.1498e+07)
(4.81028e+07 -7.26611e+06 5.54608e-09 8.06434e+06 3.31691e-09 1.503e+07)
(4.48637e+07 -1.42437e+07 4.25e-09 1.05121e+07 2.27069e-09 1.90146e+07)
(4.73785e+07 -7.14469e+06 6.74813e-09 6.18911e+06 4.05725e-09 1.58078e+07)
(4.52489e+07 -1.42212e+07 6.26624e-09 8.65843e+06 2.88866e-09 1.6907e+07)
(4.52208e+07 -6.81805e+06 5.15255e-09 4.70171e+06 3.32612e-09 1.55761e+07)
(4.45778e+07 -1.33128e+07 6.73855e-09 6.62218e+06 2.99554e-09 1.49926e+07)
(4.29591e+07 -6.16762e+06 -3.32509e-11 3.351e+06 3.08733e-10 1.51254e+07)
(4.4664e+07 -1.18436e+07 1.15695e-09 4.66486e+06 1.10195e-09 1.27803e+07)
(4.0709e+07 -5.9968e+06 1.20854e-09 2.39073e+06 1.02126e-09 1.45641e+07)
(4.32058e+07 -9.72505e+06 4.18491e-09 2.95128e+06 2.23121e-09 1.23286e+07)
(3.93947e+07 -5.31343e+06 -2.39433e-09 1.57502e+06 -1.57894e-09 1.36895e+07)
(4.23964e+07 -7.62494e+06 -2.77662e-09 1.67228e+06 -1.52891e-09 1.20972e+07)
(3.89088e+07 -4.18554e+06 2.06929e-10 909455 -2.08343e-10 1.29034e+07)
(4.18442e+07 -5.48836e+06 5.06936e-09 794920 3.88294e-09 1.19421e+07)
(3.89878e+07 -2.90257e+06 3.56414e-09 350371 2.80079e-09 1.23413e+07)
(4.16527e+07 -3.37452e+06 6.31801e-09 278885 5.16837e-09 1.21083e+07)
(3.96791e+07 -1.6115e+06 5.85492e-09 -40617.3 5.17739e-09 1.21954e+07)
(4.20605e+07 -1.32606e+06 5.04968e-09 54772.4 4.31603e-09 1.26836e+07)
(4.0967e+07 -494162 1.63586e-09 2731.13 1.80769e-10 1.16892e+07)
(4.41401e+07 -8.21447e+06 -3.57734e-09 3.85341e+06 -2.1849e-09 1.71524e+07)
(4.76114e+07 -6.02095e+06 -1.6509e-09 3.08362e+06 -8.78099e-10 1.27203e+07)
(4.44325e+07 -8.12415e+06 -1.15705e-09 3.80824e+06 -6.5086e-10 1.62145e+07)
(4.60779e+07 -5.46511e+06 1.22398e-09 2.45569e+06 5.2771e-10 1.30901e+07)
(4.26149e+07 -7.7791e+06 1.26645e-09 3.51033e+06 7.43043e-10 1.51651e+07)
(4.36405e+07 -4.96785e+06 3.82828e-09 1.84256e+06 1.84832e-09 1.27462e+07)
(4.06749e+07 -7.28861e+06 2.32604e-09 3.02777e+06 1.35147e-09 1.3933e+07)
(4.11283e+07 -4.5043e+06 3.58257e-09 1.33579e+06 1.8475e-09 1.22841e+07)
(3.90895e+07 -6.6793e+06 1.29044e-10 2.43943e+06 -8.72974e-11 1.27288e+07)
(3.89798e+07 -4.15872e+06 -2.12251e-09 796807 -1.12963e-09 1.19045e+07)
(3.79344e+07 -5.9217e+06 -3.33386e-09 1.82107e+06 -2.05135e-09 1.17395e+07)
(3.73091e+07 -3.76626e+06 -1.16781e-09 351234 -7.98687e-10 1.16066e+07)
(3.72064e+07 -5.0072e+06 -1.00855e-09 1.25303e+06 -3.95607e-10 1.10544e+07)
(3.60781e+07 -3.1899e+06 3.10257e-09 64391.4 2.07198e-09 1.13534e+07)
(3.68872e+07 -3.87687e+06 1.20674e-09 723674 8.73862e-10 1.06891e+07)
(3.5469e+07 -2.44042e+06 1.30086e-10 -80852 2.38068e-10 1.11636e+07)
(3.70534e+07 -2.53045e+06 -1.05001e-09 355590 -7.52202e-10 1.067e+07)
(3.54705e+07 -1.51866e+06 -9.58e-10 -142829 -7.06978e-10 1.11931e+07)
(3.75344e+07 -1.02703e+06 -2.28963e-09 206804 -1.93157e-09 1.08267e+07)
(3.61509e+07 -491223 -2.35925e-10 -204356 -2.87006e-11 1.08347e+07)
(4.31532e+07 -7.66469e+06 -1.84699e-09 1.49022e+06 -9.46446e-10 1.5091e+07)
(4.52901e+07 -6.08919e+06 2.50676e-09 1.12587e+06 1.05004e-09 1.2088e+07)
(4.31616e+07 -7.02796e+06 1.23749e-09 1.55984e+06 5.85346e-10 1.44214e+07)
(4.37214e+07 -5.25416e+06 -1.12629e-09 1.00447e+06 -5.10672e-10 1.23536e+07)
(4.12745e+07 -6.2813e+06 -2.27512e-09 1.49185e+06 -1.14796e-09 1.36722e+07)
(4.14224e+07 -4.55986e+06 -1.13874e-09 863800 -5.08969e-10 1.1972e+07)
(3.92561e+07 -5.56476e+06 -1.17194e-09 1.33777e+06 -7.23813e-10 1.27011e+07)
(3.90779e+07 -3.99203e+06 -1.34207e-09 717190 -6.09509e-10 1.15076e+07)
(3.74299e+07 -4.89404e+06 1.13935e-09 1.15169e+06 7.42346e-10 1.17925e+07)
(3.69148e+07 -3.47396e+06 2.18676e-09 526491 1.11748e-09 1.11129e+07)
(3.59603e+07 -4.26418e+06 4.24066e-09 918206 2.62477e-09 1.10576e+07)
(3.55175e+07 -3.07885e+06 4.31352e-09 334759 2.33893e-09 1.04058e+07)
(3.4701e+07 -3.4021e+06 -8.01011e-10 609798 -4.21073e-10 1.05461e+07)
(3.37835e+07 -2.53275e+06 1.61055e-09 147122 9.04977e-10 1.02892e+07)
(3.38368e+07 -2.68259e+06 -9.31458e-10 420667 -5.7697e-10 1.01398e+07)
(3.29286e+07 -1.91922e+06 0 -12563 0 1.01374e+07)
(3.36769e+07 -1.92619e+06 -9.31436e-10 297990 -5.94364e-10 9.82421e+06)
(3.2352e+07 -1.16642e+06 -7.95463e-10 -138349 -4.99664e-10 1.0116e+07)
(3.36484e+07 -926815 -8.64964e-10 241519 -5.08149e-10 9.61532e+06)
(3.21939e+07 -218109 0 -259349 0 9.95537e+06)
(4.07255e+07 -7.62165e+06 1.81888e-09 919305 8.92033e-10 1.36174e+07)
(4.20072e+07 -6.32202e+06 0 537626 0 1.15722e+07)
(4.07285e+07 -6.71184e+06 1.10746e-09 1.01031e+06 5.72583e-10 1.31401e+07)
(4.081e+07 -5.34724e+06 2.21829e-09 513132 1.01581e-09 1.18206e+07)
(3.91866e+07 -5.80106e+06 2.28334e-09 997183 1.23631e-09 1.26384e+07)
(3.90702e+07 -4.61311e+06 3.41942e-09 500782 1.62499e-09 1.14754e+07)
(3.74997e+07 -5.04053e+06 2.07854e-09 891268 1.08478e-09 1.18975e+07)
(3.71951e+07 -4.07478e+06 1.02979e-09 513656 5.13997e-10 1.07894e+07)
(3.59446e+07 -4.23491e+06 1.44547e-10 660588 1.62276e-10 1.09642e+07)
(3.48666e+07 -3.52423e+06 -7.24835e-10 523003 -3.32899e-10 1.0351e+07)
(3.38232e+07 -3.38553e+06 -2.88127e-09 420526 -1.73338e-09 1.07802e+07)
(3.28781e+07 -2.71503e+06 -3.66858e-09 436706 -2.06219e-09 1.01236e+07)
(3.29148e+07 -2.85508e+06 -4.09687e-09 259147 -2.57215e-09 9.86283e+06)
(3.17718e+07 -2.12151e+06 -6.08043e-10 328829 -4.38671e-10 9.71658e+06)
(3.20853e+07 -2.29726e+06 0 122518 0 9.47045e+06)
(3.07877e+07 -1.51317e+06 -7.70818e-10 210703 -4.55265e-10 9.44315e+06)
(3.13232e+07 -1.68254e+06 -8.2449e-10 29592.2 -4.70279e-10 9.13042e+06)
(2.97884e+07 -805231 -7.9647e-10 90181.9 -5.16779e-10 9.13934e+06)
(3.05932e+07 -929853 -1.06054e-09 -6092.95 -7.62327e-10 8.80354e+06)
(2.89496e+07 66270.1 -2.45025e-10 -23404.9 -1.72468e-11 9.0349e+06)
(3.76265e+07 -7.67887e+06 -1.00917e-09 1.31316e+06 -6.99654e-10 1.24017e+07)
(3.82183e+07 -6.62468e+06 -1.25214e-09 1.08476e+06 -6.045e-10 1.10167e+07)
(3.78452e+07 -6.53777e+06 -2.17945e-09 1.22863e+06 -1.07388e-09 1.20761e+07)
(3.73955e+07 -5.52014e+06 -1.03793e-09 1.09439e+06 -5.1215e-10 1.12115e+07)
(3.69282e+07 -5.39647e+06 1.10628e-09 1.0984e+06 7.0983e-10 1.16546e+07)
(3.61186e+07 -4.59147e+06 2.16418e-09 1.05529e+06 1.12516e-09 1.07812e+07)
(3.52101e+07 -4.29268e+06 2.9046e-09 976294 1.59108e-09 1.1106e+07)
(3.39303e+07 -3.56328e+06 0 902608 0 1.05846e+07)
(3.34475e+07 -3.52636e+06 -1.03968e-09 784893 -7.16031e-10 1.04643e+07)
(3.25218e+07 -2.80149e+06 -4.53973e-09 727128 -2.62247e-09 1.00321e+07)
(3.22735e+07 -2.96989e+06 -4.7253e-09 583060 -2.96494e-09 9.83396e+06)
(3.12502e+07 -2.27237e+06 -5.34358e-09 637346 -3.26772e-09 9.67109e+06)
(3.13272e+07 -2.48791e+06 -5.61727e-09 357921 -3.63562e-09 9.40276e+06)
(3.01061e+07 -1.73625e+06 -4.53969e-09 553935 -3.08948e-09 9.33723e+06)
(3.04063e+07 -2.02241e+06 -8.29828e-10 132075 -4.64265e-10 9.01124e+06)
(2.89268e+07 -1.14724e+06 7.44715e-10 463090 4.43565e-10 8.93095e+06)
(2.93344e+07 -1.53431e+06 7.93955e-10 -68572.4 4.56689e-10 8.53664e+06)
(2.75765e+07 -463964 -1.43981e-09 365894 -9.55918e-10 8.40247e+06)
(2.8158e+07 -989172 2.02124e-10 -211779 3.07044e-10 8.07908e+06)
(2.60756e+07 402118 1.99828e-10 255645 1.86292e-11 8.50428e+06)
(3.39595e+07 -7.24212e+06 2.01325e-10 2.78712e+06 -4.71231e-10 1.12264e+07)
(3.39272e+07 -6.15513e+06 4.96924e-11 2.41805e+06 -5.01046e-10 1.04345e+07)
(3.42841e+07 -6.01211e+06 -3.60224e-11 2.40233e+06 2.48967e-10 1.10098e+07)
(3.33591e+07 -4.86668e+06 1.55376e-11 2.19032e+06 2.46358e-10 1.05926e+07)
(3.35619e+07 -4.88721e+06 -9.2902e-10 2.03925e+06 -6.02166e-10 1.07816e+07)
(3.23884e+07 -3.6718e+06 -8.87886e-10 1.89003e+06 -5.94548e-10 1.0382e+07)
(3.27362e+07 -3.91517e+06 0 1.67709e+06 0 1.00876e+07)
(3.12615e+07 -2.79014e+06 9.1391e-10 1.66794e+06 4.77364e-10 1.00237e+07)
(3.16616e+07 -3.06806e+06 3.72636e-09 1.31838e+06 2.86288e-09 9.69278e+06)
(3.02705e+07 -2.0292e+06 1.81188e-09 1.44802e+06 1.77091e-09 9.63539e+06)
(3.07293e+07 -2.4092e+06 1.71056e-09 974924 1.22505e-09 9.34995e+06)
(2.94042e+07 -1.38621e+06 1.65849e-09 1.19419e+06 9.49033e-10 9.27525e+06)
(2.98494e+07 -1.88652e+06 5.23443e-09 630812 3.92347e-09 9.03018e+06)
(2.85451e+07 -826325 3.36379e-09 934626 2.7238e-09 8.89809e+06)
(2.88908e+07 -1.45944e+06 2.45189e-09 288576 1.55395e-09 8.66461e+06)
(2.75434e+07 -320884 0 701727 0 8.43966e+06)
(2.77058e+07 -1.10835e+06 8.84471e-10 -31635.6 8.48205e-10 8.17645e+06)
(2.62829e+07 149777 1.58114e-09 533790 1.46788e-09 7.89389e+06)
(2.6388e+07 -853941 -7.38331e-10 -294957 -5.78184e-10 7.74821e+06)
(2.45158e+07 696097 -6.7307e-10 461586 -5.53294e-11 8.28488e+06)
(3.01147e+07 -5.97026e+06 -3.01942e-09 4.01987e+06 -2.4224e-09 1.01325e+07)
(3.00947e+07 -4.39275e+06 -5.56052e-10 3.25005e+06 -1.68853e-09 9.40605e+06)
(3.07602e+07 -4.85033e+06 -8.78053e-10 3.17657e+06 -6.90262e-10 9.90327e+06)
(2.98107e+07 -3.2601e+06 0 2.73682e+06 0 9.43878e+06)
(3.04685e+07 -3.78654e+06 -1.6571e-09 2.54928e+06 -1.75152e-09 9.68251e+06)
(2.92732e+07 -2.23394e+06 -9.26347e-10 2.28576e+06 -9.27122e-10 9.21428e+06)
(2.99603e+07 -2.85794e+06 -3.49257e-09 2.02004e+06 -2.90398e-09 9.3281e+06)
(2.87305e+07 -1.35808e+06 -4.36131e-09 1.84364e+06 -3.37857e-09 8.94461e+06)
(2.94255e+07 -2.07063e+06 -6.95638e-09 1.55201e+06 -5.57363e-09 9.00451e+06)
(2.82731e+07 -621605 -1.65446e-09 1.4173e+06 -2.23184e-09 8.70796e+06)
(2.88822e+07 -1.42201e+06 9.45889e-11 1.13655e+06 6.93328e-10 8.74092e+06)
(2.7884e+07 -14801.8 4.89306e-09 1.01042e+06 4.63046e-09 8.49777e+06)
(2.82815e+07 -912827 1.68842e-09 770056 9.85496e-10 8.51583e+06)
(2.75059e+07 450990 7.6504e-10 640421 7.0737e-10 8.28359e+06)
(2.75638e+07 -553591 0 448818 0 8.30062e+06)
(2.70838e+07 733317 -3.0499e-09 346089 -2.41552e-09 8.03089e+06)
(2.67147e+07 -366832 -3.95294e-09 168348 -3.61634e-09 8.08725e+06)
(2.66051e+07 756879 -1.71295e-09 194795 -2.12247e-09 7.71449e+06)
(2.57864e+07 -375412 1.19467e-09 -75050.7 -4.25667e-10 7.89882e+06)
(2.5571e+07 534789 6.46145e-10 290616 3.12668e-11 7.68982e+06)
(2.66729e+07 -3.32121e+06 2.86099e-09 3.30803e+06 3.33963e-09 9.8469e+06)
(2.80494e+07 -810532 2.83585e-09 1.83324e+06 4.84342e-09 8.729e+06)
(2.73843e+07 -2.90539e+06 4.80516e-09 2.00288e+06 5.76528e-09 9.46932e+06)
(2.841e+07 -356152 2.00263e-09 901839 4.78857e-09 8.42276e+06)
(2.73976e+07 -2.17741e+06 3.34007e-09 960760 3.15454e-09 9.43787e+06)
(2.84148e+07 -42957.1 0 216051 0 8.0944e+06)
(2.72197e+07 -1.46733e+06 2.14963e-09 238542 2.86259e-09 9.30995e+06)
(2.82993e+07 160860 2.71779e-09 -242478 3.79493e-09 7.81964e+06)
(2.70297e+07 -870153 3.93376e-09 -200467 3.84217e-09 9.152e+06)
(2.81442e+07 289155 -5.46907e-10 -498466 4.46643e-11 7.65868e+06)
(2.68646e+07 -396990 -2.28496e-09 -413407 -2.35807e-09 8.98474e+06)
(2.7952e+07 367953 -5.41484e-10 -580848 -1.03261e-09 7.59826e+06)
(2.67108e+07 -45192.4 2.25379e-09 -453535 2.70791e-09 8.8062e+06)
(2.77144e+07 406300 4.03212e-09 -524296 4.71718e-09 7.60797e+06)
(2.65474e+07 181641 5.18507e-09 -371012 4.52259e-09 8.61272e+06)
(2.74298e+07 395451 1.49692e-09 -373952 1.7345e-09 7.65128e+06)
(2.63555e+07 272811 3.06044e-09 -219903 3.02431e-09 8.39933e+06)
(2.70942e+07 325079 2.02084e-09 -196480 2.42618e-09 7.66522e+06)
(2.60918e+07 208810 3.6715e-09 -60655.1 3.33298e-09 8.156e+06)
(2.67692e+07 9411.28 5.36171e-10 4011.92 1.71347e-10 7.60653e+06)
(1.03737e+08 1.09781e+07 0 2.88326e+07 0 4.12216e+07)
(8.72029e+07 6.52441e+06 -6.91748e-09 3.17904e+07 -7.10756e-09 3.31711e+07)
(8.32475e+07 1.67466e+07 -7.31589e-09 2.94498e+07 -5.46459e-09 3.72255e+07)
(7.47521e+07 8.92204e+06 -5.77797e-09 2.58819e+07 -1.12679e-08 2.91845e+07)