/*--------------------------------*- C++ -*----------------------------------*\
| =========                 |                                                 |
| \\      /  F ield         | OpenFOAM: The Open Source CFD Toolbox           |
|  \\    /   O peration     | Version:  v2012                                 |
|   \\  /    A nd           | Website:  www.openfoam.com                      |
|    \\/     M anipulation  |                                                 |
\*---------------------------------------------------------------------------*/
FoamFile
{
    version     2.0;
    format      ascii;
    class       pointSymmTensorField;
    location    "18";
    object      pEpsilon;
}
// * * * * * * * * * * * * * * * * * * * * * * * * * * * * * * * * * * * * * //

dimensions      [0 0 0 0 0 0 0];


internalField   nonuniform List<symmTensor> 
530
(
(0.000155601 -1.34327e-05 -6.07153e-17 -0.000635763 0 0)
(0.000276064 -7.8011e-06 -1.81495e-15 2.17993e-05 0 0)
(0.000346955 -8.96162e-07 1.56125e-15 -0.0001495 -4.23449e-16 0)
(0.000288529 0.000174793 0 -0.000184302 3.11112e-15 0)
(0.00435636 -0.000408504 0 -0.00369229 -1.38511e-14 0)
(0.000155601 -1.34327e-05 -6.07153e-17 -0.000635763 0 0)
(0.000276064 -7.8011e-06 -1.81495e-15 2.17993e-05 0 0)
(0.000346955 -8.96162e-07 1.56125e-15 -0.0001495 -4.23449e-16 0)
(0.000288529 0.000174793 0 -0.000184302 3.11112e-15 0)
(0.00435636 -0.000408504 0 -0.00369229 -1.38511e-14 0)
(0.000105545 -2.39415e-05 6.50521e-18 -0.000340674 0 0)
(4.67442e-05 -3.7778e-05 -2.10335e-16 -0.000163115 0 0)
(3.26131e-05 -3.02955e-05 -5.52943e-17 -6.75958e-05 0 0)
(5.08929e-05 -3.35237e-05 1.79978e-16 -2.39231e-05 0 0)
(8.25618e-05 -3.21511e-05 6.17995e-17 -7.77956e-06 0 0)
(0.000109678 -2.48588e-05 -1.05168e-16 1.29981e-06 0 0)
(0.000141649 -2.26924e-05 3.68629e-17 3.95807e-06 0 0)
(0.000168903 -1.73326e-05 -1.02891e-15 -3.284e-06 0 0)
(0.000201983 -1.49157e-05 3.44776e-16 -1.04255e-05 0 0)
(0.000227062 -1.16064e-05 3.28513e-16 -2.24267e-05 0 0)
(0.000252508 -1.30578e-05 -2.63461e-16 -2.6338e-05 0 0)
(0.000268925 -1.69433e-05 8.67362e-16 -2.86122e-05 0 0)
(0.000278742 -1.1318e-05 1.07661e-15 -2.33002e-05 0 0)
(0.00028084 -6.47399e-06 4.55365e-17 -4.44427e-06 0 0)
(0.000289041 -4.19377e-06 -1.33791e-15 1.38875e-05 -2.93245e-16 0)
(0.000287194 -7.33278e-06 6.49437e-16 2.23348e-06 -1.36676e-15 0)
(0.000297645 -1.39819e-05 1.5168e-15 -1.95999e-05 1.27132e-15 0)
(0.000303013 -1.5563e-05 -5.68122e-16 -4.11657e-05 -6.30637e-16 0)
(0.000316823 -1.71773e-05 -1.52873e-16 -7.30144e-05 8.11415e-16 0)
(0.000328442 -1.63784e-05 -1.74014e-15 -0.000102362 1.68122e-15 0)
(0.00033404 -1.26192e-05 -8.55436e-16 -0.000122857 -7.36919e-18 0)
(0.000343246 -6.37016e-06 1.79652e-15 -0.000141853 -3.95327e-16 0)
(0.000344105 -2.70465e-06 -2.13263e-15 -0.000148482 1.12384e-16 0)
(0.000348207 -1.49735e-06 2.07083e-16 -0.000151067 1.16491e-15 0)
(0.000354768 -7.66741e-06 -6.87384e-16 -0.000152728 1.90684e-16 0)
(0.000373284 -1.61904e-05 -5.87638e-16 -0.000162868 -2.8896e-15 0)
(0.000399167 -1.53764e-05 -2.30827e-15 -0.0001726 -1.521e-15 0)
(0.000437913 -1.85152e-05 1.73581e-15 -0.000188362 2.22085e-15 0)
(0.000475608 -2.74879e-05 -1.58619e-15 -0.000197849 1.77098e-15 0)
(0.000532379 -2.66627e-05 6.34258e-16 -0.00022419 2.99294e-15 0)
(0.000584365 -3.30383e-05 3.84783e-15 -0.000235594 -4.26444e-15 0)
(0.000654581 -3.74659e-05 7.39968e-16 -0.000264548 -1.78649e-15 0)
(0.000714369 -4.8437e-05 -5.53756e-15 -0.000276499 -2.44826e-15 0)
(0.000798532 -3.93555e-05 -4.92499e-15 -0.000321425 6.02816e-15 0)
(0.000882256 -3.95672e-05 5.86608e-15 -0.000388658 1.381e-16 0)
(0.000899394 -3.60041e-05 2.04426e-15 -0.000324642 -4.35849e-16 0)
(0.000953828 -1.82184e-05 8.2955e-15 -0.000374343 -2.38606e-15 0)
(0.000963607 2.72701e-05 6.71419e-15 -0.000390384 -2.18548e-15 0)
(0.000896302 6.63314e-05 -2.54516e-16 -0.000351678 -3.48029e-16 0)
(0.000745347 0.000108724 6.06448e-15 -0.000342411 1.98572e-15 0)
(0.000476677 0.000103517 -5.36382e-15 -0.000269083 -4.56991e-16 0)
(0.000275299 0.000123653 -3.94929e-15 -0.000173177 2.35272e-15 0)
(0.000676938 0.000145437 0 -0.000204149 1.20889e-16 0)
(0.00113359 0.000120876 0 -0.000304879 8.82866e-15 0)
(0.00195997 0.000109988 0 -0.00116295 1.24559e-14 0)
(0.00324233 -0.000240075 0 -0.00268577 -9.17235e-15 0)
(0.0035325 -0.00153891 5.76386e-14 -0.00379823 -2.54015e-14 0)
(0.00116056 -0.00099028 -4.37747e-15 -0.000636081 8.96093e-16 0)
(0.000212519 -0.000133632 -1.91904e-16 -0.000101813 -1.43142e-15 0)
(8.38571e-05 7.59984e-05 -7.62194e-16 -0.000163146 8.6438e-16 0)
(6.00201e-05 0.000139764 -1.37152e-16 -0.000317714 4.53874e-16 0)
(0.0001326 0.000161227 -1.27177e-15 -0.000489603 -1.23355e-15 0)
(0.000168012 0.000106562 7.069e-16 -0.000597735 8.89046e-15 0)
(0.000105545 -2.39415e-05 6.50521e-18 -0.000340674 0 0)
(4.67442e-05 -3.7778e-05 -2.10335e-16 -0.000163115 0 0)
(3.26131e-05 -3.02955e-05 -5.52943e-17 -6.75958e-05 0 0)
(5.08929e-05 -3.35237e-05 1.79978e-16 -2.39231e-05 0 0)
(8.25618e-05 -3.21511e-05 6.17995e-17 -7.77956e-06 0 0)
(0.000109678 -2.48588e-05 -1.05168e-16 1.29981e-06 0 0)
(0.000141649 -2.26924e-05 3.68629e-17 3.95807e-06 0 0)
(0.000168903 -1.73326e-05 -1.02891e-15 -3.284e-06 0 0)
(0.000201983 -1.49157e-05 3.44776e-16 -1.04255e-05 0 0)
(0.000227062 -1.16064e-05 3.28513e-16 -2.24267e-05 0 0)
(0.000252508 -1.30578e-05 -2.63461e-16 -2.6338e-05 0 0)
(0.000268925 -1.69433e-05 8.67362e-16 -2.86122e-05 0 0)
(0.000278742 -1.1318e-05 1.07661e-15 -2.33002e-05 0 0)
(0.00028084 -6.47399e-06 4.55365e-17 -4.44427e-06 0 0)
(0.000289041 -4.19377e-06 -1.33791e-15 1.38875e-05 -2.93245e-16 0)
(0.000287194 -7.33278e-06 6.49437e-16 2.23348e-06 -1.36676e-15 0)
(0.000297645 -1.39819e-05 1.5168e-15 -1.95999e-05 1.27132e-15 0)
(0.000303013 -1.5563e-05 -5.68122e-16 -4.11657e-05 -6.30637e-16 0)
(0.000316823 -1.71773e-05 -1.52873e-16 -7.30144e-05 8.11415e-16 0)
(0.000328442 -1.63784e-05 -1.74014e-15 -0.000102362 1.68122e-15 0)
(0.00033404 -1.26192e-05 -8.55436e-16 -0.000122857 -7.36919e-18 0)
(0.000343246 -6.37016e-06 1.79652e-15 -0.000141853 -3.95327e-16 0)
(0.000344105 -2.70465e-06 -2.13263e-15 -0.000148482 1.12384e-16 0)
(0.000348207 -1.49735e-06 2.07083e-16 -0.000151067 1.16491e-15 0)
(0.000354768 -7.66741e-06 -6.87384e-16 -0.000152728 1.90684e-16 0)
(0.000373284 -1.61904e-05 -5.87638e-16 -0.000162868 -2.8896e-15 0)
(0.000399167 -1.53764e-05 -2.30827e-15 -0.0001726 -1.521e-15 0)
(0.000437913 -1.85152e-05 1.73581e-15 -0.000188362 2.22085e-15 0)
(0.000475608 -2.74879e-05 -1.58619e-15 -0.000197849 1.77098e-15 0)
(0.000532379 -2.66627e-05 6.34258e-16 -0.00022419 2.99294e-15 0)
(0.000584365 -3.30383e-05 3.84783e-15 -0.000235594 -4.26444e-15 0)
(0.000654581 -3.74659e-05 7.39968e-16 -0.000264548 -1.78649e-15 0)
(0.000714369 -4.8437e-05 -5.53756e-15 -0.000276499 -2.44826e-15 0)
(0.000798532 -3.93555e-05 -4.92499e-15 -0.000321425 6.02816e-15 0)
(0.000882256 -3.95672e-05 5.86608e-15 -0.000388658 1.381e-16 0)
(0.000899394 -3.60041e-05 2.04426e-15 -0.000324642 -4.35849e-16 0)
(0.000953828 -1.82184e-05 8.2955e-15 -0.000374343 -2.38606e-15 0)
(0.000963607 2.72701e-05 6.71419e-15 -0.000390384 -2.18548e-15 0)
(0.000896302 6.63314e-05 -2.54516e-16 -0.000351678 -3.48029e-16 0)
(0.000745347 0.000108724 6.06448e-15 -0.000342411 1.98572e-15 0)
(0.000476677 0.000103517 -5.36382e-15 -0.000269083 -4.56991e-16 0)
(0.000275299 0.000123653 -3.94929e-15 -0.000173177 2.35272e-15 0)
(0.000676938 0.000145437 0 -0.000204149 1.20889e-16 0)
(0.00113359 0.000120876 0 -0.000304879 8.82866e-15 0)
(0.00195997 0.000109988 0 -0.00116295 1.24559e-14 0)
(0.00324233 -0.000240075 0 -0.00268577 -9.17235e-15 0)
(0.0035325 -0.00153891 5.76386e-14 -0.00379823 -2.54015e-14 0)
(0.00116056 -0.00099028 -4.37747e-15 -0.000636081 8.96093e-16 0)
(0.000212519 -0.000133632 -1.91904e-16 -0.000101813 -1.43142e-15 0)
(8.38571e-05 7.59984e-05 -7.62194e-16 -0.000163146 8.6438e-16 0)
(6.00201e-05 0.000139764 -1.37152e-16 -0.000317714 4.53874e-16 0)
(0.0001326 0.000161227 -1.27177e-15 -0.000489603 -1.23355e-15 0)
(0.000168012 0.000106562 7.069e-16 -0.000597735 8.89046e-15 0)
(0.000327944 -0.000215739 1.04951e-15 -0.000163297 -7.67242e-16 0)
(0.000313099 -0.000140111 6.81963e-16 -8.98433e-05 -1.34526e-16 0)
(0.000571572 -0.00013407 6.23796e-15 -0.000332508 -1.90657e-15 0)
(0.000416051 -0.000180088 -4.45607e-16 -0.000158288 1.81509e-15 0)
(0.000214117 -0.000159039 5.21501e-16 -5.04112e-05 1.96402e-16 0)
(0.000355523 -7.56867e-05 2.51535e-16 -0.000125778 7.56536e-16 0)
(0.000288163 -7.01579e-05 -4.56449e-16 -5.26749e-05 -3.16036e-16 0)
(0.000983626 2.39033e-05 -1.19235e-14 -0.000551113 -6.09755e-15 0)
(0.000144124 -0.000138753 -2.54788e-16 -0.000160905 4.75321e-16 0)
(0.000572201 -0.000164836 3.68087e-16 -0.000251805 -1.49552e-16 0)
(0.000236255 -0.000101157 -1.08745e-15 -3.54996e-05 1.38913e-18 0)
(0.000414595 -0.000121182 -1.45825e-15 -0.000165724 -1.82027e-15 0)
(0.000133264 -0.000128898 1.68051e-16 -4.21271e-05 -2.77878e-16 0)
(0.000266338 -0.000124061 -2.69966e-16 -0.00022742 1.01522e-15 0)
(0.00031993 -6.82447e-05 4.44523e-17 -8.34661e-05 -7.37122e-16 0)
(0.000550656 -0.000154431 9.05851e-16 -0.000231694 2.82841e-15 0)
(0.000313537 -0.000177081 -1.0224e-15 -9.95793e-05 2.60818e-16 0)
(0.000309689 -0.000203616 7.31836e-17 -0.000108528 3.08151e-16 0)
(0.000814448 1.13627e-05 2.20906e-16 -0.000425928 -1.81468e-15 0)
(0.000411321 -0.000155541 -2.20527e-15 -0.000307998 9.38106e-16 0)
(0.000253944 -5.62038e-05 -6.78711e-16 -3.42309e-05 3.38474e-17 0)
(0.00040297 -6.69117e-05 -1.07553e-15 -0.000163195 1.71162e-15 0)
(0.000286409 -2.46573e-05 8.0231e-17 -2.41308e-05 1.23895e-15 0)
(0.000356914 -2.69065e-05 2.06215e-15 -0.000142536 -5.34342e-16 0)
(0.000408492 -0.000186927 -2.55113e-15 -0.000238546 8.28263e-16 0)
(0.000739118 -8.78017e-05 -3.41415e-15 -0.000348327 -4.21077e-16 0)
(0.000499668 -0.000109793 -3.76435e-15 -0.000209761 3.05921e-15 0)
(0.000177353 -8.57733e-05 6.91721e-16 -1.32493e-05 -7.00952e-17 0)
(0.000328296 -0.00010554 -5.10659e-16 -9.58233e-05 -2.15094e-15 0)
(0.000280599 -0.000106747 -2.9165e-16 -5.98712e-05 -7.8215e-17 0)
(0.000871531 0.00025425 4.75355e-15 -0.000318988 2.27195e-15 0)
(0.000423006 -0.000201361 3.52799e-15 -0.000177483 -3.49384e-16 0)
(0.000299389 -4.65073e-05 -1.14925e-15 -4.92239e-05 -6.04782e-16 0)
(0.000338504 -4.57716e-05 -2.93819e-16 -0.0001116 5.26448e-16 0)
(0.000368994 -0.000116848 1.69244e-15 -0.000133244 -1.03809e-15 0)
(0.00164225 -0.00040256 -7.19477e-15 -0.000916102 -7.25873e-15 0)
(0.000221709 -0.000194865 -7.55689e-16 -8.80646e-05 -4.93278e-16 0)
(0.000129611 -8.69812e-05 -2.66714e-16 -6.94012e-06 8.32632e-16 0)
(6.77289e-05 -9.53849e-05 -1.05168e-16 -8.08316e-05 4.09117e-18 0)
(8.2869e-05 -4.01484e-05 2.63461e-16 -0.000240111 -5.74763e-16 0)
(0.000249812 -0.000187907 9.99634e-16 -0.000168558 1.87259e-15 0)
(0.00015807 -4.23295e-05 -7.35089e-16 -0.000267352 9.37835e-17 0)
(0.000376826 -0.000161645 -4.06576e-16 -0.000135436 9.35124e-18 0)
(0.000239396 -0.000139152 2.73219e-16 -4.57261e-05 1.64706e-16 0)
(0.000685096 -0.00011087 2.97613e-16 -0.00029975 -1.16084e-15 0)
(0.000876914 0.000189636 -4.59404e-15 -0.000439274 -1.94614e-15 0)
(0.00055495 -0.000110644 7.48099e-17 -0.000236275 -2.2443e-16 0)
(0.000272851 -3.45749e-05 -8.19657e-16 -3.33335e-05 3.56618e-16 0)
(0.000373385 -3.45747e-05 3.8706e-16 -0.000154067 6.09525e-16 0)
(0.000219375 -3.73629e-05 -7.07442e-16 -0.000226178 4.62277e-16 0)
(0.000220784 -5.13451e-05 -1.14275e-15 -2.20472e-05 1.48275e-16 0)
(0.000437315 -7.22925e-05 -4.83554e-16 -0.000180054 4.26498e-16 0)
(0.000162557 -0.00017198 -4.6187e-16 -9.54142e-05 9.1056e-17 0)
(0.000549693 -0.000159542 9.17777e-16 -0.000279689 1.37016e-15 0)
(0.000413723 -0.000203682 8.72241e-16 -0.000201649 -2.25785e-16 0)
(0.000749118 -7.9934e-05 2.44162e-15 -0.000468006 4.97405e-15 0)
(0.000751745 -9.05741e-05 4.13406e-15 -0.000336202 -1.49471e-15 0)
(0.000646121 -0.000289887 1.21593e-15 -0.000550292 1.65612e-15 0)
(0.00030626 -8.27099e-05 -1.79978e-16 -7.13275e-05 5.29853e-16 0)
(0.000361621 -0.00014358 -1.12757e-16 -0.000124736 5.27566e-16 0)
(0.000278484 -0.000132588 8.08815e-16 -6.37681e-05 -3.2017e-16 0)
(8.03563e-05 -7.14767e-05 4.66207e-17 -2.04158e-05 2.00527e-16 0)
(0.000179479 -0.000159488 7.86047e-16 -4.75832e-05 -1.42437e-16 0)
(0.000429509 -0.000138168 -7.29126e-16 -0.000282488 1.16972e-15 0)
(0.000309036 -3.82999e-05 2.22261e-16 -6.51623e-05 -1.03454e-15 0)
(0.00085191 -2.15141e-05 -1.97704e-15 -0.000398398 -1.28641e-15 0)
(0.000524098 -0.000178015 3.15015e-15 -0.000225628 1.29793e-15 0)
(0.00134325 -5.83033e-05 -4.54999e-15 -0.00048406 4.14924e-15 0)
(0.000479238 -6.69014e-05 3.31874e-15 -0.000202588 -2.73083e-16 0)
(0.000191382 -4.1347e-05 -2.07083e-16 -9.79914e-06 3.64404e-16 0)
(0.000342272 -0.000191694 -1.27611e-15 -0.000121005 -7.33497e-16 0)
(0.000466277 -0.000183542 8.26162e-16 -0.000193955 9.09375e-17 0)
(0.000279366 -0.000183121 -2.01662e-16 -8.35285e-05 4.25524e-16 0)
(0.000182562 -1.9344e-05 -3.33934e-16 -0.000250924 6.88468e-16 0)
(0.000334181 -8.19491e-05 2.76472e-15 -0.000104121 -3.25904e-16 0)
(0.000342942 -2.49494e-05 -4.74881e-16 -0.000128286 2.79927e-16 0)
(0.000291136 -2.61421e-05 1.4203e-16 -2.58701e-05 -2.85003e-16 0)
(0.000720223 -8.06418e-05 1.06306e-15 -0.000379907 2.90647e-15 0)
(0.000647445 -9.71963e-05 9.47159e-15 -0.000272044 7.69377e-16 0)
(0.00020698 -0.000136378 6.53774e-16 -0.000201528 -1.69407e-17 0)
(0.000309059 -0.000117702 -1.23599e-16 -8.15271e-05 -1.97952e-16 0)
(0.000283226 -1.37995e-05 1.31188e-16 -1.12415e-05 5.6269e-16 0)
(0.000349451 -8.08304e-06 4.52112e-16 -0.000144414 3.23363e-16 0)
(0.000333399 -0.000159363 -3.36103e-16 -0.000107094 -5.66614e-16 0)
(0.000325278 -3.80188e-05 1.53848e-15 -9.09886e-05 9.35328e-16 0)
(5.7079e-05 -5.21706e-05 -2.56956e-16 -0.000151117 -1.58929e-16 0)
(0.00024277 -0.000188831 -1.26852e-16 -7.74555e-05 2.25785e-16 0)
(0.000481637 -0.000154838 3.93349e-15 -0.000197095 1.98511e-16 0)
(0.000434473 -0.000154786 -1.73689e-15 -0.00016673 7.2523e-16 0)
(0.000141553 -5.67727e-05 1.71304e-16 -2.13647e-06 -6.34856e-17 0)
(0.000165579 -0.000111698 -4.34765e-16 -1.89418e-05 3.95842e-16 0)
(0.000255371 -9.05625e-05 4.01155e-17 -4.29247e-05 5.48073e-17 0)
(0.000214117 -0.000113694 -2.0383e-16 -3.04229e-05 -5.53667e-16 0)
(0.000276186 -8.09303e-05 -9.29161e-16 -4.88715e-05 -3.93904e-16 0)
(0.000339496 -0.000210623 -1.21756e-15 -0.00013824 -7.03749e-16 0)
(0.000381486 -0.000202395 1.56125e-16 -0.00014728 -1.10274e-15 0)
(0.00033895 -0.000124494 6.88468e-16 -0.000106791 -5.39035e-16 0)
(0.000350395 -5.03851e-05 -1.6263e-16 -0.000129168 1.1462e-16 0)
(0.000290485 -4.79934e-05 -5.21501e-16 -4.06868e-05 -3.12555e-17 0)
(0.0008697 0.000110997 -2.81513e-15 -0.000420028 -8.58688e-16 0)
(0.000762627 0.000216653 4.16279e-15 -0.000345856 6.19622e-16 0)
(0.000183439 -3.94019e-05 -1.17311e-15 -0.000189192 7.31836e-17 0)
(0.000376028 -8.58031e-05 1.79978e-16 -0.000141793 2.1952e-15 0)
(0.000237569 -2.75516e-05 1.13082e-15 -2.55612e-05 -6.24157e-17 0)
(0.000308292 -0.000167699 1.37694e-16 -0.000213613 -1.89356e-15 0)
(0.000419498 -3.7814e-05 -1.07119e-15 -0.000177887 6.23213e-16 0)
(0.000844229 -4.22498e-05 1.49864e-15 -0.000368449 -1.36704e-15 0)
(0.000403065 -0.00010128 1.37694e-15 -0.000158854 -4.98869e-16 0)
(0.000239338 -0.000196862 -7.04731e-16 -0.000125965 -4.46183e-16 0)
(0.000280896 -2.01864e-05 4.56449e-16 -2.72444e-05 -3.37206e-16 0)
(0.000364175 -1.79178e-05 5.78964e-16 -0.000150348 4.48724e-16 0)
(0.000280198 -0.000152243 1.67184e-15 -7.07534e-05 -2.26937e-16 0)
(0.000349396 -0.000100279 1.48644e-15 -0.000119116 -8.36293e-16 0)
(0.000737534 -0.000169556 -4.08148e-15 -0.000535412 -4.33871e-15 0)
(0.000911807 0.00010702 -7.44278e-15 -0.00051682 1.11727e-15 0)
(0.000459782 -0.000163134 -6.15827e-16 -0.000275817 -8.60314e-16 0)
(0.000552969 0.000146919 -5.46079e-15 -0.00016027 1.29183e-15 0)
(0.000555847 -6.77833e-05 -1.91307e-15 -0.00023375 6.33581e-16 0)
(0.000530218 -0.000142701 8.98749e-15 -0.000343346 2.26436e-15 0)
(0.000139326 3.6651e-05 1.21322e-15 -0.000360011 9.83642e-16 0)
(0.000305233 -6.34399e-05 -1.2902e-16 -6.62812e-05 2.19365e-16 0)
(0.000325124 -0.000196019 -2.22153e-15 -0.000170407 4.62887e-16 0)
(0.000295994 -9.58384e-05 -7.20994e-16 -6.64517e-05 -5.34342e-16 0)
(0.00177533 -0.000859133 9.71445e-16 -0.00174789 1.49246e-14 0)
(0.00110661 0.000104764 -1.09423e-15 -0.00047224 -1.76508e-15 0)
(0.000649181 -0.000131616 -1.043e-15 -0.000315919 2.91122e-15 0)
(0.000456614 -0.000118708 8.40257e-16 -0.000179103 8.76374e-16 0)
(0.000271563 -6.03549e-05 -1.146e-15 -4.19442e-05 1.24768e-17 0)
(0.000365549 -5.82368e-05 -1.37911e-15 -0.000141452 1.11693e-15 0)
(0.003273 -0.000792262 1.77443e-14 -0.00282807 -1.83577e-14 0)
(9.41351e-05 -5.74801e-05 1.19262e-16 -4.2886e-06 9.92852e-17 0)
(0.000123925 -0.00014527 -2.49366e-16 -0.000112337 -1.13672e-17 0)
(6.14946e-05 -5.28825e-05 3.79471e-17 -4.74301e-05 2.76323e-17 0)
(0.000129837 2.31055e-05 -4.42354e-16 -0.000404276 -1.07776e-16 0)
(0.000115083 -9.16014e-05 2.47198e-16 -0.000213661 5.79438e-16 0)
(0.000634103 -7.40902e-05 6.97684e-16 -0.000267018 -1.9889e-15 0)
(0.000392055 -0.000209887 2.11474e-15 -0.000173525 -4.24092e-16 0)
(0.000162311 -3.93643e-05 -6.93889e-17 -1.16652e-06 2.1006e-16 0)
(8.72581e-05 -0.000101159 -2.4503e-16 -0.00014988 3.27497e-16 0)
(0.00103426 -9.15807e-05 -1.34929e-14 -0.000568122 2.84115e-15 0)
(0.000371432 -0.000177787 7.04731e-16 -0.000133671 -2.40591e-16 0)
(0.00029856 -2.55575e-05 4.60786e-16 -3.87495e-05 3.02086e-16 0)
(0.000333175 -2.48812e-05 -1.29887e-15 -0.000111692 8.88199e-16 0)
(0.00039146 -3.3213e-05 5.59448e-16 -0.000164443 -1.37944e-15 0)
(0.000192515 -0.000164341 -4.2067e-16 -0.000140137 1.39049e-16 0)
(0.000257772 -2.44126e-05 8.17488e-16 -2.93375e-05 5.11197e-16 0)
(0.00239875 -0.000377353 9.40369e-15 -0.00156957 7.36065e-15 0)
(0.000332095 -6.15452e-05 6.50521e-18 -9.98639e-05 -2.68221e-16 0)
(0.000869038 8.30646e-05 3.52501e-16 -0.000159088 8.99888e-16 0)
(0.000126017 8.62442e-05 4.46691e-16 -0.000320294 -7.17471e-16 0)
(0.000252029 -0.000162378 1.66967e-16 -6.13586e-05 6.63443e-16 0)
(0.000960518 0.000212415 -3.20178e-15 -0.000483705 2.1375e-15 0)
(0.000209481 -7.85129e-05 -3.6646e-16 -2.31354e-05 3.0252e-16 0)
(0.000123482 -0.000109297 -7.58942e-18 -1.50374e-05 1.64573e-16 0)
(0.000529207 -0.00015065 -4.72712e-16 -0.000221821 -2.15716e-15 0)
(0.000176974 -0.000171021 1.95156e-16 -7.18997e-05 -5.5955e-17 0)
(0.000494002 -0.000188479 2.37982e-16 -0.000246707 -6.18876e-16 0)
(0.000200618 -0.000132953 7.04731e-17 -3.43255e-05 5.75337e-16 0)
(0.000672377 -0.000101593 1.0803e-14 -0.000395346 -3.97089e-16 0)
(0.000271898 -0.000209456 -9.74156e-16 -0.000118446 -2.90448e-16 0)
(0.000789076 -7.65694e-05 5.19333e-16 -0.000349749 -2.07177e-15 0)
(7.72237e-05 -0.000103293 8.78204e-17 -4.3831e-05 -2.92214e-16 0)
(0.000404636 -0.000143536 -2.26381e-15 -0.000153246 -1.1296e-16 0)
(6.60117e-05 -1.23615e-05 -4.51028e-16 -0.000238397 -2.78403e-16 0)
(0.000642863 -0.000117948 -7.84312e-15 -0.000322516 5.01444e-16 0)
(0.000666728 -0.000124923 2.22207e-15 -0.00029881 3.68222e-16 0)
(0.000342055 -6.4349e-05 -9.67108e-16 -0.00011448 3.00392e-16 0)
(0.000348165 -1.17452e-05 -1.06143e-15 -0.000138484 -1.10524e-15 0)
(0.000284047 -1.4688e-05 1.3932e-15 -1.18393e-05 1.05883e-15 0)
(0.000343743 -0.000198364 -1.81279e-15 -0.000312161 1.91091e-16 0)
(0.000322116 -8.95247e-05 -7.22079e-16 -8.78791e-05 -6.23484e-16 0)
(0.000282693 -4.47804e-05 -1.20889e-15 -3.74703e-05 4.12082e-17 0)
(0.000502603 -0.000184591 -9.92045e-16 -0.000215309 -2.16095e-16 0)
(0.000525632 -5.55512e-05 1.68539e-15 -0.000228227 -2.34777e-15 0)
(0.000353743 -0.000117191 4.97107e-16 -0.000243962 -6.1664e-16 0)
(0.000391821 -0.000127941 -4.30211e-15 -0.000146409 -3.09655e-15 0)
(0.000595341 -0.00014837 3.79904e-15 -0.000255328 3.07005e-15 0)
(0.00026285 -0.00011463 -1.22515e-16 -5.2551e-05 1.64341e-16 0)
(0.000382667 -5.77593e-05 -5.33427e-16 -0.000153972 -1.8096e-15 0)
(0.000249765 -0.000127444 -4.49944e-16 -4.76278e-05 -1.3406e-16 0)
(0.000292993 -0.000123921 -3.80555e-16 -6.85685e-05 1.08481e-15 0)
(0.000272377 -0.000207079 -5.32343e-16 -0.000103563 -7.11575e-16 0)
(0.00036149 -0.000156306 1.24683e-17 -0.000256637 8.86335e-17 0)
(0.000589662 -0.000120256 -3.35127e-15 -0.000245048 -2.58555e-15 0)
(0.000834232 0.000146591 6.65063e-15 -0.000377193 1.64311e-15 0)
(0.000148954 4.88301e-05 -2.26598e-16 -0.000205829 6.31277e-16 0)
(0.000209375 -8.76282e-05 2.54245e-16 -0.000244357 -8.93179e-16 0)
(0.000126046 -0.000139703 4.54281e-16 -6.98395e-05 -3.10937e-16 0)
(0.000558198 0.000207933 1.06489e-15 -0.000205472 2.78532e-15 0)
(0.000889475 4.08994e-05 5.38848e-16 -0.000405971 -4.67833e-16 0)
(0.000237621 -7.47322e-05 7.64363e-16 -3.13921e-05 6.18974e-16 0)
(0.000216536 -2.59875e-05 -6.02816e-16 -1.55456e-05 -7.07684e-16 0)
(4.23497e-05 -4.00852e-05 -7.15573e-17 -8.95787e-05 -1.32984e-18 0)
(0.000720888 -6.06766e-05 -7.45389e-16 -0.000306587 7.50268e-16 0)
(0.000495606 -0.000198994 -1.8735e-15 -0.000233569 8.78949e-16 0)
(0.00045146 -4.04403e-05 -1.30538e-15 -0.000191838 9.14118e-16 0)
(0.000347396 -0.000172877 1.51029e-15 -0.000120528 -5.44591e-16 0)
(0.000311256 -0.000101377 -5.75711e-16 -8.22097e-05 5.51164e-16 0)
(0.00044011 -9.98809e-05 3.21141e-15 -0.000179539 -3.65105e-16 0)
(0.000307944 -0.000101371 6.98226e-16 -0.000257674 -7.33327e-16 0)
(0.000281215 -1.30376e-05 2.9165e-16 -1.79346e-05 4.26401e-16 0)
(0.000351926 -7.42301e-06 1.2902e-15 -0.000149089 -2.59937e-16 0)
(0.000602642 -6.10849e-05 -3.89554e-15 -0.000254633 -1.11497e-15 0)
(0.000297591 -6.418e-05 -3.25261e-17 -5.68871e-05 -6.60965e-16 0)
(0.000282177 -4.05194e-06 -6.07153e-17 7.36836e-06 4.00024e-16 0)
(0.000347343 -1.98679e-06 -1.09396e-15 -0.000148397 5.09507e-16 0)
(0.000454671 -0.000198929 -1.36176e-15 -0.00020371 -3.11844e-16 0)
(0.000327944 -0.000215739 1.04951e-15 -0.000163297 -7.67242e-16 0)
(0.000313099 -0.000140111 6.81963e-16 -8.98433e-05 -1.34526e-16 0)
(0.000571572 -0.00013407 6.23796e-15 -0.000332508 -1.90657e-15 0)
(0.000416051 -0.000180088 -4.45607e-16 -0.000158288 1.81509e-15 0)
(0.000214117 -0.000159039 5.21501e-16 -5.04112e-05 1.96402e-16 0)
(0.000355523 -7.56867e-05 2.51535e-16 -0.000125778 7.56536e-16 0)
(0.000288163 -7.01579e-05 -4.56449e-16 -5.26749e-05 -3.16036e-16 0)
(0.000983626 2.39033e-05 -1.19235e-14 -0.000551113 -6.09755e-15 0)
(0.000144124 -0.000138753 -2.54788e-16 -0.000160905 4.75321e-16 0)
(0.000572201 -0.000164836 3.68087e-16 -0.000251805 -1.49552e-16 0)
(0.000236255 -0.000101157 -1.08745e-15 -3.54996e-05 1.38913e-18 0)
(0.000414595 -0.000121182 -1.45825e-15 -0.000165724 -1.82027e-15 0)
(0.000133264 -0.000128898 1.68051e-16 -4.21271e-05 -2.77878e-16 0)
(0.000266338 -0.000124061 -2.69966e-16 -0.00022742 1.01522e-15 0)
(0.00031993 -6.82447e-05 4.44523e-17 -8.34661e-05 -7.37122e-16 0)
(0.000550656 -0.000154431 9.05851e-16 -0.000231694 2.82841e-15 0)
(0.000313537 -0.000177081 -1.0224e-15 -9.95793e-05 2.60818e-16 0)
(0.000309689 -0.000203616 7.31836e-17 -0.000108528 3.08151e-16 0)
(0.000814448 1.13627e-05 2.20906e-16 -0.000425928 -1.81468e-15 0)
(0.000411321 -0.000155541 -2.20527e-15 -0.000307998 9.38106e-16 0)
(0.000253944 -5.62038e-05 -6.78711e-16 -3.42309e-05 3.38474e-17 0)
(0.00040297 -6.69117e-05 -1.07553e-15 -0.000163195 1.71162e-15 0)
(0.000286409 -2.46573e-05 8.0231e-17 -2.41308e-05 1.23895e-15 0)
(0.000356914 -2.69065e-05 2.06215e-15 -0.000142536 -5.34342e-16 0)
(0.000408492 -0.000186927 -2.55113e-15 -0.000238546 8.28263e-16 0)
(0.000739118 -8.78017e-05 -3.41415e-15 -0.000348327 -4.21077e-16 0)
(0.000499668 -0.000109793 -3.76435e-15 -0.000209761 3.05921e-15 0)
(0.000177353 -8.57733e-05 6.91721e-16 -1.32493e-05 -7.00952e-17 0)
(0.000328296 -0.00010554 -5.10659e-16 -9.58233e-05 -2.15094e-15 0)
(0.000280599 -0.000106747 -2.9165e-16 -5.98712e-05 -7.8215e-17 0)
(0.000871531 0.00025425 4.75355e-15 -0.000318988 2.27195e-15 0)
(0.000423006 -0.000201361 3.52799e-15 -0.000177483 -3.49384e-16 0)
(0.000299389 -4.65073e-05 -1.14925e-15 -4.92239e-05 -6.04782e-16 0)
(0.000338504 -4.57716e-05 -2.93819e-16 -0.0001116 5.26448e-16 0)
(0.000368994 -0.000116848 1.69244e-15 -0.000133244 -1.03809e-15 0)
(0.00164225 -0.00040256 -7.19477e-15 -0.000916102 -7.25873e-15 0)
(0.000221709 -0.000194865 -7.55689e-16 -8.80646e-05 -4.93278e-16 0)
(0.000129611 -8.69812e-05 -2.66714e-16 -6.94012e-06 8.32632e-16 0)
(6.77289e-05 -9.53849e-05 -1.05168e-16 -8.08316e-05 4.09117e-18 0)
(8.2869e-05 -4.01484e-05 2.63461e-16 -0.000240111 -5.74763e-16 0)
(0.000249812 -0.000187907 9.99634e-16 -0.000168558 1.87259e-15 0)
(0.00015807 -4.23295e-05 -7.35089e-16 -0.000267352 9.37835e-17 0)
(0.000376826 -0.000161645 -4.06576e-16 -0.000135436 9.35124e-18 0)
(0.000239396 -0.000139152 2.73219e-16 -4.57261e-05 1.64706e-16 0)
(0.000685096 -0.00011087 2.97613e-16 -0.00029975 -1.16084e-15 0)
(0.000876914 0.000189636 -4.59404e-15 -0.000439274 -1.94614e-15 0)
(0.00055495 -0.000110644 7.48099e-17 -0.000236275 -2.2443e-16 0)
(0.000272851 -3.45749e-05 -8.19657e-16 -3.33335e-05 3.56618e-16 0)
(0.000373385 -3.45747e-05 3.8706e-16 -0.000154067 6.09525e-16 0)
(0.000219375 -3.73629e-05 -7.07442e-16 -0.000226178 4.62277e-16 0)
(0.000220784 -5.13451e-05 -1.14275e-15 -2.20472e-05 1.48275e-16 0)
(0.000437315 -7.22925e-05 -4.83554e-16 -0.000180054 4.26498e-16 0)
(0.000162557 -0.00017198 -4.6187e-16 -9.54142e-05 9.1056e-17 0)
(0.000549693 -0.000159542 9.17777e-16 -0.000279689 1.37016e-15 0)
(0.000413723 -0.000203682 8.72241e-16 -0.000201649 -2.25785e-16 0)
(0.000749118 -7.9934e-05 2.44162e-15 -0.000468006 4.97405e-15 0)
(0.000751745 -9.05741e-05 4.13406e-15 -0.000336202 -1.49471e-15 0)
(0.000646121 -0.000289887 1.21593e-15 -0.000550292 1.65612e-15 0)
(0.00030626 -8.27099e-05 -1.79978e-16 -7.13275e-05 5.29853e-16 0)
(0.000361621 -0.00014358 -1.12757e-16 -0.000124736 5.27566e-16 0)
(0.000278484 -0.000132588 8.08815e-16 -6.37681e-05 -3.2017e-16 0)
(8.03563e-05 -7.14767e-05 4.66207e-17 -2.04158e-05 2.00527e-16 0)
(0.000179479 -0.000159488 7.86047e-16 -4.75832e-05 -1.42437e-16 0)
(0.000429509 -0.000138168 -7.29126e-16 -0.000282488 1.16972e-15 0)
(0.000309036 -3.82999e-05 2.22261e-16 -6.51623e-05 -1.03454e-15 0)
(0.00085191 -2.15141e-05 -1.97704e-15 -0.000398398 -1.28641e-15 0)
(0.000524098 -0.000178015 3.15015e-15 -0.000225628 1.29793e-15 0)
(0.00134325 -5.83033e-05 -4.54999e-15 -0.00048406 4.14924e-15 0)
(0.000479238 -6.69014e-05 3.31874e-15 -0.000202588 -2.73083e-16 0)
(0.000191382 -4.1347e-05 -2.07083e-16 -9.79914e-06 3.64404e-16 0)
(0.000342272 -0.000191694 -1.27611e-15 -0.000121005 -7.33497e-16 0)
(0.000466277 -0.000183542 8.26162e-16 -0.000193955 9.09375e-17 0)
(0.000279366 -0.000183121 -2.01662e-16 -8.35285e-05 4.25524e-16 0)
(0.000182562 -1.9344e-05 -3.33934e-16 -0.000250924 6.88468e-16 0)
(0.000334181 -8.19491e-05 2.76472e-15 -0.000104121 -3.25904e-16 0)
(0.000342942 -2.49494e-05 -4.74881e-16 -0.000128286 2.79927e-16 0)
(0.000291136 -2.61421e-05 1.4203e-16 -2.58701e-05 -2.85003e-16 0)
(0.000720223 -8.06418e-05 1.06306e-15 -0.000379907 2.90647e-15 0)
(0.000647445 -9.71963e-05 9.47159e-15 -0.000272044 7.69377e-16 0)
(0.00020698 -0.000136378 6.53774e-16 -0.000201528 -1.69407e-17 0)
(0.000309059 -0.000117702 -1.23599e-16 -8.15271e-05 -1.97952e-16 0)
(0.000283226 -1.37995e-05 1.31188e-16 -1.12415e-05 5.6269e-16 0)
(0.000349451 -8.08304e-06 4.52112e-16 -0.000144414 3.23363e-16 0)
(0.000333399 -0.000159363 -3.36103e-16 -0.000107094 -5.66614e-16 0)
(0.000325278 -3.80188e-05 1.53848e-15 -9.09886e-05 9.35328e-16 0)
(5.7079e-05 -5.21706e-05 -2.56956e-16 -0.000151117 -1.58929e-16 0)
(0.00024277 -0.000188831 -1.26852e-16 -7.74555e-05 2.25785e-16 0)
(0.000481637 -0.000154838 3.93349e-15 -0.000197095 1.98511e-16 0)
(0.000434473 -0.000154786 -1.73689e-15 -0.00016673 7.2523e-16 0)
(0.000141553 -5.67727e-05 1.71304e-16 -2.13647e-06 -6.34856e-17 0)
(0.000165579 -0.000111698 -4.34765e-16 -1.89418e-05 3.95842e-16 0)
(0.000255371 -9.05625e-05 4.01155e-17 -4.29247e-05 5.48073e-17 0)
(0.000214117 -0.000113694 -2.0383e-16 -3.04229e-05 -5.53667e-16 0)
(0.000276186 -8.09303e-05 -9.29161e-16 -4.88715e-05 -3.93904e-16 0)
(0.000339496 -0.000210623 -1.21756e-15 -0.00013824 -7.03749e-16 0)
(0.000381486 -0.000202395 1.56125e-16 -0.00014728 -1.10274e-15 0)
(0.00033895 -0.000124494 6.88468e-16 -0.000106791 -5.39035e-16 0)
(0.000350395 -5.03851e-05 -1.6263e-16 -0.000129168 1.1462e-16 0)
(0.000290485 -4.79934e-05 -5.21501e-16 -4.06868e-05 -3.12555e-17 0)
(0.0008697 0.000110997 -2.81513e-15 -0.000420028 -8.58688e-16 0)
(0.000762627 0.000216653 4.16279e-15 -0.000345856 6.19622e-16 0)
(0.000183439 -3.94019e-05 -1.17311e-15 -0.000189192 7.31836e-17 0)
(0.000376028 -8.58031e-05 1.79978e-16 -0.000141793 2.1952e-15 0)
(0.000237569 -2.75516e-05 1.13082e-15 -2.55612e-05 -6.24157e-17 0)
(0.000308292 -0.000167699 1.37694e-16 -0.000213613 -1.89356e-15 0)
(0.000419498 -3.7814e-05 -1.07119e-15 -0.000177887 6.23213e-16 0)
(0.000844229 -4.22498e-05 1.49864e-15 -0.000368449 -1.36704e-15 0)
(0.000403065 -0.00010128 1.37694e-15 -0.000158854 -4.98869e-16 0)
(0.000239338 -0.000196862 -7.04731e-16 -0.000125965 -4.46183e-16 0)
(0.000280896 -2.01864e-05 4.56449e-16 -2.72444e-05 -3.37206e-16 0)
(0.000364175 -1.79178e-05 5.78964e-16 -0.000150348 4.48724e-16 0)
(0.000280198 -0.000152243 1.67184e-15 -7.07534e-05 -2.26937e-16 0)
(0.000349396 -0.000100279 1.48644e-15 -0.000119116 -8.36293e-16 0)
(0.000737534 -0.000169556 -4.08148e-15 -0.000535412 -4.33871e-15 0)
(0.000911807 0.00010702 -7.44278e-15 -0.00051682 1.11727e-15 0)
(0.000459782 -0.000163134 -6.15827e-16 -0.000275817 -8.60314e-16 0)
(0.000552969 0.000146919 -5.46079e-15 -0.00016027 1.29183e-15 0)
(0.000555847 -6.77833e-05 -1.91307e-15 -0.00023375 6.33581e-16 0)
(0.000530218 -0.000142701 8.98749e-15 -0.000343346 2.26436e-15 0)
(0.000139326 3.6651e-05 1.21322e-15 -0.000360011 9.83642e-16 0)
(0.000305233 -6.34399e-05 -1.2902e-16 -6.62812e-05 2.19365e-16 0)
(0.000325124 -0.000196019 -2.22153e-15 -0.000170407 4.62887e-16 0)
(0.000295994 -9.58384e-05 -7.20994e-16 -6.64517e-05 -5.34342e-16 0)