/*--------------------------------*- C++ -*----------------------------------*\
| =========                 |                                                 |
| \\      /  F ield         | OpenFOAM: The Open Source CFD Toolbox           |
|  \\    /   O peration     | Version:  v2012                                 |
|   \\  /    A nd           | Website:  www.openfoam.com                      |
|    \\/     M anipulation  |                                                 |
\*---------------------------------------------------------------------------*/
FoamFile
{
    version     2.0;
    format      ascii;
    class       pointVectorField;
    location    "18";
    object      pointD;
}
// * * * * * * * * * * * * * * * * * * * * * * * * * * * * * * * * * * * * * //

dimensions      [0 1 0 0 0 0 0];


internalField   nonuniform List<vector> 
530
(
(0.00107053 0 0)
(0.00131585 0 0)
(0.00120763 -6.8233e-05 0)
(0 -0.000881181 0)
(0 -0.000235063 0)
(0.00107053 0 0)
(0.00131585 0 0)
(0.00120763 -6.8233e-05 0)
(0 -0.000881181 0)
(0 -0.000235063 0)
(0.0010842 0 0)
(0.00109212 0 0)
(0.00109445 0 0)
(0.00109847 0 0)
(0.00110491 0 0)
(0.00111439 0 0)
(0.00112663 0 0)
(0.001142 0 0)
(0.00116054 0 0)
(0.00118186 0 0)
(0.00120616 0 0)
(0.00123267 0 0)
(0.00125989 0 0)
(0.00128803 0 0)
(0.00131361 2.64128e-06 0)
(0.00130692 4.198e-06 0)
(0.00129714 3.60816e-06 0)
(0.00128409 1.08122e-06 0)
(0.00126997 -4.52913e-06 0)
(0.00125513 -1.32742e-05 0)
(0.00124046 -2.47214e-05 0)
(0.00122781 -3.82065e-05 0)
(0.00121694 -5.3206e-05 0)
(0.001173 -7.72181e-05 0)
(0.00113813 -8.5168e-05 0)
(0.00110194 -9.10062e-05 0)
(0.00106394 -9.47609e-05 0)
(0.00102251 -9.76558e-05 0)
(0.000976507 -9.90142e-05 0)
(0.000926181 -0.000102504 0)
(0.000869597 -0.000107141 0)
(0.000807319 -0.000115991 0)
(0.00073673 -0.000130306 0)
(0.0006608 -0.000153979 0)
(0.000575084 -0.000190798 0)
(0.000484349 -0.000235061 0)
(0.000386694 -0.000301498 0)
(0.000289008 -0.000386981 0)
(0.000191326 -0.000493049 0)
(0.00010682 -0.000618949 0)
(4.55652e-05 -0.00074114 0)
(1.93072e-05 -0.000833854 0)
(0 -0.000859928 0)
(0 -0.000838442 0)
(0 -0.000798779 0)
(0 -0.000591981 0)
(0.00045578 -0.000239202 0)
(0.000744005 -0.000461218 0)
(0.0008315 -0.000405407 0)
(0.000904792 -0.000317988 0)
(0.000972506 -0.000227413 0)
(0.00102298 -0.00014465 0)
(0.00105627 -7.11238e-05 0)
(0.0010842 0 0)
(0.00109212 0 0)
(0.00109445 0 0)
(0.00109847 0 0)
(0.00110491 0 0)
(0.00111439 0 0)
(0.00112663 0 0)
(0.001142 0 0)
(0.00116054 0 0)
(0.00118186 0 0)
(0.00120616 0 0)
(0.00123267 0 0)
(0.00125989 0 0)
(0.00128803 0 0)
(0.00131361 2.64128e-06 0)
(0.00130692 4.198e-06 0)
(0.00129714 3.60816e-06 0)
(0.00128409 1.08122e-06 0)
(0.00126997 -4.52913e-06 0)
(0.00125513 -1.32742e-05 0)
(0.00124046 -2.47214e-05 0)
(0.00122781 -3.82065e-05 0)
(0.00121694 -5.3206e-05 0)
(0.001173 -7.72181e-05 0)
(0.00113813 -8.5168e-05 0)
(0.00110194 -9.10062e-05 0)
(0.00106394 -9.47609e-05 0)
(0.00102251 -9.76558e-05 0)
(0.000976507 -9.90142e-05 0)
(0.000926181 -0.000102504 0)
(0.000869597 -0.000107141 0)
(0.000807319 -0.000115991 0)
(0.00073673 -0.000130306 0)
(0.0006608 -0.000153979 0)
(0.000575084 -0.000190798 0)
(0.000484349 -0.000235061 0)
(0.000386694 -0.000301498 0)
(0.000289008 -0.000386981 0)
(0.000191326 -0.000493049 0)
(0.00010682 -0.000618949 0)
(4.55652e-05 -0.00074114 0)
(1.93072e-05 -0.000833854 0)
(0 -0.000859928 0)
(0 -0.000838442 0)
(0 -0.000798779 0)
(0 -0.000591981 0)
(0.00045578 -0.000239202 0)
(0.000744005 -0.000461218 0)
(0.0008315 -0.000405407 0)
(0.000904792 -0.000317988 0)
(0.000972506 -0.000227413 0)
(0.00102298 -0.00014465 0)
(0.00105627 -7.11238e-05 0)
(0.00091135 -4.03072e-05 0)
(0.0010943 -2.03793e-05 0)
(0.000651529 -0.000207962 0)
(0.000936721 -3.78752e-05 0)
(0.00106118 -4.04901e-06 0)
(0.00113594 -4.52058e-05 0)
(0.00120557 -1.13117e-05 0)
(0.000364698 -0.000521914 0)
(0.00101627 -3.89365e-05 0)
(0.000715551 -0.000111154 0)
(0.00113538 -4.98627e-06 0)
(0.00101168 -5.19525e-05 0)
(0.00106356 -4.61334e-06 0)
(0.000876055 -0.000132784 0)
(0.0012022 -2.23861e-05 0)
(0.000804336 -7.50344e-05 0)
(0.00103057 -1.65257e-05 0)
(0.00097261 -1.88086e-05 0)
(0.000418457 -0.00036188 0)
(0.000652806 -0.000345503 0)
(0.00118679 -5.0897e-06 0)
(0.00106393 -6.66743e-05 0)
(0.00126371 -3.39021e-06 0)
(0.00115928 -5.95379e-05 0)
(0.0008107 -0.000100789 0)
(0.000549253 -0.000214225 0)
(0.000918459 -6.63445e-05 0)
(0.00111697 -3.20828e-07 0)
(0.00114071 -2.82649e-05 0)
(0.00115223 -1.22873e-05 0)
(0.000132166 -0.000748215 0)
(0.000875086 -4.45562e-05 0)
(0.00124491 -9.64308e-06 0)
(0.00119594 -3.40215e-05 0)
(0.00108046 -4.1922e-05 0)
(0.000370629 -0.000672494 0)
(0.00100315 -1.27316e-05 0)
(0.00109736 -1.69092e-07 0)
(0.00107262 -1.0375e-05 0)
(0.00106619 -3.41179e-05 0)
(0.000929583 -5.79605e-05 0)
(0.00098692 -9.73007e-05 0)
(0.00100969 -3.2319e-05 0)
(0.00109113 -5.66893e-06 0)
(0.000693378 -0.000120454 0)
(0.000255461 -0.000548659 0)
(0.000850741 -7.7637e-05 0)
(0.00122469 -4.26777e-06 0)
(0.00111205 -7.00723e-05 0)
(0.000820142 -0.000242151 0)
(0.00116219 -1.91669e-06 0)
(0.00101546 -7.23104e-05 0)
(0.00101552 -2.01192e-05 0)
(0.000692981 -0.000146049 0)
(0.000829042 -6.89862e-05 0)
(0.000506676 -0.000363602 0)
(0.000582517 -0.000178489 0)
(0.000609993 -0.000467862 0)
(0.00118962 -1.81381e-05 0)
(0.00105433 -3.28312e-05 0)
(0.00111092 -1.20876e-05 0)
(0.00109297 -1.28061e-06 0)
(0.00105396 -3.31583e-06 0)
(0.000737575 -0.000197732 0)
(0.00124487 -1.23614e-05 0)
(0.000424916 -0.000302961 0)
(0.000783232 -7.81986e-05 0)
(0.000143711 -0.000788465 0)
(0.000962725 -7.91034e-05 0)
(0.00114667 -5.5297e-07 0)
(0.000979791 -2.22634e-05 0)
(0.000874865 -4.95545e-05 0)
(0.00102184 -1.12365e-05 0)
(0.000916848 -0.000170594 0)
(0.00116398 -3.24314e-05 0)
(0.00120119 -4.06131e-05 0)
(0.00127322 -3.37142e-06 0)
(0.000541397 -0.000255394 0)
(0.000748588 -0.000102139 0)
(0.000951923 -7.64265e-05 0)
(0.00113512 -2.01405e-05 0)
(0.00128335 -9.70688e-07 0)
(0.00118253 -6.15504e-05 0)
(0.00105099 -2.23482e-05 0)
(0.00122644 -2.13868e-05 0)
(0.00108144 -1.4259e-05 0)
(0.00101981 -9.07449e-06 0)
(0.000895788 -5.54318e-05 0)
(0.000954173 -4.56578e-05 0)
(0.00111717 6.23094e-07 0)
(0.00109125 -5.50306e-07 0)
(0.00115879 -7.1276e-06 0)
(0.0011127 -2.99398e-06 0)
(0.00118211 -9.66395e-06 0)
(0.000928257 -2.87994e-05 0)
(0.000927986 -3.10496e-05 0)
(0.00110229 -3.00235e-05 0)
(0.0011645 -4.62944e-05 0)
(0.00123702 -8.50637e-06 0)
(0.000295383 -0.000455404 0)
(0.000151632 -0.00066336 0)
(0.000800125 -0.000316741 0)
(0.00109665 -5.23549e-05 0)
(0.00118714 -1.91069e-06 0)
(0.000877825 -9.06692e-05 0)
(0.00104351 -8.3139e-05 0)
(0.000487531 -0.000239062 0)
(0.00104409 -5.58626e-05 0)
(0.000968168 -2.78521e-05 0)
(0.00125014 -2.40027e-06 0)
(0.00113847 -7.23697e-05 0)
(0.00107964 -1.15493e-05 0)
(0.0011218 -3.83884e-05 0)
(0.000519001 -0.000433963 0)
(0.000366384 -0.0004609 0)
(0.000745361 -0.000153972 0)
(5.40093e-05 -0.000827363 0)
(0.00087685 -8.54863e-05 0)
(0.000642254 -0.00026924 0)
(0.00104113 -7.88027e-05 0)
(0.00121749 -1.57933e-05 0)
(0.000878749 -6.28188e-05 0)
(0.00117074 -1.54415e-05 0)
(0.000622032 -0.000556453 0)
(0.000256971 -0.000654101 0)
(0.000639079 -0.000157996 0)
(0.000967792 -5.97599e-05 0)
(0.0012071 -7.20969e-06 0)
(0.00112947 -5.64709e-05 0)
(0.000299658 -0.000580421 0)
(0.00110341 -3.11175e-07 0)
(0.00103586 -2.16503e-05 0)
(0.00109139 -2.84845e-06 0)
(0.00107585 -3.35079e-05 0)
(0.00102682 -5.52922e-05 0)
(0.000791145 -0.000100944 0)
(0.000869426 -4.91938e-05 0)
(0.00113144 2.08877e-08 0)
(0.00105335 -2.64596e-05 0)
(0.000418039 -0.000552001 0)
(0.000985508 -2.86273e-05 0)
(0.00126953 -4.47859e-06 0)
(0.0012239 -2.70069e-05 0)
(0.00108213 -8.09028e-05 0)
(0.000986035 -3.71553e-05 0)
(0.00120817 -2.04627e-06 0)
(0.000182494 -0.000724566 0)
(0.0011909 -3.00705e-05 0)
(7.21506e-05 -0.00082041 0)
(0.000990932 -0.000143575 0)
(0.00106126 -6.98046e-06 0)
(0.000242276 -0.000609011 0)
(0.00113761 -2.1426e-06 0)
(0.00108031 -1.05963e-06 0)
(0.000847044 -6.56479e-05 0)
(0.00102777 -1.09454e-05 0)
(0.000764429 -0.000100973 0)
(0.00109134 -2.03269e-06 0)
(0.000563866 -0.000281392 0)
(0.000957876 -2.36762e-05 0)
(0.000621972 -0.000155956 0)
(0.00107564 -5.37361e-06 0)
(0.00100248 -4.40091e-05 0)
(0.00108401 -1.593e-05 0)
(0.00061 -0.000194866 0)
(0.00066672 -0.000130775 0)
(0.00116911 -3.79014e-05 0)
(0.00119884 -4.92129e-05 0)
(0.00128722 -6.49662e-07 0)
(0.000740758 -0.00042381 0)
(0.00117016 -2.54702e-05 0)
(0.00123322 -6.11383e-06 0)
(0.000824001 -6.28274e-05 0)
(0.000910944 -8.72448e-05 0)
(0.000739065 -0.000255224 0)
(0.00104048 -4.46544e-05 0)
(0.000747159 -9.29519e-05 0)
(0.00113399 -9.13164e-06 0)
(0.0010959 -6.53316e-05 0)
(0.00111392 -6.86508e-06 0)
(0.00112584 -1.51773e-05 0)
(0.000982005 -1.6047e-05 0)
(0.000817059 -0.000138888 0)
(0.00080514 -8.32694e-05 0)
(0.000201912 -0.000553113 0)
(0.000886007 -0.000247139 0)
(0.000934027 -0.000116886 0)
(0.00104868 -1.09955e-05 0)
(7.87524e-05 -0.000771194 0)
(0.000324833 -0.000389902 0)
(0.00115639 -4.26208e-06 0)
(0.00116908 -8.77379e-07 0)
(0.00108911 -6.06322e-06 0)
(0.000687554 -0.000130274 0)
(0.000783896 -8.23665e-05 0)
(0.00100367 -8.68142e-05 0)
(0.00102046 -2.38837e-05 0)
(0.00116142 -2.16674e-05 0)
(0.000998087 -6.37696e-05 0)
(0.000819931 -0.000185509 0)
(0.00127006 -1.16265e-06 0)
(0.0011574 -7.34056e-05 0)
(0.000835045 -9.6313e-05 0)
(0.00121954 -1.26432e-05 0)
(0.00129973 4.3939e-07 0)
(0.00119351 -6.50673e-05 0)
(0.000827727 -6.16507e-05 0)
(0.00091135 -4.03072e-05 0)
(0.0010943 -2.03793e-05 0)
(0.000651529 -0.000207962 0)
(0.000936721 -3.78752e-05 0)
(0.00106118 -4.04901e-06 0)
(0.00113594 -4.52058e-05 0)
(0.00120557 -1.13117e-05 0)
(0.000364698 -0.000521914 0)
(0.00101627 -3.89365e-05 0)
(0.000715551 -0.000111154 0)
(0.00113538 -4.98627e-06 0)
(0.00101168 -5.19525e-05 0)
(0.00106356 -4.61334e-06 0)
(0.000876055 -0.000132784 0)
(0.0012022 -2.23861e-05 0)
(0.000804336 -7.50344e-05 0)
(0.00103057 -1.65257e-05 0)
(0.00097261 -1.88086e-05 0)
(0.000418457 -0.00036188 0)
(0.000652806 -0.000345503 0)
(0.00118679 -5.0897e-06 0)
(0.00106393 -6.66743e-05 0)
(0.00126371 -3.39021e-06 0)
(0.00115928 -5.95379e-05 0)
(0.0008107 -0.000100789 0)
(0.000549253 -0.000214225 0)
(0.000918459 -6.63445e-05 0)
(0.00111697 -3.20828e-07 0)
(0.00114071 -2.82649e-05 0)
(0.00115223 -1.22873e-05 0)
(0.000132166 -0.000748215 0)
(0.000875086 -4.45562e-05 0)
(0.00124491 -9.64308e-06 0)
(0.00119594 -3.40215e-05 0)
(0.00108046 -4.1922e-05 0)
(0.000370629 -0.000672494 0)
(0.00100315 -1.27316e-05 0)
(0.00109736 -1.69092e-07 0)
(0.00107262 -1.0375e-05 0)
(0.00106619 -3.41179e-05 0)
(0.000929583 -5.79605e-05 0)
(0.00098692 -9.73007e-05 0)
(0.00100969 -3.2319e-05 0)
(0.00109113 -5.66893e-06 0)
(0.000693378 -0.000120454 0)
(0.000255461 -0.000548659 0)
(0.000850741 -7.7637e-05 0)
(0.00122469 -4.26777e-06 0)
(0.00111205 -7.00723e-05 0)
(0.000820142 -0.000242151 0)
(0.00116219 -1.91669e-06 0)
(0.00101546 -7.23104e-05 0)
(0.00101552 -2.01192e-05 0)
(0.000692981 -0.000146049 0)
(0.000829042 -6.89862e-05 0)
(0.000506676 -0.000363602 0)
(0.000582517 -0.000178489 0)
(0.000609993 -0.000467862 0)
(0.00118962 -1.81381e-05 0)
(0.00105433 -3.28312e-05 0)
(0.00111092 -1.20876e-05 0)
(0.00109297 -1.28061e-06 0)
(0.00105396 -3.31583e-06 0)
(0.000737575 -0.000197732 0)
(0.00124487 -1.23614e-05 0)
(0.000424916 -0.000302961 0)
(0.000783232 -7.81986e-05 0)
(0.000143711 -0.000788465 0)
(0.000962725 -7.91034e-05 0)
(0.00114667 -5.5297e-07 0)
(0.000979791 -2.22634e-05 0)
(0.000874865 -4.95545e-05 0)
(0.00102184 -1.12365e-05 0)
(0.000916848 -0.000170594 0)
(0.00116398 -3.24314e-05 0)
(0.00120119 -4.06131e-05 0)
(0.00127322 -3.37142e-06 0)
(0.000541397 -0.000255394 0)
(0.000748588 -0.000102139 0)
(0.000951923 -7.64265e-05 0)
(0.00113512 -2.01405e-05 0)
(0.00128335 -9.70688e-07 0)
(0.00118253 -6.15504e-05 0)
(0.00105099 -2.23482e-05 0)
(0.00122644 -2.13868e-05 0)
(0.00108144 -1.4259e-05 0)
(0.00101981 -9.07449e-06 0)
(0.000895788 -5.54318e-05 0)
(0.000954173 -4.56578e-05 0)
(0.00111717 6.23094e-07 0)
(0.00109125 -5.50306e-07 0)
(0.00115879 -7.1276e-06 0)
(0.0011127 -2.99398e-06 0)
(0.00118211 -9.66395e-06 0)
(0.000928257 -2.87994e-05 0)
(0.000927986 -3.10496e-05 0)
(0.00110229 -3.00235e-05 0)
(0.0011645 -4.62944e-05 0)
(0.00123702 -8.50637e-06 0)
(0.000295383 -0.000455404 0)
(0.000151632 -0.00066336 0)
(0.000800125 -0.000316741 0)
(0.00109665 -5.23549e-05 0)
(0.00118714 -1.91069e-06 0)
(0.000877825 -9.06692e-05 0)
(0.00104351 -8.3139e-05 0)
(0.000487531 -0.000239062 0)
(0.00104409 -5.58626e-05 0)
(0.000968168 -2.78521e-05 0)
(0.00125014 -2.40027e-06 0)
(0.00113847 -7.23697e-05 0)
(0.00107964 -1.15493e-05 0)
(0.0011218 -3.83884e-05 0)
(0.000519001 -0.000433963 0)
(0.000366384 -0.0004609 0)
(0.000745361 -0.000153972 0)
(5.40093e-05 -0.000827363 0)
(0.00087685 -8.54863e-05 0)
(0.000642254 -0.00026924 0)
(0.00104113 -7.88027e-05 0)
(0.00121749 -1.57933e-05 0)
(0.000878749 -6.28188e-05 0)
(0.00117074 -1.54415e-05 0)
(0.000622032 -0.000556453 0)
(0.000256971 -0.000654101 0)
(0.000639079 -0.000157996 0)
(0.000967792 -5.97599e-05 0)
(0.0012071 -7.20969e-06 0)
(0.00112947 -5.64709e-05 0)
(0.000299658 -0.000580421 0)
(0.00110341 -3.11175e-07 0)
(0.00103586 -2.16503e-05 0)
(0.00109139 -2.84845e-06 0)
(0.00107585 -3.35079e-05 0)
(0.00102682 -5.52922e-05 0)
(0.000791145 -0.000100944 0)
(0.000869426 -4.91938e-05 0)
(0.00113144 2.08877e-08 0)
(0.00105335 -2.64596e-05 0)
(0.000418039 -0.000552001 0)
(0.000985508 -2.86273e-05 0)
(0.00126953 -4.47859e-06 0)
(0.0012239 -2.70069e-05 0)
(0.00108213 -8.09028e-05 0)
(0.000986035 -3.71553e-05 0)
(0.00120817 -2.04627e-06 0)
(0.000182494 -0.000724566 0)
(0.0011909 -3.00705e-05 0)
(7.21506e-05 -0.00082041 0)
(0.000990932 -0.000143575 0)
(0.00106126 -6.98046e-06 0)
(0.000242276 -0.000609011 0)
(0.00113761 -2.1426e-06 0)
(0.00108031 -1.05963e-06 0)
(0.000847044 -6.56479e-05 0)
(0.00102777 -1.09454e-05 0)
(0.000764429 -0.000100973 0)
(0.00109134 -2.03269e-06 0)
(0.000563866 -0.000281392 0)
(0.000957876 -2.36762e-05 0)
(0.000621972 -0.000155956 0)
(0.00107564 -5.37361e-06 0)
(0.00100248 -4.40091e-05 0)
(0.00108401 -1.593e-05 0)
(0.00061 -0.000194866 0)
(0.00066672 -0.000130775 0)
(0.00116911 -3.79014e-05 0)
(0.00119884 -4.92129e-05 0)
(0.00128722 -6.49662e-07 0)
(0.000740758 -0.00042381 0)
(0.00117016 -2.54702e-05 0)
(0.00123322 -6.11383e-06 0)
(0.000824001 -6.28274e-05 0)
(0.000910944 -8.72448e-05 0)
(0.000739065 -0.000255224 0)
(0.00104048 -4.46544e-05 0)
(0.000747159 -9.29519e-05 0)
(0.00113399 -9.13164e-06 0)
(0.0010959 -6.53316e-05 0)
(0.00111392 -6.86508e-06 0)
(0.00112584 -1.51773e-05 0)
(0.000982005 -1.6047e-05 0)
(0.000817059 -0.000138888 0)
(0.00080514 -8.32694e-05 0)
(0.000201912 -0.000553113 0)
(0.000886007 -0.000247139 0)
(0.000934027 -0.000116886 0)
(0.00104868 -1.09955e-05 0)
(7.87524e-05 -0.000771194 0)
(0.000324833 -0.000389902 0)
(0.00115639 -4.26208e-06 0)
(0.00116908 -8.77379e-07 0)
(0.00108911 -6.06322e-06 0)
(0.000687554 -0.000130274 0)
(0.000783896 -8.23665e-05 0)
(0.00100367 -8.68142e-05 0)
(0.00102046 -2.38837e-05 0)
(0.00116142 -2.16674e-05 0)
(0.000998087 -6.37696e-05 0)
(0.000819931 -0.000185509 0)
(0.00127006 -1.16265e-06 0)
(0.0011574 -7.34056e-05 0)
(0.000835045 -9.6313e-05 0)
(0.00121954 -1.26432e-05 0)
(0.00129973 4.3939e-07 0)
(0.00119351 -6.50673e-05 0)
(0.000827727 -6.16507e-05 0)
)
;

boundaryField
{
    back
    {
        type            empty;
    }
    front
    {
        type            empty;
    }
    down
    {
        type            pointFixedDisplacementZeroShear;
    }
    right
    {
        type            pointSolidTraction;
        tractionSeries  
{
        fileName        "$FOAM_CASE/constant/timeVsTraction";
        outOfBounds     clamp;
}
        pressure        uniform 0;
    }
    up
    {
        type            pointSolidTraction;
        traction        uniform (0 0 0);
        pressure        uniform 0;
    }
    left
    {
        type            pointFixedDisplacementZeroShear;
    }
    hole
    {
        type            pointSolidTraction;
        traction        uniform (0 0 0);
        pressure        uniform 0;
    }
}


// ************************************************************************* //
