/*--------------------------------*- C++ -*----------------------------------*\
| =========                 |                                                 |
| \\      /  F ield         | OpenFOAM: The Open Source CFD Toolbox           |
|  \\    /   O peration     | Version:  v2012                                 |
|   \\  /    A nd           | Website:  www.openfoam.com                      |
|    \\/     M anipulation  |                                                 |
\*---------------------------------------------------------------------------*/
FoamFile
{
    version     2.0;
    format      ascii;
    class       volVectorField;
    location    "9";
    object      D;
}
// * * * * * * * * * * * * * * * * * * * * * * * * * * * * * * * * * * * * * //

dimensions      [0 1 0 0 0 0 0];


internalField   nonuniform List<vector> 
30465
(
(0.00316693 -0.000319168 0)
(0.00375855 -0.000113003 0)
(0.00145392 -0.00118451 0)
(0.00351581 -0.000326826 0)
(0.00389243 -0.000416202 0)
(0.00389838 -0.000420727 0)
(0.00135753 -0.00122611 0)
(0.000336706 -0.00228124 0)
(0.000834134 -0.00181758 0)
(0.0019476 -0.000808624 0)
(0.000259566 -0.00234375 0)
(0.00178822 -0.000856764 0)
(0.00319078 -0.000239945 0)
(0.00318291 -0.000207119 0)
(0.00258193 -0.000581204 0)
(0.00125772 -0.00134003 0)
(0.0038732 -0.000381854 0)
(0.00199499 -0.000884189 0)
(0.000848828 -0.00180128 0)
(0.00430703 -0.000292784 0)
(0.00373635 -3.10141e-05 0)
(0.00374272 -2.99663e-05 0)
(0.00335472 -9.26791e-05 0)
(0.00066897 -0.00195659 0)
(0.00334729 -9.51418e-05 0)
(0.00432881 -0.000157365 0)
(0.00431931 -0.000160946 0)
(0.00385753 -0.000111943 0)
(0.00409773 -8.49179e-05 0)
(0.00148404 -0.0013752 0)
(0.00276424 -0.00030974 0)
(0.00454916 -8.92498e-05 0)
(0.00315995 -0.000284505 0)
(0.00362664 -0.000283572 0)
(0.00320468 -0.000495226 0)
(0.00397599 -7.96099e-05 0)
(0.000805038 -0.0018323 0)
(0.0025591 -0.00112067 0)
(0.00374022 -0.000279766 0)
(0.00181618 -0.000844894 0)
(0.00359195 -7.29314e-05 0)
(0.00257796 -0.000526122 0)
(0.000648779 -0.00197472 0)
(0.00378055 -0.000102634 0)
(0.003794 -0.000101073 0)
(0.000945368 -0.00173493 0)
(0.00208227 -0.000684168 0)
(0.00376888 -0.000112064 0)
(0.00444953 -0.000138418 0)
(0.0037126 -5.46403e-05 0)
(0.00370867 -5.68446e-05 0)
(0.00349901 -0.000243426 0)
(0.000503234 -0.00203692 0)
(0.00048618 -0.00205873 0)
(0.00121762 -0.00185296 0)
(0.00358761 -0.000148367 0)
(0.00122874 -0.00184838 0)
(0.00410576 -0.000225133 0)
(0.00413283 -9.15616e-05 0)
(0.00461903 -2.92532e-05 0)
(0.00461618 -2.83612e-05 0)
(0.0017757 -0.000963614 0)
(0.00400749 -3.78261e-06 0)
(0.00312076 -0.000438572 0)
(0.00312629 -0.00043316 0)
(0.00348486 -1.93115e-05 0)
(0.00292264 -0.000494674 0)
(0.000768157 -0.00192873 0)
(0.0037307 -9.32637e-06 0)
(0.00387545 -0.000207467 0)
(0.0033302 -0.000118517 0)
(0.00450972 -0.000163318 0)
(0.00114922 -0.00128993 0)
(0.00198487 -0.000731588 0)
(0.00315857 -0.000288618 0)
(0.00185874 -0.000828618 0)
(0.00428462 -4.21315e-05 0)
(0.00428708 -3.98432e-05 0)
(0.00278899 -0.000624855 0)
(0.000287518 -0.00232197 0)
(0.000922849 -0.00156503 0)
(0.00090036 -0.00158324 0)
(0.00383788 -0.000340853 0)
(0.0041616 -0.000155876 0)
(0.00333542 -0.000225556 0)
(0.00453459 -0.000130536 0)
(0.00413732 -9.35854e-05 0)
(0.00187456 -0.000818276 0)
(0.00393089 -0.000454631 0)
(0.00386721 -5.45214e-05 0)
(0.00459818 -7.59091e-05 0)
(0.0045952 -7.54229e-05 0)
(0.00388292 -0.000391658 0)
(0.00388635 -0.000386095 0)
(0.00193713 -0.00081926 0)
(0.0044008 -6.35913e-05 0)
(0.00412769 -0.000104246 0)
(0.00413904 -0.000103433 0)
(0.000372781 -0.00224526 0)
(0.00418236 -8.6729e-05 0)
(0.00365674 -0.00036316 0)
(0.00366983 -3.73825e-05 0)
(0.00367141 -3.86813e-05 0)
(0.0027788 -0.00033657 0)
(0.00323715 -0.000155543 0)
(0.0027309 -0.000572519 0)
(0.00274961 -0.000569972 0)
(0.00437355 -0.000181341 0)
(0.00331529 -0.000122537 0)
(0.0034359 -6.93587e-05 0)
(0.00134209 -0.00130584 0)
(0.00354997 -0.000380804 0)
(0.00309336 -0.00049206 0)
(0.00310583 -0.000493646 0)
(0.00301839 -0.000270286 0)
(0.00302584 -0.000264837 0)
(0.00360242 -1.20666e-05 0)
(0.00452515 -0.000161559 0)
(0.00446413 -2.19504e-05 0)
(0.000267982 -0.00219334 0)
(0.00168594 -0.000922948 0)
(0.00396828 -8.05934e-05 0)
(0.00341257 -0.000162504 0)
(0.00352903 -3.30551e-05 0)
(0.00381516 -0.000104465 0)
(0.00381238 -0.000101855 0)
(0.00370269 -1.38951e-05 0)
(0.00322997 -0.000434333 0)
(0.00445621 -0.000244768 0)
(0.00350765 -5.84832e-05 0)
(0.000605167 -0.00205717 0)
(0.0045128 -1.47519e-05 0)
(0.00131605 -0.00132623 0)
(0.000148567 -0.00236338 0)
(0.00428356 -0.000232173 0)
(0.00356438 -2.8412e-05 0)
(0.00117841 -0.00128641 0)
(0.00408155 -0.000151025 0)
(0.000715645 -0.00193619 0)
(0.0011916 -0.00127387 0)
(0.00336302 -0.000154369 0)
(0.000173777 -0.00238964 0)
(0.00355491 -1.6031e-05 0)
(0.00358791 -7.51206e-05 0)
(0.00408269 -5.20236e-05 0)
(0.00174713 -0.00101234 0)
(0.00463706 -6.59473e-05 0)
(0.00463092 -6.65962e-05 0)
(0.00267381 -0.0004278 0)
(0.00471115 -3.11762e-06 0)
(0.00433015 -0.000400195 0)
(0.00247395 -0.000450014 0)
(0.00443999 -0.000112452 0)
(0.00444628 -0.0001127 0)
(0.0036858 -0.000431033 0)
(0.00314047 -0.000209374 0)
(0.00282169 -0.00052913 0)
(0.00377748 -0.000299495 0)
(0.00233783 -0.000614569 0)
(0.00382844 -9.15275e-05 0)
(0.00383684 -8.94654e-05 0)
(0.00232631 -0.000623725 0)
(0.00271308 -0.000490313 0)
(0.00270397 -0.00049693 0)
(0.0035783 -1.77354e-05 0)
(0.0044519 -5.40807e-06 0)
(0.00420055 -9.98136e-05 0)
(0.000372597 -0.00222695 0)
(0.00409808 -0.000167814 0)
(0.00224217 -0.000594142 0)
(0.00314556 -0.00020235 0)
(0.00453241 -4.01251e-05 0)
(0.00435978 -7.54591e-05 0)
(0.004369 -7.56966e-05 0)
(0.00405899 -0.000152487 0)
(0.00219928 -0.000620862 0)
(0.00325511 -0.000442923 0)
(0.00289102 -0.000275736 0)
(0.00358424 -1.48037e-05 0)
(0.000170838 -0.00239485 0)
(0.00151805 -0.00106316 0)
(0.00301058 -0.000338992 0)
(0.00302582 -0.000334585 0)
(0.00402587 -0.000457212 0)
(0.00442999 -0.000253202 0)
(0.00304046 -0.000208 0)
(0.000599664 -0.00200188 0)
(0.00341653 -0.000204392 0)
(0.00447339 -2.16866e-05 0)
(0.00390551 -0.000379403 0)
(0.00219498 -0.000714034 0)
(0.00439618 -0.00016542 0)
(0.00352425 -5.30741e-05 0)
(0.000200917 -0.00237964 0)
(0.00383775 -0.000371024 0)
(0.00383127 -0.000368489 0)
(0.00137571 -0.00120853 0)
(0.00367023 -0.000236203 0)
(0.0039052 -0.000292091 0)
(0.00315201 -0.000324652 0)
(0.00451284 -3.40178e-05 0)
(0.00419225 -8.68956e-05 0)
(0.00467183 -2.25113e-05 0)
(0.000166227 -0.00234487 0)
(0.0029114 -0.000252388 0)
(0.0033673 -0.000150643 0)
(0.00352436 -3.3476e-05 0)
(0.000288722 -0.00227865 0)
(0.00280089 -0.000317883 0)
(0.00381345 -7.67963e-05 0)
(0.00145334 -0.00117058 0)
(0.00338603 -0.000142236 0)
(0.00370344 -4.9053e-06 0)
(0.00422705 -0.000118384 0)
(0.000966296 -0.00171793 0)
(0.00280346 -0.00053135 0)
(0.00278762 -0.000538906 0)
(0.00429553 -0.000172461 0)
(0.0043033 -0.000168561 0)
(0.00220809 -0.000705024 0)
(0.00334884 -0.000427038 0)
(0.00325722 -0.000265152 0)
(0.00445925 -0.000105165 0)
(0.00426309 -0.00023502 0)
(0.0030017 -0.000514638 0)
(0.00346251 -0.000128778 0)
(0.00179498 -0.00094743 0)
(0.00244736 -0.000478052 0)
(0.00386333 -5.28894e-05 0)
(0.00305712 -0.000193911 0)
(0.00175645 -0.000976567 0)
(0.00433441 -8.84309e-05 0)
(0.00434121 -8.92975e-05 0)
(0.0029927 -0.000441603 0)
(0.00325036 -0.000129368 0)
(0.0035846 -2.09201e-05 0)
(0.00332797 -0.00046388 0)
(0.00333986 -0.000458282 0)
(0.00112407 -0.0014145 0)
(0.00115104 -0.00138861 0)
(0.00214637 -0.000658797 0)
(0.00307025 -0.000187749 0)
(0.00328345 -0.000194225 0)
(0.00288634 -0.000324045 0)
(0.0040245 -0.000125784 0)
(0.00259205 -0.000601643 0)
(0.00280973 -0.000315802 0)
(0.003125 -0.000240892 0)
(0.000852989 -0.00185493 0)
(0.00323543 -0.000135309 0)
(0.00373847 -0.000243389 0)
(0.00350622 -6.43972e-05 0)
(0.00350841 -5.9947e-05 0)
(0.00178657 -0.00096643 0)
(0.00297186 -0.000263034 0)
(0.000628644 -0.00204038 0)
(0.00190662 -0.00124567 0)
(0.00193356 -0.00122007 0)
(0.00256727 -0.00042697 0)
(5.2913e-05 -0.00236699 0)
(0.00451967 -0.000159116 0)
(0.00319027 -0.000139485 0)
(0.0031729 -0.000145496 0)
(0.00347514 -8.57778e-05 0)
(0.00160585 -0.00115664 0)
(0.00162481 -0.00113548 0)
(0.00370689 -0.000220712 0)
(0.00210552 -0.000657929 0)
(0.00304343 -0.000258422 0)
(0.00374194 -0.000198343 0)
(0.00445057 -7.19526e-06 0)
(0.00418981 -0.00032508 0)
(0.0040294 -8.76483e-05 0)
(0.00387932 -0.000417023 0)
(0.00324803 -0.000152824 0)
(0.0024166 -0.000598519 0)
(0.00307997 -0.000450494 0)
(0.00317374 -0.000158082 0)
(0.00135457 -0.00139679 0)
(0.00370121 -2.80327e-05 0)
(0.00132804 -0.00141489 0)
(0.00348072 -0.000474571 0)
(0.00306071 -0.000450947 0)
(0.00401112 -0.000279026 0)
(0.00380496 -7.82007e-05 0)
(0.004024 -0.000245668 0)
(0.00255646 -0.000464328 0)
(0.00433005 -0.000177536 0)
(0.00470849 -2.41558e-06 0)
(0.00432507 -0.000404473 0)
(0.00289659 -0.000257768 0)
(0.00300664 -0.000207702 0)
(0.00342448 -0.000160064 0)
(0.0018033 -0.0012172 0)
(0.00454728 -3.04647e-05 0)
(0.00433819 -0.000235787 0)
(0.00448929 -8.70333e-06 0)
(0.00366433 -1.22264e-05 0)
(0.00366884 -1.15547e-05 0)
(0.00423261 -6.19812e-05 0)
(0.00350677 -0.000447934 0)
(0.00351864 -0.000444976 0)
(0.00112972 -0.00130518 0)
(0.00382336 -4.58331e-05 0)
(0.00398184 -3.53012e-05 0)
(0.0020116 -0.000733458 0)
(0.00203298 -0.000718278 0)
(0.0045069 -3.82941e-05 0)
(0.0031811 -0.000255698 0)
(0.00292793 -0.000849522 0)
(0.00320425 -0.000245493 0)
(0.00319813 -0.00024405 0)
(0.000342872 -0.00227519 0)
(0.0044287 -0.000219789 0)
(0.00121279 -0.00152352 0)
(0.00279613 -0.000439768 0)
(8.64736e-05 -0.00236487 0)
(7.57081e-05 -0.00236313 0)
(0.00220582 -0.000612405 0)
(0.000978878 -0.0019375 0)
(0.00237668 -0.000502264 0)
(0.000953895 -0.00195072 0)
(0.002163 -0.000649388 0)
(0.00350197 -4.37829e-05 0)
(0.00368868 -0.000122611 0)
(0.0036926 -0.000119435 0)
(0.00160966 -0.00161895 0)
(0.00259987 -0.000476592 0)
(0.00351699 -0.000175653 0)
(0.0014544 -0.0012307 0)
(0.00360276 -8.4321e-07 0)
(0.00182091 -0.00088092 0)
(0.00349418 -4.59965e-05 0)
(0.000269794 -0.00233234 0)
(0.00331138 -0.000140037 0)
(0.0025368 -0.000559034 0)
(0.0045933 -9.32261e-05 0)
(0.00347578 -7.47816e-05 0)
(0.0034853 -7.35079e-05 0)
(0.00235589 -0.000512702 0)
(0.00259883 -0.000441439 0)
(0.00349114 -0.000248137 0)
(0.00155196 -0.00116059 0)
(0.00419653 -9.79921e-05 0)
(0.00359683 -0.000158844 0)
(0.00236316 -0.000511961 0)
(0.00235524 -0.000516954 0)
(0.00132671 -0.00118089 0)
(0.00240164 -0.00057576 0)
(0.00466495 -5.95181e-05 0)
(0.00245171 -0.000472266 0)
(0.00395567 -5.24417e-05 0)
(0.000637531 -0.00191178 0)
(0.000255577 -0.00234431 0)
(0.00320731 -0.000200779 0)
(0.00270358 -0.000487352 0)
(0.00355747 -3.02112e-05 0)
(0.0010997 -0.00139481 0)
(0.00318558 -0.000201576 0)
(0.00329972 -0.000334749 0)
(0.00238228 -0.000511727 0)
(0.00238633 -0.000507379 0)
(0.00436454 -0.000141519 0)
(0.00299172 -0.000428365 0)
(0.00329431 -0.000326071 0)
(0.001503 -0.00107681 0)
(0.000302283 -0.00230812 0)
(0.00374404 -3.48202e-06 0)
(0.00351018 -5.87906e-05 0)
(0.00282414 -0.000283628 0)
(0.00123755 -0.00183086 0)
(0.00459785 -7.25265e-05 0)
(0.000784777 -0.00184936 0)
(0.00228181 -0.000794809 0)
(0.00229456 -0.00077443 0)
(0.0025586 -0.000501608 0)
(0.00411163 -0.000392515 0)
(0.00307669 -0.000355759 0)
(0.00410894 -0.000167673 0)
(0.00379627 -0.000383646 0)
(0.00283535 -0.000459904 0)
(0.00414079 -0.000327093 0)
(0.00426149 -0.000271819 0)
(0.00267094 -0.000516998 0)
(0.000628005 -0.00192685 0)
(0.00389648 -5.02621e-05 0)
(0.00351561 -4.26465e-05 0)
(0.00164145 -0.000969247 0)
(0.00166425 -0.000952915 0)
(0.00351445 -4.29174e-05 0)
(0.00121949 -0.00152454 0)
(0.00363751 -3.36645e-05 0)
(0.00383031 -4.59219e-05 0)
(0.00414178 -3.24522e-05 0)
(0.00316923 -0.000261687 0)
(0.00419164 -0.000365051 0)
(0.00355023 -2.67064e-05 0)
(0.00430402 -9.19373e-06 0)
(0.00418591 -0.000400423 0)
(0.00419389 -0.000394411 0)
(0.00465073 -4.87368e-05 0)
(0.0046396 -5.16701e-05 0)
(0.00282231 -0.0004287 0)
(0.00373201 -2.47769e-06 0)
(0.00325313 -0.000523011 0)
(0.00316078 -0.000197542 0)
(0.00276993 -0.000312518 0)
(0.00345222 -0.000364059 0)
(0.00406572 -0.000283333 0)
(0.00398012 -3.70578e-05 0)
(0.00431962 -0.000365244 0)
(0.00291752 -0.000542161 0)
(0.00381896 -9.08973e-05 0)
(0.00228285 -0.000553583 0)
(0.00366989 -0.000360563 0)
(0.00321158 -0.000371846 0)
(0.00390325 -7.47878e-05 0)
(0.000279318 -0.0022409 0)
(0.00180611 -0.000843831 0)
(0.00179033 -0.000853979 0)
(0.00369414 -7.25352e-05 0)
(0.000291079 -0.0022983 0)
(0.00121701 -0.00141277 0)
(0.00266768 -0.000359806 0)
(0.00433211 -1.96571e-05 0)
(0.00268438 -0.000351402 0)
(0.00113442 -0.00146268 0)
(0.00299019 -0.000246199 0)
(0.00350363 -0.000327194 0)
(0.00261736 -0.000377886 0)
(0.00108461 -0.00158836 0)
(0.00415048 -0.000126865 0)
(0.00288176 -0.00065543 0)
(0.003964 -0.000400482 0)
(0.00396538 -0.000404739 0)
(0.00439234 -0.000380738 0)
(0.00476065 -2.95941e-06 0)
(0.00373295 -0.000465404 0)
(0.00138334 -0.00150112 0)
(0.0038754 -4.26168e-06 0)
(0.00153184 -0.00117459 0)
(0.00315339 -0.000201075 0)
(0.00382944 -0.000281652 0)
(0.0021811 -0.000633157 0)
(0.00464792 -4.10374e-05 0)
(0.00446753 -7.99116e-05 0)
(0.00292278 -0.00024704 0)
(0.00293681 -0.000241648 0)
(0.00111509 -0.00137131 0)
(0.00331074 -0.000251897 0)
(0.00316496 -0.000259772 0)
(0.00329079 -0.000162735 0)
(0.00345151 -6.75118e-05 0)
(0.00266991 -0.000457703 0)
(0.00325084 -0.00043836 0)
(0.00198203 -0.00073383 0)
(0.00385694 -0.000355555 0)
(0.0033557 -8.77524e-05 0)
(0.00335901 -8.74521e-05 0)
(0.00399901 -3.73274e-06 0)
(0.00427178 -0.000227368 0)
(0.00426121 -0.00023155 0)
(0.000213538 -0.00230777 0)
(0.00425756 -6.62804e-05 0)
(0.00374432 -0.000101731 0)
(0.00326752 -0.00052225 0)
(0.00403522 -0.000273349 0)
(0.00456378 -2.62109e-05 0)
(0.00366391 -0.000389234 0)
(0.00367264 -0.000384458 0)
(0.00105131 -0.00156291 0)
(0.00102456 -0.00158532 0)
(0.00380547 -0.000437861 0)
(0.00322253 -0.000158159 0)
(0.0045559 -0.000116676 0)
(0.00217875 -0.000720903 0)
(0.00443638 -7.19694e-05 0)
(0.0044281 -7.14847e-05 0)
(0.00355955 -1.86908e-05 0)
(0.00325822 -0.00012007 0)
(0.00363009 -0.000161601 0)
(0.00362483 -0.000158924 0)
(0.00433923 -0.000238041 0)
(0.00329046 -0.000131378 0)
(0.00234488 -0.000530026 0)
(0.0038643 -0.000109507 0)
(0.00280867 -0.000556467 0)
(0.0027906 -0.000561853 0)
(0.00332345 -0.000177833 0)
(0.00267687 -0.000460284 0)
(0.00341922 -0.00019573 0)
(0.0045131 -1.10439e-06 0)
(0.00409424 -0.000457257 0)
(0.00213978 -0.000636814 0)
(0.00192079 -0.000929811 0)
(0.00188905 -0.00079418 0)
(0.00333969 -0.000117679 0)
(0.00432313 -0.000109152 0)
(0.00366562 -0.000199593 0)
(0.00340994 -0.00015629 0)
(0.000348897 -0.00223624 0)
(0.00445256 -0.000152001 0)
(0.00444271 -0.000155558 0)
(0.00182804 -0.00155413 0)
(0.00353487 -7.34252e-05 0)
(0.00325118 -0.000510946 0)
(2.95626e-05 -0.00251718 0)
(0.00130318 -0.00127752 0)
(0.00351021 -5.22918e-05 0)
(0.00146656 -0.00122448 0)
(0.00167585 -0.00110914 0)
(0.00109446 -0.00139015 0)
(0.00305879 -0.00020346 0)
(0.0045546 -8.9065e-05 0)
(0.00372812 -0.000106496 0)
(0.00371858 -0.000106206 0)
(0.00353217 -9.07655e-05 0)
(0.00353526 -3.26428e-05 0)
(0.00340958 -0.000242268 0)
(0.00258464 -0.000445671 0)
(0.000975662 -0.00191114 0)
(0.0028594 -0.000388648 0)
(0.00233756 -0.000522844 0)
(0.0036721 -0.000159303 0)
(0.0045539 -0.000148398 0)
(0.00291147 -0.000319571 0)
(0.0011476 -0.00148023 0)
(0.00057281 -0.00201287 0)
(0.00296882 -0.000321021 0)
(0.00285916 -0.000658259 0)
(0.00407067 -0.000149768 0)
(0.00351633 -5.02377e-05 0)
(0.00266171 -0.000586385 0)
(0.0036968 -1.39841e-05 0)
(0.00198404 -0.00079782 0)
(0.00411901 -1.64839e-05 0)
(0.00179032 -0.00155487 0)
(0.00422324 -0.000116552 0)
(9.94119e-05 -0.00247817 0)
(0.00244083 -0.000581521 0)
(0.00313138 -0.000162797 0)
(0.00277923 -0.000303182 0)
(0.00325654 -0.000261478 0)
(0.00027308 -0.0022079 0)
(0.00147958 -0.00156251 0)
(0.00243049 -0.000487073 0)
(0.00445266 -0.000193643 0)
(0.00444403 -0.000198069 0)
(0.00278357 -0.000546359 0)
(0.00402707 -0.000413425 0)
(0.00284304 -0.000384672 0)
(0.00114994 -0.00149461 0)
(0.00402467 -0.000430946 0)
(0.00378819 -0.000388305 0)
(0.00465384 -4.05641e-05 0)
(0.00266639 -0.000394291 0)
(0.00237274 -0.000904903 0)
(0.00442933 -6.10755e-05 0)
(0.0030373 -0.000194676 0)
(0.00248643 -0.000584981 0)
(0.00275983 -0.000638495 0)
(0.00358687 -5.78632e-05 0)
(0.00284514 -0.000303778 0)
(0.00164157 -0.00161969 0)
(0.00123983 -0.00163899 0)
(0.00333919 -9.24693e-05 0)
(0.00332479 -9.69289e-05 0)
(0.00381989 -9.94349e-05 0)
(0.00354886 -3.61621e-05 0)
(0.00355702 -3.40708e-05 0)
(0.00246916 -0.000460483 0)
(0.00355896 -0.00024936 0)
(0.00355656 -2.01679e-05 0)
(0.000382678 -0.00223196 0)
(0.00382606 -0.000343684 0)
(0.000359012 -0.00225048 0)
(0.0045519 -6.61337e-05 0)
(0.00454525 -6.87619e-05 0)
(0.00298553 -0.000517104 0)
(0.00354481 -0.000317301 0)
(0.0016591 -0.000984388 0)
(0.00407924 -0.000196254 0)
(0.00363794 -1.99993e-05 0)
(0.00389032 -5.19008e-05 0)
(0.00467919 -2.11062e-05 0)
(0.000247668 -0.00235384 0)
(0.00412087 -0.000391401 0)
(0.00410863 -0.000244371 0)
(0.00364285 -0.000174804 0)
(0.00364999 -0.000176208 0)
(0.00413561 -0.000292378 0)
(0.00351781 -2.00875e-05 0)
(0.00439896 -0.000381327 0)
(0.00476729 -2.45198e-06 0)
(0.00176955 -0.000975681 0)
(0.00389775 -0.000157793 0)
(0.00390907 -0.000157577 0)
(0.00265992 -0.000434513 0)
(0.00317945 -0.000503357 0)
(0.00328171 -0.000109298 0)
(0.00317392 -0.000369241 0)
(0.00351287 -7.17639e-05 0)
(0.0038209 -8.66305e-05 0)
(0.00351859 -7.2054e-05 0)
(0.00110771 -0.00156982 0)
(0.00413819 -3.4143e-05 0)
(0.00395418 -3.54876e-05 0)
(0.00396243 -3.55622e-05 0)
(0.0025722 -0.000456236 0)
(0.00325548 -0.000407721 0)
(0.00201541 -0.00074889 0)
(0.00198934 -0.000763688 0)
(0.000851889 -0.00154328 0)
(0.00402695 -0.00045252 0)
(0.000273046 -0.00214487 0)
(0.00304582 -0.000271641 0)
(0.0002417 -0.00229379 0)
(0.00353697 -0.000321408 0)
(0.000231413 -0.00215371 0)
(0.00165407 -0.00102179 0)
(0.00422323 -6.97511e-05 0)
(0.00414363 -3.56521e-05 0)
(0.00292256 -0.000547726 0)
(0.00422544 -4.95394e-05 0)
(0.00351217 -4.96145e-05 0)
(0.000967415 -0.00173564 0)
(0.00403317 -8.52292e-05 0)
(0.00320566 -0.000168925 0)
(0.00424536 -7.92274e-05 0)
(0.00353404 -0.000358437 0)
(0.00374914 -1.23519e-05 0)
(0.00271673 -0.000474012 0)
(0.00215497 -0.000635982 0)
(0.00448985 -9.06559e-05 0)
(0.00447695 -9.31057e-05 0)
(0.00445006 -0.000106907 0)
(0.00281784 -0.000285731 0)
(0.00436687 -8.27083e-05 0)
(0.00353268 -3.35365e-05 0)
(0.00370588 -7.09849e-05 0)
(0.00308059 -0.000358974 0)
(0.00215791 -0.00133853 0)
(0.00346715 -0.00012061 0)
(0.00442342 -6.03184e-05 0)
(0.00350795 -8.07928e-05 0)
(0.00247723 -0.00045733 0)
(0.0026335 -0.00047413 0)
(0.000665717 -0.00196384 0)
(0.00422584 -6.13387e-05 0)
(0.00383195 -0.000277149 0)
(0.00407767 -0.000279587 0)
(0.00122489 -0.00165552 0)
(0.00351348 -5.92116e-05 0)
(0.00358122 -7.9852e-05 0)
(0.00322188 -0.00024603 0)
(0.00421359 -4.46386e-05 0)
(0.00327165 -0.000112563 0)
(0.00443802 -0.00019361 0)
(0.00412581 -0.000294189 0)
(0.00178955 -0.000856845 0)
(0.00367021 -3.17796e-05 0)
(0.00443467 -9.15221e-05 0)
(0.00444341 -8.92851e-05 0)
(0.00411856 -0.000240433 0)
(0.00474317 -1.68132e-05 0)
(0.00444081 -0.000292188 0)
(0.00365443 -0.000136317 0)
(0.00366579 -0.000134565 0)
(0.00340274 -0.000104174 0)
(0.000303797 -0.00227121 0)
(0.00440002 -0.000231048 0)
(0.00318747 -0.000227021 0)
(0.00372487 -2.40326e-06 0)
(0.00152836 -0.00151741 0)
(0.00124277 -0.00134512 0)
(0.00387336 -0.000385915 0)
(0.0040038 -0.000355093 0)
(8.1602e-05 -0.0023411 0)
(0.00417385 -0.000101776 0)
(0.00330427 -0.000124181 0)
(0.00270886 -0.000341546 0)
(0.00255263 -0.000556026 0)
(0.00415026 -0.000303494 0)
(0.00275583 -0.000312831 0)
(2.01605e-05 -0.00226815 0)
(0.000482326 -0.00214713 0)
(0.00439427 -0.000235136 0)
(0.00454619 -0.000105796 0)
(0.00453846 -0.000109224 0)
(0.000326535 -0.00222953 0)
(0.00334788 -0.000224148 0)
(0.00425935 -0.000243865 0)
(0.00297779 -0.000514338 0)
(0.00333687 -0.000429338 0)
(0.00423158 -6.99307e-05 0)
(0.00246929 -0.000463993 0)
(0.00443431 -5.13024e-05 0)
(0.00443391 -4.93806e-05 0)
(0.00137695 -0.00118688 0)
(0.00150585 -0.00123034 0)
(0.00136726 -0.00119012 0)
(0.0012571 -0.00127528 0)
(0.00316173 -0.000370804 0)
(0.0036035 -0.000186299 0)
(0.00361526 -0.000185477 0)
(0.000283463 -0.00227409 0)
(0.00285394 -0.00045664 0)
(0.000644554 -0.00198599 0)
(0.000486103 -0.00213041 0)
(0.00428764 -0.00018392 0)
(0.000476485 -0.00213699 0)
(0.00431505 -2.90767e-05 0)
(0.00432291 -2.7053e-05 0)
(0.00264925 -0.000406043 0)
(0.00127231 -0.00128744 0)
(0.00330949 -0.000232189 0)
(0.00144281 -0.00108958 0)
(0.00146729 -0.00107185 0)
(0.00299931 -0.000234663 0)
(0.00391402 -7.42063e-05 0)
(0.00195996 -0.000754177 0)
(0.00198565 -0.000739751 0)
(0.00247268 -0.000901655 0)
(0.00195404 -0.000755475 0)
(0.000941277 -0.00158688 0)
(0.00445642 -0.000133088 0)
(0.00338561 -0.000470019 0)
(0.00140834 -0.00147866 0)
(0.00272664 -0.000333887 0)
(0.00381836 -0.000314342 0)
(0.00375788 -9.60748e-05 0)
(0.00374696 -9.71743e-05 0)
(0.0027755 -0.000309204 0)
(0.000706075 -0.00204679 0)
(0.00276239 -0.000314036 0)
(0.000697799 -0.00204602 0)
(0.00459096 -4.73564e-05 0)
(0.00348761 -0.000469915 0)
(0.00262513 -0.000462883 0)
(0.00296158 -0.000233141 0)
(0.00345435 -7.8864e-05 0)
(0.00346417 -7.78398e-05 0)
(0.0039878 -1.51826e-05 0)
(0.00399648 -1.5612e-05 0)
(0.00237884 -0.000585814 0)
(0.00110662 -0.00176702 0)
(0.0015119 -0.00158096 0)
(0.00270092 -0.000488268 0)
(0.00216165 -0.000724545 0)
(0.00390587 -0.000440297 0)
(0.00313822 -0.000157645 0)
(0.00167805 -0.000968525 0)
(0.00176487 -0.00109598 0)
(0.00468587 -2.83353e-05 0)
(0.000785342 -0.001919 0)
(0.00215022 -0.00063097 0)
(0.00203576 -0.000809216 0)
(0.00354849 -0.000170601 0)
(0.0026274 -0.000479897 0)
(0.00350018 -4.75271e-05 0)
(0.00306868 -0.000229151 0)
(0.00350891 -4.51032e-05 0)
(0.000704904 -0.00197206 0)
(0.00407394 -5.3393e-05 0)
(0.00331951 -0.000228924 0)
(0.0026165 -0.000427863 0)
(0.00240201 -0.000887001 0)
(0.00396215 -2.83465e-05 0)
(0.00396243 -2.66632e-05 0)
(0.00431501 -3.89958e-05 0)
(0.00275706 -0.000315176 0)
(0.00276609 -0.000312092 0)
(0.00376195 -1.6958e-05 0)
(0.0037946 -0.000284836 0)
(0.00330468 -0.000164644 0)
(0.00406619 -0.000224451 0)
(0.00272814 -0.000529968 0)
(0.00272619 -0.000537091 0)
(0.00452216 -1.53937e-05 0)
(0.00175445 -0.00109533 0)
(0.00299264 -0.00021258 0)
(0.004168 -4.55165e-05 0)
(0.00262488 -0.00065758 0)
(0.00458738 -9.17668e-05 0)
(0.00457877 -9.41303e-05 0)
(0.000375005 -0.00224191 0)
(0.0023888 -0.00123886 0)
(0.00419297 -0.000356759 0)
(0.00418674 -0.000361867 0)
(0.00297059 -0.000228972 0)
(0.00338621 -0.000101941 0)
(0.00337598 -0.000104067 0)
(0.000746024 -0.00191337 0)
(0.00444235 -0.000109888 0)
(0.00243083 -0.000472474 0)
(0.00418509 -0.000337421 0)
(0.00332219 -9.69993e-05 0)
(0.00328525 -0.000461861 0)
(0.00443211 -0.000248797 0)
(0.00397958 -4.95729e-05 0)
(0.0036197 -9.61374e-06 0)
(0.00289077 -0.000326758 0)
(0.0043215 -5.05017e-05 0)
(0.0043169 -5.28421e-05 0)
(0.00242275 -0.000505949 0)
(0.000958003 -0.00156285 0)
(0.00463414 -2.81208e-05 0)
(0.00259725 -0.00038973 0)
(0.0035787 -2.53943e-05 0)
(0.00371613 -1.06989e-06 0)
(0.00373917 -0.000104333 0)
(0.000923115 -0.00160619 0)
(0.0036117 -6.97882e-05 0)
(0.00412312 -9.18972e-05 0)
(0.0044619 -0.000153108 0)
(0.00446428 -0.000150278 0)
(0.00310967 -0.000459068 0)
(0.00407249 -0.00037925 0)
(0.0040607 -0.000382796 0)
(0.0039955 -2.59015e-05 0)
(0.00400449 -2.5317e-05 0)
(0.00367046 -1.41564e-05 0)
(0.00415274 -0.00020979 0)
(0.00415047 -0.000212886 0)
(0.00360089 -1.19339e-05 0)
(0.00332703 -9.65638e-05 0)
(0.000148263 -0.00236662 0)
(0.00425037 -0.000134144 0)
(0.00352479 -0.000172139 0)
(0.00424583 -0.000363846 0)
(0.00395913 -0.000378405 0)
(0.00399284 -9.46403e-06 0)
(0.00108853 -0.00139912 0)
(0.00236788 -0.000516611 0)
(0.00115632 -0.00146829 0)
(0.00316812 -0.000268722 0)
(0.0037434 -0.000464592 0)
(0.00123459 -0.00139828 0)
(0.00228973 -0.000623612 0)
(0.0022712 -0.000631378 0)
(0.000191991 -0.00237735 0)
(0.00350028 -5.49992e-05 0)
(0.00010154 -0.00247831 0)
(0.0029954 -0.000246866 0)
(0.00411258 -0.000264637 0)
(0.00411626 -0.0002601 0)
(0.00298118 -0.000235506 0)
(0.00310186 -0.000278289 0)
(0.00368087 -2.34847e-05 0)
(0.00156614 -0.00100263 0)
(0.00156981 -0.00099945 0)
(0.00298582 -0.000302755 0)
(0.000856993 -0.0018795 0)
(0.00319519 -0.000235794 0)
(0.00300354 -0.000291899 0)
(0.000664169 -0.00206159 0)
(0.0044328 -0.000220845 0)
(0.00196599 -0.000746816 0)
(0.00470632 -2.5781e-05 0)
(0.00349695 -5.13821e-05 0)
(0.00228718 -0.000644415 0)
(0.00405728 -5.41837e-06 0)
(0.00136999 -0.00112956 0)
(0.0041083 -0.000125298 0)
(0.00181575 -0.000838523 0)
(0.00271909 -0.000328874 0)
(0.00329048 -0.00012305 0)
(0.00197135 -0.000843455 0)
(0.00400817 -0.000339016 0)
(0.00326342 -0.000484383 0)
(0.00194277 -0.000783915 0)
(0.00408435 -0.000393306 0)
(0.00370742 -1.92396e-05 0)
(0.00192963 -0.000790962 0)
(0.0017334 -0.000917702 0)
(0.00411557 -0.000126046 0)
(0.00379415 -0.000128379 0)
(0.00378247 -0.00012842 0)
(0.0038151 -0.000130356 0)
(0.000776552 -0.00192956 0)
(0.00454453 -0.000152197 0)
(0.00365217 -7.56613e-05 0)
(0.0036624 -7.33141e-05 0)
(0.00414278 -0.000323304 0)
(0.00389128 -4.35174e-05 0)
(0.00420223 -8.48003e-05 0)
(0.00393439 -1.83683e-05 0)
(0.00367882 -0.000271088 0)
(0.003021 -0.000200919 0)
(0.00401486 -0.000354477 0)
(0.00369591 -0.000222679 0)
(0.00386234 -0.000208304 0)
(0.00243021 -0.000532023 0)
(0.00226507 -0.000563948 0)
(0.00346949 -0.000123114 0)
(0.00328902 -0.000276833 0)
(0.00294495 -0.000553431 0)
(0.00327914 -0.00015358 0)
(0.0038493 -0.000360459 0)
(0.00428109 -2.13715e-05 0)
(0.00150619 -0.00151737 0)
(0.002679 -0.000579336 0)
(0.00365881 -0.00023913 0)
(0.00389846 -0.000383717 0)
(0.00426607 -0.000108065 0)
(0.0038888 -8.44621e-05 0)
(0.000906495 -0.00167715 0)
(0.0039008 -0.000288466 0)
(0.00133782 -0.00133524 0)
(0.00371901 -0.000125455 0)
(0.000162435 -0.00227179 0)
(0.00350319 -5.05074e-05 0)
(0.00351285 -4.83663e-05 0)
(0.0035102 -4.16697e-05 0)
(0.00387476 -3.09961e-06 0)
(0.00319946 -0.000172225 0)
(0.00136376 -0.00136553 0)
(0.00244397 -0.000466423 0)
(0.00340681 -7.45866e-05 0)
(0.00134177 -0.00137876 0)
(0.00310456 -0.00028116 0)
(0.00123904 -0.00135859 0)
(0.00414191 -0.000376103 0)
(0.00180455 -0.000853225 0)
(0.00332932 -0.000104396 0)
(0.00279201 -0.000330302 0)
(0.00332683 -0.000118087 0)
(0.0007742 -0.00183917 0)
(0.00381244 -9.32373e-05 0)
(0.00140776 -0.00116225 0)
(0.00338372 -0.000368417 0)
(0.00142372 -0.00114589 0)
(0.00449022 -4.53733e-05 0)
(0.00215914 -0.000720631 0)
(0.00200155 -0.000788754 0)
(0.00105491 -0.00137799 0)
(0.00358723 -0.000151662 0)
(0.00440391 -0.000219067 0)
(0.00327721 -0.000138594 0)
(0.000996886 -0.00164089 0)
(0.00287681 -0.000298596 0)
(0.00399986 -0.000281545 0)
(0.0014281 -0.00120762 0)
(0.000976975 -0.00165691 0)
(0.00165526 -0.00117493 0)
(0.00166645 -0.000935689 0)
(0.00301208 -0.000508432 0)
(0.00325909 -0.000489676 0)
(0.00302687 -0.000219698 0)
(0.00278327 -0.000299554 0)
(0.00367562 -0.000434106 0)
(0.00427363 -2.09743e-05 0)
(0.00429993 -0.000173702 0)
(0.00238719 -0.000606206 0)
(0.00448274 -1.07882e-05 0)
(0.00311529 -0.000303159 0)
(0.00414804 -0.00012954 0)
(0.000730726 -0.00192847 0)
(0.00420298 -0.00042038 0)
(0.00459788 -6.94355e-06 0)
(0.00422867 -5.71615e-05 0)
(0.00422542 -5.51057e-05 0)
(0.00297473 -0.000491426 0)
(0.00232264 -0.000672601 0)
(0.00100477 -0.00159213 0)
(0.00232096 -0.000663343 0)
(0.00367829 -0.000267761 0)
(0.00272968 -0.000365759 0)
(0.00354103 -3.76867e-05 0)
(0.00347861 -0.000195263 0)
(0.000518054 -0.00211405 0)
(0.00156089 -0.00150438 0)
(0.00341449 -0.000230355 0)
(0.00363314 -3.53589e-05 0)
(0.00340811 -9.92436e-05 0)
(0.00350123 -0.000212757 0)
(0.00380537 -0.000132575 0)
(0.0034344 -9.99529e-05 0)
(0.00215592 -0.000627279 0)
(0.00402141 -8.40285e-06 0)
(0.00361877 -0.000405859 0)
(0.00320655 -0.000340447 0)
(0.00347557 -8.76575e-05 0)
(0.00433027 -0.000100498 0)
(0.00411641 -0.000236926 0)
(0.00389034 -0.000430053 0)
(1.80158e-05 -0.00235352 0)
(0.00462639 -2.90582e-05 0)
(0.00337587 -0.00047453 0)
(0.000265074 -0.00223474 0)
(0.00353084 -0.000114122 0)
(0.00422748 -0.000255071 0)
(0.00350504 -4.29244e-05 0)
(0.00371675 -1.10587e-05 0)
(0.00371537 -1.02513e-05 0)
(0.00274317 -0.000321349 0)
(0.00235872 -0.00104877 0)
(0.00165521 -0.00112917 0)
(0.00126519 -0.00179217 0)
(0.00232166 -0.00105512 0)
(0.00404347 -0.000292514 0)
(0.00233944 -0.00064339 0)
(0.0039442 -5.51521e-05 0)
(0.00373133 -0.000240317 0)
(0.00449163 -0.000148681 0)
(0.00317337 -0.000147983 0)
(0.00243586 -0.000471681 0)
(0.00245811 -0.000459864 0)
(0.00352848 -3.78444e-05 0)
(0.00144096 -0.00177141 0)
(0.00370127 -1.95622e-05 0)
(0.00140151 -0.00179051 0)
(0.00446848 -0.000134473 0)
(0.000344417 -0.00227381 0)
(0.00401849 -4.52182e-05 0)
(0.00402908 -4.52979e-05 0)
(0.000495433 -0.00203271 0)
(0.000472874 -0.00205151 0)
(0.00390056 -8.66507e-05 0)
(0.00266019 -0.000357182 0)
(0.00450386 -4.20233e-05 0)
(0.00189292 -0.000788366 0)
(0.00189525 -0.000787248 0)
(0.00424492 -0.000256328 0)
(0.00366323 -0.0001967 0)
(0.00230285 -0.000805072 0)
(0.00246717 -0.000454535 0)
(0.00406609 -0.000354742 0)
(0.00407741 -0.000353717 0)
(0.000694064 -0.00176493 0)
(0.00386356 -7.24238e-06 0)
(0.00434441 -7.35426e-05 0)
(0.000669092 -0.00178034 0)
(0.00339466 -7.84314e-05 0)
(0.00308267 -0.000504812 0)
(0.00350964 -4.12716e-05 0)
(0.00126172 -0.00181229 0)
(0.00375713 -0.000304517 0)
(0.00390359 -8.83444e-05 0)
(0.00371994 -0.000122704 0)
(0.00359437 -5.77342e-05 0)
(0.00306456 -0.000431532 0)
(0.00234099 -0.000536815 0)
(0.00269258 -0.00036221 0)
(0.00236084 -0.000525447 0)
(0.00420243 -0.000363371 0)
(0.00340528 -9.866e-05 0)
(0.000892783 -0.00164791 0)
(0.00304638 -0.000195577 0)
(0.00264212 -0.000705943 0)
(0.00387686 -8.24322e-05 0)
(0.00342417 -0.000415329 0)