/*--------------------------------*- C++ -*----------------------------------*\
| =========                 |                                                 |
| \\      /  F ield         | OpenFOAM: The Open Source CFD Toolbox           |
|  \\    /   O peration     | Version:  v2012                                 |
|   \\  /    A nd           | Website:  www.openfoam.com                      |
|    \\/     M anipulation  |                                                 |
\*---------------------------------------------------------------------------*/
FoamFile
{
    version     2.0;
    format      ascii;
    class       volScalarField;
    location    "9";
    object      epsilonEq;
}
// * * * * * * * * * * * * * * * * * * * * * * * * * * * * * * * * * * * * * //

dimensions      [0 0 0 0 0 0 0];


internalField   nonuniform List<scalar> 
30465
(
0.00170467
0.00119558
0.00247977
0.00156556
0.00143019
0.00142002
0.00242229
0.00211339
0.00263437
0.00232746
0.00169414
0.00237831
0.00162551
0.00129334
0.00216503
0.00247202
0.00143742
0.00232557
0.0026544
0.0012991
0.000797491
0.000800397
0.00122761
0.00245956
0.00124577
0.00118254
0.00118699
0.0011701
0.00106917
0.00252592
0.00183125
0.00107973
0.00167803
0.0014934
0.00179896
0.00105818
0.00258468
0.000801383
0.00144658
0.00240419
0.00109576
0.00208589
0.00243286
0.00115823
0.00115675
0.00273047
0.00221686
0.00119217
0.00115235
0.000970892
0.000989486
0.00150574
0.00195252
0.0019552
0.00422975
0.00133309
0.0037182
0.00128887
0.00108676
0.000990726
0.000987343
0.00242361
0.000804636
0.00180904
0.00179586
0.00169936
0.0019374
0.00284492
0.000589
0.00133679
0.00135337
0.0012042
0.00256658
0.00223647
0.00168211
0.00244649
0.000995899
0.000993458
0.00126993
0.0018173
0.00231569
0.00229741
0.00144083
0.00120306
0.00154819
0.00115275
0.00109467
0.00241624
0.0014014
0.000955945
0.00106222
0.00105786
0.00143328
0.00142876
0.00234604
0.00104872
0.00111683
0.00111387
0.00204401
0.00108018
0.00151834
0.00085491
0.000869052
0.0018495
0.00125563
0.00210498
0.00210497
0.00120335
0.00135862
0.000891189
0.0025338
0.00157188
0.0018551
0.00184461
0.00172006
0.00169838
0.000450556
0.00121114
0.00100089
0.00521838
0.00244482
0.00105889
0.00142787
0.000672412
0.00115778
0.00114927
0.000601375
0.00175369
0.00129058
0.000934921
0.00291648
0.000994845
0.0025425
0.00230023
0.00125944
0.000692001
0.00248106
0.00120762
0.00266522
0.00247121
0.0014322
0.00202234
0.000448894
0.00111363
0.000975409
0.00247325
0.00104658
0.00104528
0.00195487
0.000943037
0.00132219
0.00201608
0.00111683
0.0011173
0.00151671
0.001363
0.00202396
0.00144292
0.00222927
0.00111064
0.00110825
0.00226066
0.00201682
0.00203422
0.000478796
0.000990093
0.00110742
0.00268397
0.00123085
0.002166
0.00158158
0.00101297
0.00106546
0.00106295
0.00121464
0.0021964
0.00173987
0.00175113
0.000445196
0.00193679
0.00237534
0.0017731
0.00177864
0.00135631
0.00128699
0.00154359
0.00227571
0.0012967
0.000996046
0.00142107
0.00242925
0.00118693
0.000980312
0.00197555
0.0014458
0.00145059
0.00241841
0.00143841
0.00139205
0.00171254
0.00100839
0.0010764
0.000966901
0.00246547
0.0017275
0.00141837
0.000810139
0.00260545
0.00182555
0.00106598
0.00244806
0.00139408
0.000525018
0.00113942
0.00270538
0.00203059
0.00204277
0.00120326
0.00119725
0.00240265
0.00168974
0.00162586
0.00110576
0.00126302
0.00192323
0.00107886
0.00242678
0.00205009
0.000949575
0.00153978
0.00244516
0.00108585
0.00108607
0.00127297
0.0012763
0.000567511
0.00171197
0.00169563
0.00239283
0.0023902
0.00222673
0.00152494
0.00152951
0.0016818
0.00117519
0.00219055
0.00181344
0.00164872
0.00282044
0.0012771
0.00141561
0.000873061
0.00085905
0.00242653
0.00171657
0.00287124
0.00204239
0.00208171
0.00197064
0.00244634
0.0012023
0.00139526
0.00142956
0.000747911
0.00252494
0.00251987
0.00140768
0.00220797
0.00169195
0.00136856
0.000989275
0.00132422
0.00107956
0.00142887
0.00120981
0.00206267
0.00104533
0.00148659
0.00261683
0.000766267
0.00264448
0.00162667
0.00110776
0.00135186
0.0010673
0.00132576
0.0020152
0.00120343
0.000938514
0.0013211
0.00173197
0.00161981
0.00142377
0.00226127
0.00100191
0.001259
0.000995325
0.000547452
0.000552457
0.00102415
0.0016062
0.00160272
0.00256719
0.000915088
0.000884818
0.00225222
0.00225522
0.00101542
0.00121214
0.000358009
0.00161908
0.00162711
0.00218926
0.00125478
0.00266631
0.00168464
0.00240441
0.00245236
0.00217196
0.00347996
0.00207281
0.00375914
0.00221059
0.000754462
0.00124787
0.00123281
0.00258771
0.00193824
0.00141464
0.00254949
0.000366271
0.00235494
0.000805712
0.00208369
0.00108127
0.00214392
0.00109937
0.00113608
0.00112618
0.00207695
0.00198748
0.00151827
0.00252422
0.00109963
0.00135159
0.00206167
0.00207812
0.00243766
0.002092
0.00104212
0.00201933
0.000953401
0.00215891
0.00206553
0.00156688
0.00201913
0.00068986
0.00237524
0.00126474
0.00117308
0.00209655
0.00207388
0.001159
0.00126571
0.0010869
0.00238386
0.0018334
0.000554636
0.00103429
0.00177644
0.00556158
0.00105323
0.0025582
0.00204896
0.00204378
0.00206502
0.0013533
0.00177084
0.00122828
0.00146158
0.00157368
0.00133609
0.00128749
0.00206736
0.00215143
0.000940007
0.000612663
0.00235033
0.00235422
0.00063463
0.00269076
0.000816956
0.000907099
0.000936473
0.00165031
0.0013333
0.000534743
0.000963424
0.00133907
0.00133503
0.0010085
0.00101632
0.00164033
0.000538886
0.00176901
0.00157738
0.00182808
0.00160607
0.00133825
0.000891168
0.00132362
0.00199407
0.00111752
0.00211253
0.00151501
0.00102931
0.00104312
0.00403954
0.00233506
0.00235073
0.00106862
0.00238873
0.00254589
0.00189343
0.000977725
0.00189622
0.00248535
0.00169726
0.00156772
0.00192054
0.00266458
0.00116034
0.000921642
0.00140255
0.00139852
0.00132525
0.000909314
0.0014843
0.0025588
0.000703458
0.00254063
0.00135137
0.00141524
0.00219272
0.000997799
0.00107088
0.00170565
0.00170385
0.00238656
0.00101979
0.00165475
0.00147507
0.001089
0.00185096
0.0017397
0.0022723
0.00143462
0.00119061
0.00118108
0.000806229
0.00125409
0.00126138
0.00278074
0.00103922
0.00116755
0.00177299
0.00134148
0.000995344
0.00152545
0.00151752
0.00252798
0.00251884
0.00145958
0.00148448
0.00113519
0.00241264
0.001059
0.00105879
0.000439493
0.00134355
0.00134768
0.00134749
0.00125778
0.00139185
0.00210452
0.00116269
0.00206116
0.00206515
0.00148694
0.00186112
0.00117985
0.000990822
0.00133378
0.00218171
0.00238673
0.0023318
0.00133785
0.00111818
0.00139189
0.00141422
0.00278703
0.00116995
0.00117474
0.00249941
0.00111753
0.00176689
0.00116602
0.00242752
0.000982366
0.00254715
0.00251325
0.00238396
0.00160753
0.00108324
0.00118561
0.00119054
0.00119839
0.000515788
0.00178045
0.00198718
0.00298893
0.00187705
0.00208251
0.001332
0.00120258
0.0016321
0.00254925
0.00215301
0.00151266
0.00101759
0.00121189
0.000952029
0.00214757
0.000613627
0.00233438
0.00089465
0.00249526
0.00113541
0.00136694
0.00206849
0.00150948
0.00181148
0.00162261
0.004898
0.00250822
0.00206513
0.00122663
0.00123116
0.00206176
0.00137648
0.00187503
0.00259013
0.00137168
0.00147078
0.000996093
0.00190389
0.00162765
0.00104248
0.00159379
0.00197984
0.00132634
0.00102124
0.00174963
0.00262069
0.00268126
0.00120543
0.0012352
0.00114308
0.000800237
0.000780279
0.00203081
0.00149343
0.000459954
0.00246048
0.0014421
0.00244637
0.00104624
0.0010474
0.00192367
0.00154504
0.00237158
0.00126852
0.000646685
0.000941579
0.000966271
0.00163844
0.00135392
0.00130254
0.00136941
0.00136437
0.00132484
0.00103388
0.00132456
0.000908058
0.00245356
0.00125949
0.00125754
0.00197012
0.00181087
0.00126537
0.00174233
0.00111615
0.00110128
0.00111073
0.00265778
0.000935635
0.000880578
0.000877533
0.00200237
0.00172569
0.00238587
0.00239468
0.00239245
0.00136187
0.00593674
0.00170952
0.00277307
0.0015541
0.00600221
0.00242683
0.00104413
0.000946193
0.00199018
0.000997709
0.000955846
0.00274433
0.00107227
0.00150688
0.00106471
0.00157192
0.000633502
0.00200263
0.0021803
0.00108309
0.00109122
0.00111051
0.00179313
0.00107484
0.000582179
0.00106388
0.00176602
0.00171139
0.00100975
0.00104118
0.00115524
0.00203489
0.00201407
0.00248256
0.00102573
0.00141048
0.00133153
0.00265565
0.00102827
0.00113255
0.00161443
0.000985919
0.00128503
0.00122434
0.00132421
0.00238702
0.000806686
0.00108683
0.00108468
0.00129613
0.000933521
0.00132282
0.0012853
0.00128288
0.00127921
0.00266644
0.00125833
0.00125704
0.000541487
0.00245202
0.00245464
0.00143222
0.00138202
0.00289611
0.00110851
0.00137517
0.00186219
0.00213677
0.00132553
0.00183893
0.00470424
0.00281869
0.00126231
0.00111029
0.0011146
0.0016614
0.00154686
0.00126684
0.00193528
0.00168824
0.00103965
0.00202488
0.0010307
0.00102544
0.00239699
0.00256668
0.00239688
0.00239757
0.00174029
0.00139684
0.00139524
0.00276849
0.00150373
0.00247925
0.0022157
0.00121485
0.00215246
0.000980691
0.000986034
0.00194284
0.00240785
0.00103842
0.00244912
0.00245836
0.00167185
0.00103988
0.00230258
0.00230768
0.00141051
0.00225608
0.00233464
0.00114488
0.00167579
0.00256822
0.00186016
0.00143346
0.00114762
0.00115093
0.00180953
0.00323497
0.00183673
0.00307003
0.0010129
0.001615
0.00192602
0.00168891
0.00116421
0.00114787
0.000818299
0.000816417
0.00213182
0.00279242
0.00250125
0.00175351
0.00243155
0.00141818
0.00147061
0.00237577
0.00244016
0.000968063
0.00286555
0.00216966
0.00231816
0.00139162
0.00203015
0.000897968
0.00148101
0.000876997
0.00285264
0.000973093
0.000991416
0.00197191
0.0016058
0.000851343
0.000838881
0.000998952
0.001838
0.00182017
0.000677289
0.00142844
0.00147038
0.00129909
0.00205402
0.00206867
0.000994807
0.00244422
0.00163089
0.000977273
0.00158488
0.00109146
0.00109513
0.002039
0.00130264
0.00133257
0.00133674
0.00166876
0.00128028
0.00128148
0.00271668
0.00111302
0.00203282
0.0013276
0.00122593
0.00159139
0.00128457
0.000938768
0.000459186
0.00181328
0.00101924
0.00101872
0.00206657
0.00233499
0.000981892
0.00193951
0.000657137
0.000516801
0.00118042
0.0023369
0.00107779
0.00108975
0.00117259
0.00117074
0.000994579
0.00136606
0.00136984
0.000855224
0.000853912
0.000591891
0.00126524
0.00126737
0.00044957
0.00123325
0.00221769
0.00116241
0.00140207
0.00132818
0.00140131
0.000808671
0.00238344
0.00210369
0.00255253
0.00121671
0.0014863
0.00253983
0.00216693
0.00220141
0.00203183
0.000634854
0.00138543
0.00168862
0.00131509
0.00130964
0.00168363
0.00169732
0.000708713
0.00243232
0.00243559
0.00151743
0.00285362
0.00160983
0.00152857
0.00312851
0.00125565
0.00224881
0.00096158
0.000693988
0.00216923
0.000843588
0.00263163
0.00116341
0.0023062
0.00185728
0.00118232
0.00235612
0.00137842
0.00175024
0.00228844
0.00136253
0.000671108
0.00229644
0.00259113
0.00115993
0.0012251
0.00122861
0.0012271
0.00288691
0.00120265
0.00109375
0.00108526
0.00133499
0.000905137
0.00107558
0.000795939
0.00146299
0.00159651
0.0013813
0.00141003
0.00134078
0.00210145
0.00211852
0.00124389
0.00162583
0.00197811
0.00115352
0.00144163
0.000961993
0.00246939
0.00214044
0.00144262
0.00142733
0.00111827
0.00107659
0.0024282
0.00139586
0.00258317
0.00124458
0.00425561
0.000936439
0.000937875
0.000706192
0.00069731
0.00152409
0.00261276
0.00202231
0.000988446
0.00262552
0.0016892
0.00247271
0.00134822
0.00243624
0.00113488
0.00183492
0.00109846
0.00245466
0.00112134
0.00240252
0.00164536
0.00238791
0.00102146
0.00242066
0.00231647
0.00247813
0.0013477
0.00124904
0.00118425
0.00259319
0.00178327
0.00135598
0.00248233
0.00258781
0.00249345
0.00245685
0.00190712
0.00176101
0.00155038
0.00182439
0.00152207
0.000963144
0.00120378
0.00209165
0.000990739
0.00171505
0.00116483
0.00269072
0.00132675
0.000982575
0.00101768
0.0010074
0.001908
0.00214066
0.00248383
0.00212196
0.0014614
0.00185308
0.000809955
0.00145642
0.00243815
0.00237823
0.00161181
0.000837055
0.00126037
0.00147443
0.00123004
0.00125731
0.00217331
0.000825089
0.00154418
0.00170803
0.000777277
0.00110289
0.00129432
0.00142191
0.00270147
0.000987784
0.00168811
0.00147522
0.00127662
0.00128281
0.000794083
0.000597559
0.000574262
0.00184314
0.00135304
0.00249311
0.00292076
0.00149282
0.00134681
0.00228802
0.000961821
0.00141878
0.00117256
0.00139502
0.00203962
0.00202597
0.000568436
0.00323465
0.000681142
0.0038175
0.00114588
0.00202198
0.000937603
0.000935147
0.00194193
0.00188613
0.00108427
0.00189135
0.00101976
0.00230102
0.00229591
0.00128118
0.00139583
0.00200348
0.00201875
0.00136211
0.00136139
0.00216841
0.000698427
0.00106062
0.00213529
0.00100216
0.00100639
0.000743636
0.0063589
0.00145364
0.00109258
0.00123308
0.00101039
0.00110965
0.00210604
0.00188895
0.00209529
0.00133467
0.00126386
0.00233016
0.00156298
0.00141722
0.00107064
0.0016401
0.000748404
0.000989449
0.0013303
0.00240706
0.00111042
0.00256659
0.00197514
0.00246929
0.00110411
0.00109607
0.00130954
0.000553888
0.00135675
0.00135201
0.000564558
0.00278325
0.000966191
0.00120557
0.00228414
0.00160123
0.00160755
0.000979785
0.00182185
0.00253222
0.00251586
0.00134964
0.00181826
0.0012234
0.00128675
0.00233173
0.00139465
0.000837749
0.00084903
0.00232224
0.00200385
0.00219196
0.001206
0.00126481
0.00202499
0.00115477
0.00212724
0.00123322
0.00144071
0.00247578
0.000969038
0.000368372
0.000961737
0.00162591
0.00121864
0.00122875
0.00087439
0.000866829
0.000985257
0.00098867
0.00195804
0.00149281
0.00124755
0.00104059
0.000922822
0.00132819
0.00181365
0.000789075
0.00195909
0.00163904
0.00213759
0.000742694
0.00173599
0.00134489
0.000630256
0.000641829
0.00242214
0.00137835
0.00143011
0.00218684
0.000994661
0.000993925
0.00174591
0.0016733
0.00173825
0.00196961
0.00143955
0.000778242
0.00281781
0.000752333
0.00168637
0.00224598
0.00202963
0.00170014
0.00207001
0.00118318
0.00118666
0.000581303
0.000833892
0.00100983
0.00100437
0.00067702
0.000852081
0.00136408
0.00106964
0.000918192
0.00170054
0.00103627
0.00240269
0.00162733
0.0024022
0.00151951
0.00104023
0.000996802
0.000990429
0.00224935
0.00163179
0.000526013
0.000997818
0.00168028
0.0020733
0.00131746
0.00131392
0.00121543
0.00169258
0.00152029
0.00280632
0.00158308
0.00193012
0.00186258
0.00108317
0.00167346
0.00125878
0.00213498
0.00124817
0.00119532
0.00106907
0.0012982
0.000566417
0.00171216
0.00197014
0.00258759
0.000642933
0.001009
0.00124009
0.00239165
0.00156363
0.0015608
0.00145347
0.00153414
0.000989638
0.000996043
0.00120606
0.00153181
0.00199797
0.00194334
0.00110737
0.00202837
0.00141675
0.00142148
0.00273499
0.00097828
0.00132678
0.000733829
0.00225512
0.00153081
0.00153886
0.000972836
0.00244018
0.00218495
0.00116129
0.000698341
0.00250329
0.00124868
0.00132989
0.00099466
0.000991815
0.00197038
0.00101491
0.00198679
0.00140209
0.00140486
0.00257237
0.0018737
0.000991462
0.00850869
0.00199065
0.00095083
0.00131769
0.00126629
0.00114442
0.00350522
0.00137049
0.0028326
0.00116478
0.00169233
0.00127827
0.00116846
0.00115609
0.00155786
0.000888828
0.00266611
0.00194591
0.00196321
0.00182654
0.00120546
0.00143299
0.00146189
0.0013385
0.00207895
0.00185899
0.000929283
0.000926132
0.00135711
0.00135994
0.000865905
0.00142448
0.00202225
0.00194184
0.000921362
0.00132535
0.00177805
0.000939334
0.00131965
0.00233128
0.00140321
0.00128393
0.00145262
0.00115733
0.00104617
0.00125561
0.0014655
0.00158795
0.00133979
0.00133385
0.00243076
0.000989232
0.000995932
0.0021237
0.000519079
0.0028779
0.00146612
0.00151629
0.00216351
0.00142273
0.0021856
0.000800659
0.00121351
0.00204413
0.00274833
0.00262502
0.00114833
0.00169705
0.000786808
0.00215403
0.0024575
0.00114299
0.000957856
0.00261417
0.00103183
0.00204508
0.000965445
0.00299546
0.000535014
0.00101473
0.000516669
0.000858712
0.00083725
0.00253112
0.00243176
0.000981508
0.00293417
0.000425976
0.00117116
0.00418941
0.000359606
0.000991295
0.000869025
0.00143651
0.00112407
0.00135849
0.00135097
0.00133453
0.00141161
0.00131751
0.00130593
0.000574263
0.00146469
0.00193091
0.00116814
0.00141453
0.0021557
0.00143573
0.00143598
0.00170104
0.00102347
0.00220324
0.00106505
0.00240737
0.00098367
0.000977872
0.000951436
0.00144004
0.000467943
0.00241906
0.000984184
0.00095845
0.000835812
0.00248427
0.000948685
0.00129765
0.000608415
0.000550423
0.00106808
0.00181699
0.000937833
0.00216029
0.000930046
0.00129448
0.00218347
0.00219587
0.000613469
0.0024385
0.000699336
0.000996907
0.001357
0.00136182
0.00132327
0.00203029
0.00109038
0.0010881
0.00238064
0.00125917
0.00215422
0.00068512
0.0012087
0.000781849
0.000620024
0.00239326
0.00239082
0.00101516
0.00101615
0.001369
0.00167833
0.00122318
0.00101151
0.00132686
0.00168204
0.00133202
0.00217982
0.00133111
0.00119717
0.00151464
0.00215797
0.00101269
0.000839504
0.00153881
0.00123245
0.00111734
0.00106683
0.00115118
0.00106039
0.00227694
0.00152387
0.00118164
0.00100474
0.00202597
0.0024949
0.00284089
0.00130792
0.00264486
0.00198103
0.00119436
0.00231077
0.000606997
0.00237746
0.00078038
0.00198558
0.000594631
0.00103967
0.00126776
0.00105787
0.00105633
0.00175562
0.00149704
0.00144457
0.00143298
0.00242086
0.00153176
0.000975274
0.0019774
0.00195728
0.00224865
0.00132334
0.00125041
0.00249084
0.000975051
0.0017935
0.00251332
0.00102824
0.00180487
0.00194587
0.00099035
0.000718032
0.00123192
0.00165192
0.00133385
0.00196112
0.00198088
0.00086451
0.00110528
0.00134741
0.00220274
0.00223812
0.00103088
0.00116122
0.00120341
0.00167057
0.00228475
0.00237961
0.000614578
0.00164146
0.00153587
0.00145329
0.0012168
0.00110163
0.00195989
0.00154206
0.00113508
0.00120789
0.00232283
0.00173672
0.0012915
0.00164431
0.00101234
0.00153241
0.00198247
0.00100934
0.00233671
0.00132592
0.00176489
0.00103417
0.00228933
0.00166861
0.00167602
0.00101956
0.0016245
0.00149383
0.00244511
0.00123157
0.00123091
0.000946883
0.000969788
0.000857408
0.00235658
0.00171046
0.00148089
0.0014767
0.00154986
0.00154158
0.00271167
0.00120184
0.00101185
0.00143478
0.00144856
0.00157717
0.000875898
0.00162544
0.00110657
0.000440008
0.000737178
0.0025427
0.00100276
0.00151376
0.00143037
0.00199014
0.00238641
0.0016007
0.00125909
0.00198971
0.00197224
0.000998997
0.00133712
0.00131431
0.00136028
0.0021804
0.00217702
0.00120767
0.000589021
0.00131207
0.00219906
0.0025782
0.00261148
0.00100514
0.000951276
0.00191377
0.00231551
0.00184083
0.00143276
0.00162369
0.000864011
0.00152914
0.000955426
0.000956304
0.00147204
0.0014544
0.00178947
0.00116484
0.00204614
0.00278211
0.00127393
0.00200492
0.00132946
0.00170721
0.00107306
0.000675926
0.00287848
0.00296086
0.000670689
0.0016547
0.00107794
0.00131007
0.0012994
0.00211412
0.0017317
0.00136351
0.00110286
0.00125867
0.00282555
0.00104354
0.00127841
0.00120697
0.00208812
0.0012351
0.000943931
0.000836856
0.00244602
0.00280383
0.00259335
0.00187364
0.00115775
0.0022369
0.00217216
0.000526074
0.000711615
0.00105349
0.00112892
0.00212708
0.000667326
0.00106193
0.00182489
0.0018128
0.00208126
0.00197112
0.00158316
0.00166894
0.00149928
0.00098076
0.00216312
0.000970732
0.00127609
0.00096407
0.00141829
0.00110315
0.00133659
0.00174702
0.00115758
0.00136791
0.00144265
0.00127394
0.00127548
0.00128271
0.00128476
0.000976511
0.00102567
0.00130695
0.00241612
0.0020636
0.000531469
0.00106388
0.00235931
0.00160576
0.00176564
0.00148163
0.00215552
0.00126245
0.00126102
0.00183724
0.00104351
0.00134023
0.000823537
0.0022073
0.00142308
0.000988874
0.00176891
0.00220673
0.000434066
0.00224636
0.00107379
0.00202319
0.00178925
0.00133919
0.00163673
0.00113592
0.00132737
0.00110424
0.000812019
0.00169046
0.00125426
0.00259947
0.0018785
0.00235116
0.00217208
0.00217868
0.00124567
0.00292351
0.00143895
0.00250091
0.00103888
0.00243957
0.00106692
0.00218873
0.0010739
0.00141871
0.00170937
0.0011751
0.000998296
0.0011695
0.0011917
0.00198516
0.000461343
0.00148152
0.00250256
0.000960955
0.00101205
0.00176503
0.00178036
0.000694051
0.00124911
0.00189088
0.00177457
0.00100136
0.00134829
0.00241296
0.00270027
0.00233095
0.00425163
0.000960129
0.00134974
0.00209225
0.00209522
0.00252084
0.00114111
0.00117147
0.00116264
0.00247421
0.00124376
0.00206035
0.00149277
0.00148477
0.00157958
0.00204649
0.00183055
0.00152831
0.00107548
0.00227024
0.000449191
0.00244354
0.00142639
0.000866113
0.00172824
0.00219745
0.000858632
0.000967635
0.00245964
0.00142055
0.00164266
0.00129323
0.0012948
0.00152691
0.00134271
0.00100133
0.00100035
0.00202431
0.00113245
0.00164088
0.00264046
0.00103891
0.00181805
0.00184812
0.00197597
0.00134168
0.000993365
0.00167708
0.00236528
0.00106091
0.00623771
0.00222338
0.0061173
0.00126401
0.00236387
0.00208666
0.00208735
0.0020248
0.002009
0.00152662
0.00142686
0.00124035
0.0015973
0.000738894
0.00105825
0.00162183
0.00232491
0.00103946
0.00104593
0.00129712
0.00193932
0.00250442
0.000563289
0.000554678
0.000880162
0.000885342
0.00216187
0.00232076
0.00153924
0.00178473
0.000752727
0.00192483
0.00227091
0.00204951
0.00122528
0.00143654
0.00270541
0.00207732
0.00120116
0.000970907
0.00132518
0.000929032
0.000682828
0.00220918
0.00104405
0.00126674
0.000996585
0.00148108
0.00195581
0.00230596
0.00109374
0.000583914
0.000866318
0.000743719
0.00119652
0.000976133
0.00249532
0.00165943
0.00102962
0.00103314
0.000597641
0.000996962
0.00132829
0.000769591
0.000583888
0.00161721
0.00127496
0.00228633
0.00265459
0.000988867
0.000983144
0.00252858
0.00225722
0.00113421
0.00136104
0.00234539
0.00200524
0.00296128
0.00130057
0.000891963
0.00213834
0.00200365
0.000980051
0.00227195
0.00160439
0.00114779
0.00246387
0.00117593
0.00135083
0.000413953
0.00115578
0.000664746
0.00136452
0.00129847
0.00106776
0.00150104
0.00230151
0.00174874
0.00105394
0.0016476
0.0023316
0.00187299
0.0023355
0.00126168
0.00188806
0.00124785
0.0011624
0.00140856
0.00213371
0.00174255
0.00126687
0.00147478
0.0010629
0.00179611
0.00153502
0.00237852
0.0014767
0.00147784
0.00157635
0.00159161
0.000884671
0.000886256
0.00173836
0.0010475
0.000994063
0.000990848
0.00122613
0.000809289
0.0008086
0.00115904
0.00210279
0.00210446
0.00100294
0.00160532
0.00193614
0.00146514
0.0006087
0.000870386
0.00165888
0.00173249
0.000438323
0.00130445
0.00240717
0.00218509
0.00181591
0.000448647
0.00101012
0.00127007
0.00173223
0.00154933
0.00154869
0.00187442
0.00134786
0.00167857
0.00106101
0.00248308
0.00152424
0.0010602
0.00226948
0.0022899
0.00141406
0.0015878
0.000937815
0.000943633
0.000854757
0.00242092
0.00258659
0.00161523
0.00282471
0.00180627
0.00205055
0.000997311
0.00195559
0.0007182
0.00115001
0.00114139
0.00146792
0.00179292
0.00223375
0.00343399
0.000439259
0.00114391
0.00168848
0.00150651
0.00100413
0.00207186
0.000754735
0.00130588
0.0013078
0.00143603
0.000961557
0.00188868
0.0012282
0.00204806
0.00203308
0.00126026
0.00256085
0.0024904
0.00234424
0.00243078
0.000986327
0.00107035
0.00124495
0.00167791
0.00272801
0.000948345
0.00244965
0.000845976
0.000969734
0.00131677
0.00101139
0.00289079
0.000602285
0.000724361
0.000497861
0.00108074
0.0014336
0.00205399
0.00110756
0.00115238
0.00115418
0.00120187
0.00161488
0.000854059
0.00104429
0.00234884
0.00199347
0.00158478
0.00271998
0.00208663
0.00203765
0.000985256
0.00234833
0.0014984
0.00132136
0.000963136
0.00161181
0.00141915
0.00157265
0.000583829
0.00698336
0.00104698
0.00215567
0.00118403
0.00156888
0.00188488
0.00187324
0.00155999
0.00210406
0.00132781
0.00104683
0.000983678
0.00138106
0.000797153
0.00147719
0.0013476
0.00200233
0.000813548
0.00113066
0.00112928
0.000486351
0.0013203
0.000966812
0.00161887
0.00244798
0.000892413
0.00164624
0.00276015
0.00226617
0.000953571
0.00143622
0.000906599
0.00116708
0.0019264
0.00240241
0.00165139
0.00239187
0.00142835
0.00117538
0.00117851
0.0019827
0.00201035
0.00188087
0.00104293
0.00109521
0.00109207
0.0028736
0.00110063
0.00292008
0.000600751
0.00127167
0.00134297
0.00243548
0.00243219
0.00224936
0.00160878
0.00106962
0.00205843
0.0023477
0.00129194
0.00129338
0.0019032
0.000984026
0.00133585
0.0017133
0.00132668
0.000926555
0.00210703
0.00135584
0.00157553
0.000426764
0.00160896
0.00270292
0.000947302
0.0009421
0.00123066
0.00115781
0.00117859
0.000918538
0.00071594
0.000506381
0.00258533
0.00218046
0.00216276
0.00129905
0.00728702
0.00119377
0.00204588
0.00104082
0.00178571
0.00225006
0.00201675
0.00201699
0.00112788
0.00223638
0.00134493
0.00133963
0.00257522
0.00254455
0.00215382
0.00226937
0.00117047
0.00169706
0.00233927
0.00263243
0.00117012
0.00117235
0.00189588
0.00105071
0.00139973
0.0014021
0.00878215
0.00106158
0.000536113
0.00176972
0.00122752
0.00124468
0.000827903
0.000837447
0.000594828
0.00101654
0.00221476
0.0013775
0.00136439
0.00261784
0.00131925
0.00249666
0.000822376
0.000904841
0.00705321
0.00182535
0.00136423
0.000809574
0.00211572
0.00160473
0.000801392
0.00100234
0.001102
0.00131513
0.00130993
0.00235294
0.00167828
0.00242309
0.00102077
0.000868819
0.0015997
0.00120561
0.00130132
0.00498951
0.00133349
0.00253643
0.00442747
0.00141083
0.00163518
0.00132718
0.00253405
0.000692652
0.00231522
0.00164385
0.0024117
0.00229401
0.00133217
0.00109664
0.00102584
0.0021168
0.00212613
0.000870438
0.00101191
0.00210844
0.00186434
0.00233126
0.00144669
0.0018706
0.0015684
0.00243082
0.0015017
0.000919524
0.00156241
0.00223117
0.00170758
0.00209167
0.00117284
0.0019794
0.0019528
0.000686658
0.00162016
0.00201259
0.00131693
0.00248083
0.000843245
0.00299712
0.00150772
0.00144051
0.000900489
0.00218406
0.00244534
0.000846782
0.00113105
0.00113688
0.00352158
0.00102592
0.00101332
0.00181298
0.0015955
0.00155103
0.00139354
0.00241106
0.00240655
0.0014314
0.00234392
0.00241086
0.00118875
0.00235223
0.000773835
0.00112262
0.00267615
0.00199995
0.00197027
0.0025883
0.00236286
0.00210564
0.00211333
0.00128866
0.00105546
0.000938567
0.00235758
0.00112617
0.00162698
0.00220601
0.00220501
0.000959949
0.00152557
0.00100213
0.00150973
0.00152163
0.0023727
0.00237482
0.00237821
0.00235341
0.00152001
0.00243701
0.00100523
0.00205978
0.00036174
0.00102386
0.000742481
0.00175422
0.00123364
0.00122831
0.00273127
0.00130527
0.0010547
0.00227629
0.00107712
0.00140289
0.00100821
0.00131516
0.00110603
0.00154225
0.00153774
0.00155063
0.00237583
0.00168572
0.000900151
0.00131484
0.00213043
0.00109129
0.00155856
0.000720804
0.00145471
0.00144209
0.00145571
0.00275674
0.00174392
0.002748
0.00167288
0.00183008
0.00200519
0.000531202
0.00151206
0.0020545
0.00211291
0.00251532
0.00096536
0.000977087
0.00136111
0.00165038
0.00035798
0.00100407
0.00122286
0.00101074
0.000905596
0.000911431
0.00114481
0.00162271
0.00082728
0.00122222
0.00176143
0.00154224
0.00110057
0.00267324
0.00265447
0.00127729
0.00105432
0.000920477
0.00113461
0.000792267
0.00247701
0.00196806
0.00171097
0.000993609
0.00235425
0.00127626
0.00095144
0.00199677
0.0011415
0.00100178
0.000998249
0.000967493
0.0015438
0.00084326
0.00136618
0.000822433
0.000785689
0.00120967
0.000689645
0.0010085
0.00172313
0.00102712
0.00146366
0.00149152
0.00149423
0.00131539
0.00149263
0.00148474
0.00119366
0.00243002
0.00197455
0.00095911
0.00180011
0.000869084
0.00260475
0.00262044
0.000992485
0.000989272
0.00168715
0.000987242
0.00111644
0.00225092
0.00260601
0.00147864
0.0010107
0.000913713
0.000922093
0.00233235
0.00181424
0.00107377
0.000952512
0.00149784
0.00073288
0.000988798
0.00151353
0.00743523
0.0017425
0.0013384
0.00132542
0.00128564
0.00157076
0.00156623
0.000975349
0.000781178
0.000788262
0.0010084
0.00101221
0.00133356
0.000966765
0.000961442
0.00154794
0.00149391
0.00127475
0.00185631
0.00126124
0.00187181
0.00185529
0.00167476
0.00251789
0.00157981
0.0021596
0.00184491
0.0018272
0.00224021
0.000977009
0.00097298
0.00130688
0.00130751
0.00254985
0.00275093
0.00137915
0.00128277
0.00147173
0.00134651
0.00247317
0.0014088
0.00135065
0.0013474
0.00161148
0.00106894
0.00259251
0.00171855
0.00205214
0.00121399
0.00145879
0.00121146
0.00262817
0.000910298
0.00247975
0.00235102
0.00166876
0.000980022
0.00133029
0.00177836
0.00109993
0.00107884
0.00229982
0.00141371
0.0013023
0.00214751
0.00229979
0.00143894
0.00181215
0.00226723
0.00115356
0.00115546
0.00161336
0.00191288
0.00236099
0.00236202
0.000963097
0.00222414
0.00188196
0.00137178
0.00128313
0.0013347
0.0013356
0.00105076
0.0016582
0.00188142
0.00111525
0.00153639
0.00162577
0.00276479
0.00147747
0.00110142
0.00288425
0.00090755
0.00096418
0.00205619
0.00122735
0.00169012
0.00120802
0.000741193
0.00078181
0.00147689
0.00133816
0.00232489
0.00105038
0.00113789
0.0005623
0.000982746
0.00130772
0.000990527
0.0013349
0.000679487
0.00123012
0.0014144
0.00141759
0.00228381
0.00235274
0.0013257
0.000738381
0.00219099
0.00263762
0.00116037
0.00199801
0.00121732
0.00197478
0.000788423
0.00251064
0.00134261
0.000989276
0.0010526
0.00233214
0.00218962
0.0012905
0.00127664
0.00145858
0.00083597
0.0022442
0.00169179
0.0012787
0.00123132
0.000984398
0.00136875
0.000606955
0.00105059
0.000405609
0.00104673
0.00180175
0.00217363
0.00174808
0.00174831
0.00251198
0.0017563
0.00160274
0.00132461
0.000887583
0.00259605
0.00122026
0.00239728
0.00144227
0.00134892
0.00106441
0.000968477
0.00231312
0.00212685
0.00125095
0.00145107
0.00105852
0.00104339
0.00119499
0.000826875
0.00083056
0.00106181
0.00159695
0.00129166
0.00197695
0.00101149
0.000908365
0.00178106
0.00204852
0.00203663
0.00205656
0.0025543
0.00151146
0.00145262
0.000661296
0.00156566
0.00271868
0.00159702
0.000987266
0.00050515
0.00242987
0.000594821
0.00135548
0.00125932
0.00115976
0.00100299
0.00100328
0.00117167
0.00255085
0.0022694
0.00197176
0.000691888
0.00120288
0.00235805
0.00211441
0.00130635
0.000994595
0.00234123
0.00205713
0.000918349
0.00150284
0.00099335
0.00128314
0.00139928
0.00111015
0.00138643
0.0010428
0.00152799
0.00249212
0.00210251
0.00248948
0.000664329
0.00232462
0.0013725
0.00164734
0.000836306
0.00160145
0.00169419
0.00101267
0.00115437
0.00141248
0.00227698
0.0015162
0.0010543
0.00215024
0.00108909
0.0011062
0.00138742
0.000976532
0.00121025
0.00185324
0.00182318
0.00104039
0.00104356
0.000961589
0.00174558
0.00137113
0.0013551
0.00135899
0.00246538
0.00101874
0.000941243
0.00134746
0.00153805
0.00253923
0.00130645
0.00119019
0.0011867
0.00132482
0.00144559
0.0013751
0.00235636
0.00121745
0.00110894
0.000603797
0.000786486
0.00234009
0.00122328
0.00128124
0.00199742
0.00232971
0.000967756
0.00241364
0.0013294
0.00129232
0.00164099
0.0011846
0.00104761
0.00122385
0.00206901
0.00228273
0.00104026
0.00103545
0.000953969
0.00232393
0.00105784
0.000965046
0.00171275
0.00169777
0.00127898