/*--------------------------------*- C++ -*----------------------------------*\
| =========                 |                                                 |
| \\      /  F ield         | OpenFOAM: The Open Source CFD Toolbox           |
|  \\    /   O peration     | Version:  v2012                                 |
|   \\  /    A nd           | Website:  www.openfoam.com                      |
|    \\/     M anipulation  |                                                 |
\*---------------------------------------------------------------------------*/
FoamFile
{
    version     2.0;
    format      ascii;
    class       volSymmTensorField;
    location    "9";
    object      epsilon;
}
// * * * * * * * * * * * * * * * * * * * * * * * * * * * * * * * * * * * * * //

dimensions      [0 0 0 0 0 0 0];


internalField   nonuniform List<symmTensor> 
30465
(
(0.00191446 -0.000482225 9.29944e-19 -0.000801113 5.57789e-20 0)
(0.00132809 -0.000483574 -3.73616e-19 -0.000427636 -2.53716e-19 0)
(0.00278314 0.00021935 -4.57027e-18 -0.00141594 -4.13863e-18 0)
(0.00180206 -0.000378456 4.58116e-19 -0.000726671 9.43396e-19 0)
(0.00168976 -0.000119491 1.48543e-18 -0.000710092 9.19867e-20 0)
(0.00167469 -0.000106572 1.20243e-18 -0.000711696 6.24857e-19 0)
(0.00276024 0.00024564 -6.10974e-18 -0.00132296 -5.24631e-18 0)
(0.00241796 0.000580933 -9.76293e-19 -0.000947901 -8.31086e-19 0)
(0.00295762 0.000554209 1.73929e-18 -0.00137299 2.24438e-18 0)
(0.00256339 -0.000165155 1.51072e-18 -0.00139755 8.35101e-19 0)
(0.00195983 0.000415207 1.25082e-18 -0.000769323 1.28272e-18 0)
(0.0027889 -5.89339e-05 -1.08884e-18 -0.00122908 -5.65294e-19 0)
(0.00175261 -0.000598917 4.90689e-19 -0.000725358 9.64341e-19 0)
(0.000906741 -0.000681136 3.45546e-18 -0.000871452 1.69834e-18 0)
(0.00255204 -0.000110192 1.84676e-18 -0.00109579 1.06473e-18 0)
(0.00278689 0.000346414 3.13257e-18 -0.00135691 2.37761e-18 0)
(0.00169706 -0.000180724 2.06075e-20 -0.000697724 -2.22452e-19 0)
(0.00246237 -0.000301288 1.66719e-18 -0.00147969 9.10499e-19 0)
(0.00299394 0.000556564 4.40236e-18 -0.00136678 3.93647e-18 0)
(0.00155709 -7.30312e-05 -6.88108e-19 -0.000622477 -2.89814e-19 0)
(0.000919503 -0.00032822 7.35706e-19 -0.000228495 4.0004e-19 0)
(0.00093917 -0.000322443 1.25737e-19 -0.000214513 1.14347e-19 0)
(0.00109171 -0.000686246 -8.4678e-19 -0.000495368 -2.88497e-19 0)
(0.00275199 0.000654238 1.45141e-18 -0.00120218 1.49418e-18 0)
(0.0011289 -0.000685031 -8.58586e-19 -0.000497754 -2.86958e-19 0)
(0.00146586 -0.000217471 -2.68808e-19 -0.000447306 1.35782e-19 0)
(0.00146962 -0.000222205 1.95015e-18 -0.000449308 3.51239e-19 0)
(0.00134205 -0.000436485 1.37502e-18 -0.000405165 2.76122e-19 0)
(0.00130745 -0.000300696 -4.22993e-19 -0.00035558 2.95221e-20 0)
(0.00285836 -0.000164397 0 -0.00142509 0 0)
(0.00182678 -0.000686047 -9.08067e-19 -0.000992003 -3.75979e-19 0)
(0.0014213 -0.00010529 0 -0.000326053 0 0)
(0.00186009 -0.000534468 1.93999e-19 -0.000768058 9.6058e-20 0)
(0.00170562 -0.000414078 -6.02892e-19 -0.000670945 4.12298e-19 0)
(0.00213148 -0.000104398 1.85459e-18 -0.000894229 5.16938e-19 0)
(0.00126914 -0.000347131 -5.84287e-20 -0.000340049 -1.43695e-19 0)
(0.00289308 0.00060596 1.19663e-18 -0.00131974 1.67346e-18 0)
(0.000520169 -0.000628784 -2.42505e-18 2.35662e-05 -4.93593e-19 0)
(0.00166724 -0.000378933 -9.54695e-19 -0.000647189 9.91675e-21 0)
(0.00282418 -7.02471e-05 -8.29262e-19 -0.00123526 -3.5347e-19 0)
(0.00112581 -0.000539917 9.51969e-19 -0.000373292 1.61894e-19 0)
(0.00243477 -0.000245633 -2.03387e-20 -0.00105473 -6.85148e-19 0)
(0.00271486 0.000637096 1.15133e-19 -0.00120611 -3.43722e-19 0)
(0.00128887 -0.000468765 -6.57143e-19 -0.00041068 2.31429e-19 0)
(0.00130925 -0.000461149 3.75601e-19 -0.000388 1.61426e-19 0)
(0.00311363 0.00042532 2.459e-18 -0.00143669 1.92461e-18 0)
(0.00245225 -0.000257438 -3.43957e-19 -0.00129353 1.59582e-19 0)
(0.00133613 -0.000478841 4.64324e-19 -0.000414081 4.74683e-19 0)
(0.0014594 -0.000144938 5.6672e-19 -0.000422433 4.71182e-20 0)
(0.00106327 -0.000439319 6.4051e-19 -0.000301442 9.43437e-20 0)
(0.00109266 -0.00044365 -6.33737e-20 -0.000300441 -2.3322e-20 0)
(0.00167642 -0.000502362 -1.26615e-18 -0.000657266 -1.26295e-19 0)
(0.0022407 0.000376244 -2.65415e-19 -0.000974299 -2.10947e-19 0)
(0.00225223 0.000399091 9.5559e-19 -0.00095213 1.22212e-18 0)
(0.00429181 -0.00188794 3.31486e-18 -0.0018223 1.08598e-18 0)
(0.00144231 -0.000552774 3.82479e-19 -0.000512393 4.94119e-19 0)
(0.00394457 -0.00160727 -2.30114e-18 -0.00144629 -8.12985e-19 0)
(0.00153633 -0.000286867 -4.20398e-20 -0.000543528 4.5429e-20 0)
(0.00133634 -0.00029407 7.15776e-19 -0.000360696 1.43031e-21 0)
(0.00136056 -5.41654e-05 -5.96586e-19 -0.000220447 -1.56652e-19 0)
(0.00135768 -5.41263e-05 -2.49418e-19 -0.000216784 7.71358e-20 0)
(0.00266914 -5.93828e-05 -1.62074e-18 -0.00146942 -5.58136e-19 0)
(0.00107398 -2.41992e-05 -5.12695e-19 -0.000231066 -1.21716e-19 0)
(0.00211259 -0.000262182 -1.61077e-18 -0.000895609 -1.27973e-19 0)
(0.00208947 -0.000267105 -1.7512e-19 -0.00089641 7.52008e-19 0)
(0.000760278 -7.73445e-06 1.30096e-18 -0.00208237 1.16413e-18 0)
(0.00227139 -0.000182836 -2.63173e-18 -0.000979903 1.29165e-19 0)
(0.00335486 0.000227981 -2.46431e-18 -0.0014231 -2.21086e-18 0)
(0.000762864 -0.000141795 0 -0.000151282 0 0)
(0.00154462 -0.000406527 -3.57992e-19 -0.000545098 -4.65087e-19 0)
(0.00130907 -0.000685083 -3.01963e-19 -0.000540381 1.46596e-21 0)
(0.0014899 -4.5969e-05 1.54539e-18 -0.000516619 6.92728e-19 0)
(0.00302532 2.32089e-05 -3.58838e-19 -0.00130788 -6.78212e-19 0)
(0.00255893 -0.000167395 7.60904e-19 -0.0012223 5.21078e-19 0)
(0.00185779 -0.000535485 -3.2198e-19 -0.00077921 -1.25295e-18 0)
(0.00289206 -6.43628e-05 -5.35466e-19 -0.0012338 -2.58379e-19 0)
(0.00130344 -0.000140928 0 -0.000295797 0 0)
(0.00129886 -0.000137372 9.01093e-19 -0.000298597 -1.84267e-20 0)
(0.00109211 -0.000423826 -9.83349e-19 -0.000935572 -2.50733e-18 0)
(0.00208842 0.000457772 -5.44379e-19 -0.000834886 -6.79404e-19 0)
(0.00269513 0.000282683 -5.75261e-19 -0.00117789 -1.11796e-18 0)
(0.00266678 0.000273332 1.92306e-18 -0.00118012 1.55019e-18 0)
(0.00169372 -0.000256229 8.03204e-19 -0.000677125 5.48585e-19 0)
(0.00145259 -0.000309678 5.88882e-19 -0.000451138 -3.09572e-20 0)
(0.00167854 -0.000573748 -4.30831e-20 -0.000674779 1.14389e-20 0)
(0.00146459 -6.67094e-05 1.01358e-18 -0.000437202 1.78953e-19 0)
(0.00134402 -0.000296315 2.75861e-19 -0.000366248 -1.2523e-19 0)
(0.00283579 -8.05549e-05 -2.09726e-18 -0.00124393 -1.17375e-18 0)
(0.00165844 -4.54346e-05 -2.12133e-18 -0.00070369 -3.7668e-19 0)
(0.00113181 -0.000346578 2.88883e-19 -0.00029143 -3.04083e-20 0)
(0.0014087 -7.16138e-05 -4.38162e-19 -0.00031301 6.14192e-20 0)
(0.00140623 -7.78271e-05 -6.61554e-19 -0.000305147 -2.36039e-19 0)
(0.0016924 -0.000161942 1.30915e-18 -0.000701479 -1.88779e-19 0)
(0.00168307 -0.000167247 -4.94236e-19 -0.000702676 1.86541e-19 0)
(0.00256504 -0.000171103 -2.58362e-18 -0.00143068 -1.27951e-18 0)
(0.00136789 -0.000160557 0 -0.000312995 0 0)
(0.0013602 -0.00031147 -3.35692e-19 -0.000381877 1.00228e-19 0)
(0.00136324 -0.000304095 3.6383e-19 -0.000376846 1.53928e-19 0)
(0.00231083 0.000562164 9.63629e-19 -0.000953481 8.17205e-19 0)
(0.00134507 -0.000268421 9.64001e-19 -0.000353238 -2.97638e-19 0)
(0.00176511 -0.000280219 1.57511e-18 -0.000734469 -2.8215e-19 0)
(0.000925309 -0.000404513 1.4317e-19 -0.000252481 1.15917e-19 0)
(0.000937613 -0.000415813 4.66192e-21 -0.000253186 -2.25169e-19 0)
(0.00201788 -0.000562896 -2.20998e-19 -0.000912533 -6.94825e-20 0)
(0.000902481 -0.000712732 -1.23917e-18 -0.000737276 -5.41179e-19 0)
(0.00247043 -6.55142e-05 -8.55988e-19 -0.00108415 -5.08938e-19 0)
(0.00249751 -5.11817e-05 5.56273e-19 -0.00104983 8.64408e-19 0)
(0.00149148 -0.0001611 -1.04378e-18 -0.00048385 -1.7542e-19 0)
(0.0013166 -0.000681015 -5.77182e-19 -0.000550737 -6.89161e-20 0)
(0.000621355 -0.00054896 -8.20814e-19 -0.00045962 -3.18014e-19 0)
(0.0028368 0.000295714 -3.24556e-18 -0.00143596 -2.47246e-18 0)
(0.00183329 -0.000277361 9.826e-19 -0.000759019 -4.02537e-19 0)
(0.00218554 -0.000142166 7.15327e-19 -0.000932087 -1.67618e-19 0)
(0.00216855 -0.000129078 7.79294e-19 -0.000935356 -1.62797e-19 0)
(0.00185371 -0.000602972 5.71013e-19 -0.000802 3.2891e-19 0)
(0.00182989 -0.000600033 -1.35577e-18 -0.000787579 -1.53779e-19 0)
(0.000467658 -0.000186256 4.76265e-19 -0.000200511 1.67603e-19 0)
(0.00150329 -2.91785e-05 -1.14354e-18 -0.000514429 -5.07027e-19 0)
(0.00134347 -6.0719e-05 -1.66312e-18 -0.000271271 1.6257e-19 0)
(0.00602563 -0.000559829 -2.44293e-18 -0.0027404 -1.48941e-18 0)
(0.00287532 -3.74173e-05 2.93658e-18 -0.00125376 1.94606e-18 0)
(0.00126121 -0.000350794 1.96532e-19 -0.000349522 1.92788e-19 0)
(0.00150404 -0.000610667 -3.89481e-19 -0.000579156 -3.30534e-19 0)
(0.000288398 -9.59283e-05 3.58846e-19 -0.000818777 5.61449e-19 0)
(0.00130948 -0.000452683 -7.68966e-20 -0.000401274 -4.54841e-21 0)
(0.00130351 -0.000450433 1.51864e-19 -0.000391724 -1.42784e-19 0)
(0.000726284 -0.000205847 3.22655e-19 -0.000176286 6.87922e-20 0)
(0.00205768 -0.000240658 1.61641e-19 -0.000860717 -3.50616e-19 0)
(0.00154527 -1.31965e-05 -1.59884e-19 -0.000626003 -1.64117e-20 0)
(0.000389875 -4.59982e-05 -2.18349e-19 -0.00116386 -2.90596e-19 0)
(0.00350568 0.000285829 1.34203e-18 -0.00135775 1.17321e-18 0)
(0.00134773 -3.57742e-05 -5.38424e-19 -0.000253902 -6.50608e-20 0)
(0.00284938 0.000319659 2.80547e-18 -0.00142996 1.82463e-18 0)
(0.00295221 0.000316372 2.62516e-18 -0.0007751 6.95442e-19 0)
(0.00152732 -0.000167656 0 -0.000553556 0 0)
(0.000620471 -0.000395613 0 -0.000254726 0 0)
(0.00292494 8.15127e-05 -2.64446e-18 -0.00126037 -2.15068e-18 0)
(0.00143578 -0.000345882 7.1079e-19 -0.000455271 1.4628e-19 0)
(0.00303261 0.000577416 1.05351e-18 -0.00132709 1.17944e-18 0)
(0.00291253 7.39063e-05 -1.93589e-18 -0.00125704 -1.46708e-18 0)
(0.00147548 -0.000640833 -1.6643e-18 -0.000585307 -3.34231e-19 0)
(0.00247811 0.000382684 -1.04824e-18 -0.00079984 -7.00583e-19 0)
(0.000293864 -0.000109634 -8.37748e-20 -0.000446838 -1.87779e-19 0)
(0.00115575 -0.000546649 -2.47399e-19 -0.000366642 6.90053e-20 0)
(0.00123578 -0.000231487 5.32137e-19 -0.000295658 8.4769e-20 0)
(0.00271902 -5.9658e-05 1.86663e-18 -0.00150539 1.77206e-18 0)
(0.00139601 -4.06758e-05 1.46199e-18 -0.000300942 5.16959e-19 0)
(0.00140302 -4.99405e-05 -6.36804e-19 -0.000285663 -1.88291e-19 0)
(0.00221464 -0.000421907 2.05432e-19 -0.000986941 -5.4454e-20 0)
(0.00133733 -3.1936e-06 6.34796e-19 -0.000143496 -5.98229e-21 0)
(0.00156237 3.24584e-06 6.17243e-19 -0.000668864 5.11195e-19 0)
(0.00219436 -0.000489757 -1.59117e-18 -0.00109697 -7.8323e-19 0)
(0.0014307 -0.000171151 -1.73039e-19 -0.000372481 -1.42832e-19 0)
(0.00142562 -0.000170093 -4.70452e-19 -0.000381594 1.91553e-20 0)
(0.0017867 -0.000151705 6.90349e-19 -0.000753657 -5.69286e-19 0)
(0.000986423 -0.000739978 1.27404e-18 -0.000851234 4.67471e-19 0)
(0.00239706 -0.000127892 -8.28334e-19 -0.00100567 -4.94153e-19 0)
(0.00167285 -0.000340683 -7.13386e-19 -0.000659409 3.72124e-19 0)
(0.0026144 -0.000180423 2.64604e-18 -0.00113364 1.1128e-18 0)
(0.00126535 -0.000433455 1.1278e-18 -0.00037278 7.06301e-20 0)
(0.00126851 -0.000430087 -3.33225e-19 -0.000366618 -3.79544e-19 0)
(0.00265975 -0.000163029 5.73106e-19 -0.00114265 -2.82299e-20 0)
(0.0023441 -0.00027294 -8.55069e-19 -0.00102054 2.73665e-19 0)
(0.00238267 -0.000261591 -5.15258e-19 -0.00101036 -4.96244e-19 0)
(0.000426225 -0.000235803 0 -0.000248128 0 0)
(0.00133305 -1.78612e-05 -8.91324e-19 -0.000267245 4.71847e-21 0)
(0.00136954 -0.000277051 -1.0493e-18 -0.000374648 -2.48539e-19 0)
(0.00327695 0.000445878 3.36201e-18 -0.00111071 2.45736e-18 0)
(0.00146862 -0.000334328 6.15529e-20 -0.000472236 -1.9352e-19 0)
(0.00234742 -0.000378666 1.16548e-18 -0.00127436 8.0086e-19 0)
(0.00164175 -0.00065815 -1.2183e-18 -0.000698053 -1.60155e-19 0)
(0.00136139 -9.22179e-05 2.47974e-20 -0.00026438 1.30854e-19 0)
(0.00137562 -0.000188635 1.85526e-20 -0.000326207 1.46896e-19 0)
(0.00136465 -0.000189841 -1.16312e-18 -0.000336185 3.07411e-20 0)
(0.00143889 -0.000357454 0 -0.000456747 0 0)
(0.00237721 -0.000351252 -3.51306e-18 -0.00131058 -2.18894e-18 0)
(0.00203133 -0.000219068 1.42551e-18 -0.000874416 -7.12813e-19 0)
(0.00183632 -0.000638721 4.10509e-19 -0.0008557 7.34062e-20 0)
(0.000419623 -0.000194395 -2.40156e-22 -0.00023798 3.22398e-20 0)
(0.00238214 0.000369008 1.16438e-18 -0.000752026 7.01243e-19 0)
(0.00274993 0.000110508 -8.54897e-19 -0.00126829 -8.67605e-19 0)
(0.00199261 -0.00048145 0 -0.000847721 0 0)
(0.00200028 -0.000490949 1.94309e-18 -0.000842165 -2.16967e-19 0)
(0.00160082 -1.73042e-05 -6.99543e-19 -0.000688272 -5.84829e-19 0)
(0.00154635 -2.77924e-05 9.21116e-19 -0.00061644 4.34923e-19 0)
(0.00130334 -0.000786654 -1.2554e-18 -0.000841806 -4.51413e-19 0)
(0.00255127 0.000611673 -1.4204e-18 -0.00110097 -1.57342e-18 0)
(0.000548374 0.000106282 -1.04084e-18 -0.001603 -1.9908e-18 0)
(0.00133827 -5.86752e-05 -6.52705e-20 -0.000268251 -1.58876e-20 0)
(0.00167379 -0.000171019 -9.13705e-20 -0.000697647 3.35718e-19 0)
(0.00287253 -3.56282e-05 1.34056e-18 -0.00122559 8.47455e-19 0)
(0.00148182 -0.000161171 -4.65969e-19 -0.000461189 2.29672e-20 0)
(0.00091529 -0.000550136 -6.58063e-19 -0.000333563 -1.16532e-19 0)
(0.00238964 0.000409154 0 -0.000804255 0 0)
(0.00169732 -0.000208813 -1.37776e-18 -0.000704325 3.36424e-20 0)
(0.00170825 -0.000216089 -1.11023e-18 -0.000696938 2.28046e-19 0)
(0.00276654 0.000243237 -1.9906e-18 -0.00130779 -1.85137e-18 0)
(0.00162763 -0.000458828 9.03212e-19 -0.000613362 2.31307e-19 0)
(0.00162764 -0.000298901 1.1996e-18 -0.000637079 -6.24316e-20 0)
(0.00193111 -0.000471209 0 -0.000805261 0 0)
(0.00135923 -8.00877e-05 -4.10436e-19 -0.000260098 -2.49199e-19 0)
(0.00134053 -0.000265347 -5.91474e-19 -0.000353421 -8.30535e-20 0)
(0.00134717 -3.74992e-05 1.03202e-18 -0.000185577 1.99242e-19 0)
(0.00317954 0.000347079 -2.00906e-18 -0.000804652 -4.38343e-19 0)
(0.00175312 -0.000683621 -1.36204e-18 -0.000857665 -4.93055e-19 0)
(0.00147078 -0.000635629 -7.46652e-19 -0.000565387 -4.00849e-20 0)
(0.000326285 -7.72588e-05 -2.53709e-19 -0.00101116 -8.90364e-19 0)
(0.00326782 0.000392492 -2.27891e-19 -0.000974278 -1.26118e-19 0)
(0.00195327 -0.000597499 -6.62671e-19 -0.000911734 -9.68059e-20 0)
(0.00121653 -0.000426118 -1.39417e-18 -0.000341491 -2.61543e-19 0)
(0.0027592 0.000214961 3.5738e-20 -0.00138368 -2.89835e-19 0)
(0.00144042 -0.000635315 -1.42244e-19 -0.000546985 -2.26477e-19 0)
(0.000696641 -6.97218e-05 5.90246e-19 -0.000143242 7.76113e-21 0)
(0.00140444 -0.00027846 -1.36e-18 -0.000397404 -2.1554e-19 0)
(0.00307376 0.000405498 5.62219e-18 -0.00144451 4.8904e-18 0)
(0.00238658 -0.000140208 -9.65464e-19 -0.00103081 -5.52989e-20 0)
(0.00240951 -0.000117635 -5.50704e-20 -0.0010298 -4.91797e-19 0)
(0.00148169 -0.000226674 1.35751e-18 -0.000466195 4.98848e-19 0)
(0.00147326 -0.000225707 -3.33081e-19 -0.000465236 -2.0527e-19 0)
(0.00283681 -6.10057e-05 -2.95406e-18 -0.00121633 -1.30599e-18 0)
(0.00197718 -0.000233851 1.31914e-18 -0.000835772 4.17503e-19 0)
(0.00179041 -0.000544606 -1.58222e-19 -0.000733807 1.09206e-20 0)
(0.00142579 -0.000163112 2.07328e-19 -0.000357902 1.33917e-19 0)
(0.00153153 -0.000176302 6.56879e-19 -0.000552101 1.38757e-19 0)
(0.00227824 -0.000107758 7.81292e-19 -0.000957227 -2.23106e-19 0)
(0.000477826 -6.76487e-05 -1.85213e-19 -0.00132119 -5.27419e-19 0)
(0.00265164 -7.49981e-05 0 -0.00149563 0 0)
(0.00212303 -0.000538347 -1.2054e-18 -0.00122028 -7.67178e-19 0)
(0.00113198 -0.000339003 4.44595e-20 -0.000284306 2.21288e-19 0)
(0.00131914 -0.000787412 4.43885e-19 -0.000813312 1.10369e-19 0)
(0.00270941 -2.77696e-05 1.21832e-18 -0.00146386 2.05342e-19 0)
(0.00138477 -0.000213092 2.01983e-19 -0.000346134 1.39011e-19 0)
(0.00138006 -0.000214522 -1.65012e-19 -0.000352804 -3.01133e-19 0)
(0.000961618 -0.000439873 -2.12675e-21 -0.00105933 -7.94019e-19 0)
(0.000978862 -0.000738936 3.5915e-19 -0.000654426 2.30535e-19 0)
(0.000526628 -0.000299214 -2.03863e-19 -0.000234747 -1.40481e-19 0)
(0.00202311 -0.000153098 1.19893e-18 -0.000847023 -3.44767e-19 0)
(0.00198646 -0.00016583 0 -0.00085801 0 0)
(0.00275515 0.000328569 -3.24265e-18 -0.00124267 -2.49609e-18 0)
(0.00273538 0.000315874 4.13927e-18 -0.00126733 3.87015e-18 0)
(0.00242747 -0.000312628 -2.98565e-18 -0.00132469 -1.83228e-18 0)
(0.00132876 -0.000767723 -2.0533e-18 -0.000798427 -7.71817e-19 0)
(0.00162267 -0.00062406 -3.3622e-19 -0.00064487 -4.32343e-19 0)
(0.00141779 -0.00076479 -3.35527e-18 -0.00105227 -1.56401e-18 0)
(0.00139688 -0.000367488 -1.02376e-18 -0.000414591 -1.6574e-19 0)
(0.00257508 -4.57163e-05 2.45617e-18 -0.00112433 1.72043e-18 0)
(0.00194956 -0.000591174 -1.35383e-18 -0.000896119 -4.72554e-19 0)
(0.00176831 -0.000614369 -9.61459e-19 -0.000740228 -2.66402e-19 0)
(0.00331302 0.000227409 -1.59652e-18 -0.00142752 -1.36883e-18 0)
(0.000972079 -0.000737335 1.09481e-18 -0.000667233 4.36809e-19 0)
(0.00161303 -0.000423768 -8.12174e-19 -0.000614316 3.34413e-19 0)
(0.000380404 -9.79457e-05 2.98572e-19 -0.00106587 4.89883e-19 0)
(0.000355211 -8.75604e-05 1.03076e-20 -0.00106449 -7.92972e-20 0)
(0.00266625 -7.31643e-05 2.82919e-18 -0.00147765 1.33642e-18 0)
(0.00181897 -0.000631047 1.14989e-18 -0.000809164 5.49738e-19 0)
(0.00343852 0.000250494 2.34498e-18 -0.00136185 1.65536e-18 0)
(0.00220491 -0.000648736 0 -0.00101338 0 0)
(0.00227581 -0.000636789 2.52729e-18 -0.00101836 1.16608e-18 0)
(0.00220473 -0.000463964 -2.11037e-18 -0.00100627 -1.06036e-18 0)
(0.00327743 0.000138977 1.6569e-19 -0.000674555 1.80387e-19 0)
(0.00149819 -4.05793e-05 3.69882e-19 -0.000501534 3.4218e-19 0)
(0.00119638 -0.000756589 -2.6053e-19 -0.000662533 -9.79101e-20 0)
(0.00125956 -0.000754435 -3.14112e-19 -0.000674375 -1.27093e-19 0)
(0.000350244 -0.000294793 -1.3879e-19 -0.000776652 -3.7913e-20 0)
(0.00278477 6.24493e-06 3.09014e-19 -0.00152791 3.07422e-19 0)
(0.00281161 1.49622e-05 1.95075e-18 -0.0014851 9.22025e-19 0)
(0.00159723 -0.00045921 -5.71314e-19 -0.000584336 9.93832e-20 0)
(0.00252556 -0.000241262 9.05194e-19 -0.00118888 5.87181e-19 0)
(0.00180618 -0.000615144 0 -0.000787813 0 0)
(0.00154954 -0.000465432 9.3191e-19 -0.000553197 2.58532e-20 0)
(0.00133182 -1.8041e-05 -3.50761e-19 -0.000267205 -2.4248e-20 0)
(0.00158047 -0.000106091 1.69425e-20 -0.000637476 -4.39773e-20 0)
(0.00130673 -0.000333597 -4.02928e-19 -0.000350513 -1.96878e-19 0)
(0.00168552 -0.000118738 9.0569e-19 -0.000713104 5.18571e-19 0)
(0.000835814 -0.000693843 1.97507e-18 -0.000733171 1.03097e-18 0)
(0.00204423 -0.000561949 1.98744e-19 -0.00132125 5.17903e-19 0)
(0.000682261 -0.000208001 1.17059e-18 -0.0010659 3.5517e-19 0)
(0.00143785 -0.000715204 -5.40242e-19 -0.000654858 -2.64815e-19 0)
(0.00293626 0.000124787 3.20843e-18 -0.00151426 2.57825e-18 0)
(0.00085985 -0.000337384 -1.36723e-19 -0.000222095 -5.62056e-21 0)
(0.00299444 0.000136855 -1.37406e-18 -0.00149505 -8.60161e-19 0)
(0.00192426 -0.000103519 1.81589e-18 -0.000811119 1.34332e-19 0)
(0.00077984 -0.000266916 -3.73382e-18 -0.00105618 -2.40016e-18 0)
(0.00160363 -0.000270018 3.6963e-20 -0.000599777 -5.86432e-20 0)
(0.00120897 -0.000429368 -6.36592e-19 -0.000351416 5.98595e-20 0)
(0.0015637 -0.000303705 -4.61404e-20 -0.000576124 -9.88171e-20 0)
(0.00230095 -0.000391838 -1.15257e-19 -0.00101886 1.84437e-19 0)
(0.00147996 -0.00019989 -6.32539e-19 -0.000483132 -1.48791e-19 0)
(0.00133357 -5.03651e-06 2.01848e-19 -0.000138166 6.6623e-21 0)
(0.00156048 2.37969e-06 -5.3611e-19 -0.000669109 2.91247e-19 0)
(0.00174634 -0.000685616 -3.09114e-20 -0.000873807 6.279e-21 0)
(0.00156123 -0.000732879 -7.04455e-19 -0.000789126 -2.18219e-19 0)
(0.00150033 -0.000614372 -3.70886e-19 -0.000569078 -2.61109e-19 0)
(0.00249571 -0.000463944 0 -0.00123968 0 0)
(0.00135953 -6.73546e-05 -1.34615e-20 -0.000246912 8.83854e-20 0)
(0.00153166 -0.000119978 7.90612e-21 -0.00056223 -4.57799e-19 0)
(0.00134743 -2.34943e-05 -8.08458e-19 -0.000256703 -2.39205e-19 0)
(0.000648828 -0.000203096 -3.70762e-19 -0.000160206 -3.47528e-21 0)
(0.000672042 -0.000187561 6.64342e-19 -0.000156373 1.70597e-20 0)
(0.00130696 -0.000206524 -8.16039e-19 -0.000321663 -1.8067e-19 0)
(0.00188831 -0.000155684 -6.81513e-19 -0.000804488 1.99358e-19 0)
(0.00188507 -0.000162988 -6.79935e-19 -0.000799525 1.85941e-19 0)
(0.00303294 8.64334e-06 -1.1637e-18 -0.00129943 -4.55976e-19 0)
(0.00107883 -0.00034352 -1.12444e-19 -0.000271269 1.01543e-19 0)
(0.00112365 -0.000214602 1.06428e-18 -0.000260632 1.06188e-19 0)
(0.00250112 -0.000204983 -3.04571e-18 -0.00131758 -2.05522e-18 0)
(0.00251049 -0.000213364 -2.59394e-19 -0.00130992 -2.91082e-19 0)
(0.0013612 -9.12916e-05 -1.95944e-19 -0.000270859 -7.95216e-20 0)
(0.000815085 -0.000554556 2.98077e-18 -0.000965419 8.98914e-19 0)
(3.22967e-05 0.000272135 1.30327e-18 -0.000239643 -1.95739e-18 -2.15781e-34)
(0.0017535 -0.000584274 2.81766e-19 -0.000725738 -1.38237e-19 0)
(0.00176512 -0.000587087 -1.45717e-18 -0.000725591 -5.42399e-19 0)
(0.00253666 0.000588414 -4.83183e-19 -0.000949618 -4.67445e-19 0)
(0.00152759 -6.15071e-05 -1.70868e-19 -0.000570775 9.68343e-20 0)
(0.00302965 0.000182286 -2.36034e-19 -0.00148716 -3.29215e-19 0)
(0.00144155 -0.000659176 1.57616e-18 -0.00115631 6.74725e-19 0)
(0.00318823 0.000203644 -1.92677e-18 -0.000699283 -7.41699e-19 0)
(0.00325713 0.000105956 4.97071e-18 -0.000725446 9.19467e-19 0)
(0.0025126 -0.000261564 -2.42485e-18 -0.00112573 -1.26329e-18 0)
(0.00400536 -0.00114428 -1.3656e-18 -0.00135701 -1.22186e-18 0)
(0.00224242 -0.000458315 3.57064e-19 -0.0011735 1.91801e-19 0)
(0.0040915 -0.00120872 -5.50619e-18 -0.0018087 -2.49869e-18 0)
(0.00239537 -0.000334003 -2.95652e-18 -0.00132364 -1.91427e-18 0)
(0.000561023 -0.000467091 9.94702e-19 -0.000344106 3.36957e-19 0)
(0.0013702 -0.00052017 0 -0.000447968 0 0)
(0.00134643 -0.000517159 0 -0.000448193 0 0)
(0.00266639 -0.00131075 -3.32655e-18 -0.00080693 -1.33284e-18 0)
(0.00183427 -0.00065069 6.80702e-19 -0.00124137 -2.79218e-19 0)
(0.00153915 -0.00056344 -3.39327e-19 -0.000562177 1.9089e-19 0)
(0.00283681 0.00018929 -7.82808e-19 -0.00149392 -1.01139e-18 0)
(0.000408398 -3.52411e-06 -1.79131e-19 -0.00021618 4.57506e-20 0)
(0.0026194 -6.60784e-05 2.95855e-18 -0.00139564 2.33672e-18 0)
(0.000632083 -0.000493834 3.87383e-19 -0.000339226 1.09195e-19 0)
(0.00246077 0.000532783 -1.30347e-18 -0.000861468 -1.04977e-18 0)
(0.000706867 -0.000609118 1.69873e-19 -0.000715557 5.40255e-20 0)
(0.00251256 -0.000197948 -2.04518e-18 -0.00108671 -7.67858e-19 0)
(0.00143384 -5.35692e-05 -2.06668e-19 -0.000364201 -5.88184e-20 0)
(0.00108199 -0.000612805 -1.54676e-18 -0.000407361 -3.89669e-19 0)
(0.00109075 -0.000597865 -7.44416e-19 -0.00039748 -9.47949e-20 0)
(0.00227156 -0.000428983 -2.3816e-18 -0.00116288 -1.32062e-18 0)
(0.00225707 -0.000420945 -2.92824e-18 -0.0010011 -1.08778e-18 0)
(0.00169761 -0.000498863 -8.34777e-19 -0.000660686 2.22176e-19 0)
(0.0028072 0.000110944 1.34441e-18 -0.00149279 1.47964e-18 0)
(0.00136264 -0.00027621 -4.32999e-19 -0.000367109 -1.45902e-19 0)
(0.00146812 -0.000547144 2.86929e-19 -0.000529142 2.12939e-19 0)
(0.0023089 -0.000393622 -6.75532e-19 -0.00110398 -3.14125e-19 0)
(0.00231359 -0.000399058 7.58319e-19 -0.00112893 3.59645e-19 0)
(0.00286498 9.02333e-05 1.53616e-18 -0.00124882 1.201e-18 0)
(0.00209602 -0.000551634 1.88467e-18 -0.00132669 1.60285e-18 0)
(0.00139558 -1.48048e-05 3.79856e-20 -0.000293252 -7.05001e-20 0)
(0.00225262 -0.00043538 -2.42259e-19 -0.00106468 -2.46695e-20 0)
(0.00116625 -0.000292659 2.56988e-19 -0.000293309 -3.27023e-19 0)
(0.00246165 0.000461057 -1.76749e-18 -0.00107231 -1.65783e-18 0)
(0.0024424 0.000486465 1.15169e-18 -0.000880121 6.74034e-19 0)
(0.00164223 -0.000644096 5.07056e-19 -0.000681135 3.19297e-19 0)
(0.00235938 -0.000278908 2.1934e-19 -0.0010031 6.31482e-20 0)
(0.000607708 -0.00039568 3.29286e-19 -0.000265462 6.17996e-20 0)
(0.00276451 0.000230459 1.78006e-18 -0.00122596 7.39258e-19 0)
(0.000881542 -0.000679371 0 -0.000836552 0 0)
(0.000512814 0.000163208 -1.15071e-19 -0.00142262 -1.79731e-18 0)
(0.00221956 -0.000487 -2.09232e-19 -0.00123193 -3.81175e-19 0)
(0.002196 -0.000486307 1.23427e-18 -0.0012152 6.42884e-19 0)
(0.00145507 -0.000205632 0 -0.000415973 0 0)
(0.000936114 -0.000456537 0 -0.00105577 0 0)
(0.000591859 4.90984e-05 -6.38145e-19 -0.00124942 -1.19863e-18 0)
(0.00274816 0.000112786 -1.93982e-18 -0.00128745 -1.82109e-18 0)
(0.00209394 0.000490506 -2.11971e-18 -0.000837916 -2.3012e-18 0)
(0.000742097 -5.0953e-05 5.93447e-19 -0.000149842 -1.76908e-20 0)
(0.000985315 -0.000567496 1.28504e-18 -0.000351534 2.66161e-19 0)
(0.0017996 -0.000676508 -4.44615e-19 -0.000916376 -1.77792e-19 0)
(0.00518381 -0.00247799 1.75859e-18 -0.00297764 1.84743e-19 0)
(0.00140366 -7.75014e-05 1.80276e-20 -0.000298265 -6.66452e-21 0)
(0.0028596 0.000601872 -3.42853e-19 -0.00130976 -6.13154e-19 0)
(0.00206276 -0.00052942 -2.03614e-18 -0.00129541 -1.1978e-18 0)
(0.00205754 -0.000503432 1.88067e-18 -0.00130852 1.18762e-18 0)
(0.00239264 -0.000316392 8.00599e-19 -0.00103994 8.68589e-20 0)
(0.00160313 -6.17906e-05 6.03382e-19 -0.000675502 2.67655e-19 0)
(0.00201671 -0.000436531 -1.54162e-19 -0.000844667 -2.3367e-20 0)
(0.00146798 -0.000329762 -1.25084e-18 -0.000471012 1.26421e-21 0)
(0.00171361 -0.000201057 9.69591e-20 -0.000718897 1.39195e-19 0)
(0.00131031 -0.000626264 4.27969e-19 -0.00110773 1.86894e-19 0)
(0.0015954 -0.000133861 1.94448e-18 -0.000635427 6.27184e-19 0)
(0.00155146 -0.000129395 -6.5565e-20 -0.000593276 3.70315e-20 0)
(0.00243161 -0.000222357 -2.32537e-19 -0.00102776 4.05055e-20 0)
(0.00244103 0.000481722 6.1622e-19 -0.00107062 1.63737e-19 0)
(0.00113814 -0.000317487 -1.18996e-18 -0.00027604 -2.26665e-19 0)
(0.000396401 -0.000336012 5.82021e-19 -0.000424687 2.579e-19 0)
(0.00271749 4.23656e-05 1.35199e-18 -0.00126521 1.08281e-18 0)
(0.0027122 2.38221e-05 8.39271e-19 -0.00128048 4.65675e-19 0)
(0.000397613 -0.000367193 -2.93745e-19 -0.000420172 -6.12744e-20 0)
(0.0030728 0.000163714 2.53235e-18 -0.00148494 1.37717e-18 0)
(0.000845565 -0.00041226 3.94386e-19 -0.000252182 1.21813e-19 0)
(0.00107463 -0.000336923 6.60808e-19 -0.000265605 -1.45304e-20 0)
(0.0012213 -0.000146029 -8.77869e-19 -0.000278488 -1.93953e-19 0)
(0.00179858 -0.000570791 -1.2469e-18 -0.000751272 -2.66428e-19 0)
(0.00158349 -5.6889e-05 -2.50707e-19 -0.000660667 1.62962e-19 0)
(0.000420302 -0.000284292 -3.98793e-19 -0.000307953 -1.70349e-19 0)
(0.00128598 -3.12757e-05 2.33531e-19 -0.000276347 -1.73371e-19 0)
(0.00158714 -2.66698e-05 1.62851e-18 -0.000670371 3.14517e-19 0)
(0.00158019 -2.60978e-05 -3.95019e-19 -0.000671196 1.41681e-19 0)
(0.00137973 -5.00577e-05 -6.6081e-19 -0.000233798 -1.63463e-19 0)
(0.00137774 -5.96168e-05 8.77666e-20 -0.000254405 3.38525e-21 0)
(0.00136375 -0.000680201 -1.65037e-19 -0.00112676 -2.69295e-19 0)
(0.000714708 -4.23917e-05 -2.79502e-19 -0.000157329 8.96877e-20 0)
(0.00208914 -2.3261e-05 6.76414e-19 -0.000896085 3.19631e-19 0)
(0.0016204 -0.000668401 -3.55164e-18 -0.000702665 -6.7458e-19 0)
(0.00192178 -0.00062587 -1.98005e-19 -0.000929668 -2.26147e-19 0)
(0.0018528 -0.000332597 -3.77379e-19 -0.000775732 2.28046e-19 0)
(0.00158961 -0.000234935 -8.26752e-19 -0.000608357 -5.11858e-19 0)
(0.00113421 -0.00021923 4.7963e-19 -0.000256242 6.80856e-20 0)
(0.00156795 -7.65639e-06 1.23876e-19 -0.000664451 -3.14083e-19 0)
(0.00236314 -5.77972e-05 7.57516e-19 -0.000997512 5.05368e-19 0)
(0.00126887 -0.000441442 -5.82295e-20 -0.00037442 7.39426e-20 0)
(0.00234772 -0.000371046 -8.83997e-19 -0.00117014 -5.29095e-19 0)
(0.00176727 -0.00028297 -5.32992e-19 -0.000723129 1.85848e-19 0)
(0.000641013 -0.000103495 2.42193e-18 -0.00110901 1.33072e-18 0)
(0.00122527 -0.000375542 1.06425e-18 -0.000335598 2.13202e-19 0)
(0.00485729 -0.00030553 -1.05417e-19 -0.00190034 -7.15232e-19 0)
(0.00272383 -7.79237e-05 -2.67467e-18 -0.00122372 -1.71651e-18 0)
(0.00274827 -6.31909e-05 -1.66617e-18 -0.00122522 -1.07369e-18 0)
(0.00115483 -0.000486322 5.64877e-19 -0.000349748 -1.96473e-19 0)
(0.0028797 0.000537427 -1.17688e-18 -0.000958616 -8.70532e-19 0)
(0.0028597 0.000386533 -5.70872e-19 -0.0013989 -3.81635e-21 0)
(0.00189112 -0.000658211 -1.20182e-18 -0.00107544 -5.42228e-19 0)
(0.00129927 -6.61691e-05 -1.70735e-18 -0.000283997 4.63205e-21 0)
(0.00187104 -0.000672906 -1.28959e-19 -0.00109085 -1.92951e-19 0)
(0.00280056 0.000425953 2.0286e-18 -0.00133312 1.73637e-18 0)
(0.00177818 -0.000650742 -1.35182e-18 -0.00079605 -2.43407e-19 0)
(0.00179353 -0.000383121 8.41981e-19 -0.000739397 3.20472e-19 0)
(0.00198325 -0.000601654 -6.5448e-19 -0.00107311 -2.74695e-19 0)
(0.00299818 0.000405833 1.46634e-18 -0.0014571 1.00159e-18 0)
(0.00140432 -0.000314734 -1.14705e-18 -0.000417277 -3.15935e-19 0)
(0.000699678 -0.000192466 1.15023e-18 -0.000847204 1.19198e-18 0)
(0.00166054 -0.000115787 -4.70844e-20 -0.000692168 2.50133e-20 0)
(0.00165142 -0.000108224 -1.32225e-18 -0.000697497 2.45312e-20 0)
(0.00156376 1.0487e-06 0 -0.000673328 0 0)
(0.00131525 -3.34515e-06 6.79625e-19 -9.26886e-05 5.39931e-21 0)
(0.00174931 -7.37488e-05 -8.86157e-19 -0.000751914 -9.33432e-19 0)
(0.00293902 -0.000246857 1.68161e-18 -0.00137137 8.70709e-19 0)
(0.00095199 -3.71259e-05 -4.78157e-19 -0.00017942 2.79089e-20 0)
(0.00283074 0.000123771 3.04636e-18 -0.00149454 2.97026e-18 0)
(0.00100749 -0.000716289 1.82659e-18 -0.000841052 1.1838e-18 0)
(0.00164577 -0.000345486 -1.39837e-18 -0.000632112 -8.45279e-20 0)
(0.00237163 -0.000346702 -1.61083e-18 -0.00131197 -1.18119e-18 0)
(0.00137046 -5.33131e-05 2.64827e-19 -0.000221946 6.95565e-20 0)
(0.00139707 -0.000154115 -4.84393e-19 -0.000323804 -1.21233e-19 0)
(0.00172324 -0.000687873 1.31009e-18 -0.000841058 3.73105e-19 0)
(0.00170999 -0.000695863 -8.60942e-19 -0.000843913 -2.51292e-19 0)
(0.00278888 0.000200277 -1.90167e-18 -0.001225 -1.61941e-18 0)
(0.000579314 -0.000231315 -1.02443e-18 -0.00109877 -6.40854e-19 0)
(0.00180781 -0.000571721 -3.07943e-18 -0.000748116 -5.06235e-19 0)
(0.00150614 -0.000662895 -4.32522e-19 -0.000616592 -2.61694e-19 0)
(0.000992073 -0.00061375 -8.04681e-19 -0.000398451 -1.93378e-19 0)
(0.00166662 -0.000684286 -2.14923e-18 -0.00122112 -1.5955e-18 0)