/*--------------------------------*- C++ -*----------------------------------*\
| =========                 |                                                 |
| \\      /  F ield         | OpenFOAM: The Open Source CFD Toolbox           |
|  \\    /   O peration     | Version:  v2012                                 |
|   \\  /    A nd           | Website:  www.openfoam.com                      |
|    \\/     M anipulation  |                                                 |
\*---------------------------------------------------------------------------*/
FoamFile
{
    version     2.0;
    format      ascii;
    class       pointSymmTensorField;
    location    "1";
    object      pEpsilon;
}
// * * * * * * * * * * * * * * * * * * * * * * * * * * * * * * * * * * * * * //

dimensions      [0 0 0 0 0 0 0];


internalField   nonuniform List<symmTensor> 
51993
(
(-5.8289e-06 -1.00847e-07 3.90874e-08 2.03617e-05 6.11025e-08 -6.08583e-06)
(-4.69756e-05 4.58404e-07 1.80355e-05 -8.05198e-08 -2.48351e-07 2.85158e-06)
(2.09291e-05 -2.17139e-07 8.85729e-07 -5.9875e-06 -2.68665e-07 -5.88414e-06)
(3.30327e-07 1.40977e-06 -1.77029e-06 -6.86145e-05 2.73049e-05 4.94258e-06)
(-3.02382e-06 1.24129e-08 7.00925e-08 1.50031e-05 4.85718e-08 -5.09815e-06)
(9.51925e-06 -4.91154e-07 1.02371e-07 -2.23702e-05 1.6622e-06 4.81495e-06)
(1.59757e-05 -7.36087e-06 2.02383e-06 -3.00994e-06 -4.56381e-07 -5.19597e-06)
(1.31334e-06 -1.35514e-05 5.39838e-07 -3.17004e-06 1.42832e-06 6.65928e-07)
(-2.11552e-05 -2.83261e-05 1.34942e-05 -3.7197e-05 1.8699e-05 3.08715e-06)
(-1.61799e-05 7.82364e-06 2.02168e-06 4.8867e-06 -6.34273e-07 7.68765e-07)
(-2.1649e-05 5.03743e-07 6.60141e-07 8.07075e-06 -1.16284e-07 1.9445e-06)
(-9.74813e-06 4.86932e-07 1.64459e-07 2.37839e-05 1.72777e-06 -9.14871e-06)
(-1.15095e-06 1.42198e-05 5.71722e-07 4.11369e-06 9.10159e-07 -4.60785e-06)
(4.85003e-06 -7.11307e-09 3.68501e-08 -1.66327e-05 5.41627e-08 1.4795e-06)
(8.30987e-06 6.69787e-08 2.50742e-08 -2.31287e-05 -1.97118e-08 2.76333e-06)
(5.0647e-05 -7.69415e-07 2.26381e-05 -3.1968e-08 -5.048e-07 -4.01154e-06)
(2.2535e-05 2.96223e-05 1.62898e-05 3.90153e-05 2.29231e-05 -3.78446e-06)
(-1.68919e-07 -1.47861e-06 -2.31906e-06 7.27447e-05 3.24105e-05 -6.12141e-06)
(1.60044e-05 -8.3116e-06 6.62909e-07 -1.77075e-06 -1.48312e-07 -6.56053e-06)
(1.48142e-05 -9.74348e-06 8.98463e-07 -6.36011e-07 -1.86943e-07 -6.25188e-06)
(1.34752e-05 -1.08313e-05 1.07934e-06 6.57121e-07 -2.43802e-07 -6.61652e-06)
(1.26305e-05 -1.15982e-05 5.90522e-07 1.61412e-06 6.07344e-08 -6.46929e-06)
(1.17494e-05 -1.1979e-05 7.97694e-07 2.58097e-06 3.72075e-08 -6.52035e-06)
(1.04387e-05 -1.21917e-05 7.06812e-07 2.83486e-06 9.82089e-08 -5.98862e-06)
(9.35115e-06 -1.22809e-05 4.41396e-07 2.7869e-06 2.855e-07 -5.47133e-06)
(8.49047e-06 -1.22234e-05 6.55436e-07 2.72794e-06 2.26743e-07 -4.13743e-06)
(7.96629e-06 -1.23984e-05 4.81755e-07 2.66924e-06 1.57431e-07 -5.02707e-06)
(6.91065e-06 -1.26133e-05 3.61349e-07 2.67216e-06 2.93365e-07 -4.65218e-06)
(6.16789e-06 -1.26487e-05 5.06018e-08 2.23113e-06 9.47743e-07 -3.23558e-06)
(5.16779e-06 -1.26616e-05 5.95914e-07 1.76745e-06 9.03258e-07 -3.26337e-06)
(4.54762e-06 -1.28705e-05 4.13289e-07 8.87296e-07 7.72364e-07 -2.7034e-06)
(3.99063e-06 -1.29427e-05 4.12301e-07 2.50674e-07 8.19587e-07 -2.3835e-06)
(3.20589e-06 -1.34053e-05 5.13502e-07 -6.40901e-07 5.31573e-07 -1.86567e-06)
(2.54258e-06 -1.34016e-05 1.01997e-06 -1.75188e-06 8.03686e-07 -2.80919e-07)
(5.94851e-07 -1.40535e-05 8.29427e-07 -4.35776e-06 1.41941e-06 1.14383e-06)
(-3.46016e-07 -1.44997e-05 8.25958e-07 -5.35403e-06 1.40204e-06 2.35722e-06)
(-6.39593e-07 -1.48389e-05 6.84465e-07 -6.74157e-06 1.55278e-06 1.96378e-06)
(-2.09706e-06 -1.55761e-05 7.76744e-07 -7.74943e-06 1.3692e-06 3.50681e-06)
(-2.8285e-06 -1.60271e-05 1.00749e-06 -9.39363e-06 1.99843e-06 4.81287e-06)
(-3.60943e-06 -1.57347e-05 8.87167e-07 -1.10435e-05 1.29354e-06 5.30346e-06)
(-5.30657e-06 -1.69204e-05 7.3374e-07 -1.27568e-05 1.05989e-06 7.32751e-06)
(-5.90948e-06 -1.75954e-05 8.34297e-07 -1.42051e-05 1.2591e-06 6.90742e-06)
(-7.58995e-06 -1.82263e-05 8.96479e-07 -1.62993e-05 1.84403e-06 9.87031e-06)
(-8.24222e-06 -1.84043e-05 1.59243e-06 -1.79724e-05 1.87007e-06 9.8891e-06)
(-1.01327e-05 -2.03402e-05 1.0756e-06 -2.00603e-05 1.73273e-06 1.22262e-05)
(-1.12319e-05 -2.04564e-05 1.39956e-06 -2.14188e-05 2.08488e-06 1.3131e-05)
(-1.15553e-05 -2.05279e-05 1.11894e-06 -2.35533e-05 2.26514e-06 1.33566e-05)
(-1.35317e-05 -2.2201e-05 1.18289e-06 -2.62986e-05 2.57778e-06 1.62657e-05)
(-1.44192e-05 -2.24582e-05 1.99575e-06 -2.80809e-05 2.89253e-06 1.64455e-05)
(-1.76738e-05 -2.43897e-05 2.84185e-06 -3.11024e-05 3.08574e-06 2.0337e-05)
(-2.02813e-05 -2.69339e-05 5.84076e-06 -3.49946e-05 6.47357e-06 2.04174e-05)
(1.70385e-05 -7.09565e-06 1.61278e-06 -3.58228e-06 -2.16623e-07 -5.4008e-06)
(1.72633e-05 -6.24836e-06 2.32559e-06 -4.04391e-06 -1.11808e-06 -5.49351e-06)
(1.71325e-05 -6.3824e-06 1.59262e-06 -3.37365e-06 8.69255e-08 -4.57316e-06)
(1.82836e-05 -5.67571e-06 2.02992e-06 -4.59212e-06 -7.65882e-07 -6.06042e-06)
(1.80701e-05 -5.16381e-06 2.0687e-06 -4.58606e-06 -1.23238e-07 -5.15015e-06)
(1.8564e-05 -5.19347e-06 1.22367e-06 -4.96005e-06 -3.56053e-07 -5.4477e-06)
(1.94121e-05 -5.43614e-06 5.58418e-07 -4.62561e-06 -8.72117e-08 -4.9793e-06)
(1.94366e-05 -4.5953e-06 1.47903e-06 -4.90246e-06 -1.94906e-07 -5.85428e-06)
(1.98085e-05 -4.27768e-06 1.08069e-06 -5.60107e-06 -3.73379e-07 -5.29741e-06)
(2.00118e-05 -3.73417e-06 1.11503e-06 -5.23833e-06 6.99632e-08 -5.6606e-06)
(1.92437e-05 -3.35615e-06 6.14226e-07 -5.42068e-06 -1.15631e-07 -4.97425e-06)
(2.06106e-05 -3.24145e-06 3.74962e-07 -5.55706e-06 2.6538e-07 -5.42535e-06)
(2.11438e-05 -2.27695e-06 1.13968e-06 -6.35241e-06 -2.61014e-07 -5.86294e-06)
(2.05846e-05 -2.0295e-06 5.04704e-07 -5.82989e-06 2.27761e-07 -5.22165e-06)
(2.11467e-05 -1.95267e-06 -1.06338e-07 -6.07381e-06 -6.78041e-08 -5.92983e-06)
(2.11143e-05 -1.20467e-06 4.03605e-07 -5.61829e-06 1.10686e-07 -6.19298e-06)
(2.09031e-05 -8.08322e-07 -8.14831e-08 -5.89905e-06 -3.24405e-07 -5.36027e-06)
(2.13048e-05 -2.12273e-07 4.11959e-07 -6.08108e-06 2.15355e-08 -5.94886e-06)
(1.55913e-05 -7.50794e-06 2.59075e-06 -2.38504e-06 -7.50653e-08 -4.09551e-06)
(1.4868e-05 -8.21403e-06 2.08005e-06 -1.97502e-06 -6.74903e-07 -5.62528e-06)
(1.42298e-05 -7.63031e-06 2.66115e-06 -2.46748e-06 -1.13663e-06 -4.36316e-06)
(1.40787e-05 -8.40253e-06 2.29956e-06 -1.6467e-06 -6.51889e-07 -4.12582e-06)
(1.35587e-05 -8.73232e-06 1.93083e-06 -1.16785e-06 -6.8248e-07 -4.49795e-06)
(1.29364e-05 -8.7587e-06 2.14509e-06 -9.96075e-07 -1.216e-06 -5.38214e-06)
(1.23874e-05 -9.03791e-06 2.09022e-06 -5.47879e-07 -7.46856e-07 -4.8552e-06)
(1.13811e-05 -8.95129e-06 2.63557e-06 -2.38589e-07 -1.30159e-06 -3.96141e-06)
(1.12254e-05 -9.6554e-06 2.52609e-06 1.10601e-06 -6.21378e-07 -4.40885e-06)
(1.06787e-05 -9.40806e-06 2.38113e-06 5.67294e-07 -1.03899e-06 -3.94313e-06)
(9.77031e-06 -9.5423e-06 1.97203e-06 1.28314e-06 -1.12882e-06 -4.32459e-06)
(9.37362e-06 -9.29346e-06 2.74127e-06 9.26779e-07 -1.64667e-06 -4.18678e-06)
(9.20684e-06 -9.49879e-06 2.69675e-06 1.8248e-06 -1.9753e-06 -4.10298e-06)
(8.35749e-06 -1.02512e-05 2.30195e-06 3.16479e-06 -7.45339e-07 -3.65509e-06)
(7.98871e-06 -9.92274e-06 2.07814e-06 2.35635e-06 -1.58268e-06 -4.79118e-06)
(7.61168e-06 -9.69311e-06 2.29094e-06 3.31486e-06 -1.15904e-06 -3.84308e-06)
(6.9877e-06 -9.90498e-06 2.53749e-06 3.92759e-06 -1.32622e-06 -3.68988e-06)
(6.63509e-06 -9.61416e-06 2.21e-06 4.0548e-06 -1.54621e-06 -4.47073e-06)
(5.89683e-06 -9.75329e-06 2.37762e-06 4.0084e-06 -1.93776e-06 -4.3218e-06)
(5.90384e-06 -9.43514e-06 2.27669e-06 4.57207e-06 -2.14829e-06 -4.4095e-06)
(5.30533e-06 -1.02494e-05 1.85618e-06 5.04147e-06 -1.92285e-06 -4.46718e-06)
(4.8343e-06 -9.5869e-06 2.19271e-06 5.51148e-06 -1.9641e-06 -4.13298e-06)
(4.39708e-06 -9.81697e-06 1.85795e-06 5.69355e-06 -2.17445e-06 -4.25653e-06)
(4.44561e-06 -9.69465e-06 2.42945e-06 6.5172e-06 -1.49299e-06 -4.11676e-06)
(3.95136e-06 -9.78082e-06 1.83762e-06 6.66642e-06 -2.06367e-06 -4.4354e-06)
(3.6792e-06 -9.78576e-06 1.60347e-06 7.25881e-06 -1.31539e-06 -4.03408e-06)
(2.64998e-06 -9.70311e-06 1.54454e-06 7.95545e-06 -1.46178e-06 -4.26001e-06)
(2.51804e-06 -9.46839e-06 1.68346e-06 8.47743e-06 -1.62106e-06 -4.16167e-06)
(1.52264e-06 -9.60801e-06 1.13255e-06 9.15437e-06 -1.95531e-06 -4.76158e-06)
(1.52214e-06 -9.74676e-06 1.42102e-06 9.4105e-06 -1.86325e-06 -4.60001e-06)
(1.44239e-06 -9.28358e-06 1.41094e-06 1.01691e-05 -1.96556e-06 -4.42724e-06)
(5.76771e-07 -9.50909e-06 9.14671e-07 1.08753e-05 -2.18133e-06 -4.83928e-06)
(7.45312e-08 -9.04954e-06 7.26474e-07 1.16577e-05 -1.34864e-06 -4.99201e-06)
(-4.29583e-07 -9.21455e-06 7.96892e-07 1.18449e-05 -1.45595e-06 -4.96892e-06)
(-2.89164e-07 -9.01684e-06 9.86813e-07 1.22553e-05 -1.7879e-06 -4.77012e-06)
(-8.03598e-07 -8.87184e-06 8.21235e-07 1.33865e-05 -1.44936e-06 -4.91501e-06)
(-1.23419e-06 -8.33277e-06 6.28419e-07 1.38757e-05 -1.25632e-06 -5.16062e-06)
(-1.78578e-06 -8.2241e-06 4.45179e-07 1.42894e-05 -1.54839e-06 -5.14671e-06)
(-1.85553e-06 -7.84225e-06 4.66855e-07 1.47742e-05 -1.38592e-06 -5.20277e-06)
(-2.67773e-06 -7.81762e-06 3.01499e-07 1.54496e-05 -1.39652e-06 -5.2588e-06)
(-2.89803e-06 -7.17953e-06 4.10156e-07 1.62011e-05 -1.00159e-06 -5.35856e-06)
(-3.17927e-06 -6.95565e-06 3.86741e-07 1.66564e-05 -1.05773e-06 -5.30289e-06)
(-3.53594e-06 -6.51658e-06 1.74911e-07 1.72495e-05 -7.96291e-07 -5.71835e-06)
(-4.15981e-06 -6.20577e-06 4.16438e-08 1.76428e-05 -8.85245e-07 -5.69302e-06)
(-4.31629e-06 -5.51313e-06 -2.31361e-08 1.80657e-05 -6.83509e-07 -5.80783e-06)
(-4.66105e-06 -5.23667e-06 -2.39177e-08 1.8371e-05 -6.40607e-07 -5.69288e-06)
(-4.95295e-06 -4.51534e-06 -1.29168e-07 1.88513e-05 -4.78773e-07 -5.87529e-06)
(-5.01491e-06 -4.16145e-06 2.96146e-08 1.91447e-05 -5.59349e-07 -5.75235e-06)
(-5.22938e-06 -3.64231e-06 -3.83738e-08 1.95481e-05 -4.80867e-07 -5.9836e-06)
(-5.45408e-06 -3.01638e-06 -1.16392e-07 1.98195e-05 -2.2619e-07 -6.05272e-06)
(-5.63357e-06 -2.38151e-06 -1.49089e-07 1.98886e-05 -1.67856e-07 -6.02304e-06)
(-5.65794e-06 -2.0318e-06 -1.61606e-07 2.00529e-05 -3.19352e-07 -5.98978e-06)
(-5.89636e-06 -1.44576e-06 -9.28685e-08 2.01878e-05 -1.42719e-07 -5.91908e-06)
(-5.85579e-06 -1.05461e-06 -1.08137e-07 2.02479e-05 -1.53114e-07 -6.04649e-06)
(-5.83477e-06 -6.09642e-07 -1.05497e-07 2.0388e-05 -2.65436e-08 -6.07785e-06)
(-5.4829e-06 1.45831e-08 2.13709e-08 1.9537e-05 6.79161e-10 -6.17782e-06)
(-4.87084e-06 4.57913e-08 -5.92009e-08 1.87842e-05 5.81952e-08 -5.92598e-06)
(-4.46502e-06 1.85768e-09 -4.74354e-08 1.81044e-05 7.66892e-08 -5.75914e-06)
(-4.09719e-06 1.46401e-08 -5.85439e-09 1.74377e-05 4.54028e-08 -5.69698e-06)
(-3.7568e-06 3.63637e-08 -6.12061e-09 1.68694e-05 4.003e-08 -5.64981e-06)
(-3.4296e-06 4.63745e-08 -1.58234e-08 1.64751e-05 6.93254e-08 -5.57847e-06)
(-3.28719e-06 -1.39202e-08 -7.19716e-09 1.60541e-05 8.54454e-08 -5.40854e-06)
(-3.18997e-06 1.04923e-08 2.77591e-08 1.57733e-05 5.0335e-08 -5.3775e-06)
(-3.07198e-06 -1.87353e-08 7.0333e-08 1.53837e-05 5.15008e-08 -5.2001e-06)
(-3.0561e-06 1.43913e-08 4.75102e-08 1.48326e-05 6.92889e-08 -5.05774e-06)
(-3.06124e-06 -1.91878e-08 7.59573e-08 1.46368e-05 3.40194e-08 -4.97411e-06)
(-3.16903e-06 -2.19881e-08 9.22757e-08 1.4515e-05 1.8079e-08 -4.88144e-06)
(-3.25872e-06 -3.10646e-08 1.05398e-07 1.43131e-05 5.40588e-08 -4.77351e-06)
(-3.42095e-06 -3.72687e-08 1.20296e-07 1.42113e-05 7.34224e-08 -4.57161e-06)
(-3.60673e-06 -6.88164e-08 1.22995e-07 1.39811e-05 9.23638e-08 -4.51731e-06)
(-3.85572e-06 -6.18739e-08 1.14058e-07 1.38576e-05 4.48263e-08 -4.31855e-06)
(-4.09874e-06 -3.61579e-08 2.01402e-07 1.36288e-05 4.50874e-08 -3.98862e-06)
(-4.33871e-06 -4.86847e-08 2.40175e-07 1.36152e-05 8.69963e-08 -3.98602e-06)
(-4.68534e-06 -7.83124e-08 1.85917e-07 1.3601e-05 4.78803e-08 -3.86249e-06)
(-5.06246e-06 -6.48471e-08 2.3508e-07 1.34077e-05 1.25017e-07 -3.62565e-06)
(-5.33449e-06 -1.02313e-07 2.11046e-07 1.31981e-05 3.81069e-08 -3.46616e-06)
(-5.78315e-06 -1.50237e-07 2.75082e-07 1.31891e-05 2.36305e-08 -3.24082e-06)
(-6.31787e-06 -1.42125e-07 2.3526e-07 1.3276e-05 1.31245e-07 -3.02942e-06)
(-6.59909e-06 -2.06602e-07 4.04455e-07 1.31617e-05 1.38961e-07 -2.79882e-06)
(-7.08994e-06 -2.18678e-07 3.79922e-07 1.28463e-05 8.92591e-08 -2.56362e-06)
(-7.71085e-06 -1.75977e-07 3.24062e-07 1.2825e-05 6.81063e-08 -2.34244e-06)
(-8.19483e-06 -1.48413e-07 4.79032e-07 1.28375e-05 7.59387e-08 -1.88453e-06)
(-8.69295e-06 -1.58345e-07 5.14391e-07 1.25067e-05 6.16414e-08 -1.71783e-06)
(-9.42235e-06 -1.94248e-07 2.94316e-07 1.21696e-05 1.66143e-07 -1.34072e-06)
(-1.00739e-05 -1.44824e-07 3.73276e-07 1.21005e-05 6.52467e-08 -1.09379e-06)
(-1.06803e-05 -1.99948e-07 5.00114e-07 1.20746e-05 7.23288e-08 -8.5934e-07)
(-1.12932e-05 -1.70691e-07 6.90142e-07 1.19005e-05 2.15666e-07 -1.56613e-07)
(-1.20064e-05 -2.79202e-07 6.23728e-07 1.16425e-05 9.10155e-08 2.14732e-09)
(-1.2844e-05 -1.89899e-07 7.0692e-07 1.13685e-05 8.49256e-08 5.77534e-07)
(-1.36453e-05 -1.43313e-07 7.39518e-07 1.08572e-05 1.06368e-07 1.21188e-06)
(-1.45874e-05 -3.39166e-07 8.55281e-07 1.09522e-05 2.99806e-08 1.17212e-06)
(-1.53937e-05 -4.2944e-07 6.31609e-07 1.06859e-05 -1.36015e-09 1.60677e-06)
(-1.65554e-05 -4.71998e-07 6.08162e-07 1.0231e-05 1.97597e-07 2.38231e-06)
(-1.73186e-05 -4.72403e-07 1.00126e-06 9.9242e-06 -2.10971e-09 2.42912e-06)
(-1.82259e-05 -3.46126e-07 1.32076e-06 9.89429e-06 2.92152e-07 3.48703e-06)
(-1.90284e-05 -5.74251e-07 1.05041e-06 9.42566e-06 1.163e-07 3.64997e-06)
(-2.0331e-05 -5.26057e-07 9.76479e-07 8.93619e-06 2.52287e-07 4.86193e-06)
(-2.1672e-05 -5.06504e-07 8.60019e-07 8.47077e-06 -4.95781e-09 5.06352e-06)
(-2.30458e-05 -6.80854e-07 7.31284e-07 7.9258e-06 -4.90052e-08 5.60303e-06)
(-2.43064e-05 -6.88675e-07 1.11423e-06 7.43493e-06 -2.49916e-09 6.34043e-06)
(-2.60686e-05 -4.54918e-07 1.41098e-06 6.95035e-06 1.47109e-07 7.76519e-06)
(-2.68479e-05 -2.51053e-07 1.77873e-06 5.94946e-06 -2.39289e-08 8.37015e-06)
(-2.84686e-05 -9.74659e-07 1.29429e-06 5.44105e-06 -1.42679e-07 8.6939e-06)
(-3.07295e-05 -1.00182e-06 1.37425e-06 4.95811e-06 -2.21271e-08 1.01003e-05)
(-3.21995e-05 -2.84617e-07 2.36701e-06 4.78249e-06 4.14789e-07 1.1287e-05)
(-3.39663e-05 -5.6761e-07 2.48599e-06 4.15451e-06 -1.52325e-07 1.15719e-05)
(-3.60472e-05 -8.86473e-07 2.04432e-06 3.12557e-06 2.97822e-07 1.30668e-05)
(-3.73378e-05 -8.37394e-07 3.18451e-06 1.67481e-06 6.52283e-07 1.47848e-05)
(-4.06205e-05 -1.93279e-06 3.41893e-06 1.71457e-06 6.37915e-07 1.58967e-05)
(-4.57454e-05 -2.73607e-06 6.78696e-06 2.66784e-07 1.98529e-06 1.79058e-05)
(2.22004e-05 -4.10234e-07 1.05619e-06 -5.76693e-06 1.74829e-08 -7.09238e-06)
(2.22698e-05 -4.06218e-07 5.75505e-07 -5.51966e-06 5.12942e-07 -7.71463e-06)
(2.13647e-05 -3.03078e-07 4.15326e-07 -4.94406e-06 3.49653e-07 -7.6476e-06)
(2.12083e-05 -2.71325e-07 1.65971e-07 -4.53215e-06 1.43274e-07 -7.32088e-06)
(2.0736e-05 -1.11734e-07 2.21391e-07 -4.21843e-06 4.06224e-07 -7.34557e-06)
(1.98978e-05 -4.5274e-07 5.73931e-07 -4.34433e-06 4.35072e-07 -7.21702e-06)
(1.93033e-05 -4.65297e-07 1.31318e-07 -4.55688e-06 5.13923e-07 -6.75489e-06)
(1.85663e-05 -4.28358e-07 1.90438e-07 -4.55323e-06 7.74434e-07 -6.04278e-06)
(1.78581e-05 -5.00077e-07 3.06852e-07 -5.0763e-06 8.37791e-07 -5.71641e-06)
(1.763e-05 -4.88412e-07 -1.10021e-07 -5.43232e-06 6.78508e-07 -5.7184e-06)
(1.69514e-05 -4.24688e-07 4.94233e-07 -6.08887e-06 6.61324e-07 -4.97408e-06)
(1.61456e-05 -3.02095e-07 7.78467e-07 -6.78249e-06 9.80613e-07 -4.01192e-06)
(1.55312e-05 -5.80771e-07 4.3188e-08 -7.41398e-06 1.15048e-06 -4.04843e-06)
(1.52061e-05 -4.29566e-07 2.05678e-07 -8.94043e-06 8.81342e-07 -3.08582e-06)
(1.43758e-05 -5.24223e-07 2.37158e-07 -1.01273e-05 9.921e-07 -2.5621e-06)
(1.38673e-05 -2.99877e-07 1.53832e-07 -1.14399e-05 8.99439e-07 -1.61091e-06)
(1.32444e-05 -5.54317e-07 5.6788e-07 -1.30143e-05 1.06784e-06 -2.25989e-07)
(1.21187e-05 -3.63384e-07 5.48811e-07 -1.43165e-05 1.0412e-06 6.40463e-07)
(1.18741e-05 -9.37651e-07 8.20831e-07 -1.62356e-05 7.69253e-07 1.5367e-06)
(1.17465e-05 -4.55738e-07 3.99651e-07 -1.82279e-05 1.23222e-06 1.29103e-06)
(1.08731e-05 -2.31197e-07 4.70298e-07 -2.03019e-05 1.11178e-06 3.40929e-06)
(9.31995e-06 -1.36885e-06 3.98272e-07 -2.50298e-05 1.15159e-06 6.13431e-06)
(8.69264e-06 -8.55145e-07 -1.69392e-07 -2.6797e-05 2.22981e-06 6.07338e-06)
(7.56395e-06 -1.03314e-06 1.29055e-07 -3.00742e-05 1.19758e-06 8.55431e-06)
(7.07784e-06 -1.07365e-06 4.46271e-08 -3.23765e-05 2.1613e-06 9.55996e-06)
(6.87139e-06 -1.04102e-06 -4.9731e-07 -3.41414e-05 1.96287e-06 9.78726e-06)
(5.5706e-06 -4.57034e-07 -2.38876e-07 -3.86972e-05 2.30801e-06 1.36249e-05)
(5.12497e-06 -5.92763e-07 -3.25773e-07 -4.08878e-05 3.18924e-06 1.37805e-05)
(4.24031e-06 -6.00377e-07 7.74167e-07 -4.29489e-05 2.67173e-06 1.52128e-05)
(2.67673e-06 -9.9007e-07 5.8227e-07 -4.65196e-05 2.64951e-06 1.78957e-05)
(1.92861e-06 -2.06117e-06 2.56046e-07 -5.03232e-05 3.93538e-06 1.86491e-05)
(1.51463e-06 -2.5399e-06 1.74537e-06 -5.34541e-05 3.79868e-06 1.9853e-05)
(9.21778e-07 -4.13875e-06 2.81403e-06 -6.15192e-05 8.22949e-06 2.51791e-05)
(-3.00509e-06 -6.89947e-08 6.72924e-08 1.50625e-05 -4.54815e-08 -5.03206e-06)
(-2.99049e-06 -1.19933e-07 3.7564e-08 1.50319e-05 -3.19913e-08 -5.16496e-06)
(-3.02766e-06 -1.49464e-07 6.66575e-08 1.50255e-05 -2.88456e-08 -5.06175e-06)
(-3.02263e-06 -1.74167e-07 9.14397e-08 1.50636e-05 2.97394e-08 -5.0881e-06)
(-3.07687e-06 -2.57173e-07 6.37751e-08 1.51045e-05 -8.02684e-09 -5.10678e-06)
(-3.11948e-06 -3.18219e-07 7.95978e-08 1.50382e-05 -6.36833e-08 -5.02509e-06)
(-3.18797e-06 -3.63489e-07 6.71981e-08 1.50804e-05 -7.24649e-08 -4.97611e-06)
(-3.20442e-06 -4.617e-07 1.12482e-07 1.50255e-05 -7.97142e-08 -4.97569e-06)
(-3.29441e-06 -5.6848e-07 1.46767e-07 1.50307e-05 -8.47474e-08 -5.00386e-06)
(-3.39367e-06 -5.97843e-07 1.50191e-07 1.49983e-05 -7.10526e-08 -4.82028e-06)
(-3.45154e-06 -6.48436e-07 9.05668e-08 1.51075e-05 -1.48556e-07 -4.89346e-06)
(-3.5211e-06 -7.49173e-07 1.05196e-07 1.51224e-05 -5.22597e-08 -4.90946e-06)
(-3.66524e-06 -8.65012e-07 1.70391e-07 1.51604e-05 -7.31624e-08 -4.8424e-06)
(-3.7988e-06 -9.75042e-07 1.99054e-07 1.51574e-05 -4.67444e-08 -4.69253e-06)
(-3.86616e-06 -1.09223e-06 1.38867e-07 1.51505e-05 -8.09391e-08 -4.72761e-06)
(-4.0595e-06 -1.17738e-06 1.77858e-07 1.51665e-05 -6.56206e-08 -4.65631e-06)
(-4.21503e-06 -1.27738e-06 1.56585e-07 1.51657e-05 -6.33878e-08 -4.51605e-06)
(-4.37212e-06 -1.42065e-06 2.17752e-07 1.52843e-05 -3.63265e-08 -4.56062e-06)
(-4.55746e-06 -1.52142e-06 2.21528e-07 1.51943e-05 -1.69492e-07 -4.33429e-06)
(-4.61659e-06 -1.68712e-06 1.63823e-07 1.52627e-05 -2.43169e-07 -4.35886e-06)
(-4.82509e-06 -1.90135e-06 1.97465e-07 1.54009e-05 -2.30437e-07 -4.32716e-06)
(-5.05121e-06 -2.07917e-06 2.71529e-07 1.53248e-05 -2.22245e-07 -4.33107e-06)
(-5.19655e-06 -2.26191e-06 3.00947e-07 1.53251e-05 -9.60748e-08 -4.11114e-06)
(-5.22114e-06 -2.49137e-06 2.32244e-07 1.52342e-05 -1.91704e-07 -3.99021e-06)
(-5.44741e-06 -2.74534e-06 3.61694e-07 1.54027e-05 -2.04919e-08 -4.1653e-06)
(-5.75484e-06 -2.88981e-06 2.85555e-07 1.55024e-05 -1.73182e-07 -3.95393e-06)
(-5.83695e-06 -3.0299e-06 3.75891e-07 1.55605e-05 -3.09204e-08 -3.98804e-06)
(-5.93395e-06 -3.23139e-06 3.95666e-07 1.50952e-05 -2.18657e-07 -3.51395e-06)
(-6.21822e-06 -3.64236e-06 3.89825e-07 1.53149e-05 -5.0587e-08 -3.6074e-06)
(-6.28488e-06 -4.02979e-06 4.30729e-07 1.52523e-05 -1.84045e-07 -3.42428e-06)
(-6.22591e-06 -4.37118e-06 3.88057e-07 1.51841e-05 -2.75452e-09 -3.39629e-06)
(-6.35932e-06 -4.71899e-06 3.90906e-07 1.50087e-05 7.92381e-08 -3.43075e-06)
(-6.59808e-06 -5.01764e-06 3.82984e-07 1.51149e-05 5.25213e-08 -3.39313e-06)
(-6.73147e-06 -5.38781e-06 3.73415e-07 1.48613e-05 7.56102e-08 -3.21285e-06)
(-6.75468e-06 -5.76003e-06 5.27124e-07 1.46428e-05 2.13023e-09 -2.99429e-06)
(-6.77009e-06 -6.08291e-06 6.46973e-07 1.44875e-05 1.27838e-08 -2.89307e-06)
(-6.82329e-06 -6.41624e-06 4.63041e-07 1.45005e-05 -8.4552e-09 -3.05156e-06)
(-6.87856e-06 -6.80282e-06 5.71491e-07 1.43299e-05 -1.79199e-07 -2.90804e-06)
(-6.47243e-06 -7.19473e-06 6.38299e-07 1.37837e-05 6.76361e-08 -2.84616e-06)
(-6.55912e-06 -7.69984e-06 4.95486e-07 1.35564e-05 3.31094e-07 -2.75488e-06)
(-6.59587e-06 -7.95771e-06 5.28675e-07 1.33582e-05 1.34293e-07 -2.77572e-06)
(-6.57992e-06 -8.37373e-06 4.57089e-07 1.31216e-05 2.64677e-07 -2.23949e-06)
(-6.57603e-06 -8.70634e-06 5.45483e-07 1.29298e-05 -1.33762e-07 -2.34654e-06)
(-6.20978e-06 -9.01822e-06 6.43617e-07 1.21753e-05 8.61088e-08 -1.91096e-06)
(-6.07374e-06 -9.43788e-06 4.7683e-07 1.19822e-05 3.50206e-07 -2.42204e-06)
(-5.69174e-06 -9.63445e-06 6.10459e-07 1.15723e-05 7.56052e-08 -1.89411e-06)
(-5.72309e-06 -1.007e-05 5.84531e-07 1.11191e-05 5.05475e-07 -1.77757e-06)
(-5.26309e-06 -1.0281e-05 6.16861e-07 1.0692e-05 4.35992e-07 -2.16572e-06)
(-5.25802e-06 -1.06733e-05 7.2843e-07 9.93533e-06 4.06803e-07 -1.43986e-06)
(-5.05142e-06 -1.1261e-05 4.93638e-07 9.69657e-06 6.02361e-07 -1.50812e-06)
(-4.90233e-06 -1.14956e-05 6.154e-07 9.06277e-06 1.60221e-07 -1.56899e-06)
(-4.75677e-06 -1.16259e-05 7.0094e-07 8.32396e-06 2.23571e-07 -8.84917e-07)
(-4.25704e-06 -1.19502e-05 7.55472e-07 7.89151e-06 6.40713e-07 -1.38007e-06)
(-4.02788e-06 -1.21916e-05 8.40632e-07 7.36287e-06 3.16325e-07 -7.98433e-07)
(-3.64148e-06 -1.24276e-05 7.04869e-07 6.57999e-06 6.36352e-07 -7.22251e-07)
(-3.15422e-06 -1.2668e-05 7.68469e-07 5.50418e-06 6.51748e-07 -3.99219e-07)
(-2.83554e-06 -1.30636e-05 6.84619e-07 5.0108e-06 1.02353e-06 -5.3749e-07)
(-2.62885e-06 -1.31307e-05 1.00499e-06 4.47443e-06 6.1969e-07 -1.76235e-07)
(-2.34233e-06 -1.32473e-05 9.20647e-07 3.8503e-06 4.67354e-07 -6.97697e-08)
(-2.04393e-06 -1.33121e-05 9.22419e-07 2.70665e-06 7.34612e-07 2.65452e-07)
(-1.61174e-06 -1.35377e-05 8.95057e-07 2.05852e-06 8.7689e-07 5.86232e-07)
(-9.21829e-07 -1.37075e-05 8.52991e-07 1.17765e-06 5.66013e-07 1.8016e-07)
(-7.2323e-07 -1.36396e-05 7.45143e-07 2.57195e-07 1.08249e-06 7.69458e-07)
(-2.89881e-07 -1.37391e-05 9.61763e-07 -7.09625e-07 1.13526e-06 1.08698e-06)
(-4.32859e-08 -1.39164e-05 5.52233e-07 -1.50349e-06 1.41532e-06 1.14904e-06)
(3.71341e-07 -1.38448e-05 6.99436e-07 -2.25585e-06 1.2859e-06 1.25106e-06)
(-2.1574e-05 -2.99986e-05 1.51444e-05 -4.14303e-05 2.20305e-05 5.2944e-08)
(-2.01063e-05 -2.89897e-05 1.44057e-05 -4.10461e-05 2.16143e-05 1.09998e-07)
(-1.86164e-05 -2.72265e-05 1.33954e-05 -3.99777e-05 2.08548e-05 8.82727e-08)
(-1.83711e-05 -2.76846e-05 1.36389e-05 -4.11318e-05 2.16259e-05 1.38313e-07)
(-1.82799e-05 -2.86511e-05 1.42357e-05 -4.33927e-05 2.28791e-05 1.13914e-07)
(-1.65541e-05 -2.79203e-05 1.30912e-05 -4.63317e-05 2.30985e-05 9.48504e-08)
(-1.58277e-05 -2.68798e-05 1.34318e-05 -4.5406e-05 2.28498e-05 3.83801e-07)
(-1.52076e-05 -2.69554e-05 1.27078e-05 -4.71898e-05 2.37626e-05 2.95185e-08)
(-1.52529e-05 -2.76027e-05 1.29037e-05 -4.93481e-05 2.38972e-05 3.53348e-08)
(-1.29256e-05 -2.46582e-05 1.03988e-05 -4.63444e-05 2.09035e-05 3.26216e-06)
(-1.30246e-05 -2.62621e-05 1.22848e-05 -5.12245e-05 2.48962e-05 1.14223e-07)
(-1.20225e-05 -2.49541e-05 1.18676e-05 -5.15279e-05 2.51784e-05 1.05351e-07)
(-1.11281e-05 -2.36902e-05 1.12419e-05 -4.99654e-05 2.44339e-05 9.45682e-08)
(-1.25424e-05 -2.65155e-05 1.25358e-05 -5.58293e-05 2.74048e-05 1.01475e-07)
(-1.08257e-05 -2.53192e-05 1.12281e-05 -5.80297e-05 2.77975e-05 9.74164e-08)
(-8.86091e-06 -2.19792e-05 8.47394e-06 -5.19516e-05 2.18943e-05 4.56793e-06)
(-9.52961e-06 -2.31662e-05 1.02881e-05 -5.6635e-05 2.58108e-05 1.16717e-07)
(-8.3621e-06 -2.19013e-05 9.74183e-06 -5.63453e-05 2.65036e-05 1.21196e-07)
(-7.84113e-06 -2.12821e-05 9.34338e-06 -5.56869e-05 2.61351e-05 1.5975e-07)
(-6.66954e-06 -2.03481e-05 9.22982e-06 -5.79508e-05 2.65639e-05 1.25528e-07)
(-6.7854e-06 -1.96478e-05 8.63354e-06 -5.84614e-05 2.67351e-05 5.69787e-08)
(-6.3492e-06 -1.93469e-05 8.37548e-06 -5.87557e-05 2.67052e-05 8.19865e-08)
(-5.36946e-06 -1.84823e-05 7.67263e-06 -5.87552e-05 2.64733e-05 1.51786e-07)
(-5.80382e-06 -1.88383e-05 8.0912e-06 -6.22873e-05 2.72701e-05 3.9412e-08)
(-3.87031e-06 -1.63096e-05 7.10964e-06 -6.02071e-05 2.69594e-05 1.0807e-07)
(-3.88354e-06 -1.47077e-05 6.3e-06 -5.54631e-05 2.45126e-05 2.79556e-06)
(-3.61407e-06 -1.54408e-05 6.74498e-06 -6.23996e-05 2.81317e-05 1.07414e-07)
(-3.14684e-06 -1.41096e-05 5.77013e-06 -6.18336e-05 2.70282e-05 9.03729e-08)
(-3.26378e-06 -1.44881e-05 6.00268e-06 -6.35559e-05 2.69691e-05 7.6588e-08)
(-2.73733e-06 -1.32786e-05 5.14341e-06 -6.40925e-05 2.72583e-05 1.31281e-07)
(-2.25165e-06 -1.28523e-05 5.38606e-06 -6.3944e-05 2.77115e-05 5.68161e-08)
(-1.81356e-06 -1.1651e-05 4.84079e-06 -6.63009e-05 2.85463e-05 1.40296e-07)
(-1.53851e-06 -1.0123e-05 4.50459e-06 -6.44762e-05 2.85912e-05 1.17686e-07)
(-1.58261e-06 -9.8889e-06 4.11409e-06 -6.28897e-05 2.73799e-05 8.96327e-08)
(-1.16458e-06 -9.53161e-06 4.19624e-06 -6.74827e-05 3.01378e-05 4.32252e-09)
(-5.92803e-07 -8.15795e-06 2.99626e-06 -6.72426e-05 2.96358e-05 2.30895e-07)
(-4.82064e-07 -6.1023e-06 2.79103e-06 -6.57064e-05 2.77416e-05 8.25432e-08)
(-6.46373e-07 -7.35689e-06 3.67123e-06 -6.91207e-05 2.9791e-05 3.02192e-07)
(-2.30121e-07 -4.54983e-06 1.6416e-06 -7.13772e-05 3.08826e-05 2.3198e-07)
(-4.1381e-07 -5.20146e-06 1.82144e-06 -6.84009e-05 2.86781e-05 1.07342e-07)
(-6.22377e-07 -4.40444e-06 1.69098e-06 -6.52318e-05 2.82718e-05 1.43144e-07)
(3.65511e-07 -4.43569e-06 1.23964e-06 -6.88738e-05 3.04048e-05 1.2807e-07)
(2.39267e-07 -1.83257e-06 7.13192e-07 -6.95242e-05 3.0409e-05 1.07013e-07)
(-5.34915e-08 -1.52524e-06 1.13149e-06 -6.97358e-05 3.10552e-05 -4.31729e-08)
(-4.89301e-05 -4.91827e-07 2.0799e-05 2.648e-07 2.26513e-07 1.47482e-07)
(-5.09623e-05 -1.9554e-06 2.22857e-05 -7.39906e-08 9.56341e-07 1.36666e-07)
(-4.96068e-05 -2.80144e-06 2.10486e-05 2.08537e-09 1.31264e-06 1.26873e-07)
(-4.62742e-05 -4.00318e-06 1.81119e-05 -5.39289e-08 1.71332e-06 3.15234e-06)
(-5.1475e-05 -5.0211e-06 2.30851e-05 -3.25654e-07 1.80571e-06 1.93563e-07)
(-4.90378e-05 -6.58238e-06 2.17463e-05 -8.68067e-07 3.4262e-06 7.99059e-08)
(-4.85891e-05 -6.83907e-06 2.07628e-05 -5.0581e-07 2.74915e-06 3.16832e-07)
(-4.88704e-05 -8.9747e-06 2.15961e-05 -1.59308e-06 3.94257e-06 3.3658e-08)
(-4.89656e-05 -9.12983e-06 2.15e-05 -1.77279e-06 3.92799e-06 1.18165e-07)
(-5.01892e-05 -1.02265e-05 2.17714e-05 -1.96186e-06 4.79817e-06 2.03002e-07)
(-4.87894e-05 -1.10322e-05 2.15552e-05 -2.37527e-06 5.07332e-06 1.24979e-07)
(-4.74336e-05 -1.16384e-05 2.0588e-05 -2.73868e-06 5.31139e-06 1.20066e-07)
(-4.77943e-05 -1.2716e-05 2.13141e-05 -3.06671e-06 6.07473e-06 1.16016e-07)
(-4.72358e-05 -1.39706e-05 2.09416e-05 -3.90619e-06 6.44596e-06 1.30472e-07)
(-4.49946e-05 -1.44695e-05 2.02451e-05 -4.56922e-06 6.71146e-06 2.0372e-07)
(-4.43643e-05 -1.50142e-05 2.0433e-05 -4.77959e-06 6.94941e-06 1.45552e-07)
(-4.4937e-05 -1.62943e-05 2.0446e-05 -6.0067e-06 7.82035e-06 1.35574e-07)
(-4.59038e-05 -1.68019e-05 2.05914e-05 -6.0795e-06 7.88528e-06 1.33897e-07)
(-4.64898e-05 -1.80526e-05 2.18261e-05 -6.88037e-06 8.96008e-06 9.86475e-08)
(-4.52946e-05 -1.88222e-05 2.10404e-05 -7.41868e-06 9.66659e-06 2.23765e-07)
(-4.33855e-05 -1.92822e-05 2.02079e-05 -8.38672e-06 9.41158e-06 7.84645e-08)
(-4.18464e-05 -1.94455e-05 1.99266e-05 -8.8065e-06 9.84725e-06 1.9496e-07)
(-4.36713e-05 -2.10419e-05 2.06217e-05 -9.83689e-06 1.02266e-05 1.83199e-07)
(-4.29516e-05 -2.24574e-05 2.06978e-05 -1.17403e-05 1.15026e-05 1.04017e-07)
(-4.01218e-05 -2.10326e-05 1.86454e-05 -1.06388e-05 9.88978e-06 3.59403e-06)
(-4.33994e-05 -2.4791e-05 2.15736e-05 -1.39575e-05 1.33352e-05 2.13914e-07)
(-3.97898e-05 -2.34052e-05 1.92547e-05 -1.36689e-05 1.21011e-05 1.81899e-07)
(-3.82129e-05 -2.31943e-05 1.90117e-05 -1.36622e-05 1.19992e-05 1.30949e-07)
(-3.71004e-05 -2.40503e-05 1.89056e-05 -1.51897e-05 1.25207e-05 1.27858e-07)
(-3.772e-05 -2.56792e-05 1.99002e-05 -1.71109e-05 1.39289e-05 1.34216e-07)
(-3.96396e-05 -2.74678e-05 2.12509e-05 -1.89904e-05 1.46708e-05 1.21764e-07)
(-3.80909e-05 -2.79085e-05 2.00665e-05 -2.04605e-05 1.59572e-05 1.88002e-07)
(-3.47038e-05 -2.56458e-05 1.80448e-05 -1.87731e-05 1.43512e-05 6.89589e-08)
(-3.41562e-05 -2.61336e-05 1.79641e-05 -1.94186e-05 1.43679e-05 1.21565e-07)
(-3.44759e-05 -2.79641e-05 1.8725e-05 -2.21454e-05 1.54778e-05 1.07004e-07)
(-3.4163e-05 -2.85921e-05 1.96088e-05 -2.40779e-05 1.68243e-05 1.37693e-07)
(-3.27258e-05 -2.82487e-05 1.85126e-05 -2.39796e-05 1.72764e-05 3.0985e-07)
(-3.18696e-05 -2.86024e-05 1.7937e-05 -2.51327e-05 1.66555e-05 1.73869e-07)
(-3.04771e-05 -2.85658e-05 1.78793e-05 -2.66896e-05 1.73889e-05 7.06793e-08)
(-2.97799e-05 -2.83352e-05 1.75418e-05 -2.67033e-05 1.75552e-05 9.53848e-08)
(-2.87118e-05 -2.84422e-05 1.76249e-05 -2.78803e-05 1.81318e-05 1.04423e-07)
(-2.68609e-05 -2.80378e-05 1.60823e-05 -2.86652e-05 1.76827e-05 1.6596e-07)
(-2.56458e-05 -2.7198e-05 1.54405e-05 -2.88261e-05 1.69252e-05 1.14366e-07)
(-2.57154e-05 -2.77828e-05 1.63097e-05 -2.97047e-05 1.86172e-05 1.18948e-07)
(-2.63402e-05 -2.95737e-05 1.67848e-05 -3.24953e-05 1.95915e-05 1.43138e-07)
(-2.51274e-05 -3.01174e-05 1.66436e-05 -3.56121e-05 2.05019e-05 1.08075e-07)
(-2.36334e-05 -2.88284e-05 1.62806e-05 -3.50087e-05 2.05772e-05 1.85404e-07)
(-2.24596e-05 -2.89414e-05 1.49936e-05 -3.63794e-05 2.00478e-05 -4.77979e-08)
(-2.1242e-05 -2.741e-05 1.44258e-05 -3.57535e-05 1.91188e-05 3.1387e-08)
(1.49135e-06 -1.4075e-05 7.66006e-07 -4.35687e-06 1.25104e-06 1.6885e-06)
(1.75655e-06 -1.3551e-05 7.41261e-07 -4.97026e-06 1.31101e-06 1.57679e-06)
(2.57303e-06 -1.33219e-05 9.1659e-07 -5.79101e-06 1.46901e-06 1.65393e-06)
(2.55368e-06 -1.35151e-05 1.21258e-06 -7.39235e-06 1.51183e-06 2.75649e-06)
(2.96507e-06 -1.31453e-05 8.50531e-07 -8.11837e-06 1.4405e-06 2.76766e-06)
(3.84832e-06 -1.26664e-05 5.59308e-07 -8.83355e-06 1.54122e-06 2.54933e-06)
(4.01955e-06 -1.27795e-05 5.54204e-07 -9.93431e-06 1.67126e-06 3.11522e-06)
(4.01306e-06 -1.28245e-05 6.96603e-07 -1.07747e-05 1.70072e-06 3.57875e-06)
(4.51746e-06 -1.24121e-05 8.10214e-07 -1.12717e-05 1.56571e-06 3.75106e-06)