/*--------------------------------*- C++ -*----------------------------------*\
| =========                 |                                                 |
| \\      /  F ield         | OpenFOAM: The Open Source CFD Toolbox           |
|  \\    /   O peration     | Version:  v2012                                 |
|   \\  /    A nd           | Website:  www.openfoam.com                      |
|    \\/     M anipulation  |                                                 |
\*---------------------------------------------------------------------------*/
FoamFile
{
    version     2.0;
    format      ascii;
    class       pointVectorField;
    location    "1";
    object      pointD;
}
// * * * * * * * * * * * * * * * * * * * * * * * * * * * * * * * * * * * * * //

dimensions      [0 1 0 0 0 0 0];


internalField   nonuniform List<vector> 
51993
(
(2.50128e-05 0 -8.87928e-05)
(0 0 0)
(0 3.71159e-05 -0.000182927)
(0 0 0)
(2.46126e-05 0 -8.008e-05)
(0 2.71288e-05 -4.92276e-05)
(1.78178e-05 3.04599e-05 -0.000161533)
(1.70597e-05 2.26111e-05 -6.52794e-05)
(0 0 0)
(-1.82676e-05 -3.28502e-05 -0.000162773)
(0 -3.97442e-05 -0.000184163)
(0 -2.78569e-05 -5.04953e-05)
(-1.73877e-05 -2.34909e-05 -6.64893e-05)
(-2.54214e-05 0 -8.11614e-05)
(-2.60391e-05 0 -8.98502e-05)
(0 0 0)
(0 0 0)
(0 0 0)
(1.84119e-05 2.9811e-05 -0.00015546)
(1.88527e-05 2.92271e-05 -0.00014949)
(1.9133e-05 2.87056e-05 -0.000143527)
(1.9345e-05 2.81854e-05 -0.000137652)
(1.94589e-05 2.77569e-05 -0.000131802)
(1.94894e-05 2.73486e-05 -0.000126003)
(1.94775e-05 2.69493e-05 -0.00012024)
(1.94108e-05 2.65553e-05 -0.000114537)
(1.93018e-05 2.61919e-05 -0.000108834)
(1.91635e-05 2.58134e-05 -0.000103201)
(1.89598e-05 2.54318e-05 -9.76197e-05)
(1.8725e-05 2.50368e-05 -9.20585e-05)
(1.84605e-05 2.46209e-05 -8.65745e-05)
(1.81668e-05 2.41902e-05 -8.11448e-05)
(1.78207e-05 2.37217e-05 -7.5772e-05)
(1.7438e-05 2.31981e-05 -7.05013e-05)
(1.65886e-05 2.20158e-05 -6.02614e-05)
(1.60925e-05 2.13999e-05 -5.53751e-05)
(1.55795e-05 2.06634e-05 -5.05276e-05)
(1.49938e-05 1.98974e-05 -4.58613e-05)
(1.43396e-05 1.90274e-05 -4.13333e-05)
(1.36923e-05 1.81512e-05 -3.69113e-05)
(1.29643e-05 1.71904e-05 -3.27217e-05)
(1.21494e-05 1.61006e-05 -2.86299e-05)
(1.1289e-05 1.49168e-05 -2.48448e-05)
(1.03738e-05 1.37115e-05 -2.1166e-05)
(9.38649e-06 1.23535e-05 -1.7777e-05)
(8.28481e-06 1.09292e-05 -1.46373e-05)
(7.22063e-06 9.41988e-06 -1.17126e-05)
(6.0174e-06 7.79156e-06 -9.11973e-06)
(4.72809e-06 6.10602e-06 -6.74738e-06)
(3.34016e-06 4.3882e-06 -4.65863e-06)
(1.84891e-06 2.42408e-06 -2.57891e-06)
(1.70441e-05 3.11085e-05 -0.000163622)
(1.61987e-05 3.17468e-05 -0.000165587)
(1.54286e-05 3.23092e-05 -0.000167518)
(1.45494e-05 3.2907e-05 -0.000169267)
(1.3701e-05 3.34114e-05 -0.000171001)
(1.28323e-05 3.39045e-05 -0.000172601)
(1.19346e-05 3.43615e-05 -0.000174106)
(1.09663e-05 3.47912e-05 -0.000175461)
(1.00303e-05 3.51958e-05 -0.000176753)
(9.05341e-06 3.55513e-05 -0.000177919)
(8.12043e-06 3.58897e-05 -0.000178953)
(7.16291e-06 3.61357e-05 -0.000179868)
(6.10903e-06 3.64179e-05 -0.00018066)
(5.11922e-06 3.66019e-05 -0.000181341)
(4.1251e-06 3.67668e-05 -0.000181872)
(3.05952e-06 3.68783e-05 -0.000182287)
(2.06394e-06 3.69896e-05 -0.000182633)
(1.01618e-06 3.70678e-05 -0.000182826)
(1.85897e-05 2.97095e-05 -0.000159268)
(1.93331e-05 2.89662e-05 -0.000156895)
(1.99613e-05 2.82437e-05 -0.000154581)
(2.06329e-05 2.74831e-05 -0.000152234)
(2.12377e-05 2.67156e-05 -0.000149838)
(2.17897e-05 2.59333e-05 -0.000147423)
(2.23152e-05 2.51479e-05 -0.000145047)
(2.27675e-05 2.43831e-05 -0.000142649)
(2.3196e-05 2.35421e-05 -0.000140247)
(2.36143e-05 2.27742e-05 -0.000137892)
(2.39807e-05 2.20111e-05 -0.00013556)
(2.42755e-05 2.12406e-05 -0.00013326)
(2.4556e-05 2.04836e-05 -0.000130982)
(2.48473e-05 1.96738e-05 -0.000128768)
(2.50804e-05 1.89259e-05 -0.00012654)
(2.52666e-05 1.81585e-05 -0.000124414)
(2.54504e-05 1.74148e-05 -0.00012234)
(2.55991e-05 1.66808e-05 -0.000120273)
(2.57074e-05 1.59594e-05 -0.000118277)
(2.57841e-05 1.52549e-05 -0.000116342)
(2.58848e-05 1.45675e-05 -0.000114496)
(2.59343e-05 1.38744e-05 -0.000112698)
(2.5986e-05 1.32409e-05 -0.000110979)
(2.60011e-05 1.25815e-05 -0.000109336)
(2.60237e-05 1.19562e-05 -0.000107738)
(2.60212e-05 1.13339e-05 -0.000106228)
(2.60163e-05 1.07319e-05 -0.00010478)
(2.59857e-05 1.01542e-05 -0.000103407)
(2.59586e-05 9.59613e-06 -0.000102096)
(2.59121e-05 9.04869e-06 -0.000100871)
(2.58646e-05 8.51173e-06 -9.9709e-05)
(2.58251e-05 8.00672e-06 -9.8615e-05)
(2.57701e-05 7.50002e-06 -9.76007e-05)
(2.57196e-05 7.02871e-06 -9.66576e-05)
(2.5655e-05 6.57176e-06 -9.57761e-05)
(2.56018e-05 6.11712e-06 -9.4958e-05)
(2.55408e-05 5.68158e-06 -9.42004e-05)
(2.54901e-05 5.27234e-06 -9.35093e-05)
(2.5431e-05 4.87483e-06 -9.28754e-05)
(2.53891e-05 4.49882e-06 -9.23092e-05)
(2.53388e-05 4.127e-06 -9.1792e-05)
(2.52912e-05 3.77299e-06 -9.13272e-05)
(2.52492e-05 3.42736e-06 -9.09055e-05)
(2.5213e-05 3.10024e-06 -9.05345e-05)
(2.51745e-05 2.78095e-06 -9.02053e-05)
(2.51458e-05 2.48118e-06 -8.99241e-05)
(2.51193e-05 2.18788e-06 -8.96781e-05)
(2.5094e-05 1.90884e-06 -8.94703e-05)
(2.50727e-05 1.6377e-06 -8.92925e-05)
(2.50548e-05 1.3737e-06 -8.9147e-05)
(2.5042e-05 1.12163e-06 -8.90285e-05)
(2.50308e-05 8.83919e-07 -8.89387e-05)
(2.50238e-05 6.48799e-07 -8.88725e-05)
(2.50185e-05 4.26082e-07 -8.88263e-05)
(2.50143e-05 2.09687e-07 -8.88011e-05)
(2.49546e-05 0 -8.79211e-05)
(2.49026e-05 0 -8.70532e-05)
(2.48566e-05 0 -8.61847e-05)
(2.48136e-05 0 -8.5315e-05)
(2.47747e-05 0 -8.44446e-05)
(2.47389e-05 0 -8.35745e-05)
(2.47061e-05 0 -8.27033e-05)
(2.46735e-05 0 -8.18301e-05)
(2.46424e-05 0 -8.09562e-05)
(2.45822e-05 0 -7.92015e-05)
(2.45509e-05 0 -7.82914e-05)
(2.45176e-05 0 -7.73478e-05)
(2.4482e-05 0 -7.63711e-05)
(2.44441e-05 0 -7.53589e-05)
(2.44027e-05 0 -7.43089e-05)
(2.43571e-05 0 -7.32217e-05)
(2.43061e-05 0 -7.20971e-05)
(2.42502e-05 0 -7.09303e-05)
(2.41894e-05 0 -6.97231e-05)
(2.41197e-05 0 -6.84755e-05)
(2.40448e-05 0 -6.71828e-05)
(2.39609e-05 0 -6.58451e-05)
(2.38649e-05 0 -6.4466e-05)
(2.37601e-05 0 -6.30391e-05)
(2.36459e-05 0 -6.15619e-05)
(2.35171e-05 0 -6.00392e-05)
(2.3373e-05 0 -5.84702e-05)
(2.32156e-05 0 -5.6846e-05)
(2.30433e-05 0 -5.51755e-05)
(2.28465e-05 0 -5.34543e-05)
(2.26325e-05 0 -5.16832e-05)
(2.23928e-05 0 -4.98667e-05)
(2.21389e-05 0 -4.79919e-05)
(2.18498e-05 0 -4.6072e-05)
(2.15336e-05 0 -4.41109e-05)
(2.11874e-05 0 -4.20854e-05)
(2.08067e-05 0 -4.00252e-05)
(2.0386e-05 0 -3.79293e-05)
(1.99204e-05 0 -3.57774e-05)
(1.94056e-05 0 -3.36109e-05)
(1.88736e-05 0 -3.1393e-05)
(1.82727e-05 0 -2.91702e-05)
(1.76162e-05 0 -2.6898e-05)
(1.68907e-05 0 -2.46247e-05)
(1.60914e-05 0 -2.23498e-05)
(1.52028e-05 0 -2.00812e-05)
(1.42391e-05 0 -1.78302e-05)
(1.32327e-05 0 -1.56072e-05)
(1.20908e-05 0 -1.34515e-05)
(1.07958e-05 0 -1.13741e-05)
(9.4421e-06 0 -9.29268e-06)
(7.93768e-06 0 -7.39671e-06)
(6.29418e-06 0 -5.63275e-06)
(4.57317e-06 0 -3.85667e-06)
(2.533e-06 0 -2.12723e-06)
(0 3.68144e-05 -0.000176537)
(0 3.65264e-05 -0.000170145)
(0 3.62485e-05 -0.000163803)
(0 3.60241e-05 -0.000157522)
(0 3.57864e-05 -0.000151247)
(0 3.559e-05 -0.00014498)
(0 3.53571e-05 -0.000138717)
(0 3.51256e-05 -0.000132482)
(0 3.4888e-05 -0.000126245)
(0 3.46237e-05 -0.000120001)
(0 3.43337e-05 -0.00011383)
(0 3.39995e-05 -0.000107671)
(0 3.36542e-05 -0.000101482)
(0 3.32357e-05 -9.5386e-05)
(0 3.27537e-05 -8.93156e-05)
(0 3.22049e-05 -8.33282e-05)
(0 3.15826e-05 -7.74132e-05)
(0 3.0872e-05 -7.15614e-05)
(0 3.01254e-05 -6.58226e-05)
(0 2.92196e-05 -6.0117e-05)
(0 2.8242e-05 -5.46094e-05)
(0 2.59644e-05 -4.40461e-05)
(0 2.4603e-05 -3.89616e-05)
(0 2.31871e-05 -3.42035e-05)
(0 2.15743e-05 -2.95954e-05)
(0 1.98939e-05 -2.51896e-05)
(0 1.80024e-05 -2.11559e-05)
(0 1.59565e-05 -1.73556e-05)
(0 1.38099e-05 -1.39335e-05)
(0 1.155e-05 -1.0813e-05)
(0 9.0903e-06 -7.95393e-06)
(0 6.46523e-06 -5.42532e-06)
(0 3.67954e-06 -3.15449e-06)
(2.46131e-05 1.51467e-07 -8.00804e-05)
(2.46157e-05 3.06112e-07 -8.00808e-05)
(2.46195e-05 4.64425e-07 -8.0083e-05)
(2.46258e-05 6.27074e-07 -8.00858e-05)
(2.46345e-05 7.93847e-07 -8.00889e-05)
(2.46447e-05 9.6604e-07 -8.00927e-05)
(2.46567e-05 1.14171e-06 -8.00973e-05)
(2.46718e-05 1.32123e-06 -8.01013e-05)
(2.46875e-05 1.50517e-06 -8.0107e-05)
(2.47061e-05 1.69432e-06 -8.01141e-05)
(2.47284e-05 1.88958e-06 -8.01213e-05)
(2.47513e-05 2.08847e-06 -8.01284e-05)
(2.47773e-05 2.29453e-06 -8.01352e-05)
(2.48048e-05 2.50568e-06 -8.01413e-05)
(2.48346e-05 2.72347e-06 -8.01474e-05)
(2.4864e-05 2.94614e-06 -8.01542e-05)
(2.48978e-05 3.17678e-06 -8.01585e-05)
(2.49297e-05 3.41192e-06 -8.01596e-05)
(2.4964e-05 3.65692e-06 -8.01605e-05)
(2.50006e-05 3.90697e-06 -8.01589e-05)
(2.50359e-05 4.16612e-06 -8.01545e-05)
(2.50694e-05 4.43241e-06 -8.01433e-05)
(2.51031e-05 4.70315e-06 -8.01343e-05)
(2.51391e-05 4.98785e-06 -8.01172e-05)
(2.51667e-05 5.27177e-06 -8.00942e-05)
(2.51962e-05 5.57632e-06 -8.00689e-05)
(2.52214e-05 5.88088e-06 -8.00321e-05)
(2.52442e-05 6.19887e-06 -7.99919e-05)
(2.52615e-05 6.51397e-06 -7.99411e-05)
(2.52693e-05 6.85177e-06 -7.98854e-05)
(2.52783e-05 7.1909e-06 -7.9816e-05)
(2.52797e-05 7.53962e-06 -7.9735e-05)
(2.52694e-05 7.89789e-06 -7.96441e-05)
(2.52576e-05 8.2665e-06 -7.95418e-05)
(2.52336e-05 8.64344e-06 -7.94251e-05)
(2.51968e-05 9.02967e-06 -7.92962e-05)
(2.51545e-05 9.42158e-06 -7.91511e-05)
(2.5102e-05 9.82805e-06 -7.89965e-05)
(2.50366e-05 1.02331e-05 -7.88295e-05)
(2.49631e-05 1.06416e-05 -7.86365e-05)
(2.4872e-05 1.10706e-05 -7.84214e-05)
(2.47708e-05 1.1496e-05 -7.82055e-05)
(2.4656e-05 1.1943e-05 -7.79579e-05)
(2.45245e-05 1.23778e-05 -7.76988e-05)
(2.43777e-05 1.28181e-05 -7.74064e-05)
(2.42266e-05 1.32757e-05 -7.71019e-05)
(2.40564e-05 1.37221e-05 -7.67816e-05)
(2.3868e-05 1.41839e-05 -7.64201e-05)
(2.36532e-05 1.46387e-05 -7.60673e-05)
(2.34394e-05 1.50994e-05 -7.56738e-05)
(2.31944e-05 1.55871e-05 -7.52495e-05)
(2.29405e-05 1.60474e-05 -7.48189e-05)
(2.26804e-05 1.65108e-05 -7.4334e-05)
(2.23818e-05 1.69816e-05 -7.38463e-05)
(2.20908e-05 1.74438e-05 -7.33274e-05)
(2.17635e-05 1.79069e-05 -7.27993e-05)
(2.14169e-05 1.83435e-05 -7.22282e-05)
(2.10442e-05 1.88263e-05 -7.16438e-05)
(2.06692e-05 1.92843e-05 -7.10291e-05)
(2.02706e-05 1.97285e-05 -7.03884e-05)
(1.98741e-05 2.01595e-05 -6.97254e-05)
(1.94498e-05 2.0613e-05 -6.90183e-05)
(1.89925e-05 2.10173e-05 -6.83195e-05)
(1.85296e-05 2.14263e-05 -6.75915e-05)
(1.80563e-05 2.18332e-05 -6.6839e-05)
(1.75599e-05 2.22368e-05 -6.60791e-05)
(0 0 0)
(0 0 0)
(0 0 0)
(0 0 0)
(0 0 0)
(0 0 0)
(0 0 0)
(0 0 0)
(0 0 0)
(0 0 0)
(0 0 0)
(0 0 0)
(0 0 0)
(0 0 0)
(0 0 0)
(0 0 0)
(0 0 0)
(0 0 0)
(0 0 0)
(0 0 0)
(0 0 0)
(0 0 0)
(0 0 0)
(0 0 0)
(0 0 0)
(0 0 0)
(0 0 0)
(0 0 0)
(0 0 0)
(0 0 0)
(0 0 0)
(0 0 0)
(0 0 0)
(0 0 0)
(0 0 0)
(0 0 0)
(0 0 0)
(0 0 0)
(0 0 0)
(0 0 0)
(0 0 0)
(0 0 0)
(0 0 0)
(0 0 0)
(0 0 0)
(0 0 0)
(0 0 0)
(0 0 0)
(0 0 0)
(0 0 0)
(0 0 0)
(0 0 0)
(0 0 0)
(0 0 0)
(0 0 0)
(0 0 0)
(0 0 0)
(0 0 0)
(0 0 0)
(0 0 0)
(0 0 0)
(0 0 0)
(0 0 0)
(0 0 0)
(0 0 0)
(0 0 0)
(0 0 0)
(0 0 0)
(0 0 0)
(0 0 0)
(0 0 0)
(0 0 0)
(0 0 0)
(0 0 0)
(0 0 0)
(0 0 0)
(0 0 0)
(0 0 0)
(0 0 0)
(0 0 0)
(0 0 0)
(0 0 0)
(0 0 0)
(0 0 0)
(0 0 0)
(0 0 0)
(0 0 0)
(0 0 0)
(0 0 0)
(0 0 0)
(0 0 0)
(0 0 0)
(0 0 0)
(1.65065e-05 2.30053e-05 -6.44838e-05)
(1.59725e-05 2.33645e-05 -6.3672e-05)
(1.54369e-05 2.36957e-05 -6.2871e-05)
(1.48697e-05 2.39687e-05 -6.21196e-05)
(1.43464e-05 2.42837e-05 -6.13542e-05)
(1.38252e-05 2.45522e-05 -6.05684e-05)
(1.32712e-05 2.47902e-05 -5.98246e-05)
(1.27276e-05 2.50105e-05 -5.91097e-05)
(1.21842e-05 2.52574e-05 -5.84104e-05)
(1.16562e-05 2.54802e-05 -5.77004e-05)
(1.11079e-05 2.56408e-05 -5.70576e-05)
(1.05596e-05 2.58145e-05 -5.63944e-05)
(1.00444e-05 2.59719e-05 -5.57458e-05)
(9.52944e-06 2.61014e-05 -5.51423e-05)
(8.98026e-06 2.6232e-05 -5.4556e-05)
(8.4857e-06 2.63403e-05 -5.3986e-05)
(7.91781e-06 2.64198e-05 -5.34777e-05)
(7.44348e-06 2.65082e-05 -5.29708e-05)
(6.93939e-06 2.66125e-05 -5.25009e-05)
(6.42381e-06 2.66834e-05 -5.20728e-05)
(5.86936e-06 2.67698e-05 -5.16624e-05)
(5.38582e-06 2.68254e-05 -5.12715e-05)
(4.89224e-06 2.68678e-05 -5.09143e-05)
(4.39911e-06 2.69383e-05 -5.06217e-05)
(3.89465e-06 2.69757e-05 -5.03148e-05)
(3.38785e-06 2.70046e-05 -5.00785e-05)
(2.90948e-06 2.69999e-05 -4.98609e-05)
(2.42646e-06 2.70351e-05 -4.96658e-05)
(1.93264e-06 2.70575e-05 -4.94957e-05)
(1.47117e-06 2.70619e-05 -4.93704e-05)
(9.81548e-07 2.70762e-05 -4.92954e-05)
(4.84555e-07 2.71002e-05 -4.92573e-05)
(-1.74753e-05 -3.3516e-05 -0.000164847)
(-1.66178e-05 -3.41603e-05 -0.000166824)
(-1.58281e-05 -3.47586e-05 -0.000168752)
(-1.48821e-05 -3.53829e-05 -0.000170527)
(-1.39949e-05 -3.59549e-05 -0.000172273)
(-1.31256e-05 -3.642e-05 -0.000173856)
(-1.21612e-05 -3.6908e-05 -0.000175329)
(-1.12516e-05 -3.73325e-05 -0.00017675)
(-1.02855e-05 -3.7782e-05 -0.000178013)
(-9.28266e-06 -3.81678e-05 -0.000179184)
(-8.30709e-06 -3.84833e-05 -0.000180226)
(-7.2899e-06 -3.87495e-05 -0.000181136)
(-6.21683e-06 -3.90192e-05 -0.000181917)
(-5.21085e-06 -3.92307e-05 -0.000182594)
(-4.21077e-06 -3.94065e-05 -0.000183135)
(-3.12814e-06 -3.95287e-05 -0.000183581)
(-2.0999e-06 -3.96449e-05 -0.000183876)
(-1.0582e-06 -3.96781e-05 -0.000184072)
(0 -3.93275e-05 -0.000177733)
(0 -3.89534e-05 -0.000171389)
(0 -3.85889e-05 -0.000165061)
(0 -3.82625e-05 -0.000158772)
(0 -3.7948e-05 -0.000152487)
(0 -3.76294e-05 -0.00014623)
(0 -3.73237e-05 -0.000139952)
(0 -3.70048e-05 -0.000133696)
(0 -3.66659e-05 -0.000127481)
(0 -3.63193e-05 -0.000121306)
(0 -3.59637e-05 -0.000115051)
(0 -3.5543e-05 -0.000108877)
(0 -3.50812e-05 -0.000102713)
(0 -3.45754e-05 -9.66173e-05)
(0 -3.40215e-05 -9.0574e-05)
(0 -3.33718e-05 -8.45445e-05)
(0 -3.26922e-05 -7.86089e-05)
(0 -3.18952e-05 -7.27863e-05)
(0 -3.10039e-05 -6.70542e-05)
(0 -3.01033e-05 -6.13842e-05)
(0 -2.90384e-05 -5.58505e-05)
(-4.96231e-07 -2.78377e-05 -5.05074e-05)
(-9.95558e-07 -2.78007e-05 -5.05598e-05)
(-1.47131e-06 -2.7791e-05 -5.06257e-05)
(-1.97072e-06 -2.78023e-05 -5.07444e-05)
(-2.45023e-06 -2.77783e-05 -5.09105e-05)
(-2.96237e-06 -2.77539e-05 -5.10555e-05)
(-3.46674e-06 -2.77331e-05 -5.13266e-05)
(-3.96049e-06 -2.77098e-05 -5.15514e-05)
(-4.4757e-06 -2.76972e-05 -5.18454e-05)
(-4.98752e-06 -2.76644e-05 -5.2133e-05)
(-5.49725e-06 -2.76043e-05 -5.24936e-05)
(-6.00069e-06 -2.75059e-05 -5.28997e-05)
(-6.53021e-06 -2.74488e-05 -5.33104e-05)
(-7.06111e-06 -2.7406e-05 -5.37274e-05)
(-7.55207e-06 -2.73218e-05 -5.42133e-05)
(-8.06501e-06 -2.72109e-05 -5.4705e-05)
(-8.64666e-06 -2.7127e-05 -5.52292e-05)
(-9.16074e-06 -2.69985e-05 -5.57983e-05)
(-9.72453e-06 -2.68704e-05 -5.63366e-05)
(-1.02394e-05 -2.67704e-05 -5.69578e-05)
(-1.07537e-05 -2.6603e-05 -5.75925e-05)
(-1.13256e-05 -2.64385e-05 -5.82631e-05)
(-1.18643e-05 -2.62761e-05 -5.89066e-05)
(-1.24293e-05 -2.60635e-05 -5.96224e-05)
(-1.29828e-05 -2.58452e-05 -6.03372e-05)
(-1.35479e-05 -2.56229e-05 -6.10504e-05)
(-1.40911e-05 -2.53585e-05 -6.18087e-05)
(-1.4647e-05 -2.51064e-05 -6.25542e-05)
(-1.5177e-05 -2.48394e-05 -6.33252e-05)
(-1.57241e-05 -2.45384e-05 -6.41044e-05)
(-1.62758e-05 -2.42041e-05 -6.49194e-05)
(-1.68229e-05 -2.38487e-05 -6.57047e-05)
(-1.77979e-05 -2.41026e-05 -7.17124e-05)
(-1.82162e-05 -2.46966e-05 -7.70134e-05)
(-1.85658e-05 -2.52654e-05 -8.23496e-05)
(-1.8872e-05 -2.57945e-05 -8.77927e-05)
(-1.91695e-05 -2.62672e-05 -9.32929e-05)
(-1.94062e-05 -2.67724e-05 -9.88375e-05)
(-1.95951e-05 -2.72281e-05 -0.000104412)
(-1.9752e-05 -2.76939e-05 -0.000110059)
(-1.98839e-05 -2.81559e-05 -0.000115749)
(-1.99354e-05 -2.86472e-05 -0.000121466)
(-1.99431e-05 -2.91372e-05 -0.000127231)
(-1.99018e-05 -2.96461e-05 -0.000133045)
(-1.98016e-05 -3.01856e-05 -0.000138889)
(-1.9615e-05 -3.07663e-05 -0.000144778)
(-1.93191e-05 -3.1391e-05 -0.000150722)
(-1.88725e-05 -3.20993e-05 -0.000156703)
(1.44538e-05 2.52405e-05 -0.00016181)
(1.12948e-05 1.99842e-05 -0.000162013)
(8.30174e-06 1.47073e-05 -0.000162211)
(5.39617e-06 9.41133e-06 -0.000162354)
(2.56316e-06 4.10659e-06 -0.000162488)
(-2.21929e-07 -1.21027e-06 -0.000162569)
(-3.01305e-06 -6.48769e-06 -0.000162645)
(-5.83518e-06 -1.17889e-05 -0.000162743)
(-8.72479e-06 -1.70926e-05 -0.000162817)
(-1.17302e-05 -2.23764e-05 -0.000162844)
(-1.4907e-05 -2.76134e-05 -0.00016284)
(0 3.07102e-05 -0.000183201)
(0 2.42506e-05 -0.000183453)
(0 1.78483e-05 -0.000183658)
(0 1.145e-05 -0.000183823)
(0 5.06505e-06 -0.000183936)
(0 -1.31468e-06 -0.000184055)
(0 -7.68655e-06 -0.000184172)
(0 -1.40789e-05 -0.00018423)
(0 -2.04859e-05 -0.000184245)
(0 -2.68976e-05 -0.000184288)
(0 -3.332e-05 -0.000184249)
(0 2.20252e-05 -4.89662e-05)
(0 1.72137e-05 -4.87621e-05)
(0 1.26104e-05 -4.8607e-05)
(0 8.15857e-06 -4.85228e-05)
(0 3.90186e-06 -4.84861e-05)
(0 -3.49164e-07 -4.85691e-05)
(0 -4.61387e-06 -4.87171e-05)
(0 -8.90617e-06 -4.89213e-05)
(0 -1.33495e-05 -4.92346e-05)
(0 -1.79407e-05 -4.96023e-05)
(0 -2.27708e-05 -5.00136e-05)
(1.39807e-05 1.84725e-05 -6.52524e-05)
(1.10123e-05 1.44747e-05 -6.52199e-05)
(8.13912e-06 1.06446e-05 -6.52079e-05)
(5.32957e-06 6.88744e-06 -6.52149e-05)
(2.56305e-06 3.20622e-06 -6.52552e-05)
(-1.86118e-07 -4.25893e-07 -6.53497e-05)
(-2.91057e-06 -4.05301e-06 -6.54731e-05)
(-5.66249e-06 -7.72791e-06 -6.56286e-05)
(-8.49023e-06 -1.14668e-05 -6.58227e-05)
(-1.1355e-05 -1.53338e-05 -6.60541e-05)
(-1.43222e-05 -1.93247e-05 -6.62516e-05)
(-2.5422e-05 -1.67846e-07 -8.11619e-05)
(-2.54244e-05 -3.40421e-07 -8.11628e-05)
(-2.54285e-05 -5.15557e-07 -8.11646e-05)
(-2.54343e-05 -6.96011e-07 -8.11672e-05)
(-2.54413e-05 -8.81164e-07 -8.11711e-05)
(-2.54509e-05 -1.07002e-06 -8.11754e-05)
(-2.5462e-05 -1.26375e-06 -8.11798e-05)
(-2.54759e-05 -1.46261e-06 -8.11863e-05)
(-2.54909e-05 -1.66593e-06 -8.11933e-05)
(-2.55084e-05 -1.87595e-06 -8.12013e-05)
(-2.55286e-05 -2.08991e-06 -8.12087e-05)
(-2.55493e-05 -2.31096e-06 -8.12169e-05)
(-2.55728e-05 -2.53524e-06 -8.12246e-05)
(-2.55983e-05 -2.76472e-06 -8.12319e-05)
(-2.56259e-05 -3.00494e-06 -8.12418e-05)
(-2.5653e-05 -3.24615e-06 -8.12485e-05)
(-2.56822e-05 -3.49588e-06 -8.12548e-05)
(-2.57129e-05 -3.75496e-06 -8.1259e-05)
(-2.57449e-05 -4.01759e-06 -8.12628e-05)
(-2.57761e-05 -4.2861e-06 -8.12625e-05)
(-2.58061e-05 -4.56617e-06 -8.12612e-05)
(-2.58369e-05 -4.85155e-06 -8.12562e-05)
(-2.58662e-05 -5.14553e-06 -8.12467e-05)
(-2.58953e-05 -5.44843e-06 -8.12297e-05)
(-2.59198e-05 -5.75765e-06 -8.12109e-05)
(-2.59443e-05 -6.07466e-06 -8.11846e-05)
(-2.59644e-05 -6.39254e-06 -8.11525e-05)
(-2.59795e-05 -6.73137e-06 -8.11135e-05)
(-2.59914e-05 -7.06766e-06 -8.10661e-05)
(-2.59952e-05 -7.41658e-06 -8.10135e-05)
(-2.60006e-05 -7.77961e-06 -8.09452e-05)
(-2.59939e-05 -8.14782e-06 -8.08668e-05)
(-2.59796e-05 -8.52852e-06 -8.07822e-05)
(-2.59567e-05 -8.91095e-06 -8.0684e-05)
(-2.59261e-05 -9.29738e-06 -8.05711e-05)
(-2.58852e-05 -9.69753e-06 -8.0441e-05)
(-2.58374e-05 -1.00986e-05 -8.03061e-05)
(-2.57743e-05 -1.05097e-05 -8.01511e-05)
(-2.57054e-05 -1.09428e-05 -7.99752e-05)
(-2.56204e-05 -1.13667e-05 -7.97929e-05)
(-2.55279e-05 -1.17996e-05 -7.95836e-05)
(-2.54185e-05 -1.22471e-05 -7.93657e-05)
(-2.52913e-05 -1.26943e-05 -7.91274e-05)
(-2.51485e-05 -1.31488e-05 -7.88625e-05)
(-2.49983e-05 -1.36059e-05 -7.85854e-05)
(-2.48327e-05 -1.40617e-05 -7.8272e-05)
(-2.46457e-05 -1.45261e-05 -7.79539e-05)
(-2.44497e-05 -1.49849e-05 -7.76094e-05)
(-2.42391e-05 -1.54606e-05 -7.72428e-05)
(-2.40041e-05 -1.59225e-05 -7.68485e-05)
(-2.3746e-05 -1.64122e-05 -7.64338e-05)
(-2.34835e-05 -1.68851e-05 -7.60004e-05)
(-2.32054e-05 -1.73464e-05 -7.55363e-05)
(-2.29067e-05 -1.78269e-05 -7.50424e-05)
(-2.25831e-05 -1.83027e-05 -7.45322e-05)
(-2.22462e-05 -1.87619e-05 -7.3991e-05)
(-2.19026e-05 -1.92148e-05 -7.34192e-05)
(-2.15363e-05 -1.96928e-05 -7.28324e-05)
(-2.1168e-05 -2.01283e-05 -7.22264e-05)
(-2.07317e-05 -2.05821e-05 -7.16085e-05)
(-2.03012e-05 -2.10314e-05 -7.0949e-05)
(-1.98695e-05 -2.14483e-05 -7.02282e-05)
(-1.94007e-05 -2.18824e-05 -6.95506e-05)
(-1.89378e-05 -2.23039e-05 -6.88025e-05)
(-1.84187e-05 -2.26836e-05 -6.80603e-05)
(-1.79012e-05 -2.30973e-05 -6.72932e-05)
(-1.90564e-05 -3.20766e-05 -0.000160492)
(-1.98295e-05 -3.1277e-05 -0.000158152)
(-2.04825e-05 -3.04986e-05 -0.000155789)
(-2.11905e-05 -2.97196e-05 -0.000153476)
(-2.1803e-05 -2.8942e-05 -0.000151094)
(-2.23856e-05 -2.81352e-05 -0.00014866)
(-2.29087e-05 -2.72622e-05 -0.000146251)
(-2.34005e-05 -2.64951e-05 -0.000143892)
(-2.38694e-05 -2.56242e-05 -0.000141494)
(-2.42736e-05 -2.47799e-05 -0.0001391)
(-2.46485e-05 -2.4014e-05 -0.000136777)
(-2.49901e-05 -2.32008e-05 -0.000134481)
(-2.53005e-05 -2.23711e-05 -0.000132193)
(-2.55814e-05 -2.15556e-05 -0.000129956)
(-2.58274e-05 -2.07317e-05 -0.00012775)
(-2.60455e-05 -1.99303e-05 -0.00012561)
(-2.62382e-05 -1.91354e-05 -0.000123499)
(-2.63999e-05 -1.83643e-05 -0.000121456)
(-2.65292e-05 -1.76161e-05 -0.000119475)
(-2.66371e-05 -1.68417e-05 -0.00011756)
(-2.67549e-05 -1.60856e-05 -0.000115706)
(-2.68326e-05 -1.53521e-05 -0.000113898)
(-2.68833e-05 -1.46642e-05 -0.000112151)
(-2.69111e-05 -1.39476e-05 -0.000110492)
(-2.69351e-05 -1.32816e-05 -0.000108904)
(-2.6932e-05 -1.25933e-05 -0.000107372)
(-2.69454e-05 -1.19398e-05 -0.000105911)
(-2.69357e-05 -1.13065e-05 -0.000104548)
(-2.69094e-05 -1.07013e-05 -0.000103241)
(-2.68721e-05 -1.01006e-05 -0.000101994)
(-2.68347e-05 -9.52839e-06 -0.000100844)
(-2.67958e-05 -8.95323e-06 -9.97418e-05)
(-2.67503e-05 -8.39742e-06 -9.87196e-05)
(-2.66966e-05 -7.87303e-06 -9.77734e-05)
(-2.66501e-05 -7.36661e-06 -9.68776e-05)
(-2.65959e-05 -6.87616e-06 -9.60563e-05)
(-2.65433e-05 -6.39232e-06 -9.5301e-05)
(-2.64912e-05 -5.94056e-06 -9.46015e-05)
(-2.64436e-05 -5.49228e-06 -9.39681e-05)
(-2.63996e-05 -5.06885e-06 -9.33948e-05)
(-2.63529e-05 -4.65627e-06 -9.28691e-05)
(-2.63053e-05 -4.25517e-06 -9.24007e-05)
(-2.62647e-05 -3.86903e-06 -9.19785e-05)
(-2.62321e-05 -3.50364e-06 -9.16071e-05)
(-2.61962e-05 -3.14557e-06 -9.12786e-05)
(-2.61669e-05 -2.80717e-06 -9.0992e-05)
(-2.61441e-05 -2.47226e-06 -9.07451e-05)
(-2.61193e-05 -2.15811e-06 -9.05363e-05)
(-2.61039e-05 -1.85162e-06 -9.03587e-05)
(-2.60855e-05 -1.55937e-06 -9.02131e-05)
(-2.60728e-05 -1.27253e-06 -9.00933e-05)
(-2.60584e-05 -1.00127e-06 -9.00011e-05)
(-2.60524e-05 -7.35109e-07 -8.99338e-05)
(-2.60476e-05 -4.82604e-07 -8.98872e-05)
(-2.60434e-05 -2.37224e-07 -8.98624e-05)
(-2.59572e-05 0 -8.8984e-05)
(-2.58807e-05 0 -8.81178e-05)
(-2.58106e-05 0 -8.72509e-05)
(-2.57454e-05 0 -8.63836e-05)
(-2.56838e-05 0 -8.55168e-05)
(-2.56261e-05 0 -8.46476e-05)
(-2.55725e-05 0 -8.37785e-05)
(-2.55201e-05 0 -8.29068e-05)
(-2.54699e-05 0 -8.20346e-05)
(2.37374e-05 0 -8.01306e-05)
(2.28641e-05 0 -8.01796e-05)
(2.1993e-05 0 -8.02275e-05)
(2.1124e-05 0 -8.02733e-05)
(2.0259e-05 0 -8.03176e-05)
(1.93965e-05 0 -8.03602e-05)
(1.85363e-05 0 -8.04025e-05)
(1.76801e-05 0 -8.04432e-05)
(1.68267e-05 0 -8.0483e-05)
(1.59782e-05 0 -8.05209e-05)
(1.51321e-05 0 -8.05581e-05)
(1.42893e-05 0 -8.05942e-05)
(1.34508e-05 0 -8.0629e-05)
(1.26154e-05 0 -8.06625e-05)
(1.17842e-05 0 -8.06949e-05)
(1.09543e-05 0 -8.0727e-05)
(1.01287e-05 0 -8.07576e-05)
(9.30617e-06 0 -8.07872e-05)
(8.48491e-06 0 -8.08157e-05)
(7.66797e-06 0 -8.08435e-05)
(6.85189e-06 0 -8.08701e-05)
(6.03922e-06 0 -8.08959e-05)
(5.22788e-06 0 -8.09203e-05)
(4.41884e-06 0 -8.09443e-05)
(3.61076e-06 0 -8.09676e-05)
(2.80417e-06 0 -8.09893e-05)
(1.99888e-06 0 -8.10108e-05)
(1.19338e-06 0 -8.10307e-05)
(3.89323e-07 0 -8.10499e-05)
(-4.14997e-07 0 -8.10686e-05)
(-1.21862e-06 0 -8.10856e-05)
(-2.0239e-06 0 -8.11025e-05)
(-2.82828e-06 0 -8.1118e-05)
(-3.63421e-06 0 -8.11332e-05)
(-4.43983e-06 0 -8.11472e-05)
(-5.24719e-06 0 -8.1161e-05)
(-6.05594e-06 0 -8.1173e-05)
(-6.86721e-06 0 -8.1184e-05)
(-7.67999e-06 0 -8.11944e-05)
(-8.49505e-06 0 -8.12033e-05)
(-9.31249e-06 0 -8.12129e-05)
(-1.01326e-05 0 -8.12202e-05)
(-1.09555e-05 0 -8.12262e-05)
(-1.17801e-05 0 -8.12318e-05)
(-1.26088e-05 0 -8.1236e-05)
(-1.34405e-05 0 -8.12393e-05)
(-1.42749e-05 0 -8.12417e-05)
(-1.51133e-05 0 -8.12424e-05)
(-1.59549e-05 0 -8.12428e-05)
(-1.68001e-05 0 -8.12414e-05)
(-1.76481e-05 0 -8.12389e-05)
(-1.85007e-05 0 -8.12354e-05)
(-1.93553e-05 0 -8.12307e-05)
(-2.02143e-05 0 -8.12247e-05)
(-2.10758e-05 0 -8.12174e-05)
(-2.19399e-05 0 -8.12093e-05)
(-2.28073e-05 0 -8.12e-05)
(-2.36765e-05 0 -8.11887e-05)
(-2.45481e-05 0 -8.11762e-05)
(2.41429e-05 0 -8.88534e-05)
(2.32706e-05 0 -8.89117e-05)
(2.23968e-05 0 -8.8968e-05)
(2.15207e-05 0 -8.90219e-05)
(2.06479e-05 0 -8.90734e-05)
(1.9775e-05 0 -8.912e-05)
(1.89045e-05 0 -8.91651e-05)
(1.80358e-05 0 -8.92061e-05)
(1.71672e-05 0 -8.92451e-05)
(1.63015e-05 0 -8.92816e-05)
(1.5441e-05 0 -8.93163e-05)
(1.45795e-05 0 -8.93481e-05)
(1.37229e-05 0 -8.93783e-05)
(1.28682e-05 0 -8.94065e-05)
(1.20162e-05 0 -8.94342e-05)
(1.11689e-05 0 -8.94608e-05)
(1.03217e-05 0 -8.94847e-05)
(9.47784e-06 0 -8.95084e-05)
(8.63379e-06 0 -8.95299e-05)
(7.79191e-06 0 -8.95507e-05)
(6.95505e-06 0 -8.95719e-05)
(6.12011e-06 0 -8.95921e-05)
(5.2835e-06 0 -8.96113e-05)
(4.45109e-06 0 -8.96304e-05)
(3.62061e-06 0 -8.96498e-05)
(2.78934e-06 0 -8.96682e-05)
(1.95899e-06 0 -8.9687e-05)
(1.13071e-06 0 -8.97053e-05)
(3.01924e-07 0 -8.97236e-05)
(-5.28081e-07 0 -8.97406e-05)
(-1.35431e-06 0 -8.97577e-05)
(-2.18363e-06 0 -8.9775e-05)
(-3.01401e-06 0 -8.9792e-05)
(-3.84227e-06 0 -8.98096e-05)
(-4.67398e-06 0 -8.98268e-05)
(-5.50455e-06 0 -8.98417e-05)
(-6.33872e-06 0 -8.98602e-05)
(-7.17222e-06 0 -8.98756e-05)
(-8.00886e-06 0 -8.98916e-05)
(-8.8436e-06 0 -8.99073e-05)
(-9.68571e-06 0 -8.99203e-05)
(-1.05286e-05 0 -8.99342e-05)
(-1.13695e-05 0 -8.99456e-05)
(-1.22173e-05 0 -8.99578e-05)
(-1.30627e-05 0 -8.99688e-05)
(-1.39159e-05 0 -8.99745e-05)
(-1.47704e-05 0 -8.99819e-05)
(-1.56276e-05 0 -8.99878e-05)
(-1.64828e-05 0 -8.99925e-05)
(-1.73445e-05 0 -8.99923e-05)
(-1.82111e-05 0 -8.99895e-05)
(-1.90777e-05 0 -8.99861e-05)
(-1.99465e-05 0 -8.99796e-05)
(-2.08159e-05 0 -8.99699e-05)
(-2.16855e-05 0 -8.99565e-05)
(-2.25587e-05 0 -8.99421e-05)
(-2.3432e-05 0 -8.99238e-05)
(-2.43034e-05 0 -8.99033e-05)
(-2.51746e-05 0 -8.98785e-05)
(-2.53729e-05 0 -8.02854e-05)
(-2.53236e-05 0 -7.93765e-05)
(-2.52724e-05 0 -7.84345e-05)
(-2.52186e-05 0 -7.74597e-05)
(-2.51624e-05 0 -7.64489e-05)
(-2.51023e-05 0 -7.54011e-05)
(-2.50378e-05 0 -7.43169e-05)
(-2.49688e-05 0 -7.31929e-05)
(-2.48958e-05 0 -7.203e-05)
(-2.48155e-05 0 -7.08237e-05)
(-2.47291e-05 0 -6.95763e-05)
(-2.46353e-05 0 -6.82847e-05)
(-2.45313e-05 0 -6.69519e-05)
(-2.44186e-05 0 -6.55717e-05)
(-2.42937e-05 0 -6.41471e-05)
(-2.41596e-05 0 -6.26714e-05)
(-2.40109e-05 0 -6.11519e-05)
(-2.38478e-05 0 -5.95834e-05)
(-2.36725e-05 0 -5.79613e-05)
(-2.34798e-05 0 -5.62939e-05)
(-2.32634e-05 0 -5.45733e-05)
(-2.30274e-05 0 -5.2804e-05)
(-2.27736e-05 0 -5.0987e-05)
(-2.24931e-05 0 -4.91168e-05)
(-2.21892e-05 0 -4.72028e-05)
(-2.18506e-05 0 -4.52361e-05)
(-2.14828e-05 0 -4.32323e-05)
(-2.10852e-05 0 -4.11633e-05)
(-2.06511e-05 0 -3.9068e-05)
(-2.01698e-05 0 -3.69272e-05)
(-1.9656e-05 0 -3.47475e-05)
(-1.90936e-05 0 -3.25365e-05)
(-1.84631e-05 0 -3.0301e-05)
(-1.77898e-05 0 -2.8034e-05)
(-1.70457e-05 0 -2.5771e-05)
(-1.62206e-05 0 -2.35034e-05)
(-1.53364e-05 0 -2.12223e-05)
(-1.43756e-05 0 -1.89652e-05)
(-1.33377e-05 0 -1.67595e-05)
(-1.22102e-05 0 -1.456e-05)
(-1.09534e-05 0 -1.24662e-05)
(-9.63823e-06 0 -1.03445e-05)
(-8.14796e-06 0 -8.36525e-06)
(-6.5108e-06 0 -6.48556e-06)
(-4.79002e-06 0 -4.58201e-06)
(-2.73592e-06 0 -2.67377e-06)
(0 0 0)
(0 0 0)
(0 0 0)
(0 0 0)
(0 0 0)
(0 0 0)
(0 0 0)
(0 0 0)
(0 0 0)
(0 0 0)
(0 0 0)
(0 0 0)
(0 0 0)
(0 0 0)
(0 0 0)
(0 0 0)
(0 0 0)
(0 0 0)
(0 0 0)
(0 0 0)
(0 0 0)
(0 0 0)
(0 0 0)
(0 0 0)
(0 0 0)
(0 0 0)
(0 0 0)
(0 0 0)
(0 0 0)
(0 0 0)
(0 0 0)
(0 0 0)
(0 0 0)
(0 0 0)
(0 0 0)
(0 0 0)
(0 0 0)
(0 0 0)
(0 0 0)
(0 0 0)
(0 0 0)
(0 0 0)
(0 0 0)
(0 0 0)
(0 0 0)
(0 0 0)
(0 0 0)
(0 0 0)
(0 0 0)
(-1.98032e-06 -2.55099e-06 -3.03198e-06)
(-3.51024e-06 -4.59016e-06 -5.43233e-06)
(-4.84461e-06 -6.30885e-06 -7.6837e-06)
(-6.19192e-06 -8.02681e-06 -1.018e-05)
(-7.39667e-06 -9.66445e-06 -1.28544e-05)
(-8.49121e-06 -1.11987e-05 -1.57823e-05)
(-9.5742e-06 -1.26588e-05 -1.89685e-05)
(-1.05543e-05 -1.40341e-05 -2.23789e-05)
(-1.14988e-05 -1.52871e-05 -2.60146e-05)
(-1.23717e-05 -1.64784e-05 -2.98964e-05)
(-1.31845e-05 -1.75759e-05 -3.39489e-05)
(-1.39406e-05 -1.85972e-05 -3.81608e-05)
(-1.46061e-05 -1.9575e-05 -4.25568e-05)
(-1.5296e-05 -2.04931e-05 -4.70758e-05)
(-1.58864e-05 -2.1341e-05 -5.17681e-05)
(-1.643e-05 -2.2094e-05 -5.65726e-05)
(-1.69233e-05 -2.28201e-05 -6.14877e-05)
(0 0 0)
(0 0 0)
(0 0 0)
(0 0 0)
(0 0 0)
(0 0 0)
(0 0 0)
(0 0 0)
(0 0 0)
(0 0 0)
(0 0 0)
(0 0 0)
(0 0 0)
(0 0 0)
(0 0 0)
(0 0 0)
(0 0 0)
(0 0 0)
(0 0 0)
(0 0 0)
(0 0 0)
(0 0 0)
(0 0 0)
(0 0 0)
(0 0 0)
(0 0 0)
(0 0 0)
(0 0 0)
(0 0 0)
(0 0 0)
(0 0 0)
(0 0 0)
(0 0 0)
(0 0 0)
(0 0 0)
(0 0 0)
(0 0 0)
(0 0 0)
(0 0 0)
(0 0 0)
(0 0 0)
(0 0 0)
(0 0 0)
(0 0 0)
(0 0 0)
(0 0 0)
(0 0 0)
(0 0 0)
(0 0 0)
(0 0 0)
(0 0 0)
(0 0 0)
(0 0 0)
(0 0 0)
(0 0 0)
(0 0 0)
(0 0 0)
(0 0 0)
(0 0 0)
(0 0 0)
(0 0 0)
(0 0 0)
(0 0 0)
(0 0 0)
(0 0 0)
(0 0 0)
(0 -3.91474e-06 -3.67312e-06)
(0 -6.73938e-06 -6.20319e-06)
(0 -9.32631e-06 -8.94584e-06)
(0 -1.18352e-05 -1.18981e-05)
(0 -1.41664e-05 -1.50651e-05)
(0 -1.6294e-05 -1.86543e-05)
(0 -1.84479e-05 -2.23586e-05)
(0 -2.03641e-05 -2.64073e-05)
(0 -2.20995e-05 -3.08029e-05)
(0 -2.37386e-05 -3.54069e-05)
(0 -2.52216e-05 -4.02231e-05)
(0 -2.66243e-05 -4.53028e-05)
(0 0 0)
(0 0 0)
(0 0 0)
(0 0 0)
(0 0 0)
(0 0 0)
(0 0 0)
(0 0 0)
(0 0 0)
(0 0 0)
(0 0 0)
(9.21879e-06 3.26778e-05 -0.000113016)
(1.40539e-05 2.94921e-05 -0.000100076)
(4.64999e-06 3.23321e-05 -8.99253e-05)
(5.81804e-06 3.48685e-05 -0.000141703)
(1.36147e-05 3.18651e-05 -0.00013426)
(1.02998e-05 3.00622e-05 -8.47899e-05)
(3.88252e-06 3.41301e-05 -0.000115627)
(1.00312e-05 3.40075e-05 -0.000147936)
(7.21115e-06 3.05807e-05 -7.83431e-05)
(1.58289e-05 2.69499e-05 -8.64407e-05)
(1.6385e-05 2.94532e-05 -0.000121289)
(2.51555e-06 3.06489e-05 -7.11753e-05)
(1.23575e-05 2.83305e-05 -7.82442e-05)
(1.22146e-05 3.14327e-05 -0.000112916)
(3.84515e-06 3.58678e-05 -0.000159234)