/*--------------------------------*- C++ -*----------------------------------*\
| =========                 |                                                 |
| \\      /  F ield         | OpenFOAM: The Open Source CFD Toolbox           |
|  \\    /   O peration     | Version:  v2012                                 |
|   \\  /    A nd           | Website:  www.openfoam.com                      |
|    \\/     M anipulation  |                                                 |
\*---------------------------------------------------------------------------*/
FoamFile
{
    version     2.0;
    format      ascii;
    class       volSymmTensorField;
    location    "5";
    object      sigma;
}
// * * * * * * * * * * * * * * * * * * * * * * * * * * * * * * * * * * * * * //

dimensions      [1 -1 -2 0 0 0 0];


internalField   nonuniform List<symmTensor> 
4000
(
(2.77972e+08 -5.33888e+06 -2.66488e-08 4.81777e+06 3.38515e-08 8.65911e+07)
(2.64713e+08 -4.43881e+06 4.67827e-09 8.83062e+06 4.062e-08 8.20631e+07)
(2.48449e+08 -3.39471e+06 -4.0843e-15 1.49977e+07 -3.85693e-14 7.9034e+07)
(2.33427e+08 -2.60422e+06 4.81642e-08 1.7426e+07 -3.00621e-08 7.52558e+07)
(2.20663e+08 -1.97843e+06 -7.36275e-08 2.07304e+07 -3.15869e-08 7.24179e+07)
(2.09001e+08 -1.42493e+06 1.24722e-09 2.2104e+07 1.30849e-08 6.93316e+07)
(1.98818e+08 -1.00803e+06 -4.01899e-08 2.38394e+07 -1.8942e-09 6.67973e+07)
(1.89448e+08 -604259 0 2.43784e+07 0 6.41479e+07)
(1.8116e+08 -304278 1.71194e-09 2.51235e+07 2.0355e-08 6.18852e+07)
(1.73463e+08 -7189.68 3.33173e-08 2.5059e+07 1.13422e-08 5.95565e+07)
(1.66589e+08 218705 -1.34364e-09 2.51377e+07 -1.79207e-08 5.75179e+07)
(1.60146e+08 438204 -1.18842e-09 2.4649e+07 -1.70369e-08 5.54386e+07)
(1.54338e+08 610504 -5.33587e-10 2.42708e+07 -8.10802e-09 5.35827e+07)
(1.48847e+08 773525 9.52684e-10 2.34891e+07 1.56047e-08 5.17008e+07)
(1.43849e+08 903625 1.26138e-08 2.27989e+07 8.33322e-09 4.99943e+07)
(1.39075e+08 1.0253e+06 -3.89911e-10 2.182e+07 -7.31259e-09 4.82685e+07)
(1.34694e+08 1.12035e+06 -1.13776e-08 2.09202e+07 -7.90702e-09 4.66844e+07)
(1.30453e+08 1.21172e+06 -2.13341e-08 1.98165e+07 -8.52691e-09 4.50808e+07)
(1.26542e+08 1.27594e+06 -1.00291e-08 1.87796e+07 -7.58482e-10 4.35965e+07)
(1.2268e+08 1.34572e+06 -1.85323e-08 1.76091e+07 7.5578e-09 4.20866e+07)
(2.76409e+08 -1.58091e+07 1.37329e-08 5.02451e+06 2.20805e-08 8.53803e+07)
(2.6181e+08 -1.30091e+07 3.79095e-08 9.4384e+06 2.23023e-08 8.13744e+07)
(2.4615e+08 -1.01087e+07 1.68116e-08 1.47043e+07 -3.23513e-08 7.82562e+07)
(2.31773e+08 -7.78504e+06 5.62794e-08 1.73019e+07 2.01844e-08 7.47225e+07)
(2.1923e+08 -5.95329e+06 -7.06192e-08 2.04054e+07 -6.82038e-09 7.18906e+07)
(2.07939e+08 -4.38584e+06 -1.31259e-14 2.17746e+07 -4.54874e-14 6.89141e+07)
(1.97907e+08 -3.06304e+06 1.42058e-10 2.34227e+07 5.02752e-10 6.6399e+07)
(1.8874e+08 -1.93903e+06 -4.33059e-08 2.39584e+07 -2.67116e-08 6.38096e+07)
(1.80577e+08 -957705 0 2.46485e+07 0 6.15675e+07)
(1.73003e+08 -124954 5.12587e-08 2.45879e+07 1.64232e-08 5.92773e+07)
(1.66229e+08 609325 2.72432e-15 2.46343e+07 1.14243e-14 5.72589e+07)
(1.59874e+08 1.23477e+06 -3.58626e-09 2.41528e+07 -1.67191e-08 5.5208e+07)
(1.54145e+08 1.78435e+06 -1.59961e-09 2.37608e+07 -7.9565e-09 5.33719e+07)
(1.48722e+08 2.25638e+06 1.43256e-09 2.29889e+07 7.65321e-09 5.15133e+07)
(1.43788e+08 2.66391e+06 1.35222e-08 2.22992e+07 9.52783e-09 4.98262e+07)
(1.39071e+08 3.02048e+06 -1.04767e-08 2.1333e+07 4.91733e-09 4.81213e+07)
(1.34743e+08 3.31452e+06 -9.99828e-09 2.04448e+07 4.88888e-09 4.65563e+07)
(1.30553e+08 3.58425e+06 -2.20957e-08 1.93563e+07 -1.09635e-08 4.49728e+07)
(1.26686e+08 3.78209e+06 1.58906e-11 1.83401e+07 1.14796e-10 4.35079e+07)
(1.22871e+08 3.98873e+06 -2.21631e-08 1.71856e+07 -1.53535e-08 4.20169e+07)
(2.73037e+08 -2.55053e+07 5.54317e-08 6.04025e+06 2.00725e-08 8.37231e+07)
(2.56705e+08 -2.09147e+07 4.1458e-08 1.04431e+07 2.22387e-08 8.01444e+07)
(2.42033e+08 -1.65769e+07 -9.4667e-09 1.46997e+07 -1.71616e-08 7.70198e+07)
(2.28504e+08 -1.30597e+07 -9.63167e-09 1.7269e+07 2.61419e-08 7.37319e+07)
(2.16674e+08 -9.98203e+06 4.74565e-08 1.99722e+07 8.20237e-09 7.09938e+07)
(2.05759e+08 -7.31295e+06 9.58643e-09 2.12293e+07 -2.06149e-08 6.80964e+07)
(1.96162e+08 -5.21833e+06 1.06693e-08 2.27564e+07 2.20262e-08 6.56754e+07)
(1.87268e+08 -3.2798e+06 2.01082e-10 2.31729e+07 4.38547e-10 6.31321e+07)
(1.7939e+08 -1.72165e+06 -4.79422e-08 2.38234e+07 -3.69583e-08 6.09641e+07)
(1.72037e+08 -303448 2.01533e-08 2.36761e+07 1.28482e-08 5.8714e+07)
(1.65469e+08 878300 1.88188e-08 2.3712e+07 1.24142e-08 5.67542e+07)
(1.59292e+08 1.92952e+06 8.67942e-09 2.31813e+07 -1.21891e-08 5.4742e+07)
(1.53721e+08 2.82389e+06 -3.02085e-08 2.27954e+07 -1.53256e-08 5.29549e+07)
(1.48442e+08 3.61042e+06 -1.06883e-08 2.20051e+07 3.57808e-09 5.11341e+07)
(1.43634e+08 4.27869e+06 4.26138e-09 2.13352e+07 1.41675e-08 4.94907e+07)
(1.39038e+08 4.86994e+06 1.96029e-09 2.03728e+07 7.00887e-09 4.78231e+07)
(1.34813e+08 5.35513e+06 1.12207e-08 1.95175e+07 3.60198e-09 4.62991e+07)
(1.30729e+08 5.80095e+06 -1.39442e-08 1.8447e+07 -1.66706e-08 4.47528e+07)
(1.2695e+08 6.13037e+06 -2.60854e-11 1.74772e+07 -1.09989e-10 4.3328e+07)
(1.23229e+08 6.47092e+06 -1.62696e-08 1.63476e+07 -1.73299e-08 4.18729e+07)
(2.65796e+08 -3.43932e+07 -3.7035e-08 8.18407e+06 1.76749e-08 8.2194e+07)
(2.50294e+08 -2.81357e+07 2.86605e-08 1.17805e+07 3.5274e-08 7.86225e+07)
(2.36472e+08 -2.26228e+07 2.85019e-08 1.53997e+07 5.67482e-09 7.55614e+07)
(2.23864e+08 -1.7899e+07 -1.07842e-08 1.75086e+07 -1.38117e-08 7.24117e+07)
(2.12258e+08 -1.37653e+07 5.13814e-08 1.98437e+07 -9.19552e-09 6.96305e+07)
(2.02504e+08 -1.03681e+07 1.68853e-08 2.07625e+07 2.29547e-08 6.69798e+07)
(1.93397e+08 -7.37249e+06 7.8535e-09 2.19138e+07 1.10336e-08 6.45933e+07)
(1.85038e+08 -4.8116e+06 5.6773e-08 2.22348e+07 1.62774e-08 6.21819e+07)
(1.7758e+08 -2.59284e+06 1.21449e-08 2.26524e+07 -3.16208e-09 6.00697e+07)
(1.70565e+08 -675458 -1.03942e-08 2.24611e+07 -1.69755e-08 5.79079e+07)
(1.64316e+08 984529 3.125e-08 2.23758e+07 1.06391e-08 5.60075e+07)
(1.58392e+08 2.42367e+06 4.01807e-09 2.18248e+07 7.41915e-09 5.40651e+07)
(1.53065e+08 3.66808e+06 3.79372e-09 2.13901e+07 7.46989e-09 5.23365e+07)
(1.4799e+08 4.75137e+06 -2.96822e-08 2.06003e+07 -1.71268e-08 5.0577e+07)
(1.43372e+08 5.67745e+06 -1.25741e-08 1.99286e+07 -5.08729e-09 4.89903e+07)
(1.38947e+08 6.49367e+06 1.19171e-08 1.89852e+07 4.89132e-09 4.73798e+07)
(1.34878e+08 7.16688e+06 1.62216e-08 1.8161e+07 1.73799e-08 4.59117e+07)
(1.30946e+08 7.782e+06 2.18243e-08 1.71234e+07 9.80727e-09 4.44207e+07)
(1.27296e+08 8.2434e+06 -1.03834e-08 1.62105e+07 -4.66879e-09 4.3052e+07)
(1.23711e+08 8.71204e+06 9.58428e-09 1.51208e+07 7.99076e-09 4.16497e+07)
(2.56538e+08 -4.27011e+07 -3.18051e-08 1.08727e+07 1.92213e-10 8.02231e+07)
(2.42061e+08 -3.49398e+07 -5.14545e-09 1.35116e+07 -2.56972e-08 7.66719e+07)
(2.29463e+08 -2.81862e+07 -1.65115e-08 1.64742e+07 -1.49104e-08 7.37812e+07)
(2.17773e+08 -2.27306e+07 2.55779e-08 1.80055e+07 6.51927e-09 7.07335e+07)
(2.07674e+08 -1.74494e+07 -2.74338e-10 1.96124e+07 -2.6028e-10 6.8186e+07)
(1.9826e+08 -1.28401e+07 -1.13569e-08 1.9996e+07 3.92704e-09 6.54769e+07)
(1.89853e+08 -9.47504e+06 5.18296e-08 2.10494e+07 1.08366e-08 6.32708e+07)
(1.82029e+08 -6.25476e+06 1.06946e-08 2.09964e+07 -2.22991e-09 6.09078e+07)
(1.75082e+08 -3.53538e+06 1.75099e-08 2.13052e+07 6.38855e-09 5.89161e+07)
(1.68528e+08 -1.16608e+06 0 2.09006e+07 0 5.68287e+07)
(1.62671e+08 919447 5.70839e-09 2.07414e+07 7.15672e-09 5.50238e+07)
(1.57111e+08 2.69854e+06 -2.98989e-08 2.00851e+07 -1.31869e-08 5.31588e+07)
(1.52092e+08 4.27175e+06 3.28361e-08 1.96202e+07 1.94837e-08 5.15135e+07)
(1.47303e+08 5.61713e+06 2.17964e-08 1.87936e+07 1.92814e-08 4.9829e+07)
(1.42933e+08 6.79025e+06 9.16889e-09 1.81318e+07 3.78141e-10 4.83196e+07)
(1.38742e+08 7.80839e+06 -3.34261e-09 1.71948e+07 -5.92522e-09 4.67811e+07)
(1.34877e+08 8.66434e+06 8.59607e-09 1.64145e+07 4.15828e-10 4.53874e+07)
(1.31146e+08 9.43316e+06 1.09852e-08 1.541e+07 5.7729e-09 4.39667e+07)
(1.27668e+08 1.00267e+07 -8.05425e-09 1.45708e+07 -4.71336e-10 4.26716e+07)
(1.24259e+08 1.06121e+07 2.50815e-08 1.35277e+07 9.00471e-09 4.1336e+07)
(2.45065e+08 -4.99948e+07 6.34683e-08 1.40061e+07 2.14885e-10 7.77213e+07)
(2.32224e+08 -4.09487e+07 -9.93083e-09 1.53671e+07 6.29763e-09 7.42774e+07)
(2.21417e+08 -3.32561e+07 2.90448e-08 1.76549e+07 8.3974e-09 7.17215e+07)
(2.10708e+08 -2.65312e+07 -1.64578e-08 1.81762e+07 -1.1383e-08 6.86652e+07)
(1.99753e+08 -2.03713e+07 -4.7186e-08 1.89669e+07 -1.58993e-08 6.56161e+07)
(1.93045e+08 -1.58223e+07 -3.50855e-08 1.94342e+07 -1.76485e-08 6.37439e+07)
(1.8586e+08 -1.15844e+07 -1.15552e-08 2.00314e+07 -8.77898e-09 6.17673e+07)
(1.78366e+08 -7.81054e+06 6.03346e-10 1.96291e+07 7.69342e-09 5.93984e+07)
(1.72111e+08 -4.58587e+06 -1.78369e-08 1.97578e+07 -7.87243e-09 5.75607e+07)
(1.66015e+08 -1.78791e+06 -4.2079e-08 1.90845e+07 -2.31384e-08 5.55299e+07)
(1.60635e+08 652738 -1.82223e-08 1.88445e+07 -2.89879e-09 5.38439e+07)
(1.55484e+08 2.7592e+06 -2.13315e-08 1.80336e+07 -1.3971e-08 5.20553e+07)
(1.50828e+08 4.60167e+06 -1.10247e-08 1.75432e+07 -1.17467e-08 5.05113e+07)
(1.46377e+08 6.19674e+06 1.35594e-08 1.66497e+07 7.45631e-09 4.89081e+07)
(1.42299e+08 7.57814e+06 4.2558e-09 1.60042e+07 5.23026e-09 4.7491e+07)
(1.38387e+08 8.7862e+06 1.24773e-08 1.50597e+07 7.42333e-09 4.60341e+07)
(1.34763e+08 9.8031e+06 3.55127e-09 1.43314e+07 5.01724e-09 4.47284e+07)
(1.31272e+08 1.07146e+07 1.81105e-08 1.3357e+07 1.73526e-08 4.33887e+07)
(1.28e+08 1.14316e+07 -1.70029e-08 1.26018e+07 -1.67142e-08 4.21806e+07)
(1.24798e+08 1.21241e+07 8.60428e-10 1.16087e+07 -1.49164e-09 4.09221e+07)
(2.31726e+08 -5.61592e+07 7.4752e-08 1.72363e+07 1.09043e-08 7.46887e+07)
(2.20816e+08 -4.60627e+07 -5.34817e-08 1.75279e+07 -1.98867e-08 7.15031e+07)
(2.11216e+08 -3.75372e+07 -4.42768e-08 1.87345e+07 -2.1906e-08 6.89853e+07)
(2.02379e+08 -2.97992e+07 2.99223e-08 1.83989e+07 1.9856e-08 6.62333e+07)
(1.94346e+08 -2.37566e+07 -7.04852e-09 1.90959e+07 -4.72649e-10 6.40325e+07)
(1.86743e+08 -1.85334e+07 7.84836e-09 1.88107e+07 1.6785e-09 6.1666e+07)
(1.80238e+08 -1.34637e+07 -1.27219e-08 1.87019e+07 -7.14104e-09 5.9682e+07)
(1.7392e+08 -9.34301e+06 -1.93821e-08 1.80778e+07 -9.28357e-09 5.75994e+07)
(1.683e+08 -5.70875e+06 4.68594e-08 1.77947e+07 2.48541e-08 5.58284e+07)
(1.62927e+08 -2.55681e+06 -2.53597e-08 1.70144e+07 -1.2348e-08 5.39825e+07)
(1.58072e+08 159597 1.58689e-10 1.65516e+07 1.10477e-10 5.23871e+07)
(1.53434e+08 2.55469e+06 -1.42407e-08 1.5691e+07 -1.06393e-08 5.07374e+07)
(1.49201e+08 4.61128e+06 -2.11055e-08 1.51003e+07 -1.39388e-08 4.92904e+07)
(1.45144e+08 6.42946e+06 -2.62982e-09 1.41985e+07 1.08093e-09 4.78028e+07)
(1.4141e+08 7.98344e+06 -3.16585e-08 1.3535e+07 -2.17048e-08 4.64834e+07)
(1.37817e+08 9.36107e+06 -1.74189e-08 1.26151e+07 -1.30824e-08 4.51297e+07)
(1.34478e+08 1.05176e+07 -1.62827e-08 1.19266e+07 -1.26247e-08 4.39214e+07)
(1.31258e+08 1.15556e+07 3.55103e-09 1.10013e+07 4.06719e-09 4.26777e+07)
(1.28229e+08 1.23862e+07 1.81664e-08 1.03291e+07 1.63678e-08 4.15673e+07)
(1.25258e+08 1.31732e+07 -1.3941e-08 9.39967e+06 -1.19298e-08 4.03974e+07)
(2.17043e+08 -6.10283e+07 -1.49559e-09 2.06147e+07 1.07347e-09 7.12974e+07)
(2.08204e+08 -5.02688e+07 8.67232e-08 1.97727e+07 2.83369e-08 6.83929e+07)
(2.00282e+08 -4.11264e+07 -8.21231e-08 1.9792e+07 -2.93068e-08 6.60222e+07)
(1.92915e+08 -3.31829e+07 2.64085e-08 1.89037e+07 1.0416e-08 6.35457e+07)
(1.85788e+08 -2.6227e+07 1.10949e-08 1.87303e+07 7.04037e-09 6.13555e+07)
(1.79984e+08 -2.04368e+07 -1.09199e-08 1.77076e+07 -2.66469e-09 5.93075e+07)
(1.74262e+08 -1.52981e+07 -2.80482e-08 1.72196e+07 -1.51977e-08 5.74444e+07)
(1.68915e+08 -1.08265e+07 -1.98484e-08 1.62882e+07 -1.04475e-08 5.55611e+07)
(1.64041e+08 -6.94201e+06 -2.62538e-08 1.56858e+07 -1.57101e-08 5.3918e+07)
(1.59337e+08 -3.53134e+06 2.77484e-08 1.4743e+07 1.51142e-08 5.22241e+07)
(1.55089e+08 -570139 1.65418e-08 1.40824e+07 1.00476e-08 5.07513e+07)
(1.50965e+08 2.02984e+06 9.82539e-15 1.31374e+07 5.39392e-15 4.92308e+07)
(1.47214e+08 4.29068e+06 -2.20303e-08 1.24515e+07 -1.3917e-08 4.78996e+07)
(1.43572e+08 6.2739e+06 -8.05567e-09 1.15215e+07 -5.69049e-09 4.6528e+07)
(1.40224e+08 7.99245e+06 5.64668e-09 1.08396e+07 3.83876e-09 4.53191e+07)
(1.36974e+08 9.50183e+06 -1.79922e-08 9.93402e+06 -1.29649e-08 4.40725e+07)
(1.33954e+08 1.07914e+07 -4.16349e-15 9.28455e+06 -3.28389e-15 4.29715e+07)
(1.31025e+08 1.19313e+07 -3.59318e-08 8.40474e+06 -2.69485e-08 4.18291e+07)
(1.28268e+08 1.28726e+07 7.71516e-09 7.8156e+06 5.41725e-09 4.0825e+07)
(1.25545e+08 1.37381e+07 -1.97605e-08 6.95029e+06 -1.62878e-08 3.97486e+07)
(2.0111e+08 -6.45151e+07 -5.81377e-08 2.40586e+07 -8.82686e-10 6.75505e+07)
(1.94508e+08 -5.33615e+07 2.84888e-08 2.18498e+07 6.62684e-09 6.49073e+07)
(1.88485e+08 -4.39362e+07 -2.58268e-08 2.09311e+07 -6.06183e-09 6.28247e+07)
(1.82718e+08 -3.56125e+07 -4.65451e-08 1.90594e+07 -1.14865e-08 6.05332e+07)
(1.77427e+08 -2.85912e+07 4.34665e-08 1.82019e+07 1.61571e-08 5.86885e+07)
(1.72279e+08 -2.24722e+07 3.13735e-08 1.66765e+07 2.92694e-09 5.66868e+07)
(1.67725e+08 -1.70226e+07 -2.57602e-08 1.57524e+07 -1.81387e-08 5.50431e+07)
(1.63203e+08 -1.23751e+07 -1.97742e-08 1.44083e+07 -1.12583e-08 5.32834e+07)
(1.59167e+08 -8.22615e+06 -4.95724e-08 1.3529e+07 -2.61146e-08 5.18089e+07)
(1.55179e+08 -4.66326e+06 -2.23099e-08 1.23233e+07 -7.38886e-09 5.02508e+07)
(1.51572e+08 -1.50119e+06 9.79616e-09 1.15018e+07 3.45358e-09 4.89221e+07)
(1.48027e+08 1.23716e+06 3.23504e-08 1.04131e+07 2.16901e-08 4.75319e+07)
(1.44783e+08 3.65371e+06 -8.99863e-15 9.65423e+06 -3.70391e-15 4.6331e+07)
(1.41605e+08 5.75713e+06 7.02282e-09 8.66482e+06 3.12677e-09 4.50809e+07)
(1.38669e+08 7.60142e+06 7.89539e-09 7.97743e+06 7.37371e-09 4.3994e+07)
(1.35798e+08 9.21029e+06 2.13015e-08 7.07035e+06 1.73539e-08 4.28606e+07)
(1.33122e+08 1.06058e+07 1.78491e-08 6.46743e+06 1.27172e-08 4.18769e+07)
(1.30511e+08 1.18236e+07 2.47817e-08 5.62537e+06 1.95524e-08 4.08408e+07)
(1.2805e+08 1.2859e+07 -2.38293e-08 5.12338e+06 -1.91883e-08 3.99519e+07)
(1.2559e+08 1.37854e+07 3.77874e-09 4.31872e+06 2.60414e-09 3.89726e+07)
(1.84478e+08 -6.66337e+07 -8.6572e-08 2.72523e+07 2.31204e-09 6.3519e+07)
(1.80053e+08 -5.54799e+07 -3.03495e-08 2.38959e+07 -3.89213e-09 6.11847e+07)
(1.75845e+08 -4.59147e+07 0 2.18589e+07 0 5.93113e+07)
(1.71743e+08 -3.75841e+07 -2.32026e-08 1.92313e+07 -3.23802e-09 5.72923e+07)
(1.6777e+08 -3.03324e+07 -6.94778e-08 1.76043e+07 -2.71956e-08 5.56124e+07)
(1.64058e+08 -2.40762e+07 -3.68257e-09 1.54765e+07 -9.20246e-09 5.38605e+07)
(1.60464e+08 -1.85727e+07 3.80342e-08 1.40921e+07 1.48393e-08 5.23669e+07)
(1.5701e+08 -1.37859e+07 4.05559e-08 1.23769e+07 2.42031e-08 5.0816e+07)
(1.53752e+08 -9.57622e+06 5.73103e-08 1.11923e+07 3.59445e-08 4.94832e+07)
(1.50559e+08 -5.89245e+06 -1.15933e-08 9.77578e+06 -2.36282e-09 4.81004e+07)
(1.47588e+08 -2.65226e+06 -2.1019e-08 8.76523e+06 -4.59268e-09 4.69059e+07)
(1.44653e+08 189102 -3.6247e-10 7.56922e+06 -8.68887e-11 4.56668e+07)
(1.4193e+08 2.69017e+06 8.29805e-09 6.71421e+06 2.1456e-09 4.45933e+07)
(1.39236e+08 4.88121e+06 1.48916e-08 5.68653e+06 1.11249e-08 4.34767e+07)
(1.3673e+08 6.80912e+06 2.20714e-08 4.9761e+06 1.98703e-08 4.25118e+07)
(1.34251e+08 8.49138e+06 -5.97603e-09 4.07862e+06 -2.02054e-09 4.14989e+07)
(1.31936e+08 9.96761e+06 -9.30458e-11 3.50913e+06 -3.37476e-11 4.06335e+07)
(1.2965e+08 1.12441e+07 2.67357e-08 2.71051e+06 1.59403e-08 3.97081e+07)
(1.27501e+08 1.23592e+07 1.66711e-08 2.28496e+06 1.20256e-08 3.89359e+07)
(1.25309e+08 1.3334e+07 1.57995e-08 1.54428e+06 1.6406e-08 3.80559e+07)
(1.6737e+08 -6.73685e+07 -4.08834e-08 3.01602e+07 1.32023e-08 5.9259e+07)
(1.65112e+08 -5.64393e+07 -3.33344e-08 2.5588e+07 -1.13982e-09 5.721e+07)
(1.62803e+08 -4.70723e+07 2.58527e-08 2.25896e+07 2.3577e-08 5.56178e+07)
(1.60285e+08 -3.88321e+07 2.45366e-08 1.91312e+07 1.25353e-08 5.38248e+07)
(1.57835e+08 -3.17122e+07 4.5861e-08 1.68297e+07 2.13186e-09 5.23995e+07)
(1.5523e+08 -2.54666e+07 4.41846e-10 1.41827e+07 2.44189e-11 5.08238e+07)
(1.52797e+08 -1.99813e+07 7.48478e-09 1.23535e+07 2.34141e-08 4.9545e+07)
(1.50231e+08 -1.51968e+07 -1.19103e-08 1.02843e+07 1.04387e-08 4.81545e+07)
(1.47862e+08 -1.09547e+07 3.29172e-08 8.82085e+06 1.36353e-08 4.70047e+07)
(1.45396e+08 -7.26092e+06 3.07178e-08 7.17464e+06 1.35449e-08 4.57712e+07)
(1.43119e+08 -3.97148e+06 2.8691e-08 6.00441e+06 1.33718e-08 4.47369e+07)
(1.40778e+08 -1.10819e+06 -3.31787e-08 4.67589e+06 -2.41464e-08 4.36363e+07)
(1.38609e+08 1.44662e+06 -8.76187e-09 3.74836e+06 -1.08783e-09 4.27073e+07)
(1.36401e+08 3.66655e+06 -2.31376e-08 2.66158e+06 -1.27892e-08 4.17187e+07)
(1.34348e+08 5.64949e+06 -1.48358e-08 1.94368e+06 -1.14894e-08 4.08874e+07)
(1.32269e+08 7.36208e+06 -3.60799e-08 1.04072e+06 -3.26692e-08 3.9993e+07)
(1.30334e+08 8.89508e+06 -2.70425e-08 512808 -2.20549e-08 3.92542e+07)
(1.28381e+08 1.01985e+07 -4.84068e-09 -253104 -1.02204e-09 3.84385e+07)
(1.26564e+08 1.13747e+07 2.05258e-08 -600402 2.01861e-08 3.7789e+07)
(1.24642e+08 1.23753e+07 1.12083e-08 -1.28568e+06 6.59575e-09 3.70069e+07)
(1.50124e+08 -6.67752e+07 7.48923e-08 3.25546e+07 3.50899e-09 5.48035e+07)
(1.49916e+08 -5.63746e+07 -6.63631e-08 2.69784e+07 3.5653e-09 5.30683e+07)
(1.49354e+08 -4.73745e+07 -3.12321e-08 2.30366e+07 1.63539e-09 5.17171e+07)
(1.48435e+08 -3.94665e+07 1.49308e-09 1.88806e+07 -1.43417e-08 5.01946e+07)
(1.47319e+08 -3.25553e+07 2.36186e-08 1.59248e+07 1.32601e-08 4.8973e+07)
(1.45995e+08 -2.64978e+07 2.44279e-08 1.27829e+07 2.73619e-08 4.76335e+07)
(1.44584e+08 -2.11582e+07 2.08927e-08 1.05246e+07 1.32829e-08 4.65327e+07)
(1.43028e+08 -1.64756e+07 -3.7879e-09 8.12783e+06 -1.36278e-08 4.53467e+07)
(1.41468e+08 -1.23258e+07 -3.89187e-08 6.38853e+06 -2.60978e-08 4.4357e+07)
(1.39794e+08 -8.68375e+06 -3.17057e-08 4.54195e+06 -1.26916e-08 4.33009e+07)
(1.38172e+08 -5.44271e+06 1.13346e-08 3.2059e+06 -1.21163e-10 4.24133e+07)
(1.36458e+08 -2.60108e+06 2.73223e-08 1.76851e+06 1.24852e-08 4.1468e+07)
(1.34826e+08 -62083.3 3.26397e-08 758078 2.45693e-08 4.06754e+07)
(1.3312e+08 2.15438e+06 8.24982e-09 -372868 1.10139e-10 3.98242e+07)
(1.31515e+08 4.14496e+06 -7.5606e-09 -1.11002e+06 -1.16991e-08 3.91215e+07)
(1.29844e+08 5.86443e+06 1.46597e-08 -2.01133e+06 1.16113e-08 3.83498e+07)
(1.2829e+08 7.42274e+06 -3.04054e-09 -2.50967e+06 1.08332e-08 3.77341e+07)
(1.26671e+08 8.73734e+06 2.16085e-08 -3.24099e+06 2.20622e-08 3.70289e+07)
(1.25185e+08 9.95405e+06 4.58072e-09 -3.52217e+06 1.91887e-10 3.64989e+07)
(1.23532e+08 1.09714e+07 -2.44186e-08 -4.15309e+06 -1.70174e-08 3.58137e+07)
(1.33038e+08 -6.49401e+07 8.14609e-08 3.43644e+07 -8.03401e-09 5.02206e+07)
(1.34747e+08 -5.52711e+07 1.11197e-08 2.78604e+07 -3.50972e-08 4.87823e+07)
(1.35862e+08 -4.68782e+07 -2.52955e-08 2.31203e+07 -1.34625e-08 4.76948e+07)
(1.36413e+08 -3.94456e+07 -5.23499e-08 1.83187e+07 -9.9804e-09 4.64196e+07)
(1.36626e+08 -3.29434e+07 -2.40512e-08 1.48049e+07 3.11435e-09 4.54293e+07)
(1.36432e+08 -2.71932e+07 -4.69795e-10 1.12297e+07 5.83798e-11 4.42987e+07)
(1.36074e+08 -2.21158e+07 -2.40523e-08 8.5948e+06 -2.95962e-08 4.34005e+07)
(1.35411e+08 -1.7638e+07 5.83651e-08 5.9119e+06 2.50058e-08 4.23968e+07)
(1.34687e+08 -1.36508e+07 3.51334e-08 3.93173e+06 1.15545e-08 4.15857e+07)
(1.33735e+08 -1.01453e+07 -1.31168e-08 1.90573e+06 1.4817e-09 4.06921e+07)
(1.32783e+08 -7.00167e+06 -1.16614e-08 430125 1.31333e-09 3.9964e+07)
(1.31658e+08 -4.24957e+06 1.32346e-08 -1.10717e+06 2.78657e-08 3.91652e+07)
(1.30573e+08 -1.76448e+06 -3.57285e-10 -2.18137e+06 3.90833e-11 3.85174e+07)
(1.2935e+08 394505 5.84104e-10 -3.35295e+06 -1.40564e-08 3.77991e+07)
(1.28198e+08 2.3614e+06 7.77597e-09 -4.09701e+06 1.2886e-08 3.72304e+07)
(1.26927e+08 4.0445e+06 3.7233e-08 -4.99538e+06 3.62075e-08 3.65795e+07)
(1.25759e+08 5.60153e+06 8.17066e-09 -5.45842e+06 1.22611e-08 3.60901e+07)
(1.2447e+08 6.89299e+06 -2.7417e-08 -6.15517e+06 -2.26626e-08 3.54943e+07)
(1.23324e+08 8.12665e+06 9.01604e-09 -6.37103e+06 -1.14913e-09 3.50859e+07)
(1.21937e+08 9.13537e+06 1.68092e-08 -6.94998e+06 1.03335e-08 3.4496e+07)
(1.16339e+08 -6.19563e+07 9.7609e-08 3.54451e+07 -5.90089e-08 4.55354e+07)
(1.19784e+08 -5.32343e+07 3.68851e-08 2.82262e+07 -8.08796e-09 4.4403e+07)
(1.22399e+08 -4.56028e+07 -3.57243e-08 2.28044e+07 2.71041e-08 4.35611e+07)
(1.24335e+08 -3.88197e+07 6.26821e-10 1.74951e+07 -1.33579e-10 4.25491e+07)
(1.25736e+08 -3.28371e+07 -7.20886e-08 1.35006e+07 -2.25677e-08 4.17711e+07)
(1.26657e+08 -2.75313e+07 -6.64706e-10 9.57161e+06 -1.84945e-08 4.08686e+07)
(1.27246e+08 -2.28147e+07 -5.99173e-08 6.61103e+06 -5.82762e-09 4.01571e+07)
(1.2748e+08 -1.86405e+07 -3.50708e-08 3.69287e+06 7.23425e-09 3.93518e+07)
(1.27523e+08 -1.4903e+07 6.96916e-08 1.50244e+06 2.0848e-08 3.87075e+07)
(1.27293e+08 -1.16046e+07 3.77646e-08 -668846 2.67554e-08 3.79873e+07)
(1.26971e+08 -8.63013e+06 -3.05583e-08 -2.26893e+06 -1.05539e-08 3.74106e+07)
(1.26431e+08 -6.01807e+06 4.55009e-08 -3.88514e+06 2.36114e-08 3.67637e+07)
(1.2587e+08 -3.6429e+06 -3.81828e-08 -5.01905e+06 -5.68957e-08 3.62552e+07)
(1.25124e+08 -1.57663e+06 -4.80883e-08 -6.22194e+06 -3.73285e-08 3.56705e+07)
(1.24415e+08 324474 -5.34633e-08 -6.976e+06 -1.92295e-08 3.52316e+07)
(1.23534e+08 1.94873e+06 -6.462e-15 -7.87217e+06 1.50324e-15 3.46984e+07)
(1.22745e+08 3.47381e+06 -1.7061e-08 -8.30679e+06 -2.62422e-08 3.43315e+07)
(1.21775e+08 4.73054e+06 -2.7556e-08 -8.97742e+06 -2.28744e-08 3.38394e+07)
(1.20963e+08 5.9598e+06 -3.58391e-08 -9.13615e+06 -1.97323e-08 3.35481e+07)
(1.19832e+08 6.95611e+06 3.60476e-08 -9.67575e+06 1.85728e-08 3.30468e+07)
(1.00302e+08 -5.79759e+07 -5.48113e-08 3.57274e+07 1.335e-08 4.08089e+07)
(1.0528e+08 -5.03473e+07 4.44812e-08 2.79421e+07 5.1591e-08 3.99668e+07)
(1.0924e+08 -4.36321e+07 2.58751e-08 2.1989e+07 1.37993e-08 3.93686e+07)
(1.12404e+08 -3.76129e+07 5.38162e-08 1.6276e+07 -1.5848e-08 3.8604e+07)
(1.14896e+08 -3.22774e+07 1.09288e-09 1.19037e+07 -3.21643e-10 3.80398e+07)
(1.16804e+08 -2.75078e+07 9.83252e-10 7.69816e+06 2.03158e-08 3.73508e+07)
(1.18281e+08 -2.32462e+07 2.16895e-08 4.47908e+06 1.39061e-08 3.6828e+07)
(1.19318e+08 -1.94509e+07 -7.53142e-08 1.38108e+06 -1.76937e-08 3.62096e+07)
(1.20086e+08 -1.60309e+07 -3.52862e-08 -975710 -9.05937e-09 3.57331e+07)
(1.20516e+08 -1.30015e+07 2.70836e-08 -3.25356e+06 -8.02908e-09 3.51787e+07)
(1.2079e+08 -1.02456e+07 -4.8375e-08 -4.94883e+06 -2.28039e-08 3.47524e+07)
(1.20797e+08 -7.82533e+06 1.06012e-08 -6.61606e+06 -3.24965e-09 3.42543e+07)
(1.20731e+08 -5.59659e+06 8.21905e-08 -7.78995e+06 1.00513e-08 3.38822e+07)
(1.20441e+08 -3.66837e+06 3.2792e-08 -9.00195e+06 2.47912e-08 3.34318e+07)
(1.20149e+08 -1.86054e+06 -2.97315e-08 -9.75308e+06 1.01451e-08 3.31186e+07)
(1.19649e+08 -336732 -2.17858e-08 -1.0627e+07 -9.55124e-09 3.27066e+07)
(1.1922e+08 1.13364e+06 -8.69251e-09 -1.1026e+07 -1.38796e-08 3.24581e+07)
(1.18565e+08 2.31814e+06 1.40348e-08 -1.16509e+07 1.14019e-08 3.20742e+07)
(1.18076e+08 3.51829e+06 7.65032e-11 -1.1751e+07 -3.36663e-11 3.18974e+07)
(1.17194e+08 4.47282e+06 -1.78733e-08 -1.22356e+07 -3.6872e-09 3.14875e+07)
(8.50654e+07 -5.31163e+07 1.89584e-08 3.51339e+07 2.86632e-09 3.60598e+07)
(9.13494e+07 -4.67115e+07 -6.00421e-08 2.70055e+07 -8.35669e-10 3.55065e+07)
(9.64558e+07 -4.10181e+07 2.94113e-08 2.06899e+07 -1.11916e-08 3.51437e+07)
(1.00702e+08 -3.58753e+07 3.13832e-09 1.47282e+07 -2.43931e-08 3.46289e+07)
(1.04142e+08 -3.12723e+07 2.0979e-08 1.00959e+07 6.06761e-08 3.42713e+07)
(1.06944e+08 -2.71331e+07 -2.29305e-08 5.72066e+06 -1.38232e-08 3.37995e+07)
(1.09208e+08 -2.33993e+07 -2.78528e-09 2.32549e+06 -2.0964e-08 3.346e+07)
(1.10982e+08 -2.00592e+07 0 -878436 0 3.30312e+07)
(1.12409e+08 -1.70196e+07 -3.94896e-08 -3.34551e+06 -2.71896e-08 3.27192e+07)
(1.13448e+08 -1.43196e+07 -5.25078e-09 -5.67952e+06 -1.86793e-08 3.23304e+07)
(1.1428e+08 -1.18362e+07 4.30991e-08 -7.43479e+06 4.40192e-08 3.20536e+07)
(1.14788e+08 -9.6542e+06 -8.52055e-08 -9.12142e+06 -2.55775e-08 3.16999e+07)
(1.15201e+08 -7.61851e+06 2.58616e-08 -1.03168e+07 8.89403e-09 3.14653e+07)
(1.15325e+08 -5.86071e+06 6.57272e-08 -1.15238e+07 2.98503e-08 3.11403e+07)
(1.15449e+08 -4.18727e+06 3.14232e-08 -1.22651e+07 2.41738e-08 3.09551e+07)
(1.15291e+08 -2.78162e+06 6.68236e-09 -1.31221e+07 -3.14198e-09 3.06507e+07)
(1.15225e+08 -1.4018e+06 1.47698e-08 -1.34826e+07 1.14801e-08 3.05228e+07)
(1.14857e+08 -293672 -5.0391e-09 -1.40902e+07 2.68721e-09 3.023e+07)
(1.14687e+08 852472 2.31805e-08 -1.41291e+07 2.45013e-08 3.01673e+07)
(1.14038e+08 1.77111e+06 9.47562e-09 -1.46024e+07 1.31662e-08 2.98306e+07)
(7.08543e+07 -4.75788e+07 3.43426e-08 3.36268e+07 -2.08139e-08 3.13443e+07)
(7.82129e+07 -4.24715e+07 7.89514e-10 2.53246e+07 -3.68195e-10 3.10613e+07)
(8.42657e+07 -3.78833e+07 6.91283e-10 1.87923e+07 -3.20672e-10 3.09174e+07)
(8.94197e+07 -3.36839e+07 6.94097e-08 1.27034e+07 6.82149e-08 3.06369e+07)
(9.36632e+07 -2.98893e+07 -2.35807e-08 7.91207e+06 -1.3758e-08 3.04726e+07)
(9.7232e+07 -2.64378e+07 6.40811e-08 3.45371e+06 -2.93924e-08 3.02057e+07)
(1.00175e+08 -2.32961e+07 -1.80351e-08 -51623.6 8.32092e-09 3.00369e+07)
(1.02598e+08 -2.04583e+07 -1.6832e-08 -3.30005e+06 7.79608e-09 2.97893e+07)
(1.04598e+08 -1.78509e+07 -3.93539e-08 -5.83759e+06 -2.69144e-08 2.96281e+07)
(1.06189e+08 -1.55185e+07 -4.02078e-08 -8.1836e+06 1.90952e-08 2.94016e+07)
(1.07504e+08 -1.33472e+07 2.96286e-08 -9.97756e+06 7.44909e-09 2.92579e+07)
(1.08488e+08 -1.14362e+07 -3.26271e-09 -1.16493e+07 -4.12719e-08 2.90517e+07)
(1.09307e+08 -9.61934e+06 -4.30789e-08 -1.28575e+07 -2.01881e-08 2.8935e+07)
(1.09846e+08 -8.06644e+06 8.19359e-09 -1.40273e+07 1.6509e-08 2.87455e+07)
(1.10312e+08 -6.53644e+06 8.61529e-09 -1.47595e+07 1.59163e-08 2.86658e+07)
(1.10514e+08 -5.29281e+06 -1.55164e-08 -1.55599e+07 -1.14732e-08 2.84863e+07)
(1.10745e+08 -3.99654e+06 5.52352e-09 -1.58911e+07 -3.47568e-09 2.84563e+07)
(1.10673e+08 -3.00986e+06 9.47257e-09 -1.64249e+07 1.42678e-08 2.82746e+07)
(1.1078e+08 -1.92339e+06 -3.21641e-08 -1.64077e+07 -1.82657e-08 2.83117e+07)
(1.10355e+08 -1.07999e+06 -1.34925e-08 -1.68068e+07 -1.04742e-08 2.80646e+07)
(5.77118e+07 -4.14698e+07 -1.69445e-08 3.11727e+07 -3.47133e-09 2.66653e+07)
(6.59075e+07 -3.77121e+07 -3.23155e-08 2.29211e+07 1.79087e-08 2.66486e+07)
(7.27094e+07 -3.42719e+07 -3.74094e-08 1.63651e+07 7.51255e-08 2.67224e+07)
(7.86007e+07 -3.1067e+07 7.18792e-08 1.03132e+07 -1.25773e-08 2.66742e+07)
(8.3504e+07 -2.81204e+07 1.37238e-09 5.50607e+06 -5.3244e-08 2.6703e+07)
(8.77113e+07 -2.54045e+07 5.54354e-10 1.08697e+06 2.53882e-08 2.66395e+07)
(9.12325e+07 -2.28905e+07 3.86445e-08 -2.41971e+06 3.93956e-09 2.66438e+07)
(9.42015e+07 -2.05988e+07 3.27435e-08 -5.61976e+06 -1.80918e-08 2.65745e+07)
(9.67117e+07 -1.84559e+07 1.99809e-08 -8.14468e+06 1.29646e-08 2.65701e+07)
(9.87629e+07 -1.65303e+07 -4.51079e-08 -1.04305e+07 1.94284e-09 2.64997e+07)
(1.00535e+08 -1.47018e+07 -4.29041e-08 -1.22022e+07 -4.48898e-08 2.64999e+07)
(1.01899e+08 -1.30941e+07 1.76937e-08 -1.38015e+07 1.23461e-08 2.64292e+07)
(1.03139e+08 -1.15303e+07 -3.55524e-08 -1.49832e+07 -6.85155e-10 2.64468e+07)
(1.03979e+08 -1.02014e+07 -2.475e-08 -1.6071e+07 -6.52637e-09 2.63725e+07)
(1.04842e+08 -8.86226e+06 -1.8659e-09 -1.67721e+07 -2.0967e-08 2.6421e+07)
(1.05281e+08 -7.77913e+06 1.27223e-08 -1.74939e+07 -8.94313e-09 2.63361e+07)
(1.05862e+08 -6.63522e+06 -1.07594e-08 -1.77596e+07 8.15661e-09 2.64307e+07)
(1.06012e+08 -5.76645e+06 4.63949e-09 -1.82666e+07 -3.7266e-09 2.63237e+07)
(1.06435e+08 -4.79206e+06 -9.731e-09 -1.81659e+07 -1.41637e-08 2.64808e+07)
(1.06205e+08 -4.02108e+06 -2.04495e-08 -1.86025e+07 -3.45803e-09 2.62807e+07)
(4.58148e+07 -3.50346e+07 -1.50438e-08 2.77939e+07 -4.37891e-09 2.20826e+07)
(5.46092e+07 -3.26304e+07 -6.53967e-08 1.97548e+07 7.17598e-08 2.23092e+07)
(6.1942e+07 -3.03631e+07 -5.12357e-08 1.3306e+07 3.96681e-09 2.25744e+07)
(6.83906e+07 -2.81718e+07 6.08018e-09 7.41117e+06 -8.89985e-08 2.27405e+07)
(7.37864e+07 -2.61098e+07 2.21734e-08 2.67889e+06 1.36632e-08 2.29396e+07)
(7.85012e+07 -2.4153e+07 -4.25519e-08 -1.61545e+06 -2.72723e-08 2.30657e+07)
(8.24673e+07 -2.23091e+07 3.78873e-10 -5.06878e+06 -2.42276e-10 2.32196e+07)
(8.58949e+07 -2.0584e+07 -3.59078e-08 -8.16201e+06 -2.91965e-09 2.33199e+07)
(8.87987e+07 -1.89514e+07 7.1958e-08 -1.06507e+07 2.96335e-08 2.34444e+07)
(9.12664e+07 -1.74458e+07 1.28611e-08 -1.28385e+07 -8.48944e-09 2.35284e+07)
(9.33781e+07 -1.60076e+07 -1.10136e-08 -1.45903e+07 7.42641e-09 2.36364e+07)
(9.51287e+07 -1.47084e+07 6.25908e-08 -1.6094e+07 2.92188e-08 2.37104e+07)
(9.66499e+07 -1.34411e+07 -7.82966e-09 -1.72738e+07 -1.82708e-08 2.38128e+07)
(9.78659e+07 -1.23463e+07 -2.39869e-08 -1.82604e+07 -5.86097e-09 2.38816e+07)
(9.8949e+07 -1.12153e+07 -6.12432e-08 -1.89869e+07 -2.29661e-08 2.39886e+07)
(9.97702e+07 -1.03599e+07 -6.24736e-09 -1.95779e+07 5.06534e-09 2.40577e+07)
(1.00533e+08 -9.29639e+06 3.49559e-08 -1.99383e+07 1.6682e-08 2.41783e+07)
(1.00979e+08 -8.58673e+06 -4.3261e-08 -2.0301e+07 -3.09534e-08 2.42033e+07)
(1.01608e+08 -7.67436e+06 2.78696e-08 -2.02673e+07 2.02084e-08 2.44021e+07)
(1.01547e+08 -7.06384e+06 4.47418e-08 -2.05435e+07 1.9083e-08 2.4301e+07)
(3.5124e+07 -2.83416e+07 -4.52487e-08 2.34697e+07 5.53159e-08 1.75781e+07)
(4.43047e+07 -2.72752e+07 -6.45006e-09 1.58485e+07 3.60042e-08 1.8046e+07)
(5.19931e+07 -2.61618e+07 -4.15078e-08 9.69803e+06 -6.10095e-08 1.85073e+07)
(5.88363e+07 -2.49773e+07 2.22206e-08 4.11578e+06 1.35863e-08 1.88856e+07)
(6.45928e+07 -2.3787e+07 2.02791e-08 -391865 -1.49035e-08 1.92603e+07)
(6.96884e+07 -2.25883e+07 4.09457e-10 -4.44188e+06 -3.00774e-10 1.9574e+07)
(7.40057e+07 -2.14032e+07 -2.07704e-08 -7.71833e+06 -1.26922e-08 1.98862e+07)
(7.7787e+07 -2.0249e+07 5.09538e-09 -1.06108e+07 2.36149e-08 2.01528e+07)
(8.10277e+07 -1.91129e+07 -1.37252e-08 -1.29555e+07 1.03159e-08 2.04217e+07)
(8.38119e+07 -1.80359e+07 3.03441e-08 -1.49679e+07 3.16851e-09 2.06532e+07)