/*--------------------------------*- C++ -*----------------------------------*\
| =========                 |                                                 |
| \\      /  F ield         | OpenFOAM: The Open Source CFD Toolbox           |
|  \\    /   O peration     | Version:  v2012                                 |
|   \\  /    A nd           | Website:  www.openfoam.com                      |
|    \\/     M anipulation  |                                                 |
\*---------------------------------------------------------------------------*/
FoamFile
{
    version     2.0;
    format      ascii;
    class       volSymmTensorField;
    location    "15";
    object      epsilon;
}
// * * * * * * * * * * * * * * * * * * * * * * * * * * * * * * * * * * * * * //

dimensions      [0 0 0 0 0 0 0];


internalField   nonuniform List<symmTensor> 
2000
(
(0.00866409 -0.000962171 1.30518e-14 -0.00829942 7.19722e-14 0)
(0.00845751 -0.000995984 2.31304e-14 -0.00794807 4.10015e-14 0)
(0.0084695 -0.000837508 7.12516e-15 -0.00765257 3.46181e-14 0)
(0.00803469 -0.00101532 3.36124e-15 -0.00716166 3.58955e-14 0)
(0.00806113 -0.000672323 -3.86529e-15 -0.00682737 2.61171e-14 0)
(0.00745126 -0.000989415 -4.59149e-15 -0.00625895 1.59443e-14 0)
(0.00749 -0.000489205 -1.11781e-16 -0.00588751 6.85845e-15 0)
(0.00672852 -0.00093987 -4.57945e-15 -0.0052441 -3.97946e-15 0)
(0.00677893 -0.000290825 -3.53444e-15 -0.00486402 -1.43013e-14 0)
(0.00589811 -0.000862571 -1.74769e-14 -0.0041612 -2.38646e-14 0)
(0.00595879 -8.33349e-05 -1.03776e-14 -0.0038017 -2.52688e-14 0)
(0.0050358 -0.000739361 -2.43226e-14 -0.00313001 -2.06142e-14 0)
(0.00510184 0.00010771 -9.05314e-15 -0.00279256 -1.26604e-14 0)
(0.00422413 -0.000579217 -1.56684e-14 -0.00225664 -1.42191e-14 0)
(0.00428925 0.000255987 -3.42792e-15 -0.0019313 -2.90523e-15 0)
(0.00352119 -0.000406271 -1.81277e-14 -0.00158411 -8.36137e-15 0)
(0.0035802 0.000350929 -1.0313e-14 -0.00126976 1.12505e-14 0)
(0.00295196 -0.000242747 -2.01463e-14 -0.00110161 5.45831e-15 0)
(0.00300188 0.000398207 -5.14546e-15 -0.000811257 1.79366e-14 0)
(0.00251394 -0.000102104 -4.79526e-15 -0.000772634 1.11326e-14 0)
(0.00819851 -0.00193176 1.95297e-14 -0.00779917 3.4895e-14 0)
(0.00774792 -0.00193843 -2.80526e-15 -0.00710787 1.05189e-14 0)
(0.00777131 -0.00183505 -2.57173e-16 -0.007031 2.18354e-14 0)
(0.00714896 -0.00187214 -1.10524e-14 -0.00606123 2.22283e-15 0)
(0.00720817 -0.00162767 -6.55097e-15 -0.00615698 1.08086e-14 0)
(0.00640207 -0.00172826 6.28447e-15 -0.00493122 1.40903e-15 0)
(0.00649693 -0.00134221 2.42298e-15 -0.00517934 -2.22847e-15 0)
(0.00554685 -0.0015194 1.18425e-14 -0.0037708 -5.11743e-16 0)
(0.00567534 -0.00099835 -1.08293e-14 -0.00413845 -1.31538e-14 0)
(0.00471391 -0.00124259 2.31694e-15 -0.00277534 -4.31816e-15 0)
(0.00486472 -0.000627464 -1.99901e-14 -0.00314656 -1.44394e-14 0)
(0.00400092 -0.000929144 -5.03666e-15 -0.00205986 -4.04711e-15 0)
(0.0041585 -0.000277882 -1.70816e-14 -0.00230367 -1.37512e-14 0)
(0.0034357 -0.000622798 -7.32097e-15 -0.00159609 -9.02316e-15 0)
(0.00358768 1.59914e-05 -1.95091e-14 -0.00165099 -1.37182e-14 0)
(0.00300424 -0.0003514 -1.40432e-14 -0.00130253 -3.32416e-15 0)
(0.00314281 0.000241298 -2.13864e-14 -0.00117898 -1.22081e-15 0)
(0.00268177 -0.000124972 -5.09965e-15 -0.00111107 3.86019e-15 0)
(0.00280211 0.00039867 -4.54926e-15 -0.000853242 6.75588e-15 0)
(0.00245524 6.07058e-05 2.74542e-15 -0.000986454 4.29127e-15 0)
(0.00725603 -0.00274814 -2.43425e-15 -0.00683904 1.35547e-15 0)
(0.00644551 -0.00259457 1.93298e-14 -0.00558378 5.26207e-15 0)
(0.00650009 -0.00248396 5.55458e-15 -0.00585115 -2.30697e-15 0)
(0.00555133 -0.00227694 9.85496e-15 -0.00420834 -3.89749e-15 0)
(0.00564602 -0.0020973 3.07068e-15 -0.00479535 -6.27124e-15 0)
(0.0045992 -0.00188605 -5.529e-15 -0.00289415 -5.16427e-15 0)
(0.0047341 -0.00162868 7.93332e-15 -0.00371579 4.35979e-15 0)
(0.00380265 -0.00145851 -4.09633e-15 -0.00195299 2.22088e-15 0)
(0.00395863 -0.00114926 1.17786e-14 -0.00278595 3.49894e-15 0)
(0.00326769 -0.00105738 2.77534e-15 -0.00147996 5.00945e-15 0)
(0.00342519 -0.000724172 4.26785e-15 -0.00211034 3.78126e-15 0)
(0.00294756 -0.000720515 2.69186e-15 -0.00130545 5.29438e-15 0)
(0.00310086 -0.000371155 -7.05924e-16 -0.0016674 -1.39624e-15 0)
(0.00275679 -0.00044658 4.75856e-15 -0.00125801 -4.18502e-15 0)
(0.0029071 -8.14396e-05 -1.4499e-15 -0.00138561 -3.65875e-15 0)
(0.00263303 -0.000219951 -1.18655e-15 -0.00124967 -9.76216e-16 0)
(0.00278077 0.000156108 -2.49475e-15 -0.00120259 3.86258e-15 0)
(0.00253762 -2.86584e-05 9.17669e-16 -0.00123969 2.60078e-15 0)
(0.00268493 0.000356906 3.76619e-15 -0.00108604 1.22233e-15 0)
(0.00242284 0.000130569 1.043e-15 -0.00119125 -2.06866e-15 0)
(0.00569644 -0.00308996 1.55143e-14 -0.00530274 5.57605e-15 0)
(0.00447034 -0.00259783 -1.19176e-15 -0.00337969 -4.97345e-15 0)
(0.0045802 -0.00249711 8.28135e-15 -0.00404665 -5.83062e-15 0)
(0.00336456 -0.00193656 -1.22511e-14 -0.00187336 -1.10957e-14 0)
(0.00349211 -0.00184796 -1.55128e-14 -0.00284863 -7.21103e-15 0)
(0.00261176 -0.00135974 -1.36538e-14 -0.00101481 -2.07343e-15 0)
(0.0027303 -0.00128492 -1.21695e-14 -0.00197453 -1.52461e-15 0)
(0.00229818 -0.000947321 -1.98626e-15 -0.00082252 9.90093e-16 0)
(0.0023884 -0.000884617 -1.01698e-15 -0.00151223 6.31721e-15 0)
(0.00224101 -0.000673013 5.58342e-15 -0.000894373 2.68492e-15 0)
(0.00231786 -0.000597931 7.27998e-15 -0.00132801 3.1598e-15 0)
(0.00227397 -0.000479314 5.91497e-15 -0.00101393 -4.79391e-15 0)
(0.00235995 -0.000363696 5.38523e-15 -0.00127493 -4.1848e-15 0)
(0.0023258 -0.000319108 -5.09315e-15 -0.00112985 -7.95111e-15 0)
(0.00243061 -0.000153072 -4.17483e-15 -0.00127012 -4.43742e-15 0)
(0.00235904 -0.000171838 -1.28233e-14 -0.0012164 -3.56312e-15 0)
(0.00248513 4.39163e-05 -4.12539e-15 -0.00127151 7.22079e-17 0)
(0.0023444 -3.25188e-05 -4.84768e-15 -0.00125237 -2.74086e-16 0)
(0.00248585 0.000220276 -5.76037e-16 -0.00123796 -4.81819e-16 0)
(0.00229448 9.55309e-05 -1.06143e-15 -0.00125505 3.3645e-15 0)
(0.00362728 -0.00263095 -2.18408e-14 -0.00326916 -1.26904e-14 0)
(0.00218099 -0.00174316 -2.12439e-14 -0.00100825 -1.38713e-14 0)
(0.00233519 -0.00170184 -1.67249e-14 -0.00191722 -1.0141e-14 0)
(0.00147786 -0.00106025 -1.49607e-14 -0.000305963 -2.90458e-15 0)
(0.00158022 -0.00106724 -8.967e-15 -0.00109598 -8.06646e-17 0)
(0.00139409 -0.000744006 -4.75488e-15 -0.000415083 5.63135e-16 0)
(0.00142438 -0.000781028 -1.20758e-15 -0.000838334 6.07804e-16 0)
(0.00151224 -0.000595518 4.76615e-16 -0.000580109 1.02912e-15 0)
(0.00152496 -0.00062773 5.50428e-15 -0.000848204 -1.24878e-15 0)
(0.00165991 -0.000491951 3.36298e-15 -0.000712837 -5.34729e-16 0)
(0.00168239 -0.000502697 2.88766e-15 -0.000936276 -3.45709e-15 0)
(0.00180774 -0.000393452 2.81893e-17 -0.000841653 5.13261e-16 0)
(0.00184872 -0.000375072 -5.59752e-15 -0.00104312 -5.35292e-15 0)
(0.00192545 -0.000292114 1.70653e-16 -0.000954394 6.14743e-16 0)
(0.0019912 -0.000236421 -8.48713e-15 -0.0011356 -2.43143e-15 0)
(0.00198886 -0.000187754 5.40757e-15 -0.00103621 2.53226e-15 0)
(0.00207997 -9.18797e-05 -2.2727e-15 -0.00118588 3.02059e-16 0)
(0.00203681 -8.05409e-05 6.96925e-15 -0.00111736 -3.7817e-16 0)
(0.00213825 4.11123e-05 1.8451e-15 -0.00120319 2.64437e-15 0)
(0.0020239 1.25287e-05 9.22027e-15 -0.00113702 -5.46221e-15 0)
(0.00153528 -0.0013811 -1.64408e-14 -0.0011974 -9.35254e-15 0)
(0.000843855 -0.000741724 -8.32971e-15 -5.25439e-05 -4.58878e-15 0)
(0.000910405 -0.000762394 -1.28491e-14 -0.000455355 -3.25044e-15 0)
(0.000969631 -0.000593648 -5.80005e-15 -0.00025053 8.93816e-16 0)
(0.000977264 -0.000628811 -4.8273e-15 -0.000438999 1.43809e-15 0)
(0.00111684 -0.000537397 -2.55438e-15 -0.000379723 4.66641e-16 0)
(0.00113618 -0.000555407 -9.00321e-16 -0.000548816 7.069e-17 0)
(0.0012587 -0.0004805 -8.52617e-16 -0.000505322 7.34655e-16 0)
(0.00128811 -0.000483364 -5.70507e-16 -0.000656161 2.03071e-15 0)
(0.00139081 -0.000421275 -4.02456e-15 -0.000621628 2.08666e-15 0)
(0.00143641 -0.000405541 -1.46953e-15 -0.000767928 2.3512e-15 0)
(0.00150496 -0.000352345 -1.50184e-15 -0.000726697 -1.77159e-16 0)
(0.00156335 -0.000321566 4.65014e-15 -0.000867867 2.83389e-15 0)
(0.00159833 -0.000275842 -1.44242e-15 -0.000816162 -5.62701e-16 0)
(0.00165978 -0.000237426 6.11989e-15 -0.000938602 1.70198e-15 0)
(0.00167743 -0.000200732 2.81177e-15 -0.000888905 -3.42413e-15 0)
(0.00175495 -0.00014572 9.89378e-15 -0.001015 -2.19096e-15 0)
(0.00172231 -0.000119493 3.79948e-15 -0.000944113 -3.62102e-15 0)
(0.00179646 -6.05833e-05 7.73448e-15 -0.00103743 -7.9871e-15 0)
(0.00175151 -4.82964e-05 3.99073e-15 -0.000979143 -5.39542e-15 0)
(0.000650894 -0.000602162 -7.55906e-16 -0.000144669 -1.49143e-15 0)
(0.000702563 -0.000551787 -2.18835e-15 -0.000104779 -8.43943e-16 0)
(0.000787295 -0.000523664 -4.19456e-15 -0.000274509 -3.77302e-16 0)
(0.000849564 -0.000477134 -4.60135e-15 -0.000241475 -2.94686e-16 0)
(0.000903684 -0.000470982 -4.09091e-15 -0.000392064 2.63895e-16 0)
(0.000992352 -0.000426278 -1.5786e-15 -0.000370463 -1.37954e-15 0)
(0.00103893 -0.000422908 -8.19657e-17 -0.000506957 -2.68448e-16 0)
(0.00112519 -0.000382524 -7.86263e-16 -0.000490377 -4.9895e-16 0)
(0.00117411 -0.000373483 -4.69113e-15 -0.000614072 9.22006e-16 0)
(0.00124366 -0.000338498 -5.59709e-15 -0.000598119 9.58652e-16 0)
(0.0013007 -0.000318404 -4.25181e-15 -0.000708255 -1.25767e-17 0)
(0.0013446 -0.000291045 7.86263e-16 -0.000691348 -8.6888e-16 0)
(0.00141036 -0.000258553 -1.82146e-15 -0.000784979 -3.51043e-15 0)
(0.00142717 -0.000240786 -4.92141e-15 -0.000768306 -2.62832e-15 0)
(0.00150047 -0.000197243 -5.41104e-15 -0.000846518 -3.72467e-15 0)
(0.00149091 -0.000188342 -3.17541e-15 -0.000828612 -3.46706e-15 0)
(0.00156684 -0.000136689 1.71304e-15 -0.000886224 -4.26569e-15 0)
(0.00153868 -0.000137723 9.58435e-17 -0.000872135 -2.54983e-15 0)
(0.00161305 -8.16948e-05 3.53667e-16 -0.000909162 -7.16007e-16 0)
(0.00157405 -9.12211e-05 -9.23307e-16 -0.000900917 5.98913e-16 0)
(0.00052614 -0.000491757 -6.81313e-16 -0.0001121 -2.43295e-16 0)
(0.000554217 -0.000433425 -7.62845e-16 -6.49196e-05 2.48933e-16 0)
(0.00067158 -0.000409821 -2.98242e-15 -0.000257138 -3.6581e-16 0)
(0.000727189 -0.00037337 -9.15934e-16 -0.000234963 6.53774e-16 0)
(0.000811197 -0.000360132 -6.88252e-16 -0.000383503 -9.10296e-16 0)
(0.000877444 -0.000335712 1.76465e-15 -0.000375718 1.39212e-16 0)
(0.000946249 -0.000324032 -1.82146e-16 -0.000494869 -6.52256e-16 0)
(0.00100826 -0.00030725 -1.60419e-15 -0.00049442 1.33595e-15 0)
(0.00107222 -0.000291689 -3.38488e-15 -0.000591111 1.33725e-15 0)
(0.00112093 -0.000281258 -6.78103e-15 -0.000594365 3.79709e-15 0)
(0.00118586 -0.000258488 -3.69583e-15 -0.00067164 1.87589e-15 0)
(0.00121605 -0.000254697 -2.02789e-15 -0.000677156 2.38134e-15 0)
(0.00128436 -0.000223286 -5.34729e-16 -0.000736127 -5.42968e-16 0)
(0.00129412 -0.000226776 2.037e-15 -0.00074367 1.78026e-15 0)
(0.00136584 -0.000186537 -1.73407e-15 -0.000783855 -1.19859e-15 0)
(0.00135623 -0.000198286 4.55235e-15 -0.000794622 2.81546e-15 0)
(0.00143 -0.000150222 6.70687e-16 -0.000816004 5.511e-16 0)
(0.00140429 -0.000170451 5.92451e-15 -0.00083128 4.06988e-15 0)
(0.00147852 -0.000116026 2.69858e-15 -0.00083464 1.00072e-15 0)
(0.00144142 -0.000144368 5.65216e-15 -0.000855788 2.68579e-15 0)
(0.000337603 -0.000342388 3.46945e-18 -8.28626e-05 5.99997e-16 0)
(0.000415392 -0.00029204 7.069e-17 -5.65883e-05 2.21828e-16 0)
(0.00053734 -0.000292069 9.01623e-16 -0.000252885 7.81059e-16 0)
(0.000609203 -0.000269833 4.38885e-16 -0.000246431 1.51571e-16 0)
(0.000703593 -0.000265162 8.01442e-16 -0.000386463 9.1073e-16 0)
(0.000767087 -0.000258852 -3.87711e-16 -0.000391933 -2.86229e-16 0)
(0.00084659 -0.000248714 -6.48787e-16 -0.000494139 8.18464e-16 0)
(0.000898486 -0.000252134 -9.979e-16 -0.000506724 5.98696e-16 0)
(0.000970818 -0.000235676 -5.41798e-15 -0.000581358 3.51813e-15 0)
(0.00100878 -0.000245902 -3.61993e-15 -0.000598334 2.92409e-15 0)
(0.00107835 -0.000222586 -3.52583e-15 -0.000651129 3.53537e-15 0)
(0.00110119 -0.000238479 1.42247e-15 -0.000671175 1.45652e-15 0)
(0.00117004 -0.000208203 4.64646e-15 -0.000705161 2.26642e-15 0)
(0.00117773 -0.000229592 3.15373e-15 -0.000727963 1.77939e-15 0)
(0.00124652 -0.000192645 5.59882e-15 -0.000744907 4.5208e-15 0)
(0.00123965 -0.000219649 3.09258e-15 -0.000770559 2.03093e-15 0)
(0.00130863 -0.00017648 6.63098e-15 -0.000772028 3.4611e-15 0)
(0.00128759 -0.000209085 7.75768e-15 -0.000800451 -2.1194e-15 0)
(0.00135796 -0.000159964 8.68424e-15 -0.000789068 1.0443e-15 0)
(0.00132249 -0.000197673 7.7412e-15 -0.000819491 -2.49648e-15 0)
(0.000161226 -0.000163349 -2.84061e-16 -9.10109e-05 2.39392e-16 0)
(0.00030381 -0.000138141 4.18068e-16 -8.79521e-05 2.39609e-16 0)
(0.000400349 -0.000168645 3.40439e-16 -0.000266928 -3.05745e-16 0)
(0.00050219 -0.000166792 7.71518e-16 -0.000274904 -1.41814e-16 0)
(0.000586477 -0.000178129 -2.52402e-16 -0.000398074 -6.85649e-16 0)
(0.000660154 -0.000190777 1.64105e-15 -0.000413731 -9.20054e-16 0)
(0.000737079 -0.000188204 7.70217e-16 -0.000498188 -4.82904e-16 0)
(0.00078908 -0.000209715 2.21394e-15 -0.00051888 -6.01732e-16 0)
(0.000861896 -0.000196519 9.45858e-16 -0.000575545 5.13695e-16 0)
(0.000896444 -0.000223276 8.51316e-16 -0.000599291 -6.66351e-16 0)
(0.000966691 -0.000201977 2.25948e-16 -0.000635419 5.29308e-16 0)
(0.000987444 -0.000231487 -2.97245e-15 -0.000660726 3.54859e-16 0)
(0.00105507 -0.000204466 -1.68789e-15 -0.000681404 1.15468e-15 0)
(0.00106584 -0.000234648 -3.89229e-15 -0.00070699 -1.14492e-16 0)
(0.00112947 -0.000204457 4.43656e-16 -0.000716139 -8.91539e-16 0)
(0.00113405 -0.000233005 -1.5773e-15 -0.000740471 -1.8567e-15 0)
(0.00119169 -0.000202452 3.81639e-15 -0.000741833 -3.0491e-15 0)
(0.00119185 -0.000225875 3.73226e-15 -0.000761927 -4.61913e-15 0)
(0.00124335 -0.000197822 7.79151e-15 -0.000761503 -5.72502e-15 0)
(0.0012309 -0.000208741 2.93277e-15 -0.000768739 -3.35745e-15 0)
(3.37833e-05 2.62401e-05 5.85469e-17 -0.000146687 3.39355e-16 0)
(0.000229441 1.26591e-05 9.54098e-17 -0.000159209 3.57787e-17 0)
(0.000281316 -4.17467e-05 8.74734e-16 -0.00030412 7.18826e-17 0)
(0.000411841 -6.99021e-05 4.4886e-16 -0.00032225 -9.74698e-17 0)
(0.000471166 -9.42088e-05 2.04741e-15 -0.00041788 -5.85686e-16 0)
(0.00055508 -0.000133524 8.5305e-16 -0.000441065 -8.27788e-16 0)
(0.000620646 -0.000135015 1.84531e-15 -0.000499847 -1.20726e-15 0)
(0.000668752 -0.000182895 -1.11673e-15 -0.000527411 -4.24248e-16 0)
(0.000740564 -0.00016611 -3.55618e-16 -0.000557743 -8.33426e-16 0)
(0.000759457 -0.000221162 -3.15937e-15 -0.000589281 1.66317e-16 0)
(0.000837812 -0.000188816 -4.22752e-15 -0.000596435 1.65775e-16 0)
(0.000831733 -0.000250833 -5.6565e-15 -0.000632022 2.27238e-15 0)
(0.00091678 -0.00020429 -5.68816e-15 -0.000618646 9.58652e-16 0)
(0.000888811 -0.000274385 -2.60902e-15 -0.000659125 1.67076e-15 0)
(0.000980011 -0.000213748 -2.34188e-15 -0.00062495 -7.96563e-16 0)
(0.00093347 -0.000295107 1.08117e-15 -0.000672695 2.48065e-16 0)
(0.00102795 -0.000218756 2.08123e-15 -0.000612271 -2.96833e-15 0)
(0.000970007 -0.000319344 7.30275e-15 -0.00067369 -2.43187e-15 0)
(0.00105668 -0.000222057 4.1963e-15 -0.000567888 -2.57151e-15 0)
(0.00101096 -0.000363851 5.8651e-15 -0.000662161 2.31477e-16 0)
(-2.76644e-05 0.000204831 -2.97939e-16 -0.000256755 -3.61039e-17 0)
(0.000204706 0.000146483 -2.99673e-16 -0.000272825 -8.43509e-17 0)
(0.000200293 7.78661e-05 -1.80411e-16 -0.000378269 -1.50487e-16 0)
(0.000358329 1.6031e-05 -3.01408e-16 -0.000397668 -1.92121e-16 0)
(0.000376764 -1.91115e-05 -5.02202e-16 -0.000464533 -4.06576e-16 0)
(0.000480046 -8.45261e-05 -7.22512e-16 -0.000487139 -1.94723e-16 0)
(0.000515334 -9.43193e-05 -1.77853e-15 -0.000524511 -3.04661e-17 0)
(0.000577331 -0.000163024 -1.9611e-15 -0.000550133 1.74557e-16 0)
(0.000625535 -0.000153259 -3.66157e-15 -0.000564695 5.53268e-16 0)
(0.0006558 -0.000225131 -2.41343e-15 -0.000593222 2.97505e-16 0)
(0.000714026 -0.000199977 -3.59391e-15 -0.000589748 1.86342e-15 0)
(0.000719761 -0.000275223 -2.84625e-15 -0.000621238 1.91839e-15 0)
(0.000785573 -0.000237834 -2.56002e-15 -0.000603188 2.81703e-15 0)
(0.000772791 -0.000316932 -1.7885e-15 -0.000637907 6.52364e-16 0)
(0.000843927 -0.000270157 1.19132e-15 -0.000608367 3.56703e-16 0)
(0.000818283 -0.000353324 1.45283e-16 -0.000646587 -1.3984e-15 0)
(0.00089314 -0.000301168 5.3256e-15 -0.000610877 -1.20168e-15 0)
(0.000859728 -0.000385914 2.74824e-15 -0.000651592 -2.31315e-15 0)
(0.00094115 -0.000338088 6.71165e-15 -0.000626788 -9.12031e-16 0)
(0.000898798 -0.000408744 2.27336e-15 -0.000661424 -1.26548e-15 0)
(-2.89094e-05 0.00035847 -2.29417e-16 -0.000413806 2.08167e-17 0)
(0.000223229 0.000252745 -4.55365e-17 -0.000421174 -4.2067e-17 0)
(0.000161429 0.000183613 -2.51535e-16 -0.000485967 -1.92337e-16 0)
(0.000336988 8.59592e-05 -1.7087e-16 -0.000497167 -9.0314e-17 0)
(0.000310938 4.9143e-05 -4.67074e-16 -0.000534736 6.39679e-17 0)
(0.000428951 -4.29992e-05 -8.02743e-16 -0.00054911 2.31802e-16 0)
(0.000429552 -5.55194e-05 -1.32663e-15 -0.00056611 1.19262e-16 0)
(0.000504093 -0.000143742 -8.22693e-16 -0.000583164 7.84962e-17 0)
(0.000524756 -0.000138026 -7.22079e-16 -0.000584751 -3.43692e-17 0)
(0.000566323 -0.000223323 2.61076e-16 -0.000604097 -3.13985e-16 0)
(0.000602187 -0.000204068 -1.38821e-15 -0.000594377 4.23327e-16 0)
(0.000618766 -0.000286937 -1.0803e-15 -0.000615665 3.32958e-16 0)
(0.000666254 -0.000258027 -2.07733e-15 -0.000598232 2.28116e-16 0)
(0.000663995 -0.000338286 -1.07379e-15 -0.000621028 -4.61545e-16 0)
(0.000720734 -0.000303272 -1.41684e-15 -0.000599568 -1.47565e-15 0)
(0.000704099 -0.000379611 -1.47278e-15 -0.000623114 -8.24373e-16 0)
(0.000769206 -0.000341773 -9.99201e-16 -0.000601617 -1.89264e-15 0)
(0.000740467 -0.00041156 -8.5305e-16 -0.000624608 -1.5947e-15 0)
(0.000814392 -0.000371493 2.95337e-16 -0.000604069 -2.2199e-15 0)
(0.000773467 -0.000434877 -1.05254e-15 -0.000625988 -2.80104e-15 0)
(1.97798e-05 0.000475579 6.17562e-16 -0.000606664 -2.88506e-16 0)
(0.000275329 0.00032304 7.20344e-16 -0.000593431 -6.63423e-16 0)
(0.00016056 0.000267454 2.94903e-17 -0.000619695 -2.49583e-16 0)
(0.000341424 0.000134457 -7.37257e-18 -0.000613431 1.2219e-16 0)
(0.00027328 0.000106702 -5.67255e-16 -0.000623146 4.04895e-16 0)
(0.000397442 -1.14238e-05 -4.57533e-16 -0.00062215 4.60894e-16 0)
(0.000364532 -1.86184e-05 -3.37404e-16 -0.000619887 2.03505e-16 0)
(0.000445541 -0.000125152 -3.5345e-16 -0.000622928 4.46746e-16 0)
(0.000439428 -0.000117299 2.29851e-17 -0.000612215 -2.11419e-17 0)
(0.000487484 -0.000214441 -7.28584e-16 -0.000618374 -3.55673e-16 0)
(0.000501953 -0.000195802 -2.6151e-16 -0.000602036 -5.87312e-16 0)
(0.000524716 -0.000284877 -1.15836e-15 -0.000610577 5.42101e-19 0)
(0.000555277 -0.000258796 -1.13668e-15 -0.00059095 2.76255e-16 0)
(0.000558383 -0.000340418 -1.88001e-15 -0.000601229 5.20797e-16 0)
(0.000601945 -0.000309418 -1.74166e-15 -0.00058017 1.69136e-17 0)
(0.000589295 -0.000383793 -1.3726e-15 -0.000591585 -1.76508e-16 0)
(0.000643843 -0.000349401 -9.16801e-16 -0.000570172 -1.05677e-15 0)
(0.000617886 -0.00041702 3.322e-16 -0.000582238 -1.16335e-15 0)
(0.000681958 -0.000380123 -9.44557e-16 -0.000561006 -2.44948e-15 0)
(0.000644346 -0.00044168 -2.47198e-17 -0.000573358 -1.47403e-15 0)
(0.000105539 0.000547623 1.47321e-15 -0.000820966 -1.11651e-15 0)
(0.000348856 0.000352017 1.72085e-15 -0.000776125 -7.70326e-16 0)
(0.000189508 0.000323137 7.52436e-16 -0.000768887 5.70832e-17 0)
(0.000363396 0.000157823 1.46888e-15 -0.000736726 6.06123e-16 0)
(0.000259362 0.00014957 5.32126e-16 -0.000722225 6.62231e-16 0)
(0.000380311 7.76657e-06 1.48059e-15 -0.00069953 5.84277e-16 0)
(0.000318328 1.43062e-05 1.87784e-16 -0.000680328 5.65899e-16 0)
(0.000398687 -0.000108927 9.72746e-16 -0.000664781 7.99762e-16 0)
(0.000368926 -9.18896e-05 -4.4062e-16 -0.000642747 2.37549e-16 0)
(0.000417973 -0.00020009 4.571e-16 -0.000632657 2.27086e-16 0)
(0.00041315 -0.000175751 -8.2356e-16 -0.00060919 6.00648e-17 0)
(0.000437843 -0.00027143 3.51282e-16 -0.000603295 4.66478e-16 0)
(0.000452567 -0.000242138 -9.90961e-16 -0.000579416 5.74817e-16 0)
(0.000458061 -0.000327127 2.02963e-16 -0.000576744 -1.35796e-16 0)
(0.000488343 -0.000294527 -7.58942e-16 -0.000553122 -2.97912e-16 0)
(0.000478392 -0.000370297 6.43149e-16 -0.000552903 -5.58473e-16 0)
(0.000521229 -0.000335498 8.06213e-16 -0.000529922 -6.15339e-16 0)
(0.000498587 -0.000403304 1.28196e-15 -0.000531548 -4.53197e-16 0)
(0.000551659 -0.000367025 1.17788e-15 -0.000509377 -5.10144e-16 0)
(0.0005184 -0.000427988 4.24574e-16 -0.00051237 4.1346e-16 0)
(0.000214034 0.000569425 1.94593e-15 -0.00104006 8.16946e-17 0)
(0.000430556 0.000338022 1.55561e-15 -0.000954316 7.89028e-16 0)
(0.000238471 0.000346912 1.93595e-15 -0.000921613 3.27917e-16 0)
(0.000394214 0.000154805 1.29844e-15 -0.000856512 -8.18573e-18 0)
(0.000263192 0.000174891 1.66403e-15 -0.000823859 2.95228e-16 0)
(0.000372339 1.33104e-05 8.63025e-16 -0.000774164 3.92806e-16 0)
(0.000287854 4.09143e-05 1.3739e-15 -0.000742298 9.13711e-16 0)
(0.000360953 -9.6545e-05 -4.77049e-17 -0.00070426 5.26001e-16 0)
(0.000312292 -6.40321e-05 4.22839e-16 -0.000673648 3.85976e-16 0)
(0.000357342 -0.000182055 -7.11237e-16 -0.000644554 4.23923e-17 0)
(0.00033647 -0.000146534 4.67942e-16 -0.000615505 2.85552e-16 0)
(0.000359615 -0.00024859 1.46584e-16 -0.000593352 -6.73561e-17 0)
(0.000360398 -0.000211451 9.64506e-16 -0.000566056 -4.1758e-16 0)
(0.000366307 -0.00030025 3.19189e-16 -0.000549317 -2.86988e-16 0)
(0.00038404 -0.000262426 7.07767e-16 -0.000523822 -2.56847e-16 0)
(0.000376223 -0.000340154 2.15973e-16 -0.000511312 9.43527e-17 0)
(0.000407294 -0.000302217 7.37257e-16 -0.000487549 -2.14618e-16 0)
(0.000388377 -0.000370659 4.33681e-18 -0.000478345 -1.3417e-17 0)
(0.000430016 -0.000332936 1.34441e-16 -0.000456178 4.95264e-16 0)
(0.000401967 -0.000393537 -4.04624e-16 -0.000449566 8.52373e-16 0)
(0.000330254 0.000539779 2.001e-15 -0.00124613 -1.27936e-17 0)
(0.00050734 0.000283632 2.44856e-15 -0.00111317 -1.23881e-15 0)
(0.000297447 0.00033774 1.3353e-15 -0.00106595 -5.10388e-16 0)
(0.000425704 0.000126671 1.06685e-15 -0.000962903 -1.19842e-15 0)
(0.000278638 0.00018126 3.80338e-16 -0.000920414 -3.89039e-16 0)
(0.000368547 5.18933e-06 -2.88831e-16 -0.000839673 -7.1186e-16 0)
(0.000269893 5.93438e-05 -8.66928e-16 -0.00080128 -6.72476e-17 0)
(0.00032958 -8.89288e-05 -5.72459e-16 -0.000737547 -6.42986e-16 0)
(0.000268558 -3.59646e-05 -6.87384e-16 -0.000702819 -1.86645e-16 0)
(0.000304935 -0.000161499 2.55004e-16 -0.000652392 8.94738e-17 0)
(0.000272887 -0.000110615 -9.67108e-17 -0.000621141 1.51788e-18 0)
(0.000291335 -0.000217484 6.29705e-16 -0.000581146 -2.1226e-16 0)
(0.00028153 -0.000169175 2.75821e-16 -0.000553117 -1.7892e-16 0)
(0.000286101 -0.000260736 3.30465e-16 -0.000521292 -1.30077e-16 0)
(0.000293368 -0.000215119 -2.1684e-17 -0.000496139 6.14743e-17 0)
(0.000287087 -0.000294146 1.99493e-16 -0.000470712 -1.5889e-16 0)
(0.000307463 -0.00025107 -1.55691e-16 -0.000448035 6.43881e-17 0)
(0.000292561 -0.00031983 6.85216e-17 -0.000427626 2.41682e-16 0)
(0.000323036 -0.000278987 -2.74086e-16 -0.000407012 5.36924e-16 0)
(0.00030108 -0.000339239 4.33681e-18 -0.000390577 4.17662e-16 0)
(0.000439587 0.000461798 2.42037e-15 -0.00142189 -2.0171e-15 0)
(0.000567882 0.00019561 9.37618e-16 -0.00124007 -8.66874e-16 0)
(0.000357189 0.000296801 8.56086e-16 -0.00119148 -7.70651e-16 0)
(0.000450325 7.60497e-05 -5.4904e-16 -0.00104776 -1.92771e-16 0)
(0.000299844 0.000168141 -7.60676e-16 -0.00100517 -9.74752e-16 0)
(0.000361886 -1.68246e-05 -8.71699e-16 -0.000889984 5.32994e-16 0)
(0.000260712 6.82544e-05 -1.19262e-16 -0.000852135 8.74138e-17 0)
(0.000300262 -8.61121e-05 4.94396e-16 -0.000760428 1.02674e-15 0)
(0.000236127 -9.20335e-06 7.12104e-16 -0.000727294 3.24339e-16 0)
(0.000259286 -0.000138359 5.37764e-16 -0.00065421 1.98694e-16 0)
(0.000222868 -6.95779e-05 6.70037e-16 -0.000625407 -2.56753e-16 0)
(0.000233799 -0.00017824 3.85109e-16 -0.000566884 -4.80139e-16 0)
(0.000218238 -0.000116931 3.97252e-16 -0.000541878 -3.25328e-16 0)
(0.000219913 -0.000208994 2.27249e-16 -0.000494708 -6.98633e-17 0)
(0.000220054 -0.000154272 3.36536e-16 -0.000472944 -7.27229e-17 0)
(0.000214708 -0.000232975 2.3679e-16 -0.000434602 -9.38241e-17 0)
(0.000226554 -0.000183815 2.40693e-16 -0.000415513 1.71711e-17 0)
(0.000215895 -0.000251947 6.41848e-17 -0.000383974 1.62901e-17 0)
(0.000236283 -0.000207126 9.54098e-17 -0.00036695 2.34696e-16 0)
(0.00022148 -0.000267084 1.43982e-16 -0.000340598 9.72529e-17 0)
(0.000529529 0.000341562 2.1645e-15 -0.00155423 6.25151e-16 0)
(0.00060544 8.22165e-05 3.83027e-15 -0.00132809 1.25709e-15 0)
(0.00040945 0.000224406 8.96852e-16 -0.00129169 5.59855e-17 0)
(0.000446926 1.09095e-07 1.47365e-15 -0.00110051 -5.44351e-16 0)
(0.000318073 0.000135479 -3.56052e-16 -0.00106666 5.94712e-16 0)
(0.000340773 -4.92157e-05 8.67362e-18 -0.000915808 5.88342e-16 0)
(0.000254449 6.85147e-05 2.64545e-17 -0.00088673 1.33019e-15 0)
(0.000268353 -8.40183e-05 -3.97252e-16 -0.00076761 3.74795e-16 0)
(0.000212314 1.69527e-05 9.02056e-17 -0.000742924 9.62907e-18 0)
(0.000219636 -0.000109985 -2.70617e-16 -0.000648046 -2.30325e-16 0)
(0.00018627 -2.34296e-05 7.93636e-17 -0.000627089 -2.36275e-16 0)
(0.000188303 -0.00012976 1.1189e-16 -0.000550909 6.78846e-17 0)
(0.000172243 -5.54648e-05 3.10516e-16 -0.000533097 -2.27005e-17 0)
(0.000170066 -0.000145027 9.54098e-17 -0.000471509 2.76878e-17 0)
(0.000167183 -8.12198e-05 -1.69136e-17 -0.000456365 -6.121e-17 0)
(0.000161905 -0.000157166 -1.13624e-16 -0.000406207 -1.49803e-16 0)
(0.000168726 -0.0001023 5.07407e-17 -0.000393314 -1.44605e-16 0)
(0.000161632 -0.000167674 7.11237e-17 -0.000351872 -4.1098e-17 0)
(0.000174858 -0.000119889 1.3314e-16 -0.000340746 4.13386e-17 0)
(0.000167502 -0.000178813 6.59195e-17 -0.000304996 1.55258e-16 0)
(0.00059375 0.000169443 3.90313e-17 -0.00165741 1.17912e-15 0)
(0.000513441 -8.44848e-05 -5.04761e-15 -0.00134325 -3.34802e-16 0)
(0.000428779 0.000124299 1.89519e-16 -0.00132671 -6.68506e-16 0)
(0.00039226 -7.62869e-05 -2.84148e-15 -0.00109941 -2.34337e-16 0)
(0.00031935 9.358e-05 -7.40727e-16 -0.00108595 -4.73932e-17 0)
(0.000302601 -7.34074e-05 -1.23773e-15 -0.000909559 2.10145e-16 0)
(0.00024519 6.82835e-05 -6.88252e-16 -0.000898336 8.2623e-17 0)
(0.000237066 -7.25377e-05 -9.87491e-16 -0.000757867 -1.54424e-16 0)
(0.000195547 4.70037e-05 -8.58688e-16 -0.00074841 -4.57601e-17 0)
(0.000190511 -7.21685e-05 -1.05688e-15 -0.000635147 1.26933e-16 0)
(0.000163742 2.9278e-05 -2.498e-16 -0.000627134 1.56884e-16 0)
(0.000158856 -7.15926e-05 -3.84241e-16 -0.000535171 -5.42101e-18 0)
(0.000145282 1.46616e-05 -9.62772e-17 -0.000528372 -3.96208e-17 0)
(0.000138856 -7.04688e-05 -3.27429e-16 -0.000453485 -2.66239e-17 0)
(0.000137017 2.58211e-06 -1.50921e-16 -0.000447742 -4.88365e-17 0)
(0.000128038 -6.86377e-05 1.77809e-17 -0.000386947 -1.08149e-17 0)
(0.000136661 -7.83945e-06 7.11237e-17 -0.000382183 -4.33545e-17 0)
(0.000124763 -6.60873e-05 1.29671e-16 -0.000333655 -2.27954e-17 0)
(0.000142397 -1.83408e-05 6.67869e-17 -0.00032993 9.76324e-17 0)
(0.000128608 -6.30824e-05 -1.77809e-17 -0.000293379 1.00536e-16 0)
(0.000181554 -6.20423e-05 -5.72459e-17 -0.000293379 1.10402e-16 0)
(0.000170886 -1.52838e-05 2.60209e-18 -0.000177437 1.87116e-16 0)
(0.000169427 -0.000172777 1.56125e-17 -0.000303595 2.61859e-16 0)
(0.000209203 -9.88723e-05 -1.30104e-17 -0.000184391 1.20753e-16 0)
(0.000206101 -0.000273031 9.06393e-17 -0.000342356 1.15217e-16 0)
(0.000277334 -0.000174494 9.19403e-17 -0.000206861 3.8458e-16 0)
(0.000272693 -0.000360183 5.42101e-17 -0.000400132 4.63788e-16 0)
(0.000368555 -0.000236265 1.9082e-16 -0.000240736 7.14137e-16 0)
(0.000362681 -0.000430506 -1.30538e-16 -0.000471496 9.58868e-16 0)
(0.000477439 -0.000281243 1.99493e-17 -0.00028222 -1.20563e-16 0)
(0.000470834 -0.000481101 -2.0383e-17 -0.000551231 3.39057e-16 0)
(0.000598555 -0.000308008 -3.60822e-16 -0.000327699 -6.41739e-16 0)
(0.000591872 -0.000510171 -7.89299e-16 -0.000633615 -1.23168e-15 0)
(0.000726361 -0.00031651 -3.43822e-15 -0.000373819 -2.07283e-15 0)
(0.000720355 -0.000516996 -2.37657e-15 -0.000712015 -3.03753e-15 0)
(0.000855362 -0.000307947 2.32626e-15 -0.000417709 -1.84791e-15 0)
(0.000850806 -0.000501608 3.91527e-15 -0.000778014 -1.06105e-15 0)
(0.000980344 -0.000284453 3.97078e-15 -0.000457236 3.25e-15 0)
(0.000977912 -0.000463277 3.01538e-15 -0.00081774 2.58398e-15 0)
(0.00109634 -0.000248279 -4.66641e-15 -0.000491059 3.05512e-15 0)
(0.000184028 -6.76705e-05 2.12504e-17 -0.000181385 5.8303e-17 0)
(0.000191466 -3.15735e-05 1.18829e-16 -0.000110698 6.7971e-17 0)
(0.000190175 -0.000170882 5.0307e-17 -0.000200418 1.01393e-16 0)
(0.000228457 -0.000115441 7.02563e-17 -0.000122824 -9.39393e-17 0)
(0.000225695 -0.00027042 -8.67362e-19 -0.000241404 1.69122e-16 0)
(0.00029104 -0.00019229 5.20417e-18 -0.000148365 5.97802e-17 0)
(0.000286869 -0.000359044 1.8258e-16 -0.000300839 4.89056e-16 0)
(0.000374858 -0.000256409 8.40474e-16 -0.000184908 -3.28039e-16 0)
(0.000369535 -0.000432308 6.67869e-16 -0.000375014 -4.06921e-16 0)
(0.00047544 -0.00030445 -3.44343e-16 -0.000229201 -1.23041e-15 0)
(0.000469402 -0.000486978 -7.65447e-16 -0.000459733 -1.15046e-15 0)
(0.000588 -0.000334548 -1.74513e-15 -0.000277705 -6.32361e-17 0)
(0.000581838 -0.000520871 -2.35662e-15 -0.000550145 -5.21284e-16 0)
(0.000707452 -0.000346165 -3.0826e-15 -0.000326812 -1.13885e-15 0)
(0.000701862 -0.000532776 -1.34484e-15 -0.000640617 -1.85271e-15 0)
(0.000828479 -0.00034002 2.40866e-15 -0.000373033 1.86233e-15 0)
(0.000824196 -0.000522136 4.45087e-15 -0.000724346 2.1651e-15 0)
(0.000945502 -0.000317975 1.45717e-16 -0.000413116 3.01549e-15 0)
(0.000943194 -0.000487814 -1.84748e-15 -0.000791584 3.93807e-15 0)
(0.00105209 -0.000282811 -5.32864e-15 -0.000443899 -2.4877e-16 0)
(0.000212478 -6.31864e-05 4.68375e-17 -0.000112983 8.55842e-18 0)
(0.000224055 -3.78827e-05 1.82146e-17 -7.11113e-05 4.31885e-17 0)
(0.000222908 -0.000161576 1.15793e-16 -0.000132681 -4.22136e-17 0)
(0.000257725 -0.000120522 -9.80119e-17 -8.42708e-05 1.92141e-17 0)