/*--------------------------------*- C++ -*----------------------------------*\
| =========                 |                                                 |
| \\      /  F ield         | OpenFOAM: The Open Source CFD Toolbox           |
|  \\    /   O peration     | Version:  v2012                                 |
|   \\  /    A nd           | Website:  www.openfoam.com                      |
|    \\/     M anipulation  |                                                 |
\*---------------------------------------------------------------------------*/
FoamFile
{
    version     2.0;
    format      ascii;
    class       pointScalarField;
    location    "15";
    object      pEpsilonEq;
}
// * * * * * * * * * * * * * * * * * * * * * * * * * * * * * * * * * * * * * //

dimensions      [0 0 0 0 0 0 0];


internalField   nonuniform List<scalar> 
2142
(
0.00124833
0.000489314
0.000732747
0.000422559
0.00985745
0.000272732
0.00213023
0.00113957
0.00169104
0.000627245
0.000171817
0.000171817
0.00113957
0.00213023
0.00985745
0.00124833
0.000272732
0.000489314
0.000627245
0.000732747
0.00169104
0.000422559
0.00203121
0.00211566
0.00214197
0.00200619
0.00175973
0.00154691
0.001412
0.0013153
0.00123755
0.00102656
0.000964674
0.000882868
0.000788245
0.000684327
0.000574241
0.000462451
0.00035786
0.000281979
0.00101668
0.000823792
0.000675675
0.000560357
0.000470192
0.000399708
0.000344914
0.000303091
0.000272999
0.000235989
0.000201922
0.000197589
0.000210827
0.000234084
0.000262864
0.000294505
0.000327318
0.000360123
0.000392003
0.000422181
0.000449946
0.000474604
0.000495439
0.000511669
0.000522418
0.000526697
0.000523437
0.000511538
0.000486583
0.000492997
0.00050179
0.000513542
0.000528204
0.000545544
0.000565195
0.000586651
0.000609087
0.000640452
0.000651048
0.000661306
0.000671225
0.000680752
0.000689815
0.000698336
0.000706236
0.000713437
0.000719863
0.000725442
0.000730109
0.000733805
0.000736483
0.000738106
0.000738659
0.000738152
0.000736641
0.000734283
0.000733189
0.000736505
0.000749615
0.000772917
0.000805576
0.000846618
0.000895209
0.000950684
0.00101247
0.00108001
0.00115261
0.00122935
0.00130893
0.00138953
0.00146865
0.00154284
0.00160707
0.00166595
0.00168979
0.00166871
0.00161379
0.00152517
0.00139569
0.00122181
0.00100997
0.000780937
0.000567029
0.000400273
0.000525883
0.000629088
0.000722238
0.000806072
0.000881898
0.000951104
0.00101503
0.00107495
0.00113209
0.0011876
0.00124266
0.00129846
0.00135624
0.0014173
0.00148317
0.00155639
0.00164087
0.00173839
0.00186322
0.00261845
0.00327087
0.00410725
0.00509704
0.00616395
0.00720884
0.00815572
0.00896444
0.00958861
0.0010746
0.001029
0.00099513
0.000963249
0.000932243
0.000902287
0.000873731
0.000846898
0.000821999
0.000799078
0.000777989
0.000758407
0.000739875
0.000721873
0.000703922
0.000685718
0.000667316
0.000649404
0.000633859
0.00129223
0.00131266
0.00133127
0.00134927
0.00136697
0.00138437
0.00140132
0.00141768
0.0014334
0.0014485
0.00146321
0.00147795
0.00149335
0.00151031
0.00152998
0.00155374
0.00158317
0.0016201
0.0016667
0.00968846
0.00904227
0.0077817
0.00571839
0.00307864
0.001253
0.000772267
0.000583298
0.000366029
0.000189044
0.000372206
0.000563167
0.000741371
0.000901013
0.00103785
0.00114808
0.00122929
0.0012884
0.000304799
0.000509237
0.000666962
0.000790268
0.000887179
0.000963048
0.0010213
0.00106316
0.00108506
0.000304799
0.000509237
0.000666962
0.000790268
0.000887179
0.000963048
0.0010213
0.00106316
0.00108506
0.00123755
0.0013153
0.001412
0.00154691
0.00175973
0.00200619
0.00214197
0.00211566
0.00203121
0.00261845
0.00327087
0.00410725
0.00509704
0.00616395
0.00720884
0.00815572
0.00896444
0.00958861
0.00968846
0.00904227
0.0077817
0.00571839
0.00307864
0.001253
0.000772267
0.000583298
0.000366029
0.000189044
0.000372206
0.000563167
0.000741371
0.000901013
0.00103785
0.00114808
0.00122929
0.0012884
0.00101668
0.000823792
0.000675675
0.000560357
0.000470192
0.000399708
0.000344914
0.000303091
0.000272999
0.000281979
0.00035786
0.000462451
0.000574241
0.000684327
0.000788245
0.000882868
0.000964674
0.00102656
0.000235989
0.000201922
0.000197589
0.000210827
0.000234084
0.000262864
0.000294505
0.000327318
0.000360123
0.000392003
0.000422181
0.000449946
0.000474604
0.000495439
0.000511669
0.000522418
0.000526697
0.000523437
0.000511538
0.000486583
0.000492997
0.00050179
0.000513542
0.000528204
0.000545544
0.000565195
0.000586651
0.000609087
0.000633859
0.000649404
0.000667316
0.000685718
0.000703922
0.000721873
0.000739875
0.000758407
0.000777989
0.000799078
0.000821999
0.000846898
0.000873731
0.000902287
0.000932243
0.000963249
0.00099513
0.001029
0.0010746
0.000640452
0.000651048
0.000661306
0.000671225
0.000680752
0.000689815
0.000698336
0.000706236
0.000713437
0.000719863
0.000725442
0.000730109
0.000733805
0.000736483
0.000738106
0.000738659
0.000738152
0.000736641
0.000734283
0.000733189
0.000736505
0.000749615
0.000772917
0.000805576
0.000846618
0.000895209
0.000950684
0.00101247
0.00108001
0.00115261
0.00122935
0.00130893
0.00138953
0.00146865
0.00154284
0.00160707
0.00166595
0.00168979
0.0016667
0.0016201
0.00158317
0.00155374
0.00152998
0.00151031
0.00149335
0.00147795
0.00146321
0.0014485
0.0014334
0.00141768
0.00140132
0.00138437
0.00136697
0.00134927
0.00133127
0.00131266
0.00129223
0.00166871
0.00161379
0.00152517
0.00139569
0.00122181
0.00100997
0.000780937
0.000567029
0.000400273
0.000525883
0.000629088
0.000722238
0.000806072
0.000881898
0.000951104
0.00101503
0.00107495
0.00113209
0.0011876
0.00124266
0.00129846
0.00135624
0.0014173
0.00148317
0.00155639
0.00164087
0.00173839
0.00186322
0.00912465
0.00835362
0.00742971
0.00638232
0.00529764
0.00429167
0.0034466
0.0027908
0.00231214
0.00825134
0.00719962
0.00603867
0.00490075
0.0039468
0.00324035
0.00275569
0.00243696
0.00223537
0.0066667
0.00524919
0.0039948
0.00311914
0.00262393
0.00238191
0.00227515
0.00222949
0.00219128
0.00432932
0.00290682
0.0021276
0.00185276
0.00181797
0.00187009
0.00194223
0.00199364
0.00201429
0.00198598
0.00136042
0.0012834
0.00134953
0.00144708
0.00154975
0.00163354
0.00170244
0.00174616
0.00094924
0.000979494
0.00106308
0.00116058
0.00125857
0.001347
0.00142284
0.00148301
0.00152287
0.0007666
0.000837379
0.00093701
0.0010418
0.0011398
0.00122515
0.00129524
0.00134923
0.00138876
0.000594205
0.000710044
0.000834358
0.000949228
0.00104942
0.00113347
0.00120131
0.00125388
0.00129306
0.000426814
0.00059762
0.000745943
0.000869439
0.000971208
0.00105429
0.00112116
0.00117371
0.00121366
0.000296476
0.000464614
0.000607231
0.000719807
0.000807083
0.000873884
0.000924522
0.000963997
0.00100233
0.000397205
0.000476702
0.000580152
0.000673737
0.00075161
0.00081519
0.000867869
0.000913645
0.000955233
0.000535594
0.000531471
0.000580631
0.000643903
0.000705117
0.00075965
0.000807149
0.000848278
0.000883296
0.000676816
0.000608314
0.000601763
0.000626715
0.00066337
0.000701857
0.000737924
0.000769859
0.000797051
0.000807569
0.000690574
0.000634731
0.000618908
0.000625449
0.000642406
0.000662837
0.000683069
0.000701303
0.000920967
0.00076751
0.000671342
0.000617213
0.000591611
0.000583591
0.000585298
0.000591652
0.000599593
0.00101261
0.000832515
0.000704745
0.000617762
0.000561722
0.000527872
0.000509025
0.000499724
0.00049604
0.00108012
0.000879338
0.000727057
0.000615234
0.000534693
0.00047798
0.000439183
0.000413614
0.000397496
0.00111162
0.000892245
0.000729094
0.000605247
0.000510752
0.000438879
0.000384816
0.000345081
0.000317281
0.000242712
0.00032809
0.000434656
0.000545202
0.000653162
0.000755466
0.000850242
0.000935835
0.00100978
0.000225436
0.00031374
0.000419212
0.000527558
0.000633022
0.000732806
0.000825187
0.000908661
0.000981089
0.000226198
0.000308774
0.000407827
0.00051046
0.000611119
0.00070705
0.00079663
0.000878609
0.000951457
0.000238703
0.000311476
0.00040138
0.000496363
0.000590789
0.000681789
0.000767742
0.00084756
0.000920169
0.000259027
0.000320848
0.000400365
0.000486608
0.000573865
0.000659106
0.000740637
0.000817438
0.000888722
0.000284466
0.000335847
0.000404759
0.000481745
0.00056124
0.000640096
0.00071652
0.000789485
0.000858356
0.00031303
0.000355239
0.000414045
0.000481738
0.000553179
0.000625218
0.000695987
0.000764414
0.00082991
0.000343194
0.000377699
0.000427335
0.000486096
0.000549478
0.000614479
0.000679209
0.000742549
0.000803894
0.000373747
0.000401932
0.00044353
0.000494004
0.000549585
0.000607537
0.000666027
0.000723907
0.000780534
0.000403692
0.000426745
0.000461452
0.000504449
0.000552689
0.00060378
0.000656009
0.000708241
0.000759795
0.000432164
0.000451059
0.000479934
0.000516322
0.000557815
0.000602391
0.000648507
0.000695077
0.000741401
0.000458378
0.000473893
0.000497863
0.000528487
0.000563896
0.00060242
0.000642711
0.000683761
0.000724874
0.000481576
0.000494324
0.000514174
0.000539818
0.000569823
0.000602837
0.000637705
0.000673513
0.000709591
0.000500981
0.00051144
0.000527824
0.000549197
0.000574475
0.000602575
0.000632517
0.000663487
0.000694854
0.00051575
0.000524278
0.000537735
0.000555483
0.000576713
0.000600555
0.000626176
0.000652846
0.000679978
0.000524914
0.000531739
0.000542715
0.000557465
0.000575379
0.000595721
0.00061776
0.000640838
0.000664405
0.000527306
0.000532456
0.000541359
0.000553846
0.000569318
0.000587078
0.000606473
0.000626905
0.000647854
0.000521372
0.000524532
0.000532104
0.000543373
0.000557466
0.00057378
0.000591763
0.000610867
0.000630568
0.000504035
0.000506063
0.000513915
0.00052505
0.000538968
0.000555286
0.000573562
0.000593276
0.000613827
0.00114282
0.0011799
0.00121173
0.00123993
0.00126553
0.00128923
0.00131152
0.00133281
0.00135349
0.00137398
0.00139476
0.00141643
0.00143968
0.00146532
0.00149429
0.00152757
0.00156618
0.001611
0.00166295
0.00108416
0.00111681
0.00114728
0.0011756
0.00120211
0.0012272
0.00125129
0.00127478
0.00129809
0.00132167
0.00134599
0.00137157
0.00139898
0.00142883
0.00146179
0.00149858
0.00153997
0.00158686
0.00164291
0.00104288
0.00107118
0.00109868
0.00112525
0.00115096
0.00117596
0.0012005
0.00122488
0.00124942
0.00127447
0.0013004
0.00132762
0.00135655
0.00138766
0.00142139
0.00145825
0.00149868
0.00154311
0.00159123
0.00100655
0.00103253
0.00105806
0.00108311
0.00110773
0.00113204
0.0011562
0.00118041
0.00120491
0.00122995
0.00125581
0.0012828
0.00131121
0.00134138
0.00137362
0.00140827
0.00144563
0.00148598
0.00152994
0.000972321
0.000997057
0.00102134
0.00104522
0.00106879
0.00109215
0.00111543
0.00113877
0.00116236
0.00118638
0.00121103
0.00123655
0.00126315
0.00129108
0.00132057
0.00135189
0.0013853
0.0014211
0.00145958
0.000939595
0.000963419
0.000986715
0.00100957
0.00103206
0.00105429
0.00107636
0.0010984
0.00112054
0.00114292
0.0011657
0.00118904
0.00121312
0.00123812
0.00126423
0.00129164
0.00132057
0.00135123
0.00138384
0.000908363
0.000931255
0.000953541
0.000975297
0.000996601
0.00101754
0.00103819
0.00105865
0.00107904
0.00109944
0.00112
0.00114082
0.00116204
0.0011838
0.00120625
0.00122954
0.00125384
0.00127932
0.00130616
0.000878795
0.000900581
0.000921703
0.000942219
0.00096219
0.00098168
0.00100075
0.00101949
0.00103795
0.00105623
0.00107442
0.00109259
0.00111087
0.00112934
0.00114814
0.00116737
0.00118717
0.00120768
0.00122905
0.000851062
0.000871525
0.000891293
0.000910405
0.0009289
0.000946823
0.00096422
0.000981138
0.000997632
0.00101376
0.00102957
0.00104515
0.00106055
0.00107586
0.00109117
0.00110656
0.00112214
0.00113803
0.00115437
0.000825231
0.000844168
0.000862409
0.000879974
0.000896883
0.00091316
0.000928831
0.000943925
0.000958471
0.000972501
0.000986054
0.000999167
0.00101189
0.00102426
0.00103636
0.00104823
0.00105998
0.00107168
0.00108345
0.000801209
0.000818465
0.000835053
0.000850973
0.000866232
0.000880836
0.000894792
0.000908109
0.000920796
0.000932866
0.000944329
0.000955202
0.000965502
0.000975254
0.000984488
0.000993244
0.00100158
0.00100955
0.00101725
0.000778742
0.000794226
0.000809093
0.000823332
0.000836935
0.000849894
0.0008622
0.000873848
0.000884826
0.000895127
0.00090474
0.000913655
0.000921863
0.000929358
0.000936141
0.000942217
0.000947607
0.000952345
0.000956486
0.000757444
0.00077114
0.000784291
0.000796877
0.00080888
0.000820282
0.000831064
0.000841204
0.000850677
0.000859455
0.000867508
0.000874801
0.000881297
0.000886958
0.000891748
0.000895635
0.000898594
0.000900616
0.000901713
0.000736869
0.000748846
0.000760363
0.000771398
0.000781926
0.000791923
0.000801359
0.000810205
0.000818423
0.00082597
0.000832797
0.000838848
0.000844056
0.000848352
0.000851657
0.000853895
0.000854986
0.000854863
0.000853472
0.000716626
0.000727048
0.000737106
0.000746775
0.000756026
0.000764832
0.000773159
0.00078097
0.000788222
0.00079486
0.000800822
0.000806034
0.000810405
0.000813835
0.000816204
0.000817384
0.000817232
0.000815605
0.00081236
0.000696524
0.000705681
0.00071457
0.000723161
0.000731425
0.000739328
0.000746837
0.000753912
0.000760508
0.000766568
0.000772025
0.000776792
0.000780767
0.000783824
0.00078581
0.000786549
0.000785835
0.000783435
0.000779097
0.000676787
0.000685149
0.000693325
0.000701274
0.000708954
0.000716333
0.000723375
0.000730047
0.000736307
0.000742103
0.000747371
0.000752027
0.000755969
0.000759063
0.000761144
0.000762009
0.000761406
0.00075903
0.000754518
0.000658364
0.000666706
0.000674876
0.0006828
0.000690445
0.000697787
0.0007048
0.000711453
0.000717711
0.000723527
0.000728846
0.000733599
0.000737697
0.000741029
0.00074345
0.000744776
0.000744766
0.000743115
0.000739422
0.000643569
0.000653085
0.000662135
0.000670829
0.000679185
0.000687184
0.000694789
0.000701953
0.000708629
0.000714763
0.000720302
0.000725187
0.000729357
0.000732738
0.000735247
0.000736781
0.000737209
0.000736364
0.000734026
0.00188321
0.0017831
0.00169301
0.00162054
0.00155073
0.00148217
0.00141635
0.00135279
0.0012903
0.00122783
0.00116425
0.00109834
0.00102878
0.000954146
0.000872837
0.000783063
0.000682782
0.000569704
0.00044161
0.00202644
0.00195539
0.00189332
0.00181253
0.00172924
0.00165955
0.00159314
0.00152577
0.00145885
0.00139152
0.00132265
0.00125114
0.00117587
0.00109571
0.00100954
0.000916326
0.000815322
0.00070655
0.000591934
0.00210767
0.00205587
0.00198224
0.00191824
0.00186404
0.00179012
0.00171845
0.00165816
0.00159771
0.00153515
0.00146973
0.00140081
0.0013278
0.00125021
0.00116761
0.00107986
0.000987238
0.000890915
0.00079372
0.00200594
0.00198592
0.00195799
0.00191279
0.0018562
0.00181109
0.0017651
0.00171832
0.00167525
0.00162627
0.00157206
0.00151303
0.00144948
0.0013817
0.00131009
0.00123535
0.00115875
0.00108253
0.00101063
0.00179283
0.00180093
0.00179427
0.00177747
0.00175896
0.00174458
0.00173137
0.00171295
0.00168832
0.00165608
0.00161743
0.00157335
0.00152473
0.00147248
0.00141767
0.00136173
0.00130667
0.00125546
0.00121235
0.00158322
0.00160425
0.00162127
0.00163581
0.00164835
0.00165783
0.00166206
0.00166002
0.00165079
0.00163486
0.00161298
0.00158604
0.00155509
0.00152132
0.00148619
0.00145156
0.00141983
0.00139413
0.00137847
0.00145413
0.0014821
0.0015076
0.00153059
0.0015508
0.00156766
0.00158037
0.00158818
0.00159077
0.0015882
0.00158088
0.00156954
0.00155516
0.00153902
0.00152269
0.00150816
0.00149785
0.00149471
0.00150218
0.00136021
0.00139066
0.00141857
0.001444
0.00146692
0.00148713
0.00150434
0.00151818
0.00152845
0.00153515
0.00153858
0.00153932
0.00153827
0.00153663
0.00153595
0.00153814
0.00154547
0.00156056
0.00158632
0.00128438
0.00131786
0.00134722
0.00137347
0.00139719
0.00141865
0.00143792
0.00145498
0.0014698
0.00148247
0.00149327
0.00150273
0.00151164
0.0015211
0.00153253
0.00154767
0.00156855
0.00159755
0.0016373
0.00912465
0.00835362
0.00742971
0.00638232
0.00529764
0.00429167
0.0034466
0.0027908
0.00231214
0.00825134
0.00719962
0.00603867
0.00490075
0.0039468
0.00324035
0.00275569
0.00243696
0.00223537
0.0066667
0.00524919
0.0039948
0.00311914
0.00262393
0.00238191
0.00227515
0.00222949
0.00219128
0.00432932
0.00290682
0.0021276
0.00185276
0.00181797
0.00187009
0.00194223
0.00199364
0.00201429
0.00198598
0.00136042
0.0012834
0.00134953
0.00144708
0.00154975
0.00163354
0.00170244
0.00174616
0.00094924
0.000979494
0.00106308
0.00116058
0.00125857
0.001347
0.00142284
0.00148301
0.00152287
0.0007666
0.000837379
0.00093701
0.0010418
0.0011398
0.00122515
0.00129524
0.00134923
0.00138876
0.000594205
0.000710044
0.000834358
0.000949228
0.00104942
0.00113347
0.00120131
0.00125388
0.00129306
0.000426814
0.00059762
0.000745943
0.000869439
0.000971208
0.00105429
0.00112116
0.00117371
0.00121366
0.000296476
0.000464614
0.000607231
0.000719807
0.000807083
0.000873884
0.000924522
0.000963997
0.00100233
0.000397205
0.000476702
0.000580152
0.000673737
0.00075161
0.00081519
0.000867869
0.000913645
0.000955233
0.000535594
0.000531471
0.000580631
0.000643903
0.000705117
0.00075965
0.000807149
0.000848278
0.000883296
0.000676816
0.000608314
0.000601763
0.000626715
0.00066337
0.000701857
0.000737924
0.000769859
0.000797051
0.000807569
0.000690574
0.000634731
0.000618908
0.000625449
0.000642406
0.000662837
0.000683069
0.000701303
0.000920967
0.00076751
0.000671342
0.000617213
0.000591611
0.000583591
0.000585298
0.000591652
0.000599593
0.00101261
0.000832515
0.000704745
0.000617762
0.000561722
0.000527872
0.000509025
0.000499724
0.00049604
0.00108012
0.000879338
0.000727057
0.000615234
0.000534693
0.00047798
0.000439183
0.000413614
0.000397496
0.00111162
0.000892245
0.000729094
0.000605247
0.000510752
0.000438879
0.000384816
0.000345081
0.000317281
0.000242712
0.00032809
0.000434656
0.000545202
0.000653162
0.000755466
0.000850242
0.000935835
0.00100978
0.000225436
0.00031374
0.000419212
0.000527558
0.000633022
0.000732806
0.000825187
0.000908661
0.000981089
0.000226198
0.000308774
0.000407827
0.00051046
0.000611119
0.00070705
0.00079663
0.000878609
0.000951457
0.000238703
0.000311476
0.00040138
0.000496363
0.000590789
0.000681789
0.000767742
0.00084756
0.000920169
0.000259027
0.000320848
0.000400365
0.000486608
0.000573865
0.000659106
0.000740637
0.000817438
0.000888722
0.000284466
0.000335847
0.000404759
0.000481745
0.00056124
0.000640096
0.00071652
0.000789485
0.000858356
0.00031303
0.000355239
0.000414045
0.000481738
0.000553179
0.000625218
0.000695987
0.000764414
0.00082991
0.000343194
0.000377699
0.000427335
0.000486096
0.000549478
0.000614479
0.000679209
0.000742549
0.000803894
0.000373747
0.000401932
0.00044353
0.000494004
0.000549585
0.000607537
0.000666027
0.000723907
0.000780534
0.000403692
0.000426745
0.000461452
0.000504449
0.000552689
0.00060378
0.000656009
0.000708241
0.000759795
0.000432164
0.000451059
0.000479934
0.000516322
0.000557815
0.000602391
0.000648507
0.000695077
0.000741401
0.000458378
0.000473893
0.000497863
0.000528487
0.000563896
0.00060242
0.000642711
0.000683761
0.000724874
0.000481576
0.000494324
0.000514174
0.000539818
0.000569823
0.000602837
0.000637705
0.000673513
0.000709591
0.000500981
0.00051144
0.000527824
0.000549197
0.000574475
0.000602575
0.000632517
0.000663487
0.000694854
0.00051575
0.000524278
0.000537735
0.000555483
0.000576713
0.000600555
0.000626176
0.000652846
0.000679978
0.000524914
0.000531739
0.000542715
0.000557465
0.000575379
0.000595721
0.00061776
0.000640838
0.000664405
0.000527306
0.000532456
0.000541359
0.000553846
0.000569318
0.000587078
0.000606473
0.000626905
0.000647854
0.000521372
0.000524532
0.000532104
0.000543373
0.000557466
0.00057378
0.000591763
0.000610867
0.000630568
0.000504035
0.000506063
0.000513915
0.00052505
0.000538968
0.000555286
0.000573562
0.000593276
0.000613827
0.00114282
0.0011799
0.00121173
0.00123993
0.00126553
0.00128923
0.00131152
0.00133281
0.00135349
0.00137398
0.00139476
0.00141643
0.00143968
0.00146532
0.00149429
0.00152757
0.00156618
0.001611
0.00166295
0.00108416
0.00111681
0.00114728
0.0011756
0.00120211
0.0012272
0.00125129
0.00127478
0.00129809
0.00132167
0.00134599
0.00137157
0.00139898
0.00142883
0.00146179
0.00149858
0.00153997
0.00158686
0.00164291
0.00104288
0.00107118
0.00109868
0.00112525
0.00115096
0.00117596
0.0012005
0.00122488
0.00124942
0.00127447
0.0013004
0.00132762
0.00135655
0.00138766
0.00142139
0.00145825
0.00149868
0.00154311
0.00159123
0.00100655
0.00103253
0.00105806
0.00108311
0.00110773
0.00113204
0.0011562
0.00118041
0.00120491
0.00122995
0.00125581
0.0012828
0.00131121
0.00134138
0.00137362
0.00140827
0.00144563
0.00148598
0.00152994
0.000972321
0.000997057
0.00102134
0.00104522
0.00106879
0.00109215
0.00111543
0.00113877
0.00116236
0.00118638
0.00121103
0.00123655
0.00126315
0.00129108
0.00132057
0.00135189
0.0013853
0.0014211
0.00145958
0.000939595
0.000963419
0.000986715
0.00100957
0.00103206
0.00105429
0.00107636
0.0010984
0.00112054
0.00114292
0.0011657
0.00118904
0.00121312
0.00123812
0.00126423
0.00129164
0.00132057
0.00135123
0.00138384
0.000908363
0.000931255
0.000953541
0.000975297
0.000996601
0.00101754
0.00103819
0.00105865
0.00107904
0.00109944
0.00112
0.00114082
0.00116204
0.0011838
0.00120625
0.00122954
0.00125384
0.00127932
0.00130616
0.000878795
0.000900581
0.000921703
0.000942219
0.00096219
0.00098168
0.00100075
0.00101949
0.00103795
0.00105623
0.00107442
0.00109259
0.00111087
0.00112934
0.00114814
0.00116737
0.00118717
0.00120768
0.00122905
0.000851062
0.000871525
0.000891293
0.000910405
0.0009289
0.000946823
0.00096422
0.000981138
0.000997632
0.00101376
0.00102957
0.00104515
0.00106055
0.00107586
0.00109117
0.00110656
0.00112214
0.00113803
0.00115437
0.000825231
0.000844168
0.000862409
0.000879974
0.000896883
0.00091316
0.000928831
0.000943925
0.000958471
0.000972501
0.000986054
0.000999167
0.00101189
0.00102426
0.00103636
0.00104823
0.00105998
0.00107168
0.00108345
0.000801209
0.000818465
0.000835053
0.000850973
0.000866232
0.000880836
0.000894792
0.000908109
0.000920796
0.000932866
0.000944329
0.000955202
0.000965502
0.000975254
0.000984488
0.000993244
0.00100158
0.00100955
0.00101725
0.000778742
0.000794226
0.000809093
0.000823332
0.000836935
0.000849894
0.0008622
0.000873848
0.000884826
0.000895127
0.00090474
0.000913655
0.000921863
0.000929358
0.000936141
0.000942217
0.000947607
0.000952345
0.000956486
0.000757444
0.00077114
0.000784291
0.000796877
0.00080888
0.000820282
0.000831064
0.000841204
0.000850677
0.000859455
0.000867508
0.000874801
0.000881297
0.000886958
0.000891748
0.000895635
0.000898594
0.000900616
0.000901713
0.000736869
0.000748846
0.000760363
0.000771398
0.000781926
0.000791923
0.000801359
0.000810205
0.000818423
0.00082597
0.000832797
0.000838848
0.000844056
0.000848352
0.000851657
0.000853895
0.000854986
0.000854863
0.000853472
0.000716626
0.000727048
0.000737106
0.000746775
0.000756026
0.000764832
0.000773159
0.00078097
0.000788222
0.00079486
0.000800822
0.000806034
0.000810405
0.000813835
0.000816204
0.000817384
0.000817232
0.000815605
0.00081236
0.000696524
0.000705681
0.00071457
0.000723161
0.000731425
0.000739328
0.000746837
0.000753912
0.000760508
0.000766568
0.000772025
0.000776792
0.000780767
0.000783824
0.00078581
0.000786549
0.000785835
0.000783435
0.000779097
0.000676787
0.000685149
0.000693325
0.000701274
0.000708954
0.000716333
0.000723375
0.000730047
0.000736307
0.000742103
0.000747371
0.000752027
0.000755969
0.000759063
0.000761144
0.000762009
0.000761406
0.00075903
0.000754518
0.000658364
0.000666706
0.000674876
0.0006828
0.000690445
0.000697787
0.0007048
0.000711453
0.000717711
0.000723527
0.000728846
0.000733599
0.000737697
0.000741029
0.00074345
0.000744776
0.000744766
0.000743115
0.000739422
0.000643569
0.000653085
0.000662135
0.000670829
0.000679185
0.000687184
0.000694789
0.000701953
0.000708629
0.000714763
0.000720302
0.000725187
0.000729357
0.000732738
0.000735247
0.000736781
0.000737209
0.000736364
0.000734026
0.00188321
0.0017831
0.00169301
0.00162054
0.00155073
0.00148217
0.00141635
0.00135279
0.0012903
0.00122783
0.00116425
0.00109834
0.00102878
0.000954146
0.000872837
0.000783063
0.000682782
0.000569704
0.00044161
0.00202644
0.00195539
0.00189332
0.00181253
0.00172924
0.00165955
0.00159314
0.00152577
0.00145885
0.00139152
0.00132265
0.00125114
0.00117587
0.00109571
0.00100954
0.000916326
0.000815322
0.00070655
0.000591934
0.00210767
0.00205587
0.00198224
0.00191824
0.00186404
0.00179012
0.00171845
0.00165816
0.00159771
0.00153515
0.00146973
0.00140081
0.0013278
0.00125021
0.00116761
0.00107986
0.000987238
0.000890915
0.00079372
0.00200594
0.00198592
0.00195799
0.00191279
0.0018562
0.00181109
0.0017651
0.00171832
0.00167525
0.00162627
0.00157206
0.00151303
0.00144948
0.0013817
0.00131009
0.00123535
0.00115875
0.00108253
0.00101063
0.00179283
0.00180093
0.00179427
0.00177747
0.00175896
0.00174458
0.00173137
0.00171295
0.00168832
0.00165608
0.00161743
0.00157335
0.00152473
0.00147248
0.00141767
0.00136173
0.00130667
0.00125546
0.00121235
0.00158322
0.00160425
0.00162127
0.00163581
0.00164835
0.00165783
0.00166206
0.00166002
0.00165079
0.00163486
0.00161298
0.00158604
0.00155509
0.00152132
0.00148619
0.00145156
0.00141983
0.00139413
0.00137847
0.00145413
0.0014821
0.0015076
0.00153059
0.0015508
0.00156766
0.00158037
0.00158818
0.00159077
0.0015882
0.00158088
0.00156954
0.00155516
0.00153902
0.00152269
0.00150816
0.00149785
0.00149471
0.00150218
0.00136021
0.00139066
0.00141857
0.001444
0.00146692
0.00148713
0.00150434
0.00151818
0.00152845
0.00153515
0.00153858
0.00153932
0.00153827
0.00153663
0.00153595
0.00153814
0.00154547
0.00156056
0.00158632
0.00128438
0.00131786
0.00134722
0.00137347
0.00139719
0.00141865
0.00143792
0.00145498
0.0014698
0.00148247
0.00149327
0.00150273
0.00151164
0.0015211
0.00153253
0.00154767
0.00156855
0.00159755
0.0016373
)
;

boundaryField
{
    back
    {
        type            empty;
    }
    front
    {
        type            empty;
    }
    left
    {
        type            calculated;
    }
    hole
    {
        type            calculated;
    }
    down
    {
        type            calculated;
    }
    right
    {
        type            calculated;
    }
    up
    {
        type            calculated;
    }
}


// ************************************************************************* //
