/*--------------------------------*- C++ -*----------------------------------*\
| =========                 |                                                 |
| \\      /  F ield         | OpenFOAM: The Open Source CFD Toolbox           |
|  \\    /   O peration     | Version:  v2012                                 |
|   \\  /    A nd           | Website:  www.openfoam.com                      |
|    \\/     M anipulation  |                                                 |
\*---------------------------------------------------------------------------*/
FoamFile
{
    version     2.0;
    format      ascii;
    class       volScalarField;
    location    "15";
    object      sigmaEq;
}
// * * * * * * * * * * * * * * * * * * * * * * * * * * * * * * * * * * * * * //

dimensions      [1 -1 -2 0 0 0 0];


internalField   nonuniform List<scalar> 
2000
(
5.80786e+07
5.27227e+07
6.3197e+07
6.95307e+07
7.96945e+07
8.80665e+07
9.53009e+07
1.0349e+08
1.07676e+08
1.15544e+08
1.17029e+08
1.24892e+08
1.24395e+08
1.32267e+08
1.30872e+08
1.38286e+08
1.37027e+08
1.4345e+08
1.42802e+08
1.48143e+08
5.99495e+07
5.49497e+07
7.00669e+07
7.30396e+07
8.68557e+07
9.15234e+07
1.01479e+08
1.06842e+08
1.12284e+08
1.18773e+08
1.19596e+08
1.27436e+08
1.24843e+08
1.33606e+08
1.29597e+08
1.38392e+08
1.34588e+08
1.42587e+08
1.39732e+08
1.46528e+08
5.89049e+07
5.83882e+07
7.56664e+07
7.79041e+07
9.35199e+07
9.67026e+07
1.06833e+08
1.11518e+08
1.15159e+08
1.21253e+08
1.20205e+08
1.2762e+08
1.24057e+08
1.32439e+08
1.27807e+08
1.36485e+08
1.31689e+08
1.40056e+08
1.35604e+08
1.43316e+08
6.0148e+07
6.47649e+07
8.12806e+07
8.63167e+07
9.79812e+07
1.04143e+08
1.08164e+08
1.14412e+08
1.14345e+08
1.21196e+08
1.18926e+08
1.2656e+08
1.22731e+08
1.30818e+08
1.26053e+08
1.34223e+08
1.29053e+08
1.37019e+08
1.319e+08
1.39472e+08
6.58975e+07
7.76908e+07
8.61674e+07
9.93573e+07
9.9349e+07
1.1027e+08
1.08201e+08
1.15042e+08
1.14484e+08
1.22466e+08
1.19085e+08
1.27329e+08
1.22483e+08
1.30179e+08
1.2509e+08
1.32401e+08
1.27239e+08
1.34243e+08
1.29293e+08
1.3595e+08
7.78789e+07
8.35857e+07
9.53305e+07
8.17171e+07
8.95044e+07
8.8183e+07
9.5432e+07
9.58456e+07
1.02674e+08
1.03823e+08
1.10999e+08
1.11125e+08
1.18758e+08
1.17399e+08
1.24161e+08
1.22975e+08
1.25777e+08
1.26585e+08
1.27384e+08
1.29102e+08
6.86734e+07
6.57627e+07
7.0905e+07
6.95468e+07
7.59619e+07
7.68091e+07
8.34118e+07
8.50915e+07
9.16187e+07
9.31402e+07
9.9562e+07
1.00299e+08
1.06514e+08
1.06304e+08
1.12368e+08
1.11023e+08
1.16549e+08
1.14567e+08
1.19376e+08
1.17137e+08
5.57989e+07
5.1392e+07
5.88301e+07
5.83204e+07
6.60642e+07
6.7659e+07
7.46802e+07
7.69594e+07
8.32114e+07
8.53648e+07
9.09711e+07
9.25683e+07
9.76158e+07
9.84734e+07
1.02943e+08
1.03104e+08
1.06954e+08
1.06577e+08
1.09786e+08
1.09112e+08
3.80942e+07
3.63261e+07
4.64603e+07
4.81739e+07
5.71694e+07
6.00498e+07
6.73571e+07
7.04139e+07
7.63683e+07
7.91488e+07
8.40688e+07
8.63688e+07
9.0445e+07
9.22086e+07
9.55457e+07
9.67804e+07
9.94666e+07
1.00165e+08
1.02378e+08
1.02471e+08
1.93396e+07
2.30978e+07
3.50504e+07
3.99072e+07
4.90878e+07
5.3557e+07
6.05606e+07
6.44641e+07
6.99178e+07
7.32297e+07
7.75625e+07
8.03155e+07
8.37966e+07
8.60624e+07
8.88517e+07
9.06945e+07
9.29131e+07
9.4226e+07
9.61725e+07
9.60672e+07
9.27649e+06
1.82601e+07
2.75832e+07
3.49309e+07
4.24032e+07
4.81905e+07
5.38452e+07
5.84535e+07
6.26871e+07
6.63488e+07
6.94661e+07
7.23556e+07
7.45254e+07
7.68347e+07
7.80399e+07
8.0104e+07
7.99485e+07
8.26183e+07
7.96317e+07
8.5598e+07
2.31884e+07
2.61893e+07
2.83478e+07
3.53014e+07
3.9343e+07
4.57861e+07
4.92823e+07
5.47353e+07
5.73374e+07
6.19365e+07
6.36821e+07
6.76489e+07
6.86302e+07
7.22108e+07
7.25365e+07
7.59835e+07
7.59321e+07
7.93329e+07
8.00741e+07
8.23868e+07
3.97737e+07
3.85622e+07
3.5791e+07
3.99494e+07
4.01557e+07
4.58992e+07
4.68621e+07
5.24867e+07
5.33405e+07
5.84271e+07
5.89553e+07
6.34806e+07
6.37135e+07
6.77315e+07
6.78331e+07
7.1335e+07
7.15731e+07
7.43988e+07
7.4885e+07
7.69387e+07
5.54107e+07
5.12082e+07
4.58134e+07
4.68351e+07
4.39908e+07
4.79409e+07
4.645e+07
5.13963e+07
5.04607e+07
5.54231e+07
5.46906e+07
5.92791e+07
5.86558e+07
6.27172e+07
6.2224e+07
6.5678e+07
6.5351e+07
6.81586e+07
6.80224e+07
7.0178e+07
6.96146e+07
6.29464e+07
5.61154e+07
5.43091e+07
4.94479e+07
5.10886e+07
4.75971e+07
5.1126e+07
4.8512e+07
5.27445e+07
5.06886e+07
5.49348e+07
5.32684e+07
5.71803e+07
5.5823e+07
5.92412e+07
5.81535e+07
6.10179e+07
6.01758e+07
6.24799e+07
8.2067e+07
7.32339e+07
6.56628e+07
6.13601e+07
5.53492e+07
5.45616e+07
4.97185e+07
5.13218e+07
4.73725e+07
5.0308e+07
4.70522e+07
5.05168e+07
4.78125e+07
5.12982e+07
4.90458e+07
5.22742e+07
5.04022e+07
5.32395e+07
5.16956e+07
5.40882e+07
9.24453e+07
8.17086e+07
7.39087e+07
6.73928e+07
6.09159e+07
5.77541e+07
5.22534e+07
5.16307e+07
4.6902e+07
4.80344e+07
4.39595e+07
4.61262e+07
4.26296e+07
4.52657e+07
4.22821e+07
4.50088e+07
4.24713e+07
4.50649e+07
4.2908e+07
4.5245e+07
1.00446e+08
8.8138e+07
8.05367e+07
7.2037e+07
6.56501e+07
6.01043e+07
5.46543e+07
5.16188e+07
4.684e+07
4.57622e+07
4.15248e+07
4.18432e+07
3.80954e+07
3.93087e+07
3.60236e+07
3.77355e+07
3.48746e+07
3.68119e+07
3.43051e+07
3.63011e+07
1.05914e+08
9.25581e+07
8.54113e+07
7.42746e+07
6.8815e+07
6.07813e+07
5.62362e+07
5.07529e+07
4.68062e+07
4.33061e+07
3.98022e+07
3.78155e+07
3.46842e+07
3.38216e+07
3.10401e+07
3.09832e+07
2.85396e+07
2.90548e+07
2.689e+07
2.78801e+07
1.09954e+08
8.9764e+07
8.61411e+07
7.24683e+07
6.92576e+07
5.92372e+07
5.65097e+07
4.89382e+07
4.66736e+07
4.08782e+07
3.90289e+07
3.45638e+07
3.3092e+07
2.96299e+07
2.8524e+07
2.58124e+07
2.50922e+07
2.29476e+07
2.26616e+07
2.10124e+07
2.30877e+07
1.63064e+07
2.75548e+07
2.05512e+07
3.62766e+07
2.78973e+07
4.60936e+07
3.612e+07
5.59807e+07
4.43907e+07
6.54946e+07
5.23834e+07
7.43705e+07
5.99461e+07
8.23799e+07
6.69928e+07
8.92279e+07
7.34586e+07
9.4324e+07
7.92542e+07
1.81714e+07
1.45583e+07
2.42039e+07
1.98076e+07
3.33272e+07
2.74997e+07
4.32729e+07
3.57686e+07
5.32082e+07
4.39306e+07
6.27703e+07
5.17013e+07
7.1743e+07
5.8936e+07
7.99425e+07
6.55381e+07
8.71386e+07
7.14059e+07
9.29018e+07
7.63573e+07
1.64998e+07
1.4795e+07
2.25376e+07
2.00622e+07
3.12355e+07
2.74571e+07
4.07211e+07
3.53896e+07
5.02526e+07
4.3233e+07
5.94997e+07
5.07105e+07
6.82746e+07
5.76791e+07
7.64327e+07
6.40484e+07
8.38097e+07
6.97346e+07
9.01237e+07
7.46037e+07
1.67653e+07
1.61678e+07
2.20751e+07
2.09443e+07
2.99261e+07
2.77231e+07
3.86586e+07
3.51203e+07
4.75544e+07
4.25237e+07
5.62832e+07
4.96457e+07
6.4666e+07
5.63363e+07
7.25819e+07
6.25078e+07
7.99143e+07
6.80926e+07
8.64847e+07
7.30009e+07
1.81746e+07
1.81884e+07
2.25257e+07
2.22983e+07
2.9345e+07
2.83175e+07
3.71813e+07
3.50679e+07
4.53209e+07
4.19499e+07
5.34179e+07
4.86608e+07
6.12885e+07
5.5039e+07
6.88218e+07
6.09942e+07
7.59312e+07
6.64686e+07
8.25069e+07
7.14044e+07
2.02306e+07
2.05801e+07
2.36715e+07
2.40221e+07
2.94288e+07
2.92463e+07
3.63124e+07
3.5294e+07
4.36358e+07
4.15987e+07
5.1038e+07
4.7849e+07
5.83237e+07
5.38718e+07
6.53821e+07
5.95708e+07
7.21419e+07
6.48917e+07
7.85354e+07
6.97963e+07
2.26377e+07
2.31732e+07
2.53209e+07
2.6019e+07
3.0087e+07
3.04815e+07
3.60242e+07
3.58145e+07
4.25121e+07
4.151e+07
4.91882e+07
4.72603e+07
5.58467e+07
5.28849e+07
6.23713e+07
5.82806e+07
6.86953e+07
6.33923e+07
7.47735e+07
6.81908e+07
2.52172e+07
2.58517e+07
2.73062e+07
2.81929e+07
3.1205e+07
3.19648e+07
3.62505e+07
3.66069e+07
4.19169e+07
4.16852e+07
4.78603e+07
4.69104e+07
5.38712e+07
5.2101e+07
5.9827e+07
5.7149e+07
6.56593e+07
6.19952e+07
7.13315e+07
6.66126e+07
2.78517e+07
2.85279e+07
2.94864e+07
3.04524e+07
3.26574e+07
3.36201e+07
3.68976e+07
3.76194e+07
4.17848e+07
4.20949e+07
4.70108e+07
4.67864e+07
5.23723e+07
5.15191e+07
5.77433e+07
5.61831e+07
6.30515e+07
6.07151e+07
6.82603e+07
6.50858e+07
3.04559e+07
3.11306e+07
3.17458e+07
3.2714e+07
3.4321e+07
3.53641e+07
3.78573e+07
3.87826e+07
4.20282e+07
4.26869e+07
4.65712e+07
4.68523e+07
5.12983e+07
5.11169e+07
5.6085e+07
5.53725e+07
6.08558e+07
5.95534e+07
6.55706e+07
6.36258e+07
3.29613e+07
3.35979e+07
3.39891e+07
3.49023e+07
3.60826e+07
3.71139e+07
3.90172e+07
4.00179e+07
4.25468e+07
4.33943e+07
4.64557e+07
4.70546e+07
5.05778e+07
5.08542e+07
5.47952e+07
5.46903e+07
5.90317e+07
5.84964e+07
6.32429e+07
6.22345e+07
3.53079e+07
3.58729e+07
3.61351e+07
3.69478e+07
3.78409e+07
3.87897e+07
4.02685e+07
4.12438e+07
4.32349e+07
4.41412e+07
4.65678e+07
4.73277e+07
5.01255e+07
5.06773e+07
5.3801e+07
5.40953e+07
5.75197e+07
5.75163e+07
6.12349e+07
6.08995e+07
3.74393e+07
3.79001e+07
3.81118e+07
3.87848e+07
3.95049e+07
4.03148e+07
4.15083e+07
4.23787e+07
4.39869e+07
4.48481e+07
4.68061e+07
4.75986e+07
4.98479e+07
5.05229e+07
5.30181e+07
5.35356e+07
5.6247e+07
5.65742e+07
5.94868e+07
5.95963e+07
3.9299e+07
3.96222e+07
3.98508e+07
4.03479e+07
4.09901e+07
4.16139e+07
4.26396e+07
4.33412e+07
4.47001e+07
4.54331e+07
4.70679e+07
4.77903e+07
4.96469e+07
5.03223e+07
5.23563e+07
5.29532e+07
5.51323e+07
5.56243e+07
5.79285e+07
5.8293e+07
4.08272e+07
4.09774e+07
4.1283e+07
4.15676e+07
4.22142e+07
4.26092e+07
4.35681e+07
4.40481e+07
4.52734e+07
4.58125e+07
4.72512e+07
4.78234e+07
4.94243e+07
5.00044e+07
5.17237e+07
5.22879e+07
5.40924e+07
5.46192e+07
5.64866e+07
5.69563e+07
4.1958e+07
4.18947e+07
4.23334e+07
4.23653e+07
4.30902e+07
4.32148e+07
4.4197e+07
4.44105e+07
4.56051e+07
4.58997e+07
4.72551e+07
4.7618e+07
4.90839e+07
4.94992e+07
5.10321e+07
5.14826e+07
5.30489e+07
5.3517e+07
5.50935e+07
5.55613e+07
4.26171e+07
4.22901e+07
4.29147e+07
4.2645e+07
4.35185e+07
4.33295e+07
4.44196e+07
4.43307e+07
4.55892e+07
4.56058e+07
4.69796e+07
4.70959e+07
4.85349e+07
4.87421e+07
5.02024e+07
5.04895e+07
5.19364e+07
5.22897e+07
5.36992e+07
5.41028e+07
4.27226e+07
4.20585e+07
4.29173e+07
4.22781e+07
4.3372e+07
4.28302e+07
4.41111e+07
4.3709e+07
4.51164e+07
4.48455e+07
4.63292e+07
4.61861e+07
4.76969e+07
4.76808e+07
4.91727e+07
4.92804e+07
5.07147e+07
5.0938e+07
5.2287e+07
5.26135e+07
4.21941e+07
4.10401e+07
4.21808e+07
4.10688e+07
4.247e+07
4.16217e+07
4.31497e+07
4.24652e+07
4.4086e+07
4.35478e+07
4.52196e+07
4.48351e+07
4.65083e+07
4.62892e+07
4.79118e+07
4.78664e+07
4.93897e+07
4.95176e+07
5.09021e+07
5.11936e+07
4.09712e+07
3.87097e+07
4.03148e+07
3.90825e+07
4.07329e+07
3.96903e+07
4.14552e+07
4.05556e+07
4.24155e+07
4.16751e+07
4.35882e+07
4.30322e+07
4.49443e+07
4.46003e+07
4.64478e+07
4.63426e+07
4.80554e+07
4.82072e+07
4.97131e+07
5.00874e+07
9.86401e+07
9.1666e+07
1.00796e+08
9.52515e+07
1.02611e+08
9.81813e+07
1.04278e+08
1.00709e+08
1.05868e+08
1.02967e+08
1.07407e+08
1.0503e+08
1.089e+08
1.06947e+08
1.10347e+08
1.0875e+08
1.11747e+08
1.1047e+08
1.13108e+08
1.12137e+08
1.14446e+08
1.13789e+08
1.15789e+08
1.15472e+08
1.17181e+08
1.17244e+08
1.18683e+08
1.19174e+08
1.20369e+08
1.21343e+08
1.22333e+08
1.23841e+08
1.24678e+08
1.26761e+08
1.27517e+08
1.30188e+08
1.30955e+08
1.34165e+08
1.35073e+08
1.3792e+08
9.00657e+07
8.63778e+07
9.30876e+07
8.94071e+07
9.56936e+07
9.22155e+07
9.79815e+07
9.47924e+07
1.00035e+08
9.71687e+07
1.01918e+08
9.93846e+07
1.0368e+08
1.0148e+08
1.0536e+08
1.03493e+08
1.06993e+08
1.0546e+08
1.08612e+08
1.07419e+08
1.10253e+08
1.09412e+08
1.11954e+08
1.11482e+08
1.13763e+08
1.1368e+08
1.15732e+08
1.16061e+08
1.17921e+08
1.18685e+08
1.20397e+08
1.21618e+08
1.23231e+08
1.24929e+08
1.26498e+08
1.28699e+08
1.30275e+08
1.3304e+08
1.34721e+08
1.35126e+08
8.64395e+07
8.29767e+07
8.88726e+07
8.55025e+07
9.11837e+07
8.79661e+07
9.33532e+07
9.03401e+07
9.53924e+07
9.26212e+07
9.73248e+07
9.48213e+07
9.91785e+07
9.69604e+07
1.00983e+08
9.90636e+07
1.02769e+08
1.01159e+08
1.04568e+08
1.03278e+08
1.06412e+08
1.05454e+08
1.08338e+08
1.07723e+08
1.10384e+08
1.10122e+08
1.12589e+08
1.12694e+08
1.14999e+08
1.15481e+08
1.1766e+08
1.18528e+08
1.20619e+08
1.2188e+08
1.2393e+08
1.25583e+08
1.27646e+08
1.29669e+08
1.32192e+08
1.33944e+08
8.35366e+07
8.00468e+07
8.56378e+07
8.23249e+07
8.7694e+07
8.45692e+07
8.96913e+07
8.67728e+07
9.16288e+07
8.89353e+07
9.3515e+07
9.1063e+07
9.53647e+07
9.3168e+07
9.71969e+07
9.52669e+07
9.90333e+07
9.73796e+07
1.00898e+08
9.95286e+07
1.02816e+08
1.01739e+08
1.04816e+08
1.04037e+08
1.06926e+08
1.0645e+08
1.09177e+08
1.09008e+08
1.11599e+08
1.11741e+08
1.14225e+08
1.14679e+08
1.17087e+08
1.17849e+08
1.20215e+08
1.21277e+08
1.23635e+08
1.24982e+08
1.27328e+08
1.29083e+08
8.07172e+07
7.73418e+07
8.26747e+07
7.94911e+07
8.4595e+07
8.16058e+07
8.64778e+07
8.36897e+07
8.83259e+07
8.57474e+07
9.01461e+07
8.77862e+07
9.19487e+07
8.98157e+07
9.3747e+07
9.18485e+07
9.55566e+07
9.38989e+07
9.73949e+07
9.59834e+07
9.92811e+07
9.81199e+07
1.01235e+08
1.00328e+08
1.03279e+08
1.02627e+08
1.05433e+08
1.05039e+08
1.07722e+08
1.07586e+08
1.10169e+08
1.10289e+08
1.12795e+08
1.13171e+08
1.15626e+08
1.16258e+08
1.18684e+08
1.19579e+08
1.22019e+08
1.23159e+08
7.79149e+07
7.48092e+07
7.9805e+07
7.68693e+07
8.1651e+07
7.88891e+07
8.34585e+07
8.08752e+07
8.52334e+07
8.28342e+07
8.69832e+07
8.47737e+07
8.87166e+07
8.67023e+07
9.04441e+07
8.863e+07
9.21775e+07
9.05678e+07
9.393e+07
9.25279e+07
9.57157e+07
9.45237e+07
9.75498e+07
9.65694e+07
9.94484e+07
9.86801e+07
1.01428e+08
1.00871e+08
1.03506e+08
1.0316e+08
1.05701e+08
1.05562e+08
1.08032e+08
1.08097e+08
1.10518e+08
1.10783e+08
1.13182e+08
1.13636e+08
1.16043e+08
1.16677e+08
7.51644e+07
7.24335e+07
7.70046e+07
7.44081e+07
7.87929e+07
7.63366e+07
8.05356e+07
7.82254e+07
8.22396e+07
8.00807e+07
8.39119e+07
8.19093e+07
8.55604e+07
8.37186e+07
8.71936e+07
8.55164e+07
8.88208e+07
8.73112e+07
9.04523e+07
8.91125e+07
9.20989e+07
9.09301e+07
9.37723e+07
9.27746e+07
9.54848e+07
9.46572e+07
9.72494e+07
9.65899e+07
9.90799e+07
9.8585e+07
1.00991e+08
1.00656e+08
1.02997e+08
1.02815e+08
1.05115e+08
1.05077e+08
1.0736e+08
1.07455e+08
1.09751e+08
1.09965e+08
7.25152e+07
7.02108e+07
7.42966e+07
7.20886e+07
7.60199e+07
7.39158e+07
7.76908e+07
7.56974e+07
7.93152e+07
7.74384e+07
8.08992e+07
7.91441e+07
8.24493e+07
8.08201e+07
8.39723e+07
8.24725e+07
8.54757e+07
8.41076e+07
8.69673e+07
8.57324e+07
8.84554e+07
8.73541e+07
8.99492e+07
8.89804e+07
9.14581e+07
9.06198e+07
9.29923e+07
9.22809e+07
9.45628e+07
9.39731e+07
9.61812e+07
9.57061e+07
9.78596e+07
9.74904e+07
9.96112e+07
9.93369e+07
1.0145e+08
1.01257e+08
1.03391e+08
1.03263e+08
7.00113e+07
6.81403e+07
7.17143e+07
6.99051e+07
7.33559e+07
7.16168e+07
7.49401e+07
7.32784e+07
7.64716e+07
7.48935e+07
7.7955e+07
7.64657e+07
7.93951e+07
7.7999e+07
8.07973e+07
7.94974e+07
8.2167e+07
8.09653e+07
8.351e+07
8.24076e+07
8.48328e+07
8.38291e+07
8.61421e+07
8.52354e+07
8.74452e+07
8.66322e+07
8.87499e+07
8.80257e+07
9.00648e+07
8.94228e+07
9.13992e+07
9.08309e+07
9.27631e+07
9.2258e+07
9.41676e+07
9.37127e+07
9.56247e+07
9.52048e+07
9.71475e+07
9.67447e+07
6.76824e+07
6.6218e+07
6.92853e+07
6.78539e+07
7.08262e+07
6.94361e+07
7.23077e+07
7.09661e+07
7.37327e+07
7.24458e+07
7.51042e+07
7.38772e+07
7.64256e+07
7.52624e+07
7.77004e+07
7.6604e+07
7.89324e+07
7.79045e+07
8.01256e+07
7.91666e+07
8.12845e+07
8.03932e+07
8.24137e+07
8.15877e+07
8.35186e+07
8.27536e+07
8.4605e+07
8.3895e+07
8.56791e+07
8.50164e+07
8.67483e+07
8.61229e+07
8.78206e+07
8.72204e+07
8.89052e+07
8.83159e+07
9.00124e+07
8.94171e+07
9.11539e+07
9.05331e+07
6.55396e+07
6.44313e+07
6.70232e+07
6.59256e+07
6.84468e+07
6.73676e+07
6.98115e+07
6.87576e+07
7.11187e+07
7.00958e+07
7.23701e+07
7.1383e+07
7.35674e+07
7.26198e+07
7.47126e+07
7.3807e+07
7.58078e+07
7.49455e+07
7.68553e+07
7.60362e+07
7.78577e+07
7.70802e+07
7.88179e+07
7.80787e+07
7.97391e+07
7.90332e+07
8.0625e+07
7.99454e+07
8.14799e+07
8.08177e+07
8.2309e+07
8.16529e+07
8.31182e+07
8.24549e+07
8.39147e+07
8.32284e+07
8.47071e+07
8.39795e+07
8.55054e+07
8.47156e+07
6.35745e+07
6.27575e+07
6.49242e+07
6.41021e+07
6.62183e+07
6.53978e+07
6.74564e+07
6.66437e+07
6.86388e+07
6.7839e+07
6.97658e+07
6.89832e+07
7.08379e+07
7.00757e+07
7.18555e+07
7.11159e+07
7.28194e+07
7.21031e+07
7.37301e+07
7.30366e+07
7.45886e+07
7.39157e+07
7.53958e+07
7.47397e+07
7.61528e+07
7.55078e+07
7.68613e+07
7.62196e+07
7.75234e+07
7.68749e+07
7.81417e+07
7.74743e+07
7.87199e+07
7.80188e+07
7.92629e+07
7.85107e+07
7.97771e+07
7.89539e+07
8.02705e+07
7.93539e+07
6.17612e+07
6.11647e+07
6.29688e+07
6.23574e+07
6.41266e+07
6.3506e+07
6.52337e+07
6.4609e+07
6.62892e+07
6.56648e+07
6.72924e+07
6.6672e+07
6.82427e+07
6.76289e+07
6.91393e+07
6.85339e+07
6.99818e+07
6.9385e+07
7.07691e+07
7.01801e+07
7.15005e+07
7.09167e+07
7.21751e+07
7.15922e+07
7.27921e+07
7.22039e+07
7.33506e+07
7.27486e+07
7.38502e+07
7.32237e+07
7.4291e+07
7.36266e+07
7.46738e+07
7.39554e+07
7.50004e+07
7.42091e+07
7.52742e+07
7.43882e+07
7.55008e+07
7.44954e+07
6.00613e+07
5.96166e+07
6.11252e+07
6.06613e+07
6.21466e+07
6.16681e+07
6.31241e+07
6.2635e+07
6.40562e+07
6.356e+07
6.49413e+07
6.4441e+07
6.57782e+07
6.52757e+07
6.65651e+07
6.60616e+07
6.73003e+07
6.67959e+07
6.79818e+07
6.74751e+07
6.86071e+07
6.80954e+07
6.91737e+07
6.86523e+07
6.96785e+07
6.91411e+07
7.01184e+07
6.95561e+07
7.04902e+07
6.98917e+07
7.07907e+07
7.01418e+07
7.10172e+07
7.03006e+07
7.11677e+07
7.03628e+07
7.12417e+07
7.03245e+07
7.12407e+07
7.01835e+07
5.84314e+07
5.80788e+07
5.93577e+07
5.8987e+07
6.02497e+07
5.98641e+07
6.11058e+07
6.07081e+07
6.19239e+07
6.15167e+07
6.27023e+07
6.22876e+07
6.34391e+07
6.30179e+07
6.41319e+07
6.37048e+07
6.47781e+07
6.43448e+07
6.53749e+07
6.49335e+07
6.59185e+07
6.54662e+07
6.64047e+07
6.5937e+07
6.68287e+07
6.6339e+07
6.7185e+07
6.66644e+07
6.74672e+07
6.69044e+07
6.76688e+07
6.70492e+07
6.77827e+07
6.70883e+07
6.78022e+07
6.7011e+07
6.77213e+07
6.68069e+07
6.75355e+07
6.64669e+07
5.68334e+07
5.65299e+07
5.7637e+07
5.7322e+07
5.8415e+07
5.80903e+07
5.91653e+07
5.88324e+07
5.9886e+07
5.95461e+07
6.0575e+07
6.02286e+07
6.12301e+07
6.08772e+07
6.18486e+07
6.14887e+07
6.24275e+07
6.20593e+07
6.29632e+07
6.25846e+07
6.34514e+07
6.30591e+07
6.38867e+07
6.34762e+07
6.42628e+07
6.38277e+07
6.4572e+07
6.4104e+07
6.48054e+07
6.42936e+07
6.49527e+07
6.4383e+07
6.50024e+07
6.43568e+07
6.4942e+07
6.4198e+07
6.47583e+07
6.3888e+07
6.44386e+07
6.3408e+07
5.52483e+07
5.49748e+07
5.59553e+07
5.56841e+07
5.6645e+07
5.63764e+07
5.73153e+07
5.70488e+07
5.79638e+07
5.76982e+07
5.8588e+07
5.83217e+07
5.91854e+07
5.89166e+07
5.97533e+07
5.94798e+07
6.02888e+07
6.00078e+07
6.0788e+07
6.04965e+07
6.12466e+07
6.09405e+07
6.1659e+07
6.13333e+07
6.20179e+07
6.16666e+07
6.23147e+07
6.19298e+07
6.25386e+07
6.21101e+07
6.26764e+07
6.21917e+07
6.27125e+07
6.21552e+07
6.26286e+07
6.19777e+07
6.24037e+07
6.16322e+07
6.20147e+07
6.10879e+07
5.36933e+07
5.34642e+07
5.43466e+07
5.4145e+07
5.49901e+07
5.48135e+07
5.56205e+07
5.54637e+07
5.62335e+07
5.6092e+07
5.68263e+07
5.66955e+07
5.73963e+07
5.7272e+07
5.79412e+07
5.78188e+07
5.84584e+07
5.8333e+07
5.89448e+07
5.88109e+07
5.93963e+07
5.92481e+07
5.98079e+07
5.96389e+07
6.0173e+07
5.99759e+07
6.04829e+07
6.02497e+07
6.07269e+07
6.04483e+07
6.08912e+07
6.05564e+07
6.09584e+07
6.05543e+07
6.09067e+07
6.04169e+07
6.07094e+07
6.01126e+07
6.03335e+07
5.9601e+07
5.22479e+07
5.21292e+07
5.29208e+07
5.28745e+07
5.35874e+07
5.35929e+07
5.42359e+07
5.4285e+07
5.48632e+07
5.49504e+07
5.54679e+07
5.55877e+07
5.60488e+07
5.61944e+07
5.66039e+07
5.67674e+07
5.7131e+07
5.73035e+07
5.76273e+07
5.77987e+07
5.80892e+07
5.8249e+07
5.85126e+07
5.86496e+07
5.88924e+07
5.89951e+07
5.92218e+07
5.92789e+07
5.94926e+07
5.9493e+07
5.96938e+07
5.9627e+07
5.98114e+07
5.96675e+07
5.98266e+07
5.95969e+07
5.97148e+07
5.93913e+07
5.94433e+07
5.90175e+07
5.11037e+07
5.12854e+07
5.19393e+07
5.21688e+07
5.27092e+07
5.30202e+07
5.34428e+07
5.38441e+07
5.41482e+07
5.46381e+07
5.48261e+07
5.53969e+07
5.5474e+07
5.61143e+07
5.60882e+07
5.67838e+07
5.66645e+07
5.73989e+07
5.71989e+07
5.79534e+07
5.76872e+07
5.84409e+07
5.81252e+07
5.88559e+07
5.85089e+07
5.91931e+07
5.88342e+07
5.94479e+07
5.9097e+07
5.96168e+07
5.92927e+07
5.96973e+07
5.94161e+07
5.96888e+07
5.94612e+07
5.95934e+07
5.94206e+07
5.94185e+07
5.92865e+07
5.91834e+07
1.48495e+08
1.48429e+08
1.44765e+08
1.39357e+08
1.36388e+08
1.30714e+08
1.28996e+08
1.24232e+08
1.22703e+08
1.18481e+08
1.17143e+08
1.13057e+08
1.12048e+08
1.07924e+08
1.07273e+08
1.03031e+08
1.02711e+08
9.82625e+07
9.82597e+07
9.35208e+07
9.38205e+07
8.87103e+07
8.92995e+07
8.37334e+07
8.46032e+07
7.84889e+07
7.9636e+07
7.28709e+07
7.42985e+07
6.67672e+07
6.84861e+07
6.00608e+07
6.20898e+07
5.26372e+07
5.50006e+07
4.44158e+07
4.71305e+07
3.54697e+07
3.84886e+07
2.65465e+07
1.45055e+08
1.47599e+08
1.4761e+08
1.49723e+08
1.49939e+08
1.45869e+08
1.44966e+08
1.40013e+08
1.39558e+08
1.3274e+08
1.3383e+08
1.26531e+08
1.28181e+08
1.2113e+08
1.22773e+08
1.15701e+08
1.17499e+08
1.10345e+08
1.12299e+08
1.04994e+08
1.07096e+08
9.95548e+07
1.01802e+08
9.39372e+07
9.63212e+07
8.80499e+07
9.05462e+07
8.1803e+07
8.43601e+07
7.51119e+07
7.76313e+07
6.79069e+07
7.02095e+07
6.01571e+07
6.19203e+07
5.1928e+07
5.25589e+07
4.35208e+07
4.18912e+07
3.58025e+07
1.40387e+08
1.43998e+08
1.42635e+08
1.45917e+08
1.44934e+08
1.47842e+08
1.47204e+08
1.4978e+08
1.49394e+08
1.45888e+08
1.47576e+08
1.40383e+08
1.42608e+08
1.33474e+08
1.3714e+08
1.282e+08
1.31703e+08
1.23135e+08
1.26291e+08
1.17976e+08
1.20816e+08
1.12644e+08
1.15191e+08
1.07073e+08
1.09333e+08
1.01205e+08
1.03155e+08
9.49855e+07
9.65686e+07
8.83757e+07
8.94839e+07
8.13558e+07
8.18136e+07
7.39482e+07
7.34858e+07
6.62557e+07
6.44706e+07
5.85374e+07
5.48353e+07
5.13513e+07
1.35862e+08
1.39871e+08
1.37703e+08
1.41537e+08
1.39629e+08
1.43243e+08
1.41627e+08
1.45e+08
1.43726e+08
1.4681e+08
1.45884e+08
1.45314e+08
1.48063e+08
1.41344e+08
1.44948e+08
1.36284e+08
1.40375e+08
1.32381e+08
1.35628e+08
1.28123e+08
1.30648e+08
1.23523e+08
1.25392e+08
1.18585e+08
1.19826e+08
1.13309e+08
1.13916e+08
1.07695e+08
1.07633e+08
1.01756e+08
1.00954e+08
9.55215e+07
9.38749e+07
8.90651e+07
8.64289e+07
8.25308e+07
7.87157e+07
7.61902e+07
7.09631e+07
7.0533e+07
1.32578e+08
1.3626e+08
1.33966e+08
1.37608e+08
1.35485e+08
1.39039e+08
1.37122e+08
1.40553e+08
1.38888e+08
1.42152e+08
1.40769e+08
1.42916e+08
1.42777e+08
1.40983e+08
1.44706e+08
1.38747e+08
1.42214e+08
1.36295e+08
1.39026e+08
1.33301e+08
1.35273e+08
1.29843e+08
1.31044e+08
1.2598e+08
1.26397e+08
1.21763e+08
1.21379e+08
1.17239e+08
1.16035e+08
1.12469e+08
1.1042e+08
1.07534e+08
1.04618e+08
1.02557e+08
9.87652e+07
9.77255e+07
9.30866e+07
9.33292e+07
8.7954e+07
8.97989e+07
1.30148e+08
1.31485e+08
1.31276e+08
1.33093e+08
1.32531e+08
1.34225e+08
1.3392e+08
1.35107e+08
1.35433e+08
1.35787e+08
1.37061e+08
1.36283e+08
1.38793e+08
1.36269e+08
1.3986e+08
1.35808e+08
1.39053e+08
1.34757e+08
1.37417e+08
1.33169e+08
1.35103e+08
1.31105e+08
1.32233e+08
1.28631e+08
1.28908e+08
1.25813e+08
1.25224e+08
1.22731e+08
1.21278e+08
1.19477e+08
1.17187e+08
1.1617e+08
1.13102e+08
1.12969e+08
1.09228e+08
1.10084e+08
1.05853e+08
1.07803e+08
1.03376e+08
1.06497e+08
1.2221e+08
1.19769e+08
1.24517e+08
1.22054e+08
1.26516e+08
1.24117e+08
1.28266e+08
1.25957e+08
1.29833e+08
1.27556e+08
1.31252e+08
1.2886e+08
1.32409e+08
1.29798e+08
1.33146e+08
1.3031e+08
1.33287e+08
1.30374e+08
1.32822e+08
1.29998e+08
1.31796e+08
1.29216e+08
1.30279e+08
1.28079e+08
1.28361e+08
1.26655e+08
1.26144e+08
1.25031e+08
1.23749e+08
1.23316e+08
1.21322e+08
1.21645e+08
1.19047e+08
1.20186e+08
1.17152e+08
1.19151e+08
1.15927e+08
1.18798e+08
1.15727e+08
1.19431e+08
1.12778e+08
1.11779e+08
1.15272e+08
1.14292e+08
1.17585e+08
1.16583e+08
1.19713e+08
1.18664e+08
1.21657e+08
1.20533e+08
1.23404e+08
1.22173e+08
1.24911e+08
1.23554e+08
1.26104e+08
1.24644e+08
1.26908e+08
1.25423e+08
1.27291e+08
1.25888e+08
1.27261e+08
1.26057e+08
1.26859e+08
1.2597e+08
1.26156e+08
1.25689e+08
1.25249e+08
1.25296e+08
1.24261e+08
1.24902e+08
1.23344e+08
1.24641e+08
1.22683e+08
1.24679e+08
1.22502e+08
1.25209e+08
1.2306e+08
1.26453e+08
1.24648e+08
1.28646e+08
1.05421e+08
1.05181e+08
1.08069e+08
1.07962e+08
1.10533e+08
1.10407e+08
1.12804e+08
1.12602e+08
1.14883e+08
1.1459e+08
1.16768e+08
1.16387e+08
1.18448e+08
1.17995e+08
1.19899e+08
1.19407e+08
1.2109e+08
1.20617e+08
1.22003e+08
1.21627e+08
1.22642e+08
1.22453e+08
1.23039e+08
1.23127e+08
1.23253e+08
1.23705e+08
1.23369e+08
1.24265e+08
1.23503e+08
1.24909e+08
1.23797e+08
1.25765e+08
1.24426e+08
1.26987e+08
1.25593e+08
1.28756e+08
1.27527e+08
1.31271e+08
1.30478e+08
1.3473e+08
9.89571e+07
1.01519e+08
1.02222e+08
1.04038e+08
1.04984e+08
1.06159e+08
1.07376e+08
1.08078e+08
1.09488e+08
1.09871e+08
1.11383e+08
1.11565e+08
1.13092e+08
1.13169e+08
1.14632e+08
1.14679e+08
1.16004e+08
1.16095e+08
1.17211e+08
1.17422e+08
1.18265e+08
1.18675e+08
1.19196e+08
1.19882e+08
1.20058e+08
1.21094e+08
1.20925e+08
1.22377e+08
1.21899e+08
1.23822e+08
1.23108e+08
1.25539e+08
1.24704e+08
1.27664e+08
1.26864e+08
1.30357e+08
1.2979e+08
1.33822e+08
1.33731e+08
1.38382e+08
)
;

boundaryField
{
    back
    {
        type            empty;
    }
    front
    {
        type            empty;
    }
    left
    {
        type            calculated;
        value           nonuniform List<scalar> 
30
(
5.80786e+07
6.3197e+07
7.96945e+07
9.53009e+07
1.07676e+08
1.17029e+08
1.24395e+08
1.30872e+08
1.37027e+08
1.42802e+08
1.48495e+08
1.44765e+08
1.36388e+08
1.28996e+08
1.22703e+08
1.17143e+08
1.12048e+08
1.07273e+08
1.02711e+08
9.82597e+07
9.38205e+07
8.92995e+07
8.46032e+07
7.9636e+07
7.42985e+07
6.84861e+07
6.20898e+07
5.50006e+07
4.71305e+07
3.84886e+07
)
;
    }
    hole
    {
        type            calculated;
        value           nonuniform List<scalar> 
20
(
5.80786e+07
5.99495e+07
5.89049e+07
6.0148e+07
6.58975e+07
7.78789e+07
6.86734e+07
5.57989e+07
3.80942e+07
1.93396e+07
9.27649e+06
2.31884e+07
3.97737e+07
5.54107e+07
6.96146e+07
8.2067e+07
9.24453e+07
1.00446e+08
1.05914e+08
1.09954e+08
)
;
    }
    down
    {
        type            calculated;
        value           nonuniform List<scalar> 
30
(
8.9764e+07
7.24683e+07
5.92372e+07
4.89382e+07
4.08782e+07
3.45638e+07
2.96299e+07
2.58124e+07
2.29476e+07
2.10124e+07
2.30877e+07
1.81714e+07
1.64998e+07
1.67653e+07
1.81746e+07
2.02306e+07
2.26377e+07
2.52172e+07
2.78517e+07
3.04559e+07
3.29613e+07
3.53079e+07
3.74393e+07
3.9299e+07
4.08272e+07
4.1958e+07
4.26171e+07
4.27226e+07
4.21941e+07
4.09712e+07
)
;
    }
    right
    {
        type            calculated;
        value           nonuniform List<scalar> 
30
(
3.87097e+07
3.90825e+07
3.96903e+07
4.05556e+07
4.16751e+07
4.30322e+07
4.46003e+07
4.63426e+07
4.82072e+07
5.00874e+07
5.12854e+07
5.21688e+07
5.30202e+07
5.38441e+07
5.46381e+07
5.53969e+07
5.61143e+07
5.67838e+07
5.73989e+07
5.79534e+07
5.84409e+07
5.88559e+07
5.91931e+07
5.94479e+07
5.96168e+07
5.96973e+07
5.96888e+07
5.95934e+07
5.94185e+07
5.91834e+07
)
;
    }
    up
    {
        type            calculated;
        value           nonuniform List<scalar> 
30
(
1.3792e+08
1.35126e+08
1.33944e+08
1.29083e+08
1.23159e+08
1.16677e+08
1.09965e+08
1.03263e+08
9.67447e+07
9.05331e+07
8.47156e+07
7.93539e+07
7.44954e+07
7.01835e+07
6.64669e+07
6.3408e+07
6.10879e+07
5.9601e+07
5.90175e+07
5.91834e+07
2.65465e+07
3.58025e+07
5.13513e+07
7.0533e+07
8.97989e+07
1.06497e+08
1.19431e+08
1.28646e+08
1.3473e+08
1.38382e+08
)
;
    }
}


// ************************************************************************* //
