/*--------------------------------*- C++ -*----------------------------------*\
| =========                 |                                                 |
| \\      /  F ield         | OpenFOAM: The Open Source CFD Toolbox           |
|  \\    /   O peration     | Version:  v2012                                 |
|   \\  /    A nd           | Website:  www.openfoam.com                      |
|    \\/     M anipulation  |                                                 |
\*---------------------------------------------------------------------------*/
FoamFile
{
    version     2.0;
    format      ascii;
    class       volScalarField;
    location    "15";
    object      sigmaHyd;
}
// * * * * * * * * * * * * * * * * * * * * * * * * * * * * * * * * * * * * * //

dimensions      [1 -1 -2 0 0 0 0];


internalField   nonuniform List<scalar> 
2000
(
2.12722e+07
2.97173e+07
4.76547e+07
5.0927e+07
7.19689e+07
6.95514e+07
9.34786e+07
8.65911e+07
1.11703e+08
1.0132e+08
1.2583e+08
1.11171e+08
1.34708e+08
1.1477e+08
1.37547e+08
1.12996e+08
1.34776e+08
1.07937e+08
1.27786e+08
1.01576e+08
2.32949e+07
3.73362e+07
4.31852e+07
6.3451e+07
6.13193e+07
8.57995e+07
7.68596e+07
1.03603e+08
8.96519e+07
1.13083e+08
1.00226e+08
1.13229e+08
1.08199e+08
1.07311e+08
1.12974e+08
9.92662e+07
1.14556e+08
9.16239e+07
1.13684e+08
8.5679e+07
2.43242e+07
5.02677e+07
3.78551e+07
7.83408e+07
4.96221e+07
9.94611e+07
5.94011e+07
1.07897e+08
6.84062e+07
1.04284e+08
7.66995e+07
9.57898e+07
8.36188e+07
8.74289e+07
8.87535e+07
8.06956e+07
9.20601e+07
7.57127e+07
9.32685e+07
7.18428e+07
2.29661e+07
6.36211e+07
3.11237e+07
8.69866e+07
3.75363e+07
9.31554e+07
4.40865e+07
8.608e+07
5.11102e+07
7.8554e+07
5.77408e+07
7.35025e+07
6.32925e+07
6.97634e+07
6.76952e+07
6.66542e+07
7.0794e+07
6.37021e+07
7.27937e+07
6.06335e+07
2.08904e+07
6.84098e+07
2.43812e+07
6.83604e+07
2.82473e+07
5.71085e+07
3.41858e+07
5.43743e+07
3.94774e+07
5.52458e+07
4.35232e+07
5.63549e+07
4.69933e+07
5.6645e+07
4.99104e+07
5.55711e+07
5.21555e+07
5.36345e+07
5.45451e+07
5.17345e+07
1.97098e+07
4.61598e+07
2.65446e+07
4.19475e+07
3.13988e+07
4.29987e+07
3.42627e+07
4.3947e+07
3.6864e+07
4.48688e+07
3.89947e+07
4.53989e+07
4.05696e+07
4.56267e+07
4.20685e+07
4.59971e+07
4.31634e+07
4.5395e+07
4.42768e+07
4.50548e+07
2.95298e+07
3.48707e+07
2.99125e+07
3.54718e+07
2.98445e+07
3.62769e+07
3.10321e+07
3.70306e+07
3.26688e+07
3.76563e+07
3.45595e+07
3.81065e+07
3.64806e+07
3.84335e+07
3.81469e+07
3.86343e+07
3.97024e+07
3.8882e+07
4.10602e+07
3.92664e+07
2.41523e+07
2.85424e+07
2.41758e+07
2.87132e+07
2.49489e+07
2.92673e+07
2.63305e+07
2.99739e+07
2.80648e+07
3.07165e+07
2.99963e+07
3.14357e+07
3.19802e+07
3.21097e+07
3.39489e+07
3.27603e+07
3.58167e+07
3.34253e+07
3.75596e+07
3.4162e+07
1.48599e+07
2.09302e+07
1.65932e+07
2.11617e+07
1.84992e+07
2.1884e+07
2.05596e+07
2.28528e+07
2.27185e+07
2.39426e+07
2.49213e+07
2.50839e+07
2.71181e+07
2.62367e+07
2.92607e+07
2.7364e+07
3.13019e+07
2.84162e+07
3.31853e+07
2.93418e+07
4.09588e+06
1.25917e+07
7.78292e+06
1.32583e+07
1.09902e+07
1.43746e+07
1.39353e+07
1.57616e+07
1.67038e+07
1.73339e+07
1.93242e+07
1.90586e+07
2.17971e+07
2.09329e+07
2.41112e+07
2.29585e+07
2.62419e+07
2.50785e+07
2.81076e+07
2.69593e+07
-6.58605e+06
4.09687e+06
-1.33026e+06
5.22616e+06
3.10831e+06
6.65089e+06
7.04664e+06
8.24489e+06
1.06646e+07
9.92693e+06
1.40803e+07
1.16498e+07
1.73911e+07
1.33983e+07
2.07119e+07
1.52119e+07
2.4248e+07
1.72851e+07
2.85128e+07
2.03465e+07
-1.65911e+07
-3.9736e+06
-1.0382e+07
-2.29477e+06
-5.11987e+06
-413790
-535304
1.58655e+06
3.54897e+06
3.65036e+06
7.24955e+06
5.74716e+06
1.06391e+07
7.86824e+06
1.3741e+07
1.00156e+07
1.64653e+07
1.21412e+07
1.83377e+07
1.38468e+07
-2.58251e+07
-1.15468e+07
-1.89314e+07
-9.34378e+06
-1.30549e+07
-7.00929e+06
-7.9659e+06
-4.61248e+06
-3.49969e+06
-2.20349e+06
455594
180917
3.96797e+06
2.50641e+06
7.06803e+06
4.72413e+06
9.77604e+06
6.75848e+06
1.22688e+07
8.60295e+06
-3.42349e+07
-1.8556e+07
-2.67829e+07
-1.58671e+07
-2.04089e+07
-1.3108e+07
-1.48957e+07
-1.03476e+07
-1.00792e+07
-7.63524e+06
-5.83815e+06
-5.00857e+06
-2.08093e+06
-2.49934e+06
1.2702e+06
-133609
4.29749e+06
2.07949e+06
7.05555e+06
4.14097e+06
-4.17333e+07
-2.4924e+07
-3.37971e+07
-2.17776e+07
-2.70003e+07
-1.86211e+07
-2.11167e+07
-1.55222e+07
-1.59729e+07
-1.25232e+07
-1.14357e+07
-9.65139e+06
-7.39953e+06
-6.92317e+06
-3.77879e+06
-4.34646e+06
-507102
-1.92273e+06
2.46642e+06
351759
-4.8185e+07
-3.05527e+07
-3.985e+07
-2.69674e+07
-3.27056e+07
-2.34398e+07
-2.65093e+07
-2.00263e+07
-2.10791e+07
-1.67541e+07
-1.6277e+07
-1.36347e+07
-1.19967e+07
-1.06756e+07
-8.15398e+06
-7.88018e+06
-4.68151e+06
-5.24813e+06
-1.52615e+06
-2.77658e+06
-5.34264e+07
-3.53401e+07
-4.48296e+07
-3.13366e+07
-3.74369e+07
-2.74823e+07
-3.09976e+07
-2.37981e+07
-2.53319e+07
-2.02683e+07
-2.03148e+07
-1.69056e+07
-1.58426e+07
-1.37195e+07
-1.18283e+07
-1.07114e+07
-8.20002e+06
-7.8788e+06
-4.89863e+06
-5.22065e+06
-5.73009e+07
-3.92111e+07
-4.86669e+07
-3.48506e+07
-4.11442e+07
-3.08057e+07
-3.44997e+07
-2.6843e+07
-2.86515e+07
-2.30372e+07
-2.34814e+07
-1.943e+07
-1.8879e+07
-1.60297e+07
-1.47519e+07
-1.28271e+07
-1.10226e+07
-9.80464e+06
-7.62225e+06
-6.94853e+06
-5.97739e+07
-4.21547e+07
-5.14639e+07
-3.81256e+07
-4.36675e+07
-3.35437e+07
-3.6883e+07
-2.91233e+07
-3.09522e+07
-2.49906e+07
-2.57145e+07
-2.1152e+07
-2.10498e+07
-1.75842e+07
-1.6869e+07
-1.42509e+07
-1.3101e+07
-1.10974e+07
-9.67684e+06
-8.0205e+06
-6.20466e+07
-4.84056e+07
-5.23796e+07
-4.12504e+07
-4.47183e+07
-3.54059e+07
-3.81002e+07
-3.03801e+07
-3.22503e+07
-2.59371e+07
-2.70312e+07
-2.19517e+07
-2.23469e+07
-1.83534e+07
-1.81256e+07
-1.5103e+07
-1.43221e+07
-1.21854e+07
-1.09394e+07
-9.61166e+06
-6.52312e+06
-382107
-7.82641e+06
1.44735e+06
-7.94818e+06
4.11094e+06
-7.43399e+06
7.45607e+06
-6.34752e+06
1.13878e+07
-4.68988e+06
1.57999e+07
-2.43497e+06
2.0565e+07
486485
2.55298e+07
4.2462e+06
3.05146e+07
9.3434e+06
3.53079e+07
154160
4.71146e+06
-597499
6.16193e+06
-916385
8.32268e+06
-814920
1.10804e+07
-319632
1.43639e+07
564029
1.81005e+07
1.84879e+06
2.2204e+07
3.57257e+06
2.65677e+07
5.82457e+06
3.10559e+07
8.84393e+06
3.54778e+07
5.8039e+06
8.92171e+06
5.26327e+06
1.01181e+07
4.93567e+06
1.18736e+07
4.87749e+06
1.41313e+07
5.09074e+06
1.68473e+07
5.57351e+06
1.99757e+07
6.33053e+06
2.34608e+07
7.38049e+06
2.72311e+07
8.77126e+06
3.11917e+07
1.06307e+07
3.52083e+07
1.05228e+07
1.25056e+07
1.00872e+07
1.3497e+07
9.80213e+06
1.49257e+07
9.70334e+06
1.67692e+07
9.79886e+06
1.90044e+07
1.00889e+07
2.16054e+07
1.05742e+07
2.45391e+07
1.12621e+07
2.77599e+07
1.21752e+07
3.12042e+07
1.33792e+07
3.47789e+07
1.4462e+07
1.55955e+07
1.41e+07
1.64147e+07
1.38657e+07
1.75794e+07
1.37739e+07
1.90836e+07
1.38308e+07
2.09177e+07
1.40373e+07
2.30696e+07
1.43929e+07
2.5522e+07
1.4899e+07
2.82486e+07
1.55651e+07
3.12097e+07
1.64226e+07
3.43435e+07
1.77658e+07
1.82804e+07
1.74646e+07
1.89551e+07
1.7276e+07
1.99054e+07
1.7205e+07
2.11319e+07
1.72557e+07
2.26332e+07
1.74295e+07
2.44059e+07
1.77264e+07
2.64432e+07
1.81464e+07
2.8733e+07
1.86928e+07
3.12531e+07
1.93803e+07
3.39661e+07
2.05554e+07
2.06297e+07
2.03054e+07
2.11841e+07
2.01537e+07
2.19587e+07
2.01023e+07
2.29568e+07
2.01549e+07
2.41811e+07
2.03141e+07
2.56337e+07
2.05815e+07
2.73149e+07
2.0958e+07
2.92217e+07
2.14454e+07
3.13447e+07
2.20509e+07
3.36646e+07
2.29297e+07
2.27023e+07
2.27213e+07
2.31566e+07
2.25965e+07
2.37855e+07
2.25575e+07
2.45934e+07
2.26086e+07
2.55853e+07
2.27543e+07
2.67663e+07
2.29981e+07
2.81412e+07
2.3343e+07
2.97128e+07
2.37916e+07
3.14806e+07
2.43489e+07
3.34375e+07
2.49685e+07
2.45497e+07
2.47927e+07
2.49202e+07
2.46851e+07
2.54267e+07
2.46493e+07
2.60739e+07
2.46908e+07
2.6868e+07
2.48158e+07
2.78162e+07
2.50303e+07
2.89256e+07
2.53393e+07
3.02029e+07
2.57474e+07
3.16527e+07
2.62595e+07
3.32761e+07
2.67379e+07
2.6218e+07
2.65862e+07
2.65176e+07
2.6487e+07
2.69195e+07
2.64452e+07
2.74285e+07
2.64677e+07
2.80516e+07
2.65622e+07
2.8797e+07
2.67366e+07
2.96737e+07
2.69983e+07
3.06904e+07
2.73536e+07
3.18547e+07
2.78085e+07
3.31725e+07
2.8293e+07
2.77496e+07
2.81583e+07
2.79883e+07
2.80599e+07
2.82988e+07
2.80037e+07
2.86864e+07
2.79978e+07
2.91586e+07
2.80515e+07
2.97246e+07
2.81741e+07
3.03942e+07
2.83749e+07
3.11774e+07
2.86619e+07
3.20837e+07
2.90421e+07
3.31212e+07
2.96816e+07
2.91839e+07
2.95577e+07
2.93692e+07
2.94534e+07
2.95983e+07
2.93755e+07
2.98768e+07
2.93329e+07
3.02129e+07
2.93362e+07
3.06165e+07
2.93962e+07
3.10984e+07
2.95232e+07
3.16697e+07
2.97267e+07
3.23405e+07
3.00146e+07
3.312e+07
3.09455e+07
3.05588e+07
3.08274e+07
3.06961e+07
3.07114e+07
3.08508e+07
3.06051e+07
3.10288e+07
3.05185e+07
3.12389e+07
3.04631e+07
3.1492e+07
3.04508e+07
3.18001e+07
3.0493e+07
3.21752e+07
3.06e+07
3.26283e+07
3.07805e+07
3.3169e+07
3.21227e+07
3.19118e+07
3.2006e+07
3.2005e+07
3.18728e+07
3.209e+07
3.17319e+07
3.21727e+07
3.15945e+07
3.22627e+07
3.14732e+07
3.23721e+07
3.13806e+07
3.25147e+07
3.13289e+07
3.2704e+07
3.1329e+07
3.29521e+07
3.13902e+07
3.32689e+07
3.32485e+07
3.32811e+07
3.31288e+07
3.33331e+07
3.29727e+07
3.33511e+07
3.27908e+07
3.33407e+07
3.25959e+07
3.33122e+07
3.24019e+07
3.32797e+07
3.22222e+07
3.32594e+07
3.20693e+07
3.32671e+07
3.19545e+07
3.33168e+07
3.18878e+07
3.34195e+07
3.43579e+07
3.47074e+07
3.42297e+07
3.47209e+07
3.40433e+07
3.46733e+07
3.38123e+07
3.45686e+07
3.35525e+07
3.44184e+07
3.32791e+07
3.424e+07
3.30059e+07
3.40531e+07
3.27456e+07
3.38764e+07
3.25099e+07
3.37271e+07
3.23091e+07
3.36184e+07
3.54888e+07
3.62347e+07
3.53422e+07
3.6215e+07
3.51133e+07
3.61018e+07
3.48222e+07
3.58966e+07
3.44888e+07
3.56154e+07
3.41291e+07
3.52816e+07
3.3756e+07
3.49176e+07
3.3382e+07
3.45456e+07
3.30194e+07
3.41869e+07
3.26797e+07
3.38598e+07
3.66888e+07
3.79124e+07
3.65007e+07
3.78746e+07
3.62057e+07
3.76904e+07
3.58387e+07
3.7366e+07
3.5425e+07
3.69415e+07
3.49714e+07
3.64388e+07
3.44896e+07
3.58806e+07
3.39935e+07
3.52921e+07
3.34968e+07
3.47003e+07
3.30124e+07
3.41331e+07
3.80359e+07
3.98084e+07
3.77354e+07
3.97894e+07
3.73211e+07
3.94683e+07
3.68826e+07
3.90187e+07
3.63812e+07
3.84444e+07
3.58206e+07
3.77577e+07
3.52155e+07
3.69806e+07
3.45836e+07
3.61414e+07
3.39416e+07
3.52728e+07
3.33033e+07
3.44152e+07
3.9704e+07
4.22194e+07
3.89454e+07
4.18297e+07
3.85088e+07
4.14529e+07
3.79909e+07
4.09112e+07
3.73783e+07
4.01904e+07
3.66849e+07
3.93047e+07
3.59308e+07
3.82777e+07
3.51387e+07
3.71382e+07
3.43327e+07
3.59167e+07
3.35322e+07
3.46259e+07
1.5903e+07
2.89719e+07
2.03718e+07
3.148e+07
2.41006e+07
3.37319e+07
2.73472e+07
3.58632e+07
3.02641e+07
3.79266e+07
3.2949e+07
3.99427e+07
3.54691e+07
4.19193e+07
3.78726e+07
4.38605e+07
4.01948e+07
4.57702e+07
4.24623e+07
4.76547e+07
4.46952e+07
4.95241e+07
4.69089e+07
5.13929e+07
4.91156e+07
5.32799e+07
5.13256e+07
5.52075e+07
5.35476e+07
5.72011e+07
5.57895e+07
5.92875e+07
5.80573e+07
6.14918e+07
6.03522e+07
6.38306e+07
6.26586e+07
6.62926e+07
6.49046e+07
6.86725e+07
2.16692e+07
2.90467e+07
2.36371e+07
3.13127e+07
2.58758e+07
3.34949e+07
2.8198e+07
3.55925e+07
3.05273e+07
3.76209e+07
3.28343e+07
3.95963e+07
3.51109e+07
4.15326e+07
3.73583e+07
4.34417e+07
3.9582e+07
4.53342e+07
4.17889e+07
4.72211e+07
4.39857e+07
4.91141e+07
4.61783e+07
5.10265e+07
4.83715e+07
5.2973e+07
5.05692e+07
5.49705e+07
5.27747e+07
5.70369e+07
5.4991e+07
5.91918e+07
5.72224e+07
6.14566e+07
5.94785e+07
6.38573e+07
6.17878e+07
6.64365e+07
6.41169e+07
6.88135e+07
2.34758e+07
2.97905e+07
2.52728e+07
3.17328e+07
2.71625e+07
3.36663e+07
2.91219e+07
3.55761e+07
3.11251e+07
3.74588e+07
3.31529e+07
3.93169e+07
3.51938e+07
4.11561e+07
3.72412e+07
4.29838e+07
3.92925e+07
4.48077e+07
4.1347e+07
4.66366e+07
4.34051e+07
4.84798e+07
4.54676e+07
5.03471e+07
4.75354e+07
5.22492e+07
4.96092e+07
5.41974e+07
5.16892e+07
5.62034e+07
5.37755e+07
5.82795e+07
5.58673e+07
6.04381e+07
5.79611e+07
6.26908e+07
6.00422e+07
6.50433e+07
6.1516e+07
6.73749e+07
2.47289e+07
3.05784e+07
2.64323e+07
3.22766e+07
2.81585e+07
3.39817e+07
2.99142e+07
3.56875e+07
3.1698e+07
3.73904e+07
3.35052e+07
3.90898e+07
3.53312e+07
4.07874e+07
3.71718e+07
4.24867e+07
3.90241e+07
4.41922e+07
4.08857e+07
4.59094e+07
4.27551e+07
4.76444e+07
4.46308e+07
4.94038e+07
4.65116e+07
5.11945e+07
4.83962e+07
5.30236e+07
5.0283e+07
5.48982e+07
5.21702e+07
5.6825e+07
5.40552e+07
5.88094e+07
5.59349e+07
6.08546e+07
5.78079e+07
6.29599e+07
5.97416e+07
6.51796e+07
2.59237e+07
3.12713e+07
2.74686e+07
3.27665e+07
2.9024e+07
3.42715e+07
3.05945e+07
3.57848e+07
3.21819e+07
3.73048e+07
3.37861e+07
3.88313e+07
3.54055e+07
4.03648e+07
3.70385e+07
4.1907e+07
3.86828e+07
4.34601e+07
4.03365e+07
4.50273e+07
4.19976e+07
4.6612e+07
4.36643e+07
4.82181e+07
4.53349e+07
4.98496e+07
4.70076e+07
5.15106e+07
4.86807e+07
5.32051e+07
5.03529e+07
5.49369e+07
5.20235e+07
5.67098e+07
5.36934e+07
5.85282e+07
5.53663e+07
6.03986e+07
5.70181e+07
6.23233e+07
2.7081e+07
3.18359e+07
2.84344e+07
3.31472e+07
2.97993e+07
3.4469e+07
3.11764e+07
3.58008e+07
3.25665e+07
3.71422e+07
3.39691e+07
3.84931e+07
3.53836e+07
3.98539e+07
3.68086e+07
4.12251e+07
3.82427e+07
4.26081e+07
3.96841e+07
4.40041e+07
4.11311e+07
4.5415e+07
4.25816e+07
4.68428e+07
4.4034e+07
4.82895e+07
4.54864e+07
4.97572e+07
4.69371e+07
5.12479e+07
4.83845e+07
5.27637e+07
4.98272e+07
5.43067e+07
5.12631e+07
5.58784e+07
5.2689e+07
5.74796e+07
5.41024e+07
5.91112e+07
2.81516e+07
3.22708e+07
2.93067e+07
3.34097e+07
3.0475e+07
3.45586e+07
3.16555e+07
3.57173e+07
3.28476e+07
3.68854e+07
3.40502e+07
3.80627e+07
3.52623e+07
3.92494e+07
3.64824e+07
4.04456e+07
3.77091e+07
4.16515e+07
3.89407e+07
4.28677e+07
4.01754e+07
4.40948e+07
4.14114e+07
4.53336e+07
4.26468e+07
4.65848e+07
4.38797e+07
4.7849e+07
4.51083e+07
4.9127e+07
4.63305e+07
5.04192e+07
4.75444e+07
5.17259e+07
4.87477e+07
5.3047e+07
4.99387e+07
5.4382e+07
5.11153e+07
5.573e+07
2.90949e+07
3.25887e+07
3.00585e+07
3.35643e+07
3.10357e+07
3.45488e+07
3.2025e+07
3.55417e+07
3.30247e+07
3.65425e+07
3.40335e+07
3.75509e+07
3.50499e+07
3.85664e+07
3.60723e+07
3.95889e+07
3.7099e+07
4.06181e+07
3.81284e+07
4.16539e+07
3.91586e+07
4.26961e+07
4.01877e+07
4.37446e+07
4.12139e+07
4.47994e+07
4.22353e+07
4.586e+07
4.32497e+07
4.69264e+07
4.42554e+07
4.79978e+07
4.52502e+07
4.90736e+07
4.62323e+07
5.01528e+07
4.71997e+07
5.12341e+07
4.81505e+07
5.23158e+07
2.98918e+07
3.28089e+07
3.06773e+07
3.36301e+07
3.14754e+07
3.44585e+07
3.22845e+07
3.52933e+07
3.31028e+07
3.6134e+07
3.39286e+07
3.69797e+07
3.47602e+07
3.783e+07
3.55959e+07
3.8684e+07
3.6434e+07
3.95413e+07
3.72727e+07
4.04012e+07
3.81102e+07
4.12631e+07
3.89445e+07
4.21263e+07
3.97739e+07
4.29902e+07
4.05963e+07
4.38539e+07
4.14099e+07
4.47164e+07
4.22126e+07
4.55768e+07
4.30026e+07
4.64337e+07
4.37781e+07
4.72857e+07
4.4537e+07
4.8131e+07
4.52776e+07
4.89674e+07
3.05417e+07
3.29544e+07
3.1165e+07
3.36302e+07
3.17991e+07
3.43112e+07
3.24425e+07
3.49965e+07
3.30933e+07
3.56852e+07
3.37498e+07
3.63763e+07
3.44104e+07
3.70689e+07
3.50734e+07
3.77622e+07
3.57369e+07
3.84553e+07
3.63992e+07
3.91473e+07
3.70584e+07
3.98371e+07
3.77128e+07
4.05239e+07
3.83604e+07
4.12064e+07
3.89994e+07
4.18837e+07
3.96279e+07
4.25543e+07
4.0244e+07
4.32171e+07
4.08457e+07
4.38703e+07
4.14314e+07
4.45124e+07
4.19991e+07
4.51415e+07
4.25471e+07
4.57553e+07
3.10576e+07
3.3049e+07
3.15348e+07
3.35888e+07
3.20208e+07
3.41316e+07
3.25139e+07
3.46764e+07
3.30125e+07
3.52221e+07
3.35151e+07
3.57676e+07
3.402e+07
3.63119e+07
3.45255e+07
3.68539e+07
3.50299e+07
3.73925e+07
3.55316e+07
3.79265e+07
3.60287e+07
3.84548e+07
3.65195e+07
3.89762e+07
3.70021e+07
3.94893e+07
3.74747e+07
3.99929e+07
3.79353e+07
4.04855e+07
3.83822e+07
4.09657e+07
3.88135e+07
4.14319e+07
3.92273e+07
4.18823e+07
3.96219e+07
4.23152e+07
3.99956e+07
4.27284e+07
3.146e+07
3.31159e+07
3.18067e+07
3.35289e+07
3.21598e+07
3.39428e+07
3.2518e+07
3.43564e+07
3.28798e+07
3.47688e+07
3.32438e+07
3.51786e+07
3.36086e+07
3.55847e+07
3.39725e+07
3.59859e+07
3.43341e+07
3.63809e+07
3.46916e+07
3.67684e+07
3.50433e+07
3.71471e+07
3.53876e+07
3.75157e+07
3.57226e+07
3.78727e+07
3.60464e+07
3.82166e+07
3.63572e+07
3.85461e+07
3.6653e+07
3.88595e+07
3.69321e+07
3.91553e+07
3.71925e+07
3.94319e+07
3.74323e+07
3.96876e+07
3.76499e+07
3.99207e+07
3.17734e+07
3.31756e+07
3.20035e+07
3.34706e+07
3.22379e+07
3.37646e+07
3.24755e+07
3.40565e+07
3.27152e+07
3.43453e+07
3.29555e+07
3.46297e+07
3.31954e+07
3.49083e+07
3.34334e+07
3.518e+07
3.36681e+07
3.54433e+07
3.38978e+07
3.56968e+07
3.41211e+07
3.59391e+07
3.43361e+07
3.61685e+07
3.45411e+07
3.63836e+07
3.47343e+07
3.65828e+07
3.49136e+07
3.67645e+07
3.50771e+07
3.69272e+07
3.52228e+07
3.70693e+07
3.53485e+07
3.71893e+07
3.54522e+07
3.72857e+07
3.55319e+07
3.73571e+07
3.20226e+07
3.32446e+07
3.21484e+07
3.34292e+07
3.22767e+07
3.36116e+07
3.24067e+07
3.37907e+07
3.25376e+07
3.39655e+07
3.26682e+07
3.41347e+07
3.27976e+07
3.4297e+07
3.29246e+07
3.4451e+07
3.30478e+07
3.45953e+07
3.31659e+07
3.47283e+07
3.32773e+07
3.48483e+07
3.33804e+07
3.49536e+07
3.34733e+07
3.50425e+07
3.35543e+07
3.51131e+07
3.36211e+07
3.51637e+07
3.36716e+07
3.51925e+07
3.37034e+07
3.51978e+07
3.37141e+07
3.51782e+07
3.37013e+07
3.51324e+07
3.36624e+07
3.50591e+07
3.22308e+07
3.33326e+07
3.22625e+07
3.3413e+07
3.22956e+07
3.34906e+07
3.23295e+07
3.35647e+07
3.23637e+07
3.36342e+07
3.23973e+07
3.3698e+07
3.24295e+07
3.37549e+07
3.24594e+07
3.38036e+07
3.24859e+07
3.38423e+07
3.25078e+07
3.38694e+07
3.25237e+07
3.3883e+07
3.2532e+07
3.3881e+07
3.2531e+07
3.38614e+07
3.25186e+07
3.3822e+07
3.24928e+07
3.37604e+07
3.24509e+07
3.36746e+07
3.23902e+07
3.35624e+07
3.23078e+07
3.34218e+07
3.22004e+07
3.32515e+07
3.20645e+07
3.30502e+07
3.24175e+07
3.34414e+07
3.23638e+07
3.34206e+07
3.23109e+07
3.33977e+07
3.22586e+07
3.33722e+07
3.22067e+07
3.33434e+07
3.21546e+07
3.33104e+07
3.21017e+07
3.32722e+07
3.20475e+07
3.32275e+07
3.19912e+07
3.31745e+07
3.19317e+07
3.31116e+07
3.18679e+07
3.30364e+07
3.17985e+07
3.29468e+07
3.17218e+07
3.284e+07
3.16359e+07
3.27132e+07
3.15385e+07
3.25633e+07
3.14268e+07
3.23873e+07
3.12978e+07
3.21819e+07
3.11476e+07
3.19442e+07
3.0972e+07
3.16716e+07
3.07663e+07
3.13621e+07
3.25968e+07
3.3562e+07
3.24647e+07
3.34386e+07
3.23337e+07
3.3315e+07
3.2204e+07
3.31914e+07
3.20755e+07
3.30678e+07
3.19479e+07
3.29439e+07
3.1821e+07
3.28188e+07
3.16946e+07
3.26913e+07
3.15682e+07
3.25601e+07
3.14413e+07
3.24233e+07
3.13132e+07
3.22788e+07
3.11829e+07
3.21239e+07
3.1049e+07
3.19555e+07
3.091e+07
3.17701e+07
3.07637e+07
3.15635e+07
3.06073e+07
3.1331e+07
3.04376e+07
3.10677e+07
3.02502e+07
3.07681e+07
3.004e+07
3.0427e+07
2.98006e+07
3.00395e+07
3.27742e+07
3.36743e+07
3.25704e+07
3.34387e+07
3.2369e+07
3.32067e+07
3.21703e+07
3.29809e+07
3.19738e+07
3.27609e+07
3.17799e+07
3.25466e+07
3.15888e+07
3.23377e+07
3.14009e+07
3.21337e+07
3.12165e+07
3.19339e+07
3.10356e+07
3.17372e+07
3.0858e+07
3.15419e+07
3.06834e+07
3.13457e+07
3.0511e+07
3.11455e+07
3.03398e+07
3.09371e+07
3.01682e+07
3.07155e+07
2.99941e+07
3.04744e+07
2.98147e+07
3.02062e+07
2.96261e+07
2.9902e+07
2.94231e+07
2.95512e+07
2.91987e+07
2.91419e+07
3.29408e+07
3.37464e+07
3.26758e+07
3.33741e+07
3.24149e+07
3.30229e+07
3.21551e+07
3.26838e+07
3.18979e+07
3.23558e+07
3.16452e+07
3.20401e+07
3.13986e+07
3.17386e+07
3.11596e+07
3.14528e+07
3.09291e+07
3.1184e+07
3.07077e+07
3.09328e+07
3.0496e+07
3.0699e+07
3.02942e+07
3.04818e+07
3.01023e+07
3.0279e+07
2.99201e+07
3.00875e+07
2.97469e+07
2.99022e+07
2.95819e+07
2.97164e+07
2.94238e+07
2.95207e+07
2.92708e+07
2.93029e+07
2.91204e+07
2.90466e+07
2.89691e+07
2.8729e+07
3.30663e+07
3.37217e+07
3.27742e+07
3.32358e+07
3.24579e+07
3.27386e+07
3.21386e+07
3.22471e+07
3.18247e+07
3.17711e+07
3.15205e+07
3.13169e+07
3.12286e+07
3.08898e+07
3.09509e+07
3.04944e+07
3.06889e+07
3.01346e+07
3.04438e+07
2.98143e+07
3.02165e+07
2.95364e+07
3.00078e+07
2.93036e+07
2.98181e+07
2.91175e+07
2.96474e+07
2.89783e+07
2.94957e+07
2.88846e+07
2.93629e+07
2.88327e+07
2.92489e+07
2.88153e+07
2.91539e+07
2.88213e+07
2.908e+07
2.8834e+07
2.90326e+07
2.8832e+07
1.21542e+08
9.67741e+07
1.15317e+08
9.21187e+07
1.0787e+08
8.81993e+07
1.00882e+08
8.31704e+07
9.43951e+07
7.83313e+07
8.83068e+07
7.38104e+07
8.25265e+07
6.94278e+07
7.69944e+07
6.50837e+07
7.1664e+07
6.07581e+07
6.64903e+07
5.64185e+07
6.14314e+07
5.20382e+07
5.64478e+07
4.75923e+07
5.15007e+07
4.30551e+07
4.65512e+07
3.83991e+07
4.15591e+07
3.35925e+07
3.64814e+07
2.85972e+07
3.12707e+07
2.33648e+07
2.58728e+07
1.78296e+07
2.02231e+07
1.18953e+07
1.42415e+07
5.40911e+06
1.10151e+08
8.06245e+07
1.06755e+08
7.86314e+07
1.02643e+08
7.60288e+07
9.79085e+07
7.38183e+07
9.31371e+07
7.16768e+07
8.80763e+07
6.84148e+07
8.29992e+07
6.46731e+07
7.80564e+07
6.10993e+07
7.3215e+07
5.75034e+07
6.84723e+07
5.38444e+07
6.38178e+07
5.01106e+07
5.92367e+07
4.62859e+07
5.47127e+07
4.23509e+07
5.02299e+07
3.82831e+07
4.5775e+07
3.4058e+07
4.13389e+07
2.96494e+07
3.69212e+07
2.50321e+07
3.25363e+07
2.01869e+07
2.82269e+07
1.5113e+07
2.40897e+07
9.85691e+06
9.38915e+07
6.96216e+07
9.45241e+07
6.84838e+07
9.31972e+07
6.73426e+07
9.06665e+07
6.62507e+07
8.74792e+07
6.42523e+07
8.42364e+07
6.28711e+07
8.06225e+07
6.11813e+07
7.66211e+07
5.84092e+07
7.26458e+07
5.55739e+07
6.87498e+07
5.26982e+07
6.49202e+07
4.97677e+07
6.11474e+07
4.67653e+07
5.7424e+07
4.36726e+07
5.37449e+07
4.04709e+07
5.01071e+07
3.71417e+07
4.65092e+07
3.36663e+07
4.29505e+07
3.00263e+07
3.94279e+07
2.62017e+07
3.59282e+07
2.21677e+07
3.24073e+07
1.78823e+07
7.38014e+07
6.31447e+07
7.53637e+07
6.20908e+07
7.68519e+07
6.11901e+07
7.82909e+07
6.06276e+07
7.8008e+07
6.00112e+07
7.64884e+07
5.86663e+07
7.46705e+07
5.73853e+07
7.24214e+07
5.60401e+07
6.97497e+07
5.40505e+07
6.70689e+07
5.20942e+07
6.43772e+07
5.01237e+07
6.16802e+07
4.81077e+07
5.8987e+07
4.60239e+07
5.63076e+07
4.38557e+07
5.36525e+07
4.15896e+07
5.10321e+07
3.92133e+07
4.84567e+07
3.67145e+07
4.59371e+07
3.40789e+07
4.34862e+07
3.12891e+07
4.11255e+07
2.83241e+07
5.27287e+07
5.69762e+07
5.55339e+07
5.66932e+07
5.81555e+07
5.64483e+07
6.03227e+07
5.61102e+07
6.254e+07
5.58734e+07
6.39919e+07
5.54185e+07
6.43252e+07
5.44445e+07
6.4325e+07
5.3778e+07
6.36751e+07
5.28779e+07
6.27074e+07
5.19401e+07
6.15183e+07
5.09557e+07
6.01773e+07
4.99166e+07
5.8737e+07
4.88172e+07
5.72397e+07
4.76535e+07
5.57207e+07
4.64236e+07
5.42117e+07
4.51265e+07
5.27431e+07
4.37628e+07
5.13457e+07
4.23338e+07
5.00537e+07
4.08418e+07
4.89065e+07
3.92902e+07
4.0043e+07
5.01206e+07
4.22288e+07
5.05358e+07
4.44725e+07
5.08557e+07
4.69408e+07
5.12452e+07
4.94793e+07
5.16887e+07
5.20084e+07
5.21529e+07
5.40338e+07
5.23827e+07
5.55377e+07
5.25027e+07
5.65018e+07
5.24715e+07
5.70473e+07
5.23406e+07
5.72698e+07
5.21389e+07
5.72489e+07
5.18835e+07
5.70518e+07
5.15851e+07
5.67363e+07
5.1252e+07
5.63533e+07
5.0892e+07
5.59494e+07
5.0514e+07
5.55686e+07
5.01286e+07
5.52542e+07
4.97493e+07
5.50504e+07
4.93939e+07
5.5005e+07
4.90867e+07
3.76512e+07
4.46311e+07
3.91709e+07
4.57526e+07
4.08295e+07
4.68426e+07
4.25781e+07
4.79035e+07
4.43968e+07
4.8917e+07
4.6249e+07
4.98447e+07
4.81178e+07
5.06525e+07
4.98537e+07
5.13298e+07
5.13678e+07
5.18997e+07
5.26382e+07
5.23885e+07
5.3679e+07
5.28193e+07
5.45225e+07
5.32112e+07
5.52094e+07
5.35803e+07
5.57837e+07
5.39409e+07
5.62903e+07
5.4307e+07
5.67742e+07
5.46933e+07
5.72795e+07
5.51159e+07
5.78503e+07
5.55935e+07
5.85297e+07
5.61484e+07
5.93596e+07
5.68089e+07
3.46078e+07
3.99556e+07
3.62351e+07
4.1486e+07
3.78904e+07
4.29631e+07
3.95684e+07
4.43931e+07
4.12697e+07
4.57718e+07
4.2995e+07
4.70885e+07
4.47371e+07
4.83303e+07
4.64588e+07
4.9492e+07
4.81099e+07
5.05796e+07
4.96575e+07
5.16062e+07
5.10885e+07
5.2588e+07
5.24075e+07
5.35427e+07
5.36316e+07
5.44877e+07
5.47868e+07
5.54409e+07
5.59051e+07
5.64205e+07
5.70223e+07
5.74454e+07
5.81765e+07
5.85356e+07
5.94074e+07
5.97109e+07
6.07541e+07
6.099e+07
6.22529e+07
6.23881e+07
3.03452e+07
3.47034e+07
3.23143e+07
3.66638e+07
3.42655e+07
3.85599e+07
3.6187e+07
4.03962e+07
3.80805e+07
4.21727e+07
3.99528e+07
4.38875e+07
4.18088e+07
4.55385e+07
4.36436e+07
4.71257e+07
4.54427e+07
4.86541e+07
4.7192e+07
5.01331e+07
4.88834e+07
5.15762e+07
5.05177e+07
5.29993e+07
5.21044e+07
5.44205e+07
5.36608e+07
5.58597e+07
5.52103e+07
5.73385e+07
5.67813e+07
5.88804e+07
5.8406e+07
6.05112e+07
6.01202e+07
6.22581e+07
6.19638e+07
6.41447e+07
6.3981e+07
6.617e+07
2.55777e+07
2.74728e+07
2.81006e+07
3.04324e+07
3.04659e+07
3.31396e+07
3.27034e+07
3.56449e+07
3.48463e+07
3.79877e+07
3.69224e+07
4.0199e+07
3.89518e+07
4.23025e+07
4.0946e+07
4.43168e+07
4.29086e+07
4.62577e+07
4.48399e+07
4.81399e+07
4.67403e+07
4.99787e+07
4.86144e+07
5.1791e+07
5.04716e+07
5.35959e+07
5.23265e+07
5.54147e+07
5.41986e+07
5.72721e+07
5.61108e+07
5.91962e+07
5.80888e+07
6.12211e+07
6.01613e+07
6.33933e+07
6.23637e+07
6.57914e+07
6.47598e+07
6.85918e+07
)
;

boundaryField
{
    back
    {
        type            empty;
    }
    front
    {
        type            empty;
    }
    left
    {
        type            zeroGradient;
    }
    hole
    {
        type            zeroGradient;
    }
    down
    {
        type            zeroGradient;
    }
    right
    {
        type            zeroGradient;
    }
    up
    {
        type            zeroGradient;
    }
}


// ************************************************************************* //
