/*--------------------------------*- C++ -*----------------------------------*\
| =========                 |                                                 |
| \\      /  F ield         | OpenFOAM: The Open Source CFD Toolbox           |
|  \\    /   O peration     | Version:  v2012                                 |
|   \\  /    A nd           | Website:  www.openfoam.com                      |
|    \\/     M anipulation  |                                                 |
\*---------------------------------------------------------------------------*/
FoamFile
{
    version     2.0;
    format      ascii;
    class       volScalarField;
    location    "9";
    object      epsilonEq;
}
// * * * * * * * * * * * * * * * * * * * * * * * * * * * * * * * * * * * * * //

dimensions      [0 0 0 0 0 0 0];


internalField   nonuniform List<scalar> 
8000
(
0.0102275
0.00993125
0.00977457
0.00945939
0.00928502
0.00897726
0.00878744
0.00848905
0.00828922
0.00799606
0.00779141
0.00749781
0.00729271
0.00699299
0.00679129
0.00648127
0.00628658
0.00596387
0.00577957
0.00544404
0.00527354
0.00493031
0.00477683
0.00443372
0.00429951
0.00396629
0.00385321
0.00353849
0.00344756
0.00315613
0.00308765
0.00285164
0.0028199
0.00265727
0.00263405
0.00250699
0.00249193
0.00238647
0.00237869
0.00228589
0.0100589
0.00975195
0.00958118
0.00926342
0.0091054
0.00877664
0.00862456
0.00828356
0.00813666
0.00778018
0.00764032
0.00726378
0.00713384
0.00673436
0.00661724
0.00619369
0.00609206
0.00564864
0.00556343
0.0051114
0.00504209
0.00459746
0.00454156
0.00412232
0.0040761
0.00369763
0.00365734
0.00333001
0.00329152
0.00302399
0.00300511
0.0028342
0.00283305
0.0026856
0.00268583
0.00255979
0.00256123
0.00245246
0.0024547
0.0023606
0.00989566
0.00954252
0.00937842
0.00901243
0.00887526
0.00848516
0.00836979
0.00794866
0.00785381
0.00739665
0.00732286
0.00682792
0.00677649
0.00624591
0.0062172
0.00566232
0.00565482
0.00509592
0.00510508
0.00457042
0.00458895
0.00410509
0.00412503
0.00371041
0.00372529
0.00338792
0.00339375
0.00313338
0.0031292
0.00295897
0.00297728
0.00284014
0.00286104
0.00273308
0.00275272
0.00263452
0.00265322
0.00254453
0.0025629
0.00246245
0.00967016
0.00924503
0.00910451
0.0086505
0.00854612
0.00804935
0.00797982
0.0074329
0.00739764
0.00679935
0.00679772
0.00615542
0.00618517
0.00551888
0.00557513
0.00491859
0.00499212
0.00438749
0.00446588
0.00394679
0.00401847
0.00360098
0.00365829
0.00334104
0.00338109
0.00315132
0.00317554
0.00301492
0.00304156
0.00293886
0.00297142
0.00286313
0.00289769
0.00278599
0.00282033
0.00270935
0.00274316
0.00263508
0.00266826
0.00256398
0.00933809
0.00880318
0.00870179
0.00811331
0.00805716
0.00740663
0.00739605
0.00668439
0.00671777
0.00595904
0.00603178
0.00525669
0.00536046
0.00462028
0.00474085
0.00409344
0.00421294
0.00369425
0.00379829
0.00341342
0.00349524
0.00322617
0.00328569
0.00310389
0.00314567
0.00302208
0.00305317
0.0029802
0.00301761
0.00293488
0.002978
0.00288272
0.00292873
0.0028253
0.00287246
0.00276559
0.00281274
0.00270536
0.00275182
0.00264563
0.00884721
0.00815379
0.00810609
0.00733862
0.00734475
0.00650975
0.00656753
0.00568876
0.0057913
0.00491228
0.00504835
0.00424322
0.00439255
0.00373693
0.00387636
0.00339992
0.00351405
0.00319757
0.0032825
0.00308468
0.00314535
0.00302565
0.0030688
0.0029934
0.00302702
0.00297458
0.00301561
0.00295036
0.00299953
0.00291921
0.00297424
0.00288154
0.00293961
0.00283934
0.00289851
0.0027942
0.00285311
0.00274724
0.00280499
0.00269926
0.00813519
0.00724112
0.00725816
0.00629224
0.0063674
0.00536703
0.00549054
0.00451385
0.00467071
0.0038251
0.00398854
0.00336912
0.00350724
0.00312079
0.00322016
0.00301197
0.00307479
0.00297116
0.00301257
0.00295286
0.00299084
0.00294137
0.00298365
0.00293163
0.00298212
0.0029196
0.00297719
0.00290373
0.00296698
0.00288317
0.00294998
0.00285814
0.00292666
0.00282928
0.00289799
0.00279728
0.00286503
0.00276279
0.00282868
0.00272629
0.00714846
0.00604707
0.00613127
0.00501101
0.00514691
0.0040847
0.00425288
0.00340633
0.00356444
0.00306413
0.00316724
0.00294686
0.00299842
0.00290886
0.0029471
0.00288978
0.00293273
0.0028772
0.00292561
0.00286922
0.00292308
0.0028642
0.00292383
0.00285985
0.00292476
0.00285437
0.00292368
0.00284653
0.00291907
0.00283556
0.00290998
0.00282119
0.00289617
0.00280347
0.00287784
0.00278264
0.00285541
0.00275898
0.00282935
0.00273281
0.00587673
0.00464854
0.00478129
0.00366517
0.00382105
0.00308161
0.00318938
0.00290904
0.00295078
0.0028535
0.00289033
0.0028203
0.00286482
0.00279842
0.00284952
0.00278645
0.00284358
0.00278114
0.00284344
0.00278021
0.00284704
0.00278173
0.00285253
0.00278399
0.00285807
0.00278556
0.0028621
0.00278538
0.00286346
0.00278271
0.00286134
0.00277715
0.00285534
0.00276852
0.00284535
0.00275682
0.00283148
0.00274217
0.00281395
0.00272472
0.00442542
0.00333361
0.00344027
0.00292708
0.00295881
0.00282779
0.00285433
0.00276565
0.00280485
0.0027236
0.00277312
0.00269804
0.00275573
0.0026848
0.00274879
0.00268093
0.00274997
0.0026835
0.00275653
0.00269012
0.00276624
0.00269884
0.00277729
0.00270809
0.00278815
0.00271661
0.00279754
0.00272345
0.00280453
0.00272795
0.00280841
0.00272969
0.00280879
0.00272843
0.00280547
0.00272411
0.00279844
0.00271675
0.00278779
0.00270645
0.00317408
0.00286984
0.00286798
0.00275896
0.00277993
0.00267638
0.00271536
0.00262152
0.00267419
0.00258869
0.00265147
0.00257291
0.00264304
0.00256962
0.00264498
0.0025752
0.00265421
0.00258659
0.00266807
0.00260137
0.00268437
0.00261763
0.00270138
0.00263388
0.00271773
0.00264902
0.00273237
0.00266221
0.00274448
0.00267289
0.00275352
0.00268068
0.00275915
0.00268541
0.00276118
0.00268698
0.00275958
0.00268544
0.00275442
0.00268089
0.00283722
0.00269891
0.00270912
0.00258598
0.00262194
0.00251215
0.00256645
0.00246897
0.0025362
0.00244889
0.00252496
0.00244568
0.00252756
0.00245425
0.00253969
0.00247063
0.002558
0.00249169
0.00257984
0.00251507
0.00260311
0.00253895
0.00262624
0.00256203
0.00264804
0.00258332
0.00266761
0.00260217
0.00268434
0.00261813
0.0026978
0.00263094
0.00270775
0.00264049
0.00271408
0.00264675
0.00271679
0.00264981
0.00271597
0.00264979
0.00265448
0.00250175
0.00252664
0.0023982
0.00244928
0.00233873
0.00240783
0.00231146
0.00239241
0.00230717
0.0023954
0.00231869
0.00241093
0.00234054
0.00243448
0.00236856
0.00246264
0.00239971
0.00249287
0.00243176
0.00252327
0.0024631
0.00255246
0.0024926
0.00257946
0.0025195
0.00260359
0.00254331
0.0026244
0.00256373
0.00264162
0.00258064
0.00265512
0.00259403
0.0026649
0.00260397
0.00267102
0.00261061
0.00267362
0.00261411
0.00243246
0.00228429
0.00232343
0.00219928
0.0022651
0.0021596
0.00224282
0.00215188
0.00224553
0.0021658
0.00226489
0.00219358
0.0022947
0.00222954
0.00233044
0.00226958
0.00236882
0.00231084
0.00240754
0.00235135
0.00244496
0.00238976
0.00247998
0.00242519
0.00251186
0.0024571
0.00254011
0.00248519
0.00256449
0.00250935
0.00258488
0.00252957
0.0026013
0.00254597
0.00261383
0.00255874
0.00262264
0.0025681
0.00262793
0.00257429
0.00218784
0.00205169
0.00210539
0.00199154
0.00207221
0.0019763
0.00207328
0.00199134
0.00209688
0.0020255
0.0021343
0.00207068
0.00217933
0.00212125
0.00222767
0.00217337
0.00227638
0.00222455
0.00232348
0.00227315
0.00236771
0.00231817
0.00240825
0.00235902
0.00244463
0.00239539
0.00247661
0.00242718
0.00250412
0.00245444
0.0025272
0.00247731
0.002546
0.00249604
0.00256073
0.00251092
0.00257165
0.00252228
0.00257903
0.00253048
0.00192872
0.0018087
0.00187682
0.00177769
0.00187295
0.00179051
0.00190058
0.00183084
0.00194717
0.00188672
0.00200384
0.00194996
0.00206465
0.00201524
0.00212574
0.00207925
0.00218466
0.00213995
0.00223992
0.00219619
0.00229065
0.00224734
0.0023364
0.00229312
0.00237697
0.00233349
0.00241235
0.00236853
0.00244264
0.00239843
0.00246805
0.00242347
0.00248885
0.00244398
0.00250535
0.00246037
0.00251792
0.00247311
0.00252695
0.00248272
0.00166101
0.00155974
0.00164196
0.00156094
0.00167022
0.00160455
0.00172659
0.00167188
0.00179745
0.0017502
0.00187392
0.00183154
0.00195056
0.00191119
0.00202417
0.00198652
0.00209295
0.00205616
0.00215599
0.00211945
0.00221287
0.00217621
0.0022635
0.00222649
0.00230798
0.00227049
0.00234653
0.00230848
0.0023794
0.00234077
0.00240694
0.00236771
0.0024295
0.00238967
0.00244751
0.00240712
0.00246142
0.00242068
0.00247176
0.00243113
0.00138942
0.00130877
0.00140491
0.00134486
0.00146742
0.00142137
0.00155386
0.00151657
0.00164938
0.0016172
0.00174541
0.00171595
0.0018373
0.00180905
0.00192275
0.00189476
0.00200073
0.00197243
0.00207093
0.002042
0.00213345
0.00210373
0.00218857
0.00215802
0.0022367
0.00220533
0.00227824
0.00224611
0.00231364
0.00228077
0.00234331
0.00230968
0.00236767
0.00233316
0.00238716
0.00235157
0.00240234
0.00236548
0.00241389
0.00237609
0.00111781
0.00105948
0.00116978
0.0011335
0.00126852
0.00124461
0.00138557
0.00136763
0.00150519
0.0014895
0.00161967
0.00160417
0.00172557
0.00170918
0.00182164
0.00180382
0.00190771
0.00188824
0.00198414
0.00196297
0.00205151
0.00202874
0.00211051
0.00208629
0.00216183
0.00213638
0.00220613
0.00217967
0.00224401
0.00221675
0.002276
0.00224804
0.00230255
0.00227378
0.00232406
0.00229392
0.00234104
0.00230829
0.00235439
0.00231776
0.000849494
0.000815693
0.000941221
0.00093194
0.00107831
0.0010789
0.00122564
0.0012285
0.00136772
0.00136941
0.00149862
0.00149767
0.00161653
0.00161242
0.00172143
0.00171406
0.00181401
0.0018035
0.00189524
0.00188182
0.00196619
0.00195014
0.00202789
0.00200953
0.00208134
0.00206101
0.00212746
0.00210554
0.00216711
0.00214401
0.00220108
0.00217719
0.00223007
0.00220565
0.00225467
0.00222933
0.00227549
0.00224608
0.00229397
0.0022466
0.000587622
0.000582632
0.000725722
0.000747751
0.000903304
0.00093035
0.00107903
0.00110341
0.0012405
0.00125982
0.00138478
0.00139852
0.00151205
0.00152035
0.00162351
0.00162674
0.00172061
0.00171925
0.00180483
0.0017993
0.0018775
0.00186823
0.0019398
0.00192717
0.00199276
0.00197709
0.00203722
0.00201881
0.0020738
0.00205295
0.00210287
0.00207998
0.00212438
0.00210027
0.0021374
0.00211439
0.00213881
0.00212452
0.00211859
0.00214043
0.000336765
0.000372289
0.000535404
0.00059386
0.000752964
0.000807104
0.000951936
0.000997312
0.00112769
0.00116404
0.00128127
0.00130927
0.00141482
0.00143538
0.00153062
0.00154463
0.00163075
0.00163904
0.00171707
0.00172038
0.00179119
0.0017902
0.00185449
0.00184983
0.00190816
0.00190045
0.00195321
0.00194309
0.00199051
0.00197875
0.00202083
0.0020084
0.00204496
0.00203326
0.00206415
0.00205498
0.00208167
0.00207584
0.00210893
0.00209666
0.000123765
0.0002316
0.000398042
0.000492457
0.000640988
0.000719011
0.000851392
0.000915106
0.00103334
0.00108479
0.00119065
0.00123159
0.00132662
0.00135856
0.00144405
0.00146828
0.00154536
0.00156298
0.0016326
0.00164458
0.00170754
0.00171473
0.00177169
0.00177489
0.0018264
0.00182634
0.00187286
0.00187027
0.00191221
0.00190779
0.00194561
0.00194
0.00197439
0.001968
0.00200025
0.00199277
0.00202508
0.00201484
0.00204804
0.00203406
0.00019572
0.000271406
0.000363995
0.000469437
0.000583766
0.000675317
0.000784575
0.000861033
0.000961226
0.00102434
0.00111518
0.0011668
0.00124887
0.00129064
0.00136474
0.00139805
0.00146499
0.00149107
0.00155159
0.0015715
0.00162627
0.00164093
0.00169056
0.00170079
0.00174584
0.00175235
0.00179335
0.00179676
0.00183425
0.00183507
0.00186967
0.0018682
0.00190066
0.00189693
0.00192806
0.00192182
0.00195218
0.00194319
0.00197314
0.00196122
0.000410543
0.000432065
0.00044498
0.000526154
0.000590297
0.000679261
0.00075638
0.000837264
0.000914178
0.000984068
0.00105661
0.00111575
0.00118271
0.00123211
0.00129334
0.00133414
0.00138992
0.00142321
0.00147396
0.00150073
0.00154693
0.00156805
0.00161017
0.00162643
0.00166495
0.00167698
0.0017124
0.00172074
0.00175353
0.00175859
0.00178925
0.00179128
0.0018203
0.00181945
0.00184721
0.00184358
0.00187037
0.00186403
0.00189005
0.00188112
0.00062579
0.000616495
0.00058599
0.000633865
0.000651714
0.000724571
0.000766472
0.000842672
0.000893181
0.000964026
0.00101592
0.00107871
0.00112887
0.0011832
0.00123036
0.00127666
0.0013204
0.00135937
0.0013997
0.00143209
0.00146921
0.00149577
0.00152996
0.00155134
0.00158293
0.00159971
0.00162905
0.00164172
0.00166916
0.00167811
0.00170397
0.00170952
0.0017341
0.0017365
0.00176004
0.00175951
0.00178219
0.00177895
0.00180088
0.00179516
0.000832315
0.00080049
0.000746021
0.000764587
0.000748273
0.000798969
0.000808701
0.00087287
0.00089676
0.000962767
0.000993039
0.00105529
0.00108764
0.00114387
0.00117609
0.00122563
0.00125665
0.00129957
0.00132892
0.00136558
0.00139313
0.00142404
0.00144984
0.0014755
0.00149968
0.00152057
0.00154333
0.0015599
0.00158143
0.00159405
0.00161455
0.00162357
0.00164321
0.00164894
0.00166787
0.00167058
0.0016889
0.00168886
0.00170666
0.00170412
0.0010281
0.000977522
0.000908364
0.000902406
0.000862504
0.000890262
0.000873838
0.000921597
0.000921195
0.000977528
0.000986754
0.00104436
0.00105881
0.00111372
0.00113069
0.00118101
0.00119891
0.00124389
0.00126186
0.00130134
0.00131894
0.00135307
0.00137009
0.00139916
0.00141556
0.00143992
0.00145571
0.00147571
0.00149097
0.00150696
0.00152176
0.00153408
0.0015485
0.00155744
0.00157156
0.00157743
0.00159131
0.00159437
0.00160804
0.00160856
0.00121212
0.00114497
0.00106611
0.00103919
0.000983082
0.000989232
0.000952867
0.000982405
0.000961486
0.00100475
0.000994827
0.00104423
0.00104159
0.00109207
0.00109404
0.00114259
0.00114739
0.0011924
0.00119888
0.00123957
0.00124704
0.00128314
0.00129119
0.0013227
0.00133109
0.00135817
0.00136678
0.00138966
0.00139843
0.00141737
0.0014263
0.00144158
0.00145065
0.00146256
0.00147179
0.00148059
0.00148999
0.00149595
0.00150553
0.00150889
0.00138362
0.00130137
0.00121588
0.00117056
0.00110326
0.00108962
0.0010386
0.0010497
0.00101245
0.00104068
0.00101436
0.00105278
0.00103469
0.0010779
0.0010658
0.00111005
0.00110221
0.00114513
0.00114034
0.00118053
0.00117794
0.00121464
0.0012137
0.00124655
0.00124689
0.00127582
0.00127718
0.00130223
0.00130447
0.0013258
0.00132879
0.0013466
0.00135029
0.00136479
0.00136912
0.00138054
0.00138549
0.00139406
0.00139959
0.00140554
0.00154192
0.00144574
0.00135574
0.00129392
0.00121896
0.00118729
0.00112581
0.00111909
0.00106946
0.00108178
0.00104223
0.00106774
0.00103646
0.00107002
0.00104534
0.00108291
0.00106341
0.00110208
0.00108663
0.00112446
0.00111221
0.00114795
0.00113827
0.0011712
0.00116364
0.00119338
0.0011876
0.00121399
0.00120975
0.00123279
0.00122992
0.00124968
0.00124804
0.00126465
0.00126415
0.00127779
0.00127834
0.00128918
0.00129072
0.00129895
0.0016864
0.00157728
0.00148439
0.00140761
0.00132759
0.00127946
0.00121084
0.00118722
0.00112872
0.00112503
0.00107544
0.00108689
0.00104503
0.00106709
0.00103182
0.00106057
0.00103086
0.00106316
0.00103809
0.00107161
0.00105042
0.00108352
0.00106562
0.00109719
0.00108211
0.00111146
0.00109882
0.00112555
0.00111507
0.00113897
0.00113041
0.00115142
0.00114461
0.00116275
0.00115755
0.0011729
0.00116918
0.00118185
0.00117952
0.00118965
0.00181645
0.00169535
0.0016009
0.00151043
0.00142741
0.0013642
0.00129109
0.00125165
0.00118728
0.0011679
0.0011113
0.00110815
0.00105848
0.00106773
0.00102422
0.00104235
0.0010043
0.00102823
0.000995003
0.00102223
0.000993245
0.00102184
0.000996605
0.00102517
0.00100324
0.00103078
0.00101181
0.00103766
0.00102135
0.00104509
0.00103119
0.00105258
0.00104088
0.00105982
0.00105014
0.00106659
0.00105879
0.00107278
0.00106674
0.00107833
0.00193151
0.00179936
0.00170452
0.00160154
0.0015172
0.00144015
0.00136475
0.00131054
0.00124288
0.0012084
0.00114756
0.00112968
0.00107497
0.00107056
0.00102139
0.00102744
0.000983339
0.000997058
0.000957597
0.000976541
0.000941335
0.000963471
0.000932166
0.000955878
0.000928146
0.000952202
0.000927747
0.000951248
0.0009298
0.000952112
0.000933431
0.000954128
0.000938001
0.000956811
0.000943052
0.000959816
0.000948263
0.000962902
0.000953422
0.00096591
0.00203105
0.00188885
0.00179468
0.0016803
0.0015961
0.00150637
0.00143051
0.00136254
0.0012938
0.00124488
0.00118232
0.00114987
0.00109277
0.00107424
0.00102209
0.00101499
0.000967381
0.00096933
0.000925961
0.00093474
0.000895364
0.000909008
0.000873405
0.000890237
0.000858198
0.000876847
0.000848168
0.000867553
0.000842031
0.000861329
0.000838767
0.000857372
0.000837577
0.000855056
0.000837848
0.000853901
0.000839116
0.000853538
0.000841039
0.000853693
0.00211455
0.00196343
0.00187098
0.00174634
0.00166354
0.00156213
0.00148742
0.0014065
0.00133866
0.00127586
0.00121391
0.0011671
0.00111023
0.00107736
0.00102498
0.00100401
0.000955679
0.000944619
0.000900049
0.00089699
0.000855984
0.000859155
0.000821572
0.000829382
0.000795105
0.000806171
0.000775089
0.000788249
0.000760245
0.000774551
0.000749494
0.000764201
0.000741942
0.000756479
0.000736858
0.000750795
0.000733649
0.000746659
0.000731848
0.000743663
0.00218152
0.00202295
0.00193325
0.00179947
0.00171914
0.00160671
0.0015346
0.00144098
0.00137603
0.00129959
0.0012406
0.00117968
0.00112565
0.00107848
0.00102868
0.000993503
0.000947391
0.000922509
0.000879732
0.000863524
0.000823854
0.000814797
0.000778097
0.000774785
0.000740974
0.000742135
0.000711161
0.000715669
0.000687485
0.000694374
0.000668917
0.000677385
0.000654562
0.000663962
0.00064364
0.000653467
0.000635468
0.000645322
0.00062945
0.000638967
0.00223169
0.00206789
0.00198176
0.00183935
0.00176247
0.00163734
0.00157018
0.00146322
0.00140375
0.00131388
0.00126047
0.00118594
0.00113744
0.00107641
0.00103199
0.000982775
0.000941831
0.000902872
0.000864984
0.000834864
0.000799744
0.000777164
0.00074463
0.000728398
0.000698344
0.00068737
0.000659743
0.000653041
0.000627819
0.000624512
0.000601677
0.000601009
0.000580519
0.000581864
0.000563617
0.000566489
0.000550272
0.000554326
0.000539763
0.000544728
0.0022663
0.00210114
0.00201771
0.0018551
0.00178809
0.00164742
0.0015898
0.00146995
0.00141923
0.00131722
0.00127206
0.00118525
0.00114475
0.001071
0.00103447
0.000972031
0.000938936
0.00088631
0.000856216
0.000812125
0.000784705
0.000748019
0.000723034
0.000692744
0.000670033
0.000645229
0.000624698
0.000604558
0.000586164
0.000569949
0.000553685
0.00054075
0.000526616
0.000516425
0.000504384
0.000496546
0.000486431
0.000480764
0.000472038
0.000468671
0.00230193
0.00205803
0.00201388
0.0018303
0.00178462
0.00163383
0.00159032
0.00146206
0.00142239
0.00131152
0.00127624
0.00117961
0.00114868
0.00106409
0.0010372
0.000962984
0.000939747
0.000874541
0.000854559
0.00079723
0.000780143
0.000729712
0.000715219
0.000670821
0.000658692
0.000619545
0.000609628
0.00057501
0.000567235
0.000536463
0.000530852
0.000503265
0.000499943
0.0004749
0.000474105
0.000451029
0.000453099
0.000431641
0.000436926
0.000417514
0.000443204
0.0003859
0.000474578
0.000419608
0.000548946
0.000487713
0.000645647
0.000576156
0.000754349
0.000675616
0.000869168
0.000780622
0.000986611
0.000887963
0.0011045
0.000995674
0.00122138
0.00110249
0.00133624
0.00120758
0.00144835
0.00131034
0.00155711
0.00141038
0.00166204
0.0015074
0.00176273
0.00160121
0.00185873
0.00169168
0.00194956
0.00177874
0.00203457
0.00186235
0.00211272
0.00194248
0.00218208
0.00201913
0.00223796
0.00209227
0.000407029
0.000368226
0.000446173
0.000405945
0.000521763
0.000475705
0.00061868
0.000564607
0.000726958
0.000663726
0.000840886
0.00076783
0.000957135
0.000873865
0.00107365
0.000979958
0.00118906
0.0010849
0.00130244
0.00118787
0.00141307
0.0012883
0.00152042
0.00138578
0.00162407
0.00148
0.00172362
0.00157077
0.00181873
0.0016579
0.001909
0.00174126
0.00199394
0.00182068
0.00207278
0.00189591
0.00214411
0.0019664
0.00220472
0.00203069
0.00039001
0.000363718
0.000431014
0.000402672
0.000504922
0.000471319
0.000599157
0.000558073
0.000704475
0.000654642
0.00081537
0.000756041
0.000928604
0.00085931
0.00104217
0.000962615
0.00115476
0.00106476
0.00126545
0.00116493
0.00137357
0.00126256
0.00147862
0.00135722
0.00158019
0.00144863
0.00167795
0.00153656
0.00177159
0.00162084
0.00186081
0.00170133
0.00194522
0.00177788
0.00202429
0.00185027
0.00209708
0.00191807
0.00216158
0.00198031
0.00038677
0.000369266
0.000426306
0.00040732
0.00049642
0.000472912
0.000586044
0.000555783
0.000686703
0.000648337
0.000793124
0.000745828
0.00090212
0.000845355
0.0010117
0.000945089
0.00112054
0.00104382
0.00122774
0.00114072
0.00133263
0.00123521
0.00143472
0.00132685
0.00153363
0.00141535
0.00162905
0.00150048
0.00172071
0.00158208
0.00180836
0.00166
0.00189171
0.00173412
0.00197039
0.00180427
0.00204378
0.00187017
0.00211063
0.00193124
0.000393479
0.000382226
0.000429828
0.000418042
0.000494778
0.000479364
0.000578575
0.000557269
0.000673495
0.000644873
0.000774504
0.000737669
0.000878458
0.000832806
0.000983349
0.000928442
0.00108784
0.00102334
0.00119101
0.00111665
0.00129218
0.00120776
0.00139086
0.00129623
0.00148668
0.00138175
0.00157934
0.00146407
0.0016686
0.00154303
0.00175425
0.00161851
0.00183606
0.00169038
0.00191378
0.00175853
0.00198698
0.00182277
0.0020549
0.00188273
0.000407288
0.000400514
0.000439762
0.000433421
0.000498849
0.000489846
0.000576146
0.00056219
0.000664691
0.00064429
0.000759713
0.000731902
0.000858115
0.00082223
0.000957872
0.00091342
0.00105761
0.00100421
0.00115639
0.00109371
0.00125351
0.00118128
0.00134848
0.00126647
0.0014409
0.00134894
0.00153051
0.00142844
0.00161705
0.0015048
0.00170036
0.00157789
0.00178026
0.0016476
0.00185654
0.00171385
0.00192893
0.0017765
0.00199695
0.00183532
0.000426095
0.000422564
0.000454625
0.000452351
0.000507679
0.000503689
0.000578223
0.000570239
0.000660089
0.000646567
0.000748811
0.000728722
0.000841367
0.000813992
0.000935718
0.000900521
0.00103047
0.000987018
0.00112463
0.00107257
0.0012175
0.0011565
0.00130854
0.00123834
0.00139738
0.00131772
0.00148371
0.00139439
0.00156733
0.00146815
0.00164805
0.00153889
0.00172572
0.00160649
0.00180021
0.00167088
0.00187131
0.00173197
0.00193874
0.00178961
0.000448387
0.000447239
0.000473224
0.000473964
0.000520439
0.000520319
0.000584294
0.000581105
0.000659431
0.000651606
0.000741742
0.000728202
0.000828315
0.000808294
0.000917123
0.000890044
0.00100675
0.000972147
0.00109617
0.00105366
0.00118465
0.00113389
0.00127166
0.00121233
0.00135678
0.0012886
0.00143971
0.00136243
0.00152024
0.00143361
0.0015982
0.00150201
0.00167345
0.00156753
0.00174587
0.0016301
0.00181535
0.00168964
0.00188168
0.00174607
0.000473084
0.000473712
0.000494615
0.000497577
0.000536402
0.00053923
0.000593851
0.000594462
0.000662403
0.000659244
0.000738349
0.00073031
0.00081893
0.000805206
0.000902158
0.000882141
0.000986605
0.000959806
0.00107123
0.00103724
0.00115528
0.00111373
0.00123818
0.00118875
0.00131952
0.0012619
0.00139898
0.00133288
0.00147633
0.00140149
0.0015514
0.00146757
0.00162408
0.00153103
0.00169425
0.00159178
0.00176184
0.00164978
0.00182672
0.00170497
0.000499413
0.000501386
0.00051806
0.000522653
0.00055493
0.000559977
0.0006064
0.000609981
0.000668652
0.000669266
0.000738401
0.00073493
0.000813081
0.000804698
0.000890773
0.000876844
0.00097006
0.000950079
0.00104989
0.00102343
0.00112949
0.00109618
0.00120827
0.00116777
0.0012858
0.0012378
0.00136174
0.00130594
0.00143586
0.00137197
0.00150798
0.00143574
0.00157799
0.00149714
0.00164579
0.00155609
0.00171132
0.00161254
0.0017745
0.00166646
0.000526815
0.00052982
0.00054298
0.000548765
0.000575476
0.000582166
0.000621466
0.00062733
0.000677799
0.000681418
0.000741611
0.000741888
0.000810561
0.000806659
0.000882828
0.000874098
0.000957028
0.000942951
0.00103211
0.00101226
0.00110729
0.00108128
0.00118197
0.00114945
0.00125568
0.00121635
0.0013281
0.00128166
0.00139897
0.00134512
0.00146811
0.00140658
0.00153539
0.00146592
0.00160073
0.00152305
0.00166407
0.00157794
0.00172536
0.00163055
0.000554882
0.000558682
0.000568924
0.00057557
0.00059757
0.000605454
0.000638607
0.000646192
0.000689455
0.000695428
0.000747658
0.000750964
0.000811112
0.000810923
0.000878118
0.000873782
0.000947347
0.000938338
0.00101777
0.00100365
0.00108859
0.00106898
0.0011592
0.00113376
0.00122913
0.00119756
0.00129804
0.00126003
0.00136566
0.00132093
0.00143179
0.00138008
0.00149631
0.00143734
0.00155914
0.00149265
0.00162021
0.00154594
0.00167949
0.00159721
0.000583302
0.000587715
0.000595537
0.000602789
0.000620816
0.000629541
0.000657416
0.000666265
0.00070324
0.000711018
0.000756201
0.000761914
0.000814438
0.000817284
0.000876392
0.000875725
0.000940804
0.0009361
0.00100667
0.000997496
0.00107322
0.00105919
0.00113983
0.00112062
0.00120603
0.00118133
0.00127146
0.00124098
0.00133584
0.00129932
0.00139898
0.00135615
0.00146073
0.00141133
0.001521
0.00146478
0.00157974
0.00151645
0.00163693
0.00156632
0.000611834
0.000616715
0.000622529
0.000630193
0.000644877
0.000654164
0.000677527
0.000687269
0.000718786
0.00072791
0.000766895
0.00077448
0.000820226
0.000825509
0.000877368
0.000879722
0.000937148
0.000936057
0.00099861
0.000993642
0.00106099
0.00105177
0.00112368
0.00110989
0.00118621
0.00116755
0.0012482
0.00122441
0.00130938
0.00128019
0.00136953
0.00133469
0.00142851
0.00138777
0.00148621
0.00143935
0.00154259
0.00148935
0.00159761
0.00153776
0.000640286
0.000645512
0.000649668
0.000657584
0.000669463
0.000679093
0.000698615
0.000708948
0.000735751
0.000745837
0.0007794
0.0007884
0.000828153
0.000835352
0.000880748
0.000885546
0.000936104
0.000938001
0.00099332
0.000991896
0.00105166
0.00104656
0.00111054
0.00110143
0.00116947
0.00115608
0.00122808
0.00121016
0.0012861
0.00126338
0.00134329
0.00131556
0.0013995
0.00136653
0.00145463
0.00141619
0.00150862
0.00146448
0.00156143
0.00151138
0.000668496
0.000673962
0.000676754
0.000684796
0.000694329
0.000704121
0.000720387
0.000731064
0.000753816
0.000764545
0.000793391
0.000803415
0.000837899
0.000846559
0.000886223
0.000892955
0.00093738
0.000941707
0.000990532
0.000992048
0.00104498
0.00104334
0.00110015
0.00109504
0.00115557
0.00114673
0.00121088
0.00119806
0.00126578
0.00124875
0.00132005
0.00129859
0.00137352
0.00134743
0.00142608
0.00139515
0.00147766
0.00144169
0.00152823
0.00148702
0.000696324
0.000701936
0.000703619
0.000711676
0.000719259
0.000729066
0.000742583
0.000753401
0.000772689
0.000783793
0.000808557
0.000819274
0.00084915
0.000858878
0.000893486
0.000901704
0.000940681
0.000946938
0.000989961
0.000993873
0.00104067
0.0010419
0.00109226
0.00109053
0.00114428
0.00113932
0.00119635
0.00118794
0.0012482
0.00123611
0.00129959
0.00128363
0.00135034
0.00133032
0.00140035
0.00137608
0.00144952
0.00142082
0.00149783
0.00146452
0.000723646
0.000729317
0.000730111
0.000738088
0.000744063
0.00075376
0.000764971
0.000775761
0.000792103
0.000803357
0.000824609
0.000835734
0.000861605
0.000872061
0.000902235
0.000911543
0.000945708
0.000953451
0.000991319
0.000997136
0.00103846
0.00104203
0.00108661
0.00108767
0.00113532
0.00113363
0.00118426
0.00117958
0.00123312
0.00122527
0.00128167
0.00127047
0.00132975
0.00131502
0.00137722
0.00135879
0.00142399
0.0014017
0.00147003
0.00144372
0.000750344
0.000755993
0.000756094
0.000763904
0.000768568
0.000778047
0.000787341
0.000797956
0.000811812
0.000823025
0.000841275
0.000852566
0.000874977
0.000885866
0.000912175
0.00092223
0.000952168
0.000961005
0.000994317
0.0010016
0.00103806
0.0010435
0.00108291
0.00108624
0.00112845
0.00112945
0.00117434
0.0011728
0.00122028
0.00121603
0.00126607
0.00125893
0.00131151
0.00130133
0.00135647
0.0013431
0.00140086
0.00138416
0.00144463
0.00142445
0.000776309
0.000781859
0.000781439
0.000789003
0.000792617
0.000801783
0.000809498
0.000819816
0.00083159
0.000842598
0.000858302
0.000869551
0.000888995
0.000900062
0.000923026
0.000933524
0.000959775
0.000969356
0.000998669
0.00100703
0.00103919
0.00104606
0.00108089
0.00108602
0.00112338
0.00112657
0.00116632
0.00116738
0.00120945
0.0012082
0.00125252
0.00124882
0.00129538
0.00128908
0.00133787
0.00132885
0.0013799
0.00136803
0.00142141
0.00140655
0.000801434
0.000806808
0.000806025
0.000813268
0.000816063
0.000824828
0.000831266
0.000841175
0.000851228
0.000861889
0.000875454
0.00088648
0.000903403
0.000914425
0.000934517
0.000945192
0.000968252
0.00097827
0.0010041
0.00101318
0.00104158
0.00104948
0.00108029
0.00108678
0.00111985
0.00112475
0.00115996
0.00116309
0.00120035
0.00120155
0.00124079
0.00123994
0.00128112
0.00127807
0.00132119
0.00131584
0.00136089
0.00135312
0.00140016
0.00138986
0.000825612
0.000830734
0.000829732
0.00083658
0.000838764
0.000847047
0.000852475
0.000861877
0.000870529
0.000880717
0.000892511
0.000903155
0.000917958
0.00092874
0.000946391
0.000957011
0.000977332
0.000987515
0.00101033
0.00101982
0.00104495
0.00105353
0.00108082
0.00108829
0.0011176
0.00112379
0.00115499
0.00115973
0.00119274
0.00119589
0.00123063
0.00123208
0.00126849
0.00126812
0.00130619
0.00130388
0.0013436
0.00133927
0.00138066
0.00137421
0.000848733
0.000853528
0.000852441
0.000858822
0.000860584
0.000868308
0.000872966
0.000881769
0.000889309
0.000898911
0.000909261
0.000919384
0.000932431
0.000942802
0.000958402
0.000968762
0.000986759
0.000996866
0.0010171
0.00102673
0.00104903
0.00105799
0.00108222
0.00109033
0.00111635
0.00112345
0.00115114
0.00115708
0.00118635
0.00119101
0.00122178
0.00122504
0.00125725
0.00125902
0.00129264
0.00129281
0.00132781
0.00132631
0.0013627
0.00135944
0.000870686
0.000875078
0.000874034
0.000879875
0.000881387
0.000888476
0.000892583
0.000900701
0.000907388
0.000916303
0.000925506
0.000934983
0.000946601
0.000956409
0.000970316
0.000980233
0.000996286
0.0010061
0.00102415
0.00103368
0.00105358
0.00106263
0.00108424
0.00109267
0.00111585
0.00112351
0.00114817
0.00115492
0.00118095
0.00118669
0.001214
0.00121863
0.00124716
0.00125058
0.0012803
0.00128243
0.00131329
0.00131406
0.00134606
0.00134539
0.000891354
0.000895264
0.000894386
0.000899613
0.000901036
0.000907416
0.000911172
0.000918523
0.000924594
0.000932725
0.000941052
0.000949769
0.000960259
0.000969368
0.000981906
0.00099122
0.00100567
0.00101501
0.00103125
0.00104045
0.00105832
0.00106723
0.00108662
0.00109509
0.00111586
0.00112377
0.00114581
0.00115305
0.00117627
0.00118273
0.00120705
0.00121264
0.00123799
0.00124263
0.00126895
0.00127257
0.00129982
0.00130235
0.00133052
0.0013319
0.000910615
0.000913963
0.000913367
0.000917905
0.000919393
0.000924987
0.000928578
0.000935081
0.000940754
0.000948011