/*--------------------------------*- C++ -*----------------------------------*\
| =========                 |                                                 |
| \\      /  F ield         | OpenFOAM: The Open Source CFD Toolbox           |
|  \\    /   O peration     | Version:  v2012                                 |
|   \\  /    A nd           | Website:  www.openfoam.com                      |
|    \\/     M anipulation  |                                                 |
\*---------------------------------------------------------------------------*/
FoamFile
{
    version     2.0;
    format      ascii;
    class       volScalarField;
    location    "9";
    object      sigmaEq;
}
// * * * * * * * * * * * * * * * * * * * * * * * * * * * * * * * * * * * * * //

dimensions      [1 -1 -2 0 0 0 0];


internalField   nonuniform List<scalar> 
8000
(
2.43e+08
2.43e+08
2.43e+08
2.43e+08
2.43e+08
2.43e+08
2.43e+08
2.43e+08
2.43e+08
2.43e+08
2.43e+08
2.43e+08
2.43e+08
2.43e+08
2.43e+08
2.43e+08
2.43e+08
2.43e+08
2.43e+08
2.43e+08
2.43e+08
2.43e+08
2.43e+08
2.43e+08
2.43e+08
2.43e+08
2.43e+08
2.43e+08
2.43e+08
2.43e+08
2.43e+08
2.30325e+08
2.27761e+08
2.14625e+08
2.1275e+08
2.02487e+08
2.01271e+08
1.92753e+08
1.92125e+08
1.8463e+08
2.43e+08
2.43e+08
2.43e+08
2.43e+08
2.43e+08
2.43e+08
2.43e+08
2.43e+08
2.43e+08
2.43e+08
2.43e+08
2.43e+08
2.43e+08
2.43e+08
2.43e+08
2.43e+08
2.43e+08
2.43e+08
2.43e+08
2.43e+08
2.43e+08
2.43e+08
2.43e+08
2.43e+08
2.43e+08
2.43e+08
2.43e+08
2.43e+08
2.43e+08
2.43e+08
2.4272e+08
2.28916e+08
2.28823e+08
2.16914e+08
2.16932e+08
2.06753e+08
2.06868e+08
1.98083e+08
1.98265e+08
1.90664e+08
2.43e+08
2.43e+08
2.43e+08
2.43e+08
2.43e+08
2.43e+08
2.43e+08
2.43e+08
2.43e+08
2.43e+08
2.43e+08
2.43e+08
2.43e+08
2.43e+08
2.43e+08
2.43e+08
2.43e+08
2.43e+08
2.43e+08
2.43e+08
2.43e+08
2.43e+08
2.43e+08
2.43e+08
2.43e+08
2.43e+08
2.43e+08
2.43e+08
2.43e+08
2.38994e+08
2.40472e+08
2.29396e+08
2.31084e+08
2.20749e+08
2.22335e+08
2.12788e+08
2.14298e+08
2.0552e+08
2.07004e+08
1.9889e+08
2.43e+08
2.43e+08
2.43e+08
2.43e+08
2.43e+08
2.43e+08
2.43e+08
2.43e+08
2.43e+08
2.43e+08
2.43e+08
2.43e+08
2.43e+08
2.43e+08
2.43e+08
2.43e+08
2.43e+08
2.43e+08
2.43e+08
2.43e+08
2.43e+08
2.43e+08
2.43e+08
2.43e+08
2.43e+08
2.43e+08
2.43e+08
2.43e+08
2.43e+08
2.37369e+08
2.4e+08
2.31253e+08
2.34044e+08
2.25022e+08
2.27796e+08
2.18832e+08
2.21563e+08
2.12833e+08
2.15513e+08
2.07091e+08
2.43e+08
2.43e+08
2.43e+08
2.43e+08
2.43e+08
2.43e+08
2.43e+08
2.43e+08
2.43e+08
2.43e+08
2.43e+08
2.43e+08
2.43e+08
2.43e+08
2.43e+08
2.43e+08
2.43e+08
2.43e+08
2.43e+08
2.43e+08
2.43e+08
2.43e+08
2.43e+08
2.43e+08
2.43e+08
2.43e+08
2.43e+08
2.40709e+08
2.43e+08
2.37048e+08
2.40531e+08
2.32835e+08
2.36551e+08
2.28198e+08
2.32006e+08
2.23374e+08
2.27183e+08
2.18509e+08
2.22262e+08
2.13685e+08
2.43e+08
2.43e+08
2.43e+08
2.43e+08
2.43e+08
2.43e+08
2.43e+08
2.43e+08
2.43e+08
2.43e+08
2.43e+08
2.43e+08
2.43e+08
2.43e+08
2.43e+08
2.43e+08
2.43e+08
2.43e+08
2.43e+08
2.43e+08
2.43e+08
2.43e+08
2.43e+08
2.41775e+08
2.43e+08
2.40255e+08
2.43e+08
2.38298e+08
2.4227e+08
2.35782e+08
2.40227e+08
2.3274e+08
2.3743e+08
2.29332e+08
2.3411e+08
2.25685e+08
2.30443e+08
2.21893e+08
2.26557e+08
2.18017e+08
2.43e+08
2.43e+08
2.43e+08
2.43e+08
2.43e+08
2.43e+08
2.43e+08
2.43e+08
2.43e+08
2.43e+08
2.43e+08
2.43e+08
2.43e+08
2.43e+08
2.43e+08
2.43e+08
2.43e+08
2.39978e+08
2.43e+08
2.385e+08
2.41568e+08
2.37572e+08
2.40987e+08
2.36785e+08
2.40863e+08
2.35814e+08
2.40465e+08
2.34532e+08
2.39641e+08
2.32872e+08
2.38268e+08
2.3085e+08
2.36384e+08
2.28519e+08
2.34069e+08
2.25934e+08
2.31406e+08
2.23148e+08
2.28471e+08
2.20201e+08
2.43e+08
2.43e+08
2.43e+08
2.43e+08
2.43e+08
2.43e+08
2.43e+08
2.43e+08
2.43e+08
2.43e+08
2.43e+08
2.38015e+08
2.4218e+08
2.34947e+08
2.38035e+08
2.33405e+08
2.36875e+08
2.3239e+08
2.36299e+08
2.31745e+08
2.36095e+08
2.31339e+08
2.36155e+08
2.30988e+08
2.36231e+08
2.30545e+08
2.36143e+08
2.29912e+08
2.35771e+08
2.29026e+08
2.35037e+08
2.27865e+08
2.33921e+08
2.26434e+08
2.32441e+08
2.24752e+08
2.30629e+08
2.22841e+08
2.28524e+08
2.20727e+08
2.43e+08
2.43e+08
2.43e+08
2.43e+08
2.43e+08
2.43e+08
2.43e+08
2.34961e+08
2.38332e+08
2.30475e+08
2.3345e+08
2.27794e+08
2.31389e+08
2.26026e+08
2.30154e+08
2.25059e+08
2.29674e+08
2.24631e+08
2.29663e+08
2.24555e+08
2.29953e+08
2.24678e+08
2.30397e+08
2.24861e+08
2.30844e+08
2.24988e+08
2.3117e+08
2.24973e+08
2.31279e+08
2.24758e+08
2.31108e+08
2.24308e+08
2.30623e+08
2.23611e+08
2.29817e+08
2.22667e+08
2.28696e+08
2.21483e+08
2.2728e+08
2.20074e+08
2.43e+08
2.43e+08
2.43e+08
2.36418e+08
2.38981e+08
2.28398e+08
2.30542e+08
2.23379e+08
2.26546e+08
2.19983e+08
2.23983e+08
2.17918e+08
2.22578e+08
2.1685e+08
2.22018e+08
2.16536e+08
2.22113e+08
2.16744e+08
2.22642e+08
2.17279e+08
2.23427e+08
2.17983e+08
2.2432e+08
2.1873e+08
2.25196e+08
2.19418e+08
2.25955e+08
2.19971e+08
2.26519e+08
2.20335e+08
2.26833e+08
2.20475e+08
2.26864e+08
2.20374e+08
2.26596e+08
2.20024e+08
2.26028e+08
2.19429e+08
2.25168e+08
2.18598e+08
2.43e+08
2.31794e+08
2.31645e+08
2.22839e+08
2.24533e+08
2.16169e+08
2.19317e+08
2.11738e+08
2.15992e+08
2.09087e+08
2.14157e+08
2.07812e+08
2.13476e+08
2.07547e+08
2.13633e+08
2.07997e+08
2.14379e+08
2.08917e+08
2.15498e+08
2.1011e+08
2.16814e+08
2.11424e+08
2.18188e+08
2.12737e+08
2.19509e+08
2.13959e+08
2.20691e+08
2.15025e+08
2.2167e+08
2.15887e+08
2.224e+08
2.16517e+08
2.22854e+08
2.16898e+08
2.23018e+08
2.17026e+08
2.22889e+08
2.16901e+08
2.22472e+08
2.16533e+08
2.2916e+08
2.17989e+08
2.18814e+08
2.08868e+08
2.11772e+08
2.02905e+08
2.0729e+08
1.99417e+08
2.04847e+08
1.97795e+08
2.03939e+08
1.97535e+08
2.04149e+08
1.98228e+08
2.05129e+08
1.99551e+08
2.06608e+08
2.01252e+08
2.08371e+08
2.0314e+08
2.10251e+08
2.05069e+08
2.1212e+08
2.06933e+08
2.1388e+08
2.08653e+08
2.15461e+08
2.10176e+08
2.16812e+08
2.11465e+08
2.17899e+08
2.12499e+08
2.18703e+08
2.1327e+08
2.19214e+08
2.13776e+08
2.19433e+08
2.14023e+08
2.19366e+08
2.14021e+08
2.144e+08
2.02065e+08
2.04074e+08
1.93701e+08
1.97827e+08
1.88898e+08
1.94479e+08
1.86695e+08
1.93233e+08
1.86348e+08
1.93474e+08
1.87279e+08
1.94729e+08
1.89043e+08
1.96631e+08
1.91307e+08
1.98906e+08
1.93823e+08
2.01347e+08
1.96411e+08
2.03802e+08
1.98942e+08
2.0616e+08
2.01325e+08
2.08341e+08
2.03498e+08
2.1029e+08
2.05421e+08
2.11971e+08
2.07071e+08
2.13362e+08
2.08437e+08
2.14452e+08
2.09518e+08
2.15242e+08
2.10321e+08
2.15737e+08
2.10857e+08
2.15946e+08
2.1114e+08
1.96468e+08
1.845e+08
1.87662e+08
1.77635e+08
1.82951e+08
1.74429e+08
1.81151e+08
1.73806e+08
1.81369e+08
1.7493e+08
1.82933e+08
1.77174e+08
1.85342e+08
1.80078e+08
1.88228e+08
1.83312e+08
1.91328e+08
1.86645e+08
1.94455e+08
1.89917e+08
1.97478e+08
1.93019e+08
2.00306e+08
1.95881e+08
2.02881e+08
1.98458e+08
2.05163e+08
2.00727e+08
2.07132e+08
2.02678e+08
2.08779e+08
2.04311e+08
2.10105e+08
2.05636e+08
2.11117e+08
2.06667e+08
2.11829e+08
2.07423e+08
2.12256e+08
2.07924e+08
1.76711e+08
1.65713e+08
1.70051e+08
1.60856e+08
1.67371e+08
1.59624e+08
1.67457e+08
1.60839e+08
1.69363e+08
1.63598e+08
1.72385e+08
1.67248e+08
1.76023e+08
1.71331e+08
1.79927e+08
1.75542e+08
1.83861e+08
1.79675e+08
1.87666e+08
1.83601e+08
1.91238e+08
1.87237e+08
1.94513e+08
1.90536e+08
1.97451e+08
1.93474e+08
2.00034e+08
1.96041e+08
2.02256e+08
1.98243e+08
2.0412e+08
2.00091e+08
2.05639e+08
2.01603e+08
2.06828e+08
2.02805e+08
2.0771e+08
2.03723e+08
2.08306e+08
2.04385e+08
1.55781e+08
1.46087e+08
1.51589e+08
1.43583e+08
1.51277e+08
1.44618e+08
1.53508e+08
1.47876e+08
1.57271e+08
1.52389e+08
1.61849e+08
1.57497e+08
1.66761e+08
1.6277e+08
1.71694e+08
1.67939e+08
1.76453e+08
1.72842e+08
1.80917e+08
1.77385e+08
1.85014e+08
1.81516e+08
1.8871e+08
1.85214e+08
1.91986e+08
1.88474e+08
1.94844e+08
1.91304e+08
1.9729e+08
1.93719e+08
1.99343e+08
1.95742e+08
2.01022e+08
1.97398e+08
2.02355e+08
1.98722e+08
2.03371e+08
1.99751e+08
2.041e+08
2.00527e+08
1.34158e+08
1.25979e+08
1.3262e+08
1.26076e+08
1.34902e+08
1.29598e+08
1.39456e+08
1.35037e+08
1.45179e+08
1.41363e+08
1.51355e+08
1.47932e+08
1.57545e+08
1.54365e+08
1.63491e+08
1.6045e+08
1.69046e+08
1.66074e+08
1.74138e+08
1.71186e+08
1.78732e+08
1.75771e+08
1.82821e+08
1.79832e+08
1.86414e+08
1.83386e+08
1.89527e+08
1.86454e+08
1.92183e+08
1.89062e+08
1.94407e+08
1.91238e+08
1.96229e+08
1.93012e+08
1.97683e+08
1.94422e+08
1.98807e+08
1.95517e+08
1.99642e+08
1.9636e+08
1.12222e+08
1.05708e+08
1.13473e+08
1.08624e+08
1.18523e+08
1.14803e+08
1.25504e+08
1.22492e+08
1.33219e+08
1.3062e+08
1.40975e+08
1.38596e+08
1.48398e+08
1.46116e+08
1.55299e+08
1.53038e+08
1.61597e+08
1.59311e+08
1.67268e+08
1.6493e+08
1.72317e+08
1.69916e+08
1.76769e+08
1.74301e+08
1.80656e+08
1.78123e+08
1.84012e+08
1.81416e+08
1.86871e+08
1.84216e+08
1.89267e+08
1.86551e+08
1.91235e+08
1.88448e+08
1.92809e+08
1.89934e+08
1.94035e+08
1.91058e+08
1.94968e+08
1.91915e+08
9.02843e+07
8.55737e+07
9.44825e+07
9.15516e+07
1.02457e+08
1.00526e+08
1.11911e+08
1.10462e+08
1.21573e+08
1.20306e+08
1.30819e+08
1.29568e+08
1.39373e+08
1.38049e+08
1.47132e+08
1.45694e+08
1.54084e+08
1.52512e+08
1.60257e+08
1.58548e+08
1.65699e+08
1.6386e+08
1.70464e+08
1.68508e+08
1.74609e+08
1.72554e+08
1.78187e+08
1.7605e+08
1.81247e+08
1.79045e+08
1.83831e+08
1.81573e+08
1.85975e+08
1.83652e+08
1.87713e+08
1.85279e+08
1.89084e+08
1.86439e+08
1.90162e+08
1.87204e+08
6.8613e+07
6.58829e+07
7.60217e+07
7.52721e+07
8.70945e+07
8.71418e+07
9.8994e+07
9.92249e+07
1.1047e+08
1.10606e+08
1.21042e+08
1.20966e+08
1.30566e+08
1.30234e+08
1.39039e+08
1.38443e+08
1.46516e+08
1.45667e+08
1.53077e+08
1.51993e+08
1.58808e+08
1.57511e+08
1.63791e+08
1.62308e+08
1.68108e+08
1.66466e+08
1.71833e+08
1.70063e+08
1.75035e+08
1.7317e+08
1.77779e+08
1.7585e+08
1.80121e+08
1.78149e+08
1.82108e+08
1.80062e+08
1.83789e+08
1.81414e+08
1.85282e+08
1.81456e+08
4.74617e+07
4.70588e+07
5.8616e+07
6.03953e+07
7.29592e+07
7.51437e+07
8.71528e+07
8.91219e+07
1.00194e+08
1.01755e+08
1.11847e+08
1.12957e+08
1.22127e+08
1.22797e+08
1.31129e+08
1.31391e+08
1.38973e+08
1.38862e+08
1.45775e+08
1.45328e+08
1.51644e+08
1.50895e+08
1.56676e+08
1.55656e+08
1.60954e+08
1.59688e+08
1.64545e+08
1.63058e+08
1.67499e+08
1.65815e+08
1.69847e+08
1.67998e+08
1.71584e+08
1.69637e+08
1.72637e+08
1.70778e+08
1.7275e+08
1.71596e+08
1.71117e+08
1.72881e+08
2.72002e+07
3.00695e+07
4.32442e+07
4.79656e+07
6.08163e+07
6.51892e+07
7.68872e+07
8.05522e+07
9.1083e+07
9.40183e+07
1.03487e+08
1.05749e+08
1.14274e+08
1.15935e+08
1.23627e+08
1.24759e+08
1.31715e+08
1.32384e+08
1.38687e+08
1.38954e+08
1.44673e+08
1.44593e+08
1.49786e+08
1.49409e+08
1.54121e+08
1.53498e+08
1.5776e+08
1.56942e+08
1.60772e+08
1.59822e+08
1.63221e+08
1.62217e+08
1.6517e+08
1.64225e+08
1.6672e+08
1.65979e+08
1.68135e+08
1.67664e+08
1.70336e+08
1.69346e+08
9.99637e+06
1.87062e+07
3.21496e+07
3.97754e+07
5.17721e+07
5.8074e+07
6.87663e+07
7.39124e+07
8.34623e+07
8.76174e+07
9.61681e+07
9.94749e+07
1.0715e+08
1.0973e+08
1.16635e+08
1.18592e+08
1.24818e+08
1.26241e+08
1.31864e+08
1.32832e+08
1.37916e+08
1.38498e+08
1.43098e+08
1.43356e+08
1.47517e+08
1.47512e+08
1.51269e+08
1.5106e+08
1.54448e+08
1.5409e+08
1.57145e+08
1.56692e+08
1.5947e+08
1.58954e+08
1.61558e+08
1.60955e+08
1.63564e+08
1.62737e+08
1.65418e+08
1.6429e+08
1.58081e+07
2.19213e+07
2.93996e+07
3.7916e+07
4.71503e+07
5.45449e+07
6.33695e+07
6.9545e+07
7.76375e+07
8.27352e+07
9.00723e+07
9.42417e+07
1.00871e+08
1.04244e+08
1.10229e+08
1.1292e+08
1.18326e+08
1.20433e+08
1.2532e+08
1.26928e+08
1.31352e+08
1.32536e+08
1.36545e+08
1.37371e+08
1.4101e+08
1.41536e+08
1.44847e+08
1.45123e+08
1.48151e+08
1.48217e+08
1.51012e+08
1.50893e+08
1.53515e+08
1.53214e+08
1.55728e+08
1.55224e+08
1.57676e+08
1.5695e+08
1.59369e+08
1.58406e+08
3.31592e+07
3.48976e+07
3.59407e+07
4.2497e+07
4.76779e+07
5.48634e+07
6.10922e+07
6.76251e+07
7.38375e+07
7.94824e+07
8.53416e+07
9.01183e+07
9.55266e+07
9.95164e+07
1.04462e+08
1.07758e+08
1.12263e+08
1.14952e+08
1.19051e+08
1.21213e+08
1.24944e+08
1.26651e+08
1.30052e+08
1.31365e+08
1.34477e+08
1.35449e+08
1.38309e+08
1.38983e+08
1.41631e+08
1.4204e+08
1.44517e+08
1.4468e+08
1.47024e+08
1.46956e+08
1.49198e+08
1.48904e+08
1.51068e+08
1.50557e+08
1.52658e+08
1.51936e+08
5.05445e+07
4.97938e+07
4.733e+07
5.11968e+07
5.26385e+07
5.85231e+07
6.19074e+07
6.8062e+07
7.21416e+07
7.78637e+07
8.20549e+07
8.71269e+07
9.11778e+07
9.55664e+07
9.9375e+07
1.03114e+08
1.06648e+08
1.09795e+08
1.13053e+08
1.15669e+08
1.18667e+08
1.20812e+08
1.23573e+08
1.253e+08
1.27852e+08
1.29207e+08
1.31577e+08
1.326e+08
1.34817e+08
1.35539e+08
1.37629e+08
1.38076e+08
1.40062e+08
1.40256e+08
1.42157e+08
1.42115e+08
1.43946e+08
1.43685e+08
1.45455e+08
1.44993e+08
6.72254e+07
6.46549e+07
6.02555e+07
6.17551e+07
6.04374e+07
6.45321e+07
6.53182e+07
7.05011e+07
7.24306e+07
7.7762e+07
8.0207e+07
8.52347e+07
8.78481e+07
9.23893e+07
9.49922e+07
9.89933e+07
1.01499e+08
1.04965e+08
1.07336e+08
1.10297e+08
1.12522e+08
1.15019e+08
1.17102e+08
1.19175e+08
1.21128e+08
1.22816e+08
1.24654e+08
1.25992e+08
1.27731e+08
1.2875e+08
1.30406e+08
1.31135e+08
1.32721e+08
1.33184e+08
1.34712e+08
1.34931e+08
1.36411e+08
1.36408e+08
1.37846e+08
1.37641e+08
8.30387e+07
7.89537e+07
7.33678e+07
7.28866e+07
6.96638e+07
7.19058e+07
7.05792e+07
7.44367e+07
7.44042e+07
7.89542e+07
7.96994e+07
8.43522e+07
8.55193e+07
8.99546e+07
9.13247e+07
9.53891e+07
9.68351e+07
1.00468e+08
1.0192e+08
1.05108e+08
1.0653e+08
1.09286e+08
1.10661e+08
1.13009e+08
1.14334e+08
1.16301e+08
1.17577e+08
1.19192e+08
1.20424e+08
1.21716e+08
1.22911e+08
1.23906e+08
1.25071e+08
1.25794e+08
1.26934e+08
1.27408e+08
1.28529e+08
1.28776e+08
1.2988e+08
1.29922e+08
9.79021e+07
9.2478e+07
8.61087e+07
8.39344e+07
7.94028e+07
7.98995e+07
7.69623e+07
7.93481e+07
7.76585e+07
8.11531e+07
8.03514e+07
8.43414e+07
8.41284e+07
8.82054e+07
8.83647e+07
9.22863e+07
9.26736e+07
9.6309e+07
9.68324e+07
1.00119e+08
1.00722e+08
1.03639e+08
1.04288e+08
1.06834e+08
1.07511e+08
1.09698e+08
1.10394e+08
1.12241e+08
1.1295e+08
1.1448e+08
1.15201e+08
1.16435e+08
1.17168e+08
1.1813e+08
1.18875e+08
1.19586e+08
1.20346e+08
1.20827e+08
1.216e+08
1.21872e+08
1.11754e+08
1.05111e+08
9.82058e+07
9.45451e+07
8.91095e+07
8.8008e+07
8.38869e+07
8.47839e+07
8.17749e+07
8.40547e+07
8.19292e+07
8.50321e+07
8.35715e+07
8.70614e+07
8.60836e+07
8.9658e+07
8.90249e+07
9.24917e+07
9.21046e+07
9.53503e+07
9.51416e+07
9.81053e+07
9.80295e+07
1.00683e+08
1.0071e+08
1.03047e+08
1.03157e+08
1.0518e+08
1.05361e+08
1.07084e+08
1.07326e+08
1.08764e+08
1.09062e+08
1.10233e+08
1.10583e+08
1.11505e+08
1.11905e+08
1.12597e+08
1.13044e+08
1.13525e+08
1.2454e+08
1.16771e+08
1.09502e+08
1.04509e+08
9.84545e+07
9.58968e+07
9.09311e+07
9.03878e+07
8.63795e+07
8.73748e+07
8.41804e+07
8.62408e+07
8.37145e+07
8.64249e+07
8.44314e+07
8.74659e+07
8.58906e+07
8.90143e+07
8.77663e+07
9.08215e+07
8.98319e+07
9.27188e+07
9.1937e+07
9.4597e+07
9.39859e+07
9.63883e+07
9.59212e+07
9.80532e+07
9.77108e+07
9.95716e+07
9.93395e+07
1.00935e+08
1.00803e+08
1.02145e+08
1.02105e+08
1.03206e+08
1.0325e+08
1.04126e+08
1.0425e+08
1.04915e+08
1.36209e+08
1.27396e+08
1.19893e+08
1.13691e+08
1.07228e+08
1.03341e+08
9.77984e+07
9.58911e+07
9.11661e+07
9.08675e+07
8.68624e+07
8.7787e+07
8.44062e+07
8.61881e+07
8.33397e+07
8.56617e+07
8.32615e+07
8.58706e+07
8.38454e+07
8.65529e+07
8.4842e+07
8.7515e+07
8.60697e+07
8.86194e+07
8.74014e+07
8.97719e+07
8.87511e+07
9.09099e+07
9.00631e+07
9.19938e+07
9.13025e+07
9.29996e+07
9.24494e+07
9.39148e+07
9.34941e+07
9.4734e+07
9.44334e+07
9.54572e+07
9.52688e+07
9.60875e+07
1.46713e+08
1.36932e+08
1.29303e+08
1.21996e+08
1.15291e+08
1.10185e+08
1.04281e+08
1.01095e+08
9.58957e+07
9.43306e+07
8.97592e+07
8.95041e+07
8.54923e+07
8.62395e+07
8.27258e+07
8.41894e+07
8.11169e+07
8.30491e+07
8.03657e+07
8.25645e+07
8.02237e+07
8.25336e+07
8.0495e+07
8.28019e+07
8.10311e+07
8.32551e+07
8.17232e+07
8.38108e+07
8.24935e+07
8.44111e+07
8.32882e+07
8.50165e+07
8.40712e+07
8.56008e+07
8.48191e+07
8.61477e+07
8.55179e+07
8.66476e+07
8.616e+07
8.70963e+07
1.56007e+08
1.45333e+08
1.37673e+08
1.29355e+08
1.22543e+08
1.1632e+08
1.1023e+08
1.05851e+08
1.00386e+08
9.76014e+07
9.26877e+07
9.12438e+07
8.68241e+07
8.64686e+07
8.2497e+07
8.29859e+07
7.94236e+07
8.05316e+07
7.73443e+07
7.88745e+07
7.60309e+07
7.78188e+07
7.52903e+07
7.72055e+07
7.49656e+07
7.69087e+07
7.49334e+07
7.68315e+07
7.50992e+07
7.69013e+07
7.53925e+07
7.70642e+07
7.57616e+07
7.72809e+07
7.61696e+07
7.75236e+07
7.65905e+07
7.77728e+07
7.70072e+07
7.80158e+07
1.64047e+08
1.52561e+08
1.44955e+08
1.35717e+08
1.28916e+08
1.21668e+08
1.15542e+08
1.10051e+08
1.04499e+08
1.00548e+08
9.5495e+07
9.28737e+07
8.82623e+07
8.67658e+07
8.25531e+07
8.19802e+07
7.81346e+07
7.8292e+07
7.47891e+07
7.54983e+07
7.23179e+07
7.34199e+07
7.05442e+07
7.19038e+07
6.9316e+07
7.08223e+07
6.85059e+07
7.00716e+07
6.80102e+07
6.95689e+07
6.77466e+07
6.92493e+07
6.76505e+07
6.90622e+07
6.76723e+07
6.89689e+07
6.77747e+07
6.89396e+07
6.79301e+07
6.89521e+07
1.7079e+08
1.58585e+08
1.51118e+08
1.41051e+08
1.34363e+08
1.26172e+08
1.20138e+08
1.13602e+08
1.08123e+08
1.0305e+08
9.80462e+07
9.42657e+07
8.96725e+07
8.70178e+07
8.27866e+07
8.10932e+07
7.71895e+07
7.62962e+07
7.26963e+07
7.24492e+07
6.91372e+07
6.93933e+07
6.63577e+07
6.69885e+07
6.422e+07
6.51138e+07
6.26034e+07
6.36662e+07
6.14044e+07
6.25599e+07
6.0536e+07
6.17239e+07
5.99261e+07
6.11002e+07
5.95154e+07
6.06412e+07
5.92563e+07
6.03071e+07
5.91108e+07
6.00651e+07
1.76199e+08
1.63392e+08
1.56147e+08
1.45342e+08
1.38854e+08
1.29773e+08
1.23949e+08
1.16387e+08
1.11141e+08
1.04967e+08
1.00202e+08
9.52816e+07
9.09182e+07
8.71082e+07
8.30856e+07
8.02444e+07
7.652e+07
7.45103e+07
7.10552e+07
6.97461e+07
6.6542e+07
6.58105e+07
6.28463e+07
6.25788e+07
5.98479e+07
5.99416e+07
5.74399e+07
5.7804e+07
5.55276e+07
5.6084e+07
5.40279e+07
5.47118e+07
5.28685e+07
5.36277e+07
5.19863e+07
5.278e+07
5.13263e+07
5.21221e+07
5.08402e+07
5.16089e+07
1.80252e+08
1.67022e+08
1.60065e+08
1.48563e+08
1.42353e+08
1.32247e+08
1.26822e+08
1.18183e+08
1.1338e+08
1.06121e+08
1.01808e+08
9.57873e+07
9.18701e+07
8.69411e+07
8.33532e+07
7.9378e+07
7.6071e+07
7.29243e+07
6.98641e+07
6.74313e+07
6.45947e+07
6.2771e+07
6.01432e+07
5.88322e+07
5.64047e+07
5.55183e+07
5.32869e+07
5.27456e+07
5.07085e+07
5.04413e+07
4.8597e+07
4.8543e+07
4.68881e+07
4.69967e+07
4.55229e+07
4.57548e+07
4.4445e+07
4.47724e+07
4.35962e+07
4.39973e+07
1.83047e+08
1.69707e+08
1.62969e+08
1.49835e+08
1.44423e+08
1.3306e+08
1.28407e+08
1.18727e+08
1.1463e+08
1.06391e+08
1.02743e+08
9.57314e+07
9.24603e+07
8.65038e+07
8.35537e+07
7.85102e+07
7.58371e+07
7.15866e+07
6.91559e+07
6.55947e+07
6.338e+07
6.04169e+07
5.83989e+07
5.59524e+07
5.41181e+07
5.21147e+07
5.04564e+07
4.88297e+07
4.7344e+07
4.60344e+07
4.47207e+07
4.3676e+07
4.25344e+07
4.17112e+07
4.07387e+07
4.01057e+07
3.92886e+07
3.88309e+07
3.81261e+07
3.78542e+07
1.85925e+08
1.66226e+08
1.6266e+08
1.47832e+08
1.44142e+08
1.31964e+08
1.28449e+08
1.18089e+08
1.14885e+08
1.05931e+08
1.03081e+08
9.52764e+07
9.27778e+07
8.59459e+07
8.37741e+07
7.77795e+07
7.59027e+07
7.0636e+07
6.90221e+07
6.43917e+07
6.30116e+07
5.89383e+07
5.77677e+07
5.41817e+07
5.3202e+07
5.00402e+07
4.92392e+07
4.64431e+07
4.58151e+07
4.33297e+07
4.28765e+07
4.06483e+07
4.038e+07
3.83573e+07
3.82931e+07
3.64292e+07
3.65965e+07
3.48633e+07
3.52902e+07
3.37223e+07
3.57973e+07
3.11689e+07
3.83313e+07
3.38914e+07
4.43379e+07
3.93922e+07
5.21484e+07
4.65357e+07
6.09282e+07
5.4569e+07
7.02021e+07
6.30503e+07
7.96878e+07
7.17201e+07
8.92093e+07
8.04199e+07
9.86497e+07
8.90477e+07
1.07927e+08
9.75352e+07
1.16982e+08
1.05835e+08
1.25766e+08
1.13915e+08
1.34242e+08
1.21751e+08
1.42374e+08
1.29328e+08
1.50128e+08
1.36636e+08
1.57465e+08
1.43668e+08
1.64331e+08
1.5042e+08
1.70643e+08
1.56892e+08
1.76245e+08
1.63084e+08
1.80759e+08
1.68991e+08
3.28754e+07
2.97413e+07
3.6037e+07
3.27879e+07
4.21424e+07
3.84223e+07
4.99703e+07
4.56029e+07
5.87158e+07
5.36086e+07
6.79177e+07
6.2017e+07
7.73071e+07
7.05814e+07
8.67177e+07
7.91505e+07
9.60399e+07
8.76266e+07
1.05197e+08
9.59436e+07
1.14133e+08
1.04055e+08
1.22804e+08
1.11928e+08
1.31175e+08
1.19539e+08
1.39216e+08
1.2687e+08
1.46897e+08
1.33907e+08
1.54189e+08
1.4064e+08
1.61049e+08
1.47055e+08
1.67417e+08
1.53131e+08
1.73179e+08
1.58825e+08
1.78074e+08
1.64017e+08
3.15008e+07
2.93772e+07
3.48127e+07
3.25235e+07
4.07821e+07
3.80681e+07
4.83935e+07
4.50751e+07
5.68999e+07
5.28749e+07
6.58568e+07
6.10648e+07
7.50026e+07
6.94058e+07
8.41755e+07
7.77497e+07
9.32691e+07
8.6e+07
1.02209e+08
9.40908e+07
1.10942e+08
1.01976e+08
1.19427e+08
1.09622e+08
1.27631e+08
1.17005e+08
1.35526e+08
1.24107e+08
1.4309e+08
1.30914e+08
1.50296e+08
1.37415e+08
1.57114e+08
1.43598e+08
1.635e+08
1.49445e+08
1.6938e+08
1.54921e+08
1.74589e+08
1.59948e+08
3.12391e+07
2.98253e+07
3.44324e+07
3.28989e+07
4.00955e+07
3.81968e+07
4.73343e+07
4.48901e+07
5.54645e+07
5.23657e+07
6.406e+07
6.024e+07
7.28635e+07
6.82787e+07
8.1714e+07
7.63341e+07
9.05053e+07
8.43086e+07
9.91636e+07
9.21353e+07
1.07636e+08
9.97668e+07
1.15881e+08
1.07169e+08
1.2387e+08
1.14317e+08
1.31577e+08
1.21193e+08
1.3898e+08
1.27783e+08
1.4606e+08
1.34077e+08
1.52792e+08
1.40063e+08
1.59147e+08
1.45729e+08
1.65074e+08
1.51052e+08
1.70474e+08
1.55984e+08
3.1781e+07
3.08721e+07
3.47169e+07
3.37649e+07
3.99628e+07
3.87179e+07
4.67311e+07
4.50102e+07
5.43977e+07
5.20859e+07
6.25561e+07
5.9581e+07
7.09524e+07
6.72651e+07
7.94243e+07
7.49895e+07
8.7864e+07
8.26545e+07
9.61966e+07
9.01911e+07
1.04368e+08
9.755e+07
1.12339e+08
1.04696e+08
1.20078e+08
1.11603e+08
1.27562e+08
1.18252e+08
1.34771e+08
1.2463e+08
1.41689e+08
1.30726e+08
1.48297e+08
1.36531e+08
1.54574e+08
1.42035e+08
1.60487e+08
1.47223e+08
1.65973e+08
1.52066e+08
3.28963e+07
3.23492e+07
3.55192e+07
3.50071e+07
4.02916e+07
3.95645e+07
4.65349e+07
4.54077e+07
5.36866e+07
5.20388e+07
6.13614e+07
5.91151e+07
6.93093e+07
6.64109e+07
7.73666e+07
7.37762e+07
8.54227e+07
8.11091e+07
9.34008e+07
8.8338e+07
1.01245e+08
9.54114e+07
1.08915e+08
1.02292e+08
1.16381e+08
1.08953e+08
1.23618e+08
1.15374e+08
1.30608e+08
1.21542e+08
1.37337e+08
1.27445e+08
1.4379e+08
1.33076e+08
1.49951e+08
1.38426e+08
1.55798e+08
1.43486e+08
1.61292e+08
1.48237e+08
3.44154e+07
3.41302e+07
3.67197e+07
3.65361e+07
4.10048e+07
4.06826e+07
4.67027e+07
4.60578e+07
5.33149e+07
5.22227e+07
6.04809e+07
5.88583e+07
6.79565e+07
6.57455e+07
7.55773e+07
7.27343e+07
8.32301e+07
7.97207e+07
9.08356e+07
8.66303e+07
9.83363e+07
9.34098e+07
1.0569e+08
1.0002e+08
1.12865e+08
1.06431e+08
1.19838e+08
1.12624e+08
1.26592e+08
1.18582e+08
1.33111e+08
1.24295e+08
1.39385e+08
1.29755e+08
1.45401e+08
1.34956e+08
1.51145e+08
1.3989e+08
1.56591e+08
1.44546e+08
3.62159e+07
3.61231e+07
3.8222e+07
3.82817e+07
4.20355e+07
4.20257e+07
4.7193e+07
4.69354e+07
5.32617e+07
5.26297e+07
5.99099e+07
5.88163e+07
6.69024e+07
6.52853e+07
7.40754e+07
7.18882e+07
8.13141e+07
7.85196e+07
8.85367e+07
8.51032e+07
9.56836e+07
9.15834e+07
1.02711e+08
9.79188e+07
1.09586e+08
1.04079e+08
1.16285e+08
1.10042e+08
1.22789e+08
1.15792e+08
1.29085e+08
1.21316e+08
1.35163e+08
1.26608e+08
1.41013e+08
1.31662e+08
1.46624e+08
1.36471e+08
1.51982e+08
1.41029e+08
3.82106e+07
3.82613e+07
3.99497e+07
4.01889e+07
4.33248e+07
4.35532e+07
4.79649e+07
4.80143e+07
5.35018e+07
5.32467e+07
5.96359e+07
5.89866e+07
6.61443e+07
6.50359e+07
7.28666e+07
7.12498e+07
7.96873e+07
7.75228e+07
8.65226e+07
8.37772e+07
9.33111e+07
8.99554e+07
1.00007e+08
9.60146e+07
1.06576e+08
1.01923e+08
1.12994e+08
1.07656e+08
1.19242e+08
1.13197e+08
1.25305e+08
1.18535e+08
1.31175e+08
1.2366e+08
1.36844e+08
1.28567e+08
1.42303e+08
1.33252e+08
1.47543e+08
1.3771e+08
4.03372e+07
4.04966e+07
4.18433e+07
4.22143e+07
4.48213e+07
4.52289e+07
4.89785e+07
4.92677e+07
5.40065e+07
5.40561e+07
5.96401e+07
5.93598e+07
6.56719e+07
6.49948e+07
7.1947e+07
7.0822e+07
7.8351e+07
7.67371e+07
8.47991e+07
8.2662e+07
9.12283e+07
8.85378e+07
9.75914e+07
9.43202e+07
1.03853e+08
9.99758e+07
1.09987e+08
1.0548e+08
1.15973e+08
1.10813e+08
1.21799e+08
1.15964e+08
1.27453e+08
1.20923e+08
1.32929e+08
1.25684e+08
1.38222e+08
1.30243e+08
1.43325e+08
1.34599e+08
4.25505e+07
4.27931e+07
4.38561e+07
4.43233e+07
4.64807e+07
4.70211e+07
5.01954e+07
5.0669e+07
5.47453e+07
5.50376e+07
5.98994e+07
5.99217e+07
6.54684e+07
6.51532e+07
7.13053e+07
7.06003e+07
7.72984e+07
7.61615e+07
8.3363e+07
8.17591e+07
8.94352e+07
8.73339e+07
9.54667e+07
9.28403e+07
1.01421e+08
9.82439e+07
1.0727e+08
1.03518e+08
1.12994e+08
1.08645e+08
1.18578e+08
1.13609e+08
1.24012e+08
1.18401e+08
1.2929e+08
1.23016e+08
1.34405e+08
1.27449e+08
1.39356e+08
1.31699e+08
4.48174e+07
4.51243e+07
4.59516e+07
4.64883e+07
4.82653e+07
4.89021e+07
5.15798e+07
5.21924e+07
5.56868e+07
5.61692e+07
6.03878e+07
6.06548e+07
6.55129e+07
6.54976e+07
7.09249e+07
7.05747e+07
7.65165e+07
7.57889e+07
8.22043e+07
8.10639e+07
8.79244e+07
8.63406e+07
9.36276e+07
9.1573e+07
9.92762e+07
9.67256e+07
1.04842e+08
1.01772e+08
1.10303e+08
1.06691e+08
1.15645e+08
1.11468e+08
1.20856e+08
1.16093e+08
1.2593e+08
1.2056e+08
1.30863e+08
1.24864e+08
1.35651e+08
1.29005e+08
4.71128e+07
4.74693e+07
4.8101e+07
4.86868e+07
5.01429e+07
5.08476e+07
5.3099e+07
5.38137e+07
5.68001e+07
5.74284e+07
6.10778e+07
6.15392e+07
6.57815e+07
6.60114e+07
7.07855e+07
7.07317e+07
7.5988e+07
7.56081e+07
8.13084e+07
8.0567e+07
8.66833e+07
8.55501e+07
9.20633e+07
9.05114e+07
9.74102e+07
9.5415e+07
1.02695e+08
1.00233e+08
1.07895e+08
1.04945e+08
1.12994e+08
1.09535e+08
1.17982e+08
1.13992e+08
1.2285e+08
1.18309e+08
1.27594e+08
1.22483e+08
1.32213e+08
1.2651e+08
4.94174e+07
4.98116e+07
5.02812e+07
5.09002e+07
5.20862e+07
5.28363e+07
5.47234e+07
5.55102e+07
5.80558e+07
5.87927e+07
6.19415e+07
6.25542e+07
6.6249e+07
6.66757e+07
7.08644e+07
7.10545e+07
7.56927e+07
7.56046e+07
8.0657e+07
8.02557e+07
8.56954e+07
8.49511e+07
9.0759e+07
8.96453e+07
9.58093e+07
9.43025e+07
1.00817e+08
9.88945e+07
1.05758e+08
1.034e+08
1.10616e+08
1.07802e+08
1.1538e+08
1.12089e+08
1.2004e+08
1.16255e+08
1.24594e+08
1.20293e+08
1.29038e+08
1.24203e+08
5.17154e+07
5.21375e+07
5.24732e+07
5.31126e+07
5.4072e+07
5.48498e+07
5.64266e+07
5.72612e+07
5.9426e+07
6.02407e+07
6.29515e+07
6.36785e+07
6.68893e+07
6.74707e+07
7.11373e+07
7.15248e+07
7.56084e+07
7.57616e+07
8.02297e+07
8.01147e+07
8.4942e+07
8.45295e+07
8.96972e+07
8.89617e+07
9.4457e+07
9.33758e+07
9.91914e+07
9.77433e+07
1.03877e+08
1.02042e+08
1.08496e+08
1.06257e+08
1.13037e+08
1.10373e+08
1.1749e+08
1.14384e+08
1.2185e+08
1.18285e+08
1.26115e+08
1.22073e+08
5.39939e+07
5.44354e+07
5.46609e+07
5.53104e+07
5.60804e+07
5.68713e+07
5.81851e+07
5.90475e+07
6.08851e+07
6.17517e+07
6.40816e+07
6.48912e+07
6.76764e+07
6.83759e+07
7.15795e+07
7.21233e+07
7.57115e+07
7.60609e+07
8.00045e+07
8.0127e+07
8.44022e+07
8.42695e+07
8.88581e+07
8.84457e+07
9.33347e+07
9.26207e+07
9.78018e+07
9.67664e+07
1.02236e+08
1.00861e+08
1.06619e+08
1.04886e+08
1.10938e+08
1.08831e+08
1.15183e+08
1.12686e+08
1.1935e+08
1.16445e+08
1.23434e+08
1.20105e+08
5.62416e+07
5.66948e+07
5.68308e+07
5.74815e+07
5.8094e+07
5.88861e+07
5.99779e+07
6.08517e+07
6.24095e+07
6.33064e+07
6.53065e+07
6.61721e+07
6.85852e+07
6.93709e+07
7.21662e+07
7.28299e+07
7.5978e+07
7.64834e+07
7.99584e+07
8.02743e+07
8.40542e+07
8.41538e+07
8.82211e+07
8.80809e+07
9.24224e+07
9.20217e+07
9.66286e+07
9.59486e+07
1.00816e+08
9.98396e+07
1.04966e+08
1.03677e+08
1.09066e+08
1.07449e+08
1.13105e+08
1.11145e+08
1.17077e+08
1.14759e+08
1.20978e+08
1.18288e+08
5.84483e+07
5.89063e+07
5.89705e+07
5.96148e+07
6.00974e+07
6.08806e+07
6.17861e+07
6.26576e+07
6.39776e+07
6.48865e+07
6.6603e+07
6.75016e+07
6.95912e+07
7.04357e+07
7.28728e+07
7.36247e+07
7.63841e+07
7.70095e+07
8.00681e+07
8.05379e+07
8.38755e+07
8.41643e+07
8.77643e+07
8.78499e+07
9.16993e+07
9.15621e+07
9.56516e+07
9.52742e+07
9.95979e+07
9.89642e+07
1.0352e+08
1.02615e+08
1.07403e+08
1.06213e+08
1.11237e+08
1.09748e+08
1.15015e+08
1.13215e+08
1.18733e+08
1.16608e+08
6.06047e+07
6.1061e+07
6.10691e+07
6.16999e+07
6.20766e+07
6.28423e+07
6.35929e+07
6.44503e+07
6.55694e+07
6.64751e+07
6.79491e+07
6.88611e+07
7.06712e+07
7.15507e+07
7.36757e+07
7.44878e+07
7.69059e+07
7.76196e+07
8.03102e+07
8.08985e+07
8.38433e+07
8.42824e+07
8.74657e+07
8.77348e+07
9.11439e+07
9.12248e+07
9.48502e+07
9.47263e+07
9.85614e+07
9.82182e+07
1.02259e+08
1.01683e+08
1.05929e+08
1.05108e+08
1.09561e+08
1.08482e+08
1.13147e+08
1.11798e+08
1.16681e+08
1.15052e+08
6.27019e+07
6.31502e+07
6.31162e+07
6.37272e+07
6.40191e+07
6.47594e+07
6.53826e+07
6.62159e+07
6.71669e+07
6.8056e+07
6.93244e+07
7.02329e+07
7.18035e+07
7.26973e+07
7.45521e+07
7.54e+07
7.75203e+07
7.82942e+07
8.06617e+07
8.13367e+07
8.39348e+07
8.44891e+07
8.73029e+07
8.77172e+07
9.07346e+07
9.09918e+07
9.42031e+07
9.42881e+07
9.76861e+07
9.75853e+07
1.01165e+08
1.00866e+08
1.04627e+08
1.04118e+08
1.08059e+08
1.0733e+08
1.11454e+08
1.10494e+08
1.14806e+08
1.13606e+08
6.47312e+07
6.51653e+07
6.5102e+07
6.5687e+07
6.59127e+07
6.66207e+07
6.71407e+07
6.7941e+07
6.8753e+07
6.96141e+07
7.07098e+07
7.16003e+07
7.29672e+07
7.38574e+07
7.54802e+07
7.63425e+07
7.8205e+07
7.90141e+07
8.11e+07
8.18336e+07
8.41276e+07
8.47656e+07
8.7254e+07
8.77786e+07
9.04497e+07
9.08453e+07
9.36892e+07
9.39419e+07
9.69513e+07
9.70486e+07
1.00218e+08
1.00149e+08
1.03475e+08
1.03229e+08
1.06711e+08
1.06279e+08
1.09918e+08
1.09291e+08
1.1309e+08
1.12258e+08
6.6684e+07
6.70978e+07
6.70168e+07
6.75699e+07
6.77463e+07
6.84154e+07
6.88538e+07
6.96131e+07
7.0312e+07
7.11349e+07
7.20874e+07
7.29471e+07
7.41428e+07
7.50136e+07
7.64393e+07
7.7297e+07
7.89384e+07
7.97608e+07
8.16032e+07
8.23702e+07
8.43997e+07
8.50931e+07
8.72969e+07
8.79007e+07
9.02675e+07
9.07673e+07
9.32874e+07
9.36705e+07
9.63363e+07
9.65914e+07
9.9397e+07
9.95139e+07
1.02455e+08
1.02425e+08
1.055e+08
1.05314e+08
1.08522e+08
1.08172e+08
1.11515e+08
1.10994e+08
6.85515e+07
6.89388e+07
6.8851e+07
6.93664e+07
6.95087e+07
7.01326e+07
7.05088e+07
7.12198e+07
7.18288e+07
7.26044e+07
7.34403e+07
7.4258e+07
7.53117e+07
7.61494e+07
7.74094e+07
7.82461e+07
7.96998e+07
8.05161e+07
8.21501e+07
8.29281e+07
8.47296e+07
8.54533e+07