/*--------------------------------*- C++ -*----------------------------------*\
| =========                 |                                                 |
| \\      /  F ield         | OpenFOAM: The Open Source CFD Toolbox           |
|  \\    /   O peration     | Version:  v2012                                 |
|   \\  /    A nd           | Website:  www.openfoam.com                      |
|    \\/     M anipulation  |                                                 |
\*---------------------------------------------------------------------------*/
FoamFile
{
    version     2.0;
    format      ascii;
    class       volSymmTensorField;
    location    "1";
    object      sigma;
}
// * * * * * * * * * * * * * * * * * * * * * * * * * * * * * * * * * * * * * //

dimensions      [1 -1 -2 0 0 0 0];


internalField   nonuniform List<symmTensor> 
5880
(
(-5.52147e+06 -1.23736e+06 91476.6 -1.45902e+06 110666 -1.3342e+06)
(-6.62456e+06 -1.44901e+06 412651 -1.9753e+06 34992.3 -1.95671e+06)
(-5.94757e+06 -1.50269e+06 295786 -1.81965e+06 60134.2 -1.70862e+06)
(-6.27815e+06 -1.47665e+06 547830 -1.94346e+06 -20482.3 -1.80499e+06)
(-6.86603e+06 -1.41308e+06 923927 -1.79573e+06 -37550.2 -1.61646e+06)
(-6.22838e+06 -1.27642e+06 603308 -1.57409e+06 -42275.1 -1.45875e+06)
(-4.41343e+06 -1.23333e+06 4545.35 -1.01761e+06 32434.8 -976505)
(-5.07452e+06 -1.32096e+06 257237 -1.33991e+06 7160.64 -1.28126e+06)
(-4.94621e+06 -1.19727e+06 118322 -1.13423e+06 10893.5 -1.01689e+06)
(-4.6455e+06 -1.18351e+06 327879 -1.02946e+06 -53339.1 -887421)
(-5.0006e+06 -1.15208e+06 464892 -1.00671e+06 -106052 -568625)
(-5.0953e+06 -1.2423e+06 483682 -1.27141e+06 -50370.8 -1.09891e+06)
(-3.2716e+06 -1.24906e+06 9286.06 -753798 32066 -743667)
(-2.93788e+06 -1.23271e+06 194476 -831517 12565.8 -850559)
(-3.32602e+06 -1.2897e+06 195057 -867740 54665.9 -919402)
(-3.52552e+06 -1.16203e+06 331170 -847497 -21828.8 -813996)
(-2.93864e+06 -1.07541e+06 418580 -750275 31013.5 -728214)
(-3.51892e+06 -1.17583e+06 419202 -951742 -21509.1 -963729)
(-1.92969e+06 -1.17045e+06 -38500.2 -398335 -34958.4 -390898)
(-1.99479e+06 -1.08193e+06 116677 -408353 -35475.2 -457644)
(-2.35285e+06 -1.08751e+06 49995.8 -411164 -21313.9 -427236)
(-2.37306e+06 -1.00903e+06 230939 -392636 -36497.6 -375334)
(-1.72937e+06 -978138 227091 -234085 -13450.7 -168645)
(-2.16274e+06 -1.02174e+06 256501 -454369 -29498.7 -445246)
(-811350 -1.15256e+06 -29233.5 -181298 9785.63 -158757)
(-257270 -1.03554e+06 32663 -9272.95 -11855.4 -26184.1)
(-574530 -1.07931e+06 46611.5 -114734 1058.83 -105483)
(-746108 -1.02046e+06 110070 -190057 -25483.3 -156671)
(-810661 -1.06583e+06 110114 -246277 -28847.5 -154852)
(-327856 -967342 76262.5 -31002.1 -29109.1 -60905.1)
(510307 -1.12883e+06 -85753 201588 -28734.8 72160.4)
(586288 -1.02238e+06 -52314 264563 -62704.3 200708)
(31161.4 -1.02675e+06 -34741.8 117375 -41060 61463.3)
(547732 -1.02597e+06 -27657.6 218204 -54293.4 158977)
(32115.7 -977974 8778.58 114996 -63309.7 144560)
(586179 -997141 -54130.7 248739 -58841.3 194108)
(1.62771e+06 -1.17948e+06 -81909.9 467763 18923.1 365620)
(2.20375e+06 -1.11338e+06 -162408 716768 420.116 626319)
(1.84658e+06 -1.11922e+06 -107124 605062 6838.91 517433)
(1.80417e+06 -1.05607e+06 -150557 579674 -35730.4 467635)
(1.43576e+06 -1.00345e+06 -86627 362146 -32996.8 104940)
(2.24774e+06 -1.03879e+06 -200372 708065 -34640.1 489251)
(3.18192e+06 -1.17896e+06 -105363 684984 -21447.6 659788)
(3.24479e+06 -1.1387e+06 -200123 809330 -31884.5 830145)
(2.42153e+06 -1.07127e+06 -86790.6 509356 -28679.1 478045)
(3.11311e+06 -1.05453e+06 -228617 649303 -12258.5 597706)
(2.31748e+06 -924180 -166468 541275 -30741.9 328016)
(2.87934e+06 -1.02305e+06 -230485 794210 -56756.2 621913)
(4.71443e+06 -1.24822e+06 -128633 953258 -4224.85 1.08395e+06)
(6.2234e+06 -1.25768e+06 -287236 1.41085e+06 -79805.7 1.72136e+06)
(5.27643e+06 -1.33389e+06 -254763 1.3457e+06 -20835.7 1.53105e+06)
(4.75264e+06 -1.0848e+06 -410584 950738 -42056.7 1.07895e+06)
(6.35753e+06 -1.05979e+06 -829175 1.40652e+06 5267.05 1.36475e+06)
(5.5045e+06 -1.13468e+06 -695107 1.40795e+06 -17983.4 1.53444e+06)
(5.5315e+06 -1.04401e+06 -76290.3 906603 -36058 1.23957e+06)
(6.63352e+06 -899540 -334798 919261 -59426.7 1.532e+06)
(6.0911e+06 -856618 -136828 688407 -57091.5 1.17441e+06)
(6.22516e+06 -744619 -465843 722893 -71669.9 1.18531e+06)
(6.44026e+06 -799805 -745053 716634 -36744.2 985370)
(5.81607e+06 -878885 -514578 858878 -55338.3 1.17325e+06)
(-4.96421e+06 -1.19383e+06 -179478 -1.16043e+06 -80251.1 -1.01214e+06)
(-5.45488e+06 -1.11305e+06 130981 -1.15202e+06 -8922.55 -981680)
(-5.13666e+06 -1.09407e+06 -136645 -1.01083e+06 -68785.6 -749559)
(-5.12395e+06 -1.12193e+06 226039 -1.02832e+06 -60209.6 -790313)
(-4.97424e+06 -978470 311437 -766442 -158371 -410297)
(-5.10754e+06 -1.03769e+06 209408 -900117 -129599 -499059)
(-4.05587e+06 -1.11635e+06 -94240.4 -689078 -2870.68 -389487)
(-4.50896e+06 -1.02258e+06 -26701.6 -726509 -56944.8 -467670)
(-4.23379e+06 -1.10878e+06 1088.1 -729386 -31762.8 -562502)
(-4.04341e+06 -997095 105761 -544225 -69170.7 -362801)
(-3.46509e+06 -822425 142835 -157222 -31363.2 59360.3)
(-4.27219e+06 -938846 125574 -585077 -61616.2 -258834)
(-3.13675e+06 -1.18726e+06 -96649.8 -494586 22597 -278112)
(-3.23668e+06 -1.14077e+06 39173.3 -557354 -40020.8 -494067)
(-2.56518e+06 -1.10647e+06 -72458.5 -411880 -47640.1 -347548)
(-3.14775e+06 -1.07666e+06 163915 -444522 -25540.5 -377826)
(-2.21704e+06 -964349 247252 -303481 -14145.4 -303469)
(-2.70082e+06 -946957 261991 -204860 14818.7 -199384)
(-1.64764e+06 -1.15561e+06 -42365.2 -260855 59445.5 -199127)
(-1.47302e+06 -978788 -32416 -50387.2 -81301 -52888.5)
(-2.21776e+06 -1.07026e+06 -34812.8 -201468 -13113 -143466)
(-1.80524e+06 -963888 79845.3 -108305 -28125.8 -23547.1)
(-1.32719e+06 -937605 86805.8 -110511 -37354.4 -52181)
(-1.46841e+06 -1.0303e+06 63306.7 -264125 -66481.7 -128766)
(-777146 -1.21014e+06 -33786.2 -174548 55658.7 -112107)
(-621350 -1.10534e+06 -17605.4 -93526.9 -60312.7 -79652.3)
(32464.2 -1.1012e+06 -99605.2 52020.1 -17316.1 49634.9)
(-188109 -1.05118e+06 -440.851 60904.8 -66608.7 1194.4)
(-553806 -996169 54423.4 -30626.5 -66946.8 1064.61)
(-627793 -1.04316e+06 19372.5 -38516.6 -77235.8 -15601.2)
(759469 -1.16578e+06 -75865.4 109269 82008.3 55803.5)
(929812 -1.04651e+06 -95892.8 253486 -68651 249301)
(114932 -1.1328e+06 -20174.7 76911.8 14097.7 92677.4)
(904619 -1.02405e+06 -69109.2 258849 -43299.9 228330)
(181204 -988837 -20028.1 137826 -66041.6 201408)
(720220 -975987 -23624.5 309337 -81779.7 241959)
(1.66617e+06 -1.20196e+06 -49427.9 162105 101776 147845)
(1.67792e+06 -1.10627e+06 -63573.2 196705 -19203.7 184999)
(2.45619e+06 -1.12073e+06 -138987 306166 53962 320470)
(1.6189e+06 -1.05442e+06 -76365.8 182467 781.666 129692)
(1.4783e+06 -989792 -86909.1 288955 -21525.1 127595)
(2.10334e+06 -989160 -141384 290314 8968.89 186584)
(3.35677e+06 -1.06795e+06 -115996 369807 85552.3 423661)
(3.45643e+06 -1.04126e+06 -155223 373444 20653.7 514727)
(2.60636e+06 -1.10415e+06 -38692.2 228764 74503.6 305206)
(3.33809e+06 -979587 -112422 218976 56015.6 302663)
(3.25825e+06 -909332 -101330 306865 42156.9 256797)
(2.61157e+06 -1.01035e+06 -55187.4 209940 29219.1 241294)
(4.30487e+06 -955974 -98874.7 420398 49864.7 540405)
(4.85447e+06 -785556 -162363 413602 -56578.8 679166)
(4.5238e+06 -979694 -158517 543706 2665.35 752682)
(4.30181e+06 -812813 -210499 222022 14926 415955)
(4.561e+06 -843297 -390515 396503 25685.1 541432)
(5.23176e+06 -697324 -398361 408080 4461.8 706559)
(5.0614e+06 -716997 26751.4 505730 -45616.7 668353)
(5.40579e+06 -455335 -114825 305345 -67712.1 555887)
(5.53701e+06 -456353 -58075.5 412663 -106747 746079)
(5.18584e+06 -575523 -182771 269201 -22988.3 517860)
(5.30339e+06 -510160 -289644 193444 -16653 260445)
(5.46898e+06 -418754 -276700 204840 -64217.1 417265)
(-4.78189e+06 -1.12776e+06 -211061 -957687 -71632.7 -593020)
(-5.14503e+06 -938164 -69467.1 -843501 -59231.6 -598377)
(-4.83156e+06 -942959 -224222 -780106 -85020.2 -472359)
(-5.05626e+06 -927950 44848.1 -808424 5180.14 -520355)
(-4.36782e+06 -852594 140939 -416615 30574.1 -227780)
(-5.02062e+06 -820235 89598.9 -691647 -7836.19 -467119)
(-3.71715e+06 -1.07266e+06 -117826 -577141 46699.6 -247360)
(-4.05182e+06 -907526 -131742 -500017 -69909.9 -210811)
(-3.77623e+06 -1.00801e+06 -81999.3 -448551 -35018.6 -227449)
(-3.66112e+06 -867728 -17404.4 -231879 -19409.1 -114912)
(-3.66511e+06 -910338 78678.6 -258389 37740.4 -54808)
(-4.32239e+06 -914879 58580.9 -516075 162.583 -272139)
(-2.95381e+06 -1.19119e+06 -48668 -423410 117939 -213847)
(-2.90851e+06 -1.07816e+06 -34061.1 -262830 -34655.1 -219825)
(-2.41343e+06 -1.13021e+06 -60623.1 -332931 41385.6 -305787)
(-2.70531e+06 -997821 53578.6 -96385 14714.8 -82100)
(-2.17754e+06 -947195 214561 -110439 64920.9 -228329)
(-2.78449e+06 -986906 117722 -196042 21062.3 -203409)
(-1.44237e+06 -1.17175e+06 -50839.7 -162590 113956 -80106.5)
(-1.36259e+06 -1.05452e+06 -32479.3 -34018.5 -7357.96 -21423.5)
(-2.03038e+06 -1.11001e+06 -17613.7 -165920 71625.2 -86350.4)
(-1.6354e+06 -1.00239e+06 44838.6 8395.73 25522.9 69226.4)
(-1.34066e+06 -961654 173036 5941.57 71243.1 -25430.8)
(-1.27227e+06 -1.02163e+06 69207.8 20049.6 51145.9 4990.97)
(-668328 -1.25056e+06 -28586.5 -158282 118264 -70361.1)
(-645954 -1.17185e+06 -9609.08 -82902.8 -19780.3 -64758.6)
(40121.4 -1.18328e+06 -82951.4 -1250.51 60637 1596.2)
(-207749 -1.1508e+06 -10084.2 9389.7 -24063 -33640.3)
(-465572 -1.10758e+06 -4563.66 -55383.1 -8401.8 30972.7)
(-473791 -1.13789e+06 5943.46 -26850.6 16073 22536.1)
(809745 -1.18567e+06 -93186.9 65351.8 131216 64003.1)
(863496 -1.13797e+06 -65985.9 128560 10854.1 147939)
(163851 -1.18499e+06 -21287.6 24050.1 75733.5 80236.4)
(870444 -1.11962e+06 -35376.8 155517 48404.2 152575)
(503468 -1.06136e+06 17.5374 146236 50136.6 283339)
(840167 -1.03677e+06 -13551.8 267155 -8124.59 251868)
(1.63614e+06 -1.19241e+06 -52002.9 23716.3 148244 80490)
(1.55973e+06 -1.15451e+06 -27661.1 -46069 52891.4 3007.43)
(2.39784e+06 -1.08321e+06 -119292 116563 90408.7 167519)
(1.54278e+06 -1.128e+06 -34159.2 -51916.8 92126 -19213.3)
(1.60604e+06 -1.02855e+06 -108812 34315.9 47899.7 78977.1)
(2.18037e+06 -1.01579e+06 -76049 -60741.8 72334.9 -20442.4)
(3.11339e+06 -997374 -105268 202620 136450 232372)
(3.2624e+06 -951502 -103976 206015 52192.4 325563)
(2.48034e+06 -1.05611e+06 -34352 114222 117853 213848)
(3.10076e+06 -888879 -26810.7 66327.9 76394.6 137523)
(3.14367e+06 -842076 -2053.37 -21261.7 77499.2 53942)
(2.53661e+06 -969415 -12846.8 40754.6 90725.7 146034)
(3.89353e+06 -812062 -51774.4 148409 53582.7 202025)
(4.41415e+06 -608552 -42364.1 139253 -54349.2 256298)
(4.10134e+06 -801404 -76949.2 211181 19468.2 361774)
(3.95942e+06 -668785 -53886.7 -13643.8 7676.66 127798)
(4.51795e+06 -563131 -107901 11311.5 -9429.64 64902)
(4.17215e+06 -666535 -109058 -1793.4 -27631.9 179709)
(4.57441e+06 -581834 75993.6 305796 -34820.2 341246)
(4.8891e+06 -391426 -3799.53 153475 -67228 292963)
(5.01664e+06 -332150 34783.2 246002 -94403.2 370554)
(4.66239e+06 -471691 -40753.2 62707.5 -23855.4 254421)
(4.80972e+06 -503768 -64363.3 106318 -6802.24 199129)
(4.97544e+06 -349687 -58975.9 78278.5 -45495.9 206340)
(-4.31627e+06 -1.06134e+06 -293636 -838386 -63193.6 -410701)
(-4.66091e+06 -839978 -152344 -724742 -80750.7 -408997)
(-4.36663e+06 -863699 -293446 -713068 -90884.6 -330357)
(-4.31685e+06 -947943 -83130.1 -533294 -46799.1 -316526)
(-4.91037e+06 -930383 -21889.5 -646363 -79512.6 -338122)
(-4.52112e+06 -920712 -128579 -651491 -107816 -275630)
(-3.36358e+06 -1.04554e+06 -118609 -539424 81246.2 -182658)
(-3.62851e+06 -865792 -173434 -429115 -59767.3 -116325)
(-3.40477e+06 -975653 -90209.3 -388083 -863.795 -163992)
(-3.2961e+06 -855941 -110287 -157140 -35379.6 -32293.7)
(-3.88921e+06 -952001 -167529 -397944 -159839 -42143.5)
(-3.57508e+06 -897885 -77045.9 -196844 -81276.5 -60386.3)
(-2.67285e+06 -1.17404e+06 -15613.8 -382047 152934 -170335)
(-2.65986e+06 -1.10879e+06 -13052.7 -228339 42062.5 -165737)
(-2.16219e+06 -1.14365e+06 -45339.2 -255038 100833 -195052)
(-2.55797e+06 -1.03526e+06 17700.9 -70637.4 55702.3 -50106.3)
(-2.33491e+06 -1.02531e+06 229218 -64957.7 158127 -239000)
(-2.81514e+06 -1.02395e+06 96370.9 -144908 74018 -192554)
(-1.26369e+06 -1.17523e+06 -45048.9 -135941 171270 -30785.5)
(-1.22666e+06 -1.10104e+06 -24176.8 -16680.8 52940 40514.3)
(-1.82337e+06 -1.10986e+06 -1030.37 -122559 117573 891.921)
(-1.14047e+06 -1.093e+06 57878.1 40291.8 113313 87868.2)
(-1.34112e+06 -1.05999e+06 204272 27200.8 172606 -32144)
(-1.62885e+06 -1.00201e+06 98682.9 146863 95789.3 158061)
(-568255 -1.25903e+06 -2913.89 -173637 184528 -46905.3)
(-529715 -1.22416e+06 -4063.32 -96625.9 43834.9 -44778.7)
(102649 -1.20379e+06 -67878.5 -51013.5 122494 -31707)
(-492507 -1.21038e+06 30511.1 -92283.5 93119.3 -42748.5)
(-479477 -1.21155e+06 19063.5 -87488.3 105956 3864.21)
(122046 -1.15677e+06 -22566 11046.3 75083 12176.9)
(790903 -1.1753e+06 -97902.1 22847.8 174284 46886.4)
(853790 -1.15751e+06 -55917.1 52602.3 69221.1 100900)
(170778 -1.19824e+06 -9940.97 -33015.9 137454 59274.3)
(841097 -1.16258e+06 -2118.52 60163.7 128900 92251.2)
(938198 -1.10348e+06 20617.2 105259 124577 104481)
(277275 -1.20398e+06 50743 6281.67 146559 93397.3)
(1.52281e+06 -1.16653e+06 -34739.3 -56059.3 198078 23709.4)
(1.50962e+06 -1.13565e+06 -20079.3 -99810.4 88203.9 -23819.5)
(2.23976e+06 -1.04228e+06 -93377.7 22537.5 131050 63506.8)
(1.46347e+06 -1.13017e+06 -17792.8 -138270 143344 -69443.9)
(1.59398e+06 -1.04083e+06 -104319 -84039 112175 37886.7)
(2.01063e+06 -991296 -25632.9 -195565 113071 -138764)
(2.82819e+06 -962150 -97001.3 131085 179357 139511)
(2.98695e+06 -908200 -70377.8 113909 89807.1 199438)
(2.27732e+06 -1.02165e+06 -24857.7 53156.9 162703 146946)
(2.85079e+06 -852613 12232.6 4049.34 112879 64494.4)
(2.84541e+06 -802910 76196.4 -179203 119903 -83542.5)
(2.3801e+06 -961592 13103.4 -47612.8 153577 87962.1)
(3.46819e+06 -776195 -6134.75 37073.8 94244.7 31530.4)
(3.97335e+06 -559738 21933.3 16611.7 -20967.9 59913.9)
(3.6753e+06 -745192 -22439.2 78186.3 56544.9 153523)
(3.59151e+06 -631605 15566.2 -110189 42894.5 5023.88)
(4.01898e+06 -528675 36431.1 -149059 29992.4 -61355.5)
(3.67816e+06 -603899 20372.9 -194221 1700.13 -47109.3)
(4.08671e+06 -557276 130677 200489 4327.04 161176)
(4.39373e+06 -377014 52698 47473 -38650.1 146602)
(4.52841e+06 -296951 95685.3 147438 -61547.7 181601)
(4.21407e+06 -465264 28317 -47335.6 10139.3 140230)
(4.41346e+06 -518124 20936.6 32639.9 30828.4 180363)
(4.53648e+06 -356996 25262 -27143.2 -3386.85 132496)
(-3.88452e+06 -1.01614e+06 -304804 -794945 -27427.4 -323204)
(-4.25952e+06 -818222 -184463 -709958 -78709.8 -347106)
(-3.92679e+06 -817498 -326916 -674986 -79615.8 -263018)
(-3.88134e+06 -898310 -163842 -482199 -83722.7 -226553)
(-4.19422e+06 -879442 -207071 -520365 -169354 -141906)
(-4.10538e+06 -884528 -212070 -696142 -138058 -259831)
(-2.99583e+06 -1.0279e+06 -149237 -531021 104217 -112930)
(-3.25797e+06 -853030 -198370 -418848 -46417.2 -75963.7)
(-3.05404e+06 -961102 -110394 -372772 19960.9 -106028)
(-2.94087e+06 -860246 -156894 -157607 -28369.6 17281.8)
(-3.37563e+06 -881607 -269379 -297134 -183360 43385.7)
(-3.01791e+06 -810023 -184845 -7936.41 -113291 116998)
(-2.37389e+06 -1.15934e+06 -14832.6 -361690 184352 -106169)
(-2.4254e+06 -1.09296e+06 -1771.81 -191604 76419 -92481.2)
(-1.93377e+06 -1.13558e+06 -32718.7 -225794 155385 -131289)
(-2.30718e+06 -1.00755e+06 -26549.5 -16267.6 68467.6 30686.1)
(-2.43053e+06 -950165 -32881.8 181141 48661 145197)
(-2.02765e+06 -1.09049e+06 47704.3 -49085.5 134095 -61670.7)
(-1.09738e+06 -1.16515e+06 -53826.6 -132711 200107 -570.707)
(-1.1124e+06 -1.1059e+06 -14274.4 -32676.7 102115 57832.6)
(-1.6095e+06 -1.09805e+06 -8696.33 -118693 141135 40146.7)
(-1.06863e+06 -1.11546e+06 62348.3 11344.6 153060 89223.9)
(-1.14664e+06 -1.06305e+06 191890 105164 213317 50757.4)
(-1.30993e+06 -969780 21577.3 259611 108044 297079)
(-484682 -1.24402e+06 11210.4 -183969 220195 -35115.4)
(-485255 -1.23522e+06 8592.02 -125323 97624.1 -46475.6)
(155411 -1.19229e+06 -59985.8 -60486.4 160172 -20726.9)
(-470226 -1.24116e+06 34102.3 -140014 145782 -50225.7)
(-417871 -1.25843e+06 17112.8 -62033.3 162961 37240.7)
(91308.5 -1.23727e+06 12855.2 -80065.9 166295 -48025.7)
(733910 -1.16156e+06 -100472 -9064.97 208919 33084.8)
(803504 -1.15071e+06 -47616.2 17720.3 104646 82146.6)
(162551 -1.18687e+06 -5893.26 -60142.9 170059 49662.1)
(784373 -1.16262e+06 7575.28 34050.7 160707 80092.8)
(730331 -1.19546e+06 77981.3 -48374.6 214919 -10486.9)
(296891 -1.20719e+06 46929.9 -514.691 183565 107327)
(1.3789e+06 -1.14632e+06 -17601.7 -96027.2 237927 -5958.41)
(1.39274e+06 -1.11492e+06 -9895.39 -128744 125910 -51333.7)
(2.04963e+06 -1.0167e+06 -73738.7 -12248 168155 18471.1)
(1.34891e+06 -1.11787e+06 -10503.5 -162290 176347 -85131.2)
(1.41389e+06 -1.08149e+06 -76775 -201598 184247 -39656.4)
(1.83123e+06 -977523 1383.22 -232264 154032 -178313)
(2.54089e+06 -952431 -88551.7 96319.7 214358 95640.1)
(2.6976e+06 -892386 -48026.6 70537 123195 135321)
(2.05109e+06 -1.00534e+06 -15046.7 21725.6 198174 108866)
(2.57381e+06 -840315 39816.2 -25706.5 143923 27162.2)
(2.59206e+06 -793130 116762 -216954 166182 -120941)
(2.18776e+06 -952816 28212.7 -70813 195551 65449)
(3.06079e+06 -774918 36179.4 -27642.8 132497 -57311.2)
(3.55046e+06 -552144 61151.1 -56048.5 9924.4 -33703.2)
(3.27187e+06 -731675 16154.2 12148.3 92854.6 50694.2)
(3.23352e+06 -626685 55499.4 -158786 75183.7 -45378.4)
(3.64807e+06 -542963 106351 -223730 72413.8 -81989.7)
(3.31048e+06 -598305 79739.1 -262892 43448.6 -112043)
(3.62353e+06 -562998 180941 130047 40226.9 61944.8)
(3.91216e+06 -386031 88779.9 -36237 -14292.6 64422.8)
(4.0553e+06 -294566 141833 72486.8 -31872.9 81867.5)
(3.77947e+06 -481669 69382.3 -127061 39741.5 78696.5)
(4.00109e+06 -547941 78774.9 -35909.1 63093 168335)
(4.0893e+06 -388147 73472.1 -126298 29379.5 84638.9)
(-3.46223e+06 -982649 -341865 -800042 -7198.04 -254592)
(-3.84456e+06 -788791 -213977 -727899 -67618 -311182)
(-3.483e+06 -771227 -363862 -679507 -68002.4 -212690)
(-3.46466e+06 -886771 -204854 -486884 -73357.4 -185793)
(-3.78079e+06 -889289 -254705 -522407 -164031 -126868)
(-3.683e+06 -882743 -250042 -711808 -128449 -246271)
(-2.65001e+06 -1.01219e+06 -180017 -553950 122422 -85750.5)
(-2.87822e+06 -830627 -224881 -429506 -36253.9 -44994.3)
(-2.69848e+06 -940990 -136367 -382079 34817.7 -60004.9)
(-2.59983e+06 -846625 -186166 -172671 -21618.5 39174)
(-2.96161e+06 -879527 -321438 -298037 -177406 55611.7)
(-2.60189e+06 -794960 -241183 13485.6 -101215 172488)
(-2.09364e+06 -1.14231e+06 -19017.7 -370938 206091 -76472.5)
(-2.13698e+06 -1.07391e+06 -17766.3 -179069 90079.6 -39435.6)
(-1.69049e+06 -1.11715e+06 -39150.1 -218328 177461 -88601.7)
(-2.01832e+06 -986687 -57646.4 -5437.62 72378 72795.9)
(-1.90789e+06 -902846 -131219 325597 47782.3 308659)
(-1.83523e+06 -1.08337e+06 24442.9 -47971 150531 -31055.9)
(-938249 -1.15059e+06 -68174.5 -143939 220705 15991.5)
(-964960 -1.09424e+06 -22710 -46585.1 119071 73745.9)
(-1.39668e+06 -1.08113e+06 -23393.1 -129104 157332 60839.8)
(-922538 -1.10395e+06 47528.1 6755.81 161231 107249)
(-1.02557e+06 -1.06584e+06 177346 94150.9 237833 66403.2)
(-1.068e+06 -946981 -11118.7 277460 118143 332768)
(-411010 -1.22512e+06 19009 -196273 248277 -27528.1)
(-413633 -1.21991e+06 8522.06 -126063 121945 -31575.2)
(180987 -1.17615e+06 -54919.3 -69190.6 189974 -12524.3)
(-401960 -1.22671e+06 26387.5 -140016 163360 -36096.1)
(-363809 -1.26254e+06 1796.87 -59270.3 194252 48662.6)
(72432.3 -1.2384e+06 16993.9 -97937.1 198972 -54055.5)
(668605 -1.14995e+06 -104403 -32885 235660 26824)
(730438 -1.14194e+06 -42734.6 -11647.7 132253 65485.4)
(153815 -1.17245e+06 -7880.92 -80655.5 194789 44220.9)
(707959 -1.15766e+06 11124.2 10114.8 183197 66028)
(646621 -1.2051e+06 86944.6 -78249.5 254841 -25160.1)
(292921 -1.1992e+06 40210.9 -12381.1 210366 105369)
(1.22633e+06 -1.13507e+06 -2128.67 -119491 269480 -20617.3)
(1.2535e+06 -1.10046e+06 -2122.03 -137748 155102 -61499.6)
(1.84897e+06 -1.00533e+06 -57703.3 -25993.8 199099 1803.83)
(1.21463e+06 -1.10747e+06 -7692.28 -169099 199377 -87943.9)
(1.27528e+06 -1.08213e+06 -76468.7 -213117 221728 -49471.1)
(1.62196e+06 -971244 20987.2 -247124 187164 -195048)
(2.25735e+06 -957698 -77626.5 73417.3 243097 73873.8)
(2.41181e+06 -891267 -30807.1 46710.2 150024 102929)
(1.82497e+06 -1.00046e+06 -5647.31 2712.79 225619 87634.7)
(2.2984e+06 -837800 61055.2 -38204.6 167200 12666.1)
(2.32614e+06 -790812 149375 -231614 204003 -133283)
(1.99722e+06 -944167 37144.4 -69925.9 225614 63584.4)
(2.66899e+06 -789916 78337.3 -74666.2 166232 -107476)
(3.14368e+06 -560597 93036.5 -108835 35738.8 -81257.2)
(2.88762e+06 -737260 49085.2 -27988.6 124293 -2286.84)
(2.88438e+06 -633146 86224.2 -187886 101617 -64763.4)
(3.27375e+06 -565818 161444 -282678 109393 -88001.6)
(2.95007e+06 -605674 124242 -304322 80042.3 -138477)
(3.1797e+06 -581779 230845 75682.6 72324.7 3208.45)
(3.44275e+06 -403440 121734 -108196 7266.09 11146.5)
(3.59718e+06 -305350 185517 9602.44 -5589.23 23509)
(3.35228e+06 -504306 103855 -191974 65586.8 38850.2)
(3.5767e+06 -578811 127651 -99474.1 92009 155483)
(3.64217e+06 -422594 112226 -214993 56984.1 48325.3)
(-3.05286e+06 -951042 -379435 -823630 9052.05 -222996)
(-3.41345e+06 -759288 -242882 -743997 -58851.8 -284227)
(-3.03981e+06 -725547 -398813 -687778 -59717 -182395)
(-3.04978e+06 -867477 -233834 -496196 -66900.1 -160349)
(-3.34634e+06 -889938 -288987 -519279 -160108 -107820)
(-3.25176e+06 -867768 -277998 -718263 -124462 -231363)
(-2.30316e+06 -990977 -214581 -579834 131873 -72910.8)
(-2.49646e+06 -804996 -251898 -440997 -32303.5 -27907.3)
(-2.34588e+06 -918513 -164763 -400131 43414 -35183)
(-2.25778e+06 -830242 -212008 -188239 -20924.4 50395.3)
(-2.58102e+06 -872360 -359547 -309080 -176609 52984.4)
(-2.24172e+06 -779246 -278211 5050.22 -92728.9 186130)
(-1.81067e+06 -1.12209e+06 -29825.2 -387439 218898 -57924.6)
(-1.84695e+06 -1.05266e+06 -37939.8 -178195 98049.4 -4609.93)
(-1.44639e+06 -1.09749e+06 -52127.5 -221555 191867 -57833.7)
(-1.73131e+06 -965921 -87157.8 -5534.41 72758.7 97659.5)
(-1.60697e+06 -880904 -175029 341902 57671.3 335221)
(-1.61656e+06 -1.06897e+06 201.943 -49962.3 161556 -8877.07)
(-778218 -1.13543e+06 -88293.1 -161724 232580 26560.3)
(-814623 -1.08187e+06 -36401.2 -69062.1 129841 80868.5)
(-1.17973e+06 -1.06268e+06 -43943.2 -145875 165479 74275.6)
(-778799 -1.09429e+06 30372.1 -10898.8 165202 112921)
(-888269 -1.06229e+06 160560 77011.1 257252 73901.1)
(-851092 -931742 -39713.5 269653 126256 343163)
(-336867 -1.20673e+06 21130.5 -209878 268066 -21842.1)
(-337183 -1.20257e+06 2100.82 -127160 139915 -16955)
(202455 -1.1611e+06 -54029 -76456.8 212308 -1862.87)
(-327910 -1.21119e+06 12852.6 -141359 174815 -22154.6)
(-306694 -1.25496e+06 -16186.7 -60455.9 217444 53426.8)
(60641.6 -1.23221e+06 14979.7 -111565 222678 -56068.3)
(597148 -1.14354e+06 -109282 -60869.7 254789 20959.9)
(657944 -1.13581e+06 -41812.9 -38081 152673 54836.1)
(149328 -1.16003e+06 -13950.4 -100659 211613 41500)
(633490 -1.15396e+06 9613.34 -12119.3 198298 56878.1)
(564208 -1.2087e+06 90783.9 -103563 285576 -35782.3)
(291553 -1.19091e+06 28224.9 -23967.5 229745 105030)
(1.0718e+06 -1.13129e+06 12005.1 -141761 293495 -28805.8)
(1.11436e+06 -1.09157e+06 3366.18 -138922 176884 -60330.5)
(1.64685e+06 -1.00393e+06 -42337.9 -35313.9 224147 -2589.92)
(1.08017e+06 -1.10087e+06 -7845.8 -170075 214761 -82203.7)
(1.13433e+06 -1.07754e+06 -80057.1 -211207 249903 -50483.3)
(1.40647e+06 -968530 36531.1 -253145 213030 -199050)
(1.96939e+06 -974400 -62326 47039 266972 60373.5)
(2.13151e+06 -899625 -13184.6 28017.5 171622 84881.4)
(1.6043e+06 -1.0037e+06 4537.79 -14804.7 246422 76435.4)
(2.02717e+06 -843000 81620.2 -45327.8 185107 7918.76)
(2.05485e+06 -792759 178794 -237682 235117 -135066)
(1.80725e+06 -940790 44327.6 -63924 248082 69610.7)
(2.28194e+06 -814691 123981 -116761 196241 -138008)
(2.74645e+06 -576728 127436 -152452 58637.6 -108646)
(2.51548e+06 -752663 83419.2 -57747 151556 -31554.3)
(2.53889e+06 -645548 117581 -208276 124597 -72678.6)
(2.89359e+06 -590056 212595 -331207 142971 -89792.9)
(2.59071e+06 -617387 165767 -332709 112175 -149655)
(2.74012e+06 -608893 286267 26731.5 103378 -33046.1)
(2.98203e+06 -425169 163029 -172545 29928.7 -28760.6)
(3.14554e+06 -323122 235403 -46347.3 20780.4 -14939.1)
(2.92986e+06 -529931 141938 -248156 90699.9 5815.1)
(3.14365e+06 -610677 174982 -159477 119988 134591)
(3.19699e+06 -456695 152503 -293501 83178.3 13611)
(-2.6503e+06 -911531 -421399 -848054 16489.7 -209389)
(-2.98826e+06 -725059 -272329 -758356 -55527.5 -265661)
(-2.60969e+06 -674210 -436802 -693921 -58271.9 -161660)
(-2.64129e+06 -842525 -258980 -502352 -66459 -138971)
(-2.91593e+06 -887615 -314941 -510106 -159675 -89389.5)
(-2.8268e+06 -846176 -300143 -713963 -125792 -213689)
(-1.93967e+06 -954852 -262600 -596673 123159 -54916.9)
(-2.12168e+06 -772059 -283184 -451775 -39124.5 -10445.3)
(-1.99343e+06 -889110 -199869 -418713 39877.6 -13672.5)
(-1.91445e+06 -812281 -236681 -205212 -30695.2 68211.2)
(-2.19862e+06 -863225 -388452 -318564 -181867 59056.9)
(-1.88908e+06 -764785 -308653 -10269.5 -91169.9 194709)
(-1.50855e+06 -1.09455e+06 -55988.4 -401902 216206 -35150.6)
(-1.55677e+06 -1.0303e+06 -64013.2 -183156 95913.9 26232.7)
(-1.202e+06 -1.07764e+06 -73358.8 -229972 195121 -28663.9)
(-1.44817e+06 -949181 -117571 -14052.3 62884.3 120250)
(-1.32259e+06 -869217 -212781 339949 63077.8 345710)
(-1.39979e+06 -1.06173e+06 -23685.3 -62168.1 165626 5216.42)
(-623856 -1.11574e+06 -115466 -183401 229559 38913.3)
(-652319 -1.07187e+06 -58790.9 -89087.3 129003 100957)
(-932168 -1.04117e+06 -81280.4 -152945 157597 111880)
(-624931 -1.09169e+06 7983.63 -26139.9 155820 134665)
(-780851 -1.07815e+06 147457 31417.3 271721 61550)
(-668157 -935634 -64149.2 230188 125381 336798)
(-250719 -1.18576e+06 12441.3 -220770 272179 -7053.07)
(-252600 -1.18888e+06 -10561.9 -125947 148351 6326.44)
(219902 -1.15171e+06 -57697.8 -86850.3 224585 13807.7)
(-246213 -1.20291e+06 -5644.67 -138281 175831 4978.53)
(-265899 -1.25807e+06 -33026.4 -73333 235426 49256.2)
(42895.5 -1.23276e+06 11170.7 -126689 238122 -56944.9)
(525419 -1.13394e+06 -111161 -95425.6 259020 22200.7)
(607653 -1.13745e+06 -45367.4 -58465.7 161976 67657.2)
(181103 -1.14788e+06 -30691.8 -109614 211292 70552.4)
(594454 -1.16266e+06 4445.49 -23244.5 201040 80383.9)
(478581 -1.2289e+06 96822.9 -138715 311144 -48963.2)
(296637 -1.19973e+06 17204.1 -41534.2 239158 114881)
(932396 -1.12914e+06 22312.3 -166621 302420 -21777.9)
(987617 -1.09214e+06 8008.43 -137472 189966 -44056.3)
(1.44156e+06 -1.01539e+06 -24782.7 -49686.2 241651 2637.38)
(961212 -1.1079e+06 -8804.73 -167150 219756 -58804.7)
(989931 -1.08717e+06 -81929.7 -210912 271210 -49945.6)
(1.19248e+06 -979714 53413 -256034 232018 -196064)
(1.65677e+06 -996915 -32453 904.223 283908 48830.2)
(1.87349e+06 -920579 8098 17231.5 186648 93064.2)
(1.42262e+06 -1.01154e+06 11591.2 -23936.7 253416 101213)
(1.7841e+06 -866319 104812 -40390.4 194622 32078.6)
(1.76096e+06 -818849 216077 -253371 263302 -143712)
(1.60882e+06 -964396 57809 -68706 262343 81339.8)
(1.87937e+06 -846501 183723 -166250 221607 -156585)
(2.36266e+06 -601565 172578 -185671 81844.9 -120589)
(2.15303e+06 -778710 126567 -81414.8 176364 -41689.1)
(2.20498e+06 -672549 155262 -217003 143242 -66268.8)
(2.50136e+06 -626376 268272 -370377 174536 -96281.8)
(2.22338e+06 -643325 213518 -355257 140733 -158338)
(2.26868e+06 -643617 357605 -39015.3 133043 -62214.8)
(2.53978e+06 -454883 229543 -228289 54638.4 -48387.2)
(2.68039e+06 -348748 300826 -104354 51247.8 -46437.7)
(2.55391e+06 -567946 196260 -277339 113157 2829.92)
(2.80654e+06 -667262 238129 -165021 142618 154870)
(2.79994e+06 -496147 206509 -334675 107867 275.288)
(-2.2417e+06 -872111 -458286 -853908 10125.7 -180880)
(-2.5996e+06 -681359 -280836 -783659 -63610 -252094)
(-2.28074e+06 -643811 -456011 -735589 -62377.7 -160032)
(-2.22787e+06 -817035 -248016 -509070 -76410.4 -104439)
(-2.46218e+06 -919105 -330582 -557528 -186292 -69906.4)
(-2.40785e+06 -861075 -280269 -784107 -162163 -227415)
(-1.31564e+06 -775988 -354287 -327316 15586 157032)
(-1.8058e+06 -778992 -271752 -491171 -43317.2 -4333.67)
(-1.61921e+06 -892553 -220060 -421407 35850.3 41295.8)
(-1.55816e+06 -829385 -211006 -248783 -86628 80287.9)
(-1.75987e+06 -917409 -353591 -364726 -244170 51984.6)
(-1.48208e+06 -807669 -298557 -61766.9 -133962 214721)
(-642451 -890814 -157470 -100081 132859 277988)
(-1.25294e+06 -1.01678e+06 -75743.8 -192175 94030.1 74798.5)
(-1.03108e+06 -1.06686e+06 -74733.3 -270326 195991 -15498.9)
(-1.1251e+06 -973430 -126363 -17000.3 10898.9 160562)
(-989506 -950797 -244061 305764 44087.4 354464)
(-1.11695e+06 -1.1171e+06 -51156.3 -49801.5 134459 61217)
(-58081.4 -889134 -189611 19297 113740 244061)
(-589132 -1.07218e+06 -14619 -168887 147862 65017.1)
(-516131 -970861 -119160 -128714 104874 183328)
(-597190 -1.1573e+06 705.785 -128693 65217.4 87015.7)
(-839408 -1.23679e+06 88398.8 -166149 215638 -11305.6)
(-702055 -1.09123e+06 -87146.3 -7144.31 39035.4 204666)
(413416 -988593 -59996.2 18546.7 194515 266631)
(-196704 -1.17889e+06 8654.51 -158155 160864 23859.5)
(105936 -1.14554e+06 -27315.1 -176414 245153 -27043.9)
(-212115 -1.24071e+06 -9541.32 -144548 104373 29433.8)
(-311925 -1.38399e+06 -63865.7 -131969 220631 25693.3)
(-9558.2 -1.32768e+06 -590.631 -128861 218662 -35513.1)
(854435 -928583 -155408 13224.5 145867 189917)
(434914 -1.14172e+06 23710.2 -167006 195573 6432.16)
(416242 -1.07801e+06 -51224.8 -134553 153551 113848)
(388509 -1.2397e+06 37954.9 -151812 120373 25706)
(206136 -1.38897e+06 90733.6 -265639 277831 -95799.5)
(110408 -1.33536e+06 5554.17 -191298 129507 41555.2)
(1.36367e+06 -954433 -30636.1 30710.4 230475 237272)
(842254 -1.0945e+06 42253.8 -167689 209904 -27999.2)
(1.11293e+06 -1.03738e+06 32530.5 -145750 275604 -45960)
(818360 -1.16156e+06 15058.2 -157678 153218 -16251.8)
(807238 -1.23762e+06 -84735 -225515 261680 -46258.5)
(1.02039e+06 -1.1077e+06 64938.8 -203564 223531 -134792)