/*--------------------------------*- C++ -*----------------------------------*\
| =========                 |                                                 |
| \\      /  F ield         | OpenFOAM: The Open Source CFD Toolbox           |
|  \\    /   O peration     | Version:  v2012                                 |
|   \\  /    A nd           | Website:  www.openfoam.com                      |
|    \\/     M anipulation  |                                                 |
\*---------------------------------------------------------------------------*/
FoamFile
{
    version     2.0;
    format      ascii;
    class       volScalarField;
    location    "1";
    object      sigmaHyd;
}
// * * * * * * * * * * * * * * * * * * * * * * * * * * * * * * * * * * * * * //

dimensions      [1 -1 -2 0 0 0 0];


internalField   nonuniform List<scalar> 
26460
(
-4.65065e+06
-4.62637e+06
-4.59001e+06
-4.55096e+06
-4.54877e+06
-4.90974e+06
-3.2989e+06
-3.28889e+06
-3.27619e+06
-3.26614e+06
-3.29059e+06
-3.67326e+06
-2.55264e+06
-2.54588e+06
-2.54212e+06
-2.54363e+06
-2.57901e+06
-2.93364e+06
-1.92567e+06
-1.9206e+06
-1.91738e+06
-1.91819e+06
-1.95281e+06
-2.2376e+06
-1.37274e+06
-1.36919e+06
-1.3661e+06
-1.36662e+06
-1.39386e+06
-1.60355e+06
-866281
-864121
-861845
-862260
-880660
-1.01565e+06
-387797
-386886
-385612
-385637
-394037
-454680
77616.8
77386.9
77668.4
78326.9
80630.4
94344.3
543210
541847
541190
542608
555712
644092
1.02183e+06
1.01924e+06
1.01771e+06
1.01979e+06
1.04329e+06
1.20702e+06
1.52775e+06
1.52386e+06
1.52177e+06
1.52454e+06
1.55784e+06
1.79815e+06
2.07937e+06
2.07455e+06
2.07312e+06
2.07756e+06
2.12215e+06
2.44248e+06
2.69676e+06
2.69041e+06
2.68737e+06
2.68932e+06
2.73358e+06
3.11536e+06
3.42932e+06
3.41743e+06
3.3999e+06
3.38728e+06
3.42317e+06
3.83458e+06
4.79313e+06
4.77206e+06
4.73539e+06
4.69931e+06
4.70454e+06
5.08083e+06
-3.48671e+06
-3.45902e+06
-3.42516e+06
-3.38178e+06
-3.29614e+06
-2.94216e+06
-3.08712e+06
-3.06654e+06
-3.03982e+06
-3.00627e+06
-2.94657e+06
-2.64077e+06
-2.44193e+06
-2.42863e+06
-2.41466e+06
-2.39828e+06
-2.37271e+06
-2.18178e+06
-1.85145e+06
-1.84138e+06
-1.83047e+06
-1.81453e+06
-1.78856e+06
-1.66627e+06
-1.32359e+06
-1.31709e+06
-1.30856e+06
-1.29681e+06
-1.28039e+06
-1.19644e+06
-835919
-832011
-826286
-818863
-809689
-757791
-374332
-372795
-370027
-366529
-362597
-339188
75250
74681.7
74616.7
74585.7
74306.8
71023.8
524997
522320
519474
515988
511572
481822
986661
981668
976001
968845
959502
902019
1.4729e+06
1.46538e+06
1.45702e+06
1.44595e+06
1.43001e+06
1.34137e+06
1.9987e+06
1.98877e+06
1.97943e+06
1.96637e+06
1.94148e+06
1.80012e+06
2.57936e+06
2.56864e+06
2.56271e+06
2.55399e+06
2.52488e+06
2.29412e+06
3.20538e+06
3.18865e+06
3.16972e+06
3.14515e+06
3.08636e+06
2.75886e+06
3.59921e+06
3.58155e+06
3.55058e+06
3.51083e+06
3.42537e+06
3.04909e+06
-2.98278e+06
-2.95138e+06
-2.9086e+06
-2.84766e+06
-2.70868e+06
-2.39664e+06
-2.75982e+06
-2.73575e+06
-2.70168e+06
-2.64095e+06
-2.49206e+06
-2.16345e+06
-2.30972e+06
-2.29462e+06
-2.27398e+06
-2.22604e+06
-2.10216e+06
-1.84543e+06
-1.76091e+06
-1.74659e+06
-1.72577e+06
-1.68786e+06
-1.60582e+06
-1.42877e+06
-1.26503e+06
-1.25571e+06
-1.24014e+06
-1.21245e+06
-1.15601e+06
-1.0312e+06
-800224
-794475
-784356
-766789
-732170
-653872
-358603
-356327
-351662
-343599
-328179
-292750
72655
71822.8
71276.1
70310.1
67702.7
62050.1
504162
500222
494495
484559
463969
417422
946131
938831
927710
908450
868859
780143
1.40901e+06
1.39804e+06
1.38126e+06
1.35204e+06
1.29104e+06
1.15708e+06
1.90472e+06
1.88965e+06
1.86833e+06
1.82846e+06
1.74047e+06
1.55071e+06
2.44817e+06
2.42902e+06
2.40208e+06
2.34619e+06
2.21747e+06
1.94647e+06
2.87816e+06
2.85415e+06
2.81817e+06
2.75519e+06
2.60402e+06
2.26417e+06
3.0834e+06
3.06082e+06
3.0212e+06
2.9599e+06
2.81748e+06
2.48285e+06
-2.68268e+06
-2.65068e+06
-2.59965e+06
-2.53223e+06
-2.39701e+06
-2.15883e+06
-2.48439e+06
-2.45563e+06
-2.40764e+06
-2.33259e+06
-2.18142e+06
-1.91358e+06
-2.13588e+06
-2.11361e+06
-2.07475e+06
-2.0047e+06
-1.86801e+06
-1.64527e+06
-1.65707e+06
-1.63899e+06
-1.60825e+06
-1.55449e+06
-1.45522e+06
-1.2914e+06
-1.19913e+06
-1.18727e+06
-1.16559e+06
-1.12722e+06
-1.05727e+06
-939194
-760707
-753293
-739477
-715119
-671681
-597056
-341286
-338353
-332099
-320975
-301498
-267505
69857.8
68785
67813.6
66190.4
62755.6
57461.1
481384
476321
468124
453790
427454
382998
901604
892290
876489
849036
798829
714300
1.33837e+06
1.32454e+06
1.30039e+06
1.25893e+06
1.18268e+06
1.05616e+06
1.79736e+06
1.77737e+06
1.74432e+06
1.68641e+06
1.57939e+06
1.40717e+06
2.26493e+06
2.23858e+06
2.19567e+06
2.11983e+06
1.97728e+06
1.74969e+06
2.59929e+06
2.57113e+06
2.52211e+06
2.44403e+06
2.28615e+06
2.00984e+06
2.77694e+06
2.751e+06
2.70523e+06
2.63701e+06
2.49809e+06
2.23923e+06
-2.4731e+06
-2.4381e+06
-2.38451e+06
-2.32043e+06
-2.20431e+06
-2.02575e+06
-2.26903e+06
-2.23695e+06
-2.18325e+06
-2.10879e+06
-1.97644e+06
-1.76494e+06
-1.96644e+06
-1.94016e+06
-1.89326e+06
-1.82019e+06
-1.69429e+06
-1.51049e+06
-1.54656e+06
-1.52606e+06
-1.48932e+06
-1.43085e+06
-1.33484e+06
-1.19615e+06
-1.12903e+06
-1.11568e+06
-1.09049e+06
-1.04836e+06
-979067
-877010
-719095
-710676
-694783
-667920
-624501
-559585
-323057
-319735
-312608
-300341
-280767
-250999
67029.8
65820.4
64577.3
62664.4
59175.6
54664.6
457655
451931
442282
426201
399620
360889
855074
844576
826012
795377
744910
671395
1.264e+06
1.24841e+06
1.2198e+06
1.17387e+06
1.09801e+06
988903
1.68343e+06
1.66e+06
1.61961e+06
1.55693e+06
1.45328e+06
1.30921e+06
2.09174e+06
2.06153e+06
2.0103e+06
1.93462e+06
1.80506e+06
1.62343e+06
2.38592e+06
2.3552e+06
2.30081e+06
2.22398e+06
2.08134e+06
1.86113e+06
2.56614e+06
2.5376e+06
2.49064e+06
2.42593e+06
2.30571e+06
2.10505e+06
-2.30838e+06
-2.27255e+06
-2.2208e+06
-2.16435e+06
-2.06919e+06
-1.93705e+06
-2.09546e+06
-2.06272e+06
-2.00951e+06
-1.94343e+06
-1.83266e+06
-1.66768e+06
-1.81576e+06
-1.78861e+06
-1.74014e+06
-1.67216e+06
-1.56187e+06
-1.41354e+06
-1.43949e+06
-1.41857e+06
-1.38029e+06
-1.3242e+06
-1.23941e+06
-1.12624e+06
-1.05899e+06
-1.04539e+06
-1.01936e+06
-978321
-915772
-830973
-677321
-668633
-652288
-625943
-586421
-532128
-304637
-301213
-293927
-281870
-263949
-238864
64375.9
63132.5
61770.2
59827.1
56618.2
52934.8
434053
428139
418057
402101
377703
345278
808607
797750
778365
748090
701936
640569
1.18987e+06
1.17367e+06
1.14372e+06
1.09875e+06
1.03009e+06
939858
1.57307e+06
1.54835e+06
1.50571e+06
1.44556e+06
1.35432e+06
1.23707e+06
1.94134e+06
1.91091e+06
1.85921e+06
1.79051e+06
1.67972e+06
1.53505e+06
2.21563e+06
2.18447e+06
2.13092e+06
2.06193e+06
1.94029e+06
1.7658e+06
2.4038e+06
2.37486e+06
2.33092e+06
2.27429e+06
2.17514e+06
2.01887e+06
-2.17192e+06
-2.1374e+06
-2.09003e+06
-2.04261e+06
-1.96714e+06
-1.8715e+06
-1.95205e+06
-1.92142e+06
-1.87254e+06
-1.8166e+06
-1.72536e+06
-1.59535e+06
-1.68378e+06
-1.65747e+06
-1.61057e+06
-1.55033e+06
-1.45665e+06
-1.33868e+06
-1.34123e+06
-1.3217e+06
-1.28545e+06
-1.23514e+06
-1.16324e+06
-1.07271e+06
-992354
-979476
-954606
-917253
-863573
-794760
-636996
-628659
-613064
-588920
-554710
-510386
-286652
-283370
-276449
-265368
-249759
-229112
61976.1
60783.1
59418.1
57593.3
54786.9
51852
411324
405618
395865
381103
359812
333328
763811
753284
734551
706647
666536
616629
1.11925e+06
1.10346e+06
1.07451e+06
1.03344e+06
974364
901734
1.47119e+06
1.44703e+06
1.40564e+06
1.35172e+06
1.276e+06
1.1821e+06
1.81245e+06
1.78379e+06
1.73538e+06
1.67599e+06
1.58332e+06
1.46431e+06
2.0752e+06
2.04533e+06
1.99593e+06
1.9372e+06
1.83756e+06
1.69996e+06
2.27087e+06
2.24334e+06
2.20459e+06
2.15721e+06
2.07784e+06
1.95647e+06
-2.05518e+06
-2.02326e+06
-1.98186e+06
-1.94355e+06
-1.88598e+06
-1.8196e+06
-1.83131e+06
-1.80362e+06
-1.7608e+06
-1.71398e+06
-1.63911e+06
-1.54374e+06
-1.56619e+06
-1.54208e+06
-1.49933e+06
-1.44763e+06
-1.37147e+06
-1.28634e+06
-1.25417e+06
-1.23656e+06
-1.20368e+06
-1.16041e+06
-1.10143e+06
-1.03035e+06
-930958
-919417
-896929
-864326
-819639
-764741
-599206
-591634
-577518
-556344
-527674
-492102
-269567
-266586
-260337
-250581
-237409
-220700
59841.1
58754.6
57462.9
55829.9
53452
51154.6
389951
384727
375774
362714
344724
323477
721801
712099
694931
670336
636587
596757
1.05404e+06
1.03945e+06
1.01294e+06
977046
927755
870432
1.37944e+06
1.35701e+06
1.31897e+06
1.27297e+06
1.21062e+06
1.13743e+06
1.7006e+06
1.67493e+06
1.63134e+06
1.58099e+06
1.50262e+06
1.40324e+06
1.95563e+06
1.92871e+06
1.885e+06
1.83651e+06
1.75722e+06
1.64882e+06
2.15751e+06
2.13283e+06
2.10006e+06
2.06154e+06
1.99936e+06
1.90592e+06
-1.95347e+06
-1.92495e+06
-1.8904e+06
-1.86082e+06
-1.81867e+06
-1.77501e+06
-1.72626e+06
-1.70153e+06
-1.6652e+06
-1.62458e+06
-1.57152e+06
-1.50723e+06
-1.46124e+06
-1.44057e+06
-1.40435e+06
-1.36056e+06
-1.30746e+06
-1.24927e+06
-1.1771e+06
-1.16175e+06
-1.13324e+06
-1.09741e+06
-1.05062e+06
-995274
-875524
-865550
-845901
-818182
-781729
-738550
-564525
-557950
-545673
-527662
-504147
-475940
-253645
-251044
-245607
-237270
-226399
-213043
57955
57003.9
55827.5
54414.9
52447.7
50678.8
370189
365594
357677
346475
331619
314815
683153
674556
659411
638388
610630
579276
995012
982081
958734
928299
888022
843318
1.29787e+06
1.27803e+06
1.24477e+06
1.20775e+06
1.15637e+06
1.10007e+06
1.60124e+06
1.57912e+06
1.5405e+06
1.49598e+06
1.42938e+06
1.35154e+06
1.85156e+06
1.82851e+06
1.79149e+06
1.75261e+06
1.69007e+06
1.60456e+06
2.0579e+06
2.03693e+06
2.01014e+06
1.97954e+06
1.93176e+06
1.86083e+06
-1.86528e+06
-1.84071e+06
-1.81236e+06
-1.79029e+06
-1.76025e+06
-1.73247e+06
-1.62812e+06
-1.60675e+06
-1.57639e+06
-1.55677e+06
-1.52645e+06
-1.46998e+06
-1.36929e+06
-1.35208e+06
-1.3219e+06
-1.29812e+06
-1.26512e+06
-1.21264e+06
-1.1099e+06
-1.09741e+06
-1.07368e+06
-1.0446e+06
-1.00762e+06
-964093
-825796
-817300
-800571
-777497
-748266
-714755
-533124
-527647
-517259
-502226
-483189
-460996
-238978
-236779
-232181
-225209
-216382
-205803
56296.2
55489
54445.5
53255.1
51662
50326.3
352106
348186
341375
331985
319938
306814
647980
640593
627612
610040
587610
563217
942048
930958
911043
885734
853368
818865
1.22754e+06
1.21078e+06
1.18253e+06
1.15143e+06
1.11011e+06
1.06753e+06
1.50885e+06
1.48986e+06
1.45603e+06
1.41615e+06
1.36236e+06
1.30313e+06
1.76035e+06
1.74152e+06
1.71113e+06
1.6795e+06
1.62945e+06
1.55809e+06
1.96788e+06
1.95096e+06
1.93007e+06
1.9063e+06
1.87131e+06
1.81841e+06
-1.78755e+06
-1.76718e+06
-1.74379e+06
-1.72637e+06
-1.70522e+06
-1.68882e+06
-1.56734e+06
-1.55248e+06
-1.53076e+06
-1.50701e+06
-1.47282e+06
-1.42322e+06
-1.31554e+06
-1.30419e+06
-1.28264e+06
-1.25365e+06
-1.21678e+06
-1.17452e+06
-1.05246e+06
-1.04273e+06
-1.02326e+06
-998985
-969140
-934797
-781430
-774195
-760280
-741415
-718328
-692512
-504712
-500261
-491646
-479271
-464014
-446642
-225543
-223733
-219929
-214186
-207100
-198775
54841.2
54172.3
53262.9
52281
51016.6
50032.9
335636
332366
326626
318889
309263
299133
616098
609891
599004
584559
566684
547907
894574
885298
868728
847999
822338
795920
1.16457e+06
1.15079e+06
1.12749e+06
1.10163e+06
1.07e+06
1.03828e+06
1.4224e+06
1.40623e+06
1.37716e+06
1.34464e+06
1.30432e+06
1.27593e+06
1.67724e+06
1.66247e+06
1.6365e+06
1.60816e+06
1.56637e+06
1.52736e+06
1.88558e+06
1.87286e+06
1.85779e+06
1.84042e+06
1.81657e+06
1.77875e+06
-1.71394e+06
-1.69716e+06
-1.67816e+06
-1.66476e+06
-1.65107e+06
-1.64335e+06
-1.4909e+06
-1.47919e+06
-1.46041e+06
-1.43865e+06
-1.41182e+06
-1.37068e+06
-1.249e+06
-1.23986e+06
-1.22235e+06
-1.19918e+06
-1.17231e+06
-1.13934e+06
-1.0008e+06
-992869
-976981
-956983
-933233
-906238
-741854
-735806
-724440
-709148
-691005
-671068
-478872
-475308
-468273
-458198
-446071
-432505
-213227
-211758
-208664
-203985
-198343
-191822
53564.1
53020.8
52238.1
51444.3
50461.8
49761.1
320631
317944
313183
306899
299303
291568
587148
582009
573034
561326
547252
532914
851844
844215
830693
813995
793861
773542
1.10855e+06
1.09769e+06
1.07915e+06
1.05899e+06
1.03497e+06
1.01042e+06
1.34534e+06
1.33264e+06
1.31355e+06
1.30174e+06
1.28267e+06
1.25058e+06
1.59406e+06
1.58285e+06
1.56677e+06
1.55906e+06
1.53824e+06
1.49855e+06
1.81131e+06
1.80255e+06
1.79228e+06
1.78039e+06
1.76469e+06
1.73741e+06
-1.64488e+06
-1.63158e+06
-1.61514e+06
-1.60376e+06
-1.5939e+06
-1.59071e+06
-1.41716e+06
-1.40761e+06
-1.39021e+06
-1.37098e+06
-1.3493e+06
-1.3174e+06
-1.19085e+06
-1.18365e+06
-1.1696e+06
-1.15166e+06
-1.13062e+06
-1.10512e+06
-953205
-946781
-933882
-917683
-899012
-877963
-706011
-701110
-691923
-679595
-665348
-649887
-455169
-452330
-446651
-438511
-428929
-418355
-201859
-200672
-198191
-194410
-189946
-184853
52447.9
52014.9
51345.7
50713.9
49965.6
49488.8
306915
304732
300827
295771
289835
283986
560764
556553
549226
539803
528796
517955
813160
806910
795922
782431
766581
751084
1.06042e+06
1.05177e+06
1.03686e+06
1.02057e+06
1.00133e+06
981891
1.30566e+06
1.29792e+06
1.28006e+06
1.26179e+06
1.23735e+06
1.21036e+06
1.54557e+06
1.53982e+06
1.52506e+06
1.51095e+06
1.4829e+06
1.44738e+06
1.74226e+06
1.73671e+06
1.72965e+06
1.72117e+06
1.71003e+06
1.69166e+06
-1.575e+06
-1.56494e+06
-1.56105e+06
-1.56191e+06
-1.56248e+06
-1.56813e+06
-1.34744e+06
-1.33993e+06
-1.33428e+06
-1.32912e+06
-1.31956e+06
-1.29982e+06
-1.13858e+06
-1.13275e+06
-1.12164e+06
-1.10817e+06
-1.09194e+06
-1.07182e+06
-909462
-904289
-893914
-880905
-866264
-849930
-673020
-669169
-661830
-651940
-640736
-628686
-433174
-430919
-426383
-419847
-412307
-404068
-191259
-190302
-188338
-185300
-181781
-177810
51473.9
51132.7
50562.8
50067.7
49509.9
49205.8
294276
292516
289343
285311
280710
276321
536483
533050
527132
519615
511069
502920
777513
772268
763379
752545
740181
728539
1.01551e+06
1.00846e+06
996384
983047
967661
952530
1.24652e+06
1.24057e+06
1.22582e+06
1.21242e+06
1.19367e+06
1.17324e+06
1.47436e+06
1.4701e+06
1.45552e+06
1.44328e+06
1.41914e+06
1.39113e+06
1.67362e+06
1.67067e+06
1.66635e+06
1.66094e+06
1.65372e+06
1.64279e+06
-1.53497e+06
-1.528e+06
-1.51989e+06
-1.51333e+06
-1.5107e+06
-1.51181e+06
-1.3109e+06
-1.30648e+06
-1.2972e+06
-1.28698e+06
-1.27551e+06
-1.25493e+06
-1.09111e+06
-1.0867e+06
-1.07794e+06
-1.06707e+06
-1.05409e+06
-1.03817e+06
-868883
-864691
-856468
-846056
-834513
-821707
-642213
-639229
-633419
-625489
-616634
-607166
-412533
-410745
-407155
-401925
-395999
-389575
-181266
-180497
-178959
-176527
-173760
-170664
50626.5
50359.5
49874.4
49491
49083.2
48907.9
282531
281125
278561
275362
271813
268534
513933
511182
506425
500440
493810
487664
744305
739950
732831
724188
714575
705756
972598
966898
957240
946457
934307
922465
1.19413e+06
1.18912e+06
1.17789e+06
1.16698e+06
1.15196e+06
1.13527e+06
1.40307e+06
1.39919e+06
1.38618e+06
1.37446e+06
1.35635e+06
1.33367e+06
1.60473e+06
1.60341e+06
1.60023e+06
1.59489e+06
1.5908e+06
1.58421e+06
-1.46907e+06
-1.46383e+06
-1.45769e+06
-1.45196e+06
-1.4497e+06
-1.45125e+06
-1.25604e+06
-1.25201e+06
-1.24554e+06
-1.23811e+06
-1.22941e+06
-1.21262e+06
-1.04592e+06
-1.04212e+06
-1.03522e+06
-1.02633e+06
-1.01583e+06
-1.00277e+06
-830627
-827239
-820771
-812411
-803208
-792977
-612986
-610672
-606094
-599728
-592695
-585201
-392942
-391520
-388698
-384518
-379854
-374834
-171749
-171131
-169938
-167996
-165819
-163399
49886.1
49676.4
49262.1
48967.2
48674.6
48594.7
271496
270376
268310
265778
263046
260605
492694
490502
486687
481928
476784
472138
713033
709513
703825
696936
689447
682680
931974
927472
919826
911141
901542
892122
1.14593e+06
1.14167e+06
1.13344e+06
1.12449e+06
1.11281e+06
1.09887e+06
1.35109e+06
1.34985e+06
1.3449e+06
1.34145e+06
1.33208e+06
1.312e+06
1.552e+06
1.55405e+06
1.55664e+06
1.55897e+06
1.56172e+06
1.55577e+06
-1.40151e+06
-1.39776e+06
-1.39375e+06
-1.39916e+06
-1.40609e+06
-1.40805e+06
-1.2047e+06
-1.20141e+06
-1.19667e+06
-1.19123e+06
-1.18466e+06
-1.17075e+06
-1.00143e+06
-998409
-992991
-985803
-977299
-966350
-793904
-791197
-786127
-779388
-771959
-763604
-584901
-583074
-579475
-574354
-568738
-562755
-374138
-373001
-370791
-367447
-363763
-359821
-162595
-162098
-161181
-159629
-157912
-156010
49232
49064.2
48708.5
48482.1
48275.7
48264.4
261009
260112
258447
256442
254337
252526
472464
470710
467655
463865
459860
456333
683273
680444
675905
670383
664485
659242
893175
889567
883561
876565
868897
861370
1.09958e+06
1.09628e+06
1.09002e+06
1.08274e+06
1.07339e+06
1.06219e+06
1.30181e+06
1.30079e+06
1.29584e+06
1.28978e+06
1.28063e+06
1.26361e+06
1.49569e+06
1.49772e+06
1.49855e+06
1.49765e+06
1.49857e+06
1.49258e+06
-1.35771e+06
-1.3556e+06
-1.35426e+06
-1.35257e+06
-1.35157e+06
-1.353e+06
-1.1555e+06
-1.15283e+06
-1.14929e+06
-1.14485e+06
-1.13918e+06
-1.12659e+06
-957869
-955523
-951287
-945422
-938329
-928922
-758144
-756026
-752056
-746587
-740496
-733555
-557619
-556162
-553332
-549196
-544677
-539851
-355910
-354994
-353267
-350583
-347657
-344539
-153710
-153310
-152610
-151367
-150007
-148501
48645.7
48508.2
48201.3
48026.7
47883
47917.8
250939
250214
248869
247276
245648
244301
453004
451593
449145
446116
442973
440266
654648
652400
648789
644348
639642
635496
855703
852796
848038
842348
836113
830000
1.05461e+06
1.05177e+06
1.04678e+06
1.04078e+06
1.03313e+06
1.02372e+06
1.24893e+06
1.24794e+06
1.24408e+06
1.23941e+06
1.23204e+06
1.21801e+06
1.4291e+06
1.43059e+06
1.43071e+06
1.43026e+06
1.43133e+06
1.42669e+06
-1.29895e+06
-1.29715e+06
-1.29649e+06
-1.29644e+06
-1.29706e+06
-1.29852e+06
-1.10589e+06
-1.10385e+06
-1.10124e+06
-1.09769e+06
-1.09279e+06
-1.08119e+06
-914845
-913003
-909708
-904880
-898830
-890566
-723026
-721356
-718248
-713772
-708699
-702837
-530910
-529735
-527506
-524144
-520468
-516529
-338097
-337355
-336003
-333839
-331496
-329004
-145020
-144699
-144165
-143167
-142081
-140878
48114.3
47998.6
47732.5
47596.4
47496.5
47558.6
241184
240592
239501
238228
236957
235945
434116
432971
431004
428564
426067
423956
626830
625034
622144
618532
614714
611346
819186
816848
813053
808385
803228
798080
1.01023e+06
1.00795e+06
1.00396e+06
998986
992612
984430
1.19837e+06
1.19736e+06
1.19448e+06
1.19077e+06
1.18496e+06
1.17273e+06
1.38428e+06
1.38616e+06
1.38791e+06
1.38883e+06
1.3907e+06
1.38745e+06
-1.23999e+06
-1.23862e+06
-1.23837e+06
-1.23943e+06
-1.24133e+06
-1.24291e+06
-1.05555e+06
-1.05399e+06
-1.0521e+06
-1.04928e+06
-1.04504e+06
-1.03426e+06
-872019
-870548
-867986
-863979
-858730
-851351
-688303
-686967
-684520
-680822
-676532
-671514
-504603
-503643
-501877
-499122
-496093
-492836
-320580
-319975
-318912
-317153
-315257
-313243
-136468
-136210
-135803
-134995
-134122
-133151
47628.8
47529
47297.5
47189.5
47118.4
47192.7
231666
231174
230284
229257
228249
227477
415638
414696
413102
411116
409100
407420
599544
598086
595753
592780
589624
586819
783330
781458
778421
774543
770171
765684
966439
964616
961439
957274
951777
944426
1.14804e+06
1.1472e+06
1.14505e+06
1.14206e+06
1.13713e+06
1.12593e+06
1.32591e+06
1.32723e+06
1.32843e+06
1.32925e+06
1.33131e+06
1.32908e+06
-1.18109e+06
-1.18025e+06
-1.18052e+06
-1.18187e+06
-1.18395e+06
-1.18536e+06
-1.0047e+06
-1.00357e+06
-1.00222e+06
-999963
-996204
-986161
-829190
-828014
-826013
-822655
-818042
-811393
-653790
-652707
-650761
-647673
-643997
-639649
-478563
-477770
-476357
-474076
-471545
-468815
-303269
-302771
-301928
-300485
-298930
-297281
-128011
-127801
-127488
-126830
-126120
-125329
47182
47094.7
46893.1
46805.4
46752
46826
222321
221908
221175
220334
219520
218913
397451
396663
395359
393720
392061
390686
572630
571425
569524
567041
564376
561976
747898
746394
743945
740672
736871
732851
922913
921476
918949
915402
910509
903734
1.0975e+06
1.09692e+06
1.09536e+06
1.09289e+06
1.08847e+06
1.07783e+06
1.26774e+06
1.26892e+06
1.26995e+06
1.27089e+06
1.27312e+06
1.27127e+06
-1.12135e+06
-1.12092e+06
-1.12155e+06
-1.12303e+06
-1.12517e+06
-1.12651e+06
-953461
-952631
-951701
-949890
-946534
-937168
-786308
-785360
-783781
-780941
-776847
-770815
-619380
-618492
-616924
-614316
-611128
-607320
-452693
-452030
-450884
-448973
-446830
-444510
-286097
-285682
-285002
-283804
-282511
-281143
-119615
-119443
-119199
-118655
-118070
-117420
46768.5
46691.9
46516.9
46444.6
46401.6
46465.6
213105
212754
212145
211447
210773
210274
379475
378808
377728
376355
374955
373790
545979
544968
543397
541289
538988
536872
712728
711502
709502
706690
703311
699632
879462
878312
876285
873210
868760
862439
1.04627e+06
1.04593e+06
1.0448e+06
1.04272e+06
1.03866e+06
1.02855e+06
1.20898e+06
1.21014e+06
1.21111e+06
1.2122e+06
1.21444e+06
1.21282e+06
-1.06095e+06
-1.06081e+06
-1.06168e+06
-1.06331e+06
-1.06553e+06
-1.06684e+06
-901911
-901318
-900698
-899249
-896247
-887528
-743353
-742585
-741325
-738902
-735244
-729749
-585018
-584282
-582998
-580772
-577977
-574611
-426930
-426369
-425424
-423803
-421961
-419964
-269014
-268663
-268106
-267096
-266003
-264852
-111258
-111114
-110917
-110459
-109969
-109430
46383.4
46317.1
46167.3
46108.6
46072.6
46120.6
203986
203686
203175
202588
202017
201585
361654
361085
360179
359008
357800
356771
519515
518656
517338
515515
513482
511561
677703
676688
675024
672564
669502
666077
835958
835017
833360
830649
826544
820604
994338
994127
993309
991524
987774
978198
1.14924e+06
1.1503e+06
1.15131e+06
1.15249e+06
1.15465e+06
1.15327e+06
-1.00019e+06
-1.00026e+06
-1.0013e+06
-1.00303e+06
-1.00531e+06
-1.00662e+06
-850150
-849744
-849354
-848199
-845515
-837425
-700336
-699715
-698694
-696611
-693330
-688312
-550680
-550064
-548995
-547074
-544602
-541604
-401234
-400755
-399960
-398565
-396959
-395218
-251991
-251690
-251219
-250353
-249409
-248425
-102925
-102800
-102633
-102237
-101814
-101361
46022.1
45966.4
45842.2
45799.3
45772
45803.2
194940
194683
194253
193756
193262
192870
343950
343461
342692
341679
340612
339669
493189
492453
491328
489725
487891
486099
642774
641921
640505
638314
635495
632259
792397
791614
790223
787792
783968
778348
942002
941870
941254
939696
936211
927152
1.08859e+06
1.08955e+06
1.09057e+06
1.0918e+06
1.09384e+06
1.09267e+06
-939201
-939428
-940572
-942376
-944689
-946018
-798258
-797999
-797778
-796864
-794473
-787001
-657287
-656783
-655945
-654142
-651191
-646607
-516363
-515845
-514938
-513262
-511056
-508367
-375586
-375172
-374489
-373269
-371846
-370305
-235008
-234745
-234335
-233572
-232736
-231876
-94605.8
-94494.3
-94342
-93984.3
-93601.5
-93207.8
45678.7
45634.6
45538.6
45518.2
45508.3
45529.5
185947
185728
185368
184948
184522
184157
326332
325911
325252
324368
323413
322525
466973
466339
465361
463932
462251
460541
607946
607218
605984
604002
601373
598274
748855
748195
746991
744775
741182
735828
889444
889363
888874
887481
884220
875660
1.0271e+06
1.02796e+06
1.02897e+06
1.0302e+06
1.0321e+06
1.03113e+06
-878056
-878403
-879609
-881447
-883774
-885152
-746303
-746160
-746065
-745350
-743232
-736370
-614238
-613834
-613135
-611565
-608908
-604719
-482078
-481640
-480856
-479377
-477391
-474956
-349980
-349621
-349017
-347930
-346643
-345250
-218055
-217823
-217452
-216759
-215989
-215207
-86298.8
-86196.1
-86044.8
-85700.8
-85326.9
-84959.6
45345.9
45314.1
45250.6
45265.2
45292.8
45323.8
176986
176802
176505
176163
175812
175480
308771
308409
307842
307072
306223
305381
440847
440298
439437
438152
436603
434951
573248
572618
571519
569704
567231
564228
705457
704893
703817
701768
698364
693221
836866
836815
836393
835115
832040
823958
964861
965627
966571
967762
969499
968712
-816813
-817251
-818479
-820323
-822659
-824110
-694352
-694314
-694309
-693760
-691900
-685623
-571230
-570917
-570319
-568943
-566554
-562707
-447840
-447477
-446782
-445459
-443656
-441405
-324414
-324108
-323558
-322565
-321372
-320057
-201130
-200928
-200574
-199918
-199171
-198403
-78002.3
-77909
-77746
-77389.4
-76982.5
-76584.8
45015.9
44994.6
44968.2
45036.2
45139.6
45227.3
168040
167886
167648
167393
167150
166886
291238
290929
290439
289783
289065
288291
414786
414312
413542
412389
410986
409395
538711
538166
537162
535487
533170
530234
662370
661887
660892
658972
655736
650735
784563
784533
784129
782920
779997
772339
901940
902569
903389
904476
906043
905447
-755498
-755976
-757226
-759049
-761336
-762900
-642456
-642479
-642579
-642161
-640484
-634770
-528310
-528046
-527574
-526353
-524130
-520561
-413665
-413343
-412763
-411555
-409824
-407669
-298891
-298611
-298139
-297204
-295992
-294657
-184226
-184035
-183721
-183070
-182240
-181379
-69714.5
-69620.1
-69461
-69067
-68530.5
-67992.8
44682.5
44673.3
44673.8
44812.7
45076.4
45332.8
159087
158956
158773
158615
158548
158466
273698
273421
273012
272469
271932
271337
388746
388314
387644
386613
385381
383948
504332
503825
502935
501376
499201
496389
619784
619330
618439
616611
613483
608597
733078
733032
732670
731486
728617
721298
838614
839145
839829
840745
842058
841470
-694214
-694689
-695935
-697730
-699921
-701537
-590818
-590853
-591031
-590738
-589170
-583880
-485604
-485356
-484994
-483929
-481771
-478279
-379626
-379315
-378835
-377750
-375978
-373672
-273455
-273180
-272779
-271912
-270565
-268919
-167376
-167182
-166906
-166275
-165242
-163959
-61455.6
-61354
-61205.6
-60791.6
-60006.1
-58967
44333.5
44334
44347.8
44537.3
45075.2
45886.9
150120
150000
149851
149766
149981
150486
256136
255871
255514
255060
254794
254795
362697
362274
361673
360736
359745
358882
470084
469572
468755
467286
465293
462970
577892
577421
576594
574836
571798
567231
683443
683354
683000
681817
678919
671877
776492
776928
777515
778216
779033
778104
-632862
-633380
-634611
-636425
-638618
-639458
-539728
-539808
-540047
-539909
-538572
-532757
-443130
-442944
-442678
-441806
-439884
-435333
-345702
-345446
-345059
-344147
-342536
-338755
-248086
-247859
-247528
-246789
-245525
-242055
-150557
-150398
-150169
-149625
-148619
-145243
-53207.6
-53127.5
-53005.9
-52646.1
-51850.8
-48516.7
43979.2
43969.9
43973.4
44134.6
44702.5
47948.1
141135
141017
140872
140779
141031
144048
238524
238273
237932
237486
237253
239786
336552
336156
335580
334665
333688
335310
435747
435253
434464
433024
431004
431010
536416
535953
535150
533427
530279
527611
636893
636731
636329
635169
632163
626156
717441
717724
718039
718470
718739
716944
-574792
-575338
-576369
-577937
-579877
-580687
-490374
-490751
-490981
-490898
-489863
-485181
-404643
-404795
-404586
-403862
-402365
-399417
-318287
-318333
-318001
-317228
-316038
-314392
-231724
-231741
-231449
-230819
-229945
-229155
-145175
-145193
-144988
-144526
-143881
-143730
-58731.9
-58759
-58651.9
-58355.3
-57890.9
-58303.7
27620.6
27577.8
27573.7
27684.3
27957.4
26964.9
114020
113947
113800
113666
113669
111993
200748
200624
200285
199805
199380
196809
288282
288083
287501
286552
285448
281607
377398
377131
376297
374793
372697
366928
469552
469276
468288
466321
463072
454270
568639
568731
568103
566289
562868
549535
690447
690443
690995
691671
691331
684199
-536756
-537132
-538131
-539712
-541792
-544051
-458129
-458254
-458507
-458568
-457953
-455097
-379799
-379717
-379559
-379013
-377933
-376432
-301041
-300883
-300595
-299976
-299149
-298553
-222091
-221939
-221677
-221167
-220617
-220487
-143195
-143085
-142897
-142525
-142176
-142292
-64482.7
-64428
-64327.1
-64091.1
-63902.1
-64173.5
14017.5
14008
14009.5
14093.7
14112.7
13689.5
92394.5
92307
92181.9
92066
91844.6
91194
170876
170692
170397
169997
169394
168339
249868
249567
249055
248262
247056
245266
330037
329626
328876
327605
325519
322389
412535
412052
411108
409405
406303
400775
499914
499559
498721
496875
493416
484047
599126
598992
598982
598438
595248
591061
-497029
-497452
-498443
-500023
-502164
-504630
-425390
-425481
-425769
-425986
-425685
-423732
-354148
-354071
-353977
-353617
-352831
-352087
-282669
-282529
-282295
-281837
-281239
-281244
-211053
-210923
-210694
-210310
-209934
-210247
-139535
-139451
-139277
-139000
-138783
-139178
-68275.5
-68249.8
-68146
-67976.7
-67881.7
-68259.4
2655.36
2618
2637.3
2684.7
2652.43
2311.43
73300.6
73191.7
73101.2
72986.1
72770.3
72414.2
143832
143640
143401
143052
142537
142026
214580
214293
213861
213186
212191
211253
286089
285714
285057
283978
282279
280415
359231
358799
357923
356449
353946
350311
435574
435250
434301
432538
429789
423590
518595
518348
517841
516478
513070
512620
-456411
-456772
-457727
-459276
-461408
-463562
-392122
-392239
-392582
-392931
-392890
-390949
-327845
-327783
-327767
-327569
-327052
-326149
-263367
-263226
-263066
-262748
-262356
-262103
-198792
-198640
-198467
-198189
-197961
-197981
-134353
-134229
-134092
-133891
-133773
-133875
-70236
-70156.4
-70074.4
-69953.5
-69912.7
-70019.2
-6547.93
-6524.16
-6509.69
-6482.54
-6521.39
-6623.89
56710.2
56664.8
56589.8
56489
56325.7
56175.2
119658
119526
119328
119040
118659
118335
182554
182317
181958
181406
180660
179929
245832
245478
244924
244041
242756
241211
310150
309683
308920
307699
305813
302810
376543
376022
375103
373549
371543
366693
446812
446310
445588
443945
441177
442608
-415484
-415854
-416777
-418281
-420355
-422477
-358333
-358473
-358857
-359303
-359438
-357838
-300848
-300826
-300879
-300815
-300476
-299754
-243082
-242983
-242890
-242687
-242423
-242264
-185223
-185104
-184983
-184792
-184647
-184715
-127532
-127431
-127330
-127187
-127120
-127245
-70225.7
-70158.4
-70096.3
-70009.9
-69993.3
-70103.2
-13447
-13423.6
-13413.3
-13395.9
-13431.8
-13517.5
42760
42728.1
42667.8
42587.5
42463
42359
98463.2
98361.7
98203.2
97977
97688.3
97462.2
153855
153668
153378
152943
152375
151835
209269
208982
208529
207833
206852
205674
265202
264812
264171
263201
261786
259490
322367
321903
321080
319796
318393
314859
381877
381367
380552
378972
376942
379579
-374345
-374700
-375576
-377015
-379020
-381115
-324086
-324243
-324654
-325172
-325454
-324169
-273177
-273189
-273298
-273341
-273152
-272562
-221855
-221791
-221756
-221646
-221482
-221356
-170405
-170316
-170240
-170115
-170029
-170088
-119139
-119058
-118987
-118888
-118852
-118951
-68308.6
-68251.6
-68205.4
-68142.8
-68137.7
-68218.5
-18095.4
-18072.3
-18063.8
-18050
-18078.7
-18135.6
31415.7
31395
31349.3
31289.9
31197.2
31127.3
80244.8
80168.2
80045.3
79873.8
79656.2
79486.3
128524
128377
128150
127817
127383
126957
176504
176274
175913
175377
174631
173692
224560
224239
223717
222966