/*--------------------------------*- C++ -*----------------------------------*\
| =========                 |                                                 |
| \\      /  F ield         | OpenFOAM: The Open Source CFD Toolbox           |
|  \\    /   O peration     | Version:  v2012                                 |
|   \\  /    A nd           | Website:  www.openfoam.com                      |
|    \\/     M anipulation  |                                                 |
\*---------------------------------------------------------------------------*/
FoamFile
{
    version     2.0;
    format      ascii;
    class       volScalarField;
    location    "8";
    object      epsilonEq;
}
// * * * * * * * * * * * * * * * * * * * * * * * * * * * * * * * * * * * * * //

dimensions      [0 0 0 0 0 0 0];


internalField   nonuniform List<scalar> 
7666
(
0.000395311
0.00097218
0.00294116
0.00121493
0.00187897
0.00203733
0.00104278
0.00124198
0.00217737
0.0010054
0.00092568
0.00121417
0.00122322
0.0010853
0.000990805
0.00196574
0.00123717
0.00206006
0.0012946
0.000950945
0.000711714
0.00162063
0.00112999
0.00121566
0.00210532
0.000985851
0.00212199
0.000866973
0.0012298
0.00118474
0.00121226
0.00206674
0.000684217
0.00114647
0.000762557
0.000889111
0.000869611
0.0011972
0.00193405
0.00102679
0.00147778
0.00241449
0.00213564
0.00108315
0.00193563
0.00103165
0.00205738
0.00156644
0.00171166
0.000555961
0.000848578
0.0015762
0.00106049
0.00219263
0.000644195
0.0018612
0.000592353
0.000551267
0.00218485
0.00202415
0.000728576
0.00119767
0.00115854
0.00116951
0.000590263
0.00173817
0.000944755
0.000614749
0.00216464
0.00220788
0.00216338
0.000866628
0.000875
0.00117329
0.00117237
0.00105117
0.00165837
0.00109098
0.00109903
0.000732309
0.00108629
0.000904239
0.00129129
0.0019939
0.00127229
0.0015071
0.0014952
0.00163054
0.00163902
0.00120078
0.00111862
0.00112056
0.00162459
0.00233568
0.00203422
0.00194511
0.000751424
0.00317097
0.00130168
0.000930556
0.00163188
0.00117726
0.000829013
0.00257958
0.00118612
0.00187439
0.00224872
0.00179009
0.00103978
0.00156724
0.00111603
0.0017013
0.000985392
0.000697035
0.000897259
0.00190317
0.000878936
0.000784926
0.0012203
0.00121488
0.00212306
0.00116053
0.0011679
0.000987
0.0011812
0.000514543
0.00178172
0.00159049
0.00135019
0.00117669
0.00190858
0.00138854
0.000826223
0.00151575
0.00117379
0.00189594
0.00108065
0.00102937
0.00108095
0.00113373
0.00140045
0.000899329
0.000892251
0.00089665
0.00095599
0.00101699
0.00104047
0.000903737
0.000446103
0.00126498
0.00100218
0.00171929
0.000773355
0.00146332
0.00091451
0.000911996
0.00146664
0.00149045
0.00123154
0.00111356
0.0024246
0.00150272
0.001598
0.00220661
0.00268788
0.00260046
0.00127136
0.000560088
0.000562195
0.00244471
0.000963134
0.000865385
0.00152067
0.00141026
0.00168328
0.000618863
0.00168885
0.00190392
0.00125349
0.00124498
0.00158203
0.000910466
0.00147408
0.000778928
0.00166805
0.00191655
0.000874412
0.00117728
0.00215929
0.00112559
0.000992451
0.00104786
0.00104177
0.00106791
0.00177723
0.00201349
0.00103967
0.00106039
0.0010265
0.00115947
0.00167636
0.000813591
0.00125291
0.00193517
0.000808031
0.00230497
0.000939238
0.00127764
0.000787921
0.000754563
0.0021592
0.000789152
0.000887759
0.000908541
0.000906361
0.000821577
0.00108589
0.0020716
0.000768912
0.00168669
0.00213422
0.00242792
0.00121337
0.000887954
0.00144909
0.00146138
0.0021666
0.00163297
0.000699136
0.00127034
0.00123654
0.00115242
0.00165159
0.0018653
0.000865423
0.00117429
0.00199158
0.0015787
0.000876638
0.00115131
0.000903583
0.00142936
0.00115016
0.000680245
0.0009905
0.000909657
0.00130585
0.000952911
0.00249906
0.00171254
0.00168856
0.000815733
0.00195304
0.00140517
0.000875927
0.00118139
0.00153191
0.0016118
0.00178346
0.00110193
0.00155588
0.00205945
0.00192639
0.00161726
0.00100404
0.00130638
0.00111611
0.00192934
0.00227825
0.000405956
0.00103863
0.00101656
0.00116326
0.00158312
0.00045298
0.000965256
0.00184205
0.00182198
0.00152628
0.00153424
0.00107133
0.00190489
0.00109341
0.00118164
0.0010218
0.00125913
0.00160094
0.00216803
0.00117311
0.000921038
0.000924561
0.00232749
0.0020523
0.00107651
0.00108891
0.00240439
0.000916563
0.000540892
0.000574996
0.00130245
0.000910805
0.000921552
0.00101374
0.000847326
0.00117656
0.00073964
0.000710091
0.00167407
0.00128732
0.000699091
0.000642167
0.000526375
0.000514304
0.000512738
0.00088598
0.00131088
0.000894628
0.00129848
0.00131136
0.000904464
0.00141546
0.00141203
0.00193633
0.00136181
0.00111228
0.000879766
0.000436788
0.00121735
0.000620789
0.00110503
0.00110488
0.0015856
0.00393861
0.00113135
0.00214597
0.00216301
0.00197775
0.000762617
0.000867316
0.00117706
0.00108638
0.00194762
0.000757779
0.00134305
0.00152692
0.00134572
0.000864639
0.0019854
0.000880935
0.000850666
0.00117796
0.00194514
0.00212918
0.00071321
0.00224652
0.0017958
0.00121869
0.000902993
0.00195472
0.000819664
0.00130451
0.0018195
0.00154355
0.00190114
0.00090494
0.00212365
0.00190929
0.00184245
0.0010427
0.00198282
0.00122755
0.0013614
0.00116234
0.00129411
0.000971828
0.00110182
0.00142663
0.00283717
0.000702876
0.00217012
0.00214696
0.000972398
0.000370822
0.00169721
0.00185021
0.00134625
0.00177927
0.00201581
0.00253503
0.00118415
0.0011797
0.000618599
0.000581677
0.00159971
0.00197863
0.00263067
0.00101644
0.00116348
0.00094105
0.000849149
0.0019595
0.00145541
0.000889053
0.000693816
0.00439203
0.00136618
0.00136892
0.00187712
0.00197151
0.00206719
0.00224724
0.00117371
0.000826181
0.00197991
0.00222249
0.00167949
0.00164364
0.000998518
0.000923437
0.0021496
0.000962285
0.00111082
0.0011105
0.00115482
0.00081275
0.00111457
0.0010272
0.00182315
0.00128864
0.00224092
0.00108087
0.00392158
0.00123024
0.00117924
0.000828457
0.000920237
0.00103743
0.0010724
0.00119271
0.00122831
0.0019489
0.000529851
0.0010591
0.00106879
0.000946438
0.00117868
0.00100258
0.00105283
0.00106677
0.00100286
0.000448846
0.000657404
0.0014426
0.00185129
0.00088436
0.00159899
0.00104176
0.00122948
0.00105922
0.00151402
0.00170336
0.00123418
0.00308567
0.00216642
0.000815714
0.00101771
0.00101493
0.00165451
0.00155924
0.000902176
0.00151972
0.00105159
0.00105349
0.00208836
0.00203542
0.00160493
0.00091231
0.00147115
0.000877934
0.00129647
0.000766917
0.00198846
0.00127866
0.000860919
0.00126816
0.000872066
0.00117383
0.00129053
0.00241138
0.00119112
0.00112903
0.00114143
0.00118051
0.000816044
0.000974961
0.00229441
0.00237988
0.00237269
0.000997746
0.000823197
0.00094777
0.00103863
0.00200416
0.000751467
0.00104322
0.000679074
0.00090832
0.00319964
0.000411086
0.000897404
0.000818481
0.00188492
0.00190745
0.000885427
0.000887115
0.0011867
0.00117923
0.00118388
0.0014958
0.000677979
0.000693232
0.00237277
0.00193838
0.00127059
0.00129443
0.00108545
0.000907504
0.00411742
0.00072423
0.000859385
0.00117402
0.00222995
0.00186394
0.000754128
0.00207283
0.000916294
0.00155757
0.0017364
0.00115853
0.0011523
0.00201148
0.00218192
0.00205933
0.00133604
0.00174229
0.00203329
0.00212281
0.00225756
0.00144578
0.000960374
0.00191069
0.000926184
0.00182687
0.00201527
0.00130294
0.000820461
0.00109158
0.000349582
0.00156124
0.00150282
0.00186147
0.00154545
0.00113634
0.0013119
0.00127454
0.000540989
0.000845602
0.000882966
0.0029339
0.00108134
0.00129085
0.000940221
0.00151787
0.000919632
0.00171681
0.000675861
0.00206363
0.00232368
0.00202592
0.00206182
0.0018946
0.000960721
0.00086138
0.000853668
0.00149433
0.0020698
0.00222951
0.000919188
0.00111027
0.00206511
0.00118834
0.00206147
0.00144171
0.000935237
0.000905489
0.000768948
0.00119828
0.000886415
0.00118525
0.00113555
0.00102552
0.00209539
0.00175894
0.00176821
0.000590177
0.000969391
0.00143918
0.000812772
0.00193137
0.00207812
0.00220089
0.00219981
0.00041323
0.00102436
0.000917897
0.00111907
0.000877048
0.000879558
0.00117186
0.00116823
0.00103038
0.000413369
0.00159353
0.000903586
0.00101101
0.00111149
0.00120969
0.000458473
0.00132937
0.00207661
0.00116821
0.00244336
0.00103382
0.00157297
0.00100567
0.00080808
0.00127824
0.000980866
0.00133936
0.000866678
0.00162706
0.00102888
0.000376605
0.000798239
0.000841057
0.00117892
0.000784607
0.000367572
0.00165322
0.000772636
0.00186288
0.00156058
0.00131537
0.00130083
0.00222051
0.00216995
0.00179044
0.00180865
0.000897374
0.000897581
0.000662022
0.00212924
0.00150624
0.00206952
0.000934238
0.00143502
0.000329521
0.00247461
0.00221514
0.00129464
0.00078101
0.000419842
0.000951984
0.000787285
0.00158062
0.00229197
0.00120609
0.000966042
0.00226975
0.000941711
0.00226604
0.00174739
0.00209266
0.00122236
0.00134474
0.00164536
0.000743011
0.0016467
0.00204533
0.00204903
0.00211782
0.000998186
0.000695926
0.00132508
0.0010161
0.00203481
0.00198538
0.00224881
0.00197466
0.0020807
0.000950957
0.00145375
0.00221208
0.00166444
0.00131786
0.00171987
0.003361
0.000446824
0.00120336
0.00195169
0.000858536
0.00171793
0.00294994
0.00166768
0.00140198
0.000829084
0.00127448
0.000871605
0.00122841
0.0017053
0.00172491
0.00167889
0.000833681
0.00118026
0.000730612
0.00229894
0.000901601
0.00193778
0.00232375
0.000897203
0.00156183
0.00129278
0.000857015
0.00146256
0.00145208
0.0021927
0.00158925
0.00114126
0.00274406
0.00171169
0.00227197
0.0065496
0.00182662
0.00215173
0.00114818
0.00166746
0.000893448
0.00185621
0.00269736
0.00110472
0.00103499
0.00116778
0.00117484
0.00105782
0.000743581
0.00114114
0.00190573
0.00190856
0.00185333
0.000762028
0.00190862
0.000942348
0.00174353
0.00142948
0.00223859
0.000804181
0.000740728
0.00202309
0.0009985
0.00212207
0.00112723
0.00222595
0.00119795
0.000904414
0.000900259
0.000901664
0.00198019
0.00108875
0.000983485
0.000983203
0.000973889
0.00154463
0.000871921
0.0012225
0.00107343
0.00106295
0.00102354
0.00190069
0.00202383
0.00305933
0.00167225
0.00106603
0.00117473
0.00116776
0.00236824
0.00118991
0.00165872
0.000734627
0.000773249
0.000775371
0.000728941
0.00123052
0.00134099
0.00205947
0.000698659
0.00181831
0.00107622
0.00158072
0.00082312
0.0010001
0.000703518
0.00185364
0.00144401
0.00221141
0.00100702
0.00154863
0.000921037
0.000869518
0.000668742
0.000688716
0.0022255
0.000885835
0.00208749
0.000579896
0.00115616
0.00131181
0.00118533
0.000453685
0.000725808
0.002073
0.00180007
0.00111036
0.00147625
0.000538234
0.000835186
0.00156406
0.000895765
0.00114218
0.0011366
0.00151553
0.00121504
0.00153708
0.00370769
0.00127172
0.00174737
0.00158123
0.00168267
0.0011034
0.00107535
0.00143035
0.000680513
0.000960097
0.00177758
0.00126422
0.000645983
0.00187034
0.00142542
0.00252667
0.00115135
0.00112403
0.00109497
0.00119067
0.00156346
0.00160756
0.00161719
0.00220356
0.00160794
0.00115879
0.00186036
0.00199432
0.00185565
0.00115497
0.000893685
0.000908343
0.00120262
0.00102495
0.00101446
0.00107083
0.00106597
0.0004736
0.000502946
0.000974174
0.00100048
0.00105389
0.000423253
0.000861473
0.00101874
0.000713892
0.000901967
0.00143995
0.00142384
0.000994125
0.00140316
0.00084027
0.00129374
0.00100068
0.00127216
0.00131535
0.00124684
0.00134136
0.00222472
0.0013998
0.000820674
0.00196672
0.00146699
0.00110462
0.000901013
0.000576316
0.000948339
0.00168332
0.00170086
0.00185002
0.00172627
0.00125321
0.00136443
0.000356791
0.000944428
0.00186245
0.00711123
0.00145064
0.000891353
0.0018073
0.00180972
0.000960369
0.00114698
0.0015617
0.00129622
0.00189901
0.00225593
0.000693835
0.00102772
0.00178693
0.001858
0.000982306
0.000708039
0.00159293
0.00147909
0.00158318
0.00293132
0.00112803
0.00132186
0.00208015
0.00214724
0.00210665
0.00100117
0.00114495
0.00091248
0.00144276
0.000475257
0.00120148
0.00195729
0.000836809
0.00137731
0.00172697
0.00117413
0.00705449
0.00174455
0.00166415
0.00184012
0.00187086
0.00177591
0.00117951
0.00201196
0.000934613
0.00105456
0.000990568
0.000885122
0.000850268
0.0014086
0.00116265
0.00142263
0.000977582
0.00166917
0.000970329
0.000962382
0.000935517
0.00081966
0.00171908
0.00202566
0.00200351
0.00208217
0.00124479
0.00119688
0.00133798
0.000998062
0.00163433
0.00136705
0.00311217
0.00221444
0.00149582
0.00153541
0.0023587
0.00196101
0.00208618
0.00166491
0.00185201
0.00045452
0.00233627
0.00205675
0.00110145
0.00216557
0.00138379
0.00126985
0.000868349
0.00228872
0.00142982
0.00213518
0.00126438
0.00127211
0.00192437
0.00094514
0.00153581
0.00127344
0.000919467
0.00195613
0.00141516
0.000818766
0.00239573
0.00194252
0.00128176
0.00126705
0.00087497
0.00148736
0.000649291
0.00290942
0.00123147
0.000616551
0.00102812
0.00100853
0.00198756
0.0011523
0.002001
0.000726013
0.00198708
0.000961082
0.00104639
0.00331842
0.00161226
0.000927393
0.00115696
0.00245236
0.00108756
0.000760396
0.00130073
0.000885504
0.00123948
0.00104934
0.00133563
0.00089754
0.00124962
0.00122892
0.00148333
0.00149115
0.0014566
0.00193828
0.00112413
0.00224746
0.00146261
0.00103186
0.000972527
0.00117474
0.00205032
0.000914979
0.00148303
0.00194035
0.000886187
0.000631552
0.000318488
0.00127228
0.000693831
0.000749767
0.00107508
0.000830162
0.00183387
0.000442984
0.00202656
0.00194082
0.00196679
0.00220983
0.00137162
0.000940104
0.00171898
0.00155225
0.00110472
0.00194809
0.00227399
0.00108764
0.00109853
0.000948001
0.000971625
0.00114572
0.00124204
0.00210394
0.00133932
0.00131804
0.00186614
0.00150809
0.000891581
0.00119925
0.00156454
0.00119086
0.00118565
0.00126236
0.00099632
0.0011881
0.000890104
0.000960826
0.00168426
0.000472673
0.00601757
0.00091531
0.00206351
0.00155317
0.00110635
0.00114995
0.00093496
0.000636823
0.000920459
0.000965883
0.00115947
0.000483982
0.00062583
0.00116526
0.00126396
0.00148143
0.00135585
0.00117308
0.00116159
0.0019066
0.00208341
0.00106923
0.00236516
0.00211597
0.00123034
0.00164804
0.000507061
0.00207675
0.00200401
0.0016773
0.00142678
0.00126039
0.00104951
0.00105003
0.00173727
0.00146692
0.00147121
0.00130319
0.00114561
0.00194327
0.00113658
0.0019235
0.00200145
0.00180954
0.00105427
0.000656882
0.00126929
0.00121716
0.00152096
0.00118898
0.00236838
0.00170577
0.00193975
0.000922264
0.00176686
0.00127854
0.00159738
0.00198553
0.00121347
0.00110842
0.00112544
0.00122872
0.00115815
0.00162434
0.00176535
0.000942003
0.0012405
0.000695734
0.000848455
0.00112478
0.00127904
0.00125791
0.0009952
0.000990816
0.0015548
0.000901828
0.00210195
0.00104519
0.00105495
0.000426132
0.00182774
0.00238302
0.000445758
0.00202588
0.00731453
0.00211928
0.0020148
0.00117097
0.0013972
0.000790231
0.00120365
0.00160683
0.000578915
0.00205314
0.00116707
0.00105225
0.000497595
0.00197023
0.00132191
0.00142581
0.000822025
0.00153272
0.000860179
0.000962715
0.00213713
0.00154678
0.000782466
0.000793021
0.0025952
0.000951863
0.000942288
0.00223928
0.000889156
0.00125934
0.00125409
0.00596654
0.00107881
0.00106754
0.00130118
0.0020024
0.0012372
0.00213621
0.0023308
0.00174508
0.00120999
0.00153564
0.00229354
0.0010139
0.00122934
0.00111894
0.0020262
0.00156917
0.00199308
0.000866965
0.00165947
0.00223281
0.000934736
0.00222661
0.00174363
0.00115604
0.00215606
0.00219669
0.00241659
0.00177194
0.000902835
0.0016873
0.00167659
0.00254429
0.000903803
0.00178129
0.00115364
0.000676847
0.00212732
0.0011821
0.0011159
0.000385235
0.00118542
0.00118614
0.00226931
0.00150574
0.000936284
0.000941288
0.000944411
0.00140381
0.00191378
0.00100076
0.00128663
0.00085274
0.00148186
0.002068
0.00196127
0.00217278
0.000475425
0.000446758
0.00196182
0.00205768
0.000910897
0.000412661
0.00042258
0.000931722
0.000517903
0.00139031
0.00107577
0.00176872
0.00105077
0.00257557
0.000531333
0.00130371
0.000552576
0.00101459
0.00211907
0.00216154
0.00214041
0.00182576
0.00199971
0.00220286
0.00204693
0.00145727
0.00152719
0.000877658
0.000653957
0.00168966
0.000655501
0.00117211
0.00136572
0.00177807
0.00107514
0.0007371
0.0016747
0.00171148
0.00154758
0.00136935
0.00157806
0.00158771
0.00144998
0.00129017
0.00183404
0.00177477
0.00176614
0.00181069
0.00217617
0.00209167
0.0022398
0.000958654
0.000749278
0.00193262
0.00212784
0.00284749
0.00182333
0.000990395
0.00219701
0.000966291
0.0012024
0.000435577
0.00111634
0.00177437
0.00159756
0.000582733
0.00195075
0.000753998
0.000543848
0.000532446
0.00247032
0.000899863
0.00159654
0.00218047
0.00203364
0.00106652
0.00202504
0.00142285
0.00117386
0.0013791
0.00211391
0.00117079
0.0014392
0.0010957
0.000761404
0.00048307
0.00197503
0.000864052
0.00124053
0.000865938
0.00133171
0.000854701
0.00133946
0.0013437
0.000880372
0.000602305
0.000805272
0.00112207
0.000879752
0.000883607
0.00125994
0.000514943
0.000620758
0.00141251
0.000999803
0.000464552
0.00115771
0.00211729
0.00114617
0.0024864
0.00110455
0.00192652
0.00230946
0.00104757
0.00206139
0.00218121
0.00114622
0.00195409
0.00128661
0.00200923
0.00200782
0.0011379
0.00122312
0.00120047
0.000968906
0.000588127
0.00188199
0.00222265
0.00214922
0.000797005
0.00201168
0.00108121
0.000869425
0.00096261
0.00105564
0.00173836
0.00112511
0.00118714
0.00184339
0.0018085
0.00119122
0.00114745
0.00240489
0.00180239
0.0020926
0.00129993
0.000454953
0.000798424
0.00105161
0.00155078
0.0014943
0.000896233
0.0010104
0.00100784
0.00158143
0.000973941
0.000982526
0.000990258
0.00153168
0.00101599
0.000957394
0.00126712
0.00158519
0.00113523
0.00112957
0.00141761
0.000781309
0.0011573
0.00115012
0.00393785
0.00120278
0.000890006
0.00104831
0.000653117
0.00073529
0.00110926
0.00163611
0.00220859
0.00127483
0.000738691
0.00216553
0.00162929
0.00131954
0.000881711
0.00130545
0.000891701
0.00106052
0.000997106
0.00219642
0.00141496
0.000782801
0.00172299
0.00185352
0.00174475
0.00183543
0.00215228
0.00205399
0.00197264
0.00107939
0.000629203
0.00613816
0.00242499
0.00219079
0.00135901
0.0022918
0.000641212
0.00112223
0.00103524
0.00103689
0.000645936
0.00105579
0.000905617
0.0027804
0.00188013
0.00135948
0.00128175
0.00210092
0.000927468
0.0010962
0.00131067
0.000881904
0.00207585
0.00175821
0.00116524
0.000508976
0.00214012
0.00188774
0.00166309
0.00203719
0.000601588
0.00250151
0.00201343
0.000951394
0.00150058
0.00121014
0.00209
0.000757696
0.000787175
0.00174277
0.00116376
0.00116507
0.00184794
0.000614029
0.00121133
0.00205793
0.000787791
0.00203667
0.000978781
0.00105149
0.00168497
0.00117269
0.000421444
0.000942392
0.000432303
0.00104494
0.00103874
0.00100059
0.000797557
0.00196267
0.00114052
0.000737981
0.00184293
0.00183998
0.00124771
0.00121948
0.00066558
0.000662727
0.00207416
0.00200699
0.00198059
0.00136281
0.000975674
0.00234028
0.000929585
0.000474388
0.000951275
0.00131269
0.000855149
0.00203531
0.00111075
0.00135327
0.00135492
0.00158074
0.00180591
0.00201301
0.000929927
0.00154607
0.00148425
0.000833252
0.00213614
0.00143897
0.000972185
0.00150733
0.000999507
0.00156716
0.00157959
0.0023423
0.000718094
0.000962327
0.000955892
0.00587498
0.00514205
0.000937038
0.00116063
0.00130432
0.00084545
0.00200714
0.000739067
0.00115649
0.00182052
0.00125175
0.000881365
0.00180366
0.00208086
0.000707917
0.00126447
0.00191165
0.00127061
0.00199634
0.00490789
0.00116732
0.00119057
0.000577488
0.0010914
0.00207566
0.00140019
0.0014035
0.00198972
0.00059964
0.00219421
0.000891246
0.00212048
0.00145836
0.00208597
0.00154311
0.00134552
0.000764691
0.00139633
0.00246761
0.00100385
0.00211281
0.00126044
0.00200262
0.00122528
0.00125006
0.0010852
0.00108734
0.000890292
0.00123142
0.0020365
0.0013665
0.00130115
0.000882999
0.00107355
0.00116547
0.00193473
0.0015067
0.00190289
0.00223261
0.00151459
0.00103542
0.00108007
0.00078698
0.000938002
0.000936132
0.00105097
0.00207883
0.00106308
0.00205026
0.00199981
0.00186365
0.000977233
0.000978267
0.0020435
0.00127705
0.000860712
0.00218402
0.00136524
0.00107219
0.00189136
0.00109717
0.00105804
0.00224058
0.00227027
0.00208438
0.00159763
0.00156183
0.00234769
0.00130253
0.00186495
0.00174139
0.00249098
0.0014482
0.00142453
0.00129326
0.000916178
0.00170094
0.00184777
0.000868801
0.000866775
0.00134666
0.00219133
0.00115078
0.000901332
0.000796366
0.00103996
0.00570026
0.00146874
0.00192127
0.000689104
0.00069393
0.00141699
0.000875193
0.00117432
0.00276554
0.00118344
0.000821453
0.000960382
0.000996767
0.000972063
0.00143211
0.00105792
0.00154816
0.000668563
0.00208718
0.00210271
0.00171173
0.000850612
0.000842874
0.00117607
0.00205448
0.0011456
0.00218124
0.00123687
0.00122132
0.00254059
0.00203088
0.00116942
0.000459734
0.000551198
0.00286333
0.000860303
0.00116967
0.000994706
0.00109097
0.00188365
0.00108555
0.000858047
0.00144623
0.000891038
0.000488996
0.00117144
0.00204078
0.00104711
0.00175043
0.000985048
0.000912404
0.00197674
0.00167637
0.00131279
0.00241493
0.00149326
0.0020056
0.00193377
0.00191535
0.00212785
0.000783383
0.00128348
0.00117468
0.00095241
0.00104211
0.00182592
0.00162161
0.00152948
0.000836636
0.000949096
0.000975323
0.00188267
0.00148152
0.0014743
0.00123467
0.000910926
0.000800126
0.000774455
0.00103914
0.00076642
0.000564494
0.000903613
0.00133991
0.00154566
0.00278507
0.000506756
0.001087
0.000618519
0.000440924
0.000852279
0.00225512
0.00227293
0.00140625
0.00153255
0.00103488
0.00255512
0.000907825
0.000730097
0.00193301
0.000399447
0.000876277
0.000946152
0.00240522
0.00175457
0.00153749
0.00258981
0.000757357
0.000965501
0.00102725
0.00197278
0.00175646
0.00147958
0.00207451
0.00282755
0.00085345
0.00117104
0.0019762
0.00156018
0.000681084
0.00208642
0.00132968
0.000927308
0.000942451
0.000709447
0.00127005
0.000988315
0.0021704
0.00110512
0.00109922
0.000757524
0.000777393
0.00110421
0.000947082
0.000944977
0.00097661
0.0019811
0.00196654
0.00200566
0.000964294
0.00140053
0.00227883
0.00187396
0.00188715
0.00160564
0.000740992
0.000758917
0.00182819
0.0020224
0.00180472
0.00130275
0.000853814
0.00108458
0.0018233
0.00205426
0.00299635
0.00208224
0.00188279
0.00182803
0.00202071
0.000746536
0.00117783
0.00159809
0.00243324
0.00115869
0.00204238
0.00105574
0.00090582
0.000912876
0.000927031
0.000860921
0.00183171
0.00168621
0.00171557
0.000971796
0.00223024
0.00150644
0.000952949
0.00173808
0.00192122
0.00111659
0.00101646
0.00132685
0.000858447
0.00110054
0.000983081
0.0022178
0.00151515
0.00127059
0.00192882
0.00121203
0.00118501
0.000854696
0.00157821
0.00205293
0.000815744
0.000831125
0.00117699
0.00117612
0.00122126
0.00187107
0.00185402
0.00211388
0.00053084
0.00103255
0.0010277
0.00151375
0.00169605
0.00207267
0.000987191
0.00195945
0.00142634
0.00157525
0.00150619
0.00216905
0.0010251
0.0010707
0.00106866
0.00258802
0.000909134
0.000896147
0.00274176
0.00103004
0.00144061
0.000363196
0.000909181
0.00153795
0.00255366
0.00136542
0.00101188
0.00117232
0.00249951
0.00163755
0.00099226
0.00203994
0.00180979
0.00119931
0.000478242
0.00105251
0.00144888
0.000696195
0.00522949
0.000978382
0.000893565
0.000820839
0.00173869
0.00277379
0.00238726
0.00184845
0.0011971
0.000889736
0.0014962
0.00217467
0.00114068
0.000910121
0.00179757
0.00172142
0.00108985
0.000569133
0.00109199
0.00151763
0.00152221
0.00176885
0.00205167
0.00121069
0.00119838
0.000719955
0.00204361
0.00121898
0.00192575
0.00117647
0.00113375
0.00117906
0.00186936
0.00119471
0.00123682
0.00213131
0.00247943
0.00130623
0.000939036
0.00157393
0.00203693
0.00073639
0.00146927
0.0013199
0.00087127
0.00104623
0.00260966
0.0012509
0.000886936
0.00192145
0.0013822
0.000844245
0.00128023
0.00127814
0.000704424
0.00172381
0.000853899
0.00136873
0.00133989
0.000894505
0.000899157
0.00114642
0.00127884
0.000665491
0.00152454
0.00135071
0.0015381
0.00173302
0.000954683
0.00252179
0.00191968
0.00122633
0.00089858
0.00203438
0.0012314
0.00117648
0.00250813
0.00188823
0.00147929
0.00154116
0.000637215
0.000866773
0.00116769
0.00164355
0.00184517
0.00178124
0.000920821
0.00153792
0.00211252
0.00176354
0.00197204
0.00136611
0.00122683
0.00149571
0.00114241
0.00121401
0.00123052
0.00220472
0.00124987
0.00210817
0.00134888
0.000826793
0.00119244
0.000885709
0.00224779
0.00170277
0.00095676
0.0013392
0.00168122
0.0012051
0.00166408
0.00204063
0.00123488
0.00152649
0.00157094
0.0008998
0.000610899
0.00128217
0.00204103
0.00114304
0.00139883
0.000724515
0.00207851
0.00187616
0.00101202
0.0019109
0.00117298
0.00209166
0.00119012
0.00153436
0.00188588
0.00126558
0.000877125
0.00127191
0.00103718
0.000753002
0.00192282
0.00186916
0.00115828
0.000634803
0.00145372
0.00097682
0.00222873
0.00175367
0.00219078
0.0015488
0.00172397
0.000981969
0.00185378
0.00118435
0.00129035
0.00136746
0.00165661
0.00167761
0.000891944
0.00102672
0.00121041
0.000887593
0.000954704
0.00225319
0.00110817
0.0010678
0.000812733
0.00136072
0.000890366
0.00089776
0.00178173
0.00101712
0.00165292
0.00121733
0.00101539
0.00142901
0.00166551
0.000794238
0.00222089
0.00158474
0.00142469
0.00107701
0.00189188
0.00104675
0.000849399
0.00117157
0.000827398
0.00117744
0.00213138
0.00095232
0.00193861
0.00133047
0.00114306
0.001059
0.00224498
0.00183402
0.00195099
0.000988387
0.00120213
0.00119572
0.00137806
0.00085957
0.00105448
0.00138098
0.000844571
0.00186084
0.00137309
0.00139953
0.000841521
0.00103849
0.00102363
0.00198703
0.00220761
0.00201826
0.0021854
0.00096949
0.00215508
0.00211637
0.00115602
0.00114886
0.00121498
0.00120449
0.00158919
0.0012483
0.00104348
0.00206446
0.00113121
0.000959478
0.00142528
0.00138136
0.0008223
0.00104454
0.00093252
0.000927776
0.00188593
0.00155334
0.00230967
0.00119276
0.000624589
0.000632023
0.000964977
0.0013395
0.00128378
0.00104712
0.00205132
0.000979989
0.00224849
0.00106386
0.00118308
0.000728385
0.00182067
0.00107967
0.000640488
0.00146232
0.00148352
0.00177005
0.00227741
0.00154479
0.00154119
0.00050972
0.000760495
0.00228272
0.00200957
0.0020924
0.00134196
0.000885141
0.00126165
0.00174802
0.00104788
0.00115352
0.00112291
0.00415978
0.000625361
0.00216486
0.00088354
0.0020641
0.00248936
0.00121941
0.00093784
0.000943309
0.00130151
0.000849847
0.00137486
0.00196923
0.00218185
0.00147641
0.000608671
0.00150541
0.00100232
0.00174464
0.00126767
0.000996176
0.00100256
0.00201029
0.0014008
0.00141494
0.00177156
0.000929704
0.00174771
0.00107225
0.00201623
0.00173791
0.00123554
0.00129865
0.00144739
0.00105898
0.00128086
0.00128706
0.0016273
0.000911477
0.00160466
0.00198088
0.00130937
0.00131176
0.00200316
0.00114825
0.00237553
0.00120228
0.00126006
0.00238648
0.00070508
0.00115032
0.000601856
0.000882307
0.00072416
0.000798278
0.000612979
0.00128322
0.000856377
0.000885387
0.00208685
0.00114094
0.00207618
0.0013378
0.000838465
0.0015515
0.00135962
0.00138194
0.00139532
0.00161618
0.00131383
0.00212026
0.00211183
0.00156622
0.00119057
0.000552505
0.00122265
0.00109307
0.00210626
0.000817266
0.00290974
0.000941129
0.00123947
0.00123644
0.00218363
0.00197887
0.0019341
0.000533
0.000984885
0.00105854
0.00162232
0.00181202
0.00160799
0.00119678
0.00111649
0.00111711
0.0015053
0.00279879
0.000704252
0.00208136
0.00105769
0.00105855
0.0010295
0.0016877
0.000887454
0.000896145
0.00123868
0.00117268
0.00149566
0.0015376
0.000867263
0.00109213
0.000763946
0.00151579
0.00274481
0.00133303
0.000922628
0.00127063
0.00128497
0.00103444
0.00100796
0.00157964
0.000793856
0.00209151
0.00197192
0.00163033
0.00117868
0.00102911
0.0011025
0.00101762
0.000940661
0.00124798
0.00150052
0.00152191
0.00148809
0.00139938
0.00137774
0.00106223
0.00112821
0.000938588
0.00218398
0.0015259
0.00164839
0.000438637
0.00289415
0.000745808
0.000993011
0.00132463
0.000844134
0.00137135
0.000810515
0.00301207
0.00164447
0.00244977
0.00182092
0.00133171
0.00124214
0.00193855
0.00263455
0.00117512
0.000542277
0.00182378
0.00161744
0.00331513
0.00145198
0.00106613
0.00205994
0.00159238
0.00138493
0.000841118
0.00114572
0.00208955
0.00219731
0.001086
0.000673039
0.00314586
0.00124348
0.000577505
0.00162441
0.000709145
0.00134172
0.0008373
0.00123598
0.00208185
0.00104141
0.00133509
0.00206712
0.00138771
0.00106558
0.0013167
0.00109635
0.00259384
0.00204618
0.00130458
0.00220175
0.00147662
0.00109706
0.000735923
0.00144313
0.00161016
0.00209323
0.00202353
0.00226164
0.00194011
0.00172991
0.00119223
0.00124306
0.000947496
0.00117938
0.000931752
0.000936663
0.000480717
0.00135648
0.000877063
0.00299744
0.00193777
0.00194744
0.00231438
0.0016765
0.000954468
0.0011782
0.00145845
0.000996463
0.000853242
0.00117493
0.0011846
0.00133394
0.0021027
0.00130861
0.000840889
0.00134404
0.000771785
0.00165693
0.00117158
0.000850781
0.00182679
0.00060354
0.000872903
0.00154302
0.00127827
0.000645844
0.00080673
0.00224195
0.000859868
0.00117721
0.00100731
0.0014144
0.0017604
0.00149335
0.000984177
0.00108383
0.00182806
0.00238883
0.0013531
0.000754082
0.0011032
0.000828249
0.00204438
0.000812806
0.00117965
0.00195065
0.0018424
0.00191429
0.00141233
0.000780642
0.00100568
0.00234807
0.000948974
0.00108896
0.00123832
0.000778031
0.00478432
0.000974604
0.00118973
0.000620668
0.00237085
0.00144123
0.0010983
0.000959882
0.00125892
0.00125225
0.000992559
0.00185262
0.00164494
0.00143897
0.000728403
0.000758156
0.00151368
0.000989071
0.00116713
0.00186261
0.00110679
0.00111536
0.00218485
0.00157956
0.000892523
0.00191458
0.000388379
0.00210242
0.00109343
0.00208466
0.00177205
0.00169718
0.00169537
0.00201345
0.00136386
0.00202409
0.0016861
0.00173289
0.00190083
0.00206983
0.00146408
0.00096766
0.00087824
0.00214771
0.00202542
0.00234565
0.00116949
0.00134391
0.00224943
0.00155402
0.000976533
0.000977176
0.00103683
0.00109971
0.00107554
0.00198566
0.00145677
0.00121054
0.00121278
0.00146842
0.00110425
0.00212309
0.00170312
0.00100103
0.00104559
0.0018485
0.00155446
0.00153879
0.000520709
0.00143344
0.000951938
0.000944121
0.00115679
0.00114678
0.000890333
0.000981914
0.000783066
0.000652117
0.000961215
0.00231411
0.00197535
0.000939861
0.00201134
0.00209531
0.00224699
0.0021617
0.00584404
0.00207603
0.00128663
0.00158379
0.00098924
0.0014566
0.000370328
0.00139405
0.00158946
0.00158808
0.00114511
0.00182273
0.000402572
0.000316695
0.00174312
0.000394185
0.00237455
0.000798477
0.00109638
0.000878252
0.00156266
0.00127714
0.00243295
0.00130363
0.00175211
0.00102416
0.00118897
0.00174377
0.00222243
0.000720777
0.00280855
0.00175454
0.00138861
0.00215335
0.000903615
0.00156138
0.00163185
0.000998965
0.000994462
0.00485305
0.00216858
0.00129554
0.000718171
0.00137338
0.000858174
0.00345043
0.00220608
0.000740315
0.00124689
0.00214712
0.000931576
0.000749244
0.00119731
0.00214376
0.00107734
0.00123387
0.0021361
0.00147357
0.00151029