/*--------------------------------*- C++ -*----------------------------------*\
| =========                 |                                                 |
| \\      /  F ield         | OpenFOAM: The Open Source CFD Toolbox           |
|  \\    /   O peration     | Version:  v2012                                 |
|   \\  /    A nd           | Website:  www.openfoam.com                      |
|    \\/     M anipulation  |                                                 |
\*---------------------------------------------------------------------------*/
FoamFile
{
    version     2.0;
    format      ascii;
    class       volScalarField;
    location    "8";
    object      sigmaHyd;
}
// * * * * * * * * * * * * * * * * * * * * * * * * * * * * * * * * * * * * * //

dimensions      [1 -1 -2 0 0 0 0];


internalField   nonuniform List<scalar> 
7666
(
1.29802e+07
4.45171e+07
1.27277e+08
4.70773e+07
5.36092e+07
7.07905e+07
5.26337e+07
4.97002e+07
8.4941e+07
5.38243e+07
3.45895e+07
5.04258e+07
4.86367e+07
4.881e+07
5.44295e+07
5.98999e+07
5.00655e+07
8.10329e+07
5.26003e+07
4.93366e+07
4.19341e+07
6.12957e+07
4.96165e+07
4.21504e+07
6.72638e+07
5.49946e+07
6.94485e+07
2.36379e+07
4.98299e+07
4.74645e+07
4.77119e+07
8.07643e+07
2.14061e+06
4.8691e+07
-1.5376e+07
4.50402e+07
4.54727e+07
4.82818e+07
7.20892e+07
5.30921e+07
1.57109e+07
1.09666e+08
1.19089e+08
2.76296e+07
9.31945e+07
5.25244e+07
7.87238e+07
1.85008e+07
3.4122e+07
3.24549e+07
2.01241e+07
6.09659e+07
5.1762e+07
8.68356e+07
3.96921e+07
5.57364e+07
3.27766e+07
3.09253e+07
6.38075e+07
7.32435e+07
3.71084e+07
4.86162e+07
4.82349e+07
4.78443e+07
2.99025e+07
3.68474e+07
5.37788e+07
3.2054e+07
6.55122e+07
6.38323e+07
6.64959e+07
6.03276e+07
5.97848e+07
4.69338e+07
4.69198e+07
5.19288e+07
7.2536e+07
4.78242e+07
4.70199e+07
3.68081e+07
5.17672e+07
5.77286e+07
3.20074e+07
1.14368e+08
5.07048e+07
5.96114e+07
5.83894e+07
6.39122e+07
2.74412e+07
4.77328e+07
5.09932e+07
5.17537e+07
6.42484e+07
7.73984e+07
7.94848e+07
4.21065e+07
-3.25018e+07
1.3491e+08
5.30984e+07
4.85357e+07
6.37704e+07
4.70899e+07
1.22339e+07
1.1086e+08
8.16694e+06
7.11916e+07
1.07639e+08
5.90802e+07
5.22921e+07
6.10986e+07
4.53108e+07
5.50528e+07
4.06977e+07
3.63501e+07
3.22466e+07
5.78428e+07
2.61472e+07
-2.61612e+07
4.93796e+07
4.96782e+07
8.17561e+07
4.70424e+07
5.14853e+07
5.50875e+07
4.24802e+07
3.15949e+07
5.76495e+07
5.53764e+07
4.36503e+07
5.10054e+07
6.08893e+07
5.51756e+07
4.67155e+07
7.04582e+07
5.09336e+07
7.11288e+07
5.15833e+07
5.29572e+07
4.94697e+07
4.2396e+07
4.46006e+07
5.82743e+07
5.45278e+07
5.49503e+07
5.39953e+07
5.13663e+07
5.22252e+07
5.84402e+07
1.22928e+07
5.15054e+07
5.46114e+07
3.00827e+07
3.78277e+07
1.38563e+07
5.17696e+07
5.14136e+07
1.55552e+07
4.59675e+07
4.48218e+07
5.01341e+07
9.6147e+07
5.8857e+07
6.11101e+07
1.09384e+08
1.1862e+08
1.14052e+08
4.51833e+07
3.01555e+07
3.00052e+07
9.55311e+07
4.2652e+07
3.32155e+07
5.83075e+07
5.50176e+07
2.51214e+07
3.76791e+07
5.71081e+07
7.46398e+07
4.95178e+07
4.76223e+07
5.88519e+07
-4.30191e+07
5.76027e+07
-2.81012e+07
3.43357e+07
4.28084e+07
5.96365e+07
4.63654e+07
6.28848e+07
4.97682e+07
4.25715e+07
5.16948e+07
5.24585e+07
4.9631e+07
5.34513e+07
7.39564e+07
4.55731e+07
5.14031e+07
5.35441e+07
-4.91723e+07
5.8789e+07
2.47227e+07
4.97702e+07
7.28059e+07
4.67453e+07
8.9896e+07
5.24274e+07
3.58054e+06
2.7914e+07
-1.39002e+07
7.38263e+07
2.80779e+07
5.39806e+07
5.72084e+07
5.85442e+07
3.48227e+07
4.47423e+07
7.68854e+07
3.34404e+07
6.57359e+07
8.49085e+07
1.03128e+08
4.79999e+07
5.47925e+07
5.7208e+07
4.87266e+07
9.31717e+07
7.42127e+07
4.23985e+07
4.59854e+07
4.59486e+07
5.01591e+07
2.68425e+07
3.89146e+07
6.04885e+07
4.62842e+07
9.42894e+07
6.20659e+07
-3.01679e+07
4.95627e+07
5.32683e+07
5.41311e+07
4.71674e+07
2.94487e+07
4.00878e+07
4.02142e+07
-5.64522e+07
3.96629e+07
1.00572e+08
5.63891e+07
5.69287e+07
3.81124e+07
5.92068e+07
5.58292e+07
5.87181e+07
4.6619e+07
7.44419e+07
6.21471e+07
5.70001e+07
-1.31402e+07
3.73602e+07
6.50306e+07
7.19318e+07
6.197e+07
5.46573e+07
-5.88246e+07
4.53523e+07
6.7236e+07
1.34642e+08
-1.36272e+06
5.2608e+07
5.42606e+07
5.0071e+07
6.2241e+07
-1.3312e+06
4.08909e+07
7.33483e+07
6.94461e+07
4.54001e+07
4.83681e+07
5.10639e+07
7.39311e+07
4.11168e+07
4.83629e+07
2.05752e+07
1.1831e+07
6.09253e+07
5.99494e+07
1.16563e+07
5.65724e+07
5.58027e+07
8.36029e+07
7.61763e+07
2.77823e+07
4.51941e+07
9.36272e+07
5.67461e+07
1.96425e+07
2.33632e+07
5.25421e+07
4.9564e+07
4.13803e+07
5.15027e+07
6.13152e+07
4.64408e+07
3.20283e+07
4.31251e+07
2.74225e+07
4.0019e+07
3.896e+07
7.84705e+06
2.98511e+07
2.4897e+07
2.61463e+07
4.08336e+07
5.22926e+07
4.97724e+07
3.07463e+07
5.29125e+07
4.9021e+07
5.02641e+07
5.01685e+07
7.63767e+07
5.45253e+07
4.91e+07
4.0208e+07
2.47473e+07
5.13618e+07
3.16654e+07
2.21427e+07
2.21708e+07
5.94797e+07
1.54789e+08
5.00651e+07
8.40017e+07
8.44773e+07
4.9769e+07
1.46821e+07
5.97053e+07
4.66852e+07
3.3428e+07
4.2474e+07
1.46032e+07
3.78116e+07
5.91097e+07
5.41422e+07
4.78984e+07
5.37301e+07
-8.06905e+06
6.11134e+07
4.6514e+07
7.15211e+07
5.61249e+07
4.3122e+07
6.64305e+07
7.78907e+07
4.29295e+07
5.32366e+07
6.84787e+07
-4.0822e+07
5.34502e+07
7.43629e+07
6.03293e+07
7.24804e+07
5.63317e+07
8.28016e+07
6.42752e+07
6.65535e+07
5.24957e+07
7.25754e+07
5.16436e+07
5.39306e+07
-5.58626e+07
5.25266e+07
5.5553e+07
-5.1973e+07
5.49413e+07
1.27507e+08
6.01685e+06
8.36286e+07
7.21925e+07
-1.41771e+07
1.3575e+07
2.46829e+07
6.89927e+07
5.36891e+07
3.58684e+07
7.31961e+07
1.07498e+08
4.7998e+07
4.74284e+07
2.03166e+07
2.11815e+07
7.90282e+07
7.28649e+07
1.29642e+08
4.57288e+07
4.7023e+07
3.68989e+07
-2.31737e+07
7.45656e+07
4.34387e+07
3.57091e+07
4.90075e+06
1.61515e+08
5.33711e+07
5.3655e+07
6.35451e+07
6.47775e+07
7.61281e+07
7.51795e+07
4.7737e+07
-9.24573e+06
6.68005e+07
7.17913e+07
6.24942e+07
6.04902e+07
5.11158e+07
5.51071e+07
9.58006e+07
-5.05548e+06
5.0653e+07
4.89562e+07
5.09352e+07
3.79356e+07
5.076e+07
1.86034e+07
7.11801e+07
5.2267e+07
7.35177e+07
2.52859e+07
1.24725e+08
4.41532e+07
4.63015e+07
6.22133e+07
5.63112e+07
2.18357e+07
4.71428e+07
5.07815e+07
5.18047e+07
4.8521e+07
1.18849e+07
4.75388e+07
4.90267e+07
5.59723e+07
4.76445e+07
-4.2452e+07
5.0889e+07
5.05567e+07
5.41238e+07
1.32029e+07
-2.2125e+07
4.29458e+07
7.37317e+07
3.61867e+07
5.77702e+07
5.33902e+07
3.68769e+07
4.90805e+07
5.31412e+07
7.98535e+07
3.64588e+07
1.50446e+08
8.18766e+07
-3.54308e+06
5.32714e+07
5.30814e+07
5.70995e+07
5.85632e+07
8.67632e+06
5.5865e+07
5.17601e+07
5.25699e+07
6.25184e+07
7.48319e+07
5.79343e+07
5.74343e+07
5.69751e+07
5.14878e+07
2.61137e+07
-7.41287e+06
4.62862e+07
5.07401e+07
5.13349e+07
4.98839e+07
5.21825e+07
1.45469e+07
4.45386e+07
9.09478e+07
5.11984e+07
5.11782e+07
4.32103e+07
4.61376e+07
6.28798e+07
4.79539e+07
7.32064e+07
9.04072e+07
9.40983e+07
5.13907e+07
8.63859e+06
4.17083e+07
3.79863e+07
7.68165e+07
2.28735e+06
3.74595e+07
3.70159e+07
5.83605e+07
1.57108e+08
-8.31932e+06
5.00999e+07
4.17857e+07
7.08871e+07
7.35678e+07
5.83486e+07
5.81671e+07
4.69172e+07
4.6722e+07
5.09604e+07
3.52417e+07
3.32449e+07
3.52029e+07
1.41274e+08
5.44273e+07
3.34938e+06
5.22382e+07
-4.41755e+07
5.71838e+07
1.53461e+08
4.27933e+07
5.99232e+07
4.62956e+07
6.90361e+07
6.85991e+07
3.58609e+07
7.68122e+07
-1.03192e+07
6.47581e+07
6.37535e+07
5.10385e+07
5.19402e+07
7.54398e+07
6.39497e+07
8.80873e+07
5.31369e+07
6.21468e+07
7.73519e+07
8.26897e+07
8.88182e+07
5.68086e+07
5.56075e+07
6.53223e+07
-1.20589e+07
5.09146e+07
8.58174e+07
5.09228e+07
-3.18639e+07
4.80728e+07
1.15203e+07
6.37538e+07
5.0971e+07
5.51468e+07
7.13226e+07
4.89197e+07
3.31287e+07
1.1514e+06
1.49827e+07
4.28761e+07
5.95449e+07
1.33893e+08
4.79419e+07
5.26268e+07
4.9356e+07
6.04914e+07
5.77937e+07
3.27469e+07
1.13681e+07
7.72696e+07
7.70294e+07
7.69676e+07
6.355e+07
7.52929e+07
3.21029e+07
5.01484e+07
-1.70683e+07
5.89188e+07
7.36783e+07
6.7979e+07
5.65124e+07
4.98459e+07
5.48602e+07
4.77344e+07
7.12923e+07
5.55493e+07
2.51299e+07
4.65999e+07
-1.0822e+07
5.17463e+07
5.74263e+07
4.70681e+07
5.19179e+07
-1.61411e+07
8.03298e+07
6.93467e+07
6.87036e+07
3.68124e+07
4.36186e+07
5.5294e+07
4.21371e+07
4.78918e+07
9.2675e+07
6.92795e+07
8.61478e+07
1.8468e+07
-1.0448e+07
4.56092e+07
5.07835e+07
5.94624e+07
5.95438e+07
4.72304e+07
4.72985e+07
5.35798e+07
1.73855e+07
5.99724e+07
-1.93803e+07
5.42988e+07
1.07836e+07
3.44676e+07
-1.34215e+07
5.19329e+07
7.62308e+07
5.03377e+07
1.2875e+08
8.93998e+06
6.20211e+07
-3.8871e+07
3.35106e+07
5.10626e+07
-1.60137e+07
5.29776e+07
4.89282e+07
5.80216e+07
4.79348e+07
6.83759e+06
-2.09448e+07
1.52164e+07
4.76436e+07
1.74544e+07
4.31863e+06
7.56808e+07
1.85447e+07
6.83084e+07
6.80688e+07
5.27772e+07
5.15583e+07
7.33442e+07
6.27354e+07
6.23611e+07
6.46021e+07
5.8729e+07
5.91031e+07
-1.5091e+07
6.46706e+07
2.18777e+07
8.04769e+07
4.65815e+07
1.81691e+07
9.61613e+06
1.37715e+08
7.538e+07
5.22482e+07
4.58424e+07
6.47867e+06
3.88123e+07
3.28324e+07
5.94838e+07
7.89614e+07
5.0194e+07
5.59217e+07
6.90882e+07
3.73536e+07
6.96191e+07
6.71852e+07
7.89028e+07
4.94684e+07
5.44028e+07
3.83968e+07
4.50952e+07
4.94978e+07
7.64714e+07
7.62269e+07
8.20538e+07
4.87138e+07
3.68395e+07
5.36516e+07
5.36242e+07
6.40117e+07
6.74142e+07
6.65877e+07
7.02123e+07
8.07665e+07
5.32593e+07
6.34617e+07
6.62882e+07
6.41122e+07
4.59564e+07
6.69768e+07
1.70209e+08
-8.92551e+06
5.13764e+07
7.5284e+07
1.88351e+07
5.3106e+07
1.42499e+08
6.49319e+07
5.54716e+07
4.62822e+07
4.99073e+07
5.19117e+07
3.5777e+07
6.58638e+07
8.0264e+07
3.76274e+07
6.2214e+07
4.62125e+07
3.47906e+07
8.4283e+07
5.73718e+07
7.28309e+07
8.04397e+07
5.35026e+07
2.36492e+07
5.14365e+07
5.06314e+07
5.77562e+07
5.74752e+07
7.87059e+07
6.03877e+07
5.09439e+07
1.31659e+08
3.99678e+07
8.33888e+07
1.17463e+08
6.91878e+07
7.57747e+07
4.9963e+07
2.77637e+07
5.75106e+07
6.18085e+07
1.3082e+08
5.03528e+07
2.8637e+07
5.12272e+07
5.17212e+07
3.16264e+07
3.54874e+07
4.95569e+07
6.81468e+07
7.01551e+07
6.90934e+07
3.4569e+07
7.32333e+07
5.16979e+07
6.89611e+07
5.59256e+07
7.09003e+07
4.70963e+07
4.25523e+07
7.59718e+07
5.49419e+07
5.90558e+07
4.49004e+07
7.35518e+07
4.83508e+07
5.66765e+07
5.36577e+07
4.20793e+07
6.64438e+07
3.33694e+07
5.48248e+07
5.49383e+07
5.48474e+07
6.60452e+07
4.54903e+07
4.96237e+07
5.08072e+07
5.03664e+07
-1.06295e+07
7.47417e+07
6.56313e+07
1.59936e+08
6.56505e+07
4.68015e+07
4.80722e+07
4.80609e+07
8.15084e+07
5.20473e+07
6.43119e+07
4.34082e+07
4.36589e+07
4.36223e+07
4.17e+07
5.11526e+07
5.34381e+07
7.8707e+07
2.22011e+07
7.0244e+07
4.99653e+07
6.05919e+07
4.02445e+07
5.3815e+07
3.86778e+07
4.86231e+07
4.57039e+07
7.61228e+07
5.36956e+07
5.38305e+07
5.80549e+07
5.1121e+07
3.90831e+07
4.09554e+07
1.00193e+08
5.86897e+07
5.84469e+07
2.91594e+07
4.85625e+07
5.24522e+07
4.89135e+07
-1.72195e+07
4.05235e+07
6.74562e+07
7.6668e+07
4.70126e+07
5.74923e+07
5.41885e+06
1.17817e+07
5.88608e+07
5.88992e+07
5.08755e+07
5.11658e+07
5.93051e+07
4.83461e+07
5.47094e+07
1.69534e+08
5.03035e+07
6.69166e+07
2.0141e+07
5.49594e+07
4.53274e+07
5.13479e+07
1.7777e+07
-2.64572e+07
4.30219e+07
3.40325e+07
4.47955e+07
-2.97794e+07
-7.87111e+07
5.64888e+07
1.05447e+08
4.88995e+07
5.09406e+07
5.18645e+07
5.11645e+07
6.16813e+07
4.5173e+07
4.48131e+07
6.44049e+07
6.41559e+07
4.82673e+07
7.11868e+07
7.42e+07
6.88752e+07
-3.45958e+06
4.54525e+07
4.71902e+07
2.37803e+06
4.07585e+07
3.94805e+07
5.08776e+07
5.01339e+07
2.72133e+07
2.98847e+07
-3.04997e+07
3.31481e+07
5.2256e+07
9.68072e+06
-6.49455e+06
1.55124e+07
2.51315e+07
5.16048e+07
5.3531e+07
5.20151e+07
4.33698e+07
5.51114e+07
4.61511e+07
4.25941e+07
2.7318e+07
4.39999e+07
5.14093e+07
4.22339e+07
5.25663e+07
8.7875e+07
5.50681e+07
4.68838e+07
7.45121e+07
5.72061e+07
5.14744e+07
5.16624e+07
3.5775e+07
5.31978e+07
6.50132e+07
6.76062e+07
5.8172e+07
6.83887e+07
1.29526e+07
4.45163e+07
7.54274e+06
5.00341e+07
4.17936e+07
1.49215e+08
1.77366e+07
5.68872e+07
5.59994e+07
3.38017e+07
5.27692e+07
4.85216e+07
1.79023e+07
5.22193e+07
7.1133e+07
7.54827e+07
-1.89987e+07
5.09835e+07
6.82717e+07
6.91289e+07
3.32281e+07
4.33379e+07
6.26114e+07
5.47305e+07
5.62333e+07
1.65208e+08
4.21699e+07
5.39022e+07
8.13813e+07
8.48002e+07
8.21331e+07
5.39508e+07
4.68431e+07
-9.62275e+06
5.21663e+07
1.59606e+07
4.79173e+07
5.65633e+07
4.74855e+07
5.44292e+07
-7.229e+07
4.98318e+07
1.57322e+08
6.75881e+07
6.55462e+07
7.00284e+07
7.22139e+07
6.74936e+07
4.90797e+07
9.05025e+07
2.12187e+07
5.1135e+07
-4.34612e+07
5.84194e+07
2.0525e+07
4.62134e+07
3.86884e+07
4.61618e+07
4.46872e+07
4.85312e+07
5.16554e+07
5.03349e+07
3.62867e+07
8.69118e+06
6.79084e+07
5.26836e+07
5.42352e+07
8.05609e+07
4.04527e+07
-2.26028e+06
3.80919e+07
-1.70756e+07
6.29103e+07
2.84144e+07
1.52242e+08
7.20392e+07
1.64392e+07
6.0334e+07
8.51357e+07
7.61302e+07
6.68918e+07
3.08353e+07
6.85646e+07
1.08967e+07
8.41349e+07
5.29398e+07
1.57141e+07
7.97221e+07
4.36185e+07
4.97081e+07
5.19591e+07
9.11231e+07
1.00235e+07
6.73186e+07
5.00428e+07
5.15643e+07
9.75125e+07
5.69225e+07
5.96991e+07
5.19027e+07
5.73916e+07
7.77515e+07
5.63528e+07
4.54328e+07
1.02744e+08
9.97001e+07
5.14923e+07
5.03319e+07
5.1866e+07
4.87444e+07
3.775e+07
1.31321e+08
5.24228e+07
3.81195e+07
4.77476e+07
3.3033e+07
7.41577e+07
4.51455e+07
6.63772e+07
2.5471e+06
6.68636e+07
5.54595e+07
5.1771e+07
1.66131e+08
5.60994e+07
4.75861e+07
4.91536e+07
1.00583e+08
5.15764e+07
-2.22602e+07
5.21964e+07
5.01254e+07
3.79357e+07
5.05992e+07
5.33605e+07
4.83741e+07
3.92573e+07
5.07029e+07
4.07384e+07
4.04668e+07
5.03497e+07
7.48544e+07
5.13605e+07
7.95994e+07
5.74025e+07
-4.89782e+07
-2.49786e+07
4.98761e+07
8.11004e+07
4.59851e+07
-5.68615e+07
1.04686e+08
5.95467e+07
-1.79436e+07
6.91538e+06
5.25553e+07
-2.77131e+07
4.15221e+07
4.64576e+07
4.13615e+07
6.57649e+07
2.51208e+07
7.60867e+07
7.53695e+07
7.7279e+07
6.51455e+07
5.42313e+07
5.43298e+07
6.79794e+07
5.94117e+07
-5.84269e+06
7.61864e+07
1.22644e+08
5.09726e+07
4.95129e+07
4.57973e+07
3.76137e+07
4.97241e+07
3.97251e+07
6.48399e+07
5.35727e+07
3.63897e+07
6.13574e+07
5.79625e+07
5.0904e+07
4.61495e+07
6.11255e+07
5.05427e+07
4.99146e+07
4.4447e+07
-1.30725e+07
4.68976e+07
5.57426e+07
4.68677e+07
5.08844e+07
2.65601e+07
1.50886e+08
4.04471e+07
6.88532e+07
5.39905e+07
4.02961e+07
5.12684e+07
2.1338e+07
3.29329e+07
-1.76368e+07
2.48211e+07
1.49734e+07
-5.01451e+06
3.56646e+07
5.16072e+07
5.0185e+07
5.84268e+07
4.30386e+07
-5.52981e+07
8.61348e+06
4.38755e+07
9.65515e+07
5.13437e+07
8.55198e+07
8.29088e+07
5.21193e+07
6.47388e+07
1.35053e+07
5.18238e+07
4.80883e+07
5.91595e+07
5.15486e+07
3.48742e+07
5.06912e+07
5.05148e+07
5.16716e+07
5.14659e+07
5.14391e+07
5.26253e+07
4.91989e+07
7.00509e+07
2.92536e+07
7.09505e+07
7.49803e+07
5.32218e+07
5.11671e+07
2.7243e+07
5.00893e+07
4.73474e+07
6.00711e+07
5.03306e+07
9.82341e+07
6.52589e+07
7.66705e+07
3.95315e+07
4.35631e+07
5.27665e+07
6.23992e+07
7.82723e+07
4.79448e+07
4.81192e+07
3.878e+07
4.40258e+07
4.7894e+07
6.20855e+07
6.77968e+07
-2.48219e+06
3.72255e+07
-1.24332e+07
4.02423e+07
5.01347e+07
4.81435e+07
3.50474e+07
5.35676e+07
5.2475e+07
4.96646e+07
5.46198e+07
1.25232e+08
5.26774e+07
5.1671e+07
1.48987e+07
7.20523e+07
8.85914e+07
1.80004e+07
7.85922e+07
1.55428e+08
7.00149e+07
7.7759e+07
5.03341e+07
5.50536e+07
4.71844e+07
5.2148e+07
3.86185e+07
-9.17222e+06
5.54235e+07
4.95814e+07
-6.69759e+06
3.01902e+07
4.38044e+07
5.27256e+07
5.66678e+07
4.47857e+07
5.85535e+07
-2.8738e+07
4.70692e+07
8.4517e+07
6.03403e+07
4.5479e+07
4.57278e+07
1.16312e+08
5.60533e+07
5.74616e+07
6.84679e+07
5.33934e+07
5.08078e+07
5.09994e+07
1.57593e+08
1.26766e+07
1.38867e+07
5.33797e+07
7.69839e+07
5.01527e+07
5.70398e+07
7.98808e+07
6.81131e+07
5.16705e+07
5.27842e+07
7.61199e+07
-4.38648e+07
5.57836e+07
4.99752e+07
5.16783e+07
6.18141e+07
5.89378e+07
3.42006e+07
6.31651e+07
6.83443e+07
3.6449e+07
1.14129e+08
6.69812e+07
3.9375e+06
8.45795e+07
8.61555e+07
9.30099e+07
3.37757e+07
3.94555e+07
6.70852e+07
6.63708e+07
1.45382e+08
5.41542e+07
6.63305e+07
4.80429e+07
4.01897e+07
5.98649e+07
4.88797e+07
5.0846e+07
8.2938e+06
4.72745e+07
4.71183e+07
7.18655e+07
5.02374e+07
4.66776e+07
5.39946e+07
5.68104e+07
1.26338e+07
7.36515e+07
1.59611e+07
5.06829e+07
5.077e+07
5.85294e+07
7.56783e+07
7.25765e+07
6.56156e+07
1.49217e+07
1.74096e+07
7.27894e+07
7.93042e+07
5.54144e+07
-1.40451e+07
1.53281e+07
5.19736e+07
3.15508e+07
1.16815e+07
5.1493e+07
6.67961e+07
5.22612e+07
1.09903e+08
3.27491e+07
3.45749e+07
2.94618e+07
5.33105e+07
8.2835e+07
8.40006e+07
6.30847e+07
6.94547e+07
5.33534e+07
1.28258e+08
7.91859e+07
4.93795e+07
2.71322e+07
5.28774e+07
2.6872e+07
5.84241e+07
2.70407e+07
5.11597e+07
5.44899e+07
7.00661e+07
4.24164e+07
-2.6171e+07
3.9867e+07
3.55608e+07
3.01984e+07
5.63128e+07
3.31138e+07
6.32725e+07
5.43336e+07
5.30458e+07
6.40097e+07
6.24388e+07
6.27844e+07
6.38752e+07
6.48087e+07
8.20833e+07
6.97512e+07
2.8572e+07
3.84223e+07
6.85707e+07
5.43799e+07
1.30991e+08
5.2694e+07
5.47181e+07
8.12863e+07
5.08753e+07
4.88326e+07
7.23038e+06
4.95927e+07
6.48999e+07
6.06123e+07
3.56251e+07
4.45009e+07
-3.49099e+07
2.80107e+07
2.74191e+07
1.01489e+08
5.41746e+07
3.88646e+07
6.02795e+07
8.0908e+07
4.55189e+07
5.821e+07
5.55972e+07
1.77513e+07
3.56982e+07
8.19645e+07
2.12978e+07
3.70461e+07
4.57736e+07
-3.77017e+07
-4.53679e+06
7.24868e+07
3.45752e+07
-5.29533e+07
4.92554e+07
5.27449e+07
4.84745e+07
5.37668e+07
5.40619e+07
4.7717e+07
3.65129e+07
2.99987e+07
4.99405e+07
5.17211e+07
5.22104e+07
5.21046e+07
-542077
-2.46413e+06
5.46697e+07
5.40711e+07
-1.23178e+06
-2.0674e+06
7.93293e+07
1.45168e+07
1.05166e+08
4.70651e+07
7.28077e+07
7.64686e+07
-4.11135e+06
7.57495e+07
8.49387e+07
5.14762e+07
7.33078e+07
5.30447e+07
7.5015e+07
7.22382e+07
5.10675e+07
5.06777e+07
5.063e+07
2.87981e+06
-2.56882e+07
9.25399e+07
8.8536e+07
6.3217e+07
3.20351e+07
6.19e+07
3.85605e+07
-1.47548e+07
5.33819e+07
5.16414e+07
5.54468e+07
4.50759e+07
3.80574e+07
7.05332e+07
6.83445e+07
3.77008e+07
5.11418e+07
8.74646e+07
7.13004e+07
8.04362e+07
5.27552e+07
2.64725e+07
2.93751e+07
4.61532e+07
4.41228e+07
5.69196e+07
3.83715e+07
5.37615e+07
5.42205e+07
2.58455e+07
5.51096e+07
4.57945e+07
5.22318e+07
4.99463e+07
5.34566e+07
3.81046e+07
5.10275e+07
6.00071e+07
5.10851e+07
5.18084e+07
5.55925e+07
4.66379e+07
4.71902e+07
5.16692e+07
1.69161e+08
4.73636e+07
5.53394e+07
4.83387e+07
4.02414e+07
3.9964e+07
5.10104e+07
3.86372e+07
6.88563e+07
4.76547e+07
4.40827e+07
1.03047e+08
6.39297e+07
5.33497e+07
4.90259e+07
5.2278e+07
4.99926e+07
4.7357e+07
5.22064e+07
6.78967e+07
5.60888e+07
4.62893e+07
4.13601e+07
4.79353e+07
7.13271e+07
4.90847e+07
6.45818e+07
6.96387e+07
6.94119e+07
1.84306e+07
2.22403e+07
1.55029e+08
9.98397e+07
7.37858e+07
-5.88038e+07
7.21778e+07
3.68984e+07
4.8445e+07
5.34737e+07
5.25939e+07
-2.8941e+07
3.97516e+07
5.06834e+07
1.59503e+08
4.70424e+07
3.3366e+07
5.23052e+07
5.65914e+07
5.76504e+07
5.07398e+07
5.2421e+07
5.0047e+07
9.65428e+07
6.47297e+07
4.7667e+07
3.02467e+07
6.8135e+07
7.40737e+07
2.82037e+07
8.0121e+07
3.55836e+07
1.1487e+08
6.87093e+07
5.55676e+07
5.34129e+07
5.12716e+07
7.04451e+07
3.85818e+07
3.73177e+07
6.72534e+07
4.87081e+07
4.81154e+07
7.25241e+07
-3.11031e+06
4.83175e+07
7.75394e+07
4.16159e+07
7.2908e+07
2.35593e+07
5.27131e+07
6.69412e+07
4.98856e+07
2.34811e+07
-4.23596e+07
-1.0482e+07
5.18947e+07
5.13235e+07
5.33739e+07
3.63369e+07
6.31582e+07
3.00299e+07
4.31024e+07
7.24458e+07
7.14147e+07
4.89233e+07
4.84798e+07
4.0993e+07
3.24397e+07
1.08208e+08
7.37163e+07
7.71432e+07
4.6157e+07
-1.15122e+06
8.93647e+07
1.49384e+07
2.8372e+07
1.57547e+07
5.17502e+07
5.02789e+07
6.31934e+07
5.10828e+07
2.44563e+07
2.43551e+07
6.19709e+07
7.04244e+07
7.24455e+07
5.5467e+07
6.13723e+07
1.44291e+07
1.66722e+07
8.42143e+07
2.61643e+07
5.57625e+07
4.25979e+07
5.32945e+07
5.94975e+07
6.10819e+07
1.30634e+08
3.31131e+07
5.53219e+07
5.63778e+07
1.49131e+08
1.58966e+08
5.48768e+07
4.75076e+07
5.15017e+07
5.02577e+07
6.26801e+07
3.19435e+07
5.13198e+07
7.0614e+07
4.92883e+07
5.27462e+07
5.69099e+07
5.37359e+07
2.83662e+07
4.9337e+07
4.27698e+07
5.04187e+07
7.47445e+07
1.63904e+08
4.15466e+07
4.86132e+07
2.20502e+07
4.44805e+07
6.94255e+07
5.15631e+07
5.24982e+07
7.49206e+07
7.1349e+06
7.29895e+07
1.79155e+07
7.7018e+07
5.51019e+07
7.46497e+07
2.9834e+07
9.66456e+06
4.43598e+07
5.60978e+07
9.58334e+07
3.50511e+07
7.3304e+07
7.8562e+06
4.95555e+07
4.99847e+07
1.89249e+07
5.09951e+07
5.01757e+07
5.90877e+07
4.95571e+07
7.52497e+07
5.9476e+07
4.37355e+07
1.67436e+06
3.04077e+07
4.68931e+07
7.43248e+07
5.86233e+07
7.40272e+07
6.46657e+07
5.86692e+07
5.28314e+07
4.16402e+07
-3.60625e+07
5.34644e+07
5.34508e+07
4.00131e+07
5.48462e+07
5.12346e+07
7.94247e+07
7.89043e+07
7.2136e+07
5.46829e+07
5.38527e+07
6.95377e+07
5.02219e+07
5.13919e+07
6.926e+07
5.05857e+07
5.13437e+07
7.27278e+07
4.49226e+07
5.2585e+07
9.01499e+07
6.98951e+07
6.96162e+07
6.18905e+07
6.03686e+07
8.98651e+07
4.42898e+07
6.99773e+07
5.8263e+07
1.02597e+08
5.60852e+07
5.49673e+07
5.24072e+07
4.96367e+07
6.75902e+07
7.70885e+07
6.00238e+07
6.06334e+07
2.51455e+07
6.13537e+07
4.42341e+07
5.52308e+07
-3.89319e+07
-1.01519e+06
1.60338e+08
5.54681e+07
5.9983e+07
4.09114e+07
4.19254e+07
4.86517e+07
5.89601e+07
4.63706e+07
1.26837e+08
4.8403e+07
4.00303e+07
4.31736e+07
2.96918e+07
-4.58535e+07
5.6978e+07
5.28299e+07
4.99923e+07
3.27382e+07
6.64226e+07
8.31525e+07
5.99741e+07
4.03798e+07
6.16755e+07
4.63781e+07
8.00506e+07
4.98901e+07
7.56767e+07
5.14485e+07
5.17431e+07
1.08441e+08
5.70784e+07
5.02633e+07
2.70621e+07
-7.8405e+06
1.27763e+08
6.07266e+07
4.69282e+07
5.27524e+07
5.18895e+07
5.79306e+07
4.09765e+07
-2.07504e+07
1.66888e+07
4.52954e+07
-1.03873e+07
5.07521e+07
7.32439e+07
-4.90797e+07
6.60951e+07
5.5464e+07
5.64803e+07
6.21173e+07
6.6134e+07
5.10713e+07
1.00529e+08
5.86604e+07
7.28447e+07
4.52928e+07
4.00134e+07
6.20194e+07
-1.69927e+07
5.2808e+07
4.95234e+07
-5.9157e+06
5.18814e+07
6.62349e+07
6.47111e+07
4.98957e+07
-1.29009e+07
3.27845e+07
5.45312e+07
6.97906e+07
5.79268e+07
5.83601e+07
4.96967e+07
5.8042e+07
4.3498e+07
4.26368e+07
4.50228e+07
4.59709e+07
-1.48324e+07
-2.56421e+07
4.11646e+07
5.94029e+07
1.40723e+08
-1.19883e+07
1.76687e+07
-9.85891e+06
2.39096e+07
4.95716e+07
9.31204e+07
8.02524e+07
5.60157e+07
5.74552e+07
4.86985e+07
1.11054e+08
2.17763e+06
9.88888e+06
7.50143e+07
-8.59696e+06
-2.27035e+07
5.05895e+07
8.68319e+07
5.30899e+07
3.0085e+07
1.13032e+08
4.52825e+07
4.52624e+07
5.2335e+07
7.52115e+07
5.13911e+07
4.67424e+07
7.47313e+07
1.3721e+08
6.13395e+07
4.65123e+07
6.67302e+07
5.92129e+07
-4.07163e+06
8.18215e+07
5.41351e+07
5.77144e+07
-2.39409e+07
-1.55122e+06
2.29685e+07
5.45487e+07
8.4211e+07
4.96317e+07
5.03435e+07
1.93783e+07
3.76057e+07
4.97351e+07
5.28418e+07
5.24184e+07
3.99992e+07
7.48187e+07
7.72555e+07
7.53521e+07
-4.57922e+07
4.70469e+07
6.98903e+07
7.36076e+07
7.44507e+07
6.38879e+07
4.30881e+07
4.12792e+07
5.82307e+07
7.46367e+07
3.75905e+07
5.19282e+07
5.02719e+07
4.34683e+07
3.62367e+07
7.54998e+07
1.51709e+08
6.05152e+07
7.2327e+07
9.61171e+07
6.65866e+07
4.38102e+07
5.05878e+07
6.31543e+07
9.12957e+07
5.08688e+07
7.48721e+07
5.23123e+07
4.1327e+07
4.21122e+07
2.6014e+07
2.46221e+07
7.08661e+07
6.30429e+07
6.49864e+07
5.37173e+07
8.9019e+07
5.64944e+07
5.07154e+07
5.54702e+07
7.21433e+07
5.06082e+07
3.69247e+07
5.31863e+07
4.90957e+07
-8.75046e+06
-2.42508e+07
9.39802e+07
5.60933e+07
2.8645e+07
7.39931e+07
5.08859e+07
5.03159e+07
4.24482e+07
5.45534e+07
7.16328e+07
6.33801e+07
6.23757e+07
4.62987e+07
4.62984e+07
5.20194e+07
5.14392e+07
6.81073e+07
5.64319e+07
3.01214e+07
5.02546e+07
5.09417e+07
5.98302e+07
6.25403e+07
7.96024e+07
-1.85003e+07
7.29326e+07
4.82714e+07
6.04726e+07
4.28768e+07
6.15791e+07
5.36141e+07
5.18629e+07
5.19235e+07
1.14854e+08
5.67206e+07
5.68143e+07
1.21393e+08
2.9196e+07
6.98835e+07
9.53899e+06
5.4366e+07
4.78698e+07
1.05673e+08
5.06018e+07
5.35514e+07
4.88299e+07
1.0482e+08
4.05e+07
4.59629e+07
8.37506e+07
6.71242e+07
3.05252e+07
2.56369e+07
4.82052e+07
5.66511e+07
3.07437e+07
1.77505e+08
5.45067e+07
5.83972e+07
4.74645e+07
5.08188e+07
1.28027e+08
9.05411e+07
6.62967e+07
4.71161e+07
5.50121e+07
5.74448e+07
8.64403e+07
5.18523e+07
5.40178e+07
5.37981e+07
6.71024e+07
5.12089e+07
8.75053e+06
-6.83432e+06
5.93756e+07
5.98315e+07
6.97984e+07
7.52451e+07
5.21323e+07
5.10017e+07
3.84867e+07
7.49911e+07
5.08637e+07
7.40504e+07
3.59073e+07
5.15524e+07
3.5932e+07
8.97745e+07
4.97161e+07
5.16046e+07
7.30472e+07
1.02991e+08
5.35544e+07
4.80392e+07
5.88387e+07
7.83941e+07
1.02735e+07
3.84836e+07
5.2144e+07
4.99491e+07
4.77783e+07
1.39901e+08
4.98436e+07
5.25257e+07
1.04597e+08
5.53802e+07
4.64118e+07
5.2105e+07
5.28649e+07
4.23271e+07
5.54645e+07
-4.99198e+06
2.58131e+07
5.32729e+07
4.8242e+07
5.87959e+07
5.00293e+07
5.12581e+07
4.05878e+07
3.39375e+07
5.35322e+07
3.13882e+07
6.53717e+07
3.63422e+07
1.48366e+08
5.21226e+07
2.97311e+07
5.78642e+07
5.22237e+07
2.93035e+07
4.93782e+07
1.25557e+08
4.46397e+07
3.7201e+07
3.18051e+07
2.42729e+07
6.03284e+07
4.69336e+07
3.68085e+07
3.63956e+07
4.73703e+07
-1.79731e+07
5.85324e+07
7.43158e+07
6.88101e+07
7.20516e+07
3.46602e+07
4.946e+07
5.05578e+07
4.32261e+07
5.10761e+07
5.11879e+07
8.69535e+07
4.92454e+07
7.27467e+07
5.29323e+07
4.89325e+07
4.86679e+07
5.12828e+07
8.60892e+07
3.66075e+07
5.484e+07
5.31208e+07
3.78091e+07
-765591
4.31711e+07
7.60873e+07
5.04884e+07
5.73867e+07
6.16778e+07
5.57534e+07
-2.49038e+07
4.30417e+07
7.77076e+07
5.04053e+07
5.24832e+07
4.40778e+07
7.27595e+07
7.29324e+07
5.39088e+07
5.82184e+07
4.37164e+07
7.23217e+07
4.79659e+07
6.08327e+07
4.54292e+07
5.00068e+07
5.21772e+07
5.0324e+07
4.53812e+07
2.9228e+07
7.54156e+07
4.65674e+07
4.7548e+07
8.21991e+06
4.47275e+07
4.63948e+07
8.23793e+07
5.52441e+07
7.92164e+07
-6.68321e+07
6.41408e+07
5.14343e+07
6.41096e+07
5.01595e+07
5.19714e+07
5.09814e+07
5.39439e+07
6.58235e+07
5.44443e+07
5.37689e+07
4.7664e+07
5.45788e+07
5.17931e+07
8.86904e+07
5.08368e+07
5.25022e+07
4.8365e+07
5.35472e+07
3.54763e+07
-3.82446e+07
1.02211e+08
5.32943e+07
4.36974e+07
1.61518e+07
4.56307e+07
5.2961e+07
-6.11235e+07
3.2222e+07
8.75091e+07
6.19536e+07
5.1549e+07
4.65576e+07
4.72015e+07
5.27979e+07
6.11506e+07
4.66692e+07
6.21903e+07
4.62688e+07
6.22256e+07
5.61518e+07
5.98124e+07
-5.75974e+07
4.4497e+07
4.48165e+07
7.30569e+07
6.13797e+07
6.18389e+07
3.84951e+07
4.90939e+07
2.24838e+07
5.55046e+07
4.60736e+07
5.27649e+07
5.45829e+07
4.71564e+07
3.86798e+07
4.56614e+07
5.53041e+07
4.60697e+07
4.85803e+07
-9.54506e+06
7.5392e+07
6.44586e+07
7.72534e+07
7.39291e+07
4.86991e+07
5.99319e+07
8.2511e+07
5.08999e+07
5.1713e+07
5.21624e+07
5.11413e+07
4.62943e+07
4.91963e+07
5.00661e+07
7.27964e+07
5.06498e+07
4.85407e+07
5.58037e+07
5.49934e+07
4.69188e+07
4.73908e+07
5.26748e+07
5.31787e+07
7.19572e+07
6.02477e+07
1.34592e+08
4.92264e+07
3.80518e+07
3.92268e+07
4.89114e+07
3.05494e+07
5.23974e+07
5.28592e+07
7.81907e+07
3.95908e+07
8.89829e+07
5.16213e+07
5.05462e+07
2.749e+07
7.04318e+07
4.34756e+07
3.93079e+07
5.71088e+07
5.62306e+07
6.74232e+07
1.28455e+08
6.07859e+07
5.98447e+07
-1.99425e+07
1.81396e+07
8.15782e+07
6.69033e+07
7.45093e+07
5.03945e+07
-4.89288e+06
6.13112e+06
4.45759e+07
5.22397e+07
4.19008e+07
4.16671e+07
1.45219e+08
5.20507e+06
7.69331e+07
2.68578e+07
7.57415e+07
1.00122e+08
5.11347e+07
5.4594e+07
5.4886e+07
5.12703e+07
5.03911e+07
1.00059e+07
6.04564e+07
6.06193e+07
5.03952e+07
2.56755e+07
5.18598e+07
5.41515e+07
6.76915e+07
5.19627e+07
5.13965e+07
5.19466e+07
6.33335e+07
5.50275e+07
4.79105e+07
6.83652e+07
5.72351e+07
3.16059e+07
4.2449e+07
5.34478e+07
6.61303e+07
5.16623e+07
5.11701e+07
5.62906e+07
5.19645e+07
5.13918e+07
5.19826e+07
5.25326e+07
3.45143e+07
5.35669e+07
7.46029e+07
5.27772e+07
5.23473e+07
7.75005e+07
4.68095e+07
1.21319e+08
5.17357e+07
5.06059e+07
1.2711e+08
3.03927e+07
3.24491e+07
3.71108e+07
5.97079e+07
4.41375e+07
7.87849e+06
3.82952e+07
5.10255e+07
5.08399e+07
5.04195e+07
7.32207e+07
4.90595e+07
7.41899e+07
5.24466e+07
4.94305e+07
6.12155e+07
5.40132e+07
4.75083e+07
4.94141e+07
5.54391e+07
4.94415e+07
6.35908e+07
7.20796e+07
6.09862e+07
4.73156e+07
2.68916e+07
4.41472e+07
5.10003e+07
7.33734e+07
2.13293e+07
1.61408e+08
5.07147e+07
5.12057e+07
5.21593e+07
6.51272e+07
7.15932e+07
7.54693e+07
2.08503e+07
5.15967e+07
5.2567e+07
4.17301e+07
3.39127e+07
-6.04368e+07
763584
5.05502e+07
5.13779e+07
4.15769e+07
1.56036e+08
2.88575e+07
6.09991e+07
5.21234e+07
5.17117e+07
3.29841e+07
6.53024e+07
5.55515e+07
5.63293e+07
5.17346e+07
4.80824e+07
4.84888e+07
5.19341e+07
-2.62405e+07
-4.44425e+06
1.31573e+07
4.60772e+07
1.27882e+08
5.36137e+07
4.78003e+07
4.51142e+07
4.71657e+07
5.26528e+07
3.88716e+07
5.37754e+07
-2.59145e+07
8.02286e+07
7.77121e+07
3.421e+07
4.9336e+07
5.056e+07
5.18144e+07
4.94197e+07
5.61147e+07
5.08151e+07
-6.60869e+07
3.7077e+07
5.47466e+07
5.35936e+07
4.94248e+07
5.19676e+07
5.07501e+07
5.60391e+07
8.50617e+07
4.16496e+07
5.40906e+07
5.83522e+06
1.33222e+08
4.25273e+07
3.75121e+07
5.21821e+07
4.96871e+07
5.4581e+07
4.76605e+07
1.41508e+08
5.85762e+07
9.81235e+07
5.8516e+07
4.03878e+07
5.22749e+07
7.0504e+07
1.16994e+08
5.06607e+07
3.34976e+07
7.12828e+07
3.99744e+07
1.70134e+08
5.59379e+07
5.19367e+07
5.38171e+07
2.36285e+07
5.47935e+07
4.68178e+07
4.46208e+07
7.19703e+07
7.75768e+07
5.16524e+07
4.12283e+07
1.55386e+08
5.10454e+07
3.42635e+07
5.48765e+07
3.99069e+07
5.35246e+07
4.86949e+07
4.58261e+07
5.12793e+07
4.95642e+07
6.44027e+06
7.45616e+07
5.39954e+07
2.58227e+06
5.64158e+06
5.09533e+07
1.33359e+08
7.44181e+07
4.94696e+07
8.63558e+07
5.84929e+07
5.1169e+07
4.41785e+07
5.64659e+07
5.63047e+07
8.29463e+07
6.35259e+07
8.21393e+07
7.70238e+07
6.39304e+07
5.36883e+06
1.96805e+07
2.77502e+07
4.34244e+07
5.65365e+07
5.6774e+07
2.84705e+07
5.35392e+07
4.79734e+07
1.58008e+08
7.38164e+07
7.28398e+07
1.16291e+08
-6.65131e+07
5.13179e+07
5.10012e+07
3.61831e+07
5.41787e+07
6.11405e+07
4.66284e+07
5.19655e+07
5.24512e+07
8.22153e+07
5.13219e+07
5.00841e+07
5.08461e+07
4.36272e+07
6.33651e+07
4.61355e+07
6.07646e+07
6.94603e+07
2.66953e+07
4.50013e+07
1.97379e+07
4.05281e+07
-3.18398e+07
4.62465e+07
7.47782e+07
6.02412e+07
4.6679e+07
4.74837e+07
5.36239e+07