/*--------------------------------*- C++ -*----------------------------------*\
| =========                 |                                                 |
| \\      /  F ield         | OpenFOAM: The Open Source CFD Toolbox           |
|  \\    /   O peration     | Version:  v2012                                 |
|   \\  /    A nd           | Website:  www.openfoam.com                      |
|    \\/     M anipulation  |                                                 |
\*---------------------------------------------------------------------------*/
FoamFile
{
    version     2.0;
    format      ascii;
    class       pointVectorField;
    location    "18";
    object      pointD;
}
// * * * * * * * * * * * * * * * * * * * * * * * * * * * * * * * * * * * * * //

dimensions      [0 1 0 0 0 0 0];


internalField   nonuniform List<vector> 
30930
(
(0.00123384 0 -1.72936e-22)
(0.00145797 0 0)
(0.00133504 -5.72222e-05 3.69063e-23)
(0 -0.0010871 1.73776e-22)
(0 -2.13959e-05 1.74279e-20)
(0.00123384 0 -1.72936e-22)
(0.00145797 0 0)
(0.00133504 -5.72222e-05 3.69063e-23)
(0 -0.0010871 1.73776e-22)
(0 -2.13959e-05 1.74279e-20)
(0.00123695 0 0)
(0.00124023 0 0)
(0.00124351 0 0)
(0.00124641 0 0)
(0.0012486 0 0)
(0.00125061 0 0)
(0.00125245 0 0)
(0.00125401 0 0)
(0.00125527 0 0)
(0.00125632 0 0)
(0.0012572 0 0)
(0.00125798 0 0)
(0.00125862 0 0)
(0.00125912 0 0)
(0.00125954 0 0)
(0.0012599 0 0)
(0.00126018 0 0)
(0.00126043 0 0)
(0.00126057 0 0)
(0.00126068 0 0)
(0.00126082 0 0)
(0.0012609 0 0)
(0.00126098 0 0)
(0.00126107 0 0)
(0.00126115 0 0)
(0.00126124 0 0)
(0.00126132 0 0)
(0.00126144 0 0)
(0.00126157 0 0)
(0.00126172 0 0)
(0.00126189 0 0)
(0.00126209 0 0)
(0.00126233 0 0)
(0.00126258 0 0)
(0.0012629 0 0)
(0.00126327 0 0)
(0.00126366 0 0)
(0.00126408 0 0)
(0.00126456 0 0)
(0.00126509 0 0)
(0.00126562 0 0)
(0.00126625 0 0)
(0.00126697 0 0)
(0.00126768 0 0)
(0.00126843 0 0)
(0.00126926 0 0)
(0.00127017 0 0)
(0.00127111 0 0)
(0.00127213 0 0)
(0.00127319 0 0)
(0.00127429 0 0)
(0.00127543 0 0)
(0.00127661 0 0)
(0.00127788 0 0)
(0.00127926 0 0)
(0.00128066 0 0)
(0.00128211 0 0)
(0.00128357 0 0)
(0.0012851 0 0)
(0.00128673 0 0)
(0.00128837 0 0)
(0.00129008 0 0)
(0.00129198 0 0)
(0.00129388 0 0)
(0.00129569 0 0)
(0.00129761 0 0)
(0.00129958 0 0)
(0.00130158 0 0)
(0.00130383 0 0)
(0.00130609 0 0)
(0.0013082 0 0)
(0.0013104 0 0)
(0.00131259 0 0)
(0.00131505 0 0)
(0.00131759 0 0)
(0.00131999 0 0)
(0.00132248 0 0)
(0.00132498 0 0)
(0.00132747 0 0)
(0.00133022 0 0)
(0.00133294 0 0)
(0.00133576 0 0)
(0.00133864 0 0)
(0.00134137 0 0)
(0.00134421 0 0)
(0.00134712 0 0)
(0.00135007 0 0)
(0.00135288 0 0)
(0.00135599 0 0)
(0.00135925 0 0)
(0.00136233 0 0)
(0.00136535 0 0)
(0.00136824 0 0)
(0.00137146 0 0)
(0.00137483 0 0)
(0.00137799 0 0)
(0.00138117 0 0)
(0.00138448 0 0)
(0.00138772 0 0)
(0.00139075 0 0)
(0.00139433 0 0)
(0.00139794 0 0)
(0.00140114 0 0)
(0.00140453 0 0)
(0.00140796 0 0)
(0.00141134 0 0)
(0.00141482 0 0)
(0.00141827 0 0)
(0.00142157 0 0)
(0.00142496 0 0)
(0.00142837 0 0)
(0.00143188 0 0)
(0.0014354 0 0)
(0.00143877 0 0)
(0.00144208 0 0)
(0.00144553 0 0)
(0.00144898 0 0)
(0.00145215 0 0)
(0.00145545 0 0)
(0.00145875 6.93265e-07 8.1796e-22)
(0.00145866 1.27675e-06 3.54983e-22)
(0.00145847 1.88575e-06 -1.17415e-21)
(0.00145819 2.58534e-06 8.88829e-22)
(0.00145785 3.19349e-06 2.78573e-21)
(0.00145742 3.81413e-06 1.68644e-21)
(0.00145692 4.40916e-06 7.73004e-22)
(0.00145633 4.99803e-06 8.45191e-22)
(0.00145569 5.55641e-06 1.035e-21)
(0.00145494 6.15621e-06 1.6069e-23)
(0.00145421 6.66102e-06 -1.03952e-21)
(0.00145338 7.133e-06 -6.97736e-22)
(0.00145235 7.67534e-06 -7.62613e-22)
(0.00145135 8.1211e-06 -1.45375e-21)
(0.00145028 8.54983e-06 -1.28157e-21)
(0.00144913 8.95365e-06 -8.85559e-22)
(0.00144793 9.31554e-06 -3.9938e-22)
(0.0014467 9.63762e-06 -5.17469e-23)
(0.00144535 9.92667e-06 -5.17469e-23)
(0.00144385 1.01992e-05 -4.8718e-23)
(0.00144243 1.04105e-05 4.43823e-22)
(0.00144101 1.05803e-05 -5.82827e-24)
(0.0014394 1.0736e-05 1.50901e-23)
(0.00143777 1.08243e-05 6.02832e-22)
(0.00143625 1.08611e-05 8.93724e-23)
(0.00143448 1.08757e-05 4.05243e-22)
(0.00143264 1.08369e-05 -6.14098e-22)
(0.00143091 1.074e-05 -5.68181e-22)
(0.00142919 1.06092e-05 -2.19667e-22)
(0.00142718 1.04165e-05 -4.21568e-22)
(0.00142515 1.01549e-05 6.50758e-22)
(0.00142331 9.87469e-06 3.03873e-22)
(0.00142117 9.48661e-06 4.65743e-22)
(0.00141906 9.06366e-06 9.99827e-22)
(0.00141717 8.64192e-06 1.18334e-22)
(0.0014152 8.13407e-06 -2.03154e-22)
(0.00141319 7.58004e-06 1.01325e-22)
(0.00141114 6.96388e-06 6.02609e-22)
(0.00140892 6.24787e-06 1.02751e-21)
(0.00140674 5.49907e-06 4.11262e-22)
(0.00140451 4.67663e-06 -3.08838e-22)
(0.00140251 3.91707e-06 -3.08838e-22)
(0.00140052 3.06691e-06 -8.82539e-22)
(0.00139831 2.07359e-06 5.76712e-22)
(0.00139611 1.02997e-06 1.71232e-21)
(0.00139385 -1.09076e-07 2.53068e-22)
(0.00139181 -1.17145e-06 4.51092e-22)
(0.00138969 -2.33191e-06 -2.84649e-22)
(0.00138755 -3.58897e-06 -6.76941e-22)
(0.00138542 -4.88044e-06 1.36825e-21)
(0.00138335 -6.18442e-06 1.30945e-21)
(0.00138125 -7.57687e-06 -8.88935e-24)
(0.0013792 -9.00651e-06 -4.99686e-22)
(0.00137707 -1.05606e-05 -9.18903e-22)
(0.001375 -1.21336e-05 -5.7322e-22)
(0.00137319 -1.35564e-05 -8.68293e-22)
(0.00137141 -1.50231e-05 -1.26207e-21)
(0.00136948 -1.66932e-05 -3.30627e-22)
(0.00136758 -1.83647e-05 7.73482e-22)
(0.00136575 -2.00495e-05 5.65216e-22)
(0.00136376 -2.19727e-05 -8.18895e-22)
(0.00136195 -2.38001e-05 -1.57804e-21)
(0.00136031 -2.55012e-05 -3.60916e-22)
(0.00135869 -2.72435e-05 3.98225e-22)
(0.00135706 -2.90576e-05 -1.17373e-22)
(0.00135546 -3.08977e-05 -3.13485e-23)
(0.00135389 -3.27526e-05 1.25036e-21)
(0.00135218 -3.48483e-05 7.32265e-22)
(0.00135076 -3.66327e-05 1.001e-21)
(0.0013494 -3.83863e-05 2.25458e-21)
(0.00134787 -4.04291e-05 8.21504e-22)
(0.00134649 -4.22944e-05 0)
(0.0013451 -4.42033e-05 1.12249e-22)
(0.00134374 -4.6107e-05 7.2445e-22)
(0.0013424 -4.79891e-05 -4.12673e-22)
(0.00134111 -4.98341e-05 -1.88078e-21)
(0.00133966 -5.19004e-05 -6.95336e-22)
(0.00133841 -5.36828e-05 -3.86308e-22)
(0.00133722 -5.53629e-05 -5.46883e-22)
(0.00133135 -5.87135e-05 8.2722e-23)
(0.00132702 -6.00363e-05 -6.34927e-22)
(0.00132291 -6.1297e-05 -3.72599e-22)
(0.00131847 -6.26573e-05 -7.66981e-24)
(0.00131406 -6.40029e-05 -5.92595e-22)
(0.00130987 -6.52691e-05 -4.67339e-22)
(0.0013056 -6.6543e-05 -1.90558e-22)
(0.00130118 -6.78408e-05 0)
(0.00129678 -6.91037e-05 1.92967e-24)
(0.00129256 -7.02886e-05 -2.56005e-22)
(0.0012883 -7.14476e-05 -4.51129e-22)
(0.00128416 -7.2537e-05 -1.6441e-22)
(0.00127988 -7.36321e-05 5.6666e-22)
(0.00127542 -7.47273e-05 3.41006e-22)
(0.00127104 -7.57594e-05 -1.94129e-22)
(0.00126664 -7.67552e-05 -1.80904e-22)
(0.00126224 -7.76941e-05 -3.77388e-22)
(0.00125813 -7.85355e-05 -3.09548e-22)
(0.00125338 -7.94654e-05 -1.20854e-22)
(0.0012486 -8.03543e-05 4.5627e-22)
(0.00124447 -8.10779e-05 2.12477e-22)
(0.00123996 -8.18278e-05 -5.29096e-22)
(0.00123535 -8.25442e-05 -4.64215e-22)
(0.00123086 -8.31989e-05 4.77281e-23)
(0.00122631 -8.38221e-05 3.85734e-22)
(0.00122136 -8.44519e-05 -2.22648e-22)
(0.00121656 -8.50345e-05 -2.69543e-22)
(0.00121201 -8.55471e-05 -4.552e-22)
(0.0012073 -8.60334e-05 -5.62348e-22)
(0.00120257 -8.64991e-05 -1.49212e-22)
(0.00119728 -8.6991e-05 -3.72452e-22)
(0.00119213 -8.74306e-05 -3.82025e-22)
(0.00118739 -8.77976e-05 3.96093e-22)
(0.00118226 -8.81721e-05 6.85123e-22)
(0.00117704 -8.85304e-05 -8.98292e-23)
(0.00117184 -8.88616e-05 -5.6187e-22)
(0.00116666 -8.91742e-05 4.84793e-22)
(0.00116106 -8.94975e-05 1.16989e-21)
(0.00115549 -8.97934e-05 -6.28615e-23)
(0.00114986 -9.00777e-05 -1.2669e-22)
(0.00114406 -9.03693e-05 3.87575e-22)
(0.0011386 -9.06382e-05 2.10321e-22)
(0.00113292 -9.0899e-05 -9.21156e-23)
(0.00112728 -9.11441e-05 -1.24509e-23)
(0.00112165 -9.13944e-05 5.97912e-22)
(0.00111538 -9.16804e-05 1.10163e-21)
(0.00110881 -9.19995e-05 5.82326e-22)
(0.00110272 -9.22914e-05 5.72584e-22)
(0.00109682 -9.25706e-05 2.66798e-22)
(0.00109042 -9.28881e-05 1.96138e-22)
(0.00108399 -9.32145e-05 1.44234e-21)
(0.00107805 -9.35337e-05 5.03713e-22)
(0.00107103 -9.39406e-05 -4.76553e-22)
(0.00106385 -9.43776e-05 -2.21633e-22)
(0.00105707 -9.48191e-05 -2.7537e-22)
(0.00105018 -9.52842e-05 -1.9687e-22)
(0.00104357 -9.57529e-05 -1.68676e-22)
(0.00103666 -9.62805e-05 4.67822e-22)
(0.00102956 -9.68517e-05 5.06815e-22)
(0.00102177 -9.75376e-05 -1.29684e-22)
(0.00101422 -9.82433e-05 0)
(0.00100646 -9.9024e-05 -4.06129e-22)
(0.000998619 -9.9845e-05 2.64731e-22)
(0.000990597 -0.000100735 1.19827e-21)
(0.000982412 -0.000101706 6.01102e-22)
(0.000974883 -0.000102653 4.46778e-22)
(0.000966994 -0.000103699 8.0921e-22)
(0.00095927 -0.000104762 1.40176e-21)
(0.000950397 -0.000106085 4.55781e-22)
(0.00094141 -0.000107498 -2.35058e-22)
(0.000933441 -0.000108825 1.30467e-21)
(0.00092502 -0.000110284 6.07098e-22)
(0.000915448 -0.000112038 9.75582e-23)
(0.000906125 -0.000113839 1.17495e-21)
(0.000896717 -0.000115756 8.31033e-22)
(0.000888297 -0.000117462 3.48955e-22)
(0.000879565 -0.000119343 1.72538e-22)
(0.000869548 -0.000121684 -2.95952e-22)
(0.000859677 -0.000124078 -3.06378e-22)
(0.000849401 -0.000126647 -5.51068e-23)
(0.000839642 -0.000129207 1.42472e-21)
(0.00082942 -0.000131985 3.47237e-21)
(0.000818819 -0.000135002 2.17815e-21)
(0.000808558 -0.000138051 1.1876e-22)
(0.000798526 -0.000141144 -1.94866e-22)
(0.000788077 -0.000144506 7.03443e-22)
(0.0007772 -0.000148146 1.39414e-21)
(0.000765342 -0.000152254 2.96149e-21)
(0.000753722 -0.000156445 3.21955e-21)
(0.000743013 -0.000160426 1.5497e-21)
(0.000732251 -0.000164548 1.65918e-21)
(0.000721145 -0.000168985 -1.33243e-21)
(0.000709418 -0.000173832 -2.14132e-21)
(0.000697638 -0.000178819 -7.50552e-22)
(0.000686194 -0.000183853 2.791e-22)
(0.000673396 -0.000189708 8.26962e-23)
(0.000660691 -0.000195679 -9.91393e-23)
(0.000648185 -0.000201773 4.39097e-22)
(0.000635914 -0.000207991 1.86986e-21)
(0.000623763 -0.000214365 1.19469e-21)
(0.000610723 -0.000221289 1.8526e-22)
(0.000598263 -0.000228153 1.82165e-21)
(0.000585028 -0.000235684 1.40797e-21)
(0.000571267 -0.000243651 2.15805e-21)
(0.000557505 -0.000251813 6.44471e-22)
(0.000543233 -0.000260446 8.62538e-22)
(0.000528777 -0.000269393 2.28046e-21)
(0.000514542 -0.000278437 3.02238e-21)
(0.00049985 -0.000287949 2.44214e-21)
(0.000485025 -0.000297753 2.22143e-21)
(0.000470069 -0.000307886 1.93094e-21)
(0.000455011 -0.000318254 1.31618e-21)
(0.000439373 -0.000329377 3.69034e-21)
(0.000423937 -0.000340676 -1.10895e-21)
(0.000407841 -0.000352932 -3.4831e-21)
(0.00039181 -0.000365717 6.52722e-22)
(0.000375863 -0.00037909 2.45969e-21)
(0.000362013 -0.000391166 2.14366e-21)
(0.000348297 -0.000403684 -1.99363e-21)
(0.000332773 -0.000418343 1.34254e-21)
(0.000317136 -0.000433566 3.67286e-21)
(0.000300472 -0.000450116 1.16423e-21)
(0.000285546 -0.000465574 -1.24831e-21)
(0.000270666 -0.000481491 -3.6357e-21)
(0.000255082 -0.000498652 -1.22316e-21)
(0.000239599 -0.000516359 4.83987e-21)
(0.000224141 -0.000534694 -7.10922e-22)
(0.000209 -0.000553395 -8.23457e-21)
(0.000194103 -0.000572678 1.59709e-21)
(0.000178895 -0.000593096 3.6029e-21)
(0.000164447 -0.000613455 -3.84811e-21)
(0.000150645 -0.000633749 -8.74067e-21)
(0.000136393 -0.000655808 -5.509e-22)
(0.000122995 -0.000677919 9.12105e-22)
(0.000110832 -0.000698956 6.33543e-21)
(9.87608e-05 -0.000721024 7.92378e-21)
(8.71397e-05 -0.000743567 -3.66595e-21)
(7.52276e-05 -0.000768393 -2.69042e-21)
(6.39292e-05 -0.000792949 -4.71403e-21)
(5.49562e-05 -0.000814271 -3.1704e-21)
(4.66878e-05 -0.000836057 1.53437e-21)
(3.83141e-05 -0.00085849 5.43946e-21)
(3.11146e-05 -0.000879935 5.84562e-21)
(2.47985e-05 -0.000900527 -1.02462e-21)
(1.9013e-05 -0.000920525 -4.45225e-21)
(1.40776e-05 -0.000939348 9.41787e-22)
(9.61814e-06 -0.000958005 4.81578e-21)
(5.80955e-06 -0.000976284 -2.41483e-21)
(2.78139e-06 -0.000992882 2.53009e-23)
(4.8413e-07 -0.00100848 4.82701e-21)
(-1.32275e-06 -0.00102361 0)
(-2.52914e-06 -0.00103649 8.58351e-22)
(-3.27664e-06 -0.00104732 -1.34948e-21)
(-3.78503e-06 -0.00105746 -1.31787e-21)
(-3.85009e-06 -0.00106641 8.2548e-22)
(-3.52491e-06 -0.00107375 -5.12613e-22)
(-2.91159e-06 -0.00107943 -3.6483e-22)
(-2.15274e-06 -0.00108351 -2.60623e-22)
(-1.3508e-06 -0.00108595 -1.70147e-22)
(0 -0.00108719 0)
(0 -0.00108678 0)
(0 -0.00108585 0)
(0 -0.0010844 0)
(0 -0.00108277 0)
(0 -0.00108094 0)
(0 -0.00107888 0)
(0 -0.00107679 0)
(0 -0.00107446 0)
(0 -0.00107218 0)
(0 -0.00107012 0)
(0 -0.00106791 0)
(0 -0.0010658 0)
(0 -0.00106378 0)
(0 -0.0010618 0)
(0 -0.00106007 0)
(0 -0.00105864 0)
(0 -0.00105715 0)
(0 -0.00105578 0)
(0 -0.00105462 0)
(0 -0.00105299 0)
(0 -0.00105012 0)
(0 -0.00104515 0)
(0 -0.00103565 0)
(0 -0.00102128 0)
(0 -0.00100278 0)
(0 -0.000977009 0)
(0 -0.000943351 0)
(0 -0.000902599 0)
(0 -0.000854823 0)
(0 -0.000798943 0)
(0 -0.00073544 0)
(0 -0.000667309 0)
(0 -0.000584934 0)
(0 -0.000495296 0)
(0 -0.000405239 0)
(0 -0.00030687 0)
(0 -0.000204322 0)
(0 -0.000103051 0)
(9.86578e-05 5.46773e-06 1.74276e-20)
(0.000189409 -7.75736e-06 -2.32139e-20)
(0.00028173 -3.10938e-05 -1.47113e-20)
(0.00036863 -6.65532e-05 3.5486e-20)
(0.000448897 -0.000109733 3.94953e-20)
(0.000523588 -0.000158696 1.32161e-20)
(0.000593906 -0.000210483 -1.06661e-20)
(0.000661239 -0.000267092 -1.13702e-20)
(0.000723407 -0.000326891 0)
(0.000779526 -0.000384903 1.63645e-22)
(0.00082979 -0.000440106 -1.38431e-20)
(0.00087352 -0.000490883 -1.21809e-20)
(0.000911362 -0.000539496 -5.03658e-21)
(0.000941461 -0.000578617 4.02002e-21)
(0.000962888 -0.000602112 1.14131e-20)
(0.000975343 -0.000607942 -1.29093e-21)
(0.000979668 -0.000597442 3.52298e-22)
(0.000982629 -0.000580896 2.17388e-21)
(0.000987523 -0.000563307 -2.28116e-22)
(0.000993087 -0.00054602 -2.94558e-21)
(0.000999194 -0.000529784 -1.28546e-21)
(0.00100581 -0.000514357 3.96053e-21)
(0.00101308 -0.000498769 -8.59e-22)
(0.00102108 -0.000482312 -1.97079e-21)
(0.00102905 -0.000466967 -1.79068e-21)
(0.00103704 -0.000452364 -5.29603e-21)
(0.00104532 -0.000437302 -2.0886e-21)
(0.00105401 -0.000421885 -1.64675e-21)
(0.00106283 -0.000406508 -1.79273e-21)
(0.00107118 -0.000392343 2.27607e-21)
(0.00107996 -0.000377464 3.91463e-22)
(0.00108854 -0.000362795 -2.72499e-21)
(0.00109652 -0.000349228 3.55249e-21)
(0.00110442 -0.000335773 3.07404e-21)
(0.00111203 -0.000322927 -1.17285e-21)
(0.00112029 -0.000308761 2.04638e-24)
(0.00112842 -0.000294531 -1.52718e-21)
(0.00113565 -0.000281958 -2.16757e-21)
(0.00114254 -0.000269423 3.56818e-22)
(0.00114939 -0.000256887 1.78774e-21)
(0.0011562 -0.00024455 2.2794e-22)
(0.00116291 -0.000231717 -2.58902e-21)
(0.0011693 -0.000219539 -3.8149e-22)
(0.0011752 -0.000207933 2.54598e-21)
(0.00118102 -0.000195766 9.03096e-22)
(0.00118647 -0.000184172 1.96644e-24)
(0.00119148 -0.000173142 -7.77684e-22)
(0.00119648 -0.00016118 -1.63853e-21)
(0.00120143 -0.000148761 -1.5136e-21)
(0.00120581 -0.000137437 -6.97144e-23)
(0.00120965 -0.000126856 1.04979e-21)
(0.00121318 -0.000116573 -1.16573e-21)
(0.00121644 -0.000106015 -1.63052e-21)
(0.00121959 -9.46615e-05 -5.48838e-24)
(0.00122245 -8.35488e-05 -4.25062e-24)
(0.00122486 -7.32736e-05 1.92531e-22)
(0.00122702 -6.21857e-05 8.76807e-23)
(0.00122862 -5.17307e-05 -9.07696e-22)
(0.00122994 -4.19029e-05 -9.18487e-22)
(0.00123104 -3.172e-05 2.42402e-21)
(0.00123182 -2.13881e-05 2.39621e-21)
(0.00123237 -1.10167e-05 -3.15145e-22)
(0.00123695 0 0)
(0.00124023 0 0)
(0.00124351 0 0)
(0.00124641 0 0)
(0.0012486 0 0)
(0.00125061 0 0)
(0.00125245 0 0)
(0.00125401 0 0)
(0.00125527 0 0)
(0.00125632 0 0)
(0.0012572 0 0)
(0.00125798 0 0)
(0.00125862 0 0)
(0.00125912 0 0)
(0.00125954 0 0)
(0.0012599 0 0)
(0.00126018 0 0)
(0.00126043 0 0)
(0.00126057 0 0)
(0.00126068 0 0)
(0.00126082 0 0)
(0.0012609 0 0)
(0.00126098 0 0)
(0.00126107 0 0)
(0.00126115 0 0)
(0.00126124 0 0)
(0.00126132 0 0)
(0.00126144 0 0)
(0.00126157 0 0)
(0.00126172 0 0)
(0.00126189 0 0)
(0.00126209 0 0)
(0.00126233 0 0)
(0.00126258 0 0)
(0.0012629 0 0)
(0.00126327 0 0)
(0.00126366 0 0)
(0.00126408 0 0)
(0.00126456 0 0)
(0.00126509 0 0)
(0.00126562 0 0)
(0.00126625 0 0)
(0.00126697 0 0)
(0.00126768 0 0)
(0.00126843 0 0)
(0.00126926 0 0)
(0.00127017 0 0)
(0.00127111 0 0)
(0.00127213 0 0)
(0.00127319 0 0)
(0.00127429 0 0)
(0.00127543 0 0)
(0.00127661 0 0)
(0.00127788 0 0)
(0.00127926 0 0)
(0.00128066 0 0)
(0.00128211 0 0)
(0.00128357 0 0)
(0.0012851 0 0)
(0.00128673 0 0)
(0.00128837 0 0)
(0.00129008 0 0)
(0.00129198 0 0)
(0.00129388 0 0)
(0.00129569 0 0)
(0.00129761 0 0)
(0.00129958 0 0)
(0.00130158 0 0)
(0.00130383 0 0)
(0.00130609 0 0)
(0.0013082 0 0)
(0.0013104 0 0)
(0.00131259 0 0)
(0.00131505 0 0)
(0.00131759 0 0)
(0.00131999 0 0)
(0.00132248 0 0)
(0.00132498 0 0)
(0.00132747 0 0)
(0.00133022 0 0)
(0.00133294 0 0)
(0.00133576 0 0)
(0.00133864 0 0)
(0.00134137 0 0)
(0.00134421 0 0)
(0.00134712 0 0)
(0.00135007 0 0)
(0.00135288 0 0)
(0.00135599 0 0)
(0.00135925 0 0)
(0.00136233 0 0)
(0.00136535 0 0)
(0.00136824 0 0)
(0.00137146 0 0)
(0.00137483 0 0)
(0.00137799 0 0)
(0.00138117 0 0)
(0.00138448 0 0)
(0.00138772 0 0)
(0.00139075 0 0)
(0.00139433 0 0)
(0.00139794 0 0)
(0.00140114 0 0)
(0.00140453 0 0)
(0.00140796 0 0)
(0.00141134 0 0)
(0.00141482 0 0)
(0.00141827 0 0)
(0.00142157 0 0)
(0.00142496 0 0)
(0.00142837 0 0)
(0.00143188 0 0)
(0.0014354 0 0)
(0.00143877 0 0)
(0.00144208 0 0)
(0.00144553 0 0)
(0.00144898 0 0)
(0.00145215 0 0)
(0.00145545 0 0)
(0.00145875 6.93265e-07 8.1796e-22)
(0.00145866 1.27675e-06 3.54983e-22)
(0.00145847 1.88575e-06 -1.17415e-21)
(0.00145819 2.58534e-06 8.88829e-22)
(0.00145785 3.19349e-06 2.78573e-21)
(0.00145742 3.81413e-06 1.68644e-21)
(0.00145692 4.40916e-06 7.73004e-22)
(0.00145633 4.99803e-06 8.45191e-22)
(0.00145569 5.55641e-06 1.035e-21)
(0.00145494 6.15621e-06 1.6069e-23)
(0.00145421 6.66102e-06 -1.03952e-21)
(0.00145338 7.133e-06 -6.97736e-22)
(0.00145235 7.67534e-06 -7.62613e-22)
(0.00145135 8.1211e-06 -1.45375e-21)
(0.00145028 8.54983e-06 -1.28157e-21)
(0.00144913 8.95365e-06 -8.85559e-22)
(0.00144793 9.31554e-06 -3.9938e-22)
(0.0014467 9.63762e-06 -5.17469e-23)
(0.00144535 9.92667e-06 -5.17469e-23)
(0.00144385 1.01992e-05 -4.8718e-23)
(0.00144243 1.04105e-05 4.43823e-22)
(0.00144101 1.05803e-05 -5.82827e-24)
(0.0014394 1.0736e-05 1.50901e-23)
(0.00143777 1.08243e-05 6.02832e-22)
(0.00143625 1.08611e-05 8.93724e-23)
(0.00143448 1.08757e-05 4.05243e-22)
(0.00143264 1.08369e-05 -6.14098e-22)
(0.00143091 1.074e-05 -5.68181e-22)
(0.00142919 1.06092e-05 -2.19667e-22)
(0.00142718 1.04165e-05 -4.21568e-22)
(0.00142515 1.01549e-05 6.50758e-22)
(0.00142331 9.87469e-06 3.03873e-22)
(0.00142117 9.48661e-06 4.65743e-22)
(0.00141906 9.06366e-06 9.99827e-22)
(0.00141717 8.64192e-06 1.18334e-22)
(0.0014152 8.13407e-06 -2.03154e-22)
(0.00141319 7.58004e-06 1.01325e-22)
(0.00141114 6.96388e-06 6.02609e-22)
(0.00140892 6.24787e-06 1.02751e-21)
(0.00140674 5.49907e-06 4.11262e-22)
(0.00140451 4.67663e-06 -3.08838e-22)
(0.00140251 3.91707e-06 -3.08838e-22)
(0.00140052 3.06691e-06 -8.82539e-22)
(0.00139831 2.07359e-06 5.76712e-22)
(0.00139611 1.02997e-06 1.71232e-21)
(0.00139385 -1.09076e-07 2.53068e-22)
(0.00139181 -1.17145e-06 4.51092e-22)
(0.00138969 -2.33191e-06 -2.84649e-22)
(0.00138755 -3.58897e-06 -6.76941e-22)
(0.00138542 -4.88044e-06 1.36825e-21)
(0.00138335 -6.18442e-06 1.30945e-21)
(0.00138125 -7.57687e-06 -8.88935e-24)
(0.0013792 -9.00651e-06 -4.99686e-22)
(0.00137707 -1.05606e-05 -9.18903e-22)
(0.001375 -1.21336e-05 -5.7322e-22)
(0.00137319 -1.35564e-05 -8.68293e-22)
(0.00137141 -1.50231e-05 -1.26207e-21)
(0.00136948 -1.66932e-05 -3.30627e-22)
(0.00136758 -1.83647e-05 7.73482e-22)
(0.00136575 -2.00495e-05 5.65216e-22)
(0.00136376 -2.19727e-05 -8.18895e-22)
(0.00136195 -2.38001e-05 -1.57804e-21)
(0.00136031 -2.55012e-05 -3.60916e-22)
(0.00135869 -2.72435e-05 3.98225e-22)
(0.00135706 -2.90576e-05 -1.17373e-22)
(0.00135546 -3.08977e-05 -3.13485e-23)
(0.00135389 -3.27526e-05 1.25036e-21)
(0.00135218 -3.48483e-05 7.32265e-22)
(0.00135076 -3.66327e-05 1.001e-21)
(0.0013494 -3.83863e-05 2.25458e-21)
(0.00134787 -4.04291e-05 8.21504e-22)
(0.00134649 -4.22944e-05 0)
(0.0013451 -4.42033e-05 1.12249e-22)
(0.00134374 -4.6107e-05 7.2445e-22)
(0.0013424 -4.79891e-05 -4.12673e-22)
(0.00134111 -4.98341e-05 -1.88078e-21)
(0.00133966 -5.19004e-05 -6.95336e-22)
(0.00133841 -5.36828e-05 -3.86308e-22)
(0.00133722 -5.53629e-05 -5.46883e-22)
(0.00133135 -5.87135e-05 8.2722e-23)
(0.00132702 -6.00363e-05 -6.34927e-22)
(0.00132291 -6.1297e-05 -3.72599e-22)
(0.00131847 -6.26573e-05 -7.66981e-24)
(0.00131406 -6.40029e-05 -5.92595e-22)
(0.00130987 -6.52691e-05 -4.67339e-22)
(0.0013056 -6.6543e-05 -1.90558e-22)
(0.00130118 -6.78408e-05 0)
(0.00129678 -6.91037e-05 1.92967e-24)
(0.00129256 -7.02886e-05 -2.56005e-22)
(0.0012883 -7.14476e-05 -4.51129e-22)
(0.00128416 -7.2537e-05 -1.6441e-22)
(0.00127988 -7.36321e-05 5.6666e-22)
(0.00127542 -7.47273e-05 3.41006e-22)
(0.00127104 -7.57594e-05 -1.94129e-22)
(0.00126664 -7.67552e-05 -1.80904e-22)
(0.00126224 -7.76941e-05 -3.77388e-22)
(0.00125813 -7.85355e-05 -3.09548e-22)
(0.00125338 -7.94654e-05 -1.20854e-22)
(0.0012486 -8.03543e-05 4.5627e-22)
(0.00124447 -8.10779e-05 2.12477e-22)
(0.00123996 -8.18278e-05 -5.29096e-22)
(0.00123535 -8.25442e-05 -4.64215e-22)
(0.00123086 -8.31989e-05 4.77281e-23)
(0.00122631 -8.38221e-05 3.85734e-22)
(0.00122136 -8.44519e-05 -2.22648e-22)
(0.00121656 -8.50345e-05 -2.69543e-22)
(0.00121201 -8.55471e-05 -4.552e-22)
(0.0012073 -8.60334e-05 -5.62348e-22)
(0.00120257 -8.64991e-05 -1.49212e-22)
(0.00119728 -8.6991e-05 -3.72452e-22)
(0.00119213 -8.74306e-05 -3.82025e-22)
(0.00118739 -8.77976e-05 3.96093e-22)
(0.00118226 -8.81721e-05 6.85123e-22)
(0.00117704 -8.85304e-05 -8.98292e-23)
(0.00117184 -8.88616e-05 -5.6187e-22)
(0.00116666 -8.91742e-05 4.84793e-22)
(0.00116106 -8.94975e-05 1.16989e-21)
(0.00115549 -8.97934e-05 -6.28615e-23)
(0.00114986 -9.00777e-05 -1.2669e-22)
(0.00114406 -9.03693e-05 3.87575e-22)
(0.0011386 -9.06382e-05 2.10321e-22)
(0.00113292 -9.0899e-05 -9.21156e-23)
(0.00112728 -9.11441e-05 -1.24509e-23)
(0.00112165 -9.13944e-05 5.97912e-22)
(0.00111538 -9.16804e-05 1.10163e-21)
(0.00110881 -9.19995e-05 5.82326e-22)
(0.00110272 -9.22914e-05 5.72584e-22)
(0.00109682 -9.25706e-05 2.66798e-22)
(0.00109042 -9.28881e-05 1.96138e-22)
(0.00108399 -9.32145e-05 1.44234e-21)
(0.00107805 -9.35337e-05 5.03713e-22)
(0.00107103 -9.39406e-05 -4.76553e-22)
(0.00106385 -9.43776e-05 -2.21633e-22)
(0.00105707 -9.48191e-05 -2.7537e-22)
(0.00105018 -9.52842e-05 -1.9687e-22)
(0.00104357 -9.57529e-05 -1.68676e-22)
(0.00103666 -9.62805e-05 4.67822e-22)
(0.00102956 -9.68517e-05 5.06815e-22)
(0.00102177 -9.75376e-05 -1.29684e-22)
(0.00101422 -9.82433e-05 0)
(0.00100646 -9.9024e-05 -4.06129e-22)
(0.000998619 -9.9845e-05 2.64731e-22)
(0.000990597 -0.000100735 1.19827e-21)
(0.000982412 -0.000101706 6.01102e-22)
(0.000974883 -0.000102653 4.46778e-22)
(0.000966994 -0.000103699 8.0921e-22)
(0.00095927 -0.000104762 1.40176e-21)
(0.000950397 -0.000106085 4.55781e-22)
(0.00094141 -0.000107498 -2.35058e-22)
(0.000933441 -0.000108825 1.30467e-21)
(0.00092502 -0.000110284 6.07098e-22)
(0.000915448 -0.000112038 9.75582e-23)
(0.000906125 -0.000113839 1.17495e-21)
(0.000896717 -0.000115756 8.31033e-22)
(0.000888297 -0.000117462 3.48955e-22)
(0.000879565 -0.000119343 1.72538e-22)
(0.000869548 -0.000121684 -2.95952e-22)
(0.000859677 -0.000124078 -3.06378e-22)
(0.000849401 -0.000126647 -5.51068e-23)
(0.000839642 -0.000129207 1.42472e-21)
(0.00082942 -0.000131985 3.47237e-21)
(0.000818819 -0.000135002 2.17815e-21)
(0.000808558 -0.000138051 1.1876e-22)
(0.000798526 -0.000141144 -1.94866e-22)
(0.000788077 -0.000144506 7.03443e-22)
(0.0007772 -0.000148146 1.39414e-21)
(0.000765342 -0.000152254 2.96149e-21)
(0.000753722 -0.000156445 3.21955e-21)
(0.000743013 -0.000160426 1.5497e-21)
(0.000732251 -0.000164548 1.65918e-21)
(0.000721145 -0.000168985 -1.33243e-21)
(0.000709418 -0.000173832 -2.14132e-21)
(0.000697638 -0.000178819 -7.50552e-22)
(0.000686194 -0.000183853 2.791e-22)
(0.000673396 -0.000189708 8.26962e-23)
(0.000660691 -0.000195679 -9.91393e-23)
(0.000648185 -0.000201773 4.39097e-22)
(0.000635914 -0.000207991 1.86986e-21)
(0.000623763 -0.000214365 1.19469e-21)
(0.000610723 -0.000221289 1.8526e-22)
(0.000598263 -0.000228153 1.82165e-21)
(0.000585028 -0.000235684 1.40797e-21)
(0.000571267 -0.000243651 2.15805e-21)
(0.000557505 -0.000251813 6.44471e-22)
(0.000543233 -0.000260446 8.62538e-22)
(0.000528777 -0.000269393 2.28046e-21)
(0.000514542 -0.000278437 3.02238e-21)
(0.00049985 -0.000287949 2.44214e-21)
(0.000485025 -0.000297753 2.22143e-21)
(0.000470069 -0.000307886 1.93094e-21)
(0.000455011 -0.000318254 1.31618e-21)
(0.000439373 -0.000329377 3.69034e-21)
(0.000423937 -0.000340676 -1.10895e-21)
(0.000407841 -0.000352932 -3.4831e-21)
(0.00039181 -0.000365717 6.52722e-22)
(0.000375863 -0.00037909 2.45969e-21)
(0.000362013 -0.000391166 2.14366e-21)
(0.000348297 -0.000403684 -1.99363e-21)
(0.000332773 -0.000418343 1.34254e-21)
(0.000317136 -0.000433566 3.67286e-21)
(0.000300472 -0.000450116 1.16423e-21)
(0.000285546 -0.000465574 -1.24831e-21)
(0.000270666 -0.000481491 -3.6357e-21)
(0.000255082 -0.000498652 -1.22316e-21)
(0.000239599 -0.000516359 4.83987e-21)
(0.000224141 -0.000534694 -7.10922e-22)
(0.000209 -0.000553395 -8.23457e-21)
(0.000194103 -0.000572678 1.59709e-21)
(0.000178895 -0.000593096 3.6029e-21)
(0.000164447 -0.000613455 -3.84811e-21)
(0.000150645 -0.000633749 -8.74067e-21)
(0.000136393 -0.000655808 -5.509e-22)
(0.000122995 -0.000677919 9.12105e-22)
(0.000110832 -0.000698956 6.33543e-21)
(9.87608e-05 -0.000721024 7.92378e-21)
(8.71397e-05 -0.000743567 -3.66595e-21)
(7.52276e-05 -0.000768393 -2.69042e-21)
(6.39292e-05 -0.000792949 -4.71403e-21)
(5.49562e-05 -0.000814271 -3.1704e-21)
(4.66878e-05 -0.000836057 1.53437e-21)
(3.83141e-05 -0.00085849 5.43946e-21)
(3.11146e-05 -0.000879935 5.84562e-21)
(2.47985e-05 -0.000900527 -1.02462e-21)
(1.9013e-05 -0.000920525 -4.45225e-21)
(1.40776e-05 -0.000939348 9.41787e-22)
(9.61814e-06 -0.000958005 4.81578e-21)
(5.80955e-06 -0.000976284 -2.41483e-21)
(2.78139e-06 -0.000992882 2.53009e-23)
(4.8413e-07 -0.00100848 4.82701e-21)
(-1.32275e-06 -0.00102361 0)
(-2.52914e-06 -0.00103649 8.58351e-22)
(-3.27664e-06 -0.00104732 -1.34948e-21)
(-3.78503e-06 -0.00105746 -1.31787e-21)
(-3.85009e-06 -0.00106641 8.2548e-22)
(-3.52491e-06 -0.00107375 -5.12613e-22)
(-2.91159e-06 -0.00107943 -3.6483e-22)
(-2.15274e-06 -0.00108351 -2.60623e-22)
(-1.3508e-06 -0.00108595 -1.70147e-22)
(0 -0.00108719 0)
(0 -0.00108678 0)
(0 -0.00108585 0)
(0 -0.0010844 0)
(0 -0.00108277 0)
(0 -0.00108094 0)
(0 -0.00107888 0)
(0 -0.00107679 0)
(0 -0.00107446 0)
(0 -0.00107218 0)
(0 -0.00107012 0)
(0 -0.00106791 0)
(0 -0.0010658 0)
(0 -0.00106378 0)
(0 -0.0010618 0)
(0 -0.00106007 0)
(0 -0.00105864 0)
(0 -0.00105715 0)
(0 -0.00105578 0)
(0 -0.00105462 0)
(0 -0.00105299 0)
(0 -0.00105012 0)
(0 -0.00104515 0)
(0 -0.00103565 0)
(0 -0.00102128 0)
(0 -0.00100278 0)
(0 -0.000977009 0)
(0 -0.000943351 0)
(0 -0.000902599 0)
(0 -0.000854823 0)
(0 -0.000798943 0)
(0 -0.00073544 0)
(0 -0.000667309 0)
(0 -0.000584934 0)
(0 -0.000495296 0)
(0 -0.000405239 0)
(0 -0.00030687 0)
(0 -0.000204322 0)
(0 -0.000103051 0)
(9.86578e-05 5.46773e-06 1.74276e-20)
(0.000189409 -7.75736e-06 -2.32139e-20)
(0.00028173 -3.10938e-05 -1.47113e-20)
(0.00036863 -6.65532e-05 3.5486e-20)
(0.000448897 -0.000109733 3.94953e-20)
(0.000523588 -0.000158696 1.32161e-20)
(0.000593906 -0.000210483 -1.06661e-20)
(0.000661239 -0.000267092 -1.13702e-20)
(0.000723407 -0.000326891 0)
(0.000779526 -0.000384903 1.63645e-22)
(0.00082979 -0.000440106 -1.38431e-20)
(0.00087352 -0.000490883 -1.21809e-20)
(0.000911362 -0.000539496 -5.03658e-21)
(0.000941461 -0.000578617 4.02002e-21)
(0.000962888 -0.000602112 1.14131e-20)
(0.000975343 -0.000607942 -1.29093e-21)
(0.000979668 -0.000597442 3.52298e-22)
(0.000982629 -0.000580896 2.17388e-21)
(0.000987523 -0.000563307 -2.28116e-22)
(0.000993087 -0.00054602 -2.94558e-21)
(0.000999194 -0.000529784 -1.28546e-21)
(0.00100581 -0.000514357 3.96053e-21)
(0.00101308 -0.000498769 -8.59e-22)
(0.00102108 -0.000482312 -1.97079e-21)
(0.00102905 -0.000466967 -1.79068e-21)
(0.00103704 -0.000452364 -5.29603e-21)
(0.00104532 -0.000437302 -2.0886e-21)
(0.00105401 -0.000421885 -1.64675e-21)
(0.00106283 -0.000406508 -1.79273e-21)
(0.00107118 -0.000392343 2.27607e-21)
(0.00107996 -0.000377464 3.91463e-22)
(0.00108854 -0.000362795 -2.72499e-21)
(0.00109652 -0.000349228 3.55249e-21)
(0.00110442 -0.000335773 3.07404e-21)
(0.00111203 -0.000322927 -1.17285e-21)
(0.00112029 -0.000308761 2.04638e-24)
(0.00112842 -0.000294531 -1.52718e-21)
(0.00113565 -0.000281958 -2.16757e-21)
(0.00114254 -0.000269423 3.56818e-22)
(0.00114939 -0.000256887 1.78774e-21)
(0.0011562 -0.00024455 2.2794e-22)
(0.00116291 -0.000231717 -2.58902e-21)
(0.0011693 -0.000219539 -3.8149e-22)
(0.0011752 -0.000207933 2.54598e-21)
(0.00118102 -0.000195766 9.03096e-22)
(0.00118647 -0.000184172 1.96644e-24)
(0.00119148 -0.000173142 -7.77684e-22)
(0.00119648 -0.00016118 -1.63853e-21)
(0.00120143 -0.000148761 -1.5136e-21)
(0.00120581 -0.000137437 -6.97144e-23)
(0.00120965 -0.000126856 1.04979e-21)
(0.00121318 -0.000116573 -1.16573e-21)
(0.00121644 -0.000106015 -1.63052e-21)
(0.00121959 -9.46615e-05 -5.48838e-24)
(0.00122245 -8.35488e-05 -4.25062e-24)
(0.00122486 -7.32736e-05 1.92531e-22)
(0.00122702 -6.21857e-05 8.76807e-23)
(0.00122862 -5.17307e-05 -9.07696e-22)
(0.00122994 -4.19029e-05 -9.18487e-22)
(0.00123104 -3.172e-05 2.42402e-21)
(0.00123182 -2.13881e-05 2.39621e-21)
(0.00123237 -1.10167e-05 -3.15145e-22)
(0.00105718 -3.46372e-05 0)
(0.00121575 -1.22064e-05 0)
(0.000792421 -0.000227321 0)
(0.00126578 -3.54823e-05 0)
(0.00133977 -7.46186e-06 0)
(0.0010509 -3.09713e-05 0)
(0.0012123 2.57887e-06 0)
(0.000502786 -0.000576636 0)
(0.00117919 -4.32053e-05 0)
(0.000834995 -0.00010711 0)
(0.00115729 -4.40302e-05 0)
(0.0012914 -1.13609e-06 0)
(0.00122288 -2.63016e-06 0)
(0.00103195 -0.000150738 0)
(0.0013411 -1.54262e-05 0)
(0.00090757 -7.2538e-05 0)
(0.00115694 -7.43142e-06 0)