/*--------------------------------*- C++ -*----------------------------------*\
| =========                 |                                                 |
| \\      /  F ield         | OpenFOAM: The Open Source CFD Toolbox           |
|  \\    /   O peration     | Version:  v2012                                 |
|   \\  /    A nd           | Website:  www.openfoam.com                      |
|    \\/     M anipulation  |                                                 |
\*---------------------------------------------------------------------------*/
FoamFile
{
    version     2.0;
    format      ascii;
    class       volSymmTensorField;
    location    "18";
    object      sigma;
}
// * * * * * * * * * * * * * * * * * * * * * * * * * * * * * * * * * * * * * //

dimensions      [1 -1 -2 0 0 0 0];


internalField   nonuniform List<symmTensor> 
30465
(
(3.64628e+07 -9.89276e+06 1.21219e-08 1.57304e+06 3.00306e-10 1.14433e+07)
(2.2393e+07 -8.86902e+06 -7.83571e-09 5.63093e+06 -1.82492e-09 8.51467e+06)
(5.22751e+07 -5.2208e+06 -7.93916e-08 -8.13039e+06 -8.5283e-08 1.3144e+07)
(3.35454e+07 -7.35142e+06 1.09903e-08 1.57746e+06 1.18085e-08 1.04363e+07)
(3.01617e+07 -2.22185e+06 1.84537e-08 378070 1.23468e-09 9.12708e+06)
(2.99138e+07 -1.96431e+06 1.60947e-08 384417 7.86063e-09 9.16464e+06)
(6.16559e+07 -4.49486e+06 -1.25278e-07 -5.42922e+06 -1.10351e-07 1.71877e+07)
(8.44402e+07 2.23498e+07 -1.92321e-08 7.35795e+06 -3.56228e-08 2.83773e+07)
(6.78013e+07 641923 -4.64581e-09 -2.21045e+07 5.14079e-08 1.99835e+07)
(3.76512e+07 -8.74177e+06 3.63573e-08 -6.14838e+06 9.03045e-09 9.42876e+06)
(5.47326e+07 1.68154e+07 2.49192e-08 3.16855e+06 4.94892e-08 1.65514e+07)
(6.73169e+07 -5.91923e+06 -1.06335e-08 -313556 -1.03488e-08 1.99472e+07)
(3.12621e+07 -1.20041e+07 1.95851e-08 2.41628e+06 1.03161e-08 1.00708e+07)
(1.91427e+06 -5.23419e+06 4.18314e-08 -1.50545e+07 2.67486e-08 -3.82613e+06)
(5.53409e+07 -2.6641e+06 2.91413e-08 113442 1.59119e-08 1.66698e+07)
(6.05948e+07 -2.8974e+06 8.5871e-08 -8.65862e+06 4.77305e-08 1.54215e+07)
(3.05473e+07 -3.38429e+06 -4.40086e-10 841140 -2.72042e-09 9.33726e+06)
(2.45103e+07 -6.5683e+06 3.08939e-08 -1.12683e+07 1.17955e-08 4.03211e+06)
(6.67246e+07 1.77307e+06 1.09896e-07 -2.09452e+07 1.02776e-07 1.74962e+07)
(2.72129e+07 -1.3382e+06 -8.92873e-09 1.46392e+06 -3.92566e-09 8.61161e+06)
(1.25744e+07 -5.40859e+06 1.56802e-08 6.22503e+06 -7.50367e-10 5.74948e+06)
(1.27852e+07 -5.33555e+06 3.82639e-09 6.29322e+06 -3.09616e-10 5.56828e+06)
(1.26001e+07 -1.06343e+07 -1.50816e-08 1.36336e+06 -1.31606e-09 4.25463e+06)
(8.60451e+07 1.59103e+07 3.55511e-08 -1.01206e+07 5.06462e-08 2.49782e+07)
(1.31504e+07 -1.06295e+07 -1.53432e-08 1.29539e+06 -1.27742e-09 4.21736e+06)
(2.66758e+07 -4.01856e+06 -1.46533e-09 5.95605e+06 7.43993e-10 9.81569e+06)
(2.67019e+07 -4.09217e+06 2.39604e-08 5.88236e+06 4.35929e-09 9.74572e+06)
(2.2903e+07 -8.02135e+06 1.92294e-08 6.02481e+06 1.06317e-09 8.61251e+06)
(2.29654e+07 -5.5046e+06 -4.29315e-09 7.21495e+06 4.0624e-10 9.14998e+06)
(2.71393e+07 -1.05768e+07 0 -1.40266e+07 0 3.73576e+06)
(2.35359e+07 -1.23741e+07 -1.98371e-08 -2.77015e+06 -1.54937e-09 6.01772e+06)
(2.66146e+07 -1.94418e+06 0 8.84626e+06 0 1.05054e+07)
(3.4545e+07 -1.0951e+07 3.36429e-09 1.96525e+06 1.09547e-09 1.08784e+07)
(3.1315e+07 -7.95455e+06 -4.77931e-09 2.30248e+06 5.42837e-09 1.00697e+07)
(4.18697e+07 -2.09354e+06 2.59975e-08 89020 6.54771e-09 1.23084e+07)
(2.15354e+07 -6.32909e+06 -2.51388e-09 7.00211e+06 -7.97686e-10 8.51762e+06)
(7.19781e+07 5.58145e+06 -6.78037e-09 -1.92799e+07 4.48135e-08 1.98599e+07)
(-1.05865e+07 1.14467e+07 -2.39843e-08 -1.32902e+07 -1.23987e-08 -6.51224e+06)
(3.03986e+07 -7.20319e+06 -1.17823e-08 2.45234e+06 6.71824e-10 9.85624e+06)
(6.88416e+07 -4.67072e+06 -1.07525e-08 -382536 -6.06594e-09 2.09641e+07)
(1.6438e+07 -9.26001e+06 1.25162e-08 5.08147e+06 7.28698e-10 6.6192e+06)
(5.20954e+07 -6.05354e+06 -3.96883e-09 294282 -1.02104e-08 1.58067e+07)
(8.88386e+07 1.73392e+07 2.95666e-08 -9.32569e+06 -1.94443e-08 2.56136e+07)
(2.15823e+07 -8.5411e+06 -3.84126e-09 5.82838e+06 2.32752e-09 8.47162e+06)
(2.17767e+07 -8.44342e+06 6.54984e-09 6.02955e+06 8.56463e-10 8.14355e+06)
(5.71542e+07 -7.23758e+06 6.54035e-08 -2.45056e+07 4.46797e-08 1.27052e+07)
(4.13221e+07 -1.05885e+07 -3.57386e-08 -3.23931e+06 1.36761e-08 1.1593e+07)
(2.24154e+07 -8.77758e+06 1.20512e-08 5.78929e+06 3.40141e-09 8.37792e+06)
(2.67305e+07 -2.66901e+06 5.89889e-09 6.4849e+06 1.47043e-09 9.93087e+06)
(1.57591e+07 -7.5461e+06 8.14291e-09 6.13706e+06 -3.56704e-11 6.65548e+06)
(1.61806e+07 -7.63475e+06 -1.12438e-09 6.06951e+06 -4.02967e-11 6.57774e+06)
(3.05303e+07 -9.75765e+06 -1.67472e-08 2.84577e+06 -6.34782e-10 1.00835e+07)
(6.93731e+07 1.47255e+07 -7.94113e-09 -1.63525e+06 -6.66717e-09 2.02656e+07)
(6.89021e+07 1.55253e+07 2.04126e-08 -1.5668e+06 4.51498e-08 1.95437e+07)
(-3.8976e+07 -1.60038e+07 -5.30043e-08 9.79958e+06 -6.13874e-08 2.54266e+07)
(2.45168e+07 -1.0336e+07 1.12969e-08 4.62086e+06 4.45959e-09 8.79911e+06)
(-3.71628e+07 -1.97137e+07 2.92477e-08 1.23253e+07 1.84875e-08 2.32335e+07)
(2.76799e+07 -5.33847e+06 -1.40582e-10 3.92927e+06 4.61083e-10 9.51208e+06)
(2.36378e+07 -5.40276e+06 7.92155e-09 7.2152e+06 -3.87863e-10 9.27102e+06)
(2.63904e+07 -993219 -7.38209e-09 1.16792e+07 -6.1243e-10 1.14256e+07)
(2.63197e+07 -993589 -2.03737e-09 1.17295e+07 -6.38625e-10 1.13884e+07)
(3.7893e+07 -7.6062e+06 -5.36213e-08 -8.76872e+06 3.38328e-10 8.88719e+06)
(1.74396e+07 -432256 -4.80711e-09 8.07342e+06 2.26875e-10 7.76988e+06)
(4.18262e+07 -5.41422e+06 -2.23112e-08 384035 -1.03964e-09 1.26174e+07)
(4.14374e+07 -5.45595e+06 3.20408e-11 403174 1.06262e-08 1.26929e+07)
(-3.52869e+06 97269.1 2.1183e-08 -5.13705e+07 1.86143e-08 -1.62216e+07)
(4.6697e+07 -3.87992e+06 -3.66799e-08 148512 2.53124e-09 1.41616e+07)
(6.53926e+07 -1.32679e+07 -2.09876e-08 -1.40292e+07 -4.65059e-08 2.8804e+07)
(8.90247e+06 -2.19898e+06 0 5.62449e+06 0 4.24679e+06)
(2.77054e+07 -7.63955e+06 -8.29159e-09 4.06487e+06 -4.82049e-09 9.50963e+06)
(1.83513e+07 -1.17959e+07 -1.61032e-09 2.77405e+06 -6.98423e-10 6.25214e+06)
(2.67208e+07 -856103 2.01233e-08 4.09759e+06 9.6882e-09 9.37983e+06)
(8.55422e+07 -899923 -3.80297e-09 -28773 -1.25281e-08 2.7129e+07)
(5.17539e+07 -9.60347e+06 6.12234e-09 -1.21591e+06 1.02895e-08 1.53526e+07)
(3.46938e+07 -1.0969e+07 -1.75204e-08 1.8997e+06 -1.53416e-08 1.10603e+07)
(7.03238e+07 -3.60626e+06 -9.00382e-09 -200181 -4.44575e-09 2.05883e+07)
(2.343e+07 -2.56774e+06 0 8.63702e+06 0 9.56815e+06)
(2.34012e+07 -2.51512e+06 9.45546e-09 8.62865e+06 -1.75475e-10 9.62365e+06)
(-211137 4.0652e+06 -6.64051e-09 -2.13864e+07 -4.47886e-08 -7.07775e+06)
(6.21047e+07 1.82676e+07 -2.56722e-09 3.37309e+06 -3.34847e-08 1.91268e+07)
(7.98208e+07 1.49329e+06 -2.30253e-09 -3.39622e+06 -3.16052e-08 2.30109e+07)
(8.02452e+07 2.07761e+06 5.02715e-08 -2.85038e+06 3.94095e-08 2.32258e+07)
(3.06752e+07 -4.81322e+06 1.22732e-08 1.46816e+06 6.47973e-09 9.56016e+06)
(2.61706e+07 -5.73149e+06 6.32007e-09 5.79435e+06 -3.12652e-10 9.60797e+06)
(3.00888e+07 -1.12657e+07 -3.61062e-10 2.89174e+06 1.495e-10 9.995e+06)
(2.67065e+07 -1.23244e+06 1.05676e-08 6.05076e+06 4.39524e-09 9.82709e+06)
(2.38278e+07 -5.43391e+06 1.68766e-09 7.15462e+06 -8.94437e-10 9.27896e+06)
(6.87503e+07 -3.97733e+06 -3.65051e-08 -324523 -2.0306e-08 2.11383e+07)
(2.91228e+07 -830684 -2.63562e-08 86037.5 -5.19713e-09 8.70279e+06)
(1.8116e+07 -6.14299e+06 2.44056e-09 7.0366e+06 -3.40422e-10 7.59279e+06)
(2.66902e+07 -1.32012e+06 -2.31805e-09 9.35415e+06 -2.28548e-09 1.08128e+07)
(2.66377e+07 -1.43003e+06 -8.80816e-09 9.46235e+06 -2.35131e-09 1.07931e+07)
(3.03854e+07 -3.01592e+06 1.55292e-08 685690 -2.28128e-09 9.26979e+06)
(3.0269e+07 -3.13093e+06 -5.50296e-09 742747 2.3334e-09 9.38093e+06)
(3.78145e+07 -8.64027e+06 -6.75944e-08 -6.88702e+06 -1.06863e-08 9.29708e+06)
(2.52663e+07 -2.94793e+06 0 8.87911e+06 0 1.02016e+07)
(2.4168e+07 -5.72511e+06 -2.62927e-09 6.92129e+06 8.17726e-10 9.35259e+06)
(2.42321e+07 -5.60685e+06 5.66599e-09 6.98833e+06 9.10766e-10 9.35394e+06)
(7.56252e+07 2.16722e+07 3.33944e-08 3.88711e+06 2.16923e-08 2.42104e+07)
(2.39468e+07 -4.92859e+06 7.51597e-09 7.43712e+06 -2.06801e-09 9.36351e+06)
(3.26666e+07 -5.34488e+06 1.89027e-08 1.00871e+06 -4.40072e-09 1.02318e+07)
(1.20664e+07 -6.58063e+06 4.36356e-09 5.41464e+06 -8.38929e-11 5.28564e+06)
(1.23765e+07 -6.78069e+06 -6.62232e-09 5.54673e+06 5.01078e-10 5.29567e+06)
(3.62111e+07 -1.26256e+07 -2.99863e-09 825839 -9.70913e-10 1.09739e+07)
(3.37204e+06 -6.9355e+06 -1.52652e-08 -1.08835e+07 -8.29101e-09 -2.30105e+06)
(5.26619e+07 -1.43812e+06 -1.29207e-08 -101228 -7.57882e-09 1.6197e+07)
(5.26734e+07 -1.14836e+06 8.47318e-09 88923.1 1.26427e-08 1.54743e+07)
(2.69051e+07 -2.96729e+06 -1.21413e-08 4.94374e+06 -2.94183e-09 9.53508e+06)
(1.8478e+07 -1.17672e+07 -5.33524e-09 2.71034e+06 -1.39337e-09 6.4304e+06)
(997407 -5.86766e+06 -9.23987e-09 -7.25262e+06 -5.25293e-09 -2.02158e+06)
(5.14374e+07 -4.74592e+06 -8.40042e-08 -1.1442e+07 -4.7342e-08 1.20813e+07)
(3.42343e+07 -5.34439e+06 1.12809e-08 886831 -5.6838e-09 1.04772e+07)
(4.37907e+07 -2.9104e+06 9.69067e-09 135858 -2.51567e-09 1.31082e+07)
(4.34658e+07 -2.604e+06 1.06329e-08 71450.6 -2.55746e-09 1.32109e+07)
(3.308e+07 -1.25292e+07 1.14498e-08 1.70928e+06 3.5178e-09 1.03432e+07)
(3.23789e+07 -1.24021e+07 -1.52104e-08 1.88361e+06 -2.27688e-09 1.02667e+07)
(1.26336e+06 -2.33393e+06 5.1248e-09 -839005 1.24878e-09 62218)
(2.67895e+07 -524487 -1.47841e-08 3.92146e+06 -7.36901e-09 9.14601e+06)
(2.51451e+07 -1.10712e+06 -1.73563e-08 9.92396e+06 -1.45183e-10 1.05139e+07)
(6.45075e+07 -1.85219e+07 -2.0526e-09 2.4185e+07 -2.30079e-08 8.2994e+07)
(7.23715e+07 -4.54095e+06 6.20224e-08 -181315 3.44243e-08 2.19077e+07)
(2.14958e+07 -6.38294e+06 4.60386e-09 6.90124e+06 1.04391e-09 8.57952e+06)
(2.52903e+07 -1.15427e+07 -9.48658e-09 3.73013e+06 -3.0176e-09 8.79295e+06)
(-5.98044e+06 -310990 4.0889e-09 -2.3838e+07 1.03063e-08 -8.84378e+06)
(2.20651e+07 -8.26653e+06 -9.2284e-10 6.00751e+06 2.56016e-11 8.4522e+06)
(2.18288e+07 -8.22637e+06 -3.8112e-10 6.06982e+06 -1.18079e-09 8.36007e+06)
(8.14019e+06 -3.16336e+06 3.45694e-09 5.06263e+06 -3.4131e-10 4.20591e+06)
(4.01324e+07 -4.85383e+06 1.26286e-09 421764 -4.88118e-09 1.1966e+07)
(2.67166e+07 -232897 -1.76426e-09 1.09825e+06 -4.86332e-10 8.3227e+06)
(-6.07035e+06 843469 -3.21695e-09 -3.30834e+07 -4.94267e-09 -1.20679e+07)
(7.92921e+07 -8.87221e+06 -1.27463e-08 -2.24994e+06 2.0238e-08 3.96164e+07)
(2.55079e+07 -657119 -6.03745e-09 1.0502e+07 -2.41544e-10 1.07886e+07)
(5.24789e+07 -3.9161e+06 8.75825e-08 -1.13804e+07 3.11566e-08 1.22228e+07)
(1.23334e+08 1.36079e+07 6.29136e-08 3.50148e+07 4.00519e-08 4.78754e+07)
(2.73093e+07 -3.09316e+06 0 3.40974e+06 0 9.27795e+06)
(3.87043e+06 -5.22065e+06 0 169348 0 1.18023e+06)
(8.50124e+07 -2.44753e+06 -5.54422e-08 -465475 -4.80377e-08 2.5338e+07)
(2.57314e+07 -6.40973e+06 9.51942e-09 5.70297e+06 1.04699e-09 9.53723e+06)
(7.65615e+07 4.95611e+06 5.10254e-09 -1.3908e+07 2.78355e-08 2.54557e+07)
(8.48209e+07 -2.46802e+06 -4.19879e-08 -141390 -3.17761e-08 2.58041e+07)
(2.4095e+07 -1.19858e+07 -2.28648e-08 3.56292e+06 -3.03695e-09 8.37386e+06)
(9.08224e+07 1.59326e+07 -2.67504e-08 1.80496e+07 -2.27555e-08 3.26349e+07)
(-4.18809e+06 -916361 -1.90133e-09 -1.2549e+07 -3.03714e-09 -4.96777e+06)
(1.68752e+07 -9.42987e+06 -5.94178e-10 5.15978e+06 2.10108e-10 6.45556e+06)
(2.11295e+07 -4.19118e+06 6.47984e-09 7.77381e+06 -1.72735e-11 8.57368e+06)
(3.60582e+07 -6.83234e+06 2.17691e-08 -1.02971e+07 3.51922e-08 7.42196e+06)
(2.6692e+07 -737150 1.84608e-08 9.76993e+06 6.48568e-09 1.10626e+07)
(2.66852e+07 -923854 -7.60329e-09 9.93971e+06 -2.73941e-09 1.09069e+07)
(4.45039e+07 -1.01456e+07 1.41323e-09 538911 -6.42551e-10 1.37228e+07)
(2.67123e+07 -55361.9 6.87799e-09 1.37794e+07 5.08359e-10 1.2142e+07)
(2.66867e+07 62901.5 8.40966e-09 4720.68 6.54599e-09 7.99859e+06)
(3.68486e+07 -1.24516e+07 -1.7095e-08 -1.22438e+06 -1.39819e-08 1.05591e+07)
(2.64182e+07 -3.14573e+06 -3.3355e-09 7.68751e+06 -9.04196e-10 1.01768e+07)
(2.64192e+07 -3.13121e+06 -4.37537e-09 7.61483e+06 -7.06336e-10 1.02794e+07)
(3.27867e+07 -2.84382e+06 7.67691e-09 346666 -7.41289e-09 9.89894e+06)
(3.78242e+06 -6.74313e+06 1.72802e-08 -1.24789e+07 5.79696e-09 -2.70464e+06)
(4.98285e+07 -2.79268e+06 -1.26469e-08 210509 -6.99366e-09 1.46911e+07)
(3.05243e+07 -6.44696e+06 -6.68307e-09 2.15316e+06 4.79795e-09 9.83628e+06)
(5.82808e+07 -5.09748e+06 4.26032e-08 161744 1.69811e-08 1.76922e+07)
(2.10472e+07 -7.86127e+06 1.34109e-08 6.2993e+06 -4.76968e-10 8.28864e+06)
(2.10965e+07 -7.82848e+06 -9.38157e-09 6.33569e+06 -2.27443e-09 8.17607e+06)
(5.93808e+07 -4.65411e+06 7.84875e-09 -48105.5 -4.64285e-10 1.77186e+07)
(4.91741e+07 -6.30257e+06 -1.02733e-08 159592 4.27881e-09 1.50302e+07)
(4.98467e+07 -6.10164e+06 -9.43117e-09 308338 -7.09171e-09 1.47648e+07)
(11411.2 -2.78404e+06 0 -2.8048e+06 0 -780437)
(2.48674e+07 -329289 -9.63788e-09 9.94609e+06 -4.1732e-11 1.04402e+07)
(2.46013e+07 -5.07645e+06 -1.4081e-08 7.1905e+06 -1.44985e-09 9.55004e+06)
(1.07833e+08 5.84409e+06 9.1915e-08 1.42395e+07 7.42137e-08 4.56083e+07)
(2.63632e+07 -6.20112e+06 -1.1515e-09 5.37035e+06 -1.76365e-09 9.53291e+06)
(3.43998e+07 -1.06802e+07 1.41243e-08 -4.22521e+06 1.42649e-08 9.00308e+06)
(2.68212e+07 -1.27618e+07 -1.32066e-08 2.39912e+06 -2.5172e-09 8.70985e+06)
(2.58824e+07 -1.69003e+06 1.23466e-09 1.04173e+07 1.46702e-10 1.09244e+07)
(2.51846e+07 -3.45869e+06 1.64929e-09 8.42925e+06 6.06468e-10 9.97135e+06)
(2.51502e+07 -3.5006e+06 -1.20715e-08 8.39376e+06 -2.14228e-10 1.01992e+07)
(2.57124e+07 -6.62884e+06 0 5.63804e+06 0 9.47214e+06)
(3.56138e+07 -1.05244e+07 -5.9935e-08 -4.53393e+06 -3.21948e-08 9.24298e+06)
(3.97219e+07 -4.36036e+06 1.74655e-08 216834 -1.03407e-08 1.20886e+07)
(3.03418e+07 -1.32277e+07 3.33574e-09 922291 1.67057e-09 9.46717e+06)
(-159332 -2.276e+06 1.12374e-09 -2.86592e+06 -4.89656e-11 -933836)
(8.59053e+07 1.52471e+07 2.80986e-08 1.83971e+07 2.43111e-08 3.13141e+07)
(6.37821e+07 -5.61451e+06 -7.3619e-09 -1.61501e+06 -1.87873e-08 1.86447e+07)
(3.83725e+07 -1.02298e+07 0 1.41918e+06 0 1.20647e+07)
(3.83801e+07 -1.04341e+07 2.17576e-08 1.31872e+06 -3.68867e-09 1.17591e+07)
(2.77114e+07 -312823 -9.23632e-09 -15230.5 -7.38408e-09 8.36904e+06)
(2.67817e+07 -468607 1.19492e-08 1.29095e+06 6.09613e-09 8.32889e+06)
(1.11233e+07 -1.01938e+07 -1.97017e-08 -5.94787e+06 -4.0813e-09 1.47961e+06)
(8.13547e+07 2.10377e+07 -3.40239e-08 -5.29117e+06 -5.84045e-08 2.24106e+07)
(-5.2668e+06 5.11823e+06 -1.27443e-08 -4.21535e+07 -3.2384e-08 -1.34582e+07)
(2.51378e+07 -1.07034e+06 -7.64198e-10 1.00625e+07 -4.86783e-11 1.06119e+07)
(3.00803e+07 -3.18922e+06 2.618e-11 808831 4.07002e-09 9.32541e+06)
(6.62435e+07 -1.0976e+06 2.22647e-08 -121555 1.37491e-08 1.96777e+07)
(2.68554e+07 -2.97505e+06 -4.4297e-09 5.49927e+06 -6.19767e-10 9.64972e+06)
(1.05107e+07 -8.45388e+06 -7.63586e-09 3.25805e+06 -1.08576e-09 4.19874e+06)
(8.55519e+07 1.67055e+07 0 1.54942e+07 0 3.06641e+07)
(3.07716e+07 -3.91215e+06 -1.68886e-08 943672 6.39045e-10 9.58601e+06)
(3.08989e+07 -4.0437e+06 -1.2908e-08 1.04648e+06 2.90655e-09 9.49658e+06)
(6.16005e+07 -4.3339e+06 -3.43959e-08 -4.65845e+06 -3.94961e-08 1.67512e+07)
(2.94582e+07 -8.76753e+06 1.31058e-08 3.19112e+06 2.11381e-09 9.73382e+06)
(2.94875e+07 -5.61069e+06 1.41179e-08 2.32662e+06 -1.02008e-09 9.63811e+06)
(3.68288e+07 -9.75175e+06 0 1.52603e+06 0 1.1545e+07)
(2.56875e+07 -1.46475e+06 -5.9175e-09 1.03577e+07 -5.25018e-10 1.07584e+07)
(2.39453e+07 -4.86855e+06 -7.31424e-09 7.51245e+06 -2.99743e-10 9.44912e+06)
(2.65396e+07 -681976 1.21318e-08 1.26821e+07 1.00911e-09 1.1811e+07)
(1.30327e+08 1.25421e+07 -4.10594e-08 3.82189e+07 -2.9521e-08 5.27114e+07)
(2.63065e+07 -1.3216e+07 -1.81887e-08 67505.5 -6.89549e-09 7.87162e+06)
(2.37389e+07 -1.18367e+07 -8.1048e-09 3.71877e+06 -3.63358e-10 8.12102e+06)
(-6.08421e+06 -102218 -2.47934e-09 -2.87518e+07 -1.65165e-08 -1.01036e+07)
(1.16742e+08 4.93395e+06 -4.19557e-09 2.30747e+07 -4.80454e-09 5.14581e+07)
(3.3943e+07 -1.30567e+07 -4.66969e-09 692771 -2.6248e-09 1.03952e+07)
(1.97225e+07 -7.65643e+06 -1.91701e-08 6.47403e+06 -3.38705e-10 7.81435e+06)
(5.42542e+07 -5.57353e+06 1.59715e-08 -6.81812e+06 -9.71202e-09 1.45791e+07)
(2.29386e+07 -1.17206e+07 -6.11707e-09 3.83801e+06 -1.6112e-09 7.9423e+06)
(7.15291e+06 -996762 3.24038e-09 4.62195e+06 1.58349e-10 3.42962e+06)
(2.53712e+07 -5.1332e+06 -1.71329e-08 6.89881e+06 -1.5225e-09 9.68802e+06)
(5.57453e+07 -8.30569e+06 1.28164e-07 -2.55029e+07 1.14153e-07 1.20727e+07)
(5.00288e+07 -3.09111e+06 -1.39321e-08 31549.5 -6.30166e-10 1.51533e+07)
(5.05964e+07 -2.60611e+06 -1.46704e-09 160079 -7.22905e-09 1.51932e+07)
(2.68529e+07 -4.17227e+06 1.90431e-08 5.46965e+06 5.04656e-09 9.67916e+06)
(2.67644e+07 -4.17371e+06 -5.46611e-09 5.57312e+06 -1.90099e-09 9.75444e+06)
(6.52568e+07 -1.78123e+06 -4.82861e-08 36643.4 -2.13737e-08 1.95849e+07)
(3.80134e+07 -4.60349e+06 1.87512e-08 334861 5.21047e-09 1.14356e+07)
(3.30365e+07 -1.09251e+07 -1.78935e-09 2.24411e+06 1.96393e-10 1.05589e+07)
(2.64004e+07 -3.00065e+06 3.57834e-09 8.03475e+06 8.59698e-10 1.02631e+07)
(2.73881e+07 -3.24623e+06 8.09078e-09 3.46146e+06 1.97291e-09 9.26498e+06)
(4.61785e+07 -2.24056e+06 1.09176e-08 139475 -3.41957e-09 1.36547e+07)
(-5.51629e+06 2.03391e+06 -3.58148e-09 -3.63913e+07 -8.05247e-09 -1.25491e+07)
(3.78775e+07 -7.55438e+06 0 -8.86152e+06 0 8.91927e+06)
(2.82626e+07 -1.14987e+07 -1.35974e-08 -4.5752e+06 -1.36534e-08 7.22205e+06)
(1.79678e+07 -5.99729e+06 4.02911e-09 7.03291e+06 6.99344e-10 7.47062e+06)
(1.25008e+07 -1.08974e+07 9.88132e-09 -4.48214e+06 -1.20138e-09 2.42556e+06)
(3.8825e+07 -7.00993e+06 4.7553e-08 -8.67214e+06 -6.91192e-09 8.90977e+06)
(2.52966e+07 -3.92734e+06 3.52902e-09 8.03183e+06 7.64279e-10 9.92678e+06)
(2.53159e+07 -3.93605e+06 -4.74824e-09 7.98911e+06 -1.67708e-09 1.00561e+07)
(-507518 1.90238e+06 1.84954e-09 -2.3644e+07 -1.46177e-08 -7.18936e+06)
(6.2542e+06 -8.74332e+06 1.20665e-09 -6.27353e+06 5.82323e-09 -28858.1)
(2.36809e+06 -3.82138e+06 -6.92994e-09 -256258 5.73908e-10 846202)
(3.89913e+07 -3.0046e+06 1.57942e-08 252276 -5.13611e-09 1.15141e+07)
(3.84203e+07 -3.21539e+06 0 154534 0 1.17776e+07)
(7.09457e+07 -1.30828e+06 -8.6049e-08 -5.45788e+06 -5.62397e-08 1.98564e+07)
(7.07e+07 -1.32405e+06 8.87166e-08 -5.07539e+06 9.04705e-08 1.95361e+07)
(3.59053e+07 -1.00583e+07 -5.46168e-08 -4.75963e+06 -2.56781e-08 9.12121e+06)
(1.25914e+07 -1.06258e+07 -3.14241e-08 -4.36123e+06 -7.90632e-09 2.51254e+06)
(2.76258e+07 -1.20857e+07 -1.09341e-08 3.12012e+06 -4.0081e-09 9.0947e+06)
(9.27528e+06 -7.63142e+06 -4.52126e-08 -1.17428e+07 -2.15369e-08 -918407)
(2.46183e+07 -6.7888e+06 -1.35002e-08 6.1817e+06 -6.84968e-10 9.14938e+06)
(5.60352e+07 -1.02709e+06 3.71688e-08 -54906.8 2.57522e-08 1.70845e+07)
(3.38544e+07 -1.29312e+07 -1.94265e-08 895195 -6.27349e-09 1.04157e+07)
(3.11128e+07 -1.24077e+07 -1.42642e-08 2.27772e+06 -2.84365e-09 9.86179e+06)
(5.98969e+07 -1.32213e+07 -2.38797e-08 -1.75886e+07 -2.85016e-08 2.08801e+07)
(6.15058e+06 -8.73333e+06 1.35737e-08 -6.18938e+06 6.52544e-09 14907.2)
(2.92841e+07 -8.0464e+06 -7.37128e-09 3.1238e+06 4.43487e-09 9.81815e+06)
(-5.76366e+06 511013 3.11999e-09 -3.02442e+07 8.96758e-09 -1.08542e+07)
(-6.07943e+06 436858 9.14604e-10 -3.05966e+07 -1.77362e-09 -1.12623e+07)
(3.63388e+07 -7.45637e+06 7.66932e-08 -9.13029e+06 1.13259e-08 8.11798e+06)
(3.12099e+07 -1.30307e+07 2.16058e-08 1.63176e+06 5.65318e-09 9.84792e+06)
(7.79079e+07 -1.06054e+07 5.76998e-08 -4.48237e+06 4.44919e-08 3.80765e+07)
(3.85781e+06 -2.14616e+06 0 -8.61502e+06 0 -1.28485e+06)
(4.60514e+06 -1.34747e+06 3.30537e-08 -9.69412e+06 1.86443e-08 -1.11199e+06)
(4.17067e+07 -1.1759e+07 -3.79653e-08 254634 -1.37624e-08 1.24954e+07)
(1.42807e+08 2.20881e+06 7.21685e-09 5.19302e+07 3.49186e-09 6.29995e+07)
(2.67615e+07 -760073 6.48061e-09 4.27448e+06 3.40431e-09 9.23688e+06)
(1.23265e+07 -1.10384e+07 1.42799e-10 -1.78653e+06 -3.45091e-09 3.20704e+06)
(1.3151e+07 -1.10774e+07 4.10686e-09 -1.89419e+06 -6.57427e-09 3.28134e+06)
(-5.08505e+06 -1.40404e+06 -1.80318e-09 -2.1644e+07 -5.18155e-10 -8.15425e+06)
(3.5863e+07 -6.96518e+06 3.56198e-09 -1.29426e+07 6.28517e-09 6.95338e+06)
(3.57922e+07 -6.37011e+06 5.30996e-08 -1.2052e+07 9.99548e-09 6.90939e+06)
(2.86915e+07 -8.70329e+06 -6.12716e-09 3.59522e+06 1.53151e-09 9.57891e+06)
(5.18313e+07 -1.01655e+07 2.58211e-08 -793788 6.75553e-09 1.51083e+07)
(3.19177e+07 -1.26485e+07 0 1.88925e+06 0 1.02081e+07)
(2.76167e+07 -8.80912e+06 1.15125e-08 4.01434e+06 -3.87077e-10 9.4387e+06)
(2.48571e+07 -326026 -3.82574e-09 9.93293e+06 -8.2903e-11 1.04345e+07)
(2.78164e+07 -1.93889e+06 -1.71022e-12 1.36156e+06 -4.69145e-10 8.79646e+06)
(2.25554e+07 -6.11278e+06 -6.7856e-09 7.01732e+06 -9.33417e-10 8.76194e+06)
(3.01894e+07 -2.19375e+06 1.23164e-08 438196 6.46757e-09 9.23197e+06)
(2.54383e+06 -6.646e+06 2.23573e-08 -1.08788e+07 1.78624e-08 -2.4502e+06)
(1.69092e+07 -6.65145e+06 -3.40235e-09 -1.14067e+07 1.23616e-08 1.60154e+06)
(-3.80493e+06 5.20355e+06 1.32876e-08 -2.78615e+07 6.1442e-09 -9.4629e+06)
(1.99269e+07 -1.25062e+07 -1.24451e-08 1.49214e+06 -1.19583e-09 6.43996e+06)
(3.99733e+07 -8.20499e+06 6.32414e-08 -1.77166e+07 5.09828e-08 7.19579e+06)
(1.10344e+07 -5.4206e+06 -1.17601e-09 5.65409e+06 4.42874e-12 5.15421e+06)
(4.16177e+07 -7.90699e+06 -3.54907e-08 -1.7795e+07 -1.53997e-08 6.659e+06)
(3.61969e+07 -1.98522e+06 2.40446e-08 129875 1.26299e-09 1.07714e+07)
(-3.1112e+06 4.70888e+06 -4.00846e-08 -2.70709e+07 -4.11727e-08 -8.94257e+06)
(2.87977e+07 -5.02626e+06 7.63477e-11 2.72357e+06 -6.4129e-10 9.34229e+06)
(1.96787e+07 -7.71354e+06 -5.85345e-09 6.39086e+06 8.94353e-10 7.92166e+06)
(2.82337e+07 -5.65851e+06 -1.23117e-09 3.38357e+06 -1.0689e-09 9.581e+06)
(4.66542e+07 -1.01029e+07 1.95306e-09 375218 2.30167e-09 1.4139e+07)
(2.68323e+07 -3.70146e+06 -7.90542e-09 5.18377e+06 -1.90479e-09 9.74931e+06)
(2.66027e+07 -92067.6 2.1987e-09 1.38394e+07 -2.03932e-11 1.21137e+07)
(2.66514e+07 45371.6 -5.28798e-09 2857.32 2.66472e-09 8.00313e+06)
(2.6293e+07 -1.33532e+07 7.57986e-10 19010.3 -3.76008e-10 8.0357e+06)
(2.02342e+07 -1.25521e+07 -3.42092e-09 -566549 -5.95539e-09 5.83173e+06)
(2.51451e+07 -1.15977e+07 -8.35113e-09 3.88583e+06 -2.24196e-09 8.64429e+06)
(1.28835e+07 -5.3637e+06 0 -1.04919e+07 0 270547)
(2.59028e+07 -1.23383e+06 4.05603e-10 1.07804e+07 -1.74079e-11 1.09695e+07)
(2.71523e+07 -2.20631e+06 -2.88394e-09 2.98779e+06 -4.30013e-09 9.01651e+06)
(2.53275e+07 -436077 -9.14577e-09 1.02969e+07 -3.18577e-10 1.05956e+07)
(5.92242e+06 -2.96099e+06 -1.61029e-09 3.7928e+06 -4.32074e-10 2.932e+06)
(6.2846e+06 -2.72083e+06 3.61851e-09 3.7979e+06 5.38983e-10 2.87368e+06)
(2.33802e+07 -3.76695e+06 -1.03799e-08 8.11468e+06 -6.67583e-10 9.48524e+06)
(3.55452e+07 -3.00447e+06 -8.60563e-09 223577 2.89478e-09 1.07519e+07)
(3.5384e+07 -3.12491e+06 -8.54444e-09 233975 2.65535e-09 1.06544e+07)
(8.55828e+07 -1.02812e+06 -2.69236e-08 161332 -9.87539e-09 2.74916e+07)
(1.66349e+07 -5.97257e+06 7.47335e-10 6.84578e+06 3.18762e-10 7.05658e+06)
(1.83824e+07 -3.81104e+06 1.16491e-08 7.70939e+06 -5.14606e-10 7.88597e+06)
(4.24026e+07 -1.0034e+07 -5.29841e-08 -3.59381e+06 -3.29556e-08 1.17276e+07)
(4.24528e+07 -9.93137e+06 3.2818e-09 -3.58253e+06 -7.59155e-09 1.15079e+07)
(2.57126e+07 -1.66682e+06 -2.62537e-09 1.01473e+07 -2.75209e-10 1.07536e+07)
(-626597 -2.08811e+06 3.79933e-08 -2.04831e+07 1.20638e-08 -6.1803e+06)
(-1.20437e+07 1.707e+07 1.56714e-08 -2.49707e+07 -2.64841e-08 -1.19038e+07)
(3.16015e+07 -1.17314e+07 1.26437e-09 2.45626e+06 -1.61678e-09 1.02971e+07)
(3.16667e+07 -1.1794e+07 -2.38428e-08 2.40716e+06 -5.70532e-09 1.0139e+07)
(8.92741e+07 2.25919e+07 -1.91359e-08 7.42165e+06 -9.7242e-09 2.79999e+07)
(2.68937e+07 -1.12511e+06 -1.11673e-09 2.5878e+06 5.26134e-10 8.80716e+06)
(4.46981e+07 -9.52437e+06 4.02413e-10 -2.07393e+07 -7.41435e-09 7.2079e+06)
(6.68613e+06 -3.67772e+06 2.10139e-08 -1.62996e+07 9.15216e-09 -2.66659e+06)
(1.40028e+08 6.11026e+06 -5.34869e-08 4.824e+07 -2.13253e-08 5.86069e+07)
(1.41781e+08 1.5597e+06 1.2218e-07 5.09702e+07 3.80325e-08 6.18398e+07)
(5.33244e+07 -9.23392e+06 -4.0548e-08 -290439 -1.94312e-08 1.59313e+07)
(-258667 -3.63871e+07 3.35229e-08 2.14273e+07 3.97532e-08 2.9348e+07)
(3.64623e+07 -1.21703e+07 7.11238e-09 -2.26799e+06 2.26368e-09 1.02542e+07)
(657439 -3.33036e+07 2.8472e-08 1.44911e+07 3.76836e-08 3.89859e+07)
(3.51304e+07 -1.04619e+07 -4.80873e-08 -4.8891e+06 -2.95154e-08 9.04356e+06)
(1.66878e+06 -5.50961e+06 6.9932e-09 -3.51916e+06 7.42122e-09 -578445)
(2.29538e+07 -9.59639e+06 0 5.31046e+06 0 8.3615e+06)
(2.25628e+07 -9.5123e+06 0 5.32044e+06 0 8.46378e+06)
(-1.78131e+07 -5.71492e+06 -3.54589e-08 423660 -2.14384e-08 -6.85736e+06)
(1.45259e+07 -7.21255e+06 1.96351e-08 -1.13197e+07 -1.22184e-08 1.01249e+06)
(2.66302e+07 -1.06997e+07 -1.41023e-09 3.98715e+06 2.14261e-09 9.0651e+06)
(4.57595e+07 -5.5548e+06 -6.18437e-10 -1.19649e+07 -2.40885e-08 1.00053e+07)
(-150638 9573.84 -2.21095e-10 -2.49807e+06 2.66662e-10 -767972)
(4.46558e+07 -8.55566e+06 4.62374e-08 -5.3037e+06 4.25604e-08 1.17769e+07)
(3.00653e+06 -6.11602e+06 2.40392e-09 -2.24201e+06 2.66464e-09 248487)
(8.84776e+07 2.10945e+07 -3.36738e-08 1.28376e+07 -3.63731e-08 3.0522e+07)
(99541.1 -4.99657e+06 2.32469e-09 -1.35398e+07 6.35905e-10 -4.02088e+06)
(5.44309e+07 -4.868e+06 -3.20043e-08 129457 -1.14337e-08 1.65016e+07)
(2.67534e+07 -991584 -2.36597e-09 7.98778e+06 -1.02242e-09 1.0412e+07)
(1.40661e+07 -1.00103e+07 -2.28325e-08 3.57077e+06 -2.27286e-09 5.32419e+06)
(1.42306e+07 -9.78503e+06 -7.88382e-09 3.63067e+06 -1.1769e-09 5.32687e+06)
(3.87832e+07 -1.21316e+07 -3.56665e-08 -1.69924e+06 -2.04804e-08 1.10297e+07)
(4.50455e+07 -1.05438e+07 -4.47118e-08 404594 -1.51498e-08 1.36631e+07)
(3.09198e+07 -9.68542e+06 -8.33896e-09 2.7512e+06 3.21375e-09 1.00423e+07)
(4.12639e+07 -6.20839e+06 1.02593e-08 -1.1527e+07 3.22191e-08 9.25332e+06)
(2.43999e+07 -5.08285e+06 -6.25497e-09 7.31176e+06 -8.15556e-10 9.52435e+06)
(2.53159e+07 -1.02825e+07 6.12423e-09 4.43646e+06 1.92975e-09 9.00426e+06)
(4.26646e+07 -1.1584e+07 -6.5002e-09 -586919 -5.89218e-09 1.25902e+07)
(4.35323e+07 -1.18612e+07 8.76146e-09 -775628 6.35343e-09 1.29088e+07)
(7.78852e+07 -3.4529e+06 3.08159e-08 -240655 2.50886e-08 2.36106e+07)
(1.97953e+07 -8.10073e+06 1.80379e-08 -9.83354e+06 3.01555e-08 2.82556e+06)
(2.67132e+07 -264827 -1.13668e-09 9.94089e+06 8.79761e-10 1.10983e+07)
(4.23409e+07 -1.18741e+07 1.19402e-09 -188119 -1.59807e-09 1.2795e+07)
(1.92613e+07 -5.24046e+06 -1.86226e-09 7.34652e+06 -1.36356e-09 8.04618e+06)
(7.609e+07 1.48584e+07 -4.89556e-08 -5.42318e+06 -5.38308e-08 2.08133e+07)
(8.7064e+07 1.92772e+07 2.21272e-08 1.16857e+07 3.32022e-08 2.98807e+07)
(2.76554e+07 -1.25371e+07 1.10802e-08 2.68458e+06 2.91297e-09 9.04218e+06)
(4.919e+07 -6.53258e+06 3.31732e-09 407811 8.65211e-10 1.46862e+07)
(3.72504e+06 -5.18629e+06 1.8748e-09 132825 1.54474e-09 1.29666e+06)
(7.76544e+07 -1.16986e+06 5.77188e-08 -2.11952e+06 1.29921e-08 2.24867e+07)
(1.8655e+06 -5.43098e+06 0 -1.40683e+07 0 -3.74188e+06)
(-5.75931e+06 8.21752e+06 -2.43961e-09 -3.84885e+07 -2.7164e-08 -1.24177e+07)
(3.08774e+07 -1.13367e+07 1.25925e-08 -4.294e+06 -1.34428e-08 7.794e+06)
(3.09755e+07 -1.15014e+07 2.41937e-08 -3.82822e+06 7.08181e-09 8.2103e+06)
(2.65494e+07 -3.79556e+06 0 6.60132e+06 0 9.86376e+06)
(-376096 1.25101e+06 0 -2.2622e+07 0 -6.90415e+06)
(-5.3099e+06 6.61765e+06 -7.28219e-09 -3.60242e+07 -1.95065e-08 -1.29712e+07)
(6.40542e+07 -5.91233e+06 -2.46431e-08 -2.21616e+06 -3.88624e-08 1.85881e+07)
(6.30474e+07 1.95219e+07 -3.54729e-08 3.97267e+06 -9.60234e-08 1.99469e+07)
(8.70852e+06 -802097 3.37015e-09 5.7438e+06 -1.12243e-10 4.43937e+06)
(1.16862e+07 -8.89794e+06 1.68563e-08 3.2503e+06 1.80092e-09 4.39461e+06)
(2.61966e+07 -1.31821e+07 -5.62879e-09 -535149 -2.69571e-09 7.72379e+06)
(-5.90415e+07 -1.55864e+06 -3.52983e-08 2.99692e+06 -3.96223e-08 2.75468e+07)
(2.66283e+07 -1.42003e+06 4.51734e-11 9.62672e+06 9.32724e-11 1.08585e+07)
(7.46408e+07 7.24505e+06 9.72159e-09 -1.8626e+07 -1.76769e-08 2.07209e+07)
(1.25971e+07 -3.02473e+06 -2.72115e-08 -1.38624e+07 -1.85479e-08 -648994)
(1.26397e+07 -3.06048e+06 2.4617e-08 -1.35624e+07 1.8804e-08 -252272)
(5.03403e+07 -7.96583e+06 1.05902e-08 294682 1.30812e-09 1.51631e+07)
(2.79951e+07 -1.1264e+06 7.8088e-09 463308 3.52394e-09 8.56731e+06)
(3.91226e+07 -9.15495e+06 -2.14851e-09 1.17405e+06 -2.44966e-10 1.19893e+07)
(2.63996e+07 -6.12236e+06 -1.42564e-08 5.37896e+06 2.61187e-10 9.54353e+06)
(3.11947e+07 -3.76443e+06 1.64288e-09 797579 1.73073e-09 9.74094e+06)
(4.26532e+06 -1.98472e+06 5.39112e-09 -1.85813e+07 2.76857e-09 -4.29422e+06)
(2.81837e+07 -2.45851e+06 2.51501e-08 1.50816e+06 8.2138e-09 8.88053e+06)
(2.7447e+07 -2.38639e+06 -5.12415e-10 2.37193e+06 3.10389e-10 8.96271e+06)
(5.13054e+07 -5.2328e+06 -3.13351e-09 175524 6.60352e-10 1.51364e+07)
(7.59057e+07 1.56283e+07 2.60294e-08 -5.80667e+06 1.0804e-09 2.12441e+07)
(1.81889e+07 -5.62414e+06 -1.57008e-08 7.27221e+06 3.11563e-10 7.53468e+06)
(-2.36416e+06 -3.16077e+06 8.59224e-09 -9.74287e+06 3.18741e-09 -3.61555e+06)
(6.05693e+07 -6.82087e+06 2.07496e-08 -1.32368e+06 2.07833e-08 1.78037e+07)
(6.01495e+07 -7.23357e+06 2.55973e-08 -1.52266e+06 5.81569e-09 1.73767e+07)
(-2.1323e+06 -3.60113e+06 -7.23745e-09 -9.126e+06 1.19009e-09 -3.4053e+06)
(4.36967e+07 -9.86085e+06 7.67159e-08 -2.02317e+07 2.53409e-08 6.84691e+06)
(1.01407e+07 -6.46632e+06 6.55815e-09 4.64602e+06 -3.05108e-11 4.59067e+06)
(1.65988e+07 -5.87913e+06 6.24095e-09 7.03933e+06 -5.78506e-10 7.126e+06)
(2.10809e+07 -2.63392e+06 -1.04153e-08 8.19724e+06 -1.51547e-10 8.74969e+06)
(3.28021e+07 -1.15909e+07 -1.7631e-08 2.20215e+06 -2.77174e-09 1.06019e+07)
(2.75954e+07 -1.02847e+06 -2.35712e-09 678167 1.63227e-09 8.53498e+06)
(-937075 -3.08974e+06 -5.24803e-09 -5.40488e+06 -2.05929e-09 -1.93019e+06)
(2.31029e+07 -569380 2.19004e-09 8.96994e+06 -3.82523e-10 9.55897e+06)
(2.73844e+07 -476943 1.97278e-08 203907 5.132e-09 8.21989e+06)