/*--------------------------------*- C++ -*----------------------------------*\
| =========                 |                                                 |
| \\      /  F ield         | OpenFOAM: The Open Source CFD Toolbox           |
|  \\    /   O peration     | Version:  v2012                                 |
|   \\  /    A nd           | Website:  www.openfoam.com                      |
|    \\/     M anipulation  |                                                 |
\*---------------------------------------------------------------------------*/
FoamFile
{
    version     2.0;
    format      ascii;
    class       volScalarField;
    location    "5";
    object      epsilonEq;
}
// * * * * * * * * * * * * * * * * * * * * * * * * * * * * * * * * * * * * * //

dimensions      [0 0 0 0 0 0 0];


internalField   nonuniform List<scalar> 
32000
(
0.00334346
0.00320774
0.00315198
0.00300505
0.00295771
0.00285877
0.00281876
0.00273235
0.00269554
0.00261725
0.00258385
0.00251184
0.0024816
0.00241485
0.00238748
0.00232529
0.00230049
0.00224237
0.00221988
0.00216543
0.00214501
0.00209389
0.00207535
0.00202728
0.00201043
0.00196516
0.00194985
0.00190716
0.00189325
0.00185295
0.00184031
0.00180222
0.00179073
0.00175469
0.00174427
0.00171013
0.00170067
0.0016683
0.00165973
0.001629
0.00162124
0.00159204
0.00158502
0.00155725
0.0015509
0.00152446
0.00151874
0.00149353
0.00148838
0.00146432
0.00145969
0.0014367
0.00143256
0.00141057
0.00140687
0.0013858
0.00138251
0.0013623
0.00135939
0.00133997
0.00133741
0.00131873
0.00131649
0.00129849
0.00129656
0.00127918
0.00127753
0.00126072
0.00125934
0.00124304
0.00124193
0.00122608
0.00122524
0.00120976
0.0012092
0.001194
0.00119375
0.00117871
0.00117881
0.00116371
0.00327277
0.00314445
0.00307571
0.00298126
0.00293726
0.00284522
0.0028086
0.00272311
0.00268941
0.00261045
0.0025797
0.00250653
0.0024786
0.00241051
0.00238522
0.00232162
0.00229876
0.00223918
0.00221855
0.00216261
0.002144
0.00209138
0.00207462
0.00202503
0.00200994
0.00196315
0.00194959
0.00190536
0.0018932
0.00185135
0.00184045
0.00180082
0.00179106
0.00175348
0.00174478
0.0017091
0.00170135
0.00166744
0.00166057
0.00162831
0.00162224
0.00159152
0.00158618
0.00155688
0.00155221
0.00152425
0.00152018
0.00149347
0.00148996
0.0014644
0.0014614
0.00143692
0.00143439
0.00141091
0.00140881
0.00138627
0.00138456
0.00136289
0.00136154
0.00134067
0.00133965
0.00131952
0.00131882
0.00129937
0.00129895
0.00128014
0.00127997
0.00126174
0.00126181
0.0012441
0.0012444
0.00122716
0.00122767
0.00121086
0.00121154
0.00119513
0.00119595
0.00117995
0.00118082
0.0011654
0.00322659
0.00312667
0.00305763
0.0029591
0.00291882
0.00282816
0.00279392
0.00270935
0.00267805
0.00259922
0.00257077
0.00249716
0.00247142
0.00240254
0.00237934
0.00231473
0.00229389
0.00223316
0.00221449
0.0021573
0.00214063
0.00208668
0.00207184
0.00202088
0.0020077
0.00195949
0.00194783
0.00190217
0.00189188
0.00184859
0.00183956
0.00179846
0.00179058
0.00175152
0.00174467
0.00170752
0.00170161
0.00166623
0.00166118
0.00162745
0.00162319
0.001591
0.00158744
0.00155669
0.00155378
0.00152437
0.00152205
0.00149389
0.00149211
0.00146512
0.00146382
0.00143792
0.00143707
0.00141218
0.00141173
0.00138779
0.00138772
0.00136465
0.00136491
0.00134267
0.00134323
0.00132174
0.00132259
0.0013018
0.0013029
0.00128276
0.00128409
0.00126454
0.00126609
0.00124709
0.00124883
0.00123033
0.00123223
0.00121421
0.00121626
0.00119868
0.00120086
0.00118372
0.00118603
0.00116925
0.00320817
0.00309724
0.0030334
0.00293333
0.00289749
0.00280835
0.00277595
0.00269239
0.00266306
0.00258463
0.0025582
0.00248448
0.00246079
0.00239142
0.00237028
0.00230491
0.00228612
0.00222444
0.00220783
0.00214955
0.00213494
0.00207981
0.00206701
0.0020148
0.00200365
0.00195415
0.00194451
0.00189752
0.00188925
0.0018446
0.00183757
0.0017951
0.0017892
0.00174876
0.00174388
0.00170534
0.00170137
0.00166461
0.00166148
0.00162636
0.00162399
0.00159043
0.00158874
0.00155662
0.00155555
0.00152478
0.00152427
0.00149476
0.00149476
0.00146642
0.00146688
0.00143965
0.00144052
0.00141432
0.00141556
0.00139031
0.0013919
0.00136754
0.00136944
0.00134591
0.00134808
0.00132532
0.00132775
0.0013057
0.00130835
0.00128697
0.00128982
0.00126905
0.00127209
0.00125188
0.00125508
0.00123541
0.00123875
0.00121956
0.00122303
0.00120429
0.00120789
0.00118955
0.00119326
0.00117528
0.0031726
0.00305688
0.0030011
0.00290698
0.00287344
0.00278567
0.00275521
0.00267245
0.0026451
0.00256694
0.00254256
0.00246871
0.00244711
0.0023773
0.00235828
0.00229224
0.00227561
0.00221308
0.00219863
0.00213938
0.00212693
0.00207073
0.0020601
0.00200675
0.00199776
0.00194707
0.00193958
0.00189137
0.00188523
0.00183933
0.00183441
0.00179067
0.00178685
0.00174514
0.00174231
0.00170249
0.00170056
0.0016625
0.00166138
0.00162498
0.00162459
0.00158973
0.00158999
0.00155659
0.00155743
0.00152538
0.00152675
0.00149598
0.00149782
0.00146823
0.00147049
0.00144202
0.00144466
0.00141722
0.0014202
0.00139374
0.00139702
0.00137146
0.00137501
0.0013503
0.00135409
0.00133016
0.00133416
0.00131097
0.00131516
0.00129265
0.00129701
0.00127512
0.00127964
0.00125833
0.00126298
0.00124221
0.00124698
0.00122671
0.00123158
0.00121176
0.00121672
0.00119731
0.00120236
0.00118331
0.00312807
0.00301359
0.00296896
0.00287896
0.00284681
0.0027604
0.00273176
0.00264956
0.00262421
0.00254617
0.0025239
0.00244984
0.00243043
0.00236016
0.00234339
0.0022767
0.00226234
0.00219904
0.00218687
0.00212674
0.00211658
0.00205942
0.00205106
0.00199669
0.00198998
0.00193821
0.00193297
0.00188365
0.00187974
0.00183271
0.00182999
0.0017851
0.00178346
0.00174058
0.0017399
0.0016989
0.00169909
0.00165985
0.00166081
0.00162322
0.00162487
0.00158884
0.00159109
0.00155652
0.00155932
0.00152611
0.00152939
0.00149746
0.00150117
0.00147044
0.00147453
0.00144493
0.00144935
0.0014208
0.00142552
0.00139795
0.00140293
0.00137628
0.00138148
0.0013557
0.0013611
0.00133611
0.00134169
0.00131745
0.00132317
0.00129963
0.00130548
0.00128259
0.00128855
0.00126625
0.00127231
0.00125056
0.00125671
0.00123546
0.00124168
0.0012209
0.00122718
0.00120682
0.00121315
0.00119317
0.00308015
0.00297586
0.00293867
0.0028484
0.0028182
0.00273213
0.00270554
0.00262345
0.00260028
0.0025221
0.00250211
0.00242773
0.00241066
0.00233991
0.00232552
0.00225824
0.00224627
0.00218227
0.00217251
0.0021116
0.00210383
0.00204583
0.00203986
0.00198459
0.00198023
0.00192753
0.00192463
0.00187433
0.00187273
0.0018247
0.00182426
0.00177835
0.00177896
0.00173504
0.00173657
0.00169452
0.00169687
0.00165658
0.00165966
0.00162102
0.00162475
0.00158766
0.00159195
0.00155632
0.00156111
0.00152685
0.00153207
0.00149911
0.00150471
0.00147295
0.00147888
0.00144826
0.00145447
0.00142491
0.00143137
0.00140281
0.00140948
0.00138186
0.0013887
0.00136196
0.00136895
0.00134302
0.00135013
0.00132497
0.00133219
0.00130774
0.00131504
0.00129125
0.00129862
0.00127544
0.00128286
0.00126025
0.00126771
0.00124563
0.00125312
0.00123151
0.00123902
0.00121785
0.00122537
0.00120461
0.00303547
0.00293691
0.00290455
0.00281494
0.0027866
0.00270058
0.00267613
0.0025939
0.00257304
0.00249461
0.00247703
0.0024023
0.00238769
0.00231653
0.00230461
0.00223683
0.00222736
0.00216278
0.00215551
0.00209396
0.00208866
0.00202996
0.00202645
0.00197043
0.00196851
0.00191501
0.00191452
0.00186339
0.00186417
0.00181528
0.00181718
0.00177038
0.00177328
0.00172847
0.00173225
0.00168929
0.00169384
0.00165264
0.00165787
0.00161831
0.00162413
0.00158613
0.00159246
0.00155592
0.0015627
0.00152753
0.00153469
0.00150081
0.00150829
0.00147564
0.00148339
0.00145188
0.00145987
0.00142943
0.00143761
0.00140818
0.00141651
0.00138804
0.00139649
0.0013689
0.00137745
0.0013507
0.00135932
0.00133335
0.00134201
0.00131677
0.00132547
0.00130091
0.00130962
0.0012857
0.00129441
0.00127107
0.00127977
0.00125698
0.00126566
0.00124336
0.00125202
0.00123018
0.0012388
0.00121739
0.00299185
0.002899
0.00286815
0.0027779
0.00275174
0.00266528
0.00264322
0.0025607
0.00254231
0.00246364
0.00244857
0.0023736
0.00236153
0.00229007
0.0022807
0.00221257
0.00220564
0.00214065
0.00213592
0.0020739
0.00207113
0.00201189
0.00201088
0.00195428
0.00195484
0.00190071
0.00190266
0.00185087
0.00185405
0.00180446
0.00180872
0.00176121
0.00176642
0.00172086
0.0017269
0.00168319
0.00168995
0.00164798
0.00165537
0.00161503
0.00162296
0.00158417
0.00159255
0.00155522
0.00156399
0.00152803
0.00153712
0.00150247
0.00151181
0.00147839
0.00148795
0.00145567
0.0014654
0.00143421
0.00144407
0.00141391
0.00142386
0.00139466
0.00140467
0.00137637
0.00138642
0.00135897
0.00136903
0.00134239
0.00135244
0.00132653
0.00133656
0.00131136
0.00132134
0.00129679
0.00130672
0.00128278
0.00129264
0.00126927
0.00127906
0.0012562
0.00126591
0.00124354
0.00125316
0.00123124
0.00295338
0.00285746
0.00282834
0.00273736
0.0027132
0.00262659
0.00260673
0.00252423
0.00250817
0.00242954
0.00241689
0.00234192
0.00233232
0.0022608
0.00225394
0.00218568
0.00218128
0.00211608
0.00211388
0.00205158
0.00205133
0.00199176
0.00199325
0.00193625
0.00193928
0.00188471
0.0018891
0.00183682
0.0018424
0.00179229
0.00179891
0.00175084
0.00175836
0.00171222
0.00172052
0.0016762
0.00168517
0.00164258
0.00165211
0.00161115
0.00162115
0.00158173
0.00159213
0.00155416
0.00156488
0.00152829
0.00153926
0.00150397
0.00151515
0.00148108
0.00149241
0.0014595
0.00147093
0.00143912
0.00145061
0.00141983
0.00143135
0.00140155
0.00141307
0.00138418
0.00139567
0.00136765
0.00137909
0.00135188
0.00136325
0.00133681
0.00134809
0.00132237
0.00133355
0.0013085
0.00131956
0.00129514
0.00130608
0.00128225
0.00129306
0.00126978
0.00128045
0.00125767
0.0012682
0.0012459
0.00290784
0.00281169
0.00278432
0.00269342
0.00267115
0.00258481
0.00256702
0.00248482
0.00247098
0.00239264
0.00238231
0.00230756
0.00230037
0.002229
0.00222459
0.0021564
0.00215448
0.00208927
0.00208956
0.00202718
0.00202942
0.0019697
0.00197367
0.00191646
0.00192194
0.00186711
0.00187392
0.00182133
0.00182929
0.00177882
0.00178777
0.00173932
0.00174912
0.00170257
0.00171309
0.00166834
0.00167947
0.00163642
0.00164805
0.00160662
0.00161866
0.00157875
0.00159113
0.00155267
0.0015653
0.0015282
0.00154103
0.00150523
0.00151818
0.00148361
0.00149665
0.00146324
0.00147631
0.001444
0.00145707
0.0014258
0.00143883
0.00140854
0.0014215
0.00139215
0.00140501
0.00137654
0.00138929
0.00136164
0.00137425
0.00134739
0.00135985
0.00133372
0.00134602
0.00132059
0.00133271
0.00130792
0.00131986
0.00129569
0.00130743
0.00128383
0.00129537
0.00127231
0.00128364
0.00126109
0.00285715
0.00276169
0.0027363
0.00264596
0.00262572
0.00253992
0.00252425
0.00244257
0.00243095
0.00235308
0.00234505
0.00227071
0.00226588
0.00219484
0.00219285
0.00212491
0.00212543
0.0020604
0.00206315
0.00200086
0.00200556
0.00194587
0.00195228
0.00189504
0.00190293
0.00184801
0.0018572
0.00180448
0.00181477
0.00176413
0.00177537
0.00172669
0.00173873
0.00169192
0.00170463
0.00165959
0.00167284
0.00162949
0.00164318
0.00160141
0.00161545
0.0015752
0.0015895
0.00155068
0.00156516
0.00152771
0.00154231
0.00150615
0.00152081
0.00148587
0.00150054
0.00146677
0.00148141
0.00144873
0.0014633
0.00143167
0.00144613
0.00141549
0.00142981
0.00140011
0.00141427
0.00138546
0.00139944
0.00137147
0.00138524
0.00135807
0.00137163
0.00134521
0.00135854
0.00133283
0.00134592
0.00132089
0.00133373
0.00130933
0.00132191
0.00129811
0.00131043
0.0012872
0.00129925
0.00127655
0.00280195
0.00270766
0.00268438
0.00259498
0.00257688
0.00249191
0.00247843
0.00239749
0.00238813
0.00231091
0.00230521
0.00223144
0.00222899
0.00215844
0.00215886
0.00209132
0.00209428
0.00202958
0.00203476
0.00197274
0.00197986
0.00192036
0.00192918
0.00187207
0.00188234
0.0018275
0.00183903
0.00178632
0.00179891
0.00174824
0.00176173
0.00171299
0.00172722
0.00168031
0.00169514
0.00164997
0.00166528
0.00162177
0.00163745
0.00159551
0.00161147
0.00157102
0.00158717
0.00154814
0.0015644
0.00152672
0.00154303
0.00150663
0.00152293
0.00148775
0.00150399
0.00146997
0.0014861
0.00145318
0.00146916
0.0014373
0.0014531
0.00142223
0.00143783
0.0014079
0.00142327
0.00139423
0.00140935
0.00138117
0.00139602
0.00136865
0.00138322
0.00135662
0.00137089
0.00134502
0.00135899
0.00133381
0.00134747
0.00132294
0.00133629
0.00131238
0.0013254
0.00130209
0.00131478
0.00129203
0.00274266
0.00264985
0.00262876
0.0025406
0.00252472
0.00244083
0.00242961
0.00234963
0.00234258
0.0022662
0.00226285
0.00218983
0.00218976
0.00211987
0.0021227
0.00205574
0.0020611
0.0019969
0.00200449
0.00194289
0.00195241
0.00189327
0.00190445
0.00184763
0.00186024
0.00180563
0.00181945
0.00176693
0.00178176
0.00173122
0.00174689
0.00169824
0.00171459
0.00166773
0.00168462
0.00163947
0.00165677
0.00161324
0.00163085
0.00158887
0.00160667
0.00156616
0.00158408
0.00154498
0.00156294
0.00152517
0.0015431
0.0015066
0.00152444
0.00148915
0.00150686
0.00147273
0.00149026
0.00145722
0.00147453
0.00144254
0.0014596
0.0014286
0.0014454
0.00141534
0.00143184
0.00140269
0.00141887
0.00139057
0.00140642
0.00137895
0.00139445
0.00136775
0.0013829
0.00135694
0.00137172
0.00134648
0.00136088
0.00133631
0.00135034
0.00132641
0.00134005
0.00131674
0.00133
0.00130727
0.00267963
0.00258855
0.00256966
0.00248301
0.00246938
0.0023868
0.00237788
0.00229906
0.00229435
0.00221902
0.00221804
0.00214595
0.00214827
0.00207921
0.00208443
0.00201822
0.00202598
0.00196244
0.00197242
0.0019114
0.00192328
0.00186465
0.00187816
0.00182179
0.00183669
0.00178246
0.00179852
0.00174633
0.00176334
0.00171309
0.00173087
0.00168246
0.00170086
0.0016542
0.00167307
0.00162808
0.00164729
0.0016039
0.00162333
0.00158146
0.00160102
0.00156059
0.00158019
0.00154114
0.00156071
0.00152297
0.00154244
0.00150595
0.00152526
0.00148997
0.00150907
0.00147493
0.00149377
0.00146072
0.00147928
0.00144726
0.0014655
0.00143448
0.00145238
0.0014223
0.00143984
0.00141066
0.00142782
0.00139951
0.00141626
0.00138878
0.00140513
0.00137843
0.00139436
0.00136842
0.00138392
0.0013587
0.00137377
0.00134924
0.00136387
0.00134
0.00135419
0.00133095
0.0013447
0.00132207
0.00261317
0.00252402
0.00250734
0.0024224
0.00241104
0.00232998
0.00232339
0.00224593
0.00224357
0.00216947
0.00217086
0.00209988
0.00210459
0.00203654
0.00204415
0.00197885
0.00198899
0.00192627
0.0019386
0.00187833
0.00189253
0.00183457
0.00185037
0.0017946
0.00181172
0.00175804
0.00177627
0.00172456
0.00174368
0.00169386
0.00171369
0.00166567
0.00168604
0.00163972
0.00166049
0.0016158
0.00163683
0.0015937
0.00161488
0.00157324
0.00159447
0.00155424
0.00157544
0.00153656
0.00155765
0.00152006
0.00154097
0.00150462
0.00152529
0.00149012
0.00151051
0.00147647
0.00149654
0.00146357
0.00148329
0.00145135
0.00147068
0.00143973
0.00145864
0.00142863
0.00144712
0.00141802
0.00143606
0.00140782
0.0014254
0.00139799
0.0014151
0.00138848
0.00140512
0.00137926
0.00139541
0.00137028
0.00138595
0.00136152
0.00137669
0.00135294
0.00136762
0.00134452
0.0013587
0.00133623
0.00254356
0.00245651
0.00244205
0.002359
0.00234991
0.00227057
0.00226628
0.00219039
0.00219037
0.00211769
0.00212145
0.00205176
0.00205884
0.00199197
0.00200194
0.00193772
0.00195021
0.00188848
0.00190312
0.00184375
0.00186023
0.0018031
0.00182112
0.00176611
0.0017854
0.00173241
0.00175274
0.00170167
0.00172282
0.00167358
0.00169537
0.00164787
0.00167013
0.00162429
0.00164686
0.00160261
0.00162537
0.00158264
0.00160547
0.00156418
0.00158699
0.00154708
0.00156977
0.00153119
0.00155369
0.00151638
0.00153862
0.00150252
0.00152446
0.00148951
0.0015111
0.00147726
0.00149846
0.00146568
0.00148645
0.00145469
0.001475
0.00144422
0.00146406
0.00143421
0.00145356
0.00142461
0.00144345
0.00141536
0.00143369
0.00140642
0.00142422
0.00139775
0.00141502
0.00138931
0.00140604
0.00138107
0.00139726
0.00137301
0.00138865
0.00136508
0.00138018
0.00135727
0.00137182
0.00134956
0.00247106
0.00238628
0.00237401
0.00229303
0.00228619
0.00220875
0.00220676
0.0021326
0.00213491
0.00206382
0.00206992
0.0020017
0.00201113
0.0019456
0.00195791
0.00189493
0.00190972
0.00184915
0.00186606
0.00180775
0.00182645
0.0017703
0.00179048
0.00173638
0.00175776
0.00170561
0.00172797
0.00167768
0.00170078
0.00165226
0.00167592
0.00162908
0.00165313
0.00160791
0.00163219
0.00158851
0.00161289
0.00157068
0.00159506
0.00155426
0.00157853
0.00153907
0.00156315
0.00152498
0.00154879
0.00151186
0.00153534
0.00149959
0.00152269
0.00148807
0.00151075
0.00147721
0.00149943
0.00146694
0.00148867
0.00145717
0.00147839
0.00144785
0.00146853
0.00143892
0.00145905
0.00143032
0.00144989
0.00142201
0.00144101
0.00141395
0.00143237
0.00140611
0.00142394
0.00139844
0.00141569
0.00139093
0.00140758
0.00138354
0.0013996
0.00137625
0.00139172
0.00136904
0.00138392
0.0013619
0.00239593
0.00231358
0.00230347
0.00222472
0.00222011
0.00214472
0.00214501
0.00207275
0.00207736
0.00200802
0.00201644
0.00194985
0.00196158
0.00189757
0.00191217
0.0018506
0.00186764
0.00180837
0.00182749
0.00177041
0.00179125
0.00173624
0.00175851
0.00170547
0.00172887
0.00167771
0.001702
0.00165263
0.00167759
0.00162992
0.00165536
0.00160932
0.00163506
0.00159058
0.00161647
0.00157348
0.00159939
0.00155782
0.00158364
0.00154344
0.00156907
0.00153017
0.00155553
0.00151788
0.0015429
0.00150644
0.00153106
0.00149575
0.00151992
0.00148572
0.00150939
0.00147625
0.0014994
0.00146727
0.00148987
0.00145871
0.00148074
0.00145052
0.00147196
0.00144265
0.00146348
0.00143504
0.00145525
0.00142766
0.00144725
0.00142046
0.00143943
0.00141343
0.00143176
0.00140652
0.00142422
0.00139971
0.00141678
0.00139299
0.00140942
0.00138633
0.00140212
0.00137971
0.00139487
0.00137312
0.00231844
0.00223863
0.00223066
0.00215428
0.00215187
0.00207869
0.00208121
0.00201101
0.00201789
0.00195047
0.00196116
0.00189635
0.00191035
0.00184801
0.00186484
0.00180483
0.00182407
0.00176627
0.00178753
0.00173181
0.00175474
0.00170101
0.00172528
0.00167345
0.00169878
0.00164874
0.00167488
0.00162657
0.00165329
0.00160661
0.00163372
0.00158861
0.00161594
0.00157232
0.00159971
0.00155753
0.00158486
0.00154405
0.0015712
0.0015317
0.00155859
0.00152035
0.00154688
0.00150985
0.00153597
0.00150009
0.00152574
0.00149097
0.0015161
0.0014824
0.00150697
0.0014743
0.00149829
0.0014666
0.00148997
0.00145924
0.00148198
0.00145216
0.00147426
0.00144532
0.00146677
0.00143869
0.00145947
0.00143221
0.00145232
0.00142586
0.0014453
0.00141961
0.00143838
0.00141344
0.00143153
0.00140733
0.00142475
0.00140126
0.001418
0.0013952
0.00141127
0.00138916
0.00140456
0.0013831
0.00223882
0.00216168
0.00215581
0.00208194
0.00208169
0.00201085
0.00201558
0.00194757
0.00195667
0.00189132
0.00190423
0.00184137
0.00185757
0.00179705
0.00181606
0.00175776
0.00177913
0.00172294
0.00174627
0.00169207
0.00171699
0.00166469
0.00169088
0.00164039
0.00166755
0.00161878
0.00164667
0.00159954
0.00162792
0.00158236
0.00161103
0.00156697
0.00159577
0.00155315
0.00158192
0.00154067
0.00156929
0.00152935
0.00155772
0.00151904
0.00154706
0.00150958
0.00153718
0.00150086
0.00152797
0.00149276
0.00151933
0.00148519
0.00151118
0.00147807
0.00150344
0.00147131
0.00149604
0.00146487
0.00148893
0.00145868
0.00148205
0.00145269
0.00147537
0.00144687
0.00146885
0.00144118
0.00146245
0.00143558
0.00145614
0.00143006
0.00144991
0.00142458
0.00144372
0.00141913
0.00143756
0.00141369
0.00143141
0.00140825
0.00142525
0.00140278
0.00141909
0.00139729
0.0014129
0.00139176
0.00215732
0.00208295
0.00207915
0.00200789
0.00200977
0.0019414
0.00194829
0.00188261
0.0018939
0.00183074
0.00184583
0.00178504
0.0018034
0.00174485
0.00176596
0.00170952
0.00173294
0.00167851
0.00170382
0.00165128
0.00167811
0.00162737
0.00165538
0.00160637
0.00163527
0.00158789
0.00161741
0.0015716
0.00160153
0.00155721
0.00158733
0.00154444
0.0015746
0.00153307
0.00156312
0.0015229
0.00155271
0.00151374
0.00154321
0.00150544
0.00153449
0.00149787
0.00152641
0.0014909
0.00151889
0.00148443
0.00151182
0.00147839
0.00150513
0.00147268
0.00149874
0.00146725
0.00149261
0.00146203
0.00148668
0.00145698
0.0014809
0.00145206
0.00147524
0.00144723
0.00146967
0.00144246
0.00146415
0.00143772
0.00145866
0.001433
0.00145319
0.00142827
0.00144771
0.00142351
0.00144222
0.00141872
0.00143669
0.00141389
0.00143112
0.001409
0.0014255
0.00140404
0.00141982
0.00139902
0.00207417
0.00200267
0.0020009
0.00193236
0.00193633
0.00187054
0.00187955
0.00181632
0.00182974
0.00176891
0.00178612
0.00172754
0.00174799
0.00169153
0.00171469
0.00166024
0.00168564
0.00163309
0.0016603
0.00160955
0.00163819
0.00158915
0.00161888
0.00157148
0.001602
0.00155614
0.00158719
0.00154282
0.00157417
0.00153121
0.00156266
0.00152105
0.00155245
0.00151213
0.00154333
0.00150424
0.00153512
0.00149722
0.00152767
0.00149091
0.00152086
0.00148519
0.00151457
0.00147995
0.00150871
0.00147509
0.00150318
0.00147054
0.00149792
0.00146622
0.00149288
0.00146207
0.00148798
0.00145805
0.0014832
0.00145412
0.00147849
0.00145023
0.00147383
0.00144636
0.00146917
0.00144248
0.00146452
0.00143858
0.00145983
0.00143463
0.0014551
0.00143062
0.00145032
0.00142654
0.00144547
0.00142237
0.00144055
0.00141813
0.00143554
0.00141379
0.00143045
0.00140935
0.00142527
0.00140481
0.00198962
0.00192106
0.00192128
0.00185555
0.00186156
0.00179845
0.00180954
0.00174888
0.00176438
0.00170599
0.00172527
0.00166902
0.00169149
0.00163726
0.00166238
0.00161005
0.00163734
0.0015868
0.00161582
0.00156699
0.00159734
0.00155013
0.00158147
0.00153579
0.00156783
0.00152361
0.00155607
0.00151324
0.0015459
0.00150441
0.00153708
0.00149685
0.00152937
0.00149035
0.00152258
0.00148473
0.00151655
0.00147981
0.00151113
0.00147546
0.0015062
0.00147156
0.00150167
0.00146801
0.00149743
0.00146472
0.00149341
0.00146162
0.00148956
0.00145865
0.00148581
0.00145576
0.00148213
0.00145291
0.00147847
0.00145005
0.0014748
0.00144716
0.0014711
0.00144422
0.00146735
0.00144121
0.00146352
0.00143811
0.00145962
0.00143491
0.00145561
0.00143159
0.0014515
0.00142816
0.00144728
0.00142461
0.00144294
0.00142093
0.00143849
0.00141712
0.00143391
0.00141318
0.00142921
0.00140911
0.00190387
0.00183832
0.00184049
0.00177766
0.00178567
0.00172534
0.00173846
0.00168046
0.00169799
0.00164216
0.00166344
0.00160964
0.00163406
0.00158217
0.00160918
0.00155909
0.00158819
0.00153979
0.00157052
0.00152372
0.00155568
0.0015104
0.00154325
0.00149941
0.00153284
0.00149037
0.00152412
0.00148295
0.0015168
0.00147687
0.00151063
0.00147189
0.00150539
0.00146778
0.00150091
0.00146438
0.00149702
0.00146153
0.0014936
0.0014591
0.00149052
0.00145698
0.0014877
0.00145508
0.00148505
0.00145333
0.00148251
0.00145165
0.00148003
0.00144999
0.00147755
0.00144831
0.00147504
0.00144659
0.00147247
0.00144477
0.00146981
0.00144285
0.00146705
0.00144081
0.00146417
0.00143863
0.00146116
0.00143631
0.001458
0.00143382
0.00145469
0.00143118
0.00145124
0.00142837
0.00144762
0.0014254
0.00144386
0.00142227
0.00143993
0.00141897
0.00143585
0.00141551
0.00143162
0.00141189
0.00181714
0.00175467
0.00175874
0.00169888
0.00170884
0.00165138
0.00166648
0.00161125
0.00163074
0.00157758
0.0016008
0.00154956
0.00157586
0.00152643
0.00155524
0.0015075
0.00153831
0.00149216
0.0015245
0.00147985
0.00151331
0.00147008
0.00150432
0.00146242
0.00149713
0.00145651
0.00149143
0.00145201
0.00148692
0.00144866
0.00148338
0.00144621
0.00148058
0.00144446
0.00147837
0.00144325
0.00147659
0.00144242
0.00147511
0.00144187
0.00147384
0.00144148
0.0014727
0.00144119
0.0014716
0.00144092
0.0014705
0.00144061
0.00146934
0.00144023
0.00146809
0.00143973
0.00146672
0.00143908
0.00146521
0.00143828
0.00146353
0.00143729
0.00146168
0.00143612
0.00145964
0.00143474
0.0014574
0.00143315
0.00145497
0.00143136
0.00145235
0.00142936
0.00144952
0.00142716
0.00144649
0.00142474
0.00144328
0.00142213
0.00143987
0.00141932
0.00143627
0.00141632
0.00143249
0.00141314
0.00172965
0.0016703
0.00167623
0.0016194
0.00163127
0.00157676
0.00159379
0.0015414
0.00156282
0.00151241
0.00153751
0.00148892
0.00151705
0.00147016
0.00150071
0.00145542
0.00148785
0.00144405
0.0014779
0.0014355
0.00147036
0.00142926
0.00146478
0.00142493
0.00146079
0.00142211
0.00145807
0.0014205
0.00145635
0.00141983
0.00145539
0.00141987
0.00145499
0.00142044
0.001455
0.00142136
0.00145528
0.00142251
0.00145571
0.00142378
0.0014562
0.00142508
0.00145668
0.00142635
0.00145709
0.00142751
0.00145738
0.00142853
0.00145751
0.00142938
0.00145746
0.00143001
0.00145719
0.00143041
0.00145669
0.00143058
0.00145596
0.00143049
0.00145498
0.00143014
0.00145375
0.00142953
0.00145227
0.00142866
0.00145055
0.00142753
0.00144857
0.00142615
0.00144635
0.00142451
0.00144389
0.00142264
0.00144121
0.00142053
0.00143829
0.00141819
0.00143517
0.00141563
0.00143183
0.00141286
0.0016416
0.00158541
0.00159314
0.0015394
0.00155314
0.00150164
0.00152056
0.0014711
0.00149439
0.00144682
0.00147374
0.0014279
0.00145776
0.00141353
0.00144572
0.00140298
0.00143694
0.00139559
0.00143085
0.00139078
0.00142692
0.00138807
0.00142474
0.00138702
0.00142392
0.00138727
0.00142415
0.0013885
0.00142516
0.00139047
0.00142673
0.00139295
0.00142868
0.00139576
0.00143086
0.00139877
0.00143314
0.00140184
0.00143542
0.00140488
0.00143763
0.00140781
0.00143969
0.00141058
0.00144156
0.00141314
0.00144319
0.00141544
0.00144457
0.00141746
0.00144566
0.00141918
0.00144646
0.00142059
0.00144694
0.00142168
0.00144712
0.00142245
0.00144699
0.00142289
0.00144654
0.00142302
0.00144578
0.00142283
0.00144473
0.00142234
0.00144338
0.00142154
0.00144175
0.00142046
0.00143984
0.0014191
0.00143766
0.00141746
0.00143523
0.00141558
0.00143255
0.00141344
0.00142964
0.00141107
0.00155317
0.00150017
0.00150966
0.00145907
0.00147463
0.00142621
0.00144696
0.00140051
0.00142562
0.00138097
0.00140965
0.00136665
0.00139818
0.00135669
0.00139043
0.00135033
0.00138572
0.00134691
0.00138346
0.00134583
0.00138314
0.0013466
0.00138431
0.0013488
0.00138661
0.00135206
0.00138973
0.00135609
0.00139342
0.00136063
0.00139748
0.00136549
0.00140172
0.0013705
0.00140601
0.00137552
0.00141023
0.00138045
0.00141431
0.0013852
0.00141817
0.00138971
0.00142176
0.00139393
0.00142503
0.00139782
0.00142797
0.00140135
0.00143054
0.0014045
0.00143274
0.00140726
0.00143456
0.00140964
0.00143599
0.00141162
0.00143704
0.0014132
0.00143771
0.00141441
0.00143801
0.00141523
0.00143795
0.0014157
0.00143755
0.0014158
0.0014368
0.00141557
0.00143573
0.00141501
0.00143434
0.00141414
0.00143266
0.00141296
0.00143069
0.00141151
0.00142845
0.00140978
0.00142595
0.00140779
0.00146454
0.00141476
0.00142597
0.00137856
0.00139591
0.00135062
0.00137317
0.0013298
0.00135667
0.00131503
0.0013454
0.00130532
0.00133844
0.00129977
0.00133498
0.00129761
0.00133434
0.00129814
0.00133588
0.00130076
0.00133911
0.00130498
0.00134359
0.00131037
0.00134896
0.00131659
0.00135492
0.00132334
0.00136123
0.0013304
0.0013677
0.00133757
0.00137416
0.0013447
0.0013805
0.00135167
0.00138661
0.0013584
0.00139242
0.0013648
0.00139788
0.00137082
0.00140293
0.00137643
0.00140756
0.00138159
0.00141174
0.0013863
0.00141547
0.00139053
0.00141872
0.0013943
0.00142152
0.00139759
0.00142386
0.00140041
0.00142574
0.00140278
0.00142719
0.00140471
0.00142821
0.0014062
0.00142882
0.00140728
0.00142903
0.00140796
0.00142886
0.00140826
0.00142832
0.0014082
0.00142744
0.00140779
0.00142623
0.00140706
0.00142471
0.00140601
0.00142288
0.00140467
0.00142078
0.00140305
0.00137589
0.00132934
0.00134223
0.00129803
0.00131713
0.00127503
0.00129935
0.00125912
0.00128771
0.00124914
0.00128114
0.00124406
0.0012787
0.00124294
0.00127953
0.00124496
0.00128292
0.00124941
0.00128824
0.00125569
0.00129497
0.00126331
0.0013027
0.00127183
0.00131108
0.00128094
0.0013198
0.00129035
0.00132866
0.00129984
0.00133747
0.00130925
0.00134608
0.00131843
0.0013544
0.00132728
0.00136232
0.00133573
0.0013698
0.00134371
0.00137679
0.00135118
0.00138326
0.00135812
0.00138918
0.0013645
0.00139456
0.00137033
0.00139938
0.0013756
0.00140366
0.00138031
0.00140739
0.00138448
0.00141059
0.00138811
0.00141328
0.00139122
0.00141547
0.00139383
0.00141717
0.00139596
0.00141841
0.00139763
0.00141922
0.00139885
0.0014196
0.00139966
0.00141958
0.00140006
0.00141918
0.0014001
0.00141842
0.00139977
0.00141732
0.00139912
0.0014159
0.00139815
0.00141418
0.00139688
0.00128739
0.00124407
0.00125861
0.00121766
0.00123848
0.00119962
0.00122566
0.00118863
0.00121889
0.00118348
0.00121705
0.00118304
0.00121912
0.00118635
0.00122422
0.00119253
0.00123161
0.00120087
0.00124065
0.00121076
0.00125084
0.0012217
0.00126176
0.00123329
0.00127306
0.00124521
0.00128447
0.00125719
0.0012958
0.00126904
0.00130687
0.0012806
0.00131755
0.00129175
0.00132777
0.0013024
0.00133743
0.00131249
0.00134651
0.00132198
0.00135497
0.00133083
0.00136278
0.00133904
0.00136995
0.00134659
0.00137646
0.00135349
0.00138234
0.00135974
0.00138758
0.00136535
0.00139221
0.00137035
0.00139624
0.00137475
0.00139969
0.00137857
0.00140258
0.00138183
0.00140494
0.00138456
0.00140679
0.00138678
0.00140815
0.00138851
0.00140906
0.0013898
0.00140953
0.00139065
0.00140958
0.00139109
0.00140926
0.00139116
0.00140857
0.00139087
0.00140754
0.00139026
0.00140618
0.00138933
0.00119918
0.0011591
0.00117525
0.00113758
0.00116009
0.00112452
0.00115226
0.0011185
0.0011504
0.0011182
0.00115329
0.00112242
0.00115987
0.00113014
0.00116921
0.00114046
0.00118055
0.00115264
0.00119327
0.00116607
0.00120684
0.00118027
0.00122086
0.00119485
0.001235
0.00120948
0.00124902
0.00122395
0.00126273
0.00123806
0.00127597
0.00125169
0.00128864
0.00126472
0.00130067
0.00127709
0.00131201
0.00128875
0.00132261
0.00129967
0.00133246
0.00130983
0.00134156
0.00131924
0.0013499
0.00132789
0.0013575
0.0013358
0.00136438
0.00134298
0.00137054
0.00134946
0.00137602
0.00135524
0.00138084
0.00136037
0.00138501
0.00136486
0.00138858
0.00136874
0.00139156
0.00137204
0.00139399
0.00137478
0.00139589
0.001377
0.00139729
0.00137873
0.00139823
0.00138
0.00139872
0.00138083
0.0013988
0.00138126
0.0013985
0.00138132
0.00139784
0.00138104
0.00139684
0.00138043
0.00111142
0.00107458
0.00109231
0.00105795
0.00108213
0.0010499
0.00107931
0.00104889
0.00108238
0.00105347
0.00109002
0.00106236
0.00110109
0.00107448
0.00111465
0.0010889
0.0011299
0.00110487
0.00114621
0.00112177
0.00116309
0.00113915
0.00118012
0.0011566
0.00119702
0.00117387
0.00121355
0.00119072
0.00122953
0.00120699
0.00124485
0.00122258
0.00125942
0.0012374
0.00127318