/*--------------------------------*- C++ -*----------------------------------*\
| =========                 |                                                 |
| \\      /  F ield         | OpenFOAM: The Open Source CFD Toolbox           |
|  \\    /   O peration     | Version:  v2012                                 |
|   \\  /    A nd           | Website:  www.openfoam.com                      |
|    \\/     M anipulation  |                                                 |
\*---------------------------------------------------------------------------*/
FoamFile
{
    version     2.0;
    format      ascii;
    class       pointScalarField;
    location    "5";
    object      pEpsilonEq;
}
// * * * * * * * * * * * * * * * * * * * * * * * * * * * * * * * * * * * * * //

dimensions      [0 0 0 0 0 0 0];


internalField   nonuniform List<scalar> 
32562
(
0.00120094
0.000520864
0.000735186
0.000517709
0.00334346
0.00022967
0.00116994
0.00127758
0.00127537
0.000647406
0.000563475
0.000563475
0.00127758
0.00116994
0.00334346
0.00120094
0.00022967
0.000520864
0.000647406
0.000735186
0.00127537
0.000517709
0.00116797
0.00117137
0.00117684
0.00118433
0.00119368
0.00120468
0.00121708
0.00123064
0.00124508
0.00126014
0.00127555
0.00129107
0.00130645
0.00132146
0.0013359
0.00134959
0.00136235
0.00137405
0.00138457
0.00139379
0.00140164
0.00140805
0.00141298
0.0014164
0.0014183
0.00141866
0.00141749
0.00141482
0.00141068
0.00140508
0.00139808
0.00138972
0.00138004
0.00136912
0.001357
0.0013438
0.00132966
0.00131483
0.00129978
0.0012509
0.00123531
0.00121687
0.00119682
0.00117559
0.0011534
0.00113033
0.00110646
0.00108184
0.00105649
0.00103044
0.00100372
0.000976351
0.000948356
0.000919758
0.000890581
0.000860849
0.000830589
0.000799831
0.000768607
0.000736954
0.000704913
0.00067253
0.000639859
0.000606965
0.000573922
0.000540818
0.000507761
0.000474885
0.000442355
0.000410381
0.00037923
0.000349253
0.000320905
0.000294781
0.000271646
0.000252448
0.000238294
0.000230404
0.00113258
0.00106544
0.00100328
0.000945213
0.000890933
0.000840228
0.0007929
0.000748754
0.000707595
0.000669233
0.000633486
0.000600182
0.000569156
0.000540259
0.000513347
0.000488289
0.000464962
0.000443253
0.000423056
0.000404273
0.000386814
0.000370596
0.000355542
0.000341579
0.000328642
0.000316668
0.000305601
0.000295387
0.000285977
0.000277325
0.000269386
0.000262119
0.000255486
0.000249449
0.000243976
0.000239041
0.000234632
0.000230777
0.00022761
0.000226493
0.000221115
0.000218176
0.000217246
0.000217976
0.000220081
0.000223323
0.000227505
0.000232461
0.000238052
0.000244164
0.000250699
0.000257578
0.000264734
0.00027211
0.00027966
0.000287344
0.00029513
0.000302989
0.000310898
0.000318837
0.000326788
0.000334737
0.000342671
0.000350577
0.000358446
0.000366269
0.000374038
0.000381745
0.000389383
0.000396946
0.000404427
0.000411821
0.000419122
0.000426324
0.000433421
0.000440409
0.000447281
0.000454032
0.000460657
0.00046715
0.000473504
0.000479715
0.000485775
0.000491679
0.00049742
0.000502991
0.000508386
0.000513596
0.000518614
0.000523433
0.000528044
0.000532438
0.000536606
0.000540538
0.000544224
0.000547654
0.000550816
0.000553698
0.000556287
0.00055857
0.000560533
0.00056216
0.000563436
0.000564344
0.000564866
0.000564983
0.000564675
0.000563921
0.000562699
0.000560988
0.000558763
0.000556001
0.000552681
0.000548781
0.000544291
0.000539214
0.000533586
0.000527485
0.00051983
0.000520451
0.000521029
0.00052174
0.000522622
0.000523687
0.000524937
0.000526372
0.000527991
0.000529792
0.000531774
0.000533933
0.000536268
0.000538775
0.000541452
0.000544296
0.000547303
0.000550469
0.000553791
0.000557263
0.000560881
0.00056464
0.000568534
0.000572559
0.000576707
0.000580973
0.000585349
0.000589829
0.000594405
0.000599069
0.000603814
0.000608631
0.000613512
0.000618447
0.000623428
0.000628444
0.000633486
0.000638533
0.000643509
0.000650216
0.000652493
0.000654747
0.000656988
0.000659219
0.000661441
0.000663652
0.000665853
0.000668041
0.000670217
0.000672378
0.000674524
0.000676653
0.000678765
0.000680859
0.000682933
0.000684987
0.000687019
0.000689028
0.000691013
0.000692974
0.000694908
0.000696815
0.000698693
0.000700542
0.00070236
0.000704147
0.000705901
0.00070762
0.000709305
0.000710953
0.000712563
0.000714135
0.000715668
0.000717159
0.000718609
0.000720016
0.000721379
0.000722696
0.000723968
0.000725192
0.000726368
0.000727495
0.000728573
0.000729599
0.000730573
0.000731495
0.000732363
0.000733177
0.000733936
0.00073464
0.000735288
0.00073588
0.000736415
0.000736893
0.000737313
0.000737677
0.000737984
0.000738235
0.000738429
0.000738569
0.000738654
0.000738686
0.000738667
0.000738599
0.000738483
0.000738324
0.000738124
0.000737888
0.00073762
0.000737326
0.000737013
0.000736689
0.000736363
0.000736047
0.000735754
0.000735502
0.000735314
0.000735218
0.000734881
0.000734035
0.000733001
0.000732125
0.000731621
0.000731613
0.00073217
0.000733328
0.000735098
0.000737482
0.000740468
0.000744044
0.000748192
0.000752894
0.000758129
0.000763879
0.000770124
0.000776847
0.000784029
0.000791655
0.00079971
0.000808178
0.000817045
0.0008263
0.000835929
0.000845923
0.000856268
0.000866956
0.000877975
0.000889316
0.000900969
0.000912923
0.000925169
0.000937695
0.000950492
0.000963546
0.000976845
0.000990376
0.00100412
0.00101807
0.00103221
0.00104651
0.00106096
0.00107552
0.00109019
0.00110493
0.00111971
0.00113451
0.00114928
0.001164
0.00117861
0.00119309
0.00120737
0.00122142
0.00123518
0.00124859
0.0012616
0.00127414
0.00128614
0.00129754
0.00130825
0.00131821
0.00132734
0.00133555
0.00134275
0.00134887
0.00135381
0.00135749
0.00135982
0.00136071
0.00136007
0.00135783
0.0013539
0.0013482
0.00134068
0.00133126
0.00131989
0.00130649
0.00129081
0.00126037
0.00124533
0.00122936
0.00121239
0.00119444
0.00117553
0.00115568
0.00113495
0.00111338
0.00109101
0.00106791
0.00104414
0.00101978
0.000994907
0.000969604
0.000943965
0.000918088
0.000892074
0.000866032
0.000840074
0.000814317
0.000788878
0.000763879
0.000739444
0.000715694
0.000692754
0.000670745
0.000649786
0.000629994
0.00061148
0.000594351
0.000578707
0.000564641
0.000552238
0.000541575
0.000532718
0.000525717
0.000520555
0.000516552
0.000530707
0.000544665
0.000558181
0.000571337
0.000584181
0.000596742
0.000609037
0.000621079
0.000632878
0.000644442
0.000655775
0.000666885
0.000677777
0.000688456
0.000698928
0.000709198
0.00071927
0.000729151
0.000738845
0.000748358
0.000757695
0.000766861
0.00077586
0.0007847
0.000793383
0.000801916
0.000810303
0.00081855
0.00082666
0.00083464
0.000842493
0.000850225
0.00085784
0.000865344
0.000872739
0.000880032
0.000887227
0.000894328
0.00090134
0.000908267
0.000915114
0.000921885
0.000928584
0.000935217
0.000941786
0.000948297
0.000954754
0.000961161
0.000967522
0.000973843
0.000980126
0.000986377
0.000992599
0.000998797
0.00100498
0.00101114
0.00101729
0.00102344
0.00102958
0.00103572
0.00104187
0.00104804
0.00105421
0.00106041
0.00106663
0.00107288
0.00107916
0.00108548
0.00109185
0.00109826
0.00110472
0.00111124
0.00111783
0.00112448
0.00113121
0.00113802
0.00114493
0.00115194
0.00115907
0.00118538
0.00120055
0.00121626
0.00123259
0.0012496
0.00126735
0.00128591
0.00130534
0.0013257
0.00134708
0.00136956
0.00139323
0.00141817
0.00144449
0.0014723
0.00150171
0.00153286
0.00156587
0.0016009
0.00163811
0.00167767
0.00171976
0.0017646
0.00181241
0.00186345
0.00191797
0.00197629
0.00203874
0.0021057
0.00217761
0.00225494
0.00233829
0.00242834
0.00252593
0.00263221
0.00274878
0.00287859
0.00304207
0.00323656
0.00126282
0.00124433
0.00122769
0.00121089
0.0011937
0.00117618
0.00115847
0.00114068
0.00112295
0.00110536
0.00108801
0.00107097
0.00105431
0.00103806
0.00102228
0.00100698
0.000992197
0.000977938
0.000964211
0.00095102
0.000938361
0.000926229
0.000914614
0.000903506
0.000892891
0.000882755
0.00087308
0.000863852
0.000855051
0.000846661
0.000838665
0.000831043
0.000823778
0.000816854
0.000810251
0.000803953
0.000797944
0.000792205
0.000786722
0.000781477
0.000776454
0.000771639
0.000767015
0.000762568
0.000758284
0.000754146
0.000750143
0.000746259
0.000742481
0.000738797
0.000735194
0.00073166
0.000728183
0.000724753
0.00072136
0.000717994
0.000714646
0.00071131
0.000707978
0.000704644
0.000701306
0.00069796
0.000694604
0.00069124
0.00068787
0.000684499
0.000681133
0.000677783
0.00067446
0.000671179
0.00066796
0.000664826
0.000661802
0.000658921
0.000656219
0.000653738
0.000651525
0.000649633
0.000648135
0.00130493
0.00130755
0.00130999
0.00131235
0.00131466
0.00131689
0.00131901
0.001321
0.00132282
0.00132447
0.00132594
0.00132721
0.00132827
0.00132913
0.00132979
0.00133024
0.00133049
0.00133054
0.0013304
0.00133007
0.00132955
0.00132886
0.001328
0.00132697
0.00132578
0.00132444
0.00132296
0.00132133
0.00131958
0.0013177
0.0013157
0.00131359
0.00131138
0.00130908
0.00130668
0.00130421
0.00130166
0.00129905
0.00129638
0.00129366
0.00129089
0.0012881
0.00128528
0.00128244
0.00127959
0.00127675
0.00127391
0.0012711
0.00126831
0.00126557
0.00126288
0.00126025
0.00125769
0.00125521
0.00125284
0.00125058
0.00124844
0.00124644
0.00124459
0.00124292
0.00124143
0.00124014
0.00123908
0.00123825
0.00123768
0.0012374
0.00123742
0.00123776
0.00123845
0.00123951
0.00124097
0.00124285
0.0012452
0.00124802
0.00125136
0.00125524
0.00125971
0.0012648
0.00127058
0.00327148
0.00321761
0.00319389
0.00316473
0.00312377
0.00307789
0.00303478
0.00299223
0.00295273
0.00291045
0.00286272
0.00281032
0.00275371
0.00269324
0.00262922
0.00256194
0.00249167
0.00241867
0.00234319
0.00226547
0.00218576
0.0021043
0.00202131
0.00193703
0.00185166
0.00176541
0.0016785
0.0015911
0.00150341
0.0014156
0.00132784
0.00124029
0.00115309
0.00106639
0.000980316
0.000894995
0.000810545
0.000727074
0.000644685
0.000483541
0.000404977
0.000327893
0.000252442
0.000178912
0.000108193
4.6304e-05
5.13931e-05
0.000111832
0.000176193
0.000239907
0.00030223
0.000362918
0.000421855
0.000478967
0.000534202
0.000587513
0.000638862
0.000688211
0.000735527
0.000780774
0.000823923
0.000864942
0.0009038
0.000940471
0.000974925
0.00100714
0.00103708
0.00106473
0.00109007
0.00111307
0.00113371
0.00115197
0.00116783
0.00118127
0.00119228
0.0012009
0.00120749
0.00121526
0.000557118
0.000577666
0.00060726
0.000642508
0.000680851
0.000720479
0.000760159
0.000799078
0.000836714
0.000872742
0.000906976
0.000939319
0.000969739
0.000998245
0.00102487
0.00104968
0.00107273
0.0010941
0.00111387
0.00113212
0.00114892
0.00116436
0.0011785
0.00119142
0.00120319
0.00121389
0.00122356
0.00123227
0.00124008
0.00124704
0.0012532
0.00125861
0.0012633
0.0012673
0.00127061
0.00127319
0.00127486
0.0012751
0.00127217
0.000557118
0.000577666
0.00060726
0.000642508
0.000680851
0.000720479
0.000760159
0.000799078
0.000836714
0.000872742
0.000906976
0.000939319
0.000969739
0.000998245
0.00102487
0.00104968
0.00107273
0.0010941
0.00111387
0.00113212
0.00114892
0.00116436
0.0011785
0.00119142
0.00120319
0.00121389
0.00122356
0.00123227
0.00124008
0.00124704
0.0012532
0.00125861
0.0012633
0.0012673
0.00127061
0.00127319
0.00127486
0.0012751
0.00127217
0.00129978
0.00131483
0.00132966
0.0013438
0.001357
0.00136912
0.00138004
0.00138972
0.00139808
0.00140508
0.00141068
0.00141482
0.00141749
0.00141866
0.0014183
0.0014164
0.00141298
0.00140805
0.00140164
0.00139379
0.00138457
0.00137405
0.00136235
0.00134959
0.0013359
0.00132146
0.00130645
0.00129107
0.00127555
0.00126014
0.00124508
0.00123064
0.00121708
0.00120468
0.00119368
0.00118433
0.00117684
0.00117137
0.00116797
0.00118538
0.00120055
0.00121626
0.00123259
0.0012496
0.00126735
0.00128591
0.00130534
0.0013257
0.00134708
0.00136956
0.00139323
0.00141817
0.00144449
0.0014723
0.00150171
0.00153286
0.00156587
0.0016009
0.00163811
0.00167767
0.00171976
0.0017646
0.00181241
0.00186345
0.00191797
0.00197629
0.00203874
0.0021057
0.00217761
0.00225494
0.00233829
0.00242834
0.00252593
0.00263221
0.00274878
0.00287859
0.00304207
0.00323656
0.00327148
0.00321761
0.00319389
0.00316473
0.00312377
0.00307789
0.00303478
0.00299223
0.00295273
0.00291045
0.00286272
0.00281032
0.00275371
0.00269324
0.00262922
0.00256194
0.00249167
0.00241867
0.00234319
0.00226547
0.00218576
0.0021043
0.00202131
0.00193703
0.00185166
0.00176541
0.0016785
0.0015911
0.00150341
0.0014156
0.00132784
0.00124029
0.00115309
0.00106639
0.000980316
0.000894995
0.000810545
0.000727074
0.000644685
0.000483541
0.000404977
0.000327893
0.000252442
0.000178912
0.000108193
4.6304e-05
5.13931e-05
0.000111832
0.000176193
0.000239907
0.00030223
0.000362918
0.000421855
0.000478967
0.000534202
0.000587513
0.000638862
0.000688211
0.000735527
0.000780774
0.000823923
0.000864942
0.0009038
0.000940471
0.000974925
0.00100714
0.00103708
0.00106473
0.00109007
0.00111307
0.00113371
0.00115197
0.00116783
0.00118127
0.00119228
0.0012009
0.00120749
0.00121526
0.00113258
0.00106544
0.00100328
0.000945213
0.000890933
0.000840228
0.0007929
0.000748754
0.000707595
0.000669233
0.000633486
0.000600182
0.000569156
0.000540259
0.000513347
0.000488289
0.000464962
0.000443253
0.000423056
0.000404273
0.000386814
0.000370596
0.000355542
0.000341579
0.000328642
0.000316668
0.000305601
0.000295387
0.000285977
0.000277325
0.000269386
0.000262119
0.000255486
0.000249449
0.000243976
0.000239041
0.000234632
0.000230777
0.00022761
0.000230404
0.000238294
0.000252448
0.000271646
0.000294781
0.000320905
0.000349253
0.00037923
0.000410381
0.000442355
0.000474885
0.000507761
0.000540818
0.000573922
0.000606965
0.000639859
0.00067253
0.000704913
0.000736954
0.000768607
0.000799831
0.000830589
0.000860849
0.000890581
0.000919758
0.000948356
0.000976351
0.00100372
0.00103044
0.00105649
0.00108184
0.00110646
0.00113033
0.0011534
0.00117559
0.00119682
0.00121687
0.00123531
0.0012509
0.000226493
0.000221115
0.000218176
0.000217246
0.000217976
0.000220081
0.000223323
0.000227505
0.000232461
0.000238052
0.000244164
0.000250699
0.000257578
0.000264734
0.00027211
0.00027966
0.000287344
0.00029513
0.000302989
0.000310898
0.000318837
0.000326788
0.000334737
0.000342671
0.000350577
0.000358446
0.000366269
0.000374038
0.000381745
0.000389383
0.000396946
0.000404427
0.000411821
0.000419122
0.000426324
0.000433421
0.000440409
0.000447281
0.000454032
0.000460657
0.00046715
0.000473504
0.000479715
0.000485775
0.000491679
0.00049742
0.000502991
0.000508386
0.000513596
0.000518614
0.000523433
0.000528044
0.000532438
0.000536606
0.000540538
0.000544224
0.000547654
0.000550816
0.000553698
0.000556287
0.00055857
0.000560533
0.00056216
0.000563436
0.000564344
0.000564866
0.000564983
0.000564675
0.000563921
0.000562699
0.000560988
0.000558763
0.000556001
0.000552681
0.000548781
0.000544291
0.000539214
0.000533586
0.000527485
0.00051983
0.000520451
0.000521029
0.00052174
0.000522622
0.000523687
0.000524937
0.000526372
0.000527991
0.000529792
0.000531774
0.000533933
0.000536268
0.000538775
0.000541452
0.000544296
0.000547303
0.000550469
0.000553791
0.000557263
0.000560881
0.00056464
0.000568534
0.000572559
0.000576707
0.000580973
0.000585349
0.000589829
0.000594405
0.000599069
0.000603814
0.000608631
0.000613512
0.000618447
0.000623428
0.000628444
0.000633486
0.000638533
0.000643509
0.000648135
0.000649633
0.000651525
0.000653738
0.000656219
0.000658921
0.000661802
0.000664826
0.00066796
0.000671179
0.00067446
0.000677783
0.000681133
0.000684499
0.00068787
0.00069124
0.000694604
0.00069796
0.000701306
0.000704644
0.000707978
0.00071131
0.000714646
0.000717994
0.00072136
0.000724753
0.000728183
0.00073166
0.000735194
0.000738797
0.000742481
0.000746259
0.000750143
0.000754146
0.000758284
0.000762568
0.000767015
0.000771639
0.000776454
0.000781477
0.000786722
0.000792205
0.000797944
0.000803953
0.000810251
0.000816854
0.000823778
0.000831043
0.000838665
0.000846661
0.000855051
0.000863852
0.00087308
0.000882755
0.000892891
0.000903506
0.000914614
0.000926229
0.000938361
0.00095102
0.000964211
0.000977938
0.000992197
0.00100698
0.00102228
0.00103806
0.00105431
0.00107097
0.00108801
0.00110536
0.00112295
0.00114068
0.00115847
0.00117618
0.0011937
0.00121089
0.00122769
0.00124433
0.00126282
0.000650216
0.000652493
0.000654747
0.000656988
0.000659219
0.000661441
0.000663652
0.000665853
0.000668041
0.000670217
0.000672378
0.000674524
0.000676653
0.000678765
0.000680859
0.000682933
0.000684987
0.000687019
0.000689028
0.000691013
0.000692974
0.000694908
0.000696815
0.000698693
0.000700542
0.00070236
0.000704147
0.000705901
0.00070762
0.000709305
0.000710953
0.000712563
0.000714135
0.000715668
0.000717159
0.000718609
0.000720016
0.000721379
0.000722696
0.000723968
0.000725192
0.000726368
0.000727495
0.000728573
0.000729599
0.000730573
0.000731495
0.000732363
0.000733177
0.000733936
0.00073464
0.000735288
0.00073588
0.000736415
0.000736893
0.000737313
0.000737677
0.000737984
0.000738235
0.000738429
0.000738569
0.000738654
0.000738686
0.000738667
0.000738599
0.000738483
0.000738324
0.000738124
0.000737888
0.00073762
0.000737326
0.000737013
0.000736689
0.000736363
0.000736047
0.000735754
0.000735502
0.000735314
0.000735218
0.000734881
0.000734035
0.000733001
0.000732125
0.000731621
0.000731613
0.00073217
0.000733328
0.000735098
0.000737482
0.000740468
0.000744044
0.000748192
0.000752894
0.000758129
0.000763879
0.000770124
0.000776847
0.000784029
0.000791655
0.00079971
0.000808178
0.000817045
0.0008263
0.000835929
0.000845923
0.000856268
0.000866956
0.000877975
0.000889316
0.000900969
0.000912923
0.000925169
0.000937695
0.000950492
0.000963546
0.000976845
0.000990376
0.00100412
0.00101807
0.00103221
0.00104651
0.00106096
0.00107552
0.00109019
0.00110493
0.00111971
0.00113451
0.00114928
0.001164
0.00117861
0.00119309
0.00120737
0.00122142
0.00123518
0.00124859
0.0012616
0.00127414
0.00128614
0.00129754
0.00130825
0.00131821
0.00132734
0.00133555
0.00134275
0.00134887
0.00135381
0.00135749
0.00135982
0.00136071
0.00136007
0.00135783
0.0013539
0.0013482
0.00134068
0.00133126
0.00131989
0.00130649
0.00129081
0.00127058
0.0012648
0.00125971
0.00125524
0.00125136
0.00124802
0.0012452
0.00124285
0.00124097
0.00123951
0.00123845
0.00123776
0.00123742
0.0012374
0.00123768
0.00123825
0.00123908
0.00124014
0.00124143
0.00124292
0.00124459
0.00124644
0.00124844
0.00125058
0.00125284
0.00125521
0.00125769
0.00126025
0.00126288
0.00126557
0.00126831
0.0012711
0.00127391
0.00127675
0.00127959
0.00128244
0.00128528
0.0012881
0.00129089
0.00129366
0.00129638
0.00129905
0.00130166
0.00130421
0.00130668
0.00130908
0.00131138
0.00131359
0.0013157
0.0013177
0.00131958
0.00132133
0.00132296
0.00132444
0.00132578
0.00132697
0.001328
0.00132886
0.00132955
0.00133007
0.0013304
0.00133054
0.00133049
0.00133024
0.00132979
0.00132913
0.00132827
0.00132721
0.00132594
0.00132447
0.00132282
0.001321
0.00131901
0.00131689
0.00131466
0.00131235
0.00130999
0.00130755
0.00130493
0.00126037
0.00124533
0.00122936
0.00121239
0.00119444
0.00117553
0.00115568
0.00113495
0.00111338
0.00109101
0.00106791
0.00104414
0.00101978
0.000994907
0.000969604
0.000943965
0.000918088
0.000892074
0.000866032
0.000840074
0.000814317
0.000788878
0.000763879
0.000739444
0.000715694
0.000692754
0.000670745
0.000649786
0.000629994
0.00061148
0.000594351
0.000578707
0.000564641
0.000552238
0.000541575
0.000532718
0.000525717
0.000520555
0.000516552
0.000530707
0.000544665
0.000558181
0.000571337
0.000584181
0.000596742
0.000609037
0.000621079
0.000632878
0.000644442
0.000655775
0.000666885
0.000677777
0.000688456
0.000698928
0.000709198
0.00071927
0.000729151
0.000738845
0.000748358
0.000757695
0.000766861
0.00077586
0.0007847
0.000793383
0.000801916
0.000810303
0.00081855
0.00082666
0.00083464
0.000842493
0.000850225
0.00085784
0.000865344
0.000872739
0.000880032
0.000887227
0.000894328
0.00090134
0.000908267
0.000915114
0.000921885
0.000928584
0.000935217
0.000941786
0.000948297
0.000954754
0.000961161
0.000967522
0.000973843
0.000980126
0.000986377
0.000992599
0.000998797
0.00100498
0.00101114
0.00101729
0.00102344
0.00102958
0.00103572
0.00104187
0.00104804
0.00105421
0.00106041
0.00106663
0.00107288
0.00107916
0.00108548
0.00109185
0.00109826
0.00110472
0.00111124
0.00111783
0.00112448
0.00113121
0.00113802
0.00114493
0.00115194
0.00115907
0.00314113
0.00296881
0.00283324
0.0027109
0.00259865
0.00249546
0.0024003
0.00231231
0.00223074
0.00215499
0.00208453
0.00201887
0.00195763
0.00190042
0.00184693
0.00179686
0.00174994
0.00170594
0.00166463
0.0016258
0.00158928
0.00155488
0.00152247
0.00149188
0.00146298
0.00143566
0.0014098
0.00138528
0.00136201
0.00133989
0.00131885
0.00129879
0.00127964
0.00126132
0.00124377
0.00122692
0.00121069
0.00119501
0.00117977
0.00310151
0.00294963
0.00281932
0.0027005
0.00259064
0.00248907
0.00239506
0.00230792
0.00222702
0.00215181
0.0020818
0.00201654
0.00195566
0.00189879
0.00184562
0.00179585
0.00174922
0.00170549
0.00166444
0.00162587
0.00158959
0.00155544
0.00152324
0.00149287
0.00146419
0.00143707
0.00141139
0.00138705
0.00136395
0.00134199
0.0013211
0.00130117
0.00128214
0.00126393
0.00124648
0.0012297
0.00121356
0.00119799
0.00118299
0.00308034
0.00292822
0.00280184
0.00268607
0.00257865
0.00247898
0.00238645
0.00230049
0.00222058
0.00214621
0.00207694
0.00201236
0.0019521
0.0018958
0.00184317
0.00179392
0.00174778
0.00170452
0.00166393
0.00162579
0.00158993
0.00155617
0.00152437
0.00149437
0.00146604
0.00143925
0.0014139
0.00138987
0.00136706
0.00134538
0.00132475
0.00130507
0.00128628
0.0012683
0.00125107
0.00123452
0.00121859
0.00120326
0.00118846
0.00304934
0.00290305
0.00278147
0.00266852
0.00256344
0.0024657
0.0023748
0.00229023
0.00221153
0.00213825
0.00206997
0.0020063
0.00194689
0.0018914
0.00183953
0.001791
0.00174556
0.00170297
0.00166301
0.00162549
0.00159022
0.00155703
0.00152576
0.00149628
0.00146845
0.00144214
0.00141725
0.00139365
0.00137126
0.00134998
0.00132972
0.0013104
0.00129196
0.00127431
0.00125739
0.00124115
0.00122552
0.00121046
0.0011959
0.00301312
0.00287629
0.00275833
0.00264804
0.00254519
0.00244939
0.0023602
0.00227718
0.00219988
0.0021279
0.00206083
0.00199831
0.00193997
0.00188551
0.00183461
0.00178702
0.00174248
0.00170075
0.00166161
0.00162488
0.00159037
0.00155791
0.00152734
0.00149853
0.00147134
0.00144564
0.00142132
0.00139828
0.00137642
0.00135565
0.00133587
0.00131702
0.00129901
0.00128178
0.00126526
0.0012494
0.00123413
0.0012194
0.00120516
0.00297611
0.00284811
0.00273255
0.00262457
0.00252384
0.00242999
0.00234261
0.00226129
0.0021856
0.00211513
0.00204949
0.00198833
0.00193129
0.00187807
0.00182837
0.00178192
0.00173847
0.00169779
0.00165966
0.00162389
0.0015903
0.00155872
0.001529
0.001501
0.00147458
0.00144962
0.001426
0.00140363
0.00138241
0.00136224
0.00134305
0.00132474
0.00130726
0.00129053
0.00127448
0.00125906
0.00124421
0.00122988
0.00121602
0.00293973
0.00281699
0.00270369
0.00259785
0.0024992
0.00240738
0.00232196
0.00224252
0.00216863
0.00209989
0.00203591
0.00197634
0.00192083
0.00186906
0.00182076
0.00177565
0.00173348
0.00169403
0.00165708
0.00162243
0.00158992
0.00155938
0.00153064
0.00150358
0.00147805
0.00145395
0.00143115
0.00140955
0.00138907
0.0013696
0.00135107
0.0013334
0.00131651
0.00130034
0.00128483
0.00126992
0.00125556
0.00124168
0.00122824
0.00290196
0.00278285
0.00267143
0.00256765
0.00247117
0.00238151
0.00229824
0.00222088
0.00214902
0.00208223
0.00202013
0.00196235
0.00190857
0.00185847
0.00181176
0.00176817
0.00172747
0.00168941
0.0016538
0.00162044
0.00158916
0.00155978
0.00153216
0.00150615
0.00148164
0.0014585
0.00143661
0.00141589
0.00139622
0.00137754
0.00135975
0.00134278
0.00132656
0.00131102
0.00129611
0.00128176
0.00126792
0.00125454
0.00124158
0.00286345
0.00274514
0.00263554
0.00253395
0.00243979
0.0023525
0.00227156
0.0021965
0.00212686
0.00206223
0.00200221
0.00194643
0.00189458
0.00184632
0.00180138
0.0017595
0.00172042
0.00168392
0.0016498
0.00161786
0.00158793
0.00155984
0.00153345
0.00150862
0.00148521
0.00146313
0.00144225
0.00142247
0.00140371
0.00138588
0.0013689
0.00135269
0.00133719
0.00132233
0.00130806
0.00129432
0.00128106
0.00126822
0.00125577
0.00282055
0.00270381
0.0025963
0.00249708
0.0024054
0.00232063
0.00224219
0.00216959
0.00210236
0.00204005
0.00198229
0.00192869
0.00187893
0.00183269
0.00178968
0.00174965
0.00171234
0.00167753
0.00164503
0.00161463
0.00158617
0.00155948
0.00153442
0.00151086
0.00148866
0.00146771
0.0014479
0.00142915
0.00141136
0.00139444
0.00137832
0.00136293
0.0013482
0.00133407
0.00132048
0.00130738
0.00129473
0.00128247
0.00127056
0.00277345
0.002659
0.00255395
0.0024573
0.00236826
0.00228615
0.00221036
0.00214037
0.00207569
0.00201587
0.00196051
0.00190924
0.00186172
0.00181763
0.0017767
0.00173865
0.00170324
0.00167025
0.00163947
0.00161073
0.00158383
0.00155864
0.001535
0.00151277
0.00149185
0.0014721
0.00145344
0.00143577
0.00141899
0.00140304
0.00138782
0.00137329
0.00135936
0.00134599
0.00133312
0.0013207
0.00130868
0.00129702
0.00128568
0.00272232
0.00261073
0.00250849
0.00241468
0.00232848
0.0022492
0.00217622
0.00210899
0.002047
0.0019898
0.00193699
0.00188818
0.00184303
0.00180123
0.00176248
0.00172653
0.00169313
0.00166206
0.00163311
0.0016061
0.00158086
0.00155724
0.00153508
0.00151427
0.00149468
0.0014762
0.00145873
0.00144218
0.00142646
0.0014115
0.00139723
0.00138358
0.00137049
0.00135791
0.00134578
0.00133405
0.00132269
0.00131164
0.00130088
0.00266735
0.00255904
0.00245997
0.00236927
0.00228614
0.00220988
0.00213987
0.00207554
0.00201639
0.00196196
0.00191182
0.00186559
0.00182294
0.00178353
0.00174708
0.00171333
0.00168203
0.00165296
0.00162592
0.00160072
0.0015772
0.00155521
0.0015346
0.00151525
0.00149704
0.00147986
0.00146362
0.00144823
0.0014336
0.00141967
0.00140637
0.00139362
0.00138139
0.00136961
0.00135823
0.00134721
0.00133652
0.0013261
0.00131593
0.00260878
0.00250406
0.00240847
0.00232113
0.00224129
0.00216825
0.00210139
0.00204013
0.00198396
0.00193241
0.00188507
0.00184155
0.00180149
0.00176458
0.00173052
0.00169905
0.00166993
0.00164294
0.00161787
0.00159455
0.00157281
0.0015525
0.00153347
0.00151562
0.00149883
0.00148298
0.001468
0.00145379
0.00144027
0.00142738
0.00141506
0.00140324
0.00139187
0.0013809
0.00137028
0.00135998
0.00134996
0.00134018
0.00133061
0.00254686
0.00244599
0.00235411
0.00227037
0.00219403
0.0021244
0.00206085
0.00200281
0.00194976
0.00190124
0.00185682
0.0018161
0.00177874
0.00174441
0.00171283
0.00168372
0.00165685
0.00163199
0.00160895
0.00158755
0.00156762
0.00154903
0.00153163
0.0015153
0.00149994
0.00148545
0.00147174
0.00145872
0.00144633
0.0014345
0.00142316
0.00141227
0.00140176
0.00139161
0.00138176
0.00137218
0.00136283
0.00135368
0.00134471
0.00248185
0.00238503
0.00229706
0.00221713
0.00214447
0.00207842
0.00201834
0.00196367
0.00191388
0.0018685
0.00182711
0.0017893
0.00175473
0.00172307
0.00169403
0.00166734
0.00164277
0.00162009
0.00159912
0.00157968
0.0015616
0.00154475
0.00152899
0.00151421
0.0015003
0.00148717
0.00147474
0.00146292
0.00145166
0.00144088
0.00143053
0.00142056
0.00141092
0.00140158
0.00139249
0.00138363
0.00137495
0.00136643
0.00135805
0.002414
0.00232139
0.00223751
0.00216155
0.00209275
0.00203044
0.00197398
0.00192281
0.0018764
0.00183428
0.00179601
0.0017612
0.00172949
0.00170057
0.00167413
0.00164992
0.00162769
0.00160724
0.00158837
0.00157091
0.0015547
0.0015396
0.00152549
0.00151226
0.00149981
0.00148805
0.00147689
0.00146627
0.00145613
0.0014464
0.00143703
0.00142798
0.00141921
0.00141067
0.00140234
0.00139417
0.00138616
0.00137827
0.00137047
0.00234353
0.00225529
0.00217565
0.0021038
0.00203901
0.00198057
0.00192787
0.00188032
0.0018374
0.00179863
0.00176358
0.00173185
0.00170308
0.00167695
0.00165317
0.00163147
0.00161162
0.00159342
0.00157667
0.0015612
0.00154687
0.00153353
0.00152108
0.0015094
0.0014984
0.001488
0.00147811
0.00146869
0.00145965
0.00145096
0.00144256
0.00143442
0.00142649
0.00141875
0.00141116
0.00140369
0.00139633
0.00138905
0.00138183
0.0022707
0.00218694
0.00211167
0.00204408
0.00198341
0.00192897
0.00188014
0.00183632
0.00179699
0.00176167
0.00172991
0.00170132
0.00167554
0.00165225
0.00163116
0.00161201
0.00159457
0.00157863
0.001564
0.00155054
0.00153808
0.00152651
0.0015157
0.00150556
0.00149601
0.00148695
0.00147833
0.00147007
0.00146214
0.00145447
0.00144703
0.00143978
0.00143268
0.00142572
0.00141885
0.00141207
0.00140534
0.00139866
0.001392
0.00219573
0.00211656
0.00204577
0.00198254
0.00192611
0.00187578
0.00183092
0.00179092
0.00175527
0.00172346
0.00169506
0.00166967
0.00164693
0.00162651
0.00160814
0.00159156
0.00157653
0.00156286
0.00155037
0.0015389
0.00152831
0.00151849
0.00150932
0.00150071
0.00149257
0.00148485
0.00147746
0.00147036
0.0014635
0.00145684
0.00145034
0.00144396
0.00143768
0.00143147
0.00142532
0.0014192
0.0014131
0.001407
0.00140089
0.00211886
0.00204436
0.00197815
0.00191937
0.00186728
0.00182116
0.00178035
0.00174426
0.00171235
0.00168412
0.00165913
0.00163697
0.0016173
0.00159979
0.00158415
0.00157014
0.00155753
0.00154612
0.00153576
0.00152627
0.00151754
0.00150945
0.00150189
0.00149479
0.00148806
0.00148164
0.00147547
0.0014695
0.0014637
0.00145802
0.00145243
0.0014469
0.00144142
0.00143595
0.00143049
0.00142502
0.00141952
0.00141399
0.00140841
0.00204031
0.00197056
0.001909
0.00185477
0.00180709
0.00176525
0.00172857
0.00169645
0.00166834
0.00164374
0.0016222
0.00160331
0.00158673
0.00157213
0.00155923
0.00154779
0.00153759
0.00152844
0.00152018
0.00151266
0.00150576
0.00149937
0.00149341
0.00148778
0.00148243
0.00147729
0.00147231
0.00146745
0.00146267
0.00145795
0.00145325
0.00144855
0.00144384
0.00143909
0.0014343
0.00142946
0.00142455
0.00141957
0.0014145
0.00196031
0.00189536
0.00183851
0.0017889
0.00174571
0.00170821
0.00167573
0.00164763
0.00162337
0.00160243
0.00158437
0.00156877
0.00155528
0.0015436
0.00153343
0.00152455
0.00151674
0.00150982
0.00150364
0.00149806
0.00149297
0.00148826
0.00148385
0.00147967
0.00147566
0.00147177
0.00146795
0.00146417
0.00146039
0.0014566
0.00145276
0.00144887
0.0014449
0.00144085
0.00143672
0.00143248
0.00142814
0.00142369
0.00141913
0.00187906
0.00181896
0.00176689
0.00172194
0.0016833
0.00165021
0.00162196
0.00159794
0.00157756
0.00156031
0.00154573
0.00153343
0.00152304
0.00151425
0.00150681
0.00150046
0.00149502