/*--------------------------------*- C++ -*----------------------------------*\
| =========                 |                                                 |
| \\      /  F ield         | OpenFOAM: The Open Source CFD Toolbox           |
|  \\    /   O peration     | Version:  v2012                                 |
|   \\  /    A nd           | Website:  www.openfoam.com                      |
|    \\/     M anipulation  |                                                 |
\*---------------------------------------------------------------------------*/
FoamFile
{
    version     2.0;
    format      ascii;
    class       volVectorField;
    location    "1";
    object      D_0;
}
// * * * * * * * * * * * * * * * * * * * * * * * * * * * * * * * * * * * * * //

dimensions      [0 1 0 0 0 0 0];


internalField   nonuniform List<vector> 
250
(
(2.14294e-05 -0.00016475 0)
(1.83128e-05 -0.000172831 0)
(1.6224e-05 -0.000177701 0)
(1.49622e-05 -0.000182077 0)
(1.40748e-05 -0.000185446 0)
(6.40808e-05 -0.000155568 0)
(5.54493e-05 -0.000161236 0)
(4.96363e-05 -0.00016439 0)
(4.61017e-05 -0.000167499 0)
(4.36668e-05 -0.000169717 0)
(0.000105943 -0.000139335 0)
(9.37657e-05 -0.000140968 0)
(8.55235e-05 -0.000141273 0)
(8.04847e-05 -0.000142294 0)
(7.71954e-05 -0.000142701 0)
(0.000145959 -0.000119311 0)
(0.000132626 -0.000116396 0)
(0.000123485 -0.000113568 0)
(0.000117819 -0.000112273 0)
(0.000114267 -0.000110848 0)
(0.000183035 -9.78133e-05 0)
(0.000170895 -9.10458e-05 0)
(0.000162453 -8.56611e-05 0)
(0.000157185 -8.23663e-05 0)
(0.000154143 -7.98353e-05 0)
(0.000215338 -7.77009e-05 0)
(0.000206015 -6.84339e-05 0)
(0.00019911 -6.15409e-05 0)
(0.000195087 -5.70363e-05 0)
(0.000192073 -5.38227e-05 0)
(0.000243742 -5.80365e-05 0)
(0.000238063 -4.80572e-05 0)
(0.000233537 -4.06789e-05 0)
(0.000231169 -3.58645e-05 0)
(0.000229069 -3.20097e-05 0)
(0.000265598 -3.9951e-05 0)
(0.000263647 -3.1198e-05 0)
(0.00026159 -2.47424e-05 0)
(0.000260871 -2.05256e-05 0)
(0.000259971 -1.70517e-05 0)
(0.000280801 -2.33482e-05 0)
(0.000281766 -1.73715e-05 0)
(0.000281718 -1.2962e-05 0)
(0.000282259 -1.01168e-05 0)
(0.000282431 -7.71215e-06 0)
(0.000288498 -7.64364e-06 0)
(0.000291082 -5.53904e-06 0)
(0.000292163 -3.9834e-06 0)
(0.000293397 -2.98482e-06 0)
(0.000294202 -2.12899e-06 0)
(0.00029676 -1.35567e-06 0)
(0.000286762 -5.08849e-06 0)
(0.000267489 -1.17535e-05 0)
(0.000240513 -2.30949e-05 0)
(0.000207013 -4.05771e-05 0)
(0.000301682 -9.52528e-07 0)
(0.000293656 -3.62518e-06 0)
(0.000278119 -7.94328e-06 0)
(0.000256527 -1.54078e-05 0)
(0.000230085 -2.58554e-05 0)
(0.000309325 -8.00457e-07 0)
(0.000303079 -2.99585e-06 0)
(0.000290928 -6.13097e-06 0)
(0.000273604 -1.15881e-05 0)
(0.000252105 -1.86484e-05 0)
(0.000318151 -9.44822e-07 0)
(0.000313006 -3.26463e-06 0)
(0.000303112 -6.00973e-06 0)
(0.000289043 -1.0239e-05 0)
(0.00027186 -1.53179e-05 0)
(0.000329169 -1.10856e-06 0)
(0.000324949 -3.66344e-06 0)
(0.000316846 -6.48514e-06 0)
(0.000305224 -1.03236e-05 0)
(0.000291099 -1.46346e-05 0)
(0.000341254 -1.29788e-06 0)
(0.000337731 -4.14009e-06 0)
(0.000331013 -7.16037e-06 0)
(0.000321421 -1.08867e-05 0)
(0.000309837 -1.49833e-05 0)
(0.000354823 -1.42365e-06 0)
(0.000351875 -4.47306e-06 0)
(0.000346263 -7.7012e-06 0)
(0.000338282 -1.14933e-05 0)
(0.000328695 -1.56201e-05 0)
(0.000369161 -1.44313e-06 0)
(0.000366692 -4.5008e-06 0)
(0.000361999 -7.77416e-06 0)
(0.000355373 -1.15712e-05 0)
(0.000347436 -1.57561e-05 0)
(0.000384295 -1.27088e-06 0)
(0.00038224 -3.9903e-06 0)
(0.000378349 -6.98294e-06 0)
(0.000372875 -1.05643e-05 0)
(0.000366361 -1.46171e-05 0)
(0.000399499 -8.9287e-07 0)
(0.000397829 -2.85323e-06 0)
(0.000394673 -5.19779e-06 0)
(0.000390232 -8.18482e-06 0)
(0.000384989 -1.18954e-05 0)
(0.000182896 -5.51384e-05 0)
(0.000172513 -6.04924e-05 0)
(0.000163084 -6.61427e-05 0)
(0.000154273 -7.15191e-05 0)
(0.000146049 -7.68584e-05 0)
(0.000138217 -8.19968e-05 0)
(0.000130627 -8.70045e-05 0)
(0.000123145 -9.19126e-05 0)
(0.000115545 -9.67316e-05 0)
(0.000107773 -0.000101692 0)
(0.000211066 -3.6048e-05 0)
(0.000202194 -4.07507e-05 0)
(0.000193883 -4.56325e-05 0)
(0.00018592 -5.04594e-05 0)
(0.00017838 -5.53052e-05 0)
(0.000171191 -6.01032e-05 0)
(0.000164323 -6.48619e-05 0)
(0.000157726 -6.96541e-05 0)
(0.000151357 -7.44227e-05 0)
(0.000145179 -7.94296e-05 0)
(0.000236255 -2.58924e-05 0)
(0.00022878 -2.969e-05 0)
(0.000221651 -3.37727e-05 0)
(0.000214784 -3.78585e-05 0)
(0.000208266 -4.20798e-05 0)
(0.00020209 -4.63473e-05 0)
(0.000196291 -5.06793e-05 0)
(0.000190874 -5.51302e-05 0)
(0.000185905 -5.96249e-05 0)
(0.000181357 -6.43877e-05 0)
(0.000258959 -2.06392e-05 0)
(0.000252904 -2.38288e-05 0)
(0.00024704 -2.72959e-05 0)
(0.000241368 -3.08473e-05 0)
(0.00023599 -3.45694e-05 0)
(0.00023093 -3.84024e-05 0)
(0.000226271 -4.23457e-05 0)
(0.00022204 -4.64424e-05 0)
(0.00021836 -5.0612e-05 0)
(0.000215206 -5.50218e-05 0)
(0.000280543 -1.8873e-05 0)
(0.000275653 -2.16799e-05 0)
(0.000270868 -2.4716e-05 0)
(0.000266252 -2.7879e-05 0)
(0.00026189 -3.12107e-05 0)
(0.000257829 -3.46786e-05 0)
(0.000254159 -3.827e-05 0)
(0.000250921 -4.20125e-05 0)
(0.000248251 -4.58354e-05 0)
(0.000246127 -4.98435e-05 0)
(0.00030122 -1.8733e-05 0)
(0.000297273 -2.13129e-05 0)
(0.000293382 -2.40787e-05 0)
(0.000289642 -2.69818e-05 0)
(0.000286117 -3.00371e-05 0)
(0.000282864 -3.32261e-05 0)
(0.000279964 -3.65326e-05 0)
(0.000277462 -3.9966e-05 0)
(0.000275482 -4.34734e-05 0)
(0.000274005 -4.71034e-05 0)
(0.000321634 -1.91895e-05 0)
(0.000318374 -2.16181e-05 0)
(0.000315141 -2.4199e-05 0)
(0.00031205 -2.69114e-05 0)
(0.000309133 -2.97519e-05 0)
(0.000306456 -3.27148e-05 0)
(0.000304077 -3.57779e-05 0)
(0.000302041 -3.89422e-05 0)
(0.000300452 -4.21709e-05 0)
(0.000299287 -4.54676e-05 0)
(0.000341611 -1.92665e-05 0)
(0.000338801 -2.15749e-05 0)
(0.000336054 -2.40187e-05 0)
(0.000333398 -2.65728e-05 0)
(0.0003309 -2.92485e-05 0)
(0.000328595 -3.20284e-05 0)
(0.000326524 -3.49014e-05 0)
(0.000324757 -3.78521e-05 0)
(0.000323319 -4.08555e-05 0)
(0.000322209 -4.38927e-05 0)
(0.000361574 -1.80716e-05 0)
(0.00035905 -2.02309e-05 0)
(0.000356541 -2.25254e-05 0)
(0.000354218 -2.49792e-05 0)
(0.000351968 -2.75155e-05 0)
(0.000349921 -3.016e-05 0)
(0.000347998 -3.2893e-05 0)
(0.000346281 -3.57012e-05 0)
(0.000344855 -3.85385e-05 0)
(0.000343619 -4.14062e-05 0)
(0.000380948 -1.50852e-05 0)
(0.000378674 -1.71652e-05 0)
(0.000376365 -1.93836e-05 0)
(0.00037418 -2.17356e-05 0)
(0.00037209 -2.42015e-05 0)
(0.000370151 -2.67717e-05 0)
(0.000368378 -2.94296e-05 0)
(0.00036674 -3.21577e-05 0)
(0.000365298 -3.49323e-05 0)
(0.000364024 -3.77271e-05 0)
(1.33827e-05 -0.000188035 0)
(1.25113e-05 -0.000189808 0)
(1.1699e-05 -0.000191597 0)
(1.09117e-05 -0.000193321 0)
(1.01202e-05 -0.000195047 0)
(9.3133e-06 -0.000196698 0)
(8.45919e-06 -0.000198336 0)
(7.54894e-06 -0.00019984 0)
(6.54043e-06 -0.000201316 0)
(5.44496e-06 -0.000202522 0)
(4.16006e-05 -0.000172085 0)
(3.88926e-05 -0.000174591 0)
(3.63336e-05 -0.000177116 0)
(3.3906e-05 -0.000179498 0)
(3.1472e-05 -0.000181871 0)
(2.90221e-05 -0.000184116 0)
(2.64415e-05 -0.000186332 0)
(2.37057e-05 -0.000188383 0)
(2.06764e-05 -0.000190398 0)
(1.73798e-05 -0.000192138 0)
(7.38516e-05 -0.000144781 0)
(6.919e-05 -0.000148437 0)
(6.46998e-05 -0.000152143 0)
(6.05955e-05 -0.000155548 0)
(5.6496e-05 -0.000158936 0)
(5.24416e-05 -0.000162096 0)
(4.82012e-05 -0.000165208 0)
(4.37403e-05 -0.000168111 0)
(3.88241e-05 -0.000170968 0)
(3.34811e-05 -0.000173568 0)
(0.000109584 -0.000112737 0)
(0.000102583 -0.000117586 0)
(9.57901e-05 -0.000122611 0)
(8.97855e-05 -0.000127174 0)
(8.39606e-05 -0.000131722 0)
(7.83628e-05 -0.000135921 0)
(7.26551e-05 -0.000140024 0)
(6.67395e-05 -0.000143865 0)
(6.02698e-05 -0.000147624 0)
(5.32297e-05 -0.000151175 0)
(0.000148557 -8.14245e-05 0)
(0.000139324 -8.68355e-05 0)
(0.000130372 -9.25696e-05 0)
(0.000122302 -9.79575e-05 0)
(0.000114689 -0.00010334 0)
(0.00010746 -0.000108431 0)
(0.000100331 -0.000113361 0)
(9.31189e-05 -0.000118051 0)
(8.54411e-05 -0.000122592 0)
(7.72138e-05 -0.00012705 0)
)
;

boundaryField
{
    back
    {
        type            empty;
    }
    left
    {
        type            symmetry;
    }
    hole
    {
        type            calculated;
        value           nonuniform List<vector> 10((2.43118e-05 -0.000159363 4.7862e-22) (7.19359e-05 -0.000152262 -4.1883e-24) (0.000116762 -0.000139389 -1.73275e-21) (0.000157453 -0.000122935 1.46357e-21) (0.000193152 -0.000104214 6.46806e-23) (0.000223024 -8.57643e-05 9.62858e-22) (0.000248459 -6.64852e-05 6.78788e-22) (0.000267315 -4.71858e-05 -4.42639e-22) (0.000280198 -2.82294e-05 -1.37963e-21) (0.000286621 -9.35737e-06 7.64302e-23));
    }
    front
    {
        type            empty;
    }
    down
    {
        type            symmetry;
    }
    right
    {
        type            calculated;
        value           nonuniform List<vector> 
15
(
(0.000407101 -4.32805e-07 8.07901e-22)
(0.000405606 -1.50658e-06 1.27967e-21)
(0.000402793 -3.02194e-06 4.27746e-22)
(0.000398851 -5.31099e-06 6.52699e-22)
(0.000394242 -8.48905e-06 -2.99796e-22)
(0.000390632 -1.14765e-05 -1.3458e-21)
(0.000388453 -1.35804e-05 9.92093e-22)
(0.000386236 -1.58679e-05 5.19412e-22)
(0.000384133 -1.83907e-05 -2.35868e-23)
(0.000382116 -2.10502e-05 0)
(0.000380242 -2.38684e-05 9.53994e-22)
(0.000378522 -2.67612e-05 3.94229e-22)
(0.000376923 -2.97476e-05 -1.08956e-21)
(0.000375503 -3.28073e-05 -4.82201e-22)
(0.000374236 -3.57857e-05 0)
)
;
    }
    up
    {
        type            calculated;
        value           nonuniform List<vector> 
15
(
(0.000103623 -0.000104194 3.31356e-22)
(0.000142198 -8.19491e-05 -3.71047e-22)
(0.000179407 -6.67855e-05 -2.60967e-22)
(0.000214045 -5.72396e-05 -3.26702e-22)
(0.000245495 -5.18567e-05 -3.26627e-22)
(0.000273655 -4.89236e-05 -2.35521e-22)
(0.000299031 -4.71181e-05 -2.6791e-22)
(0.000321884 -4.54107e-05 4.0266e-22)
(0.000343126 -4.2838e-05 2.11684e-22)
(0.00036342 -3.91251e-05 0)
(4.82933e-06 -0.000203103 -2.44368e-22)
(1.55372e-05 -0.000192896 -1.18937e-22)
(3.05239e-05 -0.000174658 9.26719e-23)
(4.92889e-05 -0.000152732 3.41678e-22)
(7.2605e-05 -0.000129189 -1.32645e-24)
)
;
    }
}


// ************************************************************************* //
