/*--------------------------------*- C++ -*----------------------------------*\
| =========                 |                                                 |
| \\      /  F ield         | OpenFOAM: The Open Source CFD Toolbox           |
|  \\    /   O peration     | Version:  v2012                                 |
|   \\  /    A nd           | Website:  www.openfoam.com                      |
|    \\/     M anipulation  |                                                 |
\*---------------------------------------------------------------------------*/
FoamFile
{
    version     2.0;
    format      ascii;
    class       pointVectorField;
    location    "12";
    object      pointD;
}
// * * * * * * * * * * * * * * * * * * * * * * * * * * * * * * * * * * * * * //

dimensions      [0 1 0 0 0 0 0];


internalField   nonuniform List<vector> 
32562
(
(0.00337905 0 1.38527e-21)
(0.00449493 0 1.02589e-21)
(0.00414119 -0.00033674 0)
(0 -0.0025901 -1.05723e-22)
(0 -0.00116865 1.07264e-20)
(0.00347507 0 0)
(0 -0.00244378 0)
(0.00222423 -0.00067924 0)
(0.00102068 -0.00126301 5.9976e-22)
(0.00433842 -7.7709e-05 1.12329e-20)
(0.0026465 -0.00107829 2.3652e-21)
(0.0026465 -0.00107829 2.3652e-21)
(0.00222423 -0.00067924 0)
(0 -0.00244378 0)
(0 -0.00116865 1.07264e-20)
(0.00337905 0 1.38527e-21)
(0.00347507 0 0)
(0.00449493 0 1.02589e-21)
(0.00433842 -7.7709e-05 1.12329e-20)
(0.00414119 -0.00033674 0)
(0.00102068 -0.00126301 5.9976e-22)
(0 -0.0025901 -1.05723e-22)
(4.73871e-05 -0.0024406 0)
(9.55729e-05 -0.00243078 0)
(0.000144204 -0.00241523 0)
(0.000193416 -0.00239436 0)
(0.000243432 -0.00236854 0)
(0.000294684 -0.0023378 0)
(0.000347646 -0.00230216 0)
(0.000402588 -0.00226178 0)
(0.000459566 -0.00221694 0)
(0.000518478 -0.00216809 0)
(0.000579138 -0.00211572 0)
(0.000641275 -0.00206048 0)
(0.000704517 -0.00200303 0)
(0.000768428 -0.00194413 0)
(0.000832536 -0.00188451 0)
(0.000896289 -0.00182496 0)
(0.000958996 -0.00176636 0)
(0.00101986 -0.00170963 0)
(0.00107825 -0.00165545 0)
(0.00113426 -0.00160368 0)
(0.00118864 -0.00155351 0)
(0.00124239 -0.00150384 0)
(0.00129621 -0.00145408 0)
(0.00135021 -0.00140421 0)
(0.00140433 -0.00135443 0)
(0.00145854 -0.00130491 0)
(0.00151283 -0.00125581 0)
(0.00156718 -0.00120723 0)
(0.00162159 -0.00115925 0)
(0.00167604 -0.00111193 0)
(0.0017305 -0.00106534 0)
(0.00178496 -0.00101952 0)
(0.00183936 -0.000974511 0)
(0.0018937 -0.000930381 0)
(0.00194798 -0.000887202 0)
(0.00200215 -0.000844967 0)
(0.00205593 -0.000803536 0)
(0.00210875 -0.000762854 0)
(0.00216125 -0.000724955 0)
(0.00228885 -0.0006349 0)
(0.00234037 -0.000599786 0)
(0.00239152 -0.000565921 0)
(0.00244218 -0.000533177 0)
(0.00249226 -0.00050157 0)
(0.00254169 -0.00047113 0)
(0.00259039 -0.000441872 0)
(0.0026383 -0.000413803 0)
(0.00268536 -0.000386923 0)
(0.00273151 -0.000361227 0)
(0.00277669 -0.000336707 0)
(0.00282086 -0.000313347 0)
(0.00286394 -0.00029113 0)
(0.00290591 -0.000270035 0)
(0.0029467 -0.000250036 0)
(0.00298627 -0.000231109 0)
(0.00302457 -0.000213221 0)
(0.00306156 -0.000196343 0)
(0.0030972 -0.000180439 0)
(0.00313144 -0.000165475 0)
(0.00316424 -0.000151412 0)
(0.00319556 -0.000138213 0)
(0.00322537 -0.000125837 0)
(0.00325363 -0.000114243 0)
(0.00328031 -0.000103388 0)
(0.00330538 -9.32296e-05 0)
(0.0033288 -8.37224e-05 0)
(0.00335055 -7.48218e-05 0)
(0.0033706 -6.6482e-05 0)
(0.00338894 -5.8657e-05 0)
(0.00340553 -5.13004e-05 0)
(0.00342036 -4.43656e-05 0)
(0.00343341 -3.78069e-05 0)
(0.00344467 -3.158e-05 0)
(0.00345413 -2.56435e-05 0)
(0.00346179 -1.99588e-05 0)
(0.00346768 -1.44873e-05 0)
(0.00347188 -9.18472e-06 0)
(0.00347446 -3.96807e-06 0)
(0.00338445 0 0)
(0.00339061 0 0)
(0.0033962 0 0)
(0.00340133 0 0)
(0.00340607 0 0)
(0.00341046 0 0)
(0.00341454 0 0)
(0.00341833 0 0)
(0.00342185 0 0)
(0.00342513 0 0)
(0.00342818 0 0)
(0.00343103 0 0)
(0.00343369 0 0)
(0.00343618 0 0)
(0.00343852 0 0)
(0.00344071 0 0)
(0.00344277 0 0)
(0.00344471 0 0)
(0.00344655 0 0)
(0.00344829 0 0)
(0.00344994 0 0)
(0.00345152 0 0)
(0.00345303 0 0)
(0.00345448 0 0)
(0.00345587 0 0)
(0.00345722 0 0)
(0.00345853 0 0)
(0.00345981 0 0)
(0.00346106 0 0)
(0.00346229 0 0)
(0.00346351 0 0)
(0.00346473 0 0)
(0.00346594 0 0)
(0.00346716 0 0)
(0.0034684 0 0)
(0.00346968 0 0)
(0.00347102 0 0)
(0.0034724 0 0)
(0.00347373 0 0)
(0.00347718 0 0)
(0.00347996 0 0)
(0.00348293 0 0)
(0.00348626 0 0)
(0.00348994 0 0)
(0.00349392 0 0)
(0.00349819 0 0)
(0.00350275 0 0)
(0.00350762 0 0)
(0.00351279 0 0)
(0.00351827 0 0)
(0.00352406 0 0)
(0.00353016 0 0)
(0.00353657 0 0)
(0.0035433 0 0)
(0.00355035 0 0)
(0.0035577 0 0)
(0.00356538 0 0)
(0.00357336 0 0)
(0.00358165 0 0)
(0.00359026 0 0)
(0.00359917 0 0)
(0.00360839 0 0)
(0.00361791 0 0)
(0.00362774 0 0)
(0.00363786 0 0)
(0.00364828 0 0)
(0.00365899 0 0)
(0.00367 0 0)
(0.00368129 0 0)
(0.00369287 0 0)
(0.00370473 0 0)
(0.00371687 0 0)
(0.00372928 0 0)
(0.00374197 0 0)
(0.00375492 0 0)
(0.00376814 0 0)
(0.00378162 0 0)
(0.00379535 0 0)
(0.00380933 0 0)
(0.00382356 0 0)
(0.00383802 0 0)
(0.00385273 0 0)
(0.00386766 0 0)
(0.00388281 0 0)
(0.00389818 0 0)
(0.00391377 0 0)
(0.00392955 0 0)
(0.00394554 0 0)
(0.00396172 0 0)
(0.00397808 0 0)
(0.00399461 0 0)
(0.00401132 0 0)
(0.0040282 0 0)
(0.00404523 0 0)
(0.0040624 0 0)
(0.00407972 0 0)
(0.00409718 0 0)
(0.00411477 0 0)
(0.00413247 0 0)
(0.00415029 0 0)
(0.00416822 0 0)
(0.00418625 0 0)
(0.00420436 0 0)
(0.00422257 0 0)
(0.00424084 0 0)
(0.00425918 0 0)
(0.00427758 0 0)
(0.00429602 0 0)
(0.0043145 0 0)
(0.00433299 0 0)
(0.0043515 0 0)
(0.00437 0 0)
(0.00438849 0 0)
(0.00440694 0 0)
(0.00442533 0 0)
(0.00444365 0 0)
(0.00446187 0 0)
(0.00447994 0 0)
(0.00450088 -4.05459e-07 5.42815e-21)
(0.00450067 -6.10684e-07 6.6631e-21)
(0.00450018 -8.1307e-07 3.11837e-23)
(0.0044994 -1.04328e-06 -5.58289e-21)
(0.00449836 -1.3125e-06 -3.35496e-21)
(0.00449705 -1.62622e-06 -1.22051e-21)
(0.00449549 -1.99071e-06 -3.34514e-21)
(0.00449367 -2.41303e-06 -2.19874e-23)
(0.0044916 -2.90028e-06 2.05221e-23)
(0.00448928 -3.45939e-06 -4.14518e-21)
(0.00448673 -4.09718e-06 -3.44801e-21)
(0.00448394 -4.82032e-06 2.06252e-21)
(0.00448093 -5.63533e-06 -4.93591e-21)
(0.00447769 -6.54854e-06 -8.38337e-21)
(0.00447423 -7.56608e-06 -3.50776e-21)
(0.00447056 -8.69378e-06 -5.48785e-21)
(0.00446668 -9.9372e-06 -1.98008e-21)
(0.00446261 -1.13016e-05 -3.47963e-22)
(0.00445834 -1.27919e-05 -3.81602e-23)
(0.0044539 -1.44125e-05 -1.64561e-21)
(0.00444927 -1.61676e-05 -3.43135e-21)
(0.00444448 -1.8061e-05 6.53274e-23)
(0.00443952 -2.00958e-05 -2.37425e-22)
(0.00443441 -2.2275e-05 1.75795e-22)
(0.00442916 -2.46011e-05 5.63864e-21)
(0.00442377 -2.70759e-05 5.64617e-21)
(0.00441824 -2.97015e-05 1.96202e-21)
(0.00441259 -3.24791e-05 -5.84596e-21)
(0.00440682 -3.54101e-05 -7.82747e-21)
(0.00440095 -3.84957e-05 4.00493e-21)
(0.00439496 -4.17375e-05 5.95559e-21)
(0.00438887 -4.51374e-05 -6.10912e-21)
(0.00438269 -4.8698e-05 -3.98514e-21)
(0.00437641 -5.24231e-05 1.99757e-21)
(0.00437005 -5.6318e-05 -2.1371e-21)
(0.0043636 -6.03911e-05 -4.23206e-21)
(0.00435707 -6.46551e-05 -2.03885e-21)
(0.00435049 -6.9124e-05 4.49263e-21)
(0.00434386 -7.38034e-05 1.15823e-20)
(0.00433481 -8.0339e-05 1.15817e-20)
(0.00433178 -8.26387e-05 1.51866e-20)
(0.00432873 -8.50278e-05 1.88279e-20)
(0.0043257 -8.75016e-05 1.52698e-20)
(0.00432269 -9.00553e-05 1.1729e-20)
(0.00431973 -9.26873e-05 1.53806e-20)
(0.00431681 -9.53989e-05 1.54241e-20)
(0.00431396 -9.81939e-05 2.32118e-20)
(0.00431118 -0.000101076 1.9229e-20)
(0.0043085 -0.00010405 3.74013e-21)
(0.00430592 -0.000107116 3.99043e-21)
(0.00430348 -0.000110273 1.18185e-20)
(0.00430119 -0.000113518 1.17414e-20)
(0.00429908 -0.000116842 7.80855e-21)
(0.00429717 -0.000120235 1.57937e-20)
(0.00429548 -0.00012368 2.73492e-20)
(0.00429403 -0.00012715 2.37275e-20)
(0.00429286 -0.000130524 8.27674e-21)
(0.00429185 -0.000134266 -7.6669e-21)
(0.0042912 -0.000137884 -9.07034e-22)
(0.00429092 -0.000140778 1.51873e-20)
(0.00429067 -0.000143347 8.42739e-21)
(0.00429034 -0.000145463 3.24295e-21)
(0.00428976 -0.000147047 1.03892e-20)
(0.0042887 -0.000148108 1.07711e-20)
(0.00428694 -0.000148725 1.0773e-20)
(0.00428432 -0.000149082 1.12227e-20)
(0.00428073 -0.000149478 2.74299e-21)
(0.00427621 -0.000150278 -4.41545e-21)
(0.00427093 -0.000151793 5.10561e-23)
(0.00426516 -0.000154147 -8.4287e-21)
(0.00425923 -0.000157262 -2.51144e-20)
(0.00425339 -0.000160957 -1.19822e-20)
(0.00424781 -0.000165042 8.72349e-21)
(0.00424257 -0.000169359 8.32735e-21)
(0.00423772 -0.000173799 4.91622e-21)
(0.00423324 -0.000178291 3.74384e-21)
(0.00422912 -0.000182793 -8.38211e-21)
(0.00422534 -0.000187275 -3.95846e-21)
(0.00422188 -0.000191715 1.27087e-20)
(0.00421872 -0.000196097 2.05092e-20)
(0.00421582 -0.000200401 8.04476e-21)
(0.00421315 -0.000204614 -4.1003e-21)
(0.00421069 -0.000208728 8.19795e-21)
(0.00420839 -0.000212742 1.62072e-20)
(0.00420623 -0.000216662 1.21629e-20)
(0.00420417 -0.00022049 8.03732e-21)
(0.0042022 -0.000224237 4.09613e-21)
(0.00420027 -0.000227919 -7.87788e-21)
(0.00419839 -0.000231547 -1.61627e-20)
(0.00419652 -0.000235136 -8.1514e-21)
(0.00419467 -0.000238696 4.07094e-21)
(0.00419283 -0.000242233 4.07094e-21)
(0.00419099 -0.000245755 0)
(0.00418916 -0.000249267 -3.91567e-21)
(0.00418732 -0.000252774 -1.59606e-20)
(0.00418549 -0.000256278 -1.20449e-20)
(0.00418366 -0.000259783 0)
(0.00418182 -0.000263289 0)
(0.00418 -0.000266799 0)
(0.00417818 -0.000270311 0)
(0.00417636 -0.000273826 4.06993e-21)
(0.00417455 -0.000277345 -3.91155e-21)
(0.00417276 -0.000280865 -1.20551e-20)
(0.00417097 -0.000284387 7.81223e-21)
(0.00416918 -0.00028791 1.18859e-20)
(0.00416741 -0.000291434 1.78662e-22)
(0.00416565 -0.000294957 -3.90157e-21)
(0.0041639 -0.000298479 -4.08023e-21)
(0.00416215 -0.000302 -4.08227e-21)
(0.00416041 -0.000305517 1.8058e-25)
(0.00415868 -0.000309027 1.93687e-22)
(0.00415695 -0.000312533 -1.18583e-20)
(0.00415522 -0.000316037 -1.5938e-20)
(0.00415349 -0.000319537 -8.16187e-21)
(0.00415176 -0.000323035 7.77329e-21)
(0.00415003 -0.000326531 1.20456e-20)
(0.0041483 -0.000330025 -3.88685e-21)
(0.00414657 -0.000333518 -7.96576e-21)
(0.00412384 -0.000340965 1.0747e-22)
(0.00409832 -0.000346418 -2.11197e-22)
(0.00407285 -0.000351849 -3.18667e-22)
(0.00404742 -0.000357212 1.96286e-22)
(0.00402202 -0.000362472 1.05327e-22)
(0.0039966 -0.000367607 -2.90052e-22)
(0.00397116 -0.000372606 -1.99092e-22)
(0.00394567 -0.000377455 1.90073e-22)
(0.00392009 -0.000382144 1.90073e-22)
(0.00389433 -0.00038673 1.29802e-22)
(0.0038685 -0.000391317 1.29802e-22)
(0.00384263 -0.000395638 9.40616e-24)
(0.00381659 -0.000399516 -1.10432e-23)
(0.0037904 -0.000403216 2.99117e-22)
(0.00376409 -0.000406802 1.52439e-22)
(0.00373759 -0.000410189 -1.96361e-22)
(0.00371085 -0.000413355 -2.92331e-23)
(0.00368383 -0.0004163 -3.27669e-22)
(0.00365652 -0.000419042 -1.27663e-22)
(0.00362887 -0.000421619 2.7838e-22)
(0.00360092 -0.000424016 4.14198e-22)
(0.00357265 -0.000426258 4.37027e-22)
(0.003544 -0.000428387 2.17701e-22)
(0.00351495 -0.000430398 -2.35145e-22)
(0.00348551 -0.000432322 -1.0213e-22)
(0.00345564 -0.000434195 2.34435e-22)
(0.00342536 -0.000436047 -2.62325e-22)
(0.00339466 -0.000437868 -2.21996e-22)
(0.00336351 -0.000439668 2.52521e-23)
(0.00333191 -0.000441488 1.17009e-22)
(0.00329983 -0.000443347 -2.60208e-23)
(0.00326726 -0.000445274 -5.31118e-22)
(0.0032342 -0.000447301 -3.88088e-22)
(0.00320063 -0.00044944 0)
(0.00316654 -0.000451703 2.69318e-22)
(0.00313192 -0.000454123 5.39315e-22)
(0.00309674 -0.000456733 2.69997e-22)
(0.00306099 -0.000459568 2.684e-22)
(0.00302465 -0.000462656 2.684e-22)
(0.00298774 -0.000466021 -1.79292e-22)
(0.00295023 -0.000469689 2.72508e-22)
(0.00291212 -0.000473702 7.65802e-22)
(0.00287338 -0.000478126 5.00796e-22)
(0.00283404 -0.000482919 -3.92896e-23)
(0.00279407 -0.000488105 -2.26083e-22)
(0.00275341 -0.000493793 2.54898e-23)
(0.00271209 -0.000500027 -2.02332e-22)
(0.00267011 -0.000506832 -8.23371e-22)
(0.00262745 -0.000514236 -7.01172e-23)
(0.00258414 -0.000522282 5.80887e-22)
(0.00254017 -0.000530975 5.85718e-22)
(0.00249553 -0.000540387 1.45381e-22)
(0.00245021 -0.000550592 -2.27082e-22)
(0.00240423 -0.000561596 1.578e-22)
(0.00235757 -0.000573422 -1.27759e-22)
(0.00231022 -0.000586134 -5.10118e-22)
(0.00226221 -0.000599804 1.38688e-22)
(0.00221357 -0.000614457 3.89242e-23)
(0.00216428 -0.000630132 5.37581e-23)
(0.00211435 -0.000646883 5.3588e-22)
(0.00206382 -0.000664763 -6.54281e-22)
(0.00201274 -0.000683728 2.91131e-23)
(0.00196103 -0.000703906 7.34489e-22)
(0.00190874 -0.000725394 1.27952e-22)
(0.00185597 -0.000748136 7.68578e-23)
(0.00180271 -0.00077219 -9.83436e-22)
(0.00174905 -0.000797577 9.58965e-22)
(0.00169502 -0.000824342 1.01367e-21)
(0.0016406 -0.000852567 -9.28727e-22)
(0.00158564 -0.000882328 2.511e-22)
(0.0015301 -0.000913685 2.511e-22)
(0.00147403 -0.000946623 -1.12251e-21)
(0.00141745 -0.000981085 -1.12251e-21)
(0.00136046 -0.00101712 8.40108e-22)
(0.00130323 -0.00105469 8.40108e-22)
(0.0012459 -0.00109371 0)
(0.00118856 -0.00113422 0)
(0.00113142 -0.00117618 5.42765e-22)
(0.00107457 -0.00121972 1.1449e-21)
(0.000975395 -0.00130114 3.25828e-21)
(0.000935621 -0.00133602 1.18017e-21)
(0.000896062 -0.00137178 -4.86164e-21)
(0.000856649 -0.00140832 -2.2621e-21)
(0.000817465 -0.00144565 -3.18286e-21)
(0.000778574 -0.00148376 1.25772e-21)
(0.000740042 -0.00152262 8.85157e-21)
(0.000701929 -0.00156223 -6.12716e-21)
(0.000664301 -0.00160256 -3.97315e-21)
(0.000627225 -0.00164356 1.01509e-20)
(0.000590771 -0.00168519 9.36708e-21)
(0.000555014 -0.00172739 1.37891e-21)
(0.000520034 -0.0017701 -5.79618e-21)
(0.000485911 -0.00181324 -4.27724e-21)
(0.000452729 -0.0018567 1.34868e-21)
(0.00042057 -0.00190038 1.89109e-21)
(0.000389513 -0.00194414 -1.81946e-21)
(0.000359631 -0.00198783 0)
(0.000330987 -0.0020313 0)
(0.000303634 -0.00207436 0)
(0.000277608 -0.00211685 3.89428e-21)
(0.000252934 -0.00215856 2.38394e-21)
(0.00022962 -0.00219932 -1.51035e-21)
(0.000207663 -0.00223894 -1.05193e-21)
(0.000187047 -0.00227723 1.25272e-21)
(0.000167745 -0.00231402 1.08034e-21)
(0.000149721 -0.00234914 -1.22431e-21)
(0.000132932 -0.00238243 0)
(0.000117325 -0.00241374 -9.82345e-22)
(0.000102841 -0.00244291 -8.44453e-23)
(8.94154e-05 -0.00246982 2.96926e-21)
(7.69734e-05 -0.00249432 6.66355e-23)
(6.5435e-05 -0.0025163 -2.00472e-21)
(5.47117e-05 -0.00253565 1.4923e-21)
(4.47069e-05 -0.00255225 -5.12576e-22)
(3.53174e-05 -0.00256602 -1.28058e-21)
(2.6447e-05 -0.00257688 2.99425e-22)
(1.80592e-05 -0.00258472 -1.54775e-23)
(9.94875e-06 -0.00258894 3.03229e-22)
(0 -0.0025897 0)
(0 -0.00258872 0)
(0 -0.00258769 0)
(0 -0.00258661 0)
(0 -0.00258549 0)
(0 -0.00258431 0)
(0 -0.00258309 0)
(0 -0.00258182 0)
(0 -0.0025805 0)
(0 -0.00257912 0)
(0 -0.00257771 0)
(0 -0.00257625 0)
(0 -0.00257474 0)
(0 -0.0025732 0)
(0 -0.00257161 0)
(0 -0.00256999 0)
(0 -0.00256834 0)
(0 -0.00256665 0)
(0 -0.00256492 0)
(0 -0.00256317 0)
(0 -0.00256139 0)
(0 -0.00255959 0)
(0 -0.00255776 0)
(0 -0.0025559 0)
(0 -0.00255402 0)
(0 -0.00255212 0)
(0 -0.00255021 0)
(0 -0.00254827 0)
(0 -0.00254632 0)
(0 -0.00254435 0)
(0 -0.00254237 0)
(0 -0.00254037 0)
(0 -0.00253837 0)
(0 -0.00253635 0)
(0 -0.00253432 0)
(0 -0.00253228 0)
(0 -0.00253024 0)
(0 -0.00252818 0)
(0 -0.00252613 0)
(0 -0.00252406 0)
(0 -0.002522 0)
(0 -0.00251993 0)
(0 -0.00251786 0)
(0 -0.00251578 0)
(0 -0.00251371 0)
(0 -0.00251163 0)
(0 -0.00250956 0)
(0 -0.00250748 0)
(0 -0.00250541 0)
(0 -0.00250335 0)
(0 -0.00250128 0)
(0 -0.00249922 0)
(0 -0.00249716 0)
(0 -0.00249511 0)
(0 -0.00249307 0)
(0 -0.00249103 0)
(0 -0.002489 0)
(0 -0.00248697 0)
(0 -0.00248496 0)
(0 -0.00248295 0)
(0 -0.00248094 0)
(0 -0.00247895 0)
(0 -0.00247697 0)
(0 -0.00247499 0)
(0 -0.00247302 0)
(0 -0.00247107 0)
(0 -0.00246912 0)
(0 -0.00246717 0)
(0 -0.00246524 0)
(0 -0.00246331 0)
(0 -0.00246139 0)
(0 -0.00245947 0)
(0 -0.00245756 0)
(0 -0.00245565 0)
(0 -0.00245375 0)
(0 -0.00245185 0)
(0 -0.00244996 0)
(0 -0.00244809 0)
(0 -0.00244621 0)
(0 -0.00244037 0)
(0 -0.00243637 0)
(0 -0.0024319 0)
(0 -0.00242686 0)
(0 -0.00242112 0)
(0 -0.00241453 0)
(0 -0.00240694 0)
(0 -0.00239821 0)
(0 -0.0023882 0)
(0 -0.00237678 0)
(0 -0.00236383 0)
(0 -0.00234925 0)
(0 -0.00233295 0)
(0 -0.00231485 0)
(0 -0.0022949 0)
(0 -0.00227305 0)
(0 -0.00224925 0)
(0 -0.00222347 0)
(0 -0.00219568 0)
(0 -0.00216586 0)
(0 -0.00213399 0)
(0 -0.00210004 0)
(0 -0.002064 0)
(0 -0.00202586 0)
(0 -0.0019856 0)
(0 -0.00194323 0)
(0 -0.00189875 0)
(0 -0.00185217 0)
(0 -0.00180352 0)
(0 -0.00175283 0)
(0 -0.00170016 0)
(0 -0.00164557 0)
(0 -0.00158913 0)
(0 -0.00153093 0)
(0 -0.00147107 0)
(0 -0.00140961 0)
(0 -0.00134653 0)
(0 -0.0012818 0)
(0 -0.00121537 0)
(0.00225873 -0.00064124 0)
(0.00229387 -0.000602438 0)
(0.00232852 -0.000565824 0)
(0.00236279 -0.000531304 0)
(0.00239652 -0.000498801 0)
(0.00242969 -0.000468212 0)
(0.00246236 -0.000439459 0)
(0.00249453 -0.000412474 0)
(0.00252622 -0.000387222 0)
(0.00255743 -0.000363628 0)
(0.00258819 -0.000341606 0)
(0.00261854 -0.000321129 0)
(0.00264846 -0.00030213 0)
(0.00267798 -0.000284506 0)
(0.00270714 -0.000268215 0)
(0.00273593 -0.00025319 0)
(0.00276438 -0.000239356 0)
(0.0027925 -0.000226661 0)
(0.00282034 -0.000215063 0)
(0.00284789 -0.000204514 0)
(0.00287517 -0.000194917 0)
(0.00290222 -0.000186226 0)
(0.00292905 -0.000178419 0)
(0.00295564 -0.000171424 0)
(0.00298204 -0.000165178 0)
(0.00300827 -0.00015965 0)
(0.00303433 -0.000154809 0)
(0.00306023 -0.000150597 0)
(0.00308597 -0.000146967 0)
(0.00311159 -0.000143886 0)
(0.00313709 -0.0001413 0)
(0.00316249 -0.000139172 0)
(0.00318779 -0.000137481 0)
(0.003213 -0.000136191 0)
(0.00323813 -0.000135265 0)
(0.00326318 -0.000134663 0)
(0.00328817 -0.000134362 0)
(0.00331313 -0.000134348 0)
(0.00333802 -0.000134572 0)
(0.00336286 -0.000134998 0)
(0.00338767 -0.000135614 0)
(0.00341243 -0.000136393 0)
(0.00343716 -0.000137294 0)
(0.00346185 -0.000138294 0)
(0.0034865 -0.000139369 0)
(0.0035111 -0.000140496 0)
(0.00353564 -0.000141657 0)
(0.00356007 -0.000142846 0)
(0.0035843 -0.00014411 0)
(0.00360821 -0.000145625 0)
(0.00363161 -0.000147744 0)
(0.00365442 -0.000150714 0)
(0.00367815 -0.000153527 0)
(0.00370658 -0.000148255 0)
(0.00372094 -0.000123455 0)
(0.00375486 -0.000112456 0)
(0.00380728 -0.000131723 0)
(0.00383428 -0.000143386 0)
(0.00385502 -0.000146648 0)
(0.00387478 -0.000147777 0)
(0.00389531 -0.00014837 0)
(0.00391671 -0.000148663 0)
(0.00393887 -0.000148604 0)
(0.00396155 -0.000148248 0)
(0.0039846 -0.00014755 0)
(0.00400788 -0.000146412 0)
(0.00403135 -0.00014483 0)
(0.004055 -0.000142784 0)
(0.00407878 -0.000140236 0)
(0.00410266 -0.000137148 0)
(0.00412662 -0.000133472 0)
(0.00415057 -0.000129171 0)
(0.00417442 -0.000124248 0)
(0.00419806 -0.000118784 0)
(0.00422145 -0.000112954 0)
(0.00424469 -0.000106894 0)
(0.00426798 -0.000100561 0)
(0.0042915 -9.36973e-05 0)
(0.00431527 -8.59511e-05 0)
(0.00219373 -0.000694066 0)
(0.00217578 -0.000701818 0)
(0.00215814 -0.000709389 0)
(0.00214066 -0.000716892 0)
(0.00212331 -0.000724372 0)
(0.00210607 -0.000731846 0)
(0.00208896 -0.000739322 0)
(0.00207195 -0.000746801 0)
(0.00205507 -0.000754283 0)
(0.0020383 -0.000761766 0)
(0.00202165 -0.00076925 0)
(0.00200511 -0.000776734 0)
(0.00198868 -0.000784219 0)
(0.00197235 -0.000791702 0)
(0.00195613 -0.000799185 0)
(0.00194002 -0.000806666 0)
(0.001924 -0.000814145 0)
(0.00190809 -0.000821621 0)
(0.00189227 -0.000829092 0)
(0.00187655 -0.000836558 0)
(0.00186093 -0.000844017 0)
(0.0018454 -0.000851469 0)
(0.00182996 -0.000858913 0)
(0.0018146 -0.000866348 0)
(0.00179934 -0.000873771 0)
(0.00178417 -0.000881183 0)
(0.00176908 -0.000888582 0)
(0.00175407 -0.000895967 0)
(0.00173915 -0.00090334 0)
(0.0017243 -0.000910699 0)
(0.00170952 -0.000918044 0)
(0.00169478 -0.000925429 0)
(0.00168008 -0.000932834 0)
(0.00166547 -0.000940169 0)
(0.00165096 -0.000947455 0)
(0.00163653 -0.000954707 0)
(0.00162213 -0.000961972 0)
(0.00160778 -0.000969226 0)
(0.00159348 -0.000976468 0)
(0.00157922 -0.000983697 0)
(0.00156502 -0.000990912 0)
(0.00155085 -0.000998113 0)
(0.00153673 -0.0010053 0)
(0.00152264 -0.00101247 0)
(0.0015086 -0.00101963 0)
(0.00149458 -0.00102678 0)
(0.0014806 -0.00103391 0)
(0.00146665 -0.00104103 0)
(0.00145273 -0.00104813 0)
(0.00143882 -0.00105523 0)
(0.00142492 -0.00106232 0)
(0.00141103 -0.0010694 0)
(0.00139715 -0.00107647 0)
(0.00138328 -0.00108351 0)
(0.00136941 -0.00109053 0)
(0.00135555 -0.00109757 0)
(0.00134168 -0.00110461 0)
(0.0013278 -0.00111165 0)
(0.0013139 -0.00111868 0)
(0.0013 -0.00112571 0)
(0.00128608 -0.00113274 0)
(0.00127214 -0.00113977 0)
(0.00125817 -0.0011468 0)
(0.00124418 -0.00115384 0)
(0.00123015 -0.00116089 0)
(0.00121608 -0.00116795 0)
(0.00120195 -0.00117505 0)
(0.00118775 -0.00118217 0)
(0.00117351 -0.00118929 0)
(0.00115921 -0.00119643 0)
(0.00114484 -0.0012036 0)
(0.0011304 -0.0012108 0)
(0.00111589 -0.00121803 0)
(0.0011013 -0.00122529 0)
(0.0010866 -0.00123258 0)
(0.00107181 -0.00123991 0)
(0.00105695 -0.00124727 0)
(0.00104201 -0.00125469 0)
(0.00102712 -0.00126224 0)
(0.000103703 -0.0011619 -3.11415e-21)
(0.000220997 -0.00117185 -2.61988e-21)
(0.000340082 -0.00118355 1.61088e-20)
(0.000455554 -0.00120171 4.29811e-22)
(0.000568842 -0.0012243 2.51015e-20)
(0.000678767 -0.00125129 2.45681e-21)
(0.000785394 -0.00128173 -5.07054e-20)
(0.0008885 -0.00131498 -1.32251e-20)
(0.000988111 -0.00135029 -1.21878e-20)
(0.00108437 -0.00138691 8.94717e-21)
(0.00117733 -0.00142421 2.22544e-20)
(0.00126709 -0.00146151 -1.90381e-20)
(0.00135354 -0.00149818 -8.1417e-22)
(0.00143643 -0.00153338 1.02586e-21)
(0.00151528 -0.00156598 -9.63502e-21)
(0.00158954 -0.00159447 -6.64237e-21)
(0.00165863 -0.0016171 -1.59532e-20)
(0.00172221 -0.00163213 -1.79239e-20)
(0.0017802 -0.00163819 -6.91867e-21)
(0.00183248 -0.00163407 4.22695e-22)
(0.00187919 -0.00161913 4.45424e-22)
(0.00192192 -0.00159518 4.78282e-21)
(0.00196362 -0.00156724 -1.25754e-21)
(0.00200575 -0.00153887 -1.09344e-20)
(0.00204807 -0.0015105 -1.27227e-21)
(0.00209046 -0.0014821 5.02943e-21)
(0.00213281 -0.00145364 -5.10896e-21)
(0.00217501 -0.00142508 -1.46321e-21)
(0.00221697 -0.00139643 5.04635e-21)
(0.00225861 -0.00136768 -1.75122e-21)
(0.00229987 -0.00133885 -6.81488e-21)
(0.00234069 -0.00130996 -5.98945e-24)
(0.00238103 -0.00128101 5.05767e-21)
(0.00242082 -0.00125203 -9.1139e-21)
(0.00246005 -0.00122303 8.44634e-22)
(0.00249867 -0.00119402 5.0208e-21)
(0.00253665 -0.00116503 -2.69732e-21)
(0.00257396 -0.00113607 9.37229e-21)
(0.00261059 -0.00110715 1.18194e-20)
(0.00268168 -0.00104949 -2.32163e-21)
(0.00271612 -0.00102077 -2.47051e-21)
(0.00274979 -0.000992141 -1.39428e-20)
(0.00278268 -0.000963604 -7.07506e-21)
(0.00281478 -0.000935166 1.12643e-20)
(0.00284607 -0.000906833 2.65833e-21)
(0.00287654 -0.000878611 6.61645e-21)
(0.00290618 -0.000850503 1.94831e-22)
(0.00293498 -0.000822513 -9.35925e-21)
(0.00296292 -0.000794643 1.03325e-20)
(0.00299 -0.000766895 1.16979e-20)
(0.00301621 -0.000739271 -9.18959e-22)
(0.00304155 -0.000711772 -3.55615e-21)
(0.003066 -0.000684398 -5.93776e-21)
(0.00308955 -0.000657148 -1.38009e-22)
(0.00311221 -0.000630022 1.44045e-22)
(0.00313396 -0.000603018 2.77906e-21)
(0.0031548 -0.000576133 1.6347e-20)
(0.00317474 -0.000549365 -7.78135e-21)
(0.00319375 -0.000522712 -1.06496e-20)
(0.00321185 -0.000496167 7.42537e-21)
(0.00322902 -0.000469729 4.81794e-21)
(0.00324527 -0.000443391 3.34872e-22)
(0.00326059 -0.000417149 4.56881e-21)
(0.00327498 -0.000390997 7.35055e-22)
(0.00328844 -0.000364929 -8.79872e-21)
(0.00330096 -0.000338938 -2.86323e-21)
(0.00331255 -0.000313018 5.69691e-21)
(0.0033232 -0.000287162 5.69431e-21)
(0.00333292 -0.00026136 -5.18057e-21)
(0.00334169 -0.000235607 -5.18066e-21)
(0.00334951 -0.000209892 -2.70626e-21)
(0.00335639 -0.000184206 1.04307e-21)
(0.00336232 -0.000158538 2.789e-21)
(0.00336728 -0.000132877 -4.71532e-21)
(0.00337127 -0.000107206 -1.76927e-21)
(0.00337428 -8.1495e-05 3.94167e-22)
(0.00337623 -5.56858e-05 -5.80828e-22)
(0.0033769 -2.97736e-05 2.40066e-21)
(0.00263141 -0.00105446 0)
(0.0026111 -0.0010362 0)
(0.00259165 -0.00101878 0)
(0.00257301 -0.00100215 0)
(0.00255514 -0.000986254 0)
(0.002538 -0.00097105 0)
(0.00252154 -0.000956498 0)
(0.00250574 -0.00094256 0)
(0.00249054 -0.000929202 0)
(0.00247593 -0.00091639 0)
(0.00246188 -0.000904096 0)
(0.00244836 -0.000892291 0)
(0.00243534 -0.000880947 0)
(0.00242281 -0.000870041 0)
(0.00241074 -0.000859549 0)
(0.00239911 -0.00084945 0)
(0.00238791 -0.000839721 0)
(0.00237711 -0.000830345 0)
(0.0023667 -0.000821302 0)
(0.00235666 -0.000812575 0)
(0.00234698 -0.000804148 0)
(0.00233765 -0.000796005 0)
(0.00232864 -0.000788132 0)
(0.00231996 -0.000780515 0)
(0.00231158 -0.00077314 0)
(0.0023035 -0.000765996 0)
(0.00229571 -0.000759072 0)
(0.00228819 -0.000752356 0)
(0.00228093 -0.000745839 0)
(0.00227393 -0.000739511 0)
(0.00226718 -0.000733366 0)
(0.00226067 -0.000727396 0)
(0.0022544 -0.000721598 0)
(0.00224835 -0.000715972 0)
(0.00224254 -0.000710521 0)
(0.00223697 -0.000705256 0)
(0.00223165 -0.00070019 0)
(0.00222657 -0.00069534 0)
(0.00222167 -0.000690712 0)
(0.00263141 -0.00105446 0)
(0.0026111 -0.0010362 0)
(0.00259165 -0.00101878 0)
(0.00257301 -0.00100215 0)
(0.00255514 -0.000986254 0)
(0.002538 -0.00097105 0)
(0.00252154 -0.000956498 0)
(0.00250574 -0.00094256 0)
(0.00249054 -0.000929202 0)
(0.00247593 -0.00091639 0)
(0.00246188 -0.000904096 0)
(0.00244836 -0.000892291 0)
(0.00243534 -0.000880947 0)
(0.00242281 -0.000870041 0)
(0.00241074 -0.000859549 0)
(0.00239911 -0.00084945 0)
(0.00238791 -0.000839721 0)
(0.00237711 -0.000830345 0)
(0.0023667 -0.000821302 0)
(0.00235666 -0.000812575 0)
(0.00234698 -0.000804148 0)
(0.00233765 -0.000796005 0)
(0.00232864 -0.000788132 0)
(0.00231996 -0.000780515 0)
(0.00231158 -0.00077314 0)
(0.0023035 -0.000765996 0)
(0.00229571 -0.000759072 0)
(0.00228819 -0.000752356 0)
(0.00228093 -0.000745839 0)
(0.00227393 -0.000739511 0)
(0.00226718 -0.000733366 0)
(0.00226067 -0.000727396 0)
(0.0022544 -0.000721598 0)
(0.00224835 -0.000715972 0)
(0.00224254 -0.000710521 0)
(0.00223697 -0.000705256 0)
(0.00223165 -0.00070019 0)
(0.00222657 -0.00069534 0)
(0.00222167 -0.000690712 0)
(0.00216125 -0.000724955 0)
(0.00210875 -0.000762854 0)
(0.00205593 -0.000803536 0)
(0.00200215 -0.000844967 0)
(0.00194798 -0.000887202 0)
(0.0018937 -0.000930381 0)
(0.00183936 -0.000974511 0)
(0.00178496 -0.00101952 0)
(0.0017305 -0.00106534 0)
(0.00167604 -0.00111193 0)
(0.00162159 -0.00115925 0)
(0.00156718 -0.00120723 0)
(0.00151283 -0.00125581 0)
(0.00145854 -0.00130491 0)
(0.00140433 -0.00135443 0)
(0.00135021 -0.00140421 0)
(0.00129621 -0.00145408 0)
(0.00124239 -0.00150384 0)
(0.00118864 -0.00155351 0)
(0.00113426 -0.00160368 0)
(0.00107825 -0.00165545 0)
(0.00101986 -0.00170963 0)
(0.000958996 -0.00176636 0)
(0.000896289 -0.00182496 0)
(0.000832536 -0.00188451 0)
(0.000768428 -0.00194413 0)
(0.000704517 -0.00200303 0)
(0.000641275 -0.00206048 0)
(0.000579138 -0.00211572 0)
(0.000518478 -0.00216809 0)
(0.000459566 -0.00221694 0)
(0.000402588 -0.00226178 0)
(0.000347646 -0.00230216 0)
(0.000294684 -0.0023378 0)
(0.000243432 -0.00236854 0)
(0.000193416 -0.00239436 0)
(0.000144204 -0.00241523 0)
(9.55729e-05 -0.00243078 0)
(4.73871e-05 -0.0024406 0)
(0 -0.00244037 0)
(0 -0.00243637 0)
(0 -0.0024319 0)
(0 -0.00242686 0)
(0 -0.00242112 0)
(0 -0.00241453 0)
(0 -0.00240694 0)
(0 -0.00239821 0)
(0 -0.0023882 0)
(0 -0.00237678 0)
(0 -0.00236383 0)
(0 -0.00234925 0)
(0 -0.00233295 0)
(0 -0.00231485 0)
(0 -0.0022949 0)
(0 -0.00227305 0)
(0 -0.00224925 0)
(0 -0.00222347 0)
(0 -0.00219568 0)
(0 -0.00216586 0)
(0 -0.00213399 0)
(0 -0.00210004 0)
(0 -0.002064 0)
(0 -0.00202586 0)
(0 -0.0019856 0)
(0 -0.00194323 0)
(0 -0.00189875 0)
(0 -0.00185217 0)
(0 -0.00180352 0)
(0 -0.00175283 0)
(0 -0.00170016 0)
(0 -0.00164557 0)
(0 -0.00158913 0)
(0 -0.00153093 0)
(0 -0.00147107 0)
(0 -0.00140961 0)
(0 -0.00134653 0)
(0 -0.0012818 0)
(0 -0.00121537 0)
(0.000103703 -0.0011619 -3.11415e-21)
(0.000220997 -0.00117185 -2.61988e-21)
(0.000340082 -0.00118355 1.61088e-20)
(0.000455554 -0.00120171 4.29811e-22)
(0.000568842 -0.0012243 2.51015e-20)
(0.000678767 -0.00125129 2.45681e-21)
(0.000785394 -0.00128173 -5.07054e-20)
(0.0008885 -0.00131498 -1.32251e-20)
(0.000988111 -0.00135029 -1.21878e-20)
(0.00108437 -0.00138691 8.94717e-21)
(0.00117733 -0.00142421 2.22544e-20)
(0.00126709 -0.00146151 -1.90381e-20)
(0.00135354 -0.00149818 -8.1417e-22)
(0.00143643 -0.00153338 1.02586e-21)
(0.00151528 -0.00156598 -9.63502e-21)
(0.00158954 -0.00159447 -6.64237e-21)
(0.00165863 -0.0016171 -1.59532e-20)
(0.00172221 -0.00163213 -1.79239e-20)
(0.0017802 -0.00163819 -6.91867e-21)
(0.00183248 -0.00163407 4.22695e-22)
(0.00187919 -0.00161913 4.45424e-22)
(0.00192192 -0.00159518 4.78282e-21)
(0.00196362 -0.00156724 -1.25754e-21)
(0.00200575 -0.00153887 -1.09344e-20)
(0.00204807 -0.0015105 -1.27227e-21)
(0.00209046 -0.0014821 5.02943e-21)
(0.00213281 -0.00145364 -5.10896e-21)
(0.00217501 -0.00142508 -1.46321e-21)
(0.00221697 -0.00139643 5.04635e-21)
(0.00225861 -0.00136768 -1.75122e-21)
(0.00229987 -0.00133885 -6.81488e-21)
(0.00234069 -0.00130996 -5.98945e-24)
(0.00238103 -0.00128101 5.05767e-21)
(0.00242082 -0.00125203 -9.1139e-21)
(0.00246005 -0.00122303 8.44634e-22)
(0.00249867 -0.00119402 5.0208e-21)
(0.00253665 -0.00116503 -2.69732e-21)
(0.00257396 -0.00113607 9.37229e-21)
(0.00261059 -0.00110715 1.18194e-20)
(0.00268168 -0.00104949 -2.32163e-21)
(0.00271612 -0.00102077 -2.47051e-21)
(0.00274979 -0.000992141 -1.39428e-20)
(0.00278268 -0.000963604 -7.07506e-21)
(0.00281478 -0.000935166 1.12643e-20)
(0.00284607 -0.000906833 2.65833e-21)
(0.00287654 -0.000878611 6.61645e-21)
(0.00290618 -0.000850503 1.94831e-22)
(0.00293498 -0.000822513 -9.35925e-21)
(0.00296292 -0.000794643 1.03325e-20)
(0.00299 -0.000766895 1.16979e-20)
(0.00301621 -0.000739271 -9.18959e-22)
(0.00304155 -0.000711772 -3.55615e-21)
(0.003066 -0.000684398 -5.93776e-21)
(0.00308955 -0.000657148 -1.38009e-22)
(0.00311221 -0.000630022 1.44045e-22)
(0.00313396 -0.000603018 2.77906e-21)
(0.0031548 -0.000576133 1.6347e-20)
(0.00317474 -0.000549365 -7.78135e-21)