/*--------------------------------*- C++ -*----------------------------------*\
| =========                 |                                                 |
| \\      /  F ield         | OpenFOAM: The Open Source CFD Toolbox           |
|  \\    /   O peration     | Version:  v2012                                 |
|   \\  /    A nd           | Website:  www.openfoam.com                      |
|    \\/     M anipulation  |                                                 |
\*---------------------------------------------------------------------------*/
FoamFile
{
    version     2.0;
    format      ascii;
    class       volVectorField;
    location    "12";
    object      D;
}
// * * * * * * * * * * * * * * * * * * * * * * * * * * * * * * * * * * * * * //

dimensions      [0 1 0 0 0 0 0];


internalField   nonuniform List<vector> 
2000
(
(0.000270283 -0.00147504 0)
(0.000437711 -0.00151208 0)
(0.000224365 -0.0017284 0)
(0.000367024 -0.00178652 0)
(0.000200503 -0.00195287 0)
(0.000326624 -0.00201163 0)
(0.000184535 -0.00214313 0)
(0.000295383 -0.00219256 0)
(0.000170049 -0.00229797 0)
(0.000263311 -0.00233244 0)
(0.000153662 -0.0024157 0)
(0.000228316 -0.00243309 0)
(0.000134715 -0.00249654 0)
(0.000193699 -0.00249958 0)
(0.000114544 -0.00254641 0)
(0.000163554 -0.00253994 0)
(9.49183e-05 -0.00257447 0)
(0.000140103 -0.00256221 0)
(7.66463e-05 -0.00258932 0)
(0.000124943 -0.00257448 0)
(0.000650147 -0.00156418 0)
(0.000781453 -0.00166472 0)
(0.000650861 -0.00177105 0)
(0.000778005 -0.00185777 0)
(0.00063795 -0.00196341 0)
(0.000750426 -0.00202768 0)
(0.000611103 -0.00212728 0)
(0.000702831 -0.00216046 0)
(0.000568319 -0.00225314 0)
(0.000639533 -0.00225569 0)
(0.000512678 -0.00234182 0)
(0.00056865 -0.00232118 0)
(0.000451247 -0.00240063 0)
(0.000498909 -0.00236621 0)
(0.000391509 -0.00243901 0)
(0.000436652 -0.00239833 0)
(0.000338992 -0.00246529 0)
(0.000385399 -0.00242273 0)
(0.000296753 -0.0024852 0)
(0.000345284 -0.00244148 0)
(0.00111591 -0.00163973 0)
(0.00124341 -0.00172964 0)
(0.00108895 -0.00183316 0)
(0.00119117 -0.00190036 0)
(0.00105018 -0.00198779 0)
(0.00112711 -0.00201669 0)
(0.000989479 -0.00209682 0)
(0.00104575 -0.00208657 0)
(0.000908409 -0.00216553 0)
(0.000953303 -0.00212723 0)
(0.000816805 -0.00220885 0)
(0.00085881 -0.00215465 0)
(0.00072585 -0.00223949 0)
(0.000770261 -0.002178 0)
(0.000643796 -0.00226483 0)
(0.000692947 -0.00220104 0)
(0.000575119 -0.00228831 0)
(0.00062897 -0.00222457 0)
(0.00052069 -0.0023103 0)
(0.000578112 -0.0022472 0)
(0.0014928 -0.00175393 0)
(0.00157872 -0.00181633 0)
(0.00144083 -0.00188469 0)
(0.00149948 -0.00190217 0)
(0.00136586 -0.00195967 0)
(0.00140474 -0.00193575 0)
(0.00127078 -0.00199279 0)
(0.0013014 -0.0019435 0)
(0.00116892 -0.00200659 0)
(0.00120068 -0.00194592 0)
(0.00107062 -0.00201625 0)
(0.00110802 -0.00195043 0)
(0.000980952 -0.00202788 0)
(0.00102509 -0.00195894 0)
(0.000902039 -0.00204303 0)
(0.000952704 -0.00197173 0)
(0.000833738 -0.00206116 0)
(0.000890664 -0.001988 0)
(0.000775683 -0.00208079 0)
(0.00083658 -0.0020048 0)
(0.00178879 -0.00180258 0)
(0.00183182 -0.00179385 0)
(0.00168894 -0.00184068 0)
(0.00171415 -0.00179586 0)
(0.0015775 -0.00183863 0)
(0.00160016 -0.00178093 0)
(0.00147097 -0.00183074 0)
(0.00149777 -0.00176989 0)
(0.00137598 -0.00182425 0)
(0.00140747 -0.00176111 0)
(0.00129175 -0.0018206 0)
(0.00132709 -0.00175406 0)
(0.00121617 -0.00182052 0)
(0.00125674 -0.00175134 0)
(0.00114712 -0.00182267 0)
(0.00119529 -0.00175222 0)
(0.00108599 -0.00182923 0)
(0.00114056 -0.00175596 0)
(0.0010309 -0.00183812 0)
(0.00109041 -0.00176078 0)
(0.00199023 -0.00172902 0)
(0.00200973 -0.00167383 0)
(0.00187131 -0.00170327 0)
(0.00189435 -0.00164576 0)
(0.00176417 -0.00168087 0)
(0.00179116 -0.0016201 0)
(0.00166794 -0.00166238 0)
(0.00169896 -0.00159791 0)
(0.00158127 -0.0016474 0)
(0.00161668 -0.00157985 0)
(0.00150364 -0.00163559 0)
(0.00154365 -0.00156567 0)
(0.00143417 -0.00162633 0)
(0.00147877 -0.00155476 0)
(0.00137237 -0.00161955 0)
(0.00142106 -0.00154645 0)
(0.00131679 -0.00161488 0)
(0.00136907 -0.00153976 0)
(0.00126572 -0.00161181 0)
(0.00132403 -0.00153578 0)
(0.00217555 -0.00159105 0)
(0.00219721 -0.00152957 0)
(0.00206048 -0.00155368 0)
(0.0020858 -0.00148949 0)
(0.00195878 -0.0015216 0)
(0.00198851 -0.00145414 0)
(0.00186878 -0.00149397 0)
(0.00190313 -0.00142372 0)
(0.00178855 -0.00147044 0)
(0.00182755 -0.00139796 0)
(0.00171665 -0.00145051 0)
(0.00176025 -0.00137635 0)
(0.00165213 -0.0014336 0)
(0.00170019 -0.00135819 0)
(0.00159429 -0.00141907 0)
(0.00164659 -0.00134281 0)
(0.00154231 -0.0014064 0)
(0.00159876 -0.00132954 0)
(0.00149509 -0.00139504 0)
(0.00155574 -0.00131798 0)
(0.00236579 -0.00145277 0)
(0.00238992 -0.00138516 0)
(0.00225386 -0.00140406 0)
(0.00228218 -0.00133303 0)
(0.00215702 -0.00136213 0)
(0.00219016 -0.0012884 0)
(0.00207251 -0.00132552 0)
(0.00211059 -0.00125004 0)
(0.00199791 -0.00129355 0)
(0.00204079 -0.00121693 0)
(0.00193145 -0.00126553 0)
(0.00197889 -0.0011881 0)
(0.00187195 -0.00124079 0)
(0.0019236 -0.00116281 0)
(0.00181855 -0.00121869 0)
(0.00187411 -0.0011405 0)
(0.00177052 -0.00119874 0)
(0.00182988 -0.00112081 0)
(0.00172705 -0.00118051 0)
(0.00179038 -0.00110328 0)
(0.00255133 -0.00131503 0)
(0.00257757 -0.00124406 0)
(0.0024461 -0.0012558 0)
(0.00247746 -0.00118077 0)
(0.00235567 -0.00120466 0)
(0.0023923 -0.00112719 0)
(0.00227724 -0.00115981 0)
(0.00231896 -0.00108126 0)
(0.00220846 -0.00112027 0)
(0.00225499 -0.00104135 0)
(0.00214754 -0.00108523 0)
(0.00219859 -0.00100605 0)
(0.00209299 -0.00105385 0)
(0.00214831 -0.000974195 0)
(0.00204356 -0.00102527 0)
(0.00210294 -0.000944973 0)
(0.00199838 -0.00099853 0)
(0.00206174 -0.000918152 0)
(0.00195735 -0.000972568 0)
(0.00202505 -0.000894331 0)
(0.00272777 -0.00117958 0)
(0.00275599 -0.00110712 0)
(0.00263231 -0.00111139 0)
(0.00266649 -0.00103491 0)
(0.0025503 -0.00105258 0)
(0.00259002 -0.000974007 0)
(0.00247906 -0.00100097 0)
(0.00252383 -0.000921804 0)
(0.00241664 -0.000955247 0)
(0.00246591 -0.000876339 0)
(0.00236172 -0.000914478 0)
(0.00241496 -0.000836161 0)
(0.00231334 -0.000878094 0)
(0.0023701 -0.000800173 0)
(0.00227067 -0.000845936 0)
(0.00233076 -0.000767513 0)
(0.00223295 -0.000818267 0)
(0.00229673 -0.000737623 0)
(0.00219937 -0.000795744 0)
(0.00226816 -0.00071036 0)
(0.00289191 -0.00104769 0)
(0.00292161 -0.000975674 0)
(0.0028088 -0.000973023 0)
(0.00284513 -0.000897565 0)
(0.00273716 -0.000908647 0)
(0.00277914 -0.00083173 0)
(0.00267466 -0.000852273 0)
(0.00272155 -0.000775215 0)
(0.00261968 -0.000802339 0)
(0.00267085 -0.00072575 0)
(0.00257114 -0.000757651 0)
(0.00262597 -0.000681662 0)
(0.00252859 -0.000717409 0)
(0.0025863 -0.000641749 0)
(0.00249255 -0.000681617 0)
(0.00255187 -0.000605273 0)
(0.00246472 -0.000652047 0)
(0.00252305 -0.000572464 0)
(0.00244543 -0.00063354 0)
(0.00249763 -0.000546415 0)
(0.00304137 -0.000920198 0)
(0.00307197 -0.000850313 0)
(0.00297231 -0.000842139 0)
(0.00300994 -0.000769729 0)
(0.00291235 -0.000774709 0)
(0.00295549 -0.00070167 0)
(0.00285975 -0.000715698 0)
(0.00290739 -0.000643186 0)
(0.00281348 -0.000663566 0)
(0.00286487 -0.00059203 0)
(0.00277293 -0.000617353 0)
(0.00282743 -0.000546546 0)
(0.00273767 -0.000576617 0)
(0.00279483 -0.000505297 0)
(0.00270762 -0.000541228 0)
(0.00276691 -0.000466831 0)
(0.00268261 -0.000510835 0)
(0.0027426 -0.000430594 0)
(0.00266041 -0.000484482 0)
(0.00271717 -0.000399627 0)
(0.00317434 -0.000797581 0)
(0.00320508 -0.000731339 0)
(0.00312025 -0.000719516 0)
(0.00315813 -0.000651831 0)
(0.00307271 -0.000651903 0)
(0.00311581 -0.0005844 0)
(0.00303048 -0.000592789 0)
(0.0030777 -0.000526268 0)
(0.00299305 -0.00054066 0)
(0.00304363 -0.000475263 0)
(0.0029602 -0.000494503 0)
(0.00301357 -0.000429744 0)
(0.0029319 -0.00045371 0)
(0.00298756 -0.000388254 0)
(0.00290832 -0.000417806 0)
(0.00296565 -0.000349452 0)
(0.00288905 -0.000386269 0)
(0.00294658 -0.000313122 0)
(0.00287115 -0.000359748 0)
(0.00292577 -0.000281725 0)
(0.00328943 -0.000680134 0)
(0.00331946 -0.000618728 0)
(0.00325029 -0.00060546 0)
(0.00328728 -0.000543687 0)
(0.00321513 -0.000540472 0)
(0.00325692 -0.000479607 0)
(0.00318323 -0.000483572 0)
(0.00322865 -0.000424064 0)
(0.00315464 -0.000433393 0)
(0.00320294 -0.000375129 0)
(0.00312952 -0.000389021 0)
(0.00318013 -0.000331348 0)
(0.00310802 -0.000349863 0)
(0.00316053 -0.000291429 0)
(0.00309027 -0.000315359 0)
(0.00314429 -0.000254193 0)
(0.00307581 -0.000285103 0)
(0.00313027 -0.000219365 0)
(0.00306201 -0.000260108 0)
(0.00311403 -0.000189117 0)
(0.00338578 -0.000567835 0)
(0.00341413 -0.000512136 0)
(0.00336084 -0.000499653 0)
(0.00339571 -0.000444609 0)
(0.00333745 -0.000439902 0)
(0.00337655 -0.000386379 0)
(0.00331537 -0.000387445 0)
(0.00335755 -0.000335546 0)
(0.00329513 -0.000341174 0)
(0.00333969 -0.000290565 0)
(0.00327721 -0.00030033 0)
(0.00332367 -0.000250267 0)
(0.0032619 -0.000264396 0)
(0.00331001 -0.000213565 0)
(0.00324939 -0.000232899 0)
(0.00329902 -0.000179378 0)
(0.00323925 -0.000205526 0)
(0.00328967 -0.000147329 0)
(0.00322899 -0.000183107 0)
(0.00327753 -0.00011914 0)
(0.00346319 -0.000460378 0)
(0.00348894 -0.000410867 0)
(0.00345098 -0.000401278 0)
(0.00348257 -0.000353367 0)
(0.0034382 -0.000349008 0)
(0.00347332 -0.000303123 0)
(0.00342498 -0.000302951 0)
(0.0034626 -0.000258852 0)
(0.00341225 -0.000262331 0)
(0.0034518 -0.000219483 0)
(0.00340074 -0.000226593 0)
(0.00344185 -0.000184181 0)
(0.00339089 -0.000195344 0)
(0.00343347 -0.000152081 0)
(0.00338292 -0.00016819 0)
(0.00342708 -0.000122216 0)
(0.0033765 -0.0001448 0)
(0.00342176 -9.4107e-05 0)
(0.00336923 -0.000125692 0)
(0.00341319 -6.89214e-05 0)
(0.003522 -0.000357179 0)
(0.00354435 -0.000313994 0)
(0.00352045 -0.000309106 0)
(0.00354781 -0.00026836 0)
(0.00351663 -0.000266135 0)
(0.00354673 -0.000227749 0)
(0.00351091 -0.000228125 0)
(0.00354288 -0.000191523 0)
(0.00350456 -0.000194667 0)
(0.00353799 -0.000159158 0)
(0.0034985 -0.000165427 0)
(0.00353317 -0.000130182 0)
(0.00349328 -0.000140134 0)
(0.00352926 -0.000103938 0)
(0.00348916 -0.000118431 0)
(0.00352674 -7.95631e-05 0)
(0.00348583 -9.98775e-05 0)
(0.00352477 -5.64607e-05 0)
(0.00348105 -8.45961e-05 0)
(0.00351924 -3.51826e-05 0)
(0.00356296 -0.000257266 0)
(0.00358122 -0.000220385 0)
(0.00356947 -0.000221812 0)
(0.00359183 -0.000187897 0)
(0.00357256 -0.00018965 0)
(0.00359677 -0.000158132 0)
(0.00357269 -0.000161053 0)
(0.00359812 -0.000131084 0)
(0.00357142 -0.000135945 0)
(0.0035978 -0.000106822 0)
(0.00356983 -0.000114246 0)
(0.00359702 -8.52417e-05 0)
(0.00356849 -9.58661e-05 0)
(0.00359668 -6.59217e-05 0)
(0.00356767 -8.04909e-05 0)
(0.00359731 -4.81428e-05 0)
(0.00356703 -6.74824e-05 0)
(0.00359813 -3.11799e-05 0)
(0.00356451 -5.639e-05 0)
(0.00359534 -1.4881e-05 0)
(0.0035861 -0.000159018 0)
(0.00359921 -0.000128803 0)
(0.00359829 -0.000138317 0)
(0.00361441 -0.000110844 0)
(0.00360631 -0.00011823 0)
(0.00362367 -9.2836e-05 0)
(0.00361093 -9.99387e-05 0)
(0.00362905 -7.56789e-05 0)
(0.00361377 -8.38819e-05 0)
(0.00363232 -6.01022e-05 0)
(0.00361591 -7.02507e-05 0)
(0.00363466 -4.63685e-05 0)
(0.00361797 -5.91384e-05 0)
(0.00363703 -3.44054e-05 0)
(0.00362032 -5.03819e-05 0)
(0.00364005 -2.38729e-05 0)
(0.00362264 -4.33297e-05 0)
(0.00364308 -1.42277e-05 0)
(0.00362298 -3.70418e-05 0)
(0.00364302 -4.73694e-06 0)
(0.00358818 -6.22855e-05 0)
(0.00359464 -4.02227e-05 0)
(0.00360617 -5.58742e-05 0)
(0.00361521 -3.65728e-05 0)
(0.00361932 -4.83186e-05 0)
(0.00362922 -2.99789e-05 0)
(0.00362892 -4.12595e-05 0)
(0.00363867 -2.29234e-05 0)
(0.00363643 -3.53377e-05 0)
(0.00364542 -1.6521e-05 0)
(0.00364268 -3.07913e-05 0)
(0.00365074 -1.10951e-05 0)
(0.00364814 -2.76317e-05 0)
(0.0036556 -6.69232e-06 0)
(0.00365322 -2.54603e-05 0)
(0.0036607 -3.1925e-06 0)
(0.00365798 -2.31941e-05 0)
(0.0036655 -2.27219e-07 0)
(0.00366144 -1.93517e-05 0)
(0.00366754 2.93805e-06 0)
(0.00366841 -2.69109e-06 0)
(0.00366874 1.41066e-06 0)
(0.00364418 -8.82983e-06 0)
(0.00364009 -2.25188e-06 0)
(0.0035974 -2.03036e-05 0)
(0.00358974 -1.30269e-05 0)
(0.00352536 -3.87541e-05 0)
(0.00351368 -3.14677e-05 0)
(0.0034258 -6.77727e-05 0)
(0.00340959 -6.05053e-05 0)
(0.00329808 -0.00011138 0)
(0.00327766 -0.000103952 0)
(0.00314324 -0.000173148 0)
(0.00311963 -0.000165376 0)
(0.00296369 -0.000255816 0)
(0.00293839 -0.000247427 0)
(0.00276489 -0.000362095 0)
(0.00273859 -0.000351951 0)
(0.0025577 -0.000506654 0)
(0.00252936 -0.000489234 0)
(0.0036684 -4.31421e-06 0)
(0.00366617 -1.06544e-06 0)
(0.00364759 -1.16231e-05 0)
(0.00364233 -8.89282e-06 0)
(0.00360549 -2.28235e-05 0)
(0.00359727 -2.10555e-05 0)
(0.00354032 -3.95529e-05 0)
(0.00352942 -3.8881e-05 0)
(0.0034515 -6.37944e-05 0)
(0.00343804 -6.38727e-05 0)
(0.00333903 -9.86779e-05 0)
(0.00332314 -9.8865e-05 0)
(0.003204 -0.000148145 0)
(0.0031859 -0.000147692 0)
(0.00304847 -0.000217285 0)
(0.00302872 -0.000215277 0)
(0.00287138 -0.000310819 0)
(0.00285167 -0.000306441 0)
(0.00266303 -0.000424334 0)
(0.00264544 -0.000418404 0)
(0.00367201 -4.40885e-06 0)
(0.00367272 -4.28795e-06 0)
(0.00365386 -1.21731e-05 0)
(0.0036521 -1.36151e-05 0)
(0.00361571 -2.20378e-05 0)
(0.00361179 -2.48658e-05 0)
(0.00355622 -3.60255e-05 0)
(0.00355038 -3.98263e-05 0)
(0.00347545 -5.58448e-05 0)
(0.00346797 -6.01415e-05 0)
(0.00337402 -8.39258e-05 0)
(0.00336511 -8.80386e-05 0)
(0.00325227 -0.000123549 0)
(0.00324214 -0.000126637 0)
(0.00310866 -0.000177678 0)
(0.00309772 -0.000179122 0)
(0.0029391 -0.000246381 0)
(0.00292785 -0.000246141 0)
(0.0027472 -0.000326221 0)
(0.00273538 -0.000323646 0)
(0.00368415 -2.72053e-06 0)
(0.00368836 -6.43627e-06 0)
(0.00366859 -9.58238e-06 0)
(0.0036704 -1.42779e-05 0)
(0.00363357 -1.75097e-05 0)
(0.00363354 -2.32482e-05 0)
(0.00357871 -2.83953e-05 0)
(0.00357709 -3.47206e-05 0)
(0.00350419 -4.38768e-05 0)
(0.00350126 -5.02786e-05 0)
(0.00341023 -6.5731e-05 0)
(0.00340626 -7.17129e-05 0)
(0.00329627 -9.55868e-05 0)
(0.00329149 -0.000100785 0)
(0.00316115 -0.000134395 0)
(0.0031556 -0.000138672 0)
(0.00300649 -0.00018328 0)
(0.00299992 -0.000186106 0)
(0.00283859 -0.000245205 0)
(0.00283113 -0.00024544 0)
(0.00370331 -7.36705e-07 0)
(0.00371021 -7.29834e-06 0)
(0.00369015 -5.77829e-06 0)
(0.00369456 -1.2523e-05 0)
(0.00365782 -1.16258e-05 0)
(0.00366032 -1.88366e-05 0)
(0.00360668 -1.98288e-05 0)
(0.0036076 -2.72831e-05 0)
(0.00353705 -3.15852e-05 0)
(0.00353671 -3.89884e-05 0)
(0.003449 -4.79605e-05 0)
(0.00344769 -5.51191e-05 0)
(0.00334252 -6.98856e-05 0)
(0.00334045 -7.67092e-05 0)
(0.00321861 -9.86425e-05 0)
(0.00321589 -0.000104871 0)
(0.00308039 -0.000136553 0)
(0.00307705 -0.000141472 0)
(0.00293165 -0.000186116 0)
(0.00292774 -0.000188765 0)
(0.00372783 6.79835e-07 0)
(0.0037367 -7.3777e-06 0)
(0.00371659 -2.54902e-06 0)
(0.00372295 -1.03903e-05 0)
(0.00368677 -6.58563e-06 0)
(0.00369104 -1.45287e-05 0)
(0.00363903 -1.26871e-05 0)
(0.0036416 -2.07069e-05 0)
(0.00357392 -2.16422e-05 0)
(0.00357517 -2.96875e-05 0)
(0.00349192 -3.42035e-05 0)
(0.00349226 -4.22628e-05 0)
(0.00339389 -5.13269e-05 0)
(0.00339368 -5.93119e-05 0)
(0.00328161 -7.44356e-05 0)
(0.00328114 -8.19947e-05 0)
(0.00315767 -0.000105246 0)
(0.00315707 -0.000111739 0)
(0.00302483 -0.000145256 0)
(0.003024 -0.000149837 0)
(0.00375713 1.41424e-06 0)
(0.00376764 -7.20508e-06 0)
(0.00374737 -6.08494e-07 0)
(0.00375536 -8.96542e-06 0)
(0.00371994 -3.41324e-06 0)
(0.00372576 -1.17966e-05 0)
(0.00367565 -8.09205e-06 0)
(0.00367968 -1.65586e-05 0)
(0.00361528 -1.52805e-05 0)
(0.003618 -2.38793e-05 0)
(0.0035397 -2.56614e-05 0)
(0.00354162 -3.44131e-05 0)
(0.00345017 -4.01321e-05 0)
(0.00345179 -4.89204e-05 0)
(0.00334851 -5.97658e-05 0)
(0.00335017 -6.82667e-05 0)
(0.00323693 -8.56286e-05 0)
(0.00323876 -9.33124e-05 0)
(0.00311769 -0.00011868 0)
(0.00311958 -0.000124864 0)
(0.00379124 1.62704e-06 0)
(0.00380328 -7.09533e-06 0)
(0.00378266 5.35836e-08 0)
(0.00379218 -8.51799e-06 0)
(0.00375754 -2.23296e-06 0)
(0.00376487 -1.09076e-05 0)
(0.00371678 -6.22776e-06 0)
(0.00372235 -1.50752e-05 0)
(0.00366129 -1.25439e-05 0)
(0.00366563 -2.16103e-05 0)
(0.00359215 -2.18221e-05 0)
(0.00359582 -3.11008e-05 0)
(0.00351071 -3.48058e-05 0)
(0.0035142 -4.41716e-05 0)
(0.00341865 -5.22381e-05 0)
(0.00342233 -6.14272e-05 0)
(0.00331793 -7.47271e-05 0)
(0.00332197 -8.33513e-05 0)
(0.00321063 -0.00010273 0)
(0.00321499 -0.000110297 0)
(0.00383029 1.49349e-06 0)
(0.00384385 -7.14856e-06 0)
(0.00382272 -2.96017e-07 0)
(0.00383372 -8.92318e-06 0)
(0.00379981 -2.72671e-06 0)
(0.00380867 -1.15581e-05 0)
(0.00376254 -6.70966e-06 0)
(0.00376971 -1.58104e-05 0)
(0.00371186 -1.28475e-05 0)
(0.0037179 -2.22416e-05 0)
(0.0036489 -2.17199e-05 0)
(0.00365436 -3.13754e-05 0)
(0.00357498 -3.39195e-05 0)
(0.00358035 -4.3712e-05 0)
(0.00349171 -4.99872e-05 0)
(0.00349731 -5.96906e-05 0)
(0.00340086 -7.03404e-05 0)
(0.00340689 -7.96398e-05 0)
(0.00330432 -9.5262e-05 0)
(0.00331082 -0.000103767 0)
(0.00387434 1.14542e-06 0)
(0.00388939 -7.34281e-06 0)
(0.00386765 -1.35327e-06 0)
(0.00388012 -9.92883e-06 0)
(0.00384685 -4.43242e-06 0)
(0.00385721 -1.32818e-05 0)
(0.00381291 -8.91954e-06 0)
(0.00382166 -1.81077e-05 0)
(0.00376679 -1.53939e-05 0)
(0.00377451 -2.49373e-05 0)
(0.0037096 -2.43719e-05 0)
(0.00371683 -3.42325e-05 0)
(0.00364263 -3.63287e-05 0)
(0.00364982 -4.63916e-05 0)
(0.00356737 -5.16658e-05 0)
(0.00357485 -6.17295e-05 0)
(0.00348545 -7.06761e-05 0)
(0.00349341 -8.04601e-05 0)
(0.00339848 -9.35128e-05 0)
(0.00340697 -0.000102704 0)
(0.00392331 6.81906e-07 0)
(0.00393981 -7.61126e-06 0)
(0.0039174 -2.83256e-06 0)
(0.00393129 -1.12624e-05 0)
(0.00389858 -6.87808e-06 0)
(0.00391038 -1.56055e-05 0)
(0.00386776 -1.22029e-05 0)
(0.00387802 -2.13029e-05 0)
(0.00382588 -1.93565e-05 0)
(0.00383519 -2.88531e-05 0)
(0.003774 -2.88016e-05 0)
(0.00378288 -3.8662e-05 0)
(0.00371336 -4.09288e-05 0)
(0.00372225 -5.10532e-05 0)
(0.00364535 -5.60292e-05 0)
(0.00365457 -6.62503e-05 0)
(0.00357147 -7.4282e-05 0)
(0.00358124 -8.43717e-05 0)
(0.00349324 -9.58055e-05 0)
(0.00350364 -0.000105487 0)
(0.00397703 1.85288e-07 0)
(0.00399489 -7.87649e-06 0)
(0.00397183 -4.47007e-06 0)
(0.00398704 -1.26588e-05 0)
(0.00395484 -9.61988e-06 0)
(0.00396798 -1.808e-05 0)
(0.0039269 -1.59431e-05 0)
(0.00393856 -2.47709e-05 0)
(0.00388891 -2.39602e-05 0)
(0.00389968 -3.31999e-05 0)
(0.00384187 -3.40841e-05 0)
(0.00385226 -4.37189e-05 0)
(0.00378696 -4.66433e-05 0)
(0.0037974 -5.65882e-05 0)
(0.0037255 -6.18816e-05 0)
(0.0037363 -7.19858e-05 0)
(0.00365885 -7.99502e-05 0)
(0.00367024 -9.00137e-05 0)
(0.00358833 -0.000100901 0)
(0.00360042 -0.000110716 0)
(0.00403521 -2.70986e-07 0)
(0.00405433 -8.05961e-06 0)
(0.00403067 -6.02164e-06 0)
(0.00404709 -1.38647e-05 0)
(0.00401538 -1.22479e-05 0)
(0.00402973 -2.02831e-05 0)
(0.0039901 -1.9572e-05 0)
(0.00400302 -2.79279e-05 0)
(0.00395566 -2.84916e-05 0)
(0.00396772 -3.72427e-05 0)
(0.003913 -3.93833e-05 0)
(0.00392473 -4.85354e-05 0)
(0.00386324 -5.2526e-05 0)
(0.00387506 -6.20179e-05 0)
(0.00380762 -6.8104e-05 0)
(0.00381985 -7.78166e-05 0)
(0.00374741 -8.62135e-05 0)
(0.00376027 -9.59815e-05 0)
(0.0036838 -0.000106905 0)
(0.00369742 -0.000116541 0)
(0.00409749 -6.19011e-07 0)
(0.00411773 -8.08178e-06 0)
(0.0040936 -7.25953e-06 0)
(0.00411108 -1.46367e-05 0)
(0.00407992 -1.43817e-05 0)
(0.00409533 -2.1815e-05 0)
(0.00405709 -2.25642e-05 0)
(0.00407109 -3.02252e-05 0)
(0.00402586 -3.22863e-05 0)
(0.00403905 -4.02879e-05 0)
(0.00398713 -4.38909e-05 0)
(0.00400002 -5.2268e-05 0)
(0.00394197 -5.76184e-05 0)
(0.00395497 -6.63344e-05 0)
(0.00389153 -7.36198e-05 0)
(0.00390497 -8.25853e-05 0)
(0.00383696 -9.19345e-05 0)
(0.00385109 -0.000101039 0)
(0.00377936 -0.000112482 0)
(0.00379437 -0.000121636 0)
(0.00416343 -7.93047e-07 0)
(0.00418463 -7.86404e-06 0)
(0.00416022 -7.96495e-06 0)
(0.00417859 -1.47362e-05 0)
(0.00414809 -1.56548e-05 0)
(0.00416438 -2.22869e-05 0)
(0.00412754 -2.44107e-05 0)
(0.00414245 -3.11267e-05 0)
(0.00409923 -3.47041e-05 0)
(0.00411335 -4.16571e-05 0)
(0.00406401 -4.6849e-05 0)
(0.00407784 -5.41096e-05 0)
(0.0040229 -6.10351e-05 0)
(0.00403687 -6.86083e-05 0)
(0.00397703 -7.73663e-05 0)
(0.00399147 -8.5203e-05 0)
(0.00392753 -9.59006e-05 0)
(0.00394269 -0.000103903 0)
(0.00387548 -0.000116686 0)
(0.00389154 -0.00012472 0)
(0.00423249 -7.20939e-07 0)
(0.00425446 -7.32145e-06 0)
(0.00423005 -7.90752e-06 0)
(0.00424913 -1.39136e-05 0)
(0.00421944 -1.56895e-05 0)
(0.00423646 -2.13029e-05 0)
(0.00420103 -2.45964e-05 0)
(0.00421669 -3.00974e-05 0)
(0.0041754 -3.50971e-05 0)
(0.00419026 -4.06736e-05 0)
(0.00414334 -4.74885e-05 0)
(0.0041579 -5.32392e-05 0)
(0.00410583 -6.19341e-05 0)
(0.00412052 -6.79066e-05 0)
(0.00406395 -7.85079e-05 0)
(0.00407915 -8.47086e-05 0)
(0.00401882 -9.72265e-05 0)
(0.00403481 -0.000103605 0)
(0.00397147 -0.00011807 0)
(0.00398845 -0.000124517 0)
(0.00430399 -3.10372e-07 0)
(0.00432652 -6.33827e-06 0)
(0.00430244 -6.81587e-06 0)
(0.00432208 -1.18779e-05 0)
(0.00429337 -1.4081e-05 0)
(0.00431098 -1.84391e-05 0)
(0.00427703 -2.26061e-05 0)
(0.00429327 -2.66002e-05 0)
(0.00425389 -3.28322e-05 0)
(0.00426932 -3.66778e-05 0)
(0.00422471 -4.50303e-05 0)
(0.00423981 -4.88442e-05 0)
(0.0041904 -5.93618e-05 0)
(0.00420561 -6.32206e-05 0)
(0.00415197 -7.58818e-05 0)
(0.00416771 -7.98598e-05 0)
(0.00411052 -9.4526e-05 0)
(0.00412711 -9.86882e-05 0)
(0.00406717 -0.000115177 0)
(0.00408484 -0.000119508 0)
(0.00437703 5.49194e-07 0)
(0.00439992 -4.73925e-06 0)
(0.00437643 -4.44296e-06 0)
(0.00439657 -8.32108e-06 0)
(0.00436902 -1.04905e-05 0)
(0.00438712 -1.33231e-05 0)
(0.00435475 -1.79693e-05 0)
(0.00437143 -2.01329e-05 0)
(0.00433397 -2.72448e-05 0)
(0.00434981 -2.89706e-05 0)
(0.00430738 -3.85655e-05 0)
(0.0043229 -4.00036e-05 0)
(0.00427593 -5.21119e-05 0)
(0.0042916 -5.33785e-05 0)
(0.0042406 -6.79998e-05 0)
(0.0042568 -6.91927e-05 0)
(0.00420236 -8.61931e-05 0)
(0.0042194 -8.74464e-05 0)
(0.00416228 -0.000106393 0)
(0.00418044 -0.000107945 0)
(0.0044501 1.82774e-06 0)
(0.00447344 -2.5119e-06 0)
(0.00445067 -9.62211e-07 0)
(0.0044714 -3.28553e-06 0)
(0.00444514 -4.8426e-06 0)
(0.00446374 -5.85363e-06 0)
(0.00443292 -1.01519e-05 0)
(0.00445012 -1.01828e-05 0)
(0.0044143 -1.73257e-05 0)
(0.0044307 -1.65553e-05 0)
(0.00439007 -2.67107e-05 0)
(0.00440619 -2.5348e-05 0)
(0.00436121 -3.85054e-05 0)
(0.00437754 -3.67911e-05 0)
(0.00432878 -5.28115e-05 0)
(0.00434574 -5.09384e-05 0)
(0.00429384 -6.9721e-05 0)
(0.00431166 -6.77536e-05 0)
(0.00425732 -8.92752e-05 0)
(0.004276 -8.72305e-05 0)
(0.0045208 2.39515e-06 0)
(0.00454528 -7.61914e-07 0)
(0.00452382 2.73485e-06 0)
(0.00454594 1.71862e-06 0)
(0.00452009 3.02606e-06 0)
(0.00454045 3.84755e-06 0)
(0.00450959 1.94084e-06 0)
(0.00452861 4.29514e-06 0)
(0.00449298 -1.33469e-06 0)
(0.00451114 2.25002e-06 0)
(0.00447111 -7.24806e-06 0)
(0.00448888 -2.74307e-06 0)
(0.0044449 -1.60841e-05 0)
(0.00446273 -1.09877e-05 0)
(0.00441534 -2.79702e-05 0)
(0.0044337 -2.26362e-05 0)
(0.00438358 -4.28364e-05 0)
(0.00440288 -3.75776e-05 0)
(0.00435091 -6.03937e-05 0)
(0.00437116 -5.5386e-05 0)
(0.00235447 -0.00066423 0)
(0.00238104 -0.000602267 0)
(0.00227118 -0.0006941 0)
(0.00230096 -0.000640826 0)
(0.00219482 -0.000722941 0)
(0.00222624 -0.00067313 0)
(0.00212263 -0.00075156 0)
(0.00215499 -0.000702483 0)
(0.002053 -0.000780116 0)
(0.00208615 -0.000730599 0)
(0.00198516 -0.000808634 0)
(0.00201915 -0.000758313 0)
(0.00191881 -0.000837071 0)
(0.00195371 -0.000785954 0)
(0.00185385 -0.00086536 0)
(0.00188971 -0.000813598 0)
(0.00179022 -0.000893441 0)
(0.00182706 -0.00084122 0)
(0.00172787 -0.000921274 0)
(0.00176568 -0.000868771 0)
(0.00166668 -0.000948843 0)
(0.00170545 -0.000896213 0)
(0.00160654 -0.000976154 0)
(0.00164624 -0.000923532 0)
(0.00154728 -0.00100323 0)
(0.00158793 -0.000950745 0)
(0.00148872 -0.00103014 0)
(0.00153035 -0.000977898 0)
(0.00143068 -0.00105696 0)
(0.00147336 -0.00100507 0)
(0.00137301 -0.00108381 0)
(0.00141684 -0.00103236 0)
(0.00131556 -0.00111086 0)
(0.00136066 -0.00105993 0)
(0.00125821 -0.00113836 0)
(0.00130478 -0.00108804 0)
(0.00120095 -0.00116669 0)
(0.00124917 -0.00111691 0)
(0.00114389 -0.00119599 0)
(0.00119484 -0.00114835 0)
(0.00248789 -0.000518171 0)
(0.00251861 -0.000475227 0)
(0.00241366 -0.0005455 0)
(0.00244369 -0.000501143 0)
(0.00234169 -0.000572722 0)
(0.00237171 -0.000527893 0)
(0.00227242 -0.000599576 0)
(0.00230296 -0.000554939 0)
(0.00220575 -0.000626158 0)
(0.00223714 -0.000582 0)
(0.00214139 -0.000652618 0)
(0.00217381 -0.00060895 0)
(0.00207899 -0.000679053 0)
(0.00211252 -0.000635752 0)
(0.00201827 -0.000705498 0)
(0.00205293 -0.000662421 0)
(0.00195898 -0.000731951 0)
(0.0019948 -0.000688993 0)
(0.00190098 -0.000758392 0)
(0.00193793 -0.000715509 0)
(0.00184412 -0.000784802 0)
(0.00188222 -0.000742012 0)
(0.00178831 -0.000811171 0)
(0.00182758 -0.000768542 0)
(0.00173349 -0.000837512 0)
(0.00177397 -0.000795146 0)
(0.0016796 -0.000863863 0)
(0.00172137 -0.000821874 0)
(0.00162663 -0.000890294 0)
(0.00166975 -0.000848787 0)
(0.00157455 -0.000916909 0)
(0.00161914 -0.000875956 0)
(0.00152339 -0.000943863 0)
(0.00156957 -0.00090348 0)
(0.00147319 -0.000971384 0)
(0.0015211 -0.000931498 0)
(0.00142402 -0.000999751 0)
(0.0014738 -0.000960057 0)
(0.00137585 -0.00102909 0)
(0.00142806 -0.000990655 0)
(0.00259542 -0.000397692 0)
(0.00262744 -0.000369234 0)
(0.00253348 -0.000421747 0)
(0.00256466 -0.000391998 0)
(0.00247226 -0.000446351 0)
(0.00250301 -0.000415165 0)
(0.00241178 -0.000471236 0)
(0.00244254 -0.000438782 0)
(0.00235215 -0.000496265 0)
(0.00238335 -0.000462851 0)
(0.00229352 -0.000521365 0)
(0.0023255 -0.000487317 0)
(0.00223604 -0.0005465 0)
(0.00226903 -0.000512099 0)
(0.00217977 -0.000571661 0)
(0.00221394 -0.000537123 0)
(0.00212476 -0.000596858 0)
(0.00216018 -0.000562337 0)
(0.00207098 -0.000622104 0)
(0.00210773 -0.000587713 0)
(0.00201843 -0.000647418 0)
(0.00205653 -0.000613239 0)
(0.00196707 -0.000672821 0)
(0.00200656 -0.000638916 0)
(0.00191689 -0.000698342 0)
(0.00195781 -0.000664769 0)
(0.00186788 -0.000724023 0)
(0.00191029 -0.000690834 0)
(0.00182005 -0.000749915 0)
(0.00186401 -0.000717154 0)
(0.00177347 -0.000776085 0)
(0.00181904 -0.000743779 0)
(0.0017282 -0.000802614 0)
(0.00177542 -0.000770773 0)
(0.00168439 -0.000829622 0)
(0.00173328 -0.00079824 0)
(0.00164218 -0.000857303 0)
(0.00169275 -0.000826315 0)
(0.00160158 -0.000885882 0)
(0.0016536 -0.000854925 0)
(0.00270433 -0.000303927 0)
(0.00273625 -0.00028378 0)
(0.00265013 -0.000325851 0)
(0.00268123 -0.000304639 0)
(0.00259624 -0.000348184 0)
(0.002627 -0.000325896 0)
(0.00254272 -0.000370817 0)
(0.00257359 -0.000347557 0)
(0.0024897 -0.00039374 0)
(0.00252102 -0.000369638 0)
(0.00243727 -0.000416936 0)
(0.00246934 -0.00039214 0)
(0.00238555 -0.000440374 0)
(0.00241861 -0.000415047 0)
(0.00233467 -0.000464025 0)
(0.00236888 -0.000438327 0)
(0.00228472 -0.000487874 0)
(0.00232023 -0.000461951 0)
(0.00223579 -0.000511924 0)
(0.00227268 -0.00048589 0)
(0.00218792 -0.000536176 0)
(0.00222624 -0.000510132 0)
(0.00214121 -0.000560596 0)
(0.00218102 -0.00053468 0)
(0.00209576 -0.000585207 0)
(0.0021371 -0.000559529 0)
(0.00205165 -0.000610045 0)
(0.00209457 -0.000584681 0)
(0.00200896 -0.000635152 0)
(0.00205349 -0.00061014 0)
(0.00196778 -0.00066058 0)
(0.00201394 -0.000635923 0)
(0.00192824 -0.000686387 0)
(0.00197601 -0.000662068 0)
(0.00189043 -0.000712657 0)
(0.0019398 -0.000688671 0)
(0.00185447 -0.000739546 0)
(0.00190546 -0.000715928 0)
(0.0018204 -0.000767252 0)
(0.00187311 -0.000743747 0)
(0.00281229 -0.000234334 0)
(0.00284387 -0.000221106 0)
(0.00276439 -0.000254341 0)
(0.00279528 -0.000240169 0)
(0.00271657 -0.000274747 0)
(0.00274723 -0.000259637 0)
(0.00266891 -0.000295461 0)
(0.00269975 -0.000279503 0)
(0.00262158 -0.000316431 0)
(0.00265295 -0.000299818 0)
(0.00257469 -0.000337743 0)
(0.00260688 -0.000320575 0)
(0.00252835 -0.000359413 0)
(0.00256155 -0.000341771 0)
(0.00248265 -0.000381427 0)
(0.00251703 -0.000363407 0)
(0.00243765 -0.000403749 0)
(0.00247341 -0.000385481 0)
(0.00239342 -0.000426289 0)
(0.0024308 -0.00040792 0)
(0.00235064 -0.000449264 0)
(0.00238933 -0.000430778 0)
(0.00230891 -0.000472565 0)
(0.00234903 -0.00045403 0)
(0.00226839 -0.000496156 0)
(0.00231001 -0.00047767 0)
(0.00222923 -0.000520035 0)
(0.00227238 -0.000501701 0)
(0.0021916 -0.000544218 0)
(0.00223632 -0.000526136 0)
(0.00215568 -0.000568732 0)
(0.002202 -0.000550957 0)
(0.00212163 -0.000593619 0)
(0.00216952 -0.000576157 0)
(0.00208957 -0.000618946 0)
(0.00213901 -0.000601796 0)
(0.00205961 -0.00064486 0)
(0.00211062 -0.000628034 0)
(0.00203189 -0.000671549 0)
(0.00208451 -0.000654768 0)
(0.00291802 -0.000185 0)
(0.00294943 -0.000177282 0)
(0.00287535 -0.000203256 0)
(0.00290625 -0.000194682 0)
(0.00283251 -0.000221922 0)
(0.00286339 -0.00021248 0)
(0.00279061 -0.000240815 0)
(0.00282122 -0.000230799 0)
(0.00274821 -0.00025995 0)
(0.00277955 -0.000249517 0)
(0.00270625 -0.000279362 0)
(0.0027385 -0.000268701 0)
(0.00266492 -0.00029907 0)
(0.00269823 -0.000288355 0)
(0.00262445 -0.000319076 0)
(0.0026589 -0.000308466 0)
(0.00258512 -0.00033944 0)
(0.00262071 -0.000329039 0)
(0.00254502 -0.00036361 0)
(0.00258226 -0.000350389 0)
(0.00250649 -0.000385009 0)
(0.00254522 -0.000372222 0)
(0.00246937 -0.000406852 0)
(0.00250963 -0.000394435 0)
(0.00243365 -0.000429093 0)
(0.00247554 -0.000416964 0)
(0.00239939 -0.000451675 0)
(0.00244233 -0.000439798 0)
(0.00236686 -0.00047475 0)
(0.00241147 -0.000463073 0)
(0.00233612 -0.000498172 0)
(0.00238231 -0.000486677 0)
(0.0023073 -0.000521999 0)
(0.002355 -0.000510661 0)
(0.00228055 -0.000546269 0)
(0.00232971 -0.000535099 0)
(0.00225605 -0.000571091 0)
(0.00230665 -0.000560089 0)
(0.00223396 -0.000596592 0)
(0.002286 -0.000585519 0)
(0.00302167 -0.000151714 0)
(0.00305307 -0.000148539 0)
(0.00298355 -0.000168273 0)
(0.00301481 -0.000164554 0)
(0.00294698 -0.000185658 0)
(0.00297713 -0.000181136 0)
(0.00290913 -0.000203074 0)
(0.00293978 -0.000198031 0)
(0.00287154 -0.000220841 0)
(0.00290287 -0.000215399 0)
(0.00283433 -0.000239054 0)
(0.0028665 -0.000233278 0)
(0.00279762 -0.000257743 0)
(0.00283082 -0.000251666 0)