/*--------------------------------*- C++ -*----------------------------------*\
| =========                 |                                                 |
| \\      /  F ield         | OpenFOAM: The Open Source CFD Toolbox           |
|  \\    /   O peration     | Version:  v2012                                 |
|   \\  /    A nd           | Website:  www.openfoam.com                      |
|    \\/     M anipulation  |                                                 |
\*---------------------------------------------------------------------------*/
FoamFile
{
    version     2.0;
    format      ascii;
    class       pointVectorField;
    location    "12";
    object      pointD;
}
// * * * * * * * * * * * * * * * * * * * * * * * * * * * * * * * * * * * * * //

dimensions      [0 1 0 0 0 0 0];


internalField   nonuniform List<vector> 
2142
(
(0.00358763 0 4.98565e-24)
(0.00454541 0 3.37646e-21)
(0.0041588 -0.000312949 0)
(0 -0.00269162 4.10198e-22)
(0 -0.00139588 -1.96946e-20)
(0.00366795 0 0)
(0 -0.00259166 0)
(0.00236621 -0.000645629 0)
(0.00106511 -0.00124756 -3.63076e-21)
(0.00439278 -4.76354e-05 5.73998e-22)
(0.00284321 -0.00114333 -1.72569e-22)
(0.00284321 -0.00114333 -1.72569e-22)
(0.00236621 -0.000645629 0)
(0 -0.00259166 0)
(0 -0.00139588 -1.96946e-20)
(0.00358763 0 4.98565e-24)
(0.00366795 0 0)
(0.00454541 0 3.37646e-21)
(0.00439278 -4.76354e-05 5.73998e-22)
(0.0041588 -0.000312949 0)
(0.00106511 -0.00124756 -3.63076e-21)
(0 -0.00269162 4.10198e-22)
(0.000203565 -0.00252957 0)
(0.000419915 -0.00238017 0)
(0.000658057 -0.00217156 0)
(0.000910395 -0.00193081 0)
(0.00115417 -0.00169338 0)
(0.00138679 -0.00146888 0)
(0.00161848 -0.00125049 0)
(0.00185082 -0.00103738 0)
(0.00208828 -0.000846612 0)
(0.00264313 -0.000452712 0)
(0.00285199 -0.000325804 0)
(0.00304499 -0.000226938 0)
(0.00321536 -0.000151039 0)
(0.00335946 -9.52936e-05 0)
(0.00347526 -5.64867e-05 0)
(0.00356225 -3.10731e-05 0)
(0.00362203 -1.55086e-05 0)
(0.00365803 -5.66572e-06 0)
(0.00360493 0 0)
(0.00362222 0 0)
(0.00363395 0 0)
(0.00364205 0 0)
(0.00364808 0 0)
(0.00365317 0 0)
(0.00365815 0 0)
(0.0036631 0 0)
(0.00366652 0 0)
(0.00366841 0 0)
(0.00367021 0 0)
(0.00367808 0 0)
(0.00369373 0 0)
(0.00371557 0 0)
(0.00374248 0 0)
(0.00377419 0 0)
(0.00381077 0 0)
(0.00385232 0 0)
(0.00389883 0 0)
(0.00395017 0 0)
(0.00400612 0 0)
(0.00406635 0 0)
(0.00413046 0 0)
(0.00419796 0 0)
(0.00426824 0 0)
(0.00434051 0 0)
(0.00441356 0 0)
(0.00448545 0 0)
(0.0045696 5.34819e-07 -1.47634e-23)
(0.0045676 5.45961e-06 4.48643e-23)
(0.00455938 9.28753e-06 3.75093e-21)
(0.00454533 1.08021e-05 -6.80825e-21)
(0.00452626 9.33113e-06 -7.19085e-21)
(0.004503 4.46554e-06 3.83443e-21)
(0.00447649 -4.08819e-06 6.03851e-21)
(0.00444781 -1.64366e-05 4.09352e-21)
(0.00441797 -3.24709e-05 7.00742e-21)
(0.00437716 -5.62329e-05 8.05641e-21)
(0.00436289 -6.45317e-05 1.56668e-20)
(0.00434761 -7.59002e-05 1.13792e-20)
(0.00433336 -8.8262e-05 4.18694e-21)
(0.00431968 -0.000100957 4.29946e-21)
(0.00430612 -0.000113836 1.96814e-20)
(0.00429354 -0.000127343 7.87356e-21)
(0.00428155 -0.000141112 1.755e-23)
(0.00426974 -0.000154931 1.6113e-20)
(0.00425853 -0.000169075 2.03526e-20)
(0.00424784 -0.000183461 1.20424e-20)
(0.00423766 -0.000198031 1.61649e-20)
(0.00422798 -0.000212732 1.62277e-20)
(0.00421879 -0.000227512 -2.56276e-23)
(0.00421007 -0.00024232 1.21155e-20)
(0.00420178 -0.000257127 2.42201e-20)
(0.0041939 -0.000271878 2.01858e-20)
(0.00418638 -0.000286378 8.03692e-21)
(0.00417903 -0.000300471 -4.08842e-21)
(0.00408832 -0.000331509 0)
(0.00398821 -0.000354206 -1.12304e-22)
(0.00388855 -0.000374249 -1.12304e-22)
(0.00378693 -0.000390629 -3.2518e-22)
(0.00368144 -0.000403182 -2.01634e-22)
(0.0035707 -0.000412663 2.53476e-22)
(0.00345342 -0.000420244 1.2993e-22)
(0.00332856 -0.000427422 1.16768e-22)
(0.00319525 -0.000435839 2.48605e-22)
(0.00305259 -0.000447309 3.11583e-22)
(0.00289986 -0.000463888 -2.93777e-22)
(0.0027366 -0.000487302 -2.63351e-22)
(0.00256205 -0.000520771 6.18716e-22)
(0.00237583 -0.000567306 3.36515e-22)
(0.00217817 -0.000628768 -7.22838e-22)
(0.00196968 -0.000708245 -6.5081e-22)
(0.00175189 -0.000808625 7.11533e-22)
(0.00152683 -0.000932587 1.09632e-21)
(0.00129482 -0.00107998 1.74081e-21)
(0.000879935 -0.00140537 -4.70812e-21)
(0.000715623 -0.0015678 9.75693e-22)
(0.000558399 -0.00174415 9.75693e-22)
(0.000413721 -0.00192922 0)
(0.000287203 -0.00211647 -1.32165e-21)
(0.000184036 -0.00229679 -2.48182e-21)
(0.000106917 -0.00245865 -2.33217e-21)
(5.68924e-05 -0.00258887 -1.73499e-21)
(2.93449e-05 -0.00266427 -1.27535e-22)
(0 -0.00269608 0)
(0 -0.00269137 0)
(0 -0.00268601 0)
(0 -0.00268031 0)
(0 -0.00267436 0)
(0 -0.00266821 0)
(0 -0.00266191 0)
(0 -0.00265553 0)
(0 -0.00264911 0)
(0 -0.00264272 0)
(0 -0.00263641 0)
(0 -0.00263023 0)
(0 -0.00262425 0)
(0 -0.00261853 0)
(0 -0.00261313 0)
(0 -0.00260813 0)
(0 -0.00260361 0)
(0 -0.00259955 0)
(0 -0.00259578 0)
(0 -0.0025819 0)
(0 -0.00256044 0)
(0 -0.00252148 0)
(0 -0.00245612 0)
(0 -0.00235683 0)
(0 -0.00222055 0)
(0 -0.002048 0)
(0 -0.00184063 0)
(0 -0.00160172 0)
(0.00250181 -0.000523591 0)
(0.00261515 -0.000414325 0)
(0.00271606 -0.00031779 0)
(0.00281848 -0.00024303 0)
(0.00292023 -0.000189273 0)
(0.00302064 -0.000152563 0)
(0.00312014 -0.000129093 0)
(0.00321939 -0.000115897 0)
(0.00331846 -0.000110303 0)
(0.00341754 -0.00010992 0)
(0.00351669 -0.000113178 0)
(0.00361569 -0.000118375 0)
(0.00371455 -0.000123755 0)
(0.00381334 -0.000128181 0)
(0.00391188 -0.000130291 0)
(0.00400988 -0.000128516 0)
(0.00410712 -0.000121285 0)
(0.00420371 -0.000106681 0)
(0.00429983 -8.17274e-05 0)
(0.00223393 -0.000720143 0)
(0.00215669 -0.000754869 0)
(0.00208367 -0.000786775 0)
(0.00201317 -0.000817426 0)
(0.00194445 -0.000847459 0)
(0.00187728 -0.000877153 0)
(0.00181162 -0.000906605 0)
(0.00174742 -0.000935817 0)
(0.00168462 -0.000964759 0)
(0.00162308 -0.000993397 0)
(0.00156263 -0.00102171 0)
(0.00150307 -0.00104971 0)
(0.00144417 -0.00107742 0)
(0.00138569 -0.0011049 0)
(0.0013274 -0.00113225 0)
(0.00126908 -0.00115962 0)
(0.00121051 -0.0011872 0)
(0.00115154 -0.00121529 0)
(0.00109212 -0.00124408 0)
(0.000477472 -0.00139958 -2.01104e-20)
(0.000891868 -0.00151703 8.73819e-21)
(0.00132982 -0.00161913 -3.58016e-21)
(0.00167058 -0.00173306 -1.9635e-20)
(0.0019278 -0.00175501 -8.43283e-21)
(0.00212475 -0.00166972 -2.97814e-21)
(0.0023138 -0.00153931 -7.67866e-21)
(0.00250006 -0.00140649 -2.50357e-21)
(0.00267761 -0.001274 5.93338e-21)
(0.00299444 -0.00101527 -2.79287e-21)
(0.00312964 -0.000890437 -7.07262e-21)
(0.00324758 -0.000769202 -7.07262e-21)
(0.00334749 -0.000651811 5.57762e-21)
(0.00342913 -0.000538311 3.31965e-21)
(0.00349282 -0.000428539 -8.12161e-21)
(0.00353924 -0.000321995 -1.02136e-22)
(0.00356884 -0.000217488 5.31788e-21)
(0.00357989 -0.000113854 -4.3853e-22)
(0.00277974 -0.00104148 0)
(0.00269987 -0.000973295 0)
(0.00263086 -0.000914737 0)
(0.0025706 -0.000863692 0)
(0.0025176 -0.000818601 0)
(0.00247091 -0.00077833 0)
(0.00243008 -0.000742195 0)
(0.00239525 -0.00071019 0)
(0.00236671 -0.000683491 0)
(0.00277974 -0.00104148 0)
(0.00269987 -0.000973295 0)
(0.00263086 -0.000914737 0)
(0.0025706 -0.000863692 0)
(0.0025176 -0.000818601 0)
(0.00247091 -0.00077833 0)
(0.00243008 -0.000742195 0)
(0.00239525 -0.00071019 0)
(0.00236671 -0.000683491 0)
(0.00208828 -0.000846612 0)
(0.00185082 -0.00103738 0)
(0.00161848 -0.00125049 0)
(0.00138679 -0.00146888 0)
(0.00115417 -0.00169338 0)
(0.000910395 -0.00193081 0)
(0.000658057 -0.00217156 0)
(0.000419915 -0.00238017 0)
(0.000203565 -0.00252957 0)
(0 -0.0025819 0)
(0 -0.00256044 0)
(0 -0.00252148 0)
(0 -0.00245612 0)
(0 -0.00235683 0)
(0 -0.00222055 0)
(0 -0.002048 0)
(0 -0.00184063 0)
(0 -0.00160172 0)
(0.000477472 -0.00139958 -2.01104e-20)
(0.000891868 -0.00151703 8.73819e-21)
(0.00132982 -0.00161913 -3.58016e-21)
(0.00167058 -0.00173306 -1.9635e-20)
(0.0019278 -0.00175501 -8.43283e-21)
(0.00212475 -0.00166972 -2.97814e-21)
(0.0023138 -0.00153931 -7.67866e-21)
(0.00250006 -0.00140649 -2.50357e-21)
(0.00267761 -0.001274 5.93338e-21)
(0.00299444 -0.00101527 -2.79287e-21)
(0.00312964 -0.000890437 -7.07262e-21)
(0.00324758 -0.000769202 -7.07262e-21)
(0.00334749 -0.000651811 5.57762e-21)
(0.00342913 -0.000538311 3.31965e-21)
(0.00349282 -0.000428539 -8.12161e-21)
(0.00353924 -0.000321995 -1.02136e-22)
(0.00356884 -0.000217488 5.31788e-21)
(0.00357989 -0.000113854 -4.3853e-22)
(0.00360493 0 0)
(0.00362222 0 0)
(0.00363395 0 0)
(0.00364205 0 0)
(0.00364808 0 0)
(0.00365317 0 0)
(0.00365815 0 0)
(0.0036631 0 0)
(0.00366652 0 0)
(0.00365803 -5.66572e-06 0)
(0.00362203 -1.55086e-05 0)
(0.00356225 -3.10731e-05 0)
(0.00347526 -5.64867e-05 0)
(0.00335946 -9.52936e-05 0)
(0.00321536 -0.000151039 0)
(0.00304499 -0.000226938 0)
(0.00285199 -0.000325804 0)
(0.00264313 -0.000452712 0)
(0.00366841 0 0)
(0.00367021 0 0)
(0.00367808 0 0)
(0.00369373 0 0)
(0.00371557 0 0)
(0.00374248 0 0)
(0.00377419 0 0)
(0.00381077 0 0)
(0.00385232 0 0)
(0.00389883 0 0)
(0.00395017 0 0)
(0.00400612 0 0)
(0.00406635 0 0)
(0.00413046 0 0)
(0.00419796 0 0)
(0.00426824 0 0)
(0.00434051 0 0)
(0.00441356 0 0)
(0.00448545 0 0)
(0.0045696 5.34819e-07 -1.47634e-23)
(0.0045676 5.45961e-06 4.48643e-23)
(0.00455938 9.28753e-06 3.75093e-21)
(0.00454533 1.08021e-05 -6.80825e-21)
(0.00452626 9.33113e-06 -7.19085e-21)
(0.004503 4.46554e-06 3.83443e-21)
(0.00447649 -4.08819e-06 6.03851e-21)
(0.00444781 -1.64366e-05 4.09352e-21)
(0.00441797 -3.24709e-05 7.00742e-21)
(0.00429983 -8.17274e-05 0)
(0.00420371 -0.000106681 0)
(0.00410712 -0.000121285 0)
(0.00400988 -0.000128516 0)
(0.00391188 -0.000130291 0)
(0.00381334 -0.000128181 0)
(0.00371455 -0.000123755 0)
(0.00361569 -0.000118375 0)
(0.00351669 -0.000113178 0)
(0.00341754 -0.00010992 0)
(0.00331846 -0.000110303 0)
(0.00321939 -0.000115897 0)
(0.00312014 -0.000129093 0)
(0.00302064 -0.000152563 0)
(0.00292023 -0.000189273 0)
(0.00281848 -0.00024303 0)
(0.00271606 -0.00031779 0)
(0.00261515 -0.000414325 0)
(0.00250181 -0.000523591 0)
(0.00437716 -5.62329e-05 8.05641e-21)
(0.00436289 -6.45317e-05 1.56668e-20)
(0.00434761 -7.59002e-05 1.13792e-20)
(0.00433336 -8.8262e-05 4.18694e-21)
(0.00431968 -0.000100957 4.29946e-21)
(0.00430612 -0.000113836 1.96814e-20)
(0.00429354 -0.000127343 7.87356e-21)
(0.00428155 -0.000141112 1.755e-23)
(0.00426974 -0.000154931 1.6113e-20)
(0.00425853 -0.000169075 2.03526e-20)
(0.00424784 -0.000183461 1.20424e-20)
(0.00423766 -0.000198031 1.61649e-20)
(0.00422798 -0.000212732 1.62277e-20)
(0.00421879 -0.000227512 -2.56276e-23)
(0.00421007 -0.00024232 1.21155e-20)
(0.00420178 -0.000257127 2.42201e-20)
(0.0041939 -0.000271878 2.01858e-20)
(0.00418638 -0.000286378 8.03692e-21)
(0.00417903 -0.000300471 -4.08842e-21)
(0.00408832 -0.000331509 0)
(0.00398821 -0.000354206 -1.12304e-22)
(0.00388855 -0.000374249 -1.12304e-22)
(0.00378693 -0.000390629 -3.2518e-22)
(0.00368144 -0.000403182 -2.01634e-22)
(0.0035707 -0.000412663 2.53476e-22)
(0.00345342 -0.000420244 1.2993e-22)
(0.00332856 -0.000427422 1.16768e-22)
(0.00319525 -0.000435839 2.48605e-22)
(0.00305259 -0.000447309 3.11583e-22)
(0.00289986 -0.000463888 -2.93777e-22)
(0.0027366 -0.000487302 -2.63351e-22)
(0.00256205 -0.000520771 6.18716e-22)
(0.00237583 -0.000567306 3.36515e-22)
(0.00217817 -0.000628768 -7.22838e-22)
(0.00196968 -0.000708245 -6.5081e-22)
(0.00175189 -0.000808625 7.11533e-22)
(0.00152683 -0.000932587 1.09632e-21)
(0.00129482 -0.00107998 1.74081e-21)
(0.00109212 -0.00124408 0)
(0.00115154 -0.00121529 0)
(0.00121051 -0.0011872 0)
(0.00126908 -0.00115962 0)
(0.0013274 -0.00113225 0)
(0.00138569 -0.0011049 0)
(0.00144417 -0.00107742 0)
(0.00150307 -0.00104971 0)
(0.00156263 -0.00102171 0)
(0.00162308 -0.000993397 0)
(0.00168462 -0.000964759 0)
(0.00174742 -0.000935817 0)
(0.00181162 -0.000906605 0)
(0.00187728 -0.000877153 0)
(0.00194445 -0.000847459 0)
(0.00201317 -0.000817426 0)
(0.00208367 -0.000786775 0)
(0.00215669 -0.000754869 0)
(0.00223393 -0.000720143 0)
(0.000879935 -0.00140537 -4.70812e-21)
(0.000715623 -0.0015678 9.75693e-22)
(0.000558399 -0.00174415 9.75693e-22)
(0.000413721 -0.00192922 0)
(0.000287203 -0.00211647 -1.32165e-21)
(0.000184036 -0.00229679 -2.48182e-21)
(0.000106917 -0.00245865 -2.33217e-21)
(5.68924e-05 -0.00258887 -1.73499e-21)
(2.93449e-05 -0.00266427 -1.27535e-22)
(0 -0.00269608 0)
(0 -0.00269137 0)
(0 -0.00268601 0)
(0 -0.00268031 0)
(0 -0.00267436 0)
(0 -0.00266821 0)
(0 -0.00266191 0)
(0 -0.00265553 0)
(0 -0.00264911 0)
(0 -0.00264272 0)
(0 -0.00263641 0)
(0 -0.00263023 0)
(0 -0.00262425 0)
(0 -0.00261853 0)
(0 -0.00261313 0)
(0 -0.00260813 0)
(0 -0.00260361 0)
(0 -0.00259955 0)
(0 -0.00259578 0)
(0.000519503 -0.00167036 0)
(0.000494028 -0.00189005 0)
(0.000468028 -0.00207731 0)
(0.000435419 -0.00222716 0)
(0.000394464 -0.00233864 0)
(0.000348282 -0.00241561 0)
(0.000302222 -0.00246555 0)
(0.000260884 -0.00249688 0)
(0.000227086 -0.00251693 0)
(0.000943267 -0.00174935 0)
(0.000916443 -0.00192823 0)
(0.0008722 -0.00206928 0)
(0.000809346 -0.00216954 0)
(0.000733434 -0.00223661 0)
(0.000653493 -0.00228181 0)
(0.000577874 -0.00231437 0)
(0.000512151 -0.00234022 0)
(0.000458677 -0.00236227 0)
(0.00133972 -0.00181947 0)
(0.00127944 -0.00194166 0)
(0.00120091 -0.00201447 0)
(0.00110839 -0.00205347 0)
(0.00101182 -0.00207634 0)
(0.00091938 -0.00209422 0)
(0.000836122 -0.00211209 0)
(0.000764482 -0.0021315 0)
(0.000704803 -0.00215192 0)
(0.00163828 -0.00183989 0)
(0.00154195 -0.00187862 0)
(0.00143781 -0.00188689 0)
(0.00133623 -0.0018866 0)
(0.00124275 -0.00188617 0)
(0.00115855 -0.00188846 0)
(0.00108369 -0.00189439 0)
(0.00101793 -0.00190383 0)
(0.000960371 -0.00191582 0)
(0.00185122 -0.00175587 0)
(0.00173714 -0.00174071 0)
(0.00163224 -0.00172396 0)
(0.00153844 -0.00171031 0)
(0.00145485 -0.00169959 0)
(0.00138045 -0.00169204 0)
(0.00131432 -0.00168758 0)
(0.00125562 -0.00168611 0)
(0.00120255 -0.00168657 0)
(0.00203494 -0.00161605 0)
(0.00192598 -0.00158511 0)
(0.00182922 -0.00155821 0)
(0.0017431 -0.00153539 0)
(0.00166632 -0.0015165 0)
(0.00159781 -0.00150102 0)
(0.00153667 -0.00148841 0)
(0.00148188 -0.001478 0)
(0.00143271 -0.00146947 0)
(0.00222568 -0.00146898 0)
(0.00212121 -0.00142727 0)
(0.00203021 -0.00139117 0)
(0.00195023 -0.00136004 0)
(0.0018793 -0.00133329 0)
(0.00181601 -0.00131023 0)
(0.0017594 -0.00129018 0)
(0.00170869 -0.00127255 0)
(0.00166306 -0.00125686 0)
(0.00241702 -0.0013227 0)
(0.00231829 -0.00127064 0)
(0.00223327 -0.00122578 0)
(0.00215919 -0.0011868 0)
(0.00209389 -0.00115272 0)
(0.0020358 -0.00112261 0)
(0.00198372 -0.00109568 0)
(0.00193676 -0.00107126 0)
(0.00189432 -0.00104876 0)
(0.00260307 -0.00117963 0)
(0.00251263 -0.00111842 0)
(0.00243485 -0.0010658 0)
(0.0023672 -0.00101998 0)
(0.00230778 -0.000979593 0)
(0.00225522 -0.000943602 0)
(0.00220841 -0.00091123 0)
(0.00216652 -0.000882038 0)
(0.00212917 -0.000856008 0)
(0.00294376 -0.000909683 0)
(0.00287623 -0.00083727 0)
(0.00281738 -0.000775053 0)
(0.00276568 -0.000720785 0)
(0.00272012 -0.000672819 0)
(0.00268007 -0.000630039 0)
(0.00264539 -0.000591789 0)
(0.00261634 -0.000557942 0)
(0.00259206 -0.000529486 0)
(0.00309254 -0.000784985 0)
(0.00303837 -0.000711426 0)
(0.0029905 -0.000648128 0)
(0.00294806 -0.000592926 0)
(0.00291059 -0.000544226 0)
(0.00287785 -0.000500892 0)
(0.00284978 -0.000461991 0)
(0.00282612 -0.000426737 0)
(0.00280474 -0.000395403 0)
(0.00322399 -0.000667739 0)
(0.00318345 -0.000596179 0)
(0.00314677 -0.00053439 0)
(0.00311372 -0.000480398 0)
(0.00308433 -0.000432694 0)
(0.0030587 -0.000390164 0)
(0.00303698 -0.000351851 0)
(0.00301887 -0.000317055 0)
(0.00300217 -0.000286324 0)
(0.0033365 -0.000557842 0)
(0.0033091 -0.000491229 0)
(0.00328324 -0.000433388 0)
(0.00325927 -0.000382675 0)
(0.00323767 -0.000337802 0)
(0.00321882 -0.000297802 0)
(0.00320298 -0.000261823 0)
(0.00318992 -0.000229245 0)
(0.0031776 -0.000200581 0)
(0.00342915 -0.000454766 0)
(0.00341377 -0.000395685 0)
(0.00339786 -0.000343991 0)
(0.00338225 -0.000298476 0)
(0.00336778 -0.00025816 0)
(0.00335507 -0.00022228 0)
(0.00334452 -0.00019012 0)
(0.00333598 -0.000161102 0)
(0.0033275 -0.000135541 0)
(0.00350171 -0.000357595 0)
(0.00349667 -0.000308131 0)
(0.00348938 -0.000264426 0)
(0.00348102 -0.00022576 0)
(0.00347278 -0.000191509 0)
(0.00346541 -0.000161143 0)
(0.00345941 -0.000134072 0)
(0.00345473 -0.000109722 0)
(0.00344952 -8.81418e-05 0)
(0.00355451 -0.000265131 0)
(0.00355765 -0.0002269 0)
(0.00355725 -0.000192664 0)
(0.00355478 -0.000162193 0)
(0.00355163 -0.000135248 0)
(0.0035487 -0.000111547 0)
(0.00354654 -9.06369e-05 0)
(0.00354511 -7.19186e-05 0)
(0.00354266 -5.5099e-05 0)
(0.00358779 -0.00017603 0)
(0.00359682 -0.000150494 0)
(0.00360155 -0.000126856 0)
(0.00360366 -0.000105533 0)
(0.0036046 -8.67304e-05 0)
(0.0036053 -7.04331e-05 0)
(0.00360636 -5.63722e-05 0)
(0.0036078 -4.40034e-05 0)
(0.00360802 -3.27417e-05 0)
(0.00360025 -8.93673e-05 0)
(0.00361429 -7.7083e-05 0)
(0.00362364 -6.46439e-05 0)
(0.00363001 -5.31798e-05 0)
(0.00363474 -4.32169e-05 0)
(0.00363872 -3.48953e-05 0)
(0.0036426 -2.80573e-05 0)
(0.00364651 -2.21711e-05 0)
(0.00364926 -1.63659e-05 0)
(0.00365604 -4.48709e-06 0)
(0.0036207 -1.31067e-05 0)
(0.00356237 -2.7645e-05 0)
(0.00347898 -5.00473e-05 0)
(0.00336982 -8.3209e-05 0)
(0.00323555 -0.000130642 0)
(0.00307808 -0.000196072 0)
(0.00289988 -0.000283189 0)
(0.00270256 -0.000396435 0)
(0.00365921 -7.03918e-06 0)
(0.00362797 -1.66609e-05 0)
(0.00357539 -3.02277e-05 0)
(0.00350056 -4.94508e-05 0)
(0.0034035 -7.65147e-05 0)
(0.0032848 -0.000114499 0)
(0.00314511 -0.000167211 0)
(0.00298351 -0.000237957 0)
(0.00279679 -0.000326053 0)
(0.00367006 -8.04504e-06 0)
(0.00364218 -1.68583e-05 0)
(0.00359428 -2.81427e-05 0)
(0.00352597 -4.35746e-05 0)
(0.00343756 -6.5019e-05 0)
(0.00332922 -9.47334e-05 0)
(0.00320017 -0.000134942 0)
(0.00304891 -0.000186932 0)
(0.00287735 -0.000250644 0)
(0.00368862 -7.25617e-06 0)
(0.0036635 -1.40509e-05 0)
(0.00361926 -2.26432e-05 0)
(0.00355596 -3.44198e-05 0)
(0.00347381 -5.07892e-05 0)
(0.00337271 -7.31307e-05 0)
(0.00325235 -0.000102661 0)
(0.00311382 -0.000140725 0)
(0.00296101 -0.000189393 0)
(0.00371279 -5.73742e-06 0)
(0.00369 -1.03376e-05 0)
(0.0036488 -1.65292e-05 0)
(0.00358962 -2.53554e-05 0)
(0.0035128 -3.7755e-05 0)
(0.00341866 -5.46744e-05 0)
(0.00330807 -7.72378e-05 0)
(0.00318318 -0.000107024 0)
(0.00304704 -0.000145884 0)
(0.00374151 -4.41253e-06 0)
(0.00372074 -7.36502e-06 0)
(0.0036824 -1.18075e-05 0)
(0.00362719 -1.85776e-05 0)
(0.00355579 -2.83838e-05 0)
(0.00346907 -4.2038e-05 0)
(0.00336846 -6.0565e-05 0)
(0.00325602 -8.51684e-05 0)
(0.00313411 -0.000117028 0)
(0.00377471 -3.68254e-06 0)
(0.00375574 -5.78769e-06 0)
(0.00372028 -9.26776e-06 0)
(0.0036692 -1.48791e-05 0)
(0.00360345 -2.32561e-05 0)
(0.00352419 -3.51105e-05 0)
(0.00343292 -5.12376e-05 0)
(0.00333148 -7.24204e-05 0)
(0.00322188 -9.93469e-05 0)
(0.00381261 -3.58485e-06 0)
(0.00379531 -5.59566e-06 0)
(0.00376273 -8.85543e-06 0)
(0.00371585 -1.40783e-05 0)
(0.00365574 -2.18569e-05 0)
(0.0035836 -3.27976e-05 0)
(0.0035009 -4.74987e-05 0)
(0.0034093 -6.64739e-05 0)
(0.00331064 -9.01085e-05 0)
(0.00385539 -3.9962e-06 0)
(0.00383963 -6.49503e-06 0)
(0.00380986 -1.01228e-05 0)
(0.00376708 -1.55518e-05 0)
(0.00371235 -2.33295e-05 0)
(0.00364687 -3.39662e-05 0)
(0.00357201 -4.79192e-05 0)
(0.00348934 -6.55536e-05 0)
(0.00340052 -8.71143e-05 0)
(0.00390306 -4.74647e-06 0)
(0.00388873 -8.1183e-06 0)
(0.00386162 -1.25134e-05 0)
(0.0038227 -1.8561e-05 0)
(0.00377298 -2.67638e-05 0)
(0.00371363 -3.75532e-05 0)
(0.00364593 -5.12811e-05 0)
(0.00357135 -6.8199e-05 0)
(0.00349136 -8.84582e-05 0)
(0.00395548 -5.66188e-06 0)
(0.00394248 -1.01014e-05 0)
(0.00391784 -1.54781e-05 0)
(0.00388249 -2.23821e-05 0)
(0.00383738 -3.12742e-05 0)
(0.00378361 -4.25227e-05 0)
(0.0037224 -5.64064e-05 0)
(0.00365511 -7.31076e-05 0)
(0.00358309 -9.27266e-05 0)
(0.00401243 -6.57597e-06 0)
(0.00400065 -1.2101e-05 0)
(0.0039783 -1.85028e-05 0)
(0.00394622 -2.63403e-05 0)
(0.0039053 -3.60384e-05 0)
(0.00385658 -4.79139e-05 0)
(0.00380121 -6.21925e-05 0)
(0.00374045 -7.90132e-05 0)
(0.00367553 -9.84426e-05 0)
(0.00407359 -7.33084e-06 0)
(0.00406294 -1.3795e-05 0)
(0.00404271 -2.11085e-05 0)
(0.00401362 -2.98084e-05 0)
(0.0039765 -4.02895e-05 0)
(0.00393231 -5.28261e-05 0)
(0.00388216 -6.75987e-05 0)
(0.00382719 -8.46996e-05 0)
(0.00376855 -0.000104143 0)
(0.00413855 -7.77463e-06 0)
(0.00412901 -1.48761e-05 0)
(0.00411075 -2.28395e-05 0)
(0.0040844 -3.21884e-05 0)
(0.0040507 -4.32919e-05 0)
(0.00401055 -5.63843e-05 0)
(0.00396501 -7.16046e-05 0)
(0.00391517 -8.9015e-05 0)
(0.00386212 -0.000108618 0)
(0.00420684 -7.75347e-06 0)
(0.00419841 -1.5036e-05 0)
(0.00418204 -2.32424e-05 0)
(0.00415821 -3.28887e-05 0)
(0.00412758 -4.43232e-05 0)
(0.00409102 -5.77481e-05 0)
(0.00404955 -7.32675e-05 0)
(0.00400424 -9.09206e-05 0)
(0.00395613 -0.000110711 0)
(0.00427786 -7.09317e-06 0)
(0.00427061 -1.39433e-05 0)
(0.00425607 -2.18531e-05 0)
(0.00423459 -3.13192e-05 0)
(0.00420677 -4.26604e-05 0)
(0.00417342 -5.60587e-05 0)
(0.00413551 -7.16064e-05 0)
(0.0040941 -8.93102e-05 0)
(0.00405021 -0.000109103 0)
(0.00435082 -5.59323e-06 0)
(0.00434486 -1.1264e-05 0)
(0.00433216 -1.82288e-05 0)
(0.00431293 -2.69012e-05 0)
(0.00428768 -3.75482e-05 0)
(0.00425721 -5.03455e-05 0)
(0.00422246 -6.54058e-05 0)
(0.00418442 -8.27443e-05 0)
(0.00414412 -0.000102236 0)
(0.0044246 -3.16848e-06 0)
(0.00442009 -6.84989e-06 0)
(0.0044093 -1.20212e-05 0)
(0.00439223 -1.89756e-05 0)
(0.00436935 -2.79974e-05 0)
(0.00434149 -3.932e-05 0)
(0.00430962 -5.30901e-05 0)
(0.00427471 -6.93626e-05 0)
(0.00423773 -8.80788e-05 0)
(0.00449765 -3.67919e-07 0)
(0.0044951 -1.02867e-06 0)
(0.00448624 -2.83785e-06 0)
(0.00447115 -6.4733e-06 0)
(0.00445049 -1.24412e-05 0)
(0.00442512 -2.10743e-05 0)
(0.00439601 -3.25564e-05 0)
(0.00436417 -4.69362e-05 0)
(0.00433061 -6.41297e-05 0)
(0.00239562 -0.00057896 0)
(0.00232025 -0.000609184 0)
(0.00224836 -0.000637764 0)
(0.0021793 -0.000665514 0)
(0.00211255 -0.000692897 0)
(0.00204774 -0.000720141 0)
(0.00198461 -0.000747328 0)
(0.00192296 -0.000774465 0)
(0.00186265 -0.000801536 0)
(0.00180356 -0.00082852 0)
(0.00174556 -0.000855412 0)
(0.00168855 -0.000882221 0)
(0.00163242 -0.000908984 0)
(0.00157707 -0.000935759 0)
(0.00152243 -0.000962636 0)
(0.00146844 -0.000989744 0)
(0.00141506 -0.00101728 0)
(0.0013623 -0.00104548 0)
(0.00131037 -0.00107482 0)
(0.00252219 -0.000451372 0)
(0.00245471 -0.000476605 0)
(0.00238913 -0.000502193 0)
(0.00232549 -0.000527937 0)
(0.00226365 -0.000553751 0)
(0.00220348 -0.000579591 0)
(0.00214484 -0.000605438 0)
(0.00208761 -0.000631292 0)
(0.00203168 -0.000657159 0)
(0.00197698 -0.000683053 0)
(0.00192343 -0.000708994 0)
(0.001871 -0.000735007 0)
(0.00181966 -0.000761132 0)
(0.0017694 -0.000787419 0)
(0.00172023 -0.000813935 0)
(0.00167221 -0.000840766 0)
(0.00162539 -0.000868033 0)
(0.00157988 -0.000895879 0)
(0.00153581 -0.000924688 0)
(0.00263615 -0.000349194 0)
(0.00257802 -0.000371794 0)
(0.00252064 -0.00039477 0)
(0.0024641 -0.00041809 0)
(0.00240848 -0.000441732 0)
(0.00235387 -0.000465659 0)
(0.00230034 -0.000489828 0)
(0.00224794 -0.000514206 0)
(0.00219668 -0.000538774 0)
(0.00214659 -0.000563525 0)
(0.00209766 -0.000588452 0)
(0.00204995 -0.000613562 0)
(0.00200349 -0.000638881 0)
(0.00195833 -0.000664447 0)
(0.00191453 -0.0006903 0)
(0.00187218 -0.000716497 0)
(0.00183138 -0.000743115 0)
(0.00179224 -0.000770281 0)
(0.0017548 -0.00079813 0)
(0.00274811 -0.000270483 0)
(0.00269687 -0.000291134 0)
(0.00264609 -0.000312155 0)
(0.00259584 -0.000333522 0)
(0.00254622 -0.00035525 0)
(0.00249731 -0.000377347 0)
(0.00244919 -0.000399802 0)
(0.00240194 -0.000422593 0)
(0.0023556 -0.000445686 0)
(0.00231036 -0.000469088 0)
(0.0022663 -0.000492817 0)
(0.00222344 -0.000516849 0)
(0.0021819 -0.00054118 0)
(0.00214178 -0.000565819 0)
(0.00210322 -0.000590789 0)
(0.00206634 -0.000616116 0)
(0.00203125 -0.000641855 0)
(0.00199808 -0.000668126 0)
(0.00196695 -0.000695062 0)
(0.00285779 -0.000213369 0)
(0.00281227 -0.000232243 0)
(0.00276715 -0.000251476 0)
(0.00272246 -0.000271054 0)
(0.00267816 -0.00029099 0)
(0.00263448 -0.000311304 0)
(0.00259155 -0.000331997 0)
(0.00254951 -0.000353073 0)
(0.00250815 -0.00037514 0)
(0.0024675 -0.000397689 0)
(0.00242814 -0.000420093 0)
(0.00239009 -0.000442883 0)
(0.00235344 -0.000466029 0)
(0.00231824 -0.000489554 0)
(0.00228483 -0.00051348 0)
(0.00225324 -0.000537776 0)
(0.00222358 -0.000562488 0)
(0.00219602 -0.000587711 0)
(0.00217072 -0.00061354 0)
(0.00296495 -0.000173824 0)
(0.00292466 -0.000191126 0)
(0.00288481 -0.000208857 0)
(0.00284498 -0.0002269 0)
(0.00280558 -0.000245348 0)
(0.00276676 -0.000264242 0)
(0.00272866 -0.000283588 0)
(0.0026914 -0.000303404 0)
(0.00265451 -0.00032423 0)
(0.00261843 -0.000345087 0)
(0.00258359 -0.000366369 0)
(0.00255011 -0.000388034 0)
(0.00251799 -0.000410058 0)
(0.00248751 -0.00043248 0)
(0.00245887 -0.00045528 0)
(0.00243212 -0.000478446 0)
(0.0024074 -0.000502025 0)
(0.00238485 -0.000526081 0)
(0.00236464 -0.000550666 0)
(0.00307067 -0.000148137 0)
(0.00303508 -0.000164169 0)
(0.00299954 -0.000180568 0)
(0.00296427 -0.000197346 0)
(0.00292937 -0.000214576 0)
(0.00289498 -0.00023229 0)
(0.00286099 -0.000250488 0)
(0.00282759 -0.000269155 0)
(0.00279506 -0.000288314 0)
(0.00276342 -0.000307943 0)
(0.00273286 -0.000328024 0)
(0.00270358 -0.000348535 0)
(0.00267578 -0.000369454 0)
(0.00264961 -0.000390766 0)
(0.00262528 -0.000412478 0)
(0.00260265 -0.000434538 0)
(0.00258209 -0.000456943 0)
(0.00256377 -0.00047982 0)
(0.00254777 -0.000503088 0)
(0.00317534 -0.000133393 0)
(0.00314347 -0.000148326 0)
(0.00311184 -0.000163653 0)
(0.00308051 -0.000179384 0)
(0.0030495 -0.000195562 0)
(0.00301891 -0.000212213 0)
(0.00298863 -0.000229314 0)
(0.00295911 -0.000246901 0)
(0.0029304 -0.000264998 0)
(0.00290264 -0.00028357 0)
(0.00287599 -0.000302605 0)
(0.0028506 -0.000322089 0)
(0.00282663 -0.000342004 0)
(0.00280422 -0.000362325 0)
(0.00278351 -0.000383051 0)
(0.00276436 -0.000404072 0)
(0.00274747 -0.000425463 0)
(0.00273256 -0.000447198 0)
(0.00272027 -0.000469229 0)
(0.00327896 -0.000126629 0)
(0.00325039 -0.000140726 0)
(0.00322216 -0.000155213 0)
(0.0031943 -0.000169962 0)
(0.00316651 -0.000185304 0)
(0.00313923 -0.000201102 0)
(0.00311258 -0.000217249 0)
(0.00308635 -0.000234057 0)
(0.00306099 -0.000251333 0)
(0.00303661 -0.000269056 0)
(0.00301335 -0.000287218 0)
(0.0029913 -0.000305807 0)
(0.00297059 -0.000324798 0)
(0.00295133 -0.000344167 0)
(0.00293364 -0.000363894 0)
(0.00291771 -0.000383957 0)
(0.00290372 -0.000404318 0)
(0.00289188 -0.000424948 0)
(0.00288238 -0.00044581 0)
(0.00338209 -0.000125416 0)
(0.00335639 -0.000138894 0)
(0.00333111 -0.000152602 0)
(0.00330599 -0.00016674 0)
(0.00328107 -0.000181488 0)
(0.00325684 -0.0001965 0)
(0.00323305 -0.000211995 0)
(0.00320977 -0.000228131 0)
(0.00318735 -0.000244692 0)
(0.00316587 -0.00026166 0)
(0.00314542 -0.000279021 0)
(0.00312612 -0.00029676 0)
(0.00310809 -0.000314859 0)
(0.00309146 -0.000333297 0)
(0.00307637 -0.000352052 0)
(0.00306297 -0.00037109 0)
(0.00305141 -0.000390373 0)
(0.00304187 -0.000409859 0)
(0.00303451 -0.000429504 0)
(0.0034848 -0.000128057 0)
(0.00346158 -0.000140985 0)
(0.00343862 -0.000154323 0)
(0.00341597 -0.000168045 0)
(0.00339366 -0.000182142 0)
(0.00337181 -0.000196664 0)
(0.00335051 -0.000211619 0)
(0.00332985 -0.00022699 0)
(0.00330991 -0.000242781 0)
(0.00329081 -0.000258974 0)
(0.00327265 -0.000275552 0)
(0.00325557 -0.000292492 0)
(0.0032397 -0.000309771 0)
(0.00322515 -0.000327361 0)
(0.00321207 -0.000345229 0)
(0.00320058 -0.000363334 0)
(0.00319084 -0.00038163 0)
(0.00318297 -0.000400069 0)
(0.00317711 -0.000418593 0)
(0.00358686 -0.000132784 0)
(0.00356574 -0.000145242 0)
(0.00354489 -0.000158072 0)
(0.00352437 -0.000171265 0)
(0.00350424 -0.000184833 0)
(0.00348456 -0.000198801 0)
(0.0034653 -0.000213208 0)
(0.00344659 -0.000228005 0)
(0.00342865 -0.000243169 0)
(0.00341149 -0.000258714 0)
(0.00339521 -0.000274617 0)
(0.00337992 -0.000290854 0)
(0.00336575 -0.0003074 0)
(0.00335282 -0.000324225 0)
(0.00334124 -0.000341291 0)
(0.00333113 -0.000358554 0)
(0.00332263 -0.000375962 0)
(0.00331583 -0.000393455 0)
(0.00331087 -0.000410967 0)
(0.0036884 -0.000137688 0)
(0.00366914 -0.000149845 0)
(0.00365006 -0.0001624 0)
(0.00363126 -0.000175138 0)
(0.00361285 -0.000188228 0)
(0.00359488 -0.000201694 0)
(0.00357728 -0.000215548 0)
(0.00356034 -0.000229742 0)
(0.00354404 -0.000244184 0)
(0.00352833 -0.000259159 0)
(0.00351347 -0.000274461 0)
(0.00349957 -0.000290066 0)
(0.00348669 -0.000305949 0)
(0.00347494 -0.000322079 0)
(0.00346442 -0.000338416 0)
(0.00345522 -0.000354915 0)
(0.00344744 -0.00037152 0)
(0.0034412 -0.000388163 0)
(0.0034366 -0.000404766 0)
(0.0037895 -0.000141795 0)
(0.0037717 -0.000153538 0)
(0.00375405 -0.00016552 0)
(0.0037367 -0.000177828 0)
(0.00371968 -0.00019048 0)
(0.00370304 -0.000203489 0)
(0.00368687 -0.000216857 0)
(0.00367128 -0.000230403 0)
(0.00365618 -0.000244329 0)
(0.00364166 -0.000258776 0)
(0.00362793 -0.000273521 0)
(0.00361504 -0.000288538 0)
(0.00360308 -0.0003038 0)
(0.0035921 -0.000319279 0)
(0.00358221 -0.00033494 0)
(0.00357347 -0.000350738 0)
(0.00356599 -0.00036662 0)
(0.00355984 -0.000382509 0)
(0.00355511 -0.000398316 0)
(0.00388984 -0.000143531 0)
(0.00387316 -0.000154687 0)
(0.00385672 -0.00016618 0)
(0.00384054 -0.000178005 0)
(0.00382468 -0.000190165 0)
(0.00380918 -0.000202666 0)
(0.00379407 -0.000215516 0)
(0.00377941 -0.000228717 0)
(0.00376528 -0.000242247 0)
(0.00375172 -0.000256081 0)
(0.00373881 -0.000270209 0)
(0.00372661 -0.000284615 0)
(0.00371522 -0.00029927 0)
(0.00370469 -0.000314143 0)
(0.00369511 -0.000329196 0)
(0.00368652 -0.000344383 0)
(0.00367898 -0.000359645 0)
(0.00367256 -0.000374897 0)
(0.00366732 -0.000390043 0)
(0.00398933 -0.000141269 0)
(0.0039735 -0.000151954 0)
(0.00395791 -0.000162984 0)
(0.00394258 -0.000174353 0)
(0.00392757 -0.000186063 0)
(0.00391295 -0.000198073 0)
(0.00389858 -0.000210446 0)
(0.00388466 -0.000223135 0)
(0.00387127 -0.000236128 0)
(0.00385839 -0.000249294 0)