/*--------------------------------*- C++ -*----------------------------------*\
| =========                 |                                                 |
| \\      /  F ield         | OpenFOAM: The Open Source CFD Toolbox           |
|  \\    /   O peration     | Version:  v2012                                 |
|   \\  /    A nd           | Website:  www.openfoam.com                      |
|    \\/     M anipulation  |                                                 |
\*---------------------------------------------------------------------------*/
FoamFile
{
    version     2.0;
    format      ascii;
    class       volVectorField;
    location    "12";
    object      D;
}
// * * * * * * * * * * * * * * * * * * * * * * * * * * * * * * * * * * * * * //

dimensions      [0 1 0 0 0 0 0];


internalField   nonuniform List<vector> 
470
(
(0.00353567 -6.67901e-06 0)
(0.0036249 -1.32439e-05 0)
(0.00348229 -0.00031171 0)
(0.00419118 -1.70488e-05 0)
(0.00319196 -9.85729e-05 0)
(0.0037827 -0.000358183 0)
(0.00347927 -9.40025e-05 0)
(0.00318863 -0.000100675 0)
(0.00222986 -0.000499269 0)
(0.00343332 -0.000214629 0)
(0.00235819 -0.000434428 0)
(0.00138228 -0.00113622 0)
(0.00152715 -0.000987093 0)
(0.00406994 -3.09074e-05 0)
(0.00176532 -0.000759147 0)
(0.00290327 -0.000329075 0)
(0.00338687 -0.000200855 0)
(0.00394754 -2.36843e-05 0)
(0.00385365 -9.25723e-06 0)
(0.00356286 -1.70808e-05 0)
(0.0028899 -0.000366688 0)
(0.0041792 -0.000117713 0)
(0.00348768 -0.000348122 0)
(0.00406847 -4.01951e-05 0)
(0.00206317 -0.000674411 0)
(0.00354851 -8.01531e-05 0)
(0.00225314 -0.000537943 0)
(0.00325669 -0.000412984 0)
(0.00384639 -0.000296464 0)
(0.00412966 -1.45448e-05 0)
(0.0036032 -9.70761e-06 0)
(0.00177511 -0.000774815 0)
(0.00338583 -0.000245184 0)
(0.00162725 -0.00145922 0)
(0.00371175 -0.000374647 0)
(0.00386647 -0.000322858 0)
(0.00133916 -0.00105814 0)
(0.00361096 -2.32743e-05 0)
(0.003638 -1.73341e-05 0)
(0.00348692 -2.32427e-05 0)
(0.00258262 -0.000337609 0)
(0.00381092 -2.58897e-06 0)
(0.00107063 -0.001496 0)
(0.00272582 -0.000266841 0)
(0.00316229 -0.000425762 0)
(0.000897657 -0.00165792 0)
(0.00347314 -3.96675e-05 0)
(0.00229901 -0.000476042 0)
(0.00246239 -0.000400715 0)
(0.00223623 -0.000513112 0)
(0.00113042 -0.00120776 0)
(0.00193701 -0.00125846 0)
(0.00390323 -3.09483e-05 0)
(0.00385768 -1.42289e-05 0)
(0.00421354 -8.73848e-05 0)
(0.00416469 -0.000107258 0)
(2.41276e-05 -0.0026828 0)
(4.64364e-05 -0.00265077 0)
(0.00291475 -0.000199045 0)
(0.00331173 -0.000369815 0)
(0.0036363 -0.000103233 0)
(0.00194437 -0.000727569 0)
(0.0018186 -0.000741277 0)
(0.00142909 -0.00122535 0)
(0.00247156 -0.000988933 0)
(0.000601003 -0.00218041 0)
(0.00350211 -4.00706e-05 0)
(0.0041122 -0.000144543 0)
(0.00312455 -0.000195578 0)
(0.00293249 -0.00025602 0)
(0.00355414 -4.3211e-07 0)
(0.00344143 -0.000174797 0)
(0.00147913 -0.00137435 0)
(0.00322215 -0.000124062 0)
(0.00124029 -0.00153007 0)
(0.00434617 -6.60076e-05 0)
(0.00360668 -0.000190528 0)
(0.00361731 -0.000163083 0)
(0.0030316 -0.000162378 0)
(0.000142937 -0.00251212 0)
(0.00273085 -0.000252899 0)
(0.000874869 -0.00195757 0)
(0.00339755 -0.000308975 0)
(0.00306636 -0.000263907 0)
(0.00209899 -0.000581995 0)
(0.0042727 -9.60639e-05 0)
(0.00121331 -0.00140964 0)
(0.00238637 -0.00122271 0)
(0.000925209 -0.00176173 0)
(0.00162835 -0.00117082 0)
(0.00118684 -0.00155354 0)
(0.00149031 -0.000966545 0)
(0.0033027 -0.000116292 0)
(0.00354382 -0.000147327 0)
(0.00167115 -0.000837452 0)
(0.0016125 -0.000851498 0)
(0.00338826 -6.16862e-05 0)
(0.00356256 -0.000123601 0)
(0.00310474 -0.000126423 0)
(0.00363821 -0.000337632 0)
(0.00408265 -8.63146e-05 0)
(0.00234246 -0.000439732 0)
(0.00152655 -0.00146445 0)
(0.00426969 -5.70648e-05 0)
(0.00429288 -4.27464e-05 0)
(0.00400393 -0.000243211 0)
(0.00405094 -0.000212491 0)
(0.00331016 -6.15483e-05 0)
(0.0033762 -0.000215585 0)
(0.00125334 -0.00182154 0)
(0.000853294 -0.00179302 0)
(0.00118913 -0.00177769 0)
(0.00434263 -6.02724e-05 0)
(0.0038225 -0.000379957 0)
(0.00308231 -0.000194664 0)
(0.00307953 -0.000184821 0)
(0.00423323 -2.31376e-06 0)
(0.00231677 -0.000538523 0)
(0.00336372 -7.52333e-05 0)
(0.00366399 5.1128e-06 0)
(0.00325475 -9.72933e-05 0)
(0.00415962 -5.80865e-05 0)
(0.00401497 -2.00007e-05 0)
(0.00443657 -2.16468e-05 0)
(0.00419621 -0.000192734 0)
(0.00295528 -0.000222209 0)
(0.00286985 -0.000229652 0)
(0.00408268 -0.000112349 0)
(0.00221513 -0.000600262 0)
(0.00411429 -5.46508e-05 0)
(0.00337879 -4.89308e-05 0)
(0.00330082 -7.01605e-05 0)
(0.00339556 -0.000100211 0)
(0.00401826 -9.09758e-05 0)
(0.004291 -0.000101988 0)
(0.003569 -0.000357644 0)
(0.00327211 -0.000153361 0)
(0.00237972 -0.000941908 0)
(0.00118203 -0.0012775 0)
(0.00397895 -0.000312128 0)
(0.00391937 -0.000320614 0)
(0.00194706 -0.000857567 0)
(0.00402486 -0.000128541 0)
(0.00371302 -0.000137383 0)
(0.00378429 -0.000147406 0)
(0.00354546 -2.21846e-05 0)
(0.00434142 -2.02107e-05 0)
(0.00177729 -0.000849379 0)
(0.0038714 -0.000100577 0)
(0.00147697 -0.00110611 0)
(0.00381599 -2.01027e-05 0)
(0.00429484 -1.62108e-05 0)
(0.00297484 -0.000222366 0)
(0.00428356 -6.97233e-05 0)
(0.00171676 -0.00167682 0)
(0.00282568 -0.000298173 0)
(0.00329262 -0.000354 0)
(0.00361969 -7.15127e-05 0)
(0.00365576 -8.2574e-05 0)
(0.0035298 -0.000215569 0)
(0.00163203 -0.00160269 0)
(0.00195608 -0.000651224 0)
(0.00031864 -0.0021713 0)
(0.00196256 -0.000699463 0)
(0.000189371 -0.00251658 0)
(0.00274897 -0.000368301 0)
(0.00282315 -0.000292456 0)
(0.00208203 -0.000634786 0)
(0.0031081 -0.000151641 0)
(0.00261958 -0.000355013 0)
(0.00276322 -0.000290825 0)
(0.0038594 -0.000176124 0)
(0.00385633 -0.000203718 0)
(0.00369857 -0.000195177 0)
(0.00377003 -0.000176492 0)
(0.00370084 -0.000104038 0)
(0.00391933 -1.56253e-05 0)
(0.00347624 -2.49548e-05 0)
(0.00208118 -0.000718078 0)
(0.00289015 -0.000215198 0)
(0.00288997 -0.000197106 0)
(0.00103698 -0.00142288 0)
(0.00332769 -0.000144439 0)
(0.00303301 -0.000246581 0)
(0.00302532 -0.000288756 0)
(0.00222081 -0.00051172 0)
(0.00378736 -0.000256773 0)
(0.00350051 -1.17462e-05 0)
(0.00048647 -0.00199117 0)
(0.00401379 -5.02953e-05 0)
(0.0039127 -0.000269281 0)
(0.00355448 -5.1997e-05 0)
(0.00314013 -0.000216963 0)
(0.00323111 -0.000195862 0)
(0.00346991 -2.47354e-05 0)
(0.00383618 -3.18788e-05 0)
(0.00340912 -0.000375309 0)
(0.00360353 -0.000251744 0)
(0.0035872 -0.00028716 0)
(0.000657609 -0.00166081 0)
(0.00357174 -1.72846e-05 0)
(0.00353447 -7.25413e-06 0)
(0.000241906 -0.00196652 0)
(0.00256759 -0.000592223 0)
(0.00311403 -0.000289917 0)
(0.00306738 -0.000371616 0)
(0.00373849 -1.81403e-05 0)
(0.00375596 -2.32961e-05 0)
(0.00249745 -0.000693818 0)
(0.00339722 -0.000141588 0)
(0.00410506 -9.78045e-05 0)
(0.00339068 -0.000283498 0)
(0.00345054 -5.18094e-05 0)
(0.00390594 -4.46764e-05 0)
(0.00231942 -0.000482713 0)
(0.00245166 -0.000422837 0)
(0.00389258 -0.0001142 0)
(0.00361293 -5.06601e-05 0)
(0.00390537 -6.76893e-05 0)
(0.00252367 -0.000436028 0)
(0.00334712 -0.00017358 0)
(0.00343291 -3.28528e-05 0)
(0.00373716 -0.00028298 0)
(0.00394709 -5.19671e-05 0)
(0.00237349 -0.000519433 0)
(0.00370053 -0.00033299 0)
(0.00238922 -0.000414611 0)
(0.00339877 -8.42932e-05 0)
(0.000486285 -0.00231231 0)
(0.0010689 -0.00129623 0)
(0.00246467 -0.000379506 0)
(0.00331462 -0.000136791 0)
(0.00443696 -1.22961e-05 0)
(0.00411003 -0.000271944 0)
(0.00313468 -0.000338347 0)
(0.00347797 -0.000115896 0)
(0.00282448 -0.000702526 0)
(0.00412584 -0.000184992 0)
(0.00418962 -0.000176042 0)
(0.00438611 -3.71357e-05 0)
(0.00431836 -5.38158e-05 0)
(0.00435329 -2.89163e-05 0)
(0.00405804 -0.000250512 0)
(0.000592021 -0.00225748 0)
(0.000252256 -0.00244495 0)
(0.000309149 -0.0024266 0)
(6.37694e-05 -0.00261974 0)
(0.00411096 -0.000159987 0)
(0.00376472 -6.72061e-06 0)
(0.00369678 -0.000228495 0)
(0.00377303 -0.000227837 0)
(0.0033005 -0.000343211 0)
(0.00447066 -1.06559e-05 0)
(0.00416832 -0.000244214 0)
(0.00271448 -0.0003152 0)
(0.00369216 -2.00795e-06 0)
(0.00370203 -3.29776e-05 0)
(0.00442152 -2.3246e-05 0)
(0.00413967 -0.000225216 0)
(0.00360179 6.1415e-06 0)
(0.00315689 -0.000173704 0)
(0.000931862 -0.0018505 0)
(0.00352074 -7.16181e-06 0)
(0.00291975 -0.000615624 0)
(0.0036006 -3.47477e-05 0)
(0.0043675 -2.1885e-05 0)
(0.0040324 -0.000279802 0)
(0.00399731 -4.54077e-06 0)
(0.00364706 -3.30683e-05 0)
(0.00307923 -0.000408405 0)
(0.00349849 -0.000416523 0)
(0.00297562 -0.00048491 0)
(0.00140525 -0.000995832 0)
(0.00273221 -0.000495391 0)
(0.000102818 -0.00258639 0)
(0.00219112 -0.000958075 0)
(0.00195581 -0.00108464 0)
(0.00321916 -0.000260151 0)
(0.00209262 -0.000568013 0)
(0.00400067 -0.000149153 0)
(0.00339304 -0.000157443 0)
(0.00267679 -0.000314413 0)
(0.0034244 -6.84662e-05 0)
(0.00274918 -0.000275554 0)
(0.00419208 -2.85103e-05 0)
(0.00424913 -3.23941e-05 0)
(0.00295692 -0.000375942 0)
(0.000603895 -0.00192798 0)
(0.00392811 -8.12637e-05 0)
(0.00335913 -5.99561e-05 0)
(0.00253326 -0.000778336 0)
(0.00287832 -0.000453889 0)
(0.00340809 -4.15454e-05 0)
(0.00243334 -0.000491457 0)
(0.002528 -0.000370112 0)
(0.00380208 -8.39627e-05 0)
(0.00399997 -7.75425e-05 0)
(0.00365179 -0.000405006 0)
(0.00249234 -0.000368832 0)
(0.00410149 -5.55684e-06 0)
(0.0040296 -0.000154524 0)
(0.00278631 -0.000940489 0)
(0.0041567 -0.00015725 0)
(0.00423088 -0.000132473 0)
(0.000830925 -0.00194548 0)
(0.00298691 -0.000160704 0)
(0.00392123 -0.000197168 0)
(0.00391351 -0.000159656 0)
(0.00319036 -0.000124916 0)
(0.00320305 -0.000107263 0)
(0.00170989 -0.000938792 0)
(0.00199636 -0.000888938 0)
(0.00159356 -0.00173804 0)
(0.0037429 -0.000120697 0)
(0.00294516 -0.000336806 0)
(0.00170823 -0.000865636 0)
(0.00278858 -0.000386918 0)
(0.00341002 -6.40802e-05 0)
(0.00226378 -0.000525469 0)
(0.00365759 -5.53858e-05 0)
(0.00272844 -0.000480275 0)
(0.00371136 -5.16463e-05 0)
(0.00374598 -8.63706e-05 0)
(0.00404575 -6.28287e-05 0)
(0.00252464 -0.0004043 0)
(0.0039452 -7.60119e-06 0)
(0.00342267 -0.000405683 0)
(0.00301763 -0.000171656 0)
(0.00312796 -0.000127911 0)
(0.00319053 -0.000261895 0)
(0.00350545 -5.65192e-05 0)
(0.00329794 -0.000184539 0)
(0.00286043 -0.000211295 0)
(0.00283705 -0.000216908 0)
(0.00325062 -0.000142212 0)
(0.00308356 -0.000136895 0)
(0.00369489 -1.20032e-05 0)
(0.00384034 -6.90506e-05 0)
(0.000828164 -0.00148554 0)
(0.0038761 -0.000244075 0)
(0.0037989 -3.79121e-05 0)
(0.00017856 -0.00233142 0)
(0.00252195 -0.000515705 0)
(0.00342474 -8.08472e-05 0)
(0.00385263 -0.000134877 0)
(0.00281009 -0.00044256 0)
(0.000837201 -0.00155525 0)
(0.00381089 -9.92982e-05 0)
(0.00444932 -7.67154e-06 0)
(0.00410587 -0.000295323 0)
(0.00373348 3.02985e-07 0)
(0.00322086 -9.51625e-05 0)
(0.00280974 -0.000326508 0)
(0.00296774 -0.000448094 0)
(0.000515044 -0.00185072 0)
(0.00346973 -3.05685e-05 0)
(0.00037728 -0.0022872 0)
(0.00340854 -0.000145345 0)
(0.00439411 -6.97563e-06 0)
(0.00350431 -9.88188e-06 0)
(0.00438938 -8.93837e-06 0)
(0.00440714 -3.61847e-05 0)
(0.00425621 -0.000139145 0)
(0.00326479 -0.000223256 0)
(0.00199858 -0.0015277 0)
(0.0040156 -0.000341532 0)
(0.00374196 -4.02629e-05 0)
(0.000704834 -0.00168884 0)
(0.00346119 -3.19623e-05 0)
(0.00402736 -0.000319122 0)
(0.00354328 -3.33323e-05 0)
(0.00319773 -0.000102015 0)
(0.000271125 -0.00244336 0)
(0.00423282 -4.06708e-05 0)
(0.00318918 -0.000415906 0)
(0.00308812 -0.000608379 0)
(0.00348656 -1.97204e-05 0)
(0.00400433 -0.000204112 0)
(0.00111072 -0.00195355 0)
(0.00311641 -0.000370963 0)
(0.00296168 -0.000172517 0)
(0.00127307 -0.0016265 0)
(0.000140076 -0.00247196 0)
(0.00419879 -7.03178e-05 0)
(0.00396129 -0.000108905 0)
(0.00132825 -0.00199687 0)
(0.000640813 -0.00199213 0)
(0.000527957 -0.00217018 0)
(0.00290211 -0.000425729 0)
(0.00380936 -5.79395e-05 0)
(0.00187533 -0.00106406 0)
(0.00403706 -1.16115e-05 0)
(0.0035764 -0.000397302 0)
(0.00116166 -0.00167429 0)
(0.00392573 -0.000223111 0)
(0.00383572 -4.71979e-05 0)
(0.00433771 -3.03466e-07 0)
(0.00394233 -0.000366255 0)
(0.0019546 -0.000650852 0)
(0.00323299 -0.000323419 0)
(0.00208306 -0.000586535 0)
(0.000337756 -0.00213846 0)
(0.00352741 -0.000241215 0)
(0.00335288 -7.19922e-05 0)
(0.00160444 -0.001123 0)
(0.000278782 -0.00248469 0)
(0.00177226 -0.000957878 0)
(0.00365636 -0.000291223 0)
(0.0044585 -1.72788e-06 0)
(0.00449401 -2.00376e-06 0)
(0.00408295 -0.000335274 0)
(0.00414074 -0.000304413 0)
(0.00390386 -2.5041e-06 0)
(0.00333731 -0.000428302 0)
(0.000151949 -0.00253949 0)
(0.00206938 -0.00136936 0)
(0.00417678 -8.33586e-05 0)
(0.00327744 -0.000108682 0)
(0.000763415 -0.00175112 0)
(0.00347018 -3.10381e-05 0)
(0.00305481 -0.000140334 0)
(0.00349877 -1.74285e-05 0)
(0.00329354 -0.000262344 0)
(0.00414114 -7.24768e-05 0)
(0.00344006 -0.000257883 0)
(0.000729759 -0.00225501 0)
(0.000565191 -0.00214136 0)
(0.00257197 -0.000451096 0)
(0.00196856 -0.000680135 0)
(0.000289529 -0.00232062 0)
(0.00182702 -0.000759524 0)
(0.00225965 -0.000626272 0)
(0.00267973 -0.00028531 0)
(0.00257469 -0.000333027 0)
(0.00343228 -8.94852e-05 0)
(0.00343862 -6.43626e-05 0)
(0.00428798 -1.28975e-05 0)
(0.00389394 -0.000361015 0)
(0.00403614 -0.000183594 0)
(0.00265113 -0.000294494 0)
(0.00230562 -0.000651278 0)
(0.00211687 -0.000590725 0)
(0.00413766 -3.9942e-05 0)
(0.00224955 -0.000803582 0)
(0.00278234 -0.000407769 0)
(0.0021982 -0.000782441 0)
(0.00248801 -0.000564526 0)
(0.00376702 -0.000306324 0)
(0.00347735 -3.29675e-05 0)
(0.00399024 -0.000181002 0)
(0.00329546 -0.00029149 0)
(0.00252101 -0.000445616 0)
(0.0026404 -0.000408096 0)
(0.0039086 -0.000140321 0)
(0.0039678 -0.000124291 0)
(0.00328357 -8.0643e-05 0)
(0.00254999 -0.000339054 0)
(0.00263035 -0.000477653 0)
(0.00328893 -7.05183e-05 0)
(0.00334913 -5.24891e-05 0)
(0.00331033 -0.000176282 0)
(0.00313947 -0.000108238 0)
(0.00341281 -4.13739e-05 0)
(0.00268234 -0.000424695 0)
(0.00264229 -0.000364385 0)
(0.00270364 -0.000367026 0)
(0.00372269 -7.51371e-05 0)
(0.00375091 -6.05351e-05 0)
(0.00271717 -0.000268217 0)
(0.00251494 -0.000352692 0)
)
;

boundaryField
{
    back
    {
        type            empty;
    }
    front
    {
        type            empty;
    }
    down
    {
        type            symmetry;
    }
    right
    {
        type            calculated;
        value           nonuniform List<vector> 10((0.00439203 -4.67009e-05 -5.05763e-21) (0.00447631 -8.17911e-06 5.15734e-21) (0.00424137 -0.000175198 -6.141e-21) (0.00433686 -8.18444e-05 4.74365e-21) (0.00450083 -5.16032e-06 2.71637e-21) (0.00420336 -0.000235501 -6.12088e-21) (0.00443699 -2.62154e-05 -6.02148e-21) (0.00428763 -0.000127945 4.51366e-21) (0.00451576 -1.1067e-07 -2.05371e-21) (0.00416636 -0.000298117 -8.47038e-21));
    }
    up
    {
        type            calculated;
        value           nonuniform List<vector> 
20
(
(0.00174414 -0.000806863 0)
(0.00316291 -0.000453515 0)
(0.00103838 -0.00125087 -3.39543e-20)
(-8.10328e-06 -0.00266993 -1.04803e-20)
(0.00381777 -0.000399836 1.55527e-21)
(0.00219125 -0.000626082 1.0382e-20)
(0.000214022 -0.0021964 -3.3378e-21)
(0.00193227 -0.000728424 0)
(0.00349726 -0.000434098 -3.31801e-21)
(0.00134757 -0.00102891 6.09435e-21)
(0.0036485 -0.000421784 -6.06882e-21)
(0.0027203 -0.00050042 3.37836e-21)
(0.00075377 -0.00151244 1.26284e-20)
(0.00251277 -0.000540891 2.91524e-21)
(0.00296375 -0.000468566 3.19112e-21)
(0.000438175 -0.00187398 -6.36464e-21)
(8.30569e-05 -0.00248956 9.08701e-21)
(0.0039364 -0.000378191 -1.62141e-21)
(0.0040768 -0.000346294 -3.31988e-21)
(0.00333456 -0.000443077 1.8869e-21)
)
;
    }
    left
    {
        type            symmetry;
    }
    hole
    {
        type            calculated;
        value           nonuniform List<vector> 8((0.00253171 -0.00131923 -1.08835e-21) (0.00329277 -0.000427005 7.4795e-21) (0.000668907 -0.00118957 -1.13737e-19) (0.00337487 -0.000167794 -4.92117e-21) (0.00286152 -0.0010359 1.17177e-20) (0.00169683 -0.00172016 -2.3031e-20) (0.00209188 -0.00155359 0) (0.00311909 -0.000680519 -1.9715e-20));
    }
}


// ************************************************************************* //
