/*--------------------------------*- C++ -*----------------------------------*\
| =========                 |                                                 |
| \\      /  F ield         | OpenFOAM: The Open Source CFD Toolbox           |
|  \\    /   O peration     | Version:  v2012                                 |
|   \\  /    A nd           | Website:  www.openfoam.com                      |
|    \\/     M anipulation  |                                                 |
\*---------------------------------------------------------------------------*/
FoamFile
{
    version     2.0;
    format      ascii;
    class       volScalarField;
    location    "12";
    object      epsilonEq;
}
// * * * * * * * * * * * * * * * * * * * * * * * * * * * * * * * * * * * * * //

dimensions      [0 0 0 0 0 0 0];


internalField   nonuniform List<scalar> 
470
(
0.000627885
0.000495295
0.00139815
0.000835512
0.0011894
0.0012509
0.00110928
0.00114777
0.00197377
0.00134695
0.0018964
0.00231683
0.00222669
0.000823985
0.00237806
0.00168675
0.00135312
0.000806796
0.000669966
0.000581608
0.00174267
0.00102793
0.00137568
0.00088727
0.00191954
0.00106572
0.00197756
0.00155434
0.00122977
0.000866585
0.000522463
0.00231306
0.00141803
0.00197946
0.00125716
0.00121315
0.0025322
0.000695497
0.000618998
0.000607471
0.00170701
0.000644368
0.00241845
0.00168982
0.00155331
0.0023798
0.000941943
0.00179758
0.00188811
0.00194401
0.00237416
0.00180163
0.000789117
0.000723926
0.00097699
0.00100672
0.00101572
0.00139674
0.00149403
0.00147718
0.00111578
0.00215438
0.0021352
0.00240821
0.00117424
0.00324906
0.00078545
0.00106816
0.00110698
0.00161873
0.000342614
0.00130933
0.00212684
0.00135064
0.00234218
0.000960691
0.00126697
0.0012152
0.00148694
0.002891
0.0015667
0.00345584
0.00140574
0.00121268
0.00202451
0.00100583
0.00232206
0.000916505
0.00260785
0.00233864
0.00243572
0.00226422
0.00124805
0.00125195
0.002308
0.00237953
0.00100849
0.00116287
0.00135149
0.00129707
0.000979984
0.00188441
0.00238901
0.000919566
0.000892411
0.00116713
0.00113379
0.00112765
0.00143732
0.00274381
0.00253533
0.00234072
0.000937898
0.00121821
0.00118186
0.00148211
0.000855364
0.00206284
0.00113738
0.000482272
0.00123076
0.00092782
0.000809692
0.000871155
0.00113343
0.00153436
0.00161986
0.00103211
0.00215699
0.000925309
0.000893012
0.00106098
0.00121263
0.00101038
0.00103694
0.00134418
0.00134887
0.00118633
0.00238651
0.00119435
0.00119527
0.00206165
0.00104988
0.00116216
0.00113685
0.000717304
0.000848782
0.00208695
0.00104524
0.00217639
0.00069601
0.000856002
0.00148879
0.000958799
0.00210328
0.00169263
0.0011049
0.00103934
0.00102484
0.00131117
0.00187323
0.00214033
0.00180671
0.00231118
0.00220369
0.0016035
0.00146648
0.00227644
0.00139933
0.00167727
0.00159391
0.0011557
0.00116699
0.0012223
0.00118984
0.0011101
0.000721984
0.000337911
0.00205458
0.00150573
0.00145887
0.00234153
0.00131462
0.00155502
0.00160607
0.00203534
0.00122647
0.000410356
0.00203251
0.000884454
0.00118113
0.000941276
0.00148157
0.00143062
0.000697239
0.000811039
0.00143062
0.00130895
0.00132751
0.0155424
0.000422183
0.000380804
0.00844891
0.00156783
0.00156693
0.00164219
0.000599643
0.000733065
0.00136763
0.00143611
0.00100999
0.00141833
0.00144384
0.000859402
0.00198024
0.00194836
0.0010638
0.000946531
0.00093394
0.0017755
0.000769215
0.000874082
0.00127112
0.000905939
0.00180517
0.00130596
0.00183551
0.000812007
0.0024407
0.00247971
0.0018065
0.000771432
0.000810573
0.00117928
0.00153755
0.00123207
0.000650256
0.00110977
0.00112719
0.000869316
0.000917007
0.000883917
0.0011491
0.00311958
0.00437966
0.00253428
0.00185543
0.00108145
0.000623606
0.00124348
0.00122843
0.00149188
0.000830584
0.00115895
0.00170835
0.000623153
0.000791431
0.000850331
0.00115011
0.000371815
0.00142249
0.00319311
0.000322069
0.000794106
0.000800687
0.000862733
0.00116643
0.000760308
0.000811316
0.0016354
0.00136986
0.000995202
0.00240409
0.00145971
0.00209433
0.00173718
0.00188782
0.0014742
0.00202607
0.00109695
0.00130232
0.00176388
0.00107891
0.00164375
0.000882159
0.000871599
0.0016263
0.0022299
0.000995204
0.000810159
0.00159511
0.00123148
0.000733056
0.00207625
0.00180243
0.00100865
0.000963869
0.00127346
0.00187457
0.000806188
0.00109425
0.000459118
0.00106856
0.00105826
0.00296003
0.00138781
0.00116287
0.00111503
0.00113839
0.00103445
0.00218782
0.00204198
0.00316248
0.00111254
0.00115378
0.00221617
0.00152263
0.000594323
0.00214831
0.000911239
0.00186045
0.000895965
0.00103026
0.000938911
0.00187252
0.000745051
0.00141342
0.00128785
0.00125242
0.000983929
0.00103649
0.000946919
0.00157266
0.00159498
0.00105504
0.00133736
0.000523105
0.000960078
0.002308
0.00120386
0.000807402
0.00581139
0.00199524
0.000500147
0.00110557
0.0017793
0.00231615
0.00105534
0.000808793
0.00117454
0.000544104
0.00122358
0.0017295
0.00171086
0.00209171
0.00072763
0.00197178
0.00126844
0.000832913
0.000400744
0.000825945
0.000912355
0.00108292
0.00144447
0.00177517
0.00118372
0.000844139
0.00228761
0.000646136
0.00118708
0.000879303
0.00129721
0.00192661
0.000898738
0.0012135
0.000687734
0.000789193
0.00114604
0.00334562
0.00108744
0.00146546
0.00234768
0.00150523
0.000950175
0.00102318
0.00747426
0.00233707
0.00232708
0.00178115
0.000904439
0.0020056
0.000803297
0.00133049
0.00249463
0.00116165
0.000879209
0.000833014
0.00118958
0.00214106
0.0015406
0.00219391
0.00646914
0.00133013
0.000853165
0.00223251
0.00190655
0.00221142
0.0012881
0.00080576
0.000813116
0.00117908
0.00117007
0.000702627
0.00146609
0.00114499
0.00165636
0.000952902
0.000876918
0.00230805
0.000580549
0.00141735
0.000438661
0.00145534
0.000961356
0.00135664
0.00686376
0.00300082
0.00167116
0.00203591
0.00165199
0.00212841
0.00193537
0.00172484
0.00170653
0.000994709
0.000748396
0.000849945
0.00120448
0.00111501
0.00175277
0.00191001
0.00215614
0.000875029
0.0019323
0.00183687
0.00191052
0.00171911
0.00123011
0.000420985
0.00112108
0.00146381
0.00190117
0.00189878
0.00111686
0.001068
0.00103479
0.00175409
0.0019595
0.000990693
0.000950065
0.00136926
0.00126751
0.000762226
0.00185565
0.00189244
0.00174622
0.000992834
0.000939853
0.00160156
0.00182257
)
;

boundaryField
{
    back
    {
        type            empty;
    }
    front
    {
        type            empty;
    }
    down
    {
        type            symmetry;
    }
    right
    {
        type            calculated;
        value           nonuniform List<scalar> 10(0.000962666 0.000862777 0.00112717 0.00102813 0.000841617 0.00115066 0.000911065 0.00108181 0.000817719 0.00117036);
    }
    up
    {
        type            calculated;
        value           nonuniform List<scalar> 
20
(
0.00233616
0.00156935
0.0024008
0.00135172
0.00122421
0.00216211
0.00180308
0.00230971
0.00137371
0.002377
0.00128819
0.00187351
0.00232005
0.00199186
0.0016999
0.00201665
0.00150016
0.00119801
0.00118057
0.00148082
)
;
    }
    left
    {
        type            symmetry;
    }
    hole
    {
        type            calculated;
        value           nonuniform List<scalar> 8(0.000849084 0.00114133 0.0167103 0.0014278 0.000472156 0.002563 0.00162939 0.000701169);
    }
}


// ************************************************************************* //
