/*--------------------------------*- C++ -*----------------------------------*\
| =========                 |                                                 |
| \\      /  F ield         | OpenFOAM: The Open Source CFD Toolbox           |
|  \\    /   O peration     | Version:  v2012                                 |
|   \\  /    A nd           | Website:  www.openfoam.com                      |
|    \\/     M anipulation  |                                                 |
\*---------------------------------------------------------------------------*/
FoamFile
{
    version     2.0;
    format      ascii;
    class       volScalarField;
    location    "12";
    object      sigmaHyd;
}
// * * * * * * * * * * * * * * * * * * * * * * * * * * * * * * * * * * * * * //

dimensions      [1 -1 -2 0 0 0 0];


internalField   nonuniform List<scalar> 
470
(
2.36908e+07
2.88731e+07
5.486e+07
5.46399e+07
2.98646e+07
4.94435e+07
4.68745e+07
2.49917e+07
7.17022e+07
5.43245e+07
6.67345e+07
8.03824e+07
8.1278e+07
5.19515e+07
9.16141e+07
6.527e+07
5.4184e+07
4.86414e+07
4.42816e+07
2.74172e+07
6.72244e+07
5.38886e+07
5.45952e+07
5.25135e+07
5.68557e+07
4.54231e+07
5.19713e+07
5.98518e+07
5.01581e+07
5.30692e+07
2.97009e+07
9.23827e+07
5.55694e+07
7.12324e+07
5.02355e+07
4.92688e+07
9.28641e+07
3.27445e+07
3.55866e+07
2.22705e+07
4.51664e+07
4.21333e+07
8.06233e+07
4.40482e+07
6.24227e+07
8.1467e+07
3.61201e+07
5.46138e+07
5.12914e+07
6.14215e+07
9.41585e+07
5.89554e+07
4.78272e+07
4.50613e+07
5.54318e+07
5.43552e+07
5.59291e+07
5.15976e+07
5.11134e+07
5.81861e+07
4.90354e+07
6.40446e+07
8.02292e+07
7.1097e+07
2.50902e+07
1.22779e+08
3.16912e+07
5.28965e+07
515568
5.97844e+07
1.62612e+07
5.25754e+07
7.01655e+07
4.71057e+07
7.61967e+07
5.59169e+07
5.27638e+07
5.18648e+07
4.81514e+07
1.43974e+08
4.74907e+07
1.08019e+08
5.61582e+07
-4.40135e+06
6.71828e+07
5.43794e+07
7.50116e+07
3.68518e+07
8.33693e+07
6.4243e+07
7.67314e+07
8.75538e+07
4.81409e+07
5.14662e+07
8.66693e+07
9.22298e+07
3.75251e+07
4.97641e+07
3.47879e+07
5.21519e+07
5.36661e+07
6.02903e+07
7.47673e+07
5.72987e+07
5.7993e+07
4.94641e+07
5.02502e+07
3.52619e+07
-5.17058e+07
1.0365e+08
8.19474e+07
9.91675e+07
5.6972e+07
4.85981e+07
1.03681e+07
5.3102e+07
5.59567e+07
8.20809e+07
4.16041e+07
3.22883e+07
4.35423e+07
5.48227e+07
5.04193e+07
6.07324e+07
4.8543e+07
5.63267e+07
5.55648e+07
5.36707e+07
8.41946e+07
5.3894e+07
2.66034e+07
3.05971e+07
4.60692e+07
5.27512e+07
5.30624e+07
5.29376e+07
5.08773e+07
2.77384e+07
8.59807e+07
4.7704e+07
4.81449e+07
5.46389e+07
5.29945e+07
5.14686e+07
5.18353e+07
3.10848e+07
5.97135e+07
6.82207e+07
5.11782e+07
7.30126e+07
4.40831e+07
5.82466e+07
1.87053e+07
5.66942e+07
8.24352e+07
6.33272e+07
-4.79308e+07
4.61095e+07
4.73891e+07
5.36908e+07
8.45239e+07
7.91292e+07
7.01152e+07
8.90596e+07
1.22939e+08
2.10653e+07
2.3209e+07
8.6033e+07
4.9563e+07
3.79282e+07
3.18062e+07
5.21649e+07
5.19743e+07
5.24631e+07
5.21824e+07
4.98161e+07
4.71656e+07
-1.36605e+07
5.17453e+07
3.17141e+07
3.68774e+07
8.48363e+07
5.12247e+07
5.90811e+07
6.13771e+07
7.58302e+07
5.17242e+07
-8.76642e+06
7.59675e+07
5.16387e+07
5.0136e+07
4.31329e+07
5.60721e+07
5.50979e+07
1.77955e+07
4.56935e+07
5.61375e+07
5.34546e+07
5.35519e+07
1.09857e+08
2.10236e+07
1.21093e+07
1.22523e+08
1.97341e+07
6.04153e+07
6.43277e+07
3.9547e+07
4.17797e+07
2.2814e+07
-5.98951e+07
5.3907e+07
5.61258e+07
-5.81821e+07
4.86202e+07
7.59757e+07
7.21701e+07
5.16905e+07
4.30929e+07
5.01712e+07
3.67309e+07
-4.02362e+07
2.72416e+07
5.18892e+07
5.01542e+07
4.34235e+07
5.12016e+07
6.25158e+07
-1.5975e+07
1.09862e+08
9.1417e+07
5.54615e+07
-1.55792e+07
6.17905e+07
4.71966e+07
6.17826e+07
4.90433e+07
751650
5.02852e+07
4.96303e+07
5.93344e+07
5.79714e+07
5.98396e+07
4.83588e+07
1.40738e+08
1.49344e+08
1.08542e+08
9.88913e+07
5.20084e+07
3.99023e+07
5.2597e+07
5.21276e+07
5.82597e+07
6.18021e+07
4.74065e+07
6.48888e+07
3.68234e+07
4.2342e+07
6.09324e+07
4.80622e+07
2.45074e+07
5.34023e+07
9.48154e+07
5.62642e+06
-1.24378e+07
3.84584e+07
6.03385e+07
4.77805e+07
4.93194e+07
4.10912e+07
6.44424e+07
5.4153e+07
-1.22172e+07
9.39977e+07
1.02923e+07
8.13252e+07
3.88403e+07
5.1088e+07
5.79481e+07
7.25063e+07
5.26636e+07
5.21361e+07
6.34039e+07
4.29731e+07
5.88792e+07
5.52057e+07
5.68066e+07
6.64606e+07
8.03181e+07
5.12006e+07
1.02332e+07
1.57814e+07
-2.29057e+06
1.2116e+07
7.99318e+07
6.67389e+07
4.96677e+07
5.22786e+07
5.08651e+07
6.5038e+07
5.21486e+07
5.25015e+07
9.81114e+06
5.14249e+07
5.17768e+07
9.17592e+07
3.72831e+07
5.17505e+07
5.23293e+07
1.01691e+07
1.55094e+07
6.69939e+07
5.02179e+07
9.56277e+07
5.07019e+07
2.3355e+06
7.4902e+07
1.23909e+07
-5.66041e+06
8.01458e+07
4.48631e+07
7.31586e+07
4.54004e+07
4.90766e+07
5.26851e+07
7.2488e+07
4.76878e+07
5.59956e+07
2.47465e+07
2.26066e+07
-2.13443e+07
4.16017e+07
-2.68937e+07
4.6337e+07
5.03246e+07
-4.94463e+06
4.39332e+07
3.54828e+07
4.9197e+07
9.04626e+07
5.10967e+07
4.57958e+07
1.49874e+08
7.85387e+07
-2.54895e+07
5.1936e+07
7.09242e+07
8.7224e+07
5.06099e+07
6.22497e+07
4.68463e+07
3.75384e+07
3.82183e+07
6.62113e+07
6.70927e+07
8.02262e+07
-2.44289e+07
7.5524e+07
5.06712e+07
6.13859e+07
541497
6.11189e+07
5.8383e+07
5.05947e+07
5.58505e+07
6.70609e+07
4.68561e+07
4.4539e+07
8.39416e+07
-4.5384e+06
4.70587e+07
3.87851e+07
4.19638e+07
7.60223e+07
5.65751e+07
-3.61569e+07
-2.65029e+07
-3.48868e+07
5.10969e+07
1.21745e+08
-2.57078e+07
4.23809e+07
8.55602e+07
6.03346e+07
5.5708e+07
5.22864e+07
1.11487e+08
8.22112e+07
8.40276e+07
6.86041e+07
4.77705e+07
5.57114e+07
5.0616e+07
5.25556e+07
8.53189e+07
5.12539e+07
4.73475e+07
5.9782e+07
4.72653e+07
8.43437e+07
5.9604e+07
8.17755e+07
1.39453e+08
5.42084e+07
2.43598e+06
6.53953e+07
8.8994e+07
6.1793e+07
5.25141e+07
6.27337e+07
6.29678e+07
4.65133e+07
4.65333e+07
4.61563e+07
5.80347e+07
6.03457e+07
5.35158e+07
5.50519e+07
2.67395e+06
8.23163e+07
8.6486e+06
4.17102e+07
1.32512e+07
5.71696e+07
5.46493e+07
5.52278e+07
1.38716e+08
9.64394e+07
2.92315e+07
6.83747e+07
6.75599e+07
7.48654e+07
4.39942e+07
5.76483e+07
6.0682e+07
-3.75413e+07
-4.4751e+07
5.79078e+07
4.78938e+07
5.17108e+07
5.25824e+07
3.81473e+07
8.30916e+07
5.40395e+07
3.5819e+07
7.03733e+07
4.08814e+07
2.9682e+07
5.11888e+07
2.56932e+06
5.20292e+07
5.77646e+07
7.54929e+07
7.24729e+07
5.22205e+07
5.24885e+07
1.5732e+07
5.56649e+07
7.52568e+07
2.10637e+07
2.17921e+07
5.29319e+07
3.7907e+07
1.79331e+07
7.25702e+07
6.89662e+07
6.92725e+07
4.77523e+07
4.69379e+07
5.37321e+07
5.95173e+07
)
;

boundaryField
{
    back
    {
        type            empty;
    }
    front
    {
        type            empty;
    }
    down
    {
        type            symmetry;
    }
    right
    {
        type            zeroGradient;
    }
    up
    {
        type            zeroGradient;
    }
    left
    {
        type            symmetry;
    }
    hole
    {
        type            zeroGradient;
    }
}


// ************************************************************************* //
