/*--------------------------------*- C++ -*----------------------------------*\
| =========                 |                                                 |
| \\      /  F ield         | OpenFOAM: The Open Source CFD Toolbox           |
|  \\    /   O peration     | Version:  v2012                                 |
|   \\  /    A nd           | Website:  www.openfoam.com                      |
|    \\/     M anipulation  |                                                 |
\*---------------------------------------------------------------------------*/
FoamFile
{
    version     2.0;
    format      ascii;
    class       volScalarField;
    location    "8";
    object      sigmaEq;
}
// * * * * * * * * * * * * * * * * * * * * * * * * * * * * * * * * * * * * * //

dimensions      [1 -1 -2 0 0 0 0];


internalField   nonuniform List<scalar> 
2000
(
2.43e+08
2.43e+08
2.43e+08
2.43e+08
2.43e+08
2.43e+08
2.43e+08
2.43e+08
2.43e+08
2.43e+08
2.33839e+08
2.26713e+08
2.01752e+08
2.05712e+08
1.797e+08
1.88976e+08
1.64695e+08
1.75331e+08
1.53132e+08
1.62603e+08
2.43e+08
2.43e+08
2.43e+08
2.43e+08
2.43e+08
2.43e+08
2.43e+08
2.43e+08
2.43e+08
2.38189e+08
2.24484e+08
2.21129e+08
2.04207e+08
2.07567e+08
1.8772e+08
1.96335e+08
1.74384e+08
1.86162e+08
1.62791e+08
1.75313e+08
2.43e+08
2.43e+08
2.43e+08
2.43e+08
2.43e+08
2.43e+08
2.43e+08
2.36626e+08
2.31654e+08
2.25142e+08
2.18079e+08
2.16446e+08
2.06014e+08
2.08924e+08
1.95349e+08
2.01928e+08
1.85689e+08
1.94998e+08
1.76632e+08
1.86903e+08
2.43e+08
2.43e+08
2.43e+08
2.43e+08
2.408e+08
2.30039e+08
2.2775e+08
2.20826e+08
2.18507e+08
2.14606e+08
2.11072e+08
2.10103e+08
2.04536e+08
2.06357e+08
1.98381e+08
2.02672e+08
1.9233e+08
1.98575e+08
1.86229e+08
1.93115e+08
2.43e+08
2.43e+08
2.3397e+08
2.23454e+08
2.19626e+08
2.11733e+08
2.10252e+08
2.05057e+08
2.05032e+08
2.02216e+08
2.01906e+08
2.01212e+08
1.99391e+08
2.00638e+08
1.96804e+08
1.99712e+08
1.93871e+08
1.98003e+08
1.90511e+08
1.94782e+08
2.33426e+08
2.19305e+08
2.10796e+08
2.01646e+08
1.97207e+08
1.91611e+08
1.9167e+08
1.88607e+08
1.90807e+08
1.89479e+08
1.91578e+08
1.91637e+08
1.92422e+08
1.93669e+08
1.92733e+08
1.94918e+08
1.92328e+08
1.95082e+08
1.91197e+08
1.93641e+08
2.10049e+08
1.89177e+08
1.86563e+08
1.75527e+08
1.76029e+08
1.71081e+08
1.74932e+08
1.72998e+08
1.7799e+08
1.77522e+08
1.81906e+08
1.82339e+08
1.85305e+08
1.86394e+08
1.87756e+08
1.89279e+08
1.89209e+08
1.90835e+08
1.89732e+08
1.90686e+08
1.75192e+08
1.55298e+08
1.58389e+08
1.48251e+08
1.54824e+08
1.50605e+08
1.5939e+08
1.57642e+08
1.66306e+08
1.65554e+08
1.72828e+08
1.72578e+08
1.78095e+08
1.78128e+08
1.82031e+08
1.8214e+08
1.84838e+08
1.84733e+08
1.86699e+08
1.85724e+08
1.36671e+08
1.19584e+08
1.28565e+08
1.21234e+08
1.33482e+08
1.30713e+08
1.43918e+08
1.42253e+08
1.54401e+08
1.52877e+08
1.63173e+08
1.61636e+08
1.6995e+08
1.68326e+08
1.74892e+08
1.72924e+08
1.7847e+08
1.7545e+08
1.81666e+08
1.75754e+08
9.69981e+07
8.45538e+07
9.9073e+07
9.63015e+07
1.12882e+08
1.12477e+08
1.28379e+08
1.27439e+08
1.41384e+08
1.39717e+08
1.51456e+08
1.49436e+08
1.59145e+08
1.57271e+08
1.65276e+08
1.64136e+08
1.70946e+08
1.70813e+08
1.77225e+08
1.77125e+08
5.81113e+07
5.33126e+07
7.2229e+07
7.58779e+07
9.45077e+07
9.70654e+07
1.13836e+08
1.14089e+08
1.28479e+08
1.27221e+08
1.39079e+08
1.37217e+08
1.46454e+08
1.45176e+08
1.51427e+08
1.52883e+08
1.54898e+08
1.6214e+08
1.57047e+08
1.66392e+08
2.18371e+07
3.39448e+07
5.17917e+07
6.30959e+07
7.9846e+07
8.52179e+07
1.00752e+08
1.01967e+08
1.15915e+08
1.14796e+08
1.2694e+08
1.24837e+08
1.34952e+08
1.3308e+08
1.40645e+08
1.40064e+08
1.44259e+08
1.44797e+08
1.45336e+08
1.48916e+08
1.53609e+07
4.02559e+07
4.38356e+07
6.03809e+07
7.0294e+07
7.7739e+07
8.96639e+07
9.16303e+07
1.03726e+08
1.02676e+08
1.13951e+08
1.11554e+08
1.21289e+08
1.18873e+08
1.2633e+08
1.24844e+08
1.29378e+08
1.29234e+08
1.30574e+08
1.33697e+08
4.50304e+07
6.03693e+07
5.02277e+07
6.61609e+07
6.61909e+07
7.46623e+07
8.0558e+07
8.3408e+07
9.18578e+07
9.13719e+07
1.00417e+08
9.8303e+07
1.06729e+08
1.04296e+08
1.11199e+08
1.09501e+08
1.14075e+08
1.1392e+08
1.15259e+08
1.17967e+08
7.16028e+07
8.10629e+07
6.35857e+07
7.6006e+07
6.69336e+07
7.51914e+07
7.39229e+07
7.75687e+07
8.11004e+07
8.14529e+07
8.72677e+07
8.5781e+07
9.21986e+07
9.01641e+07
9.59703e+07
9.45205e+07
9.85611e+07
9.85622e+07
9.94898e+07
1.0137e+08
9.38551e+07
9.90331e+07
7.77007e+07
8.64366e+07
7.07656e+07
7.7888e+07
6.98534e+07
7.39552e+07
7.20271e+07
7.32753e+07
7.51723e+07
7.45008e+07
7.83239e+07
7.69015e+07
8.11225e+07
8.0086e+07
8.31897e+07
8.33654e+07
8.36321e+07
8.44499e+07
1.11659e+08
1.13538e+08
9.00004e+07
9.55396e+07
7.56846e+07
8.11935e+07
6.79266e+07
7.19885e+07
6.49844e+07
6.69914e+07
6.4685e+07
6.49464e+07
6.56609e+07
6.50544e+07
6.71909e+07
6.67029e+07
6.85022e+07
6.88184e+07
6.82262e+07
6.77419e+07
1.25138e+08
1.2465e+08
9.94857e+07
1.02352e+08
8.02039e+07
8.40054e+07
6.74873e+07
7.11974e+07
6.01532e+07
6.28391e+07
5.63408e+07
5.78321e+07
5.4829e+07
5.5583e+07
5.48192e+07
5.54181e+07
5.51608e+07
5.5894e+07
5.39145e+07
5.20887e+07
1.34496e+08
1.31653e+08
1.05855e+08
1.07309e+08
8.36586e+07
8.69458e+07
6.7981e+07
7.19623e+07
5.75064e+07
6.10945e+07
5.06799e+07
5.35156e+07
4.66623e+07
4.8931e+07
4.48188e+07
4.67859e+07
4.37972e+07
4.54676e+07
4.12771e+07
3.9453e+07
1.39126e+08
1.34474e+08
1.09672e+08
1.09939e+08
8.59912e+07
8.83715e+07
6.87669e+07
7.17026e+07
5.64879e+07
5.92112e+07
4.78082e+07
5.02608e+07
4.21133e+07
4.43899e+07
3.88314e+07
4.06099e+07
3.61919e+07
3.66759e+07
3.11705e+07
2.86766e+07
1.34817e+07
2.14305e+07
2.68305e+07
3.39932e+07
4.31333e+07
4.96041e+07
6.11648e+07
6.66727e+07
7.96258e+07
8.40936e+07
9.78561e+07
1.01158e+08
1.15474e+08
1.17592e+08
1.31991e+08
1.32824e+08
1.4645e+08
1.44756e+08
1.56925e+08
1.59964e+08
1.43977e+07
2.33157e+07
2.52221e+07
3.60211e+07
4.0968e+07
5.11041e+07
5.76635e+07
6.68332e+07
7.45241e+07
8.25449e+07
9.10843e+07
9.7749e+07
1.07043e+08
1.12024e+08
1.22165e+08
1.25146e+08
1.36181e+08
1.37567e+08
1.48229e+08
1.49036e+08
2.12092e+07
2.86733e+07
2.93242e+07
3.96768e+07
4.26625e+07
5.30535e+07
5.71162e+07
6.69755e+07
7.16863e+07
8.08052e+07
8.60307e+07
9.41903e+07
9.98239e+07
1.0702e+08
1.12733e+08
1.19637e+08
1.24718e+08
1.31668e+08
1.35935e+08
1.40987e+08
2.71846e+07
3.36056e+07
3.35222e+07
4.28305e+07
4.46351e+07
5.44262e+07
5.70802e+07
6.67113e+07
6.97746e+07
7.90505e+07
8.23153e+07
9.12259e+07
9.45317e+07
1.03266e+08
1.06513e+08
1.15059e+08
1.18361e+08
1.25802e+08
1.29454e+08
1.34153e+08
3.14946e+07
3.73114e+07
3.66197e+07
4.51184e+07
4.61607e+07
5.52418e+07
5.70827e+07
6.62218e+07
6.84373e+07
7.7471e+07
7.98743e+07
8.87648e+07
9.13365e+07
9.99395e+07
1.02806e+08
1.10595e+08
1.13835e+08
1.20122e+08
1.23434e+08
1.27734e+08
3.51504e+07
4.04928e+07
3.93172e+07
4.71342e+07
4.76784e+07
5.60336e+07
5.74717e+07
6.5927e+07
6.78591e+07
7.6239e+07
7.85204e+07
8.66504e+07
8.92783e+07
9.6852e+07
9.983e+07
1.06446e+08
1.0961e+08
1.14996e+08
1.18014e+08
1.2206e+08
3.88955e+07
4.37233e+07
4.22514e+07
4.93298e+07
4.95607e+07
5.71213e+07
5.83803e+07
6.6002e+07
6.79036e+07
7.53846e+07
7.77402e+07
8.48807e+07
8.75824e+07
9.41406e+07
9.70685e+07
1.02808e+08
1.05789e+08
1.10544e+08
1.13364e+08
1.17129e+08
4.28831e+07
4.71642e+07
4.55508e+07
5.18293e+07
5.18462e+07
5.85701e+07
5.96899e+07
6.64523e+07
6.83029e+07
7.48933e+07
7.72329e+07
8.34769e+07
8.61319e+07
9.18519e+07
9.46758e+07
9.9695e+07
1.02542e+08
1.06723e+08
1.09433e+08
1.12822e+08
4.69989e+07
5.07553e+07
4.90845e+07
5.45786e+07
5.44155e+07
6.03286e+07
6.12685e+07
6.7231e+07
6.89361e+07
7.47351e+07
7.69533e+07
8.24218e+07
8.49648e+07
8.99471e+07
9.26677e+07
9.70238e+07
9.97888e+07
1.0342e+08
1.06098e+08
1.09043e+08
5.10914e+07
5.43764e+07
5.26828e+07
5.74665e+07
5.71312e+07
6.23061e+07
6.30272e+07
6.82718e+07
6.97623e+07
7.48653e+07
7.68924e+07
8.1685e+07
8.40653e+07
8.84016e+07
9.09853e+07
9.47543e+07
9.74051e+07
1.00559e+08
1.03143e+08
1.05772e+08
5.50348e+07
5.79079e+07
5.62036e+07
6.03726e+07
5.98695e+07
6.43983e+07
6.48812e+07
6.94948e+07
7.07292e+07
7.52248e+07
7.70039e+07
8.12179e+07
8.3371e+07
8.71704e+07
8.95582e+07
9.28426e+07
9.53469e+07
9.80576e+07
1.00574e+08
1.02792e+08
5.87247e+07
6.12382e+07
5.95271e+07
6.31766e+07
6.25116e+07
6.64917e+07
6.67295e+07
7.08043e+07
7.17596e+07
7.57361e+07
7.72327e+07
8.09523e+07
8.28365e+07
8.61742e+07
8.83165e+07
9.11844e+07
9.34739e+07
9.5832e+07
9.81661e+07
1.0011e+08
6.20636e+07
6.42593e+07
6.25415e+07
6.57583e+07
6.49397e+07
6.84659e+07
6.84615e+07
7.20885e+07
7.27559e+07
7.62974e+07
7.74934e+07
8.07952e+07
8.23918e+07
8.53348e+07
8.72197e+07
8.97174e+07
9.17888e+07
9.3795e+07
9.59643e+07
9.75837e+07
6.49528e+07
6.68592e+07
6.51354e+07
6.79953e+07
6.70362e+07
7.01948e+07
6.99619e+07
7.32258e+07
7.361e+07
7.67959e+07
7.76826e+07
8.06402e+07
8.1925e+07
8.45477e+07
8.61355e+07
8.83615e+07
9.01642e+07
9.19634e+07
9.3905e+07
9.5288e+07
6.72862e+07
6.89164e+07
6.71941e+07
6.97589e+07
6.86858e+07
7.1547e+07
7.11148e+07
7.40871e+07
7.4204e+07
7.71116e+07
7.76866e+07
8.03847e+07
8.13434e+07
8.37231e+07
8.49987e+07
8.69884e+07
8.85133e+07
9.00778e+07
9.17855e+07
9.29691e+07
6.89392e+07
7.02842e+07
6.85969e+07
7.09016e+07
6.9777e+07
7.23795e+07
7.18098e+07
7.45337e+07
7.44259e+07
7.71063e+07
7.73907e+07
7.98913e+07
8.05287e+07
8.27363e+07
8.3698e+07
8.55192e+07
8.67627e+07
8.81474e+07
8.95909e+07
9.06122e+07
6.97465e+07
7.07559e+07
6.92086e+07
7.12232e+07
7.01849e+07
7.25085e+07
7.19112e+07
7.43773e+07
7.4136e+07
7.65785e+07
7.66662e+07
7.89561e+07
7.9366e+07
8.14094e+07
8.2124e+07
8.3836e+07
8.4828e+07
8.61102e+07
8.73504e+07
8.81731e+07
6.94852e+07
7.00217e+07
6.88662e+07
7.04637e+07
6.97317e+07
7.16575e+07
7.12206e+07
7.33075e+07
7.314e+07
7.52251e+07
7.53501e+07
7.73201e+07
7.77477e+07
7.95305e+07
8.02309e+07
8.17922e+07
8.27004e+07
8.39898e+07
8.50641e+07
8.58859e+07
6.80086e+07
6.78245e+07
6.74895e+07
6.85054e+07
6.83085e+07
6.9623e+07
6.96476e+07
7.11307e+07
7.13819e+07
7.29433e+07
7.34285e+07
7.49998e+07
7.57209e+07
7.72207e+07
7.81754e+07
7.95202e+07
8.06495e+07
8.18071e+07
8.29358e+07
8.39231e+07
6.5899e+07
6.5584e+07
6.58564e+07
6.60218e+07
6.66729e+07
6.70586e+07
6.79486e+07
6.85445e+07
6.9614e+07
7.04468e+07
7.16122e+07
7.26779e+07
7.38861e+07
7.51348e+07
7.63899e+07
7.7705e+07
7.90653e+07
8.02368e+07
8.1718e+07
8.23695e+07
1.63377e+08
1.60846e+08
1.64055e+08
1.62703e+08
1.64271e+08
1.63429e+08
1.64276e+08
1.63639e+08
1.6457e+08
1.6373e+08
1.6514e+08
1.63807e+08
1.65813e+08
1.63868e+08
1.66436e+08
1.63892e+08
1.66918e+08
1.63869e+08
1.67227e+08
1.63812e+08
1.67381e+08
1.63756e+08
1.67438e+08
1.63763e+08
1.67481e+08
1.63915e+08
1.67619e+08
1.64313e+08
1.67978e+08
1.65071e+08
1.687e+08
1.66322e+08
1.6996e+08
1.68251e+08
1.72024e+08
1.71142e+08
1.75146e+08
1.75115e+08
1.7879e+08
1.80342e+08
1.57863e+08
1.52293e+08
1.5887e+08
1.53266e+08
1.59157e+08
1.54081e+08
1.59252e+08
1.54978e+08
1.59433e+08
1.55899e+08
1.59738e+08
1.56752e+08
1.60134e+08
1.57495e+08
1.60587e+08
1.58138e+08
1.61079e+08
1.58717e+08
1.6161e+08
1.59283e+08
1.62202e+08
1.599e+08
1.629e+08
1.60639e+08
1.63767e+08
1.61579e+08
1.64879e+08
1.62804e+08
1.66318e+08
1.64396e+08
1.68159e+08
1.66441e+08
1.705e+08
1.69057e+08
1.735e+08
1.72424e+08
1.77302e+08
1.76564e+08
1.81278e+08
1.81777e+08
1.44393e+08
1.44171e+08
1.46341e+08
1.45583e+08
1.48161e+08
1.468e+08
1.49849e+08
1.47966e+08
1.51371e+08
1.49107e+08
1.52721e+08
1.50225e+08
1.5393e+08
1.51326e+08
1.55053e+08
1.52421e+08
1.56146e+08
1.53531e+08
1.57261e+08
1.54677e+08
1.58446e+08
1.55891e+08
1.59745e+08
1.57231e+08
1.61225e+08
1.58764e+08
1.62946e+08
1.60552e+08
1.64956e+08
1.62651e+08
1.67296e+08
1.6511e+08
1.70013e+08
1.67998e+08
1.73214e+08
1.71443e+08
1.7699e+08
1.75439e+08
1.80776e+08
1.80424e+08
1.36727e+08
1.36802e+08
1.38184e+08
1.38181e+08
1.39784e+08
1.39585e+08
1.41559e+08
1.41055e+08
1.43406e+08
1.42549e+08
1.45229e+08
1.44024e+08
1.46996e+08
1.45481e+08
1.48713e+08
1.46938e+08
1.50404e+08
1.48415e+08
1.52091e+08
1.49911e+08
1.53807e+08
1.51544e+08
1.55611e+08
1.53282e+08
1.57555e+08
1.55178e+08
1.59687e+08
1.57276e+08
1.62045e+08
1.59611e+08
1.64658e+08
1.62212e+08
1.67556e+08
1.65121e+08
1.7082e+08
1.68434e+08
1.74516e+08
1.72123e+08
1.78103e+08
1.76668e+08
1.29955e+08
1.30194e+08
1.31428e+08
1.31656e+08
1.33015e+08
1.3319e+08
1.34812e+08
1.34764e+08
1.36724e+08
1.36412e+08
1.38687e+08
1.38095e+08
1.4066e+08
1.39833e+08
1.42652e+08
1.41677e+08
1.44702e+08
1.43681e+08
1.46824e+08
1.45393e+08
1.48771e+08
1.47066e+08
1.50852e+08
1.48914e+08
1.53063e+08
1.50935e+08
1.5542e+08
1.5314e+08
1.57955e+08
1.55532e+08
1.6066e+08
1.58108e+08
1.63556e+08
1.6089e+08
1.66698e+08
1.63928e+08
1.70116e+08
1.67171e+08
1.73312e+08
1.71094e+08
1.23957e+08
1.24507e+08
1.25474e+08
1.26001e+08
1.27061e+08
1.27663e+08
1.28935e+08
1.29397e+08
1.30874e+08
1.3115e+08
1.32922e+08
1.32899e+08
1.35048e+08
1.34596e+08
1.37235e+08
1.36187e+08
1.39461e+08
1.37622e+08
1.4165e+08
1.40088e+08
1.43753e+08
1.42227e+08
1.45916e+08
1.44315e+08
1.48188e+08
1.46422e+08
1.50512e+08
1.48529e+08
1.52962e+08
1.5081e+08
1.5559e+08
1.53209e+08
1.58343e+08
1.5573e+08
1.61253e+08
1.58389e+08
1.64267e+08
1.611e+08
1.66977e+08
1.64302e+08
1.18915e+08
1.19651e+08
1.20529e+08
1.21149e+08
1.2203e+08
1.22672e+08
1.23914e+08
1.24452e+08
1.25923e+08
1.26305e+08
1.27985e+08
1.28204e+08
1.30064e+08
1.3018e+08
1.32131e+08
1.31908e+08
1.34167e+08
1.33829e+08
1.36494e+08
1.35724e+08
1.38746e+08
1.37612e+08
1.40923e+08
1.3952e+08
1.43088e+08
1.41487e+08
1.45379e+08
1.43522e+08
1.47667e+08
1.45623e+08
1.50052e+08
1.47856e+08
1.52522e+08
1.49845e+08
1.55024e+08
1.52236e+08
1.57545e+08
1.54232e+08
1.59665e+08
1.56836e+08
1.14568e+08
1.15338e+08
1.16156e+08
1.16877e+08
1.17725e+08
1.18445e+08
1.1949e+08
1.20107e+08
1.21388e+08
1.21789e+08
1.23311e+08
1.23424e+08
1.25237e+08
1.25522e+08
1.27761e+08
1.27723e+08
1.29711e+08
1.29469e+08
1.31692e+08
1.31196e+08
1.33724e+08
1.32933e+08
1.35783e+08
1.34668e+08
1.37851e+08
1.36375e+08
1.39889e+08
1.38016e+08
1.41864e+08
1.39591e+08
1.43802e+08
1.41697e+08
1.46445e+08
1.43775e+08
1.48298e+08
1.45623e+08
1.50637e+08
1.47383e+08
1.52136e+08
1.48984e+08
1.10863e+08
1.11527e+08
1.12438e+08
1.12995e+08
1.13934e+08
1.14521e+08
1.1559e+08
1.16272e+08
1.17385e+08
1.17986e+08
1.19251e+08
1.19698e+08
1.21211e+08
1.2153e+08
1.23276e+08
1.23271e+08
1.25223e+08
1.24915e+08
1.27099e+08
1.26544e+08
1.28964e+08
1.28173e+08
1.30819e+08
1.29789e+08
1.32642e+08
1.31377e+08
1.34421e+08
1.3293e+08
1.3618e+08
1.34458e+08
1.37977e+08
1.35949e+08
1.398e+08
1.37405e+08
1.41465e+08
1.3873e+08
1.43031e+08
1.39928e+08
1.44235e+08
1.41264e+08
1.07532e+08
1.0821e+08
1.09065e+08
1.09548e+08
1.10485e+08
1.10826e+08
1.12372e+08
1.12781e+08
1.14268e+08
1.14232e+08
1.15772e+08
1.1569e+08
1.17711e+08
1.17703e+08
1.19638e+08
1.19252e+08
1.2116e+08
1.20752e+08
1.2274e+08
1.22233e+08
1.24349e+08
1.23673e+08
1.25948e+08
1.25058e+08
1.27516e+08
1.26386e+08
1.29052e+08
1.27669e+08
1.30564e+08
1.28922e+08
1.32045e+08
1.30104e+08
1.3343e+08
1.31169e+08
1.34679e+08
1.32084e+08
1.35734e+08
1.32787e+08
1.36472e+08
1.33614e+08
1.04561e+08
1.05121e+08
1.06006e+08
1.06477e+08
1.07341e+08
1.07851e+08
1.08746e+08
1.09338e+08
1.10423e+08
1.10816e+08
1.12025e+08
1.1229e+08
1.13603e+08
1.13817e+08
1.15341e+08
1.15264e+08
1.16949e+08
1.16635e+08
1.18458e+08
1.17937e+08
1.19893e+08
1.19174e+08
1.21265e+08
1.20348e+08
1.22582e+08
1.21461e+08
1.23845e+08
1.22508e+08
1.25047e+08
1.23478e+08
1.26166e+08
1.24345e+08
1.27174e+08
1.25076e+08
1.28033e+08
1.25634e+08
1.28692e+08
1.25965e+08
1.29081e+08
1.26344e+08
1.01791e+08
1.02305e+08
1.03192e+08
1.03579e+08
1.04501e+08
1.04866e+08
1.05862e+08
1.06186e+08
1.07272e+08
1.07532e+08
1.08723e+08
1.08922e+08
1.10175e+08
1.10319e+08
1.11608e+08
1.11491e+08
1.12978e+08
1.12717e+08
1.14293e+08
1.13852e+08
1.15536e+08
1.14905e+08
1.16703e+08
1.15883e+08
1.178e+08
1.16786e+08
1.18821e+08
1.17604e+08
1.19752e+08
1.1832e+08
1.20574e+08
1.18912e+08
1.21261e+08
1.19352e+08
1.21779e+08
1.19598e+08
1.22075e+08
1.19603e+08
1.22129e+08
1.19595e+08
9.92026e+07
9.96674e+07
1.00532e+08
1.00949e+08
1.01764e+08
1.02106e+08
1.02971e+08
1.03199e+08
1.0422e+08
1.04289e+08
1.0547e+08
1.05359e+08
1.06711e+08
1.06683e+08
1.08228e+08
1.08028e+08
1.09345e+08
1.09087e+08
1.10415e+08
1.10007e+08
1.11437e+08
1.10855e+08
1.12398e+08
1.11647e+08
1.13287e+08
1.12366e+08
1.14087e+08
1.12991e+08
1.14781e+08
1.13498e+08
1.15349e+08
1.13867e+08
1.15769e+08
1.14067e+08
1.16002e+08
1.14053e+08
1.15995e+08
1.13779e+08
1.15766e+08
1.13433e+08
9.67749e+07
9.70464e+07
9.79816e+07
9.8089e+07
9.90983e+07
9.9152e+07
1.00167e+08
1.00267e+08
1.01269e+08
1.01371e+08
1.02403e+08
1.0245e+08
1.03576e+08
1.03463e+08
1.04775e+08
1.04396e+08
1.05864e+08
1.0538e+08
1.06836e+08
1.06227e+08
1.07612e+08
1.06997e+08
1.08358e+08
1.07681e+08
1.09049e+08
1.08264e+08
1.09655e+08
1.0873e+08
1.10155e+08
1.09068e+08
1.10525e+08
1.09257e+08
1.10739e+08
1.09271e+08
1.10755e+08
1.09055e+08
1.10513e+08
1.08564e+08
1.10059e+08
1.07928e+08
9.42522e+07
9.4567e+07
9.53051e+07
9.5546e+07
9.63507e+07
9.65012e+07
9.73865e+07
9.74553e+07
9.84087e+07
9.84126e+07
9.94134e+07
9.93734e+07
1.00387e+08
1.00293e+08
1.01277e+08
1.0113e+08
1.02162e+08
1.01972e+08
1.03068e+08
1.02716e+08
1.03849e+08
1.03365e+08
1.04527e+08
1.03928e+08
1.05104e+08
1.044e+08
1.0558e+08
1.04771e+08
1.05943e+08
1.05019e+08
1.06173e+08
1.05119e+08
1.06245e+08
1.05036e+08
1.0611e+08
1.04707e+08
1.05701e+08
1.04081e+08
1.05088e+08
1.03228e+08
9.17403e+07
9.20154e+07
9.27394e+07
9.29249e+07
9.36969e+07
9.38188e+07
9.46525e+07
9.46862e+07
9.55856e+07
9.55385e+07
9.65068e+07
9.64192e+07
9.73961e+07
9.72339e+07
9.82393e+07
9.79833e+07
9.90032e+07
9.86997e+07
9.97194e+07
9.93916e+07
1.00385e+08
9.99685e+07
1.00976e+08
1.0048e+08
1.01486e+08
1.00923e+08
1.01901e+08
1.01272e+08
1.02202e+08
1.01501e+08
1.02368e+08
1.01582e+08
1.02373e+08
1.01474e+08
1.02166e+08
1.01107e+08
1.01673e+08
1.00425e+08
1.00979e+08
9.94408e+07
8.92061e+07
8.94245e+07
9.01782e+07
9.03944e+07
9.11191e+07
9.12508e+07
9.20075e+07
9.20181e+07
9.28443e+07
9.27442e+07
9.3846e+07
9.37284e+07
9.47865e+07
9.4408e+07
9.54993e+07
9.5061e+07
9.62384e+07
9.56896e+07
9.68904e+07
9.63107e+07
9.74856e+07
9.69259e+07
9.7974e+07
9.7476e+07
9.84179e+07
9.79421e+07
9.87889e+07
9.83058e+07
9.90603e+07
9.85531e+07
9.92104e+07
9.86705e+07
9.9213e+07
9.86275e+07
9.90041e+07
9.82987e+07
9.85119e+07
9.766e+07
9.78379e+07
9.6659e+07
8.68175e+07
8.6931e+07
8.79771e+07
8.80566e+07
8.90984e+07
8.89346e+07
8.98983e+07
8.98159e+07
9.06833e+07
9.05738e+07
9.14049e+07
9.12928e+07
9.21842e+07
9.19636e+07
9.28796e+07
9.26104e+07
9.3511e+07
9.32411e+07
9.41998e+07
9.39139e+07
9.48834e+07
9.45197e+07
9.54657e+07
9.50647e+07
9.5955e+07
9.55453e+07
9.63489e+07
9.59447e+07
9.66392e+07
9.62414e+07
9.68186e+07
9.64171e+07
9.69159e+07
9.65436e+07
9.68158e+07
9.63553e+07
9.63692e+07
9.58891e+07
9.58053e+07
9.51935e+07
8.47108e+07
8.53016e+07
8.58577e+07
8.66127e+07
8.70437e+07
8.74015e+07
8.82003e+07
8.83629e+07
8.92556e+07
8.90762e+07
8.99514e+07
8.98164e+07
9.06734e+07
9.05279e+07
9.14189e+07
9.12765e+07
9.2131e+07
9.20241e+07
9.27976e+07
9.26747e+07
9.34225e+07
9.3262e+07
9.39911e+07
9.37953e+07
9.44866e+07
9.42675e+07
9.4892e+07
9.46711e+07
9.51924e+07
9.50014e+07
9.53791e+07
9.52532e+07
9.54413e+07
9.54594e+07
9.54452e+07
9.55349e+07
9.52758e+07
9.52488e+07
9.47459e+07
9.47844e+07
8.34789e+07
8.34801e+07
8.4878e+07
8.5513e+07
8.64079e+07
8.65165e+07
8.7168e+07
8.75574e+07
8.83098e+07
8.90022e+07
8.92857e+07
8.9756e+07
8.99739e+07
9.0525e+07
9.0962e+07
9.17476e+07
9.18699e+07
9.23536e+07
9.2529e+07
9.29871e+07
9.31445e+07
9.35878e+07
9.3694e+07
9.41146e+07
9.41581e+07
9.45502e+07
9.45301e+07
9.48888e+07
9.48118e+07
9.51307e+07
9.5011e+07
9.52801e+07
9.51206e+07
9.5336e+07
9.51189e+07
9.53011e+07
9.49722e+07
9.51915e+07
9.47897e+07
9.50462e+07
1.47009e+08
1.52011e+08
1.44032e+08
1.48683e+08
1.41616e+08
1.45746e+08
1.39174e+08
1.42823e+08
1.36559e+08
1.39822e+08
1.33766e+08
1.36721e+08
1.30794e+08
1.33492e+08
1.27628e+08
1.30102e+08
1.24245e+08
1.26517e+08
1.20624e+08
1.22705e+08
1.1674e+08
1.18634e+08
1.12572e+08
1.14276e+08
1.08099e+08
1.09605e+08
1.03311e+08
1.04604e+08
9.82132e+07
9.92804e+07
9.2855e+07
9.36881e+07
8.73716e+07
8.79684e+07
8.19937e+07
8.23164e+07
7.68516e+07
7.68482e+07
7.21367e+07
6.8246e+07
1.57348e+08
1.6449e+08
1.52969e+08
1.61427e+08
1.49437e+08
1.58354e+08
1.4603e+08
1.55096e+08
1.42602e+08
1.51658e+08
1.39119e+08
1.48074e+08
1.35556e+08
1.44353e+08
1.3188e+08
1.40487e+08
1.28058e+08
1.36456e+08
1.24058e+08
1.32239e+08
1.19848e+08
1.27808e+08
1.15405e+08
1.23141e+08
1.10712e+08
1.18213e+08
1.05763e+08
1.13014e+08
1.0058e+08
1.07556e+08
9.52251e+07
1.01895e+08
8.98157e+07
9.61339e+07
8.44271e+07
9.0301e+07
7.88446e+07
8.43299e+07
7.32789e+07
7.58934e+07
1.72489e+08
1.7778e+08
1.67872e+08
1.74929e+08
1.63955e+08
1.71983e+08
1.60127e+08
1.6878e+08
1.56271e+08
1.65321e+08
1.52361e+08
1.6164e+08
1.48381e+08
1.57757e+08
1.44303e+08
1.53676e+08
1.40098e+08
1.49394e+08
1.35734e+08
1.44898e+08
1.31181e+08
1.40173e+08
1.26413e+08
1.35207e+08
1.21411e+08
1.29989e+08
1.16174e+08
1.24522e+08
1.10722e+08
1.18839e+08
1.05118e+08
1.13014e+08
9.94484e+07
1.07139e+08
9.37286e+07
1.01222e+08
8.78405e+07
9.53408e+07
8.24807e+07
8.80851e+07
1.83204e+08
1.86428e+08
1.7922e+08
1.84103e+08
1.75683e+08
1.81605e+08
1.72133e+08
1.78802e+08
1.68482e+08
1.75682e+08
1.64706e+08
1.7227e+08
1.60792e+08
1.68587e+08
1.56725e+08
1.64645e+08
1.52485e+08
1.6045e+08
1.48053e+08
1.56003e+08
1.43415e+08
1.51304e+08
1.3856e+08
1.46354e+08
1.33489e+08
1.41164e+08
1.28219e+08
1.35762e+08
1.22795e+08
1.30206e+08
1.173e+08
1.24594e+08
1.11843e+08
1.19048e+08
1.06506e+08
1.13675e+08
1.01395e+08
1.08754e+08
9.72072e+07
1.03331e+08
1.88632e+08
1.90396e+08
1.85682e+08
1.88742e+08
1.82917e+08
1.86861e+08
1.80038e+08
1.84652e+08
1.76984e+08
1.82096e+08
1.73737e+08
1.79205e+08
1.70287e+08
1.75998e+08
1.66628e+08
1.72489e+08
1.6275e+08
1.68693e+08
1.58649e+08
1.64622e+08
1.54321e+08
1.60291e+08
1.4977e+08
1.55718e+08
1.45012e+08
1.50933e+08
1.40081e+08
1.45986e+08
1.35038e+08
1.40954e+08
1.29983e+08
1.35961e+08
1.25048e+08
1.31163e+08
1.20386e+08
1.26765e+08
1.16229e+08
1.2316e+08
1.13148e+08
1.1973e+08
1.90316e+08
1.91145e+08
1.88453e+08
1.90151e+08
1.86553e+08
1.88886e+08
1.84458e+08
1.87283e+08
1.82139e+08
1.85323e+08
1.79585e+08
1.83013e+08
1.76793e+08
1.80371e+08
1.73757e+08
1.77415e+08
1.70473e+08
1.74167e+08
1.66939e+08
1.70649e+08
1.63158e+08
1.66884e+08
1.59147e+08
1.62905e+08
1.54936e+08
1.58758e+08
1.50579e+08
1.5451e+08
1.46158e+08
1.50259e+08
1.41792e+08
1.46148e+08
1.37637e+08
1.42367e+08
1.33899e+08
1.39192e+08
1.3089e+08
1.37063e+08
1.29028e+08
1.35655e+08
1.89599e+08
1.89652e+08
1.88792e+08
1.89145e+08
1.87717e+08
1.88376e+08
1.86374e+08
1.87286e+08
1.84792e+08
1.85852e+08
1.82955e+08
1.84076e+08
1.80838e+08
1.81978e+08
1.78427e+08
1.79582e+08
1.75722e+08
1.76915e+08
1.72737e+08
1.74006e+08
1.69505e+08
1.70887e+08
1.6607e+08
1.676e+08
1.6249e+08
1.64206e+08
1.58838e+08
1.60788e+08
1.55207e+08
1.57464e+08
1.51724e+08
1.54394e+08
1.48554e+08
1.51792e+08
1.45938e+08
1.49986e+08
1.4424e+08
1.49427e+08
1.43702e+08
1.49996e+08
1.87057e+08
1.86131e+08
1.87301e+08
1.86201e+08
1.8707e+08
1.85743e+08
1.86483e+08
1.84943e+08
1.85513e+08
1.83896e+08
1.84143e+08
1.82628e+08
1.82403e+08
1.81132e+08
1.80353e+08
1.79392e+08
1.78058e+08
1.77401e+08
1.75574e+08
1.75173e+08
1.72946e+08
1.72743e+08
1.70215e+08
1.7017e+08
1.67428e+08
1.67538e+08
1.64646e+08
1.64954e+08
1.61958e+08
1.62559e+08
1.59488e+08
1.60529e+08
1.57408e+08
1.59104e+08
1.55988e+08
1.58655e+08
1.55628e+08
1.59615e+08
1.56373e+08
1.62001e+08
1.8337e+08
1.78523e+08
1.85337e+08
1.79359e+08
1.85341e+08
1.80492e+08
1.84491e+08
1.81262e+08
1.83382e+08
1.8146e+08
1.8218e+08
1.81072e+08
1.80896e+08
1.80171e+08
1.79506e+08
1.78854e+08
1.77983e+08
1.77219e+08
1.76311e+08
1.75354e+08
1.74495e+08
1.7334e+08
1.72562e+08
1.71261e+08
1.70567e+08
1.6921e+08
1.68597e+08
1.67304e+08
1.66765e+08
1.65687e+08
1.65219e+08
1.64545e+08
1.64153e+08
1.64136e+08
1.6387e+08
1.64852e+08
1.64756e+08
1.67063e+08
1.66609e+08
1.70811e+08
1.80838e+08
1.80811e+08
1.79568e+08
1.8042e+08
1.79097e+08
1.78416e+08
1.7883e+08
1.76599e+08
1.78691e+08
1.7532e+08
1.78522e+08
1.74426e+08
1.7818e+08
1.73684e+08
1.77584e+08
1.72921e+08
1.76715e+08
1.72045e+08
1.75605e+08
1.7103e+08
1.74317e+08
1.69903e+08
1.72932e+08
1.68729e+08
1.71545e+08
1.67605e+08
1.70266e+08
1.66655e+08
1.69219e+08
1.66032e+08
1.68553e+08
1.65926e+08
1.68464e+08
1.66603e+08
1.69262e+08
1.68462e+08
1.71285e+08
1.71797e+08
1.74078e+08
1.76543e+08
)
;

boundaryField
{
    back
    {
        type            empty;
    }
    front
    {
        type            empty;
    }
    left
    {
        type            symmetry;
    }
    hole
    {
        type            calculated;
        value           nonuniform List<scalar> 
20
(
2.43e+08
2.43e+08
2.43e+08
2.43e+08
2.43e+08
2.35187e+08
2.12212e+08
1.78021e+08
1.39648e+08
9.98813e+07
6.05948e+07
2.31761e+07
1.1631e+07
4.29173e+07
7.01715e+07
9.29935e+07
1.11315e+08
1.25284e+08
1.34992e+08
1.39163e+08
)
;
    }
    down
    {
        type            symmetry;
    }
    right
    {
        type            calculated;
        value           nonuniform List<scalar> 
30
(
6.57456e+07
6.64521e+07
6.73838e+07
6.87628e+07
7.05689e+07
7.26994e+07
7.50511e+07
7.75282e+07
8.00818e+07
8.27652e+07
8.4327e+07
8.51048e+07
8.61768e+07
8.72809e+07
8.82027e+07
8.92608e+07
9.02158e+07
9.09253e+07
9.17112e+07
9.24247e+07
9.30358e+07
9.35545e+07
9.39874e+07
9.43352e+07
9.45984e+07
9.47805e+07
9.48996e+07
9.49983e+07
9.50764e+07
9.50831e+07
)
;
    }
    up
    {
        type            calculated;
        value           nonuniform List<scalar> 
30
(
1.8109e+08
1.82259e+08
1.80865e+08
1.77083e+08
1.71447e+08
1.64556e+08
1.56938e+08
1.49138e+08
1.41315e+08
1.33608e+08
1.26289e+08
1.19506e+08
1.13327e+08
1.0782e+08
1.03127e+08
9.93562e+07
9.66008e+07
9.52144e+07
9.47648e+07
9.50434e+07
6.94985e+07
7.46656e+07
8.72504e+07
1.02857e+08
1.19477e+08
1.35546e+08
1.49946e+08
1.61966e+08
1.70852e+08
1.76683e+08
)
;
    }
}


// ************************************************************************* //
