/*--------------------------------*- C++ -*----------------------------------*\
| =========                 |                                                 |
| \\      /  F ield         | OpenFOAM: The Open Source CFD Toolbox           |
|  \\    /   O peration     | Version:  v2012                                 |
|   \\  /    A nd           | Website:  www.openfoam.com                      |
|    \\/     M anipulation  |                                                 |
\*---------------------------------------------------------------------------*/
FoamFile
{
    version     2.0;
    format      ascii;
    class       pointVectorField;
    location    "16";
    object      pointD;
}
// * * * * * * * * * * * * * * * * * * * * * * * * * * * * * * * * * * * * * //

dimensions      [0 1 0 0 0 0 0];


internalField   nonuniform List<vector> 
2142
(
(0.00188855 0 0)
(0.00242595 0 0)
(0.00222643 -0.000153462 0)
(0 -0.00151809 0)
(0 -0.00038209 0)
(0.00193531 0 0)
(0 -0.00144559 0)
(0.00130492 -0.00034898 0)
(0.000573403 -0.000666764 0)
(0.00233319 -2.90391e-05 0)
(0.00154745 -0.000580707 0)
(0.00154745 -0.000580707 0)
(0.00130492 -0.00034898 0)
(0 -0.00144559 0)
(0 -0.00038209 0)
(0.00188855 0 0)
(0.00193531 0 0)
(0.00242595 0 0)
(0.00233319 -2.90391e-05 0)
(0.00222643 -0.000153462 0)
(0.000573403 -0.000666764 0)
(0 -0.00151809 0)
(0.000132767 -0.0013985 0)
(0.000269745 -0.00129594 0)
(0.000414548 -0.00115986 0)
(0.000561648 -0.00101309 0)
(0.000700893 -0.000874599 0)
(0.000829655 -0.000750312 0)
(0.000953019 -0.000636041 0)
(0.00107321 -0.000531506 0)
(0.00119045 -0.000436538 0)
(0.00140788 -0.000284066 0)
(0.00150652 -0.000226152 0)
(0.00159875 -0.00017598 0)
(0.00168278 -0.000133604 0)
(0.00175701 -9.86361e-05 0)
(0.00181997 -7.03459e-05 0)
(0.00187038 -4.77293e-05 0)
(0.00190711 -2.95413e-05 0)
(0.0019292 -1.42873e-05 0)
(0.00189925 0 0)
(0.00190744 0 0)
(0.00191373 0 0)
(0.00191863 0 0)
(0.00192251 0 0)
(0.00192567 0 0)
(0.00192835 0 0)
(0.00193075 0 0)
(0.00193302 0 0)
(0.00194367 0 0)
(0.0019519 0 0)
(0.00196141 0 0)
(0.00197286 0 0)
(0.00198657 0 0)
(0.00200269 0 0)
(0.00202123 0 0)
(0.00204216 0 0)
(0.0020654 0 0)
(0.00209085 0 0)
(0.00211837 0 0)
(0.0021478 0 0)
(0.00217897 0 0)
(0.00221169 0 0)
(0.00224573 0 0)
(0.00228084 0 0)
(0.00231675 0 0)
(0.00235314 0 0)
(0.00238966 0 0)
(0.00242402 9.54335e-07 0)
(0.00242047 1.50569e-06 0)
(0.00241494 1.53277e-06 0)
(0.00240746 8.1965e-07 0)
(0.00239818 -8.48154e-07 0)
(0.0023873 -3.66314e-06 0)
(0.00237508 -7.78719e-06 0)
(0.00236178 -1.33458e-05 0)
(0.00234773 -2.04222e-05 0)
(0.00232684 -3.33079e-05 0)
(0.00232046 -3.78694e-05 0)
(0.00231409 -4.27188e-05 0)
(0.00230776 -4.78481e-05 0)
(0.00230151 -5.32471e-05 0)
(0.00229537 -5.89033e-05 0)
(0.00228935 -6.48015e-05 0)
(0.00228348 -7.09246e-05 0)
(0.00227778 -7.72534e-05 0)
(0.00227225 -8.37664e-05 0)
(0.00226692 -9.04404e-05 0)
(0.00226179 -9.72507e-05 0)
(0.00225685 -0.000104171 0)
(0.00225211 -0.000111174 0)
(0.00224755 -0.000118231 0)
(0.00224315 -0.000125316 0)
(0.00223889 -0.000132402 0)
(0.00223471 -0.000139466 0)
(0.00223058 -0.000146489 0)
(0.00217557 -0.00016664 0)
(0.00212486 -0.000178566 0)
(0.00207358 -0.000188565 0)
(0.00202088 -0.000196488 0)
(0.001966 -0.000202548 0)
(0.00190826 -0.000207185 0)
(0.00184706 -0.000210993 0)
(0.00178185 -0.000214688 0)
(0.00171213 -0.00021909 0)
(0.00163742 -0.000225132 0)
(0.00155729 -0.000233862 0)
(0.00147136 -0.000246456 0)
(0.00137931 -0.000264222 0)
(0.00128094 -0.00028861 0)
(0.00117619 -0.000321198 0)
(0.00106519 -0.000363676 0)
(0.000948392 -0.00041781 0)
(0.000826727 -0.000485502 0)
(0.000700405 -0.000567853 0)
(0.000481338 -0.000748826 0)
(0.000391469 -0.000839799 0)
(0.000305592 -0.000938921 0)
(0.000226101 -0.00104467 0)
(0.000155917 -0.00115413 0)
(9.80346e-05 -0.00126215 0)
(5.45229e-05 -0.00136109 0)
(2.55015e-05 -0.00144194 0)
(8.69846e-06 -0.00149618 0)
(0 -0.0015161 0)
(0 -0.00151352 0)
(0 -0.0015105 0)
(0 -0.00150714 0)
(0 -0.00150354 0)
(0 -0.00149976 0)
(0 -0.00149587 0)
(0 -0.00149192 0)
(0 -0.00148796 0)
(0 -0.00148402 0)
(0 -0.00148011 0)
(0 -0.00147627 0)
(0 -0.0014725 0)
(0 -0.00146879 0)
(0 -0.00146515 0)
(0 -0.00146154 0)
(0 -0.00145793 0)
(0 -0.00145421 0)
(0 -0.00145033 0)
(0 -0.0014277 0)
(0 -0.00139842 0)
(0 -0.00135273 0)
(0 -0.0012857 0)
(0 -0.00119373 0)
(0 -0.00107562 0)
(0 -0.000932516 0)
(0 -0.000766778 0)
(0 -0.000581641 0)
(0.0013668 -0.000273126 0)
(0.00142667 -0.00021017 0)
(0.00148469 -0.000160622 0)
(0.00154079 -0.000123232 0)
(0.00159508 -9.6246e-05 0)
(0.00164782 -7.78269e-05 0)
(0.00169932 -6.62402e-05 0)
(0.0017499 -5.99245e-05 0)
(0.00179983 -5.75104e-05 0)
(0.00184934 -5.78115e-05 0)
(0.00189858 -5.98035e-05 0)
(0.00194765 -6.25984e-05 0)
(0.00199661 -6.5417e-05 0)
(0.00204544 -6.75619e-05 0)
(0.00209412 -6.83883e-05 0)
(0.00214259 -6.72728e-05 0)
(0.00219076 -6.35735e-05 0)
(0.0022386 -5.65779e-05 0)
(0.00228606 -4.54284e-05 0)
(0.00126301 -0.000364308 0)
(0.00122182 -0.000379767 0)
(0.00118128 -0.000395312 0)
(0.00114137 -0.000410932 0)
(0.00110207 -0.000426625 0)
(0.00106341 -0.000442388 0)
(0.00102538 -0.000458211 0)
(0.000988011 -0.000474081 0)
(0.000951281 -0.000489979 0)
(0.000915178 -0.000505883 0)
(0.000879666 -0.000521772 0)
(0.000844687 -0.000537633 0)
(0.000810166 -0.000553459 0)
(0.00077601 -0.000569261 0)
(0.000742116 -0.000585066 0)
(0.000708375 -0.000600924 0)
(0.000674685 -0.000616908 0)
(0.000640965 -0.000633119 0)
(0.000607179 -0.000649684 0)
(0.000310403 -0.000444323 0)
(0.000602321 -0.000550328 0)
(0.000859119 -0.000684402 0)
(0.00106218 -0.000812572 0)
(0.00120038 -0.000884807 0)
(0.00128159 -0.00085973 0)
(0.00134727 -0.000787424 0)
(0.00141559 -0.000717113 0)
(0.00148305 -0.000648079 0)
(0.00160742 -0.000515521 0)
(0.00166243 -0.000452568 0)
(0.0017121 -0.000391692 0)
(0.00175606 -0.000332622 0)
(0.00179399 -0.000275051 0)
(0.00182561 -0.000218693 0)
(0.00185067 -0.0001633 0)
(0.00186908 -0.000108669 0)
(0.00188108 -5.45678e-05 0)
(0.00151028 -0.000542812 0)
(0.00147725 -0.000510115 0)
(0.0014476 -0.000481593 0)
(0.00142082 -0.000456493 0)
(0.00139655 -0.000434215 0)
(0.00137454 -0.000414263 0)
(0.00135459 -0.000396204 0)
(0.00133651 -0.000379635 0)
(0.00132009 -0.000364115 0)
(0.00151028 -0.000542812 0)
(0.00147725 -0.000510115 0)
(0.0014476 -0.000481593 0)
(0.00142082 -0.000456493 0)
(0.00139655 -0.000434215 0)
(0.00137454 -0.000414263 0)
(0.00135459 -0.000396204 0)
(0.00133651 -0.000379635 0)
(0.00132009 -0.000364115 0)
(0.00119045 -0.000436538 0)
(0.00107321 -0.000531506 0)
(0.000953019 -0.000636041 0)
(0.000829655 -0.000750312 0)
(0.000700893 -0.000874599 0)
(0.000561648 -0.00101309 0)
(0.000414548 -0.00115986 0)
(0.000269745 -0.00129594 0)
(0.000132767 -0.0013985 0)
(0 -0.0014277 0)
(0 -0.00139842 0)
(0 -0.00135273 0)
(0 -0.0012857 0)
(0 -0.00119373 0)
(0 -0.00107562 0)
(0 -0.000932516 0)
(0 -0.000766778 0)
(0 -0.000581641 0)
(0.000310403 -0.000444323 0)
(0.000602321 -0.000550328 0)
(0.000859119 -0.000684402 0)
(0.00106218 -0.000812572 0)
(0.00120038 -0.000884807 0)
(0.00128159 -0.00085973 0)
(0.00134727 -0.000787424 0)
(0.00141559 -0.000717113 0)
(0.00148305 -0.000648079 0)
(0.00160742 -0.000515521 0)
(0.00166243 -0.000452568 0)
(0.0017121 -0.000391692 0)
(0.00175606 -0.000332622 0)
(0.00179399 -0.000275051 0)
(0.00182561 -0.000218693 0)
(0.00185067 -0.0001633 0)
(0.00186908 -0.000108669 0)
(0.00188108 -5.45678e-05 0)
(0.00189925 0 0)
(0.00190744 0 0)
(0.00191373 0 0)
(0.00191863 0 0)
(0.00192251 0 0)
(0.00192567 0 0)
(0.00192835 0 0)
(0.00193075 0 0)
(0.00193302 0 0)
(0.0019292 -1.42873e-05 0)
(0.00190711 -2.95413e-05 0)
(0.00187038 -4.77293e-05 0)
(0.00181997 -7.03459e-05 0)
(0.00175701 -9.86361e-05 0)
(0.00168278 -0.000133604 0)
(0.00159875 -0.00017598 0)
(0.00150652 -0.000226152 0)
(0.00140788 -0.000284066 0)
(0.00194367 0 0)
(0.0019519 0 0)
(0.00196141 0 0)
(0.00197286 0 0)
(0.00198657 0 0)
(0.00200269 0 0)
(0.00202123 0 0)
(0.00204216 0 0)
(0.0020654 0 0)
(0.00209085 0 0)
(0.00211837 0 0)
(0.0021478 0 0)
(0.00217897 0 0)
(0.00221169 0 0)
(0.00224573 0 0)
(0.00228084 0 0)
(0.00231675 0 0)
(0.00235314 0 0)
(0.00238966 0 0)
(0.00242402 9.54335e-07 0)
(0.00242047 1.50569e-06 0)
(0.00241494 1.53277e-06 0)
(0.00240746 8.1965e-07 0)
(0.00239818 -8.48154e-07 0)
(0.0023873 -3.66314e-06 0)
(0.00237508 -7.78719e-06 0)
(0.00236178 -1.33458e-05 0)
(0.00234773 -2.04222e-05 0)
(0.00228606 -4.54284e-05 0)
(0.0022386 -5.65779e-05 0)
(0.00219076 -6.35735e-05 0)
(0.00214259 -6.72728e-05 0)
(0.00209412 -6.83883e-05 0)
(0.00204544 -6.75619e-05 0)
(0.00199661 -6.5417e-05 0)
(0.00194765 -6.25984e-05 0)
(0.00189858 -5.98035e-05 0)
(0.00184934 -5.78115e-05 0)
(0.00179983 -5.75104e-05 0)
(0.0017499 -5.99245e-05 0)
(0.00169932 -6.62402e-05 0)
(0.00164782 -7.78269e-05 0)
(0.00159508 -9.6246e-05 0)
(0.00154079 -0.000123232 0)
(0.00148469 -0.000160622 0)
(0.00142667 -0.00021017 0)
(0.0013668 -0.000273126 0)
(0.00232684 -3.33079e-05 0)
(0.00232046 -3.78694e-05 0)
(0.00231409 -4.27188e-05 0)
(0.00230776 -4.78481e-05 0)
(0.00230151 -5.32471e-05 0)
(0.00229537 -5.89033e-05 0)
(0.00228935 -6.48015e-05 0)
(0.00228348 -7.09246e-05 0)
(0.00227778 -7.72534e-05 0)
(0.00227225 -8.37664e-05 0)
(0.00226692 -9.04404e-05 0)
(0.00226179 -9.72507e-05 0)
(0.00225685 -0.000104171 0)
(0.00225211 -0.000111174 0)
(0.00224755 -0.000118231 0)
(0.00224315 -0.000125316 0)
(0.00223889 -0.000132402 0)
(0.00223471 -0.000139466 0)
(0.00223058 -0.000146489 0)
(0.00217557 -0.00016664 0)
(0.00212486 -0.000178566 0)
(0.00207358 -0.000188565 0)
(0.00202088 -0.000196488 0)
(0.001966 -0.000202548 0)
(0.00190826 -0.000207185 0)
(0.00184706 -0.000210993 0)
(0.00178185 -0.000214688 0)
(0.00171213 -0.00021909 0)
(0.00163742 -0.000225132 0)
(0.00155729 -0.000233862 0)
(0.00147136 -0.000246456 0)
(0.00137931 -0.000264222 0)
(0.00128094 -0.00028861 0)
(0.00117619 -0.000321198 0)
(0.00106519 -0.000363676 0)
(0.000948392 -0.00041781 0)
(0.000826727 -0.000485502 0)
(0.000700405 -0.000567853 0)
(0.000607179 -0.000649684 0)
(0.000640965 -0.000633119 0)
(0.000674685 -0.000616908 0)
(0.000708375 -0.000600924 0)
(0.000742116 -0.000585066 0)
(0.00077601 -0.000569261 0)
(0.000810166 -0.000553459 0)
(0.000844687 -0.000537633 0)
(0.000879666 -0.000521772 0)
(0.000915178 -0.000505883 0)
(0.000951281 -0.000489979 0)
(0.000988011 -0.000474081 0)
(0.00102538 -0.000458211 0)
(0.00106341 -0.000442388 0)
(0.00110207 -0.000426625 0)
(0.00114137 -0.000410932 0)
(0.00118128 -0.000395312 0)
(0.00122182 -0.000379767 0)
(0.00126301 -0.000364308 0)
(0.000481338 -0.000748826 0)
(0.000391469 -0.000839799 0)
(0.000305592 -0.000938921 0)
(0.000226101 -0.00104467 0)
(0.000155917 -0.00115413 0)
(9.80346e-05 -0.00126215 0)
(5.45229e-05 -0.00136109 0)
(2.55015e-05 -0.00144194 0)
(8.69846e-06 -0.00149618 0)
(0 -0.0015161 0)
(0 -0.00151352 0)
(0 -0.0015105 0)
(0 -0.00150714 0)
(0 -0.00150354 0)
(0 -0.00149976 0)
(0 -0.00149587 0)
(0 -0.00149192 0)
(0 -0.00148796 0)
(0 -0.00148402 0)
(0 -0.00148011 0)
(0 -0.00147627 0)
(0 -0.0014725 0)
(0 -0.00146879 0)
(0 -0.00146515 0)
(0 -0.00146154 0)
(0 -0.00145793 0)
(0 -0.00145421 0)
(0 -0.00145033 0)
(0.000322153 -0.000638812 0)
(0.000323346 -0.000814423 0)
(0.00031512 -0.000967815 0)
(0.00029769 -0.00109586 0)
(0.000271829 -0.00119662 0)
(0.000240646 -0.0012713 0)
(0.000208278 -0.0013239 0)
(0.000178281 -0.00135955 0)
(0.000152847 -0.00138311 0)
(0.000617065 -0.000731716 0)
(0.000613028 -0.000885513 0)
(0.000590346 -0.00100878 0)
(0.00055012 -0.00110024 0)
(0.000497952 -0.00116411 0)
(0.000441522 -0.001208 0)
(0.000387305 -0.00123903 0)
(0.000339426 -0.00126216 0)
(0.000299928 -0.00128046 0)
(0.000864671 -0.000836267 0)
(0.000844202 -0.000947305 0)
(0.000798882 -0.00101816 0)
(0.000737093 -0.00105901 0)
(0.000669489 -0.00108356 0)
(0.000603668 -0.00110119 0)
(0.000543857 -0.00111648 0)
(0.000492192 -0.00113126 0)
(0.000449417 -0.00114599 0)
(0.00104502 -0.000910267 0)
(0.00099889 -0.000956507 0)
(0.000935305 -0.000970546 0)
(0.000867457 -0.000973726 0)
(0.00080206 -0.000975833 0)
(0.000741483 -0.000979666 0)
(0.000687038 -0.000985944 0)
(0.000639242 -0.000994313 0)
(0.000597602 -0.0010036 0)
(0.0011529 -0.000907681 0)
(0.00108986 -0.000898699 0)
(0.00102694 -0.000887409 0)
(0.000967402 -0.00087867 0)
(0.000911789 -0.000872559 0)
(0.00086084 -0.000869282 0)
(0.000814608 -0.000868469 0)
(0.000772506 -0.000869259 0)
(0.00073513 -0.000871837 0)
(0.00122214 -0.000837729 0)
(0.00116577 -0.000818565 0)
(0.00111173 -0.000802099 0)
(0.00106077 -0.000788484 0)
(0.0010133 -0.000777614 0)
(0.000969602 -0.000769174 0)
(0.000929677 -0.000762689 0)
(0.000893355 -0.000757759 0)
(0.000860181 -0.000753775 0)
(0.00129372 -0.00076148 0)
(0.00124364 -0.000738241 0)
(0.0011967 -0.000717862 0)
(0.00115291 -0.000700299 0)
(0.00111229 -0.000685323 0)
(0.00107481 -0.000672592 0)
(0.00104038 -0.000661712 0)
(0.0010088 -0.000652247 0)
(0.000979785 -0.0006438 0)
(0.00136686 -0.000686425 0)
(0.00132246 -0.000659336 0)
(0.00128166 -0.000635536 0)
(0.00124406 -0.000614696 0)
(0.0012094 -0.000596459 0)
(0.0011775 -0.00058045 0)
(0.00114816 -0.000566291 0)
(0.00112115 -0.000553619 0)
(0.00109623 -0.000542112 0)
(0.00143969 -0.000613213 0)
(0.00140088 -0.00058288 0)
(0.00136575 -0.00055632 0)
(0.00133374 -0.000532959 0)
(0.00130448 -0.000512315 0)
(0.0012777 -0.000493967 0)
(0.00125315 -0.00047754 0)
(0.00123059 -0.000462695 0)
(0.00120977 -0.000449123 0)
(0.00157701 -0.000476003 0)
(0.0015499 -0.000442097 0)
(0.00152554 -0.000412697 0)
(0.00150353 -0.000386972 0)
(0.00148357 -0.000364287 0)
(0.00146542 -0.000344149 0)
(0.00144889 -0.000326184 0)
(0.00143384 -0.000310139 0)
(0.00142014 -0.000295955 0)
(0.00163906 -0.000412837 0)
(0.001618 -0.000378907 0)
(0.00159894 -0.000349659 0)
(0.00158163 -0.000324248 0)
(0.00156588 -0.000302031 0)
(0.00155153 -0.000282528 0)
(0.00153847 -0.000265389 0)
(0.00152662 -0.000250387 0)
(0.00151597 -0.000237379 0)
(0.00169575 -0.000353127 0)
(0.0016807 -0.000320333 0)
(0.00166686 -0.000292218 0)
(0.00165414 -0.000267946 0)
(0.00164248 -0.000246883 0)
(0.00163182 -0.000228545 0)
(0.00162213 -0.000212563 0)
(0.00161339 -0.000198643 0)
(0.0016056 -0.000186526 0)
(0.00174647 -0.000296545 0)
(0.00173718 -0.000265991 0)
(0.00172831 -0.000239915 0)
(0.00171994 -0.000217519 0)
(0.00171214 -0.000198188 0)
(0.00170494 -0.000181442 0)
(0.00169838 -0.000166901 0)
(0.00169249 -0.00015425 0)
(0.00168728 -0.000143227 0)
(0.00179063 -0.000242709 0)
(0.00178663 -0.000215412 0)
(0.00178232 -0.000192204 0)
(0.00177792 -0.000172351 0)
(0.00177361 -0.000155283 0)
(0.00176952 -0.00014055 0)
(0.00176575 -0.000127791 0)
(0.00176237 -0.00011671 0)
(0.00175945 -0.000107061 0)
(0.00182771 -0.000191206 0)
(0.00182834 -0.000168075 0)
(0.00182799 -0.000148474 0)
(0.00182704 -0.000131769 0)
(0.00182574 -0.000117461 0)
(0.00182431 -0.000105152 0)
(0.00182292 -9.45225e-05 0)
(0.00182167 -8.5315e-05 0)
(0.00182067 -7.7316e-05 0)
(0.00185725 -0.000141602 0)
(0.00186168 -0.000123401 0)
(0.00186457 -0.000108048 0)
(0.00186639 -9.50303e-05 0)
(0.00186751 -8.39262e-05 0)
(0.00186821 -7.44053e-05 0)
(0.0018687 -6.62105e-05 0)
(0.00186915 -5.91387e-05 0)
(0.00186968 -5.30255e-05 0)
(0.00187898 -9.34165e-05 0)
(0.00188621 -8.07492e-05 0)
(0.00189143 -7.02188e-05 0)
(0.00189522 -6.13501e-05 0)
(0.00189805 -5.38072e-05 0)
(0.00190025 -4.7352e-05 0)
(0.00190208 -4.18107e-05 0)
(0.00190375 -3.70553e-05 0)
(0.00190539 -3.2991e-05 0)
(0.00189304 -4.60484e-05 0)
(0.00190167 -3.96338e-05 0)
(0.00190804 -3.43818e-05 0)
(0.00191286 -2.99551e-05 0)
(0.00191659 -2.61776e-05 0)
(0.00191961 -2.29361e-05 0)
(0.00192219 -2.01526e-05 0)
(0.00192454 -1.77789e-05 0)
(0.00192683 -1.58041e-05 0)
(0.00193696 -8.57752e-06 0)
(0.0019169 -1.83221e-05 0)
(0.00188383 -3.06461e-05 0)
(0.00183839 -4.68022e-05 0)
(0.00178147 -6.78993e-05 0)
(0.00171412 -9.489e-05 0)
(0.00163753 -0.00012854 0)
(0.00155306 -0.000169381 0)
(0.00146221 -0.000217645 0)
(0.00194556 -5.04433e-06 0)
(0.00192749 -1.11618e-05 0)
(0.00189782 -1.94254e-05 0)
(0.00185702 -3.08573e-05 0)
(0.00180577 -4.63994e-05 0)
(0.00174491 -6.68949e-05 0)
(0.00167541 -9.30645e-05 0)
(0.00159835 -0.000125474 0)
(0.00151497 -0.000164485 0)
(0.00195567 -2.91583e-06 0)
(0.00193944 -6.73808e-06 0)
(0.00191282 -1.22963e-05 0)
(0.00187619 -2.04073e-05 0)
(0.00183009 -3.18454e-05 0)
(0.00177518 -4.73242e-05 0)
(0.00171226 -6.74792e-05 0)
(0.0016422 -9.28449e-05 0)
(0.00156598 -0.000123822 0)
(0.00196774 -1.7345e-06 0)
(0.00195315 -4.20582e-06 0)
(0.00192922 -8.06056e-06 0)
(0.00189628 -1.39434e-05 0)
(0.00185475 -2.24761e-05 0)
(0.0018052 -3.42432e-05 0)
(0.00174828 -4.97798e-05 0)
(0.00168471 -6.95555e-05 0)
(0.00161525 -9.39528e-05 0)
(0.001982 -1.20483e-06 0)
(0.00196886 -2.99797e-06 0)
(0.0019473 -5.88606e-06 0)
(0.00191758 -1.0375e-05 0)
(0.00188009 -1.69568e-05 0)
(0.00183532 -2.60995e-05 0)
(0.00178381 -3.82384e-05 0)
(0.00172617 -5.37653e-05 0)
(0.00166303 -7.30156e-05 0)
(0.00199859 -1.12537e-06 0)
(0.00198673 -2.71783e-06 0)
(0.00196722 -5.17655e-06 0)
(0.00194034 -8.89859e-06 0)
(0.00190641 -1.42707e-05 0)
(0.00186588 -2.16621e-05 0)
(0.00181922 -3.14185e-05 0)
(0.00176696 -4.38552e-05 0)
(0.00170963 -5.92494e-05 0)
(0.00201755 -1.3523e-06 0)
(0.0020068 -3.07682e-06 0)
(0.0019891 -5.49082e-06 0)
(0.0019647 -8.90787e-06 0)
(0.00193392 -1.36321e-05 0)
(0.00189715 -1.99532e-05 0)
(0.00185483 -2.81417e-05 0)
(0.00180743 -3.84451e-05 0)
(0.00175543 -5.1083e-05 0)
(0.00203884 -1.77829e-06 0)
(0.00202907 -3.85685e-06 0)
(0.00201297 -6.49146e-06 0)
(0.00199077 -9.93297e-06 0)
(0.00196278 -1.44228e-05 0)
(0.00192936 -2.01888e-05 0)
(0.00189092 -2.74421e-05 0)
(0.0018479 -3.6374e-05 0)
(0.00180074 -4.71536e-05 0)
(0.0020624 -2.31973e-06 0)
(0.00205349 -4.88674e-06 0)
(0.00203881 -7.91173e-06 0)
(0.00201857 -1.15996e-05 0)
(0.00199306 -1.61454e-05 0)
(0.00196262 -2.17312e-05 0)
(0.00192767 -2.85227e-05 0)
(0.0018886 -3.66678e-05 0)
(0.00184585 -4.62946e-05 0)
(0.00208813 -2.90865e-06 0)
(0.00208 -6.0269e-06 0)
(0.00206657 -9.53342e-06 0)
(0.00204808 -1.36005e-05 0)
(0.00202478 -1.83904e-05 0)
(0.00199703 -2.4052e-05 0)
(0.00196521 -3.07186e-05 0)
(0.00192971 -3.85057e-05 0)
(0.00189095 -4.75105e-05 0)
(0.0021159 -3.4874e-06 0)
(0.00210846 -7.15891e-06 0)
(0.00209617 -1.11715e-05 0)
(0.00207923 -1.56754e-05 0)
(0.00205793 -2.08108e-05 0)
(0.0020326 -2.6704e-05 0)
(0.0020036 -3.34657e-05 0)
(0.00197132 -4.11891e-05 0)
(0.00193618 -4.99494e-05 0)
(0.00214556 -4.0048e-06 0)
(0.00213874 -8.17785e-06 0)
(0.00212747 -1.26626e-05 0)
(0.00211195 -1.75957e-05 0)
(0.00209245 -2.31032e-05 0)
(0.00206929 -2.92976e-05 0)
(0.00204284 -3.62749e-05 0)
(0.00201348 -4.41135e-05 0)
(0.00198162 -5.28739e-05 0)
(0.00217693 -4.41307e-06 0)
(0.00217068 -8.98605e-06 0)
(0.00216034 -1.38554e-05 0)
(0.0021461 -1.91509e-05 0)
(0.00212822 -2.49914e-05 0)
(0.00210704 -3.14815e-05 0)
(0.0020829 -3.87089e-05 0)
(0.00205618 -4.6743e-05 0)
(0.00202729 -5.56348e-05 0)
(0.00220984 -4.66499e-06 0)
(0.0022041 -9.48727e-06 0)
(0.00219459 -1.46017e-05 0)
(0.00218152 -2.01368e-05 0)
(0.00216512 -2.62101e-05 0)
(0.00214573 -3.29236e-05 0)
(0.00212368 -4.03608e-05 0)
(0.00209936 -4.8586e-05 0)
(0.00207315 -5.76442e-05 0)
(0.00224405 -4.71106e-06 0)
(0.00223878 -9.58037e-06 0)
(0.00223004 -1.47462e-05 0)
(0.00221803 -2.03418e-05 0)
(0.00220298 -2.64886e-05 0)
(0.00218522 -3.32904e-05 0)
(0.00216508 -4.08301e-05 0)
(0.00214292 -4.91691e-05 0)
(0.00211914 -5.8348e-05 0)
(0.00227932 -4.49615e-06 0)
(0.00227448 -9.15172e-06 0)
(0.00226644 -1.41144e-05 0)
(0.0022554 -1.95297e-05 0)
(0.0022416 -2.55295e-05 0)
(0.00222533 -3.22237e-05 0)
(0.00220693 -3.96966e-05 0)
(0.00218676 -4.80079e-05 0)
(0.00216518 -5.71946e-05 0)
(0.00231537 -3.95545e-06 0)
(0.00231091 -8.06417e-06 0)
(0.00230352 -1.24947e-05 0)
(0.00229338 -1.74179e-05 0)
(0.00228074 -2.29837e-05 0)
(0.00226587 -2.93104e-05 0)
(0.00224908 -3.64859e-05 0)
(0.00223072 -4.45699e-05 0)
(0.00221115 -5.35957e-05 0)
(0.00235184 -3.00732e-06 0)
(0.00234771 -6.13613e-06 0)
(0.00234091 -9.61024e-06 0)
(0.00233164 -1.36496e-05 0)
(0.00232011 -1.84183e-05 0)
(0.00230657 -2.4045e-05 0)
(0.00229131 -3.06257e-05 0)
(0.00227465 -3.82244e-05 0)
(0.00225696 -4.68737e-05 0)
(0.0023883 -1.52507e-06 0)
(0.0023844 -3.08006e-06 0)
(0.00237821 -5.09094e-06 0)
(0.00236982 -7.76592e-06 0)
(0.0023594 -1.12799e-05 0)
(0.00234717 -1.57808e-05 0)
(0.0023334 -2.13853e-05 0)
(0.0023184 -2.81737e-05 0)
(0.0023025 -3.61876e-05 0)
(0.00133013 -0.000285636 0)
(0.00129325 -0.000298627 0)
(0.00125647 -0.000312014 0)
(0.00121998 -0.000325722 0)
(0.00118386 -0.000339695 0)
(0.00114819 -0.000353884 0)
(0.00111301 -0.00036825 0)
(0.00107835 -0.000382762 0)
(0.00104422 -0.000397394 0)
(0.00101063 -0.000412126 0)
(0.000977568 -0.000426944 0)
(0.00094503 -0.000441845 0)
(0.000912989 -0.000456835 0)
(0.000881416 -0.000471932 0)
(0.000850283 -0.000487172 0)
(0.000819562 -0.000502604 0)
(0.00078923 -0.000518295 0)
(0.000759273 -0.000534329 0)
(0.000729675 -0.000550801 0)
(0.00139359 -0.000221357 0)
(0.00136035 -0.000232911 0)
(0.00132709 -0.000244816 0)
(0.00129395 -0.000257045 0)
(0.00126103 -0.00026957 0)
(0.00122842 -0.000282359 0)
(0.00119618 -0.000295385 0)
(0.00116436 -0.000308627 0)
(0.001133 -0.000322065 0)
(0.00110214 -0.000335687 0)
(0.00107181 -0.000349488 0)
(0.00104202 -0.000363469 0)
(0.0010128 -0.000377641 0)
(0.000984162 -0.000392023 0)
(0.000956134 -0.000406646 0)
(0.000928743 -0.000421551 0)
(0.000902026 -0.000436793 0)
(0.000876036 -0.000452437 0)
(0.000850855 -0.000468565 0)
(0.00145466 -0.000170699 0)
(0.00142454 -0.000181096 0)
(0.0013944 -0.000191811 0)
(0.00136434 -0.000202838 0)
(0.00133445 -0.000214164 0)
(0.0013048 -0.000225777 0)
(0.00127547 -0.000237662 0)
(0.00124651 -0.000249809 0)
(0.00121799 -0.000262207 0)
(0.00118997 -0.000274853 0)
(0.00116248 -0.000287745 0)
(0.00113558 -0.00030089 0)
(0.00110931 -0.000314297 0)
(0.00108374 -0.000327984 0)
(0.00105891 -0.000341977 0)
(0.00103489 -0.000356306 0)
(0.00101175 -0.000371011 0)
(0.000989571 -0.000386135 0)
(0.00096845 -0.000401728 0)
(0.00151357 -0.000132286 0)
(0.00148628 -0.000141658 0)
(0.00145899 -0.000151347 0)
(0.00143179 -0.00016135 0)
(0.00140474 -0.000171663 0)
(0.00137791 -0.000182281 0)
(0.00135139 -0.000193196 0)
(0.00132524 -0.000204406 0)
(0.00129952 -0.000215904 0)
(0.0012743 -0.000227692 0)
(0.00124965 -0.000239771 0)
(0.00122563 -0.000252146 0)
(0.00120231 -0.000264825 0)
(0.00117976 -0.000277823 0)
(0.00115805 -0.000291155 0)
(0.00113727 -0.000304843 0)
(0.00111749 -0.000318911 0)
(0.00109882 -0.000333385 0)
(0.00108135 -0.000348292 0)
(0.00157049 -0.000104389 0)
(0.00154585 -0.000112862 0)
(0.00152122 -0.000121664 0)
(0.00149669 -0.000130791 0)
(0.00147231 -0.000140242 0)
(0.00144816 -0.000150014 0)
(0.00142431 -0.000160102 0)
(0.00140084 -0.000170506 0)
(0.00137781 -0.000181224 0)
(0.0013553 -0.000192255 0)
(0.00133338 -0.000203603 0)
(0.00131213 -0.000215269 0)
(0.00129161 -0.00022726 0)
(0.00127193 -0.000239584 0)
(0.00125314 -0.000252251 0)
(0.00123536 -0.000265272 0)
(0.00121866 -0.000278661 0)
(0.00120316 -0.000292433 0)
(0.00118896 -0.000306606 0)
(0.0016257 -8.52011e-05 0)
(0.00160354 -9.29162e-05 0)
(0.0015814 -0.00010097 0)
(0.00155936 -0.000109359 0)
(0.00153748 -0.000118083 0)
(0.00151584 -0.000127137 0)
(0.0014945 -0.000136521 0)
(0.00147355 -0.000146232 0)
(0.00145305 -0.00015627 0)
(0.00143308 -0.000166632 0)
(0.00141372 -0.00017732 0)
(0.00139505 -0.000188335 0)
(0.00137714 -0.000199678 0)
(0.00136009 -0.000211353 0)
(0.00134397 -0.000223363 0)
(0.00132889 -0.000235713 0)
(0.00131494 -0.000248407 0)
(0.00130222 -0.000261452 0)
(0.00129085 -0.000274851 0)
(0.00167949 -7.29963e-05 0)
(0.00165963 -8.00966e-05 0)
(0.0016398 -8.7539e-05 0)
(0.00162007 -9.53209e-05 0)
(0.00160051 -0.00010344 0)
(0.00158119 -0.000111894 0)
(0.00156218 -0.000120681 0)
(0.00154356 -0.000129798 0)
(0.0015254 -0.000139242 0)
(0.00150777 -0.000149012 0)
(0.00149075 -0.000159106 0)
(0.00147443 -0.000169522 0)
(0.00145888 -0.000180259 0)
(0.00144419 -0.000191314 0)
(0.00143044 -0.000202686 0)
(0.00141774 -0.000214374 0)
(0.00140617 -0.000226375 0)
(0.00139584 -0.000238686 0)
(0.00138685 -0.000251304 0)
(0.00173217 -6.62047e-05 0)
(0.00171442 -7.28242e-05 0)
(0.0016967 -7.97813e-05 0)
(0.00167909 -8.70738e-05 0)
(0.00166165 -9.46995e-05 0)
(0.00164445 -0.000102656 0)
(0.00162756 -0.000110939 0)
(0.00161106 -0.000119547 0)
(0.00159501 -0.000128476 0)
(0.00157949 -0.000137722 0)
(0.00156458 -0.00014728 0)
(0.00155035 -0.000157148 0)
(0.00153689 -0.000167319 0)
(0.00152427 -0.000177788 0)
(0.00151258 -0.000188549 0)
(0.00150192 -0.000199596 0)
(0.00149237 -0.00021092 0)
(0.00148403 -0.000222512 0)
(0.00147699 -0.000234362 0)
(0.001784 -6.34373e-05 0)
(0.00176815 -6.96914e-05 0)
(0.00175234 -7.62716e-05 0)
(0.00173663 -8.31762e-05 0)
(0.0017211 -9.04027e-05 0)
(0.00170581 -9.79483e-05 0)
(0.00169083 -0.00010581 0)
(0.00167622 -0.000113982 0)
(0.00166205 -0.000122462 0)
(0.00164841 -0.000131244 0)
(0.00163534 -0.000140321 0)
(0.00162295 -0.000149687 0)
(0.00161129 -0.000159334 0)
(0.00160045 -0.000169255 0)
(0.00159051 -0.000179438 0)
(0.00158155 -0.000189873 0)
(0.00157366 -0.000200548 0)
(0.00156692 -0.000211448 0)
(0.00156144 -0.000222559 0)
(0.00183519 -6.34824e-05 0)
(0.00182103 -6.94634e-05 0)
(0.00180692 -7.57537e-05 0)
(0.00179291 -8.2352e-05 0)
(0.00177908 -8.92558e-05 0)
(0.00176547 -9.64621e-05 0)
(0.00175216 -0.000103967 0)
(0.00173922 -0.000111766 0)
(0.0017267 -0.000119854 0)
(0.00171467 -0.000128223 0)
(0.00170321 -0.000136866 0)
(0.00169238 -0.000145776 0)
(0.00168225 -0.000154941 0)
(0.00167289 -0.00016435 0)
(0.00166439 -0.000173992 0)
(0.00165682 -0.000183852 0)
(0.00165026 -0.000193914 0)
(0.00164478 -0.000204162 0)
(0.00164047 -0.000214575 0)
(0.00188591 -6.52891e-05 0)
(0.00187323 -7.10644e-05 0)
(0.0018606 -7.71291e-05 0)
(0.00184808 -8.34819e-05 0)
(0.00183572 -9.01207e-05 0)
(0.00182359 -9.70423e-05 0)
(0.00181173 -0.000104243 0)
(0.00180022 -0.000111716 0)
(0.00178911 -0.000119457 0)
(0.00177847 -0.000127458 0)
(0.00176835 -0.00013571 0)
(0.00175883 -0.000144203 0)
(0.00174997 -0.000152925 0)
(0.00174183 -0.000161863 0)
(0.00173448 -0.000171003 0)
(0.00172799 -0.000180328 0)
(0.00172244 -0.000189821 0)
(0.0017179 -0.000199461 0)
(0.00171443 -0.000209225 0)
(0.00193625 -6.79435e-05 0)
(0.00192485 -7.35566e-05 0)
(0.00191351 -7.94377e-05 0)
(0.00190226 -8.55858e-05 0)
(0.00189117 -9.1999e-05 0)
(0.00188029 -9.8674e-05 0)
(0.00186968 -0.000105607 0)
(0.00185939 -0.000112791 0)
(0.00184947 -0.000120222 0)
(0.00183998 -0.000127889 0)
(0.00183098 -0.000135785 0)
(0.00182253 -0.000143897 0)
(0.00181468 -0.000152213 0)
(0.0018075 -0.000160719 0)
(0.00180104 -0.000169399 0)
(0.00179537 -0.000178233 0)
(0.00179055 -0.000187202 0)
(0.00178665 -0.000196284 0)
(0.00178372 -0.000205455 0)
(0.00198629 -7.06431e-05 0)
(0.00197598 -7.61158e-05 0)
(0.00196571 -8.18355e-05 0)
(0.00195555 -8.78014e-05 0)
(0.00194553 -9.40117e-05 0)
(0.00193571 -0.000100463 0)
(0.00192614 -0.000107152 0)
(0.00191686 -0.000114073 0)
(0.00190792 -0.000121219 0)
(0.00189938 -0.000128581 0)
(0.00189129 -0.00013615 0)
(0.00188369 -0.000143913 0)
(0.00187663 -0.000151858 0)
(0.00187018 -0.000159969 0)
(0.00186438 -0.000168229 0)
(0.00185928 -0.000176617 0)
(0.00185495 -0.000185113 0)
(0.00185142 -0.000193693 0)
(0.00184878 -0.000202329 0)
(0.00203603 -7.26708e-05 0)
(0.00202662 -7.8007e-05 0)
(0.00201727 -8.3571e-05 0)
(0.00200801 -8.93622e-05 0)
(0.00199888 -9.53791e-05 0)
(0.00198994 -0.000101619 0)
(0.00198122 -0.000108078 0)
(0.00197277 -0.00011475 0)
(0.00196464 -0.000121629 0)
(0.00195686 -0.000128707 0)
(0.00194948 -0.000135973 0)
(0.00194254 -0.000143416 0)
(0.00193609 -0.000151021 0)
(0.00193017 -0.000158774 0)
(0.00192482 -0.000166655 0)
(0.00192009 -0.000174645 0)
(0.00191602 -0.000182719 0)
(0.00191267 -0.000190854 0)
(0.00191006 -0.000199019 0)
(0.00208545 -7.33678e-05 0)
(0.00207679 -7.85586e-05 0)
(0.00206818 -8.39612e-05 0)
(0.00205966 -8.95754e-05 0)
(0.00205127 -9.53998e-05 0)
(0.00204304 -0.000101432 0)
(0.00203502 -0.000107667 0)
(0.00202725 -0.000114102 0)
(0.00201975 -0.000120729 0)
(0.00201258 -0.000127539 0)
(0.00200576 -0.000134525 0)
(0.00199933 -0.000141672 0)
(0.00199332 -0.000148969 0)
(0.00198777 -0.0001564 0)
(0.00198272 -0.000163945 0)
(0.00197819 -0.000171583 0)
(0.00197422 -0.000179292 0)
(0.00197084 -0.000187043 0)
(0.00196809 -0.000194806 0)
(0.00213452 -7.21031e-05 0)
(0.00212646 -7.71339e-05 0)
(0.00211846 -8.2366e-05 0)
(0.00211054 -8.77988e-05 0)
(0.00210274 -9.34309e-05 0)
(0.00209509 -9.92596e-05 0)
(0.00208764 -0.000105281 0)
(0.0020804 -0.00011149 0)
(0.00207342 -0.000117881 0)
(0.00206672 -0.000124446 0)
(0.00206033 -0.000131175 0)
(0.00205429 -0.000138057 0)
(0.0020486 -0.000145079 0)
(0.00204331 -0.000152226 0)
(0.00203843 -0.000159479 0)
(0.00203398 -0.000166818 0)
(0.00202998 -0.000174218 0)
(0.00202645 -0.000181652 0)
(0.00202341 -0.000189088 0)
(0.00218318 -6.82365e-05 0)
(0.00217562 -7.30977e-05 0)
(0.0021681 -7.81573e-05 0)
(0.00216067 -8.34141e-05 0)
(0.00215335 -8.88658e-05 0)
(0.00214617 -9.4509e-05 0)
(0.00213916 -0.000100339 0)
(0.00213236 -0.000106351 0)
(0.00212579 -0.000112538 0)
(0.00211947 -0.000118891 0)
(0.00211342 -0.000125403 0)
(0.00210767 -0.000132061 0)
(0.00210223 -0.000138854 0)
(0.00209711 -0.000145766 0)
(0.00209233 -0.000152781 0)
(0.00208789 -0.000159879 0)
(0.00208379 -0.000167036 0)
(0.00208004 -0.000174226 0)
(0.00207664 -0.000181415 0)
(0.00223142 -6.10685e-05 0)
(0.00222426 -6.57688e-05 0)
(0.00221715 -7.06773e-05 0)
(0.00221012 -7.57905e-05 0)
(0.00220319 -8.11036e-05 0)
(0.00219639 -8.66114e-05 0)
(0.00218976 -9.23076e-05 0)
(0.00218331 -9.8185e-05 0)
(0.00217706 -0.000104236 0)
(0.00217105 -0.00011045 0)
(0.00216527 -0.000116819 0)
(0.00215976 -0.000123329 0)
(0.00215451 -0.000129969 0)
(0.00214953 -0.000136724 0)
(0.00214482 -0.000143578 0)
(0.00214037 -0.000150512 0)
(0.00213618 -0.000157505 0)
(0.00213221 -0.000164533 0)
(0.00212845 -0.000171565 0)
(0.00227926 -4.97693e-05 0)
(0.00227248 -5.43559e-05 0)
(0.00226573 -5.91778e-05 0)
(0.00225905 -6.42274e-05 0)