/*--------------------------------*- C++ -*----------------------------------*\
| =========                 |                                                 |
| \\      /  F ield         | OpenFOAM: The Open Source CFD Toolbox           |
|  \\    /   O peration     | Version:  v2012                                 |
|   \\  /    A nd           | Website:  www.openfoam.com                      |
|    \\/     M anipulation  |                                                 |
\*---------------------------------------------------------------------------*/
FoamFile
{
    version     2.0;
    format      ascii;
    class       volScalarField;
    location    "16";
    object      sigmaEq;
}
// * * * * * * * * * * * * * * * * * * * * * * * * * * * * * * * * * * * * * //

dimensions      [1 -1 -2 0 0 0 0];


internalField   nonuniform List<scalar> 
2000
(
8.93098e+07
5.88846e+07
6.4416e+07
5.22906e+07
6.37672e+07
6.43901e+07
7.37464e+07
7.92747e+07
8.46599e+07
9.2092e+07
9.37857e+07
1.0241e+08
1.01441e+08
1.10726e+08
1.08647e+08
1.17627e+08
1.15875e+08
1.23644e+08
1.22837e+08
1.29195e+08
8.232e+07
5.33463e+07
6.63746e+07
5.20095e+07
7.10427e+07
6.69028e+07
8.17388e+07
8.28834e+07
9.11584e+07
9.61142e+07
9.76694e+07
1.05761e+08
1.02443e+08
1.1256e+08
1.07285e+08
1.17869e+08
1.12946e+08
1.22647e+08
1.19091e+08
1.27261e+08
7.2345e+07
4.63083e+07
6.69601e+07
5.28457e+07
7.70343e+07
7.16017e+07
8.78108e+07
8.81945e+07
9.46593e+07
9.89195e+07
9.85082e+07
1.0576e+08
1.01666e+08
1.11008e+08
1.05331e+08
1.15544e+08
1.09593e+08
1.19647e+08
1.1415e+08
1.23458e+08
5.98445e+07
4.03374e+07
6.61583e+07
5.90475e+07
7.89823e+07
7.93909e+07
8.73997e+07
9.05216e+07
9.23902e+07
9.78793e+07
9.63804e+07
1.03955e+08
1.00022e+08
1.08873e+08
1.03432e+08
1.12829e+08
1.06668e+08
1.16077e+08
1.09862e+08
1.18932e+08
4.86326e+07
4.71564e+07
6.32753e+07
7.29805e+07
7.54948e+07
8.48116e+07
8.44152e+07
9.07472e+07
9.10554e+07
9.91257e+07
9.60262e+07
1.04684e+08
9.96916e+07
1.08046e+08
1.02472e+08
1.10651e+08
1.04751e+08
1.12791e+08
1.06988e+08
1.14777e+08
4.8043e+07
5.52471e+07
6.76621e+07
5.57181e+07
6.42296e+07
6.39248e+07
7.11393e+07
7.26026e+07
7.89639e+07
8.11788e+07
8.75925e+07
8.88177e+07
9.5555e+07
9.52887e+07
1.01161e+08
1.0102e+08
1.02962e+08
1.04752e+08
1.04761e+08
1.07422e+08
4.07547e+07
4.09507e+07
4.53007e+07
4.64997e+07
5.16605e+07
5.45041e+07
5.96988e+07
6.30436e+07
6.81618e+07
7.11442e+07
7.62068e+07
7.82832e+07
8.32172e+07
8.42643e+07
8.91449e+07
8.89835e+07
9.34404e+07
9.25718e+07
9.64389e+07
9.52287e+07
3.28338e+07
3.13346e+07
3.68941e+07
3.88529e+07
4.41907e+07
4.78347e+07
5.25364e+07
5.65523e+07
6.07533e+07
6.44251e+07
6.82581e+07
7.12219e+07
7.47396e+07
7.68551e+07
8e+07
8.13383e+07
8.40384e+07
8.47697e+07
8.6977e+07
8.73401e+07
2.07014e+07
2.13776e+07
2.89799e+07
3.25896e+07
3.85275e+07
4.29656e+07
4.75013e+07
5.1946e+07
5.55468e+07
5.96055e+07
6.25579e+07
6.60502e+07
6.84841e+07
7.13692e+07
7.33308e+07
7.56324e+07
7.71538e+07
7.88873e+07
8.00832e+07
8.11947e+07
8.53689e+06
1.44517e+07
2.26209e+07
2.82649e+07
3.39928e+07
3.92001e+07
4.333e+07
4.80499e+07
5.11302e+07
5.53186e+07
5.76848e+07
6.13395e+07
6.31842e+07
6.63486e+07
6.77724e+07
7.04994e+07
7.15684e+07
7.37876e+07
7.46973e+07
7.57296e+07
1.19105e+07
1.65208e+07
2.0541e+07
2.67537e+07
3.07698e+07
3.62768e+07
3.92955e+07
4.40486e+07
4.61762e+07
5.02401e+07
5.16456e+07
5.50986e+07
5.58735e+07
5.88393e+07
5.89348e+07
6.16771e+07
6.07394e+07
6.39668e+07
6.07706e+07
6.67323e+07
2.47319e+07
2.52519e+07
2.45536e+07
2.91219e+07
3.04112e+07
3.56645e+07
3.69951e+07
4.1941e+07
4.28227e+07
4.73069e+07
4.76716e+07
5.17548e+07
5.16287e+07
5.54503e+07
5.48973e+07
5.86268e+07
5.78692e+07
6.15437e+07
6.1561e+07
6.42604e+07
3.74761e+07
3.53286e+07
3.19217e+07
3.40202e+07
3.27181e+07
3.68437e+07
3.63272e+07
4.09719e+07
4.0565e+07
4.51272e+07
4.4607e+07
4.89052e+07
4.82625e+07
5.22465e+07
5.15968e+07
5.51992e+07
5.47517e+07
5.77971e+07
5.76292e+07
6.0013e+07
4.93831e+07
4.51739e+07
4.02523e+07
4.00278e+07
3.68186e+07
3.92712e+07
3.70832e+07
4.08478e+07
3.91736e+07
4.3349e+07
4.19312e+07
4.60521e+07
4.48096e+07
4.86423e+07
4.75826e+07
5.099e+07
5.0132e+07
5.30371e+07
5.23906e+07
5.47619e+07
6.02098e+07
5.42272e+07
4.84297e+07
4.61601e+07
4.17221e+07
4.23125e+07
3.88366e+07
4.12642e+07
3.84539e+07
4.18008e+07
3.94595e+07
4.30881e+07
4.11036e+07
4.46359e+07
4.29487e+07
4.6181e+07
4.47571e+07
4.75909e+07
4.64061e+07
4.8805e+07
6.97234e+07
6.21478e+07
5.58948e+07
5.18064e+07
4.66863e+07
4.54143e+07
4.1118e+07
4.19241e+07
3.82644e+07
4.03933e+07
3.72515e+07
4.00552e+07
3.73506e+07
4.03638e+07
3.80354e+07
4.09693e+07
3.89683e+07
4.16636e+07
3.99504e+07
4.23279e+07
7.76671e+07
6.86737e+07
6.23058e+07
5.65864e+07
5.12276e+07
4.81613e+07
4.35216e+07
4.25502e+07
3.84608e+07
3.90435e+07
3.54169e+07
3.70193e+07
3.38126e+07
3.59743e+07
3.31554e+07
3.55351e+07
3.30663e+07
3.54412e+07
3.32803e+07
3.55137e+07
8.37956e+07
7.3629e+07
6.7447e+07
6.02486e+07
5.50268e+07
5.01513e+07
4.56613e+07
4.28087e+07
3.88213e+07
3.76059e+07
3.40033e+07
3.40215e+07
3.07575e+07
3.16313e+07
2.86898e+07
3.00994e+07
2.74614e+07
2.91674e+07
2.67888e+07
2.86307e+07
8.79856e+07
7.70496e+07
7.12272e+07
6.19872e+07
5.75331e+07
5.07489e+07
4.70317e+07
4.22899e+07
3.90444e+07
3.59173e+07
3.3006e+07
3.11433e+07
2.84974e+07
2.76102e+07
2.52026e+07
2.50513e+07
2.28698e+07
2.32725e+07
2.12718e+07
2.21489e+07
9.11431e+07
7.47029e+07
7.17175e+07
6.04981e+07
5.78373e+07
4.95382e+07
4.72671e+07
4.09289e+07
3.90342e+07
3.41248e+07
3.25672e+07
2.87368e+07
2.74819e+07
2.44754e+07
2.35087e+07
2.11302e+07
2.04625e+07
1.85709e+07
1.82377e+07
1.67825e+07
1.83861e+07
1.24735e+07
2.18108e+07
1.56499e+07
2.85908e+07
2.1317e+07
3.62321e+07
2.76757e+07
4.39397e+07
3.40681e+07
5.13751e+07
4.02455e+07
5.8341e+07
4.61002e+07
6.46673e+07
5.15784e+07
7.01242e+07
5.66408e+07
7.42149e+07
6.12121e+07
1.39493e+07
1.06588e+07
1.88382e+07
1.48649e+07
2.61259e+07
2.09953e+07
3.40214e+07
2.75339e+07
4.18937e+07
3.39589e+07
4.94753e+07
4.00625e+07
5.66095e+07
4.57432e+07
6.31623e+07
5.09363e+07
6.89568e+07
5.55707e+07
7.36379e+07
5.95044e+07
1.22574e+07
1.06269e+07
1.73273e+07
1.4998e+07
2.44163e+07
2.1014e+07
3.20546e+07
2.7386e+07
3.96957e+07
3.36463e+07
4.71028e+07
3.95963e+07
5.4144e+07
4.51362e+07
6.07172e+07
5.02057e+07
6.67005e+07
5.47473e+07
7.18676e+07
5.86599e+07
1.22509e+07
1.16194e+07
1.68204e+07
1.56615e+07
2.33311e+07
2.12652e+07
3.04537e+07
2.72888e+07
3.76598e+07
3.32711e+07
4.47147e+07
3.90041e+07
5.14941e+07
4.43827e+07
5.79154e+07
4.93481e+07
6.38962e+07
5.38556e+07
6.92985e+07
5.78407e+07
1.32638e+07
1.31913e+07
1.70658e+07
1.67097e+07
2.28081e+07
2.17522e+07
2.92798e+07
2.73184e+07
3.59409e+07
3.29431e+07
4.25419e+07
3.84029e+07
4.89545e+07
4.35824e+07
5.51037e+07
4.84202e+07
6.09316e+07
5.28791e+07
6.63581e+07
5.69206e+07
1.48637e+07
1.50994e+07
1.78951e+07
1.80665e+07
2.28049e+07
2.24902e+07
2.85574e+07
2.75328e+07
3.46111e+07
3.27401e+07
4.06974e+07
3.78748e+07
4.66765e+07
4.28103e+07
5.24728e+07
4.74791e+07
5.80403e+07
5.18465e+07
6.33335e+07
5.58894e+07
1.67907e+07
1.71991e+07
1.9163e+07
1.96618e+07
2.32659e+07
2.34708e+07
2.82799e+07
2.79599e+07
3.36943e+07
3.2708e+07
3.92292e+07
3.74734e+07
4.47321e+07
4.21197e+07
5.01213e+07
4.65725e+07
5.53533e+07
5.07951e+07
6.04005e+07
5.47712e+07
1.88877e+07
1.93909e+07
2.07359e+07
2.14208e+07
2.41133e+07
2.46583e+07
2.84108e+07
2.85955e+07
3.31802e+07
3.28628e+07
3.81458e+07
3.7226e+07
4.31467e+07
4.1544e+07
4.80933e+07
4.57359e+07
5.29391e+07
4.97606e+07
5.76624e+07
5.36024e+07
2.10516e+07
2.15986e+07
2.24963e+07
2.32682e+07
2.52532e+07
2.59968e+07
2.88879e+07
2.9408e+07
3.30309e+07
3.31931e+07
3.7427e+07
3.71358e+07
4.19149e+07
4.10965e+07
4.63987e+07
4.49901e+07
5.08265e+07
4.87705e+07
5.51755e+07
5.24188e+07
2.32064e+07
2.3759e+07
2.43441e+07
2.51324e+07
2.65868e+07
2.74197e+07
2.96312e+07
3.03472e+07
3.31867e+07
3.36656e+07
3.70302e+07
3.71844e+07
4.1008e+07
4.07709e+07
4.50223e+07
4.43393e+07
4.90163e+07
4.78395e+07
5.29624e+07
5.12477e+07
2.52909e+07
2.5817e+07
2.61952e+07
2.69474e+07
2.8019e+07
2.8858e+07
3.05521e+07
3.13512e+07
3.35729e+07
3.42313e+07
3.68948e+07
3.73359e+07
4.03787e+07
4.05439e+07
4.39295e+07
4.37721e+07
4.74873e+07
4.69678e+07
5.10196e+07
5.01028e+07
2.72517e+07
2.77218e+07
2.79775e+07
2.86522e+07
2.94626e+07
3.02435e+07
3.15608e+07
3.23535e+07
3.41061e+07
3.4831e+07
3.69479e+07
3.75416e+07
3.99651e+07
4.03781e+07
4.30692e+07
4.32624e+07
4.62004e+07
4.61414e+07
4.93223e+07
4.89834e+07
2.90388e+07
2.94246e+07
2.96271e+07
3.01892e+07
3.08385e+07
3.15103e+07
3.25705e+07
3.32857e+07
3.47004e+07
3.54001e+07
3.71091e+07
3.77443e+07
3.96949e+07
4.02259e+07
4.23786e+07
4.27732e+07
4.51027e+07
4.53346e+07
4.7829e+07
4.78763e+07
3.06028e+07
3.08756e+07
3.1084e+07
3.15016e+07
3.2073e+07
3.25935e+07
3.34982e+07
3.40789e+07
3.52694e+07
3.58707e+07
3.72945e+07
3.78815e+07
3.94901e+07
4.00328e+07
4.1787e+07
4.226e+07
4.41321e+07
4.45141e+07
4.64872e+07
4.67601e+07
3.1892e+07
3.20217e+07
3.22882e+07
3.25296e+07
3.30947e+07
3.34263e+07
3.42628e+07
3.46622e+07
3.57278e+07
3.61725e+07
3.74193e+07
3.78877e+07
3.92699e+07
3.97412e+07
4.12203e+07
4.16752e+07
4.32224e+07
4.36433e+07
4.52395e+07
4.56107e+07
3.28502e+07
3.28029e+07
3.31753e+07
3.32066e+07
3.3829e+07
3.39359e+07
3.47816e+07
3.49602e+07
3.59889e+07
3.62325e+07
3.73981e+07
3.7696e+07
3.89541e+07
3.92933e+07
4.06058e+07
4.09722e+07
4.23099e+07
4.26891e+07
4.40321e+07
4.44096e+07
3.34145e+07
3.31489e+07
3.36715e+07
3.34522e+07
3.4191e+07
3.4037e+07
3.49635e+07
3.48907e+07
3.59625e+07
3.59756e+07
3.71464e+07
3.72407e+07
3.84665e+07
3.86351e+07
3.98776e+07
4.01118e+07
4.13407e+07
4.16293e+07
4.28242e+07
4.31541e+07
3.35166e+07
3.29724e+07
3.36847e+07
3.31597e+07
3.40738e+07
3.36275e+07
3.47031e+07
3.43706e+07
3.55562e+07
3.53309e+07
3.65832e+07
3.64627e+07
3.7739e+07
3.77235e+07
3.89838e+07
3.90711e+07
4.02819e+07
4.04656e+07
4.1603e+07
4.1873e+07
3.309e+07
3.21434e+07
3.30816e+07
3.2169e+07
3.33264e+07
3.26303e+07
3.38984e+07
3.33353e+07
3.46856e+07
3.42414e+07
3.56383e+07
3.53199e+07
3.67209e+07
3.6539e+07
3.78995e+07
3.7862e+07
3.91399e+07
3.92474e+07
4.04087e+07
4.06535e+07
3.20883e+07
3.02358e+07
3.15383e+07
3.05408e+07
3.18849e+07
3.10417e+07
3.24853e+07
3.17566e+07
3.32848e+07
3.2684e+07
3.42628e+07
3.38114e+07
3.53954e+07
3.51175e+07
3.66529e+07
3.6572e+07
3.7999e+07
3.8132e+07
3.93886e+07
3.97078e+07
7.82061e+07
7.19507e+07
8.02111e+07
7.52219e+07
8.19555e+07
7.79452e+07
8.36004e+07
8.03465e+07
8.5205e+07
8.25396e+07
8.67861e+07
8.45867e+07
8.83435e+07
8.65241e+07
8.98722e+07
8.83762e+07
9.13684e+07
9.01634e+07
9.28341e+07
9.19084e+07
9.42803e+07
9.36402e+07
9.57302e+07
9.53969e+07
9.72206e+07
9.72272e+07
9.88028e+07
9.91906e+07
1.00543e+08
1.01357e+08
1.02519e+08
1.03802e+08
1.04822e+08
1.06606e+08
1.07543e+08
1.09839e+08
1.10771e+08
1.13531e+08
1.14564e+08
1.16904e+08
7.13201e+07
6.80697e+07
7.40811e+07
7.0802e+07
7.64848e+07
7.33669e+07
7.86253e+07
7.57529e+07
8.05774e+07
7.79847e+07
8.23962e+07
8.00945e+07
8.41224e+07
8.21139e+07
8.57876e+07
8.40724e+07
8.74186e+07
8.5999e+07
8.90418e+07
8.79235e+07
9.06854e+07
8.98786e+07
9.23821e+07
9.19007e+07
9.417e+07
9.40307e+07
9.60933e+07
9.63144e+07
9.82024e+07
9.88019e+07
1.00553e+08
1.01547e+08
1.03204e+08
1.0461e+08
1.06218e+08
1.08057e+08
1.09658e+08
1.11986e+08
1.13669e+08
1.13552e+08
6.87684e+07
6.57738e+07
7.09707e+07
6.80274e+07
7.30803e+07
7.02482e+07
7.50788e+07
7.24095e+07
7.69753e+07
7.45062e+07
7.8789e+07
7.65459e+07
8.05428e+07
7.85436e+07
8.22607e+07
8.05188e+07
8.3967e+07
8.24933e+07
8.5687e+07
8.44916e+07
8.74474e+07
8.65402e+07
8.92769e+07
8.86678e+07
9.12065e+07
9.09052e+07
9.32695e+07
9.32854e+07
9.55016e+07
9.58433e+07
9.79405e+07
9.86148e+07
1.00626e+08
1.01637e+08
1.03598e+08
1.04943e+08
1.06903e+08
1.08556e+08
1.10952e+08
1.12274e+08
6.68044e+07
6.38057e+07
6.86787e+07
6.58121e+07
7.05278e+07
6.78059e+07
7.23371e+07
6.97788e+07
7.41038e+07
7.17285e+07
7.58337e+07
7.36583e+07
7.7538e+07
7.55768e+07
7.92314e+07
7.74961e+07
8.09313e+07
7.94315e+07
8.26565e+07
8.14004e+07
8.44275e+07
8.34221e+07
8.62662e+07
8.55173e+07
8.81957e+07
8.77082e+07
9.02402e+07
9.00176e+07
9.24248e+07
9.24688e+07
9.47749e+07
9.5085e+07
9.73155e+07
9.78876e+07
1.0007e+08
1.00894e+08
1.03057e+08
1.04118e+08
1.06251e+08
1.07671e+08
6.48351e+07
6.1936e+07
6.65537e+07
6.38053e+07
6.82514e+07
6.56574e+07
6.99262e+07
6.74937e+07
7.15786e+07
6.93168e+07
7.32129e+07
7.11313e+07
7.48364e+07
7.29438e+07
7.64591e+07
7.47635e+07
7.80929e+07
7.66011e+07
7.97514e+07
7.8469e+07
8.14495e+07
8.03811e+07
8.32032e+07
8.23521e+07
8.50292e+07
8.43978e+07
8.6945e+07
8.65345e+07
8.89686e+07
8.87791e+07
9.11183e+07
9.11486e+07
9.34123e+07
9.3661e+07
9.5869e+07
9.63361e+07
9.85075e+07
9.91988e+07
1.01371e+08
1.02268e+08
6.27916e+07
6.01179e+07
6.44278e+07
6.18906e+07
6.60347e+07
6.36379e+07
6.76158e+07
6.53642e+07
6.91748e+07
6.70741e+07
7.07166e+07
6.87728e+07
7.22476e+07
7.04666e+07
7.37754e+07
7.21625e+07
7.53089e+07
7.38687e+07
7.68584e+07
7.55946e+07
7.84346e+07
7.73501e+07
8.00496e+07
7.91462e+07
8.17158e+07
8.09945e+07
8.34466e+07
8.2907e+07
8.52558e+07
8.48967e+07
8.71578e+07
8.69771e+07
8.9168e+07
8.91623e+07
9.13027e+07
9.14669e+07
9.35798e+07
9.3905e+07
9.60162e+07
9.64914e+07
6.0707e+07
5.83469e+07
6.22824e+07
6.00317e+07
6.38196e+07
6.16837e+07
6.53231e+07
6.33072e+07
6.67977e+07
6.4907e+07
6.82485e+07
6.6488e+07
6.96811e+07
6.80553e+07
7.11019e+07
6.96148e+07
7.25179e+07
7.11728e+07
7.39369e+07
7.27363e+07
7.53673e+07
7.43129e+07
7.68182e+07
7.59106e+07
7.82994e+07
7.75381e+07
7.98213e+07
7.92048e+07
8.13948e+07
8.09202e+07
8.30318e+07
8.26947e+07
8.47448e+07
8.4539e+07
8.65467e+07
8.6464e+07
8.84512e+07
8.84812e+07
9.04727e+07
9.06024e+07
5.86345e+07
5.6633e+07
6.01471e+07
5.82252e+07
6.16144e+07
5.97786e+07
6.30407e+07
6.1297e+07
6.44303e+07
6.27839e+07
6.57875e+07
6.42434e+07
6.71174e+07
6.56795e+07
6.84249e+07
6.70967e+07
6.97156e+07
6.84998e+07
7.09957e+07
6.98938e+07
7.22716e+07
7.12844e+07
7.35505e+07
7.26775e+07
7.48398e+07
7.40795e+07
7.6148e+07
7.54974e+07
7.74839e+07
7.69385e+07
7.88568e+07
7.84107e+07
8.02772e+07
7.99223e+07
8.1756e+07
8.14824e+07
8.33047e+07
8.31002e+07
8.49362e+07
8.4786e+07
5.66251e+07
5.49905e+07
5.80628e+07
5.64801e+07
5.9451e+07
5.79272e+07
6.07928e+07
5.93342e+07
6.20915e+07
6.07036e+07
6.33506e+07
6.20382e+07
6.45738e+07
6.33407e+07
6.5765e+07
6.46143e+07
6.69284e+07
6.58621e+07
6.80686e+07
6.70879e+07
6.91906e+07
6.82952e+07
7.02997e+07
6.94885e+07
7.14018e+07
7.06721e+07
7.25033e+07
7.1851e+07
7.36113e+07
7.30307e+07
7.47335e+07
7.42172e+07
7.58784e+07
7.54171e+07
7.70555e+07
7.66377e+07
7.82749e+07
7.7887e+07
7.9548e+07
7.91739e+07
5.47176e+07
5.34295e+07
5.60657e+07
5.4806e+07
5.73626e+07
5.61384e+07
5.86103e+07
5.74278e+07
5.9811e+07
5.86756e+07
6.0967e+07
5.98832e+07
6.20808e+07
6.10522e+07
6.31551e+07
6.21844e+07
6.41927e+07
6.32816e+07
6.51969e+07
6.43458e+07
6.61711e+07
6.53793e+07
6.71192e+07
6.63847e+07
6.80454e+07
6.73646e+07
6.89545e+07
6.83224e+07
6.98519e+07
6.92618e+07
7.07436e+07
7.01869e+07
7.16368e+07
7.11028e+07
7.25391e+07
7.20153e+07
7.34596e+07
7.29311e+07
7.44085e+07
7.38582e+07
5.29336e+07
5.19513e+07
5.41782e+07
5.3206e+07
5.53726e+07
5.4417e+07
5.65176e+07
5.55844e+07
5.76142e+07
5.67084e+07
5.86635e+07
5.77894e+07
5.9667e+07
5.88278e+07
6.06261e+07
5.98241e+07
6.15425e+07
6.07789e+07
6.24179e+07
6.16927e+07
6.32545e+07
6.25665e+07
6.40545e+07
6.34009e+07
6.48207e+07
6.41973e+07
6.55561e+07
6.4957e+07
6.62645e+07
6.56819e+07
6.69502e+07
6.63745e+07
6.76185e+07
6.7038e+07
6.82758e+07
6.76767e+07
6.89295e+07
6.82959e+07
6.95885e+07
6.89022e+07
5.12762e+07
5.05463e+07
5.24069e+07
5.16738e+07
5.34904e+07
5.27599e+07
5.45264e+07
5.38038e+07
5.55152e+07
5.48048e+07
5.64568e+07
5.57624e+07
5.73516e+07
5.66761e+07
5.82e+07
5.75452e+07
5.90024e+07
5.83691e+07
5.97594e+07
5.91472e+07
6.04717e+07
5.98788e+07
6.114e+07
6.05633e+07
6.17653e+07
6.11999e+07
6.23491e+07
6.17883e+07
6.28931e+07
6.23284e+07
6.33999e+07
6.28206e+07
6.38727e+07
6.3266e+07
6.43159e+07
6.36669e+07
6.47353e+07
6.40266e+07
6.5138e+07
6.43502e+07
4.97316e+07
4.91951e+07
5.07423e+07
5.01943e+07
5.17105e+07
5.11558e+07
5.26353e+07
5.20784e+07
5.3516e+07
5.29606e+07
5.43521e+07
5.38014e+07
5.5143e+07
5.45994e+07
5.58881e+07
5.53531e+07
5.65869e+07
5.60609e+07
5.72386e+07
5.67209e+07
5.78428e+07
5.73312e+07
5.83985e+07
5.78895e+07
5.89052e+07
5.83934e+07
5.93622e+07
5.88405e+07
5.97694e+07
5.92285e+07
6.01269e+07
5.95552e+07
6.04355e+07
5.98193e+07
6.06973e+07
6.00201e+07
6.09153e+07
6.01583e+07
6.10947e+07
6.02365e+07
4.82735e+07
4.78725e+07
4.91635e+07
4.87471e+07
5.0017e+07
4.95891e+07
5.08326e+07
5.03968e+07
5.16092e+07
5.11685e+07
5.23457e+07
5.19026e+07
5.30408e+07
5.25972e+07
5.36933e+07
5.32503e+07
5.43017e+07
5.38593e+07
5.48644e+07
5.44216e+07
5.53794e+07
5.49339e+07
5.58446e+07
5.53926e+07
5.62575e+07
5.57934e+07
5.66156e+07
5.61319e+07
5.69162e+07
5.64033e+07
5.71568e+07
5.66025e+07
5.73354e+07
5.67247e+07
5.74505e+07
5.67658e+07
5.7502e+07
5.67225e+07
5.74915e+07
5.65933e+07
4.68697e+07
4.65535e+07
4.76444e+07
4.73133e+07
4.83893e+07
4.80462e+07
4.9103e+07
4.87506e+07
4.97841e+07
4.94244e+07
5.04312e+07
5.0066e+07
5.10425e+07
5.0673e+07
5.16164e+07
5.1243e+07
5.21507e+07
5.17732e+07
5.26429e+07
5.226e+07
5.30902e+07
5.26993e+07
5.34891e+07
5.30864e+07
5.38355e+07
5.34155e+07
5.41247e+07
5.368e+07
5.43518e+07
5.38725e+07
5.45112e+07
5.39849e+07
5.45971e+07
5.40084e+07
5.46041e+07
5.39341e+07
5.45273e+07
5.37533e+07
5.43633e+07
5.34585e+07
4.5491e+07
4.52224e+07
4.61628e+07
4.58847e+07
4.68122e+07
4.65263e+07
4.74376e+07
4.71453e+07
4.80375e+07
4.77397e+07
4.86101e+07
4.83075e+07
4.91537e+07
4.88464e+07
4.96662e+07
4.93538e+07
5.01451e+07
4.98266e+07
5.05875e+07
5.02612e+07
5.09897e+07
5.06529e+07
5.13475e+07
5.09963e+07
5.16555e+07
5.12846e+07
5.19074e+07
5.15097e+07
5.20957e+07
5.16619e+07
5.22119e+07
5.17299e+07
5.22463e+07
5.17008e+07
5.21884e+07
5.15603e+07
5.20274e+07
5.12927e+07
5.17528e+07
5.08823e+07
4.41232e+07
4.38851e+07
4.47141e+07
4.44781e+07
4.52899e+07
4.50561e+07
4.58488e+07
4.5617e+07
4.63889e+07
4.61582e+07
4.69081e+07
4.66773e+07
4.74046e+07
4.71721e+07
4.7876e+07
4.76401e+07
4.832e+07
4.80784e+07
4.87335e+07
4.84837e+07
4.91129e+07
4.88514e+07
4.94535e+07
4.91762e+07
4.97493e+07
4.94511e+07
4.99931e+07
4.96673e+07
5.01759e+07
4.98139e+07
5.02865e+07
4.98776e+07
5.03119e+07
4.98422e+07
5.02368e+07
4.96884e+07
5.00434e+07
4.93933e+07
4.97125e+07
4.89311e+07
4.27822e+07
4.25857e+07
4.33285e+07
4.31551e+07
4.38663e+07
4.37138e+07
4.43926e+07
4.4257e+07
4.49041e+07
4.47816e+07
4.53984e+07
4.52852e+07
4.58735e+07
4.5766e+07
4.63274e+07
4.62218e+07
4.6758e+07
4.66502e+07
4.71627e+07
4.70482e+07
4.75383e+07
4.74121e+07
4.78805e+07
4.77371e+07
4.81838e+07
4.80171e+07
4.8441e+07
4.82441e+07
4.8643e+07
4.84082e+07
4.87782e+07
4.84963e+07
4.88319e+07
4.84918e+07
4.8786e+07
4.83738e+07
4.86178e+07
4.81155e+07
4.82995e+07
4.76828e+07
4.15374e+07
4.14371e+07
4.21009e+07
4.20613e+07
4.26591e+07
4.26632e+07
4.32021e+07
4.3243e+07
4.37272e+07
4.38003e+07
4.42333e+07
4.4334e+07
4.47194e+07
4.4842e+07
4.51839e+07
4.53217e+07
4.5625e+07
4.57704e+07
4.60401e+07
4.61848e+07
4.64266e+07
4.65615e+07
4.67808e+07
4.68965e+07
4.70984e+07
4.71853e+07
4.73738e+07
4.74224e+07
4.76002e+07
4.7601e+07
4.77681e+07
4.77123e+07
4.78659e+07
4.77451e+07
4.78776e+07
4.76846e+07
4.77826e+07
4.75105e+07
4.75533e+07
4.71953e+07
4.05559e+07
4.07112e+07
4.12569e+07
4.14527e+07
4.19032e+07
4.21675e+07
4.2519e+07
4.28594e+07
4.31114e+07
4.35263e+07
4.36808e+07
4.41636e+07
4.42249e+07
4.47663e+07
4.47408e+07
4.53287e+07
4.52249e+07
4.58454e+07
4.56738e+07
4.6311e+07
4.60838e+07
4.67203e+07
4.64516e+07
4.70685e+07
4.67738e+07
4.73512e+07
4.70468e+07
4.75646e+07
4.72673e+07
4.77056e+07
4.74313e+07
4.77724e+07
4.75345e+07
4.77642e+07
4.75718e+07
4.76831e+07
4.75371e+07
4.75353e+07
4.74238e+07
4.73372e+07
1.29743e+08
1.298e+08
1.2651e+08
1.21179e+08
1.18566e+08
1.12975e+08
1.11587e+08
1.06914e+08
1.05684e+08
1.01573e+08
1.00501e+08
9.6548e+07
9.57786e+07
9.18134e+07
9.13778e+07
8.73208e+07
8.71986e+07
8.29599e+07
8.31425e+07
7.86384e+07
7.91167e+07
7.42652e+07
7.50326e+07
6.97477e+07
7.08025e+07
6.49901e+07
6.63373e+07
5.98922e+07
6.15454e+07
5.43487e+07
5.63329e+07
4.82517e+07
5.06061e+07
4.15021e+07
4.42831e+07
3.40552e+07
3.73321e+07
2.61069e+07
2.99074e+07
1.89642e+07
1.25533e+08
1.28524e+08
1.28646e+08
1.31073e+08
1.3146e+08
1.27662e+08
1.2696e+08
1.22245e+08
1.21999e+08
1.15385e+08
1.1671e+08
1.09598e+08
1.11497e+08
1.0463e+08
1.0652e+08
9.96366e+07
1.01682e+08
9.47268e+07
9.69263e+07
8.98322e+07
9.21813e+07
8.48643e+07
8.73653e+07
7.97347e+07
8.23875e+07
7.43552e+07
7.71479e+07
6.86381e+07
7.1536e+07
6.25002e+07
6.54272e+07
5.58721e+07
5.86785e+07
4.87228e+07
5.11227e+07
4.11234e+07
4.25594e+07
3.34169e+07
3.27482e+07
2.66671e+07
1.19873e+08
1.24226e+08
1.2258e+08
1.26519e+08
1.25368e+08
1.28824e+08
1.28121e+08
1.31147e+08
1.30764e+08
1.27674e+08
1.29397e+08
1.22589e+08
1.2489e+08
1.16099e+08
1.19897e+08
1.11277e+08
1.14941e+08
1.06683e+08
1.10019e+08
1.02009e+08
1.05044e+08
9.71763e+07
9.99333e+07
9.212e+07
9.46069e+07
8.67809e+07
8.89819e+07
8.11067e+07
8.29726e+07
7.50552e+07
7.64908e+07
6.86038e+07
6.9449e+07
6.17705e+07
6.17721e+07
5.46562e+07
5.34228e+07
4.75329e+07
4.4459e+07
4.10256e+07
1.14536e+08
1.19296e+08
1.16692e+08
1.2128e+08
1.18975e+08
1.23316e+08
1.21361e+08
1.25416e+08
1.23886e+08
1.27581e+08
1.2649e+08
1.26463e+08
1.29116e+08
1.22898e+08
1.26471e+08
1.1826e+08
1.22388e+08
1.14813e+08
1.18143e+08
1.11031e+08
1.13676e+08
1.06925e+08
1.08947e+08
1.02499e+08
1.03921e+08
9.775e+07
9.85662e+07
9.26792e+07
9.28526e+07
8.72938e+07
8.6758e+07
8.1622e+07
8.0277e+07
7.57311e+07
7.344e+07
6.97617e+07
6.63478e+07
6.39868e+07
5.92394e+07
5.89118e+07
1.10881e+08
1.14988e+08
1.12428e+08
1.1659e+08
1.14158e+08
1.18294e+08
1.1605e+08
1.20097e+08
1.18121e+08
1.22005e+08
1.20347e+08
1.23096e+08
1.22742e+08
1.21514e+08
1.25092e+08
1.19657e+08
1.2305e+08
1.17611e+08
1.20335e+08
1.15049e+08
1.17075e+08
1.12047e+08
1.13355e+08
1.08663e+08
1.09233e+08
1.04944e+08
1.04754e+08
1.00936e+08
9.99612e+07
9.66943e+07
9.49085e+07
9.22966e+07
8.96778e+07
8.78599e+07
8.4404e+07
8.35662e+07
7.93151e+07
7.96987e+07
7.47908e+07
7.66823e+07
1.08156e+08
1.09763e+08
1.09401e+08
1.11547e+08
1.10805e+08
1.12882e+08
1.12385e+08
1.13994e+08
1.14124e+08
1.14927e+08
1.16014e+08
1.15701e+08
1.18038e+08
1.15985e+08
1.19442e+08
1.15846e+08
1.19009e+08
1.15142e+08
1.17781e+08
1.13928e+08
1.15903e+08
1.12263e+08
1.13493e+08
1.10212e+08
1.10649e+08
1.07839e+08
1.07461e+08
1.05219e+08
1.04025e+08
1.02441e+08
1.00452e+08
9.96176e+07
9.68898e+07
9.68995e+07
9.35396e+07
9.44903e+07
9.06855e+07
9.26639e+07
8.87209e+07
9.17774e+07
9.9757e+07
9.78818e+07
1.0222e+08
1.00265e+08
1.04397e+08
1.02461e+08
1.06348e+08
1.04466e+08
1.08136e+08
1.06257e+08
1.09794e+08
1.07779e+08
1.11207e+08
1.08959e+08
1.12226e+08
1.09736e+08
1.12679e+08
1.10088e+08
1.12558e+08
1.10026e+08
1.11903e+08
1.0958e+08
1.10783e+08
1.08801e+08
1.09281e+08
1.07753e+08
1.07496e+08
1.06521e+08
1.05543e+08
1.05205e+08
1.03562e+08
1.03936e+08
1.01728e+08
1.02872e+08
1.00261e+08
1.02212e+08
9.94386e+07
1.02199e+08
9.95991e+07
1.03116e+08
9.02553e+07
9.00426e+07
9.28468e+07
9.25481e+07
9.52939e+07
9.48824e+07
9.75878e+07
9.70511e+07
9.97244e+07
9.90452e+07
1.01686e+08
1.00842e+08
1.03428e+08
1.02409e+08
1.04875e+08
1.0371e+08
1.05955e+08
1.04723e+08
1.06636e+08
1.05443e+08
1.06925e+08
1.05888e+08
1.0686e+08
1.06092e+08
1.06509e+08
1.06114e+08
1.05962e+08
1.06033e+08
1.05335e+08
1.0595e+08
1.04773e+08
1.05992e+08
1.04448e+08
1.06313e+08
1.0457e+08
1.07092e+08
1.05381e+08
1.08531e+08
1.07149e+08
1.10845e+08
8.32134e+07
8.38697e+07
8.58462e+07
8.65172e+07
8.8356e+07
8.8908e+07
9.07234e+07
9.11103e+07
9.29405e+07
9.31541e+07
9.49984e+07
9.50476e+07
9.68795e+07
9.67852e+07
9.85532e+07
9.83546e+07
9.99863e+07
9.9745e+07
1.01158e+08
1.00954e+08
1.02071e+08
1.01994e+08
1.02752e+08
1.02893e+08
1.03254e+08
1.03702e+08
1.03659e+08
1.04492e+08
1.0407e+08
1.05355e+08
1.04622e+08
1.06409e+08
1.05473e+08
1.07794e+08
1.06808e+08
1.09672e+08
1.08836e+08
1.12222e+08
1.11778e+08
1.15618e+08
7.73574e+07
8.04932e+07
8.0417e+07
8.28744e+07
8.31073e+07
8.49325e+07
8.55191e+07
8.68393e+07
8.77179e+07
8.86598e+07
8.97452e+07
9.04147e+07
9.16219e+07
9.21056e+07
9.33528e+07
9.37268e+07
9.49336e+07
9.52727e+07
9.63617e+07
9.67436e+07
9.76449e+07
9.81501e+07
9.88085e+07
9.95166e+07
9.98983e+07
1.00885e+08
1.00983e+08
1.02314e+08
1.02153e+08
1.03884e+08
1.03523e+08
1.05692e+08
1.05228e+08
1.07858e+08
1.07426e+08
1.10519e+08
1.10293e+08
1.13855e+08
1.14046e+08
1.18147e+08
)
;

boundaryField
{
    back
    {
        type            empty;
    }
    front
    {
        type            empty;
    }
    left
    {
        type            calculated;
        value           nonuniform List<scalar> 
30
(
8.93098e+07
6.4416e+07
6.37672e+07
7.37464e+07
8.46599e+07
9.37857e+07
1.01441e+08
1.08647e+08
1.15875e+08
1.22837e+08
1.29743e+08
1.2651e+08
1.18566e+08
1.11587e+08
1.05684e+08
1.00501e+08
9.57786e+07
9.13778e+07
8.71986e+07
8.31425e+07
7.91167e+07
7.50326e+07
7.08025e+07
6.63373e+07
6.15454e+07
5.63329e+07
5.06061e+07
4.42831e+07
3.73321e+07
2.99074e+07
)
;
    }
    hole
    {
        type            calculated;
        value           nonuniform List<scalar> 
20
(
8.93098e+07
8.232e+07
7.2345e+07
5.98445e+07
4.86326e+07
4.8043e+07
4.07547e+07
3.28338e+07
2.07014e+07
8.53689e+06
1.19105e+07
2.47319e+07
3.74761e+07
4.93831e+07
6.02098e+07
6.97234e+07
7.76671e+07
8.37956e+07
8.79856e+07
9.11431e+07
)
;
    }
    down
    {
        type            calculated;
        value           nonuniform List<scalar> 
30
(
7.47029e+07
6.04981e+07
4.95382e+07
4.09289e+07
3.41248e+07
2.87368e+07
2.44754e+07
2.11302e+07
1.85709e+07
1.67825e+07
1.83861e+07
1.39493e+07
1.22574e+07
1.22509e+07
1.32638e+07
1.48637e+07
1.67907e+07
1.88877e+07
2.10516e+07
2.32064e+07
2.52909e+07
2.72517e+07
2.90388e+07
3.06028e+07
3.1892e+07
3.28502e+07
3.34145e+07
3.35166e+07
3.309e+07
3.20883e+07
)
;
    }
    right
    {
        type            calculated;
        value           nonuniform List<scalar> 
30
(
3.02358e+07
3.05408e+07
3.10417e+07
3.17566e+07
3.2684e+07
3.38114e+07
3.51175e+07
3.6572e+07
3.8132e+07
3.97078e+07
4.07112e+07
4.14527e+07
4.21675e+07
4.28594e+07
4.35263e+07
4.41636e+07
4.47663e+07
4.53287e+07
4.58454e+07
4.6311e+07
4.67203e+07
4.70685e+07
4.73512e+07
4.75646e+07
4.77056e+07
4.77724e+07
4.77642e+07
4.76831e+07
4.75353e+07
4.73372e+07
)
;
    }
    up
    {
        type            calculated;
        value           nonuniform List<scalar> 
30
(
1.16904e+08
1.13552e+08
1.12274e+08
1.07671e+08
1.02268e+08
9.64914e+07
9.06024e+07
8.4786e+07
7.91739e+07
7.38582e+07
6.89022e+07
6.43502e+07
6.02365e+07
5.65933e+07
5.34585e+07
5.08823e+07
4.89311e+07
4.76828e+07
4.71953e+07
4.73372e+07
1.89642e+07
2.66671e+07
4.10256e+07
5.89118e+07
7.66823e+07
9.17774e+07
1.03116e+08
1.10845e+08
1.15618e+08
1.18147e+08
)
;
    }
}


// ************************************************************************* //
