/*--------------------------------*- C++ -*----------------------------------*\
| =========                 |                                                 |
| \\      /  F ield         | OpenFOAM: The Open Source CFD Toolbox           |
|  \\    /   O peration     | Version:  v2012                                 |
|   \\  /    A nd           | Website:  www.openfoam.com                      |
|    \\/     M anipulation  |                                                 |
\*---------------------------------------------------------------------------*/
FoamFile
{
    version     2.0;
    format      ascii;
    class       pointSymmTensorField;
    location    "16";
    object      pEpsilon;
}
// * * * * * * * * * * * * * * * * * * * * * * * * * * * * * * * * * * * * * //

dimensions      [0 0 0 0 0 0 0];


internalField   nonuniform List<symmTensor> 
7900
(
(0.000531568 9.56262e-06 1.53957e-15 -0.00139203 0 0)
(0.000563873 -3.63222e-06 -7.58942e-16 1.79535e-05 0 0)
(0.000694677 5.11922e-07 7.069e-16 -0.000298153 1.28546e-15 0)
(0.000246697 6.27559e-05 0 -0.000146776 -1.20672e-15 0)
(0.00867801 -0.000176185 0 -0.00790607 7.18311e-15 0)
(0.000531568 9.56262e-06 1.53957e-15 -0.00139203 0 0)
(0.000563873 -3.63222e-06 -7.58942e-16 1.79535e-05 0 0)
(0.000694677 5.11922e-07 7.069e-16 -0.000298153 1.28546e-15 0)
(0.000246697 6.27559e-05 0 -0.000146776 -1.20672e-15 0)
(0.00867801 -0.000176185 0 -0.00790607 7.18311e-15 0)
(0.000440897 -1.46394e-06 2.09793e-15 -0.00116372 0 0)
(0.000336972 -8.10064e-06 1.02566e-15 -0.000943359 0 0)
(0.000261243 -1.98935e-05 1.36826e-15 -0.000801687 0 0)
(0.000193023 -2.25836e-05 1.06035e-15 -0.00065471 0 0)
(0.000144109 -1.55052e-05 4.4886e-16 -0.000538556 0 0)
(0.00011672 -1.43598e-05 2.53703e-16 -0.000449298 0 0)
(9.83876e-05 -1.51219e-05 1.30104e-16 -0.000375944 0 0)
(8.91553e-05 -1.5458e-05 1.73472e-17 -0.000317322 0 0)
(8.28726e-05 -1.78522e-05 -9.75782e-17 -0.00026297 0 0)
(7.91172e-05 -2.56171e-05 -1.38778e-16 -0.000215729 0 0)
(7.8494e-05 -1.94131e-05 -9.97466e-17 -0.000172951 0 0)
(9.0736e-05 -1.96851e-05 -4.77049e-17 -0.000145755 0 0)
(9.64982e-05 -2.43094e-05 -2.81893e-17 -0.000117999 0 0)
(0.000106816 -1.79093e-05 -4.11997e-17 -9.65953e-05 0 0)
(0.000120326 -2.26367e-05 -4.11997e-17 -8.04656e-05 0 0)
(0.000130715 -1.70586e-05 -4.55365e-17 -6.46058e-05 0 0)
(0.000145641 -1.35963e-05 -3.46945e-17 -5.10985e-05 0 0)
(0.000160465 -1.56313e-05 -6.50521e-17 -4.05234e-05 0 0)
(0.000174013 -1.32957e-05 -3.23092e-16 -3.1477e-05 0 0)
(0.00019037 -1.50879e-05 -1.92988e-16 -2.6198e-05 0 0)
(0.000208156 -1.48755e-05 -1.25767e-16 -2.31571e-05 0 0)
(0.000221294 -1.3841e-05 -3.68629e-17 -1.93739e-05 0 0)
(0.000239113 -1.37151e-05 -2.08167e-16 -1.73073e-05 0 0)
(0.00025286 -1.33905e-05 -4.53197e-16 -1.64677e-05 0 0)
(0.000270764 -1.25252e-05 -7.80626e-17 -1.74852e-05 0 0)
(0.000285222 -1.03596e-05 1.27936e-16 -1.77401e-05 0 0)
(0.00030077 -1.18293e-05 -2.64545e-16 -1.92429e-05 0 0)
(0.00031843 -1.08292e-05 4.83554e-16 -2.14795e-05 0 0)
(0.000332046 -1.06997e-05 4.11997e-16 -2.49436e-05 0 0)
(0.000349249 -1.05506e-05 -3.64292e-16 -2.8347e-05 0 0)
(0.000361794 -9.92972e-06 -5.05238e-16 -3.18709e-05 0 0)
(0.000377583 -1.0051e-05 -8.45678e-16 -3.52172e-05 0 0)
(0.000393308 -8.78917e-06 7.43763e-16 -3.97727e-05 0 0)
(0.000405954 -7.85753e-06 1.14492e-15 -4.48497e-05 0 0)
(0.000421346 -7.6726e-06 -1.79761e-15 -4.81866e-05 0 0)
(0.00043401 -6.03932e-06 -1.88001e-15 -5.26417e-05 0 0)
(0.000445222 -5.24583e-06 -4.72712e-16 -5.68394e-05 0 0)
(0.000457848 -6.30071e-06 -1.11239e-15 -6.0148e-05 0 0)
(0.000470167 -7.33283e-06 -3.9465e-16 -6.43991e-05 0 0)
(0.000482619 -7.25149e-06 5.55112e-16 -6.85799e-05 0 0)
(0.000493689 -6.21659e-06 -1.5851e-15 -7.22994e-05 0 0)
(0.000504539 -5.61709e-06 -4.90059e-16 -7.48133e-05 0 0)
(0.000512939 -6.18576e-06 -2.0383e-16 -7.72013e-05 0 0)
(0.000523183 -6.76676e-06 8.00141e-16 -7.94566e-05 0 0)
(0.00053329 -6.00956e-06 -5.5728e-16 -8.13683e-05 0 0)
(0.000541252 -4.50857e-06 2.4503e-16 -8.23825e-05 0 0)
(0.000547473 -4.3343e-06 6.09322e-16 -8.22348e-05 0 0)
(0.000555285 -4.62886e-06 9.75782e-17 -8.19552e-05 0 0)
(0.000561154 -5.28845e-06 9.97466e-17 -8.0293e-05 0 0)
(0.000565898 -4.4591e-06 -1.39645e-15 -7.74817e-05 0 0)
(0.000570539 -4.8559e-06 -1.1666e-15 -7.41606e-05 0 0)
(0.000574401 -4.76199e-06 -9.54098e-16 -7.02883e-05 0 0)
(0.000576443 -3.82173e-06 -1.06685e-15 -6.4285e-05 0 0)
(0.000578173 -3.48291e-06 -1.10372e-15 -5.77057e-05 0 0)
(0.000578245 -3.09298e-06 4.57533e-16 -4.83716e-05 0 0)
(0.00057838 -3.57455e-06 7.58942e-16 -3.94118e-05 0 0)
(0.000574717 -5.39039e-06 6.61363e-16 -2.64132e-05 0 0)
(0.000569609 -3.11728e-06 -3.51282e-16 -1.21307e-05 0 0)
(0.000566097 -2.61465e-06 -3.51282e-16 2.37893e-06 0 0)
(0.00056336 -1.30048e-06 -4.92228e-16 1.88757e-05 -1.18538e-15 0)
(0.000557515 -1.72893e-06 -8.26162e-16 2.00291e-05 -1.07898e-15 0)
(0.000569019 -2.20262e-06 6.80879e-16 1.31172e-05 -2.37153e-16 0)
(0.000566546 -1.83819e-06 8.34836e-16 1.19057e-05 4.56462e-16 0)
(0.000569456 -2.15829e-06 1.30104e-16 4.77696e-06 -2.93757e-16 0)
(0.000571596 -5.39901e-06 -8.23994e-17 -4.86167e-07 8.39986e-16 0)
(0.000573541 -3.51012e-06 1.45934e-15 -5.89654e-06 -9.62723e-16 0)
(0.000576665 -5.27626e-06 1.79978e-15 -1.4242e-05 -2.24525e-16 0)
(0.000581949 -6.34998e-06 -6.76542e-16 -2.25147e-05 -5.77528e-17 0)
(0.000584283 -3.41951e-06 1.09504e-15 -3.07393e-05 -5.67076e-16 0)
(0.000588777 -4.10014e-06 2.32019e-16 -4.3001e-05 -8.93527e-16 0)
(0.00059345 -6.46788e-06 9.02056e-16 -5.37909e-05 -1.79733e-16 0)
(0.000596512 -4.90181e-06 5.22585e-16 -6.32556e-05 1.06649e-15 0)
(0.000603133 -6.14251e-06 1.22081e-15 -7.77979e-05 2.54682e-16 0)
(0.000608757 -8.07554e-06 -2.02529e-15 -9.0724e-05 1.09466e-15 0)
(0.000611727 -7.47803e-06 2.08167e-16 -0.000101443 7.83565e-16 0)
(0.000617832 -8.306e-06 1.34441e-16 -0.00011599 3.01069e-16 0)
(0.000625672 -9.68283e-06 -1.7022e-15 -0.000130925 -1.21973e-17 0)
(0.000629099 -7.79546e-06 -1.65232e-15 -0.000142826 1.97172e-16 0)
(0.000636597 -7.16594e-06 -1.24466e-15 -0.000158166 -1.2719e-16 0)
(0.000641054 -7.09658e-06 3.33934e-16 -0.000171405 -1.00534e-15 0)
(0.000645385 -8.3412e-06 -9.2374e-16 -0.000184718 1.41522e-16 0)
(0.000653179 -8.44038e-06 1.76508e-15 -0.000199719 7.10051e-16 0)
(0.000659162 -8.19862e-06 7.67615e-16 -0.000213306 1.16924e-15 0)
(0.000662084 -6.57668e-06 -1.36609e-16 -0.000223958 1.97054e-16 0)
(0.000668693 -5.65468e-06 -8.0231e-17 -0.000237342 6.79829e-16 0)
(0.000673186 -4.6655e-06 -3.88144e-16 -0.000249603 -6.67394e-16 0)
(0.000675921 -5.34254e-06 2.34188e-16 -0.000258416 3.38949e-16 0)
(0.00068069 -4.25128e-06 -1.06902e-15 -0.000268603 6.65023e-16 0)
(0.000684191 -4.47952e-06 1.14275e-15 -0.000277324 -4.24939e-16 0)
(0.000687894 -3.28918e-06 -2.1684e-17 -0.00028519 -5.57551e-16 0)
(0.000689397 -2.92072e-06 1.36176e-15 -0.000290621 -1.50067e-15 0)
(0.000692705 -1.97963e-06 7.22079e-16 -0.000296529 -9.51523e-16 0)
(0.000693751 -2.3325e-06 -1.58727e-15 -0.000299365 -8.02716e-16 0)
(0.00069502 -4.49117e-07 -2.62377e-16 -0.00030125 -4.90601e-17 0)
(0.000695763 1.59013e-07 -1.23599e-16 -0.000302635 6.22332e-16 0)
(0.000694916 5.28862e-07 -2.91e-15 -0.0003014 -1.39998e-16 0)
(0.000696326 9.57146e-07 2.81893e-16 -0.000300666 7.66124e-16 0)
(0.000695349 6.69353e-07 -3.56269e-15 -0.000299067 5.29904e-17 0)
(0.000693674 7.23263e-07 -6.02816e-16 -0.00029748 8.51234e-16 0)
(0.000692214 1.05524e-06 5.89806e-16 -0.000297021 1.47113e-15 0)
(0.00069141 4.43733e-07 3.27429e-16 -0.000297639 6.65294e-16 0)
(0.000690365 2.84503e-08 1.08203e-15 -0.000296943 1.16782e-15 0)
(0.00069093 -8.68622e-07 -5.78964e-16 -0.000297963 1.12012e-15 0)
(0.00069267 -7.1521e-07 -1.18395e-15 -0.000298476 1.49349e-16 0)
(0.000696469 -2.19907e-06 -2.25514e-16 -0.000300757 1.61655e-15 0)
(0.000700583 -2.84198e-06 -3.79471e-16 -0.000301417 2.15539e-15 0)
(0.000708094 -3.88481e-06 -1.08854e-15 -0.000305923 4.28124e-16 0)
(0.000714617 -4.23761e-06 -2.64328e-15 -0.000308312 -1.14085e-15 0)
(0.000724107 -5.02416e-06 -1.17094e-15 -0.000313599 -6.88739e-16 0)
(0.000733246 -4.6151e-06 -1.66533e-15 -0.000315398 6.26804e-16 0)
(0.000745114 -6.02761e-06 2.76255e-15 -0.000322062 -5.82894e-16 0)
(0.000755323 -5.66187e-06 -2.1684e-17 -0.000324851 -6.13387e-16 0)
(0.000769295 -6.9823e-06 -6.87384e-16 -0.000329948 -6.0119e-16 0)
(0.000785383 -8.48037e-06 1.33791e-15 -0.000338188 -7.43356e-16 0)
(0.000800904 -9.38111e-06 2.90566e-15 -0.000344999 -5.77338e-16 0)
(0.000814478 -8.09463e-06 1.39971e-15 -0.000349171 -1.21702e-16 0)
(0.000832538 -8.98095e-06 -2.85796e-15 -0.000356996 -4.84503e-16 0)
(0.000850351 -1.06552e-05 3.11166e-16 -0.000363824 -3.90313e-16 0)
(0.000870677 -1.10454e-05 1.30863e-15 -0.000373463 3.99664e-16 0)
(0.000891218 -1.13534e-05 2.92735e-17 -0.000381245 1.16159e-15 0)
(0.000910707 -1.53941e-05 2.52511e-15 -0.000389598 7.275e-16 0)
(0.000930961 -1.04275e-05 2.87422e-15 -0.000397999 -8.23587e-16 0)
(0.000955538 -9.57394e-06 -2.53595e-15 -0.000409291 8.2684e-16 0)
(0.000975591 -1.19578e-05 -3.9877e-15 -0.000414909 1.5992e-15 0)
(0.00100173 -1.16456e-05 -4.75965e-16 -0.000428315 -2.72582e-15 0)
(0.00102288 -1.42464e-05 7.55689e-16 -0.000433768 4.68104e-16 0)
(0.00105048 -1.23527e-05 1.11348e-15 -0.000448428 5.82759e-16 0)
(0.00107478 -1.46719e-05 4.21755e-16 -0.000454892 -4.39237e-16 0)
(0.00110279 -1.17531e-05 -9.54098e-17 -0.000469651 5.83843e-16 0)
(0.00112651 -1.38231e-05 4.15249e-16 -0.000475753 -1.40675e-16 0)
(0.0011602 -1.34685e-05 -9.29161e-16 -0.000494122 1.00153e-15 0)
(0.00118493 -1.95332e-05 -2.47523e-15 -0.000502011 4.10642e-17 0)
(0.00121614 -1.54973e-05 3.08998e-15 -0.000516648 -1.19804e-16 0)
(0.00124258 -1.77698e-05 1.28109e-14 -0.000521992 -2.45057e-15 0)
(0.00127463 -1.71422e-05 1.5374e-15 -0.000540209 3.00785e-15 0)
(0.00130069 -1.85933e-05 -6.19079e-16 -0.000548558 2.10688e-15 0)
(0.00133683 -1.39119e-05 2.9306e-15 -0.000567383 1.56234e-15 0)
(0.00136673 -1.53805e-05 -6.41848e-16 -0.000578453 -2.87259e-15 0)
(0.00139205 -1.89148e-05 3.92698e-15 -0.000583975 4.94125e-16 0)
(0.00142958 -1.43359e-05 8.91214e-16 -0.000604648 -8.21012e-16 0)
(0.00145422 -2.01706e-05 7.84854e-15 -0.000610773 -6.51334e-16 0)
(0.00148171 -1.79379e-05 1.02544e-14 -0.000623772 1.25659e-15 0)
(0.00151834 -1.15861e-05 1.14709e-15 -0.000640468 4.13406e-15 0)
(0.00154297 -2.0606e-05 8.50882e-15 -0.000649814 -8.17759e-16 0)
(0.00156346 -1.36384e-05 8.45895e-15 -0.000655487 2.95066e-15 0)
(0.00159647 -7.45291e-06 -1.88543e-15 -0.000673218 -1.1498e-15 0)
(0.00161192 -1.1723e-05 -6.12357e-15 -0.000676789 2.65901e-15 0)
(0.0016435 2.36206e-06 4.60244e-16 -0.000696715 3.483e-16 0)
(0.00168296 4.78988e-06 5.76525e-15 -0.000716297 -1.01888e-15 0)
(0.00173357 1.0804e-05 -3.23472e-15 -0.000761704 -2.79534e-15 0)
(0.00176967 -1.30576e-05 -3.07913e-16 -0.000798397 -2.8135e-15 0)
(0.00177821 -1.62462e-05 -4.15792e-16 -0.000795003 -1.76129e-15 0)
(0.00178861 -1.27805e-05 -1.03465e-14 -0.000791924 -3.70472e-15 0)
(0.00177944 -1.35913e-05 -1.18612e-14 -0.000746884 -1.20509e-15 0)
(0.00181123 -7.90629e-07 -1.46861e-14 -0.000800521 4.27176e-16 0)
(0.00184059 -9.79421e-06 6.07316e-15 -0.000844846 2.1001e-15 0)
(0.00178404 -2.83917e-05 9.30517e-15 -0.000731255 2.54462e-15 0)
(0.00177133 -1.21207e-06 -7.04352e-15 -0.000743136 -4.47233e-16 0)
(0.00176889 -1.68665e-06 2.49909e-15 -0.000743163 7.86047e-17 0)
(0.0017476 1.15183e-05 -6.75892e-15 -0.000730994 1.97379e-15 0)
(0.0017197 2.08842e-05 2.57227e-16 -0.00071993 -7.44305e-16 0)
(0.00168115 3.44804e-05 5.24564e-15 -0.000705598 2.543e-15 0)
(0.00162878 4.2517e-05 2.98915e-15 -0.000676109 -2.57552e-15 0)
(0.00156271 4.03957e-05 4.73688e-15 -0.000661665 1.08095e-15 0)
(0.00146364 5.61087e-05 -1.4817e-15 -0.000620045 2.13046e-15 0)
(0.00137206 7.22377e-05 -2.82665e-15 -0.000595968 -1.02674e-15 0)
(0.00124395 7.27746e-05 -9.05851e-16 -0.000539144 -1.75749e-15 0)
(0.00110677 6.92009e-05 -1.28627e-15 -0.000487655 4.77049e-17 0)
(0.000988327 8.8981e-05 3.20287e-15 -0.00045205 1.4962e-15 0)
(0.000870887 8.01826e-05 1.70823e-15 -0.000406917 2.04697e-15 0)
(0.000715138 6.14855e-05 1.24263e-15 -0.00033886 1.37802e-15 0)
(0.000611984 8.56324e-05 2.32629e-16 -0.000311258 -1.64799e-16 0)
(0.00052436 5.72489e-05 5.1913e-16 -0.000283576 -1.40946e-16 0)
(0.000384168 3.51851e-05 1.54922e-16 -0.000212256 2.80808e-16 0)
(0.000331993 6.24624e-05 9.01836e-16 -0.000208526 -2.27682e-16 0)
(0.000254474 -2.47136e-06 1.32735e-15 -0.000162766 -8.31583e-16 0)
(0.0002071 2.98389e-05 6.94419e-16 -0.000139727 -6.66784e-16 0)
(0.000481387 4.52364e-05 0 -0.000211381 -9.5193e-16 0)
(0.0006783 2.91895e-05 0 -0.000244045 -1.51788e-17 0)
(0.000867764 6.46385e-05 0 -0.000285398 -2.51535e-16 0)
(0.00104876 6.03713e-05 0 -0.000319034 3.96818e-16 0)
(0.00122361 8.53653e-05 0 -0.000342127 -2.86771e-15 0)
(0.00137375 7.16021e-05 0 -0.000346783 -1.30104e-16 0)
(0.00151692 6.62266e-05 0 -0.000335355 7.04731e-16 0)
(0.00165206 7.81319e-05 0 -0.000305045 -4.17635e-15 0)
(0.00185776 0.000106173 0 -0.00033313 -5.53594e-15 0)
(0.00210214 6.04893e-05 0 -0.000410067 1.18178e-15 0)
(0.00244848 6.17715e-05 0 -0.000578344 -7.00178e-15 0)
(0.00299266 0.000103582 0 -0.00104444 -1.01709e-14 0)
(0.00370091 8.1914e-05 0 -0.00188877 -4.17309e-15 0)
(0.00479812 2.29483e-05 0 -0.00291405 -2.26197e-14 0)
(0.0058296 7.12476e-06 0 -0.00425582 -7.86806e-15 0)
(0.00689991 -0.000149307 0 -0.00570892 -3.28947e-15 0)
(0.00791388 -0.000290074 0 -0.00681974 3.31939e-14 0)
(0.00841409 -0.000316547 0 -0.00772368 8.72241e-15 0)
(0.00794676 -0.000445748 0 -0.00779327 2.96855e-15 0)
(0.009044 -0.00116249 5.97986e-14 -0.00959512 2.24476e-14 0)
(0.00833764 -0.0021348 -5.12096e-15 -0.00876719 2.64903e-14 0)
(0.0071743 -0.00261735 -2.59504e-15 -0.00704496 2.08519e-14 0)
(0.0060915 -0.00260917 -1.61438e-15 -0.00588538 3.45318e-15 0)
(0.00569041 -0.00275328 2.03521e-14 -0.00535016 -2.53194e-14 0)
(0.00432379 -0.00312824 8.98804e-15 -0.00365113 -9.67163e-15 0)
(0.00255221 -0.00227799 8.67362e-17 -0.0017165 -1.27827e-15 0)
(0.00159612 -0.00125863 -1.77809e-16 -0.000831583 -4.09124e-15 0)
(0.000738787 -0.000668224 2.52944e-15 -2.32227e-05 -3.18972e-15 0)
(0.000444545 -0.000377824 -1.00289e-15 -7.91111e-05 -4.21538e-15 0)
(0.000402266 -0.000347988 -2.17274e-15 -6.05552e-05 -1.49457e-15 0)
(0.000331012 -0.000304066 1.60354e-15 -4.79045e-05 8.12067e-16 0)
(0.000248643 -0.0002224 7.1991e-16 -4.10077e-05 1.36067e-16 0)
(0.000170732 -0.000150169 1.12432e-15 -4.37756e-05 3.97902e-16 0)
(0.000125379 -6.64913e-05 1.07553e-15 -8.52713e-05 6.0878e-16 0)
(6.43628e-05 3.65244e-05 8.50015e-16 -0.000108596 5.20959e-16 0)
(4.49813e-05 0.000110973 5.17164e-16 -0.000176607 2.29309e-16 0)
(-1.27514e-06 0.000205598 5.84385e-16 -0.000206021 3.41524e-16 0)
(-8.71112e-06 0.000302031 5.75711e-16 -0.00028918 3.82723e-16 0)
(3.25633e-05 0.00034158 4.97649e-16 -0.000412904 4.6702e-16 0)
(7.05347e-05 0.000400462 8.7712e-16 -0.000508423 -1.05168e-16 0)
(0.000111006 0.000447676 1.10805e-15 -0.000619635 3.01408e-16 0)
(0.000155299 0.000431646 1.06577e-15 -0.000732967 1.45446e-15 0)
(0.000224047 0.000465368 1.06252e-16 -0.00083958 -3.60226e-16 0)
(0.000272172 0.000454318 -2.1684e-16 -0.00094164 1.22813e-15 0)
(0.000342668 0.000440857 -1.28044e-15 -0.00106009 3.16546e-15 0)
(0.000406421 0.000350641 -2.26598e-16 -0.00115909 1.09748e-15 0)
(0.000426914 0.000322707 1.25117e-15 -0.00121303 -4.32149e-15 0)
(0.000478305 0.00023645 -1.2013e-15 -0.00128413 -2.42387e-15 0)
(0.00050888 0.000191766 1.66859e-15 -0.00132172 -6.61268e-15 0)
(0.000503632 9.96134e-05 -5.80048e-16 -0.00135325 -3.43506e-15 0)
(0.000440897 -1.46394e-06 2.09793e-15 -0.00116372 0 0)
(0.000336972 -8.10064e-06 1.02566e-15 -0.000943359 0 0)
(0.000261243 -1.98935e-05 1.36826e-15 -0.000801687 0 0)
(0.000193023 -2.25836e-05 1.06035e-15 -0.00065471 0 0)
(0.000144109 -1.55052e-05 4.4886e-16 -0.000538556 0 0)
(0.00011672 -1.43598e-05 2.53703e-16 -0.000449298 0 0)
(9.83876e-05 -1.51219e-05 1.30104e-16 -0.000375944 0 0)
(8.91553e-05 -1.5458e-05 1.73472e-17 -0.000317322 0 0)
(8.28726e-05 -1.78522e-05 -9.75782e-17 -0.00026297 0 0)
(7.91172e-05 -2.56171e-05 -1.38778e-16 -0.000215729 0 0)
(7.8494e-05 -1.94131e-05 -9.97466e-17 -0.000172951 0 0)
(9.0736e-05 -1.96851e-05 -4.77049e-17 -0.000145755 0 0)
(9.64982e-05 -2.43094e-05 -2.81893e-17 -0.000117999 0 0)
(0.000106816 -1.79093e-05 -4.11997e-17 -9.65953e-05 0 0)
(0.000120326 -2.26367e-05 -4.11997e-17 -8.04656e-05 0 0)
(0.000130715 -1.70586e-05 -4.55365e-17 -6.46058e-05 0 0)
(0.000145641 -1.35963e-05 -3.46945e-17 -5.10985e-05 0 0)
(0.000160465 -1.56313e-05 -6.50521e-17 -4.05234e-05 0 0)
(0.000174013 -1.32957e-05 -3.23092e-16 -3.1477e-05 0 0)
(0.00019037 -1.50879e-05 -1.92988e-16 -2.6198e-05 0 0)
(0.000208156 -1.48755e-05 -1.25767e-16 -2.31571e-05 0 0)
(0.000221294 -1.3841e-05 -3.68629e-17 -1.93739e-05 0 0)
(0.000239113 -1.37151e-05 -2.08167e-16 -1.73073e-05 0 0)
(0.00025286 -1.33905e-05 -4.53197e-16 -1.64677e-05 0 0)
(0.000270764 -1.25252e-05 -7.80626e-17 -1.74852e-05 0 0)
(0.000285222 -1.03596e-05 1.27936e-16 -1.77401e-05 0 0)
(0.00030077 -1.18293e-05 -2.64545e-16 -1.92429e-05 0 0)
(0.00031843 -1.08292e-05 4.83554e-16 -2.14795e-05 0 0)
(0.000332046 -1.06997e-05 4.11997e-16 -2.49436e-05 0 0)
(0.000349249 -1.05506e-05 -3.64292e-16 -2.8347e-05 0 0)
(0.000361794 -9.92972e-06 -5.05238e-16 -3.18709e-05 0 0)
(0.000377583 -1.0051e-05 -8.45678e-16 -3.52172e-05 0 0)
(0.000393308 -8.78917e-06 7.43763e-16 -3.97727e-05 0 0)
(0.000405954 -7.85753e-06 1.14492e-15 -4.48497e-05 0 0)
(0.000421346 -7.6726e-06 -1.79761e-15 -4.81866e-05 0 0)
(0.00043401 -6.03932e-06 -1.88001e-15 -5.26417e-05 0 0)
(0.000445222 -5.24583e-06 -4.72712e-16 -5.68394e-05 0 0)
(0.000457848 -6.30071e-06 -1.11239e-15 -6.0148e-05 0 0)
(0.000470167 -7.33283e-06 -3.9465e-16 -6.43991e-05 0 0)
(0.000482619 -7.25149e-06 5.55112e-16 -6.85799e-05 0 0)
(0.000493689 -6.21659e-06 -1.5851e-15 -7.22994e-05 0 0)
(0.000504539 -5.61709e-06 -4.90059e-16 -7.48133e-05 0 0)
(0.000512939 -6.18576e-06 -2.0383e-16 -7.72013e-05 0 0)
(0.000523183 -6.76676e-06 8.00141e-16 -7.94566e-05 0 0)
(0.00053329 -6.00956e-06 -5.5728e-16 -8.13683e-05 0 0)
(0.000541252 -4.50857e-06 2.4503e-16 -8.23825e-05 0 0)
(0.000547473 -4.3343e-06 6.09322e-16 -8.22348e-05 0 0)
(0.000555285 -4.62886e-06 9.75782e-17 -8.19552e-05 0 0)
(0.000561154 -5.28845e-06 9.97466e-17 -8.0293e-05 0 0)
(0.000565898 -4.4591e-06 -1.39645e-15 -7.74817e-05 0 0)
(0.000570539 -4.8559e-06 -1.1666e-15 -7.41606e-05 0 0)
(0.000574401 -4.76199e-06 -9.54098e-16 -7.02883e-05 0 0)
(0.000576443 -3.82173e-06 -1.06685e-15 -6.4285e-05 0 0)
(0.000578173 -3.48291e-06 -1.10372e-15 -5.77057e-05 0 0)
(0.000578245 -3.09298e-06 4.57533e-16 -4.83716e-05 0 0)
(0.00057838 -3.57455e-06 7.58942e-16 -3.94118e-05 0 0)
(0.000574717 -5.39039e-06 6.61363e-16 -2.64132e-05 0 0)
(0.000569609 -3.11728e-06 -3.51282e-16 -1.21307e-05 0 0)
(0.000566097 -2.61465e-06 -3.51282e-16 2.37893e-06 0 0)
(0.00056336 -1.30048e-06 -4.92228e-16 1.88757e-05 -1.18538e-15 0)
(0.000557515 -1.72893e-06 -8.26162e-16 2.00291e-05 -1.07898e-15 0)
(0.000569019 -2.20262e-06 6.80879e-16 1.31172e-05 -2.37153e-16 0)
(0.000566546 -1.83819e-06 8.34836e-16 1.19057e-05 4.56462e-16 0)
(0.000569456 -2.15829e-06 1.30104e-16 4.77696e-06 -2.93757e-16 0)
(0.000571596 -5.39901e-06 -8.23994e-17 -4.86167e-07 8.39986e-16 0)
(0.000573541 -3.51012e-06 1.45934e-15 -5.89654e-06 -9.62723e-16 0)
(0.000576665 -5.27626e-06 1.79978e-15 -1.4242e-05 -2.24525e-16 0)
(0.000581949 -6.34998e-06 -6.76542e-16 -2.25147e-05 -5.77528e-17 0)
(0.000584283 -3.41951e-06 1.09504e-15 -3.07393e-05 -5.67076e-16 0)
(0.000588777 -4.10014e-06 2.32019e-16 -4.3001e-05 -8.93527e-16 0)
(0.00059345 -6.46788e-06 9.02056e-16 -5.37909e-05 -1.79733e-16 0)
(0.000596512 -4.90181e-06 5.22585e-16 -6.32556e-05 1.06649e-15 0)
(0.000603133 -6.14251e-06 1.22081e-15 -7.77979e-05 2.54682e-16 0)
(0.000608757 -8.07554e-06 -2.02529e-15 -9.0724e-05 1.09466e-15 0)
(0.000611727 -7.47803e-06 2.08167e-16 -0.000101443 7.83565e-16 0)
(0.000617832 -8.306e-06 1.34441e-16 -0.00011599 3.01069e-16 0)
(0.000625672 -9.68283e-06 -1.7022e-15 -0.000130925 -1.21973e-17 0)
(0.000629099 -7.79546e-06 -1.65232e-15 -0.000142826 1.97172e-16 0)
(0.000636597 -7.16594e-06 -1.24466e-15 -0.000158166 -1.2719e-16 0)
(0.000641054 -7.09658e-06 3.33934e-16 -0.000171405 -1.00534e-15 0)
(0.000645385 -8.3412e-06 -9.2374e-16 -0.000184718 1.41522e-16 0)
(0.000653179 -8.44038e-06 1.76508e-15 -0.000199719 7.10051e-16 0)
(0.000659162 -8.19862e-06 7.67615e-16 -0.000213306 1.16924e-15 0)
(0.000662084 -6.57668e-06 -1.36609e-16 -0.000223958 1.97054e-16 0)
(0.000668693 -5.65468e-06 -8.0231e-17 -0.000237342 6.79829e-16 0)
(0.000673186 -4.6655e-06 -3.88144e-16 -0.000249603 -6.67394e-16 0)
(0.000675921 -5.34254e-06 2.34188e-16 -0.000258416 3.38949e-16 0)
(0.00068069 -4.25128e-06 -1.06902e-15 -0.000268603 6.65023e-16 0)
(0.000684191 -4.47952e-06 1.14275e-15 -0.000277324 -4.24939e-16 0)
(0.000687894 -3.28918e-06 -2.1684e-17 -0.00028519 -5.57551e-16 0)
(0.000689397 -2.92072e-06 1.36176e-15 -0.000290621 -1.50067e-15 0)
(0.000692705 -1.97963e-06 7.22079e-16 -0.000296529 -9.51523e-16 0)
(0.000693751 -2.3325e-06 -1.58727e-15 -0.000299365 -8.02716e-16 0)
(0.00069502 -4.49117e-07 -2.62377e-16 -0.00030125 -4.90601e-17 0)
(0.000695763 1.59013e-07 -1.23599e-16 -0.000302635 6.22332e-16 0)
(0.000694916 5.28862e-07 -2.91e-15 -0.0003014 -1.39998e-16 0)
(0.000696326 9.57146e-07 2.81893e-16 -0.000300666 7.66124e-16 0)
(0.000695349 6.69353e-07 -3.56269e-15 -0.000299067 5.29904e-17 0)
(0.000693674 7.23263e-07 -6.02816e-16 -0.00029748 8.51234e-16 0)
(0.000692214 1.05524e-06 5.89806e-16 -0.000297021 1.47113e-15 0)
(0.00069141 4.43733e-07 3.27429e-16 -0.000297639 6.65294e-16 0)
(0.000690365 2.84503e-08 1.08203e-15 -0.000296943 1.16782e-15 0)
(0.00069093 -8.68622e-07 -5.78964e-16 -0.000297963 1.12012e-15 0)
(0.00069267 -7.1521e-07 -1.18395e-15 -0.000298476 1.49349e-16 0)
(0.000696469 -2.19907e-06 -2.25514e-16 -0.000300757 1.61655e-15 0)
(0.000700583 -2.84198e-06 -3.79471e-16 -0.000301417 2.15539e-15 0)
(0.000708094 -3.88481e-06 -1.08854e-15 -0.000305923 4.28124e-16 0)
(0.000714617 -4.23761e-06 -2.64328e-15 -0.000308312 -1.14085e-15 0)
(0.000724107 -5.02416e-06 -1.17094e-15 -0.000313599 -6.88739e-16 0)
(0.000733246 -4.6151e-06 -1.66533e-15 -0.000315398 6.26804e-16 0)
(0.000745114 -6.02761e-06 2.76255e-15 -0.000322062 -5.82894e-16 0)
(0.000755323 -5.66187e-06 -2.1684e-17 -0.000324851 -6.13387e-16 0)
(0.000769295 -6.9823e-06 -6.87384e-16 -0.000329948 -6.0119e-16 0)
(0.000785383 -8.48037e-06 1.33791e-15 -0.000338188 -7.43356e-16 0)
(0.000800904 -9.38111e-06 2.90566e-15 -0.000344999 -5.77338e-16 0)
(0.000814478 -8.09463e-06 1.39971e-15 -0.000349171 -1.21702e-16 0)
(0.000832538 -8.98095e-06 -2.85796e-15 -0.000356996 -4.84503e-16 0)
(0.000850351 -1.06552e-05 3.11166e-16 -0.000363824 -3.90313e-16 0)
(0.000870677 -1.10454e-05 1.30863e-15 -0.000373463 3.99664e-16 0)
(0.000891218 -1.13534e-05 2.92735e-17 -0.000381245 1.16159e-15 0)
(0.000910707 -1.53941e-05 2.52511e-15 -0.000389598 7.275e-16 0)
(0.000930961 -1.04275e-05 2.87422e-15 -0.000397999 -8.23587e-16 0)
(0.000955538 -9.57394e-06 -2.53595e-15 -0.000409291 8.2684e-16 0)
(0.000975591 -1.19578e-05 -3.9877e-15 -0.000414909 1.5992e-15 0)
(0.00100173 -1.16456e-05 -4.75965e-16 -0.000428315 -2.72582e-15 0)
(0.00102288 -1.42464e-05 7.55689e-16 -0.000433768 4.68104e-16 0)
(0.00105048 -1.23527e-05 1.11348e-15 -0.000448428 5.82759e-16 0)
(0.00107478 -1.46719e-05 4.21755e-16 -0.000454892 -4.39237e-16 0)
(0.00110279 -1.17531e-05 -9.54098e-17 -0.000469651 5.83843e-16 0)
(0.00112651 -1.38231e-05 4.15249e-16 -0.000475753 -1.40675e-16 0)
(0.0011602 -1.34685e-05 -9.29161e-16 -0.000494122 1.00153e-15 0)
(0.00118493 -1.95332e-05 -2.47523e-15 -0.000502011 4.10642e-17 0)
(0.00121614 -1.54973e-05 3.08998e-15 -0.000516648 -1.19804e-16 0)
(0.00124258 -1.77698e-05 1.28109e-14 -0.000521992 -2.45057e-15 0)
(0.00127463 -1.71422e-05 1.5374e-15 -0.000540209 3.00785e-15 0)
(0.00130069 -1.85933e-05 -6.19079e-16 -0.000548558 2.10688e-15 0)
(0.00133683 -1.39119e-05 2.9306e-15 -0.000567383 1.56234e-15 0)
(0.00136673 -1.53805e-05 -6.41848e-16 -0.000578453 -2.87259e-15 0)
(0.00139205 -1.89148e-05 3.92698e-15 -0.000583975 4.94125e-16 0)
(0.00142958 -1.43359e-05 8.91214e-16 -0.000604648 -8.21012e-16 0)
(0.00145422 -2.01706e-05 7.84854e-15 -0.000610773 -6.51334e-16 0)
(0.00148171 -1.79379e-05 1.02544e-14 -0.000623772 1.25659e-15 0)
(0.00151834 -1.15861e-05 1.14709e-15 -0.000640468 4.13406e-15 0)
(0.00154297 -2.0606e-05 8.50882e-15 -0.000649814 -8.17759e-16 0)
(0.00156346 -1.36384e-05 8.45895e-15 -0.000655487 2.95066e-15 0)
(0.00159647 -7.45291e-06 -1.88543e-15 -0.000673218 -1.1498e-15 0)
(0.00161192 -1.1723e-05 -6.12357e-15 -0.000676789 2.65901e-15 0)
(0.0016435 2.36206e-06 4.60244e-16 -0.000696715 3.483e-16 0)
(0.00168296 4.78988e-06 5.76525e-15 -0.000716297 -1.01888e-15 0)
(0.00173357 1.0804e-05 -3.23472e-15 -0.000761704 -2.79534e-15 0)
(0.00176967 -1.30576e-05 -3.07913e-16 -0.000798397 -2.8135e-15 0)
(0.00177821 -1.62462e-05 -4.15792e-16 -0.000795003 -1.76129e-15 0)
(0.00178861 -1.27805e-05 -1.03465e-14 -0.000791924 -3.70472e-15 0)
(0.00177944 -1.35913e-05 -1.18612e-14 -0.000746884 -1.20509e-15 0)
(0.00181123 -7.9063e-07 -1.46861e-14 -0.000800521 4.27176e-16 0)
(0.00184059 -9.79421e-06 6.07316e-15 -0.000844846 2.1001e-15 0)
(0.00178404 -2.83917e-05 9.30517e-15 -0.000731255 2.54462e-15 0)
(0.00177133 -1.21207e-06 -7.04352e-15 -0.000743136 -4.47233e-16 0)
(0.00176889 -1.68665e-06 2.49909e-15 -0.000743163 7.86047e-17 0)
(0.0017476 1.15183e-05 -6.75892e-15 -0.000730994 1.97379e-15 0)
(0.0017197 2.08842e-05 2.57227e-16 -0.00071993 -7.44305e-16 0)
(0.00168115 3.44804e-05 5.24564e-15 -0.000705598 2.543e-15 0)
(0.00162878 4.2517e-05 2.98915e-15 -0.000676109 -2.57552e-15 0)
(0.00156271 4.03957e-05 4.73688e-15 -0.000661665 1.08095e-15 0)
(0.00146364 5.61087e-05 -1.4817e-15 -0.000620045 2.13046e-15 0)
(0.00137206 7.22377e-05 -2.82665e-15 -0.000595968 -1.02674e-15 0)
(0.00124395 7.27746e-05 -9.05851e-16 -0.000539144 -1.75749e-15 0)
(0.00110677 6.92009e-05 -1.28627e-15 -0.000487655 4.77049e-17 0)
(0.000988327 8.8981e-05 3.20287e-15 -0.00045205 1.4962e-15 0)
(0.000870887 8.01826e-05 1.70823e-15 -0.000406917 2.04697e-15 0)
(0.000715138 6.14855e-05 1.24263e-15 -0.00033886 1.37802e-15 0)
(0.000611984 8.56324e-05 2.32629e-16 -0.000311258 -1.64799e-16 0)
(0.00052436 5.72489e-05 5.1913e-16 -0.000283576 -1.40946e-16 0)
(0.000384168 3.51851e-05 1.54922e-16 -0.000212256 2.80808e-16 0)
(0.000331993 6.24624e-05 9.01836e-16 -0.000208526 -2.27682e-16 0)
(0.000254474 -2.47136e-06 1.32735e-15 -0.000162766 -8.31583e-16 0)
(0.0002071 2.98389e-05 6.94419e-16 -0.000139727 -6.66784e-16 0)
(0.000481387 4.52364e-05 0 -0.000211381 -9.5193e-16 0)
(0.0006783 2.91895e-05 0 -0.000244045 -1.51788e-17 0)
(0.000867764 6.46385e-05 0 -0.000285398 -2.51535e-16 0)
(0.00104876 6.03713e-05 0 -0.000319034 3.96818e-16 0)
(0.00122361 8.53653e-05 0 -0.000342127 -2.86771e-15 0)
(0.00137375 7.16021e-05 0 -0.000346783 -1.30104e-16 0)
(0.00151692 6.62266e-05 0 -0.000335355 7.04731e-16 0)
(0.00165206 7.81319e-05 0 -0.000305045 -4.17635e-15 0)
(0.00185776 0.000106173 0 -0.00033313 -5.53594e-15 0)
(0.00210214 6.04893e-05 0 -0.000410067 1.18178e-15 0)
(0.00244848 6.17715e-05 0 -0.000578344 -7.00178e-15 0)
(0.00299266 0.000103582 0 -0.00104444 -1.01709e-14 0)
(0.00370091 8.1914e-05 0 -0.00188877 -4.17309e-15 0)
(0.00479812 2.29483e-05 0 -0.00291405 -2.26197e-14 0)
(0.0058296 7.12476e-06 0 -0.00425582 -7.86806e-15 0)
(0.00689991 -0.000149307 0 -0.00570892 -3.28947e-15 0)
(0.00791388 -0.000290074 0 -0.00681974 3.31939e-14 0)
(0.00841409 -0.000316547 0 -0.00772368 8.72241e-15 0)
(0.00794676 -0.000445748 0 -0.00779327 2.96855e-15 0)
(0.009044 -0.00116249 5.97986e-14 -0.00959512 2.24476e-14 0)
(0.00833764 -0.0021348 -5.12096e-15 -0.00876719 2.64903e-14 0)
(0.0071743 -0.00261735 -2.59504e-15 -0.00704496 2.08519e-14 0)
(0.0060915 -0.00260917 -1.61438e-15 -0.00588538 3.45318e-15 0)
(0.00569041 -0.00275328 2.03521e-14 -0.00535016 -2.53194e-14 0)
(0.00432379 -0.00312824 8.98804e-15 -0.00365113 -9.67163e-15 0)
(0.00255221 -0.00227799 8.67362e-17 -0.0017165 -1.27827e-15 0)
(0.00159612 -0.00125863 -1.77809e-16 -0.000831583 -4.09124e-15 0)
(0.000738787 -0.000668224 2.52944e-15 -2.32227e-05 -3.18972e-15 0)
(0.000444545 -0.000377824 -1.00289e-15 -7.91111e-05 -4.21538e-15 0)
(0.000402266 -0.000347988 -2.17274e-15 -6.05552e-05 -1.49457e-15 0)
(0.000331012 -0.000304066 1.60354e-15 -4.79045e-05 8.12067e-16 0)
(0.000248643 -0.0002224 7.1991e-16 -4.10077e-05 1.36067e-16 0)
(0.000170732 -0.000150169 1.12432e-15 -4.37756e-05 3.97902e-16 0)
(0.000125379 -6.64913e-05 1.07553e-15 -8.52713e-05 6.0878e-16 0)
(6.43628e-05 3.65244e-05 8.50015e-16 -0.000108596 5.20959e-16 0)
(4.49813e-05 0.000110973 5.17164e-16 -0.000176607 2.29309e-16 0)
(-1.27514e-06 0.000205598 5.84385e-16 -0.000206021 3.41524e-16 0)
(-8.71112e-06 0.000302031 5.75711e-16 -0.00028918 3.82723e-16 0)
(3.25633e-05 0.00034158 4.97649e-16 -0.000412904 4.6702e-16 0)
(7.05347e-05 0.000400462 8.7712e-16 -0.000508423 -1.05168e-16 0)
(0.000111006 0.000447676 1.10805e-15 -0.000619635 3.01408e-16 0)
(0.000155299 0.000431646 1.06577e-15 -0.000732967 1.45446e-15 0)
(0.000224047 0.000465368 1.06252e-16 -0.00083958 -3.60226e-16 0)
(0.000272172 0.000454318 -2.1684e-16 -0.00094164 1.22813e-15 0)
(0.000342668 0.000440857 -1.28044e-15 -0.00106009 3.16546e-15 0)
(0.000406421 0.000350641 -2.26598e-16 -0.00115909 1.09748e-15 0)
(0.000426914 0.000322707 1.25117e-15 -0.00121303 -4.32149e-15 0)
(0.000478305 0.00023645 -1.2013e-15 -0.00128413 -2.42387e-15 0)
(0.00050888 0.000191766 1.66859e-15 -0.00132172 -6.61268e-15 0)
(0.000503632 9.96134e-05 -5.80048e-16 -0.00135325 -3.43506e-15 0)
(0.000684059 -0.000386381 4.8247e-16 -0.000339632 6.26669e-16 0)
(0.00064296 -0.000271613 -5.55112e-16 -0.000203948 4.25075e-16 0)
(0.00111613 -0.000159415 -6.55942e-16 -0.000631474 -9.78492e-17 0)
(0.00070673 -0.000153644 -7.58942e-16 -0.000254807 6.11083e-16 0)
(0.000594514 -0.000143599 -1.63931e-15 -0.000133445 -3.81707e-16 0)