/*--------------------------------*- C++ -*----------------------------------*\
| =========                 |                                                 |
| \\      /  F ield         | OpenFOAM: The Open Source CFD Toolbox           |
|  \\    /   O peration     | Version:  v2012                                 |
|   \\  /    A nd           | Website:  www.openfoam.com                      |
|    \\/     M anipulation  |                                                 |
\*---------------------------------------------------------------------------*/
FoamFile
{
    version     2.0;
    format      ascii;
    class       volSymmTensorField;
    location    "16";
    object      sigma;
}
// * * * * * * * * * * * * * * * * * * * * * * * * * * * * * * * * * * * * * //

dimensions      [1 -1 -2 0 0 0 0];


internalField   nonuniform List<symmTensor> 
7666
(
(9.37265e+06 -3.14425e+06 -9.34082e-08 -2.4774e+06 -8.22977e-07 2.06857e+06)
(4.20871e+07 -1.33699e+07 2.17641e-05 9.34218e+06 1.64672e-05 1.54288e+07)
(4.9499e+07 -2.66488e+07 0.000224162 1.06656e+07 0.000418663 4.83344e+07)
(4.96236e+07 -1.75848e+07 3.66394e-05 5.41771e+06 9.01973e-07 1.65124e+07)
(7.11408e+07 -1.57556e+07 5.54144e-05 -9.24258e+06 3.27104e-05 1.85695e+07)
(1.00233e+08 -7.54511e+06 -1.86816e-05 -5.05114e+06 -1.72572e-05 2.85545e+07)
(5.3574e+07 -2.69915e+06 2.05732e-05 9.0882e+06 -4.52957e-06 1.87986e+07)
(5.35068e+07 -1.64081e+07 -4.08194e-05 5.42539e+06 -3.6481e-05 1.76797e+07)
(1.32147e+08 -192595 -0.00032011 -418963 4.99734e-05 3.98444e+07)
(5.29074e+07 -4.94397e+06 -6.56193e-06 1.15734e+07 -6.29921e-06 1.93442e+07)
(3.16365e+07 -1.52427e+07 2.90499e-05 5.52478e+06 4.11653e-06 1.11484e+07)
(5.68109e+07 -6.80673e+06 -1.13257e-05 2.76691e+06 1.23386e-05 1.78733e+07)
(5.18635e+07 -1.67276e+07 2.49633e-05 5.55465e+06 -6.33862e-06 1.72254e+07)
(4.89392e+07 -1.37559e+07 4.43922e-05 8.69678e+06 8.73367e-06 1.72908e+07)
(5.32364e+07 -1.89145e+06 -8.59355e-06 1.20367e+07 5.00682e-06 1.95819e+07)
(5.33948e+07 -8.79854e+06 0.000176401 -1.54537e+07 -5.80707e-05 1.13823e+07)
(5.36535e+07 -1.62476e+07 -3.56586e-05 5.83774e+06 -2.75766e-05 1.78474e+07)
(1.10127e+08 -3.16223e+06 -6.31439e-05 -399.153 0.000104279 3.30379e+07)
(6.00038e+07 -1.05531e+07 -6.63665e-05 2.967e+06 3.45231e-05 1.88912e+07)
(4.69709e+07 -9.0267e+06 -4.12864e-05 1.13087e+07 -1.55466e-05 1.74839e+07)
(3.59343e+07 -3.95545e+06 3.78303e-06 1.18007e+07 1.19921e-05 1.43205e+07)
(7.61993e+07 -1.41542e+07 -0.000155688 691950 2.73321e-05 2.30674e+07)
(5.08955e+07 -1.40821e+07 -3.73633e-05 7.89522e+06 1.06522e-05 1.76372e+07)
(4.42828e+07 -1.94e+07 -3.64058e-05 3.81402e+06 -2.18188e-05 1.4429e+07)
(9.21504e+07 -5.7929e+06 -9.07928e-05 -1.0348e+07 4.20337e-07 2.45407e+07)
(5.34695e+07 -1.84284e+06 3.33934e-05 1.26525e+07 -1.18187e-05 1.98366e+07)
(9.33571e+07 -4.06568e+06 5.87537e-05 -9.33835e+06 5.30091e-06 2.52056e+07)
(2.16571e+07 -1.42535e+07 -1.39178e-05 -841124 1.08624e-05 6.24478e+06)
(5.31085e+07 -1.65344e+07 -1.47585e-05 6.12485e+06 -1.07894e-05 1.777e+07)
(5.44746e+07 -905062 -3.59388e-05 635524 1.47191e-05 1.6533e+07)
(5.54538e+07 -928678 -1.1676e-06 -4514.72 -9.48677e-07 1.66348e+07)
(1.10286e+08 -4.68976e+06 -0.000125541 -119421 6.79778e-05 3.30499e+07)
(5.73376e+06 -1.05732e+07 1.96157e-06 -1.32332e+07 -1.14462e-06 -2.24984e+06)
(5.40628e+07 -2.79093e+06 2.68782e-05 2.86154e+06 1.78103e-05 1.70773e+07)
(-205065 -6.89076e+06 -6.09488e-06 -3.18854e+07 -6.1051e-06 -9.62715e+06)
(4.15665e+07 -1.0007e+07 5.48306e-05 1.06118e+07 5.36988e-06 1.56535e+07)
(4.15567e+07 -9.11107e+06 5.98279e-05 1.11544e+07 1.35909e-05 1.58133e+07)
(5.53673e+07 -2.22516e+06 1.9569e-05 960068 2.06812e-05 1.68982e+07)
(9.76009e+07 -1.07289e+07 -1.07186e-05 -1.57948e+06 1.50679e-05 2.88064e+07)
(5.27908e+07 -6.4184e+06 -2.81159e-05 1.06942e+07 -2.86223e-05 1.90455e+07)
(2.73435e+07 -1.25762e+07 2.20443e-05 -2.52193e+07 -3.45902e-06 637265)
(1.37088e+08 -7.79348e+06 -0.000567069 6.24984e+06 -0.000138929 5.8363e+07)
(1.9329e+08 1.18683e+06 0.000203395 6.17789e+07 -0.000195876 8.96783e+07)
(2.84901e+07 -1.82052e+07 -3.61957e-05 -1.71887e+06 3.25469e-07 8.03137e+06)
(1.54582e+08 2.63778e+07 -0.00011331 2.49667e+07 -0.000273242 5.38645e+07)
(5.32032e+07 -2.09889e+06 1.25634e-05 9.30077e+06 1.66011e-05 1.87512e+07)
(1.12366e+08 -4.63926e+06 -1.81212e-05 -523556 0.000109673 3.35527e+07)
(3.07158e+07 -1.37906e+07 2.64812e-05 -2.60497e+07 2.96571e-06 1.39984e+06)
(4.5364e+07 -1.66162e+07 -7.35356e-05 -1.71355e+07 -4.03494e-05 8.46855e+06)
(2.51043e+07 -3.97962e+06 -2.84895e-06 9.02714e+06 -3.25008e-06 1.02394e+07)
(1.87931e+07 -1.46733e+07 -1.50387e-05 -1.98858e+06 7.06071e-06 5.04135e+06)
(7.57064e+07 -8.25335e+06 -0.000127362 -34860.5 -5.84006e-05 2.27015e+07)
(5.36051e+07 -1.59424e+06 -1.63464e-06 7.7511e+06 2.6155e-05 1.84069e+07)
(1.30163e+08 -1.22346e+06 -0.000368227 -1.08094e+06 -8.32379e-05 3.90401e+07)
(3.27195e+07 -2.284e+06 1.58794e-05 1.17685e+07 -2.12996e-07 1.33464e+07)
(4.79598e+07 -9.00941e+06 0.000147562 -1.42173e+07 -6.71371e-07 1.01227e+07)
(2.57017e+07 -5.91371e+06 -4.67041e-08 8.92823e+06 3.06644e-06 1.0389e+07)
(2.37346e+07 -4.897e+06 -8.17322e-07 8.48989e+06 2.66108e-06 9.66735e+06)
(7.89286e+07 -6.36924e+06 3.13618e-05 -1.68845e+07 -4.49293e-05 1.86132e+07)
(1.01776e+08 -6.28198e+06 8.83058e-05 -2.98656e+06 5.73526e-05 2.96368e+07)
(3.11869e+07 -9.16431e+06 -1.9172e-05 9.6433e+06 -5.14507e-06 1.22491e+07)
(5.56141e+07 -2.12875e+06 2.53603e-05 1.19401e+06 2.8939e-05 1.70424e+07)
(4.97774e+07 -1.58156e+07 4.76382e-06 6.99309e+06 -9.875e-06 1.70312e+07)
(4.97384e+07 -1.61874e+07 -9.41087e-06 6.51028e+06 -3.65941e-05 1.68746e+07)
(2.31699e+07 -7.00599e+06 1.00881e-05 7.39996e+06 7.3382e-06 9.17096e+06)
(4.91781e+07 -1.78067e+07 -6.9052e-05 -1.53287e+07 -2.07687e-05 1.01548e+07)
(5.09071e+07 -5.15873e+06 -1.52956e-05 1.36103e+07 1.42477e-05 1.93552e+07)
(2.53403e+07 -7.16124e+06 3.9932e-06 8.31646e+06 7.37662e-06 1.0097e+07)
(6.46766e+07 -7.98822e+06 4.53497e-05 -1.81097e+07 4.20804e-05 1.39701e+07)
(8.16785e+07 -6.22837e+06 4.0294e-05 -1.68455e+07 -9.45758e-05 1.94499e+07)
(6.91244e+07 -9.63673e+06 9.62338e-05 -1.62104e+07 9.94447e-05 1.58742e+07)
(5.32948e+07 -853930 -3.36269e-06 2.06325e+07 -2.67048e-05 2.21782e+07)
(5.32053e+07 -945513 -4.71711e-06 1.99487e+07 -1.45835e-05 2.19462e+07)
(5.37729e+07 -440591 3.01708e-05 555314 -5.25567e-06 1.62985e+07)
(5.37338e+07 -429837 3.6546e-05 575624 -1.08499e-05 1.62928e+07)
(5.34687e+07 -511108 5.95477e-06 8.10953e+06 3.29067e-05 1.84735e+07)
(1.15428e+08 2.22744e+07 3.55024e-05 1.29264e+07 -0.000160732 3.85064e+07)
(4.78565e+07 -1.46661e+07 2.48466e-05 8.358e+06 -2.34163e-05 1.68643e+07)
(4.74165e+07 -1.49868e+07 5.60449e-05 7.6017e+06 -1.52248e-05 1.65055e+07)
(3.10248e+07 -9.23418e+06 -1.35208e-05 9.32027e+06 -1.67332e-06 1.21035e+07)
(5.40034e+07 -5.25918e+06 3.78303e-05 7.47931e+06 -1.0237e-05 1.84448e+07)
(5.26694e+07 -2.45648e+06 2.80225e-05 1.75035e+07 -1.05414e-05 2.10519e+07)
(3.59547e+07 -1.98897e+07 -3.89979e-06 -4.24998e+06 -2.57201e-05 9.51143e+06)
(1.79903e+08 1.70918e+06 9.68499e-05 4.11932e+07 -0.000175822 6.92614e+07)
(5.90431e+07 -5.45053e+06 6.93556e-06 911319 -2.95345e-05 1.79863e+07)
(7.29183e+07 -1.92353e+06 1.67901e-05 252422 6.19851e-05 2.19512e+07)
(7.16297e+07 -3.00547e+06 -2.80225e-07 -271642 1.32231e-05 2.14074e+07)
(7.9428e+07 -1.042e+07 -0.000214559 1.2082e+06 2.3031e-06 2.41909e+07)
(3.91463e+07 -1.71751e+07 -9.55099e-06 -1.88731e+07 -2.86734e-05 6.08197e+06)
(5.51277e+07 -1.37194e+06 3.30431e-05 374962 1.21868e-05 1.66508e+07)
(5.29677e+07 -1.08758e+07 -1.02983e-05 7.58175e+06 2.99111e-05 1.81648e+07)
(5.3683e+07 -1.05745e+07 2.8723e-05 8.01912e+06 2.30061e-05 1.85106e+07)
(7.99325e+07 -764619 1.09755e-06 235380 3.71677e-05 2.40504e+07)
(8.53885e+07 -5.90677e+06 7.9899e-05 -1.97135e+07 3.00658e-05 1.97025e+07)
(1.35885e+08 598930 -9.03841e-05 -337646 3.68145e-05 4.06641e+07)
(5.15489e+07 -1.11028e+07 9.56033e-05 -2.25147e+07 -8.68112e-06 8.71024e+06)
(-6.82375e+06 -953685 4.64706e-06 -4.5946e+07 2.99592e-05 -1.58309e+07)
(4.08522e+07 -2.53152e+07 -6.38255e-05 2.19412e+07 0.000155894 5.51429e+07)
(6.0734e+07 -9.98083e+06 -8.0728e-05 2.92922e+06 3.42458e-05 1.9099e+07)
(4.59151e+07 -8.5873e+06 -2.2418e-05 1.11566e+07 -3.7842e-05 1.71215e+07)
(7.99204e+07 -986569 -6.45684e-05 -372049 3.8274e-05 2.38645e+07)
(5.39938e+07 -634494 1.48285e-05 567028 3.32416e-05 1.63683e+07)
(1.36565e+07 -1.30255e+07 -4.76382e-06 -8.87249e+06 2.0247e-06 1.4352e+06)
(1.10164e+08 -1.97343e+07 0.000428107 490726 0.000342731 4.13064e+07)
(1.72713e+07 -1.63765e+07 -1.44783e-06 -1.94316e+07 2.66797e-06 -648075)
(9.40984e+07 -1.06795e+07 1.11389e-05 -643172 -0.000118944 2.80366e+07)
(1.57236e+08 1.03157e+07 -0.000165363 2.39717e+07 -9.61591e-05 6.56043e+07)
(7.62078e+07 -1.59812e+07 8.32968e-05 -3.86327e+06 -1.19358e-05 2.17034e+07)
(5.33108e+07 -1.84397e+06 1.83781e-05 8.84594e+06 5.33594e-06 1.8647e+07)
(7.57866e+07 -5.76124e+06 -6.03417e-05 -100834 -6.07416e-05 2.27057e+07)
(4.57243e+07 -1.64625e+07 -7.12237e-06 6.95533e+06 -2.71748e-05 1.58039e+07)
(7.02201e+07 -1.85895e+07 1.82379e-05 -2.97271e+06 2.42467e-05 2.01742e+07)
(3.82983e+07 -1.52349e+07 -2.13204e-05 7.56877e+06 -1.94625e-06 1.37601e+07)
(3.01763e+07 -8.17745e+06 -2.1157e-05 9.55733e+06 -3.81706e-07 1.19201e+07)
(2.90526e+07 -1.50921e+07 -3.02175e-05 4.83565e+06 1.44538e-05 1.01665e+07)
(7.66012e+07 -1.42288e+07 -8.84576e-05 -8.05442e+06 3.34197e-05 2.0564e+07)
(2.37591e+07 -1.49883e+07 -8.59355e-06 1.2713e+06 1.2185e-06 7.50911e+06)
(-3.52553e+06 -2.99297e+06 -1.33107e-06 -4.13521e+07 2.52552e-05 -1.34633e+07)
(5.6751e+07 -3.38188e+06 -5.67455e-06 1.20496e+06 -1.65756e-05 1.73868e+07)
(5.6752e+07 -3.79766e+06 -2.89799e-05 1.65435e+06 -5.94018e-06 1.75219e+07)
(1.1938e+08 -3.80844e+06 0.000126755 -201230 -2.36615e-05 3.57538e+07)
(5.34627e+07 -209914 1.24466e-05 998695 -3.77822e-05 1.63384e+07)
(5.5922e+07 -7.58778e+06 -1.33107e-05 5.24465e+06 4.81797e-05 1.835e+07)
(5.35062e+07 -2.60118e+06 1.20497e-05 1.27713e+07 -1.38277e-05 1.98832e+07)
(4.36286e+07 -1.84735e+07 -3.2436e-05 4.44717e+06 -1.96719e-05 1.44227e+07)
(2.40166e+07 -867013 -1.11156e-05 9.03358e+06 -4.29601e-06 9.91506e+06)
(7.54583e+07 -1.7e+07 -3.73633e-05 -4.10093e+06 -2.97242e-05 2.14072e+07)
(6.77906e+07 -1.88116e+07 1.08353e-05 132633 -4.95574e-05 2.0377e+07)
(4.84681e+07 -2.02471e+07 2.10635e-05 917195 2.07731e-05 1.48156e+07)
(5.39733e+07 -1.31116e+07 -8.88312e-05 6.70557e+06 1.43571e-05 1.82037e+07)
(4.79878e+07 -8.0007e+06 8.79672e-05 -1.41629e+07 2.99256e-05 1.01474e+07)
(6.5574e+07 -7.33094e+06 -1.84481e-06 1.12138e+06 1.81183e-05 2.00086e+07)
(4.22887e+07 -5.51973e+06 -2.81392e-05 1.22029e+07 9.77201e-06 1.63475e+07)
(1.06836e+08 1.13765e+07 1.17125e-06 1.74004e+07 -5.29858e-05 3.72709e+07)
(5.57734e+07 -7.34629e+06 1.63464e-07 4.55166e+06 5.39024e-05 1.80975e+07)
(9.51193e+07 -1.11674e+07 6.25368e-05 -974272 -0.000121165 2.82435e+07)
(5.37041e+07 -5.2189e+06 2.97739e-05 7.49005e+06 -9.18465e-06 1.83582e+07)
(5.2781e+07 -6.3947e+06 -3.09648e-05 1.04794e+07 -2.50699e-05 1.89781e+07)
(5.00867e+07 -1.21636e+07 -1.665e-05 8.33562e+06 1.42302e-07 1.75267e+07)
(4.27636e+07 -1.77448e+07 1.12323e-05 5.34341e+06 6.62468e-06 1.44321e+07)
(5.08338e+07 -2.07395e+07 2.94469e-05 509135 3.40736e-05 1.54029e+07)
(5.29096e+07 -2.13426e+06 -4.7031e-05 1.80444e+07 4.68181e-06 2.12862e+07)
(5.02559e+07 -1.17609e+06 2.93769e-05 1.53786e+07 -8.89877e-06 1.96904e+07)
(5.06765e+07 -1.23112e+06 2.08067e-05 1.55721e+07 -7.43015e-06 1.98746e+07)
(5.13842e+07 -5.30317e+06 -1.72338e-05 1.34777e+07 -1.72477e-06 1.94586e+07)
(5.0582e+07 -8.89799e+06 -4.995e-05 1.0505e+07 2.23267e-05 1.83261e+07)
(5.32091e+07 -2.83534e+06 3.75968e-05 8.86973e+06 2.1535e-06 1.86236e+07)
(5.31726e+07 -1.92998e+06 -5.32427e-06 1.79938e+07 3.70467e-06 2.13499e+07)
(8.95262e+06 -5.81313e+06 3.75968e-06 -2.3852e+06 -4.00542e-07 1.97023e+06)
(5.69928e+07 -1.39224e+07 4.02356e-05 4.49576e+06 -3.86039e-06 1.84466e+07)
(5.34301e+07 -4.41898e+06 3.4491e-05 1.22042e+07 -5.82488e-06 1.96903e+07)
(4.10597e+07 -1.39516e+07 3.58687e-05 -2.19166e+07 -4.08019e-05 5.74293e+06)
(3.24027e+07 -1.04016e+07 -8.10316e-06 9.43518e+06 -6.72849e-06 1.25514e+07)
(2.59871e+07 -1.35649e+07 5.11643e-05 -2.61631e+07 -1.94318e-05 -52777.6)
(4.85367e+07 -5.38323e+06 7.63612e-06 1.31743e+07 -1.47039e-05 1.85133e+07)
(4.8248e+07 -5.27972e+06 1.17461e-05 1.29409e+07 -9.72193e-06 1.83567e+07)
(2.72516e+07 -1.49879e+07 2.63645e-05 -2.34207e+07 2.39067e-06 1.14927e+06)
(5.43599e+07 -2.09975e+07 -3.86943e-05 -1.23147e+06 1.51044e-05 1.59385e+07)
(4.72143e+07 -1.86668e+07 -1.60429e-05 4.36093e+06 -1.54072e-05 1.54726e+07)
(5.40695e+07 -2.50616e+06 -4.62371e-06 4.94819e+06 4.27299e-05 1.77053e+07)
(1.12462e+08 -1.06627e+07 0.000133404 -1.15647e+07 0.000137906 3.60616e+07)
(1.00547e+08 4.49767e+06 -5.81466e-05 -447795 -4.53497e-05 3.00298e+07)
(7.51387e+07 -1.40727e+07 -0.000151952 1.20094e+06 3.35394e-06 2.29019e+07)
(1.5387e+08 1.00904e+06 -0.000518908 1.5434e+07 -2.28044e-05 6.08533e+07)
(8.07798e+07 -3.16104e+07 0.000196067 -9.16346e+06 0.000252173 2.70112e+07)
(1.10545e+08 -2.29814e+07 0.000157558 1.04953e+07 0.000261044 4.14618e+07)
(4.86039e+07 -1.94767e+07 -6.25835e-05 3.96857e+06 -4.69019e-05 1.57717e+07)
(2.31897e+07 -5.73973e+06 8.50015e-06 7.87012e+06 4.48004e-06 9.31793e+06)
(2.30188e+07 -5.79084e+06 5.30091e-06 7.77452e+06 2.65698e-06 9.23799e+06)
(1.06336e+08 -5.90896e+06 0.000207733 -1.72876e+07 0.000179241 3.286e+07)
(3.99323e+07 -1.38804e+07 6.47786e-05 8.66357e+06 3.14917e-05 1.45788e+07)
(2.93828e+07 -1.37943e+07 -1.51788e-05 5.43673e+06 1.50664e-05 1.04459e+07)
(7.05777e+07 -1.39982e+07 -4.6564e-05 1.48726e+06 3.10217e-05 2.16195e+07)
(6.63137e+07 -6.14196e+06 -2.41227e-05 95632.7 1.9388e-05 1.99228e+07)
(3.7276e+07 -1.5e+07 -2.12504e-06 -2.34488e+07 -5.26355e-05 4.14816e+06)
(3.06721e+07 -2.2346e+06 2.35622e-05 1.09934e+07 2.38259e-06 1.24996e+07)
(7.25723e+07 -1.83694e+07 8.18956e-05 -1.65856e+06 3.44501e-05 2.12741e+07)
(1.31505e+08 1.72178e+06 5.27639e-05 -334492 8.28414e-05 3.93511e+07)
(5.79131e+07 -2.28117e+06 -2.44963e-05 200761 2.91492e-05 1.74341e+07)
(5.0941e+07 -1.79961e+07 8.80372e-06 5.15115e+06 -1.40068e-05 1.68276e+07)
(7.23392e+07 -1.59439e+07 3.96985e-05 930311 3.78887e-05 2.19808e+07)
(-8.11457e+06 -389482 2.77422e-05 -5.75978e+07 2.48196e-05 -1.97137e+07)
(6.90621e+07 -1.21417e+07 2.97505e-05 1.69309e+06 1.49599e-05 2.12266e+07)
(-4.25638e+06 -3.93326e+06 5.37097e-06 -4.26977e+07 3.4418e-05 -1.40862e+07)
(4.57706e+07 -1.8507e+07 -5.40133e-05 -1.44727e+07 -1.8235e-05 9.38935e+06)
(5.24936e+07 -1.14185e+07 0.000157463 -2.05204e+07 -5.15555e-05 9.59195e+06)
(5.31068e+07 -214451 1.00881e-05 1.98479e+07 8.12765e-06 2.18864e+07)
(5.3496e+07 15273.8 -3.78537e-05 5814.72 2.08125e-06 1.60505e+07)
(7.8418e+07 -7.10664e+06 -1.33107e-05 -1.59081e+07 -8.32092e-05 1.8753e+07)
(5.40628e+07 -3.79826e+06 4.7031e-05 4.45534e+06 1.97704e-05 1.75554e+07)
(4.04615e+07 -1.47837e+07 1.51088e-05 8.25436e+06 2.55938e-05 1.46148e+07)
(5.19437e+07 -8.52328e+06 -1.01815e-05 9.56549e+06 -4.51059e-05 1.84528e+07)
(5.23252e+07 -8.34897e+06 -4.00955e-05 1.03262e+07 -5.18065e-05 1.87954e+07)
(5.00282e+07 -1.1592e+07 -4.87591e-05 8.61551e+06 -9.45612e-06 1.75931e+07)
(7.01592e+07 -1.79317e+07 3.69896e-05 -6.27278e+06 -2.33141e-05 1.91659e+07)
(1.15629e+08 8.46483e+06 -0.000104255 -7.57205e+06 4.64239e-05 3.24172e+07)
(4.45605e+07 -1.45298e+07 3.17121e-05 8.45406e+06 -7.33035e-07 1.59044e+07)
(5.33953e+07 -622413 3.10816e-05 7.43857e+06 3.66481e-05 1.82502e+07)
(5.36717e+07 -2.83797e+06 1.44783e-05 1.03274e+07 1.34019e-05 1.91997e+07)
(-7.09672e+06 1.58139e+07 1.68135e-06 -6.74338e+07 -3.0562e-06 -2.23592e+07)
(7.34993e+07 -1.71969e+07 0.000112744 -931877 3.78945e-05 2.17702e+07)
(2.16173e+07 -1.36654e+07 -7.02897e-06 1.29017e+06 -4.22161e-07 6.87223e+06)
(5.80797e+07 -2.3697e+06 -2.93302e-05 419591 3.57286e-06 1.75498e+07)
(9.8383e+07 -1.0403e+07 2.51268e-05 -939351 -5.39199e-05 2.92331e+07)
(4.21125e+07 -3.86111e+06 2.72051e-05 1.24196e+07 -4.15092e-06 1.63596e+07)
(1.21962e+08 7.05595e+06 8.35633e-05 -1.06532e+07 -7.49304e-05 4.22351e+07)
(4.96483e+07 -5.93237e+06 4.55131e-05 1.29993e+07 1.24397e-05 1.87943e+07)
(1.72382e+07 -1.16668e+07 2.89565e-06 -2.91577e+07 1.59757e-05 -3.57584e+06)
(2.37348e+07 -1.28106e+07 9.50428e-06 3.53006e+06 1.6085e-05 8.17946e+06)
(-284269 -8.56262e+06 -4.64706e-06 -2.84613e+07 2.8869e-06 -8.62367e+06)
(1.03976e+08 2.23911e+06 -5.93376e-05 -1.12827e+07 -7.10836e-05 2.78081e+07)
(2.4064e+07 -1.30588e+07 1.64165e-05 3.94949e+06 8.20131e-06 8.40403e+06)
(4.97477e+07 -1.28325e+06 2.09701e-05 1.51051e+07 4.26157e-06 1.94558e+07)
(5.24413e+07 -2.64305e+06 5.25888e-05 1.69951e+07 -2.11321e-05 2.08309e+07)
(5.33273e+07 -1.89245e+06 -2.48933e-05 1.8011e+07 2.82423e-05 2.14015e+07)
(3.02922e+07 -1.26708e+07 4.55365e-06 7.24781e+06 8.35264e-06 1.1262e+07)
(4.44844e+07 -1.60647e+07 6.65533e-06 7.35235e+06 -2.64232e-05 1.5551e+07)
(1.11933e+08 -4.89684e+06 -4.33414e-05 -1.9192e+06 9.31863e-05 3.30041e+07)
(2.83394e+07 -1.16303e+07 5.83801e-06 7.25406e+06 8.83811e-06 1.0678e+07)
(8.31956e+07 -2.78792e+06 -7.59876e-05 -478587 2.61076e-05 2.48151e+07)
(1.36694e+08 2.31677e+07 -0.000236997 2.58489e+06 -0.000172359 4.71655e+07)
(1.28623e+08 -1.53847e+06 -0.000315873 -364113 -0.000160673 5.22234e+07)
(5.56818e+07 -804229 -9.1073e-07 177852 1.22598e-05 1.67579e+07)
(5.03188e+07 -682309 -4.62371e-06 1.56896e+07 -5.9371e-06 1.98025e+07)
(6.89753e+07 -7.28232e+06 -4.74047e-06 808372 1.84773e-05 2.09351e+07)
(5.68518e+07 -2.02382e+07 5.413e-05 508233 -4.7069e-06 1.7208e+07)
(1.4307e+08 1.71956e+07 -0.000224279 6.13757e+06 -0.000239182 5.28609e+07)
(1.17461e+08 1.49872e+07 -0.000126709 1.55639e+07 -0.000176635 3.99076e+07)
(3.62767e+07 -477752 5.97112e-05 1.20926e+07 5.77225e-06 1.45108e+07)
(4.96133e+07 -1.91734e+07 -8.0331e-06 4.10948e+06 -1.61713e-05 1.61168e+07)
(4.86338e+07 -1.8448e+07 -2.37023e-05 4.65299e+06 1.03143e-05 1.5986e+07)
(5.51274e+07 -4.1195e+06 -1.83781e-05 3.97825e+06 -2.11205e-05 1.77317e+07)
(3.85427e+07 -1.69975e+07 7.70618e-06 -2.03252e+07 -9.09854e-06 5.46525e+06)
(4.65566e+07 -1.00776e+07 0.000141233 -2.30474e+07 2.41869e-05 7.05274e+06)
(5.33774e+07 -76063.3 1.72805e-06 2.07986e+07 -4.56873e-06 2.22528e+07)
(5.33525e+07 76518.7 -1.34975e-05 34383.6 1.39616e-05 1.60161e+07)
(1.5762e+08 1.99086e+07 -0.000299712 1.62633e+07 -0.000220608 5.33668e+07)
(7.67449e+07 -7.12004e+06 -0.00011585 514297 -2.16269e-05 2.31777e+07)
(-3.64028e+06 -3.29608e+06 -5.97812e-06 -4.74035e+07 1.80716e-05 -1.53131e+07)
(5.47852e+07 -3.12184e+06 3.95117e-05 3.42314e+06 3.14246e-05 1.74625e+07)
(4.95597e+07 -3.42165e+06 3.08013e-05 1.42682e+07 -2.15012e-05 1.91484e+07)
(6.33202e+07 -1.63876e+07 -1.02048e-05 2.35192e+06 2.33083e-06 1.97016e+07)
(4.84096e+07 -1.61903e+07 -2.04564e-05 6.77021e+06 -7.89299e-06 1.65539e+07)
(2.38286e+07 -9.97044e+06 1.38011e-05 5.9987e+06 5.0632e-06 8.94818e+06)
(3.79524e+07 -1.54197e+07 -2.43562e-05 7.02882e+06 3.04963e-06 1.34944e+07)
(3.66851e+07 -1.33454e+07 2.97739e-05 8.37816e+06 1.08071e-05 1.3519e+07)
(-5.23758e+06 5.63803e+06 -8.1919e-05 -7.6698e+07 -0.000163539 -2.45807e+07)
(3.68435e+07 -1.46042e+07 -4.51862e-05 7.40626e+06 -2.44923e-06 1.32749e+07)
(9.53803e+07 -1.83216e+07 0.000294668 -1.74105e+07 0.000121887 2.44703e+07)
(7.22358e+07 -1.81729e+07 -7.52169e-05 -2.78714e+06 3.25469e-06 2.08346e+07)
(7.11881e+07 -1.76606e+07 3.53083e-05 -2.00783e+06 3.34664e-05 2.07541e+07)
(3.33516e+07 -1.15177e+07 -2.3352e-07 8.96465e+06 -7.11052e-07 1.26949e+07)
(7.97076e+07 -1.31166e+07 -3.55885e-05 -8.51265e+06 5.47576e-05 2.13585e+07)
(6.67191e+07 -6.31965e+06 -4.94596e-05 926678 1.94201e-05 2.02937e+07)
(5.2547e+07 -328863 -1.10689e-05 1.90805e+07 -2.13579e-05 2.14883e+07)
(5.37857e+07 -195548 1.98259e-05 74957.5 2.22428e-06 1.61582e+07)
(1.12784e+08 7.55838e+06 -0.00010943 2.12858e+07 -9.32914e-05 4.02209e+07)
(7.69061e+07 -1.28879e+07 -0.000110455 1.18079e+06 3.51098e-05 2.34261e+07)
(7.35227e+07 -1.67241e+07 2.2091e-05 -4.51956e+06 -1.01757e-05 2.07009e+07)
(6.71808e+06 -2.10394e+06 2.52669e-05 -4.24123e+07 1.34625e-05 -1.07083e+07)
(4.63384e+07 -2.02387e+07 -2.68549e-06 -8.52441e+06 -2.76284e-06 1.13442e+07)
(8.66318e+07 -8.15959e+06 -0.000133936 -9.41094e+06 -7.4277e-05 2.31663e+07)
(9.70573e+07 -1.03973e+07 -4.95063e-06 -1.17034e+06 3.85893e-06 2.87661e+07)
(7.73323e+07 -1.10991e+07 -0.000151578 161123 -1.39149e-05 2.3248e+07)
(5.36857e+07 -3.20551e+06 9.97132e-06 1.19626e+07 -1.39831e-05 1.96945e+07)
(-6.32985e+06 6.89035e+06 -7.30219e-05 -7.71305e+07 -0.000185125 -2.50381e+07)
(4.55984e+07 -1.64371e+07 3.9932e-06 6.89881e+06 -1.55671e-05 1.57492e+07)
(9.1134e+07 -1.17423e+07 7.77623e-06 -3.8348e+06 0.000127391 2.61897e+07)
(1.81607e+08 1.0563e+06 4.78436e-05 5.23804e+07 -0.000306858 9.72711e+07)
(1.12629e+06 -4.54639e+06 -2.75554e-06 -1.2672e+07 1.50511e-06 -3.46372e+06)
(5.35451e+07 -600255 -1.22832e-05 9.04719e+06 1.7294e-05 1.87777e+07)
(5.39175e+07 -2.00709e+06 -3.4888e-05 1.11159e+07 3.06897e-06 1.951e+07)
(5.53963e+07 -4.16588e+06 2.23246e-05 3.58728e+06 -2.69833e-05 1.76951e+07)
(7.70153e+07 -7.09584e+06 -6.81179e-05 583948 -1.45337e-05 2.32798e+07)
(1.93598e+06 -4.46561e+06 -1.61129e-06 -1.47788e+07 2.50305e-07 -3.85286e+06)
(3.82345e+07 -1.46876e+07 -3.08948e-05 8.01093e+06 3.4873e-06 1.38736e+07)
(1.21335e+08 2.92841e+07 2.40117e-05 4.08692e+06 -0.000118301 3.76266e+07)
(1.13265e+08 2.36528e+07 6.12466e-05 -2.74982e+06 -3.27396e-05 3.31546e+07)
(5.49501e+07 -2.102e+07 -2.30718e-05 -2.68401e+06 2.23494e-05 1.56798e+07)
(5.77404e+07 -2.01889e+07 -4.49527e-05 -1.47642e+06 2.58624e-06 1.68792e+07)
(5.3459e+07 -1.68563e+06 -2.38191e-06 6.89237e+06 5.46876e-06 1.81054e+07)
(9.74667e+07 -6.25752e+06 7.80659e-05 -554382 -3.91585e-05 2.90737e+07)
(4.05439e+07 -1.72578e+07 4.08661e-06 5.70878e+06 5.84713e-06 1.38758e+07)
(5.49678e+07 -1.93752e+06 -8.85043e-06 1.47084e+06 3.61402e-05 1.69316e+07)
(2.17166e+07 -1.66335e+07 -4.69376e-06 -5.68764e+06 8.2243e-06 4.80869e+06)
(2.09036e+07 -1.73842e+07 -1.42214e-05 -1.8137e+07 7.79958e-06 830002)
(7.54388e+07 -1.31563e+07 -0.000157603 536995 7.37064e-05 2.27927e+07)
(7.04726e+07 -7.60944e+06 1.76775e-05 -1.87987e+07 -2.83144e-05 1.55022e+07)
(1.89674e+07 -1.56376e+07 -9.97132e-06 -1.7286e+07 4.20775e-06 504431)
(5.23655e+07 -3.09499e+06 4.31079e-05 1.61576e+07 -4.63301e-06 2.05569e+07)
(5.19121e+07 -3.46231e+06 1.52255e-05 1.55064e+07 1.31937e-05 2.02256e+07)
(1.02524e+08 -3.10388e+06 0.000169371 -2.67356e+07 -5.70553e-05 2.42164e+07)
(1.08587e+08 -4.10674e+06 -1.23299e-05 -2.57704e+06 -2.44846e-05 3.18031e+07)
(2.81515e+07 -1.76849e+07 -2.66213e-05 -1.91799e+06 -5.14037e-06 7.87005e+06)
(4.4984e+07 -1.57886e+07 -3.22258e-06 7.27056e+06 -1.97704e-05 1.56764e+07)
(9.97359e+07 -1.70334e+07 0.000250486 -1.83036e+07 0.000171614 2.44297e+07)
(5.23838e+07 -2.71484e+06 3.03577e-06 1.64052e+07 -1.69963e-05 2.06367e+07)
(1.47565e+07 -7.84689e+06 4.83387e-06 1.84366e+06 7.53122e-06 4.98004e+06)
(1.79485e+07 -7.89144e+06 1.4595e-05 3.16655e+06 1.03269e-06 6.33451e+06)
(6.07347e+07 -8.51825e+06 -4.87124e-05 2.06339e+06 3.08247e-05 1.88394e+07)
(4.64902e+07 -7.06307e+06 -4.64239e-05 1.20969e+07 -2.77732e-05 1.75761e+07)
(3.8044e+07 -1.3368e+07 8.67529e-05 8.92506e+06 2.87697e-05 1.40907e+07)
(5.05819e+07 -8.88597e+06 -2.68549e-05 1.07518e+07 4.2238e-06 1.84001e+07)
(5.33302e+07 -520339 3.40473e-05 2.20229e+07 4.15149e-06 2.26059e+07)
(5.35313e+07 -6532.72 2.23713e-05 75811.5 -3.06539e-05 1.60821e+07)
(2.66084e+07 -1.11421e+07 1.37777e-05 6.8163e+06 2.23112e-06 1.00274e+07)
(3.70837e+07 -553469 1.04617e-05 1.23224e+07 4.40829e-06 1.48218e+07)
(3.76566e+07 -1.26247e+07 1.61363e-05 -2.31582e+07 -4.98771e-05 4.34951e+06)
(4.37185e+07 -2.0458e+07 -1.44316e-05 1.07912e+06 2.68753e-05 1.34393e+07)
(3.26346e+07 -6.85565e+06 -1.76074e-05 1.08274e+07 1.05316e-05 1.30386e+07)
(8.15724e+06 -1.00871e+07 9.57434e-07 -8.20834e+06 -1.12455e-06 -15329.7)
(2.25975e+07 -4.07632e+06 1.1209e-06 7.9794e+06 3.01891e-06 9.17307e+06)
(1.84372e+07 -5.98185e+06 1.26101e-06 5.41234e+06 6.40854e-06 7.15488e+06)
(1.95451e+07 -5.0241e+06 3.03577e-07 5.64509e+06 6.03883e-06 7.55706e+06)
(3.7019e+07 -1.25187e+07 0.000101114 9.16248e+06 3.27764e-05 1.38545e+07)
(6.09855e+07 -7.74892e+06 -3.06846e-05 1.40132e+06 8.82999e-07 1.87161e+07)
(4.63322e+07 -6.27626e+06 -1.85882e-05 1.25488e+07 -2.88952e-05 1.76643e+07)
(3.52348e+07 -2.03116e+07 -1.36376e-05 -4.87881e+06 -1.42243e-05 9.1068e+06)
(6.1223e+07 -8.75545e+06 -5.17481e-05 2.11703e+06 -2.48626e-05 1.9002e+07)
(4.5856e+07 -7.23013e+06 -3.36269e-05 1.19176e+07 -3.19233e-05 1.73321e+07)
(5.75173e+07 -1.96131e+07 4.52329e-05 2.49329e+06 2.35221e-05 1.80032e+07)
(5.7461e+07 -1.9329e+07 1.64165e-05 2.21301e+06 1.16023e-05 1.79022e+07)
(1.28426e+08 1.17853e+06 -4.87999e-05 -322474 4.88175e-05 3.84311e+07)
(6.28962e+07 -1.27283e+07 8.05646e-05 3.14536e+06 3.53054e-06 1.98125e+07)
(5.33398e+07 -2.1564e+06 1.17694e-05 4.14949e+06 3.67189e-05 1.72468e+07)
(3.62268e+07 -1.25569e+07 8.81773e-05 8.87366e+06 3.42275e-05 1.35301e+07)
(1.77762e+07 -994344 -8.24327e-06 5.71609e+06 2.05397e-06 7.04768e+06)
(5.76231e+07 -6.5069e+06 -4.88058e-06 3.33163e+06 4.61057e-06 1.82864e+07)
(2.50473e+07 -7.32521e+06 8.24327e-06 7.94739e+06 1.5577e-06 9.89841e+06)
(2.44858e+07 -1.79943e+07 -6.07153e-07 -6.03563e+06 3.505e-06 5.53504e+06)
(2.47638e+07 -1.76315e+07 -4.88058e-06 -6.56195e+06 1.64661e-05 5.46056e+06)
(7.34997e+07 -1.4446e+07 -0.000170727 475821 3.94562e-05 2.21927e+07)
(4.63756e+07 -3.46111e+07 0.000210877 3.99247e+07 0.000394408 7.6083e+07)
(5.44654e+07 -3.62841e+06 4.03757e-05 4.47817e+06 6.38533e-06 1.76831e+07)
(1.27041e+08 -2.22855e+06 -0.000152664 -797068 5.33127e-05 3.78733e+07)
(1.30354e+08 -631540 -0.000218995 -447013 -3.86301e-05 3.8972e+07)
(6.68079e+07 -1.40476e+07 1.15359e-05 -1.52906e+07 1.80978e-06 1.54552e+07)
(1.40653e+07 -1.22034e+07 -7.82294e-06 -5.43714e+06 6.27732e-06 2.58843e+06)
(5.29175e+07 -529852 -8.12651e-06 2.01231e+07 1.75271e-05 2.19122e+07)
(5.37065e+07 -121227 -2.98206e-05 254267 -6.51522e-06 1.61882e+07)
(3.30701e+07 -1.78655e+07 -2.47298e-05 1.49958e+06 6.11824e-06 1.03709e+07)
(5.60409e+07 -1.35664e+07 2.05732e-05 -1.98776e+07 4.91736e-05 1.0849e+07)
(1.37351e+07 -1.28745e+07 -5.86136e-06 -4.44356e+06 8.26006e-06 2.78745e+06)
(2.68632e+07 -4.54248e+06 7.71785e-05 -1.66673e+07 3.98328e-05 3.05877e+06)
(7.13541e+07 -1.39088e+07 -5.67688e-05 1.84307e+06 5.37695e-05 2.19591e+07)
(6.34036e+07 -7.75609e+06 5.75861e-05 1.76008e+06 -3.49989e-05 1.95491e+07)
(4.41544e+07 -6.12528e+06 -2.94002e-05 1.20178e+07 -2.19473e-06 1.68517e+07)
(7.011e+07 -1.28065e+07 3.48646e-05 -1.32993e+07 -3.29118e-05 1.70432e+07)
(4.44244e+06 -9.8038e+06 -3.71298e-06 -2.77187e+07 2.1316e-06 -6.98288e+06)
(5.33108e+07 -280753 2.76955e-05 2.17548e+07 5.13027e-06 2.25197e+07)
(5.36257e+07 -18764.5 7.72953e-06 92222.3 -1.96362e-05 1.61154e+07)
(1.21503e+08 2.47508e+07 -5.79014e-05 -8.89108e+06 -5.04404e-06 3.37835e+07)
(6.98467e+07 -9.07867e+06 -1.61596e-05 -1.89694e+07 -4.88291e-05 1.52632e+07)
(3.68693e+07 -3.30502e+06 5.6512e-06 1.2514e+07 -1.71282e-06 1.4815e+07)
(8.21785e+07 -5.38961e+06 8.62625e-05 -1.71298e+07 -5.61442e-05 1.95146e+07)
(1.2735e+08 2.62957e+07 0.000116319 1.07365e+07 -3.13384e-05 4.14261e+07)
(4.49627e+07 -1.90892e+07 -3.79237e-05 3.80212e+06 -1.33982e-05 1.46295e+07)
(4.9518e+07 -3.42892e+06 4.08427e-05 1.42723e+07 -3.27483e-05 1.91371e+07)
(9.34269e+07 -1.05686e+07 -3.61023e-05 -3.46689e+06 0.00012331 2.6988e+07)
(-8.35523e+06 1.11048e+06 3.5752e-05 -5.34892e+07 5.33815e-05 -1.85533e+07)
(6.00856e+07 -1.29898e+07 3.2833e-05 4.25838e+06 -9.84581e-06 1.93032e+07)
(1.25631e+08 2.63013e+07 0.000154196 6.68275e+06 -1.32406e-05 3.96941e+07)
(7.43274e+07 -6.99228e+06 2.26515e-06 222742 -3.66131e-05 2.2365e+07)
(1.21514e+08 2.63884e+07 -0.000141239 -3.14375e+06 -4.00721e-05 3.5511e+07)
(5.17546e+07 -2.56105e+06 -5.53911e-05 1.64338e+07 -4.85312e-06 2.04565e+07)
(1.22048e+08 -2.12324e+06 -0.000103076 403753 2.29317e-05 3.67356e+07)
(8.63279e+07 -1.29188e+07 3.01475e-05 -4.49788e+06 1.0777e-05 2.4549e+07)
(8.7799e+07 -1.34991e+07 3.64292e-06 -1.92869e+06 -4.37968e-05 2.57611e+07)
(5.31865e+07 -4.91931e+06 7.00561e-05 9.34868e+06 -5.85917e-05 1.87606e+07)
(1.16216e+08 9.44737e+06 -1.61713e-06 -9.77757e+06 4.08894e-05 3.19316e+07)
(5.80261e+07 -7.11255e+06 1.79811e-05 3.36423e+06 4.17564e-06 1.84171e+07)
(6.25392e+07 -1.23904e+07 4.66574e-05 2.49294e+06 2.40322e-05 1.95096e+07)
(-8.15585e+06 4.42516e+06 4.09828e-05 -7.16481e+07 -3.9489e-05 -2.39412e+07)
(5.91465e+07 -1.28905e+07 4.74981e-05 3.85775e+06 -2.8275e-05 1.89013e+07)
(5.34616e+07 -537556 -1.55525e-05 1.34276e+07 9.84435e-06 2.00667e+07)
(-8.07671e+06 71103 6.73473e-05 -6.8305e+07 4.04866e-05 -2.29145e+07)
(6.37406e+07 -1.65085e+07 -4.04691e-05 3.23906e+06 -5.15496e-06 2.00939e+07)
(7.92745e+07 -4.02746e+07 0.000462341 2.87796e+07 0.000314131 4.6386e+07)
(8.10839e+06 -1.10471e+07 4.69376e-06 -1.09403e+07 1.08806e-06 -849583)
(1.23899e+08 1.39889e+07 -1.9663e-05 -1.40535e+07 -6.09876e-05 3.86272e+07)
(1.03268e+08 986156 2.00594e-05 -1.22099e+07 -0.000111728 2.73175e+07)
(3.55715e+06 -8.37905e+06 -9.7378e-06 -3.56255e+07 -1.77943e-05 -9.62052e+06)
(9.67604e+06 -1.1111e+06 -2.68549e-06 -2.02015e+06 -2.0709e-07 2.29677e+06)
(3.63441e+07 -1.29589e+07 3.12917e-06 -2.59903e+07 -4.10529e-05 3.10613e+06)
(9.08145e+07 -1.24322e+07 -9.66308e-05 -468641 6.63811e-05 2.71038e+07)
(6.20784e+07 -1.17369e+07 8.50015e-06 2.54822e+06 7.24205e-06 1.9388e+07)
(4.27133e+07 -9.69746e+06 0.000152816 -2.25004e+07 1.24175e-05 6.06388e+06)
(1.14908e+08 1.08742e+07 0.000253335 -1.31785e+07 -1.60078e-05 3.05189e+07)
(7.99248e+07 -3.23402e+07 0.000144257 -1.61222e+07 0.000247076 1.91408e+07)
(5.48102e+07 -1.3757e+06 1.96858e-05 1.08312e+06 1.45366e-06 1.6768e+07)
(5.42917e+07 -1.11319e+06 5.04404e-06 769001 1.0669e-05 1.65182e+07)