/*--------------------------------*- C++ -*----------------------------------*\
| =========                 |                                                 |
| \\      /  F ield         | OpenFOAM: The Open Source CFD Toolbox           |
|  \\    /   O peration     | Version:  v2012                                 |
|   \\  /    A nd           | Website:  www.openfoam.com                      |
|    \\/     M anipulation  |                                                 |
\*---------------------------------------------------------------------------*/
FoamFile
{
    version     2.0;
    format      ascii;
    class       volVectorField;
    location    "10";
    object      D_0;
}
// * * * * * * * * * * * * * * * * * * * * * * * * * * * * * * * * * * * * * //

dimensions      [0 1 0 0 0 0 0];


internalField   nonuniform List<vector> 
1896
(
(0.00508041 -5.11124e-05 0)
(0.00474585 -0.000330245 0)
(0.00498306 -1.74789e-05 0)
(0.00140515 -0.00176486 0)
(0.00501537 -4.87982e-05 0)
(0.00497125 -5.36515e-05 0)
(0.00127207 -0.00186148 0)
(0.00465948 -5.25802e-05 0)
(0.00339971 -0.000282399 0)
(0.00464046 -3.55579e-05 0)
(0.00514479 -7.73549e-06 0)
(0.00410027 -3.2655e-05 0)
(0.00424104 -2.12367e-05 0)
(0.00413323 -2.69036e-05 0)
(0.00148626 -0.00160355 0)
(0.000421109 -0.00245279 0)
(0.00417471 -0.000415832 0)
(0.00125804 -0.00213031 0)
(0.00390612 -0.000358994 0)
(0.00274811 -0.00128412 0)
(0.00385127 -0.000344163 0)
(0.00462795 -0.00023856 0)
(0.00207727 -0.000911296 0)
(0.00196642 -0.000983916 0)
(0.00458739 -0.000338252 0)
(0.00463726 -0.000322023 0)
(0.00424462 -1.45145e-05 0)
(0.00430975 -1.67202e-05 0)
(0.0051086 -4.36068e-05 0)
(0.0035043 -0.000353389 0)
(0.00357198 -0.000336772 0)
(0.00472188 -0.000404727 0)
(0.00404652 -2.81782e-05 0)
(0.00475522 -0.00034277 0)
(0.00276518 -0.00067277 0)
(0.00519517 -4.64512e-05 0)
(0.00368209 -0.000328285 0)
(0.00495569 -0.000203815 0)
(0.00108944 -0.00220496 0)
(0.00340073 -0.000362515 0)
(0.00467467 -0.000460654 0)
(0.00220416 -0.00148807 0)
(0.00370239 -0.000204832 0)
(0.00238585 -0.000883463 0)
(0.0043008 -1.17604e-05 0)
(0.00426824 -9.57277e-06 0)
(0.00134653 -0.00172907 0)
(0.0051455 -2.0522e-05 0)
(0.00215367 -0.000959347 0)
(0.00115701 -0.00182528 0)
(0.00496548 -2.5203e-05 0)
(0.00478032 -5.59573e-05 0)
(0.00474227 -5.2729e-05 0)
(0.00465011 -0.000244532 0)
(0.00333943 -0.000296279 0)
(0.00440988 -0.000495926 0)
(0.00290682 -0.000489472 0)
(0.00516166 -5.73007e-05 0)
(0.00505544 -0.000160129 0)
(0.00367771 -0.000537399 0)
(0.00467191 -4.28453e-05 0)
(0.00126598 -0.00172001 0)
(0.00132534 -0.00163533 0)
(0.00483196 -0.000112046 0)
(0.00289149 -0.00129139 0)
(0.00467753 -0.000445431 0)
(0.00244155 -0.000715188 0)
(0.00396892 -6.53725e-05 0)
(0.00490827 -0.000190109 0)
(0.0023683 -0.000760866 0)
(0.00411876 -7.99922e-06 0)
(0.00154135 -0.0014375 0)
(0.00491182 -0.000199652 0)
(0.00445103 -0.000499375 0)
(0.00269042 -0.000711699 0)
(0.00468653 -0.00032055 0)
(0.00468916 -0.000338664 0)
(0.0049783 -0.000111846 0)
(0.00494396 -0.000123153 0)
(0.0042795 -0.00019493 0)
(0.00234356 -0.00145623 0)
(0.00212776 -0.000884404 0)
(0.00442803 -1.37858e-05 0)
(0.00447381 -5.9048e-05 0)
(0.00450075 -5.22326e-05 0)
(0.00413746 -0.00026897 0)
(0.00407989 -9.68037e-05 0)
(0.00407491 -8.69999e-05 0)
(0.00303279 -0.000440973 0)
(0.00382875 -0.000142537 0)
(0.00427867 -0.000128815 0)
(0.000357224 -0.00177692 0)
(0.00365005 -0.000155894 0)
(0.00172119 -0.00179123 0)
(0.0018879 -0.00103272 0)
(0.00459794 -0.000289351 0)
(0.00496246 -0.000256728 0)
(0.00526742 -2.56647e-05 0)
(0.00494508 -0.000291321 0)
(0.00383216 -0.000105702 0)
(0.00381504 -0.000117458 0)
(0.00396203 -6.44023e-05 0)
(0.00482493 -0.000103527 0)
(0.00360189 -0.000169183 0)
(0.00333116 -0.000264258 0)
(0.00374169 -0.000183506 0)
(0.00418703 -0.000267384 0)
(0.0021656 -0.00111426 0)
(0.00235239 -0.000746496 0)
(0.00014221 -0.00188266 0)
(0.00527632 -2.64855e-05 0)
(0.00497805 -0.000268447 0)
(0.00261816 -0.000594545 0)
(0.00295882 -0.000450812 0)
(0.00157559 -0.00207343 0)
(0.00403317 -0.000109573 0)
(0.00447965 -7.15384e-06 0)
(0.00409169 -0.000129494 0)
(0.00252654 -0.00101892 0)
(0.00361246 -0.000349922 0)
(0.0024256 -0.00104811 0)
(0.00340009 -0.000295948 0)
(0.00491178 -0.000222364 0)
(0.00443294 -3.41593e-05 0)
(0.00443294 -2.90706e-05 0)
(0.00305653 -0.000445198 0)
(0.00220919 -0.00104441 0)
(0.00461793 -5.50788e-05 0)
(0.00387919 -0.000458559 0)
(0.00371454 -0.000130805 0)
(0.00367045 -0.00014251 0)
(0.00427322 -0.000140644 0)
(0.00253198 -0.000642341 0)
(0.00185704 -0.00174704 0)
(0.00395247 -0.000362606 0)
(0.0012849 -0.00164478 0)
(0.00181732 -0.00146633 0)
(0.0016745 -0.00157241 0)
(0.00473117 -0.000420854 0)
(0.00317225 -0.000386073 0)
(0.00481369 -0.000217716 0)
(0.0024276 -0.000792793 0)
(0.00336339 -0.00036053 0)
(0.000464009 -0.00259537 0)
(0.00442028 -9.67658e-05 0)
(0.0042295 -0.000334991 0)
(0.00429291 -0.000330728 0)
(0.00383274 -0.000450499 0)
(0.00185348 -0.00107699 0)
(0.00409113 -0.000118295 0)
(0.0042603 -2.37125e-05 0)
(0.00490213 -0.000271106 0)
(0.00478592 -0.000216325 0)
(0.00480692 -0.000142164 0)
(0.00473108 -0.000144227 0)
(0.00270388 -0.000566997 0)
(0.0044503 -7.32348e-06 0)
(0.00269824 -0.000578823 0)
(0.00137238 -0.00197658 0)
(0.00480755 -3.40103e-05 0)
(0.00481581 -4.98355e-05 0)
(0.00238298 -0.000814372 0)
(0.00334943 -0.000334865 0)
(0.00502771 -0.00015355 0)
(0.000379619 -0.00262497 0)
(0.00460669 -3.76768e-05 0)
(4.41686e-05 -0.00287856 0)
(0.00517104 -4.66699e-05 0)
(0.00518494 -4.01053e-05 0)
(0.00485182 -0.000295507 0)
(0.00485774 -0.000309602 0)
(0.0046266 -0.000438421 0)
(0.00402207 -3.47677e-05 0)
(0.00404377 -3.08272e-05 0)
(0.00161691 -0.00158676 0)
(0.00149721 -0.00166928 0)
(0.00200328 -0.00104604 0)
(0.00459274 -0.000304964 0)
(0.00516816 -1.42761e-05 0)
(0.0034695 -0.00021469 0)
(0.00402223 -3.60332e-05 0)
(0.00366972 -0.000488718 0)
(0.00483127 -0.000147516 0)
(0.00197365 -0.00105033 0)
(0.00153253 -0.00159675 0)
(0.000296707 -0.00266492 0)
(0.00390659 -0.000101196 0)
(0.000697941 -0.00231771 0)
(0.00393702 -8.92721e-05 0)
(0.00388961 -0.000127616 0)
(0.00186663 -0.00138651 0)
(0.00516956 -2.48676e-05 0)
(0.00251392 -0.000745871 0)
(0.00120082 -0.00152863 0)
(0.00262798 -0.00135431 0)
(0.00399387 -4.86593e-05 0)
(0.00374902 -0.000204787 0)
(0.00249746 -0.000806751 0)
(0.00402698 -4.2448e-05 0)
(0.00443032 -1.90509e-05 0)
(0.00403909 -8.54409e-05 0)
(0.00247268 -0.001338 0)
(0.00514868 -3.07617e-05 0)
(0.00475384 -0.000151934 0)
(0.000779215 -0.00228287 0)
(0.00475973 -0.000130223 0)
(0.0022489 -0.000896554 0)
(0.00290191 -0.000554345 0)
(0.00396047 -4.13903e-05 0)
(0.00440274 -0.000480553 0)
(0.00246933 -0.000773859 0)
(0.00373245 -0.000331958 0)
(0.00439376 -0.000389726 0)
(0.00441038 -0.000404563 0)
(0.00410425 -4.19719e-05 0)
(0.00350907 -0.000193589 0)
(0.00249903 -0.00123055 0)
(0.00324831 -0.000537006 0)
(0.00332436 -0.000523633 0)
(0.00346967 -0.000341924 0)
(0.00384841 -0.000158807 0)
(0.00467875 -0.000150798 0)
(0.00149498 -0.00129972 0)
(0.00227123 -0.000796937 0)
(0.00500816 -0.000231073 0)
(0.00324738 -0.000359409 0)
(0.00186026 -0.00149291 0)
(0.00431377 -0.000294891 0)
(0.000223634 -0.00278714 0)
(0.00476923 -0.000379182 0)
(0.000199602 -0.0028165 0)
(0.00474367 -4.52019e-05 0)
(0.00477227 -3.55713e-05 0)
(0.00530525 -1.25929e-05 0)
(0.00493753 -0.000336778 0)
(0.00468188 -8.68727e-05 0)
(0.00401317 -5.93825e-05 0)
(0.00239022 -0.000985471 0)
(0.000451746 -0.0025974 0)
(0.00373351 -0.000532078 0)
(0.00198686 -0.0014271 0)
(0.00213264 -0.00107427 0)
(0.00410626 -4.74197e-05 0)
(0.000536987 -0.0025311 0)
(0.00464764 -0.000224765 0)
(0.00405748 -3.59331e-05 0)
(0.00510005 -0.00014002 0)
(0.00408996 -3.02544e-05 0)
(0.00410286 -2.35627e-05 0)
(0.0029751 -0.000524566 0)
(0.00299832 -0.000743327 0)
(0.00363733 -0.000223347 0)
(0.00476152 -0.000366366 0)
(0.00523849 -1.31827e-05 0)
(0.00483158 -0.000391199 0)
(0.00456939 -0.000180023 0)
(0.00377168 -0.000120497 0)
(0.000555657 -0.00250819 0)
(0.00144529 -0.00153678 0)
(0.00278147 -0.000632892 0)
(0.00392384 -0.000487493 0)
(0.00380117 -0.000377841 0)
(0.00378078 -0.000344321 0)
(0.00407339 -6.75843e-05 0)
(0.00413174 -0.000435257 0)
(0.0032425 -0.000301997 0)
(6.8604e-05 -0.00288763 0)
(0.00379211 -0.000105961 0)
(0.0036416 -0.000514335 0)
(0.0045971 -0.000167803 0)
(0.00380716 -0.000107054 0)
(0.00401712 -2.72883e-05 0)
(0.00114841 -0.00158924 0)
(0.00414997 -1.87776e-05 0)
(0.00416686 -0.000393307 0)
(0.00383296 -9.74769e-05 0)
(0.0024143 -0.000708074 0)
(0.00515415 -8.75998e-05 0)
(0.0044469 -0.000178917 0)
(0.00510621 -8.5326e-06 0)
(0.00462619 -0.000452425 0)
(0.00284768 -0.000560066 0)
(0.00392701 -6.46982e-05 0)
(0.00471351 -0.000459776 0)
(0.00434806 -0.000280631 0)
(0.00049895 -0.00243326 0)
(0.00416386 -0.000214716 0)
(0.00403733 -0.000120794 0)
(0.00425739 -0.000184138 0)
(0.00517033 -3.08992e-06 0)
(0.000321127 -0.00255523 0)
(0.00384809 -0.00033521 0)
(0.00371196 -0.000301377 0)
(0.00411351 -0.000229673 0)
(7.95572e-05 -0.00275659 0)
(0.00413357 -3.83306e-06 0)
(0.000446583 -0.00236703 0)
(0.00399967 -9.49705e-05 0)
(0.00075013 -0.00233454 0)
(0.00372283 -0.000289102 0)
(0.000682026 -0.00236938 0)
(0.00368031 -0.000295259 0)
(0.00182069 -0.00110981 0)
(0.00124713 -0.00184571 0)
(0.00469512 -0.000191495 0)
(0.00454551 -9.85107e-05 0)
(0.00450466 -9.85403e-05 0)
(0.00396952 -4.87452e-05 0)
(0.00397784 -4.71198e-05 0)
(0.00449788 -0.000173062 0)
(0.00500239 -0.000154672 0)
(0.00386545 -0.000141994 0)
(0.0040833 -2.54048e-05 0)
(0.00522916 -3.10389e-05 0)
(0.00489733 -0.000306184 0)
(0.00385167 -0.000430787 0)
(0.00460703 -3.62784e-06 0)
(0.00496076 -0.000189239 0)
(0.00359201 -0.000227211 0)
(0.00496935 -0.000149082 0)
(0.00437928 -9.78955e-05 0)
(0.000930113 -0.0019207 0)
(0.000825729 -0.00202413 0)
(0.0034636 -0.000233145 0)
(0.00387423 -8.14795e-05 0)
(0.0038028 -0.00016964 0)
(0.0035923 -0.00021761 0)
(0.00395145 -5.35406e-05 0)
(0.00503414 -7.48406e-05 0)
(0.00479874 -0.000281311 0)
(0.00390037 -0.000198777 0)
(0.00397208 -0.00053619 0)
(0.00524346 -1.56642e-05 0)
(0.00485131 -0.000370969 0)
(0.00464553 -2.70339e-05 0)
(0.00389364 -0.000260211 0)
(0.00406375 -4.67192e-05 0)
(0.00178869 -0.00111553 0)
(0.00503764 -6.81395e-05 0)
(0.00477733 -0.000297092 0)
(0.00326784 -0.000287973 0)
(0.00380785 -0.000289107 0)
(0.00337375 -0.000303195 0)
(0.00338028 -0.000248308 0)
(0.00430306 -2.6826e-05 0)
(0.00384995 -0.00038044 0)
(0.00385983 -0.000312187 0)
(0.00160629 -0.00187444 0)
(0.00393526 -0.000100348 0)
(0.00390478 -0.000205101 0)
(0.00388748 -0.000105729 0)
(0.00499863 -8.51172e-05 0)
(0.00300515 -0.000536322 0)
(0.00407682 -0.000227938 0)
(0.00407591 -0.000390501 0)
(0.00379553 -0.000384405 0)
(0.00329346 -0.000971388 0)
(0.00115118 -0.00208469 0)
(0.00397287 -0.000115869 0)
(0.00247715 -0.00095747 0)
(0.00304184 -0.00049145 0)
(0.000128838 -0.00276549 0)
(0.00105997 -0.0021817 0)
(0.0036581 -0.000350621 0)
(0.00472487 -0.0002886 0)
(0.00421477 -0.0003736 0)
(0.00298048 -0.000433094 0)
(0.00304894 -0.000409562 0)
(0.00410099 -0.000172624 0)
(0.000128744 -0.00288227 0)
(0.00129594 -0.00174503 0)
(0.00415535 -2.29933e-05 0)
(0.00528988 -1.20206e-05 0)
(0.00490575 -0.000357596 0)
(0.0047257 -0.000304706 0)
(0.00369505 -0.000131066 0)
(0.00147195 -0.00207964 0)
(0.00294037 -0.00049013 0)
(0.00414436 -0.000103134 0)
(0.00396572 -0.000107771 0)
(0.00404121 -7.71384e-05 0)
(0.00478202 -0.000411591 0)
(0.00377693 -0.000175967 0)
(0.00495081 -0.000146272 0)
(0.00374147 -0.000117282 0)
(0.00519122 -7.3694e-05 0)
(0.00086259 -0.00230419 0)
(0.00476366 -0.000277433 0)
(0.00520722 -1.16578e-05 0)
(0.000838968 -0.00229843 0)
(0.00459752 -6.26257e-05 0)
(0.00500908 -6.49711e-05 0)
(0.000713096 -0.00202285 0)
(0.00191532 -0.00186911 0)
(0.00468157 -0.000102793 0)
(0.00384431 -0.000122629 0)
(0.00349918 -0.000438695 0)
(0.00296724 -0.000470304 0)
(0.00454781 -0.000213987 0)
(0.00454428 -0.000203215 0)
(0.00407759 -0.00018978 0)
(0.000165658 -0.00284206 0)
(0.00390642 -0.000509102 0)
(0.00411215 -4.84386e-06 0)
(0.0034914 -0.000422605 0)
(0.0031632 -0.000482027 0)
(0.00424643 -0.000210855 0)
(0.00155187 -0.00126896 0)
(0.00416845 -1.47663e-05 0)
(0.000542036 -0.00226636 0)
(0.00349221 -0.000205102 0)
(0.00437066 -4.04913e-05 0)
(0.00434749 -3.66883e-05 0)
(0.000472145 -0.00256897 0)
(0.00302357 -0.000474356 0)
(0.00302772 -0.000489464 0)
(0.00465861 -0.000141494 0)
(0.000182562 -0.0026072 0)
(0.0034334 -0.000226655 0)
(0.00453585 -7.94579e-05 0)
(0.00319252 -0.000350062 0)
(0.00530345 -5.60003e-06 0)
(0.00489438 -0.000391744 0)
(0.00164469 -0.00150125 0)
(0.00328293 -0.000359471 0)
(0.00385758 -0.000127387 0)
(0.00379349 -0.000178284 0)
(0.00363507 -0.00056102 0)
(0.0014213 -0.00180362 0)
(0.00132964 -0.00189899 0)
(0.00356 -0.000488103 0)
(0.00307386 -0.000528246 0)
(0.00352375 -0.000219526 0)
(0.00441745 -0.000317585 0)
(0.00309932 -0.000362054 0)
(0.00314094 -0.000340684 0)
(0.00459053 -0.000437884 0)
(0.000138796 -0.00253085 0)
(0.00283173 -0.000712827 0)
(0.00501048 -0.000169046 0)
(0.00291634 -0.000648879 0)
(0.00357451 -0.000474808 0)
(0.00469014 -0.000130533 0)
(0.000434665 -0.00261531 0)
(0.00526873 -7.74184e-06 0)
(0.00485738 -0.000397794 0)
(0.0044739 -0.000123399 0)
(0.00471895 -8.28784e-05 0)
(0.00521464 -5.85144e-05 0)
(0.00397497 -0.000474038 0)
(0.00118698 -0.00158263 0)
(0.00429404 -0.000260862 0)
(0.00428596 -0.000246461 0)
(0.00471587 -0.000103809 0)
(0.00419879 -0.000218502 0)
(0.00440545 -3.89609e-05 0)
(0.00468276 -0.000122183 0)
(0.0033272 -0.00026538 0)
(0.00364375 -0.000574008 0)
(0.0042727 -6.32771e-05 0)
(0.00219316 -0.00100029 0)
(0.00472049 -0.000197029 0)
(0.00314689 -0.000383307 0)
(0.00358911 -0.000379176 0)
(0.00380473 -0.000309951 0)
(0.000946672 -0.00185813 0)
(0.00310907 -0.000432305 0)
(0.00317361 -0.000419665 0)
(0.00505411 -1.94096e-05 0)
(0.00178943 -0.00194136 0)
(0.00493824 -8.23338e-05 0)
(0.00415666 -4.47538e-05 0)
(0.00426009 -0.000296602 0)
(0.00470027 -0.000213023 0)
(0.00487134 -0.000228643 0)
(0.00433384 -0.000119287 0)
(0.00356 -0.000297356 0)
(0.0040126 -1.72927e-05 0)
(0.00464388 -0.000276658 0)
(5.90534e-05 -0.00291613 0)
(0.00416584 -0.000141983 0)
(0.00467576 -2.36516e-05 0)
(0.00438068 -0.000122789 0)
(0.00490078 -9.00701e-05 0)
(0.00413621 -9.29965e-05 0)
(0.00154612 -0.00125882 0)
(0.00414597 -4.23953e-05 0)
(0.00354595 -0.000462026 0)
(0.0041937 -0.000187306 0)
(0.0037421 -0.00048073 0)
(0.00303594 -0.00043808 0)
(0.00415974 -0.000198432 0)
(0.00387296 -0.000477206 0)
(0.00518492 -7.03295e-05 0)
(0.00110016 -0.0020847 0)
(0.00155638 -0.00196242 0)
(0.00438292 -0.000205265 0)
(0.00430496 -0.000348788 0)
(0.00427706 -3.19459e-05 0)
(0.00412295 -0.000384329 0)
(0.0048429 -0.000266942 0)
(0.00438812 -0.000232274 0)
(0.00430718 -6.52385e-05 0)
(0.00192561 -0.00176997 0)
(0.00503585 -5.51605e-05 0)
(0.00400767 -5.44969e-05 0)
(0.00440781 -2.28696e-05 0)
(0.00209238 -0.00159902 0)
(0.00362876 -0.000150186 0)
(0.00341474 -0.000532972 0)
(0.0036026 -0.000157902 0)
(0.00324238 -0.000316363 0)
(0.00428916 -2.15357e-06 0)
(0.00496327 -8.74932e-05 0)
(0.000210193 -0.00275396 0)
(0.000608642 -0.00232126 0)
(0.0042102 -2.40922e-05 0)
(0.00434448 -0.000203794 0)
(0.00490007 -0.000117727 0)
(0.00486916 -0.000118769 0)
(0.00502979 -1.51135e-05 0)
(0.00489279 -0.000259322 0)
(0.000844305 -0.00190678 0)
(0.00484559 -5.38122e-05 0)
(0.00156236 -0.00129447 0)
(0.00390371 -8.83245e-05 0)
(0.00393379 -8.61602e-05 0)
(0.00159653 -0.00125553 0)
(0.00460217 -0.000212538 0)
(0.00464507 -0.000198496 0)
(0.00498371 -3.23281e-05 0)
(0.00472042 -0.000166858 0)
(0.00438311 -2.38102e-05 0)
(0.00360615 -0.000293397 0)
(0.00487127 -0.000108608 0)
(0.00435378 -3.0643e-05 0)
(0.00450878 -0.000480629 0)
(0.00015153 -0.00281985 0)
(0.00361447 -0.000684439 0)
(0.00284263 -0.000653814 0)
(0.00161554 -0.00198451 0)
(0.00404274 -9.68094e-06 0)
(0.00340293 -0.000305736 0)
(0.00432496 -7.74775e-05 0)
(0.00429805 -7.47461e-05 0)
(0.00375889 -0.000131083 0)
(0.00279049 -0.000631923 0)
(0.00412823 -5.22171e-05 0)
(0.00418963 -9.95133e-05 0)
(0.00451857 -0.000119373 0)
(0.0048173 -1.7743e-05 0)
(0.00179643 -0.00121475 0)
(0.00296016 -0.000420758 0)
(0.00324674 -0.000390763 0)
(0.00439896 -1.0738e-05 0)
(0.000465809 -0.00256147 0)
(0.00316971 -0.000417311 0)
(0.00280344 -0.000551105 0)
(0.00443882 -0.000223548 0)
(0.000632543 -0.0022103 0)
(0.000673353 -0.00209776 0)
(0.00450146 -0.000198944 0)
(0.0043052 -0.000465205 0)
(0.000665363 -0.00230116 0)
(0.00499471 -0.000194433 0)
(0.000393952 -0.00263598 0)
(0.00426727 -2.67554e-06 0)
(0.00421572 -0.000317138 0)
(0.00241989 -0.00121399 0)
(0.00413192 -0.000128731 0)
(0.00363095 -0.000152049 0)
(0.00405678 -3.21062e-05 0)
(0.0039988 -4.68734e-05 0)
(0.00127682 -0.0021726 0)
(0.00227417 -0.00127853 0)
(0.00157689 -0.00136564 0)
(0.005045 -8.82043e-05 0)
(0.0034676 -0.00022515 0)
(0.00335703 -0.000540474 0)
(0.004669 -9.60993e-05 0)
(0.00379365 -0.000104457 0)
(0.00273768 -0.000631346 0)
(0.00447855 -0.00031023 0)
(0.00373253 -0.000125047 0)
(0.00284791 -0.000474187 0)
(0.00301444 -0.000397908 0)
(0.00408276 -1.21983e-05 0)
(0.00405194 -2.29677e-05 0)
(0.00397858 -7.29848e-05 0)
(0.00234173 -0.000866197 0)
(0.00151474 -0.00143314 0)
(0.00102326 -0.00208816 0)
(0.00280837 -0.000547966 0)
(0.00405973 -2.21519e-05 0)
(0.000927275 -0.00219221 0)
(0.00435593 -3.84461e-06 0)
(0.00445915 -0.000205934 0)
(0.00324826 -0.000389835 0)
(0.00281676 -0.000534099 0)
(0.00385577 -0.000112779 0)
(0.00352977 -0.000524408 0)
(0.000625709 -0.00237522 0)
(2.27899e-05 -0.0029181 0)
(0.000148466 -0.00271412 0)
(0.00199543 -0.00128963 0)
(0.00110555 -0.00190415 0)
(0.00286631 -0.00059266 0)
(0.00292715 -0.000585487 0)
(0.00457716 -5.80657e-06 0)
(0.00503182 -4.00283e-05 0)
(0.00454059 -0.000137123 0)
(0.0044966 -2.65022e-06 0)
(0.00452703 -6.94123e-05 0)
(0.00034048 -0.00261701 0)
(0.00399429 -5.23209e-05 0)
(0.00504734 -0.000173072 0)
(0.00411072 -6.46122e-05 0)
(0.000958456 -0.00218825 0)
(0.00276445 -0.000520339 0)
(0.00418878 -2.51937e-05 0)
(0.00403984 -2.71325e-05 0)
(0.00306565 -0.000566465 0)
(0.00365864 -0.000165877 0)
(0.00137425 -0.00144806 0)
(0.00395749 -9.22953e-05 0)
(0.00464904 -0.000163524 0)
(0.00127192 -0.00152974 0)
(0.00155354 -0.00148684 0)
(0.00399941 -4.40821e-05 0)
(0.00444814 -0.000250861 0)
(0.00412409 -1.91257e-05 0)
(0.00105942 -0.00223515 0)
(0.00407443 -0.000437506 0)
(0.00242198 -0.00070584 0)
(0.00281076 -0.000772391 0)
(0.0049739 -0.000131873 0)
(0.00494249 -0.000132762 0)
(0.00372847 -0.000222686 0)
(0.0023677 -0.000738067 0)
(0.00373184 -0.000141786 0)
(0.00469007 -6.80069e-05 0)
(0.00469466 -5.91015e-05 0)
(0.00157402 -0.00149391 0)
(0.00115821 -0.00187926 0)
(0.00434312 -0.000469514 0)
(0.00307848 -0.000655672 0)
(0.00356649 -0.000434893 0)
(0.00510533 -3.72103e-05 0)
(0.0013762 -0.00154335 0)
(0.00429554 -0.00042854 0)
(0.00377005 -0.000461476 0)
(0.00427923 -5.6944e-05 0)
(0.0032752 -0.000594717 0)
(0.00333569 -0.000276344 0)
(0.00107558 -0.00174476 0)
(0.00451057 -0.000146863 0)
(0.00258567 -0.000766616 0)
(0.003545 -0.000191172 0)
(0.00301297 -0.000601641 0)
(0.00264745 -0.00079322 0)
(0.00451736 -0.000410573 0)
(0.00479483 -0.000306032 0)
(0.00438962 -0.000306575 0)
(0.0028106 -0.000653647 0)
(0.00256626 -0.000820372 0)
(0.00268292 -0.000559259 0)
(0.00478882 -0.000257942 0)
(0.00501743 -3.288e-05 0)
(0.00349708 -0.000316979 0)
(0.00391008 -0.000336956 0)
(0.00359658 -0.000185652 0)
(0.00441545 -0.000115725 0)
(0.0033591 -0.000333817 0)
(0.00318095 -0.000324258 0)
(0.00455785 -0.000283401 0)
(0.000325033 -0.00267148 0)
(0.000720714 -0.00210002 0)
(0.000942082 -0.00209946 0)
(0.00416179 -1.15467e-05 0)
(0.00458279 -9.03453e-05 0)
(0.00472059 -0.000366636 0)
(0.00418772 -0.000514339 0)
(4.94698e-05 -0.00280323 0)
(0.00385761 -9.62254e-05 0)
(0.00349588 -0.000233713 0)
(0.00352799 -0.000212649 0)
(0.0042407 -0.000505187 0)
(0.00494758 -4.97059e-05 0)
(0.00205603 -0.000956717 0)
(0.00395024 -0.000275624 0)
(0.00392164 -0.000265899 0)
(0.00248164 -0.000729133 0)
(0.00416107 -0.000530353 0)
(0.000907484 -0.00211279 0)
(0.00458066 -0.000354017 0)
(0.00464907 -0.000356421 0)
(0.00450613 -0.000444597 0)
(0.00424983 -0.000279244 0)
(0.0011095 -0.00196987 0)
(0.00453404 -0.000455156 0)
(0.00524219 -3.67764e-05 0)
(0.00346993 -0.000206588 0)
(0.00404183 -0.000429587 0)
(0.0040439 -0.000407276 0)
(0.00351842 -0.000185085 0)
(0.00329554 -0.000329554 0)
(0.00441204 -0.000260409 0)
(0.00250921 -0.000736767 0)
(0.00425768 -7.10453e-06 0)
(0.00194227 -0.0012494 0)
(0.00297198 -0.000429167 0)
(0.00456227 -4.68752e-05 0)
(0.00302287 -0.000403183 0)
(0.00392244 -0.000527139 0)
(0.000777651 -0.00218225 0)
(0.00495937 -1.25605e-05 0)
(0.000660549 -0.00223377 0)
(0.00107844 -0.0019753 0)
(0.00287348 -0.000669359 0)
(0.00427642 -0.000518202 0)
(0.00436997 -0.00013687 0)
(0.00437949 -0.000426732 0)
(0.000875116 -0.00183919 0)
(0.00417338 -7.68234e-06 0)
(0.00218557 -0.000850853 0)
(0.00410981 -1.61206e-05 0)
(0.00531784 -6.82673e-06 0)
(0.00492384 -0.000371348 0)
(0.00442232 -0.000463121 0)
(0.00215503 -0.000875248 0)
(0.00419364 -0.000354912 0)
(0.00431824 -6.91047e-06 0)
(0.0036966 -0.000502711 0)
(0.00434857 -8.27131e-06 0)
(0.000266078 -0.00272372 0)
(0.00135025 -0.00154246 0)
(0.00468817 -0.000288186 0)
(0.000135197 -0.00286013 0)
(0.00381901 -0.000291683 0)
(0.00408701 -2.14571e-05 0)
(0.00363632 -0.000147354 0)
(0.00290734 -0.000610193 0)
(0.00482871 -2.49329e-05 0)
(0.00423186 -5.85047e-06 0)
(0.00364751 -0.000413843 0)
(0.00500854 -9.18695e-05 0)
(0.00374446 -0.000114498 0)
(0.000656957 -0.00242817 0)
(0.00320154 -0.00031138 0)
(0.0048953 -0.000143825 0)
(0.0027692 -0.000600465 0)
(0.00385934 -0.000199041 0)
(0.00287395 -0.000532477 0)
(0.00424216 -0.000437964 0)
(0.00438152 -2.97925e-06 0)
(0.000117193 -0.00288039 0)
(0.001993 -0.00117271 0)
(0.00483492 -0.000247207 0)
(0.00210158 -0.000908913 0)
(0.000540081 -0.00250478 0)
(0.00331784 -0.000278827 0)
(0.00192645 -0.00119933 0)
(0.00378661 -0.000245851 0)
(0.00421981 -8.87296e-06 0)
(0.00393585 -0.000154222 0)
(0.00289642 -0.000491261 0)
(0.00390383 -0.000219403 0)
(0.00168652 -0.00149692 0)
(0.0017445 -0.00127472 0)
(0.00317153 -0.00098843 0)
(0.00337969 -0.000239895 0)
(0.00162084 -0.00126511 0)
(0.00183143 -0.00134296 0)
(0.00334602 -0.00025157 0)
(0.00433823 -0.000190736 0)
(0.00349768 -0.000234519 0)
(0.00352369 -0.000233237 0)
(0.0039497 -5.86918e-05 0)
(0.00301385 -0.000636982 0)
(0.00394497 -6.26829e-05 0)
(0.00290197 -0.000472141 0)
(0.00286988 -0.000494177 0)
(0.00108816 -0.0018672 0)
(0.00458695 -0.000110882 0)
(0.00411433 -7.7591e-05 0)
(0.00450262 -2.60438e-05 0)
(0.00452665 -2.18426e-05 0)
(0.00478895 -0.00019814 0)
(0.00119222 -0.00198694 0)
(0.00376555 -0.000105902 0)
(0.00168187 -0.0011918 0)
(0.00268403 -0.000691432 0)
(0.00484783 -8.3946e-05 0)
(0.0031112 -0.0011353 0)
(0.00478538 -1.64109e-05 0)
(0.00461875 -0.000106166 0)
(0.00285328 -0.000475425 0)
(0.00353784 -0.00019995 0)
(0.00416661 -3.84268e-06 0)
(0.00443232 -0.00010592 0)
(0.00481278 -0.000228007 0)
(0.00433694 -0.000109279 0)
(0.00390546 -0.000106692 0)
(0.00488598 -0.000152744 0)
(0.00383161 -0.000208249 0)
(0.00516203 -6.13405e-05 0)
(0.00339333 -0.000334944 0)
(0.00309384 -0.000369681 0)
(0.00302866 -0.000398038 0)
(0.00403154 -1.86426e-05 0)
(0.00383217 -0.000213102 0)
(0.00433793 -1.56031e-05 0)
(0.00507644 -3.58133e-05 0)
(0.0043326 -0.000312539 0)
(0.00460304 -0.00022384 0)
(0.000908911 -0.00231429 0)
(0.00489367 -2.05406e-05 0)
(0.0036435 -0.000197157 0)
(0.00479994 -7.17303e-05 0)
(0.00132294 -0.00143576 0)
(0.0028917 -0.00047439 0)
(0.00386648 -8.10184e-05 0)
(0.00292938 -0.000448058 0)
(0.000562648 -0.002483 0)
(0.00384718 -0.000155312 0)
(0.00461799 -9.01098e-05 0)
(0.00486322 -8.20056e-06 0)
(0.00467299 -0.000380594 0)
(0.00343495 -0.00055942 0)
(0.00349447 -0.000484648 0)
(0.00298196 -0.00114602 0)
(0.00429006 -2.09414e-05 0)
(0.00142574 -0.00139585 0)
(0.00433133 -2.52202e-05 0)
(0.00450241 -0.000320028 0)
(0.000251942 -0.0027835 0)
(0.00456597 -1.20826e-05 0)
(0.00441913 -0.000287402 0)
(0.00312408 -0.000559949 0)
(0.00407712 -0.000152098 0)
(0.00412347 -0.000142435 0)
(0.00454788 -0.000487724 0)
(0.00426196 -0.000371866 0)
(0.00447697 -0.000413006 0)
(0.00358091 -0.000525937 0)
(0.00480413 -0.00018532 0)
(0.00368108 -0.000132515 0)
(0.00508166 -7.17845e-05 0)
(0.00111938 -0.0016817 0)
(0.00404602 -1.48931e-05 0)
(0.0043391 -0.000262119 0)
(0.00437581 -0.000252199 0)
(0.00509103 -0.000101454 0)
(0.00375099 -0.000109899 0)
(0.00401559 -0.000478978 0)
(0.0040753 -8.16994e-06 0)
(0.00210969 -0.00183025 0)
(0.00371051 -0.000417665 0)
(0.0039285 -0.000296723 0)
(0.00415447 -4.51322e-06 0)
(0.00439731 -0.00033459 0)
(0.00167802 -0.00128186 0)
(0.0016548 -0.00119764 0)
(0.001741 -0.00113281 0)
(0.00425691 -0.000480917 0)
(0.00478025 -0.00017131 0)
(0.00501582 -0.000136414 0)
(0.0047356 -0.000174916 0)
(0.0026952 -0.000637225 0)
(0.00428414 -0.000173418 0)
(0.00434932 -0.000346977 0)
(0.00259191 -0.000632874 0)
(0.00401966 -0.000522817 0)
(0.00346 -0.000510644 0)
(0.0036628 -0.000171049 0)
(0.00361374 -0.000178223 0)
(0.00438181 -5.72207e-05 0)
(0.00155544 -0.00173141 0)
(0.00485583 -0.000252075 0)
(0.00260333 -0.00148986 0)
(0.0036127 -0.000311101 0)
(0.00225622 -0.000916428 0)
(0.00514148 -9.75908e-05 0)
(0.00333518 -0.000279702 0)
(0.00470838 -3.9445e-05 0)
(0.0045011 -8.67767e-05 0)
(0.00172071 -0.00114341 0)
(0.00397857 -7.08024e-05 0)
(0.00167412 -0.00117235 0)
(0.00377296 -0.000371957 0)
(0.0037884 -0.00035129 0)
(0.0016491 -0.00164406 0)
(0.0045955 -4.68273e-05 0)
(0.00528102 -1.81915e-05 0)
(0.00488675 -0.000327226 0)
(0.00492752 -0.000323504 0)
(0.00523939 -2.58454e-05 0)
(0.00334608 -0.000841356 0)
(0.00436579 -9.00825e-05 0)
(0.00512588 -9.11055e-05 0)
(0.00396155 -6.78162e-05 0)
(0.00392584 -8.21377e-05 0)
(0.00304514 -0.000791232 0)
(0.0027793 -0.000583132 0)
(0.00176383 -0.00122044 0)
(0.00371829 -0.000252123 0)
(0.00275072 -0.00113658 0)
(0.00414483 -0.000249554 0)
(0.00339711 -0.000394852 0)
(0.00255991 -0.00068256 0)
(0.00274277 -0.000732465 0)
(0.0048158 -0.00016166 0)
(0.00311244 -0.000416884 0)
(0.00217088 -0.000880658 0)
(0.000580093 -0.00249555 0)
(0.00323661 -0.000433669 0)
(0.00323203 -0.000456343 0)
(0.00489346 -1.49079e-05 0)
(0.00222407 -0.000838933 0)
(0.00406244 -4.19313e-05 0)
(0.00483413 -8.67271e-06 0)
(7.41399e-05 -0.00285013 0)
(0.00225758 -0.00108168 0)
(0.00454137 -0.000396032 0)
(0.0039725 -0.000319116 0)
(0.00243593 -0.000911535 0)
(0.00390147 -6.7157e-05 0)
(0.00393419 -6.62027e-05 0)
(0.00431941 -0.00014342 0)
(0.00489878 -6.82269e-05 0)
(0.00346441 -0.000821855 0)
(0.000894503 -0.00217688 0)
(0.00419305 -0.000284066 0)
(0.00347233 -0.000379544 0)
(0.004002 -0.000151213 0)
(0.00397322 -0.000147851 0)
(0.00510451 -2.26274e-05 0)
(0.002346 -0.000950966 0)
(0.000317924 -0.00271464 0)
(0.000165978 -0.00281824 0)
(0.00346061 -0.000288695 0)
(0.00258752 -0.000627015 0)
(0.00352296 -0.000505084 0)
(0.00358699 -0.000197021 0)
(0.0037572 -0.000120771 0)
(0.00398388 -0.000135549 0)
(0.00351378 -0.000202202 0)
(0.00352844 -0.000396617 0)
(0.00252972 -0.000665115 0)
(0.00417814 -0.000151055 0)
(0.00101669 -0.00214107 0)
(0.00339381 -0.000234596 0)
(0.00262359 -0.000609948 0)
(0.00335258 -0.000248606 0)
(0.00260332 -0.000648595 0)
(0.00321379 -0.000590162 0)
(0.00415231 -3.22139e-05 0)
(0.00247526 -0.000689117 0)
(0.00414405 -3.68815e-05 0)
(0.00432439 -0.000437973 0)
(0.00368525 -0.000257085 0)
(0.00306647 -0.000414234 0)
(0.00478556 -8.13415e-05 0)
(0.000720384 -0.00238857 0)
(0.000834864 -0.00214502 0)
(0.00366945 -0.000274198 0)
(0.00176185 -0.00111792 0)
(0.00478696 -0.000104789 0)
(0.0048622 -9.16355e-05 0)
(0.00252541 -0.000674238 0)
(0.00515569 -3.9368e-05 0)
(0.00494365 -7.54278e-05 0)
(0.00216797 -0.000997822 0)
(0.00434839 -5.68992e-05 0)
(0.00401513 -4.0502e-05 0)
(0.00320602 -0.000570729 0)
(0.00457752 -0.000267019 0)
(0.00389585 -7.51256e-05 0)
(3.81834e-05 -0.00293317 0)
(0.00436099 -7.39432e-05 0)
(0.00374744 -0.00049686 0)
(0.00376881 -0.000550853 0)
(0.000751915 -0.00239214 0)
(0.00501137 -3.43443e-06 0)
(0.00348489 -0.000553548 0)
(0.00234921 -0.00166257 0)
(0.0038696 -0.000192696 0)
(0.00473965 -0.00012463 0)
(0.000813829 -0.00220196 0)
(0.00116501 -0.00197718 0)
(0.00334984 -0.000406612 0)
(0.00384603 -8.56846e-05 0)
(0.0036738 -0.000406504 0)
(0.00361677 -0.000413561 0)
(0.00435104 -0.000392304 0)
(0.00338727 -0.000416245 0)
(0.00247549 -0.000706662 0)
(0.00482623 -4.10638e-05 0)
(0.00366514 -0.000141233 0)
(0.00356514 -0.000175753 0)
(0.00199166 -0.000983553 0)
(0.00406907 -5.54434e-05 0)
(0.00350693 -0.000195044 0)
(0.00414278 -5.53143e-05 0)
(0.00274203 -0.000535139 0)
(0.00408548 -3.87774e-06 0)
(0.000637876 -0.00243649 0)
(0.00391333 -0.000151568 0)
(0.000532499 -0.00253509 0)
(0.0045044 -0.000292445 0)
(0.00512238 -5.64576e-05 0)
(0.00508739 -5.79997e-05 0)
(0.00201336 -0.000964124 0)
(0.00397786 -0.000299385 0)
(0.0048074 -0.00033132 0)
(0.000467152 -0.00251334 0)
(0.00038742 -0.00259507 0)
(0.00363772 -0.000466378 0)
(0.00379708 -0.000148871 0)
(0.00217431 -0.00171805 0)
(0.00457649 -1.67609e-05 0)
(0.00405694 -4.68659e-06 0)
(0.00463716 -7.09298e-06 0)
(0.00408512 -5.81354e-05 0)
(0.000226696 -0.00274251 0)
(0.00423542 -9.13562e-05 0)
(0.00424631 -8.16868e-05 0)
(0.00421239 -4.5185e-05 0)
(0.00351222 -0.000190901 0)
(0.00337952 -0.000486263 0)
(0.00175097 -0.00119521 0)
(0.00412644 -7.00953e-05 0)
(0.00292161 -0.000611327 0)
(0.00466878 -0.000414297 0)
(0.00286955 -0.00046219 0)
(0.00283063 -0.000483738 0)
(0.00231145 -0.000831034 0)
(0.0014522 -0.00156326 0)
(0.00521499 -2.66835e-05 0)
(0.00484984 -0.000342062 0)
(0.00339694 -0.000338371 0)
(0.00208799 -0.00125986 0)
(0.00347292 -0.000305653 0)
(0.00508266 -7.73134e-05 0)
(0.00472405 -0.000256708 0)
(0.00477221 -0.000247897 0)
(0.00221537 -0.00115595 0)
(0.000546038 -0.00238031 0)
(0.00521448 -2.22098e-05 0)
(0.0048291 -0.000364508 0)
(0.00305763 -0.000400514 0)
(0.00441641 -5.29298e-05 0)
(0.00384069 -0.000236132 0)