/*--------------------------------*- C++ -*----------------------------------*\
| =========                 |                                                 |
| \\      /  F ield         | OpenFOAM: The Open Source CFD Toolbox           |
|  \\    /   O peration     | Version:  v2012                                 |
|   \\  /    A nd           | Website:  www.openfoam.com                      |
|    \\/     M anipulation  |                                                 |
\*---------------------------------------------------------------------------*/
FoamFile
{
    version     2.0;
    format      ascii;
    class       volScalarField;
    location    "1";
    object      sigmaEq;
}
// * * * * * * * * * * * * * * * * * * * * * * * * * * * * * * * * * * * * * //

dimensions      [1 -1 -2 0 0 0 0];


internalField   nonuniform List<scalar> 
158760
(
6.46193e+06
7.36045e+06
7.06733e+06
7.03994e+06
7.25367e+06
6.86747e+06
6.94291e+06
7.23562e+06
6.87121e+06
6.9659e+06
7.28424e+06
6.96849e+06
7.25644e+06
7.71578e+06
7.3195e+06
7.82994e+06
8.97133e+06
8.23581e+06
5.98413e+06
6.33247e+06
6.17913e+06
6.28879e+06
6.1137e+06
6.37967e+06
6.2361e+06
6.10605e+06
6.37281e+06
6.40196e+06
6.46085e+06
6.19656e+06
6.67566e+06
6.83954e+06
6.51376e+06
6.94727e+06
7.40153e+06
7.42323e+06
5.39349e+06
5.12152e+06
5.45235e+06
5.43368e+06
5.47061e+06
5.09953e+06
5.29677e+06
5.42261e+06
4.97427e+06
4.99344e+06
5.4828e+06
5.46303e+06
5.27996e+06
5.94967e+06
5.80576e+06
6.15778e+06
6.64977e+06
6.42686e+06
4.54915e+06
4.55836e+06
4.80329e+06
4.61021e+06
4.43909e+06
4.7891e+06
4.56746e+06
4.49029e+06
4.80715e+06
4.57597e+06
5.02251e+06
4.78154e+06
4.81376e+06
5.40897e+06
5.13986e+06
5.47797e+06
5.36231e+06
5.79064e+06
3.93316e+06
3.54626e+06
3.74352e+06
3.73875e+06
3.85874e+06
3.5623e+06
3.71567e+06
3.9134e+06
3.55024e+06
3.94323e+06
3.7462e+06
3.86205e+06
4.23805e+06
4.27963e+06
4.34218e+06
4.78502e+06
4.82285e+06
4.86361e+06
3.43722e+06
3.28569e+06
3.55294e+06
3.30099e+06
3.50625e+06
3.35e+06
3.35101e+06
3.55468e+06
3.37913e+06
3.43749e+06
3.49973e+06
3.64578e+06
3.6552e+06
3.8794e+06
3.91034e+06
3.96357e+06
4.07999e+06
4.233e+06
3.00718e+06
2.71979e+06
2.83374e+06
2.9506e+06
2.85456e+06
2.70479e+06
2.94973e+06
2.77394e+06
2.8706e+06
3.02927e+06
2.89512e+06
2.97982e+06
3.24777e+06
3.24466e+06
3.29966e+06
3.56226e+06
3.54401e+06
3.71432e+06
2.67346e+06
2.5488e+06
2.74405e+06
2.5626e+06
2.58665e+06
2.71171e+06
2.59256e+06
2.58312e+06
2.71686e+06
2.64672e+06
2.67876e+06
2.79258e+06
2.79273e+06
2.92506e+06
2.97819e+06
2.9961e+06
3.10628e+06
3.16747e+06
2.39168e+06
2.17563e+06
2.26439e+06
2.31251e+06
2.18748e+06
2.2521e+06
2.36351e+06
2.29319e+06
2.17706e+06
2.39798e+06
2.35939e+06
2.22281e+06
2.5244e+06
2.55869e+06
2.38342e+06
2.6848e+06
2.77193e+06
2.60853e+06
2.15213e+06
2.05834e+06
2.19002e+06
2.06897e+06
2.04667e+06
2.14123e+06
2.06381e+06
2.08245e+06
2.16857e+06
2.08151e+06
2.1161e+06
2.1979e+06
2.13125e+06
2.225e+06
2.28014e+06
2.20333e+06
2.28122e+06
2.33482e+06
1.96685e+06
1.80976e+06
1.87344e+06
1.89909e+06
1.78861e+06
1.84304e+06
1.88543e+06
1.77967e+06
1.83477e+06
1.88301e+06
1.76927e+06
1.83167e+06
1.90133e+06
1.81266e+06
1.87644e+06
1.93915e+06
1.8051e+06
1.9418e+06
1.80124e+06
1.72106e+06
1.80772e+06
1.72572e+06
1.69948e+06
1.75886e+06
1.70454e+06
1.67412e+06
1.74253e+06
1.67464e+06
1.64051e+06
1.72045e+06
1.63825e+06
1.61539e+06
1.70158e+06
1.58229e+06
1.54612e+06
1.66449e+06
1.69698e+06
1.58737e+06
1.62584e+06
1.63414e+06
1.55125e+06
1.58871e+06
1.59143e+06
1.50494e+06
1.54531e+06
1.55013e+06
1.43851e+06
1.48993e+06
1.47986e+06
1.34274e+06
1.41204e+06
1.3709e+06
1.13334e+06
1.28732e+06
1.61079e+06
1.53758e+06
1.581e+06
1.53841e+06
1.50018e+06
1.5314e+06
1.49556e+06
1.44613e+06
1.4837e+06
1.43518e+06
1.36532e+06
1.42397e+06
1.32762e+06
1.22227e+06
1.31193e+06
1.14972e+06
1.01217e+06
1.13667e+06
1.58762e+06
1.51191e+06
1.53143e+06
1.53086e+06
1.47815e+06
1.45897e+06
1.46539e+06
1.41212e+06
1.42391e+06
1.40326e+06
1.31457e+06
1.33928e+06
1.27117e+06
1.13879e+06
1.18008e+06
1.06126e+06
827570
922563
1.59069e+06
1.51616e+06
1.52099e+06
1.52462e+06
1.48933e+06
1.48702e+06
1.476e+06
1.42207e+06
1.41908e+06
1.40779e+06
1.32305e+06
1.34097e+06
1.28178e+06
1.14713e+06
1.18737e+06
1.07855e+06
904789
952374
1.64531e+06
1.59656e+06
1.60273e+06
1.56597e+06
1.54812e+06
1.53384e+06
1.525e+06
1.49752e+06
1.48837e+06
1.47081e+06
1.39468e+06
1.42392e+06
1.35684e+06
1.2563e+06
1.30525e+06
1.19249e+06
1.06482e+06
1.15588e+06
1.74095e+06
1.65664e+06
1.63258e+06
1.67088e+06
1.61812e+06
1.58373e+06
1.63702e+06
1.5817e+06
1.54414e+06
1.6028e+06
1.53078e+06
1.50137e+06
1.53425e+06
1.4441e+06
1.40403e+06
1.43314e+06
1.31763e+06
1.26595e+06
1.86295e+06
1.83083e+06
1.82061e+06
1.7751e+06
1.7796e+06
1.74511e+06
1.74737e+06
1.75326e+06
1.71707e+06
1.71857e+06
1.72222e+06
1.67906e+06
1.68511e+06
1.72065e+06
1.6531e+06
1.66165e+06
1.80072e+06
1.68252e+06
2.04418e+06
1.94457e+06
1.9001e+06
1.97055e+06
1.912e+06
1.85326e+06
1.95448e+06
1.89732e+06
1.83456e+06
1.94638e+06
1.89081e+06
1.8181e+06
1.95845e+06
1.93099e+06
1.81867e+06
1.98326e+06
1.9712e+06
1.81834e+06
2.22037e+06
2.19341e+06
2.17106e+06
2.12475e+06
2.14404e+06
2.09172e+06
2.11392e+06
2.14128e+06
2.08653e+06
2.11724e+06
2.16681e+06
2.09517e+06
2.17278e+06
2.30174e+06
2.18411e+06
2.29401e+06
2.58029e+06
2.40126e+06
2.48525e+06
2.36705e+06
2.3035e+06
2.40747e+06
2.34241e+06
2.2608e+06
2.40535e+06
2.3462e+06
2.26168e+06
2.42991e+06
2.39811e+06
2.28721e+06
2.5262e+06
2.5625e+06
2.38647e+06
2.67002e+06
2.7259e+06
2.50899e+06
2.71269e+06
2.68451e+06
2.64594e+06
2.60934e+06
2.54965e+06
2.62446e+06
2.60975e+06
2.56846e+06
2.63865e+06
2.64367e+06
2.72698e+06
2.63322e+06
2.79039e+06
2.9975e+06
2.83785e+06
3.04227e+06
3.43998e+06
3.22376e+06
3.07954e+06
2.94814e+06
2.84717e+06
3.0149e+06
2.93121e+06
2.82362e+06
3.01673e+06
2.94888e+06
2.83369e+06
3.05482e+06
3.04267e+06
2.88246e+06
3.23551e+06
3.32654e+06
3.08321e+06
3.48554e+06
3.5799e+06
3.3104e+06
3.38094e+06
3.36984e+06
3.30991e+06
3.26629e+06
3.1812e+06
3.2939e+06
3.26802e+06
3.21242e+06
3.32409e+06
3.33086e+06
3.32793e+06
3.4205e+06
3.55753e+06
3.68235e+06
3.73709e+06
3.89823e+06
4.1788e+06
4.27977e+06
3.94116e+06
3.76493e+06
3.60425e+06
3.85823e+06
3.73681e+06
3.57387e+06
3.86349e+06
3.78429e+06
3.59266e+06
3.94983e+06
3.92543e+06
3.69476e+06
4.16404e+06
4.29078e+06
3.9439e+06
4.48808e+06
4.5211e+06
4.2253e+06
4.43573e+06
4.51619e+06
4.36857e+06
4.26331e+06
4.40349e+06
4.19443e+06
4.26781e+06
4.44422e+06
4.23062e+06
4.35957e+06
4.58366e+06
4.35179e+06
4.61354e+06
5.01306e+06
4.71988e+06
5.04006e+06
5.3295e+06
5.55651e+06
5.46576e+06
5.31331e+06
4.94196e+06
5.38264e+06
5.27274e+06
4.87135e+06
5.39829e+06
5.31334e+06
4.8999e+06
5.48377e+06
5.45382e+06
5.00847e+06
5.71898e+06
5.88465e+06
5.29499e+06
6.18962e+06
6.27732e+06
5.68686e+06
6.53527e+06
7.60452e+06
6.77184e+06
6.50158e+06
7.6613e+06
6.7522e+06
6.51195e+06
7.66607e+06
6.77026e+06
6.58772e+06
7.76018e+06
6.86138e+06
6.8384e+06
8.26527e+06
7.24968e+06
7.5014e+06
9.20278e+06
8.17792e+06
7.06651e+06
8.00159e+06
7.5463e+06
7.35708e+06
8.05516e+06
7.70514e+06
7.37669e+06
8.08421e+06
7.74056e+06
7.45262e+06
8.22219e+06
7.86627e+06
7.69016e+06
8.64187e+06
8.21071e+06
8.14329e+06
9.36215e+06
8.70071e+06
6.08293e+06
6.31477e+06
6.17758e+06
6.40611e+06
6.28198e+06
6.44817e+06
6.50121e+06
6.37948e+06
6.51773e+06
6.6365e+06
6.5705e+06
6.68833e+06
6.88163e+06
6.93655e+06
7.00662e+06
7.2748e+06
7.6351e+06
7.21141e+06
5.9197e+06
6.05222e+06
5.88993e+06
5.92576e+06
5.9577e+06
6.15085e+06
6.03366e+06
6.05928e+06
6.26683e+06
6.16437e+06
6.23638e+06
6.43671e+06
6.38467e+06
6.48135e+06
6.67038e+06
6.67127e+06
6.95989e+06
7.04165e+06
5.45635e+06
5.26566e+06
4.94481e+06
5.29271e+06
4.99886e+06
5.29629e+06
5.41857e+06
5.15116e+06
5.36952e+06
5.6268e+06
5.60345e+06
5.19888e+06
5.79537e+06
5.81758e+06
5.33818e+06
5.99712e+06
5.77834e+06
6.08202e+06
4.70817e+06
4.48973e+06
5.0528e+06
4.54376e+06
4.49314e+06
4.8587e+06
4.65379e+06
4.67502e+06
4.97558e+06
4.88233e+06
4.8244e+06
5.29255e+06
4.96173e+06
4.88867e+06
5.4032e+06
4.98848e+06
4.9122e+06
5.34667e+06
4.21175e+06
3.97088e+06
3.73799e+06
4.03361e+06
3.97467e+06
3.69665e+06
4.10654e+06
4.09816e+06
3.76948e+06
4.29516e+06
4.22192e+06
3.90894e+06
4.39313e+06
4.35394e+06
4.05981e+06
4.45499e+06
4.24437e+06
4.09558e+06
3.63425e+06
3.45933e+06
3.91577e+06
3.53307e+06
3.45708e+06
3.80965e+06
3.57957e+06
3.52748e+06
3.8739e+06
3.67022e+06
3.61974e+06
3.96348e+06
3.7736e+06
3.7432e+06
4.06124e+06
3.8163e+06
3.57065e+06
3.99187e+06
3.27231e+06
3.10069e+06
2.90606e+06
3.17889e+06
3.09353e+06
2.87934e+06
3.21247e+06
3.14549e+06
2.91817e+06
3.28193e+06
3.23866e+06
2.99208e+06
3.38727e+06
3.37346e+06
3.1258e+06
3.45155e+06
3.30527e+06
3.16217e+06
2.8564e+06
2.71628e+06
3.06263e+06
2.77788e+06
2.70093e+06
2.97842e+06
2.79452e+06
2.73259e+06
3.00998e+06
2.83973e+06
2.79493e+06
3.06409e+06
2.9088e+06
2.87195e+06
3.12571e+06
2.92858e+06
2.81459e+06
3.07178e+06
2.60544e+06
2.47024e+06
2.32254e+06
2.53118e+06
2.45332e+06
2.30107e+06
2.53777e+06
2.47205e+06
2.31036e+06
2.56761e+06
2.51702e+06
2.33996e+06
2.61901e+06
2.5838e+06
2.39438e+06
2.6351e+06
2.52493e+06
2.37898e+06
2.30195e+06
2.18697e+06
2.45045e+06
2.23265e+06
2.16486e+06
2.37609e+06
2.22818e+06
2.16835e+06
2.38171e+06
2.23628e+06
2.17841e+06
2.39766e+06
2.24469e+06
2.17932e+06
2.40551e+06
2.20512e+06
2.08975e+06
2.32306e+06
2.1355e+06
2.02553e+06
1.919e+06
2.06851e+06
2.00039e+06
1.89407e+06
2.05504e+06
1.99021e+06
1.87741e+06
2.04624e+06
1.97929e+06
1.85731e+06
2.03229e+06
1.95641e+06
1.82834e+06
1.97291e+06
1.84684e+06
1.72274e+06
1.92794e+06
1.83057e+06
2.02414e+06
1.86354e+06
1.79995e+06
1.95622e+06
1.83754e+06
1.77168e+06
1.9351e+06
1.80547e+06
1.72763e+06
1.90625e+06
1.75048e+06
1.64601e+06
1.84857e+06
1.63879e+06
1.47941e+06
1.71451e+06
1.83736e+06
1.74454e+06
1.68082e+06
1.77348e+06
1.70931e+06
1.6493e+06
1.7394e+06
1.67077e+06
1.6092e+06
1.69462e+06
1.60866e+06
1.54772e+06
1.61909e+06
1.49955e+06
1.44346e+06
1.48099e+06
1.30283e+06
1.25641e+06
1.73394e+06
1.64617e+06
1.7747e+06
1.67131e+06
1.60745e+06
1.71084e+06
1.62834e+06
1.55719e+06
1.6673e+06
1.56903e+06
1.47415e+06
1.60333e+06
1.46615e+06
1.32679e+06
1.48839e+06
1.29302e+06
1.10115e+06
1.29979e+06
1.71728e+06
1.63217e+06
1.61844e+06
1.65306e+06
1.58993e+06
1.58146e+06
1.6079e+06
1.53763e+06
1.53297e+06
1.54511e+06
1.44857e+06
1.45392e+06
1.43559e+06
1.2911e+06
1.31772e+06
1.25341e+06
1.04713e+06
1.10344e+06
1.7314e+06
1.64675e+06
1.71348e+06
1.67149e+06
1.60948e+06
1.65654e+06
1.62839e+06
1.55694e+06
1.6082e+06
1.56561e+06
1.46913e+06
1.53287e+06
1.4588e+06
1.31974e+06
1.40321e+06
1.2868e+06
1.10631e+06
1.20694e+06
1.78373e+06
1.69807e+06
1.73665e+06
1.71924e+06
1.6594e+06
1.69548e+06
1.67911e+06
1.6121e+06
1.65632e+06
1.62407e+06
1.53406e+06
1.59834e+06
1.53141e+06
1.40565e+06
1.50025e+06
1.38508e+06
1.21743e+06
1.35602e+06
1.91822e+06
1.82962e+06
1.84534e+06
1.86071e+06
1.79782e+06
1.79669e+06
1.82898e+06
1.76302e+06
1.75934e+06
1.79023e+06
1.71229e+06
1.70705e+06
1.72909e+06
1.62842e+06
1.62202e+06
1.62049e+06
1.49222e+06
1.48112e+06
2.02813e+06
1.9321e+06
2.02084e+06
1.96078e+06
1.90011e+06
1.97559e+06
1.93515e+06
1.87477e+06
1.95667e+06
1.90964e+06
1.84303e+06
1.93785e+06
1.87368e+06
1.7964e+06
1.91338e+06
1.80862e+06
1.70159e+06
1.86531e+06
2.27451e+06
2.17404e+06
2.15288e+06
2.21637e+06
2.14942e+06
2.11154e+06
2.20214e+06
2.14111e+06
2.09542e+06
2.19864e+06
2.13936e+06
2.08287e+06
2.19621e+06
2.13494e+06
2.06232e+06
2.16078e+06
2.07173e+06
1.98968e+06
2.4319e+06
2.31521e+06
2.45284e+06
2.35674e+06
2.29e+06
2.4004e+06
2.3481e+06
2.29067e+06
2.40187e+06
2.35762e+06
2.30943e+06
2.42569e+06
2.38336e+06
2.34962e+06
2.4775e+06
2.4002e+06
2.3378e+06
2.51657e+06
2.78763e+06
2.66723e+06
2.61897e+06
2.7241e+06
2.64695e+06
2.581e+06
2.72478e+06
2.66201e+06
2.58526e+06
2.75461e+06
2.70907e+06
2.61253e+06
2.81249e+06
2.78205e+06
2.65753e+06
2.84248e+06
2.7717e+06
2.63889e+06
2.98885e+06
2.84375e+06
3.03677e+06
2.90229e+06
2.82026e+06
2.97582e+06
2.90604e+06
2.84337e+06
2.99666e+06
2.94842e+06
2.91411e+06
3.05877e+06
3.03818e+06
3.0381e+06
3.18488e+06
3.12888e+06
3.08922e+06
3.29269e+06
3.47469e+06
3.33096e+06
3.24959e+06
3.40543e+06
3.31511e+06
3.21392e+06
3.42156e+06
3.35448e+06
3.23715e+06
3.48548e+06
3.44543e+06
3.30424e+06
3.59613e+06
3.58532e+06
3.40818e+06
3.6844e+06
3.6133e+06
3.43385e+06
3.74761e+06
3.56613e+06
3.85911e+06
3.64533e+06
3.54559e+06
3.78007e+06
3.66082e+06
3.59008e+06
3.81413e+06
3.73464e+06
3.69944e+06
3.91215e+06
3.87297e+06
3.89169e+06
4.09604e+06
4.02477e+06
3.9952e+06
4.26162e+06
4.46438e+06
4.29573e+06
4.13256e+06
4.38493e+06
4.27906e+06
4.09863e+06
4.41089e+06
4.3313e+06
4.1337e+06
4.4931e+06
4.44992e+06
4.22716e+06
4.63919e+06
4.63875e+06
4.37409e+06
4.76704e+06
4.67955e+06
4.42037e+06
4.90158e+06
4.70386e+06
5.20988e+06
4.78943e+06
4.68402e+06
5.13531e+06
4.81303e+06
4.73754e+06
5.17822e+06
4.89971e+06
4.8677e+06
5.28923e+06
5.0676e+06
5.10501e+06
5.50341e+06
5.25959e+06
5.22905e+06
5.69798e+06
5.90427e+06
5.88391e+06
5.51964e+06
5.92508e+06
5.88532e+06
5.50693e+06
5.95885e+06
5.93606e+06
5.54202e+06
6.04556e+06
6.06086e+06
5.64088e+06
6.20717e+06
6.27278e+06
5.81025e+06
6.37195e+06
6.43621e+06
5.92776e+06
6.41105e+06
6.73244e+06
6.47894e+06
6.49443e+06
6.79024e+06
6.59014e+06
6.53821e+06
6.85044e+06
6.63719e+06
6.63449e+06
7.00182e+06
6.75603e+06
6.82522e+06
7.28252e+06
6.99399e+06
7.05697e+06
7.79236e+06
7.27835e+06
6.75975e+06
6.9664e+06
7.05856e+06
6.91846e+06
7.03483e+06
7.1234e+06
6.96676e+06
7.12046e+06
7.17106e+06
7.07373e+06
7.29535e+06
7.30286e+06
7.27122e+06
7.54647e+06
7.54545e+06
7.44399e+06
7.68535e+06
7.86257e+06
6.21683e+06
6.33522e+06
6.27678e+06
6.25301e+06
6.43176e+06
6.3571e+06
6.37492e+06
6.55557e+06
6.4871e+06
6.5034e+06
6.72865e+06
6.64301e+06
6.69379e+06
6.94275e+06
6.82501e+06
6.92834e+06
7.2789e+06
7.02766e+06
5.94433e+06
6.05248e+06
5.91169e+06
5.95757e+06
6.15984e+06
6.01504e+06
6.06197e+06
6.27408e+06
6.11715e+06
6.17183e+06
6.40803e+06
6.23299e+06
6.30207e+06
6.52128e+06
6.36543e+06
6.38253e+06
6.75336e+06
6.54586e+06
5.58795e+06
5.53431e+06
5.24621e+06
5.58321e+06
5.58945e+06
5.26454e+06
5.66473e+06
5.66804e+06
5.33834e+06
5.75624e+06
5.78243e+06
5.42065e+06
5.88509e+06
5.9148e+06
5.5527e+06
5.94991e+06
6.03624e+06
5.58973e+06
4.90332e+06
4.82832e+06
5.21974e+06
4.86845e+06
4.83411e+06
5.1858e+06
4.92062e+06
4.90899e+06
5.26452e+06
5.00965e+06
4.99145e+06
5.36139e+06
5.08424e+06
5.041e+06
5.42395e+06
5.06428e+06
4.94661e+06
5.29669e+06
4.48212e+06
4.35641e+06
4.06544e+06
4.41138e+06
4.35437e+06
4.06025e+06
4.45377e+06
4.42414e+06
4.11642e+06
4.5377e+06
4.50373e+06
4.20733e+06
4.60868e+06
4.54737e+06
4.27317e+06
4.56774e+06
4.37643e+06
4.16301e+06
3.90304e+06
3.78041e+06
4.19194e+06
3.83677e+06
3.76859e+06
4.0979e+06
3.86553e+06
3.82089e+06
4.14051e+06
3.92695e+06
3.88455e+06
4.20265e+06
3.97105e+06
3.88994e+06
4.22239e+06
3.90822e+06
3.75028e+06
4.09821e+06
3.5673e+06
3.44306e+06
3.21475e+06
3.50179e+06
3.43296e+06
3.20992e+06
3.52304e+06
3.47652e+06
3.24004e+06
3.57472e+06
3.53292e+06
3.29419e+06
3.61709e+06
3.54487e+06
3.33511e+06
3.55743e+06
3.39228e+06
3.23637e+06
3.11471e+06
3.0017e+06
3.33959e+06
3.05175e+06
2.98599e+06
3.25858e+06
3.06219e+06
3.01023e+06
3.27804e+06
3.09044e+06
3.03912e+06
3.30706e+06
3.10398e+06
3.02544e+06
3.30122e+06
3.03865e+06
2.89828e+06
3.18358e+06
2.87047e+06
2.75927e+06
2.58448e+06
2.80849e+06
2.7421e+06
2.57606e+06
2.81028e+06
2.75629e+06
2.58072e+06
2.827e+06
2.77449e+06
2.59491e+06
2.83259e+06
2.75691e+06
2.59205e+06
2.76161e+06
2.61261e+06
2.48245e+06
2.52753e+06
2.42778e+06
2.69469e+06
2.46706e+06
2.4051e+06
2.62098e+06
2.45807e+06
2.40085e+06
2.61744e+06
2.45257e+06
2.39018e+06
2.61287e+06
2.42733e+06
2.33818e+06
2.57574e+06
2.33892e+06
2.19713e+06
2.45161e+06
2.36358e+06
2.2659e+06
2.13974e+06
2.30296e+06
2.2402e+06
2.12455e+06
2.28557e+06
2.22519e+06
2.10451e+06
2.26751e+06
2.20002e+06
2.07689e+06
2.22894e+06
2.13375e+06
2.0207e+06
2.12509e+06
1.96849e+06
1.87852e+06
2.12602e+06
2.03657e+06
2.23636e+06
2.0661e+06
2.00603e+06
2.16769e+06
2.03819e+06
1.97416e+06
2.14172e+06
1.99943e+06
1.92166e+06
2.10189e+06
1.9308e+06
1.82145e+06
2.02434e+06
1.80683e+06
1.65301e+06
1.88001e+06
2.03929e+06
1.95088e+06
1.87683e+06
1.97746e+06
1.91604e+06
1.85247e+06
1.94259e+06
1.87513e+06
1.81148e+06
1.89348e+06
1.80956e+06
1.74842e+06
1.81174e+06
1.69197e+06
1.64283e+06
1.66952e+06
1.49341e+06
1.46475e+06
1.91818e+06
1.83414e+06
1.96677e+06
1.85774e+06
1.79771e+06
1.9027e+06
1.81629e+06
1.74647e+06
1.85911e+06
1.75427e+06
1.6639e+06
1.79125e+06
1.65349e+06
1.52621e+06
1.6786e+06
1.49959e+06
1.33329e+06
1.51381e+06
1.90849e+06
1.82361e+06
1.80888e+06
1.8445e+06
1.78349e+06
1.7757e+06
1.8005e+06
1.72968e+06
1.72699e+06
1.73591e+06
1.64334e+06
1.65101e+06
1.63185e+06
1.49874e+06
1.52613e+06
1.47139e+06
1.28299e+06
1.34021e+06
1.91713e+06
1.83473e+06
1.90083e+06
1.85834e+06
1.79865e+06
1.84447e+06
1.81573e+06
1.74642e+06
1.7963e+06
1.75311e+06
1.66396e+06
1.7225e+06
1.65345e+06
1.52877e+06
1.60476e+06
1.50249e+06
1.3436e+06
1.44207e+06
1.97992e+06
1.8935e+06
1.94025e+06
1.91526e+06
1.85509e+06
1.90122e+06
1.87546e+06
1.80791e+06
1.86157e+06
1.8199e+06
1.73469e+06
1.80286e+06
1.73142e+06
1.61109e+06
1.70366e+06
1.5938e+06
1.42201e+06
1.5531e+06
2.11834e+06
2.03457e+06
2.0417e+06
2.06382e+06
2.00547e+06
1.9968e+06
2.03334e+06
1.97074e+06
1.96023e+06
1.99286e+06
1.9173e+06
1.90678e+06
1.92585e+06
1.82184e+06
1.82006e+06
1.80844e+06
1.67325e+06
1.68649e+06
2.24388e+06
2.1503e+06
2.25542e+06
2.17871e+06
2.11978e+06
2.21228e+06
2.1545e+06
2.09505e+06
2.1933e+06
2.12736e+06
2.05782e+06
2.16943e+06
2.07892e+06
1.98283e+06
2.11684e+06
1.98498e+06
1.84259e+06
2.0169e+06
2.5021e+06
2.41284e+06
2.37218e+06
2.45119e+06
2.39287e+06
2.33889e+06
2.43344e+06
2.36714e+06
2.31496e+06
2.42021e+06
2.39201e+06
2.33142e+06
2.41685e+06
2.34621e+06
2.289e+06
2.36635e+06
2.31261e+06
2.24262e+06
2.68309e+06
2.57558e+06
2.738e+06
2.61421e+06
2.55226e+06
2.68712e+06
2.60315e+06
2.54452e+06
2.68795e+06
2.60822e+06
2.57593e+06
2.70723e+06
2.62193e+06
2.55895e+06
2.70898e+06
2.59927e+06
2.52111e+06
2.68114e+06
3.03975e+06
2.93305e+06
2.85973e+06
2.9935e+06
2.96331e+06
2.87959e+06
3.01902e+06
2.98388e+06
2.88299e+06
3.05305e+06
2.99901e+06
2.91158e+06
3.0682e+06
3.0102e+06
2.91589e+06
3.04517e+06
2.9829e+06
2.89256e+06
3.27609e+06
3.1519e+06
3.38367e+06
3.21135e+06
3.16302e+06
3.32987e+06
3.2378e+06
3.19807e+06
3.36114e+06
3.27468e+06
3.23389e+06
3.39565e+06
3.31597e+06
3.27624e+06
3.45076e+06
3.32356e+06
3.24186e+06
3.44083e+06
3.77423e+06
3.662e+06
3.52407e+06
3.74548e+06
3.69041e+06
3.5856e+06
3.77422e+06
3.73459e+06
3.60922e+06
3.83195e+06
3.78551e+06
3.65518e+06
3.8899e+06
3.83973e+06
3.69841e+06
3.90063e+06
3.82052e+06
3.68576e+06
4.09498e+06
3.9595e+06
4.29196e+06
4.02445e+06
3.96193e+06
4.19727e+06
4.04947e+06
4.00663e+06
4.2372e+06
4.1116e+06
4.08737e+06
4.31362e+06
4.19786e+06
4.17082e+06
4.40601e+06
4.24151e+06
4.16502e+06
4.42873e+06
4.7729e+06
4.67706e+06
4.44401e+06
4.76119e+06
4.70477e+06
4.53454e+06
4.78948e+06
4.71368e+06
4.50775e+06
4.83191e+06
4.79566e+06
4.57526e+06
4.91695e+06
4.87006e+06
4.64662e+06
4.91654e+06
4.80059e+06
4.61143e+06
5.21027e+06
5.09767e+06
5.53085e+06
5.1534e+06
5.10455e+06
5.45684e+06
5.17595e+06
5.14123e+06
5.52974e+06
5.24275e+06
5.23926e+06
5.62336e+06
5.34617e+06
5.34037e+06
5.73392e+06
5.37869e+06
5.29083e+06
5.7141e+06
5.98405e+06
6.01307e+06
5.6949e+06
6.01987e+06
5.98495e+06
5.70589e+06
6.03278e+06
6.07752e+06
5.73576e+06
6.13031e+06
6.1699e+06
5.81359e+06
6.22228e+06
6.25179e+06
5.8942e+06
6.23463e+06
6.23659e+06
5.89306e+06
6.30315e+06
6.55644e+06
6.37063e+06
6.40242e+06
6.62947e+06
6.48408e+06
6.4568e+06
6.7134e+06
6.56561e+06
6.5559e+06
6.84243e+06
6.67394e+06
6.67431e+06
6.96241e+06
6.799e+06
6.71702e+06
7.0232e+06
6.79615e+06
6.55161e+06
6.76464e+06
6.79674e+06
6.70017e+06
6.83993e+06
6.8644e+06
6.76213e+06
6.93435e+06
6.9437e+06
6.86503e+06
7.05933e+06
7.06304e+06
6.97896e+06
7.10719e+06
7.18168e+06
6.94768e+06
6.8828e+06
7.14081e+06
6.18452e+06
6.3334e+06
6.24497e+06
6.24039e+06
6.40969e+06
6.33417e+06
6.33876e+06
6.52338e+06
6.44435e+06
6.45293e+06
6.64117e+06
6.56261e+06
6.55895e+06
6.67682e+06
6.63665e+06
6.5425e+06
6.70563e+06
6.57681e+06
5.9199e+06
6.02834e+06
5.89892e+06
5.94055e+06
6.10906e+06
5.9821e+06
6.0149e+06
6.20253e+06
6.06725e+06
6.10195e+06
6.28564e+06
6.15024e+06
6.15793e+06
6.28624e+06
6.18395e+06
6.13483e+06
6.25817e+06
6.12147e+06
5.62811e+06
5.60087e+06
5.34608e+06
5.63151e+06
5.63536e+06
5.37212e+06
5.6881e+06
5.71018e+06
5.42432e+06
5.7665e+06
5.78558e+06
5.49603e+06
5.82105e+06
5.80475e+06
5.53765e+06
5.77493e+06
5.72524e+06
5.52951e+06
5.00104e+06
4.96603e+06
5.29102e+06
4.98864e+06
4.97041e+06
5.26537e+06
5.02489e+06
5.02262e+06
5.32506e+06
5.07936e+06
5.0685e+06
5.38062e+06
5.09784e+06
5.04006e+06
5.37017e+06
5.0139e+06
4.95204e+06
5.16974e+06
4.64027e+06
4.55689e+06
4.27028e+06
4.5913e+06
4.55356e+06
4.28786e+06
4.61999e+06
4.60063e+06
4.32568e+06
4.67042e+06
4.64417e+06
4.37578e+06
4.68789e+06
4.61336e+06
4.37625e+06
4.58819e+06
4.46008e+06
4.23843e+06
4.0753e+06
3.98792e+06
4.35671e+06
4.02592e+06
3.98034e+06
4.27063e+06
4.04487e+06
4.01097e+06
4.29545e+06
4.0745e+06
4.03242e+06
4.32134e+06
4.06806e+06
3.98062e+06
4.2899e+06
3.969e+06
3.84176e+06
4.1481e+06
3.77122e+06
3.67781e+06
3.43976e+06
3.71813e+06
3.66914e+06
3.44874e+06
3.73113e+06
3.69414e+06
3.46711e+06
3.75528e+06
3.71147e+06
3.48998e+06
3.74848e+06
3.66189e+06
3.4709e+06
3.64295e+06
3.50102e+06
3.33631e+06
3.30221e+06
3.21336e+06
3.53171e+06
3.24888e+06
3.19919e+06
3.45295e+06
3.25227e+06
3.20808e+06
3.45927e+06
3.25757e+06
3.20521e+06
3.4604e+06
3.2323e+06
3.14449e+06
3.4154e+06
3.13551e+06
3.01035e+06
3.28125e+06
3.07332e+06
2.98244e+06
2.79398e+06
3.01789e+06
2.96599e+06
2.79533e+06
3.01418e+06
2.96737e+06
2.79273e+06
3.01185e+06
2.95728e+06
2.78597e+06
2.98261e+06
2.89416e+06
2.74371e+06
2.87784e+06
2.74024e+06
2.61161e+06
2.70466e+06
2.62124e+06
2.88013e+06
2.65006e+06
2.59994e+06
2.8066e+06
2.6371e+06
2.58659e+06
2.7949e+06
2.61757e+06
2.5567e+06
2.77215e+06
2.56959e+06
2.47918e+06
2.71111e+06
2.46835e+06
2.34382e+06
2.58278e+06
2.55036e+06
2.46601e+06
2.32801e+06
2.49328e+06
2.44133e+06
2.32067e+06
2.47323e+06
2.41942e+06
2.29742e+06
2.44465e+06
2.37898e+06
2.25975e+06
2.38825e+06
2.29213e+06
2.18695e+06
2.27393e+06
2.13425e+06
2.04659e+06
2.29007e+06
2.21173e+06
2.40689e+06
2.23377e+06
2.18334e+06
2.33824e+06
2.20517e+06
2.14833e+06
2.30895e+06
2.16104e+06
2.08928e+06
2.2611e+06
2.08585e+06
1.98675e+06
2.17747e+06
1.97066e+06
1.84396e+06
2.04784e+06
2.21278e+06
2.1331e+06
2.05201e+06
2.15258e+06
2.10007e+06
2.03377e+06
2.11791e+06
2.05764e+06
1.99316e+06
2.06594e+06
1.98856e+06
1.92909e+06
1.9818e+06
1.87401e+06
1.82657e+06
1.85219e+06
1.70558e+06
1.6748e+06
2.07662e+06
2.00034e+06
2.12757e+06
2.01812e+06
1.96651e+06
2.06389e+06
1.97802e+06
1.9163e+06
2.02085e+06
1.91687e+06
1.83661e+06
1.95334e+06
1.8218e+06
1.71402e+06
1.84922e+06
1.69283e+06
1.56439e+06
1.71539e+06
2.07727e+06
1.99898e+06
1.98259e+06
2.01396e+06
1.96092e+06
1.95379e+06
1.97146e+06
1.90824e+06
1.90657e+06
1.90812e+06
1.82554e+06
1.83328e+06
1.81086e+06
1.69748e+06
1.72029e+06
1.67568e+06
1.52463e+06
1.5696e+06
2.07814e+06
2.00264e+06
2.06029e+06
2.0208e+06
1.9693e+06
2.00498e+06
1.97995e+06
1.91865e+06
1.95863e+06
1.91913e+06
1.84048e+06
1.88827e+06
1.82703e+06
1.72188e+06
1.78369e+06
1.70045e+06
1.57656e+06
1.65403e+06
2.15195e+06
2.07305e+06
2.12305e+06
2.08896e+06
2.03727e+06
2.0874e+06
2.05073e+06
1.9908e+06
2.04856e+06
1.9954e+06
1.9191e+06
1.98938e+06
1.91062e+06
1.80566e+06
1.89379e+06
1.79019e+06
1.64371e+06
1.76124e+06
2.28818e+06
2.2134e+06
2.20702e+06
2.23656e+06
2.18744e+06
2.16521e+06
2.20625e+06
2.15216e+06
2.12884e+06
2.16478e+06
2.10594e+06
2.07921e+06
2.09892e+06
2.01323e+06
1.99748e+06
1.98892e+06
1.89592e+06
1.88446e+06
2.42573e+06
2.34395e+06
2.45651e+06
2.36526e+06
2.31703e+06
2.41708e+06
2.34069e+06
2.28731e+06
2.39409e+06
2.31137e+06
2.27011e+06
2.38007e+06
2.26613e+06
2.18879e+06
2.32073e+06
2.18214e+06
2.1164e+06
2.26214e+06
2.68208e+06
2.60632e+06
2.54529e+06
2.64092e+06
2.60542e+06
2.52675e+06
2.63885e+06
2.59801e+06
2.52117e+06
2.52958e+06
2.59037e+06
2.58675e+06
2.48206e+06
2.51711e+06
2.53508e+06
2.4108e+06
2.40922e+06
2.47596e+06
2.87566e+06
2.78092e+06
2.95038e+06
2.82091e+06
2.80009e+06
2.93175e+06
2.83262e+06
2.80147e+06
2.9405e+06
2.92156e+06
2.80447e+06
2.79863e+06
2.90166e+06
2.75133e+06
2.7641e+06
2.82922e+06
2.64443e+06
2.69286e+06
3.23956e+06
3.18355e+06
3.06822e+06
3.10707e+06
3.21455e+06
3.18841e+06
3.0981e+06
3.20822e+06
3.1891e+06
3.18819e+06
3.06606e+06
3.19878e+06
3.18536e+06
3.02233e+06
3.17765e+06
3.10044e+06
2.78857e+06
2.99601e+06
3.48687e+06
3.40939e+06
3.63115e+06
3.56236e+06
3.4548e+06
3.42707e+06
3.59151e+06
3.47839e+06
3.44279e+06
3.62541e+06
3.49558e+06
3.47184e+06
3.63765e+06
3.46788e+06
3.47363e+06
3.58762e+06
3.33178e+06
3.40822e+06
4.00035e+06
3.9209e+06
3.73946e+06
3.93496e+06
3.78692e+06
3.94856e+06
3.94809e+06
3.81918e+06
3.97844e+06
3.98039e+06
3.83702e+06
4.00653e+06
3.99129e+06
3.79884e+06
3.98674e+06
3.9164e+06
3.53848e+06
3.79367e+06
4.31831e+06
4.23549e+06
4.5402e+06
4.44568e+06
4.28391e+06
4.27055e+06
4.47847e+06
4.3058e+06
4.28045e+06
4.50599e+06
4.346e+06
4.32541e+06
4.54493e+06
4.33895e+06
4.35384e+06
4.49008e+06
4.19194e+06
4.28382e+06
4.9433e+06
4.88523e+06
4.63215e+06
4.90274e+06
4.69366e+06
4.89394e+06
4.90163e+06
4.73417e+06
4.88216e+06
4.94294e+06
4.76587e+06
4.91864e+06
4.96202e+06
4.73708e+06
4.92263e+06
4.87306e+06
4.45829e+06
4.74301e+06
5.33254e+06
5.29628e+06
5.62198e+06
5.53447e+06
5.29347e+06
5.31738e+06
5.33404e+06
5.33575e+06
5.64787e+06
5.38067e+06
5.38338e+06
5.71303e+06
5.41246e+06
5.38036e+06
5.72965e+06
5.3482e+06
5.23387e+06
5.59611e+06
5.96741e+06
5.96047e+06
5.68333e+06
5.93557e+06
5.77156e+06
5.97038e+06
6.01267e+06
6.03767e+06
5.74705e+06
6.05485e+06
6.08734e+06
5.78669e+06
6.08044e+06
6.071e+06
5.79136e+06
6.00068e+06
5.98123e+06
5.73565e+06
6.21732e+06
6.44105e+06
6.27793e+06
6.32281e+06
6.49717e+06
6.38423e+06
6.3486e+06
6.56681e+06
6.44003e+06
6.41527e+06
6.64253e+06
6.50707e+06
6.45637e+06
6.63455e+06
6.52812e+06
6.39194e+06
6.54894e+06
6.41233e+06
6.42213e+06
6.63678e+06
6.64896e+06
6.57053e+06
6.71122e+06
6.72792e+06
6.62156e+06
6.77345e+06
6.78474e+06
6.68514e+06
6.83025e+06
6.85894e+06
6.71326e+06
6.76233e+06
6.86956e+06
6.58682e+06
6.50298e+06
6.71741e+06
6.12124e+06
6.27299e+06
6.1758e+06
6.17668e+06
6.32159e+06
6.25359e+06
6.24506e+06
6.40329e+06
6.32919e+06
6.32241e+06
6.46262e+06
6.3992e+06
6.35222e+06
6.40267e+06
6.38794e+06
6.24449e+06
6.3407e+06
6.25254e+06
5.85995e+06
5.96474e+06
5.84457e+06
5.87768e+06
6.02611e+06
5.91651e+06
5.92626e+06
6.08527e+06
5.97292e+06
5.97545e+06
6.11735e+06
6.01414e+06
5.97493e+06
6.04536e+06
5.98044e+06
5.89751e+06
5.97297e+06
5.86509e+06
5.6107e+06
5.59837e+06
5.3642e+06
5.61452e+06
5.62412e+06
5.39584e+06
5.65132e+06
5.6738e+06
5.42668e+06
5.69546e+06
5.70509e+06
5.4616e+06
5.69542e+06
5.65594e+06
5.4454e+06
5.59648e+06
5.53786e+06
5.40795e+06
5.02266e+06
5.00937e+06
5.29266e+06
5.01716e+06
5.01126e+06
5.26425e+06
5.0383e+06
5.03881e+06
5.30119e+06
5.05959e+06
5.04539e+06
5.31944e+06
5.03431e+06
4.97365e+06
5.26418e+06
4.92489e+06
4.88247e+06
5.0442e+06
4.71028e+06
4.65165e+06
4.37679e+06
4.66818e+06
4.64664e+06
4.40347e+06
4.68454e+06
4.67032e+06
4.42437e+06
4.70323e+06
4.67558e+06
4.43848e+06
4.67829e+06
4.60432e+06
4.39618e+06
4.55458e+06
4.4624e+06
4.26034e+06
4.16334e+06
4.10102e+06
4.4344e+06
4.12216e+06
4.0925e+06
4.34912e+06
4.1298e+06
4.10263e+06
4.35711e+06
4.13209e+06
4.09126e+06
4.35278e+06
4.09213e+06
4.01081e+06
4.29084e+06
3.98321e+06
3.8905e+06
4.14757e+06
3.89176e+06
3.82057e+06
3.58213e+06
3.84366e+06
3.81032e+06
3.59839e+06
3.8473e+06
3.817e+06
3.60469e+06
3.84675e+06
3.80349e+06
3.60014e+06
3.80751e+06
3.72455e+06
3.54684e+06
3.68875e+06
3.57962e+06
3.41452e+06
3.41945e+06
3.35024e+06
3.64756e+06
3.37162e+06
3.33519e+06
3.56782e+06
3.36708e+06
3.33001e+06
3.56205e+06
3.35336e+06
3.3039e+06
3.54169e+06
3.30485e+06
3.22352e+06
3.47662e+06
3.2045e+06
3.10816e+06
3.34752e+06
3.2105e+06
3.13624e+06
2.94143e+06
3.15797e+06
3.1188e+06
2.94914e+06
3.14821e+06
3.10833e+06
2.93923e+06
3.12977e+06
3.0777e+06
2.91528e+06
3.07977e+06
2.99681e+06
2.85308e+06
2.97109e+06
2.86009e+06
2.73026e+06
2.82797e+06
2.75883e+06
3.00641e+06
2.77712e+06
2.73797e+06
2.93168e+06
2.7604e+06
2.71712e+06
2.91314e+06
2.73044e+06
2.6746e+06
2.87775e+06
2.67112e+06
2.59202e+06
2.8086e+06
2.57879e+06
2.48378e+06
2.69583e+06
2.68766e+06
2.6149e+06
2.47023e+06
2.63213e+06
2.59066e+06
2.46872e+06
2.60994e+06
2.56332e+06
2.44315e+06
2.57369e+06
2.51326e+06
2.39839e+06
2.50898e+06
2.42454e+06
2.32115e+06
2.40477e+06
2.29349e+06
2.20242e+06
2.4135e+06
2.34494e+06
2.53258e+06
2.3594e+06
2.31841e+06
2.46346e+06
2.33095e+06
2.28234e+06
2.43282e+06
2.28484e+06
2.22091e+06
2.38107e+06
2.20938e+06
2.12661e+06
2.30015e+06
2.11388e+06
2.02137e+06
2.19791e+06
2.34871e+06
2.2764e+06
2.1916e+06
2.28851e+06
2.24478e+06
2.17775e+06
2.25473e+06
2.20257e+06
2.13862e+06
2.20274e+06
2.13363e+06
2.07589e+06
2.12093e+06
2.03028e+06
1.98125e+06
2.01227e+06
1.8993e+06
1.86184e+06
2.20318e+06
2.13287e+06
2.25344e+06
2.14452e+06
2.10096e+06
2.18923e+06
2.10633e+06
2.0539e+06
2.1486e+06
2.04933e+06
1.97976e+06
2.08503e+06
1.9628e+06
1.87434e+06
1.99167e+06
1.85945e+06
1.76824e+06
1.89074e+06
2.21474e+06
2.14117e+06
2.12465e+06
2.14982e+06
2.10448e+06
2.09838e+06
2.10926e+06
2.05468e+06
2.05388e+06
2.0498e+06
1.97801e+06
1.98543e+06
1.96171e+06
1.86862e+06
1.88618e+06
1.85295e+06
1.73717e+06
1.77074e+06
2.20931e+06
2.13857e+06
2.18876e+06
2.15077e+06
2.10714e+06
2.13282e+06
2.11203e+06
2.05991e+06
2.08955e+06
2.05546e+06
1.98812e+06
2.02522e+06
1.97262e+06
1.88681e+06
1.93408e+06
1.87069e+06
1.78278e+06
1.83762e+06
2.292e+06
2.21865e+06
2.27157e+06
2.22833e+06
2.18476e+06
2.23775e+06
2.19212e+06