/*--------------------------------*- C++ -*----------------------------------*\
| =========                 |                                                 |
| \\      /  F ield         | OpenFOAM: The Open Source CFD Toolbox           |
|  \\    /   O peration     | Version:  v2012                                 |
|   \\  /    A nd           | Website:  www.openfoam.com                      |
|    \\/     M anipulation  |                                                 |
\*---------------------------------------------------------------------------*/
FoamFile
{
    version     2.0;
    format      ascii;
    class       volScalarField;
    location    "1";
    object      sigmaHyd;
}
// * * * * * * * * * * * * * * * * * * * * * * * * * * * * * * * * * * * * * //

dimensions      [1 -1 -2 0 0 0 0];


internalField   nonuniform List<scalar> 
158760
(
4.40081e+06
5.41474e+06
5.12292e+06
5.26012e+06
5.19609e+06
4.75039e+06
5.1032e+06
5.14305e+06
4.72282e+06
4.74124e+06
5.06609e+06
5.02695e+06
4.6368e+06
4.99484e+06
5.02857e+06
4.70125e+06
4.86441e+06
5.34901e+06
3.87434e+06
4.36946e+06
4.04433e+06
4.3968e+06
4.00148e+06
4.24345e+06
4.34446e+06
3.96416e+06
4.21479e+06
4.13562e+06
4.43446e+06
3.93108e+06
4.04105e+06
4.42811e+06
3.84635e+06
3.92406e+06
4.22155e+06
4.10668e+06
3.5512e+06
3.58118e+06
3.69128e+06
3.8424e+06
3.69028e+06
3.60084e+06
3.72043e+06
3.62185e+06
3.47857e+06
3.48834e+06
3.78356e+06
3.56764e+06
3.65228e+06
3.96396e+06
3.63607e+06
3.9288e+06
4.06895e+06
3.81196e+06
3.02274e+06
3.02543e+06
3.04989e+06
3.14082e+06
2.93918e+06
3.05461e+06
3.13509e+06
2.8786e+06
3.02174e+06
2.84379e+06
3.02517e+06
3.18471e+06
2.82612e+06
3.06202e+06
3.25082e+06
3.22285e+06
2.44123e+06
3.0255e+06
2.76193e+06
2.60417e+06
2.70518e+06
2.7982e+06
2.73661e+06
2.63522e+06
2.7391e+06
2.76876e+06
2.58324e+06
2.72033e+06
2.6802e+06
2.76823e+06
2.72461e+06
2.85629e+06
2.94759e+06
3.01568e+06
2.45216e+06
2.92338e+06
2.26956e+06
2.29202e+06
2.35453e+06
2.23579e+06
2.35764e+06
2.35979e+06
2.22882e+06
2.36361e+06
2.33989e+06
2.25379e+06
2.40036e+06
2.33156e+06
2.27238e+06
2.48252e+06
2.31178e+06
2.30806e+06
1.82314e+06
2.5097e+06
2.06378e+06
1.94362e+06
2.03576e+06
2.07039e+06
2.10776e+06
1.95562e+06
2.04705e+06
1.99654e+06
2.07789e+06
2.03807e+06
2.01558e+06
2.09678e+06
2.07263e+06
2.14669e+06
2.23146e+06
2.27681e+06
2.30738e+06
2.51631e+06
1.68936e+06
1.69904e+06
1.76647e+06
1.66497e+06
1.77644e+06
1.79153e+06
1.67888e+06
1.75775e+06
1.77469e+06
1.66811e+06
1.76667e+06
1.74455e+06
1.69095e+06
1.83832e+06
1.74415e+06
1.79667e+06
1.92812e+06
1.87571e+06
1.49909e+06
1.38637e+06
1.46031e+06
1.47671e+06
1.42548e+06
1.50582e+06
1.51205e+06
1.53798e+06
1.40687e+06
1.50969e+06
1.55443e+06
1.42656e+06
1.54625e+06
1.62241e+06
1.50645e+06
1.69516e+06
1.76882e+06
1.76447e+06
1.17799e+06
1.20038e+06
1.26155e+06
1.17614e+06
1.22136e+06
1.26842e+06
1.16579e+06
1.25482e+06
1.2777e+06
1.1721e+06
1.28652e+06
1.28138e+06
1.18158e+06
1.34627e+06
1.28256e+06
1.23967e+06
1.43535e+06
1.36614e+06
994474
895444
962905
986429
917180
992311
982873
927619
998938
990586
946880
1.01729e+06
1.01036e+06
1.00405e+06
1.07344e+06
1.12121e+06
1.09921e+06
1.24117e+06
706481
724469
794397
709045
749397
800687
711546
755976
801475
714462
771805
800796
724712
805592
803246
761033
860945
881739
524149
432301
490157
525773
453950
524901
518591
452770
524299
528445
468908
538672
540286
500592
568054
602253
542831
657174
254846
267544
349443
258020
287463
352125
263184
286067
348702
268291
301568
356301
275063
316796
355587
284379
363651
390759
70173
-26204.3
34396.5
85167.5
78417.3
-16054.2
76936.3
2211.19
69951.2
83009.9
8419.96
74754.7
81962.2
11150.9
77439.4
96031.4
-3190.24
86247
-188485
-183268
-86249.6
-182833
-150014
-75566.8
-171753
-168983
-77783.8
-176366
-168333
-81564.5
-174385
-181004
-92009.1
-198382
-143707
-100608
-380914
-483958
-427099
-372766
-454825
-387052
-364929
-454902
-390656
-356233
-378652
-467267
-361002
-397062
-478305
-400768
-462446
-564978
-637340
-628243
-523108
-619838
-617217
-518803
-615587
-620545
-516088
-616063
-617231
-510677
-610978
-648749
-515964
-653637
-619193
-565255
-842346
-947151
-890731
-821691
-921466
-850289
-816749
-922453
-850973
-818418
-929245
-857548
-826931
-969442
-901701
-904198
-1.08693e+06
-1.04705e+06
-1.10016e+06
-1.09398e+06
-972261
-1.07668e+06
-1.08527e+06
-967941
-1.07063e+06
-1.08527e+06
-962255
-1.06551e+06
-1.09845e+06
-959568
-1.06739e+06
-1.14012e+06
-967143
-1.14286e+06
-1.12346e+06
-1.05075e+06
-1.32253e+06
-1.43421e+06
-1.37718e+06
-1.29256e+06
-1.40596e+06
-1.33215e+06
-1.28883e+06
-1.40667e+06
-1.33393e+06
-1.28641e+06
-1.42169e+06
-1.34559e+06
-1.30077e+06
-1.48582e+06
-1.40164e+06
-1.4293e+06
-1.66214e+06
-1.61637e+06
-1.58883e+06
-1.59093e+06
-1.4423e+06
-1.56506e+06
-1.5876e+06
-1.44158e+06
-1.55372e+06
-1.57938e+06
-1.43368e+06
-1.53883e+06
-1.59822e+06
-1.42538e+06
-1.54588e+06
-1.65866e+06
-1.4355e+06
-1.64796e+06
-1.64179e+06
-1.55508e+06
-1.8366e+06
-1.9609e+06
-1.90176e+06
-1.79573e+06
-1.84714e+06
-1.93834e+06
-1.78935e+06
-1.84875e+06
-1.9425e+06
-1.78683e+06
-1.96046e+06
-1.86923e+06
-1.80662e+06
-2.03011e+06
-1.9427e+06
-1.98307e+06
-2.24151e+06
-2.22909e+06
-2.11909e+06
-2.13085e+06
-1.947e+06
-2.09513e+06
-2.12913e+06
-1.94916e+06
-2.0798e+06
-2.13984e+06
-1.93762e+06
-2.06898e+06
-2.16841e+06
-1.93126e+06
-2.07323e+06
-2.22338e+06
-1.93386e+06
-2.21143e+06
-2.19221e+06
-2.10072e+06
-2.4107e+06
-2.56279e+06
-2.49397e+06
-2.3723e+06
-2.42776e+06
-2.53539e+06
-2.36536e+06
-2.43342e+06
-2.54111e+06
-2.36213e+06
-2.46337e+06
-2.55864e+06
-2.38884e+06
-2.54563e+06
-2.63735e+06
-2.6039e+06
-2.80688e+06
-3.04879e+06
-2.73203e+06
-2.74733e+06
-2.51189e+06
-2.69493e+06
-2.74664e+06
-2.51715e+06
-2.68021e+06
-2.76807e+06
-2.50563e+06
-2.66408e+06
-2.80501e+06
-2.49849e+06
-2.65219e+06
-2.91184e+06
-2.49553e+06
-2.80046e+06
-2.85545e+06
-2.66726e+06
-3.11254e+06
-3.32501e+06
-3.2278e+06
-3.06214e+06
-3.2929e+06
-3.1619e+06
-3.05545e+06
-3.28865e+06
-3.17783e+06
-3.04339e+06
-3.30946e+06
-3.19986e+06
-3.05721e+06
-3.41684e+06
-3.31124e+06
-3.31527e+06
-3.6294e+06
-3.86267e+06
-3.51569e+06
-3.61792e+06
-3.18965e+06
-3.46255e+06
-3.62254e+06
-3.2133e+06
-3.44272e+06
-3.61522e+06
-3.19193e+06
-3.42054e+06
-3.63168e+06
-3.171e+06
-3.41541e+06
-3.70951e+06
-3.16497e+06
-3.48138e+06
-3.59586e+06
-3.316e+06
-4.11118e+06
-4.98591e+06
-4.60376e+06
-4.07781e+06
-4.99967e+06
-4.60659e+06
-4.05574e+06
-4.95659e+06
-4.58893e+06
-4.0248e+06
-4.89831e+06
-4.57536e+06
-4.02273e+06
-4.86728e+06
-4.63634e+06
-4.22119e+06
-5.25581e+06
-5.08759e+06
-4.16655e+06
-4.53583e+06
-4.05661e+06
-4.25457e+06
-4.5256e+06
-4.09507e+06
-4.23155e+06
-4.4912e+06
-4.0692e+06
-4.18944e+06
-4.44513e+06
-4.019e+06
-4.14595e+06
-4.36021e+06
-3.94793e+06
-4.11854e+06
-4.42841e+06
-3.96172e+06
3.88494e+06
3.88162e+06
3.55838e+06
3.7807e+06
3.9046e+06
3.90532e+06
3.75392e+06
3.8911e+06
3.87628e+06
3.72344e+06
3.84771e+06
3.85002e+06
3.64052e+06
3.74398e+06
3.77024e+06
3.54207e+06
3.4844e+06
3.61558e+06
3.3433e+06
3.4023e+06
3.48479e+06
3.2348e+06
3.41573e+06
3.42403e+06
3.20696e+06
3.40906e+06
3.3959e+06
3.18403e+06
3.36895e+06
3.37435e+06
3.10119e+06
3.19658e+06
3.25053e+06
2.92506e+06
3.15579e+06
3.13672e+06
3.21847e+06
3.23236e+06
3.06854e+06
3.04633e+06
3.10867e+06
3.19757e+06
3.01071e+06
3.0743e+06
3.15791e+06
2.99452e+06
3.19304e+06
2.95939e+06
2.97081e+06
3.07133e+06
2.89629e+06
2.84596e+06
2.6261e+06
3.09116e+06
2.6251e+06
2.63387e+06
2.7902e+06
2.53375e+06
2.64845e+06
2.63611e+06
2.50702e+06
2.63386e+06
2.58943e+06
2.53302e+06
2.60245e+06
2.68314e+06
2.41712e+06
2.4731e+06
2.56943e+06
2.23523e+06
2.02332e+06
2.25579e+06
2.52014e+06
2.55158e+06
2.32081e+06
2.45963e+06
2.57361e+06
2.36307e+06
2.44795e+06
2.56325e+06
2.36541e+06
2.47255e+06
2.53265e+06
2.38812e+06
2.37427e+06
2.44073e+06
2.326e+06
2.25608e+06
1.91198e+06
2.11417e+06
2.02373e+06
2.06128e+06
2.21293e+06
2.018e+06
2.09452e+06
2.17686e+06
2.00518e+06
2.0991e+06
2.16713e+06
1.98402e+06
2.0692e+06
2.12119e+06
1.90923e+06
1.96367e+06
2.00194e+06
1.77305e+06
1.65981e+06
1.80274e+06
1.93237e+06
1.95442e+06
1.75868e+06
1.90864e+06
1.9701e+06
1.79687e+06
1.89401e+06
1.97108e+06
1.79368e+06
1.87358e+06
1.96348e+06
1.79226e+06
1.82838e+06
1.89502e+06
1.77868e+06
1.77472e+06
1.67567e+06
1.73987e+06
1.5263e+06
1.55972e+06
1.69241e+06
1.53347e+06
1.57674e+06
1.6712e+06
1.51466e+06
1.5675e+06
1.65298e+06
1.48995e+06
1.55531e+06
1.61619e+06
1.4504e+06
1.49662e+06
1.54016e+06
1.38204e+06
1.46706e+06
1.45728e+06
1.41171e+06
1.4273e+06
1.25659e+06
1.39702e+06
1.4366e+06
1.29143e+06
1.38172e+06
1.43113e+06
1.28477e+06
1.36386e+06
1.42751e+06
1.28402e+06
1.33847e+06
1.3913e+06
1.27755e+06
1.32268e+06
1.32411e+06
1.27693e+06
1.06793e+06
1.0901e+06
1.21479e+06
1.07457e+06
1.10389e+06
1.19715e+06
1.06393e+06
1.09883e+06
1.18603e+06
1.04919e+06
1.08964e+06
1.16308e+06
1.02249e+06
1.04925e+06
1.11314e+06
978835
1.06204e+06
1.07361e+06
941195
944839
795255
926703
953194
821496
919864
952379
819082
911127
950987
820189
896335
928152
819024
892171
892338
804573
634216
646355
768224
639920
654300
753148
633983
650930
746665
626293
645016
732546
610762
618623
699007
580925
628759
678290
500132
492539
355648
484893
496340
374623
481624
497349
372685
480142
497147
376341
474041
484697
380901
478116
454417
367838
214587
215328
340769
216987
217378
324716
215620
215778
322239
215178
212726
316624
210012
199640
296186
191935
222809
288466
73807.7
53501.2
-72602.9
55591.8
54416.6
-62966.8
58776
55583
-61963.4
61544.6
56369.2
-59155
63376.9
54778
-49487.5
75137.1
34801.1
-65766.2
-200751
-208455
-78881.4
-198337
-212402
-93881.5
-195874
-215596
-92039.2
-193234
-218139
-94353.5
-189135
-219035
-103071
-196083
-188491
-97806.4
-349104
-379162
-502351
-366437
-383490
-497079
-361451
-384706
-496691
-355850
-383091
-493346
-344468
-375341
-476753
-325810
-395654
-494737
-620004
-637818
-498617
-618847
-647444
-514659
-612068
-648039
-509708
-602134
-646860
-504957
-586109
-633892
-498563
-580713
-586902
-479340
-778489
-821353
-942589
-797686
-829620
-943063
-788230
-827591
-940737
-774595
-823804
-933404
-753477
-804006
-910121
-724069
-797841
-926000
-1.05251e+06
-1.0806e+06
-928731
-1.05271e+06
-1.09528e+06
-945864
-1.04035e+06
-1.09383e+06
-936026
-1.02322e+06
-1.09067e+06
-925071
-996222
-1.06298e+06
-903676
-976649
-997091
-866389
-1.224e+06
-1.28085e+06
-1.40354e+06
-1.24625e+06
-1.29254e+06
-1.41019e+06
-1.23167e+06
-1.2886e+06
-1.40405e+06
-1.211e+06
-1.28305e+06
-1.39222e+06
-1.17986e+06
-1.25136e+06
-1.36128e+06
-1.13935e+06
-1.22865e+06
-1.37807e+06
-1.50736e+06
-1.54734e+06
-1.37762e+06
-1.50934e+06
-1.5681e+06
-1.39788e+06
-1.49064e+06
-1.56275e+06
-1.3832e+06
-1.46457e+06
-1.5561e+06
-1.36471e+06
-1.42639e+06
-1.51295e+06
-1.3285e+06
-1.39213e+06
-1.42516e+06
-1.27175e+06
-1.69376e+06
-1.76917e+06
-1.89362e+06
-1.72297e+06
-1.78358e+06
-1.9097e+06
-1.70161e+06
-1.77543e+06
-1.90217e+06
-1.67136e+06
-1.76888e+06
-1.88536e+06
-1.63053e+06
-1.72268e+06
-1.84575e+06
-1.57436e+06
-1.67801e+06
-1.85573e+06
-1.99279e+06
-2.04911e+06
-1.85286e+06
-1.99841e+06
-2.07832e+06
-1.88118e+06
-1.97701e+06
-2.07285e+06
-1.86061e+06
-1.94471e+06
-2.06405e+06
-1.83619e+06
-1.89267e+06
-2.00067e+06
-1.78118e+06
-1.83873e+06
-1.89337e+06
-1.70404e+06
-2.19441e+06
-2.29667e+06
-2.43231e+06
-2.23492e+06
-2.31492e+06
-2.45637e+06
-2.20851e+06
-2.30728e+06
-2.44664e+06
-2.17332e+06
-2.29767e+06
-2.42923e+06
-2.11838e+06
-2.23482e+06
-2.38077e+06
-2.04588e+06
-2.19516e+06
-2.4026e+06
-2.53544e+06
-2.6155e+06
-2.36653e+06
-2.54452e+06
-2.65375e+06
-2.41012e+06
-2.52096e+06
-2.64611e+06
-2.38514e+06
-2.47971e+06
-2.62931e+06
-2.35122e+06
-2.4105e+06
-2.5492e+06
-2.27694e+06
-2.3402e+06
-2.42169e+06
-2.17132e+06
-2.75195e+06
-2.84973e+06
-3.0435e+06
-2.76548e+06
-2.869e+06
-3.0496e+06
-2.73398e+06
-2.85795e+06
-3.03926e+06
-2.68991e+06
-2.8391e+06
-3.01796e+06
-2.61857e+06
-2.76397e+06
-2.96598e+06
-2.53267e+06
-2.66921e+06
-2.90452e+06
-3.15382e+06
-3.30608e+06
-2.96442e+06
-3.16507e+06
-3.32827e+06
-3.00346e+06
-3.13259e+06
-3.31199e+06
-2.96976e+06
-3.08051e+06
-3.28464e+06
-2.92276e+06
-3.00014e+06
-3.20314e+06
-2.83613e+06
-2.84313e+06
-2.97121e+06
-2.68236e+06
-3.3407e+06
-3.49727e+06
-3.60828e+06
-3.32569e+06
-3.47658e+06
-3.6229e+06
-3.29631e+06
-3.45482e+06
-3.60811e+06
-3.25076e+06
-3.41414e+06
-3.58722e+06
-3.18673e+06
-3.3076e+06
-3.54979e+06
-3.03829e+06
-3.33492e+06
-3.43698e+06
-3.47008e+06
-3.28224e+06
-3.43435e+06
-3.44593e+06
-3.25606e+06
-3.38878e+06
-3.41773e+06
-3.22871e+06
-3.36129e+06
-3.37281e+06
-3.1784e+06
-3.30914e+06
-3.30237e+06
-3.07433e+06
-3.18999e+06
-3.07326e+06
-2.936e+06
-3.09343e+06
3.52277e+06
3.38162e+06
3.16554e+06
3.37249e+06
3.44479e+06
3.27527e+06
3.38132e+06
3.44325e+06
3.281e+06
3.33744e+06
3.38757e+06
3.23439e+06
3.22562e+06
3.26253e+06
3.1342e+06
3.06539e+06
3.05409e+06
2.94118e+06
2.99713e+06
2.96915e+06
3.04049e+06
2.85677e+06
2.97467e+06
3.02083e+06
2.83791e+06
2.95371e+06
3.00535e+06
2.78912e+06
2.88764e+06
2.94889e+06
2.69374e+06
2.74909e+06
2.81288e+06
2.44718e+06
2.56508e+06
2.61338e+06
2.89565e+06
2.93448e+06
2.79554e+06
2.79722e+06
2.91957e+06
2.80419e+06
2.76603e+06
2.88468e+06
2.77486e+06
2.70815e+06
2.82036e+06
2.70248e+06
2.61361e+06
2.66317e+06
2.5904e+06
2.36284e+06
2.34464e+06
2.30982e+06
2.40011e+06
2.43089e+06
2.53945e+06
2.35904e+06
2.44568e+06
2.48276e+06
2.31863e+06
2.42183e+06
2.45155e+06
2.26937e+06
2.34314e+06
2.39473e+06
2.16482e+06
2.16373e+06
2.25472e+06
1.97923e+06
1.88353e+06
1.85609e+06
2.3281e+06
2.38112e+06
2.16602e+06
2.31255e+06
2.39445e+06
2.22877e+06
2.28494e+06
2.37859e+06
2.21557e+06
2.24367e+06
2.31121e+06
2.18598e+06
2.14895e+06
2.14058e+06
2.07962e+06
1.98451e+06
1.84022e+06
1.86294e+06
1.89353e+06
1.9356e+06
2.06901e+06
1.89522e+06
1.9518e+06
2.02299e+06
1.8663e+06
1.93076e+06
1.99157e+06
1.82507e+06
1.87625e+06
1.93124e+06
1.74323e+06
1.72761e+06
1.80527e+06
1.58001e+06
1.58776e+06
1.61502e+06
1.82803e+06
1.86428e+06
1.66865e+06
1.81536e+06
1.87256e+06
1.72291e+06
1.79149e+06
1.85574e+06
1.709e+06
1.75754e+06
1.81061e+06
1.6856e+06
1.69354e+06
1.68685e+06
1.6231e+06
1.57964e+06
1.49171e+06
1.49591e+06
1.4432e+06
1.47436e+06
1.60207e+06
1.44871e+06
1.48892e+06
1.56922e+06
1.42705e+06
1.47009e+06
1.54306e+06
1.39457e+06
1.42882e+06
1.49373e+06
1.3358e+06
1.33032e+06
1.40121e+06
1.22985e+06
1.26402e+06
1.28019e+06
1.35094e+06
1.37373e+06
1.20249e+06
1.33934e+06
1.38019e+06
1.24727e+06
1.3223e+06
1.36713e+06
1.23695e+06
1.29775e+06
1.33625e+06
1.22141e+06
1.25457e+06
1.25648e+06
1.18178e+06
1.18813e+06
1.12979e+06
1.10386e+06
1.0144e+06
1.03539e+06
1.15668e+06
1.02063e+06
1.04659e+06
1.13037e+06
1.00606e+06
1.03277e+06
1.11155e+06
983996
1.00455e+06
1.07683e+06
944315
937714
1.01266e+06
872601
912151
936976
906050
916481
764384
894306
921362
800346
884393
913488
794691
869676
894697
786865
843333
844162
765732
806499
758526
716343
603534
614561
733792
608959
621773
711099
600755
612979
699445
588285
595680
677107
564535
554644
634408
518559
558061
590289
484410
483056
344436
471656
485591
372398
467869
482197
370584
462067
473460
369854
450282
447296
365930
437665
393595
340184
203555
204544
325934
207314
207437
304648
204839
203038
299388
201148
195368
287882
191999
178526
263893
169395
208323
247600
75941.3
62736.5
-66548
61624.8
63015.4
-45784.3
63669.5
63613.2
-43859.1
65770.6
62948.3
-38395.8
67101.5
59717.3
-26170.7
77062.3
35504.6
-29940.2
-192910
-201703
-74766.8
-190641
-203195
-95612.6
-187644
-203678
-94976
-183494
-202243
-97125.5
-178532
-194996
-103013
-177811
-138357
-92253.7
-328502
-353511
-477689
-344432
-355906
-462752
-337160
-352106
-457532
-327661
-344381
-445632
-312868
-323609
-415902
-279262
-317764
-396900
-593865
-612297
-475967
-592905
-617728
-497407
-583819
-613967
-491416
-570947
-602051
-483379
-549611
-567471
-468609
-522438
-485580
-431664
-738210
-775433
-897780
-756126
-780390
-888912
-742905
-772611
-879514
-725100
-755297
-859194
-695008
-707226
-809861
-632346
-672435
-767248
-1.00616e+06
-1.03447e+06
-885861
-1.00597e+06
-1.04268e+06
-907285
-992885
-1.03106e+06
-893461
-969848
-1.00239e+06
-888273
-932696
-938659
-850019
-876848
-832039
-770468
-1.16086e+06
-1.21019e+06
-1.33422e+06
-1.17941e+06
-1.21579e+06
-1.3287e+06
-1.16124e+06
-1.20565e+06
-1.3183e+06
-1.1382e+06
-1.16655e+06
-1.26589e+06
-1.08701e+06
-1.0938e+06
-1.198e+06
-1.01024e+06
-1.04062e+06
-1.14578e+06
-1.43778e+06
-1.47153e+06
-1.31106e+06
-1.43781e+06
-1.48668e+06
-1.35078e+06
-1.41936e+06
-1.47848e+06
-1.33549e+06
-1.38981e+06
-1.40988e+06
-1.30122e+06
-1.32423e+06
-1.32179e+06
-1.2366e+06
-1.24757e+06
-1.1811e+06
-1.13642e+06
-1.59648e+06
-1.66227e+06
-1.78948e+06
-1.62563e+06
-1.66709e+06
-1.77395e+06
-1.59598e+06
-1.65366e+06
-1.75912e+06
-1.55717e+06
-1.5923e+06
-1.6972e+06
-1.48467e+06
-1.49317e+06
-1.60707e+06
-1.3868e+06
-1.40352e+06
-1.52667e+06
-1.88902e+06
-1.94435e+06
-1.75072e+06
-1.90335e+06
-1.94613e+06
-1.81482e+06
-1.86646e+06
-1.92221e+06
-1.77877e+06
-1.8213e+06
-1.86264e+06
-1.73284e+06
-1.74807e+06
-1.74145e+06
-1.64804e+06
-1.64118e+06
-1.57129e+06
-1.52917e+06
-2.03991e+06
-2.13308e+06
-2.26561e+06
-2.07778e+06
-2.12757e+06
-2.23547e+06
-2.03581e+06
-2.10273e+06
-2.21768e+06
-1.99079e+06
-2.04913e+06
-2.1666e+06
-1.9107e+06
-1.92141e+06
-2.05559e+06
-1.78697e+06
-1.80974e+06
-1.9631e+06
-2.37091e+06
-2.44071e+06
-2.20409e+06
-2.37828e+06
-2.45595e+06
-2.29831e+06
-2.34198e+06
-2.42011e+06
-2.23551e+06
-2.28347e+06
-2.35895e+06
-2.18588e+06
-2.1962e+06
-2.21542e+06
-2.08508e+06
-2.06974e+06
-2.00631e+06
-1.9338e+06
-2.51607e+06
-2.5823e+06
-2.7489e+06
-2.5105e+06
-2.57625e+06
-2.69772e+06
-2.45537e+06
-2.54619e+06
-2.70247e+06
-2.40045e+06
-2.48648e+06
-2.65002e+06
-2.30744e+06
-2.34144e+06
-2.53319e+06
-2.16098e+06
-2.15311e+06
-2.31895e+06
-2.85468e+06
-2.96155e+06
-2.70944e+06
-2.82204e+06
-2.92877e+06
-2.73628e+06
-2.77823e+06
-2.94126e+06
-2.69099e+06
-2.74062e+06
-2.87446e+06
-2.63432e+06
-2.64554e+06
-2.72838e+06
-2.52684e+06
-2.44746e+06
-2.39912e+06
-2.3484e+06
-2.88523e+06
-3.00889e+06
-3.06974e+06
-2.89627e+06
-3.00621e+06
-3.08896e+06
-2.86961e+06
-2.96764e+06
-3.08007e+06
-2.82499e+06
-2.89848e+06
-3.03634e+06
-2.74391e+06
-2.75006e+06
-2.93644e+06
-2.53311e+06
-2.52646e+06
-2.60817e+06
-3.00867e+06
-2.88884e+06
-2.99812e+06
-2.9848e+06
-2.92824e+06
-3.00922e+06
-2.9818e+06
-2.87403e+06
-2.94648e+06
-2.92535e+06
-2.81972e+06
-2.88498e+06
-2.85105e+06
-2.70359e+06
-2.76148e+06
-2.61273e+06
-2.50328e+06
-2.59334e+06
3.16484e+06
3.07497e+06
2.87302e+06
3.03716e+06
3.10729e+06
2.98583e+06
3.0127e+06
3.08371e+06
2.97435e+06
2.96802e+06
3.01839e+06
2.93186e+06
2.87152e+06
2.88582e+06
2.86778e+06
2.61893e+06
2.56723e+06
2.63034e+06
2.74208e+06
2.70378e+06
2.75108e+06
2.61187e+06
2.69662e+06
2.71358e+06
2.57614e+06
2.66792e+06
2.68117e+06
2.52823e+06
2.60192e+06
2.61551e+06
2.43944e+06
2.4914e+06
2.47848e+06
2.22113e+06
2.19015e+06
2.07192e+06
2.64512e+06
2.65819e+06
2.55535e+06
2.54166e+06
2.61806e+06
2.55601e+06
2.49653e+06
2.57768e+06
2.50698e+06
2.44096e+06
2.49847e+06
2.43985e+06
2.34397e+06
2.32974e+06
2.31772e+06
2.10295e+06
1.82928e+06
2.10173e+06
2.21746e+06
2.24521e+06
2.33585e+06
2.18165e+06
2.2467e+06
2.27848e+06
2.13818e+06
2.20505e+06
2.24533e+06
2.07994e+06
2.11943e+06
2.17525e+06
1.98077e+06
1.94987e+06
2.03495e+06
1.80253e+06
1.75014e+06
1.63388e+06
2.16016e+06
2.20243e+06
2.01405e+06
2.14047e+06
2.1995e+06
2.0777e+06
2.10601e+06
2.16459e+06
2.05121e+06
2.05351e+06
2.08463e+06
1.99909e+06
1.9612e+06
1.9208e+06
1.88628e+06
1.80451e+06
1.67884e+06
1.68495e+06
1.7761e+06
1.80891e+06
1.93374e+06
1.77227e+06
1.8178e+06
1.87805e+06
1.74091e+06
1.78403e+06
1.83995e+06
1.6925e+06
1.71241e+06
1.77234e+06
1.60845e+06
1.56989e+06
1.65268e+06
1.45785e+06
1.45199e+06
1.47711e+06
1.7254e+06
1.75282e+06
1.57377e+06
1.7066e+06
1.75151e+06
1.62737e+06
1.68097e+06
1.72295e+06
1.60717e+06
1.6396e+06
1.65915e+06
1.56843e+06
1.56824e+06
1.5327e+06
1.48681e+06
1.44964e+06
1.3392e+06
1.34286e+06
1.36522e+06
1.38818e+06
1.5128e+06
1.36439e+06
1.39637e+06
1.4686e+06
1.34093e+06
1.36872e+06
1.43741e+06
1.30343e+06
1.31439e+06
1.38288e+06
1.23968e+06
1.21106e+06
1.29313e+06
1.12943e+06
1.14271e+06
1.16691e+06
1.28922e+06
1.30508e+06
1.14339e+06
1.27198e+06
1.30384e+06
1.18873e+06
1.2535e+06
1.28224e+06
1.17441e+06
1.22363e+06
1.23685e+06
1.14809e+06
1.17313e+06
1.14828e+06
1.09338e+06
1.09417e+06
1.00788e+06
995557
963947
978518
1.09875e+06
965082
985184
1.06235e+06
948917
965217
1.03961e+06
922958
927497
1.00027e+06
878573
856617
936385
801982
827290
852438
870922
876446
730293
854720
875327
768404
843507
861607
760387
824908
832705
745888
792931
775762
714729
746756
677078
652499
574759
581126
699156
576502
585808
668127
567168
573345
653535
552092
550459
627720
525165
507899
585536
476880
511019
536459
469655
465248
331019
453723
463860
362713
449311
457525
360553
441279
443264
357103
426197
414425
347791
408428
351682
316170
194000
191987
311137
195480
194264
283392
192380
188671
276279
187294
179557
262890
176647
163728
240512
154392
196640
222224
79586.5
65178.5
-60981.3
63313.8
63099.4
-34781.7
65140
63299.3
-31615
66591.3
62149.8
-25065.2
67184.9
59951.2
-13740.4
76251
31128.6
-15957.9
-184297
-194787
-70816.2
-183377
-194876
-96868.2
-180173
-194047
-97167.2
-175872
-189951
-99074.5
-170821
-178766
-101715
-166451
-115442
-89774
-306635
-331166
-453251
-323472
-334047
-431415
-315128
-327693
-422686
-304334
-315781
-405626
-288109
-289749
-371464
-249614
-284656
-341087
-565627
-585394
-453069
-565855
-587426
-478171
-562730
-580904
-476141
-550209
-563426
-468077
-528577
-523048
-450205
-485726
-441535
-403841
-694125
-730437
-851986
-712444
-733962
-833460
-704725
-718893
-821591
-684814
-707274
-795647
-660249
-653788
-744001
-589172
-624607
-683205
-967699
-989376
-849632
-966336
-994220
-873487
-935997
-967952
-843580
-866143
-905090
-924003
-840289
-861316
-878017
-754055
-715725
-776208
-1.10296e+06
-1.13887e+06
-1.26437e+06
-1.11801e+06
-1.15652e+06
-1.25197e+06
-1.09439e+06
-1.13311e+06
-1.23034e+06
-1.15939e+06
-1.0659e+06
-1.09023e+06
-1.09488e+06
-998101
-1.02758e+06
-1.01942e+06
-854808
-953434
-1.35693e+06
-1.39131e+06
-1.22684e+06
-1.30886e+06
-1.356e+06
-1.38891e+06
-1.28549e+06
-1.33162e+06
-1.37437e+06
-1.35015e+06
-1.25266e+06
-1.30843e+06
-1.27441e+06
-1.17273e+06
-1.23136e+06
-1.18566e+06
-1.04159e+06
-1.15118e+06
-1.48856e+06
-1.54924e+06
-1.68688e+06
-1.63043e+06
-1.52493e+06
-1.56325e+06
-1.61445e+06
-1.47954e+06
-1.53947e+06
-1.56026e+06
-1.43312e+06
-1.49102e+06
-1.47663e+06
-1.34933e+06
-1.40497e+06
-1.36319e+06
-1.17664e+06
-1.31396e+06
-1.77177e+06
-1.82594e+06
-1.64579e+06
-1.83897e+06
-1.72983e+06
-1.77873e+06
-1.81577e+06
-1.68112e+06
-1.74486e+06
-1.75909e+06
-1.6299e+06
-1.68923e+06
-1.67216e+06
-1.54226e+06
-1.60908e+06
-1.55008e+06
-1.36397e+06
-1.48823e+06
-1.881e+06
-1.95205e+06
-2.10303e+06
-2.03012e+06
-1.91586e+06
-1.9805e+06
-2.01363e+06
-1.87558e+06
-1.95629e+06
-1.94901e+06
-1.81794e+06
-1.90007e+06
-1.84513e+06
-1.71021e+06
-1.7916e+06
-1.72573e+06
-1.51092e+06
-1.68544e+06
-2.18864e+06
-2.25312e+06
-2.04497e+06
-2.27295e+06
-2.16184e+06
-2.20107e+06
-2.16179e+06
-2.1016e+06
-2.22755e+06
-2.09745e+06
-2.03893e+06
-2.16487e+06
-2.01297e+06
-1.91959e+06
-2.04663e+06
-1.89157e+06
-1.69367e+06
-1.88485e+06
-2.30418e+06
-2.34754e+06
-2.51035e+06
-2.39578e+06
-2.2852e+06
-2.37249e+06
-2.2765e+06
-2.34243e+06
-2.46312e+06
-2.2046e+06
-2.26293e+06
-2.39778e+06
-2.10951e+06
-2.11331e+06
-2.26613e+06
-1.9537e+06
-1.93511e+06
-2.00807e+06
-2.61284e+06
-2.6773e+06
-2.49265e+06
-2.55094e+06
-2.54474e+06
-2.64758e+06
-2.55075e+06
-2.64621e+06
-2.45942e+06
-2.48689e+06
-2.55725e+06
-2.39351e+06
-2.39627e+06
-2.4038e+06
-2.28791e+06
-2.20259e+06
-2.06047e+06
-2.11343e+06
-2.59829e+06
-2.68245e+06
-2.7293e+06
-2.61121e+06
-2.68334e+06
-2.75467e+06
-2.59004e+06
-2.63694e+06
-2.74178e+06
-2.53118e+06
-2.56167e+06
-2.66712e+06
-2.4466e+06
-2.43206e+06
-2.54685e+06
-2.24348e+06
-2.22058e+06
-2.21454e+06
-2.71113e+06
-2.64779e+06
-2.72514e+06
-2.7019e+06
-2.64295e+06
-2.69917e+06
-2.68737e+06
-2.61608e+06
-2.66975e+06
-2.64362e+06
-2.55479e+06
-2.6069e+06
-2.5635e+06
-2.45169e+06
-2.5053e+06
-2.34483e+06
-2.30868e+06
-2.3643e+06
2.90082e+06
2.83565e+06
2.65903e+06
2.78995e+06
2.85432e+06
2.77504e+06
2.75512e+06
2.82084e+06
2.75732e+06
2.70606e+06
2.75042e+06
2.71689e+06
2.61544e+06
2.65243e+06
2.66387e+06
2.41163e+06
2.38363e+06
2.4865e+06
2.54815e+06
2.50062e+06
2.52975e+06
2.4208e+06
2.49829e+06
2.4908e+06
2.38562e+06
2.46671e+06
2.4536e+06
2.33814e+06
2.40421e+06
2.38388e+06
2.25886e+06
2.31088e+06
2.25675e+06
2.06227e+06
2.05728e+06
1.88941e+06
2.44719e+06
2.43558e+06
2.35281e+06
2.33502e+06
2.38975e+06
2.35013e+06
2.29241e+06
2.3453e+06
2.29812e+06
2.23652e+06
2.25904e+06
2.22729e+06
2.1457e+06
2.10123e+06
2.11312e+06
1.92258e+06
1.63514e+06
1.92802e+06
2.06302e+06
2.07949e+06
2.16647e+06
2.02532e+06
2.07431e+06
2.1022e+06
1.9846e+06
2.02722e+06
2.06916e+06
1.92694e+06
1.94055e+06
1.99985e+06
1.83492e+06
1.79209e+06
1.87209e+06
1.67717e+06
1.6266e+06
1.49163e+06
2.01252e+06
2.03727e+06
1.87317e+06
1.98312e+06
2.02561e+06
1.93162e+06
1.94936e+06
1.98352e+06
1.89998e+06
1.89531e+06
1.89993e+06
1.84087e+06
1.8086e+06
1.75529e+06
1.73444e+06
1.66901e+06
1.54279e+06
1.56196e+06
1.66768e+06
1.68987e+06
1.81073e+06
1.65833e+06
1.69158e+06
1.74606e+06
1.6273e+06
1.65196e+06
1.70679e+06
1.57823e+06
1.57848e+06
1.64054e+06
1.49974e+06
1.4536e+06
1.53491e+06
1.36665e+06
1.36502e+06
1.37528e+06
1.62641e+06
1.64118e+06
1.47957e+06
1.59946e+06
1.63201e+06
1.52983e+06
1.57427e+06
1.59743e+06
1.50637e+06
1.5311e+06
1.52984e+06
1.46115e+06
1.46186e+06
1.41665e+06
1.37815e+06
1.35292e+06
1.23972e+06
1.24433e+06
1.2905e+06
1.30487e+06
1.42771e+06
1.28401e+06
1.30711e+06
1.3737e+06
1.26052e+06
1.27532e+06
1.34142e+06
1.22236e+06
1.2187e+06
1.28816e+06
1.16104e+06
1.12513e+06
1.20896e+06
1.05944e+06
1.07079e+06
1.08966e+06
1.227e+06
1.23347e+06
1.08286e+06
1.2031e+06
1.22581e+06
1.12707e+06
1.1848e+06
1.19984e+06
1.11048e+06
1.1534e+06
1.15062e+06
1.07911e+06
1.10295e+06
1.069e+06
1.0214e+06
1.02775e+06
933655
926969
914710
922712
1.04247e+06
911096
925246
997124
894751
902289
973444
867981
862364
934398
824241
798003
877822
753007
778023
798055
834874
833738
694738
813495
827853
733824
802335
811076
724583
782374
779057
706767
749545
726334
672712
705091
628813
612145
546148
547989
665118
544426
550429
626614
534892
536423
611437
519467
512513
585682
493325
473993
548177
448036
484283
502326
454249
445732
316590
434671
441407
351331
430350
433650
349105
421813
417975
344317
406320
391689
332250
388607
327344
300894
184627
179800
296737
183988
181517
262982
180425
175801
255555
175391
167249
243107
165692
153352
224115
144403
190340
206050
83246
66938.8
-55739.9
64668.8
63358.9
-24763.5
66441.7
63613.4
-20423.1
67781.2
62612.3
-13716.9
68396.4
61620.5
-5116.17
76573.2
29037.8
-7524
-175156
-187071
-66066
-175551
-186029
-97095.7
-172909
-184249
-97926.4
-168910
-178956
-98790.7
-163933
-168792
-98909
-161203
-102545
-88914.4
-284543
-308825
-428194
-302485
-311529
-400210
-294060
-308279
-395226
-288405
-288352
-378619
-265273
-265970
-341707
-235321
-255646
-297699
-538595
-557470
-429602
-539236
-557411
-458908
-529623
-546618
-452188
-508840
-527927
-438316
-488605
-489348
-415097
-449778
-366254
-373270
-651298
-693218
-815094
-676420
-686558
-787818
-652525
-668640
-756601
-649207
-692177
-660351
-630351
-655650
-634274
-544319
-502921
-522697
-908057
-938658
-796271
-903227
-936852
-821943
-887430
-912774
-797995
-879288
-877538
-819409
-840410
-826985
-792848
-785145
-619276
-661205
-1.02127e+06
-1.0668e+06
-1.18263e+06
-1.06372e+06
-1.1308e+06
-1.08337e+06
-1.05035e+06
-1.10278e+06
-1.06006e+06
-1.02051e+06
-999695
-1.08733e+06
-971143
-924188
-1.01437e+06
-882361
-803376
-936567
-1.28947e+06
-1.32394e+06
-1.16815e+06
-1.29797e+06
-1.33319e+06
-1.2375e+06
-1.2764e+06
-1.30947e+06
-1.21886e+06
-1.25831e+06
-1.24911e+06
-1.18704e+06
-1.19171e+06
-1.16086e+06
-1.12232e+06
-1.09328e+06
-999619
-1.0063e+06
-1.39469e+06
-1.45498e+06
-1.57476e+06
-1.43361e+06
-1.45754e+06
-1.53004e+06
-1.40598e+06
-1.4154e+06
-1.49243e+06
-1.37604e+06
-1.35649e+06
-1.44509e+06
-1.31243e+06
-1.25853e+06
-1.36088e+06
-1.18358e+06
-1.11203e+06
-1.23566e+06
-1.67847e+06
-1.7324e+06
-1.5479e+06
-1.70433e+06
-1.73691e+06
-1.624e+06
-1.66605e+06
-1.69753e+06
-1.59094e+06
-1.62318e+06
-1.63039e+06
-1.54665e+06
-1.55216e+06
-1.51222e+06
-1.46971e+06
-1.42256e+06
-1.29199e+06
-1.31955e+06
-1.75977e+06
-1.82145e+06
-1.95259e+06
-1.79445e+06
-1.8432e+06
-1.89924e+06
-1.76739e+06
-1.78205e+06
-1.86178e+06
-1.71701e+06
-1.7108e+06
-1.79879e+06
-1.64071e+06
-1.58402e+06
-1.69663e+06
-1.48149e+06
-1.39735e+06
-1.5556e+06
-2.04899e+06
-2.11501e+06
-1.91671e+06
-2.08052e+06
-2.11442e+06
-2.00121e+06
-2.01287e+06
-2.0692e+06
-1.9223e+06
-1.97206e+06
-1.99275e+06
-1.86818e+06
-1.88906e+06
-1.85729e+06
-1.77154e+06
-1.75856e+06
-1.65203e+06
-1.5954e+06
-2.13978e+06
-2.1809e+06
-2.32233e+06
-2.1363e+06
-2.17373e+06
-2.23214e+06
-2.08075e+06
-2.12471e+06
-2.24562e+06
-2.03032e+06
-2.05381e+06
-2.17766e+06
-1.94273e+06
-1.91526e+06
-2.05302e+06
-1.7904e+06
-1.76638e+06
-1.79965e+06
-2.40778e+06
-2.4709e+06
-2.30929e+06
-2.38048e+06
-2.44169e+06
-2.31185e+06
-2.34133e+06
-2.40722e+06
-2.26621e+06
-2.29313e+06
-2.32829e+06
-2.20603e+06
-2.21199e+06
-2.19203e+06
-2.11153e+06
-2.03696e+06
-1.87313e+06
-1.95567e+06
-2.37854e+06
-2.45233e+06
-2.49214e+06
-2.39806e+06
-2.44364e+06
-2.50755e+06
-2.37427e+06
-2.40757e+06
-2.48184e+06
-2.32654e+06
-2.33694e+06
-2.41844e+06
-2.24852e+06
-2.23465e+06
-2.3062e+06
-2.07151e+06
-2.04498e+06
-2.00617e+06
-2.4907e+06
-2.44379e+06
-2.50759e+06
-2.49249e+06
-2.44627e+06
-2.48849e+06
-2.47988e+06
-2.42173e+06
-2.46323e+06
-2.4391e+06
-2.36204e+06
-2.40588e+06
-2.36323e+06
-2.28097e+06
-2.32704e+06
-2.17618e+06
-2.18576e+06
-2.21138e+06
2.69917e+06
2.65242e+06
2.49328e+06
2.60206e+06
2.66703e+06