/*--------------------------------*- C++ -*----------------------------------*\
| =========                 |                                                 |
| \\      /  F ield         | OpenFOAM: The Open Source CFD Toolbox           |
|  \\    /   O peration     | Version:  v2012                                 |
|   \\  /    A nd           | Website:  www.openfoam.com                      |
|    \\/     M anipulation  |                                                 |
\*---------------------------------------------------------------------------*/
FoamFile
{
    version     2.0;
    format      ascii;
    class       volVectorField;
    location    "11";
    object      D_0;
}
// * * * * * * * * * * * * * * * * * * * * * * * * * * * * * * * * * * * * * //

dimensions      [0 1 0 0 0 0 0];


internalField   nonuniform List<vector> 
4000
(
(0.000130513 -0.00144984 0)
(0.000130404 -0.00158604 0)
(0.000128982 -0.00171234 0)
(0.000126825 -0.00183453 0)
(0.000123929 -0.00194617 0)
(0.000120601 -0.00205237 0)
(0.000116764 -0.00214798 0)
(0.000112714 -0.00223735 0)
(0.000108249 -0.00231657 0)
(0.00010348 -0.00238896 0)
(9.8389e-05 -0.00245168 0)
(9.29971e-05 -0.0025073 0)
(8.73338e-05 -0.00255398 0)
(8.15881e-05 -0.00259378 0)
(7.59228e-05 -0.002626 0)
(7.0461e-05 -0.00265233 0)
(6.5451e-05 -0.00267298 0)
(6.09571e-05 -0.00268929 0)
(5.71653e-05 -0.00270212 0)
(5.42742e-05 -0.00271228 0)
(0.000388015 -0.0014693 0)
(0.000387769 -0.00160192 0)
(0.000384023 -0.0017246 0)
(0.000377937 -0.00184365 0)
(0.000370069 -0.00195248 0)
(0.000360209 -0.00205628 0)
(0.000349283 -0.00214955 0)
(0.000336824 -0.00223665 0)
(0.000323425 -0.00231319 0)
(0.000308629 -0.00238266 0)
(0.000293019 -0.00244204 0)
(0.000276367 -0.00249409 0)
(0.000259328 -0.00253718 0)
(0.000242074 -0.00257362 0)
(0.000225336 -0.00260288 0)
(0.000209347 -0.00262688 0)
(0.000194891 -0.00264594 0)
(0.000182053 -0.00266138 0)
(0.000171537 -0.00267415 0)
(0.000163209 -0.00268476 0)
(0.000634922 -0.00150672 0)
(0.00063476 -0.00163335 0)
(0.000629785 -0.00174958 0)
(0.000621255 -0.00186294 0)
(0.000609635 -0.00196601 0)
(0.000594454 -0.00206453 0)
(0.000576695 -0.00215217 0)
(0.000555985 -0.00223349 0)
(0.000532899 -0.0023035 0)
(0.000507558 -0.00236614 0)
(0.000480571 -0.00241823 0)
(0.000452386 -0.00246317 0)
(0.000423904 -0.00249952 0)
(0.000395697 -0.00253012 0)
(0.000368827 -0.00255472 0)
(0.000343792 -0.00257543 0)
(0.000321533 -0.00259264 0)
(0.000302246 -0.00260759 0)
(0.000286569 -0.0026209 0)
(0.00027403 -0.00263284 0)
(0.000868164 -0.00155984 0)
(0.000867626 -0.00167951 0)
(0.000862172 -0.0017875 0)
(0.000851881 -0.00189286 0)
(0.000837468 -0.00198683 0)
(0.000817302 -0.00207589 0)
(0.000793014 -0.00215317 0)
(0.000763484 -0.00222337 0)
(0.00073054 -0.00228182 0)
(0.000694219 -0.00233281 0)
(0.000656162 -0.00237377 0)
(0.00061717 -0.00240871 0)
(0.000578667 -0.00243659 0)
(0.00054162 -0.00246072 0)
(0.000507198 -0.00248086 0)
(0.000475997 -0.00249919 0)
(0.000448871 -0.00251576 0)
(0.000425567 -0.00253138 0)
(0.000406523 -0.00254617 0)
(0.000390639 -0.00255984 0)
(0.00108646 -0.00162486 0)
(0.00108394 -0.00173733 0)
(0.00107723 -0.00183556 0)
(0.00106437 -0.00193027 0)
(0.00104614 -0.00201082 0)
(0.00102062 -0.00208509 0)
(0.000989111 -0.00214549 0)
(0.00095105 -0.00219891 0)
(0.000908738 -0.00224054 0)
(0.000863025 -0.00227633 0)
(0.000816174 -0.00230413 0)
(0.000769441 -0.00232859 0)
(0.000724645 -0.00234886 0)
(0.000682728 -0.00236816 0)
(0.00064481 -0.00238581 0)
(0.000611075 -0.00240356 0)
(0.000581763 -0.00242058 0)
(0.000556285 -0.0024373 0)
(0.000534534 -0.0024533 0)
(0.000515526 -0.00246804 0)
(0.00129073 -0.00169724 0)
(0.00128379 -0.00180133 0)
(0.00127251 -0.00188714 0)
(0.00125422 -0.0019664 0)
(0.00122898 -0.00202796 0)
(0.00119531 -0.00208158 0)
(0.00115658 -0.00212028 0)
(0.00111124 -0.00215307 0)
(0.00106241 -0.00217617 0)
(0.00101159 -0.00219692 0)
(0.000960895 -0.00221314 0)
(0.000911935 -0.00222981 0)
(0.000866128 -0.00224525 0)
(0.000824014 -0.0022621 0)
(0.000786098 -0.00227874 0)
(0.000751954 -0.00229609 0)
(0.000721477 -0.00231296 0)
(0.000694173 -0.00232943 0)
(0.000669734 -0.00234522 0)
(0.000647901 -0.00235978 0)
(0.0014805 -0.00176904 0)
(0.00146521 -0.00186098 0)
(0.00144423 -0.00192857 0)
(0.00141522 -0.00198677 0)
(0.00138042 -0.00202458 0)
(0.00133866 -0.00205445 0)
(0.00129267 -0.00207106 0)
(0.00124351 -0.00208478 0)
(0.00119302 -0.00209331 0)
(0.00114302 -0.00210335 0)
(0.00109459 -0.00211262 0)
(0.00104887 -0.0021247 0)
(0.00100607 -0.00213718 0)
(0.000966382 -0.00215164 0)
(0.000929614 -0.00216614 0)
(0.000895658 -0.00218126 0)
(0.000864365 -0.00219611 0)
(0.000835716 -0.00221069 0)
(0.000809433 -0.00222504 0)
(0.000785723 -0.00223855 0)
(0.00165337 -0.00182874 0)
(0.00162635 -0.00190099 0)
(0.00159097 -0.00194304 0)
(0.00154907 -0.00197642 0)
(0.00150275 -0.00198981 0)
(0.00145289 -0.00199949 0)
(0.00140267 -0.00200087 0)
(0.00135413 -0.00200436 0)
(0.00130718 -0.00200587 0)
(0.00126277 -0.00201105 0)
(0.00122002 -0.0020161 0)
(0.00117939 -0.00202415 0)
(0.00114066 -0.0020324 0)
(0.00110392 -0.00204257 0)
(0.00106918 -0.00205291 0)
(0.00103655 -0.00206416 0)
(0.00100597 -0.00207559 0)
(0.0009777 -0.00208731 0)
(0.000951294 -0.00209926 0)
(0.00092725 -0.00211082 0)
(0.00180233 -0.00186191 0)
(0.0017617 -0.0019058 0)
(0.00171221 -0.00191848 0)
(0.00165935 -0.00192881 0)
(0.00160511 -0.00192521 0)
(0.00155371 -0.0019256 0)
(0.00150396 -0.00192273 0)
(0.00145801 -0.001924 0)
(0.00141426 -0.00192345 0)
(0.00137335 -0.00192577 0)
(0.00133438 -0.00192699 0)
(0.00129781 -0.00193087 0)
(0.00126302 -0.00193455 0)
(0.00123021 -0.00194011 0)
(0.00119864 -0.00194575 0)
(0.00116884 -0.00195256 0)
(0.00114057 -0.00195992 0)
(0.00111414 -0.00196783 0)
(0.00108892 -0.00197624 0)
(0.00106561 -0.00198447 0)
(0.00192471 -0.00185256 0)
(0.0018717 -0.00186725 0)
(0.00181283 -0.00185896 0)
(0.00175856 -0.00185788 0)
(0.00170398 -0.00184991 0)
(0.0016553 -0.00184915 0)
(0.00160766 -0.00184433 0)
(0.00156318 -0.00184395 0)
(0.00152061 -0.00184114 0)
(0.00148095 -0.00184142 0)
(0.00144375 -0.00184054 0)
(0.00140928 -0.0018418 0)
(0.00137672 -0.00184245 0)
(0.00134621 -0.00184433 0)
(0.00131716 -0.00184611 0)
(0.00129032 -0.00184926 0)
(0.00126471 -0.00185278 0)
(0.00124078 -0.00185684 0)
(0.00121752 -0.00186131 0)
(0.00119587 -0.00186577 0)
(0.0020287 -0.00180652 0)
(0.00196967 -0.00180219 0)
(0.00191015 -0.0017896 0)
(0.00185794 -0.00178583 0)
(0.0018058 -0.00177613 0)
(0.0017581 -0.00177258 0)
(0.00171178 -0.00176514 0)
(0.00166908 -0.00176214 0)
(0.00162816 -0.00175707 0)
(0.00159019 -0.00175507 0)
(0.00155406 -0.00175201 0)
(0.00152055 -0.00175096 0)
(0.0014889 -0.00174946 0)
(0.00145957 -0.00174924 0)
(0.00143211 -0.00174908 0)
(0.00140668 -0.00174964 0)
(0.00138244 -0.00175033 0)
(0.00135986 -0.00175122 0)
(0.00133801 -0.00175249 0)
(0.00131804 -0.00175395 0)
(0.00212633 -0.00174519 0)
(0.00206722 -0.00173415 0)
(0.00200999 -0.00172154 0)
(0.00195816 -0.00171277 0)
(0.00190698 -0.00170117 0)
(0.00186105 -0.00169389 0)
(0.0018161 -0.00168453 0)
(0.00177516 -0.00167861 0)
(0.0017357 -0.00167147 0)
(0.00169944 -0.00166685 0)
(0.00166487 -0.0016617 0)
(0.00163295 -0.00165831 0)
(0.00160262 -0.0016548 0)
(0.00157451 -0.0016524 0)
(0.0015478 -0.00165016 0)
(0.00152318 -0.0016485 0)
(0.00149974 -0.00164719 0)
(0.0014782 -0.00164607 0)
(0.00145747 -0.00164542 0)
(0.00143856 -0.00164466 0)
(0.0022246 -0.00168217 0)
(0.00216599 -0.00166733 0)
(0.00210934 -0.00165147 0)
(0.00205857 -0.00163885 0)
(0.0020091 -0.00162507 0)
(0.00196435 -0.00161454 0)
(0.00192109 -0.00160304 0)
(0.00188159 -0.00159432 0)
(0.00184374 -0.00158505 0)
(0.00180893 -0.00157792 0)
(0.00177581 -0.00157065 0)
(0.00174524 -0.00156485 0)
(0.00171627 -0.00155923 0)
(0.00168951 -0.00155453 0)
(0.00166413 -0.00155025 0)
(0.0016407 -0.00154641 0)
(0.00161829 -0.00154307 0)
(0.00159767 -0.00153978 0)
(0.00157764 -0.00153703 0)
(0.00155948 -0.00153406 0)
(0.00232299 -0.00161753 0)
(0.00226464 -0.00159859 0)
(0.00220942 -0.00157971 0)
(0.00215942 -0.00156371 0)
(0.00211147 -0.00154737 0)
(0.00206804 -0.00153389 0)
(0.00202635 -0.00152014 0)
(0.00198837 -0.00150881 0)
(0.00195205 -0.00149746 0)
(0.0019188 -0.00148796 0)
(0.00188712 -0.00147868 0)
(0.00185803 -0.0014707 0)
(0.00183034 -0.00146315 0)
(0.0018049 -0.00145636 0)
(0.00178065 -0.00145016 0)
(0.00175843 -0.00144427 0)
(0.0017371 -0.00143908 0)
(0.00171769 -0.00143382 0)
(0.00169874 -0.00142931 0)
(0.00168174 -0.00142448 0)
(0.00242031 -0.00155266 0)
(0.00236297 -0.00152994 0)
(0.00230892 -0.00150777 0)
(0.00226017 -0.00148854 0)
(0.00221377 -0.00146967 0)
(0.00217171 -0.00145342 0)
(0.00213166 -0.00143748 0)
(0.00209512 -0.00142373 0)
(0.00206039 -0.00141036 0)
(0.00202857 -0.00139868 0)
(0.00199837 -0.00138751 0)
(0.00197063 -0.0013775 0)
(0.00194431 -0.00136813 0)
(0.00192013 -0.00135944 0)
(0.0018971 -0.00135153 0)
(0.00187601 -0.00134383 0)
(0.00185573 -0.00133702 0)
(0.00183733 -0.00133003 0)
(0.00181928 -0.00132399 0)
(0.00180322 -0.0013175 0)
(0.00251638 -0.00148657 0)
(0.00246046 -0.00146013 0)
(0.00240805 -0.0014348 0)
(0.00236075 -0.00141258 0)
(0.00231603 -0.00139115 0)
(0.00227552 -0.00137237 0)
(0.00223708 -0.00135426 0)
(0.00220214 -0.0013383 0)
(0.00216893 -0.001323 0)
(0.00213867 -0.00130933 0)
(0.00210988 -0.00129639 0)
(0.00208363 -0.00128457 0)
(0.00205859 -0.00127356 0)
(0.00203582 -0.0012632 0)
(0.00201396 -0.00125375 0)
(0.0019942 -0.0012445 0)
(0.00197502 -0.00123628 0)
(0.00195787 -0.00122787 0)
(0.00194091 -0.00122058 0)
(0.00192603 -0.00121277 0)
(0.00261025 -0.00142092 0)
(0.00255625 -0.00139102 0)
(0.00250572 -0.00136267 0)
(0.00246019 -0.00133767 0)
(0.00241729 -0.00131384 0)
(0.00237845 -0.00129274 0)
(0.00234175 -0.00127262 0)
(0.00230837 -0.00125467 0)
(0.0022768 -0.00123761 0)
(0.002248 -0.00122221 0)
(0.00222073 -0.00120768 0)
(0.00219582 -0.00119431 0)
(0.00217217 -0.00118185 0)
(0.00215061 -0.00117007 0)
(0.00213001 -0.00115931 0)
(0.00211136 -0.00114874 0)
(0.00209332 -0.00113934 0)
(0.0020772 -0.00112968 0)
(0.00206126 -0.00112134 0)
(0.00204734 -0.00111237 0)
(0.00270224 -0.00135429 0)
(0.00265063 -0.00132122 0)
(0.00260236 -0.0012901 0)
(0.00255891 -0.00126255 0)
(0.00251802 -0.00123648 0)
(0.00248108 -0.00121327 0)
(0.00244619 -0.00119126 0)
(0.00241458 -0.00117151 0)
(0.00238464 -0.00115281 0)
(0.0023575 -0.00113584 0)
(0.00233167 -0.00111985 0)
(0.00230833 -0.0011051 0)
(0.00228598 -0.00109131 0)
(0.00226591 -0.00107833 0)
(0.00224647 -0.00106635 0)
(0.00222923 -0.00105474 0)
(0.00221228 -0.00104427 0)
(0.00219747 -0.00103369 0)
(0.00218263 -0.00102448 0)
(0.00216992 -0.00101469 0)
(0.00279108 -0.0012886 0)
(0.00274226 -0.0012527 0)
(0.00269653 -0.00121913 0)
(0.00265541 -0.00118933 0)
(0.00261673 -0.00116126 0)
(0.0025818 -0.00113623 0)
(0.00254887 -0.00111256 0)
(0.00251901 -0.00109132 0)
(0.00249083 -0.0010712 0)
(0.0024652 -0.00105299 0)
(0.002441 -0.00103575 0)
(0.00241896 -0.00101997 0)
(0.00239811 -0.00100508 0)
(0.00237914 -0.000991232 0)
(0.00236112 -0.000978295 0)
(0.0023448 -0.000965951 0)
(0.00232917 -0.000954655 0)
(0.00231518 -0.000943457 0)
(0.00230154 -0.000933549 0)
(0.00228959 -0.000923218 0)
(0.00287771 -0.00122229 0)
(0.00283204 -0.00118396 0)
(0.00278916 -0.00114825 0)
(0.00275067 -0.00111648 0)
(0.0027144 -0.00108668 0)
(0.00268172 -0.00106003 0)
(0.00265087 -0.00103491 0)
(0.00262299 -0.00101232 0)
(0.00259663 -0.000990946 0)
(0.00257278 -0.000971593 0)
(0.00255018 -0.000953251 0)
(0.00252978 -0.000936502 0)
(0.00251033 -0.000920614 0)
(0.00249292 -0.000905971 0)
(0.00247615 -0.00089208 0)
(0.00246138 -0.000879181 0)
(0.00244686 -0.000866898 0)
(0.00243426 -0.000855278 0)
(0.00242186 -0.000844525 0)
(0.00241114 -0.00083401 0)
(0.0029605 -0.00115712 0)
(0.00291827 -0.00111679 0)
(0.0028785 -0.00107934 0)
(0.00284281 -0.00104597 0)
(0.00280913 -0.00101473 0)
(0.00277875 -0.00098681 0)
(0.00275012 -0.000960491 0)
(0.00272415 -0.000936895 0)
(0.00269974 -0.0009145 0)
(0.00267747 -0.000894382 0)
(0.00265662 -0.000875135 0)
(0.00263747 -0.000857841 0)
(0.0026197 -0.000841134 0)
(0.00260315 -0.000826153 0)
(0.00258814 -0.000811513 0)
(0.00257371 -0.000798443 0)
(0.00256122 -0.000785339 0)
(0.00254848 -0.000774053 0)
(0.00253854 -0.000762383 0)
(0.00252701 -0.000752514 0)
(0.0030408 -0.0010918 0)
(0.00300225 -0.00104989 0)
(0.0029658 -0.00101106 0)
(0.00293311 -0.000976415 0)
(0.0029022 -0.000944064 0)
(0.00287433 -0.0009151 0)
(0.00284805 -0.000887869 0)
(0.00282421 -0.00086342 0)
(0.00280185 -0.000840269 0)
(0.00278138 -0.000819446 0)
(0.00276238 -0.000799575 0)
(0.00274475 -0.000781683 0)
(0.00272867 -0.000764475 0)
(0.00271341 -0.000748947 0)
(0.00269996 -0.000733943 0)
(0.00268656 -0.000720264 0)
(0.0026756 -0.000707158 0)
(0.00266372 -0.000695061 0)
(0.00265508 -0.000683425 0)
(0.0026442 -0.000672457 0)
(0.00311686 -0.00102756 0)
(0.0030822 -0.000984554 0)
(0.00304924 -0.000944791 0)
(0.00301968 -0.000909256 0)
(0.00299165 -0.000876121 0)
(0.00296634 -0.000846449 0)
(0.00294249 -0.000818557 0)
(0.00292076 -0.000793555 0)
(0.0029005 -0.000769837 0)
(0.00288178 -0.000748597 0)
(0.00286465 -0.000728223 0)
(0.00284847 -0.000710035 0)
(0.00283412 -0.000692362 0)
(0.00282004 -0.000676655 0)
(0.00280823 -0.000661197 0)
(0.00279584 -0.000647479 0)
(0.00278642 -0.000633887 0)
(0.00277531 -0.000621694 0)
(0.00276829 -0.00060975 0)
(0.00275791 -0.000598587 0)
(0.00319008 -0.000963597 0)
(0.00315939 -0.000919928 0)
(0.00313003 -0.000879626 0)
(0.00310371 -0.000843543 0)
(0.00307865 -0.000809985 0)
(0.00305601 -0.000779869 0)
(0.00303467 -0.000751653 0)
(0.00301515 -0.000726288 0)
(0.00299704 -0.000702336 0)
(0.00298017 -0.00068079 0)
(0.00296491 -0.000660267 0)
(0.00295026 -0.000641806 0)
(0.00293757 -0.000624073 0)
(0.00292476 -0.000608098 0)
(0.00291446 -0.000592672 0)
(0.00290309 -0.000578679 0)
(0.0028951 -0.000565212 0)
(0.0028848 -0.000552765 0)
(0.00287908 -0.000541009 0)
(0.00286945 -0.000529673 0)
(0.00325889 -0.000900573 0)
(0.0032323 -0.000856747 0)
(0.00320661 -0.000816348 0)
(0.0031836 -0.000780126 0)
(0.00316157 -0.000746482 0)
(0.00314164 -0.000716258 0)
(0.00312282 -0.000687976 0)
(0.00310554 -0.000662541 0)
(0.00308958 -0.000638546 0)
(0.00307457 -0.000616966 0)
(0.00306117 -0.000596427 0)
(0.00304809 -0.000577966 0)
(0.00303704 -0.000560247 0)
(0.00302555 -0.000544302 0)
(0.00301669 -0.000528934 0)
(0.00300647 -0.000514983 0)
(0.00299974 -0.000501641 0)
(0.00299044 -0.000489208 0)
(0.00298584 -0.0004777 0)
(0.00297709 -0.000466338 0)
(0.00332446 -0.000838144 0)
(0.00330194 -0.000794575 0)
(0.00327993 -0.000754477 0)
(0.00326025 -0.000718459 0)
(0.00324125 -0.000685087 0)
(0.00322405 -0.000655034 0)
(0.00320777 -0.000627014 0)
(0.00319276 -0.000601725 0)
(0.00317893 -0.000577994 0)
(0.00316581 -0.000556538 0)
(0.00315423 -0.00053628 0)
(0.00314274 -0.00051792 0)
(0.00313326 -0.00050051 0)
(0.00312313 -0.000484647 0)
(0.00311564 -0.000469623 0)
(0.00310658 -0.000455746 0)
(0.00310105 -0.000442792 0)
(0.00309279 -0.000430446 0)
(0.00308922 -0.00041937 0)
(0.00308147 -0.00040814 0)
(0.00338558 -0.000776505 0)
(0.00336715 -0.000733692 0)
(0.00334881 -0.000694328 0)
(0.00333245 -0.000658917 0)
(0.00331647 -0.000626155 0)
(0.00330201 -0.000596608 0)
(0.00328823 -0.000569112 0)
(0.00327548 -0.000544255 0)
(0.00326375 -0.000520994 0)
(0.00325254 -0.000499917 0)
(0.00324274 -0.000480095 0)
(0.00323286 -0.000462071 0)
(0.00322489 -0.000445086 0)
(0.00321615 -0.000429521 0)
(0.00320994 -0.00041493 0)
(0.00320211 -0.000401314 0)
(0.00319765 -0.000388816 0)
(0.00319051 -0.000376696 0)
(0.00318782 -0.000366106 0)
(0.00318113 -0.000355075 0)
(0.00344309 -0.000715609 0)
(0.00342864 -0.000673951 0)
(0.00341389 -0.000635697 0)
(0.00340078 -0.000601229 0)
(0.00338775 -0.000569409 0)
(0.00337598 -0.000540645 0)
(0.00336465 -0.000513966 0)
(0.00335414 -0.00048977 0)
(0.00334446 -0.000467236 0)
(0.00333513 -0.00044672 0)
(0.00332705 -0.000427564 0)
(0.00331878 -0.000410024 0)
(0.00331225 -0.000393663 0)
(0.00330491 -0.000378521 0)
(0.00329992 -0.00036453 0)
(0.00329334 -0.000351292 0)
(0.00328989 -0.000339379 0)
(0.0032839 -0.000327611 0)
(0.00328203 -0.000317598 0)
(0.00327645 -0.000306909 0)
(0.00349616 -0.000655385 0)
(0.00348559 -0.000615344 0)
(0.00347433 -0.000578603 0)
(0.0034644 -0.000545459 0)
(0.00345424 -0.000514899 0)
(0.0034451 -0.000487235 0)
(0.00343613 -0.000461628 0)
(0.00342782 -0.000438359 0)
(0.00342011 -0.000416755 0)
(0.00341263 -0.00039703 0)
(0.00340619 -0.0003787 0)
(0.0033995 -0.000361839 0)
(0.00339435 -0.000346231 0)
(0.00338838 -0.000331675 0)
(0.00338454 -0.000318387 0)
(0.00337918 -0.000305657 0)
(0.00337667 -0.000294409 0)
(0.00337182 -0.000283085 0)
(0.00337068 -0.000273699 0)
(0.0033662 -0.000263411 0)
(0.00354531 -0.000595925 0)
(0.00353844 -0.000557872 0)
(0.00353051 -0.000522991 0)
(0.00352363 -0.000491481 0)
(0.00351621 -0.000462483 0)
(0.00350958 -0.00043618 0)
(0.00350289 -0.000411903 0)
(0.00349669 -0.00038978 0)
(0.00349086 -0.000369324 0)
(0.00348517 -0.000350575 0)
(0.00348029 -0.000333251 0)
(0.00347515 -0.000317233 0)
(0.0034713 -0.000302518 0)
(0.00346668 -0.0002887 0)
(0.0034639 -0.00027621 0)
(0.00345978 -0.000264139 0)
(0.00345812 -0.000253614 0)
(0.0034544 -0.000242885 0)
(0.00345393 -0.000234164 0)
(0.00345054 -0.000224418 0)
(0.00359001 -0.00053703 0)
(0.00358665 -0.000501375 0)
(0.00358188 -0.000468711 0)
(0.00357789 -0.000439178 0)
(0.00357306 -0.000412026 0)
(0.00356884 -0.00038737 0)
(0.00356429 -0.000364649 0)
(0.00356009 -0.000343912 0)
(0.00355604 -0.000324786 0)
(0.00355204 -0.000307214 0)
(0.00354865 -0.000291043 0)
(0.00354496 -0.000276031 0)
(0.00354234 -0.000262333 0)
(0.00353899 -0.000249379 0)
(0.00353723 -0.000237802 0)
(0.00353423 -0.000226473 0)
(0.00353341 -0.000216782 0)
(0.00353074 -0.00020669 0)
(0.0035309 -0.000198725 0)
(0.00352854 -0.000189539 0)
(0.00363057 -0.000478838 0)
(0.00363047 -0.00044591 0)
(0.00362863 -0.000415772 0)
(0.00362733 -0.00038849 0)
(0.00362492 -0.00036345 0)
(0.00362293 -0.000340671 0)
(0.00362037 -0.000319733 0)
(0.00361805 -0.000300576 0)
(0.00361565 -0.00028297 0)
(0.00361326 -0.000266742 0)
(0.00361123 -0.000251876 0)
(0.00360892 -0.000238022 0)
(0.00360742 -0.000225445 0)
(0.00360531 -0.00021351 0)
(0.00360445 -0.000202888 0)
(0.00360259 -0.00019248 0)
(0.00360244 -0.000183585 0)
(0.00360085 -0.000174342 0)
(0.00360151 -0.000167049 0)
(0.00360013 -0.000158593 0)
(0.00366665 -0.000421107 0)
(0.00366955 -0.000391254 0)
(0.0036704 -0.000363941 0)
(0.00367158 -0.000339202 0)
(0.00367137 -0.000316513 0)
(0.00367144 -0.000295856 0)
(0.00367071 -0.000276891 0)
(0.00367013 -0.000259518 0)
(0.00366924 -0.000243582 0)
(0.00366831 -0.000228866 0)
(0.00366754 -0.000215424 0)
(0.00366649 -0.000202862 0)
(0.00366604 -0.000191511 0)
(0.00366501 -0.000180687 0)
(0.00366504 -0.000171137 0)
(0.00366412 -0.000161686 0)
(0.00366475 -0.000153769 0)
(0.00366398 -0.000145331 0)
(0.0036653 -0.000139035 0)
(0.00366473 -0.000131196 0)
(0.00369841 -0.000363966 0)
(0.00370399 -0.000337464 0)
(0.00370727 -0.000313237 0)
(0.00371066 -0.000291271 0)
(0.00371244 -0.000271153 0)
(0.00371436 -0.000252809 0)
(0.00371527 -0.000236006 0)
(0.00371623 -0.000220577 0)
(0.00371671 -0.000206473 0)
(0.0037171 -0.000193405 0)
(0.00371746 -0.000181526 0)
(0.00371754 -0.000170375 0)
(0.00371803 -0.000160355 0)
(0.00371798 -0.000150767 0)
(0.00371878 -0.000142325 0)
(0.00371874 -0.000134021 0)
(0.00371997 -0.000126927 0)
(0.00372008 -0.000119714 0)
(0.0037218 -0.000113752 0)
(0.00372227 -0.00010666 0)
(0.00372565 -0.000307179 0)
(0.0037336 -0.000284304 0)
(0.00373899 -0.000263399 0)
(0.00374434 -0.000244436 0)
(0.00374786 -0.000227083 0)
(0.00375141 -0.000211243 0)
(0.00375375 -0.000196757 0)
(0.00375611 -0.00018343 0)
(0.00375774 -0.000171284 0)
(0.00375934 -0.000159987 0)
(0.00376062 -0.000149776 0)
(0.00376178 -0.00014012 0)
(0.00376298 -0.000131538 0)
(0.00376394 -0.0001232 0)
(0.00376524 -0.000116014 0)
(0.00376618 -0.000108727 0)
(0.00376771 -0.000102743 0)
(0.00376877 -9.63046e-05 0)
(0.00377063 -9.13063e-05 0)
(0.00377189 -8.56298e-05 0)
(0.00374847 -0.000250846 0)
(0.00375841 -0.000231812 0)
(0.0037656 -0.000214424 0)
(0.0037726 -0.000198646 0)
(0.00377761 -0.000184214 0)
(0.00378254 -0.000171038 0)
(0.00378611 -0.000158992 0)
(0.00378962 -0.000147914 0)
(0.00379229 -0.000137812 0)
(0.00379486 -0.000128434 0)
(0.00379701 -0.000119935 0)
(0.00379901 -0.00011194 0)
(0.00380094 -0.000104784 0)
(0.00380263 -9.79096e-05 0)
(0.00380454 -9.19029e-05 0)
(0.00380612 -8.59215e-05 0)
(0.00380817 -8.09325e-05 0)
(0.00380979 -7.56204e-05 0)
(0.00381208 -7.15923e-05 0)
(0.00381382 -6.6681e-05 0)
(0.00376672 -0.000194746 0)
(0.00377829 -0.000179748 0)
(0.00378694 -0.000166051 0)
(0.00379529 -0.000153615 0)
(0.00380149 -0.000142252 0)
(0.00380756 -0.000131862 0)
(0.00381211 -0.000122383 0)
(0.00381658 -0.000113641 0)
(0.00382005 -0.0001057 0)
(0.00382345 -9.82902e-05 0)
(0.00382625 -9.16212e-05 0)
(0.00382897 -8.52915e-05 0)
(0.00383143 -7.96907e-05 0)
(0.00383375 -7.42338e-05 0)
(0.00383609 -6.95471e-05 0)
(0.00383824 -6.47902e-05 0)
(0.00384063 -6.09054e-05 0)
(0.00384278 -5.67003e-05 0)
(0.00384534 -5.35478e-05 0)
(0.00384762 -4.9757e-05 0)
(0.00378046 -0.000138962 0)
(0.00379327 -0.00012814 0)
(0.00380303 -0.000118258 0)
(0.0038124 -0.000109289 0)
(0.00381952 -0.000101089 0)
(0.00382644 -9.36008e-05 0)
(0.00383174 -8.67587e-05 0)
(0.00383694 -8.04641e-05 0)
(0.00384103 -7.47293e-05 0)
(0.00384505 -6.94026e-05 0)
(0.00384838 -6.45825e-05 0)
(0.00385162 -6.00413e-05 0)
(0.00385451 -5.59901e-05 0)
(0.0038573 -5.20817e-05 0)
(0.00386 -4.86936e-05 0)
(0.00386257 -4.52839e-05 0)
(0.00386524 -4.24895e-05 0)
(0.00386777 -3.9454e-05 0)
(0.00387054 -3.72158e-05 0)
(0.00387319 -3.44415e-05 0)
(0.00378961 -8.32785e-05 0)
(0.00380325 -7.67444e-05 0)
(0.00381375 -7.07809e-05 0)
(0.00382382 -6.53614e-05 0)
(0.00383154 -6.04152e-05 0)
(0.00383904 -5.58864e-05 0)
(0.00384485 -5.1762e-05 0)
(0.00385053 -4.79506e-05 0)
(0.00385504 -4.44973e-05 0)
(0.00385947 -4.12666e-05 0)
(0.00386314 -3.83682e-05 0)
(0.00386675 -3.56089e-05 0)
(0.00386992 -3.31767e-05 0)
(0.00387302 -3.0799e-05 0)
(0.00387595 -2.87668e-05 0)
(0.0038788 -2.66948e-05 0)
(0.00388166 -2.50161e-05 0)
(0.00388446 -2.3182e-05 0)
(0.00388736 -2.18285e-05 0)
(0.00389028 -2.01692e-05 0)
(0.0037942 -2.77724e-05 0)
(0.00380826 -2.55859e-05 0)
(0.00381914 -2.35885e-05 0)
(0.00382955 -2.17783e-05 0)
(0.00383758 -2.01204e-05 0)
(0.00384537 -1.8611e-05 0)
(0.00385143 -1.7227e-05 0)
(0.00385736 -1.59604e-05 0)
(0.00386208 -1.47996e-05 0)
(0.00386671 -1.37297e-05 0)
(0.00387056 -1.27536e-05 0)
(0.00387435 -1.18427e-05 0)
(0.00387767 -1.10225e-05 0)
(0.00388093 -1.02384e-05 0)
(0.00388397 -9.55399e-06 0)
(0.00388697 -8.86808e-06 0)
(0.00388991 -8.30654e-06 0)
(0.00389285 -7.69279e-06 0)
(0.00389582 -7.24674e-06 0)
(0.00389887 -6.68311e-06 0)
(0.0039043 -5.9468e-06 0)
(0.00389599 -1.78841e-05 0)
(0.0038795 -3.0651e-05 0)
(0.00385473 -4.42891e-05 0)
(0.00382214 -5.96502e-05 0)
(0.00378137 -7.66758e-05 0)
(0.00373345 -9.61927e-05 0)
(0.00367814 -0.000118057 0)
(0.00361549 -0.000143302 0)
(0.00354614 -0.000171647 0)
(0.00347055 -0.000203829 0)
(0.00338871 -0.000239884 0)
(0.00330158 -0.000280241 0)
(0.00320884 -0.000325041 0)
(0.00311176 -0.000374545 0)
(0.00300978 -0.000429001 0)
(0.00290439 -0.000488474 0)
(0.00279476 -0.000553485 0)
(0.0026822 -0.000624001 0)
(0.00256668 -0.000699954 0)
(0.00391311 -4.70187e-06 0)
(0.00390525 -1.42766e-05 0)
(0.00388959 -2.44687e-05 0)
(0.00386617 -3.5657e-05 0)
(0.00383519 -4.82034e-05 0)
(0.0037967 -6.25848e-05 0)
(0.00375109 -7.90731e-05 0)
(0.00369807 -9.81342e-05 0)
(0.00363876 -0.000119913 0)
(0.00357262 -0.000144974 0)
(0.00350071 -0.000173462 0)
(0.00342266 -0.000205653 0)
(0.00333964 -0.000241937 0)
(0.00325113 -0.000282238 0)
(0.00315867 -0.000327118 0)
(0.00306138 -0.000376094 0)
(0.00296142 -0.000430062 0)
(0.00285734 -0.000487649 0)
(0.00275194 -0.000551244 0)
(0.00264319 -0.000617206 0)
(0.00392252 -3.98551e-06 0)
(0.00391518 -1.19565e-05 0)
(0.00390065 -2.06231e-05 0)
(0.00387879 -2.9978e-05 0)
(0.00385003 -4.07081e-05 0)
(0.00381409 -5.27923e-05 0)
(0.00377169 -6.68991e-05 0)
(0.00372258 -8.29654e-05 0)
(0.00366714 -0.000101828 0)
(0.00360555 -0.000123107 0)
(0.00353836 -0.000147827 0)
(0.00346537 -0.000175486 0)
(0.00338762 -0.000207172 0)
(0.00330443 -0.000242235 0)
(0.00321735 -0.000282019 0)
(0.00312519 -0.000325342 0)
(0.00302991 -0.000374344 0)
(0.00293008 -0.000426338 0)
(0.00282774 -0.000485286 0)
(0.00272217 -0.000545464 0)
(0.00393357 -3.2838e-06 0)
(0.00392663 -9.9255e-06 0)
(0.00391281 -1.71371e-05 0)
(0.00389211 -2.50549e-05 0)
(0.00386475 -3.41945e-05 0)
(0.00383065 -4.46266e-05 0)
(0.00379028 -5.69519e-05 0)
(0.00374337 -7.10517e-05 0)
(0.00369079 -8.7646e-05 0)
(0.00363199 -0.000106552 0)
(0.00356812 -0.000128512 0)
(0.00349852 -0.000153103 0)
(0.00342456 -0.000181381 0)
(0.00334539 -0.000212345 0)
(0.00326275 -0.000247755 0)
(0.00317546 -0.000285581 0)
(0.0030856 -0.000328958 0)
(0.00299168 -0.000374102 0)
(0.00289581 -0.000426486 0)
(0.00279633 -0.000479577 0)
(0.00394547 -2.80225e-06 0)
(0.00393899 -8.34523e-06 0)
(0.00392614 -1.45039e-05 0)
(0.00390682 -2.11395e-05 0)
(0.00388138 -2.89534e-05 0)
(0.00384959 -3.77511e-05 0)
(0.00381199 -4.83098e-05 0)
(0.00376835 -6.0307e-05 0)
(0.00371921 -7.47009e-05 0)
(0.00366439 -9.0874e-05 0)
(0.00360459 -0.000110129 0)
(0.00353941 -0.000131422 0)
(0.00346991 -0.000156541 0)
(0.0033953 -0.000183781 0)
(0.00331704 -0.000215735 0)
(0.00323403 -0.000249501 0)
(0.00314803 -0.000289103 0)
(0.0030579 -0.00032959 0)
(0.00296542 -0.000377351 0)
(0.00286981 -0.000424558 0)
(0.00395901 -2.45857e-06 0)
(0.00395285 -7.32581e-06 0)
(0.00394061 -1.27555e-05 0)
(0.00392224 -1.86099e-05 0)
(0.00389799 -2.55682e-05 0)
(0.00386772 -3.33655e-05 0)
(0.0038319 -4.28312e-05 0)
(0.00379025 -5.34704e-05 0)
(0.00374351 -6.63398e-05 0)
(0.00369121 -8.06707e-05 0)
(0.00363437 -9.78101e-05 0)
(0.00357233 -0.000116528 0)
(0.00350637 -0.000138766 0)
(0.00343565 -0.000162445 0)
(0.00336166 -0.000190615 0)
(0.0032834 -0.000219787 0)
(0.00320239 -0.00025478 0)
(0.00311764 -0.000290014 0)
(0.00303047 -0.000332644 0)
(0.00294 -0.000374437 0)
(0.00397381 -2.14166e-06 0)
(0.00396805 -6.28776e-06 0)
(0.00395664 -1.10151e-05 0)
(0.00393948 -1.60171e-05 0)
(0.00391685 -2.20752e-05 0)
(0.00388859 -2.87768e-05 0)
(0.00385512 -3.70499e-05 0)
(0.00381623 -4.62723e-05 0)
(0.00377243 -5.76388e-05 0)
(0.00372348 -7.01511e-05 0)
(0.00367003 -8.54722e-05 0)
(0.00361172 -0.000101985 0)
(0.00354938 -0.00012208 0)
(0.00348249 -0.000143186 0)
(0.00341208 -0.000168784 0)
(0.00333757 -0.000194906 0)
(0.00326002 -0.000226593 0)
(0.003179 -0.000258028 0)
(0.00309543 -0.000296306 0)
(0.00300905 -0.000333363 0)
(0.00398993 -2.01724e-06 0)
(0.00398445 -5.89404e-06 0)
(0.00397355 -1.03302e-05 0)
(0.00395719 -1.49613e-05 0)
(0.00393559 -2.05939e-05 0)
(0.00390863 -2.67095e-05 0)
(0.0038767 -3.43057e-05 0)
(0.0038396 -4.25943e-05 0)
(0.0037979 -5.28823e-05 0)
(0.00375127 -6.39819e-05 0)
(0.00370049 -7.76695e-05 0)
(0.00364511 -9.21415e-05 0)
(0.00358605 -0.000109937 0)
(0.00352279 -0.000128291 0)
(0.00345628 -0.000150921 0)
(0.00338603 -0.000173645 0)
(0.00331284 -0.000201828 0)
(0.00323642 -0.00022937 0)
(0.00315731 -0.000263696 0)
(0.00307548 -0.000296425 0)
(0.00400774 -1.83329e-06 0)
(0.0040026 -5.2928e-06 0)
(0.0039924 -9.31547e-06 0)
(0.00397708 -1.3443e-05 0)
(0.00395684 -1.85334e-05 0)
(0.00393158 -2.39871e-05 0)
(0.00390161 -3.08543e-05 0)
(0.00386681 -3.8269e-05 0)
(0.00382756 -4.76126e-05 0)
(0.00378371 -5.75766e-05 0)
(0.00373572 -7.00753e-05 0)
(0.00368345 -8.31107e-05 0)
(0.00362737 -9.93932e-05 0)
(0.00356739 -0.000115932 0)
(0.00350394 -0.000136546 0)
(0.00343711 -0.000156944 0)
(0.0033671 -0.000182346 0)
(0.00329434 -0.000206963 0)
(0.0032187 -0.000237528 0)
(0.00314079 -0.000266829 0)
(0.00402651 -1.83604e-06 0)
(0.0040216 -5.27446e-06 0)
(0.00401185 -9.26028e-06 0)
(0.00399722 -1.32733e-05 0)
(0.00397788 -1.81941e-05 0)
(0.00395378 -2.33391e-05 0)
(0.00392518 -2.97998e-05 0)
(0.00389201 -3.66048e-05 0)
(0.00385462 -4.51909e-05 0)
(0.00381291 -5.41494e-05 0)
(0.00376732 -6.54353e-05 0)
(0.00371775 -7.7006e-05 0)
(0.0036646 -9.15617e-05 0)
(0.00360789 -0.000106183 0)
(0.00354786 -0.00012456 0)
(0.00348474 -0.000142658 0)
(0.00341849 -0.000165334 0)
(0.00334965 -0.000187311 0)
(0.0032779 -0.000214637 0)
(0.00320402 -0.000240838 0)
(0.00404726 -1.76131e-06 0)
(0.00404265 -5.02751e-06 0)
(0.00403347 -8.83485e-06 0)
(0.00401972 -1.26213e-05 0)
(0.00400151 -1.72812e-05 0)
(0.00397884 -2.2098e-05 0)
(0.00395186 -2.81716e-05 0)
(0.0039206 -3.45055e-05 0)
(0.00388524 -4.25387e-05 0)
(0.00384585 -5.08363e-05 0)
(0.00380259 -6.1345e-05 0)
(0.00375562 -7.20007e-05 0)
(0.00370503 -8.54511e-05 0)
(0.00365115 -9.88087e-05 0)
(0.00359388 -0.000115605 0)
(0.00353383 -0.000131986 0)
(0.00347059 -0.000152478 0)
(0.0034051 -0.000172215 0)
(0.00333663 -0.000196724 0)
(0.00326639 -0.000220148 0)
(0.0040687 -1.83589e-06 0)
(0.0040643 -5.23268e-06 0)
(0.00405552 -9.15041e-06 0)
(0.00404239 -1.2988e-05 0)
(0.00402499 -1.76396e-05 0)
(0.00400335 -2.23474e-05 0)
(0.0039776 -2.82106e-05 0)
(0.00394781 -3.41993e-05 0)
(0.00391413 -4.17395e-05 0)
(0.00387668 -4.93991e-05 0)
(0.00383556 -5.90692e-05 0)
(0.00379102 -6.87714e-05 0)
(0.00374302 -8.10052e-05 0)
(0.003692 -9.31071e-05 0)
(0.00363771 -0.000108299 0)
(0.00358085 -0.000123137 0)
(0.00352086 -0.000141616 0)
(0.00345879 -0.00015949 0)
(0.00339375 -0.000181528 0)
(0.00332713 -0.000202678 0)
(0.00409225 -1.84636e-06 0)
(0.0040881 -5.2597e-06 0)
(0.0040798 -9.17916e-06 0)
(0.00406741 -1.29986e-05 0)
(0.00405094 -1.75953e-05 0)
(0.00403049 -2.22169e-05 0)
(0.0040061 -2.79311e-05 0)
(0.00397791 -3.37301e-05 0)
(0.00394594 -4.0982e-05 0)
(0.00391043 -4.83019e-05 0)
(0.00387131 -5.74796e-05 0)
(0.00382899 -6.66283e-05 0)
(0.00378325 -7.80777e-05 0)
(0.00373471 -8.93344e-05 0)
(0.00368292 -0.000103359 0)
(0.00362881 -0.000116987 0)
(0.0035716 -0.00013386 0)
(0.00351257 -0.000150109 0)
(0.00345055 -0.000170093 0)