/*--------------------------------*- C++ -*----------------------------------*\
| =========                 |                                                 |
| \\      /  F ield         | OpenFOAM: The Open Source CFD Toolbox           |
|  \\    /   O peration     | Version:  v2012                                 |
|   \\  /    A nd           | Website:  www.openfoam.com                      |
|    \\/     M anipulation  |                                                 |
\*---------------------------------------------------------------------------*/
FoamFile
{
    version     2.0;
    format      ascii;
    class       volScalarField;
    location    "11";
    object      epsilonEq;
}
// * * * * * * * * * * * * * * * * * * * * * * * * * * * * * * * * * * * * * //

dimensions      [0 0 0 0 0 0 0];


internalField   nonuniform List<scalar> 
4000
(
0.0137458
0.0133157
0.0127612
0.0121599
0.0115068
0.010833
0.0101359
0.00943899
0.00872781
0.00801999
0.00730809
0.00661095
0.00592657
0.00528253
0.00468116
0.00414417
0.00367432
0.00328246
0.00296644
0.0027398
0.0134003
0.0129744
0.0124568
0.0119019
0.0112956
0.0106515
0.00996882
0.00926321
0.00852797
0.00779312
0.00705206
0.00633969
0.00565764
0.0050333
0.00446829
0.00398283
0.00357136
0.00324415
0.0029889
0.00279979
0.0128163
0.0123794
0.0119013
0.0113974
0.0108338
0.0102167
0.00953176
0.00880177
0.00803137
0.00726673
0.0065116
0.00581585
0.0051773
0.00462957
0.00416223
0.00379051
0.00349546
0.00327484
0.00310285
0.0029641
0.0121427
0.011649
0.0111549
0.0106366
0.0100453
0.0094031
0.00867757
0.00791818
0.00713824
0.00639674
0.00570869
0.00511777
0.00461997
0.00423518
0.00393909
0.00373055
0.00357105
0.0034501
0.00333277
0.00321264
0.0114669
0.0108569
0.0102325
0.00958693
0.00884778
0.00808952
0.0073123
0.00657554
0.00587422
0.00528867
0.00479694
0.00443714
0.00417709
0.00401378
0.0039049
0.00383239
0.00375501
0.00367657
0.00356687
0.00345081
0.0107573
0.00995448
0.00905042
0.00814621
0.00730328
0.00635934
0.0055826
0.00498285
0.00451135
0.00421663
0.00403111
0.00396291
0.00394025
0.00395333
0.00394769
0.00392718
0.00386985
0.0037991
0.003701
0.00360442
0.00983765
0.00876867
0.00751898
0.00638102
0.00532365
0.00451166
0.00389133
0.00357335
0.00343092
0.00345276
0.0035328
0.0036512
0.00374426
0.00381578
0.00383866
0.00384162
0.00381316
0.00377993
0.00372858
0.00367606
0.00841532
0.00710108
0.00566695
0.00454616
0.00362635
0.00311984
0.00283702
0.00280084
0.00285736
0.0029908
0.00311837
0.00325358
0.00335626
0.00344905
0.00350679
0.00355762
0.00358722
0.00361087
0.00361228
0.00359956
0.00638832
0.0050137
0.0037882
0.00311543
0.00266649
0.00260054
0.0025778
0.00261771
0.00264352
0.00269321
0.00275323
0.00284359
0.00292201
0.00300876
0.00307688
0.00315959
0.00322363
0.00327936
0.00331174
0.00332555
0.00432394
0.00327549
0.00266121
0.00254416
0.0024907
0.00252946
0.00252027
0.002547
0.00254736
0.00258225
0.00260348
0.00264286
0.00266758
0.0027085
0.00276398
0.00283414
0.00288395
0.00293071
0.00296398
0.0029927
0.00299439
0.00251965
0.00244743
0.0024274
0.00240611
0.00241447
0.00240123
0.00244501
0.00246042
0.00250839
0.00252749
0.00256479
0.00258538
0.00262343
0.00265075
0.00267828
0.002695
0.00271749
0.0027457
0.00277185
0.00251087
0.0023612
0.00234349
0.00227628
0.00226771
0.00228375
0.00229772
0.00234032
0.00236676
0.00241735
0.0024513
0.00249868
0.00252917
0.00256705
0.00259046
0.00261865
0.00263734
0.0026594
0.00267485
0.0026841
0.00233042
0.00221373
0.00216571
0.00213242
0.00214775
0.00216626
0.0021979
0.00224372
0.00228222
0.00233486
0.00237305
0.00242252
0.00245789
0.00250133
0.00253193
0.00256374
0.00258451
0.00260419
0.00261753
0.00262567
0.00212616
0.00203055
0.0020053
0.00199023
0.00201608
0.00205105
0.00209488
0.00214969
0.00219741
0.00225506
0.00230005
0.00235191
0.00238999
0.00243256
0.00246262
0.00249535
0.00251787
0.0025403
0.0025559
0.0025657
0.00190055
0.00183948
0.00182875
0.00184551
0.00188886
0.00194134
0.00199891
0.00206279
0.00211937
0.00218157
0.00223138
0.00228592
0.00232692
0.00237133
0.00240282
0.00243572
0.00245789
0.00247918
0.00249407
0.00250397
0.00165953
0.00162871
0.00164815
0.00169246
0.00175615
0.00182739
0.00189837
0.00197264
0.00203767
0.0021048
0.00215976
0.00221605
0.00225998
0.00230473
0.00233806
0.00237171
0.00239555
0.0024186
0.00243475
0.00244676
0.00141158
0.00141648
0.00146719
0.00154323
0.00162912
0.00171995
0.00180472
0.00188955
0.00196257
0.00203509
0.00209427
0.00215332
0.00219914
0.00224528
0.00227907
0.00231321
0.00233686
0.00235984
0.00237583
0.00238762
0.00115568
0.00119771
0.00128404
0.00139062
0.00149949
0.00160819
0.00170632
0.00180015
0.00188109
0.00195717
0.00202152
0.00208088
0.00213074
0.00217546
0.00221289
0.00224539
0.00227145
0.00229487
0.00231215
0.00232622
0.00090474
0.000987478
0.00111196
0.00124916
0.00138053
0.00150571
0.00161628
0.00171844
0.00180645
0.00188666
0.00195503
0.00201662
0.00206864
0.00211499
0.00215355
0.00218743
0.00221532
0.00223853
0.00225849
0.00226873
0.000652371
0.000783401
0.000948354
0.00111457
0.00126585
0.00140465
0.00152537
0.00163363
0.0017275
0.00180957
0.00188224
0.00194262
0.00199949
0.00204147
0.00208835
0.00211341
0.00214984
0.00216531
0.00220119
0.0022038
0.000415783
0.000604795
0.000808829
0.000998494
0.00116508
0.00131317
0.00144133
0.00155326
0.00165138
0.00173441
0.00180976
0.00186984
0.00192803
0.00196998
0.00201523
0.00204585
0.00207917
0.0020968
0.00212758
0.00214461
0.000207699
0.00046859
0.000700974
0.000905435
0.00108002
0.00123364
0.00136511
0.00148003
0.00157961
0.00166515
0.00174069
0.00180409
0.00186066
0.00190802
0.00194777
0.00198522
0.00201455
0.00204132
0.00205492
0.00208323
0.000180669
0.000413679
0.000637674
0.000838746
0.00101041
0.00116231
0.00129192
0.00140561
0.0015036
0.00158823
0.00166219
0.00172499
0.00178011
0.001827
0.00186645
0.0019024
0.00192763
0.00195776
0.00196733
0.00199947
0.000359723
0.000462359
0.000631682
0.000808765
0.000965546
0.0011096
0.00123209
0.00134269
0.0014358
0.00151969
0.00158917
0.00165285
0.00170298
0.00175209
0.00178572
0.00182507
0.00184444
0.00187754
0.00188234
0.00191817
0.000564219
0.000577349
0.000673708
0.000808894
0.00093916
0.0010673
0.00117765
0.00128079
0.00136699
0.00144707
0.00151197
0.00157387
0.00162059
0.0016693
0.00169994
0.00174015
0.00175576
0.00179175
0.00179286
0.00183101
0.000767129
0.000723377
0.000755251
0.000842006
0.000937974
0.0010442
0.00113749
0.00123019
0.00130639
0.00138132
0.00143941
0.00149901
0.00154058
0.00158873
0.00161545
0.00165615
0.00166922
0.00170613
0.00170652
0.00174468
0.000960691
0.000876337
0.000856129
0.000895366
0.000953503
0.00103271
0.00110531
0.00118379
0.00124822
0.00131541
0.00136622
0.00142161
0.00145834
0.0015044
0.00152769
0.00156767
0.00157823
0.00161526
0.00161413
0.00165143
0.00114389
0.0010288
0.000968194
0.000965603
0.000986701
0.00103669
0.00108597
0.00114753
0.00119795
0.00125545
0.00129755
0.00134732
0.00137849
0.00142129
0.00144114
0.00147924
0.00148803
0.0015239
0.00152239
0.00155769
0.00131561
0.00117524
0.00108183
0.00104309
0.00102973
0.00104988
0.00107454
0.00111683
0.0011517
0.00119747
0.00122983
0.00127247
0.00129745
0.00133587
0.0013518
0.00138708
0.0013936
0.00142733
0.00142499
0.00145728
0.00147466
0.00131345
0.00119371
0.0011247
0.00108102
0.00107277
0.00107294
0.00109469
0.00111295
0.00114518
0.00116698
0.00120075
0.00121926
0.00125167
0.00126386
0.00129494
0.0012995
0.00133032
0.00132715
0.00135675
0.00162135
0.00144206
0.00130013
0.00120538
0.00113511
0.00110052
0.00107698
0.00107772
0.00107849
0.001096
0.00110597
0.0011299
0.00114069
0.00116656
0.00117389
0.00120047
0.00120224
0.00122941
0.0012252
0.00124959
0.00175419
0.0015596
0.00139936
0.00128313
0.0011903
0.00113227
0.00108695
0.00106717
0.00105061
0.00105247
0.00105031
0.00106281
0.00106598
0.00108318
0.00108644
0.00110591
0.00110591
0.00112756
0.00112094
0.00114426
0.00187391
0.00166589
0.00149009
0.00135558
0.00124352
0.00116478
0.00109974
0.00106044
0.00102682
0.00101273
0.000997545
0.00099807
0.000992029
0.00100062
0.000997792
0.00101132
0.00100787
0.00102609
0.0010188
0.00103309
0.00197903
0.00175976
0.00157097
0.00142139
0.00129317
0.00119693
0.00111444
0.0010577
0.00100775
0.000978593
0.000949773
0.000938657
0.000922131
0.000922207
0.000912206
0.000918724
0.000912844
0.000921648
0.000917198
0.000923188
0.00207027
0.00184121
0.00164175
0.00147936
0.00133809
0.00122664
0.00112985
0.0010569
0.000993184
0.000948502
0.000908054
0.000883282
0.000857956
0.000846723
0.000830254
0.000827944
0.000816137
0.000818872
0.000810118
0.000816726
0.00214646
0.00190959
0.00170132
0.0015289
0.00137683
0.00125339
0.00114439
0.00105825
0.000982044
0.000924004
0.00087223
0.000834806
0.000800563
0.000777767
0.000755383
0.000742837
0.000727366
0.000722703
0.000708613
0.000710243
0.00220796
0.00196469
0.0017496
0.00156905
0.00140869
0.0012755
0.00115695
0.00105985
0.00097333
0.000903849
0.000841712
0.000793282
0.000749375
0.000716803
0.000686167
0.000665326
0.000644117
0.000631778
0.000617233
0.00060962
0.00225417
0.00200627
0.00178604
0.0015997
0.00143314
0.00129296
0.00116724
0.00106203
0.000967662
0.000889175
0.000819013
0.000761029
0.000709567
0.000667356
0.000630205
0.000600182
0.000573779
0.000553237
0.000534916
0.000520522
0.00228512
0.00203405
0.00181047
0.00162019
0.00144957
0.00130467
0.00117417
0.0010635
0.000963677
0.000879088
0.000802974
0.000738407
0.000680843
0.000631718
0.000588902
0.000551659
0.000520827
0.000492598
0.000471771
0.000449799
0.00230061
0.002048
0.00182273
0.00163056
0.00145791
0.00131071
0.00117784
0.00106445
0.000961952
0.00087419
0.000795148
0.000726958
0.000666332
0.000613169
0.000567336
0.000525716
0.00049216
0.000459334
0.000436386
0.000410067
0.000386353
0.000429329
0.000503884
0.000597143
0.000702675
0.000809535
0.0009208
0.00102942
0.00114197
0.00124612
0.0013517
0.00145109
0.00154965
0.00164051
0.00173188
0.00181283
0.00189932
0.00197506
0.00206108
0.00214947
0.000351925
0.000396111
0.00047222
0.000565941
0.000669471
0.000777663
0.000888809
0.000997186
0.00110556
0.0012118
0.00131648
0.00141581
0.00151552
0.00160608
0.00169901
0.00177764
0.00185963
0.00192383
0.00199335
0.00205312
0.000343535
0.000387023
0.000462484
0.000553913
0.000656631
0.000760637
0.000867209
0.000974411
0.00108145
0.00118183
0.00128441
0.00137859
0.00147547
0.00156371
0.00165593
0.00174077
0.00182801
0.00191062
0.00198319
0.00204794
0.000342087
0.000383474
0.000454896
0.000543456
0.000641799
0.000744232
0.000849435
0.000952306
0.00105676
0.0011571
0.0012569
0.00135086
0.00144393
0.00152889
0.00161262
0.00168819
0.00176202
0.00183355
0.0019046
0.00197582
0.000348306
0.000386358
0.000453465
0.000536323
0.000629836
0.000726507
0.00082611
0.000925604
0.00102526
0.00112105
0.00121793
0.00130912
0.00140194
0.00148925
0.00157681
0.00166036
0.00173868
0.00181504
0.00187917
0.00194267
0.000365898
0.000400567
0.000461942
0.00054003
0.000628295
0.000721255
0.000817421
0.000912622
0.00100902
0.00110189
0.00119391
0.00128152
0.00136644
0.00144768
0.00152432
0.00160102
0.0016712
0.00174667
0.00181365
0.00188334
0.00038096
0.000411753
0.000467403
0.000538794
0.000620706
0.000707637
0.000797936
0.000889128
0.000980646
0.00107094
0.00116054
0.00124818
0.00133374
0.00141799
0.00149704
0.0015763
0.00164616
0.00171851
0.00177908
0.00184357
0.000407641
0.000435215
0.000485344
0.000551359
0.00062755
0.000709653
0.000795133
0.000881539
0.000968268
0.00105375
0.0011372
0.00121932
0.00129714
0.00137551
0.0014472
0.00152304
0.0015893
0.00166343
0.00172423
0.00179192
0.000428565
0.000452762
0.000497396
0.000557077
0.000626846
0.000703274
0.000783191
0.000865807
0.000948355
0.0010321
0.00111338
0.0011958
0.00127305
0.00135262
0.0014234
0.00149882
0.00156181
0.00163241
0.00168907
0.00175152
0.000458715
0.000480264
0.000520186
0.000574647
0.000638674
0.000709766
0.000784167
0.000861486
0.000938465
0.00101676
0.001092
0.00116891
0.00124026
0.00131512
0.00138195
0.00145462
0.00151708
0.00158658
0.00164477
0.00170664
0.000483675
0.000502605
0.000537979
0.000587053
0.000645344
0.000711316
0.0007807
0.00085436
0.00092761
0.00100383
0.00107669
0.00115254
0.00122221
0.00129577
0.0013605
0.00143052
0.00148994
0.00155599
0.00161084
0.00167029
0.000514582
0.000531409
0.000562939
0.000607314
0.000660277
0.000720914
0.000784792
0.000853066
0.000920891
0.000991805
0.00105952
0.0011305
0.00119598
0.00126574
0.00132802
0.00139563
0.00145424
0.00151888
0.0015732
0.00163168
0.000542126
0.000557004
0.000585024
0.000625035
0.000673188
0.000729257
0.000788666
0.000853219
0.000917475
0.000985593
0.00105057
0.00111916
0.00118225
0.00124934
0.00130908
0.00137362
0.00142943
0.00149132
0.00154289
0.0015993
0.00057261
0.000585833
0.000610788
0.000646775
0.000690291
0.000741423
0.000795812
0.000855291
0.000914703
0.000977989
0.00103868
0.00110306
0.00116282
0.00122666
0.00128415
0.00134644
0.00140073
0.00146094
0.00151143
0.00156601
0.00060146
0.000613236
0.000635539
0.000668041
0.000707622
0.000754709
0.000805119
0.000860854
0.000916766
0.000976755
0.00103443
0.00109571
0.00115272
0.00121343
0.00126833
0.00132745
0.00137952
0.00143664
0.00148558
0.00153737
0.000631017
0.000641495
0.000661391
0.000690565
0.000726282
0.00076905
0.000815115
0.000866304
0.000918013
0.000973684
0.00102769
0.00108518
0.00113927
0.00119683
0.00124955
0.0013061
0.00135647
0.00141144
0.0014589
0.00150908
0.000660071
0.000669458
0.000687335
0.000713724
0.000746231
0.000785466
0.000828008
0.000875588
0.000923929
0.000976153
0.00102706
0.00108125
0.00113248
0.00118689
0.00123699
0.00129058
0.00133865
0.00139091
0.00143644
0.00148426
0.000688408
0.000696783
0.000712783
0.000736481
0.000765843
0.000801432
0.000840301
0.000883927
0.000928625
0.000977017
0.00102465
0.00107537
0.00112386
0.00117523
0.00122311
0.00127402
0.0013203
0.00137018
0.00141424
0.0014601
0.000716752
0.000724285
0.000738721
0.000760178
0.000786914
0.000819464
0.000855245
0.000895546
0.000937102
0.000982156
0.00102678
0.00107427
0.00111993
0.00116824
0.00121353
0.00126163
0.00130558
0.0013529
0.00139495
0.00143853
0.000743587
0.000750331
0.000763301
0.000782607
0.000806802
0.000836334
0.000869036
0.000905953
0.000944338
0.000986012
0.00102766
0.00107198
0.00111501
0.00116042
0.00120345
0.00124891
0.001291
0.00133579
0.00137639
0.0014178
0.000770468
0.000776551
0.000788286
0.000805779
0.000827812
0.000854765
0.000884792
0.000918747
0.000954278
0.000992869
0.00103169
0.00107296
0.00111331
0.0011558
0.00119637
0.00123909
0.00127892
0.00132128
0.00135975
0.00139918
0.000795458
0.000800923
0.000811502
0.000827279
0.000847259
0.000871731
0.000899179
0.000930261
0.000963032
0.000998654
0.00103477
0.00107317
0.001111
0.00115079
0.00118906
0.00122928
0.00126706
0.00130703
0.00134385
0.00138106
0.000820232
0.000825171
0.000834759
0.000849063
0.000867256
0.000889562
0.000914713
0.000943217
0.000973446
0.00100631
0.00103984
0.00107545
0.00111078
0.00114785
0.0011838
0.00122139
0.00125711
0.00129457
0.00132946
0.00136491
0.000842956
0.000847406
0.000856075
0.000869003
0.000885526
0.000905794
0.000928784
0.000954856
0.000982693
0.00101295
0.00104406
0.00107705
0.00111007
0.00114458
0.00117841
0.00121351
0.00124732
0.00128238
0.00131545
0.00134867
0.00086503
0.000869058
0.000876923
0.000888651
0.000903693
0.000922155
0.000943187
0.000967053
0.000992656
0.0010205
0.00104927
0.00107977
0.00111046
0.00114253
0.00117409
0.00120688
0.00123853
0.00127145
0.00130256
0.00133382
0.000884987
0.000888626
0.00089575
0.00090637
0.000920043
0.000936831
0.000956047
0.000977863
0.00100139
0.00102699
0.00105359
0.00108177
0.0011103
0.00114006
0.00116955
0.00120009
0.00122975
0.0012605
0.00128975
0.0013191
0.000903763
0.000907062
0.000913531
0.000923174
0.000935622
0.000950915
0.000968475
0.000988429
0.00101003
0.00103354
0.00105807
0.00108408
0.0011105
0.00113808
0.00116551
0.0011939
0.00122165
0.00125022
0.00127779
0.00130502
0.000920367
0.000923354
0.000929223
0.000937969
0.000949293
0.00096321
0.000979248
0.000997483
0.0010173
0.00103889
0.0010615
0.00108548
0.00110995
0.00113547
0.00116097
0.00118733
0.00121321
0.00123981
0.00126561
0.00129114
0.000935187
0.000937899
0.000943237
0.000951192
0.000961512
0.000974203
0.000988864
0.00100555
0.00102373
0.00104356
0.00106439
0.0010865
0.00110913
0.00113272
0.00115641
0.00118081
0.00120496
0.00122959
0.00125376
0.00127746
0.000947749
0.000950211
0.000955063
0.000962296
0.000971698
0.000983267
0.000996666
0.00101193
0.00102861
0.00104682
0.001066
0.00108637
0.00110729
0.0011291
0.00115108
0.00117369
0.00119616
0.00121904
0.00124157
0.00126369
0.000957837
0.000960082
0.000964511
0.000971114
0.00097971
0.000990296
0.00100258
0.00101659
0.00103193
0.0010487
0.0010664
0.00108522
0.00110459
0.00112478
0.00114521
0.00116616
0.00118711
0.00120832
0.00122938
0.00124994
0.000965526
0.000967574
0.000971618
0.00097765
0.000985515
0.000995207
0.00100648
0.00101934
0.00103347
0.00104892
0.00106527
0.00108267
0.00110063
0.00111935
0.00113833
0.00115781
0.00117732
0.00119705
0.00121671
0.00123588
0.000969936
0.000971819
0.00097554
0.000981091
0.000988341
0.000997282
0.0010077
0.0010196
0.0010327
0.00104704
0.00106226
0.00107846
0.00109522
0.0011127
0.00113048
0.00114868
0.001167
0.00118543
0.00120392
0.00122186
0.000971738
0.000973473
0.000976906
0.000982029
0.000988731
0.000997002
0.00100666
0.00101771
0.00102989
0.00104325
0.00105746
0.0010726
0.00108832
0.00110471
0.00112142
0.00113853
0.0011558
0.00117313
0.00119059
0.00120747
0.0009693
0.000970921
0.000974132
0.000978925
0.000985205
0.000992963
0.00100204
0.00101244
0.00102395
0.00103657
0.00105005
0.00106443
0.0010794
0.00109502
0.001111
0.00112735
0.00114391
0.00116048
0.00117725
0.0011934
0.000963965
0.000965491
0.000968515
0.000973032
0.000978962
0.000986294
0.000994898
0.00100477
0.00101572
0.00102776
0.00104065
0.00105443
0.00106883
0.00108387
0.00109931
0.00111511
0.00113116
0.00114722
0.00116353
0.00117919
0.00095325
0.000954717
0.000957629
0.000961982
0.000967706
0.000974797
0.000983141
0.000992732
0.00100342
0.00101518
0.00102785
0.00104141
0.00105566
0.00107055
0.00108593
0.00110168
0.00111776
0.00113383
0.00115022
0.00116595
0.000939264
0.000940698
0.000943542
0.000947803
0.000953413
0.00096038
0.000968598
0.000978071
0.00098866
0.00100036
0.00101301
0.00102658
0.00104092
0.00105594
0.00107153
0.00108752
0.00110393
0.00112036
0.00113716
0.00115335
0.000918617
0.000920062
0.000922926
0.000927229
0.000932898
0.000939968
0.000948319
0.000957995
0.00096884
0.000980885
0.000993961
0.00100806
0.00102303
0.00103879
0.00105525
0.00107219
0.0010897
0.00110726
0.00112534
0.00114287
0.000894234
0.000895722
0.000898668
0.000903114
0.000908967
0.000916307
0.000924982
0.000935097
0.00094645
0.000959149
0.00097297
0.000987974
0.00100397
0.0010209
0.0010387
0.00105706
0.0010762
0.00109543
0.00111535
0.00113476
0.00219197
0.00217626
0.00220985
0.00222161
0.00224606
0.00226141
0.00228026
0.00229819
0.00231097
0.00232023
0.00233692
0.00234753
0.00235898
0.00236898
0.0023779
0.00238693
0.0023947
0.00240298
0.00241043
0.0024184
0.00242611
0.00243423
0.00244271
0.00245143
0.00246121
0.00247105
0.0024827
0.00249433
0.00250839
0.00252279
0.0025395
0.00255818
0.00257944
0.00260236
0.00262984
0.00265754
0.00269222
0.00272544
0.00277109
0.00283188
0.00211753
0.0021436
0.00216801
0.00218623
0.00220372
0.00222167
0.00223327
0.0022522
0.00228195
0.00227921
0.00228658
0.00230301
0.00231139
0.0023244
0.00233309
0.00234424
0.00235311
0.00236338
0.00237259
0.00238266
0.0023925
0.00240294
0.00241379
0.00242518
0.00243748
0.00245053
0.00246472
0.00248056
0.00249696
0.00251753
0.00253597
0.00255884
0.00258422
0.00261141
0.00264372
0.00267761
0.00271866
0.00276415
0.00283162
0.00289554
0.00207996
0.00210032
0.00211732
0.00213282
0.00214848
0.00216204
0.00217792
0.00218846
0.00220562
0.00222069
0.00223165
0.00224381
0.00225619
0.00226706
0.00227953
0.00229003
0.00230224
0.00231292
0.00232502
0.00233629
0.00234867
0.00236091
0.00237413
0.00238772
0.00240253
0.00241778
0.00243535
0.00245243
0.00247459
0.00249353
0.00251501
0.00254347
0.00257058
0.00260183
0.00263741
0.00267548
0.00272059
0.00277532
0.00284873
0.00291064
0.00201703
0.00204505
0.00206635
0.00208516
0.00210688
0.0021207
0.00213989
0.00215255
0.00217176
0.00218132
0.00219644
0.0022078
0.00222102
0.00223288
0.00224529
0.00225735
0.00226961
0.00228202
0.00229459
0.00230766
0.00232097
0.00233505
0.00234954
0.00236496
0.00238116
0.00239808
0.00241678
0.00243492
0.00245746
0.00249277
0.00250431
0.00253141
0.00256402
0.00259449
0.00263032
0.00266864
0.00271136
0.00276125
0.0028293
0.00289336
0.00197471
0.0019992
0.00201781
0.00204108
0.00205111
0.00206462
0.00208215
0.00209549
0.00211163
0.00212552
0.00213995
0.00215359
0.00216755
0.00218091
0.00219492
0.00220825
0.00222259
0.00223624
0.00225117
0.0022655
0.00228131
0.0022967
0.0023137
0.00233059
0.00234903
0.00236797
0.00238793
0.00240962
0.00243082
0.00245608
0.00248538
0.0025192
0.00254171
0.00257177
0.00260744
0.00264286
0.00268287
0.0027222
0.00277518
0.00283844
0.00191806
0.0019466
0.00196826
0.00198527
0.00200104
0.0020212
0.00203943
0.00205473
0.00207313
0.00208632
0.00210372
0.00211647
0.00213284
0.0021458
0.00216151
0.00217496
0.00219047
0.00220465
0.00222045
0.00223559
0.00225214
0.0022685
0.00228627
0.00230418
0.00232364
0.00234353
0.00236514
0.0023876
0.00241172
0.00243791
0.00246449
0.00249029
0.00251888
0.00255002
0.00258391
0.00261629
0.00265357
0.0026882
0.00272542
0.00277591
0.0018753
0.00190209
0.0019202
0.00193838
0.00195618
0.0019731
0.00198994
0.00200507
0.00202216
0.00203659
0.00205339
0.00206768
0.00208416
0.00209861
0.00211497
0.00212981
0.00214632
0.00216178
0.00217875
0.00219508
0.00221279
0.00223027
0.00224905
0.00226798
0.00228814
0.00230887
0.00233077
0.00235366
0.00237773
0.00240314
0.00243004
0.00245833
0.00248691
0.00251673
0.00254887
0.00258123
0.00261576
0.00265085
0.00268642
0.00272364
0.00182579
0.0018533
0.00187547
0.00189205
0.00190201
0.00192889
0.00194995
0.00196405
0.00198263
0.00199788
0.00201522
0.00203076
0.00204753
0.00206316
0.00207977
0.0020956
0.00211239
0.00212862
0.00214588
0.00216277
0.00218082
0.00219862
0.00221778
0.00223676
0.00225731
0.00227778
0.00229996
0.00232222
0.00234624
0.00237053
0.0023965
0.00242292
0.00245087
0.00248018
0.00251078
0.00254278
0.00257632
0.00261099
0.00264813
0.00268505
0.00178531
0.00181142
0.00183032
0.00184976
0.00186801
0.00188509
0.00190382
0.00192037
0.0019382
0.00195443
0.00197169
0.00198775
0.00200474
0.00202082
0.00203777
0.00205406
0.00207122
0.00208794
0.00210552
0.00212289
0.00214113
0.00215937
0.00217851
0.00219785
0.00221816
0.00223881
0.00226057
0.00228278
0.00230624
0.00233024
0.00235565
0.00238163
0.00240918
0.00243727
0.00246734
0.00249791
0.00253083
0.00256439
0.00260066
0.00263796
0.00174184
0.00176712
0.00178643
0.00180668
0.00182349
0.00184449
0.001863
0.00188087
0.0018996
0.00191617
0.00193455
0.00195068
0.00196863
0.00198473
0.00200241
0.00201872
0.00203638
0.00205307
0.002071
0.00208822
0.00210671
0.0021246
0.00214397
0.00216266
0.00218312
0.00220283
0.00222439
0.00224557
0.00226843
0.00229132
0.00231576
0.00234056
0.00236688
0.00239381
0.00242239
0.0024517
0.00248292
0.00251492
0.00254925
0.00258443
0.00170525
0.00172939
0.00174874
0.00176841
0.00178745
0.00180562
0.00182442
0.00184167
0.00185976
0.00187678
0.00189448
0.00191123
0.00192871
0.00194532
0.00196272
0.00197938
0.00199685
0.00201376
0.00203146
0.00204883
0.00206693
0.00208495
0.00210364
0.00212246
0.002142
0.00216161
0.0021824
0.00220316
0.00222527
0.00224743
0.00227102
0.0022948
0.00232012
0.00234574
0.00237308
0.0024008
0.00243045
0.00246063
0.00249291
0.00252592
0.00166741
0.00169056
0.00170998
0.00173017
0.00174899
0.00176818
0.00178681
0.00180475
0.00182332
0.00184066
0.00185871
0.00187562
0.00189329
0.00190999
0.00192739
0.00194408
0.00196137
0.00197826
0.00199563
0.00201285
0.00203062
0.00204821
0.00206694
0.00208468
0.00210549
0.00212264
0.00214293
0.00216246
0.00218335
0.00220453
0.00222662
0.00224928
0.00227291
0.00229716
0.00232259
0.00234864
0.00237612
0.00240424
0.00243403
0.0024645
0.00163498
0.00165684
0.00167621
0.00169586
0.00171506
0.00173338
0.00175296
0.00176963
0.00178665
0.00180484
0.00182232
0.00183926
0.00185674
0.00187313
0.0018905
0.00190671
0.00192401
0.00194028
0.00195763
0.00197415
0.00199169
0.0020087
0.00202649
0.00204441
0.00206236
0.00208019
0.00209963
0.00211863
0.00213859
0.00215873
0.00217964
0.00220096
0.00222314
0.00224578
0.00226948
0.00229363
0.00231908
0.00234499
0.00237236
0.00240033
0.00160246
0.00162301
0.00164271
0.00166201
0.00168117
0.00169969
0.00171823
0.00173227
0.00175404
0.00177117
0.0017888
0.00180528
0.00182271
0.00183882
0.00185602
0.00187193
0.00188895
0.00190482
0.00192165
0.00193775
0.00195416
0.00197098
0.0019863
0.00200482
0.00203037
0.00203957
0.0020559
0.00207554
0.00209392
0.00211304
0.00213278
0.00215239
0.00217328
0.00219394
0.00221601
0.00223806
0.00226144
0.00228511
0.00231001
0.00233534
0.00157385
0.00159295
0.00161252
0.00163123
0.00164978
0.00166806
0.00168511
0.00170361
0.00172222
0.00173806
0.00175532
0.00177158
0.00178812
0.00180437
0.00182051
0.00183664
0.00185256
0.0018686
0.00188443
0.00190043
0.00191632
0.00193231
0.00194846
0.0019643
0.00198107
0.00199791
0.00201443
0.00203138
0.00204883
0.0020662
0.00208452
0.00210255
0.0021218
0.00214067
0.00216096
0.00218085
0.00220227
0.00222339
0.00224592
0.00226862
0.00154498
0.00156339
0.00158271
0.00160111
0.00161969
0.00163737
0.00165533
0.0016722
0.00168975
0.00170627
0.00172308
0.00173923
0.00175548
0.0017713
0.00178711
0.00180269
0.00181815
0.00183358
0.00184884
0.00186418
0.00187945
0.00189467
0.00191046
0.00192525
0.00194261
0.00195615
0.00197239
0.00198758
0.00200377
0.0020198
0.00203645
0.0020531
0.00207045
0.00208784
0.00210592
0.0021245
0.00214314
0.00216381
0.00218247
0.00220297
0.00151953
0.00153681
0.00155566
0.00157354
0.00159152
0.0016089
0.00162616
0.00164299
0.00165993
0.00167591
0.0016923
0.0017078
0.00172361
0.00173877
0.0017541
0.00176898
0.00178394
0.00179858
0.00181329
0.00182772
0.0018423
0.00185659
0.00187114
0.0018854
0.00189998
0.00191446
0.00192901
0.00194367
0.00195842
0.00197331
0.00198843
0.00200363
0.00201927
0.00203487
0.00205124
0.00206728
0.00208476
0.00210112
0.0021187
0.00213669
0.00149456
0.00151101
0.00152959
0.0015468
0.00156451
0.00158121
0.00159817
0.00161435
0.00163066
0.00164634
0.00166204
0.00167726
0.00169243
0.00170722
0.00172192
0.00173633
0.00175065
0.00176471
0.00177876
0.00179251
0.00180638
0.00181986
0.00183366
0.00184689
0.00186069
0.00187376
0.00188737
0.00190059
0.00191413
0.00192746
0.00194119
0.00195465
0.00196873
0.00198212
0.00199692
0.00200969
0.00202591
0.00204907
0.00205575
0.00207054
0.00147209
0.00148746
0.00150556
0.00152198
0.00153925
0.00155527
0.00157173
0.00158731
0.00160308
0.00161815
0.00163328
0.00164786
0.00166242
0.00167654
0.00169058
0.00170428
0.00171787
0.00173118
0.00174439
0.00175735
0.00177027
0.00178292
0.00179561
0.00180802
0.00182054
0.00183279
0.00184521
0.00185733
0.00186974
0.00188178
0.0018942
0.00190631
0.00191881
0.0019311
0.00194367
0.00195636
0.0019688
0.00198227
0.00199578
0.00200906
0.00145018
0.00146486
0.00148242
0.00149821
0.00151473
0.00153025
0.00154597
0.00156104
0.00157609
0.00159065
0.00160509
0.00161914
0.00163303
0.00164656
0.00165997
0.00167299
0.00168596
0.0016985
0.00171108
0.00172317
0.0017354
0.00174708
0.00175901
0.00177033
0.00178198
0.00179305
0.0018044
0.00181541
0.00182642
0.00183683
0.00184816
0.00185867
0.00186978
0.00188047
0.00189143
0.00190264
0.0019133
0.00192584
0.00193568
0.00194722
0.00143022
0.00144383
0.00146085
0.00147519
0.0014919
0.00150643
0.0015218
0.00153612
0.00155057
0.00156448
0.00157822
0.00159166
0.00160478
0.00161775
0.00163028
0.00164279
0.00165477
0.00166674
0.0016783
0.00168976
0.00170093
0.00171194
0.00172272
0.00173333
0.00174373
0.00175402
0.00176404
0.00177406
0.00178402
0.00179355
0.00180305
0.0018126
0.00182193
0.00183131
0.00184051
0.00184983
0.00185899
0.00186834
0.00187766
0.00188701
0.00141097
0.00142394
0.00144067
0.00145443
0.00146909
0.00148372
0.00149795
0.00151183
0.0015255
0.00153879
0.00155186
0.00156461
0.00157709
0.00158933
0.00160126
0.00161296
0.00162447
0.00163555
0.00164656
0.00165713
0.00166761
0.00167771
0.00168771
0.00169734
0.0017069
0.00171603
0.00172524
0.00173378
0.00174278
0.00175139
0.00175959
0.00176774
0.00177578
0.00178365
0.00179144
0.00179918
0.00180671
0.00181439
0.00182175
0.00182924
0.00139276
0.00140606
0.00142057
0.0014301
0.00144872
0.00146289
0.00147579
0.00148899
0.00150178
0.00151429
0.00152667
0.00153866
0.00155048
0.00156214
0.0015732
0.00158489
0.00159484
0.00160545
0.00161541
0.00162529
0.00163493
0.00164421
0.0016534
0.00166216
0.00167086
0.00167912
0.00168733
0.00169508
0.00170284
0.0017101
0.00171734
0.00172421
0.001731
0.00173749
0.00174388
0.00175002
0.00175607
0.00176194
0.00176771
0.00177338
0.00137519
0.00138693
0.00140095
0.00141441
0.00142873
0.00144079
0.00145404
0.00146606
0.00147849
0.00149022
0.00150193
0.00151328
0.00152425
0.00153523
0.00154532
0.00155607
0.00156658
0.0015758
0.00158544
0.0015944
0.00160336
0.00161187
0.00162024
0.00162821
0.00163602
0.00164341
0.00165068
0.00165752
0.00166422
0.00167059
0.00167666
0.0016825
0.00168802
0.00169334
0.00169835
0.00170318
0.00170772
0.00171211
0.00171624
0.00172024
0.00135892
0.00136961
0.0013836
0.0013949
0.00140868
0.0014203
0.00143282
0.00144429
0.00145597
0.001467
0.00147811
0.00148843
0.00149919
0.00150844
0.0015192
0.00153301
0.00153813
0.00154626
0.00155593
0.00156405
0.00157259
0.00158036
0.00158808
0.00159533
0.00160234
0.00160899
0.00161536
0.00162139
0.00162712
0.0016325
0.00163759
0.00164233
0.00164679
0.00165089
0.00165472
0.00165822
0.00166143
0.00166436
0.001667
0.00166943
0.0013427
0.00135295
0.00136585
0.00137726
0.00138954
0.00140063
0.00141226
0.00142302
0.00143404
0.0014444
0.00145489
0.00146476
0.0014748
0.00148406
0.00149383
0.00150228
0.00151056
0.00151938
0.00152737
0.00153533
0.00154284
0.00155007
0.00155701
0.00156357
0.00156988
0.00157577
0.00158141
0.00158663
0.00159156
0.00159609
0.00160028
0.0016041
0.00160755