/*--------------------------------*- C++ -*----------------------------------*\
| =========                 |                                                 |
| \\      /  F ield         | OpenFOAM: The Open Source CFD Toolbox           |
|  \\    /   O peration     | Version:  v2012                                 |
|   \\  /    A nd           | Website:  www.openfoam.com                      |
|    \\/     M anipulation  |                                                 |
\*---------------------------------------------------------------------------*/
FoamFile
{
    version     2.0;
    format      ascii;
    class       pointVectorField;
    location    "10";
    object      pointD;
}
// * * * * * * * * * * * * * * * * * * * * * * * * * * * * * * * * * * * * * //

dimensions      [0 1 0 0 0 0 0];


internalField   nonuniform List<vector> 
32562
(
(0.00407149 0 2.38873e-21)
(0.00550208 0 2.54268e-21)
(0.00506395 -0.00043103 -3.41475e-21)
(0 -0.00308704 6.18569e-22)
(0 -0.00154765 3.95294e-20)
(0.00419427 0 0)
(0 -0.00289774 0)
(0.00264225 -0.000843994 0)
(0.00122561 -0.00156796 4.32919e-21)
(0.00530842 -0.00011158 -1.66002e-20)
(0.00315012 -0.00130462 7.19143e-22)
(0.00315012 -0.00130462 7.19143e-22)
(0.00264225 -0.000843994 0)
(0 -0.00289774 0)
(0 -0.00154765 3.95294e-20)
(0.00407149 0 2.38873e-21)
(0.00419427 0 0)
(0.00550208 0 2.54268e-21)
(0.00530842 -0.00011158 -1.66002e-20)
(0.00506395 -0.00043103 -3.41475e-21)
(0.00122561 -0.00156796 4.32919e-21)
(0 -0.00308704 6.18569e-22)
(5.64253e-05 -0.00289418 0)
(0.000113059 -0.00288367 0)
(0.000170082 -0.00286669 0)
(0.000227741 -0.00284374 0)
(0.000286454 -0.00281515 0)
(0.000346658 -0.00278103 0)
(0.000408675 -0.00274149 0)
(0.000472703 -0.00269672 0)
(0.000538812 -0.00264701 0)
(0.000606934 -0.0025928 0)
(0.000676908 -0.00253461 0)
(0.00074848 -0.00247306 0)
(0.000821334 -0.00240882 0)
(0.000895103 -0.00234262 0)
(0.00096933 -0.00227521 0)
(0.00104343 -0.00220745 0)
(0.00111656 -0.00214045 0)
(0.00118784 -0.00207529 0)
(0.0012567 -0.00201252 0)
(0.00132332 -0.00195187 0)
(0.00138849 -0.0018925 0)
(0.00145312 -0.0018335 0)
(0.00151793 -0.00177432 0)
(0.00158308 -0.00171489 0)
(0.00164843 -0.00165553 0)
(0.00171397 -0.00159645 0)
(0.00177966 -0.00153778 0)
(0.00184548 -0.00147966 0)
(0.00191141 -0.00142219 0)
(0.00197741 -0.00136546 0)
(0.00204344 -0.00130957 0)
(0.00210947 -0.00125458 0)
(0.00217547 -0.00120057 0)
(0.00224136 -0.00114761 0)
(0.00230716 -0.00109573 0)
(0.00237274 -0.00104504 0)
(0.00243816 -0.000995495 0)
(0.00250323 -0.000947281 0)
(0.00256813 -0.000900245 0)
(0.00271284 -0.000795755 0)
(0.0027762 -0.000752843 0)
(0.0028389 -0.000711411 0)
(0.00290093 -0.000671418 0)
(0.00296221 -0.000632879 0)
(0.00302273 -0.000595749 0)
(0.00308241 -0.000560033 0)
(0.00314118 -0.000525708 0)
(0.00319899 -0.000492772 0)
(0.00325577 -0.00046121 0)
(0.00331145 -0.000431011 0)
(0.00336597 -0.000402158 0)
(0.00341926 -0.000374632 0)
(0.00347126 -0.000348414 0)
(0.0035219 -0.000323473 0)
(0.00357114 -0.000299785 0)
(0.00361889 -0.000277328 0)
(0.0036651 -0.000256063 0)
(0.00370972 -0.000235954 0)
(0.00375268 -0.000216967 0)
(0.00379393 -0.000199061 0)
(0.00383341 -0.000182197 0)
(0.00387108 -0.000166331 0)
(0.00390688 -0.000151417 0)
(0.00394076 -0.00013741 0)
(0.00397269 -0.000124261 0)
(0.0040026 -0.000111919 0)
(0.00403048 -0.000100334 0)
(0.00405627 -8.94516e-05 0)
(0.00407993 -7.9219e-05 0)
(0.00410145 -6.95804e-05 0)
(0.00412078 -6.04796e-05 0)
(0.00413791 -5.18591e-05 0)
(0.0041528 -4.36609e-05 0)
(0.00416543 -3.5826e-05 0)
(0.00417579 -2.82949e-05 0)
(0.00418387 -2.10074e-05 0)
(0.00418965 -1.3903e-05 0)
(0.00419311 -6.92092e-06 0)
(0.0040776 0 0)
(0.00408518 0 0)
(0.00409218 0 0)
(0.00409868 0 0)
(0.00410469 0 0)
(0.00411027 0 0)
(0.00411544 0 0)
(0.00412025 0 0)
(0.00412471 0 0)
(0.00412887 0 0)
(0.00413274 0 0)
(0.00413636 0 0)
(0.00413974 0 0)
(0.00414291 0 0)
(0.00414588 0 0)
(0.00414867 0 0)
(0.00415131 0 0)
(0.0041538 0 0)
(0.00415616 0 0)
(0.00415841 0 0)
(0.00416056 0 0)
(0.00416261 0 0)
(0.00416459 0 0)
(0.0041665 0 0)
(0.00416834 0 0)
(0.00417014 0 0)
(0.00417189 0 0)
(0.0041736 0 0)
(0.00417529 0 0)
(0.00417696 0 0)
(0.00417861 0 0)
(0.00418025 0 0)
(0.00418189 0 0)
(0.00418353 0 0)
(0.00418517 0 0)
(0.00418683 0 0)
(0.0041885 0 0)
(0.00419018 0 0)
(0.00419189 0 0)
(0.00419809 0 0)
(0.00420277 0 0)
(0.0042077 0 0)
(0.00421291 0 0)
(0.00421841 0 0)
(0.00422424 0 0)
(0.00423041 0 0)
(0.00423692 0 0)
(0.00424379 0 0)
(0.00425103 0 0)
(0.00425864 0 0)
(0.00426663 0 0)
(0.00427499 0 0)
(0.00428374 0 0)
(0.00429288 0 0)
(0.0043024 0 0)
(0.0043123 0 0)
(0.00432259 0 0)
(0.00433325 0 0)
(0.0043443 0 0)
(0.00435572 0 0)
(0.00436752 0 0)
(0.00437968 0 0)
(0.00439222 0 0)
(0.00440512 0 0)
(0.00441838 0 0)
(0.00443199 0 0)
(0.00444596 0 0)
(0.00446028 0 0)
(0.00447493 0 0)
(0.00448993 0 0)
(0.00450527 0 0)
(0.00452093 0 0)
(0.00453691 0 0)
(0.00455322 0 0)
(0.00456984 0 0)
(0.00458677 0 0)
(0.004604 0 0)
(0.00462154 0 0)
(0.00463936 0 0)
(0.00465747 0 0)
(0.00467587 0 0)
(0.00469454 0 0)
(0.00471348 0 0)
(0.00473268 0 0)
(0.00475214 0 0)
(0.00477186 0 0)
(0.00479181 0 0)
(0.00481201 0 0)
(0.00483243 0 0)
(0.00485308 0 0)
(0.00487395 0 0)
(0.00489503 0 0)
(0.00491631 0 0)
(0.00493778 0 0)
(0.00495944 0 0)
(0.00498128 0 0)
(0.00500329 0 0)
(0.00502546 0 0)
(0.00504778 0 0)
(0.00507024 0 0)
(0.00509283 0 0)
(0.00511555 0 0)
(0.00513838 0 0)
(0.0051613 0 0)
(0.00518432 0 0)
(0.00520741 0 0)
(0.00523057 0 0)
(0.00525377 0 0)
(0.00527702 0 0)
(0.00530028 0 0)
(0.00532355 0 0)
(0.00534681 0 0)
(0.00537004 0 0)
(0.00539322 0 0)
(0.00541634 0 0)
(0.00543937 0 0)
(0.0054623 0 0)
(0.00548509 0 0)
(0.00550758 -7.61965e-07 2.60988e-21)
(0.00550712 -1.53272e-06 2.46793e-21)
(0.00550636 -2.32102e-06 4.91461e-21)
(0.00550529 -3.13563e-06 -2.73686e-21)
(0.00550393 -3.98523e-06 2.31405e-21)
(0.00550226 -4.87848e-06 2.5161e-21)
(0.00550029 -5.82393e-06 7.69785e-24)
(0.00549803 -6.8301e-06 5.46249e-21)
(0.00549548 -7.90534e-06 8.51285e-22)
(0.00549265 -9.05797e-06 -4.14536e-21)
(0.00548952 -1.02961e-05 -7.68526e-21)
(0.00548612 -1.16278e-05 -6.23281e-21)
(0.00548245 -1.30608e-05 4.54789e-21)
(0.00547851 -1.46029e-05 8.36448e-21)
(0.0054743 -1.62616e-05 -4.66952e-22)
(0.00546984 -1.80442e-05 -1.14851e-20)
(0.00546513 -1.99578e-05 -1.19507e-20)
(0.00546017 -2.20094e-05 -5.05487e-21)
(0.00545498 -2.42054e-05 -3.44764e-21)
(0.00544956 -2.65526e-05 -4.21071e-27)
(0.00544392 -2.90568e-05 1.66362e-21)
(0.00543807 -3.17242e-05 4.30351e-21)
(0.00543201 -3.45601e-05 2.63944e-21)
(0.00542576 -3.75702e-05 3.73823e-21)
(0.00541932 -4.07591e-05 1.01911e-20)
(0.00541271 -4.41321e-05 6.45284e-21)
(0.00540593 -4.76929e-05 -2.68983e-21)
(0.00539899 -5.14463e-05 -1.47494e-21)
(0.00539191 -5.53953e-05 -5.45288e-21)
(0.00538468 -5.95439e-05 -5.22138e-21)
(0.00537734 -6.38945e-05 4.17739e-21)
(0.00536987 -6.84504e-05 5.47337e-21)
(0.00536231 -7.32132e-05 2.74187e-21)
(0.00535464 -7.81853e-05 -1.37963e-21)
(0.0053469 -8.33677e-05 1.24849e-20)
(0.00533908 -8.87616e-05 1.67115e-20)
(0.0053312 -9.43679e-05 1.132e-20)
(0.00532327 -0.000100186 8.59201e-21)
(0.00531531 -0.000106217 -1.2401e-20)
(0.00530377 -0.00011529 -8.00121e-22)
(0.00530021 -0.000118168 3.79009e-21)
(0.00529666 -0.000121086 -5.66496e-21)
(0.0052931 -0.000124046 -6.14597e-21)
(0.00528955 -0.000127047 7.08145e-21)
(0.005286 -0.000130089 -1.46884e-21)
(0.00528245 -0.000133171 -2.13155e-20)
(0.0052789 -0.000136293 -1.27653e-20)
(0.00527536 -0.000139456 3.29446e-21)
(0.00527182 -0.000142658 -2.86387e-21)
(0.00526829 -0.0001459 -6.15833e-21)
(0.00526476 -0.000149181 6.94483e-21)
(0.00526125 -0.000152501 -1.70644e-21)
(0.00525774 -0.000155859 -2.1311e-20)
(0.00525424 -0.000159256 -1.26598e-20)
(0.00525075 -0.00016269 3.38785e-22)
(0.00524728 -0.000166162 -2.88597e-21)
(0.00524381 -0.000169671 -3.22475e-21)
(0.00524036 -0.000173217 -2.91095e-21)
(0.00523693 -0.000176799 -2.91095e-21)
(0.0052335 -0.000180416 -2.91959e-21)
(0.0052301 -0.000184069 -6.07488e-21)
(0.00522671 -0.000187756 -2.94409e-21)
(0.00522333 -0.000191478 6.64622e-21)
(0.00521998 -0.000195233 -2.37329e-21)
(0.00521664 -0.000199021 -1.79217e-20)
(0.00521332 -0.000202841 -5.92165e-21)
(0.00521003 -0.000206693 -5.75213e-21)
(0.00520675 -0.000210577 -1.50006e-20)
(0.00520349 -0.000214491 -9.01182e-21)
(0.00520026 -0.000218435 3.5744e-24)
(0.00519705 -0.000222408 -5.9408e-24)
(0.00519386 -0.000226409 9.49124e-25)
(0.0051907 -0.000230439 5.83582e-21)
(0.00518756 -0.000234495 -2.99824e-21)
(0.00518444 -0.000238578 -5.76577e-21)
(0.00518135 -0.000242686 -2.71514e-23)
(0.00517828 -0.000246818 -3.11108e-21)
(0.00517525 -0.000250975 -2.98125e-21)
(0.00517223 -0.000255155 2.77394e-21)
(0.00516925 -0.000259356 -2.964e-21)
(0.00516629 -0.000263579 -8.72992e-21)
(0.00516336 -0.000267823 2.10418e-21)
(0.00516045 -0.000272085 -3.56805e-21)
(0.00515758 -0.000276367 -1.65979e-20)
(0.00515473 -0.000280666 -7.89031e-23)
(0.00515191 -0.000284981 4.44064e-21)
(0.00514911 -0.000289313 -1.15501e-20)
(0.00514635 -0.000293659 -1.36819e-20)
(0.00514361 -0.000298018 -5.5459e-21)
(0.0051409 -0.000302391 -5.22745e-22)
(0.00513822 -0.000306775 -3.53393e-21)
(0.00513556 -0.000311169 -8.45934e-21)
(0.00513294 -0.000315573 -7.85862e-21)
(0.00513033 -0.000319986 2.98984e-21)
(0.00512776 -0.000324407 2.38469e-21)
(0.00512521 -0.000328833 -5.353e-21)
(0.00512269 -0.000333266 4.60505e-21)
(0.00512019 -0.000337702 -2.11081e-21)
(0.00511771 -0.000342143 -1.28441e-20)
(0.00511526 -0.000346585 -4.56079e-21)
(0.00511283 -0.000351029 1.4585e-21)
(0.00511042 -0.000355473 3.03806e-21)
(0.00510803 -0.000359916 8.09592e-22)
(0.00510566 -0.000364358 -3.01895e-21)
(0.00510331 -0.000368797 -8.11538e-26)
(0.00510097 -0.000373233 2.48258e-25)
(0.00509865 -0.000377664 -5.15083e-21)
(0.00509634 -0.000382091 -1.2353e-21)
(0.00509405 -0.000386512 3.91453e-21)
(0.00509176 -0.000390927 1.02428e-20)
(0.00508948 -0.000395335 6.30658e-21)
(0.00508721 -0.000399736 -6.02924e-21)
(0.00508494 -0.00040413 -2.09493e-21)
(0.00508268 -0.000408516 2.0936e-21)
(0.00508041 -0.000412895 -6.03282e-21)
(0.00507814 -0.000417266 -5.1107e-21)
(0.00507587 -0.00042163 -1.78877e-29)
(0.00507359 -0.000425989 -2.11703e-21)
(0.00503938 -0.00043753 -2.5815e-21)
(0.00500751 -0.000444703 -3.86554e-21)
(0.0049757 -0.000451843 -3.8614e-21)
(0.00494395 -0.000458899 -3.85422e-21)
(0.00491224 -0.000465814 -4.93272e-21)
(0.00488055 -0.000472546 -8.83371e-22)
(0.00484886 -0.000479063 1.48091e-21)
(0.00481712 -0.000485339 0)
(0.00478531 -0.000491354 1.12022e-21)
(0.0047534 -0.000497097 -1.64157e-21)
(0.00472136 -0.000502556 -4.22287e-21)
(0.00468915 -0.000507732 -2.77416e-21)
(0.00465675 -0.00051262 -3.81855e-21)
(0.00462413 -0.000517228 -3.83739e-21)
(0.00459127 -0.000521563 -4.01791e-21)
(0.00455813 -0.000525631 -2.68599e-21)
(0.00452469 -0.000529447 -2.84322e-21)
(0.00449092 -0.000533021 -5.60719e-21)
(0.00445681 -0.00053637 -3.87897e-21)
(0.00442233 -0.000539509 1.88649e-21)
(0.00438745 -0.000542457 4.18193e-21)
(0.00435216 -0.000545234 -3.4725e-21)
(0.00431644 -0.000547859 -7.50845e-21)
(0.00428026 -0.000550352 -4.19736e-21)
(0.00424361 -0.000552741 -2.77696e-21)
(0.00420647 -0.000555047 -2.95948e-21)
(0.00416881 -0.000557295 -3.13556e-21)
(0.00413062 -0.000559512 -3.17864e-21)
(0.00409189 -0.000561723 -4.37164e-23)
(0.0040526 -0.000563959 -1.63511e-21)
(0.00401272 -0.000566244 -3.08865e-21)
(0.00397225 -0.000568611 -3.32704e-21)
(0.00393116 -0.000571089 -3.47501e-21)
(0.00388944 -0.00057371 -1.79073e-21)
(0.00384708 -0.000576507 -3.3631e-21)
(0.00380406 -0.000579513 -1.74698e-21)
(0.00376037 -0.000582767 -1.89074e-21)
(0.003716 -0.000586295 -1.45076e-21)
(0.00367093 -0.000590134 2.19372e-21)
(0.00362514 -0.000594331 -3.02845e-22)
(0.00357862 -0.000598917 -2.30338e-21)
(0.00353136 -0.000603937 -3.86429e-21)
(0.00348336 -0.000609428 -3.71433e-21)
(0.0034346 -0.000615442 -6.19949e-21)
(0.00338507 -0.000622012 -8.44495e-21)
(0.00333476 -0.000629166 -5.90246e-21)
(0.00328368 -0.000636978 1.29736e-21)
(0.0032318 -0.000645487 6.52549e-21)
(0.00317913 -0.000654735 -2.85631e-22)
(0.00312567 -0.000664772 2.52307e-21)
(0.00307141 -0.000675646 5.89516e-21)
(0.00301636 -0.000687406 -7.38423e-22)
(0.0029605 -0.0007001 -3.71678e-21)
(0.00290385 -0.000713784 -1.46303e-21)
(0.00284642 -0.000728506 -9.51542e-22)
(0.0027882 -0.000744324 -4.69e-21)
(0.00272922 -0.000761282 -3.19234e-21)
(0.0026695 -0.00077943 1.81496e-21)
(0.00260903 -0.000798853 6.4521e-22)
(0.00254783 -0.000819568 4.02075e-23)
(0.00248594 -0.000841613 3.89281e-21)
(0.00242337 -0.000865067 3.9793e-21)
(0.00236016 -0.000889973 1.54589e-21)
(0.00229635 -0.000916375 2.54756e-21)
(0.00223199 -0.000944321 8.62107e-22)
(0.00216712 -0.000973841 4.86595e-23)
(0.00210183 -0.00100498 4.57983e-21)
(0.00203611 -0.00103778 1.56062e-21)
(0.00196988 -0.00107233 -9.75315e-21)
(0.00190305 -0.00110869 -9.3114e-21)
(0.00183562 -0.00114692 -1.6389e-21)
(0.00176765 -0.00118702 -6.72659e-30)
(0.00169921 -0.00122894 5.53063e-21)
(0.00163053 -0.00127262 6.90107e-21)
(0.00156167 -0.00131805 2.85493e-21)
(0.00149283 -0.00136524 7.1774e-24)
(0.00142412 -0.00141416 5.43708e-23)
(0.00135578 -0.00146485 8.74374e-21)
(0.00128806 -0.00151735 1.0803e-20)
(0.00117338 -0.00161218 -4.28338e-21)
(0.00112602 -0.00165361 -3.07992e-21)
(0.00107895 -0.00169596 1.20588e-20)
(0.00103217 -0.00173916 5.88918e-21)
(0.000985733 -0.0017832 -1.20217e-20)
(0.000939727 -0.00182806 -3.20744e-21)
(0.00089421 -0.00187372 1.01006e-20)
(0.000849249 -0.00192014 1.43874e-21)
(0.000804911 -0.00196729 -1.40432e-20)
(0.00076127 -0.00201511 -1.59089e-20)
(0.0007184 -0.00206354 -6.41985e-21)
(0.000676381 -0.00211253 -4.89686e-22)
(0.000635297 -0.00216196 -4.82657e-22)
(0.00059523 -0.00221177 -9.56339e-22)
(0.000556269 -0.00226181 -1.20002e-23)
(0.000518493 -0.00231198 -4.94969e-21)
(0.000481983 -0.00236209 -9.38637e-21)
(0.000446804 -0.002412 -1.63971e-20)
(0.000413022 -0.00246152 -1.54575e-20)
(0.000380675 -0.00251047 5.88584e-22)
(0.000349802 -0.00255863 -2.62669e-21)
(0.000320416 -0.00260581 -3.22622e-21)
(0.000292525 -0.00265181 1.15793e-20)
(0.000266115 -0.00269642 9.09817e-21)
(0.000241169 -0.00273945 -8.85404e-22)
(0.00021765 -0.00278071 1.9569e-21)
(0.000195519 -0.00282002 1.91366e-21)
(0.000174723 -0.00285721 2.21725e-21)
(0.000155203 -0.00289211 3.89357e-21)
(0.000136892 -0.00292456 -1.73563e-21)
(0.000119714 -0.00295442 -4.10849e-21)
(0.000103587 -0.00298155 -2.39501e-21)
(8.84199e-05 -0.00300582 -2.26478e-22)
(7.41147e-05 -0.0030271 0)
(6.05662e-05 -0.00304531 1.42252e-22)
(4.76607e-05 -0.00306033 5.08253e-22)
(3.52791e-05 -0.0030721 2.94895e-21)
(2.32956e-05 -0.00308056 2.4256e-21)
(1.15803e-05 -0.00308565 4.63782e-22)
(0 -0.00308614 0)
(0 -0.00308485 0)
(0 -0.00308348 0)
(0 -0.00308205 0)
(0 -0.00308055 0)
(0 -0.00307898 0)
(0 -0.00307735 0)
(0 -0.00307566 0)
(0 -0.00307391 0)
(0 -0.00307211 0)
(0 -0.00307025 0)
(0 -0.00306834 0)
(0 -0.00306639 0)
(0 -0.00306438 0)
(0 -0.00306234 0)
(0 -0.00306025 0)
(0 -0.00305813 0)
(0 -0.00305596 0)
(0 -0.00305376 0)
(0 -0.00305153 0)
(0 -0.00304926 0)
(0 -0.00304696 0)
(0 -0.00304464 0)
(0 -0.00304228 0)
(0 -0.0030399 0)
(0 -0.0030375 0)
(0 -0.00303507 0)
(0 -0.00303263 0)
(0 -0.00303016 0)
(0 -0.00302767 0)
(0 -0.00302517 0)
(0 -0.00302265 0)
(0 -0.00302011 0)
(0 -0.00301757 0)
(0 -0.00301501 0)
(0 -0.00301243 0)
(0 -0.00300985 0)
(0 -0.00300726 0)
(0 -0.00300466 0)
(0 -0.00300205 0)
(0 -0.00299944 0)
(0 -0.00299682 0)
(0 -0.00299419 0)
(0 -0.00299156 0)
(0 -0.00298893 0)
(0 -0.0029863 0)
(0 -0.00298366 0)
(0 -0.00298103 0)
(0 -0.00297839 0)
(0 -0.00297575 0)
(0 -0.00297312 0)
(0 -0.00297049 0)
(0 -0.00296786 0)
(0 -0.00296523 0)
(0 -0.00296261 0)
(0 -0.00295999 0)
(0 -0.00295737 0)
(0 -0.00295476 0)
(0 -0.00295216 0)
(0 -0.00294956 0)
(0 -0.00294696 0)
(0 -0.00294437 0)
(0 -0.00294179 0)
(0 -0.00293921 0)
(0 -0.00293664 0)
(0 -0.00293408 0)
(0 -0.00293152 0)
(0 -0.00292896 0)
(0 -0.00292641 0)
(0 -0.00292387 0)
(0 -0.00292133 0)
(0 -0.00291879 0)
(0 -0.00291625 0)
(0 -0.00291371 0)
(0 -0.00291118 0)
(0 -0.00290863 0)
(0 -0.00290609 0)
(0 -0.00290353 0)
(0 -0.00290097 0)
(0 -0.0028932 0)
(0 -0.00288787 0)
(0 -0.0028822 0)
(0 -0.00287595 0)
(0 -0.00286897 0)
(0 -0.00286111 0)
(0 -0.00285223 0)
(0 -0.0028422 0)
(0 -0.00283086 0)
(0 -0.00281813 0)
(0 -0.00280387 0)
(0 -0.00278799 0)
(0 -0.00277041 0)
(0 -0.00275103 0)
(0 -0.00272982 0)
(0 -0.0027067 0)
(0 -0.00268162 0)
(0 -0.00265458 0)
(0 -0.00262549 0)
(0 -0.00259437 0)
(0 -0.00256116 0)
(0 -0.00252585 0)
(0 -0.00248842 0)
(0 -0.00244885 0)
(0 -0.0024071 0)
(0 -0.00236321 0)
(0 -0.00231711 0)
(0 -0.00226884 0)
(0 -0.00221837 0)
(0 -0.00216574 0)
(0 -0.00211093 0)
(0 -0.002054 0)
(0 -0.00199496 0)
(0 -0.0019339 0)
(0 -0.00187085 0)
(0 -0.00180594 0)
(0 -0.00173923 0)
(0 -0.00167089 0)
(0 -0.00160101 0)
(0.0026926 -0.000792875 0)
(0.00273761 -0.000746198 0)
(0.00278207 -0.000701961 0)
(0.00282583 -0.000660147 0)
(0.00286896 -0.000620791 0)
(0.00291143 -0.000583703 0)
(0.00295326 -0.000548946 0)
(0.00299444 -0.000516323 0)
(0.00303499 -0.000485857 0)
(0.00307491 -0.000457382 0)
(0.00311423 -0.000430882 0)
(0.00315296 -0.000406215 0)
(0.00319112 -0.000383345 0)
(0.00322874 -0.000362151 0)
(0.00326583 -0.000342578 0)
(0.00330243 -0.000324534 0)
(0.00333856 -0.000307946 0)
(0.00337424 -0.000292732 0)
(0.0034095 -0.000278823 0)
(0.00344436 -0.000266142 0)
(0.00347885 -0.000254627 0)
(0.003513 -0.000244206 0)
(0.00354682 -0.000234821 0)
(0.00358035 -0.000226402 0)
(0.00361359 -0.000218895 0)
(0.00364658 -0.000212242 0)
(0.00367933 -0.000206388 0)
(0.00371187 -0.000201283 0)
(0.0037442 -0.000196875 0)
(0.00377635 -0.000193117 0)
(0.00380834 -0.000189964 0)
(0.00384018 -0.000187362 0)
(0.00387189 -0.000185275 0)
(0.00390347 -0.00018366 0)
(0.00393494 -0.000182478 0)
(0.00396631 -0.000181692 0)
(0.0039976 -0.000181262 0)
(0.00402881 -0.000181156 0)
(0.00405995 -0.000181337 0)
(0.00409102 -0.000181774 0)
(0.00412205 -0.000182433 0)
(0.00415302 -0.000183287 0)
(0.00418396 -0.000184302 0)
(0.00421485 -0.000185451 0)
(0.00424571 -0.000186706 0)
(0.00427654 -0.000188039 0)
(0.00430735 -0.000189425 0)
(0.00433813 -0.000190838 0)
(0.00436889 -0.000192254 0)
(0.00439963 -0.000193649 0)
(0.00443035 -0.000194998 0)
(0.00446105 -0.000196278 0)
(0.00449173 -0.000197469 0)
(0.00452239 -0.000198546 0)
(0.00455304 -0.000199488 0)
(0.00458366 -0.000200274 0)
(0.00461426 -0.000200883 0)
(0.00464484 -0.000201293 0)
(0.00467539 -0.000201483 0)
(0.00470591 -0.000201433 0)
(0.00473641 -0.00020112 0)
(0.00476687 -0.000200524 0)
(0.0047973 -0.000199624 0)
(0.0048277 -0.000198395 0)
(0.00485805 -0.000196817 0)
(0.00488837 -0.000194865 0)
(0.00491865 -0.000192516 0)
(0.00494888 -0.000189743 0)
(0.00497907 -0.00018652 0)
(0.00500921 -0.000182813 0)
(0.00503932 -0.000178606 0)
(0.00506937 -0.000173855 0)
(0.00509939 -0.000168531 0)
(0.00512935 -0.00016259 0)
(0.00515928 -0.000156003 0)
(0.00518917 -0.000148711 0)
(0.00521903 -0.000140685 0)
(0.00524885 -0.000131853 0)
(0.00527865 -0.000122181 0)
(0.00261083 -0.000858668 0)
(0.0025898 -0.000867813 0)
(0.00256888 -0.000877009 0)
(0.00254812 -0.000886213 0)
(0.00252749 -0.000895457 0)
(0.00250701 -0.000904716 0)
(0.00248667 -0.000914005 0)
(0.00246646 -0.000923311 0)
(0.0024464 -0.000932639 0)
(0.00242649 -0.000941982 0)
(0.00240672 -0.00095134 0)
(0.00238708 -0.000960709 0)
(0.0023676 -0.00097009 0)
(0.00234824 -0.000979473 0)
(0.00232903 -0.000988855 0)
(0.00230996 -0.000998244 0)
(0.00229103 -0.00100763 0)
(0.00227224 -0.00101701 0)
(0.00225357 -0.00102638 0)
(0.00223505 -0.00103575 0)
(0.00221665 -0.0010451 0)
(0.00219839 -0.00105444 0)
(0.00218024 -0.00106378 0)
(0.00216222 -0.00107309 0)
(0.00214431 -0.00108239 0)
(0.00212651 -0.00109168 0)
(0.00210882 -0.00110093 0)
(0.00209125 -0.00111018 0)
(0.00207378 -0.0011194 0)
(0.00205641 -0.0011286 0)
(0.00203914 -0.00113777 0)
(0.00202197 -0.00114693 0)
(0.00200489 -0.00115605 0)
(0.00198789 -0.00116516 0)
(0.00197098 -0.00117424 0)
(0.00195415 -0.00118329 0)
(0.00193739 -0.00119232 0)
(0.00192071 -0.00120132 0)
(0.00190409 -0.00121029 0)
(0.00188754 -0.00121924 0)
(0.00187104 -0.00122817 0)
(0.0018546 -0.00123707 0)
(0.00183821 -0.00124594 0)
(0.00182187 -0.0012548 0)
(0.00180557 -0.00126362 0)
(0.00178931 -0.00127242 0)
(0.00177309 -0.0012812 0)
(0.0017569 -0.00128995 0)
(0.00174074 -0.00129869 0)
(0.00172459 -0.0013074 0)
(0.00170847 -0.00131609 0)
(0.00169236 -0.00132476 0)
(0.00167626 -0.00133342 0)
(0.00166016 -0.00134206 0)
(0.00164406 -0.00135068 0)
(0.00162796 -0.00135928 0)
(0.00161184 -0.00136788 0)
(0.00159571 -0.00137646 0)
(0.00157956 -0.00138504 0)
(0.00156338 -0.0013936 0)
(0.00154717 -0.00140217 0)
(0.00153093 -0.00141073 0)
(0.00151463 -0.00141929 0)
(0.0014983 -0.00142785 0)
(0.0014819 -0.00143642 0)
(0.00146544 -0.001445 0)
(0.00144892 -0.00145358 0)
(0.00143233 -0.00146219 0)
(0.00141565 -0.00147081 0)
(0.00139889 -0.00147945 0)
(0.00138203 -0.00148812 0)
(0.00136507 -0.00149682 0)
(0.00134801 -0.00150554 0)
(0.00133083 -0.0015143 0)
(0.00131353 -0.0015231 0)
(0.0012961 -0.00153193 0)
(0.00127856 -0.0015408 0)
(0.00126091 -0.00154973 0)
(0.00124324 -0.00155878 0)
(0.000136258 -0.00153252 5.95416e-20)
(0.000271516 -0.00154075 -1.79329e-20)
(0.000404859 -0.0015543 -5.68467e-20)
(0.000535498 -0.00157282 -2.00277e-20)
(0.000662832 -0.00159585 1.53379e-20)
(0.000786525 -0.00162279 -2.34528e-21)
(0.000906497 -0.00165284 -1.748e-20)
(0.00102285 -0.00168521 1.67696e-21)
(0.00113582 -0.00171915 3.15124e-20)
(0.00124564 -0.00175399 1.73908e-20)
(0.00135239 -0.00178921 1.45875e-20)
(0.00145602 -0.0018243 2.8272e-20)
(0.00155623 -0.0018587 -3.30614e-23)
(0.00165256 -0.00189148 1.24881e-20)
(0.00174446 -0.00192124 5.90371e-22)
(0.00183141 -0.00194643 -2.31136e-20)
(0.00191311 -0.0019656 -2.84804e-20)
(0.00198909 -0.00197683 -2.48171e-20)
(0.00205873 -0.00197747 1.09063e-20)
(0.00212193 -0.00196574 3.45945e-20)
(0.00217994 -0.001943 1.61714e-20)
(0.002235 -0.00191352 -1.75876e-20)
(0.00228922 -0.00188149 -2.26097e-20)
(0.00234349 -0.00184888 -8.6989e-21)
(0.00239772 -0.00181606 -1.68216e-20)
(0.00245178 -0.00178302 7.86796e-21)
(0.00250556 -0.00174976 2.51574e-20)
(0.00255897 -0.00171628 2.38539e-22)
(0.00261195 -0.00168261 -2.11286e-21)
(0.00266441 -0.00164875 -1.10589e-20)
(0.0027163 -0.00161472 -1.12539e-20)
(0.00276756 -0.00158055 8.13135e-21)
(0.00281814 -0.00154626 1.4349e-20)
(0.002868 -0.00151187 1.55834e-20)
(0.00291711 -0.00147739 2.39894e-20)
(0.00296541 -0.00144287 1.1765e-20)
(0.0030129 -0.00140831 -1.72869e-20)
(0.00305952 -0.00137374 -5.70737e-21)
(0.00310527 -0.00133917 8.26852e-21)
(0.00319403 -0.00127011 5.66121e-22)
(0.00323701 -0.00123565 -5.29023e-21)
(0.00327902 -0.00120127 -2.02288e-22)
(0.00332006 -0.00116695 -5.76973e-21)
(0.00336009 -0.00113272 -2.32761e-20)
(0.00339913 -0.00109859 5.96576e-23)
(0.00343714 -0.00106456 6.20679e-21)
(0.00347412 -0.00103064 -4.78068e-21)
(0.00351005 -0.000996838 6.42966e-21)
(0.00354493 -0.000963155 5.95951e-21)
(0.00357875 -0.000929595 5.11093e-21)
(0.0036115 -0.000896158 9.2137e-21)
(0.00364317 -0.000862847 3.12924e-21)
(0.00367376 -0.000829661 -1.39725e-20)
(0.00370325 -0.000796599 -1.07179e-20)
(0.00373163 -0.000763661 1.67144e-20)
(0.00375891 -0.000730844 1.86721e-20)
(0.00378508 -0.000698147 1.43613e-21)
(0.00381012 -0.000665565 -6.70745e-21)
(0.00383404 -0.000633098 -9.19489e-21)
(0.00385683 -0.000600738 -3.66933e-21)
(0.00387848 -0.000568485 -6.689e-23)
(0.00389899 -0.000536331 -1.70014e-21)
(0.00391835 -0.000504275 1.19711e-21)
(0.00393656 -0.000472308 -3.48346e-21)
(0.00395362 -0.000440427 -1.2685e-20)
(0.00396952 -0.000408626 3.71417e-22)
(0.00398426 -0.000376898 1.09375e-20)
(0.00399783 -0.000345243 4.64054e-21)
(0.00401023 -0.000313652 4.19943e-21)
(0.00402145 -0.000282119 -2.97658e-21)
(0.00403151 -0.00025064 -2.31044e-21)
(0.00404038 -0.000219207 8.89663e-21)
(0.00404808 -0.000187816 6.13209e-21)
(0.00405459 -0.000156459 -2.21182e-21)
(0.00405993 -0.000125132 -7.43721e-21)
(0.00406408 -9.38286e-05 -8.47434e-21)
(0.00406704 -6.25427e-05 -3.30273e-21)
(0.00406882 -3.12684e-05 2.36457e-21)
(0.00312421 -0.00128143 0)
(0.00309947 -0.0012594 0)
(0.00307579 -0.00123842 0)
(0.00305313 -0.00121844 0)
(0.00303142 -0.00119938 0)
(0.00301063 -0.00118121 0)
(0.00299069 -0.00116385 0)
(0.00297159 -0.00114728 0)
(0.00295327 -0.00113142 0)
(0.0029357 -0.00111626 0)
(0.00291883 -0.00110174 0)
(0.00290265 -0.00108784 0)
(0.00288712 -0.00107451 0)
(0.00287221 -0.00106173 0)
(0.00285789 -0.00104946 0)
(0.00284413 -0.00103768 0)
(0.00283092 -0.00102636 0)
(0.00281823 -0.00101548 0)
(0.00280603 -0.00100501 0)
(0.00279432 -0.000994928 0)
(0.00278306 -0.000985222 0)
(0.00277224 -0.000975866 0)
(0.00276185 -0.000966845 0)
(0.00275186 -0.000958137 0)
(0.00274226 -0.000949732 0)
(0.00273303 -0.000941608 0)
(0.00272417 -0.000933756 0)
(0.00271566 -0.000926157 0)
(0.00270748 -0.000918804 0)
(0.00269962 -0.000911679 0)
(0.00269207 -0.000904776 0)
(0.00268482 -0.000898079 0)
(0.00267786 -0.000891584 0)
(0.00267118 -0.000885275 0)
(0.00266477 -0.000879151 0)
(0.00265863 -0.000873197 0)
(0.00265272 -0.000867413 0)
(0.00264709 -0.000861791 0)
(0.00264167 -0.00085633 0)
(0.00312421 -0.00128143 0)
(0.00309947 -0.0012594 0)
(0.00307579 -0.00123842 0)
(0.00305313 -0.00121844 0)
(0.00303142 -0.00119938 0)
(0.00301063 -0.00118121 0)
(0.00299069 -0.00116385 0)
(0.00297159 -0.00114728 0)
(0.00295327 -0.00113142 0)
(0.0029357 -0.00111626 0)
(0.00291883 -0.00110174 0)
(0.00290265 -0.00108784 0)
(0.00288712 -0.00107451 0)
(0.00287221 -0.00106173 0)
(0.00285789 -0.00104946 0)
(0.00284413 -0.00103768 0)
(0.00283092 -0.00102636 0)
(0.00281823 -0.00101548 0)
(0.00280603 -0.00100501 0)
(0.00279432 -0.000994928 0)
(0.00278306 -0.000985222 0)
(0.00277224 -0.000975866 0)
(0.00276185 -0.000966845 0)
(0.00275186 -0.000958137 0)
(0.00274226 -0.000949732 0)
(0.00273303 -0.000941608 0)
(0.00272417 -0.000933756 0)
(0.00271566 -0.000926157 0)
(0.00270748 -0.000918804 0)
(0.00269962 -0.000911679 0)
(0.00269207 -0.000904776 0)
(0.00268482 -0.000898079 0)
(0.00267786 -0.000891584 0)
(0.00267118 -0.000885275 0)
(0.00266477 -0.000879151 0)
(0.00265863 -0.000873197 0)
(0.00265272 -0.000867413 0)
(0.00264709 -0.000861791 0)
(0.00264167 -0.00085633 0)
(0.00256813 -0.000900245 0)
(0.00250323 -0.000947281 0)
(0.00243816 -0.000995495 0)
(0.00237274 -0.00104504 0)
(0.00230716 -0.00109573 0)
(0.00224136 -0.00114761 0)
(0.00217547 -0.00120057 0)
(0.00210947 -0.00125458 0)
(0.00204344 -0.00130957 0)
(0.00197741 -0.00136546 0)
(0.00191141 -0.00142219 0)
(0.00184548 -0.00147966 0)
(0.00177966 -0.00153778 0)
(0.00171397 -0.00159645 0)
(0.00164843 -0.00165553 0)
(0.00158308 -0.00171489 0)
(0.00151793 -0.00177432 0)
(0.00145312 -0.0018335 0)
(0.00138849 -0.0018925 0)
(0.00132332 -0.00195187 0)
(0.0012567 -0.00201252 0)
(0.00118784 -0.00207529 0)
(0.00111656 -0.00214045 0)
(0.00104343 -0.00220745 0)
(0.00096933 -0.00227521 0)
(0.000895103 -0.00234262 0)
(0.000821334 -0.00240882 0)
(0.00074848 -0.00247306 0)
(0.000676908 -0.00253461 0)
(0.000606934 -0.0025928 0)
(0.000538812 -0.00264701 0)
(0.000472703 -0.00269672 0)
(0.000408675 -0.00274149 0)
(0.000346658 -0.00278103 0)
(0.000286454 -0.00281515 0)
(0.000227741 -0.00284374 0)
(0.000170082 -0.00286669 0)
(0.000113059 -0.00288367 0)
(5.64253e-05 -0.00289418 0)
(0 -0.0028932 0)
(0 -0.00288787 0)
(0 -0.0028822 0)
(0 -0.00287595 0)
(0 -0.00286897 0)
(0 -0.00286111 0)
(0 -0.00285223 0)
(0 -0.0028422 0)
(0 -0.00283086 0)
(0 -0.00281813 0)
(0 -0.00280387 0)
(0 -0.00278799 0)
(0 -0.00277041 0)
(0 -0.00275103 0)
(0 -0.00272982 0)
(0 -0.0027067 0)
(0 -0.00268162 0)
(0 -0.00265458 0)
(0 -0.00262549 0)
(0 -0.00259437 0)
(0 -0.00256116 0)
(0 -0.00252585 0)
(0 -0.00248842 0)
(0 -0.00244885 0)
(0 -0.0024071 0)
(0 -0.00236321 0)
(0 -0.00231711 0)
(0 -0.00226884 0)
(0 -0.00221837 0)
(0 -0.00216574 0)
(0 -0.00211093 0)
(0 -0.002054 0)
(0 -0.00199496 0)
(0 -0.0019339 0)
(0 -0.00187085 0)
(0 -0.00180594 0)
(0 -0.00173923 0)
(0 -0.00167089 0)
(0 -0.00160101 0)
(0.000136258 -0.00153252 5.95416e-20)
(0.000271516 -0.00154075 -1.79329e-20)
(0.000404859 -0.0015543 -5.68467e-20)
(0.000535498 -0.00157282 -2.00277e-20)
(0.000662832 -0.00159585 1.53379e-20)
(0.000786525 -0.00162279 -2.34528e-21)
(0.000906497 -0.00165284 -1.748e-20)
(0.00102285 -0.00168521 1.67696e-21)
(0.00113582 -0.00171915 3.15124e-20)
(0.00124564 -0.00175399 1.73908e-20)
(0.00135239 -0.00178921 1.45875e-20)
(0.00145602 -0.0018243 2.8272e-20)
(0.00155623 -0.0018587 -3.30614e-23)
(0.00165256 -0.00189148 1.24881e-20)
(0.00174446 -0.00192124 5.90371e-22)
(0.00183141 -0.00194643 -2.31136e-20)
(0.00191311 -0.0019656 -2.84804e-20)
(0.00198909 -0.00197683 -2.48171e-20)
(0.00205873 -0.00197747 1.09063e-20)
(0.00212193 -0.00196574 3.45945e-20)
(0.00217994 -0.001943 1.61714e-20)
(0.002235 -0.00191352 -1.75876e-20)
(0.00228922 -0.00188149 -2.26097e-20)
(0.00234349 -0.00184888 -8.6989e-21)
(0.00239772 -0.00181606 -1.68216e-20)
(0.00245178 -0.00178302 7.86796e-21)
(0.00250556 -0.00174976 2.51574e-20)
(0.00255897 -0.00171628 2.38539e-22)
(0.00261195 -0.00168261 -2.11286e-21)
(0.00266441 -0.00164875 -1.10589e-20)
(0.0027163 -0.00161472 -1.12539e-20)
(0.00276756 -0.00158055 8.13135e-21)
(0.00281814 -0.00154626 1.4349e-20)
(0.002868 -0.00151187 1.55834e-20)
(0.00291711 -0.00147739 2.39894e-20)
(0.00296541 -0.00144287 1.1765e-20)
(0.0030129 -0.00140831 -1.72869e-20)
(0.00305952 -0.00137374 -5.70737e-21)
(0.00310527 -0.00133917 8.26852e-21)
(0.00319403 -0.00127011 5.66121e-22)
(0.00323701 -0.00123565 -5.29023e-21)
(0.00327902 -0.00120127 -2.02288e-22)
(0.00332006 -0.00116695 -5.76973e-21)
(0.00336009 -0.00113272 -2.32761e-20)
(0.00339913 -0.00109859 5.96576e-23)
(0.00343714 -0.00106456 6.20679e-21)
(0.00347412 -0.00103064 -4.78068e-21)
(0.00351005 -0.000996838 6.42966e-21)
(0.00354493 -0.000963155 5.95951e-21)
(0.00357875 -0.000929595 5.11093e-21)
(0.0036115 -0.000896158 9.2137e-21)
(0.00364317 -0.000862847 3.12924e-21)
(0.00367376 -0.000829661 -1.39725e-20)
(0.00370325 -0.000796599 -1.07179e-20)
(0.00373163 -0.000763661 1.67144e-20)