/*--------------------------------*- C++ -*----------------------------------*\
| =========                 |                                                 |
| \\      /  F ield         | OpenFOAM: The Open Source CFD Toolbox           |
|  \\    /   O peration     | Version:  v2012                                 |
|   \\  /    A nd           | Website:  www.openfoam.com                      |
|    \\/     M anipulation  |                                                 |
\*---------------------------------------------------------------------------*/
FoamFile
{
    version     2.0;
    format      ascii;
    class       volSymmTensorField;
    location    "7";
    object      epsilonP;
}
// * * * * * * * * * * * * * * * * * * * * * * * * * * * * * * * * * * * * * //

dimensions      [0 0 0 0 0 0 0];


internalField   nonuniform List<symmTensor> 
32000
(
(0.00342346 -8.58689e-05 -2.61786e-18 -0.00291785 1.68513e-19 -0.000505611)
(0.00279406 -4.59902e-05 -3.99447e-18 -0.00233209 6.08659e-19 -0.000461969)
(0.00291709 -6.21806e-05 0 -0.00243355 0 -0.000483542)
(0.00255272 -4.65202e-05 1.24644e-18 -0.00211066 8.46391e-19 -0.000442063)
(0.00260886 -5.32075e-05 5.76641e-18 -0.00215302 -6.08116e-19 -0.000455834)
(0.00235828 -4.19272e-05 3.79824e-18 -0.0019332 -3.10021e-19 -0.000425078)
(0.002352 -4.75616e-05 4.3819e-18 -0.00192182 8.82144e-19 -0.000430178)
(0.00215863 -3.58727e-05 1.87846e-18 -0.00175015 -5.93499e-19 -0.000408484)
(0.00211747 -4.31367e-05 0 -0.00171253 0 -0.000404941)
(0.00195945 -3.01346e-05 -9.98379e-20 -0.00157036 4.09761e-19 -0.000389093)
(0.00189677 -3.91849e-05 2.60324e-18 -0.00151821 9.81661e-20 -0.000378566)
(0.00176187 -2.49689e-05 5.6904e-19 -0.00139573 -5.8763e-19 -0.000366141)
(0.00168375 -3.53571e-05 1.45183e-18 -0.00133339 -4.00539e-19 -0.000350365)
(0.00156454 -2.01897e-05 1.24844e-18 -0.00122511 2.44e-19 -0.000339424)
(0.00147429 -3.16229e-05 1.53824e-18 -0.00115459 8.25988e-19 -0.000319706)
(0.00136612 -1.61875e-05 -1.41077e-18 -0.00105705 -7.32183e-19 -0.000309074)
(0.00126655 -2.79546e-05 -4.61751e-18 -0.000980458 1.25004e-19 -0.000286089)
(0.0011675 -1.24134e-05 -3.66011e-18 -0.00089165 2.0387e-19 -0.000275847)
(0.00105983 -2.4174e-05 -2.0461e-18 -0.000810818 -3.36323e-19 -0.000249016)
(0.000970112 -9.11463e-06 -1.36691e-18 -0.000731188 -5.58791e-20 -0.000238925)
(0.000852299 -2.00368e-05 -4.59318e-19 -0.000644057 -2.11708e-19 -0.000208242)
(0.000773216 -6.10253e-06 -4.11458e-19 -0.000575224 -1.83552e-19 -0.000197992)
(0.000643011 -1.56201e-05 -9.07344e-19 -0.000479603 -4.05214e-20 -0.000163408)
(0.000573338 -3.99662e-06 -5.07008e-19 -0.000420817 9.20829e-20 -0.000152521)
(0.000434165 -1.10538e-05 0 -0.000319263 0 -0.000114902)
(0.000375573 -1.9346e-06 -4.10273e-19 -0.000270977 -1.07947e-19 -0.000104596)
(0.000224639 -6.10792e-06 -5.15001e-19 -0.00016293 1.89122e-20 -6.17093e-05)
(0.00017338 -7.32915e-07 -3.09689e-19 -0.000122641 2.0543e-20 -5.0739e-05)
(6.08183e-07 -1.72447e-08 -3.47924e-22 -4.27901e-07 -1.20091e-22 -1.80282e-07)
(0 0 0 0 0 0)
(0 0 0 0 0 0)
(0 0 0 0 0 0)
(0 0 0 0 0 0)
(0 0 0 0 0 0)
(0 0 0 0 0 0)
(0 0 0 0 0 0)
(0 0 0 0 0 0)
(0 0 0 0 0 0)
(0 0 0 0 0 0)
(0 0 0 0 0 0)
(0 0 0 0 0 0)
(0 0 0 0 0 0)
(0 0 0 0 0 0)
(0 0 0 0 0 0)
(0 0 0 0 0 0)
(0 0 0 0 0 0)
(0 0 0 0 0 0)
(0 0 0 0 0 0)
(0 0 0 0 0 0)
(0 0 0 0 0 0)
(0 0 0 0 0 0)
(0 0 0 0 0 0)
(0 0 0 0 0 0)
(0 0 0 0 0 0)
(0 0 0 0 0 0)
(0 0 0 0 0 0)
(0 0 0 0 0 0)
(0 0 0 0 0 0)
(0 0 0 0 0 0)
(0 0 0 0 0 0)
(0 0 0 0 0 0)
(0 0 0 0 0 0)
(0 0 0 0 0 0)
(0 0 0 0 0 0)
(0 0 0 0 0 0)
(0 0 0 0 0 0)
(0 0 0 0 0 0)
(0 0 0 0 0 0)
(0 0 0 0 0 0)
(0 0 0 0 0 0)
(0 0 0 0 0 0)
(0 0 0 0 0 0)
(0 0 0 0 0 0)
(0 0 0 0 0 0)
(0 0 0 0 0 0)
(0 0 0 0 0 0)
(0 0 0 0 0 0)
(0 0 0 0 0 0)
(0 0 0 0 0 0)
(0 0 0 0 0 0)
(0.00263359 -0.000143347 6.99235e-19 -0.00222942 -3.14398e-19 -0.000404172)
(0.00277689 -0.000149657 2.37073e-18 -0.00230546 -8.62172e-19 -0.000471424)
(0.00252195 -0.000137639 2.13174e-18 -0.00210273 -7.7303e-19 -0.000419224)
(0.00258119 -0.000137203 3.37802e-18 -0.00212453 6.76568e-19 -0.000456662)
(0.00237926 -0.000129681 1.76887e-18 -0.00197055 4.47462e-19 -0.000408701)
(0.00238879 -0.000125165 2.03796e-18 -0.00195099 -6.72251e-19 -0.000437803)
(0.0021966 -0.00011969 -1.84385e-18 -0.00180308 5.97538e-19 -0.000393516)
(0.00218505 -0.000112096 -1.86487e-18 -0.00176699 5.79738e-19 -0.00041806)
(0.0019981 -0.000108976 5.56658e-19 -0.00162327 -7.05162e-19 -0.000374828)
(0.00197944 -9.88714e-05 1.62227e-18 -0.0015838 -8.19964e-20 -0.000395645)
(0.00179391 -9.79676e-05 2.9679e-18 -0.00144151 -4.74341e-19 -0.000352409)
(0.00177323 -8.59876e-05 3.9276e-18 -0.00140343 5.44027e-20 -0.000369804)
(0.00158705 -8.66367e-05 1.27839e-18 -0.00126078 3.05922e-19 -0.000326272)
(0.00156604 -7.36693e-05 2.18379e-18 -0.00122545 1.11031e-19 -0.000340594)
(0.00137998 -7.51483e-05 7.57292e-19 -0.00108323 4.02245e-19 -0.000296748)
(0.00135863 -6.17762e-05 7.59294e-19 -0.00105076 1.25958e-19 -0.000307868)
(0.00117361 -6.3752e-05 6.55151e-19 -0.000909494 1.04666e-19 -0.000264116)
(0.00115083 -5.05234e-05 0 -0.000878915 0 -0.000271916)
(0.000967521 -5.25692e-05 0 -0.000739966 0 -0.000227555)
(0.000943445 -3.96346e-05 -1.24044e-21 -0.000711221 -1.60344e-19 -0.000232224)
(0.000762253 -4.13236e-05 -1.71881e-18 -0.000575379 4.24141e-20 -0.000186874)
(0.000737126 -2.97216e-05 -1.27661e-18 -0.000548346 -2.46197e-20 -0.00018878)
(0.000559758 -3.01603e-05 -6.48569e-19 -0.000416789 -2.84748e-19 -0.000142969)
(0.000535033 -2.05128e-05 3.06896e-19 -0.000392785 1.3179e-19 -0.000142249)
(0.000363379 -1.94004e-05 3.1711e-19 -0.000266194 1.26852e-20 -9.71849e-05)
(0.000336206 -1.22563e-05 2.88469e-19 -0.00024304 -3.65301e-20 -9.3166e-05)
(0.000169823 -9.09991e-06 -4.82183e-20 -0.000122258 3.24242e-20 -4.75649e-05)
(0.000138345 -4.68092e-06 -1.23511e-19 -9.79466e-05 -6.88843e-21 -4.03983e-05)
(0 0 0 0 0 0)
(0 0 0 0 0 0)
(0 0 0 0 0 0)
(0 0 0 0 0 0)
(0 0 0 0 0 0)
(0 0 0 0 0 0)
(0 0 0 0 0 0)
(0 0 0 0 0 0)
(0 0 0 0 0 0)
(0 0 0 0 0 0)
(0 0 0 0 0 0)
(0 0 0 0 0 0)
(0 0 0 0 0 0)
(0 0 0 0 0 0)
(0 0 0 0 0 0)
(0 0 0 0 0 0)
(0 0 0 0 0 0)
(0 0 0 0 0 0)
(0 0 0 0 0 0)
(0 0 0 0 0 0)
(0 0 0 0 0 0)
(0 0 0 0 0 0)
(0 0 0 0 0 0)
(0 0 0 0 0 0)
(0 0 0 0 0 0)
(0 0 0 0 0 0)
(0 0 0 0 0 0)
(0 0 0 0 0 0)
(0 0 0 0 0 0)
(0 0 0 0 0 0)
(0 0 0 0 0 0)
(0 0 0 0 0 0)
(0 0 0 0 0 0)
(0 0 0 0 0 0)
(0 0 0 0 0 0)
(0 0 0 0 0 0)
(0 0 0 0 0 0)
(0 0 0 0 0 0)
(0 0 0 0 0 0)
(0 0 0 0 0 0)
(0 0 0 0 0 0)
(0 0 0 0 0 0)
(0 0 0 0 0 0)
(0 0 0 0 0 0)
(0 0 0 0 0 0)
(0 0 0 0 0 0)
(0 0 0 0 0 0)
(0 0 0 0 0 0)
(0 0 0 0 0 0)
(0 0 0 0 0 0)
(0 0 0 0 0 0)
(0 0 0 0 0 0)
(0.00295842 -0.00027437 -2.36882e-18 -0.00250902 3.22005e-19 -0.000449398)
(0.00274531 -0.000243239 -5.81303e-19 -0.00227617 4.96419e-19 -0.000469146)
(0.00262513 -0.000238968 -5.0824e-18 -0.00218756 -4.54588e-19 -0.000437574)
(0.00253554 -0.000223815 -2.01951e-18 -0.00208463 1.59599e-19 -0.000450907)
(0.00240115 -0.000217391 -1.30422e-18 -0.00198285 -8.21187e-19 -0.000418299)
(0.00233619 -0.000204086 2.60025e-18 -0.00190567 1.004e-18 -0.000430519)
(0.00218907 -0.000197358 4.80647e-18 -0.00178967 -4.0015e-19 -0.000399404)
(0.00212971 -0.000183476 4.6727e-18 -0.00172014 4.25422e-20 -0.000409569)
(0.00197923 -0.000177881 4.33294e-18 -0.00160054 1.28697e-19 -0.000378687)
(0.00192275 -0.000162821 4.28134e-18 -0.00153626 -3.12331e-19 -0.000386493)
(0.00176977 -0.000158554 -9.09337e-21 -0.00141523 3.75738e-19 -0.000354541)
(0.00171534 -0.000142341 -9.7943e-19 -0.00135523 -1.7756e-19 -0.000360108)
(0.00155973 -0.000139142 0 -0.00123313 0 -0.000326603)
(0.00150698 -0.000122222 8.59711e-19 -0.0011771 1.56582e-19 -0.000329882)
(0.00134853 -0.000119623 -3.37428e-19 -0.00105345 3.85826e-19 -0.000295078)
(0.0012979 -0.000102683 -3.43838e-19 -0.00100181 3.64201e-19 -0.000296088)
(0.00113754 -0.00010005 9.33344e-19 -0.000877498 -1.86186e-19 -0.000260038)
(0.00108927 -8.39256e-05 1.52997e-18 -0.00083051 -5.36297e-20 -0.000258757)
(0.000927968 -8.07771e-05 -2.3108e-19 -0.000706135 2.29308e-19 -0.000221832)
(0.000881604 -6.598e-05 -2.54236e-19 -0.000663082 6.51234e-20 -0.000218522)
(0.000719496 -6.21939e-05 -7.96704e-19 -0.000540006 1.2911e-19 -0.000179491)
(0.000677033 -4.87458e-05 -7.87816e-19 -0.000502318 1.0028e-20 -0.000174715)
(0.000514565 -4.40704e-05 -1.06006e-18 -0.000381123 -2.24567e-19 -0.000133441)
(0.000474541 -3.27818e-05 -4.15242e-19 -0.000347422 -2.91912e-20 -0.000127118)
(0.000312402 -2.6348e-05 -1.96873e-19 -0.000228217 -8.24066e-20 -8.41852e-05)
(0.00027135 -1.80554e-05 -1.549e-19 -0.000196112 -3.1025e-20 -7.52379e-05)
(0.000111674 -9.11087e-06 -2.72915e-20 -7.96594e-05 1.82978e-20 -3.20141e-05)
(7.0419e-05 -4.22748e-06 -1.03604e-19 -4.96025e-05 -1.52645e-20 -2.08166e-05)
(0 0 0 0 0 0)
(0 0 0 0 0 0)
(0 0 0 0 0 0)
(0 0 0 0 0 0)
(0 0 0 0 0 0)
(0 0 0 0 0 0)
(0 0 0 0 0 0)
(0 0 0 0 0 0)
(0 0 0 0 0 0)
(0 0 0 0 0 0)
(0 0 0 0 0 0)
(0 0 0 0 0 0)
(0 0 0 0 0 0)
(0 0 0 0 0 0)
(0 0 0 0 0 0)
(0 0 0 0 0 0)
(0 0 0 0 0 0)
(0 0 0 0 0 0)
(0 0 0 0 0 0)
(0 0 0 0 0 0)
(0 0 0 0 0 0)
(0 0 0 0 0 0)
(0 0 0 0 0 0)
(0 0 0 0 0 0)
(0 0 0 0 0 0)
(0 0 0 0 0 0)
(0 0 0 0 0 0)
(0 0 0 0 0 0)
(0 0 0 0 0 0)
(0 0 0 0 0 0)
(0 0 0 0 0 0)
(0 0 0 0 0 0)
(0 0 0 0 0 0)
(0 0 0 0 0 0)
(0 0 0 0 0 0)
(0 0 0 0 0 0)
(0 0 0 0 0 0)
(0 0 0 0 0 0)
(0 0 0 0 0 0)
(0 0 0 0 0 0)
(0 0 0 0 0 0)
(0 0 0 0 0 0)
(0 0 0 0 0 0)
(0 0 0 0 0 0)
(0 0 0 0 0 0)
(0 0 0 0 0 0)
(0 0 0 0 0 0)
(0 0 0 0 0 0)
(0 0 0 0 0 0)
(0 0 0 0 0 0)
(0 0 0 0 0 0)
(0 0 0 0 0 0)
(0.00277668 -0.000358365 3.26728e-18 -0.00234682 -2.17818e-21 -0.000429856)
(0.0026805 -0.000335377 -1.66864e-18 -0.00221981 3.23186e-19 -0.000460689)
(0.00252462 -0.000321441 4.94368e-18 -0.00209795 4.53853e-19 -0.000426662)
(0.00246916 -0.00030653 5.85669e-19 -0.00202652 -9.65348e-19 -0.000442642)
(0.00231942 -0.000293445 -2.39495e-18 -0.00191046 1.48689e-18 -0.000408959)
(0.00226557 -0.000278423 -5.00748e-18 -0.00184404 4.48926e-19 -0.000421527)
(0.00210825 -0.000265092 -7.47323e-19 -0.001719 -1.4581e-18 -0.000389251)
(0.00205423 -0.000248978 -1.90973e-18 -0.00165531 -1.17554e-18 -0.000398916)
(0.00189496 -0.000236662 -1.52903e-18 -0.00152781 4.24104e-19 -0.000367149)
(0.00184177 -0.000219821 -1.50974e-18 -0.00146828 7.79247e-19 -0.000373492)
(0.00168261 -0.000208654 2.39579e-20 -0.0013407 3.50873e-19 -0.000341902)
(0.00163014 -0.00019149 -9.82518e-19 -0.00128479 -8.19851e-19 -0.000345355)
(0.00147012 -0.000181073 2.52707e-19 -0.00115709 -1.01775e-18 -0.000313029)
(0.0014194 -0.000163477 3.86987e-19 -0.00110523 1.21017e-19 -0.000314171)
(0.00125764 -0.000153725 3.30299e-18 -0.000977675 7.22257e-19 -0.000279962)
(0.00120833 -0.000136073 2.80842e-19 -0.000929277 -3.22463e-19 -0.000279056)
(0.00104604 -0.000126664 -1.06553e-18 -0.00080297 4.01153e-19 -0.000243068)
(0.000997632 -0.000109427 -2.28646e-18 -0.000757692 -2.13432e-19 -0.00023994)
(0.000835323 -9.99686e-05 -7.61225e-19 -0.000632812 -2.00861e-19 -0.000202511)
(0.000788405 -8.39722e-05 -1.14047e-18 -0.000591506 -1.48803e-19 -0.000196899)
(0.000628155 -7.4012e-05 1.93919e-19 -0.000468974 1.04781e-19 -0.000159181)
(0.000581994 -6.02347e-05 2.09477e-19 -0.000430689 1.93264e-19 -0.000151305)
(0.000426177 -4.94709e-05 2.50767e-19 -0.000313441 5.47446e-20 -0.000112736)
(0.0003828 -3.81463e-05 4.75883e-19 -0.000279037 1.58761e-19 -0.000103763)
(0.000221627 -2.54049e-05 1.95965e-20 -0.000160528 3.28349e-20 -6.10988e-05)
(0.000175218 -1.66151e-05 2.0653e-19 -0.000125464 4.90388e-20 -4.97538e-05)
(6.95172e-06 -7.64135e-07 1.11044e-20 -4.88532e-06 1.77834e-22 -2.0664e-06)
(0 0 0 0 0 0)
(0 0 0 0 0 0)
(0 0 0 0 0 0)
(0 0 0 0 0 0)
(0 0 0 0 0 0)
(0 0 0 0 0 0)
(0 0 0 0 0 0)
(0 0 0 0 0 0)
(0 0 0 0 0 0)
(0 0 0 0 0 0)
(0 0 0 0 0 0)
(0 0 0 0 0 0)
(0 0 0 0 0 0)
(0 0 0 0 0 0)
(0 0 0 0 0 0)
(0 0 0 0 0 0)
(0 0 0 0 0 0)
(0 0 0 0 0 0)
(0 0 0 0 0 0)
(0 0 0 0 0 0)
(0 0 0 0 0 0)
(0 0 0 0 0 0)
(0 0 0 0 0 0)
(0 0 0 0 0 0)
(0 0 0 0 0 0)
(0 0 0 0 0 0)
(0 0 0 0 0 0)
(0 0 0 0 0 0)
(0 0 0 0 0 0)
(0 0 0 0 0 0)
(0 0 0 0 0 0)
(0 0 0 0 0 0)
(0 0 0 0 0 0)
(0 0 0 0 0 0)
(0 0 0 0 0 0)
(0 0 0 0 0 0)
(0 0 0 0 0 0)
(0 0 0 0 0 0)
(0 0 0 0 0 0)
(0 0 0 0 0 0)
(0 0 0 0 0 0)
(0 0 0 0 0 0)
(0 0 0 0 0 0)
(0 0 0 0 0 0)
(0 0 0 0 0 0)
(0 0 0 0 0 0)
(0 0 0 0 0 0)
(0 0 0 0 0 0)
(0 0 0 0 0 0)
(0 0 0 0 0 0)
(0 0 0 0 0 0)
(0 0 0 0 0 0)
(0 0 0 0 0 0)
(0.00273006 -0.000453545 -3.26843e-18 -0.00230199 4.60795e-20 -0.000428073)
(0.00259798 -0.000419325 3.16736e-18 -0.00214559 -5.94363e-21 -0.000452384)
(0.00244891 -0.000400906 -9.68518e-19 -0.00202863 -1.81422e-18 -0.00042028)
(0.00237995 -0.000381171 1.87632e-18 -0.00194742 4.11574e-19 -0.000432532)
(0.00223097 -0.00036253 2.68031e-18 -0.00183063 1.54288e-18 -0.000400346)
(0.00217061 -0.000344021 1.29428e-18 -0.00176094 7.17048e-19 -0.000409669)
(0.0020118 -0.000324683 -7.79538e-19 -0.00163329 -4.87474e-19 -0.000378514)
(0.00195343 -0.00030567 1.57533e-18 -0.00156808 -4.3934e-19 -0.000385353)
(0.00179235 -0.000287195 -1.07126e-18 -0.00143834 -2.14569e-19 -0.000354011)
(0.00173587 -0.000267596 -1.07063e-18 -0.00137779 -5.53436e-19 -0.00035808)
(0.00157425 -0.000250232 -5.52728e-20 -0.00124814 -3.20262e-19 -0.000326109)
(0.00151928 -0.000230051 4.49166e-20 -0.00119232 2.89447e-19 -0.000326957)
(0.00135763 -0.000213707 -1.56447e-18 -0.00106286 -7.79134e-20 -0.000294763)
(0.00130283 -0.000193669 -5.28036e-20 -0.00101058 -2.37527e-19 -0.000292254)
(0.00114344 -0.000177997 -1.44037e-18 -0.000883387 -5.09009e-19 -0.000260052)
(0.00108872 -0.000158593 0 -0.000833965 0 -0.000254755)
(0.000930916 -0.000143175 -1.70278e-19 -0.000709334 2.14359e-19 -0.000221582)
(0.00087786 -0.000124787 -1.28259e-18 -0.000663456 -1.89163e-19 -0.000214405)
(0.000719312 -0.000109274 -4.93812e-19 -0.000540408 -2.20608e-19 -0.000178903)
(0.00066836 -9.23258e-05 -9.05687e-19 -0.00049805 -4.02257e-19 -0.00017031)
(0.000509833 -7.63452e-05 -8.9234e-19 -0.00037781 -1.2258e-19 -0.000132023)
(0.000461049 -6.14925e-05 -1.04869e-18 -0.000339084 -1.13598e-19 -0.000121965)
(0.000295809 -4.34677e-05 -4.9193e-19 -0.000215944 -4.03736e-20 -7.98645e-05)
(0.000245961 -3.1654e-05 -5.85466e-19 -0.000178496 -1.11563e-19 -6.74648e-05)
(8.05691e-05 -1.14515e-05 -1.45179e-19 -5.73443e-05 -2.83901e-20 -2.32248e-05)
(3.16709e-05 -3.74204e-06 -3.05736e-20 -2.23816e-05 1.75257e-21 -9.28934e-06)
(0 0 0 0 0 0)
(0 0 0 0 0 0)
(0 0 0 0 0 0)
(0 0 0 0 0 0)
(0 0 0 0 0 0)
(0 0 0 0 0 0)
(0 0 0 0 0 0)
(0 0 0 0 0 0)
(0 0 0 0 0 0)
(0 0 0 0 0 0)
(0 0 0 0 0 0)
(0 0 0 0 0 0)
(0 0 0 0 0 0)
(0 0 0 0 0 0)
(0 0 0 0 0 0)
(0 0 0 0 0 0)
(0 0 0 0 0 0)
(0 0 0 0 0 0)
(0 0 0 0 0 0)
(0 0 0 0 0 0)
(0 0 0 0 0 0)
(0 0 0 0 0 0)
(0 0 0 0 0 0)
(0 0 0 0 0 0)
(0 0 0 0 0 0)
(0 0 0 0 0 0)
(0 0 0 0 0 0)
(0 0 0 0 0 0)
(0 0 0 0 0 0)
(0 0 0 0 0 0)
(0 0 0 0 0 0)
(0 0 0 0 0 0)
(0 0 0 0 0 0)
(0 0 0 0 0 0)
(0 0 0 0 0 0)
(0 0 0 0 0 0)
(0 0 0 0 0 0)
(0 0 0 0 0 0)
(0 0 0 0 0 0)
(0 0 0 0 0 0)
(0 0 0 0 0 0)
(0 0 0 0 0 0)
(0 0 0 0 0 0)
(0 0 0 0 0 0)
(0 0 0 0 0 0)
(0 0 0 0 0 0)
(0 0 0 0 0 0)
(0 0 0 0 0 0)
(0 0 0 0 0 0)
(0 0 0 0 0 0)
(0 0 0 0 0 0)
(0 0 0 0 0 0)
(0 0 0 0 0 0)
(0 0 0 0 0 0)
(0.0026122 -0.00053161 7.06304e-19 -0.00219295 5.85212e-19 -0.000419241)
(0.00247982 -0.000491117 -5.49891e-18 -0.00204149 1.67381e-18 -0.00043833)
(0.00233451 -0.000467994 4.24799e-19 -0.00192473 -3.40782e-19 -0.000409775)
(0.00225801 -0.000443434 3.19748e-18 -0.00184127 1.80401e-19 -0.000416744)
(0.00211247 -0.000420077 1.34079e-18 -0.001724 7.33741e-19 -0.000388474)
(0.0020444 -0.000397271 0 -0.0016521 0 -0.000392297)
(0.00188845 -0.000372505 1.47484e-18 -0.00152391 -3.89472e-19 -0.000364544)
(0.00182356 -0.000349728 3.73287e-18 -0.0014575 4.57094e-19 -0.000366056)
(0.00166373 -0.000325387 3.69089e-18 -0.00132627 -3.13935e-20 -0.000337458)
(0.00160263 -0.000302698 2.66099e-18 -0.00126588 6.11203e-20 -0.000336748)
(0.00144071 -0.000279169 3.2936e-18 -0.00113406 3.34349e-19 -0.000306643)
(0.00138253 -0.000256794 3.10248e-18 -0.00107849 4.82726e-20 -0.000304037)
(0.00121973 -0.000233973 1.59446e-18 -0.000947717 5.70194e-19 -0.000272016)
(0.00116388 -0.00021203 0 -0.000896353 0 -0.000267527)
(0.00099989 -0.000189622 7.71683e-19 -0.000766571 -8.58731e-20 -0.000233318)
(0.000946082 -0.000168426 1.47132e-18 -0.000719394 3.82515e-19 -0.000226689)
(0.000780512 -0.000146014 2.3243e-18 -0.000590124 4.18814e-19 -0.000190388)
(0.000728066 -0.000126231 1.20009e-18 -0.00054676 5.07386e-20 -0.000181306)
(0.000564466 -0.000103837 -1.60227e-20 -0.000420511 1.90444e-19 -0.000143955)
(0.000511096 -8.62373e-05 -4.49e-19 -0.000378888 -7.20006e-20 -0.000132208)
(0.000348498 -6.29235e-05 2.18249e-21 -0.00025541 -1.04026e-19 -9.30877e-05)
(0.000292581 -4.78248e-05 2.60198e-19 -0.000213598 4.99119e-20 -7.89825e-05)
(0.000132008 -2.32624e-05 1.86761e-19 -9.4683e-05 6.63016e-20 -3.73246e-05)
(7.98685e-05 -1.2331e-05 0 -5.6961e-05 0 -2.29075e-05)
(0 0 0 0 0 0)
(0 0 0 0 0 0)
(0 0 0 0 0 0)
(0 0 0 0 0 0)
(0 0 0 0 0 0)
(0 0 0 0 0 0)
(0 0 0 0 0 0)
(0 0 0 0 0 0)
(0 0 0 0 0 0)
(0 0 0 0 0 0)
(0 0 0 0 0 0)
(0 0 0 0 0 0)
(0 0 0 0 0 0)
(0 0 0 0 0 0)
(0 0 0 0 0 0)
(0 0 0 0 0 0)
(0 0 0 0 0 0)
(0 0 0 0 0 0)
(0 0 0 0 0 0)
(0 0 0 0 0 0)
(0 0 0 0 0 0)
(0 0 0 0 0 0)
(0 0 0 0 0 0)
(0 0 0 0 0 0)
(0 0 0 0 0 0)
(0 0 0 0 0 0)
(0 0 0 0 0 0)
(0 0 0 0 0 0)
(0 0 0 0 0 0)
(0 0 0 0 0 0)
(0 0 0 0 0 0)
(0 0 0 0 0 0)
(0 0 0 0 0 0)
(0 0 0 0 0 0)
(0 0 0 0 0 0)
(0 0 0 0 0 0)
(0 0 0 0 0 0)
(0 0 0 0 0 0)
(0 0 0 0 0 0)
(0 0 0 0 0 0)
(0 0 0 0 0 0)
(0 0 0 0 0 0)
(0 0 0 0 0 0)
(0 0 0 0 0 0)
(0 0 0 0 0 0)
(0 0 0 0 0 0)
(0 0 0 0 0 0)
(0 0 0 0 0 0)
(0 0 0 0 0 0)
(0 0 0 0 0 0)
(0 0 0 0 0 0)
(0 0 0 0 0 0)
(0 0 0 0 0 0)
(0 0 0 0 0 0)
(0 0 0 0 0 0)
(0 0 0 0 0 0)
(0.00246365 -0.000594565 7.37961e-19 -0.00205915 -5.88684e-19 -0.000404503)
(0.00234823 -0.00055194 3.70339e-18 -0.00192317 -1.25353e-18 -0.000425068)
(0.00218468 -0.000519947 1.68911e-18 -0.00179182 -5.27794e-19 -0.000392857)
(0.00211999 -0.000493725 5.77716e-18 -0.00171896 1.20158e-18 -0.000401033)
(0.00195858 -0.000462007 2.63362e-18 -0.00158935 1.36944e-18 -0.000369227)
(0.00189854 -0.000437186 -1.36277e-19 -0.00152494 -7.79379e-19 -0.000373598)
(0.00173052 -0.000404467 -3.94473e-18 -0.00138769 -3.31557e-19 -0.000342825)
(0.00167047 -0.000379333 -1.55105e-18 -0.00132672 8.21535e-19 -0.00034375)
(0.001502 -0.000347573 -1.90615e-18 -0.00118887 -4.27651e-19 -0.000313121)
(0.00144211 -0.000322287 -1.78291e-19 -0.00113169 -5.37667e-19 -0.000310422)
(0.00127519 -0.000291889 -3.78387e-18 -0.000995748 -5.73733e-19 -0.000279444)
(0.00121515 -0.000266659 -3.5195e-18 -0.00094195 -3.25753e-19 -0.0002732)
(0.0010496 -0.000237345 8.21936e-19 -0.00080817 -5.09948e-19 -0.000241426)
(0.000989117 -0.000212678 1.06876e-18 -0.000757091 3.37276e-20 -0.000232026)
(0.000825351 -0.000184115 9.33049e-20 -0.000626321 4.43096e-19 -0.00019903)
(0.00076495 -0.000160846 -1.7467e-19 -0.000577739 3.40096e-20 -0.00018721)
(0.000604358 -0.000132746 -4.05479e-19 -0.000451659 -3.06584e-19 -0.000152699)
(0.000544386 -0.000111589 1.28485e-19 -0.000405226 -1.31395e-20 -0.00013916)
(0.000383395 -8.2769e-05 2.68629e-19 -0.000281869 1.82762e-19 -0.000101526)
(0.000323892 -6.43676e-05 -2.89544e-19 -0.000237342 -6.26564e-20 -8.65499e-05)
(0.000160498 -3.39006e-05 -2.37784e-19 -0.000115717 -8.62819e-20 -4.47809e-05)
(0.000105564 -2.00356e-05 1.38729e-19 -7.57981e-05 4.49424e-20 -2.97658e-05)
(0 0 0 0 0 0)
(0 0 0 0 0 0)
(0 0 0 0 0 0)
(0 0 0 0 0 0)
(0 0 0 0 0 0)
(0 0 0 0 0 0)
(0 0 0 0 0 0)
(0 0 0 0 0 0)
(0 0 0 0 0 0)
(0 0 0 0 0 0)
(0 0 0 0 0 0)
(0 0 0 0 0 0)
(0 0 0 0 0 0)
(0 0 0 0 0 0)
(0 0 0 0 0 0)
(0 0 0 0 0 0)
(0 0 0 0 0 0)
(0 0 0 0 0 0)
(0 0 0 0 0 0)
(0 0 0 0 0 0)
(0 0 0 0 0 0)
(0 0 0 0 0 0)
(0 0 0 0 0 0)
(0 0 0 0 0 0)
(0 0 0 0 0 0)
(0 0 0 0 0 0)
(0 0 0 0 0 0)
(0 0 0 0 0 0)
(0 0 0 0 0 0)
(0 0 0 0 0 0)
(0 0 0 0 0 0)
(0 0 0 0 0 0)
(0 0 0 0 0 0)
(0 0 0 0 0 0)
(0 0 0 0 0 0)
(0 0 0 0 0 0)
(0 0 0 0 0 0)
(0 0 0 0 0 0)
(0 0 0 0 0 0)
(0 0 0 0 0 0)
(0 0 0 0 0 0)
(0 0 0 0 0 0)
(0 0 0 0 0 0)
(0 0 0 0 0 0)
(0 0 0 0 0 0)
(0 0 0 0 0 0)
(0 0 0 0 0 0)
(0 0 0 0 0 0)
(0 0 0 0 0 0)
(0 0 0 0 0 0)
(0 0 0 0 0 0)
(0 0 0 0 0 0)
(0 0 0 0 0 0)
(0 0 0 0 0 0)
(0 0 0 0 0 0)
(0 0 0 0 0 0)
(0 0 0 0 0 0)
(0 0 0 0 0 0)
(0.0023222 -0.000650035 3.54216e-18 -0.00192853 -6.99776e-19 -0.000393675)
(0.00218351 -0.000594506 1.98041e-18 -0.0017787 -1.3651e-18 -0.000404808)
(0.00202988 -0.000559664 -3.31889e-18 -0.00165323 1.59256e-18 -0.000376648)
(0.00194786 -0.000525308 -7.23366e-18 -0.00157032 -8.04326e-20 -0.000377537)
(0.00179305 -0.000489508 -1.59406e-18 -0.00144319 -4.26483e-19 -0.000349858)
(0.00172019 -0.000458377 -2.05087e-19 -0.00137292 5.56825e-19 -0.000347267)
(0.00155647 -0.000420643 -1.59149e-19 -0.00123672 4.60144e-19 -0.000319753)
(0.00148658 -0.000390338 -3.30192e-18 -0.00117225 -7.96302e-19 -0.000314331)
(0.00132 -0.000352856 -1.24598e-18 -0.00103437 -3.54482e-19 -0.000285631)
(0.00125297 -0.000323465 -7.39383e-19 -0.000975331 5.72158e-19 -0.000277636)
(0.00108544 -0.000286654 1.77568e-18 -0.00083845 4.93268e-19 -0.000246989)
(0.00102064 -0.000258532 1.45147e-18 -0.000783848 1.14789e-19 -0.00023679)
(0.000853385 -0.000222365 -1.70818e-18 -0.00064949 -4.58629e-19 -0.000203895)
(0.000790653 -0.000196041 -1.2417e-18 -0.000598805 -5.37226e-19 -0.000191847)
(0.000625402 -0.000160551 -1.11158e-18 -0.000468717 -2.18411e-19 -0.000156685)
(0.000564467 -0.000136605 2.87454e-19 -0.000421437 2.99447e-19 -0.00014303)
(0.000397837 -0.000100423 -5.39098e-19 -0.000293316 -1.63228e-19 -0.000104521)
(0.000337312 -7.9345e-05 -5.18823e-20 -0.000248028 -4.51376e-20 -8.92844e-05)
(0.000168318 -4.16013e-05 -3.11968e-20 -0.000121727 -2.14316e-20 -4.65905e-05)
(0.000111943 -2.53119e-05 -1.15551e-19 -8.07159e-05 -5.29365e-20 -3.12269e-05)
(0 0 0 0 0 0)
(0 0 0 0 0 0)
(0 0 0 0 0 0)
(0 0 0 0 0 0)
(0 0 0 0 0 0)
(0 0 0 0 0 0)
(0 0 0 0 0 0)
(0 0 0 0 0 0)
(0 0 0 0 0 0)
(0 0 0 0 0 0)
(0 0 0 0 0 0)
(0 0 0 0 0 0)
(0 0 0 0 0 0)
(0 0 0 0 0 0)
(0 0 0 0 0 0)
(0 0 0 0 0 0)
(0 0 0 0 0 0)
(0 0 0 0 0 0)
(0 0 0 0 0 0)
(0 0 0 0 0 0)
(0 0 0 0 0 0)
(0 0 0 0 0 0)
(0 0 0 0 0 0)
(0 0 0 0 0 0)
(0 0 0 0 0 0)
(0 0 0 0 0 0)
(0 0 0 0 0 0)
(0 0 0 0 0 0)
(0 0 0 0 0 0)
(0 0 0 0 0 0)
(0 0 0 0 0 0)
(0 0 0 0 0 0)
(0 0 0 0 0 0)
(0 0 0 0 0 0)
(0 0 0 0 0 0)
(0 0 0 0 0 0)
(0 0 0 0 0 0)
(0 0 0 0 0 0)
(0 0 0 0 0 0)
(0 0 0 0 0 0)
(0 0 0 0 0 0)
(0 0 0 0 0 0)
(0 0 0 0 0 0)
(0 0 0 0 0 0)
(0 0 0 0 0 0)
(0 0 0 0 0 0)
(0 0 0 0 0 0)
(0 0 0 0 0 0)
(0 0 0 0 0 0)
(0 0 0 0 0 0)
(0 0 0 0 0 0)
(0 0 0 0 0 0)
(0 0 0 0 0 0)
(0 0 0 0 0 0)
(0 0 0 0 0 0)
(0 0 0 0 0 0)
(0 0 0 0 0 0)
(0 0 0 0 0 0)
(0 0 0 0 0 0)
(0 0 0 0 0 0)
(0.00211781 -0.000675278 -2.9909e-18 -0.00174539 4.23309e-19 -0.000372422)
(0.00199846 -0.000619829 -8.7834e-20 -0.00161658 1.13945e-18 -0.000381887)
(0.00182949 -0.000574838 2.74651e-18 -0.00147776 3.16266e-19 -0.000351732)
(0.00175678 -0.000539023 1.22628e-18 -0.0014049 -6.69918e-19 -0.000351872)
(0.0015876 -0.000493745 -1.33209e-18 -0.00126651 -8.47677e-20 -0.000321092)
(0.00152125 -0.00046081 1.03066e-18 -0.0012033 9.82795e-19 -0.00031795)
(0.00134446 -0.000413477 2.06317e-18 -0.00105796 3.36269e-19 -0.000286503)
(0.00127956 -0.000381596 3.8372e-18 -0.000999205 9.75443e-19 -0.000280358)
(0.00110191 -0.000334644 2.7282e-18 -0.000854243 1.94742e-19 -0.000247671)
(0.00103825 -0.000304146 3.17433e-18 -0.000799726 2.02021e-19 -0.000238525)
(0.000862979 -0.000258487 2.59359e-18 -0.000658668 4.52387e-19 -0.000204311)
(0.000800786 -0.000229888 1.51706e-18 -0.000608182 3.66104e-19 -0.000192604)
(0.000629738 -0.000185795 1.62715e-18 -0.000473028 6.68912e-19 -0.00015671)
(0.000568547 -0.00015954 -1.45031e-18 -0.000425596 -6.01718e-19 -0.000142952)
(0.00039758 -0.000115382 -7.98173e-19 -0.000293626 -2.37338e-19 -0.000103954)
(0.000335575 -9.17039e-05 -2.57399e-19 -0.000247293 5.11714e-21 -8.82814e-05)
(0.000163331 -4.64403e-05 -1.19518e-19 -0.000118255 -1.18347e-20 -4.50766e-05)
(0.00010606 -2.79489e-05 -2.16883e-19 -7.66264e-05 -7.33824e-20 -2.94334e-05)
(0 0 0 0 0 0)
(0 0 0 0 0 0)
(0 0 0 0 0 0)
(0 0 0 0 0 0)
(0 0 0 0 0 0)
(0 0 0 0 0 0)
(0 0 0 0 0 0)
(0 0 0 0 0 0)
(0 0 0 0 0 0)
(0 0 0 0 0 0)
(0 0 0 0 0 0)
(0 0 0 0 0 0)
(0 0 0 0 0 0)
(0 0 0 0 0 0)
(0 0 0 0 0 0)
(0 0 0 0 0 0)
(0 0 0 0 0 0)
(0 0 0 0 0 0)
(0 0 0 0 0 0)
(0 0 0 0 0 0)
(0 0 0 0 0 0)
(0 0 0 0 0 0)
(0 0 0 0 0 0)
(0 0 0 0 0 0)
(0 0 0 0 0 0)
(0 0 0 0 0 0)
(0 0 0 0 0 0)
(0 0 0 0 0 0)
(0 0 0 0 0 0)
(0 0 0 0 0 0)
(0 0 0 0 0 0)
(0 0 0 0 0 0)
(0 0 0 0 0 0)
(0 0 0 0 0 0)
(0 0 0 0 0 0)
(0 0 0 0 0 0)
(0 0 0 0 0 0)
(0 0 0 0 0 0)
(0 0 0 0 0 0)
(0 0 0 0 0 0)
(0 0 0 0 0 0)
(0 0 0 0 0 0)
(0 0 0 0 0 0)
(0 0 0 0 0 0)
(0 0 0 0 0 0)
(0 0 0 0 0 0)
(0 0 0 0 0 0)
(0 0 0 0 0 0)
(0 0 0 0 0 0)
(0 0 0 0 0 0)
(0 0 0 0 0 0)
(0 0 0 0 0 0)
(0 0 0 0 0 0)
(0 0 0 0 0 0)
(0 0 0 0 0 0)
(0 0 0 0 0 0)
(0 0 0 0 0 0)
(0 0 0 0 0 0)
(0 0 0 0 0 0)
(0 0 0 0 0 0)
(0 0 0 0 0 0)
(0 0 0 0 0 0)
(0.00191663 -0.000687228 2.85105e-18 -0.00156582 -5.9693e-19 -0.000350814)
(0.00178495 -0.000621548 2.84023e-18 -0.00143154 -3.08639e-19 -0.00035341)
(0.00161631 -0.000570507 1.23786e-18 -0.00129221 1.0834e-18 -0.000324104)
(0.00153422 -0.000528047 -1.29743e-18 -0.00121588 -7.16375e-20 -0.000318332)
(0.00136373 -0.000475968 -1.61804e-19 -0.00107511 -2.54893e-19 -0.000288627)
(0.00128982 -0.000437899 0 -0.00101022 0 -0.000279601)
(0.0011133 -0.000383875 -8.41256e-19 -0.000864758 3.1569e-19 -0.000248542)
(0.00104196 -0.000348044 -2.56281e-18 -0.000804762 -4.52234e-19 -0.000237194)
(0.000866157 -0.00029464 -2.15748e-18 -0.000662183 -6.29428e-19 -0.000203974)
(0.00079798 -0.000261532 1.04293e-19 -0.000607306 2.74247e-19 -0.000190674)
(0.000626236 -0.000209853 -3.45617e-19 -0.000470991 -1.45036e-19 -0.000155245)
(0.000560947 -0.000179949 1.32328e-18 -0.000420561 3.69122e-19 -0.000140385)
(0.000389104 -0.00012826 9.26601e-19 -0.000287596 2.36847e-19 -0.000101508)
(0.00032435 -0.000101512 2.32777e-19 -0.000239276 7.31315e-21 -8.50736e-05)
(0.00015066 -4.86749e-05 5.02518e-21 -0.00010907 1.03694e-20 -4.15898e-05)
(9.30991e-05 -2.81585e-05 -8.72269e-20 -6.73016e-05 -2.93284e-20 -2.57975e-05)
(0 0 0 0 0 0)
(0 0 0 0 0 0)
(0 0 0 0 0 0)
(0 0 0 0 0 0)
(0 0 0 0 0 0)
(0 0 0 0 0 0)
(0 0 0 0 0 0)
(0 0 0 0 0 0)
(0 0 0 0 0 0)
(0 0 0 0 0 0)
(0 0 0 0 0 0)
(0 0 0 0 0 0)
(0 0 0 0 0 0)
(0 0 0 0 0 0)
(0 0 0 0 0 0)
(0 0 0 0 0 0)
(0 0 0 0 0 0)
(0 0 0 0 0 0)
(0 0 0 0 0 0)
(0 0 0 0 0 0)
(0 0 0 0 0 0)
(0 0 0 0 0 0)
(0 0 0 0 0 0)
(0 0 0 0 0 0)
(0 0 0 0 0 0)
(0 0 0 0 0 0)
(0 0 0 0 0 0)
(0 0 0 0 0 0)
(0 0 0 0 0 0)
(0 0 0 0 0 0)
(0 0 0 0 0 0)
(0 0 0 0 0 0)
(0 0 0 0 0 0)
(0 0 0 0 0 0)
(0 0 0 0 0 0)
(0 0 0 0 0 0)
(0 0 0 0 0 0)
(0 0 0 0 0 0)
(0 0 0 0 0 0)
(0 0 0 0 0 0)
(0 0 0 0 0 0)
(0 0 0 0 0 0)
(0 0 0 0 0 0)
(0 0 0 0 0 0)
(0 0 0 0 0 0)
(0 0 0 0 0 0)
(0 0 0 0 0 0)
(0 0 0 0 0 0)
(0 0 0 0 0 0)
(0 0 0 0 0 0)
(0 0 0 0 0 0)
(0 0 0 0 0 0)
(0 0 0 0 0 0)
(0 0 0 0 0 0)
(0 0 0 0 0 0)
(0 0 0 0 0 0)
(0 0 0 0 0 0)
(0 0 0 0 0 0)
(0 0 0 0 0 0)
(0 0 0 0 0 0)
(0 0 0 0 0 0)
(0 0 0 0 0 0)
(0 0 0 0 0 0)
(0 0 0 0 0 0)
(0.00166858 -0.000665599 -4.84256e-18 -0.00134777 8.78472e-19 -0.00032081)
(0.00154475 -0.000598001 -6.20214e-18 -0.00122595 -7.41176e-19 -0.000318806)
(0.00136819 -0.00053699 -3.56041e-18 -0.00108067 -1.1279e-18 -0.000287529)
(0.00128788 -0.000492073 -3.96639e-18 -0.00100865 -8.20225e-19 -0.000279227)
(0.00111141 -0.000430642 -1.80712e-18 -0.000864385 -3.63085e-19 -0.000247023)
(0.0010382 -0.000390633 -7.66604e-19 -0.000802661 3.32551e-20 -0.000235535)
(0.00085887 -0.0003284 6.46894e-19 -0.000657231 1.82998e-19 -0.00020164)
(0.000788331 -0.000291474 0 -0.00060058 0 -0.000187751)
(0.000614317 -0.000231426 0 -0.000462225 0 -0.000152093)
(0.000546342 -0.000198113 -1.01431e-19 -0.000409819 -7.14997e-20 -0.000136524)
(0.000375169 -0.000139036 -3.51277e-19 -0.000277256 -1.0136e-19 -9.79132e-05)
(0.000308172 -0.000109237 -2.22022e-19 -0.000227332 -4.96057e-20 -8.08396e-05)
(0.000134363 -4.88574e-05 -1.03073e-20 -9.718e-05 -7.03813e-21 -3.71829e-05)
(7.74644e-05 -2.65884e-05 5.53146e-20 -5.59731e-05 1.88031e-20 -2.14913e-05)
(0 0 0 0 0 0)
(0 0 0 0 0 0)
(0 0 0 0 0 0)
(0 0 0 0 0 0)
(0 0 0 0 0 0)
(0 0 0 0 0 0)
(0 0 0 0 0 0)
(0 0 0 0 0 0)
(0 0 0 0 0 0)
(0 0 0 0 0 0)
(0 0 0 0 0 0)
(0 0 0 0 0 0)
(0 0 0 0 0 0)
(0 0 0 0 0 0)
(0 0 0 0 0 0)
(0 0 0 0 0 0)
(0 0 0 0 0 0)
(0 0 0 0 0 0)
(0 0 0 0 0 0)
(0 0 0 0 0 0)
(0 0 0 0 0 0)
(0 0 0 0 0 0)
(0 0 0 0 0 0)
(0 0 0 0 0 0)
(0 0 0 0 0 0)
(0 0 0 0 0 0)
(0 0 0 0 0 0)
(0 0 0 0 0 0)
(0 0 0 0 0 0)
(0 0 0 0 0 0)
(0 0 0 0 0 0)
(0 0 0 0 0 0)
(0 0 0 0 0 0)
(0 0 0 0 0 0)
(0 0 0 0 0 0)
(0 0 0 0 0 0)
(0 0 0 0 0 0)
(0 0 0 0 0 0)
(0 0 0 0 0 0)
(0 0 0 0 0 0)
(0 0 0 0 0 0)
(0 0 0 0 0 0)
(0 0 0 0 0 0)
(0 0 0 0 0 0)
(0 0 0 0 0 0)
(0 0 0 0 0 0)
(0 0 0 0 0 0)
(0 0 0 0 0 0)
(0 0 0 0 0 0)
(0 0 0 0 0 0)
(0 0 0 0 0 0)
(0 0 0 0 0 0)
(0 0 0 0 0 0)
(0 0 0 0 0 0)
(0 0 0 0 0 0)
(0 0 0 0 0 0)
(0 0 0 0 0 0)
(0 0 0 0 0 0)
(0 0 0 0 0 0)
(0 0 0 0 0 0)
(0 0 0 0 0 0)
(0 0 0 0 0 0)
(0 0 0 0 0 0)
(0 0 0 0 0 0)
(0 0 0 0 0 0)
(0 0 0 0 0 0)
(0.00140628 -0.000618588 2.04337e-18 -0.00112103 -3.11669e-19 -0.000285251)
(0.00128251 -0.000546707 3.26515e-18 -0.00100507 8.23781e-19 -0.000277442)
(0.00110333 -0.000477233 1.96443e-18 -0.000858799 3.03849e-19 -0.000244527)
(0.00102176 -0.00042962 7.0435e-19 -0.000789191 -2.5473e-19 -0.000232565)
(0.000844859 -0.000360329 6.08411e-19 -0.000646727 2.98275e-20 -0.000198132)
(0.000772129 -0.000319363 9.0895e-20 -0.000588084 -3.40199e-20 -0.000184045)
(0.00059727 -0.000251031 1.78108e-19 -0.000449376 1.62812e-19 -0.000147893)
(0.000528412 -0.000214653 -1.01753e-18 -0.000396144 -3.23305e-19 -0.000132268)
(0.000358885 -0.000148409 -7.18409e-19 -0.000265145 -2.40502e-19 -9.37402e-05)
(0.000290984 -0.000115788 -2.08262e-19 -0.00021441 -5.47821e-20 -7.65742e-05)
(0.000118652 -4.81759e-05 -8.34672e-20 -8.57303e-05 -3.07577e-20 -3.29215e-05)
(6.33859e-05 -2.44689e-05 -1.29876e-19 -4.57386e-05 -4.78278e-20 -1.76473e-05)
(0 0 0 0 0 0)
(0 0 0 0 0 0)
(0 0 0 0 0 0)
(0 0 0 0 0 0)
(0 0 0 0 0 0)
(0 0 0 0 0 0)
(0 0 0 0 0 0)
(0 0 0 0 0 0)
(0 0 0 0 0 0)
(0 0 0 0 0 0)
(0 0 0 0 0 0)
(0 0 0 0 0 0)
(0 0 0 0 0 0)
(0 0 0 0 0 0)
(0 0 0 0 0 0)
(0 0 0 0 0 0)
(0 0 0 0 0 0)
(0 0 0 0 0 0)
(0 0 0 0 0 0)
(0 0 0 0 0 0)
(0 0 0 0 0 0)
(0 0 0 0 0 0)
(0 0 0 0 0 0)
(0 0 0 0 0 0)
(0 0 0 0 0 0)
(0 0 0 0 0 0)
(0 0 0 0 0 0)
(0 0 0 0 0 0)
(0 0 0 0 0 0)
(0 0 0 0 0 0)
(0 0 0 0 0 0)
(0 0 0 0 0 0)
(0 0 0 0 0 0)