/*--------------------------------*- C++ -*----------------------------------*\
| =========                 |                                                 |
| \\      /  F ield         | OpenFOAM: The Open Source CFD Toolbox           |
|  \\    /   O peration     | Version:  v2012                                 |
|   \\  /    A nd           | Website:  www.openfoam.com                      |
|    \\/     M anipulation  |                                                 |
\*---------------------------------------------------------------------------*/
FoamFile
{
    version     2.0;
    format      ascii;
    class       volScalarField;
    location    "7";
    object      sigmaHyd;
}
// * * * * * * * * * * * * * * * * * * * * * * * * * * * * * * * * * * * * * //

dimensions      [1 -1 -2 0 0 0 0];


internalField   nonuniform List<scalar> 
32000
(
1.33749e+08
1.33924e+08
1.35647e+08
1.36284e+08
1.382e+08
1.38831e+08
1.40528e+08
1.41115e+08
1.42678e+08
1.43243e+08
1.44699e+08
1.45232e+08
1.46574e+08
1.47061e+08
1.48281e+08
1.48716e+08
1.49809e+08
1.50187e+08
1.51137e+08
1.5145e+08
1.52242e+08
1.52484e+08
1.53109e+08
1.533e+08
1.5377e+08
1.53937e+08
1.5419e+08
1.54188e+08
1.53668e+08
1.52887e+08
1.50748e+08
1.49337e+08
1.4665e+08
1.4521e+08
1.42659e+08
1.41359e+08
1.39013e+08
1.37823e+08
1.35617e+08
1.34502e+08
1.32402e+08
1.31349e+08
1.29342e+08
1.28346e+08
1.26424e+08
1.25479e+08
1.23635e+08
1.22735e+08
1.20961e+08
1.20103e+08
1.18393e+08
1.17572e+08
1.15919e+08
1.15132e+08
1.13532e+08
1.12776e+08
1.11225e+08
1.10496e+08
1.08989e+08
1.08286e+08
1.0682e+08
1.0614e+08
1.0471e+08
1.04052e+08
1.02655e+08
1.02017e+08
1.00649e+08
1.0003e+08
9.86868e+07
9.80842e+07
9.67619e+07
9.61754e+07
9.48688e+07
9.42967e+07
9.29971e+07
9.2433e+07
9.11211e+07
9.05494e+07
8.91996e+07
8.86173e+07
1.32775e+08
1.3321e+08
1.34906e+08
1.3584e+08
1.37604e+08
1.38415e+08
1.39982e+08
1.40706e+08
1.42169e+08
1.42835e+08
1.44209e+08
1.44811e+08
1.46088e+08
1.46618e+08
1.47794e+08
1.48249e+08
1.49321e+08
1.49696e+08
1.50651e+08
1.5094e+08
1.51768e+08
1.51981e+08
1.52692e+08
1.5285e+08
1.53474e+08
1.53594e+08
1.53968e+08
1.53726e+08
1.53143e+08
1.51912e+08
1.50012e+08
1.48222e+08
1.45994e+08
1.44269e+08
1.4215e+08
1.40601e+08
1.38609e+08
1.37188e+08
1.35284e+08
1.33959e+08
1.32127e+08
1.30884e+08
1.29119e+08
1.27948e+08
1.26245e+08
1.2514e+08
1.23494e+08
1.22447e+08
1.20854e+08
1.19859e+08
1.18315e+08
1.17367e+08
1.15868e+08
1.14963e+08
1.13504e+08
1.12639e+08
1.11218e+08
1.10388e+08
1.09003e+08
1.08206e+08
1.06853e+08
1.06087e+08
1.04762e+08
1.04025e+08
1.02726e+08
1.02017e+08
1.0074e+08
1.00057e+08
9.87998e+07
9.81405e+07
9.68994e+07
9.62621e+07
9.50322e+07
9.44118e+07
9.31835e+07
9.25671e+07
9.13188e+07
9.06865e+07
8.93982e+07
8.87556e+07
1.32802e+08
1.33304e+08
1.34914e+08
1.35823e+08
1.37528e+08
1.38336e+08
1.39867e+08
1.40583e+08
1.42021e+08
1.42667e+08
1.44023e+08
1.44595e+08
1.45856e+08
1.4635e+08
1.47512e+08
1.47923e+08
1.48983e+08
1.49306e+08
1.5026e+08
1.50489e+08
1.51326e+08
1.51451e+08
1.522e+08
1.52256e+08
1.52952e+08
1.52859e+08
1.53191e+08
1.52422e+08
1.51644e+08
1.49829e+08
1.48172e+08
1.46117e+08
1.44338e+08
1.42451e+08
1.40747e+08
1.39035e+08
1.37393e+08
1.35807e+08
1.3421e+08
1.32727e+08
1.31171e+08
1.29779e+08
1.28264e+08
1.26953e+08
1.2548e+08
1.24241e+08
1.22806e+08
1.21632e+08
1.20234e+08
1.19118e+08
1.17755e+08
1.16692e+08
1.15362e+08
1.14347e+08
1.13048e+08
1.12077e+08
1.10806e+08
1.09876e+08
1.08632e+08
1.07739e+08
1.06521e+08
1.05663e+08
1.04467e+08
1.03641e+08
1.02467e+08
1.01671e+08
1.00515e+08
9.9746e+07
9.86063e+07
9.78614e+07
9.6735e+07
9.60099e+07
9.48919e+07
9.41799e+07
9.30587e+07
9.23482e+07
9.12001e+07
9.04766e+07
8.92836e+07
8.8554e+07
1.32694e+08
1.3313e+08
1.34771e+08
1.35631e+08
1.37356e+08
1.38107e+08
1.3965e+08
1.40298e+08
1.41746e+08
1.42316e+08
1.43689e+08
1.4418e+08
1.45466e+08
1.45869e+08
1.47058e+08
1.47365e+08
1.48452e+08
1.48655e+08
1.49635e+08
1.49718e+08
1.50598e+08
1.50581e+08
1.51395e+08
1.51279e+08
1.51968e+08
1.51483e+08
1.51553e+08
1.50051e+08
1.49082e+08
1.46922e+08
1.4555e+08
1.43434e+08
1.4204e+08
1.40115e+08
1.38746e+08
1.36973e+08
1.35617e+08
1.33961e+08
1.32615e+08
1.31062e+08
1.29733e+08
1.28271e+08
1.26962e+08
1.25583e+08
1.24296e+08
1.22991e+08
1.21726e+08
1.20489e+08
1.19246e+08
1.1807e+08
1.16849e+08
1.15728e+08
1.1453e+08
1.1346e+08
1.12282e+08
1.11259e+08
1.10102e+08
1.09122e+08
1.07984e+08
1.07043e+08
1.05924e+08
1.0502e+08
1.03918e+08
1.03048e+08
1.01961e+08
1.01122e+08
1.00049e+08
9.92387e+07
9.8177e+07
9.7391e+07
9.63376e+07
9.55726e+07
9.45221e+07
9.37726e+07
9.27128e+07
9.19691e+07
9.08762e+07
9.01252e+07
8.89827e+07
8.82389e+07
1.32515e+08
1.32921e+08
1.34557e+08
1.35365e+08
1.37089e+08
1.37784e+08
1.39325e+08
1.39913e+08
1.41353e+08
1.41855e+08
1.43216e+08
1.43624e+08
1.44901e+08
1.45207e+08
1.46398e+08
1.46593e+08
1.47688e+08
1.47751e+08
1.48742e+08
1.48669e+08
1.49572e+08
1.49381e+08
1.50201e+08
1.49789e+08
1.50297e+08
1.49143e+08
1.48841e+08
1.46741e+08
1.45823e+08
1.43578e+08
1.42522e+08
1.4045e+08
1.39376e+08
1.37468e+08
1.36376e+08
1.34592e+08
1.33482e+08
1.31804e+08
1.30683e+08
1.29102e+08
1.27977e+08
1.26485e+08
1.25361e+08
1.23949e+08
1.22832e+08
1.21493e+08
1.20384e+08
1.19111e+08
1.18012e+08
1.16801e+08
1.15713e+08
1.14558e+08
1.13481e+08
1.12378e+08
1.11314e+08
1.10258e+08
1.09206e+08
1.08195e+08
1.07155e+08
1.06185e+08
1.05157e+08
1.04225e+08
1.03207e+08
1.02311e+08
1.01303e+08
1.00439e+08
9.94395e+07
9.86052e+07
9.76116e+07
9.68041e+07
9.58135e+07
9.50294e+07
9.40367e+07
9.32713e+07
9.22648e+07
9.15088e+07
9.04656e+07
8.97076e+07
8.86144e+07
8.7868e+07
1.3225e+08
1.326e+08
1.3424e+08
1.34985e+08
1.36714e+08
1.3734e+08
1.38886e+08
1.39394e+08
1.40834e+08
1.41244e+08
1.426e+08
1.42906e+08
1.44172e+08
1.44354e+08
1.45524e+08
1.45557e+08
1.4663e+08
1.46513e+08
1.47503e+08
1.47273e+08
1.48185e+08
1.47789e+08
1.48486e+08
1.47496e+08
1.47624e+08
1.45664e+08
1.45189e+08
1.42924e+08
1.42219e+08
1.4007e+08
1.393e+08
1.37308e+08
1.36492e+08
1.34623e+08
1.33762e+08
1.31996e+08
1.31099e+08
1.29428e+08
1.28505e+08
1.26923e+08
1.25983e+08
1.24482e+08
1.23531e+08
1.22105e+08
1.21147e+08
1.19791e+08
1.1883e+08
1.17539e+08
1.16577e+08
1.15345e+08
1.14385e+08
1.13208e+08
1.12252e+08
1.11126e+08
1.10174e+08
1.09096e+08
1.08149e+08
1.07116e+08
1.06174e+08
1.05182e+08
1.04246e+08
1.03293e+08
1.02362e+08
1.01445e+08
1.00518e+08
9.96355e+07
9.87115e+07
9.786e+07
9.69372e+07
9.61142e+07
9.51899e+07
9.43923e+07
9.34618e+07
9.26851e+07
9.17374e+07
9.09727e+07
8.99861e+07
8.92224e+07
8.81848e+07
8.74341e+07
1.31882e+08
1.32209e+08
1.33824e+08
1.34515e+08
1.36219e+08
1.36774e+08
1.38299e+08
1.38718e+08
1.40139e+08
1.40438e+08
1.41773e+08
1.41937e+08
1.43182e+08
1.43194e+08
1.44343e+08
1.4421e+08
1.45273e+08
1.45026e+08
1.46006e+08
1.45586e+08
1.46386e+08
1.45434e+08
1.45797e+08
1.43964e+08
1.4382e+08
1.41615e+08
1.41223e+08
1.39071e+08
1.38582e+08
1.36564e+08
1.36008e+08
1.34101e+08
1.33482e+08
1.31667e+08
1.30994e+08
1.29266e+08
1.28549e+08
1.26905e+08
1.26154e+08
1.24589e+08
1.23812e+08
1.2232e+08
1.21522e+08
1.20099e+08
1.19287e+08
1.17928e+08
1.17104e+08
1.15806e+08
1.14974e+08
1.13733e+08
1.12895e+08
1.11707e+08
1.10865e+08
1.09727e+08
1.08883e+08
1.07792e+08
1.06947e+08
1.059e+08
1.05055e+08
1.04049e+08
1.03204e+08
1.02237e+08
1.01392e+08
1.00462e+08
9.96167e+07
9.87213e+07
9.78743e+07
9.7011e+07
9.6161e+07
9.53273e+07
9.4472e+07
9.3665e+07
9.28001e+07
9.20155e+07
9.11306e+07
9.03599e+07
8.94342e+07
8.86665e+07
8.76882e+07
8.69352e+07
1.31472e+08
1.31727e+08
1.33321e+08
1.33914e+08
1.356e+08
1.3605e+08
1.3756e+08
1.37856e+08
1.39254e+08
1.39409e+08
1.40715e+08
1.4072e+08
1.41929e+08
1.41786e+08
1.42906e+08
1.42634e+08
1.43668e+08
1.43213e+08
1.4408e+08
1.43133e+08
1.43631e+08
1.41895e+08
1.41966e+08
1.39854e+08
1.39701e+08
1.37601e+08
1.37345e+08
1.3535e+08
1.35019e+08
1.33116e+08
1.32713e+08
1.30888e+08
1.3042e+08
1.2867e+08
1.28147e+08
1.26471e+08
1.25902e+08
1.24298e+08
1.23692e+08
1.22156e+08
1.21519e+08
1.20049e+08
1.19386e+08
1.17978e+08
1.17294e+08
1.15946e+08
1.15245e+08
1.13953e+08
1.13238e+08
1.11999e+08
1.11273e+08
1.10085e+08
1.0935e+08
1.08209e+08
1.07467e+08
1.06371e+08
1.05623e+08
1.04571e+08
1.03817e+08
1.02806e+08
1.02048e+08
1.01075e+08
1.00314e+08
9.93774e+07
9.86117e+07
9.77097e+07
9.69389e+07
9.60694e+07
9.52922e+07
9.44528e+07
9.36672e+07
9.28553e+07
9.20572e+07
9.12687e+07
9.04483e+07
8.96752e+07
8.88124e+07
8.80441e+07
8.71272e+07
8.63751e+07
1.3091e+08
1.31102e+08
1.32665e+08
1.33164e+08
1.34808e+08
1.35142e+08
1.36607e+08
1.36765e+08
1.38117e+08
1.38115e+08
1.39377e+08
1.39219e+08
1.40397e+08
1.40108e+08
1.41197e+08
1.40727e+08
1.41643e+08
1.407e+08
1.41276e+08
1.39615e+08
1.39826e+08
1.37811e+08
1.37829e+08
1.35807e+08
1.35731e+08
1.3379e+08
1.3364e+08
1.31773e+08
1.31549e+08
1.29745e+08
1.29454e+08
1.2771e+08
1.27359e+08
1.25679e+08
1.25275e+08
1.23657e+08
1.23209e+08
1.21653e+08
1.21166e+08
1.1967e+08
1.1915e+08
1.17712e+08
1.17164e+08
1.15781e+08
1.1521e+08
1.1388e+08
1.13289e+08
1.12011e+08
1.11402e+08
1.10173e+08
1.09549e+08
1.08368e+08
1.07732e+08
1.06596e+08
1.05948e+08
1.04856e+08
1.04199e+08
1.03148e+08
1.02482e+08
1.01471e+08
1.00797e+08
9.98238e+07
9.91429e+07
9.82056e+07
9.75173e+07
9.66142e+07
9.59179e+07
9.50472e+07
9.43417e+07
9.35012e+07
9.27847e+07
9.19722e+07
9.12408e+07
9.04525e+07
8.96969e+07
8.8925e+07
8.8126e+07
8.73605e+07
8.65067e+07
8.57586e+07
1.30234e+08
1.3034e+08
1.31865e+08
1.32228e+08
1.33826e+08
1.3401e+08
1.3543e+08
1.35426e+08
1.36728e+08
1.36565e+08
1.37783e+08
1.37497e+08
1.38629e+08
1.38172e+08
1.39124e+08
1.38193e+08
1.38816e+08
1.37214e+08
1.37518e+08
1.35596e+08
1.35737e+08
1.33802e+08
1.3386e+08
1.31989e+08
1.3198e+08
1.30166e+08
1.30088e+08
1.28322e+08
1.28178e+08
1.26461e+08
1.26257e+08
1.24591e+08
1.24333e+08
1.2272e+08
1.22414e+08
1.20855e+08
1.20506e+08
1.18999e+08
1.18613e+08
1.17159e+08
1.1674e+08
1.15337e+08
1.14889e+08
1.13536e+08
1.13063e+08
1.11759e+08
1.11264e+08
1.10007e+08
1.09492e+08
1.08281e+08
1.07749e+08
1.06582e+08
1.06035e+08
1.0491e+08
1.0435e+08
1.03266e+08
1.02693e+08
1.0165e+08
1.01066e+08
1.0006e+08
9.94665e+07
9.84975e+07
9.78938e+07
9.69602e+07
9.63466e+07
9.54467e+07
9.48228e+07
9.39549e+07
9.33196e+07
9.24819e+07
9.18334e+07
9.10238e+07
9.03587e+07
8.95736e+07
8.8883e+07
8.81152e+07
8.73807e+07
8.66206e+07
8.5831e+07
8.50892e+07
1.29376e+08
1.2938e+08
1.30856e+08
1.31075e+08
1.32613e+08
1.32642e+08
1.34005e+08
1.33853e+08
1.35106e+08
1.34839e+08
1.36006e+08
1.35588e+08
1.36566e+08
1.35665e+08
1.36308e+08
1.3476e+08
1.35119e+08
1.33284e+08
1.33511e+08
1.31665e+08
1.31823e+08
1.30028e+08
1.30126e+08
1.28375e+08
1.2841e+08
1.26695e+08
1.26668e+08
1.24991e+08
1.24907e+08
1.23271e+08
1.23135e+08
1.21542e+08
1.21358e+08
1.1981e+08
1.19583e+08
1.1808e+08
1.17814e+08
1.16357e+08
1.16056e+08
1.14645e+08
1.14312e+08
1.12947e+08
1.12585e+08
1.11265e+08
1.10878e+08
1.09602e+08
1.09193e+08
1.0796e+08
1.0753e+08
1.06339e+08
1.05891e+08
1.04742e+08
1.04277e+08
1.03167e+08
1.02688e+08
1.01617e+08
1.01123e+08
1.0009e+08
9.95842e+07
9.85879e+07
9.80695e+07
9.71088e+07
9.65788e+07
9.56523e+07
9.51107e+07
9.42172e+07
9.36635e+07
9.28015e+07
9.22347e+07
9.14026e+07
9.08211e+07
9.00169e+07
8.94175e+07
8.86381e+07
8.80122e+07
8.72507e+07
8.65809e+07
8.58282e+07
8.51036e+07
8.43701e+07
1.2832e+08
1.28211e+08
1.2963e+08
1.29692e+08
1.31164e+08
1.31056e+08
1.32373e+08
1.32146e+08
1.33352e+08
1.32998e+08
1.34003e+08
1.33159e+08
1.33808e+08
1.32315e+08
1.32698e+08
1.30942e+08
1.31221e+08
1.2946e+08
1.29687e+08
1.27969e+08
1.28146e+08
1.2646e+08
1.26581e+08
1.24921e+08
1.24988e+08
1.23356e+08
1.2337e+08
1.2177e+08
1.21736e+08
1.20171e+08
1.20091e+08
1.18563e+08
1.18441e+08
1.16952e+08
1.16791e+08
1.15341e+08
1.15145e+08
1.13736e+08
1.13507e+08
1.12139e+08
1.11881e+08
1.10553e+08
1.10268e+08
1.0898e+08
1.0867e+08
1.07424e+08
1.07091e+08
1.05884e+08
1.05531e+08
1.04363e+08
1.03991e+08
1.02862e+08
1.02473e+08
1.01381e+08
1.00976e+08
9.99208e+07
9.9501e+07
9.84818e+07
9.80482e+07
9.70641e+07
9.66173e+07
9.56674e+07
9.52077e+07
9.4291e+07
9.38184e+07
9.29338e+07
9.24479e+07
9.15942e+07
9.10941e+07
9.02697e+07
8.97539e+07
8.89572e+07
8.84225e+07
8.76506e+07
8.7089e+07
8.63355e+07
8.57303e+07
8.49866e+07
8.43274e+07
8.36034e+07
1.27047e+08
1.26829e+08
1.28186e+08
1.28124e+08
1.29542e+08
1.29386e+08
1.30666e+08
1.30399e+08
1.31451e+08
1.30699e+08
1.31356e+08
1.29921e+08
1.30305e+08
1.28617e+08
1.28921e+08
1.27235e+08
1.27506e+08
1.2586e+08
1.26092e+08
1.24469e+08
1.24655e+08
1.2305e+08
1.23188e+08
1.21604e+08
1.21695e+08
1.20135e+08
1.20183e+08
1.18651e+08
1.18656e+08
1.17155e+08
1.17121e+08
1.15652e+08
1.15582e+08
1.14146e+08
1.14042e+08
1.12642e+08
1.12506e+08
1.11141e+08
1.10976e+08
1.09648e+08
1.09455e+08
1.08164e+08
1.07946e+08
1.06692e+08
1.0645e+08
1.05233e+08
1.0497e+08
1.03789e+08
1.03506e+08
1.02362e+08
1.0206e+08
1.00952e+08
1.00633e+08
9.95597e+07
9.92246e+07
9.81864e+07
9.7836e+07
9.68321e+07
9.64672e+07
9.54969e+07
9.51181e+07
9.41807e+07
9.37882e+07
9.2883e+07
9.24769e+07
9.16028e+07
9.11827e+07
9.03387e+07
8.99035e+07
8.90884e+07
8.86368e+07
8.7849e+07
8.7378e+07
8.66148e+07
8.61169e+07
8.53725e+07
8.48318e+07
8.40981e+07
8.35044e+07
8.27908e+07
1.25587e+08
1.25294e+08
1.266e+08
1.26506e+08
1.27895e+08
1.27748e+08
1.28891e+08
1.28276e+08
1.28962e+08
1.276e+08
1.27974e+08
1.26343e+08
1.26648e+08
1.25026e+08
1.25319e+08
1.23737e+08
1.24005e+08
1.22442e+08
1.22671e+08
1.2112e+08
1.2131e+08
1.19772e+08
1.19922e+08
1.18403e+08
1.18515e+08
1.17018e+08
1.17093e+08
1.1562e+08
1.1566e+08
1.14214e+08
1.14221e+08
1.12803e+08
1.12778e+08
1.1139e+08
1.11336e+08
1.0998e+08
1.09897e+08
1.08573e+08
1.08464e+08
1.07173e+08
1.0704e+08
1.05782e+08
1.05626e+08
1.04402e+08
1.04224e+08
1.03035e+08
1.02835e+08
1.0168e+08
1.01462e+08
1.00341e+08
1.00105e+08
9.90175e+07
9.8764e+07
9.77103e+07
9.74407e+07
9.64201e+07
9.61351e+07
9.51473e+07
9.48476e+07
9.3892e+07
9.35781e+07
9.26541e+07
9.23263e+07
9.14334e+07
9.10915e+07
9.02288e+07
8.98724e+07
8.90391e+07
8.86673e+07
8.78623e+07
8.74736e+07
8.66955e+07
8.62872e+07
8.55335e+07
8.50985e+07
8.43638e+07
8.38872e+07
8.3164e+07
8.26359e+07
8.1933e+07
1.24039e+08
1.23749e+08
1.25027e+08
1.24978e+08
1.26261e+08
1.25846e+08
1.26613e+08
1.25368e+08
1.25729e+08
1.24156e+08
1.24438e+08
1.22869e+08
1.23159e+08
1.21634e+08
1.21917e+08
1.20409e+08
1.20664e+08
1.19163e+08
1.19387e+08
1.17893e+08
1.18085e+08
1.16605e+08
1.16766e+08
1.15302e+08
1.15432e+08
1.13987e+08
1.14088e+08
1.12664e+08
1.12736e+08
1.11336e+08
1.1138e+08
1.10006e+08
1.10023e+08
1.08677e+08
1.08668e+08
1.0735e+08
1.07317e+08
1.06029e+08
1.05972e+08
1.04715e+08
1.04635e+08
1.03409e+08
1.03309e+08
1.02114e+08
1.01994e+08
1.00831e+08
1.00691e+08
9.95608e+07
9.94028e+07
9.83044e+07
9.81291e+07
9.70626e+07
9.68708e+07
9.58362e+07
9.56286e+07
9.46256e+07
9.44029e+07
9.34312e+07
9.31939e+07
9.22532e+07
9.20016e+07
9.10914e+07
9.08258e+07
8.99456e+07
8.96658e+07
8.8815e+07
8.85205e+07
8.76983e+07
8.73883e+07
8.65938e+07
8.62668e+07
8.54986e+07
8.51521e+07
8.44081e+07
8.40355e+07
8.33107e+07
8.28977e+07
8.21851e+07
8.17223e+07
8.10302e+07
1.22571e+08
1.22344e+08
1.23541e+08
1.23359e+08
1.24264e+08
1.23234e+08
1.23599e+08
1.22113e+08
1.22339e+08
1.20818e+08
1.2107e+08
1.19592e+08
1.19863e+08
1.18404e+08
1.18665e+08
1.17208e+08
1.17449e+08
1.15995e+08
1.16213e+08
1.14767e+08
1.14962e+08
1.13528e+08
1.137e+08
1.1228e+08
1.12429e+08
1.11027e+08
1.11151e+08
1.09769e+08
1.0987e+08
1.08511e+08
1.08589e+08
1.07253e+08
1.07308e+08
1.05998e+08
1.06031e+08
1.04748e+08
1.0476e+08
1.03504e+08
1.03495e+08
1.02268e+08
1.0224e+08
1.01042e+08
1.00994e+08
9.98261e+07
9.976e+07
9.86221e+07
9.85382e+07
9.74307e+07
9.73298e+07
9.62526e+07
9.61353e+07
9.50887e+07
9.49556e+07
9.39393e+07
9.3791e+07
9.2805e+07
9.2642e+07
9.16861e+07
9.15087e+07
9.05826e+07
9.03912e+07
8.94946e+07
8.92892e+07
8.84217e+07
8.82023e+07
8.73633e+07
8.71292e+07
8.63181e+07
8.60685e+07
8.52844e+07
8.5018e+07
8.42597e+07
8.39741e+07
8.32398e+07
8.29287e+07
8.22136e+07
8.18638e+07
8.11615e+07
8.07639e+07
8.00822e+07
1.21278e+08
1.21029e+08
1.21937e+08
1.21232e+08
1.21632e+08
1.20301e+08
1.20436e+08
1.18963e+08
1.19122e+08
1.17677e+08
1.17894e+08
1.16472e+08
1.1671e+08
1.15289e+08
1.15526e+08
1.14104e+08
1.14332e+08
1.12913e+08
1.13128e+08
1.11718e+08
1.11919e+08
1.10519e+08
1.10704e+08
1.09319e+08
1.09487e+08
1.08119e+08
1.08268e+08
1.0692e+08
1.0705e+08
1.05723e+08
1.05835e+08
1.0453e+08
1.04623e+08
1.03343e+08
1.03418e+08
1.02163e+08
1.02219e+08
1.00992e+08
1.01029e+08
9.98288e+07
9.98491e+07
9.86763e+07
9.86794e+07
9.7535e+07
9.75212e+07
9.64056e+07
9.63754e+07
9.52888e+07
9.52427e+07
9.41853e+07
9.41238e+07
9.30955e+07
9.3019e+07
9.20199e+07
9.19288e+07
9.09589e+07
9.08536e+07
8.99127e+07
8.97934e+07
8.88813e+07
8.87483e+07
8.78648e+07
8.7718e+07
8.68627e+07
8.67021e+07
8.58746e+07
8.56995e+07
8.48991e+07
8.47088e+07
8.39347e+07
8.37279e+07
8.29793e+07
8.27536e+07
8.20285e+07
8.17783e+07
8.10726e+07
8.07853e+07
8.0093e+07
7.976e+07
7.90883e+07
1.19896e+08
1.19408e+08
1.1987e+08
1.18798e+08
1.18831e+08
1.17432e+08
1.17424e+08
1.1599e+08
1.16086e+08
1.14675e+08
1.14849e+08
1.13446e+08
1.13653e+08
1.1225e+08
1.12468e+08
1.11065e+08
1.11286e+08
1.09889e+08
1.10107e+08
1.0872e+08
1.08931e+08
1.07556e+08
1.07757e+08
1.06398e+08
1.06587e+08
1.05245e+08
1.05421e+08
1.04099e+08
1.04261e+08
1.02959e+08
1.03106e+08
1.01827e+08
1.01958e+08
1.00704e+08
1.00819e+08
9.95891e+07
9.96888e+07
9.84845e+07
9.85684e+07
9.73905e+07
9.74587e+07
9.63078e+07
9.63604e+07
9.52369e+07
9.52741e+07
9.41784e+07
9.42005e+07
9.31328e+07
9.31401e+07
9.21005e+07
9.20932e+07
9.10819e+07
9.10603e+07
9.00772e+07
9.00417e+07
8.90868e+07
8.90376e+07
8.81107e+07
8.8048e+07
8.71492e+07
8.70731e+07
8.62019e+07
8.61125e+07
8.52688e+07
8.51657e+07
8.4349e+07
8.42318e+07
8.34416e+07
8.33094e+07
8.2545e+07
8.23966e+07
8.16571e+07
8.14905e+07
8.07743e+07
8.05841e+07
7.98872e+07
7.96619e+07
7.89789e+07
7.87101e+07
7.80477e+07
1.18239e+08
1.17478e+08
1.17594e+08
1.1632e+08
1.16124e+08
1.14664e+08
1.14555e+08
1.13102e+08
1.13148e+08
1.11724e+08
1.11866e+08
1.10456e+08
1.10644e+08
1.0924e+08
1.09451e+08
1.08054e+08
1.08278e+08
1.0689e+08
1.07119e+08
1.05745e+08
1.05972e+08
1.04613e+08
1.04836e+08
1.03494e+08
1.0371e+08
1.02387e+08
1.02594e+08
1.01291e+08
1.01486e+08
1.00205e+08
1.00389e+08
9.91307e+07
9.93018e+07
9.80673e+07
9.82251e+07
9.70153e+07
9.71594e+07
9.5975e+07
9.61051e+07
9.49467e+07
9.50626e+07
9.39307e+07
9.40324e+07
9.29273e+07
9.30149e+07
9.19369e+07
9.20104e+07
9.09596e+07
9.10193e+07
8.99959e+07
9.00418e+07
8.90458e+07
8.90782e+07
8.81096e+07
8.81286e+07
8.71875e+07
8.71933e+07
8.62794e+07
8.62722e+07
8.53855e+07
8.53653e+07
8.45056e+07
8.44723e+07
8.36394e+07
8.35928e+07
8.27862e+07
8.27259e+07
8.19451e+07
8.18702e+07
8.11147e+07
8.1024e+07
8.02929e+07
8.01846e+07
7.94764e+07
7.93456e+07
7.86569e+07
7.84928e+07
7.78185e+07
7.76131e+07
7.69592e+07
1.16126e+08
1.15114e+08
1.1512e+08
1.13653e+08
1.13373e+08
1.11813e+08
1.11672e+08
1.10161e+08
1.10195e+08
1.08733e+08
1.08872e+08
1.07436e+08
1.0763e+08
1.0621e+08
1.06434e+08
1.0503e+08
1.05271e+08
1.03883e+08
1.04134e+08
1.02764e+08
1.03018e+08
1.01666e+08
1.01919e+08
1.00588e+08
1.00837e+08
9.95258e+07
9.97681e+07
9.84793e+07
9.87132e+07
9.74472e+07
9.76713e+07
9.6429e+07
9.66424e+07
9.54244e+07
9.56262e+07
9.44332e+07
9.46228e+07
9.34553e+07
9.36323e+07
9.24906e+07
9.26548e+07
9.15393e+07
9.16904e+07
9.06013e+07
9.07393e+07
8.96768e+07
8.98016e+07
8.87658e+07
8.88775e+07
8.78685e+07
8.79671e+07
8.69849e+07
8.70705e+07
8.61152e+07
8.61879e+07
8.52594e+07
8.53193e+07
8.44174e+07
8.44647e+07
8.35894e+07
8.3624e+07
8.2775e+07
8.27969e+07
8.19739e+07
8.19829e+07
8.11857e+07
8.11812e+07
8.04092e+07
8.03905e+07
7.96432e+07
7.96093e+07
7.8886e+07
7.88351e+07
7.81344e+07
7.80621e+07
7.73809e+07
7.72772e+07
7.66108e+07
7.64682e+07
7.58221e+07
1.13463e+08
1.12254e+08
1.12296e+08
1.10675e+08
1.10422e+08
1.08766e+08
1.08656e+08
1.07082e+08
1.07146e+08
1.05639e+08
1.05807e+08
1.04339e+08
1.04562e+08
1.03122e+08
1.03376e+08
1.01959e+08
1.02233e+08
1.00839e+08
1.01124e+08
9.97529e+07
1.00043e+08
9.86946e+07
9.89856e+07
9.76599e+07
9.79484e+07
9.66459e+07
9.69294e+07
9.56507e+07
9.59273e+07
9.46729e+07
9.4941e+07
9.37113e+07
9.39699e+07
9.27654e+07
9.30135e+07
9.18344e+07
9.20715e+07
9.09181e+07
9.11435e+07
9.0016e+07
9.02294e+07
8.91281e+07
8.93293e+07
8.82542e+07
8.84429e+07
8.73942e+07
8.75703e+07
8.65479e+07
8.67115e+07
8.57155e+07
8.58664e+07
8.48969e+07
8.50352e+07
8.4092e+07
8.42179e+07
8.33008e+07
8.34143e+07
8.25233e+07
8.26244e+07
8.17594e+07
8.18482e+07
8.10089e+07
8.10853e+07
8.02715e+07
8.03351e+07
7.95465e+07
7.95971e+07
7.88331e+07
7.88699e+07
7.813e+07
7.81521e+07
7.74358e+07
7.74415e+07
7.67475e+07
7.67329e+07
7.60584e+07
7.60145e+07
7.53551e+07
7.52745e+07
7.46353e+07
1.10342e+08
1.08998e+08
1.09129e+08
1.07402e+08
1.07229e+08
1.05499e+08
1.05462e+08
1.03833e+08
1.0396e+08
1.02411e+08
1.02634e+08
1.01136e+08
1.01409e+08
9.99476e+07
1.0025e+08
9.88192e+07
9.91397e+07
9.77376e+07
9.80688e+07
9.66939e+07
9.70303e+07
9.56817e+07
9.60189e+07
9.46963e+07
9.50313e+07
9.37344e+07
9.40647e+07
9.27936e+07
9.31174e+07
9.18721e+07
9.21881e+07
9.09686e+07
9.12756e+07
9.00822e+07
9.03793e+07
8.92119e+07
8.94984e+07
8.83571e+07
8.86325e+07
8.75175e+07
8.77813e+07
8.66925e+07
8.69445e+07
8.58819e+07
8.61218e+07
8.50854e+07
8.53131e+07
8.43029e+07
8.45184e+07
8.35343e+07
8.37374e+07
8.27793e+07
8.29702e+07
8.20379e+07
8.22166e+07
8.13101e+07
8.14766e+07
8.05957e+07
8.075e+07
7.98946e+07
8.00368e+07
7.92065e+07
7.93365e+07
7.85312e+07
7.86488e+07
7.7868e+07
7.79728e+07
7.72162e+07
7.73075e+07
7.65745e+07
7.66516e+07
7.59417e+07
7.60032e+07
7.53152e+07
7.53575e+07
7.4689e+07
7.47038e+07
7.40509e+07
7.40313e+07
7.33983e+07
1.06879e+08
1.0544e+08
1.05675e+08
1.03879e+08
1.03811e+08
1.02029e+08
1.02087e+08
1.00416e+08
1.00625e+08
9.90433e+07
9.93395e+07
9.7816e+07
9.81561e+07
9.66757e+07
9.70403e+07
9.55967e+07
9.59761e+07
9.4566e+07
9.49536e+07
9.35747e+07
9.39658e+07
9.26166e+07
9.30073e+07
9.16867e+07
9.20743e+07
9.07817e+07
9.11641e+07
8.98991e+07
9.02747e+07
8.9037e+07
8.94045e+07
8.81938e+07
8.85522e+07
8.73685e+07
8.77169e+07
8.65599e+07
8.68979e+07
8.57675e+07
8.60944e+07
8.49905e+07
8.53059e+07
8.42284e+07
8.45321e+07
8.34809e+07
8.37727e+07
8.27476e+07
8.30273e+07
8.20282e+07
8.22957e+07
8.13225e+07
8.15779e+07
8.06303e+07
8.08735e+07
7.99515e+07
8.01826e+07
7.92859e+07
7.9505e+07
7.86334e+07
7.88405e+07
7.79938e+07
7.81889e+07
7.73669e+07
7.75499e+07
7.67524e+07
7.69232e+07
7.61496e+07
7.63079e+07
7.5558e+07
7.57031e+07
7.49763e+07
7.51076e+07
7.44034e+07
7.45197e+07
7.38373e+07
7.39354e+07
7.32725e+07
7.3345e+07
7.26979e+07
7.27383e+07
7.21108e+07
1.03153e+08
1.01646e+08
1.01989e+08
1.00147e+08
1.00195e+08
9.83799e+07
9.85423e+07
9.68444e+07
9.71465e+07
9.55417e+07
9.59219e+07
9.43804e+07
9.47977e+07
9.33039e+07
9.37404e+07
9.22875e+07
9.27345e+07
9.13188e+07
9.17707e+07
9.03893e+07
9.08419e+07
8.94928e+07
8.99429e+07
8.86248e+07
8.90702e+07
8.77819e+07
8.82208e+07
8.69617e+07
8.73928e+07
8.61622e+07
8.65844e+07
8.5382e+07
8.57945e+07
8.46197e+07
8.50218e+07
8.38745e+07
8.42657e+07
8.31453e+07
8.35252e+07
8.24317e+07
8.27999e+07
8.17329e+07
8.20892e+07
8.10486e+07
8.13928e+07
8.03783e+07
8.07103e+07
7.97216e+07
8.00415e+07
7.90784e+07
7.93861e+07
7.84484e+07
7.87439e+07
7.78314e+07
7.81147e+07
7.72272e+07
7.74984e+07
7.66357e+07
7.68949e+07
7.60566e+07
7.63038e+07
7.54897e+07
7.5725e+07
7.49348e+07
7.51579e+07
7.43912e+07
7.4602e+07
7.38583e+07
7.40562e+07
7.33353e+07
7.35197e+07
7.2821e+07
7.2991e+07
7.23137e+07
7.24666e+07
7.18087e+07
7.19379e+07
7.12962e+07
7.13953e+07
7.07728e+07
9.92195e+07
9.76614e+07
9.81115e+07
9.62432e+07
9.64095e+07
9.45763e+07
9.48488e+07
9.31351e+07
9.35361e+07
9.1918e+07
9.23884e+07
9.08364e+07
9.13373e+07
8.9836e+07
9.03507e+07
8.88932e+07
8.94138e+07
8.79959e+07
8.85175e+07
8.71362e+07
8.76554e+07
8.63084e+07
8.68224e+07
8.5508e+07
8.60151e+07
8.47321e+07
8.5231e+07
8.39783e+07
8.44679e+07
8.32449e+07
8.37243e+07
8.25302e+07
8.2999e+07
8.18332e+07
8.22908e+07
8.11529e+07
8.15989e+07
8.04884e+07
8.09224e+07
7.9839e+07
8.02609e+07
7.92042e+07
7.96137e+07
7.85833e+07
7.89805e+07
7.79761e+07
7.83608e+07
7.73821e+07
7.77544e+07
7.68011e+07
7.71609e+07
7.62328e+07
7.65802e+07
7.5677e+07
7.60121e+07
7.51335e+07
7.54564e+07
7.46021e+07
7.49129e+07
7.40826e+07
7.43814e+07
7.35748e+07
7.38615e+07
7.30783e+07
7.3353e+07
7.25928e+07
7.28551e+07
7.21175e+07
7.23672e+07
7.16518e+07
7.18884e+07
7.11947e+07
7.14174e+07
7.07448e+07
7.09514e+07
7.02983e+07
7.04829e+07
6.98463e+07
7.00027e+07
6.93849e+07
9.51195e+07
9.35243e+07
9.40776e+07
9.21968e+07
9.24818e+07
9.06426e+07
9.10264e+07
8.93074e+07
8.98093e+07
8.81865e+07
8.87499e+07
8.71947e+07
8.77825e+07
8.62798e+07
8.68762e+07
8.54189e+07
8.60167e+07
8.46007e+07
8.51956e+07
8.38176e+07
8.44066e+07
8.30642e+07
8.36453e+07
8.23366e+07
8.29083e+07
8.16321e+07
8.21934e+07
8.09484e+07
8.14987e+07
8.0284e+07
8.08227e+07
7.96376e+07
8.01642e+07
7.90079e+07
7.95223e+07
7.83942e+07
7.8896e+07
7.77956e+07
7.82847e+07
7.72115e+07
7.76877e+07
7.66412e+07
7.71045e+07
7.60843e+07
7.65347e+07
7.55404e+07
7.59779e+07
7.50091e+07
7.54337e+07
7.44902e+07
7.49019e+07
7.39833e+07
7.43823e+07
7.34882e+07
7.38747e+07
7.30048e+07
7.33789e+07
7.25328e+07
7.28946e+07
7.20721e+07
7.24217e+07
7.16225e+07
7.19599e+07
7.11835e+07
7.15088e+07
7.07549e+07
7.10679e+07
7.03362e+07
7.06366e+07
6.99265e+07
7.02141e+07
6.95253e+07
6.97995e+07
6.91316e+07
6.93906e+07
6.87421e+07
6.89808e+07
6.8349e+07
6.85613e+07
6.79481e+07
9.08859e+07
8.92645e+07
8.99163e+07
8.80344e+07
8.8436e+07
8.6601e+07
8.70949e+07
8.53794e+07
8.5982e+07
8.43622e+07
8.50192e+07
8.34674e+07
8.41433e+07
8.26449e+07
8.33245e+07
8.18724e+07
8.25492e+07
8.11391e+07
8.18091e+07
8.04379e+07
8.10986e+07
7.97637e+07
8.04136e+07
7.91131e+07
7.9751e+07
7.84835e+07
7.91089e+07
7.78732e+07
7.84855e+07
7.72806e+07
7.78796e+07
7.67046e+07
7.72902e+07
7.61442e+07
7.67162e+07
7.55987e+07
7.6157e+07
7.50672e+07
7.56118e+07
7.45493e+07
7.50802e+07
7.40443e+07
7.45615e+07
7.35518e+07
7.40554e+07
7.30715e+07
7.35615e+07
7.26029e+07
7.30796e+07
7.21459e+07
7.26093e+07
7.17002e+07
7.21504e+07
7.12655e+07
7.17028e+07
7.08417e+07
7.12662e+07
7.04285e+07
7.08405e+07
7.00259e+07
7.04254e+07
6.96336e+07
7.00207e+07
6.92513e+07
6.96261e+07
6.88787e+07
6.92412e+07
6.85153e+07
6.88653e+07
6.81606e+07
6.84979e+07
6.78142e+07
6.81385e+07
6.74752e+07
6.77853e+07
6.71414e+07
6.74327e+07
6.68058e+07
6.70725e+07
6.64636e+07
8.65458e+07
8.4907e+07
8.56526e+07
8.37787e+07
8.42936e+07
8.24712e+07
8.30728e+07
8.13683e+07
8.207e+07
8.04599e+07
8.12095e+07
7.96671e+07
8.04307e+07
7.89417e+07
7.97047e+07
7.82623e+07
7.90185e+07
7.76183e+07
7.83641e+07
7.7003e+07
7.77362e+07
7.64118e+07
7.71312e+07
7.58415e+07
7.65463e+07
7.52899e+07
7.59799e+07
7.47554e+07
7.54304e+07
7.42368e+07
7.48968e+07
7.37332e+07
7.43782e+07
7.32437e+07
7.38737e+07
7.27676e+07
7.33827e+07
7.23044e+07
7.29046e+07
7.18534e+07
7.2439e+07
7.14143e+07
7.19853e+07
7.09867e+07
7.15433e+07
7.05701e+07
7.11125e+07
7.01644e+07
7.06928e+07
6.97693e+07
7.02838e+07
6.93845e+07
6.98854e+07
6.90099e+07
6.94973e+07
6.86452e+07
6.91195e+07
6.82904e+07
6.87517e+07
6.79452e+07
6.83937e+07
6.76095e+07
6.80453e+07
6.7283e+07
6.77063e+07
6.69655e+07
6.73763e+07
6.66565e+07
6.70548e+07
6.63558e+07
6.67414e+07
6.60629e+07
6.64359e+07
6.57776e+07
6.61372e+07
6.54982e+07
6.58405e+07
6.52186e+07
6.55379e+07
6.49336e+07
8.21222e+07
8.04736e+07
8.13079e+07
7.94495e+07
8.0074e+07
7.82712e+07
7.89773e+07
7.72901e+07
7.80882e+07
7.64936e+07
7.73338e+07
7.58061e+07
7.66559e+07
7.51812e+07
7.60265e+07
7.45981e+07
7.54329e+07
7.40465e+07
7.48675e+07
7.352e+07
7.43254e+07
7.30144e+07
7.38032e+07
7.25269e+07
7.32987e+07
7.20555e+07
7.28101e+07
7.15988e+07
7.23365e+07
7.11561e+07
7.18769e+07
7.07263e+07
7.14305e+07
7.03089e+07
7.09967e+07
6.99034e+07
7.0575e+07
6.95092e+07
7.01648e+07
6.91259e+07
6.97658e+07
6.87531e+07
6.93776e+07
6.83906e+07
6.89998e+07
6.80381e+07
6.86323e+07
6.76952e+07
6.82747e+07
6.73619e+07
6.79268e+07
6.70379e+07
6.75886e+07
6.6723e+07
6.72597e+07
6.64171e+07
6.69401e+07
6.61201e+07
6.66297e+07
6.58317e+07
6.63281e+07
6.5552e+07
6.60353e+07
6.52806e+07
6.57511e+07
6.50173e+07
6.54751e+07
6.47619e+07
6.5207e+07
6.4514e+07
6.49466e+07
6.42737e+07
6.4694e+07
6.40409e+07
6.44484e+07
6.38147e+07
6.42063e+07
6.35899e+07
6.396e+07
6.33606e+07
7.7635e+07
7.59829e+07
7.69009e+07
7.50646e+07
7.57943e+07
7.4017e+07
7.48237e+07
7.31594e+07
7.40507e+07
7.24767e+07
7.34047e+07
7.18963e+07
7.283e+07
7.13739e+07
7.22997e+07
7.08892e+07
7.1801e+07
7.0432e+07
7.1327e+07
6.99963e+07
7.08729e+07
6.95782e+07
7.04356e+07
6.91752e+07
7.00131e+07
6.87855e+07
6.96042e+07
6.84082e+07
6.92079e+07
6.80424e+07
6.88236e+07
6.76876e+07
6.84505e+07
6.73433e+07
6.80883e+07
6.7009e+07
6.77366e+07
6.66844e+07
6.73948e+07
6.63692e+07
6.70628e+07
6.60631e+07
6.67403e+07
6.5766e+07
6.6427e+07
6.54774e+07
6.61227e+07
6.51974e+07
6.58271e+07
6.49257e+07
6.55403e+07
6.46622e+07
6.52619e+07
6.44068e+07
6.49919e+07
6.41593e+07
6.47301e+07
6.39196e+07
6.44765e+07
6.36876e+07
6.42308e+07
6.34632e+07
6.39929e+07
6.32462e+07
6.37627e+07
6.30365e+07
6.354e+07
6.28338e+07
6.33244e+07
6.26381e+07
6.31161e+07
6.24493e+07
6.29152e+07
6.22681e+07
6.27218e+07
6.20939e+07
6.25331e+07
6.19228e+07
6.23416e+07
6.17478e+07
7.31017e+07
7.14516e+07
7.24484e+07
7.06394e+07
7.14699e+07
6.97232e+07
7.06265e+07
6.89897e+07
6.99704e+07
6.84214e+07
6.94341e+07
6.79491e+07
6.89639e+07
6.75302e+07
6.8534e+07
6.71449e+07
6.81318e+07
6.67833e+07
6.77505e+07
6.64396e+07
6.73857e+07
6.61101e+07
6.70346e+07
6.57926e+07
6.66955e+07
6.54857e+07
6.63673e+07
6.51885e+07
6.60493e+07
6.49006e+07
6.5741e+07
6.46214e+07
6.5442e+07
6.43506e+07
6.5152e+07
6.4088e+07
6.48706e+07
6.38334e+07
6.45977e+07
6.35865e+07
6.43329e+07
6.33472e+07
6.40762e+07
6.31154e+07
6.38273e+07
6.28908e+07
6.35861e+07
6.26735e+07
6.33525e+07
6.24632e+07