/*--------------------------------*- C++ -*----------------------------------*\
| =========                 |                                                 |
| \\      /  F ield         | OpenFOAM: The Open Source CFD Toolbox           |
|  \\    /   O peration     | Version:  v2012                                 |
|   \\  /    A nd           | Website:  www.openfoam.com                      |
|    \\/     M anipulation  |                                                 |
\*---------------------------------------------------------------------------*/
FoamFile
{
    version     2.0;
    format      ascii;
    class       volScalarField;
    location    "1";
    object      sigmaHyd;
}
// * * * * * * * * * * * * * * * * * * * * * * * * * * * * * * * * * * * * * //

dimensions      [1 -1 -2 0 0 0 0];


internalField   nonuniform List<scalar> 
30465
(
7.11097e+06
5.88454e+06
8.71351e+06
6.80027e+06
6.27621e+06
6.25722e+06
8.91011e+06
8.8313e+06
1.00436e+07
7.50324e+06
6.95886e+06
9.52364e+06
6.56165e+06
647971
9.1128e+06
8.93794e+06
6.37019e+06
7.11512e+06
9.97215e+06
6.04696e+06
4.63449e+06
4.64316e+06
4.07816e+06
9.28939e+06
4.12835e+06
6.54523e+06
6.53349e+06
5.99317e+06
6.18987e+06
1.03188e+07
5.3285e+06
6.91226e+06
6.90515e+06
6.6171e+06
7.66426e+06
5.9475e+06
9.6717e+06
4.82966e+06
6.53473e+06
9.7777e+06
5.02501e+06
8.69257e+06
9.19354e+06
5.82372e+06
5.82959e+06
1.05154e+07
7.52635e+06
5.89043e+06
6.62678e+06
5.05772e+06
5.08704e+06
6.56948e+06
7.58664e+06
7.52175e+06
1.88921e+07
6.01764e+06
1.85184e+07
6.40223e+06
6.27495e+06
7.26514e+06
7.25885e+06
7.93429e+06
5.55013e+06
7.66422e+06
7.63419e+06
-7.80168e+06
8.21537e+06
1.23362e+07
4.00123e+06
6.39039e+06
4.99798e+06
6.34703e+06
1.02035e+07
8.34976e+06
6.93173e+06
9.97853e+06
6.43427e+06
6.43533e+06
1.36392e+06
7.38959e+06
8.9269e+06
8.89359e+06
6.46001e+06
6.44144e+06
6.49758e+06
6.58339e+06
6.28857e+06
9.90587e+06
6.1132e+06
5.49629e+06
7.00882e+06
7.01351e+06
6.33883e+06
6.34293e+06
7.51296e+06
6.72541e+06
6.30982e+06
6.32386e+06
8.2355e+06
6.34211e+06
6.6651e+06
4.45124e+06
4.50064e+06
6.94961e+06
1.29943e+06
8.9157e+06
8.87478e+06
6.44954e+06
5.02752e+06
1.12816e+06
8.95531e+06
6.82545e+06
7.89572e+06
7.87398e+06
6.68588e+06
6.63159e+06
1.97294e+06
6.31495e+06
6.85239e+06
1.69616e+07
9.86738e+06
5.93909e+06
5.99656e+06
-2.96427e+06
5.88759e+06
5.86187e+06
3.86354e+06
7.46334e+06
5.939e+06
-4.73038e+06
1.27011e+07
6.98052e+06
8.98378e+06
1.14838e+07
6.3099e+06
2.55365e+06
9.81205e+06
6.37054e+06
1.03582e+07
9.86319e+06
5.82418e+06
9.42154e+06
-707825
5.05984e+06
5.99692e+06
8.04753e+06
7.07827e+06
7.07789e+06
7.86368e+06
7.5898e+06
5.78613e+06
6.9366e+06
6.73557e+06
6.73918e+06
6.59941e+06
1.34243e+06
8.54682e+06
6.52301e+06
9.26183e+06
5.79639e+06
5.79179e+06
9.34033e+06
8.41792e+06
8.46894e+06
1.51348e+06
6.8163e+06
6.40762e+06
1.21142e+07
6.40684e+06
6.83453e+06
6.02951e+06
7.02826e+06
6.64953e+06
6.6665e+06
6.35503e+06
6.95119e+06
7.43054e+06
6.32753e+06
1.46229e+06
9.20989e+06
9.04084e+06
7.30063e+06
7.26721e+06
5.93329e+06
5.96545e+06
3.28045e+06
8.55409e+06
-5.7882e+06
6.8766e+06
6.32764e+06
1.00616e+07
6.51176e+06
3.97626e+06
9.11208e+06
6.42794e+06
6.44031e+06
8.90532e+06
6.48255e+06
6.43019e+06
7.15054e+06
6.98198e+06
6.35987e+06
7.42553e+06
1.21427e+07
5.77911e+06
5.77956e+06
-3.82681e+06
1.23937e+07
6.70225e+06
5.62653e+06
8.72191e+06
5.69787e+06
3.61375e+06
6.47697e+06
1.05227e+07
8.58262e+06
8.6472e+06
6.49929e+06
6.50989e+06
9.98717e+06
7.22038e+06
6.76601e+06
6.77807e+06
6.31851e+06
8.16367e+06
-4.99518e+06
7.86953e+06
6.06087e+06
5.46819e+06
3.60778e+06
8.00031e+06
6.61334e+06
6.6253e+06
-117195
2.30592e+06
2.27919e+06
7.32758e+06
7.2904e+06
9.01912e+06
9.03111e+06
7.05123e+06
3.62112e+06
6.19259e+06
2.75435e+06
6.25277e+06
9.24444e+06
6.71185e+06
6.50976e+06
1.19641e+07
2.3302e+06
6.47656e+06
-4.07872e+06
-4.2439e+06
7.89489e+06
6.47129e+06
1.27546e+07
9.53911e+06
9.25887e+06
7.48403e+06
1.26739e+07
6.35557e+06
3.75475e+06
3.84843e+06
-2.3218e+06
8.67509e+06
8.57849e+06
6.43048e+06
8.33971e+06
6.58355e+06
6.35442e+06
6.81311e+06
6.11023e+06
6.08898e+06
6.29441e+06
1.17008e+06
5.03698e+06
-1.55417e+06
5.09734e+06
9.83581e+06
4.34472e+06
9.87294e+06
7.00364e+06
-1.23633e+06
6.37847e+06
5.62519e+06
6.40239e+06
8.03593e+06
6.48305e+06
7.58125e+06
5.78286e+06
5.7958e+06
4.98718e+06
5.98218e+06
9.30367e+06
7.07216e+06
6.23141e+06
6.91801e+06
3.33978e+06
3.37244e+06
6.36709e+06
6.93618e+06
6.91199e+06
1.01654e+07
5.2623e+06
5.62576e+06
7.655e+06
7.61843e+06
6.96401e+06
-472239
-722625
6.61891e+06
6.60454e+06
9.00718e+06
6.14976e+06
1.03777e+07
2.38518e+06
1.2439e+07
1.26664e+07
8.55692e+06
1.76557e+07
6.91926e+06
1.78779e+07
6.97887e+06
1.72378e+06
5.88996e+06
5.86446e+06
1.51501e+07
4.20379e+06
6.18976e+06
8.83256e+06
1.50427e+06
7.97623e+06
2.12938e+06
9.20197e+06
279575
8.95164e+06
6.83871e+06
4.51422e+06
4.53647e+06
7.14549e+06
7.86734e+06
6.59337e+06
8.63953e+06
6.39692e+06
6.10423e+06
7.55176e+06
7.61835e+06
9.67465e+06
5.31402e+06
7.10434e+06
7.54932e+06
5.69479e+06
8.19233e+06
9.06411e+06
6.15576e+06
8.40146e+06
2.55259e+06
9.22416e+06
745651
-4.64747e+06
6.35739e+06
6.40164e+06
6.60246e+06
21614.8
-4.29747e+06
9.02712e+06
7.49358e+06
4.02593e+06
4.12785e+06
5.76109e+06
1.96808e+07
7.03612e+06
9.59144e+06
5.60608e+06
5.5181e+06
8.45582e+06
6.02052e+06
7.36747e+06
6.41347e+06
6.46901e+06
1.75652e+06
6.16695e+06
6.18949e+06
8.62147e+06
8.1872e+06
5.52581e+06
103562
8.91009e+06
8.86588e+06
233242
1.04677e+07
4.09457e+06
5.28534e+06
6.05603e+06
6.73556e+06
5.99483e+06
971677
6.4355e+06
5.90104e+06
5.90856e+06
7.24761e+06
7.21556e+06
2.18276e+06
3.89429e+06
7.61031e+06
5.99374e+06
6.25626e+06
6.94542e+06
6.33585e+06
5.63388e+06
5.83736e+06
8.44501e+06
5.77633e+06
7.3723e+06
6.64782e+06
-3.03138e+06
5.77773e+06
1.58215e+07
9.20744e+06
9.26372e+06
5.31394e+06
1.07e+07
9.10279e+06
5.38972e+06
6.51503e+06
5.34183e+06
9.02656e+06
6.23999e+06
6.81351e+06
6.00599e+06
9.87342e+06
6.39629e+06
127150
6.20674e+06
6.1935e+06
5.78413e+06
7.76735e+06
6.46741e+06
1.15087e+07
4.96649e+06
8.68279e+06
1.35351e+06
6.48068e+06
6.99324e+06
7.29494e+06
6.84913e+06
5.70918e+06
5.67375e+06
9.32809e+06
-3.08859e+06
6.71868e+06
5.79026e+06
3.91701e+06
3.6236e+06
7.43022e+06
8.83252e+06
6.42314e+06
3.59626e+06
3.66362e+06
5.51812e+06
6.33912e+06
6.332e+06
1.32788e+07
6.42861e+06
5.76511e+06
7.57587e+06
6.3705e+06
7.11817e+06
6.65993e+06
6.64629e+06
9.18568e+06
9.1631e+06
6.37301e+06
5.45392e+06
6.67175e+06
1.01009e+07
6.80008e+06
6.78437e+06
172163
4.2207e+06
6.14286e+06
6.12244e+06
6.2191e+06
5.13155e+06
6.5801e+06
5.98451e+06
8.70979e+06
8.7635e+06
6.05514e+06
3.53691e+06
-5.49396e+06
6.98216e+06
5.82977e+06
8.13968e+06
7.4466e+06
9.30658e+06
5.03046e+06
6.60316e+06
6.35528e+06
5.92537e+06
1.31072e+07
6.54339e+06
6.5308e+06
1.43977e+07
4.81536e+06
7.58693e+06
5.49591e+06
8.93321e+06
3.75239e+06
8.82825e+06
8.46072e+06
9.3008e+06
5.62214e+06
6.91318e+06
5.79148e+06
5.77597e+06
5.20241e+06
-1.05084e+06
-7.59827e+06
7.8786e+06
1.65555e+07
7.66022e+06
7.20714e+06
6.15019e+06
6.34074e+06
2.48613e+06
9.19018e+06
8.22986e+06
1.65876e+06
423169
6.35926e+06
3.69509e+06
9.08003e+06
3.81265e+06
7.2929e+06
5.94336e+06
1.43553e+07
6.46974e+06
6.3073e+06
4.92027e+06
4.67604e+06
5.24698e+06
6.74404e+06
1.66586e+07
1.32189e+07
6.13126e+06
6.26045e+06
6.24951e+06
8.69447e+06
6.07769e+06
7.62524e+06
9.34633e+06
6.02866e+06
6.47673e+06
7.30674e+06
4.51044e+06
5.21862e+06
6.78449e+06
4.61048e+06
4.50994e+06
1.65784e+06
4.62795e+06
3.76889e+06
1.5368e+07
1.28013e+07
3.59612e+06
3.67212e+06
5.85026e+06
3.07861e+06
3.04905e+06
6.15569e+06
6.56906e+06
67319.7
1.05593e+07
6.46928e+06
1.05594e+07
7.02502e+06
7.00499e+06
8.20503e+06
6.75165e+06
8.48351e+06
6.41316e+06
3.39182e+06
5.52638e+06
7.45109e+06
6.79532e+06
6.01266e+06
6.37819e+06
6.22925e+06
6.23945e+06
6.26182e+06
-5.11428e+06
5.78555e+06
7.77575e+06
7.95319e+06
6.25944e+06
6.26621e+06
7.9164e+06
7.73945e+06
3.41935e+06
7.33577e+06
4.65253e+06
5.73711e+06
4.69321e+06
9.87971e+06
6.05276e+06
5.54265e+06
5.56584e+06
7.97762e+06
7.35094e+06
9.78028e+06
9.85568e+06
9.40951e+06
5.95044e+06
1.77655e+07
6.7407e+06
1.33235e+07
6.76816e+06
1.76927e+07
8.31428e+06
6.37101e+06
6.0725e+06
8.45802e+06
6.31479e+06
-4.68021e+06
1.10091e+07
6.08109e+06
5.62202e+06
6.43638e+06
6.82533e+06
4.22805e+06
8.30287e+06
7.37698e+06
6.85744e+06
6.83378e+06
6.76331e+06
5.73211e+06
6.66578e+06
-1.85736e+06
5.31926e+06
7.38058e+06
9.91295e+06
-4.74267e+06
6.77246e+06
4.8822e+06
6.08976e+06
8.27742e+06
9.41244e+06
6.35103e+06
6.47684e+06
6.33468e+06
1.29945e+07
4.17812e+06
5.13364e+06
6.62795e+06
6.2735e+06
3.38928e+06
6.29227e+06
6.26541e+06
9.60099e+06
4.26327e+06
6.77829e+06
6.79569e+06
6.38027e+06
7.63372e+06
5.80225e+06
5.97159e+06
5.96977e+06
5.00162e+06
1.2261e+07
6.14811e+06
68417.9
3.81999e+06
1.26736e+07
8.94519e+06
6.36176e+06
6.25559e+06
1.37391e+07
6.37154e+06
5.00648e+06
6.51944e+06
8.93195e+06
6.22023e+06
5.46436e+06
1.60296e+07
1.2355e+07
6.13827e+06
6.78864e+06
6.76749e+06
6.61309e+06
6.49065e+06
6.28898e+06
8.209e+06
7.24543e+06
6.38756e+06
7.515e+06
6.7926e+06
6.78994e+06
9.03731e+06
8.96161e+06
9.08244e+06
9.17251e+06
7.35409e+06
6.28168e+06
6.28084e+06
1.3151e+07
1.55668e+06
9.43769e+06
8.52774e+06
6.4684e+06
8.37183e+06
6.48286e+06
6.49907e+06
7.54008e+06
9.00728e+06
-2.5667e+06
9.78777e+06
9.78343e+06
6.03581e+06
5.79294e+06
9.25906e+06
9.22248e+06
4.45501e+06
8.20602e+06
8.85273e+06
6.65304e+06
7.20811e+06
1.13245e+07
6.46912e+06
6.49083e+06
5.7313e+06
5.72533e+06
4.97223e+06
1.60812e+07
5.07831e+06
1.57742e+07
7.15709e+06
6.98407e+06
4.0647e+06
5.65708e+06
4.51189e+06
4.54537e+06
5.51159e+06
5.54293e+06
5.44655e+06
1.42103e+07
1.38184e+07
3.02288e+06
1.00981e+07
6.19627e+06
4.20444e+06
8.46211e+06
8.38309e+06
7.43899e+06
1.25065e+07
8.1551e+06
6.94835e+06
6.16411e+06
8.32483e+06
3.06903e+06
2.03618e+06
3.02067e+06
1.20164e+07
5.98358e+06
-2.74718e+06
7.73783e+06
4.95456e+06
5.51028e+06
5.49565e+06
6.50167e+06
6.134e+06
6.15978e+06
4.43323e+06
6.50385e+06
5.85276e+06
6.40685e+06
8.66141e+06
8.70826e+06
7.00635e+06
8.38021e+06
4.98446e+06
6.17008e+06
2.99315e+06
6.86826e+06
6.85624e+06
8.13139e+06
7.37296e+06
6.01626e+06
6.011e+06
5.60373e+06
4.84443e+06
4.8441e+06
1.06121e+07
6.74589e+06
7.05349e+06
6.081e+06
3.5111e+06
-6.40847e+06
5.98006e+06
5.73193e+06
2.32626e+06
7.12374e+06
6.53477e+06
6.52807e+06
8.08904e+06
8.88818e+06
7.30916e+06
5.90856e+06
2.62882e+06
3.71944e+06
5.78408e+06
8.82544e+06
5.03171e+06
6.26033e+06
6.52873e+06
6.54344e+06
-2.1235e+06
6.11223e+06
6.11761e+06
5.60013e+06
5.62599e+06
3.51147e+06
6.41677e+06
6.41428e+06
1.89671e+06
3.72659e+06
1.12953e+07
6.5143e+06
6.16514e+06
5.92686e+06
6.26218e+06
5.50717e+06
9.25824e+06
6.50579e+06
9.15404e+06
-506606
6.44867e+06
9.09178e+06
5.96354e+06
6.06812e+06
9.56866e+06
-774629
6.16828e+06
6.27387e+06
6.34087e+06
6.34627e+06
5.93809e+06
6.84761e+06
4.02825e+06
9.69674e+06
9.74634e+06
1.73127e+06
1.29935e+07
6.52416e+06
1.66387e+06
1.55637e+07
6.13375e+06
8.21183e+06
7.49931e+06
114199
5.84557e+06
5.7261e+06
1.05574e+07
6.34349e+06
8.96854e+06
5.7768e+06
1.6174e+06
7.21731e+06
6.28591e+06
7.50336e+06
7.77798e+06
6.05547e+06
4.09992e+06
7.84015e+06
1.06508e+07
6.3533e+06
6.03774e+06
6.02687e+06
6.06905e+06
1.26872e+07
6.33598e+06
5.26055e+06
5.24705e+06
6.17413e+06
5.43732e+06
6.37162e+06
5.32615e+06
6.55845e+06
4.64741e+06
6.24453e+06
6.43676e+06
6.3905e+06
8.52507e+06
7.38872e+06
-5.84051e+06
6.8219e+06
8.4331e+06
469989
6.42786e+06
6.38934e+06
1.25406e+07
9.02056e+06
6.49544e+06
6.33053e+06
6.52064e+06
5.8341e+06
8.95145e+06
6.43531e+06
9.11825e+06
5.94611e+06
1.568e+07
3.49263e+06
3.49348e+06
1.28585e+06
4.9569e+06
5.66582e+06
9.53363e+06
7.11508e+06
1.8563e+06
9.53376e+06
6.87002e+06
8.95215e+06
6.02985e+06
9.85575e+06
1.75373e+06
6.89596e+06
946344
9.14033e+06
5.78674e+06
9.00918e+06
7.05146e+06
9.02882e+06
6.9222e+06
1.00442e+07
7.21449e+06
9.80137e+06
6.04417e+06
6.20683e+06
1.118e+06
9.50915e+06
6.7049e+06
6.38142e+06
8.75667e+06
9.47115e+06
8.85191e+06
9.93198e+06
8.1149e+06
7.52602e+06
3.09016e+06
5.49234e+06
6.61549e+06
6.37004e+06
6.49638e+06
5.23314e+06
6.89883e+06
7.03679e+06
6.39907e+06
1.06907e+07
5.82211e+06
7.22317e+06
6.3456e+06
6.33047e+06
8.11461e+06
5.46048e+06
9.07522e+06
5.50713e+06
6.55323e+06
4.15942e+06
3.04646e+06
6.3113e+06
9.56181e+06
1.25878e+07
-7.30781e+06
4.12922e+06
4.89688e+06
6.42472e+06
6.07291e+06
5.04665e+06
7.79706e+06
5.60867e+06
6.72194e+06
7.18151e+06
-2.50336e+06
6.61167e+06
6.38585e+06
6.24909e+06
1.34877e+07
7.28541e+06
7.23691e+06
5.97315e+06
5.57945e+06
6.28272e+06
2.11268e+06
3.91327e+06
3.8726e+06
5.25661e+06
5.98279e+06
8.56181e+06
1.69752e+07
6.28059e+06
6.33593e+06
9.55341e+06
5.69086e+06
6.47337e+06
6.51359e+06
3.35068e+06
6.59041e+06
6.50647e+06
-1.87568e+06
1.8453e+07
4.05715e+06
1.87661e+07
6.64014e+06
8.25834e+06
5.79802e+06
5.82553e+06
7.50801e+06
7.37585e+06
5.87197e+06
6.25092e+06
6.9556e+06
8.96428e+06
9.02276e+06
6.2636e+06
6.34431e+06
5.47492e+06
7.05228e+06
6.18378e+06
6.17275e+06
8.39831e+06
4.91508e+06
6.6161e+06
8.3357e+06
1.9119e+06
-2.08817e+06
1.77031e+06
1.99896e+07
6.54028e+06
5.88989e+06
5.92415e+06
4.66371e+06
-1.09263e+06
6.4694e+06
4.80615e+06
6.39385e+06
5.98498e+06
4.85904e+06
8.77932e+06
3.82216e+06
2.74252e+06
5.79663e+06
7.06465e+06
-197594
7.00541e+06
5.82543e+06
8.31656e+06
6.32584e+06
9.04563e+06
7.03001e+06
9.04259e+06
6.4773e+06
6.47533e+06
6.04311e+06
1.86591e+06
5.9638e+06
5.94762e+06
2.84889e+06
1.22226e+07
6.15123e+06
5.73555e+06
9.50619e+06
6.91619e+06
6.9267e+06
6.49316e+06
5.93803e+06
1.04295e+07
8.55058e+06
5.91588e+06
5.98075e+06
-382462
6.20194e+06
1.22441e+07
4.71658e+06
2.22581e+06
4.60127e+06
7.57843e+06
8.32777e+06
7.60115e+06
6.47325e+06
5.03591e+06
4.91386e+06
5.89792e+06
5.56304e+06
6.20498e+06
6.16538e+06
1.36058e+07
4.75718e+06
37613.3
4.76934e+06
6.83858e+06
6.47198e+06
6.24358e+06
5.4427e+06
5.43321e+06
6.41088e+06
6.38939e+06
7.58366e+06
6.57571e+06
6.1936e+06
6.41587e+06
7.69316e+06
5.77608e+06
7.71014e+06
-1.9892e+06
5.3677e+06
7.04241e+06
8.92071e+06
-1.84397e+06
7.40519e+06
6.01734e+06
4.48744e+06
4.514e+06
9.54037e+06
6.05702e+06
6.26247e+06
8.62231e+06
6.87985e+06
6.8751e+06
6.29792e+06
6.28759e+06
6.33632e+06
4.47569e+06
1.06397e+06
-3.87728e+06
1.20745e+07
2.98228e+06
7.04681e+06
1.15632e+07
7.72967e+06
7.26661e+06
8.67632e+06
6.44394e+06
6.42828e+06
4.1573e+06
2.8628e+06
6.71377e+06
6.73994e+06
4.78725e+06
2.78543e+06
5.11459e+06
6.43814e+06
1.13548e+06
7.84336e+06
5.23611e+06
9.01247e+06
5.68971e+06
9.02667e+06
6.60652e+06
6.99508e+06
6.73717e+06
6.72883e+06
8.75922e+06
3.24914e+06
3.7786e+06
6.48313e+06
7.13939e+06
7.47598e+06
6.02462e+06
6.03267e+06
6.37751e+06
3.77759e+06
6.52098e+06
1.23568e+07
1.85384e+06
7.31351e+06
7.61637e+06
5.81828e+06
7.04154e+06
6.29758e+06
9.49429e+06
4.80946e+06
5.74049e+06
5.01201e+06
4.81417e+06
3.89966e+06
7.66144e+06
7.43486e+06
1.05552e+07
4.6237e+06
6.73499e+06
6.33047e+06
9.19203e+06
6.80544e+06
6.79322e+06
6.40794e+06
6.0742e+06
4.52891e+06
4.53579e+06
-103925
6.67189e+06
8.46888e+06
6.0719e+06
6.34248e+06
7.40591e+06
6.47781e+06
6.48608e+06
1.40176e+07
7.28389e+06
5.8219e+06
5.14547e+06
1.15002e+07
6.71296e+06
6.73271e+06
6.40394e+06
8.33323e+06
1.13095e+07
2.90045e+06
4.91659e+06
9.2353e+06
6.09438e+06
6.36237e+06
7.00363e+06
6.97945e+06
8.26147e+06
6.49958e+06
8.26054e+06
6.23289e+06
6.24505e+06
9.07723e+06
4.26589e+06
6.80036e+06
2.22384e+07
8.31615e+06
7.55196e+06
5.83363e+06
6.11457e+06
1.50857e+06
1.54313e+07
6.21577e+06
1.38556e+07
6.58815e+06
3.67729e+06
2.61575e+06
6.58322e+06
6.55845e+06
5.86716e+06
5.92815e+06
1.0113e+07
7.36445e+06
7.42729e+06
7.78576e+06
6.37749e+06
3.65381e+06
6.55498e+06
5.92484e+06
7.43132e+06
5.32847e+06
5.97356e+06
5.95577e+06
6.33919e+06
-6.64458e+06
4.8543e+06
6.49534e+06
1.02917e+07
1.00712e+07
5.7779e+06
5.93046e+06
7.42598e+06
7.63118e+06
5.80441e+06
8.70393e+06
6.2705e+06
6.08393e+06
6.45157e+06
6.57919e+06
-2.28255e+06
5.7738e+06
6.33459e+06
4.46276e+06
6.10525e+06
6.11267e+06
8.92373e+06
7.13234e+06
7.10416e+06
6.85272e+06
3.55727e+06
1.31587e+07
6.4036e+06
2.99661e+06
6.24286e+06
6.0961e+06
6.34087e+06
5.41597e+06
6.29826e+06
7.92835e+06
1.39591e+07
1.49117e+07
6.5739e+06
6.05387e+06
5.39638e+06
6.89833e+06
8.14642e+06
6.62231e+06
5.7551e+06
1.46693e+07
6.01387e+06
9.11199e+06
5.56808e+06
1.78344e+07
2.76077e+06
6.72219e+06
2.82804e+06
3.50208e+06
3.46183e+06
9.98221e+06
9.58378e+06
6.37731e+06
1.76326e+07
-769008
580582
1.70256e+07
922867
2.60323e+06
5.8036e+06
3.85242e+06
6.52565e+06
5.9835e+06
5.96703e+06
6.08127e+06
6.17975e+06
6.0221e+06
6.00096e+06
-93145.7
4.20088e+06
8.18669e+06
4.82324e+06
2.6679e+06
8.93949e+06
4.8549e+06
2.7717e+06
3.84874e+06
2.47524e+06
7.61665e+06
2.56864e+06
8.34754e+06
6.46041e+06
6.44416e+06
6.36478e+06
6.26968e+06
3.07371e+06
1.11177e+07
6.11032e+06
5.70518e+06
5.41014e+06
8.34971e+06
-158224
2.52821e+06
2.66157e+06
-971805
4.82867e+06
4.17466e+06
7.61854e+06
8.95565e+06
7.64923e+06
4.87676e+06
8.2865e+06
8.27996e+06
4.42588e+06
1.02273e+07
-639756
152926
5.97532e+06
5.96847e+06
6.401e+06
7.18592e+06
2.5225e+06
5.71635e+06
9.88985e+06
6.29195e+06
6.75775e+06
-1.0119e+06
5.00098e+06
-3.98491e+06
4.46988e+06
8.9461e+06
8.93342e+06
7.02598e+06
7.04092e+06
3.54922e+06
5.68451e+06
5.03738e+06
6.5192e+06
5.81295e+06
7.05563e+06
4.90051e+06
6.89788e+06
4.94442e+06
6.42161e+06
5.37811e+06
6.92806e+06
7.23981e+06
5.38814e+06
6.11882e+06
6.20721e+06
6.38203e+06
6.36354e+06
6.62738e+06
-4.94743e+06
7.43316e+06
5.37132e+06
4.92613e+06
4.30723e+06
5.95603e+06
9.8718e+06
1.20766e+07
5.89869e+06
1.54316e+07
6.93455e+06
6.51762e+06
7.2842e+06
3.23602e+06
9.18287e+06
1.1359e+06
9.06974e+06
4.18154e+06
7.05396e+06
6.28874e+06
6.73236e+06
6.74919e+06
7.51969e+06
6.09013e+06
6.43988e+06
6.48221e+06
8.97697e+06
6.64921e+06
6.30451e+06
7.13886e+06
7.61458e+06
6.30842e+06
-6.42441e+06
2.05111e+06
8.28919e+06
3.99438e+06
7.68836e+06
1.04329e+07
4.34898e+06
5.75855e+06
7.58646e+06
-2.87989e+06
1.55291e+06
3.22457e+06
7.05195e+06
6.36265e+06
7.76412e+06
7.81703e+06
4.96728e+06
-4.92745e+06
6.27091e+06
1.0027e+07
9.76258e+06
-4.72287e+06
6.60186e+06
6.46121e+06
5.88595e+06
8.86217e+06
7.40081e+06
4.18629e+06
6.81475e+06
6.42038e+06
6.42078e+06
6.3479e+06
6.82377e+06
8.31206e+06
6.07441e+06
6.68611e+06
6.44227e+06
8.74378e+06
7.418e+06
6.09062e+06
7.345e+06
-5.18432e+06
7.08449e+06
4.37548e+06
6.88084e+06
8.85937e+06
5.98839e+06
6.30445e+06
5.8746e+06
7.71858e+06
7.11518e+06
3.41406e+06
6.70378e+06
5.60806e+06
6.09305e+06
7.98919e+06
6.38991e+06
6.39923e+06
4.66536e+06
4.70784e+06
5.39491e+06
9.03362e+06
6.46727e+06
3.64305e+06
6.53924e+06
6.747e+06
6.73432e+06
1.16764e+07
5.19998e+06
6.75134e+06
6.47359e+06
6.49243e+06
6.52065e+06
4.99825e+06
-6.66232e+06
5.18067e+06
967617
5.15718e+06
8.67504e+06
4.64819e+06
6.53041e+06
6.40796e+06
5.80117e+06
9.94953e+06
6.93416e+06
6.31862e+06
6.40628e+06
6.4318e+06
7.18855e+06
6.08117e+06
4.92187e+06
6.02543e+06
7.59827e+06
7.52427e+06
6.33993e+06
3.9966e+06
6.00997e+06
7.43786e+06
1.22515e+07
1.06407e+07
7.17247e+06
4.98532e+06
5.48394e+06
8.93737e+06
7.67997e+06
6.24675e+06
6.98732e+06
5.45748e+06
6.29873e+06
5.78064e+06
5.79638e+06
5.71203e+06
5.73269e+06
4.21248e+06
5.74301e+06
8.56236e+06
1.23913e+07
6.40997e+06
8.39607e+06
4.83411e+06
-7.65184e+06
6.95077e+06
4.82762e+06
1.41658e+07
1.41615e+07
2.63829e+06
7.10208e+06
6.6785e+06
6.38769e+06
5.92257e+06
8.22618e+06
7.43018e+06
6.37431e+06
1.8295e+06
6.17201e+06
1.20229e+07
6.9948e+06
6.40902e+06
4.68972e+06
6.12246e+06
6.33848e+06
6.1898e+06
3.37756e+06
9.87017e+06
1.17974e+07
1.13762e+07
7.5638e+06
4.4213e+06
1.25598e+07
1.24109e+07
3.73089e+06
4.0495e+06
6.49674e+06
4.8609e+06
8.0799e+06
4.59484e+06
-2.94044e+06
7.15112e+06
7.16117e+06
7.97479e+06
8.35996e+06
4.72044e+06
6.02832e+06
6.13574e+06
3.56674e+06
8.18426e+06
3.62862e+06
6.35862e+06
6.46304e+06
6.1694e+06
6.62116e+06
6.18688e+06
3.66081e+06
6.52602e+06
6.23663e+06
4.86892e+06
6.17381e+06
6.15901e+06
6.00998e+06
5.99969e+06
6.48379e+06
6.77109e+06
4.7879e+06
8.09203e+06
6.86083e+06
3.67639e+06
4.79984e+06
8.35501e+06
4.53191e+06
7.51617e+06
3.59673e+06
8.38912e+06
6.23629e+06
6.24506e+06
7.52115e+06
4.92794e+06
4.89439e+06
5.36398e+06
9.28505e+06
6.20827e+06
6.78085e+06
7.5892e+06
9.26107e+06
-564169
7.36648e+06
3.9663e+06
5.75055e+06
7.57516e+06
6.16946e+06
6.79314e+06
6.68005e+06
5.99695e+06
5.58106e+06
5.34915e+06
7.22275e+06
6.02492e+06
1.12819e+07
7.99283e+06
8.77202e+06
-9.25733e+06
9.12188e+06
6.15951e+06
1.43869e+07
5.92779e+06
8.45507e+06
5.05838e+06
8.01612e+06
6.86548e+06
6.05447e+06
5.83106e+06
6.44401e+06
7.36003e+06
6.50124e+06
6.9681e+06
5.02631e+06
5.06873e+06
8.08164e+06
2.31652e+06
5.06063e+06
8.41012e+06
6.38963e+06
7.06193e+06
7.17233e+06
7.43957e+06
1.18632e+06
3.22008e+06
4.55083e+06
3.7504e+06
6.31699e+06
499149
7.54204e+06
1.01381e+07
8.34445e+06
1.68042e+07
5.58486e+06
5.90795e+06
7.50263e+06
7.4435e+06
8.74581e+06
6.66353e+06
5.16102e+06
5.19069e+06
8.67776e+06
6.3014e+06
7.48879e+06
6.61999e+06
6.60678e+06
6.25121e+06
7.42893e+06
3.27617e+06
3.49188e+06
5.93067e+06
7.84452e+06
3.0367e+06
8.14389e+06
6.09321e+06
809788
5.98754e+06
1.03436e+07
833895
7.46535e+06
8.93698e+06
3.28504e+06
6.04338e+06
6.08903e+06
6.08092e+06
6.70389e+06
6.37599e+06
7.09295e+06
7.07471e+06
7.44841e+06
1.93029e+06
6.65573e+06
1.0055e+07
5.73238e+06
7.76047e+06
5.7291e+06
5.62892e+06
5.87579e+06
6.92174e+06
7.11481e+06
9.14374e+06
6.09161e+06
1.83142e+07
7.59536e+06
1.82584e+07
5.86717e+06
8.39555e+06
6.7933e+06
6.86147e+06
5.9266e+06
7.11609e+06
6.67235e+06
5.90199e+06
3.55576e+06
2.33449e+06
5.12976e+06
6.63179e+06
2.20192e+06
9.26017e+06
7.09956e+06
7.07221e+06
6.15946e+06
7.55932e+06
8.67537e+06
1.30372e+06
1.28133e+06
5.92097e+06
5.92759e+06
8.07371e+06
8.34072e+06
5.81974e+06
7.62851e+06
4.39106e+06
7.87812e+06
8.62448e+06
5.04756e+06
6.30984e+06
6.39956e+06
1.59567e+07
7.05939e+06
6.00276e+06
44856.5
5.78813e+06
7.66151e+06
-1.54994e+06
7.09164e+06
6.7444e+06
4.97027e+06
6.5155e+06
5.82339e+06
7.83278e+06
7.77777e+06
5.70232e+06
1.92186e+06
4.85252e+06
4.42806e+06
6.40694e+06
6.03968e+06
9.04827e+06
2.77031e+06
6.29361e+06
6.27135e+06
-827934
6.15843e+06
6.0897e+06
5.21917e+06
-750120
6.95382e+06
6.13025e+06
7.81572e+06
1.04096e+07
7.18907e+06
7.21615e+06
1.00306e+07
7.8004e+06
6.69672e+06
6.26509e+06
7.4171e+06
4.78237e+06
1.62608e+07
6.15938e+06
5.8518e+06
9.96889e+06
6.82179e+06
6.5161e+06
7.64486e+06
6.43915e+06
6.65676e+06
9.11612e+06
6.51248e+06
5.93828e+06
871602
6.5912e+06
4.62737e+06
6.42117e+06
6.05928e+06
5.50483e+06
6.63501e+06
8.30394e+06
7.23996e+06
7.04791e+06
7.07008e+06
7.66836e+06
7.53663e+06
7.72293e+06
3.63088e+06
6.69014e+06
3.68032e+06
6.24542e+06
6.36721e+06
8.21948e+06
8.42256e+06
6.31086e+06
3.9911e+06
5.5221e+06
6.98101e+06
6.64349e+06
9.5347e+06
6.56224e+06
6.5559e+06
3.82649e+06
3.91965e+06
4.82084e+06
4.83489e+06
7.36003e+06
5.97022e+06
7.32696e+06
7.35224e+06
-186305
5.06992e+06
5.08827e+06
6.56909e+06
8.37443e+06
8.04635e+06
7.26483e+06
6.9282e+06
8.1808e+06
6.49687e+06
4.42104e+06
2.9302e+06
6.28706e+06
6.79872e+06
1.77765e+06
6.33662e+06
7.69442e+06
8.89278e+06
5.38868e+06
1.49104e+06
6.95996e+06
1.79217e+06
6.89497e+06
6.704e+06
6.68667e+06
6.8862e+06
5.9242e+06
4.26961e+06
815183
8.40919e+06
6.60036e+06
7.02192e+06
9.18488e+06
9.25469e+06
2.8219e+06
6.23933e+06
5.02707e+06
5.03017e+06
-3.16348e+06
8.94885e+06
1.04588e+07
6.5993e+06
1.21143e+07
7.04263e+06
9.30734e+06
7.21119e+06
8.26208e+06
1.45771e+06
6.22894e+06
6.22168e+06
6.46595e+06
7.66115e+06
7.6493e+06
1.61163e+07
2.27142e+06
6.65263e+06
6.80199e+06
6.12734e+06
6.41684e+06
9.507e+06
1.24174e+06
5.89118e+06
5.87224e+06
6.25603e+06
5.66742e+06
4.52255e+06
5.4217e+06
8.1574e+06
8.1795e+06
6.28353e+06
1.0957e+07
1.0726e+07
9.14295e+06
9.55587e+06
7.38331e+06
5.69859e+06
6.30896e+06
6.28558e+06
1.22796e+07
3.3802e+06
9.67068e+06
-4.14295e+06
7.35031e+06
5.77019e+06
7.24135e+06
1.33667e+07
3.8638e+06
5.09835e+06
1.41447e+06
6.72619e+06
917957
8.62974e+06
6.78233e+06
6.61726e+06
6.60848e+06
6.02279e+06
2.87648e+06
-3.12078e+06
5.21349e+06
7.60002e+06
6.99543e+06
6.21394e+06
1.42305e+07
8.70081e+06
5.72393e+06
5.56944e+06
8.74786e+06
2.06237e+06
5.7826e+06
7.40921e+06
6.84227e+06
4.60781e+06
6.82772e+06
3.58205e+06
1.90694e+07
6.71136e+06
6.06726e+06
5.72335e+06
6.80453e+06
7.44616e+06
7.46037e+06
6.7503e+06
6.0908e+06
6.22659e+06
5.90103e+06
3.91789e+06
5.08945e+06
5.50042e+06
6.54076e+06
6.27663e+06
8.33772e+06
5.57101e+06
6.17452e+06
6.17433e+06
2.42453e+06
5.78727e+06
7.37758e+06
6.42181e+06
8.94295e+06
5.95332e+06
6.38237e+06
1.35315e+07
8.56352e+06
6.3834e+06
6.24932e+06
5.87467e+06
6.5783e+06
7.78924e+06
8.94384e+06
4.07693e+06
8.96919e+06
6.38145e+06
6.56007e+06
6.55114e+06
4.53181e+06
4.69615e+06
5.35158e+06
6.02807e+06
6.84058e+06
6.84921e+06
1.66476e+07
5.24108e+06
1.65029e+07
2.91368e+06
4.87734e+06
5.8881e+06
8.97668e+06
8.97416e+06
8.3308e+06
4.79603e+06
6.16945e+06
8.08338e+06
1.08004e+07
5.97699e+06
5.96068e+06
4.90679e+06
7.14237e+06
5.85721e+06
7.67635e+06
5.78285e+06
7.6738e+06
6.21138e+06
6.08598e+06
6.83852e+06
1.85644e+06
6.82166e+06
1.35769e+07
6.25283e+06
6.23817e+06
5.77766e+06
6.61338e+06
-620432
5.90615e+06
-1.34523e+06
3.42576e+06
9.66124e+06
9.10075e+06
8.50095e+06
6.03649e+06
1.94029e+07
6.50353e+06
8.69381e+06
-3.66608e+06
7.61809e+06
7.72888e+06
6.64754e+06
6.70012e+06
1.7727e+06
7.71499e+06
6.00467e+06
6.00434e+06
1.45589e+07
8.8998e+06
7.16849e+06
8.79871e+06
6.5702e+06
7.15438e+06
9.03313e+06
1.00799e+07
6.56566e+06
6.563e+06
8.0344e+06
5.13675e+06
6.36537e+06
6.37455e+06
2.27087e+07
7.01401e+06
3.79128e+06
7.18369e+06
6.14148e+06
6.15843e+06
5.64402e+06
5.66098e+06
3.90504e+06
6.17006e+06
7.93792e+06
6.04718e+06
6.23985e+06
1.06671e+07
6.12806e+06
8.40903e+06
5.25689e+06
5.54851e+06
1.90884e+07
4.82299e+06
6.02138e+06
3.17795e+06
8.86681e+06
6.82466e+06
3.21096e+06
5.59741e+06
6.49167e+06
6.19617e+06
6.19703e+06
8.82215e+06
7.15592e+06
9.46004e+06
7.20741e+06
5.78441e+06
4.35549e+06
6.00251e+06
6.33549e+06
1.88046e+07
539218
9.0893e+06
1.84647e+07
5.92145e+06
7.01195e+06
6.36672e+06
1.00542e+07
3.41083e+06
7.03514e+06
4.94353e+06
9.72885e+06
7.03839e+06
6.41389e+06
-3.96465e+06
6.38178e+06
8.20083e+06
8.26206e+06
5.82495e+06
7.05307e+06
8.74566e+06
7.49105e+06
7.43146e+06
5.7608e+06
3.66487e+06
1.92721e+06
9.60694e+06
6.51987e+06
6.14196e+06
-7.29868e+06
8.67353e+06
6.83001e+06
8.4429e+06
-825871
8.38391e+06
7.67459e+06
4.40212e+06
4.94103e+06
5.06414e+06
6.32047e+06
1.10024e+07
5.72651e+06
1.72627e+07
6.09391e+06
6.15167e+06
5.53686e+06
8.82198e+06
9.93211e+06
5.46163e+06
6.6346e+06
6.62352e+06
1.63048e+07
632617
563082
6.65508e+06
6.91272e+06
6.11238e+06
6.45333e+06
9.51663e+06
8.07376e+06
4.65367e+06
9.32105e+06
9.62323e+06
6.12881e+06
7.81042e+06
5.19655e+06
6.60931e+06
1.47683e+07
8.37811e+06
8.30711e+06
1.1947e+07
8.0394e+06
5.18687e+06
8.0024e+06
6.40008e+06
5.91334e+06
-4.85637e+06
9.10588e+06
1.30463e+06
6.9446e+06
9.24376e+06
9.30672e+06
3.44129e+06
6.62622e+06
6.01791e+06
6.59072e+06
6.66983e+06
9.26027e+06
9.31179e+06
8.68211e+06
8.93101e+06
6.67759e+06
9.56413e+06
5.14023e+06
4.92705e+06
500753
6.16257e+06
-287114
3.2633e+06
4.54268e+06
4.55025e+06
1.10717e+07
5.90868e+06
3.75206e+06
8.62726e+06
3.80597e+06
6.41878e+06
7.14423e+06
6.00923e+06
6.23968e+06
6.24034e+06
5.76201e+06
5.8036e+06
8.69716e+06
6.77874e+06
1.10878e+06
930358
8.84998e+06
-2.33471e+06
6.17616e+06
-358653
6.5168e+06
6.48466e+06
6.35464e+06
1.43097e+07
3.76009e+06
1.08916e+07
7.14657e+06
4.76403e+06
7.56689e+06
-1.77537e+06
5.8017e+06
7.62948e+06
5.30127e+06
9.25782e+06
5.6593e+06
6.36412e+06
6.166e+06
3.68337e+06
611145
7.25368e+06
6.29351e+06
7.20057e+06
6.00453e+06
6.02109e+06
6.64479e+06
6.90602e+06
4.45819e+06
6.36676e+06
7.40866e+06
6.74248e+06
6.31427e+06
1.05885e+07
1.07182e+07
6.41317e+06
6.8729e+06
5.59234e+06
6.57348e+06
5.35712e+06
9.14573e+06
7.5705e+06
7.30835e+06
6.00923e+06
7.83431e+06
6.1462e+06
-3.03733e+06
8.40362e+06
6.66153e+06
7.12649e+06
7.11324e+06
7.45864e+06
3.47312e+06
5.27729e+06
6.0177e+06
5.2168e+06
2.38057e+06
6.05938e+06
-1.58381e+06
6.98896e+06
6.91065e+06
4.64296e+06
6.48499e+06
6.4755e+06
6.4825e+06
5.18817e+06
6.55977e+06
6.54733e+06
4.71846e+06
8.95262e+06
8.07646e+06
6.42887e+06
7.58173e+06
3.70744e+06
9.96186e+06
1.04276e+07
6.63029e+06
6.65162e+06
4.33895e+06
6.24217e+06
6.6122e+06
9.66851e+06
1.04942e+07
6.59368e+06
7.19026e+06
6.08977e+06
6.10197e+06
9.56282e+06
4.69113e+06
6.78102e+06
-3.18287e+06
6.43084e+06
5.12009e+06
6.75915e+06
6.15368e+06
1.97973e+07
7.41623e+06
6.27431e+06
6.2562e+06
6.39731e+06
6.78563e+06
6.77936e+06
1.51784e+06
1.56926e+06
1.32501e+06
7.12018e+06
7.11736e+06
5.87035e+06
5.06653e+06
5.1058e+06
6.74677e+06
6.62617e+06
3.01128e+06
7.25556e+06
3.03461e+06
5.86643e+06
5.89521e+06
7.12928e+06
9.25774e+06
6.85183e+06
5.58111e+06
7.74269e+06
7.69668e+06
6.54001e+06
7.40558e+06
7.40657e+06
5.91406e+06
5.9093e+06
8.78461e+06
1.25538e+07
6.4319e+06
6.26298e+06
6.49674e+06
3.59342e+06
9.92534e+06
6.23647e+06
6.35455e+06
6.34891e+06
6.94159e+06
5.84736e+06
1.23211e+07
6.38239e+06
8.19711e+06
1.5256e+06
6.55399e+06
1.61333e+06
1.24425e+07
5.7423e+06
9.10115e+06
7.17897e+06
7.17743e+06
7.2155e+06
5.83334e+06
3.6966e+06
6.27025e+06
6.90282e+06
8.94503e+06
6.2115e+06
6.10877e+06
5.67906e+06
7.03419e+06
6.02447e+06
7.69517e+06
1.01935e+07
6.41867e+06
6.40659e+06
5.71101e+06
8.07787e+06
9.19055e+06
9.17861e+06
5.982e+06
7.40001e+06
8.10738e+06
6.43786e+06
1.82203e+06
6.40351e+06
6.40035e+06
7.05502e+06
6.73416e+06
4.41093e+06
5.6607e+06
6.28488e+06
3.29426e+06
1.11901e+07
2.13464e+06
6.35122e+06
1.71834e+07
3.80825e+06
5.99065e+06
6.93191e+06
6.33843e+06
5.69216e+06
6.30365e+06
-2.24498e+06
2.9098e+06
6.43134e+06
5.93347e+06
9.30522e+06
7.06637e+06
6.65809e+06
3.98124e+06
7.33989e+06
5.94032e+06
7.11861e+06
5.86609e+06
-1.21417e+06
849843
6.29348e+06
6.29365e+06
1.18639e+07
1.20718e+07
1.12361e+06
-3.15832e+06
7.54703e+06
1.06038e+07
6.55206e+06