/*--------------------------------*- C++ -*----------------------------------*\
| =========                 |                                                 |
| \\      /  F ield         | OpenFOAM: The Open Source CFD Toolbox           |
|  \\    /   O peration     | Version:  v2012                                 |
|   \\  /    A nd           | Website:  www.openfoam.com                      |
|    \\/     M anipulation  |                                                 |
\*---------------------------------------------------------------------------*/
FoamFile
{
    version     2.0;
    format      ascii;
    class       volScalarField;
    location    "4";
    object      sigmaHyd;
}
// * * * * * * * * * * * * * * * * * * * * * * * * * * * * * * * * * * * * * //

dimensions      [1 -1 -2 0 0 0 0];


internalField   nonuniform List<scalar> 
500
(
8.89961e+07
8.70162e+07
8.25524e+07
7.78197e+07
7.1308e+07
6.6595e+07
6.12825e+07
5.75415e+07
5.33327e+07
5.03033e+07
8.39683e+07
7.92537e+07
7.64238e+07
6.94384e+07
6.54768e+07
5.94574e+07
5.66856e+07
5.21633e+07
5.00329e+07
4.65031e+07
7.17507e+07
6.50038e+07
6.43871e+07
5.64962e+07
5.52134e+07
4.90023e+07
4.87142e+07
4.42415e+07
4.42497e+07
4.10331e+07
5.45551e+07
4.69871e+07
4.86034e+07
4.09605e+07
4.23412e+07
3.66877e+07
3.87643e+07
3.47742e+07
3.69248e+07
3.40545e+07
3.51907e+07
2.7824e+07
3.13439e+07
2.47461e+07
2.83951e+07
2.36256e+07
2.76108e+07
2.3935e+07
2.7989e+07
2.5188e+07
1.61321e+07
9.73977e+06
1.45216e+07
9.38786e+06
1.44089e+07
1.05399e+07
1.5294e+07
1.21784e+07
1.76562e+07
1.71782e+07
-601027
-5.50164e+06
-142099
-3.481e+06
2.16758e+06
-204045
4.85444e+06
3.45074e+06
9.57241e+06
9.43688e+06
-1.37218e+07
-1.69011e+07
-1.15267e+07
-1.29728e+07
-7.22821e+06
-8.08672e+06
-3.03393e+06
-3.61579e+06
2.23467e+06
2.22249e+06
-2.26058e+07
-2.41385e+07
-1.90877e+07
-1.88471e+07
-1.35742e+07
-1.33716e+07
-8.9019e+06
-8.80193e+06
-3.74771e+06
-3.27898e+06
-2.75994e+07
-2.76054e+07
-2.29165e+07
-2.15075e+07
-1.7091e+07
-1.60654e+07
-1.24033e+07
-1.13245e+07
-7.0854e+06
-5.7465e+06
-526628
2.91954e+06
2.15534e+06
6.69778e+06
7.73119e+06
1.25564e+07
1.46265e+07
1.88851e+07
2.13201e+07
2.44397e+07
6.24741e+06
8.09261e+06
8.59622e+06
1.10035e+07
1.30178e+07
1.52677e+07
1.81039e+07
1.97178e+07
2.26069e+07
2.33658e+07
9.87973e+06
1.13235e+07
1.17051e+07
1.36007e+07
1.50207e+07
1.69135e+07
1.88252e+07
2.04055e+07
2.22829e+07
2.34941e+07
1.32637e+07
1.47449e+07
1.47782e+07
1.665e+07
1.74748e+07
1.93205e+07
2.05298e+07
2.20813e+07
2.33408e+07
2.44329e+07
1.68395e+07
1.82249e+07
1.80603e+07
1.96718e+07
2.01366e+07
2.16077e+07
2.23976e+07
2.35411e+07
2.44077e+07
2.51694e+07
2.01358e+07
2.12954e+07
2.09774e+07
2.22086e+07
2.23565e+07
2.34109e+07
2.38234e+07
2.46028e+07
2.51188e+07
2.56058e+07
2.29841e+07
2.39518e+07
2.3439e+07
2.43835e+07
2.4184e+07
2.49642e+07
2.49726e+07
2.55131e+07
2.56368e+07
2.59088e+07
2.55838e+07
2.64588e+07
2.57139e+07
2.65083e+07
2.59329e+07
2.65436e+07
2.61148e+07
2.64663e+07
2.61586e+07
2.62366e+07
2.81822e+07
2.89732e+07
2.80414e+07
2.865e+07
2.77551e+07
2.81019e+07
2.72932e+07
2.73547e+07
2.66644e+07
2.64733e+07
3.0547e+07
3.07881e+07
3.00368e+07
3.00255e+07
2.92127e+07
2.90276e+07
2.81558e+07
2.78105e+07
2.69468e+07
2.65143e+07
2.73529e+07
2.75724e+07
2.94098e+07
2.95085e+07
3.10696e+07
3.11389e+07
3.24449e+07
3.25974e+07
3.36711e+07
3.39321e+07
3.48383e+07
3.52873e+07
3.61135e+07
3.68352e+07
3.76653e+07
3.85624e+07
3.94898e+07
4.05759e+07
4.13931e+07
4.18679e+07
2.57021e+07
2.57777e+07
2.74479e+07
2.74043e+07
2.90948e+07
2.9068e+07
3.07616e+07
3.07833e+07
3.2356e+07
3.24282e+07
3.39796e+07
3.42209e+07
3.57792e+07
3.60769e+07
3.76434e+07
3.79764e+07
3.96305e+07
3.98636e+07
4.12735e+07
4.10098e+07
2.49716e+07
2.54456e+07
2.64191e+07
2.67616e+07
2.78876e+07
2.81741e+07
2.94817e+07
2.97155e+07
3.11295e+07
3.1322e+07
3.28356e+07
3.29624e+07
3.45729e+07
3.46208e+07
3.63274e+07
3.62843e+07
3.80682e+07
3.78224e+07
3.94044e+07
3.86779e+07
2.53608e+07
2.58677e+07
2.64751e+07
2.68421e+07
2.75918e+07
2.78747e+07
2.88363e+07
2.9031e+07
3.0178e+07
3.02607e+07
3.15629e+07
3.15137e+07
3.29807e+07
3.28234e+07
3.44015e+07
3.40709e+07
3.56888e+07
3.50506e+07
3.65399e+07
3.55247e+07
2.5834e+07
2.61737e+07
2.66337e+07
2.68409e+07
2.74076e+07
2.75241e+07
2.82707e+07
2.8292e+07
2.92029e+07
2.91058e+07
3.01361e+07
2.99113e+07
3.11889e+07
3.08821e+07
3.21821e+07
3.15568e+07
3.28639e+07
3.19974e+07
3.32436e+07
3.21697e+07
2.6051e+07
2.62189e+07
2.65522e+07
2.65884e+07
2.70059e+07
2.69474e+07
2.75237e+07
2.74005e+07
2.81244e+07
2.78924e+07
2.86892e+07
2.83669e+07
2.93103e+07
2.8779e+07
2.97525e+07
2.90422e+07
3.00162e+07
2.91252e+07
3.00733e+07
2.90774e+07
2.60809e+07
2.61286e+07
2.62907e+07
2.62262e+07
2.64505e+07
2.63149e+07
2.67082e+07
2.65516e+07
2.70189e+07
2.6717e+07
2.7265e+07
2.68499e+07
2.74683e+07
2.69247e+07
2.75699e+07
2.68892e+07
2.75171e+07
2.66951e+07
2.73245e+07
2.6488e+07
2.61135e+07
2.60787e+07
2.6084e+07
2.5969e+07
2.60329e+07
2.58688e+07
2.605e+07
2.57922e+07
2.60501e+07
2.56997e+07
2.60217e+07
2.55825e+07
2.59493e+07
2.54232e+07
2.57987e+07
2.51849e+07
2.55223e+07
2.48411e+07
2.51765e+07
2.45624e+07
2.61143e+07
2.59816e+07
2.58808e+07
2.5687e+07
2.56467e+07
2.53769e+07
2.54082e+07
2.50671e+07
2.51693e+07
2.47735e+07
2.49338e+07
2.44996e+07
2.46939e+07
2.42366e+07
2.44289e+07
2.39675e+07
2.41185e+07
2.36832e+07
2.37652e+07
2.34225e+07
2.60152e+07
2.58154e+07
2.55856e+07
2.53661e+07
2.51534e+07
2.49086e+07
2.47314e+07
2.4479e+07
2.43513e+07
2.41056e+07
2.40271e+07
2.37983e+07
2.37593e+07
2.35559e+07
2.35382e+07
2.33684e+07
2.3352e+07
2.32287e+07
2.32203e+07
2.31869e+07
4.72387e+07
4.56916e+07
4.41049e+07
4.28562e+07
4.12357e+07
4.01478e+07
3.83609e+07
3.738e+07
3.53931e+07
3.4506e+07
3.23332e+07
3.15509e+07
2.92438e+07
2.86057e+07
2.62589e+07
2.58062e+07
2.34875e+07
2.32034e+07
2.09926e+07
2.13997e+07
4.50836e+07
4.32567e+07
4.27268e+07
4.12685e+07
4.04888e+07
3.92886e+07
3.81834e+07
3.72049e+07
3.5755e+07
3.50119e+07
3.32291e+07
3.27579e+07
3.06874e+07
3.05334e+07
2.82383e+07
2.84201e+07
2.59419e+07
2.65352e+07
2.41337e+07
2.55922e+07
4.12699e+07
3.94284e+07
3.99953e+07
3.84838e+07
3.8683e+07
3.74298e+07
3.72788e+07
3.63506e+07
3.57939e+07
3.5228e+07
3.42528e+07
3.40794e+07
3.27188e+07
3.2969e+07
3.12806e+07
3.20238e+07
3.01139e+07
3.15553e+07
2.96292e+07
3.16297e+07
3.60079e+07
3.423e+07
3.58166e+07
3.4325e+07
3.54311e+07
3.43892e+07
3.51721e+07
3.45062e+07
3.49354e+07
3.46025e+07
3.46587e+07
3.46721e+07
3.43787e+07
3.47958e+07
3.42305e+07
3.51767e+07
3.44996e+07
3.60932e+07
3.52663e+07
3.70106e+07
2.96113e+07
2.91165e+07
3.13687e+07
3.09046e+07
3.23209e+07
3.20284e+07
3.30242e+07
3.2934e+07
3.36651e+07
3.37908e+07
3.43151e+07
3.46714e+07
3.5052e+07
3.56914e+07
3.60325e+07
3.704e+07
3.74663e+07
3.88171e+07
3.90986e+07
4.03124e+07
)
;

boundaryField
{
    back
    {
        type            empty;
    }
    front
    {
        type            empty;
    }
    left
    {
        type            symmetry;
    }
    hole
    {
        type            zeroGradient;
    }
    down
    {
        type            symmetry;
    }
    right
    {
        type            zeroGradient;
    }
    up
    {
        type            zeroGradient;
    }
}


// ************************************************************************* //
