/*--------------------------------*- C++ -*----------------------------------*\
| =========                 |                                                 |
| \\      /  F ield         | OpenFOAM: The Open Source CFD Toolbox           |
|  \\    /   O peration     | Version:  v2012                                 |
|   \\  /    A nd           | Website:  www.openfoam.com                      |
|    \\/     M anipulation  |                                                 |
\*---------------------------------------------------------------------------*/
FoamFile
{
    version     2.0;
    format      ascii;
    class       volScalarField;
    location    "15";
    object      sigmaHyd;
}
// * * * * * * * * * * * * * * * * * * * * * * * * * * * * * * * * * * * * * //

dimensions      [1 -1 -2 0 0 0 0];


internalField   nonuniform List<scalar> 
250
(
4.47888e+07
7.71185e+07
1.07598e+08
1.14238e+08
1.14893e+08
5.19513e+07
6.57551e+07
7.99482e+07
7.50964e+07
7.31153e+07
4.62563e+07
3.82873e+07
4.28867e+07
4.25705e+07
4.76486e+07
2.92428e+07
2.71037e+07
3.16942e+07
3.40204e+07
3.75484e+07
1.35941e+07
1.60891e+07
2.09542e+07
2.37319e+07
2.69531e+07
-4.42871e+06
-530684
7.43779e+06
9.94747e+06
1.81956e+07
-2.02221e+07
-1.38141e+07
-6.1782e+06
-1.36161e+06
6.32999e+06
-3.50084e+07
-2.5895e+07
-1.4541e+07
-8.8609e+06
636799
-4.35553e+07
-3.40669e+07
-2.23148e+07
-1.61326e+07
-6.80484e+06
-4.88177e+07
-3.84229e+07
-2.5638e+07
-1.92209e+07
-9.88874e+06
-1.77759e+06
772775
6.98291e+06
1.30676e+07
2.28321e+07
8.90538e+06
9.83694e+06
1.23567e+07
1.64593e+07
2.15321e+07
1.60676e+07
1.71105e+07
1.94106e+07
2.20244e+07
2.48069e+07
2.14295e+07
2.20569e+07
2.3338e+07
2.58396e+07
2.81271e+07
2.54427e+07
2.58114e+07
2.66284e+07
2.77931e+07
2.92545e+07
2.8875e+07
2.90835e+07
2.95942e+07
3.04031e+07
3.14606e+07
3.14143e+07
3.13325e+07
3.13856e+07
3.13576e+07
3.17243e+07
3.42663e+07
3.40519e+07
3.38461e+07
3.34164e+07
3.32375e+07
3.68745e+07
3.63614e+07
3.56912e+07
3.44815e+07
3.36059e+07
4.00903e+07
3.93735e+07
3.84046e+07
3.65443e+07
3.51193e+07
2.66026e+07
2.92266e+07
3.28694e+07
3.78212e+07
4.14849e+07
4.66955e+07
5.04958e+07
5.61315e+07
6.03473e+07
6.66875e+07
2.96099e+07
3.41211e+07
3.75954e+07
4.18799e+07
4.50029e+07
4.94129e+07
5.24409e+07
5.70074e+07
6.01481e+07
6.49548e+07
2.88969e+07
3.24318e+07
3.44451e+07
3.8313e+07
4.04697e+07
4.44117e+07
4.67052e+07
5.07656e+07
5.32007e+07
5.74121e+07
3.14283e+07
3.43638e+07
3.6014e+07
3.90107e+07
4.0681e+07
4.36722e+07
4.535e+07
4.83416e+07
5.00271e+07
5.30217e+07
3.13597e+07
3.31858e+07
3.41073e+07
3.62023e+07
3.71458e+07
3.92597e+07
4.0202e+07
4.22857e+07
4.3194e+07
4.51904e+07
3.27729e+07
3.39757e+07
3.4513e+07
3.59147e+07
3.64191e+07
3.77945e+07
3.82412e+07
3.95271e+07
3.98846e+07
4.1026e+07
3.23203e+07
3.28146e+07
3.29345e+07
3.36201e+07
3.36938e+07
3.43594e+07
3.43635e+07
3.49478e+07
3.48486e+07
3.52661e+07
3.32282e+07
3.33327e+07
3.30108e+07
3.33699e+07
3.30229e+07
3.33384e+07
3.29174e+07
3.29879e+07
3.25828e+07
3.24922e+07
3.27625e+07
3.21741e+07
3.18653e+07
3.16633e+07
3.11211e+07
3.09133e+07
3.05081e+07
3.02331e+07
2.9819e+07
2.95692e+07
3.34523e+07
3.29741e+07
3.21038e+07
3.14822e+07
3.0817e+07
3.02806e+07
2.98567e+07
2.96056e+07
2.92411e+07
2.91457e+07
1.07235e+08
1.0162e+08
8.82241e+07
7.89431e+07
6.56755e+07
5.73133e+07
4.40977e+07
3.56267e+07
2.15601e+07
1.18243e+07
6.87494e+07
7.08308e+07
6.80451e+07
6.85003e+07
6.11402e+07
5.83535e+07
5.02599e+07
4.70778e+07
3.84543e+07
3.46768e+07
4.79027e+07
5.19875e+07
5.22914e+07
5.74969e+07
5.56029e+07
5.75519e+07
5.42195e+07
5.56298e+07
5.21629e+07
5.35385e+07
4.04841e+07
4.42901e+07
4.53519e+07
5.04757e+07
5.15411e+07
5.5701e+07
5.57124e+07
5.90951e+07
5.88269e+07
6.21928e+07
3.02674e+07
3.51353e+07
3.70633e+07
4.28621e+07
4.53617e+07
5.10346e+07
5.38209e+07
5.95881e+07
6.28489e+07
6.92204e+07
)
;

boundaryField
{
    back
    {
        type            empty;
    }
    left
    {
        type            symmetry;
    }
    hole
    {
        type            zeroGradient;
    }
    front
    {
        type            empty;
    }
    down
    {
        type            symmetry;
    }
    right
    {
        type            zeroGradient;
    }
    up
    {
        type            zeroGradient;
    }
}


// ************************************************************************* //
