/*--------------------------------*- C++ -*----------------------------------*\
| =========                 |                                                 |
| \\      /  F ield         | OpenFOAM: The Open Source CFD Toolbox           |
|  \\    /   O peration     | Version:  v2012                                 |
|   \\  /    A nd           | Website:  www.openfoam.com                      |
|    \\/     M anipulation  |                                                 |
\*---------------------------------------------------------------------------*/
FoamFile
{
    version     2.0;
    format      ascii;
    class       volScalarField;
    location    "6";
    object      sigmaHyd;
}
// * * * * * * * * * * * * * * * * * * * * * * * * * * * * * * * * * * * * * //

dimensions      [1 -1 -2 0 0 0 0];


internalField   nonuniform List<scalar> 
7666
(
9.73789e+06
3.30043e+07
1.07649e+08
3.54346e+07
4.02726e+07
5.26041e+07
3.92037e+07
3.74571e+07
6.19846e+07
4.03992e+07
2.67833e+07
3.80827e+07
3.68117e+07
3.60285e+07
4.08117e+07
4.60284e+07
3.72029e+07
5.97731e+07
3.93931e+07
3.65282e+07
3.18259e+07
4.55747e+07
3.67118e+07
3.19832e+07
5.03566e+07
4.10077e+07
5.06215e+07
1.75053e+07
3.69538e+07
3.54798e+07
3.59612e+07
5.88975e+07
2.82405e+06
3.67239e+07
-1.0926e+07
3.40361e+07
3.39164e+07
3.63563e+07
5.32603e+07
3.97087e+07
1.3782e+07
7.83713e+07
7.88808e+07
2.14602e+07
6.45898e+07
3.97292e+07
5.71882e+07
1.47962e+07
2.58292e+07
2.3991e+07
1.65199e+07
4.58063e+07
3.85087e+07
6.22729e+07
2.92091e+07
4.67022e+07
2.41728e+07
2.43461e+07
4.88892e+07
5.32523e+07
2.76597e+07
3.61893e+07
3.58843e+07
3.61132e+07
2.31401e+07
2.78244e+07
4.03494e+07
2.36748e+07
5.13113e+07
4.86224e+07
5.30044e+07
4.46945e+07
4.45646e+07
3.52038e+07
3.52086e+07
3.88068e+07
5.1234e+07
3.53565e+07
3.55728e+07
2.82073e+07
3.85728e+07
4.29531e+07
2.45302e+07
7.68698e+07
3.83531e+07
4.39845e+07
4.40291e+07
4.67115e+07
2.23836e+07
3.58692e+07
3.82295e+07
3.83022e+07
4.72618e+07
5.85271e+07
5.64412e+07
3.27858e+07
-2.20893e+07
1.10051e+08
3.94201e+07
3.65981e+07
4.75497e+07
3.53752e+07
8.96982e+06
8.28148e+07
7.45687e+06
5.25758e+07
7.44123e+07
4.33955e+07
3.92251e+07
4.61562e+07
3.41322e+07
4.09948e+07
3.01573e+07
2.77757e+07
2.50996e+07
4.353e+07
1.97856e+07
-1.85955e+07
3.69664e+07
3.70917e+07
5.93317e+07
3.5187e+07
3.82244e+07
4.10166e+07
3.15829e+07
2.39257e+07
4.34418e+07
4.09847e+07
3.30221e+07
3.79774e+07
4.96636e+07
4.0928e+07
3.50898e+07
5.00896e+07
3.81765e+07
5.27355e+07
3.86702e+07
3.96913e+07
3.73067e+07
3.21661e+07
3.33967e+07
4.33257e+07
4.0597e+07
4.0889e+07
4.01566e+07
3.83808e+07
3.9407e+07
4.36521e+07
1.03415e+07
3.88424e+07
4.04759e+07
2.27194e+07
2.81773e+07
1.12769e+07
3.83211e+07
3.85465e+07
1.36453e+07
3.4414e+07
3.34399e+07
3.7123e+07
7.19065e+07
4.26812e+07
4.49892e+07
7.65012e+07
8.94825e+07
8.68761e+07
3.37491e+07
2.28523e+07
2.36027e+07
7.01195e+07
3.17593e+07
2.46746e+07
4.34442e+07
4.15253e+07
2.17376e+07
2.87904e+07
4.27802e+07
5.30137e+07
3.72113e+07
3.56734e+07
4.40195e+07
-3.01638e+07
4.26762e+07
-2.06163e+07
2.71036e+07
3.43526e+07
4.43302e+07
3.47989e+07
4.7483e+07
3.74236e+07
3.20099e+07
3.89018e+07
3.89003e+07
3.74719e+07
4.10862e+07
5.34397e+07
3.42645e+07
3.85299e+07
3.9616e+07
-3.59915e+07
4.34357e+07
1.95159e+07
3.71487e+07
5.32352e+07
3.53132e+07
6.52127e+07
3.88329e+07
3.57281e+06
2.09804e+07
-9.02905e+06
5.38634e+07
2.14503e+07
4.03789e+07
4.25073e+07
4.35979e+07
2.60139e+07
3.36311e+07
5.63098e+07
2.60373e+07
4.94289e+07
6.05092e+07
7.34854e+07
3.57626e+07
4.09567e+07
4.24495e+07
3.68986e+07
6.61834e+07
5.25997e+07
3.20903e+07
3.47697e+07
3.44103e+07
3.72211e+07
2.10582e+07
3.0046e+07
4.49496e+07
3.46984e+07
6.66114e+07
4.59412e+07
-2.1035e+07
3.67762e+07
3.98813e+07
4.0908e+07
3.531e+07
2.20963e+07
3.05642e+07
3.04441e+07
-4.3462e+07
3.0049e+07
7.50525e+07
4.25426e+07
4.17906e+07
2.87924e+07
4.40684e+07
4.12278e+07
4.36577e+07
3.48831e+07
5.20453e+07
4.56521e+07
4.17471e+07
-6.59788e+06
2.75728e+07
4.80711e+07
5.25667e+07
4.66059e+07
4.04117e+07
-4.4288e+07
3.39924e+07
5.00646e+07
8.72111e+07
221260
3.90644e+07
3.99293e+07
3.71517e+07
4.57379e+07
-624629
3.0409e+07
5.2312e+07
4.9045e+07
3.49848e+07
3.5566e+07
3.83185e+07
5.5153e+07
3.02014e+07
3.60317e+07
1.62351e+07
1.05757e+07
4.55971e+07
4.55497e+07
9.3606e+06
4.23152e+07
4.17525e+07
6.33778e+07
5.55094e+07
2.1061e+07
3.39646e+07
7.28374e+07
4.23473e+07
1.61369e+07
1.72049e+07
3.93584e+07
3.68895e+07
3.07051e+07
3.82979e+07
4.57454e+07
3.47953e+07
2.4331e+07
3.24217e+07
2.22796e+07
3.06008e+07
2.88746e+07
7.31418e+06
2.27948e+07
1.98081e+07
1.92731e+07
3.0729e+07
3.94308e+07
3.68498e+07
2.32931e+07
3.94749e+07
3.67099e+07
3.72799e+07
3.78157e+07
5.39569e+07
4.03403e+07
3.71294e+07
3.05246e+07
1.90492e+07
3.79777e+07
2.43582e+07
1.79203e+07
1.67075e+07
4.48354e+07
1.14645e+08
3.72711e+07
6.0723e+07
6.15856e+07
3.92826e+07
1.16026e+07
4.43849e+07
3.48812e+07
2.49764e+07
3.42248e+07
1.23739e+07
2.66066e+07
4.35265e+07
3.99199e+07
3.6234e+07
3.9786e+07
-5.59595e+06
4.53865e+07
3.48847e+07
5.33338e+07
4.47881e+07
3.17075e+07
4.97899e+07
5.56376e+07
3.25625e+07
3.96561e+07
5.02536e+07
-2.97161e+07
3.94046e+07
5.38416e+07
4.52416e+07
5.33526e+07
4.21731e+07
6.03854e+07
4.7289e+07
4.95328e+07
3.95866e+07
5.30637e+07
3.81918e+07
4.05059e+07
-4.08063e+07
3.93241e+07
4.13521e+07
-3.68149e+07
4.04791e+07
1.02186e+08
5.10541e+06
6.16467e+07
5.37173e+07
-9.63306e+06
9.82355e+06
2.05905e+07
5.0002e+07
4.03115e+07
2.98569e+07
5.31267e+07
8.52971e+07
3.57182e+07
3.56304e+07
1.61037e+07
1.56278e+07
5.48618e+07
5.2828e+07
9.31859e+07
3.41121e+07
3.53343e+07
2.72889e+07
-1.62256e+07
5.4883e+07
3.25807e+07
2.7485e+07
4.25457e+06
1.18517e+08
3.98651e+07
4.00986e+07
4.7083e+07
4.8508e+07
5.50213e+07
5.50383e+07
3.59324e+07
-5.33175e+06
4.9077e+07
5.44146e+07
4.57924e+07
4.54357e+07
3.83846e+07
4.106e+07
6.85269e+07
-2.7511e+06
3.78561e+07
3.6942e+07
3.77392e+07
2.84847e+07
3.81588e+07
1.40149e+07
5.23892e+07
3.85205e+07
5.69679e+07
2.69096e+07
1.15596e+08
3.28319e+07
3.46838e+07
4.63644e+07
4.17887e+07
1.68866e+07
3.58075e+07
3.81152e+07
3.82493e+07
3.79878e+07
1.04141e+07
3.6002e+07
3.6186e+07
4.20179e+07
3.54581e+07
-2.78719e+07
3.78901e+07
3.78792e+07
4.05927e+07
9.58724e+06
-1.55704e+07
3.22446e+07
5.37942e+07
2.69107e+07
4.29586e+07
3.94734e+07
2.74378e+07
3.64974e+07
3.99994e+07
5.65626e+07
2.82187e+07
1.05834e+08
5.87746e+07
-2.28595e+06
3.97022e+07
3.96983e+07
4.22663e+07
4.40535e+07
7.61009e+06
4.13202e+07
3.90205e+07
3.89004e+07
4.65585e+07
5.46755e+07
4.3077e+07
4.28669e+07
4.27107e+07
3.80691e+07
1.90863e+07
-3.57254e+06
3.50085e+07
3.75416e+07
3.86352e+07
3.73551e+07
3.89039e+07
1.65194e+07
3.39291e+07
6.72252e+07
3.85293e+07
3.82454e+07
3.24353e+07
3.46827e+07
4.64683e+07
3.62429e+07
5.72335e+07
6.78427e+07
7.04222e+07
3.83008e+07
6.90016e+06
3.18353e+07
2.83424e+07
5.40455e+07
4.16459e+06
2.88396e+07
2.85168e+07
4.33254e+07
1.0809e+08
-5.55554e+06
3.74767e+07
3.1846e+07
5.14996e+07
5.34075e+07
4.35298e+07
4.31481e+07
3.51878e+07
3.50413e+07
3.84341e+07
2.72775e+07
2.55294e+07
2.59809e+07
9.03872e+07
4.163e+07
3.88653e+06
3.90115e+07
-3.34801e+07
4.24334e+07
1.14536e+08
3.21259e+07
4.45994e+07
3.46998e+07
5.29449e+07
4.9932e+07
2.76588e+07
5.60114e+07
-7.36948e+06
4.72538e+07
4.69082e+07
3.8483e+07
3.84751e+07
5.55517e+07
5.10144e+07
6.27705e+07
3.94761e+07
4.62278e+07
5.61727e+07
5.97554e+07
6.32928e+07
4.23366e+07
4.12935e+07
4.89331e+07
-9.19642e+06
3.812e+07
6.18092e+07
3.83041e+07
-2.21968e+07
3.62749e+07
1.03568e+07
4.53054e+07
3.84048e+07
4.11694e+07
5.14262e+07
3.69115e+07
2.52355e+07
3.19105e+06
1.14401e+07
3.18349e+07
4.43363e+07
1.04973e+08
3.57425e+07
3.93216e+07
3.67799e+07
4.45355e+07
4.30492e+07
2.59439e+07
8.47884e+06
5.64943e+07
5.95267e+07
5.61703e+07
4.73745e+07
5.20253e+07
2.4774e+07
3.78493e+07
-1.08743e+07
4.32632e+07
5.41364e+07
5.1318e+07
4.19845e+07
3.69229e+07
4.29673e+07
3.58694e+07
5.198e+07
4.11819e+07
2.01324e+07
3.43712e+07
-6.71904e+06
3.85081e+07
4.28872e+07
3.51858e+07
3.84275e+07
-8.42069e+06
5.78782e+07
5.04503e+07
5.11677e+07
2.74244e+07
3.25955e+07
4.1169e+07
3.14748e+07
3.95522e+07
6.48588e+07
5.17959e+07
6.28169e+07
1.38737e+07
-7.54685e+06
3.45555e+07
3.75344e+07
4.44904e+07
4.40806e+07
3.55055e+07
3.53323e+07
3.97174e+07
1.42997e+07
4.53673e+07
-1.37585e+07
4.01897e+07
8.38249e+06
2.66426e+07
-9.66779e+06
3.84827e+07
5.57355e+07
3.74985e+07
8.70872e+07
8.36842e+06
4.29772e+07
-3.1774e+07
2.55018e+07
3.86433e+07
-1.256e+07
4.00559e+07
3.61097e+07
4.23119e+07
3.5845e+07
5.66514e+06
-1.39358e+07
1.20743e+07
3.56432e+07
1.45026e+07
4.45728e+06
5.37572e+07
1.3545e+07
5.09571e+07
4.90272e+07
3.89514e+07
3.88644e+07
5.54273e+07
4.72863e+07
4.67024e+07
4.71971e+07
4.39209e+07
4.39707e+07
-1.05855e+07
4.92947e+07
1.65386e+07
5.93152e+07
3.4408e+07
1.58936e+07
8.68904e+06
9.00243e+07
5.50647e+07
3.88031e+07
3.4031e+07
6.44986e+06
2.88174e+07
2.43977e+07
4.41067e+07
6.12489e+07
3.78851e+07
4.15813e+07
5.28054e+07
2.83518e+07
5.29594e+07
4.9258e+07
5.73939e+07
3.69996e+07
4.00877e+07
2.86783e+07
3.33553e+07
3.63088e+07
5.57352e+07
5.58559e+07
5.92422e+07
3.61918e+07
2.74322e+07
3.97174e+07
3.98317e+07
4.70512e+07
5.04345e+07
5.07018e+07
5.10608e+07
5.89997e+07
3.97909e+07
4.61377e+07
5.18837e+07
4.83577e+07
3.39478e+07
4.99726e+07
1.04867e+08
-5.34056e+06
3.79865e+07
5.48566e+07
1.46092e+07
3.88491e+07
1.00027e+08
4.87156e+07
4.13733e+07
3.45919e+07
3.77931e+07
3.84435e+07
2.65325e+07
4.96579e+07
5.62452e+07
2.98011e+07
4.59931e+07
3.4759e+07
2.62077e+07
6.21539e+07
4.27085e+07
5.36591e+07
6.21937e+07
4.00616e+07
2.05956e+07
3.80015e+07
3.82183e+07
4.27261e+07
4.25208e+07
5.70669e+07
4.45502e+07
3.8381e+07
9.86811e+07
2.99383e+07
6.14707e+07
1.27916e+08
5.1272e+07
5.61955e+07
3.76105e+07
2.14612e+07
4.28284e+07
4.6151e+07
8.94095e+07
3.7764e+07
2.2616e+07
3.8464e+07
3.84342e+07
2.34388e+07
2.66885e+07
3.68218e+07
4.96404e+07
5.14426e+07
5.09173e+07
2.54712e+07
5.43194e+07
3.89018e+07
5.02496e+07
4.21613e+07
5.37605e+07
3.50678e+07
3.23506e+07
5.53413e+07
4.06471e+07
4.736e+07
3.42946e+07
5.38505e+07
3.59567e+07
4.21878e+07
3.98728e+07
3.10414e+07
5.29515e+07
2.53595e+07
4.08347e+07
4.08609e+07
4.11075e+07
4.65396e+07
3.41151e+07
3.72479e+07
3.75748e+07
3.73748e+07
-6.14653e+06
5.44181e+07
5.36964e+07
1.01205e+08
4.55224e+07
3.53136e+07
3.59961e+07
3.58327e+07
6.1355e+07
3.84593e+07
4.58401e+07
3.2365e+07
3.26818e+07
3.29037e+07
3.07754e+07
3.7078e+07
4.01243e+07
5.62466e+07
1.79474e+07
5.22506e+07
3.71356e+07
4.57225e+07
3.019e+07
4.0145e+07
2.92535e+07
3.725e+07
3.39731e+07
5.70562e+07
4.04284e+07
4.06027e+07
4.32436e+07
3.77681e+07
2.98657e+07
3.01892e+07
6.9894e+07
4.35798e+07
4.33052e+07
2.2373e+07
3.619e+07
3.96174e+07
3.66392e+07
-1.14698e+07
3.09784e+07
5.0121e+07
5.84434e+07
3.47419e+07
4.30082e+07
5.64219e+06
1.02152e+07
4.35672e+07
4.37335e+07
3.81299e+07
3.80521e+07
4.35992e+07
3.60601e+07
4.01285e+07
1.08438e+08
3.75123e+07
4.99013e+07
1.7063e+07
4.07838e+07
3.44873e+07
3.83822e+07
1.61776e+07
-1.9223e+07
3.27154e+07
2.81736e+07
3.3458e+07
-2.13771e+07
-5.13298e+07
4.19844e+07
8.15111e+07
3.69321e+07
3.77057e+07
3.84378e+07
3.85112e+07
4.56018e+07
3.34718e+07
3.42413e+07
4.92379e+07
4.40257e+07
3.59016e+07
5.1826e+07
5.42363e+07
5.03433e+07
228651
3.45213e+07
3.48046e+07
2.46057e+06
3.03521e+07
2.98841e+07
3.7776e+07
3.76498e+07
2.14213e+07
2.21337e+07
-1.99869e+07
2.47089e+07
3.93316e+07
8.39207e+06
-3.50473e+06
1.27639e+07
1.85789e+07
3.85628e+07
3.93526e+07
3.92684e+07
3.28593e+07
4.14913e+07
3.42306e+07
3.12107e+07
2.01546e+07
3.24728e+07
3.88425e+07
3.24534e+07
3.90401e+07
6.27151e+07
4.1242e+07
3.4841e+07
5.31752e+07
4.29519e+07
3.81257e+07
3.83638e+07
2.69677e+07
3.95564e+07
4.88532e+07
4.89588e+07
4.30516e+07
4.99505e+07
1.01482e+07
3.342e+07
5.70977e+06
3.77027e+07
3.44881e+07
1.34057e+08
1.55627e+07
4.23532e+07
4.25955e+07
2.86506e+07
3.94882e+07
3.63413e+07
1.49439e+07
3.93275e+07
5.18373e+07
5.94998e+07
-1.28675e+07
3.83666e+07
5.03004e+07
5.10471e+07
3.48949e+07
3.20089e+07
4.57916e+07
4.36432e+07
4.15823e+07
1.00581e+08
3.14635e+07
3.96566e+07
5.91384e+07
6.13182e+07
6.09162e+07
4.06003e+07
3.54061e+07
-5.45737e+06
4.03796e+07
1.26062e+07
3.59265e+07
4.18191e+07
3.53731e+07
4.06964e+07
-4.73959e+07
3.74164e+07
1.32503e+08
5.0666e+07
4.78312e+07
5.23021e+07
5.2599e+07
4.89218e+07
3.69272e+07
6.48952e+07
1.62117e+07
3.81148e+07
-2.98391e+07
4.35837e+07
1.58845e+07
3.45072e+07
2.9328e+07
3.50211e+07
3.37477e+07
3.71553e+07
3.81942e+07
3.79906e+07
2.99488e+07
6.88821e+06
4.96093e+07
4.12656e+07
3.99135e+07
5.8623e+07
2.99988e+07
-1.17456e+06
2.84794e+07
-1.0314e+07
4.72759e+07
2.08474e+07
1.06925e+08
5.73364e+07
1.3533e+07
4.51565e+07
6.64487e+07
5.4245e+07
4.94935e+07
2.33148e+07
5.11784e+07
7.71798e+06
6.22593e+07
4.04521e+07
1.2516e+07
6.72065e+07
3.28774e+07
3.75045e+07
3.85602e+07
6.95584e+07
8.796e+06
4.95856e+07
3.78908e+07
3.80512e+07
6.7428e+07
4.22068e+07
4.49983e+07
3.8326e+07
4.27611e+07
5.62719e+07
4.15403e+07
3.43691e+07
7.58697e+07
6.83127e+07
3.79852e+07
3.74482e+07
3.89781e+07
3.67627e+07
2.79248e+07
1.0484e+08
3.81054e+07
2.87563e+07
3.57235e+07
2.52625e+07
5.35556e+07
3.38549e+07
4.88087e+07
2.34293e+06
4.96847e+07
4.12808e+07
3.91425e+07
1.04575e+08
4.21551e+07
3.51892e+07
3.71259e+07
7.23216e+07
3.83411e+07
-1.55561e+07
3.89382e+07
3.75277e+07
2.91759e+07
3.80157e+07
4.00063e+07
3.59517e+07
2.89993e+07
3.82147e+07
3.03211e+07
3.10803e+07
3.71569e+07
5.40744e+07
3.83249e+07
5.78059e+07
4.29752e+07
-3.6451e+07
-1.7991e+07
3.70475e+07
5.71367e+07
3.4949e+07
-4.49518e+07
7.1273e+07
4.43263e+07
-1.22723e+07
6.39189e+06
3.89355e+07
-2.06741e+07
3.08513e+07
3.55347e+07
3.14849e+07
4.95067e+07
2.01102e+07
5.5541e+07
5.64486e+07
5.65439e+07
5.06753e+07
4.01067e+07
4.03589e+07
5.00515e+07
4.46158e+07
-2.23502e+06
5.56926e+07
8.12052e+07
3.76485e+07
3.74188e+07
3.46217e+07
3.09179e+07
3.73534e+07
3.01671e+07
4.86996e+07
3.99393e+07
2.79436e+07
4.54297e+07
4.35883e+07
3.81451e+07
3.62605e+07
4.4725e+07
3.75455e+07
3.75154e+07
3.2855e+07
-9.36357e+06
3.52229e+07
4.15621e+07
3.51117e+07
3.85997e+07
1.98277e+07
1.35036e+08
2.98433e+07
5.12336e+07
3.99047e+07
3.06653e+07
3.84437e+07
1.74232e+07
2.48046e+07
-1.14456e+07
1.83156e+07
1.22291e+07
-3.42026e+06
2.75014e+07
3.83326e+07
3.76358e+07
4.32417e+07
3.21151e+07
-3.9703e+07
6.75205e+06
3.32527e+07
6.67427e+07
3.82928e+07
6.61785e+07
6.05822e+07
3.86595e+07
4.73461e+07
9.82049e+06
4.00983e+07
3.86963e+07
4.41929e+07
3.89153e+07
2.59352e+07
3.7778e+07
3.76377e+07
3.9796e+07
3.86597e+07
3.80897e+07
3.95257e+07
3.71636e+07
5.19742e+07
2.29444e+07
5.14976e+07
5.37127e+07
3.99096e+07
3.82247e+07
2.1389e+07
3.77909e+07
3.55678e+07
4.43787e+07
3.79627e+07
7.69041e+07
4.85629e+07
5.57457e+07
3.03006e+07
3.67891e+07
3.92008e+07
4.68106e+07
5.56261e+07
3.59861e+07
3.57565e+07
2.89777e+07
4.33877e+07
3.61143e+07
4.56621e+07
5.06679e+07
-489256
3.67717e+07
-1.15921e+07
3.02976e+07
3.78503e+07
3.75917e+07
2.67296e+07
3.96776e+07
3.95815e+07
3.67629e+07
4.09028e+07
8.26345e+07
3.90038e+07
3.87491e+07
1.15062e+07
5.28061e+07
6.45257e+07
1.36337e+07
5.71991e+07
1.28152e+08
5.15832e+07
5.71394e+07
3.78455e+07
4.10091e+07
3.53479e+07
3.85407e+07
2.99699e+07
-5.15847e+06
4.34882e+07
3.72895e+07
-3.88965e+06
2.336e+07
3.45089e+07
3.98625e+07
4.17433e+07
3.39729e+07
4.36864e+07
-2.07007e+07
3.49036e+07
5.99255e+07
4.54073e+07
3.40765e+07
3.43367e+07
8.78656e+07
4.22126e+07
4.24391e+07
5.07537e+07
3.95562e+07
3.79316e+07
3.80189e+07
1.33439e+08
9.87932e+06
1.15216e+07
3.93838e+07
5.60138e+07
3.72447e+07
4.32004e+07
5.90484e+07
5.09565e+07
3.84169e+07
3.95315e+07
5.81609e+07
-3.35647e+07
3.89849e+07
3.77039e+07
3.98912e+07
4.53819e+07
4.7172e+07
2.62674e+07
4.61225e+07
5.14414e+07
2.75533e+07
7.86426e+07
4.91564e+07
4.93754e+06
6.13237e+07
6.25382e+07
7.05094e+07
2.7124e+07
3.00189e+07
4.89162e+07
4.84339e+07
9.10878e+07
4.02983e+07
4.84943e+07
3.55981e+07
3.04265e+07
4.64973e+07
3.66518e+07
3.80356e+07
6.63903e+06
3.53558e+07
3.53471e+07
5.37891e+07
3.71962e+07
3.5087e+07
4.0214e+07
4.21432e+07
1.09178e+07
5.42558e+07
1.20471e+07
3.80066e+07
3.78963e+07
4.29694e+07
5.54414e+07
5.29902e+07
4.86571e+07
1.15904e+07
1.4252e+07
5.36852e+07
5.7377e+07
4.11482e+07
-8.99979e+06
1.23619e+07
3.90426e+07
2.32003e+07
1.17291e+07
3.84773e+07
4.98239e+07
3.89572e+07
8.25477e+07
2.44398e+07
2.63658e+07
2.21605e+07
4.00958e+07
6.02778e+07
6.0774e+07
4.687e+07
6.30232e+07
4.30989e+07
8.36944e+07
5.76688e+07
3.63141e+07
2.22056e+07
3.96895e+07
2.00545e+07
4.35799e+07
2.06809e+07
3.83803e+07
4.0498e+07
5.1536e+07
3.07092e+07
-1.41896e+07
3.09342e+07
2.72819e+07
2.29339e+07
3.8503e+07
2.64533e+07
4.60812e+07
4.06493e+07
3.93444e+07
4.7579e+07
4.6838e+07
4.59954e+07
4.69111e+07
4.99863e+07
6.05447e+07
5.43842e+07
2.07993e+07
2.87018e+07
5.09045e+07
4.22494e+07
1.00821e+08
3.9638e+07
4.08479e+07
6.00777e+07
3.7797e+07
3.64168e+07
5.60694e+06
3.7508e+07
4.84152e+07
4.53023e+07
2.75695e+07
3.44418e+07
-2.47506e+07
2.06757e+07
2.12714e+07
8.35574e+07
4.04395e+07
2.89218e+07
4.69789e+07
5.67506e+07
3.42283e+07
4.43426e+07
4.10255e+07
1.45523e+07
2.76741e+07
5.99965e+07
1.58849e+07
2.80932e+07
3.48104e+07
-2.73029e+07
-2.03144e+06
5.28652e+07
2.56271e+07
-3.50452e+07
3.64802e+07
3.97839e+07
3.6627e+07
3.96609e+07
4.00227e+07
3.59827e+07
2.70913e+07
2.2856e+07
3.71947e+07
3.88376e+07
3.87866e+07
3.86697e+07
-212448
-405426
4.08655e+07
4.01588e+07
445902
-371388
5.87497e+07
1.15635e+07
8.0599e+07
3.50431e+07
5.42844e+07
5.83398e+07
-1.61187e+06
5.42993e+07
6.04257e+07
3.81111e+07
5.34097e+07
3.91559e+07
5.43655e+07
5.35392e+07
3.82075e+07
3.81583e+07
3.79052e+07
2.43466e+06
-1.82209e+07
6.48749e+07
6.20145e+07
4.84959e+07
2.70676e+07
4.67606e+07
2.97132e+07
-9.67614e+06
3.9618e+07
3.86353e+07
4.04441e+07
3.22245e+07
2.87407e+07
5.1341e+07
5.09216e+07
2.80977e+07
3.83184e+07
6.5946e+07
5.21202e+07
5.85758e+07
3.94893e+07
1.9774e+07
2.23506e+07
3.48774e+07
3.39076e+07
4.19216e+07
2.94829e+07
4.01788e+07
4.02016e+07
2.01567e+07
4.12875e+07
3.47856e+07
3.9051e+07
3.70259e+07
4.00556e+07
2.82442e+07
3.84756e+07
4.44946e+07
3.84194e+07
3.83744e+07
4.18054e+07
3.46425e+07
3.55155e+07
3.8275e+07
1.09759e+08
3.53846e+07
4.13003e+07
3.63204e+07
3.02997e+07
3.05404e+07
3.83466e+07
3.242e+07
5.04701e+07
3.71546e+07
3.35512e+07
7.08186e+07
4.7432e+07
3.93352e+07
3.69989e+07
3.91562e+07
3.7274e+07
3.50385e+07
3.92816e+07
5.01668e+07
4.15164e+07
3.48739e+07
3.3486e+07
3.60483e+07
5.07842e+07
3.69514e+07
4.95471e+07
5.10525e+07
5.04476e+07
1.47642e+07
1.7116e+07
1.28021e+08
7.46743e+07
5.52805e+07
-4.16071e+07
5.46108e+07
2.73415e+07
3.65558e+07
3.96161e+07
3.9599e+07
-2.05114e+07
2.92911e+07
3.81182e+07
9.66841e+07
3.70778e+07
2.49662e+07
3.86052e+07
4.33091e+07
4.3005e+07
3.81706e+07
3.91248e+07
3.72984e+07
6.90884e+07
4.84474e+07
3.58083e+07
2.35512e+07
5.11527e+07
5.50582e+07
2.43598e+07
5.65437e+07
2.7408e+07
8.10927e+07
5.09114e+07
4.12191e+07
3.9524e+07
3.80697e+07
5.23793e+07
2.91521e+07
2.7572e+07
4.71299e+07
3.62137e+07
3.61533e+07
5.22382e+07
-1.71738e+06
3.61085e+07
5.68289e+07
3.14691e+07
5.32459e+07
1.93487e+07
3.91193e+07
4.94495e+07
3.76004e+07
1.83336e+07
-2.99702e+07
-6.99333e+06
3.84169e+07
3.85131e+07
3.9992e+07
2.79177e+07
4.68185e+07
2.26115e+07
3.20812e+07
5.27344e+07
5.35779e+07
3.55606e+07
3.55736e+07
3.07091e+07
2.46223e+07
7.30278e+07
5.41311e+07
5.42415e+07
3.51103e+07
549271
7.0024e+07
1.19165e+07
2.16594e+07
1.26758e+07
3.88435e+07
3.73648e+07
4.78425e+07
3.79166e+07
1.86267e+07
1.98483e+07
4.64216e+07
5.09637e+07
5.32773e+07
4.12855e+07
4.49063e+07
1.29326e+07
1.3585e+07
6.14585e+07
2.04624e+07
4.12921e+07
3.27626e+07
3.93966e+07
4.46515e+07
4.47464e+07
8.50757e+07
2.5682e+07
4.15514e+07
4.16809e+07
1.22365e+08
1.28965e+08
4.09663e+07
3.53873e+07
3.83297e+07
3.75977e+07
4.58909e+07
2.47581e+07
3.84051e+07
5.0617e+07
3.71202e+07
3.91406e+07
4.14837e+07
4.23684e+07
2.19615e+07
3.71543e+07
3.24666e+07
3.74156e+07
5.50727e+07
1.23646e+08
3.17542e+07
3.6134e+07
1.79137e+07
3.19527e+07
5.04392e+07
3.83497e+07
3.87713e+07
5.39878e+07
5.29318e+06
5.45572e+07
1.36486e+07
5.53925e+07
4.07616e+07
5.53782e+07
2.23693e+07
8.16761e+06
3.38037e+07
3.85315e+07
7.09454e+07
2.6913e+07
5.40037e+07
7.50463e+06
3.91071e+07
3.49637e+07
1.45857e+07
3.78409e+07
3.78621e+07
4.41313e+07
3.71736e+07
5.54813e+07
4.30752e+07
3.29518e+07
2.27428e+06
2.42229e+07
3.52921e+07
5.31956e+07
4.40409e+07
5.42909e+07
4.93692e+07
4.39128e+07
3.9154e+07
3.06583e+07
-2.59115e+07
3.98532e+07
4.003e+07
3.07114e+07
4.41567e+07
3.85279e+07
5.89956e+07
5.75502e+07
5.3455e+07
4.05426e+07
4.04328e+07
5.12067e+07
3.77473e+07
3.81799e+07
5.49005e+07
3.80357e+07
3.85841e+07
5.40565e+07
3.32893e+07
3.89776e+07
7.40919e+07
5.37952e+07
5.13696e+07
4.56117e+07
4.51698e+07
6.69621e+07
3.35419e+07
5.18042e+07
4.271e+07
7.54392e+07
4.15524e+07
4.13431e+07
3.92554e+07
3.70338e+07
4.90934e+07
6.20575e+07
4.48557e+07
4.49658e+07
2.07806e+07
4.6881e+07
3.29255e+07
4.09691e+07
-2.84221e+07
-33670.3
1.30482e+08
4.16518e+07
4.41568e+07
3.12783e+07
3.10555e+07
3.68761e+07
4.40232e+07
3.4794e+07
9.74097e+07
3.63138e+07
3.04118e+07
3.21343e+07
2.33053e+07
-3.29365e+07
4.18971e+07
3.91878e+07
3.74824e+07
2.42797e+07
5.19144e+07
6.01407e+07
4.45746e+07
3.06377e+07
4.60024e+07
3.47488e+07
5.84207e+07
3.70212e+07
5.49767e+07
3.85757e+07
3.83904e+07
9.33848e+07
4.20818e+07
3.72333e+07
2.10411e+07
-5.56872e+06
1.06366e+08
4.51818e+07
3.51052e+07
3.92558e+07
3.85848e+07
4.37864e+07
3.12473e+07
-1.71365e+07
1.33749e+07
3.38015e+07
-6.76374e+06
3.79998e+07
5.33714e+07
-3.60487e+07
4.86526e+07
4.08315e+07
4.18759e+07
4.57634e+07
4.86611e+07
3.76486e+07
7.90318e+07
4.19374e+07
5.29174e+07
3.56744e+07
3.13752e+07
4.96019e+07
-1.14835e+07
3.92477e+07
3.74136e+07
-3.5146e+06
3.86816e+07
4.97242e+07
4.70969e+07
3.77184e+07
-9.41238e+06
2.41533e+07
4.04636e+07
5.11123e+07
4.34398e+07
4.30723e+07
3.68233e+07
4.32506e+07
3.23473e+07
3.24068e+07
3.33983e+07
3.40932e+07
-9.35613e+06
-1.83909e+07
3.09624e+07
4.40603e+07
1.00349e+08
-7.23672e+06
1.38175e+07
-7.39386e+06
1.90097e+07
3.75425e+07
7.8527e+07
6.03732e+07
4.11729e+07
4.24919e+07
3.65713e+07
9.12889e+07
3.14692e+06
8.92122e+06
5.50478e+07
-5.92596e+06
-1.61117e+07
3.81069e+07
6.52574e+07
3.91873e+07
2.35822e+07
8.61603e+07
3.41316e+07
3.41938e+07
3.92951e+07
5.55002e+07
3.92449e+07
3.50159e+07
5.42282e+07
9.41853e+07
4.54374e+07
3.501e+07
4.9845e+07
4.45018e+07
-1.76946e+06
5.93678e+07
3.98837e+07
4.27953e+07
-1.38005e+07
-471524
1.81922e+07
4.10592e+07
6.13599e+07
3.7423e+07
3.72774e+07
1.57735e+07
2.86845e+07
3.74948e+07
3.91551e+07
3.93777e+07
3.0537e+07
5.49747e+07
5.65473e+07
5.52201e+07
-3.32817e+07
3.57422e+07
5.35079e+07
5.4213e+07
5.42095e+07
4.66174e+07
3.28263e+07
3.11578e+07
4.30618e+07
5.36437e+07
2.91835e+07
3.83288e+07
3.79161e+07
3.32435e+07
2.7797e+07
5.51884e+07
1.01669e+08
4.63154e+07
5.27546e+07
6.63024e+07
4.86824e+07
3.26925e+07
3.76096e+07
4.6204e+07
6.76831e+07
3.82221e+07
5.46027e+07
3.92983e+07
3.13538e+07
3.15993e+07
1.93031e+07
1.91093e+07
5.28771e+07
4.69381e+07
4.8074e+07
4.02681e+07
8.00955e+07
4.22039e+07
3.75659e+07
4.14985e+07
5.10257e+07
3.79721e+07
2.73385e+07
3.93266e+07
3.70051e+07
-4.69657e+06
-1.56627e+07
7.64574e+07
4.17953e+07
2.25368e+07
5.44995e+07
3.83607e+07
3.77106e+07
3.14595e+07
3.99896e+07
5.26753e+07
4.65905e+07
4.65087e+07
3.473e+07
3.47302e+07
3.84356e+07
3.8714e+07
5.04154e+07
4.44267e+07
2.33956e+07
3.78335e+07
3.7756e+07
4.40626e+07
4.66258e+07
5.79017e+07
-1.21423e+07
5.37945e+07
3.58068e+07
4.42964e+07
3.18835e+07
4.77995e+07
3.96248e+07
3.87875e+07
3.88174e+07
8.96325e+07
4.21131e+07
4.23507e+07
9.77053e+07
2.17483e+07
4.96126e+07
8.59164e+06
4.05045e+07
3.63622e+07
9.31513e+07
3.75782e+07
4.00373e+07
3.67722e+07
8.88166e+07
2.99804e+07
3.42852e+07
6.46673e+07
5.00262e+07
2.30327e+07
1.88738e+07
3.57885e+07
4.26274e+07
2.37117e+07
1.24645e+08
4.07612e+07
4.34757e+07
3.5206e+07
4.38939e+07
9.40484e+07
6.65824e+07
4.86324e+07
3.551e+07
4.09945e+07
4.30554e+07
7.57807e+07
3.84594e+07
4.03289e+07
4.08949e+07
4.98824e+07
3.85185e+07
6.82664e+06
-4.20041e+06
4.41918e+07
4.4021e+07
5.13388e+07
5.45708e+07
3.85496e+07
3.85179e+07
2.93474e+07
5.45293e+07
3.82775e+07
5.19312e+07
2.71953e+07
3.82958e+07
2.74907e+07
6.22494e+07
3.75016e+07
3.8292e+07
5.31267e+07
7.92965e+07
3.9519e+07
3.63201e+07
4.43566e+07
5.73573e+07
7.50579e+06
2.91573e+07
3.94107e+07
3.69168e+07
3.61801e+07
9.29818e+07
3.72937e+07
3.93558e+07
7.15187e+07
4.07662e+07
3.51872e+07
3.92001e+07
3.91011e+07
3.22302e+07
4.12737e+07
-3.41395e+06
1.9625e+07
4.01093e+07
3.57829e+07
4.37566e+07
3.70675e+07
3.78467e+07
3.07953e+07
2.67684e+07
3.96081e+07
2.69345e+07
4.89633e+07
2.66584e+07
9.506e+07
3.94175e+07
2.2767e+07
4.30951e+07
4.08658e+07
2.31715e+07
3.67864e+07
8.78843e+07
3.60892e+07
2.80832e+07
2.4162e+07
1.92805e+07
4.51153e+07
3.51135e+07
2.88442e+07
2.79803e+07
3.50023e+07
-1.33201e+07
4.31679e+07
5.39329e+07
5.1671e+07
5.26615e+07
2.68739e+07
3.68451e+07
3.78657e+07
3.40153e+07
3.84947e+07
3.86067e+07
6.11485e+07
3.65653e+07
5.40309e+07
3.9919e+07
3.62912e+07
3.64613e+07
3.79351e+07
6.37576e+07
2.7899e+07
4.11468e+07
3.97236e+07
2.9249e+07
1.70278e+06
3.19458e+07
5.57498e+07
3.80546e+07
4.28607e+07
4.51538e+07
4.14171e+07
-1.77659e+07
3.18018e+07
5.57841e+07
3.78867e+07
3.93316e+07
3.26393e+07
5.99559e+07
5.33395e+07
3.99562e+07
4.25964e+07
3.32454e+07
5.7222e+07
3.56791e+07
4.49071e+07
3.42978e+07
3.75259e+07
3.88386e+07
3.74703e+07
3.40649e+07
2.19592e+07
5.50035e+07
3.55569e+07
3.58424e+07
1.30654e+07
3.32458e+07
3.44935e+07
5.97659e+07
4.00373e+07
5.87847e+07
-4.79037e+07
4.7024e+07
3.83717e+07
4.66908e+07
3.7259e+07
3.83842e+07
3.8249e+07
3.98158e+07
4.59474e+07
4.07131e+07
3.97578e+07
3.56759e+07
4.07599e+07
3.83304e+07
6.37738e+07
3.76483e+07
3.90789e+07
3.61335e+07
4.00365e+07
2.94874e+07
-2.82343e+07
6.88789e+07
4.0017e+07
3.31161e+07
1.3624e+07
3.42661e+07
3.96163e+07
-5.09249e+07
2.48514e+07
6.31842e+07
4.608e+07
3.81039e+07
3.4592e+07
3.59715e+07
3.93922e+07
4.57783e+07
3.48628e+07
4.64803e+07
3.47201e+07
4.70224e+07
4.18542e+07
4.5174e+07
-4.52903e+07
3.32181e+07
3.34714e+07
5.53924e+07
4.94817e+07
4.56435e+07
3.04015e+07
3.6638e+07
2.37288e+07
4.06363e+07
3.5186e+07
3.9246e+07
4.09516e+07
3.50255e+07
3.13296e+07
3.44819e+07
4.13893e+07
3.44135e+07
3.60187e+07
-5.57393e+06
5.57348e+07
4.97981e+07
5.60986e+07
5.43058e+07
3.60228e+07
4.58311e+07
6.09626e+07
3.83242e+07
3.8364e+07
3.85747e+07
3.85366e+07
3.40638e+07
3.66281e+07
3.75013e+07
5.35499e+07
3.80891e+07
3.62839e+07
4.20117e+07
4.06887e+07
3.5429e+07
3.51394e+07
3.95263e+07
3.9467e+07
5.26387e+07
4.56446e+07
8.90734e+07
3.67541e+07
2.93782e+07
2.9184e+07
3.64502e+07
2.3109e+07
3.9269e+07
3.92845e+07
5.60438e+07
3.13496e+07
6.269e+07
3.87318e+07
3.78968e+07
2.03366e+07
4.97326e+07
3.22806e+07
2.993e+07
4.31735e+07
4.18506e+07
4.95973e+07
8.40964e+07
4.46193e+07
4.49701e+07
-1.30849e+07
2.31266e+07
5.94944e+07
4.9465e+07
5.4048e+07
3.74505e+07
-2.38341e+06
5.80557e+06
3.47189e+07
3.92581e+07
3.13478e+07
3.12001e+07
1.16851e+08
4.88099e+06
5.60449e+07
2.08321e+07
5.50436e+07
7.43594e+07
3.86037e+07
4.07572e+07
4.09892e+07
3.84643e+07
3.75523e+07
8.47237e+06
4.53869e+07
4.66397e+07
3.7222e+07
1.88427e+07
3.83616e+07
4.03316e+07
4.98384e+07
3.90854e+07
3.86729e+07
3.85352e+07
4.74632e+07
4.11856e+07
3.54849e+07
5.00042e+07
4.28157e+07
2.45377e+07
3.18918e+07
4.15195e+07
4.90677e+07
3.8428e+07
3.85175e+07
4.26662e+07
3.91317e+07
3.83856e+07
3.85888e+07
3.96209e+07
2.57182e+07
4.07469e+07
5.46584e+07
3.89808e+07
3.92247e+07
5.68722e+07
3.36265e+07
8.33145e+07
3.82185e+07
3.81891e+07
8.63461e+07
1.99738e+07
2.3701e+07
2.83287e+07
4.42209e+07
3.27928e+07
7.46025e+06
2.81658e+07
3.77969e+07
3.82248e+07
3.79634e+07
5.41282e+07
3.69781e+07
5.38247e+07
3.95361e+07
3.6699e+07
4.4843e+07
4.03781e+07
3.60638e+07
3.64292e+07
4.18667e+07
3.72152e+07
4.80515e+07
5.35017e+07
4.59405e+07
3.56229e+07
1.95496e+07
3.35323e+07
3.83746e+07
5.34119e+07
1.566e+07
1.00243e+08
3.75787e+07
3.85284e+07
3.8517e+07
4.92121e+07
5.22639e+07
5.65189e+07
1.54185e+07
3.85471e+07
3.91524e+07
3.09349e+07
2.7615e+07
-4.96126e+07
1.94908e+06
3.81293e+07
3.79976e+07
3.32194e+07
9.62666e+07
2.13159e+07
4.64107e+07
3.87969e+07
3.86961e+07
2.27064e+07
4.87878e+07
4.15569e+07
4.18878e+07
3.87169e+07
3.62303e+07
3.60919e+07
3.83526e+07
-1.86251e+07
-1.44342e+06
1.00469e+07
4.22767e+07
9.13718e+07
4.0005e+07
3.57341e+07
3.43334e+07
3.47338e+07
3.95067e+07
2.96313e+07
4.00457e+07
-1.9718e+07
5.83511e+07
5.62378e+07
2.55186e+07
3.71947e+07
3.8105e+07
3.84454e+07
3.72212e+07
4.18448e+07
3.83037e+07
-4.62532e+07
2.80531e+07
4.10232e+07
4.03685e+07
3.70441e+07
3.89783e+07
3.78127e+07
4.1858e+07
5.99793e+07
3.21304e+07
4.05338e+07
1.6051e+07
9.79074e+07
3.13526e+07
2.82339e+07
3.90921e+07
3.71387e+07
4.01628e+07
3.60706e+07
1.06357e+08
4.53723e+07
8.44209e+07
4.39201e+07
3.06838e+07
3.86872e+07
5.23034e+07
8.48383e+07
3.78007e+07
2.54806e+07
5.30491e+07
3.4753e+07
1.08807e+08
4.11232e+07
3.84963e+07
4.14715e+07
1.88088e+07
4.11333e+07
3.47927e+07
3.36172e+07
5.33827e+07
5.78692e+07
3.83668e+07
3.10731e+07
1.05884e+08
3.79491e+07
2.6468e+07
4.03036e+07
3.0462e+07
3.94714e+07
3.67827e+07
3.38834e+07
4.05372e+07
3.67077e+07
7.53298e+06
5.39402e+07
4.00976e+07
3.80038e+06
6.3603e+06
3.76613e+07
8.89669e+07
5.47826e+07
3.74013e+07
6.19678e+07
4.29293e+07
3.84767e+07
3.35281e+07
4.23676e+07
4.11687e+07
5.99098e+07
4.81666e+07
6.03564e+07
5.34821e+07
4.70963e+07
6.04307e+06
1.60139e+07
2.11515e+07
3.24507e+07
4.23561e+07
4.20653e+07
2.09451e+07
4.04544e+07
3.54266e+07
1.02274e+08
5.3978e+07
5.39508e+07
7.84476e+07
-5.17823e+07
3.79383e+07
3.84356e+07
2.7523e+07
4.07047e+07
4.52953e+07
3.50204e+07
3.84558e+07
3.94567e+07
5.94025e+07
3.85728e+07
3.73515e+07
3.79157e+07
3.22089e+07
4.75773e+07
3.46863e+07
4.52112e+07
5.11195e+07
2.05947e+07
3.32959e+07
1.53619e+07
3.12314e+07
-2.29812e+07
3.49025e+07
5.64822e+07
4.48002e+07
3.49017e+07
3.57899e+07
4.03199e+07
5.09658e+07
1.51105e+07
4.1042e+07