/*--------------------------------*- C++ -*----------------------------------*\
| =========                 |                                                 |
| \\      /  F ield         | OpenFOAM: The Open Source CFD Toolbox           |
|  \\    /   O peration     | Version:  v2012                                 |
|   \\  /    A nd           | Website:  www.openfoam.com                      |
|    \\/     M anipulation  |                                                 |
\*---------------------------------------------------------------------------*/
FoamFile
{
    version     2.0;
    format      ascii;
    class       pointScalarField;
    location    "1";
    object      pEpsilonEq;
}
// * * * * * * * * * * * * * * * * * * * * * * * * * * * * * * * * * * * * * //

dimensions      [0 0 0 0 0 0 0];


internalField   nonuniform List<scalar> 
970
(
1.29779e-05
1.71504e-05
0.000189738
0.000328495
0.0003095
0.000189113
8.54188e-05
0.000174381
8.18478e-05
0.00034551
0.000411033
0.000619612
0.00131164
0.000372722
0.000270636
0.000133401
0.00013492
1.12898e-05
1.09838e-05
0.000809342
0.000477484
5.22343e-05
0.0010212
0.000573807
0.000305129
0.000285961
0.000140128
0.000139116
0.000344582
6.88083e-05
0.000356948
0.000312389
0.000469841
0.000392797
0.000192234
6.09875e-05
0.000483123
1.17111e-05
0.000235172
1.17983e-05
3.02438e-05
1.72006e-05
1.29303e-05
0.000434297
3.87502e-05
0.000781798
0.000700788
0.000676469
0.000340061
3.46387e-05
1.48637e-05
1.64301e-05
1.62371e-05
1.40698e-05
8.96585e-06
2.26402e-05
0.000264361
0.000315403
0.000379005
0.000469535
0.000140916
0.0001414
0.000413259
0.0003165
4.64674e-05
4.24878e-05
5.49431e-05
0.000109927
0.000148407
6.20017e-05
2.74683e-05
1.36888e-05
1.01268e-05
1.14957e-05
1.18116e-05
1.22061e-05
1.26277e-05
1.20038e-05
0.000215399
0.000223644
0.000267403
0.00019901
0.000171245
0.000247503
0.000342931
0.000327676
0.000185566
0.000370734
0.000228265
0.000132094
5.78883e-05
4.22176e-05
0.000101227
0.000138253
0.000182717
0.00013095
8.40635e-05
5.47292e-05
3.36159e-05
1.84485e-05
1.07072e-05
0.000189561
0.000463609
0.000536852
0.000595268
0.000535221
0.000132067
0.000215207
0.000252276
0.000775992
0.00109067
0.000162421
0.000106344
0.000302872
0.000203978
0.000154607
9.21689e-05
6.01151e-05
0.000168227
0.000191877
0.000236051
0.000231304
0.000347265
0.00120245
0.000608515
0.000534584
0.000577894
0.000391975
0.000361107
0.000124665
0.000138556
1.57444e-05
5.07563e-05
0.000395416
0.000316729
0.000237922
0.000247388
0.000369539
0.000474826
0.000138868
9.8545e-05
5.41073e-05
4.33365e-05
0.000101354
0.000204482
0.000151424
0.00011325
0.000183312
0.000309827
0.000259181
0.000212819
0.000289359
0.00036059
0.000338045
0.000197008
0.000148696
0.000147486
0.00013209
9.32714e-05
7.45577e-05
0.00032794
0.000326598
0.00033174
0.000299176
0.000309562
0.000145478
0.000127579
0.000172139
0.000200665
0.000242985
0.000245705
0.000286911
0.000513359
0.000508382
0.000556422
0.00051389
0.000555082
0.000429379
0.000436696
0.000404165
0.000365136
0.000209148
0.000149532
9.62056e-05
7.32192e-05
2.95745e-05
9.09932e-05
0.000140412
0.000269283
0.000313316
0.000548041
0.000590995
0.000602641
0.000555887
0.00045568
5.04425e-05
1.80799e-05
6.48763e-05
0.000104017
0.000165634
0.000217291
0.000350581
0.000465789
0.000393577
0.000469955
0.000429512
0.000434959
0.00040468
0.000453492
2.50317e-05
9.49403e-06
1.18939e-05
2.10526e-05
4.03893e-05
7.5468e-05
0.000104102
0.000157453
0.000183002
0.000382193
0.000441272
0.000260231
0.000249745
0.000204189
0.00018145
0.000157902
1.2595e-05
1.32403e-05
1.35739e-05
1.91613e-05
3.72729e-05
6.73048e-05
4.32107e-05
6.54523e-05
0.000102819
8.6782e-05
8.61088e-05
6.52589e-05
2.71829e-05
1.98172e-05
1.63525e-05
1.42149e-05
1.19619e-05
1.22745e-05
1.46704e-05
1.67333e-05
0.000106213
0.000400447
0.000367792
0.000372002
0.000370214
0.0003851
0.000178861
0.000177804
0.000117199
0.000103754
6.73051e-05
0.000694099
0.00096351
0.000912542
0.000843989
0.000710753
0.000865982
0.000774003
0.00108408
0.0010177
0.0010162
0.000953667
0.000856057
0.000633122
0.000791719
0.000770693
0.000723357
0.000701595
0.000746273
0.00053865
0.000361778
0.000334745
0.000292234
0.000243348
0.000257214
0.000103836
0.000117743
0.000130072
9.37238e-05
5.18887e-05
3.39014e-05
0.000195496
0.000241153
0.000203516
0.000284407
0.000185832
0.000142124
0.000274804
0.00024896
0.000343336
0.000123994
9.63597e-05
0.000225163
7.05396e-05
0.000119155
0.000226018
7.33367e-05
0.000313869
0.000208737
8.5305e-05
0.000141951
0.000347844
5.20523e-05
0.000180155
0.000138527
0.00024904
0.000170315
8.22254e-05
0.000301796
0.00031357
0.000230206
0.000303025
0.000242342
0.00031869
0.000256619
0.000226466
0.000395255
0.000159561
0.000260627
0.000344756
0.000307951
0.000289594
0.00032794
0.000370956
0.000375367
0.000275006
0.000244276
0.000107488
0.000202706
0.000160549
0.000188982
6.14356e-05
0.00010984
0.000223147
0.000337563
0.000276896
9.92609e-05
0.000144461
0.000134659
0.000280428
0.000252603
0.000400145
0.000375464
0.000210678
0.000266162
0.000107589
3.8157e-05
0.00016605
0.00020352
4.58137e-05
6.95729e-05
2.32945e-05
0.000380913
4.99078e-05
0.000115079
8.64955e-06
0.000123506
0.000300767
0.000264459
0.000413218
0.000372088
0.00022484
0.000210038
9.69084e-05
3.98631e-05
0.000159477
0.000145544
5.47526e-05
7.20032e-05
1.70921e-05
0.000277286
4.82154e-05
8.88922e-05
3.14296e-05
0.000120408
0.000192349
0.000240848
0.00026205
0.000288589
0.000186016
7.05088e-05
2.45408e-05
1.6382e-05
2.36558e-05
7.80976e-05
2.89921e-05
1.55235e-05
1.54441e-05
0.000116278
1.19681e-05
5.04748e-05
2.28306e-05
1.65435e-05
0.000119546
5.38999e-05
0.00015499
8.6527e-05
3.92502e-05
1.37667e-05
1.21335e-05
1.35125e-05
1.60744e-05
1.30499e-05
1.4842e-05
1.52331e-05
1.21741e-05
1.23073e-05
0.000229958
0.000192281
0.00052544
0.000671613
0.000924622
0.00076885
0.000893218
0.000720194
0.000446223
0.000500577
0.00017688
9.75162e-05
0.000217293
0.000271216
0.000323018
0.000133365
0.000306852
0.000104418
0.000369507
0.000355956
0.000243418
0.00017264
0.000192339
0.000108178
0.000213907
0.000239611
0.000196139
0.000234714
0.00026107
0.00013324
0.000319491
0.00026689
0.00025531
0.000100754
0.000155748
0.0001587
4.09913e-05
0.000149897
7.0312e-05
0.000177731
0.00010254
7.60439e-05
6.06251e-05
8.23917e-05
0.000150539
0.000167737
9.54456e-05
0.000163386
0.000182846
0.000158366
4.45543e-05
0.000146511
0.000128883
4.59615e-05
0.000200659
0.000108856
0.000195322
0.000131973
0.000174904
0.000226765
0.000171076
9.87168e-05
7.8778e-05
0.000175782
0.000171079
0.000241688
0.000198755
0.000136265
0.000213788
0.000132888
0.000177103
0.000193484
0.000252842
0.000254763
0.000243344
0.00032486
0.000179132
0.000210338
0.000217696
0.000195822
0.000207728
0.000349436
0.000280022
0.000305329
0.000128848
0.000294487
0.000292156
0.00027818
0.000256051
0.000184434
0.000268025
0.000210288
0.00021572
0.00019289
0.000196086
0.000125016
0.000218177
0.000121546
0.000170917
0.000243274
7.67639e-05
0.000328618
0.000187308
9.27635e-05
0.000174562
0.000352796
6.41127e-05
0.000216806
0.000206423
0.000219332
0.000147299
0.000180497
0.000110593
0.000200706
0.000170388
0.000243711
0.000306984
0.000343069
0.000194377
0.000281739
0.000161985
0.00025503
0.00024394
0.000218489
0.00021435
0.000291186
0.000355511
0.000397308
0.00033684
0.000393053
0.000299477
0.00027905
0.000202979
0.000261083
0.000232511
0.000213988
0.000508065
0.00046282
0.000463153
0.000462406
0.000437983
0.000506607
0.000435026
0.000454446
0.000415033
0.000561867
0.000515857
0.000441988
0.000408312
0.000494962
0.000483562
0.000491751
0.000363653
0.000356092
0.000232708
0.000338518
0.000306444
0.000344422
0.000278792
0.000234644
0.000423432
0.000195058
0.000303491
0.000360046
0.000340556
0.000364631
0.000383397
0.000411146
0.000382871
0.000349067
0.000600002
0.000478159
0.000562003
0.000540289
0.00056257
0.000596222
0.000537635
0.000515455
0.000480635
0.000455406
0.000587084
0.000608205
0.000583651
0.000509287
0.000510907
0.000350191
0.000196692
0.00023753
0.000235604
9.42673e-05
0.000315613
2.71919e-05
0.000178944
0.00016538
0.000109115
0.00010953
0.000126341
7.94906e-05
0.000383262
0.000326357
0.000149539
0.000392399
0.000380498
6.55773e-05
5.78141e-05
0.000151056
0.000266093
0.000187044
0.000232575
0.000234292
0.000338199
0.000242724
0.000270448
0.000185375
0.00012082
0.000208528
0.000143679
0.000171173
6.76391e-05
0.00011665
0.000218905
0.000246059
0.000245296
9.2232e-05
0.000130275
0.000138787
0.000200049
0.000202944
0.000292915
0.000256988
0.000186712
8.49269e-05
1.47102e-05
3.65571e-05
0.000204548
0.000311331
0.000288323
0.000105711
0.000285127
6.52075e-05
0.000210789
0.000205543
0.000145342
0.000145511
6.6783e-05
0.000347925
0.000337195
0.000359817
0.000340239
0.000289706
0.000268686
9.84115e-05
0.000227308
0.000238244
0.000140923
0.00059905
0.000501818
0.000567256
0.000553712
0.000612278
0.000528206
0.000549102
0.000528163
0.000613587
0.000529885
0.000480607
0.00046431
0.000630227
0.000481729
0.000401976
0.000543522
0.000282892
0.000135497
3.87321e-05
0.000182253
0.000220937
6.41365e-05
7.64037e-05
2.16875e-05
0.000320296
5.37462e-05
0.000138271
1.97916e-05
0.000141432
0.000224179
0.000276133
0.000338036
0.000356453
0.000268935
9.58082e-06
4.16098e-05
1.45166e-05
9.94684e-05
0.000126816
0.000137325
6.82006e-05
0.000142115
3.64183e-05
0.000110947
0.000102377
6.94378e-05
7.9632e-05
1.36461e-05
2.36166e-05
0.000155108
0.000188047
1.08473e-05
0.00015424
0.000177063
4.90601e-05
6.16281e-05
8.13861e-05
0.000141686
0.00016114
0.000129539
0.000116288
0.000420586
0.000358204
0.000375357
0.000338329
0.000411204
0.000336644
0.000370039
0.000267924
0.000431559
0.0003407
0.000292572
0.000434089
0.000381305
0.000292586
0.000373087
0.00035671
0.000239696
0.000118117
3.8265e-05
0.000162261
0.000168726
6.43807e-05
8.03423e-05
1.6258e-05
0.000295144
5.01847e-05
0.00010454
2.96371e-05
0.00014506
0.000217271
0.000297656
0.00025712
0.000318418
0.000232447
1.24602e-05
1.19926e-05
1.29288e-05
2.5158e-05
5.36535e-05
3.61385e-05
1.62895e-05
3.85129e-05
1.38212e-05
5.21903e-05
2.71848e-05
1.90221e-05
2.89324e-05
1.12948e-05
4.64856e-05
6.88421e-05
2.77283e-05
7.6049e-05
4.79695e-05
4.57978e-05
1.13433e-05
4.00136e-05
3.40294e-05
2.25444e-05
5.49175e-05
0.000143586
0.000144737
7.41192e-05
0.000179831
0.000112016
0.000101076
4.27688e-05
3.60788e-05
0.000101043
0.000182412
9.08941e-05
0.000145911
7.57261e-05
0.00012455
7.40321e-05
0.00010234
4.63496e-05
1.60649e-05
6.02669e-05
0.000110252
4.03665e-05
2.10177e-05
1.58515e-05
9.85985e-05
1.31086e-05
7.65447e-05
2.40345e-05
3.03119e-05
0.000131851
6.55055e-05
0.000123638
5.87342e-05
9.05643e-05
1.32304e-05
1.51159e-05
1.70004e-05
1.26174e-05
1.21956e-05
1.15077e-05
1.69681e-05
1.53437e-05
1.35031e-05
1.35787e-05
1.35592e-05
1.22657e-05
1.61119e-05
1.31741e-05
1.2616e-05
1.5096e-05
1.23657e-05
1.52213e-05
0.000314629
0.000357812
0.000324936
0.000323809
0.000303023
0.00035724
0.00021963
0.000186374
0.000146145
0.000146248
0.000200698
0.000100299
9.85282e-05
0.000169421
0.000162803
0.000141803
7.72456e-05
4.21311e-05
0.000150194
6.2598e-05
0.000589225
0.000746423
0.000741992
0.000641544
0.000664732
0.000609594
0.000619189
0.000663212
0.000603845
0.000631437
0.000648768
0.000683848
0.000578094
0.00058404
0.000719535
0.000859346
0.000739132
0.000757191
0.000627657
0.000542186
0.00093169
0.00097159
0.000898375
0.000859314
0.000939259
0.000721221
0.000575361
0.000554542
0.000528717
0.000611742
0.00061204
0.000546335
0.000557863
0.000578413
0.000887886
0.000921609
0.000843035
0.000806185
0.000657423
0.000900455
0.000517104
0.000503332
0.000203114
0.000314191
0.000287165
0.000277323
0.000177016
0.000242144
0.000545906
0.000560729
0.000483082
0.000493704
0.000545476
0.000507028
0.000446216
0.000469163
5.11018e-05
8.35136e-05
0.000114184
9.57798e-05
1.90173e-05
3.40109e-05
0.000163809
0.000194567
0.000102047
8.56652e-05
6.37772e-05
0.000143736
0.00010495
4.42337e-05
0.000115065
0.000176298
0.000176029
0.000116232
8.88253e-05
0.000133576
0.000142867
0.000258374
0.000318163
0.0002828
0.000301286
0.000259151
0.000331916
0.000287336
0.000170196
0.000295592
0.000244507
8.50066e-05
0.00016599
0.000259931
0.000302808
0.000201728
0.000316896
0.000289821
0.000100348
0.00018474
0.000276802
0.000358268
0.000135913
0.00023683
0.000229138
9.0794e-05
0.000145277
0.000192959
0.000230488
7.32927e-05
9.55365e-05
8.4677e-05
3.83685e-05
5.18375e-05
9.00324e-05
6.40688e-05
)
;

boundaryField
{
    symmz
    {
        type            calculated;
    }
    tractionFree
    {
        type            calculated;
    }
    fixed
    {
        type            calculated;
    }
    front
    {
        type            calculated;
    }
    symmx
    {
        type            calculated;
    }
    loading
    {
        type            calculated;
    }
}


// ************************************************************************* //
