/*--------------------------------*- C++ -*----------------------------------*\
| =========                 |                                                 |
| \\      /  F ield         | OpenFOAM: The Open Source CFD Toolbox           |
|  \\    /   O peration     | Version:  v2012                                 |
|   \\  /    A nd           | Website:  www.openfoam.com                      |
|    \\/     M anipulation  |                                                 |
\*---------------------------------------------------------------------------*/
FoamFile
{
    version     2.0;
    format      ascii;
    class       pointVectorField;
    location    "1";
    object      pointD;
}
// * * * * * * * * * * * * * * * * * * * * * * * * * * * * * * * * * * * * * //

dimensions      [0 1 0 0 0 0 0];


internalField   nonuniform List<vector> 
970
(
(2.46016e-07 -1.81594e-05 0)
(0 -1.80972e-05 0)
(0 -1.71551e-05 0)
(0 0 0)
(0 0 0)
(-3.35408e-06 -1.38803e-05 0)
(-5.16459e-07 -1.70119e-05 0)
(-3.36812e-06 -1.3407e-05 0)
(-4.12099e-07 -1.70215e-05 0)
(-2.30106e-06 -1.38209e-05 0)
(-2.61157e-06 -1.4136e-05 0)
(-1.12097e-06 -1.58105e-05 0)
(-9.55288e-07 -1.54143e-05 0)
(-5.67722e-07 -1.6809e-05 0)
(-4.98952e-07 -1.67498e-05 0)
(-3.27835e-06 -5.96572e-06 0)
(3.44364e-06 -5.99706e-06 0)
(1.56568e-07 -1.7488e-05 0)
(0 -1.73735e-05 0)
(-6.63373e-07 -1.64159e-05 0)
(-7.75619e-07 -1.64037e-05 0)
(0 -1.71013e-05 0)
(-1.89476e-06 -1.46442e-05 0)
(-1.57711e-06 -1.48469e-05 0)
(2.85169e-06 -1.43277e-05 0)
(0 0 0)
(-3.26687e-06 -5.9333e-06 1.10884e-07)
(3.42017e-06 -5.97078e-06 -1.23737e-07)
(0 0 0)
(-3.30271e-06 -1.33988e-05 -1.22284e-07)
(-2.21464e-06 -1.38519e-05 -2.12034e-07)
(2.82519e-06 -1.43979e-05 2.12926e-07)
(-1.49191e-06 -1.49906e-05 -4.75207e-07)
(-1.22454e-06 -1.59226e-05 -6.47336e-07)
(0 -1.72225e-05 2.4668e-07)
(0 -1.71147e-05 -7.58194e-08)
(-8.66323e-07 -1.63389e-05 -3.97583e-07)
(0 -1.73694e-05 -7.58894e-08)
(-4.93181e-07 -1.66812e-05 -1.90684e-07)
(1.61015e-07 -1.74863e-05 -5.71752e-08)
(-3.75047e-07 -1.69737e-05 -9.8487e-08)
(0 -1.80956e-05 -5.9755e-08)
(2.45913e-07 -1.81596e-05 -6.35055e-08)
(-2.52966e-06 -1.41741e-05 -2.50999e-07)
(-3.29453e-06 -1.3878e-05 -1.50373e-07)
(-1.84806e-06 -1.48952e-05 -6.35351e-07)
(-1.21622e-06 -1.57016e-05 -8.91735e-07)
(-8.09204e-07 -1.6381e-05 -5.09752e-07)
(-5.67555e-07 -1.67462e-05 -2.13792e-07)
(-4.83728e-07 -1.69689e-05 -1.19215e-07)
(1.71667e-07 -1.81331e-05 0)
(8.88836e-08 -1.81094e-05 0)
(0 -1.78561e-05 0)
(0 -1.76134e-05 0)
(0 -1.71832e-05 0)
(0 -1.70694e-05 0)
(9.35113e-07 -1.68165e-05 0)
(1.85112e-06 -1.60028e-05 0)
(2.7364e-06 -3.51149e-06 0)
(1.68857e-06 -1.51297e-06 0)
(0 0 0)
(0 0 0)
(-1.53623e-06 -1.56214e-06 0)
(-2.61611e-06 -3.47609e-06 0)
(-3.54895e-06 -8.31926e-06 0)
(-3.56379e-06 -1.00635e-05 0)
(-3.50654e-06 -1.13265e-05 0)
(-3.4402e-06 -1.22434e-05 0)
(-3.39564e-06 -1.29144e-05 0)
(-3.25567e-07 -1.70395e-05 0)
(-2.24668e-07 -1.70702e-05 0)
(-1.19133e-07 -1.71304e-05 0)
(-2.11878e-08 -1.72083e-05 0)
(7.41537e-08 -1.73271e-05 0)
(2.00757e-07 -1.76977e-05 0)
(2.23382e-07 -1.7924e-05 0)
(9.07169e-08 -1.74201e-05 0)
(3.65849e-08 -1.73847e-05 0)
(-9.42796e-07 -5.90033e-06 0)
(1.12175e-06 -5.92116e-06 0)
(-2.0326e-06 -1.35005e-05 0)
(-1.72695e-06 -1.30849e-05 0)
(-1.3406e-06 -1.25442e-05 0)
(-8.29356e-07 -1.1827e-05 0)
(-1.63252e-07 -1.08829e-05 0)
(7.18814e-07 -9.62027e-06 0)
(1.91722e-06 -7.9996e-06 0)
(-1.06321e-06 -1.59815e-05 0)
(-8.76416e-07 -1.60936e-05 0)
(-6.34929e-07 -1.62393e-05 0)
(-3.66017e-07 -1.64397e-05 0)
(-4.7447e-08 -1.66799e-05 0)
(2.28565e-07 -1.69286e-05 0)
(3.2788e-07 -1.71232e-05 0)
(-4.45295e-07 -1.67431e-05 0)
(-3.83069e-07 -1.67731e-05 0)
(-3.13487e-07 -1.68255e-05 0)
(-2.35155e-07 -1.6897e-05 0)
(-1.45029e-07 -1.6988e-05 0)
(-7.04171e-08 -1.7099e-05 0)
(-1.36202e-08 -1.72215e-05 0)
(-2.97494e-06 -1.39453e-05 0)
(-2.00299e-06 -1.41293e-05 0)
(-1.77473e-06 -1.44824e-05 0)
(-1.01186e-06 -1.61021e-05 0)
(-8.98781e-07 -1.62642e-05 0)
(-5.27355e-07 -1.6921e-05 0)
(-2.99937e-06 -1.34527e-05 0)
(-2.63997e-06 -1.35934e-05 0)
(-2.25916e-06 -1.44135e-05 0)
(-7.85447e-07 -1.6033e-05 0)
(-4.46974e-07 -1.68544e-05 0)
(-4.19044e-07 -1.69423e-05 0)
(-7.63562e-07 -1.64228e-05 0)
(-7.12189e-07 -1.64976e-05 0)
(-5.96419e-07 -1.66349e-05 0)
(-4.44646e-07 -1.68174e-05 0)
(-2.59633e-07 -1.69798e-05 0)
(1.34789e-06 -1.45027e-05 0)
(3.45414e-07 -1.45997e-05 0)
(-3.21415e-07 -1.47264e-05 0)
(-8.31547e-07 -1.4815e-05 0)
(-1.24019e-06 -1.48506e-05 0)
(-1.47647e-06 -1.50433e-05 0)
(-6.35786e-07 -1.66443e-05 0)
(-1.40575e-06 -1.52147e-05 0)
(-1.30578e-06 -1.55385e-05 0)
(-6.75873e-07 -1.65266e-05 0)
(-5.81121e-07 -1.66337e-05 0)
(3.51354e-06 -1.18011e-05 0)
(3.71452e-06 -8.91347e-06 0)
(0 -1.72147e-05 0)
(0 -1.72469e-05 0)
(-1.61938e-06 -1.38286e-06 3.42145e-07)
(-2.61724e-06 -3.40777e-06 1.68138e-07)
(-9.02203e-07 -5.87428e-06 4.30592e-08)
(1.08696e-06 -5.89923e-06 -4.31659e-08)
(2.75101e-06 -3.43278e-06 -1.8355e-07)
(1.60097e-06 -1.51603e-06 -3.11342e-07)
(0 0 0)
(0 0 0)
(-3.51966e-06 -8.30252e-06 2.95713e-08)
(-3.53736e-06 -1.0056e-05 -7.83117e-09)
(-3.46974e-06 -1.13258e-05 -4.61167e-08)
(-3.38504e-06 -1.22383e-05 -7.47775e-08)
(-3.32918e-06 -1.29047e-05 -1.00404e-07)
(-2.92999e-06 -1.34524e-05 -1.39746e-07)
(-2.55915e-06 -1.36042e-05 -1.68675e-07)
(-1.95258e-06 -1.35282e-05 -1.75644e-07)
(-1.66174e-06 -1.31196e-05 -1.35743e-07)
(-1.28692e-06 -1.25763e-05 -8.78736e-08)
(-7.94988e-07 -1.18548e-05 -5.84395e-08)
(-1.59205e-07 -1.08955e-05 -1.23913e-08)
(7.04999e-07 -9.6219e-06 -6.53698e-09)
(1.88515e-06 -7.99006e-06 -4.84121e-08)
(-3.36506e-06 -1.34111e-05 -3.30698e-08)
(-3.35999e-06 -1.34135e-05 -5.87919e-08)
(-3.34776e-06 -1.34175e-05 -8.62336e-08)
(-3.34015e-06 -1.34191e-05 -1.05155e-07)
(-3.32478e-06 -1.34153e-05 -1.15463e-07)
(-2.29892e-06 -1.38248e-05 -3.89021e-08)
(-2.30075e-06 -1.383e-05 -7.79726e-08)
(-2.28732e-06 -1.3839e-05 -1.18563e-07)
(-2.2839e-06 -1.38483e-05 -1.57228e-07)
(-2.25883e-06 -1.38534e-05 -1.87434e-07)
(3.67842e-06 -8.91397e-06 -5.67633e-09)
(3.54661e-06 -1.18501e-05 7.92444e-08)
(1.32994e-06 -1.45691e-05 8.76406e-08)
(3.50696e-07 -1.46851e-05 -2.29977e-08)
(-3.08353e-07 -1.48088e-05 -1.37301e-07)
(-7.88808e-07 -1.49221e-05 -2.49159e-07)
(-1.17749e-06 -1.4975e-05 -3.5873e-07)
(-1.67014e-06 -1.45774e-05 -3.55778e-07)
(-1.90722e-06 -1.41806e-05 -2.73829e-07)
(-1.5737e-06 -1.484e-05 -7.73782e-08)
(-1.57278e-06 -1.48604e-05 -1.30214e-07)
(-1.57216e-06 -1.48705e-05 -2.03093e-07)
(-1.57834e-06 -1.48881e-05 -2.97211e-07)
(-1.57364e-06 -1.49141e-05 -3.59784e-07)
(-1.37213e-06 -1.53965e-05 -5.9259e-07)
(-1.35057e-06 -1.57021e-05 -6.56798e-07)
(-1.13969e-06 -1.607e-05 -4.71238e-07)
(-9.43654e-07 -1.61805e-05 -3.53055e-07)
(-6.90649e-07 -1.63243e-05 -2.31239e-07)
(-4.1326e-07 -1.65172e-05 -1.45198e-07)
(-8.02428e-08 -1.67495e-05 -2.67073e-08)
(2.19136e-07 -1.69979e-05 5.22097e-08)
(3.23157e-07 -1.71955e-05 1.48484e-07)
(9.27361e-07 -1.68887e-05 2.41513e-07)
(1.85346e-06 -1.60251e-05 1.77344e-07)
(-1.13704e-06 -1.58278e-05 -6.40081e-08)
(-1.12974e-06 -1.58223e-05 -1.55776e-07)
(-1.12247e-06 -1.58148e-05 -2.58639e-07)
(-1.14335e-06 -1.58461e-05 -3.87262e-07)
(-1.17876e-06 -1.58875e-05 -5.36938e-07)
(0 -1.73129e-05 8.61177e-08)
(0 -1.72446e-05 -4.34297e-08)
(-2.73742e-07 -1.69945e-05 -9.1427e-08)
(-4.72024e-07 -1.68299e-05 -1.23679e-07)
(-6.48571e-07 -1.66292e-05 -1.89462e-07)
(-7.78005e-07 -1.64678e-05 -2.6019e-07)
(-8.41762e-07 -1.63764e-05 -3.30562e-07)
(-1.03286e-06 -1.62224e-05 -5.18809e-07)
(-1.15271e-06 -1.61405e-05 -6.039e-07)
(-7.71924e-07 -1.64086e-05 -6.50819e-08)
(-7.79356e-07 -1.64105e-05 -1.20656e-07)
(-7.87591e-07 -1.64074e-05 -1.85639e-07)
(-7.94197e-07 -1.64194e-05 -2.63134e-07)
(-8.14114e-07 -1.64047e-05 -3.23853e-07)
(0 -1.70591e-05 -9.77845e-08)
(0 -1.71756e-05 -8.29244e-08)
(-1.27192e-08 -1.7216e-05 -8.46012e-08)
(-7.07142e-08 -1.70913e-05 -9.08791e-08)
(-1.49552e-07 -1.69777e-05 -9.53795e-08)
(-2.3576e-07 -1.68713e-05 -1.09708e-07)
(-3.17138e-07 -1.67885e-05 -1.25619e-07)
(-3.86499e-07 -1.67212e-05 -1.47714e-07)
(-4.40528e-07 -1.66796e-05 -1.69739e-07)
(-5.93533e-07 -1.65583e-05 -2.41593e-07)
(-7.21721e-07 -1.64496e-05 -3.04593e-07)
(-5.02359e-07 -1.67482e-05 -3.72356e-08)
(-5.05633e-07 -1.67503e-05 -7.37915e-08)
(-5.07923e-07 -1.6743e-05 -1.10183e-07)
(-5.09383e-07 -1.67405e-05 -1.42337e-07)
(-5.05332e-07 -1.67173e-05 -1.68009e-07)
(3.92172e-08 -1.73816e-05 -7.34211e-08)
(9.51974e-08 -1.74163e-05 -6.80879e-08)
(7.89267e-08 -1.73222e-05 -5.93994e-08)
(-1.26681e-08 -1.71934e-05 -6.32859e-08)
(-1.02233e-07 -1.71027e-05 -6.74515e-08)
(-1.96651e-07 -1.70309e-05 -7.20096e-08)
(-2.89421e-07 -1.69898e-05 -8.44508e-08)
(-3.89023e-07 -1.68911e-05 -1.19532e-07)
(-4.2605e-07 -1.6792e-05 -1.49623e-07)
(-4.14781e-07 -1.70184e-05 -2.7705e-08)
(-4.14956e-07 -1.70119e-05 -4.98322e-08)
(-4.13968e-07 -1.70024e-05 -7.15799e-08)
(-4.09166e-07 -1.69985e-05 -8.64282e-08)
(-3.97579e-07 -1.69888e-05 -9.43843e-08)
(0 -1.78532e-05 -6.37736e-08)
(0 -1.76107e-05 -6.92119e-08)
(2.01041e-07 -1.7698e-05 -6.16435e-08)
(2.23858e-07 -1.79249e-05 -6.22902e-08)
(1.70925e-07 -1.81328e-05 -6.24203e-08)
(8.93777e-08 -1.81067e-05 -6.1538e-08)
(-2.90322e-06 -1.39549e-05 -1.83585e-07)
(-2.59846e-06 -1.41368e-05 -4.67636e-08)
(-2.59672e-06 -1.41449e-05 -9.11257e-08)
(-2.59084e-06 -1.41569e-05 -1.39206e-07)
(-2.58511e-06 -1.41663e-05 -1.86248e-07)
(-2.57031e-06 -1.41794e-05 -2.23325e-07)
(-3.34867e-06 -1.38784e-05 -3.69403e-08)
(-3.34142e-06 -1.38822e-05 -7.62854e-08)
(-3.33324e-06 -1.3889e-05 -1.05181e-07)
(-3.32598e-06 -1.38919e-05 -1.28209e-07)
(-3.31329e-06 -1.38906e-05 -1.46248e-07)
(-2.15999e-06 -1.45121e-05 -3.91306e-07)
(-1.88381e-06 -1.47178e-05 -3.68904e-08)
(-1.88715e-06 -1.47414e-05 -1.47507e-07)
(-1.89439e-06 -1.4756e-05 -2.33547e-07)
(-1.92078e-06 -1.48333e-05 -3.0072e-07)
(-1.89704e-06 -1.48379e-05 -4.86713e-07)
(-1.55957e-06 -1.5376e-05 -8.55487e-07)
(-1.0522e-06 -1.55153e-05 -9.47487e-08)
(-1.07044e-06 -1.5543e-05 -1.6175e-07)
(-1.08247e-06 -1.55471e-05 -2.96414e-07)
(-1.10656e-06 -1.55854e-05 -4.67692e-07)
(-1.14935e-06 -1.56352e-05 -6.18939e-07)
(-1.0534e-06 -1.61078e-05 -7.62159e-07)
(-7.00058e-07 -1.64025e-05 -3.64951e-08)
(-7.1596e-07 -1.64071e-05 -1.26933e-07)
(-7.26411e-07 -1.64187e-05 -2.05646e-07)
(-7.57576e-07 -1.64179e-05 -2.7614e-07)
(-7.70546e-07 -1.64241e-05 -4.10966e-07)
(-6.81339e-07 -1.65728e-05 -3.23111e-07)
(-5.68311e-07 -1.6798e-05 -4.24118e-08)
(-5.73432e-07 -1.67979e-05 -8.23816e-08)
(-5.77595e-07 -1.67973e-05 -1.21356e-07)
(-5.79216e-07 -1.67876e-05 -1.5893e-07)
(-5.83376e-07 -1.67786e-05 -1.93334e-07)
(-5.046e-07 -1.68678e-05 -1.52881e-07)
(-5.14936e-07 -1.70081e-05 -3.10663e-08)
(-5.15388e-07 -1.70018e-05 -6.34705e-08)
(-5.16203e-07 -1.69952e-05 -8.56226e-08)
(-5.12729e-07 -1.69911e-05 -1.02958e-07)
(-5.03588e-07 -1.69827e-05 -1.16883e-07)
(5.60506e-08 -2.00135e-06 0)
(1.15825e-06 -3.54263e-06 0)
(-1.15755e-06 -3.69069e-06 0)
(4.19236e-07 -6.9851e-07 0)
(-4.39605e-07 -8.97414e-07 0)
(-4.65533e-09 -5.0409e-07 0)
(-1.31657e-06 -2.23994e-06 0)
(7.71156e-08 -4.49354e-06 0)
(1.38545e-06 -2.25373e-06 0)
(-2.62437e-06 -1.27489e-05 0)
(-2.10459e-06 -1.09437e-05 0)
(-1.18375e-06 -8.43853e-06 0)
(-2.60827e-06 -1.16621e-05 0)
(-2.11011e-06 -1.24437e-05 0)
(-1.13527e-06 -1.05565e-05 0)
(-2.29387e-06 -9.59259e-06 0)
(1.7793e-07 -7.87743e-06 0)
(-2.70911e-06 -1.31674e-05 0)
(-2.19383e-06 -7.24402e-06 0)
(-1.67683e-06 -1.17834e-05 0)
(-3.17938e-07 -9.47301e-06 0)
(-2.88339e-06 -1.07062e-05 0)
(-2.22803e-06 -1.30435e-05 0)
(-3.05244e-06 -1.26361e-05 0)
(-2.38239e-06 -1.34237e-05 0)
(-3.02223e-06 -1.30489e-05 0)
(-2.73464e-06 -1.23176e-05 0)
(-1.30631e-06 -1.40418e-05 0)
(-1.50823e-07 -1.32888e-05 0)
(1.47145e-06 -1.21558e-05 0)
(-5.77885e-07 -1.39139e-05 0)
(-1.16525e-06 -1.34548e-05 0)
(1.00891e-07 -1.21388e-05 0)
(6.78064e-07 -1.33882e-05 0)
(2.02941e-06 -1.03089e-05 0)
(-1.61026e-06 -1.4168e-05 0)
(2.23347e-06 -1.3249e-05 0)
(-7.35559e-07 -1.28809e-05 0)
(8.26998e-07 -1.10512e-05 0)
(1.34294e-08 -1.4068e-05 0)
(-1.60793e-06 -1.36506e-05 0)
(-1.13908e-06 -1.44771e-05 0)
(-1.89998e-06 -1.38527e-05 0)
(-1.44036e-06 -1.44844e-05 0)
(-9.82011e-07 -1.41148e-05 0)
(-9.54211e-07 -1.55294e-05 0)
(-9.58941e-08 -1.57159e-05 0)
(8.94563e-07 -1.61155e-05 0)
(-4.37868e-07 -1.54633e-05 0)
(-7.2951e-07 -1.58511e-05 0)
(5.53608e-08 -1.62472e-05 0)
(5.0588e-07 -1.54899e-05 0)
(7.4941e-07 -1.6669e-05 0)
(-1.173e-06 -1.54891e-05 0)
(1.70498e-06 -1.53431e-05 0)
(-4.2194e-07 -1.60318e-05 0)
(3.88789e-07 -1.65716e-05 0)
(8.80664e-09 -1.5164e-05 0)
(-9.94122e-07 -1.58296e-05 0)
(-9.92339e-07 -1.51643e-05 0)
(-1.17306e-06 -1.57541e-05 0)
(-1.22089e-06 -1.52139e-05 0)
(-7.72281e-07 -1.54124e-05 0)
(-8.86273e-07 -1.63067e-05 0)
(-5.25942e-07 -1.66766e-05 0)
(-1.48232e-07 -1.70729e-05 0)
(-7.04928e-07 -1.65345e-05 0)
(-8.15038e-07 -1.6329e-05 0)
(-3.26857e-07 -1.67604e-05 0)
(-3.62961e-07 -1.6883e-05 0)
(2.44944e-08 -1.71427e-05 0)
(-9.54253e-07 -1.62403e-05 0)
(-1.01585e-07 -1.7107e-05 0)
(-5.95926e-07 -1.64829e-05 0)
(-6.48306e-08 -1.6954e-05 0)
(-5.40566e-07 -1.67139e-05 0)
(-9.62066e-07 -1.61856e-05 0)
(-8.12707e-07 -1.63925e-05 0)
(-1.04213e-06 -1.61026e-05 0)
(-8.68923e-07 -1.63265e-05 0)
(-7.99295e-07 -1.6418e-05 0)
(-5.72199e-07 -1.65952e-05 0)
(-3.87247e-07 -1.67883e-05 0)
(-1.60919e-07 -1.69916e-05 0)
(-5.08722e-07 -1.66719e-05 0)
(-4.5616e-07 -1.66935e-05 0)
(-2.60239e-07 -1.68892e-05 0)
(-3.1788e-07 -1.68845e-05 0)
(-6.57544e-08 -1.70852e-05 0)
(-5.98728e-07 -1.6577e-05 0)
(-1.19594e-07 -1.70282e-05 0)
(-3.63356e-07 -1.67816e-05 0)
(-1.39007e-07 -1.70062e-05 0)
(-4.67047e-07 -1.67512e-05 0)
(-4.86941e-07 -1.66739e-05 0)
(-6.66436e-07 -1.65167e-05 0)
(-5.20951e-07 -1.66663e-05 0)
(-6.76229e-07 -1.65047e-05 0)
(-5.77409e-07 -1.6598e-05 0)
(-3.06776e-07 -1.69249e-05 0)
(-1.16723e-07 -1.70382e-05 0)
(1.40908e-08 -1.72136e-05 0)
(-1.73086e-07 -1.70112e-05 0)
(-2.76618e-07 -1.68888e-05 0)
(-1.11877e-07 -1.70317e-05 0)
(-2.15254e-08 -1.71669e-05 0)
(1.47865e-09 -1.7235e-05 0)
(-3.70082e-07 -1.69026e-05 0)
(8.55118e-08 -1.73499e-05 0)
(-2.10478e-07 -1.693e-05 0)
(-5.98592e-08 -1.71061e-05 0)
(-7.8132e-08 -1.71149e-05 0)
(-3.61347e-07 -1.68334e-05 0)
(-2.84629e-07 -1.69991e-05 0)
(-4.21741e-07 -1.68169e-05 0)
(-3.47244e-07 -1.6969e-05 0)
(-2.46759e-07 -1.69775e-05 0)
(1.07688e-07 -1.77584e-05 0)
(1.43587e-07 -1.76111e-05 0)
(1.64124e-07 -1.79274e-05 0)
(6.83405e-08 -1.78937e-05 0)
(4.6036e-08 -1.75582e-05 0)
(3.70727e-08 -1.77376e-05 0)
(1.21539e-07 -1.79835e-05 0)
(1.77095e-07 -1.77932e-05 0)
(8.55222e-08 -1.75292e-05 0)
(-2.67948e-06 -1.38609e-05 0)
(-3.06702e-06 -1.36911e-05 0)
(-2.26634e-06 -1.41823e-05 0)
(-1.95674e-06 -1.45306e-05 0)
(-1.2924e-06 -1.54588e-05 0)
(-1.55869e-06 -1.51017e-05 0)
(-9.97265e-07 -1.59253e-05 0)
(-8.61059e-07 -1.62538e-05 0)
(-5.85995e-07 -1.66897e-05 0)
(-6.80397e-07 -1.65388e-05 0)
(-5.04889e-07 -1.68443e-05 0)
(-4.69915e-07 -1.695e-05 0)
(-2.97136e-06 -4.64679e-06 6.42666e-08)
(-2.1769e-06 -2.33789e-06 9.66343e-08)
(-7.92601e-07 -7.02996e-07 7.68958e-08)
(2.25016e-06 -5.94065e-06 -4.19418e-08)
(8.8661e-08 -5.87142e-06 1.94388e-09)
(-2.08666e-06 -5.8994e-06 3.37498e-08)
(8.20804e-07 -7.20719e-07 -7.43771e-08)
(2.28322e-06 -2.37435e-06 -9.75158e-08)
(3.11152e-06 -4.68424e-06 -7.21657e-08)
(0 0 0)
(0 0 0)
(0 0 0)
(3.59966e-08 -1.95106e-06 -2.23266e-09)
(-3.88847e-07 -6.45703e-07 1.58504e-07)
(-1.2826e-06 -3.81416e-06 7.68686e-08)
(1.1319e-06 -3.51679e-06 -8.31066e-08)
(4.79941e-07 -8.43808e-07 -1.83699e-07)
(2.9341e-08 -3.87869e-07 -1.75712e-08)
(1.16394e-06 -2.18925e-06 -9.33842e-08)
(5.96282e-08 -4.43819e-06 -6.79909e-09)
(-1.2359e-06 -2.19825e-06 8.26033e-08)
(-3.42926e-06 -1.20802e-05 -3.86733e-08)
(-3.3681e-06 -1.27482e-05 -7.55276e-08)
(-3.40063e-06 -1.27484e-05 -3.18154e-08)
(-3.51405e-06 -1.05066e-05 -7.55688e-09)
(-3.39632e-06 -1.26866e-05 -5.40087e-08)
(-3.51883e-06 -9.20113e-06 3.77258e-09)
(-3.41506e-06 -1.21098e-05 -5.19712e-08)
(-3.44576e-06 -1.21084e-05 -2.09347e-08)
(-3.4724e-06 -1.13474e-05 -2.98708e-08)
(-3.48149e-06 -1.13952e-05 -1.81221e-08)
(-3.45651e-06 -7.30357e-06 3.39121e-08)
(-3.36068e-06 -1.30727e-05 -7.79249e-08)
(-3.37204e-06 -1.30719e-05 -6.154e-08)
(-3.34263e-06 -1.30196e-05 -9.68588e-08)
(-3.38516e-06 -1.30183e-05 -2.21e-08)
(-3.36451e-06 -1.26269e-05 -8.07258e-08)
(-3.41455e-06 -1.26311e-05 -1.34815e-08)
(-3.51684e-06 -1.04365e-05 -6.22591e-09)
(-3.40052e-06 -1.24147e-05 -5.37873e-08)
(-3.41958e-06 -1.24207e-05 -3.81201e-08)
(-3.51043e-06 -1.08053e-05 -7.52946e-09)
(-2.81658e-06 -1.35136e-05 -3.49242e-08)
(-2.76927e-06 -1.3528e-05 -1.37361e-07)
(-2.8023e-06 -1.35214e-05 -8.05337e-08)
(-2.80419e-06 -1.35215e-05 -1.09703e-07)
(-3.00308e-06 -1.34556e-05 -5.04537e-08)
(-2.62136e-06 -1.36024e-05 -5.43594e-08)
(-2.57311e-06 -1.36332e-05 -1.3733e-07)
(-3.00268e-06 -1.34613e-05 -1.17305e-07)
(-3.02553e-06 -1.34441e-05 -1.27804e-07)
(-2.52248e-06 -1.36482e-05 -1.59476e-07)
(-3.05046e-06 -1.34391e-05 -2.45493e-08)
(-2.58174e-06 -1.36237e-05 -2.58745e-08)
(-2.60095e-06 -1.36202e-05 -1.03706e-07)
(-3.00227e-06 -1.34577e-05 -9.1803e-08)
(-2.81474e-06 -1.3511e-05 -1.64569e-08)
(-2.75654e-06 -1.35238e-05 -1.44874e-07)
(-1.54478e-06 -1.28603e-05 -5.99769e-08)
(-1.82368e-06 -1.32386e-05 -4.2946e-08)
(-1.80664e-06 -1.32608e-05 -1.19528e-07)
(-9.43253e-07 -1.19974e-05 -2.81326e-08)
(-1.94929e-06 -1.34185e-05 -9.15523e-08)
(-1.98437e-07 -1.09494e-05 -1.00371e-08)
(-1.55094e-06 -1.28429e-05 -2.61729e-08)
(-1.51382e-06 -1.28581e-05 -8.90366e-08)
(-1.05462e-06 -1.22013e-05 -5.38703e-08)
(-1.07806e-06 -1.21862e-05 -1.75112e-08)
(1.29447e-06 -8.80026e-06 -1.38913e-08)
(4.33615e-07 -1.00045e-05 -6.35457e-09)
(-2.06611e-06 -1.35467e-05 -3.3918e-08)
(-2.02324e-06 -1.35704e-05 -1.54666e-07)
(2.70949e-06 -6.98486e-06 -3.78622e-08)
(-2.05761e-06 -1.35461e-05 -6.86677e-08)
(-2.04068e-06 -1.3558e-05 -1.27423e-07)
(-5.97307e-07 -1.15254e-05 -2.83701e-08)
(-6.06318e-07 -1.15151e-05 -8.88905e-09)
(-1.25372e-06 -1.24558e-05 -4.38275e-08)
(-1.79999e-06 -1.32838e-05 -1.38275e-07)
(-1.84401e-06 -1.32549e-05 -2.04221e-08)
(-1.75658e-06 -1.31713e-05 -8.7839e-08)
(-1.76385e-06 -1.31632e-05 -6.55329e-08)
(-2.55622e-06 -1.27513e-05 -1.10525e-07)
(-2.06842e-06 -1.09418e-05 -3.72042e-08)
(-1.17369e-06 -8.42756e-06 6.95608e-09)
(-2.57091e-06 -1.16672e-05 -6.43047e-08)
(-2.05801e-06 -1.24587e-05 -9.3701e-08)
(-1.1155e-06 -1.05574e-05 -1.19177e-08)
(-2.27673e-06 -9.5847e-06 -6.62941e-09)
(1.79877e-07 -7.86854e-06 -5.90557e-09)
(-2.63571e-06 -1.31748e-05 -1.33172e-07)
(-2.17614e-06 -7.22491e-06 4.21125e-08)
(-1.63122e-06 -1.18002e-05 -6.51694e-08)
(-3.08526e-07 -9.46545e-06 -6.95834e-09)
(-2.8475e-06 -1.0705e-05 -2.81456e-08)
(-2.15755e-06 -1.30585e-05 -1.35522e-07)
(-2.99011e-06 -1.26339e-05 -9.52217e-08)
(-2.30588e-06 -1.34388e-05 -1.57793e-07)
(-2.95486e-06 -1.30462e-05 -1.15473e-07)
(-2.68029e-06 -1.23242e-05 -8.82844e-08)
(3.63592e-06 -7.45679e-06 -3.39012e-08)
(3.27997e-06 -1.31607e-05 5.35187e-08)
(3.66699e-06 -1.03847e-05 2.54239e-08)
(-7.46102e-07 -1.48133e-05 -1.19034e-07)
(-1.12079e-06 -1.48852e-05 -2.43227e-07)
(-1.1344e-06 -1.48539e-05 -8.65084e-08)
(1.2496e-07 -1.46874e-05 -2.98127e-08)
(-1.10053e-06 -1.48564e-05 -1.59521e-07)
(8.38785e-07 -1.46409e-05 2.15852e-08)
(-7.44011e-07 -1.48519e-05 -1.81637e-07)
(-7.5423e-07 -1.48103e-05 -5.65335e-08)
(-3.27211e-07 -1.47746e-05 -9.78279e-08)
(-3.56272e-07 -1.4757e-05 -6.18618e-08)
(1.94916e-06 -1.44776e-05 6.75076e-08)
(-1.34257e-06 -1.48928e-05 -2.13265e-07)
(-1.34039e-06 -1.48936e-05 -1.58062e-07)
(-1.2932e-06 -1.49211e-05 -3.27196e-07)
(-1.31155e-06 -1.4867e-05 -4.98793e-08)
(-1.0376e-06 -1.49158e-05 -2.80683e-07)
(-1.06435e-06 -1.48444e-05 -2.96694e-08)
(1.57749e-07 -1.47095e-05 -3.66654e-08)
(-9.29857e-07 -1.48574e-05 -1.77112e-07)
(-9.28266e-07 -1.48419e-05 -1.05706e-07)
(-4.10551e-08 -1.47025e-05 -2.28281e-08)
(-1.88251e-06 -1.42981e-05 -5.24424e-08)
(-1.85015e-06 -1.43401e-05 -2.57597e-07)
(-1.86646e-06 -1.43112e-05 -1.28916e-07)
(-1.85762e-06 -1.43461e-05 -1.90113e-07)
(-2.01072e-06 -1.4124e-05 -7.40119e-08)
(-1.74726e-06 -1.45113e-05 -8.79149e-08)
(-2.01133e-06 -1.4133e-05 -2.00102e-07)
(-1.7179e-06 -1.45608e-05 -2.75373e-07)
(-2.03771e-06 -1.40828e-05 -3.43131e-08)
(-1.74539e-06 -1.45443e-05 -4.04613e-08)
(-1.69686e-06 -1.46305e-05 -3.31597e-07)
(-2.00062e-06 -1.41179e-05 -2.36885e-07)
(-1.995e-06 -1.41344e-05 -1.47952e-07)
(-1.75475e-06 -1.4529e-05 -1.79714e-07)
(-1.82379e-06 -1.43607e-05 -2.85449e-07)
(-1.88408e-06 -1.42973e-05 -2.53021e-08)
(-1.22845e-06 -1.4113e-05 -2.14184e-07)
(-1.22369e-07 -1.33532e-05 -6.41709e-08)
(1.47425e-06 -1.21881e-05 4.08187e-08)
(-5.34085e-07 -1.39846e-05 -1.24391e-07)
(-1.0962e-06 -1.35115e-05 -1.53004e-07)
(9.66329e-08 -1.2174e-05 -1.78422e-08)
(6.79153e-07 -1.34393e-05 7.2962e-09)
(1.99345e-06 -1.03248e-05 1.2726e-08)
(-1.52835e-06 -1.42355e-05 -2.5734e-07)
(2.20623e-06 -1.32871e-05 8.77191e-08)
(-6.9414e-07 -1.29273e-05 -8.29376e-08)
(8.05758e-07 -1.10677e-05 8.45944e-09)
(2.34173e-08 -1.4142e-05 -7.41219e-08)
(-1.5304e-06 -1.3698e-05 -1.90344e-07)
(-1.07606e-06 -1.45639e-05 -2.63848e-07)
(-1.81577e-06 -1.39014e-05 -2.24143e-07)
(-1.35123e-06 -1.45824e-05 -3.11544e-07)
(-9.2702e-07 -1.41884e-05 -1.88016e-07)
(-1.35393e-06 -1.53822e-05 -5.82625e-08)
(-1.36209e-06 -1.54701e-05 -4.84745e-07)
(-1.37772e-06 -1.54105e-05 -1.90835e-07)
(-1.38388e-06 -1.5426e-05 -3.11297e-07)
(-1.45164e-06 -1.52227e-05 -1.16214e-07)
(-1.28538e-06 -1.5581e-05 -1.10089e-07)
(-1.29107e-06 -1.56305e-05 -4.07526e-07)
(-1.48625e-06 -1.52227e-05 -3.77145e-07)
(-1.43668e-06 -1.52351e-05 -4.78387e-07)
(-1.29533e-06 -1.56957e-05 -5.32476e-07)
(-1.42745e-06 -1.51751e-05 -5.85249e-08)
(-1.29265e-06 -1.56252e-05 -5.01584e-08)
(-1.30252e-06 -1.55927e-05 -2.60689e-07)
(-1.43957e-06 -1.52268e-05 -2.32903e-07)
(-1.35019e-06 -1.53889e-05 -3.63997e-08)
(-1.35989e-06 -1.5495e-05 -5.59345e-07)
(-7.83572e-07 -1.6179e-05 -1.51081e-07)
(-9.5889e-07 -1.60651e-05 -1.0232e-07)
(-9.74758e-07 -1.6093e-05 -2.96971e-07)
(-4.25703e-07 -1.6416e-05 -7.8939e-08)
(-1.05512e-06 -1.60205e-05 -2.239e-07)
(-1.1358e-07 -1.67095e-05 -1.6289e-08)
(-7.66443e-07 -1.6164e-05 -6.32035e-08)
(-7.88613e-07 -1.61986e-05 -2.3422e-07)
(-5.26451e-07 -1.63916e-05 -1.44799e-07)
(-5.04767e-07 -1.63553e-05 -4.79746e-08)
(2.8492e-07 -1.70946e-05 4.69535e-08)
(1.29432e-07 -1.69024e-05 1.76111e-08)
(-1.0894e-06 -1.59767e-05 -7.66591e-08)
(-1.11995e-06 -1.60258e-05 -4.18518e-07)
(2.37778e-07 -1.7166e-05 9.90623e-08)
(-1.09354e-06 -1.59894e-05 -1.56294e-07)
(-1.09965e-06 -1.60035e-05 -3.11714e-07)
(-2.83737e-07 -1.65636e-05 -7.00151e-08)
(-2.67591e-07 -1.65376e-05 -2.57979e-08)
(-6.15807e-07 -1.62933e-05 -1.14946e-07)
(-9.67579e-07 -1.60605e-05 -5.06198e-08)
(-1.00643e-06 -1.61157e-05 -3.56875e-07)
(-9.25376e-07 -1.60982e-05 -2.21927e-07)
(-9.09245e-07 -1.60801e-05 -1.57561e-07)
(2.30314e-06 -1.52773e-05 1.06755e-07)
(4.89107e-07 -1.7042e-05 1.24672e-07)
(1.41206e-06 -1.65313e-05 1.03076e-07)
(-9.62377e-07 -1.56479e-05 -3.68934e-07)
(-1.23964e-07 -1.58227e-05 -1.00842e-07)
(9.02546e-07 -1.61961e-05 9.31349e-08)
(-4.46539e-07 -1.55482e-05 -1.98155e-07)
(-7.65184e-07 -1.5951e-05 -2.98348e-07)
(-5.36304e-09 -1.63203e-05 -1.40415e-08)
(5.17915e-07 -1.55596e-05 2.54008e-08)
(7.54808e-07 -1.67441e-05 1.03213e-07)
(-1.19261e-06 -1.56006e-05 -4.77309e-07)
(1.68676e-06 -1.54109e-05 1.35671e-07)
(-4.56535e-07 -1.61315e-05 -1.78459e-07)
(3.53015e-07 -1.66591e-05 3.35562e-08)
(1.13926e-08 -1.52617e-05 -8.8826e-08)
(-1.03144e-06 -1.59355e-05 -4.16208e-07)
(-9.69149e-07 -1.52822e-05 -3.38984e-07)
(-1.20713e-06 -1.58529e-05 -5.19395e-07)
(-1.19283e-06 -1.53449e-05 -4.3819e-07)
(-7.77086e-07 -1.55096e-05 -2.88424e-07)
(0 -1.72442e-05 8.51256e-08)
(0 -1.72933e-05 2.17678e-09)
(0 -1.71797e-05 -2.6335e-08)
(-6.96829e-07 -1.65282e-05 -1.29439e-07)
(-7.53114e-07 -1.64436e-05 -8.05407e-08)
(-7.75123e-07 -1.64349e-05 -2.34008e-07)
(-5.07212e-07 -1.67624e-05 -8.1004e-08)
(-7.51105e-07 -1.64572e-05 -1.55004e-07)
(-3.76448e-07 -1.68955e-05 -5.22152e-08)
(-7.23029e-07 -1.65118e-05 -1.95011e-07)
(-6.96678e-07 -1.65193e-05 -6.27569e-08)
(-6.12843e-07 -1.66234e-05 -7.65854e-08)
(-6.31232e-07 -1.66162e-05 -1.31825e-07)
(-1.5602e-07 -1.70515e-05 -4.24357e-08)
(-7.86841e-07 -1.64273e-05 -1.96295e-07)
(-7.85509e-07 -1.6421e-05 -1.49328e-07)
(-8.10607e-07 -1.64092e-05 -2.94385e-07)
(-7.73108e-07 -1.64186e-05 -4.66467e-08)
(-7.90784e-07 -1.6437e-05 -2.71787e-07)
(-7.41211e-07 -1.64587e-05 -3.12629e-08)
(-5.03062e-07 -1.67647e-05 -4.3606e-08)
(-7.42595e-07 -1.64753e-05 -1.81011e-07)
(-7.32047e-07 -1.64789e-05 -1.04342e-07)
(-5.68413e-07 -1.67127e-05 -1.3429e-07)
(-9.47204e-07 -1.61815e-05 -6.19189e-08)
(-1.01847e-06 -1.62038e-05 -4.42066e-07)
(-9.69207e-07 -1.62051e-05 -1.77546e-07)
(-9.83239e-07 -1.62165e-05 -2.94318e-07)
(-1.04355e-06 -1.60859e-05 -1.0812e-07)
(-8.9901e-07 -1.62917e-05 -1.05058e-07)
(-1.06582e-06 -1.60959e-05 -3.87571e-07)
(-9.01423e-07 -1.63266e-05 -3.41161e-07)
(-1.06556e-06 -1.60761e-05 -5.13834e-08)
(-8.91125e-07 -1.62834e-05 -4.54247e-08)
(-9.31192e-07 -1.6296e-05 -4.18226e-07)
(-1.11026e-06 -1.60946e-05 -4.99774e-07)
(-1.04458e-06 -1.60966e-05 -2.50343e-07)
(-9.07451e-07 -1.62915e-05 -2.1613e-07)
(-1.03814e-06 -1.61976e-05 -5.02198e-07)
(-9.58868e-07 -1.61833e-05 -3.91178e-08)
(-9.72677e-07 -1.63207e-05 -3.59618e-07)
(-5.79179e-07 -1.67118e-05 -1.53367e-07)
(-1.75264e-07 -1.71103e-05 -4.70665e-08)
(-7.47034e-07 -1.65577e-05 -2.28926e-07)
(-8.83214e-07 -1.63765e-05 -3.03972e-07)
(-3.47484e-07 -1.68097e-05 -7.66097e-08)
(-3.87404e-07 -1.69097e-05 -8.7434e-08)
(3.24908e-08 -1.72038e-05 1.27807e-08)
(-1.03535e-06 -1.62564e-05 -4.44071e-07)
(-1.19144e-07 -1.71316e-05 -5.36461e-08)
(-6.52777e-07 -1.65391e-05 -1.97437e-07)
(-8.37697e-08 -1.70143e-05 -2.4679e-08)
(-5.7207e-07 -1.67312e-05 -1.5285e-07)
(-1.04461e-06 -1.62296e-05 -4.06686e-07)
(-8.87093e-07 -1.6381e-05 -3.27725e-07)
(-1.11986e-06 -1.61441e-05 -4.96352e-07)
(-9.59784e-07 -1.63087e-05 -3.96858e-07)
(-8.61999e-07 -1.64314e-05 -2.94485e-07)
(0 -1.72711e-05 -3.9534e-08)
(0 -1.70543e-05 -4.72703e-08)
(0 -1.71027e-05 -4.58252e-08)
(-3.58996e-07 -1.6786e-05 -7.19472e-08)
(-4.0517e-07 -1.67516e-05 -4.65876e-08)
(-4.08165e-07 -1.67309e-05 -1.18745e-07)
(-2.5652e-07 -1.68807e-05 -5.57388e-08)
(-4.4023e-07 -1.6735e-05 -9.20318e-08)
(-1.50094e-07 -1.69713e-05 -4.94649e-08)
(-3.57679e-07 -1.67747e-05 -1.05302e-07)
(-3.53968e-07 -1.67966e-05 -3.37407e-08)
(-2.7363e-07 -1.68571e-05 -2.94518e-08)
(-2.74531e-07 -1.68409e-05 -8.81035e-08)
(-3.95889e-08 -1.71568e-05 -4.40245e-08)
(-9.33885e-08 -1.70616e-05 -4.68955e-08)
(-4.53858e-07 -1.67083e-05 -1.48664e-07)
(-4.53395e-07 -1.67409e-05 -3.39957e-08)
(1.86148e-10 -1.72969e-05 -3.96801e-08)
(-4.566e-07 -1.67244e-05 -1.21976e-07)
(-4.53327e-07 -1.67369e-05 -6.92838e-08)
(-2.05222e-07 -1.69266e-05 -3.20334e-08)
(-2.05745e-07 -1.6919e-05 -7.13966e-08)
(-3.02309e-07 -1.68214e-05 -6.24057e-08)
(-4.06277e-07 -1.67548e-05 -2.19348e-08)
(-4.09612e-07 -1.67151e-05 -1.40649e-07)
(-3.98894e-07 -1.67625e-05 -6.91551e-08)
(-3.98431e-07 -1.67497e-05 -9.36001e-08)
(-6.28275e-07 -1.65815e-05 -5.13692e-08)
(-6.49085e-07 -1.6559e-05 -2.3487e-07)
(-6.39906e-07 -1.65715e-05 -1.23465e-07)
(-6.35989e-07 -1.65741e-05 -1.78903e-07)
(-6.93383e-07 -1.6512e-05 -8.56253e-08)
(-5.81728e-07 -1.66379e-05 -7.17297e-08)
(-7.16482e-07 -1.64986e-05 -2.34474e-07)
(-5.84772e-07 -1.66389e-05 -1.86834e-07)
(-6.95591e-07 -1.65112e-05 -4.04733e-08)
(-5.69895e-07 -1.66468e-05 -3.27084e-08)
(-5.73292e-07 -1.66223e-05 -2.06919e-07)
(-7.28948e-07 -1.64812e-05 -2.80364e-07)
(-7.02815e-07 -1.65105e-05 -1.69536e-07)
(-5.84315e-07 -1.66371e-05 -1.38104e-07)
(-6.23921e-07 -1.65825e-05 -2.3474e-08)
(-6.52965e-07 -1.65329e-05 -2.54109e-07)
(-6.0527e-07 -1.65292e-05 -2.22628e-07)
(-4.12179e-07 -1.67618e-05 -1.40947e-07)
(-1.63541e-07 -1.69953e-05 -1.01383e-07)
(-5.43312e-07 -1.66398e-05 -1.69215e-07)
(-4.75524e-07 -1.66442e-05 -1.70839e-07)
(-2.67357e-07 -1.68749e-05 -1.14372e-07)
(-3.2917e-07 -1.68844e-05 -1.11439e-07)
(-7.35897e-08 -1.70774e-05 -9.64388e-08)
(-6.29088e-07 -1.65142e-05 -2.45554e-07)
(-1.27371e-07 -1.70278e-05 -9.97253e-08)
(-3.76015e-07 -1.67494e-05 -1.35245e-07)
(-1.56668e-07 -1.69967e-05 -1.00521e-07)
(-4.99915e-07 -1.67433e-05 -1.54539e-07)
(-4.98673e-07 -1.66123e-05 -1.92751e-07)
(-7.15392e-07 -1.64677e-05 -2.65933e-07)
(-5.26059e-07 -1.65995e-05 -2.08026e-07)
(-7.22492e-07 -1.64448e-05 -2.8073e-07)
(-6.14021e-07 -1.6556e-05 -2.06937e-07)
(1.27905e-07 -1.74536e-05 -3.11463e-08)
(1.77138e-08 -1.73759e-05 -3.75545e-08)
(6.28195e-08 -1.73961e-05 -3.55762e-08)
(-2.00222e-07 -1.70661e-05 -3.95299e-08)
(-2.9965e-07 -1.70401e-05 -2.89742e-08)
(-2.86201e-07 -1.70166e-05 -6.73061e-08)
(-4.93656e-08 -1.71624e-05 -3.55354e-08)
(-2.89578e-07 -1.70363e-05 -4.9842e-08)
(3.57213e-08 -1.72575e-05 -2.73495e-08)
(-1.94222e-07 -1.70517e-05 -5.33777e-08)
(-2.06432e-07 -1.70772e-05 -2.04132e-08)
(-1.16281e-07 -1.71181e-05 -2.48135e-08)
(-1.16362e-07 -1.70989e-05 -4.5239e-08)
(1.1436e-07 -1.73938e-05 -2.91935e-08)
(-3.49074e-07 -1.70092e-05 -6.72614e-08)
(-3.51454e-07 -1.70157e-05 -5.41626e-08)
(-3.22549e-07 -1.70001e-05 -8.11766e-08)
(-3.42749e-07 -1.70309e-05 -1.91836e-08)
(-2.83519e-07 -1.70529e-05 -1.16866e-08)
(-2.59239e-07 -1.70149e-05 -7.18618e-08)
(-4.52206e-08 -1.71793e-05 -1.76914e-08)
(-2.39759e-07 -1.70427e-05 -5.31807e-08)
(-2.46452e-07 -1.70536e-05 -3.78864e-08)
(-6.85408e-08 -1.7139e-05 -5.42131e-08)
(-4.24081e-07 -1.68638e-05 -1.20573e-07)
(-4.30579e-07 -1.68996e-05 -3.13331e-08)
(-4.30674e-07 -1.68918e-05 -6.89764e-08)
(-4.29087e-07 -1.68851e-05 -9.89231e-08)
(-4.51509e-07 -1.68433e-05 -4.95071e-08)
(-4.18933e-07 -1.69421e-05 -4.3485e-08)
(-4.54462e-07 -1.68207e-05 -1.23499e-07)
(-4.13687e-07 -1.69294e-05 -1.01345e-07)
(-3.98963e-07 -1.69237e-05 -1.08776e-07)
(-4.49248e-07 -1.67936e-05 -1.42309e-07)
(-4.5467e-07 -1.6834e-05 -2.3628e-08)
(-4.15038e-07 -1.69521e-05 -2.09968e-08)
(-4.55278e-07 -1.6835e-05 -9.4602e-08)
(-4.18482e-07 -1.69307e-05 -7.9461e-08)
(-4.29449e-07 -1.68977e-05 -1.4582e-08)