/*--------------------------------*- C++ -*----------------------------------*\
| =========                 |                                                 |
| \\      /  F ield         | OpenFOAM: The Open Source CFD Toolbox           |
|  \\    /   O peration     | Version:  v2012                                 |
|   \\  /    A nd           | Website:  www.openfoam.com                      |
|    \\/     M anipulation  |                                                 |
\*---------------------------------------------------------------------------*/
FoamFile
{
    version     2.0;
    format      ascii;
    class       pointVectorField;
    location    "1";
    object      pointD;
}
// * * * * * * * * * * * * * * * * * * * * * * * * * * * * * * * * * * * * * //

dimensions      [0 1 0 0 0 0 0];


internalField   nonuniform List<vector> 
970
(
(3.17952e-07 -9.81148e-05 0)
(0 -9.80853e-05 0)
(0 -9.74512e-05 0)
(0 0 0)
(0 0 0)
(-1.71149e-05 -8.11259e-05 0)
(-6.8112e-07 -9.6614e-05 0)
(-1.74169e-05 -7.83606e-05 0)
(-5.58347e-07 -9.66952e-05 0)
(-1.12504e-05 -8.07952e-05 0)
(-1.2791e-05 -8.23528e-05 0)
(-4.29826e-06 -9.14526e-05 0)
(-3.75689e-06 -8.92986e-05 0)
(-6.54901e-07 -9.58299e-05 0)
(-9.34308e-07 -9.59117e-05 0)
(-1.76972e-05 -3.22802e-05 0)
(2.00772e-05 -3.25141e-05 0)
(1.59198e-07 -9.74305e-05 0)
(0 -9.72344e-05 0)
(-1.19329e-06 -9.31909e-05 0)
(-2.24516e-06 -9.37949e-05 0)
(0 -9.73906e-05 0)
(-8.02747e-06 -8.55163e-05 0)
(-6.32141e-06 -8.7064e-05 0)
(1.63288e-05 -8.36622e-05 0)
(0 0 0)
(-1.75411e-05 -3.1906e-05 8.1163e-07)
(1.97785e-05 -3.22667e-05 -7.99067e-07)
(0 0 0)
(-1.64682e-05 -7.84566e-05 -1.36275e-06)
(-1.03304e-05 -8.12041e-05 -2.1852e-06)
(1.57831e-05 -8.46164e-05 2.38828e-06)
(-5.73489e-06 -8.86376e-05 -3.93448e-06)
(-4.82496e-06 -9.2029e-05 -4.09448e-06)
(0 -9.78606e-05 1.41919e-06)
(0 -9.74357e-05 -2.76005e-07)
(-3.75247e-06 -9.33978e-05 -3.4151e-06)
(0 -9.72242e-05 -7.59683e-08)
(-1.06706e-06 -9.52261e-05 -1.49233e-06)
(1.69868e-07 -9.74235e-05 -5.49292e-08)
(-5.59236e-07 -9.62554e-05 -6.36454e-07)
(0 -9.8089e-05 -9.60796e-08)
(3.22256e-07 -9.81167e-05 -6.75621e-08)
(-1.19493e-05 -8.30213e-05 -2.60496e-06)
(-1.64099e-05 -8.13104e-05 -1.64606e-06)
(-7.66504e-06 -8.80546e-05 -5.05144e-06)
(-5.05399e-06 -9.08784e-05 -4.9561e-06)
(-3.33482e-06 -9.3209e-05 -4.32346e-06)
(-1.24532e-06 -9.53064e-05 -1.81413e-06)
(-9.48426e-07 -9.62256e-05 -8.62927e-07)
(2.27195e-07 -9.80967e-05 0)
(1.20672e-07 -9.80854e-05 0)
(0 -9.77693e-05 0)
(0 -9.74861e-05 0)
(0 -9.70755e-05 0)
(0 -9.70102e-05 0)
(4.24211e-06 -9.50234e-05 0)
(9.28729e-06 -9.12749e-05 0)
(1.51195e-05 -1.97657e-05 0)
(7.13306e-06 -9.00359e-06 0)
(0 0 0)
(0 0 0)
(-6.21417e-06 -8.75921e-06 0)
(-1.33171e-05 -1.86629e-05 0)
(-1.91085e-05 -4.6916e-05 0)
(-1.907e-05 -5.81131e-05 0)
(-1.88032e-05 -6.60925e-05 0)
(-1.83339e-05 -7.17442e-05 0)
(-1.76978e-05 -7.55807e-05 0)
(-5.21052e-07 -9.68699e-05 0)
(-4.01043e-07 -9.70252e-05 0)
(-1.81605e-07 -9.71033e-05 0)
(-3.85956e-08 -9.71533e-05 0)
(7.17735e-08 -9.72647e-05 0)
(2.25695e-07 -9.76474e-05 0)
(2.77453e-07 -9.78771e-05 0)
(8.89716e-08 -9.73545e-05 0)
(3.64886e-08 -9.72717e-05 0)
(-2.86413e-06 -3.16492e-05 0)
(5.93364e-06 -3.18527e-05 0)
(-9.82271e-06 -7.92484e-05 0)
(-7.9201e-06 -7.68688e-05 0)
(-5.41885e-06 -7.36016e-05 0)
(-2.38518e-06 -6.92034e-05 0)
(7.45682e-07 -6.33251e-05 0)
(4.32273e-06 -5.49956e-05 0)
(1.03683e-05 -4.47426e-05 0)
(-3.92276e-06 -9.24826e-05 0)
(-2.99577e-06 -9.32327e-05 0)
(-1.96406e-06 -9.40431e-05 0)
(-8.80636e-07 -9.50089e-05 0)
(3.41834e-07 -9.61765e-05 0)
(8.76091e-07 -9.7112e-05 0)
(9.23867e-07 -9.74555e-05 0)
(-9.9555e-07 -9.60128e-05 0)
(-8.76112e-07 -9.62016e-05 0)
(-6.80184e-07 -9.63802e-05 0)
(-4.70802e-07 -9.65688e-05 0)
(-2.49434e-07 -9.67686e-05 0)
(-1.34462e-07 -9.69749e-05 0)
(-3.71033e-08 -9.71004e-05 0)
(-1.49078e-05 -8.14278e-05 0)
(-9.22918e-06 -8.29131e-05 0)
(-7.57176e-06 -8.51758e-05 0)
(-3.76294e-06 -9.24288e-05 0)
(-3.05164e-06 -9.31068e-05 0)
(-6.82384e-07 -9.62955e-05 0)
(-1.52856e-05 -7.86122e-05 0)
(-1.31658e-05 -7.94887e-05 0)
(-1.02461e-05 -8.41503e-05 0)
(-2.55171e-06 -9.15844e-05 0)
(-7.35859e-07 -9.62682e-05 0)
(-5.94147e-07 -9.6511e-05 0)
(-2.44414e-06 -9.44168e-05 0)
(-2.46024e-06 -9.50694e-05 0)
(-1.94435e-06 -9.57097e-05 0)
(-1.41556e-06 -9.65003e-05 0)
(-8.45617e-07 -9.69903e-05 0)
(8.07603e-06 -8.58474e-05 0)
(2.64393e-06 -8.65782e-05 0)
(-2.73571e-07 -8.72382e-05 0)
(-2.73634e-06 -8.76579e-05 0)
(-4.79841e-06 -8.73981e-05 0)
(-6.10134e-06 -8.77581e-05 0)
(-1.01715e-06 -9.45213e-05 0)
(-5.44276e-06 -8.88637e-05 0)
(-5.01734e-06 -9.03553e-05 0)
(-1.86556e-06 -9.44714e-05 0)
(-1.42581e-06 -9.51302e-05 0)
(2.04248e-05 -6.95874e-05 0)
(2.09214e-05 -5.02861e-05 0)
(0 -9.77629e-05 0)
(0 -9.77349e-05 0)
(-6.16747e-06 -6.98393e-06 2.37944e-06)
(-1.31889e-05 -1.77825e-05 1.65697e-06)
(-2.54452e-06 -3.14325e-05 1.39645e-07)
(5.52679e-06 -3.17517e-05 -2.4619e-07)
(1.49572e-05 -1.86253e-05 -2.28043e-06)
(7.10941e-06 -9.00434e-06 -2.49512e-06)
(0 0 0)
(0 0 0)
(-1.89251e-05 -4.68785e-05 9.95817e-09)
(-1.89444e-05 -5.8081e-05 -4.37947e-08)
(-1.85456e-05 -6.606e-05 -2.96844e-07)
(-1.7497e-05 -7.1593e-05 -8.84523e-07)
(-1.67052e-05 -7.54964e-05 -1.13485e-06)
(-1.4271e-05 -7.87675e-05 -1.50574e-06)
(-1.21764e-05 -7.96942e-05 -1.77233e-06)
(-8.89658e-06 -7.94349e-05 -1.72417e-06)
(-7.27445e-06 -7.72496e-05 -1.1784e-06)
(-4.90825e-06 -7.39463e-05 -5.56752e-07)
(-2.2012e-06 -6.94866e-05 -4.3518e-07)
(7.19598e-07 -6.33662e-05 -4.9726e-08)
(4.24475e-06 -5.50247e-05 -1.60569e-07)
(1.00854e-05 -4.4755e-05 -3.55895e-07)
(-1.73679e-05 -7.84206e-05 -4.37726e-07)
(-1.72871e-05 -7.84652e-05 -6.99507e-07)
(-1.71546e-05 -7.85218e-05 -1.02077e-06)
(-1.70021e-05 -7.86033e-05 -1.20936e-06)
(-1.67534e-05 -7.85902e-05 -1.30293e-06)
(-1.12041e-05 -8.09023e-05 -4.17079e-07)
(-1.12115e-05 -8.1002e-05 -7.89415e-07)
(-1.1108e-05 -8.11265e-05 -1.18592e-06)
(-1.09291e-05 -8.1228e-05 -1.55115e-06)
(-1.0694e-05 -8.12731e-05 -1.86729e-06)
(2.06657e-05 -5.03777e-05 5.30155e-08)
(2.05596e-05 -6.99379e-05 2.8841e-07)
(7.77702e-06 -8.65189e-05 7.89126e-07)
(2.59153e-06 -8.72804e-05 -1.40469e-07)
(-2.81788e-07 -8.80686e-05 -8.0823e-07)
(-2.53146e-06 -8.86724e-05 -1.77749e-06)
(-4.29119e-06 -8.86871e-05 -2.83304e-06)
(-6.74891e-06 -8.63018e-05 -3.33369e-06)
(-8.20422e-06 -8.36093e-05 -2.88248e-06)
(-6.38791e-06 -8.70878e-05 -7.27941e-07)
(-6.42321e-06 -8.72917e-05 -1.19468e-06)
(-6.48893e-06 -8.74427e-05 -1.80024e-06)
(-6.31443e-06 -8.77689e-05 -2.6165e-06)
(-6.1876e-06 -8.80738e-05 -3.00651e-06)
(-5.27666e-06 -9.04314e-05 -4.18839e-06)
(-5.2087e-06 -9.13916e-05 -4.16319e-06)
(-4.56648e-06 -9.30499e-05 -3.26352e-06)
(-3.65102e-06 -9.39965e-05 -2.66737e-06)
(-2.52121e-06 -9.48063e-05 -1.68364e-06)
(-1.31587e-06 -9.56896e-05 -8.77907e-07)
(1.65036e-07 -9.66561e-05 7.60459e-08)
(9.18777e-07 -9.7549e-05 4.71718e-07)
(9.95162e-07 -9.79312e-05 9.22417e-07)
(4.31421e-06 -9.556e-05 1.9428e-06)
(9.46776e-06 -9.14377e-05 1.74895e-06)
(-4.37789e-06 -9.15428e-05 -5.08883e-07)
(-4.37298e-06 -9.15873e-05 -1.27117e-06)
(-4.26005e-06 -9.15437e-05 -2.09109e-06)
(-4.51755e-06 -9.18539e-05 -2.9778e-06)
(-4.6973e-06 -9.20497e-05 -3.74293e-06)
(0 -9.81014e-05 4.03554e-07)
(0 -9.79525e-05 -1.06465e-07)
(-9.7267e-07 -9.70619e-05 -3.49303e-07)
(-1.6589e-06 -9.65508e-05 -6.09185e-07)
(-2.51552e-06 -9.56584e-05 -1.2847e-06)
(-3.14752e-06 -9.48232e-05 -1.97329e-06)
(-3.52863e-06 -9.41664e-05 -2.69573e-06)
(-4.53614e-06 -9.29393e-05 -3.95558e-06)
(-4.80294e-06 -9.27682e-05 -4.12807e-06)
(-2.39264e-06 -9.38008e-05 -5.55944e-07)
(-2.54777e-06 -9.39607e-05 -9.78125e-07)
(-2.75704e-06 -9.40481e-05 -1.48349e-06)
(-3.01806e-06 -9.41536e-05 -2.24523e-06)
(-3.22078e-06 -9.39599e-05 -2.74002e-06)
(0 -9.69375e-05 -1.86827e-07)
(0 -9.70288e-05 -9.0069e-08)
(-3.88556e-08 -9.70744e-05 -9.03607e-08)
(-1.53103e-07 -9.69117e-05 -1.52426e-07)
(-2.95602e-07 -9.66839e-05 -2.44921e-07)
(-5.09026e-07 -9.62872e-05 -4.82571e-07)
(-7.4288e-07 -9.59949e-05 -6.81654e-07)
(-9.24654e-07 -9.56576e-05 -9.44961e-07)
(-9.67077e-07 -9.53025e-05 -1.22925e-06)
(-1.71741e-06 -9.4445e-05 -2.12293e-06)
(-2.60647e-06 -9.3943e-05 -2.62357e-06)
(-1.00761e-06 -9.5824e-05 -2.42418e-07)
(-1.07831e-06 -9.58217e-05 -5.21181e-07)
(-1.16504e-06 -9.58475e-05 -8.1812e-07)
(-1.20634e-06 -9.57716e-05 -1.09148e-06)
(-1.17122e-06 -9.55561e-05 -1.27697e-06)
(3.8813e-08 -9.72621e-05 -7.54551e-08)
(1.00891e-07 -9.73355e-05 -7.32503e-08)
(8.95093e-08 -9.72386e-05 -5.46923e-08)
(1.89307e-08 -9.70593e-05 -7.31796e-08)
(-1.95801e-08 -9.68646e-05 -1.45694e-07)
(-1.02286e-07 -9.65323e-05 -3.18829e-07)
(-3.11679e-07 -9.63351e-05 -4.67612e-07)
(-6.10645e-07 -9.59591e-05 -8.08139e-07)
(-7.54796e-07 -9.5602e-05 -1.06525e-06)
(-6.39633e-07 -9.67099e-05 -1.91154e-07)
(-7.1679e-07 -9.66917e-05 -3.76414e-07)
(-8.23897e-07 -9.6662e-05 -5.57441e-07)
(-8.29456e-07 -9.65939e-05 -6.05241e-07)
(-7.4225e-07 -9.64451e-05 -6.25017e-07)
(0 -9.77733e-05 -8.86746e-08)
(0 -9.74866e-05 -7.47399e-08)
(2.28416e-07 -9.76461e-05 -6.15139e-08)
(2.79673e-07 -9.78798e-05 -6.51787e-08)
(2.3241e-07 -9.80961e-05 -7.72655e-08)
(1.23472e-07 -9.80934e-05 -9.36184e-08)
(-1.41412e-05 -8.17086e-05 -1.89748e-06)
(-1.26767e-05 -8.24101e-05 -5.00061e-07)
(-1.26724e-05 -8.26112e-05 -9.66363e-07)
(-1.26244e-05 -8.28216e-05 -1.41838e-06)
(-1.24656e-05 -8.29014e-05 -1.88109e-06)
(-1.22729e-05 -8.30069e-05 -2.24668e-06)
(-1.70974e-05 -8.10691e-05 -4.50119e-07)
(-1.6966e-05 -8.11999e-05 -9.19333e-07)
(-1.69356e-05 -8.13107e-05 -1.2035e-06)
(-1.68122e-05 -8.14027e-05 -1.42578e-06)
(-1.66396e-05 -8.14254e-05 -1.63797e-06)
(-9.33597e-06 -8.55238e-05 -3.83695e-06)
(-8.04171e-06 -8.61433e-05 -3.79424e-07)
(-8.13649e-06 -8.63388e-05 -1.31984e-06)
(-8.3023e-06 -8.66472e-05 -2.15186e-06)
(-8.13116e-06 -8.72588e-05 -2.82388e-06)
(-7.76765e-06 -8.7523e-05 -4.02681e-06)
(-6.41114e-06 -9.00159e-05 -5.29696e-06)
(-4.421e-06 -8.97847e-05 -6.45666e-07)
(-4.60771e-06 -8.9958e-05 -1.18702e-06)
(-4.80407e-06 -9.01783e-05 -2.46142e-06)
(-4.75498e-06 -9.0375e-05 -3.75015e-06)
(-4.72049e-06 -9.04679e-05 -4.22647e-06)
(-4.70511e-06 -9.22599e-05 -5.33495e-06)
(-1.77393e-06 -9.307e-05 -2.72701e-07)
(-2.0777e-06 -9.31005e-05 -1.01179e-06)
(-2.45272e-06 -9.34424e-05 -1.77857e-06)
(-3.0073e-06 -9.35936e-05 -2.54584e-06)
(-3.14438e-06 -9.35097e-05 -3.64474e-06)
(-2.22556e-06 -9.40215e-05 -3.19235e-06)
(-7.61611e-07 -9.56208e-05 -3.16327e-07)
(-9.43215e-07 -9.56321e-05 -6.00418e-07)
(-1.20433e-06 -9.57679e-05 -9.53901e-07)
(-1.40422e-06 -9.57878e-05 -1.2698e-06)
(-1.43602e-06 -9.56743e-05 -1.56699e-06)
(-1.00615e-06 -9.58161e-05 -1.1626e-06)
(-7.12041e-07 -9.65636e-05 -1.90293e-07)
(-8.25903e-07 -9.65166e-05 -5.07673e-07)
(-1.05142e-06 -9.65478e-05 -7.02457e-07)
(-1.17452e-06 -9.65626e-05 -7.74495e-07)
(-1.11305e-06 -9.64189e-05 -8.56443e-07)
(7.80973e-07 -8.72808e-06 0)
(6.39839e-06 -1.78896e-05 0)
(-4.65426e-06 -1.84458e-05 0)
(8.49745e-07 -3.00258e-06 0)
(-1.13509e-06 -3.78421e-06 0)
(9.88348e-08 -2.19346e-06 0)
(-5.52016e-06 -1.05965e-05 0)
(1.244e-06 -2.35489e-05 0)
(6.8143e-06 -1.13902e-05 0)
(-1.34252e-05 -7.47782e-05 0)
(-9.7272e-06 -6.36299e-05 0)
(-3.65537e-06 -4.76767e-05 0)
(-1.31334e-05 -6.82143e-05 0)
(-1.02067e-05 -7.29845e-05 0)
(-3.89077e-06 -6.11046e-05 0)
(-1.07611e-05 -5.5081e-05 0)
(1.81584e-06 -4.40671e-05 0)
(-1.38283e-05 -7.71105e-05 0)
(-1.05126e-05 -4.00526e-05 0)
(-7.26365e-06 -6.88842e-05 0)
(-2.3919e-08 -5.40323e-05 0)
(-1.47438e-05 -6.21654e-05 0)
(-1.10409e-05 -7.65367e-05 0)
(-1.59277e-05 -7.40856e-05 0)
(-1.18955e-05 -7.86955e-05 0)
(-1.56289e-05 -7.63458e-05 0)
(-1.40068e-05 -7.22272e-05 0)
(-5.30647e-06 -8.28735e-05 0)
(6.30623e-07 -7.8315e-05 0)
(8.0935e-06 -7.16228e-05 0)
(-1.31646e-06 -8.21854e-05 0)
(-4.47095e-06 -7.92782e-05 0)
(1.77434e-06 -7.11593e-05 0)
(4.37694e-06 -7.9093e-05 0)
(1.0965e-05 -5.95169e-05 0)
(-6.90558e-06 -8.34142e-05 0)
(1.30501e-05 -7.85253e-05 0)
(-1.95847e-06 -7.5745e-05 0)
(4.82282e-06 -6.44959e-05 0)
(1.3114e-06 -8.31727e-05 0)
(-7.1016e-06 -8.03286e-05 0)
(-4.39078e-06 -8.54461e-05 0)
(-8.81063e-06 -8.12968e-05 0)
(-5.89143e-06 -8.53423e-05 0)
(-3.47114e-06 -8.33796e-05 0)
(-3.34137e-06 -9.07247e-05 0)
(4.90107e-07 -9.17792e-05 0)
(5.05054e-06 -9.33253e-05 0)
(-9.7942e-07 -9.0625e-05 0)
(-2.30501e-06 -9.22346e-05 0)
(9.94496e-07 -9.41901e-05 0)
(3.35641e-06 -9.07311e-05 0)
(3.48646e-06 -9.51503e-05 0)
(-4.38547e-06 -9.03694e-05 0)
(9.68311e-06 -8.93948e-05 0)
(-9.50939e-07 -9.30945e-05 0)
(2.27939e-06 -9.55668e-05 0)
(1.08986e-06 -8.91842e-05 0)
(-3.62165e-06 -9.19849e-05 0)
(-3.54464e-06 -8.90548e-05 0)
(-4.46317e-06 -9.14916e-05 0)
(-4.56611e-06 -8.90786e-05 0)
(-2.50282e-06 -9.0332e-05 0)
(-3.12983e-06 -9.40864e-05 0)
(-1.61451e-06 -9.5994e-05 0)
(-2.08883e-07 -9.74913e-05 0)
(-2.44942e-06 -9.53314e-05 0)
(-2.77823e-06 -9.43351e-05 0)
(-8.29042e-07 -9.63825e-05 0)
(-1.05849e-06 -9.67737e-05 0)
(2.14963e-07 -9.7561e-05 0)
(-3.45393e-06 -9.3458e-05 0)
(-1.7872e-07 -9.75345e-05 0)
(-1.79645e-06 -9.51123e-05 0)
(1.04776e-07 -9.71345e-05 0)
(-1.76348e-06 -9.60792e-05 0)
(-3.46103e-06 -9.35707e-05 0)
(-2.83144e-06 -9.44957e-05 0)
(-3.89681e-06 -9.28684e-05 0)
(-3.02468e-06 -9.38703e-05 0)
(-2.80875e-06 -9.47209e-05 0)
(-1.75634e-06 -9.53875e-05 0)
(-9.92485e-07 -9.63248e-05 0)
(-2.98782e-07 -9.69039e-05 0)
(-1.50955e-06 -9.58199e-05 0)
(-1.22399e-06 -9.58539e-05 0)
(-5.76369e-07 -9.65905e-05 0)
(-8.61122e-07 -9.66499e-05 0)
(-1.12592e-07 -9.70009e-05 0)
(-1.76643e-06 -9.50678e-05 0)
(-3.49862e-07 -9.70339e-05 0)
(-8.75473e-07 -9.62364e-05 0)
(-2.48182e-07 -9.68583e-05 0)
(-1.41165e-06 -9.62288e-05 0)
(-1.31026e-06 -9.56724e-05 0)
(-2.22165e-06 -9.50333e-05 0)
(-1.3288e-06 -9.55036e-05 0)
(-2.11515e-06 -9.47696e-05 0)
(-1.82586e-06 -9.54644e-05 0)
(-5.69479e-07 -9.67523e-05 0)
(-1.62962e-07 -9.69343e-05 0)
(-3.94074e-10 -9.71516e-05 0)
(-2.79221e-07 -9.69091e-05 0)
(-5.15799e-07 -9.66651e-05 0)
(-1.65053e-07 -9.68947e-05 0)
(-3.89433e-08 -9.71035e-05 0)
(-2.13893e-08 -9.71459e-05 0)
(-6.54171e-07 -9.65971e-05 0)
(7.9063e-08 -9.72888e-05 0)
(-3.52117e-07 -9.67344e-05 0)
(-1.07414e-07 -9.69745e-05 0)
(-1.09215e-07 -9.70562e-05 0)
(-7.47794e-07 -9.64307e-05 0)
(-5.0105e-07 -9.68948e-05 0)
(-8.43724e-07 -9.629e-05 0)
(-5.84879e-07 -9.6725e-05 0)
(-4.36227e-07 -9.68812e-05 0)
(1.45773e-07 -9.76672e-05 0)
(1.59468e-07 -9.75437e-05 0)
(2.22133e-07 -9.78591e-05 0)
(1.01369e-07 -9.7815e-05 0)
(5.92729e-08 -9.74324e-05 0)
(5.1869e-08 -9.76312e-05 0)
(1.70002e-07 -9.79254e-05 0)
(2.15582e-07 -9.77329e-05 0)
(9.50959e-08 -9.74356e-05 0)
(-1.32501e-05 -8.09203e-05 0)
(-1.55319e-05 -7.99399e-05 0)
(-1.06588e-05 -8.30026e-05 0)
(-8.56681e-06 -8.51891e-05 0)
(-5.21836e-06 -8.97229e-05 0)
(-6.21865e-06 -8.81369e-05 0)
(-3.76699e-06 -9.14638e-05 0)
(-2.74004e-06 -9.2658e-05 0)
(-1.12154e-06 -9.51793e-05 0)
(-1.61821e-06 -9.42405e-05 0)
(-7.39532e-07 -9.60812e-05 0)
(-6.35325e-07 -9.64612e-05 0)
(-1.57358e-05 -2.45585e-05 5.25305e-07)
(-1.00725e-05 -1.11764e-05 6.22833e-07)
(-2.51712e-06 -3.47907e-06 5.38207e-07)
(1.29216e-05 -3.19948e-05 -2.54629e-07)
(1.4119e-06 -3.16697e-05 -3.14298e-08)
(-1.02053e-05 -3.15638e-05 1.66587e-07)
(2.757e-06 -3.71904e-06 -5.75089e-07)
(1.16315e-05 -1.26744e-05 -9.48014e-07)
(1.80437e-05 -2.51303e-05 -6.18492e-07)
(0 0 0)
(0 0 0)
(0 0 0)
(6.22395e-07 -8.08012e-06 2.9224e-08)
(-6.60653e-07 -2.33846e-06 9.9332e-07)
(-5.29698e-06 -1.90203e-05 6.46448e-07)
(6.17504e-06 -1.76227e-05 -8.76561e-07)
(1.55209e-06 -3.49088e-06 -1.70093e-06)
(2.31971e-07 -1.22196e-06 -2.12109e-07)
(5.58982e-06 -1.08283e-05 -8.07753e-07)
(1.13213e-06 -2.29613e-05 -1.0258e-07)
(-4.88795e-06 -9.98255e-06 4.80109e-07)
(-1.82158e-05 -7.07284e-05 -2.50476e-07)
(-1.72852e-05 -7.45822e-05 -7.92632e-07)
(-1.79048e-05 -7.46219e-05 -3.43405e-07)
(-1.87733e-05 -6.09485e-05 -4.14423e-08)
(-1.78433e-05 -7.42429e-05 -6.00666e-07)
(-1.87401e-05 -5.26226e-05 -4.10907e-08)
(-1.80025e-05 -7.0826e-05 -4.39179e-07)
(-1.84521e-05 -7.09424e-05 -1.64676e-07)
(-1.86217e-05 -6.62429e-05 -1.64155e-07)
(-1.86587e-05 -6.65335e-05 -9.33505e-08)
(-1.86968e-05 -4.04699e-05 1.19207e-07)
(-1.7328e-05 -7.65141e-05 -8.92648e-07)
(-1.74832e-05 -7.6528e-05 -6.93375e-07)
(-1.69056e-05 -7.62657e-05 -1.08976e-06)
(-1.76578e-05 -7.61316e-05 -2.32287e-07)
(-1.71136e-05 -7.38417e-05 -8.93423e-07)
(-1.80382e-05 -7.39515e-05 -1.47068e-07)
(-1.88259e-05 -6.04998e-05 -2.59912e-08)
(-1.78088e-05 -7.27015e-05 -4.52813e-07)
(-1.81702e-05 -7.2741e-05 -3.87516e-07)
(-1.88009e-05 -6.28098e-05 -4.89875e-08)
(-1.42134e-05 -7.90474e-05 -3.65404e-07)
(-1.35216e-05 -7.93032e-05 -1.46729e-06)
(-1.40801e-05 -7.92046e-05 -8.9411e-07)
(-1.39101e-05 -7.92317e-05 -1.19084e-06)
(-1.52834e-05 -7.87275e-05 -5.73532e-07)
(-1.3051e-05 -7.96167e-05 -5.69474e-07)
(-1.24989e-05 -7.99287e-05 -1.42029e-06)
(-1.49329e-05 -7.89e-05 -1.30298e-06)
(-1.49126e-05 -7.87772e-05 -1.39375e-06)
(-1.21141e-05 -8.00375e-05 -1.64867e-06)
(-1.55762e-05 -7.85517e-05 -2.97493e-07)
(-1.28585e-05 -7.97213e-05 -2.71427e-07)
(-1.2872e-05 -7.98272e-05 -1.1137e-06)
(-1.51441e-05 -7.87931e-05 -1.04724e-06)
(-1.4206e-05 -7.89901e-05 -1.8078e-07)
(-1.33644e-05 -7.9249e-05 -1.53069e-06)
(-6.77789e-06 -7.56244e-05 -4.58683e-07)
(-8.4454e-06 -7.7712e-05 -3.68864e-07)
(-8.21705e-06 -7.79606e-05 -1.06523e-06)
(-3.25326e-06 -7.0356e-05 -1.47535e-07)
(-9.24769e-06 -7.88605e-05 -8.35192e-07)
(6.10218e-07 -6.36348e-05 -1.9417e-08)
(-6.87431e-06 -7.54503e-05 -1.89294e-07)
(-6.47075e-06 -7.55666e-05 -7.04054e-07)
(-3.60432e-06 -7.15157e-05 -3.25307e-07)
(-3.86251e-06 -7.13919e-05 -1.12238e-07)
(6.76083e-06 -4.97315e-05 -1.16359e-07)
(2.87661e-06 -5.73517e-05 -8.3987e-08)
(-1.00219e-05 -7.95467e-05 -3.43292e-07)
(-9.44544e-06 -7.96802e-05 -1.50493e-06)
(1.54783e-05 -3.84315e-05 -2.21132e-07)
(-9.96551e-06 -7.95635e-05 -6.50472e-07)
(-9.61362e-06 -7.96394e-05 -1.22486e-06)
(-1.35122e-06 -6.73545e-05 -1.91747e-07)
(-1.36596e-06 -6.72329e-05 -4.35257e-09)
(-4.77564e-06 -7.30479e-05 -2.96598e-07)
(-8.16497e-06 -7.81036e-05 -1.25853e-06)
(-8.59878e-06 -7.78204e-05 -1.82973e-07)
(-7.9815e-06 -7.73963e-05 -7.14494e-07)
(-8.08599e-06 -7.72966e-05 -5.54761e-07)
(-1.24675e-05 -7.49027e-05 -1.12777e-06)
(-9.42874e-06 -6.36018e-05 -2.6162e-07)
(-3.53343e-06 -4.7672e-05 -8.9082e-08)
(-1.2834e-05 -6.83398e-05 -4.46267e-07)
(-9.61113e-06 -7.32343e-05 -8.29542e-07)
(-3.92357e-06 -6.11459e-05 1.12478e-07)
(-1.06705e-05 -5.50861e-05 -1.05794e-07)
(1.82847e-06 -4.40926e-05 -2.10093e-07)
(-1.27391e-05 -7.72283e-05 -1.43189e-06)
(-1.0361e-05 -4.0005e-05 5.38871e-08)
(-6.82486e-06 -6.90896e-05 -4.07674e-07)
(3.16975e-09 -5.39994e-05 -1.30458e-07)
(-1.45393e-05 -6.21573e-05 -1.63235e-07)
(-1.01723e-05 -7.67224e-05 -1.27601e-06)
(-1.4901e-05 -7.40508e-05 -1.12048e-06)
(-1.09069e-05 -7.8818e-05 -1.63839e-06)
(-1.44681e-05 -7.64176e-05 -1.28821e-06)
(-1.32962e-05 -7.23094e-05 -8.67693e-07)
(2.08324e-05 -4.12456e-05 -1.70904e-07)
(1.9602e-05 -7.76537e-05 2.85531e-07)
(2.07306e-05 -6.01645e-05 1.24517e-07)
(-2.34847e-06 -8.76468e-05 -9.43873e-07)
(-4.03678e-06 -8.79935e-05 -2.03248e-06)
(-4.3017e-06 -8.76183e-05 -7.25655e-07)
(1.71756e-06 -8.71908e-05 -1.18812e-07)
(-4.0472e-06 -8.77071e-05 -1.38543e-06)
(5.26434e-06 -8.69893e-05 2.10543e-07)
(-2.33345e-06 -8.79843e-05 -1.32217e-06)
(-2.3297e-06 -8.7578e-05 -4.65029e-07)
(-4.10357e-07 -8.76298e-05 -6.53548e-07)
(-4.96175e-07 -8.73833e-05 -4.58231e-07)
(1.14066e-05 -8.567e-05 6.60798e-07)
(-5.18487e-06 -8.78438e-05 -1.91009e-06)
(-5.2547e-06 -8.77983e-05 -1.41432e-06)
(-4.76233e-06 -8.82806e-05 -2.74629e-06)
(-5.1483e-06 -8.75719e-05 -4.52748e-07)
(-3.6456e-06 -8.83931e-05 -2.26206e-06)
(-3.97616e-06 -8.76467e-05 -1.97156e-07)
(1.76719e-06 -8.73907e-05 -1.61873e-07)
(-3.20088e-06 -8.78473e-05 -1.42996e-06)
(-3.1714e-06 -8.76657e-05 -8.9294e-07)
(9.40172e-07 -8.71384e-05 -1.5011e-07)
(-8.4498e-06 -8.38772e-05 -5.17237e-07)
(-7.87779e-06 -8.45965e-05 -2.54434e-06)
(-8.32392e-06 -8.41782e-05 -1.28928e-06)
(-8.12591e-06 -8.45602e-05 -1.87952e-06)
(-9.34983e-06 -8.2844e-05 -7.5715e-07)
(-7.44714e-06 -8.53857e-05 -8.69493e-07)
(-9.11892e-06 -8.31776e-05 -1.94967e-06)
(-7.02532e-06 -8.59415e-05 -2.56997e-06)
(-9.46397e-06 -8.25317e-05 -3.47488e-07)
(-7.43319e-06 -8.55651e-05 -4.60259e-07)
(-6.94111e-06 -8.65472e-05 -3.01272e-06)
(-8.91903e-06 -8.31502e-05 -2.40237e-06)
(-9.13263e-06 -8.31632e-05 -1.49033e-06)
(-7.61529e-06 -8.55142e-05 -1.7416e-06)
(-7.76315e-06 -8.48241e-05 -2.84013e-06)
(-8.48561e-06 -8.39182e-05 -2.69237e-07)
(-4.33848e-06 -8.3599e-05 -1.95398e-06)
(7.51592e-07 -7.88566e-05 -4.00639e-07)
(8.00011e-06 -7.18897e-05 1.46846e-07)
(-1.03305e-06 -8.27999e-05 -7.74212e-07)
(-3.72151e-06 -7.99087e-05 -1.55492e-06)
(1.73519e-06 -7.14865e-05 3.68268e-08)
(4.28511e-06 -7.95419e-05 -6.41008e-08)
(1.07595e-05 -5.96436e-05 4.65224e-08)
(-6.04352e-06 -8.41438e-05 -2.55562e-06)
(1.27272e-05 -7.88239e-05 5.31517e-07)
(-1.64987e-06 -7.61418e-05 -5.03513e-07)
(4.75377e-06 -6.45616e-05 1.29449e-07)
(1.30287e-06 -8.38954e-05 -4.28158e-07)
(-6.23573e-06 -8.07301e-05 -1.90125e-06)
(-3.72079e-06 -8.63678e-05 -2.26724e-06)
(-7.88493e-06 -8.18236e-05 -2.31362e-06)
(-4.97213e-06 -8.64577e-05 -2.81663e-06)
(-2.9642e-06 -8.40815e-05 -1.49092e-06)
(-5.19126e-06 -8.96753e-05 -5.53784e-07)
(-5.29296e-06 -9.04781e-05 -3.54007e-06)
(-5.40072e-06 -8.99272e-05 -1.64414e-06)
(-5.46395e-06 -9.01447e-05 -2.53464e-06)
(-5.68525e-06 -8.89835e-05 -1.037e-06)
(-4.9822e-06 -9.06082e-05 -9.47081e-07)
(-5.05184e-06 -9.10762e-05 -3.11369e-06)
(-5.82769e-06 -8.93475e-05 -3.03527e-06)
(-5.37011e-06 -8.95489e-05 -3.60561e-06)
(-5.04591e-06 -9.13891e-05 -3.75972e-06)
(-5.4752e-06 -8.87089e-05 -5.02266e-07)
(-4.99219e-06 -9.07767e-05 -3.7453e-07)
(-5.05991e-06 -9.06761e-05 -2.16576e-06)
(-5.66389e-06 -8.92006e-05 -2.02111e-06)
(-5.1593e-06 -8.97221e-05 -2.6114e-07)
(-5.15456e-06 -9.06831e-05 -3.87867e-06)
(-2.71781e-06 -9.3812e-05 -1.12423e-06)
(-3.42896e-06 -9.30519e-05 -8.68517e-07)
(-3.65399e-06 -9.33973e-05 -2.31196e-06)
(-1.12001e-06 -9.49815e-05 -4.55849e-07)
(-3.99248e-06 -9.28275e-05 -1.87133e-06)
(5.38223e-09 -9.6327e-05 1.55343e-08)
(-2.52369e-06 -9.36554e-05 -4.70619e-07)
(-2.81068e-06 -9.39507e-05 -1.79767e-06)
(-1.66041e-06 -9.49218e-05 -9.80764e-07)
(-1.41978e-06 -9.46384e-05 -2.95774e-07)
(8.22535e-07 -9.74914e-05 3.04442e-07)
(7.2305e-07 -9.70936e-05 1.94291e-07)
(-4.05659e-06 -9.24173e-05 -6.85229e-07)
(-4.37501e-06 -9.28622e-05 -3.14747e-06)
(6.3352e-07 -9.75686e-05 5.91756e-07)
(-4.13712e-06 -9.25305e-05 -1.40626e-06)
(-4.26577e-06 -9.26957e-05 -2.49105e-06)
(-6.15552e-07 -9.56815e-05 -3.01275e-07)
(-5.1195e-07 -9.54815e-05 -7.50928e-08)
(-1.92851e-06 -9.43891e-05 -8.02371e-07)
(-3.46785e-06 -9.30433e-05 -4.58578e-07)
(-3.86151e-06 -9.35437e-05 -2.71831e-06)
(-3.38679e-06 -9.34266e-05 -1.7252e-06)
(-3.23784e-06 -9.3252e-05 -1.26361e-06)
(1.22602e-05 -8.83667e-05 1.19997e-06)
(2.01563e-06 -9.65116e-05 8.2849e-07)
(6.70835e-06 -9.37157e-05 9.62266e-07)
(-3.53293e-06 -9.15709e-05 -2.61968e-06)
(1.98058e-07 -9.26564e-05 -5.73884e-07)
(5.07096e-06 -9.40066e-05 9.47026e-07)
(-1.18926e-06 -9.13382e-05 -1.30389e-06)
(-2.71807e-06 -9.30691e-05 -2.26274e-06)
(5.61012e-07 -9.47771e-05 1.56786e-07)
(3.43641e-06 -9.1258e-05 3.7578e-07)
(3.55764e-06 -9.57605e-05 9.82557e-07)
(-4.47799e-06 -9.11842e-05 -3.45106e-06)
(9.40422e-06 -9.00626e-05 1.40296e-06)
(-1.32755e-06 -9.39163e-05 -1.14538e-06)
(2.05005e-06 -9.6235e-05 4.48494e-07)
(9.9954e-07 -8.99871e-05 -4.83988e-07)
(-3.87984e-06 -9.26723e-05 -2.96173e-06)
(-3.44713e-06 -9.01046e-05 -2.5667e-06)
(-4.71559e-06 -9.21082e-05 -3.70454e-06)
(-4.43422e-06 -9.02429e-05 -3.28444e-06)
(-2.68315e-06 -9.11322e-05 -2.08139e-06)
(0 -9.77355e-05 4.40993e-07)
(0 -9.79747e-05 3.04477e-08)
(0 -9.77514e-05 -7.15372e-08)
(-2.37161e-06 -9.52981e-05 -1.01814e-06)
(-2.53271e-06 -9.47046e-05 -6.2272e-07)
(-2.81542e-06 -9.47107e-05 -1.86532e-06)
(-1.63997e-06 -9.63367e-05 -4.39456e-07)
(-2.62493e-06 -9.48612e-05 -1.27005e-06)
(-1.25186e-06 -9.67366e-05 -2.3791e-07)
(-2.63113e-06 -9.52289e-05 -1.51019e-06)
(-2.34972e-06 -9.51946e-05 -4.88558e-07)
(-2.00544e-06 -9.56563e-05 -5.37733e-07)
(-2.18037e-06 -9.56429e-05 -9.2092e-07)
(-5.27096e-07 -9.72595e-05 -1.59195e-07)
(-2.80713e-06 -9.44629e-05 -1.59692e-06)
(-2.76221e-06 -9.4329e-05 -1.19964e-06)
(-3.16449e-06 -9.44165e-05 -2.43279e-06)
(-2.58323e-06 -9.42546e-05 -3.4384e-07)
(-3.05699e-06 -9.47147e-05 -2.14238e-06)
(-2.51196e-06 -9.47973e-05 -2.30754e-07)
(-1.64297e-06 -9.63306e-05 -2.55633e-07)
(-2.63884e-06 -9.49322e-05 -1.46086e-06)
(-2.4962e-06 -9.4953e-05 -8.2294e-07)
(-1.9934e-06 -9.61161e-05 -8.36619e-07)
(-3.38589e-06 -9.27149e-05 -4.2567e-07)
(-4.19097e-06 -9.32471e-05 -3.43014e-06)
(-3.5815e-06 -9.31124e-05 -1.39737e-06)
(-3.88337e-06 -9.32627e-05 -2.38101e-06)
(-4.0252e-06 -9.25383e-05 -7.61828e-07)
(-3.13536e-06 -9.32795e-05 -8.53112e-07)
(-4.301e-06 -9.28105e-05 -3.00945e-06)
(-3.59921e-06 -9.37923e-05 -2.81834e-06)
(-4.09158e-06 -9.23809e-05 -2.97099e-07)
(-3.08188e-06 -9.30957e-05 -3.74509e-07)
(-3.88446e-06 -9.33766e-05 -3.35325e-06)
(-4.57729e-06 -9.27413e-05 -3.74288e-06)
(-4.08279e-06 -9.27844e-05 -2.04184e-06)
(-3.33747e-06 -9.35018e-05 -1.69633e-06)
(-4.46707e-06 -9.29826e-05 -3.77985e-06)
(-3.42138e-06 -9.2645e-05 -3.00877e-07)
(-4.01552e-06 -9.42469e-05 -2.90964e-06)
(-2.07251e-06 -9.62647e-05 -1.03565e-06)
(-3.32457e-07 -9.77164e-05 -1.42563e-07)
(-2.85501e-06 -9.55553e-05 -1.71987e-06)
(-3.48087e-06 -9.483e-05 -2.48693e-06)
(-8.91145e-07 -9.67164e-05 -3.35111e-07)
(-1.16753e-06 -9.69255e-05 -3.93893e-07)
(2.50097e-07 -9.7907e-05 1.14824e-07)
(-4.28675e-06 -9.36687e-05 -3.4206e-06)
(-2.77811e-07 -9.77096e-05 -1.57622e-07)
(-2.31608e-06 -9.56055e-05 -1.44701e-06)
(3.58054e-08 -9.75182e-05 -1.52509e-08)
(-2.01632e-06 -9.62493e-05 -9.67689e-07)
(-4.23766e-06 -9.37607e-05 -2.92336e-06)
(-3.66555e-06 -9.44443e-05 -2.64116e-06)
(-4.53397e-06 -9.31376e-05 -3.68557e-06)
(-4.07715e-06 -9.38702e-05 -3.22355e-06)
(-3.43753e-06 -9.49852e-05 -2.39663e-06)
(0 -9.71345e-05 -3.64459e-08)
(0 -9.70199e-05 -1.31548e-07)
(0 -9.69921e-05 -6.83155e-08)
(-8.46636e-07 -9.6205e-05 -4.28732e-07)
(-9.15263e-07 -9.60646e-05 -3.30904e-07)
(-9.42084e-07 -9.58308e-05 -7.75128e-07)
(-5.52598e-07 -9.65315e-05 -2.24694e-07)
(-1.01811e-06 -9.59063e-05 -6.492e-07)
(-2.53599e-07 -9.6709e-05 -1.25176e-07)
(-8.39567e-07 -9.60624e-05 -6.02708e-07)
(-8.21235e-07 -9.63106e-05 -2.02708e-07)
(-5.7953e-07 -9.64674e-05 -1.3026e-07)
(-5.84916e-07 -9.62864e-05 -4.22492e-07)
(-8.29803e-08 -9.70304e-05 -5.20116e-08)
(-1.72254e-07 -9.69065e-05 -8.95095e-08)
(-1.03166e-06 -9.5611e-05 -1.07169e-06)
(-1.03052e-06 -9.59582e-05 -2.3366e-07)
(-7.46757e-09 -9.71598e-05 -3.92889e-08)
(-1.06246e-06 -9.57928e-05 -8.95471e-07)
(-1.01789e-06 -9.59121e-05 -4.86466e-07)
(-4.03497e-07 -9.66527e-05 -1.05628e-07)
(-4.03409e-07 -9.65819e-05 -2.24845e-07)
(-6.32492e-07 -9.62864e-05 -3.25519e-07)
(-9.34021e-07 -9.60923e-05 -1.71838e-07)
(-9.44473e-07 -9.56772e-05 -9.29721e-07)
(-9.38601e-07 -9.61154e-05 -4.58187e-07)
(-9.19502e-07 -9.59989e-05 -6.01876e-07)
(-1.62805e-06 -9.48638e-05 -3.99656e-07)
(-2.02827e-06 -9.47989e-05 -1.95302e-06)
(-1.94744e-06 -9.48689e-05 -9.93565e-07)
(-1.82728e-06 -9.49553e-05 -1.42969e-06)
(-2.1294e-06 -9.4394e-05 -6.53906e-07)
(-1.41937e-06 -9.52103e-05 -6.01024e-07)
(-2.59535e-06 -9.43569e-05 -1.96672e-06)
(-1.59234e-06 -9.53144e-05 -1.46899e-06)
(-2.05742e-06 -9.43996e-05 -2.85435e-07)
(-1.37666e-06 -9.52076e-05 -2.65081e-07)
(-1.53621e-06 -9.50449e-05 -1.62734e-06)
(-2.56065e-06 -9.42421e-05 -2.37359e-06)
(-2.36726e-06 -9.45267e-05 -1.36905e-06)
(-1.52984e-06 -9.53415e-05 -1.08037e-06)
(-1.64632e-06 -9.48252e-05 -1.71367e-07)
(-2.06458e-06 -9.44469e-05 -2.20075e-06)
(-2.01789e-06 -9.47053e-05 -1.65337e-06)
(-1.17828e-06 -9.6071e-05 -6.86019e-07)
(-3.32243e-07 -9.6869e-05 -2.54704e-07)
(-1.73043e-06 -9.55528e-05 -1.00652e-06)
(-1.34712e-06 -9.53797e-05 -1.1344e-06)
(-5.79581e-07 -9.64776e-05 -3.85755e-07)
(-9.35214e-07 -9.66215e-05 -3.74652e-07)
(-1.53621e-07 -9.69177e-05 -1.58873e-07)
(-2.06426e-06 -9.45173e-05 -1.88706e-06)
(-4.15756e-07 -9.69977e-05 -3.02833e-07)
(-9.59704e-07 -9.59093e-05 -7.23102e-07)
(-3.30313e-07 -9.67752e-05 -2.39616e-07)
(-1.70135e-06 -9.60943e-05 -8.68513e-07)
(-1.33376e-06 -9.5058e-05 -1.43239e-06)
(-2.60008e-06 -9.46515e-05 -2.05249e-06)
(-1.35877e-06 -9.48837e-05 -1.60135e-06)
(-2.64723e-06 -9.42112e-05 -2.11639e-06)
(-2.05204e-06 -9.51419e-05 -1.39358e-06)
(1.31774e-07 -9.73881e-05 -2.98094e-08)
(1.76252e-08 -9.72417e-05 -3.66174e-08)
(6.33664e-08 -9.73064e-05 -3.60398e-08)
(-3.06028e-07 -9.69146e-05 -1.1411e-07)
(-5.30575e-07 -9.69129e-05 -1.59683e-07)
(-4.31139e-07 -9.66141e-05 -3.50189e-07)
(-5.55396e-08 -9.7066e-05 -3.77406e-08)
(-5.26647e-07 -9.68469e-05 -2.54744e-07)
(3.87131e-08 -9.71901e-05 -2.06441e-08)
(-2.0438e-07 -9.67746e-05 -1.6405e-07)
(-3.53273e-07 -9.70379e-05 -5.42702e-08)
(-1.57315e-07 -9.70559e-05 -3.0819e-08)
(-1.12838e-07 -9.69438e-05 -9.23188e-08)
(1.13536e-07 -9.7329e-05 -2.56993e-08)
(-6.5299e-07 -9.66992e-05 -4.40159e-07)
(-6.80521e-07 -9.67971e-05 -3.52951e-07)
(-4.96624e-07 -9.64714e-05 -4.72877e-07)
(-5.51667e-07 -9.68535e-05 -1.12699e-07)
(-4.86261e-07 -9.69666e-05 -5.91559e-08)
(-3.07725e-07 -9.6518e-05 -3.52694e-07)
(-6.27481e-08 -9.71176e-05 -1.60085e-08)
(-3.52178e-07 -9.67919e-05 -2.15319e-07)
(-4.34984e-07 -9.69586e-05 -1.56742e-07)
(-4.5683e-08 -9.69837e-05 -9.48731e-08)
(-8.48581e-07 -9.60547e-05 -8.44096e-07)
(-6.87558e-07 -9.64442e-05 -1.65735e-07)
(-8.67447e-07 -9.64152e-05 -4.95209e-07)
(-8.92206e-07 -9.62748e-05 -7.11063e-07)
(-8.41485e-07 -9.61681e-05 -2.92469e-07)
(-6.9605e-07 -9.65521e-05 -3.01936e-07)
(-9.88176e-07 -9.60012e-05 -8.98809e-07)
(-8.36355e-07 -9.63415e-05 -7.02097e-07)
(-7.20113e-07 -9.61874e-05 -7.28896e-07)
(-9.32165e-07 -9.57865e-05 -1.02037e-06)
(-8.02048e-07 -9.61831e-05 -1.19778e-07)
(-6.29123e-07 -9.65645e-05 -1.12098e-07)
(-1.01861e-06 -9.6147e-05 -6.98953e-07)
(-8.57229e-07 -9.64824e-05 -5.81441e-07)
(-6.52696e-07 -9.64123e-05 -8.14397e-08)