/*--------------------------------*- C++ -*----------------------------------*\
| =========                 |                                                 |
| \\      /  F ield         | OpenFOAM: The Open Source CFD Toolbox           |
|  \\    /   O peration     | Version:  v2012                                 |
|   \\  /    A nd           | Website:  www.openfoam.com                      |
|    \\/     M anipulation  |                                                 |
\*---------------------------------------------------------------------------*/
FoamFile
{
    version     2.0;
    format      ascii;
    class       volVectorField;
    location    "2";
    object      D;
}
// * * * * * * * * * * * * * * * * * * * * * * * * * * * * * * * * * * * * * //

dimensions      [0 1 0 0 0 0 0];


internalField   nonuniform List<vector> 
1896
(
(0.000960543 -1.25914e-05 0)
(0.000898886 -7.28484e-05 0)
(0.000939486 -4.23543e-06 0)
(0.000218567 -0.000330951 0)
(0.000946822 -1.17833e-05 0)
(0.000937758 -1.28603e-05 0)
(0.000199234 -0.000346898 0)
(0.000872691 -1.27092e-05 0)
(0.000606571 -5.60539e-05 0)
(0.000868148 -8.69085e-06 0)
(0.000973011 -1.9978e-06 0)
(0.000752138 -8.7054e-06 0)
(0.00078215 -5.88301e-06 0)
(0.000759066 -7.51021e-06 0)
(0.00024287 -0.000304518 0)
(8.3346e-05 -0.000437859 0)
(0.00078355 -8.9947e-05 0)
(0.000158189 -0.000385609 0)
(0.000728644 -7.89407e-05 0)
(0.000461532 -0.000236582 0)
(0.000695003 -6.47196e-05 0)
(0.000872599 -5.33684e-05 0)
(0.000374437 -0.00018639 0)
(0.000354202 -0.000199554 0)
(0.000866348 -7.40981e-05 0)
(0.000876362 -7.08046e-05 0)
(0.000782448 -4.17892e-06 0)
(0.000796841 -4.61635e-06 0)
(0.000966238 -1.08624e-05 0)
(0.000647829 -7.85651e-05 0)
(0.000661016 -7.5173e-05 0)
(0.00089485 -8.81611e-05 0)
(0.000737768 -6.40846e-06 0)
(0.00090095 -7.5457e-05 0)
(0.000506671 -0.000141541 0)
(0.000984804 -1.24235e-05 0)
(0.000682994 -7.32585e-05 0)
(0.000939925 -4.70578e-05 0)
(0.000138817 -0.000397475 0)
(0.000627092 -8.051e-05 0)
(0.000885669 -9.95122e-05 0)
(0.000349355 -0.000274667 0)
(0.000682063 -4.7875e-05 0)
(0.000407276 -0.00017288 0)
(0.000794498 -3.28822e-06 0)
(0.000787304 -2.88742e-06 0)
(0.000219254 -0.000325581 0)
(0.000973368 -5.25376e-06 0)
(0.000372186 -0.000190715 0)
(0.000196242 -0.000342418 0)
(0.000935924 -6.02286e-06 0)
(0.000897964 -1.33054e-05 0)
(0.000889978 -1.25856e-05 0)
(0.000877302 -5.46325e-05 0)
(0.000595478 -5.96286e-05 0)
(0.000831731 -0.000106167 0)
(0.000512954 -9.92902e-05 0)
(0.000978017 -1.48031e-05 0)
(0.000959966 -3.83943e-05 0)
(0.000684749 -0.00011473 0)
(0.000874914 -1.03503e-05 0)
(0.000214362 -0.000325334 0)
(0.000226762 -0.000311701 0)
(0.000910696 -2.60598e-05 0)
(0.00049124 -0.000238171 0)
(0.000886145 -9.63821e-05 0)
(0.000442891 -0.000149484 0)
(0.000727451 -1.67859e-05 0)
(0.000929519 -4.37156e-05 0)
(0.000429886 -0.000158159 0)
(0.000752617 -1.77341e-06 0)
(0.000264058 -0.000277935 0)
(0.000930545 -4.58567e-05 0)
(0.000840123 -0.000106891 0)
(0.00049257 -0.000149016 0)
(0.00088643 -7.06236e-05 0)
(0.000887279 -7.4394e-05 0)
(0.000941389 -2.64601e-05 0)
(0.000934617 -2.89347e-05 0)
(0.00079995 -4.4654e-05 0)
(0.00037717 -0.000267856 0)
(0.000384377 -0.000181327 0)
(0.000822285 -3.5941e-06 0)
(0.000834139 -1.46057e-05 0)
(0.000839421 -1.29067e-05 0)
(0.000773328 -6.02118e-05 0)
(0.000754097 -2.41587e-05 0)
(0.000752385 -2.18657e-05 0)
(0.000535732 -8.86174e-05 0)
(0.000704467 -3.44382e-05 0)
(0.000797086 -3.06749e-05 0)
(4.68173e-05 -0.000398289 0)
(0.000657838 -3.22107e-05 0)
(0.000251603 -0.000330272 0)
(0.000340591 -0.00020879 0)
(0.000867574 -6.39653e-05 0)
(0.000942697 -5.85234e-05 0)
(0.000999241 -7.77397e-06 0)
(0.000939607 -6.56406e-05 0)
(0.00070178 -2.58586e-05 0)
(0.000698946 -2.85018e-05 0)
(0.000725392 -1.62996e-05 0)
(0.000908932 -2.41947e-05 0)
(0.00064911 -3.53984e-05 0)
(0.000598064 -5.60284e-05 0)
(0.000688957 -4.32995e-05 0)
(0.00078333 -5.98755e-05 0)
(0.000360563 -0.000214095 0)
(0.000420829 -0.000154468 0)
(2.36248e-05 -0.000408384 0)
(0.00100131 -8.2999e-06 0)
(0.000946138 -6.10533e-05 0)
(0.00046938 -0.000124897 0)
(0.000524308 -9.23647e-05 0)
(0.00019227 -0.000370332 0)
(0.00074531 -2.70538e-05 0)
(0.000833259 -1.89648e-06 0)
(0.000758627 -3.12932e-05 0)
(0.000423484 -0.000192081 0)
(0.000669467 -7.76868e-05 0)
(0.000404995 -0.000198219 0)
(0.000605642 -5.79947e-05 0)
(0.000931316 -5.07937e-05 0)
(0.000824279 -8.73388e-06 0)
(0.000823921 -7.42999e-06 0)
(0.000539093 -8.85018e-05 0)
(0.000371101 -0.0002023 0)
(0.000864059 -1.32521e-05 0)
(0.000724565 -9.88504e-05 0)
(0.000677947 -3.1262e-05 0)
(0.000668888 -3.33402e-05 0)
(0.000796543 -3.31945e-05 0)
(0.0004534 -0.00013407 0)
(0.000276395 -0.000320993 0)
(0.00073808 -7.96081e-05 0)
(0.000222206 -0.000313732 0)
(0.000289176 -0.000277093 0)
(0.000263154 -0.00029646 0)
(0.000896942 -9.15354e-05 0)
(0.0005809 -8.52281e-05 0)
(0.000910506 -4.92611e-05 0)
(0.000420582 -0.000157934 0)
(0.000619422 -8.00568e-05 0)
(7.83796e-05 -0.000448303 0)
(0.000824898 -2.33114e-05 0)
(0.000793419 -7.35278e-05 0)
(0.000806206 -7.26112e-05 0)
(0.000715235 -9.74355e-05 0)
(0.000330243 -0.000215952 0)
(0.00075792 -2.88601e-05 0)
(0.000786566 -6.55023e-06 0)
(0.000930258 -6.1082e-05 0)
(0.000904696 -4.89576e-05 0)
(0.000906607 -3.28422e-05 0)
(0.000890924 -3.32047e-05 0)
(0.000478946 -0.000117006 0)
(0.000826986 -1.91434e-06 0)
(0.000476665 -0.000118642 0)
(0.000169876 -0.000378982 0)
(0.000903083 -8.10887e-06 0)
(0.000905291 -1.19e-05 0)
(0.000434025 -0.000168487 0)
(0.000594933 -6.51143e-05 0)
(0.000953693 -3.656e-05 0)
(5.36304e-05 -0.000445966 0)
(0.000861105 -9.26336e-06 0)
(7.81662e-06 -0.000485434 0)
(0.000979527 -1.21474e-05 0)
(0.000982226 -1.05293e-05 0)
(0.000920304 -6.60335e-05 0)
(0.000921678 -6.89548e-05 0)
(0.000875596 -9.47734e-05 0)
(0.000733683 -8.32979e-06 0)
(0.000738401 -7.64061e-06 0)
(0.000256068 -0.000299741 0)
(0.000237089 -0.000314617 0)
(0.000347532 -0.000207766 0)
(0.000866892 -6.72277e-05 0)
(0.000977939 -3.66909e-06 0)
(0.000623887 -4.52273e-05 0)
(0.000733023 -8.28431e-06 0)
(0.000682996 -0.000105118 0)
(0.000911876 -3.40181e-05 0)
(0.000344039 -0.000209255 0)
(0.000246935 -0.000302657 0)
(3.95628e-05 -0.000448331 0)
(0.000717559 -2.51068e-05 0)
(0.000120198 -0.000414856 0)
(0.000713198 -1.68634e-05 0)
(0.000702604 -2.36846e-05 0)
(0.000301485 -0.000263588 0)
(0.000978445 -6.42651e-06 0)
(0.000436135 -0.000148402 0)
(0.000217958 -0.000296448 0)
(0.000435223 -0.000248682 0)
(0.000729797 -1.20986e-05 0)
(0.000691828 -4.78762e-05 0)
(0.000429046 -0.00015795 0)
(0.000736954 -1.09507e-05 0)
(0.000823041 -4.90838e-06 0)
(0.00074471 -2.17388e-05 0)
(0.000404947 -0.00024654 0)
(0.000974232 -7.87465e-06 0)
(0.000895915 -3.48485e-05 0)
(0.000127519 -0.000408658 0)
(0.000896352 -3.00758e-05 0)
(0.000389058 -0.000178644 0)
(0.000531868 -0.00011868 0)
(0.000717746 -7.72319e-06 0)
(0.00083021 -0.000103016 0)
(0.000450359 -0.000160721 0)
(0.000693232 -7.38731e-05 0)
(0.000827593 -8.4523e-05 0)
(0.000831095 -8.75973e-05 0)
(0.000754558 -1.12644e-05 0)
(0.00063247 -4.15738e-05 0)
(0.000412438 -0.000228293 0)
(0.000600092 -0.000115262 0)
(0.000614921 -0.000112303 0)
(0.000640371 -7.62484e-05 0)
(0.000693771 -2.93642e-05 0)
(0.00088032 -3.45886e-05 0)
(0.000269758 -0.000256807 0)
(0.000406508 -0.000163938 0)
(0.000951743 -5.34011e-05 0)
(0.000595315 -7.9871e-05 0)
(0.000293169 -0.000280904 0)
(0.000809719 -6.52647e-05 0)
(3.96738e-05 -0.000473277 0)
(0.000904356 -8.30765e-05 0)
(3.64876e-05 -0.000479017 0)
(0.000889987 -1.0724e-05 0)
(0.000895789 -8.55813e-06 0)
(0.00100666 -4.27716e-06 0)
(0.000938639 -7.50434e-05 0)
(0.000878585 -2.0521e-05 0)
(0.00073646 -1.53746e-05 0)
(0.00040192 -0.000188546 0)
(7.37331e-05 -0.000446377 0)
(0.000695908 -0.000113651 0)
(0.000315457 -0.000267832 0)
(0.000359189 -0.000208555 0)
(0.000755356 -1.25487e-05 0)
(8.52876e-05 -0.000437829 0)
(0.00087629 -5.0471e-05 0)
(0.000742656 -9.30729e-06 0)
(0.00096887 -3.43863e-05 0)
(0.000749447 -8.04077e-06 0)
(0.000751436 -6.29728e-06 0)
(0.000545879 -0.000112804 0)
(0.000518761 -0.000138825 0)
(0.000669559 -5.18044e-05 0)
(0.000902605 -8.04021e-05 0)
(0.000992556 -3.6125e-06 0)
(0.00091735 -8.57988e-05 0)
(0.000858774 -4.09919e-05 0)
(0.000681302 -2.44659e-05 0)
(9.28397e-05 -0.00043738 0)
(0.000246134 -0.000294913 0)
(0.000509551 -0.00013391 0)
(0.000733716 -0.000104592 0)
(0.000684388 -7.06648e-05 0)
(0.000679866 -6.39119e-05 0)
(0.000750428 -1.74861e-05 0)
(0.000775015 -9.38669e-05 0)
(0.000580849 -6.37202e-05 0)
(1.2819e-05 -0.000487731 0)
(0.000691356 -2.48236e-05 0)
(0.000677646 -0.000110172 0)
(0.000864067 -3.83181e-05 0)
(0.000696148 -2.60952e-05 0)
(0.000728584 -5.04978e-06 0)
(0.000208441 -0.000306629 0)
(0.000761571 -5.21048e-06 0)
(0.000781676 -8.53984e-05 0)
(0.000693637 -1.99994e-05 0)
(0.000433362 -0.000147273 0)
(0.000978338 -2.26977e-05 0)
(0.000833609 -4.09213e-05 0)
(0.000965015 -2.10779e-06 0)
(0.000875634 -9.76937e-05 0)
(0.000521162 -0.000119828 0)
(0.000712829 -1.3529e-05 0)
(0.000893673 -9.94658e-05 0)
(0.000816364 -6.22156e-05 0)
(9.35598e-05 -0.000433656 0)
(0.000777064 -4.90115e-05 0)
(0.000746878 -2.95412e-05 0)
(0.000795058 -4.25361e-05 0)
(0.000978305 -7.78538e-07 0)
(6.74031e-05 -0.000452006 0)
(0.000716518 -7.42869e-05 0)
(0.000688232 -6.77807e-05 0)
(0.000767339 -5.22913e-05 0)
(1.19346e-05 -0.000459502 0)
(0.00075605 -1.04063e-06 0)
(8.92957e-05 -0.000426634 0)
(0.000737081 -2.38081e-05 0)
(0.000119985 -0.000414726 0)
(0.000667733 -5.33447e-05 0)
(0.000114782 -0.000420742 0)
(0.000681658 -6.65924e-05 0)
(0.000323178 -0.000221826 0)
(0.00019869 -0.00034515 0)
(0.000885093 -4.34511e-05 0)
(0.000850858 -2.34514e-05 0)
(0.000842259 -2.33395e-05 0)
(0.000721571 -1.05599e-05 0)
(0.000723923 -1.04279e-05 0)
(0.000843887 -3.9617e-05 0)
(0.000948291 -3.65767e-05 0)
(0.000712313 -3.43452e-05 0)
(0.000747009 -6.59515e-06 0)
(0.000991294 -8.68995e-06 0)
(0.00092992 -6.8513e-05 0)
(0.000718795 -9.34076e-05 0)
(0.000860471 -9.00244e-07 0)
(0.000940656 -4.3928e-05 0)
(0.000660228 -5.26345e-05 0)
(0.000941073 -3.50249e-05 0)
(0.00081641 -2.36721e-05 0)
(0.000166774 -0.000359163 0)
(0.000149219 -0.000375536 0)
(0.000632568 -5.3392e-05 0)
(0.000702434 -1.70025e-05 0)
(0.000701019 -4.03499e-05 0)
(0.000659555 -5.04742e-05 0)
(0.000718955 -1.21674e-05 0)
(0.000951696 -1.81012e-05 0)
(0.000908927 -6.27587e-05 0)
(0.000704513 -3.66055e-05 0)
(0.000743429 -0.000114257 0)
(0.000993734 -4.49944e-06 0)
(0.000921191 -8.1728e-05 0)
(0.000868973 -6.62945e-06 0)
(0.000703415 -4.86558e-05 0)
(0.000745923 -1.23519e-05 0)
(0.00031956 -0.00022325 0)
(0.000952086 -1.64318e-05 0)
(0.000904833 -6.60335e-05 0)
(0.000592266 -6.38375e-05 0)
(0.000685355 -5.30354e-05 0)
(0.000618779 -6.83999e-05 0)
(0.000606557 -5.21867e-05 0)
(0.00079616 -7.25464e-06 0)
(0.000717816 -8.3385e-05 0)
(0.000718408 -6.96938e-05 0)
(0.00022712 -0.000346002 0)
(0.000723814 -2.50564e-05 0)
(0.000705908 -3.82995e-05 0)
(0.000702703 -2.01526e-05 0)
(0.000944584 -2.03104e-05 0)
(0.00052552 -0.000103796 0)
(0.000759841 -5.20233e-05 0)
(0.000763302 -8.49172e-05 0)
(0.000706946 -8.42501e-05 0)
(0.000577085 -0.000180704 0)
(0.000161725 -0.000381944 0)
(0.000732987 -2.8501e-05 0)
(0.000417058 -0.000182634 0)
(0.000533831 -9.58398e-05 0)
(2.02919e-05 -0.000463414 0)
(0.000141429 -0.000395335 0)
(0.000654124 -6.48807e-05 0)
(0.000893743 -6.40787e-05 0)
(0.00079107 -8.13778e-05 0)
(0.000542247 -9.43915e-05 0)
(0.000555697 -8.97643e-05 0)
(0.00076267 -4.04963e-05 0)
(2.57782e-05 -0.000490585 0)
(0.000213659 -0.00032879 0)
(0.000763313 -6.27726e-06 0)
(0.00100335 -3.82582e-06 0)
(0.000932305 -7.92011e-05 0)
(0.000894254 -6.73832e-05 0)
(0.000668678 -2.84656e-05 0)
(0.00018024 -0.000374449 0)
(0.000517901 -9.84135e-05 0)
(0.000768002 -2.54064e-05 0)
(0.000730966 -2.67573e-05 0)
(0.000744449 -1.95956e-05 0)
(0.000907323 -8.98286e-05 0)
(0.000679653 -3.29355e-05 0)
(0.000936941 -3.42188e-05 0)
(0.000677605 -2.5455e-05 0)
(0.000985802 -1.9932e-05 0)
(0.000118391 -0.000411478 0)
(0.000901627 -6.17885e-05 0)
(0.000986075 -3.1862e-06 0)
(0.000120651 -0.000410298 0)
(0.000860141 -1.5165e-05 0)
(0.000946079 -1.56422e-05 0)
(0.000134303 -0.000376498 0)
(0.000277725 -0.00033846 0)
(0.000879159 -2.41002e-05 0)
(0.000693968 -2.34257e-05 0)
(0.000648665 -9.55022e-05 0)
(0.000542026 -0.000102011 0)
(0.000855374 -4.81967e-05 0)
(0.00085433 -4.59088e-05 0)
(0.000758542 -4.40503e-05 0)
(3.35088e-05 -0.000486003 0)
(0.000730236 -0.000108858 0)
(0.000751027 -9.71191e-07 0)
(0.000646748 -9.23145e-05 0)
(0.000555848 -9.22897e-05 0)
(0.000793725 -4.80487e-05 0)
(0.000279383 -0.000251066 0)
(0.000765305 -4.1176e-06 0)
(0.000104616 -0.000412064 0)
(0.000635328 -4.68342e-05 0)
(0.00081151 -1.05084e-05 0)
(0.000806161 -9.58277e-06 0)
(8.27979e-05 -0.000447822 0)
(0.000554056 -0.000102924 0)
(0.000555427 -0.000105937 0)
(0.000875832 -3.26259e-05 0)
(2.1606e-05 -0.000443713 0)
(0.000624222 -5.13764e-05 0)
(0.000847918 -1.89769e-05 0)
(0.000567866 -7.12514e-05 0)
(0.00100602 -1.88684e-06 0)
(0.000930305 -8.61963e-05 0)
(0.000266918 -0.000285799 0)
(0.000602795 -7.99961e-05 0)
(0.00070946 -3.10573e-05 0)
(0.000683235 -3.32551e-05 0)
(0.000676366 -0.000119454 0)
(0.000216638 -0.000336947 0)
(0.00019757 -0.000352783 0)
(0.000633682 -9.05489e-05 0)
(0.000537973 -0.000101292 0)
(0.000644728 -5.07169e-05 0)
(0.000831268 -6.97786e-05 0)
(0.000561538 -7.9322e-05 0)
(0.000568652 -7.47651e-05 0)
(0.000868218 -9.46013e-05 0)
(1.28759e-05 -0.000438667 0)
(0.000488096 -0.000135944 0)
(0.000950519 -3.98564e-05 0)
(0.000505487 -0.00012389 0)
(0.000664 -0.000102518 0)
(0.000881949 -3.0175e-05 0)
(7.24995e-05 -0.000449958 0)
(0.000998853 -2.34199e-06 0)
(0.000922722 -8.72939e-05 0)
(0.000837123 -2.90154e-05 0)
(0.000886148 -1.94997e-05 0)
(0.000990049 -1.64167e-05 0)
(0.000743797 -0.000101822 0)
(0.000214158 -0.000305169 0)
(0.000804925 -5.82711e-05 0)
(0.00080285 -5.53701e-05 0)
(0.000886272 -2.42301e-05 0)
(0.000784288 -4.97831e-05 0)
(0.000818692 -1.00409e-05 0)
(0.000880099 -2.83399e-05 0)
(0.0006039 -5.93457e-05 0)
(0.00065081 -0.000107196 0)
(0.00079226 -1.61705e-05 0)
(0.000372493 -0.000195859 0)
(0.00089049 -4.46234e-05 0)
(0.000575327 -8.46496e-05 0)
(0.000665547 -8.35478e-05 0)
(0.000707198 -6.92788e-05 0)
(0.000171258 -0.000349844 0)
(0.000570049 -9.45682e-05 0)
(0.000582827 -9.21246e-05 0)
(0.000954285 -4.71771e-06 0)
(0.00024801 -0.000348677 0)
(0.000931816 -1.95039e-05 0)
(0.000766131 -1.19546e-05 0)
(0.000798875 -6.56525e-05 0)
(0.000886791 -4.80416e-05 0)
(0.000922849 -5.19132e-05 0)
(0.000808081 -2.84628e-05 0)
(0.000657158 -6.71295e-05 0)
(0.000727586 -3.15483e-06 0)
(0.000876826 -6.13839e-05 0)
(1.14733e-05 -0.000494034 0)
(0.000774552 -3.37656e-05 0)
(0.000875281 -5.78881e-06 0)
(0.000817722 -2.90918e-05 0)
(0.000924269 -2.12211e-05 0)
(0.000765661 -2.32182e-05 0)
(0.000279334 -0.00024956 0)
(0.000763607 -1.13239e-05 0)
(0.000658281 -0.000100042 0)
(0.000782217 -4.32257e-05 0)
(0.000697453 -0.000103502 0)
(0.000554909 -9.5616e-05 0)
(0.00077563 -4.56882e-05 0)
(0.000723341 -0.000102611 0)
(0.000984142 -1.88641e-05 0)
(0.000159314 -0.000382328 0)
(0.000210887 -0.000356406 0)
(0.000821388 -4.66046e-05 0)
(0.000808928 -7.62346e-05 0)
(0.000790939 -8.70688e-06 0)
(0.000772698 -8.36631e-05 0)
(0.000917871 -5.99487e-05 0)
(0.000823289 -5.22584e-05 0)
(0.000799602 -1.64857e-05 0)
(0.00028523 -0.000321636 0)
(0.000951313 -1.33314e-05 0)
(0.000726301 -9.92825e-06 0)
(0.000818432 -6.1508e-06 0)
(0.000324615 -0.000293602 0)
(0.000656807 -3.3076e-05 0)
(0.000632861 -0.000114155 0)
(0.000652514 -3.51114e-05 0)
(0.0005787 -6.52108e-05 0)
(0.000791635 -6.07388e-07 0)
(0.000937261 -2.07708e-05 0)
(4.52234e-05 -0.000476891 0)
(0.000110949 -0.000418081 0)
(0.000775783 -6.87072e-06 0)
(0.000813496 -4.63642e-05 0)
(0.000925168 -2.75398e-05 0)
(0.000918744 -2.76849e-05 0)
(0.000949149 -3.64353e-06 0)
(0.000928116 -5.85966e-05 0)
(0.000155723 -0.000358135 0)
(0.000911505 -1.27271e-05 0)
(0.000278514 -0.000255133 0)
(0.000715669 -2.21324e-05 0)
(0.000722147 -2.17606e-05 0)
(0.00028558 -0.000248505 0)
(0.000866564 -4.78818e-05 0)
(0.000874948 -4.48584e-05 0)
(0.000939859 -7.78046e-06 0)
(0.00088952 -3.81476e-05 0)
(0.000813129 -6.42026e-06 0)
(0.000666525 -6.64192e-05 0)
(0.000918772 -2.54024e-05 0)
(0.000807309 -8.07998e-06 0)
(0.000851835 -0.000103165 0)
(3.50377e-05 -0.0004856 0)
(0.00064518 -0.000128342 0)
(0.000521682 -0.000138072 0)
(0.00021594 -0.000359687 0)
(0.000734087 -1.71636e-06 0)
(0.000625062 -6.89858e-05 0)
(0.000804091 -1.92722e-05 0)
(0.00079823 -1.86509e-05 0)
(0.000688302 -3.16523e-05 0)
(0.000484962 -0.000123615 0)
(0.000760831 -1.37673e-05 0)
(0.000777315 -2.46109e-05 0)
(0.000846122 -2.80994e-05 0)
(0.000904863 -4.23676e-06 0)
(0.000309648 -0.000238428 0)
(0.000534492 -9.09751e-05 0)
(0.000574312 -7.60042e-05 0)
(0.000815974 -2.90255e-06 0)
(8.3227e-05 -0.000447963 0)
(0.00055978 -8.17081e-05 0)
(0.000511682 -0.000117984 0)
(0.00083342 -5.03425e-05 0)
(0.000118152 -0.000403442 0)
(0.000126975 -0.000387805 0)
(0.000845472 -4.51118e-05 0)
(0.000810335 -9.98583e-05 0)
(0.000118576 -0.000414049 0)
(0.000948059 -4.54255e-05 0)
(5.82195e-05 -0.000447359 0)
(0.000786726 -8.65072e-07 0)
(0.000790276 -6.99416e-05 0)
(0.000398379 -0.000226167 0)
(0.000766942 -3.10524e-05 0)
(0.000655719 -3.25764e-05 0)
(0.000741965 -8.24354e-06 0)
(0.000725949 -9.1228e-06 0)
(0.000151187 -0.000389921 0)
(0.000369422 -0.00023929 0)
(0.000274214 -0.000266219 0)
(0.000954531 -2.13448e-05 0)
(0.000632528 -5.15592e-05 0)
(0.000621456 -0.000115779 0)
(0.000876268 -2.25448e-05 0)
(0.00069244 -2.52602e-05 0)
(0.000500864 -0.000133708 0)
(0.000843601 -6.8228e-05 0)
(0.000674471 -2.60959e-05 0)
(0.000510161 -0.000100542 0)
(0.000545608 -8.66512e-05 0)
(0.000744453 -3.04546e-06 0)
(0.000737401 -4.81974e-06 0)
(0.000720622 -1.343e-05 0)
(0.000402913 -0.000171455 0)
(0.000261851 -0.000277775 0)
(0.000158489 -0.000381931 0)
(0.000493864 -0.000110632 0)
(0.000739676 -4.69949e-06 0)
(0.000141325 -0.00039647 0)
(0.000806404 -1.10167e-06 0)
(0.000836979 -4.65859e-05 0)
(0.000596947 -8.59677e-05 0)
(0.000513498 -0.000114549 0)
(0.000707737 -2.77239e-05 0)
(0.000655492 -0.000112351 0)
(0.000109899 -0.000423635 0)
(4.77891e-06 -0.000493363 0)
(2.04925e-05 -0.000453808 0)
(0.00032525 -0.000245599 0)
(0.000184655 -0.000354559 0)
(0.000525635 -0.000126127 0)
(0.000537556 -0.000124792 0)
(0.000854146 -1.47283e-06 0)
(0.000950074 -9.71895e-06 0)
(0.000851338 -3.1815e-05 0)
(0.000836918 -7.24017e-07 0)
(0.000845716 -1.68698e-05 0)
(4.01638e-05 -0.000443189 0)
(0.000724641 -9.97723e-06 0)
(0.000958523 -4.11181e-05 0)
(0.000758281 -1.68057e-05 0)
(0.0001415 -0.000396286 0)
(0.000494077 -0.000109255 0)
(0.000771078 -6.94457e-06 0)
(0.000735787 -6.13405e-06 0)
(0.000564472 -0.000120936 0)
(0.000669309 -3.90249e-05 0)
(0.000245474 -0.000282057 0)
(0.000716323 -1.69469e-05 0)
(0.000874624 -3.74034e-05 0)
(0.000228057 -0.000295956 0)
(0.000260204 -0.000285288 0)
(0.000730307 -1.08758e-05 0)
(0.000836017 -5.59696e-05 0)
(0.000755738 -5.21537e-06 0)
(0.000118493 -0.000401738 0)
(0.000763545 -9.45055e-05 0)
(0.000435989 -0.00014715 0)
(0.000482513 -0.000145742 0)
(0.00094134 -3.10996e-05 0)
(0.000934628 -3.10837e-05 0)
(0.000688441 -5.15682e-05 0)
(0.000426702 -0.000153384 0)
(0.000672834 -2.83112e-05 0)
(0.000879586 -1.61422e-05 0)
(0.000880252 -1.40945e-05 0)
(0.000261137 -0.000286177 0)
(0.000190927 -0.000350349 0)
(0.000818033 -0.00010075 0)
(0.000535526 -0.000123113 0)
(0.000661932 -9.46795e-05 0)
(0.000965308 -9.22318e-06 0)
(0.000239298 -0.000296898 0)
(0.000808089 -9.24266e-05 0)
(0.000702759 -9.95346e-05 0)
(0.000793179 -1.46212e-05 0)
(0.000605596 -0.000126278 0)
(0.000596792 -5.70877e-05 0)
(0.000192571 -0.000331546 0)
(0.000845522 -3.39627e-05 0)
(0.000444385 -0.00014966 0)
(0.000646219 -4.41688e-05 0)
(0.000524727 -0.000114533 0)
(0.00045298 -0.000152652 0)
(0.000852994 -8.88574e-05 0)
(0.000908564 -6.79192e-05 0)
(0.000825379 -6.75684e-05 0)
(0.000486897 -0.000126556 0)
(0.000438655 -0.000158182 0)
(0.00048072 -0.000117612 0)
(0.000906367 -5.78314e-05 0)
(0.00094687 -7.94951e-06 0)
(0.000645132 -7.12758e-05 0)
(0.000729114 -7.45822e-05 0)
(0.000657644 -4.34014e-05 0)
(0.000824781 -2.74837e-05 0)
(0.00061739 -7.46758e-05 0)
(0.000569983 -6.8667e-05 0)
(0.000859317 -6.27287e-05 0)
(5.1357e-05 -0.00045309 0)
(0.000133162 -0.000387074 0)
(0.000154624 -0.000383877 0)
(0.000763326 -3.1806e-06 0)
(0.000858141 -2.13387e-05 0)
(0.000894194 -8.02994e-05 0)
(0.000786747 -0.000109723 0)
(8.27741e-06 -0.000469276 0)
(0.000697813 -1.91042e-05 0)
(0.000625877 -4.66554e-05 0)
(0.000632798 -4.29209e-05 0)
(0.000797427 -0.000108 0)
(0.000932676 -1.17991e-05 0)
(0.000372756 -0.000194974 0)
(0.000735676 -6.20761e-05 0)
(0.000729558 -6.01369e-05 0)
(0.000452068 -0.000152199 0)
(0.000781383 -0.000113024 0)
(0.000151523 -0.000385986 0)
(0.000865187 -7.7308e-05 0)
(0.000879304 -7.79263e-05 0)
(0.000851018 -9.58035e-05 0)
(0.000796373 -6.21791e-05 0)
(0.000177627 -0.000364159 0)
(0.00085677 -9.80075e-05 0)
(0.000994441 -1.06081e-05 0)
(0.000625928 -4.47932e-05 0)
(0.000756867 -9.28147e-05 0)
(0.000757045 -8.84241e-05 0)
(0.000636126 -4.09209e-05 0)
(0.000603728 -7.37944e-05 0)
(0.000828886 -5.79887e-05 0)
(0.000457604 -0.000153788 0)
(0.000784722 -1.96301e-06 0)
(0.000321446 -0.000240433 0)
(0.000539389 -9.32807e-05 0)
(0.0008521 -1.15001e-05 0)
(0.000548386 -8.79332e-05 0)
(0.000733522 -0.000112566 0)
(0.000136182 -0.000397326 0)
(0.000934485 -2.97374e-06 0)
(0.000121108 -0.000405847 0)
(0.000175338 -0.00036536 0)
(0.000527616 -0.000140948 0)
(0.000804698 -0.000110567 0)
(0.000816288 -3.20788e-05 0)
(0.000825084 -9.20071e-05 0)
(0.000161755 -0.000347671 0)
(0.000765665 -2.17426e-06 0)
(0.000390018 -0.000174097 0)
(0.000751743 -4.1555e-06 0)
(0.0010091 -2.45732e-06 0)
(0.000936171 -8.21208e-05 0)
(0.000834071 -9.95052e-05 0)
(0.000383404 -0.000178421 0)
(0.000786524 -7.75982e-05 0)
(0.000798229 -2.01807e-06 0)
(0.000662276 -9.38932e-05 0)
(0.000804829 -2.27378e-06 0)
(5.30287e-05 -0.000471802 0)
(0.000236531 -0.000297123 0)
(0.000886242 -6.38917e-05 0)
(2.4927e-05 -0.000485157 0)
(0.000709548 -6.55932e-05 0)
(0.000746875 -5.29794e-06 0)
(0.000659699 -3.33173e-05 0)
(0.000505412 -0.00011772 0)
(0.000907409 -5.93454e-06 0)
(0.000778885 -1.73856e-06 0)
(0.000652242 -7.66567e-05 0)
(0.00094697 -2.20081e-05 0)
(0.000681805 -2.68639e-05 0)
(6.81547e-05 -0.000425988 0)
(0.000574819 -6.66222e-05 0)
(0.000925147 -3.33882e-05 0)
(0.00050633 -0.000127577 0)
(0.000714279 -4.64747e-05 0)
(0.000525423 -0.000114327 0)
(0.000797356 -9.44169e-05 0)
(0.00081196 -7.72536e-07 0)
(2.2855e-05 -0.000489115 0)
(0.000333752 -0.000227417 0)
(0.000915768 -5.56867e-05 0)
(0.000380202 -0.00018595 0)
(6.05304e-05 -0.000433305 0)
(0.000603992 -6.26893e-05 0)
(0.000324014 -0.000232947 0)
(0.000701463 -5.63605e-05 0)
(0.000776353 -2.53236e-06 0)
(0.000712505 -2.88661e-05 0)
(0.000528199 -0.000106216 0)
(0.000706168 -4.13698e-05 0)
(0.000271445 -0.000284666 0)
(0.000298672 -0.000248902 0)
(0.000551765 -0.000183521 0)
(0.000608637 -5.17243e-05 0)
(0.000287511 -0.000249638 0)
(0.000300796 -0.000257542 0)
(0.000603128 -5.47193e-05 0)
(0.000811817 -4.36724e-05 0)
(0.000640486 -5.39775e-05 0)
(0.00064606 -5.3813e-05 0)
(0.000721263 -1.44039e-05 0)
(0.000554764 -0.000134641 0)
(0.000720924 -1.55589e-05 0)
(0.000527701 -0.000102104 0)
(0.000522355 -0.000106564 0)
(0.000186738 -0.000349348 0)
(0.000859884 -2.60085e-05 0)
(0.000760052 -1.97725e-05 0)
(0.000838699 -6.65229e-06 0)
(0.00084373 -5.55557e-06 0)
(0.000904791 -4.50063e-05 0)
(0.000178267 -0.000367169 0)
(0.000684718 -2.45361e-05 0)
(0.000300889 -0.000237054 0)
(0.000464552 -0.0001355 0)
(0.000912987 -1.97268e-05 0)
(0.000538265 -0.000210201 0)
(0.000898186 -3.93369e-06 0)
(0.000866236 -2.49172e-05 0)
(0.000515723 -0.000102189 0)
(0.000645706 -4.61773e-05 0)
(0.000763864 -1.09856e-06 0)
(0.000827658 -2.52325e-05 0)
(0.000910581 -5.15336e-05 0)
(0.000808173 -2.62316e-05 0)
(0.000706075 -1.98747e-05 0)
(0.000923502 -3.53639e-05 0)
(0.000690051 -3.83694e-05 0)
(0.000978369 -1.58624e-05 0)
(0.000624531 -7.49849e-05 0)
(0.000552551 -7.75058e-05 0)
(0.000540759 -8.34979e-05 0)
(0.000731727 -3.48131e-06 0)
(0.000709354 -4.94558e-05 0)
(0.0008029 -4.37218e-06 0)
(0.000959237 -8.7819e-06 0)
(0.000813896 -6.87772e-05 0)
(0.000867007 -5.02321e-05 0)
(0.000110126 -0.000411484 0)
(0.000920908 -4.92789e-06 0)
(0.000668977 -4.61616e-05 0)
(0.000902591 -1.69452e-05 0)
(0.000239135 -0.000280351 0)
(0.000512837 -9.79417e-05 0)
(0.000701449 -1.73942e-05 0)
(0.000521214 -9.32109e-05 0)
(9.64095e-05 -0.000435674 0)
(0.000709228 -3.71849e-05 0)
(0.000865475 -2.13871e-05 0)
(0.00091439 -1.98181e-06 0)
(0.000884558 -8.30082e-05 0)
(0.000636831 -0.000119356 0)
(0.000620597 -8.981e-05 0)
(0.000511526 -0.000211621 0)
(0.000792854 -5.85637e-06 0)
(0.000255231 -0.00027314 0)
(0.000802096 -6.92673e-06 0)
(0.000848651 -7.03107e-05 0)
(4.6172e-05 -0.000475886 0)
(0.000851799 -2.99725e-06 0)
(0.000830992 -6.35556e-05 0)
(0.000575938 -0.0001197 0)
(0.000756784 -3.61641e-05 0)
(0.000765882 -3.40092e-05 0)
(0.000859847 -0.00010469 0)
(0.000800624 -8.09804e-05 0)
(0.000844773 -8.93679e-05 0)
(0.00066559 -0.000112656 0)
(0.00090751 -4.22533e-05 0)
(0.000668847 -3.03937e-05 0)
(0.000961595 -1.76324e-05 0)
(0.000201122 -0.000321351 0)
(0.000735079 -2.83606e-06 0)
(0.000814072 -5.8503e-05 0)
(0.000821331 -5.63448e-05 0)
(0.000965131 -2.50446e-05 0)
(0.000681037 -2.48831e-05 0)
(0.000752046 -0.00010283 0)
(0.000742216 -1.61347e-06 0)
(0.000318009 -0.000328559 0)
(0.000664787 -7.74894e-05 0)
(0.000731776 -6.63226e-05 0)
(0.000760997 -1.21081e-06 0)
(0.000827447 -7.32463e-05 0)
(0.000291896 -0.000251239 0)
(0.00029727 -0.0002384 0)
(0.000313069 -0.000226837 0)
(0.000800585 -0.000102961 0)
(0.000902089 -3.91579e-05 0)
(0.000950429 -3.25075e-05 0)
(0.0008929 -3.98478e-05 0)
(0.000469943 -0.000127091 0)
(0.000800079 -4.01006e-05 0)
(0.000817959 -7.58622e-05 0)
(0.000470765 -0.000133653 0)
(0.000752991 -0.000111553 0)
(0.000641618 -0.000109692 0)
(0.000658813 -3.39408e-05 0)
(0.000649947 -3.60752e-05 0)
(0.000814756 -1.44818e-05 0)
(0.000236056 -0.000323811 0)
(0.000920211 -5.68607e-05 0)
(0.00042833 -0.000271962 0)
(0.000668358 -6.98083e-05 0)
(0.000388034 -0.000181296 0)
(0.000975979 -2.49151e-05 0)
(0.000608215 -6.30917e-05 0)
(0.000882491 -9.53232e-06 0)
(0.000841122 -2.08882e-05 0)
(0.000310981 -0.000228979 0)
(0.000720894 -1.3118e-05 0)
(0.000302248 -0.000234116 0)
(0.000702193 -8.17931e-05 0)
(0.000704932 -7.76609e-05 0)
(0.000254886 -0.000308794 0)
(0.000859088 -1.14493e-05 0)
(0.0010018 -5.69985e-06 0)
(0.000927999 -7.27935e-05 0)
(0.000936414 -7.22543e-05 0)
(0.000993187 -7.24734e-06 0)
(0.000588515 -0.000156714 0)
(0.000813202 -2.19636e-05 0)
(0.00097222 -2.30371e-05 0)
(0.000717886 -1.2885e-05 0)
(0.000710883 -1.56801e-05 0)
(0.00052712 -0.000147377 0)
(0.000486534 -0.000116643 0)
(0.000305998 -0.000240075 0)
(0.000667412 -4.66577e-05 0)
(0.000463579 -0.000210375 0)
(0.000774294 -5.63028e-05 0)
(0.000627408 -8.69804e-05 0)
(0.000466469 -0.000143396 0)
(0.000472226 -0.000140513 0)
(0.000909139 -3.71149e-05 0)
(0.000569908 -9.14842e-05 0)
(0.000383597 -0.000178722 0)
(8.84324e-05 -0.000433261 0)
(0.000596036 -9.48783e-05 0)
(0.000595673 -9.91687e-05 0)
(0.000920789 -3.5494e-06 0)
(0.000394641 -0.000171086 0)
(0.000745169 -1.11572e-05 0)
(0.00090833 -2.09263e-06 0)
(1.35735e-05 -0.000480206 0)
(0.000375793 -0.000207183 0)
(0.000857766 -8.59206e-05 0)
(0.000741201 -7.07489e-05 0)
(0.00041274 -0.000176114 0)
(0.000709071 -1.49323e-05 0)
(0.000713684 -1.34441e-05 0)
(0.000806151 -3.37829e-05 0)
(0.000923111 -1.61472e-05 0)
(0.00061337 -0.000153542 0)
(0.000144527 -0.000394152 0)
(0.000785 -6.32235e-05 0)
(0.000642082 -8.37402e-05 0)
(0.000741321 -3.61963e-05 0)
(0.000735157 -3.54712e-05 0)
(0.000964854 -5.6e-06 0)
(0.000397181 -0.000184063 0)
(5.75889e-05 -0.000467091 0)
(2.86711e-05 -0.000475777 0)
(0.000636274 -6.54362e-05 0)
(0.000469198 -0.000132509 0)
(0.000654044 -0.000108614 0)
(0.000656677 -4.59493e-05 0)
(0.000686083 -2.86172e-05 0)
(0.000736607 -3.28068e-05 0)
(0.000631601 -4.20788e-05 0)
(0.000653763 -8.71033e-05 0)
(0.000447257 -0.000136547 0)
(0.000777492 -3.57122e-05 0)
(0.000110865 -0.000399765 0)
(0.000615076 -5.2377e-05 0)
(0.00046492 -0.000125821 0)
(0.000606332 -5.50763e-05 0)
(0.000457267 -0.0001317 0)
(0.000593632 -0.000125615 0)
(0.000763604 -8.65722e-06 0)
(0.000438803 -0.000141903 0)
(0.000762358 -9.84341e-06 0)
(0.000813958 -9.43791e-05 0)
(0.000681202 -5.88388e-05 0)
(0.000559871 -9.0772e-05 0)
(0.00089994 -1.91419e-05 0)
(0.000106896 -0.000421017 0)
(0.000144083 -0.000391282 0)
(0.000678637 -6.22647e-05 0)
(0.000317506 -0.000224112 0)
(0.000901082 -2.44423e-05 0)
(0.000916257 -2.1484e-05 0)
(0.000458892 -0.000141774 0)
(0.000975969 -1.01223e-05 0)
(0.000932724 -1.78763e-05 0)
(0.000369993 -0.000196048 0)
(0.000807741 -1.4451e-05 0)
(0.000728667 -7.61753e-06 0)
(0.00059204 -0.000121647 0)
(0.000862906 -5.92962e-05 0)
(0.000711637 -1.83615e-05 0)
(8.59447e-06 -0.000497376 0)
(0.000811372 -1.83658e-05 0)
(0.000673296 -9.34787e-05 0)
(0.000702866 -0.000117339 0)
(0.000100543 -0.000421015 0)
(0.000945268 -8.17366e-07 0)
(0.000646771 -0.000118242 0)
(0.00037225 -0.000301565 0)
(0.000698164 -3.54798e-05 0)
(0.000891962 -2.88739e-05 0)
(0.000137999 -0.00039883 0)
(0.000177726 -0.000365754 0)
(0.000592813 -7.70001e-05 0)
(0.000701492 -2.07414e-05 0)
(0.000682975 -8.88898e-05 0)
(0.0006717 -9.02806e-05 0)
(0.000818924 -8.50839e-05 0)
(0.000625845 -9.1202e-05 0)
(0.000435759 -0.000144103 0)
(0.000907168 -9.73792e-06 0)
(0.000667013 -3.28543e-05 0)
(0.000648305 -4.02907e-05 0)
(0.00036068 -0.000199929 0)
(0.000748477 -1.46642e-05 0)
(0.000637191 -4.43904e-05 0)
(0.000764218 -1.45306e-05 0)
(0.000488574 -0.000111794 0)
(0.000744554 -1.07345e-06 0)
(0.000103161 -0.000427676 0)
(0.000707105 -2.77549e-05 0)
(7.8426e-05 -0.000436999 0)
(0.00084848 -6.45668e-05 0)
(0.000969586 -1.41249e-05 0)
(0.00096226 -1.42776e-05 0)
(0.000364301 -0.000196156 0)