/*--------------------------------*- C++ -*----------------------------------*\
| =========                 |                                                 |
| \\      /  F ield         | OpenFOAM: The Open Source CFD Toolbox           |
|  \\    /   O peration     | Version:  v2012                                 |
|   \\  /    A nd           | Website:  www.openfoam.com                      |
|    \\/     M anipulation  |                                                 |
\*---------------------------------------------------------------------------*/
FoamFile
{
    version     2.0;
    format      ascii;
    class       volSymmTensorField;
    location    "2";
    object      epsilon;
}
// * * * * * * * * * * * * * * * * * * * * * * * * * * * * * * * * * * * * * //

dimensions      [0 0 0 0 0 0 0];


internalField   nonuniform List<symmTensor> 
1896
(
(0.00030478 -2.21122e-05 2.90164e-20 -6.71932e-05 8.66843e-21 0)
(0.000352234 -1.98594e-05 2.85652e-20 -0.000139461 1.47266e-20 0)
(0.000303687 -1.13844e-05 0 -6.70641e-05 0 0)
(0.000644273 9.39707e-05 6.21996e-21 -0.000283792 -2.02063e-21 0)
(0.00030333 -2.33237e-05 2.65857e-20 -6.95859e-05 1.65361e-20 0)
(0.000306025 -2.85812e-05 -8.89752e-21 -7.34343e-05 -8.66517e-21 0)
(0.000651198 9.44902e-05 -1.37657e-19 -0.000287468 -1.16713e-19 0)
(0.000284209 -4.20121e-05 -2.57085e-20 -7.38855e-05 -5.99801e-21 0)
(0.00030364 -0.000168969 1.59579e-20 -0.000217636 1.43087e-20 0)
(0.000275947 -3.15103e-05 5.11797e-20 -6.82626e-05 2.61477e-21 0)
(0.000300778 -4.35471e-06 1.3182e-20 -5.39468e-05 -4.21322e-21 0)
(0.000183622 -9.16715e-05 -4.31231e-20 -6.50268e-05 -2.9093e-21 0)
(0.000214128 -5.46172e-05 2.7049e-20 -4.72555e-05 1.08177e-20 0)
(0.000201326 -7.63077e-05 -3.85506e-22 -5.60721e-05 -8.89558e-21 0)
(0.000611927 9.27931e-05 5.84435e-21 -0.000306473 8.86022e-21 0)
(0.00039394 4.79912e-05 1.55299e-20 -0.000172193 -1.9367e-20 0)
(0.00038372 -4.45901e-05 -8.77223e-20 -0.000165221 -1.51665e-21 0)
(0.000803453 -2.56668e-05 8.68025e-20 -0.000292121 5.00502e-20 0)
(0.000400407 -7.75195e-05 4.99353e-20 -0.000167618 1.575e-20 0)
(0.000343014 -0.000260873 -1.67665e-19 7.92362e-06 2.00762e-20 0)
(0.0001282 0.000109533 7.38794e-21 -0.00032978 -5.98749e-20 -6.76104e-36)
(0.000343997 -5.58735e-05 -1.07142e-20 -0.000120694 1.66365e-20 0)
(0.00058727 -6.67801e-06 8.20864e-20 -0.000265454 5.17189e-20 0)
(0.000584208 -1.41718e-06 -2.72824e-20 -0.000259356 -1.56751e-20 0)
(0.000353906 -3.49236e-05 3.47714e-20 -0.000145554 -3.36321e-21 0)
(0.0003519 -3.50059e-05 -1.85218e-21 -0.000137498 -1.48346e-20 0)
(0.000183897 -4.13876e-05 1.80596e-20 -5.12852e-05 -8.02249e-21 0)
(0.000220321 -3.96902e-05 -2.25462e-20 -4.76896e-05 -5.03481e-21 0)
(0.000311055 -1.67615e-05 3.43395e-21 -6.26343e-05 -5.76903e-21 0)
(0.000422921 -9.25761e-05 -2.77319e-20 -0.000186244 -2.37202e-20 0)
(0.000430077 -9.80844e-05 -2.4159e-20 -0.000174997 6.7129e-21 0)
(0.000352665 -7.02045e-06 4.26928e-20 -0.00014785 1.12538e-20 0)
(0.000121931 -8.49879e-05 -1.7732e-20 -6.9131e-05 1.31237e-21 0)
(0.000346542 -1.48594e-05 0 -0.000143561 0 0)
(0.000570744 -1.88694e-05 6.37906e-20 -0.000244777 2.33389e-20 0)
(0.000307862 -1.18362e-05 8.17119e-20 -6.44464e-05 1.5802e-20 0)
(0.000410888 -9.67783e-05 8.12836e-20 -0.000173031 1.33627e-20 0)
(0.000337784 -1.80302e-05 -5.07692e-21 -0.000116666 -5.99267e-24 0)
(0.000808634 -2.37353e-05 9.92644e-21 -0.000267508 3.5921e-21 0)
(0.000438701 -9.32182e-05 9.08311e-20 -0.000182649 -9.80668e-21 0)
(0.000348036 -1.62611e-06 7.754e-20 -0.00014914 2.71923e-20 0)
(0.000639186 -0.000203245 -1.61247e-19 -0.000203355 -4.05509e-20 0)
(0.000364225 -0.000129951 4.21543e-20 -0.000152191 -1.50273e-20 0)
(0.000565892 -4.20219e-05 6.14343e-20 -0.000314427 3.28901e-20 0)
(0.000195281 -2.8254e-05 8.59611e-21 -5.055e-05 -4.76877e-21 0)
(0.000207116 -3.27863e-05 -2.66273e-20 -4.36623e-05 -3.79412e-22 0)
(0.00062998 0.000107787 7.94412e-20 -0.00028012 7.02204e-20 0)
(0.000303405 -8.4902e-06 7.59764e-20 -5.47837e-05 1.3167e-20 0)
(0.000584994 3.82157e-06 6.14528e-20 -0.000306334 5.74826e-20 0)
(0.000586326 0.00011683 -3.91584e-20 -0.000252103 -4.44008e-20 0)
(0.000296739 -1.3597e-05 -1.30156e-20 -6.76846e-05 5.93521e-21 0)
(0.000290142 -3.83092e-05 -2.3157e-20 -7.82062e-05 1.09371e-20 0)
(0.000295222 -3.60689e-05 2.57497e-20 -7.05557e-05 -6.51019e-21 0)
(0.00034093 -5.32459e-05 3.71111e-20 -0.000125901 -2.24211e-20 0)
(0.00034469 -0.000176529 -8.92049e-20 -0.000227685 -4.09259e-20 0)
(0.000361456 -7.11184e-06 -4.64731e-20 -0.000156224 6.08095e-21 0)
(0.000455699 -0.000130627 -1.64995e-19 -0.00028433 -9.25673e-20 0)
(0.000307877 -1.76101e-05 -6.6989e-20 -6.63429e-05 -3.74904e-22 0)
(0.000331626 -9.10967e-06 -3.25203e-20 -0.00011877 -4.43773e-21 0)
(0.000443752 -1.50401e-05 -4.30345e-20 -0.000193179 2.74105e-20 0)
(0.000280982 -3.80813e-05 4.91849e-21 -7.25363e-05 -7.13569e-21 0)
(0.000573561 0.000109161 -1.33436e-19 -0.000270579 -1.33081e-19 0)
(0.000581505 0.000102606 -3.73198e-20 -0.000270436 -1.29612e-20 0)
(0.000315978 -4.94854e-05 3.1187e-20 -8.87329e-05 1.48417e-21 0)
(9.16864e-05 -0.000217402 -1.23271e-19 -3.38975e-05 1.08954e-19 1.60769e-36)
(0.000350976 -3.68353e-06 6.76005e-21 -0.000150677 -9.32198e-21 0)
(0.000553059 -3.603e-05 5.96535e-20 -0.000248387 3.93634e-20 0)
(0.000232404 -0.000124882 3.48173e-20 -9.40071e-05 1.65896e-20 0)
(0.000334105 -3.27861e-05 -2.76454e-20 -0.000111067 -1.30447e-20 0)
(0.000581871 -2.18594e-05 -9.0447e-20 -0.000252315 -3.19699e-20 0)
(0.00014143 -2.30826e-05 -3.87781e-21 -3.60831e-05 -3.53834e-21 0)
(0.000591735 8.48082e-05 1.27866e-19 -0.00028618 1.21038e-19 0)
(0.000333428 -2.73219e-05 3.09721e-20 -0.000114369 1.39422e-20 0)
(0.000362087 -1.37728e-06 3.40599e-20 -0.000155978 2.94926e-21 1.41425e-36)
(0.000581957 -6.15432e-06 1.89007e-19 -0.00024401 3.34284e-20 2.35539e-35)
(0.000351121 -2.9466e-05 0 -0.000138387 0 0)
(0.000350222 -2.39361e-05 -4.23247e-20 -0.000141232 -1.89701e-20 0)
(0.000319132 -3.505e-05 -3.33112e-20 -8.80864e-05 -1.25995e-20 0)
(0.000318274 -3.96861e-05 3.26194e-21 -9.04343e-05 -1.11767e-22 0)
(0.000334149 -9.45379e-05 -4.12594e-21 -0.000125597 2.34575e-20 0)
(0.000476358 -0.000214368 5.78765e-20 -0.000223863 1.24146e-19 0)
(0.000578796 -8.29153e-06 -7.74641e-20 -0.000255349 -4.70943e-20 0)
(0.000226522 -2.5176e-05 -8.96185e-21 -5.77317e-05 -1.30379e-20 0)
(0.000268317 -6.09329e-05 -2.88727e-20 -7.36928e-05 -5.20696e-21 0)
(0.00027421 -5.66374e-05 4.45348e-20 -6.99232e-05 1.48324e-20 0)
(0.000364858 -8.92672e-05 -6.89106e-21 -0.000142868 2.80552e-20 0)
(0.000285097 -0.000117165 9.59683e-20 -9.94342e-05 3.29105e-20 0)
(0.000275057 -0.000111233 2.75146e-20 -9.3653e-05 -4.64068e-21 0)
(0.000419688 -0.000147772 1.36737e-19 -0.000277234 7.58228e-20 0)
(0.000323633 -0.000133813 1.04816e-19 -0.000129471 2.68484e-20 0)
(0.00030629 -9.66002e-05 -3.06843e-20 -0.000103687 4.54051e-21 0)
(0.00120432 -7.84293e-05 0 -0.000582677 0 0)
(0.000251886 -0.000157753 2.62991e-21 -0.000157246 -2.9085e-21 0)
(0.000767423 -0.000130185 -1.49713e-19 -0.000262047 -8.63932e-20 0)
(0.000607772 7.40589e-06 -6.14009e-20 -0.000269814 -4.33932e-20 0)
(0.000349256 -4.7206e-05 -4.72448e-20 -0.00013576 -1.28796e-20 0)
(0.000342814 -7.44859e-06 -7.17117e-20 -0.000140164 -1.62114e-20 0)
(0.000303207 -6.53144e-06 -3.51924e-20 -4.46132e-05 -3.91847e-21 0)
(0.000345948 -5.27773e-06 -5.6949e-20 -0.000143632 -4.00271e-20 0)
(0.000279217 -0.000136684 1.91305e-20 -0.000119505 3.52388e-21 0)
(0.000299326 -0.00014216 5.18416e-20 -0.00012555 1.62399e-20 0)
(0.000241408 -0.000123822 3.90578e-20 -9.20419e-05 1.70716e-20 0)
(0.000310002 -4.95771e-05 -1.14048e-20 -8.65013e-05 -2.26685e-21 0)
(0.000278829 -0.000174241 5.22098e-21 -0.000173623 2.11583e-21 0)
(0.000361017 -0.00016509 5.89439e-20 -0.000216403 2.75404e-20 0)
(0.000343721 -0.000129142 -5.14302e-20 -0.000145341 -6.21204e-21 0)
(0.000366168 -8.46473e-05 -5.06907e-20 -0.000138711 -1.31062e-21 0)
(0.000595114 -3.49228e-05 -8.34142e-20 -0.000342323 -5.70319e-20 0)
(0.000540406 -3.39677e-05 -1.2231e-19 -0.000270459 -8.51193e-20 0)
(0.00135676 -5.91874e-05 -4.15806e-20 -0.000399644 3.93189e-20 0)
(0.000305856 -1.46856e-06 -4.59761e-21 -4.96817e-05 -1.00646e-20 1.78204e-37)
(0.000343271 -1.30698e-06 -3.14894e-20 -0.000141873 -5.76388e-20 -6.08562e-35)
(0.000517397 -6.62018e-05 -3.51277e-20 -0.000263299 -1.51424e-20 0)
(0.000457942 -0.000121049 -8.83407e-21 -0.000257676 -5.70153e-21 0)
(0.00111338 -0.000283597 4.69525e-20 -0.000315292 1.37694e-20 0)
(0.000299541 -0.000115945 3.41312e-20 -0.000102924 1.03939e-20 0)
(0.000235124 -1.07477e-05 5.11583e-20 -5.85317e-05 6.15265e-21 0)
(0.000310034 -0.00011429 4.78078e-20 -0.00011021 1.3685e-21 0)
(0.000515273 -9.93644e-05 1.07967e-19 -0.000295701 8.02162e-20 0)
(0.000419766 -8.8931e-05 6.09063e-20 -0.000176477 2.28046e-20 0)
(0.000554028 -0.000104497 0 -0.000313351 0 0)
(0.000322657 -0.000167458 -2.01587e-21 -0.000223715 -2.57164e-20 0)
(0.000337141 -2.31596e-05 3.91559e-20 -0.000124753 1.72991e-20 0)
(0.000256529 -4.7166e-05 2.3724e-20 -5.6498e-05 1.53062e-20 0)
(0.000238523 -4.43968e-05 -5.36796e-20 -6.38559e-05 2.04981e-20 0)
(0.000427007 -0.000136438 -3.94657e-20 -0.000272238 1.77764e-21 0)
(0.000600455 -1.47081e-05 2.02963e-19 -0.000325047 1.81988e-19 0)
(0.000282037 -4.84377e-05 3.28794e-20 -7.47312e-05 -1.30521e-20 0)
(0.00042055 -3.96354e-05 -3.84664e-20 -0.000179691 3.63446e-20 0)
(0.000310201 -0.000142804 -6.09662e-20 -0.000129215 -1.84467e-20 0)
(0.000299531 -0.0001502 -6.22809e-20 -0.000144617 -1.56045e-20 0)
(0.000317321 -9.79892e-05 3.20736e-20 -0.000105103 -2.08465e-21 0)
(0.000528561 -5.06774e-05 0 -0.000251811 0 0)
(0.000659235 -0.00016298 -1.50528e-19 -0.000317059 -6.29673e-20 0)
(0.000398319 -7.13065e-05 7.16191e-21 -0.000164877 2.49276e-20 0)
(0.000571038 9.80541e-05 -1.27765e-19 -0.000262539 -9.10851e-20 0)
(0.000646112 9.28851e-06 -1.04652e-19 -0.000297401 -7.6668e-20 0)
(0.000680037 5.1341e-05 -6.53479e-20 -0.000311784 -3.16936e-20 0)
(0.000349523 -3.39762e-06 -4.01066e-20 -0.000147315 -1.86786e-21 0)
(0.000451315 -9.78811e-05 6.91413e-20 -0.000200337 2.59e-20 0)
(0.0003364 -3.98805e-05 6.38116e-22 -0.000119988 -1.42807e-20 0)
(0.000561526 -4.71574e-05 -4.57888e-20 -0.000308399 -2.54981e-20 0)
(0.000445377 -0.000100946 5.16381e-20 -0.000190021 -1.34179e-20 0)
(0.000540689 0.000102825 -7.96951e-20 -0.000197127 -5.13678e-20 0)
(0.000295568 -7.98374e-05 3.76168e-20 -8.73421e-05 -5.01796e-21 0)
(0.00037072 -6.60553e-05 3.39933e-21 -0.000153634 1.65591e-21 0)
(0.000374401 -6.30534e-05 -4.10327e-20 -0.000144422 -2.71762e-21 0)
(0.000425375 -4.83157e-05 9.07366e-20 -0.000179362 2.47564e-21 0)
(0.000579629 2.21459e-05 -3.13057e-20 -0.000257232 -1.83747e-20 0)
(0.000305271 -0.000111253 0 -0.000105233 0 0)
(0.000208475 -5.79804e-05 4.59353e-21 -5.29055e-05 2.59019e-22 0)
(0.000341655 -1.27487e-05 2.56158e-20 -0.000133202 -1.8138e-20 0)
(0.000339649 -4.3223e-05 0 -0.00011502 0 0)
(0.000324656 -5.12977e-05 1.45278e-20 -9.39276e-05 1.20149e-20 0)
(0.000321818 -5.8562e-05 -2.12959e-20 -9.65445e-05 5.27293e-21 0)
(0.000498458 -8.73082e-05 7.57049e-20 -0.000272885 4.20066e-20 0)
(0.000242876 -1.2366e-05 1.49409e-21 -5.57372e-05 -7.57742e-23 0)
(0.000504647 -8.18543e-05 -1.2251e-19 -0.000286666 -8.27802e-20 0)
(0.00104053 -0.000361973 9.05223e-20 -0.000404091 -6.87189e-21 2.15448e-35)
(0.000288599 -2.41733e-05 4.01043e-20 -7.03952e-05 2.35692e-21 0)
(0.000298984 -3.1624e-05 3.59077e-20 -7.2241e-05 -4.15236e-21 0)
(0.000608338 -1.62661e-06 -5.63874e-20 -0.000253325 -3.45433e-21 -1.87303e-36)
(0.000311032 -0.000175952 -9.50586e-20 -0.000239654 -5.92039e-20 0)
(0.00032617 -1.83521e-05 -1.17797e-20 -0.000111079 -7.75145e-21 0)
(0.000688311 3.41372e-05 1.78028e-20 -0.000218625 -1.68145e-20 0)
(0.00027209 -3.86318e-05 2.15236e-20 -6.94977e-05 6.98964e-21 0)
(0.000435623 -6.484e-06 -6.11938e-20 -0.000169169 -1.19832e-21 0)
(0.000306082 -1.39873e-05 -2.67894e-22 -5.76649e-05 7.42279e-22 0)
(0.000303762 -1.43457e-05 2.82496e-20 -6.20793e-05 1.71231e-20 0)
(0.000346344 -1.45836e-05 -1.30793e-20 -0.000138868 3.54371e-20 0)
(0.000347596 -1.09725e-05 1.61551e-20 -0.000136924 -3.9667e-21 0)
(0.000356235 -6.85947e-06 -2.9793e-20 -0.000150001 -1.67971e-20 0)
(0.000160921 -0.000101767 -3.13046e-20 -6.96767e-05 -6.41338e-21 0)
(0.000160938 -8.98193e-05 2.63227e-20 -5.70422e-05 1.54706e-21 0)
(0.000637084 5.70339e-05 -4.11558e-20 -0.000321144 -6.22247e-20 0)
(0.000652411 6.76219e-05 1.88765e-19 -0.000308655 1.57999e-19 0)
(0.00058821 2.93893e-05 1.79214e-19 -0.000293516 1.3456e-19 0)
(0.000352855 -4.49346e-05 -3.38247e-20 -0.000134734 2.35535e-22 0)
(0.000304754 -6.08625e-06 3.05346e-20 -5.69196e-05 2.53105e-21 0)
(0.000322032 -0.00017439 -8.51512e-20 -0.000195061 -3.41392e-20 0)
(0.000158768 -8.77001e-05 -2.84393e-20 -6.71833e-05 -7.29237e-21 0)
(0.000439862 -3.59317e-05 1.2146e-20 -0.000196063 -5.55072e-20 0)
(0.000320484 -5.00726e-05 7.06258e-20 -0.000102004 2.43064e-20 0)
(0.000576276 2.15583e-05 -1.45534e-19 -0.000293799 -1.13842e-19 0)
(0.000644851 8.75612e-05 -1.9587e-20 -0.000305013 -6.88306e-21 0)
(0.000686606 2.75754e-05 1.53019e-20 -0.00016624 1.98795e-20 0)
(0.000289416 -0.000134309 2.3969e-20 -0.000114723 -2.88302e-21 0)
(0.000542702 0.00011954 -4.89176e-20 -0.000214948 -4.14093e-20 0)
(0.000204442 2.42166e-05 3.20624e-20 -0.000441189 4.25064e-20 -9.52637e-35)
(0.000122759 -0.00010356 -1.13583e-20 -0.000168087 -1.29902e-20 0)
(0.000645049 2.19546e-05 2.67518e-19 -0.000325142 1.87741e-19 0)
(0.000305917 -1.07255e-05 3.89746e-20 -5.757e-05 1.347e-20 0)
(0.000525467 -6.64925e-05 -1.77066e-19 -0.000316961 -1.18446e-19 0)
(0.000585788 5.36741e-06 0 -0.000249652 0 0)
(0.000330013 -0.000229676 -7.72339e-20 -9.0719e-05 9.49973e-20 0)
(0.000197206 -0.000119549 -3.40299e-20 -8.13889e-05 -5.09067e-21 0)
(0.00036084 -0.000121932 -5.3279e-20 -0.000145669 -1.55456e-20 0)
(0.000540883 -7.69086e-05 -2.45122e-20 -0.000336745 7.4103e-21 0)
(0.000201633 -0.000102895 2.71129e-20 -7.03007e-05 9.98789e-21 0)
(0.000245997 -2.9818e-05 -2.42678e-20 -5.11523e-05 -6.76942e-21 0)
(0.000278275 -0.000119465 7.58564e-20 -9.72989e-05 -6.8066e-21 0)
(0.000477128 -0.000225524 9.54643e-20 -0.000200653 9.35281e-20 0)
(0.000303623 -1.15782e-05 -1.96847e-22 -5.54176e-05 -6.32452e-21 0)
(0.000322398 -5.72552e-05 5.94218e-20 -0.000102568 1.80808e-20 0)
(0.000582841 0.000126464 3.59958e-20 -0.000231677 3.31624e-20 0)
(0.000314117 -5.71577e-05 -2.64896e-20 -9.72336e-05 3.08022e-21 0)
(0.000562922 -1.92488e-05 2.35811e-20 -0.000311503 1.01395e-20 0)
(0.000518007 -5.0777e-05 -5.87422e-20 -0.000222918 -1.21172e-20 0)
(0.000142759 2.25153e-05 7.39709e-20 -0.000491486 1.64841e-19 0)
(0.000368949 -1.19009e-05 3.4374e-20 -0.0001542 2.51703e-20 0)
(0.000608832 -1.40357e-05 0 -0.00025937 0 0)
(0.000410908 -8.81543e-05 -8.22728e-20 -0.000166355 -4.7833e-20 0)
(0.000373378 -3.93656e-05 4.66087e-20 -0.000150258 4.31702e-21 0)
(0.000365036 -3.2756e-05 -5.40299e-21 -0.000156575 -1.7812e-21 0)
(0.000224797 -9.33797e-05 -2.631e-21 -6.57599e-05 4.42345e-21 0)
(0.000316888 -0.000158748 6.09681e-20 -0.000173555 2.36403e-20 0)
(0.000463275 -0.000139191 -1.05582e-19 -0.000244812 -5.99453e-20 0)
(0.000492515 -3.49925e-05 -4.5117e-20 -0.000216222 -4.33678e-20 0)
(0.000500479 -3.776e-05 -7.29763e-20 -0.000206203 -1.65223e-20 0)
(0.000433216 -0.000101396 -8.14914e-20 -0.000183782 -4.00858e-20 0)
(0.000113445 -0.000104721 1.10122e-19 -0.000174779 5.57079e-20 0)
(0.000320349 -6.44645e-05 -8.2175e-20 -0.000103573 -1.00785e-20 0)
(0.000623694 1.41089e-05 -8.51795e-20 -0.000263115 -5.89141e-20 0)
(0.000562993 -1.70237e-05 8.6957e-20 -0.000256073 5.4938e-20 0)
(0.00034067 -1.86473e-06 -1.04324e-20 -0.000132487 -1.63955e-20 -4.9207e-36)
(0.000447694 -0.000104644 9.64864e-20 -0.000199934 4.537e-20 0)
(0.000688302 -2.70435e-05 0 -0.000307529 0 0)
(0.000366179 -7.12442e-05 -6.97887e-20 -0.000137982 -3.07023e-20 0)
(0.000490178 4.87314e-05 5.44558e-20 -0.000190996 3.23339e-20 0)
(0.000348302 -6.97705e-06 -7.60762e-20 -0.00014678 -9.59413e-21 0)
(0.000425139 4.48906e-05 -5.06007e-20 -0.000153724 -2.89535e-20 0)
(0.000283649 -3.4633e-05 -2.5887e-20 -7.46682e-05 -1.49699e-20 0)
(0.000290781 -2.66936e-05 2.13335e-20 -7.25018e-05 1.02488e-20 0)
(0.000303354 -1.43463e-06 0 -4.08499e-05 0 0)
(0.000346154 -7.02861e-07 -2.90429e-20 -0.00014813 -1.90866e-20 -6.25072e-35)
(0.000297506 -5.67713e-05 -3.05438e-20 -8.4947e-05 -2.58912e-20 0)
(0.000248422 -0.000116757 4.49774e-20 -8.15656e-05 1.57786e-20 0)
(0.000558698 -8.23349e-05 -2.76459e-20 -0.000336457 -1.63854e-20 0)
(0.000586298 7.45837e-05 1.56288e-19 -0.000207726 7.76552e-20 0)
(0.000453652 -1.53118e-05 1.27649e-19 -0.000187322 2.69094e-20 0)
(0.000615415 -3.3318e-05 8.89765e-21 -0.000312244 -2.74009e-20 0)
(0.000586403 -1.34414e-05 -1.60643e-19 -0.000339981 -1.34066e-19 0)
(0.000224899 -0.000103457 -3.15902e-21 -7.19984e-05 8.60426e-21 0)
(0.000588628 9.13793e-05 -7.27857e-20 -0.000201993 -4.43593e-20 0)
(0.000336918 -5.73781e-05 -2.86397e-20 -0.000122146 2.75724e-20 0)
(0.000184979 -0.000102579 9.86603e-20 -6.62021e-05 2.02227e-20 0)
(0.000331723 -3.06304e-06 -1.85236e-20 -0.000105648 -1.79366e-21 -2.23788e-35)
(0.000194714 -8.55623e-05 1.07983e-20 -6.37909e-05 -1.70274e-21 0)
(0.000161579 -7.25215e-05 1.96541e-20 -5.58288e-05 -1.78482e-21 0)
(0.000516021 -6.0964e-05 4.10725e-21 -0.000225556 2.76767e-20 0)
(0.000321146 -0.000141454 1.95319e-19 -0.000260222 1.24873e-19 0)
(0.000376516 -0.000124141 -2.58138e-20 -0.000154765 -1.88919e-20 0)
(0.000351346 -9.6336e-06 -4.8367e-20 -0.000146633 -1.70721e-20 0)
(0.000299515 -5.83748e-06 -1.22744e-20 -4.50702e-05 1.21329e-20 0)
(0.000348812 -1.94518e-06 4.49089e-20 -0.000147589 1.50179e-20 0)
(0.000329779 -7.10272e-05 -7.36768e-20 -0.000108628 -1.88812e-20 0)
(0.000203475 -0.000146214 -2.57285e-20 -0.000131902 -6.40296e-21 0)
(0.000526032 9.37818e-05 2.99854e-20 -0.000210693 3.38595e-20 0)
(0.000586607 9.35174e-05 6.22099e-20 -0.000280186 3.62565e-20 0)
(0.000544 -2.95125e-05 -1.73377e-19 -0.000241502 -6.88059e-20 0)
(0.000412745 -2.77247e-05 2.2015e-19 -0.00018136 6.35173e-20 0)
(0.000124698 7.84654e-05 3.16537e-20 -0.000392111 5.88343e-20 0)
(0.000142623 -1.56731e-05 -5.01601e-20 -0.00029112 -4.75949e-20 0)
(0.000251067 -0.000114268 4.48584e-20 -9.04747e-05 2.27043e-20 0)
(0.000398466 -4.19037e-05 -3.28997e-20 -0.00016348 -3.38258e-20 0)
(0.000390495 -0.000147404 -4.57957e-20 -0.000214012 -2.02985e-20 0)
(0.000421408 3.01104e-05 -1.52917e-20 -0.000164817 -3.29833e-20 0)
(0.000284176 -0.000142646 -3.38747e-20 -0.000117008 -1.2245e-20 0)
(0.000462642 -3.11685e-05 -9.73435e-21 -0.000192562 1.53137e-20 0)
(0.000325141 -7.05593e-05 3.45064e-20 -0.000108507 3.60149e-22 0)
(0.000289568 -0.000143002 9.82672e-20 -0.000121751 3.16893e-20 0)
(6.78977e-05 -3.20084e-05 -5.39522e-21 -0.000172252 -2.86934e-20 0)
(0.000588493 2.31807e-05 -1.19604e-19 -0.000247737 -7.22253e-20 0)
(0.00017 -5.88126e-05 -2.89358e-20 -4.85992e-05 -2.58792e-21 0)
(0.000387786 -5.2555e-05 1.03646e-19 -0.000160617 1.72123e-20 0)
(0.000173596 -0.000153952 6.08921e-20 -0.00012583 1.96681e-20 0)
(0.00054341 -3.42812e-05 -8.84739e-21 -0.000258066 -1.01507e-21 0)
(0.000318572 -8.62563e-06 -1.57255e-20 -8.85904e-05 -4.9694e-21 0)
(0.000325205 -8.23066e-05 3.80618e-20 -0.000115534 2.78929e-20 0)
(0.000305902 -4.27099e-06 -2.19246e-20 -5.95986e-05 5.69848e-21 0)
(0.000350081 -4.11221e-06 3.85159e-20 -0.000152317 5.01434e-21 0)
(0.000523809 -5.63092e-05 5.3056e-20 -0.000232695 1.23577e-20 0)
(0.000140207 -0.000126338 -2.84812e-20 -9.98128e-05 -1.02427e-20 0)
(0.000347177 -2.6365e-07 -4.58412e-20 -0.000150572 -2.92004e-21 2.13179e-36)
(0.000357586 -7.20129e-05 5.33788e-20 -0.000138187 1.04494e-21 0)
(0.000455373 6.10404e-05 -5.00533e-20 -0.000188025 -2.89277e-20 0)
(0.000350233 -9.80466e-05 -5.00923e-22 -0.000127702 5.63436e-21 0)
(0.000302073 -0.000119342 -3.21905e-20 -0.000111722 -2.04854e-20 0)
(0.000339538 -9.46799e-05 2.89561e-20 -0.000114067 2.15216e-20 0)
(0.000303055 -6.8121e-07 0 -5.40171e-05 0 0)
(0.00037654 7.2464e-06 2.07067e-20 -0.00017649 1.19168e-20 -5.78382e-36)
(0.000400668 -8.78046e-05 9.22065e-20 -0.000166809 1.43194e-20 0)
(0.000398235 -9.98782e-05 -1.65781e-20 -0.000164776 -1.69603e-20 0)
(0.000357177 -9.81101e-05 3.27049e-20 -0.000134596 -1.99111e-21 0)
(0.000621536 -6.09323e-06 -3.10465e-20 -0.000189257 1.76339e-20 0)
(0.000122779 -1.80116e-05 2.08328e-21 -4.008e-05 -7.01227e-21 0)
(0.000434863 8.61065e-06 6.07383e-20 -0.000188402 9.21088e-21 9.61303e-36)
(0.000278105 -0.00012 -5.01752e-20 -0.000103867 7.55075e-21 0)
(0.000575018 0.000104791 -5.65596e-20 -0.000213507 -4.22501e-20 0)
(0.000169812 -9.24524e-05 1.91032e-19 -0.000243162 1.21317e-19 0)
(0.000526156 0.000103643 5.90051e-20 -0.000212029 5.1493e-20 0)
(0.000404568 -0.000103964 0 -0.000168502 0 0)
(0.000574751 2.94787e-05 1.30954e-19 -0.000273056 1.0653e-19 0)
(0.000613529 0.000113612 -7.91176e-20 -0.000269622 -7.00163e-20 0)
(0.000335203 -5.80109e-05 -2.86264e-20 -0.000108404 6.05828e-21 0)
(0.000294781 -6.93824e-05 3.34624e-20 -8.93123e-05 1.05598e-20 0)
(0.000299931 -7.45435e-05 7.03278e-20 -8.71603e-05 7.81759e-21 0)
(0.000158578 -0.000105847 2.53275e-20 -8.5659e-05 8.82752e-21 0)
(0.000143639 -0.000109961 0 -7.14188e-05 0 0)
(0.000330579 -7.74239e-05 6.50178e-20 -0.000106918 -2.05012e-21 0)
(0.000331656 -2.32932e-05 9.73327e-20 -0.000100084 1.24207e-20 0)
(0.000318682 -0.000127943 -5.64e-20 -0.000125257 -2.14425e-20 0)
(0.000167502 -8.36827e-05 -1.12106e-20 -5.6214e-05 1.30095e-21 0)
(0.000308121 -6.03899e-06 -4.50719e-20 -4.79492e-05 -7.11998e-21 0)
(0.000342151 -5.38554e-06 1.58132e-19 -0.000145655 5.00374e-20 0)
(0.000417865 -5.28617e-05 -5.0408e-21 -0.000175699 5.20267e-21 0)
(0.000263324 -1.94032e-06 -2.84851e-21 -6.23967e-05 -6.87294e-21 0)
(0.000333004 -2.27348e-05 -2.50708e-21 -0.000117339 -1.01706e-20 0)
(0.000376577 -0.000130145 -5.38537e-20 -0.000160179 -6.13083e-21 0)
(0.000326002 -3.05605e-05 -4.80253e-22 -0.000102579 -2.63791e-21 0)
(0.000290291 -8.61522e-05 -7.4286e-20 -9.21318e-05 1.51979e-20 0)
(0.000510967 7.71578e-05 0 -0.000234011 0 0)
(0.000527556 7.58048e-05 -1.52178e-19 -0.000204066 -1.32592e-19 0)
(0.000377213 -0.000139804 -7.97169e-21 -0.000172931 -2.81919e-20 0)
(0.000182995 -0.00012663 3.54248e-20 -0.000106422 1.20046e-20 0)
(0.000348574 -0.000130154 1.49265e-19 -0.000134353 5.09422e-20 0)
(0.000381011 -0.000130088 0 -0.000154566 0 0)
(0.000181028 -0.000123418 -4.11601e-20 -8.47945e-05 -1.1167e-20 0)
(0.000314208 -2.84781e-05 1.9872e-21 -7.35543e-05 8.12799e-21 0)
(0.00034327 -2.34489e-05 -2.48183e-20 -0.00013328 -1.78354e-20 0)
(0.000144513 -2.67397e-05 -4.00032e-20 -0.00022976 -2.72568e-20 0)
(0.000414499 -2.46738e-06 -9.54262e-20 -0.000178302 4.67717e-21 5.01011e-36)
(0.000304958 -3.8074e-06 -3.71843e-21 -4.63282e-05 7.92159e-22 0)
(0.000345845 -1.84593e-06 7.08727e-20 -0.000148809 6.31661e-21 0)
(0.000271412 -2.73369e-05 5.32189e-21 -6.76221e-05 3.02614e-22 0)
(0.000130169 6.42805e-05 -5.18506e-20 -0.000450264 -1.23546e-19 0)
(0.000212167 -0.00010982 1.18413e-20 -7.5834e-05 -2.48961e-21 0)
(0.000581845 2.33333e-05 1.00973e-19 -0.000270709 6.98172e-20 0)
(0.000308985 -3.00085e-05 2.26413e-20 -7.40658e-05 -3.22868e-21 0)
(0.000349171 -2.43967e-05 1.854e-20 -0.000132515 -9.07268e-21 0)
(0.000401862 -0.000132817 9.14054e-20 -0.000195772 3.56415e-20 0)
(0.000120158 -2.06098e-05 -7.24282e-20 -0.00026386 -3.23176e-20 0)
(0.000424413 -0.000117385 -6.68151e-20 -0.000185659 8.84293e-22 0)
(0.000348114 -0.000157175 -5.73956e-20 -0.000198392 -2.39768e-20 0)
(0.000227244 -5.72697e-05 4.65859e-20 -5.87365e-05 1.31545e-20 0)
(0.000416921 -6.99508e-05 5.97126e-20 -0.000169054 4.63359e-21 0)
(0.000396124 -8.92573e-05 4.14899e-20 -0.000160284 -2.08077e-21 0)
(0.00076281 -9.14368e-05 7.01496e-20 -0.000303413 2.71635e-20 0)
(0.000281263 -0.000126129 -2.61308e-20 -0.000105886 1.13906e-20 0)
(6.50276e-05 4.15558e-05 -5.12454e-20 -0.00035503 -7.75777e-20 0)
(0.000115833 -0.000127592 3.11425e-20 -0.000133942 1.65237e-20 0)
(0.000311567 -3.40303e-05 -1.48714e-20 -7.74401e-05 1.14969e-20 0)
(0.000412231 -0.000153722 1.2315e-19 -0.000295934 3.02229e-20 0)
(0.000355825 -0.000101978 -7.00132e-21 -0.000137155 1.4579e-20 0)
(0.000387764 -5.81484e-05 -1.33999e-19 -0.000164958 -1.52953e-20 0)
(0.000409421 -7.24709e-05 -1.84547e-22 -0.000177338 3.73431e-20 0)
(-2.87392e-06 -2.54616e-05 0 -5.31123e-07 0 0)
(0.000747554 3.04806e-05 -6.47572e-20 -0.000261827 -4.71857e-20 0)
(0.000294438 -0.000126749 -3.86241e-20 -0.00011693 -4.91818e-21 0)
(0.000539983 -7.46816e-05 -2.97896e-19 -0.000318892 -1.82688e-19 0)
(0.000422306 -0.000143053 -1.23288e-19 -0.000267634 -5.67659e-20 0)
(0.000583852 3.80022e-05 -1.46477e-19 -0.000175958 -5.11463e-20 0)
(0.000701955 5.05519e-05 5.10635e-21 -0.000258453 3.48621e-21 0)
(0.000161591 -8.27851e-05 -6.97761e-20 -0.000201959 -9.98329e-20 0)
(0.000344418 -3.28124e-05 -5.48085e-20 -0.00013553 -1.59517e-20 0)
(0.000376428 -5.50487e-05 -1.20043e-21 -0.000156389 1.22745e-21 0)
(0.000465181 -9.53681e-05 -1.32872e-19 -0.000220013 -5.74351e-20 0)
(0.000473502 -9.50959e-05 -5.0467e-20 -0.00021221 -2.80511e-20 0)
(0.000328716 -0.000107084 -2.51546e-20 -0.000124092 -1.31936e-20 0)
(0.000353739 3.53967e-05 6.51309e-20 -0.000136129 1.83613e-20 0)
(0.000593976 0.000109676 -4.6273e-20 -0.000280855 -4.88269e-20 0)
(0.000191856 -7.46848e-05 1.67924e-20 -4.65736e-05 4.80094e-21 0)
(0.000299707 -3.3762e-06 1.31141e-20 -3.48342e-05 -2.13723e-21 0)
(0.000347571 -1.23505e-06 -8.12598e-20 -0.000149445 -3.58666e-20 0)
(0.000346322 -2.87322e-05 0 -0.000135427 0 0)
(0.000271897 -0.000161323 -5.50027e-20 -0.000135663 -1.84621e-20 0)
(0.000899419 -0.000176531 -1.03907e-19 -0.000359195 -4.79557e-20 0)
(0.000465126 -0.000123876 2.6462e-19 -0.000274814 1.50941e-19 0)
(0.00028694 -0.000109672 2.73784e-20 -0.000100928 2.01095e-20 0)
(0.000300193 -0.000121852 -4.81215e-20 -0.000108526 -5.46821e-21 0)
(0.00026649 -0.000115112 -1.08449e-19 -8.83619e-05 -8.79391e-21 0)
(0.000349153 -1.61437e-06 0 -0.000148511 0 0)
(0.000166398 -0.000147219 6.10088e-20 -0.000159307 2.30192e-20 0)
(0.000327654 -3.49557e-05 3.57766e-20 -9.41636e-05 6.94773e-21 0)
(0.000226665 -0.000162643 1.3508e-19 -0.000143152 4.8392e-20 0)
(0.000320027 -2.60312e-06 -2.23072e-20 -7.8794e-05 -1.68981e-20 -1.21493e-35)
(0.000728092 4.86891e-05 -4.74206e-20 -0.000243914 -2.40497e-20 0)
(0.000344043 -3.22809e-05 -1.19756e-20 -0.000129193 -3.45266e-21 0)
(0.000302795 -3.07018e-06 -6.41002e-20 -4.78504e-05 -1.25125e-20 0)
(0.00065834 9.27651e-05 -6.38718e-20 -0.000224474 -5.20627e-20 0)
(0.000282359 -5.21008e-05 -4.29295e-20 -7.62326e-05 6.28321e-21 0)
(0.000308783 -2.88545e-05 1.87045e-20 -7.0875e-05 -3.60343e-21 0)
(0.000496165 7.90052e-06 -7.43094e-20 -0.000218351 -1.85122e-20 9.30896e-36)
(0.000816448 -0.000397558 0 -0.000177503 0 0)
(0.000307584 -5.98703e-05 -2.27459e-20 -8.86891e-05 2.09706e-20 0)
(0.000162294 -0.000125901 0 -0.000138411 0 0)
(0.000448771 -6.83627e-05 1.4354e-20 -0.000195592 -2.34349e-20 0)
(0.000495063 -7.85625e-05 -7.37799e-20 -0.000213966 -4.82276e-20 0)
(0.000338171 -6.95395e-05 -1.59642e-20 -0.000119402 1.55715e-20 0)
(0.000336372 -7.07734e-05 1.97972e-20 -0.000115461 1.15473e-20 0)
(0.000346058 -0.000107331 1.00464e-19 -0.000125673 1.36543e-20 0)
(0.000357298 2.02012e-05 -3.97858e-20 -0.00016242 -3.08637e-20 0)
(0.000427699 -2.07538e-05 -1.71514e-20 -0.000173622 -6.49496e-20 0)
(0.000106662 -7.99295e-06 -1.01867e-20 -5.21961e-05 6.38379e-21 0)
(0.000459402 -6.89205e-05 4.55261e-20 -0.00018854 2.25749e-21 0)
(0.000361161 -0.000162501 -1.94468e-19 -0.000262079 -1.09684e-19 0)
(0.000347431 -9.31799e-05 0 -0.000123919 0 0)
(0.000590965 1.7994e-05 0 -0.0002632 0 0)
(0.000173948 -5.46933e-05 -2.80777e-20 -4.60975e-05 -3.09211e-21 0)
(0.00042892 3.59654e-05 1.05586e-20 -0.00019517 5.69507e-20 0)
(0.000354579 -0.000149957 6.94718e-20 -0.000176011 3.41904e-20 0)
(0.000245942 -6.24283e-05 -5.59328e-20 -6.65411e-05 9.90942e-22 0)
(0.000245923 -5.7303e-05 -4.18398e-20 -5.62557e-05 8.7941e-21 0)
(0.000477199 8.03672e-05 -4.10007e-20 -0.000197024 -3.99376e-20 0)
(0.000498189 -6.95613e-05 -5.72898e-20 -0.000212644 -3.08016e-20 0)
(0.000490706 -7.31457e-05 -3.23676e-20 -0.000218273 1.08886e-20 0)
(0.000319102 -6.49776e-05 6.13627e-20 -9.72931e-05 1.34353e-20 0)
(0.000734764 2.60918e-05 1.31816e-19 -0.000240936 -2.00357e-20 0)
(0.000375667 -0.000138932 -7.06638e-20 -0.000176582 -2.79197e-20 0)
(0.000290685 -6.58895e-05 3.62793e-20 -8.1048e-05 -5.88253e-22 0)
(0.000386067 -0.00016404 -4.92023e-20 -0.0002478 -2.85011e-20 0)
(0.000298875 -1.36104e-06 -5.23534e-20 -3.30255e-05 2.19013e-21 0)
(0.000347939 -1.96595e-07 -4.23789e-20 -0.00014923 -1.16963e-20 0)
(0.000626668 6.50973e-05 -2.80896e-20 -0.000304341 -6.8755e-21 0)
(0.000440005 -9.99657e-05 -1.90807e-20 -0.000192613 -1.83562e-20 0)
(0.000307707 -0.000131465 6.74004e-21 -0.000119993 -6.25824e-22 0)
(0.000134671 -0.00011725 7.91778e-20 -0.000188632 4.98456e-20 0)
(0.000462541 -4.10651e-06 -1.02219e-19 -0.000194248 5.16645e-21 3.10498e-36)
(0.000695847 4.99919e-05 8.52587e-20 -0.000292243 5.13936e-20 0)
(0.000672275 6.92221e-05 8.99003e-20 -0.000278086 7.67037e-20 0)
(0.000141269 -4.35015e-05 0 -0.00022554 0 0)
(0.000410524 -0.00013903 1.66145e-19 -0.000266213 6.51765e-20 0)
(0.000375615 -0.000132217 -8.98546e-20 -0.000163286 -1.70932e-20 0)
(0.000358254 -5.67245e-05 -8.99422e-20 -0.000146149 -1.71685e-20 0)
(0.000444865 -0.000119458 2.9845e-20 -0.000218554 6.81767e-21 0)
(0.000429969 -0.000119729 -7.81817e-21 -0.000208324 -4.57148e-21 0)
(0.000356141 -1.06548e-05 4.96944e-20 -0.000150116 2.96815e-20 0)
(0.000825519 -2.0251e-05 1.57611e-19 -0.000260527 3.97367e-20 0)
(0.000437168 -0.000123724 -2.36699e-19 -0.000302185 -1.77903e-19 0)
(0.000330563 -1.76125e-05 2.31194e-20 -0.000107635 2.33378e-20 0)
(0.000458131 -0.000139537 -1.00648e-19 -0.000291782 -9.27167e-20 0)
(0.00044724 -4.75804e-05 -8.48098e-20 -0.000193371 1.73551e-21 0)
(0.000316208 -6.31716e-05 -2.89669e-20 -9.57672e-05 -1.62876e-20 0)