/*--------------------------------*- C++ -*----------------------------------*\
| =========                 |                                                 |
| \\      /  F ield         | OpenFOAM: The Open Source CFD Toolbox           |
|  \\    /   O peration     | Version:  v2012                                 |
|   \\  /    A nd           | Website:  www.openfoam.com                      |
|    \\/     M anipulation  |                                                 |
\*---------------------------------------------------------------------------*/
FoamFile
{
    version     2.0;
    format      ascii;
    class       volScalarField;
    location    "2";
    object      sigmaEq;
}
// * * * * * * * * * * * * * * * * * * * * * * * * * * * * * * * * * * * * * //

dimensions      [1 -1 -2 0 0 0 0];


internalField   nonuniform List<scalar> 
1896
(
1.86024e+07
2.3706e+07
1.84558e+07
4.52102e+07
1.8621e+07
1.89587e+07
4.57116e+07
1.80628e+07
2.90618e+07
1.72495e+07
1.78312e+07
1.47559e+07
1.39535e+07
1.44919e+07
4.44598e+07
2.74342e+07
2.65927e+07
5.29654e+07
2.81634e+07
3.04204e+07
2.42881e+07
2.30839e+07
4.07021e+07
4.0298e+07
2.41773e+07
2.37657e+07
1.21624e+07
1.38384e+07
1.87307e+07
3.03659e+07
3.04464e+07
2.39916e+07
1.20096e+07
2.35396e+07
3.90686e+07
1.85901e+07
2.93925e+07
2.20764e+07
5.23017e+07
3.10266e+07
2.37953e+07
4.51736e+07
2.75572e+07
4.17899e+07
1.23912e+07
1.28637e+07
4.46198e+07
1.80118e+07
4.22377e+07
4.15732e+07
1.81226e+07
1.84491e+07
1.84077e+07
2.30669e+07
3.15182e+07
2.47737e+07
3.68862e+07
1.86952e+07
2.17873e+07
3.04902e+07
1.77728e+07
4.14695e+07
4.17135e+07
2.03692e+07
2.11619e+07
2.40091e+07
3.841e+07
1.95249e+07
2.18256e+07
3.9951e+07
9.01117e+06
4.24999e+07
2.18477e+07
2.47879e+07
3.95808e+07
2.36943e+07
2.37035e+07
2.0248e+07
2.0361e+07
2.38515e+07
3.88861e+07
3.98683e+07
1.4208e+07
1.77232e+07
1.77674e+07
2.57993e+07
2.15855e+07
2.06664e+07
3.55082e+07
2.50902e+07
2.18271e+07
8.53097e+07
2.42271e+07
5.13533e+07
4.19287e+07
2.3748e+07
2.31841e+07
1.76612e+07
2.34762e+07
2.295e+07
2.42946e+07
1.97818e+07
1.99865e+07
2.67817e+07
3.12611e+07
2.63383e+07
2.55759e+07
4.4361e+07
3.86346e+07
8.60402e+07
1.79574e+07
2.32643e+07
3.75537e+07
3.56389e+07
7.48313e+07
2.22976e+07
1.45303e+07
2.29477e+07
3.93825e+07
2.97449e+07
4.21069e+07
3.00027e+07
2.23896e+07
1.61688e+07
1.543e+07
3.52494e+07
4.3812e+07
1.81203e+07
2.89687e+07
2.49199e+07
2.53495e+07
2.24543e+07
3.74449e+07
4.88732e+07
2.78114e+07
4.07873e+07
4.49968e+07
4.75432e+07
2.38017e+07
3.2441e+07
2.23768e+07
4.13694e+07
3.18408e+07
3.68957e+07
2.01421e+07
2.58843e+07
2.56566e+07
2.93159e+07
4.00316e+07
2.24301e+07
1.39767e+07
2.28746e+07
2.24133e+07
2.10354e+07
2.11476e+07
3.73762e+07
1.48533e+07
3.81363e+07
7.72752e+07
1.78842e+07
1.85913e+07
4.13026e+07
3.05357e+07
2.12652e+07
4.4257e+07
1.72181e+07
2.91071e+07
1.82798e+07
1.83077e+07
2.33454e+07
2.33177e+07
2.42595e+07
1.45517e+07
1.34656e+07
4.57966e+07
4.61947e+07
4.19649e+07
2.38544e+07
1.81464e+07
2.92858e+07
1.35647e+07
3.05566e+07
2.10845e+07
4.1329e+07
4.59606e+07
4.22439e+07
2.31126e+07
3.80845e+07
3.08573e+07
1.6695e+07
4.61001e+07
1.82487e+07
4.01649e+07
3.99988e+07
2.97536e+07
1.74016e+07
2.68471e+07
4.19114e+07
1.6291e+07
1.50752e+07
2.13217e+07
3.86881e+07
1.80595e+07
2.13603e+07
4.08801e+07
2.07477e+07
4.13733e+07
3.57674e+07
3.11016e+07
2.50959e+07
4.15856e+07
2.89064e+07
2.54129e+07
2.51492e+07
1.66662e+07
2.75164e+07
3.5964e+07
3.40335e+07
3.40756e+07
3.10217e+07
1.66962e+07
2.14709e+07
4.24984e+07
3.91107e+07
2.27658e+07
3.24315e+07
4.76227e+07
2.51917e+07
3.30836e+07
2.37246e+07
2.82769e+07
1.79244e+07
1.8103e+07
1.75385e+07
2.36581e+07
1.94643e+07
1.93791e+07
4.28631e+07
3.90291e+07
3.07711e+07
4.41316e+07
4.37237e+07
1.73704e+07
3.92461e+07
2.28109e+07
1.5458e+07
2.12863e+07
1.48801e+07
1.25154e+07
3.59075e+07
3.01945e+07
2.79907e+07
2.38839e+07
1.74765e+07
2.37744e+07
2.22999e+07
2.08388e+07
3.64534e+07
4.21656e+07
3.76249e+07
2.85136e+07
2.61953e+07
2.06694e+07
1.96451e+07
2.72394e+07
3.17209e+07
2.83358e+07
2.33931e+07
3.15411e+07
2.20511e+07
2.37947e+07
1.19254e+07
4.01182e+07
1.20284e+07
2.67473e+07
2.00692e+07
3.82896e+07
1.99872e+07
2.26539e+07
1.8293e+07
2.40283e+07
3.65171e+07
1.62878e+07
2.3807e+07
2.47888e+07
3.13751e+07
2.48239e+07
2.2858e+07
2.37119e+07
1.79504e+07
2.6354e+07
2.84073e+07
2.85582e+07
2.54073e+07
3.95638e+07
8.09041e+06
2.98228e+07
2.1553e+07
3.92725e+07
2.11923e+07
3.67412e+07
2.91299e+07
4.04543e+07
4.35208e+07
2.22369e+07
1.98313e+07
2.01739e+07
1.51994e+07
1.44751e+07
2.24637e+07
2.11879e+07
2.44554e+07
1.33687e+07
1.80301e+07
2.33599e+07
2.88609e+07
1.61246e+07
2.18913e+07
2.84214e+07
2.1065e+07
2.02743e+07
3.62525e+07
3.5914e+07
2.92986e+07
1.80519e+07
2.62252e+07
2.84275e+07
1.71132e+07
1.93907e+07
2.30345e+07
1.77792e+07
2.83665e+07
1.78032e+07
2.36695e+07
1.69279e+07
2.90314e+07
1.72842e+07
4.06875e+07
1.91547e+07
2.33184e+07
3.09985e+07
1.84213e+07
3.11531e+07
2.96749e+07
1.50651e+07
2.8875e+07
2.79792e+07
5.19404e+07
2.20591e+07
2.14401e+07
1.66586e+07
1.94647e+07
3.6137e+07
2.55656e+07
2.70134e+07
2.88686e+07
2.37894e+06
4.89351e+07
2.3034e+07
4.10858e+07
3.5078e+07
3.72633e+07
4.65895e+07
1.86602e+07
2.32788e+07
2.60538e+07
3.38174e+07
3.39209e+07
2.3999e+07
2.38128e+07
4.28946e+07
1.36908e+07
1.71559e+07
2.37831e+07
2.33258e+07
2.45159e+07
6.26685e+07
3.67468e+07
2.1374e+07
2.27825e+07
2.02997e+07
2.3828e+07
2.04754e+07
2.09061e+07
2.3077e+07
1.97008e+07
4.7382e+07
2.30113e+07
1.77359e+07
4.36585e+07
1.82765e+07
1.90187e+07
3.41566e+07
6.17983e+07
2.01838e+07
1.83008e+07
3.14642e+07
3.4701e+07
2.30661e+07
2.28667e+07
2.4886e+07
2.48684e+07
2.8928e+07
7.58832e+06
3.17401e+07
3.28857e+07
2.43897e+07
4.08318e+07
1.1965e+07
2.99637e+07
2.88254e+07
1.64184e+07
1.59122e+07
3.31901e+07
3.46404e+07
3.45453e+07
2.11996e+07
4.74641e+07
2.93226e+07
1.92383e+07
3.34908e+07
1.70526e+07
2.37933e+07
4.46881e+07
3.16474e+07
2.39512e+07
1.86812e+07
3.147e+07
4.75697e+07
4.60254e+07
1.77254e+07
3.43382e+07
2.85702e+07
2.47761e+07
3.34414e+07
3.23458e+07
2.42711e+07
5.29134e+07
3.65385e+07
2.13606e+07
3.75809e+07
3.09646e+07
2.09525e+07
3.55427e+07
1.74684e+07
2.37384e+07
2.09523e+07
1.94507e+07
1.91916e+07
2.82279e+07
3.92623e+07
2.4844e+07
2.47635e+07
1.99786e+07
2.46803e+07
1.63072e+07
2.06063e+07
3.12238e+07
1.81953e+07
1.8623e+07
4.35107e+07
2.22881e+07
3.3226e+07
3.06317e+07
2.84005e+07
3.67909e+07
3.34741e+07
3.32347e+07
1.84168e+07
6.09987e+07
1.94636e+07
1.69708e+07
2.53462e+07
2.25182e+07
2.22883e+07
2.14543e+07
2.97437e+07
1.36142e+07
2.33959e+07
2.63215e+07
2.2999e+07
1.71753e+07
2.11425e+07
1.96096e+07
2.08542e+07
4.22427e+07
1.66825e+07
3.16898e+07
2.41241e+07
3.03556e+07
3.41086e+07
2.4434e+07
2.9066e+07
1.92771e+07
4.49414e+07
5.09595e+07
2.3483e+07
2.54488e+07
1.51572e+07
2.70813e+07
2.28648e+07
2.38848e+07
1.83021e+07
5.47071e+07
1.90034e+07
1.26734e+07
1.49786e+07
4.36877e+07
2.53329e+07
3.33378e+07
2.70733e+07
3.20192e+07
1.19244e+07
1.97309e+07
2.19378e+07
3.22839e+07
1.38164e+07
2.37556e+07
2.03578e+07
2.05083e+07
1.81343e+07
2.29681e+07
3.57445e+07
1.85792e+07
4.05679e+07
2.22539e+07
2.12087e+07
4.04636e+07
2.2811e+07
2.24361e+07
1.86267e+07
2.16939e+07
1.52012e+07
2.94182e+07
2.00654e+07
1.51819e+07
2.44034e+07
2.29411e+07
1.42146e+07
3.87743e+07
6.04274e+07
8.0221e+06
3.02878e+07
1.90936e+07
1.93024e+07
2.48335e+07
3.8304e+07
1.79565e+07
2.10985e+07
2.09075e+07
1.75681e+07
4.24377e+07
3.42386e+07
3.15812e+07
1.41177e+07
3.2781e+07
3.46292e+07
3.62641e+07
2.37603e+07
3.24766e+07
3.33201e+07
2.30266e+07
2.5789e+07
3.55711e+07
2.22268e+07
4.16481e+07
1.16884e+07
2.60487e+07
3.81774e+07
2.25518e+07
2.50691e+07
1.42629e+07
1.08943e+07
6.13714e+07
4.3054e+07
4.15628e+07
1.95545e+07
2.91292e+07
3.34739e+07
1.97931e+07
2.34539e+07
3.84776e+07
2.4446e+07
2.33423e+07
3.59735e+07
3.40094e+07
9.15786e+06
9.96227e+06
1.27154e+07
4.14141e+07
4.15106e+07
4.39554e+07
3.71111e+07
9.30721e+06
4.24912e+07
1.31654e+07
2.31451e+07
3.26211e+07
3.57814e+07
2.30328e+07
3.20346e+07
3.42575e+07
2.50751e+07
4.31001e+07
4.53848e+07
4.09995e+07
3.73186e+07
3.66945e+07
1.59635e+07
1.87721e+07
2.14262e+07
1.50664e+07
1.84814e+07
4.97095e+07
1.24902e+07
2.17797e+07
1.92511e+07
4.57213e+07
3.60211e+07
1.43049e+07
1.15825e+07
3.58891e+07
2.66345e+07
4.03082e+07
1.35052e+07
2.17517e+07
3.94425e+07
4.35208e+07
1.59943e+07
2.4e+07
1.26188e+07
6.13388e+07
2.73088e+07
3.76919e+07
3.6882e+07
2.06368e+07
2.05731e+07
2.77431e+07
3.88693e+07
2.30021e+07
1.88238e+07
1.84584e+07
4.48703e+07
4.28181e+07
2.55876e+07
3.2421e+07
3.11018e+07
1.84559e+07
4.08123e+07
2.59981e+07
2.96659e+07
1.76495e+07
3.46922e+07
3.14352e+07
3.80747e+07
2.16232e+07
4.01617e+07
2.79056e+07
3.51491e+07
3.96522e+07
2.47801e+07
2.32142e+07
2.48713e+07
3.87541e+07
4.14025e+07
3.65609e+07
2.27852e+07
1.83196e+07
3.00816e+07
2.79473e+07
2.75037e+07
2.10657e+07
3.15736e+07
3.31198e+07
2.38645e+07
3.78228e+07
3.36025e+07
4.15428e+07
1.03055e+07
1.97301e+07
2.38609e+07
2.62965e+07
3.6171e+07
1.7747e+07
2.87188e+07
2.7027e+07
2.61708e+07
1.87332e+07
4.24777e+07
2.69027e+07
2.73308e+07
3.98239e+07
2.67068e+07
4.00061e+07
2.42161e+07
2.40575e+07
2.47796e+07
2.54067e+07
4.38309e+07
2.45916e+07
1.80545e+07
2.8948e+07
2.75476e+07
2.76289e+07
2.77359e+07
3.10935e+07
2.41946e+07
3.98097e+07
1.12814e+07
4.50655e+07
3.46896e+07
1.76088e+07
3.34122e+07
2.86264e+07
3.59486e+07
1.79995e+07
3.30329e+07
4.18157e+07
3.82426e+07
2.57268e+07
2.19385e+07
2.54755e+07
3.70912e+07
1.06345e+07
3.9021e+07
1.10653e+07
1.72502e+07
2.37695e+07
2.50675e+07
3.9841e+07
2.64424e+07
1.29026e+07
1.96621e+07
1.30198e+07
2.63251e+07
4.02584e+07
2.33465e+07
2.89215e+07
2.79787e+07
1.12991e+07
2.53969e+07
3.57216e+07
1.80786e+07
1.13486e+07
2.01657e+07
1.97712e+07
2.35542e+07
5.80599e+07
3.21113e+07
2.10443e+07
3.69402e+07
2.6155e+07
3.57548e+07
2.62059e+07
1.33783e+07
2.45115e+07
4.47623e+07
2.26889e+07
4.12371e+07
4.78992e+07
3.13196e+07
4.41328e+07
2.73828e+07
1.09617e+07
3.14717e+07
3.48972e+07
2.88297e+07
4.66091e+07
4.25662e+07
1.37378e+07
2.97578e+07
4.02133e+07
4.50636e+07
3.10197e+07
2.34888e+07
2.93093e+07
2.87258e+07
1.84351e+07
3.67945e+07
1.93733e+07
3.45355e+07
3.55537e+07
3.97296e+07
2.02889e+07
2.02109e+07
1.58624e+07
1.61349e+07
2.20156e+07
4.66397e+07
2.28163e+07
4.07571e+07
4.02567e+07
1.94445e+07
1.10022e+07
1.77566e+07
2.02441e+07
3.54469e+07
2.82392e+07
8.77952e+06
2.04337e+07
2.23654e+07
2.07791e+07
1.44584e+07
2.10349e+07
1.8612e+07
1.8834e+07
3.083e+07
3.36148e+07
3.51941e+07
9.0738e+06
2.6878e+07
1.35402e+07
1.85017e+07
2.51345e+07
2.30027e+07
5.1562e+07
1.80438e+07
2.73618e+07
1.91833e+07
4.13284e+07
3.65783e+07
1.93741e+07
3.53988e+07
3.71974e+07
2.53021e+07
1.94953e+07
1.76478e+07
2.38996e+07
3.29272e+07
2.22157e+07
2.07858e+07
1.3788e+07
3.98465e+07
1.4727e+07
2.43067e+07
3.05047e+07
1.57086e+07
2.44432e+07
3.55554e+07
2.36374e+07
2.32758e+07
2.41839e+07
2.61509e+07
2.4819e+07
3.18263e+07
2.18467e+07
2.54384e+07
1.91401e+07
3.80771e+07
7.69869e+06
2.46302e+07
2.43789e+07
2.00261e+07
2.35385e+07
2.80649e+07
8.36123e+06
5.79499e+07
1.76283e+07
2.74634e+07
9.636e+06
2.50684e+07
4.17782e+07
4.11304e+07
4.12556e+07
2.60528e+07
2.15635e+07
2.07523e+07
2.18107e+07
3.88024e+07
2.32428e+07
2.53997e+07
3.73174e+07
2.79681e+07
3.26126e+07
2.35826e+07
2.60991e+07
1.75996e+07
4.65739e+07
2.2821e+07
3.60339e+07
2.93426e+07
4.2491e+07
2.0102e+07
3.03666e+07
1.77809e+07
1.93759e+07
4.27332e+07
1.15427e+07
4.31269e+07
2.92224e+07
2.86966e+07
4.77338e+07
1.75029e+07
1.73242e+07
2.35604e+07
2.3744e+07
1.78444e+07
1.2782e+07
1.99371e+07
1.96574e+07
1.25493e+07
1.54178e+07
2.92044e+07
3.89326e+07
4.16681e+07
1.91574e+07
2.75469e+07
2.54961e+07
3.15954e+07
3.87616e+07
3.92178e+07
2.14195e+07
3.35399e+07
4.01973e+07
4.27268e+07
3.30264e+07
3.35343e+07
1.81038e+07
3.93375e+07
1.67264e+07
1.79512e+07
3.24034e+07
4.36618e+07
2.45306e+07
2.72991e+07
4.19652e+07
1.77168e+07
1.54934e+07
2.21813e+07
1.93107e+07
6.16239e+06
4.04822e+07
2.5632e+07
3.14042e+07
2.38819e+07
2.43779e+07
1.84408e+07
4.32238e+07
2.97967e+07
3.11726e+07
3.03964e+07
3.75651e+07
3.22446e+07
2.77738e+07
2.44275e+07
2.3686e+07
2.70629e+07
3.07833e+07
3.8656e+07
2.31834e+07
6.93508e+07
2.97712e+07
3.83752e+07
3.06086e+07
3.88474e+07
3.54691e+07
1.46251e+07
3.88234e+07
1.58798e+07
2.56839e+07
2.82462e+07
3.32166e+07
1.93415e+07
4.24447e+07
3.84544e+07
2.89335e+07
4.13135e+07
2.02253e+07
1.98451e+07
3.85517e+07
1.82637e+07
1.94255e+07
4.26515e+07
1.79775e+07
9.44626e+06
3.51996e+07
2.35547e+07
2.0858e+07
2.12767e+07
1.90563e+07
2.16443e+07
3.00584e+07
4.56117e+07
1.81525e+07
3.30986e+07
4.56934e+07
1.51977e+07
2.06832e+07
3.78414e+07
4.40826e+07
3.02117e+07
2.12246e+07
3.0351e+07
3.03679e+07
2.53858e+07
3.21379e+07
3.92585e+07
1.8394e+07
2.60038e+07
2.75191e+07
4.32887e+07
1.88004e+07
2.83321e+07
1.81336e+07
3.71222e+07
7.04309e+06
4.02806e+07
1.67009e+07
4.09542e+07
2.41305e+07
1.88377e+07
1.89462e+07
4.18921e+07
2.70812e+07
2.35795e+07
2.97484e+07
2.99242e+07
3.11388e+07
1.85767e+07
5.27518e+07
1.62553e+07
7.25562e+06
1.63593e+07
1.83932e+07
3.84803e+07
2.05218e+07
1.9673e+07
1.69337e+07
2.78766e+07
2.4998e+07
4.11137e+07
1.92717e+07
3.72967e+07
2.3895e+07
3.49847e+07
3.58294e+07
4.22157e+07
4.33778e+07
1.78945e+07
2.35985e+07
2.92555e+07
4.46262e+07
2.80354e+07
1.93991e+07
2.28578e+07
2.28677e+07
4.3978e+07
5.75394e+07
1.77154e+07
2.3746e+07
3.46617e+07
1.75108e+07
2.73004e+07
4.09752e+07
2.29703e+07
2.2746e+07
2.97274e+07
2.98469e+07
2.89705e+07
5.54377e+07
2.25795e+07
1.09023e+07
1.80779e+07
7.08254e+07
2.19092e+07
2.38948e+07
3.12024e+07
1.84103e+07
2.19679e+07
3.87971e+07
3.31952e+07
3.98489e+07
3.26417e+07
3.31241e+07
4.31442e+07
3.59404e+07
3.25354e+07
3.21998e+07
1.69651e+07
1.63332e+07
2.0318e+07
1.99765e+07
3.69399e+07
3.99953e+07
4.0232e+07
5.42836e+07
1.90948e+07
1.42509e+07
2.44144e+07
4.26479e+07
1.6907e+07
1.68686e+07
3.97591e+07
7.69765e+06
2.71519e+07
2.68236e+07
2.74243e+07
4.77346e+07
3.78298e+07
1.84372e+07
4.31727e+07
3.5473e+07
1.71641e+07
1.70375e+07
3.48759e+07
3.97653e+07
2.05748e+07
3.33201e+07
3.36286e+07
4.27349e+07
1.44022e+07
2.45627e+07
3.45639e+07
1.96663e+07
1.88666e+07
1.66572e+07
2.37322e+07
4.28716e+07
2.4298e+07
1.91033e+07
2.71802e+07
1.74553e+07
3.2078e+07
1.89797e+07
3.45797e+07
8.19018e+07
1.99509e+07
2.01422e+07
1.72531e+07
4.26025e+07
2.85457e+07
4.21251e+07
4.20795e+07
3.74391e+07
1.76358e+07
1.69415e+07
1.31666e+07
1.94e+07
2.4092e+07
1.17083e+07
2.73328e+07
3.64581e+07
3.566e+07
1.52291e+07
1.64777e+07
3.36411e+07
1.22043e+07
1.22542e+07
4.09363e+07
2.69956e+07
2.41718e+07
1.02773e+07
1.93054e+07
2.17952e+07
6.8175e+06
4.03499e+07
2.07916e+07
2.47779e+07
4.21367e+07
1.64517e+07
2.09052e+07
2.2822e+07
3.97575e+07
4.09234e+07
4.11433e+07
4.29736e+07
1.9744e+07
4.1358e+07
1.68902e+07
2.64603e+07
1.24824e+07
3.39205e+07
2.59843e+07
3.70074e+07
3.22665e+07
3.41184e+07
2.3127e+07
1.98951e+07
3.10159e+07
2.46187e+07
2.67753e+07
2.64772e+07
2.02239e+07
2.80549e+07
1.60016e+07
2.33084e+07
1.79625e+07
2.98664e+07
1.57332e+07
1.50233e+07
3.20662e+07
2.50625e+07
2.58621e+07
3.30418e+07
3.78538e+07
3.30656e+07
3.56442e+07
2.28417e+07
2.29065e+07
4.11719e+07
2.56624e+07
2.64789e+07
3.70784e+07
1.81473e+07
1.87431e+07
4.2043e+07
1.03127e+07
9.73065e+06
4.00667e+07
3.62342e+07
2.43553e+07
2.68382e+07
1.63713e+07
2.09908e+07
1.52732e+07
3.21169e+07
2.09785e+07
2.0975e+07
8.03913e+06
1.2557e+07
2.21169e+07
2.2049e+07
1.9162e+07
2.20569e+07
3.42438e+07
2.27537e+07
2.63186e+07
3.29378e+07
2.51408e+07
1.82756e+07
2.26002e+07
1.92699e+07
1.84202e+07
2.05468e+07
1.79533e+07
9.63589e+06
1.39669e+07
1.66598e+07
2.25703e+07
6.82284e+07
2.48019e+07
2.89728e+07
4.0259e+07
2.72615e+07
3.9744e+07
4.03926e+07
2.88425e+07
2.50978e+07
1.52124e+07
1.85597e+07
2.20042e+07
9.34831e+06
9.1117e+06
2.39098e+07
1.10242e+07
1.72519e+07
2.02584e+07
1.53807e+07
2.18663e+07
2.33316e+07
4.89068e+07
2.38681e+07
7.06954e+07
4.69304e+07
3.23464e+07
3.91527e+07
1.92994e+07
1.89595e+07
1.89432e+07
2.64041e+07
2.18085e+07
1.38512e+07
2.32276e+07
4.02667e+07
3.91129e+07
3.83623e+07
3.83889e+07
3.23907e+07
3.50325e+07
3.59781e+07
3.78441e+07
2.26054e+07
2.23986e+07
3.36489e+07
1.89824e+07
2.20973e+07
3.36618e+07
2.59887e+07
2.18947e+07
2.22698e+07
2.18307e+07
1.75958e+07
1.82495e+07
1.70571e+07
2.98759e+07
2.40674e+07
8.53897e+07
3.40625e+07
3.49128e+07
4.05047e+07
3.4761e+07
1.37038e+07
1.37808e+07
2.52145e+07
3.30516e+07
1.93464e+07
3.43776e+07
2.95548e+07
2.42004e+07
2.80625e+07
2.83604e+07
5.87414e+07
2.23354e+07
3.47975e+07
1.8128e+07
2.2502e+07
1.79406e+07
9.56863e+06
1.71837e+07
2.30492e+07
2.10937e+07
4.87737e+07
3.45661e+07
1.4064e+07
8.65953e+07
2.3299e+07
3.85205e+07
1.80026e+07
1.79697e+07
2.68056e+07
2.29023e+07
2.56082e+07
3.22301e+07
2.92366e+07
1.76327e+07
2.35235e+07
2.15584e+07
3.87274e+07
4.54403e+07
2.14642e+07
1.29106e+07
4.03657e+07
4.11466e+07
3.87326e+07
2.24039e+07
3.00479e+07
2.98096e+07
1.52797e+07
2.19794e+07
3.18317e+07
2.80523e+07
3.7898e+07
2.87748e+07
9.94675e+06
2.42191e+07
1.74327e+07
1.74127e+07
3.63175e+07
6.71129e+07
1.78535e+07
1.85059e+07
2.02036e+07
8.97803e+06
1.8831e+07
1.89622e+07
3.01175e+07
1.97561e+07
2.22067e+07
2.1903e+07
1.89526e+07
4.14599e+07
4.08976e+07
2.91476e+07
1.11922e+07
7.38072e+06
2.75817e+07
1.06378e+07
3.73187e+07
3.63218e+07
3.53107e+07
2.2595e+07
2.53674e+07
1.89659e+07
1.8995e+07
4.03731e+07
2.61024e+07
2.12276e+07
2.46262e+07
2.6357e+07
6.78632e+07
1.03263e+07
2.22981e+07
1.37874e+07
2.72425e+07
2.17554e+07
4.10248e+07
2.6811e+07
4.36061e+07
2.2849e+07
2.9589e+07
2.97288e+07
2.27901e+07
1.26162e+07
2.37573e+07
1.12279e+07
2.15517e+07
2.17779e+07
4.07546e+07
3.78408e+07
1.61631e+07
3.46734e+07
4.50202e+07
3.798e+07
4.11816e+07
2.66101e+07
2.63046e+07
1.70867e+07
1.70779e+07
2.37584e+07
2.37756e+07
1.7577e+07
4.48338e+07
4.18507e+07
2.08035e+07
2.09216e+07
4.69841e+07
2.2455e+07
4.36826e+07
2.03102e+07
2.20623e+07
4.01054e+07
2.70645e+07
2.66416e+07
3.93119e+07
3.34362e+07
2.92631e+07
3.31043e+07
3.85403e+07
3.21366e+07
8.58929e+06
2.99665e+07
4.86701e+07
2.50814e+07
2.50727e+07
2.05216e+07
2.0936e+07
3.53078e+07
3.64889e+07
2.28751e+07
3.45151e+07
3.46287e+07
4.59643e+07
1.73144e+07
2.36899e+07
2.32757e+07
3.26821e+07
2.63623e+07
2.67173e+07
2.33807e+07
4.1575e+07
3.25556e+07
1.8965e+07
4.78562e+07
1.41016e+07
1.34816e+07
2.63273e+07
2.63307e+07
3.87447e+07
3.86543e+07
3.42207e+07
2.10871e+07
2.48592e+07
4.8329e+07
2.91865e+07
1.66056e+07
2.71107e+07
1.08612e+07
1.83038e+07
4.09012e+07
2.49857e+07
2.35088e+07
1.55208e+07
3.25191e+07
4.44324e+07
8.30584e+06
2.3729e+07
1.69484e+07
1.61621e+07
4.37065e+07
2.63127e+07
2.40402e+07
4.00414e+07
1.84599e+07
2.63522e+07
2.42042e+07
2.42647e+07
2.2501e+07
3.78349e+07
3.21251e+07
2.03377e+07
3.18643e+07
1.62821e+07
3.17879e+07
2.61969e+07
2.7359e+07
2.71329e+07
3.70465e+07
3.34449e+07
1.92655e+07
1.91294e+07
2.05498e+07
4.02596e+07
3.82421e+07
3.80089e+07
2.37757e+07
2.37274e+07
3.53299e+07
3.98202e+07
3.33645e+07
1.75653e+07
2.41417e+07
4.08991e+07
3.49373e+07
4.01714e+07
3.41671e+07
2.34277e+07
3.90295e+07
3.96648e+07
3.90675e+07
3.86661e+07
2.65295e+07
2.66166e+07
2.62942e+07
3.6424e+07
2.11845e+07
2.08438e+07
2.07402e+07
2.02743e+07
2.67752e+07
2.59863e+07
3.69961e+07
1.97978e+07
1.93105e+07
3.61479e+07
3.95115e+07
1.98056e+07
2.01667e+07
3.73356e+07
2.69002e+07
2.55055e+07
1.66887e+07
1.62454e+07
1.83788e+07
4.7481e+07
2.08546e+07
1.87509e+07
1.83206e+07
2.4823e+07
4.02155e+07
3.98371e+07
1.97376e+07
1.94212e+07
2.72487e+07
2.63928e+07
2.40127e+07
3.21233e+07
2.16004e+07
3.97422e+07
2.05298e+07
2.0718e+07
4.83398e+07
1.94824e+07
2.65425e+07
3.4092e+07
4.52039e+07
3.39944e+07
3.8605e+07
2.03787e+07
4.56281e+07
3.04707e+07
2.59184e+07
4.59671e+07
1.78459e+07
1.76894e+07
1.88128e+07
3.31096e+07
2.12896e+07
2.14504e+07
3.18199e+07
2.19197e+07
3.64687e+07
2.80268e+07
2.59069e+07
2.54985e+07
2.53854e+07
3.75886e+07
1.99738e+07
3.59286e+07
1.54503e+07
1.53267e+07
2.84472e+07
2.52469e+07
1.25867e+07
2.11416e+07
1.98248e+07
1.80676e+07
3.79087e+07
2.07266e+07
1.06949e+07
2.1633e+07
2.10294e+07
2.96155e+07
1.86671e+07
2.2004e+07
1.76284e+07
1.23455e+07
1.10488e+07
9.87173e+06
9.19814e+06
2.0574e+07
8.77762e+06
1.99351e+07
3.00632e+07
2.55881e+07
2.43059e+07
2.41165e+07
4.27688e+07
3.57665e+07
3.69281e+07
3.91751e+07
3.7235e+07
3.9935e+07
1.75327e+07
2.37655e+07
3.94505e+07
7.33673e+06
2.93548e+07
2.07901e+07
1.97925e+07
2.56042e+07
2.5873e+07
1.83521e+07
1.87236e+07
3.10453e+07
2.2099e+07
1.94964e+07
2.40466e+07
3.19425e+07
3.2459e+07
4.18431e+07
4.34148e+07
3.67234e+07
2.6685e+07
4.95179e+07
1.81897e+07
1.83764e+07
3.82789e+07
1.52892e+07
4.35668e+07
2.42486e+07
4.03176e+07
2.49599e+07
2.66895e+07
1.94745e+07
4.03671e+07
1.7131e+07
2.42329e+07
1.76653e+07
2.33721e+07
2.90651e+07
2.95387e+07
4.0649e+07
1.91776e+07
1.92495e+07
1.69708e+07
2.68385e+07
2.70496e+07
2.50753e+07
1.70342e+07
4.08951e+07
2.4626e+07
1.62012e+07
1.73565e+07
2.7933e+07
3.75747e+07
3.48709e+07
3.98501e+07
2.11758e+07
4.35702e+07
3.88198e+07
3.35667e+07
2.36252e+07
2.33932e+07
2.33312e+07
2.33784e+07
3.0746e+07
3.9717e+07
2.40636e+07
2.1983e+07
2.60927e+07
2.53421e+07
8.16235e+06
3.6195e+07
3.63813e+07
2.82393e+07
2.02358e+07
2.92229e+07
2.5023e+07
1.6851e+07
2.97407e+07
2.1207e+07
2.4667e+07
2.64952e+07
3.33122e+07
4.09858e+07
2.51317e+07
2.54458e+07
2.47598e+07
3.63001e+07
4.10497e+07
3.23208e+07
4.31545e+07
4.06321e+07
4.3892e+07
1.97276e+07
4.07063e+07
2.1395e+07
1.76772e+07
2.93453e+07
1.98597e+07
2.00929e+07
1.88603e+07
2.53413e+07
2.57606e+07
4.0589e+07
2.63789e+07
3.64422e+07
2.45528e+07
2.83386e+07
2.78273e+07
4.06049e+07
1.95249e+07
3.4723e+07
1.5234e+07
1.94656e+07
2.68252e+07
4.0555e+07
1.24709e+07
4.09534e+07
2.24385e+07
1.83523e+07
1.91793e+07
1.93501e+07
1.85185e+07
2.98317e+07
2.67e+07
3.52412e+07
2.59508e+07
3.49818e+07
2.45612e+07
4.56423e+07
4.94133e+07
3.23693e+07
1.91641e+07
2.54139e+07
5.17205e+07
2.99601e+07
4.34728e+07
2.15164e+07
2.7701e+07
2.38544e+07
2.08323e+07
1.4377e+07
1.89776e+07
2.14392e+07
2.59274e+07
2.36494e+07
2.44646e+07
2.436e+07
2.22804e+07
2.31266e+07
2.48815e+07
2.7776e+07
2.74159e+07
3.02729e+07
1.00271e+07
1.90768e+07
4.27816e+07
2.72889e+07
2.00771e+07
1.6749e+07
1.6575e+07
2.05265e+07
2.05726e+07
2.42561e+07
2.56099e+07
4.58069e+07
3.34862e+07
2.88573e+07
1.98394e+07
2.56264e+07
1.97636e+07
4.01067e+07
3.99099e+07
1.44424e+07
1.44636e+07
1.83218e+07
2.51707e+07
1.88348e+07
2.57908e+07
2.02903e+07
2.04099e+07
2.95753e+07
3.16918e+07
1.70921e+07
3.65018e+07
2.47909e+07
2.52609e+07
2.15549e+07
3.3807e+07
2.47484e+07
3.5423e+07
3.55211e+07
3.70896e+07
2.71369e+07
2.99827e+07
3.86866e+07
3.95519e+07
2.01407e+07
2.03006e+07
2.22774e+07
2.34143e+07
2.48864e+07
2.01717e+07
1.81728e+07
1.7041e+07
2.23929e+07
1.56688e+07
2.5766e+07
3.87045e+07
2.44619e+07
2.80487e+07
2.78914e+07
3.22499e+07
3.22966e+07
2.01813e+07
2.71478e+07
2.15979e+07
2.14297e+07
2.33682e+07
3.72429e+07
2.94066e+07
2.86168e+07
1.16363e+07
3.7288e+07
3.71489e+07
3.76108e+07
3.2007e+07
2.45974e+07
1.72867e+07
2.37791e+07
2.37345e+07
1.74395e+07
3.17716e+07
2.5062e+07
1.83564e+07
1.83961e+07
2.10981e+07
2.93905e+07
2.97848e+07
4.09326e+07
4.05406e+07
2.97587e+07
3.06535e+07
2.98654e+07
2.77078e+07
2.7621e+07
3.11206e+07
3.88735e+07
3.91639e+07
2.42945e+07
2.40402e+07
2.69029e+07
2.85487e+07
2.84424e+07
3.16325e+07
1.90651e+07
1.5383e+07
1.54398e+07
3.97121e+07
3.80139e+07
2.89834e+07
2.86669e+07
2.96601e+07
2.91685e+07
1.79701e+07
)
;

boundaryField
{
    back
    {
        type            empty;
    }
    front
    {
        type            empty;
    }
    down
    {
        type            symmetry;
    }
    right
    {
        type            calculated;
        value           nonuniform List<scalar> 
20
(
1.78817e+07
2.32743e+07
2.28342e+07
1.73509e+07
2.36898e+07
2.1324e+07
1.96485e+07
1.91431e+07
1.71974e+07
2.37546e+07
1.82945e+07
1.76095e+07
2.34969e+07
2.24275e+07
2.20022e+07
1.70804e+07
2.37692e+07
2.02981e+07
2.08739e+07
1.8707e+07
)
;
    }
    up
    {
        type            calculated;
        value           nonuniform List<scalar> 
40
(
2.47359e+07
3.97067e+07
4.15756e+07
4.01793e+07
2.37765e+07
2.59881e+07
2.93495e+07
2.83067e+07
3.40584e+07
3.15009e+07
4.234e+07
2.21773e+07
3.4799e+07
4.27941e+07
2.68103e+07
3.8092e+07
2.57017e+07
3.6917e+07
3.7012e+07
2.41979e+07
4.28896e+07
3.00978e+07
2.74915e+07
3.40176e+07
4.21025e+07
4.0595e+07
2.37511e+07
2.03957e+07
4.15906e+07
2.9172e+07
3.24647e+07
2.40376e+07
1.97288e+07
2.40343e+07
3.85778e+07
3.17396e+07
3.59939e+07
2.52479e+07
4.28067e+07
2.377e+07
)
;
    }
    left
    {
        type            symmetry;
    }
    hole
    {
        type            calculated;
        value           nonuniform List<scalar> 
16
(
2.61355e+07
2.01902e+07
8.75415e+07
7.98728e+07
3.15481e+07
1.68744e+06
1.30477e+07
2.90663e+07
1.02142e+07
5.64233e+07
3.70273e+07
6.50505e+06
2.18364e+07
4.67883e+07
7.13022e+07
8.52001e+07
)
;
    }
}


// ************************************************************************* //
