/*--------------------------------*- C++ -*----------------------------------*\
| =========                 |                                                 |
| \\      /  F ield         | OpenFOAM: The Open Source CFD Toolbox           |
|  \\    /   O peration     | Version:  v2012                                 |
|   \\  /    A nd           | Website:  www.openfoam.com                      |
|    \\/     M anipulation  |                                                 |
\*---------------------------------------------------------------------------*/
FoamFile
{
    version     2.0;
    format      ascii;
    class       volScalarField;
    location    "2";
    object      sigmaHyd;
}
// * * * * * * * * * * * * * * * * * * * * * * * * * * * * * * * * * * * * * //

dimensions      [1 -1 -2 0 0 0 0];


internalField   nonuniform List<scalar> 
1896
(
1.40546e+07
1.21816e+07
1.36013e+07
2.11451e+07
1.37632e+07
1.35815e+07
2.10625e+07
1.22675e+07
5.8813e+06
1.2045e+07
1.44333e+07
7.77307e+06
8.91448e+06
7.98786e+06
1.89425e+07
1.36099e+07
1.3153e+07
3.15227e+07
1.37731e+07
1.2751e+07
-1.34986e+07
1.28041e+07
1.90015e+07
1.93576e+07
1.24852e+07
1.24627e+07
8.61372e+06
9.49782e+06
1.42093e+07
1.44744e+07
1.42389e+07
1.18293e+07
4.27477e+06
1.20776e+07
1.89712e+07
1.45455e+07
1.40229e+07
1.26111e+07
3.02773e+07
1.46886e+07
1.16649e+07
2.07375e+07
1.24182e+07
1.37673e+07
9.19206e+06
8.75165e+06
1.93851e+07
1.44312e+07
1.56233e+07
1.84173e+07
1.35197e+07
1.27906e+07
1.26234e+07
1.27712e+07
6.88199e+06
1.21959e+07
1.08019e+07
1.43357e+07
1.27853e+07
1.51128e+07
1.22425e+07
1.83262e+07
1.80727e+07
1.31557e+07
1.09586e+07
1.17171e+07
1.82084e+07
8.8058e+06
1.28914e+07
1.8856e+07
4.77564e+06
1.7797e+07
1.27793e+07
1.20511e+07
1.93237e+07
1.23746e+07
1.22761e+07
1.35021e+07
1.33795e+07
1.26551e+07
1.9316e+07
1.91975e+07
1.0481e+07
1.15545e+07
1.15662e+07
1.30578e+07
1.09175e+07
1.05931e+07
9.39235e+06
1.12796e+07
1.20251e+07
4.46807e+07
5.40308e+06
2.66491e+07
1.99956e+07
1.26633e+07
1.19831e+07
1.49513e+07
1.17997e+07
9.74694e+06
1.01251e+07
8.42957e+06
1.31274e+07
6.29046e+06
9.10303e+06
1.20428e+07
1.30095e+07
1.55568e+07
1.65534e+07
4.45361e+07
1.49093e+07
1.18539e+07
1.5153e+07
1.08557e+07
3.77774e+07
1.11131e+07
1.08157e+07
1.17111e+07
1.28071e+07
1.43049e+07
1.37667e+07
5.20868e+06
1.25411e+07
1.09062e+07
1.07688e+07
8.7951e+06
1.50788e+07
1.20994e+07
1.41189e+07
9.82733e+06
9.75521e+06
1.2166e+07
1.55397e+07
2.65083e+07
1.36889e+07
1.7954e+07
1.95129e+07
2.03555e+07
1.17259e+07
1.47813e+07
1.27947e+07
1.38425e+07
1.46567e+07
1.96235e+07
1.19293e+07
1.30916e+07
1.30016e+07
1.4275e+07
1.82562e+07
1.14884e+07
9.256e+06
1.2096e+07
1.28263e+07
1.3094e+07
1.29542e+07
1.31633e+07
1.05937e+07
1.28773e+07
4.01287e+07
1.28059e+07
1.29228e+07
2.02625e+07
5.22755e+06
1.30108e+07
2.73729e+07
1.18983e+07
1.62407e+07
1.44651e+07
1.45683e+07
1.20802e+07
1.19679e+07
1.18723e+07
5.34363e+06
5.73761e+06
1.99995e+07
2.03104e+07
1.64702e+07
1.26176e+07
1.45672e+07
7.65409e+06
4.65857e+06
1.49853e+07
1.31181e+07
1.67163e+07
1.93753e+07
2.82753e+07
1.01764e+07
1.79988e+07
-1.59225e+07
-2.86193e+06
1.84289e+07
1.45593e+07
1.31408e+07
1.96433e+07
1.56222e+07
7.04584e+06
1.25132e+07
1.29251e+07
7.36101e+06
1.05888e+07
1.04128e+07
1.64367e+07
1.44338e+07
1.30017e+07
2.00321e+07
1.29879e+07
1.50626e+07
1.73029e+07
-1.56242e+07
1.2295e+07
1.99202e+07
1.3979e+07
1.26987e+07
1.25964e+07
8.79624e+06
7.91148e+06
1.48276e+07
1.67262e+07
1.63681e+07
1.43858e+07
-2.78979e+06
1.28739e+07
2.03457e+07
1.70215e+07
1.2075e+07
1.44648e+07
2.01602e+07
1.29656e+07
1.78267e+07
1.1836e+07
1.58191e+07
1.25714e+07
1.26581e+07
1.52327e+07
1.16231e+07
1.26194e+07
8.89368e+06
1.3729e+07
2.20305e+07
1.4876e+07
1.94195e+07
1.55371e+07
9.09114e+06
2.27938e+07
1.28315e+07
7.113e+06
1.28986e+07
7.25342e+06
6.76575e+06
1.69053e+07
6.33321e+06
1.26752e+07
1.19259e+07
1.49832e+07
1.16489e+07
1.2796e+07
3.92082e+06
1.9755e+07
1.79875e+07
1.84108e+07
1.39717e+07
-1.18593e+07
-9.64132e+06
9.85778e+06
1.32745e+07
9.67634e+06
1.50991e+07
8.65725e+06
1.51952e+07
1.27963e+07
9.56325e+06
-6.40881e+06
1.91952e+07
7.35417e+06
1.31919e+07
3.44381e+06
1.65152e+07
1.37607e+07
1.26639e+07
1.42191e+07
1.17938e+07
1.7278e+07
3.37808e+06
1.16087e+07
1.29158e+07
1.45372e+07
1.27817e+07
1.14126e+07
1.25821e+07
1.45811e+07
1.27727e+07
1.37826e+07
1.37504e+07
1.28894e+07
2.57566e+07
5.27599e+06
1.41448e+07
1.051e+07
2.10031e+07
-4.13858e+06
1.88143e+07
1.37202e+07
1.80323e+07
2.02452e+07
1.29127e+07
1.22931e+07
1.21657e+07
3.68357e+06
4.3702e+06
1.27046e+07
1.30895e+07
1.14252e+07
6.36196e+06
1.48153e+07
1.18443e+07
1.41649e+07
1.16677e+07
1.27546e+07
1.26537e+07
1.32229e+07
1.18298e+07
1.72603e+07
1.67944e+07
1.21151e+07
3.92323e+06
1.19153e+07
1.23873e+07
5.05464e+06
1.38264e+07
1.2365e+07
-1.0273e+07
1.37866e+07
1.5014e+07
1.16703e+07
1.20113e+07
-1.37133e+07
8.57732e+06
1.87049e+07
1.38499e+07
1.23101e+07
1.19796e+07
-8.48328e+06
1.36586e+07
8.26153e+06
9.78915e+06
1.399e+07
1.36402e+07
2.83085e+07
1.03717e+07
-1.23381e+07
-216454
1.36756e+07
8.08633e+06
1.28835e+07
1.34303e+07
1.41241e+07
868413
2.6353e+07
1.10547e+07
1.29949e+07
8.15884e+06
2.38096e+07
2.78287e+07
-3.88091e+06
1.24612e+07
1.31045e+07
1.48674e+07
1.47225e+07
1.23558e+07
1.20637e+07
1.89928e+07
7.83696e+06
1.52274e+07
1.16147e+07
1.2379e+07
6.68512e+06
3.5674e+07
1.01809e+07
1.12931e+07
1.07925e+07
1.00392e+07
1.16658e+07
-508968
1.32582e+07
6.21e+06
1.38621e+07
2.70215e+07
1.24612e+07
1.48071e+07
2.51804e+07
1.21042e+07
1.37475e+07
1.66619e+07
3.07611e+07
1.27067e+07
510341
1.52527e+07
1.58085e+07
1.28272e+07
1.2817e+07
1.25342e+07
1.19926e+07
1.40772e+07
4.30964e+06
1.51607e+07
6.02792e+06
1.27519e+07
1.98995e+07
7.33243e+06
1.49249e+07
1.09249e+07
1.06922e+07
1.04148e+07
1.71923e+07
1.61242e+07
1.63992e+07
1.28211e+07
3.15657e+07
1.12631e+07
1.20563e+07
8.63627e+06
1.531e+07
1.15862e+07
1.88436e+07
1.45633e+07
1.0909e+07
-1.68463e+06
1.53054e+07
2.24669e+07
2.3609e+07
-4.27533e+06
7.04352e+06
1.20815e+07
1.28184e+07
1.3243e+07
1.27892e+07
1.19649e+07
3.4136e+07
9.15287e+06
1.28504e+07
8.33925e+06
1.52647e+07
1.28506e+07
2.06378e+07
1.51474e+07
1.16085e+07
1.2321e+07
1.272e+07
1.41544e+07
1.37642e+07
1.88762e+07
1.29087e+07
1.28812e+07
1.28069e+07
1.28037e+07
1.08605e+07
1.28023e+07
1.17529e+07
-7.62815e+06
1.07966e+07
1.51305e+07
1.29115e+07
1.46306e+07
1.45926e+07
1.37078e+07
1.74901e+07
1.55293e+07
1.54368e+07
1.39481e+07
3.30992e+07
1.34676e+07
9.3879e+06
1.30125e+07
1.28662e+07
1.25972e+07
1.20012e+07
1.37903e+07
-8.23672e+06
1.26559e+07
1.24281e+07
1.20255e+07
1.21575e+07
1.21294e+07
1.33416e+07
1.10259e+07
2.06515e+07
9.16321e+06
1.52815e+07
1.25629e+07
1.47032e+07
1.53695e+07
1.26527e+07
1.41797e+07
1.40109e+07
2.45274e+07
3.08016e+07
1.27382e+07
1.29602e+07
9.7757e+06
1.33079e+07
1.23492e+07
1.28107e+07
1.09754e+07
2.81069e+07
1.38556e+07
-5.96118e+06
1.05212e+07
2.34303e+07
7.78504e+06
1.61593e+07
8.36009e+06
8.75537e+06
8.82918e+06
1.3548e+07
1.14331e+07
1.55177e+07
8.79888e+06
1.2719e+07
1.33152e+07
1.32439e+07
1.3821e+07
1.22415e+07
1.73104e+07
1.30513e+07
1.8783e+07
9.53145e+06
9.76181e+06
1.90866e+07
1.28415e+07
1.28701e+07
1.36145e+07
1.29555e+07
1.03521e+07
1.37512e+07
1.32583e+07
1.02789e+07
1.19439e+07
1.06678e+07
-6.89034e+06
1.87183e+07
3.293e+07
-2.30051e+06
1.37939e+07
1.13206e+07
1.11454e+07
1.03887e+07
1.04165e+07
9.55452e+06
1.13785e+07
1.24021e+07
1.27878e+07
1.71523e+07
1.37049e+07
6.12841e+06
1.02281e+07
1.61853e+07
7.21628e+06
1.68738e+07
1.28127e+07
1.55635e+07
1.61569e+07
1.27912e+07
1.26632e+07
1.64807e+07
1.25635e+07
2.5488e+07
8.50899e+06
1.31029e+07
1.50009e+07
1.17829e+07
6.75108e+06
6.57801e+06
603386
3.50433e+07
1.68732e+07
1.78192e+07
1.37933e+07
1.1797e+07
1.63856e+07
1.26293e+07
9.05335e+06
1.83021e+07
1.27587e+07
4.9789e+06
1.34151e+07
1.36807e+07
3.58074e+06
2.23877e+06
-3.72309e+06
1.42809e+07
1.78548e+07
2.16972e+07
1.14551e+07
3.13949e+06
2.25512e+07
9.68926e+06
1.27762e+07
1.50071e+07
1.65116e+07
1.03288e+07
1.56868e+07
1.67965e+07
1.3324e+07
2.76099e+07
1.7383e+07
1.88017e+07
1.79077e+07
1.78572e+07
1.14837e+07
1.38412e+07
1.2571e+07
1.09488e+07
1.19078e+07
3.07973e+07
-376521
1.26503e+07
1.0006e+07
2.40937e+07
1.37607e+07
8.50899e+06
3.52745e+06
1.74343e+07
1.10191e+07
1.87915e+07
-4.27045e+06
1.2857e+07
1.87429e+07
1.8028e+07
6.48458e+06
1.28449e+07
6.79212e+06
3.68469e+07
1.34408e+07
1.69056e+07
9.23925e+06
1.33651e+07
1.333e+07
1.27898e+07
1.73676e+07
3.26869e+06
1.25228e+07
1.24679e+07
1.82468e+07
1.92078e+07
1.25258e+07
5.33473e+06
1.50496e+07
1.41978e+07
1.79624e+07
1.28293e+07
1.45183e+07
1.06358e+07
1.69723e+07
8.0393e+06
1.78871e+07
1.25801e+07
1.21102e+07
1.09871e+07
7.0615e+06
1.12892e+07
1.23118e+07
1.22007e+07
1.28734e+07
9.92149e+06
1.21366e+07
1.46349e+07
1.25408e+07
1.37702e+07
1.40657e+07
1.36738e+07
1.1363e+07
1.21366e+07
1.42263e+07
1.03896e+07
1.2728e+07
2.39674e+07
1.62192e+07
1.9533e+07
6.82253e+06
1.23261e+07
1.20365e+07
1.29407e+07
2.21404e+07
2.3371e+06
5.26655e+06
5.53995e+06
1.27502e+07
1.34746e+07
2.08592e+07
1.32879e+07
1.32595e+07
1.91387e+07
1.30364e+07
1.89041e+07
1.24352e+07
1.22768e+07
1.21687e+07
1.2986e+07
2.02689e+07
1.20113e+07
1.47477e+07
8.7059e+06
1.3551e+07
1.35409e+07
8.83663e+06
1.39876e+07
1.28618e+07
1.94626e+07
8.44047e+06
1.69764e+07
1.45119e+07
1.1774e+07
1.40506e+07
1.40043e+07
1.70914e+07
1.34778e+07
1.57834e+07
1.97064e+07
1.86297e+07
1.25856e+07
1.22663e+07
1.2607e+07
1.78567e+07
6.82677e+06
1.7172e+07
5.68857e+06
1.53231e+07
1.15863e+07
1.23229e+07
1.7009e+07
1.31608e+07
9.31955e+06
-9.0828e+06
9.6689e+06
1.25167e+07
1.80369e+07
1.25333e+07
1.48495e+07
1.35552e+07
5.43409e+06
8.66161e+06
8.92207e+06
1.28684e+07
8.01603e+06
-5.62585e+06
1.36762e+07
8.61179e+06
3.47527e+07
1.06328e+07
1.32253e+07
1.77756e+07
1.25171e+07
1.67907e+07
1.29369e+07
9.94941e+06
1.32299e+07
1.64227e+07
1.25302e+07
1.98528e+07
3.1873e+07
1.25091e+07
1.66574e+07
1.31427e+07
7.90232e+06
-1.48518e+07
1.59618e+07
-1.46761e+07
1.90933e+07
1.72773e+07
3.19968e+06
9.30891e+06
1.83832e+07
1.77457e+07
9.9955e+06
1.26531e+07
1.24437e+07
1.25563e+07
7.31353e+06
1.80968e+07
7.77298e+06
1.53557e+07
1.57822e+07
1.80947e+07
1.24992e+07
1.04861e+07
1.11852e+07
1.12961e+07
1.29262e+07
2.33344e+07
7.76143e+06
1.90372e+07
1.14638e+07
1.31536e+07
5.60791e+06
1.2644e+07
1.25582e+07
1.46623e+07
1.13744e+07
6.41623e+06
1.20507e+07
1.27206e+07
1.18655e+07
-1.60001e+06
1.31816e+07
-5.20689e+06
1.42843e+07
1.43021e+07
1.07326e+07
1.13369e+07
-3.46274e+06
1.27213e+07
9.7669e+06
1.40554e+07
1.29481e+07
1.28354e+07
3.15682e+07
1.31746e+07
1.20349e+07
1.29421e+07
1.98675e+07
1.16473e+07
4.72172e+06
1.17773e+07
1.84896e+07
1.1673e+07
1.24448e+07
1.30099e+07
1.20807e+07
1.62374e+07
-2.18355e+06
7.8259e+06
9.47395e+06
1.90522e+07
9.99262e+06
1.26984e+07
1.50702e+07
1.14335e+07
1.2853e+07
1.72461e+07
1.20534e+07
1.19751e+07
1.18317e+07
1.30149e+07
1.23854e+07
1.54853e+07
1.29822e+07
8.56799e+06
1.39963e+07
1.82113e+07
-1.12331e+06
1.2888e+07
1.28543e+07
1.36908e+07
7.36269e+06
1.3607e+07
2.10221e+06
2.91352e+07
-8.02705e+06
1.34394e+07
6.03059e+06
1.28287e+07
1.76035e+07
1.95905e+07
1.96416e+07
1.27724e+07
1.30113e+07
1.33208e+07
1.29628e+07
1.18766e+07
1.24954e+07
1.2885e+07
1.73553e+07
1.35841e+07
1.58564e+07
3.8384e+06
4.88549e+06
1.11338e+07
2.2581e+07
1.24357e+07
1.81889e+07
1.39083e+07
1.48528e+07
1.3622e+07
1.27675e+07
1.23954e+07
1.20433e+07
2.0855e+07
-2.4866e+06
2.06549e+07
1.41299e+07
1.39894e+07
2.15283e+07
1.1922e+07
1.51054e+07
1.17697e+07
1.16894e+07
1.49067e+07
-905144
1.16739e+07
1.37957e+07
-526168
301775
5.56261e+06
1.13035e+07
1.73292e+07
-2.34849e+06
1.13962e+07
1.29743e+07
1.5043e+07
1.85097e+07
1.03188e+07
1.30738e+07
1.52406e+07
1.64369e+07
2.44846e+07
1.5652e+07
1.59116e+07
1.31698e+07
1.64924e+07
8.14583e+06
1.28648e+07
1.7887e+07
1.50268e+07
1.23235e+07
1.34741e+07
1.32804e+07
5.17519e+06
2.58926e+06
1.22694e+07
1.33103e+07
-3.31275e+06
2.01066e+07
1.30468e+07
1.47797e+07
1.19522e+07
1.18342e+07
1.42019e+07
1.4017e+07
1.57548e+07
1.86211e+07
1.3579e+07
1.70698e+07
1.56238e+07
1.17292e+07
9.52285e+06
1.16026e+07
6.76216e+06
1.48562e+07
1.42916e+07
1.21637e+07
3.98632e+07
1.08005e+07
1.37991e+07
1.07187e+07
1.3205e+07
1.72074e+07
8.46145e+06
1.48935e+07
8.728e+06
1.27139e+07
1.3291e+07
1.49478e+07
1.29324e+07
2.43035e+07
1.77892e+07
1.34973e+07
2.01539e+07
1.30237e+07
1.32188e+07
1.79427e+07
1.4439e+07
1.34862e+07
1.53037e+07
1.09668e+07
-1.28853e+06
1.71027e+07
1.27552e+07
8.16345e+06
1.10463e+07
1.13855e+07
-1.07978e+07
1.47194e+07
2.80016e+07
1.3714e+07
1.59969e+07
2.3748e+07
-6.56339e+06
1.29386e+07
1.82614e+07
2.20656e+07
3.3481e+06
8.12802e+06
1.45553e+07
1.47467e+07
1.27879e+07
1.52655e+07
1.4317e+07
1.29209e+07
9.3567e+06
1.00905e+07
2.07819e+07
9.32066e+06
1.04249e+07
9.8228e+06
1.355e+07
2.71577e+06
2.09519e+07
-6.66976e+06
2.55904e+07
1.27608e+07
1.42203e+07
1.40684e+07
2.0345e+07
1.33824e+07
1.19867e+07
1.47665e+07
1.41195e+07
1.49892e+07
324152
2.60657e+07
1.15383e+07
-149987
1.18579e+07
9.53821e+06
2.32457e+07
1.12999e+07
1.11303e+07
9.83901e+06
9.38626e+06
928602
1.76537e+07
1.02506e+07
1.81652e+07
1.19053e+07
1.36364e+07
1.41158e+07
2.03172e+07
1.81675e+07
1.47953e+07
1.17987e+07
4.04201e+06
1.70788e+07
3.11945e+06
1.39612e+07
1.26492e+07
1.26492e+07
1.57374e+07
3.68705e+07
1.48261e+07
1.17528e+07
1.01575e+07
1.11913e+07
1.30169e+07
1.77612e+07
1.25864e+07
1.25964e+07
7.18925e+06
4.28531e+06
6.50388e+06
3.45379e+07
1.28039e+07
876541
1.41218e+07
3.55332e+07
1.28781e+07
1.2322e+07
1.27429e+07
1.46683e+07
1.28904e+07
1.26991e+07
1.71134e+07
1.93342e+07
1.5939e+07
7.78575e+06
1.43328e+07
8.34831e+06
7.69097e+06
1.20074e+07
1.14534e+07
1.12654e+07
1.34838e+07
1.36186e+07
1.22052e+07
1.49707e+07
1.32385e+07
3.00854e+07
1.3418e+07
-1.63363e+06
1.22327e+07
1.52472e+07
1.10898e+07
1.1704e+07
1.38612e+07
1.75855e+06
425369
1.32234e+07
1.33833e+07
2.64241e+07
1.8234e+07
1.34829e+07
1.8512e+07
1.5071e+07
1.23116e+07
1.2352e+07
2.02981e+07
1.19541e+07
1.30883e+07
1.58966e+07
2.06122e+07
2.07963e+07
1.2039e+06
1.2517e+07
1.25357e+07
1.18981e+07
1.1736e+07
1.16174e+07
-1.74348e+06
2.2167e+07
1.27983e+07
9.3011e+06
7.47625e+06
1.24533e+07
1.16962e+07
1.41743e+07
1.41708e+07
4.10841e+07
1.35288e+07
1.34393e+07
2.05798e+06
1.75847e+07
9.34931e+06
1.66568e+07
1.65463e+07
1.75543e+07
1.17654e+07
-8.76759e+06
8.21086e+06
-5.21247e+06
1.27906e+07
-2.26913e+06
1.17179e+07
1.61894e+07
1.6252e+07
9.3365e+06
9.52184e+06
1.28355e+07
9.14703e+06
-6.86113e+06
1.97611e+07
1.18704e+07
1.26383e+07
7.21217e+06
1.36174e+07
2.31578e+06
1.50401e+06
1.51269e+07
1.32091e+07
1.22782e+07
1.59047e+07
1.16397e+07
1.32646e+07
1.22122e+07
1.83878e+07
1.89158e+07
2.0123e+07
2.06059e+07
-2.53096e+06
1.59097e+07
1.14051e+07
1.30136e+07
8.21074e+06
1.64755e+07
1.23505e+07
1.43589e+07
1.24964e+07
1.02077e+07
3.1487e+06
5.83153e+06
1.34504e+07
1.2456e+07
1.31036e+07
1.29743e+07
1.35647e+07
1.33364e+07
1.14741e+07
1.27264e+07
1.13991e+07
1.45299e+07
1.09181e+07
1.08216e+07
1.56385e+07
1.07501e+07
1.1049e+07
1.58272e+07
1.49183e+07
1.55708e+07
2.13678e+07
1.27619e+07
1.2708e+07
1.99419e+07
1.14899e+07
1.13768e+07
1.74487e+07
1.40915e+07
1.17434e+07
2.055e+07
7.45994e+06
-3.30827e+06
1.26487e+07
1.45236e+07
2.45809e+06
1.13918e+06
-1.02707e+07
9.6691e+06
6.2815e+06
1.50434e+07
1.3113e+07
1.24938e+07
3.32884e+06
3.18805e+06
1.18887e+07
1.18904e+07
1.00865e+07
1.56329e+06
1.62057e+07
1.24896e+07
1.27385e+07
1.42024e+07
1.27569e+07
1.3542e+07
1.2322e+07
6.32535e+06
6.48268e+06
1.3467e+07
1.31059e+07
6.65508e+06
-5.60105e+06
1.20492e+07
1.23198e+07
3.96931e+07
1.27548e+07
3.39924e+06
1.87556e+07
1.33589e+07
1.90854e+07
1.95475e+07
3.55503e+06
1.25899e+07
-4.68672e+06
1.33411e+07
1.29114e+07
4.33944e+06
4.75927e+06
1.1908e+07
6.37581e+06
6.13268e+06
2.20239e+06
5.539e+06
1.29723e+07
1.26012e+07
3.00679e+07
1.28334e+07
4.08117e+07
2.4345e+07
1.92021e+07
1.59912e+07
1.31875e+07
1.26883e+07
1.28104e+07
1.23106e+07
1.27403e+07
-4.13484e+06
1.09718e+07
1.94465e+07
1.54381e+07
1.84384e+07
1.86763e+07
5.03458e+06
1.69326e+07
1.72912e+07
1.83356e+07
-488765
9.15056e+06
1.5806e+07
1.22068e+07
19480.7
1.60364e+07
2.12426e+06
1.25021e+07
1.24376e+07
7.63608e+06
7.87835e+06
8.03322e+06
-5.88979e+06
8.82048e+06
1.13329e+07
4.24712e+07
1.64959e+07
1.67716e+07
1.97441e+07
1.02192e+07
9.84598e+06
1.0076e+07
1.24852e+07
1.87655e+07
-8.861e+06
9.35814e+06
2.64444e+06
7.3624e+06
1.37303e+07
1.38732e+07
3.65486e+07
1.26906e+07
1.62583e+07
1.30594e+07
1.28244e+07
1.3039e+07
5.3328e+06
-3.83454e+06
-1.23967e+07
1.17344e+07
2.4141e+07
1.6668e+07
1.04172e+07
4.29921e+07
-810284
1.60236e+07
1.04026e+07
1.04428e+07
6.87644e+06
-1.3184e+07
1.25599e+07
1.52759e+07
1.41136e+07
1.50711e+07
1.1725e+07
5.46699e+06
1.81459e+07
2.94974e+07
1.27395e+07
5.84237e+06
1.41569e+07
1.47801e+07
1.20596e+07
1.23109e+07
1.20349e+07
1.17405e+07
9.4497e+06
1.25554e+07
1.32832e+07
1.30138e+07
1.8068e+07
1.3273e+07
-4.87561e+06
1.25835e+07
1.25424e+07
1.2405e+07
2.11803e+07
3.95603e+07
9.98224e+06
1.02246e+07
1.21494e+07
-777912
1.24142e+07
1.22476e+07
1.45507e+07
1.37655e+07
1.25229e+07
1.50966e+06
1.33262e+07
1.71266e+07
1.73155e+07
3.82236e+06
4.68274e+06
711358
1.35468e+07
7.85117e+06
1.58089e+07
1.59573e+07
1.71212e+07
1.27633e+07
1.91017e+06
1.35424e+07
1.31115e+07
1.90439e+07
1.31774e+07
1.26634e+07
1.07035e+07
1.06596e+07
4.13803e+07
1.90987e+06
1.28606e+07
1.01856e+07
1.35395e+07
1.23556e+07
1.86614e+07
1.33239e+07
2.0736e+07
1.24563e+07
1.46459e+07
1.44256e+07
1.23678e+07
2.47314e+06
1.25348e+07
7.56558e+06
1.30371e+07
1.29543e+07
1.75523e+07
1.66515e+07
-8.70328e+06
1.4817e+07
1.66067e+07
1.60372e+07
1.95715e+07
1.32278e+07
1.31832e+07
1.53392e+07
1.53907e+07
1.15746e+07
1.15742e+07
1.27253e+07
1.73051e+07
1.92737e+07
1.00478e+07
9.12602e+06
2.04558e+07
1.28607e+07
1.63413e+07
1.3506e+07
1.26751e+07
1.81956e+07
1.32351e+07
1.32806e+07
1.83939e+07
1.20712e+07
9.8812e+06
5.68343e+06
1.77396e+07
1.38911e+07
5.60234e+06
1.12399e+07
2.49744e+07
1.22638e+07
1.21858e+07
1.23897e+07
1.22172e+07
1.25818e+07
2.0188e+07
1.22202e+07
1.64915e+07
9.94424e+06
1.78533e+07
1.25979e+07
1.24249e+07
1.23621e+07
1.56337e+07
1.32738e+07
1.33187e+07
1.27448e+07
2.02393e+07
1.38835e+07
1.30685e+07
2.56441e+07
1.37445e+06
2.17063e+06
1.30681e+07
1.29759e+07
1.82315e+07
1.77868e+07
1.83035e+07
-1.19739e+07
1.24468e+07
2.28179e+07
1.42324e+07
1.00304e+07
1.28549e+07
-4.35775e+06
1.4563e+07
1.65233e+07
1.29149e+07
1.19021e+07
1.13027e+07
1.58071e+07
1.78314e+07
889955
-497918
1.04088e+07
1.02773e+07
1.57949e+07
1.31273e+07
1.17795e+07
1.59673e+07
1.32509e+07
1.30405e+07
1.17613e+07
1.28166e+07
340052
1.7552e+07
1.50033e+07
1.06861e+07
1.53389e+07
1.00064e+07
1.04758e+07
1.31548e+07
1.34475e+07
1.34413e+07
1.72026e+07
1.25821e+07
1.15731e+07
1.15959e+07
9.95425e+06
1.76142e+07
1.75595e+07
9.98843e+06
1.16184e+07
1.15983e+07
1.6846e+07
1.91706e+07
9.51355e+06
-1.00027e+07
8.22321e+06
1.2766e+07
1.33237e+07
1.68728e+07
1.63744e+07
1.07336e+07
1.12432e+07
1.80277e+07
1.79092e+07
1.08267e+07
1.3258e+07
1.3039e+07
1.29103e+07
1.69682e+07
1.30467e+07
1.26434e+07
1.27129e+07
7.20712e+06
1.29959e+07
1.28269e+07
1.29969e+07
9.61732e+06
9.87091e+06
1.24316e+07
1.79652e+07
1.37199e+07
1.35999e+07
1.05103e+07
1.3082e+07
1.0322e+07
1.18025e+07
1.17415e+07
1.19234e+07
2.53352e+07
1.31749e+07
1.44141e+07
1.38722e+07
1.26166e+07
1.78981e+07
1.79758e+07
1.75715e+06
7.06976e+06
9.24379e+06
9.57023e+06
1.17177e+07
1.56047e+07
-1.34609e+07
1.54488e+07
1.33265e+07
1.3276e+07
2.38761e+07
1.39422e+07
1.31401e+07
1.17587e+07
2.24833e+07
1.16908e+07
1.87945e+07
8.53443e+06
1.80669e+07
1.25551e+07
1.65475e+06
2.15768e+07
1.48786e+07
1.4798e+07
1.32589e+07
1.18016e+07
1.3086e+07
1.30138e+07
1.54817e+07
8.94259e+06
1.79198e+07
4.17921e+06
1.29428e+07
1.24495e+07
1.24349e+07
1.78388e+07
1.28661e+07
1.75417e+07
1.09532e+07
1.11527e+07
1.35663e+07
1.23159e+07
9.41575e+06
1.15863e+07
1.29817e+07
1.34003e+07
2.25026e+07
1.31408e+07
6.30166e+06
-1.28345e+06
1.17463e+07
1.0124e+07
1.31293e+07
1.02605e+07
1.2404e+07
8.08542e+06
8.15997e+06
5.55463e+06
5.97369e+06
1.32878e+07
324610
1.25319e+07
1.45315e+07
1.47849e+06
1.2059e+07
1.20191e+07
2.0877e+07
1.74115e+07
1.7736e+07
1.82323e+07
1.71642e+07
1.76129e+07
1.49606e+07
1.15862e+07
1.8359e+07
3.18073e+06
1.49695e+07
1.25425e+07
1.09354e+07
1.28305e+07
1.2757e+07
1.45069e+07
1.436e+07
1.11216e+07
6.3401e+06
1.38796e+07
1.21979e+07
1.55451e+07
1.31773e+07
2.03808e+07
2.07762e+07
9.00061e+06
4.29104e+06
3.01846e+07
1.32772e+07
1.33314e+07
1.54689e+07
52140.7
1.73303e+07
1.27823e+07
1.7302e+07
1.26893e+07
1.32747e+07
1.28298e+07
1.77994e+07
1.07582e+07
1.225e+07
3.80301e+06
5.83188e+06
1.29851e+07
1.32378e+07
1.60557e+07
1.40881e+07
1.40291e+07
1.12113e+07
1.02119e+07
1.05979e+07
2.3804e+06
1.23608e+07
1.72495e+07
1.28787e+07
1.11276e+07
1.06091e+07
1.30941e+07
1.72086e+07
1.6455e+07
1.7867e+07
5.29487e+06
1.70382e+07
1.77933e+07
1.61308e+07
1.28263e+07
1.28304e+07
1.28324e+07
1.28124e+07
1.31222e+07
1.73964e+07
1.15499e+07
409543
1.29472e+07
1.28311e+07
3.70635e+06
1.53246e+07
1.49746e+07
1.34957e+07
1.2664e+07
1.43476e+07
1.24965e+07
1.21971e+07
1.44413e+07
1.31792e+07
1.23101e+07
1.28267e+07
1.38206e+07
1.57105e+07
1.23765e+07
1.27759e+07
1.26397e+07
1.65421e+07
2.29802e+07
1.42308e+07
1.66281e+07
2.21739e+07
1.76575e+07
1.30232e+07
1.68707e+07
1.31094e+07
1.25479e+07
1.43421e+07
1.06345e+07
1.08593e+07
1.42764e+07
1.24628e+07
1.29978e+07
1.80244e+07
1.32459e+07
1.66739e+07
1.21979e+07
1.38427e+07
1.36841e+07
1.8274e+07
-1.36881e+06
1.66562e+07
1.11624e+07
1.24922e+07
1.30914e+07
1.80971e+07
-3.72812e+06
1.1668e+07
1.24332e+07
1.31174e+07
1.40943e+07
1.3971e+07
1.13132e+07
1.46908e+07
3.27712e+06
1.23846e+07
1.30061e+07
1.27808e+07
1.2631e+07
2.72074e+07
2.71818e+07
1.33782e+07
1.05229e+07
1.24914e+07
2.80129e+07
1.32283e+07
2.83452e+07
1.23843e+07
1.34715e+07
1.28141e+07
7.52388e+06
-5.70004e+06
1.03178e+07
1.15695e+07
1.24532e+07
1.27969e+07
1.22371e+07
1.21545e+07
1.17309e+07
1.24082e+07
1.19824e+07
1.35293e+07
1.3352e+07
1.46918e+07
7.13143e+06
1.42368e+07
1.63919e+07
1.33468e+07
1.33512e+07
1.20942e+07
1.18946e+07
1.35208e+07
1.33717e+07
1.28191e+07
1.28507e+07
1.83795e+07
1.12104e+07
1.03083e+07
1.3457e+07
1.21822e+07
1.38483e+07
1.82717e+07
1.84264e+07
9.95477e+06
1.01437e+07
1.14478e+07
3.46978e+06
1.07665e+07
1.28435e+07
1.29496e+07
1.28561e+07
1.27365e+07
1.34645e+07
1.0291e+07
1.55684e+07
8.92281e+06
1.19055e+07
6.80354e+06
1.19561e+07
1.27004e+07
1.56715e+07
1.5307e+07
1.61389e+07
1.34096e+07
1.4341e+07
1.76072e+07
1.80696e+07
1.16262e+07
5.86e+06
1.24304e+07
1.28339e+07
1.28696e+07
1.14756e+07
1.33165e+07
1.22137e+07
1.2447e+07
1.12438e+07
1.20618e+07
1.83576e+07
1.23713e+07
1.37712e+07
1.36705e+07
5.90384e+06
4.93785e+06
1.14518e+07
1.32377e+07
1.30588e+07
1.30861e+07
1.27018e+07
1.63922e+07
1.4213e+07
1.40362e+07
7.66967e+06
1.67739e+07
1.39566e+07
1.44429e+07
1.13165e+07
1.17082e+07
1.5074e+07
1.16e+07
1.1585e+07
1.51387e+07
1.09485e+07
1.28864e+07
1.40755e+07
1.39105e+07
6.80355e+06
1.43387e+07
1.2947e+07
1.80099e+07
1.81085e+07
1.43185e+07
1.40091e+07
1.37128e+07
1.33791e+07
1.32633e+07
1.48833e+07
1.77346e+07
1.74602e+07
1.23215e+07
1.23427e+07
1.33334e+07
1.39785e+07
1.39183e+07
1.51429e+07
1.05769e+07
9.00341e+06
9.0447e+06
1.78818e+07
1.76308e+07
1.32161e+07
1.2981e+07
1.34876e+07
1.35101e+07
1.32733e+07
)
;

boundaryField
{
    back
    {
        type            empty;
    }
    front
    {
        type            empty;
    }
    down
    {
        type            symmetry;
    }
    right
    {
        type            zeroGradient;
    }
    up
    {
        type            zeroGradient;
    }
    left
    {
        type            symmetry;
    }
    hole
    {
        type            zeroGradient;
    }
}


// ************************************************************************* //
