/*--------------------------------*- C++ -*----------------------------------*\
| =========                 |                                                 |
| \\      /  F ield         | OpenFOAM: The Open Source CFD Toolbox           |
|  \\    /   O peration     | Version:  v2012                                 |
|   \\  /    A nd           | Website:  www.openfoam.com                      |
|    \\/     M anipulation  |                                                 |
\*---------------------------------------------------------------------------*/
FoamFile
{
    version     2.0;
    format      ascii;
    class       volVectorField;
    location    "10";
    object      D_0;
}
// * * * * * * * * * * * * * * * * * * * * * * * * * * * * * * * * * * * * * //

dimensions      [0 1 0 0 0 0 0];


internalField   nonuniform List<vector> 
30465
(
(0.00357582 -0.000337268 0)
(0.00423364 -0.000116152 0)
(0.00169585 -0.00130769 0)
(0.00395711 -0.000346946 0)
(0.00436669 -0.000445372 0)
(0.00437312 -0.000450306 0)
(0.00157365 -0.00135179 0)
(0.000395426 -0.00263308 0)
(0.00100827 -0.00204688 0)
(0.00225388 -0.000887359 0)
(0.000295409 -0.00270398 0)
(0.00204385 -0.000931497 0)
(0.00360706 -0.000251 0)
(0.00362811 -0.000231003 0)
(0.00292557 -0.000624811 0)
(0.00146691 -0.00148348 0)
(0.00434626 -0.00040791 0)
(0.00232536 -0.000982271 0)
(0.00102412 -0.0020268 0)
(0.00482002 -0.000309992 0)
(0.00421871 -3.0406e-05 0)
(0.00422567 -2.93704e-05 0)
(0.00380417 -9.60138e-05 0)
(0.000790644 -0.00222122 0)
(0.00379583 -9.85817e-05 0)
(0.00484927 -0.000164682 0)
(0.00483881 -0.000168534 0)
(0.00434111 -0.000115508 0)
(0.00460345 -8.79034e-05 0)
(0.00177555 -0.00153965 0)
(0.00315445 -0.000333078 0)
(0.0050908 -9.10248e-05 0)
(0.00357021 -0.000299358 0)
(0.00407979 -0.000300092 0)
(0.00361295 -0.000530906 0)
(0.00447199 -8.18117e-05 0)
(0.000962649 -0.00206533 0)
(0.00295819 -0.00125904 0)
(0.00420395 -0.000296347 0)
(0.00207371 -0.000918085 0)
(0.00405803 -7.33143e-05 0)
(0.00292233 -0.000563768 0)
(0.000765167 -0.00224389 0)
(0.00425837 -0.000105214 0)
(0.00427309 -0.000103624 0)
(0.00115307 -0.00194613 0)
(0.00239343 -0.000744256 0)
(0.00424491 -0.000115196 0)
(0.0049805 -0.000143626 0)
(0.00419003 -5.4499e-05 0)
(0.00418553 -5.67754e-05 0)
(0.00394228 -0.000255794 0)
(0.000573655 -0.00231353 0)
(0.000553906 -0.00234089 0)
(0.00150419 -0.00205197 0)
(0.00404515 -0.00015325 0)
(0.00152189 -0.00205863 0)
(0.00460422 -0.000237802 0)
(0.00464104 -9.50218e-05 0)
(0.00516997 -2.93035e-05 0)
(0.00516694 -2.84385e-05 0)
(0.00206881 -0.00106346 0)
(0.00451056 -3.80919e-06 0)
(0.00352132 -0.00046833 0)
(0.00352748 -0.000462387 0)
(0.00395701 -2.16111e-05 0)
(0.00330253 -0.000529689 0)
(0.000966054 -0.00217651 0)
(0.00421573 -8.99635e-06 0)
(0.00435457 -0.000218293 0)
(0.00377204 -0.000121874 0)
(0.00504353 -0.000168863 0)
(0.0013166 -0.00142165 0)
(0.00227376 -0.000793399 0)
(0.00356844 -0.000303842 0)
(0.00212055 -0.000899854 0)
(0.00480794 -4.3549e-05 0)
(0.00481068 -4.11781e-05 0)
(0.0032035 -0.000700948 0)
(0.000330017 -0.0026781 0)
(0.00106198 -0.00174157 0)
(0.00103543 -0.00176289 0)
(0.00430861 -0.000363168 0)
(0.00466834 -0.000163439 0)
(0.00376516 -0.000235728 0)
(0.0050721 -0.000133923 0)
(0.00464577 -9.71711e-05 0)
(0.00213845 -0.000888285 0)
(0.0044082 -0.00048724 0)
(0.00435654 -5.5019e-05 0)
(0.00514421 -7.63692e-05 0)
(0.0051411 -7.59618e-05 0)
(0.00435669 -0.000418604 0)
(0.00436052 -0.000412537 0)
(0.00224306 -0.000899607 0)
(0.00493259 -6.579e-05 0)
(0.00463467 -0.000108422 0)
(0.00464702 -0.000107588 0)
(0.000433487 -0.00258425 0)
(0.00469497 -9.00419e-05 0)
(0.00411025 -0.000387145 0)
(0.00414681 -3.68134e-05 0)
(0.00414828 -3.81249e-05 0)
(0.00315491 -0.000356351 0)
(0.00368566 -0.000172133 0)
(0.00309036 -0.000615398 0)
(0.00311106 -0.000612606 0)
(0.00489622 -0.000189829 0)
(0.00375558 -0.000126171 0)
(0.00390192 -7.60539e-05 0)
(0.0015767 -0.00144753 0)
(0.00399308 -0.000406163 0)
(0.00349053 -0.000527182 0)
(0.00350424 -0.000528951 0)
(0.0034182 -0.000283841 0)
(0.00342681 -0.000277965 0)
(0.00408181 -1.2637e-05 0)
(0.00506017 -0.000166706 0)
(0.00500269 -2.25777e-05 0)
(0.000343245 -0.00246693 0)
(0.00192734 -0.00100564 0)
(0.00446356 -8.281e-05 0)
(0.00385419 -0.000167889 0)
(0.00400627 -3.72635e-05 0)
(0.00429574 -0.000107333 0)
(0.00429294 -0.000104546 0)
(0.00418562 -1.34662e-05 0)
(0.00364134 -0.000463973 0)
(0.00498277 -0.000256802 0)
(0.00398289 -6.58333e-05 0)
(0.000760238 -0.00234602 0)
(0.0050555 -1.51056e-05 0)
(0.00154617 -0.00147051 0)
(0.00018018 -0.00274199 0)
(0.00479665 -0.000244853 0)
(0.00403884 -2.94149e-05 0)
(0.00135122 -0.0014177 0)
(0.00458175 -0.000158137 0)
(0.000868007 -0.00219712 0)
(0.00136616 -0.00140334 0)
(0.00380161 -0.000159167 0)
(0.000205915 -0.00277156 0)
(0.0040336 -1.79091e-05 0)
(0.00405338 -7.55827e-05 0)
(0.00458929 -5.33931e-05 0)
(0.00204268 -0.00112069 0)
(0.00518641 -6.52228e-05 0)
(0.00517985 -6.60801e-05 0)
(0.00303227 -0.000455506 0)
(0.00527037 -2.95087e-06 0)
(0.00484303 -0.000426253 0)
(0.00282385 -0.000483048 0)
(0.00497195 -0.000116535 0)
(0.0049787 -0.000116731 0)
(0.00414088 -0.000461447 0)
(0.00358082 -0.000232555 0)
(0.00319088 -0.000567545 0)
(0.00424392 -0.000317957 0)
(0.00265542 -0.000661508 0)
(0.00431124 -9.36748e-05 0)
(0.00432051 -9.15305e-05 0)
(0.00264245 -0.000671668 0)
(0.00307192 -0.000524411 0)
(0.00306172 -0.000531712 0)
(0.00405639 -1.89598e-05 0)
(0.0049897 -5.5658e-06 0)
(0.00471389 -0.000103879 0)
(0.000456406 -0.00257304 0)
(0.00459875 -0.000176156 0)
(0.00257658 -0.000646737 0)
(0.00356266 -0.000210794 0)
(0.00507594 -4.10034e-05 0)
(0.00488762 -7.82565e-05 0)
(0.00489757 -7.84829e-05 0)
(0.00455718 -0.000159651 0)
(0.00252887 -0.000676301 0)
(0.00366881 -0.000473491 0)
(0.00328288 -0.000290827 0)
(0.00406296 -1.58346e-05 0)
(0.000201906 -0.00277756 0)
(0.00174752 -0.00116509 0)
(0.00340413 -0.000358531 0)
(0.003421 -0.00035375 0)
(0.00451164 -0.000489827 0)
(0.00495419 -0.000266181 0)
(0.00346632 -0.000226582 0)
(0.000698391 -0.00227502 0)
(0.00388363 -0.000229272 0)
(0.00501272 -2.22889e-05 0)
(0.00438154 -0.000405243 0)
(0.00249544 -0.000772081 0)
(0.00492147 -0.000172711 0)
(0.00398982 -5.35495e-05 0)
(0.000237148 -0.00275823 0)
(0.00430778 -0.000396072 0)
(0.00430076 -0.000393299 0)
(0.00159384 -0.00133165 0)
(0.00412946 -0.000248665 0)
(0.00438344 -0.000310176 0)
(0.00355924 -0.000343224 0)
(0.00505503 -3.48437e-05 0)
(0.00470568 -9.02379e-05 0)
(0.00522724 -2.19874e-05 0)
(0.000203345 -0.00271925 0)
(0.00330995 -0.000266888 0)
(0.00380666 -0.000155212 0)
(0.00400119 -3.77318e-05 0)
(0.000354561 -0.0026376 0)
(0.00318129 -0.000336354 0)
(0.00429635 -7.80464e-05 0)
(0.00169065 -0.00129066 0)
(0.0038278 -0.00014627 0)
(0.00418748 -4.75709e-06 0)
(0.00474147 -0.000123554 0)
(0.00117798 -0.00192632 0)
(0.00317074 -0.000569972 0)
(0.0031532 -0.000578296 0)
(0.00481247 -0.000180904 0)
(0.00482108 -0.000176712 0)
(0.00251009 -0.000762043 0)
(0.00377189 -0.000456294 0)
(0.00367736 -0.000278538 0)
(0.00499316 -0.00010874 0)
(0.00477439 -0.000248028 0)
(0.00338947 -0.000551886 0)
(0.00393381 -0.000144784 0)
(0.00208991 -0.00104516 0)
(0.00280637 -0.00051962 0)
(0.00435251 -5.33039e-05 0)
(0.00348278 -0.000209722 0)
(0.00204682 -0.00107772 0)
(0.00485944 -9.18854e-05 0)
(0.00486675 -9.27834e-05 0)
(0.00342399 -0.000495411 0)
(0.00369746 -0.000140934 0)
(0.00406163 -2.17554e-05 0)
(0.00374858 -0.000496717 0)
(0.00376167 -0.000490596 0)
(0.00130101 -0.0015671 0)
(0.00133185 -0.00153713 0)
(0.0024713 -0.000718966 0)
(0.00349696 -0.000202787 0)
(0.00371153 -0.000201786 0)
(0.00330237 -0.000359026 0)
(0.00452137 -0.000131 0)
(0.00293664 -0.000647488 0)
(0.00319083 -0.000334013 0)
(0.00353594 -0.000252009 0)
(0.00106731 -0.00208437 0)
(0.00368116 -0.000147516 0)
(0.00420356 -0.00025675 0)
(0.00398145 -7.25354e-05 0)
(0.0039838 -6.75184e-05 0)
(0.00208339 -0.00106779 0)
(0.00336956 -0.00027635 0)
(0.000791425 -0.00232301 0)
(0.00224778 -0.00139954 0)
(0.00227662 -0.0013705 0)
(0.00291932 -0.000455279 0)
(6.58957e-05 -0.0027469 0)
(0.00505442 -0.00016423 0)
(0.00362662 -0.000148502 0)
(0.0036073 -0.000154913 0)
(0.00394761 -9.65672e-05 0)
(0.00189196 -0.00128568 0)
(0.00191185 -0.00126129 0)
(0.00417021 -0.000231985 0)
(0.00240603 -0.000710807 0)
(0.0034464 -0.000271018 0)
(0.00420964 -0.000207886 0)
(0.00498824 -7.40423e-06 0)
(0.00469206 -0.000345624 0)
(0.00452926 -9.05317e-05 0)
(0.00435237 -0.000446271 0)
(0.0036977 -0.000169259 0)
(0.00278831 -0.000663926 0)
(0.0035192 -0.000505555 0)
(0.00360071 -0.000164845 0)
(0.00161941 -0.00155943 0)
(0.00418175 -2.74024e-05 0)
(0.00158896 -0.00157965 0)
(0.00391605 -0.000508781 0)
(0.00349827 -0.000506079 0)
(0.00449922 -0.000296087 0)
(0.00428703 -7.94821e-05 0)
(0.00451449 -0.000259962 0)
(0.00290267 -0.000495675 0)
(0.00484949 -0.000186121 0)
(0.00526749 -2.29393e-06 0)
(0.00483745 -0.000430931 0)
(0.00329371 -0.000272811 0)
(0.00341979 -0.000220242 0)
(0.00386732 -0.000165302 0)
(0.00213073 -0.00136485 0)
(0.0050924 -3.10565e-05 0)
(0.00485558 -0.00024834 0)
(0.00503014 -8.9319e-06 0)
(0.00414565 -1.20098e-05 0)
(0.00415049 -1.13347e-05 0)
(0.00475077 -6.4166e-05 0)
(0.00394477 -0.000479625 0)
(0.00395781 -0.000476407 0)
(0.00129425 -0.00143918 0)
(0.00431018 -4.58188e-05 0)
(0.00448163 -3.57154e-05 0)
(0.00231546 -0.000799398 0)
(0.00233899 -0.000782375 0)
(0.00504845 -3.92603e-05 0)
(0.00362764 -0.000286667 0)
(0.00335546 -0.000951584 0)
(0.00362119 -0.000257025 0)
(0.00361468 -0.000255454 0)
(0.000403602 -0.00262616 0)
(0.0049539 -0.000230261 0)
(0.00146335 -0.00170392 0)
(0.00320731 -0.000490872 0)
(0.000106669 -0.00274414 0)
(9.36883e-05 -0.00274198 0)
(0.00251389 -0.000659464 0)
(0.00125063 -0.00216178 0)
(0.00271911 -0.000541991 0)
(0.00121839 -0.00216928 0)
(0.00249024 -0.000708757 0)
(0.00397274 -4.70592e-05 0)
(0.00415702 -0.000126083 0)
(0.00416155 -0.000122707 0)
(0.00193787 -0.00182388 0)
(0.00298831 -0.000527799 0)
(0.00396627 -0.000182356 0)
(0.00171057 -0.00136438 0)
(0.0040831 -8.96928e-07 0)
(0.00210616 -0.000965361 0)
(0.00396334 -4.89488e-05 0)
(0.0003187 -0.00269908 0)
(0.00376791 -0.000156073 0)
(0.0028761 -0.000600161 0)
(0.00513746 -9.39682e-05 0)
(0.00393405 -7.57611e-05 0)
(0.00394434 -7.437e-05 0)
(0.00269349 -0.000552512 0)
(0.00295038 -0.000470561 0)
(0.00393344 -0.00026089 0)
(0.00182315 -0.00128641 0)
(0.00470964 -0.000101951 0)
(0.00405432 -0.000164556 0)
(0.00269632 -0.00054993 0)
(0.00268691 -0.000555271 0)
(0.00152222 -0.00129738 0)
(0.0027688 -0.000636273 0)
(0.00521646 -5.7744e-05 0)
(0.00279275 -0.000505563 0)
(0.00445215 -5.32919e-05 0)
(0.000734515 -0.00215971 0)
(0.000301368 -0.00271368 0)
(0.00362886 -0.000208866 0)
(0.00306158 -0.000521119 0)
(0.00403128 -3.13279e-05 0)
(0.00126575 -0.00154315 0)
(0.00363082 -0.000224647 0)
(0.00375719 -0.000375372 0)
(0.00273292 -0.000556045 0)
(0.00273661 -0.000550829 0)
(0.00488878 -0.000147682 0)
(0.00342274 -0.000480481 0)
(0.00375142 -0.000365818 0)
(0.001731 -0.00118062 0)
(0.000347497 -0.00266082 0)
(0.00423021 -3.33963e-06 0)
(0.00397372 -5.93798e-05 0)
(0.00321546 -0.000301851 0)
(0.00151677 -0.00200894 0)
(0.00514417 -7.29845e-05 0)
(0.00093599 -0.00208654 0)
(0.00264757 -0.000888111 0)
(0.00266092 -0.000864899 0)
(0.00290219 -0.00053664 0)
(0.00460577 -0.000419146 0)
(0.00347546 -0.000377103 0)
(0.00461055 -0.000176017 0)
(0.00426227 -0.000409804 0)
(0.00325143 -0.000514629 0)
(0.00463877 -0.000348002 0)
(0.0047713 -0.000287662 0)
(0.00302486 -0.000553836 0)
(0.000723952 -0.0021785 0)
(0.00438849 -5.07392e-05 0)
(0.0039901 -4.72804e-05 0)
(0.00188731 -0.00105925 0)
(0.00191329 -0.00104096 0)
(0.00398869 -4.75051e-05 0)
(0.00147251 -0.00170543 0)
(0.0041132 -3.31909e-05 0)
(0.00431764 -4.59392e-05 0)
(0.00465408 -3.32963e-05 0)
(0.00358192 -0.00027454 0)
(0.00469321 -0.000388965 0)
(0.00402669 -2.90824e-05 0)
(0.00482977 -9.48578e-06 0)
(0.00468639 -0.000427405 0)
(0.00469516 -0.000420833 0)
(0.00520266 -4.79521e-05 0)
(0.00519054 -5.11533e-05 0)
(0.003236 -0.000478695 0)
(0.0042176 -2.37992e-06 0)
(0.00366619 -0.000561562 0)
(0.00357953 -0.000205618 0)
(0.00315202 -0.000332045 0)
(0.00388645 -0.000387504 0)
(0.00455846 -0.000300738 0)
(0.00447966 -3.75143e-05 0)
(0.00483215 -0.000388393 0)
(0.00329656 -0.000582112 0)
(0.00430102 -9.29536e-05 0)
(0.00261159 -0.000597453 0)
(0.00412468 -0.00038434 0)
(0.00366187 -0.000417342 0)
(0.00439366 -7.63852e-05 0)
(0.000360579 -0.00255055 0)
(0.00206633 -0.000917303 0)
(0.00204826 -0.000928619 0)
(0.00416797 -7.30713e-05 0)
(0.00034999 -0.00266054 0)
(0.001432 -0.00156928 0)
(0.00304987 -0.000389276 0)
(0.00485996 -2.02973e-05 0)
(0.00306827 -0.000380005 0)
(0.00132792 -0.00162528 0)
(0.0033916 -0.000258425 0)
(0.00394378 -0.000347303 0)
(0.00298941 -0.000406522 0)
(0.00130221 -0.00177535 0)
(0.00465798 -0.00013249 0)
(0.00330487 -0.00073529 0)
(0.00444493 -0.000428177 0)
(0.00444637 -0.000432813 0)
(0.00491084 -0.000404703 0)
(0.00532392 -2.52782e-06 0)
(0.00419211 -0.000499084 0)
(0.00167116 -0.00168346 0)
(0.0043694 -4.19053e-06 0)
(0.00179997 -0.00130192 0)
(0.00359479 -0.000223201 0)
(0.00430121 -0.000298666 0)
(0.00250887 -0.000690031 0)
(0.00520033 -4.0524e-05 0)
(0.00500374 -8.24253e-05 0)
(0.00332292 -0.000261209 0)
(0.00333846 -0.00025535 0)
(0.00128209 -0.00151581 0)
(0.00376932 -0.000283074 0)
(0.00357744 -0.000272454 0)
(0.00372306 -0.000168188 0)
(0.00391062 -6.9091e-05 0)
(0.00306662 -0.000508247 0)
(0.00366418 -0.000468464 0)
(0.00226484 -0.000794633 0)
(0.00432905 -0.000379221 0)
(0.00380748 -9.17952e-05 0)
(0.00381079 -9.13023e-05 0)
(0.00450147 -3.74936e-06 0)
(0.0047841 -0.000239761 0)
(0.0047725 -0.00024431 0)
(0.000268385 -0.00267064 0)
(0.00477753 -6.8693e-05 0)
(0.0042192 -0.000104086 0)
(0.00368201 -0.000560745 0)
(0.00452564 -0.000289938 0)
(0.00511039 -2.66389e-05 0)
(0.00411755 -0.000415683 0)
(0.00412719 -0.000410478 0)
(0.00123886 -0.00174272 0)
(0.00120648 -0.00176884 0)
(0.00427154 -0.000469016 0)
(0.00365128 -0.000163911 0)
(0.00509581 -0.000119031 0)
(0.00247734 -0.000779724 0)
(0.00497059 -7.43729e-05 0)
(0.00496168 -7.39044e-05 0)
(0.00403788 -2.06605e-05 0)
(0.0036982 -0.000125653 0)
(0.00409026 -0.000167672 0)
(0.00408474 -0.000164766 0)
(0.00485661 -0.000250751 0)
(0.00372775 -0.000135526 0)
(0.00268991 -0.000575461 0)
(0.00434864 -0.000112946 0)
(0.00317636 -0.000597755 0)
(0.00315638 -0.000603684 0)
(0.00375639 -0.000184223 0)
(0.00307467 -0.000511486 0)
(0.00388665 -0.000219669 0)
(0.00505595 -1.1313e-06 0)
(0.00458602 -0.000489619 0)
(0.00244579 -0.000687729 0)
(0.00224262 -0.0010326 0)
(0.00215776 -0.000861547 0)
(0.00378218 -0.000120894 0)
(0.00484601 -0.000113698 0)
(0.00412641 -0.000208898 0)
(0.00385198 -0.000161238 0)
(0.00043607 -0.00258107 0)
(0.00498289 -0.00015787 0)
(0.0049721 -0.000161751 0)
(0.00217377 -0.00175233 0)
(0.00399692 -7.39368e-05 0)
(0.00366404 -0.000548292 0)
(3.25497e-05 -0.00292124 0)
(0.00151267 -0.00141067 0)
(0.00397549 -5.30871e-05 0)
(0.00172546 -0.00135776 0)
(0.00197095 -0.0012329 0)
(0.00125844 -0.00153754 0)
(0.0034716 -0.000213206 0)
(0.00509663 -9.07275e-05 0)
(0.0042012 -0.000109072 0)
(0.0041909 -0.000108721 0)
(0.00399141 -9.19242e-05 0)
(0.00401245 -3.65839e-05 0)
(0.0038753 -0.000270824 0)
(0.00293477 -0.000475226 0)
(0.00124921 -0.00214386 0)
(0.00323647 -0.000412679 0)
(0.00267288 -0.000563631 0)
(0.00413611 -0.000165387 0)
(0.00509162 -0.000152195 0)
(0.00333043 -0.000354592 0)
(0.00135355 -0.00164713 0)
(0.000662869 -0.00228708 0)
(0.00339477 -0.000357866 0)
(0.0032803 -0.000738511 0)
(0.00457002 -0.00015677 0)
(0.00398242 -5.09926e-05 0)
(0.0030138 -0.000630669 0)
(0.00417941 -1.35542e-05 0)
(0.0022982 -0.000877201 0)
(0.00463012 -1.68392e-05 0)
(0.00213264 -0.00175277 0)
(0.00473746 -0.000121613 0)
(0.000112118 -0.00287398 0)
(0.00281473 -0.000644921 0)
(0.00355743 -0.000171432 0)
(0.0031713 -0.000326048 0)
(0.00367686 -0.000274538 0)
(0.000350272 -0.00249119 0)
(0.00178827 -0.00175656 0)
(0.00278747 -0.00052945 0)
(0.00498079 -0.000201998 0)
(0.0049713 -0.000206836 0)
(0.00314868 -0.000586535 0)
(0.00451344 -0.000442155 0)
(0.0032189 -0.000408298 0)
(0.00136273 -0.00166481 0)
(0.0045106 -0.000461237 0)
(0.00425337 -0.000414882 0)
(0.00520671 -3.99145e-05 0)
(0.00305639 -0.000432703 0)
(0.00275202 -0.00101539 0)
(0.00496356 -6.30896e-05 0)
(0.00345559 -0.000207096 0)
(0.00286699 -0.000650671 0)
(0.0031718 -0.000716206 0)
(0.00405495 -5.77972e-05 0)
(0.00325299 -0.000332942 0)
(0.00197317 -0.00182535 0)
(0.00151902 -0.00183928 0)
(0.00378947 -9.69696e-05 0)
(0.00377346 -0.000101682 0)
(0.0043013 -0.000102014 0)
(0.00402029 -3.69702e-05 0)
(0.0040293 -3.47983e-05 0)
(0.00282843 -0.000499102 0)
(0.0040074 -0.000262511 0)
(0.00403473 -2.23315e-05 0)
(0.00045957 -0.00257783 0)
(0.00429565 -0.000366235 0)
(0.00043111 -0.00260089 0)
(0.00509547 -6.73838e-05 0)
(0.00508815 -7.01553e-05 0)
(0.00337164 -0.000554571 0)
(0.00398915 -0.000336633 0)
(0.00191752 -0.00107896 0)
(0.00457679 -0.000206683 0)
(0.00411659 -1.97987e-05 0)
(0.00438169 -5.24068e-05 0)
(0.00523524 -2.05092e-05 0)
(0.000280964 -0.00271623 0)
(0.00461583 -0.0004179 0)
(0.00460652 -0.000258558 0)
(0.0041032 -0.000181974 0)
(0.00411087 -0.000183523 0)
(0.0046341 -0.000310409 0)
(0.00399384 -2.26087e-05 0)
(0.00491802 -0.000405297 0)
(0.0053311 -2.04076e-06 0)
(0.00206357 -0.00107772 0)
(0.00438164 -0.000164791 0)
(0.00439396 -0.000164601 0)
(0.00301672 -0.000462867 0)
(0.00358519 -0.000539803 0)
(0.00372763 -0.000115966 0)
(0.0035814 -0.000392225 0)
(0.00397383 -7.2357e-05 0)
(0.00430351 -8.84554e-05 0)
(0.00397985 -7.26229e-05 0)
(0.00132971 -0.00175411 0)
(0.00465014 -3.50377e-05 0)
(0.00445186 -3.5785e-05 0)
(0.00446073 -3.59011e-05 0)
(0.00292034 -0.000486791 0)
(0.00366981 -0.000434789 0)
(0.002296 -0.000810792 0)
(0.00226671 -0.000827296 0)
(0.000973335 -0.00171476 0)
(0.00451286 -0.000484715 0)
(0.000349537 -0.00239108 0)
(0.00344755 -0.000285255 0)
(0.000304308 -0.00265285 0)
(0.00398043 -0.000341095 0)
(0.000295903 -0.00240352 0)
(0.00192261 -0.00112452 0)
(0.00474021 -7.22826e-05 0)
(0.00465594 -3.66044e-05 0)
(0.00330212 -0.000588263 0)
(0.00474365 -5.11816e-05 0)
(0.00398782 -5.58626e-05 0)
(0.00118881 -0.00194614 0)
(0.00453351 -8.79885e-05 0)
(0.00363158 -0.000175247 0)
(0.00476362 -8.22504e-05 0)
(0.00397615 -0.000381614 0)
(0.00423487 -1.19312e-05 0)
(0.00307647 -0.000506408 0)
(0.00247388 -0.000690538 0)
(0.00502708 -9.33528e-05 0)
(0.00501303 -9.60215e-05 0)
(0.00498316 -0.000110647 0)
(0.00320889 -0.000304326 0)
(0.00489487 -8.58193e-05 0)
(0.00401001 -3.77312e-05 0)
(0.00418079 -7.14846e-05 0)
(0.00347958 -0.000380644 0)
(0.00252605 -0.00150705 0)
(0.0039389 -0.000135659 0)
(0.00495721 -6.23242e-05 0)
(0.00396703 -8.16406e-05 0)
(0.00283797 -0.000495934 0)
(0.00298538 -0.000506407 0)
(0.000788857 -0.0022311 0)
(0.00474349 -6.34859e-05 0)
(0.00430411 -0.000293773 0)
(0.00457157 -0.000296671 0)
(0.00150362 -0.00185795 0)
(0.00397708 -5.9748e-05 0)
(0.00404554 -8.05108e-05 0)
(0.00364028 -0.000257645 0)
(0.00473108 -4.60655e-05 0)
(0.0037168 -0.000119666 0)
(0.00496504 -0.000202159 0)
(0.0046234 -0.000312393 0)
(0.00204485 -0.000931538 0)
(0.0041482 -3.11969e-05 0)
(0.00496757 -9.47272e-05 0)
(0.00497714 -9.23393e-05 0)
(0.00461747 -0.000254297 0)
(0.00530422 -1.48646e-05 0)
(0.00496496 -0.000308241 0)
(0.00411869 -0.0001406 0)
(0.00413117 -0.000138771 0)
(0.00385125 -0.000106393 0)
(0.000371835 -0.00262826 0)
(0.00492253 -0.000242666 0)
(0.00363392 -0.000254006 0)
(0.00421009 -2.30711e-06 0)
(0.00183993 -0.00170569 0)
(0.00144727 -0.00148885 0)
(0.00434635 -0.000412336 0)
(0.00448912 -0.000378715 0)
(0.000105811 -0.00270823 0)
(0.00468484 -0.000105909 0)
(0.00374371 -0.000128012 0)
(0.0030831 -0.000363378 0)
(0.00289362 -0.00059685 0)
(0.00464968 -0.0003224 0)
(0.00314415 -0.000335917 0)
(2.56626e-05 -0.00257551 0)
(0.000597322 -0.00246829 0)
(0.00491618 -0.000247115 0)
(0.00508631 -0.00010805 0)
(0.00507779 -0.00011175 0)
(0.000365514 -0.00255481 0)
(0.00377881 -0.00023424 0)
(0.00476998 -0.000257559 0)
(0.00336312 -0.000551506 0)
(0.00375873 -0.00045879 0)
(0.00474923 -7.24796e-05 0)
(0.00281224 -0.000496432 0)
(0.00496942 -5.2944e-05 0)
(0.00496907 -5.09556e-05 0)
(0.00158968 -0.00130585 0)
(0.00177904 -0.00136796 0)
(0.00157742 -0.0013093 0)
(0.00144966 -0.00140617 0)
(0.00356799 -0.000393903 0)
(0.00405959 -0.000194223 0)
(0.00407245 -0.000193385 0)
(0.000354952 -0.00262904 0)
(0.00327186 -0.000511152 0)
(0.000763976 -0.00225953 0)
(0.000566768 -0.00243885 0)
(0.00480332 -0.000193161 0)
(0.000554147 -0.00244631 0)
(0.00484129 -3.0029e-05 0)
(0.00484984 -2.79464e-05 0)
(0.00300825 -0.000431925 0)
(0.00147279 -0.00142114 0)
(0.0037679 -0.000260983 0)
(0.00165352 -0.00119365 0)
(0.0016813 -0.00117357 0)
(0.00340331 -0.000246309 0)
(0.00440535 -7.58267e-05 0)
(0.00223686 -0.000816846 0)
(0.00226562 -0.000800759 0)
(0.00286158 -0.00101225 0)
(0.00224245 -0.000820901 0)
(0.00108902 -0.00176829 0)
(0.00498825 -0.000137949 0)
(0.00381178 -0.000503593 0)
(0.00169809 -0.00165806 0)
(0.00310287 -0.000355011 0)
(0.00428805 -0.000334237 0)
(0.0042344 -9.81471e-05 0)
(0.00422247 -9.92597e-05 0)
(0.00316969 -0.000334163 0)
(0.000921454 -0.00230743 0)
(0.00315465 -0.00033911 0)
(0.000909803 -0.00230945 0)
(0.00513872 -4.7814e-05 0)
(0.00392362 -0.000503689 0)
(0.00301607 -0.000512662 0)
(0.00336555 -0.000245969 0)
(0.00391065 -8.01286e-05 0)
(0.00392119 -7.89738e-05 0)
(0.00448916 -1.52685e-05 0)
(0.00449846 -1.57244e-05 0)
(0.00274325 -0.000647068 0)
(0.0013799 -0.00198294 0)
(0.00182647 -0.0017785 0)
(0.00310312 -0.000544596 0)
(0.0024583 -0.000783763 0)
(0.00438107 -0.000471642 0)
(0.00356767 -0.000167264 0)
(0.00193848 -0.00106102 0)
(0.00207674 -0.00122208 0)
(0.00524197 -2.73166e-05 0)
(0.000990288 -0.00216325 0)
(0.00245704 -0.00068113 0)
(0.00236444 -0.000894938 0)
(0.00400089 -0.000177027 0)
(0.00297842 -0.000512757 0)
(0.00396716 -4.91387e-05 0)
(0.00350139 -0.000253527 0)
(0.00397684 -4.66093e-05 0)
(0.00088025 -0.00223566 0)
(0.00457975 -5.47829e-05 0)
(0.00377879 -0.000257334 0)
(0.00297074 -0.000455722 0)
(0.00278382 -0.000995266 0)
(0.00446092 -2.85289e-05 0)
(0.00446134 -2.68201e-05 0)
(0.00484092 -4.03083e-05 0)
(0.00313923 -0.000335522 0)
(0.00314876 -0.00033196 0)
(0.00424789 -1.64416e-05 0)
(0.0042631 -0.000302038 0)
(0.00373768 -0.000170167 0)
(0.00456127 -0.000237062 0)
(0.00308767 -0.000568305 0)
(0.00308542 -0.000576179 0)
(0.00506563 -1.57446e-05 0)
(0.00206431 -0.00122084 0)
(0.00340459 -0.000225692 0)
(0.00468179 -4.68914e-05 0)
(0.00302405 -0.00073684 0)
(0.00513131 -9.26666e-05 0)
(0.00512196 -9.53075e-05 0)
(0.000435306 -0.00257938 0)
(0.00277506 -0.00139359 0)
(0.0046948 -0.000379962 0)
(0.00468794 -0.000385534 0)
(0.00337579 -0.000241537 0)
(0.00383422 -0.000104289 0)
(0.00382304 -0.000106578 0)
(0.000910705 -0.00216667 0)
(0.00497466 -0.000113833 0)
(0.00277578 -0.000507747 0)
(0.00468665 -0.000359022 0)
(0.00377132 -0.000102156 0)
(0.0037407 -0.000515932 0)
(0.00495661 -0.000261413 0)
(0.00447816 -5.04244e-05 0)
(0.00409985 -9.88679e-06 0)
(0.00327521 -0.000345121 0)
(0.00484747 -5.22627e-05 0)
(0.00484238 -5.46981e-05 0)
(0.00275591 -0.00054176 0)
(0.0011072 -0.00173979 0)
(0.00518633 -2.80054e-05 0)
(0.00296883 -0.000420407 0)
(0.00405427 -2.61401e-05 0)
(0.00420095 -1.04499e-06 0)
(0.00421338 -0.000106832 0)
(0.00106811 -0.0017911 0)
(0.00407965 -7.0045e-05 0)
(0.0046305 -9.53433e-05 0)
(0.00499285 -0.000158903 0)
(0.00499557 -0.000155886 0)
(0.00355148 -0.000515066 0)
(0.00456341 -0.000404853 0)
(0.00455052 -0.000408741 0)
(0.00449692 -2.61606e-05 0)
(0.0045066 -2.55842e-05 0)
(0.00415174 -1.38554e-05 0)
(0.00465592 -0.000221251 0)
(0.00465331 -0.000224583 0)
(0.0040803 -1.25475e-05 0)
(0.00377564 -0.000101141 0)
(0.000179374 -0.00274584 0)
(0.00476579 -0.000140264 0)
(0.00397502 -0.000178594 0)
(0.00475208 -0.000387358 0)
(0.00444 -0.000404134 0)
(0.00449476 -9.51167e-06 0)
(0.0012521 -0.00154799 0)
(0.00271548 -0.000560675 0)
(0.00136214 -0.00163312 0)
(0.00361363 -0.000301319 0)
(0.00420353 -0.000498195 0)
(0.00145272 -0.00155277 0)
(0.00264268 -0.000687279 0)
(0.00262161 -0.000695471 0)
(0.000227868 -0.00275652 0)
(0.0039742 -6.15432e-05 0)
(0.000114043 -0.00287366 0)
(0.00339695 -0.000259059 0)
(0.00461003 -0.000280448 0)
(0.0046142 -0.000275542 0)
(0.00338447 -0.000247572 0)
(0.00350754 -0.00029247 0)
(0.00416098 -2.29295e-05 0)
(0.00179357 -0.00109542 0)
(0.00179738 -0.0010918 0)
(0.00341289 -0.000337126 0)
(0.00108544 -0.00211025 0)
(0.0036122 -0.000246517 0)
(0.00343216 -0.000324987 0)
(0.000865198 -0.00233098 0)
(0.00495827 -0.000231345 0)
(0.00225538 -0.000811121 0)
(0.00526405 -2.43191e-05 0)
(0.00396979 -5.70111e-05 0)
(0.00264243 -0.000712151 0)
(0.00456396 -5.4981e-06 0)
(0.00156839 -0.00123886 0)
(0.00461233 -0.000130734 0)
(0.00207952 -0.000911755 0)
(0.00310157 -0.000352497 0)
(0.00374285 -0.000135206 0)
(0.00229132 -0.000931975 0)
(0.00449425 -0.000361228 0)
(0.00367756 -0.000519106 0)
(0.00223969 -0.000856016 0)
(0.00457607 -0.0004201 0)
(0.00418977 -1.86824e-05 0)
(0.00222405 -0.000863501 0)
(0.0019789 -0.000999781 0)
(0.00462017 -0.000131547 0)
(0.00427104 -0.000132752 0)
(0.00425835 -0.000132738 0)
(0.00429364 -0.000134967 0)
(0.000981059 -0.0021759 0)
(0.00508139 -0.000156411 0)
(0.00412237 -7.62217e-05 0)
(0.00413368 -7.37913e-05 0)
(0.00464103 -0.000343888 0)
(0.00438351 -4.37518e-05 0)
(0.00471661 -8.80496e-05 0)
(0.00443178 -1.83376e-05 0)
(0.00413726 -0.000286675 0)
(0.00343766 -0.000213928 0)
(0.00450118 -0.000378032 0)
(0.00415814 -0.000234076 0)
(0.00434025 -0.000219152 0)
(0.00276079 -0.000570184 0)
(0.00259214 -0.000609047 0)
(0.00394112 -0.000138244 0)
(0.00371133 -0.000291393 0)
(0.00332683 -0.000594597 0)
(0.00373268 -0.000171057 0)
(0.00432061 -0.000384559 0)
(0.0048048 -2.20503e-05 0)
(0.00181483 -0.00170517 0)
(0.00303295 -0.000622879 0)
(0.00411685 -0.0002518 0)
(0.00437377 -0.000409947 0)
(0.00478434 -0.000112631 0)
(0.00437721 -8.65031e-05 0)
(0.00106019 -0.00187676 0)
(0.00437876 -0.000306228 0)
(0.00158014 -0.00148323 0)
(0.00418969 -0.000129265 0)
(0.000208781 -0.00258843 0)
(0.00396889 -5.16127e-05 0)
(0.00397944 -4.9328e-05 0)
(0.00398256 -4.52429e-05 0)
(0.00436873 -3.05074e-06 0)
(0.00362448 -0.000178745 0)
(0.00162434 -0.00152226 0)
(0.00278929 -0.00050068 0)
(0.00386877 -8.08097e-05 0)
(0.00159833 -0.00153681 0)
(0.00351025 -0.000295597 0)
(0.00144602 -0.00150488 0)
(0.00463897 -0.000401193 0)
(0.00206037 -0.000927416 0)
(0.00378472 -0.00011413 0)
(0.00316977 -0.000349544 0)
(0.00378365 -0.000130656 0)
(0.000912306 -0.00207339 0)
(0.00429376 -9.54028e-05 0)
(0.00162507 -0.00127793 0)
(0.00381132 -0.000392048 0)
(0.00164239 -0.00125918 0)
(0.00503012 -4.66142e-05 0)
(0.00245555 -0.000779394 0)
(0.00231847 -0.000867536 0)
(0.0012087 -0.00152288 0)
(0.00404448 -0.000156794 0)
(0.00492719 -0.000229775 0)
(0.00372946 -0.000153387 0)
(0.00118671 -0.001835 0)
(0.00326386 -0.000314965 0)
(0.00448688 -0.000298819 0)
(0.00166689 -0.00133395 0)
(0.00116183 -0.00185377 0)
(0.0019555 -0.00131045 0)
(0.00190516 -0.00101995 0)
(0.00340093 -0.000545063 0)
(0.00367278 -0.000524919 0)
(0.00345243 -0.000240278 0)
(0.00317358 -0.000320877 0)
(0.00412971 -0.000464794 0)
(0.00479675 -2.16325e-05 0)
(0.00481715 -0.000182205 0)
(0.00275509 -0.000671741 0)
(0.00502302 -1.10728e-05 0)
(0.00352039 -0.000319602 0)
(0.00465518 -0.000135334 0)
(0.000892807 -0.00218598 0)
(0.00470466 -0.00044899 0)
(0.0051477 -7.00407e-06 0)
(0.00474676 -5.91297e-05 0)
(0.00474336 -5.69826e-05 0)
(0.00335994 -0.000526221 0)
(0.00268643 -0.000747229 0)
(0.00117908 -0.00177644 0)
(0.00268373 -0.000736294 0)
(0.00413683 -0.000283047 0)
(0.00312665 -0.000401743 0)
(0.00401183 -3.86313e-05 0)
(0.00392307 -0.000203401 0)
(0.000614748 -0.00242441 0)
(0.00187565 -0.00169123 0)
(0.00388078 -0.000257663 0)
(0.00410826 -3.49129e-05 0)
(0.00385781 -0.000101282 0)
(0.0039465 -0.000222455 0)
(0.00428293 -0.000137301 0)
(0.00388555 -0.000101792 0)
(0.00246794 -0.000678336 0)
(0.00452541 -8.4759e-06 0)
(0.0040679 -0.000433775 0)
(0.00361819 -0.000360728 0)
(0.0039481 -9.86998e-05 0)
(0.00485425 -0.00010457 0)
(0.00461528 -0.000250516 0)
(0.00436424 -0.000460481 0)
(2.33876e-05 -0.00272663 0)
(0.00517792 -2.90258e-05 0)
(0.00380107 -0.000508522 0)
(0.000285904 -0.00255784 0)
(0.00398704 -0.000116511 0)
(0.00473504 -0.000269782 0)
(0.00397521 -4.56213e-05 0)
(0.00420083 -1.06923e-05 0)
(0.00419949 -9.91141e-06 0)
(0.0031324 -0.000346526 0)
(0.00273941 -0.00117842 0)
(0.00194875 -0.00125571 0)
(0.00156871 -0.00201632 0)
(0.00269902 -0.00118552 0)
(0.00453396 -0.000310707 0)
(0.00265649 -0.000693556 0)
(0.00443955 -5.60507e-05 0)
(0.00419591 -0.000253385 0)
(0.005025 -0.000153764 0)
(0.0036101 -0.000159139 0)
(0.00278711 -0.000509248 0)
(0.00281206 -0.000496345 0)
(0.00400544 -4.25791e-05 0)
(0.0017574 -0.00198232 0)
(0.00418323 -1.90211e-05 0)
(0.00171076 -0.0019961 0)
(0.0050011 -0.000139232 0)
(0.000400875 -0.00262082 0)
(0.00452044 -4.60805e-05 0)
(0.00453186 -4.62115e-05 0)
(0.000563102 -0.00230761 0)
(0.000535855 -0.00233069 0)
(0.00438977 -8.88773e-05 0)
(0.00303312 -0.000382059 0)
(0.00504501 -4.31067e-05 0)
(0.00216502 -0.000855475 0)
(0.002167 -0.000854121 0)
(0.00475388 -0.000271054 0)
(0.00412398 -0.000205755 0)
(0.00267161 -0.000900432 0)
(0.00281515 -0.000487609 0)
(0.00455692 -0.00037823 0)
(0.00456926 -0.000377086 0)
(0.000792175 -0.00197827 0)
(0.00435669 -7.09756e-06 0)
(0.0048711 -7.62791e-05 0)
(0.000762145 -0.00199658 0)
(0.00385542 -8.499e-05 0)
(0.00352233 -0.000566227 0)
(0.00398101 -4.42563e-05 0)
(0.00154057 -0.00198257 0)
(0.00422154 -0.000323376 0)
(0.00439291 -9.06823e-05 0)
(0.00419093 -0.000126325 0)
(0.00406296 -5.76419e-05 0)
(0.0035023 -0.000484318 0)
(0.00268735 -0.000583877 0)
(0.00308189 -0.000394878 0)
(0.00270956 -0.000571415 0)
(0.00470495 -0.000387087 0)
(0.00385497 -0.000100735 0)
(0.00103468 -0.00184083 0)
(0.00347008 -0.000210901 0)
(0.0030439 -0.000791757 0)
(0.00436445 -8.42988e-05 0)
(0.00385467 -0.000443652 0)
(0.00331681 -0.000814088 0)