/*--------------------------------*- C++ -*----------------------------------*\
| =========                 |                                                 |
| \\      /  F ield         | OpenFOAM: The Open Source CFD Toolbox           |
|  \\    /   O peration     | Version:  v2012                                 |
|   \\  /    A nd           | Website:  www.openfoam.com                      |
|    \\/     M anipulation  |                                                 |
\*---------------------------------------------------------------------------*/
FoamFile
{
    version     2.0;
    format      ascii;
    class       volVectorField;
    location    "19";
    object      D_0;
}
// * * * * * * * * * * * * * * * * * * * * * * * * * * * * * * * * * * * * * //

dimensions      [0 1 0 0 0 0 0];


internalField   nonuniform List<vector> 
250
(
(0.000385351 -8.10491e-05 0)
(0.000364612 -0.000496153 0)
(0.000287436 -0.000679673 0)
(0.000221456 -0.000841097 0)
(0.000155296 -0.000873563 0)
(0.000790002 -0.000387674 0)
(0.000717048 -0.000557921 0)
(0.00056747 -0.000571369 0)
(0.000452452 -0.000629677 0)
(0.00032128 -0.00061008 0)
(0.000876676 -0.000438078 0)
(0.000808383 -0.000425482 0)
(0.000696615 -0.000380817 0)
(0.000620905 -0.000388272 0)
(0.000525198 -0.000363434 0)
(0.000792645 -0.000381237 0)
(0.000761292 -0.000353281 0)
(0.000705017 -0.000324292 0)
(0.000662845 -0.000313957 0)
(0.000606033 -0.000289373 0)
(0.00089227 -0.000292427 0)
(0.000856524 -0.000259217 0)
(0.000810232 -0.000223044 0)
(0.000777858 -0.000202896 0)
(0.000732208 -0.000173315 0)
(0.000854836 -0.000215384 0)
(0.000847673 -0.000189966 0)
(0.000823684 -0.000165499 0)
(0.000812282 -0.000145111 0)
(0.000787309 -0.000128516 0)
(0.000921975 -0.00017629 0)
(0.000909456 -0.000146403 0)
(0.00089235 -0.000116982 0)
(0.000879441 -9.83874e-05 0)
(0.00086157 -7.39318e-05 0)
(0.000922689 -9.70066e-05 0)
(0.00092642 -8.1564e-05 0)
(0.000920125 -6.45208e-05 0)
(0.000918834 -5.30628e-05 0)
(0.000909049 -3.79752e-05 0)
(0.000950456 -7.73321e-05 0)
(0.000954725 -6.05724e-05 0)
(0.000952582 -4.61144e-05 0)
(0.000953029 -3.58033e-05 0)
(0.000947495 -2.37241e-05 0)
(0.000954345 -7.86491e-06 0)
(0.000963457 -7.41258e-06 0)
(0.00096443 -4.57974e-06 0)
(0.000967847 -3.98783e-06 0)
(0.000964967 -1.10942e-06 0)
(0.000965677 4.69662e-07 0)
(0.000948544 -1.04122e-05 0)
(0.000911587 -1.7527e-05 0)
(0.000858974 -4.01592e-05 0)
(0.000792548 -7.14201e-05 0)
(0.00095632 4.51951e-06 0)
(0.000941991 -1.49532e-06 0)
(0.000909367 3.82038e-06 0)
(0.000870891 -1.22175e-05 0)
(0.00081652 -1.45427e-05 0)
(0.000959334 4.21521e-06 0)
(0.000945095 2.20404e-06 0)
(0.00091832 8.04403e-06 0)
(0.000874084 -3.30343e-06 0)
(0.000826997 -2.87157e-06 0)
(0.000957854 6.63019e-06 0)
(0.000946933 4.30501e-06 0)
(0.000926416 1.67539e-05 0)
(0.000895522 8.97587e-06 0)
(0.000861271 1.66661e-05 0)
(0.000965803 3.92715e-06 0)
(0.000954076 1.15326e-06 0)
(0.00093594 8.08211e-06 0)
(0.000902415 1.87935e-06 0)
(0.000871724 6.27079e-06 0)
(0.000975644 5.1799e-06 0)
(0.000966944 2.71676e-06 0)
(0.000953439 1.1667e-05 0)
(0.000929163 6.51617e-06 0)
(0.000905908 1.06598e-05 0)
(0.000988429 2.72857e-06 0)
(0.000979445 -8.39448e-07 0)
(0.000966966 3.65389e-06 0)
(0.000942792 -1.28564e-06 0)
(0.000922327 4.81869e-07 0)
(0.00100659 3.65527e-06 0)
(0.000999564 9.1585e-07 0)
(0.000989717 6.44109e-06 0)
(0.000970679 1.56125e-06 0)
(0.000954208 2.58061e-06 0)
(0.00102379 3.18992e-06 0)
(0.00101708 6.87893e-07 0)
(0.00100824 5.54284e-06 0)
(0.000990518 1.20329e-06 0)
(0.000976259 2.13566e-06 0)
(0.00104418 4.79607e-06 0)
(0.00103852 4.39513e-06 0)
(0.00103112 1.17478e-05 0)
(0.001016 8.81899e-06 0)
(0.00100399 1.06009e-05 0)
(0.000709835 -0.00010891 0)
(0.000671309 -0.0001099 0)
(0.00062592 -0.000119993 0)
(0.000583119 -0.000123865 0)
(0.000539389 -0.000135179 0)
(0.000496728 -0.00014282 0)
(0.000456399 -0.000155365 0)
(0.000417128 -0.000166777 0)
(0.000382113 -0.000180656 0)
(0.00034901 -0.000196284 0)
(0.00077491 -3.66244e-05 0)
(0.000744033 -3.88263e-05 0)
(0.000716619 -4.75953e-05 0)
(0.000684349 -5.24993e-05 0)
(0.000654675 -6.27106e-05 0)
(0.000622692 -7.06222e-05 0)
(0.000593573 -8.24492e-05 0)
(0.00056418 -9.35985e-05 0)
(0.000538671 -0.000107027 0)
(0.000514808 -0.000121539 0)
(0.000778222 -1.80521e-05 0)
(0.000751397 -1.87113e-05 0)
(0.000723171 -2.6143e-05 0)
(0.000696512 -2.85719e-05 0)
(0.000669999 -3.70041e-05 0)
(0.000645065 -4.20369e-05 0)
(0.000622119 -5.15363e-05 0)
(0.000600898 -5.961e-05 0)
(0.000583299 -7.02153e-05 0)
(0.000568017 -8.13929e-05 0)
(0.000827997 6.09066e-06 0)
(0.000808804 5.4551e-06 0)
(0.000790795 -1.48398e-06 0)
(0.000771238 -4.56987e-06 0)
(0.000754119 -1.2715e-05 0)
(0.000735787 -1.83495e-05 0)
(0.000720934 -2.75773e-05 0)
(0.000705738 -3.56941e-05 0)
(0.000694762 -4.5817e-05 0)
(0.000684923 -5.61895e-05 0)
(0.000839957 -1.63304e-07 0)
(0.000824184 -1.30354e-06 0)
(0.000806981 -6.37814e-06 0)
(0.000791383 -8.98816e-06 0)
(0.000776045 -1.51081e-05 0)
(0.000762004 -1.94217e-05 0)
(0.000749796 -2.64506e-05 0)
(0.000738866 -3.25356e-05 0)
(0.00073102 -4.02389e-05 0)
(0.000724909 -4.79329e-05 0)
(0.000882016 4.68079e-06 0)
(0.000870953 3.42081e-06 0)
(0.000858863 -1.51146e-06 0)
(0.000847635 -4.39057e-06 0)
(0.0008371 -1.03454e-05 0)
(0.00082687 -1.48314e-05 0)
(0.000818699 -2.16201e-05 0)
(0.000810807 -2.75742e-05 0)
(0.000805785 -3.48828e-05 0)
(0.000801698 -4.203e-05 0)
(0.00090053 -4.37812e-06 0)
(0.000891507 -5.84209e-06 0)
(0.000880029 -9.77583e-06 0)
(0.000871162 -1.23026e-05 0)
(0.000861294 -1.697e-05 0)
(0.000853418 -2.0569e-05 0)
(0.000845989 -2.58339e-05 0)
(0.000840036 -3.04418e-05 0)
(0.000835802 -3.60104e-05 0)
(0.000832901 -4.13421e-05 0)
(0.00093659 -2.762e-06 0)
(0.000929678 -4.22741e-06 0)
(0.000920607 -8.15277e-06 0)
(0.000913575 -1.0733e-05 0)
(0.000905961 -1.5334e-05 0)
(0.000899491 -1.89664e-05 0)
(0.000893904 -2.41123e-05 0)
(0.000888631 -2.86038e-05 0)
(0.000885008 -3.39925e-05 0)
(0.000882023 -3.90733e-05 0)
(0.000960414 -2.80657e-06 0)
(0.000954315 -3.87265e-06 0)
(0.000945265 -7.20678e-06 0)
(0.000939718 -9.29852e-06 0)
(0.000931908 -1.31992e-05 0)
(0.000926926 -1.60016e-05 0)
(0.000920705 -2.03909e-05 0)
(0.000916137 -2.41758e-05 0)
(0.000912333 -2.83903e-05 0)
(0.000909178 -3.24903e-05 0)
(0.000989812 6.09578e-06 0)
(0.000984514 5.02615e-06 0)
(0.000976481 1.75868e-06 0)
(0.000971262 -5.10319e-07 0)
(0.000964237 -4.29966e-06 0)
(0.000959434 -7.5608e-06 0)
(0.000953628 -1.17409e-05 0)
(0.000949809 -1.57223e-05 0)
(0.000945948 -2.01723e-05 0)
(0.000943024 -2.45323e-05 0)
(0.000119125 -0.000902786 0)
(9.54886e-05 -0.000901047 0)
(7.90081e-05 -0.000912475 0)
(6.75049e-05 -0.000910014 0)
(5.64692e-05 -0.000918507 0)
(4.80318e-05 -0.000916359 0)
(3.8043e-05 -0.000922827 0)
(2.89754e-05 -0.000921177 0)
(1.6546e-05 -0.000924918 0)
(3.2412e-06 -0.000922322 0)
(0.00025866 -0.000639959 0)
(0.000211541 -0.000651482 0)
(0.000175411 -0.000681902 0)
(0.00014139 -0.000690772 0)
(0.000109973 -0.000712809 0)
(8.34159e-05 -0.000720618 0)
(5.46822e-05 -0.000737542 0)
(2.77679e-05 -0.000744366 0)
(-5.57491e-06 -0.000756387 0)
(-4.09495e-05 -0.000762456 0)
(0.000479395 -0.000391037 0)
(0.000429177 -0.000408714 0)
(0.000384481 -0.000443203 0)
(0.000336174 -0.000457624 0)
(0.00029292 -0.000484562 0)
(0.000252254 -0.000498022 0)
(0.000213175 -0.000520014 0)
(0.000175102 -0.000532566 0)
(0.000134133 -0.000549626 0)
(9.1363e-05 -0.000562354 0)
(0.000564348 -0.000292451 0)
(0.000514027 -0.000298693 0)
(0.000463867 -0.000317788 0)
(0.000413269 -0.000328099 0)
(0.000363437 -0.000349066 0)
(0.000317338 -0.000362291 0)
(0.000270644 -0.0003824 0)
(0.000226857 -0.000396642 0)
(0.000180689 -0.00041435 0)
(0.000134415 -0.000429936 0)
(0.000703024 -0.000174151 0)
(0.000660992 -0.00017204 0)
(0.000617494 -0.000188025 0)
(0.000571734 -0.000190283 0)
(0.000523508 -0.000207075 0)
(0.000475947 -0.000214502 0)
(0.000427888 -0.000231653 0)
(0.000380765 -0.000243801 0)
(0.000334035 -0.000260811 0)
(0.000287406 -0.00027796 0)
)
;

boundaryField
{
    back
    {
        type            empty;
    }
    left
    {
        type            symmetry;
    }
    hole
    {
        type            calculated;
        value           nonuniform List<vector> 10((0.000368652 0.000127119 -2.85691e-21) (0.000778712 -0.000280851 1.55456e-20) (0.000880488 -0.000431682 -1.98776e-21) (0.000807906 -0.000395465 3.94409e-21) (0.000909233 -0.000312176 -1.56979e-22) (0.000861195 -0.000229867 1.06039e-21) (0.000927941 -0.000194325 1.4672e-22) (0.000921557 -0.000108209 -2.08413e-21) (0.000947212 -8.63083e-05 -2.68647e-21) (0.000948886 -9.93126e-06 9.5725e-22));
    }
    front
    {
        type            empty;
    }
    down
    {
        type            symmetry;
    }
    right
    {
        type            calculated;
        value           nonuniform List<vector> 
15
(
(0.00105371 6.42179e-06 9.82175e-22)
(0.00104846 8.17339e-06 1.69993e-21)
(0.00104164 1.84698e-05 5.78014e-22)
(0.00102766 1.72067e-05 1.20777e-21)
(0.0010167 2.09645e-05 -2.12088e-22)
(0.00100357 1.69294e-05 -3.30327e-21)
(0.000998475 1.54547e-05 2.22674e-21)
(0.000990844 1.21259e-05 1.53165e-21)
(0.0009858 9.06794e-06 -6.99565e-22)
(0.000979108 4.95338e-06 0)
(0.000974435 7.39098e-07 1.47569e-21)
(0.000968871 -4.21141e-06 1.11241e-21)
(0.000965142 -9.71476e-06 -1.39071e-21)
(0.000961409 -1.4865e-05 -7.61756e-22)
(0.00095848 -2.01561e-05 0)
)
;
    }
    up
    {
        type            calculated;
        value           nonuniform List<vector> 
15
(
(0.0003354 -0.000204402 1.05635e-21)
(0.000505629 -0.000129038 -1.08993e-21)
(0.000562796 -8.72177e-05 -5.96615e-22)
(0.000682249 -6.15615e-05 -7.79935e-22)
(0.000723777 -5.19313e-05 -6.32951e-22)
(0.000801171 -4.57277e-05 -4.87405e-22)
(0.000832665 -4.40925e-05 -4.224e-22)
(0.000881316 -4.16851e-05 6.61013e-22)
(0.000908016 -3.4579e-05 3.05725e-22)
(0.000941689 -2.67497e-05 0)
(-6.27686e-06 -0.000921338 -9.60366e-22)
(-6.39365e-05 -0.000764734 -1.48376e-21)
(6.73015e-05 -0.000567588 -1.18623e-22)
(0.000110246 -0.000436847 1.54759e-21)
(0.000265021 -0.00028671 2.88652e-22)
)
;
    }
}


// ************************************************************************* //
