/*--------------------------------*- C++ -*----------------------------------*\
| =========                 |                                                 |
| \\      /  F ield         | OpenFOAM: The Open Source CFD Toolbox           |
|  \\    /   O peration     | Version:  v2012                                 |
|   \\  /    A nd           | Website:  www.openfoam.com                      |
|    \\/     M anipulation  |                                                 |
\*---------------------------------------------------------------------------*/
FoamFile
{
    version     2.0;
    format      ascii;
    class       volScalarField;
    location    "19";
    object      sigmaEq;
}
// * * * * * * * * * * * * * * * * * * * * * * * * * * * * * * * * * * * * * //

dimensions      [1 -1 -2 0 0 0 0];


internalField   nonuniform List<scalar> 
250
(
1.59495e+08
8.54926e+07
5.46883e+07
5.26663e+07
6.27529e+07
1.2277e+08
7.48969e+07
5.65461e+07
4.89867e+07
5.05991e+07
5.43797e+07
3.69921e+07
2.90884e+07
3.30802e+07
4.39866e+07
2.86017e+07
1.97074e+07
1.35773e+07
1.76515e+07
2.66122e+07
2.73827e+07
1.58788e+07
4.52797e+06
6.06774e+06
1.26294e+07
2.94538e+07
1.86632e+07
8.6442e+06
5.43876e+06
7.20352e+06
2.60747e+07
1.73704e+07
1.0726e+07
6.40157e+06
5.69807e+06
3.12362e+07
2.09959e+07
1.28483e+07
8.53042e+06
5.35033e+06
2.97165e+07
2.0485e+07
1.36489e+07
8.84221e+06
5.01483e+06
3.15738e+07
2.16247e+07
1.40395e+07
9.40143e+06
4.7811e+06
2.5713e+06
5.1688e+06
7.86741e+06
1.10653e+07
1.77773e+07
3.07736e+06
6.88071e+06
8.73428e+06
1.25126e+07
1.33983e+07
2.90399e+06
6.74895e+06
1.09272e+07
1.47095e+07
1.97611e+07
3.23213e+06
6.43341e+06
9.24804e+06
1.1718e+07
1.53764e+07
3.23395e+06
6.19038e+06
1.07634e+07
1.31989e+07
1.66675e+07
3.50385e+06
5.41718e+06
8.37726e+06
1.06675e+07
1.36158e+07
5.15e+06
6.50143e+06
9.31213e+06
1.09742e+07
1.31025e+07
5.56991e+06
6.45099e+06
8.04451e+06
9.74437e+06
1.13868e+07
5.98679e+06
6.52644e+06
7.64955e+06
8.69452e+06
9.79499e+06
5.99742e+06
6.34069e+06
6.79742e+06
7.89747e+06
8.6926e+06
1.88035e+07
1.94619e+07
2.29022e+07
2.54798e+07
2.93418e+07
3.22016e+07
3.65277e+07
4.00379e+07
4.55012e+07
5.07624e+07
1.63838e+07
2.03672e+07
2.37599e+07
2.71093e+07
3.04536e+07
3.35329e+07
3.68958e+07
3.98258e+07
4.33863e+07
4.65308e+07
2.1385e+07
2.2432e+07
2.34838e+07
2.43401e+07
2.58821e+07
2.68808e+07
2.89849e+07
3.04847e+07
3.31945e+07
3.5393e+07
1.79383e+07
1.96666e+07
2.1561e+07
2.31466e+07
2.50157e+07
2.64242e+07
2.82094e+07
2.94938e+07
3.12796e+07
3.26397e+07
1.83147e+07
1.9049e+07
1.96878e+07
2.02372e+07
2.08284e+07
2.12281e+07
2.18762e+07
2.22912e+07
2.31055e+07
2.36925e+07
1.56957e+07
1.64682e+07
1.75905e+07
1.8358e+07
1.92874e+07
1.99115e+07
2.06408e+07
2.10918e+07
2.16796e+07
2.19734e+07
1.44032e+07
1.47199e+07
1.51936e+07
1.54148e+07
1.57364e+07
1.57914e+07
1.60191e+07
1.59125e+07
1.59822e+07
1.58479e+07
1.28061e+07
1.30845e+07
1.3768e+07
1.41137e+07
1.46324e+07
1.48804e+07
1.51888e+07
1.52543e+07
1.5346e+07
1.51331e+07
1.06502e+07
1.08483e+07
1.11361e+07
1.13096e+07
1.14873e+07
1.16537e+07
1.22323e+07
1.17918e+07
1.17714e+07
1.17223e+07
9.74441e+06
1.00825e+07
1.07998e+07
1.10565e+07
1.16502e+07
1.18365e+07
1.22343e+07
1.24678e+07
1.26504e+07
1.26802e+07
7.45005e+07
7.40937e+07
6.52379e+07
5.57008e+07
4.78052e+07
3.98104e+07
3.16278e+07
2.21099e+07
1.28524e+07
1.56663e+07
5.83925e+07
6.47507e+07
7.43644e+07
7.57267e+07
7.32617e+07
6.61832e+07
6.01849e+07
4.97326e+07
3.96967e+07
2.53653e+07
4.97989e+07
5.0679e+07
5.78144e+07
6.1679e+07
6.43959e+07
6.09347e+07
5.99517e+07
5.5054e+07
5.37877e+07
5.06955e+07
3.23705e+07
3.4563e+07
3.87263e+07
4.3467e+07
4.7993e+07
5.01219e+07
5.26006e+07
5.28495e+07
5.53883e+07
5.69745e+07
1.90778e+07
2.17113e+07
2.63066e+07
3.0687e+07
3.62713e+07
3.94612e+07
4.51417e+07
4.82666e+07
5.49605e+07
6.02955e+07
)
;

boundaryField
{
    back
    {
        type            empty;
    }
    left
    {
        type            symmetry;
    }
    hole
    {
        type            calculated;
        value           nonuniform List<scalar> 10(1.66361e+08 1.23779e+08 5.08861e+07 3.08362e+07 2.78681e+07 2.97472e+07 2.67017e+07 3.17306e+07 3.03721e+07 3.21641e+07);
    }
    front
    {
        type            empty;
    }
    down
    {
        type            symmetry;
    }
    right
    {
        type            calculated;
        value           nonuniform List<scalar> 
15
(
5.70941e+06
5.99359e+06
6.35113e+06
7.38479e+06
8.09374e+06
9.18988e+06
9.51664e+06
1.0213e+07
1.0506e+07
1.11021e+07
1.13251e+07
1.17668e+07
1.19247e+07
1.21645e+07
1.21515e+07
)
;
    }
    up
    {
        type            calculated;
        value           nonuniform List<scalar> 
15
(
5.09063e+07
4.66503e+07
3.55078e+07
3.27215e+07
2.37472e+07
2.20299e+07
1.58776e+07
1.51749e+07
1.17491e+07
1.27107e+07
1.41116e+07
2.43693e+07
5.11043e+07
5.73667e+07
6.07254e+07
)
;
    }
}


// ************************************************************************* //
