/*--------------------------------*- C++ -*----------------------------------*\
| =========                 |                                                 |
| \\      /  F ield         | OpenFOAM: The Open Source CFD Toolbox           |
|  \\    /   O peration     | Version:  v2012                                 |
|   \\  /    A nd           | Website:  www.openfoam.com                      |
|    \\/     M anipulation  |                                                 |
\*---------------------------------------------------------------------------*/
FoamFile
{
    version     2.0;
    format      ascii;
    class       volVectorField;
    location    "20";
    object      D;
}
// * * * * * * * * * * * * * * * * * * * * * * * * * * * * * * * * * * * * * //

dimensions      [0 1 0 0 0 0 0];


internalField   nonuniform List<vector> 
30465
(
(0.000400006 3.57556e-05 0)
(0.000448892 2.43228e-05 0)
(0.000336981 -6.94638e-05 0)
(0.000405006 3.14364e-05 0)
(0.000402943 2.78403e-05 0)
(0.000402789 2.78139e-05 0)
(0.000282654 -6.73165e-05 0)
(7.13712e-05 -0.000489995 0)
(0.000268103 -0.000245578 0)
(0.000413001 -2.50455e-05 0)
(2.87912e-05 -0.000499362 0)
(0.000291303 4.41875e-07 0)
(0.000418815 3.58002e-05 0)
(0.00052572 -1.89132e-05 0)
(0.000352544 2.69887e-05 0)
(0.000286384 -9.48982e-05 0)
(0.000404851 2.80194e-05 0)
(0.000484526 -6.38607e-05 0)
(0.000269953 -0.000238395 0)
(0.000409803 3.16025e-05 0)
(0.000481988 1.18876e-05 0)
(0.000482052 1.15048e-05 0)
(0.000485331 1.73582e-05 0)
(0.00017225 -0.000317575 0)
(0.00048441 1.77602e-05 0)
(0.000429916 2.38364e-05 0)
(0.000429481 2.40059e-05 0)
(0.000447834 2.25661e-05 0)
(0.000450734 1.61863e-05 0)
(0.000494285 -0.000139887 0)
(0.000459838 1.4894e-05 0)
(0.000435667 2.20766e-05 0)
(0.000407085 3.63148e-05 0)
(0.000412208 3.06369e-05 0)
(0.000385488 2.90813e-05 0)
(0.000454661 1.72481e-05 0)
(0.000237543 -0.000254597 0)
(0.00056808 -0.000136937 0)
(0.000413944 2.93107e-05 0)
(0.000289612 2.30923e-06 0)
(0.000469552 2.14906e-05 0)
(0.000356579 3.06007e-05 0)
(0.000162054 -0.000326419 0)
(0.000451691 2.31063e-05 0)
(0.000451946 2.27162e-05 0)
(0.000335788 -0.000206539 0)
(0.000391078 4.09732e-07 0)
(0.000448999 2.41078e-05 0)
(0.000429093 2.54179e-05 0)
(0.000471871 1.7634e-05 0)
(0.000471093 1.80665e-05 0)
(0.000417479 3.25739e-05 0)
(6.44029e-05 -0.000329245 0)
(6.09616e-05 -0.000340192 0)
(0.000678951 -0.000252486 0)
(0.000440423 2.92352e-05 0)
(0.000680222 -0.000267411 0)
(0.000422048 2.61544e-05 0)
(0.000448475 1.66053e-05 0)
(0.000446816 9.13395e-06 0)
(0.00044705 8.7562e-06 0)
(0.000416507 -5.02083e-05 0)
(0.00046995 1.09477e-06 0)
(0.000384715 3.20891e-05 0)
(0.000385261 3.22483e-05 0)
(0.000525632 -2.04018e-06 0)
(0.00037376 3.08488e-05 0)
(0.000336517 -0.000282751 0)
(0.00049333 4.09201e-06 0)
(0.0004261 2.69779e-05 0)
(0.000465831 2.52431e-05 0)
(0.000420043 3.22015e-05 0)
(0.000181149 -6.69621e-05 0)
(0.000344819 7.65181e-06 0)
(0.000406153 3.6301e-05 0)
(0.000291583 4.27809e-06 0)
(0.000454342 8.28542e-06 0)
(0.000454555 7.84852e-06 0)
(0.000544312 -7.14801e-05 0)
(4.06049e-05 -0.000492839 0)
(0.000159011 -0.000140638 0)
(0.000152388 -0.000145735 0)
(0.000407824 2.83232e-05 0)
(0.000434013 2.24053e-05 0)
(0.000421028 3.45571e-05 0)
(0.000425442 2.94743e-05 0)
(0.000447943 1.6805e-05 0)
(0.000293921 5.40469e-06 0)
(0.000401613 2.77861e-05 0)
(0.000465347 1.53546e-05 0)
(0.00043582 2.25482e-05 0)
(0.000436255 2.21051e-05 0)
(0.000404264 2.79676e-05 0)
(0.00040464 2.80077e-05 0)
(0.000414752 -2.72284e-05 0)
(0.000447691 1.23287e-05 0)
(0.000445694 1.80804e-05 0)
(0.000445687 1.78994e-05 0)
(7.02449e-05 -0.000461145 0)
(0.000448512 1.56282e-05 0)
(0.000403788 2.9321e-05 0)
(0.000483825 1.37441e-05 0)
(0.00048293 1.40962e-05 0)
(0.000405637 3.46603e-05 0)
(0.000519965 -9.43549e-06 0)
(0.000361595 2.72011e-05 0)
(0.000362686 2.73037e-05 0)
(0.000423505 2.73252e-05 0)
(0.000465001 2.55202e-05 0)
(0.000519219 -1.78841e-06 0)
(0.000341247 -9.6876e-05 0)
(0.000400532 2.99214e-05 0)
(0.000381182 2.98961e-05 0)
(0.000381678 2.98052e-05 0)
(0.000414559 3.62564e-05 0)
(0.000416318 3.60771e-05 0)
(0.000513929 1.78828e-06 0)
(0.000419424 3.30857e-05 0)
(0.000451795 4.72803e-06 0)
(0.000189565 -0.000403008 0)
(0.000273805 -6.95783e-06 0)
(0.000454545 1.75151e-05 0)
(0.000438975 3.17802e-05 0)
(0.000529758 -4.51185e-06 0)
(0.000450577 2.26609e-05 0)
(0.000451405 2.24646e-05 0)
(0.000494731 5.87869e-06 0)
(0.00038864 3.13165e-05 0)
(0.000410956 3.49268e-05 0)
(0.000529479 -7.61365e-06 0)
(0.000262135 -0.000365767 0)
(0.000451128 3.42114e-06 0)
(0.000334021 -0.00010017 0)
(4.07214e-05 -0.000571061 0)
(0.000417795 2.84725e-05 0)
(0.000508385 5.416e-06 0)
(0.000192974 -6.72964e-05 0)
(0.000436094 2.24309e-05 0)
(0.000231482 -0.000305868 0)
(0.000194733 -6.44302e-05 0)
(0.000443871 3.12971e-05 0)
(3.78492e-05 -0.000559606 0)
(0.00052667 -1.61414e-06 0)
(0.000468631 2.19102e-05 0)
(0.000458694 1.15354e-05 0)
(0.000432467 -6.32215e-05 0)
(0.000435321 2.36242e-05 0)
(0.000435759 2.30948e-05 0)
(0.000376311 3.49351e-05 0)
(0.000447136 1.59115e-06 0)
(0.00040186 3.41698e-05 0)
(0.000407564 2.32376e-05 0)
(0.000435748 2.11514e-05 0)
(0.000435388 2.14297e-05 0)
(0.000400024 2.79569e-05 0)
(0.000521729 -1.56174e-05 0)
(0.000367594 2.95116e-05 0)
(0.000411734 2.88957e-05 0)
(0.000337401 2.4836e-05 0)
(0.000454286 2.11294e-05 0)
(0.000454736 2.07994e-05 0)
(0.000335917 2.41535e-05 0)
(0.000365296 3.22332e-05 0)
(0.000364305 3.18696e-05 0)
(0.000517026 1.26602e-06 0)
(0.000452944 1.15238e-06 0)
(0.000445298 1.71007e-05 0)
(0.00012697 -0.000489586 0)
(0.00043247 2.33716e-05 0)
(0.000423508 1.46048e-07 0)
(0.000435909 3.32723e-05 0)
(0.000447857 9.61647e-06 0)
(0.000446576 1.3951e-05 0)
(0.000446241 1.40726e-05 0)
(0.000436032 2.26963e-05 0)
(0.000419565 -1.65955e-06 0)
(0.000388978 3.07702e-05 0)
(0.000426192 3.25431e-05 0)
(0.000517392 1.02371e-06 0)
(3.6096e-05 -0.000559966 0)
(0.000282211 -3.29428e-05 0)
(0.000394815 3.66818e-05 0)
(0.000395788 3.66007e-05 0)
(0.000401631 2.86437e-05 0)
(0.000410838 3.42263e-05 0)
(0.000500795 2.65489e-07 0)
(0.000123852 -0.000330275 0)
(0.000529595 -2.36008e-05 0)
(0.000451591 4.73509e-06 0)
(0.000405196 2.80395e-05 0)
(0.000321607 1.66202e-05 0)
(0.000425722 2.65448e-05 0)
(0.000489223 1.50134e-05 0)
(4.23549e-05 -0.000549833 0)
(0.000405326 2.81589e-05 0)
(0.000405471 2.82094e-05 0)
(0.000284222 -6.36294e-05 0)
(0.000420145 3.01075e-05 0)
(0.000413375 2.79747e-05 0)
(0.000398797 3.57965e-05 0)
(0.000449289 7.86137e-06 0)
(0.000448263 1.55723e-05 0)
(0.000446027 9.05049e-06 0)
(5.04379e-05 -0.000568143 0)
(0.000443466 2.7594e-05 0)
(0.000445273 3.09061e-05 0)
(0.000529787 -4.54041e-06 0)
(9.80415e-05 -0.000526338 0)
(0.000413829 3.35661e-05 0)
(0.000459399 1.96885e-05 0)
(0.000323192 -6.35043e-05 0)
(0.000447962 3.0196e-05 0)
(0.000498446 2.05697e-06 0)
(0.000440726 1.90591e-05 0)
(0.000344045 -0.000200115 0)
(0.000366561 2.93999e-05 0)
(0.000365517 2.90666e-05 0)
(0.000427862 2.45976e-05 0)
(0.00042841 2.44151e-05 0)
(0.000322928 1.74602e-05 0)
(0.000392653 3.05165e-05 0)
(0.000411518 3.55683e-05 0)
(0.000436614 2.06631e-05 0)
(0.000417866 2.81889e-05 0)
(0.000376699 2.93763e-05 0)
(0.000529902 -1.60502e-05 0)
(0.000417321 -4.78725e-05 0)
(0.000447419 3.45389e-06 0)
(0.000466044 1.51539e-05 0)
(0.00049466 5.48402e-06 0)
(0.000412666 -5.11116e-05 0)
(0.000444587 1.57145e-05 0)
(0.000444236 1.58731e-05 0)
(0.000537949 -5.07919e-05 0)
(0.00051038 7.63963e-08 0)
(0.000511183 3.66597e-06 0)
(0.00039047 2.94008e-05 0)
(0.000390994 2.95039e-05 0)
(0.000222573 -0.000104496 0)
(0.000227501 -9.81542e-05 0)
(0.000419136 -6.42829e-06 0)
(0.000494256 6.27241e-06 0)
(0.000431572 3.3925e-05 0)
(0.000515242 -2.06076e-05 0)
(0.000442328 2.11466e-05 0)
(0.000352544 2.55865e-05 0)
(0.000413532 3.38417e-05 0)
(0.00042054 3.58098e-05 0)
(0.000362879 -0.0002453 0)
(0.00051027 -3.01008e-07 0)
(0.00041939 2.92427e-05 0)
(0.000529936 -8.54726e-06 0)
(0.000529731 -7.94604e-06 0)
(0.000425945 -5.38119e-05 0)
(0.000421599 3.483e-05 0)
(0.00027675 -0.000353644 0)
(0.000568229 -0.00014729 0)
(0.00056592 -0.000142951 0)
(0.000386721 3.23159e-05 0)
(1.78675e-05 -0.000590519 0)
(0.00042022 3.24225e-05 0)
(0.000490652 1.21759e-05 0)
(0.000489126 1.2629e-05 0)
(0.000529997 -1.1155e-05 0)
(0.000438352 -8.94143e-05 0)
(0.000436502 -8.5085e-05 0)
(0.00042319 2.94658e-05 0)
(0.000348713 1.64544e-05 0)
(0.000417851 3.59662e-05 0)
(0.000427695 2.85525e-05 0)
(0.000452919 1.53934e-06 0)
(0.000408663 2.98855e-05 0)
(0.000451464 1.73701e-05 0)
(0.000402841 2.78077e-05 0)
(0.00052067 -9.7315e-06 0)
(0.000504223 -3.99806e-05 0)
(0.000538432 -5.27045e-05 0)
(0.000462184 2.56121e-05 0)
(0.000429301 -0.000132037 0)
(0.000486621 1.10278e-05 0)
(0.00042243 -0.000134593 0)
(0.000394501 2.80635e-05 0)
(0.000538706 -5.26788e-05 0)
(0.000414958 2.75689e-05 0)
(0.000459155 2.00194e-05 0)
(0.000419497 2.68422e-05 0)
(0.00036976 3.32107e-05 0)
(0.000425788 2.5718e-05 0)
(0.000447223 1.20573e-06 0)
(0.000401676 3.4096e-05 0)
(0.000443017 2.73617e-05 0)
(0.000465554 2.08961e-05 0)
(0.000439563 3.15284e-05 0)
(0.000541977 -0.000131008 0)
(0.000448818 7.56984e-06 0)
(0.000415744 3.01135e-05 0)
(0.000451953 1.94453e-06 0)
(0.000501141 4.61104e-06 0)
(0.000500873 4.4081e-06 0)
(0.000452396 1.18193e-05 0)
(0.000395849 2.86146e-05 0)
(0.000396234 2.86082e-05 0)
(0.000177414 -7.0409e-05 0)
(0.000470291 1.44331e-05 0)
(0.000466355 9.64122e-06 0)
(0.000386872 -5.0279e-06 0)
(0.000387946 -3.19675e-06 0)
(0.000448874 8.71208e-06 0)
(0.000531478 -2.87931e-05 0)
(0.000546684 -9.28996e-05 0)
(0.000416891 3.5868e-05 0)
(0.000417434 3.58522e-05 0)
(7.49053e-05 -0.00048885 0)
(0.000414872 3.25365e-05 0)
(0.000413865 -0.000155993 0)
(0.00052774 -4.08731e-05 0)
(2.77412e-05 -0.000586071 0)
(2.58269e-05 -0.000586963 0)
(0.000344702 2.29963e-05 0)
(0.000622275 -0.000281974 0)
(0.000411004 1.6076e-05 0)
(0.000615733 -0.000276676 0)
(0.000422157 -6.43125e-06 0)
(0.000515092 2.22792e-06 0)
(0.000446965 2.61752e-05 0)
(0.000447885 2.58861e-05 0)
(0.000641857 -0.000231324 0)
(0.000506664 -2.90324e-05 0)
(0.000433275 3.13101e-05 0)
(0.000379754 -8.88209e-05 0)
(0.000517283 8.70029e-08 0)
(0.000378631 -2.46931e-05 0)
(0.000511785 4.08524e-06 0)
(5.92354e-05 -0.000523712 0)
(0.000525166 -1.24756e-05 0)
(0.000351536 2.8562e-05 0)
(0.000430615 2.70722e-05 0)
(0.000478464 1.99925e-05 0)
(0.000478198 2.00102e-05 0)
(0.000400608 1.8702e-05 0)
(0.000375355 3.40109e-05 0)
(0.000416501 3.26976e-05 0)
(0.000403107 -8.07653e-05 0)
(0.00044576 1.68887e-05 0)
(0.000437303 2.95848e-05 0)
(0.000383262 2.44822e-05 0)
(0.00038053 2.47793e-05 0)
(0.000225725 -4.74401e-05 0)
(0.000491681 -3.0322e-05 0)
(0.000434173 2.5361e-05 0)
(0.000383711 2.86821e-05 0)
(0.000462821 1.3479e-05 0)
(0.000107997 -0.000275051 0)
(5.46338e-05 -0.000528758 0)
(0.000432289 3.40461e-05 0)
(0.000365336 3.24297e-05 0)
(0.000508294 5.5868e-06 0)
(0.000194884 -9.51348e-05 0)
(0.000524966 -1.77955e-05 0)
(0.000532754 -3.81776e-05 0)
(0.000437819 3.97844e-06 0)
(0.000435325 5.56128e-06 0)
(0.00043209 2.29419e-05 0)
(0.000537238 -4.89643e-05 0)
(0.000533268 -3.78823e-05 0)
(0.000281662 -3.54492e-05 0)
(4.45384e-05 -0.000486146 0)
(0.00049321 1.598e-06 0)
(0.000486448 1.63806e-05 0)
(0.000445085 2.43057e-05 0)
(0.000671729 -0.000213369 0)
(0.000436956 2.14724e-05 0)
(0.000225975 -0.000263124 0)
(0.000528465 -7.53658e-05 0)
(0.000526217 -7.18656e-05 0)
(0.00035995 3.19911e-05 0)
(0.00040437 2.95216e-05 0)
(0.000392481 3.56581e-05 0)
(0.000432362 2.33412e-05 0)
(0.000404061 2.81692e-05 0)
(0.000533418 -4.75854e-05 0)
(0.000408976 2.91799e-05 0)
(0.000412992 2.97706e-05 0)
(0.000361122 3.089e-05 0)
(0.000107501 -0.000282666 0)
(0.000465664 1.41121e-05 0)
(0.000524167 -2.94801e-06 0)
(0.000300867 -1.93729e-05 0)
(0.000304817 -1.73868e-05 0)
(0.000523682 -2.74369e-06 0)
(0.000420487 -0.000156749 0)
(0.000489468 1.2255e-05 0)
(0.000469919 1.4351e-05 0)
(0.000460341 7.23942e-06 0)
(0.000412827 3.62362e-05 0)
(0.000405541 3.05384e-05 0)
(0.000520138 2.11816e-08 0)
(0.000456853 1.86859e-06 0)
(0.000403431 3.08344e-05 0)
(0.0004037 3.0919e-05 0)
(0.000440254 1.83613e-05 0)
(0.000440209 1.83183e-05 0)
(0.000528436 -4.05414e-05 0)
(0.000494922 1.1394e-06 0)
(0.000387137 2.77062e-05 0)
(0.000437004 3.3075e-05 0)
(0.000429342 2.84291e-05 0)
(0.000399878 3.13433e-05 0)
(0.000414184 2.77316e-05 0)
(0.000466025 1.00287e-05 0)
(0.000404049 3.34398e-05 0)
(0.000372196 2.83384e-05 0)
(0.00045466 2.12805e-05 0)
(0.000392034 1.68678e-05 0)
(0.000404207 2.92379e-05 0)
(0.000535531 -4.36862e-05 0)
(0.000457762 1.78525e-05 0)
(0.000183499 -0.000475364 0)
(0.000301236 8.55667e-07 0)
(0.000298202 -1.22276e-07 0)
(0.000464832 2.08431e-05 0)
(7.61065e-05 -0.000522727 0)
(0.000312485 -0.000117556 0)
(0.000461455 9.19206e-06 0)
(0.000455458 3.92614e-06 0)
(0.000462296 9.6102e-06 0)
(0.00026957 -0.000124655 0)
(0.000429001 3.3487e-05 0)
(0.000404749 3.15804e-05 0)
(0.000441064 1.71565e-05 0)
(0.000343851 -0.000166933 0)
(0.000440303 2.00888e-05 0)
(0.000545468 -7.55486e-05 0)
(0.000404105 2.81547e-05 0)
(0.000403869 2.81551e-05 0)
(0.0004022 3.55105e-05 0)
(0.000445879 2.49216e-06 0)
(0.000399586 2.72194e-05 0)
(0.000512027 -0.000164959 0)
(0.00047946 1.58885e-06 0)
(0.000398333 -8.21818e-05 0)
(0.000521305 -1.452e-05 0)
(0.000414345 2.843e-05 0)
(0.000418633 -2.9403e-06 0)
(0.000442872 1.49157e-05 0)
(0.000442235 1.64158e-05 0)
(0.000445531 2.71316e-05 0)
(0.00044654 2.70994e-05 0)
(0.000193493 -8.87086e-05 0)
(0.000533183 -3.08833e-05 0)
(0.000413426 3.62283e-05 0)
(0.000444125 3.1553e-05 0)
(0.000489198 1.5647e-05 0)
(0.000514808 -3.2785e-05 0)
(0.000389099 3.09669e-05 0)
(0.000325469 1.16995e-05 0)
(0.000406693 2.8183e-05 0)
(0.000493376 1.33918e-05 0)
(0.000492334 1.39408e-05 0)
(0.000470466 1.12064e-06 0)
(0.000418816 2.79619e-05 0)
(0.000418437 2.79701e-05 0)
(8.67565e-05 -0.000552002 0)
(0.000450961 1.23787e-05 0)
(0.000452651 2.36001e-05 0)
(0.000387657 2.76858e-05 0)
(0.000415609 2.74345e-05 0)
(0.000448888 6.80761e-06 0)
(0.000401933 2.88112e-05 0)
(0.00040242 2.88198e-05 0)
(0.000271523 -0.00015397 0)
(0.000261672 -0.000159978 0)
(0.000401291 2.75725e-05 0)
(0.000453135 2.90971e-05 0)
(0.000427263 2.87707e-05 0)
(0.000320117 1.60153e-05 0)
(0.000445025 1.42687e-05 0)
(0.000445366 1.40575e-05 0)
(0.000523873 -1.08458e-06 0)
(0.000482045 1.80272e-05 0)
(0.000436329 2.921e-05 0)
(0.000437089 2.91649e-05 0)
(0.000415403 3.02765e-05 0)
(0.000462148 2.64567e-05 0)
(0.000429523 5.44542e-06 0)
(0.00044841 2.22486e-05 0)
(0.000366241 2.79085e-05 0)
(0.000365146 2.76485e-05 0)
(0.000436228 3.29603e-05 0)
(0.000516667 -3.42847e-05 0)
(0.000529943 -2.30477e-05 0)
(0.000451561 2.51313e-07 0)
(0.000401362 2.96135e-05 0)
(0.000357168 1.70088e-05 0)
(0.000475595 -6.63204e-05 0)
(0.000305513 7.11049e-06 0)
(0.000465139 2.54821e-05 0)
(0.000440459 1.83966e-05 0)
(0.000427261 2.9747e-05 0)
(0.000441317 3.13639e-05 0)
(0.000142839 -0.000497543 0)
(0.000425823 2.73872e-05 0)
(0.000425577 2.73596e-05 0)
(0.000636144 -0.000227111 0)
(0.000473272 2.12098e-05 0)
(0.000387063 2.81747e-05 0)
(-5.73223e-07 -0.000586732 0)
(0.000276193 -7.80127e-05 0)
(0.000492678 1.36458e-05 0)
(0.000385225 -8.8788e-05 0)
(0.00045061 -8.47509e-05 0)
(0.000189579 -9.30973e-05 0)
(0.000447921 2.91249e-05 0)
(0.000435338 2.24184e-05 0)
(0.000451392 2.43127e-05 0)
(0.000451677 2.44227e-05 0)
(0.000464046 2.43214e-05 0)
(0.000527549 -3.68495e-06 0)
(0.000526905 -2.4488e-05 0)
(0.000374749 3.37686e-05 0)
(0.000588862 -0.000276445 0)
(0.000383952 3.6091e-05 0)
(0.000398256 1.83559e-05 0)
(0.000436708 2.84617e-05 0)
(0.000419962 3.37407e-05 0)
(0.00051795 -2.22178e-05 0)
(0.000302018 -0.000133769 0)
(0.000105188 -0.000329782 0)
(0.000525249 -2.83897e-05 0)
(0.000545738 -7.60353e-05 0)
(0.000436487 2.24136e-05 0)
(0.000493636 1.31392e-05 0)
(0.00035721 2.64208e-05 0)
(0.000495447 5.94619e-06 0)
(0.000429388 -2.95678e-05 0)
(0.000463272 3.93786e-06 0)
(0.000635233 -0.000224571 0)
(0.000441205 1.88652e-05 0)
(6.87128e-06 -0.000572417 0)
(0.000504478 -3.83558e-05 0)
(0.000472298 2.06312e-05 0)
(0.000461754 1.45537e-05 0)
(0.000412448 3.5538e-05 0)
(0.000190043 -0.000424275 0)
(0.00058386 -0.000194884 0)
(0.00044541 3.37225e-06 0)
(0.000417784 3.17777e-05 0)
(0.000417469 3.17138e-05 0)
(0.000365067 2.86067e-05 0)
(0.00040346 2.86117e-05 0)
(0.000384818 3.62196e-05 0)
(0.000320239 -0.000140056 0)
(0.000402635 2.85964e-05 0)
(0.000403674 2.81482e-05 0)
(0.0004426 1.52581e-05 0)
(0.000490347 -1.04925e-05 0)
(0.000553678 -0.000103194 0)
(0.000447343 1.21997e-05 0)
(0.000474266 1.73768e-05 0)
(0.000515035 -4.53309e-05 0)
(0.000544649 -7.28177e-05 0)
(0.000478309 1.83761e-05 0)
(0.000498117 -6.60823e-06 0)
(0.000647366 -0.00023596 0)
(0.000520733 -0.000191402 0)
(0.0004933 1.32328e-05 0)
(0.000492055 1.37575e-05 0)
(0.000452039 2.21045e-05 0)
(0.000502463 8.54225e-06 0)
(0.000502925 8.16391e-06 0)
(0.000441647 8.01883e-06 0)
(0.000416889 3.17276e-05 0)
(0.000524236 -1.3034e-06 0)
(0.000102904 -0.00048379 0)
(0.000407495 2.83804e-05 0)
(9.46787e-05 -0.000494483 0)
(0.000441762 1.65733e-05 0)
(0.000441463 1.6899e-05 0)
(0.000375883 2.93523e-05 0)
(0.000406639 3.12433e-05 0)
(0.000336043 -3.03083e-05 0)
(0.00042724 2.4966e-05 0)
(0.000499958 7.00373e-06 0)
(0.000465318 1.45245e-05 0)
(0.000445983 8.86631e-06 0)
(2.46455e-05 -0.000503217 0)
(0.000404383 2.96417e-05 0)
(0.00041905 2.68483e-05 0)
(0.0004329 2.94885e-05 0)
(0.000432548 2.94103e-05 0)
(0.000412531 2.84108e-05 0)
(0.000529038 -2.59342e-06 0)
(0.000402085 3.5683e-05 0)
(0.00044573 2.25487e-06 0)
(0.000421216 -5.37324e-05 0)
(0.000436152 2.48745e-05 0)
(0.000436104 2.47381e-05 0)
(0.000374791 3.47238e-05 0)
(0.000384417 2.88915e-05 0)
(0.000495944 1.09468e-05 0)
(0.00039268 3.42666e-05 0)
(0.000476313 2.04162e-05 0)
(0.000456026 2.07431e-05 0)
(0.000475609 2.05596e-05 0)
(0.000351623 -0.000162575 0)
(0.000460205 7.58465e-06 0)
(0.000467593 1.01184e-05 0)
(0.000467202 9.97933e-06 0)
(0.000371681 3.35044e-05 0)
(0.000391189 3.20539e-05 0)
(0.000308373 1.28597e-05 0)
(0.000305184 1.14124e-05 0)
(0.000119853 -0.000128061 0)
(0.000401788 2.8671e-05 0)
(0.000198189 -0.000336525 0)
(0.000412771 3.64978e-05 0)
(0.000101021 -0.000541143 0)
(0.000406007 3.12829e-05 0)
(0.000167865 -0.000344122 0)
(0.000369217 -4.59016e-05 0)
(0.000451139 1.30277e-05 0)
(0.000459759 7.86545e-06 0)
(0.000372433 2.80161e-05 0)
(0.000454845 9.81553e-06 0)
(0.000529472 -6.48139e-06 0)
(0.000368548 -0.000203308 0)
(0.000451986 1.70789e-05 0)
(0.000448369 3.04142e-05 0)
(0.000448689 1.42969e-05 0)
(0.000402077 3.0593e-05 0)
(0.000489985 5.3664e-06 0)
(0.00036738 3.311e-05 0)
(0.000396112 5.07841e-06 0)
(0.000438739 1.91815e-05 0)
(0.000438755 1.91969e-05 0)
(0.000436622 2.06165e-05 0)
(0.000446075 2.37122e-05 0)
(0.000444889 1.51415e-05 0)
(0.000528929 -4.296e-06 0)
(0.000464997 2.048e-05 0)
(0.000392031 3.55422e-05 0)
(0.000595442 -0.000178399 0)
(0.000529965 -1.5304e-05 0)
(0.00044765 1.19824e-05 0)
(0.000471171 2.23097e-05 0)
(0.00044432 7.23478e-06 0)
(0.000365746 3.32946e-05 0)
(0.000176008 -0.000322357 0)
(0.000452714 1.175e-05 0)
(0.00041496 2.83959e-05 0)
(0.000414559 2.76869e-05 0)
(0.000523613 -0.000195288 0)
(0.000485574 1.67084e-05 0)
(0.000466666 2.26801e-05 0)
(0.000416508 3.57615e-05 0)
(0.000456021 9.02673e-06 0)
(0.00049639 1.04485e-05 0)
(0.000418492 3.10725e-05 0)
(0.000412434 2.83711e-05 0)
(0.000289837 6.69999e-07 0)
(0.000487342 1.20316e-05 0)
(0.000440844 1.76304e-05 0)
(0.00044103 1.74552e-05 0)
(0.000419541 2.677e-05 0)
(0.000443483 1.23523e-05 0)
(0.000407146 3.56547e-05 0)
(0.00044323 2.75923e-05 0)
(0.000443615 2.73351e-05 0)
(0.000466694 2.47742e-05 0)
(0.000100424 -0.000519916 0)
(0.000414392 3.19911e-05 0)
(0.000528908 -2.36793e-05 0)
(0.00049587 1.09539e-06 0)
(0.000578392 -0.000186248 0)
(0.000276073 -9.44668e-05 0)
(0.000404559 2.80174e-05 0)
(0.000407212 2.83032e-05 0)
(3.92222e-05 -0.00057749 0)
(0.000445402 1.74794e-05 0)
(0.000465445 2.53456e-05 0)
(0.00042063 2.91867e-05 0)
(0.000352521 2.87558e-05 0)
(0.000411171 2.8829e-05 0)
(0.000455769 1.66367e-05 0)
(1.3082e-05 -0.000482876 0)
(0.000184437 -0.000432539 0)
(0.000414047 3.20041e-05 0)
(0.000431131 2.56394e-05 0)
(0.000430765 2.57544e-05 0)
(1.88917e-05 -0.000424535 0)
(0.00042134 3.44133e-05 0)
(0.000416674 2.85562e-05 0)
(0.000375588 2.95274e-05 0)
(0.000392164 3.05195e-05 0)
(0.000450877 1.30431e-05 0)
(0.000384989 2.9178e-05 0)
(0.000448905 1.04218e-05 0)
(0.000449225 1.00505e-05 0)
(0.000267281 -5.56704e-05 0)
(0.000420731 -9.81848e-05 0)
(0.000261756 -5.54207e-05 0)
(0.000235982 -7.07032e-05 0)
(0.000392208 3.43463e-05 0)
(0.00043016 3.04072e-05 0)
(0.000430358 3.021e-05 0)
(0.000114723 -0.000525885 0)
(0.000534172 -4.79725e-05 0)
(0.000169787 -0.000334682 0)
(9.96638e-05 -0.000400807 0)
(0.000425882 2.53987e-05 0)
(9.36423e-05 -0.000401872 0)
(0.000455103 5.82034e-06 0)
(0.000455089 5.36174e-06 0)
(0.000385787 3.45033e-05 0)
(0.000256575 -7.70406e-05 0)
(0.000532873 -2.87114e-05 0)
(0.000242324 -3.10104e-05 0)
(0.000246181 -2.81309e-05 0)
(0.000435333 3.19918e-05 0)
(0.000457661 1.75976e-05 0)
(0.000312215 1.13902e-05 0)
(0.000314971 1.28304e-05 0)
(0.000556955 -0.000105622 0)
(0.000352036 2.40805e-06 0)
(0.000181015 -0.000151225 0)
(0.00042999 2.49564e-05 0)
(0.000392015 2.87786e-05 0)
(0.000512191 -0.000161059 0)
(0.000422113 2.93077e-05 0)
(0.000410352 2.85202e-05 0)
(0.000454262 2.28095e-05 0)
(0.000454096 2.312e-05 0)
(0.000470592 9.3216e-06 0)
(0.000455315 -0.000342197 0)
(0.000467771 1.03908e-05 0)
(0.000440621 -0.000343794 0)
(0.000444357 1.34383e-05 0)
(0.000394785 2.81409e-05 0)
(0.00050774 -2.83686e-05 0)
(0.000447001 2.75298e-05 0)
(0.000478213 2.02682e-05 0)
(0.000477688 2.04105e-05 0)
(0.000470112 4.46774e-06 0)
(0.000469551 4.50904e-06 0)
(0.000488751 -2.981e-05 0)
(0.000535676 -0.000221718 0)
(0.000604372 -0.00020529 0)
(0.000525754 -4.36707e-05 0)
(0.000318673 1.56532e-05 0)
(0.000401983 2.77277e-05 0)
(0.000482323 1.5676e-05 0)
(0.000337437 -2.78583e-05 0)
(0.00048678 -9.41852e-05 0)
(0.000444004 1.26844e-05 0)
(0.000352194 -0.000276096 0)
(0.000356831 1.7858e-05 0)
(0.000465275 -4.56485e-05 0)
(0.000434421 3.07275e-05 0)
(0.000364624 3.30319e-05 0)
(0.000501997 9.29215e-06 0)
(0.000517008 -1.34595e-05 0)
(0.000502611 8.89923e-06 0)
(0.000289752 -0.000312795 0)
(0.000458646 1.18941e-05 0)
(0.000532808 -2.83946e-05 0)
(0.000379265 3.42752e-05 0)
(0.000553253 -0.000101141 0)
(0.000469001 8.26729e-06 0)
(0.000469401 7.82454e-06 0)
(0.000453919 7.66808e-06 0)
(0.000433574 2.6444e-05 0)
(0.000432552 2.71431e-05 0)
(0.000486678 7.15448e-06 0)
(0.000413707 2.87441e-05 0)
(0.000442361 3.19229e-05 0)
(0.000422523 2.61286e-05 0)
(0.000362862 2.9786e-05 0)
(0.000362352 2.94258e-05 0)
(0.000450874 3.64435e-06 0)
(0.000482121 -9.26269e-05 0)
(0.00046565 2.04291e-05 0)
(0.000457291 9.46123e-06 0)
(0.000541522 -7.14388e-05 0)
(0.000431675 2.60326e-05 0)
(0.000431763 2.57939e-05 0)
(6.88033e-05 -0.000457622 0)
(0.000580617 -0.000159127 0)
(0.000406094 3.04384e-05 0)
(0.000405795 3.04187e-05 0)
(0.000448541 2.71838e-05 0)
(0.000470166 2.36379e-05 0)
(0.000469995 2.37316e-05 0)
(0.000255192 -0.000290672 0)
(0.000436241 2.08402e-05 0)
(0.000403441 2.22283e-05 0)
(0.000407666 3.00279e-05 0)
(0.000494546 1.23752e-05 0)
(0.000530242 -4.54596e-05 0)
(0.000411218 3.40977e-05 0)
(0.000462742 1.25732e-05 0)
(0.000511203 2.07675e-06 0)
(0.000400125 3.67391e-05 0)
(0.000452054 9.71631e-06 0)
(0.000451785 1.01175e-05 0)
(0.000365395 3.00652e-05 0)
(0.000181001 -0.000143169 0)
(0.000446461 9.37027e-06 0)
(0.00044563 1.38571e-05 0)
(0.000507822 5.3675e-06 0)
(0.00049722 4.13199e-07 0)
(0.000451931 2.38857e-05 0)
(0.000177392 -0.00015726 0)
(0.000469966 2.09575e-05 0)
(0.00044859 1.67747e-05 0)
(0.000425068 2.80087e-05 0)
(0.000425551 2.77862e-05 0)
(0.00053816 -5.339e-05 0)
(0.000405345 2.89471e-05 0)
(0.000405162 2.88413e-05 0)
(0.000467843 7.22521e-06 0)
(0.000467475 7.03491e-06 0)
(0.000499039 5.51095e-06 0)
(0.000424011 2.56178e-05 0)
(0.000423514 2.57584e-05 0)
(0.000514524 1.58672e-06 0)
(0.000491146 1.42527e-05 0)
(3.95502e-05 -0.000570583 0)
(0.000436853 2.06928e-05 0)
(0.000434185 3.10868e-05 0)
(0.000405045 3.16435e-05 0)
(0.000405443 2.81544e-05 0)
(0.000470479 2.81194e-06 0)
(0.000190008 -9.55819e-05 0)
(0.000431552 6.13691e-06 0)
(0.000299791 -0.000130201 0)
(0.000532003 -3.04135e-05 0)
(0.000399754 2.72823e-05 0)
(0.000317567 -0.000114758 0)
(0.000474786 -2.67805e-05 0)
(0.000471298 -2.5992e-05 0)
(4.28528e-05 -0.000554214 0)
(0.000527093 -5.84464e-06 0)
(5.53367e-06 -0.000570716 0)
(0.000427885 3.38121e-05 0)
(0.000416194 2.75123e-05 0)
(0.000416738 2.73618e-05 0)
(0.000438435 3.08321e-05 0)
(0.000409162 3.66695e-05 0)
(0.000491547 9.33897e-06 0)
(0.00026205 -1.80321e-05 0)
(0.000261421 -1.73853e-05 0)
(0.000523689 -2.54386e-05 0)
(0.00040751 -0.0002507 0)
(0.000420031 3.56681e-05 0)
(0.000523525 -2.43476e-05 0)
(0.000412551 -0.000354277 0)
(0.000414587 3.27691e-05 0)
(0.000351874 3.69673e-06 0)
(0.000443343 1.34607e-05 0)
(0.000524242 -3.71846e-06 0)
(0.000484182 -3.40321e-05 0)
(0.000467053 1.41893e-06 0)
(0.000222264 -3.74863e-05 0)
(0.000441307 2.02504e-05 0)
(0.000310208 -2.47545e-09 0)
(0.000446469 1.95392e-05 0)
(0.000516635 -4.02714e-06 0)
(0.000453373 -4.54257e-05 0)
(0.000408566 2.82307e-05 0)
(0.000387829 2.91224e-05 0)
(0.000383249 -1.11641e-05 0)
(0.000404443 2.9176e-05 0)
(0.000491142 8.01597e-06 0)
(0.000378675 -1.07449e-05 0)
(0.000274291 -6.02714e-06 0)
(0.000441024 2.02599e-05 0)
(0.000444038 2.48504e-05 0)
(0.000444145 2.50503e-05 0)
(0.000443298 2.46545e-05 0)
(0.000354776 -0.000280817 0)
(0.000419889 3.34518e-05 0)
(0.00046517 2.17305e-05 0)
(0.000465771 2.12898e-05 0)
(0.00040931 2.91375e-05 0)
(0.000468073 1.28503e-05 0)
(0.000448496 1.52467e-05 0)
(0.000472848 5.86821e-06 0)
(0.000414579 3.00469e-05 0)
(0.000473571 1.72527e-05 0)
(0.000407269 2.83592e-05 0)
(0.000422761 2.96338e-05 0)
(0.000425942 2.71508e-05 0)
(0.000354225 3.00217e-05 0)
(0.000391579 1.57647e-05 0)
(0.000528605 -1.48238e-05 0)
(0.000409213 3.51193e-05 0)
(0.000373581 2.76215e-05 0)
(0.000524732 -1.32709e-05 0)
(0.000406242 2.81993e-05 0)
(0.000456855 4.33904e-06 0)
(0.000571639 -0.000183577 0)
(0.000358392 2.6877e-05 0)
(0.000419536 3.0283e-05 0)
(0.000404848 2.80065e-05 0)
(0.000442108 1.79554e-05 0)
(0.000455179 1.93281e-05 0)
(0.000207772 -0.000186636 0)
(0.000413787 2.79776e-05 0)
(0.000364498 -0.000108033 0)
(0.000445702 2.58828e-05 0)
(0.000105902 -0.00049772 0)
(0.000496412 1.20037e-05 0)
(0.000496519 1.18367e-05 0)
(0.000518224 5.12177e-07 0)
(0.00047959 1.14032e-06 0)
(0.000447117 3.07356e-05 0)
(0.000413476 -0.000123159 0)
(0.000400732 2.38394e-05 0)
(0.000513845 1.56415e-06 0)
(0.000405685 -0.000124672 0)
(0.000408322 3.66554e-05 0)
(0.000284254 -9.91979e-05 0)
(0.000405206 2.98314e-05 0)
(0.000287361 1.33554e-06 0)
(0.000515082 -1.38456e-06 0)
(0.000407321 3.46534e-05 0)
(0.000521131 -7.09699e-06 0)
(0.000195452 -0.000256391 0)
(0.000454063 2.16129e-05 0)
(0.000273397 -5.15455e-05 0)
(0.000397931 3.19832e-05 0)
(0.000273443 -4.80446e-05 0)
(0.000448276 9.9782e-06 0)
(0.000318641 1.60164e-05 0)
(0.000433809 -3.00009e-05 0)
(0.000165556 -8.67987e-05 0)
(0.000439475 2.93604e-05 0)
(0.000415916 3.14374e-05 0)
(0.000520568 -8.44301e-06 0)
(0.00028891 -0.00017969 0)
(0.000413665 3.50202e-05 0)
(0.000414682 2.75642e-05 0)
(0.000333754 -7.36377e-05 0)
(0.000279735 -0.000184552 0)
(0.000475562 -0.000102758 0)
(0.00027055 -8.55644e-06 0)
(0.00037728 2.96099e-05 0)
(0.000387569 2.89332e-05 0)
(0.000504151 -3.04147e-06 0)
(0.000454201 1.86606e-05 0)
(0.000399722 2.79411e-05 0)
(0.000457116 4.29205e-06 0)
(0.000427509 2.47876e-05 0)
(0.000499378 -3.80437e-05 0)
(0.000452043 2.42295e-06 0)
(0.000402824 3.64952e-05 0)
(0.000439765 2.0342e-05 0)
(0.000251168 -0.000298627 0)
(0.00040221 3.13714e-05 0)
(0.000449573 1.99451e-06 0)
(0.000453406 1.10643e-05 0)
(0.000453885 1.07366e-05 0)
(0.000376202 3.06937e-05 0)
(0.00050536 -4.86411e-05 0)
(0.000244342 -0.000160511 0)
(0.000501913 -4.579e-05 0)
(0.000415074 3.00608e-05 0)
(0.000495598 -1.09356e-05 0)
(0.000502688 8.54288e-06 0)
(0.000428221 3.23657e-05 0)
(0.000131444 -0.000407638 0)
(0.000581798 -0.000185396 0)
(0.000527303 -2.39528e-05 0)
(0.000488856 1.26751e-05 0)
(0.000469272 2.38958e-05 0)
(0.000423931 3.23722e-05 0)
(0.000442831 2.49172e-05 0)
(0.000466102 2.48058e-05 0)
(0.000372704 1.38899e-05 0)
(0.000468864 2.39261e-06 0)
(0.000400145 2.88228e-05 0)
(0.000397201 3.48049e-05 0)
(0.00053008 -1.15013e-05 0)
(0.00044215 1.73405e-05 0)
(0.000420089 2.66261e-05 0)
(0.000402321 2.77418e-05 0)
(8.30535e-06 -0.000587418 0)
(0.000446574 9.3722e-06 0)
(0.00039163 2.87359e-05 0)
(-1.98684e-05 -0.000415945 0)
(0.000453636 2.72739e-05 0)
(0.000415793 2.84693e-05 0)
(0.000511966 4.00984e-06 0)
(0.000494354 4.77392e-06 0)
(0.000494936 4.41759e-06 0)
(0.000462966 1.21838e-05 0)
(0.000566848 -0.000127192 0)
(0.000450822 -8.81296e-05 0)
(0.000653899 -0.000262554 0)
(0.000566732 -0.000127591 0)
(0.000413214 2.78139e-05 0)
(0.000334858 2.26061e-05 0)
(0.000462442 1.41645e-05 0)
(0.000419848 2.92998e-05 0)
(0.000424238 2.91643e-05 0)
(0.000497475 7.38444e-06 0)
(0.000423701 1.45745e-05 0)
(0.000426404 1.47824e-05 0)
(0.000528921 -4.85893e-06 0)
(0.000694893 -0.000267316 0)
(0.000491706 8.05101e-06 0)
(0.000694544 -0.000265039 0)
(0.00042897 2.57796e-05 0)
(6.4982e-05 -0.000477725 0)
(0.00046245 1.11811e-05 0)
(0.000462055 1.10213e-05 0)
(5.78811e-05 -0.000324729 0)
(4.99624e-05 -0.000332805 0)
(0.000454304 1.93621e-05 0)
(0.000431002 2.35816e-05 0)
(0.000448415 9.47888e-06 0)
(0.000315606 6.23156e-06 0)
(0.000313772 6.67989e-06 0)
(0.000415268 2.88137e-05 0)
(0.00042787 2.97009e-05 0)
(0.000533539 -7.95978e-05 0)
(0.000402959 2.43719e-05 0)
(0.000407128 2.87064e-05 0)
(0.000407144 2.88245e-05 0)
(9.42185e-05 -0.000203863 0)
(0.000480138 2.79436e-06 0)
(0.000447339 1.35464e-05 0)
(8.5335e-05 -0.000208554 0)
(0.00051346 1.59205e-06 0)
(0.00053932 -5.7974e-05 0)
(0.00051479 2.47902e-06 0)
(0.000668362 -0.000194986 0)