/*--------------------------------*- C++ -*----------------------------------*\
| =========                 |                                                 |
| \\      /  F ield         | OpenFOAM: The Open Source CFD Toolbox           |
|  \\    /   O peration     | Version:  v2012                                 |
|   \\  /    A nd           | Website:  www.openfoam.com                      |
|    \\/     M anipulation  |                                                 |
\*---------------------------------------------------------------------------*/
FoamFile
{
    version     2.0;
    format      ascii;
    class       pointScalarField;
    location    "6";
    object      pEpsilonEq;
}
// * * * * * * * * * * * * * * * * * * * * * * * * * * * * * * * * * * * * * //

dimensions      [0 0 0 0 0 0 0];


internalField   nonuniform List<scalar> 
7900
(
0.00142114
0.000626395
0.000882394
0.000649668
0.00417469
0.00142114
0.000626395
0.000882394
0.000649668
0.00417469
0.00116406
0.00091233
0.000755652
0.000603369
0.000491024
0.000416308
0.00036157
0.000324996
0.000294211
0.000274067
0.000256503
0.000260145
0.000260608
0.000263063
0.000274532
0.000282402
0.000293043
0.000306725
0.000318889
0.00033476
0.000352148
0.000364467
0.000381
0.000394289
0.000411456
0.000424995
0.000439849
0.000456226
0.000469825
0.000485847
0.000498007
0.000512461
0.000527236
0.000539726
0.000553355
0.000565293
0.000575911
0.00058713
0.000598509
0.000609877
0.000619878
0.00062909
0.000636384
0.000644985
0.00065324
0.000659419
0.00066373
0.000669198
0.000672497
0.000674371
0.000675951
0.0006767
0.000675068
0.000672965
0.000668327
0.000664019
0.00065499
0.00064435
0.000635028
0.000625567
0.00062054
0.000632414
0.000630995
0.000636351
0.000640289
0.000644132
0.000650232
0.000658006
0.000663435
0.000672498
0.000681019
0.000687742
0.000699702
0.000710117
0.000717532
0.000729298
0.000742566
0.000751049
0.000764381
0.000774444
0.000784585
0.000798189
0.000809673
0.000817483
0.000829502
0.000839362
0.000846171
0.000855257
0.00086262
0.000869691
0.000873865
0.000879606
0.000882013
0.000884095
0.000885485
0.000884263
0.000884948
0.000883374
0.000881308
0.000880027
0.000879863
0.000878812
0.000879914
0.000881557
0.000885724
0.000889177
0.000897208
0.000903404
0.000913231
0.000920942
0.000933294
0.000942238
0.00095509
0.000971215
0.000986202
0.000998176
0.00101527
0.00103168
0.00105127
0.00107005
0.00108811
0.00110678
0.00112989
0.00114674
0.00117166
0.00118904
0.00121529
0.00123462
0.00126111
0.00127959
0.00131096
0.00133084
0.00135741
0.00137574
0.00140506
0.00142359
0.00145364
0.00147576
0.00149032
0.00152024
0.00153327
0.00155232
0.00157529
0.00158941
0.00159539
0.00161506
0.00162015
0.00162573
0.00163027
0.00163432
0.0016327
0.00162141
0.00160687
0.00158374
0.00157404
0.00156516
0.00152038
0.00148978
0.00145981
0.00141524
0.00137204
0.00131538
0.00127426
0.00121893
0.00115506
0.00111079
0.00104616
0.00097983
0.000938915
0.000887408
0.000821516
0.000785536
0.000758287
0.000695781
0.000684096
0.000650491
0.000630995
0.000750791
0.000833369
0.000920361
0.00100444
0.00108444
0.00115106
0.00120856
0.00125494
0.00132789
0.00139467
0.00146688
0.00155526
0.0016531
0.00179375
0.00196831
0.00219654
0.00251737
0.0029524
0.00352212
0.00440715
0.00416059
0.00372606
0.00334388
0.00321885
0.00303591
0.00273884
0.00258043
0.00242768
0.00213309
0.00190827
0.00163409
0.00138405
0.00116118
0.000917176
0.000672739
0.000481082
0.000250855
0.000111606
0.000245735
0.000404891
0.00058291
0.000698766
0.00086473
0.000979964
0.00111987
0.00119046
0.00125395
0.00131618
0.00136419
0.00137074
0.00116406
0.00091233
0.000755652
0.000603369
0.000491024
0.000416308
0.00036157
0.000324996
0.000294211
0.000274067
0.000256503
0.000260145
0.000260608
0.000263063
0.000274532
0.000282402
0.000293043
0.000306725
0.000318889
0.00033476
0.000352148
0.000364467
0.000381
0.000394289
0.000411456
0.000424995
0.000439849
0.000456226
0.000469825
0.000485847
0.000498007
0.000512461
0.000527236
0.000539726
0.000553355
0.000565293
0.000575911
0.00058713
0.000598509
0.000609877
0.000619878
0.00062909
0.000636384
0.000644985
0.00065324
0.000659419
0.00066373
0.000669198
0.000672497
0.000674371
0.000675951
0.0006767
0.000675068
0.000672965
0.000668327
0.000664019
0.00065499
0.00064435
0.000635028
0.000625567
0.00062054
0.000632414
0.000630995
0.000636351
0.000640289
0.000644132
0.000650232
0.000658006
0.000663435
0.000672498
0.000681019
0.000687742
0.000699702
0.000710117
0.000717532
0.000729298
0.000742566
0.000751049
0.000764381
0.000774444
0.000784585
0.000798189
0.000809673
0.000817483
0.000829502
0.000839362
0.000846171
0.000855257
0.00086262
0.000869691
0.000873865
0.000879606
0.000882013
0.000884095
0.000885485
0.000884263
0.000884948
0.000883374
0.000881308
0.000880027
0.000879863
0.000878812
0.000879914
0.000881557
0.000885724
0.000889177
0.000897208
0.000903404
0.000913231
0.000920942
0.000933294
0.000942238
0.00095509
0.000971215
0.000986202
0.000998176
0.00101527
0.00103168
0.00105127
0.00107005
0.00108811
0.00110678
0.00112989
0.00114674
0.00117166
0.00118904
0.00121529
0.00123462
0.00126111
0.00127959
0.00131096
0.00133084
0.00135741
0.00137574
0.00140506
0.00142359
0.00145364
0.00147576
0.00149032
0.00152024
0.00153327
0.00155232
0.00157529
0.00158941
0.00159539
0.00161506
0.00162015
0.00162573
0.00163027
0.00163432
0.0016327
0.00162141
0.00160687
0.00158374
0.00157404
0.00156516
0.00152038
0.00148978
0.00145981
0.00141524
0.00137204
0.00131538
0.00127426
0.00121893
0.00115506
0.00111079
0.00104616
0.00097983
0.000938915
0.000887408
0.000821516
0.000785536
0.000758287
0.000695781
0.000684096
0.000650491
0.000630995
0.000750791
0.000833369
0.000920361
0.00100444
0.00108444
0.00115106
0.00120856
0.00125494
0.00132789
0.00139467
0.00146688
0.00155526
0.0016531
0.00179375
0.00196831
0.00219654
0.00251737
0.0029524
0.00352212
0.00440715
0.00416059
0.00372606
0.00334388
0.00321885
0.00303591
0.00273884
0.00258043
0.00242768
0.00213309
0.00190827
0.00163409
0.00138405
0.00116118
0.000917176
0.000672739
0.000481082
0.000250855
0.000111606
0.000245735
0.000404891
0.00058291
0.000698766
0.00086473
0.000979964
0.00111987
0.00119046
0.00125395
0.00131618
0.00136419
0.00137074
0.00114114
0.000880099
0.00157801
0.000891576
0.000749271
0.00111999
0.000751328
0.00165341
0.000869471
0.00138381
0.00101031
0.00069007
0.00133239
0.000637435
0.000799709
0.00130147
0.000995444
0.000698585
0.000886878
0.000841968
0.00154501
0.00168447
0.00113276
0.000592544
0.00149248
0.00137455
0.000969472
0.000676769
0.00101009
0.000771005
0.00118522
0.00128794
0.000521874
0.000923808
0.000739007
0.000839182
0.00090033
0.00183668
0.000609026
0.00124717
0.000515333
0.00115543
0.00092533
0.000785333
0.000926592
0.00141733
0.00142202
0.0013986
0.000877751
0.0010843
0.000591489
0.0014581
0.00129403
0.00166819
0.0018112
0.000930322
0.000683141
0.000946486
0.0007271
0.00147894
0.000842861
0.00155374
0.00102847
0.000625918
0.000440742
0.00149548
0.000673288
0.000883794
0.000793627
0.00149928
0.000760017
0.00129495
0.000713175
0.00102983
0.00102878
0.000874587
0.000496359
0.000799918
0.00155422
0.00113165
0.000701347
0.000857601
0.000909917
0.000712871
0.000889722
0.000786364
0.00120037
0.00134733
0.0010956
0.00109893
0.000688396
0.00105702
0.000673565
0.00121905
0.000979796
0.000798994
0.00142265
0.000421272
0.000869622
0.000391798
0.00131767
0.00120481
0.000942597
0.00149893
0.000532764
0.000859853
0.000683998
0.000902501
0.00106201
0.00110797
0.00173484
0.00101073
0.000851157
0.000860246
0.00165873
0.00148985
0.00158419
0.000601119
0.0012412
0.00115682
0.000736951
0.000683927
0.00141917
0.00145133
0.00151892
0.000966265
0.000660634
0.00116994
0.000874911
0.000729487
0.0014646
0.00100057
0.000667323
0.000770659
0.0010404
0.00079539
0.00230305
0.00161698
0.0006438
0.00119818
0.000694311
0.000800411
0.000990365
0.0021365
0.000411508
0.00127294
0.000932962
0.00071324
0.00080039
0.00162514
0.00124012
0.000590097
0.000987915
0.000727862
0.000732149
0.00175623
0.00082023
0.000643688
0.00138785
0.000926379
0.00170754
0.00150397
0.000822785
0.00150163
0.0014216
0.000672812
0.000871119
0.00096543
0.000731128
0.00159647
0.00134547
0.000730138
0.00132455
0.000551899
0.000338534
0.00107362
0.000589023
0.00143521
0.0017451
0.000835828
0.000822997
0.00114032
0.000965415
0.000716431
0.00104142
0.000636679
0.000980174
0.00131738
0.00130435
0.00109752
0.000615316
0.00045757
0.00103828
0.0014489
0.00111951
0.00100103
0.000635361
0.0014464
0.00118904
0.000936684
0.000690897
0.000851864
0.000981105
0.00124923
0.000824577
0.000725885
0.000884439
0.00104783
0.001504
0.0015264
0.000764825
0.00148425
0.00125171
0.000435047
0.000966064
0.000552119
0.000771642
0.00152086
0.00149743
0.00112214
0.00140126
0.00130851
0.00108554
0.000828857
0.000919497
0.000676761
0.000655858
0.000883244
0.000701777
0.00096013
0.00145421
0.0004901
0.0011806
0.00122941
0.000910594
0.000696102
0.00171194
0.00161472
0.000925767
0.000912136
0.00075062
0.000761417
0.000840113
0.00114767
0.000788682
0.000345835
0.000777244
0.000873548
0.00170975
0.00167958
0.00147431
0.000811366
0.00102413
0.000857826
0.00154187
0.000877725
0.00136406
0.000675133
0.000890589
0.000741741
0.00144061
0.00128234
0.000926395
0.00203054
0.000501739
0.00149115
0.000964013
0.000696635
0.00159471
0.00076028
0.000770355
0.00150628
0.000678446
0.000942203
0.000668034
0.000687545
0.000880298
0.000533527
0.00105008
0.000649383
0.00119038
0.00154601
0.000858955
0.00108693
0.00105709
0.000715598
0.000821432
0.00135903
0.00130112
0.00126662
0.000713764
0.00101766
0.00129326
0.00091654
0.00142366
0.000993751
0.000652494
0.000377993
0.00155118
0.00121255
0.00103835
0.00113723
0.00137921
0.000761322
0.000529546
0.000811363
0.00108043
0.00117279
0.00139599
0.000826121
0.00103845
0.000609013
0.00097528
0.0007062
0.000741603
0.000490548
0.000319452
0.000657498
0.000878695
0.00151895
0.00129789
0.000652157
0.00109526
0.000694962
0.000655822
0.00164026
0.000801105
0.00114611
0.000647628
0.00121077
0.00116897
0.00186679
0.000805124
0.00101979
0.000730619
0.00149493
0.00110299
0.000845592
0.000751193
0.000667132
0.000890066
0.000678393
0.000860571
0.000852948
0.00156107
0.000890835
0.00157338
0.000900488
0.00258117
0.000976453
0.00152302
0.00091184
0.000894573
0.000858013
0.00109687
0.000719803
0.000909343
0.00136222
0.000922486
0.00134034
0.00123514
0.000739183
0.000868193
0.000818835
0.00113916
0.00137906
0.00106216
0.00052285
0.000452994
0.00055276
0.00113282
0.000917841
0.000698198
0.000734072
0.00103573
0.000902923
0.00153882
0.000548285
0.00124954
0.000990647
0.000572561
0.00199316
0.000841873
0.000332471
0.00068969
0.000893556
0.00105401
0.000615767
0.00141638
0.00111822
0.00129186
0.000690746
0.000779057
0.000790492
0.00133155
0.000630018
0.00121474
0.000960693
0.00119437
0.00165944
0.00105964
0.000740036
0.000986969
0.00131305
0.00155753
0.00123014
0.00124349
0.000857975
0.000413987
0.000987548
0.00171357
0.000613657
0.000465363
0.00095801
0.000674214
0.00145926
0.00150606
0.00103844
0.00216533
0.000913547
0.00068769
0.000886927
0.000977137
0.000915354
0.00162466
0.00136823
0.00166035
0.00133175
0.00157998
0.00301256
0.000721814
0.00140864
0.00177768
0.000771203
0.000791486
0.00161164
0.000796267
0.00154766
0.000817779
0.00150334
0.00146935
0.00147776
0.000575553
0.000676697
0.000691669
0.00172705
0.000770093
0.000522839
0.000977246
0.000646039
0.0017379
0.000794834
0.000851538
0.000982658
0.000978122
0.000734411
0.000633943
0.00167867
0.000308062
0.00138765
0.00194648
0.000356219
0.00147227
0.000905103
0.000678729
0.0011285
0.0010954
0.00051977
0.00116494
0.00144997
0.00163139
0.00124879
0.000889189
0.0005646
0.00149003
0.000734299
0.00162636
0.000565643
0.00105134
0.00125492
0.00102345
0.000642955
0.00076228
0.00149454
0.00121995
0.000821266
0.00118204
0.000763817
0.00155335
0.00129589
0.0015097
0.00148932
0.00153966
0.00142278
0.000964984
0.00139418
0.00149251
0.000756183
0.0010549
0.000838151
0.0014346
0.000800506
0.00066567
0.000883962
0.0014029
0.000418449
0.000625757
0.00119319
0.000914977
0.00118922
0.00121298
0.000867986
0.0013472
0.00159592
0.000397718
0.000905034
0.000563873
0.00101518
0.000667371
0.000867434
0.000987851
0.000668443
0.00074827
0.0016262
0.000719263
0.00150103
0.0013038
0.00117755
0.00080077
0.000746495
0.000947154
0.000948957
0.000672689
0.00150994
0.00078023
0.00101208
0.00153117
0.000849531
0.000810409
0.000784265
0.00141809
0.000710335
0.00113544
0.000947582
0.000926209
0.000695101
0.000639937
0.000871258
0.0014636
0.00110386
0.00106352
0.00102265
0.0008402
0.000716339
0.000575098
0.000805605
0.000830349
0.0013148
0.000802088
0.000723415
0.00235734
0.000943369
0.000797517
0.000633413
0.000679727
0.000891658
0.000924883
0.000698677
0.000752981
0.0012525
0.000575019
0.00140308
0.000957526
0.00120179
0.000833876
0.00154761
0.00113318
0.000910472
0.000723847
0.00152674
0.000958871
0.000655886
0.00097728
0.000657605
0.00162975
0.00164011
0.000958545
0.000857204
0.000370605
0.000616026
0.00094487
0.000539059
0.00091144
0.00127056
0.000498331
0.000959213
0.00106577
0.000621745
0.000826088
0.001212
0.00133398
0.00193754
0.000638753
0.00156861
0.000785835
0.00133074
0.000574779
0.000948547
0.00123021
0.00141636
0.00136075
0.00133195
0.000428093
0.00118766
0.0015883
0.00146877
0.000691471
0.000730976
0.000877912
0.00101041
0.000683251
0.000829423
0.000937704
0.000469296
0.00099043
0.000948856
0.000940598
0.000760158
0.00074068
0.000988906
0.000705979
0.00194375
0.000833463
0.0017079
0.00138984
0.000723598
0.00135237
0.00168226
0.000656442
0.000875425
0.00106728
0.000590445
0.00109101
0.000410198
0.00128881
0.00117899
0.00145028
0.000694321
0.000900859
0.00125336
0.000814388
0.00149558
0.00159931
0.00173129
0.000851171
0.00119523
0.000474738
0.000774542
0.00110301
0.000891819
0.00113003
0.00149523
0.00107078
0.000622101
0.00101652
0.00148099
0.00139408
0.000807171
0.00143742
0.000943025
0.00118706
0.00154246
0.000725038
0.00091473
0.00100519
0.00070578
0.00125392
0.00106849
0.000647726
0.000286977
0.0013785
0.000815203
0.00127794
0.000447996
0.0007611
0.000892495
0.00176674
0.000675016
0.000877754
0.00049916
0.00110011
0.00164395
0.000640711
0.000882618
0.000554468
0.000666099
0.000713573
0.00287067
0.000905903
0.00132574
0.000656695
0.00072301
0.00157043
0.000676716
0.000893672
0.000937831
0.000465614
0.0010774
0.00064578
0.000882292
0.00181025
0.00176097
0.000926272
0.00067046
0.00115276
0.00124811
0.0013243
0.000757727
0.000779092
0.00230273
0.000916887
0.00146306
0.00146757
0.00147339
0.000333177
0.00137076
0.000827371
0.00137445
0.00114647
0.00104838
0.000606179
0.00105916
0.000861805
0.000928046
0.000766206
0.000699384
0.0011302
0.000703857
0.00123929
0.00133305
0.00156603
0.00119918
0.000840431
0.000872912
0.0012979
0.00108645
0.000782703
0.00174023
0.00128176
0.000591828
0.000932197
0.000674967
0.000932666
0.000809229
0.00147844
0.00150446
0.00153044
0.000841205
0.000709746
0.00112204
0.00138124
0.00103462
0.000657414
0.000902353
0.00119815
0.00140414
0.00080555
0.000591292
0.000625243
0.00102033
0.000765562
0.000851193
0.00116738
0.000418497
0.00151514
0.00100713
0.000649296
0.000829469
0.000865942
0.000762892
0.000790396
0.000559052
0.00118554
0.000857846
0.000814358
0.000763076
0.000891404
0.00130007
0.00152024
0.00136622
0.00125788
0.00150497
0.000875198
0.00102068
0.000817765
0.000428708
0.00115444
0.000703253
0.00068272
0.000940591
0.00157582
0.00127465
0.000425429
0.00146912
0.000810771
0.00145065
0.00150394
0.00143363
0.00154017
0.00168719
0.00093109
0.00150385
0.000926311
0.00107827
0.00110824
0.0012183
0.000467466
0.000998452
0.00108864
0.00135175
0.00105565
0.00050111
0.000515635
0.00119527
0.000661983
0.000869809
0.000725332
0.000842713
0.000984891
0.000858008
0.000863856
0.000598193
0.00111659
0.000662232
0.000881609
0.00136635
0.00104919
0.000698924
0.000759797
0.000982397
0.000648574
0.00133951
0.000832456
0.000797606
0.000567927
0.000538072
0.000809451
0.00151103
0.00120904
0.000702165
0.00117771
0.000755653
0.00103694
0.000374774
0.000725072
0.00136678
0.00153847
0.00078774
0.00138299
0.00174472
0.000872714
0.000876682
0.0006336
0.000995585
0.00143088
0.000744713
0.000909069
0.000745599
0.00118677
0.00145304
0.000676603
0.000825524
0.00100469
0.000734356
0.00122129
0.000283523
0.000489768
0.00128641
0.00127173
0.00103002
0.000952534
0.00104117
0.00116459
0.000983244
0.000940237
0.000846662
0.000773938
0.00144585
0.00160698
0.000855424
0.000707185
0.000779077
0.00091292
0.000681297
0.000751445
0.000948797
0.00102923
0.000812715
0.000891879
0.000695479
0.00115348
0.0011427
0.00119372
0.00153773
0.000717843
0.00095771
0.00100878
0.000857753
0.000670747
0.000886136
0.000914965
0.000700366
0.00123205
0.00261444
0.00148598
0.00153504
0.00112994
0.00107696
0.000790257
0.00158477
0.000981314
0.000688215
0.00166794
0.00171544
0.00157676
0.000880003
0.00138861
0.000920609
0.0015348
0.00101154
0.000931598
0.00147171
0.00156597
0.00143877
0.000911008
0.000676869
0.000962086
0.000707365
0.000827266
0.000896493
0.000906527
0.00121502
0.00128327
0.000429947
0.000541594
0.000685932
0.000769996
0.000543169
0.000833413
0.00155627
0.00157688
0.000766862
0.000692467
0.000874442
0.00198677
0.00144164
0.00186879
0.000689282
0.000953591
0.000635967
0.000898381
0.000863265
0.000870093
0.000562891
0.000851781
0.000878341
0.0013657
0.00114031
0.00106873
0.000610234
0.00141481
0.000657651
0.000882
0.000310096
0.00138482
0.0013858
0.000672178
0.000886288
0.00104419
0.000839263
0.000779882
0.00150073
0.00138528
0.00150413
0.00129853
0.00128356
0.000686094
0.000680704
0.000885313
0.000282287
0.000540975
0.00171159
0.00163204
0.00172924
0.00101419
0.000804188
0.00115169
0.00109606
0.000769903
0.00126191
0.000903818
0.000687971
0.00133236
0.00062719
0.000438811
0.0015183
0.00112314
0.000693357
0.00103243
0.00086241
0.000838645
0.000621235
0.000862744
0.000915929
0.000790785
0.00104328
0.00144031
0.000837944
0.00149523
0.00166873
0.000994457
0.000684402
0.000522211
0.000926352
0.00150045
0.00135035
0.000761733
0.00117595
0.00108453
0.00119368
0.00139083
0.00148356
0.00170654
0.000703352
0.000742294
0.000953182
0.000592794
0.00139596
0.000679947
0.000898477
0.000547758
0.000502762
0.00140542
0.000733898
0.00116076
0.000536488
0.000746255
0.000860427
0.000922107
0.000681526
0.000652733
0.00146139
0.00108243
0.000516684
0.00103183
0.000696001
0.00125126
0.000605674
0.0010667
0.00119341
0.000607714
0.000867131
0.000353713
0.00129355
0.000776872
0.00127272
0.000727196
0.00124306
0.0011587
0.000342622
0.000464354
0.000701736
0.00103805
0.00116434
0.000671599
0.00153457
0.000867946
0.000711817
0.00103224
0.000831777
0.000951264
0.000739199
0.00171615
0.00095412
0.000686264
0.000567238
0.000844773
0.00222352
0.00143576
0.000853002
0.000784887
0.000900875
0.0012345
0.000905019
0.00106941
0.000973252
0.000680758
0.000404747
0.00119587
0.00153581
0.000762137
0.000920907
0.00163404
0.000887968
0.0012472
0.00158902
0.000875929
0.000944575
0.000662356
0.000956022
0.000916631
0.00181312
0.00090766
0.000554478
0.00090009
0.00108153
0.00127724
0.000593915
0.000840365
0.000458408
0.000730569
0.000714432
0.00122008
0.00141317
0.000874448
0.000575939
0.000347692
0.00134879
0.000961053
0.00110438
0.00145936
0.00087957
0.00100399
0.0017351
0.000713684
0.000566797
0.000739912
0.000563022
0.000818411
0.000815333
0.00138164
0.00100955
0.00106774
0.00112799
0.000725248
0.00068444
0.0016108
0.000315209
0.000834655
0.00100807
0.00127261
0.000994738
0.000644824
0.00154859
0.00123074
0.00107368
0.000950188
0.000665923
0.000626228
0.00053077
0.000637264
0.00101109
0.000933779
0.000964369
0.000722257
0.000355407
0.000786627
0.00149828
0.00118931
0.00111145
0.000809607
0.000980052
0.000664413
0.000859301
0.000768335
0.0014707
0.000967497
0.00161026
0.000792806
0.00134851
0.000696307
0.00111385
0.000887453
0.00104491
0.00168461
0.000619679
0.00147878
0.00125345
0.00118118
0.00164538
0.000664598
0.000647197
0.000879974
0.000869259
0.000772187
0.00107184
0.000955793
0.000632403
0.00150219
0.000675191
0.0003778
0.0015619
0.0010128
0.00135639
0.000850383
0.00129714
0.000675122
0.000972694
0.000887824
0.00111207
0.00230605
0.00130612
0.00163584
0.00171294
0.000865428
0.000476621
0.00156246
0.00154816
0.00087394
0.000693486
0.000850573
0.00169425
0.000776866
0.00224904
0.00051431
0.0013585
0.000977574
0.00129365
0.000768772
0.000481767
0.00151328
0.00161228
0.000840312
0.000715021
0.00146154
0.00105462
0.000619755
0.00136002
0.000780418
0.00108595
0.00107284
0.00131991
0.000277622
0.00048062
0.00201752
0.00102146
0.000653131
0.00119604
0.0016087
0.0015298
0.000398987
0.0013833
0.000470648
0.000797915
0.000686818
0.00140091
0.000638323
0.000883312
0.000875652
0.00147131
0.000934591
0.000740874
0.000740191
0.00114326
0.000897156
0.000881882
0.00112169
0.00145663
0.0010044
0.000502808
0.00105863
0.00209373
0.00106271
0.00144254
0.00090301
0.000575632
0.0010408
0.000605164
0.00158824
0.00104721
0.000780221
0.000931297
0.00144914
0.0011241
0.000749149
0.000744907
0.000745182
0.000822764
0.0016787
0.00132727
0.00103822
0.000631377
0.00111062
0.00164936
0.00133925
0.000841777
0.0013647
0.000921032
0.00115906
0.00185275
0.0012167
0.00160779
0.00185724
0.00142727
0.000689983
0.00110874
0.000995299
0.000515572
0.00107182
0.000666986
0.000875803
0.000800208
0.000663004
0.000674068
0.000548974
0.000710574
0.000844624
0.00112583
0.00162426
0.000709902
0.000850995
0.00142774
0.000861353
0.000732532
0.000710473
0.000786806
0.000911251
0.000752434
0.00162032
0.00074392
0.00155762
0.00117356
0.000863309
0.00139953
0.0011153
0.00135214
0.000886126
0.00193135
0.00175237
0.000737326
0.00171569
0.00058402
0.000720816
0.00151898
0.00348762
0.00102209
0.000704952
0.00132043
0.000956318
0.0015121
0.00184412
0.000930112
0.000579672
0.000798124
0.000703933
0.0012373
0.001552
0.000606215
0.00112423
0.00119136
0.00163399
0.00114051
0.00287824
0.00112177
0.000559249
0.00161051
0.00140812
0.000809975
0.000665814
0.000685507
0.000896351
0.000787486
0.000988639
0.000905792
0.000841419
0.00211637
0.00115411
0.000866035
0.000357007
0.00115455
0.00168509
0.00107161
0.00088012
0.00197875
0.000827242
0.00148285
0.00106998
0.000966879
0.00146631
0.000794125
0.00165672
0.00120515
0.000507032
0.000601483
0.000811955
0.000482098
0.00100404
0.000685581
0.000887212
0.000965808
0.000649665
0.000817524
0.00143754
0.0018526
0.00053734
0.00066661
0.000879167
0.000944023
0.00152059
0.000736292
0.000980939
0.000680779
0.00103561
0.000626458
0.00140562
0.00132474
0.0012636
0.000663949
0.000884295
0.000817726
0.00107649
0.000676801
0.00073863
0.00117601
0.00153911
0.000411943
0.00141632
0.00165434
0.00160942
0.00152507
0.000765794
0.000859622
0.00100904
0.00112733
0.0013214
0.0011075
0.0013334
0.000492359
0.0015982
0.000864782
0.000876718
0.00112213
0.00131261
0.00123161
0.000995434
0.000691693
0.00148954
0.000915714
0.00161193
0.00145385
0.000723004
0.000867088
0.000689987
0.000590179
0.00157525
0.00127779
0.00107203
0.0010822
0.00106427
0.000923563
0.000699877
0.00116241
0.000847849
0.000797621
0.0014757
0.000746431
0.000674782
0.00150639
0.00159881
0.00142416
0.000996197
0.00159122
0.000804196
0.000729245
0.000753149
0.00135044
0.000450096
0.000918214
0.00078226
0.00102742
0.00037744
0.00130192
0.000688478
0.00096781
0.000652708
0.000912283
0.000401165
0.0011483
0.00150648
0.00140114
0.00091935
0.000796505
0.00158747
0.000694037
0.000402444
0.00143208
0.00058037
0.00116562
0.00126642
0.000997873
0.00100526
0.0015554
0.000828392
0.000925337
0.00100756
0.00115373
0.000938554
0.0017762
0.00138966
0.000793217
0.00122439
0.000315128
0.00120706
0.00076283
0.00149997
0.000685256
0.00134931
0.00110602
0.000958626
0.000668295
0.00134467
0.00085867
0.00104245
0.00264216
0.00342028
0.000736746
0.00081694
0.000819416
0.00154537
0.000798023
0.00122286
0.00123657
0.000709623
0.00104438
0.00154545
0.000710144
0.000698939
0.000645689
0.000799483
0.00134381
0.00100831
0.000654722
0.0012942
0.00210794
0.00122316
0.001503
0.000966394
0.000671315
0.000804883
0.000862415
0.000599968
0.00264604
0.000726409
0.0010717
0.00144844
0.000556603
0.000703602
0.000960323
0.000718419
0.00146319
0.000737764
0.000888105
0.0013825
0.000854193
0.00100365
0.000809821
0.00119475
0.0023071
0.00126705
0.00152677
0.00148722
0.0009592
0.00143669
0.000707646
0.000676771
0.000896342
0.0011997
0.000709983
0.000748
0.00150411
0.0010164
0.000916297
0.00164526
0.00139139
0.000488851
0.000830619
0.000938019
0.000941702
0.000670629
0.0015488
0.00153393
0.000694216
0.000480877
0.0005136
0.000908265
0.0006929
0.00108713
0.001271
0.00160242
0.000917265
0.00125165
0.00142326
0.00130348
0.00132546
0.00135165
0.000822984
0.00109189
0.00122986
0.00124022
0.00078985
0.0010365
0.000823373
0.00147252
0.00122023
0.00104926
0.000641238
0.00084898
0.000967662
0.00107639
0.000599814
0.00110388
0.00128596
0.000653878
0.000820661
0.000807708
0.000675047
0.000946187
0.000628302
0.000685333
0.00156752
0.00152865
0.000284204
0.000824545
0.000682745
0.0018737
0.000747863
0.000681069
0.000979268
0.00109982
0.000853535
0.00069101
0.00113736
0.00157645
0.000967609
0.000690331
0.000749725
0.00153498
0.00126364
0.000769572
0.00126294
0.00151252
0.00151269
0.00134953
0.0017594
0.0013169
0.00164791
0.0024612
0.00052205
0.00148815
0.00168218
0.0013234
0.00155255
0.0004793
0.000753931
0.00088323
0.00112429
0.00130617
0.000787407
0.00126018
0.00136045
0.000937775
0.000453673
0.000724449
0.000956887
0.00150429
0.000616
0.000809419
0.000780504
0.000885834
0.00178487
0.000462662
0.000797201
0.0015003
0.000760125
0.000951566
0.0015909
0.00105404
0.00110595
0.000858438
0.00166039
0.000779802
0.000770374
0.0021763
0.00168617
0.00114982
0.000603724
0.000879596
0.000733781
0.000552778
0.00157567
0.000781735
0.00119139
0.00131189
0.000955022
0.00171212
0.000980223
0.000641008
0.000981648
0.00112847
0.000912035
0.000680203
0.000890484
0.000446342
0.00113713
0.000346104
0.00060335
0.000811888
0.000822552
0.000899757
0.00056279
0.00155533
0.000852626
0.000983798
0.000810214
0.00123496
0.00138507
0.000740169
0.000658522
0.000891855
0.000864278
0.000282289
0.00133869
0.00119116
0.00166662
0.00135511
0.000845952
0.000935295
0.000390986
0.000886688
0.000674754
0.000731559
0.00071003
0.00194285
0.000832029
0.000784465
0.00111186
0.00142809
0.00147597
0.000994107
0.000945244
0.00141723
0.00151715
0.00126094
0.00163248
0.00148186
0.0014563
0.00151972
0.000802429
0.000502102
0.00151334
0.000596134
0.00114805
0.00103458
0.00122374
0.000314656
0.00129872
0.000711779
0.000904633
0.000473223
0.000916188
0.00102052
0.000638375
0.000460511
0.000427086
0.00149635
0.00173298
0.00102489
0.00142466
0.000576182
0.00090897
0.00103348
0.000617905
0.00109755
0.00127987
0.000849617
0.00128649
0.00147269
0.00105783
0.000384996
0.000719925
0.000673793
0.00150378
0.000765784
0.00145083
0.000765591
0.000849985
0.00111682
0.000883
0.000639637
0.00135677
0.000971128
0.00143619
0.000614048
0.00158065
0.00148888
0.000745507
0.000716025
0.000839169
0.00146092
0.00124587
0.00147288
0.00118738
0.000747607
0.000886465
0.00145562
0.00156452
0.000847506
0.000837468
0.00092284
0.001479
0.000724447
0.000880902
0.000953725
0.00145556
0.00106794
0.000837452
0.000759341
0.000697605
0.000595
0.00106019
0.00112702
0.000666779
0.000881515
0.00117186
0.000904288
0.000848458
0.000681631
0.00086795
0.00118645
0.0011397
0.00093412
0.00139651
0.00141843
0.000989925
0.00064069
0.000872556
0.00148332
0.0009369
0.00111056
0.000712699
0.0014885
0.000834883
0.00144244
0.00115718
0.000623346
0.000580934
0.00160763
0.00044441
0.0010031
0.00108955
0.00135962
0.000712699
0.00081611
0.000901174
0.00158873
0.000821327
0.000931352
0.000666518
0.000528319
0.000538209
0.00139982
0.00154249
0.00157625
0.00068765
0.00094015
0.00127848
0.000471154
0.00140771
0.00150211
0.000515639
0.00127216
0.000332132
0.00100476
0.00170323
0.000734978
0.00140997
0.000683759
0.000874436
0.000678912
0.00140487
0.00146081
0.00151562
0.00117212
0.000934293
0.000673832
0.00138588
0.000917413
0.000673108
0.000537878
0.00182593
0.000941163
0.00103614
0.000608594
0.000865901
0.00270094
0.000704615
0.00107911
0.00114369
0.000582147
0.00142584
0.00122372
0.00142845
0.000659758
0.00180828
0.00148778
0.000771022
0.00130097
0.000984537
0.000652854
0.000632766
0.00155647
0.00140591
0.000869978
0.00144105
0.000800809
0.00165543
0.00120502
0.000751601
0.00111859
0.00119795
0.000752713
0.000719872
0.00118507
0.00124355
0.000902843
0.000676546
0.00146797
0.00049169
0.00153304
0.000829733
0.000526709
0.000665549
0.00105763
0.000594559
0.00116166
0.00139455
0.000672259
0.000951061
0.000754438
0.000826091
0.00165999
0.000390045
0.000841621
0.000674453
0.000890341
0.00105627
0.00068701
0.000675323
0.00151243
0.000666164
0.000720596
0.000458918
0.00143671
0.00165422
0.00069625
0.00179235
0.00156881
0.00121567
0.00123072
0.000652576
0.000874538
0.000813382
0.000634813
0.00100783
0.00140878
0.00132322
0.000589565
0.000952248
0.000754296
0.00105044
0.000625197
0.00100729
0.000938534
0.000744469
0.000887279
0.00102548
0.000618259
0.000834113
0.00173742
0.000893981
0.0008555
0.00140139
0.000966786
0.000480427
0.00120066
0.000684077
0.00151493
0.000745126
0.000678624
0.00100616
0.000669222
0.000922078
0.00102927
0.00065317
0.000989246
0.000661451
0.000732929
0.00152756
0.00130841
0.000871586
0.00156795
0.00129057
0.00112874
0.0025546
0.000938492
0.000676629
0.00131063
0.00108573
0.00162706
0.00143822
0.00062465
0.00125681
0.000785616
0.000989549
0.00069547
0.000971814
0.000751605
0.00136402
0.0014912
0.000650843
0.00110587
0.000478843
0.000561943
0.00105288
0.000790698
0.00161559
0.000839261
0.000605838
0.000870541
0.00116644
0.000957605
0.00154164
0.00136067
0.000615146
0.00102397
0.00151325
0.00101851
0.000671751
0.000415268
0.00150528
0.00135471
0.000484898
0.000732666
0.000710726
0.00106223
0.000416545
0.000648104
0.000881101
0.000379193
0.000671446
0.000887556
0.00101098
0.00115407
0.000675813
0.000268512
0.000660982
0.00129955
0.000768983
0.000571454
0.000848378
0.00169217
0.000756225
0.00131373
0.00126018
0.000709929
0.00130334
0.000704436
0.00105448
0.000625437
0.00149665
0.00120928