/*--------------------------------*- C++ -*----------------------------------*\
| =========                 |                                                 |
| \\      /  F ield         | OpenFOAM: The Open Source CFD Toolbox           |
|  \\    /   O peration     | Version:  v2012                                 |
|   \\  /    A nd           | Website:  www.openfoam.com                      |
|    \\/     M anipulation  |                                                 |
\*---------------------------------------------------------------------------*/
FoamFile
{
    version     2.0;
    format      ascii;
    class       pointSymmTensorField;
    location    "6";
    object      pEpsilon;
}
// * * * * * * * * * * * * * * * * * * * * * * * * * * * * * * * * * * * * * //

dimensions      [0 0 0 0 0 0 0];


internalField   nonuniform List<symmTensor> 
7900
(
(0.000655503 4.92927e-06 0 -0.00172696 0 0)
(0.000893131 -4.20449e-06 0 -8.68395e-05 0 0)
(0.00104212 5.80052e-07 0 -0.000447118 0 0)
(0.000752723 3.35717e-05 0 -0.000345668 0 0)
(0.00483188 -1.99545e-07 0 -0.00224269 -7.58942e-18 0)
(0.000655503 4.92927e-06 0 -0.00172696 0 0)
(0.000893131 -4.20449e-06 0 -8.68395e-05 0 0)
(0.00104212 5.80052e-07 0 -0.000447118 0 0)
(0.000752723 3.35717e-05 0 -0.000345668 0 0)
(0.00483188 -1.99545e-07 0 -0.00224269 -7.58942e-18 0)
(0.000537398 -7.02077e-06 0 -0.00141419 0 0)
(0.00040759 -1.8807e-05 0 -0.00111799 0 0)
(0.000322098 -3.36435e-05 0 -0.000936024 0 0)
(0.000248798 -3.69781e-05 0 -0.000752296 0 0)
(0.000203044 -2.60378e-05 0 -0.000612293 0 0)
(0.000185149 -2.37336e-05 0 -0.000509548 0 0)
(0.000178741 -2.45874e-05 0 -0.000428677 0 0)
(0.000183958 -2.45698e-05 0 -0.000366779 0 0)
(0.000191099 -2.68749e-05 0 -0.000310904 0 0)
(0.000202471 -3.79976e-05 0 -0.000264723 0 0)
(0.000215733 -2.8561e-05 0 -0.000224823 0 0)
(0.000244639 -2.86611e-05 0 -0.000201593 0 0)
(0.000264053 -3.48183e-05 0 -0.000179233 0 0)
(0.000285576 -2.69914e-05 0 -0.00016111 0 0)
(0.000311788 -3.14452e-05 0 -0.000150215 0 0)
(0.000333976 -2.35587e-05 0 -0.000139801 0 0)
(0.000359111 -1.86782e-05 0 -0.000129394 0 0)
(0.000384237 -2.07224e-05 0 -0.000123577 0 0)
(0.000406642 -1.74778e-05 0 -0.000118965 0 0)
(0.000431715 -1.95951e-05 0 -0.000117622 0 0)
(0.000457973 -1.92132e-05 0 -0.000118299 0 0)
(0.000477261 -1.76651e-05 0 -0.000117897 0 0)
(0.000502184 -1.74172e-05 0 -0.00011845 0 0)
(0.000521195 -1.68235e-05 0 -0.000120468 0 0)
(0.000545142 -1.55915e-05 0 -0.000124043 0 0)
(0.000564349 -1.27168e-05 0 -0.000126536 0 0)
(0.000584531 -1.44376e-05 0 -0.00013013 0 0)
(0.000606963 -1.31443e-05 0 -0.000134124 0 0)
(0.000624131 -1.29063e-05 0 -0.0001396 0 0)
(0.000645396 -1.26889e-05 0 -0.000144443 0 0)
(0.000660784 -1.18609e-05 0 -0.000149322 0 0)
(0.000679925 -1.19546e-05 0 -0.000153732 0 0)
(0.000698767 -1.04178e-05 0 -0.000159456 0 0)
(0.000713806 -9.26325e-06 -2.1684e-18 -0.000165628 0 0)
(0.000731977 -9.0244e-06 0 -0.00016961 0 0)
(0.000746808 -7.07955e-06 0 -0.000174829 0 0)
(0.00075987 -6.12854e-06 0 -0.00017962 0 0)
(0.000774513 -7.3426e-06 0 -0.000183322 0 0)
(0.000788718 -8.52993e-06 0 -0.000188054 0 0)
(0.00080302 -8.42674e-06 0 -0.000192664 0 0)
(0.000815666 -7.21221e-06 0 -0.000196667 0 0)
(0.000828016 -6.49883e-06 0 -0.000199272 0 0)
(0.000837545 -7.1398e-06 0 -0.000201672 0 0)
(0.00084916 -7.81778e-06 0 -0.000203931 0 0)
(0.00086056 -6.94392e-06 0 -0.00020577 0 0)
(0.000869497 -5.1979e-06 0 -0.000206558 0 0)
(0.000876461 -4.9882e-06 0 -0.000205972 0 0)
(0.000885226 -5.33174e-06 0 -0.000205311 0 0)
(0.000891749 -6.10056e-06 0 -0.000203005 0 0)
(0.000896984 -5.14289e-06 0 -0.000199375 0 0)
(0.000902094 -5.60207e-06 0 -0.000195191 0 0)
(0.000906324 -5.47869e-06 0 -0.000190397 0 0)
(0.000908494 -4.39967e-06 0 -0.000183156 0 0)
(0.00091029 -4.00985e-06 0 -0.000175305 0 0)
(0.000910213 -3.56257e-06 0 -0.000164234 0 0)
(0.000910224 -4.11875e-06 0 -0.000153692 0 0)
(0.000905852 -6.22751e-06 0 -0.000138457 0 0)
(0.000899839 -3.59691e-06 0 -0.000121787 0 0)
(0.000895728 -3.02175e-06 0 -0.000104912 0 0)
(0.000892525 -1.49695e-06 0 -8.57561e-05 6.35275e-21 0)
(0.000885737 -1.97984e-06 0 -8.43875e-05 4.23516e-21 0)
(0.000899056 -2.51698e-06 0 -9.23557e-05 -8.47033e-21 0)
(0.00089616 -2.08252e-06 0 -9.36852e-05 -8.47033e-21 0)
(0.000899503 -2.43693e-06 0 -0.00010186 -1.69407e-20 0)
(0.000901908 -6.18128e-06 0 -0.000107828 -8.47033e-21 0)
(0.000904129 -3.98888e-06 0 -0.000113978 0 0)
(0.000907669 -6.03496e-06 0 -0.000123484 0 0)
(0.000913738 -7.24238e-06 0 -0.000132911 0 0)
(0.000916354 -3.86839e-06 0 -0.000142244 -1.69407e-20 0)
(0.000921485 -4.64603e-06 0 -0.000156229 0 0)
(0.000926756 -7.37916e-06 0 -0.000168446 0 0)
(0.000930232 -5.52298e-06 0 -0.000179193 0 0)
(0.000937806 -6.96071e-06 0 -0.000195782 0 0)
(0.000944145 -9.19235e-06 0 -0.000210414 0 0)
(0.000947517 -8.46354e-06 0 -0.000222563 3.38813e-20 0)
(0.000954475 -9.40244e-06 0 -0.000239133 0 0)
(0.000963355 -1.1024e-05 0 -0.00025606 0 0)
(0.000967245 -8.83624e-06 0 -0.000269545 0 0)
(0.000975754 -8.15181e-06 0 -0.00028695 0 0)
(0.000980796 -8.03901e-06 0 -0.000301943 0 0)
(0.000985727 -9.42664e-06 0 -0.000317094 0 0)
(0.000994591 -9.58833e-06 0 -0.000334151 0 0)
(0.00100132 -9.34108e-06 0 -0.000349509 0 0)
(0.00100467 -7.46115e-06 0 -0.000361627 0 0)
(0.0010122 -6.45755e-06 0 -0.000376871 0 0)
(0.00101728 -5.3413e-06 0 -0.000390782 0 0)
(0.0010204 -6.06413e-06 0 -0.000400836 0 0)
(0.00102587 -4.86065e-06 0 -0.000412499 0 0)
(0.00102985 -5.12291e-06 0 -0.000422478 0 0)
(0.00103409 -3.80135e-06 0 -0.00043151 0 0)
(0.00103585 -3.37589e-06 0 -0.000437799 0 0)
(0.00103965 -2.32961e-06 0 -0.000444631 0 0)
(0.00104087 -2.72696e-06 0 -0.000447972 0 0)
(0.00104238 -5.93984e-07 0 -0.00045027 0 0)
(0.00104326 1.10274e-07 0 -0.000451965 0 0)
(0.00104233 5.42975e-07 0 -0.000450674 0 0)
(0.00104398 1.04959e-06 0 -0.000449922 0 0)
(0.00104288 7.48885e-07 0 -0.000448143 0 0)
(0.001041 8.04849e-07 0 -0.000446364 0 0)
(0.00103938 1.15739e-06 0 -0.000445856 0 0)
(0.00103855 4.25866e-07 0 -0.000446599 0 0)
(0.00103748 -3.51566e-08 0 -0.000445847 0 0)
(0.00103827 -1.05196e-06 0 -0.000447068 0 0)
(0.00104038 -8.94093e-07 0 -0.000447677 0 0)
(0.00104487 -2.56694e-06 0 -0.000450342 0 0)
(0.00104968 -3.32823e-06 0 -0.00045114 0 0)
(0.00105833 -4.46771e-06 0 -0.000456281 0 0)
(0.00106591 -4.8536e-06 0 -0.000459071 0 0)
(0.00107676 -5.76141e-06 0 -0.00046503 0 0)
(0.00108723 -5.28683e-06 0 -0.000467159 0 0)
(0.00110079 -6.82543e-06 0 -0.000474735 0 0)
(0.00111241 -6.47386e-06 0 -0.000477899 0 0)
(0.00112816 -7.95362e-06 0 -0.000483624 0 0)
(0.00114632 -9.55334e-06 0 -0.000492915 0 0)
(0.00116391 -1.04878e-05 0 -0.000500631 0 0)
(0.00117916 -9.1509e-06 0 -0.000505285 0 0)
(0.00119931 -1.00581e-05 0 -0.00051397 0 0)
(0.00121917 -1.18985e-05 0 -0.000521612 0 0)
(0.00124173 -1.21936e-05 0 -0.000532278 0 0)
(0.00126457 -1.24835e-05 0 -0.000540932 0 0)
(0.00128591 -1.69065e-05 0 -0.000549911 0 0)
(0.00130818 -1.13852e-05 0 -0.000559285 0 0)
(0.00133507 -1.03373e-05 0 -0.000571554 0 0)
(0.0013568 -1.30969e-05 0 -0.000577623 -2.71051e-19 0)
(0.00138491 -1.24475e-05 0 -0.000592008 0 0)
(0.00140759 -1.52713e-05 0 -0.000597906 0 0)
(0.00143689 -1.29524e-05 0 -0.000613501 0 0)
(0.00146236 -1.53087e-05 0 -0.000619777 0 0)
(0.00149191 -1.21774e-05 0 -0.000635575 0 0)
(0.00151617 -1.43779e-05 0 -0.000641686 0 0)
(0.00155088 -1.34307e-05 0 -0.000660686 0 0)
(0.00157577 -1.99558e-05 0 -0.000668683 0 0)
(0.00160654 -1.50629e-05 0 -0.000683133 0 0)
(0.00163208 -1.71128e-05 0 -0.000687234 0 0)
(0.00166368 -1.6522e-05 0 -0.000706084 0 0)
(0.00168727 -1.7587e-05 0 -0.000713209 0 0)
(0.00172091 -1.18014e-05 0 -0.000731032 0 0)
(0.001748 -1.35162e-05 0 -0.00074094 0 0)
(0.00176845 -1.60018e-05 0 -0.00074398 0 0)
(0.00180093 -1.11743e-05 0 -0.00076301 0 0)
(0.00181932 -1.57689e-05 0 -0.000765559 0 0)
(0.00184033 -1.39118e-05 0 -0.000777223 0 0)
(0.0018674 -6.7697e-06 0 -0.000789073 0 0)
(0.00188415 -1.51565e-05 0 -0.000795975 0 0)
(0.00189322 -8.19875e-06 0 -0.000796489 0 0)
(0.00191515 -1.96771e-06 0 -0.00080824 0 0)
(0.00192242 -9.21761e-06 0 -0.000809091 0 0)
(0.00192851 -3.68977e-07 0 -0.00081264 0 0)
(0.00193437 -4.54281e-07 0 -0.000814286 0 0)
(0.00193867 6.1525e-06 0 -0.000816961 0 0)
(0.00193619 -2.21548e-06 0 -0.000816912 0 0)
(0.00192084 3.36063e-06 0 -0.000813817 0 0)
(0.00190525 1.11637e-05 0 -0.000804277 0 0)
(0.00188294 1.45521e-05 0 -0.000785902 0 0)
(0.00186515 1.62664e-05 0 -0.000789267 0 0)
(0.00184695 1.93818e-05 -5.42101e-19 -0.000794767 0 0)
(0.00180357 1.86265e-05 0 -0.000759625 0 0)
(0.00176437 2.25908e-05 0 -0.000747985 0 0)
(0.00172561 2.53712e-05 0 -0.000737073 0 0)
(0.00167258 3.01345e-05 0 -0.000714728 0 0)
(0.00161907 3.38988e-05 0 -0.000695831 0 0)
(0.00155378 3.49799e-05 0 -0.000664865 0 0)
(0.0015002 4.12476e-05 0 -0.000650034 0 0)
(0.00143551 3.66497e-05 0 -0.000621456 0 0)
(0.00135913 3.80958e-05 0 -0.00059011 0 0)
(0.00130111 4.9054e-05 0 -0.0005739 0 0)
(0.00122722 3.83714e-05 0 -0.00053901 0 0)
(0.0011473 3.36982e-05 0 -0.000507792 0 0)
(0.00109112 4.51279e-05 0 -0.000495829 0 0)
(0.0010327 4.10802e-05 -1.35525e-19 -0.000466982 0 0)
(0.000956269 2.69401e-05 0 -0.000433175 0 0)
(0.000908265 4.27631e-05 0 -0.000420056 0 0)
(0.000874021 2.55445e-05 0 -0.000410844 0 0)
(0.00080549 1.27634e-05 0 -0.000373238 0 0)
(0.000785273 2.99597e-05 -3.38813e-20 -0.000374037 0 0)
(0.000750864 -5.47698e-06 3.38813e-20 -0.000351978 0 0)
(0.000728795 1.46092e-05 5.0822e-20 -0.000340479 0 0)
(0.000883371 2.36888e-05 0 -0.000383758 0 0)
(0.000995962 1.34237e-05 0 -0.000406527 0 0)
(0.00110851 3.31574e-05 0 -0.000436195 0 0)
(0.00121816 3.02988e-05 0 -0.00046532 0 0)
(0.00132479 4.27339e-05 0 -0.00048836 0 0)
(0.00141728 3.40083e-05 0 -0.000504258 0 0)
(0.00150346 2.99611e-05 0 -0.000508572 0 0)
(0.00157823 3.54206e-05 0 -0.000503783 0 0)
(0.00167846 4.81844e-05 0 -0.00052 0 0)
(0.00177441 3.14081e-05 0 -0.000531284 0 0)
(0.00188115 3.05884e-05 0 -0.000537436 0 0)
(0.002001 4.26428e-05 0 -0.000559608 1.0842e-18 0)
(0.0021291 4.34794e-05 0 -0.000591715 0 0)
(0.00231126 4.67065e-05 0 -0.000640606 0 0)
(0.00251993 5.05876e-05 0 -0.000726703 -1.0842e-18 0)
(0.00278234 3.31817e-05 0 -0.000855257 -2.1684e-18 0)
(0.00315788 1.14442e-05 0 -0.00102471 -6.50521e-18 0)
(0.00359277 2.30866e-06 0 -0.00135503 -1.95156e-17 0)
(0.00411266 6.76484e-06 0 -0.00184577 8.67362e-18 0)
(0.00488466 -0.000415454 7.04731e-18 -0.00258648 -3.25261e-18 0)
(0.00461583 -0.000813551 -1.00289e-17 -0.00227287 4.11997e-17 0)
(0.00418989 -0.000975532 -3.49655e-17 -0.00180589 4.22839e-17 0)
(0.00376285 -0.0010952 -3.79471e-18 -0.00142626 -1.95156e-17 0)
(0.00354451 -0.00118418 3.68629e-17 -0.00133945 -1.30104e-17 0)
(0.00319946 -0.00140223 1.51788e-17 -0.00107639 -2.1684e-18 0)
(0.00280978 -0.00140069 9.21572e-18 -0.000846973 -1.0842e-18 0)
(0.00256541 -0.00141772 5.42101e-18 -0.000721323 -1.0842e-18 0)
(0.00223858 -0.00149937 3.79471e-18 -0.000541384 0 0)
(0.00187429 -0.00140458 2.1684e-18 -0.000360715 0 0)
(0.00158917 -0.00132022 1.0842e-18 -0.000239988 0 0)
(0.00125945 -0.00119613 1.0842e-18 -9.5696e-05 0 0)
(0.000991449 -0.00104763 1.0842e-18 -3.37058e-05 0 0)
(0.000743396 -0.000914547 0 3.98623e-05 0 0)
(0.000583635 -0.000722652 0 2.61582e-05 0 0)
(0.000397739 -0.000539864 0 3.98301e-05 0 0)
(0.000290438 -0.000378766 0 -1.93486e-05 0 0)
(0.000138899 -0.000199462 1.0842e-18 -1.86609e-05 0 0)
(7.01815e-05 -1.35803e-05 0 -0.000119111 0 0)
(8.4042e-05 9.42453e-05 0 -0.000280352 0 0)
(9.54131e-05 0.000227146 0 -0.000407534 0 0)
(0.000131007 0.000338977 0 -0.000572403 0 0)
(0.000178812 0.000359031 0 -0.000740007 0 0)
(0.000251228 0.000448095 0 -0.000890629 0 0)
(0.000303387 0.000470971 0 -0.00104257 0 0)
(0.000392802 0.00048362 0 -0.00121936 0 0)
(0.000475786 0.00038403 0 -0.00136724 0 0)
(0.000508635 0.000371182 0 -0.00145756 0 0)
(0.0005763 0.000271399 0 -0.00156325 0 0)
(0.000620407 0.00022881 0 -0.0016241 -6.77626e-20 0)
(0.000609642 0.000118869 0 -0.00167166 0 0)
(0.000537398 -7.02077e-06 0 -0.00141419 0 0)
(0.00040759 -1.8807e-05 0 -0.00111799 0 0)
(0.000322098 -3.36435e-05 0 -0.000936024 0 0)
(0.000248798 -3.69781e-05 0 -0.000752296 0 0)
(0.000203044 -2.60378e-05 0 -0.000612293 0 0)
(0.000185149 -2.37336e-05 0 -0.000509548 0 0)
(0.000178741 -2.45874e-05 0 -0.000428677 0 0)
(0.000183958 -2.45698e-05 0 -0.000366779 0 0)
(0.000191099 -2.68749e-05 0 -0.000310904 0 0)
(0.000202471 -3.79976e-05 0 -0.000264723 0 0)
(0.000215733 -2.8561e-05 0 -0.000224823 0 0)
(0.000244639 -2.86611e-05 0 -0.000201593 0 0)
(0.000264053 -3.48183e-05 0 -0.000179233 0 0)
(0.000285576 -2.69914e-05 0 -0.00016111 0 0)
(0.000311788 -3.14452e-05 0 -0.000150215 0 0)
(0.000333976 -2.35587e-05 0 -0.000139801 0 0)
(0.000359111 -1.86782e-05 0 -0.000129394 0 0)
(0.000384237 -2.07224e-05 0 -0.000123577 0 0)
(0.000406642 -1.74778e-05 0 -0.000118965 0 0)
(0.000431715 -1.95951e-05 0 -0.000117622 0 0)
(0.000457973 -1.92132e-05 0 -0.000118299 0 0)
(0.000477261 -1.76651e-05 0 -0.000117897 0 0)
(0.000502184 -1.74172e-05 0 -0.00011845 0 0)
(0.000521195 -1.68235e-05 0 -0.000120468 0 0)
(0.000545142 -1.55915e-05 0 -0.000124043 0 0)
(0.000564349 -1.27168e-05 0 -0.000126536 0 0)
(0.000584531 -1.44376e-05 0 -0.00013013 0 0)
(0.000606963 -1.31443e-05 0 -0.000134124 0 0)
(0.000624131 -1.29063e-05 0 -0.0001396 0 0)
(0.000645396 -1.26889e-05 0 -0.000144443 0 0)
(0.000660784 -1.18609e-05 0 -0.000149322 0 0)
(0.000679925 -1.19546e-05 0 -0.000153732 0 0)
(0.000698767 -1.04178e-05 0 -0.000159456 0 0)
(0.000713806 -9.26325e-06 -2.1684e-18 -0.000165628 0 0)
(0.000731977 -9.0244e-06 0 -0.00016961 0 0)
(0.000746808 -7.07955e-06 0 -0.000174829 0 0)
(0.00075987 -6.12854e-06 0 -0.00017962 0 0)
(0.000774513 -7.3426e-06 0 -0.000183322 0 0)
(0.000788718 -8.52993e-06 0 -0.000188054 0 0)
(0.00080302 -8.42674e-06 0 -0.000192664 0 0)
(0.000815666 -7.21221e-06 0 -0.000196667 0 0)
(0.000828016 -6.49883e-06 0 -0.000199272 0 0)
(0.000837545 -7.1398e-06 0 -0.000201672 0 0)
(0.00084916 -7.81778e-06 0 -0.000203931 0 0)
(0.00086056 -6.94392e-06 0 -0.00020577 0 0)
(0.000869497 -5.1979e-06 0 -0.000206558 0 0)
(0.000876461 -4.9882e-06 0 -0.000205972 0 0)
(0.000885226 -5.33174e-06 0 -0.000205311 0 0)
(0.000891749 -6.10056e-06 0 -0.000203005 0 0)
(0.000896984 -5.14289e-06 0 -0.000199375 0 0)
(0.000902094 -5.60207e-06 0 -0.000195191 0 0)
(0.000906324 -5.47869e-06 0 -0.000190397 0 0)
(0.000908494 -4.39967e-06 0 -0.000183156 0 0)
(0.00091029 -4.00985e-06 0 -0.000175305 0 0)
(0.000910213 -3.56257e-06 0 -0.000164234 0 0)
(0.000910224 -4.11875e-06 0 -0.000153692 0 0)
(0.000905852 -6.22751e-06 0 -0.000138457 0 0)
(0.000899839 -3.59691e-06 0 -0.000121787 0 0)
(0.000895728 -3.02175e-06 0 -0.000104912 0 0)
(0.000892525 -1.49695e-06 0 -8.57561e-05 6.35275e-21 0)
(0.000885737 -1.97984e-06 0 -8.43875e-05 4.23516e-21 0)
(0.000899056 -2.51698e-06 0 -9.23557e-05 -8.47033e-21 0)
(0.00089616 -2.08252e-06 0 -9.36852e-05 -8.47033e-21 0)
(0.000899503 -2.43693e-06 0 -0.00010186 -1.69407e-20 0)
(0.000901908 -6.18128e-06 0 -0.000107828 -8.47033e-21 0)
(0.000904129 -3.98888e-06 0 -0.000113978 0 0)
(0.000907669 -6.03496e-06 0 -0.000123484 0 0)
(0.000913738 -7.24238e-06 0 -0.000132911 0 0)
(0.000916354 -3.86839e-06 0 -0.000142244 -1.69407e-20 0)
(0.000921485 -4.64603e-06 0 -0.000156229 0 0)
(0.000926756 -7.37916e-06 0 -0.000168446 0 0)
(0.000930232 -5.52298e-06 0 -0.000179193 0 0)
(0.000937806 -6.96071e-06 0 -0.000195782 0 0)
(0.000944145 -9.19235e-06 0 -0.000210414 0 0)
(0.000947517 -8.46354e-06 0 -0.000222563 3.38813e-20 0)
(0.000954475 -9.40244e-06 0 -0.000239133 0 0)
(0.000963355 -1.1024e-05 0 -0.00025606 0 0)
(0.000967245 -8.83624e-06 0 -0.000269545 0 0)
(0.000975754 -8.15181e-06 0 -0.00028695 0 0)
(0.000980796 -8.03901e-06 0 -0.000301943 0 0)
(0.000985727 -9.42664e-06 0 -0.000317094 0 0)
(0.000994591 -9.58833e-06 0 -0.000334151 0 0)
(0.00100132 -9.34108e-06 0 -0.000349509 0 0)
(0.00100467 -7.46115e-06 0 -0.000361627 0 0)
(0.0010122 -6.45755e-06 0 -0.000376871 0 0)
(0.00101728 -5.3413e-06 0 -0.000390782 0 0)
(0.0010204 -6.06413e-06 0 -0.000400836 0 0)
(0.00102587 -4.86065e-06 0 -0.000412499 0 0)
(0.00102985 -5.12291e-06 0 -0.000422478 0 0)
(0.00103409 -3.80135e-06 0 -0.00043151 0 0)
(0.00103585 -3.37589e-06 0 -0.000437799 0 0)
(0.00103965 -2.32961e-06 0 -0.000444631 0 0)
(0.00104087 -2.72696e-06 0 -0.000447972 0 0)
(0.00104238 -5.93984e-07 0 -0.00045027 0 0)
(0.00104326 1.10274e-07 0 -0.000451965 0 0)
(0.00104233 5.42975e-07 0 -0.000450674 0 0)
(0.00104398 1.04959e-06 0 -0.000449922 0 0)
(0.00104288 7.48885e-07 0 -0.000448143 0 0)
(0.001041 8.04849e-07 0 -0.000446364 0 0)
(0.00103938 1.15739e-06 0 -0.000445856 0 0)
(0.00103855 4.25866e-07 0 -0.000446599 0 0)
(0.00103748 -3.51566e-08 0 -0.000445847 0 0)
(0.00103827 -1.05196e-06 0 -0.000447068 0 0)
(0.00104038 -8.94093e-07 0 -0.000447677 0 0)
(0.00104487 -2.56694e-06 0 -0.000450342 0 0)
(0.00104968 -3.32823e-06 0 -0.00045114 0 0)
(0.00105833 -4.46771e-06 0 -0.000456281 0 0)
(0.00106591 -4.8536e-06 0 -0.000459071 0 0)
(0.00107676 -5.76141e-06 0 -0.00046503 0 0)
(0.00108723 -5.28683e-06 0 -0.000467159 0 0)
(0.00110079 -6.82543e-06 0 -0.000474735 0 0)
(0.00111241 -6.47386e-06 0 -0.000477899 0 0)
(0.00112816 -7.95362e-06 0 -0.000483624 0 0)
(0.00114632 -9.55334e-06 0 -0.000492915 0 0)
(0.00116391 -1.04878e-05 0 -0.000500631 0 0)
(0.00117916 -9.1509e-06 0 -0.000505285 0 0)
(0.00119931 -1.00581e-05 0 -0.00051397 0 0)
(0.00121917 -1.18985e-05 0 -0.000521612 0 0)
(0.00124173 -1.21936e-05 0 -0.000532278 0 0)
(0.00126457 -1.24835e-05 0 -0.000540932 0 0)
(0.00128591 -1.69065e-05 0 -0.000549911 0 0)
(0.00130818 -1.13852e-05 0 -0.000559285 0 0)
(0.00133507 -1.03373e-05 0 -0.000571554 0 0)
(0.0013568 -1.30969e-05 0 -0.000577623 -2.71051e-19 0)
(0.00138491 -1.24475e-05 0 -0.000592008 0 0)
(0.00140759 -1.52713e-05 0 -0.000597906 0 0)
(0.00143689 -1.29524e-05 0 -0.000613501 0 0)
(0.00146236 -1.53087e-05 0 -0.000619777 0 0)
(0.00149191 -1.21774e-05 0 -0.000635575 0 0)
(0.00151617 -1.43779e-05 0 -0.000641686 0 0)
(0.00155088 -1.34307e-05 0 -0.000660686 0 0)
(0.00157577 -1.99558e-05 0 -0.000668683 0 0)
(0.00160654 -1.50629e-05 0 -0.000683133 0 0)
(0.00163208 -1.71128e-05 0 -0.000687234 0 0)
(0.00166368 -1.6522e-05 0 -0.000706084 0 0)
(0.00168727 -1.7587e-05 0 -0.000713209 0 0)
(0.00172091 -1.18014e-05 0 -0.000731032 0 0)
(0.001748 -1.35162e-05 0 -0.00074094 0 0)
(0.00176845 -1.60018e-05 0 -0.00074398 0 0)
(0.00180093 -1.11743e-05 0 -0.00076301 0 0)
(0.00181932 -1.57689e-05 0 -0.000765559 0 0)
(0.00184033 -1.39118e-05 0 -0.000777223 0 0)
(0.0018674 -6.7697e-06 0 -0.000789073 0 0)
(0.00188415 -1.51565e-05 0 -0.000795975 0 0)
(0.00189322 -8.19875e-06 0 -0.000796489 0 0)
(0.00191515 -1.96771e-06 0 -0.00080824 0 0)
(0.00192242 -9.21761e-06 0 -0.000809091 0 0)
(0.00192851 -3.68977e-07 0 -0.00081264 0 0)
(0.00193437 -4.54281e-07 0 -0.000814286 0 0)
(0.00193867 6.1525e-06 0 -0.000816961 0 0)
(0.00193619 -2.21548e-06 0 -0.000816912 0 0)
(0.00192084 3.36063e-06 0 -0.000813817 0 0)
(0.00190525 1.11637e-05 0 -0.000804277 0 0)
(0.00188294 1.45521e-05 0 -0.000785902 0 0)
(0.00186515 1.62664e-05 0 -0.000789267 0 0)
(0.00184695 1.93818e-05 -5.42101e-19 -0.000794767 0 0)
(0.00180357 1.86265e-05 0 -0.000759625 0 0)
(0.00176437 2.25908e-05 0 -0.000747985 0 0)
(0.00172561 2.53712e-05 0 -0.000737073 0 0)
(0.00167258 3.01345e-05 0 -0.000714728 0 0)
(0.00161907 3.38988e-05 0 -0.000695831 0 0)
(0.00155378 3.49799e-05 0 -0.000664865 0 0)
(0.0015002 4.12476e-05 0 -0.000650034 0 0)
(0.00143551 3.66497e-05 0 -0.000621456 0 0)
(0.00135913 3.80958e-05 0 -0.00059011 0 0)
(0.00130111 4.9054e-05 0 -0.0005739 0 0)
(0.00122722 3.83714e-05 0 -0.00053901 0 0)
(0.0011473 3.36982e-05 0 -0.000507792 0 0)
(0.00109112 4.51279e-05 0 -0.000495829 0 0)
(0.0010327 4.10802e-05 -1.35525e-19 -0.000466982 0 0)
(0.000956269 2.69401e-05 0 -0.000433175 0 0)
(0.000908265 4.27631e-05 0 -0.000420056 0 0)
(0.000874021 2.55445e-05 0 -0.000410844 0 0)
(0.00080549 1.27634e-05 0 -0.000373238 0 0)
(0.000785273 2.99597e-05 -3.38813e-20 -0.000374037 0 0)
(0.000750864 -5.47698e-06 3.38813e-20 -0.000351978 0 0)
(0.000728795 1.46092e-05 5.0822e-20 -0.000340479 0 0)
(0.000883371 2.36888e-05 0 -0.000383758 0 0)
(0.000995962 1.34237e-05 0 -0.000406527 0 0)
(0.00110851 3.31574e-05 0 -0.000436195 0 0)
(0.00121816 3.02988e-05 0 -0.00046532 0 0)
(0.00132479 4.27339e-05 0 -0.00048836 0 0)
(0.00141728 3.40083e-05 0 -0.000504258 0 0)
(0.00150346 2.99611e-05 0 -0.000508572 0 0)
(0.00157823 3.54206e-05 0 -0.000503783 0 0)
(0.00167846 4.81844e-05 0 -0.00052 0 0)
(0.00177441 3.14081e-05 0 -0.000531284 0 0)
(0.00188115 3.05884e-05 0 -0.000537436 0 0)
(0.002001 4.26428e-05 0 -0.000559608 1.0842e-18 0)
(0.0021291 4.34794e-05 0 -0.000591715 0 0)
(0.00231126 4.67065e-05 0 -0.000640606 0 0)
(0.00251993 5.05876e-05 0 -0.000726703 -1.0842e-18 0)
(0.00278234 3.31817e-05 0 -0.000855257 -2.1684e-18 0)
(0.00315788 1.14442e-05 0 -0.00102471 -6.50521e-18 0)
(0.00359277 2.30866e-06 0 -0.00135503 -1.95156e-17 0)
(0.00411266 6.76484e-06 0 -0.00184577 8.67362e-18 0)
(0.00488466 -0.000415454 7.04731e-18 -0.00258648 -3.25261e-18 0)
(0.00461583 -0.000813551 -1.00289e-17 -0.00227287 4.11997e-17 0)
(0.00418989 -0.000975532 -3.49655e-17 -0.00180589 4.22839e-17 0)
(0.00376285 -0.0010952 -3.79471e-18 -0.00142626 -1.95156e-17 0)
(0.00354451 -0.00118418 3.68629e-17 -0.00133945 -1.30104e-17 0)
(0.00319946 -0.00140223 1.51788e-17 -0.00107639 -2.1684e-18 0)
(0.00280978 -0.00140069 9.21572e-18 -0.000846973 -1.0842e-18 0)
(0.00256541 -0.00141772 5.42101e-18 -0.000721323 -1.0842e-18 0)
(0.00223858 -0.00149937 3.79471e-18 -0.000541384 0 0)
(0.00187429 -0.00140458 2.1684e-18 -0.000360715 0 0)
(0.00158917 -0.00132022 1.0842e-18 -0.000239988 0 0)
(0.00125945 -0.00119613 1.0842e-18 -9.5696e-05 0 0)
(0.000991449 -0.00104763 1.0842e-18 -3.37058e-05 0 0)
(0.000743396 -0.000914547 0 3.98623e-05 0 0)
(0.000583635 -0.000722652 0 2.61582e-05 0 0)
(0.000397739 -0.000539864 0 3.98301e-05 0 0)
(0.000290438 -0.000378766 0 -1.93486e-05 0 0)
(0.000138899 -0.000199462 1.0842e-18 -1.86609e-05 0 0)
(7.01815e-05 -1.35803e-05 0 -0.000119111 0 0)
(8.4042e-05 9.42453e-05 0 -0.000280352 0 0)
(9.54131e-05 0.000227146 0 -0.000407534 0 0)
(0.000131007 0.000338977 0 -0.000572403 0 0)
(0.000178812 0.000359031 0 -0.000740007 0 0)
(0.000251228 0.000448095 0 -0.000890629 0 0)
(0.000303387 0.000470971 0 -0.00104257 0 0)
(0.000392802 0.00048362 0 -0.00121936 0 0)
(0.000475786 0.00038403 0 -0.00136724 0 0)
(0.000508635 0.000371182 0 -0.00145756 0 0)
(0.0005763 0.000271399 0 -0.00156325 0 0)
(0.000620407 0.00022881 0 -0.0016241 -6.77626e-20 0)
(0.000609642 0.000118869 0 -0.00167166 0 0)
(0.00114236 -0.000441775 0 -0.000597451 0 0)
(0.000993592 -0.000303513 0 -0.000355268 0 0)
(0.00173981 -2.14187e-05 0 -0.000955247 0 0)
(0.00105645 -0.000172538 0 -0.000400311 0 0)
(0.000930921 -0.000162879 0 -0.000265029 0 0)
(0.001242 -0.000334894 0 -0.000531816 0 0)
(0.000776462 -0.000354829 0 -0.000275269 0 0)
(0.00189911 0.000326998 0 -0.000818281 0 0)
(0.00064714 -0.000486527 0 -0.000499072 0 0)
(0.0015705 -0.000166732 0 -0.000755973 0 0)
(0.00116588 -0.000229947 0 -0.000474681 0 0)
(0.000836082 -0.000202149 0 -0.000233554 -3.38813e-20 0)
(0.0012657 -0.000437069 0 -0.000857043 0 0)
(0.000570343 -0.000358306 0 -0.000248783 0 0)
(0.000985692 -0.000139904 0 -0.000314335 0 0)
(0.00149542 -0.000220906 0 -0.000662072 0 0)
(0.00103037 -0.000414616 0 -0.000442716 0 0)
(0.000919313 -7.14053e-05 0 -0.000210342 0 0)
(0.00105784 -7.04686e-05 0 -0.00042794 0 0)
(0.000991852 -0.000231863 0 -0.000338302 0 0)
(0.00174607 0.000263428 0 -0.000822888 0 0)
(0.0019005 -6.66541e-05 0 -0.000963384 0 0)
(0.00130895 -0.000217654 0 -0.000553823 0 0)
(0.000709786 -0.00019913 0 -0.000186575 0 0)
(0.00172016 4.77236e-05 0 -0.000809 0 0)
(0.00143169 -0.000333046 0 -0.000827214 0 0)
(0.00113939 -0.000138644 0 -0.000471162 0 0)
(0.000865504 -0.00011455 0 -0.000222496 0 0)
(0.00113067 -0.000318208 0 -0.00045107 0 0)
(0.000861831 -0.000303884 0 -0.000278596 0 0)
(0.00128545 -0.000355089 0 -0.000599509 0 0)
(0.0015173 0.000275527 -1.35525e-19 -0.000574726 0 0)
(0.000581506 -0.00022349 0 -0.000166781 0 0)
(0.000996714 -0.000365729 0 -0.000381328 0 0)
(0.00094999 -9.90671e-05 0 -0.000247842 0 0)
(0.00101971 -9.74663e-05 0 -0.000371143 0 0)
(0.000855117 -0.000447967 0 -0.000393048 0 0)
(0.00227603 8.66716e-05 -1.0842e-18 -0.000780941 -1.0842e-18 0)
(0.000333211 -0.000264499 0 -0.000569196 6.77626e-20 0)
(0.0014484 -0.000195078 0 -0.000621961 0 0)
(0.000375696 -0.000308743 0 -0.000265693 0 0)
(0.00106169 -0.00049795 0 -0.000658488 0 0)
(0.00106418 -0.00026228 0 -0.000401075 0 0)
(0.000922792 -0.000247338 0 -0.000290599 0 0)
(0.000694041 -0.000411712 0 -0.000683513 0 0)
(0.00160487 0.000338011 0 -0.000696027 0 0)
(0.00165672 -0.000117901 0 -0.000736757 0 0)
(0.00143256 -0.000385312 0 -0.000838275 0 0)
(0.00074413 -0.000479184 0 -0.000421254 0 0)
(0.00126785 -0.000157683 0 -0.000534471 0 0)
(0.000752146 -0.000122733 0 -0.000187576 0 0)
(0.00161905 -0.000124873 0 -0.00085505 0 0)
(0.00139237 -0.000320058 0 -0.000720259 0 0)
(0.00187377 0.000226156 0 -0.000927182 0 0)
(0.00216839 -0.00012794 5.42101e-19 -0.000866577 0 0)
(0.00110039 -7.81232e-05 0 -0.000460204 0 0)
(0.000893679 -6.87868e-05 0 -0.000214101 0 0)
(0.00110344 -0.000208109 0 -0.000434447 0 0)
(0.000892566 -0.00018479 0 -0.000253409 0 0)
(0.00173116 -3.12125e-05 0 -0.000768667 0 0)
(0.00100983 -0.000186354 0 -0.000349148 0 0)
(0.00164497 -0.000215406 0 -0.000983915 0 0)
(0.00120825 -0.000118972 0 -0.000510569 0 0)
(0.000808281 -9.16858e-05 0 -0.000201072 0 0)
(0.000468935 -0.000200958 0 -0.000154112 0 0)
(0.00173429 0.000149134 0 -0.000778908 0 0)
(0.000913655 -3.04504e-05 0 -0.000168559 -1.69407e-20 0)
(0.00104918 -1.92474e-05 0 -0.000440172 0 0)
(0.000967942 -0.000178498 0 -0.000302719 0 0)
(0.00184899 0.000235455 4.06576e-19 -0.000601044 0 0)
(0.000968071 -8.10747e-05 0 -0.000275615 0 0)
(0.00145649 -0.000259668 0 -0.000678787 0 0)
(0.000690174 -0.000370899 0 -0.000266827 0 0)
(0.000901921 -0.000390445 0 -0.000697437 0 0)
(0.00110922 -0.000377275 0 -0.000461047 0 0)
(0.000910881 -0.000387404 0 -0.000349858 0 0)
(0.000617697 -0.000138872 0 -0.000149758 0 0)
(0.00099422 -8.06187e-05 0 -0.000326814 0 0)
(0.0017541 0.000122268 0 -0.000878684 0 0)
(0.000961979 -0.000509666 0 -0.000705642 1.35525e-19 0)
(0.000931969 -5.94419e-05 0 -0.000200891 3.38813e-20 0)
(0.00103244 -5.54531e-05 0 -0.000403649 0 0)
(0.00107952 -0.000127606 0 -0.000429775 0 0)
(0.00091275 -0.0001161 0 -0.000235104 0 0)
(0.00104374 -0.000220741 0 -0.0003825 0 0)
(0.000944002 -0.000213501 0 -0.000293653 0 0)
(0.00134382 -0.00030614 0 -0.000595538 0 0)
(0.00157827 -0.000136923 0 -0.000680559 0 0)
(0.00113127 -0.000420336 0 -0.000534784 -1.35525e-19 0)
(0.00124198 -0.000295021 0 -0.000518842 0 0)
(0.000766459 -0.000285988 0 -0.000233447 0 0)
(0.00120892 -0.000260708 0 -0.000497303 0 0)
(0.000792807 -0.000233434 0 -0.000224823 0 0)
(0.00142772 -0.000143666 0 -0.000610146 0 0)
(0.00111439 -0.000282351 0 -0.000437506 0 0)
(0.000912174 -0.000285399 0 -0.000297557 0 0)
(0.00163554 0.000241911 0 -0.000722362 0 0)
(0.000246668 -0.000212828 0 -0.000343342 0 0)
(0.00100203 -0.000269716 0 -0.000353542 0 0)
(0.000370235 -0.00019462 0 -0.00017398 0 0)
(0.00127823 -0.000433483 0 -0.000816033 0 0)
(0.00138877 0.0002534 0 -0.000581103 0 0)
(0.00104216 -0.000335723 0 -0.000398926 0 0)
(0.001642 -0.000444158 1.0842e-18 -0.000741468 0 0)
(0.000686649 -0.000100316 0 -0.000161482 0 0)
(0.000950265 -0.00033134 0 -0.000335375 0 0)
(0.000910246 -3.94469e-05 0 -0.000198016 -1.69407e-20 0)
(0.00106942 -3.63544e-05 0 -0.000450647 0 0)
(0.00126092 0.000148875 0 -0.000500373 0 0)
(0.00119873 -0.000372118 0 -0.000527121 0 0)
(0.00200708 0.000153133 0 -0.000914837 -5.42101e-19 0)
(0.000940401 -0.00048103 0 -0.000499906 0 0)
(0.00102539 -0.00014801 0 -0.000368084 0 0)
(0.000858202 -0.000410769 0 -0.000349666 0 0)
(0.001836 2.61752e-05 0 -0.000995203 0 0)
(0.00158692 -0.000221412 0 -0.000926546 0 0)
(0.00178006 0.000343877 0 -0.000817453 0 0)
(0.000676892 -0.000249175 0 -0.000193647 0 0)
(0.00123957 -0.000427354 0 -0.000709134 0 0)
(0.00135765 -0.00011983 0 -0.000580367 0 0)
(0.000936642 -0.00012584 0 -0.00025035 0 0)
(0.000402179 -0.000181854 0 -0.000711012 0 0)
(0.00166584 -0.000105587 0 -0.000721711 0 0)
(0.00165492 -6.61091e-05 0 -0.000807208 0 0)
(0.00178128 3.6854e-05 0 -0.000784845 0 0)
(0.00114023 -7.19376e-05 0 -0.000483508 0 0)
(0.000863865 -5.74286e-05 0 -0.000210247 -1.69407e-20 0)
(0.00133283 -0.000269127 0 -0.000570561 0 0)
(0.00104793 -0.000111101 0 -0.00040429 0 0)
(0.000557754 -0.000431548 0 -0.000357772 0 0)
(0.00167284 0.000363485 0 -0.0006904 0 0)
(0.00116776 -0.000176286 0 -0.000482238 0 0)
(0.000838769 -0.000146713 0 -0.000220729 0 0)
(0.000962909 -0.000137342 0 -0.000282958 0 0)
(0.00114797 -0.000345404 0 -0.000469659 0 0)
(0.000854962 -0.000342856 0 -0.000295417 0 0)
(0.00286424 -0.000162753 -3.52366e-18 -0.000955702 -1.0842e-18 0)
(0.0019326 0.000296052 2.71051e-19 -0.000712614 -1.0842e-18 0)
(0.000409839 -0.000368015 0 -0.00042777 0 0)
(0.00126525 -0.000382511 0 -0.000628575 0 0)
(0.000314622 -3.62178e-05 0 -0.000845922 0 0)
(0.000537026 -0.000417823 0 -0.000569015 0 0)
(0.000986487 -0.000442065 0 -0.000450537 0 0)
(0.00257604 -0.000395281 -2.1684e-18 -0.000908502 0 0)
(0.000507729 -0.000116335 0 -0.000129632 0 0)
(0.00155224 0.00018031 0 -0.000543436 0 0)
(0.00109911 -0.000160608 0 -0.000437876 0 0)
(0.000897534 -0.000144894 0 -0.000242204 0 0)
(0.000714378 -0.000435453 0 -0.000342664 0 0)
(0.00181585 0.000133518 0 -0.000940295 0 0)
(0.00142116 -0.000248751 0 -0.000616021 2.71051e-19 0)
(0.000584442 -0.000304536 0 -0.000206853 0 0)
(0.000829312 -0.000510733 0 -0.000532753 -6.77626e-20 0)
(0.000949992 -5.87752e-05 0 -0.000235487 0 0)
(0.000852736 -0.000254316 0 -0.000256783 0 0)
(0.00209609 0.000173235 0 -0.000837319 0 0)
(0.00100695 -5.60156e-05 0 -0.000359005 0 0)
(0.00067189 -0.000308144 0 -0.000219766 0 0)
(0.00150634 -0.000246786 0 -0.000811845 0 0)
(0.00105158 -0.000292564 0 -0.000393319 0 0)