/*--------------------------------*- C++ -*----------------------------------*\
| =========                 |                                                 |
| \\      /  F ield         | OpenFOAM: The Open Source CFD Toolbox           |
|  \\    /   O peration     | Version:  v2012                                 |
|   \\  /    A nd           | Website:  www.openfoam.com                      |
|    \\/     M anipulation  |                                                 |
\*---------------------------------------------------------------------------*/
FoamFile
{
    version     2.0;
    format      ascii;
    class       volVectorField;
    location    "8";
    object      D;
}
// * * * * * * * * * * * * * * * * * * * * * * * * * * * * * * * * * * * * * //

dimensions      [0 1 0 0 0 0 0];


internalField   nonuniform List<vector> 
1896
(
(0.00394511 -4.70261e-05 0)
(0.00368818 -0.000282996 0)
(0.00386271 -1.58904e-05 0)
(0.000955044 -0.00136761 0)
(0.00389094 -4.43374e-05 0)
(0.00385475 -4.84626e-05 0)
(0.00086585 -0.00143985 0)
(0.00359672 -4.77425e-05 0)
(0.0025461 -0.000226738 0)
(0.00357957 -3.25516e-05 0)
(0.00399604 -7.32229e-06 0)
(0.00312456 -3.18022e-05 0)
(0.00324246 -2.12593e-05 0)
(0.00315185 -2.68452e-05 0)
(0.00104407 -0.00125346 0)
(0.000331735 -0.00184276 0)
(0.00322485 -0.000352015 0)
(0.000753659 -0.00161952 0)
(0.00300552 -0.000307127 0)
(0.00198662 -0.000986005 0)
(0.00290572 -0.000267248 0)
(0.00358647 -0.000206297 0)
(0.00155967 -0.00074571 0)
(0.00147501 -0.000801441 0)
(0.00355838 -0.000288648 0)
(0.00359863 -0.000275472 0)
(0.00324425 -1.47802e-05 0)
(0.00330016 -1.66385e-05 0)
(0.00396794 -4.04371e-05 0)
(0.00268035 -0.000304507 0)
(0.0027341 -0.000290881 0)
(0.00367074 -0.000344106 0)
(0.00307216 -2.47317e-05 0)
(0.00369628 -0.000293394 0)
(0.00210093 -0.000559935 0)
(0.00404078 -4.52007e-05 0)
(0.00282274 -0.000283505 0)
(0.00385526 -0.000179845 0)
(0.000649713 -0.00167557 0)
(0.00259685 -0.000312223 0)
(0.00363326 -0.000389614 0)
(0.00154129 -0.00114144 0)
(0.00282686 -0.000182315 0)
(0.00173549 -0.000701529 0)
(0.00329171 -1.17915e-05 0)
(0.00326371 -1.00286e-05 0)
(0.000941662 -0.00134576 0)
(0.00399707 -1.93412e-05 0)
(0.00157608 -0.000770929 0)
(0.000829876 -0.00141824 0)
(0.00384843 -2.2778e-05 0)
(0.00369695 -5.03241e-05 0)
(0.00366523 -4.75097e-05 0)
(0.00360505 -0.000211309 0)
(0.00249971 -0.000239523 0)
(0.00341736 -0.000417085 0)
(0.00216027 -0.00039782 0)
(0.00401368 -5.44422e-05 0)
(0.00393577 -0.000144739 0)
(0.00282575 -0.000451284 0)
(0.00360617 -3.89528e-05 0)
(0.00090828 -0.00134285 0)
(0.000957895 -0.00128291 0)
(0.00374439 -9.93954e-05 0)
(0.00210463 -0.000991408 0)
(0.00363531 -0.000377154 0)
(0.00184246 -0.00059309 0)
(0.00302231 -6.1748e-05 0)
(0.00381466 -0.000167331 0)
(0.00178726 -0.000628965 0)
(0.00313154 -7.09506e-06 0)
(0.00111693 -0.0011373 0)
(0.00381836 -0.000175557 0)
(0.00345094 -0.000419989 0)
(0.00204254 -0.000590646 0)
(0.00363898 -0.00027452 0)
(0.00364186 -0.000289484 0)
(0.00386588 -0.000100302 0)
(0.0038384 -0.000109877 0)
(0.00329828 -0.000171211 0)
(0.00165357 -0.00111572 0)
(0.00159983 -0.000724988 0)
(0.00340002 -1.31957e-05 0)
(0.0034435 -5.45156e-05 0)
(0.00346501 -4.82251e-05 0)
(0.00318813 -0.00023284 0)
(0.00312283 -8.99469e-05 0)
(0.00311692 -8.13748e-05 0)
(0.00225605 -0.000356209 0)
(0.00292177 -0.00012961 0)
(0.00329105 -0.000116007 0)
(0.000231255 -0.00158306 0)
(0.00275094 -0.000128089 0)
(0.00114388 -0.00137407 0)
(0.00141699 -0.000839135 0)
(0.00356477 -0.000248353 0)
(0.00386402 -0.000224585 0)
(0.00409911 -2.7197e-05 0)
(0.00385101 -0.00025302 0)
(0.00291593 -9.6945e-05 0)
(0.00290395 -0.000107206 0)
(0.00301517 -6.0322e-05 0)
(0.00373786 -9.2047e-05 0)
(0.00271421 -0.000140321 0)
(0.00250339 -0.000220909 0)
(0.00285621 -0.00016442 0)
(0.00322834 -0.00023135 0)
(0.00155092 -0.000875484 0)
(0.00176002 -0.000615119 0)
(9.74191e-05 -0.0016539 0)
(0.00410697 -2.87617e-05 0)
(0.0038774 -0.000234543 0)
(0.00196278 -0.000494559 0)
(0.00220455 -0.000368866 0)
(0.00097764 -0.00158685 0)
(0.00308633 -0.000101127 0)
(0.00344325 -6.91203e-06 0)
(0.00313763 -0.000117799 0)
(0.00182188 -0.000790509 0)
(0.00276768 -0.000301264 0)
(0.00174372 -0.000815539 0)
(0.00254399 -0.000235423 0)
(0.00382003 -0.000194858 0)
(0.00340637 -3.22646e-05 0)
(0.00340563 -2.75041e-05 0)
(0.00227183 -0.000357384 0)
(0.00159032 -0.000823944 0)
(0.00356244 -5.00231e-05 0)
(0.00298691 -0.000387439 0)
(0.00282045 -0.00011773 0)
(0.00278438 -0.000126978 0)
(0.00328791 -0.000125979 0)
(0.001896 -0.000532512 0)
(0.001252 -0.00133841 0)
(0.0030432 -0.000309865 0)
(0.000935214 -0.00129097 0)
(0.00126396 -0.00114009 0)
(0.00115264 -0.0012212 0)
(0.00367876 -0.000357441 0)
(0.00241133 -0.000331354 0)
(0.00373815 -0.000189678 0)
(0.00178191 -0.000637404 0)
(0.00256619 -0.000310625 0)
(0.000328574 -0.00190998 0)
(0.00340382 -8.77905e-05 0)
(0.00326646 -0.000286239 0)
(0.00331783 -0.00028259 0)
(0.00294935 -0.000381203 0)
(0.00138039 -0.000871328 0)
(0.00313561 -0.000108325 0)
(0.00325943 -2.36245e-05 0)
(0.00381458 -0.000235563 0)
(0.00371515 -0.000188369 0)
(0.00372648 -0.000125417 0)
(0.00366405 -0.000127 0)
(0.00201277 -0.000466123 0)
(0.0034185 -7.02169e-06 0)
(0.00200492 -0.000473801 0)
(0.000884758 -0.00160244 0)
(0.00371807 -3.06609e-05 0)
(0.00372598 -4.49036e-05 0)
(0.0018021 -0.000670924 0)
(0.00250171 -0.000265298 0)
(0.00391167 -0.000138182 0)
(0.000236251 -0.00192212 0)
(0.00355165 -3.46434e-05 0)
(3.26292e-05 -0.00208726 0)
(0.00402032 -4.45358e-05 0)
(0.00403128 -3.85469e-05 0)
(0.00377414 -0.000255279 0)
(0.0037795 -0.000266992 0)
(0.00359341 -0.000371032 0)
(0.00305446 -3.13635e-05 0)
(0.00307292 -2.83806e-05 0)
(0.00111628 -0.00123465 0)
(0.00103139 -0.00129826 0)
(0.00146836 -0.000840876 0)
(0.00356135 -0.000261248 0)
(0.00401551 -1.35332e-05 0)
(0.00261053 -0.000178779 0)
(0.00305299 -3.16473e-05 0)
(0.00281888 -0.000412333 0)
(0.00374707 -0.000130078 0)
(0.00145061 -0.000845587 0)
(0.00106763 -0.001246 0)
(0.0001772 -0.00193794 0)
(0.00297845 -9.37005e-05 0)
(0.000502814 -0.00174558 0)
(0.0029773 -6.94437e-05 0)
(0.00293631 -9.80571e-05 0)
(0.00130915 -0.00108234 0)
(0.00401717 -2.36233e-05 0)
(0.00184711 -0.00059929 0)
(0.000901051 -0.00121139 0)
(0.00188598 -0.00103637 0)
(0.00303614 -4.50892e-05 0)
(0.0028655 -0.000182255 0)
(0.00182464 -0.000641912 0)
(0.00306397 -4.02007e-05 0)
(0.00340246 -1.8146e-05 0)
(0.00308694 -8.02936e-05 0)
(0.00176176 -0.00102659 0)
(0.00400026 -2.90096e-05 0)
(0.00368347 -0.000133556 0)
(0.000541836 -0.00171941 0)
(0.0036864 -0.000114988 0)
(0.00164747 -0.000721031 0)
(0.00220585 -0.00046659 0)
(0.00299587 -3.21235e-05 0)
(0.00341135 -0.000404529 0)
(0.00186932 -0.000639187 0)
(0.00286373 -0.00028621 0)
(0.0034021 -0.000330516 0)
(0.00341603 -0.000342642 0)
(0.00313144 -4.09388e-05 0)
(0.00264405 -0.000162906 0)
(0.00178777 -0.000946067 0)
(0.00248248 -0.000452203 0)
(0.00254289 -0.000441218 0)
(0.00265123 -0.000295335 0)
(0.00290203 -0.000122117 0)
(0.0036215 -0.000132557 0)
(0.00112004 -0.00104171 0)
(0.00169902 -0.000654795 0)
(0.00390072 -0.000203945 0)
(0.00247042 -0.000309766 0)
(0.0012871 -0.00115827 0)
(0.00333305 -0.000253255 0)
(0.000162951 -0.00202974 0)
(0.00370897 -0.000323534 0)
(0.000148428 -0.00205219 0)
(0.00366577 -4.06773e-05 0)
(0.00368897 -3.21823e-05 0)
(0.00412923 -1.44832e-05 0)
(0.0038462 -0.000290422 0)
(0.00361829 -7.77649e-05 0)
(0.00305837 -5.6528e-05 0)
(0.00172449 -0.000772501 0)
(0.000312561 -0.00190676 0)
(0.00287059 -0.000446937 0)
(0.00138423 -0.0011048 0)
(0.00153709 -0.000850181 0)
(0.00313431 -4.5883e-05 0)
(0.000365519 -0.00186469 0)
(0.00360175 -0.000194826 0)
(0.00308781 -3.41855e-05 0)
(0.00397174 -0.000128617 0)
(0.00311458 -2.92497e-05 0)
(0.00312354 -2.28947e-05 0)
(0.00226323 -0.000442755 0)
(0.0022044 -0.00057501 0)
(0.00277559 -0.000197848 0)
(0.00370225 -0.000312922 0)
(0.00407361 -1.31045e-05 0)
(0.0037605 -0.000334025 0)
(0.00353413 -0.000157448 0)
(0.00284708 -9.81325e-05 0)
(0.000391128 -0.00185668 0)
(0.00104254 -0.00121029 0)
(0.00211298 -0.000528762 0)
(0.00302339 -0.000410576 0)
(0.00286367 -0.000292377 0)
(0.00284618 -0.000265148 0)
(0.00311167 -6.43093e-05 0)
(0.00319047 -0.000367815 0)
(0.0024331 -0.000251553 0)
(5.15996e-05 -0.00209532 0)
(0.00287814 -9.49399e-05 0)
(0.00279669 -0.000432881 0)
(0.00355585 -0.000147081 0)
(0.00289452 -9.77403e-05 0)
(0.00304025 -2.08194e-05 0)
(0.000861533 -0.00125569 0)
(0.00316332 -1.86942e-05 0)
(0.00321783 -0.000333792 0)
(0.00289642 -7.96542e-05 0)
(0.00180993 -0.000585657 0)
(0.00401196 -8.33657e-05 0)
(0.00343372 -0.000156994 0)
(0.00396421 -7.88699e-06 0)
(0.00359337 -0.000382527 0)
(0.00216238 -0.000471112 0)
(0.00297321 -5.36085e-05 0)
(0.00366513 -0.000389222 0)
(0.00336015 -0.000241387 0)
(0.000380431 -0.00182651 0)
(0.00320564 -0.000188227 0)
(0.0030916 -0.000110726 0)
(0.00327931 -0.000162476 0)
(0.00401707 -2.91801e-06 0)
(0.0002628 -0.00190807 0)
(0.00295744 -0.00028821 0)
(0.00284504 -0.000261587 0)
(0.0031659 -0.000200905 0)
(5.0527e-05 -0.00199156 0)
(0.00314462 -3.71713e-06 0)
(0.000354645 -0.00178974 0)
(0.00305568 -8.85206e-05 0)
(0.00051223 -0.00174914 0)
(0.00279813 -0.000222162 0)
(0.000484577 -0.00177514 0)
(0.00281887 -0.00025678 0)
(0.00135251 -0.000896026 0)
(0.000857425 -0.00142949 0)
(0.00363838 -0.000167046 0)
(0.0035071 -8.85262e-05 0)
(0.00347327 -8.86115e-05 0)
(0.00300825 -4.10615e-05 0)
(0.00301647 -4.04519e-05 0)
(0.00347499 -0.000151879 0)
(0.00389045 -0.000138555 0)
(0.00295245 -0.000129207 0)
(0.00310658 -2.41857e-05 0)
(0.0040675 -3.11116e-05 0)
(0.00381212 -0.000264721 0)
(0.00296409 -0.000365233 0)
(0.00355017 -3.35667e-06 0)
(0.0038585 -0.000167528 0)
(0.00273849 -0.00020103 0)
(0.00386222 -0.000132993 0)
(0.00337018 -8.90524e-05 0)
(0.00069163 -0.00148866 0)
(0.00061641 -0.00155964 0)
(0.00263001 -0.000204822 0)
(0.00293107 -6.74815e-05 0)
(0.00290496 -0.000152731 0)
(0.0027368 -0.000192801 0)
(0.00299623 -4.66064e-05 0)
(0.00390877 -6.80347e-05 0)
(0.0037296 -0.000242845 0)
(0.0029449 -0.000153004 0)
(0.00306256 -0.000449705 0)
(0.00407799 -1.5946e-05 0)
(0.00377619 -0.000317613 0)
(0.00358322 -2.48207e-05 0)
(0.00294037 -0.000201114 0)
(0.00309788 -4.50664e-05 0)
(0.00133399 -0.000901216 0)
(0.00391091 -6.1896e-05 0)
(0.00371272 -0.000255807 0)
(0.00246926 -0.00024785 0)
(0.0028684 -0.000222139 0)
(0.00256783 -0.000263796 0)
(0.00253961 -0.000206195 0)
(0.00329632 -2.64022e-05 0)
(0.00296111 -0.000324726 0)
(0.00296568 -0.000269576 0)
(0.00104591 -0.00143947 0)
(0.00300277 -9.31928e-05 0)
(0.0029491 -0.000158621 0)
(0.0029361 -8.26798e-05 0)
(0.00388014 -7.67677e-05 0)
(0.00222252 -0.000423198 0)
(0.00313591 -0.000199707 0)
(0.00314405 -0.000331784 0)
(0.00291732 -0.000328169 0)
(0.00244108 -0.000750001 0)
(0.000729365 -0.00159864 0)
(0.0030372 -0.00010666 0)
(0.00178977 -0.000747916 0)
(0.00225457 -0.000389863 0)
(8.49767e-05 -0.00200411 0)
(0.000644712 -0.00165951 0)
(0.00274502 -0.000269542 0)
(0.00366906 -0.000248332 0)
(0.00325604 -0.000317673 0)
(0.0022559 -0.000368644 0)
(0.00231059 -0.000349933 0)
(0.00315047 -0.000153915 0)
(0.000101891 -0.00210045 0)
(0.000913231 -0.00135833 0)
(0.00316921 -2.27921e-05 0)
(0.00411628 -1.32032e-05 0)
(0.00382062 -0.000307194 0)
(0.00367051 -0.000261634 0)
(0.00279166 -0.000111246 0)
(0.000895958 -0.00158778 0)
(0.00218307 -0.000395989 0)
(0.00317728 -9.50903e-05 0)
(0.00302987 -9.9715e-05 0)
(0.00308667 -7.26994e-05 0)
(0.00372028 -0.000350312 0)
(0.002845 -0.000136544 0)
(0.00384633 -0.000130166 0)
(0.00282819 -9.95141e-05 0)
(0.00404201 -7.21996e-05 0)
(0.000531913 -0.00173989 0)
(0.0037005 -0.00023929 0)
(0.00404776 -1.14507e-05 0)
(0.00053314 -0.00173083 0)
(0.00354633 -5.69186e-05 0)
(0.00388705 -5.89001e-05 0)
(0.000545798 -0.00156218 0)
(0.00128276 -0.00142247 0)
(0.00361954 -9.15592e-05 0)
(0.00290123 -9.62491e-05 0)
(0.00268071 -0.000372979 0)
(0.00225134 -0.00039921 0)
(0.00351902 -0.000185863 0)
(0.00351532 -0.000176879 0)
(0.00313301 -0.000168211 0)
(0.00013189 -0.00207704 0)
(0.00300948 -0.000427995 0)
(0.00312534 -4.14219e-06 0)
(0.00267375 -0.000360126 0)
(0.00234706 -0.000378078 0)
(0.0032726 -0.000184556 0)
(0.00116122 -0.0010182 0)
(0.0031782 -1.48051e-05 0)
(0.000420836 -0.0017241 0)
(0.00264582 -0.000179806 0)
(0.00335531 -3.86175e-05 0)
(0.0033351 -3.5171e-05 0)
(0.000343877 -0.00190115 0)
(0.00229866 -0.000402698 0)
(0.00230334 -0.000414794 0)
(0.00360414 -0.000124736 0)
(0.000104081 -0.00192645 0)
(0.00259994 -0.000197774 0)
(0.00349695 -7.18699e-05 0)
(0.0023855 -0.000285087 0)
(0.00412711 -6.40656e-06 0)
(0.00381211 -0.000335135 0)
(0.00115303 -0.00117414 0)
(0.0025 -0.000309957 0)
(0.00294297 -0.000116521 0)
(0.00285824 -0.000137774 0)
(0.00279162 -0.000470321 0)
(0.000955317 -0.00139648 0)
(0.00087675 -0.00146493 0)
(0.00266372 -0.000375762 0)
(0.0022751 -0.000414614 0)
(0.00267885 -0.000193932 0)
(0.00341863 -0.000271546 0)
(0.00234069 -0.000309229 0)
(0.00237121 -0.0002913 0)
(0.0035639 -0.000370382 0)
(6.4344e-05 -0.00191161 0)
(0.00207626 -0.000557078 0)
(0.00389852 -0.000151194 0)
(0.00214554 -0.000508135 0)
(0.00274223 -0.000401588 0)
(0.00362909 -0.000115298 0)
(0.000304604 -0.0019204 0)
(0.0040985 -8.17617e-06 0)
(0.00378185 -0.000339732 0)
(0.00345075 -0.000110162 0)
(0.00364848 -7.40911e-05 0)
(0.00405984 -5.87663e-05 0)
(0.00306442 -0.000399602 0)
(0.000887565 -0.00124999 0)
(0.00331501 -0.000225442 0)
(0.00330747 -0.000213695 0)
(0.00364785 -9.2293e-05 0)
(0.00323442 -0.000191199 0)
(0.00338408 -3.70136e-05 0)
(0.00362224 -0.000108169 0)
(0.00251642 -0.000229634 0)
(0.00273282 -0.000443743 0)
(0.00327727 -5.97073e-05 0)
(0.00158857 -0.000794998 0)
(0.00365965 -0.000171722 0)
(0.00238965 -0.000328996 0)
(0.00275054 -0.000324891 0)
(0.00292085 -0.000268005 0)
(0.000707878 -0.00144584 0)
(0.00236478 -0.000368876 0)
(0.00241653 -0.000358762 0)
(0.00392145 -1.77278e-05 0)
(0.0011702 -0.00147205 0)
(0.00382977 -7.38643e-05 0)
(0.00317654 -4.35361e-05 0)
(0.00328946 -0.000254831 0)
(0.00364419 -0.000185125 0)
(0.0037867 -0.000199563 0)
(0.0033353 -0.000107566 0)
(0.00272088 -0.000258895 0)
(0.00303658 -1.32166e-05 0)
(0.00360186 -0.000237992 0)
(4.6023e-05 -0.00211915 0)
(0.00320009 -0.000127849 0)
(0.0036082 -2.16629e-05 0)
(0.00337403 -0.000110218 0)
(0.00379942 -8.05141e-05 0)
(0.00316893 -8.64197e-05 0)
(0.00115932 -0.00101107 0)
(0.00316686 -4.13215e-05 0)
(0.00271904 -0.000391455 0)
(0.00322761 -0.000165393 0)
(0.00287698 -0.000405735 0)
(0.00230453 -0.000373262 0)
(0.00320087 -0.000174852 0)
(0.00298212 -0.000402478 0)
(0.00403594 -6.85073e-05 0)
(0.000707255 -0.00159864 0)
(0.000990711 -0.00149331 0)
(0.00338356 -0.000179227 0)
(0.00332835 -0.000297256 0)
(0.00327538 -3.13805e-05 0)
(0.00318197 -0.000326679 0)
(0.00376542 -0.000231371 0)
(0.00338983 -0.000201564 0)
(0.00330615 -6.11448e-05 0)
(0.00129862 -0.00134708 0)
(0.00390839 -5.01751e-05 0)
(0.00303224 -4.16624e-05 0)
(0.00338409 -2.2229e-05 0)
(0.00144572 -0.00122388 0)
(0.00274158 -0.000128582 0)
(0.00261532 -0.000448457 0)
(0.00272266 -0.000136068 0)
(0.00242768 -0.000259724 0)
(0.00328091 -2.17604e-06 0)
(0.003851 -7.86082e-05 0)
(0.000174472 -0.00202843 0)
(0.000456163 -0.00175445 0)
(0.00321717 -2.43598e-05 0)
(0.00335204 -0.000178191 0)
(0.00380139 -0.000104743 0)
(0.00377586 -0.000105447 0)
(0.00390121 -1.37325e-05 0)
(0.0038063 -0.000225632 0)
(0.000638245 -0.00148147 0)
(0.00375074 -4.82865e-05 0)
(0.00116229 -0.00103629 0)
(0.00297274 -8.20829e-05 0)
(0.00299821 -8.05511e-05 0)
(0.00119036 -0.00100779 0)
(0.00356354 -0.000184604 0)
(0.0035977 -0.000172815 0)
(0.00386382 -2.93189e-05 0)
(0.00365722 -0.000146254 0)
(0.00336336 -2.32221e-05 0)
(0.00275837 -0.000255647 0)
(0.00377665 -9.66212e-05 0)
(0.00333959 -2.95366e-05 0)
(0.00349785 -0.000404903 0)
(0.000131832 -0.00206954 0)
(0.00270899 -0.000530861 0)
(0.00216204 -0.000545335 0)
(0.00102857 -0.00151131 0)
(0.00306203 -7.3963e-06 0)
(0.00259251 -0.000265991 0)
(0.00332278 -7.18167e-05 0)
(0.00329993 -6.95019e-05 0)
(0.00285975 -0.00011903 0)
(0.00205454 -0.000502028 0)
(0.00315433 -5.03636e-05 0)
(0.0032143 -9.18278e-05 0)
(0.00348706 -0.000106553 0)
(0.00372548 -1.5996e-05 0)
(0.00130979 -0.000969675 0)
(0.00223042 -0.000356322 0)
(0.00241873 -0.000309391 0)
(0.00337528 -1.05692e-05 0)
(0.000343991 -0.00189968 0)
(0.00235848 -0.000331972 0)
(0.00212519 -0.000463851 0)
(0.00343062 -0.000194133 0)
(0.000481507 -0.00168526 0)
(0.000515643 -0.00161265 0)
(0.00348002 -0.0001735 0)
(0.00333179 -0.000391931 0)
(0.00049124 -0.00173897 0)
(0.00388736 -0.000172753 0)
(0.00025109 -0.00192255 0)
(0.00326202 -2.92831e-06 0)
(0.00325442 -0.000271779 0)
(0.00172785 -0.000937224 0)
(0.00317068 -0.00011697 0)
(0.00273954 -0.000127767 0)
(0.00308573 -3.03178e-05 0)
(0.00302816 -3.71697e-05 0)
(0.000747157 -0.00165184 0)
(0.00160996 -0.000987677 0)
(0.00115441 -0.00108627 0)
(0.00391917 -8.02501e-05 0)
(0.00263115 -0.000197788 0)
(0.00256924 -0.000454673 0)
(0.00360849 -8.57349e-05 0)
(0.00288114 -9.46979e-05 0)
(0.00207797 -0.000527624 0)
(0.00346815 -0.000265441 0)
(0.00281751 -0.000103424 0)
(0.00213497 -0.000396421 0)
(0.00227463 -0.000338546 0)
(0.00310018 -1.07792e-05 0)
(0.00307318 -1.89807e-05 0)
(0.0030089 -5.59391e-05 0)
(0.00171088 -0.000693325 0)
(0.00110427 -0.00113557 0)
(0.000686389 -0.00159765 0)
(0.00208228 -0.000444223 0)
(0.00308091 -1.87064e-05 0)
(0.000613629 -0.00166399 0)
(0.00333824 -3.92413e-06 0)
(0.00344588 -0.000179413 0)
(0.00247472 -0.000334447 0)
(0.00213389 -0.000450189 0)
(0.00293816 -0.000103688 0)
(0.00270718 -0.00044137 0)
(0.0004578 -0.00178435 0)
(1.8397e-05 -0.00211804 0)
(8.69216e-05 -0.00196743 0)
(0.0014096 -0.00100745 0)
(0.000784077 -0.00147216 0)
(0.00217928 -0.000496856 0)
(0.00222764 -0.000491265 0)
(0.00352521 -5.44748e-06 0)
(0.00390403 -3.64882e-05 0)
(0.00350678 -0.00012141 0)
(0.00345749 -2.59776e-06 0)
(0.00348871 -6.32968e-05 0)
(0.000184884 -0.00192528 0)
(0.00302354 -4.0979e-05 0)
(0.00392981 -0.000155589 0)
(0.00314259 -6.16772e-05 0)
(0.000622225 -0.00166538 0)
(0.00206913 -0.000432949 0)
(0.00319872 -2.5086e-05 0)
(0.00306524 -2.33344e-05 0)
(0.00233745 -0.000475848 0)
(0.00278184 -0.000148417 0)
(0.0010225 -0.00115097 0)
(0.00299159 -7.05173e-05 0)
(0.00359816 -0.000143409 0)
(0.000948018 -0.001211 0)
(0.00110992 -0.00117011 0)
(0.00303898 -4.05409e-05 0)
(0.00344001 -0.00021663 0)
(0.00314075 -1.88067e-05 0)
(0.000619619 -0.00171738 0)
(0.00314419 -0.000369924 0)
(0.00181928 -0.000584426 0)
(0.00205645 -0.000601202 0)
(0.00386431 -0.000117963 0)
(0.00383804 -0.000118229 0)
(0.00285081 -0.000197102 0)
(0.00177919 -0.000610051 0)
(0.00281329 -0.000113965 0)
(0.0036233 -6.11455e-05 0)
(0.00362635 -5.32717e-05 0)
(0.00111721 -0.0011743 0)
(0.000814612 -0.00145452 0)
(0.00336267 -0.000395471 0)
(0.00227069 -0.00050773 0)
(0.00273465 -0.000369673 0)
(0.00396467 -3.43973e-05 0)
(0.00100603 -0.00121761 0)
(0.00332324 -0.000362156 0)
(0.00289901 -0.00039011 0)
(0.00328157 -5.39606e-05 0)
(0.00250444 -0.000497819 0)
(0.00250174 -0.000227217 0)
(0.000799877 -0.00136582 0)
(0.00348304 -0.000129783 0)
(0.00189034 -0.00060758 0)
(0.00268915 -0.000168828 0)
(0.00222318 -0.000470122 0)
(0.00193158 -0.000623206 0)
(0.00350347 -0.00034771 0)
(0.00372748 -0.000263343 0)
(0.00339542 -0.000262601 0)
(0.00206617 -0.000515759 0)
(0.00187073 -0.000646961 0)
(0.00201077 -0.000465748 0)
(0.00372018 -0.000223302 0)
(0.0038917 -2.99173e-05 0)
(0.00267143 -0.000275082 0)
(0.00300775 -0.000289365 0)
(0.00273345 -0.000165224 0)
(0.00340199 -0.00010402 0)
(0.00255984 -0.000288953 0)
(0.00238684 -0.000270892 0)
(0.0035317 -0.000243411 0)
(0.000216958 -0.00194796 0)
(0.000545087 -0.00161207 0)
(0.000657828 -0.00160456 0)
(0.00317135 -1.14806e-05 0)
(0.00353682 -8.10832e-05 0)
(0.00366868 -0.000312785 0)
(0.0032369 -0.000431746 0)
(3.45076e-05 -0.00202718 0)
(0.00291469 -7.72509e-05 0)
(0.0026237 -0.000187986 0)
(0.00265095 -0.000172272 0)
(0.00327984 -0.000424437 0)
(0.00383484 -4.47306e-05 0)
(0.00154872 -0.000781059 0)
(0.00303659 -0.000239391 0)
(0.00301267 -0.000231637 0)
(0.0018775 -0.000604292 0)
(0.00321535 -0.00044479 0)
(0.000641032 -0.0016135 0)
(0.00355343 -0.00030155 0)
(0.00360961 -0.000303838 0)
(0.00349507 -0.000375489 0)
(0.00328015 -0.00024074 0)
(0.00076336 -0.00151656 0)
(0.00351803 -0.000384222 0)
(0.00407941 -3.76766e-05 0)
(0.0026157 -0.000175266 0)
(0.00311757 -0.000363523 0)
(0.00311866 -0.000345535 0)
(0.00265598 -0.000158671 0)
(0.00250626 -0.000285352 0)
(0.00341113 -0.000224599 0)
(0.00189974 -0.000610352 0)
(0.00325405 -7.12687e-06 0)
(0.00138307 -0.00098302 0)
(0.00224627 -0.000364746 0)
(0.00351553 -4.30744e-05 0)
(0.00228443 -0.00034338 0)
(0.00302254 -0.000442588 0)
(0.00056866 -0.00166176 0)
(0.00384299 -1.13097e-05 0)
(0.00049708 -0.00169919 0)
(0.00074988 -0.00152042 0)
(0.00218641 -0.000557397 0)
(0.00330894 -0.000434966 0)
(0.00336681 -0.000122127 0)
(0.00339145 -0.000360619 0)
(0.000662556 -0.00143456 0)
(0.0031807 -7.77455e-06 0)
(0.00163148 -0.00069671 0)
(0.00312636 -1.5215e-05 0)
(0.00413915 -8.17215e-06 0)
(0.00383582 -0.000318686 0)
(0.00342704 -0.000390368 0)
(0.0016054 -0.000714739 0)
(0.00323818 -0.000302538 0)
(0.00330626 -7.08487e-06 0)
(0.00277655 -0.000388851 0)
(0.00333216 -8.1893e-06 0)
(0.000210364 -0.00200674 0)
(0.000991578 -0.00121787 0)
(0.00363889 -0.00024776 0)
(0.000101628 -0.0020803 0)
(0.00293117 -0.00025314 0)
(0.00310737 -1.97969e-05 0)
(0.00275138 -0.000128397 0)
(0.00214273 -0.000480808 0)
(0.00373523 -2.24386e-05 0)
(0.00323161 -6.10021e-06 0)
(0.00273582 -0.000318519 0)
(0.00388911 -8.30168e-05 0)
(0.00283932 -0.000102046 0)
(0.000355553 -0.00183582 0)
(0.00240536 -0.000261735 0)
(0.00379984 -0.000127347 0)
(0.00210139 -0.000503116 0)
(0.00295546 -0.000177066 0)
(0.00218128 -0.000449109 0)
(0.00328009 -0.000369862 0)
(0.00336 -2.87283e-06 0)
(9.08256e-05 -0.00209605 0)
(0.00142899 -0.000926889 0)
(0.00375771 -0.000214735 0)
(0.00158157 -0.000743887 0)
(0.000291359 -0.00186844 0)
(0.00251382 -0.000242074 0)
(0.00138506 -0.000949742 0)
(0.00290106 -0.000216015 0)
(0.00322158 -9.07907e-06 0)
(0.00297567 -0.000119606 0)
(0.00219501 -0.00041602 0)
(0.00294982 -0.000170595 0)
(0.00117697 -0.0011696 0)
(0.00126595 -0.00101399 0)
(0.00233994 -0.000761631 0)
(0.0025445 -0.000202632 0)
(0.00120237 -0.00101368 0)
(0.0012961 -0.00105459 0)
(0.00252064 -0.000213652 0)
(0.0033459 -0.000167426 0)
(0.00266016 -0.000206662 0)
(0.00268209 -0.000205826 0)
(0.00300108 -5.38917e-05 0)
(0.00229724 -0.000531722 0)
(0.00299885 -5.79159e-05 0)
(0.00219553 -0.00040004 0)
(0.00217234 -0.000417914 0)
(0.000786415 -0.0014478 0)
(0.00354238 -9.88642e-05 0)
(0.00314813 -7.31123e-05 0)
(0.00346387 -2.45373e-05 0)
(0.00348367 -2.05309e-05 0)
(0.00371629 -0.000172982 0)
(0.000785688 -0.00153061 0)
(0.00285316 -9.34531e-05 0)
(0.00125489 -0.000959502 0)
(0.00197128 -0.000550234 0)
(0.00375503 -7.49347e-05 0)
(0.0022887 -0.000874377 0)
(0.00369899 -1.4873e-05 0)
(0.00356807 -9.4671e-05 0)
(0.00215066 -0.000401166 0)
(0.00268573 -0.000176677 0)
(0.00317417 -3.89926e-06 0)
(0.00341458 -9.5465e-05 0)
(0.00373811 -0.000198388 0)
(0.0033366 -9.89876e-05 0)
(0.00295002 -8.24943e-05 0)
(0.00379291 -0.000134984 0)
(0.00288769 -0.000159683 0)
(0.00401458 -5.83402e-05 0)
(0.00258818 -0.000289909 0)
(0.00231682 -0.000306872 0)
(0.00226701 -0.000330585 0)
(0.00305252 -1.42793e-05 0)
(0.00293484 -0.000188824 0)
(0.00332402 -1.56187e-05 0)
(0.00394066 -3.28811e-05 0)
(0.00334922 -0.00026756 0)
(0.00356498 -0.000193993 0)
(0.000526529 -0.00174431 0)
(0.00378889 -1.85727e-05 0)
(0.00277621 -0.000175669 0)
(0.00371444 -6.42244e-05 0)
(0.000991131 -0.0011426 0)
(0.00215518 -0.00038978 0)
(0.00292638 -6.81824e-05 0)
(0.00218781 -0.000370305 0)
(0.000403341 -0.00184591 0)
(0.00293931 -0.000140471 0)
(0.00356592 -8.08593e-05 0)
(0.00376336 -7.44868e-06 0)
(0.00363002 -0.000323897 0)
(0.00263158 -0.000469519 0)
(0.00261026 -0.000373471 0)
(0.00218169 -0.000881467 0)
(0.00328426 -2.09687e-05 0)
(0.00106274 -0.00111286 0)
(0.00331998 -2.48968e-05 0)
(0.00348811 -0.000273551 0)
(0.000188685 -0.00203492 0)
(0.00351597 -1.1196e-05 0)
(0.00341849 -0.000246783 0)
(0.00238391 -0.000470641 0)
(0.00312851 -0.000136882 0)
(0.00316544 -0.000128541 0)
(0.0035299 -0.000410898 0)
(0.00329433 -0.000316156 0)
(0.00347058 -0.000349637 0)
(0.00274813 -0.000442462 0)
(0.00372782 -0.000162201 0)
(0.00278749 -0.00011643 0)
(0.00394809 -6.59692e-05 0)
(0.000834483 -0.00132112 0)
(0.0030654 -1.1688e-05 0)
(0.00335177 -0.000226315 0)
(0.00338109 -0.000217971 0)
(0.00395965 -9.35188e-05 0)
(0.00283972 -9.57273e-05 0)
(0.00309735 -0.00040353 0)
(0.00309213 -6.75681e-06 0)
(0.00144138 -0.00138639 0)
(0.00278792 -0.00032205 0)
(0.00302029 -0.000256596 0)
(0.00316331 -4.38916e-06 0)
(0.00340294 -0.000285458 0)
(0.00122992 -0.0010227 0)
(0.00123756 -0.000964403 0)
(0.00130331 -0.000915408 0)
(0.00329272 -0.00040464 0)
(0.00370696 -0.000150179 0)
(0.00389993 -0.000122824 0)
(0.00367034 -0.000153059 0)
(0.00198794 -0.000512361 0)
(0.0033001 -0.000153284 0)
(0.00336444 -0.000295715 0)
(0.00195806 -0.000528333 0)
(0.00310097 -0.000438813 0)
(0.00265113 -0.000430508 0)
(0.00275749 -0.000137269 0)
(0.00271985 -0.000144627 0)
(0.00336696 -5.36169e-05 0)
(0.00104716 -0.00133885 0)
(0.00377528 -0.000219079 0)
(0.00186141 -0.00113737 0)
(0.00276499 -0.000269802 0)
(0.00164718 -0.000733856 0)
(0.00400225 -9.19679e-05 0)
(0.00252971 -0.000243346 0)
(0.00363623 -3.58375e-05 0)
(0.00346923 -7.86166e-05 0)
(0.00129169 -0.000923775 0)
(0.00300951 -5.46342e-05 0)
(0.00125577 -0.000945543 0)
(0.00289854 -0.000318235 0)
(0.00291007 -0.000301514 0)
(0.00112416 -0.00127538 0)
(0.00354313 -4.28705e-05 0)
(0.00410961 -1.97245e-05 0)
(0.00380409 -0.000281932 0)
(0.00383758 -0.000279383 0)
(0.0040754 -2.60008e-05 0)
(0.00248531 -0.000648964 0)
(0.00335804 -8.23885e-05 0)
(0.00398807 -8.53099e-05 0)
(0.00299669 -5.29626e-05 0)
(0.00296816 -6.45371e-05 0)
(0.00224003 -0.000610195 0)
(0.00205512 -0.000469934 0)
(0.00129096 -0.000975465 0)
(0.0027958 -0.00019428 0)
(0.00199323 -0.000873603 0)
(0.00319284 -0.000216992 0)
(0.00259636 -0.000338287 0)
(0.00193748 -0.000567781 0)
(0.00200858 -0.000576048 0)
(0.00373551 -0.000142113 0)
(0.00236559 -0.000356396 0)
(0.00161054 -0.000717073 0)
(0.000383217 -0.00184584 0)
(0.00246888 -0.000369873 0)
(0.00246651 -0.000387855 0)
(0.00378855 -1.34471e-05 0)
(0.00165468 -0.000685653 0)
(0.00309528 -4.05013e-05 0)
(0.00373927 -7.86135e-06 0)
(5.48767e-05 -0.00206592 0)
(0.00161789 -0.000847105 0)
(0.00352272 -0.000335896 0)
(0.00305726 -0.000274514 0)
(0.00176526 -0.000717651 0)
(0.00295585 -5.77644e-05 0)
(0.00297775 -5.3901e-05 0)
(0.00332614 -0.000128119 0)
(0.00379591 -6.11878e-05 0)
(0.00258383 -0.000635981 0)
(0.000617267 -0.00165367 0)
(0.00323425 -0.000244901 0)
(0.00265614 -0.00032559 0)
(0.00306686 -0.000136656 0)
(0.00304261 -0.000133879 0)
(0.00396325 -2.09285e-05 0)
(0.00169853 -0.000750946 0)
(0.000235717 -0.00199212 0)
(0.00011947 -0.00204613 0)
(0.00263815 -0.000251968 0)
(0.00195291 -0.000523563 0)
(0.00270147 -0.000425986 0)
(0.00272814 -0.000175112 0)
(0.00285381 -0.000108796 0)
(0.00304955 -0.000123446 0)
(0.0026434 -0.000166838 0)
(0.00270248 -0.000339137 0)
(0.00187979 -0.000545363 0)
(0.00321121 -0.000135399 0)
(0.000611717 -0.00170945 0)
(0.00256483 -0.000202822 0)
(0.00195297 -0.000501541 0)
(0.00253051 -0.000213605 0)
(0.00192773 -0.000527939 0)
(0.00245563 -0.000494473 0)
(0.00316907 -3.15469e-05 0)
(0.00184207 -0.000565997 0)
(0.00316336 -3.59584e-05 0)
(0.00334686 -0.000369846 0)
(0.00281934 -0.000225647 0)
(0.00232637 -0.000353872 0)
(0.00370337 -7.26602e-05 0)
(0.000466166 -0.00178438 0)
(0.000603724 -0.00163648 0)
(0.00280808 -0.00023961 0)
(0.00132086 -0.000904136 0)
(0.0037066 -9.30904e-05 0)
(0.00376758 -8.16974e-05 0)
(0.00190808 -0.000561199 0)
(0.00400674 -3.72528e-05 0)
(0.00383364 -6.77194e-05 0)
(0.00157495 -0.000795492 0)
(0.00333911 -5.34843e-05 0)
(0.00304009 -3.14751e-05 0)
(0.00244928 -0.000478923 0)
(0.00354683 -0.000229855 0)
(0.00296039 -6.89281e-05 0)
(3.23069e-05 -0.00213232 0)
(0.00335205 -6.84805e-05 0)
(0.00281977 -0.000385848 0)
(0.00289889 -0.000461919 0)
(0.000453752 -0.00178669 0)
(0.00388586 -3.10736e-06 0)
(0.00267154 -0.000464806 0)
(0.0016462 -0.00126565 0)
(0.00291907 -0.000147803 0)
(0.00366933 -0.000110213 0)
(0.000582219 -0.00167153 0)
(0.000776032 -0.00152209 0)
(0.00249656 -0.000316764 0)
(0.00291989 -7.77066e-05 0)
(0.00282007 -0.000346514 0)
(0.00277435 -0.000352294 0)
(0.00336739 -0.000332646 0)
(0.00258955 -0.000355414 0)
(0.00183434 -0.000576689 0)
(0.00373393 -3.69062e-05 0)
(0.002778 -0.000125082 0)
(0.00270055 -0.000154469 0)
(0.00149882 -0.000801737 0)
(0.00310538 -5.3427e-05 0)
(0.00265487 -0.000170579 0)
(0.0031674 -5.32272e-05 0)
(0.00204851 -0.000443449 0)
(0.00310124 -3.44419e-06 0)
(0.000438203 -0.0018117 0)
(0.00295501 -0.000116051 0)
(0.000341229 -0.00186588 0)
(0.00348837 -0.000250817 0)
(0.00398054 -5.25493e-05 0)
(0.00395149 -5.33781e-05 0)
(0.00151467 -0.000786432 0)
(0.00306055 -0.000258557 0)
(0.0037389 -0.000284466 0)
(0.000352907 -0.00187523 0)
(0.000296209 -0.00192551 0)
(0.00279285 -0.00039454 0)
(0.00286256 -0.000116081 0)
(0.00150026 -0.00130741 0)
(0.00352499 -1.5506e-05 0)
(0.00307488 -3.64302e-06 0)
(0.00357539 -6.51468e-06 0)
(0.00311943 -5.57806e-05 0)
(0.000154136 -0.00198834 0)
(0.00325059 -8.43067e-05 0)
(0.00325828 -7.59516e-05 0)
(0.00322361 -4.37756e-05 0)
(0.00265376 -0.000164709 0)
(0.0025172 -0.000375699 0)
(0.00129184 -0.000959144 0)
(0.00315656 -6.63519e-05 0)
(0.00222375 -0.00051156 0)
(0.00362745 -0.000351566 0)
(0.00215497 -0.000387896 0)
(0.00212738 -0.000406091 0)
(0.00174625 -0.000684072 0)
(0.00103903 -0.0012278 0)
(0.0040551 -2.62372e-05 0)
(0.00377418 -0.000293775 0)
(0.00253772 -0.000265835 0)
(0.00147631 -0.000980932 0)
(0.00259893 -0.000239712 0)
(0.00394957 -7.10937e-05 0)
(0.00366671 -0.000221794 0)
(0.00370588 -0.000214684 0)
(0.00157944 -0.000901947 0)
(0.000304087 -0.00184744 0)
(0.00405429 -2.16977e-05 0)
(0.00375774 -0.000312044 0)