/*--------------------------------*- C++ -*----------------------------------*\
| =========                 |                                                 |
| \\      /  F ield         | OpenFOAM: The Open Source CFD Toolbox           |
|  \\    /   O peration     | Version:  v2012                                 |
|   \\  /    A nd           | Website:  www.openfoam.com                      |
|    \\/     M anipulation  |                                                 |
\*---------------------------------------------------------------------------*/
FoamFile
{
    version     2.0;
    format      ascii;
    class       volScalarField;
    location    "8";
    object      sigmaHyd;
}
// * * * * * * * * * * * * * * * * * * * * * * * * * * * * * * * * * * * * * //

dimensions      [1 -1 -2 0 0 0 0];


internalField   nonuniform List<scalar> 
1896
(
5.66741e+07
4.88467e+07
5.47827e+07
8.39506e+07
5.54758e+07
5.47232e+07
8.4727e+07
4.9258e+07
2.20238e+07
4.83359e+07
5.82676e+07
3.05428e+07
3.52726e+07
3.14311e+07
7.58663e+07
5.67943e+07
5.29295e+07
1.22074e+08
5.55711e+07
4.4524e+07
-5.64284e+07
5.14561e+07
7.84638e+07
8.01368e+07
5.01103e+07
5.00124e+07
3.40166e+07
3.77127e+07
5.73248e+07
5.85684e+07
5.75664e+07
4.73543e+07
1.60715e+07
4.84061e+07
7.7726e+07
5.87115e+07
5.66352e+07
5.06212e+07
1.22091e+08
5.95285e+07
4.66718e+07
7.55932e+07
4.9909e+07
5.33684e+07
3.64403e+07
3.46027e+07
7.83023e+07
5.82595e+07
6.24243e+07
7.57415e+07
5.44489e+07
5.14215e+07
5.07365e+07
5.13149e+07
2.61666e+07
4.88818e+07
4.22874e+07
5.78382e+07
5.13588e+07
6.11669e+07
4.91554e+07
7.50375e+07
7.40385e+07
5.29269e+07
3.75613e+07
4.68841e+07
7.47352e+07
3.48553e+07
5.18112e+07
7.75658e+07
1.82376e+07
7.2514e+07
5.13355e+07
4.82734e+07
7.92615e+07
4.96504e+07
4.9237e+07
5.43729e+07
5.38606e+07
5.08648e+07
6.97908e+07
7.92513e+07
4.18215e+07
4.62644e+07
4.63112e+07
5.25469e+07
4.36179e+07
4.22538e+07
3.6344e+07
4.51043e+07
4.82446e+07
1.4276e+08
2.04305e+07
9.82094e+07
8.30301e+07
5.08554e+07
4.80077e+07
6.04039e+07
4.72354e+07
3.87103e+07
4.03023e+07
3.32647e+07
5.28117e+07
2.40921e+07
3.56704e+07
4.83277e+07
5.23332e+07
5.9878e+07
6.75064e+07
1.4692e+08
6.02259e+07
4.74593e+07
6.14156e+07
4.26894e+07
1.28067e+08
4.44265e+07
4.32095e+07
4.69548e+07
4.72138e+07
5.78313e+07
5.13268e+07
1.91841e+07
5.03267e+07
4.35613e+07
4.29877e+07
3.37409e+07
5.83347e+07
4.85626e+07
5.69957e+07
3.91129e+07
3.87588e+07
4.88358e+07
6.30542e+07
9.62766e+07
5.52188e+07
7.39105e+07
7.5245e+07
7.91253e+07
4.69193e+07
5.99125e+07
5.14013e+07
5.45616e+07
5.94093e+07
8.32086e+07
4.78362e+07
5.26826e+07
5.23076e+07
5.76833e+07
7.53007e+07
4.60206e+07
3.67035e+07
4.84847e+07
5.15378e+07
5.26466e+07
5.20736e+07
5.25219e+07
4.22835e+07
5.1187e+07
1.33318e+08
5.14852e+07
5.19744e+07
8.34804e+07
1.91522e+07
5.2281e+07
1.25077e+08
4.77215e+07
6.85889e+07
5.8378e+07
5.88131e+07
4.84241e+07
4.79472e+07
4.75387e+07
2.04594e+07
2.20985e+07
7.84242e+07
8.03981e+07
6.64899e+07
5.06604e+07
5.88286e+07
2.96961e+07
1.76439e+07
6.06487e+07
5.27511e+07
6.78049e+07
7.69989e+07
1.32589e+08
4.05174e+07
7.47734e+07
-6.58915e+07
-1.33891e+07
7.13049e+07
5.8791e+07
5.15729e+07
8.29202e+07
5.54405e+07
2.74685e+07
5.03068e+07
5.00505e+07
2.88012e+07
4.22705e+07
4.15043e+07
5.89819e+07
5.82642e+07
5.22683e+07
8.31209e+07
5.22124e+07
5.99125e+07
7.06608e+07
-6.46874e+07
4.93053e+07
8.19463e+07
5.64498e+07
5.1008e+07
5.05707e+07
3.48396e+07
3.08196e+07
5.33412e+07
6.80188e+07
6.64844e+07
5.82306e+07
-1.31386e+07
5.17498e+07
8.52685e+07
6.96112e+07
4.83979e+07
5.85769e+07
7.68136e+07
5.21651e+07
7.59276e+07
4.7383e+07
6.62626e+07
5.05149e+07
5.08737e+07
6.15861e+07
4.64963e+07
5.07059e+07
3.5246e+07
5.20542e+07
9.48559e+07
6.0161e+07
7.33522e+07
6.06866e+07
3.60736e+07
9.75843e+07
5.15721e+07
2.77811e+07
5.1834e+07
2.83723e+07
2.63634e+07
6.89631e+07
2.17991e+07
5.09902e+07
4.77657e+07
6.05521e+07
4.66023e+07
5.14409e+07
1.43694e+07
8.31265e+07
7.33042e+07
7.53558e+07
5.63184e+07
-5.00264e+07
-4.11782e+07
3.91958e+07
5.34345e+07
3.80158e+07
6.29869e+07
3.4235e+07
6.1513e+07
5.14408e+07
3.79682e+07
-2.75381e+07
8.10561e+07
2.88217e+07
5.30944e+07
1.24466e+07
6.73409e+07
5.54412e+07
5.08967e+07
5.73687e+07
4.72054e+07
7.05754e+07
1.22635e+07
4.64353e+07
5.19542e+07
6.06312e+07
5.14254e+07
4.56963e+07
5.05848e+07
5.8881e+07
5.28405e+07
5.55972e+07
5.54961e+07
5.18773e+07
1.19873e+08
2.02575e+07
5.94363e+07
4.18989e+07
8.75541e+07
-1.89452e+07
7.8301e+07
5.53708e+07
7.42911e+07
8.1981e+07
5.19183e+07
4.93554e+07
4.88173e+07
1.35605e+07
1.64244e+07
5.10732e+07
5.26191e+07
4.57155e+07
2.46983e+07
5.98457e+07
4.74216e+07
5.72341e+07
4.67595e+07
5.12238e+07
5.0905e+07
5.32018e+07
4.74158e+07
7.2446e+07
7.06188e+07
4.8632e+07
1.44954e+07
4.77943e+07
4.97888e+07
1.92326e+07
5.57198e+07
4.9614e+07
-4.341e+07
5.55258e+07
6.06821e+07
4.66896e+07
4.81962e+07
-5.72077e+07
3.39277e+07
7.7429e+07
5.58205e+07
4.93873e+07
4.7927e+07
-3.64307e+07
5.51593e+07
3.21472e+07
3.89297e+07
5.64869e+07
5.50031e+07
1.04227e+08
4.13263e+07
-5.16952e+07
-2.57686e+06
5.50905e+07
3.02912e+07
5.18554e+07
5.41046e+07
5.70416e+07
-791727
1.05581e+08
4.41587e+07
4.87763e+07
3.08208e+07
1.08037e+08
1.13226e+08
-1.80413e+07
4.99969e+07
5.27301e+07
6.02592e+07
5.96477e+07
4.96318e+07
4.82701e+07
7.71949e+07
3.08147e+07
6.15647e+07
4.64603e+07
4.96633e+07
2.58175e+07
1.27272e+08
3.95752e+07
4.51885e+07
4.30571e+07
3.99565e+07
4.66692e+07
-3.86944e+06
5.33567e+07
2.38787e+07
5.58622e+07
1.13254e+08
5.00002e+07
5.98264e+07
1.05267e+08
4.85828e+07
5.53995e+07
7.07963e+07
1.06949e+08
5.10587e+07
352641
6.18519e+07
6.42963e+07
5.15703e+07
5.15316e+07
5.03876e+07
4.80236e+07
5.67629e+07
1.6324e+07
6.1468e+07
2.19386e+07
5.12668e+07
8.31729e+07
2.87356e+07
6.28983e+07
4.35424e+07
4.26711e+07
4.1509e+07
7.19069e+07
6.56388e+07
6.68005e+07
5.15393e+07
1.52421e+08
4.49421e+07
4.83751e+07
3.34388e+07
6.19026e+07
4.63454e+07
7.44677e+07
5.90015e+07
4.35526e+07
-8.68232e+06
6.19769e+07
8.82568e+07
9.30649e+07
-1.99784e+07
2.59612e+07
4.84953e+07
5.1526e+07
5.33422e+07
5.13902e+07
4.79302e+07
1.62949e+08
3.37564e+07
5.16186e+07
3.07441e+07
6.18532e+07
5.16606e+07
8.83136e+07
6.12276e+07
4.64378e+07
4.94581e+07
5.11179e+07
5.707e+07
5.54576e+07
7.94717e+07
5.19094e+07
5.17859e+07
5.14725e+07
5.14955e+07
4.33738e+07
5.14599e+07
4.6988e+07
-3.3367e+07
4.31313e+07
5.92995e+07
5.19108e+07
5.92677e+07
5.9056e+07
5.52982e+07
7.372e+07
6.30941e+07
6.27009e+07
5.62276e+07
1.13934e+08
5.42372e+07
3.73045e+07
5.23541e+07
5.17168e+07
5.05653e+07
4.81468e+07
5.57121e+07
-3.49067e+07
5.08197e+07
4.99699e+07
4.82417e+07
4.88058e+07
4.86671e+07
5.37097e+07
4.40753e+07
8.64299e+07
3.63476e+07
6.19414e+07
5.05122e+07
5.94791e+07
6.24193e+07
5.08925e+07
5.72282e+07
5.64725e+07
9.92235e+07
1.12183e+08
5.12006e+07
5.21259e+07
3.88862e+07
5.35864e+07
4.95412e+07
5.14952e+07
4.38719e+07
9.99997e+07
5.58526e+07
-2.57945e+07
4.19763e+07
8.50765e+07
3.03878e+07
6.55935e+07
3.28083e+07
3.40482e+07
3.49219e+07
5.45628e+07
4.58926e+07
6.47934e+07
3.47793e+07
5.11215e+07
5.35847e+07
5.32818e+07
5.56938e+07
4.90862e+07
7.34247e+07
5.25094e+07
7.8087e+07
3.78609e+07
3.88178e+07
7.94365e+07
5.16239e+07
5.17414e+07
5.48516e+07
5.20851e+07
4.12688e+07
5.55249e+07
5.33545e+07
4.09417e+07
4.78353e+07
4.20921e+07
-3.04145e+07
7.65926e+07
1.16882e+08
-1.08215e+07
5.57399e+07
4.53071e+07
4.45804e+07
4.14136e+07
3.98632e+07
3.80012e+07
4.55474e+07
4.98105e+07
5.1406e+07
6.94597e+07
5.52458e+07
2.27176e+07
4.07732e+07
6.7434e+07
2.71633e+07
6.88761e+07
5.15151e+07
6.55073e+07
6.85123e+07
5.14294e+07
5.08403e+07
6.86177e+07
5.04236e+07
1.1392e+08
3.35808e+07
5.27367e+07
5.4739e+07
4.72438e+07
2.60472e+07
2.55649e+07
899446
1.32093e+08
6.23692e+07
7.30963e+07
5.55829e+07
4.72766e+07
6.6529e+07
5.07439e+07
3.58991e+07
7.49219e+07
5.12691e+07
1.87698e+07
5.3894e+07
5.51764e+07
1.32646e+07
7.67791e+06
-1.67743e+07
5.61302e+07
7.3145e+07
8.88089e+07
4.49283e+07
1.14028e+07
9.29899e+07
3.85211e+07
5.1364e+07
6.08842e+07
6.73201e+07
4.11398e+07
6.35967e+07
6.98361e+07
5.43881e+07
1.30645e+08
6.68566e+07
7.72697e+07
7.32094e+07
7.29669e+07
4.59887e+07
5.58011e+07
5.05071e+07
4.37641e+07
4.77482e+07
1.45901e+08
-3.13656e+06
5.08006e+07
3.9833e+07
9.9077e+07
5.53439e+07
3.35623e+07
1.29757e+07
7.10869e+07
4.4056e+07
7.84915e+07
-1.90024e+07
5.16832e+07
7.85478e+07
7.26344e+07
2.51377e+07
5.16443e+07
2.64879e+07
1.42578e+08
5.41313e+07
6.90627e+07
3.37953e+07
5.38055e+07
5.36557e+07
5.1462e+07
7.11158e+07
1.1587e+07
5.03183e+07
5.00882e+07
7.31105e+07
7.86088e+07
5.02676e+07
1.81233e+07
6.09824e+07
5.72827e+07
7.39791e+07
5.15801e+07
5.87135e+07
4.2459e+07
6.90239e+07
3.11257e+07
7.50306e+07
5.05562e+07
4.64836e+07
4.38574e+07
2.56399e+07
4.25475e+07
4.93748e+07
4.89312e+07
5.1767e+07
3.75271e+07
4.62171e+07
5.91779e+07
5.03359e+07
5.5498e+07
5.68896e+07
5.51471e+07
4.54861e+07
4.86966e+07
5.75831e+07
4.10225e+07
5.11341e+07
1.06406e+08
6.84832e+07
8.04752e+07
2.66241e+07
4.95064e+07
4.82312e+07
5.20244e+07
9.88539e+07
7.87613e+06
1.9601e+07
2.0811e+07
5.12006e+07
5.42802e+07
8.64368e+07
5.35191e+07
5.34137e+07
7.86168e+07
5.24459e+07
7.80296e+07
4.99023e+07
4.92389e+07
4.87927e+07
5.22351e+07
8.27945e+07
4.81271e+07
5.95549e+07
3.4129e+07
5.46054e+07
5.45718e+07
3.47101e+07
5.65524e+07
5.17241e+07
7.99609e+07
3.33032e+07
6.63115e+07
5.87461e+07
4.7191e+07
5.67716e+07
5.64502e+07
7.10564e+07
5.42695e+07
6.6123e+07
8.07941e+07
7.61693e+07
5.04906e+07
4.92544e+07
5.0624e+07
7.57944e+07
2.66312e+07
7.02742e+07
2.19418e+07
6.1956e+07
4.63444e+07
4.94383e+07
6.9532e+07
5.29721e+07
3.69854e+07
-3.911e+07
3.84485e+07
5.09538e+07
7.46017e+07
5.02982e+07
6.16426e+07
5.46632e+07
2.08709e+07
3.40784e+07
3.34802e+07
5.17422e+07
3.15511e+07
-2.51795e+07
5.50949e+07
3.39853e+07
1.53776e+08
4.21071e+07
5.32195e+07
7.27047e+07
5.03234e+07
6.85075e+07
5.20173e+07
3.95959e+07
5.38179e+07
6.44596e+07
5.0295e+07
8.2116e+07
1.46077e+08
5.02756e+07
6.59448e+07
5.29488e+07
3.1081e+07
-6.16239e+07
6.49503e+07
-6.09074e+07
7.49701e+07
6.98074e+07
8.25463e+06
3.6607e+07
7.61175e+07
6.9568e+07
3.94993e+07
5.08493e+07
5.00178e+07
5.04933e+07
2.85778e+07
7.38318e+07
3.04968e+07
6.23446e+07
6.41825e+07
7.47576e+07
5.02223e+07
4.182e+07
4.47313e+07
4.52074e+07
5.19725e+07
9.36101e+07
3.03227e+07
7.90952e+07
4.4173e+07
5.29158e+07
1.72603e+07
5.0811e+07
5.04644e+07
5.93643e+07
4.55051e+07
2.49323e+07
4.83371e+07
5.10839e+07
4.75749e+07
-8.21684e+06
5.30365e+07
-2.29581e+07
5.76224e+07
5.79087e+07
4.24032e+07
4.49551e+07
-1.55648e+07
5.11789e+07
3.8848e+07
5.66928e+07
5.20874e+07
5.15981e+07
1.31864e+08
5.30217e+07
4.8299e+07
5.2038e+07
8.3623e+07
4.60872e+07
1.78106e+07
4.67371e+07
7.73612e+07
4.67626e+07
4.99978e+07
5.23303e+07
4.84125e+07
6.5943e+07
-1.15557e+07
2.58826e+07
3.76048e+07
7.95992e+07
3.97669e+07
5.10111e+07
6.26136e+07
4.57859e+07
5.16829e+07
7.02697e+07
4.83769e+07
4.80431e+07
4.73671e+07
5.23535e+07
4.96842e+07
6.27198e+07
5.22087e+07
3.37113e+07
5.64283e+07
7.64686e+07
-6.03698e+06
5.18285e+07
5.16853e+07
5.51576e+07
2.8659e+07
5.47976e+07
7.12708e+06
1.01749e+08
-3.48092e+07
5.41513e+07
2.33405e+07
5.15729e+07
7.20238e+07
8.16141e+07
8.17001e+07
5.12923e+07
5.23226e+07
5.36083e+07
5.21215e+07
4.63702e+07
5.02215e+07
5.18096e+07
7.1004e+07
5.46826e+07
6.43303e+07
1.38646e+07
1.81971e+07
4.45298e+07
8.72979e+07
4.99031e+07
6.50187e+07
5.61683e+07
5.86625e+07
5.48603e+07
5.13822e+07
4.97865e+07
4.83133e+07
8.69745e+07
-1.17862e+07
8.62384e+07
5.70662e+07
5.64717e+07
8.30379e+07
4.78148e+07
6.10504e+07
4.71052e+07
4.6774e+07
6.02293e+07
-7.54033e+06
4.67699e+07
5.55871e+07
-3.80051e+06
-429756
1.84211e+07
4.40888e+07
7.05667e+07
-1.15658e+07
3.99371e+07
5.22015e+07
6.09791e+07
7.58849e+07
3.87542e+07
5.2579e+07
6.18679e+07
6.68421e+07
1.05489e+08
6.35658e+07
6.4649e+07
5.3e+07
6.71556e+07
3.21128e+07
5.17255e+07
7.66803e+07
5.72058e+07
4.94266e+07
5.43061e+07
5.06794e+07
1.97028e+07
8.99747e+06
4.92671e+07
5.35762e+07
-1.68383e+07
8.29121e+07
5.24887e+07
5.98592e+07
4.79607e+07
4.74674e+07
5.72919e+07
5.3982e+07
6.57091e+07
8.01156e+07
5.48299e+07
6.97764e+07
6.33468e+07
4.70203e+07
3.78545e+07
4.64881e+07
2.59729e+07
6.01702e+07
5.73351e+07
4.88163e+07
1.47105e+08
4.29203e+07
5.52805e+07
4.25594e+07
5.23842e+07
7.00344e+07
3.339e+07
6.00176e+07
3.45217e+07
5.10834e+07
5.35762e+07
6.06097e+07
5.19894e+07
1.02745e+08
7.37671e+07
5.44533e+07
8.39146e+07
5.23796e+07
5.3194e+07
7.35355e+07
5.82796e+07
5.43151e+07
6.03703e+07
4.38403e+07
-6.81302e+06
6.9598e+07
5.12519e+07
3.21369e+07
4.32362e+07
4.55774e+07
-4.5918e+07
5.94871e+07
1.19828e+08
5.52408e+07
6.49039e+07
8.4753e+07
-2.8408e+07
5.20171e+07
7.56187e+07
8.92067e+07
1.10088e+07
3.19737e+07
5.88672e+07
5.96921e+07
5.13901e+07
6.19147e+07
5.72952e+07
5.19656e+07
3.70621e+07
4.00425e+07
8.62201e+07
3.70237e+07
4.14111e+07
3.91211e+07
5.43681e+07
9.69029e+06
8.80184e+07
-2.87578e+07
1.11832e+08
5.12745e+07
5.73606e+07
5.67247e+07
8.4354e+07
5.39115e+07
4.80233e+07
6.13772e+07
5.84392e+07
6.06798e+07
-440622
9.26542e+07
4.62221e+07
-2.03766e+06
4.75554e+07
3.79106e+07
1.03732e+08
4.52271e+07
4.45205e+07
3.91962e+07
3.70122e+07
828040
7.24538e+07
4.08466e+07
7.42369e+07
4.76762e+07
5.48845e+07
5.69672e+07
8.38098e+07
7.36743e+07
5.97704e+07
4.72257e+07
1.42065e+07
6.49984e+07
1.05397e+07
5.62819e+07
5.07807e+07
5.07866e+07
5.95601e+07
1.61688e+08
5.99005e+07
4.70336e+07
3.98253e+07
4.47625e+07
5.24203e+07
7.29534e+07
5.05758e+07
5.06227e+07
2.75723e+07
1.50163e+07
2.48161e+07
1.44029e+08
5.14421e+07
2.06973e+06
5.69551e+07
1.19711e+08
5.1761e+07
4.94926e+07
5.12471e+07
5.922e+07
5.18169e+07
5.01069e+07
7.19101e+07
7.9559e+07
6.47034e+07
2.96494e+07
5.59954e+07
2.98346e+07
2.94135e+07
4.79909e+07
4.58484e+07
4.5059e+07
5.43017e+07
5.48578e+07
4.83379e+07
6.01197e+07
4.83325e+07
1.14292e+08
5.40277e+07
-8.3382e+06
4.91227e+07
5.7091e+07
4.43313e+07
4.69092e+07
5.51638e+07
5.72787e+06
-1.0187e+06
5.32208e+07
5.38557e+07
1.03327e+08
7.44473e+07
5.43069e+07
7.52861e+07
6.11083e+07
4.94444e+07
4.95851e+07
8.85263e+07
4.64792e+07
5.2633e+07
6.45593e+07
9.05614e+07
8.5263e+07
3.28715e+06
5.0236e+07
5.0167e+07
4.7709e+07
4.70327e+07
4.65387e+07
-9.53973e+06
9.22546e+07
5.14495e+07
3.6931e+07
2.90567e+07
5.00071e+07
4.66903e+07
5.71715e+07
5.72305e+07
1.39759e+08
5.44813e+07
5.41085e+07
6.77589e+06
7.12197e+07
3.23558e+07
6.71497e+07
6.18509e+07
7.17992e+07
4.71493e+07
-3.72311e+07
3.23352e+07
-2.39184e+07
5.14096e+07
-1.0823e+07
4.69673e+07
6.59353e+07
6.62079e+07
3.70505e+07
3.78524e+07
5.14912e+07
3.62612e+07
-2.94807e+07
8.15999e+07
4.75994e+07
5.07534e+07
2.82263e+07
5.48596e+07
5.39333e+06
4.66751e+06
6.06646e+07
5.31406e+07
4.92546e+07
6.34438e+07
4.66411e+07
5.33592e+07
4.89625e+07
7.57766e+07
7.8213e+07
8.3112e+07
8.52284e+07
-1.22009e+07
6.39452e+07
4.56426e+07
5.23491e+07
3.23482e+07
6.69707e+07
4.96351e+07
5.79396e+07
5.01626e+07
4.01342e+07
8.8831e+06
2.24073e+07
5.42745e+07
4.99857e+07
5.27096e+07
5.21646e+07
5.46342e+07
5.3761e+07
4.59523e+07
5.11547e+07
4.56275e+07
5.87396e+07
4.36112e+07
4.3226e+07
6.34354e+07
4.29021e+07
4.41495e+07
6.4268e+07
6.02291e+07
6.32083e+07
9.37038e+07
5.12635e+07
5.10287e+07
8.22305e+07
4.59914e+07
4.55201e+07
7.13388e+07
5.6832e+07
4.70578e+07
8.48835e+07
2.92511e+07
-1.49839e+07
4.96975e+07
5.87293e+07
8.09856e+06
2.20536e+06
-4.32477e+07
3.84494e+07
2.43204e+07
6.09922e+07
5.27124e+07
5.01812e+07
1.22446e+07
1.15335e+07
4.76679e+07
4.76801e+07
3.8693e+07
4.4947e+06
6.59527e+07
5.01851e+07
5.12553e+07
5.7446e+07
5.1256e+07
5.45283e+07
4.94115e+07
2.44561e+07
2.51184e+07
5.42273e+07
5.27303e+07
2.59186e+07
-2.43973e+07
4.83548e+07
4.94005e+07
1.59872e+08
5.125e+07
1.04398e+07
7.724e+07
5.38379e+07
7.86274e+07
8.19327e+07
1.13197e+07
5.0632e+07
-2.20475e+07
5.37147e+07
5.1913e+07
1.63681e+07
1.8129e+07
4.77789e+07
2.47808e+07
2.36774e+07
7.19519e+06
2.12333e+07
5.21647e+07
5.05833e+07
1.2921e+08
5.15984e+07
1.53335e+08
9.1387e+07
8.33459e+07
6.49125e+07
5.30567e+07
5.09905e+07
5.1496e+07
4.9467e+07
5.12172e+07
-1.84846e+07
4.29738e+07
7.98311e+07
6.23788e+07
7.77488e+07
7.65311e+07
1.77018e+07
6.90603e+07
7.05684e+07
7.76352e+07
-4.34223e+06
3.62784e+07
6.42487e+07
4.90108e+07
-3.14142e+06
6.67089e+07
5.1308e+06
5.02422e+07
4.98928e+07
2.98811e+07
3.09694e+07
3.15997e+07
-2.59015e+07
3.09164e+07
4.53354e+07
1.3899e+08
6.70931e+07
6.82514e+07
8.11547e+07
3.65752e+07
3.91914e+07
4.01486e+07
5.01098e+07
8.01111e+07
-3.78438e+07
3.63905e+07
7.80322e+06
2.86402e+07
5.53439e+07
5.59532e+07
1.64603e+08
5.09599e+07
6.62216e+07
5.25376e+07
5.15529e+07
5.24561e+07
2.04871e+07
-1.7391e+07
-5.17682e+07
4.70296e+07
9.20676e+07
6.77344e+07
4.15427e+07
1.45253e+08
-5.42175e+06
6.51187e+07
4.15153e+07
4.16768e+07
2.3375e+07
-5.49953e+07
5.05048e+07
6.19778e+07
5.70173e+07
6.08996e+07
4.69264e+07
2.08322e+07
7.51217e+07
1.42401e+08
5.12102e+07
2.25548e+07
5.61995e+07
5.89441e+07
4.75576e+07
4.93722e+07
4.82465e+07
4.7005e+07
3.75218e+07
5.04015e+07
5.35626e+07
5.24081e+07
7.40116e+07
5.35088e+07
-2.13043e+07
5.05271e+07
5.03941e+07
4.98281e+07
9.2155e+07
1.61291e+08
3.98006e+07
4.07893e+07
4.87463e+07
-4.68256e+06
4.98702e+07
4.91843e+07
5.88742e+07
5.54676e+07
5.03328e+07
4.34007e+06
5.36581e+07
6.9761e+07
7.07887e+07
1.27812e+07
1.77712e+07
1.46227e+06
5.462e+07
3.08716e+07
6.42764e+07
6.49103e+07
6.98065e+07
5.13156e+07
5.53746e+06
5.45501e+07
5.27597e+07
7.88991e+07
5.30533e+07
5.08957e+07
4.26941e+07
4.25656e+07
1.56747e+08
6.30707e+06
5.16986e+07
4.05813e+07
5.4575e+07
4.96235e+07
7.7025e+07
5.36693e+07
7.43373e+07
5.00524e+07
5.92035e+07
5.82632e+07
4.96837e+07
8.57914e+06
5.03054e+07
2.9692e+07
5.24359e+07
5.20916e+07
7.20145e+07
6.79293e+07
-3.70134e+07
6.00449e+07
6.42288e+07
6.52529e+07
8.18072e+07
5.32656e+07
5.30775e+07
6.20268e+07
6.22382e+07
4.62998e+07
4.62979e+07
5.11403e+07
6.89002e+07
7.11645e+07
3.86848e+07
3.61909e+07
7.62881e+07
5.16866e+07
6.49423e+07
5.43654e+07
5.09535e+07
7.48763e+07
5.32492e+07
5.34893e+07
7.57516e+07
4.82024e+07
3.90835e+07
2.07231e+07
7.27126e+07
5.61468e+07
2.15717e+07
4.48016e+07
9.72796e+07
4.92629e+07
4.89335e+07
4.97638e+07
4.90284e+07
4.49343e+07
8.69337e+07
4.90599e+07
6.71639e+07
3.58594e+07
6.74989e+07
5.06101e+07
4.9936e+07
4.96713e+07
6.34364e+07
5.41828e+07
5.45476e+07
5.12049e+07
8.50975e+07
5.60814e+07
5.25675e+07
9.19833e+07
4.01975e+06
7.29185e+06
5.26224e+07
5.22341e+07
7.49244e+07
7.29391e+07
7.75035e+07
-4.996e+07
5.10562e+07
8.57732e+07
5.74095e+07
3.99806e+07
5.1733e+07
-1.92835e+07
5.87989e+07
6.70476e+07
5.19334e+07
4.76637e+07
4.52328e+07
6.4073e+07
7.09179e+07
2.17745e+06
-4.98984e+06
4.15083e+07
4.09547e+07
6.26631e+07
5.28497e+07
4.71478e+07
6.46251e+07
5.33386e+07
5.35601e+07
4.76934e+07
5.15239e+07
-638438
7.29398e+07
6.08572e+07
4.19327e+07
6.22229e+07
3.98554e+07
4.14976e+07
5.29532e+07
5.4181e+07
5.41728e+07
7.16608e+07
5.0455e+07
4.63543e+07
4.64503e+07
3.96226e+07
7.23144e+07
7.32177e+07
3.84012e+07
4.64741e+07
4.63928e+07
7.05043e+07
7.86601e+07
3.72664e+07
-4.20782e+07
3.22676e+07
4.97377e+07
5.35873e+07
6.88435e+07
6.66398e+07
4.28135e+07
4.12895e+07
7.48958e+07
7.46224e+07
4.00737e+07
5.33862e+07
5.24255e+07
5.18821e+07
7.06949e+07
5.24418e+07
5.08107e+07
5.10919e+07
2.81126e+07
5.23307e+07
5.16284e+07
5.19276e+07
3.62363e+07
3.74473e+07
4.95483e+07
7.44073e+07
5.52763e+07
5.47813e+07
4.07623e+07
5.26032e+07
4.11574e+07
4.73243e+07
4.70696e+07
4.78161e+07
9.69105e+07
5.2971e+07
5.81657e+07
5.59056e+07
5.06635e+07
7.3591e+07
7.39077e+07
5.43213e+06
2.75564e+07
3.64643e+07
3.78599e+07
4.68972e+07
6.33517e+07
-5.59484e+07
6.23207e+07
5.36057e+07
5.33941e+07
8.75768e+07
5.61854e+07
5.29063e+07
4.68116e+07
8.35688e+07
4.65732e+07
7.95515e+07
3.37067e+07
7.13786e+07
5.04882e+07
4.126e+06
8.20293e+07
6.01274e+07
5.9787e+07
5.33728e+07
4.70907e+07
5.26273e+07
5.2314e+07
6.55319e+07
3.54155e+07
7.3142e+07
1.50596e+07
5.20456e+07
4.99285e+07
4.9877e+07
7.29915e+07
5.17204e+07
7.14467e+07
4.37825e+07
4.46168e+07
5.47213e+07
4.93764e+07
3.73804e+07
4.64109e+07
5.22049e+07
5.39479e+07
9.83088e+07
5.28449e+07
2.44734e+07
-7.82391e+06
4.7076e+07
4.0075e+07
5.28267e+07
4.08778e+07
4.98275e+07
3.18258e+07
3.21416e+07
2.13924e+07
2.31183e+07
5.34711e+07
-159776
5.0353e+07
5.87608e+07
3.93802e+06
4.83268e+07
4.81573e+07
8.67613e+07
7.09257e+07
7.22855e+07
7.59061e+07
7.01547e+07
7.22581e+07
6.04579e+07
4.63469e+07
7.67559e+07
1.16521e+07
6.21308e+07
5.0391e+07
4.37153e+07
5.16357e+07
5.13346e+07
5.85472e+07
5.79338e+07
4.4247e+07
2.44661e+07
5.59384e+07
4.89098e+07
6.29645e+07
5.30949e+07
8.46511e+07
8.64611e+07
3.4385e+07
1.55926e+07
1.34793e+08
5.34495e+07
5.36714e+07
6.26825e+07
-3.53359e+06
6.94397e+07
5.13762e+07
7.08589e+07
5.09692e+07
5.34691e+07
5.1568e+07
7.31766e+07
4.29666e+07
4.91272e+07
1.0985e+07
1.89075e+07
5.22904e+07
5.33653e+07
6.49124e+07
5.6807e+07
5.6559e+07
4.48356e+07
4.06204e+07
4.22558e+07
7.69639e+06
4.9644e+07
7.05516e+07
5.17974e+07
4.44854e+07
4.23456e+07
5.2744e+07
7.03789e+07
6.8802e+07
7.3904e+07
2.01661e+07
6.83859e+07
7.40001e+07
6.55375e+07
5.1565e+07
5.15827e+07
5.15918e+07
5.15008e+07
5.28761e+07
7.12892e+07
4.6255e+07
-231891
5.20664e+07
5.15732e+07
1.38286e+07
6.21736e+07
6.06823e+07
5.4437e+07
5.08847e+07
5.79999e+07
5.01476e+07
4.89636e+07
5.83011e+07
5.30263e+07
4.94496e+07
5.1622e+07
5.57958e+07
6.32403e+07
4.96519e+07
5.14068e+07
5.08342e+07
6.74605e+07
9.65929e+07
5.75783e+07
6.65284e+07
9.37403e+07
7.11223e+07
5.23707e+07
6.87727e+07
5.27366e+07
5.04194e+07
5.7896e+07
4.24554e+07
4.33928e+07
5.75853e+07
5.0016e+07
5.23138e+07
7.43311e+07
5.33425e+07
6.80346e+07
4.8907e+07
5.58408e+07
5.51771e+07
7.56529e+07
-8.92e+06
6.78215e+07
4.4655e+07
5.01924e+07
5.27283e+07
7.46468e+07
-1.82295e+07
4.36472e+07
4.98765e+07
5.27834e+07
5.68217e+07
5.63054e+07
4.52747e+07
6.08493e+07
1.13247e+07
4.94311e+07
5.23547e+07
5.1172e+07
5.07266e+07
1.18641e+08
1.02601e+08
5.39275e+07
4.19997e+07
5.02167e+07
1.07276e+08
5.33227e+07
1.26633e+08
4.97334e+07
5.42437e+07
5.15129e+07
2.51431e+07
-2.47768e+07
4.1147e+07
4.63423e+07
5.0054e+07
5.14344e+07
4.9074e+07
4.87244e+07
4.70192e+07
4.98636e+07
4.80854e+07
5.44595e+07
5.37202e+07
5.94188e+07
2.78899e+07
5.74174e+07
6.56915e+07
5.37211e+07
5.37457e+07
4.85434e+07
4.77089e+07
5.444e+07
5.38046e+07
5.15235e+07
5.16546e+07
7.17927e+07
4.45688e+07
4.08765e+07
5.41836e+07
4.89284e+07
5.58047e+07
7.58724e+07
7.65703e+07
3.96251e+07
4.04189e+07
4.58358e+07
1.22768e+07
4.30138e+07
5.16318e+07
5.2068e+07
5.16788e+07
5.12474e+07
5.43191e+07
4.10489e+07
6.32479e+07
3.52607e+07
4.77549e+07
2.63949e+07
4.31469e+07
5.10181e+07
6.37006e+07
6.21436e+07
6.56992e+07
5.40408e+07
5.79893e+07
7.22124e+07
7.42709e+07
4.65726e+07
2.25115e+07
4.98683e+07
5.16023e+07
5.17492e+07
4.59489e+07
5.36092e+07
4.90412e+07
5.00051e+07
4.4998e+07
4.84197e+07
7.51959e+07
4.96266e+07
5.5565e+07
5.51268e+07
2.07323e+07
1.70096e+07
4.58529e+07
5.3245e+07
5.25308e+07
5.26426e+07
5.10145e+07
6.67863e+07
5.74397e+07
5.66905e+07
3.01208e+07
6.84534e+07
5.60599e+07
5.82136e+07
4.50448e+07
4.6911e+07
6.09287e+07
4.64014e+07
4.63422e+07
6.1195e+07
4.35071e+07
5.18304e+07
5.67682e+07
5.60762e+07
2.64301e+07
5.79668e+07
5.21277e+07
7.42651e+07
7.4916e+07
5.78633e+07
5.66629e+07
5.54079e+07
5.39347e+07
5.34413e+07
6.02887e+07
7.27948e+07
7.15705e+07
4.94135e+07
4.95085e+07
5.37112e+07
5.64359e+07
5.6189e+07
6.1384e+07
4.22293e+07
3.56503e+07
3.58096e+07
7.39972e+07
7.32602e+07
5.32754e+07
5.22794e+07
5.44425e+07
5.45278e+07
5.3429e+07
)
;

boundaryField
{
    back
    {
        type            empty;
    }
    front
    {
        type            empty;
    }
    down
    {
        type            symmetry;
    }
    right
    {
        type            zeroGradient;
    }
    up
    {
        type            zeroGradient;
    }
    left
    {
        type            symmetry;
    }
    hole
    {
        type            zeroGradient;
    }
}


// ************************************************************************* //
