/*--------------------------------*- C++ -*----------------------------------*\
| =========                 |                                                 |
| \\      /  F ield         | OpenFOAM: The Open Source CFD Toolbox           |
|  \\    /   O peration     | Version:  v2012                                 |
|   \\  /    A nd           | Website:  www.openfoam.com                      |
|    \\/     M anipulation  |                                                 |
\*---------------------------------------------------------------------------*/
FoamFile
{
    version     2.0;
    format      ascii;
    class       pointVectorField;
    location    "18";
    object      pointD;
}
// * * * * * * * * * * * * * * * * * * * * * * * * * * * * * * * * * * * * * //

dimensions      [0 1 0 0 0 0 0];


internalField   nonuniform List<vector> 
32562
(
(0.00123371 0 6.25628e-22)
(0.0014581 0 4.6394e-22)
(0.00133455 -5.75615e-05 -8.38598e-22)
(0 -0.0010875 -8.01842e-23)
(0 4.03634e-07 3.07885e-20)
(0.0012611 0 0)
(0 -0.00105547 0)
(0.000920232 -0.000206923 0)
(0.000370439 -0.000383598 1.46907e-21)
(0.00140214 3.67143e-06 -3.9498e-21)
(0.0010845 -0.00037046 -2.17271e-22)
(0.0010845 -0.00037046 -2.17271e-22)
(0.000920232 -0.000206923 0)
(0 -0.00105547 0)
(0 4.03634e-07 3.07885e-20)
(0.00123371 0 6.25628e-22)
(0.0012611 0 0)
(0.0014581 0 4.6394e-22)
(0.00140214 3.67143e-06 -3.9498e-21)
(0.00133455 -5.75615e-05 -8.38598e-22)
(0.000370439 -0.000383598 1.46907e-21)
(0 -0.0010875 -8.01842e-23)
(2.1693e-05 -0.00105317 0)
(4.35363e-05 -0.00104645 0)
(6.56378e-05 -0.00103575 0)
(8.81697e-05 -0.00102159 0)
(0.000111534 -0.00100422 0)
(0.000136116 -0.000983683 0)
(0.000162174 -0.000960047 0)
(0.000189855 -0.00093342 0)
(0.000219184 -0.000904026 0)
(0.000250051 -0.000872192 0)
(0.000282264 -0.000838351 0)
(0.000315529 -0.00080302 0)
(0.000349512 -0.000766766 0)
(0.000383818 -0.000730195 0)
(0.000417972 -0.00069395 0)
(0.000451379 -0.000658744 0)
(0.000483231 -0.000625547 0)
(0.000512622 -0.000595319 0)
(0.00053896 -0.000568524 0)
(0.000562381 -0.000544819 0)
(0.000583669 -0.00052327 0)
(0.000603833 -0.000502744 0)
(0.000623694 -0.000482477 0)
(0.000643358 -0.000462347 0)
(0.000662656 -0.000442624 0)
(0.00068164 -0.000423404 0)
(0.00070034 -0.000404666 0)
(0.000718709 -0.000386496 0)
(0.000736818 -0.000368858 0)
(0.000754616 -0.000351792 0)
(0.000772167 -0.000335263 0)
(0.000789425 -0.000319304 0)
(0.000806456 -0.000303862 0)
(0.000823197 -0.000288987 0)
(0.000839737 -0.000274598 0)
(0.000855982 -0.000260772 0)
(0.000872054 -0.0002474 0)
(0.000887823 -0.00023458 0)
(0.000903459 -0.000222197 0)
(0.000937035 -0.000194581 0)
(0.000951862 -0.000183625 0)
(0.000966446 -0.000173145 0)
(0.000980743 -0.000163113 0)
(0.000994766 -0.000153534 0)
(0.00100852 -0.000144371 0)
(0.00102198 -0.000135626 0)
(0.00103517 -0.000127273 0)
(0.00104805 -0.000119309 0)
(0.00106064 -0.000111715 0)
(0.00107291 -0.000104483 0)
(0.00108488 -9.76002e-05 0)
(0.00109652 -9.10545e-05 0)
(0.00110784 -8.48368e-05 0)
(0.00111881 -7.89329e-05 0)
(0.00112944 -7.33329e-05 0)
(0.00113971 -6.80287e-05 0)
(0.00114962 -6.30071e-05 0)
(0.00115916 -5.82554e-05 0)
(0.00116832 -5.37645e-05 0)
(0.00117708 -4.95198e-05 0)
(0.00118546 -4.5513e-05 0)
(0.00119342 -4.17294e-05 0)
(0.00120098 -3.816e-05 0)
(0.00120812 -3.47904e-05 0)
(0.00121483 -3.16108e-05 0)
(0.00122111 -2.86072e-05 0)
(0.00122695 -2.5769e-05 0)
(0.00123235 -2.30826e-05 0)
(0.00123729 -2.05367e-05 0)
(0.00124178 -1.81177e-05 0)
(0.00124582 -1.58142e-05 0)
(0.00124938 -1.36127e-05 0)
(0.00125248 -1.15012e-05 0)
(0.00125511 -9.46638e-06 0)
(0.00125726 -7.49608e-06 0)
(0.00125894 -5.57693e-06 0)
(0.00126014 -3.69657e-06 0)
(0.00126086 -1.84181e-06 0)
(0.00123533 0 0)
(0.00123734 0 0)
(0.00123922 0 0)
(0.00124096 0 0)
(0.00124259 0 0)
(0.00124411 0 0)
(0.00124552 0 0)
(0.00124683 0 0)
(0.00124804 0 0)
(0.00124918 0 0)
(0.00125022 0 0)
(0.0012512 0 0)
(0.0012521 0 0)
(0.00125293 0 0)
(0.0012537 0 0)
(0.00125441 0 0)
(0.00125507 0 0)
(0.00125567 0 0)
(0.00125623 0 0)
(0.00125674 0 0)
(0.00125721 0 0)
(0.00125764 0 0)
(0.00125803 0 0)
(0.00125839 0 0)
(0.00125871 0 0)
(0.00125901 0 0)
(0.00125928 0 0)
(0.00125953 0 0)
(0.00125974 0 0)
(0.00125994 0 0)
(0.00126012 0 0)
(0.00126028 0 0)
(0.00126043 0 0)
(0.00126056 0 0)
(0.00126067 0 0)
(0.00126077 0 0)
(0.00126086 0 0)
(0.00126094 0 0)
(0.00126102 0 0)
(0.00126122 0 0)
(0.00126132 0 0)
(0.00126142 0 0)
(0.00126151 0 0)
(0.00126161 0 0)
(0.00126173 0 0)
(0.00126187 0 0)
(0.00126205 0 0)
(0.00126227 0 0)
(0.00126254 0 0)
(0.00126286 0 0)
(0.00126325 0 0)
(0.00126368 0 0)
(0.00126419 0 0)
(0.00126476 0 0)
(0.00126542 0 0)
(0.00126614 0 0)
(0.00126694 0 0)
(0.00126782 0 0)
(0.00126879 0 0)
(0.00126983 0 0)
(0.00127096 0 0)
(0.00127218 0 0)
(0.00127348 0 0)
(0.00127487 0 0)
(0.00127635 0 0)
(0.00127792 0 0)
(0.00127957 0 0)
(0.00128131 0 0)
(0.00128314 0 0)
(0.00128507 0 0)
(0.00128707 0 0)
(0.00128917 0 0)
(0.00129135 0 0)
(0.00129363 0 0)
(0.00129598 0 0)
(0.00129842 0 0)
(0.00130095 0 0)
(0.00130356 0 0)
(0.00130625 0 0)
(0.00130902 0 0)
(0.00131187 0 0)
(0.0013148 0 0)
(0.00131781 0 0)
(0.00132089 0 0)
(0.00132405 0 0)
(0.00132728 0 0)
(0.00133058 0 0)
(0.00133395 0 0)
(0.00133738 0 0)
(0.00134089 0 0)
(0.00134445 0 0)
(0.00134808 0 0)
(0.00135177 0 0)
(0.00135551 0 0)
(0.00135931 0 0)
(0.00136316 0 0)
(0.00136707 0 0)
(0.00137102 0 0)
(0.00137502 0 0)
(0.00137905 0 0)
(0.00138313 0 0)
(0.00138725 0 0)
(0.0013914 0 0)
(0.00139558 0 0)
(0.00139978 0 0)
(0.00140401 0 0)
(0.00140826 0 0)
(0.00141253 0 0)
(0.0014168 0 0)
(0.00142109 0 0)
(0.00142537 0 0)
(0.00142966 0 0)
(0.00143393 0 0)
(0.0014382 0 0)
(0.00144245 0 0)
(0.00144667 0 0)
(0.00145086 0 0)
(0.00145502 0 0)
(0.00145908 6.89886e-07 4.83623e-22)
(0.00145895 1.37718e-06 4.43096e-22)
(0.00145873 2.05938e-06 8.80007e-22)
(0.00145843 2.73383e-06 -5.19959e-22)
(0.00145803 3.39811e-06 3.99135e-22)
(0.00145756 4.04953e-06 4.56831e-22)
(0.00145699 4.68578e-06 2.27512e-24)
(0.00145634 5.30412e-06 1.03686e-21)
(0.00145561 5.9024e-06 2.43384e-22)
(0.0014548 6.47785e-06 -6.60548e-22)
(0.0014539 7.02847e-06 -1.4103e-21)
(0.00145293 7.55145e-06 -1.25742e-21)
(0.00145187 8.04501e-06 7.76045e-22)
(0.00145074 8.50631e-06 1.60483e-21)
(0.00144954 8.93377e-06 1.28228e-22)
(0.00144826 9.32455e-06 -1.97376e-21)
(0.00144691 9.67733e-06 -2.36841e-21)
(0.00144549 9.98922e-06 -1.18279e-21)
(0.001444 1.02592e-05 -7.23588e-22)
(0.00144245 1.04843e-05 -1.34688e-27)
(0.00144083 1.06639e-05 2.14401e-22)
(0.00143916 1.0795e-05 7.07559e-22)
(0.00143742 1.08772e-05 4.93069e-22)
(0.00143563 1.09077e-05 8.06622e-22)
(0.00143379 1.08862e-05 2.12831e-21)
(0.0014319 1.08101e-05 1.32169e-21)
(0.00142996 1.06792e-05 -5.07938e-22)
(0.00142797 1.04914e-05 -1.61894e-22)
(0.00142595 1.02463e-05 -1.03725e-21)
(0.00142388 9.94232e-06 -1.22902e-21)
(0.00142179 9.57894e-06 6.74387e-22)
(0.00141965 9.15534e-06 1.04352e-21)
(0.00141749 8.67042e-06 5.23296e-22)
(0.00141531 8.12462e-06 -6.47497e-22)
(0.0014131 7.51587e-06 2.01466e-21)
(0.00141087 6.8462e-06 3.47042e-21)
(0.00140862 6.11233e-06 2.7042e-21)
(0.00140637 5.31807e-06 2.18325e-21)
(0.0014041 4.4589e-06 -2.50274e-21)
(0.00140082 3.1125e-06 -2.24855e-22)
(0.00139981 2.67238e-06 1.33263e-21)
(0.0013988 2.21984e-06 -1.09893e-21)
(0.00139779 1.75538e-06 -1.4911e-21)
(0.00139678 1.27883e-06 2.26367e-21)
(0.00139577 7.90288e-07 5.98039e-22)
(0.00139476 2.89917e-07 -5.03324e-21)
(0.00139376 -2.22433e-07 -3.36761e-21)
(0.00139275 -7.46383e-07 9.33807e-22)
(0.00139175 -1.28222e-06 -5.59438e-22)
(0.00139075 -1.82946e-06 -1.49324e-21)
(0.00138975 -2.38844e-06 2.21872e-21)
(0.00138875 -2.95862e-06 5.23312e-22)
(0.00138776 -3.54034e-06 -5.02697e-21)
(0.00138677 -4.13306e-06 -3.33156e-21)
(0.00138579 -4.73709e-06 3.45777e-22)
(0.0013848 -5.35192e-06 -5.65336e-22)
(0.00138382 -5.97778e-06 -9.11113e-22)
(0.00138285 -6.61421e-06 -5.73137e-22)
(0.00138188 -7.26139e-06 -5.73137e-22)
(0.00138091 -7.91888e-06 -5.75673e-22)
(0.00137995 -8.58681e-06 -1.465e-21)
(0.001379 -9.26478e-06 -5.8318e-22)
(0.00137805 -9.95284e-06 2.36406e-21)
(0.0013771 -1.06506e-05 3.16357e-22)
(0.00137617 -1.13582e-05 -4.05928e-21)
(0.00137523 -1.20751e-05 -1.17606e-21)
(0.00137431 -1.28015e-05 -8.82408e-22)
(0.00137339 -1.35369e-05 -3.72427e-21)
(0.00137247 -1.42812e-05 -2.28628e-21)
(0.00137157 -1.50342e-05 1.05425e-24)
(0.00137067 -1.57958e-05 -2.43451e-22)
(0.00136977 -1.65657e-05 -2.4144e-22)
(0.00136889 -1.73436e-05 1.63274e-21)
(0.00136801 -1.81294e-05 -3.57274e-22)
(0.00136714 -1.89229e-05 -1.61148e-21)
(0.00136627 -1.97237e-05 -8.17476e-24)
(0.00136542 -2.05317e-05 -3.91256e-22)
(0.00136457 -2.13466e-05 -5.93699e-22)
(0.00136373 -2.21682e-05 7.72731e-22)
(0.0013629 -2.29962e-05 -5.88414e-22)
(0.00136208 -2.38303e-05 -1.95796e-21)
(0.00136126 -2.46704e-05 1.05418e-21)
(0.00136045 -2.5516e-05 -2.87033e-22)
(0.00135965 -2.6367e-05 -4.13937e-21)
(0.00135886 -2.7223e-05 -2.36194e-23)
(0.00135808 -2.80838e-05 1.69572e-21)
(0.00135731 -2.89491e-05 -2.50278e-21)
(0.00135654 -2.98186e-05 -3.32404e-21)
(0.00135579 -3.0692e-05 -1.30326e-21)
(0.00135504 -3.1569e-05 8.47123e-23)
(0.0013543 -3.24493e-05 -5.17604e-22)
(0.00135357 -3.33326e-05 -1.87634e-21)
(0.00135284 -3.42186e-05 -1.93791e-21)
(0.00135212 -3.51069e-05 5.95881e-22)
(0.00135142 -3.59974e-05 6.56211e-22)
(0.00135072 -3.68896e-05 -1.24573e-21)
(0.00135002 -3.77833e-05 1.26379e-21)
(0.00134934 -3.86781e-05 9.356e-23)
(0.00134866 -3.95739e-05 -3.07468e-21)
(0.00134798 -4.04701e-05 -1.25062e-21)
(0.00134732 -4.13667e-05 6.21681e-22)
(0.00134666 -4.22632e-05 6.09951e-22)
(0.001346 -4.31595e-05 -7.48603e-26)
(0.00134536 -4.4055e-05 -6.04387e-22)
(0.00134471 -4.49497e-05 -1.84779e-26)
(0.00134408 -4.58434e-05 1.03703e-25)
(0.00134344 -4.67357e-05 -1.18618e-21)
(0.00134281 -4.76266e-05 -5.56627e-22)
(0.00134219 -4.85157e-05 6.29246e-22)
(0.00134156 -4.94029e-05 2.3555e-21)
(0.00134094 -5.0288e-05 1.72005e-21)
(0.00134032 -5.11711e-05 -1.20619e-21)
(0.0013397 -5.20519e-05 -5.71329e-22)
(0.00133908 -5.29305e-05 5.71023e-22)
(0.00133847 -5.38068e-05 -1.20726e-21)
(0.00133785 -5.46812e-05 -1.17491e-21)
(0.00133723 -5.55534e-05 -4.88057e-30)
(0.0013366 -5.64242e-05 -5.77887e-22)
(0.00132959 -5.92556e-05 -5.16119e-22)
(0.00132323 -6.12153e-05 -7.7214e-22)
(0.00131687 -6.31654e-05 -7.70897e-22)
(0.00131054 -6.5092e-05 -7.68569e-22)
(0.00130422 -6.69772e-05 -9.68379e-22)
(0.00129791 -6.88091e-05 -1.47055e-22)
(0.00129159 -7.05773e-05 3.09298e-22)
(0.00128527 -7.22744e-05 0)
(0.00127892 -7.38938e-05 2.12058e-22)
(0.00127255 -7.54317e-05 -3.51593e-22)
(0.00126614 -7.68847e-05 -8.66623e-22)
(0.00125968 -7.82524e-05 -5.67069e-22)
(0.00125317 -7.95326e-05 -7.61508e-22)
(0.0012466 -8.07278e-05 -7.66921e-22)
(0.00123995 -8.18395e-05 -8.15022e-22)
(0.00123322 -8.28687e-05 -5.45514e-22)
(0.00122641 -8.38199e-05 -5.86336e-22)
(0.0012195 -8.46949e-05 -1.15463e-21)
(0.00121249 -8.54991e-05 -7.90809e-22)
(0.00120537 -8.62359e-05 4.04038e-22)
(0.00119813 -8.6911e-05 8.69472e-22)
(0.00119078 -8.75289e-05 -7.3395e-22)
(0.00118329 -8.80958e-05 -1.57881e-21)
(0.00117567 -8.86162e-05 -8.87781e-22)
(0.00116791 -8.90984e-05 -5.92801e-22)
(0.00116 -8.95482e-05 -6.33357e-22)
(0.00115194 -8.99721e-05 -6.71044e-22)
(0.00114372 -9.03779e-05 -6.84028e-22)
(0.00113534 -9.07726e-05 -4.64262e-24)
(0.00112678 -9.11643e-05 -3.60234e-22)
(0.00111805 -9.156e-05 -6.83007e-22)
(0.00110914 -9.1969e-05 -7.36809e-22)
(0.00110004 -9.2399e-05 -7.62267e-22)
(0.00109074 -9.28595e-05 -3.97314e-22)
(0.00108125 -9.33594e-05 -7.59741e-22)
(0.00107156 -9.3908e-05 -3.9385e-22)
(0.00106165 -9.45165e-05 -4.2689e-22)
(0.00105154 -9.51919e-05 -3.42155e-22)
(0.0010412 -9.59451e-05 4.93796e-22)
(0.00103063 -9.67899e-05 -6.52991e-23)
(0.00101984 -9.77338e-05 -5.23724e-22)
(0.0010088 -9.87918e-05 -9.07344e-22)
(0.000997526 -9.99724e-05 -8.7591e-22)
(0.000986002 -0.000101294 -1.47138e-21)
(0.000974226 -0.000102763 -2.00581e-21)
(0.000962194 -0.000104389 -1.41934e-21)
(0.000949897 -0.000106196 3.0865e-22)
(0.000937334 -0.000108193 1.57995e-21)
(0.000924498 -0.000110394 -7.0275e-23)
(0.000911387 -0.000112816 6.24446e-22)
(0.000897992 -0.000115472 1.45875e-21)
(0.000884314 -0.000118379 -1.86062e-22)
(0.000870342 -0.000121551 -9.31738e-22)
(0.000856078 -0.00012501 -3.68039e-22)
(0.000841513 -0.000128768 -2.45084e-22)
(0.00082665 -0.000132849 -1.20387e-21)
(0.000811478 -0.000137265 -8.15403e-22)
(0.000796012 -0.000142037 4.69792e-22)
(0.000780227 -0.000147192 1.59452e-22)
(0.000764136 -0.000152746 1.22603e-23)
(0.00074773 -0.000158706 1.04545e-21)
(0.000731018 -0.000165111 1.07268e-21)
(0.000713995 -0.000171973 4.27569e-22)
(0.000696676 -0.00017932 6.94511e-22)
(0.000679062 -0.000187166 2.21302e-22)
(0.000661186 -0.000195537 1.59861e-23)
(0.000643073 -0.000204443 1.29867e-21)
(0.000624691 -0.000213922 4.23905e-22)
(0.000605871 -0.000224046 -2.91694e-21)
(0.000586513 -0.000234884 -2.84214e-21)
(0.000566549 -0.000246474 -5.31901e-22)
(0.000545984 -0.000258839 -2.08146e-30)
(0.000524833 -0.000271957 1.82954e-21)
(0.000503236 -0.000285754 2.26647e-21)
(0.000481246 -0.000300262 1.01318e-21)
(0.000458957 -0.000315464 9.29218e-23)
(0.000436416 -0.000331472 2.46888e-23)
(0.000413802 -0.000348268 3.03265e-21)
(0.000391298 -0.000366093 3.77231e-21)
(0.000352924 -0.000399293 -1.52966e-21)
(0.000336972 -0.000414281 -9.67012e-22)
(0.000320879 -0.000429871 4.41411e-21)
(0.000304667 -0.000446014 1.94758e-21)
(0.000288344 -0.000462764 -4.52888e-21)
(0.000271991 -0.000480128 -1.03992e-21)
(0.000255618 -0.000498127 3.81962e-21)
(0.000239293 -0.000516781 2.37194e-22)
(0.000223042 -0.000536083 -5.69412e-21)
(0.000206931 -0.000556059 -6.0454e-21)
(0.000191007 -0.000576674 -2.1883e-21)
(0.000175336 -0.000597949 -6.50941e-23)
(0.000159988 -0.000619818 -4.03979e-23)
(0.000145025 -0.000642284 -6.50512e-23)
(0.000130536 -0.000665249 -1.84164e-23)
(0.000116574 -0.000688687 -1.88414e-21)
(0.000103235 -0.000712466 -3.80657e-21)
(9.0557e-05 -0.00073653 -7.46725e-21)
(7.86262e-05 -0.000760717 -6.23404e-21)
(6.74598e-05 -0.000784948 1.13037e-21)
(5.71253e-05 -0.000809047 -4.45405e-22)
(4.76144e-05 -0.00083292 -4.01055e-22)
(3.89746e-05 -0.000856392 5.61146e-21)
(3.11752e-05 -0.000879364 3.36166e-21)
(2.42444e-05 -0.000901675 -1.13833e-21)
(1.81363e-05 -0.000923228 -3.64159e-23)
(1.28623e-05 -0.000943878 2.96246e-22)
(8.36742e-06 -0.000963531 1.17283e-21)
(4.64758e-06 -0.000982064 1.31579e-21)
(1.64271e-06 -0.000999385 -1.31031e-21)
(-6.66654e-07 -0.00101539 -1.42119e-21)
(-2.34508e-06 -0.00102999 -1.04948e-22)
(-3.42787e-06 -0.00104309 2.76541e-22)
(-3.98518e-06 -0.00105463 0)
(-4.06831e-06 -0.00106452 4.89911e-22)
(-3.75403e-06 -0.00107271 6.89686e-22)
(-3.10843e-06 -0.00107914 -6.03295e-23)
(-2.21432e-06 -0.00108376 -3.46215e-22)
(-1.14949e-06 -0.00108654 -1.66626e-22)
(0 -0.00108757 0)
(0 -0.00108762 0)
(0 -0.00108763 0)
(0 -0.0010876 0)
(0 -0.00108754 0)
(0 -0.00108744 0)
(0 -0.00108731 0)
(0 -0.00108715 0)
(0 -0.00108695 0)
(0 -0.00108673 0)
(0 -0.00108648 0)
(0 -0.00108621 0)
(0 -0.00108591 0)
(0 -0.00108559 0)
(0 -0.00108525 0)
(0 -0.00108489 0)
(0 -0.00108451 0)
(0 -0.00108411 0)
(0 -0.0010837 0)
(0 -0.00108327 0)
(0 -0.00108283 0)
(0 -0.00108237 0)
(0 -0.0010819 0)
(0 -0.00108142 0)
(0 -0.00108092 0)
(0 -0.00108042 0)
(0 -0.00107991 0)
(0 -0.00107939 0)
(0 -0.00107887 0)
(0 -0.00107834 0)
(0 -0.0010778 0)
(0 -0.00107726 0)
(0 -0.00107671 0)
(0 -0.00107616 0)
(0 -0.00107561 0)
(0 -0.00107506 0)
(0 -0.0010745 0)
(0 -0.00107395 0)
(0 -0.00107339 0)
(0 -0.00107284 0)
(0 -0.00107229 0)
(0 -0.00107173 0)
(0 -0.00107118 0)
(0 -0.00107064 0)
(0 -0.00107009 0)
(0 -0.00106955 0)
(0 -0.00106902 0)
(0 -0.00106849 0)
(0 -0.00106796 0)
(0 -0.00106744 0)
(0 -0.00106693 0)
(0 -0.00106643 0)
(0 -0.00106593 0)
(0 -0.00106543 0)
(0 -0.00106495 0)
(0 -0.00106447 0)
(0 -0.00106401 0)
(0 -0.00106355 0)
(0 -0.0010631 0)
(0 -0.00106266 0)
(0 -0.00106223 0)
(0 -0.00106181 0)
(0 -0.0010614 0)
(0 -0.00106099 0)
(0 -0.0010606 0)
(0 -0.00106022 0)
(0 -0.00105985 0)
(0 -0.00105949 0)
(0 -0.00105913 0)
(0 -0.00105878 0)
(0 -0.00105845 0)
(0 -0.00105812 0)
(0 -0.00105779 0)
(0 -0.00105747 0)
(0 -0.00105715 0)
(0 -0.00105684 0)
(0 -0.00105653 0)
(0 -0.00105621 0)
(0 -0.00105589 0)
(0 -0.00105487 0)
(0 -0.0010541 0)
(0 -0.001053 0)
(0 -0.00105135 0)
(0 -0.00104902 0)
(0 -0.00104585 0)
(0 -0.00104171 0)
(0 -0.00103648 0)
(0 -0.00103001 0)
(0 -0.0010222 0)
(0 -0.00101294 0)
(0 -0.00100215 0)
(0 -0.000989738 0)
(0 -0.000975635 0)
(0 -0.000959801 0)
(0 -0.000942184 0)
(0 -0.00092274 0)
(0 -0.00090147 0)
(0 -0.000878314 0)
(0 -0.000853296 0)
(0 -0.000826381 0)
(0 -0.000797564 0)
(0 -0.000766856 0)
(0 -0.000734249 0)
(0 -0.000699741 0)
(0 -0.000663364 0)
(0 -0.000625114 0)
(0 -0.000585025 0)
(0 -0.000543124 0)
(0 -0.000499459 0)
(0 -0.000454077 0)
(0 -0.000407046 0)
(0 -0.000358448 0)
(0 -0.000308392 0)
(0 -0.000256996 0)
(0 -0.0002044 0)
(0 -0.000150777 0)
(0 -9.63116e-05 0)
(0 -4.1209e-05 0)
(0.000928095 -0.000191423 0)
(0.000934567 -0.000177095 0)
(0.000941065 -0.000163408 0)
(0.000947523 -0.000150606 0)
(0.000953987 -0.000138519 0)
(0.000960422 -0.000127186 0)
(0.000966848 -0.000116575 0)
(0.00097324 -0.000106643 0)
(0.000979611 -9.74064e-05 0)
(0.000985949 -8.87757e-05 0)
(0.000992256 -8.07964e-05 0)
(0.000998533 -7.33655e-05 0)
(0.00100477 -6.65337e-05 0)
(0.00101099 -6.02e-05 0)
(0.00101716 -5.44046e-05 0)
(0.00102331 -4.90643e-05 0)
(0.00102943 -4.42036e-05 0)
(0.00103553 -3.97534e-05 0)
(0.00104159 -3.57292e-05 0)
(0.00104764 -3.2073e-05 0)
(0.00105366 -2.87936e-05 0)
(0.00105966 -2.5842e-05 0)
(0.00106564 -2.32215e-05 0)
(0.00107161 -2.0892e-05 0)
(0.00107756 -1.88519e-05 0)
(0.00108351 -1.70676e-05 0)
(0.00108944 -1.55341e-05 0)
(0.00109536 -1.42242e-05 0)
(0.00110127 -1.3131e-05 0)
(0.00110718 -1.22307e-05 0)
(0.00111308 -1.15176e-05 0)
(0.00111898 -1.09672e-05 0)
(0.00112488 -1.05732e-05 0)
(0.00113077 -1.03181e-05 0)
(0.00113667 -1.01925e-05 0)
(0.00114257 -1.01823e-05 0)
(0.00114847 -1.02777e-05 0)
(0.00115437 -1.04662e-05 0)
(0.00116028 -1.07385e-05 0)
(0.00116619 -1.10832e-05 0)
(0.00117211 -1.14912e-05 0)
(0.00117802 -1.19536e-05 0)
(0.00118395 -1.24601e-05 0)
(0.00118987 -1.30024e-05 0)
(0.00119581 -1.35715e-05 0)
(0.00120174 -1.41601e-05 0)
(0.00120768 -1.47606e-05 0)
(0.00121363 -1.53647e-05 0)
(0.00121958 -1.59655e-05 0)
(0.00122553 -1.65554e-05 0)
(0.00123148 -1.71279e-05 0)
(0.00123744 -1.76757e-05 0)
(0.0012434 -1.81928e-05 0)
(0.00124936 -1.86721e-05 0)
(0.00125532 -1.91081e-05 0)
(0.00126128 -1.94935e-05 0)
(0.00126723 -1.98234e-05 0)
(0.00127319 -2.00903e-05 0)
(0.00127914 -2.02898e-05 0)
(0.00128508 -2.0414e-05 0)
(0.00129103 -2.04588e-05 0)
(0.00129696 -2.04159e-05 0)
(0.00130289 -2.02816e-05 0)
(0.00130881 -2.00468e-05 0)
(0.00131472 -1.9708e-05 0)
(0.00132063 -1.92553e-05 0)
(0.00132652 -1.86851e-05 0)
(0.0013324 -1.7987e-05 0)
(0.00133827 -1.71555e-05 0)
(0.00134413 -1.61781e-05 0)
(0.00134998 -1.50547e-05 0)
(0.00135581 -1.37688e-05 0)
(0.00136164 -1.23142e-05 0)
(0.00136745 -1.0677e-05 0)
(0.00137326 -8.84851e-06 0)
(0.00137905 -6.81383e-06 0)
(0.00138483 -4.56039e-06 0)
(0.00139061 -2.07327e-06 0)
(0.00139638 6.66189e-07 0)
(0.00091093 -0.00020966 0)
(0.000904416 -0.000211203 0)
(0.000897862 -0.000212772 0)
(0.000891288 -0.000214343 0)
(0.000884673 -0.000215938 0)
(0.000878039 -0.00021754 0)
(0.000871368 -0.000219165 0)
(0.000864677 -0.0002208 0)
(0.000857959 -0.000222457 0)
(0.000851216 -0.000224128 0)
(0.000844458 -0.000225818 0)
(0.000837667 -0.000227525 0)
(0.000830878 -0.000229252 0)
(0.000824037 -0.000230996 0)
(0.000817176 -0.000232753 0)
(0.000810311 -0.000234534 0)
(0.000803423 -0.000236326 0)
(0.000796533 -0.000238135 0)
(0.000789622 -0.000239959 0)
(0.000782707 -0.000241799 0)
(0.000775777 -0.000243656 0)
(0.000768839 -0.000245528 0)
(0.000761894 -0.000247419 0)
(0.000754933 -0.000249324 0)
(0.000747981 -0.000251249 0)
(0.000740992 -0.000253189 0)
(0.00073399 -0.000255141 0)
(0.000726997 -0.00025711 0)
(0.000719992 -0.000259096 0)
(0.000712992 -0.000261095 0)
(0.000705981 -0.000263113 0)
(0.000698973 -0.000265143 0)
(0.000691959 -0.000267191 0)
(0.000684945 -0.000269252 0)
(0.000677928 -0.000271331 0)
(0.000670911 -0.000273422 0)
(0.000663894 -0.000275532 0)
(0.000656878 -0.000277655 0)
(0.000649863 -0.000279797 0)
(0.000642852 -0.000281952 0)
(0.000635842 -0.000284125 0)
(0.000628841 -0.000286312 0)
(0.000621837 -0.000288518 0)
(0.000614851 -0.00029074 0)
(0.00060785 -0.00029298 0)
(0.000600854 -0.000295231 0)
(0.000593875 -0.000297502 0)
(0.0005869 -0.000299787 0)
(0.000579941 -0.000302089 0)
(0.000572987 -0.000304408 0)
(0.000566049 -0.000306743 0)
(0.000559118 -0.000309095 0)
(0.000552202 -0.000311463 0)
(0.000545296 -0.000313849 0)
(0.000538405 -0.000316251 0)
(0.000531524 -0.000318671 0)
(0.000524658 -0.000321109 0)
(0.000517805 -0.000323565 0)
(0.000510965 -0.00032604 0)
(0.000504139 -0.000328533 0)
(0.000497326 -0.000331046 0)
(0.000490527 -0.000333579 0)
(0.000483741 -0.000336134 0)
(0.000476968 -0.00033871 0)
(0.000470207 -0.000341308 0)
(0.00046346 -0.00034393 0)
(0.000456723 -0.000346576 0)
(0.000449998 -0.000349246 0)
(0.000443283 -0.000351943 0)
(0.000436578 -0.000354665 0)
(0.000429882 -0.000357416 0)
(0.000423194 -0.000360192 0)
(0.000416514 -0.000362999 0)
(0.000409837 -0.000365828 0)
(0.00040317 -0.000368689 0)
(0.000396495 -0.000371567 0)
(0.000389837 -0.000374469 0)
(0.000383217 -0.000377407 0)
(0.000376723 -0.000380442 0)
(7.65852e-05 1.10348e-05 4.68151e-20)
(0.000152206 1.27314e-06 -1.26071e-20)
(0.000225982 -1.48062e-05 -4.32135e-20)
(0.000297159 -3.68664e-05 -1.68248e-20)
(0.000365171 -6.44362e-05 8.6263e-21)
(0.000429716 -9.69042e-05 -5.29853e-21)
(0.000490748 -0.000133459 -1.29778e-20)
(0.000548409 -0.000173294 3.44977e-21)
(0.000602957 -0.000215632 2.341e-20)
(0.000654672 -0.000259778 1.57704e-20)
(0.000703667 -0.000305199 1.05011e-20)
(0.000749905 -0.000351357 1.78149e-20)
(0.000793129 -0.000397646 -2.40706e-23)
(0.000832907 -0.00044315 8.82655e-21)
(0.000868725 -0.000486415 3.91906e-21)
(0.00090008 -0.000525832 -9.09929e-21)
(0.000926663 -0.00055993 -1.47171e-20)
(0.000948076 -0.000586825 -1.93577e-20)
(0.000963725 -0.00060382 -4.66192e-21)
(0.000973546 -0.000609065 7.02973e-21)
(0.000978816 -0.000603857 1.32485e-21)
(0.000981764 -0.000592432 -6.05099e-21)
(0.000984445 -0.000578997 -4.09322e-21)
(0.000987872 -0.000565504 -1.28391e-21)
(0.00099196 -0.000552239 -2.7416e-21)
(0.000996566 -0.00053919 3.4083e-21)
(0.00100163 -0.000526319 4.1661e-21)
(0.00100707 -0.000513606 -1.16651e-23)
(0.00101282 -0.000501029 1.35201e-22)
(0.00101882 -0.000488582 -3.19841e-21)
(0.00102503 -0.000476252 -3.20889e-21)
(0.00103139 -0.00046404 1.38305e-21)
(0.00103789 -0.000451939 2.88446e-21)
(0.00104448 -0.000439953 2.70095e-21)
(0.00105113 -0.00042808 3.79553e-21)
(0.00105781 -0.00041632 6.00639e-22)
(0.00106452 -0.000404678 -4.78443e-21)
(0.00107121 -0.000393152 -1.70196e-21)
(0.00107788 -0.000381748 7.6774e-22)
(0.00109107 -0.0003593 -5.37546e-22)
(0.00109757 -0.000348257 -1.86341e-21)
(0.00110399 -0.000337344 -4.36607e-23)
(0.00111032 -0.000326548 -2.17158e-21)
(0.00111654 -0.000315883 -5.13674e-21)
(0.00112266 -0.000305333 5.72697e-22)
(0.00112866 -0.000294912 1.63592e-21)
(0.00113453 -0.000284609 -5.069e-22)
(0.00114027 -0.000274428 1.89745e-21)
(0.00114587 -0.000264361 1.53745e-21)
(0.00115133 -0.000254412 1.08809e-21)
(0.00115665 -0.000244573 1.73296e-21)
(0.00116181 -0.000234845 2.16913e-22)
(0.00116681 -0.000225223 -2.95013e-21)
(0.00117165 -0.000215705 -1.6336e-21)
(0.00117633 -0.000206285 4.11917e-21)
(0.00118084 -0.000196963 4.11498e-21)
(0.00118519 -0.000187734 -7.93975e-23)
(0.00118935 -0.000178593 -1.77647e-21)
(0.00119334 -0.000169537 -2.08773e-21)
(0.00119716 -0.000160562 -7.65232e-22)
(0.00120079 -0.000151665 -9.08999e-24)
(0.00120423 -0.00014284 -5.24991e-22)
(0.0012075 -0.000134084 7.70472e-23)
(0.00121057 -0.000125392 -1.04126e-21)
(0.00121345 -0.000116762 -2.75553e-21)
(0.00121615 -0.000108187 5.43849e-22)
(0.00121865 -9.96645e-05 2.54834e-21)
(0.00122095 -9.11907e-05 7.8939e-22)
(0.00122306 -8.27611e-05 1.00539e-21)
(0.00122497 -7.43713e-05 -4.50544e-22)
(0.00122669 -6.60183e-05 -1.76187e-22)
(0.0012282 -5.76961e-05 2.24154e-21)
(0.00122951 -4.94028e-05 1.24449e-21)
(0.00123063 -4.11323e-05 -7.35167e-22)
(0.00123154 -3.28825e-05 -1.93434e-21)
(0.00123225 -2.46477e-05 -2.14218e-21)
(0.00123276 -1.64255e-05 -8.12125e-22)
(0.00123306 -8.21065e-06 6.19219e-22)
(0.0010795 -0.000364252 0)
(0.00107458 -0.000358216 0)
(0.00106974 -0.000352357 0)
(0.00106496 -0.000346649 0)
(0.00106024 -0.000341098 0)
(0.00105558 -0.000335686 0)
(0.00105097 -0.000330415 0)
(0.0010464 -0.000325274 0)
(0.00104187 -0.000320261 0)
(0.00103739 -0.000315369 0)
(0.00103294 -0.000310594 0)
(0.00102854 -0.000305933 0)
(0.00102416 -0.000301381 0)
(0.00101983 -0.000296935 0)
(0.00101552 -0.000292591 0)
(0.00101126 -0.000288347 0)
(0.00100702 -0.000284197 0)
(0.00100282 -0.00028014 0)
(0.000998654 -0.000276173 0)
(0.000994522 -0.000272292 0)
(0.000990424 -0.000268496 0)
(0.000986361 -0.000264781 0)
(0.000982333 -0.000261144 0)
(0.000978341 -0.000257584 0)
(0.000974385 -0.000254097 0)
(0.000970466 -0.000250681 0)
(0.000966582 -0.000247334 0)
(0.000962737 -0.000244054 0)
(0.000958927 -0.000240838 0)
(0.000955159 -0.000237685 0)
(0.000951424 -0.000234591 0)
(0.000947735 -0.000231557 0)
(0.000944075 -0.000228578 0)
(0.000940467 -0.000225656 0)
(0.000936885 -0.000222785 0)
(0.000933361 -0.000219969 0)
(0.00092986 -0.000217203 0)
(0.000926425 -0.000214489 0)
(0.000923011 -0.000211828 0)
(0.0010795 -0.000364252 0)
(0.00107458 -0.000358216 0)
(0.00106974 -0.000352357 0)
(0.00106496 -0.000346649 0)
(0.00106024 -0.000341098 0)
(0.00105558 -0.000335686 0)
(0.00105097 -0.000330415 0)
(0.0010464 -0.000325274 0)
(0.00104187 -0.000320261 0)
(0.00103739 -0.000315369 0)
(0.00103294 -0.000310594 0)
(0.00102854 -0.000305933 0)
(0.00102416 -0.000301381 0)
(0.00101983 -0.000296935 0)
(0.00101552 -0.000292591 0)
(0.00101126 -0.000288347 0)
(0.00100702 -0.000284197 0)
(0.00100282 -0.00028014 0)
(0.000998654 -0.000276173 0)
(0.000994522 -0.000272292 0)
(0.000990424 -0.000268496 0)
(0.000986361 -0.000264781 0)
(0.000982333 -0.000261144 0)
(0.000978341 -0.000257584 0)
(0.000974385 -0.000254097 0)
(0.000970466 -0.000250681 0)
(0.000966582 -0.000247334 0)
(0.000962737 -0.000244054 0)
(0.000958927 -0.000240838 0)
(0.000955159 -0.000237685 0)
(0.000951424 -0.000234591 0)
(0.000947735 -0.000231557 0)
(0.000944075 -0.000228578 0)
(0.000940467 -0.000225656 0)
(0.000936885 -0.000222785 0)
(0.000933361 -0.000219969 0)
(0.00092986 -0.000217203 0)
(0.000926425 -0.000214489 0)
(0.000923011 -0.000211828 0)
(0.000903459 -0.000222197 0)
(0.000887823 -0.00023458 0)
(0.000872054 -0.0002474 0)
(0.000855982 -0.000260772 0)
(0.000839737 -0.000274598 0)
(0.000823197 -0.000288987 0)
(0.000806456 -0.000303862 0)
(0.000789425 -0.000319304 0)
(0.000772167 -0.000335263 0)
(0.000754616 -0.000351792 0)
(0.000736818 -0.000368858 0)
(0.000718709 -0.000386496 0)
(0.00070034 -0.000404666 0)
(0.00068164 -0.000423404 0)
(0.000662656 -0.000442624 0)
(0.000643358 -0.000462347 0)
(0.000623694 -0.000482477 0)
(0.000603833 -0.000502744 0)
(0.000583669 -0.00052327 0)
(0.000562381 -0.000544819 0)
(0.00053896 -0.000568524 0)
(0.000512622 -0.000595319 0)
(0.000483231 -0.000625547 0)
(0.000451379 -0.000658744 0)
(0.000417972 -0.00069395 0)
(0.000383818 -0.000730195 0)
(0.000349512 -0.000766766 0)
(0.000315529 -0.00080302 0)
(0.000282264 -0.000838351 0)
(0.000250051 -0.000872192 0)
(0.000219184 -0.000904026 0)
(0.000189855 -0.00093342 0)
(0.000162174 -0.000960047 0)
(0.000136116 -0.000983683 0)
(0.000111534 -0.00100422 0)
(8.81697e-05 -0.00102159 0)
(6.56378e-05 -0.00103575 0)
(4.35363e-05 -0.00104645 0)
(2.1693e-05 -0.00105317 0)
(0 -0.00105487 0)
(0 -0.0010541 0)
(0 -0.001053 0)
(0 -0.00105135 0)
(0 -0.00104902 0)
(0 -0.00104585 0)
(0 -0.00104171 0)
(0 -0.00103648 0)
(0 -0.00103001 0)
(0 -0.0010222 0)
(0 -0.00101294 0)
(0 -0.00100215 0)
(0 -0.000989738 0)
(0 -0.000975635 0)
(0 -0.000959801 0)
(0 -0.000942184 0)
(0 -0.00092274 0)
(0 -0.00090147 0)
(0 -0.000878314 0)
(0 -0.000853296 0)
(0 -0.000826381 0)
(0 -0.000797564 0)
(0 -0.000766856 0)
(0 -0.000734249 0)
(0 -0.000699741 0)
(0 -0.000663364 0)
(0 -0.000625114 0)
(0 -0.000585025 0)
(0 -0.000543124 0)
(0 -0.000499459 0)
(0 -0.000454077 0)
(0 -0.000407046 0)
(0 -0.000358448 0)
(0 -0.000308392 0)
(0 -0.000256996 0)
(0 -0.0002044 0)
(0 -0.000150777 0)
(0 -9.63116e-05 0)
(0 -4.1209e-05 0)
(7.65852e-05 1.10348e-05 4.68151e-20)
(0.000152206 1.27314e-06 -1.26071e-20)
(0.000225982 -1.48062e-05 -4.32135e-20)
(0.000297159 -3.68664e-05 -1.68248e-20)
(0.000365171 -6.44362e-05 8.6263e-21)
(0.000429716 -9.69042e-05 -5.29853e-21)
(0.000490748 -0.000133459 -1.29778e-20)
(0.000548409 -0.000173294 3.44977e-21)
(0.000602957 -0.000215632 2.341e-20)
(0.000654672 -0.000259778 1.57704e-20)
(0.000703667 -0.000305199 1.05011e-20)
(0.000749905 -0.000351357 1.78149e-20)
(0.000793129 -0.000397646 -2.40706e-23)
(0.000832907 -0.00044315 8.82655e-21)
(0.000868725 -0.000486415 3.91906e-21)
(0.00090008 -0.000525832 -9.09929e-21)
(0.000926663 -0.00055993 -1.47171e-20)
(0.000948076 -0.000586825 -1.93577e-20)
(0.000963725 -0.00060382 -4.66192e-21)
(0.000973546 -0.000609065 7.02973e-21)
(0.000978816 -0.000603857 1.32485e-21)
(0.000981764 -0.000592432 -6.05099e-21)
(0.000984445 -0.000578997 -4.09322e-21)
(0.000987872 -0.000565504 -1.28391e-21)
(0.00099196 -0.000552239 -2.7416e-21)
(0.000996566 -0.00053919 3.4083e-21)
(0.00100163 -0.000526319 4.1661e-21)
(0.00100707 -0.000513606 -1.16651e-23)
(0.00101282 -0.000501029 1.35201e-22)
(0.00101882 -0.000488582 -3.19841e-21)
(0.00102503 -0.000476252 -3.20889e-21)
(0.00103139 -0.00046404 1.38305e-21)
(0.00103789 -0.000451939 2.88446e-21)
(0.00104448 -0.000439953 2.70095e-21)
(0.00105113 -0.00042808 3.79553e-21)
(0.00105781 -0.00041632 6.00639e-22)
(0.00106452 -0.000404678 -4.78443e-21)
(0.00107121 -0.000393152 -1.70196e-21)
(0.00107788 -0.000381748 7.6774e-22)
(0.00109107 -0.0003593 -5.37546e-22)