/*--------------------------------*- C++ -*----------------------------------*\
| =========                 |                                                 |
| \\      /  F ield         | OpenFOAM: The Open Source CFD Toolbox           |
|  \\    /   O peration     | Version:  v2012                                 |
|   \\  /    A nd           | Website:  www.openfoam.com                      |
|    \\/     M anipulation  |                                                 |
\*---------------------------------------------------------------------------*/
FoamFile
{
    version     2.0;
    format      ascii;
    class       volSymmTensorField;
    location    "13";
    object      epsilon;
}
// * * * * * * * * * * * * * * * * * * * * * * * * * * * * * * * * * * * * * //

dimensions      [0 0 0 0 0 0 0];


internalField   nonuniform List<symmTensor> 
16000
(
(0.0115743 -0.000218368 -1.3122e-19 -0.0104403 5.7992e-18 2.57433e-32)
(0.0115101 -0.000215285 3.96818e-18 -0.0102893 5.65837e-18 0)
(0.0114027 -0.000214801 8.1322e-21 -0.0100968 -5.60674e-18 0)
(0.0112713 -0.000211886 7.62372e-18 -0.00988339 -1.10511e-17 0)
(0.0111135 -0.000209301 -3.71872e-18 -0.00964274 2.94848e-20 0)
(0.0109324 -0.000205789 -3.86914e-26 -0.00938497 2.78036e-24 0)
(0.0107338 -0.000201704 -3.58829e-18 -0.00910609 -1.00968e-17 0)
(0.0105173 -0.000197397 9.87375e-20 -0.00881752 9.79173e-18 0)
(0.0102888 -0.000192586 -3.22958e-18 -0.00851226 4.73027e-18 0)
(0.0100467 -0.000187445 -6.41433e-18 -0.00820224 -4.55565e-18 0)
(0.00979826 -0.000181594 -2.99047e-18 -0.00788111 4.37057e-18 0)
(0.00954144 -0.00017622 2.94911e-18 -0.00756011 8.98072e-21 0)
(0.00928064 -0.000170517 -4.24002e-26 -0.00723101 -8.45435e-25 0)
(0.00901409 -0.000164747 1.74797e-19 -0.00690411 7.66608e-18 0)
(0.00874527 -0.0001584 7.76112e-18 -0.00657155 -3.59238e-18 0)
(0.0084753 -0.000152757 -1.90301e-19 -0.00624495 -6.93391e-18 0)
(0.00820266 -0.000146927 9.94745e-20 -0.0059133 3.28276e-18 0)
(0.00792782 -0.000140176 -4.2229e-27 -0.00558589 5.57568e-25 0)
(0.00765658 -0.000134325 -4.02586e-26 -0.00526057 -5.09477e-25 0)
(0.00738065 -0.000128073 -4.08795e-18 -0.00493645 2.67826e-18 0)
(0.00710665 -0.000121016 -1.10021e-19 -0.00461408 -2.56121e-18 0)
(0.0068349 -0.000114689 -2.13313e-18 -0.0042994 -4.8084e-18 0)
(0.0065594 -0.000107109 -1.81045e-18 -0.00398205 -3.77461e-20 0)
(0.00628922 -9.96813e-05 -1.60136e-18 -0.00367573 1.99996e-18 0)
(0.0060181 -9.21052e-05 1.21032e-19 -0.00337081 1.87068e-18 0)
(0.00574845 -8.32556e-05 1.42064e-18 -0.00307362 -1.66052e-18 0)
(0.0054851 -7.43437e-05 -2.91463e-18 -0.0027863 -9.61413e-20 0)
(0.00522134 -6.51583e-05 1.62002e-18 -0.00250564 2.83062e-18 0)
(0.00496674 -5.5072e-05 2.46892e-18 -0.00223887 -1.1367e-18 0)
(0.00471698 -4.54115e-05 -2.55898e-18 -0.00198488 -1.21048e-18 0)
(0.0044761 -3.4755e-05 0 -0.00174495 0 0)
(0.00424729 -2.42693e-05 -1.13392e-19 -0.00152521 -8.45589e-19 0)
(0.00402912 -1.38458e-05 -1.01355e-18 -0.00132133 -5.82685e-20 0)
(0.00382686 -3.11674e-06 -8.53648e-19 -0.00114072 5.73587e-19 0)
(0.0036401 7.01458e-06 -8.99651e-19 -0.000980755 -5.82342e-20 0)
(0.00347028 1.70767e-05 -1.7833e-18 -0.000842815 -5.81261e-19 0)
(0.0033203 2.68692e-05 -1.61285e-18 -0.000729059 -1.12478e-19 0)
(0.00318831 3.68255e-05 1.80856e-19 -0.000637002 1.05734e-18 0)
(0.00307885 4.5211e-05 6.85264e-19 -0.000582002 -2.69048e-19 0)
(0.00298506 5.04895e-05 -8.34874e-19 -0.000565207 -9.89539e-19 0)
(0.0114752 -0.000649651 -4.22757e-18 -0.0103395 3.07476e-18 6.50641e-33)
(0.0114107 -0.000640683 1.18009e-17 -0.0101882 4.89535e-18 0)
(0.0113058 -0.000638994 3.92813e-18 -0.00999818 -1.13338e-17 0)
(0.0111782 -0.000630939 -1.24894e-20 -0.009789 -5.57731e-18 0)
(0.0110239 -0.00062292 -3.58751e-18 -0.00955156 1.08418e-17 0)
(0.0108469 -0.000612668 4.98095e-26 -0.00929839 1.37784e-24 0)
(0.0106527 -0.00060069 -2.32915e-19 -0.00902391 -9.97891e-18 0)
(0.0104395 -0.000587723 -3.08744e-18 -0.00873909 9.80339e-18 0)
(0.0102164 -0.000573685 7.05308e-18 -0.00843923 1.39964e-17 0)
(0.00997935 -0.0005589 -6.50541e-18 -0.00813444 -4.3226e-18 0)
(0.00973485 -0.000542382 -4.2368e-19 -0.00781729 -8.64121e-18 0)
(0.00948081 -0.000525777 5.63846e-18 -0.00749929 -4.25126e-18 0)
(0.00922353 -0.000508689 -2.57947e-18 -0.00717366 3.99178e-18 0)
(0.00896047 -0.00049214 2.45483e-18 -0.00685025 -3.79931e-18 0)
(0.00869433 -0.000473325 1.01506e-17 -0.00652039 -3.66792e-18 0)
(0.00842465 -0.000455637 2.84551e-19 -0.00619406 3.43956e-18 0)
(0.00815473 -0.000438543 2.97244e-19 -0.00586517 3.25625e-18 0)
(0.00788216 -0.000418868 4.58566e-18 -0.00554014 9.44548e-20 0)
(0.00760719 -0.000399748 2.82107e-18 -0.00521135 5.84041e-18 0)
(0.00733418 -0.000381719 4.51584e-18 -0.00489074 2.90015e-18 0)
(0.00705769 -0.000359583 -6.65051e-19 -0.00456644 -5.06497e-18 0)
(0.00678149 -0.000339337 -3.38679e-19 -0.00424854 -2.33207e-18 0)
(0.00650741 -0.000317476 -1.79909e-18 -0.00393391 -7.32852e-20 0)
(0.00622949 -0.000293111 1.71267e-18 -0.00362176 1.23107e-19 0)
(0.00595797 -0.000269289 -3.63346e-19 -0.00331864 -1.83675e-18 0)
(0.00568531 -0.000242884 1.89381e-18 -0.00302098 1.77817e-18 0)
(0.00541707 -0.000215564 -2.88425e-18 -0.002732 -2.37473e-19 0)
(0.00515507 -0.000188136 -7.44115e-19 -0.00245633 -2.72417e-18 0)
(0.00489736 -0.000157875 2.00869e-18 -0.00219028 2.54207e-18 0)
(0.00465134 -0.000128409 3.68139e-19 -0.00194331 1.08919e-18 0)
(0.00441322 -9.7627e-05 -2.97314e-18 -0.00170999 -2.20329e-18 0)
(0.00418916 -6.62029e-05 0 -0.00149789 0 0)
(0.0039786 -3.65236e-05 -6.83295e-19 -0.00130477 5.51514e-19 0)
(0.00378307 -4.9041e-06 1.24786e-18 -0.00113276 7.93319e-19 0)
(0.0036061 2.33326e-05 -6.20084e-19 -0.000984183 3.71558e-19 0)
(0.00344467 5.29083e-05 -8.43545e-19 -0.000854869 -1.58521e-19 0)
(0.00330409 7.99707e-05 -1.22842e-18 -0.000751004 -9.68207e-19 0)
(0.00318092 0.000107207 -7.68759e-19 -0.000664974 -1.58227e-19 0)
(0.00307334 0.000132017 2.20684e-18 -0.000605885 4.55865e-19 0)
(0.00298992 0.000148978 -1.15905e-18 -0.000592486 2.47997e-19 0)
(0.0112846 -0.00106605 -3.32192e-18 -0.0101454 -5.33733e-18 2.43188e-32)
(0.0112173 -0.00105131 4.02108e-18 -0.00999177 -6.13826e-18 0)
(0.0111154 -0.00104772 -9.92534e-20 -0.00980426 1.08953e-17 0)
(0.0109924 -0.00103512 -3.72651e-18 -0.00960059 4.46031e-19 0)
(0.0108459 -0.00102234 -7.81656e-27 -0.00937076 -1.46892e-24 0)
(0.0106777 -0.00100608 3.40447e-18 -0.00912718 -5.32752e-18 0)
(0.0104922 -0.000986928 3.24949e-18 -0.00886133 -5.19557e-18 0)
(0.0102879 -0.000966217 -6.66958e-18 -0.00858593 3.75477e-19 0)
(0.0100726 -0.000942524 7.00551e-18 -0.00829396 8.83272e-18 0)
(0.00984395 -0.000919345 6.56278e-18 -0.00799808 4.25734e-18 0)
(0.00960761 -0.000893342 -7.08309e-18 -0.00768904 -1.27486e-17 0)
(0.00936123 -0.000866832 -2.53397e-18 -0.007379 4.11079e-18 0)
(0.00910919 -0.000838036 -2.39188e-18 -0.00705857 3.99519e-18 0)
(0.00885134 -0.000810657 -1.29335e-18 -0.00674056 -1.12862e-17 0)
(0.00859069 -0.000781431 -2.59233e-18 -0.00641608 -5.34545e-20 0)
(0.00832314 -0.000750846 9.42884e-19 -0.00609232 6.76929e-18 0)
(0.00805493 -0.000720197 -2.86874e-18 -0.0057652 -3.25377e-18 0)
(0.00778343 -0.000689538 1.75475e-18 -0.00544198 -3.01075e-18 0)
(0.00750773 -0.000655395 -2.17886e-18 -0.00511323 -1.17092e-19 0)
(0.00723074 -0.000622224 7.2851e-18 -0.00478992 5.51777e-18 0)
(0.00695296 -0.00058694 5.6025e-19 -0.00446612 2.4715e-18 0)
(0.00666986 -0.000548835 1.29789e-18 -0.00414365 -2.17148e-18 0)
(0.00639097 -0.000511116 2.97497e-18 -0.00382732 -1.79288e-18 0)
(0.00610897 -0.000469644 1.67654e-18 -0.00351468 1.40146e-19 0)
(0.00582957 -0.000426795 6.09827e-19 -0.00320828 1.7644e-18 0)
(0.00555569 -0.000383022 -8.90007e-19 -0.0029146 1.3868e-18 0)
(0.00528308 -0.00033628 6.1939e-19 -0.00262718 1.43752e-18 0)
(0.00502356 -0.000289278 -1.95333e-18 -0.00236013 -1.51784e-18 0)
(0.00476876 -0.000240492 -4.38807e-18 -0.00210353 -1.89637e-18 0)
(0.00452938 -0.00019104 4.74631e-18 -0.00186952 2.80018e-18 0)
(0.00430155 -0.000142531 1.0474e-20 -0.00165254 1.61063e-20 0)
(0.00408935 -9.24145e-05 1.00255e-18 -0.00145769 -1.006e-18 0)
(0.00389394 -4.59175e-05 1.46624e-18 -0.00128384 -1.24125e-19 0)
(0.00371524 2.59368e-06 4.72998e-19 -0.00113197 5.88327e-19 0)
(0.00355526 4.62711e-05 8.78939e-19 -0.00100127 1.05261e-18 0)
(0.00341191 9.08995e-05 4.51333e-19 -0.000891003 -1.98489e-19 0)
(0.00328731 0.000132177 8.04555e-19 -0.000800513 2.59473e-19 0)
(0.00317604 0.000170485 4.84222e-19 -0.00072518 -1.15452e-19 0)
(0.00308068 0.000210504 7.37849e-19 -0.000667155 2.39984e-19 0)
(0.00299727 0.000239072 9.91437e-19 -0.000640934 1.56812e-18 0)
(0.011014 -0.0014588 4.46502e-19 -0.0098696 -2.80523e-18 6.14526e-33)
(0.0109405 -0.00143825 -7.59286e-18 -0.0097106 1.23123e-18 0)
(0.0108393 -0.00143242 -9.43016e-22 -0.00952309 6.49739e-20 0)
(0.0107202 -0.00141519 -3.64593e-18 -0.00932465 -4.85216e-18 0)
(0.0105828 -0.00139775 -3.55362e-18 -0.00910344 3.93466e-19 0)
(0.0104253 -0.0013768 -1.75124e-19 -0.0088717 -5.03738e-18 0)
(0.0102526 -0.00135209 2.47309e-19 -0.00861855 4.8324e-18 0)
(0.0100623 -0.00132553 -2.95639e-18 -0.00835814 4.97241e-18 0)
(0.00985968 -0.00129413 -3.54221e-18 -0.00807887 -4.27888e-18 0)
(0.00964216 -0.00126242 7.4123e-18 -0.00779472 1.26769e-17 0)
(0.00941723 -0.00122715 3.45918e-18 -0.00749716 4.21489e-18 0)
(0.00918072 -0.00119236 -6.75666e-18 -0.00719734 -7.79204e-18 0)
(0.00893774 -0.00115372 2.7623e-18 -0.00688606 -4.43235e-20 0)
(0.00868591 -0.00111461 2.07242e-18 -0.00657448 -3.6371e-18 0)
(0.00842916 -0.00107357 -8.2746e-18 -0.00625417 -3.45513e-18 0)
(0.00816533 -0.00103163 -1.794e-18 -0.0059347 3.25424e-18 0)
(0.00789598 -0.000986776 -4.68731e-18 -0.00560739 -1.12683e-19 0)
(0.00762239 -0.000941039 -4.48225e-18 -0.00528321 -1.70371e-19 0)
(0.007344 -0.000892942 -2.12797e-18 -0.00495368 -7.23358e-20 0)
(0.00706042 -0.000842308 7.70262e-21 -0.00462605 2.56775e-20 0)
(0.00677623 -0.000789872 1.94229e-18 -0.00429912 1.83535e-19 0)
(0.0064886 -0.00073431 -6.00162e-19 -0.00397601 -6.34323e-18 0)
(0.00620048 -0.000676692 3.47748e-18 -0.00365544 4.3806e-19 0)
(0.00591662 -0.000616726 -1.5926e-18 -0.00334693 3.13863e-18 0)
(0.00563273 -0.000554393 -6.96867e-19 -0.00304268 1.36242e-18 0)
(0.00535926 -0.000490387 -2.0655e-18 -0.00275721 8.74625e-19 0)
(0.0050924 -0.000424696 0 -0.00248335 0 0)
(0.00483786 -0.000358624 2.17099e-18 -0.00223006 1.54435e-18 0)
(0.00459763 -0.000292069 -4.47776e-19 -0.00199587 -1.72605e-18 0)
(0.00437187 -0.000226266 -2.81494e-18 -0.00178372 -2.26218e-18 0)
(0.00416537 -0.000161721 2.48557e-18 -0.00159412 3.1577e-19 0)
(0.0039751 -9.85023e-05 -1.5108e-18 -0.00142703 -1.48496e-18 0)
(0.00380514 -3.78739e-05 1.10587e-18 -0.00128163 1.56298e-18 0)
(0.00365166 2.15729e-05 1.94186e-18 -0.00115779 1.76742e-18 0)
(0.00351607 7.67443e-05 1.78128e-18 -0.00105053 7.54136e-19 0)
(0.00339551 0.000130672 -5.17707e-19 -0.000963189 -4.78938e-19 0)
(0.00328753 0.000180107 -9.03776e-19 -0.000884469 -8.72771e-19 0)
(0.00318947 0.00022651 -6.58406e-21 -0.000821643 -6.85594e-21 0)
(0.00310362 0.000271292 3.2306e-19 -0.000763854 3.75309e-19 0)
(0.00301389 0.000307752 7.21417e-19 -0.000712229 3.17707e-19 0)
(0.0106813 -0.0018222 3.76701e-18 -0.00952983 -5.77359e-19 -3.49467e-36)
(0.0105961 -0.00179588 -3.44918e-18 -0.00936072 -4.52024e-18 0)
(0.0104928 -0.00178638 7.09872e-18 -0.00916991 3.82539e-18 0)
(0.0103767 -0.00176513 -6.40212e-21 -0.00897622 5.21409e-18 0)
(0.0102467 -0.00174305 -3.54704e-18 -0.00876186 -4.39315e-18 0)
(0.0100989 -0.00171756 2.97101e-18 -0.00854124 -1.00452e-17 0)
(0.00993992 -0.00168736 -6.5566e-18 -0.00830171 7.49426e-19 0)
(0.00976385 -0.0016559 9.94035e-18 -0.00805656 3.60041e-18 0)
(0.00957629 -0.00161931 -3.54938e-18 -0.00779234 -4.13027e-18 0)
(0.00937386 -0.00158165 2.47863e-18 -0.00752409 -4.43149e-18 0)
(0.00916109 -0.00153846 1.50883e-17 -0.00723875 3.11774e-18 0)
(0.00893612 -0.00149483 3.45263e-18 -0.0069512 3.78787e-18 0)
(0.0087021 -0.00144634 -4.11188e-18 -0.00664906 -7.4158e-18 0)
(0.00845607 -0.00139701 7.32779e-19 -0.0063442 3.46628e-18 0)
(0.00820152 -0.00134326 -9.06932e-19 -0.00602684 6.73087e-18 0)
(0.00793836 -0.00128757 -3.9583e-18 -0.00570952 3.08481e-18 0)
(0.00766737 -0.00122764 4.61089e-18 -0.00538224 2.33532e-19 0)
(0.00738732 -0.00116534 -1.83452e-18 -0.00505423 -5.56196e-18 0)
(0.00710247 -0.00109923 2.2593e-18 -0.00472131 -4.86957e-18 0)
(0.0068129 -0.00102961 -5.99085e-18 -0.00439204 -6.85958e-19 0)
(0.00651888 -0.000956432 5.66704e-18 -0.00406018 7.58224e-19 0)
(0.00622658 -0.00088107 -3.40379e-19 -0.00373887 -3.78677e-18 0)
(0.00593455 -0.000801611 -4.61266e-18 -0.00342137 2.35261e-18 0)
(0.00564851 -0.000721754 3.33015e-18 -0.00311921 5.03525e-18 0)
(0.00537185 -0.00063856 -3.84245e-19 -0.00283081 1.11647e-18 0)
(0.00510487 -0.000556284 2.86376e-18 -0.00256153 8.75715e-19 0)
(0.00485519 -0.000472739 4.66068e-19 -0.00231384 -1.50036e-18 0)
(0.00461874 -0.000391578 -2.20045e-18 -0.00208788 -2.16171e-18 0)
(0.00440554 -0.000310541 4.64167e-18 -0.00188828 2.39946e-18 0)
(0.00420896 -0.000232804 -1.11917e-18 -0.00171197 -4.80249e-19 0)
(0.00403505 -0.000157787 -9.8436e-19 -0.00155928 -7.80778e-19 0)
(0.00387921 -8.46605e-05 8.18191e-19 -0.00142974 9.17403e-19 0)
(0.00374087 -1.5601e-05 -4.75339e-18 -0.00131744 -2.58862e-18 0)
(0.00361953 4.96256e-05 -1.56641e-18 -0.00122424 -1.18561e-18 0)
(0.0035097 0.000111688 1.38976e-18 -0.00114146 1.07637e-18 0)
(0.00341033 0.000168117 6.25009e-19 -0.00107101 5.05601e-19 0)
(0.00331718 0.000222056 8.31797e-19 -0.00100428 4.42166e-19 0)
(0.00322949 0.000270578 -1.2694e-18 -0.000946014 -8.59846e-19 0)
(0.00314455 0.000314898 3.56743e-19 -0.000886581 -2.59726e-22 0)
(0.0030587 0.000357496 3.44768e-19 -0.000831061 3.80715e-19 0)
(0.0103093 -0.00215475 3.00427e-18 -0.00914868 1.97386e-18 5.04412e-33)
(0.0102026 -0.0021209 7.35189e-18 -0.00896081 -6.93233e-18 0)
(0.0100894 -0.0021046 -3.32461e-18 -0.00875872 -4.3023e-18 0)
(0.00997091 -0.00207867 3.34332e-18 -0.00856469 9.00072e-18 0)
(0.00984528 -0.00205211 3.22331e-18 -0.00835404 -5.40408e-18 0)
(0.00970776 -0.00202294 -4.9121e-21 -0.00814517 -1.08813e-19 0)
(0.00956106 -0.00198835 -6.64265e-18 -0.0079177 -3.48189e-18 0)
(0.00939921 -0.00195309 -6.18192e-18 -0.00768793 6.28989e-19 0)
(0.00922643 -0.00191088 3.52147e-18 -0.00743853 3.94667e-18 0)
(0.00903876 -0.00186781 -1.82023e-18 -0.00718601 -1.22416e-17 0)
(0.00883818 -0.00181747 -4.96791e-18 -0.00691316 4.24106e-18 0)
(0.00862202 -0.00176546 5.76808e-18 -0.0066355 1.47668e-17 0)
(0.00839322 -0.00170694 8.50682e-19 -0.00633949 3.63531e-18 0)
(0.00815005 -0.00164557 -3.41782e-18 -0.00603908 -3.28872e-18 0)
(0.00789584 -0.00157724 5.83785e-18 -0.00572386 3.26578e-18 0)
(0.00762887 -0.00150539 -2.03617e-18 -0.00540538 -5.97452e-18 0)
(0.00735088 -0.00142816 2.27008e-18 -0.00507438 -5.40852e-18 0)
(0.00706323 -0.00134617 4.24903e-18 -0.0047431 3.73856e-19 0)
(0.00677085 -0.00125875 -5.02757e-19 -0.00440779 6.69949e-18 0)
(0.0064719 -0.00116798 -3.11156e-18 -0.0040756 -2.43137e-18 0)
(0.00617439 -0.00107312 -5.13925e-18 -0.00374772 -8.11281e-18 0)
(0.00587938 -0.000975467 5.25391e-18 -0.00343217 7.32177e-18 0)
(0.00559262 -0.000876584 -1.86777e-18 -0.00312948 8.09479e-19 0)
(0.00531727 -0.000776462 1.70381e-19 -0.00284753 -1.00404e-18 0)
(0.00505844 -0.000677104 -1.36112e-18 -0.00258746 -1.32869e-18 0)
(0.00481794 -0.000579123 -1.36835e-18 -0.00235342 -1.85709e-18 0)
(0.00459822 -0.000483801 6.54713e-18 -0.00214526 3.85318e-18 0)
(0.00440347 -0.000391021 -1.22541e-18 -0.00196659 -5.85656e-19 0)
(0.00422818 -0.00030186 -3.60208e-18 -0.00181189 -2.07887e-18 0)
(0.00407973 -0.000217277 1.17753e-18 -0.00168499 7.93346e-19 0)
(0.00394091 -0.000136014 -3.2593e-18 -0.00157066 -1.93335e-18 0)
(0.0038172 -5.89434e-05 1.04863e-18 -0.00147361 7.63938e-19 0)
(0.00371831 1.2068e-05 2.92532e-18 -0.00139675 1.8708e-18 0)
(0.00362426 8.03961e-05 -2.77192e-18 -0.00132933 -1.73363e-18 0)
(0.00353612 0.000142023 -1.82635e-18 -0.00126293 -1.09851e-18 0)
(0.00345311 0.00020055 -5.42013e-19 -0.00120564 -5.45022e-19 0)
(0.00336981 0.00025382 -6.43447e-19 -0.00114438 -5.1457e-19 0)
(0.00328773 0.0003029 -4.80824e-21 -0.00108751 -4.09674e-21 0)
(0.00320505 0.000347492 -7.94416e-19 -0.00102768 -4.89329e-19 0)
(0.00312169 0.000388094 1.11958e-18 -0.000969044 1.04715e-18 0)
(0.00992106 -0.00245773 4.23018e-18 -0.00874924 -3.40378e-18 6.26094e-33)
(0.00978591 -0.00241374 6.50604e-18 -0.00853652 2.85653e-18 0)
(0.00965357 -0.00238751 -3.65218e-18 -0.00831377 1.07257e-17 0)
(0.00952409 -0.00235408 -6.45172e-18 -0.00811118 -3.02257e-18 0)
(0.0093955 -0.00232088 3.1754e-18 -0.00789686 -7.79535e-19 0)
(0.00926244 -0.00228739 2.14599e-19 -0.007694 4.55297e-18 0)
(0.00912334 -0.00224842 6.73196e-18 -0.00747386 7.52208e-18 0)
(0.00897258 -0.00220917 -1.27126e-17 -0.00725645 -6.24983e-18 0)
(0.00881071 -0.00216179 1.18025e-18 -0.00701809 -1.25235e-17 0)
(0.00863183 -0.00211251 1.3496e-18 -0.0067758 7.77341e-18 0)
(0.00843851 -0.00205453 2.5615e-20 -0.00651099 1.22644e-19 0)
(0.00822601 -0.00199284 -3.4999e-18 -0.00623896 -3.38184e-18 0)
(0.00799872 -0.00192149 5.05505e-18 -0.00594619 -2.22359e-19 0)
(0.00775386 -0.00184543 1.38168e-18 -0.00564697 -3.20143e-18 0)
(0.00749402 -0.0017598 5.79814e-18 -0.0053293 3.04705e-18 0)
(0.00721914 -0.00167001 5.6895e-18 -0.00500739 3.02666e-18 0)
(0.00693173 -0.00157125 -2.56652e-18 -0.00467205 -5.10586e-18 0)
(0.00663848 -0.00146734 4.74457e-18 -0.00434169 4.98602e-18 0)
(0.00633881 -0.00135829 -2.404e-18 -0.00400657 1.5192e-18 0)
(0.00604009 -0.00124544 2.49844e-18 -0.00368355 -2.72546e-18 0)
(0.00574863 -0.00112984 -1.49588e-18 -0.00337123 -1.7328e-18 0)
(0.00546633 -0.00101358 -2.67287e-25 -0.00307925 -2.59152e-25 0)
(0.00520142 -0.000897824 4.6591e-18 -0.00280862 2.55967e-18 0)
(0.00495651 -0.00078385 1.58547e-18 -0.00256804 1.27641e-18 0)
(0.00473431 -0.000673336 1.76328e-19 -0.00235329 4.91021e-19 0)
(0.00453784 -0.000566751 -7.27206e-18 -0.00217194 -4.44832e-18 0)
(0.00436685 -0.000464662 -1.41175e-20 -0.00201707 -8.8622e-21 0)
(0.00422056 -0.000367826 5.55915e-18 -0.00189199 3.31182e-18 0)
(0.00409569 -0.000275324 2.54007e-20 -0.00178736 1.49142e-20 0)
(0.00398601 -0.000191168 1.19239e-20 -0.00170032 6.93657e-21 0)
(0.00387758 -0.000105752 -1.4712e-18 -0.00161378 -9.38307e-19 0)
(0.00380837 -3.43702e-05 -2.16119e-18 -0.0015655 -1.35243e-18 0)
(0.00373549 3.98972e-05 9.93073e-19 -0.0015118 6.50538e-19 0)
(0.00365734 0.000104431 -1.79145e-20 -0.00145577 -1.68118e-20 0)
(0.00358374 0.000166259 7.10862e-20 -0.00140039 2.69604e-20 0)
(0.00350815 0.000224216 -8.02809e-19 -0.00134739 -5.81266e-19 0)
(0.00343047 0.000276115 -1.55302e-19 -0.0012883 -4.50081e-20 0)
(0.00335284 0.000326284 5.53245e-21 -0.00123377 4.42057e-21 0)
(0.0032729 0.000369805 -3.04584e-18 -0.00117272 -2.17491e-18 0)
(0.00319197 0.000411437 -8.25576e-19 -0.00111561 -7.01303e-19 0)
(0.00953505 -0.00273526 -3.38879e-18 -0.00835011 8.17939e-19 -1.27848e-35)
(0.00936918 -0.00267911 -6.80633e-18 -0.00811076 7.0253e-18 0)
(0.00921173 -0.0026399 2.6747e-18 -0.00786183 1.29196e-17 0)
(0.00906416 -0.00259612 -6.03289e-22 -0.00764351 5.41117e-20 0)
(0.00892236 -0.00255315 -3.26219e-18 -0.00741553 -1.22912e-17 0)
(0.00878121 -0.00251125 5.69733e-18 -0.00720612 -5.76554e-18 0)
(0.00863843 -0.00246438 3.89729e-18 -0.00698226 1.15276e-17 0)
(0.00848647 -0.00241771 1.1728e-17 -0.00676516 1.78983e-18 0)
(0.00832458 -0.00236215 -7.28404e-18 -0.00652743 -1.04373e-17 0)
(0.00814577 -0.00230399 -1.46807e-18 -0.00628731 -7.28292e-18 0)
(0.00795085 -0.00223455 6.85308e-18 -0.0060226 6.30072e-18 0)
(0.00773607 -0.00215963 4.46258e-18 -0.00575136 6.43163e-18 0)
(0.00750288 -0.0020724 -1.08984e-18 -0.00545586 -3.08131e-18 0)
(0.00724962 -0.00197851 -3.52216e-18 -0.00515281 -2.92306e-18 0)
(0.00698056 -0.00187322 -4.44552e-18 -0.00483115 -2.58207e-19 0)
(0.00669631 -0.00176176 2.10825e-18 -0.0045064 1.94049e-19 0)
(0.00640554 -0.00164092 -1.51844e-18 -0.0041754 -2.28327e-18 0)
(0.00611039 -0.00151583 1.25046e-18 -0.00385204 3.71275e-18 0)
(0.00581762 -0.00138596 5.28933e-18 -0.00353406 2.77908e-18 0)
(0.00553611 -0.00125539 -6.87708e-18 -0.00323897 -5.53195e-18 0)
(0.0052682 -0.00112394 1.48566e-18 -0.00296175 -2.90337e-19 0)
(0.00502243 -0.000996489 2.00782e-18 -0.00271706 1.99106e-18 0)
(0.00480063 -0.000871326 1.78601e-18 -0.00249986 1.19177e-18 0)
(0.00460682 -0.00075294 2.13451e-18 -0.00231867 1.40678e-18 0)
(0.00444006 -0.000639368 4.45336e-18 -0.00216562 2.5362e-18 0)
(0.00430159 -0.000532928 -5.06997e-18 -0.00204611 -2.72325e-18 0)
(0.00418698 -0.000431683 -5.35041e-18 -0.00194867 -3.22186e-18 0)
(0.00409108 -0.000337624 2.39331e-18 -0.00187375 1.57807e-18 0)
(0.00401143 -0.000249544 -1.19283e-18 -0.00181064 -8.01209e-19 0)
(0.00393939 -0.000165221 5.25609e-18 -0.00175905 2.99163e-18 0)
(0.003881 -8.78768e-05 1.1677e-20 -0.00171587 6.50027e-21 0)
(0.00382686 -1.48066e-05 -1.429e-19 -0.00167842 4.23599e-20 0)
(0.00376104 5.53118e-05 1.19889e-18 -0.00163034 6.25005e-19 0)
(0.00369675 0.000119857 -1.68345e-20 -0.00158296 7.04774e-20 0)
(0.00363075 0.000181068 -9.56787e-19 -0.00153453 -6.34084e-19 0)
(0.00356088 0.00023866 -9.34473e-19 -0.00148321 -6.78981e-19 0)
(0.00348994 0.000291215 -8.00591e-19 -0.00142964 -5.76696e-19 0)
(0.00341724 0.000341332 2.33902e-18 -0.00137662 1.74758e-18 0)
(0.00334306 0.000386118 -8.40436e-19 -0.00131971 -6.25855e-19 0)
(0.00326742 0.000428009 -3.9202e-19 -0.00126458 -3.71783e-19 0)
(0.00916128 -0.0029919 -1.82128e-20 -0.0079613 6.22994e-20 3.22166e-36)
(0.00896426 -0.00292129 -5.99443e-18 -0.00769489 -2.19574e-18 0)
(0.00877684 -0.00286513 3.03397e-18 -0.00741556 -1.07788e-18 0)
(0.00860271 -0.00280651 1.17626e-17 -0.00717317 3.31776e-19 0)
(0.0084364 -0.00274904 -5.91945e-18 -0.00692064 -6.48502e-18 0)
(0.00827358 -0.00269326 -3.01481e-18 -0.00669147 -3.21324e-18 0)
(0.00811185 -0.00263237 -8.17349e-18 -0.00644904 2.07025e-18 0)
(0.00794312 -0.00257175 8.44241e-18 -0.00621736 1.83925e-18 0)
(0.00776664 -0.00250139 6.48923e-19 -0.00596643 3.53835e-18 0)
(0.00757453 -0.00242801 -4.07739e-18 -0.00571614 -6.26822e-18 0)
(0.00736651 -0.00234159 -8.20879e-18 -0.00544131 -2.40241e-18 0)
(0.00713891 -0.00224872 -1.28528e-18 -0.00516193 3.00305e-18 0)
(0.00689229 -0.00214173 -2.06462e-18 -0.00485806 5.49365e-18 0)
(0.0066281 -0.0020268 -7.88734e-19 -0.00455091 2.45205e-18 0)
(0.00635103 -0.00190021 -5.59811e-18 -0.00422877 -2.70621e-18 0)
(0.00606549 -0.00176735 -3.58265e-18 -0.00391218 -2.4301e-18 0)
(0.00578117 -0.00162751 -1.86102e-18 -0.00359773 -4.10414e-19 0)
(0.00550159 -0.00148558 -3.5528e-18 -0.00330176 -1.03238e-18 0)
(0.00523759 -0.00134256 5.24778e-18 -0.00302407 2.7105e-18 0)
(0.00499446 -0.00120296 -3.82552e-18 -0.00277952 -2.67055e-18 0)
(0.00477659 -0.00106672 -5.02675e-18 -0.0025628 -2.68688e-18 0)
(0.00458931 -0.00093806 2.45631e-18 -0.00238581 1.37459e-18 0)
(0.00443276 -0.000815364 3.34743e-18 -0.00224035 1.81074e-18 0)
(0.00430555 -0.000701774 -3.23963e-18 -0.00212953 -1.75228e-18 0)
(0.00420693 -0.000593889 3.88987e-18 -0.00204587 2.57346e-18 0)
(0.00412895 -0.000494376 3.54457e-18 -0.00198525 1.63051e-18 0)
(0.00406812 -0.000400078 -4.59193e-18 -0.00193939 -2.42795e-18 0)
(0.00401612 -0.00031301 1.59142e-18 -0.00190322 7.59467e-19 0)
(0.00397153 -0.000229183 1.55844e-18 -0.00187237 7.70821e-19 0)
(0.00392874 -0.000150613 -2.78423e-19 -0.00184405 1.01019e-19 0)
(0.00388212 -7.68121e-05 2.22233e-18 -0.00181027 1.64002e-18 0)
(0.00383599 -4.69636e-06 -1.08817e-18 -0.00177948 -8.08419e-19 0)
(0.0037819 6.29353e-05 3.17452e-18 -0.00173942 2.38219e-18 0)
(0.00372646 0.000126787 3.06621e-18 -0.00169967 2.32424e-18 0)
(0.00366804 0.00018826 1.0219e-18 -0.00165573 6.49646e-19 0)
(0.00360578 0.000244734 2.77555e-20 -0.00161059 1.26049e-19 0)
(0.00354214 0.00029823 1.00733e-18 -0.0015613 8.66711e-19 0)
(0.00347673 0.00034825 -1.04518e-19 -0.00151391 -1.41857e-19 0)
(0.00340951 0.000394345 1.01385e-18 -0.00146083 8.47636e-19 0)
(0.0033398 0.000436788 5.67387e-19 -0.00140987 4.72994e-19 0)
(0.00880154 -0.00323043 -1.36805e-18 -0.00758512 4.83485e-18 1.96824e-32)
(0.00857842 -0.00314363 3.00401e-18 -0.0072958 -1.2168e-18 0)
(0.00835952 -0.00306787 3.18062e-18 -0.00698552 -1.40656e-17 0)
(0.00815098 -0.00298873 2.83634e-18 -0.00671118 1.11758e-17 0)
(0.00794838 -0.0029099 2.57876e-19 -0.00642326 7.89549e-18 0)
(0.00774845 -0.00283193 -5.27199e-18 -0.00615953 1.67148e-18 0)
(0.00754986 -0.00274785 -2.94209e-18 -0.00588178 -2.77276e-18 0)
(0.00734622 -0.0026638 -3.56499e-18 -0.0056184 -6.15708e-18 0)
(0.00713611 -0.00256901 5.49206e-18 -0.00533677 2.22737e-18 0)
(0.00691351 -0.00247135 8.65634e-19 -0.00506056 2.97177e-18 0)
(0.00667805 -0.00235996 2.08775e-18 -0.00476325 5.58047e-18 0)
(0.00642766 -0.0022429 -3.06642e-18 -0.00446773 2.74029e-18 0)
(0.00616482 -0.00211228 -1.33647e-18 -0.00415526 -2.27385e-18 0)
(0.00589293 -0.00197616 4.54314e-19 -0.0038497 -1.89169e-18 0)
(0.00561866 -0.0018306 1.8891e-18 -0.00354095 3.40768e-19 0)
(0.00534898 -0.00168303 -3.57915e-18 -0.00325206 -2.11978e-18 0)
(0.00509257 -0.00153245 -1.7177e-18 -0.00297815 -5.68062e-19 0)
(0.0048563 -0.00138583 -3.60558e-18 -0.00273809 -1.95941e-18 0)
(0.00464784 -0.00124257 -2.06428e-18 -0.0025277 -1.17053e-18 0)
(0.00447037 -0.00110768 2.05361e-18 -0.00235874 1.02602e-18 0)
(0.00432693 -0.000980247 -2.85427e-18 -0.00222377 -1.69673e-18 0)
(0.00421635 -0.000862161 -6.57393e-19 -0.00212785 2.43142e-20 0)
(0.00413551 -0.000752127 1.99584e-18 -0.00205928 8.09526e-19 0)
(0.00407872 -0.000649991 1.3248e-18 -0.00201766 9.25704e-19 0)
(0.00403994 -0.000554338 -5.56994e-25 -0.00199054 -2.32262e-25 0)
(0.00401071 -0.000464767 4.33407e-18 -0.00197469 2.6066e-18 0)
(0.00398704 -0.000379911 -4.92161e-19 -0.00196109 1.65037e-19 0)
(0.00396378 -0.000298583 -1.61315e-18 -0.00194982 -7.33925e-19 0)
(0.00393886 -0.000220757 -3.95555e-19 -0.00193439 1.43862e-19 0)
(0.00390813 -0.000145799 2.81474e-19 -0.00191581 -1.67626e-19 0)
(0.00387334 -7.34683e-05 3.86726e-18 -0.0018916 2.29142e-18 0)
(0.00383404 -4.12842e-06 -1.46701e-18 -0.00186566 -5.34549e-19 0)
(0.00378714 6.21552e-05 -1.38788e-18 -0.00183066 -5.37191e-19 0)
(0.00374128 0.000125235 1.22337e-18 -0.0017987 4.96162e-19 0)
(0.00368918 0.000186316 2.08166e-18 -0.00175941 1.46068e-18 0)
(0.00363655 0.000242446 -1.01803e-18 -0.0017214 -4.60238e-19 0)
(0.00358071 0.000296599 -4.67262e-20 -0.00167853 -1.91226e-19 0)
(0.00352384 0.000346747 3.62679e-18 -0.001637 2.73148e-18 0)
(0.00346406 0.000393724 -7.19845e-19 -0.00158979 -3.7673e-19 0)
(0.00340098 0.000436804 1.33641e-18 -0.00154274 1.09721e-18 0)
(0.00844076 -0.00344692 -2.46006e-18 -0.00720655 -1.32695e-18 3.94519e-33)
(0.00819617 -0.00334209 -2.68062e-18 -0.00689805 -7.4868e-18 0)
(0.00794631 -0.0032444 1.34799e-27 -0.00655806 -1.22973e-24 0)
(0.00769924 -0.00313985 -2.48386e-18 -0.00624804 8.93862e-18 0)
(0.00745183 -0.00303206 5.35901e-18 -0.00591725 1.79746e-18 0)
(0.00720206 -0.00292265 -2.47302e-18 -0.00560759 8.44207e-19 0)
(0.00695161 -0.00280444 4.28254e-18 -0.00528104 -4.63157e-18 0)
(0.00669581 -0.00268559 -5.83841e-18 -0.00497065 -4.92173e-18 0)
(0.00643489 -0.002555 -9.00622e-21 -0.00464293 -3.14576e-20 0)
(0.00616697 -0.00242312 -4.22319e-18 -0.00432825 5.02203e-19 0)
(0.00589395 -0.00227942 3.15296e-18 -0.00400059 2.16077e-18 0)
(0.00561709 -0.00213399 5.19655e-18 -0.00368796 2.16121e-18 0)
(0.00534247 -0.00198021 3.02924e-19 -0.00337412 -1.67477e-18 0)
(0.0050751 -0.00182669 1.75023e-18 -0.00308538 3.3059e-19 0)
(0.00482373 -0.00167132 5.18767e-18 -0.00281253 2.35834e-18 0)
(0.00459506 -0.00152124 5.18569e-18 -0.00257835 2.42915e-18 0)
(0.00439655 -0.00137529 -1.53106e-18 -0.00237496 -6.91068e-19 0)
(0.00423233 -0.00123943 -6.15254e-19 -0.00221803 -1.58506e-19 0)
(0.0041057 -0.00111174 2.17651e-20 -0.00209752 8.59347e-21 0)
(0.00401432 -0.000995314 -2.79071e-18 -0.00201951 -1.79465e-18 0)
(0.00395693 -0.000887485 -2.8815e-18 -0.00197192 -5.34181e-19 0)
(0.00392485 -0.000788908 -1.36643e-18 -0.00195307 -9.61413e-19 0)
(0.00391249 -0.000696426 7.2181e-19 -0.00194944 -2.56435e-19 0)
(0.00391041 -0.000610474 -6.71656e-19 -0.00195797 2.59127e-19 0)
(0.00391297 -0.000527435 -3.1589e-18 -0.00196755 -1.66792e-18 0)
(0.00391437 -0.000448543 5.54761e-18 -0.00197776 3.57042e-18 0)
(0.00391228 -0.000370456 2.50242e-25 -0.00198245 1.08587e-25 0)
(0.00390457 -0.000295378 1.61831e-18 -0.00198358 7.03947e-19 0)
(0.00388894 -0.000220959 1.94143e-18 -0.0019759 4.93283e-19 0)
(0.00386867 -0.000148949 -2.61931e-18 -0.00196608 -1.6114e-18 0)
(0.00384122 -7.90775e-05 -1.65455e-18 -0.00194778 -4.72656e-19 0)
(0.00380892 -1.15879e-05 1.09557e-18 -0.00192745 8.88805e-19 0)
(0.00377342 5.33084e-05 1.43869e-18 -0.00190187 4.61172e-19 0)
(0.00373655 0.000116484 -1.04628e-18 -0.00187774 -8.65334e-19 0)
(0.00369435 0.000176018 -2.15631e-18 -0.00184594 -1.50608e-18 0)
(0.00365113 0.000232624 2.0642e-18 -0.00181579 1.47848e-18 0)
(0.00360376 0.000286303 -4.91281e-18 -0.00177906 -3.71611e-18 0)
(0.00355516 0.000336612 9.73101e-19 -0.00174418 1.03977e-18 0)
(0.00350243 0.000383927 2.00334e-25 -0.00170167 1.37175e-25 0)
(0.00344616 0.000427298 9.91941e-19 -0.00165991 7.67817e-19 0)
(0.00806128 -0.00363342 1.89415e-18 -0.0068084 3.56144e-18 1.72418e-32)
(0.00779592 -0.0035063 -1.21321e-20 -0.00648071 -4.05066e-18 0)
(0.00751297 -0.00338187 -5.6796e-18 -0.00610952 -9.48041e-18 0)
(0.00722463 -0.00324635 2.76281e-18 -0.00576162 2.62278e-18 0)
(0.00692694 -0.00310204 3.1119e-18 -0.00538392 5.90089e-18 0)
(0.00662128 -0.00295329 2.31411e-18 -0.00502376 -7.40459e-19 0)
(0.00630956 -0.0027914 4.39906e-18 -0.00464125 -1.2263e-18 0)
(0.00599169 -0.00262888 8.88621e-21 -0.00427599 2.99123e-20 0)
(0.0056722 -0.00245468 -1.03214e-18 -0.00389739 2.65181e-18 0)
(0.00535403 -0.00228198 -1.86381e-18 -0.00354189 1.69043e-19 0)
(0.00504432 -0.0021035 -4.39944e-18 -0.00318839 -3.62819e-18 0)
(0.00474931 -0.00193097 3.18056e-18 -0.00287008 1.74063e-18 0)
(0.00447696 -0.00175975 1.79749e-20 -0.0025725 1.42651e-20 0)
(0.00423645 -0.00160038 -5.18549e-18 -0.00232518 -2.73162e-18 0)
(0.00403269 -0.00144864 -4.94453e-18 -0.00211422 -2.19291e-18 0)