/*--------------------------------*- C++ -*----------------------------------*\
| =========                 |                                                 |
| \\      /  F ield         | OpenFOAM: The Open Source CFD Toolbox           |
|  \\    /   O peration     | Version:  v2012                                 |
|   \\  /    A nd           | Website:  www.openfoam.com                      |
|    \\/     M anipulation  |                                                 |
\*---------------------------------------------------------------------------*/
FoamFile
{
    version     2.0;
    format      ascii;
    class       volSymmTensorField;
    location    "2";
    object      epsilon;
}
// * * * * * * * * * * * * * * * * * * * * * * * * * * * * * * * * * * * * * //

dimensions      [0 0 0 0 0 0 0];


internalField   nonuniform List<symmTensor> 
8000
(
(0.00151477 -1.5024e-05 4.14192e-16 -0.000643552 1.01055e-14 0)
(0.00139961 -9.08347e-05 2.82562e-15 -0.000607267 8.92613e-15 0)
(0.00140305 -2.68001e-06 2.27951e-15 -0.000562953 1.03487e-14 0)
(0.00130003 -7.56653e-05 2.1449e-15 -0.000539898 7.89592e-15 0)
(0.00130319 5.13571e-06 -1.99866e-16 -0.000496322 6.77117e-15 0)
(0.00121233 -6.29118e-05 1.29948e-16 -0.000481917 4.77385e-15 0)
(0.00121518 1.00436e-05 3.18715e-16 -0.000441353 4.88715e-15 0)
(0.00113523 -5.24964e-05 9.57079e-16 -0.000432263 4.19944e-15 0)
(0.0011378 1.31832e-05 5.90612e-16 -0.000395806 3.44625e-15 0)
(0.00106733 -4.39332e-05 9.98645e-16 -0.000389971 3.44375e-15 0)
(0.00106965 1.52443e-05 3.60999e-16 -0.000357898 3.85477e-15 0)
(0.00100737 -3.68042e-05 1.15684e-15 -0.000354088 2.74965e-15 0)
(0.00100946 1.66335e-05 7.32006e-16 -0.000326248 2.22782e-15 0)
(0.000954238 -3.07994e-05 9.73309e-16 -0.000323724 1.36046e-15 0)
(0.00095613 1.75921e-05 1.93808e-16 -0.000299774 8.63459e-16 0)
(0.000906981 -2.56935e-05 7.53975e-16 -0.000298087 8.32884e-16 0)
(0.0009087 1.82668e-05 5.13932e-16 -0.000277616 7.9472e-17 0)
(0.000864789 -2.13201e-05 6.66703e-16 -0.000276485 1.04344e-15 0)
(0.000866356 1.87489e-05 1.17087e-16 -0.00025908 3.08239e-16 0)
(0.000826968 -1.75531e-05 -1.64433e-16 -0.000258323 1.63368e-15 0)
(0.000828402 1.90977e-05 -2.67385e-16 -0.000243598 1.29638e-15 0)
(0.000792927 -1.42953e-05 8.47724e-16 -0.000243093 1.65102e-15 0)
(0.000794243 1.93529e-05 1.04679e-15 -0.000230701 8.84492e-16 0)
(0.000762154 -1.1469e-05 1.75452e-15 -0.000230362 6.11165e-16 0)
(0.000763368 1.95427e-05 5.93851e-16 -0.000219995 9.8554e-17 0)
(0.000734211 -9.01167e-06 6.14783e-16 -0.000219756 5.24429e-16 0)
(0.000735335 1.96881e-05 -1.60631e-17 -0.000211152 8.85576e-16 0)
(0.000708715 -6.8711e-06 -3.25328e-17 -0.000210958 1.37976e-15 0)
(0.00070976 1.98059e-05 -1.41217e-17 -0.000203892 1.70773e-15 0)
(0.000685333 -5.00332e-06 7.04847e-16 -0.000203692 8.39931e-16 0)
(0.000686309 1.99111e-05 6.58768e-16 -0.00019798 9.74156e-16 0)
(0.00066377 -3.37046e-06 1.33046e-15 -0.00019772 5.47414e-16 0)
(0.000664687 2.00181e-05 5.68115e-16 -0.000193214 9.49002e-16 0)
(0.000643763 -1.94013e-06 8.19596e-16 -0.000192829 7.03756e-16 0)
(0.000644629 2.01428e-05 1.88627e-16 -0.000189422 8.53592e-16 0)
(0.000625065 -6.87093e-07 5.55498e-16 -0.000188829 7.72602e-16 0)
(0.000625889 2.03044e-05 3.18766e-16 -0.000186453 1.23144e-15 0)
(0.000607431 3.98267e-07 2.65775e-16 -0.000185539 1.2014e-15 0)
(0.000608221 2.05276e-05 -7.22146e-17 -0.000184169 9.1138e-16 0)
(0.000590561 1.28062e-06 -4.17045e-17 -0.000182769 1.17311e-15 0)
(0.00150066 -7.67681e-05 6.18787e-15 -0.000608529 6.82093e-15 0)
(0.00137647 -0.000156831 8.40432e-15 -0.000589226 5.6101e-15 0)
(0.00138762 -6.08489e-05 4.6814e-15 -0.000541198 5.47923e-15 0)
(0.00128034 -0.00013158 2.24022e-15 -0.000523578 3.75318e-15 0)
(0.00129035 -4.55129e-05 -2.49366e-18 -0.000483404 4.34505e-15 0)
(0.00119625 -0.00010936 -6.15962e-16 -0.000468384 3.0671e-15 0)
(0.00120526 -3.1983e-05 1.85873e-16 -0.000433983 2.90761e-15 0)
(0.00112227 -9.00475e-05 -1.11695e-15 -0.000421655 5.46438e-16 0)
(0.00113039 -2.03966e-05 1.41394e-16 -0.000391918 1.98929e-15 0)
(0.00105695 -7.33734e-05 3.29191e-17 -0.000382 3.17996e-16 0)
(0.00106426 -1.05785e-05 1.68373e-15 -0.000356236 8.6129e-16 0)
(0.000999074 -5.90089e-05 1.42987e-15 -0.000348343 -1.07954e-15 0)
(0.00100569 -2.28142e-06 1.11413e-15 -0.000326044 1.34983e-16 0)
(0.000947638 -4.6632e-05 1.39794e-16 -0.000319798 -9.43581e-16 0)
(0.00095363 4.73497e-06 5.6884e-16 -0.00030055 3.52691e-16 0)
(0.000901769 -3.59543e-05 3.48598e-16 -0.000295624 1.93422e-16 0)
(0.000907212 1.06809e-05 6.94431e-16 -0.000279065 1.61459e-15 0)
(0.000860719 -2.67268e-05 6.084e-16 -0.000275186 7.63604e-16 0)
(0.000865677 1.57328e-05 2.81879e-16 -0.000260998 1.48427e-15 0)
(0.000823844 -1.8739e-05 1.03651e-15 -0.000257943 8.949e-16 0)
(0.000828376 2.00364e-05 1.60085e-15 -0.000245846 1.42367e-15 0)
(0.00079059 -1.1814e-05 2.85656e-15 -0.000243434 2.44488e-16 0)
(0.000794744 2.37116e-05 2.67206e-15 -0.000233176 2.61943e-16 0)
(0.000760474 -5.8038e-06 1.98259e-15 -0.000231259 -4.83554e-16 0)
(0.000764296 2.68566e-05 1.01851e-15 -0.000222621 3.29706e-16 0)
(0.00073308 -5.8478e-07 1.87052e-16 -0.000221077 -3.40223e-16 0)
(0.000736609 2.95523e-05 -2.28726e-16 -0.000213863 4.2479e-16 0)
(0.00070804 3.94622e-06 -1.24615e-16 -0.000212591 -8.55436e-16 0)
(0.000711312 3.18651e-05 7.80951e-16 -0.00020663 -5.64327e-16 0)
(0.000685034 7.8748e-06 6.92331e-16 -0.000205545 -1.04691e-15 0)
(0.000688081 3.38487e-05 1.27282e-15 -0.000200682 8.13152e-17 0)
(0.000663778 1.1271e-05 -7.8564e-17 -0.000199715 -6.23091e-16 0)
(0.000666627 3.55444e-05 2.94632e-16 -0.00019581 -2.76688e-16 0)
(0.00064402 1.41903e-05 -7.89421e-16 -0.000194904 -1.19414e-15 0)
(0.000646697 3.69779e-05 1.84843e-16 -0.000191822 -1.30213e-16 0)
(0.000625541 1.66736e-05 -4.1651e-16 -0.000190945 -8.23994e-16 0)
(0.000628065 3.81468e-05 -3.26142e-17 -0.000188537 2.1478e-16 0)
(0.000608169 1.8748e-05 -1.53698e-15 -0.000187697 -1.21973e-16 0)
(0.000610549 3.89827e-05 -1.06713e-15 -0.000185762 1.20552e-15 0)
(0.000591852 2.04376e-05 -1.49364e-15 -0.000185079 5.21284e-16 0)
(0.00147423 -0.00014974 5.94441e-15 -0.000590948 3.78571e-15 0)
(0.00134498 -0.000223223 2.99893e-15 -0.00056544 2.61542e-15 0)
(0.00136498 -0.000119705 3.17145e-15 -0.000525971 2.85633e-15 0)
(0.00125322 -0.000185206 -1.17167e-15 -0.00050423 2.96724e-15 0)
(0.00127096 -9.35446e-05 -2.58021e-15 -0.000471336 2.65391e-15 0)
(0.00117324 -0.000152605 -3.397e-15 -0.000452865 3.47628e-15 0)
(0.00118908 -7.08353e-05 -2.56807e-15 -0.000425093 1.54174e-15 0)
(0.00110302 -0.000124498 -1.30467e-15 -0.000409556 2.41701e-15 0)
(0.00111723 -5.12164e-05 7.03376e-17 -0.000385861 -2.46005e-16 0)
(0.00104103 -0.000100223 6.94879e-16 -0.000372925 1.29551e-15 0)
(0.00105382 -3.43192e-05 4.35714e-16 -0.000352568 -8.59772e-17 0)
(0.000986075 -7.92336e-05 1.17285e-15 -0.00034189 1.80975e-15 0)
(0.000997614 -1.97867e-05 1.19536e-15 -0.000324334 -3.45535e-16 0)
(0.000937156 -6.10663e-05 1.49044e-15 -0.000315582 1.95872e-15 0)
(0.000947601 -7.29198e-06 1.74055e-16 -0.000300419 1.08984e-15 0)
(0.000893447 -4.53235e-05 -5.88857e-16 -0.000293288 2.028e-15 0)
(0.000902928 3.4543e-06 -4.22974e-16 -0.000280198 2.63136e-16 0)
(0.000854247 -3.16661e-05 -9.92126e-16 -0.000274412 2.99565e-16 0)
(0.000862877 1.27029e-05 8.51343e-16 -0.000263134 2.81784e-16 0)
(0.000818955 -1.98051e-05 4.21145e-16 -0.000258455 1.6263e-16 0)
(0.000826833 2.06682e-05 1.90593e-15 -0.000248771 -3.12033e-16 0)
(0.000787055 -9.49576e-06 1.89703e-15 -0.000244991 -9.79902e-16 0)
(0.000794268 2.7532e-05 2.21398e-15 -0.000236716 -1.07293e-15 0)
(0.000758101 -5.30824e-07 8.88558e-16 -0.000233657 -1.08203e-15 0)
(0.000764726 3.34477e-05 -1.24534e-16 -0.00022663 -1.06816e-15 0)
(0.000731704 7.26454e-06 -1.45366e-15 -0.000224141 -1.03433e-15 0)
(0.000737808 3.8544e-05 -9.40518e-16 -0.000218221 -1.47354e-15 0)
(0.000707526 1.40375e-05 -1.55426e-15 -0.000216173 -2.09099e-15 0)
(0.000713169 4.29279e-05 -6.66391e-16 -0.000211237 -1.83675e-15 0)
(0.00068527 1.99112e-05 -1.59138e-15 -0.000209521 -1.75652e-15 0)
(0.000690505 4.66875e-05 -1.35056e-15 -0.000205455 -1.53794e-15 0)
(0.000664676 2.49883e-05 -2.23724e-15 -0.000203984 -1.55247e-15 0)
(0.00066955 4.98935e-05 -1.83626e-15 -0.000200682 -1.44817e-15 0)
(0.000645516 2.93538e-05 -1.93792e-15 -0.000199387 -5.3191e-16 0)
(0.00065007 5.2601e-05 -1.32653e-15 -0.000196752 -9.46075e-16 0)
(0.000627596 3.30787e-05 -1.58592e-15 -0.000195581 -3.29814e-16 0)
(0.000631866 5.48566e-05 -2.0298e-15 -0.000193527 -5.08057e-16 0)
(0.000610748 3.62254e-05 -2.19234e-15 -0.000192436 -4.90059e-17 0)
(0.000614772 5.67273e-05 -2.02614e-15 -0.000190933 -2.44379e-16 0)
(0.000594797 3.88571e-05 -1.00839e-15 -0.000189833 -4.44957e-16 0)
(0.00143191 -0.000221719 9.99797e-16 -0.000567013 2.7619e-15 0)
(0.00130124 -0.000285693 3.61527e-16 -0.000534153 1.55616e-15 0)
(0.00133061 -0.000177645 -1.79782e-15 -0.000507104 1.58272e-15 0)
(0.00121665 -0.00023578 -4.68562e-15 -0.000479788 2.0769e-15 0)
(0.00124264 -0.000140225 -4.73357e-15 -0.000456768 4.2723e-15 0)
(0.00114265 -0.000193241 -3.07894e-15 -0.000433968 4.07595e-15 0)
(0.00116579 -0.000108204 -5.20092e-16 -0.000414293 4.0508e-15 0)
(0.00107755 -0.000156756 1.92072e-15 -0.000395275 2.70248e-15 0)
(0.00109826 -8.07063e-05 1.63151e-15 -0.000378347 2.49464e-15 0)
(0.00101998 -0.000125332 3.78685e-16 -0.000362532 2.19486e-15 0)
(0.00103859 -5.7045e-05 1.92663e-16 -0.000347878 2.76602e-15 0)
(0.000968854 -9.81889e-05 -8.87392e-16 -0.000334785 1.36295e-15 0)
(0.000985632 -3.66572e-05 4.87891e-16 -0.000322039 2.61629e-15 0)
(0.000923245 -7.46893e-05 -1.36753e-15 -0.00031125 1.90787e-15 0)
(0.000938418 -1.90703e-05 -1.00934e-15 -0.000300132 2.14509e-15 0)
(0.000882396 -5.43065e-05 -2.02017e-15 -0.000291285 1.07509e-15 0)
(0.000896158 -3.88483e-06 -2.06101e-15 -0.000281576 9.76758e-16 0)
(0.000845666 -3.66004e-05 -1.91042e-15 -0.000274354 9.85323e-16 0)
(0.000858184 9.23782e-06 -1.12773e-15 -0.00026588 1.5645e-16 0)
(0.000812508 -2.12006e-05 -8.75954e-16 -0.000260009 -1.77701e-16 0)
(0.000823926 2.05844e-05 8.04939e-16 -0.000252628 -8.25837e-16 0)
(0.000782454 -7.79523e-06 1.04666e-15 -0.000247869 -9.74264e-16 0)
(0.000792897 3.03978e-05 8.98478e-16 -0.000241466 -1.14047e-15 0)
(0.000755098 3.87915e-06 4.18231e-16 -0.000237612 -1.46768e-15 0)
(0.000764676 3.8883e-05 -9.15256e-16 -0.000232087 -1.3469e-15 0)
(0.000730092 1.4045e-05 -5.79018e-16 -0.000228962 -1.39363e-15 0)
(0.0007389 4.6213e-05 -1.74519e-15 -0.000224229 -1.69103e-15 0)
(0.000707127 2.28901e-05 -9.33606e-16 -0.00022168 -1.18937e-15 0)
(0.000715251 5.25334e-05 -1.6467e-15 -0.000217664 -1.55952e-15 0)
(0.000685938 3.0573e-05 -9.20162e-16 -0.00021556 -5.96203e-16 0)
(0.000693452 5.7966e-05 -1.77538e-15 -0.000212194 -8.87203e-16 0)
(0.00066629 3.72273e-05 -1.21872e-15 -0.000210426 1.60028e-16 0)
(0.000673259 6.26135e-05 -1.83217e-15 -0.000207649 2.61618e-16 0)
(0.000647976 4.29663e-05 -1.15102e-15 -0.000206123 1.98626e-16 0)
(0.000654461 6.65632e-05 -1.53591e-15 -0.000203883 -7.26415e-17 0)
(0.000630813 4.78861e-05 -1.21742e-15 -0.000202516 -2.41777e-16 0)
(0.000636868 6.98924e-05 -1.49331e-15 -0.000200771 -6.60279e-17 0)
(0.000614634 5.20697e-05 -7.51976e-16 -0.000199485 3.43042e-16 0)
(0.000620307 7.26661e-05 -5.65967e-16 -0.000198194 1.10263e-16 0)
(0.000599286 5.55855e-05 5.04384e-16 -0.000196922 8.61941e-17 0)
(0.00137548 -0.000288525 -8.54053e-16 -0.000535119 8.4622e-16 0)
(0.00124581 -0.000342013 -2.39359e-15 -0.000495946 -1.80943e-15 0)
(0.0012846 -0.000232205 -3.95961e-15 -0.000482625 -4.59485e-16 0)
(0.0011706 -0.000281859 -3.88321e-15 -0.000450206 -8.56737e-16 0)
(0.001205 -0.000184498 -3.01536e-15 -0.000438302 1.66154e-15 0)
(0.00110439 -0.00023056 -2.47754e-15 -0.000411427 -1.66967e-16 0)
(0.00113503 -0.000143826 -9.22927e-17 -0.000400812 1.10632e-15 0)
(0.00104585 -0.000186594 -1.88039e-15 -0.000378534 -1.31915e-15 0)
(0.00107326 -0.000108991 -9.32983e-16 -0.000369045 1.72063e-16 0)
(0.000993867 -0.000148757 -2.92003e-15 -0.000350606 -1.50054e-16 0)
(0.00101849 -7.90557e-05 -2.50359e-15 -0.000342091 6.19405e-16 0)
(0.000947513 -0.000116088 -1.29256e-15 -0.000326874 4.65231e-16 0)
(0.000969706 -5.32644e-05 -1.44074e-15 -0.000319202 6.09322e-16 0)
(0.000906008 -8.78022e-05 -7.92742e-16 -0.000306692 6.08346e-16 0)
(0.000926075 -3.09994e-05 -1.73188e-15 -0.000299763 9.27643e-16 0)
(0.000868696 -6.32579e-05 -8.82351e-16 -0.000289525 -8.29415e-17 0)
(0.000886893 -1.17483e-05 -1.09494e-15 -0.000283261 1.41705e-16 0)
(0.00083502 -4.1921e-05 1.12703e-16 -0.000274923 -1.27123e-15 0)
(0.000851567 4.91624e-06 -5.39255e-16 -0.000269262 -6.58436e-16 0)
(0.000804504 -2.33457e-05 3.46674e-17 -0.000262506 -1.80856e-15 0)
(0.000819591 1.93532e-05 -3.43421e-17 -0.000257401 -1.40046e-15 0)
(0.000776741 -7.15811e-06 -1.28857e-16 -0.000251953 -1.50845e-15 0)
(0.000790531 3.18644e-05 5.38713e-16 -0.000247366 -1.3803e-15 0)
(0.000751377 6.9568e-06 2.46981e-16 -0.000242992 -1.3417e-15 0)
(0.000764014 4.27044e-05 3.93077e-16 -0.000238891 -1.47495e-15 0)
(0.000728107 1.92648e-05 -1.87133e-16 -0.000235386 -1.00278e-15 0)
(0.000739714 5.2088e-05 -4.47152e-16 -0.000231746 -4.81061e-16 0)
(0.000706664 2.99904e-05 -7.47422e-16 -0.000228936 -4.84205e-16 0)
(0.00071735 6.01965e-05 -5.73597e-16 -0.000225732 -3.17563e-16 0)
(0.000686814 3.93237e-05 -5.09575e-17 -0.000223466 -1.45034e-15 0)
(0.000696675 6.71832e-05 2.3229e-17 -0.000220678 -6.44558e-16 0)
(0.000668351 4.74258e-05 7.55201e-16 -0.000218825 -1.20195e-15 0)
(0.000677472 7.31779e-05 -1.04354e-17 -0.000216433 -3.4998e-16 0)
(0.000651092 5.4433e-05 7.23109e-16 -0.000214882 -9.84456e-16 0)
(0.000659548 7.82906e-05 -2.80239e-16 -0.000212868 -5.25404e-16 0)
(0.000634873 6.04608e-05 2.98128e-16 -0.00021152 -7.60893e-16 0)
(0.000642733 8.26139e-05 -5.63785e-17 -0.000209865 -2.0383e-17 0)
(0.000619549 6.56062e-05 1.00072e-16 -0.000208635 -1.53631e-16 0)
(0.000626871 8.62249e-05 3.9877e-16 -0.000207319 2.08275e-16 0)
(0.000604987 6.99499e-05 4.95399e-16 -0.000206138 -4.74881e-16 0)
(0.00130672 -0.000348043 -2.57737e-15 -0.000495957 -1.50997e-15 0)
(0.00118014 -0.000390727 -3.77519e-15 -0.000451949 -1.40036e-15 0)
(0.00122807 -0.000281579 -3.49948e-15 -0.000452591 -2.06161e-15 0)
(0.00111597 -0.000322267 -4.58964e-15 -0.000416138 -1.1447e-15 0)
(0.00115858 -0.000225131 -4.37405e-15 -0.000415731 -1.65623e-15 0)
(0.001059 -0.000263744 -5.04772e-15 -0.000385548 -9.09971e-16 0)
(0.00109702 -0.000176966 -4.71536e-15 -0.000384389 -1.73884e-15 0)
(0.00100824 -0.000213517 -3.8622e-15 -0.000359425 -1.39786e-15 0)
(0.00104231 -0.000135702 -2.88097e-15 -0.000357717 -1.24044e-15 0)
(0.000962869 -0.000170255 -2.33049e-16 -0.000337114 -1.71586e-15 0)
(0.000993495 -0.000100231 7.71871e-16 -0.000335001 -6.75241e-16 0)
(0.000922155 -0.000132873 -1.49701e-16 -0.000318051 -1.88272e-15 0)
(0.00094978 -6.96547e-05 -1.61584e-15 -0.000315644 -6.16586e-16 0)
(0.000885483 -0.000100483 -2.61453e-15 -0.000301757 -1.70209e-15 0)
(0.000910477 -4.32375e-05 -9.00836e-16 -0.000299143 -1.33021e-15 0)
(0.000852328 -7.23537e-05 -7.14923e-16 -0.000287826 -1.84336e-15 0)
(0.000875006 -2.03719e-05 4.63524e-16 -0.000285078 -1.87675e-15 0)
(0.000822238 -4.78769e-05 4.72685e-16 -0.00027591 -1.86461e-15 0)
(0.000842869 -5.52702e-07 6.32334e-16 -0.000273092 -2.32529e-15 0)
(0.000794825 -2.65452e-05 -3.84946e-16 -0.000265717 -2.01933e-15 0)
(0.00081364 1.66423e-05 -1.03625e-15 -0.000262882 -1.58098e-15 0)
(0.000769754 -7.93316e-06 -1.38808e-15 -0.000256994 -8.07839e-16 0)
(0.000786952 3.15674e-05 -6.53801e-16 -0.00025419 -7.43654e-16 0)
(0.000746733 8.31722e-06 -8.68988e-16 -0.000249528 -8.98261e-16 0)
(0.000762488 4.45211e-05 -4.60596e-16 -0.000246794 -1.06295e-15 0)
(0.000725508 2.25081e-05 -9.37862e-16 -0.000243132 -3.25803e-16 0)
(0.000739971 5.57552e-05 -9.19946e-16 -0.000240504 -2.92951e-16 0)
(0.000705858 3.4895e-05 -7.64905e-16 -0.000237647 4.2208e-16 0)
(0.00071916 6.54822e-05 -7.07171e-17 -0.000235152 -9.4022e-16 0)
(0.000687586 4.56944e-05 4.71953e-16 -0.000232934 -1.26635e-16 0)
(0.000699843 7.38821e-05 1.16793e-15 -0.000230596 -1.23046e-15 0)
(0.000670521 5.50896e-05 1.1154e-15 -0.000228872 -4.71411e-16 0)
(0.000681833 8.11069e-05 1.34436e-15 -0.00022671 -1.07065e-15 0)
(0.000654507 6.32359e-05 1.32549e-15 -0.000225354 -6.98551e-16 0)
(0.000664965 8.7285e-05 1.15617e-15 -0.000223382 -8.38088e-16 0)
(0.000639409 7.02646e-05 9.60305e-16 -0.000222288 -8.15103e-16 0)
(0.000649091 9.25239e-05 1.83826e-16 -0.000220513 -8.08056e-16 0)
(0.000625103 7.6286e-05 2.94578e-16 -0.00021959 -4.48643e-16 0)
(0.000634079 9.69134e-05 3.12467e-16 -0.000218015 -4.19803e-16 0)
(0.000611479 8.13923e-05 1.388e-15 -0.000217187 -1.50704e-16 0)
(0.00122747 -0.000398873 -4.06256e-15 -0.000450765 -2.00653e-15 0)
(0.00110596 -0.000430813 -6.31412e-15 -0.000403501 -2.98763e-15 0)
(0.00116242 -0.000324489 -6.96497e-15 -0.000417748 -1.437e-15 0)
(0.00105399 -0.000356132 -5.6906e-15 -0.00037851 -1.35341e-15 0)
(0.00110433 -0.000261098 -3.95783e-15 -0.000389432 -3.42608e-16 0)
(0.00100732 -0.000292107 -1.69293e-15 -0.000356911 -1.75706e-15 0)
(0.00105236 -0.000206876 -2.09582e-15 -0.000365157 -1.96197e-15 0)
(0.00096529 -0.000237031 -1.32007e-15 -0.000338265 -2.83356e-15 0)
(0.00100573 -0.000160338 -5.64273e-16 -0.000344346 -2.65911e-15 0)
(0.000927343 -0.000189503 5.19658e-16 -0.000322177 -2.56934e-15 0)
(0.000963768 -0.000120273 -6.49979e-17 -0.000326499 -2.73512e-15 0)
(0.000892974 -0.000148369 -2.28962e-15 -0.0003083 -1.75088e-15 0)
(0.000925883 -8.56875e-05 -3.27939e-15 -0.00031119 -1.93324e-15 0)
(0.000861744 -0.000112676 -2.19274e-15 -0.000296327 -1.22851e-15 0)
(0.000891562 -5.57648e-05 -1.30885e-15 -0.000298052 -1.51788e-15 0)
(0.000833271 -8.16332e-05 -5.06973e-16 -0.000285994 -1.01308e-15 0)
(0.000860361 -2.98276e-05 1.26825e-16 -0.000286774 -1.37672e-15 0)
(0.000807223 -5.45833e-05 5.89698e-16 -0.000277069 -1.50032e-15 0)
(0.000831895 -7.31203e-06 -6.90095e-17 -0.000277088 -1.72627e-15 0)
(0.000783309 -3.09751e-05 -9.00321e-16 -0.000269352 -1.16617e-15 0)
(0.00080583 1.22535e-05 -1.55133e-15 -0.000268767 -7.34547e-16 0)
(0.000761276 -1.0346e-05 -2.84018e-15 -0.000262672 -4.43764e-16 0)
(0.000781877 2.92651e-05 -2.74184e-15 -0.000261612 -6.92263e-16 0)
(0.000740902 7.69398e-06 -3.95994e-15 -0.000256877 -4.02131e-16 0)
(0.000759782 4.4056e-05 -2.33055e-15 -0.000255454 7.07984e-17 0)
(0.00072199 2.34741e-05 -2.48743e-15 -0.000251837 7.81059e-16 0)
(0.000739324 5.69079e-05 -8.46166e-16 -0.000250146 1.00527e-15 0)
(0.000704369 3.72734e-05 -5.81458e-16 -0.000247439 9.59085e-16 0)
(0.000720307 6.80587e-05 5.86824e-17 -0.000245559 1.05341e-15 0)
(0.000687885 4.93283e-05 7.18501e-16 -0.000243582 7.8171e-16 0)
(0.000702561 7.77096e-05 1.0974e-15 -0.00024158 2.17383e-16 0)
(0.000672404 5.98393e-05 1.65555e-15 -0.00024018 -5.5522e-16 0)
(0.000685932 8.60309e-05 1.62343e-15 -0.000238111 -8.99779e-16 0)
(0.000657804 6.89766e-05 2.42298e-15 -0.000237155 -1.25312e-15 0)
(0.000670286 9.31662e-05 1.82712e-15 -0.000235064 -9.93021e-16 0)
(0.000643978 7.6884e-05 1.98189e-15 -0.000234438 -1.13256e-15 0)
(0.000655503 9.92363e-05 1.08759e-15 -0.000232362 -5.7647e-16 0)
(0.00063083 8.36829e-05 1.30012e-15 -0.00023197 -1.2219e-16 0)
(0.000641473 0.000104342 1.48121e-15 -0.000229936 2.36681e-16 0)
(0.000618272 8.94752e-05 9.8638e-16 -0.000229696 8.25512e-16 0)
(0.00113971 -0.000440015 -4.788e-15 -0.000400995 -2.87086e-15 0)
(0.0010251 -0.000461584 -3.76001e-15 -0.000352037 -1.90288e-15 0)
(0.00108921 -0.000360023 -4.15092e-15 -0.000379116 -1.94137e-15 0)
(0.000986068 -0.000382848 -1.34766e-15 -0.000338368 -7.01587e-16 0)
(0.00104342 -0.000291612 -8.08544e-16 -0.000360062 -1.51094e-15 0)
(0.000950384 -0.000315135 -1.50617e-15 -0.000326232 -1.13104e-15 0)
(0.00100185 -0.000232919 -1.63866e-15 -0.000343493 -2.26609e-15 0)
(0.000917721 -0.000256725 -2.01353e-15 -0.000315497 -1.44416e-15 0)
(0.000964057 -0.000182412 -5.70887e-16 -0.000329097 -1.98442e-15 0)
(0.000887775 -0.000206194 1.18211e-15 -0.000306025 -1.65883e-15 0)
(0.000929617 -0.00013883 7.96889e-18 -0.000316595 -1.32869e-15 0)
(0.000860265 -0.000162363 -2.75658e-16 -0.000297681 -1.11662e-15 0)
(0.000898156 -0.000101129 -1.62722e-15 -0.000305737 -8.87636e-16 0)
(0.000834933 -0.000124251 -9.3301e-16 -0.000290334 -1.61958e-15 0)
(0.000869338 -6.84459e-05 -7.43112e-16 -0.000296301 -1.44676e-15 0)
(0.000811546 -9.10395e-05 -9.30733e-16 -0.000283862 -1.25952e-15 0)
(0.000842864 -4.00611e-05 -1.87946e-16 -0.000288095 -9.56592e-16 0)
(0.000789897 -6.20451e-05 -2.3023e-16 -0.000278155 -9.67217e-16 0)
(0.000818469 -1.53736e-05 -2.58799e-16 -0.000280949 -1.00039e-15 0)
(0.000769798 -3.66927e-05 -5.43673e-16 -0.00027311 -5.83626e-16 0)
(0.000795921 6.12096e-06 -2.4948e-15 -0.000274716 -4.82036e-16 0)
(0.000751083 -1.44981e-05 -2.93217e-15 -0.000268638 -2.12504e-17 0)
(0.000775011 2.48467e-05 -4.44951e-15 -0.000269265 2.54137e-16 0)
(0.000733603 4.94774e-06 -2.46878e-15 -0.000264658 6.20923e-16 0)
(0.000755558 4.11615e-05 -2.16109e-15 -0.000264484 6.22224e-16 0)
(0.000717224 2.19912e-05 1.12757e-17 -0.000261096 4.56666e-16 0)
(0.000737398 5.53681e-05 -1.48265e-16 -0.000260273 6.06936e-16 0)
(0.000701828 3.69262e-05 8.56682e-16 -0.000257888 2.11094e-16 0)
(0.000720388 6.77224e-05 1.00088e-15 -0.000256543 3.58654e-16 0)
(0.000687308 5.00023e-05 2.57297e-15 -0.000254976 -6.59195e-17 0)
(0.0007044 7.84415e-05 2.71002e-15 -0.000253218 -3.73399e-16 0)
(0.000673569 6.14316e-05 3.45833e-15 -0.000252308 -2.44704e-16 0)
(0.00068932 8.77093e-05 3.04748e-15 -0.000250228 -8.19115e-16 0)
(0.000660524 7.13942e-05 3.28253e-15 -0.000249839 -3.00649e-16 0)
(0.000675045 9.56809e-05 2.70029e-15 -0.000247512 -9.29595e-16 0)
(0.000648098 8.00431e-05 2.64659e-15 -0.000247526 -6.07695e-16 0)
(0.000661484 0.000102488 2.02158e-15 -0.000245015 -3.69496e-16 0)
(0.000636221 8.75077e-05 1.40469e-15 -0.000245334 -4.6946e-17 0)
(0.000648555 0.00010824 2.16976e-16 -0.000242689 7.92552e-16 0)
(0.000624831 9.38972e-05 -2.12558e-16 -0.000243229 1.03964e-15 0)
(0.00104553 -0.000470804 -1.58131e-15 -0.000348202 -2.32041e-15 0)
(0.000939457 -0.000482654 -2.49665e-15 -0.000299033 -2.66876e-15 0)
(0.00101008 -0.000387557 -1.96132e-15 -0.000337843 -1.00896e-15 0)
(0.000913685 -0.000402042 -1.69721e-15 -0.000296811 -1.26266e-15 0)
(0.000977089 -0.000316102 -1.7434e-15 -0.000328423 -5.87746e-16 0)
(0.000889327 -0.000332481 -1.61004e-15 -0.000294291 -6.9107e-16 0)
(0.000946428 -0.000254591 -1.74248e-15 -0.000319914 -4.82362e-16 0)
(0.000866365 -0.000272288 -1.64734e-15 -0.000291637 -4.75314e-16 0)
(0.000917941 -0.000201497 -1.62197e-16 -0.000312262 -1.17441e-15 0)
(0.000844748 -0.000220062 2.60154e-16 -0.000288956 -1.11174e-15 0)
(0.000891465 -0.000155553 1.30511e-15 -0.0003054 -1.39786e-15 0)
(0.000824408 -0.000174637 3.65539e-16 -0.000286317 -1.45543e-15 0)
(0.000866835 -0.000115705 -6.00485e-16 -0.000299255 -1.86591e-15 0)
(0.000805263 -0.000135038 -8.24698e-16 -0.000283758 -1.71575e-15 0)
(0.000843891 -8.10734e-05 -1.33178e-15 -0.000293753 -1.27621e-15 0)
(0.00078723 -0.000100448 -4.92716e-16 -0.0002813 -8.86227e-16 0)
(0.000822481 -5.09246e-05 -1.34387e-16 -0.000288821 -8.91106e-16 0)
(0.000770224 -7.01792e-05 -2.01553e-16 -0.000278948 -5.74627e-16 0)
(0.000802461 -2.46411e-05 -5.78259e-16 -0.00028439 -2.70292e-16 0)
(0.000754164 -4.36521e-05 -8.23452e-16 -0.000276701 2.27466e-16 0)
(0.000783701 -1.70364e-06 -1.30137e-15 -0.000280396 3.1843e-16 0)
(0.000738969 -2.03768e-05 -1.71732e-15 -0.00027455 1.98951e-16 0)
(0.00076608 1.8326e-05 -1.54889e-15 -0.00027678 2.23454e-16 0)
(0.000724568 6.19706e-08 -2.57444e-16 -0.000272484 -6.52039e-16 0)
(0.000749487 3.58188e-05 8.15971e-16 -0.000273488 -3.26345e-16 0)
(0.000710889 1.8017e-05 1.18894e-15 -0.000270489 -1.26028e-15 0)
(0.000733823 5.1089e-05 1.28093e-15 -0.000270469 -7.34547e-16 0)
(0.000697869 3.37883e-05 2.35673e-15 -0.000268551 -1.04897e-15 0)
(0.000718997 6.44031e-05 3.3671e-15 -0.000267679 -4.24357e-16 0)
(0.000685449 4.76312e-05 3.7148e-15 -0.000266655 -1.44741e-16 0)
(0.000704926 7.59877e-05 3.58036e-15 -0.000265078 3.19189e-16 0)
(0.000673576 5.97634e-05 3.26925e-15 -0.000264787 2.65846e-16 0)
(0.000691536 8.60349e-05 3.36775e-15 -0.000262627 1.35742e-16 0)
(0.000662198 7.03703e-05 3.83379e-15 -0.000262931 1.41922e-16 0)
(0.00067876 9.47079e-05 3.60611e-15 -0.000260293 -5.61617e-17 0)
(0.000651271 7.96096e-05 3.92584e-15 -0.000261074 9.88576e-16 0)
(0.000666536 0.000102145 2.2141e-15 -0.000258046 6.33282e-16 0)
(0.000640755 8.76155e-05 1.63823e-15 -0.000259203 2.09208e-15 0)
(0.00065481 0.000108461 3.10244e-16 -0.000255858 1.52699e-15 0)
(0.000630611 9.45016e-05 5.32397e-16 -0.000257307 2.84798e-15 0)
(0.000947059 -0.000490898 2.24321e-16 -0.000293985 -2.3473e-15 0)
(0.000850941 -0.000493927 1.9617e-15 -0.000245956 -9.43256e-16 0)
(0.000926738 -0.000406721 -6.49762e-16 -0.000295135 -1.54163e-15 0)
(0.000838352 -0.000413563 3.5963e-16 -0.000254947 -8.63784e-16 0)
(0.000906681 -0.000334188 -6.451e-16 -0.000295394 -6.89336e-16 0)
(0.00082532 -0.000343958 6.39517e-16 -0.000261896 -2.05998e-16 0)
(0.000887097 -0.000271522 -3.39247e-16 -0.000295024 -2.20852e-16 0)
(0.00081211 -0.000283515 -8.07731e-16 -0.000267241 -1.89193e-16 0)
(0.000868118 -0.000217244 -1.66555e-15 -0.000294216 -4.20237e-16 0)
(0.000798908 -0.000230898 -6.92155e-16 -0.000271316 -7.42895e-16 0)
(0.00084982 -0.000170123 3.71881e-16 -0.000293106 -1.5091e-15 0)
(0.000785846 -0.00018499 1.64473e-16 -0.000274379 -1.70111e-15 0)
(0.00083224 -0.000129129 -9.0314e-17 -0.00029179 -1.50292e-15 0)
(0.000773009 -0.00014485 -2.45572e-16 -0.000276628 -9.22222e-16 0)
(0.000815385 -9.33973e-05 -2.03017e-16 -0.000290334 -7.79867e-16 0)
(0.000760456 -0.000109688 -7.93636e-17 -0.000278217 -7.59592e-16 0)
(0.000799246 -6.22026e-05 -4.4024e-16 -0.000288783 -5.61834e-16 0)
(0.000748222 -7.88334e-05 -6.17778e-16 -0.000279265 -8.45244e-16 0)
(0.000783798 -3.49322e-05 -6.13713e-16 -0.000287168 -3.36536e-16 0)
(0.000736325 -5.17206e-05 -1.75532e-16 -0.000279864 -1.06891e-15 0)
(0.000769011 -1.10684e-05 -8.60477e-16 -0.000285507 -5.3603e-16 0)
(0.000724772 -2.78686e-05 -7.49401e-16 -0.000280085 -8.94467e-16 0)
(0.00075485 9.82721e-06 -3.8538e-16 -0.000283811 -9.48894e-16 0)
(0.000713563 -6.8682e-06 2.28197e-15 -0.000279986 -1.98984e-15 0)
(0.000741278 2.8127e-05 2.6396e-15 -0.000282085 -2.49117e-15 0)
(0.000702693 1.16293e-05 3.37577e-15 -0.000279611 -2.71051e-15 0)
(0.000728258 4.41474e-05 2.84012e-15 -0.000280331 -1.66458e-15 0)
(0.000692151 2.79214e-05 3.06482e-15 -0.000278994 -8.15428e-16 0)
(0.000715751 5.81578e-05 2.93672e-15 -0.000278546 8.19657e-17 0)
(0.000681925 4.22622e-05 2.68893e-15 -0.000278164 2.91325e-16 0)
(0.000703722 7.03876e-05 3.22599e-15 -0.000276728 1.00831e-17 0)
(0.000672004 5.48687e-05 3.58253e-15 -0.000277142 -1.44199e-16 0)
(0.000692136 8.10318e-05 4.06077e-15 -0.000274872 1.3932e-16 0)
(0.000662372 6.59263e-05 4.66088e-15 -0.000275946 4.91577e-16 0)
(0.000680962 9.02568e-05 4.65941e-15 -0.000272971 1.47061e-15 0)
(0.000653017 7.55936e-05 3.68504e-15 -0.000274589 1.80346e-15 0)
(0.000670169 9.82037e-05 2.29601e-15 -0.000271019 2.6563e-15 0)
(0.000643924 8.40053e-05 1.33048e-15 -0.000273083 2.34025e-15 0)
(0.000659729 0.000104992 8.29794e-16 -0.000269011 3.01278e-15 0)
(0.000635083 9.12767e-05 1.11169e-15 -0.000271438 1.95829e-15 0)
(0.000846432 -0.00050027 4.04039e-15 -0.000239927 -6.35234e-16 0)
(0.000761403 -0.000495574 1.2734e-15 -0.000194215 -4.52654e-16 0)
(0.000840894 -0.000417392 1.79327e-16 -0.000252211 -1.33682e-16 0)
(0.000761559 -0.000417463 2.86555e-16 -0.000213858 -2.72677e-16 0)
(0.000833545 -0.000345678 1.69314e-15 -0.000261882 -5.39933e-16 0)
(0.000759541 -0.000349529 1.55334e-15 -0.000229854 -2.7452e-16 0)
(0.00082491 -0.000283471 -2.43945e-17 -0.000269473 8.70614e-17 0)
(0.000755869 -0.000290305 -1.76454e-15 -0.000242881 7.02563e-17 0)
(0.000815383 -0.000229386 -1.55561e-15 -0.000275395 -5.39716e-16 0)
(0.000750943 -0.000238557 -1.33595e-15 -0.000253479 -8.71915e-16 0)
(0.00080526 -0.000182262 -6.12628e-16 -0.000279969 -1.28185e-15 0)
(0.000745074 -0.000193246 -5.77771e-16 -0.000262076 -5.27464e-16 0)
(0.000794762 -0.000141123 6.62448e-17 -0.000283448 -4.33139e-16 0)
(0.000738504 -0.000153494 4.47396e-16 -0.000269015 3.09973e-16 0)
(0.000784056 -0.000105145 2.20418e-16 -0.000286029 -2.21936e-16 0)
(0.000731419 -0.000118557 1.93031e-15 -0.000274571 -8.5717e-16 0)
(0.000773263 -7.36338e-05 1.31156e-15 -0.000287869 -1.64528e-15 0)
(0.000723965 -8.78038e-05 2.56229e-15 -0.000278966 -1.87502e-15 0)
(0.000762474 -4.5999e-05 8.8124e-16 -0.00028909 -1.71076e-15 0)
(0.000716256 -6.06959e-05 1.41694e-15 -0.000282381 -6.98009e-16 0)
(0.000751753 -2.17405e-05 3.39247e-16 -0.000289791 -4.17309e-16 0)
(0.000708381 -3.67756e-05 1.4891e-15 -0.000284963 -3.45318e-16 0)
(0.000741149 -4.32405e-07 2.8894e-15 -0.000290051 -1.87665e-15 0)
(0.000700409 -1.56512e-05 3.71057e-15 -0.000286831 -2.39966e-15 0)
(0.000730693 1.8288e-05 3.745e-15 -0.000289931 -2.72221e-15 0)
(0.000692394 3.01216e-06 3.24193e-15 -0.000288085 -2.14553e-15 0)
(0.000720409 3.47303e-05 3.07832e-15 -0.000289483 -1.2838e-15 0)
(0.000684379 1.95014e-05 2.88268e-15 -0.000288807 -6.56701e-16 0)
(0.000710312 4.91589e-05 2.63391e-15 -0.000288748 5.11743e-17 0)
(0.000676397 3.40625e-05 2.82684e-15 -0.000289066 3.56811e-16 0)
(0.000700411 6.17996e-05 3.25331e-15 -0.000287758 4.17743e-16 0)
(0.000668475 4.69062e-05 2.26707e-15 -0.000288919 1.0674e-15 0)
(0.000690712 7.28454e-05 3.32649e-15 -0.00028654 7.74662e-16 0)
(0.000660635 5.82129e-05 2.55937e-15 -0.000288413 1.19674e-15 0)
(0.000681216 8.24609e-05 3.10163e-15 -0.000285116 1.25258e-15 0)
(0.000652893 6.81373e-05 1.67054e-15 -0.000287591 1.90722e-15 0)
(0.000671925 9.07865e-05 1.38182e-15 -0.000283505 2.19171e-15 0)
(0.000645263 7.68117e-05 1.15858e-15 -0.000286486 2.56587e-15 0)
(0.000662836 9.79418e-05 1.36263e-15 -0.000281721 1.70903e-15 0)
(0.000637756 8.4349e-05 2.14347e-15 -0.000285128 1.90017e-15 0)
(0.000745697 -0.000499187 1.39504e-15 -0.000187547 1.764e-16 0)