/*--------------------------------*- C++ -*----------------------------------*\
| =========                 |                                                 |
| \\      /  F ield         | OpenFOAM: The Open Source CFD Toolbox           |
|  \\    /   O peration     | Version:  v2012                                 |
|   \\  /    A nd           | Website:  www.openfoam.com                      |
|    \\/     M anipulation  |                                                 |
\*---------------------------------------------------------------------------*/
FoamFile
{
    version     2.0;
    format      ascii;
    class       volSymmTensorField;
    location    "2";
    object      sigma;
}
// * * * * * * * * * * * * * * * * * * * * * * * * * * * * * * * * * * * * * //

dimensions      [1 -1 -2 0 0 0 0];


internalField   nonuniform List<symmTensor> 
8000
(
(1.16748e+08 -808987 2.23027e-05 531036 0.000544144 3.51838e+07)
(1.07362e+08 -4.8911e+06 0.000152149 -700622 0.000480638 3.19984e+07)
(1.09476e+08 -144308 0.000122743 3.61424e+06 0.000557238 3.39271e+07)
(1.007e+08 -4.07429e+06 0.000115494 1.62628e+06 0.000425165 3.06977e+07)
(1.02757e+08 276538 -1.0762e-05 5.85999e+06 0.000364601 3.2585e+07)
(9.47771e+07 -3.38756e+06 6.99722e-06 3.54825e+06 0.000257053 2.94976e+07)
(9.66838e+07 540808 1.71616e-05 7.48566e+06 0.000263154 3.12508e+07)
(8.95169e+07 -2.82673e+06 5.1535e-05 5.1134e+06 0.000226124 2.83891e+07)
(9.12309e+07 709866 3.18022e-05 8.65236e+06 0.000185567 2.9965e+07)
(8.48269e+07 -2.36564e+06 5.37732e-05 6.3566e+06 0.000185433 2.7355e+07)
(8.634e+07 820849 1.94384e-05 9.47222e+06 0.000207565 2.87437e+07)
(8.06258e+07 -1.98176e+06 6.22916e-05 7.31639e+06 0.000148058 2.63827e+07)
(8.19468e+07 895649 3.94157e-05 1.00241e+07 0.000119959 2.75913e+07)
(7.68451e+07 -1.65843e+06 5.24089e-05 8.03178e+06 7.32554e-05 2.54631e+07)
(7.79906e+07 947268 1.04358e-05 1.0365e+07 4.64939e-05 2.65067e+07)
(7.34274e+07 -1.3835e+06 4.05986e-05 8.53913e+06 4.48476e-05 2.459e+07)
(7.44161e+07 983595 2.76733e-05 1.05375e+07 4.27926e-06 2.54861e+07)
(7.0324e+07 -1.148e+06 3.58994e-05 8.8708e+06 5.6185e-05 2.37584e+07)
(7.11745e+07 1.00956e+06 6.30469e-06 1.05741e+07 1.65975e-05 2.45246e+07)
(6.74936e+07 -945169 -8.85407e-06 9.05482e+06 8.79672e-05 2.29645e+07)
(6.82233e+07 1.02834e+06 -1.43976e-05 1.05002e+07 6.98051e-05 2.36171e+07)
(6.49009e+07 -769745 4.56467e-05 9.11515e+06 8.89012e-05 2.22048e+07)
(6.55254e+07 1.04208e+06 5.63656e-05 1.03361e+07 4.76265e-05 2.27585e+07)
(6.25153e+07 -617564 9.4474e-05 9.07215e+06 3.29089e-05 2.14762e+07)
(6.30484e+07 1.0523e+06 3.19766e-05 1.0098e+07 5.30675e-06 2.19439e+07)
(6.03105e+07 -485244 3.31037e-05 8.94304e+06 2.82385e-05 2.07761e+07)
(6.07639e+07 1.06013e+06 -8.64938e-07 9.79922e+06 4.76849e-05 2.11689e+07)
(5.82633e+07 -369982 -1.75177e-06 8.74245e+06 7.42945e-05 2.01017e+07)
(5.86471e+07 1.06647e+06 -7.60401e-07 9.45048e+06 9.19545e-05 2.04293e+07)
(5.63534e+07 -269410 3.79533e-05 8.48282e+06 4.52271e-05 1.94509e+07)
(5.66761e+07 1.07213e+06 3.54721e-05 9.06054e+06 5.24545e-05 1.9721e+07)
(5.45627e+07 -181486 7.16401e-05 8.17482e+06 2.94761e-05 1.88213e+07)
(5.48311e+07 1.0779e+06 3.05908e-05 8.63644e+06 5.11001e-05 1.90403e+07)
(5.28749e+07 -104469 4.41321e-05 7.82768e+06 3.78945e-05 1.82108e+07)
(5.30941e+07 1.08461e+06 1.01569e-05 8.18372e+06 4.59627e-05 1.83834e+07)
(5.12746e+07 -36997.3 2.99114e-05 7.4495e+06 4.16017e-05 1.76172e+07)
(5.14481e+07 1.09331e+06 1.71643e-05 7.70662e+06 6.63081e-05 1.77464e+07)
(4.97457e+07 21445.2 1.4311e-05 7.04738e+06 6.4691e-05 1.70379e+07)
(4.98755e+07 1.10533e+06 -3.88848e-06 7.20841e+06 4.90743e-05 1.71252e+07)
(4.8268e+07 68956.7 -2.24563e-06 6.62712e+06 6.31673e-05 1.64685e+07)
(1.16834e+08 -4.13367e+06 0.000333193 3.26163e+06 0.000367281 3.60286e+07)
(1.0591e+08 -8.44476e+06 0.00045254 64934.7 0.000302082 3.17925e+07)
(1.08901e+08 -3.27648e+06 0.000252075 5.04114e+06 0.000295036 3.41826e+07)
(9.9503e+07 -7.08505e+06 0.000120627 2.36893e+06 0.000202094 3.05616e+07)
(1.02069e+08 -2.45069e+06 -1.34274e-07 6.5588e+06 0.000233964 3.25883e+07)
(9.38084e+07 -5.88859e+06 -3.31672e-05 4.17405e+06 0.000165152 2.93947e+07)
(9.60464e+07 -1.72216e+06 1.00085e-05 7.77945e+06 0.000156564 3.11477e+07)
(8.87244e+07 -4.84871e+06 -6.01432e-05 5.58975e+06 2.94236e-05 2.82942e+07)
(9.06896e+07 -1.09828e+06 7.6135e-06 8.71947e+06 0.000107116 2.98227e+07)
(8.417e+07 -3.95088e+06 1.77257e-06 6.68825e+06 1.71229e-05 2.72575e+07)
(8.58999e+07 -569612 9.06621e-05 9.41146e+06 4.63772e-05 2.85934e+07)
(8.00759e+07 -3.1774e+06 7.69932e-05 7.52265e+06 -5.81291e-05 2.62796e+07)
(8.15995e+07 -122846 5.99914e-05 9.89088e+06 7.26832e-06 2.74471e+07)
(7.63818e+07 -2.51095e+06 7.52739e-06 8.13516e+06 -5.08082e-05 2.53551e+07)
(7.77237e+07 254960 3.06299e-05 1.01909e+07 1.89911e-05 2.63744e+07)
(7.30357e+07 -1.936e+06 1.87707e-05 8.56075e+06 1.0415e-05 2.44789e+07)
(7.42174e+07 575124 3.73925e-05 1.03409e+07 8.69397e-05 2.53675e+07)
(6.99929e+07 -1.43914e+06 3.276e-05 8.82885e+06 4.11171e-05 2.36465e+07)
(7.10331e+07 847150 1.51781e-05 1.0366e+07 7.99224e-05 2.44197e+07)
(6.72145e+07 -1.00902e+06 5.58121e-05 8.96442e+06 4.81869e-05 2.28537e+07)
(6.81301e+07 1.07889e+06 8.61997e-05 1.02874e+07 7.66589e-05 2.35252e+07)
(6.46669e+07 -636138 0.000153815 8.9887e+06 1.31647e-05 2.20967e+07)
(6.54726e+07 1.27678e+06 0.00014388 1.0123e+07 1.41046e-05 2.26787e+07)
(6.23208e+07 -312512 0.000106755 8.91973e+06 -2.60375e-05 2.13721e+07)
(6.30298e+07 1.44613e+06 5.4843e-05 9.88806e+06 1.77534e-05 2.18754e+07)
(6.01505e+07 -31488.1 1.0072e-05 8.77289e+06 -1.83197e-05 2.0677e+07)
(6.07745e+07 1.59128e+06 -1.2316e-05 9.59518e+06 2.28733e-05 2.11109e+07)
(5.81337e+07 212489 -6.71006e-06 8.5613e+06 -4.60619e-05 2.00085e+07)
(5.86828e+07 1.71581e+06 4.20512e-05 9.25521e+06 -3.03869e-05 2.03814e+07)
(5.62504e+07 424028 3.72794e-05 8.29618e+06 -5.63718e-05 1.9364e+07)
(5.67339e+07 1.82262e+06 6.85364e-05 8.87746e+06 4.37851e-06 1.96834e+07)
(5.44829e+07 606899 -4.23037e-06 7.98716e+06 -3.35511e-05 1.8741e+07)
(5.49091e+07 1.91393e+06 1.58648e-05 8.47017e+06 -1.48986e-05 1.90138e+07)
(5.28153e+07 764091 -4.25073e-05 7.64251e+06 -6.42999e-05 1.81374e+07)
(5.31921e+07 1.99112e+06 9.95308e-06 8.04104e+06 -7.01145e-06 1.83699e+07)
(5.1234e+07 897807 -2.24275e-05 7.26936e+06 -4.43689e-05 1.7551e+07)
(5.15691e+07 2.05406e+06 -1.75615e-06 7.59818e+06 1.15651e-05 1.77502e+07)
(4.97282e+07 1.00951e+06 -8.27604e-05 6.87389e+06 -6.56776e-06 1.69806e+07)
(5.00306e+07 2.09907e+06 -5.74606e-05 7.15226e+06 6.49129e-05 1.71548e+07)
(4.82963e+07 1.10049e+06 -8.04266e-05 6.46161e+06 2.80692e-05 1.64274e+07)
(1.15052e+08 -8.06293e+06 0.000320084 3.85062e+06 0.000203846 3.56709e+07)
(1.03903e+08 -1.20197e+07 0.000161481 1.03454e+06 0.00014083 3.14813e+07)
(1.07382e+08 -6.44568e+06 0.000170771 5.56173e+06 0.000153802 3.38832e+07)
(9.77292e+07 -9.97262e+06 -6.30899e-05 3.09698e+06 0.000159775 3.02479e+07)
(1.00729e+08 -5.03702e+06 -0.000138934 6.91292e+06 0.000142903 3.22926e+07)
(9.2267e+07 -8.21717e+06 -0.000182915 4.70721e+06 0.000187184 2.90923e+07)
(9.48809e+07 -3.81421e+06 -0.000138281 7.96383e+06 8.30165e-05 3.08534e+07)
(8.73987e+07 -6.70376e+06 -7.02517e-05 5.95224e+06 0.000130147 2.80053e+07)
(8.96942e+07 -2.75781e+06 3.78741e-06 8.75878e+06 -1.32464e-05 2.95359e+07)
(8.30369e+07 -5.39662e+06 3.74165e-05 6.90069e+06 6.97584e-05 2.69813e+07)
(8.50637e+07 -1.84796e+06 2.34615e-05 9.33528e+06 -4.62954e-06 2.83197e+07)
(7.91115e+07 -4.26643e+06 6.31534e-05 7.60568e+06 9.74481e-05 2.60152e+07)
(8.09079e+07 -1.06544e+06 6.43655e-05 9.72608e+06 -1.86057e-05 2.71902e+07)
(7.55642e+07 -3.28818e+06 8.02544e-05 8.10913e+06 0.00010547 2.5102e+07)
(7.71609e+07 -392645 9.3722e-06 9.95978e+06 5.86837e-05 2.61362e+07)
(7.23459e+07 -2.4405e+06 -3.17077e-05 8.4448e+06 0.0001092 2.42372e+07)
(7.37679e+07 186001 -2.27755e-05 1.00612e+07 1.41689e-05 2.51487e+07)
(6.94143e+07 -1.7051e+06 -5.34222e-05 8.64034e+06 1.61304e-05 2.34164e+07)
(7.0683e+07 684001 4.58415e-05 1.00516e+07 1.5173e-05 2.42204e+07)
(6.67331e+07 -1.06643e+06 2.2677e-05 8.71873e+06 8.75702e-06 2.26355e+07)
(6.78666e+07 1.1129e+06 0.000102627 9.94944e+06 -1.68018e-05 2.33448e+07)
(6.42709e+07 -511310 0.000102148 8.69919e+06 -5.27639e-05 2.1891e+07)
(6.52848e+07 1.48249e+06 0.000119214 9.77031e+06 -5.7773e-05 2.25165e+07)
(6.20003e+07 -28582.8 4.78454e-05 8.59792e+06 -5.82634e-05 2.11795e+07)
(6.29083e+07 1.80103e+06 -6.70569e-06 9.52765e+06 -5.75161e-05 2.17308e+07)
(5.98972e+07 391168 -7.82739e-05 8.42865e+06 -5.56946e-05 2.04978e+07)
(6.07114e+07 2.07545e+06 -5.06433e-05 9.23294e+06 -7.93444e-05 2.09833e+07)
(5.79407e+07 755863 -8.36908e-05 8.20303e+06 -0.000112592 1.98431e+07)
(5.86718e+07 2.3115e+06 -3.58826e-05 8.89607e+06 -9.89018e-05 2.02704e+07)
(5.61121e+07 1.07214e+06 -8.56896e-05 7.93101e+06 -9.45816e-05 1.92129e+07)
(5.67696e+07 2.51394e+06 -7.27227e-05 8.52562e+06 -8.28122e-05 1.95886e+07)
(5.43951e+07 1.34552e+06 -0.000120467 7.62107e+06 -8.35945e-05 1.86048e+07)
(5.49877e+07 2.68657e+06 -9.88755e-05 8.12906e+06 -7.79783e-05 1.8935e+07)
(5.27753e+07 1.58059e+06 -0.000104349 7.2805e+06 -2.86413e-05 1.80167e+07)
(5.33108e+07 2.83236e+06 -7.14288e-05 7.71276e+06 -5.09425e-05 1.83071e+07)
(5.12404e+07 1.78116e+06 -8.53955e-05 6.91551e+06 -1.77592e-05 1.74468e+07)
(5.17257e+07 2.95382e+06 -0.000109297 7.28145e+06 -2.73569e-05 1.77021e+07)
(4.97798e+07 1.9506e+06 -0.000118049 6.53141e+06 -2.63878e-06 1.68934e+07)
(5.02197e+07 3.05455e+06 -0.0001091 6.83558e+06 -1.31589e-05 1.71166e+07)
(4.83819e+07 2.09231e+06 -5.42979e-05 6.13252e+06 -2.39592e-05 1.63543e+07)
(1.12031e+08 -1.19387e+07 5.38352e-05 4.39689e+06 0.000148718 3.49284e+07)
(1.01045e+08 -1.53835e+07 1.94669e-05 2.21623e+06 8.3793e-05 3.09783e+07)
(1.04905e+08 -9.56551e+06 -9.68059e-05 5.95127e+06 8.52233e-05 3.32569e+07)
(9.52696e+07 -1.26958e+07 -0.000252303 3.92307e+06 0.000111833 2.97578e+07)
(9.86486e+07 -7.55055e+06 -0.000254885 7.14198e+06 0.000230047 3.17372e+07)
(9.01469e+07 -1.04053e+07 -0.000165789 5.25221e+06 0.000219474 2.86197e+07)
(9.31226e+07 -5.82639e+06 -2.80049e-05 8.04102e+06 0.00021812 3.03491e+07)
(8.5575e+07 -8.44069e+06 0.000103423 6.26926e+06 0.000145518 2.75533e+07)
(8.82105e+07 -4.34572e+06 8.78504e-05 8.7009e+06 0.000134327 2.90734e+07)
(8.14731e+07 -6.74867e+06 2.03907e-05 7.02995e+06 0.000118185 2.65509e+07)
(8.38186e+07 -3.07165e+06 1.03741e-05 9.16239e+06 0.000148939 2.78943e+07)
(7.77757e+07 -5.2871e+06 -4.77827e-05 7.57978e+06 7.33896e-05 2.56066e+07)
(7.98714e+07 -1.97385e+06 2.62711e-05 9.45836e+06 0.000140877 2.67989e+07)
(7.44283e+07 -4.02173e+06 -7.36363e-05 7.95557e+06 0.000102731 2.47152e+07)
(7.63071e+07 -1.02686e+06 -5.4349e-05 9.61597e+06 0.000115505 2.57769e+07)
(7.13854e+07 -2.9242e+06 -0.000108778 8.18724e+06 5.78897e-05 2.38718e+07)
(7.30744e+07 -209183 -0.000110978 9.65792e+06 5.25946e-05 2.48197e+07)
(6.86081e+07 -1.97079e+06 -0.000102869 8.2993e+06 5.30559e-05 2.30722e+07)
(7.01299e+07 497421 -6.07241e-05 9.60338e+06 8.42425e-06 2.392e+07)
(6.60629e+07 -1.14157e+06 -4.71668e-05 8.312e+06 -9.5685e-06 2.23125e+07)
(6.74369e+07 1.10839e+06 4.33429e-05 9.46857e+06 -4.44681e-05 2.30716e+07)
(6.37211e+07 -419743 5.63587e-05 8.24218e+06 -5.24604e-05 2.1589e+07)
(6.49638e+07 1.6368e+06 4.83796e-05 9.26732e+06 -6.141e-05 2.22693e+07)
(6.15576e+07 208877 2.25201e-05 8.10395e+06 -7.90292e-05 2.08985e+07)
(6.26833e+07 2.0937e+06 -4.9283e-05 9.01141e+06 -7.25256e-05 2.15084e+07)
(5.95506e+07 756268 -3.11779e-05 7.90922e+06 -7.50418e-05 2.02379e+07)
(6.05717e+07 2.48839e+06 -9.39716e-05 8.71093e+06 -9.10555e-05 2.07848e+07)
(5.76807e+07 1.23254e+06 -5.02711e-05 7.66803e+06 -6.4043e-05 1.96046e+07)
(5.86084e+07 2.82872e+06 -8.86685e-05 8.37453e+06 -8.3974e-05 2.00949e+07)
(5.59312e+07 1.64624e+06 -4.95472e-05 7.38894e+06 -3.21032e-05 1.8996e+07)
(5.67751e+07 3.12125e+06 -9.55974e-05 8.00959e+06 -4.77724e-05 1.94354e+07)
(5.4287e+07 2.00455e+06 -6.56236e-05 7.07923e+06 8.61691e-06 1.84099e+07)
(5.50559e+07 3.37149e+06 -9.86551e-05 7.6224e+06 1.40871e-05 1.88035e+07)
(5.27351e+07 2.31357e+06 -6.19778e-05 6.74511e+06 1.06952e-05 1.78441e+07)
(5.34366e+07 3.58417e+06 -8.27027e-05 7.21808e+06 -3.91147e-06 1.81964e+07)
(5.12635e+07 2.57848e+06 -6.55536e-05 6.3919e+06 -1.30188e-05 1.72966e+07)
(5.19044e+07 3.76344e+06 -8.04091e-05 6.8008e+06 -3.55535e-06 1.76116e+07)
(4.98613e+07 2.80375e+06 -4.0491e-05 6.02415e+06 1.84715e-05 1.67656e+07)
(5.0448e+07 3.91279e+06 -3.04752e-05 6.37491e+06 5.93726e-06 1.70469e+07)
(4.85185e+07 2.99306e+06 2.71592e-05 5.64585e+06 4.64122e-06 1.62493e+07)
(1.08002e+08 -1.5536e+07 -4.59875e-05 5.12355e+06 4.55657e-05 3.39376e+07)
(9.73649e+07 -1.84161e+07 -0.000128886 3.57815e+06 -9.74306e-05 3.02829e+07)
(1.01558e+08 -1.25033e+07 -0.00021321 6.40004e+06 -2.47415e-05 3.23875e+07)
(9.21256e+07 -1.5177e+07 -0.000209096 4.85117e+06 -4.6132e-05 2.9093e+07)
(9.58473e+07 -9.9345e+06 -0.000162365 7.36189e+06 8.94675e-05 3.09628e+07)
(8.74523e+07 -1.24148e+07 -0.000133406 5.83132e+06 -8.99054e-06 2.79851e+07)
(9.07682e+07 -7.74447e+06 -4.96961e-06 8.06893e+06 5.95711e-05 2.96511e+07)
(8.32643e+07 -1.00474e+07 -0.000101252 6.56671e+06 -7.10311e-05 2.69493e+07)
(8.62307e+07 -5.86876e+06 -5.02376e-05 8.56792e+06 9.26492e-06 2.84396e+07)
(7.94938e+07 -8.01002e+06 -0.000157232 7.09904e+06 -8.07981e-06 2.59778e+07)
(8.21579e+07 -4.25685e+06 -0.000134808 8.89588e+06 3.33526e-05 2.73161e+07)
(7.60842e+07 -6.25087e+06 -6.95993e-05 7.46341e+06 2.50509e-05 2.50643e+07)
(7.84853e+07 -2.86808e+06 -7.75784e-05 9.08256e+06 3.28096e-05 2.62704e+07)
(7.29882e+07 -4.72781e+06 -4.26861e-05 7.68897e+06 3.27571e-05 2.42032e+07)
(7.51589e+07 -1.6692e+06 -9.32549e-05 9.15224e+06 4.995e-05 2.52933e+07)
(7.01655e+07 -3.40619e+06 -4.75112e-05 7.79978e+06 -4.46608e-06 2.33896e+07)
(7.21333e+07 -632603 -5.89581e-05 9.12499e+06 7.63028e-06 2.43775e+07)
(6.75819e+07 -2.25728e+06 6.06861e-06 7.81576e+06 -6.84507e-05 2.26193e+07)
(6.93698e+07 264721 -2.90368e-05 9.0175e+06 -3.54542e-05 2.35162e+07)
(6.52078e+07 -1.25708e+06 1.8667e-06 7.75344e+06 -9.73839e-05 2.18884e+07)
(6.68357e+07 1.04209e+06 -1.84919e-06 8.84382e+06 -7.54096e-05 2.27039e+07)
(6.30178e+07 -385437 -6.93848e-06 7.6266e+06 -8.12243e-05 2.11933e+07)
(6.45026e+07 1.71577e+06 2.90076e-05 8.6158e+06 -7.43237e-05 2.19355e+07)
(6.09897e+07 374597 1.3299e-05 7.44678e+06 -7.22454e-05 2.05309e+07)
(6.23461e+07 2.29947e+06 2.11657e-05 8.34349e+06 -7.94203e-05 2.12069e+07)
(5.91041e+07 1.03733e+06 -1.00764e-05 7.22369e+06 -5.39958e-05 1.98983e+07)
(6.03449e+07 2.80474e+06 -2.40774e-05 8.03546e+06 -2.59033e-05 2.05141e+07)
(5.7344e+07 1.61487e+06 -4.02458e-05 6.96556e+06 -2.60726e-05 1.92929e+07)
(5.84804e+07 3.24135e+06 -3.0886e-05 7.699e+06 -1.70995e-05 1.98538e+07)
(5.56944e+07 2.11743e+06 -2.74387e-06 6.67936e+06 -7.80951e-05 1.87121e+07)
(5.67363e+07 3.61756e+06 1.25079e-06 7.34034e+06 -3.4707e-05 1.9223e+07)
(5.4142e+07 2.5537e+06 4.06647e-05 6.37101e+06 -6.47202e-05 1.81539e+07)
(5.50981e+07 3.94035e+06 -5.61909e-07 6.96477e+06 -1.88451e-05 1.86189e+07)
(5.26749e+07 2.93101e+06 3.89366e-05 6.04559e+06 -5.30091e-05 1.76162e+07)
(5.35531e+07 4.21565e+06 -1.50898e-05 6.57687e+06 -2.8291e-05 1.8039e+07)
(5.12825e+07 3.25558e+06 1.60531e-05 5.70745e+06 -4.09712e-05 1.7097e+07)
(5.20899e+07 4.44844e+06 -3.03577e-06 6.18076e+06 -1.09755e-06 1.74812e+07)
(4.99549e+07 3.53264e+06 5.38848e-06 5.36038e+06 -8.27246e-06 1.65946e+07)
(5.06981e+07 4.64288e+06 2.14722e-05 5.78011e+06 1.12148e-05 1.69435e+07)
(4.86836e+07 3.76653e+06 2.66753e-05 5.00765e+06 -2.55705e-05 1.61074e+07)
(1.03104e+08 -1.87408e+07 -0.000138781 6.03697e+06 -8.1306e-05 3.27423e+07)
(9.2954e+07 -2.10392e+07 -0.00020328 5.07212e+06 -7.54038e-05 2.94078e+07)
(9.74442e+07 -1.51619e+07 -0.000188434 6.94709e+06 -0.00011101 3.13174e+07)
(8.83534e+07 -1.73529e+07 -0.000247135 5.85513e+06 -6.16377e-05 2.82626e+07)
(9.23846e+07 -1.21224e+07 -0.000235526 7.61406e+06 -8.91815e-05 2.99996e+07)
(8.42199e+07 -1.42016e+07 -0.0002718 6.43669e+06 -4.89984e-05 2.7197e+07)
(8.78497e+07 -9.52892e+06 -0.000253904 8.0815e+06 -9.363e-05 2.87794e+07)
(8.04923e+07 -1.14971e+07 -0.000207965 6.84858e+06 -7.52695e-05 2.62022e+07)
(8.37711e+07 -7.30702e+06 -0.000155129 8.38524e+06 -6.67927e-05 2.76469e+07)
(7.71177e+07 -9.16756e+06 -1.25488e-05 7.1186e+06 -9.23924e-05 2.52709e+07)
(8.00889e+07 -5.39705e+06 4.15623e-05 8.5545e+06 -3.63591e-05 2.6593e+07)
(7.4051e+07 -7.15467e+06 -8.06083e-06 7.27066e+06 -0.000101377 2.43965e+07)
(7.67513e+07 -3.75064e+06 -8.70068e-05 8.61316e+06 -3.32008e-05 2.56093e+07)
(7.12534e+07 -5.41062e+06 -0.000140782 7.32507e+06 -9.16509e-05 2.35735e+07)
(7.37142e+07 -2.32817e+06 -4.85066e-05 8.58081e+06 -7.16266e-05 2.46885e+07)
(6.86918e+07 -3.89597e+06 -3.84958e-05 7.29891e+06 -9.92579e-05 2.27972e+07)
(7.09397e+07 -1.09695e+06 2.4959e-05 8.47369e+06 -0.000101056 2.3824e+07)
(6.63376e+07 -2.57799e+06 2.54523e-05 7.20655e+06 -0.000100402 2.20632e+07)
(6.83955e+07 -29760.9 3.40487e-05 8.30531e+06 -0.000125208 2.30102e+07)
(6.41661e+07 -1.42936e+06 -2.07279e-05 7.06002e+06 -0.000108733 2.13678e+07)
(6.60535e+07 896121 -5.57983e-05 8.08698e+06 -8.51299e-05 2.22422e+07)
(6.21559e+07 -427170 -7.47426e-05 6.86943e+06 -4.3499e-05 2.07076e+07)
(6.38897e+07 1.69978e+06 -3.52047e-05 7.82824e+06 -4.00429e-05 2.15154e+07)
(6.02881e+07 447850 -4.67917e-05 6.6433e+06 -4.83679e-05 2.00794e+07)
(6.18831e+07 2.39729e+06 -2.48013e-05 7.53717e+06 -5.72359e-05 2.08261e+07)
(5.85464e+07 1.21198e+06 -5.05003e-05 6.38883e+06 -1.75432e-05 1.94806e+07)
(6.00154e+07 3.0022e+06 -4.95355e-05 7.22061e+06 -1.57743e-05 2.01708e+07)
(5.69162e+07 1.87896e+06 -4.11872e-05 6.11211e+06 2.27274e-05 1.89085e+07)
(5.82705e+07 3.52596e+06 -3.80784e-06 6.88443e+06 -5.06272e-05 1.95465e+07)
(5.53848e+07 2.46047e+06 2.54129e-05 5.81833e+06 -6.8188e-06 1.83609e+07)
(5.66342e+07 3.97827e+06 6.28885e-05 6.53362e+06 -6.62556e-05 1.89503e+07)
(5.39408e+07 2.96636e+06 6.006e-05 5.51193e+06 -2.53837e-05 1.78358e+07)
(5.50941e+07 4.3673e+06 7.23884e-05 6.17253e+06 -5.76504e-05 1.838e+07)
(5.25738e+07 3.40501e+06 7.13726e-05 5.19669e+06 -3.76143e-05 1.73312e+07)
(5.3639e+07 4.69996e+06 6.22551e-05 5.80494e+06 -4.51278e-05 1.78332e+07)
(5.1275e+07 3.78348e+06 5.17087e-05 4.87589e+06 -4.38902e-05 1.68453e+07)
(5.2259e+07 4.98206e+06 9.89835e-06 5.43419e+06 -4.35107e-05 1.7308e+07)
(5.00359e+07 4.10771e+06 1.58619e-05 4.55238e+06 -2.41577e-05 1.63765e+07)
(5.09452e+07 5.21841e+06 1.68251e-05 5.06326e+06 -2.26048e-05 1.68026e+07)
(4.88491e+07 4.38266e+06 7.47382e-05 4.22863e+06 -8.11484e-06 1.59233e+07)
(9.74615e+07 -2.14778e+07 -0.000218753 7.09496e+06 -0.000108044 3.13669e+07)
(8.79201e+07 -2.31976e+07 -0.000339991 6.64155e+06 -0.000160872 2.83685e+07)
(9.2665e+07 -1.74725e+07 -0.000375037 7.57909e+06 -7.7377e-05 3.00732e+07)
(8.40325e+07 -1.91764e+07 -0.000306417 6.89777e+06 -7.28759e-05 2.72791e+07)
(8.83351e+07 -1.40591e+07 -0.000213114 7.90161e+06 -1.84481e-05 2.8871e+07)
(8.05065e+07 -1.57288e+07 -9.11576e-05 7.04805e+06 -9.46108e-05 2.62664e+07)
(8.44179e+07 -1.11395e+07 -0.000112852 8.0901e+06 -0.000105645 2.77524e+07)
(7.72993e+07 -1.27632e+07 -7.10807e-05 7.10791e+06 -0.000152576 2.53222e+07)
(8.08644e+07 -8.63359e+06 -3.03839e-05 8.16804e+06 -0.000143183 2.67097e+07)
(7.43732e+07 -1.0204e+07 2.79816e-05 7.09138e+06 -0.000138349 2.44394e+07)
(7.76311e+07 -6.47623e+06 -3.49989e-06 8.15511e+06 -0.000147276 2.57359e+07)
(7.1695e+07 -7.9891e+06 -0.000123287 7.01106e+06 -9.42781e-05 2.36118e+07)
(7.46794e+07 -4.61394e+06 -0.000176582 8.06777e+06 -0.000104098 2.48242e+07)
(6.92357e+07 -6.06715e+06 -0.000118071 6.87803e+06 -6.61505e-05 2.28341e+07)
(7.19759e+07 -3.00272e+06 -7.04765e-05 7.91972e+06 -8.17322e-05 2.39687e+07)
(6.697e+07 -4.39563e+06 -2.72985e-05 6.70192e+06 -5.45504e-05 2.21016e+07)
(6.94912e+07 -1.6061e+06 6.82901e-06 7.72243e+06 -7.41311e-05 2.31641e+07)
(6.48759e+07 -2.9391e+06 3.17529e-05 6.491e+06 -8.07864e-05 2.14101e+07)
(6.72e+07 -393724 -3.71589e-06 7.48551e+06 -9.29528e-05 2.24057e+07)
(6.29342e+07 -1.66789e+06 -4.84788e-05 6.25238e+06 -6.27937e-05 2.0756e+07)
(6.508e+07 659806 -8.35332e-05 7.21706e+06 -3.95525e-05 2.16891e+07)
(6.11278e+07 -557090 -0.000152933 5.9921e+06 -2.3895e-05 2.0136e+07)
(6.31118e+07 1.57581e+06 -0.000147637 6.92391e+06 -3.72757e-05 2.10107e+07)
(5.94419e+07 414291 -0.000213228 5.71533e+06 -2.16532e-05 1.95472e+07)
(6.12784e+07 2.37225e+06 -0.000125491 6.61186e+06 3.81222e-06 2.03671e+07)
(5.78633e+07 1.26399e+06 -0.000133939 5.42647e+06 4.2057e-05 1.89869e+07)
(5.9565e+07 3.06427e+06 -4.55628e-05 6.28586e+06 5.413e-05 1.97553e+07)
(5.63805e+07 2.00703e+06 -3.13093e-05 5.12929e+06 5.16431e-05 1.84529e+07)
(5.79583e+07 3.6647e+06 3.15982e-06 5.95015e+06 5.67221e-05 1.91725e+07)
(5.4983e+07 2.65614e+06 3.86885e-05 4.82702e+06 4.20921e-05 1.7943e+07)
(5.64467e+07 4.18436e+06 5.90909e-05 5.60838e+06 1.17052e-05 1.86165e+07)
(5.36616e+07 3.22212e+06 8.9145e-05 4.52243e+06 -2.98965e-05 1.74552e+07)
(5.50199e+07 4.63243e+06 8.74155e-05 5.26373e+06 -4.84497e-05 1.80851e+07)
(5.2408e+07 3.71412e+06 0.000130468 4.21791e+06 -6.74757e-05 1.69878e+07)
(5.36686e+07 5.01664e+06 9.83836e-05 4.91897e+06 -5.34703e-05 1.75763e+07)
(5.12149e+07 4.13991e+06 0.000106717 3.91553e+06 -6.09839e-05 1.65391e+07)
(5.23847e+07 5.34349e+06 5.85626e-05 4.57655e+06 -3.10407e-05 1.70884e+07)
(5.00756e+07 4.506e+06 7.00065e-05 3.6171e+06 -6.57944e-06 1.61078e+07)
(5.11606e+07 5.61842e+06 7.97575e-05 4.23864e+06 1.27444e-05 1.66198e+07)
(4.8984e+07 4.8179e+06 5.31128e-05 3.3242e+06 4.44506e-05 1.56925e+07)
(9.12018e+07 -2.36931e+07 -0.000257815 8.24072e+06 -0.000154585 2.98328e+07)
(8.23788e+07 -2.48545e+07 -0.000202462 8.22547e+06 -0.000102463 2.71813e+07)
(8.73262e+07 -1.93859e+07 -0.000223511 8.26273e+06 -0.000104535 2.86767e+07)
(7.92531e+07 -2.06149e+07 -7.25665e-05 7.93727e+06 -3.77778e-05 2.61571e+07)
(8.37809e+07 -1.57022e+07 -4.3537e-05 8.20905e+06 -8.13585e-05 2.7597e+07)
(7.63806e+07 -1.69688e+07 -8.11017e-05 7.63978e+06 -6.09021e-05 2.52061e+07)
(8.05334e+07 -1.25418e+07 -8.82357e-05 8.09182e+06 -0.00012202 2.65876e+07)
(7.37363e+07 -1.38236e+07 -0.000108421 7.33231e+06 -7.77623e-05 2.43206e+07)
(7.75534e+07 -9.8222e+06 -3.07401e-05 7.922e+06 -0.000106853 2.56426e+07)
(7.12971e+07 -1.11028e+07 6.36518e-05 7.01548e+06 -8.93216e-05 2.34938e+07)
(7.4813e+07 -7.47545e+06 4.29094e-07 7.70923e+06 -7.15448e-05 2.47567e+07)
(6.90417e+07 -8.74261e+06 -1.48431e-05 6.69077e+06 -6.01257e-05 2.27197e+07)
(7.22869e+07 -5.44541e+06 -8.76198e-05 7.46191e+06 -4.77958e-05 2.39246e+07)
(6.69513e+07 -6.69041e+06 -5.0239e-05 6.36006e+06 -8.72082e-05 2.19934e+07)
(6.99524e+07 -3.68555e+06 -4.00137e-05 7.18722e+06 -7.79024e-05 2.31419e+07)
(6.5009e+07 -4.90212e+06 -5.01164e-05 6.02543e+06 -6.78202e-05 2.13103e+07)
(6.77891e+07 -2.15714e+06 -1.01202e-05 6.89134e+06 -5.15088e-05 2.24041e+07)
(6.31994e+07 -3.34089e+06 -1.2397e-05 5.68896e+06 -5.20809e-05 2.06665e+07)
(6.5779e+07 -827808 -1.39353e-05 6.57952e+06 -5.38673e-05 2.17076e+07)
(6.15092e+07 -1.97576e+06 -2.92747e-05 5.35261e+06 -3.1426e-05 2.00586e+07)
(6.39059e+07 329590 -0.000134336 6.25628e+06 -2.59558e-05 2.10487e+07)
(5.99263e+07 -780668 -0.000157886 5.0182e+06 -1.14425e-06 1.94833e+07)
(6.21557e+07 1.3379e+06 -0.000239589 5.92547e+06 1.36843e-05 2.04244e+07)
(5.84399e+07 266417 -0.000132934 4.68737e+06 3.34343e-05 1.89382e+07)
(6.05157e+07 2.21639e+06 -0.000116366 5.59037e+06 3.35043e-05 1.98318e+07)
(5.70403e+07 1.18414e+06 6.07153e-07 4.36157e+06 2.45897e-05 1.84206e+07)
(5.89746e+07 2.98136e+06 -7.98348e-06 5.25385e+06 3.26812e-05 1.92685e+07)
(5.57191e+07 1.98834e+06 4.6129e-05 4.04211e+06 1.13666e-05 1.79284e+07)
(5.75223e+07 3.64659e+06 5.38936e-05 4.91836e+06 1.93121e-05 1.87322e+07)
(5.44685e+07 2.69243e+06 0.000138545 3.73013e+06 -3.54951e-06 1.74596e+07)
(5.61501e+07 4.22378e+06 0.000145924 4.58604e+06 -2.01061e-05 1.82208e+07)
(5.32815e+07 3.30785e+06 0.000186218 3.42664e+06 -1.31764e-05 1.70125e+07)
(5.48498e+07 4.72281e+06 0.000164095 4.25877e+06 -4.41062e-05 1.77326e+07)
(5.21521e+07 3.8443e+06 0.000176752 3.13253e+06 -1.61888e-05 1.65854e+07)
(5.36143e+07 5.15205e+06 0.0001454 3.9382e+06 -5.00551e-05 1.72658e+07)
(5.10745e+07 4.31001e+06 0.000142509 2.84858e+06 -3.27221e-05 1.61769e+07)
(5.24373e+07 5.51857e+06 0.000108854 3.6258e+06 -1.98959e-05 1.68189e+07)
(5.00439e+07 4.71195e+06 7.56373e-05 2.57551e+06 -2.52786e-06 1.57858e+07)
(5.1313e+07 5.82828e+06 1.16833e-05 3.32286e+06 4.26759e-05 1.63907e+07)
(4.90556e+07 5.056e+06 -1.14454e-05 2.31393e+06 5.59807e-05 1.54109e+07)
(8.44588e+07 -2.5351e+07 -8.51474e-05 9.41185e+06 -0.000124945 2.81612e+07)
(7.64494e+07 -2.59891e+07 -0.000134435 9.7615e+06 -0.000143703 2.58633e+07)
(8.15368e+07 -2.08684e+07 -0.00010561 8.9564e+06 -5.43285e-05 2.71479e+07)
(7.41106e+07 -2.16484e+07 -9.13882e-05 8.93007e+06 -6.79895e-05 2.49122e+07)
(7.88086e+07 -1.70209e+07 -9.38752e-05 8.5118e+06 -3.16479e-05 2.61961e+07)
(7.19171e+07 -1.79028e+07 -8.66945e-05 8.18385e+06 -3.72115e-05 2.40303e+07)
(7.6263e+07 -1.37088e+07 -9.38256e-05 8.0754e+06 -2.59733e-05 2.53015e+07)
(6.98606e+07 -1.46616e+07 -8.87027e-05 7.50665e+06 -2.55938e-05 2.32102e+07)
(7.38877e+07 -1.08499e+07 -8.73367e-06 7.64603e+06 -6.32373e-05 2.44601e+07)
(6.79319e+07 -1.18495e+07 1.40083e-05 6.88627e+06 -5.9863e-05 2.24455e+07)
(7.167e+07 -8.37593e+06 7.02751e-05 7.22339e+06 -7.52695e-05 2.3668e+07)
(6.61218e+07 -9.40352e+06 1.96829e-05 6.31352e+06 -7.83695e-05 2.17306e+07)
(6.95972e+07 -6.23025e+06 -3.23338e-05 6.80775e+06 -0.000100472 2.29215e+07)
(6.44211e+07 -7.27128e+06 -4.44068e-05 5.78148e+06 -9.23865e-05 2.10608e+07)
(6.76574e+07 -4.36549e+06 -7.17112e-05 6.39963e+06 -6.87192e-05 2.22171e+07)
(6.28211e+07 -5.40874e+06 -2.65308e-05 5.28488e+06 -4.77199e-05 2.04318e+07)
(6.58391e+07 -2.74209e+06 -7.23622e-06 5.99973e+06 -4.79826e-05 2.15516e+07)
(6.13136e+07 -3.77888e+06 -1.08529e-05 4.81972e+06 -3.09415e-05 1.984e+07)
(6.41315e+07 -1.32683e+06 -3.1137e-05 5.60877e+06 -1.45542e-05 2.09221e+07)
(5.9891e+07 -2.3505e+06 -4.43397e-05 4.38288e+06 1.22481e-05 1.92822e+07)
(6.2525e+07 -91734.7 -7.00737e-05 5.2275e+06 1.71462e-05 2.03258e+07)
(5.85461e+07 -1.09721e+06 -9.24712e-05 3.97195e+06 1.07128e-05 1.87554e+07)
(6.10106e+07 986787 -8.34018e-05 4.85662e+06 1.20321e-05 1.97602e+07)
(5.72724e+07 3336.88 -1.38624e-05 3.58501e+06 -3.51098e-05 1.82572e+07)
(5.95801e+07 1.92871e+06 4.39369e-05 4.49681e+06 -1.75724e-05 1.92231e+07)
(5.6064e+07 970147 6.40196e-05 3.22056e+06 -6.7861e-05 1.77854e+07)
(5.82259e+07 2.75094e+06 6.89732e-05 4.14867e+06 -3.95525e-05 1.87124e+07)
(5.49154e+07 1.81937e+06 0.000126901 2.87737e+06 -5.64828e-05 1.73378e+07)
(5.69415e+07 3.46786e+06 0.000181305 3.81279e+06 -2.285e-05 1.82263e+07)
(5.38217e+07 2.56476e+06 0.000200028 2.55447e+06 -7.79375e-06 1.69128e+07)
(5.57207e+07 4.09165e+06 0.000192789 3.4897e+06 1.71871e-05 1.77631e+07)
(5.27782e+07 3.21803e+06 0.000176036 2.25105e+06 1.43148e-05 1.65088e+07)
(5.45579e+07 4.63265e+06 0.00018134 3.17989e+06 7.30919e-06 1.73213e+07)
(5.17811e+07 3.78917e+06 0.000206435 1.96646e+06 7.64196e-06 1.61243e+07)
(5.34482e+07 5.09965e+06 0.000194175 2.88382e+06 -3.02409e-06 1.68996e+07)
(5.08264e+07 4.28667e+06 0.000211391 1.70015e+06 5.3231e-05 1.5758e+07)
(5.23871e+07 5.50009e+06 0.000119221 2.60191e+06 3.40998e-05 1.64967e+07)
(4.9911e+07 4.71776e+06 8.82124e-05 1.4517e+06 0.00011265 1.54088e+07)
(5.13705e+07 5.84023e+06 1.67055e-05 2.33455e+06 8.22226e-05 1.61115e+07)
(4.90317e+07 5.08855e+06 2.86676e-05 1.22072e+06 0.000153353 1.50757e+07)
(7.73696e+07 -2.6433e+07 1.20788e-05 1.05442e+07 -0.000126393 2.63741e+07)
(7.0252e+07 -2.6596e+07 0.00010563 1.11883e+07 -5.07907e-05 2.44321e+07)
(7.54083e+07 -2.19004e+07 -3.49872e-05 9.61513e+06 -8.30107e-05 2.5507e+07)
(6.87026e+07 -2.22688e+07 1.93647e-05 9.83268e+06 -4.65114e-05 2.35606e+07)
(7.35079e+07 -1.79947e+07 -3.47362e-05 8.7808e+06 -3.71181e-05 2.46866e+07)
(6.71939e+07 -1.85208e+07 3.44355e-05 8.65155e+06 -1.10922e-05 2.27536e+07)
(7.16774e+07 -1.46204e+07 -1.82671e-05 8.02475e+06 -1.1892e-05 2.39106e+07)
(6.57333e+07 -1.52662e+07 -4.34932e-05 7.61444e+06 -1.01873e-05 2.20043e+07)
(6.99216e+07 -1.16977e+07 -8.96835e-05 7.33441e+06 -2.26281e-05 2.31768e+07)
(6.43248e+07 -1.2433e+07 -3.72699e-05 6.69733e+06 -4.00021e-05 2.13066e+07)
(6.82422e+07 -9.16046e+06 2.00244e-05 6.70004e+06 -8.12593e-05 2.24827e+07)
(6.29702e+07 -9.96098e+06 8.85626e-06 5.88116e+06 -9.15984e-05 2.06554e+07)
(6.66388e+07 -6.95308e+06 -4.86306e-06 6.11409e+06 -8.09265e-05 2.18259e+07)
(6.16697e+07 -7.79962e+06 -1.32231e-05 5.1508e+06 -4.96581e-05 2.00462e+07)
(6.51094e+07 -5.02908e+06 -1.09317e-05 5.57063e+06 -4.19928e-05 2.1204e+07)
(6.04227e+07 -5.90626e+06 -4.27342e-06 4.4941e+06 -4.09011e-05 1.9475e+07)
(6.36511e+07 -3.34937e+06 -2.37052e-05 5.06495e+06 -3.02526e-05 2.06148e+07)
(5.92275e+07 -4.24487e+06 -3.3265e-05 3.90128e+06 -4.55131e-05 1.89386e+07)
(6.22607e+07 -1.88096e+06 -3.30461e-05 4.59331e+06 -1.81212e-05 2.00562e+07)
(5.80822e+07 -2.78496e+06 -9.45174e-06 3.3644e+06 -5.7557e-05 1.8434e+07)
(6.09344e+07 -595993 -4.63334e-05 4.15269e+06 -2.88631e-05 1.95261e+07)
(5.69847e+07 -1.50062e+06 -4.03523e-05 2.87697e+06 -4.81636e-05 1.79585e+07)
(5.96685e+07 529158 -2.07512e-05 3.74064e+06 -5.10943e-05 1.90228e+07)
(5.59325e+07 -369826 0.000122876 2.43364e+06 -0.000107145 1.75098e+07)
(5.84593e+07 1.51453e+06 0.000142132 3.35516e+06 -0.00013414 1.85444e+07)
(5.49233e+07 626194 0.000181772 2.03001e+06 -0.00014595 1.7086e+07)
(5.73032e+07 2.37717e+06 0.00015293 2.99462e+06 -8.9631e-05 1.80894e+07)
(5.39548e+07 1.50346e+06 0.000165029 1.66238e+06 -4.39077e-05 1.66852e+07)
(5.61967e+07 3.13158e+06 0.000158131 2.65767e+06 4.41354e-06 1.76563e+07)
(5.30248e+07 2.27565e+06 0.000144789 1.32768e+06 1.56867e-05 1.63057e+07)
(5.51367e+07 3.7901e+06 0.000173707 2.3432e+06 5.42935e-07 1.7244e+07)
(5.21312e+07 2.95447e+06 0.000192905 1.02331e+06 -7.76456e-06 1.59463e+07)
(5.41199e+07 4.36325e+06 0.000218657 2.05028e+06 7.50185e-06 1.68511e+07)