/*--------------------------------*- C++ -*----------------------------------*\
| =========                 |                                                 |
| \\      /  F ield         | OpenFOAM: The Open Source CFD Toolbox           |
|  \\    /   O peration     | Version:  v2012                                 |
|   \\  /    A nd           | Website:  www.openfoam.com                      |
|    \\/     M anipulation  |                                                 |
\*---------------------------------------------------------------------------*/
FoamFile
{
    version     2.0;
    format      ascii;
    class       volScalarField;
    location    "17";
    object      epsilonEq;
}
// * * * * * * * * * * * * * * * * * * * * * * * * * * * * * * * * * * * * * //

dimensions      [0 0 0 0 0 0 0];


internalField   nonuniform List<scalar> 
8000
(
0.00925572
0.00926719
0.0092154
0.00913632
0.00905822
0.00892849
0.00881746
0.00865083
0.00850776
0.00830943
0.00813794
0.00790969
0.00771435
0.00745634
0.00724226
0.00695485
0.00672739
0.00641165
0.00617645
0.00583441
0.00559725
0.00523491
0.0050019
0.00462771
0.00440468
0.00403034
0.00382287
0.00346171
0.00327468
0.00293922
0.0027767
0.00247651
0.00234153
0.00208228
0.00197638
0.00176014
0.00168307
0.00150927
0.00145885
0.00133477
0.00917338
0.00909649
0.00906862
0.0089255
0.00889126
0.00869091
0.00864356
0.00839197
0.00832955
0.00803073
0.0079536
0.00760927
0.00751946
0.00713167
0.00703216
0.00660322
0.00649768
0.00603306
0.00592458
0.00543456
0.00532569
0.00482582
0.00471762
0.00422864
0.00412081
0.00366464
0.00355677
0.00315126
0.00304418
0.00269987
0.00259636
0.00231572
0.00222004
0.00199898
0.00191571
0.00174652
0.00167908
0.00155418
0.00151085
0.00140468
0.00900029
0.00883482
0.00883462
0.0086002
0.00861156
0.00830843
0.00832505
0.00795579
0.00797467
0.00754094
0.00756096
0.00706557
0.00708687
0.00653413
0.00655708
0.00595773
0.00598197
0.00535281
0.00537652
0.0047446
0.00476334
0.00416132
0.00416892
0.00362771
0.00361873
0.00315968
0.00313169
0.00276335
0.00271786
0.00243712
0.00237902
0.00217415
0.00211023
0.00196463
0.00190246
0.00179756
0.00174547
0.00165886
0.00162036
0.00154348
0.00872309
0.00844549
0.00848028
0.00812151
0.00818292
0.00773969
0.00782432
0.00729624
0.00740144
0.00679137
0.00691475
0.00623039
0.00636876
0.0056277
0.00577599
0.00500547
0.00515605
0.00439823
0.00453991
0.00384199
0.00396218
0.00336224
0.0034513
0.00296906
0.00302296
0.00265934
0.00267969
0.00242169
0.00241425
0.00224093
0.00221377
0.00210072
0.0020629
0.00198607
0.00194671
0.00188516
0.00185022
0.00179093
0.00176632
0.00169733
0.0083122
0.00789266
0.00796689
0.00744444
0.00756121
0.00693312
0.00709115
0.00636101
0.00655703
0.00573735
0.00596531
0.00508328
0.0053331
0.00443008
0.00468727
0.00382506
0.00407013
0.00331111
0.00352482
0.00290842
0.00307839
0.00261417
0.00273671
0.00241092
0.00248938
0.00227582
0.00231765
0.00218619
0.00220085
0.00212155
0.00211895
0.00206654
0.00205569
0.00201332
0.00200017
0.00195566
0.00194503
0.00189232
0.00188573
0.00182327
0.00773726
0.00713377
0.00725036
0.00651947
0.00669475
0.00584371
0.0060748
0.00512366
0.00540286
0.00439149
0.00470489
0.00369218
0.00401903
0.00309115
0.00340363
0.00263493
0.00290855
0.00232799
0.00255023
0.00214638
0.00231555
0.00205463
0.00217617
0.00201952
0.00210226
0.00201401
0.002068
0.00201761
0.00205248
0.00201723
0.00204117
0.00201118
0.0020285
0.00199381
0.00200847
0.0019668
0.00198044
0.00192993
0.00194395
0.00188316
0.00695562
0.00612161
0.00628268
0.0053139
0.00554382
0.00447236
0.00476057
0.00364292
0.0039714
0.00288713
0.003231
0.00229482
0.00262091
0.00190813
0.00219303
0.00170228
0.00193856
0.00162752
0.00181616
0.00163193
0.00177893
0.00167784
0.00179097
0.00173832
0.00182592
0.00179564
0.00186534
0.00183978
0.00189789
0.00187614
0.00192464
0.00189656
0.00193916
0.00190623
0.00194379
0.0019033
0.0019376
0.00188842
0.00192011
0.00186261
0.00591728
0.00483059
0.00503476
0.0038527
0.00412049
0.00292185
0.00322721
0.00211729
0.00242601
0.00155579
0.00183263
0.00125248
0.00148918
0.00113672
0.00133943
0.00113763
0.00131066
0.00119864
0.00134661
0.00128876
0.00141589
0.00138622
0.00149662
0.00147664
0.00157384
0.00155135
0.00163869
0.00162296
0.001699
0.00167532
0.00174395
0.00171893
0.00177965
0.00174813
0.00180281
0.0017647
0.00181391
0.00177042
0.00181375
0.00175863
0.00459521
0.00329849
0.00353657
0.00226442
0.00253692
0.00142989
0.00168776
0.000957308
0.00114847
0.000771869
0.000921618
0.000741027
0.000869113
0.00078071
0.000895465
0.00084793
0.000956569
0.000931551
0.00103783
0.0010209
0.0011268
0.00110881
0.00121419
0.0011876
0.00129155
0.00127911
0.00137469
0.00135125
0.00144142
0.00142221
0.00150371
0.00147871
0.00155322
0.0015242
0.00159147
0.00156089
0.00161984
0.00157827
0.0016302
0.00158054
0.00302869
0.00167328
0.00191932
0.000828524
0.00103122
0.00051201
0.000643498
0.000476485
0.000591038
0.000530881
0.000625177
0.000599139
0.000676987
0.000666417
0.000733142
0.000732051
0.000793227
0.000793433
0.000853422
0.000851117
0.000912348
0.000907492
0.000969316
0.000969786
0.00104193
0.00102443
0.00110234
0.00109279
0.0011719
0.00115313
0.00123294
0.00121093
0.00128824
0.00126846
0.0013395
0.00130863
0.00137373
0.00133685
0.00139448
0.00135976
0.00138463
0.000381552
0.00051271
0.000265307
0.000363795
0.000324047
0.000409326
0.000389485
0.000466752
0.000454993
0.000525184
0.000520897
0.000583362
0.000585258
0.000641049
0.000646757
0.000696935
0.000704563
0.000750066
0.000758728
0.000800315
0.000809708
0.000849563
0.000856472
0.000892782
0.000902736
0.000943924
0.000944064
0.000987101
0.000984684
0.00103144
0.00102393
0.0010784
0.00105678
0.00111299
0.00108688
0.00114191
0.00112096
0.0011716
0.00114858
0.00018952
0.000154808
0.000216404
0.000218257
0.000277174
0.000276397
0.000333334
0.000334889
0.000389268
0.000394965
0.000446335
0.000456094
0.00050405
0.000516811
0.000561395
0.000575892
0.000617374
0.000632482
0.000671315
0.000686088
0.000722937
0.000736295
0.000771526
0.000782998
0.000817995
0.000825653
0.000860583
0.000863841
0.000898983
0.000897556
0.000933157
0.000926819
0.000961111
0.000952807
0.000985076
0.000976924
0.00101106
0.000998332
0.00103094
0.00101898
0.000155592
0.000164483
0.000189149
0.000198438
0.000231948
0.000242759
0.000279272
0.000293587
0.000330597
0.000348542
0.000384919
0.000405632
0.000440866
0.000463119
0.000497056
0.000519647
0.000552345
0.000574214
0.00060587
0.000626111
0.000656973
0.000674849
0.000705277
0.000719987
0.000750146
0.000761259
0.00079129
0.000798392
0.000828134
0.000831329
0.000860307
0.000860307
0.000888215
0.000885719
0.000912845
0.000907741
0.000934105
0.000926402
0.000952216
0.000941437
0.000159552
0.000157597
0.000170389
0.000180842
0.000200335
0.000218624
0.00024132
0.000265102
0.000289154
0.000316513
0.000341028
0.000370294
0.000394863
0.000424607
0.000449057
0.000478109
0.000502392
0.000529824
0.000553946
0.000579044
0.000603045
0.000625255
0.000649145
0.00066809
0.000691829
0.000707311
0.000730801
0.000742774
0.0007658
0.000774468
0.000796797
0.000802486
0.000823918
0.000826985
0.000847287
0.000848146
0.000867099
0.000866119
0.000883065
0.000881173
0.000141312
0.00013585
0.000151195
0.000161778
0.000179218
0.000201088
0.000218496
0.000247296
0.000264446
0.000297027
0.000314055
0.000348216
0.000365257
0.000399428
0.000416564
0.00044961
0.000466872
0.000497976
0.000515355
0.000543941
0.000561388
0.000587081
0.000604513
0.000627099
0.000644394
0.000663809
0.000680815
0.000697118
0.00071365
0.000727016
0.000742868
0.00075357
0.000768509
0.000776925
0.000790699
0.000797288
0.000809613
0.000814937
0.000825498
0.000830222
0.000106212
0.000103394
0.000127516
0.000141408
0.000163204
0.000187844
0.000205712
0.000236722
0.000251855
0.000286285
0.000299821
0.000335621
0.000348317
0.000384037
0.000396342
0.000430947
0.0004431
0.000475868
0.000487968
0.000518416
0.000530465
0.000558298
0.000570235
0.000595308
0.000607028
0.000629316
0.000640685
0.000660263
0.000671126
0.000688153
0.000698344
0.000713051
0.000722405
0.000735095
0.000743458
0.000754495
0.000761741
0.000771538
0.000777559
0.000786577
6.1048e-05
6.83632e-05
0.000103355
0.000124347
0.000151173
0.000179026
0.000198957
0.000231055
0.000246367
0.000280886
0.000293261
0.00032877
0.000339331
0.00037472
0.00038418
0.000418613
0.000427403
0.00046028
0.000468634
0.00049955
0.00050757
0.00053628
0.000543979
0.000570366
0.000577693
0.000601743
0.000608612
0.000630387
0.000636692
0.00065631
0.000661944
0.000679563
0.000684444
0.000700241
0.000704333
0.000718503
0.000721829
0.000734595
0.000737219
0.000748892
2.864e-05
5.46459e-05
9.05212e-05
0.000118592
0.000146024
0.00017654
0.000196984
0.000229555
0.000244938
0.000278819
0.000290665
0.00032505
0.00033447
0.000368626
0.000376392
0.000409717
0.000416344
0.000448382
0.000454195
0.00048463
0.000489814
0.000518452
0.000523093
0.000549845
0.000553956
0.000578817
0.00058236
0.000605387
0.000608297
0.00062958
0.000631787
0.00065142
0.000652884
0.00067093
0.000671682
0.000688136
0.000688336
0.000703136
0.000703098
0.000716261
6.9824e-05
8.57551e-05
0.000102654
0.000130436
0.000151708
0.00018242
0.000200375
0.000232453
0.000246536
0.000279318
0.000290157
0.000323091
0.000331426
0.000364014
0.000370473
0.000402291
0.000407355
0.000438071
0.000442082
0.000471463
0.000474652
0.000502554
0.000505063
0.000531429
0.000533327
0.000558174
0.000559475
0.000582873
0.000583546
0.000605604
0.000605587
0.000626413
0.000625639
0.000645275
0.000643732
0.00066204
0.000659911
0.000676393
0.000674338
0.000688097
0.000130641
0.000136605
0.000137199
0.000158332
0.000169677
0.000197332
0.000210065
0.000240214
0.000251308
0.000282383
0.00029124
0.000322464
0.000329227
0.0003601
0.000365107
0.000395262
0.000398854
0.000428019
0.000430491
0.000458473
0.00046006
0.00048674
0.000487621
0.000512945
0.000513254
0.00053723
0.000537065
0.000559757
0.000559188
0.000580708
0.000579776
0.000600277
0.000598992
0.000618622
0.000616984
0.00063571
0.00063386
0.000650759
0.000649838
0.000660226
0.000194056
0.000192637
0.000183112
0.00019634
0.000197975
0.000220261
0.000226346
0.00025305
0.000259789
0.000288378
0.000294226
0.000323401
0.000327886
0.000356928
0.00036002
0.000388482
0.000390308
0.000417891
0.00041862
0.000445116
0.000444903
0.000470171
0.000469141
0.000493088
0.000491326
0.000513899
0.000511438
0.000532624
0.000529431
0.000549266
0.000545194
0.000563808
0.000558486
0.000576258
0.000568766
0.000586811
0.000574697
0.000596561
0.000572488
0.000610398
0.000257463
0.000249858
0.000233737
0.000239642
0.000233318
0.000249324
0.000248629
0.000270786
0.000272412
0.000297795
0.000299828
0.000326654
0.00032818
0.000355416
0.000356068
0.000383106
0.000382783
0.000409259
0.000407975
0.000433669
0.000431476
0.000456269
0.000453218
0.000477067
0.000473184
0.000496118
0.000491391
0.000513514
0.000507881
0.000529395
0.000522739
0.000543984
0.000536143
0.000557648
0.000548573
0.000571006
0.000561505
0.000584897
0.000579995
0.000599202
0.000319756
0.000306687
0.000285944
0.000285327
0.000272827
0.000282501
0.000275685
0.00029267
0.000289073
0.000310601
0.000308416
0.000332454
0.000330582
0.000355804
0.000353652
0.00037924
0.000376522
0.00040198
0.00039858
0.000423617
0.000419502
0.000443964
0.000439138
0.000462967
0.000457451
0.00048066
0.000474483
0.000497143
0.000490354
0.000512578
0.000505285
0.00052718
0.000519637
0.000541204
0.000533966
0.000554863
0.000548882
0.000568132
0.000563641
0.000580698
0.000380317
0.000362306
0.000338141
0.000331702
0.000314449
0.000318114
0.000306117
0.000317724
0.000309249
0.000326454
0.000320023
0.000340804
0.00033535
0.000358205
0.000353047
0.000376951
0.00037169
0.000395981
0.000390407
0.000414669
0.000408687
0.000432674
0.00042626
0.000449832
0.000443009
0.000466097
0.000458933
0.0004815
0.000474111
0.000496119
0.000488685
0.000510045
0.000502823
0.000523347
0.000516624
0.000536025
0.000529963
0.000547997
0.000542649
0.000559147
0.000438767
0.000416217
0.000389422
0.000377732
0.000356801
0.000354888
0.00033865
0.000344938
0.000332172
0.000344787
0.000334368
0.000351479
0.000342494
0.000362562
0.000354351
0.000376207
0.000368338
0.000391155
0.000383365
0.00040658
0.000398731
0.000421969
0.000414008
0.00043702
0.000428955
0.00045157
0.000443457
0.000465542
0.000457476
0.000478909
0.00047101
0.000491657
0.00048405
0.000503766
0.000496543
0.000515201
0.000508411
0.000525915
0.00051956
0.000535862
0.000494848
0.000468079
0.000439215
0.000422732
0.000398932
0.000391868
0.000372223
0.00037339
0.000356999
0.000364932
0.000350954
0.000364089
0.0003518
0.000368676
0.000357506
0.000376899
0.000366437
0.000387396
0.000377368
0.00039919
0.000389433
0.000411612
0.000402042
0.000424217
0.00041481
0.000436717
0.000427489
0.000448927
0.000439922
0.000460727
0.000451997
0.000472036
0.000463626
0.000482792
0.000474735
0.000492948
0.000485256
0.000502468
0.00049513
0.000511328
0.000548358
0.000517626
0.000487117
0.000466212
0.000440167
0.000428335
0.000405985
0.000402286
0.000382922
0.000386203
0.000369181
0.000378147
0.000362907
0.00037625
0.000362332
0.000378855
0.000365905
0.000384597
0.000372359
0.000392415
0.000380718
0.00040152
0.00039026
0.000411343
0.000400466
0.000421482
0.000410968
0.000431657
0.000421505
0.000441672
0.000431889
0.000451387
0.000441983
0.000460708
0.000451685
0.000469567
0.000460921
0.00047792
0.000469638
0.000485743
0.000599111
0.000564631
0.000532816
0.000507791
0.000479998
0.000463729
0.000439265
0.000430963
0.000409226
0.00040796
0.000388428
0.000393138
0.000375372
0.000384929
0.000368567
0.000381866
0.000366619
0.000382654
0.000368304
0.000386218
0.000372607
0.0003917
0.00037872
0.000398443
0.000386022
0.000405952
0.000394046
0.000413863
0.000402445
0.000421912
0.000410964
0.000429907
0.000419417
0.000437712
0.000427668
0.000445234
0.000435622
0.00045241
0.000443213
0.0004592
0.000646926
0.000608884
0.00057605
0.000547157
0.000518027
0.000497605
0.000471527
0.000458873
0.000435299
0.000429635
0.000408115
0.000408563
0.000388731
0.000394339
0.000375905
0.000385694
0.000368427
0.000381452
0.000365178
0.000380579
0.000365165
0.000382204
0.000367551
0.000385618
0.000371655
0.000390262
0.000376936
0.000395705
0.000382978
0.00040162
0.000389463
0.000407764
0.000396154
0.00041396
0.000402875
0.000420079
0.0004095
0.000426031
0.00041594
0.000431756
0.000691618
0.000650182
0.000616585
0.000584043
0.000553928
0.000529603
0.000502338
0.000485569
0.000460637
0.000450741
0.000427725
0.000423964
0.000402537
0.000404112
0.000384024
0.000390091
0.000371154
0.000380864
0.000362937
0.000375477
0.000358458
0.00037309
0.0003569
0.000372983
0.000357564
0.000374562
0.000359867
0.000377348
0.000363339
0.000380964
0.000367611
0.000385119
0.000372396
0.000389592
0.000377474
0.000394217
0.000382684
0.000398873
0.000387906
0.000403475
0.000732995
0.000688328
0.000654204
0.000618215
0.000587427
0.00055942
0.000531349
0.000510683
0.000484822
0.000470872
0.000446818
0.000438942
0.000416382
0.000413904
0.000392605
0.000394809
0.000374602
0.000380751
0.000361519
0.000370879
0.00035254
0.000364411
0.00034691
0.000360653
0.00034395
0.000359005
0.000343068
0.000358966
0.000343768
0.00036012
0.000345639
0.000362138
0.000348352
0.000364758
0.000351646
0.000367778
0.000355322
0.000371043
0.000359225
0.000374439
0.000770867
0.000723136
0.000688709
0.000649463
0.000618289
0.000586808
0.000558272
0.000533915
0.000507516
0.00048969
0.000465024
0.000453151
0.000429906
0.000423403
0.000401345
0.000399606
0.000378568
0.000380967
0.000360836
0.000366734
0.000347441
0.000356204
0.000337708
0.000348735
0.000331012
0.000343748
0.000326784
0.00034074
0.000324525
0.000339281
0.000323805
0.000339011
0.000324265
0.000339638
0.000325611
0.000340924
0.000327604
0.000342683
0.000330058
0.00034477
0.000805044
0.000754426
0.000719916
0.000677604
0.000646313
0.000611556
0.000582871
0.000555019
0.000528439
0.000506912
0.000482034
0.000466295
0.000442796
0.000432327
0.000409963
0.000404248
0.00038284
0.000381352
0.000360778
0.000362974
0.000343161
0.000348495
0.000329403
0.000337332
0.000318946
0.000328953
0.000311272
0.000322875
0.000305904
0.00031867
0.000302416
0.000315968
0.000300437
0.000314455
0.00029965
0.000313868
0.000299788
0.00031399
0.000300636
0.000314648
0.00083534
0.000782035
0.000747661
0.000702484
0.000671328
0.000633494
0.000604951
0.000573792
0.000547366
0.000522304
0.000497587
0.000478112
0.000454774
0.000440416
0.000418195
0.000408504
0.000387204
0.000381734
0.000361211
0.000359512
0.000339674
0.000341285
0.000322081
0.000326538
0.000307946
0.00031479
0.000296811
0.000305597
0.000288244
0.000298554
0.000281845
0.000293296
0.000277253
0.000289504
0.000274144
0.000286898
0.000272237
0.00028524
0.000271293
0.000284332
0.000861578
0.000805817
0.000771802
0.000723979
0.000693201
0.000652487
0.000624359
0.000590062
0.000564103
0.000535648
0.000511452
0.000488352
0.000465581
0.000447405
0.000425781
0.000412132
0.00039143
0.000381924
0.000361976
0.000356234
0.000336918
0.000334558
0.0003158
0.000316436
0.000298194
0.000301439
0.0002837
0.000289169
0.00027194
0.000279257
0.000262557
0.000271363
0.000255218
0.000265176
0.000249613
0.000260416
0.000245464
0.000256833
0.000242523
0.000254207
0.000883585
0.000825665
0.000792239
0.000742018
0.00071184
0.000668424
0.000640964
0.000603645
0.000578459
0.000546685
0.00052338
0.000496719
0.000474938
0.000453004
0.000432441
0.000414868
0.000395274
0.000381715
0.000362891
0.000353013
0.00033481
0.000328288
0.000310598
0.000307112
0.000289866
0.000289101
0.00027226
0.000273899
0.000257449
0.00026118
0.000245124
0.000250641
0.000234993
0.000241997
0.000226778
0.000234982
0.000220217
0.000229345
0.000215067
0.000224852
0.000901205
0.000841547
0.000808945
0.000756585
0.000727194
0.000681132
0.000654599
0.000614165
0.000590134
0.000554996
0.000533022
0.000502829
0.000482507
0.000456883
0.000437877
0.000416452
0.00039849
0.000380918
0.000363782
0.000349744
0.000333263
0.000322465
0.000306507
0.000298673
0.000283138
0.000278009
0.000262829
0.000260153
0.000245283
0.000244817
0.000230231
0.000231736
0.000217421
0.000220667
0.000206612
0.000211373
0.000197567
0.000203619
0.000190053
0.000197156
0.000914366
0.00085366
0.000822049
0.000767579
0.000739154
0.000689666
0.00066469
0.000620753
0.000598522
0.000559964
0.000539896
0.000506276
0.000487935
0.000458783
0.000441836
0.000416721
0.000400902
0.000379445
0.000364541
0.000346413
0.000332248
0.00031716
0.000303591
0.000291289
0.000278201
0.000268456
0.000255758
0.000248363
0.000235985
0.00023075
0.000218637
0.000215389
0.000203496
0.000202075
0.000190351
0.00019062
0.000178989
0.000180831
0.000169161
0.000172463
0.000923564
0.000863072
0.000832019
0.000771059
0.000745808
0.000691719
0.000669756
0.000622353
0.000602813
0.000561186
0.000543624
0.000506968
0.000491077
0.000458754
0.000444289
0.000415789
0.000402539
0.000377446
0.00036523
0.000343197
0.000331859
0.000312592
0.000301997
0.000285242
0.000275278
0.000260814
0.000251388
0.000239021
0.000230059
0.000219618
0.000211062
0.000202401
0.0001942
0.000187205
0.000179303
0.000173897
0.000166198
0.000162367
0.000154631
0.000152473
0.00093493
0.000846299
0.000829049
0.000761217
0.00074308
0.000686275
0.000668693
0.000619346
0.000603016
0.000559394
0.000544577
0.000505656
0.000492386
0.00045747
0.000445668
0.00041424
0.000403782
0.000375431
0.000366181
0.000340565
0.00033239
0.000309217
0.000301998
0.00028101
0.000274647
0.000255609
0.000250029
0.00023272
0.00022788
0.000212084
0.000207976
0.000193478
0.000190139
0.000176725
0.000174243
0.000161717
0.000160227
0.000148492
0.000148137
0.000137453
0.000144271
0.000112942
0.000151613
0.000119423
0.000171742
0.000136464
0.000198148
0.000159807
0.000228044
0.000186571
0.000259817
0.000215039
0.000292479
0.000244207
0.000325397
0.000273466
0.000358155
0.000302439
0.000390476
0.000330889
0.000422169
0.000358675
0.000453109
0.000385721
0.000483212
0.000412011
0.000512422
0.000437575
0.000540697
0.000462485
0.000567972
0.000486856
0.000594112
0.000510825
0.000618776
0.000534521
0.000641069
0.000557957
0.000658333
0.000580688
0.000117135
9.28496e-05
0.000129301
0.0001028
0.000152607
0.000123443
0.000181958
0.000149972
0.000214344
0.000179305
0.000248161
0.000209811
0.000282507
0.00024061
0.000316843
0.000271191
0.000350823
0.000301245
0.000384216
0.000330574
0.000416871
0.000359056
0.000448687
0.000386625
0.000479598
0.000413254
0.000509568
0.000438949
0.000538567
0.000463745
0.000566558
0.000487692
0.000593452
0.00051084
0.000619022
0.000533202
0.000642681
0.000554648
0.000662745
0.000574575
9.80349e-05
7.9221e-05
0.000113478
9.2154e-05
0.000139176
0.000115513
0.000170348
0.000144062
0.000204101
0.000174854
0.000238946
0.000206441
0.000274086
0.00023807
0.000309054
0.000269311
0.000343558
0.000299899
0.000377406
0.000329666
0.000410469
0.000358503
0.000442665
0.000386347
0.000473944
0.00041317
0.000504279
0.000438971
0.000533657
0.000463767
0.00056206
0.000487593
0.000589447
0.000510481
0.000615693
0.000532443
0.00064046
0.000553408
0.000662794
0.000573045
8.55348e-05
7.13372e-05
0.000102956
8.63466e-05
0.00013011
0.00011132
0.000162151
0.000140857
0.000196406
0.000172254
0.000231538
0.000204234
0.000266838
0.000236138
0.000301895
0.000267586
0.000336449
0.00029834
0.000370331
0.000328245
0.000403428
0.0003572
0.000435668
0.000385143
0.000467008
0.000412042
0.000497429
0.000437891
0.000526927
0.000462702
0.000555502
0.0004865
0.00058314
0.000509314
0.000609787
0.000531164
0.000635263
0.000552025
0.000659044
0.000571729
7.865e-05
6.83889e-05
9.68123e-05
8.4365e-05
0.000124419
0.000109856
0.000156525
0.000139542
0.000190633
0.000170913
0.00022552
0.000202798
0.000260537
0.000234588
0.000295304
0.000265926
0.00032958
0.000296585
0.000363206
0.000326415
0.000396075
0.000355316
0.000428122
0.000383224
0.000459306
0.000410104
0.000489611
0.000435944
0.000519039
0.000460751
0.000547597
0.000484546
0.000575295
0.000507356
0.000602116
0.000529206
0.000627977
0.000550098
0.000652603
0.000569954
7.64575e-05
6.93976e-05
9.42602e-05
8.53302e-05
0.000121393
0.000110426
0.000152905
0.000139618
0.000186378
0.0001705
0.000220638
0.000201937
0.000255057
0.000233331
0.000289266
0.000264326
0.00032303
0.000294698
0.000356192
0.000324292
0.000388647
0.000353005
0.000420327
0.00038077
0.000451195
0.000407546
0.000481233
0.000433318
0.000510445
0.000458087
0.000538843
0.000481869
0.000566448
0.000504692
0.000593267
0.000526582
0.000619276
0.000547557
0.000644339
0.00056759
7.79744e-05
7.33514e-05
9.46148e-05
8.8535e-05
0.000120537
0.000112582
0.000150936
0.000140805
0.000183402
0.000170852
0.000216748
0.000201575
0.000250337
0.000232357
0.000283793
0.000262832
0.000316873
0.000292763
0.000349417
0.00032199
0.000381316
0.000350404
0.000412501
0.00037793
0.000442929
0.000404525
0.000472582
0.000430165
0.000501463
0.000454849
0.000529586
0.000478589
0.000556976
0.000501409
0.000583657
0.000523339
0.000609635
0.000544404
0.000634858
0.000564609
8.22535e-05
7.93975e-05
9.72934e-05
9.34508e-05
0.000121502
0.000116039
0.0001504
0.000142957
0.000181571
0.000171906
0.000213783
0.000201706
0.000246363
0.000231706
0.000278913
0.000261513
0.000311177
0.000290877
0.000342983
0.000319625
0.000374217
0.000347639
0.000404802
0.00037484
0.000434692
0.000401175
0.000463866
0.000426618
0.000492322
0.000451162
0.000520074
0.000474813
0.000547149
0.000497595
0.000573578
0.000519536
0.000599388
0.000540668
0.000624573
0.000561013
8.85147e-05
8.69184e-05
0.000101818
9.96979e-05
0.000124035
0.000120612
0.000151162
0.000145999
0.000180818
0.000173654
0.000211719
0.000202362
0.000243147
0.000231434
0.000274668
0.000260449
0.000306007
0.000289133
0.000336978
0.000317302
0.000367455
0.000344826
0.000397354
0.000371617
0.000426623
0.000397618
0.000455236
0.000422794
0.000483187
0.000447133
0.000510486
0.000470639
0.000537161
0.000493331
0.000563245
0.000515236
0.000588773
0.000536389
0.000613771
0.000556823
9.61865e-05
9.54986e-05
0.000107807
0.000107003
0.000127934
0.000126167
0.000153126
0.00014989
0.000181106
0.000176103
0.000210557
0.000203584
0.000240711
0.000231606
0.000271101
0.000259718
0.000301422
0.000287624
0.000331473
0.000315121
0.000361114
0.000342069
0.000390253
0.00036837
0.00041883
0.00039396
0.000446811
0.000418797
0.000474185
0.000442864
0.000500959
0.00046616
0.000527158
0.0004887
0.000552813
0.000510509
0.000577967
0.000531623
0.000602657
0.000552079
0.000104874
0.000104861
0.00011496
0.00011516
0.000133028
0.000132594
0.000156213
0.000154592
0.00018241
0.000179266
0.000210302
0.000205412
0.000239084
0.000232281
0.000268251
0.000259393
0.000297474
0.000286429
0.00032653
0.000313169
0.000355267
0.00033946
0.000383579
0.000365194
0.000411397
0.000390297
0.000438682
0.000414723
0.000465415
0.000438447
0.000491599
0.000461464
0.000517252
0.000483783
0.000542406
0.000505428
0.000567102
0.000526432
0.000591386
0.000546835
0.000114307
0.00011481
0.000123039
0.000124007
0.000139158
0.000139788
0.000160341
0.000160059
0.000184699
0.000183138
0.000210955
0.000207872
0.000238284
0.000233504
0.000266153
0.000259532
0.000294207
0.000285616
0.000322201
0.000311521
0.000349969
0.000337078
0.000377392
0.00036217
0.000404393
0.000386714
0.000430923
0.000410657
0.000456956
0.000433967
0.000482489
0.000456634
0.000507535
0.000478662
0.000532121
0.00050007
0.000556286
0.000520889
0.000580078
0.000541158
0.00012429
0.000125201
0.000131852
0.000133408
0.000146178
0.000147646
0.000165418
0.000166232
0.000187927
0.000187701
0.000212501
0.000210974
0.00023832
0.000235304
0.000264828
0.000260177
0.000291651
0.000285239
0.000318525
0.000310236
0.000345266
0.000334989
0.000371745
0.000359369
0.000397873
0.000383284
0.000423593
0.000406675
0.000448872
0.000429502
0.000473699
0.000451748
0.00049808
0.000473413
0.000522038
0.000494511
0.000545607
0.000515068
0.000568834
0.000535122
0.000134677
0.000135917
0.000141236
0.000143241
0.000153942
0.000156063
0.000171341
0.000173038
0.000192032
0.000192914
0.000214911
0.000214704
0.000239181
0.000237688
0.000264283
0.000261353
0.000289824
0.000285331
0.000315525
0.000309358
0.000341189
0.000333243
0.000366674
0.000356846
0.000391879
0.000380068
0.00041674
0.00040284
0.000441214
0.000425117
0.000465284
0.000446875
0.000488948
0.000468107
0.000512223
0.000488823
0.000535138
0.000509045
0.000557735
0.000528804
0.000145351
0.000146855
0.000151053
0.000153398
0.000162315
0.000164932
0.000178
0.000180392
0.000196935
0.000198719
0.000218134
0.00021903
0.000240842
0.000240647
0.000264507
0.000263064
0.000288728
0.000285911
0.000313215
0.000308915
0.000337758
0.000331876
0.000362203
0.000354645
0.000386442
0.000377114
0.000410398
0.000399206
0.000434022
0.000420869
0.000457288
0.000442075
0.000480188
0.000462809
0.000502731
0.000483075
0.000524941
0.000502889
0.000546852
0.000522279
0.000156211
0.000157925
0.000161184
0.000163777
0.000171167
0.000174151
0.000185276
0.0001882
0.000202544
0.000205043
0.000222103
0.000223902
0.000243257
0.000244148
0.000265472
0.000265296
0.000288348
0.000286978
0.00031159
0.000308918
0.000334976
0.000330908
0.000358345
0.000352791
0.000381578
0.000374453
0.000404589
0.00039581
0.000427323
0.000416804
0.000449744
0.000437398
0.000471838
0.000457572
0.000493606
0.000477324
0.000515064
0.000496665
0.000536242
0.000515617
0.000167167
0.000169043
0.000171517
0.000174285
0.000180375
0.000183615
0.000193051
0.000196365
0.000208754
0.000211804
0.000226736
0.000229254
0.000246363
0.000248145
0.000267134
0.000268017
0.000288655
0.000288515
0.000310631
0.00030936
0.000332836
0.000330341
0.000355098
0.000351298
0.000377292
0.000372108
0.000399326
0.000392681
0.000421133
0.000412954
0.000442674
0.000432882
0.000463925
0.000452441
0.00048488
0.000471622
0.000505549
0.00049043
0.000525953
0.00050888
0.000178136
0.00018013
0.000181955
0.000184831
0.000189824
0.000193227
0.000201206
0.000204788
0.000215457
0.000218909
0.000231938
0.000235009
0.000250085
0.000252575
0.000269432
0.000271182
0.000289603
0.000290488
0.000310306
0.00031022
0.000331312
0.000330167
0.000352447
0.000350163
0.000373578
0.000370083
0.000394606
0.000389832
0.000415459
0.000409339
0.000436089
0.000428555
0.000456466
0.00044745
0.000476577
0.000466008
0.000496423
0.000484228
0.00051602
0.000502121
0.000189041
0.00019111
0.000192405
0.000195332
0.000199407
0.000202892
0.000209626
0.000213368
0.000222539
0.000226263
0.000237607
0.000241081
0.000254335
0.000257366
0.000272294
0.000274731
0.000291132
0.00029285
0.000310565
0.000311463
0.000330367
0.000330358
0.000350363
0.000349371
0.000370414
0.000368373
0.000390416
0.000387263
0.000410292
0.000405967
0.000429987
0.000424431
0.000449465
0.000442619
0.000468705
0.00046051
0.000487703
0.000478096
0.000506466
0.000495382
0.00019981
0.000201912
0.000202783
0.000205708
0.000209023
0.00021252
0.0002182
0.00022201
0.00022989
0.000233771
0.000243639
0.000247379
0.000259015
0.000262437
0.000275634
0.000278592
0.000293169
0.000295543
0.000311348
0.00031304
0.000329952
0.000330878
0.000348805
0.000348894
0.000367767
0.000366956
0.000386731
0.000384962
0.000405614
0.000402834
0.000424357
0.000420513
0.000442916
0.000437959
0.000461267
0.000455145
0.000479396
0.000472058
0.000497304
0.000488696
0.00021037
0.000212466
0.000213006
0.000215882
0.000218578
0.000222024
0.000226824
0.000230619
0.000237399
0.000241334
0.000249924
0.00025381
0.000264025
0.0002677
0.000279362
0.000282689
0.000295633
0.000298498
0.000312584
0.000314894
0.000330004
0.000331678
0.00034772
0.000348691
0.000365593
0.000365801
0.000383513
0.000382906
0.000401395
0.000399924
0.000419174
0.000416793
0.000436802
0.000433468
0.000454249
0.000449918
0.000471495
0.000466125
0.000488535
0.000482081
0.000220654
0.000222702
0.000222998
0.00022578
0.000227982
0.00023132
0.000235395
0.000239105
0.000244958
0.000248859
0.000256353
0.000260279
0.000269261
0.000273065
0.000283379
0.000286936
0.000298434
0.00030164
0.000314192
0.000316956
0.000330451
0.000332699
0.000347045
0.000348712
0.000363837
0.000364867
0.000380716
0.000381061
0.000397595
0.000397211
0.000414405
0.000413251
0.000431096
0.000429135
0.000447631
0.000444826
0.000463986
0.000460301
0.000480148
0.000475548
0.000230594
0.000232556