/*--------------------------------*- C++ -*----------------------------------*\
| =========                 |                                                 |
| \\      /  F ield         | OpenFOAM: The Open Source CFD Toolbox           |
|  \\    /   O peration     | Version:  v2012                                 |
|   \\  /    A nd           | Website:  www.openfoam.com                      |
|    \\/     M anipulation  |                                                 |
\*---------------------------------------------------------------------------*/
FoamFile
{
    version     2.0;
    format      ascii;
    class       pointSymmTensorField;
    location    "17";
    object      pEpsilon;
}
// * * * * * * * * * * * * * * * * * * * * * * * * * * * * * * * * * * * * * //

dimensions      [0 0 0 0 0 0 0];


internalField   nonuniform List<symmTensor> 
8282
(
(0.000416479 -1.88216e-05 4.90601e-15 -0.00108457 0 0)
(0.000417748 -4.91818e-06 1.2902e-15 3.29581e-05 0 0)
(0.000520293 4.49573e-07 8.80372e-16 -0.000223065 -2.23136e-15 0)
(5.87659e-05 8.81401e-05 0 -5.14267e-05 2.1684e-18 0)
(0.00770522 -0.000516849 0 -0.00828924 1.97311e-14 0)
(5.19383e-05 -1.81602e-05 3.25261e-18 -0.000177989 0 0)
(0.00190346 0.000199422 0 -0.000236052 3.86301e-15 0)
(0.000602445 -0.00020358 -3.89445e-15 -0.000430853 1.61031e-15 0)
(0.00146924 -1.45759e-05 -5.01525e-15 -0.00061948 -1.25767e-16 0)
(0.000478843 -1.00269e-05 3.5345e-16 -0.000121919 -3.71678e-17 0)
(-3.16087e-05 0.000128187 -1.76725e-16 -8.68414e-05 6.09864e-17 0)
(-3.16087e-05 0.000128187 -1.76725e-16 -8.68414e-05 6.09864e-17 0)
(0.000602445 -0.00020358 -3.89445e-15 -0.000430853 1.61031e-15 0)
(0.00190346 0.000199422 0 -0.000236052 3.86301e-15 0)
(0.00770522 -0.000516849 0 -0.00828924 1.97311e-14 0)
(0.000416479 -1.88216e-05 4.90601e-15 -0.00108457 0 0)
(5.19383e-05 -1.81602e-05 3.25261e-18 -0.000177989 0 0)
(0.000417748 -4.91818e-06 1.2902e-15 3.29581e-05 0 0)
(0.000478843 -1.00269e-05 3.5345e-16 -0.000121919 -3.71678e-17 0)
(0.000520293 4.49573e-07 8.80372e-16 -0.000223065 -2.23136e-15 0)
(0.00146924 -1.45759e-05 -5.01525e-15 -0.00061948 -1.25767e-16 0)
(5.87659e-05 8.81401e-05 0 -5.14267e-05 2.1684e-18 0)
(0.00184865 0.000129806 -2.45043e-15 -0.000348288 -7.61002e-15 0)
(0.00188579 0.000207483 -5.55654e-17 -0.000499907 1.11239e-15 0)
(0.00195118 0.000244319 -9.38296e-15 -0.000710751 -6.31765e-15 0)
(0.0020177 0.000248536 -1.2139e-15 -0.000920224 2.10444e-15 0)
(0.0020512 0.000224822 -2.18955e-15 -0.00108607 -8.73867e-16 0)
(0.00202463 0.000175835 4.2826e-17 -0.00118201 -1.93096e-15 0)
(0.00192867 0.000107527 -4.03594e-16 -0.00120067 3.32742e-15 0)
(0.00176289 2.85016e-05 -4.96185e-15 -0.0011425 3.57516e-15 0)
(0.00154423 -4.59382e-05 -3.93403e-15 -0.0010207 1.21431e-15 0)
(0.0013188 -9.44038e-05 -1.54716e-15 -0.0008681 5.14454e-16 0)
(0.00114536 -0.000108431 -4.04407e-16 -0.000735597 1.83826e-15 0)
(0.00103511 -0.000109228 1.69407e-15 -0.000658712 -1.20889e-15 0)
(0.00095885 -0.000108091 -2.52673e-15 -0.000603216 2.36736e-15 0)
(0.000897333 -0.000112936 -7.26036e-15 -0.000560229 9.76866e-16 0)
(0.000842825 -0.000120209 -3.84133e-15 -0.000526143 3.60958e-15 0)
(0.000793485 -0.000128744 -1.4138e-15 -0.000498878 3.08727e-16 0)
(0.000748289 -0.000138236 3.20924e-15 -0.000477032 2.01851e-15 0)
(0.000706982 -0.000147902 2.79724e-15 -0.000459875 6.50521e-16 0)
(0.000671081 -0.000153569 -4.08636e-15 -0.000448424 3.09567e-15 0)
(0.000559022 -0.000209239 2.02746e-16 -0.000388473 2.39853e-15 0)
(0.000523386 -0.00021871 -2.24755e-15 -0.000384941 4.30022e-16 0)
(0.000485941 -0.000226063 5.52943e-16 -0.000375078 -9.3282e-16 0)
(0.000447693 -0.000231622 2.14672e-16 -0.000362277 -2.85362e-15 0)
(0.000409189 -0.000235187 7.79541e-16 -0.000347747 -9.98821e-17 0)
(0.000370845 -0.000236476 5.51859e-16 -0.000332101 -1.07431e-15 0)
(0.000333047 -0.00023524 -5.83301e-16 -0.000315758 -1.02383e-15 0)
(0.000296172 -0.000231293 -6.84132e-16 -0.000299064 -4.40864e-16 0)
(0.000260594 -0.000224524 -3.31766e-16 -0.000282339 1.33763e-16 0)
(0.000226686 -0.000214894 2.73219e-16 -0.000265892 3.42879e-16 0)
(0.000194812 -0.000202433 1.39862e-16 -0.000250021 1.46503e-16 0)
(0.000165321 -0.000187232 3.46945e-17 -0.000235016 1.95698e-16 0)
(0.000138549 -0.00016944 9.32414e-17 -0.000221156 9.92384e-17 0)
(0.000114814 -0.000149256 -1.18178e-16 -0.000208705 -1.68729e-16 0)
(9.4413e-05 -0.000126923 2.71051e-17 -0.000197918 -9.33769e-17 0)
(7.76363e-05 -0.000102716 1.31188e-16 -0.000189042 5.63108e-17 0)
(6.47841e-05 -7.69174e-05 -7.37257e-17 -0.000182337 1.72676e-16 0)
(5.62466e-05 -4.97017e-05 6.39679e-17 -0.000178114 4.17418e-17 0)
(5.28662e-05 -2.0482e-05 1.6263e-17 -0.000176781 -5.37061e-17 0)
(0.000386163 -2.16672e-05 2.49041e-15 -0.000973615 0 0)
(0.000337931 -1.89413e-05 3.05203e-15 -0.000883173 0 0)
(0.000294973 -1.7954e-05 2.94469e-15 -0.000803359 0 0)
(0.000256877 -1.78237e-05 2.60751e-15 -0.000731782 0 0)
(0.00022334 -1.81026e-05 2.89699e-15 -0.000667184 0 0)
(0.000194007 -1.8558e-05 1.41163e-15 -0.000608687 0 0)
(0.000168496 -1.90671e-05 1.26852e-16 -0.000555593 0 0)
(0.000146418 -1.9565e-05 6.245e-16 -0.000507308 0 0)
(0.000127407 -2.00167e-05 -4.08744e-16 -0.000463323 0 0)
(0.000111121 -2.04027e-05 -5.9089e-16 -0.000423192 0 0)
(9.72501e-05 -2.07105e-05 -6.22332e-16 -0.000386525 0 0)
(8.5513e-05 -2.09295e-05 -2.3744e-16 -0.000352983 0 0)
(7.56565e-05 -2.10471e-05 -2.1684e-16 -0.000322267 0 0)
(6.74518e-05 -2.10467e-05 -7.91468e-17 -0.00029412 0 0)
(6.06932e-05 -2.09044e-05 -1.09504e-16 -0.000268326 0 0)
(5.51994e-05 -2.05885e-05 -1.26852e-16 -0.000244715 0 0)
(5.08233e-05 -2.00597e-05 -8.78204e-17 -0.000223181 0 0)
(4.74855e-05 -1.92817e-05 -6.93889e-17 -0.000203737 0 0)
(4.52727e-05 -1.82584e-05 -2.81893e-17 -0.000186646 0 0)
(5.72144e-05 -1.774e-05 -1.51788e-17 -0.000147707 0 0)
(5.7028e-05 -1.90559e-05 -8.67362e-17 -0.000112252 0 0)
(6.16363e-05 -1.89211e-05 -1.73472e-17 -8.36626e-05 0 0)
(6.94841e-05 -1.82312e-05 3.03577e-17 -6.07333e-05 0 0)
(7.96173e-05 -1.73516e-05 6.39679e-17 -4.24895e-05 0 0)
(9.14068e-05 -1.64301e-05 -9.97466e-17 -2.81534e-05 0 0)
(0.00010441 -1.55258e-05 -2.33103e-16 -1.70987e-05 0 0)
(0.000118301 -1.46615e-05 -2.68882e-16 -8.81541e-06 0 0)
(0.00013283 -1.38449e-05 8.67362e-17 -2.88191e-06 0 0)
(0.0001478 -1.30773e-05 -5.52943e-17 1.05508e-06 0 0)
(0.000163054 -1.23576e-05 2.17925e-16 3.29581e-06 0 0)
(0.000178463 -1.16834e-05 1.13841e-16 4.09886e-06 0 0)
(0.000193919 -1.10522e-05 -4.87891e-17 3.68968e-06 0 0)
(0.000209331 -1.04613e-05 2.05998e-17 2.2671e-06 0 0)
(0.000224621 -9.90838e-06 6.28837e-16 8.43028e-09 0 0)
(0.000239721 -9.39095e-06 5.61617e-16 -2.92668e-06 0 0)
(0.000254571 -8.90687e-06 -7.68699e-16 -6.39304e-06 0 0)
(0.000269118 -8.4541e-06 -4.74881e-16 -1.02574e-05 0 0)
(0.000283311 -8.03077e-06 -1.57209e-16 -1.43965e-05 0 0)
(0.000297107 -7.63512e-06 4.10913e-16 -1.86947e-05 0 0)
(0.000310464 -7.26548e-06 3.13334e-16 -2.30434e-05 0 0)
(0.00032334 -6.9203e-06 8.34836e-17 -2.73387e-05 0 0)
(0.000335698 -6.59804e-06 -3.79471e-17 -3.14804e-05 0 0)
(0.000347497 -6.29723e-06 -1.24683e-16 -3.53709e-05 0 0)
(0.000358698 -6.01641e-06 -3.89229e-16 -3.89137e-05 0 0)
(0.00036926 -5.75412e-06 -2.98156e-16 -4.2012e-05 0 0)
(0.000379138 -5.50885e-06 8.80372e-16 -4.45676e-05 0 0)
(0.000388286 -5.2791e-06 -1.18612e-15 -4.64792e-05 0 0)
(0.00039665 -5.0633e-06 -5.20417e-16 -4.76406e-05 0 0)
(0.000404172 -4.85985e-06 2.43945e-16 -4.79396e-05 0 0)
(0.000410787 -4.66721e-06 1.37911e-15 -4.72554e-05 0 0)
(0.000416419 -4.484e-06 1.38995e-15 -4.54571e-05 0 0)
(0.000420985 -4.30934e-06 -1.58294e-15 -4.24017e-05 0 0)
(0.000424393 -4.14363e-06 2.09359e-15 -3.79316e-05 0 0)
(0.00042654 -3.99042e-06 1.81821e-15 -3.18738e-05 0 0)
(0.000427327 -3.86108e-06 -1.0018e-15 -2.40384e-05 0 0)
(0.000426671 -3.78715e-06 1.14709e-15 -1.42169e-05 0 0)
(0.000424556 -3.8558e-06 -1.14275e-15 -2.16818e-06 0 0)
(0.000421134 -4.3265e-06 -1.07228e-15 1.25221e-05 0 0)
(0.00041617 1.0862e-07 -5.88722e-16 3.39584e-05 7.79115e-16 0)
(0.000417168 6.10096e-07 3.1225e-16 3.17322e-05 5.53261e-17 0)
(0.000418352 1.40779e-07 2.40693e-16 2.91299e-05 2.56312e-16 0)
(0.000419866 -5.03936e-07 1.34983e-15 2.56869e-05 -9.61806e-17 0)
(0.000421731 -1.19421e-06 -2.23237e-15 2.13289e-05 -5.53536e-17 0)
(0.000423947 -1.89773e-06 2.12937e-15 1.60612e-05 8.35369e-16 0)
(0.000426503 -2.60398e-06 -1.4409e-15 9.91336e-06 7.76729e-18 0)
(0.000429384 -3.30827e-06 -3.13334e-15 2.92575e-06 7.09221e-17 0)
(0.000432569 -4.00732e-06 -3.01625e-15 -4.85471e-06 -3.21271e-16 0)
(0.000436039 -4.69792e-06 -1.4962e-16 -1.33757e-05 -1.12871e-15 0)
(0.000439769 -5.37651e-06 1.99818e-15 -2.25799e-05 -8.41332e-16 0)
(0.000443734 -6.03908e-06 7.58942e-17 -3.24052e-05 4.57415e-16 0)
(0.000447905 -6.68126e-06 -1.65016e-15 -4.27847e-05 7.31443e-16 0)
(0.000452253 -7.29852e-06 5.63785e-16 -5.36473e-05 5.0549e-16 0)
(0.000456747 -7.88676e-06 9.6494e-17 -6.49177e-05 2.67479e-16 0)
(0.000461351 -8.44327e-06 -1.62197e-15 -7.6517e-05 1.35392e-15 0)
(0.000466027 -8.96926e-06 -1.58727e-15 -8.83631e-05 9.11954e-16 0)
(0.000470718 -9.47852e-06 1.04192e-15 -0.000100365 2.46376e-16 0)
(0.000475276 -1.00475e-05 -1.11456e-15 -0.000112371 7.63515e-17 0)
(0.000481524 -9.74424e-06 1.11564e-15 -0.000128566 -9.26654e-17 0)
(0.000483746 -9.96405e-06 2.12504e-16 -0.000133814 7.25823e-16 0)
(0.000485889 -1.00267e-05 -2.29851e-16 -0.000139033 8.34548e-16 0)
(0.000487984 -1.00085e-05 3.13334e-16 -0.000144204 2.34645e-16 0)
(0.000490043 -9.94154e-06 -1.13841e-16 -0.000149315 2.30901e-16 0)
(0.000492066 -9.84014e-06 -9.1073e-17 -0.000154352 3.92854e-16 0)
(0.000494052 -9.71093e-06 2.5804e-16 -0.000159303 -8.32633e-16 0)
(0.000495999 -9.55708e-06 8.78204e-17 -0.000164157 1.19499e-16 0)
(0.000497904 -9.38012e-06 2.26598e-16 -0.000168906 3.55839e-16 0)
(0.000499762 -9.18075e-06 -2.27682e-16 -0.000173537 3.52857e-16 0)
(0.000501572 -8.95922e-06 -1.07336e-16 -0.000178041 3.72051e-16 0)
(0.000503327 -8.71558e-06 -5.44269e-16 -0.000182408 4.23584e-16 0)
(0.000505026 -8.44975e-06 -3.30682e-16 -0.000186629 2.85552e-16 0)
(0.000506665 -8.16163e-06 -7.97973e-16 -0.000190693 -1.98849e-16 0)
(0.000508239 -7.85112e-06 -9.83371e-16 -0.00019459 2.71051e-17 0)
(0.000509745 -7.51815e-06 -4.47775e-16 -0.000198311 -1.65544e-16 0)
(0.00051118 -7.16276e-06 -6.37511e-16 -0.000201847 -9.00532e-16 0)
(0.000512541 -6.78504e-06 -1.14709e-15 -0.000205186 -9.6084e-16 0)
(0.000513823 -6.38525e-06 4.58618e-16 -0.000208321 -2.01363e-15 0)
(0.000515025 -5.9638e-06 -3.02492e-16 -0.000211243 -1.2161e-15 0)
(0.000516142 -5.52132e-06 -3.04661e-16 -0.000213942 -1.03047e-15 0)
(0.000517172 -5.05869e-06 -5.32343e-16 -0.000216412 -3.22415e-16 0)
(0.000518113 -4.57716e-06 1.84314e-17 -0.000218643 -1.0882e-15 0)
(0.000518962 -4.07838e-06 1.53957e-16 -0.000220631 -8.47643e-16 0)
(0.000519716 -3.56456e-06 2.14672e-16 -0.000222368 -1.58531e-15 0)
(0.000520375 -3.03858e-06 2.10227e-15 -0.000223851 -1.72226e-15 0)
(0.000520937 -2.50417e-06 2.05565e-15 -0.000225077 -2.48418e-15 0)
(0.0005214 -1.96616e-06 1.71521e-15 -0.000226044 -1.48881e-15 0)
(0.000521764 -1.43071e-06 1.2631e-15 -0.000226754 1.21363e-16 0)
(0.000522029 -9.05688e-07 6.64616e-16 -0.00022721 2.66375e-16 0)
(0.000522196 -4.01042e-07 -5.01986e-16 -0.000227421 -3.17942e-16 0)
(0.000522265 7.07082e-08 -7.87131e-16 -0.000227398 8.27178e-16 0)
(0.000522239 4.93946e-07 -1.91904e-16 -0.00022716 -1.29359e-16 0)
(0.000522121 8.49421e-07 -6.79795e-16 -0.000226729 -1.1006e-15 0)
(0.000521918 1.11382e-06 1.71304e-16 -0.00022614 -1.75261e-15 0)
(0.000521637 1.2597e-06 -1.7022e-16 -0.000225436 -3.10089e-15 0)
(0.000521294 1.25641e-06 4.87891e-16 -0.000224674 -3.02099e-15 0)
(0.000520915 1.07328e-06 -6.98226e-16 -0.000223932 -2.86541e-15 0)
(0.000520551 6.8804e-07 1.91904e-16 -0.000223312 -1.87418e-15 0)
(0.000519633 5.45568e-07 1.62956e-15 -0.000222779 1.55176e-17 0)
(0.000517909 5.86725e-07 3.96818e-16 -0.000222461 1.71155e-15 0)
(0.000517348 3.51687e-07 3.06829e-16 -0.000222675 3.06463e-15 0)
(0.000518879 -9.72915e-09 -2.13588e-16 -0.000223688 -2.58853e-17 0)
(0.000522796 -4.16208e-07 8.29415e-16 -0.000225609 -1.13028e-16 0)
(0.000529124 -8.32668e-07 -5.44269e-16 -0.000228467 8.22367e-16 0)
(0.000537779 -1.24452e-06 1.46476e-15 -0.000232244 4.08067e-16 0)
(0.000548634 -1.64625e-06 6.09322e-16 -0.000236903 1.14248e-16 0)
(0.000561555 -2.03658e-06 -3.28513e-16 -0.000242398 7.83336e-16 0)
(0.000576419 -2.41627e-06 2.4503e-16 -0.000248687 4.29751e-16 0)
(0.000593113 -2.78705e-06 1.14166e-15 -0.000255727 -3.17536e-16 0)
(0.000611545 -3.15102e-06 -2.17599e-15 -0.000263485 -2.3042e-15 0)
(0.000631636 -3.5103e-06 -1.60679e-15 -0.000271929 1.46923e-15 0)
(0.000653322 -3.86688e-06 -5.58364e-16 -0.000281035 3.95734e-16 0)
(0.00067655 -4.22247e-06 -1.01156e-15 -0.00029078 -3.87873e-16 0)
(0.000701277 -4.57842e-06 3.16587e-16 -0.000301147 1.56301e-15 0)
(0.000727464 -4.93567e-06 -4.05492e-16 -0.00031212 2.74899e-15 0)
(0.000755077 -5.29469e-06 1.84314e-16 -0.000323681 -4.21619e-16 0)
(0.00078408 -5.65548e-06 1.08203e-15 -0.000335816 -7.35902e-17 0)
(0.000814434 -6.01747e-06 2.94144e-15 -0.000348507 3.02845e-15 0)
(0.000846094 -6.37955e-06 -3.09106e-15 -0.000361731 9.37835e-17 0)
(0.000879004 -6.73998e-06 -7.22079e-16 -0.000375465 -6.76678e-16 0)
(0.000913095 -7.09636e-06 6.27753e-16 -0.000389676 3.31522e-15 0)
(0.000948279 -7.44556e-06 1.12107e-15 -0.000404326 -5.02528e-16 0)
(0.00098445 -7.78364e-06 -7.069e-16 -0.000419367 3.53531e-15 0)
(0.00102147 -8.10564e-06 -2.9783e-15 -0.000434741 -2.50193e-15 0)
(0.00105919 -8.40534e-06 4.55473e-15 -0.000450376 2.65345e-15 0)
(0.00109739 -8.67454e-06 2.41343e-15 -0.000466186 1.35579e-15 0)
(0.00113583 -8.9017e-06 6.22332e-16 -0.000482061 -4.66478e-15 0)
(0.00117418 -9.06916e-06 -4.17093e-15 -0.000497864 4.00775e-15 0)
(0.00121201 -9.14895e-06 5.59611e-15 -0.000513413 3.04254e-15 0)
(0.00124872 -9.1024e-06 -4.62412e-16 -0.000528443 3.48083e-15 0)
(0.00128311 -8.83239e-06 -1.57372e-15 -0.000542251 -1.65341e-15 0)
(0.00131872 -4.41508e-06 -8.21066e-15 -0.000564325 -4.57533e-16 0)
(0.00136054 -2.88953e-06 3.15665e-15 -0.000593367 9.17506e-16 0)
(0.00140704 -2.30348e-06 -2.9474e-15 -0.000630598 3.46999e-15 0)
(0.00144767 -4.64588e-06 1.57697e-15 -0.000657262 4.51028e-16 0)
(0.00147286 -8.31627e-06 -2.92301e-15 -0.000664562 -2.95825e-15 0)
(0.00147532 -1.40438e-05 -8.67362e-18 -0.00064447 -6.1149e-16 0)
(0.0014732 -3.82007e-06 -3.32037e-16 -0.00061837 -1.11564e-15 0)
(0.0014722 -4.27103e-07 -3.44831e-15 -0.000618127 -2.0112e-16 0)
(0.00146424 1.55761e-06 4.8518e-17 -0.000614386 -2.27249e-15 0)
(0.00144612 3.50205e-06 3.64834e-15 -0.000606781 -2.45951e-15 0)
(0.00141632 5.66394e-06 -6.11761e-16 -0.000594454 -2.42644e-15 0)
(0.00137285 8.17019e-06 1.51734e-15 -0.00057655 -2.32019e-16 0)
(0.00131368 1.10368e-05 -4.11048e-16 -0.000552287 1.96783e-15 0)
(0.00123733 1.41747e-05 2.22505e-15 -0.000521141 6.94431e-16 0)
(0.00114348 1.73811e-05 2.17654e-16 -0.000483068 1.78677e-15 0)
(0.00103355 2.03698e-05 -2.58772e-15 -0.000438699 1.66967e-16 0)
(0.000910885 2.28722e-05 9.71445e-16 -0.000389357 3.4586e-15 0)
(0.000780246 2.47469e-05 1.0163e-15 -0.000336901 4.84638e-16 0)
(0.000647044 2.59856e-05 -3.05914e-16 -0.000283458 -1.57535e-15 0)
(0.000516635 2.66465e-05 1.16745e-15 -0.000231196 1.77809e-16 0)
(0.000394001 2.67767e-05 8.78153e-16 -0.000182192 -1.97325e-16 0)
(0.000283792 2.63584e-05 5.80048e-16 -0.000138427 -5.12828e-16 0)
(0.00019047 2.52985e-05 1.37207e-16 -0.000101773 -3.77302e-16 0)
(0.000118153 2.34631e-05 2.29652e-16 -7.38021e-05 4.6187e-16 0)
(6.79309e-05 2.10794e-05 1.37014e-16 -5.39641e-05 3.01408e-16 0)
(0.000133134 8.92846e-05 0 -6.49938e-05 -9.6494e-17 0)
(0.000201772 8.79728e-05 0 -8.98074e-05 -9.1073e-17 0)
(0.000266103 8.70697e-05 0 -0.000111982 -2.49366e-17 0)
(0.000326761 8.65076e-05 0 -0.000131852 9.86624e-17 0)
(0.000384204 8.6228e-05 0 -0.00014965 1.13841e-16 0)
(0.000438784 8.61827e-05 0 -0.000165549 1.84314e-16 0)
(0.000490787 8.63331e-05 0 -0.000179689 7.70868e-16 0)
(0.000540456 8.66491e-05 0 -0.000192192 8.04478e-16 0)
(0.000588003 8.7108e-05 0 -0.000203164 7.35089e-16 0)
(0.000633621 8.76928e-05 0 -0.000212705 -2.85145e-16 0)
(0.000677484 8.83916e-05 0 -0.000220907 1.73472e-16 0)
(0.000719753 8.91969e-05 0 -0.000227856 -1.11673e-16 0)
(0.000760579 9.01043e-05 0 -0.000233631 -1.65883e-16 0)
(0.000800104 9.11127e-05 0 -0.00023831 -1.84314e-17 0)
(0.000838463 9.22236e-05 0 -0.000241961 -7.25331e-16 0)
(0.000875783 9.34406e-05 0 -0.000244653 -1.56125e-16 0)
(0.000912188 9.47696e-05 0 -0.000246445 1.33574e-15 0)
(0.000947794 9.62186e-05 0 -0.000247396 3.21683e-15 0)
(0.000982716 9.77975e-05 0 -0.000247557 3.75134e-15 0)
(0.00101707 9.95182e-05 0 -0.000246979 3.04119e-15 0)
(0.00105096 0.000101395 0 -0.000245707 2.04697e-15 0)
(0.0010845 0.000103443 0 -0.000243784 2.11853e-15 0)
(0.00111781 0.000105681 0 -0.000241249 1.7705e-15 0)
(0.001151 0.00010813 0 -0.000238142 -3.03577e-17 0)
(0.0011842 0.000110812 0 -0.000234501 -2.0795e-15 0)
(0.00121753 0.000113755 0 -0.000230367 -2.17274e-15 0)
(0.00125115 0.000116986 0 -0.000225782 -2.10227e-15 0)
(0.00128521 0.000120538 0 -0.000220794 -3.01408e-15 0)
(0.00131991 0.000124444 0 -0.000215462 -2.95011e-15 0)
(0.00135544 0.000128744 0 -0.000209858 -5.42752e-15 0)
(0.00139209 0.000133478 0 -0.000204076 -5.56196e-16 0)
(0.00143014 0.000138693 0 -0.000198234 -2.80808e-16 0)
(0.00146998 0.000144434 0 -0.000192499 1.95156e-17 0)
(0.00151213 0.000150742 0 -0.000187109 1.05601e-15 0)
(0.00155719 0.000157667 0 -0.000182378 -6.40763e-16 0)
(0.0016059 0.00016528 0 -0.000178702 -1.34224e-15 0)
(0.0016593 0.000173628 0 -0.000176657 1.67618e-15 0)
(0.0017191 0.000182643 0 -0.000177308 1.7022e-16 0)
(0.00178764 0.000192317 0 -0.000182191 4.66099e-15 0)
(0.00210837 0.000206036 0 -0.000367165 -2.93494e-15 0)
(0.00237221 0.000205369 0 -0.000569416 -4.36825e-15 0)
(0.00269143 0.000196996 0 -0.000843163 -4.90927e-15 0)
(0.00306217 0.000179312 0 -0.00119011 -6.78494e-15 0)
(0.00347696 0.000151654 0 -0.00160765 -1.07119e-15 0)
(0.00392499 0.000114601 0 -0.00208796 3.29055e-15 0)
(0.00439297 6.99336e-05 0 -0.00261837 -1.50813e-15 0)
(0.00486657 2.02713e-05 0 -0.00318288 -1.43548e-15 0)
(0.00533212 -3.15961e-05 0 -0.00376451 1.98539e-14 0)
(0.0057779 -8.33527e-05 0 -0.00434794 1.66425e-14 0)
(0.00619428 -0.00013357 0 -0.00492035 9.42443e-15 0)
(0.00657398 -0.000181686 0 -0.00547187 -2.5701e-15 0)
(0.00691178 -0.000227938 0 -0.00599546 -3.00216e-15 0)
(0.00720281 -0.000273005 0 -0.00648535 -7.79216e-15 0)
(0.00744259 -0.000317771 0 -0.0069366 1.19495e-14 0)
(0.00762632 -0.000363016 0 -0.0073441 2.61748e-14 0)
(0.00774802 -0.00040874 0 -0.00770112 2.52175e-14 0)
(0.00779937 -0.000452879 0 -0.00799694 -2.93892e-14 0)
(0.0077653 -0.000487375 0 -0.00820975 -3.30318e-14 0)
(0.000598273 -0.000209714 -2.63461e-16 -0.000396279 4.60786e-16 0)
(0.000592604 -0.000221933 1.76617e-15 -0.000375338 -1.8567e-16 0)
(0.000586169 -0.000238557 2.2237e-15 -0.000357211 3.07453e-15 0)
(0.000578054 -0.000255269 1.41705e-15 -0.000338714 1.31622e-15 0)
(0.000568914 -0.000270382 -5.96311e-17 -0.00031984 7.06087e-16 0)
(0.000559409 -0.000283171 -2.80808e-16 -0.00030108 -8.21757e-16 0)
(0.000550038 -0.000293363 7.7412e-16 -0.000282918 -1.72239e-15 0)
(0.000541148 -0.00030093 -1.58185e-15 -0.000265732 2.1247e-15 0)
(0.000532963 -0.000305983 -6.89553e-16 -0.000249784 1.98788e-15 0)
(0.000525615 -0.00030871 2.28767e-16 -0.000235238 5.9394e-16 0)
(0.000519163 -0.000309335 9.30245e-16 -0.000222171 4.83724e-16 0)
(0.000513618 -0.000308095 1.98843e-15 -0.000210599 9.43053e-16 0)
(0.000508951 -0.000305224 9.38919e-16 -0.000200486 -1.94309e-16 0)
(0.000505108 -0.000300945 -4.4127e-16 -0.00019176 -3.88009e-16 0)
(0.000502019 -0.000295464 -1.46367e-15 -0.000184326 -2.16671e-16 0)
(0.000499603 -0.000288965 8.17488e-16 -0.000178069 1.04605e-15 0)
(0.000497774 -0.000281614 -3.01408e-16 -0.000172866 -1.33306e-15 0)
(0.000496443 -0.000273556 9.87708e-16 -0.000168586 9.43798e-16 0)
(0.000495525 -0.000264918 -5.42101e-17 -0.000165099 5.34478e-16 0)
(0.000494936 -0.000255806 -2.12504e-16 -0.000162277 5.95566e-16 0)
(0.000494594 -0.000246311 7.52436e-16 -0.000159993 9.77476e-17 0)
(0.000494424 -0.000236508 -3.36103e-17 -0.000158129 -2.74439e-16 0)
(0.000494357 -0.000226457 -1.17094e-16 -0.000156571 9.09239e-16 0)
(0.000494327 -0.000216204 6.08237e-16 -0.000155214 8.61229e-16 0)
(0.000494275 -0.000205783 1.85832e-15 -0.00015396 1.09701e-15 0)
(0.000494148 -0.000195213 -1.48536e-16 -0.000152722 7.13303e-16 0)
(0.000493898 -0.000184504 -7.24247e-16 -0.000151422 -2.20364e-16 0)
(0.000493487 -0.00017365 -9.7795e-16 -0.000149995 -7.74358e-16 0)
(0.000492883 -0.000162633 -6.28837e-16 -0.000148389 3.21568e-16 0)
(0.000492066 -0.00015142 6.93889e-17 -0.000146566 -4.54077e-16 0)
(0.000491024 -0.00013996 3.25261e-16 -0.000144508 -1.85466e-16 0)
(0.000489761 -0.00012818 -7.58942e-18 -0.000142214 -9.75579e-16 0)
(0.000488296 -0.00011598 -5.91974e-16 -0.000139705 6.85148e-16 0)
(0.000486664 -0.000103229 -5.96311e-16 -0.000137028 4.60684e-16 0)
(0.000484916 -8.97507e-05 -2.75387e-16 -0.000134254 6.10982e-16 0)
(0.000483125 -7.53202e-05 2.41777e-16 -0.000131478 -1.30036e-16 0)
(0.000481373 -5.96477e-05 -6.7329e-16 -0.000128821 -6.07221e-16 0)
(0.000479751 -4.23743e-05 -7.50268e-16 -0.000126426 1.05557e-16 0)
(0.000478354 -2.30831e-05 6.07153e-17 -0.00012449 -1.36852e-15 0)
(0.000637537 -0.000227521 1.74557e-15 -0.000496556 -5.97395e-16 0)
(0.000664367 -0.000218783 3.32742e-15 -0.000494513 -7.07171e-16 0)
(0.000688175 -0.00021143 1.55691e-15 -0.000493461 -2.87124e-15 0)
(0.000710349 -0.000204916 -1.352e-15 -0.000493489 -2.30745e-15 0)
(0.000731569 -0.000198895 -1.2631e-15 -0.000494463 -1.95942e-15 0)
(0.000752193 -0.000193139 2.69966e-16 -0.000496195 -1.2078e-15 0)
(0.000772417 -0.000187494 1.63064e-15 -0.000498504 -1.484e-15 0)
(0.000792357 -0.000181858 4.88867e-15 -0.000501235 -2.22153e-15 0)
(0.000812088 -0.000176163 2.86934e-15 -0.000504265 -2.21123e-15 0)
(0.000831659 -0.000170365 2.27682e-15 -0.000507495 -2.36763e-15 0)
(0.000851108 -0.000164434 -1.7846e-15 -0.000510852 -8.21554e-16 0)
(0.000870463 -0.00015835 4.97649e-16 -0.000514277 -2.74032e-16 0)
(0.000889747 -0.0001521 1.68377e-15 -0.000517729 1.08989e-15 0)
(0.000908976 -0.000145674 -7.08526e-16 -0.000521171 1.8819e-15 0)
(0.000928164 -0.000139067 -3.59684e-15 -0.000524575 1.58158e-15 0)
(0.000947316 -0.000132278 4.85723e-16 -0.000527915 1.14654e-15 0)
(0.000966437 -0.000125311 7.76831e-16 -0.000531167 1.94885e-15 0)
(0.000985523 -0.000118178 -3.18105e-15 -0.000534309 3.15611e-15 0)
(0.00100457 -0.000110901 -8.83083e-16 -0.000537321 3.29218e-15 0)
(0.00102359 -0.000103509 -1.74828e-15 -0.000540185 3.9774e-15 0)
(0.00104256 -9.60478e-05 -7.51894e-16 -0.00054289 1.23111e-15 0)
(0.00106151 -8.85704e-05 3.46945e-16 -0.000545434 1.65937e-15 0)
(0.00108045 -8.11417e-05 -2.21611e-15 -0.000547823 1.29372e-15 0)
(0.00109942 -7.38345e-05 -1.71196e-15 -0.000550082 1.5496e-15 0)
(0.00111845 -6.67269e-05 4.2826e-16 -0.000552247 8.15591e-16 0)
(0.00113762 -5.98986e-05 -3.03197e-15 -0.000554373 5.1093e-16 0)
(0.001157 -5.3428e-05 -2.71051e-15 -0.000556533 -1.09775e-15 0)
(0.00117671 -4.73883e-05 -3.9053e-15 -0.000558816 9.81203e-16 0)
(0.00119684 -4.18441e-05 -2.06053e-15 -0.000561326 2.15648e-15 0)
(0.00121753 -3.68488e-05 -1.49837e-15 -0.000564179 2.47035e-15 0)
(0.00123891 -3.24418e-05 -3.44234e-16 -0.000567503 9.76866e-16 0)
(0.00126112 -2.86461e-05 1.2387e-15 -0.000571426 4.24194e-16 0)
(0.00128429 -2.54664e-05 -1.82688e-16 -0.000576073 2.01662e-16 0)
(0.00130852 -2.28846e-05 3.38813e-16 -0.000581557 2.84603e-16 0)
(0.00133389 -2.08528e-05 6.29379e-16 -0.000587959 -1.34712e-15 0)
(0.00136041 -1.92753e-05 -1.60679e-15 -0.000595312 1.74557e-16 0)
(0.00138801 -1.79646e-05 -1.43657e-16 -0.00060357 -3.27971e-16 0)
(0.00141647 -1.65262e-05 -2.3538e-15 -0.000612578 -2.29851e-16 0)
(0.00144586 -1.33679e-05 -2.75143e-15 -0.000623745 4.23923e-16 0)
(0.00767626 -0.000692898 1.20374e-14 -0.0083598 -3.61786e-14 0)
(0.00749504 -0.0012431 -1.43538e-14 -0.00814 7.46855e-14 0)
(0.00720151 -0.00178337 -7.10396e-15 -0.00777906 -4.40159e-15 0)
(0.0067708 -0.00227172 -4.45932e-15 -0.00725569 1.6188e-14 0)
(0.00619117 -0.00265777 9.37672e-15 -0.00655485 2.23416e-14 0)
(0.0054534 -0.00288818 4.46149e-15 -0.00566428 2.58149e-14 0)
(0.00454912 -0.0029039 -7.45335e-15 -0.00457904 1.31731e-16 0)
(0.00348735 -0.0026481 -1.38312e-14 -0.00332556 -8.95009e-16 0)
(0.00231961 -0.00209144 -4.76507e-15 -0.00199106 1.79327e-15 0)
(0.00116144 -0.00128213 -1.57209e-15 -0.000745375 -6.30789e-15 0)
(0.000260748 -0.000465231 -2.00903e-15 0.00010153 -1.50704e-15 0)
(7.45961e-05 -0.00012617 6.34258e-16 -2.57081e-06 -1.20563e-15 0)
(0.000112552 -0.000117933 1.15142e-15 -1.32189e-05 3.79471e-18 0)
(0.00011529 -0.000109461 2.09251e-15 -1.50821e-05 -9.42714e-16 0)
(9.71747e-05 -8.90291e-05 1.30213e-15 -1.53258e-05 -2.07083e-16 0)
(6.92636e-05 -5.79033e-05 8.12067e-16 -1.76664e-05 -2.99782e-16 0)
(3.85883e-05 -1.82036e-05 4.56449e-16 -2.4697e-05 -1.39862e-16 0)
(9.7446e-06 2.7635e-05 1.11673e-16 -3.80589e-05 -4.71628e-17 0)
(-1.42744e-05 7.71844e-05 -7.26415e-17 -5.86558e-05 -1.24683e-17 0)
(-4.12401e-05 0.000178647 -8.5652e-17 -0.00012258 9.18861e-17 0)
(-4.28046e-05 0.000226866 -1.61546e-16 -0.000165552 -2.11419e-17 0)
(-3.64319e-05 0.000271437 -1.35525e-16 -0.000215206 -2.30393e-17 0)
(-2.25866e-05 0.000311196 1.51788e-17 -0.000270819 4.20128e-17 0)
(-1.96228e-06 0.000345185 -1.13841e-16 -0.00033153 3.84892e-17 0)
(2.45907e-05 0.000372626 -1.99493e-16 -0.000396365 -6.66784e-17 0)
(5.61125e-05 0.000392901 -3.25261e-16 -0.000464256 2.00306e-16 0)
(9.15661e-05 0.000405548 5.63785e-17 -0.000534057 -8.37546e-17 0)
(0.000129862 0.000410257 -5.20417e-17 -0.000604562 -2.13588e-16 0)
(0.000169877 0.00040688 -1.03108e-15 -0.000674526 -1.051e-15 0)
(0.000210481 0.000395432 -1.09504e-15 -0.000742685 -4.09828e-16 0)
(0.00025055 0.000376095 -7.50268e-16 -0.000807788 5.173e-16 0)
(0.000288995 0.000349217 -2.42644e-15 -0.000868613 2.42292e-15 0)
(0.000324785 0.000315313 -7.30752e-16 -0.000923998 5.73543e-16 0)
(0.00035697 0.000275055 1.05059e-15 -0.000972862 2.51698e-15 0)
(0.00038472 0.000229258 5.39933e-16 -0.00101424 1.88739e-15 0)
(0.000407387 0.000178844 1.23599e-16 -0.00104736 2.66578e-16 0)
(0.000424753 0.000124612 -7.54605e-16 -0.00107202 -4.64049e-15 0)
(0.000439075 6.46764e-05 5.32235e-15 -0.00109203 -6.73459e-16 0)
(1.98603e-05 0.000118685 -8.67362e-18 -0.000116518 4.68917e-17 0)
(8.36622e-05 9.17516e-05 1.11673e-16 -0.000163272 2.33103e-17 0)
(0.000139824 6.62522e-05 -1.98409e-16 -0.00020254 2.02475e-16 0)
(0.000189877 4.2075e-05 -1.64799e-16 -0.000235803 4.36391e-17 0)
(0.000234997 1.92215e-05 2.13588e-16 -0.000264216 -2.46656e-16 0)
(0.000276079 -2.25777e-06 4.47775e-16 -0.000288669 -2.00306e-16 0)
(0.000313796 -2.23015e-05 -3.90313e-17 -0.000309839 7.31836e-17 0)
(0.00034866 -4.08584e-05 -4.84638e-16 -0.000328239 9.89334e-17 0)
(0.000381059 -5.78972e-05 -4.32597e-16 -0.000344255 -4.00613e-16 0)
(0.000411294 -7.34087e-05 -7.39426e-16 -0.000358178 -6.53774e-16 0)
(0.000439605 -8.74044e-05 -8.53267e-16 -0.000370227 -9.93942e-16 0)
(0.000466193 -9.99116e-05 -1.43765e-15 -0.000380563 -3.87602e-16 0)
(0.000491237 -0.000110968 4.10913e-16 -0.000389302 -1.3436e-15 0)
(0.000514901 -0.000120614 -3.0954e-15 -0.000396511 2.15756e-16 0)
(0.000537337 -0.00012889 -1.661e-15 -0.000402204 5.14996e-16 0)
(0.000558671 -0.000135821 -8.80372e-16 -0.0004063 -7.15573e-17 0)
(0.000578925 -0.000141416 -1.40946e-16 -0.000408521 -5.1093e-16 0)
(0.000597765 -0.000145611 -2.98156e-16 -0.000408093 7.36173e-16 0)
(0.000613582 -0.000148082 -1.27068e-15 -0.000402772 7.48099e-17 0)
(1.98603e-05 0.000118685 -8.67362e-18 -0.000116518 4.68917e-17 0)
(8.36622e-05 9.17516e-05 1.11673e-16 -0.000163272 2.33103e-17 0)
(0.000139824 6.62522e-05 -1.98409e-16 -0.00020254 2.02475e-16 0)
(0.000189877 4.2075e-05 -1.64799e-16 -0.000235803 4.36391e-17 0)
(0.000234997 1.92215e-05 2.13588e-16 -0.000264216 -2.46656e-16 0)
(0.000276079 -2.25777e-06 4.47775e-16 -0.000288669 -2.00306e-16 0)
(0.000313796 -2.23015e-05 -3.90313e-17 -0.000309839 7.31836e-17 0)
(0.00034866 -4.08584e-05 -4.84638e-16 -0.000328239 9.89334e-17 0)
(0.000381059 -5.78972e-05 -4.32597e-16 -0.000344255 -4.00613e-16 0)
(0.000411294 -7.34087e-05 -7.39426e-16 -0.000358178 -6.53774e-16 0)
(0.000439605 -8.74044e-05 -8.53267e-16 -0.000370227 -9.93942e-16 0)
(0.000466193 -9.99116e-05 -1.43765e-15 -0.000380563 -3.87602e-16 0)
(0.000491237 -0.000110968 4.10913e-16 -0.000389302 -1.3436e-15 0)
(0.000514901 -0.000120614 -3.0954e-15 -0.000396511 2.15756e-16 0)
(0.000537337 -0.00012889 -1.661e-15 -0.000402204 5.14996e-16 0)
(0.000558671 -0.000135821 -8.80372e-16 -0.0004063 -7.15573e-17 0)
(0.000578925 -0.000141416 -1.40946e-16 -0.000408521 -5.1093e-16 0)
(0.000597765 -0.000145611 -2.98156e-16 -0.000408093 7.36173e-16 0)
(0.000613582 -0.000148082 -1.27068e-15 -0.000402772 7.48099e-17 0)
(0.000671081 -0.000153569 -4.08636e-15 -0.000448424 3.09567e-15 0)
(0.000706982 -0.000147902 2.79724e-15 -0.000459875 6.50521e-16 0)
(0.000748289 -0.000138236 3.20924e-15 -0.000477032 2.01851e-15 0)
(0.000793485 -0.000128744 -1.4138e-15 -0.000498878 3.08727e-16 0)
(0.000842825 -0.000120209 -3.84133e-15 -0.000526143 3.60958e-15 0)
(0.000897333 -0.000112936 -7.26036e-15 -0.000560229 9.76866e-16 0)
(0.00095885 -0.000108091 -2.52673e-15 -0.000603216 2.36736e-15 0)
(0.00103511 -0.000109228 1.69407e-15 -0.000658712 -1.20889e-15 0)
(0.00114536 -0.000108431 -4.04407e-16 -0.000735597 1.83826e-15 0)
(0.0013188 -9.44038e-05 -1.54716e-15 -0.0008681 5.14454e-16 0)
(0.00154423 -4.59382e-05 -3.93403e-15 -0.0010207 1.21431e-15 0)
(0.00176289 2.85016e-05 -4.96185e-15 -0.0011425 3.57516e-15 0)
(0.00192867 0.000107527 -4.03594e-16 -0.00120067 3.32742e-15 0)
(0.00202463 0.000175835 4.2826e-17 -0.00118201 -1.93096e-15 0)
(0.0020512 0.000224822 -2.18955e-15 -0.00108607 -8.73867e-16 0)
(0.0020177 0.000248536 -1.2139e-15 -0.000920224 2.10444e-15 0)
(0.00195118 0.000244319 -9.38296e-15 -0.000710751 -6.31765e-15 0)