/*--------------------------------*- C++ -*----------------------------------*\
| =========                 |                                                 |
| \\      /  F ield         | OpenFOAM: The Open Source CFD Toolbox           |
|  \\    /   O peration     | Version:  v2012                                 |
|   \\  /    A nd           | Website:  www.openfoam.com                      |
|    \\/     M anipulation  |                                                 |
\*---------------------------------------------------------------------------*/
FoamFile
{
    version     2.0;
    format      ascii;
    class       pointVectorField;
    location    "17";
    object      pointD;
}
// * * * * * * * * * * * * * * * * * * * * * * * * * * * * * * * * * * * * * //

dimensions      [0 1 0 0 0 0 0];


internalField   nonuniform List<vector> 
8282
(
(0.00156943 0 0)
(0.00194873 0 0)
(0.00178698 -0.000104688 0)
(0 -0.00131305 0)
(0 -0.000190122 0)
(0.0016078 0 0)
(0 -0.00126312 0)
(0.00111801 -0.000283508 0)
(0.000470849 -0.000530018 0)
(0.00187363 -1.18883e-05 0)
(0.00132423 -0.000481562 0)
(0.00132423 -0.000481562 0)
(0.00111801 -0.000283508 0)
(0 -0.00126312 0)
(0 -0.000190122 0)
(0.00156943 0 0)
(0.0016078 0 0)
(0.00194873 0 0)
(0.00187363 -1.18883e-05 0)
(0.00178698 -0.000104688 0)
(0.000470849 -0.000530018 0)
(0 -0.00131305 0)
(5.37639e-05 -0.00125128 0)
(0.000108869 -0.00122288 0)
(0.000167354 -0.00118009 0)
(0.000230316 -0.00112498 0)
(0.000297671 -0.00106034 0)
(0.000368061 -0.000989579 0)
(0.000439423 -0.000916459 0)
(0.00050936 -0.000844671 0)
(0.000575469 -0.000777433 0)
(0.000635998 -0.000716832 0)
(0.000690875 -0.000662506 0)
(0.000742527 -0.000611776 0)
(0.000792732 -0.000562867 0)
(0.000841906 -0.00051613 0)
(0.000890122 -0.000471731 0)
(0.000937413 -0.000429704 0)
(0.000983805 -0.000390023 0)
(0.00102932 -0.000352617 0)
(0.00107402 -0.000317315 0)
(0.00115933 -0.000254802 0)
(0.00119982 -0.000227744 0)
(0.00123922 -0.000202497 0)
(0.00127734 -0.000179114 0)
(0.00131402 -0.000157592 0)
(0.00134912 -0.000137896 0)
(0.0013825 -0.000119967 0)
(0.00141404 -0.00010373 0)
(0.0014436 -8.90978e-05 0)
(0.00147105 -7.59702e-05 0)
(0.00149629 -6.42386e-05 0)
(0.0015192 -5.37859e-05 0)
(0.00153967 -4.44881e-05 0)
(0.00155762 -3.62145e-05 0)
(0.00157295 -2.88288e-05 0)
(0.00158559 -2.2189e-05 0)
(0.00159547 -1.61483e-05 0)
(0.00160253 -1.05536e-05 0)
(0.0016067 -5.24087e-06 0)
(0.00157459 0 0)
(0.00157911 0 0)
(0.00158306 0 0)
(0.00158651 0 0)
(0.00158951 0 0)
(0.00159212 0 0)
(0.00159438 0 0)
(0.00159635 0 0)
(0.00159806 0 0)
(0.00159955 0 0)
(0.00160085 0 0)
(0.00160199 0 0)
(0.00160299 0 0)
(0.00160388 0 0)
(0.00160468 0 0)
(0.0016054 0 0)
(0.00160606 0 0)
(0.00160667 0 0)
(0.00160725 0 0)
(0.00160966 0 0)
(0.00161141 0 0)
(0.00161325 0 0)
(0.00161529 0 0)
(0.00161762 0 0)
(0.0016203 0 0)
(0.00162337 0 0)
(0.00162687 0 0)
(0.00163082 0 0)
(0.00163523 0 0)
(0.00164012 0 0)
(0.00164549 0 0)
(0.00165134 0 0)
(0.00165767 0 0)
(0.00166449 0 0)
(0.00167178 0 0)
(0.00167953 0 0)
(0.00168775 0 0)
(0.00169642 0 0)
(0.00170552 0 0)
(0.00171505 0 0)
(0.00172498 0 0)
(0.00173531 0 0)
(0.00174602 0 0)
(0.00175709 0 0)
(0.00176849 0 0)
(0.00178021 0 0)
(0.00179223 0 0)
(0.00180452 0 0)
(0.00181706 0 0)
(0.00182982 0 0)
(0.00184276 0 0)
(0.00185586 0 0)
(0.00186909 0 0)
(0.0018824 0 0)
(0.00189575 0 0)
(0.00190911 0 0)
(0.00192241 0 0)
(0.00193563 0 0)
(0.0019483 9.91246e-07 0)
(0.00194755 1.92001e-06 0)
(0.00194638 2.79044e-06 0)
(0.00194479 3.58215e-06 0)
(0.00194276 4.27062e-06 0)
(0.00194032 4.83093e-06 0)
(0.00193748 5.23881e-06 0)
(0.00193424 5.47097e-06 0)
(0.00193063 5.5053e-06 0)
(0.00192667 5.32107e-06 0)
(0.00192238 4.89899e-06 0)
(0.00191779 4.22142e-06 0)
(0.00191292 3.27242e-06 0)
(0.0019078 2.03792e-06 0)
(0.00190246 5.0582e-07 0)
(0.00189694 -1.3339e-06 0)
(0.00189127 -3.48914e-06 0)
(0.00188547 -5.96554e-06 0)
(0.00187958 -8.76619e-06 0)
(0.00187101 -1.33661e-05 0)
(0.00186839 -1.49057e-05 0)
(0.00186576 -1.65071e-05 0)
(0.00186314 -1.81696e-05 0)
(0.00186052 -1.98928e-05 0)
(0.00185791 -2.16757e-05 0)
(0.00185531 -2.35175e-05 0)
(0.00185273 -2.54171e-05 0)
(0.00185017 -2.73732e-05 0)
(0.00184762 -2.93847e-05 0)
(0.0018451 -3.14499e-05 0)
(0.00184261 -3.35674e-05 0)
(0.00184014 -3.57355e-05 0)
(0.0018377 -3.79524e-05 0)
(0.0018353 -4.02162e-05 0)
(0.00183293 -4.25249e-05 0)
(0.00183059 -4.48764e-05 0)
(0.00182829 -4.72683e-05 0)
(0.00182603 -4.96983e-05 0)
(0.00182381 -5.2164e-05 0)
(0.00182163 -5.46628e-05 0)
(0.0018195 -5.7192e-05 0)
(0.0018174 -5.97488e-05 0)
(0.00181535 -6.23305e-05 0)
(0.00181334 -6.4934e-05 0)
(0.00181137 -6.75564e-05 0)
(0.00180944 -7.01947e-05 0)
(0.00180755 -7.28457e-05 0)
(0.0018057 -7.55065e-05 0)
(0.00180389 -7.81741e-05 0)
(0.00180211 -8.08454e-05 0)
(0.00180036 -8.35176e-05 0)
(0.00179865 -8.61881e-05 0)
(0.00179695 -8.88543e-05 0)
(0.00179527 -9.15143e-05 0)
(0.00179361 -9.41664e-05 0)
(0.00179196 -9.68095e-05 0)
(0.00179031 -9.94433e-05 0)
(0.00178865 -0.000102069 0)
(0.00176787 -0.000109933 0)
(0.00174883 -0.000115101 0)
(0.00172985 -0.000120049 0)
(0.00171086 -0.000124666 0)
(0.00169175 -0.000128885 0)
(0.00167245 -0.000132671 0)
(0.00165286 -0.000136019 0)
(0.0016329 -0.00013894 0)
(0.00161249 -0.000141464 0)
(0.00159155 -0.00014363 0)
(0.00157001 -0.000145488 0)
(0.00154782 -0.000147095 0)
(0.0015249 -0.000148516 0)
(0.00150119 -0.000149823 0)
(0.00147665 -0.00015109 0)
(0.00145121 -0.000152402 0)
(0.00142482 -0.000153845 0)
(0.00139742 -0.000155513 0)
(0.00136897 -0.000157507 0)
(0.00133941 -0.000159933 0)
(0.00130869 -0.000162905 0)
(0.00127676 -0.000166543 0)
(0.00124359 -0.000170976 0)
(0.00120912 -0.000176339 0)
(0.00117332 -0.000182777 0)
(0.00113616 -0.000190443 0)
(0.00109761 -0.000199496 0)
(0.00105763 -0.000210107 0)
(0.00101624 -0.000222452 0)
(0.000973408 -0.000236716 0)
(0.000929161 -0.000253089 0)
(0.000883527 -0.000271767 0)
(0.000836565 -0.000292949 0)
(0.000788403 -0.00031691 0)
(0.00073875 -0.000343871 0)
(0.00068735 -0.000374079 0)
(0.000634255 -0.000407637 0)
(0.000579947 -0.000444586 0)
(0.000525187 -0.000485183 0)
(0.000431549 -0.00056521 0)
(0.000392241 -0.000602648 0)
(0.000353038 -0.000642385 0)
(0.000314214 -0.000684474 0)
(0.000276068 -0.0007289 0)
(0.000238954 -0.000775576 0)
(0.00020328 -0.000824316 0)
(0.000169505 -0.000874793 0)
(0.000138116 -0.000926504 0)
(0.000109577 -0.000978744 0)
(8.42791e-05 -0.00103062 0)
(6.24892e-05 -0.0010811 0)
(4.43262e-05 -0.00112908 0)
(2.97591e-05 -0.00117347 0)
(1.86177e-05 -0.00121321 0)
(1.06052e-05 -0.00124734 0)
(5.30435e-06 -0.00127497 0)
(2.17964e-06 -0.0012954 0)
(5.95312e-07 -0.00130809 0)
(0 -0.00131272 0)
(0 -0.00131224 0)
(0 -0.0013116 0)
(0 -0.00131084 0)
(0 -0.00130995 0)
(0 -0.00130897 0)
(0 -0.00130789 0)
(0 -0.00130672 0)
(0 -0.00130549 0)
(0 -0.00130418 0)
(0 -0.00130283 0)
(0 -0.00130142 0)
(0 -0.00129998 0)
(0 -0.00129851 0)
(0 -0.001297 0)
(0 -0.00129548 0)
(0 -0.00129395 0)
(0 -0.0012924 0)
(0 -0.00129086 0)
(0 -0.00128931 0)
(0 -0.00128777 0)
(0 -0.00128624 0)
(0 -0.00128473 0)
(0 -0.00128323 0)
(0 -0.00128175 0)
(0 -0.0012803 0)
(0 -0.00127888 0)
(0 -0.00127748 0)
(0 -0.00127612 0)
(0 -0.0012748 0)
(0 -0.00127351 0)
(0 -0.00127225 0)
(0 -0.00127103 0)
(0 -0.00126985 0)
(0 -0.0012687 0)
(0 -0.00126758 0)
(0 -0.00126648 0)
(0 -0.00126539 0)
(0 -0.00126428 0)
(0 -0.00125963 0)
(0 -0.00125405 0)
(0 -0.0012455 0)
(0 -0.00123308 0)
(0 -0.00121587 0)
(0 -0.00119301 0)
(0 -0.00116378 0)
(0 -0.00112767 0)
(0 -0.00108434 0)
(0 -0.00103369 0)
(0 -0.000975794 0)
(0 -0.000910849 0)
(0 -0.000839164 0)
(0 -0.000761124 0)
(0 -0.000677176 0)
(0 -0.000587827 0)
(0 -0.000493655 0)
(0 -0.000395339 0)
(0 -0.000293738 0)
(0.00114024 -0.000247738 0)
(0.00116228 -0.000215018 0)
(0.00118411 -0.000185671 0)
(0.00120565 -0.000159677 0)
(0.00122687 -0.000136889 0)
(0.00124772 -0.000117103 0)
(0.00126822 -0.000100088 0)
(0.00128838 -8.56027e-05 0)
(0.00130821 -7.34096e-05 0)
(0.00132774 -6.32775e-05 0)
(0.00134701 -5.4987e-05 0)
(0.00136606 -4.83316e-05 0)
(0.00138491 -4.31185e-05 0)
(0.0014036 -3.91686e-05 0)
(0.00142216 -3.63163e-05 0)
(0.0014406 -3.44083e-05 0)
(0.00145897 -3.33036e-05 0)
(0.00147728 -3.28716e-05 0)
(0.00149554 -3.29922e-05 0)
(0.00151376 -3.35542e-05 0)
(0.00153197 -3.44547e-05 0)
(0.00155017 -3.55984e-05 0)
(0.00156836 -3.68965e-05 0)
(0.00158654 -3.8266e-05 0)
(0.00160472 -3.96293e-05 0)
(0.0016229 -4.0913e-05 0)
(0.00164107 -4.20472e-05 0)
(0.00165922 -4.29651e-05 0)
(0.00167735 -4.36017e-05 0)
(0.00169546 -4.38933e-05 0)
(0.00171353 -4.37764e-05 0)
(0.00173156 -4.31862e-05 0)
(0.00174953 -4.20556e-05 0)
(0.00176745 -4.03135e-05 0)
(0.0017853 -3.78822e-05 0)
(0.00180309 -3.46757e-05 0)
(0.00182081 -3.05957e-05 0)
(0.00183847 -2.5529e-05 0)
(0.00185607 -1.93433e-05 0)
(0.00110088 -0.00028893 0)
(0.0010838 -0.000294369 0)
(0.00106676 -0.000299822 0)
(0.00104975 -0.000305295 0)
(0.00103277 -0.000310793 0)
(0.00101581 -0.000316322 0)
(0.000998889 -0.000321886 0)
(0.000982 -0.000327489 0)
(0.000965147 -0.000333133 0)
(0.000948334 -0.00033882 0)
(0.000931564 -0.000344551 0)
(0.000914839 -0.000350327 0)
(0.000898162 -0.000356147 0)
(0.000881538 -0.000362013 0)
(0.000864968 -0.000367923 0)
(0.000848457 -0.000373876 0)
(0.000832007 -0.000379873 0)
(0.000815623 -0.000385912 0)
(0.000799307 -0.000391992 0)
(0.000783062 -0.000398112 0)
(0.00076689 -0.00040427 0)
(0.000750794 -0.000410464 0)
(0.000734775 -0.000416694 0)
(0.000718833 -0.000422958 0)
(0.000702966 -0.000429256 0)
(0.000687172 -0.000435586 0)
(0.000671449 -0.000441949 0)
(0.000655792 -0.000448348 0)
(0.000640195 -0.000454784 0)
(0.000624652 -0.00046126 0)
(0.000609156 -0.000467783 0)
(0.0005937 -0.000474358 0)
(0.000578275 -0.000480994 0)
(0.000562876 -0.0004877 0)
(0.000547494 -0.000494487 0)
(0.000532124 -0.000501364 0)
(0.000516761 -0.000508344 0)
(0.000501408 -0.000515435 0)
(0.000486076 -0.000522645 0)
(0.000151253 -0.000207218 0)
(0.000299496 -0.000242 0)
(0.000442545 -0.000293424 0)
(0.000577765 -0.000359717 0)
(0.000702486 -0.000437602 0)
(0.000814243 -0.000521997 0)
(0.000910836 -0.000605743 0)
(0.000990431 -0.000679711 0)
(0.0010519 -0.000733798 0)
(0.00109535 -0.000758958 0)
(0.00112285 -0.000751101 0)
(0.00114119 -0.000719573 0)
(0.00116184 -0.000688215 0)
(0.00118407 -0.000657499 0)
(0.00120723 -0.000627214 0)
(0.00123088 -0.000597299 0)
(0.00125464 -0.000567749 0)
(0.00127826 -0.000538587 0)
(0.00130151 -0.000509847 0)
(0.0013463 -0.00045376 0)
(0.0013676 -0.000426458 0)
(0.00138807 -0.000399662 0)
(0.00140764 -0.000373368 0)
(0.00142625 -0.000347563 0)
(0.00144386 -0.000322228 0)
(0.00146043 -0.000297337 0)
(0.00147591 -0.000272863 0)
(0.00149029 -0.000248774 0)
(0.00150351 -0.000225039 0)
(0.00151557 -0.000201626 0)
(0.00152643 -0.000178502 0)
(0.00153607 -0.000155636 0)
(0.00154447 -0.000132995 0)
(0.00155163 -0.00011055 0)
(0.00155754 -8.82701e-05 0)
(0.00156219 -6.61286e-05 0)
(0.00156561 -4.40964e-05 0)
(0.00156788 -2.21287e-05 0)
(0.00130944 -0.000465381 0)
(0.0012954 -0.000450294 0)
(0.00128203 -0.000436178 0)
(0.00126924 -0.000422937 0)
(0.00125698 -0.000410486 0)
(0.00124519 -0.000398755 0)
(0.00123384 -0.000387683 0)
(0.0012229 -0.000377215 0)
(0.00121235 -0.000367302 0)
(0.00120216 -0.0003579 0)
(0.00119233 -0.000348967 0)
(0.00118284 -0.000340464 0)
(0.00117367 -0.000332355 0)
(0.00116483 -0.000324606 0)
(0.0011563 -0.000317183 0)
(0.00114808 -0.000310051 0)
(0.00114016 -0.000303176 0)
(0.00113253 -0.000296513 0)
(0.00112517 -0.000289999 0)
(0.00130944 -0.000465381 0)
(0.0012954 -0.000450294 0)
(0.00128203 -0.000436178 0)
(0.00126924 -0.000422937 0)
(0.00125698 -0.000410486 0)
(0.00124519 -0.000398755 0)
(0.00123384 -0.000387683 0)
(0.0012229 -0.000377215 0)
(0.00121235 -0.000367302 0)
(0.00120216 -0.0003579 0)
(0.00119233 -0.000348967 0)
(0.00118284 -0.000340464 0)
(0.00117367 -0.000332355 0)
(0.00116483 -0.000324606 0)
(0.0011563 -0.000317183 0)
(0.00114808 -0.000310051 0)
(0.00114016 -0.000303176 0)
(0.00113253 -0.000296513 0)
(0.00112517 -0.000289999 0)
(0.00107402 -0.000317315 0)
(0.00102932 -0.000352617 0)
(0.000983805 -0.000390023 0)
(0.000937413 -0.000429704 0)
(0.000890122 -0.000471731 0)
(0.000841906 -0.00051613 0)
(0.000792732 -0.000562867 0)
(0.000742527 -0.000611776 0)
(0.000690875 -0.000662506 0)
(0.000635998 -0.000716832 0)
(0.000575469 -0.000777433 0)
(0.00050936 -0.000844671 0)
(0.000439423 -0.000916459 0)
(0.000368061 -0.000989579 0)
(0.000297671 -0.00106034 0)
(0.000230316 -0.00112498 0)
(0.000167354 -0.00118009 0)
(0.000108869 -0.00122288 0)
(5.37639e-05 -0.00125128 0)
(0 -0.00125963 0)
(0 -0.00125405 0)
(0 -0.0012455 0)
(0 -0.00123308 0)
(0 -0.00121587 0)
(0 -0.00119301 0)
(0 -0.00116378 0)
(0 -0.00112767 0)
(0 -0.00108434 0)
(0 -0.00103369 0)
(0 -0.000975794 0)
(0 -0.000910849 0)
(0 -0.000839164 0)
(0 -0.000761124 0)
(0 -0.000677176 0)
(0 -0.000587827 0)
(0 -0.000493655 0)
(0 -0.000395339 0)
(0 -0.000293738 0)
(0.000151253 -0.000207218 0)
(0.000299496 -0.000242 0)
(0.000442545 -0.000293424 0)
(0.000577765 -0.000359717 0)
(0.000702486 -0.000437602 0)
(0.000814243 -0.000521997 0)
(0.000910836 -0.000605743 0)
(0.000990431 -0.000679711 0)
(0.0010519 -0.000733798 0)
(0.00109535 -0.000758958 0)
(0.00112285 -0.000751101 0)
(0.00114119 -0.000719573 0)
(0.00116184 -0.000688215 0)
(0.00118407 -0.000657499 0)
(0.00120723 -0.000627214 0)
(0.00123088 -0.000597299 0)
(0.00125464 -0.000567749 0)
(0.00127826 -0.000538587 0)
(0.00130151 -0.000509847 0)
(0.0013463 -0.00045376 0)
(0.0013676 -0.000426458 0)
(0.00138807 -0.000399662 0)
(0.00140764 -0.000373368 0)
(0.00142625 -0.000347563 0)
(0.00144386 -0.000322228 0)
(0.00146043 -0.000297337 0)
(0.00147591 -0.000272863 0)
(0.00149029 -0.000248774 0)
(0.00150351 -0.000225039 0)
(0.00151557 -0.000201626 0)
(0.00152643 -0.000178502 0)
(0.00153607 -0.000155636 0)
(0.00154447 -0.000132995 0)
(0.00155163 -0.00011055 0)
(0.00155754 -8.82701e-05 0)
(0.00156219 -6.61286e-05 0)
(0.00156561 -4.40964e-05 0)
(0.00156788 -2.21287e-05 0)
(0.00157459 0 0)
(0.00157911 0 0)
(0.00158306 0 0)
(0.00158651 0 0)
(0.00158951 0 0)
(0.00159212 0 0)
(0.00159438 0 0)
(0.00159635 0 0)
(0.00159806 0 0)
(0.00159955 0 0)
(0.00160085 0 0)
(0.00160199 0 0)
(0.00160299 0 0)
(0.00160388 0 0)
(0.00160468 0 0)
(0.0016054 0 0)
(0.00160606 0 0)
(0.00160667 0 0)
(0.00160725 0 0)
(0.0016067 -5.24087e-06 0)
(0.00160253 -1.05536e-05 0)
(0.00159547 -1.61483e-05 0)
(0.00158559 -2.2189e-05 0)
(0.00157295 -2.88288e-05 0)
(0.00155762 -3.62145e-05 0)
(0.00153967 -4.44881e-05 0)
(0.0015192 -5.37859e-05 0)
(0.00149629 -6.42386e-05 0)
(0.00147105 -7.59702e-05 0)
(0.0014436 -8.90978e-05 0)
(0.00141404 -0.00010373 0)
(0.0013825 -0.000119967 0)
(0.00134912 -0.000137896 0)
(0.00131402 -0.000157592 0)
(0.00127734 -0.000179114 0)
(0.00123922 -0.000202497 0)
(0.00119982 -0.000227744 0)
(0.00115933 -0.000254802 0)
(0.00160966 0 0)
(0.00161141 0 0)
(0.00161325 0 0)
(0.00161529 0 0)
(0.00161762 0 0)
(0.0016203 0 0)
(0.00162337 0 0)
(0.00162687 0 0)
(0.00163082 0 0)
(0.00163523 0 0)
(0.00164012 0 0)
(0.00164549 0 0)
(0.00165134 0 0)
(0.00165767 0 0)
(0.00166449 0 0)
(0.00167178 0 0)
(0.00167953 0 0)
(0.00168775 0 0)
(0.00169642 0 0)
(0.00170552 0 0)
(0.00171505 0 0)
(0.00172498 0 0)
(0.00173531 0 0)
(0.00174602 0 0)
(0.00175709 0 0)
(0.00176849 0 0)
(0.00178021 0 0)
(0.00179223 0 0)
(0.00180452 0 0)
(0.00181706 0 0)
(0.00182982 0 0)
(0.00184276 0 0)
(0.00185586 0 0)
(0.00186909 0 0)
(0.0018824 0 0)
(0.00189575 0 0)
(0.00190911 0 0)
(0.00192241 0 0)
(0.00193563 0 0)
(0.0019483 9.91246e-07 0)
(0.00194755 1.92001e-06 0)
(0.00194638 2.79044e-06 0)
(0.00194479 3.58215e-06 0)
(0.00194276 4.27062e-06 0)
(0.00194032 4.83093e-06 0)
(0.00193748 5.23881e-06 0)
(0.00193424 5.47097e-06 0)
(0.00193063 5.5053e-06 0)
(0.00192667 5.32107e-06 0)
(0.00192238 4.89899e-06 0)
(0.00191779 4.22142e-06 0)
(0.00191292 3.27242e-06 0)
(0.0019078 2.03792e-06 0)
(0.00190246 5.0582e-07 0)
(0.00189694 -1.3339e-06 0)
(0.00189127 -3.48914e-06 0)
(0.00188547 -5.96554e-06 0)
(0.00187958 -8.76619e-06 0)
(0.00185607 -1.93433e-05 0)
(0.00183847 -2.5529e-05 0)
(0.00182081 -3.05957e-05 0)
(0.00180309 -3.46757e-05 0)
(0.0017853 -3.78822e-05 0)
(0.00176745 -4.03135e-05 0)
(0.00174953 -4.20556e-05 0)
(0.00173156 -4.31862e-05 0)
(0.00171353 -4.37764e-05 0)
(0.00169546 -4.38933e-05 0)
(0.00167735 -4.36017e-05 0)
(0.00165922 -4.29651e-05 0)
(0.00164107 -4.20472e-05 0)
(0.0016229 -4.0913e-05 0)
(0.00160472 -3.96293e-05 0)
(0.00158654 -3.8266e-05 0)
(0.00156836 -3.68965e-05 0)
(0.00155017 -3.55984e-05 0)
(0.00153197 -3.44547e-05 0)
(0.00151376 -3.35542e-05 0)
(0.00149554 -3.29922e-05 0)
(0.00147728 -3.28716e-05 0)
(0.00145897 -3.33036e-05 0)
(0.0014406 -3.44083e-05 0)
(0.00142216 -3.63163e-05 0)
(0.0014036 -3.91686e-05 0)
(0.00138491 -4.31185e-05 0)
(0.00136606 -4.83316e-05 0)
(0.00134701 -5.4987e-05 0)
(0.00132774 -6.32775e-05 0)
(0.00130821 -7.34096e-05 0)
(0.00128838 -8.56027e-05 0)
(0.00126822 -0.000100088 0)
(0.00124772 -0.000117103 0)
(0.00122687 -0.000136889 0)
(0.00120565 -0.000159677 0)
(0.00118411 -0.000185671 0)
(0.00116228 -0.000215018 0)
(0.00114024 -0.000247738 0)
(0.00187101 -1.33661e-05 0)
(0.00186839 -1.49057e-05 0)
(0.00186576 -1.65071e-05 0)
(0.00186314 -1.81696e-05 0)
(0.00186052 -1.98928e-05 0)
(0.00185791 -2.16757e-05 0)
(0.00185531 -2.35175e-05 0)
(0.00185273 -2.54171e-05 0)
(0.00185017 -2.73732e-05 0)
(0.00184762 -2.93847e-05 0)
(0.0018451 -3.14499e-05 0)
(0.00184261 -3.35674e-05 0)
(0.00184014 -3.57355e-05 0)
(0.0018377 -3.79524e-05 0)
(0.0018353 -4.02162e-05 0)
(0.00183293 -4.25249e-05 0)
(0.00183059 -4.48764e-05 0)
(0.00182829 -4.72683e-05 0)
(0.00182603 -4.96983e-05 0)
(0.00182381 -5.2164e-05 0)
(0.00182163 -5.46628e-05 0)
(0.0018195 -5.7192e-05 0)
(0.0018174 -5.97488e-05 0)
(0.00181535 -6.23305e-05 0)
(0.00181334 -6.4934e-05 0)
(0.00181137 -6.75564e-05 0)
(0.00180944 -7.01947e-05 0)
(0.00180755 -7.28457e-05 0)
(0.0018057 -7.55065e-05 0)
(0.00180389 -7.81741e-05 0)
(0.00180211 -8.08454e-05 0)
(0.00180036 -8.35176e-05 0)
(0.00179865 -8.61881e-05 0)
(0.00179695 -8.88543e-05 0)
(0.00179527 -9.15143e-05 0)
(0.00179361 -9.41664e-05 0)
(0.00179196 -9.68095e-05 0)
(0.00179031 -9.94433e-05 0)
(0.00178865 -0.000102069 0)
(0.00176787 -0.000109933 0)
(0.00174883 -0.000115101 0)
(0.00172985 -0.000120049 0)
(0.00171086 -0.000124666 0)
(0.00169175 -0.000128885 0)
(0.00167245 -0.000132671 0)
(0.00165286 -0.000136019 0)
(0.0016329 -0.00013894 0)
(0.00161249 -0.000141464 0)
(0.00159155 -0.00014363 0)
(0.00157001 -0.000145488 0)
(0.00154782 -0.000147095 0)
(0.0015249 -0.000148516 0)
(0.00150119 -0.000149823 0)
(0.00147665 -0.00015109 0)
(0.00145121 -0.000152402 0)
(0.00142482 -0.000153845 0)
(0.00139742 -0.000155513 0)
(0.00136897 -0.000157507 0)
(0.00133941 -0.000159933 0)
(0.00130869 -0.000162905 0)
(0.00127676 -0.000166543 0)
(0.00124359 -0.000170976 0)
(0.00120912 -0.000176339 0)
(0.00117332 -0.000182777 0)
(0.00113616 -0.000190443 0)
(0.00109761 -0.000199496 0)
(0.00105763 -0.000210107 0)
(0.00101624 -0.000222452 0)
(0.000973408 -0.000236716 0)
(0.000929161 -0.000253089 0)
(0.000883527 -0.000271767 0)
(0.000836565 -0.000292949 0)
(0.000788403 -0.00031691 0)
(0.00073875 -0.000343871 0)
(0.00068735 -0.000374079 0)
(0.000634255 -0.000407637 0)
(0.000579947 -0.000444586 0)
(0.000525187 -0.000485183 0)
(0.000486076 -0.000522645 0)
(0.000501408 -0.000515435 0)
(0.000516761 -0.000508344 0)
(0.000532124 -0.000501364 0)
(0.000547494 -0.000494487 0)
(0.000562876 -0.0004877 0)
(0.000578275 -0.000480994 0)
(0.0005937 -0.000474358 0)
(0.000609156 -0.000467783 0)
(0.000624652 -0.00046126 0)
(0.000640195 -0.000454784 0)
(0.000655792 -0.000448348 0)
(0.000671449 -0.000441949 0)
(0.000687172 -0.000435586 0)
(0.000702966 -0.000429256 0)
(0.000718833 -0.000422958 0)
(0.000734775 -0.000416694 0)
(0.000750794 -0.000410464 0)
(0.00076689 -0.00040427 0)
(0.000783062 -0.000398112 0)
(0.000799307 -0.000391992 0)
(0.000815623 -0.000385912 0)
(0.000832007 -0.000379873 0)
(0.000848457 -0.000373876 0)
(0.000864968 -0.000367923 0)
(0.000881538 -0.000362013 0)
(0.000898162 -0.000356147 0)
(0.000914839 -0.000350327 0)
(0.000931564 -0.000344551 0)
(0.000948334 -0.00033882 0)
(0.000965147 -0.000333133 0)
(0.000982 -0.000327489 0)
(0.000998889 -0.000321886 0)
(0.00101581 -0.000316322 0)
(0.00103277 -0.000310793 0)
(0.00104975 -0.000305295 0)
(0.00106676 -0.000299822 0)
(0.0010838 -0.000294369 0)
(0.00110088 -0.00028893 0)
(0.000431549 -0.00056521 0)
(0.000392241 -0.000602648 0)
(0.000353038 -0.000642385 0)
(0.000314214 -0.000684474 0)
(0.000276068 -0.0007289 0)
(0.000238954 -0.000775576 0)
(0.00020328 -0.000824316 0)
(0.000169505 -0.000874793 0)
(0.000138116 -0.000926504 0)
(0.000109577 -0.000978744 0)
(8.42791e-05 -0.00103062 0)
(6.24892e-05 -0.0010811 0)
(4.43262e-05 -0.00112908 0)
(2.97591e-05 -0.00117347 0)
(1.86177e-05 -0.00121321 0)
(1.06052e-05 -0.00124734 0)
(5.30435e-06 -0.00127497 0)
(2.17964e-06 -0.0012954 0)
(5.95312e-07 -0.00130809 0)
(0 -0.00131272 0)
(0 -0.00131224 0)
(0 -0.0013116 0)
(0 -0.00131084 0)
(0 -0.00130995 0)
(0 -0.00130897 0)
(0 -0.00130789 0)
(0 -0.00130672 0)
(0 -0.00130549 0)
(0 -0.00130418 0)
(0 -0.00130283 0)
(0 -0.00130142 0)
(0 -0.00129998 0)
(0 -0.00129851 0)
(0 -0.001297 0)
(0 -0.00129548 0)
(0 -0.00129395 0)
(0 -0.0012924 0)
(0 -0.00129086 0)
(0 -0.00128931 0)
(0 -0.00128777 0)
(0 -0.00128624 0)
(0 -0.00128473 0)
(0 -0.00128323 0)
(0 -0.00128175 0)
(0 -0.0012803 0)
(0 -0.00127888 0)
(0 -0.00127748 0)
(0 -0.00127612 0)
(0 -0.0012748 0)
(0 -0.00127351 0)
(0 -0.00127225 0)
(0 -0.00127103 0)
(0 -0.00126985 0)
(0 -0.0012687 0)
(0 -0.00126758 0)
(0 -0.00126648 0)
(0 -0.00126539 0)
(0 -0.00126428 0)
(0.000156976 -0.00031041 0)
(0.000160726 -0.000410778 0)
(0.000162838 -0.000507622 0)
(0.000163427 -0.000600257 0)
(0.000162552 -0.000688038 0)
(0.000160248 -0.00077037 0)
(0.000156538 -0.000846699 0)
(0.000151457 -0.000916533 0)
(0.000145063 -0.000979452 0)
(0.000137429 -0.00103514 0)
(0.000128721 -0.00108341 0)
(0.000119169 -0.0011243 0)
(0.000109081 -0.00115804 0)
(9.88371e-05 -0.0011851 0)
(8.88433e-05 -0.00120617 0)
(7.94857e-05 -0.00122205 0)
(7.10886e-05 -0.00123364 0)
(6.38935e-05 -0.0012418 0)
(5.80458e-05 -0.00124737 0)
(0.00030982 -0.000343987 0)
(0.00031684 -0.000442416 0)
(0.000320809 -0.000536735 0)
(0.000321809 -0.000626331 0)
(0.000319883 -0.000710591 0)
(0.000315041 -0.000788908 0)
(0.000307312 -0.000860716 0)
(0.000296757 -0.00092551 0)
(0.000283519 -0.00098291 0)
(0.000267849 -0.00103271 0)
(0.000250179 -0.00107496 0)
(0.000231109 -0.00111 0)
(0.000211372 -0.00113845 0)
(0.000191753 -0.00116111 0)
(0.000172997 -0.00117889 0)
(0.000155738 -0.00119269 0)
(0.000140455 -0.00120333 0)
(0.000127471 -0.00121154 0)
(0.000116981 -0.00121792 0)
(0.000456252 -0.000393395 0)
(0.000465613 -0.000488785 0)
(0.000470657 -0.000579071 0)
(0.000471356 -0.000663663 0)
(0.000467665 -0.000741942 0)
(0.000459548 -0.000813303 0)
(0.000447025 -0.000877204 0)
(0.000430262 -0.000933258 0)
(0.000409604 -0.000981319 0)
(0.000385682 -0.0010216 0)
(0.000359401 -0.00105471 0)
(0.00033185 -0.00108157 0)
(0.000304154 -0.00110325 0)
(0.000277345 -0.00112082 0)
(0.000252281 -0.00113522 0)
(0.000229589 -0.00114722 0)
(0.000209667 -0.00115738 0)
(0.000192704 -0.00116611 0)
(0.000178649 -0.00117363 0)
(0.000593513 -0.00045633 0)
(0.000603892 -0.000546981 0)
(0.000608732 -0.000631074 0)
(0.000607864 -0.000707974 0)
(0.000601152 -0.00077706 0)
(0.00058854 -0.000837799 0)
(0.000570177 -0.000889879 0)
(0.000546499 -0.000933328 0)
(0.000518362 -0.000968692 0)
(0.000487004 -0.000997036 0)
(0.000453863 -0.00101972 0)
(0.000420348 -0.00103816 0)
(0.000387679 -0.00105355 0)
(0.000356809 -0.00106685 0)
(0.000328415 -0.00107872 0)
(0.00030289 -0.00108957 0)
(0.000280397 -0.00109959 0)
(0.000260921 -0.00110884 0)
(0.000244311 -0.00111733 0)
(0.00071861 -0.000528904 0)
(0.000728229 -0.000612344 0)
(0.000731043 -0.000687211 0)
(0.000726808 -0.000752855 0)
(0.000715396 -0.000808789 0)
(0.000696949 -0.000854863 0)
(0.000671989 -0.000891426 0)
(0.000641631 -0.000919572 0)
(0.000607465 -0.000941024 0)
(0.000571228 -0.000957693 0)
(0.000534501 -0.000971274 0)
(0.000498551 -0.00098305 0)
(0.000464303 -0.000993877 0)
(0.000432379 -0.00100425 0)
(0.000403119 -0.00101439 0)
(0.000376661 -0.00102432 0)
(0.00035302 -0.001034 0)
(0.000332087 -0.00104331 0)
(0.000313707 -0.00105213 0)
(0.000828561 -0.000605187 0)
(0.000835116 -0.000677999 0)
(0.000833611 -0.00073973 0)
(0.00082391 -0.000789956 0)
(0.000806211 -0.000828772 0)
(0.000781188 -0.000856991 0)
(0.00075028 -0.000876509 0)
(0.000715436 -0.00088991 0)
(0.000678571 -0.000899653 0)
(0.000641252 -0.000907609 0)
(0.000604611 -0.000914968 0)
(0.000569426 -0.000922399 0)
(0.000536198 -0.000930201 0)
(0.0005052 -0.000938419 0)
(0.000476543 -0.00094695 0)
(0.000450309 -0.000955694 0)
(0.000426441 -0.000964476 0)
(0.000404868 -0.000973151 0)
(0.000385466 -0.000981567 0)
(0.000920663 -0.000676982 0)
(0.00092152 -0.000734929 0)
(0.000913332 -0.00077928 0)
(0.000896437 -0.000810449 0)
(0.000871794 -0.000829845 0)
(0.000841334 -0.000840429 0)
(0.000807399 -0.000845785 0)
(0.000771918 -0.000848772 0)
(0.000736212 -0.000851189 0)
(0.000701091 -0.000853966 0)
(0.000667099 -0.00085755 0)
(0.000634575 -0.000862068 0)
(0.000603715 -0.000867451 0)
(0.000574607 -0.000873522 0)
(0.000547417 -0.000880198 0)
(0.000522128 -0.000887266 0)
(0.000498763 -0.000894592 0)
(0.000477259 -0.000902003 0)
(0.000457521 -0.000909341 0)
(0.000992998 -0.000734379 0)
(0.000985804 -0.000773173 0)
(0.000969351 -0.000796972 0)
(0.000944862 -0.000807911 0)
(0.000915039 -0.00081036 0)
(0.000882719 -0.000808936 0)
(0.00084967 -0.000806483 0)
(0.000816799 -0.000804355 0)
(0.000784519 -0.000803082 0)
(0.000753132 -0.000802918 0)
(0.000722809 -0.000803905 0)
(0.000693627 -0.000805946 0)
(0.000665618 -0.000808857 0)
(0.00063902 -0.000812664 0)
(0.000613797 -0.000817124 0)
(0.000590067 -0.000822156 0)
(0.000567808 -0.000827581 0)
(0.00054699 -0.000833245 0)
(0.00052757 -0.000839017 0)
(0.00104514 -0.00076749 0)
(0.00102878 -0.000784377 0)
(0.00100429 -0.000787496 0)
(0.000975073 -0.000783279 0)
(0.000944482 -0.000777311 0)
(0.000913878 -0.00077168 0)
(0.000883706 -0.000766842 0)
(0.000854183 -0.000762881 0)
(0.000825523 -0.000759893 0)
(0.000797812 -0.00075786 0)
(0.000771051 -0.000756708 0)
(0.000745124 -0.000756303 0)
(0.000720323 -0.000756892 0)
(0.000696447 -0.000758215 0)
(0.00067367 -0.000760319 0)
(0.000651959 -0.000763033 0)
(0.000631332 -0.000766243 0)
(0.000611809 -0.000769863 0)
(0.000593228 -0.000773652 0)
(0.00107886 -0.000769353 0)
(0.00105432 -0.000765355 0)
(0.00102684 -0.000756853 0)
(0.000999031 -0.000748786 0)
(0.000971139 -0.000741477 0)
(0.000943364 -0.000734967 0)
(0.000915964 -0.000729293 0)
(0.000889144 -0.000724465 0)
(0.00086307 -0.000720455 0)
(0.000837842 -0.000717205 0)
(0.000813527 -0.000714649 0)
(0.0007902 -0.000712766 0)
(0.0007678 -0.000711427 0)
(0.000746478 -0.000710785 0)
(0.000726052 -0.000710696 0)
(0.000706498 -0.000711148 0)
(0.000687869 -0.00071216 0)
(0.000669962 -0.000713513 0)
(0.000652672 -0.000715083 0)
(0.00109915 -0.000742116 0)
(0.00107433 -0.000732254 0)
(0.0010491 -0.000722971 0)
(0.00102366 -0.000714321 0)
(0.000998202 -0.000706362 0)
(0.000972913 -0.000699139 0)
(0.00094797 -0.000692681 0)
(0.000923527 -0.000686988 0)
(0.00089971 -0.000682034 0)
(0.000876611 -0.000677782 0)
(0.0008543 -0.000674191 0)
(0.000832828 -0.000671205 0)
(0.000812233 -0.000668796 0)
(0.000792549 -0.000666896 0)
(0.000773755 -0.000665443 0)
(0.000755806 -0.000664373 0)
(0.000738607 -0.000663585 0)
(0.000722072 -0.00066301 0)
(0.000706209 -0.000662682 0)
(0.00111885 -0.000709352 0)
(0.00109582 -0.000699226 0)
(0.0010725 -0.000689491 0)
(0.00104909 -0.00068029 0)
(0.00102576 -0.00067171 0)
(0.00100265 -0.000663801 0)
(0.000979883 -0.000656586 0)
(0.000957574 -0.000650067 0)
(0.000935815 -0.000644227 0)
(0.000914679 -0.000639036 0)
(0.000894224 -0.000634457 0)
(0.000874492 -0.000630445 0)
(0.000855509 -0.000626949 0)
(0.00083729 -0.00062391 0)
(0.000819826 -0.000621264 0)
(0.000803087 -0.00061894 0)
(0.000787027 -0.000616876 0)
(0.000771605 -0.000615028 0)
(0.000756786 -0.000613341 0)
(0.00114033 -0.000677381 0)
(0.00111864 -0.000666699 0)
(0.00109691 -0.000656395 0)
(0.00107526 -0.000646601 0)
(0.0010538 -0.000637393 0)
(0.00103261 -0.000628813 0)
(0.00101178 -0.000620878 0)
(0.000991387 -0.000613588 0)
(0.000971499 -0.000606925 0)
(0.000952166 -0.000600862 0)
(0.00093343 -0.000595362 0)
(0.000915321 -0.000590382 0)
(0.000897855 -0.000585872 0)
(0.000881039 -0.000581777 0)
(0.000864866 -0.000578042 0)
(0.000849316 -0.00057461 0)
(0.000834363 -0.000571427 0)
(0.000819973 -0.000568443 0)
(0.000806111 -0.000565607 0)
(0.00116322 -0.000645838 0)
(0.00114261 -0.00063448 0)
(0.00112224 -0.000623559 0)
(0.00110211 -0.000613165 0)
(0.00108229 -0.000603349 0)
(0.0010628 -0.000594138 0)
(0.0010437 -0.00058554 0)
(0.00102503 -0.000577549 0)
(0.00100684 -0.000570144 0)
(0.000989154 -0.000563299 0)
(0.000972 -0.000556976 0)
(0.000955395 -0.000551135 0)
(0.000939351 -0.000545731 0)
(0.000923867 -0.000540716 0)
(0.000908938 -0.00053604 0)
(0.000894548 -0.000531656 0)
(0.000880678 -0.000527516 0)
(0.000867301 -0.000523576 0)
(0.000854388 -0.000519793 0)
(0.00118708 -0.00061465 0)
(0.00116747 -0.000602563 0)
(0.00114831 -0.000591007 0)
(0.00112954 -0.000580021 0)
(0.00111118 -0.000569629 0)
(0.00109321 -0.000559838 0)
(0.00107567 -0.000550643 0)
(0.00105855 -0.000542031 0)
(0.0010419 -0.000533977 0)
(0.00102571 -0.000526453 0)
(0.00101001 -0.000519423 0)
(0.000994804 -0.000512849 0)
(0.000980089 -0.00050669 0)
(0.000965865 -0.000500904 0)
(0.000952125 -0.000495447 0)
(0.000938856 -0.000490278 0)
(0.000926041 -0.000485358 0)
(0.000913661 -0.000480648 0)
(0.000901696 -0.000476115 0)
(0.00121154 -0.000583835 0)
(0.00119293 -0.000571015 0)
(0.0011749 -0.000558831 0)
(0.00115739 -0.000547279 0)
(0.00114036 -0.000536351 0)
(0.00112378 -0.000526037 0)
(0.00110764 -0.000516316 0)
(0.00109195 -0.000507166 0)
(0.0010767 -0.00049856 0)
(0.00106189 -0.000490464 0)
(0.00104753 -0.000482846 0)