/*--------------------------------*- C++ -*----------------------------------*\
| =========                 |                                                 |
| \\      /  F ield         | OpenFOAM: The Open Source CFD Toolbox           |
|  \\    /   O peration     | Version:  v2012                                 |
|   \\  /    A nd           | Website:  www.openfoam.com                      |
|    \\/     M anipulation  |                                                 |
\*---------------------------------------------------------------------------*/
FoamFile
{
    version     2.0;
    format      ascii;
    class       volScalarField;
    location    "17";
    object      sigmaEq;
}
// * * * * * * * * * * * * * * * * * * * * * * * * * * * * * * * * * * * * * //

dimensions      [1 -1 -2 0 0 0 0];


internalField   nonuniform List<scalar> 
8000
(
1.35182e+08
1.11928e+08
1.09164e+08
8.93748e+07
8.87176e+07
7.25963e+07
7.39823e+07
6.18982e+07
6.48188e+07
5.71015e+07
6.06767e+07
5.70799e+07
6.04131e+07
6.00951e+07
6.26114e+07
6.45682e+07
6.60474e+07
6.94803e+07
6.99376e+07
7.4286e+07
7.38173e+07
7.87382e+07
7.75214e+07
8.28003e+07
8.10829e+07
8.6553e+07
8.46089e+07
9.01077e+07
8.82577e+07
9.35921e+07
9.21307e+07
9.70931e+07
9.62154e+07
1.0064e+08
1.0039e+08
1.04215e+08
1.04478e+08
1.07778e+08
1.08327e+08
1.07808e+08
1.31011e+08
1.08247e+08
1.06101e+08
8.60755e+07
8.72669e+07
7.00186e+07
7.41584e+07
6.02063e+07
6.64819e+07
5.63637e+07
6.34885e+07
5.72201e+07
6.39059e+07
6.09102e+07
6.63569e+07
6.58759e+07
6.9723e+07
7.11187e+07
7.32835e+07
7.61415e+07
7.66632e+07
8.07215e+07
7.97095e+07
8.48059e+07
8.24909e+07
8.8442e+07
8.52134e+07
9.17349e+07
8.81297e+07
9.48171e+07
9.14219e+07
9.78194e+07
9.51204e+07
1.00846e+08
9.91137e+07
1.03953e+08
1.03213e+08
1.0715e+08
1.07238e+08
1.104e+08
1.27044e+08
1.03807e+08
1.03127e+08
8.19794e+07
8.56663e+07
6.67404e+07
7.42893e+07
5.82122e+07
6.84247e+07
5.58736e+07
6.69464e+07
5.80713e+07
6.83539e+07
6.27361e+07
7.12373e+07
6.83191e+07
7.45624e+07
7.38993e+07
7.76971e+07
7.90151e+07
8.03492e+07
8.34308e+07
8.24791e+07
8.71006e+07
8.42852e+07
9.01325e+07
8.60904e+07
9.27383e+07
8.82017e+07
9.51575e+07
9.07963e+07
9.75941e+07
9.38863e+07
1.00168e+08
9.736e+07
1.02908e+08
1.01058e+08
1.05797e+08
1.04819e+08
1.08798e+08
1.21067e+08
9.76391e+07
9.88016e+07
7.66764e+07
8.3279e+07
6.27432e+07
7.40931e+07
5.6007e+07
7.03281e+07
5.5567e+07
7.04533e+07
5.92689e+07
7.27562e+07
6.49082e+07
7.58596e+07
7.09824e+07
7.88281e+07
7.66198e+07
8.11904e+07
8.13232e+07
8.28244e+07
8.49734e+07
8.3943e+07
8.77556e+07
8.49192e+07
9.00174e+07
8.61076e+07
9.2091e+07
8.77369e+07
9.42126e+07
8.98672e+07
9.64676e+07
9.24415e+07
9.887e+07
9.53577e+07
1.01386e+08
9.85002e+07
1.03987e+08
1.01781e+08
1.06656e+08
1.13116e+08
8.97334e+07
9.29682e+07
7.01291e+07
7.992e+07
5.80784e+07
7.33068e+07
5.36519e+07
7.16962e+07
5.53178e+07
7.31551e+07
6.04451e+07
7.5906e+07
6.67878e+07
7.86894e+07
7.28201e+07
8.07988e+07
7.76811e+07
8.20805e+07
8.12502e+07
8.28052e+07
8.39e+07
8.3387e+07
8.61229e+07
8.41626e+07
8.82538e+07
8.53121e+07
9.04405e+07
8.68648e+07
9.26893e+07
8.87761e+07
9.49711e+07
9.09683e+07
9.72539e+07
9.33797e+07
9.95337e+07
9.59548e+07
1.01824e+08
9.86551e+07
1.0413e+08
1.0326e+08
8.01942e+07
8.56255e+07
6.24185e+07
7.54413e+07
5.29399e+07
7.15073e+07
5.13854e+07
7.17388e+07
5.52594e+07
7.39265e+07
6.15195e+07
7.64085e+07
6.76637e+07
7.82599e+07
7.23576e+07
7.9348e+07
7.571e+07
8.00398e+07
7.8421e+07
8.07397e+07
8.10128e+07
8.16789e+07
8.3634e+07
8.28963e+07
8.62447e+07
8.43553e+07
8.87613e+07
8.59884e+07
9.1134e+07
8.77453e+07
9.33498e+07
8.96066e+07
9.5447e+07
9.1563e+07
9.74592e+07
9.36221e+07
9.94325e+07
9.57741e+07
1.01393e+08
9.15514e+07
6.89964e+07
7.66712e+07
5.36139e+07
6.94854e+07
4.77815e+07
6.79578e+07
4.99992e+07
6.93585e+07
5.61979e+07
7.14718e+07
6.2188e+07
7.31089e+07
6.61854e+07
7.42617e+07
6.90977e+07
7.53908e+07
7.20402e+07
7.67636e+07
7.52777e+07
7.83831e+07
7.85987e+07
8.01267e+07
8.17904e+07
8.1889e+07
8.47132e+07
8.3599e+07
8.73189e+07
8.52289e+07
8.96071e+07
8.68092e+07
9.16633e+07
8.83669e+07
9.35348e+07
8.9948e+07
9.52899e+07
9.15721e+07
9.6973e+07
9.32623e+07
9.86242e+07
7.79972e+07
5.58118e+07
6.57718e+07
4.3876e+07
6.13288e+07
4.38663e+07
6.16178e+07
5.10946e+07
6.3465e+07
5.73146e+07
6.52192e+07
6.04132e+07
6.70136e+07
6.3094e+07
6.92317e+07
6.64871e+07
7.18006e+07
7.03466e+07
7.44465e+07
7.41423e+07
7.69658e+07
7.76733e+07
7.92535e+07
8.08491e+07
8.12649e+07
8.36277e+07
8.30008e+07
8.60164e+07
8.4542e+07
8.8118e+07
8.59337e+07
8.99585e+07
8.7249e+07
9.16189e+07
8.85314e+07
9.31447e+07
8.98226e+07
9.45881e+07
9.11562e+07
9.59875e+07
6.24353e+07
3.99625e+07
5.22425e+07
3.4738e+07
4.99983e+07
4.33584e+07
5.16808e+07
5.08833e+07
5.44522e+07
5.42851e+07
5.81517e+07
5.85078e+07
6.24905e+07
6.30573e+07
6.67466e+07
6.80205e+07
7.06261e+07
7.19827e+07
7.39523e+07
7.5362e+07
7.67457e+07
7.82542e+07
7.90679e+07
8.0792e+07
8.09578e+07
8.29662e+07
8.2576e+07
8.49733e+07
8.39422e+07
8.67298e+07
8.51553e+07
8.83136e+07
8.62624e+07
8.97449e+07
8.73187e+07
9.10776e+07
8.83769e+07
9.23427e+07
8.94522e+07
9.35608e+07
4.43539e+07
2.26168e+07
3.54398e+07
3.26114e+07
3.61609e+07
3.95863e+07
4.28908e+07
3.84853e+07
4.77377e+07
4.28788e+07
5.0495e+07
4.8392e+07
5.46797e+07
5.3826e+07
5.92153e+07
5.91272e+07
6.40683e+07
6.4085e+07
6.89302e+07
6.8744e+07
7.36896e+07
7.32974e+07
7.80326e+07
7.83289e+07
7.99027e+07
8.27421e+07
8.15175e+07
8.44351e+07
8.28871e+07
8.56838e+07
8.40461e+07
8.68559e+07
8.50655e+07
8.79741e+07
8.60406e+07
8.9073e+07
8.69816e+07
9.01574e+07
8.79266e+07
9.12456e+07
2.34853e+07
2.1072e+07
2.30407e+07
2.14286e+07
2.93835e+07
2.6173e+07
3.3061e+07
3.14584e+07
3.76992e+07
3.67494e+07
4.24187e+07
4.20724e+07
4.71177e+07
4.72708e+07
5.17771e+07
5.22381e+07
5.62909e+07
5.6907e+07
6.05823e+07
6.12818e+07
6.46408e+07
6.53995e+07
6.86186e+07
6.91766e+07
7.21093e+07
7.29133e+07
7.624e+07
7.62513e+07
7.97274e+07
7.95322e+07
8.19221e+07
8.27018e+07
8.2988e+07
8.5355e+07
8.39958e+07
8.73507e+07
8.49883e+07
8.816e+07
8.60025e+07
8.90368e+07
1.53074e+07
1.25038e+07
1.74788e+07
1.76284e+07
2.23871e+07
2.23244e+07
2.69232e+07
2.70487e+07
3.14408e+07
3.1901e+07
3.60502e+07
3.68384e+07
4.07118e+07
4.17424e+07
4.53435e+07
4.65144e+07
4.98648e+07
5.10851e+07
5.42216e+07
5.54148e+07
5.8391e+07
5.947e+07
6.23156e+07
6.32421e+07
6.60688e+07
6.66874e+07
6.95086e+07
6.97718e+07
7.26102e+07
7.24949e+07
7.53704e+07
7.48585e+07
7.76282e+07
7.69575e+07
7.95639e+07
7.89054e+07
8.16625e+07
8.06345e+07
8.32685e+07
8.23024e+07
1.2567e+07
1.32852e+07
1.52774e+07
1.60276e+07
1.87342e+07
1.96075e+07
2.25566e+07
2.37128e+07
2.67021e+07
2.81514e+07
3.10896e+07
3.27626e+07
3.56084e+07
3.74058e+07
4.01468e+07
4.19715e+07
4.46124e+07
4.63788e+07
4.89357e+07
5.05705e+07
5.30632e+07
5.4507e+07
5.69647e+07
5.81528e+07
6.05887e+07
6.14863e+07
6.39119e+07
6.44855e+07
6.68877e+07
6.71458e+07
6.94863e+07
6.94864e+07
7.17404e+07
7.15389e+07
7.37298e+07
7.33176e+07
7.54469e+07
7.48247e+07
7.69098e+07
7.60392e+07
1.28869e+07
1.2729e+07
1.37622e+07
1.46065e+07
1.61809e+07
1.76581e+07
1.94912e+07
2.14121e+07
2.33547e+07
2.55645e+07
2.75446e+07
2.99084e+07
3.18928e+07
3.42951e+07
3.627e+07
3.86165e+07
4.05778e+07
4.27935e+07
4.47418e+07
4.6769e+07
4.87075e+07
5.05013e+07
5.24309e+07
5.39611e+07
5.58785e+07
5.7129e+07
5.90262e+07
5.99933e+07
6.18531e+07
6.25532e+07
6.43567e+07
6.48162e+07
6.65472e+07
6.67949e+07
6.84347e+07
6.85041e+07
7.0035e+07
6.99558e+07
7.13244e+07
7.11717e+07
1.14136e+07
1.09725e+07
1.22119e+07
1.30667e+07
1.44753e+07
1.62417e+07
1.76477e+07
1.99739e+07
2.13591e+07
2.39907e+07
2.53659e+07
2.81251e+07
2.95015e+07
3.22615e+07
3.36455e+07
3.63146e+07
3.77089e+07
4.02211e+07
4.16248e+07
4.39337e+07
4.53429e+07
4.7418e+07
4.88261e+07
5.06503e+07
5.20472e+07
5.36154e+07
5.49889e+07
5.63057e+07
5.7641e+07
5.87205e+07
6.00009e+07
6.08653e+07
6.20719e+07
6.27516e+07
6.38641e+07
6.43963e+07
6.53918e+07
6.58218e+07
6.66748e+07
6.70564e+07
8.57866e+06
8.35107e+06
1.02993e+07
1.14214e+07
1.31819e+07
1.5172e+07
1.66152e+07
1.91198e+07
2.03421e+07
2.3123e+07
2.42163e+07
2.71079e+07
2.81333e+07
3.10183e+07
3.20122e+07
3.48072e+07
3.57889e+07
3.84355e+07
3.94128e+07
4.18721e+07
4.28452e+07
4.50933e+07
4.60575e+07
4.80825e+07
4.90292e+07
5.08294e+07
5.17476e+07
5.3329e+07
5.42064e+07
5.55815e+07
5.64047e+07
5.75926e+07
5.83481e+07
5.93731e+07
6.00485e+07
6.094e+07
6.15252e+07
6.23165e+07
6.28029e+07
6.35312e+07
4.9308e+06
5.52165e+06
8.34787e+06
1.00434e+07
1.22101e+07
1.44598e+07
1.60696e+07
1.86622e+07
1.98989e+07
2.26869e+07
2.36865e+07
2.65545e+07
2.74075e+07
3.02658e+07
3.103e+07
3.38111e+07
3.4521e+07
3.71764e+07
3.78512e+07
4.03483e+07
4.09961e+07
4.33149e+07
4.39367e+07
4.6068e+07
4.66598e+07
4.86023e+07
4.91571e+07
5.09159e+07
5.14251e+07
5.30097e+07
5.34647e+07
5.48878e+07
5.5282e+07
5.6558e+07
5.68884e+07
5.80329e+07
5.83016e+07
5.93327e+07
5.95446e+07
6.04875e+07
2.31323e+06
4.4137e+06
7.31132e+06
9.57861e+06
1.17942e+07
1.4259e+07
1.59103e+07
1.8541e+07
1.97834e+07
2.252e+07
2.34768e+07
2.6254e+07
2.70149e+07
2.97736e+07
3.04009e+07
3.30925e+07
3.36278e+07
3.62155e+07
3.6685e+07
3.91432e+07
3.95619e+07
4.1875e+07
4.22498e+07
4.44106e+07
4.47426e+07
4.67506e+07
4.70368e+07
4.88966e+07
4.91316e+07
5.08507e+07
5.10289e+07
5.26147e+07
5.2733e+07
5.41905e+07
5.42513e+07
5.55802e+07
5.55964e+07
5.67917e+07
5.67887e+07
5.78519e+07
5.63963e+06
6.92637e+06
8.29131e+06
1.05352e+07
1.22534e+07
1.47339e+07
1.61841e+07
1.87751e+07
1.99126e+07
2.25603e+07
2.34358e+07
2.60958e+07
2.6769e+07
2.94011e+07
2.99228e+07
3.24928e+07
3.29017e+07
3.53827e+07
3.57067e+07
3.80797e+07
3.83373e+07
4.05909e+07
4.07935e+07
4.29231e+07
4.30764e+07
4.50833e+07
4.51883e+07
4.70782e+07
4.71326e+07
4.89142e+07
4.89128e+07
5.05949e+07
5.05324e+07
5.21184e+07
5.19937e+07
5.34725e+07
5.33005e+07
5.46317e+07
5.44657e+07
5.55771e+07
1.05518e+07
1.10334e+07
1.10814e+07
1.27884e+07
1.37047e+07
1.59383e+07
1.69668e+07
1.94019e+07
2.0298e+07
2.28079e+07
2.35232e+07
2.60452e+07
2.65914e+07
2.9085e+07
2.94894e+07
3.1925e+07
3.22151e+07
3.45707e+07
3.47704e+07
3.70305e+07
3.71587e+07
3.93136e+07
3.93847e+07
4.14302e+07
4.14551e+07
4.33917e+07
4.33784e+07
4.52111e+07
4.51652e+07
4.69034e+07
4.6828e+07
4.84839e+07
4.83801e+07
4.99656e+07
4.98333e+07
5.13458e+07
5.11964e+07
5.25613e+07
5.24869e+07
5.3326e+07
1.56738e+07
1.55591e+07
1.47898e+07
1.58582e+07
1.59903e+07
1.77903e+07
1.82818e+07
2.04386e+07
2.0983e+07
2.32921e+07
2.37644e+07
2.61209e+07
2.64831e+07
2.88288e+07
2.90785e+07
3.13774e+07
3.15249e+07
3.37527e+07
3.38116e+07
3.59516e+07
3.59345e+07
3.79753e+07
3.78922e+07
3.98263e+07
3.9684e+07
4.15072e+07
4.13085e+07
4.30197e+07
4.27618e+07
4.43638e+07
4.40349e+07
4.55383e+07
4.51085e+07
4.65439e+07
4.59388e+07
4.73963e+07
4.64178e+07
4.81838e+07
4.62394e+07
4.93013e+07
2.07951e+07
2.01808e+07
1.88788e+07
1.93557e+07
1.8845e+07
2.01377e+07
2.00816e+07
2.18711e+07
2.20025e+07
2.40526e+07
2.42169e+07
2.63836e+07
2.65069e+07
2.87067e+07
2.87593e+07
3.09432e+07
3.09171e+07
3.30555e+07
3.29518e+07
3.50271e+07
3.485e+07
3.68525e+07
3.66061e+07
3.85324e+07
3.82187e+07
4.00711e+07
3.96893e+07
4.14761e+07
4.10212e+07
4.27588e+07
4.22212e+07
4.39371e+07
4.33038e+07
4.50408e+07
4.43078e+07
4.61197e+07
4.53523e+07
4.72417e+07
4.68458e+07
4.83971e+07
2.58264e+07
2.47709e+07
2.30955e+07
2.30456e+07
2.2036e+07
2.28174e+07
2.22668e+07
2.36388e+07
2.33482e+07
2.5087e+07
2.49106e+07
2.68521e+07
2.67008e+07
2.8738e+07
2.85642e+07
3.06309e+07
3.04114e+07
3.24676e+07
3.2193e+07
3.42153e+07
3.38829e+07
3.58587e+07
3.54689e+07
3.73935e+07
3.6948e+07
3.88225e+07
3.83236e+07
4.01539e+07
3.96056e+07
4.14005e+07
4.08115e+07
4.25799e+07
4.19707e+07
4.37127e+07
4.31281e+07
4.48158e+07
4.43328e+07
4.58876e+07
4.55249e+07
4.69025e+07
3.07179e+07
2.92632e+07
2.73114e+07
2.67913e+07
2.53978e+07
2.56938e+07
2.47249e+07
2.56623e+07
2.49778e+07
2.63674e+07
2.5848e+07
2.75265e+07
2.7086e+07
2.8932e+07
2.85153e+07
3.0446e+07
3.00211e+07
3.1983e+07
3.15329e+07
3.34925e+07
3.30094e+07
3.49467e+07
3.44287e+07
3.63326e+07
3.57815e+07
3.76463e+07
3.70677e+07
3.88904e+07
3.82936e+07
4.00711e+07
3.94707e+07
4.11959e+07
4.06126e+07
4.22704e+07
4.17274e+07
4.32943e+07
4.28047e+07
4.42613e+07
4.38293e+07
4.51619e+07
3.54389e+07
3.36175e+07
3.14533e+07
3.05091e+07
2.88185e+07
2.8664e+07
2.73525e+07
2.78603e+07
2.68293e+07
2.78482e+07
2.70066e+07
2.83887e+07
2.7663e+07
2.92838e+07
2.86207e+07
3.0386e+07
2.97504e+07
3.15933e+07
3.09641e+07
3.28392e+07
3.22052e+07
3.40821e+07
3.34391e+07
3.52978e+07
3.46463e+07
3.64729e+07
3.58176e+07
3.76015e+07
3.695e+07
3.86811e+07
3.80431e+07
3.97107e+07
3.90963e+07
4.06888e+07
4.01054e+07
4.16124e+07
4.10639e+07
4.24777e+07
4.19645e+07
4.32812e+07
3.99685e+07
3.78063e+07
3.54751e+07
3.41438e+07
3.22214e+07
3.16509e+07
3.00641e+07
3.01584e+07
2.88345e+07
2.94753e+07
2.83463e+07
2.94072e+07
2.84146e+07
2.97777e+07
2.88755e+07
3.04418e+07
2.95969e+07
3.12896e+07
3.04798e+07
3.22423e+07
3.14542e+07
3.32456e+07
3.24726e+07
3.42637e+07
3.35039e+07
3.52733e+07
3.4528e+07
3.62595e+07
3.55321e+07
3.72126e+07
3.65074e+07
3.8126e+07
3.74467e+07
3.89947e+07
3.8344e+07
3.9815e+07
3.91937e+07
4.0584e+07
3.99913e+07
4.12996e+07
4.42904e+07
4.18083e+07
3.93441e+07
3.76556e+07
3.55519e+07
3.45963e+07
3.27911e+07
3.24923e+07
3.09283e+07
3.11933e+07
2.98185e+07
3.05426e+07
2.93117e+07
3.03894e+07
2.92653e+07
3.05999e+07
2.95538e+07
3.10636e+07
3.00751e+07
3.16951e+07
3.07503e+07
3.24304e+07
3.1521e+07
3.32238e+07
3.23454e+07
3.40428e+07
3.31936e+07
3.48646e+07
3.40447e+07
3.56735e+07
3.48834e+07
3.64582e+07
3.56986e+07
3.7211e+07
3.64823e+07
3.79265e+07
3.72282e+07
3.86012e+07
3.79323e+07
3.92331e+07
4.83897e+07
4.56048e+07
4.30352e+07
4.10138e+07
3.8769e+07
3.7455e+07
3.54791e+07
3.48085e+07
3.30528e+07
3.29506e+07
3.13731e+07
3.17535e+07
3.03185e+07
3.10905e+07
2.97689e+07
3.0843e+07
2.96115e+07
3.09067e+07
2.97477e+07
3.11945e+07
3.00952e+07
3.16373e+07
3.05889e+07
3.21819e+07
3.11787e+07
3.27884e+07
3.18268e+07
3.34274e+07
3.25052e+07
3.40775e+07
3.31933e+07
3.47232e+07
3.3876e+07
3.53537e+07
3.45424e+07
3.59612e+07
3.51848e+07
3.65408e+07
3.5798e+07
3.70892e+07
5.22518e+07
4.91791e+07
4.65271e+07
4.41934e+07
4.18406e+07
4.01912e+07
3.80848e+07
3.70629e+07
3.51588e+07
3.47013e+07
3.29631e+07
3.29993e+07
3.13975e+07
3.18505e+07
3.03616e+07
3.11522e+07
2.97576e+07
3.08096e+07
2.94951e+07
3.07391e+07
2.94941e+07
3.08703e+07
2.96868e+07
3.11461e+07
3.00183e+07
3.15212e+07
3.04449e+07
3.19608e+07
3.09329e+07
3.24385e+07
3.14566e+07
3.29348e+07
3.1997e+07
3.34352e+07
3.25399e+07
3.39294e+07
3.3075e+07
3.44102e+07
3.35952e+07
3.48726e+07
5.58615e+07
5.25147e+07
4.98011e+07
4.71727e+07
4.47404e+07
4.27756e+07
4.05735e+07
3.92191e+07
3.72053e+07
3.6406e+07
3.4547e+07
3.42433e+07
3.25126e+07
3.26398e+07
3.10173e+07
3.15074e+07
2.99778e+07
3.07621e+07
2.93141e+07
3.0327e+07
2.89524e+07
3.01342e+07
2.88266e+07
3.01256e+07
2.88801e+07
3.02531e+07
2.90661e+07
3.04781e+07
2.93466e+07
3.07702e+07
2.96917e+07
3.11058e+07
3.00781e+07
3.1467e+07
3.04883e+07
3.18406e+07
3.09091e+07
3.22167e+07
3.13309e+07
3.25883e+07
5.92035e+07
5.55957e+07
5.28395e+07
4.99327e+07
4.74461e+07
4.51839e+07
4.29167e+07
4.12475e+07
3.91587e+07
3.8032e+07
3.60891e+07
3.5453e+07
3.36309e+07
3.34307e+07
3.17104e+07
3.18884e+07
3.02563e+07
3.0753e+07
2.91996e+07
2.99556e+07
2.84744e+07
2.94332e+07
2.80197e+07
2.91296e+07
2.77805e+07
2.89966e+07
2.77094e+07
2.89934e+07
2.77659e+07
2.90866e+07
2.7917e+07
2.92496e+07
2.81361e+07
2.94612e+07
2.84022e+07
2.97051e+07
2.86991e+07
2.99689e+07
2.90144e+07
3.02431e+07
6.22623e+07
5.84071e+07
5.56265e+07
5.24566e+07
4.99387e+07
4.7396e+07
4.50912e+07
4.31239e+07
4.09917e+07
3.95518e+07
3.75596e+07
3.66007e+07
3.47232e+07
3.41979e+07
3.24163e+07
3.22759e+07
3.05766e+07
3.07704e+07
2.91445e+07
2.96208e+07
2.80625e+07
2.87704e+07
2.72764e+07
2.81671e+07
2.67355e+07
2.77643e+07
2.63941e+07
2.75213e+07
2.62116e+07
2.74035e+07
2.61535e+07
2.73817e+07
2.61907e+07
2.74323e+07
2.62993e+07
2.75362e+07
2.64603e+07
2.76783e+07
2.66586e+07
2.78468e+07
6.50227e+07
6.09344e+07
5.81471e+07
5.47296e+07
5.22022e+07
4.93949e+07
4.7078e+07
4.48284e+07
4.26816e+07
4.09429e+07
3.89335e+07
3.76622e+07
3.57643e+07
3.49187e+07
3.31124e+07
3.26508e+07
3.09217e+07
3.08015e+07
2.91398e+07
2.93172e+07
2.77169e+07
2.81477e+07
2.66056e+07
2.72461e+07
2.57611e+07
2.65693e+07
2.51412e+07
2.60783e+07
2.47076e+07
2.57387e+07
2.44259e+07
2.55205e+07
2.42661e+07
2.53983e+07
2.42025e+07
2.53508e+07
2.42137e+07
2.53607e+07
2.42821e+07
2.54139e+07
6.74698e+07
6.31643e+07
6.0388e+07
5.67391e+07
5.42227e+07
5.11668e+07
4.88615e+07
4.63447e+07
4.42103e+07
4.21861e+07
4.01897e+07
3.86167e+07
3.67318e+07
3.5572e+07
3.37773e+07
3.29946e+07
3.12741e+07
3.08324e+07
2.91747e+07
2.90375e+07
2.74352e+07
2.75653e+07
2.60142e+07
2.63742e+07
2.48726e+07
2.54253e+07
2.39732e+07
2.46828e+07
2.32812e+07
2.41139e+07
2.27644e+07
2.36893e+07
2.23935e+07
2.3383e+07
2.21424e+07
2.31726e+07
2.19883e+07
2.30386e+07
2.19121e+07
2.29653e+07
6.9589e+07
6.50852e+07
6.23378e+07
5.84753e+07
5.59893e+07
5.27008e+07
5.0429e+07
4.76589e+07
4.55621e+07
4.32639e+07
4.13096e+07
3.94438e+07
3.76047e+07
3.61366e+07
3.439e+07
3.32876e+07
3.16155e+07
3.08477e+07
2.92365e+07
2.87727e+07
2.72126e+07
2.7022e+07
2.55069e+07
2.55583e+07
2.40849e+07
2.4347e+07
2.29142e+07
2.3356e+07
2.19644e+07
2.25554e+07
2.12065e+07
2.19178e+07
2.06137e+07
2.14181e+07
2.01611e+07
2.10336e+07
1.9826e+07
2.07442e+07
1.95884e+07
2.05321e+07
7.13665e+07
6.66883e+07
6.39885e+07
5.99323e+07
5.74947e+07
5.39881e+07
5.17702e+07
4.87559e+07
4.67216e+07
4.41553e+07
4.2273e+07
4.01196e+07
3.83604e+07
3.65887e+07
3.49279e+07
3.35086e+07
3.19259e+07
3.08309e+07
2.93104e+07
2.85126e+07
2.70423e+07
2.65155e+07
2.50868e+07
2.48052e+07
2.34123e+07
2.33504e+07
2.19902e+07
2.21226e+07
2.07939e+07
2.10953e+07
1.97985e+07
2.02441e+07
1.89802e+07
1.95459e+07
1.83167e+07
1.89793e+07
1.77867e+07
1.8524e+07
1.73708e+07
1.81611e+07
7.27896e+07
6.79711e+07
6.53378e+07
6.11088e+07
5.87349e+07
5.50145e+07
5.28715e+07
4.96056e+07
4.76647e+07
4.48266e+07
4.30518e+07
4.06131e+07
3.89717e+07
3.69021e+07
3.5367e+07
3.36365e+07
3.21857e+07
3.07664e+07
2.93824e+07
2.82486e+07
2.69174e+07
2.60453e+07
2.47563e+07
2.41236e+07
2.28689e+07
2.24546e+07
2.12285e+07
2.10124e+07
1.98113e+07
1.97737e+07
1.85956e+07
1.87172e+07
1.75609e+07
1.78231e+07
1.66879e+07
1.70724e+07
1.59573e+07
1.64462e+07
1.53505e+07
1.59241e+07
7.38527e+07
6.89495e+07
6.63963e+07
6.19968e+07
5.97009e+07
5.57038e+07
5.36865e+07
5.01377e+07
4.83422e+07
4.52278e+07
4.3607e+07
4.08915e+07
3.94101e+07
3.70556e+07
3.56868e+07
3.36582e+07
3.23806e+07
3.06475e+07
2.94437e+07
2.79795e+07
2.68354e+07
2.56168e+07
2.45208e+07
2.35272e+07
2.247e+07
2.1683e+07
2.06573e+07
2.00601e+07
1.90603e+07
1.86375e+07
1.76592e+07
1.73968e+07
1.64362e+07
1.63215e+07
1.53745e+07
1.53963e+07
1.44568e+07
1.46055e+07
1.3663e+07
1.39297e+07
7.45956e+07
6.97096e+07
6.72015e+07
6.22778e+07
6.02384e+07
5.58696e+07
5.40956e+07
5.0267e+07
4.86887e+07
4.53265e+07
4.39081e+07
4.09474e+07
3.96639e+07
3.70532e+07
3.58849e+07
3.35829e+07
3.25128e+07
3.0486e+07
2.94994e+07
2.77198e+07
2.6804e+07
2.52478e+07
2.43921e+07
2.30388e+07
2.2234e+07
2.10658e+07
2.03044e+07
1.93055e+07
1.85817e+07
1.77384e+07
1.70473e+07
1.63478e+07
1.56854e+07
1.51204e+07
1.44822e+07
1.40455e+07
1.34237e+07
1.31143e+07
1.24894e+07
1.23151e+07
7.55136e+07
6.83549e+07
6.69616e+07
6.14829e+07
6.0018e+07
5.54299e+07
5.40098e+07
5.00241e+07
4.87051e+07
4.51818e+07
4.39851e+07
4.08415e+07
3.97696e+07
3.69495e+07
3.59963e+07
3.34578e+07
3.26132e+07
3.03232e+07
2.95762e+07
2.75072e+07
2.68469e+07
2.49752e+07
2.43921e+07
2.2697e+07
2.2183e+07
2.06454e+07
2.01947e+07
1.87966e+07
1.84057e+07
1.71298e+07
1.6798e+07
1.56271e+07
1.53574e+07
1.42739e+07
1.40734e+07
1.30617e+07
1.29414e+07
1.19936e+07
1.19649e+07
1.1102e+07
1.16526e+07
9.12224e+06
1.22456e+07
9.64566e+06
1.38715e+07
1.10221e+07
1.60043e+07
1.29075e+07
1.84189e+07
1.50692e+07
2.09853e+07
1.73686e+07
2.36233e+07
1.97244e+07
2.6282e+07
2.20876e+07
2.89279e+07
2.44278e+07
3.15384e+07
2.67257e+07
3.40983e+07
2.89699e+07
3.65973e+07
3.11544e+07
3.90286e+07
3.32778e+07
4.1388e+07
3.53426e+07
4.36716e+07
3.73546e+07
4.58747e+07
3.9323e+07
4.7986e+07
4.12589e+07
4.99781e+07
4.31728e+07
5.17787e+07
4.50658e+07
5.31731e+07
4.69017e+07
9.46093e+06
7.49939e+06
1.04436e+07
8.30305e+06
1.23259e+07
9.97039e+06
1.46966e+07
1.21131e+07
1.73124e+07
1.44824e+07
2.00437e+07
1.69463e+07
2.28179e+07
1.94338e+07
2.55912e+07
2.19039e+07
2.83357e+07
2.43313e+07
3.10329e+07
2.67002e+07
3.36704e+07
2.90007e+07
3.62401e+07
3.12274e+07
3.87368e+07
3.33782e+07
4.11574e+07
3.54536e+07
4.34996e+07
3.74563e+07
4.57605e+07
3.93905e+07
4.79327e+07
4.12601e+07
4.9998e+07
4.30663e+07
5.19089e+07
4.47985e+07
5.35294e+07
4.6408e+07
7.9182e+06
6.39862e+06
9.16555e+06
7.44321e+06
1.12411e+07
9.32993e+06
1.37589e+07
1.16358e+07
1.6485e+07
1.41228e+07
1.92995e+07
1.66741e+07
2.21377e+07
1.92287e+07
2.49621e+07
2.1752e+07
2.77489e+07
2.42226e+07
3.04828e+07
2.66268e+07
3.31533e+07
2.8956e+07
3.57537e+07
3.1205e+07
3.82801e+07
3.33715e+07
4.07303e+07
3.54553e+07
4.3103e+07
3.74581e+07
4.53972e+07
3.93825e+07
4.76092e+07
4.12312e+07
4.9729e+07
4.3005e+07
5.17295e+07
4.46983e+07
5.35334e+07
4.62844e+07
6.90858e+06
5.76185e+06
8.31566e+06
6.97415e+06
1.05089e+07
8.99125e+06
1.30968e+07
1.13769e+07
1.58636e+07
1.39128e+07
1.87011e+07
1.64958e+07
2.15523e+07
1.90727e+07
2.43838e+07
2.16127e+07
2.71747e+07
2.40967e+07
2.99113e+07
2.65121e+07
3.25846e+07
2.88508e+07
3.51886e+07
3.11077e+07
3.77199e+07
3.32803e+07
4.0177e+07
3.53681e+07
4.25595e+07
3.73721e+07
4.48674e+07
3.92942e+07
4.70998e+07
4.11369e+07
4.9252e+07
4.29017e+07
5.13097e+07
4.45866e+07
5.32305e+07
4.61781e+07
6.3525e+06
5.52372e+06
7.81945e+06
6.8141e+06
1.00492e+07
8.87297e+06
1.26424e+07
1.12707e+07
1.53973e+07
1.38045e+07
1.82151e+07
1.63799e+07
2.10434e+07
1.89475e+07
2.38515e+07
2.14786e+07
2.66199e+07
2.39549e+07
2.93358e+07
2.63643e+07
3.19907e+07
2.86986e+07
3.45791e+07
3.09527e+07
3.70978e+07
3.31238e+07
3.95455e+07
3.52109e+07
4.19223e+07
3.72145e+07
4.4229e+07
3.91364e+07
4.64661e+07
4.09788e+07
4.86324e+07
4.27436e+07
5.07213e+07
4.4431e+07
5.27103e+07
4.60347e+07
6.17541e+06
5.60519e+06
7.61332e+06
6.89205e+06
9.80479e+06
8.91906e+06
1.235e+07
1.12768e+07
1.50536e+07
1.37711e+07
1.78207e+07
1.63103e+07
2.06008e+07
1.88459e+07
2.33638e+07
2.13494e+07
2.60909e+07
2.38025e+07
2.87693e+07
2.61928e+07
3.13907e+07
2.85119e+07
3.39495e+07
3.07545e+07
3.64427e+07
3.29172e+07
3.88688e+07
3.49988e+07
4.12282e+07
3.69993e+07
4.35219e+07
3.89202e+07
4.57515e+07
4.07635e+07
4.79177e+07
4.25316e+07
5.00184e+07
4.42258e+07
5.20428e+07
4.58438e+07
6.29793e+06
5.92453e+06
7.64196e+06
7.1509e+06
9.73566e+06
9.09318e+06
1.2191e+07
1.13727e+07
1.48132e+07
1.37996e+07
1.75066e+07
1.6281e+07
2.02196e+07
1.87673e+07
2.29217e+07
2.12288e+07
2.55936e+07
2.36463e+07
2.82221e+07
2.60069e+07
3.07986e+07
2.83018e+07
3.33174e+07
3.05251e+07
3.5775e+07
3.26731e+07
3.81701e+07
3.47441e+07
4.05028e+07
3.67378e+07
4.27743e+07
3.86553e+07
4.49865e+07
4.04985e+07
4.71415e+07
4.22697e+07
4.92397e+07
4.39711e+07
5.1277e+07
4.5603e+07
6.64356e+06
6.41288e+06
7.85831e+06
7.54795e+06
9.81366e+06
9.37239e+06
1.21477e+07
1.15465e+07
1.46653e+07
1.38848e+07
1.72671e+07
1.62917e+07
1.98986e+07
1.87147e+07
2.25276e+07
2.11222e+07
2.51335e+07
2.34939e+07
2.77025e+07
2.58158e+07
3.02252e+07
2.80785e+07
3.26955e+07
3.02755e+07
3.51097e+07
3.24026e+07
3.74661e+07
3.44576e+07
3.97644e+07
3.644e+07
4.2006e+07
3.83503e+07
4.41928e+07
4.01904e+07
4.63275e+07
4.19625e+07
4.84121e+07
4.36693e+07
5.04463e+07
4.53126e+07
7.14926e+06
7.02033e+06
8.22373e+06
8.05252e+06
1.00182e+07
9.74174e+06
1.22092e+07
1.17923e+07
1.46045e+07
1.40259e+07
1.71004e+07
1.63446e+07
1.96388e+07
1.86927e+07
2.21847e+07
2.10362e+07
2.47159e+07
2.33531e+07
2.72174e+07
2.56282e+07
2.9679e+07
2.78513e+07
3.2094e+07
3.00152e+07
3.4458e+07
3.21153e+07
3.67691e+07
3.41487e+07
3.90266e+07
3.61146e+07
4.12316e+07
3.80132e+07
4.33861e+07
3.9846e+07
4.54928e+07
4.16152e+07
4.75548e+07
4.33238e+07
4.95738e+07
4.49742e+07
7.76891e+06
7.71335e+06
8.70745e+06
8.64252e+06
1.03331e+07
1.01904e+07
1.23679e+07
1.21065e+07
1.46278e+07
1.42237e+07
1.70065e+07
1.64433e+07
1.94421e+07
1.87066e+07
2.18966e+07
2.09772e+07
2.43456e+07
2.32311e+07
2.67728e+07
2.54521e+07
2.91669e+07
2.76287e+07
3.15205e+07
2.9753e+07
3.38286e+07
3.18198e+07
3.60886e+07
3.38259e+07
3.82995e+07
3.57698e+07
4.04621e+07
3.76514e+07
4.25781e+07
3.94719e+07
4.46503e+07
4.12334e+07
4.66819e+07
4.29388e+07
4.86762e+07
4.4591e+07
8.47062e+06
8.46951e+06
9.28521e+06
9.30139e+06
1.07445e+07
1.07095e+07
1.26172e+07
1.24863e+07
1.47331e+07
1.44791e+07
1.69859e+07
1.6591e+07
1.93106e+07
1.87612e+07
2.16664e+07
2.0951e+07
2.40268e+07
2.31346e+07
2.63736e+07
2.52944e+07
2.86946e+07
2.74179e+07
3.09813e+07
2.94964e+07
3.32282e+07
3.1524e+07
3.5432e+07
3.34968e+07
3.75912e+07
3.5413e+07
3.97061e+07
3.72721e+07
4.17781e+07
3.90748e+07
4.38097e+07
4.0823e+07
4.58044e+07
4.25195e+07
4.77658e+07
4.41674e+07
9.23246e+06
9.27311e+06
9.93778e+06
1.0016e+07
1.12397e+07
1.12906e+07
1.29506e+07
1.29278e+07
1.4918e+07
1.47919e+07
1.70386e+07
1.67897e+07
1.9246e+07
1.88599e+07
2.1497e+07
2.09622e+07
2.37629e+07
2.3069e+07
2.6024e+07
2.51613e+07
2.82667e+07
2.72255e+07
3.04817e+07
2.92522e+07
3.26625e+07
3.12346e+07
3.48053e+07
3.31684e+07
3.6908e+07
3.50512e+07
3.89703e+07
3.6882e+07
4.09932e+07
3.86612e+07
4.2979e+07
4.03903e+07
4.49308e+07
4.20718e+07
4.68525e+07
4.37089e+07
1.00388e+07
1.01124e+07
1.06495e+07
1.07753e+07
1.18067e+07
1.19253e+07
1.33607e+07
1.34264e+07
1.51787e+07
1.51604e+07
1.71636e+07
1.70402e+07
1.92489e+07
1.90053e+07
2.139e+07
2.10143e+07
2.35564e+07
2.30385e+07
2.5727e+07
2.50575e+07
2.78868e+07
2.70568e+07
3.00256e+07
2.90259e+07
3.21359e+07
3.09576e+07
3.42133e+07
3.28468e+07
3.62551e+07
3.46905e+07
3.82603e+07
3.64873e+07
4.02295e+07
3.82372e+07
4.21646e+07
3.99413e+07
4.40683e+07
4.16017e+07
4.59443e+07
4.32214e+07
1.08778e+07
1.09779e+07
1.14075e+07
1.15695e+07
1.24338e+07
1.26051e+07
1.38391e+07
1.39761e+07
1.55103e+07
1.55815e+07
1.73582e+07
1.73415e+07
1.93185e+07
1.91979e+07
2.13459e+07
2.11093e+07
2.34088e+07
2.3046e+07
2.54847e+07
2.49866e+07
2.75576e+07
2.69158e+07
2.96159e+07
2.88222e+07
3.16518e+07
3.06978e+07
3.36598e+07
3.25371e+07
3.56365e+07
3.43364e+07
3.75806e+07
3.60937e+07
3.9492e+07
3.78087e+07
4.13719e+07
3.94819e+07
4.32227e+07
4.11151e+07
4.50478e+07
4.27111e+07
1.17399e+07
1.18613e+07
1.22005e+07
1.23899e+07
1.31101e+07
1.33215e+07
1.43769e+07
1.45701e+07
1.59063e+07
1.60504e+07
1.76185e+07
1.76909e+07
1.94526e+07
1.94368e+07
2.1364e+07
2.12475e+07
2.33203e+07
2.30928e+07
2.52981e+07
2.49509e+07
2.72804e+07
2.68054e+07
2.92549e+07
2.86444e+07
3.12126e+07
3.04592e+07
3.31475e+07
3.22435e+07
3.50556e+07
3.39933e+07
3.69348e+07
3.5706e+07
3.87844e+07
3.73807e+07
4.06052e+07
3.90176e+07
4.2399e+07
4.06179e+07
4.41688e+07
4.21841e+07
1.2617e+07
1.27555e+07
1.30187e+07
1.32282e+07
1.3825e+07
1.4066e+07
1.49646e+07
1.52008e+07
1.63593e+07
1.65612e+07
1.79391e+07
1.80844e+07
1.96477e+07
1.97196e+07
2.14419e+07
2.14277e+07
2.32897e+07
2.3179e+07
2.51669e+07
2.49511e+07
2.70558e+07
2.67271e+07
2.89433e+07
2.84947e+07
3.08197e+07
3.02443e+07
3.26784e+07
3.19693e+07
3.45145e+07
3.36649e+07
3.63255e+07
3.53283e+07
3.811e+07
3.69577e+07
3.98682e+07
3.85531e+07
4.16014e+07
4.01153e+07
4.33119e+07
4.1646e+07
1.35019e+07
1.36535e+07
1.38533e+07
1.40768e+07
1.45687e+07
1.48304e+07
1.55926e+07
1.58603e+07
1.68609e+07
1.71072e+07
1.83133e+07
1.85167e+07
1.98986e+07
2.00425e+07
2.15762e+07
2.16476e+07
2.33145e+07
2.33031e+07
2.50895e+07
2.49867e+07
2.68829e+07
2.66814e+07
2.8681e+07
2.83741e+07
3.04736e+07
3.00549e+07
3.22532e+07
3.17166e+07
3.40146e+07
3.33539e+07
3.57544e+07
3.49635e+07
3.74709e+07
3.65433e+07
3.91634e+07
3.80926e+07
4.08328e+07
3.96116e+07
4.24809e+07
4.11018e+07
1.43879e+07
1.45489e+07
1.46964e+07
1.49287e+07
1.53319e+07
1.56068e+07
1.62513e+07
1.65405e+07
1.74023e+07
1.76811e+07
1.87334e+07
1.89815e+07
2.01992e+07
2.04003e+07
2.17618e+07
2.19032e+07
2.3391e+07
2.34625e+07
2.50632e+07
2.50562e+07
2.67598e+07
2.66673e+07
2.84669e+07
2.82824e+07
3.01736e+07
2.98914e+07
3.1872e+07
3.14864e+07
3.35563e+07
3.3062e+07
3.52226e+07
3.4614e+07
3.68684e+07
3.61402e+07
3.84927e+07
3.76391e+07
4.00957e+07
3.91108e+07
4.16785e+07
4.05559e+07
1.52687e+07
1.54358e+07
1.55404e+07
1.57769e+07
1.61059e+07
1.63875e+07
1.69313e+07
1.72336e+07
1.79743e+07
1.82751e+07
1.91914e+07
1.94719e+07
2.05424e+07
2.07873e+07
2.19929e+07
2.21898e+07
2.35145e+07
2.36533e+07
2.50841e+07
2.51566e+07
2.66835e+07
2.66828e+07
2.82985e+07
2.82184e+07
2.9918e+07
2.97532e+07
3.15336e+07
3.12789e+07
3.3139e+07
3.27896e+07
3.47297e+07
3.42809e+07
3.63029e+07
3.575e+07
3.7857e+07
3.7195e+07
3.93914e+07
3.86155e+07
4.09069e+07
4.00117e+07
1.61385e+07
1.63083e+07
1.63786e+07
1.66149e+07
1.68826e+07
1.71651e+07
1.76239e+07
1.79316e+07
1.8568e+07
1.88815e+07
1.96785e+07
1.99806e+07
2.09205e+07
2.11968e+07
2.22628e+07
2.25017e+07
2.3679e+07
2.38708e+07
2.51474e+07
2.5284e+07
2.665e+07
2.67248e+07
2.81727e+07
2.81799e+07
2.97042e+07
2.96387e+07
3.12359e+07
3.10931e+07
3.27611e+07
3.25366e+07
3.4275e+07
3.39645e+07
3.5774e+07
3.53736e+07
3.72561e+07
3.67617e+07
3.87204e+07
3.81277e+07
4.01669e+07
3.94716e+07
1.69914e+07
1.71607e+07
1.72043e+07
1.74366e+07
1.76544e+07
1.79327e+07
1.83204e+07
1.8627e+07
1.91745e+07
1.94924e+07
2.01861e+07
2.05e+07
2.13251e+07
2.16219e+07
2.25638e+07
2.28326e+07
2.38781e+07
2.41095e+07
2.52472e+07
2.54337e+07
2.66542e+07
2.67894e+07
2.80851e+07
2.81635e+07
2.95287e+07
2.95455e+07
3.09761e+07
3.0927e+07
3.24204e+07
3.23015e+07
3.38564e+07
3.3664e+07
3.52802e+07
3.50109e+07
3.66893e+07
3.63396e+07
3.80823e+07
3.76486e+07
3.94586e+07
3.89373e+07
1.7822e+07
1.79875e+07
1.80114e+07
1.82361e+07
1.84139e+07
1.86836e+07
1.90127e+07
1.93123e+07
1.97851e+07
2.01001e+07