/*--------------------------------*- C++ -*----------------------------------*\
| =========                 |                                                 |
| \\      /  F ield         | OpenFOAM: The Open Source CFD Toolbox           |
|  \\    /   O peration     | Version:  v2012                                 |
|   \\  /    A nd           | Website:  www.openfoam.com                      |
|    \\/     M anipulation  |                                                 |
\*---------------------------------------------------------------------------*/
FoamFile
{
    version     2.0;
    format      ascii;
    class       pointSymmTensorField;
    location    "8";
    object      pEpsilon;
}
// * * * * * * * * * * * * * * * * * * * * * * * * * * * * * * * * * * * * * //

dimensions      [0 0 0 0 0 0 0];


internalField   nonuniform List<symmTensor> 
2014
(
(0.000648302 -5.54071e-05 0 -0.00213919 0 0)
(0.001188 -1.03153e-05 0 -0.000103041 0 0)
(0.00138834 1.72651e-06 0 -0.000597076 0 0)
(0.000948734 0.000111453 0 -0.0004365 0 0)
(0.00711545 1.92255e-05 0 -0.00373323 3.25261e-18 0)
(0.000648302 -5.54071e-05 0 -0.00213919 0 0)
(0.001188 -1.03153e-05 0 -0.000103041 0 0)
(0.00138834 1.72651e-06 0 -0.000597076 0 0)
(0.000948734 0.000111453 0 -0.0004365 0 0)
(0.00711545 1.92255e-05 0 -0.00373323 3.25261e-18 0)
(0.000522179 -5.14458e-05 0 -0.00147211 0 0)
(0.000365519 -6.62814e-05 0 -0.00101395 0 0)
(0.000272723 -8.33638e-05 0 -0.000719466 0 0)
(0.000242237 -8.4764e-05 0 -0.000495653 0 0)
(0.000272012 -8.02937e-05 0 -0.000370727 0 0)
(0.000320656 -6.81354e-05 0 -0.000279792 0 0)
(0.000367694 -7.7123e-05 0 -0.00021387 0 0)
(0.000422545 -5.9264e-05 0 -0.000175348 0 0)
(0.000500958 -6.1079e-05 0 -0.000159406 0 0)
(0.000559232 -5.95579e-05 0 -0.000150257 0 0)
(0.000616587 -4.08838e-05 0 -0.000146094 0 0)
(0.000684271 -3.50675e-05 0 -0.000145573 0 0)
(0.000734817 -2.61615e-05 0 -0.000154918 0 0)
(0.000795402 -2.66011e-05 0 -0.000167642 0 0)
(0.000839048 -2.94592e-05 0 -0.000180443 0 0)
(0.000893369 -3.14217e-05 0 -0.000188666 0 0)
(0.000938199 -3.62766e-05 0 -0.00020602 0 0)
(0.000980108 -2.6474e-05 0 -0.000219639 0 0)
(0.00101797 -2.04498e-05 0 -0.000232859 0 0)
(0.00106037 -1.88266e-05 0 -0.000245397 0 0)
(0.00109613 -1.64562e-05 0 -0.000255702 0 0)
(0.00112524 -2.04434e-05 0 -0.000260447 0 0)
(0.0011486 -2.13523e-05 0 -0.000263058 0 0)
(0.00117075 -1.32299e-05 0 -0.000261243 0 0)
(0.00118901 -1.1153e-05 0 -0.000255696 0 0)
(0.00120397 -1.34718e-05 0 -0.000243275 0 0)
(0.00120607 -1.86184e-05 0 -0.000220978 0 0)
(0.00120193 -1.09922e-05 0 -0.000189388 0 0)
(0.00119636 -6.71656e-06 0 -0.000149406 0 0)
(0.00119428 -7.37755e-07 4.33681e-18 -0.00010736 8.47033e-21 0)
(0.00119891 -3.90922e-06 0 -0.000121318 -8.47033e-21 0)
(0.00120419 -1.36657e-05 0 -0.000135076 -3.38813e-20 0)
(0.00121053 -1.12258e-05 0 -0.000154137 -1.69407e-20 0)
(0.00122668 -1.74959e-05 0 -0.000188108 -3.38813e-20 0)
(0.00123568 -2.23967e-05 0 -0.000215628 3.38813e-20 0)
(0.00124534 -1.97859e-05 0 -0.000246148 3.38813e-20 0)
(0.00126468 -2.21962e-05 0 -0.000290666 6.77626e-20 0)
(0.00128236 -2.6876e-05 0 -0.00033393 0 0)
(0.00130042 -2.15279e-05 0 -0.000378353 0 0)
(0.00131399 -2.40918e-05 0 -0.000418312 0 0)
(0.00132528 -2.57898e-05 0 -0.000457697 0 0)
(0.00134661 -1.85577e-05 0 -0.000497796 0 0)
(0.0013579 -2.1011e-05 0 -0.000529197 0 0)
(0.00136809 -1.54116e-05 0 -0.000556954 0 0)
(0.00138115 -9.30106e-06 0 -0.000582116 0 0)
(0.00138466 -6.91004e-06 0 -0.000593946 0 0)
(0.00138951 -2.17008e-07 0 -0.00059985 0 0)
(0.00138969 1.59341e-06 0 -0.000599049 0 0)
(0.00138575 8.24932e-07 0 -0.00059555 0 0)
(0.00138481 2.48087e-07 0 -0.00059673 0 0)
(0.00139067 -4.05578e-06 0 -0.000602037 0 0)
(0.00140138 -8.69643e-06 0 -0.000603757 0 0)
(0.00142619 -1.41401e-05 0 -0.000614691 0 0)
(0.00145626 -2.0986e-05 0 -0.000629652 0 0)
(0.00148722 -2.23723e-05 0 -0.000639585 0 0)
(0.00153556 -2.80314e-05 0 -0.000662972 0 0)
(0.00158157 -2.64951e-05 0 -0.000676521 0 0)
(0.00163531 -3.159e-05 0 -0.000698629 0 0)
(0.00169945 -3.48587e-05 0 -0.000727881 0 0)
(0.00175659 -3.82395e-05 0 -0.000747385 0 0)
(0.00181976 -4.99661e-05 0 -0.000769464 0 0)
(0.00189876 -4.14731e-05 0 -0.000804203 0 0)
(0.00196928 -5.35073e-05 0 -0.000833519 0 0)
(0.00204023 -4.65579e-05 0 -0.000861165 0 0)
(0.00213154 -3.48252e-05 0 -0.000898675 0 0)
(0.00220113 -4.95877e-05 0 -0.000924242 0 0)
(0.00228103 -3.98546e-05 0 -0.000960862 0 0)
(0.00233777 -5.11738e-05 0 -0.000952205 0 0)
(0.00244121 -3.98062e-05 0 -0.00102823 0 0)
(0.00249722 -3.94006e-05 0 -0.00103455 0 0)
(0.00256342 -2.032e-05 0 -0.00107062 0 0)
(0.00260225 -2.52694e-05 0 -0.00107552 0 0)
(0.00263695 -1.95015e-06 0 -0.00109515 0 0)
(0.0026517 -8.25803e-06 0 -0.00109999 0 0)
(0.00263034 5.04814e-06 0 -0.0010922 0 0)
(0.00260051 2.95284e-05 0 -0.001081 0 0)
(0.00254377 3.90643e-05 5.42101e-19 -0.0010664 0 0)
(0.00244932 6.87908e-05 0 -0.00102787 0 0)
(0.00234917 7.48792e-05 0 -0.0009992 0 0)
(0.00219364 8.80672e-05 0 -0.000946591 0 0)
(0.00199993 9.93901e-05 0 -0.000866378 0 0)
(0.00183737 0.000124638 -2.71051e-19 -0.000827665 0 0)
(0.00164934 0.000110164 0 -0.00076358 0 0)
(0.00140132 0.000102845 -1.35525e-19 -0.000646299 0 0)
(0.0012441 0.000101271 -1.35525e-19 -0.000618283 0 0)
(0.00109068 2.82985e-05 0 -0.000548354 0 0)
(0.000998913 1.77995e-05 -3.38813e-20 -0.000542656 0 0)
(0.00136605 0.000125466 0 -0.000559943 0 0)
(0.00171496 0.000117328 0 -0.000634525 0 0)
(0.00193423 0.000108679 0 -0.000629236 0 0)
(0.00220669 0.000117248 0 -0.000640121 0 0)
(0.00251051 0.000158134 0 -0.000663178 0 0)
(0.00287527 0.000149501 0 -0.000736737 -1.0842e-18 0)
(0.00370578 8.16909e-05 0 -0.00111826 -2.1684e-18 0)
(0.00481197 5.21589e-05 0 -0.00220838 -1.0842e-18 0)
(0.00570859 -0.000152512 0 -0.00313932 -1.0842e-18 0)
(0.00738612 -0.00116441 -8.40257e-18 -0.00474597 -6.50521e-18 0)
(0.00633067 -0.00230609 7.04731e-18 -0.00364435 1.30104e-17 0)
(0.00433257 -0.001995 2.1684e-18 -0.00144115 2.1684e-18 0)
(0.00311091 -0.00156275 0 -0.00080558 2.1684e-18 0)
(0.00232206 -0.00154765 1.0842e-18 -0.000505059 0 0)
(0.00168411 -0.00128488 0 -0.000308647 0 0)
(0.00114741 -0.000960257 0 -0.00020468 0 0)
(0.000640829 -0.000628066 0 -0.000151285 0 0)
(0.000345213 -0.000251331 0 -0.000273676 0 0)
(0.000237049 0.000119806 2.1684e-18 -0.00053143 0 0)
(0.000241723 0.000406278 0 -0.000879786 0 0)
(0.000307501 0.000403228 0 -0.00129703 0 0)
(0.000505148 0.000425149 0 -0.00164885 0 0)
(0.000634296 0.000443859 0 -0.00193889 0 0)
(0.000744685 0.000230517 0 -0.0021718 -6.77626e-20 0)
(0.000522179 -5.14458e-05 0 -0.00147211 0 0)
(0.000365519 -6.62814e-05 0 -0.00101395 0 0)
(0.000272723 -8.33638e-05 0 -0.000719466 0 0)
(0.000242237 -8.4764e-05 0 -0.000495653 0 0)
(0.000272012 -8.02937e-05 0 -0.000370727 0 0)
(0.000320656 -6.81354e-05 0 -0.000279792 0 0)
(0.000367694 -7.7123e-05 0 -0.00021387 0 0)
(0.000422545 -5.9264e-05 0 -0.000175348 0 0)
(0.000500958 -6.1079e-05 0 -0.000159406 0 0)
(0.000559232 -5.95579e-05 0 -0.000150257 0 0)
(0.000616587 -4.08838e-05 0 -0.000146094 0 0)
(0.000684271 -3.50675e-05 0 -0.000145573 0 0)
(0.000734817 -2.61615e-05 0 -0.000154918 0 0)
(0.000795402 -2.66011e-05 0 -0.000167642 0 0)
(0.000839048 -2.94592e-05 0 -0.000180443 0 0)
(0.000893369 -3.14217e-05 0 -0.000188666 0 0)
(0.000938199 -3.62766e-05 0 -0.00020602 0 0)
(0.000980108 -2.6474e-05 0 -0.000219639 0 0)
(0.00101797 -2.04498e-05 0 -0.000232859 0 0)
(0.00106037 -1.88266e-05 0 -0.000245397 0 0)
(0.00109613 -1.64562e-05 0 -0.000255702 0 0)
(0.00112524 -2.04434e-05 0 -0.000260447 0 0)
(0.0011486 -2.13523e-05 0 -0.000263058 0 0)
(0.00117075 -1.32299e-05 0 -0.000261243 0 0)
(0.00118901 -1.1153e-05 0 -0.000255696 0 0)
(0.00120397 -1.34718e-05 0 -0.000243275 0 0)
(0.00120607 -1.86184e-05 0 -0.000220978 0 0)
(0.00120193 -1.09922e-05 0 -0.000189388 0 0)
(0.00119636 -6.71656e-06 0 -0.000149406 0 0)
(0.00119428 -7.37755e-07 4.33681e-18 -0.00010736 8.47033e-21 0)
(0.00119891 -3.90922e-06 0 -0.000121318 -8.47033e-21 0)
(0.00120419 -1.36657e-05 0 -0.000135076 -3.38813e-20 0)
(0.00121053 -1.12258e-05 0 -0.000154137 -1.69407e-20 0)
(0.00122668 -1.74959e-05 0 -0.000188108 -3.38813e-20 0)
(0.00123568 -2.23967e-05 0 -0.000215628 3.38813e-20 0)
(0.00124534 -1.97859e-05 0 -0.000246148 3.38813e-20 0)
(0.00126468 -2.21962e-05 0 -0.000290666 6.77626e-20 0)
(0.00128236 -2.6876e-05 0 -0.00033393 0 0)
(0.00130042 -2.15279e-05 0 -0.000378353 0 0)
(0.00131399 -2.40918e-05 0 -0.000418312 0 0)
(0.00132528 -2.57898e-05 0 -0.000457697 0 0)
(0.00134661 -1.85577e-05 0 -0.000497796 0 0)
(0.0013579 -2.1011e-05 0 -0.000529197 0 0)
(0.00136809 -1.54116e-05 0 -0.000556954 0 0)
(0.00138115 -9.30106e-06 0 -0.000582116 0 0)
(0.00138466 -6.91004e-06 0 -0.000593946 0 0)
(0.00138951 -2.17008e-07 0 -0.00059985 0 0)
(0.00138969 1.59341e-06 0 -0.000599049 0 0)
(0.00138575 8.24932e-07 0 -0.00059555 0 0)
(0.00138481 2.48087e-07 0 -0.00059673 0 0)
(0.00139067 -4.05578e-06 0 -0.000602037 0 0)
(0.00140138 -8.69643e-06 0 -0.000603757 0 0)
(0.00142619 -1.41401e-05 0 -0.000614691 0 0)
(0.00145626 -2.0986e-05 0 -0.000629652 0 0)
(0.00148722 -2.23723e-05 0 -0.000639585 0 0)
(0.00153556 -2.80314e-05 0 -0.000662972 0 0)
(0.00158157 -2.64951e-05 0 -0.000676521 0 0)
(0.00163531 -3.159e-05 0 -0.000698629 0 0)
(0.00169945 -3.48587e-05 0 -0.000727881 0 0)
(0.00175659 -3.82395e-05 0 -0.000747385 0 0)
(0.00181976 -4.99661e-05 0 -0.000769464 0 0)
(0.00189876 -4.14731e-05 0 -0.000804203 0 0)
(0.00196928 -5.35073e-05 0 -0.000833519 0 0)
(0.00204023 -4.65579e-05 0 -0.000861165 0 0)
(0.00213154 -3.48252e-05 0 -0.000898675 0 0)
(0.00220113 -4.95877e-05 0 -0.000924242 0 0)
(0.00228103 -3.98546e-05 0 -0.000960862 0 0)
(0.00233777 -5.11738e-05 0 -0.000952205 0 0)
(0.00244121 -3.98062e-05 0 -0.00102823 0 0)
(0.00249722 -3.94006e-05 0 -0.00103455 0 0)
(0.00256342 -2.032e-05 0 -0.00107062 0 0)
(0.00260225 -2.52694e-05 0 -0.00107552 0 0)
(0.00263695 -1.95015e-06 0 -0.00109515 0 0)
(0.0026517 -8.25803e-06 0 -0.00109999 0 0)
(0.00263034 5.04814e-06 0 -0.0010922 0 0)
(0.00260051 2.95284e-05 0 -0.001081 0 0)
(0.00254377 3.90643e-05 5.42101e-19 -0.0010664 0 0)
(0.00244932 6.87908e-05 0 -0.00102787 0 0)
(0.00234917 7.48792e-05 0 -0.0009992 0 0)
(0.00219364 8.80672e-05 0 -0.000946591 0 0)
(0.00199993 9.93901e-05 0 -0.000866378 0 0)
(0.00183737 0.000124638 -2.71051e-19 -0.000827665 0 0)
(0.00164934 0.000110164 0 -0.00076358 0 0)
(0.00140132 0.000102845 -1.35525e-19 -0.000646299 0 0)
(0.0012441 0.000101271 -1.35525e-19 -0.000618283 0 0)
(0.00109068 2.82985e-05 0 -0.000548354 0 0)
(0.000998913 1.77995e-05 -3.38813e-20 -0.000542656 0 0)
(0.00136605 0.000125466 0 -0.000559943 0 0)
(0.00171496 0.000117328 0 -0.000634525 0 0)
(0.00193423 0.000108679 0 -0.000629236 0 0)
(0.00220669 0.000117248 0 -0.000640121 0 0)
(0.00251051 0.000158134 0 -0.000663178 0 0)
(0.00287527 0.000149501 0 -0.000736737 -1.0842e-18 0)
(0.00370578 8.16909e-05 0 -0.00111826 -2.1684e-18 0)
(0.00481197 5.21589e-05 0 -0.00220838 -1.0842e-18 0)
(0.00570859 -0.000152512 0 -0.00313932 -1.0842e-18 0)
(0.00738612 -0.00116441 -8.40257e-18 -0.00474597 -6.50521e-18 0)
(0.00633067 -0.00230609 7.04731e-18 -0.00364435 1.30104e-17 0)
(0.00433257 -0.001995 2.1684e-18 -0.00144115 2.1684e-18 0)
(0.00311091 -0.00156275 0 -0.00080558 2.1684e-18 0)
(0.00232206 -0.00154765 1.0842e-18 -0.000505059 0 0)
(0.00168411 -0.00128488 0 -0.000308647 0 0)
(0.00114741 -0.000960257 0 -0.00020468 0 0)
(0.000640829 -0.000628066 0 -0.000151285 0 0)
(0.000345213 -0.000251331 0 -0.000273676 0 0)
(0.000237049 0.000119806 2.1684e-18 -0.00053143 0 0)
(0.000241723 0.000406278 0 -0.000879786 0 0)
(0.000307501 0.000403228 0 -0.00129703 0 0)
(0.000505148 0.000425149 0 -0.00164885 0 0)
(0.000634296 0.000443859 0 -0.00193889 0 0)
(0.000744685 0.000230517 0 -0.0021718 -6.77626e-20 0)
(0.00151358 -0.000604171 0 -0.000785638 0 0)
(0.00132464 -0.000375399 0 -0.000457664 0 0)
(0.00231735 -6.2342e-05 0 -0.00127414 0 0)
(0.00159361 -0.000469609 0 -0.000660877 0 0)
(0.00104356 -0.000454638 0 -0.000340923 0 0)
(0.00141886 -0.000206494 0 -0.000544269 0 0)
(0.00123175 -0.000197186 0 -0.000327847 0 0)
(0.00261934 0.000417626 0 -0.00117608 0 0)
(0.00081431 -0.00062642 0 -0.000641768 0 0)
(0.00210033 -0.000265204 0 -0.00102007 0 0)
(0.00157949 -0.000323643 0 -0.000644194 0 0)
(0.00109884 -0.00028511 0 -0.000299368 0 0)
(0.000782086 -0.000490706 0 -0.000324859 0 0)
(0.00162826 -0.000569117 0 -0.00111094 0 0)
(0.00131343 -0.000200109 0 -0.000416503 0 0)
(0.00194711 -0.000347262 0 -0.000852716 0 0)
(0.0013596 -0.000575419 0 -0.000586577 0 0)
(0.00131108 -0.000475328 0 -0.000476099 0 0)
(0.00239913 0.00034101 0 -0.00114649 0 0)
(0.00248844 -0.000136 0 -0.00127727 0 0)
(0.00177884 -0.000298147 0 -0.000752478 0 0)
(0.00153237 -0.00020001 0 -0.000630943 0 0)
(0.00235109 3.99295e-05 0 -0.00110611 0 0)
(0.00186978 -0.000470276 0 -0.00108325 0 0)
(0.00121788 -8.34514e-05 0 -0.000257201 0 0)
(0.00140909 -7.90555e-05 0 -0.000574705 0 0)
(0.0011407 -0.000154372 0 -0.00028456 0 0)
(0.000921826 -0.000243922 0 -0.000226143 0 0)
(0.00144334 -0.000311212 0 -0.000552171 0 0)
(0.00214243 0.000451706 2.71051e-19 -0.00083976 0 0)
(0.00128575 -0.000278428 0 -0.000404435 0 0)
(0.00166845 -0.000516201 -2.1684e-18 -0.000775507 0 0)
(0.000764821 -0.000292425 0 -0.000205537 0 0)
(0.00317009 3.42437e-05 1.6263e-18 -0.00111173 0 0)
(0.000538516 -0.000404914 0 -0.000328833 0 0)
(0.00126182 -0.000132136 0 -0.000322972 0 0)
(0.00135665 -0.000131527 0 -0.000489309 0 0)
(0.00107608 -0.000655162 0 -0.00059609 0 0)
(0.000441398 -0.000313401 0 -0.000769828 0 0)
(0.00119747 -0.000272273 0 -0.000342216 0 0)
(0.000865555 -0.00051709 0 -0.000895283 0 0)
(0.00149554 -0.000431092 0 -0.000593024 0 0)
(0.00141512 -0.00065911 0 -0.000888121 0 0)
(0.00120011 -0.000393033 0 -0.000382048 0 0)
(0.00220251 -0.000209422 0 -0.000968874 0 0)
(0.00223327 0.000470216 5.42101e-19 -0.000982892 0 0)
(0.00107156 -0.000554125 0 -0.000427739 0 0)
(0.00196985 -0.000256846 0 -0.000844014 0 0)
(0.0014754 -0.000116546 0 -0.000613441 0 0)
(0.00179543 -0.000497958 1.0842e-18 -0.00105279 0 0)
(0.00118536 -9.90578e-05 0 -0.000277626 0 0)
(0.00136219 -0.000271916 0 -0.000480087 0 0)
(0.00171753 -0.000220397 0 -0.000719012 0 0)
(0.000993175 -0.000165829 0 -0.000235513 -1.69407e-20 0)
(0.00216091 -0.000207313 0 -0.00113671 0 0)
(0.00184485 -0.000463648 0 -0.000950356 0 0)
(0.0023463 -8.69131e-05 0 -0.0010499 0 0)
(0.00254494 0.000243764 0 -0.00127931 0 0)
(0.00106997 -0.000369003 0 -0.000314495 0 0)
(0.00279218 -0.000329089 0 -0.00116831 0 0)
(0.000624025 -0.000280476 0 -0.00020091 0 0)
(0.00141827 -0.000392256 0 -0.000531945 0 0)
(0.00140608 -0.000528904 0 -0.000560233 0 0)
(0.0021491 -0.00031179 0 -0.00129116 0 0)
(0.00192993 -0.000381547 0 -0.000896988 0 0)
(0.00238791 0.000172115 0 -0.0010735 0 0)
(0.00127041 -0.000614267 0 -0.000591902 0 0)
(0.0017288 -0.000458933 0 -0.000755978 0 0)
(0.00162791 -0.000155566 0 -0.000686691 0 0)
(0.00264381 0.000374505 2.71051e-19 -0.000856626 0 0)
(0.00129569 -0.000123427 0 -0.000374054 0 0)
(0.001197 -0.000483449 0 -0.000967598 0 0)
(0.00217853 -0.000190323 0 -0.000948629 0 0)
(0.00106505 -0.000126708 0 -0.000256363 0 0)
(0.00127675 -0.000223563 0 -0.000377457 0 0)
(0.00123346 -7.10298e-05 0 -0.000246136 0 0)
(0.00137576 -7.96343e-05 0 -0.000536068 0 0)
(0.00237309 0.000106192 0 -0.00119611 0 0)
(0.00122029 -0.000524571 0 -0.000457953 0 0)
(0.000358016 -0.000289049 0 -0.000457688 -3.38813e-20 0)
(0.00177307 -0.000384907 0 -0.000754 0 0)
(0.00116742 -0.000463058 0 -0.000396822 -6.77626e-20 0)
(0.000806484 -0.000177978 0 -0.000185622 0 0)
(0.000897351 -0.000442047 0 -0.000296313 3.38813e-20 0)
(0.00120634 -2.85654e-05 0 -0.000194936 -1.69407e-20 0)
(0.00139687 -1.57356e-05 0 -0.000588858 0 0)
(0.00162543 -0.000372739 0 -0.000669753 0 0)
(0.00135633 -0.000216017 0 -0.000474336 0 0)
(0.00122903 -0.000346999 0 -0.000383471 0 0)
(0.00152963 -0.000534092 0 -0.000656102 0 0)
(0.00134649 -0.000429603 0 -0.000484384 0 0)
(0.00132386 -0.000100942 0 -0.000434079 0 0)
(0.000767512 -0.000591074 0 -0.00047816 6.77626e-20 0)
(0.00151965 -0.000283087 0 -0.00060891 -2.71051e-19 0)
(0.00225633 0.000316162 0 -0.000998169 0 0)
(0.00129121 -0.000660057 0 -0.000951793 0 0)
(0.00123524 -0.000134941 0 -0.000299842 0 0)
(0.00139649 -0.000139578 0 -0.000536858 0 0)
(0.00146677 -0.000242297 0 -0.000579795 0 0)
(0.00136218 -0.000329478 0 -0.000484126 0 0)
(0.0020115 -0.00061799 0 -0.000900115 0 0)
(0.00195765 0.00040834 0 -0.000828681 0 0)
(0.000934835 -0.000374244 0 -0.000273379 0 0)
(0.00163478 0.000193797 0 -0.000624944 0 0)
(0.00193319 -0.000172714 0 -0.000824791 0 0)
(0.00246654 0.000445021 5.42101e-19 -0.00114976 0 0)
(0.0027088 0.000100826 1.0842e-18 -0.00127886 0 0)
(0.00160617 -0.000605198 0 -0.000917175 0 0)
(0.00192374 -0.000462929 0 -0.00119202 0 0)
(0.00102682 -0.000595865 0 -0.000474085 0 0)
(0.00152802 -0.000113286 0 -0.000645652 0 0)
(0.00240083 -7.12426e-05 0 -0.00132166 0 0)
(0.00143834 -5.96077e-05 0 -0.000605937 0 0)
(0.00144964 -0.000586028 0 -0.000666808 0 0)
(0.000492864 -0.000246042 0 -0.000222109 0 0)
(0.0011865 -0.000154973 0 -0.000295767 0 0)
(0.000540819 -0.000182257 0 -0.00100715 0 0)
(0.00120058 -5.49924e-05 0 -0.0002558 0 0)
(0.00114306 -7.87082e-05 0 -0.000267974 0 0)
(0.00113557 -0.000243102 0 -0.000304812 0 0)
(0.00245157 1.42906e-05 0 -0.00107617 0 0)
(0.000913897 -0.000129704 0 -0.00020522 0 0)
(0.00223667 -0.000120284 0 -0.00109454 0 0)
(0.00236404 0.000536851 0 -0.00100731 0 0)
(0.00466337 -0.000667031 7.04731e-18 -0.00201708 -8.67362e-18 0)
(0.00123206 -0.000252104 0 -0.000355479 0 0)
(0.00184483 -0.000145831 0 -0.000787658 0 0)
(0.00211442 -0.000294643 0 -0.00118775 0 0)
(0.00273836 0.000395613 0 -0.00105392 0 0)
(0.00101366 -0.000266782 0 -0.00026206 3.38813e-20 0)
(0.00167096 -0.000544522 0 -0.00082963 0 0)
(0.0014807 -0.000479046 0 -0.000590444 0 0)
(0.0014396 -0.000150458 0 -0.000576672 0 0)
(0.000441368 -3.24423e-05 0 -0.00117355 -6.77626e-20 0)
(0.0013165 -0.000251354 0 -0.000430444 0 0)
(0.000661075 -0.000521742 0 -0.000749692 0 0)
(0.000542967 -0.000488347 0 -0.000475446 0 0)
(0.000648263 -0.00014839 0 -0.000159184 8.47033e-21 0)
(0.00107519 -0.000692048 0 -0.000696898 0 0)
(0.00133505 -0.000657447 0 -0.000754685 0 0)
(0.0012908 -0.00033056 0 -0.000423142 0 0)
(0.00215818 0.000292186 -1.35525e-19 -0.000731147 0 0)
(0.00324154 -0.000738599 3.25261e-18 -0.00115032 2.1684e-18 0)
(0.00240688 -8.67174e-05 0 -0.00105064 0 0)
(0.00120982 -0.000128994 0 -0.000286748 0 0)
(0.00165543 -0.000410558 0 -0.000683865 0 0)
(0.00121734 -4.38483e-05 0 -0.000207532 -3.38813e-20 0)
(0.00138737 -3.43867e-05 0 -0.000568657 0 0)
(0.00116956 -0.000314238 0 -0.000344546 0 0)
(0.00061715 -0.000427095 0 -0.000287715 0 0)
(0.00159655 -0.000254723 0 -0.000658862 0 0)
(0.000790846 -0.000397976 0 -0.000257528 0 0)
(0.00244296 0.00012414 0 -0.00128337 0 0)
(0.00290656 0.000124901 5.42101e-19 -0.00122467 0 0)
(0.00183332 -0.000433641 0 -0.000834801 0 0)
(0.0021441 -0.000158904 0 -0.000922747 0 0)
(0.00126569 -7.77872e-05 0 -0.000317032 6.77626e-20 0)
(0.00106095 -0.000197247 0 -0.000265563 3.38813e-20 0)
(0.0032229 0.000134402 1.6263e-18 -0.00091454 -1.0842e-18 0)
(0.00187553 -0.00036261 0 -0.000810394 0 0)
(0.00140927 -0.000274008 0 -0.000525607 0 0)
(0.00199459 -0.000365237 0 -0.00107478 0 0)
(0.00229087 -3.23401e-05 0 -0.00115715 0 0)
(0.00134947 -6.60442e-05 0 -0.000493749 0 0)
(0.0015864 -0.000613273 0 -0.00105583 0 0)
(0.00147969 -0.000181002 0 -0.000605114 0 0)
(0.00117738 -0.000215511 0 -0.000312748 0 0)
(0.00148761 -0.000347287 0 -0.000581452 0 0)
(0.000357818 -0.000215349 0 -0.000283857 -1.69407e-20 0)
(0.00220742 -0.000181815 0 -0.00100069 0 0)
(0.00128503 -0.000171825 0 -0.000373915 -6.77626e-20 0)
(0.00204398 -0.000305985 0 -0.000921839 0 0)
(0.000285252 -0.000221239 0 -0.000665434 -3.38813e-20 0)
(0.00133893 -0.00016637 0 -0.000451795 0 0)
(0.00151451 -0.000388353 0 -0.000595603 0 0)
(0.00112271 -0.00034985 0 -0.000329367 0 0)
(0.00219157 -0.000309011 0 -0.00126423 0 0)
(0.00120936 -0.000560049 0 -0.00048773 0 0)
(0.000696687 -0.000231183 0 -0.000886351 0 0)
(0.00125753 -0.000178162 0 -0.000340441 0 0)
(0.000862762 -0.000578115 0 -0.000428346 0 0)
(0.00232822 -0.000127088 0 -0.00100267 0 0)
(0.00170558 -0.000292409 0 -0.000714455 0 0)
(0.00127501 -0.00040031 0 -0.000434437 0 0)
(0.00123317 -0.000644346 0 -0.000633952 1.35525e-19 0)
(0.00090934 -0.000519086 0 -0.000361045 0 0)
(0.00170449 -0.000112562 0 -0.000729568 0 0)
(0.00140795 -0.000461038 -2.1684e-18 -0.000535287 0 0)
(0.00115737 -0.000508921 0 -0.00070042 0 0)
(0.00123954 -0.000581811 -2.1684e-18 -0.00099317 -2.71051e-19 0)
(0.00195748 -0.000372532 0 -0.000958812 0 0)
(0.00101317 -8.32367e-05 0 -0.000234793 0 0)
(0.00247421 -0.000817127 1.0842e-18 -0.000854387 1.0842e-18 0)
(0.00158347 -0.000100057 0 -0.000675036 0 0)
(0.00123822 -0.000438546 0 -0.000422335 0 0)
(0.00235324 0.000189999 0 -0.00103197 0 0)
(0.00202305 -0.000274908 0 -0.000875271 0 0)
(0.00205898 0.000308 0 -0.000908003 0 0)
(0.00167317 0.000299805 0 -0.00069463 0 0)
(0.00246024 8.94497e-05 0 -0.00108165 0 0)
(0.00206932 -0.000136613 0 -0.000888556 0 0)
(0.00129046 -0.000507651 0 -0.000485027 0 0)
(0.00187771 -0.000475191 0 -0.00120409 0 0)
(0.00107656 -0.00051873 0 -0.00039562 0 0)
(0.00109686 -6.85638e-05 0 -0.00025818 0 0)
(0.00140245 -0.000357134 0 -0.000515817 0 0)
(0.00137948 -0.000184077 0 -0.000506328 0 0)
(0.00148081 -6.28832e-05 0 -0.000631327 0 0)
(0.00185744 -0.00030241 0 -0.000782161 0 0)
(0.00132811 -0.000298479 0 -0.000449959 0 0)
(0.00124756 -6.67996e-05 0 -0.000267511 0 0)
(0.00207278 -0.000287495 0 -0.00095846 0 0)
(0.00101779 -0.000391144 0 -0.000303541 0 0)
(0.00124405 -0.000295804 0 -0.000378424 0 0)
(0.00179932 -0.000499847 0 -0.000991526 0 0)
(0.00118277 -4.6793e-05 0 -0.00026381 0 0)
(0.00238182 0.0002213 0 -0.00113878 0 0)
(0.00179987 -0.000469645 0 -0.00085609 0 0)
(0.00114737 -0.000410395 0 -0.000367739 0 0)
(0.00138054 -0.000232052 0 -0.000502088 0 0)
(0.00246006 -3.13044e-05 0 -0.00107497 0 0)
(0.000734623 -0.000127079 0 -0.000165858 0 0)
(0.00172225 -0.000556508 0 -0.00104824 0 0)
(0.00207351 -0.000286985 0 -0.00104209 0 0)
(0.00237084 0.000422744 0 -0.00110094 0 0)
(0.00143941 -0.000101933 0 -0.000589294 0 0)
(0.000838347 -0.000264236 0 -0.000210716 0 0)
(0.000953803 -0.000644519 0 -0.000815858 0 0)
(0.000955852 -8.23107e-05 0 -0.00021011 -8.47033e-21 0)
(0.0014064 -2.48717e-05 0 -0.000597165 0 0)
(0.00226367 -9.34429e-05 0 -0.00122051 0 0)
(0.00218563 -0.000255385 0 -0.00127186 0 0)
(0.00163682 -0.000286598 0 -0.000678411 0 0)
(0.0011621 -0.00012769 0 -0.000283193 0 0)
(0.00232809 -4.1545e-05 0 -0.00106824 0 0)
(0.00252862 -0.000290189 0 -0.00118315 0 0)
(0.00242183 0.000465058 0 -0.000890172 0 0)
(0.00179078 -0.000112307 0 -0.000766412 0 0)
(0.000836705 -0.000112368 0 -0.000181116 8.47033e-21 0)
(0.00120979 -2.85187e-05 0 -0.000225445 0 0)
(0.00143089 -0.000423775 0 -0.00054501 0 0)
(0.00172715 -0.000427151 0 -0.000738897 0 0)
(0.00245758 0.000300855 0 -0.00121462 0 0)
(0.00110546 -0.000164823 0 -0.000273197 -3.38813e-20 0)
(0.00168129 -0.000551814 0 -0.000883671 0 0)
(0.001577 -0.000438458 0 -0.000645104 0 0)
(0.0013079 -7.43413e-05 0 -0.000395052 0 0)
(0.00145595 -0.000701112 0 -0.000630762 0 0)
(0.00258225 5.4049e-05 0 -0.00131775 0 0)
(0.00260651 0.000298874 5.42101e-19 -0.00125554 1.0842e-18 0)
(0.00153363 -0.000554383 0 -0.000684786 0 0)
(0.000509437 0.000101303 0 -0.00126361 0 0)
(0.00114537 -0.000681371 0 -0.000802017 0 0)
(0.000494807 -0.000120163 0 -0.000167485 0 0)
(0.00132752 -0.000543046 0 -0.000533115 0 0)
(0.00148522 -0.000515153 0 -0.000612717 0 0)
(0.000985829 -0.000326258 0 -0.000266393 3.38813e-20 0)
(0.000532423 -0.000477608 0 -0.000629273 6.77626e-20 0)
(0.00120716 -0.000229715 0 -0.000331875 0 0)
(0.00130712 -0.000148912 0 -0.000404673 0 0)
(0.0014352 -0.000612109 0 -0.000703084 0 0)
(0.00235393 0.00028102 0 -0.0010745 0 0)
(0.00136322 -0.000396174 0 -0.000494402 0 0)
(0.00114072 -0.000486182 0 -0.00039711 0 0)
(0.00138698 -0.000497594 0 -0.000533191 0 0)
(0.00278225 -0.000858881 2.1684e-18 -0.000994978 1.0842e-18 0)
(0.000960769 -0.000203481 0 -0.000232055 0 0)
(0.00117132 -0.000585388 0 -0.000491978 0 0)
(0.00133183 -6.0696e-05 0 -0.000455764 0 0)
(0.000742348 -0.000412479 0 -0.000268572 -3.38813e-20 0)
(0.000712863 -0.000311025 0 -0.000215178 0 0)
(0.00161291 -0.000493006 0 -0.000685717 0 0)
(0.001203 -1.34349e-05 0 -0.00017187 -2.5411e-20 0)
(0.00139138 -2.52541e-06 0 -0.000592986 -2.71051e-19 0)
(0.00120774 -9.03291e-05 0 -0.000267672 0 0)
(0.00223383 -0.000149418 0 -0.00104711 0 0)
(0.0016804 -0.00049497 0 -0.000745718 0 0)
(0.00157716 -0.000207381 0 -0.000658342 0 0)
(0.0013907 -0.00030708 0 -0.000506607 0 0)
(0.00244424 0.000500439 0 -0.00109759 0 0)
(0.00157015 -0.000554276 0 -0.00110149 0 0)
(0.000861403 -0.000377424 0 -0.000261017 3.38813e-20 0)
(0.00126933 -0.000248923 0 -0.000380849 0 0)
(0.00167397 -0.000209959 0 -0.00070358 0 0)
(0.00214063 -0.000234602 0 -0.000938847 0 0)
(0.00124837 -0.000120145 0 -0.000298636 0 0)
(0.00137304 -0.000113322 0 -0.000514078 0 0)
(0.0023912 0.000101832 0 -0.00109294 0 0)
(0.00119075 -0.000353504 0 -0.000363817 0 0)
(0.00273172 0.00019095 1.35525e-19 -0.000757282 -1.0842e-18 0)
(0.00123308 -0.000101825 0 -0.000273309 0 0)
(0.00139095 -9.88266e-05 0 -0.000550288 0 0)
(0.00135515 -0.000591441 0 -0.000606379 0 0)
(0.000648787 -0.000491035 0 -0.000362165 0 0)
(0.00134431 -0.000243332 0 -0.000456226 0 0)
(0.000589472 -0.000119338 0 -0.000155932 8.47033e-21 0)
(0.0014521 -4.37039e-05 0 -0.000619848 0 0)
(0.00165971 -8.6184e-05 0 -0.000708857 0 0)
(0.0012799 -6.05757e-05 0 -0.000341063 0 0)
(0.0018492 -0.00039546 0 -0.000811563 0 0)
(0.0012999 -0.000221601 0 -0.000399921 0 0)
(0.00147707 -0.000282307 0 -0.000580528 0 0)
(0.00116059 -4.78988e-05 0 -0.000266044 8.47033e-21 0)
(0.0024304 0.000123842 0 -0.00105646 0 0)
(0.00144518 -0.000213664 0 -0.00056826 0 0)
(0.00121825 -3.9695e-05 0 -0.000207049 0 0)
(0.00137911 -3.32588e-05 0 -0.00055512 0 0)
(0.0023632 0.000112368 0 -0.00113306 0 0)
(0.00141568 -0.000123561 0 -0.000562649 0 0)
(0.00106531 -0.000325273 0 -0.000299956 0 0)
(0.00194828 -0.000434722 0 -0.00122417 0 0)
(0.000856211 -0.000181187 0 -0.000200609 0 0)
(0.00109431 -0.000441003 0 -0.000353412 6.77626e-20 0)
(0.000595897 -0.000201257 0 -0.000541613 0 0)
(0.0028786 0.000297629 2.71051e-19 -0.00100002 -1.0842e-18 0)
(0.00149657 -0.000145234 0 -0.000623405 0 0)
(0.000968752 -0.000428454 0 -0.000303173 0 0)
(0.0011317 -0.00060532 0 -0.00051506 0 0)
(0.00173888 -0.000362933 0 -0.000732991 0 0)
(0.00192762 -0.00011161 0 -0.000822455 0 0)
(0.00163726 -0.000323279 0 -0.000678529 0 0)
(0.0015074 -0.000245719 0 -0.000606627 0 0)
(0.00187324 0.000247855 0 -0.000812475 0 0)
(0.00120443 -2.45523e-05 0 -0.000170659 -1.69407e-20 0)
(0.00138945 -1.25593e-05 0 -0.000585953 0 0)
(0.00223934 -0.000125662 0 -0.00095079 0 0)
(0.00121659 -5.2746e-05 0 -0.000232976 0 0)
(0.00185729 0.000151659 -1.35525e-19 -0.000645235 0 0)
(0.00104409 -4.91938e-05 0 -0.0002406 0 0)
(0.00140653 -4.47998e-05 0 -0.00058728 0 0)
(0.00128116 -0.000137594 0 -0.000351023 0 0)
(0.00125412 -0.000218764 0 -0.000354358 0 0)
(0.0022968 -0.000175225 0 -0.00131904 0 0)
(0.00136147 7.6093e-05 -6.77626e-20 -0.000555545 0 0)
(0.0012959 -0.000446007 0 -0.000455719 0 0)
(0.000396585 -0.000146352 0 -0.000223861 0 0)
(0.00110355 -0.000115682 0 -0.000265618 -1.69407e-20 0)
(0.00122722 -0.000159853 0 -0.000308984 0 0)
(0.00310972 -0.000189432 1.0842e-18 -0.00118581 0 0)
(0.00214038 0.000215917 0 -0.000924046 0 0)
(0.00209695 -0.000422874 0 -0.00114985 0 0)
(0.00089024 -0.000649199 0 -0.000602764 0 0)
(0.00256453 0.000489799 5.42101e-19 -0.0010781 0 0)
(0.000529936 3.73905e-06 0 -0.000974287 0 0)
(0.00438865 -0.00125992 1.0842e-17 -0.00216517 0 0)
(0.00240881 0.000229397 0 -0.00118614 0 0)
(0.00144843 -0.000536788 0 -0.000600842 0 0)
(0.000273591 -0.000155273 0 -0.000431956 1.69407e-20 0)
(0.00216805 0.000499648 0 -0.000934789 0 0)
(0.00233806 1.83392e-05 0 -0.00123963 0 0)
(0.00128205 -0.000678352 0 -0.000784524 0 0)
(0.00178123 -0.000245333 0 -0.00075857 0 0)
(0.00206481 -0.000310529 0 -0.00112642 0 0)
(0.00155781 -0.00014853 0 -0.000652953 0 0)
(0.000435677 -0.000378607 0 -0.000407009 0 0)
(0.00104542 -0.000242459 0 -0.000270983 0 0)
(0.00196808 -0.000379406 0 -0.00100065 0 0)
(0.00133372 -0.000349097 0 -0.000460818 0 0)
(0.0010306 -0.000142735 0 -0.000245333 0 0)
(0.00124893 -0.000481252 0 -0.0004483 0 0)
(0.00193948 -0.000369723 0 -0.000874731 0 0)
(0.00155116 -0.000401055 0 -0.000618566 0 0)
(0.000782217 -0.000222331 0 -0.000187599 1.69407e-20 0)
(0.000613899 -0.000504827 0 -0.000414518 0 0)
(0.00160817 -0.000550707 0 -0.000769548 0 0)
(0.000379842 -0.000320152 0 -0.000574357 0 0)
(0.0040068 -0.000241821 3.52366e-18 -0.00133123 -2.1684e-18 0)
(0.000529972 -0.000371417 0 -0.000814303 0 0)
(0.00203314 -9.96567e-05 0 -0.000876167 0 0)
(0.0024338 -7.17409e-05 0 -0.00105517 0 0)
(0.00146478 -0.000556709 0 -0.000633747 0 0)
(0.00077224 -7.52896e-05 0 -0.000164675 1.69407e-20 0)
(0.0013646 -4.50427e-05 0 -0.000528123 0 0)
(0.00251596 -3.70807e-05 0 -0.00108627 0 0)
(0.00169007 -0.00036053 0 -0.000702883 0 0)
(0.000579555 -0.000330894 0 -0.000231267 0 0)
(0.00205804 -0.000280834 0 -0.000899346 0 0)
(0.0019681 -0.000420917 0 -0.00116457 0 0)
(0.00186843 -0.000328691 0 -0.000799398 0 0)
(0.00126934 -0.000370305 0 -0.000420168 0 0)
(0.00141772 -0.000163731 0 -0.000554558 0 0)
(0.0013442 -0.000104094 0 -0.000470681 0 0)
(0.000999711 -0.000509242 0 -0.0003653 0 0)
(0.00231859 0.000159914 -2.03288e-19 -0.0006503 0 0)
(0.00120477 -0.000308999 0 -0.000359545 0 0)
(0.00133292 -0.000209727 0 -0.000443212 0 0)
(0.00195833 0.000346396 0 -0.000725428 0 0)
(0.000970408 -0.000648955 0 -0.000578668 0 0)
(0.00210806 0.000476195 2.71051e-19 -0.000862145 0 0)
(0.000736103 -0.000506338 0 -0.000352555 0 0)
(0.00148412 -0.000626608 0 -0.00103267 0 0)
(0.00144928 -0.000511022 0 -0.000953152 0 0)
(0.00135664 -0.000173151 0 -0.000482754 0 0)
(0.0013653 -0.000663373 0 -0.000928384 0 0)