/*--------------------------------*- C++ -*----------------------------------*\
| =========                 |                                                 |
| \\      /  F ield         | OpenFOAM: The Open Source CFD Toolbox           |
|  \\    /   O peration     | Version:  v2012                                 |
|   \\  /    A nd           | Website:  www.openfoam.com                      |
|    \\/     M anipulation  |                                                 |
\*---------------------------------------------------------------------------*/
FoamFile
{
    version     2.0;
    format      ascii;
    class       volSymmTensorField;
    location    "1";
    object      epsilon;
}
// * * * * * * * * * * * * * * * * * * * * * * * * * * * * * * * * * * * * * //

dimensions      [0 0 0 0 0 0 0];


internalField   nonuniform List<symmTensor> 
32000
(
(0.000758725 -4.22973e-06 1.1485e-15 -0.000323606 -5.20959e-17 0)
(0.000729456 -2.41686e-05 1.5802e-15 -0.000315257 -1.47343e-16 0)
(0.000729901 -1.46656e-06 4.17328e-16 -0.00030211 -1.70166e-16 0)
(0.000701723 -2.17844e-05 6.93881e-16 -0.000296648 1.95753e-16 0)
(0.000702156 3.45927e-07 2.69578e-16 -0.000282702 8.77445e-16 0)
(0.000675594 -1.96035e-05 4.26918e-16 -0.000279218 1.40214e-15 0)
(0.000676008 1.5137e-06 1.52984e-16 -0.000265255 1.17945e-15 0)
(0.000651123 -1.77404e-05 3.6941e-16 -0.000263 8.42967e-17 0)
(0.000651515 2.2829e-06 2.12116e-16 -0.000249508 -1.08041e-16 0)
(0.000628238 -1.61418e-05 5.21381e-16 -0.000248004 -1.40946e-16 0)
(0.000628609 2.80901e-06 3.02996e-16 -0.00023523 1.81279e-16 0)
(0.000606839 -1.47465e-05 7.9721e-17 -0.000234189 1.63931e-16 0)
(0.00060719 3.18491e-06 -2.22858e-16 -0.000222238 3.0298e-16 0)
(0.000586817 -1.35082e-05 -3.84858e-17 -0.000221487 3.80826e-16 0)
(0.00058715 3.4655e-06 1.83779e-16 -0.000210384 3.57461e-16 0)
(0.000568068 -1.23948e-05 4.11246e-16 -0.000209821 4.19695e-16 0)
(0.000568383 3.68346e-06 2.22195e-16 -0.000199548 1.62034e-16 0)
(0.000550494 -1.1384e-05 7.71535e-16 -0.000199112 2.28983e-16 0)
(0.000550793 3.85859e-06 5.3854e-16 -0.000189632 2.21177e-17 0)
(0.000534005 -1.04597e-05 5.68335e-16 -0.000189283 2.35435e-16 0)
(0.000534288 4.00313e-06 2.35966e-17 -0.000180548 2.81893e-17 0)
(0.000518518 -9.61023e-06 1.72393e-16 -0.000180263 3.46836e-16 0)
(0.000518787 4.12488e-06 1.46132e-16 -0.000172223 2.99402e-16 0)
(0.000503957 -8.82669e-06 1.78351e-16 -0.000171985 6.7226e-16 0)
(0.000504213 4.22901e-06 3.00256e-17 -0.000164591 8.26813e-16 0)
(0.000490254 -8.10194e-06 8.11593e-17 -0.00016439 9.37347e-16 0)
(0.000490497 4.31902e-06 4.9919e-17 -0.000157592 9.35558e-16 0)
(0.000477344 -7.43019e-06 2.12629e-16 -0.000157421 6.13767e-16 0)
(0.000477575 4.39744e-06 1.59303e-16 -0.000151174 4.48643e-16 0)
(0.000465169 -6.80657e-06 4.58413e-16 -0.000151028 2.68828e-16 0)
(0.00046539 4.46612e-06 2.91869e-16 -0.000145291 3.36699e-16 0)
(0.000453676 -6.22692e-06 3.17653e-16 -0.000145164 3.08618e-16 0)
(0.000453887 4.52649e-06 2.15892e-17 -0.000139897 1.67672e-16 0)
(0.000442816 -5.68762e-06 3.33919e-16 -0.000139788 9.47051e-17 0)
(0.000443018 4.57968e-06 3.06319e-16 -0.000134955 9.10188e-17 0)
(0.000432544 -5.18547e-06 4.10924e-16 -0.000134861 1.22081e-16 0)
(0.000432736 4.62661e-06 9.85099e-17 -0.000130428 1.67292e-16 0)
(0.000422817 -4.71764e-06 -8.14947e-17 -0.000130347 2.12233e-16 0)
(0.000423001 4.66807e-06 -1.77938e-16 -0.000126285 3.07209e-16 0)
(0.000413597 -4.28158e-06 -4.01717e-16 -0.000126214 3.81477e-16 0)
(0.000413773 4.70471e-06 -2.16884e-16 -0.000122493 4.65069e-16 0)
(0.000404849 -3.875e-06 -2.40152e-16 -0.000122433 3.87494e-16 0)
(0.000405018 4.73711e-06 -1.96325e-17 -0.000119027 5.94089e-16 0)
(0.000396539 -3.49583e-06 -3.73863e-17 -0.000118975 5.01823e-16 0)
(0.000396701 4.76577e-06 -1.70982e-17 -0.000115861 7.46256e-16 0)
(0.000388636 -3.14217e-06 1.7902e-16 -0.000115816 4.65069e-16 0)
(0.000388792 4.79114e-06 1.92339e-16 -0.000112971 5.17219e-16 0)
(0.000381113 -2.8123e-06 2.24308e-16 -0.000112932 3.2808e-16 0)
(0.000381262 4.81363e-06 2.82536e-17 -0.000110336 2.98806e-16 0)
(0.000373942 -2.50464e-06 -1.61834e-17 -0.000110302 3.39572e-16 0)
(0.000374086 4.83361e-06 -4.39424e-17 -0.000107936 2.70888e-16 0)
(0.0003671 -2.21774e-06 1.20058e-17 -0.000107907 2.63461e-16 0)
(0.000367238 4.85144e-06 5.54569e-17 -0.000105753 1.63172e-16 0)
(0.000360562 -1.95024e-06 1.69303e-16 -0.000105727 4.66749e-17 0)
(0.000360696 4.86744e-06 1.10375e-16 -0.000103769 -2.81893e-18 0)
(0.000354308 -1.70088e-06 1.36699e-16 -0.000103745 -1.21268e-16 0)
(0.000354437 4.88195e-06 2.38084e-17 -0.00010197 -7.05816e-17 0)
(0.000348317 -1.46846e-06 1.26349e-16 -0.000101947 -5.37764e-17 0)
(0.000348442 4.8953e-06 9.97551e-17 -0.00010034 -4.07118e-17 0)
(0.000342571 -1.25183e-06 1.92919e-16 -0.000100317 -7.49726e-17 0)
(0.000342692 4.90787e-06 8.91638e-17 -9.8866e-05 -1.20184e-16 0)
(0.000337053 -1.04983e-06 1.07112e-16 -9.88415e-05 -7.31836e-17 0)
(0.00033717 4.92007e-06 1.58615e-17 -9.7536e-05 -3.67545e-17 0)
(0.000331744 -8.61302e-07 -8.85285e-17 -9.75078e-05 2.17925e-17 0)
(0.000331858 4.93241e-06 -1.02159e-16 -9.63383e-05 4.22839e-17 0)
(0.000326631 -6.85015e-07 -7.30608e-17 -9.63038e-05 1.34821e-16 0)
(0.000326742 4.94555e-06 3.03678e-17 -9.52628e-05 2.00632e-16 0)
(0.000321698 -5.19624e-07 2.06701e-16 -9.52181e-05 2.0177e-16 0)
(0.000321806 4.96033e-06 1.71305e-16 -9.43e-05 1.57155e-16 0)
(0.000316931 -3.6362e-07 1.66441e-16 -9.424e-05 8.60857e-17 0)
(0.000317036 4.97796e-06 -8.223e-18 -9.34418e-05 4.53197e-17 0)
(0.000312317 -2.15333e-07 -6.16953e-17 -9.33586e-05 7.86589e-17 0)
(0.000312419 5.00011e-06 -5.1913e-17 -9.26807e-05 2.19876e-16 0)
(0.000307841 -7.30803e-08 -4.64115e-17 -9.25633e-05 2.50613e-16 0)
(0.000307941 5.02917e-06 6.45354e-18 -9.20105e-05 3.24664e-16 0)
(0.000303488 6.41503e-08 -1.57194e-16 -9.18422e-05 2.4503e-16 0)
(0.000303586 5.06868e-06 -1.59396e-16 -9.14251e-05 3.06612e-16 0)
(0.000299235 1.9433e-07 -2.58448e-16 -9.11813e-05 2.32561e-16 0)
(0.000299331 5.12379e-06 -9.28314e-17 -9.09167e-05 2.86717e-16 0)
(0.000295043 3.04517e-07 -1.01419e-16 -9.05606e-05 1.88489e-16 0)
(0.000757083 -2.01209e-05 1.39171e-15 -0.000315426 1.35775e-15 0)
(0.000725769 -4.23168e-05 7.32097e-16 -0.00031243 2.49464e-15 0)
(0.000727171 -1.82826e-05 1.19652e-15 -0.000296795 1.32696e-15 0)
(0.000698276 -3.88984e-05 1.42771e-15 -0.000293622 1.98089e-15 0)
(0.000699614 -1.59879e-05 1.07105e-15 -0.000279369 1.35926e-15 0)
(0.000672598 -3.55172e-05 1.70429e-15 -0.000276405 2.06297e-15 0)
(0.000673871 -1.37127e-05 1.25924e-15 -0.000263167 1.00554e-15 0)
(0.000648555 -3.23029e-05 1.4306e-15 -0.000260552 1.25215e-15 0)
(0.000649764 -1.15984e-05 8.36974e-16 -0.000248191 2.85145e-16 0)
(0.000626034 -2.93095e-05 8.45607e-16 -0.000245939 5.75169e-16 0)
(0.000627181 -9.67656e-06 3.02899e-16 -0.000234396 1.26852e-16 0)
(0.000604934 -2.65466e-05 6.76996e-16 -0.000232471 7.85504e-17 0)
(0.000606021 -7.94103e-06 6.26947e-16 -0.000221713 1.95319e-16 0)
(0.000585157 -2.40047e-05 1.78684e-15 -0.000220068 1.45717e-16 0)
(0.000586187 -6.37421e-06 1.32624e-15 -0.000210064 3.95463e-16 0)
(0.000566611 -2.16674e-05 2.41551e-15 -0.000208653 5.35271e-16 0)
(0.000567588 -4.9565e-06 2.01943e-15 -0.000199371 6.2179e-16 0)
(0.000549208 -1.95163e-05 2.05457e-15 -0.000198153 8.36733e-16 0)
(0.000550134 -3.66972e-06 8.20372e-16 -0.000189556 6.47052e-16 0)
(0.000532865 -1.75342e-05 5.82894e-16 -0.0001885 6.75783e-16 0)
(0.000533744 -2.49806e-06 4.74105e-16 -0.000180548 5.7376e-16 0)
(0.000517504 -1.5705e-05 4.11794e-16 -0.000179627 4.59214e-16 0)
(0.000518339 -1.42808e-06 1.39516e-16 -0.000172281 6.01895e-16 0)
(0.000503054 -1.40146e-05 1.75021e-16 -0.000171475 4.16388e-16 0)
(0.000503847 -4.48456e-07 2.62865e-16 -0.000164695 6.02437e-16 0)
(0.000489448 -1.24504e-05 4.48826e-16 -0.000163987 3.42012e-16 0)
(0.000490203 4.5044e-07 4.23337e-16 -0.000157735 3.64888e-16 0)
(0.000476626 -1.10013e-05 5.2037e-16 -0.00015711 2.85904e-16 0)
(0.000477344 1.2768e-06 6.02312e-16 -0.00015135 3.58329e-16 0)
(0.00046453 -9.65729e-06 8.03689e-16 -0.000150797 5.50883e-16 0)
(0.000465215 2.03768e-06 6.77958e-16 -0.000145493 4.29452e-16 0)
(0.000453109 -8.40972e-06 6.47563e-16 -0.000145004 4.6122e-16 0)
(0.000453761 2.73919e-06 5.90087e-16 -0.000140123 2.63678e-16 0)
(0.000442314 -7.25072e-06 6.77576e-16 -0.00013969 3.0954e-16 0)
(0.000442936 3.3867e-06 5.20061e-16 -0.000135202 1.67943e-16 0)
(0.0004321 -6.17328e-06 9.35971e-17 -0.000134817 4.55636e-16 0)
(0.000432695 3.98493e-06 -1.92385e-16 -0.000130693 4.49131e-16 0)
(0.000422428 -5.17108e-06 -3.19206e-16 -0.000130351 5.67742e-16 0)
(0.000422996 4.53807e-06 -4.28267e-16 -0.000126564 4.00396e-16 0)
(0.000413258 -4.23842e-06 -1.98551e-16 -0.00012626 4.24736e-16 0)
(0.000413802 5.04987e-06 -1.96501e-16 -0.000122787 3.28784e-16 0)
(0.000404555 -3.37016e-06 -7.04393e-18 -0.000122516 2.34188e-16 0)
(0.000405076 5.5237e-06 -6.94872e-17 -0.000119333 2.07028e-16 0)
(0.000396287 -2.56161e-06 6.08949e-17 -0.000119091 1.78839e-16 0)
(0.000396787 5.96257e-06 2.86256e-16 -0.000116177 2.028e-16 0)
(0.000388423 -1.80852e-06 3.76621e-16 -0.000115961 1.1151e-16 0)
(0.000388903 6.36924e-06 2.97827e-16 -0.000113296 1.92066e-16 0)
(0.000380936 -1.10702e-06 2.3492e-16 -0.000113102 1.09504e-16 0)
(0.000381397 6.74619e-06 1.14221e-16 -0.000110669 2.89536e-16 0)
(0.000373799 -4.5355e-07 2.09444e-16 -0.000110494 3.73508e-17 0)
(0.000374241 7.09571e-06 1.30104e-16 -0.000108275 8.51099e-17 0)
(0.000366986 1.55117e-07 2.79728e-16 -0.000108117 -1.88705e-16 0)
(0.000367413 7.41987e-06 2.70373e-16 -0.000106097 -1.19154e-16 0)
(0.000360477 7.2196e-07 2.74639e-16 -0.000105953 -1.95427e-16 0)
(0.000360888 7.72057e-06 1.96898e-16 -0.000104118 -1.43874e-16 0)
(0.000354249 1.24971e-06 2.28851e-16 -0.000103986 -4.58075e-17 0)
(0.000354645 7.99959e-06 2.66903e-16 -0.000102321 -7.48099e-18 0)
(0.000348282 1.74089e-06 2.80446e-16 -0.000102198 6.12574e-17 0)
(0.000348664 8.25857e-06 2.29251e-16 -0.000100693 -2.15214e-17 0)
(0.000342557 2.19781e-06 1.31771e-16 -0.000100576 -1.95156e-18 0)
(0.000342927 8.49902e-06 1.12977e-16 -9.92188e-05 -1.07878e-17 0)
(0.000337057 2.62261e-06 9.13203e-17 -9.91067e-05 1.04409e-16 0)
(0.000337415 8.72237e-06 -1.96986e-17 -9.78864e-05 9.69819e-17 0)
(0.000331765 3.01726e-06 7.87571e-17 -9.77764e-05 1.24575e-16 0)
(0.000332113 8.92994e-06 3.49486e-17 -9.66835e-05 1.40133e-16 0)
(0.000326666 3.38351e-06 1.65934e-16 -9.65733e-05 1.06143e-16 0)
(0.000327003 9.12296e-06 2.30022e-16 -9.55989e-05 1.04409e-16 0)
(0.000321743 3.72294e-06 2.31414e-16 -9.5486e-05 8.39172e-17 0)
(0.000322071 9.30244e-06 2.02002e-16 -9.46216e-05 1.12107e-16 0)
(0.000316983 4.0368e-06 9.74816e-17 -9.45037e-05 9.73614e-17 0)
(0.000317302 9.46907e-06 7.09644e-18 -9.37409e-05 1.03324e-16 0)
(0.000312372 4.32587e-06 1.07836e-16 -9.3616e-05 1.95373e-16 0)
(0.000312683 9.62268e-06 4.06982e-17 -9.2946e-05 2.01445e-16 0)
(0.000307896 4.59019e-06 9.68836e-17 -9.28131e-05 2.22749e-16 0)
(0.0003082 9.76109e-06 -1.55232e-16 -9.22249e-05 1.94831e-16 0)
(0.000303544 4.82868e-06 -2.26275e-16 -9.20864e-05 1.83339e-16 0)
(0.000303841 9.87662e-06 -3.2491e-16 -9.15634e-05 1.62468e-16 0)
(0.000299312 5.03915e-06 -1.50281e-16 -9.14305e-05 1.47885e-16 0)
(0.000299601 9.94612e-06 -9.19539e-17 -9.0941e-05 1.2387e-16 0)
(0.000295222 5.22149e-06 7.39799e-17 -9.08507e-05 -4.71628e-18 0)
(0.000753955 -3.9492e-05 1.95071e-15 -0.000312695 2.99945e-15 0)
(0.000721499 -6.12873e-05 2.88909e-15 -0.000309093 1.76069e-15 0)
(0.00072398 -3.56726e-05 1.88262e-15 -0.000293916 1.90939e-15 0)
(0.000694089 -5.59558e-05 1.20321e-15 -0.000290435 1.35249e-15 0)
(0.00069642 -3.18939e-05 1.38059e-15 -0.000276727 2.1272e-15 0)
(0.000668637 -5.09685e-05 1.6598e-15 -0.000273416 1.71906e-15 0)
(0.000670839 -2.82506e-05 2.14899e-15 -0.000260905 1.89611e-15 0)
(0.000644897 -4.62957e-05 2.18038e-15 -0.000257825 1.12486e-15 0)
(0.000646981 -2.4809e-05 1.45877e-15 -0.000246325 7.65935e-16 0)
(0.000622703 -4.19346e-05 1.58694e-15 -0.000243508 1.65666e-16 0)
(0.000624675 -2.15981e-05 1.33366e-15 -0.00023289 -7.03105e-17 0)
(0.000601923 -3.78794e-05 6.74692e-16 -0.000230343 -1.04517e-16 0)
(0.000603792 -1.86234e-05 1.17474e-15 -0.000220519 -2.11419e-18 0)
(0.000582449 -3.41179e-05 2.85348e-17 -0.000218232 5.41342e-16 0)
(0.000584219 -1.58777e-05 1.74253e-15 -0.000209135 8.2318e-16 0)
(0.000564181 -3.06335e-05 1.25407e-15 -0.00020709 1.15256e-15 0)
(0.000565859 -1.33478e-05 1.97193e-15 -0.000198664 1.07146e-15 0)
(0.00054703 -2.74075e-05 1.4117e-15 -0.000196838 7.745e-16 0)
(0.000548622 -1.10177e-05 1.2548e-15 -0.000189036 5.68556e-16 0)
(0.000530916 -2.44209e-05 7.48916e-16 -0.000187408 4.72929e-16 0)
(0.000532427 -8.87146e-06 1.47045e-17 -0.000180187 4.67291e-16 0)
(0.000515763 -2.16552e-05 -3.52308e-16 -0.000178735 4.47721e-16 0)
(0.000517198 -6.89337e-06 8.74341e-17 -0.000172056 2.56685e-16 0)
(0.000501502 -1.90926e-05 3.52061e-17 -0.000170762 3.74809e-16 0)
(0.000502865 -5.06893e-06 3.10593e-16 -0.000164587 2.77176e-16 0)
(0.000488067 -1.67169e-05 2.44376e-16 -0.000163432 3.40656e-16 0)
(0.000489363 -3.38483e-06 4.81504e-16 -0.000157728 3.27104e-16 0)
(0.0004754 -1.4513e-05 6.92778e-16 -0.000156698 2.18087e-16 0)
(0.000476634 -1.82901e-06 9.29805e-16 -0.000151431 3.70255e-16 0)
(0.000463446 -1.24673e-05 1.12424e-15 -0.000150511 2.75496e-16 0)
(0.000464621 -3.90547e-07 9.61281e-16 -0.000145652 4.89951e-16 0)
(0.000452154 -1.05673e-05 8.94636e-16 -0.00014483 2.50017e-16 0)
(0.000453274 9.40385e-07 6.64355e-16 -0.00014035 2.68503e-16 0)
(0.000441478 -8.80153e-06 5.03961e-16 -0.000139616 8.41883e-17 0)
(0.000442546 2.17265e-06 9.398e-17 -0.000135489 4.13569e-16 0)
(0.000431373 -7.15979e-06 -3.06152e-17 -0.000134833 3.87548e-16 0)
(0.000432393 3.31426e-06 -1.58703e-16 -0.000131033 5.48661e-16 0)
(0.000421801 -5.63263e-06 -2.08712e-16 -0.000130447 1.94994e-16 0)
(0.000422775 4.37244e-06 -1.43487e-16 -0.000126951 2.42319e-16 0)
(0.000412722 -4.21154e-06 -2.0282e-16 -0.000126427 9.32956e-17 0)
(0.000413655 5.35373e-06 -6.90366e-17 -0.000123215 1.85236e-16 0)
(0.000404105 -2.88872e-06 -6.64989e-17 -0.000122746 -2.87856e-17 0)
(0.000404997 6.26407e-06 1.25158e-16 -0.000119798 -3.25261e-18 0)
(0.000395915 -1.65709e-06 2.48177e-16 -0.000119377 -2.0963e-16 0)
(0.00039677 7.10884e-06 2.73781e-16 -0.000116674 -1.11402e-16 0)
(0.000388123 -5.10178e-07 2.12236e-16 -0.000116297 -2.66172e-16 0)
(0.000388943 7.89295e-06 2.5413e-16 -0.000113822 -1.18124e-16 0)
(0.000380703 5.57917e-07 3.23092e-16 -0.000113482 -3.00378e-16 0)
(0.000381489 8.62086e-06 3.94897e-16 -0.000111219 -3.13605e-16 0)
(0.000373627 1.55259e-06 3.59176e-16 -0.000110912 -4.85668e-16 0)
(0.000374383 9.29664e-06 3.1902e-16 -0.000108847 -3.96872e-16 0)
(0.000366872 2.47878e-06 2.01651e-16 -0.000108569 -3.03306e-16 0)
(0.000367599 9.92401e-06 1.68363e-16 -0.000106688 -1.68377e-16 0)
(0.000360415 3.34099e-06 3.31935e-17 -0.000106434 -1.16389e-16 0)
(0.000361115 1.05064e-05 1.7475e-16 -0.000104724 -4.64039e-17 0)
(0.000354236 4.14335e-06 1.93879e-16 -0.000104491 -4.45607e-17 0)
(0.00035491 1.10468e-05 2.62634e-16 -0.00010294 2.47198e-17 0)
(0.000348314 4.88962e-06 1.49661e-16 -0.000102725 5.42101e-18 0)
(0.000348965 1.15481e-05 7.25399e-17 -0.000101321 6.02274e-17 0)
(0.000342631 5.58323e-06 2.20195e-17 -0.000101121 1.10589e-17 0)
(0.00034326 1.2013e-05 6.16369e-17 -9.98542e-05 6.30464e-17 0)
(0.00033717 6.22728e-06 9.07681e-18 -9.96652e-05 1.35525e-18 0)
(0.000337778 1.24436e-05 1.36399e-16 -9.85264e-05 7.20452e-17 0)
(0.000331914 6.82457e-06 9.77612e-17 -9.83461e-05 -2.25514e-17 0)
(0.000332503 1.2842e-05 1.69393e-16 -9.73256e-05 -2.71051e-19 0)
(0.000326848 7.37755e-06 3.61378e-17 -9.71516e-05 -4.04407e-17 0)
(0.000327419 1.32099e-05 3.85569e-17 -9.62403e-05 4.87891e-17 0)
(0.000321957 7.88836e-06 1.29301e-16 -9.60707e-05 2.75387e-17 0)
(0.000322511 1.35487e-05 2.19178e-16 -9.52597e-05 4.96022e-17 0)
(0.000317228 8.35874e-06 3.25887e-16 -9.50933e-05 -7.03647e-17 0)
(0.000317766 1.38591e-05 2.97322e-16 -9.43734e-05 7.32921e-17 0)
(0.000312647 8.79006e-06 2.4773e-16 -9.42097e-05 -1.85941e-17 0)
(0.000313171 1.41411e-05 1.1005e-16 -9.35717e-05 1.29671e-16 0)
(0.000308204 9.18339e-06 -1.84209e-16 -9.34116e-05 -4.49944e-17 0)
(0.000308715 1.43942e-05 -2.65979e-16 -9.2846e-05 4.28802e-17 0)
(0.00030389 9.53985e-06 -3.65363e-16 -9.26917e-05 -1.08637e-16 0)
(0.000304388 1.46183e-05 -1.50565e-16 -9.21911e-05 2.43403e-17 0)
(0.000299699 9.86151e-06 -7.23976e-17 -9.20442e-05 -7.06358e-17 0)
(0.000300185 1.48214e-05 9.21064e-17 -9.16127e-05 -6.98768e-17 0)
(0.000295616 1.01528e-05 1.78263e-16 -9.14613e-05 -1.27556e-16 0)
(0.000748484 -5.9443e-05 3.9499e-15 -0.000309405 3.91072e-16 0)
(0.000715455 -8.02165e-05 2.87911e-15 -0.000304649 -5.50612e-16 0)
(0.000719079 -5.34157e-05 1.1402e-15 -0.000290822 2.88994e-16 0)
(0.000688484 -7.29318e-05 9.18089e-16 -0.000286443 -9.11814e-17 0)
(0.00069188 -4.78314e-05 1.26384e-15 -0.000273867 5.86228e-16 0)
(0.000663432 -6.6227e-05 1.96108e-15 -0.000269809 -1.76725e-17 0)
(0.000666628 -4.26188e-05 2.38616e-15 -0.000258335 3.66894e-16 0)
(0.00064009 -6.00181e-05 1.65798e-15 -0.000254584 4.47233e-16 0)
(0.000643105 -3.77564e-05 1.58162e-15 -0.000244072 6.10785e-16 0)
(0.000618291 -5.42576e-05 9.08534e-16 -0.000240623 1.36989e-15 0)
(0.00062114 -3.32319e-05 2.6565e-16 -0.000230958 8.73867e-16 0)
(0.000597896 -4.8912e-05 3.00338e-16 -0.000227804 1.2631e-15 0)
(0.000600591 -2.90317e-05 -4.22534e-16 -0.000218895 8.10387e-16 0)
(0.000578789 -4.39527e-05 6.37646e-18 -0.000216024 5.81349e-16 0)
(0.00058134 -2.5139e-05 -1.34034e-17 -0.000207797 6.42661e-16 0)
(0.000560867 -3.93531e-05 6.56688e-16 -0.000205193 4.71628e-18 0)
(0.000563284 -2.15354e-05 1.3766e-15 -0.000197587 2.33375e-16 0)
(0.000544041 -3.50877e-05 1.14412e-15 -0.000195231 -2.63732e-16 0)
(0.000546332 -1.82011e-05 6.78223e-16 -0.000188195 1.93422e-16 0)
(0.000528227 -3.11319e-05 4.63666e-16 -0.000186069 5.15647e-16 0)
(0.0005304 -1.51167e-05 1.65585e-16 -0.000179557 7.73904e-16 0)
(0.00051335 -2.74627e-05 6.6755e-16 -0.000177642 7.8545e-16 0)
(0.000515414 -1.22632e-05 8.87894e-17 -0.000171616 5.70832e-16 0)
(0.000499344 -2.40581e-05 2.32575e-16 -0.000169891 7.52491e-16 0)
(0.000501305 -9.62264e-06 1.13333e-16 -0.000164315 6.13279e-16 0)
(0.000486144 -2.08979e-05 3.89927e-16 -0.000162765 4.98137e-16 0)
(0.000488008 -7.17816e-06 7.308e-16 -0.000157607 1.15522e-16 0)
(0.000473693 -1.79633e-05 4.69297e-16 -0.000156214 -2.23075e-16 0)
(0.000475467 -4.91425e-06 6.31582e-16 -0.000151444 -2.06161e-16 0)
(0.000461938 -1.52371e-05 1.06896e-16 -0.000150193 -1.69244e-16 0)
(0.000463627 -2.81661e-06 5.46519e-16 -0.000145785 8.20199e-17 0)
(0.000450829 -1.27032e-05 2.17979e-16 -0.000144662 1.15793e-16 0)
(0.000452438 -8.72133e-07 4.13881e-16 -0.00014059 1.02349e-16 0)
(0.000440321 -1.03472e-05 2.98698e-17 -0.000139583 2.08275e-16 0)
(0.000441855 9.31156e-07 -1.21973e-18 -0.000135824 1.66262e-16 0)
(0.000430371 -8.15571e-06 1.3146e-16 -0.00013492 1.39103e-16 0)
(0.000431836 2.6042e-06 4.77184e-17 -0.000131453 1.37694e-17 0)
(0.000420942 -6.11648e-06 2.05375e-16 -0.000130643 -7.74662e-17 0)
(0.000422341 4.15696e-06 -1.15684e-16 -0.000127448 -3.98986e-17 0)
(0.000411996 -4.21837e-06 1.59174e-16 -0.000126721 -1.04029e-16 0)
(0.000413333 5.59856e-06 6.98768e-17 -0.000123779 -1.78893e-16 0)
(0.0004035 -2.45119e-06 4.28883e-16 -0.000123127 -3.71231e-16 0)
(0.000404779 6.93729e-06 4.08554e-16 -0.000120422 -4.19207e-16 0)
(0.000395423 -8.05587e-07 6.55861e-16 -0.000119836 -4.62141e-16 0)
(0.000396648 8.18073e-06 4.27216e-16 -0.000117351 -4.00721e-16 0)
(0.000387736 7.26965e-07 5.38144e-16 -0.000116825 -3.46836e-16 0)
(0.00038891 9.3358e-06 3.8685e-16 -0.000114546 -3.9053e-16 0)
(0.000380412 2.15428e-06 4.11834e-16 -0.000114072 -3.41524e-16 0)
(0.000381538 1.04088e-05 3.12169e-16 -0.000111985 -4.2273e-16 0)
(0.000373426 3.48351e-06 3.27246e-16 -0.000111556 -2.84549e-16 0)
(0.000374507 1.14055e-05 2.57302e-16 -0.000109649 -2.57552e-16 0)
(0.000366754 4.72118e-06 4.58394e-16 -0.000109261 -1.7911e-16 0)
(0.000367793 1.23312e-05 2.62465e-16 -0.00010752 -1.73906e-16 0)
(0.000360375 5.87327e-06 3.01903e-16 -0.000107168 -2.3061e-16 0)
(0.000361375 1.31907e-05 8.93586e-17 -0.000105583 -1.68051e-16 0)
(0.000354267 6.94525e-06 1.9046e-16 -0.000105261 -1.43819e-16 0)
(0.00035523 1.39884e-05 1.83339e-16 -0.000103822 -3.75134e-17 0)
(0.000348413 7.94208e-06 1.23125e-16 -0.000103525 3.38271e-17 0)
(0.000349341 1.47282e-05 3.85908e-17 -0.000102223 2.75387e-17 0)
(0.000342792 8.86832e-06 8.45e-18 -0.000101948 4.36391e-17 0)
(0.000343688 1.54138e-05 -5.92652e-17 -0.000100771 -3.38813e-17 0)
(0.00033739 9.72806e-06 -1.3234e-16 -0.000100515 -7.75205e-18 0)
(0.000338255 1.60483e-05 -9.69785e-17 -9.9456e-05 -6.53232e-17 0)
(0.00033219 1.0525e-05 2.06269e-17 -9.92142e-05 -1.15684e-16 0)
(0.000333026 1.66347e-05 8.50353e-17 -9.82649e-05 -1.10209e-16 0)
(0.000327176 1.12625e-05 1.16809e-16 -9.80351e-05 -1.44958e-16 0)
(0.000327986 1.71754e-05 1.56522e-16 -9.71871e-05 -9.21572e-17 0)
(0.000322335 1.19435e-05 2.96289e-16 -9.6967e-05 -1.2902e-16 0)
(0.00032312 1.76726e-05 3.73003e-16 -9.62123e-05 -1.25009e-16 0)
(0.000317654 1.25707e-05 2.3827e-16 -9.59999e-05 -9.87708e-17 0)
(0.000318416 1.81281e-05 1.43714e-16 -9.53311e-05 -1.3211e-16 0)
(0.000313121 1.31464e-05 1.07939e-16 -9.51251e-05 -3.72966e-17 0)
(0.000313862 1.85437e-05 -8.05393e-17 -9.45352e-05 -9.42714e-17 0)
(0.000308725 1.36732e-05 1.72337e-16 -9.43342e-05 -7.18284e-17 0)
(0.000309445 1.89215e-05 -4.0766e-17 -9.38176e-05 -1.70437e-16 0)
(0.000304455 1.41534e-05 1.75099e-16 -9.36195e-05 -1.64582e-16 0)
(0.000305157 1.92644e-05 -7.98481e-17 -9.31722e-05 -1.92934e-16 0)
(0.000300301 1.45898e-05 5.71713e-17 -9.29734e-05 -1.93422e-16 0)
(0.000300985 1.95752e-05 1.5043e-16 -9.25913e-05 -1.25984e-16 0)
(0.00029625 1.49848e-05 2.61035e-16 -9.23883e-05 -8.00141e-17 0)
(0.000740916 -7.91856e-05 2.59848e-15 -0.000304969 -9.40057e-16 0)
(0.000707521 -9.87697e-05 1.05733e-15 -0.000299027 -5.03124e-16 0)
(0.000712329 -7.10925e-05 1.12538e-15 -0.00028688 -4.87945e-16 0)
(0.000681259 -8.96207e-05 7.40002e-16 -0.000281478 -3.67707e-16 0)
(0.000685768 -6.3682e-05 1.23244e-15 -0.000270348 -5.64598e-16 0)
(0.00065682 -8.12213e-05 9.92452e-16 -0.000265411 -3.72152e-16 0)
(0.000661059 -5.68478e-05 1.00969e-15 -0.000255213 2.59883e-16 0)
(0.000634035 -7.34772e-05 8.52596e-16 -0.000250691 4.35253e-16 0)
(0.000638029 -5.05251e-05 8.3861e-16 -0.000241332 1.37824e-15 0)
(0.000612754 -6.63187e-05 9.94017e-16 -0.000237194 9.70253e-16 0)
(0.000616523 -4.4669e-05 1.09106e-15 -0.000228587 1.34929e-15 0)
(0.000592846 -5.96918e-05 1.17143e-15 -0.000224805 6.36318e-16 0)
(0.000596406 -3.92435e-05 7.91894e-16 -0.000216874 3.27212e-16 0)
(0.000574195 -5.3552e-05 3.07995e-16 -0.000213426 5.6758e-17 0)
(0.000577563 -3.42172e-05 1.8855e-16 -0.000206105 -3.16316e-16 0)
(0.0005567 -4.78604e-05 3.41266e-16 -0.000202966 1.92554e-16 0)
(0.000559889 -2.95611e-05 5.87793e-16 -0.000196199 1.74014e-17 0)
(0.000540272 -4.25821e-05 1.99141e-16 -0.000193349 5.05997e-16 0)
(0.000543294 -2.52479e-05 5.4885e-16 -0.000187089 5.40258e-16 0)
(0.000524828 -3.76853e-05 6.14661e-16 -0.000184504 8.7094e-16 0)
(0.000527694 -2.12521e-05 1.02355e-15 -0.000178708 8.55219e-16 0)
(0.000510296 -3.31407e-05 4.79536e-16 -0.000176369 6.28349e-16 0)
(0.000513016 -1.75497e-05 2.64986e-16 -0.000171 7.40076e-16 0)
(0.000496608 -2.89214e-05 7.59416e-17 -0.000168886 6.62773e-16 0)
(0.000499192 -1.41182e-05 3.20063e-16 -0.000163913 5.60533e-16 0)
(0.000483703 -2.50025e-05 3.70004e-16 -0.000162004 4.77266e-16 0)
(0.000486159 -1.09369e-05 1.83745e-16 -0.000157397 7.41594e-17 0)
(0.000471524 -2.13612e-05 -5.84724e-17 -0.000155676 3.07371e-17 0)
(0.000473861 -7.9865e-06 -2.85193e-16 -0.000151408 -2.32345e-16 0)
(0.000460021 -1.79766e-05 -3.52068e-16 -0.000149857 -9.00972e-17 0)
(0.000462245 -5.24934e-06 -2.75157e-16 -0.000145906 7.86047e-18 0)
(0.000449145 -1.48292e-05 3.77099e-17 -0.00014451 -2.32887e-16 0)
(0.000451264 -2.70909e-06 1.52086e-16 -0.000140853 -1.45283e-17 0)
(0.000438852 -1.19013e-05 6.16437e-17 -0.000139597 -3.55673e-16 0)
(0.000440872 -3.50779e-07 7.10898e-17 -0.000136214 -1.51626e-16 0)
(0.000429101 -9.17675e-06 1.0489e-16 -0.000135085 -4.29344e-16 0)
(0.000431029 1.8393e-06 3.21086e-16 -0.000131958 -2.22153e-16 0)
(0.000419856 -6.64063e-06 1.31819e-16 -0.000130943 -3.38054e-16 0)
(0.000421696 3.87372e-06 2.86995e-16 -0.000128055 -2.52511e-16 0)
(0.00041108 -4.27927e-06 2.99518e-16 -0.000127144 -3.63479e-16 0)
(0.000412839 5.76398e-06 5.25438e-16 -0.000124478 -4.02673e-16 0)
(0.000402742 -2.08017e-06 5.20607e-16 -0.00012366 -4.20996e-16 0)
(0.000404424 7.52062e-06 6.6835e-16 -0.000121202 -4.31838e-16 0)
(0.000394811 -3.18803e-08 4.6292e-16 -0.000120467 -3.73399e-16 0)
(0.000396421 9.15328e-06 5.61244e-16 -0.000118205 -3.51119e-16 0)
(0.00038726 1.8761e-06 3.57136e-16 -0.000117543 -3.66135e-16 0)
(0.000388801 1.06708e-05 3.60348e-16 -0.000115464 -3.13714e-16 0)
(0.000380061 3.65339e-06 4.0148e-16 -0.000114868 -3.57949e-16 0)
(0.000381539 1.20812e-05 4.66342e-16 -0.00011296 -2.49854e-16 0)
(0.000373192 5.3088e-06 5.55484e-16 -0.000112423 -2.13317e-16 0)
(0.00037461 1.33919e-05 6.11124e-16 -0.000110674 -1.7125e-16 0)
(0.000366629 6.8504e-06 5.37608e-16 -0.000110188 -2.11148e-16 0)
(0.000367991 1.46096e-05 4.19776e-16 -0.00010859 -2.74412e-16 0)
(0.00036035 8.28556e-06 2.02583e-16 -0.000108149 -2.30772e-16 0)
(0.00036166 1.57405e-05 1.84375e-16 -0.000106691 -1.62034e-16 0)
(0.000354337 9.62104e-06 5.38239e-17 -0.000106289 -9.26451e-17 0)
(0.000355597 1.67903e-05 2.85281e-18 -0.000104963 -2.60209e-18 0)
(0.000348571 1.0863e-05 -8.25281e-17 -0.000104594 -6.9931e-18 0)
(0.000349784 1.7764e-05 1.03745e-17 -0.000103391 4.60786e-17 0)
(0.000343034 1.20171e-05 4.07457e-17 -0.000103052 -3.8435e-17 0)
(0.000344203 1.86663e-05 -3.58735e-17 -0.000101964 -1.41488e-17 0)
(0.000337709 1.30884e-05 7.84691e-18 -0.000101648 -7.54063e-17 0)
(0.000338837 1.95014e-05 2.6197e-17 -0.000100668 -1.18395e-16 0)
(0.000332582 1.40817e-05 2.71667e-16 -0.000100373 -1.88651e-16 0)
(0.000333672 2.02732e-05 2.92816e-16 -9.94937e-05 -2.1825e-16 0)
(0.000327638 1.50011e-05 2.73775e-16 -9.92153e-05 -2.70454e-16 0)
(0.000328692 2.0985e-05 2.34621e-16 -9.84295e-05 -2.30176e-16 0)
(0.000322863 1.58506e-05 2.33097e-16 -9.81645e-05 -2.7555e-16 0)
(0.000323883 2.164e-05 1.63579e-16 -9.74661e-05 -1.45337e-16 0)
(0.000318245 1.66337e-05 -3.31359e-18 -9.72115e-05 -2.34838e-16 0)
(0.000319234 2.22412e-05 3.9675e-17 -9.65945e-05 -9.1073e-17 0)
(0.000313772 1.73537e-05 2.79792e-17 -9.63476e-05 -1.50379e-16 0)
(0.000314732 2.27914e-05 3.45501e-16 -9.58067e-05 -7.23705e-17 0)
(0.000309433 1.80138e-05 2.30379e-16 -9.55644e-05 -1.1292e-16 0)
(0.000310365 2.32934e-05 2.66626e-16 -9.50948e-05 -1.06957e-16 0)
(0.000305217 1.86169e-05 -4.84096e-17 -9.48543e-05 -6.863e-17 0)
(0.000306123 2.37498e-05 -2.74439e-18 -9.44513e-05 -1.29725e-16 0)
(0.000301112 1.91657e-05 1.83162e-17 -9.42095e-05 -7.0961e-17 0)
(0.000301995 2.41632e-05 1.91064e-16 -9.38686e-05 -9.04767e-17 0)
(0.000297109 1.96627e-05 3.94128e-16 -9.36231e-05 1.21485e-16 0)
(0.000731392 -9.8435e-05 8.47182e-16 -0.000299325 -3.77899e-16 0)
(0.000697757 -0.000116762 6.99961e-16 -0.000292261 -7.99599e-17 0)
(0.000703779 -8.84275e-05 5.30907e-16 -0.000281931 -9.06393e-17 0)
(0.000672401 -0.000105853 9.3545e-16 -0.000275524 -2.27086e-16 0)
(0.000678054 -7.9265e-05 9.06149e-16 -0.000266002 -3.14907e-16 0)
(0.00064876 -9.58309e-05 8.04099e-16 -0.000260175 -5.14074e-16 0)
(0.000654075 -7.08415e-05 7.36431e-16 -0.000251405 -3.89229e-16 0)
(0.000626692 -8.65997e-05 2.65819e-16 -0.000246096 -9.55724e-16 0)
(0.000631698 -6.30749e-05 5.43917e-16 -0.000238017 -5.13912e-16 0)
(0.000606065 -7.80793e-05 8.49527e-16 -0.000233177 -9.37076e-16 0)
(0.000610786 -5.59007e-05 1.38012e-15 -0.000225726 -1.39537e-16 0)
(0.000586758 -7.02024e-05 1.61218e-15 -0.000221315 -4.22676e-16 0)
(0.000591217 -4.92661e-05 9.13278e-16 -0.000214435 9.24824e-17 0)
(0.000568664 -6.29119e-05 1.05384e-15 -0.000210417 -3.1019e-16 0)
(0.00057288 -4.31258e-05 5.91514e-16 -0.000204056 1.62197e-16 0)
(0.000551686 -5.6158e-05 7.17688e-16 -0.0002004 9.8554e-17 0)
(0.000555675 -3.74398e-05 7.89164e-17 -0.000194512 6.1458e-16 0)
(0.000535736 -4.98967e-05 -4.46556e-18 -0.000191189 6.02816e-17 0)
(0.000539515 -3.21723e-05 1.8756e-16 -0.000185733 2.88344e-16 0)
(0.000520737 -4.40885e-05 3.62218e-16 -0.000182717 -9.36751e-17 0)
(0.00052432 -2.72905e-05 2.54388e-16 -0.000177658 2.7452e-16 0)
(0.000506616 -3.86977e-05 -1.46909e-17 -0.000174924 -9.54098e-17 0)
(0.000510016 -2.27646e-05 2.69153e-17 -0.000170229 1.92392e-16 0)
(0.00049331 -3.36916e-05 7.06154e-17 -0.000167754 -2.13696e-16 0)
(0.000496538 -1.85669e-05 1.72015e-16 -0.000163396 1.84423e-16 0)
(0.000480758 -2.90408e-05 3.02418e-16 -0.000161158 -3.94975e-16 0)
(0.000483826 -1.46724e-05 2.57322e-16 -0.000157113 -1.36989e-16 0)
(0.000468907 -2.4718e-05 -4.7854e-17 -0.00015509 -7.57424e-16 0)
(0.000471824 -1.10579e-05 -4.31472e-16 -0.000151335 -4.38506e-16 0)
(0.000457706 -2.06984e-05 -3.08815e-16 -0.00014951 -7.81818e-16 0)
(0.000460483 -7.70193e-06 8.16472e-17 -0.000146024 -6.60984e-16 0)
(0.000447111 -1.69593e-05 3.33189e-16 -0.000144379 -8.37167e-16 0)
(0.000449756 -4.58511e-06 1.95604e-16 -0.000141144 -7.36607e-16 0)
(0.000437077 -1.34798e-05 4.31716e-17 -0.000139663 -7.02184e-16 0)
(0.000439599 -1.68947e-06 -5.59855e-17 -0.000136662 -5.89914e-16 0)
(0.000427568 -1.02408e-05 1.69136e-17 -0.000135329 -5.25459e-16 0)
(0.000429973 1.00143e-06 -6.67462e-18 -0.000132547 -4.76127e-16 0)
(0.000418545 -7.2249e-06 1.1807e-16 -0.000131348 -5.30988e-16 0)
(0.000420841 3.50268e-06 2.70793e-16 -0.000128771 -4.99275e-16 0)
(0.000409976 -4.41594e-06 3.80494e-16 -0.000127694 -4.6496e-16 0)
(0.000412169 5.82808e-06 4.05973e-16 -0.000125309 -3.46619e-16 0)
(0.000401829 -1.79925e-06 3.07981e-16 -0.000124341 -2.83356e-16 0)
(0.000403926 7.99031e-06 2.24111e-16 -0.000122136 -3.02167e-16 0)
(0.000394076 6.38665e-07 1.99263e-16 -0.000121266 -2.98752e-16 0)