/*--------------------------------*- C++ -*----------------------------------*\
| =========                 |                                                 |
| \\      /  F ield         | OpenFOAM: The Open Source CFD Toolbox           |
|  \\    /   O peration     | Version:  v2012                                 |
|   \\  /    A nd           | Website:  www.openfoam.com                      |
|    \\/     M anipulation  |                                                 |
\*---------------------------------------------------------------------------*/
FoamFile
{
    version     2.0;
    format      ascii;
    class       pointVectorField;
    location    "1";
    object      pointD;
}
// * * * * * * * * * * * * * * * * * * * * * * * * * * * * * * * * * * * * * //

dimensions      [0 1 0 0 0 0 0];


internalField   nonuniform List<vector> 
32562
(
(0.0003543 0 0)
(0.000505904 0 0)
(0.000466795 -4.66784e-05 0)
(0 -0.000249623 0)
(0 -0.000192278 0)
(0.00036623 0 0)
(0 -0.000229943 0)
(0.000214548 -7.98449e-05 0)
(0.000106613 -0.000148147 0)
(0.00048802 -1.45554e-05 0)
(0.000257926 -0.000116471 0)
(0.000257926 -0.000116471 0)
(0.000214548 -7.98449e-05 0)
(0 -0.000229943 0)
(0 -0.000192278 0)
(0.0003543 0 0)
(0.00036623 0 0)
(0.000505904 0 0)
(0.00048802 -1.45554e-05 0)
(0.000466795 -4.66784e-05 0)
(0.000106613 -0.000148147 0)
(0 -0.000249623 0)
(4.34601e-06 -0.000229777 0)
(8.69995e-06 -0.000229299 0)
(1.30689e-05 -0.000228508 0)
(1.74602e-05 -0.000227407 0)
(2.18809e-05 -0.000226002 0)
(2.63379e-05 -0.000224299 0)
(3.08376e-05 -0.000222306 0)
(3.5386e-05 -0.000220032 0)
(3.99886e-05 -0.000217487 0)
(4.46506e-05 -0.000214683 0)
(4.93764e-05 -0.000211632 0)
(5.41699e-05 -0.000208347 0)
(5.90346e-05 -0.000204842 0)
(6.39731e-05 -0.000201131 0)
(6.89877e-05 -0.000197229 0)
(7.40797e-05 -0.000193152 0)
(7.92502e-05 -0.000188915 0)
(8.44995e-05 -0.000184533 0)
(8.98274e-05 -0.000180023 0)
(9.52329e-05 -0.0001754 0)
(0.000100715 -0.00017068 0)
(0.000106271 -0.000165877 0)
(0.0001119 -0.000161007 0)
(0.000117598 -0.000156084 0)
(0.000123362 -0.000151123 0)
(0.000129189 -0.000146136 0)
(0.000135074 -0.000141138 0)
(0.000141012 -0.00013614 0)
(0.000147001 -0.000131156 0)
(0.000153033 -0.000126195 0)
(0.000159104 -0.000121269 0)
(0.000165209 -0.000116388 0)
(0.000171341 -0.000111561 0)
(0.000177494 -0.000106797 0)
(0.000183664 -0.000102103 0)
(0.000189842 -9.74875e-05 0)
(0.000196025 -9.29551e-05 0)
(0.000202205 -8.85095e-05 0)
(0.000208381 -8.41486e-05 0)
(0.000220638 -7.58e-05 0)
(0.000226705 -7.18434e-05 0)
(0.000232738 -6.79887e-05 0)
(0.000238728 -6.42436e-05 0)
(0.000244665 -6.06133e-05 0)
(0.000250542 -5.71016e-05 0)
(0.00025635 -5.37109e-05 0)
(0.000262083 -5.04431e-05 0)
(0.000267733 -4.72992e-05 0)
(0.000273291 -4.42798e-05 0)
(0.000278751 -4.1385e-05 0)
(0.000284105 -3.86144e-05 0)
(0.000289347 -3.59672e-05 0)
(0.000294468 -3.34423e-05 0)
(0.000299462 -3.10382e-05 0)
(0.000304323 -2.87529e-05 0)
(0.000309042 -2.65842e-05 0)
(0.000313615 -2.45297e-05 0)
(0.000318033 -2.25865e-05 0)
(0.000322292 -2.07515e-05 0)
(0.000326384 -1.90212e-05 0)
(0.000330304 -1.73922e-05 0)
(0.000334047 -1.58604e-05 0)
(0.000337607 -1.44218e-05 0)
(0.000340978 -1.3072e-05 0)
(0.000344156 -1.18065e-05 0)
(0.000347136 -1.06206e-05 0)
(0.000349913 -9.50929e-06 0)
(0.000352484 -8.46754e-06 0)
(0.000354845 -7.49008e-06 0)
(0.000356991 -6.57151e-06 0)
(0.000358921 -5.70629e-06 0)
(0.00036063 -4.88876e-06 0)
(0.000362116 -4.11315e-06 0)
(0.000363377 -3.37357e-06 0)
(0.000364411 -2.66403e-06 0)
(0.000365216 -1.97845e-06 0)
(0.00036579 -1.3106e-06 0)
(0.000366131 -6.53907e-07 0)
(0.000355021 0 0)
(0.000355693 0 0)
(0.000356317 0 0)
(0.000356897 0 0)
(0.000357436 0 0)
(0.000357936 0 0)
(0.000358401 0 0)
(0.000358833 0 0)
(0.000359236 0 0)
(0.000359611 0 0)
(0.000359962 0 0)
(0.000360291 0 0)
(0.000360599 0 0)
(0.00036089 0 0)
(0.000361164 0 0)
(0.000361424 0 0)
(0.000361672 0 0)
(0.000361908 0 0)
(0.000362134 0 0)
(0.000362352 0 0)
(0.000362562 0 0)
(0.000362766 0 0)
(0.000362965 0 0)
(0.000363159 0 0)
(0.00036335 0 0)
(0.000363538 0 0)
(0.000363725 0 0)
(0.00036391 0 0)
(0.000364095 0 0)
(0.00036428 0 0)
(0.000364466 0 0)
(0.000364653 0 0)
(0.000364841 0 0)
(0.000365031 0 0)
(0.000365224 0 0)
(0.000365419 0 0)
(0.000365617 0 0)
(0.000365818 0 0)
(0.000366022 0 0)
(0.000366794 0 0)
(0.00036738 0 0)
(0.000367994 0 0)
(0.000368641 0 0)
(0.000369323 0 0)
(0.000370042 0 0)
(0.000370798 0 0)
(0.000371593 0 0)
(0.000372427 0 0)
(0.000373301 0 0)
(0.000374215 0 0)
(0.000375168 0 0)
(0.000376161 0 0)
(0.000377194 0 0)
(0.000378266 0 0)
(0.000379376 0 0)
(0.000380526 0 0)
(0.000381713 0 0)
(0.000382938 0 0)
(0.0003842 0 0)
(0.000385498 0 0)
(0.000386833 0 0)
(0.000388203 0 0)
(0.000389609 0 0)
(0.000391049 0 0)
(0.000392523 0 0)
(0.00039403 0 0)
(0.000395571 0 0)
(0.000397144 0 0)
(0.000398748 0 0)
(0.000400384 0 0)
(0.000402051 0 0)
(0.000403747 0 0)
(0.000405474 0 0)
(0.000407229 0 0)
(0.000409013 0 0)
(0.000410825 0 0)
(0.000412665 0 0)
(0.000414531 0 0)
(0.000416424 0 0)
(0.000418342 0 0)
(0.000420286 0 0)
(0.000422254 0 0)
(0.000424247 0 0)
(0.000426262 0 0)
(0.000428301 0 0)
(0.000430362 0 0)
(0.000432445 0 0)
(0.000434548 0 0)
(0.000436673 0 0)
(0.000438817 0 0)
(0.00044098 0 0)
(0.000443161 0 0)
(0.000445361 0 0)
(0.000447577 0 0)
(0.00044981 0 0)
(0.000452058 0 0)
(0.000454322 0 0)
(0.000456599 0 0)
(0.00045889 0 0)
(0.000461193 0 0)
(0.000463508 0 0)
(0.000465834 0 0)
(0.000468169 0 0)
(0.000470513 0 0)
(0.000472865 0 0)
(0.000475223 0 0)
(0.000477587 0 0)
(0.000479955 0 0)
(0.000482326 0 0)
(0.000484699 0 0)
(0.000487073 0 0)
(0.000489446 0 0)
(0.000491816 0 0)
(0.000494183 0 0)
(0.000496544 0 0)
(0.000498897 0 0)
(0.000501243 0 0)
(0.000503578 0 0)
(0.000505878 -1.80477e-07 0)
(0.000505832 -3.6413e-07 0)
(0.000505762 -5.49773e-07 0)
(0.000505665 -7.37779e-07 0)
(0.000505543 -9.28826e-07 0)
(0.000505394 -1.12366e-06 0)
(0.000505218 -1.32305e-06 0)
(0.000505017 -1.52775e-06 0)
(0.00050479 -1.73852e-06 0)
(0.000504538 -1.95608e-06 0)
(0.00050426 -2.18116e-06 0)
(0.000503957 -2.41448e-06 0)
(0.000503631 -2.65672e-06 0)
(0.00050328 -2.90858e-06 0)
(0.000502906 -3.1707e-06 0)
(0.000502509 -3.44375e-06 0)
(0.00050209 -3.72835e-06 0)
(0.000501649 -4.0251e-06 0)
(0.000501187 -4.3346e-06 0)
(0.000500705 -4.65742e-06 0)
(0.000500203 -4.9941e-06 0)
(0.000499682 -5.34516e-06 0)
(0.000499143 -5.7111e-06 0)
(0.000498587 -6.0924e-06 0)
(0.000498014 -6.48949e-06 0)
(0.000497425 -6.9028e-06 0)
(0.000496821 -7.33272e-06 0)
(0.000496203 -7.77961e-06 0)
(0.000495571 -8.24381e-06 0)
(0.000494928 -8.7256e-06 0)
(0.000494273 -9.22528e-06 0)
(0.000493607 -9.74306e-06 0)
(0.000492932 -1.02792e-05 0)
(0.000492249 -1.08338e-05 0)
(0.000491558 -1.1407e-05 0)
(0.00049086 -1.1999e-05 0)
(0.000490156 -1.26098e-05 0)
(0.000489448 -1.32395e-05 0)
(0.000488736 -1.38881e-05 0)
(0.000487705 -1.48565e-05 0)
(0.000487389 -1.51612e-05 0)
(0.000487072 -1.54694e-05 0)
(0.000486755 -1.57813e-05 0)
(0.000486438 -1.60968e-05 0)
(0.000486121 -1.6416e-05 0)
(0.000485804 -1.67386e-05 0)
(0.000485487 -1.70649e-05 0)
(0.000485171 -1.73947e-05 0)
(0.000484855 -1.7728e-05 0)
(0.000484539 -1.80647e-05 0)
(0.000484224 -1.8405e-05 0)
(0.00048391 -1.87486e-05 0)
(0.000483596 -1.90957e-05 0)
(0.000483284 -1.94462e-05 0)
(0.000482972 -1.97999e-05 0)
(0.000482661 -2.0157e-05 0)
(0.000482351 -2.05174e-05 0)
(0.000482042 -2.08809e-05 0)
(0.000481734 -2.12477e-05 0)
(0.000481428 -2.16176e-05 0)
(0.000481123 -2.19906e-05 0)
(0.000480819 -2.23666e-05 0)
(0.000480517 -2.27457e-05 0)
(0.000480216 -2.31277e-05 0)
(0.000479917 -2.35126e-05 0)
(0.00047962 -2.39004e-05 0)
(0.000479324 -2.4291e-05 0)
(0.00047903 -2.46844e-05 0)
(0.000478738 -2.50804e-05 0)
(0.000478448 -2.54791e-05 0)
(0.00047816 -2.58803e-05 0)
(0.000477874 -2.62841e-05 0)
(0.00047759 -2.66903e-05 0)
(0.000477307 -2.70989e-05 0)
(0.000477028 -2.75098e-05 0)
(0.00047675 -2.7923e-05 0)
(0.000476474 -2.83383e-05 0)
(0.000476201 -2.87558e-05 0)
(0.00047593 -2.91753e-05 0)
(0.000475661 -2.95967e-05 0)
(0.000475395 -3.002e-05 0)
(0.000475131 -3.04451e-05 0)
(0.000474869 -3.0872e-05 0)
(0.00047461 -3.13005e-05 0)
(0.000474353 -3.17305e-05 0)
(0.000474099 -3.21621e-05 0)
(0.000473847 -3.2595e-05 0)
(0.000473598 -3.30292e-05 0)
(0.000473351 -3.34647e-05 0)
(0.000473106 -3.39012e-05 0)
(0.000472864 -3.43388e-05 0)
(0.000472624 -3.47774e-05 0)
(0.000472386 -3.52168e-05 0)
(0.000472151 -3.5657e-05 0)
(0.000471918 -3.60979e-05 0)
(0.000471688 -3.65394e-05 0)
(0.000471459 -3.69813e-05 0)
(0.000471233 -3.74237e-05 0)
(0.000471009 -3.78664e-05 0)
(0.000470787 -3.83093e-05 0)
(0.000470566 -3.87523e-05 0)
(0.000470348 -3.91954e-05 0)
(0.000470131 -3.96385e-05 0)
(0.000469916 -4.00814e-05 0)
(0.000469703 -4.05242e-05 0)
(0.00046949 -4.09667e-05 0)
(0.00046928 -4.14088e-05 0)
(0.00046907 -4.18506e-05 0)
(0.000468861 -4.22919e-05 0)
(0.000468654 -4.27327e-05 0)
(0.000468446 -4.31731e-05 0)
(0.00046824 -4.36128e-05 0)
(0.000468034 -4.40521e-05 0)
(0.000467828 -4.44908e-05 0)
(0.000467622 -4.4929e-05 0)
(0.000467415 -4.53667e-05 0)
(0.000467209 -4.58041e-05 0)
(0.000467002 -4.62413e-05 0)
(0.000463604 -4.73276e-05 0)
(0.000460416 -4.79784e-05 0)
(0.000457233 -4.86264e-05 0)
(0.000454056 -4.92665e-05 0)
(0.000450882 -4.98942e-05 0)
(0.00044771 -5.0506e-05 0)
(0.000444536 -5.10988e-05 0)
(0.000441359 -5.16703e-05 0)
(0.000438176 -5.2219e-05 0)
(0.000434983 -5.27438e-05 0)
(0.000431779 -5.32439e-05 0)
(0.000428559 -5.37192e-05 0)
(0.000425323 -5.41698e-05 0)
(0.000422067 -5.45959e-05 0)
(0.00041879 -5.49983e-05 0)
(0.000415488 -5.53777e-05 0)
(0.000412159 -5.57353e-05 0)
(0.000408802 -5.60722e-05 0)
(0.000405414 -5.63899e-05 0)
(0.000401993 -5.66898e-05 0)
(0.000398538 -5.69737e-05 0)
(0.000395047 -5.72432e-05 0)
(0.000391517 -5.75003e-05 0)
(0.000387948 -5.77469e-05 0)
(0.000384337 -5.79851e-05 0)
(0.000380683 -5.82171e-05 0)
(0.000376984 -5.8445e-05 0)
(0.000373239 -5.86713e-05 0)
(0.000369447 -5.88983e-05 0)
(0.000365605 -5.91286e-05 0)
(0.000361713 -5.93647e-05 0)
(0.000357768 -5.96093e-05 0)
(0.000353771 -5.98652e-05 0)
(0.00034972 -6.01351e-05 0)
(0.000345612 -6.04221e-05 0)
(0.000341448 -6.0729e-05 0)
(0.000337227 -6.1059e-05 0)
(0.000332946 -6.14153e-05 0)
(0.000328606 -6.18011e-05 0)
(0.000324204 -6.22198e-05 0)
(0.000319742 -6.26747e-05 0)
(0.000315216 -6.31695e-05 0)
(0.000310628 -6.37078e-05 0)
(0.000305976 -6.42931e-05 0)
(0.00030126 -6.49293e-05 0)
(0.000296479 -6.56203e-05 0)
(0.000291634 -6.637e-05 0)
(0.000286724 -6.71824e-05 0)
(0.000281749 -6.80614e-05 0)
(0.000276709 -6.90114e-05 0)
(0.000271605 -7.00364e-05 0)
(0.000266438 -7.11406e-05 0)
(0.000261207 -7.23283e-05 0)
(0.000255914 -7.36037e-05 0)
(0.000250561 -7.49711e-05 0)
(0.000245147 -7.64347e-05 0)
(0.000239676 -7.79987e-05 0)
(0.00023415 -7.96671e-05 0)
(0.000228569 -8.14441e-05 0)
(0.000222937 -8.33336e-05 0)
(0.000217257 -8.53394e-05 0)
(0.000211532 -8.7465e-05 0)
(0.000205766 -8.97138e-05 0)
(0.000199962 -9.20891e-05 0)
(0.000194124 -9.45936e-05 0)
(0.000188258 -9.72299e-05 0)
(0.000182368 -0.0001 0)
(0.000176459 -0.000102906 0)
(0.000170538 -0.000105949 0)
(0.000164611 -0.000109129 0)
(0.000158684 -0.000112447 0)
(0.000152764 -0.000115902 0)
(0.000146859 -0.000119493 0)
(0.000140976 -0.000123217 0)
(0.000135123 -0.000127072 0)
(0.000129309 -0.000131055 0)
(0.000123542 -0.000135159 0)
(0.00011783 -0.00013938 0)
(0.000112183 -0.000143712 0)
(0.000102638 -0.000151398 0)
(9.87109e-05 -0.000154697 0)
(9.48338e-05 -0.000158036 0)
(9.10097e-05 -0.000161412 0)
(8.7242e-05 -0.000164818 0)
(8.35335e-05 -0.000168249 0)
(7.98872e-05 -0.000171701 0)
(7.63061e-05 -0.000175167 0)
(7.27928e-05 -0.000178641 0)
(6.93499e-05 -0.000182116 0)
(6.59797e-05 -0.000185587 0)
(6.26844e-05 -0.000189045 0)
(5.9466e-05 -0.000192485 0)
(5.6326e-05 -0.000195897 0)
(5.32661e-05 -0.000199275 0)
(5.02872e-05 -0.000202611 0)
(4.73903e-05 -0.000205896 0)
(4.45758e-05 -0.000209123 0)
(4.18439e-05 -0.000212282 0)
(3.91945e-05 -0.000215367 0)
(3.66271e-05 -0.000218368 0)
(3.41407e-05 -0.000221277 0)
(3.1734e-05 -0.000224085 0)
(2.94055e-05 -0.000226785 0)
(2.71529e-05 -0.000229368 0)
(2.4974e-05 -0.000231827 0)
(2.28658e-05 -0.000234154 0)
(2.08252e-05 -0.000236341 0)
(1.88486e-05 -0.000238382 0)
(1.69321e-05 -0.00024027 0)
(1.50714e-05 -0.000241998 0)
(1.3262e-05 -0.00024356 0)
(1.14989e-05 -0.000244953 0)
(9.77702e-06 -0.00024617 0)
(8.09093e-06 -0.000247207 0)
(6.435e-06 -0.000248062 0)
(4.8034e-06 -0.000248731 0)
(3.19015e-06 -0.000249213 0)
(1.58946e-06 -0.000249507 0)
(0 -0.000249456 0)
(0 -0.000249286 0)
(0 -0.000249111 0)
(0 -0.000248932 0)
(0 -0.00024875 0)
(0 -0.000248564 0)
(0 -0.000248374 0)
(0 -0.000248181 0)
(0 -0.000247985 0)
(0 -0.000247785 0)
(0 -0.000247583 0)
(0 -0.000247377 0)
(0 -0.000247169 0)
(0 -0.000246957 0)
(0 -0.000246743 0)
(0 -0.000246526 0)
(0 -0.000246307 0)
(0 -0.000246085 0)
(0 -0.000245861 0)
(0 -0.000245635 0)
(0 -0.000245406 0)
(0 -0.000245176 0)
(0 -0.000244943 0)
(0 -0.000244708 0)
(0 -0.000244472 0)
(0 -0.000244234 0)
(0 -0.000243993 0)
(0 -0.000243752 0)
(0 -0.000243508 0)
(0 -0.000243264 0)
(0 -0.000243017 0)
(0 -0.000242769 0)
(0 -0.00024252 0)
(0 -0.00024227 0)
(0 -0.000242018 0)
(0 -0.000241766 0)
(0 -0.000241512 0)
(0 -0.000241257 0)
(0 -0.000241001 0)
(0 -0.000240744 0)
(0 -0.000240486 0)
(0 -0.000240227 0)
(0 -0.000239967 0)
(0 -0.000239707 0)
(0 -0.000239446 0)
(0 -0.000239183 0)
(0 -0.000238921 0)
(0 -0.000238657 0)
(0 -0.000238393 0)
(0 -0.000238128 0)
(0 -0.000237863 0)
(0 -0.000237597 0)
(0 -0.00023733 0)
(0 -0.000237063 0)
(0 -0.000236795 0)
(0 -0.000236527 0)
(0 -0.000236259 0)
(0 -0.000235989 0)
(0 -0.00023572 0)
(0 -0.00023545 0)
(0 -0.000235179 0)
(0 -0.000234908 0)
(0 -0.000234636 0)
(0 -0.000234364 0)
(0 -0.000234092 0)
(0 -0.000233819 0)
(0 -0.000233546 0)
(0 -0.000233272 0)
(0 -0.000232997 0)
(0 -0.000232723 0)
(0 -0.000232447 0)
(0 -0.000232171 0)
(0 -0.000231895 0)
(0 -0.000231618 0)
(0 -0.00023134 0)
(0 -0.000231062 0)
(0 -0.000230784 0)
(0 -0.000230504 0)
(0 -0.000230224 0)
(0 -0.000229375 0)
(0 -0.000228804 0)
(0 -0.000228229 0)
(0 -0.000227649 0)
(0 -0.000227065 0)
(0 -0.000226476 0)
(0 -0.000225881 0)
(0 -0.000225279 0)
(0 -0.000224669 0)
(0 -0.000224051 0)
(0 -0.000223424 0)
(0 -0.000222787 0)
(0 -0.000222138 0)
(0 -0.000221477 0)
(0 -0.000220803 0)
(0 -0.000220113 0)
(0 -0.000219407 0)
(0 -0.000218683 0)
(0 -0.000217939 0)
(0 -0.000217173 0)
(0 -0.000216384 0)
(0 -0.000215569 0)
(0 -0.000214725 0)
(0 -0.000213851 0)
(0 -0.000212943 0)
(0 -0.000211998 0)
(0 -0.000211013 0)
(0 -0.000209984 0)
(0 -0.000208908 0)
(0 -0.00020778 0)
(0 -0.000206594 0)
(0 -0.000205347 0)
(0 -0.000204032 0)
(0 -0.000202643 0)
(0 -0.000201173 0)
(0 -0.000199614 0)
(0 -0.000197956 0)
(0 -0.000196189 0)
(0 -0.000194301 0)
(0.000219461 -7.56698e-05 0)
(0.000224289 -7.16629e-05 0)
(0.000229038 -6.78475e-05 0)
(0.00023371 -6.42294e-05 0)
(0.000238304 -6.08086e-05 0)
(0.00024282 -5.75824e-05 0)
(0.000247259 -5.45465e-05 0)
(0.000251621 -5.16956e-05 0)
(0.000255908 -4.90236e-05 0)
(0.000260121 -4.6524e-05 0)
(0.000264264 -4.41904e-05 0)
(0.000268337 -4.20157e-05 0)
(0.000272344 -3.99931e-05 0)
(0.000276287 -3.81157e-05 0)
(0.000280169 -3.63768e-05 0)
(0.000283993 -3.47697e-05 0)
(0.000287761 -3.32878e-05 0)
(0.000291477 -3.19248e-05 0)
(0.000295143 -3.06745e-05 0)
(0.000298763 -2.95308e-05 0)
(0.000302338 -2.8488e-05 0)
(0.000305873 -2.75404e-05 0)
(0.000309369 -2.66826e-05 0)
(0.000312829 -2.59094e-05 0)
(0.000316256 -2.52158e-05 0)
(0.000319651 -2.45969e-05 0)
(0.000323019 -2.40481e-05 0)
(0.00032636 -2.35649e-05 0)
(0.000329676 -2.31429e-05 0)
(0.000332971 -2.27781e-05 0)
(0.000336245 -2.24664e-05 0)
(0.0003395 -2.2204e-05 0)
(0.000342739 -2.19871e-05 0)
(0.000345961 -2.18123e-05 0)
(0.00034917 -2.16761e-05 0)
(0.000352366 -2.15751e-05 0)
(0.000355551 -2.15062e-05 0)
(0.000358725 -2.14662e-05 0)
(0.00036189 -2.14523e-05 0)
(0.000365046 -2.14614e-05 0)
(0.000368195 -2.14909e-05 0)
(0.000371337 -2.15381e-05 0)
(0.000374473 -2.16003e-05 0)
(0.000377603 -2.1675e-05 0)
(0.000380729 -2.17597e-05 0)
(0.00038385 -2.18522e-05 0)
(0.000386967 -2.195e-05 0)
(0.000390081 -2.20509e-05 0)
(0.000393191 -2.21528e-05 0)
(0.000396298 -2.22535e-05 0)
(0.000399402 -2.23508e-05 0)
(0.000402503 -2.24428e-05 0)
(0.000405602 -2.25274e-05 0)
(0.000408697 -2.26028e-05 0)
(0.000411791 -2.26668e-05 0)
(0.000414881 -2.27176e-05 0)
(0.000417969 -2.27533e-05 0)
(0.000421055 -2.27721e-05 0)
(0.000424137 -2.27719e-05 0)
(0.000427216 -2.2751e-05 0)
(0.000430292 -2.27074e-05 0)
(0.000433365 -2.26392e-05 0)
(0.000436435 -2.25445e-05 0)
(0.000439501 -2.24213e-05 0)
(0.000442563 -2.22675e-05 0)
(0.000445622 -2.2081e-05 0)
(0.000448676 -2.18597e-05 0)
(0.000451726 -2.16013e-05 0)
(0.000454773 -2.13035e-05 0)
(0.000457815 -2.09636e-05 0)
(0.000460852 -2.0579e-05 0)
(0.000463886 -2.01469e-05 0)
(0.000466915 -1.96642e-05 0)
(0.00046994 -1.91276e-05 0)
(0.000472962 -1.85336e-05 0)
(0.00047598 -1.78783e-05 0)
(0.000478994 -1.71575e-05 0)
(0.000482006 -1.63667e-05 0)
(0.000485014 -1.5501e-05 0)
(0.00021268 -8.08235e-05 0)
(0.000210836 -8.18006e-05 0)
(0.000209015 -8.27765e-05 0)
(0.000207218 -8.37512e-05 0)
(0.000205443 -8.4725e-05 0)
(0.000203692 -8.5698e-05 0)
(0.000201963 -8.66701e-05 0)
(0.000200256 -8.76413e-05 0)
(0.000198572 -8.86114e-05 0)
(0.00019691 -8.95803e-05 0)
(0.000195269 -9.05478e-05 0)
(0.00019365 -9.15138e-05 0)
(0.000192051 -9.2478e-05 0)
(0.000190474 -9.34401e-05 0)
(0.000188916 -9.44001e-05 0)
(0.000187379 -9.53576e-05 0)
(0.000185862 -9.63125e-05 0)
(0.000184363 -9.72645e-05 0)
(0.000182884 -9.82135e-05 0)
(0.000181423 -9.91592e-05 0)
(0.00017998 -0.000100102 0)
(0.000178555 -0.00010104 0)
(0.000177147 -0.000101975 0)
(0.000175756 -0.000102906 0)
(0.000174381 -0.000103833 0)
(0.000173022 -0.000104755 0)
(0.000171677 -0.000105673 0)
(0.000170348 -0.000106587 0)
(0.000169033 -0.000107496 0)
(0.000167731 -0.0001084 0)
(0.000166443 -0.000109299 0)
(0.000165167 -0.000110194 0)
(0.000163904 -0.000111083 0)
(0.000162651 -0.000111968 0)
(0.00016141 -0.000112847 0)
(0.000160179 -0.000113721 0)
(0.000158958 -0.00011459 0)
(0.000157746 -0.000115453 0)
(0.000156542 -0.000116312 0)
(0.000155346 -0.000117165 0)
(0.000154158 -0.000118013 0)
(0.000152977 -0.000118855 0)
(0.000151801 -0.000119693 0)
(0.000150632 -0.000120525 0)
(0.000149467 -0.000121352 0)
(0.000148306 -0.000122174 0)
(0.000147149 -0.000122991 0)
(0.000145995 -0.000123803 0)
(0.000144843 -0.00012461 0)
(0.000143693 -0.000125413 0)
(0.000142544 -0.00012621 0)
(0.000141396 -0.000127003 0)
(0.000140247 -0.000127792 0)
(0.000139097 -0.000128576 0)
(0.000137946 -0.000129356 0)
(0.000136792 -0.000130132 0)
(0.000135636 -0.000130904 0)
(0.000134475 -0.000131673 0)
(0.000133311 -0.000132438 0)
(0.000132142 -0.000133199 0)
(0.000130966 -0.000133958 0)
(0.000129785 -0.000134713 0)
(0.000128596 -0.000135466 0)
(0.0001274 -0.000136217 0)
(0.000126195 -0.000136965 0)
(0.000124981 -0.000137711 0)
(0.000123757 -0.000138456 0)
(0.000122522 -0.000139199 0)
(0.000121276 -0.000139942 0)
(0.000120018 -0.000140683 0)
(0.000118747 -0.000141425 0)
(0.000117463 -0.000142166 0)
(0.000116164 -0.000142908 0)
(0.00011485 -0.00014365 0)
(0.000113521 -0.000144394 0)
(0.000112175 -0.000145139 0)
(0.000110811 -0.000145887 0)
(0.00010943 -0.000146637 0)
(0.000108031 -0.00014739 0)
(7.44829e-06 -0.00019233 0)
(1.48908e-05 -0.000192184 0)
(2.23287e-05 -0.000191893 0)
(2.97546e-05 -0.000191467 0)
(3.71629e-05 -0.000190912 0)
(4.45492e-05 -0.000190232 0)
(5.19089e-05 -0.000189428 0)
(5.9238e-05 -0.000188504 0)
(6.65323e-05 -0.000187463 0)
(7.37878e-05 -0.000186307 0)
(8.10005e-05 -0.000185039 0)
(8.81666e-05 -0.000183663 0)
(9.52824e-05 -0.000182181 0)
(0.000102344 -0.000180599 0)
(0.000109349 -0.000178918 0)
(0.000116292 -0.000177143 0)
(0.000123171 -0.000175278 0)
(0.000129983 -0.000173327 0)
(0.000136724 -0.000171294 0)
(0.000143392 -0.000169183 0)
(0.000149984 -0.000166999 0)
(0.000156497 -0.000164744 0)
(0.000162929 -0.000162423 0)
(0.000169277 -0.000160041 0)
(0.000175539 -0.000157602 0)
(0.000181713 -0.000155108 0)
(0.000187796 -0.000152565 0)
(0.000193788 -0.000149975 0)
(0.000199685 -0.000147342 0)
(0.000205486 -0.000144671 0)
(0.000211191 -0.000141963 0)
(0.000216796 -0.000139224 0)
(0.000222301 -0.000136454 0)
(0.000227704 -0.000133658 0)
(0.000233005 -0.000130838 0)
(0.000238201 -0.000127998 0)
(0.000243292 -0.000125138 0)
(0.000248278 -0.000122263 0)
(0.000253156 -0.000119373 0)
(0.000262587 -0.000113559 0)
(0.000267139 -0.000110639 0)
(0.000271581 -0.000107711 0)
(0.000275912 -0.000104778 0)
(0.000280131 -0.000101841 0)
(0.000284238 -9.89015e-05 0)
(0.000288233 -9.59596e-05 0)
(0.000292115 -9.30165e-05 0)
(0.000295883 -9.00732e-05 0)
(0.000299538 -8.71303e-05 0)
(0.000303077 -8.41884e-05 0)
(0.000306502 -8.12479e-05 0)
(0.000309811 -7.83095e-05 0)
(0.000313005 -7.53733e-05 0)
(0.000316082 -7.24397e-05 0)
(0.000319042 -6.95089e-05 0)
(0.000321886 -6.65812e-05 0)
(0.000324611 -6.36565e-05 0)
(0.000327219 -6.07351e-05 0)
(0.000329709 -5.78169e-05 0)
(0.000332079 -5.49021e-05 0)
(0.000334331 -5.19905e-05 0)
(0.000336463 -4.90821e-05 0)
(0.000338476 -4.61768e-05 0)
(0.000340368 -4.32747e-05 0)
(0.00034214 -4.03754e-05 0)
(0.000343792 -3.74791e-05 0)
(0.000345322 -3.45854e-05 0)
(0.000346731 -3.16943e-05 0)
(0.000348019 -2.88056e-05 0)
(0.000349186 -2.59191e-05 0)
(0.000350231 -2.30347e-05 0)
(0.000351154 -2.01523e-05 0)
(0.000351956 -1.72716e-05 0)
(0.000352636 -1.43927e-05 0)
(0.000353195 -1.15153e-05 0)
(0.000353634 -8.63958e-06 0)
(0.000353955 -5.7653e-06 0)
(0.000354166 -2.89091e-06 0)
(0.000255324 -0.000114356 0)
(0.000252852 -0.00011236 0)
(0.000250504 -0.000110475 0)
(0.000248274 -0.000108694 0)
(0.000246156 -0.000107011 0)
(0.000244146 -0.000105419 0)
(0.000242237 -0.000103912 0)
(0.000240425 -0.000102485 0)
(0.000238706 -0.000101134 0)
(0.000237075 -9.98526e-05 0)
(0.000235528 -9.86377e-05 0)
(0.000234062 -9.74849e-05 0)
(0.000232671 -9.63904e-05 0)
(0.000231354 -9.53507e-05 0)
(0.000230107 -9.43625e-05 0)
(0.000228926 -9.34227e-05 0)
(0.000227808 -9.25283e-05 0)
(0.000226752 -9.16768e-05 0)
(0.000225753 -9.08655e-05 0)
(0.00022481 -9.0092e-05 0)
(0.00022392 -8.93542e-05 0)
(0.00022308 -8.86499e-05 0)
(0.000222289 -8.79772e-05 0)
(0.000221544 -8.73341e-05 0)
(0.000220843 -8.6719e-05 0)
(0.000220185 -8.61301e-05 0)
(0.000219568 -8.55659e-05 0)
(0.000218989 -8.5025e-05 0)
(0.000218448 -8.45059e-05 0)
(0.000217942 -8.40073e-05 0)
(0.000217471 -8.35279e-05 0)
(0.000217033 -8.30664e-05 0)
(0.000216626 -8.26216e-05 0)
(0.000216249 -8.21924e-05 0)
(0.000215902 -8.17774e-05 0)
(0.000215582 -8.13752e-05 0)
(0.000215289 -8.09843e-05 0)
(0.000215021 -8.06023e-05 0)
(0.000214776 -8.02255e-05 0)
(0.000255324 -0.000114356 0)
(0.000252852 -0.00011236 0)
(0.000250504 -0.000110475 0)
(0.000248274 -0.000108694 0)
(0.000246156 -0.000107011 0)
(0.000244146 -0.000105419 0)
(0.000242237 -0.000103912 0)
(0.000240425 -0.000102485 0)
(0.000238706 -0.000101134 0)
(0.000237075 -9.98526e-05 0)
(0.000235528 -9.86377e-05 0)
(0.000234062 -9.74849e-05 0)
(0.000232671 -9.63904e-05 0)
(0.000231354 -9.53507e-05 0)
(0.000230107 -9.43625e-05 0)
(0.000228926 -9.34227e-05 0)
(0.000227808 -9.25283e-05 0)
(0.000226752 -9.16768e-05 0)
(0.000225753 -9.08655e-05 0)
(0.00022481 -9.0092e-05 0)
(0.00022392 -8.93542e-05 0)
(0.00022308 -8.86499e-05 0)
(0.000222289 -8.79772e-05 0)
(0.000221544 -8.73341e-05 0)
(0.000220843 -8.6719e-05 0)
(0.000220185 -8.61301e-05 0)
(0.000219568 -8.55659e-05 0)
(0.000218989 -8.5025e-05 0)
(0.000218448 -8.45059e-05 0)
(0.000217942 -8.40073e-05 0)
(0.000217471 -8.35279e-05 0)
(0.000217033 -8.30664e-05 0)
(0.000216626 -8.26216e-05 0)
(0.000216249 -8.21924e-05 0)
(0.000215902 -8.17774e-05 0)
(0.000215582 -8.13752e-05 0)
(0.000215289 -8.09843e-05 0)
(0.000215021 -8.06023e-05 0)
(0.000214776 -8.02255e-05 0)
(0.000208381 -8.41486e-05 0)
(0.000202205 -8.85095e-05 0)
(0.000196025 -9.29551e-05 0)
(0.000189842 -9.74875e-05 0)
(0.000183664 -0.000102103 0)
(0.000177494 -0.000106797 0)
(0.000171341 -0.000111561 0)
(0.000165209 -0.000116388 0)
(0.000159104 -0.000121269 0)
(0.000153033 -0.000126195 0)
(0.000147001 -0.000131156 0)
(0.000141012 -0.00013614 0)
(0.000135074 -0.000141138 0)
(0.000129189 -0.000146136 0)
(0.000123362 -0.000151123 0)
(0.000117598 -0.000156084 0)
(0.0001119 -0.000161007 0)
(0.000106271 -0.000165877 0)
(0.000100715 -0.00017068 0)
(9.52329e-05 -0.0001754 0)
(8.98274e-05 -0.000180023 0)
(8.44995e-05 -0.000184533 0)
(7.92502e-05 -0.000188915 0)
(7.40797e-05 -0.000193152 0)
(6.89877e-05 -0.000197229 0)
(6.39731e-05 -0.000201131 0)
(5.90346e-05 -0.000204842 0)
(5.41699e-05 -0.000208347 0)
(4.93764e-05 -0.000211632 0)
(4.46506e-05 -0.000214683 0)
(3.99886e-05 -0.000217487 0)
(3.5386e-05 -0.000220032 0)
(3.08376e-05 -0.000222306 0)
(2.63379e-05 -0.000224299 0)
(2.18809e-05 -0.000226002 0)
(1.74602e-05 -0.000227407 0)
(1.30689e-05 -0.000228508 0)
(8.69995e-06 -0.000229299 0)
(4.34601e-06 -0.000229777 0)
(0 -0.000229375 0)
(0 -0.000228804 0)
(0 -0.000228229 0)
(0 -0.000227649 0)
(0 -0.000227065 0)
(0 -0.000226476 0)
(0 -0.000225881 0)
(0 -0.000225279 0)
(0 -0.000224669 0)
(0 -0.000224051 0)
(0 -0.000223424 0)
(0 -0.000222787 0)
(0 -0.000222138 0)
(0 -0.000221477 0)
(0 -0.000220803 0)
(0 -0.000220113 0)
(0 -0.000219407 0)
(0 -0.000218683 0)
(0 -0.000217939 0)
(0 -0.000217173 0)
(0 -0.000216384 0)
(0 -0.000215569 0)
(0 -0.000214725 0)
(0 -0.000213851 0)
(0 -0.000212943 0)
(0 -0.000211998 0)
(0 -0.000211013 0)
(0 -0.000209984 0)
(0 -0.000208908 0)
(0 -0.00020778 0)
(0 -0.000206594 0)
(0 -0.000205347 0)
(0 -0.000204032 0)
(0 -0.000202643 0)
(0 -0.000201173 0)
(0 -0.000199614 0)
(0 -0.000197956 0)
(0 -0.000196189 0)
(0 -0.000194301 0)
(7.44829e-06 -0.00019233 0)
(1.48908e-05 -0.000192184 0)
(2.23287e-05 -0.000191893 0)
(2.97546e-05 -0.000191467 0)
(3.71629e-05 -0.000190912 0)
(4.45492e-05 -0.000190232 0)
(5.19089e-05 -0.000189428 0)
(5.9238e-05 -0.000188504 0)
(6.65323e-05 -0.000187463 0)
(7.37878e-05 -0.000186307 0)
(8.10005e-05 -0.000185039 0)
(8.81666e-05 -0.000183663 0)
(9.52824e-05 -0.000182181 0)
(0.000102344 -0.000180599 0)
(0.000109349 -0.000178918 0)
(0.000116292 -0.000177143 0)
(0.000123171 -0.000175278 0)
(0.000129983 -0.000173327 0)
(0.000136724 -0.000171294 0)
(0.000143392 -0.000169183 0)
(0.000149984 -0.000166999 0)
(0.000156497 -0.000164744 0)
(0.000162929 -0.000162423 0)
(0.000169277 -0.000160041 0)
(0.000175539 -0.000157602 0)
(0.000181713 -0.000155108 0)
(0.000187796 -0.000152565 0)
(0.000193788 -0.000149975 0)
(0.000199685 -0.000147342 0)
(0.000205486 -0.000144671 0)
(0.000211191 -0.000141963 0)
(0.000216796 -0.000139224 0)
(0.000222301 -0.000136454 0)
(0.000227704 -0.000133658 0)
(0.000233005 -0.000130838 0)
(0.000238201 -0.000127998 0)
(0.000243292 -0.000125138 0)
(0.000248278 -0.000122263 0)
(0.000253156 -0.000119373 0)
(0.000262587 -0.000113559 0)
(0.000267139 -0.000110639 0)
(0.000271581 -0.000107711 0)
(0.000275912 -0.000104778 0)
(0.000280131 -0.000101841 0)
(0.000284238 -9.89015e-05 0)
(0.000288233 -9.59596e-05 0)
(0.000292115 -9.30165e-05 0)
(0.000295883 -9.00732e-05 0)
(0.000299538 -8.71303e-05 0)
(0.000303077 -8.41884e-05 0)
(0.000306502 -8.12479e-05 0)
(0.000309811 -7.83095e-05 0)
(0.000313005 -7.53733e-05 0)
(0.000316082 -7.24397e-05 0)
(0.000319042 -6.95089e-05 0)
(0.000321886 -6.65812e-05 0)
(0.000324611 -6.36565e-05 0)
(0.000327219 -6.07351e-05 0)
(0.000329709 -5.78169e-05 0)
(0.000332079 -5.49021e-05 0)
(0.000334331 -5.19905e-05 0)
(0.000336463 -4.90821e-05 0)
(0.000338476 -4.61768e-05 0)
(0.000340368 -4.32747e-05 0)
(0.00034214 -4.03754e-05 0)
(0.000343792 -3.74791e-05 0)
(0.000345322 -3.45854e-05 0)
(0.000346731 -3.16943e-05 0)
(0.000348019 -2.88056e-05 0)
(0.000349186 -2.59191e-05 0)
(0.000350231 -2.30347e-05 0)
(0.000351154 -2.01523e-05 0)
(0.000351956 -1.72716e-05 0)
(0.000352636 -1.43927e-05 0)
(0.000353195 -1.15153e-05 0)
(0.000353634 -8.63958e-06 0)
(0.000353955 -5.7653e-06 0)
(0.000354166 -2.89091e-06 0)
(0.000355021 0 0)
(0.000355693 0 0)
(0.000356317 0 0)
(0.000356897 0 0)
(0.000357436 0 0)
(0.000357936 0 0)
(0.000358401 0 0)
(0.000358833 0 0)
(0.000359236 0 0)
(0.000359611 0 0)
(0.000359962 0 0)
(0.000360291 0 0)
(0.000360599 0 0)
(0.00036089 0 0)
(0.000361164 0 0)
(0.000361424 0 0)
(0.000361672 0 0)
(0.000361908 0 0)
(0.000362134 0 0)
(0.000362352 0 0)
(0.000362562 0 0)
(0.000362766 0 0)
(0.000362965 0 0)
(0.000363159 0 0)
(0.00036335 0 0)
(0.000363538 0 0)
(0.000363725 0 0)
(0.00036391 0 0)
(0.000364095 0 0)
(0.00036428 0 0)
(0.000364466 0 0)
(0.000364653 0 0)
(0.000364841 0 0)
(0.000365031 0 0)
(0.000365224 0 0)
(0.000365419 0 0)
(0.000365617 0 0)
(0.000365818 0 0)
(0.000366022 0 0)
(0.000366131 -6.53907e-07 0)
(0.00036579 -1.3106e-06 0)
(0.000365216 -1.97845e-06 0)
(0.000364411 -2.66403e-06 0)
(0.000363377 -3.37357e-06 0)
(0.000362116 -4.11315e-06 0)
(0.00036063 -4.88876e-06 0)
(0.000358921 -5.70629e-06 0)
(0.000356991 -6.57151e-06 0)
(0.000354845 -7.49008e-06 0)
(0.000352484 -8.46754e-06 0)
(0.000349913 -9.50929e-06 0)
(0.000347136 -1.06206e-05 0)
(0.000344156 -1.18065e-05 0)
(0.000340978 -1.3072e-05 0)
(0.000337607 -1.44218e-05 0)
(0.000334047 -1.58604e-05 0)
(0.000330304 -1.73922e-05 0)
(0.000326384 -1.90212e-05 0)
(0.000322292 -2.07515e-05 0)
(0.000318033 -2.25865e-05 0)
(0.000313615 -2.45297e-05 0)
(0.000309042 -2.65842e-05 0)
(0.000304323 -2.87529e-05 0)
(0.000299462 -3.10382e-05 0)
(0.000294468 -3.34423e-05 0)
(0.000289347 -3.59672e-05 0)
(0.000284105 -3.86144e-05 0)
(0.000278751 -4.1385e-05 0)
(0.000273291 -4.42798e-05 0)
(0.000267733 -4.72992e-05 0)
(0.000262083 -5.04431e-05 0)
(0.00025635 -5.37109e-05 0)
(0.000250542 -5.71016e-05 0)
(0.000244665 -6.06133e-05 0)
(0.000238728 -6.42436e-05 0)
(0.000232738 -6.79887e-05 0)
(0.000226705 -7.18434e-05 0)
(0.000220638 -7.58e-05 0)
(0.000366794 0 0)
(0.00036738 0 0)
(0.000367994 0 0)
(0.000368641 0 0)
(0.000369323 0 0)
(0.000370042 0 0)
(0.000370798 0 0)
(0.000371593 0 0)
(0.000372427 0 0)
(0.000373301 0 0)
(0.000374215 0 0)
(0.000375168 0 0)
(0.000376161 0 0)
(0.000377194 0 0)
(0.000378266 0 0)