/*--------------------------------*- C++ -*----------------------------------*\
| =========                 |                                                 |
| \\      /  F ield         | OpenFOAM: The Open Source CFD Toolbox           |
|  \\    /   O peration     | Version:  v2012                                 |
|   \\  /    A nd           | Website:  www.openfoam.com                      |
|    \\/     M anipulation  |                                                 |
\*---------------------------------------------------------------------------*/
FoamFile
{
    version     2.0;
    format      ascii;
    class       volVectorField;
    location    "1";
    object      D;
}
// * * * * * * * * * * * * * * * * * * * * * * * * * * * * * * * * * * * * * //

dimensions      [0 1 0 0 0 0 0];


internalField   nonuniform List<vector> 
32000
(
(1.98347e-06 -0.000131555 0)
(3.88401e-06 -0.000132594 0)
(1.90834e-06 -0.000134584 0)
(3.73369e-06 -0.000135496 0)
(1.83274e-06 -0.000137285 0)
(3.5924e-06 -0.000138094 0)
(1.76466e-06 -0.000139702 0)
(3.46669e-06 -0.000140425 0)
(1.70394e-06 -0.000141874 0)
(3.3547e-06 -0.000142521 0)
(1.64993e-06 -0.000143833 0)
(3.25503e-06 -0.000144415 0)
(1.60195e-06 -0.000145607 0)
(3.16637e-06 -0.000146133 0)
(1.55936e-06 -0.00014722 0)
(3.08761e-06 -0.000147699 0)
(1.5216e-06 -0.000148695 0)
(3.01774e-06 -0.000149131 0)
(1.48817e-06 -0.000150049 0)
(2.95587e-06 -0.000150448 0)
(1.45865e-06 -0.000151297 0)
(2.90122e-06 -0.000151664 0)
(1.43264e-06 -0.000152455 0)
(2.85309e-06 -0.000152794 0)
(1.4098e-06 -0.000153532 0)
(2.81088e-06 -0.000153847 0)
(1.38984e-06 -0.000154541 0)
(2.77401e-06 -0.000154835 0)
(1.37248e-06 -0.000155489 0)
(2.74201e-06 -0.000155765 0)
(1.35749e-06 -0.000156386 0)
(2.71443e-06 -0.000156646 0)
(1.34464e-06 -0.000157238 0)
(2.69087e-06 -0.000157484 0)
(1.33374e-06 -0.000158051 0)
(2.67098e-06 -0.000158286 0)
(1.32461e-06 -0.00015883 0)
(2.65443e-06 -0.000159055 0)
(1.31711e-06 -0.000159581 0)
(2.64093e-06 -0.000159797 0)
(1.31109e-06 -0.000160308 0)
(2.63023e-06 -0.000160517 0)
(1.30641e-06 -0.000161014 0)
(2.62208e-06 -0.000161216 0)
(1.30298e-06 -0.000161702 0)
(2.61626e-06 -0.000161899 0)
(1.30067e-06 -0.000162375 0)
(2.61259e-06 -0.000162568 0)
(1.2994e-06 -0.000163037 0)
(2.61089e-06 -0.000163226 0)
(1.29907e-06 -0.000163688 0)
(2.61098e-06 -0.000163875 0)
(1.29962e-06 -0.000164331 0)
(2.61273e-06 -0.000164516 0)
(1.30096e-06 -0.000164968 0)
(2.61599e-06 -0.000165151 0)
(1.30303e-06 -0.000165601 0)
(2.62065e-06 -0.000165782 0)
(1.30578e-06 -0.00016623 0)
(2.62659e-06 -0.00016641 0)
(1.30913e-06 -0.000166856 0)
(2.63371e-06 -0.000167036 0)
(1.31306e-06 -0.000167481 0)
(2.6419e-06 -0.000167661 0)
(1.3175e-06 -0.000168106 0)
(2.65109e-06 -0.000168286 0)
(1.32242e-06 -0.000168732 0)
(2.66118e-06 -0.000168912 0)
(1.32777e-06 -0.000169358 0)
(2.67212e-06 -0.000169539 0)
(1.33352e-06 -0.000169987 0)
(2.68382e-06 -0.000170168 0)
(1.33965e-06 -0.000170617 0)
(2.69622e-06 -0.000170799 0)
(1.34611e-06 -0.000171251 0)
(2.70928e-06 -0.000171433 0)
(1.35288e-06 -0.000171887 0)
(2.72295e-06 -0.000172071 0)
(1.35997e-06 -0.000172527 0)
(2.73722e-06 -0.000172712 0)
(7.99966e-06 -0.00013148 0)
(9.8429e-06 -0.000132502 0)
(7.66757e-06 -0.000134498 0)
(9.44377e-06 -0.000135392 0)
(7.36457e-06 -0.000137192 0)
(9.08e-06 -0.000137979 0)
(7.09336e-06 -0.000139603 0)
(8.75564e-06 -0.0001403 0)
(6.85179e-06 -0.00014177 0)
(8.46684e-06 -0.000142389 0)
(6.6369e-06 -0.000143724 0)
(8.20994e-06 -0.000144276 0)
(6.44588e-06 -0.000145495 0)
(7.98159e-06 -0.000145988 0)
(6.27623e-06 -0.000147106 0)
(7.77881e-06 -0.000147548 0)
(6.12573e-06 -0.000148578 0)
(7.599e-06 -0.000148975 0)
(5.99245e-06 -0.000149929 0)
(7.43983e-06 -0.000150288 0)
(5.87466e-06 -0.000151176 0)
(7.29925e-06 -0.000151501 0)
(5.77084e-06 -0.000152331 0)
(7.17547e-06 -0.000152626 0)
(5.67963e-06 -0.000153407 0)
(7.06686e-06 -0.000153677 0)
(5.59985e-06 -0.000154414 0)
(6.97199e-06 -0.000154662 0)
(5.53041e-06 -0.000155361 0)
(6.88958e-06 -0.00015559 0)
(5.47035e-06 -0.000156256 0)
(6.81849e-06 -0.000156468 0)
(5.41884e-06 -0.000157107 0)
(6.75769e-06 -0.000157305 0)
(5.37508e-06 -0.000157919 0)
(6.70625e-06 -0.000158104 0)
(5.3384e-06 -0.000158698 0)
(6.66336e-06 -0.000158872 0)
(5.30816e-06 -0.000159448 0)
(6.62825e-06 -0.000159613 0)
(5.28382e-06 -0.000160173 0)
(6.60026e-06 -0.000160331 0)
(5.26485e-06 -0.000160878 0)
(6.57878e-06 -0.000161029 0)
(5.25081e-06 -0.000161566 0)
(6.56324e-06 -0.000161711 0)
(5.24126e-06 -0.000162239 0)
(6.55316e-06 -0.000162379 0)
(5.23585e-06 -0.0001629 0)
(6.54807e-06 -0.000163036 0)
(5.23421e-06 -0.000163551 0)
(6.54756e-06 -0.000163684 0)
(5.23604e-06 -0.000164194 0)
(6.55125e-06 -0.000164324 0)
(5.24105e-06 -0.00016483 0)
(6.55878e-06 -0.000164959 0)
(5.24897e-06 -0.000165462 0)
(6.56986e-06 -0.000165589 0)
(5.25958e-06 -0.00016609 0)
(6.58418e-06 -0.000166216 0)
(5.27264e-06 -0.000166717 0)
(6.60148e-06 -0.000166842 0)
(5.28796e-06 -0.000167342 0)
(6.62151e-06 -0.000167466 0)
(5.30535e-06 -0.000167966 0)
(6.64406e-06 -0.000168091 0)
(5.32465e-06 -0.000168592 0)
(6.66892e-06 -0.000168716 0)
(5.34568e-06 -0.000169218 0)
(6.69589e-06 -0.000169343 0)
(5.36833e-06 -0.000169846 0)
(6.72481e-06 -0.000169971 0)
(5.39244e-06 -0.000170476 0)
(6.75551e-06 -0.000170602 0)
(5.41791e-06 -0.000171109 0)
(6.78786e-06 -0.000171236 0)
(5.44464e-06 -0.000171745 0)
(6.82175e-06 -0.000171873 0)
(5.47257e-06 -0.000172385 0)
(6.85712e-06 -0.000172514 0)
(1.4013e-05 -0.000131372 0)
(1.57776e-05 -0.00013237 0)
(1.34265e-05 -0.000134366 0)
(1.51309e-05 -0.000135231 0)
(1.28966e-05 -0.000137038 0)
(1.45483e-05 -0.000137794 0)
(1.24231e-05 -0.000139432 0)
(1.40287e-05 -0.000140095 0)
(1.20014e-05 -0.000141583 0)
(1.35662e-05 -0.000142166 0)
(1.16261e-05 -0.000143524 0)
(1.31547e-05 -0.000144037 0)
(1.12925e-05 -0.000145282 0)
(1.27889e-05 -0.000145735 0)
(1.09962e-05 -0.000146883 0)
(1.24641e-05 -0.000147282 0)
(1.07334e-05 -0.000148345 0)
(1.21761e-05 -0.000148699 0)
(1.05006e-05 -0.000149688 0)
(1.19212e-05 -0.000150002 0)
(1.02948e-05 -0.000150927 0)
(1.16961e-05 -0.000151206 0)
(1.01134e-05 -0.000152076 0)
(1.14979e-05 -0.000152324 0)
(9.95409e-06 -0.000153146 0)
(1.1324e-05 -0.000153368 0)
(9.8147e-06 -0.000154147 0)
(1.1172e-05 -0.000154346 0)
(9.69338e-06 -0.00015509 0)
(1.10401e-05 -0.000155269 0)
(9.58847e-06 -0.000155981 0)
(1.09262e-05 -0.000156143 0)
(9.49845e-06 -0.000156828 0)
(1.08289e-05 -0.000156974 0)
(9.42199e-06 -0.000157636 0)
(1.07465e-05 -0.00015777 0)
(9.35788e-06 -0.000158412 0)
(1.06778e-05 -0.000158534 0)
(9.30504e-06 -0.000159159 0)
(1.06216e-05 -0.000159272 0)
(9.26248e-06 -0.000159883 0)
(1.05767e-05 -0.000159987 0)
(9.22931e-06 -0.000160585 0)
(1.05423e-05 -0.000160683 0)
(9.20474e-06 -0.000161271 0)
(1.05173e-05 -0.000161362 0)
(9.18804e-06 -0.000161942 0)
(1.05011e-05 -0.000162028 0)
(9.17854e-06 -0.000162601 0)
(1.04929e-05 -0.000162683 0)
(9.17565e-06 -0.000163251 0)
(1.0492e-05 -0.000163329 0)
(9.17881e-06 -0.000163892 0)
(1.04978e-05 -0.000163968 0)
(9.18753e-06 -0.000164527 0)
(1.05098e-05 -0.000164601 0)
(9.20134e-06 -0.000165158 0)
(1.05275e-05 -0.00016523 0)
(9.21984e-06 -0.000165786 0)
(1.05503e-05 -0.000165856 0)
(9.24263e-06 -0.000166411 0)
(1.05779e-05 -0.00016648 0)
(9.26936e-06 -0.000167035 0)
(1.06098e-05 -0.000167103 0)
(9.29972e-06 -0.000167659 0)
(1.06458e-05 -0.000167727 0)
(9.3334e-06 -0.000168283 0)
(1.06855e-05 -0.000168351 0)
(9.37013e-06 -0.000168909 0)
(1.07286e-05 -0.000168977 0)
(9.40967e-06 -0.000169536 0)
(1.07748e-05 -0.000169605 0)
(9.45179e-06 -0.000170166 0)
(1.08238e-05 -0.000170235 0)
(9.49628e-06 -0.000170798 0)
(1.08755e-05 -0.000170868 0)
(9.54297e-06 -0.000171433 0)
(1.09296e-05 -0.000171504 0)
(9.59175e-06 -0.000172072 0)
(1.09861e-05 -0.000172144 0)
(2.00235e-05 -0.000131212 0)
(2.1701e-05 -0.000132178 0)
(1.91826e-05 -0.000134171 0)
(2.08094e-05 -0.000135001 0)
(1.8427e-05 -0.000136811 0)
(2.00102e-05 -0.000137531 0)
(1.77526e-05 -0.000139176 0)
(1.92978e-05 -0.000139801 0)
(1.71521e-05 -0.000141303 0)
(1.86635e-05 -0.000141846 0)
(1.66177e-05 -0.000143222 0)
(1.80993e-05 -0.000143694 0)
(1.61426e-05 -0.000144961 0)
(1.75977e-05 -0.000145371 0)
(1.57205e-05 -0.000146545 0)
(1.71523e-05 -0.0001469 0)
(1.53461e-05 -0.000147992 0)
(1.67573e-05 -0.0001483 0)
(1.50144e-05 -0.000149322 0)
(1.64077e-05 -0.000149589 0)
(1.47213e-05 -0.000150549 0)
(1.6099e-05 -0.00015078 0)
(1.44629e-05 -0.000151686 0)
(1.58271e-05 -0.000151887 0)
(1.4236e-05 -0.000152747 0)
(1.55886e-05 -0.00015292 0)
(1.40374e-05 -0.00015374 0)
(1.53803e-05 -0.000153889 0)
(1.38646e-05 -0.000154675 0)
(1.51993e-05 -0.000154803 0)
(1.37151e-05 -0.000155559 0)
(1.50432e-05 -0.00015567 0)
(1.35869e-05 -0.0001564 0)
(1.49097e-05 -0.000156495 0)
(1.3478e-05 -0.000157203 0)
(1.47968e-05 -0.000157284 0)
(1.33867e-05 -0.000157973 0)
(1.47026e-05 -0.000158043 0)
(1.33114e-05 -0.000158716 0)
(1.46255e-05 -0.000158776 0)
(1.32508e-05 -0.000159436 0)
(1.4564e-05 -0.000159486 0)
(1.32036e-05 -0.000160135 0)
(1.45168e-05 -0.000160178 0)
(1.31686e-05 -0.000160817 0)
(1.44827e-05 -0.000160854 0)
(1.31448e-05 -0.000161485 0)
(1.44605e-05 -0.000161517 0)
(1.31314e-05 -0.000162142 0)
(1.44493e-05 -0.000162169 0)
(1.31273e-05 -0.000162788 0)
(1.44481e-05 -0.000162812 0)
(1.31318e-05 -0.000163428 0)
(1.44562e-05 -0.000163448 0)
(1.31443e-05 -0.000164061 0)
(1.44727e-05 -0.000164079 0)
(1.3164e-05 -0.00016469 0)
(1.44969e-05 -0.000164706 0)
(1.31905e-05 -0.000165316 0)
(1.45283e-05 -0.00016533 0)
(1.3223e-05 -0.000165939 0)
(1.45662e-05 -0.000165953 0)
(1.32611e-05 -0.000166562 0)
(1.46102e-05 -0.000166575 0)
(1.33045e-05 -0.000167184 0)
(1.46596e-05 -0.000167197 0)
(1.33525e-05 -0.000167807 0)
(1.47141e-05 -0.00016782 0)
(1.3405e-05 -0.000168432 0)
(1.47733e-05 -0.000168444 0)
(1.34614e-05 -0.000169058 0)
(1.48367e-05 -0.00016907 0)
(1.35215e-05 -0.000169686 0)
(1.49041e-05 -0.000169699 0)
(1.3585e-05 -0.000170318 0)
(1.49751e-05 -0.000170331 0)
(1.36516e-05 -0.000170952 0)
(1.50494e-05 -0.000170966 0)
(1.37212e-05 -0.00017159 0)
(1.51268e-05 -0.000171605 0)
(2.60279e-05 -0.000130996 0)
(2.76164e-05 -0.000131925 0)
(2.49346e-05 -0.000133908 0)
(2.64827e-05 -0.0001347 0)
(2.39552e-05 -0.000136507 0)
(2.54692e-05 -0.000137186 0)
(2.3082e-05 -0.000138834 0)
(2.45662e-05 -0.000139418 0)
(2.23044e-05 -0.000140928 0)
(2.37623e-05 -0.000141428 0)
(2.16125e-05 -0.000142818 0)
(2.30471e-05 -0.000143245 0)
(2.09973e-05 -0.000144531 0)
(2.24114e-05 -0.000144895 0)
(2.04508e-05 -0.000146091 0)
(2.18468e-05 -0.0001464 0)
(1.99659e-05 -0.000147518 0)
(2.13462e-05 -0.000147779 0)
(1.95364e-05 -0.000148829 0)
(2.0903e-05 -0.000149048 0)
(1.91568e-05 -0.00015004 0)
(2.05116e-05 -0.000150222 0)
(1.88222e-05 -0.000151163 0)
(2.0167e-05 -0.000151314 0)
(1.85282e-05 -0.00015221 0)
(1.98647e-05 -0.000152333 0)
(1.82711e-05 -0.000153192 0)
(1.96007e-05 -0.00015329 0)
(1.80473e-05 -0.000154116 0)
(1.93713e-05 -0.000154193 0)
(1.78538e-05 -0.000154991 0)
(1.91735e-05 -0.00015505 0)
(1.76877e-05 -0.000155823 0)
(1.90043e-05 -0.000155866 0)
(1.75467e-05 -0.000156619 0)
(1.88612e-05 -0.000156648 0)
(1.74285e-05 -0.000157383 0)
(1.87418e-05 -0.000157399 0)
(1.73311e-05 -0.000158119 0)
(1.86442e-05 -0.000158126 0)
(1.72527e-05 -0.000158833 0)
(1.85664e-05 -0.000158831 0)
(1.71917e-05 -0.000159527 0)
(1.85066e-05 -0.000159517 0)
(1.71465e-05 -0.000160205 0)
(1.84635e-05 -0.000160188 0)
(1.71158e-05 -0.000160869 0)
(1.84355e-05 -0.000160847 0)
(1.70985e-05 -0.000161522 0)
(1.84214e-05 -0.000161495 0)
(1.70933e-05 -0.000162166 0)
(1.84201e-05 -0.000162135 0)
(1.70993e-05 -0.000162802 0)
(1.84305e-05 -0.000162768 0)
(1.71156e-05 -0.000163432 0)
(1.84515e-05 -0.000163396 0)
(1.71414e-05 -0.000164059 0)
(1.84825e-05 -0.00016402 0)
(1.71757e-05 -0.000164682 0)
(1.85224e-05 -0.000164642 0)
(1.7218e-05 -0.000165303 0)
(1.85707e-05 -0.000165262 0)
(1.72676e-05 -0.000165924 0)
(1.86266e-05 -0.000165882 0)
(1.73239e-05 -0.000166545 0)
(1.86895e-05 -0.000166502 0)
(1.73864e-05 -0.000167166 0)
(1.87589e-05 -0.000167123 0)
(1.74545e-05 -0.000167788 0)
(1.88341e-05 -0.000167745 0)
(1.75278e-05 -0.000168413 0)
(1.89148e-05 -0.00016837 0)
(1.76058e-05 -0.00016904 0)
(1.90004e-05 -0.000168997 0)
(1.76882e-05 -0.00016967 0)
(1.90906e-05 -0.000169627 0)
(1.77747e-05 -0.000170303 0)
(1.91851e-05 -0.000170261 0)
(1.7865e-05 -0.000170939 0)
(1.92835e-05 -0.000170898 0)
(3.20243e-05 -0.000130723 0)
(3.35234e-05 -0.000131611 0)
(3.06814e-05 -0.000133577 0)
(3.21511e-05 -0.000134327 0)
(2.94809e-05 -0.000136123 0)
(3.09261e-05 -0.00013676 0)
(2.84112e-05 -0.000138405 0)
(2.98351e-05 -0.000138944 0)
(2.74589e-05 -0.000140457 0)
(2.88639e-05 -0.000140912 0)
(2.66115e-05 -0.00014231 0)
(2.8e-05 -0.000142692 0)
(2.5858e-05 -0.000143991 0)
(2.72319e-05 -0.000144308 0)
(2.51886e-05 -0.000145522 0)
(2.65499e-05 -0.000145784 0)
(2.45947e-05 -0.000146923 0)
(2.59451e-05 -0.000147136 0)
(2.40687e-05 -0.000148211 0)
(2.54097e-05 -0.000148381 0)
(2.36037e-05 -0.000149401 0)
(2.49369e-05 -0.000149534 0)
(2.31939e-05 -0.000150506 0)
(2.45206e-05 -0.000150607 0)
(2.28339e-05 -0.000151537 0)
(2.41554e-05 -0.000151609 0)
(2.2519e-05 -0.000152504 0)
(2.38364e-05 -0.000152551 0)
(2.22449e-05 -0.000153415 0)
(2.35594e-05 -0.000153441 0)
(2.20079e-05 -0.000154278 0)
(2.33204e-05 -0.000154285 0)
(2.18046e-05 -0.0001551 0)
(2.31161e-05 -0.00015509 0)
(2.1632e-05 -0.000155886 0)
(2.29433e-05 -0.000155862 0)
(2.14873e-05 -0.000156641 0)
(2.27993e-05 -0.000156605 0)
(2.13681e-05 -0.00015737 0)
(2.26815e-05 -0.000157324 0)
(2.12722e-05 -0.000158077 0)
(2.25876e-05 -0.000158021 0)
(2.11976e-05 -0.000158765 0)
(2.25156e-05 -0.000158701 0)
(2.11424e-05 -0.000159437 0)
(2.24637e-05 -0.000159367 0)
(2.1105e-05 -0.000160096 0)
(2.24301e-05 -0.00016002 0)
(2.1084e-05 -0.000160744 0)
(2.24134e-05 -0.000160663 0)
(2.10779e-05 -0.000161383 0)
(2.2412e-05 -0.000161299 0)
(2.10855e-05 -0.000162016 0)
(2.24248e-05 -0.000161928 0)
(2.11057e-05 -0.000162643 0)
(2.24506e-05 -0.000162552 0)
(2.11375e-05 -0.000163266 0)
(2.24882e-05 -0.000163173 0)
(2.11798e-05 -0.000163886 0)
(2.25368e-05 -0.000163791 0)
(2.12319e-05 -0.000164505 0)
(2.25955e-05 -0.000164409 0)
(2.1293e-05 -0.000165123 0)
(2.26634e-05 -0.000165026 0)
(2.13623e-05 -0.000165741 0)
(2.27397e-05 -0.000165643 0)
(2.14391e-05 -0.00016636 0)
(2.28239e-05 -0.000166262 0)
(2.15229e-05 -0.00016698 0)
(2.29152e-05 -0.000166882 0)
(2.1613e-05 -0.000167603 0)
(2.3013e-05 -0.000167504 0)
(2.17089e-05 -0.000168228 0)
(2.31169e-05 -0.00016813 0)
(2.18103e-05 -0.000168856 0)
(2.32263e-05 -0.000168758 0)
(2.19166e-05 -0.000169487 0)
(2.33408e-05 -0.000169389 0)
(2.20275e-05 -0.000170121 0)
(2.34601e-05 -0.000170025 0)
(3.80104e-05 -0.000130394 0)
(3.94209e-05 -0.000131237 0)
(3.64219e-05 -0.000133178 0)
(3.78139e-05 -0.000133882 0)
(3.50036e-05 -0.000135662 0)
(3.63809e-05 -0.000136253 0)
(3.37404e-05 -0.000137888 0)
(3.51049e-05 -0.000138381 0)
(3.2616e-05 -0.000139891 0)
(3.39693e-05 -0.000140299 0)
(3.16156e-05 -0.000141701 0)
(3.2959e-05 -0.000142034 0)
(3.07261e-05 -0.000143343 0)
(3.2061e-05 -0.000143611 0)
(2.99358e-05 -0.000144839 0)
(3.12634e-05 -0.000145051 0)
(2.92346e-05 -0.000146209 0)
(3.05562e-05 -0.000146372 0)
(2.86136e-05 -0.00014747 0)
(2.99302e-05 -0.00014759 0)
(2.80647e-05 -0.000148635 0)
(2.93774e-05 -0.000148718 0)
(2.75808e-05 -0.000149718 0)
(2.88906e-05 -0.000149767 0)
(2.71558e-05 -0.000150729 0)
(2.84636e-05 -0.00015075 0)
(2.6784e-05 -0.000151678 0)
(2.80907e-05 -0.000151674 0)
(2.64605e-05 -0.000152573 0)
(2.77668e-05 -0.000152547 0)
(2.61808e-05 -0.000153422 0)
(2.74875e-05 -0.000153377 0)
(2.59409e-05 -0.000154231 0)
(2.72488e-05 -0.00015417 0)
(2.57373e-05 -0.000155005 0)
(2.70469e-05 -0.00015493 0)
(2.55666e-05 -0.00015575 0)
(2.68787e-05 -0.000155662 0)
(2.54261e-05 -0.00015647 0)
(2.67411e-05 -0.000156371 0)
(2.53131e-05 -0.000157169 0)
(2.66316e-05 -0.00015706 0)
(2.52252e-05 -0.000157849 0)
(2.65477e-05 -0.000157733 0)
(2.51603e-05 -0.000158514 0)
(2.64873e-05 -0.000158391 0)
(2.51165e-05 -0.000159167 0)
(2.64484e-05 -0.000159038 0)
(2.50919e-05 -0.00015981 0)
(2.64291e-05 -0.000159676 0)
(2.50851e-05 -0.000160444 0)
(2.64279e-05 -0.000160306 0)
(2.50944e-05 -0.000161072 0)
(2.64432e-05 -0.00016093 0)
(2.51186e-05 -0.000161695 0)
(2.64738e-05 -0.00016155 0)
(2.51565e-05 -0.000162314 0)
(2.65183e-05 -0.000162167 0)
(2.5207e-05 -0.00016293 0)
(2.65756e-05 -0.000162782 0)
(2.52689e-05 -0.000163546 0)
(2.66447e-05 -0.000163396 0)
(2.53414e-05 -0.000164161 0)
(2.67246e-05 -0.000164009 0)
(2.54237e-05 -0.000164776 0)
(2.68144e-05 -0.000164624 0)
(2.55149e-05 -0.000165392 0)
(2.69133e-05 -0.000165239 0)
(2.56143e-05 -0.00016601 0)
(2.70206e-05 -0.000165857 0)
(2.57212e-05 -0.00016663 0)
(2.71356e-05 -0.000166477 0)
(2.5835e-05 -0.000167252 0)
(2.72577e-05 -0.000167099 0)
(2.59552e-05 -0.000167878 0)
(2.73862e-05 -0.000167725 0)
(2.60812e-05 -0.000168507 0)
(2.75207e-05 -0.000168354 0)
(2.62128e-05 -0.000169139 0)
(2.76608e-05 -0.000168987 0)
(4.39844e-05 -0.000130008 0)
(4.53072e-05 -0.000130803 0)
(4.2155e-05 -0.000132711 0)
(4.34703e-05 -0.000133367 0)
(4.05229e-05 -0.000135124 0)
(4.18332e-05 -0.000135665 0)
(3.90697e-05 -0.000137286 0)
(4.03759e-05 -0.000137729 0)
(3.77764e-05 -0.000139232 0)
(3.9079e-05 -0.00013959 0)
(3.66258e-05 -0.00014099 0)
(3.79253e-05 -0.000141274 0)
(3.56027e-05 -0.000142587 0)
(3.68998e-05 -0.000142806 0)
(3.46938e-05 -0.000144043 0)
(3.59891e-05 -0.000144205 0)
(3.38874e-05 -0.000145377 0)
(3.51815e-05 -0.00014549 0)
(3.31732e-05 -0.000146606 0)
(3.44667e-05 -0.000146675 0)
(3.25419e-05 -0.000147742 0)
(3.38355e-05 -0.000147774 0)
(3.19855e-05 -0.000148799 0)
(3.32797e-05 -0.000148798 0)
(3.14968e-05 -0.000149787 0)
(3.27922e-05 -0.000149757 0)
(3.10693e-05 -0.000150716 0)
(3.23665e-05 -0.00015066 0)
(3.06974e-05 -0.000151593 0)
(3.19968e-05 -0.000151515 0)
(3.03758e-05 -0.000152425 0)
(3.16781e-05 -0.000152328 0)
(3.01001e-05 -0.000153219 0)
(3.14056e-05 -0.000153106 0)
(2.98661e-05 -0.00015398 0)
(3.11754e-05 -0.000153852 0)
(2.96701e-05 -0.000154713 0)
(3.09835e-05 -0.000154573 0)
(2.95087e-05 -0.000155422 0)
(3.08268e-05 -0.000155271 0)
(2.9379e-05 -0.000156111 0)
(3.07021e-05 -0.00015595 0)
(2.92783e-05 -0.000156783 0)
(3.06067e-05 -0.000156613 0)
(2.9204e-05 -0.00015744 0)
(3.05381e-05 -0.000157264 0)
(2.9154e-05 -0.000158085 0)
(3.04941e-05 -0.000157903 0)
(2.91262e-05 -0.000158721 0)
(3.04725e-05 -0.000158534 0)
(2.91188e-05 -0.00015935 0)
(3.04717e-05 -0.000159158 0)
(2.913e-05 -0.000159972 0)
(3.04897e-05 -0.000159777 0)
(2.91584e-05 -0.00016059 0)
(3.05252e-05 -0.000160392 0)
(2.92025e-05 -0.000161205 0)
(3.05766e-05 -0.000161004 0)
(2.92611e-05 -0.000161817 0)
(3.06427e-05 -0.000161615 0)
(2.93329e-05 -0.000162429 0)
(3.07222e-05 -0.000162225 0)
(2.9417e-05 -0.00016304 0)
(3.08141e-05 -0.000162835 0)
(2.95122e-05 -0.000163652 0)
(3.09174e-05 -0.000163446 0)
(2.96178e-05 -0.000164265 0)
(3.10311e-05 -0.000164058 0)
(2.97327e-05 -0.000164879 0)
(3.11544e-05 -0.000164673 0)
(2.98564e-05 -0.000165496 0)
(3.12865e-05 -0.00016529 0)
(2.9988e-05 -0.000166116 0)
(3.14267e-05 -0.000165909 0)
(3.0127e-05 -0.000166739 0)
(3.15743e-05 -0.000166532 0)
(3.02726e-05 -0.000167365 0)
(3.17287e-05 -0.000167158 0)
(3.04247e-05 -0.000167994 0)
(3.18895e-05 -0.000167788 0)
(4.99442e-05 -0.000129567 0)
(5.11806e-05 -0.000130309 0)
(4.78791e-05 -0.000132178 0)
(4.91191e-05 -0.000132782 0)
(4.6038e-05 -0.000134508 0)
(4.72827e-05 -0.000134999 0)
(4.4399e-05 -0.000136598 0)
(4.56481e-05 -0.00013699 0)
(4.29405e-05 -0.000138479 0)
(4.41936e-05 -0.000138786 0)
(4.16429e-05 -0.00014018 0)
(4.28998e-05 -0.000140413 0)
(4.04892e-05 -0.000141726 0)
(4.17498e-05 -0.000141893 0)
(3.94643e-05 -0.000143136 0)
(4.07285e-05 -0.000143247 0)
(3.8555e-05 -0.000144429 0)
(3.98229e-05 -0.000144491 0)
(3.77496e-05 -0.000145621 0)
(3.90214e-05 -0.000145639 0)
(3.70378e-05 -0.000146725 0)
(3.83136e-05 -0.000146705 0)
(3.64105e-05 -0.000147753 0)
(3.76904e-05 -0.0001477 0)
(3.58595e-05 -0.000148715 0)
(3.71439e-05 -0.000148633 0)
(3.53776e-05 -0.00014962 0)
(3.66666e-05 -0.000149513 0)
(3.49584e-05 -0.000150476 0)
(3.62523e-05 -0.000150347 0)
(3.4596e-05 -0.000151289 0)
(3.58951e-05 -0.000151141 0)
(3.42853e-05 -0.000152067 0)
(3.55899e-05 -0.000151901 0)
(3.40218e-05 -0.000152812 0)
(3.5332e-05 -0.000152633 0)
(3.38011e-05 -0.000153532 0)
(3.51173e-05 -0.000153339 0)
(3.36195e-05 -0.000154229 0)
(3.49419e-05 -0.000154025 0)
(3.34737e-05 -0.000154906 0)
(3.48025e-05 -0.000154693 0)
(3.33605e-05 -0.000155568 0)
(3.4696e-05 -0.000155347 0)
(3.32773e-05 -0.000156216 0)
(3.46197e-05 -0.000155988 0)
(3.32214e-05 -0.000156853 0)
(3.45709e-05 -0.000156619 0)
(3.31906e-05 -0.000157482 0)
(3.45474e-05 -0.000157243 0)
(3.31828e-05 -0.000158103 0)
(3.45471e-05 -0.00015786 0)
(3.31961e-05 -0.00015872 0)
(3.45681e-05 -0.000158473 0)
(3.32288e-05 -0.000159332 0)
(3.46086e-05 -0.000159082 0)
(3.32793e-05 -0.000159941 0)
(3.4667e-05 -0.000159689 0)
(3.33461e-05 -0.000160549 0)
(3.4742e-05 -0.000160294 0)
(3.34279e-05 -0.000161156 0)
(3.4832e-05 -0.0001609 0)
(3.35235e-05 -0.000161763 0)
(3.4936e-05 -0.000161506 0)
(3.36317e-05 -0.000162371 0)
(3.50527e-05 -0.000162113 0)
(3.37516e-05 -0.00016298 0)
(3.51812e-05 -0.000162721 0)
(3.38822e-05 -0.000163592 0)
(3.53204e-05 -0.000163332 0)
(3.40225e-05 -0.000164205 0)
(3.54696e-05 -0.000163945 0)
(3.41719e-05 -0.000164822 0)
(3.56278e-05 -0.000164562 0)
(3.43295e-05 -0.000165441 0)
(3.57943e-05 -0.000165181 0)
(3.44948e-05 -0.000166064 0)
(3.59685e-05 -0.000165805 0)
(3.46672e-05 -0.000166691 0)
(3.61499e-05 -0.000166432 0)
(5.58879e-05 -0.000129071 0)
(5.70394e-05 -0.000129757 0)
(5.35932e-05 -0.000131578 0)
(5.47593e-05 -0.000132128 0)
(5.15482e-05 -0.000133818 0)
(5.27288e-05 -0.000134254 0)
(4.97281e-05 -0.000135826 0)
(5.09217e-05 -0.000136165 0)
(4.81085e-05 -0.000137635 0)
(4.93137e-05 -0.000137889 0)
(4.66677e-05 -0.000139272 0)
(4.78834e-05 -0.000139452 0)
(4.53866e-05 -0.00014076 0)
(4.66121e-05 -0.000140876 0)
(4.42486e-05 -0.00014212 0)
(4.54832e-05 -0.000142178 0)
(4.3239e-05 -0.000143367 0)
(4.44822e-05 -0.000143377 0)
(4.23449e-05 -0.000144519 0)
(4.35962e-05 -0.000144485 0)
(4.15546e-05 -0.000145586 0)
(4.28139e-05 -0.000145515 0)
(4.08582e-05 -0.000146581 0)
(4.21252e-05 -0.000146477 0)
(4.02466e-05 -0.000147514 0)
(4.15212e-05 -0.000147381 0)
(3.97117e-05 -0.000148393 0)
(4.09939e-05 -0.000148235 0)
(3.92465e-05 -0.000149226 0)
(4.05362e-05 -0.000149045 0)
(3.88444e-05 -0.000150018 0)
(4.01417e-05 -0.000149818 0)
(3.84998e-05 -0.000150776 0)
(3.98047e-05 -0.00015056 0)
(3.82075e-05 -0.000151505 0)
(3.95201e-05 -0.000151274 0)
(3.79629e-05 -0.000152209 0)
(3.92832e-05 -0.000151966 0)
(3.77618e-05 -0.000152892 0)
(3.90899e-05 -0.000152638 0)
(3.76004e-05 -0.000153557 0)
(3.89364e-05 -0.000153293 0)
(3.74754e-05 -0.000154208 0)
(3.88193e-05 -0.000153935 0)
(3.73836e-05 -0.000154846 0)
(3.87356e-05 -0.000154567 0)
(3.73222e-05 -0.000155474 0)
(3.86825e-05 -0.000155189 0)
(3.72888e-05 -0.000156094 0)
(3.86573e-05 -0.000155804 0)
(3.72809e-05 -0.000156708 0)
(3.86578e-05 -0.000156413 0)
(3.72965e-05 -0.000157318 0)
(3.86819e-05 -0.000157019 0)
(3.73337e-05 -0.000157923 0)
(3.87276e-05 -0.000157622 0)
(3.73906e-05 -0.000158527 0)
(3.87932e-05 -0.000158223 0)
(3.74657e-05 -0.000159129 0)
(3.88771e-05 -0.000158823 0)
(3.75576e-05 -0.000159731 0)
(3.89777e-05 -0.000159424 0)
(3.76647e-05 -0.000160334 0)
(3.90938e-05 -0.000160025 0)
(3.7786e-05 -0.000160937 0)
(3.9224e-05 -0.000160627 0)
(3.79202e-05 -0.000161543 0)
(3.93672e-05 -0.000161232 0)
(3.80663e-05 -0.00016215 0)
(3.95223e-05 -0.000161839 0)
(3.82233e-05 -0.00016276 0)
(3.96884e-05 -0.000162448 0)
(3.83903e-05 -0.000163373 0)
(3.98646e-05 -0.000163061 0)
(3.85666e-05 -0.000163989 0)
(4.005e-05 -0.000163677 0)
(3.87513e-05 -0.000164608 0)
(4.0244e-05 -0.000164297 0)
(3.89441e-05 -0.000165231 0)
(4.04459e-05 -0.00016492 0)
(6.18134e-05 -0.000128519 0)
(6.28818e-05 -0.000129146 0)
(5.92958e-05 -0.000130914 0)
(6.03897e-05 -0.000131406 0)
(5.70529e-05 -0.000133053 0)
(5.81709e-05 -0.000133432 0)
(5.50568e-05 -0.000134972 0)
(5.61964e-05 -0.000135255 0)
(5.32807e-05 -0.000136702 0)
(5.44395e-05 -0.000136901 0)
(5.17007e-05 -0.000138268 0)
(5.28768e-05 -0.000138394 0)
(5.0296e-05 -0.000139693 0)
(5.14879e-05 -0.000139755 0)
(4.90482e-05 -0.000140996 0)
(5.02545e-05 -0.000141002 0)
(4.79412e-05 -0.000142194 0)
(4.9161e-05 -0.000142151 0)
(4.69607e-05 -0.0001433 0)
(4.81931e-05 -0.000143214 0)
(4.60944e-05 -0.000144328 0)
(4.73386e-05 -0.000144204 0)
(4.53309e-05 -0.000145287 0)
(4.65864e-05 -0.000145131 0)
(4.46604e-05 -0.000146188 0)
(4.59267e-05 -0.000146003 0)
(4.40742e-05 -0.000147038 0)
(4.5351e-05 -0.000146828 0)
(4.35644e-05 -0.000147845 0)
(4.48513e-05 -0.000147613 0)
(4.31239e-05 -0.000148614 0)
(4.44207e-05 -0.000148363 0)
(4.27464e-05 -0.000149351 0)
(4.4053e-05 -0.000149084 0)
(4.24264e-05 -0.000150061 0)
(4.37426e-05 -0.00014978 0)
(4.21588e-05 -0.000150749 0)
(4.34844e-05 -0.000150454 0)
(4.19389e-05 -0.000151416 0)
(4.32739e-05 -0.000151111 0)
(4.17626e-05 -0.000152068 0)
(4.31069e-05 -0.000151753 0)
(4.16262e-05 -0.000152706 0)
(4.29799e-05 -0.000152383 0)
(4.15263e-05 -0.000153333 0)
(4.28893e-05 -0.000153003 0)
(4.14599e-05 -0.000153951 0)
(4.28321e-05 -0.000153615 0)
(4.14241e-05 -0.000154562 0)
(4.28056e-05 -0.000154221 0)
(4.14165e-05 -0.000155168 0)
(4.28072e-05 -0.000154822 0)
(4.14346e-05 -0.000155769 0)
(4.28347e-05 -0.00015542 0)
(4.14764e-05 -0.000156368 0)
(4.28858e-05 -0.000156016 0)
(4.154e-05 -0.000156965 0)
(4.29587e-05 -0.000156611 0)
(4.16236e-05 -0.000157562 0)
(4.30516e-05 -0.000157205 0)
(4.17255e-05 -0.000158158 0)
(4.31628e-05 -0.0001578 0)
(4.18442e-05 -0.000158756 0)
(4.3291e-05 -0.000158396 0)
(4.19785e-05 -0.000159354 0)
(4.34347e-05 -0.000158994 0)
(4.2127e-05 -0.000159955 0)
(4.35926e-05 -0.000159594 0)
(4.22886e-05 -0.000160558 0)
(4.37636e-05 -0.000160196 0)
(4.24623e-05 -0.000161164 0)
(4.39466e-05 -0.000160802 0)
(4.26469e-05 -0.000161773 0)
(4.41407e-05 -0.00016141 0)
(4.28417e-05 -0.000162385 0)
(4.43449e-05 -0.000162022 0)
(4.30458e-05 -0.000163001 0)
(4.45584e-05 -0.000162638 0)
(4.32587e-05 -0.00016362 0)
(4.47807e-05 -0.000163258 0)
(6.77189e-05 -0.000127913 0)
(6.87061e-05 -0.000128477 0)
(6.49856e-05 -0.000130185 0)
(6.60091e-05 -0.000130616 0)
(6.25512e-05 -0.000132214 0)
(6.36085e-05 -0.000132535 0)
(6.03849e-05 -0.000134036 0)
(6.14721e-05 -0.000134262 0)
(5.84573e-05 -0.00013568 0)
(5.95713e-05 -0.000135823 0)
(5.67427e-05 -0.00013717 0)
(5.78807e-05 -0.00013724 0)
(5.52182e-05 -0.000138526 0)
(5.6378e-05 -0.000138533 0)
(5.38641e-05 -0.000139768 0)
(5.50438e-05 -0.00013972 0)
(5.26628e-05 -0.000140911 0)
(5.38607e-05 -0.000140815 0)
(5.1599e-05 -0.000141969 0)
(5.28138e-05 -0.000141831 0)
(5.0659e-05 -0.000142953 0)
(5.18895e-05 -0.000142778 0)
(4.98307e-05 -0.000143873 0)
(5.1076e-05 -0.000143666 0)
(4.91034e-05 -0.000144739 0)
(5.03627e-05 -0.000144503 0)
(4.84675e-05 -0.000145558 0)
(4.97402e-05 -0.000145297 0)
(4.79146e-05 -0.000146336 0)
(4.92e-05 -0.000146054 0)
(4.74371e-05 -0.00014708 0)
(4.87347e-05 -0.000146779 0)
(4.7028e-05 -0.000147795 0)
(4.83375e-05 -0.000147478 0)
(4.66814e-05 -0.000148485 0)
(4.80023e-05 -0.000148153 0)
(4.63916e-05 -0.000149154 0)
(4.77238e-05 -0.00014881 0)
(4.61537e-05 -0.000149805 0)
(4.74969e-05 -0.00014945 0)
(4.59632e-05 -0.000150441 0)
(4.73172e-05 -0.000150077 0)
(4.58161e-05 -0.000151066 0)
(4.71807e-05 -0.000150694 0)
(4.57087e-05 -0.000151681 0)
(4.70837e-05 -0.000151302 0)
(4.56377e-05 -0.000152288 0)
(4.7023e-05 -0.000151903 0)
(4.56e-05 -0.000152889 0)
(4.69956e-05 -0.000152499 0)
(4.55929e-05 -0.000153485 0)
(4.69986e-05 -0.000153091 0)
(4.56138e-05 -0.000154079 0)
(4.70296e-05 -0.000153681 0)
(4.56605e-05 -0.00015467 0)
(4.70863e-05 -0.000154269 0)
(4.57308e-05 -0.00015526 0)
(4.71667e-05 -0.000154857 0)
(4.58229e-05 -0.00015585 0)
(4.72687e-05 -0.000155445 0)
(4.5935e-05 -0.000156441 0)
(4.73907e-05 -0.000156033 0)
(4.60654e-05 -0.000157032 0)
(4.7531e-05 -0.000156624 0)
(4.62128e-05 -0.000157626 0)
(4.76881e-05 -0.000157216 0)
(4.63756e-05 -0.000158222 0)
(4.78607e-05 -0.000157811 0)
(4.65527e-05 -0.00015882 0)
(4.80476e-05 -0.000158409 0)
(4.67428e-05 -0.000159421 0)
(4.82475e-05 -0.00015901 0)
(4.6945e-05 -0.000160026 0)
(4.84594e-05 -0.000159614 0)
(4.71582e-05 -0.000160634 0)
(4.86822e-05 -0.000160222 0)
(4.73816e-05 -0.000161246 0)
(4.89153e-05 -0.000160833 0)
(4.76145e-05 -0.000161861 0)
(4.91577e-05 -0.000161449 0)
(7.36023e-05 -0.000127253 0)
(7.45106e-05 -0.000127752 0)
(7.06613e-05 -0.000129392 0)
(7.16164e-05 -0.000129761 0)
(6.80424e-05 -0.000131304 0)
(6.90407e-05 -0.000131564 0)
(6.5712e-05 -0.000133022 0)
(6.67487e-05 -0.000133188 0)
(6.36384e-05 -0.000134572 0)
(6.47094e-05 -0.000134657 0)
(6.17939e-05 -0.000135979 0)
(6.28956e-05 -0.000135993 0)
(6.01541e-05 -0.000137262 0)
(6.12834e-05 -0.000137214 0)
(5.86975e-05 -0.000138438 0)
(5.9852e-05 -0.000138336 0)
(5.74054e-05 -0.000139523 0)
(5.85829e-05 -0.000139373 0)
(5.62612e-05 -0.000140528 0)
(5.74599e-05 -0.000140337 0)
(5.52502e-05 -0.000141465 0)
(5.64685e-05 -0.000141237 0)
(5.43595e-05 -0.000142343 0)
(5.5596e-05 -0.000142084 0)
(5.35775e-05 -0.000143171 0)
(5.48312e-05 -0.000142884 0)
(5.28939e-05 -0.000143956 0)
(5.41637e-05 -0.000143645 0)
(5.22997e-05 -0.000144704 0)
(5.35848e-05 -0.000144372 0)
(5.17866e-05 -0.000145421 0)
(5.30862e-05 -0.000145071 0)
(5.13472e-05 -0.000146111 0)
(5.26608e-05 -0.000145745 0)
(5.09751e-05 -0.000146779 0)
(5.23021e-05 -0.000146399 0)
(5.06642e-05 -0.000147428 0)
(5.20041e-05 -0.000147035 0)
(5.04092e-05 -0.000148062 0)
(5.17617e-05 -0.000147658 0)
(5.02053e-05 -0.000148682 0)
(5.157e-05 -0.00014827 0)
(5.00482e-05 -0.000149292 0)
(5.14247e-05 -0.000148872 0)
(4.99338e-05 -0.000149894 0)
(5.1322e-05 -0.000149467 0)
(4.98586e-05 -0.000150489 0)
(5.12582e-05 -0.000150056 0)
(4.98194e-05 -0.000151079 0)
(5.12302e-05 -0.000150641 0)
(4.98131e-05 -0.000151666 0)
(5.1235e-05 -0.000151224 0)