/*--------------------------------*- C++ -*----------------------------------*\
| =========                 |                                                 |
| \\      /  F ield         | OpenFOAM: The Open Source CFD Toolbox           |
|  \\    /   O peration     | Version:  v2012                                 |
|   \\  /    A nd           | Website:  www.openfoam.com                      |
|    \\/     M anipulation  |                                                 |
\*---------------------------------------------------------------------------*/
FoamFile
{
    version     2.0;
    format      ascii;
    class       pointVectorField;
    location    "1";
    object      pointD;
}
// * * * * * * * * * * * * * * * * * * * * * * * * * * * * * * * * * * * * * //

dimensions      [0 1 0 0 0 0 0];


internalField   nonuniform List<vector> 
32562
(
(0.000315402 0 0)
(0.000478227 0 0)
(0.000319452 -9.29079e-05 0)
(0 -0.000233152 0)
(0 -0.000131017 -1.05681e-21)
(0.00034487 0 0)
(0 -0.000172848 0)
(0.000195981 -7.49079e-05 0)
(9.91981e-05 -0.000201752 1.56239e-23)
(0.000440072 -7.43163e-06 -2.78098e-22)
(0.000220613 -9.17277e-05 -4.03356e-22)
(0.000220613 -9.17277e-05 -4.03356e-22)
(0.000195981 -7.49079e-05 0)
(0 -0.000172848 0)
(0 -0.000131017 -1.05681e-21)
(0.000315402 0 0)
(0.00034487 0 0)
(0.000478227 0 0)
(0.000440072 -7.43163e-06 -2.78098e-22)
(0.000319452 -9.29079e-05 0)
(9.91981e-05 -0.000201752 1.56239e-23)
(0 -0.000233152 0)
(4.10878e-06 -0.000172861 0)
(8.22749e-06 -0.000172607 0)
(1.23556e-05 -0.000172182 0)
(1.64967e-05 -0.00017159 0)
(2.06549e-05 -0.00017083 0)
(2.48342e-05 -0.000169907 0)
(2.90386e-05 -0.00016882 0)
(3.32719e-05 -0.000167575 0)
(3.75379e-05 -0.000166173 0)
(4.18402e-05 -0.000164618 0)
(4.6182e-05 -0.000162915 0)
(5.05666e-05 -0.000161067 0)
(5.4997e-05 -0.00015908 0)
(5.94758e-05 -0.000156958 0)
(6.40055e-05 -0.000154706 0)
(6.85884e-05 -0.00015233 0)
(7.32264e-05 -0.000149837 0)
(7.79211e-05 -0.000147231 0)
(8.2674e-05 -0.00014452 0)
(8.7486e-05 -0.00014171 0)
(9.23579e-05 -0.000138807 0)
(9.72901e-05 -0.000135819 0)
(0.000102283 -0.000132752 0)
(0.000107335 -0.000129613 0)
(0.000112447 -0.00012641 0)
(0.000117617 -0.00012315 0)
(0.000122845 -0.00011984 0)
(0.000128127 -0.000116487 0)
(0.000133463 -0.000113099 0)
(0.00013885 -0.000109683 0)
(0.000144284 -0.000106245 0)
(0.000149764 -0.000102794 0)
(0.000155285 -9.93364e-05 0)
(0.000160843 -9.58784e-05 0)
(0.000166434 -9.24271e-05 0)
(0.000172055 -8.89891e-05 0)
(0.000177698 -8.55707e-05 0)
(0.00018336 -8.21784e-05 0)
(0.000189031 -7.88191e-05 0)
(0.000203011 -7.07407e-05 0)
(0.000208686 -6.75353e-05 0)
(0.000214345 -6.43852e-05 0)
(0.000219983 -6.12954e-05 0)
(0.000225591 -5.82702e-05 0)
(0.000231163 -5.53135e-05 0)
(0.00023669 -5.24288e-05 0)
(0.000242166 -4.96194e-05 0)
(0.000247582 -4.68879e-05 0)
(0.00025293 -4.4237e-05 0)
(0.000258203 -4.16685e-05 0)
(0.000263393 -3.91844e-05 0)
(0.00026849 -3.67858e-05 0)
(0.000273488 -3.44739e-05 0)
(0.000278378 -3.22492e-05 0)
(0.000283153 -3.0112e-05 0)
(0.000287803 -2.80622e-05 0)
(0.000292321 -2.60992e-05 0)
(0.000296699 -2.42223e-05 0)
(0.00030093 -2.24301e-05 0)
(0.000305005 -2.07212e-05 0)
(0.000308919 -1.90937e-05 0)
(0.000312662 -1.75453e-05 0)
(0.000316229 -1.60734e-05 0)
(0.000319612 -1.46753e-05 0)
(0.000322806 -1.33477e-05 0)
(0.000325803 -1.20873e-05 0)
(0.0003286 -1.08902e-05 0)
(0.000331189 -9.7526e-06 0)
(0.000333566 -8.6702e-06 0)
(0.000335726 -7.63861e-06 0)
(0.000337665 -6.6532e-06 0)
(0.000339379 -5.70916e-06 0)
(0.000340865 -4.80151e-06 0)
(0.00034212 -3.92514e-06 0)
(0.000343141 -3.07481e-06 0)
(0.000343926 -2.24517e-06 0)
(0.000344476 -1.43081e-06 0)
(0.00034479 -6.26341e-07 0)
(0.000316403 0 0)
(0.000317427 0 0)
(0.000318312 0 0)
(0.000319081 0 0)
(0.000319755 0 0)
(0.000320357 0 0)
(0.000320902 0 0)
(0.000321406 0 0)
(0.000321881 0 0)
(0.000322337 0 0)
(0.000322784 0 0)
(0.000323229 0 0)
(0.000323678 0 0)
(0.000324136 0 0)
(0.000324607 0 0)
(0.000325096 0 0)
(0.000325605 0 0)
(0.000326137 0 0)
(0.000326694 0 0)
(0.000327276 0 0)
(0.000327887 0 0)
(0.000328526 0 0)
(0.000329194 0 0)
(0.000329892 0 0)
(0.00033062 0 0)
(0.000331378 0 0)
(0.000332166 0 0)
(0.000332985 0 0)
(0.000333834 0 0)
(0.000334714 0 0)
(0.000335622 0 0)
(0.00033656 0 0)
(0.000337527 0 0)
(0.000338523 0 0)
(0.000339547 0 0)
(0.000340598 0 0)
(0.000341676 0 0)
(0.000342781 0 0)
(0.000343911 0 0)
(0.000345849 0 0)
(0.000347044 0 0)
(0.000348263 0 0)
(0.000349505 0 0)
(0.000350769 0 0)
(0.000352057 0 0)
(0.000353366 0 0)
(0.000354696 0 0)
(0.000356048 0 0)
(0.000357419 0 0)
(0.000358811 0 0)
(0.000360221 0 0)
(0.00036165 0 0)
(0.000363098 0 0)
(0.000364563 0 0)
(0.000366045 0 0)
(0.000367545 0 0)
(0.00036906 0 0)
(0.000370591 0 0)
(0.000372138 0 0)
(0.0003737 0 0)
(0.000375276 0 0)
(0.000376866 0 0)
(0.00037847 0 0)
(0.000380087 0 0)
(0.000381717 0 0)
(0.00038336 0 0)
(0.000385015 0 0)
(0.000386681 0 0)
(0.000388359 0 0)
(0.000390047 0 0)
(0.000391746 0 0)
(0.000393456 0 0)
(0.000395175 0 0)
(0.000396904 0 0)
(0.000398642 0 0)
(0.000400388 0 0)
(0.000402143 0 0)
(0.000403906 0 0)
(0.000405677 0 0)
(0.000407455 0 0)
(0.000409241 0 0)
(0.000411033 0 0)
(0.000412831 0 0)
(0.000414635 0 0)
(0.000416445 0 0)
(0.00041826 0 0)
(0.00042008 0 0)
(0.000421905 0 0)
(0.000423734 0 0)
(0.000425567 0 0)
(0.000427404 0 0)
(0.000429243 0 0)
(0.000431086 0 0)
(0.00043293 0 0)
(0.000434777 0 0)
(0.000436626 0 0)
(0.000438475 0 0)
(0.000440326 0 0)
(0.000442177 0 0)
(0.000444027 0 0)
(0.000445878 0 0)
(0.000447727 0 0)
(0.000449575 0 0)
(0.000451421 0 0)
(0.000453265 0 0)
(0.000455106 0 0)
(0.000456944 0 0)
(0.000458778 0 0)
(0.000460607 0 0)
(0.000462432 0 0)
(0.000464251 0 0)
(0.000466063 0 0)
(0.000467869 0 0)
(0.000469668 0 0)
(0.000471458 0 0)
(0.000473239 0 0)
(0.000475012 0 0)
(0.000476774 0 0)
(0.000478773 1.23645e-07 -1.53094e-22)
(0.000478679 2.23788e-07 -3.65382e-22)
(0.000478528 3.21368e-07 -4.23595e-22)
(0.00047832 4.14796e-07 -3.50581e-22)
(0.000478057 5.02845e-07 -4.33737e-24)
(0.000477737 5.84253e-07 5.62781e-23)
(0.000477362 6.5777e-07 -4.14449e-22)
(0.000476932 7.22163e-07 -4.05401e-23)
(0.000476448 7.76225e-07 4.14261e-22)
(0.00047591 8.18773e-07 2.12972e-22)
(0.000475319 8.48655e-07 2.05924e-22)
(0.000474676 8.64752e-07 3.22457e-22)
(0.000473982 8.65976e-07 2.10493e-22)
(0.000473237 8.51281e-07 -3.2219e-22)
(0.000472442 8.19657e-07 -5.35858e-22)
(0.000471599 7.70136e-07 -4.28801e-22)
(0.000470709 7.01796e-07 -9.31859e-23)
(0.000469772 6.13757e-07 -2.22789e-22)
(0.000468789 5.05187e-07 -5.25903e-22)
(0.000467763 3.75304e-07 -3.15508e-22)
(0.000466694 2.23372e-07 -1.34341e-22)
(0.000465583 4.87098e-08 -3.71008e-22)
(0.000464432 -1.49316e-07 -5.17945e-22)
(0.000463242 -3.71285e-07 -6.98827e-22)
(0.000462015 -6.17725e-07 -6.34155e-22)
(0.000460751 -8.8911e-07 7.74447e-23)
(0.000459452 -1.18586e-06 4.85713e-22)
(0.00045812 -1.50835e-06 4.06648e-22)
(0.000456756 -1.85689e-06 -1.72465e-22)
(0.00045536 -2.23174e-06 -3.33589e-22)
(0.000453936 -2.63312e-06 -2.6181e-22)
(0.000452484 -3.06119e-06 4.36682e-24)
(0.000451005 -3.51605e-06 2.67235e-22)
(0.000449501 -3.99778e-06 -2.77375e-22)
(0.000447973 -4.50637e-06 -7.56656e-22)
(0.000446424 -5.0418e-06 -5.65854e-22)
(0.000444853 -5.60398e-06 4.177e-22)
(0.000443262 -6.19276e-06 5.8581e-22)
(0.000441653 -6.80793e-06 3.14458e-22)
(0.000438547 -8.05095e-06 -9.44414e-22)
(0.000437033 -8.68275e-06 -1.10677e-22)
(0.000435507 -9.336e-06 3.53942e-22)
(0.00043397 -1.00105e-05 3.56337e-22)
(0.000432425 -1.07057e-05 4.90493e-22)
(0.00043087 -1.14217e-05 7.15947e-22)
(0.000429309 -1.21584e-05 8.29701e-22)
(0.000427741 -1.29107e-05 -2.50066e-22)
(0.000426165 -1.36831e-05 -9.71335e-22)
(0.000424582 -1.44792e-05 -4.74372e-22)
(0.000422995 -1.52929e-05 -3.63471e-22)
(0.000421405 -1.61246e-05 -3.64354e-22)
(0.000419812 -1.69741e-05 -1.13528e-22)
(0.000418215 -1.78411e-05 2.52397e-22)
(0.000416617 -1.87251e-05 7.35648e-22)
(0.000415017 -1.96256e-05 1.10543e-21)
(0.000413417 -2.05421e-05 8.55176e-22)
(0.000411815 -2.14745e-05 -1.37971e-22)
(0.000410214 -2.24221e-05 -4.88919e-22)
(0.000408613 -2.33845e-05 -3.72e-22)
(0.000407013 -2.43614e-05 2.54111e-22)
(0.000405416 -2.53517e-05 3.74396e-22)
(0.00040382 -2.63552e-05 1.20464e-22)
(0.000402226 -2.73717e-05 3.17101e-26)
(0.000400635 -2.84006e-05 -2.54193e-22)
(0.000399047 -2.94415e-05 -3.77953e-22)
(0.000397463 -3.04937e-05 -2.48854e-22)
(0.000395882 -3.15568e-05 -3.78419e-22)
(0.000394304 -3.26305e-05 -2.5394e-22)
(0.000392731 -3.37141e-05 2.06942e-25)
(0.000391162 -3.48073e-05 2.52917e-22)
(0.000389598 -3.59095e-05 8.88523e-22)
(0.000388038 -3.70205e-05 5.12497e-22)
(0.000386482 -3.81397e-05 1.30261e-22)
(0.000384932 -3.92667e-05 -3.84049e-22)
(0.000383387 -4.04009e-05 -1.02036e-21)
(0.000381847 -4.15422e-05 -7.70072e-22)
(0.000380312 -4.269e-05 -5.1941e-22)
(0.000378782 -4.38439e-05 -1.34962e-22)
(0.000377257 -4.50036e-05 -2.49971e-22)
(0.000375737 -4.61687e-05 2.49242e-22)
(0.000374223 -4.73389e-05 6.38157e-22)
(0.000372714 -4.85136e-05 -4.9958e-22)
(0.000371209 -4.96928e-05 1.09817e-22)
(0.00036971 -5.08758e-05 2.47432e-22)
(0.000368217 -5.20626e-05 -1.42873e-22)
(0.000366728 -5.32531e-05 -1.40403e-22)
(0.000365244 -5.44464e-05 -6.3725e-22)
(0.000363764 -5.56425e-05 -1.42465e-22)
(0.00036229 -5.68411e-05 1.43675e-22)
(0.000360819 -5.80419e-05 -2.47268e-22)
(0.000359354 -5.92448e-05 -5.34377e-22)
(0.000357892 -6.04495e-05 2.00408e-25)
(0.000356435 -6.16559e-05 1.02684e-21)
(0.000354982 -6.28636e-05 1.46134e-22)
(0.000353533 -6.4072e-05 -3.91757e-22)
(0.000352088 -6.52815e-05 3.92001e-22)
(0.000350646 -6.64918e-05 5.3787e-22)
(0.000349207 -6.77028e-05 -1.47368e-22)
(0.000347772 -6.89143e-05 -2.4354e-22)
(0.000346339 -7.01257e-05 -2.437e-22)
(0.00034491 -7.13374e-05 -5.40282e-22)
(0.000343483 -7.2549e-05 2.69733e-25)
(0.000342059 -7.37605e-05 -2.42295e-25)
(0.000340637 -7.49717e-05 -3.91666e-22)
(0.000339217 -7.61826e-05 -3.92082e-22)
(0.0003378 -7.73931e-05 4.84608e-22)
(0.000336384 -7.8603e-05 9.33788e-22)
(0.000334969 -7.98123e-05 -9.22597e-23)
(0.000333556 -8.10209e-05 -1.5004e-22)
(0.000332143 -8.22289e-05 3.91964e-22)
(0.000330732 -8.34362e-05 3.91819e-22)
(0.000329321 -8.46427e-05 4.28685e-26)
(0.000327911 -8.58485e-05 -1.50158e-22)
(0.000326501 -8.70536e-05 3.9174e-22)
(0.00032509 -8.8258e-05 -9.15174e-23)
(0.00032368 -8.9462e-05 -5.41754e-22)
(0.00032227 -9.06656e-05 -1.50023e-22)
(0.000320859 -9.18702e-05 0)
(0.000317344 -9.40479e-05 -1.28197e-22)
(0.000314535 -9.54588e-05 -2.56348e-22)
(0.000311727 -9.68705e-05 -7.7497e-22)
(0.00030892 -9.82826e-05 -6.24338e-22)
(0.000306113 -9.96949e-05 -2.92463e-26)
(0.000303306 -0.000101107 -2.25109e-23)
(0.000300501 -0.000102519 -3.00731e-22)
(0.000297696 -0.000103931 -4.51076e-22)
(0.000294891 -0.000105342 -1.27939e-22)
(0.000292087 -0.000106752 -3.00557e-22)
(0.000289284 -0.000108162 -1.72644e-22)
(0.000286482 -0.00010957 1.50319e-22)
(0.000283679 -0.000110977 -1.2837e-22)
(0.000280878 -0.000112382 -3.0052e-22)
(0.000278076 -0.000113786 -4.72916e-22)
(0.000275275 -0.000115188 -1.50347e-22)
(0.000272474 -0.000116589 3.22128e-22)
(0.000269672 -0.000117988 2.11998e-23)
(0.000266871 -0.000119385 -3.0107e-22)
(0.00026407 -0.00012078 -3.01176e-22)
(0.000261268 -0.000122173 -1.71031e-22)
(0.000258466 -0.000123565 -2.04151e-23)
(0.000255663 -0.000124955 -1.99862e-23)
(0.000252861 -0.000126342 3.01525e-22)
(0.000250057 -0.000127728 4.92012e-22)
(0.000247254 -0.000129113 -1.12134e-22)
(0.00024445 -0.000130495 -6.23104e-22)
(0.000241645 -0.000131877 -6.42722e-22)
(0.00023884 -0.000133256 -2.83439e-22)
(0.000236034 -0.000134634 1.70056e-22)
(0.000233228 -0.000136011 -1.8534e-23)
(0.000230421 -0.000137386 -1.84374e-23)
(0.000227614 -0.00013876 3.20923e-22)
(0.000224807 -0.000140134 -1.51321e-22)
(0.000221999 -0.000141506 -3.20907e-22)
(0.000219192 -0.000142877 0)
(0.000216384 -0.000144247 -1.51445e-22)
(0.000213577 -0.000145616 -4.54321e-22)
(0.00021077 -0.000146985 -1.51457e-22)
(0.000207963 -0.000148353 3.02807e-22)
(0.000205157 -0.00014972 3.02731e-22)
(0.000202352 -0.000151087 1.69028e-22)
(0.000199548 -0.000152454 -2.64019e-26)
(0.000196745 -0.00015382 -1.77108e-23)
(0.000193943 -0.000155185 -1.77887e-23)
(0.000191143 -0.000156551 5.87811e-26)
(0.000188345 -0.000157915 1.68614e-22)
(0.00018555 -0.00015928 3.1937e-22)
(0.000182757 -0.000160644 7.98541e-26)
(0.000179966 -0.000162007 -1.68523e-22)
(0.000177178 -0.00016337 1.50065e-22)
(0.000174394 -0.000164733 1.50065e-22)
(0.000171614 -0.000166094 1.84897e-23)
(0.000168837 -0.000167455 -1.30857e-22)
(0.000166065 -0.000168816 -1.68066e-22)
(0.000163298 -0.000170175 1.14088e-25)
(0.000160535 -0.000171533 -1.48573e-22)
(0.000157778 -0.000172889 -1.67407e-22)
(0.000155027 -0.000174244 0)
(0.000152282 -0.000175598 1.92327e-23)
(0.000149543 -0.000176949 -1.47108e-22)
(0.000146812 -0.000178298 -2.9361e-22)
(0.000144087 -0.000179644 -4.39111e-22)
(0.00014137 -0.000180987 -4.38199e-22)
(0.000138662 -0.000182327 -2.71697e-22)
(0.000135961 -0.000183664 -4.54506e-22)
(0.000133269 -0.000184996 -4.34164e-22)
(0.000130586 -0.000186325 -4.32205e-22)
(0.000127914 -0.000187648 -3.45412e-22)
(0.000125252 -0.000188965 1.61752e-22)
(0.000122598 -0.000190277 -6.59283e-23)
(0.000119956 -0.000191583 -7.09968e-22)
(0.000117324 -0.000192882 -7.08318e-22)
(0.000114704 -0.000194173 -4.58994e-22)
(0.000112096 -0.000195457 -1.9476e-22)
(0.000109499 -0.000196732 1.56826e-22)
(0.000106914 -0.000197997 1.56826e-22)
(0.000104342 -0.000199253 1.2228e-22)
(0.000101783 -0.000200499 1.37884e-22)
(9.6507e-05 -0.00020305 0)
(9.37555e-05 -0.000204371 0)
(9.10202e-05 -0.000205675 1.31454e-22)
(8.83013e-05 -0.000206962 2.93667e-24)
(8.55991e-05 -0.000208232 -1.53235e-22)
(8.29136e-05 -0.000209482 7.37488e-23)
(8.02452e-05 -0.000210712 2.18112e-22)
(7.75938e-05 -0.000211921 2.36315e-22)
(7.49595e-05 -0.000213108 -1.10698e-22)
(7.23424e-05 -0.000214271 -1.16677e-22)
(6.97425e-05 -0.000215411 2.87098e-22)
(6.71598e-05 -0.000216524 2.62914e-22)
(6.4594e-05 -0.000217611 8.65054e-23)
(6.20453e-05 -0.000218671 -8.34767e-23)
(5.95132e-05 -0.000219702 -1.47969e-23)
(5.69977e-05 -0.000220703 6.86797e-23)
(5.44986e-05 -0.000221673 9.6862e-24)
(5.20154e-05 -0.000222611 9.6862e-24)
(4.9548e-05 -0.000223516 -8.3485e-23)
(4.70959e-05 -0.000224387 -3.03716e-24)
(4.46587e-05 -0.000225223 3.03684e-24)
(4.22359e-05 -0.000226023 -3.03567e-24)
(3.98272e-05 -0.000226786 -1.64437e-24)
(3.74318e-05 -0.000227512 -1.51822e-22)
(3.50494e-05 -0.000228198 -6.53856e-23)
(3.26792e-05 -0.000228845 5.92273e-23)
(3.03207e-05 -0.000229452 -2.70257e-23)
(2.79731e-05 -0.000230017 -1.88308e-22)
(2.56358e-05 -0.000230541 4.03478e-23)
(2.3308e-05 -0.000231022 1.52819e-22)
(2.0989e-05 -0.00023146 3.01409e-23)
(1.86779e-05 -0.000231854 2.30499e-22)
(1.63741e-05 -0.000232204 2.79133e-22)
(1.40766e-05 -0.000232509 1.17145e-22)
(1.17845e-05 -0.000232769 3.83705e-23)
(9.49713e-06 -0.000232984 1.14034e-22)
(7.21348e-06 -0.000233153 3.14292e-23)
(4.93274e-06 -0.000233276 -1.931e-22)
(2.65376e-06 -0.000233352 -1.10496e-22)
(0 -0.000232575 0)
(0 -0.000231869 0)
(0 -0.000231154 0)
(0 -0.000230431 0)
(0 -0.000229701 0)
(0 -0.000228964 0)
(0 -0.00022822 0)
(0 -0.000227469 0)
(0 -0.000226713 0)
(0 -0.000225952 0)
(0 -0.000225185 0)
(0 -0.000224414 0)
(0 -0.000223638 0)
(0 -0.000222859 0)
(0 -0.000222076 0)
(0 -0.000221289 0)
(0 -0.0002205 0)
(0 -0.000219707 0)
(0 -0.000218912 0)
(0 -0.000218115 0)
(0 -0.000217316 0)
(0 -0.000216515 0)
(0 -0.000215713 0)
(0 -0.000214909 0)
(0 -0.000214105 0)
(0 -0.000213299 0)
(0 -0.000212493 0)
(0 -0.000211687 0)
(0 -0.00021088 0)
(0 -0.000210074 0)
(0 -0.000209267 0)
(0 -0.000208461 0)
(0 -0.000207655 0)
(0 -0.00020685 0)
(0 -0.000206046 0)
(0 -0.000205243 0)
(0 -0.000204441 0)
(0 -0.00020364 0)
(0 -0.000202841 0)
(0 -0.000202043 0)
(0 -0.000201248 0)
(0 -0.000200454 0)
(0 -0.000199662 0)
(0 -0.000198872 0)
(0 -0.000198085 0)
(0 -0.0001973 0)
(0 -0.000196518 0)
(0 -0.000195738 0)
(0 -0.000194962 0)
(0 -0.000194188 0)
(0 -0.000193418 0)
(0 -0.00019265 0)
(0 -0.000191886 0)
(0 -0.000191126 0)
(0 -0.000190369 0)
(0 -0.000189615 0)
(0 -0.000188866 0)
(0 -0.00018812 0)
(0 -0.000187379 0)
(0 -0.000186641 0)
(0 -0.000185908 0)
(0 -0.000185179 0)
(0 -0.000184454 0)
(0 -0.000183734 0)
(0 -0.000183019 0)
(0 -0.000182308 0)
(0 -0.000181601 0)
(0 -0.0001809 0)
(0 -0.000180203 0)
(0 -0.00017951 0)
(0 -0.000178823 0)
(0 -0.000178141 0)
(0 -0.000177463 0)
(0 -0.00017679 0)
(0 -0.000176122 0)
(0 -0.000175458 0)
(0 -0.000174799 0)
(0 -0.000174144 0)
(0 -0.000173494 0)
(0 -0.000172207 0)
(0 -0.000171569 0)
(0 -0.000170934 0)
(0 -0.000170302 0)
(0 -0.000169673 0)
(0 -0.000169045 0)
(0 -0.000168419 0)
(0 -0.000167794 0)
(0 -0.000167169 0)
(0 -0.000166543 0)
(0 -0.000165915 0)
(0 -0.000165285 0)
(0 -0.00016465 0)
(0 -0.00016401 0)
(0 -0.000163362 0)
(0 -0.000162706 0)
(0 -0.000162039 0)
(0 -0.000161358 0)
(0 -0.000160661 0)
(0 -0.000159945 0)
(0 -0.000159206 0)
(0 -0.000158441 0)
(0 -0.000157644 0)
(0 -0.000156812 0)
(0 -0.000155938 0)
(0 -0.000155015 0)
(0 -0.000154036 0)
(0 -0.000152993 0)
(0 -0.000151876 0)
(0 -0.000150673 0)
(0 -0.000149372 0)
(0 -0.000147958 0)
(0 -0.000146414 0)
(0 -0.00014472 0)
(0 -0.000142853 0)
(0 -0.000140788 0)
(0 -0.000138494 0)
(0 -0.000135934 0)
(0 -0.00013307 0)
(0.000200024 -7.34518e-05 0)
(0.000203974 -7.20234e-05 0)
(0.000207889 -7.06518e-05 0)
(0.000211768 -6.93344e-05 0)
(0.000215612 -6.80691e-05 0)
(0.00021942 -6.68535e-05 0)
(0.000223194 -6.56856e-05 0)
(0.000226933 -6.45638e-05 0)
(0.000230638 -6.34857e-05 0)
(0.000234309 -6.24492e-05 0)
(0.000237947 -6.14525e-05 0)
(0.000241552 -6.04934e-05 0)
(0.000245124 -5.95698e-05 0)
(0.000248665 -5.868e-05 0)
(0.000252175 -5.78218e-05 0)
(0.000255654 -5.69934e-05 0)
(0.000259103 -5.61929e-05 0)
(0.000262523 -5.54186e-05 0)
(0.000265915 -5.46686e-05 0)
(0.000269278 -5.39414e-05 0)
(0.000272615 -5.32353e-05 0)
(0.000275926 -5.25487e-05 0)
(0.00027921 -5.18799e-05 0)
(0.00028247 -5.12276e-05 0)
(0.000285706 -5.05904e-05 0)
(0.000288918 -4.9967e-05 0)
(0.000292107 -4.93558e-05 0)
(0.000295275 -4.87555e-05 0)
(0.00029842 -4.81648e-05 0)
(0.000301545 -4.75827e-05 0)
(0.00030465 -4.70078e-05 0)
(0.000307734 -4.6439e-05 0)
(0.0003108 -4.58754e-05 0)
(0.000313847 -4.53157e-05 0)
(0.000316877 -4.4759e-05 0)
(0.000319888 -4.42042e-05 0)
(0.000322883 -4.36504e-05 0)
(0.000325862 -4.30966e-05 0)
(0.000328824 -4.25418e-05 0)
(0.000331771 -4.19853e-05 0)
(0.000334703 -4.14261e-05 0)
(0.000337621 -4.08631e-05 0)
(0.000340524 -4.02953e-05 0)
(0.000343413 -3.97221e-05 0)
(0.000346289 -3.91426e-05 0)
(0.000349152 -3.85559e-05 0)
(0.000352002 -3.79613e-05 0)
(0.000354839 -3.73578e-05 0)
(0.000357664 -3.67445e-05 0)
(0.000360477 -3.61205e-05 0)
(0.000363279 -3.54851e-05 0)
(0.000366069 -3.48372e-05 0)
(0.000368847 -3.4176e-05 0)
(0.000371615 -3.35007e-05 0)
(0.000374373 -3.28102e-05 0)
(0.00037712 -3.21037e-05 0)
(0.000379856 -3.13802e-05 0)
(0.000382583 -3.06385e-05 0)
(0.000385299 -2.98777e-05 0)
(0.000388005 -2.90972e-05 0)
(0.000390702 -2.82955e-05 0)
(0.00039339 -2.74716e-05 0)
(0.000396068 -2.66243e-05 0)
(0.000398737 -2.57526e-05 0)
(0.000401397 -2.48551e-05 0)
(0.000404048 -2.39305e-05 0)
(0.000406691 -2.29777e-05 0)
(0.000409325 -2.19953e-05 0)
(0.00041195 -2.0982e-05 0)
(0.000414567 -1.99362e-05 0)
(0.000417176 -1.88563e-05 0)
(0.000419777 -1.77412e-05 0)
(0.00042237 -1.65888e-05 0)
(0.000424956 -1.53981e-05 0)
(0.000427534 -1.41675e-05 0)
(0.000430105 -1.28936e-05 0)
(0.000432669 -1.15752e-05 0)
(0.000435226 -1.02106e-05 0)
(0.000437778 -8.79668e-06 0)
(0.000192515 -7.77905e-05 0)
(0.000190038 -8.0083e-05 0)
(0.000187642 -8.23595e-05 0)
(0.000185325 -8.46192e-05 0)
(0.000183084 -8.68611e-05 0)
(0.000180917 -8.90842e-05 0)
(0.000178821 -9.12876e-05 0)
(0.000176794 -9.34702e-05 0)
(0.000174834 -9.56313e-05 0)
(0.000172938 -9.77704e-05 0)
(0.000171105 -9.98867e-05 0)
(0.000169331 -0.00010198 0)
(0.000167614 -0.00010405 0)
(0.000165952 -0.000106096 0)
(0.000164343 -0.000108119 0)
(0.000162785 -0.000110117 0)
(0.000161274 -0.000112092 0)
(0.00015981 -0.000114043 0)
(0.00015839 -0.000115971 0)
(0.000157011 -0.000117875 0)
(0.000155672 -0.000119756 0)
(0.000154371 -0.000121614 0)
(0.000153106 -0.00012345 0)
(0.000151876 -0.000125263 0)
(0.000150677 -0.000127054 0)
(0.000149509 -0.000128823 0)
(0.000148371 -0.000130571 0)
(0.000147259 -0.000132298 0)
(0.000146173 -0.000134005 0)
(0.000145112 -0.000135692 0)
(0.000144074 -0.000137359 0)
(0.000143057 -0.000139006 0)
(0.00014206 -0.000140635 0)
(0.000141083 -0.000142245 0)
(0.000140122 -0.000143838 0)
(0.000139178 -0.000145412 0)
(0.00013825 -0.000146969 0)
(0.000137335 -0.00014851 0)
(0.000136433 -0.000150034 0)
(0.000135543 -0.000151542 0)
(0.000134664 -0.000153034 0)
(0.000133795 -0.00015451 0)
(0.000132935 -0.000155972 0)
(0.000132082 -0.000157419 0)
(0.000131236 -0.000158851 0)
(0.000130396 -0.00016027 0)
(0.000129561 -0.000161675 0)
(0.00012873 -0.000163066 0)
(0.000127902 -0.000164444 0)
(0.000127077 -0.00016581 0)
(0.000126253 -0.000167162 0)
(0.000125429 -0.000168503 0)
(0.000124605 -0.000169831 0)
(0.00012378 -0.000171148 0)
(0.000122953 -0.000172453 0)
(0.000122122 -0.000173747 0)
(0.000121288 -0.000175029 0)
(0.000120449 -0.000176301 0)
(0.000119604 -0.000177562 0)
(0.000118753 -0.000178813 0)
(0.000117894 -0.000180053 0)
(0.000117027 -0.000181283 0)
(0.000116151 -0.000182504 0)
(0.000115264 -0.000183715 0)
(0.000114366 -0.000184916 0)
(0.000113455 -0.000186109 0)
(0.000112531 -0.000187292 0)
(0.000111593 -0.000188466 0)
(0.000110639 -0.000189632 0)
(0.000109668 -0.00019079 0)
(0.00010868 -0.000191939 0)
(0.000107672 -0.000193081 0)
(0.000106645 -0.000194214 0)
(0.000105595 -0.000195341 0)
(0.000104523 -0.00019646 0)
(0.000103426 -0.000197572 0)
(0.000102303 -0.000198678 0)
(0.000101153 -0.000199777 0)
(9.99739e-05 -0.000200872 0)
(5.09298e-06 -0.000130449 -1.34704e-21)
(1.11992e-05 -0.00013037 6.38755e-22)
(1.73005e-05 -0.000130249 1.18047e-21)
(2.34008e-05 -0.000130077 2.50604e-22)
(2.94936e-05 -0.000129852 -1.15746e-21)
(3.55759e-05 -0.000129575 -1.49441e-21)
(4.16454e-05 -0.000129245 -1.5299e-21)
(4.76999e-05 -0.000128864 -1.93386e-21)
(5.3737e-05 -0.000128431 -1.70931e-21)
(5.97547e-05 -0.000127947 -5.6353e-22)
(6.57507e-05 -0.000127411 1.48569e-21)
(7.17228e-05 -0.000126826 2.05023e-21)
(7.76688e-05 -0.000126189 9.7007e-22)
(8.35866e-05 -0.000125503 -2.08851e-22)
(8.94741e-05 -0.000124768 -7.58112e-22)
(9.53289e-05 -0.000123983 7.38156e-22)
(0.000101149 -0.000123149 1.25799e-21)
(0.000106932 -0.000122267 6.47516e-22)
(0.000112676 -0.000121337 1.27368e-21)
(0.000118379 -0.000120359 1.17908e-21)
(0.000124039 -0.000119335 5.84455e-22)
(0.000129653 -0.000118264 7.37648e-22)
(0.00013522 -0.000117147 -1.07103e-21)
(0.000140737 -0.000115985 -2.05457e-21)
(0.000146203 -0.000114778 1.28993e-21)
(0.000151615 -0.000113527 7.58106e-22)
(0.000156971 -0.000112232 -7.78074e-22)
(0.000162269 -0.000110894 7.4258e-23)
(0.000167507 -0.000109514 8.4518e-22)
(0.000172683 -0.000108092 -4.43872e-22)
(0.000177796 -0.000106629 -4.08153e-22)
(0.000182843 -0.000105126 1.61776e-21)
(0.000187821 -0.000103583 -1.33485e-24)
(0.00019273 -0.000102001 -5.03616e-22)
(0.000197568 -0.00010038 2.03167e-23)
(0.000202331 -9.87219e-05 5.38248e-22)
(0.00020702 -9.70269e-05 -5.41183e-22)
(0.00021163 -9.52957e-05 -1.00717e-21)
(0.000216162 -9.3529e-05 -8.33004e-22)
(0.00022498 -8.98924e-05 9.45538e-22)
(0.000229263 -8.80239e-05 1.56858e-22)
(0.00023346 -8.6123e-05 0)
(0.000237568 -8.41905e-05 -7.5194e-22)
(0.000241587 -8.22271e-05 6.03954e-23)
(0.000245514 -8.02336e-05 1.53925e-21)
(0.000249348 -7.82108e-05 -1.77846e-23)
(0.000253087 -7.61595e-05 -7.44915e-22)
(0.00025673 -7.40806e-05 -3.70947e-25)
(0.000260275 -7.19747e-05 -6.38407e-22)
(0.00026372 -6.98427e-05 -6.84893e-22)
(0.000267065 -6.76855e-05 5.83262e-22)
(0.000270306 -6.55038e-05 -1.46572e-22)
(0.000273444 -6.32986e-05 5.04526e-22)
(0.000276477 -6.10705e-05 1.42477e-22)
(0.000279403 -5.88204e-05 9.01651e-23)
(0.000282222 -5.65492e-05 -1.1996e-22)
(0.000284931 -5.42577e-05 -1.51301e-21)
(0.000287529 -5.19468e-05 -5.2317e-22)
(0.000290016 -4.96172e-05 7.41666e-22)
(0.000292391 -4.72699e-05 4.6564e-22)
(0.000294651 -4.49057e-05 -4.15544e-22)
(0.000296796 -4.25254e-05 -3.88551e-22)
(0.000298826 -4.013e-05 -6.07838e-22)
(0.000300739 -3.77202e-05 1.15111e-21)
(0.000302534 -3.5297e-05 8.88599e-22)
(0.00030421 -3.28611e-05 -5.29718e-22)
(0.000305767 -3.04136e-05 -5.06721e-22)
(0.000307204 -2.79552e-05 9.65717e-22)
(0.000308521 -2.54868e-05 7.19194e-23)
(0.000309715 -2.30094e-05 -5.28258e-22)
(0.000310788 -2.05238e-05 7.84528e-22)
(0.000311739 -1.8031e-05 8.40923e-23)
(0.000312566 -1.55318e-05 2.81949e-22)
(0.00031327 -1.30273e-05 2.66944e-23)
(0.000313851 -1.05185e-05 -6.56568e-22)
(0.000314309 -8.00697e-06 -1.06405e-23)
(0.000314645 -5.49564e-06 3.43261e-22)
(0.000314868 -2.99699e-06 4.7972e-23)
(0.000216943 -8.83673e-05 0)
(0.000213014 -8.56701e-05 0)
(0.000209513 -8.32947e-05 0)
(0.000206391 -8.1205e-05 0)
(0.00020361 -7.93698e-05 0)
(0.000201137 -7.77615e-05 0)
(0.000198942 -7.63562e-05 0)
(0.000197 -7.51325e-05 0)
(0.000195287 -7.40721e-05 0)
(0.000193784 -7.31582e-05 0)
(0.000192471 -7.23766e-05 0)
(0.000191332 -7.1714e-05 0)
(0.000190354 -7.11592e-05 0)
(0.000189522 -7.07017e-05 0)
(0.000188824 -7.03325e-05 0)
(0.000188251 -7.00432e-05 0)
(0.000187792 -6.98265e-05 0)
(0.000187439 -6.96757e-05 0)
(0.000187183 -6.95849e-05 0)
(0.000187017 -6.95486e-05 0)
(0.000186934 -6.9562e-05 0)
(0.000186929 -6.96206e-05 0)
(0.000186996 -6.97203e-05 0)
(0.00018713 -6.98575e-05 0)
(0.000187326 -7.00289e-05 0)
(0.000187579 -7.02313e-05 0)
(0.000187886 -7.04621e-05 0)
(0.000188243 -7.07186e-05 0)
(0.000188647 -7.09986e-05 0)
(0.000189094 -7.12998e-05 0)
(0.000189582 -7.16203e-05 0)
(0.000190108 -7.19582e-05 0)
(0.000190669 -7.2312e-05 0)
(0.000191263 -7.268e-05 0)
(0.000191887 -7.30608e-05 0)
(0.000192541 -7.34531e-05 0)
(0.000193222 -7.38559e-05 0)
(0.000193928 -7.42681e-05 0)
(0.000194657 -7.46893e-05 0)
(0.000216943 -8.83673e-05 0)
(0.000213014 -8.56701e-05 0)
(0.000209513 -8.32947e-05 0)
(0.000206391 -8.1205e-05 0)
(0.00020361 -7.93698e-05 0)
(0.000201137 -7.77615e-05 0)
(0.000198942 -7.63562e-05 0)
(0.000197 -7.51325e-05 0)
(0.000195287 -7.40721e-05 0)
(0.000193784 -7.31582e-05 0)
(0.000192471 -7.23766e-05 0)
(0.000191332 -7.1714e-05 0)
(0.000190354 -7.11592e-05 0)
(0.000189522 -7.07017e-05 0)
(0.000188824 -7.03325e-05 0)
(0.000188251 -7.00432e-05 0)
(0.000187792 -6.98265e-05 0)
(0.000187439 -6.96757e-05 0)
(0.000187183 -6.95849e-05 0)
(0.000187017 -6.95486e-05 0)
(0.000186934 -6.9562e-05 0)
(0.000186929 -6.96206e-05 0)
(0.000186996 -6.97203e-05 0)
(0.00018713 -6.98575e-05 0)
(0.000187326 -7.00289e-05 0)
(0.000187579 -7.02313e-05 0)
(0.000187886 -7.04621e-05 0)
(0.000188243 -7.07186e-05 0)
(0.000188647 -7.09986e-05 0)
(0.000189094 -7.12998e-05 0)
(0.000189582 -7.16203e-05 0)
(0.000190108 -7.19582e-05 0)
(0.000190669 -7.2312e-05 0)
(0.000191263 -7.268e-05 0)
(0.000191887 -7.30608e-05 0)
(0.000192541 -7.34531e-05 0)
(0.000193222 -7.38559e-05 0)
(0.000193928 -7.42681e-05 0)
(0.000194657 -7.46893e-05 0)
(0.000189031 -7.88191e-05 0)
(0.00018336 -8.21784e-05 0)
(0.000177698 -8.55707e-05 0)
(0.000172055 -8.89891e-05 0)
(0.000166434 -9.24271e-05 0)
(0.000160843 -9.58784e-05 0)
(0.000155285 -9.93364e-05 0)
(0.000149764 -0.000102794 0)
(0.000144284 -0.000106245 0)
(0.00013885 -0.000109683 0)
(0.000133463 -0.000113099 0)
(0.000128127 -0.000116487 0)
(0.000122845 -0.00011984 0)
(0.000117617 -0.00012315 0)
(0.000112447 -0.00012641 0)
(0.000107335 -0.000129613 0)
(0.000102283 -0.000132752 0)
(9.72901e-05 -0.000135819 0)
(9.23579e-05 -0.000138807 0)
(8.7486e-05 -0.00014171 0)
(8.2674e-05 -0.00014452 0)
(7.79211e-05 -0.000147231 0)
(7.32264e-05 -0.000149837 0)
(6.85884e-05 -0.00015233 0)
(6.40055e-05 -0.000154706 0)
(5.94758e-05 -0.000156958 0)
(5.4997e-05 -0.00015908 0)
(5.05666e-05 -0.000161067 0)
(4.6182e-05 -0.000162915 0)
(4.18402e-05 -0.000164618 0)
(3.75379e-05 -0.000166173 0)
(3.32719e-05 -0.000167575 0)
(2.90386e-05 -0.00016882 0)
(2.48342e-05 -0.000169907 0)
(2.06549e-05 -0.00017083 0)
(1.64967e-05 -0.00017159 0)
(1.23556e-05 -0.000172182 0)
(8.22749e-06 -0.000172607 0)
(4.10878e-06 -0.000172861 0)
(0 -0.000172207 0)
(0 -0.000171569 0)
(0 -0.000170934 0)
(0 -0.000170302 0)
(0 -0.000169673 0)
(0 -0.000169045 0)
(0 -0.000168419 0)
(0 -0.000167794 0)
(0 -0.000167169 0)
(0 -0.000166543 0)
(0 -0.000165915 0)
(0 -0.000165285 0)
(0 -0.00016465 0)
(0 -0.00016401 0)
(0 -0.000163362 0)
(0 -0.000162706 0)
(0 -0.000162039 0)
(0 -0.000161358 0)
(0 -0.000160661 0)
(0 -0.000159945 0)
(0 -0.000159206 0)
(0 -0.000158441 0)
(0 -0.000157644 0)
(0 -0.000156812 0)
(0 -0.000155938 0)
(0 -0.000155015 0)
(0 -0.000154036 0)
(0 -0.000152993 0)
(0 -0.000151876 0)
(0 -0.000150673 0)
(0 -0.000149372 0)
(0 -0.000147958 0)
(0 -0.000146414 0)
(0 -0.00014472 0)
(0 -0.000142853 0)
(0 -0.000140788 0)
(0 -0.000138494 0)
(0 -0.000135934 0)
(0 -0.00013307 0)
(5.09298e-06 -0.000130449 -1.34704e-21)
(1.11992e-05 -0.00013037 6.38755e-22)
(1.73005e-05 -0.000130249 1.18047e-21)
(2.34008e-05 -0.000130077 2.50604e-22)
(2.94936e-05 -0.000129852 -1.15746e-21)
(3.55759e-05 -0.000129575 -1.49441e-21)
(4.16454e-05 -0.000129245 -1.5299e-21)
(4.76999e-05 -0.000128864 -1.93386e-21)
(5.3737e-05 -0.000128431 -1.70931e-21)
(5.97547e-05 -0.000127947 -5.6353e-22)
(6.57507e-05 -0.000127411 1.48569e-21)
(7.17228e-05 -0.000126826 2.05023e-21)
(7.76688e-05 -0.000126189 9.7007e-22)
(8.35866e-05 -0.000125503 -2.08851e-22)
(8.94741e-05 -0.000124768 -7.58112e-22)
(9.53289e-05 -0.000123983 7.38156e-22)
(0.000101149 -0.000123149 1.25799e-21)
(0.000106932 -0.000122267 6.47516e-22)
(0.000112676 -0.000121337 1.27368e-21)
(0.000118379 -0.000120359 1.17908e-21)
(0.000124039 -0.000119335 5.84455e-22)
(0.000129653 -0.000118264 7.37648e-22)
(0.00013522 -0.000117147 -1.07103e-21)
(0.000140737 -0.000115985 -2.05457e-21)
(0.000146203 -0.000114778 1.28993e-21)
(0.000151615 -0.000113527 7.58106e-22)
(0.000156971 -0.000112232 -7.78074e-22)
(0.000162269 -0.000110894 7.4258e-23)