/*--------------------------------*- C++ -*----------------------------------*\
| =========                 |                                                 |
| \\      /  F ield         | OpenFOAM: The Open Source CFD Toolbox           |
|  \\    /   O peration     | Version:  v2012                                 |
|   \\  /    A nd           | Website:  www.openfoam.com                      |
|    \\/     M anipulation  |                                                 |
\*---------------------------------------------------------------------------*/
FoamFile
{
    version     2.0;
    format      ascii;
    class       volScalarField;
    location    "8";
    object      epsilonEq;
}
// * * * * * * * * * * * * * * * * * * * * * * * * * * * * * * * * * * * * * //

dimensions      [0 0 0 0 0 0 0];


internalField   nonuniform List<scalar> 
8000
(
0.0080508
0.00775649
0.00760117
0.00729319
0.00712153
0.00682217
0.00663841
0.00634788
0.00615893
0.00587233
0.00568454
0.00539658
0.00521528
0.00492147
0.00475142
0.00444919
0.00429499
0.00398256
0.00384839
0.00352437
0.00341431
0.00307909
0.00299765
0.00277805
0.00273411
0.00257594
0.00254222
0.0024198
0.00239491
0.00229505
0.0022774
0.00219265
0.00218084
0.0021066
0.00209955
0.00203271
0.00202965
0.00196781
0.00196824
0.00190915
0.00788956
0.00758475
0.00741887
0.00710532
0.00695291
0.00662831
0.00648394
0.00614633
0.0060104
0.0056577
0.00553274
0.00516304
0.00505197
0.00466669
0.00457159
0.00417409
0.00409618
0.00369645
0.00363344
0.00325444
0.00319805
0.00293733
0.00291742
0.00274712
0.00272911
0.00258636
0.00257174
0.00245104
0.00244026
0.00233649
0.00232948
0.00223858
0.00223503
0.00215391
0.0021534
0.00207978
0.00208179
0.00201414
0.00201791
0.0019558
0.00773116
0.00737871
0.00722277
0.00685596
0.00672747
0.00633588
0.00623057
0.0058107
0.00572701
0.00527986
0.00521689
0.00474903
0.0047057
0.00422721
0.00420094
0.00373165
0.00371822
0.00329271
0.00328363
0.00298899
0.0029857
0.00285516
0.00285467
0.00272203
0.00272376
0.00259839
0.00260214
0.00248681
0.00249248
0.00238726
0.00239474
0.00229867
0.00230782
0.00221968
0.00223032
0.00214892
0.00216087
0.00208513
0.00209838
0.00202711
0.00750345
0.00707347
0.00694586
0.00648608
0.00639389
0.00589787
0.00583875
0.0053095
0.00528025
0.00472879
0.00472519
0.00416814
0.00418506
0.00365113
0.00368086
0.00322453
0.0032518
0.00298641
0.00299085
0.00289747
0.00290851
0.00280055
0.00281638
0.0027017
0.00272068
0.0026058
0.00262677
0.0025155
0.00253772
0.00243185
0.00245487
0.00235501
0.00237852
0.0022846
0.00230842
0.00222002
0.00224406
0.00216054
0.00218476
0.00210542
0.00715644
0.00661427
0.00652968
0.00594572
0.00590148
0.0052826
0.00527532
0.00463837
0.00466184
0.00402875
0.00407587
0.0034889
0.00354841
0.00310447
0.00314556
0.00296039
0.00296812
0.00289827
0.00291606
0.00282795
0.00285336
0.00275324
0.00278407
0.00267722
0.00271155
0.00260235
0.0026387
0.00253029
0.00256757
0.00246194
0.00249941
0.00239764
0.00243481
0.00233739
0.00237395
0.00228093
0.0023167
0.0022279
0.00226279
0.00217786
0.00664247
0.0059628
0.00592984
0.00521553
0.00522376
0.00450079
0.00454273
0.00383991
0.00390562
0.00328657
0.00335705
0.00299808
0.00302334
0.00292455
0.00293669
0.00287244
0.00289633
0.00281767
0.00285065
0.00276058
0.00280044
0.00270217
0.00274693
0.00264357
0.00269145
0.00258577
0.00263532
0.00252955
0.00257962
0.00247538
0.00252511
0.00242349
0.00247229
0.00237392
0.00242137
0.00232658
0.00237239
0.00228125
0.00232527
0.0022377
0.00592965
0.00512035
0.00513737
0.00433468
0.00438528
0.00362936
0.00370099
0.00310495
0.00316224
0.00293974
0.00294831
0.00288366
0.00290195
0.00283115
0.00286028
0.00278262
0.00282133
0.00273597
0.00278243
0.0026903
0.00274265
0.00264534
0.0027018
0.00260109
0.00266007
0.00255767
0.0026178
0.00251523
0.00257539
0.00247388
0.0025332
0.00243364
0.00249147
0.00239451
0.00245037
0.0023564
0.00240994
0.0023192
0.0023702
0.00228276
0.00503009
0.00416316
0.0042111
0.00343044
0.00348979
0.00299045
0.00301026
0.00289416
0.00290303
0.00283127
0.00285379
0.00277744
0.00281144
0.00273033
0.00277402
0.0026888
0.00274058
0.00265126
0.00270944
0.00261643
0.00267933
0.00258343
0.00264947
0.00255165
0.0026194
0.0025207
0.00258893
0.00249034
0.00255802
0.0024604
0.00252671
0.00243076
0.00249504
0.00240132
0.0024631
0.002372
0.00243091
0.00234272
0.00239849
0.0023134
0.00404353
0.00329287
0.00332013
0.00294585
0.00294136
0.00285391
0.00286338
0.00277596
0.00280002
0.00271414
0.00275112
0.00266466
0.00271237
0.00262459
0.00268095
0.00259169
0.00265482
0.00256396
0.00263215
0.00253979
0.00261144
0.00251789
0.00259159
0.00249734
0.00257182
0.00247745
0.00255162
0.00245774
0.0025307
0.00243789
0.0025089
0.00241768
0.00248616
0.00239698
0.00246248
0.00237569
0.00243785
0.00235375
0.0024123
0.00233113
0.0032183
0.00292939
0.00291216
0.00281302
0.0028186
0.00271825
0.00274221
0.00264385
0.00268281
0.00258764
0.0026387
0.00254587
0.00260646
0.00251505
0.00258288
0.00249226
0.00256536
0.00247508
0.00255177
0.00246159
0.00254039
0.00245029
0.00252993
0.00244006
0.00251947
0.0024301
0.00250835
0.00241982
0.00249616
0.00240884
0.00248266
0.00239692
0.00246771
0.0023839
0.00245129
0.00236971
0.00243338
0.00235433
0.00241404
0.00233775
0.00291948
0.00278723
0.00278318
0.00266014
0.00268107
0.0025669
0.00260653
0.00249996
0.00255383
0.00245361
0.00251822
0.00242286
0.00249536
0.0024035
0.00248155
0.00239215
0.00247381
0.00238611
0.00246979
0.00238329
0.00246768
0.00238212
0.00246613
0.00238143
0.00246417
0.00238039
0.00246113
0.00237843
0.00245657
0.00237518
0.00245025
0.00237041
0.00244203
0.00236402
0.00243188
0.00235596
0.00241982
0.00234625
0.00240591
0.00233494
0.00277259
0.00261577
0.00262535
0.00249052
0.00252545
0.00240557
0.0024591
0.00235031
0.00241727
0.00231694
0.00239334
0.00229939
0.0023821
0.00229286
0.00237944
0.00229362
0.00238218
0.00229885
0.00238791
0.0023064
0.00239482
0.00231473
0.0024016
0.00232271
0.00240736
0.00232959
0.00241146
0.00233487
0.00241353
0.00233825
0.00241335
0.00233956
0.00241085
0.00233875
0.00240603
0.00233586
0.00239893
0.00233094
0.00238968
0.0023241
0.00258001
0.00242243
0.00244455
0.00230945
0.00235736
0.0022388
0.002305
0.00219889
0.00227757
0.00218089
0.00226758
0.00217799
0.00226935
0.00218501
0.00227856
0.00219807
0.00229199
0.00221432
0.00230729
0.0022317
0.00232276
0.00224876
0.00233722
0.00226451
0.00234988
0.00227833
0.00236022
0.00228983
0.00236798
0.00229879
0.00237301
0.00230517
0.00237531
0.002309
0.00237494
0.00231036
0.002372
0.00230939
0.00236665
0.00230626
0.00236172
0.0022125
0.00224763
0.00211907
0.00218016
0.00206782
0.00214647
0.00204668
0.00213642
0.0020462
0.00214221
0.00205916
0.002158
0.00208024
0.00217949
0.00210558
0.00220359
0.00213248
0.00222814
0.00215907
0.00225164
0.00218411
0.0022731
0.00220679
0.00229191
0.00222664
0.00230769
0.00224343
0.00232031
0.00225708
0.00232972
0.00226763
0.00233601
0.00227521
0.00233931
0.00228001
0.00233981
0.00228223
0.00233771
0.00228211
0.00212662
0.00199065
0.00203875
0.00192149
0.00199568
0.00189356
0.0019843
0.00189402
0.00199412
0.00191283
0.0020172
0.00194259
0.00204779
0.00197802
0.0020818
0.00201551
0.00211647
0.00205264
0.00214992
0.00208785
0.00218095
0.00212017
0.00220882
0.00214903
0.00223312
0.00217416
0.00225368
0.00219547
0.00227046
0.00221303
0.00228357
0.002227
0.00229317
0.0022376
0.00229951
0.00224511
0.00230283
0.00224985
0.0023034
0.00225212
0.00188098
0.00176114
0.00182182
0.00171931
0.00180616
0.00171751
0.00181961
0.0017416
0.00185105
0.00178091
0.00189243
0.00182796
0.00193825
0.00187775
0.00198483
0.00192707
0.00202983
0.00197394
0.00207181
0.00201717
0.0021099
0.00205614
0.00214368
0.00209055
0.00217295
0.00212034
0.00219774
0.00214558
0.00221817
0.00216647
0.00223445
0.00218326
0.00224685
0.00219627
0.00225569
0.00220588
0.00226132
0.00221253
0.00226409
0.00221665
0.0016296
0.00152771
0.00160055
0.00151534
0.00161422
0.00154168
0.0016541
0.0015907
0.00170811
0.00165104
0.00176819
0.00171534
0.00182921
0.00177909
0.00188809
0.00183966
0.00194301
0.0018956
0.00199304
0.00194621
0.00203773
0.00199122
0.00207694
0.00203062
0.00211077
0.00206459
0.00213941
0.00209334
0.00216311
0.00211718
0.0021822
0.00213642
0.00219704
0.00215143
0.00220802
0.00216264
0.00221558
0.00217063
0.00222019
0.00217606
0.00137629
0.00129364
0.00137833
0.00131254
0.00142276
0.00136853
0.00148995
0.00144308
0.00156676
0.00152428
0.00164524
0.00160519
0.00172092
0.00168204
0.00179141
0.00175293
0.00185558
0.00181707
0.00191302
0.00187425
0.00196373
0.00192461
0.00200791
0.00196846
0.0020459
0.00200618
0.00207808
0.00203816
0.00210485
0.0020648
0.00212661
0.00208642
0.00214376
0.00210336
0.00215674
0.00211595
0.00216605
0.00212477
0.00217233
0.0021309
0.00112419
0.00106189
0.00115846
0.0011141
0.00123495
0.00120097
0.00132979
0.00130101
0.00142888
0.00140216
0.0015248
0.00149838
0.001614
0.00158695
0.00169499
0.00166685
0.00176737
0.00173798
0.00183131
0.00180067
0.00188725
0.00185547
0.00193574
0.00190301
0.00197739
0.00194392
0.00201279
0.0019788
0.00204247
0.00200817
0.00206694
0.00203243
0.00208661
0.00205179
0.00210189
0.00206628
0.00211327
0.00207581
0.00212162
0.00208135
0.000875961
0.000835372
0.000944447
0.000923824
0.00105451
0.00104262
0.00117678
0.00116727
0.00129684
0.00128663
0.00140851
0.00139621
0.00150951
0.0014946
0.00159941
0.00158178
0.00167856
0.00165833
0.00174769
0.00172509
0.00180767
0.00178297
0.00185938
0.00183289
0.00190368
0.00187574
0.0019414
0.00191237
0.00197331
0.00194356
0.00200012
0.00197
0.00202245
0.00199219
0.00204086
0.00201006
0.00205588
0.00202169
0.00206894
0.00201894
0.000633982
0.000617628
0.000740837
0.000747076
0.000886286
0.000898163
0.00103483
0.00104531
0.00117355
0.00118012
0.0012985
0.00130044
0.00140906
0.00140637
0.00150588
0.00149886
0.00159004
0.00157907
0.00166272
0.00164822
0.00172506
0.00170743
0.00177811
0.00175771
0.00182278
0.00179992
0.00185982
0.0018348
0.00188983
0.00186294
0.00191318
0.00188477
0.00192984
0.00190065
0.00193905
0.00191106
0.00193811
0.00191785
0.00191818
0.00192932
0.000401024
0.000415323
0.000555317
0.000592656
0.000737178
0.000773872
0.000908825
0.000939185
0.00106245
0.00108543
0.00119741
0.00121328
0.00131495
0.00132435
0.00141676
0.00142043
0.00150457
0.00150322
0.00157994
0.00157426
0.00164431
0.00163492
0.0016989
0.00168638
0.00174479
0.00172971
0.0017829
0.00176584
0.00181402
0.00179567
0.00183885
0.00182009
0.00185811
0.00184015
0.00187288
0.00185731
0.00188596
0.00187356
0.00190717
0.00188974
0.000185415
0.00025049
0.000404709
0.00047625
0.000617389
0.000677742
0.000804479
0.000853094
0.000966934
0.00100495
0.00110744
0.00113619
0.00122872
0.00124945
0.00133319
0.00134703
0.00142299
0.00143094
0.00149996
0.00150291
0.00156572
0.00156444
0.00162164
0.00161686
0.00166895
0.00166136
0.00170874
0.001699
0.00174205
0.0017308
0.00176992
0.00175775
0.00179353
0.00178083
0.00181439
0.00180095
0.00183418
0.0018186
0.00185224
0.00183371
0.000107239
0.000206649
0.000326637
0.000421399
0.000540885
0.00061856
0.000728128
0.000791064
0.000890356
0.000940791
0.00103058
0.00107039
0.00115162
0.00118237
0.00125597
0.001279
0.00134579
0.00136225
0.00142296
0.00143384
0.00148912
0.00149528
0.0015457
0.0015479
0.00159397
0.00159289
0.00163508
0.00163132
0.00167012
0.00166413
0.0017001
0.00169219
0.00172598
0.00171622
0.00174854
0.00173675
0.0017681
0.0017541
0.00178481
0.00176846
0.000283345
0.0003195
0.000357413
0.000442088
0.000520017
0.000602053
0.000685227
0.000755871
0.000835575
0.000894471
0.000968484
0.00101674
0.00108468
0.0011236
0.00118572
0.00121654
0.00127326
0.0012971
0.00134892
0.00136676
0.00141416
0.00142685
0.00147031
0.0014786
0.00151858
0.00152308
0.00156003
0.00156126
0.00159562
0.00159398
0.0016262
0.00162196
0.00165247
0.00164579
0.00167494
0.00166593
0.00169399
0.00168276
0.00170991
0.00169654
0.000477961
0.000479736
0.000465894
0.000521344
0.000554019
0.000626164
0.00067766
0.000747762
0.000804184
0.000866506
0.000922283
0.000975669
0.00102866
0.00107342
0.0011229
0.00115978
0.00120561
0.00123549
0.00127781
0.00130151
0.00134059
0.00135887
0.00139502
0.00140856
0.00144211
0.00145147
0.00148277
0.00148844
0.0015178
0.00152018
0.00154791
0.00154731
0.00157368
0.00157036
0.0015956
0.00158979
0.00161406
0.00160596
0.00162938
0.0016192
0.000665974
0.000644922
0.000603678
0.000630643
0.000627609
0.000681376
0.000701946
0.000763889
0.000795782
0.000856123
0.000892296
0.000947055
0.000983967
0.00103188
0.00106785
0.00110881
0.00114308
0.00117747
0.00120977
0.00123813
0.00126844
0.00129135
0.00131978
0.00133779
0.00136451
0.00137815
0.00140334
0.00141305
0.00143693
0.0014431
0.00146586
0.00146883
0.00149063
0.00149071
0.00151169
0.00150915
0.00152942
0.00152452
0.00154416
0.00153714
0.000844363
0.000805166
0.000747981
0.000751021
0.000723068
0.000756061
0.000750512
0.000799096
0.000807788
0.000861269
0.000877852
0.000930148
0.000950599
0.000998774
0.00102077
0.00106363
0.00108591
0.00112314
0.00114502
0.00117674
0.00119793
0.00122445
0.00124482
0.00126654
0.00128608
0.0013034
0.00132218
0.00133548
0.00135357
0.00136323
0.00138073
0.00138708
0.00140407
0.00140742
0.00142398
0.00142462
0.00144081
0.00143901
0.00145487
0.00145087
0.001012
0.000957126
0.000889806
0.000872661
0.000827747
0.000840601
0.000814805
0.000847449
0.000836042
0.000878964
0.000877298
0.00092362
0.000928077
0.000973595
0.000981704
0.00102414
0.00103433
0.00107259
0.0010839
0.00111756
0.00112943
0.00115846
0.00117057
0.00119512
0.00120729
0.00122762
0.00123978
0.00125617
0.00126829
0.00128105
0.00129314
0.00130256
0.00131463
0.00132101
0.00133307
0.00133669
0.00134877
0.00134987
0.00136198
0.00136081
0.00116816
0.00109919
0.00102511
0.000990468
0.000933983
0.000928266
0.000887512
0.00090349
0.000875814
0.000905828
0.000888236
0.000925706
0.000915445
0.00095557
0.000950445
0.00099011
0.000988528
0.00102589
0.00102675
0.00106082
0.0010634
0.00109371
0.00109752
0.00112393
0.00112868
0.00115123
0.00115672
0.00117557
0.00118167
0.00119702
0.00120365
0.00121575
0.00122286
0.00123194
0.0012395
0.00124579
0.00125378
0.00125753
0.00126592
0.00126735
0.00131223
0.00123034
0.00115173
0.00110157
0.00103723
0.0010146
0.000963164
0.000962775
0.000922639
0.000938554
0.000907891
0.000934406
0.000911351
0.000943698
0.000926567
0.000961192
0.000948601
0.00098308
0.000973965
0.00100676
0.00100034
0.00103055
0.00102626
0.0010534
0.00105084
0.00107471
0.0010736
0.00109417
0.0010943
0.00111164
0.00111286
0.00112712
0.00112933
0.00114067
0.00114378
0.0011524
0.00115634
0.00116243
0.00116716
0.00117091
0.00144365
0.00134983
0.00126832
0.00120418
0.00113467
0.00109666
0.0010379
0.00102191
0.000972749
0.000974202
0.000933471
0.000947678
0.000914184
0.000936833
0.000909418
0.000936917
0.000914532
0.000944135
0.000925891
0.000955642
0.000940817
0.000969403
0.000957431
0.000984026
0.00097447
0.00099859
0.000991115
0.00101252
0.00100686
0.00102546
0.00102143
0.00103723
0.00103466
0.00104776
0.00104653
0.00105703
0.00105704
0.00106508
0.00106624
0.00107199
0.0015619
0.00145706
0.00137396
0.0012971
0.00122448
0.00117243
0.00110902
0.00107838
0.00102316
0.00101031
0.000962416
0.000963593
0.000922225
0.000933752
0.000898158
0.000916716
0.000886184
0.000908986
0.000882866
0.000907724
0.000885441
0.000910734
0.000891799
0.000916386
0.000900387
0.000923506
0.000910105
0.000931276
0.000920193
0.000939142
0.000930147
0.000946739
0.000939642
0.000953843
0.000948485
0.000960322
0.000956573
0.000966115
0.000963865
0.000971208
0.00166648
0.00155151
0.00146793
0.00137949
0.00130543
0.00124053
0.00117464
0.00113033
0.00107159
0.0010449
0.000992516
0.000980406
0.000933771
0.000933218
0.000891804
0.000899932
0.000863276
0.000877492
0.000845167
0.000863264
0.000834875
0.00085507
0.000830255
0.000851178
0.000829607
0.000850251
0.000831629
0.000851288
0.000835351
0.000853551
0.000840068
0.000856511
0.000845279
0.000859792
0.000850636
0.000863138
0.000855906
0.000866375
0.000860942
0.000869399
0.00175693
0.00163275
0.00154971
0.00145076
0.00137665
0.0013
0.00123342
0.0011764
0.00111629
0.00107634
0.00102191
0.000996547
0.000947196
0.000933982
0.000889258
0.000885809
0.000845365
0.000849425
0.000812981
0.000822501
0.00078981
0.000803013
0.000773846
0.000789258
0.000763395
0.000779845
0.000757071
0.000773663
0.000753769
0.000769845
0.000752629
0.000767723
0.000752995
0.00076679
0.00075437
0.000766662
0.000756392
0.000767051
0.000758797
0.000767747
0.00183279
0.00170044
0.00161891
0.00151051
0.00143756
0.00135014
0.00128442
0.00121546
0.00115591
0.0011032
0.00104897
0.00101051
0.000960925
0.00093475
0.000889315
0.000873485
0.000831844
0.000824467
0.000786376
0.000785666
0.00075095
0.000755274
0.000723798
0.000731715
0.000703358
0.000713644
0.000688284
0.000699935
0.00067744
0.000689661
0.000669887
0.000682073
0.000664864
0.000676564
0.000661755
0.000672644
0.000660072
0.000669912
0.000659434
0.000668037
0.00189364
0.00175446
0.00167538
0.00155857
0.00148781
0.00139024
0.00132678
0.00124615
0.00118904
0.00112383
0.00107204
0.00102068
0.00097336
0.000934187
0.000890706
0.000862073
0.000821996
0.000802302
0.000765339
0.000753064
0.000719035
0.000712759
0.000681554
0.000679982
0.00065153
0.000653505
0.000627753
0.000632272
0.000609164
0.000615385
0.000594846
0.000602082
0.000584008
0.000591725
0.000575975
0.000583766
0.000570163
0.000577717
0.000566067
0.000573108
0.00193923
0.0017952
0.00171935
0.00159462
0.00152697
0.00141785
0.00135879
0.00126599
0.00121372
0.00113623
0.00108934
0.00102552
0.000982999
0.000931192
0.00089232
0.000850953
0.000815231
0.000782867
0.000749946
0.000725268
0.000694919
0.000676721
0.000648802
0.00063598
0.000610413
0.000601964
0.000578713
0.000573736
0.000552783
0.00055049
0.000531814
0.000531535
0.000515087
0.00051628
0.000501954
0.000504209
0.000491803
0.000494838
0.000484007
0.000487608
0.00197065
0.00182522
0.00175187
0.00160908
0.00155025
0.00142711
0.00137658
0.00127205
0.00122761
0.001139
0.00109948
0.00102442
0.000989031
0.000925587
0.000893725
0.000840304
0.0008115
0.00076675
0.00074064
0.000703389
0.000679701
0.000648914
0.000627454
0.000602205
0.000582849
0.000562302
0.00054498
0.000528382
0.000513067
0.000499747
0.000486437
0.00047581
0.000464505
0.000456091
0.000446755
0.000440207
0.000432684
0.000427844
0.000421657
0.000418641
0.00200248
0.00178753
0.00174892
0.00158743
0.00154757
0.00141524
0.00137735
0.00126506
0.0012306
0.00113381
0.00110324
0.00101913
0.000992402
0.000919004
0.000895851
0.000831662
0.000811734
0.000755537
0.000738485
0.000689255
0.000674767
0.000631622
0.000619439
0.000581598
0.000571523
0.000538284
0.000530189
0.000500902
0.00049473
0.000468785
0.000464556
0.000441364
0.000439183
0.00041818
0.000418246
0.000398925
0.000401519
0.000383574
0.000388978
0.000372771
0.000396038
0.000348322
0.000424748
0.000379475
0.000492003
0.000441389
0.000579419
0.000521521
0.000677655
0.000611542
0.000781386
0.000706554
0.000887459
0.00080368
0.000993904
0.000901152
0.00109941
0.000997833
0.00120306
0.00109295
0.00130417
0.00118597
0.0014022
0.0012765
0.00149669
0.00136426
0.00158724
0.00144904
0.00167343
0.0015307
0.0017548
0.00160913
0.00183074
0.00168424
0.00190034
0.00175599
0.00196197
0.0018244
0.00201178
0.00188962
0.000367911
0.0003362
0.000402889
0.000370342
0.000470472
0.000432972
0.000557298
0.00051276
0.000654444
0.0006018
0.000756755
0.00069541
0.000861208
0.000790835
0.00096593
0.000886376
0.00106968
0.000980929
0.00117158
0.00107374
0.00127099
0.00116427
0.0013674
0.00125214
0.0014604
0.00133706
0.00154963
0.00141881
0.00163474
0.00149721
0.00171536
0.0015721
0.00179102
0.00164331
0.00186103
0.00171057
0.00192418
0.00177341
0.0019778
0.00183055
0.000356218
0.000335134
0.000392264
0.000369846
0.000457666
0.000430838
0.000541428
0.000508084
0.000635327
0.000594282
0.000734394
0.000684971
0.00083568
0.000777468
0.000937345
0.000870099
0.00103817
0.000961764
0.00113732
0.00105171
0.00123415
0.00113939
0.0013282
0.00122443
0.00141907
0.00130653
0.00150644
0.00138546
0.00159001
0.00146107
0.00166949
0.00153318
0.0017445
0.00160164
0.00181455
0.00166621
0.00187882
0.00172652
0.0019356
0.00178169
0.000356128
0.000342384
0.00039046
0.000375902
0.000451943
0.000433682
0.000531041
0.000506965
0.000620272
0.00058911
0.000714884
0.000675877
0.00081197
0.000764635
0.000909694
0.000853706
0.00100684
0.000941976
0.00110255
0.00102867
0.0011962
0.00111325
0.00128734
0.0011953
0.00137559
0.00127453
0.00146065
0.00135072
0.00154225
0.00142369
0.00162015
0.0014933
0.00169407
0.00155941
0.00176364
0.00162185
0.00182831
0.00168034
0.00188702
0.00173435
0.000364269
0.000355677
0.000395543
0.000386954
0.000452057
0.000440594
0.000525536
0.000509071
0.000609225
0.000586416
0.000698612
0.000668623
0.000790833
0.000753112
0.000884037
0.000838195
0.000976984
0.000922733
0.00106881
0.00100593
0.00115888
0.00108721
0.00124673
0.00116617
0.00133199
0.00124248
0.00141439
0.00131594
0.00149368
0.00138635
0.00156964
0.00145359
0.00164206
0.00151753
0.00171066
0.00157804
0.00177507
0.00163493
0.00183462
0.00168786
0.000378185
0.00037325
0.000405937
0.000401808
0.000457019
0.000450881
0.000524406
0.000514132
0.000602075
0.000586266
0.000685788
0.000663537
0.000772737
0.000743431
0.00086106
0.000824254
0.000949491
0.000904842
0.00103714
0.000984371
0.00112335
0.00106225
0.00120766
0.00113803
0.0012897
0.0012114
0.00136918
0.00128213
0.00144589
0.00135002
0.00151962
0.00141495
0.0015902
0.00147681
0.00165743
0.00153549
0.00172105
0.00159085
0.00178062
0.00164267
0.000396103
0.0003938
0.000420366
0.000419529
0.000465994
0.00046397
0.000527177
0.000521884
0.000598644
0.000588644
0.000676468
0.000660797
0.000757929
0.000735919
0.000841168
0.000812327
0.000924894
0.000888837
0.00100819
0.0009646
0.00109039
0.001039
0.001171
0.00111157
0.00124965
0.00118198
0.00132605
0.00124998
0.00139998
0.00131538
0.00147127
0.00137805
0.00153977
0.00143788
0.00160531
0.00149477
0.00166771
0.00154863
0.0017267
0.00159932
0.000416762
0.000416384
0.000437812
0.000439388
0.000478251
0.000479363
0.000533383
0.000532045
0.000598686
0.000593455
0.000670585
0.000660456
0.000746487
0.000730746
0.000824557
0.000802672
0.000903491
0.000875044
0.00098235
0.000946993
0.00106045
0.00101788
0.00113727
0.00108722
0.00121243
0.00115467
0.00128564
0.00121996
0.00135669
0.00128289
0.00142539
0.00134333
0.00149162
0.00140116
0.00155524
0.0014563
0.00161613
0.00150868
0.00167409
0.0015582
0.000439272
0.000440323
0.000457477
0.00046081
0.000493149
0.000496621
0.000542562
0.000544321
0.000601902
0.000600537
0.000667979
0.000662465
0.000738364
0.000727955
0.000811271
0.000795405
0.000885402
0.000863633
0.000959803
0.000931761
0.00103377
0.000999132
0.00110676
0.00106525
0.0011784
0.00112975
0.00124837
0.00119234
0.00131645
0.00125282
0.00138247
0.00131105
0.00144631
0.00136691
0.00150786
0.00142032
0.001567
0.00147123
0.00162364
0.00151956
0.000463001
0.000465129
0.00047874
0.000483348
0.000510135
0.000515355
0.000554262
0.000558409
0.000607956
0.000609682
0.00066842
0.000666704
0.000733416
0.000727496
0.000801242
0.000790534
0.000870618
0.000854657
0.000940589
0.00091899
0.00101044
0.000982866
0.00107961
0.00104578
0.00114771
0.00110734
0.00121442
0.00116725
0.00127951
0.00122531
0.00134281
0.00128135
0.00140418
0.00133526
0.00146353
0.00138696
0.00152079
0.0014364
0.00157587
0.00148352
0.000487493
0.000490443
0.000501121
0.000506645
0.000528737
0.00053523
0.00056806
0.000574016
0.000616496
0.000620654
0.000671628
0.000672998
0.000731435
0.000729253
0.000794318
0.000787987
0.000859038
0.000848083
0.00092465
0.000908676
0.00099043
0.000969097
0.00105583
0.00102883
0.00112041
0.00108748
0.00118387
0.00114474
0.00124596
0.00120039
0.0013065
0.00125426
0.00136537
0.00130624
0.00142247
0.00135623
0.00147773
0.00140419
0.0015311
0.00145008
0.000512417
0.000515997
0.000524247
0.00053042
0.000548554
0.000555952
0.000583564
0.00059086
0.000627165
0.000633204
0.0006773
0.000681138
0.000732168
0.000733056
0.000790292
0.000787635
0.000850494
0.000843811
0.000911851
0.000900742
0.000973644
0.000957768
0.00103532
0.00101437
0.00109643
0.00107014
0.00115667
0.00112478
0.00121578
0.00117804
0.00127357
0.00122976
0.00132991
0.0012798
0.00138471
0.00132808
0.00143791
0.00137456
0.00148947
0.00141918
0.000537525
0.000541586
0.000547827
0.000554445
0.000569253
0.000577269
0.00060042
0.000608679
0.000639621
0.000647079
0.00068512
0.000690895
0.000735335
0.000738708
0.000788921
0.000789307
0.000844774
0.000841696
0.000902006
0.000895066
0.000959913
0.000948771
0.00101794
0.0010023
0.00107565
0.00105524
0.00113272
0.00110728
0.00118887
0.00115817
0.00124393
0.00120775
0.00129774
0.00125586
0.00135023
0.00130243
0.00140132
0.00134739
0.00145099
0.00139073
0.000562624
0.000567046
0.000571627
0.000578532
0.00059055
0.000598961
0.000618314
0.000627231
0.00065354
0.000662034
0.000694773
0.000702035
0.000740641
0.00074599
0.000789935
0.000792807
0.000841632
0.000841561
0.000894893
0.000891487
0.000949036
0.00094196
0.00100352
0.000992476
0.0010579
0.00104263
0.00111184
0.00109211
0.00116509
0.00114066
0.00121744
0.0011881
0.00126874
0.00123429
0.00131891
0.00127913
0.00136787
0.00132256
0.00141559
0.00136456
0.000587562
0.000592244
0.000595457
0.000602525
0.000612208
0.000620836
0.000636967
0.000646298
0.000668621
0.000677835
0.000705957
0.000714321
0.000747793
0.000754675
0.000793054
0.000797919
0.000840808
0.000843206
0.000890268
0.000889819
0.000940783
0.000937162
0.000991824
0.000984745
0.00104296
0.00103217
0.00109386
0.00107913
0.00114425
0.00112536
0.00119392
0.00117068
0.00124274
0.00121494
0.00129059
0.00125804
0.00133741
0.00129992
0.00138316
0.00134055
0.00061221
0.000617067
0.000619159
0.000626287
0.000634023
0.000642727
0.000656134
0.000665679
0.00068459
0.000694262
0.000718382
0.000727525
0.000756499
0.000764534
0.000797996
0.000804422
0.000842029
0.00084642
0.000887871
0.000889862
0.000934909
0.000934186
0.000982631
0.000978921
0.00103062
0.00102368
0.00107855
0.00106816
0.00112614
0.0011121
0.00117319
0.00115531
0.00121955
0.00119764
0.0012651
0.00123899
0.00130977
0.00127929
0.00135353
0.0013185
0.000636459
0.000641415
0.000642598
0.000649699
0.000655821
0.000664483
0.000675597
0.000685195
0.000701196
0.000711109
0.000731778
0.000741426
0.000766483
0.000775341
0.000804483
0.00081209
0.000845024
0.000850981
0.000887439
0.000891402
0.000931157
0.000932827
0.000975692
0.000974809
0.00102064
0.00101698
0.00106568
0.00105902
0.00111055
0.00110071
0.00115502
0.00114183
0.00119895
0.00118223
0.00124223
0.00122182
0.00128476
0.00126052
0.00132652
0.00129827
0.000660211
0.000665194
0.000665653
0.000672651
0.000677445
0.000685967
0.000695163
0.000704678
0.000718212
0.000728184
0.000745894
0.000755814
0.000777477
0.000786877
0.000812243
0.000820703
0.000849521
0.000856671
0.000888705
0.000894224
0.000929268
0.000932875
0.000970754
0.000972203
0.00101278
0.00101185
0.00105503
0.00105153
0.00109723
0.00109099
0.00113919
0.00113004
0.00118074
0.00116853
0.00122177
0.00120635
0.00126218
0.00124342
0.00130193
0.00127968
0.000683375
0.000688318
0.000688215
0.000695041
0.000698757
0.000707052
0.000714658
0.000723974
0.000735431
0.000745309
0.000760497
0.000770493
0.000789233
0.000798931
0.000821017
0.000830041
0.000855257
0.000863268
0.000891407
0.00089811
0.000928984
0.000934117
0.000967562
0.000970896
0.00100678
0.00100811
0.00104633
0.00104548
0.00108596
0.00108276
0.00112547
0.00111978
0.00116469
0.00115636
0.0012035
0.00119241
0.00124181
0.00122783
0.00127956
0.00126257
0.000705862
0.000710701
0.000710181
0.000716771
0.000719627
0.000727621
0.000733922
0.00074294
0.000752664
0.000762316
0.000775371
0.000785273
0.000801515
0.000811302
0.000830557
0.000839894
0.000861977
0.00087056
0.000895288
0.000902845
0.000930048
0.000936339
0.000965864
0.000970677
0.0010024
0.00100555
0.00103936
0.00104067
0.0010765
0.00107583
0.00111362
0.00111083
0.00115056
0.00114553
0.0011872
0.00117981
0.00122344
0.00121358
0.00125922
0.00124678
0.000727588
0.000732259
0.000731454
0.000737746
0.000739936
0.000747558
0.000752807
0.00076144
0.000769736
0.000779048
0.000790317
0.000799978
0.000814103
0.000823796
0.000840629
0.000850059
0.000869439
0.000878335
0.000900099
0.000908216
0.000932209
0.000939329
0.000965411
0.000971339
0.000999386
0.00100395
0.00103386
0.00103691
0.0010686
0.00106999
0.00110342
0.00110303
0.00113814
0.00113586
0.00117265
0.00116838
0.00120685
0.00120049
0.00124068
0.00123213
0.000748465
0.000752906
0.000751936
0.000757871
0.000759569
0.000766754
0.000771176
0.000779344
0.000786482
0.000795352
0.000805146
0.000814439
0.000826788
0.00083623
0.000851009
0.000860341
0.000877408
0.000886392
0.0009056
0.000914018
0.000935226
0.000942881
0.000965959
0.000972674
0.000997504
0.00100312
0.0010296
0.00103399
0.00106204
0.00106506
0.00109462
0.00109617
0.0011272
0.00112718
0.00115963
0.00115795
0.00119184
0.00118841
0.00122374
0.00121847
0.000768405
0.000772552
0.000771531
0.000777049
0.000778413
0.000785098
0.000788895
0.000796524
0.000802747
0.000811086
0.000819682
0.000828493
0.000839377
0.000848427
0.000861486
0.000870552
0.000885661
0.000894534
0.000911561
0.000920049
0.000938863
0.000946791
0.00096727
0.00097448
0.000996513
0.00100286
0.00102635
0.00103172
0.00105658
0.00106085
0.00108701
0.00109008
0.0011175
0.00111928
0.00114793
0.00114834
0.00117819
0.00117715
0.0012082
0.00120565
0.000787317
0.000791106
0.000790141
0.000795181
0.000796357
0.00080248
0.000805835
0.000812856
0.000818382
0.000826106
0.000833757
0.000841984
0.000851682
0.000860215
0.000871859
0.000880509
0.000893986
0.000902571
0.000917759
0.000926113
0.000942893
0.000950861
0.000969116
0.000976559
0.000996183
0.00100297
0.00102387
0.0010299
0.00105199
0.00105715
0.00108036
0.00108457
0.00110885
0.00111201
0.00113732
0.00113938
0.00116569
0.00116657
0.00119386
0.00119351
0.000805104
0.000808469
0.000807662
0.000812163
0.000813286
0.000818785
0.000821867
0.000828212
0.000833242
0.000840273
0.000847206
0.000854757
0.000863523
0.000871429
0.000881935
0.000890035
0.000902176
0.000910318
0.000923982
0.000932021
0.000947096
0.000954898
0.000971274
0.000978717
0.000996292
0.00100326
0.00102195
0.00102835
0.00104805
0.00105379