/*--------------------------------*- C++ -*----------------------------------*\
| =========                 |                                                 |
| \\      /  F ield         | OpenFOAM: The Open Source CFD Toolbox           |
|  \\    /   O peration     | Version:  v2012                                 |
|   \\  /    A nd           | Website:  www.openfoam.com                      |
|    \\/     M anipulation  |                                                 |
\*---------------------------------------------------------------------------*/
FoamFile
{
    version     2.0;
    format      ascii;
    class       volSymmTensorField;
    location    "8";
    object      epsilon;
}
// * * * * * * * * * * * * * * * * * * * * * * * * * * * * * * * * * * * * * //

dimensions      [0 0 0 0 0 0 0];


internalField   nonuniform List<symmTensor> 
8000
(
(0.00812688 -0.000310054 -1.95156e-18 -0.0057351 1.04083e-17 0)
(0.00779523 -0.000498287 -2.98156e-18 -0.00553892 1.0842e-17 0)
(0.00780515 -0.000243023 -9.21572e-19 -0.00526981 1.25767e-17 0)
(0.00743607 -0.000472552 4.33681e-19 -0.0050875 1.38778e-17 0)
(0.00744738 -0.000181645 1.35525e-18 -0.00478601 1.12757e-17 0)
(0.00706464 -0.000440049 -4.98733e-18 -0.00463508 1.86483e-17 0)
(0.00707665 -0.000131173 -5.96311e-18 -0.00430663 1.43115e-17 0)
(0.00668745 -0.00041063 8.94467e-18 -0.00418074 2.0383e-17 0)
(0.00669994 -8.92809e-05 1.42573e-17 -0.00383732 1.73472e-18 0)
(0.00630609 -0.000384951 1.15739e-17 -0.00372591 0 0)
(0.00631901 -5.25306e-05 -3.08998e-18 -0.0033789 -1.0842e-17 0)
(0.00592029 -0.000361794 -6.91179e-18 -0.00327258 5.20417e-18 0)
(0.00593366 -1.80497e-05 -3.41524e-18 -0.00293155 4.33681e-18 0)
(0.00552932 -0.000339511 -5.58364e-18 -0.00282292 2.42861e-17 0)
(0.00554317 1.62988e-05 -1.87025e-18 -0.00249625 1.47451e-17 0)
(0.00513327 -0.000316214 -5.71917e-18 -0.00238073 1.95156e-17 0)
(0.00514761 5.17243e-05 -3.55076e-18 -0.00207637 8.67362e-18 0)
(0.00473272 -0.000290582 -6.80337e-18 -0.0019504 1.25767e-17 0)
(0.00474753 8.90865e-05 -2.95445e-18 -0.00167528 1.04083e-17 0)
(0.00432736 -0.000263062 -4.17418e-18 -0.00153706 1.56125e-17 0)
(0.00434266 0.000128717 -1.02999e-18 -0.00129791 9.97466e-18 0)
(0.00391763 -0.000233526 -1.70762e-18 -0.00114882 9.97466e-18 0)
(0.0039334 0.000170074 -5.96311e-19 -0.000953538 8.67362e-18 0)
(0.00360167 -0.00014865 -7.58942e-19 -0.00095039 7.80626e-18 0)
(0.00361422 0.000172112 -1.35525e-19 -0.000826078 6.50521e-18 0)
(0.00336298 -8.15155e-05 -2.71051e-20 -0.000853786 6.93889e-18 0)
(0.00337267 0.000166089 8.13152e-20 -0.00074832 6.93889e-18 0)
(0.00317284 -4.25809e-05 1.35525e-19 -0.000784042 4.33681e-18 0)
(0.00318068 0.000157986 0 -0.000699348 6.07153e-18 0)
(0.00301594 -1.82802e-05 5.42101e-20 -0.000734435 3.90313e-18 0)
(0.00302253 0.000150016 2.71051e-20 -0.000668298 4.33681e-18 0)
(0.00288288 -2.1816e-06 2.71051e-20 -0.000699608 5.20417e-18 0)
(0.00288856 0.000142955 2.71051e-20 -0.00064905 3.90313e-18 0)
(0.00276743 9.01756e-06 2.71051e-20 -0.000675586 3.90313e-18 0)
(0.00277244 0.000137029 0 -0.000637916 1.73472e-18 0)
(0.00266524 1.71098e-05 2.71051e-20 -0.000659436 8.67362e-19 0)
(0.00266975 0.000132274 -2.71051e-20 -0.000632527 1.30104e-18 0)
(0.00257298 2.3054e-05 2.71051e-20 -0.00064892 8.67362e-19 0)
(0.00257713 0.000128687 -2.71051e-20 -0.000631224 1.30104e-18 0)
(0.00248771 2.71581e-05 5.42101e-20 -0.000642196 8.67362e-19 0)
(0.00799246 -0.000717866 -9.37835e-18 -0.00552197 1.25767e-17 0)
(0.0075919 -0.000935674 -1.61546e-17 -0.00534653 1.25767e-17 0)
(0.00762084 -0.000682187 -8.34836e-18 -0.00507132 1.51788e-17 0)
(0.00722885 -0.000893285 -6.39679e-18 -0.00487124 1.0842e-17 0)
(0.00725987 -0.000622918 -3.90313e-18 -0.00462102 1.73472e-17 0)
(0.00686154 -0.00084159 7.37257e-18 -0.00440615 8.67362e-18 0)
(0.00689449 -0.000555216 2.04372e-17 -0.0041697 1.47451e-17 0)
(0.00648498 -0.000785802 4.38018e-17 -0.00394121 1.64799e-17 0)
(0.00651985 -0.000483576 2.79724e-17 -0.00371849 1.73472e-17 0)
(0.00609763 -0.000727007 2.42861e-17 -0.00347423 3.20924e-17 0)
(0.00613441 -0.000409148 2.81893e-18 -0.00326919 2.9924e-17 0)
(0.00569878 -0.000665646 5.42101e-20 -0.00300654 4.77049e-17 0)
(0.00573752 -0.000331844 -1.19262e-17 -0.00282384 4.0766e-17 0)
(0.00529039 -0.000600794 -7.53521e-18 -0.00254387 4.72712e-17 0)
(0.00533103 -0.000251596 -4.8247e-18 -0.00238612 3.38271e-17 0)
(0.00487537 -0.000532276 -7.48099e-18 -0.00209276 3.42608e-17 0)
(0.00491771 -0.000169331 -1.13299e-17 -0.00196021 2.68882e-17 0)
(0.00446106 -0.000459619 -9.54098e-18 -0.00166612 2.55872e-17 0)
(0.00450429 -8.96286e-05 -5.96311e-18 -0.00155096 1.69136e-17 0)
(0.00406412 -0.000383199 -4.98733e-18 -0.00128492 1.34441e-17 0)
(0.00410654 -1.99545e-05 -3.52366e-18 -0.00116589 1.25767e-17 0)
(0.0037615 -0.000282219 -3.63208e-18 -0.00104537 1.25767e-17 0)
(0.00380621 9.90726e-05 -1.6263e-18 -0.000970172 8.23994e-18 0)
(0.00353847 -0.000137267 -1.6263e-18 -0.000975373 8.67362e-18 0)
(0.00357476 0.000173406 -4.87891e-19 -0.000874144 6.50521e-18 0)
(0.00334392 -4.23465e-05 -5.96311e-19 -0.00090855 8.23994e-18 0)
(0.00337378 0.000213887 -1.0842e-19 -0.000804506 4.77049e-18 0)
(0.00317587 2.11229e-05 -3.25261e-19 -0.000851572 5.63785e-18 0)
(0.0032009 0.000236195 -5.42101e-20 -0.000754717 5.63785e-18 0)
(0.00303005 6.45819e-05 -2.1684e-19 -0.000805484 3.90313e-18 0)
(0.00305143 0.000248323 0 -0.000719553 1.73472e-18 0)
(0.00290232 9.49806e-05 -2.1684e-19 -0.00076933 1.73472e-18 0)
(0.00292089 0.000254562 0 -0.000695118 2.60209e-18 0)
(0.00278915 0.000116585 -1.0842e-19 -0.000741582 2.60209e-18 0)
(0.00280552 0.00025726 1.0842e-19 -0.000678523 2.1684e-18 0)
(0.00268769 0.000132044 5.42101e-20 -0.000720693 1.30104e-18 0)
(0.00270231 0.000257619 2.71051e-20 -0.000667552 4.33681e-19 0)
(0.00259577 0.000143011 -1.6263e-19 -0.000705334 3.90313e-18 0)
(0.00260893 0.000255929 8.13152e-20 -0.00066036 4.33681e-19 0)
(0.00251221 0.000150558 1.0842e-19 -0.000694594 2.1684e-18 0)
(0.00779641 -0.00116562 -2.71051e-17 -0.0053116 2.29851e-17 0)
(0.00733615 -0.0013719 -4.6946e-17 -0.00507787 3.29597e-17 0)
(0.00738799 -0.00109706 -3.29597e-17 -0.00484015 1.86483e-17 0)
(0.00694279 -0.0012877 -5.74627e-18 -0.00456807 5.63785e-18 0)
(0.00699514 -0.00101267 3.11166e-17 -0.00438005 -9.1073e-18 0)
(0.00654613 -0.00119929 4.10913e-17 -0.00406648 -1.12757e-17 0)
(0.00660052 -0.000916014 3.92481e-17 -0.00392143 9.54098e-18 0)
(0.00613918 -0.00110513 1.85399e-17 -0.00356654 7.80626e-18 0)
(0.0061965 -0.000808992 1.91904e-17 -0.00346194 3.20924e-17 0)
(0.00572036 -0.00100434 -1.6263e-18 -0.00306899 7.37257e-18 0)
(0.00578082 -0.000694115 4.33681e-19 -0.00300257 2.94903e-17 0)
(0.00529281 -0.000897415 -2.04914e-17 -0.00258031 6.50521e-18 0)
(0.00535638 -0.000573153 -1.56125e-17 -0.00254863 2.90566e-17 0)
(0.00486195 -0.000785593 -2.41777e-17 -0.00211055 2.25514e-17 0)
(0.00492819 -0.0004491 -1.76725e-17 -0.00210618 3.51282e-17 0)
(0.00444137 -0.000668857 -2.01662e-17 -0.00167744 2.25514e-17 0)
(0.00450907 -0.000325665 -8.5652e-18 -0.0016875 2.34188e-17 0)
(0.00405569 -0.000547258 -6.39679e-18 -0.00131273 1.04083e-17 0)
(0.00412242 -0.000208501 -6.61363e-18 -0.00131278 9.54098e-18 0)
(0.00377365 -0.000409757 -6.39679e-18 -0.00109941 5.20417e-18 0)
(0.00383902 -7.68456e-05 -4.44523e-18 -0.00107818 6.07153e-18 0)
(0.00362451 -0.000243578 -3.68629e-18 -0.00107063 3.90313e-18 0)
(0.00368569 7.00605e-05 -2.49366e-18 -0.00100892 5.20417e-18 0)
(0.00346667 -0.000111363 -2.11419e-18 -0.00102723 4.77049e-18 0)
(0.00352106 0.000168898 -1.0842e-18 -0.000942897 3.90313e-18 0)
(0.0033144 -1.09357e-05 -6.50521e-19 -0.000979451 3.46945e-18 0)
(0.00336199 0.000235278 -3.79471e-19 -0.000886433 3.90313e-18 0)
(0.00317309 6.43564e-05 -5.42101e-20 -0.00093353 8.67362e-19 0)
(0.00321467 0.000280062 -2.1684e-19 -0.000840545 1.30104e-18 0)
(0.00304401 0.000120772 -6.50521e-19 -0.000892428 1.30104e-18 0)
(0.00308051 0.00031038 -3.79471e-19 -0.000804339 3.03577e-18 0)
(0.00292669 0.00016319 -4.33681e-19 -0.000857157 3.90313e-18 0)
(0.00295893 0.000330856 -1.6263e-19 -0.00077636 3.46945e-18 0)
(0.00281996 0.000195186 -1.0842e-19 -0.000827712 1.30104e-18 0)
(0.00284867 0.000344485 -1.6263e-19 -0.000755129 0 0)
(0.00272253 0.000219328 -5.42101e-20 -0.000803621 -4.33681e-19 0)
(0.00274828 0.000353241 -2.1684e-19 -0.00073937 2.60209e-18 0)
(0.00263312 0.000237468 0 -0.000784238 1.73472e-18 0)
(0.00265643 0.000358587 0 -0.000728231 4.33681e-19 0)
(0.00255044 0.000250996 0 -0.00076883 2.60209e-18 0)
(0.00748999 -0.00159876 -5.86553e-17 -0.00502632 4.33681e-17 0)
(0.00696935 -0.00176641 -5.61617e-17 -0.00468766 1.12757e-17 0)
(0.00704741 -0.00147301 -1.71304e-17 -0.00452567 -1.21431e-17 0)
(0.00653082 -0.00162606 2.1684e-19 -0.0041329 -3.38271e-17 0)
(0.00660823 -0.0013394 2.1684e-17 -0.00403418 -1.86483e-17 0)
(0.00608488 -0.00148342 1.13841e-17 -0.0035829 -2.42861e-17 0)
(0.00616397 -0.00119493 1.04083e-17 -0.00354563 -1.69136e-17 0)
(0.00563094 -0.0013349 2.92735e-18 -0.00304138 -1.95156e-17 0)
(0.00571293 -0.00103982 -8.67362e-18 -0.00306049 -1.73472e-17 0)
(0.00517384 -0.0011799 -1.78893e-17 -0.002518 -1.17094e-17 0)
(0.00525892 -0.00087698 -3.07913e-17 -0.00258467 -1.12757e-17 0)
(0.00472214 -0.00102032 -3.55618e-17 -0.00202562 6.07153e-18 0)
(0.00480971 -0.000710804 -3.25261e-17 -0.00212753 1.04083e-17 0)
(0.00429367 -0.000858649 -2.61293e-17 -0.00158889 1.0842e-17 0)
(0.00438248 -0.000545723 -2.09251e-17 -0.00170576 1.34441e-17 0)
(0.00392641 -0.00069591 -1.07336e-17 -0.00125847 4.77049e-18 0)
(0.00401246 -0.000391128 -9.1073e-18 -0.00134908 9.1073e-18 0)
(0.0037101 -0.000524584 -9.54098e-18 -0.00113121 2.60209e-18 0)
(0.00378664 -0.000248365 -6.61363e-18 -0.0011378 3.90313e-18 0)
(0.00362218 -0.000362898 -4.98733e-18 -0.00113072 -8.67362e-19 0)
(0.00369857 -8.52601e-05 -4.55365e-18 -0.00110915 1.30104e-18 0)
(0.00351466 -0.000219664 -3.90313e-18 -0.00111279 1.30104e-18 0)
(0.00358803 4.8744e-05 -2.1684e-18 -0.00106683 4.77049e-18 0)
(0.00339699 -9.75872e-05 -1.84314e-18 -0.00108359 1.73472e-18 0)
(0.00346515 0.000153159 -5.42101e-19 -0.00102041 -4.33681e-19 0)
(0.00327735 3.15078e-06 -1.19262e-18 -0.00104874 2.60209e-18 0)
(0.00333946 0.000232723 -8.67362e-19 -0.000975715 1.73472e-18 0)
(0.00316076 8.47416e-05 -6.50521e-19 -0.0010125 4.33681e-19 0)
(0.00321684 0.000292787 -7.58942e-19 -0.000935568 3.46945e-18 0)
(0.00304983 0.000150186 -4.33681e-19 -0.000977592 4.33681e-19 0)
(0.0031003 0.000337932 -7.58942e-19 -0.000900953 1.30104e-18 0)
(0.00294562 0.000202418 -2.1684e-19 -0.000945504 4.33681e-19 0)
(0.00299105 0.000371742 -2.1684e-19 -0.000871902 2.60209e-18 0)
(0.0028483 0.000243973 -1.0842e-19 -0.000916895 1.30104e-18 0)
(0.00288929 0.000396923 0 -0.000847996 0 0)
(0.00275755 0.000276923 -3.25261e-19 -0.000891903 8.67362e-19 0)
(0.00279467 0.000415502 -3.25261e-19 -0.000828645 1.30104e-18 0)
(0.00267279 0.000302918 3.25261e-19 -0.000870353 -4.33681e-19 0)
(0.00270656 0.000428979 -1.6263e-19 -0.000813148 1.30104e-18 0)
(0.00259333 0.000323244 1.0842e-19 -0.000851903 0 0)
(0.00704503 -0.0019674 -7.58942e-18 -0.00462589 -3.46945e-17 0)
(0.00645137 -0.00207458 1.23599e-17 -0.00414368 -9.45424e-17 0)
(0.00655783 -0.00177148 -2.08167e-17 -0.00408752 -6.59195e-17 0)
(0.00595836 -0.00186443 -1.17094e-17 -0.00353896 -7.80626e-17 0)
(0.00606377 -0.0015707 2.1684e-19 -0.00355472 -5.29091e-17 0)
(0.00546024 -0.00165274 -1.95156e-18 -0.00294729 -6.20164e-17 0)
(0.00556645 -0.00136282 2.60209e-18 -0.00303092 -3.59955e-17 0)
(0.00496615 -0.00143912 -1.95156e-17 -0.00238491 -3.1225e-17 0)
(0.0050739 -0.00114993 -2.71051e-17 -0.00252499 -8.23994e-18 0)
(0.00448767 -0.00122579 -4.4886e-17 -0.00186801 -2.60209e-18 0)
(0.00459671 -0.000936656 -4.03323e-17 -0.00204897 1.0842e-17 0)
(0.00405391 -0.00101501 -3.16587e-17 -0.00143304 8.23994e-18 0)
(0.00416118 -0.000731864 -2.11419e-17 -0.00162573 3.90313e-18 0)
(0.00373252 -0.000816058 -1.66967e-17 -0.00117319 0 0)
(0.00382946 -0.000555995 -1.20346e-17 -0.00130036 -2.1684e-18 0)
(0.00361163 -0.000633957 -9.97466e-18 -0.00114887 -2.60209e-18 0)
(0.00369416 -0.000404653 -9.43256e-18 -0.0011688 4.33681e-19 0)
(0.00356415 -0.000485589 -7.91468e-18 -0.00116159 0 0)
(0.00364984 -0.000246255 -5.96311e-18 -0.00116837 -8.67362e-19 0)
(0.00349699 -0.000343773 -6.28837e-18 -0.00116144 -1.30104e-18 0)
(0.00358269 -0.000102919 -4.33681e-18 -0.00115148 -4.33681e-19 0)
(0.00341564 -0.000213793 -3.57787e-18 -0.00115028 -1.30104e-18 0)
(0.00349893 2.17824e-05 -2.49366e-18 -0.00112396 1.73472e-18 0)
(0.00332538 -9.83487e-05 -2.05998e-18 -0.00113092 -1.73472e-18 0)
(0.00340445 0.000126614 -1.6263e-18 -0.00109104 4.33681e-19 0)
(0.00323096 1.65972e-06 -1.6263e-18 -0.00110631 -1.30104e-18 0)
(0.00330479 0.000212791 -1.40946e-18 -0.00105668 1.30104e-18 0)
(0.00313597 8.67704e-05 -8.67362e-19 -0.00107909 4.33681e-19 0)
(0.00320416 0.000282654 -8.67362e-19 -0.00102343 0 0)
(0.00304279 0.000158332 -9.75782e-19 -0.00105124 2.1684e-18 0)
(0.00310537 0.000338785 -8.67362e-19 -0.000992708 1.73472e-18 0)
(0.00295281 0.000218 -8.67362e-19 -0.00102413 2.60209e-18 0)
(0.00301007 0.000383578 0 -0.000965176 -1.73472e-18 0)
(0.00286675 0.000267432 -5.42101e-19 -0.00099857 4.33681e-19 0)
(0.00291908 0.000419088 -1.0842e-19 -0.000940988 4.33681e-19 0)
(0.00278484 0.000308145 0 -0.000974981 0 0)
(0.00283268 0.000447005 -2.1684e-19 -0.000920006 -4.33681e-19 0)
(0.00270701 0.00034145 2.1684e-19 -0.000953497 0 0)
(0.00275081 0.000468687 0 -0.000901925 8.67362e-19 0)
(0.00263301 0.000368444 1.0842e-19 -0.000934066 0 0)
(0.00643979 -0.00222268 5.5728e-17 -0.0040843 -8.45678e-17 0)
(0.00576383 -0.00224771 5.31259e-17 -0.00343677 -3.90313e-17 0)
(0.00589959 -0.00194574 1.64799e-17 -0.00350428 -6.50521e-17 0)
(0.00522286 -0.00195708 -7.80626e-18 -0.00279735 -3.46945e-18 0)
(0.00535653 -0.00166779 -3.68629e-17 -0.0029372 -3.07913e-17 0)
(0.00469418 -0.00167155 -4.35849e-17 -0.00219933 1.17094e-17 0)
(0.00482608 -0.00139274 -2.90566e-17 -0.00239782 -1.47451e-17 0)
(0.00419223 -0.00139721 -2.49366e-17 -0.00166399 -4.33681e-19 0)
(0.00432252 -0.00112631 -3.46945e-17 -0.00190105 -7.80626e-18 0)
(0.00375899 -0.00114259 -2.77556e-17 -0.00124931 -1.73472e-18 0)
(0.00388452 -0.000881772 -3.07913e-17 -0.00147935 -4.33681e-19 0)
(0.00353408 -0.000918733 -1.95156e-17 -0.00111821 -3.46945e-18 0)
(0.00363257 -0.000704735 -1.56125e-17 -0.00121352 -3.46945e-18 0)
(0.00349692 -0.000752753 -1.17094e-17 -0.00114517 -3.03577e-18 0)
(0.00358642 -0.000552626 -9.75782e-18 -0.00118023 -3.03577e-18 0)
(0.00347106 -0.000612685 -8.89046e-18 -0.00116314 -3.03577e-18 0)
(0.00356418 -0.000403869 -8.0231e-18 -0.0011941 -4.33681e-19 0)
(0.00343167 -0.000474495 -6.07153e-18 -0.00117478 -3.90313e-18 0)
(0.00352629 -0.000261145 -6.72205e-18 -0.00119547 -4.33681e-19 0)
(0.00337978 -0.000342671 -4.33681e-18 -0.00117845 -2.60209e-18 0)
(0.00347383 -0.000129192 -4.44523e-18 -0.00118624 -1.30104e-18 0)
(0.00331775 -0.000220318 -3.68629e-18 -0.00117445 -8.67362e-19 0)
(0.00340946 -1.07217e-05 -2.49366e-18 -0.0011691 -1.30104e-18 0)
(0.00324838 -0.000109286 -2.05998e-18 -0.00116403 -8.67362e-19 0)
(0.00333635 9.30722e-05 -1.95156e-18 -0.00114685 -4.33681e-19 0)
(0.00317444 -1.03952e-05 -1.6263e-18 -0.0011488 -2.1684e-18 0)
(0.00325772 0.000182321 -1.19262e-18 -0.00112192 -1.30104e-18 0)
(0.0030983 7.63837e-05 -1.30104e-18 -0.00113035 4.33681e-19 0)
(0.00317636 0.00025801 -1.6263e-18 -0.00109618 0 0)
(0.00302178 0.000151661 -3.25261e-19 -0.00111008 -1.73472e-18 0)
(0.00309443 0.000321536 -6.50521e-19 -0.00107092 -8.67362e-19 0)
(0.00294615 0.00021637 -4.33681e-19 -0.00108908 -4.33681e-19 0)
(0.00301347 0.000374402 2.1684e-19 -0.00104693 -1.30104e-18 0)
(0.00287226 0.000271573 -5.42101e-19 -0.00106811 0 0)
(0.00293444 0.00041805 -3.25261e-19 -0.00102462 -1.30104e-18 0)
(0.00280058 0.000318334 -1.0842e-19 -0.00104771 0 0)
(0.00285792 0.000453773 -3.25261e-19 -0.00100415 -4.33681e-19 0)
(0.00273134 0.000357643 0 -0.00102815 4.33681e-19 0)
(0.00278416 0.000482688 -1.0842e-19 -0.000985495 4.33681e-19 0)
(0.00266456 0.000390384 -4.33681e-19 -0.00100958 0 0)
(0.00567126 -0.00231998 4.83554e-17 -0.00339673 -1.64799e-17 0)
(0.00492636 -0.00224661 -2.47198e-17 -0.00260111 8.67362e-19 0)
(0.00508955 -0.00195843 -4.27176e-17 -0.00278902 3.55618e-17 0)
(0.00437162 -0.00188068 -5.68122e-17 -0.00197739 1.77809e-17 0)
(0.00452912 -0.00161044 -2.94903e-17 -0.00221916 2.08167e-17 0)
(0.00386157 -0.00153939 4.77049e-18 -0.0014374 -7.37257e-18 0)
(0.00401118 -0.00128778 -8.23994e-18 -0.0017061 2.1684e-18 0)
(0.0034736 -0.0012476 -3.90313e-18 -0.0010868 -9.1073e-18 0)
(0.00360487 -0.00102358 -1.58294e-17 -0.00129757 -5.20417e-18 0)
(0.00337429 -0.00103681 -1.14925e-17 -0.00108419 -6.07153e-18 0)
(0.00347602 -0.000850181 -1.40946e-17 -0.00114778 -4.77049e-18 0)
(0.00336825 -0.000889745 -9.97466e-18 -0.00111339 -3.46945e-18 0)
(0.00347198 -0.000698358 -1.01915e-17 -0.00116985 -4.33681e-18 0)
(0.00335413 -0.000746034 -8.0231e-18 -0.00113849 -4.33681e-18 0)
(0.00345732 -0.000555039 -7.80626e-18 -0.00119002 -3.46945e-18 0)
(0.00333277 -0.000607865 -5.20417e-18 -0.00115898 -2.60209e-18 0)
(0.00343635 -0.000415218 -6.50521e-18 -0.00120351 -3.03577e-18 0)
(0.00330274 -0.000475226 -4.77049e-18 -0.0011742 -2.60209e-18 0)
(0.00340598 -0.000281956 -3.90313e-18 -0.00120911 -3.90313e-18 0)
(0.00326413 -0.000349671 -3.46945e-18 -0.00118346 -1.73472e-18 0)
(0.00336589 -0.000157796 -2.60209e-18 -0.00120724 -3.03577e-18 0)
(0.00321797 -0.000232717 -3.25261e-18 -0.00118676 -8.67362e-19 0)
(0.00331707 -4.44367e-05 -2.38524e-18 -0.00119913 -3.03577e-18 0)
(0.00316573 -0.00012542 -1.73472e-18 -0.00118466 -2.1684e-18 0)
(0.00326116 5.72379e-05 -2.1684e-18 -0.00118627 -1.73472e-18 0)
(0.00310903 -2.83174e-05 -1.30104e-18 -0.00117804 -1.30104e-18 0)
(0.00320003 0.000147084 -1.30104e-18 -0.00117016 -3.03577e-18 0)
(0.0030494 5.85292e-05 -1.51788e-18 -0.00116788 -1.73472e-18 0)
(0.00313548 0.000225514 -1.51788e-18 -0.0011521 0 0)
(0.00298816 0.00013543 -1.0842e-18 -0.00115513 0 0)
(0.00306904 0.000293288 -4.33681e-19 -0.00113309 -8.67362e-19 0)
(0.00292634 0.000202941 -6.50521e-19 -0.00114062 -1.73472e-18 0)
(0.00300197 0.000351336 -1.0842e-19 -0.00111389 -1.73472e-18 0)
(0.00286473 0.000261758 -2.1684e-19 -0.00112502 -8.67362e-19 0)
(0.00293516 0.000400637 -5.42101e-19 -0.00109498 0 0)
(0.00280387 0.000312622 0 -0.00110883 0 0)
(0.00286927 0.000442136 0 -0.00107667 -4.33681e-19 0)
(0.00274411 0.000356268 -3.25261e-19 -0.00109242 -4.33681e-19 0)
(0.00280469 0.0004767 -2.1684e-19 -0.0010591 -8.67362e-19 0)
(0.00268566 0.000393387 0 -0.00107603 -1.73472e-18 0)
(0.00477587 -0.00223502 -9.06393e-17 -0.00259568 1.17094e-17 0)
(0.00401813 -0.00206977 -8.65193e-17 -0.00173739 2.60209e-17 0)
(0.00420006 -0.00181025 -3.42608e-17 -0.00200347 -4.33681e-18 0)
(0.00351599 -0.00166991 1.10589e-17 -0.00121528 -2.21177e-17 0)
(0.00368506 -0.00143198 1.82146e-17 -0.00148395 -2.25514e-17 0)
(0.00322481 -0.00136445 1.40946e-17 -0.000983093 -1.51788e-17 0)
(0.00335694 -0.0011678 4.33681e-18 -0.00112253 -1.0842e-17 0)
(0.0032126 -0.00118139 2.1684e-19 -0.00102405 -4.77049e-18 0)
(0.00332825 -0.00100228 -5.63785e-18 -0.00110001 -4.33681e-18 0)
(0.00321503 -0.00103192 -3.25261e-18 -0.00105507 -2.60209e-18 0)
(0.00333094 -0.000852452 -6.07153e-18 -0.00113146 -3.03577e-18 0)
(0.00321384 -0.000885675 -4.55365e-18 -0.00108699 -2.60209e-18 0)
(0.00332961 -0.000705812 -5.42101e-18 -0.00115923 -1.73472e-18 0)
(0.0032069 -0.000744177 -4.55365e-18 -0.00111658 -2.1684e-18 0)
(0.00332143 -0.000565334 -5.20417e-18 -0.00118207 -3.03577e-18 0)
(0.00319389 -0.000609018 -3.25261e-18 -0.00114229 -1.30104e-18 0)
(0.00330705 -0.000431161 -3.25261e-18 -0.0011994 -2.1684e-18 0)
(0.0031743 -0.000480761 -2.81893e-18 -0.00116333 0 0)
(0.00328567 -0.000304386 -3.25261e-18 -0.00121071 -1.30104e-18 0)
(0.00314815 -0.000360104 -2.38524e-18 -0.00117924 -1.73472e-18 0)
(0.00325706 -0.000186175 -2.81893e-18 -0.00121612 -3.46945e-18 0)
(0.00311592 -0.000247721 -2.60209e-18 -0.00118994 4.33681e-19 0)
(0.00322166 -7.74127e-05 -8.67362e-19 -0.00121619 -1.73472e-18 0)
(0.00307842 -0.000144106 -1.30104e-18 -0.00119569 -1.30104e-18 0)
(0.00318031 2.13993e-05 -1.0842e-18 -0.00121175 -1.73472e-18 0)
(0.00303665 -4.95045e-05 -6.50521e-19 -0.00119701 -1.30104e-18 0)
(0.00313413 0.000110152 -1.0842e-18 -0.00120373 0 0)
(0.00299159 3.60898e-05 -6.50521e-19 -0.00119453 -1.30104e-18 0)
(0.00308426 0.000189064 -6.50521e-19 -0.00119303 -1.30104e-18 0)
(0.0029442 0.0001129 -1.0842e-18 -0.00118892 -2.60209e-18 0)
(0.00303181 0.000258593 -4.33681e-19 -0.0011804 0 0)
(0.00289528 0.000181308 -4.33681e-19 -0.0011808 -8.67362e-19 0)
(0.00297771 0.000319343 -2.1684e-19 -0.00116649 -8.67362e-19 0)
(0.0028455 0.000241802 -4.33681e-19 -0.00117074 -4.33681e-19 0)
(0.00292274 0.000371987 -4.33681e-19 -0.00115177 4.33681e-19 0)
(0.0027954 0.00029492 -6.50521e-19 -0.0011592 8.67362e-19 0)
(0.00286752 0.000417209 -4.33681e-19 -0.00113661 -4.33681e-19 0)
(0.00274539 0.000341212 -4.33681e-19 -0.00114656 -4.33681e-19 0)
(0.0028125 0.000455667 2.1684e-19 -0.00112125 -1.30104e-18 0)
(0.00269575 0.000381212 -4.33681e-19 -0.00113313 -4.33681e-19 0)
(0.00385306 -0.00200329 -3.49113e-17 -0.00176317 2.1684e-17 0)
(0.00320201 -0.00180643 2.21177e-17 -0.00102912 1.17094e-17 0)
(0.00337742 -0.00159203 1.21431e-17 -0.00125126 -4.33681e-19 0)
(0.00301884 -0.00151951 2.29851e-17 -0.000891367 1.04083e-17 0)
(0.00316092 -0.00133293 1.47451e-17 -0.000996829 -4.33681e-18 0)
(0.00303051 -0.00134827 1.01915e-17 -0.000931025 4.33681e-18 0)
(0.00317064 -0.00116358 6.07153e-18 -0.0010312 -4.33681e-18 0)
(0.00303978 -0.00118405 5.63785e-18 -0.000970525 8.67362e-19 0)
(0.00317367 -0.00100764 2.1684e-18 -0.00106648 -2.1684e-18 0)
(0.00304879 -0.00102968 3.46945e-18 -0.00100991 -1.73472e-18 0)
(0.00317923 -0.000857502 -2.1684e-19 -0.00110164 -1.73472e-18 0)
(0.00305517 -0.000882871 0 -0.00104866 -2.1684e-18 0)
(0.00318287 -0.000713525 -2.38524e-18 -0.00113396 -4.33681e-19 0)
(0.00305725 -0.000743401 -1.73472e-18 -0.00108501 -1.73472e-18 0)
(0.00318213 -0.000576701 -2.81893e-18 -0.00116204 -8.67362e-19 0)
(0.00305423 -0.000611581 -2.60209e-18 -0.00111761 -4.33681e-19 0)
(0.00317623 -0.000447401 -3.25261e-18 -0.00118521 -4.33681e-19 0)
(0.00304568 -0.000487579 -2.38524e-18 -0.00114567 4.33681e-19 0)
(0.00316461 -0.000326056 -1.95156e-18 -0.0012031 -1.30104e-18 0)
(0.00303153 -0.000371566 -1.30104e-18 -0.0011688 -1.73472e-18 0)
(0.00314707 -0.000213105 -1.0842e-18 -0.00121572 -1.30104e-18 0)
(0.00301203 -0.000263706 -2.38524e-18 -0.00118688 4.33681e-19 0)
(0.00312379 -0.00010889 -4.33681e-19 -0.00122337 -3.03577e-18 0)
(0.00298768 -0.000164099 -6.50521e-19 -0.00120007 -2.60209e-18 0)
(0.00309525 -1.35796e-05 -1.30104e-18 -0.00122655 -1.30104e-18 0)
(0.00295911 -7.27416e-05 -8.67362e-19 -0.00120872 0 0)
(0.00306215 7.28449e-05 -8.67362e-19 -0.00122587 4.33681e-19 0)
(0.00292703 1.04857e-05 -4.33681e-19 -0.00121327 0 0)
(0.00302523 0.00015058 -6.50521e-19 -0.00122196 -8.67362e-19 0)
(0.00289212 8.58129e-05 -6.50521e-19 -0.00121422 1.30104e-18 0)
(0.0029853 0.000219964 -1.0842e-18 -0.00121542 8.67362e-19 0)
(0.00285503 0.000153559 -2.1684e-19 -0.0012121 0 0)
(0.00294307 0.000281429 -1.30104e-18 -0.00120679 -4.33681e-19 0)
(0.00281634 0.000214104 0 -0.00120738 0 0)
(0.0028992 0.000335466 -2.1684e-19 -0.00119651 -1.30104e-18 0)
(0.00277654 0.000267864 0 -0.00120048 -8.67362e-19 0)
(0.00285424 0.000382585 -4.33681e-19 -0.00118494 8.67362e-19 0)
(0.00273605 0.000315266 0 -0.0011918 -8.67362e-19 0)
(0.00280863 0.000423289 0 -0.00117239 -1.30104e-18 0)
(0.00269519 0.000356732 -4.33681e-19 -0.00118164 0 0)
(0.00309503 -0.00177271 1.77809e-17 -0.00103944 4.77049e-18 0)
(0.0027992 -0.00170317 1.30104e-18 -0.000775034 -8.67362e-18 0)
(0.00296066 -0.00151829 1.38778e-17 -0.000884343 9.97466e-18 0)
(0.00281483 -0.00152268 6.93889e-18 -0.000807601 -4.77049e-18 0)
(0.00297519 -0.00134149 1.04083e-17 -0.000928495 2.1684e-18 0)
(0.00283506 -0.00134679 6.50521e-18 -0.000852986 -4.77049e-18 0)
(0.00299089 -0.00117127 7.15573e-18 -0.000973304 -8.67362e-19 0)
(0.00285596 -0.00117994 3.46945e-18 -0.000902941 -3.46945e-18 0)
(0.00300534 -0.00101152 4.11997e-18 -0.0010174 0 0)
(0.00287586 -0.00102386 2.60209e-18 -0.000953291 -3.90313e-18 0)
(0.00301959 -0.000861103 1.73472e-18 -0.00105988 0 0)
(0.00289299 -0.000877799 -6.50521e-19 -0.00100192 0 0)
(0.00303182 -0.000719481 -2.60209e-18 -0.00109919 -4.33681e-19 0)
(0.002906 -0.000741072 -1.51788e-18 -0.00104723 -8.67362e-19 0)
(0.00304032 -0.0005865 -1.51788e-18 -0.00113422 -4.33681e-19 0)
(0.00291413 -0.000613236 -2.1684e-19 -0.00108817 -1.73472e-18 0)
(0.00304418 -0.000462014 -4.33681e-19 -0.00116433 -4.33681e-19 0)
(0.002917 -0.00049395 -8.67362e-19 -0.00112411 -4.33681e-19 0)
(0.00304284 -0.000345938 -2.1684e-18 -0.00118925 4.33681e-19 0)
(0.00291455 -0.00038295 -1.73472e-18 -0.00115477 -8.67362e-19 0)
(0.00303614 -0.000238226 -8.67362e-19 -0.00120896 -1.30104e-18 0)
(0.00290695 -0.000280029 -1.73472e-18 -0.00118012 0 0)
(0.00302415 -0.000138832 -1.51788e-18 -0.00122368 -8.67362e-19 0)
(0.00289456 -0.000185 -6.50521e-19 -0.00120032 -4.33681e-19 0)
(0.00300719 -4.76587e-05 -4.33681e-19 -0.00123377 -8.67362e-19 0)
(0.00287786 -9.7659e-05 -6.50521e-19 -0.00121568 0 0)
(0.00298574 3.54574e-05 -8.67362e-19 -0.00123968 4.33681e-19 0)
(0.00285739 -1.7774e-05 -2.1684e-19 -0.00122659 4.33681e-19 0)
(0.00296035 0.000110757 2.1684e-19 -0.00124192 -1.30104e-18 0)
(0.00283371 5.49261e-05 -4.33681e-19 -0.00123347 -4.33681e-19 0)
(0.00293162 0.000178546 -1.0842e-18 -0.00124096 -1.30104e-18 0)
(0.00280736 0.000120747 -8.67362e-19 -0.00123679 8.67362e-19 0)
(0.00290014 0.000239182 0 -0.00123729 -1.30104e-18 0)
(0.00277885 0.000180018 4.33681e-19 -0.00123698 0 0)
(0.00286646 0.000293051 -2.1684e-19 -0.00123131 0 0)
(0.00274864 0.000233086 -1.51788e-18 -0.00123445 4.33681e-19 0)
(0.00283107 0.000340552 2.1684e-19 -0.00122339 -8.67362e-19 0)
(0.00271715 0.000280298 6.50521e-19 -0.00122958 -8.67362e-19 0)
(0.00279441 0.00038208 -2.1684e-19 -0.00121384 8.67362e-19 0)
(0.00268472 0.000321995 0 -0.0012227 0 0)
(0.00275614 -0.00172889 -4.33681e-18 -0.000746339 -2.47198e-17 0)
(0.00256392 -0.0017174 3.46945e-18 -0.000641805 -1.47451e-17 0)
(0.00275614 -0.00153033 1.73472e-18 -0.000791192 -1.21431e-17 0)
(0.00259299 -0.00151802 4.77049e-18 -0.000694976 -9.54098e-18 0)
(0.00277479 -0.00134316 4.33681e-18 -0.000845655 -6.07153e-18 0)
(0.00262858 -0.00133457 2.60209e-18 -0.000759316 -4.77049e-18 0)
(0.00280076 -0.00116906 3.03577e-18 -0.000902482 -4.33681e-18 0)
(0.00266481 -0.00116588 1.73472e-18 -0.000825911 -3.03577e-18 0)
(0.00282805 -0.00100818 1.30104e-18 -0.000958073 -2.60209e-18 0)
(0.00269886 -0.00101074 8.67362e-19 -0.000890622 -2.1684e-18 0)
(0.00285432 -0.000859279 4.33681e-19 -0.00101062 -1.30104e-18 0)
(0.00272908 -0.000867643 1.30104e-18 -0.000951431 -8.67362e-19 0)
(0.00287778 -0.000721159 -2.1684e-19 -0.00105889 -4.33681e-19 0)
(0.00275447 -0.000735296 -1.73472e-18 -0.0010072 -4.33681e-19 0)
(0.00289716 -0.000592932 -1.73472e-18 -0.00110208 4.33681e-19 0)
(0.00277448 -0.000612709 -6.50521e-19 -0.00105731 -8.67362e-19 0)
(0.00291167 -0.000473921 -2.1684e-19 -0.00113979 -1.30104e-18 0)
(0.00278891 -0.000499116 -1.73472e-18 -0.00110146 -1.73472e-18 0)
(0.00292092 -0.000363611 -2.38524e-18 -0.00117188 0 0)
(0.00279779 -0.000393924 0 -0.00113961 -2.60209e-18 0)
(0.0029248 -0.000261603 -4.33681e-19 -0.00119845 -2.1684e-18 0)
(0.00280134 -0.00029666 -6.50521e-19 -0.00117188 -8.67362e-19 0)
(0.00292342 -0.000167571 -6.50521e-19 -0.00121971 8.67362e-19 0)
(0.00279991 -0.00020693 -4.33681e-19 -0.00119854 -4.33681e-19 0)
(0.00291705 -8.12203e-05 0 -0.00123602 -8.67362e-19 0)
(0.00279393 -0.000124389 -1.0842e-18 -0.00121994 4.33681e-19 0)
(0.00290609 -2.26309e-06 -4.33681e-19 -0.00124779 0 0)
(0.00278388 -4.87128e-05 0 -0.00123647 -1.73472e-18 0)
(0.00289101 6.95979e-05 -1.51788e-18 -0.00125546 4.33681e-19 0)
(0.00277026 2.04106e-05 -1.0842e-18 -0.00124857 -4.33681e-19 0)
(0.0028723 0.000134674 -1.30104e-18 -0.00125947 1.30104e-18 0)
(0.00275356 8.32907e-05 -4.33681e-19 -0.00125667 -8.67362e-19 0)
(0.00285048 0.000193287 6.50521e-19 -0.00126026 -8.67362e-19 0)
(0.00273427 0.000140234 0 -0.00126121 -8.67362e-19 0)
(0.00282602 0.000245769 -1.51788e-18 -0.00125824 8.67362e-19 0)
(0.00271282 0.000191543 -2.1684e-19 -0.00126259 4.33681e-19 0)
(0.0027994 0.000292447 4.33681e-19 -0.00125376 -1.30104e-18 0)
(0.00268962 0.000237513 0 -0.00126119 0 0)
(0.00277103 0.000333643 0 -0.00124716 0 0)
(0.00266504 0.000278426 -2.1684e-19 -0.00125737 -8.67362e-19 0)
(0.00251344 -0.00173855 6.07153e-18 -0.00061157 -9.54098e-18 0)
(0.0023048 -0.00170483 5.20417e-18 -0.000488215 -6.93889e-18 0)
(0.00252904 -0.00152007 4.33681e-18 -0.000679497 -7.80626e-18 0)
(0.00236043 -0.00149345 4.77049e-18 -0.000576521 -4.33681e-18 0)
(0.00256398 -0.00132644 3.90313e-18 -0.000753082 -4.33681e-18 0)
(0.00241735 -0.00130721 1.30104e-18 -0.000665132 -1.30104e-18 0)
(0.00260563 -0.00115214 0 -0.00082601 -8.67362e-19 0)
(0.0024718 -0.00114037 1.30104e-18 -0.000750359 -1.73472e-18 0)
(0.00264787 -0.00099399 -8.67362e-19 -0.000895233 0 0)
(0.00252176 -0.000989422 2.1684e-18 -0.000830092 0 0)
(0.00268777 -0.000849616 1.73472e-18 -0.000959274 -2.60209e-18 0)
(0.00256616 -0.000851882 0 -0.000903279 -4.33681e-19 0)
(0.00272367 -0.000717184 0 -0.00101736 -4.33681e-19 0)
(0.00260446 -0.000725894 -4.33681e-19 -0.000969448 -2.1684e-18 0)
(0.00275458 -0.000595313 -1.30104e-18 -0.00106912 -1.30104e-18 0)
(0.00263645 -0.000610068 -1.73472e-18 -0.00102846 -8.67362e-19 0)
(0.00277999 -0.000482958 -1.30104e-18 -0.00111446 -8.67362e-19 0)
(0.00266217 -0.000503343 -4.33681e-19 -0.00108038 -1.73472e-18 0)
(0.00279968 -0.000379314 -6.50521e-19 -0.00115348 -8.67362e-19 0)
(0.00268182 -0.000404902 -1.73472e-18 -0.00112544 -8.67362e-19 0)
(0.00281368 -0.000283753 -4.33681e-19 -0.00118641 -1.30104e-18 0)
(0.00269572 -0.000314098 -1.30104e-18 -0.00116396 4.33681e-19 0)
(0.00282218 -0.000195769 -2.1684e-19 -0.00121357 -4.33681e-19 0)