/*--------------------------------*- C++ -*----------------------------------*\
| =========                 |                                                 |
| \\      /  F ield         | OpenFOAM: The Open Source CFD Toolbox           |
|  \\    /   O peration     | Version:  v2012                                 |
|   \\  /    A nd           | Website:  www.openfoam.com                      |
|    \\/     M anipulation  |                                                 |
\*---------------------------------------------------------------------------*/
FoamFile
{
    version     2.0;
    format      ascii;
    class       pointScalarField;
    location    "8";
    object      pEpsilonEq;
}
// * * * * * * * * * * * * * * * * * * * * * * * * * * * * * * * * * * * * * //

dimensions      [0 0 0 0 0 0 0];


internalField   nonuniform List<scalar> 
8282
(
0.00190602
0.000826282
0.00117513
0.000758988
0.0080508
0.000384309
0.0019335
0.00199672
0.00215864
0.00102969
0.000764792
0.000764792
0.00199672
0.0019335
0.0080508
0.00190602
0.000384309
0.000826282
0.00102969
0.00117513
0.00215864
0.000758988
0.00194594
0.0020077
0.00208522
0.00216302
0.00223104
0.00228466
0.00232297
0.00234695
0.00235839
0.00235915
0.00235093
0.00233504
0.00231246
0.00228384
0.00224967
0.00221037
0.00216652
0.00211921
0.00207058
0.00190949
0.00185728
0.00179358
0.00172262
0.001646
0.00156453
0.00147872
0.00138898
0.00129568
0.00119922
0.00110007
0.00099884
0.000896325
0.000793655
0.000692511
0.000595548
0.000507159
0.000434709
0.000389747
0.00170128
0.00151226
0.00134914
0.00120698
0.00108286
0.000974515
0.000879995
0.000797595
0.000725824
0.00066338
0.000609134
0.000562107
0.000521455
0.000486448
0.000456464
0.000430986
0.000409625
0.000392203
0.000378997
0.000370279
0.000353018
0.000349063
0.000354547
0.000366678
0.000383434
0.000403368
0.000425458
0.000448981
0.00047342
0.0004984
0.000523645
0.000548941
0.000574124
0.000599057
0.000623624
0.000647724
0.000671264
0.000694155
0.000716311
0.000737646
0.000758075
0.000777506
0.000795846
0.000812995
0.000828846
0.000843284
0.000856183
0.000867404
0.000876794
0.000884184
0.000889386
0.000892193
0.000892377
0.000889695
0.000883903
0.000874783
0.000862203
0.000846157
0.000823367
0.000826295
0.000829727
0.000834207
0.000839834
0.000846616
0.000854534
0.000863553
0.000873632
0.000884718
0.000896754
0.00090967
0.000923391
0.000937831
0.000952896
0.000968482
0.000984475
0.00100073
0.00101692
0.00103893
0.00104639
0.00105373
0.00106099
0.00106816
0.00107524
0.0010822
0.00108905
0.00109576
0.00110232
0.00110872
0.00111494
0.00112097
0.00112679
0.00113238
0.00113774
0.00114285
0.00114769
0.00115225
0.00115652
0.00116048
0.00116413
0.00116745
0.00117043
0.00117307
0.00117535
0.00117727
0.00117882
0.00118001
0.00118084
0.00118131
0.00118144
0.00118124
0.00118075
0.00117998
0.00117901
0.00117789
0.00117673
0.00117569
0.00117408
0.00117177
0.00117149
0.00117461
0.00118155
0.00119235
0.00120686
0.00122487
0.00124615
0.00127047
0.00129765
0.00132749
0.00135984
0.00139456
0.0014315
0.00147056
0.00151158
0.00155446
0.00159902
0.00164511
0.00169252
0.00174103
0.00179034
0.00184014
0.00189003
0.00193956
0.00198818
0.00203531
0.00208023
0.00212216
0.00216024
0.0021935
0.0022209
0.00224135
0.00225367
0.00225668
0.00224918
0.00222994
0.00219721
0.00211467
0.00206499
0.0020083
0.00194442
0.00187355
0.00179607
0.00171253
0.00162372
0.00153063
0.00143449
0.00133684
0.00123946
0.00114443
0.00105407
0.000970902
0.000897556
0.000836592
0.000790147
0.000757508
0.000809246
0.000861608
0.000910868
0.00095745
0.00100164
0.00104367
0.00108368
0.00112184
0.00115826
0.00119306
0.00122634
0.00125822
0.00128878
0.00131811
0.00134631
0.00137346
0.00139965
0.00142495
0.00144944
0.00147321
0.00149634
0.00151889
0.00154094
0.00156257
0.00158386
0.00160487
0.0016257
0.00164641
0.00166708
0.0016878
0.00170865
0.00172973
0.00175112
0.00177293
0.00179527
0.00181825
0.001842
0.00186669
0.00189249
0.00199472
0.0020599
0.00213483
0.00222284
0.00232861
0.00245917
0.00262592
0.00284882
0.0031826
0.00360856
0.00404945
0.00450139
0.00496185
0.00542853
0.00590014
0.00637646
0.00685674
0.00733709
0.00780256
0.00194637
0.00188904
0.00183806
0.00178749
0.00173728
0.00168815
0.00164082
0.0015958
0.00155341
0.00151381
0.00147703
0.00144303
0.00141171
0.00138292
0.0013565
0.00133228
0.00131009
0.00128973
0.00127103
0.00125381
0.0012379
0.00122312
0.0012093
0.00119627
0.00118388
0.00117197
0.00116039
0.00114903
0.00113776
0.00112651
0.00111521
0.00110384
0.00109241
0.00108102
0.00106979
0.00105896
0.00104885
0.00103991
0.00103281
0.00209103
0.00210041
0.0021084
0.00211556
0.00212202
0.00212777
0.00213272
0.00213682
0.00214003
0.00214232
0.00214369
0.00214413
0.00214369
0.00214239
0.00214028
0.00213742
0.00213388
0.00212973
0.00212504
0.00211992
0.00211446
0.00210876
0.00210295
0.00209714
0.00209149
0.00208613
0.00208123
0.00207697
0.00207355
0.00207118
0.00207008
0.00207052
0.00207276
0.0020771
0.00208386
0.00209339
0.00210607
0.00212234
0.00214278
0.00792046
0.00776361
0.00756039
0.00725243
0.00679006
0.00613662
0.00529211
0.00433123
0.00345453
0.00300858
0.00282782
0.0026539
0.00245009
0.00222677
0.00199056
0.00174657
0.00149887
0.00125083
0.00100529
0.000531963
0.000311592
0.00013181
0.000181147
0.00036299
0.000549766
0.000729463
0.000899533
0.00105885
0.00120665
0.0013423
0.00146527
0.00157502
0.0016711
0.00175305
0.00182052
0.00187328
0.00191207
0.00194585
0.000775142
0.000895844
0.00103251
0.00116618
0.00128959
0.00140047
0.00149862
0.00158466
0.00165955
0.00172431
0.00177996
0.00182744
0.00186761
0.00190121
0.00192884
0.00195091
0.00196736
0.00197694
0.00197464
0.000775142
0.000895844
0.00103251
0.00116618
0.00128959
0.00140047
0.00149862
0.00158466
0.00165955
0.00172431
0.00177996
0.00182744
0.00186761
0.00190121
0.00192884
0.00195091
0.00196736
0.00197694
0.00197464
0.00207058
0.00211921
0.00216652
0.00221037
0.00224967
0.00228384
0.00231246
0.00233504
0.00235093
0.00235915
0.00235839
0.00234695
0.00232297
0.00228466
0.00223104
0.00216302
0.00208522
0.0020077
0.00194594
0.00199472
0.0020599
0.00213483
0.00222284
0.00232861
0.00245917
0.00262592
0.00284882
0.0031826
0.00360856
0.00404945
0.00450139
0.00496185
0.00542853
0.00590014
0.00637646
0.00685674
0.00733709
0.00780256
0.00792046
0.00776361
0.00756039
0.00725243
0.00679006
0.00613662
0.00529211
0.00433123
0.00345453
0.00300858
0.00282782
0.0026539
0.00245009
0.00222677
0.00199056
0.00174657
0.00149887
0.00125083
0.00100529
0.000531963
0.000311592
0.00013181
0.000181147
0.00036299
0.000549766
0.000729463
0.000899533
0.00105885
0.00120665
0.0013423
0.00146527
0.00157502
0.0016711
0.00175305
0.00182052
0.00187328
0.00191207
0.00194585
0.00170128
0.00151226
0.00134914
0.00120698
0.00108286
0.000974515
0.000879995
0.000797595
0.000725824
0.00066338
0.000609134
0.000562107
0.000521455
0.000486448
0.000456464
0.000430986
0.000409625
0.000392203
0.000378997
0.000389747
0.000434709
0.000507159
0.000595548
0.000692511
0.000793655
0.000896325
0.00099884
0.00110007
0.00119922
0.00129568
0.00138898
0.00147872
0.00156453
0.001646
0.00172262
0.00179358
0.00185728
0.00190949
0.000370279
0.000353018
0.000349063
0.000354547
0.000366678
0.000383434
0.000403368
0.000425458
0.000448981
0.00047342
0.0004984
0.000523645
0.000548941
0.000574124
0.000599057
0.000623624
0.000647724
0.000671264
0.000694155
0.000716311
0.000737646
0.000758075
0.000777506
0.000795846
0.000812995
0.000828846
0.000843284
0.000856183
0.000867404
0.000876794
0.000884184
0.000889386
0.000892193
0.000892377
0.000889695
0.000883903
0.000874783
0.000862203
0.000846157
0.000823367
0.000826295
0.000829727
0.000834207
0.000839834
0.000846616
0.000854534
0.000863553
0.000873632
0.000884718
0.000896754
0.00090967
0.000923391
0.000937831
0.000952896
0.000968482
0.000984475
0.00100073
0.00101692
0.00103281
0.00103991
0.00104885
0.00105896
0.00106979
0.00108102
0.00109241
0.00110384
0.00111521
0.00112651
0.00113776
0.00114903
0.00116039
0.00117197
0.00118388
0.00119627
0.0012093
0.00122312
0.0012379
0.00125381
0.00127103
0.00128973
0.00131009
0.00133228
0.0013565
0.00138292
0.00141171
0.00144303
0.00147703
0.00151381
0.00155341
0.0015958
0.00164082
0.00168815
0.00173728
0.00178749
0.00183806
0.00188904
0.00194637
0.00103893
0.00104639
0.00105373
0.00106099
0.00106816
0.00107524
0.0010822
0.00108905
0.00109576
0.00110232
0.00110872
0.00111494
0.00112097
0.00112679
0.00113238
0.00113774
0.00114285
0.00114769
0.00115225
0.00115652
0.00116048
0.00116413
0.00116745
0.00117043
0.00117307
0.00117535
0.00117727
0.00117882
0.00118001
0.00118084
0.00118131
0.00118144
0.00118124
0.00118075
0.00117998
0.00117901
0.00117789
0.00117673
0.00117569
0.00117408
0.00117177
0.00117149
0.00117461
0.00118155
0.00119235
0.00120686
0.00122487
0.00124615
0.00127047
0.00129765
0.00132749
0.00135984
0.00139456
0.0014315
0.00147056
0.00151158
0.00155446
0.00159902
0.00164511
0.00169252
0.00174103
0.00179034
0.00184014
0.00189003
0.00193956
0.00198818
0.00203531
0.00208023
0.00212216
0.00216024
0.0021935
0.0022209
0.00224135
0.00225367
0.00225668
0.00224918
0.00222994
0.00219721
0.00214278
0.00212234
0.00210607
0.00209339
0.00208386
0.0020771
0.00207276
0.00207052
0.00207008
0.00207118
0.00207355
0.00207697
0.00208123
0.00208613
0.00209149
0.00209714
0.00210295
0.00210876
0.00211446
0.00211992
0.00212504
0.00212973
0.00213388
0.00213742
0.00214028
0.00214239
0.00214369
0.00214413
0.00214369
0.00214232
0.00214003
0.00213682
0.00213272
0.00212777
0.00212202
0.00211556
0.0021084
0.00210041
0.00209103
0.00211467
0.00206499
0.0020083
0.00194442
0.00187355
0.00179607
0.00171253
0.00162372
0.00153063
0.00143449
0.00133684
0.00123946
0.00114443
0.00105407
0.000970902
0.000897556
0.000836592
0.000790147
0.000757508
0.000809246
0.000861608
0.000910868
0.00095745
0.00100164
0.00104367
0.00108368
0.00112184
0.00115826
0.00119306
0.00122634
0.00125822
0.00128878
0.00131811
0.00134631
0.00137346
0.00139965
0.00142495
0.00144944
0.00147321
0.00149634
0.00151889
0.00154094
0.00156257
0.00158386
0.00160487
0.0016257
0.00164641
0.00166708
0.0016878
0.00170865
0.00172973
0.00175112
0.00177293
0.00179527
0.00181825
0.001842
0.00186669
0.00189249
0.00758347
0.00711477
0.00664406
0.00617084
0.00569547
0.0052186
0.00474206
0.00426902
0.00380412
0.00335515
0.00298867
0.0027473
0.00257122
0.00242893
0.00231178
0.00221357
0.00212977
0.00205695
0.00199241
0.00740203
0.00691268
0.00642513
0.00593268
0.00543404
0.0049318
0.00443159
0.00394332
0.00348539
0.00311268
0.00288094
0.00272657
0.00258893
0.00246849
0.00236353
0.00227179
0.0021911
0.00211953
0.00205562
0.00716078
0.00662375
0.00608653
0.00554512
0.00500248
0.00446683
0.00395281
0.0034879
0.00313253
0.00293618
0.00282512
0.00271337
0.00260679
0.00250809
0.00241803
0.00233636
0.00226237
0.00219519
0.00213391
0.00680085
0.00619458
0.00558835
0.00498782
0.00440425
0.00385846
0.00339383
0.0030855
0.00294213
0.0028666
0.00278432
0.00269987
0.00261676
0.00253715
0.00246215
0.00239215
0.00232708
0.0022666
0.00221023
0.00627306
0.00558732
0.00491584
0.00427493
0.00369395
0.0032492
0.00301061
0.0029223
0.00286772
0.00280741
0.00274367
0.00267857
0.00261383
0.00255069
0.00248995
0.00243198
0.00237689
0.00232459
0.00227485
0.00555301
0.00480401
0.00410374
0.00349962
0.00310708
0.0029442
0.00288847
0.00284193
0.00279463
0.00274611
0.00269668
0.00264689
0.00259733
0.00254853
0.00250084
0.0024545
0.00240958
0.00236606
0.00232384
0.00466911
0.00391476
0.00331523
0.00299513
0.00289342
0.00284347
0.00279843
0.00275713
0.00271804
0.00268015
0.00264289
0.00260599
0.00256938
0.00253307
0.00249711
0.00246152
0.00242631
0.00239147
0.00235693
0.00374104
0.00317834
0.00292235
0.00284467
0.00278792
0.0027411
0.00270164
0.00266769
0.00263755
0.00260985
0.00258358
0.00255802
0.00253271
0.00250736
0.00248178
0.00245587
0.00242957
0.00240285
0.00237566
0.00309659
0.00287955
0.00279469
0.0027261
0.00267283
0.00263174
0.00259984
0.00257464
0.00255406
0.00253642
0.00252043
0.00250514
0.00248986
0.00247415
0.00245771
0.00244037
0.00242202
0.00240262
0.00238217
0.00285592
0.00274457
0.00265892
0.00259508
0.00254904
0.0025167
0.00249446
0.00247933
0.00246891
0.00246131
0.0024551
0.00244922
0.00244294
0.00243573
0.00242728
0.0024174
0.00240599
0.00239303
0.00237853
0.00270524
0.00258986
0.00250923
0.00245459
0.00241943
0.00239856
0.00238774
0.00238367
0.00238375
0.00238604
0.00238908
0.00239183
0.00239356
0.0023938
0.00239226
0.00238879
0.00238333
0.00237588
0.00236652
0.00252667
0.00241981
0.00235088
0.00230955
0.00228807
0.00228046
0.00228211
0.00228952
0.00230007
0.00231185
0.00232348
0.00233401
0.00234282
0.0023495
0.00235385
0.00235579
0.00235532
0.00235252
0.00234749
0.00232912
0.00223919
0.00218734
0.00216278
0.00215714
0.00216405
0.00217874
0.00219771
0.00221845
0.00223917
0.00225868
0.00227617
0.00229115
0.00230335
0.00231267
0.00231912
0.00232278
0.0023238
0.00232235
0.00211785
0.00205043
0.00201992
0.00201505
0.00202708
0.00204949
0.00207759
0.00210805
0.0021386
0.00216771
0.00219441
0.0022181
0.00223847
0.00225539
0.00226888
0.00227906
0.0022861
0.00229023
0.00229169
0.0018971
0.00185586
0.00184979
0.00186683
0.00189788
0.00193645
0.0019781
0.00201984
0.00205979
0.00209675
0.00213003
0.00215929
0.0021844
0.00220539
0.00222241
0.00223567
0.00224546
0.0022521
0.00225591
0.00167071
0.00165808
0.0016786
0.001719
0.00176981
0.00182474
0.00187975
0.0019324
0.00198124
0.00202549
0.00206481
0.0020991
0.00212843
0.00215301
0.00217308
0.00218896
0.00220101
0.00220965
0.00221533
0.00144213
0.0014599
0.00150846
0.00157293
0.00164358
0.00171451
0.00178233
0.00184521
0.00190228
0.00195321
0.001998
0.00203684
0.00207001
0.00209784
0.00212069
0.00213892
0.00215295
0.00216325
0.00217042
0.00121452
0.00126435
0.00134191
0.00143047
0.00152035
0.00160634
0.00168594
0.00175806
0.00182243
0.00187923
0.00192882
0.00197168
0.0020083
0.00203917
0.00206471
0.00208534
0.00210141
0.00211337
0.00212192
0.000991006
0.00107488
0.00118199
0.00129394
0.00140167
0.00150119
0.00159104
0.001671
0.00174144
0.00180298
0.00185638
0.00190239
0.00194175
0.00197515
0.00200317
0.00202633
0.00204497
0.00205934
0.00207006
0.000572319
0.000733542
0.000898328
0.00105062
0.0011866
0.00130617
0.00141043
0.00150082
0.00157876
0.00164561
0.00170255
0.00175064
0.00179078
0.00182372
0.0018501
0.00187045
0.00188539
0.00189635
0.00190842
0.000394506
0.000597976
0.000785562
0.000951026
0.00109521
0.0012202
0.0013282
0.00142125
0.00150118
0.00156958
0.00162784
0.00167717
0.00171865
0.00175327
0.00178197
0.0018058
0.00182605
0.00184438
0.00186207
0.000276957
0.000504811
0.000701441
0.000871143
0.00101759
0.0011439
0.00125276
0.00134645
0.00142694
0.00149593
0.0015549
0.00160515
0.00164786
0.00168409
0.00171488
0.00174122
0.00176402
0.00178395
0.00180118
0.0002851
0.000471787
0.000652885
0.000814311
0.00095557
0.00107837
0.00118475
0.0012767
0.00135601
0.00142429
0.00148296
0.00153328
0.00157639
0.0016133
0.00164493
0.00167205
0.00169528
0.00171505
0.00173166
0.000399071
0.000502835
0.000643143
0.000782539
0.000910404
0.00102437
0.00112462
0.0012122
0.00128836
0.00135438
0.00141147
0.00146073
0.00150318
0.00153968
0.00157101
0.00159781
0.00162063
0.00163988
0.00165589
0.000547874
0.000580679
0.000668931
0.000775557
0.000882422
0.000982279
0.00107266
0.0011531
0.00122401
0.0012861
0.00134024
0.00138726
0.00142798
0.00146313
0.00149335
0.0015192
0.00154117
0.00155968
0.00157506
0.000702375
0.00068331
0.000721647
0.000790537
0.000870831
0.000951997
0.00102896
0.00109956
0.00116309
0.00121957
0.00126937
0.00131301
0.00135105
0.00138404
0.0014125
0.00143692
0.00145771
0.00147525
0.00148988
0.00085321
0.00079571
0.000791431
0.000822813
0.000873733
0.000932866
0.000993411
0.00105167
0.0011058
0.00115503
0.00119916
0.00123832
0.00127278
0.00130289
0.00132903
0.00135156
0.00137083
0.00138717
0.00140087
0.000996637
0.000909398
0.000870045
0.000867117
0.000888431
0.000923718
0.000965629
0.00100944
0.00105235
0.00109279
0.00112999
0.00116363
0.00119366
0.0012202
0.00124346
0.00126366
0.00128107
0.00129592
0.00130848
0.00113075
0.00101962
0.000951525
0.000918564
0.000911863
0.000922983
0.000944992
0.000972798
0.00100294
0.00103322
0.00106229
0.00108941
0.00111419
0.00113649
0.0011563
0.00117373
0.0011889
0.00120198
0.00121314
0.00125435
0.00112355
0.00103178
0.000973112
0.000941007
0.000928852
0.000930659
0.000941527
0.000957749
0.000976689
0.000996565
0.00101622
0.00103494
0.00105232
0.00106814
0.00108232
0.00109487
0.00110585
0.00111534
0.00136661
0.00121939
0.00110801
0.00102762
0.000973145
0.000939454
0.000921627
0.00091531
0.000916904
0.000923613
0.000933368
0.000944697
0.000956588
0.000968371
0.000979618
0.000990073
0.000999597
0.00100813
0.00101568
0.00146686
0.00130592
0.00117829
0.0010797
0.00100597
0.000952988
0.000916792
0.000893705
0.000880485
0.000874422
0.000873349
0.000875602
0.000879945
0.000885482
0.000891584
0.000897816
0.000903892
0.000909628
0.000914919
0.00155457
0.00138227
0.00124128
0.0011276
0.00103758
0.000967787
0.000914992
0.000876153
0.000848492
0.000829553
0.000817251
0.000809871
0.000806053
0.000804741
0.000805138
0.000806649
0.00080884
0.000811398
0.000814106
0.00162932
0.00144786
0.00129602
0.00116996
0.00106637
0.000982296
0.000915004
0.000861961
0.000820819
0.000789442
0.000765938
0.000748674
0.00073628
0.000727629
0.000721817
0.000718128
0.000715999
0.000714995
0.000714781
0.00169082
0.00150232
0.00134175
0.00120556
0.00109082
0.000994961
0.000915544
0.000850335
0.000797285
0.000754539
0.000720436
0.000693504
0.000672462
0.000656213
0.00064383
0.000634541
0.000627703
0.000622779
0.000619318
0.00173906
0.00154536
0.00137734
0.00123269
0.00110916
0.0010042
0.000915373
0.000840529
0.000777767
0.00072542
0.000682021
0.000646281
0.000617067
0.000593389
0.000574387
0.000559316
0.00054753
0.000538448
0.000531523
0.00177473
0.00157479
0.00139939
0.00124875
0.00111959
0.00100879
0.000913725
0.000832231
0.00076249
0.000702959
0.000652315
0.000609418
0.000573282
0.00054305
0.00051798
0.000497431
0.000480841
0.0004677
0.000457462
0.00178923
0.00157907
0.00140295
0.00125209
0.00112183
0.00100897
0.000911048
0.000826076
0.000752373
0.00068852
0.000633303
0.000585684
0.000544775
0.000509818
0.00048017
0.000455292
0.000434749
0.000418203
0.000405401
0.000372564
0.000422824
0.000497798
0.000586595
0.000682615
0.000782025
0.000882517
0.000982625
0.00108136
0.00117803
0.00127211
0.00136323
0.00145106
0.00153535
0.00161586
0.00169233
0.00176442
0.00183162
0.00189278
0.000361849
0.000412593
0.000486345
0.000573292
0.000667173
0.000764296
0.000862424
0.000960129
0.00105645
0.0011507
0.00124238
0.00133111
0.00141659
0.00149857
0.00157682
0.00165109
0.00172108
0.00178627
0.0018456
0.000361029
0.000410006
0.000480536
0.00056385
0.000654087
0.000747669
0.000842394
0.000936838
0.00103004
0.00112131
0.00121015
0.00129619
0.00137913
0.00145874
0.00153481
0.00160712
0.00167544
0.00173938
0.00179825
0.000367711
0.000413467
0.000479505
0.000558056
0.000643671
0.000732892
0.000823525
0.000914136
0.00100374
0.00109164
0.00117734
0.00126044
0.00134067
0.00141778
0.00149159
0.00156193
0.00162859
0.00169131
0.00174963
0.000379965
0.000421746
0.000482599
0.000555732
0.000636134
0.000720474
0.000806575
0.000892978
0.000978676
0.00106295
0.00114528
0.00122528
0.00130264
0.00137715
0.00144862
0.00151689
0.00158181
0.00164318
0.00170071
0.000396282
0.000433857
0.000489267
0.000556683
0.00063156
0.000710725
0.000792027
0.000873991
0.000955586
0.00103607
0.0011149
0.00119167
0.00126607
0.00133788
0.00140693
0.00147305
0.00153613
0.00159602
0.00165252
0.000415518
0.000448988
0.000499009
0.000560674
0.000629925
0.000703785
0.000780155
0.000857557
0.000934938
0.00101153
0.00108678
0.00116025
0.00123164
0.0013007
0.00136726
0.00143117
0.00149233
0.00155063
0.00160591
0.000436819
0.000466469
0.000511358
0.000567424
0.000631111
0.000699667
0.000771075
0.000843873
0.000916996
0.000989661
0.00106128
0.00113143
0.00119976
0.00126604
0.00133008
0.00139174
0.00145092
0.00150753
0.00156146
0.00045955
0.000485744
0.000525877
0.000576628
0.000634928
0.000698282
0.000764781
0.000832998
0.000901872
0.000970607
0.0010386
0.00110541
0.00117069
0.00123417
0.00129568
0.00135506
0.00141222
0.00146708
0.00151955
0.000483236
0.000506361
0.000542166
0.000587964
0.000641142
0.000699472
0.000761179
0.000824893
0.000889569
0.000954409
0.00101881
0.00108229
0.00114452
0.00120521
0.00126418
0.00132127
0.00137638
0.00142944
0.00148039
0.00050752
0.000527948
0.000559865
0.00060111
0.000649485
0.000703026
0.00076011
0.000819442
0.000880006
0.000941015
0.00100186
0.00106206
0.00112126
0.00117917
0.00123561
0.0012904
0.00134345
0.00139468
0.00144404
0.000532129
0.000550199
0.000578654
0.000615758
0.000659677
0.000708704
0.000761374
0.000816477
0.000873046
0.00093031
0.000987662
0.00104463
0.00110084
0.001156
0.00120991
0.00126241
0.00131338
0.00136275
0.00141048
0.000556849
0.000572865
0.000598251
0.000631617
0.00067144
0.000716249
0.000764738
0.000815796
0.000868509
0.000922136
0.000976081
0.00102987
0.00108314
0.00113558
0.00118699
0.0012372
0.00128609
0.00133359
0.00137964
0.000581507
0.000595734
0.000618409
0.000648419
0.0006845
0.000725398
0.000769958
0.000817172
0.000866188
0.000916301
0.000966935
0.00101762
0.001068
0.00111777
0.0011667
0.00121464
0.00126144
0.00130705
0.00135139
0.000605961
0.000618628
0.000638912
0.000665917
0.000698598
0.00073589
0.00077678
0.000820363
0.000865855
0.000912592
0.000960024
0.0010077
0.00105525
0.00110238
0.00114887
0.00119455
0.00123927
0.00128297
0.00132558
0.000630089
0.000641394
0.000659568
0.000683888
0.000713491
0.000747472
0.000784953
0.000825126
0.000867276
0.000910785
0.000955131
0.000999881
0.00104468
0.00108923
0.00113331
0.00117675
0.0012194
0.00126119
0.00130204
0.000653782
0.000663894
0.000680206
0.000702129
0.00072895
0.000759904
0.000794231
0.000831214
0.000870208
0.000910644
0.000952033
0.00099396
0.00103608
0.00107811
0.00111983
0.00116105
0.00120165
0.00124152
0.0012806
0.00067694
0.000686006
0.00070067
0.000720453
0.000744765
0.000772957
0.000804374
0.000838387
0.000874414
0.000911936
0.000950498
0.000989709
0.00102924
0.00106882
0.00110822
0.00114726
0.00118581
0.00122377
0.00126106
0.00069947
0.000707614
0.000720819
0.000738691
0.000760738
0.000786415
0.000815156
0.000846409
0.000879656
0.000914424
0.000950295
0.000986903
0.00102394
0.00106113
0.00109826
0.00113517
0.0011717
0.00120775
0.00124326
0.000721281
0.000728611
0.000740519
0.000756681
0.000776688
0.000800075
0.000826358
0.000855054
0.000885703
0.000917878
0.000951196
0.000985316
0.00101994
0.00105483
0.00108976
0.00112457
0.00115911
0.00119328
0.001227
0.000742282
0.000748892
0.000759646
0.000774276
0.00079244
0.000813745
0.000837774
0.000864106
0.000892333
0.000922072
0.000952973
0.000984723
0.00101705
0.00104971
0.0010825
0.00111526
0.00114784
0.00118015
0.0012121
0.000762383
0.000768353
0.000778077
0.000791333
0.000807833
0.000827244
0.000849207
0.000873355
0.000899329
0.000926785
0.000955406
0.000984905
0.00101503
0.00104554
0.00107627
0.00110703
0.00113771
0.00116818
0.00119837
0.000781491
0.000786889
0.000795692
0.000807713
0.000822709
0.000840397
0.000860468
0.000882602
0.000906483
0.000931805
0.00095828
0.000985646
0.00101367
0.00104213
0.00107086
0.00109969
0.00112851
0.00115718
0.00118565
0.000799508
0.000804396
0.000812372
0.000823281
0.000836916
0.000853036
0.000871375
0.000891654
0.000913595
0.000936925
0.000961385
0.000986737
0.00101276
0.00103927
0.00106608
0.00109305
0.00112005
0.00114697
0.00117374
0.00081633
0.000820762
0.000827996
0.000837902
0.000850304
0.000864997
0.000881751
0.000900324
0.000920469
0.000941944
0.000964519
0.000987974
0.00101211
0.00103675
0.00106172
0.0010869
0.00111215
0.00113737
0.00116248
0.000831849
0.000835871
0.000842438
0.000851439
0.000862724
0.000876119
0.000891424
0.000908428
0.000926915
0.000946669
0.000967483
0.000989158
0.00101151
0.00103438
0.0010576
0.00108106
0.00110462
0.0011282
0.00115171
0.000845946
0.000849601
0.000855567
0.000863749
0.000874024
0.000886238
0.00090022
0.000915786
0.000932746
0.000950908
0.000970085
0.000990097
0.00101078
0.00103197
0.00105354
0.00107536
0.00109731
0.00111931
0.00114126
0.000858493
0.000861817
0.000867241
0.000874686
0.000884045
0.000895187
0.000907965
0.000922218
0.000937777
0.000954472
0.000972135
0.000990603
0.00100972
0.00102935
0.00104936
0.00106963
0.00109005
0.00111054
0.00113101
0.000869347
0.000872374
0.000877311
0.000884091
0.000892623
0.000902796
0.000914482
0.00092754
0.000941822
0.000957175
0.000973448
0.000990492
0.00100817
0.00102634
0.00104489
0.00106371
0.00108269
0.00110175
0.00112082
0.000878353
0.000881114
0.000885612
0.000891792
0.000899581
0.000908882
0.000919584
0.000931565
0.000944693
0.000958829
0.000973838
0.000989584
0.00100594
0.00102278
0.00103998
0.00105746
0.00107511
0.00109284
0.00111058
0.000885337
0.000887858
0.000891961
0.000897605
0.000904728
0.000913251
0.000923077
0.000934097
0.000946194
0.000959244
0.000973122
0.000987702
0.00100287
0.0010185
0.00103449
0.00105075
0.00106717
0.00108369
0.00110022
0.000890107
0.000892411
0.000896158
0.000901323
0.000907857
0.000915694
0.000924751
0.000934931
0.000946127
0.000958226
0.000971112
0.000984671
0.00099879
0.00101336
0.00102828
0.00104346
0.00105881
0.00107424
0.00108969
0.00089245
0.000894551
0.000897977
0.000902715
0.000908735
0.000915982
0.000924383
0.000933849
0.000944281
0.000955575
0.000967624
0.000980319
0.000993554
0.00100723
0.00102124
0.0010355
0.00104993
0.00106445
0.00107898
0.000892129
0.000894032
0.000897159
0.000901522
0.000907107
0.000913867
0.000921734
0.000930624
0.000940442
0.000951091
0.000962469
0.000974475
0.000987009
0.000999973
0.00101327
0.00102681
0.00104052
0.00105431
0.00106812
0.000888885
0.00089057
0.000893408
0.000897447
0.000902685
0.000909078
0.000916551
0.000925017
0.000934387
0.000944566
0.000955462
0.000966978
0.00097902
0.000991491
0.0010043
0.00101736
0.00103057
0.00104388
0.0010572
0.000882433
0.000883831
0.000886371
0.000890151
0.000895166
0.000901338
0.000908575
0.000916787
0.000925888
0.000935795
0.00094642
0.000957674
0.000969465
0.000981701
0.000994288
0.00100714
0.00102015
0.00103327
0.0010464
0.000872456
0.000873388
0.00087562
0.000879285
0.000884255
0.000890377
0.000897548
0.000905687
0.000914721
0.000924575
0.000935171
0.000946425
0.000958251
0.000970556
0.000983246
0.000996224
0.0010094
0.00102267
0.00103598
0.000858518
0.000858589
0.000860745
0.000864591
0.000869707
0.000875941
0.000883218
0.000891479
0.000900667
0.00091072
0.000921566
0.000933129
0.000945325
0.000958064
0.000971248
0.000984777
0.000998542
0.00101243
0.00102635
0.000839272
0.000838982
0.000841807
0.000845984
0.000851326
0.000857786
0.000865333
0.000873929
0.000883527
0.000894071
0.000905499
0.000917738
0.000930707
0.000944317
0.000958472
0.000973064
0.000987976
0.00100307
0.00101819
0.00198787
0.00200804
0.00202493
0.00203912
0.00205107
0.00206108
0.00206941
0.00207625
0.00208175
0.00208603
0.0020892
0.00209136
0.0020926
0.00209301
0.00209267
0.00209167
0.0020901
0.00208806
0.00208564
0.00208294
0.00208008
0.00207718
0.00207434
0.00207171
0.00206942
0.00206763
0.0020665
0.0020662
0.00206692
0.00206886
0.00207223
0.00207727
0.00208421
0.00209332
0.00210485
0.00211909
0.00213628
0.00215659
0.00218002
0.00192565
0.00194404
0.00196067
0.00197543
0.00198836
0.00199959
0.00200926
0.00201752
0.00202451
0.00203033
0.00203512
0.00203898
0.00204201
0.0020443
0.00204597
0.00204709
0.00204777
0.00204812
0.00204822
0.00204818
0.00204812
0.00204815
0.00204839
0.00204896
0.00205001
0.00205168
0.00205412
0.00205748
0.00206195
0.0020677
0.00207493
0.00208383
0.00209463
0.00210754
0.00212279
0.00214062
0.00216128
0.00218507
0.0022124
0.001872
0.0018882
0.00190334
0.00191726
0.00192992
0.00194132
0.00195152
0.00196058
0.00196858
0.00197561
0.00198177
0.00198713
0.0019918
0.00199587
0.00199943
0.00200257
0.00200538
0.00200797
0.00201043
0.00201286
0.00201538
0.0020181
0.00202112
0.00202457
0.00202859
0.0020333
0.00203884
0.00204536
0.00205302
0.00206198
0.00207242
0.0020845
0.00209842
0.00211438
0.00213258
0.00215323
0.00217659
0.00220288
0.00223236
0.00181995
0.00183504
0.00184925
0.00186255
0.00187491
0.00188632
0.00189681
0.00190641
0.00191519
0.00192319
0.00193048
0.00193715
0.00194327
0.00194891
0.00195416
0.00195911
0.00196384
0.00196845
0.00197303
0.00197767
0.00198248
0.00198756
0.00199302
0.00199897
0.00200553
0.00201283
0.00202099
0.00203014
0.00204043
0.002052
0.002065
0.00207959
0.00209593
0.0021142
0.00213457
0.00215723
0.00218237
0.00221017
0.00224083
0.00176872
0.00178336
0.00179722
0.00181031
0.00182262
0.00183417
0.001845
0.00185512
0.00186458
0.00187343
0.00188173
0.00188954
0.00189692
0.00190394
0.00191069
0.00191723
0.00192364
0.00193001
0.00193643
0.00194298
0.00194975
0.00195685
0.00196437
0.00197242
0.0019811
0.00199052
0.0020008
0.00201206
0.00202443
0.00203802
0.00205297
0.00206943
0.00208753
0.00210741
0.00212923
0.00215314
0.00217929
0.00220785
0.00223897
0.00171876
0.00173333
0.00174719
0.00176035
0.00177284
0.0017847
0.00179594
0.00180661
0.00181674
0.00182639
0.00183559
0.00184441
0.00185291
0.00186114
0.00186918
0.00187709
0.00188494
0.00189282
0.00190079
0.00190894
0.00191736
0.00192612
0.00193533
0.00194507
0.00195544
0.00196654
0.00197847
0.00199134
0.00200525
0.00202032
0.00203667
0.0020544
0.00207364
0.00209452
0.00211716
0.00214169
0.00216824
0.00219694
0.00222792
0.00167068
0.00168537
0.0016994
0.0017128
0.00172561
0.00173786
0.00174958
0.00176082
0.00177161
0.00178199
0.00179202
0.00180174
0.00181121
0.00182049
0.00182962
0.00183869
0.00184775
0.00185687
0.00186612
0.00187558
0.00188531
0.00189541
0.00190594
0.00191699
0.00192865
0.00194101
0.00195415
0.00196817
0.00198316
0.00199922
0.00201644
0.00203494
0.00205481
0.00207615
0.00209908
0.0021237
0.00215013
0.00217846
0.00220882
0.00162494
0.00163982
0.00165411
0.00166782
0.001681
0.00169368
0.00170589
0.00171767
0.00172907
0.00174013
0.00175088
0.00176139
0.00177169
0.00178185
0.0017919
0.00180192
0.00181196
0.00182209
0.00183235
0.00184283
0.00185359
0.00186469
0.00187622
0.00188823
0.00190082
0.00191405
0.00192801