/*--------------------------------*- C++ -*----------------------------------*\
| =========                 |                                                 |
| \\      /  F ield         | OpenFOAM: The Open Source CFD Toolbox           |
|  \\    /   O peration     | Version:  v2012                                 |
|   \\  /    A nd           | Website:  www.openfoam.com                      |
|    \\/     M anipulation  |                                                 |
\*---------------------------------------------------------------------------*/
FoamFile
{
    version     2.0;
    format      ascii;
    class       pointScalarField;
    location    "1";
    object      pEpsilonEq;
}
// * * * * * * * * * * * * * * * * * * * * * * * * * * * * * * * * * * * * * //

dimensions      [0 0 0 0 0 0 0];


internalField   nonuniform List<scalar> 
72837
(
1.23773e-05
1.30047e-05
4.5104e-05
0.000111233
0.000116056
1.2575e-05
9.08412e-06
1.15287e-05
7.30397e-06
4.5857e-05
4.19977e-05
8.04047e-05
0.000184365
2.64243e-05
3.50945e-05
2.39815e-05
2.5115e-05
1.04517e-05
1.14875e-05
0.00011047
6.88712e-05
1.70567e-05
0.000149035
7.22963e-05
5.13583e-05
0.00012533
2.36911e-05
2.63678e-05
0.000153875
4.83905e-06
4.60471e-05
4.98745e-05
7.23085e-05
6.73335e-05
4.63957e-05
1.90015e-05
6.80643e-05
1.15742e-05
3.75801e-05
1.0548e-05
2.22727e-06
1.29675e-05
1.23826e-05
3.46009e-05
1.56363e-06
0.000128726
0.000156798
9.90598e-05
2.62818e-05
7.24851e-07
1.23746e-05
1.23744e-05
1.23923e-05
1.24129e-05
1.24529e-05
1.24924e-05
1.254e-05
1.25885e-05
1.26405e-05
1.26902e-05
1.27406e-05
1.27861e-05
1.28252e-05
1.28632e-05
1.28972e-05
1.29184e-05
1.29406e-05
1.29574e-05
1.29656e-05
1.29817e-05
1.29439e-05
1.29017e-05
1.28628e-05
1.28304e-05
1.28047e-05
1.27845e-05
1.27652e-05
1.27471e-05
1.27336e-05
1.27217e-05
1.27106e-05
1.27025e-05
1.26934e-05
1.2682e-05
1.26747e-05
1.2667e-05
1.26592e-05
1.26489e-05
1.26367e-05
1.26263e-05
1.26127e-05
1.25948e-05
1.2574e-05
1.2549e-05
1.2522e-05
1.24914e-05
1.24571e-05
1.24191e-05
1.23756e-05
1.23257e-05
1.22707e-05
1.2213e-05
1.21482e-05
1.20787e-05
1.20037e-05
1.1921e-05
1.18334e-05
1.17224e-05
1.12063e-05
1.09197e-05
1.06058e-05
1.02539e-05
9.88544e-06
9.52418e-06
9.19696e-06
8.94726e-06
8.83813e-06
8.91174e-06
9.21903e-06
9.77284e-06
1.05596e-05
1.15245e-05
1.26061e-05
1.3738e-05
1.48193e-05
1.57731e-05
1.64717e-05
4.63949e-05
4.6248e-05
4.67805e-05
4.74961e-05
4.83641e-05
4.93636e-05
5.03724e-05
5.14474e-05
5.26568e-05
5.34869e-05
5.46245e-05
5.55617e-05
5.59559e-05
5.60578e-05
5.5858e-05
5.53153e-05
5.44372e-05
5.29974e-05
5.14485e-05
2.69179e-05
2.9109e-05
3.11445e-05
3.31653e-05
3.51595e-05
3.71122e-05
3.9038e-05
4.09432e-05
4.28236e-05
4.4691e-05
4.64532e-05
4.82902e-05
5.02317e-05
5.20646e-05
5.38838e-05
5.5752e-05
5.76379e-05
5.95339e-05
6.14374e-05
6.33467e-05
6.52596e-05
6.71714e-05
6.90728e-05
7.09369e-05
7.27434e-05
7.43888e-05
7.62615e-05
7.79745e-05
7.96032e-05
8.12255e-05
8.27916e-05
8.42791e-05
8.57514e-05
8.72185e-05
8.90768e-05
9.15395e-05
9.5224e-05
0.000101927
0.000110355
6.87045e-05
5.14314e-05
4.18839e-05
3.52159e-05
2.9903e-05
2.55992e-05
2.20876e-05
1.93654e-05
1.75475e-05
1.67823e-05
1.71641e-05
1.86682e-05
2.11862e-05
2.46344e-05
2.90573e-05
3.4775e-05
4.28334e-05
5.62602e-05
7.9441e-05
0.000105507
9.34612e-05
9.12934e-05
8.93254e-05
8.73786e-05
8.56943e-05
8.38838e-05
8.21352e-05
8.05165e-05
7.89425e-05
7.71866e-05
7.53623e-05
7.34938e-05
7.15815e-05
6.96927e-05
6.79468e-05
6.6163e-05
6.43385e-05
6.2422e-05
6.04895e-05
5.85572e-05
5.66322e-05
5.47164e-05
5.2809e-05
5.09081e-05
4.90106e-05
4.71066e-05
4.52462e-05
4.34638e-05
4.16279e-05
3.98009e-05
3.80164e-05
3.622e-05
3.43919e-05
3.25625e-05
3.07434e-05
2.89564e-05
2.71312e-05
2.55326e-05
2.24022e-05
2.12199e-05
2.00198e-05
1.88484e-05
1.76715e-05
1.64581e-05
1.5288e-05
1.41638e-05
1.29928e-05
1.18118e-05
1.06415e-05
9.46498e-06
8.28467e-06
7.12455e-06
6.0267e-06
4.97867e-06
3.95158e-06
2.99248e-06
2.22183e-06
1.79535e-06
1.95492e-06
2.56636e-06
3.3684e-06
4.23247e-06
5.11334e-06
5.98864e-06
6.84967e-06
7.65878e-06
8.48566e-06
9.25141e-06
9.97918e-06
1.06786e-05
1.13359e-05
1.19327e-05
1.24833e-05
1.29701e-05
1.33784e-05
1.37e-05
1.39629e-05
1.4124e-05
1.41508e-05
1.40672e-05
1.38801e-05
1.35612e-05
1.311e-05
1.25368e-05
1.19163e-05
1.22196e-05
1.17656e-05
1.146e-05
8.30793e-06
8.62956e-06
8.94289e-06
7.45201e-06
7.38144e-06
7.43448e-06
7.60506e-06
7.78794e-06
7.99745e-06
8.18095e-06
8.35531e-06
8.51089e-06
8.66085e-06
8.80403e-06
8.90558e-06
8.98477e-06
9.03641e-06
9.11036e-06
9.21114e-06
9.27497e-06
9.3153e-06
9.36828e-06
9.43866e-06
9.47825e-06
9.49966e-06
9.53084e-06
9.57664e-06
9.60927e-06
9.65238e-06
9.69248e-06
9.73683e-06
9.77741e-06
9.80604e-06
9.84117e-06
9.87784e-06
9.91454e-06
9.95305e-06
9.99124e-06
1.0029e-05
1.00664e-05
1.0106e-05
1.01468e-05
1.01887e-05
1.02331e-05
1.02791e-05
1.03269e-05
1.03759e-05
1.04241e-05
1.04659e-05
1.04885e-05
1.05743e-05
1.06334e-05
1.06772e-05
1.07184e-05
1.07617e-05
1.081e-05
1.08617e-05
1.09161e-05
1.0975e-05
1.10378e-05
1.11028e-05
1.11644e-05
1.1227e-05
1.12918e-05
1.13607e-05
1.14289e-05
1.14983e-05
1.15657e-05
1.16314e-05
1.16957e-05
1.17592e-05
1.18208e-05
1.18805e-05
1.19361e-05
1.199e-05
1.20425e-05
1.20921e-05
1.21386e-05
1.21817e-05
1.22212e-05
1.22573e-05
1.22889e-05
1.23157e-05
1.23379e-05
1.23551e-05
1.2368e-05
1.23762e-05
1.23797e-05
1.23786e-05
1.08674e-05
1.1148e-05
1.14384e-05
1.17161e-05
1.19499e-05
1.21353e-05
1.22692e-05
1.23526e-05
1.23831e-05
1.23727e-05
1.23218e-05
1.22443e-05
1.21424e-05
1.20299e-05
1.19127e-05
1.17995e-05
1.16979e-05
1.16166e-05
1.15684e-05
2.20124e-05
2.15793e-05
2.22097e-05
2.36286e-05
2.524e-05
2.68321e-05
2.83554e-05
2.96295e-05
3.04176e-05
3.09464e-05
3.10465e-05
3.07804e-05
3.00163e-05
2.89764e-05
2.77453e-05
2.64441e-05
2.53414e-05
2.46214e-05
2.4129e-05
4.36062e-05
4.24196e-05
4.07666e-05
3.89361e-05
3.72788e-05
3.58367e-05
3.45817e-05
3.36074e-05
3.28894e-05
3.23319e-05
3.19796e-05
3.17451e-05
3.16551e-05
3.16536e-05
3.16624e-05
3.17455e-05
3.18624e-05
3.19726e-05
3.20764e-05
3.21396e-05
3.22033e-05
3.221e-05
3.21415e-05
3.2003e-05
3.1786e-05
3.14884e-05
3.11199e-05
3.0681e-05
3.01401e-05
2.9524e-05
2.8841e-05
2.81074e-05
2.73107e-05
2.64612e-05
2.55291e-05
2.45729e-05
2.36256e-05
2.27226e-05
2.1907e-05
2.11768e-05
2.06222e-05
2.03026e-05
2.02513e-05
2.05015e-05
2.10502e-05
2.19541e-05
2.3191e-05
4.02592e-05
4.13235e-05
4.34636e-05
0.000140818
0.000109691
9.04891e-05
6.36215e-05
5.32566e-05
4.59784e-05
4.06644e-05
3.64069e-05
3.28433e-05
2.96226e-05
2.65695e-05
2.38657e-05
2.13086e-05
1.88841e-05
1.65467e-05
1.43564e-05
1.23561e-05
1.04413e-05
8.70022e-06
7.17415e-06
5.82364e-06
4.94154e-06
4.59242e-06
4.89226e-06
5.91381e-06
7.22817e-06
8.59817e-06
1.00621e-05
1.17212e-05
1.34312e-05
1.50138e-05
1.66613e-05
1.82613e-05
1.99348e-05
2.16997e-05
2.34027e-05
2.50314e-05
2.67232e-05
2.84932e-05
3.02003e-05
3.18369e-05
3.33892e-05
3.48559e-05
3.63265e-05
3.77729e-05
3.91933e-05
4.05613e-05
4.18169e-05
4.29833e-05
4.40227e-05
3.25051e-05
3.05411e-05
2.80211e-05
3.48186e-05
3.41149e-05
3.28113e-05
3.13528e-05
2.99512e-05
2.85e-05
2.71628e-05
2.58861e-05
2.46706e-05
2.35575e-05
2.25371e-05
2.15587e-05
2.06526e-05
1.97759e-05
1.89942e-05
1.82406e-05
1.7503e-05
1.68133e-05
1.61667e-05
1.55713e-05
1.50029e-05
1.44669e-05
1.39867e-05
1.3524e-05
1.31078e-05
1.27268e-05
1.23785e-05
1.20713e-05
1.17988e-05
1.1561e-05
1.13585e-05
1.11901e-05
1.10526e-05
1.09478e-05
1.08703e-05
1.08196e-05
1.07948e-05
1.07926e-05
1.08099e-05
1.08443e-05
1.08918e-05
1.0951e-05
1.1019e-05
1.10926e-05
1.11687e-05
1.1244e-05
1.1312e-05
1.25689e-05
1.2577e-05
1.25744e-05
1.26033e-05
1.27418e-05
1.30101e-05
1.34417e-05
1.40621e-05
1.49043e-05
1.59953e-05
1.73429e-05
1.89475e-05
2.08097e-05
2.29922e-05
2.54579e-05
2.8105e-05
3.09875e-05
3.40987e-05
3.78231e-05
4.83429e-05
4.94745e-05
5.1271e-05
5.31687e-05
5.51274e-05
5.72207e-05
5.96376e-05
6.16505e-05
6.36747e-05
6.6105e-05
6.81651e-05
6.98861e-05
7.13205e-05
7.25454e-05
7.34104e-05
7.39453e-05
7.4366e-05
7.47826e-05
7.50067e-05
7.59785e-05
7.39911e-05
7.40418e-05
7.40898e-05
7.41692e-05
7.40822e-05
7.38488e-05
7.3689e-05
7.34479e-05
7.32373e-05
7.30342e-05
7.2674e-05
7.21719e-05
7.15383e-05
7.08525e-05
7.0167e-05
6.94643e-05
6.87962e-05
6.88772e-05
2.30221e-05
2.08598e-05
1.88792e-05
1.7095e-05
1.55144e-05
1.41696e-05
1.30027e-05
1.20137e-05
1.12094e-05
1.05672e-05
1.00656e-05
9.70126e-06
9.46571e-06
9.3065e-06
9.2053e-06
9.14674e-06
9.11713e-06
9.10583e-06
9.0889e-06
1.21935e-05
1.32558e-05
1.42907e-05
1.54691e-05
1.67853e-05
1.81834e-05
1.96815e-05
2.13007e-05
2.30173e-05
2.48539e-05
2.67667e-05
2.87437e-05
3.07719e-05
3.28262e-05
3.48699e-05
3.69334e-05
3.90008e-05
4.08792e-05
4.32996e-05
4.62157e-05
5.09788e-05
5.40924e-05
5.66995e-05
6.00656e-05
6.35064e-05
6.80069e-05
7.37641e-05
7.99945e-05
8.6122e-05
9.28927e-05
9.98172e-05
0.000106285
0.000112998
0.000120259
0.000126975
0.000133077
0.000139414
0.00014479
0.000177781
0.000175494
0.000173371
0.00017096
0.000168311
0.000165487
0.000162585
0.000159544
0.000156147
0.00015276
0.000149156
0.000145308
0.000141459
0.000137264
0.000132748
0.000128021
0.000123457
0.00011889
0.000114945
3.2213e-05
2.95628e-05
2.77358e-05
2.59758e-05
2.42946e-05
2.25993e-05
2.09724e-05
1.9415e-05
1.79035e-05
1.65087e-05
1.52025e-05
1.39812e-05
1.28555e-05
1.18253e-05
1.08977e-05
1.00602e-05
9.3054e-06
8.62892e-06
8.05697e-06
9.27219e-05
7.96281e-05
7.30257e-05
6.35704e-05
5.97832e-05
5.62621e-05
5.2974e-05
5.03386e-05
4.77898e-05
4.55158e-05
4.3416e-05
4.15369e-05
3.9716e-05
3.80692e-05
3.65857e-05
3.51729e-05
3.37162e-05
3.24733e-05
3.13657e-05
3.03065e-05
2.92803e-05
2.83098e-05
2.74174e-05
2.66012e-05
2.58299e-05
2.51198e-05
2.44448e-05
2.37976e-05
2.31614e-05
2.25944e-05
2.20336e-05
2.15166e-05
2.10681e-05
2.06425e-05
2.02419e-05
1.98509e-05
1.94979e-05
1.91711e-05
1.88663e-05
1.85936e-05
1.83413e-05
1.81082e-05
1.79013e-05
1.77174e-05
1.75559e-05
1.74168e-05
1.73007e-05
1.72095e-05
1.71473e-05
1.71104e-05
0.000122714
9.2915e-05
7.7279e-05
5.01732e-05
4.81332e-05
4.5847e-05
4.37629e-05
4.18767e-05
4.01243e-05
3.84397e-05
3.69112e-05
3.55497e-05
3.42674e-05
3.31736e-05
3.22338e-05
3.13111e-05
3.0496e-05
2.97966e-05
2.92367e-05
2.87881e-05
2.84174e-05
2.80979e-05
2.79166e-05
2.78622e-05
2.78746e-05
2.79211e-05
2.80378e-05
2.83286e-05
2.87074e-05
2.91513e-05
2.96038e-05
3.01936e-05
3.09053e-05
3.16618e-05
3.24982e-05
3.34617e-05
3.45235e-05
3.56002e-05
3.68273e-05
3.82198e-05
3.97244e-05
4.13954e-05
4.31612e-05
4.51062e-05
4.72058e-05
4.95838e-05
5.2292e-05
5.54356e-05
5.92892e-05
6.50372e-05
0.000146638
0.000144294
0.00015019
0.000156489
0.000161342
0.000163953
0.000165562
0.000166783
0.000169199
0.000171796
0.000173544
0.000174693
0.000175759
0.000176884
0.00017752
0.000177207
0.00017644
0.000175522
0.000182311
0.00010466
9.97914e-05
9.49108e-05
9.01194e-05
8.52326e-05
8.04729e-05
7.58175e-05
7.10984e-05
6.66785e-05
6.23454e-05
5.81055e-05
5.39802e-05
5.00082e-05
4.61479e-05
4.24289e-05
3.89125e-05
3.55288e-05
3.23994e-05
2.99008e-05
7.01793e-05
7.25687e-05
7.45166e-05
7.55795e-05
7.55791e-05
7.54335e-05
7.53769e-05
7.57083e-05
7.61204e-05
7.6385e-05
7.64477e-05
7.65618e-05
7.66744e-05
7.67411e-05
7.6763e-05
7.67783e-05
7.67588e-05
7.677e-05
7.9228e-05
6.64296e-05
6.37779e-05
6.27812e-05
6.15953e-05
6.02449e-05
5.89026e-05
5.75881e-05
5.60348e-05
5.44514e-05
5.2847e-05
5.11038e-05
4.93265e-05
4.75374e-05
4.56705e-05
4.37555e-05
4.18945e-05
4.00478e-05
3.81152e-05
3.66605e-05
4.77499e-05
4.46525e-05
4.13013e-05
3.74865e-05
3.35443e-05
2.95791e-05
2.53864e-05
2.1099e-05
1.6953e-05
1.27985e-05
8.61411e-06
4.54718e-06
1.2322e-06
3.7278e-06
7.49886e-06
1.12181e-05
1.49631e-05
1.86585e-05
2.23185e-05
1.69725e-05
1.67104e-05
1.60542e-05
1.49087e-05
1.33254e-05
1.13551e-05
8.98222e-06
6.40722e-06
4.08912e-06
3.72018e-06
6.21561e-06
9.7847e-06
1.37124e-05
1.77072e-05
2.18172e-05
2.57688e-05
2.96322e-05
3.3334e-05
3.70324e-05
0.000117781
0.000111864
0.000103167
9.21554e-05
8.59484e-05
8.20418e-05
7.9361e-05
7.73289e-05
7.56401e-05
7.41312e-05
7.27204e-05
7.1354e-05
7.00013e-05
6.86314e-05
6.72211e-05
6.57546e-05
6.41691e-05
6.25438e-05
6.09556e-05
5.93687e-05
5.77569e-05
5.61137e-05
5.44428e-05
5.27487e-05
5.10359e-05
4.93079e-05
4.7568e-05
4.58186e-05
4.40607e-05
4.22929e-05
4.05166e-05
3.86355e-05
3.68343e-05
3.5088e-05
3.33559e-05
3.12065e-05
2.93875e-05
2.80304e-05
2.57233e-05
2.25333e-05
2.27883e-05
2.40472e-05
2.54023e-05
2.73897e-05
2.92689e-05
3.08931e-05
3.22292e-05
3.32635e-05
3.3777e-05
3.37068e-05
3.32889e-05
3.2573e-05
3.12168e-05
2.96814e-05
2.80361e-05
2.68298e-05
2.58474e-05
2.6253e-05
2.77889e-05
3.07597e-05
3.27609e-05
3.42072e-05
3.60848e-05
3.7905e-05
3.9697e-05
4.14753e-05
4.32715e-05
4.4961e-05
4.69443e-05
4.87967e-05
5.05547e-05
5.22861e-05
5.40016e-05
5.5701e-05
5.73809e-05
5.9037e-05
6.06643e-05
6.22574e-05
6.38108e-05
6.53203e-05
6.67908e-05
6.82528e-05
6.95677e-05
7.12396e-05
7.26673e-05
7.3911e-05
7.50926e-05
7.62508e-05
7.74373e-05
7.87415e-05
8.00897e-05
8.23206e-05
8.48667e-05
9.06198e-05
9.4306e-05
0.000107745
0.00013645
9.77798e-05
8.16343e-05
6.82536e-05
5.7187e-05
4.67749e-05
3.71759e-05
2.7959e-05
1.9464e-05
1.19124e-05
8.52574e-06
1.25682e-05
2.01659e-05
2.89659e-05
3.81812e-05
4.79437e-05
5.80591e-05
6.8865e-05
8.27804e-05
0.000104182
0.00010493
0.000111047
0.000117987
0.000109316
0.000108406
0.0001094
0.000114474
2.39486e-05
2.38673e-05
2.38884e-05
2.39527e-05
2.40193e-05
2.40826e-05
2.40275e-05
2.52527e-05
2.52507e-05
2.53163e-05
2.5407e-05
2.55622e-05
2.58807e-05
2.61776e-05
0.000115898
0.000116249
0.000115996
0.000115866
0.000116536
0.000119399
0.000129928
2.32128e-05
2.24592e-05
2.06969e-05
1.92915e-05
1.82927e-05
1.70347e-05
1.54821e-05
1.41965e-05
1.32447e-05
1.1699e-05
1.02607e-05
9.40131e-06
8.49674e-06
7.33918e-06
5.92593e-06
4.85306e-06
3.96302e-06
2.74944e-06
2.03924e-06
1.68763e-06
1.94932e-06
2.6858e-06
3.59981e-06
4.56834e-06
5.54601e-06
6.50692e-06
7.67624e-06
8.5895e-06
9.52389e-06
1.04351e-05
1.11281e-05
1.21314e-05
1.28458e-05
1.33892e-05
1.40253e-05
1.45837e-05
1.5052e-05
1.55207e-05
1.54938e-05
1.57103e-05
1.53065e-05
1.48274e-05
1.40301e-05
1.29414e-05
1.14746e-05
9.3475e-06
7.31446e-06
5.6926e-06
8.14707e-06
1.03593e-05
1.20032e-05
1.40204e-05
1.64031e-05
1.8085e-05
2.01756e-05
2.23376e-05
2.463e-05
2.69653e-05
2.87229e-05
3.11726e-05
3.39628e-05
3.61625e-05
3.78682e-05
4.12401e-05
4.41399e-05
4.54327e-05
4.48971e-05
4.57171e-05
4.40294e-05
4.25507e-05
4.11918e-05
3.97713e-05
3.85925e-05
3.74012e-05
3.65033e-05
3.59312e-05
3.55998e-05
3.53e-05
3.51052e-05
3.5104e-05
3.50254e-05
3.49977e-05
3.50794e-05
3.51899e-05
3.5238e-05
3.53547e-05
3.53751e-05
3.52637e-05
3.50756e-05
3.49092e-05
3.47161e-05
3.44605e-05
3.41162e-05
3.36739e-05
3.31377e-05
3.25075e-05
3.17697e-05
3.07754e-05
2.98537e-05
2.89815e-05
2.80374e-05
2.70282e-05
2.61614e-05
2.5038e-05
2.39618e-05
2.29989e-05
2.21876e-05
2.16531e-05
2.15876e-05
2.18308e-05
2.23558e-05
2.33664e-05
2.48259e-05
1.1081e-05
1.05355e-05
9.5709e-06
8.11717e-06
6.22614e-06
4.37945e-06
3.91722e-06
4.33018e-05
4.3153e-05
4.29926e-05
4.25113e-05
4.17077e-05
4.1009e-05
4.14281e-05
2.39477e-05
1.89903e-05
1.52404e-05
1.0895e-05
7.30944e-06
3.8697e-06
1.80894e-06
4.86563e-06
9.17649e-06
1.32318e-05
1.68146e-05
2.09705e-05
2.55729e-05
2.90329e-05
3.24655e-05
3.70666e-05
4.03028e-05
4.30007e-05
4.68618e-05
4.90428e-05
4.69141e-05
4.50347e-05
4.30301e-05
4.1214e-05
3.93832e-05
3.81019e-05
3.67607e-05
3.54581e-05
3.45629e-05
3.35817e-05
3.27351e-05
3.2114e-05
3.13368e-05
3.08921e-05
3.05918e-05
3.05184e-05
3.01388e-05
2.99889e-05
3.00476e-05
3.00913e-05
3.02064e-05
3.03485e-05
3.06996e-05
3.08071e-05
3.11621e-05
3.16836e-05
3.22943e-05
3.28687e-05
3.35532e-05
3.42619e-05
3.52652e-05
3.66831e-05
3.73377e-05
3.81116e-05
3.97848e-05
4.10756e-05
4.25233e-05
4.3928e-05
4.51796e-05
4.72006e-05
4.9692e-05
5.19837e-05
5.47417e-05
5.8052e-05
6.16157e-05
6.49664e-05
7.34852e-05
7.2657e-05
7.26116e-05
7.27186e-05
7.23679e-05
7.21457e-05
7.15475e-05
6.9175e-05
6.82238e-05
6.69727e-05
6.48777e-05
6.30903e-05
6.23608e-05
6.08301e-05
5.88729e-05
5.77412e-05
5.56977e-05
5.376e-05
5.00378e-05
5.11508e-05
5.10825e-05
5.10534e-05
5.09606e-05
5.08583e-05
5.06785e-05
5.02592e-05
7.30193e-05
7.36043e-05
7.43318e-05
7.38499e-05
7.33432e-05
7.19394e-05
7.00431e-05
7.07034e-05
7.22982e-05
7.17814e-05
7.16388e-05
7.1211e-05
6.99484e-05
7.03043e-05
7.00337e-05
6.88722e-05
6.89482e-05
6.80826e-05
6.81849e-05
6.80962e-05
6.74275e-05
6.74889e-05
6.74613e-05
6.70264e-05
6.74178e-05
6.77594e-05
5.41551e-05
4.40787e-05
3.73167e-05
3.38197e-05
2.96664e-05
2.58996e-05
2.33242e-05
2.13286e-05
1.93476e-05
1.73651e-05
1.56134e-05
1.36823e-05
1.24258e-05
1.06221e-05
9.11998e-06
8.17755e-06
6.82003e-06
5.68328e-06
5.35137e-06
5.52818e-06
5.90643e-06
6.58239e-06
7.66941e-06
8.72163e-06
1.02757e-05
1.14709e-05
1.29161e-05
1.4391e-05
1.58095e-05
1.76413e-05
1.89917e-05
2.06674e-05
2.23315e-05
2.39324e-05
2.54181e-05
2.70213e-05
2.86317e-05
3.04613e-05
3.21416e-05
3.37724e-05
3.53359e-05
3.70368e-05
3.85637e-05
4.00355e-05
4.16624e-05
4.32456e-05
4.49275e-05
4.69596e-05
4.63619e-05
4.68281e-05
4.75825e-05
4.811e-05
4.92491e-05
5.00343e-05
5.08128e-05
5.2339e-05
5.35906e-05
5.42549e-05
5.47007e-05
5.50608e-05
5.59417e-05
5.61435e-05
5.52927e-05
5.49196e-05
5.36197e-05
5.07477e-05
7.64631e-05
7.76268e-05
7.77582e-05
7.79358e-05
7.82281e-05
7.78344e-05
7.44775e-05
4.51885e-05
4.52901e-05
4.53273e-05
4.54143e-05
4.55007e-05
4.56517e-05
4.59674e-05
4.35427e-05
3.90973e-05
3.44303e-05
2.96375e-05
2.50431e-05
2.0029e-05
1.55131e-05
1.07969e-05
6.69788e-06
4.06619e-06
4.75779e-06
7.43454e-06
1.037e-05
1.29883e-05
1.5215e-05
1.70028e-05
1.82751e-05
1.9022e-05
1.92249e-05
1.89919e-05
1.91683e-05
1.92034e-05
1.92702e-05
1.93658e-05
1.94897e-05
1.96419e-05
1.98234e-05
2.00391e-05
2.02514e-05
2.04308e-05
2.0739e-05
2.11178e-05
2.13809e-05
2.18751e-05
2.21887e-05
2.25379e-05
2.30531e-05
2.35009e-05
2.42006e-05
2.4735e-05
2.53361e-05
2.58479e-05
2.64313e-05
2.72823e-05
2.79642e-05
2.8911e-05
2.96318e-05
3.07394e-05
3.17371e-05
3.24535e-05
3.35471e-05
3.48936e-05
3.58749e-05
3.72712e-05
3.87067e-05
4.04241e-05
4.16667e-05
4.3816e-05
4.49364e-05
4.69049e-05
4.94071e-05
5.12022e-05
5.37395e-05
5.63957e-05
6.03198e-05
6.15175e-05
6.86045e-05
7.02082e-05
7.09117e-05
7.09111e-05
7.01605e-05
7.06453e-05
7.02374e-05
7.07412e-05
7.14267e-05
7.02294e-05
7.05586e-05
7.01986e-05
7.01648e-05
6.96728e-05
6.99362e-05
6.97763e-05
6.91488e-05
6.86527e-05
6.69296e-05
1.71657e-05
1.72549e-05
1.74207e-05
1.76342e-05
1.78984e-05
1.82262e-05
1.86449e-05
6.69012e-05
6.69545e-05
6.72478e-05
6.7136e-05
6.69541e-05
6.59682e-05
6.49561e-05
1.88139e-05
1.76414e-05
1.64315e-05
1.5122e-05
1.38147e-05
1.24206e-05
1.12668e-05
1.02141e-05
9.51157e-06
9.04869e-06
8.86426e-06
8.92875e-06
9.17054e-06
9.49073e-06
9.85669e-06
1.02633e-05
1.06289e-05
1.09863e-05
1.12748e-05
1.13908e-05
1.13103e-05
1.12239e-05
1.11382e-05
1.10573e-05
1.09843e-05
1.09222e-05
1.0873e-05
1.08302e-05
1.08267e-05
1.0832e-05
1.08746e-05
1.09451e-05
1.10219e-05
1.11539e-05
1.1321e-05
1.15322e-05
1.17632e-05
1.20355e-05
1.23721e-05
1.27266e-05
1.31341e-05
1.35967e-05
1.40981e-05
1.46085e-05
1.51925e-05
1.57648e-05
1.64496e-05
1.72546e-05
1.80366e-05
1.87746e-05
1.96606e-05
2.06213e-05
2.15055e-05
2.25881e-05
2.37163e-05
2.48402e-05
2.61095e-05
2.71165e-05
2.85656e-05
3.01822e-05
3.13481e-05
3.30859e-05
3.45907e-05
3.52324e-05
3.60879e-05
3.59326e-05
4.01518e-05
4.27052e-05
4.43505e-05
4.61658e-05
4.86831e-05
5.086e-05
5.20304e-05
5.37491e-05
5.5814e-05
5.71621e-05
5.82781e-05
6.00504e-05
6.09929e-05
6.21388e-05
6.33929e-05
6.46307e-05
6.56628e-05
6.65215e-05
6.76433e-05
1.14893e-05
1.14913e-05
1.14967e-05
1.15051e-05
1.15168e-05
1.15308e-05
1.15479e-05
3.38508e-05
3.38075e-05
3.34856e-05
3.30333e-05
3.23843e-05
3.19198e-05
3.26187e-05
1.16417e-05
1.1702e-05
1.18e-05
1.19238e-05
1.20683e-05
1.22111e-05
1.23632e-05
1.24916e-05
1.2607e-05
1.26797e-05
1.27138e-05
1.26953e-05
1.26196e-05
1.24802e-05
1.22742e-05
1.20007e-05
1.16524e-05
1.12209e-05
1.07575e-05
1.0451e-05
1.03294e-05
1.03281e-05
1.03223e-05
1.03144e-05
1.03057e-05
1.0297e-05
1.02884e-05
1.02901e-05
1.02748e-05
1.02864e-05
1.02832e-05
1.02818e-05
1.03052e-05
1.03227e-05
1.03492e-05
1.03436e-05
1.03999e-05
1.0393e-05
1.04556e-05
1.04758e-05
1.052e-05
1.05439e-05
1.06316e-05
1.06658e-05
1.0695e-05
1.06803e-05
1.07806e-05
1.07776e-05
1.08405e-05
1.0705e-05
1.07485e-05
1.08462e-05
1.06551e-05
1.07139e-05
1.04656e-05
1.05143e-05
1.00677e-05
1.00703e-05
9.47267e-06
9.11038e-06
8.76134e-06
7.47619e-06
6.88628e-06
5.45645e-06
4.23582e-06
3.27273e-06
3.38205e-06
5.03126e-06
6.49456e-06
7.98494e-06
9.33972e-06
1.08536e-05
1.25255e-05
1.40368e-05
1.58832e-05
1.77657e-05
1.96709e-05
2.16764e-05
2.35072e-05
2.56897e-05
2.78428e-05
2.97114e-05
3.21011e-05
3.48564e-05
3.64407e-05
1.03858e-05
1.04381e-05
1.04424e-05
1.04438e-05
1.04473e-05
1.04542e-05
1.04844e-05
7.15295e-06
6.62475e-06
5.83539e-06
4.69522e-06
3.26378e-06
1.82862e-06
1.50516e-06
1.29397e-05
1.28903e-05
1.28627e-05
1.28409e-05
1.28033e-05
1.27729e-05
1.27571e-05
1.27431e-05
1.27337e-05
1.27199e-05
1.27082e-05
1.27008e-05
1.27035e-05
1.27117e-05
1.26965e-05
1.26926e-05
1.26901e-05
1.26827e-05
1.26806e-05
1.26621e-05
1.2655e-05
1.26421e-05
1.26257e-05
1.26107e-05
1.25927e-05
1.25754e-05
1.25504e-05
1.25114e-05
1.24915e-05
1.24417e-05
1.23845e-05
1.23323e-05
1.22754e-05
1.22187e-05
1.21265e-05
1.20497e-05
1.19723e-05
1.18569e-05
1.17638e-05
1.05336e-05
1.05362e-05
1.06077e-05
1.06901e-05
1.0775e-05
1.08268e-05
1.08998e-05
1.0979e-05
1.10583e-05
1.1098e-05
1.11688e-05
1.12397e-05
1.13013e-05
1.13892e-05
1.14478e-05
1.14919e-05
1.15352e-05
1.16004e-05
1.16623e-05
1.17214e-05
1.1776e-05
1.18325e-05
1.1891e-05
1.19423e-05
1.19993e-05
1.20498e-05
1.20975e-05
1.21435e-05
1.21835e-05
1.2222e-05
1.22592e-05
1.22902e-05
1.23181e-05
1.23437e-05
1.23612e-05
1.23762e-05
1.23819e-05
1.23848e-05
1.23856e-05
1.23824e-05
1.23904e-05
1.24059e-05
1.24212e-05
1.24631e-05
1.24885e-05
1.25363e-05
1.2587e-05
1.26266e-05
1.26719e-05
1.27212e-05
1.2762e-05
1.27917e-05
1.28388e-05
1.28665e-05
1.28859e-05
1.29111e-05
1.2925e-05
1.29262e-05
1.30119e-05
1.30083e-05
1.3005e-05
1.3001e-05
1.29971e-05
1.2992e-05
1.29815e-05
1.23773e-05
1.23786e-05
1.23798e-05
1.23812e-05
1.23823e-05
1.23828e-05
1.23824e-05
4.52396e-05
4.09915e-05
3.58932e-05
3.26441e-05
3.18068e-05
2.8175e-05
2.41931e-05
2.15325e-05
1.90974e-05
1.68886e-05
1.46759e-05
1.28134e-05
1.10702e-05
9.47143e-06
8.03317e-06
6.82356e-06
5.55166e-06
4.54301e-06
3.63504e-06
2.79639e-06
2.19807e-06
1.77477e-06
1.31903e-06
1.24589e-06
2.87389e-06
4.03246e-05
3.95119e-05
3.96233e-05
3.96413e-05
3.85891e-05
3.67906e-05
3.19541e-05
1.23798e-05
1.177e-05
1.07836e-05
9.22584e-06
7.00192e-06
4.2291e-06
2.13752e-06
7.68976e-05
8.23153e-05
0.000103096
0.000130179
0.00013318
0.000125505
0.000118197
0.000113663
0.000106879
9.93651e-05
9.36248e-05
8.59124e-05
7.73967e-05
7.04242e-05
6.3314e-05
5.73883e-05
5.50592e-05
5.25641e-05
4.92289e-05
4.53704e-05
4.04865e-05
3.72798e-05
0.000153702
0.00014874
0.000136817
0.00013976
0.000143189
0.00014487
0.000140246
8.00406e-05
9.40418e-05
0.000122199
0.000161448
0.000166409
0.000166025
0.000166105
0.000165246
0.00016392
0.00016323
0.00016243
0.000161744
0.000160844
0.000158319
0.00015709
0.000154497
0.000150716
0.000147017
0.000143115
0.000137931
0.00013218
0.000129309
0.000183058
0.000181823
0.000181378
0.000181365
0.000180513
0.000178582
0.000173188
7.10555e-05
7.4821e-05
8.31217e-05
0.000103379
0.000109436
0.000113555
0.000117664
0.000122236
0.000126182
0.000129583
0.000133114
0.000137003
0.000140206
0.000143234
0.000146336
0.000148596
0.000151089
0.00015361
0.000154797
0.000155883
0.000157713
0.000157696
0.000113731
0.000112262
0.000111259
0.000110391
0.000109471
0.000107521
0.00010353
3.51604e-05
3.15905e-05
2.75327e-05
2.76889e-05
2.97853e-05
3.2622e-05
3.5738e-05
3.91933e-05
4.26352e-05
4.61409e-05
4.98248e-05
5.36314e-05
5.75969e-05
6.18599e-05
6.60653e-05
7.02344e-05
7.49183e-05
7.93311e-05
8.39084e-05
8.79004e-05
9.1602e-05
9.60419e-05
2.62651e-05
2.60535e-05
2.59493e-05
2.55066e-05
2.48653e-05
2.3547e-05
2.14137e-05
9.08675e-07
9.7727e-07
7.42205e-07
9.41456e-07
1.60346e-06
2.02434e-06
2.61563e-06
3.30402e-06
4.04588e-06
4.80681e-06
5.66905e-06
6.68037e-06
7.68212e-06
8.72027e-06
9.88856e-06
1.12957e-05
1.28941e-05
1.46856e-05
1.66951e-05
1.8909e-05
2.13011e-05
2.39667e-05
9.08068e-06
8.66999e-06
7.86734e-06
6.64565e-06
4.95106e-06
2.90816e-06
1.30417e-06
7.70397e-05
5.81072e-05
4.52712e-05
3.68308e-05
3.06124e-05
2.58137e-05
2.21097e-05
1.94479e-05
1.792e-05
1.76396e-05
1.86173e-05
2.07327e-05
2.38209e-05
2.77659e-05
3.26028e-05
3.86327e-05
4.64197e-05
5.81038e-05
7.91747e-05
7.86657e-05
6.28586e-05
5.06163e-05
4.15166e-05
3.45633e-05
2.91598e-05
2.5008e-05
2.2035e-05
2.03137e-05
1.99479e-05
2.09478e-05
2.32007e-05
2.65546e-05
3.08955e-05
3.62717e-05
4.3069e-05
5.21436e-05
6.5012e-05
8.48872e-05
7.94103e-05
6.57552e-05
5.43399e-05
4.52011e-05
3.78664e-05
3.20602e-05
2.75667e-05
2.43387e-05
2.24552e-05
2.20215e-05
2.30495e-05
2.54314e-05
2.90306e-05
3.37292e-05
3.95629e-05
4.69119e-05
5.66733e-05
6.94311e-05
8.53245e-05
7.91513e-05
6.71875e-05
5.68241e-05
4.78877e-05
4.0465e-05
3.44492e-05
2.97349e-05
2.63263e-05
2.43247e-05
2.38445e-05
2.49011e-05
2.73882e-05
3.11872e-05
3.61811e-05
4.23553e-05
4.9986e-05
5.95811e-05
7.16751e-05
8.41754e-05
7.8755e-05
6.79108e-05
5.83033e-05
4.97258e-05
4.23988e-05
3.63244e-05
3.15012e-05
2.79894e-05
2.59182e-05
2.54144e-05
2.64975e-05
2.90583e-05
3.2992e-05
3.82081e-05
4.45719e-05
5.22233e-05
6.15131e-05
7.22978e-05
8.27073e-05
7.76831e-05
6.82162e-05
5.90963e-05
5.09021e-05
4.37524e-05
3.77222e-05
3.28825e-05
2.93388e-05
2.72452e-05
2.67398e-05
2.78459e-05
3.04491e-05
3.44396e-05
3.97921e-05
4.61466e-05
5.37182e-05
6.25886e-05
7.21571e-05
8.12396e-05
7.63106e-05
6.78824e-05
5.93272e-05
5.15378e-05
4.46055e-05
3.86945e-05
3.39125e-05
3.03986e-05
2.83252e-05
2.78367e-05
2.89604e-05
3.15793e-05
3.55462e-05
4.08961e-05
4.71718e-05
5.46724e-05
6.30343e-05
7.17771e-05
8.00865e-05
7.50003e-05
6.68991e-05
5.90629e-05
5.16829e-05
4.50322e-05
3.93009e-05
3.46354e-05
3.12019e-05
2.91836e-05
2.8725e-05
2.98547e-05
3.24609e-05
3.637e-05
4.14878e-05
4.77052e-05
5.48074e-05
6.26531e-05
7.07838e-05
7.87433e-05
7.38025e-05
6.58193e-05
5.84586e-05
5.14722e-05
4.51219e-05
3.96078e-05
3.51002e-05
3.17853e-05
2.985e-05
2.9429e-05
3.0551e-05
3.31216e-05
3.69358e-05
4.18507e-05
4.78897e-05
5.45825e-05
6.18945e-05
6.9458e-05
7.70536e-05
7.22783e-05
6.47325e-05
5.76732e-05
5.10175e-05
4.49589e-05
3.96794e-05
3.5356e-05
3.21862e-05
3.03552e-05
2.99764e-05
3.10814e-05
3.35797e-05
3.72481e-05
4.20065e-05
4.77129e-05
5.40564e-05
6.09169e-05
6.80397e-05
7.53128e-05
7.06063e-05
6.34563e-05
5.67233e-05
5.03816e-05
4.46082e-05
3.95726e-05
3.54493e-05
3.24399e-05
3.07278e-05
3.03867e-05
3.1468e-05
3.38802e-05
3.73759e-05
4.19248e-05
4.73198e-05
5.33222e-05
5.97881e-05
6.65227e-05
7.35163e-05
6.88473e-05
6.20428e-05
5.5668e-05
4.96198e-05
4.41227e-05
3.93363e-05
3.5424e-05
3.25808e-05
3.09936e-05
3.0658e-05
3.17263e-05
3.40284e-05
3.7393e-05
4.17315e-05
4.68217e-05
5.2491e-05
5.85919e-05
6.49565e-05
7.16897e-05
6.69141e-05
6.05908e-05
5.45286e-05
4.87598e-05
4.35147e-05
3.89957e-05
3.53138e-05
3.26504e-05
3.12069e-05
3.07391e-05
3.20125e-05
3.47451e-05
3.81949e-05
4.24785e-05
4.74375e-05
5.29132e-05
5.87588e-05
6.48013e-05
7.09633e-05
6.4877e-05
5.86128e-05
5.26375e-05
4.71045e-05
4.20878e-05
3.78961e-05
3.45523e-05
3.2281e-05
3.12376e-05
3.11676e-05
3.22737e-05
3.43904e-05
3.75633e-05
4.15493e-05
4.62087e-05
5.14147e-05
5.70574e-05
6.30156e-05
6.89442e-05
6.34457e-05
5.74227e-05
5.17067e-05
4.6512e-05
4.17327e-05
3.77494e-05
3.45556e-05
3.23577e-05
3.14284e-05
3.12285e-05
3.2031e-05
3.39945e-05
3.68407e-05
4.04604e-05
4.47473e-05
4.96056e-05
5.49687e-05
6.07911e-05
6.71255e-05
6.22881e-05
5.61673e-05
5.06536e-05
4.57223e-05
4.13933e-05
3.76924e-05
3.46736e-05
3.26848e-05
3.14818e-05
3.12149e-05
3.20694e-05
3.38692e-05
3.65205e-05
3.99119e-05
4.39462e-05
4.85454e-05
5.36609e-05
5.92675e-05
6.55011e-05
6.05427e-05
5.456e-05
4.91996e-05
4.44112e-05
4.03889e-05
3.69649e-05
3.42451e-05
3.24989e-05
3.14079e-05
3.12676e-05
3.20693e-05
3.37305e-05
3.61779e-05
3.93249e-05
4.30927e-05
4.74178e-05
5.22518e-05
5.75883e-05
6.3597e-05
5.87027e-05
5.29873e-05
4.78556e-05
4.33151e-05
3.95013e-05
3.63359e-05
3.38887e-05
3.22693e-05
3.13523e-05
3.12733e-05
3.20272e-05
3.35599e-05
3.58137e-05
3.8724e-05
4.22308e-05
4.62852e-05
5.08574e-05
5.59621e-05
6.17489e-05
5.68817e-05
5.13803e-05
4.64863e-05
4.22318e-05
3.86606e-05
3.57517e-05
3.3539e-05
3.20706e-05
3.12945e-05
3.1263e-05
3.19694e-05
3.33763e-05
3.54418e-05
3.81206e-05
4.13721e-05
4.5166e-05
4.94915e-05
5.43625e-05
5.99364e-05
5.50709e-05
4.97784e-05
4.51414e-05
4.11598e-05
3.78449e-05
3.51873e-05
3.3198e-05
3.18921e-05
3.12373e-05
3.12452e-05
3.19041e-05
3.31879e-05
3.50691e-05
3.75216e-05
4.0524e-05
4.4064e-05
4.81434e-05
5.27808e-05
5.81484e-05
5.32781e-05
4.81996e-05
4.38186e-05
4.01028e-05
3.70473e-05
3.46381e-05
3.28673e-05
3.17262e-05
3.11822e-05
3.12242e-05
3.18359e-05
3.29991e-05
3.47004e-05
3.69314e-05
3.96892e-05
4.29774e-05
4.68098e-05
5.12137e-05
5.63764e-05
5.15062e-05
4.6643e-05
4.25152e-05
3.9063e-05
3.62676e-05
3.41044e-05
3.25481e-05
3.15703e-05
3.11304e-05
3.12027e-05
3.17674e-05
3.28129e-05
3.43384e-05
3.63521e-05
3.88683e-05
4.19055e-05
4.54892e-05
4.96578e-05
5.46137e-05
4.97515e-05
4.51042e-05
4.12304e-05
3.8043e-05
3.55077e-05
3.35879e-05
3.22422e-05
3.14241e-05
3.1083e-05
3.11825e-05
3.17007e-05
3.26314e-05
3.39847e-05
3.57845e-05
3.80614e-05
4.08474e-05
4.41796e-05
4.81085e-05
5.2853e-05
4.8006e-05
4.35778e-05
3.99667e-05
3.70472e-05
3.47705e-05
3.30912e-05
3.19516e-05
3.12889e-05
3.10418e-05
3.11661e-05
3.16381e-05
3.24564e-05
3.36408e-05
3.52289e-05
3.72682e-05
3.98025e-05
4.28789e-05