/*--------------------------------*- C++ -*----------------------------------*\
| =========                 |                                                 |
| \\      /  F ield         | OpenFOAM: The Open Source CFD Toolbox           |
|  \\    /   O peration     | Version:  v2012                                 |
|   \\  /    A nd           | Website:  www.openfoam.com                      |
|    \\/     M anipulation  |                                                 |
\*---------------------------------------------------------------------------*/
FoamFile
{
    version     2.0;
    format      ascii;
    class       pointVectorField;
    location    "1";
    object      pointD;
}
// * * * * * * * * * * * * * * * * * * * * * * * * * * * * * * * * * * * * * //

dimensions      [0 1 0 0 0 0 0];


internalField   nonuniform List<vector> 
72837
(
(2.47071e-07 -1.90327e-05 0)
(0 -1.89691e-05 0)
(0 -1.80205e-05 0)
(0 0 0)
(0 0 0)
(-3.53662e-06 -1.47725e-05 0)
(-6.02905e-07 -1.79342e-05 0)
(-3.54503e-06 -1.42521e-05 0)
(-4.73621e-07 -1.7937e-05 0)
(-2.34694e-06 -1.47108e-05 0)
(-2.70031e-06 -1.50721e-05 0)
(-1.28852e-06 -1.67736e-05 0)
(-1.34944e-06 -1.6623e-05 0)
(-6.82103e-07 -1.76917e-05 0)
(-5.85965e-07 -1.76046e-05 0)
(-3.56785e-06 -6.34164e-06 0)
(3.7608e-06 -6.37422e-06 0)
(1.52035e-07 -1.83637e-05 0)
(0 -1.82458e-05 0)
(-9.36013e-07 -1.72709e-05 0)
(-9.67709e-07 -1.72056e-05 0)
(0 -1.79828e-05 0)
(-1.93385e-06 -1.5807e-05 0)
(-1.54535e-06 -1.58585e-05 0)
(3.02943e-06 -1.51555e-05 0)
(0 0 0)
(-3.52693e-06 -6.30132e-06 1.22263e-07)
(3.72015e-06 -6.34784e-06 -1.27836e-07)
(0 0 0)
(-3.47588e-06 -1.42345e-05 -1.2533e-07)
(-2.26321e-06 -1.47274e-05 -2.32359e-07)
(3.01157e-06 -1.52428e-05 2.49725e-07)
(-1.49908e-06 -1.59456e-05 -4.15541e-07)
(-1.34673e-06 -1.68334e-05 -4.93406e-07)
(0 -1.80738e-05 2.40465e-07)
(0 -1.8001e-05 -7.76834e-08)
(-1.01548e-06 -1.71603e-05 -3.79138e-07)
(0 -1.82417e-05 -7.67856e-08)
(-5.64692e-07 -1.75379e-05 -1.95386e-07)
(1.57691e-07 -1.83629e-05 -5.51479e-08)
(-4.26471e-07 -1.78922e-05 -8.56625e-08)
(0 -1.89668e-05 -5.87447e-08)
(2.46663e-07 -1.90331e-05 -6.43069e-08)
(-2.62106e-06 -1.50951e-05 -2.61686e-07)
(-3.47538e-06 -1.47575e-05 -1.4886e-07)
(-1.90282e-06 -1.59129e-05 -4.75799e-07)
(-1.41527e-06 -1.67004e-05 -5.61282e-07)
(-9.93426e-07 -1.7235e-05 -4.16758e-07)
(-6.62755e-07 -1.7631e-05 -2.05697e-07)
(-5.55248e-07 -1.78946e-05 -1.01421e-07)
(2.36359e-07 -1.90289e-05 0)
(2.25653e-07 -1.90251e-05 0)
(2.14898e-07 -1.90212e-05 0)
(2.04039e-07 -1.90171e-05 0)
(1.93004e-07 -1.90129e-05 0)
(1.8176e-07 -1.90085e-05 0)
(1.70282e-07 -1.90042e-05 0)
(1.58544e-07 -1.89998e-05 0)
(1.46531e-07 -1.89956e-05 0)
(1.34234e-07 -1.89915e-05 0)
(1.21674e-07 -1.89876e-05 0)
(1.08851e-07 -1.89839e-05 0)
(9.57947e-08 -1.89806e-05 0)
(8.25237e-08 -1.89776e-05 0)
(6.90642e-08 -1.8975e-05 0)
(5.54469e-08 -1.89729e-05 0)
(4.17093e-08 -1.89712e-05 0)
(2.78704e-08 -1.897e-05 0)
(1.39486e-08 -1.89693e-05 0)
(0 -1.89507e-05 0)
(0 -1.89324e-05 0)
(0 -1.8914e-05 0)
(0 -1.88958e-05 0)
(0 -1.88775e-05 0)
(0 -1.88593e-05 0)
(0 -1.88411e-05 0)
(0 -1.88228e-05 0)
(0 -1.88046e-05 0)
(0 -1.87864e-05 0)
(0 -1.87682e-05 0)
(0 -1.875e-05 0)
(0 -1.87318e-05 0)
(0 -1.87136e-05 0)
(0 -1.86953e-05 0)
(0 -1.86771e-05 0)
(0 -1.86589e-05 0)
(0 -1.86407e-05 0)
(0 -1.86224e-05 0)
(0 -1.86042e-05 0)
(0 -1.8586e-05 0)
(0 -1.85677e-05 0)
(0 -1.85495e-05 0)
(0 -1.85313e-05 0)
(0 -1.85131e-05 0)
(0 -1.84949e-05 0)
(0 -1.84767e-05 0)
(0 -1.84586e-05 0)
(0 -1.84405e-05 0)
(0 -1.84225e-05 0)
(0 -1.84044e-05 0)
(0 -1.83865e-05 0)
(0 -1.83686e-05 0)
(0 -1.83508e-05 0)
(0 -1.8333e-05 0)
(0 -1.83154e-05 0)
(0 -1.82978e-05 0)
(0 -1.82803e-05 0)
(0 -1.8263e-05 0)
(0 -1.82123e-05 0)
(0 -1.81796e-05 0)
(0 -1.81478e-05 0)
(0 -1.81172e-05 0)
(0 -1.80879e-05 0)
(0 -1.80603e-05 0)
(0 -1.80346e-05 0)
(0 -1.80111e-05 0)
(0 -1.799e-05 0)
(0 -1.79717e-05 0)
(0 -1.79565e-05 0)
(0 -1.79446e-05 0)
(0 -1.79362e-05 0)
(0 -1.79317e-05 0)
(0 -1.7931e-05 0)
(0 -1.79342e-05 0)
(0 -1.79414e-05 0)
(0 -1.79521e-05 0)
(0 -1.79663e-05 0)
(1.37636e-07 -1.80015e-05 0)
(2.72044e-07 -1.79781e-05 0)
(4.0691e-07 -1.79466e-05 0)
(5.4363e-07 -1.79065e-05 0)
(6.82914e-07 -1.78563e-05 0)
(8.24731e-07 -1.77935e-05 0)
(9.69676e-07 -1.77192e-05 0)
(1.11784e-06 -1.76309e-05 0)
(1.26915e-06 -1.75273e-05 0)
(1.42415e-06 -1.74097e-05 0)
(1.58171e-06 -1.72745e-05 0)
(1.74288e-06 -1.71224e-05 0)
(1.90677e-06 -1.69517e-05 0)
(2.07177e-06 -1.676e-05 0)
(2.23683e-06 -1.65467e-05 0)
(2.40107e-06 -1.6312e-05 0)
(2.56354e-06 -1.60558e-05 0)
(2.72318e-06 -1.57776e-05 0)
(2.87842e-06 -1.54772e-05 0)
(3.72268e-06 -6.15544e-06 0)
(3.6815e-06 -5.93664e-06 0)
(3.63733e-06 -5.71927e-06 0)
(3.59026e-06 -5.50379e-06 0)
(3.54022e-06 -5.29046e-06 0)
(3.48727e-06 -5.07953e-06 0)
(3.43147e-06 -4.87121e-06 0)
(3.37285e-06 -4.66566e-06 0)
(3.31144e-06 -4.46303e-06 0)
(3.24732e-06 -4.26337e-06 0)
(3.1805e-06 -4.06649e-06 0)
(3.11099e-06 -3.87317e-06 0)
(3.03873e-06 -3.68326e-06 0)
(2.96364e-06 -3.49678e-06 0)
(2.88596e-06 -3.31421e-06 0)
(2.80556e-06 -3.13553e-06 0)
(2.72241e-06 -2.9608e-06 0)
(2.6365e-06 -2.79016e-06 0)
(2.54781e-06 -2.62372e-06 0)
(2.45633e-06 -2.4616e-06 0)
(2.36205e-06 -2.30394e-06 0)
(2.26497e-06 -2.15086e-06 0)
(2.1651e-06 -2.00247e-06 0)
(2.06245e-06 -1.85885e-06 0)
(1.9571e-06 -1.71991e-06 0)
(1.84915e-06 -1.58518e-06 0)
(1.73851e-06 -1.45544e-06 0)
(1.625e-06 -1.33048e-06 0)
(1.50899e-06 -1.21072e-06 0)
(1.39037e-06 -1.09582e-06 0)
(1.26916e-06 -9.85584e-07 0)
(1.14538e-06 -8.79672e-07 0)
(1.01906e-06 -7.77382e-07 0)
(8.90046e-07 -6.77844e-07 0)
(7.57939e-07 -5.81045e-07 0)
(6.2199e-07 -4.85187e-07 0)
(4.80952e-07 -3.86982e-07 0)
(3.3194e-07 -2.82543e-07 0)
(1.70534e-07 -1.56853e-07 0)
(0 0 0)
(0 0 0)
(0 0 0)
(0 0 0)
(0 0 0)
(0 0 0)
(0 0 0)
(0 0 0)
(0 0 0)
(0 0 0)
(0 0 0)
(0 0 0)
(0 0 0)
(0 0 0)
(0 0 0)
(0 0 0)
(0 0 0)
(0 0 0)
(0 0 0)
(-1.70112e-07 -1.61721e-07 0)
(-3.12853e-07 -2.69393e-07 0)
(-4.5258e-07 -3.69628e-07 0)
(-5.88535e-07 -4.66523e-07 0)
(-7.20577e-07 -5.62091e-07 0)
(-8.49211e-07 -6.58927e-07 0)
(-9.74573e-07 -7.57563e-07 0)
(-1.09688e-06 -8.59254e-07 0)
(-1.21637e-06 -9.64889e-07 0)
(-1.33327e-06 -1.07504e-06 0)
(-1.44748e-06 -1.18953e-06 0)
(-1.55892e-06 -1.30868e-06 0)
(-1.66757e-06 -1.43264e-06 0)
(-1.77341e-06 -1.56142e-06 0)
(-1.87643e-06 -1.69508e-06 0)
(-1.97685e-06 -1.83384e-06 0)
(-2.07464e-06 -1.97738e-06 0)
(-2.16976e-06 -2.1258e-06 0)
(-2.26209e-06 -2.27866e-06 0)
(-2.3516e-06 -2.436e-06 0)
(-2.4383e-06 -2.59774e-06 0)
(-2.52219e-06 -2.76378e-06 0)
(-2.60329e-06 -2.93401e-06 0)
(-2.6816e-06 -3.10829e-06 0)
(-2.75714e-06 -3.28651e-06 0)
(-2.82991e-06 -3.4685e-06 0)
(-2.89992e-06 -3.65415e-06 0)
(-2.96717e-06 -3.84334e-06 0)
(-3.03182e-06 -4.03606e-06 0)
(-3.09381e-06 -4.23195e-06 0)
(-3.15312e-06 -4.43099e-06 0)
(-3.20976e-06 -4.63315e-06 0)
(-3.26376e-06 -4.83822e-06 0)
(-3.31509e-06 -5.04593e-06 0)
(-3.36374e-06 -5.2562e-06 0)
(-3.40971e-06 -5.4689e-06 0)
(-3.45303e-06 -5.68389e-06 0)
(-3.49372e-06 -5.9011e-06 0)
(-3.53174e-06 -6.12035e-06 0)
(-3.59138e-06 -6.4995e-06 0)
(-3.61366e-06 -6.65817e-06 0)
(-3.6347e-06 -6.81758e-06 0)
(-3.65451e-06 -6.97781e-06 0)
(-3.67308e-06 -7.13886e-06 0)
(-3.69041e-06 -7.30049e-06 0)
(-3.7065e-06 -7.4628e-06 0)
(-3.72138e-06 -7.62575e-06 0)
(-3.73506e-06 -7.78922e-06 0)
(-3.7475e-06 -7.95315e-06 0)
(-3.7587e-06 -8.11748e-06 0)
(-3.76868e-06 -8.28221e-06 0)
(-3.77743e-06 -8.4473e-06 0)
(-3.78495e-06 -8.6127e-06 0)
(-3.79126e-06 -8.7784e-06 0)
(-3.7964e-06 -8.94432e-06 0)
(-3.8004e-06 -9.11047e-06 0)
(-3.80322e-06 -9.27671e-06 0)
(-3.80491e-06 -9.44307e-06 0)
(-3.80549e-06 -9.60951e-06 0)
(-3.80496e-06 -9.77598e-06 0)
(-3.80334e-06 -9.94244e-06 0)
(-3.80067e-06 -1.01089e-05 0)
(-3.79698e-06 -1.02753e-05 0)
(-3.79229e-06 -1.04415e-05 0)
(-3.78664e-06 -1.06077e-05 0)
(-3.78005e-06 -1.07737e-05 0)
(-3.77259e-06 -1.09396e-05 0)
(-3.76427e-06 -1.11052e-05 0)
(-3.75512e-06 -1.12707e-05 0)
(-3.74522e-06 -1.14359e-05 0)
(-3.73459e-06 -1.1601e-05 0)
(-3.72327e-06 -1.17657e-05 0)
(-3.71136e-06 -1.19303e-05 0)
(-3.6989e-06 -1.20947e-05 0)
(-3.68598e-06 -1.22588e-05 0)
(-3.67268e-06 -1.24228e-05 0)
(-3.65911e-06 -1.25867e-05 0)
(-3.64538e-06 -1.27506e-05 0)
(-3.6316e-06 -1.29145e-05 0)
(-3.61794e-06 -1.30785e-05 0)
(-3.60459e-06 -1.32429e-05 0)
(-3.59173e-06 -1.34077e-05 0)
(-3.57962e-06 -1.35733e-05 0)
(-3.56855e-06 -1.374e-05 0)
(-3.55883e-06 -1.39083e-05 0)
(-3.55089e-06 -1.40786e-05 0)
(-3.53897e-06 -1.46397e-05 0)
(-3.54086e-06 -1.45081e-05 0)
(-3.54266e-06 -1.43788e-05 0)
(-5.04035e-07 -1.7937e-05 0)
(-5.35737e-07 -1.79367e-05 0)
(-5.68883e-07 -1.79358e-05 0)
(-4.36396e-07 -1.79384e-05 0)
(-4.02453e-07 -1.79413e-05 0)
(-3.71276e-07 -1.79452e-05 0)
(-3.42472e-07 -1.795e-05 0)
(-3.15777e-07 -1.79557e-05 0)
(-2.90714e-07 -1.7962e-05 0)
(-2.67224e-07 -1.79689e-05 0)
(-2.45054e-07 -1.79762e-05 0)
(-2.24149e-07 -1.79839e-05 0)
(-2.04309e-07 -1.79919e-05 0)
(-1.85427e-07 -1.80002e-05 0)
(-1.67519e-07 -1.80087e-05 0)
(-1.50455e-07 -1.80174e-05 0)
(-1.34209e-07 -1.80262e-05 0)
(-1.18531e-07 -1.80352e-05 0)
(-1.03545e-07 -1.80442e-05 0)
(-8.92888e-08 -1.80534e-05 0)
(-7.56398e-08 -1.80627e-05 0)
(-6.25447e-08 -1.8072e-05 0)
(-4.99675e-08 -1.80814e-05 0)
(-3.79604e-08 -1.80909e-05 0)
(-2.64714e-08 -1.81005e-05 0)
(-1.54168e-08 -1.81101e-05 0)
(-4.77918e-09 -1.81197e-05 0)
(5.40802e-09 -1.81294e-05 0)
(1.51894e-08 -1.81391e-05 0)
(2.4552e-08 -1.81488e-05 0)
(3.35266e-08 -1.81587e-05 0)
(4.21439e-08 -1.81685e-05 0)
(5.03899e-08 -1.81784e-05 0)
(5.83275e-08 -1.81884e-05 0)
(6.59425e-08 -1.81983e-05 0)
(7.32405e-08 -1.82083e-05 0)
(8.02406e-08 -1.82184e-05 0)
(8.69507e-08 -1.82285e-05 0)
(9.33815e-08 -1.82386e-05 0)
(9.95407e-08 -1.82488e-05 0)
(1.05442e-07 -1.8259e-05 0)
(1.111e-07 -1.82693e-05 0)
(1.16516e-07 -1.82796e-05 0)
(1.21705e-07 -1.82899e-05 0)
(1.26673e-07 -1.83003e-05 0)
(1.31426e-07 -1.83108e-05 0)
(1.35971e-07 -1.83213e-05 0)
(1.40309e-07 -1.83318e-05 0)
(1.44439e-07 -1.83424e-05 0)
(1.48347e-07 -1.83531e-05 0)
(1.57328e-07 -1.83789e-05 0)
(1.62255e-07 -1.83941e-05 0)
(1.66835e-07 -1.84093e-05 0)
(1.71115e-07 -1.84247e-05 0)
(1.75126e-07 -1.84401e-05 0)
(1.78883e-07 -1.84556e-05 0)
(1.82409e-07 -1.84711e-05 0)
(1.85719e-07 -1.84867e-05 0)
(1.88822e-07 -1.85025e-05 0)
(1.91746e-07 -1.85183e-05 0)
(1.94502e-07 -1.85342e-05 0)
(1.97092e-07 -1.85502e-05 0)
(1.99532e-07 -1.85663e-05 0)
(2.01838e-07 -1.85825e-05 0)
(2.04021e-07 -1.85988e-05 0)
(2.06095e-07 -1.86152e-05 0)
(2.08076e-07 -1.86317e-05 0)
(2.0997e-07 -1.86483e-05 0)
(2.11787e-07 -1.8665e-05 0)
(2.13537e-07 -1.86818e-05 0)
(2.15232e-07 -1.86987e-05 0)
(2.16879e-07 -1.87157e-05 0)
(2.1849e-07 -1.87328e-05 0)
(2.20071e-07 -1.875e-05 0)
(2.21634e-07 -1.87672e-05 0)
(2.23188e-07 -1.87846e-05 0)
(2.24738e-07 -1.8802e-05 0)
(2.26293e-07 -1.88195e-05 0)
(2.27861e-07 -1.8837e-05 0)
(2.29447e-07 -1.88546e-05 0)
(2.3106e-07 -1.88723e-05 0)
(2.32704e-07 -1.889e-05 0)
(2.34381e-07 -1.89078e-05 0)
(2.36095e-07 -1.89256e-05 0)
(2.37846e-07 -1.89434e-05 0)
(2.39637e-07 -1.89612e-05 0)
(2.41463e-07 -1.89791e-05 0)
(2.4332e-07 -1.89969e-05 0)
(2.45194e-07 -1.90148e-05 0)
(1.43057e-07 -1.83529e-05 0)
(1.33633e-07 -1.83418e-05 0)
(1.23964e-07 -1.83308e-05 0)
(1.14154e-07 -1.832e-05 0)
(1.04258e-07 -1.83096e-05 0)
(9.44325e-08 -1.82998e-05 0)
(8.47766e-08 -1.82908e-05 0)
(7.54e-08 -1.82827e-05 0)
(6.63758e-08 -1.82755e-05 0)
(5.78211e-08 -1.82692e-05 0)
(4.97704e-08 -1.82639e-05 0)
(4.22848e-08 -1.82594e-05 0)
(3.53628e-08 -1.82558e-05 0)
(2.90102e-08 -1.82529e-05 0)
(2.31966e-08 -1.82506e-05 0)
(1.78727e-08 -1.82489e-05 0)
(1.29768e-08 -1.82477e-05 0)
(8.43389e-09 -1.82468e-05 0)
(4.15377e-09 -1.82462e-05 0)
(-3.1374e-06 -6.32218e-06 0)
(-2.72392e-06 -6.30485e-06 0)
(-2.3284e-06 -6.28983e-06 0)
(-1.95009e-06 -6.27718e-06 0)
(-1.58615e-06 -6.26685e-06 0)
(-1.23346e-06 -6.25899e-06 0)
(-8.90692e-07 -6.25356e-06 0)
(-5.55896e-07 -6.25049e-06 0)
(-2.25785e-07 -6.24971e-06 0)
(1.02341e-07 -6.25123e-06 0)
(4.29455e-07 -6.25487e-06 0)
(7.59067e-07 -6.26072e-06 0)
(1.09266e-06 -6.26855e-06 0)
(1.43448e-06 -6.27836e-06 0)
(1.78544e-06 -6.29012e-06 0)
(2.1485e-06 -6.3038e-06 0)
(2.52607e-06 -6.31952e-06 0)
(2.92033e-06 -6.33706e-06 0)
(3.3322e-06 -6.35534e-06 0)
(-2.2013e-06 -1.45381e-05 0)
(-2.06974e-06 -1.43689e-05 0)
(-1.9466e-06 -1.42009e-05 0)
(-1.82803e-06 -1.40331e-05 0)
(-1.71216e-06 -1.38653e-05 0)
(-1.59783e-06 -1.36973e-05 0)
(-1.48412e-06 -1.35288e-05 0)
(-1.37043e-06 -1.33597e-05 0)
(-1.2567e-06 -1.31901e-05 0)
(-1.14239e-06 -1.30195e-05 0)
(-1.02757e-06 -1.28484e-05 0)
(-9.12023e-07 -1.26764e-05 0)
(-7.95714e-07 -1.25037e-05 0)
(-6.78538e-07 -1.23302e-05 0)
(-5.60501e-07 -1.21559e-05 0)
(-4.41515e-07 -1.19808e-05 0)
(-3.21532e-07 -1.1805e-05 0)
(-2.00589e-07 -1.16285e-05 0)
(-7.87681e-08 -1.14513e-05 0)
(4.39179e-08 -1.12735e-05 0)
(1.67487e-07 -1.10953e-05 0)
(2.91952e-07 -1.09166e-05 0)
(4.17339e-07 -1.07373e-05 0)
(5.4362e-07 -1.05578e-05 0)
(6.70775e-07 -1.03779e-05 0)
(7.98788e-07 -1.01978e-05 0)
(9.2762e-07 -1.00177e-05 0)
(1.05726e-06 -9.83753e-06 0)
(1.18773e-06 -9.65741e-06 0)
(1.319e-06 -9.47744e-06 0)
(1.45102e-06 -9.29771e-06 0)
(1.58374e-06 -9.11834e-06 0)
(1.7171e-06 -8.93943e-06 0)
(1.85107e-06 -8.76108e-06 0)
(1.98561e-06 -8.58342e-06 0)
(2.12074e-06 -8.40654e-06 0)
(2.2564e-06 -8.23051e-06 0)
(2.39256e-06 -8.05547e-06 0)
(2.52908e-06 -7.8815e-06 0)
(2.66588e-06 -7.70866e-06 0)
(2.80304e-06 -7.53705e-06 0)
(2.94026e-06 -7.36676e-06 0)
(3.07755e-06 -7.1978e-06 0)
(3.21475e-06 -7.03026e-06 0)
(3.35185e-06 -6.8641e-06 0)
(3.48869e-06 -6.69932e-06 0)
(3.62507e-06 -6.53587e-06 0)
(-2.59744e-06 -1.49741e-05 0)
(-2.50552e-06 -1.48822e-05 0)
(-2.42238e-06 -1.47947e-05 0)
(-1.34971e-06 -1.66752e-05 0)
(-1.33783e-06 -1.67134e-05 0)
(-1.3162e-06 -1.67456e-05 0)
(-1.22185e-06 -1.68261e-05 0)
(-1.14377e-06 -1.68755e-05 0)
(-1.06449e-06 -1.69204e-05 0)
(-9.84152e-07 -1.69638e-05 0)
(-9.04188e-07 -1.70071e-05 0)
(-8.25856e-07 -1.705e-05 0)
(-7.49085e-07 -1.70931e-05 0)
(-6.74109e-07 -1.71366e-05 0)
(-6.01124e-07 -1.71803e-05 0)
(-5.30496e-07 -1.72241e-05 0)
(-4.61976e-07 -1.72678e-05 0)
(-3.95626e-07 -1.73115e-05 0)
(-3.31855e-07 -1.7355e-05 0)
(-2.70251e-07 -1.7398e-05 0)
(-2.1103e-07 -1.74406e-05 0)
(-1.54529e-07 -1.74824e-05 0)
(-1.00465e-07 -1.75234e-05 0)
(-4.89209e-08 -1.75637e-05 0)
(-2.06854e-10 -1.76028e-05 0)
(4.57655e-08 -1.76407e-05 0)
(8.89708e-08 -1.76776e-05 0)
(1.29281e-07 -1.77131e-05 0)
(1.6665e-07 -1.7747e-05 0)
(2.01044e-07 -1.77794e-05 0)
(2.32384e-07 -1.78103e-05 0)
(2.60522e-07 -1.78396e-05 0)
(2.85277e-07 -1.7867e-05 0)
(3.06805e-07 -1.78925e-05 0)
(3.2479e-07 -1.79163e-05 0)
(3.39432e-07 -1.79382e-05 0)
(3.50735e-07 -1.79585e-05 0)
(3.58364e-07 -1.79767e-05 0)
(3.62157e-07 -1.79928e-05 0)
(3.62453e-07 -1.80071e-05 0)
(3.59226e-07 -1.80194e-05 0)
(3.52319e-07 -1.80296e-05 0)
(3.41721e-07 -1.80377e-05 0)
(3.27483e-07 -1.80439e-05 0)
(3.09617e-07 -1.80482e-05 0)
(2.88288e-07 -1.80509e-05 0)
(2.63603e-07 -1.80521e-05 0)
(2.35548e-07 -1.80515e-05 0)
(2.04219e-07 -1.80493e-05 0)
(1.6964e-07 -1.80456e-05 0)
(1.31896e-07 -1.80407e-05 0)
(9.11213e-08 -1.80347e-05 0)
(4.72899e-08 -1.80281e-05 0)
(-6.05169e-07 -1.76167e-05 0)
(-6.26791e-07 -1.76345e-05 0)
(-6.51908e-07 -1.7659e-05 0)
(-5.49531e-07 -1.75926e-05 0)
(-5.17134e-07 -1.75922e-05 0)
(-4.87083e-07 -1.75988e-05 0)
(-4.58928e-07 -1.761e-05 0)
(-4.32192e-07 -1.76241e-05 0)
(-4.07049e-07 -1.76404e-05 0)
(-3.82926e-07 -1.76578e-05 0)
(-3.59931e-07 -1.76761e-05 0)
(-3.37874e-07 -1.76946e-05 0)
(-3.16741e-07 -1.77133e-05 0)
(-2.96505e-07 -1.77321e-05 0)
(-2.77103e-07 -1.77507e-05 0)
(-2.5849e-07 -1.77691e-05 0)
(-2.40608e-07 -1.77873e-05 0)
(-2.23481e-07 -1.78051e-05 0)
(-2.07035e-07 -1.78226e-05 0)
(-1.91284e-07 -1.78396e-05 0)
(-1.76201e-07 -1.78563e-05 0)
(-1.61792e-07 -1.78725e-05 0)
(-1.48011e-07 -1.78883e-05 0)
(-1.34904e-07 -1.79038e-05 0)
(-1.22437e-07 -1.79189e-05 0)
(-1.1058e-07 -1.79336e-05 0)
(-9.93591e-08 -1.79479e-05 0)
(-8.8759e-08 -1.79619e-05 0)
(-7.87639e-08 -1.79756e-05 0)
(-6.9397e-08 -1.7989e-05 0)
(-6.06239e-08 -1.80022e-05 0)
(-5.2462e-08 -1.80151e-05 0)
(-4.49159e-08 -1.80278e-05 0)
(-3.79373e-08 -1.80403e-05 0)
(-3.1547e-08 -1.80526e-05 0)
(-2.57463e-08 -1.80648e-05 0)
(-2.05067e-08 -1.80769e-05 0)
(-1.58342e-08 -1.80889e-05 0)
(-1.17149e-08 -1.81009e-05 0)
(-8.13514e-09 -1.81128e-05 0)
(-5.07888e-09 -1.81246e-05 0)
(-2.53929e-09 -1.81365e-05 0)
(-4.96562e-10 -1.81484e-05 0)
(1.06097e-09 -1.81604e-05 0)
(2.15274e-09 -1.81723e-05 0)
(2.79815e-09 -1.81844e-05 0)
(3.01785e-09 -1.81965e-05 0)
(2.8342e-09 -1.82087e-05 0)
(2.27123e-09 -1.8221e-05 0)
(1.35277e-09 -1.82333e-05 0)
(-3.49502e-06 -1.47725e-05 0)
(-3.4534e-06 -1.47742e-05 0)
(-3.41182e-06 -1.47775e-05 0)
(-3.37025e-06 -1.47826e-05 0)
(-3.32861e-06 -1.47893e-05 0)
(-3.28689e-06 -1.47977e-05 0)
(-3.24508e-06 -1.48077e-05 0)
(-3.20318e-06 -1.48193e-05 0)
(-3.1612e-06 -1.48324e-05 0)
(-3.11916e-06 -1.48471e-05 0)
(-3.07708e-06 -1.48634e-05 0)
(-3.03498e-06 -1.48811e-05 0)
(-2.99289e-06 -1.49002e-05 0)
(-2.95084e-06 -1.49208e-05 0)
(-2.9088e-06 -1.49428e-05 0)
(-2.86683e-06 -1.49662e-05 0)
(-2.82499e-06 -1.49908e-05 0)
(-2.78328e-06 -1.50168e-05 0)
(-2.74173e-06 -1.50441e-05 0)
(-2.29121e-06 -1.47569e-05 0)
(-2.23771e-06 -1.48049e-05 0)
(-2.18553e-06 -1.48547e-05 0)
(-2.13493e-06 -1.49063e-05 0)
(-2.08561e-06 -1.49592e-05 0)
(-2.03783e-06 -1.50135e-05 0)
(-1.9914e-06 -1.50692e-05 0)
(-1.94644e-06 -1.51262e-05 0)
(-1.90338e-06 -1.51841e-05 0)
(-1.86177e-06 -1.52433e-05 0)
(-1.82178e-06 -1.53035e-05 0)
(-1.78352e-06 -1.53645e-05 0)
(-1.74707e-06 -1.5426e-05 0)
(-1.7125e-06 -1.54879e-05 0)
(-1.6798e-06 -1.55502e-05 0)
(-1.6491e-06 -1.56123e-05 0)
(-1.62034e-06 -1.56744e-05 0)
(-1.59351e-06 -1.57362e-05 0)
(-1.5685e-06 -1.57977e-05 0)
(-1.27754e-06 -1.68039e-05 0)
(-1.2683e-06 -1.68324e-05 0)
(-1.25815e-06 -1.68593e-05 0)
(-1.2472e-06 -1.6885e-05 0)
(-1.23543e-06 -1.69095e-05 0)
(-1.22281e-06 -1.6933e-05 0)
(-1.20931e-06 -1.69555e-05 0)
(-1.19507e-06 -1.69772e-05 0)
(-1.17993e-06 -1.69981e-05 0)
(-1.16396e-06 -1.70183e-05 0)
(-1.14718e-06 -1.7038e-05 0)
(-1.12959e-06 -1.70573e-05 0)
(-1.11138e-06 -1.70762e-05 0)
(-1.09246e-06 -1.70949e-05 0)
(-1.07304e-06 -1.71134e-05 0)
(-1.05302e-06 -1.71317e-05 0)
(-1.03256e-06 -1.715e-05 0)
(-1.01171e-06 -1.71683e-05 0)
(-9.90422e-07 -1.71868e-05 0)
(-6.73792e-07 -1.7707e-05 0)
(-6.65935e-07 -1.77219e-05 0)
(-6.58539e-07 -1.77363e-05 0)
(-6.51598e-07 -1.77503e-05 0)
(-6.45116e-07 -1.77639e-05 0)
(-6.39088e-07 -1.77772e-05 0)
(-6.33508e-07 -1.779e-05 0)
(-6.28378e-07 -1.78025e-05 0)
(-6.23695e-07 -1.78147e-05 0)
(-6.19463e-07 -1.78265e-05 0)
(-6.15687e-07 -1.78381e-05 0)
(-6.12371e-07 -1.78493e-05 0)
(-6.09523e-07 -1.78604e-05 0)
(-6.07146e-07 -1.78712e-05 0)
(-6.05243e-07 -1.78818e-05 0)
(-6.03819e-07 -1.78923e-05 0)
(-6.02876e-07 -1.79028e-05 0)
(-6.02415e-07 -1.79132e-05 0)
(-6.02438e-07 -1.79237e-05 0)
(-3.48605e-06 -1.42525e-05 0)
(-3.42627e-06 -1.42553e-05 0)
(-3.366e-06 -1.42605e-05 0)
(-3.30536e-06 -1.42682e-05 0)
(-3.24437e-06 -1.42782e-05 0)
(-3.1831e-06 -1.42906e-05 0)
(-3.12167e-06 -1.43054e-05 0)
(-3.06015e-06 -1.43226e-05 0)
(-2.99859e-06 -1.43422e-05 0)
(-2.93712e-06 -1.43642e-05 0)
(-2.87578e-06 -1.43886e-05 0)
(-2.81469e-06 -1.44153e-05 0)
(-2.75394e-06 -1.44444e-05 0)
(-2.69365e-06 -1.44759e-05 0)
(-2.63392e-06 -1.45097e-05 0)
(-2.57487e-06 -1.45457e-05 0)
(-2.51659e-06 -1.4584e-05 0)
(-2.45922e-06 -1.46245e-05 0)
(-2.40299e-06 -1.4667e-05 0)
(-2.65892e-06 -1.51017e-05 0)
(-2.61755e-06 -1.51322e-05 0)
(-2.57625e-06 -1.51638e-05 0)
(-2.5361e-06 -1.51966e-05 0)
(-2.49625e-06 -1.52308e-05 0)
(-2.45707e-06 -1.52659e-05 0)
(-2.41852e-06 -1.53017e-05 0)
(-2.38028e-06 -1.5338e-05 0)
(-2.34218e-06 -1.53745e-05 0)
(-2.30432e-06 -1.54116e-05 0)
(-2.26664e-06 -1.54492e-05 0)
(-2.22901e-06 -1.54872e-05 0)
(-2.19152e-06 -1.55257e-05 0)
(-2.15429e-06 -1.55647e-05 0)
(-2.11713e-06 -1.5604e-05 0)
(-2.08001e-06 -1.56438e-05 0)
(-2.04309e-06 -1.56846e-05 0)
(-2.00639e-06 -1.57253e-05 0)
(-1.96983e-06 -1.57665e-05 0)
(-1.32558e-06 -1.66617e-05 0)
(-1.30188e-06 -1.66992e-05 0)
(-1.27837e-06 -1.6736e-05 0)
(-1.25534e-06 -1.67721e-05 0)
(-1.23267e-06 -1.68076e-05 0)
(-1.21032e-06 -1.68425e-05 0)
(-1.1884e-06 -1.68768e-05 0)
(-1.16671e-06 -1.69104e-05 0)
(-1.14555e-06 -1.69435e-05 0)
(-1.12485e-06 -1.69761e-05 0)
(-1.10439e-06 -1.70082e-05 0)
(-1.08432e-06 -1.70397e-05 0)
(-1.06451e-06 -1.70706e-05 0)
(-1.04493e-06 -1.71009e-05 0)
(-1.02574e-06 -1.71306e-05 0)
(-1.00717e-06 -1.71597e-05 0)
(-9.88951e-07 -1.71882e-05 0)
(-9.71046e-07 -1.72162e-05 0)
(-9.53749e-07 -1.72436e-05 0)
(-5.73351e-07 -1.7625e-05 0)
(-5.61738e-07 -1.76441e-05 0)
(-5.50878e-07 -1.76631e-05 0)
(-5.40802e-07 -1.76818e-05 0)
(-5.31465e-07 -1.77004e-05 0)
(-5.22897e-07 -1.77187e-05 0)
(-5.15088e-07 -1.77367e-05 0)
(-5.08002e-07 -1.77543e-05 0)
(-5.01636e-07 -1.77716e-05 0)
(-4.95968e-07 -1.77885e-05 0)
(-4.90963e-07 -1.78051e-05 0)
(-4.86611e-07 -1.78212e-05 0)
(-4.82883e-07 -1.78369e-05 0)
(-4.79774e-07 -1.78523e-05 0)
(-4.77257e-07 -1.78673e-05 0)
(-4.75325e-07 -1.78819e-05 0)
(-4.7398e-07 -1.78961e-05 0)
(-4.73225e-07 -1.791e-05 0)
(-4.7308e-07 -1.79236e-05 0)
(-9.56006e-07 -1.72362e-05 0)
(-9.66427e-07 -1.72168e-05 0)
(-9.69332e-07 -1.72074e-05 0)
(-9.56378e-07 -1.72122e-05 0)
(-9.39794e-07 -1.72273e-05 0)
(-9.19901e-07 -1.7247e-05 0)
(-8.97936e-07 -1.72686e-05 0)
(-8.74723e-07 -1.72926e-05 0)
(-8.50824e-07 -1.73174e-05 0)
(-8.26552e-07 -1.7343e-05 0)
(-8.02015e-07 -1.7369e-05 0)
(-7.77389e-07 -1.73955e-05 0)
(-7.52897e-07 -1.74221e-05 0)
(-7.28609e-07 -1.74482e-05 0)
(-7.04584e-07 -1.74744e-05 0)
(-6.80805e-07 -1.75001e-05 0)
(-6.57316e-07 -1.75257e-05 0)
(-6.34174e-07 -1.75505e-05 0)
(-6.11389e-07 -1.75749e-05 0)
(-5.88908e-07 -1.75989e-05 0)
(-5.66744e-07 -1.76223e-05 0)
(-5.44893e-07 -1.76451e-05 0)
(-5.2335e-07 -1.76672e-05 0)
(-5.02089e-07 -1.76887e-05 0)
(-4.81094e-07 -1.77096e-05 0)
(-4.60349e-07 -1.77298e-05 0)
(-4.3987e-07 -1.77493e-05 0)
(-4.1962e-07 -1.77681e-05 0)
(-3.99631e-07 -1.77861e-05 0)
(-3.79859e-07 -1.78034e-05 0)
(-3.60294e-07 -1.78199e-05 0)
(-3.40951e-07 -1.78356e-05 0)
(-3.21803e-07 -1.78506e-05 0)
(-3.02825e-07 -1.78648e-05 0)
(-2.84009e-07 -1.78783e-05 0)
(-2.65367e-07 -1.78909e-05 0)
(-2.46882e-07 -1.79028e-05 0)
(-2.28547e-07 -1.79138e-05 0)
(-2.10356e-07 -1.79241e-05 0)
(-1.92292e-07 -1.79335e-05 0)
(-1.74352e-07 -1.79421e-05 0)
(-1.56533e-07 -1.795e-05 0)
(-1.38822e-07 -1.79569e-05 0)
(-1.21213e-07 -1.79631e-05 0)
(-1.03698e-07 -1.79684e-05 0)
(-8.62675e-08 -1.79729e-05 0)
(-6.89132e-08 -1.79766e-05 0)
(-5.1624e-08 -1.79794e-05 0)
(-3.43862e-08 -1.79813e-05 0)
(-1.71802e-08 -1.79823e-05 0)
(-1.82247e-06 -1.58396e-05 0)
(-1.72129e-06 -1.58555e-05 0)
(-1.63141e-06 -1.58598e-05 0)
(2.91302e-06 -1.51721e-05 0)
(2.79905e-06 -1.51881e-05 0)
(2.68636e-06 -1.52032e-05 0)
(2.57512e-06 -1.52173e-05 0)
(2.46555e-06 -1.52309e-05 0)
(2.35762e-06 -1.52439e-05 0)
(2.2512e-06 -1.52565e-05 0)
(2.1461e-06 -1.52686e-05 0)
(2.04243e-06 -1.52804e-05 0)
(1.94005e-06 -1.5292e-05 0)
(1.83886e-06 -1.53033e-05 0)
(1.73907e-06 -1.53146e-05 0)
(1.64042e-06 -1.53258e-05 0)
(1.54283e-06 -1.53369e-05 0)
(1.44627e-06 -1.5348e-05 0)
(1.35068e-06 -1.53592e-05 0)
(1.25596e-06 -1.53704e-05 0)
(1.16216e-06 -1.53817e-05 0)
(1.06909e-06 -1.53932e-05 0)
(9.76782e-07 -1.54048e-05 0)
(8.85167e-07 -1.54167e-05 0)
(7.94367e-07 -1.54288e-05 0)
(7.04165e-07 -1.54412e-05 0)
(6.14399e-07 -1.54538e-05 0)
(5.25211e-07 -1.54668e-05 0)
(4.36526e-07 -1.54801e-05 0)
(3.48323e-07 -1.54939e-05 0)
(2.60476e-07 -1.55081e-05 0)
(1.7292e-07 -1.55227e-05 0)
(8.56067e-08 -1.55377e-05 0)
(-1.42917e-09 -1.55532e-05 0)
(-8.84103e-08 -1.55692e-05 0)
(-1.75176e-07 -1.55856e-05 0)
(-2.61931e-07 -1.56026e-05 0)
(-3.48807e-07 -1.56201e-05 0)
(-4.35688e-07 -1.56382e-05 0)
(-5.22813e-07 -1.56567e-05 0)
(-6.10214e-07 -1.56757e-05 0)
(-6.97981e-07 -1.56952e-05 0)
(-7.86299e-07 -1.5715e-05 0)
(-8.75196e-07 -1.57351e-05 0)
(-9.65145e-07 -1.57553e-05 0)
(-1.05613e-06 -1.57754e-05 0)
(-1.14876e-06 -1.57952e-05 0)
(-1.24327e-06 -1.58142e-05 0)
(-1.34062e-06 -1.58319e-05 0)
(-1.441e-06 -1.58471e-05 0)
(-1.899e-06 -1.58525e-05 0)
(-1.86696e-06 -1.58993e-05 0)
(-1.83453e-06 -1.59408e-05 0)
(-1.80198e-06 -1.59818e-05 0)
(-1.76943e-06 -1.60227e-05 0)
(-1.73774e-06 -1.6065e-05 0)
(-1.70679e-06 -1.61073e-05 0)
(-1.67683e-06 -1.61497e-05 0)
(-1.64722e-06 -1.6191e-05 0)
(-1.61788e-06 -1.62319e-05 0)
(-1.58904e-06 -1.62728e-05 0)
(-1.56079e-06 -1.63134e-05 0)
(-1.53294e-06 -1.63533e-05 0)
(-1.50552e-06 -1.63928e-05 0)
(-1.47846e-06 -1.64318e-05 0)
(-1.45211e-06 -1.64705e-05 0)
(-1.4265e-06 -1.65089e-05 0)
(-1.40138e-06 -1.65466e-05 0)
(-1.37675e-06 -1.65835e-05 0)
(-9.19477e-07 -1.72972e-05 0)
(-9.03203e-07 -1.73229e-05 0)
(-8.87287e-07 -1.73481e-05 0)
(-8.71786e-07 -1.73726e-05 0)
(-8.56715e-07 -1.73966e-05 0)
(-8.42134e-07 -1.742e-05 0)
(-8.27858e-07 -1.74429e-05 0)
(-8.14128e-07 -1.74652e-05 0)
(-8.0076e-07 -1.74869e-05 0)
(-7.8778e-07 -1.75081e-05 0)
(-7.75236e-07 -1.75288e-05 0)
(-7.63118e-07 -1.75489e-05 0)
(-7.51451e-07 -1.75685e-05 0)
(-7.40226e-07 -1.75876e-05 0)
(-7.29456e-07 -1.76061e-05 0)
(-7.19098e-07 -1.76242e-05 0)
(-7.09193e-07 -1.76417e-05 0)
(-6.9972e-07 -1.76588e-05 0)
(-6.90676e-07 -1.76754e-05 0)
(-1.52524e-06 -1.59156e-05 0)
(-1.50627e-06 -1.59737e-05 0)
(-1.48815e-06 -1.60309e-05 0)
(-1.47073e-06 -1.6087e-05 0)
(-1.45468e-06 -1.61417e-05 0)
(-1.43989e-06 -1.6195e-05 0)
(-1.42619e-06 -1.62466e-05 0)
(-1.41352e-06 -1.6297e-05 0)
(-1.40159e-06 -1.63459e-05 0)
(-1.39025e-06 -1.63932e-05 0)
(-1.37949e-06 -1.64387e-05 0)
(-1.36919e-06 -1.64825e-05 0)
(-1.35932e-06 -1.65248e-05 0)
(-1.34969e-06 -1.65653e-05 0)
(-1.34017e-06 -1.66041e-05 0)
(-1.33066e-06 -1.66412e-05 0)
(-1.32104e-06 -1.66765e-05 0)
(-1.31127e-06 -1.67102e-05 0)
(-1.30111e-06 -1.67422e-05 0)
(-9.44353e-07 -1.72246e-05 0)
(-9.22878e-07 -1.72429e-05 0)
(-9.01215e-07 -1.72614e-05 0)
(-8.79426e-07 -1.72802e-05 0)
(-8.57685e-07 -1.72993e-05 0)
(-8.36148e-07 -1.73185e-05 0)
(-8.14744e-07 -1.73381e-05 0)
(-7.93673e-07 -1.73579e-05 0)
(-7.73045e-07 -1.73779e-05 0)
(-7.52804e-07 -1.73981e-05 0)
(-7.33073e-07 -1.74185e-05 0)
(-7.13929e-07 -1.74391e-05 0)
(-6.95403e-07 -1.74598e-05 0)
(-6.77547e-07 -1.74805e-05 0)
(-6.60418e-07 -1.75013e-05 0)
(-6.44032e-07 -1.7522e-05 0)
(-6.28369e-07 -1.75428e-05 0)
(-6.13509e-07 -1.75634e-05 0)
(-5.99454e-07 -1.75839e-05 0)
(3.17494e-06 -1.48165e-05 0)
(3.31027e-06 -1.44548e-05 0)
(3.43668e-06 -1.40742e-05 0)
(3.55245e-06 -1.36767e-05 0)
(3.65614e-06 -1.32641e-05 0)
(3.74822e-06 -1.2838e-05 0)
(3.8281e-06 -1.24005e-05 0)
(3.89511e-06 -1.19533e-05 0)
(3.9495e-06 -1.14983e-05 0)
(3.99175e-06 -1.1037e-05 0)
(4.02138e-06 -1.0571e-05 0)
(4.03877e-06 -1.0102e-05 0)
(4.04404e-06 -9.63111e-06 0)
(4.03779e-06 -9.16017e-06 0)
(4.01977e-06 -8.68974e-06 0)
(3.99075e-06 -8.22159e-06 0)
(3.95063e-06 -7.75573e-06 0)
(3.89959e-06 -7.29281e-06 0)
(3.8373e-06 -6.83286e-06 0)
(0 -1.8003e-05 0)
(0 -1.80241e-05 0)
(0 -1.80463e-05 0)
(0 -1.80688e-05 0)
(0 -1.80906e-05 0)
(0 -1.8111e-05 0)
(0 -1.81296e-05 0)
(0 -1.81452e-05 0)
(0 -1.81577e-05 0)
(0 -1.81664e-05 0)
(0 -1.81708e-05 0)
(0 -1.81708e-05 0)
(0 -1.81662e-05 0)
(0 -1.81565e-05 0)
(0 -1.81426e-05 0)
(0 -1.81241e-05 0)
(0 -1.81019e-05 0)
(0 -1.80767e-05 0)
(0 -1.80494e-05 0)
(-1.69312e-07 -1.23844e-07 1.41669e-07)
(-3.31538e-07 -2.04173e-07 2.29106e-07)
(-4.96788e-07 -2.87668e-07 2.82369e-07)
(-6.37579e-07 -3.68652e-07 3.19755e-07)
(-7.65366e-07 -4.52643e-07 3.45847e-07)
(-8.85742e-07 -5.41208e-07 3.6355e-07)
(-1.00157e-06 -6.34904e-07 3.74924e-07)
(-1.11429e-06 -7.33953e-07 3.81436e-07)
(-1.22459e-06 -8.38422e-07 3.84142e-07)
(-1.33282e-06 -9.483e-07 3.83841e-07)
(-1.43916e-06 -1.06367e-06 3.81292e-07)
(-1.54364e-06 -1.18447e-06 3.76994e-07)
(-1.64625e-06 -1.31061e-06 3.71316e-07)
(-1.74697e-06 -1.44202e-06 3.64566e-07)
(-1.84571e-06 -1.57859e-06 3.57009e-07)
(-1.9424e-06 -1.72017e-06 3.48886e-07)
(-2.03688e-06 -1.86639e-06 3.40331e-07)
(-2.12904e-06 -2.01738e-06 3.31423e-07)
(-2.21888e-06 -2.17321e-06 3.22238e-07)
(-2.30642e-06 -2.33366e-06 3.12823e-07)
(-2.39164e-06 -2.49856e-06 3.03256e-07)
(-2.47447e-06 -2.66777e-06 2.93598e-07)
(-2.55489e-06 -2.84117e-06 2.83887e-07)
(-2.63284e-06 -3.01864e-06 2.74151e-07)
(-2.70829e-06 -3.20003e-06 2.64407e-07)
(-2.78122e-06 -3.38523e-06 2.5467e-07)
(-2.85161e-06 -3.57411e-06 2.44948e-07)
(-2.91944e-06 -3.76653e-06 2.3525e-07)
(-2.9847e-06 -3.96236e-06 2.25587e-07)
(-3.04737e-06 -4.16145e-06 2.15979e-07)
(-3.10742e-06 -4.36364e-06 2.06454e-07)
(-3.16483e-06 -4.56866e-06 1.96984e-07)
(-3.21947e-06 -4.77668e-06 1.87566e-07)
(-3.27155e-06 -4.98741e-06 1.78131e-07)
(-3.32108e-06 -5.20079e-06 1.68723e-07)
(-3.36811e-06 -5.41666e-06 1.59337e-07)
(-3.41129e-06 -5.63476e-06 1.49975e-07)
(-3.45309e-06 -5.85506e-06 1.4065e-07)
(-3.49217e-06 -6.07731e-06 1.31498e-07)
(-3.09159e-06 -6.28165e-06 1.10103e-07)
(-2.6816e-06 -6.26423e-06 9.6949e-08)
(-2.28995e-06 -6.24887e-06 8.43017e-08)
(-1.91634e-06 -6.2363e-06 7.12238e-08)
(-1.55757e-06 -6.22619e-06 5.79168e-08)
(-1.21095e-06 -6.21857e-06 4.46157e-08)
(-8.7385e-07 -6.2134e-06 3.12349e-08)
(-5.44481e-07 -6.21057e-06 1.77451e-08)
(-2.20237e-07 -6.21024e-06 4.24275e-09)
(1.0047e-07 -6.21235e-06 -9.51846e-09)
(4.22216e-07 -6.21629e-06 -2.27705e-08)
(7.4696e-07 -6.22234e-06 -3.56939e-08)
(1.07563e-06 -6.2311e-06 -4.8765e-08)
(1.41073e-06 -6.24195e-06 -6.21927e-08)
(1.75743e-06 -6.25427e-06 -7.45611e-08)
(2.11535e-06 -6.26927e-06 -8.69911e-08)
(2.48888e-06 -6.28657e-06 -9.88315e-08)
(2.87914e-06 -6.3058e-06 -1.09936e-07)
(3.29002e-06 -6.32719e-06 -1.20177e-07)
(3.68179e-06 -6.12576e-06 -1.385e-07)
(3.63946e-06 -5.90373e-06 -1.48683e-07)
(3.59255e-06 -5.68225e-06 -1.58923e-07)
(3.54405e-06 -5.46369e-06 -1.68838e-07)
(3.49261e-06 -5.24723e-06 -1.78729e-07)
(3.4384e-06 -5.03324e-06 -1.88599e-07)
(3.3815e-06 -4.82188e-06 -1.9844e-07)
(3.32197e-06 -4.61329e-06 -2.08241e-07)
(3.25983e-06 -4.40753e-06 -2.17944e-07)
(3.19501e-06 -4.20477e-06 -2.2736e-07)
(3.12752e-06 -4.00625e-06 -2.36946e-07)