/*--------------------------------*- C++ -*----------------------------------*\
| =========                 |                                                 |
| \\      /  F ield         | OpenFOAM: The Open Source CFD Toolbox           |
|  \\    /   O peration     | Version:  v2012                                 |
|   \\  /    A nd           | Website:  www.openfoam.com                      |
|    \\/     M anipulation  |                                                 |
\*---------------------------------------------------------------------------*/
FoamFile
{
    version     2.0;
    format      ascii;
    class       volScalarField;
    location    "1";
    object      sigmaHyd;
}
// * * * * * * * * * * * * * * * * * * * * * * * * * * * * * * * * * * * * * //

dimensions      [1 -1 -2 0 0 0 0];


internalField   nonuniform List<scalar> 
376320
(
-7.51749e+06
-6.89095e+06
-6.89095e+06
-6.89095e+06
-7.12014e+06
-6.50909e+06
-7.12014e+06
-7.89498e+06
-6.60094e+06
-7.50158e+06
-7.1713e+06
-7.1713e+06
-6.80234e+06
-7.06273e+06
-7.06273e+06
-6.52065e+06
-7.02477e+06
-7.02477e+06
-6.19142e+06
-7.12843e+06
-7.12843e+06
-5.67458e+06
-7.90137e+06
-7.90137e+06
-3.42395e+06
-3.32248e+06
-3.94902e+06
-3.08262e+06
-2.85856e+06
-3.24042e+06
-3.00042e+06
-2.91493e+06
-3.52168e+06
-2.73583e+06
-2.84617e+06
-3.50014e+06
-2.76773e+06
-3.28599e+06
-2.87524e+06
-2.74391e+06
-3.41732e+06
-2.84852e+06
-2.58397e+06
-3.78636e+06
-2.73565e+06
-2.3325e+06
-3.75992e+06
-4.04389e+06
-4.91506e+06
-4.65425e+06
-4.65425e+06
-4.41439e+06
-4.61101e+06
-4.61101e+06
-4.61101e+06
-4.67732e+06
-4.61101e+06
-4.89162e+06
-4.39234e+06
-4.89162e+06
-4.68286e+06
-4.73453e+06
-4.3402e+06
-4.73453e+06
-4.82323e+06
-4.32203e+06
-4.82323e+06
-5.12282e+06
-4.16657e+06
-5.12282e+06
-5.21617e+06
-5.12282e+06
-2.84535e+06
-3.07118e+06
-3.33198e+06
-2.83131e+06
-2.81068e+06
-3.11e+06
-3.03288e+06
-2.67976e+06
-3.09919e+06
-2.87711e+06
-2.87236e+06
-2.81653e+06
-3.16288e+06
-2.75292e+06
-2.85547e+06
-3.05466e+06
-2.73324e+06
-2.66325e+06
-3.11985e+06
-2.83966e+06
-2.66833e+06
-2.41123e+06
-3.01211e+06
-4.32716e+06
-3.57631e+06
-3.65272e+06
-3.65272e+06
-3.65272e+06
-3.37314e+06
-3.65272e+06
-3.59534e+06
-3.34354e+06
-3.59534e+06
-3.54089e+06
-3.48031e+06
-3.54089e+06
-3.70347e+06
-3.33103e+06
-3.70347e+06
-3.63278e+06
-3.30867e+06
-3.63278e+06
-3.69528e+06
-3.43121e+06
-3.69528e+06
-3.00278e+06
-5.09698e+06
-5.09698e+06
-2.40857e+06
-2.63e+06
-2.55359e+06
-2.45867e+06
-2.42508e+06
-2.62754e+06
-2.45863e+06
-2.42664e+06
-2.63648e+06
-2.41422e+06
-2.43617e+06
-2.62782e+06
-2.40759e+06
-2.3911e+06
-2.6389e+06
-2.34732e+06
-2.38355e+06
-2.70524e+06
-2.22369e+06
-2.41146e+06
-2.98243e+06
-2.0828e+06
-4.06688e+06
-1.97268e+06
-2.74642e+06
-2.91161e+06
-2.91161e+06
-2.74028e+06
-2.91314e+06
-2.91314e+06
-2.72449e+06
-2.91375e+06
-2.91375e+06
-2.70397e+06
-2.9386e+06
-2.9386e+06
-2.68686e+06
-2.96201e+06
-2.96201e+06
-2.61649e+06
-3.03752e+06
-3.03752e+06
-2.49105e+06
-3.34594e+06
-3.34594e+06
-2.33574e+06
-4.3306e+06
-4.3306e+06
-2.01897e+06
-2.20105e+06
-2.03586e+06
-2.04889e+06
-2.20773e+06
-2.03487e+06
-2.04387e+06
-2.21152e+06
-2.02227e+06
-2.02901e+06
-2.22145e+06
-1.98681e+06
-2.00118e+06
-2.25267e+06
-1.97753e+06
-1.95466e+06
-2.33759e+06
-1.91656e+06
-1.87432e+06
-2.61077e+06
-1.75588e+06
-1.7682e+06
-3.50099e+06
-1.50613e+06
-2.17874e+06
-2.34727e+06
-2.34727e+06
-2.1951e+06
-2.35431e+06
-2.35431e+06
-2.19045e+06
-2.36088e+06
-2.36088e+06
-2.17837e+06
-2.37451e+06
-2.37451e+06
-2.15425e+06
-2.40415e+06
-2.40415e+06
-2.10614e+06
-2.48932e+06
-2.48932e+06
-2.02605e+06
-2.76189e+06
-2.76189e+06
-1.91932e+06
-3.63707e+06
-3.63707e+06
-1.63318e+06
-1.78227e+06
-1.61375e+06
-1.65632e+06
-1.78948e+06
-1.63027e+06
-1.65407e+06
-1.79511e+06
-1.62468e+06
-1.64379e+06
-1.80409e+06
-1.60795e+06
-1.62178e+06
-1.83291e+06
-1.583e+06
-1.58788e+06
-1.91074e+06
-1.52756e+06
-1.53088e+06
-2.13847e+06
-1.40264e+06
-1.45106e+06
-2.8853e+06
-1.16755e+06
-1.71754e+06
-1.86696e+06
-1.86696e+06
-1.74101e+06
-1.87553e+06
-1.87553e+06
-1.74012e+06
-1.88236e+06
-1.88236e+06
-1.73104e+06
-1.89252e+06
-1.89252e+06
-1.71021e+06
-1.92035e+06
-1.92035e+06
-1.67533e+06
-1.99702e+06
-1.99702e+06
-1.61716e+06
-2.22486e+06
-2.22486e+06
-1.53745e+06
-2.96743e+06
-2.96743e+06
-1.26374e+06
-1.38428e+06
-1.23486e+06
-1.28473e+06
-1.3914e+06
-1.25688e+06
-1.28439e+06
-1.39671e+06
-1.25447e+06
-1.27694e+06
-1.4048e+06
-1.24332e+06
-1.26069e+06
-1.42876e+06
-1.21861e+06
-1.23555e+06
-1.49269e+06
-1.17099e+06
-1.19309e+06
-1.67596e+06
-1.06825e+06
-1.13659e+06
-2.28039e+06
-850414
-1.31175e+06
-1.43489e+06
-1.43489e+06
-1.33535e+06
-1.44313e+06
-1.44313e+06
-1.33611e+06
-1.44898e+06
-1.44898e+06
-1.32921e+06
-1.45761e+06
-1.45761e+06
-1.31351e+06
-1.48119e+06
-1.48119e+06
-1.28798e+06
-1.54467e+06
-1.54467e+06
-1.24508e+06
-1.72853e+06
-1.72853e+06
-1.18916e+06
-2.33099e+06
-2.33099e+06
-910748
-1.00334e+06
-880201
-929872
-1.00989e+06
-902105
-930832
-1.01434e+06
-901467
-925806
-1.02116e+06
-892752
-914580
-1.0396e+06
-871919
-896532
-1.08851e+06
-831816
-866286
-1.22814e+06
-744683
-831844
-1.68864e+06
-546805
-938009
-1.03315e+06
-1.03315e+06
-959672
-1.04058e+06
-1.04058e+06
-961528
-1.04544e+06
-1.04544e+06
-956909
-1.05252e+06
-1.05252e+06
-945940
-1.07088e+06
-1.07088e+06
-927812
-1.11981e+06
-1.11981e+06
-897577
-1.25987e+06
-1.25987e+06
-863575
-1.71915e+06
-1.71915e+06
-569556
-634614
-539478
-586927
-640440
-559531
-588987
-644011
-560100
-586298
-649114
-553507
-579334
-661897
-536957
-567573
-695636
-503642
-548514
-791617
-429326
-534868
-1.10752e+06
-251944
-583908
-651006
-651006
-603318
-657512
-657512
-606059
-661377
-661377
-603663
-666608
-666608
-596828
-679434
-679434
-585110
-713312
-713312
-566190
-809571
-809571
-552823
-1.12476e+06
-1.12476e+06
-235634
-273561
-206463
-251472
-278657
-224463
-254568
-281374
-226056
-254148
-284565
-221621
-251030
-291730
-209125
-245180
-310274
-182072
-236734
-362565
-119183
-243065
-533799
38140
-241264
-280721
-280721
-258632
-286288
-286288
-262199
-289165
-289165
-261940
-292376
-292376
-258841
-299554
-299554
-253004
-318198
-318198
-244658
-370680
-370680
-251181
-541707
-541707
95273.5
84123.6
123581
80672.7
79691.3
107347
76500.6
77756.5
104723
74642
76480.6
106917
74050.3
74832.5
115545
74107.8
71438.1
136633
72194.2
62802.4
188824
46206.5
36200.4
326727
96276.9
84036.3
84036.3
80585.5
79345.7
79345.7
76154.9
77411.6
77411.6
74297.1
76253.9
76253.9
73823.6
74710.2
74710.2
73985.5
71320.9
71320.9
72077
62534.6
62534.6
45938.7
35611.8
35611.8
427315
442675
454915
413604
438770
440009
408222
437487
436230
403973
438014
436057
399590
441739
440853
393748
453385
456050
381417
488267
497809
335621
606391
616718
434368
449019
449019
419948
445068
445068
414521
443957
443957
410443
444752
444752
406328
448725
448725
400733
460504
460504
388536
495276
495276
342630
612571
612571
764649
806369
791718
751473
802803
777682
744680
802006
772570
737835
804184
769874
729413
813143
770746
717351
839680
779908
694234
917783
811043
627987
1.18082e+06
910882
778531
819873
819873
764977
816451
816451
758328
815963
815963
751792
818526
818526
743756
827859
827859
732066
854676
854676
709231
932791
932791
642995
1.19462e+06
1.19462e+06
1.11142e+06
1.17964e+06
1.1383e+06
1.09865e+06
1.1763e+06
1.12483e+06
1.09029e+06
1.17591e+06
1.11828e+06
1.08065e+06
1.17969e+06
1.11296e+06
1.06786e+06
1.19385e+06
1.10974e+06
1.04905e+06
1.23509e+06
1.11248e+06
1.01442e+06
1.35578e+06
1.13222e+06
926489
1.76368e+06
1.21205e+06
1.13423e+06
1.20238e+06
1.20238e+06
1.12138e+06
1.19936e+06
1.19936e+06
1.11335e+06
1.19939e+06
1.19939e+06
1.10413e+06
1.20364e+06
1.20364e+06
1.0918e+06
1.21829e+06
1.21829e+06
1.07349e+06
1.26003e+06
1.26003e+06
1.03936e+06
1.38104e+06
1.38104e+06
951755
1.78766e+06
1.78766e+06
1.47285e+06
1.56824e+06
1.50009e+06
1.46084e+06
1.56524e+06
1.48727e+06
1.45096e+06
1.56533e+06
1.47929e+06
1.43833e+06
1.57075e+06
1.47124e+06
1.42065e+06
1.59003e+06
1.46354e+06
1.39417e+06
1.64557e+06
1.45903e+06
1.34671e+06
1.80735e+06
1.46566e+06
1.23493e+06
2.35911e+06
1.5232e+06
1.50806e+06
1.60393e+06
1.60393e+06
1.49653e+06
1.60167e+06
1.60167e+06
1.48738e+06
1.60245e+06
1.60245e+06
1.47545e+06
1.60851e+06
1.60851e+06
1.45841e+06
1.62845e+06
1.62845e+06
1.43259e+06
1.68479e+06
1.68479e+06
1.38593e+06
1.84748e+06
1.84748e+06
1.27506e+06
2.3983e+06
2.3983e+06
1.85793e+06
1.98065e+06
1.88478e+06
1.84632e+06
1.977e+06
1.87186e+06
1.83395e+06
1.97662e+06
1.86155e+06
1.81709e+06
1.98307e+06
1.85002e+06
1.79319e+06
2.00712e+06
1.83707e+06
1.75758e+06
2.07643e+06
1.82424e+06
1.69531e+06
2.2768e+06
1.81524e+06
1.55662e+06
2.97022e+06
1.84698e+06
1.91165e+06
2.03626e+06
2.03626e+06
1.90193e+06
2.03428e+06
2.03428e+06
1.89124e+06
2.03517e+06
2.03517e+06
1.87564e+06
2.04235e+06
2.04235e+06
1.85248e+06
2.06705e+06
2.06705e+06
1.81751e+06
2.13743e+06
2.13743e+06
1.75631e+06
2.33954e+06
2.33954e+06
1.61936e+06
3.03285e+06
3.03285e+06
2.28049e+06
2.42862e+06
2.30401e+06
2.26666e+06
2.4209e+06
2.28855e+06
2.24865e+06
2.41736e+06
2.27343e+06
2.22426e+06
2.4237e+06
2.25698e+06
2.19263e+06
2.45272e+06
2.23815e+06
2.14693e+06
2.53563e+06
2.21571e+06
2.06679e+06
2.76998e+06
2.18675e+06
1.8964e+06
3.60102e+06
2.18753e+06
2.36629e+06
2.51871e+06
2.51871e+06
2.35675e+06
2.51355e+06
2.51355e+06
2.34131e+06
2.51113e+06
2.51113e+06
2.31803e+06
2.51698e+06
2.51698e+06
2.28591e+06
2.54587e+06
2.54587e+06
2.24008e+06
2.63029e+06
2.63029e+06
2.16145e+06
2.86735e+06
2.86735e+06
1.99377e+06
3.69921e+06
3.69921e+06
2.74582e+06
2.91976e+06
2.76734e+06
2.72953e+06
2.90467e+06
2.74786e+06
2.70436e+06
2.89981e+06
2.72999e+06
2.67402e+06
2.91402e+06
2.71507e+06
2.64254e+06
2.95424e+06
2.69428e+06
2.58865e+06
3.04522e+06
2.655e+06
2.47863e+06
3.30051e+06
2.59461e+06
2.26526e+06
4.26427e+06
2.55883e+06
2.88726e+06
3.07037e+06
3.07037e+06
2.88014e+06
3.05833e+06
3.05833e+06
2.85802e+06
3.05413e+06
3.05413e+06
2.82834e+06
3.06655e+06
3.06655e+06
2.79506e+06
3.10756e+06
3.10756e+06
2.74196e+06
3.20157e+06
3.20157e+06
2.63498e+06
3.45711e+06
3.45711e+06
2.42186e+06
4.41894e+06
4.41894e+06
3.32931e+06
3.50599e+06
3.32288e+06
3.28837e+06
3.46682e+06
3.28863e+06
3.2425e+06
3.45126e+06
3.25515e+06
3.19581e+06
3.46567e+06
3.22746e+06
3.15425e+06
3.48883e+06
3.17633e+06
3.07012e+06
3.56589e+06
3.10628e+06
2.89134e+06
3.89307e+06
3.07095e+06
2.65781e+06
5.03751e+06
3.04043e+06
3.59187e+06
3.77975e+06
3.77975e+06
3.56214e+06
3.73802e+06
3.73802e+06
3.5137e+06
3.71949e+06
3.71949e+06
3.46404e+06
3.72734e+06
3.72734e+06
3.41592e+06
3.75289e+06
3.75289e+06
3.33418e+06
3.83318e+06
3.83318e+06
3.15863e+06
4.16249e+06
4.16249e+06
2.92723e+06
5.30791e+06
5.30791e+06
4.16929e+06
4.24293e+06
4.05504e+06
4.01433e+06
4.19718e+06
4.0213e+06
3.94442e+06
4.17991e+06
3.97412e+06
3.88234e+06
4.20771e+06
3.9444e+06
3.83424e+06
4.21807e+06
3.8811e+06
3.69911e+06
4.29872e+06
3.79972e+06
3.51918e+06
4.6612e+06
3.65734e+06
3.3175e+06
5.84077e+06
3.46009e+06
4.78857e+06
4.80651e+06
4.80651e+06
4.57791e+06
4.74674e+06
4.74674e+06
4.49398e+06
4.71831e+06
4.71831e+06
4.42075e+06
4.72377e+06
4.72377e+06
4.3503e+06
4.74084e+06
4.74084e+06
4.22188e+06
4.79691e+06
4.79691e+06
4.01738e+06
5.15325e+06
5.15325e+06
3.80955e+06
6.35094e+06
6.35094e+06
6.12282e+06
6.43919e+06
5.86016e+06
6.21059e+06
6.42342e+06
6.09756e+06
6.17067e+06
6.3955e+06
6.11883e+06
6.09793e+06
6.35181e+06
6.05936e+06
5.97835e+06
6.35522e+06
5.9637e+06
5.83626e+06
6.4238e+06
5.76464e+06
5.64427e+06
6.79949e+06
5.50651e+06
5.4558e+06
8.55812e+06
4.97448e+06
-4.8555e+06
-5.53901e+06
-4.47815e+06
-5.72024e+06
-5.8929e+06
-5.29649e+06
-5.42943e+06
-4.79462e+06
-4.90714e+06
-4.42825e+06
-5.24843e+06
-4.92932e+06
-4.78313e+06
-5.22303e+06
-5.11552e+06
-4.62422e+06
-5.19172e+06
-5.08712e+06
-4.3708e+06
-5.19796e+06
-5.04629e+06
-4.01593e+06
-4.42304e+06
-4.78137e+06
-3.11417e+06
-3.02992e+06
-3.40727e+06
-3.05844e+06
-2.83231e+06
-3.25607e+06
-2.82408e+06
-2.95752e+06
-2.94629e+06
-2.64752e+06
-3.10625e+06
-3.01721e+06
-2.71252e+06
-3.04299e+06
-2.86096e+06
-2.5507e+06
-3.08134e+06
-2.68313e+06
-2.39507e+06
-3.06445e+06
-2.50267e+06
-2.21965e+06
-1.84307e+06
-2.32897e+06
-4.15971e+06
-4.53678e+06
-4.05015e+06
-4.34921e+06
-4.55256e+06
-4.51582e+06
-4.30183e+06
-4.2618e+06
-4.34617e+06
-3.93485e+06
-4.45753e+06
-4.03036e+06
-4.0638e+06
-4.36496e+06
-4.34514e+06
-3.81534e+06
-4.37676e+06
-4.28059e+06
-3.597e+06
-4.26433e+06
-4.21087e+06
-3.34995e+06
-3.1043e+06
-4.28917e+06
-2.6488e+06
-2.91493e+06
-3.02449e+06
-2.70325e+06
-2.79425e+06
-2.59584e+06
-2.58518e+06
-2.81959e+06
-2.42325e+06
-2.54699e+06
-2.72055e+06
-2.62504e+06
-2.38657e+06
-2.81545e+06
-2.35441e+06
-2.37295e+06
-2.79363e+06
-2.20869e+06
-2.18893e+06
-2.81508e+06
-2.24952e+06
-2.13259e+06
-2.9713e+06
-2.03208e+06
-3.4172e+06
-3.63833e+06
-3.49332e+06
-3.42665e+06
-3.57874e+06
-3.55495e+06
-3.36967e+06
-3.60488e+06
-3.58243e+06
-3.33229e+06
-3.46488e+06
-3.60551e+06
-3.13089e+06
-3.53698e+06
-3.48278e+06
-3.09447e+06
-3.50923e+06
-3.53551e+06
-2.90453e+06
-3.45746e+06
-3.68716e+06
-2.77497e+06
-3.48217e+06
-3.59229e+06
-2.27311e+06
-2.4349e+06
-2.35878e+06
-2.25054e+06
-2.43741e+06
-2.30911e+06
-2.23654e+06
-2.44113e+06
-2.22837e+06
-2.21475e+06
-2.45384e+06
-2.18062e+06
-2.16757e+06
-2.49113e+06
-2.13925e+06
-2.10017e+06
-2.5464e+06
-2.10537e+06
-2.02433e+06
-2.60912e+06
-1.82649e+06
-1.975e+06
-2.55301e+06
-1.73568e+06
-2.74443e+06
-2.89221e+06
-2.87532e+06
-2.70784e+06
-2.87044e+06
-2.88445e+06
-2.66957e+06
-2.86591e+06
-2.8875e+06
-2.63953e+06
-2.85307e+06
-2.89527e+06
-2.5668e+06
-2.87643e+06
-2.90008e+06
-2.48547e+06
-2.90787e+06
-2.94598e+06
-2.3858e+06
-2.9517e+06
-3.07015e+06
-2.31758e+06
-2.86445e+06
-3.12652e+06
-1.91344e+06
-2.0663e+06
-1.93542e+06
-1.90901e+06
-2.07251e+06
-1.8959e+06
-1.90516e+06
-2.08033e+06
-1.8624e+06
-1.88575e+06
-2.08927e+06
-1.83353e+06
-1.84426e+06
-2.1157e+06
-1.78241e+06
-1.78925e+06
-2.16145e+06
-1.70094e+06
-1.72332e+06
-2.21117e+06
-1.52682e+06
-1.68014e+06
-2.17186e+06
-1.36292e+06
-2.18459e+06
-2.32281e+06
-2.34224e+06
-2.16552e+06
-2.3163e+06
-2.34235e+06
-2.14895e+06
-2.31965e+06
-2.34904e+06
-2.12507e+06
-2.3212e+06
-2.35703e+06
-2.07619e+06
-2.34148e+06
-2.38026e+06
-2.01503e+06
-2.37649e+06
-2.43681e+06
-1.93837e+06
-2.42072e+06
-2.54896e+06
-1.88969e+06
-2.36507e+06
-2.64858e+06
-1.56475e+06
-1.69635e+06
-1.5387e+06
-1.56508e+06
-1.69961e+06
-1.52279e+06
-1.56112e+06
-1.70584e+06
-1.50574e+06
-1.54366e+06
-1.71449e+06
-1.48253e+06
-1.51153e+06
-1.73606e+06
-1.43199e+06
-1.46805e+06
-1.77347e+06
-1.3517e+06
-1.41382e+06
-1.82071e+06
-1.21012e+06
-1.38837e+06
-1.78972e+06
-1.03083e+06
-1.72099e+06
-1.84476e+06
-1.87365e+06
-1.71349e+06
-1.84389e+06
-1.87174e+06
-1.70539e+06
-1.84869e+06
-1.8786e+06
-1.68651e+06
-1.8553e+06
-1.88892e+06
-1.65233e+06
-1.87365e+06
-1.91573e+06
-1.60564e+06
-1.90654e+06
-1.9711e+06
-1.54689e+06
-1.95069e+06
-2.07553e+06
-1.51835e+06
-1.9124e+06
-2.19857e+06
-1.22162e+06
-1.32795e+06
-1.17529e+06
-1.22287e+06
-1.32977e+06
-1.17152e+06
-1.21994e+06
-1.33519e+06
-1.16198e+06
-1.20629e+06
-1.34355e+06
-1.14114e+06
-1.18266e+06
-1.36084e+06
-1.09744e+06
-1.14914e+06
-1.39132e+06
-1.02586e+06
-1.10777e+06
-1.4318e+06
-903169
-1.09564e+06
-1.4054e+06
-725179
-1.31394e+06
-1.41783e+06
-1.44837e+06
-1.31274e+06
-1.41886e+06
-1.44662e+06
-1.30902e+06
-1.42394e+06
-1.4533e+06
-1.29504e+06
-1.43133e+06
-1.46438e+06
-1.27044e+06
-1.4471e+06
-1.48976e+06
-1.2354e+06
-1.47576e+06
-1.54048e+06
-1.19221e+06
-1.51477e+06
-1.63637e+06
-1.1786e+06
-1.48498e+06
-1.77002e+06
-885981
-967030
-832601
-888194
-968313
-834430
-886991
-973042
-828758
-877428
-980200
-810857
-860761
-993692
-774370
-836647
-1.01745e+06
-712366
-808064
-1.04879e+06
-604633
-806842
-1.02428e+06
-432861
-941576
-1.0224e+06
-1.05248e+06
-943565
-1.02386e+06
-1.05126e+06
-942540
-1.02861e+06
-1.0575e+06
-932998
-1.03535e+06
-1.06814e+06
-915908
-1.04825e+06
-1.09063e+06
-891206
-1.07133e+06
-1.13526e+06
-861948
-1.10198e+06
-1.22117e+06
-860033
-1.07555e+06
-1.35847e+06
-557632
-613459
-502557
-560809
-614436
-506742
-561440
-618436
-503476
-555815
-624102
-488962
-545411
-633989
-459269
-530331
-650780
-406726
-514062
-671529
-312310
-522383
-646521
-148084
-590648
-646960
-676130
-594309
-648361
-675370
-595366
-652521
-681033
-589901
-658068
-690595
-579377
-667795
-709700
-564136
-684389
-747497
-547671
-704817
-822367
-555671
-678534
-959739
-234286
-264911
-179430
-238351
-265653
-184593
-240847
-268925
-183258
-239021
-273054
-172360
-234573
-279396
-149072
-228269
-289004
-105644
-223931
-298321
-23624.7
-241051
-271101
132968
-252439
-283690
-311997
-257130
-284868
-311541
-260061
-288325
-316548
-258422
-292461
-324736
-253980
-298794
-340289
-247667
-308386
-370911
-243313
-317573
-434203
-260303
-289499
-570019
87165.9
81721.8
141280
82244.8
81165.3
135577
77816.1
78555.3
135042
75872
75876.7
142191
74421.4
73000.4
159310
72016.3
70651.3
193895
64581.6
73154.6
264045
38984.3
103533
413249
79546.9
73532.8
45932.8
74055.8
72628.5
46222.7
69279.3
69891.8
41883.7
67208.5
67221.7
35137.1
65766.3
64358.7
23095.8
63374.6
61989.8
-312.402
55920.2
64489.7
-51902.3
30319.4
95334.4
-185762
410209
429941
463555
404401
429481
457314
397881
427392
454788
392057
425986
458058
384557
426423
469093
373284
431255
494942
353982
445560
553382
319912
479223
695304
410830
430139
403070
404600
429490
403282
397891
427408
399518
392072
426120
394080
384691
426652
385320
373514
431472
368914
354199
445624
328815
319976
479337
196442
738522
783488
791248
731774
782972
784290
722907
781228
779600
712980
780880
778872
699113
784453
783824
678605
796266
800865
647098
821913
847297
604311
857950
981484
746739
791482
764600
739768
790947
764766
730882
789323
761337
721075
789180
756873
707413
792889
751005
687041
804644
741209
655476
829929
712134
612328
865593
580032
1.07585e+06
1.14628e+06
1.12842e+06
1.06821e+06
1.14558e+06
1.12059e+06
1.05679e+06
1.14415e+06
1.11369e+06
1.04259e+06
1.14478e+06
1.10899e+06
1.02198e+06
1.15142e+06
1.10783e+06
991693
1.16991e+06
1.11574e+06
947382
1.20582e+06
1.14916e+06
895412
1.24177e+06
1.27406e+06
1.0927e+06
1.1629e+06
1.13566e+06
1.08483e+06
1.16206e+06
1.13563e+06
1.07327e+06
1.16057e+06
1.13223e+06
1.05901e+06
1.16129e+06
1.12838e+06
1.03849e+06
1.168e+06
1.1251e+06
1.00827e+06
1.18636e+06
1.1215e+06
963828
1.22171e+06
1.10276e+06
911306
1.25703e+06
968755
1.42651e+06
1.52319e+06
1.48023e+06
1.41862e+06
1.52262e+06
1.47182e+06
1.40483e+06
1.52191e+06
1.46294e+06
1.38645e+06
1.52369e+06
1.45432e+06
1.35873e+06
1.53334e+06
1.44672e+06
1.3177e+06
1.55785e+06
1.44462e+06
1.25947e+06
1.60182e+06
1.46289e+06
1.19752e+06
1.63256e+06
1.57511e+06
1.4537e+06
1.54965e+06
1.5228e+06
1.44508e+06
1.54847e+06
1.52293e+06
1.43068e+06
1.54734e+06
1.51975e+06
1.41189e+06
1.54923e+06
1.5163e+06
1.38427e+06
1.5592e+06
1.51532e+06
1.34356e+06
1.58368e+06
1.51703e+06
1.2853e+06
1.62698e+06
1.50706e+06
1.22269e+06
1.65726e+06
1.3669e+06
1.80001e+06
1.92288e+06
1.85378e+06
1.79176e+06
1.9217e+06
1.84386e+06
1.77453e+06
1.92091e+06
1.83184e+06
1.75089e+06
1.923e+06
1.81859e+06
1.71453e+06
1.9347e+06
1.80365e+06
1.66039e+06
1.9641e+06
1.79063e+06
1.58676e+06
2.01323e+06
1.79148e+06
1.51459e+06
2.02964e+06
1.88543e+06
1.83748e+06
1.95924e+06
1.93572e+06
1.82812e+06
1.95756e+06
1.93567e+06
1.81038e+06
1.95705e+06
1.93228e+06
1.78703e+06
1.96069e+06
1.92797e+06
1.75222e+06
1.97383e+06
1.92831e+06
1.69952e+06
2.00273e+06
1.93395e+06
1.62539e+06
2.05065e+06
1.93068e+06
1.55201e+06
2.06799e+06
1.77686e+06
2.20963e+06
2.35775e+06
2.25952e+06
2.20062e+06
2.35386e+06
2.24632e+06
2.17729e+06
2.35125e+06
2.22935e+06
2.1457e+06
2.35151e+06
2.21057e+06
2.097e+06
2.36152e+06
2.18543e+06
2.02473e+06
2.39574e+06
2.16131e+06
1.93743e+06
2.44862e+06
2.14332e+06
1.85789e+06
2.43102e+06
2.20617e+06
2.26172e+06
2.4078e+06
2.38628e+06
2.25067e+06
2.40383e+06
2.38549e+06
2.22725e+06
2.40183e+06
2.3762e+06
2.19628e+06
2.40366e+06
2.3626e+06
2.14914e+06
2.41246e+06
2.36071e+06
2.07566e+06
2.44166e+06
2.37531e+06
1.98335e+06
2.49516e+06
2.37919e+06
1.90443e+06
2.48582e+06
2.19226e+06
2.66559e+06
2.83099e+06
2.70643e+06
2.64978e+06
2.81867e+06
2.68384e+06
2.61545e+06
2.81524e+06
2.66629e+06
2.57158e+06
2.81817e+06
2.65185e+06
2.51279e+06
2.83739e+06
2.62581e+06
2.43332e+06
2.90789e+06
2.60825e+06
2.36962e+06
2.95528e+06
2.55945e+06
2.28959e+06
2.82333e+06
2.53551e+06
2.72103e+06
2.88648e+06
2.8929e+06
2.70526e+06
2.87698e+06
2.87672e+06
2.67375e+06
2.8757e+06
2.86305e+06
2.63204e+06
2.88257e+06
2.85092e+06
2.57719e+06
2.89746e+06
2.87538e+06
2.4934e+06
2.9633e+06
2.92714e+06
2.42503e+06
3.00997e+06
2.83036e+06
2.34428e+06
2.87559e+06
2.49297e+06
3.24061e+06
3.42461e+06
3.25274e+06
3.21003e+06
3.38653e+06
3.21508e+06
3.1538e+06
3.37222e+06
3.18292e+06
3.09071e+06
3.37482e+06
3.15594e+06
3.02986e+06
3.39779e+06
3.09961e+06
2.93742e+06
3.44079e+06
3.00704e+06
2.95563e+06
3.51412e+06
2.75974e+06
2.9564e+06
3.52283e+06
2.64329e+06
3.19844e+06
3.44683e+06
3.56108e+06
3.23225e+06
3.40382e+06
3.39686e+06
3.17109e+06
3.3933e+06
3.36361e+06
3.11179e+06
3.41324e+06
3.35117e+06
3.06827e+06
3.41946e+06
3.3726e+06
2.95909e+06
3.46627e+06
3.36566e+06
3.10544e+06
3.56181e+06
2.73979e+06
2.89266e+06
3.55282e+06
2.56355e+06
4.01489e+06
4.18216e+06
3.81952e+06
4.03082e+06
4.25978e+06
3.99683e+06
4.03803e+06
4.23512e+06
3.99631e+06
3.98205e+06
4.18886e+06
3.92204e+06
3.88603e+06
3.91329e+06
4.05469e+06
3.83342e+06
3.94216e+06
4.02429e+06
4.05188e+06
3.97895e+06
3.80517e+06
3.71895e+06
3.8944e+06
3.7103e+06
3.63404e+06
3.47636e+06
3.73902e+06
3.25748e+06
3.4074e+06
3.52043e+06
3.21533e+06
3.40232e+06
3.45415e+06
3.14853e+06
3.37678e+06
3.41535e+06
3.33911e+06
3.40745e+06
3.19771e+06
3.30443e+06
3.46841e+06
3.22229e+06
3.28232e+06
3.31442e+06
3.15847e+06
2.88004e+06
2.73428e+06
3.04041e+06
4.91402e+06
4.61334e+06
4.89987e+06
4.68184e+06
4.58072e+06
4.80473e+06
4.61978e+06
4.54136e+06
4.79739e+06
4.54859e+06
4.51203e+06
4.77744e+06
4.47658e+06
4.44803e+06
4.68632e+06
4.33132e+06
4.40269e+06
4.57744e+06
4.20861e+06
4.38315e+06
4.36456e+06
4.08806e+06
4.09944e+06
3.78194e+06
-4.23813e+06
-4.41639e+06
-3.87804e+06
-4.44491e+06
-4.00218e+06
-4.16398e+06
-3.99396e+06
-3.95823e+06
-3.80755e+06
-4.03926e+06
-4.18479e+06
-3.77598e+06
-4.0812e+06
-4.12862e+06
-3.84315e+06
-4.03307e+06
-4.11002e+06
-3.7893e+06
-3.90153e+06
-4.05073e+06
-3.69313e+06
-3.75584e+06
-4.12568e+06
-3.56638e+06
-2.89177e+06
-2.71769e+06
-3.07778e+06
-2.94306e+06
-2.68224e+06
-2.80483e+06
-2.96471e+06
-2.64861e+06
-2.69793e+06
-2.89537e+06
-2.63547e+06
-2.68508e+06
-2.80916e+06
-2.57059e+06
-2.65155e+06
-2.74376e+06
-2.57289e+06
-2.6727e+06
-2.49989e+06
-2.36006e+06
-2.56847e+06
-2.30317e+06
-1.90738e+06
-2.09684e+06
-3.6715e+06
-3.90555e+06
-3.52986e+06
-3.96277e+06
-3.72575e+06
-3.86398e+06
-3.98655e+06
-3.6534e+06
-3.92018e+06
-3.85876e+06
-3.64556e+06
-3.85585e+06
-3.85216e+06
-3.60036e+06
-3.75796e+06
-3.76419e+06
-3.59375e+06
-3.66481e+06
-3.36081e+06
-3.59256e+06
-3.53197e+06
-3.14854e+06
-3.1317e+06
-3.23221e+06
-2.45465e+06
-2.58056e+06
-2.7222e+06
-2.40285e+06
-2.34291e+06
-2.60004e+06
-2.41134e+06
-2.35232e+06
-2.55577e+06
-2.35837e+06
-2.29607e+06
-2.51264e+06
-2.27333e+06
-2.26075e+06
-2.51203e+06
-2.19811e+06
-2.28705e+06
-2.53039e+06
-2.18356e+06
-2.43508e+06
-2.26391e+06
-2.0329e+06
-2.10302e+06
-2.01935e+06
-3.15429e+06
-3.27968e+06
-3.194e+06
-3.10198e+06
-3.31883e+06
-3.26026e+06
-3.14328e+06
-3.32549e+06
-3.33367e+06
-3.08751e+06
-3.29829e+06
-3.33242e+06
-2.98175e+06
-3.29019e+06
-3.31852e+06
-2.87662e+06
-3.2958e+06
-3.29061e+06
-2.8354e+06
-3.06199e+06
-3.25983e+06
-2.65981e+06
-2.6909e+06
-2.93022e+06
-2.12369e+06
-2.28803e+06
-2.24831e+06
-2.11983e+06
-2.28497e+06
-2.12668e+06
-2.0968e+06
-2.27894e+06
-2.08856e+06
-2.05632e+06
-2.27155e+06
-2.02664e+06
-1.99375e+06
-2.2787e+06
-1.94194e+06
-1.93271e+06
-2.26245e+06
-1.84846e+06
-1.87258e+06
-2.16715e+06
-1.74272e+06
-1.83161e+06
-1.88387e+06
-1.61346e+06
-2.62432e+06
-2.77049e+06
-2.74852e+06
-2.6023e+06
-2.76896e+06
-2.78207e+06
-2.58079e+06
-2.75587e+06
-2.79863e+06
-2.53325e+06
-2.73368e+06
-2.7859e+06
-2.45588e+06
-2.72645e+06
-2.78829e+06
-2.38046e+06
-2.69616e+06
-2.78447e+06
-2.30629e+06
-2.5634e+06
-2.7599e+06
-2.22786e+06
-2.24912e+06
-2.56634e+06
-1.81202e+06
-1.94997e+06
-1.82578e+06
-1.80314e+06
-1.94938e+06
-1.7696e+06
-1.78514e+06
-1.94865e+06
-1.73081e+06
-1.75617e+06
-1.94896e+06
-1.69631e+06
-1.71262e+06
-1.95154e+06
-1.61913e+06
-1.66221e+06
-1.93566e+06
-1.53165e+06
-1.60786e+06
-1.86214e+06
-1.40853e+06
-1.58242e+06
-1.60837e+06
-1.26988e+06
-2.13734e+06
-2.26086e+06
-2.28691e+06
-2.11403e+06
-2.25513e+06
-2.29742e+06
-2.09089e+06
-2.24713e+06
-2.30251e+06
-2.05465e+06
-2.23977e+06
-2.3009e+06
-2.00343e+06
-2.23216e+06
-2.31171e+06
-1.94283e+06
-2.20486e+06
-2.32121e+06
-1.87706e+06
-2.1135e+06
-2.31721e+06
-1.83378e+06
-1.84443e+06
-2.20197e+06
-1.49192e+06
-1.60569e+06
-1.45612e+06
-1.48261e+06
-1.60772e+06
-1.42433e+06
-1.47033e+06
-1.60898e+06
-1.39737e+06
-1.44836e+06
-1.61153e+06
-1.36528e+06
-1.41605e+06
-1.61116e+06
-1.30288e+06
-1.37381e+06
-1.59786e+06
-1.21948e+06
-1.32914e+06
-1.53905e+06
-1.09889e+06
-1.31321e+06
-1.3241e+06
-955913
-1.69774e+06
-1.80381e+06
-1.85014e+06
-1.68072e+06
-1.80129e+06
-1.85264e+06
-1.66391e+06
-1.7981e+06
-1.85605e+06
-1.63748e+06
-1.79555e+06
-1.86071e+06
-1.60008e+06
-1.78992e+06
-1.87513e+06
-1.55256e+06
-1.77036e+06
-1.89364e+06
-1.50164e+06
-1.70341e+06
-1.90802e+06
-1.47758e+06
-1.48153e+06
-1.85199e+06
-1.17091e+06
-1.26266e+06
-1.11026e+06
-1.16387e+06
-1.26472e+06
-1.09281e+06
-1.15502e+06
-1.26619e+06
-1.07405e+06
-1.13834e+06
-1.26844e+06
-1.04521e+06
-1.11351e+06
-1.26784e+06
-992783
-1.08062e+06
-1.25759e+06
-916512
-1.04685e+06
-1.21113e+06
-804752
-1.03849e+06
-1.03674e+06
-662332
-1.3012e+06
-1.38907e+06
-1.44245e+06
-1.29028e+06
-1.38871e+06
-1.44247e+06
-1.279e+06
-1.38804e+06
-1.44627e+06
-1.26019e+06
-1.38767e+06
-1.45425e+06
-1.23275e+06
-1.38447e+06
-1.47086e+06
-1.19725e+06
-1.371e+06
-1.49528e+06
-1.16026e+06
-1.32079e+06
-1.52422e+06
-1.14815e+06
-1.14307e+06
-1.51705e+06
-852879
-922290
-781045
-848099
-923883
-771686
-842142
-925366
-758099
-830400
-927373
-733319
-812503
-927267
-689155
-789068
-919738
-621709
-766095
-884151
-520191
-764114
-749208
-380306
-935713
-1.00348e+06
-1.05855e+06
-929285
-1.00414e+06
-1.0582e+06
-922394
-1.00474e+06
-1.0627e+06
-909772
-1.00553e+06
-1.07238e+06
-890661
-1.00418e+06
-1.09032e+06
-865983
-995107
-1.11871e+06
-841464
-957726
-1.15948e+06
-837690
-820824
-1.19512e+06
-538623
-585324
-462486
-535895
-586539
-457622
-532776
-588036
-447727
-525757
-589976
-427364
-514633
-590419
-390755
-500428
-585243
-332515
-487961
-559376
-241361
-491515
-462084
-104652
-591032
-637245
-692102
-587816
-638286
-692044
-584523
-639529
-697119
-577250
-640998
-707659
-565654
-640921
-726423
-550931
-635070
-757694
-537788
-608300
-808606
-540439
-509575
-883593
-227088
-250819
-149750
-226233
-251781
-147554
-225941
-253318
-140722
-223525
-255330
-124922
-219107
-256287
-95518
-213966
-253193
-46429.6
-211755
-236245
34573.7
-220279
-175153
168001
-259359
-283147
-337262
-258561
-284273
-337605
-258432
-285854
-343079
-256061
-287760
-354080
-251536
-288560
-373449
-246239
-285209
-407088
-243771
-267788
-467251
-251822
-205535
-579800
83872
83311.9
161215
82994.1
82493.1
161537
80428.1
80848.1
165495
78247.2
78605.9
176624
75904
77085.1
198997
71977.8
78192.8
239041
64018.2
86604
310084
50854.1
112211
440189
65373.9
64524.3
11178.6
64206.6
63429
10516.3
61364
61644.4
4737.43
59043.4
59391.8
-6609.05
56689.8
57908.1
-26627.9
52800.8
59101
-62557.7
44926.4
67729.2
-131671
31979.3
94237.8
-281154
397090
419889
474084
394587
419074
472764
389033
417189
473816
382128
414478
480131
372785
412210
495527
359578
411215
526573
341337
411012
587609
323683
400880
714013
388296
410744
358019
385442
409695
357179
379655
407743
351049
372682
405101
339209
363408
402910
318199
350279
401925
279665
332048
401684
201485
314356
392099
14927.2
715863
762194
792472
711803
761152
789415
702982
758841
787447
691097
755325
788798
674312
752045
797254
651430
748679
819293
622646
739275
869838
600564
691889
991317
714334
760358
707784
709967
759236
706865
701066
757007
700102
689262
753703
687301
672690
750503
664654
649888
746966
622914
620933
737147
535369
598436
689823
311169
1.04372e+06
1.11365e+06
1.1202e+06
1.0381e+06
1.11204e+06
1.11514e+06
1.02559e+06
1.10922e+06
1.11018e+06
1.00852e+06
1.10466e+06
1.10662e+06
983777
1.1003e+06
1.10833e+06
950832
1.09433e+06
1.1213e+06
911230
1.07443e+06
1.15999e+06
884733
986406
1.27367e+06
1.04878e+06
1.11816e+06
1.06444e+06
1.04261e+06
1.1163e+06
1.06311e+06
1.02985e+06
1.11331e+06
1.0552e+06
1.01261e+06
1.10876e+06
1.0409e+06
987878
1.1041e+06
1.0161e+06
954633
1.09757e+06
970651
914476
1.07696e+06
873542
887268
988482
610896
1.38332e+06
1.47749e+06
1.46183e+06
1.37702e+06
1.47582e+06
1.45533e+06
1.36102e+06
1.47353e+06
1.44818e+06
1.33955e+06
1.46836e+06
1.44008e+06
1.30667e+06
1.46334e+06
1.43511e+06
1.26355e+06
1.45439e+06
1.43837e+06
1.21261e+06
1.42087e+06
1.4618e+06
1.18095e+06
1.28551e+06
1.56189e+06
1.39394e+06
1.48648e+06
1.43271e+06
1.38601e+06
1.48377e+06
1.43168e+06
1.36898e+06
1.48061e+06
1.42331e+06
1.34663e+06
1.47515e+06
1.40745e+06
1.31346e+06
1.46939e+06
1.38026e+06
1.2696e+06
1.46017e+06
1.32992e+06
1.21839e+06
1.42673e+06
1.22201e+06
1.18682e+06
1.29017e+06
919324
1.74488e+06
1.86316e+06
1.82439e+06
1.73826e+06
1.86139e+06
1.81572e+06
1.7175e+06
1.85936e+06
1.80503e+06
1.69131e+06
1.8516e+06
1.79078e+06
1.64822e+06
1.84508e+06
1.77828e+06
1.59418e+06
1.83162e+06
1.7713e+06
1.52986e+06
1.77783e+06
1.77421e+06
1.4902e+06
1.58573e+06
1.85322e+06
1.75408e+06
1.86853e+06
1.81864e+06
1.74363e+06
1.86518e+06
1.81949e+06
1.72129e+06
1.86252e+06
1.81045e+06
1.69447e+06
1.85588e+06
1.79101e+06
1.6525e+06
1.85057e+06
1.76213e+06
1.59966e+06
1.84076e+06
1.70417e+06
1.539e+06
1.78937e+06
1.58347e+06
1.50173e+06
1.59243e+06
1.24415e+06
2.14263e+06
2.28396e+06