/*--------------------------------*- C++ -*----------------------------------*\
| =========                 |                                                 |
| \\      /  F ield         | OpenFOAM: The Open Source CFD Toolbox           |
|  \\    /   O peration     | Version:  v2012                                 |
|   \\  /    A nd           | Website:  www.openfoam.com                      |
|    \\/     M anipulation  |                                                 |
\*---------------------------------------------------------------------------*/
FoamFile
{
    version     2.0;
    format      ascii;
    class       volVectorField;
    location    "3";
    object      D;
}
// * * * * * * * * * * * * * * * * * * * * * * * * * * * * * * * * * * * * * //

dimensions      [0 1 0 0 0 0 0];


internalField   nonuniform List<vector> 
2000
(
(2.80077e-05 -0.00061833 0)
(5.23976e-05 -0.000622399 0)
(2.45295e-05 -0.000636199 0)
(4.76715e-05 -0.000640112 0)
(2.24e-05 -0.000651071 0)
(4.42593e-05 -0.000654048 0)
(2.09576e-05 -0.00066309 0)
(4.17342e-05 -0.000665157 0)
(1.98362e-05 -0.000673103 0)
(3.97773e-05 -0.000674451 0)
(1.88989e-05 -0.000681804 0)
(3.81946e-05 -0.000682577 0)
(1.80955e-05 -0.000689613 0)
(3.68669e-05 -0.000689917 0)
(1.73953e-05 -0.000696789 0)
(3.57071e-05 -0.000696719 0)
(1.67948e-05 -0.00070349 0)
(3.46492e-05 -0.000703159 0)
(1.63718e-05 -0.000709801 0)
(3.3641e-05 -0.000709369 0)
(0.000117186 -0.000609101 0)
(0.000138596 -0.000609992 0)
(0.000105211 -0.000626351 0)
(0.000125481 -0.000626616 0)
(9.62996e-05 -0.000640567 0)
(0.000115826 -0.000639675 0)
(8.95773e-05 -0.000651956 0)
(0.000108624 -0.000650056 0)
(8.43918e-05 -0.000661396 0)
(0.000103101 -0.000658699 0)
(8.03177e-05 -0.00066958 0)
(9.87514e-05 -0.000666218 0)
(7.70725e-05 -0.000676918 0)
(9.52524e-05 -0.000672975 0)
(7.44572e-05 -0.000683663 0)
(9.23732e-05 -0.000679196 0)
(7.23282e-05 -0.000689997 0)
(8.99177e-05 -0.000685011 0)
(7.05788e-05 -0.000696044 0)
(8.76885e-05 -0.000690486 0)
(0.000205031 -0.000594109 0)
(0.000223942 -0.000591841 0)
(0.000185828 -0.000608617 0)
(0.000204042 -0.00060526 0)
(0.000170997 -0.000620661 0)
(0.000188954 -0.000615827 0)
(0.000159471 -0.00063033 0)
(0.000177414 -0.00062431 0)
(0.000150439 -0.000638364 0)
(0.000168451 -0.000631448 0)
(0.000143314 -0.000645346 0)
(0.000161384 -0.000637697 0)
(0.000137649 -0.000651623 0)
(0.000155735 -0.000643325 0)
(0.000133102 -0.00065741 0)
(0.000151142 -0.000648498 0)
(0.000129405 -0.000662848 0)
(0.000147306 -0.000653304 0)
(0.000126338 -0.000668035 0)
(0.000143954 -0.000657771 0)
(0.000291766 -0.000573513 0)
(0.000308503 -0.000567571 0)
(0.000266155 -0.000583979 0)
(0.000282736 -0.000576744 0)
(0.000246229 -0.000592744 0)
(0.000263081 -0.000584 0)
(0.000230624 -0.00059977 0)
(0.000247913 -0.000589842 0)
(0.000218304 -0.000605631 0)
(0.000236031 -0.000594806 0)
(0.000208523 -0.000610768 0)
(0.000226617 -0.000599203 0)
(0.000200723 -0.000615422 0)
(0.000219091 -0.000603192 0)
(0.000194461 -0.000619731 0)
(0.000213005 -0.000606861 0)
(0.00018938 -0.000623785 0)
(0.000207985 -0.00061024 0)
(0.000185172 -0.000627637 0)
(0.000203695 -0.000613318 0)
(0.000376706 -0.000547884 0)
(0.00039165 -0.000538352 0)
(0.000346044 -0.000553411 0)
(0.000361384 -0.00054243 0)
(0.000322026 -0.000558136 0)
(0.000338144 -0.000545718 0)
(0.000303128 -0.000561863 0)
(0.000320103 -0.000548389 0)
(0.000288152 -0.000564988 0)
(0.000305902 -0.000550725 0)
(0.000276225 -0.000567795 0)
(0.000294619 -0.00055287 0)
(0.000266694 -0.000570409 0)
(0.000285594 -0.000554872 0)
(0.000259042 -0.00057288 0)
(0.000278321 -0.00055674 0)
(0.000252849 -0.000575231 0)
(0.000272381 -0.00055845 0)
(0.000247751 -0.000577466 0)
(0.000267403 -0.00055995 0)
(0.000459092 -0.000518102 0)
(0.000472662 -0.000505272 0)
(0.000425015 -0.000518126 0)
(0.000439505 -0.000503801 0)
(0.000398143 -0.000518341 0)
(0.000413857 -0.000502736 0)
(0.000376892 -0.000518384 0)
(0.000393818 -0.000501915 0)
(0.000359987 -0.000518447 0)
(0.000377974 -0.000501358 0)
(0.000346487 -0.000518648 0)
(0.000365354 -0.000501035 0)
(0.000335683 -0.000518992 0)
(0.000355258 -0.00050088 0)
(0.000327012 -0.000519441 0)
(0.000347144 -0.000500826 0)
(0.000320012 -0.000519949 0)
(0.000340571 -0.000500791 0)
(0.000314284 -0.000520463 0)
(0.000335156 -0.000500685 0)
(0.000538262 -0.000485119 0)
(0.000550859 -0.00046943 0)
(0.000502488 -0.000479466 0)
(0.000516472 -0.000462351 0)
(0.000474098 -0.000475008 0)
(0.000489666 -0.000456849 0)
(0.000451528 -0.00047123 0)
(0.000468585 -0.00045245 0)
(0.000433502 -0.000468117 0)
(0.000451842 -0.000448928 0)
(0.00041907 -0.000465623 0)
(0.000438477 -0.000446085 0)
(0.000407506 -0.000463638 0)
(0.000427784 -0.00044375 0)
(0.000398225 -0.000462037 0)
(0.000419214 -0.000441776 0)
(0.000390745 -0.000460706 0)
(0.000412315 -0.000440034 0)
(0.000384646 -0.000459528 0)
(0.000406707 -0.000438394 0)
(0.000613611 -0.000449852 0)
(0.000625575 -0.000431844 0)
(0.000577806 -0.000438738 0)
(0.000591543 -0.000419471 0)
(0.000549212 -0.000429751 0)
(0.000564798 -0.000409736 0)
(0.000526358 -0.000422251 0)
(0.000543625 -0.0004019 0)
(0.000508038 -0.000416034 0)
(0.000526744 -0.000395517 0)
(0.000493344 -0.000410906 0)
(0.000513251 -0.000390243 0)
(0.00048157 -0.000406652 0)
(0.000502471 -0.00038581 0)
(0.000472143 -0.000403075 0)
(0.000493865 -0.000382013 0)
(0.000464575 -0.000400008 0)
(0.000486993 -0.00037868 0)
(0.000458427 -0.000397296 0)
(0.000481481 -0.000375642 0)
(0.000684596 -0.000413154 0)
(0.000696188 -0.000393418 0)
(0.000650267 -0.000397142 0)
(0.000663924 -0.000376384 0)
(0.00062266 -0.00038405 0)
(0.000638333 -0.000362869 0)
(0.000600462 -0.000373147 0)
(0.000617923 -0.000351936 0)
(0.000582603 -0.000364074 0)
(0.000601585 -0.00034297 0)
(0.000568269 -0.000356518 0)
(0.000588534 -0.000335503 0)
(0.000556807 -0.000350179 0)
(0.000578159 -0.000329168 0)
(0.000547648 -0.000344783 0)
(0.000569942 -0.000323672 0)
(0.000540301 -0.000340078 0)
(0.000563429 -0.000318799 0)
(0.000534363 -0.000335814 0)
(0.000558282 -0.000314426 0)
(0.00075077 -0.000375768 0)
(0.000762167 -0.000354907 0)
(0.000719194 -0.000355696 0)
(0.000732847 -0.000334095 0)
(0.000693599 -0.000339174 0)
(0.000709345 -0.00031747 0)
(0.00067285 -0.000325417 0)
(0.000690412 -0.000303965 0)
(0.000656041 -0.000313936 0)
(0.000675129 -0.000292847 0)
(0.000642509 -0.000304315 0)
(0.000662865 -0.000283588 0)
(0.000631746 -0.000296213 0)
(0.000653167 -0.000275798 0)
(0.000623327 -0.000289382 0)
(0.000645698 -0.000269158 0)
(0.000616828 -0.000283663 0)
(0.000640172 -0.000263353 0)
(0.000611718 -0.00027893 0)
(0.000636239 -0.000257998 0)
(0.000811813 -0.000338249 0)
(0.000823112 -0.000316822 0)
(0.000783982 -0.000315116 0)
(0.00079763 -0.000293286 0)
(0.000761265 -0.000296 0)
(0.000776988 -0.000274403 0)
(0.0007427 -0.000280112 0)
(0.000760189 -0.000259034 0)
(0.000727527 -0.000266882 0)
(0.000746497 -0.000246357 0)
(0.000715173 -0.000255816 0)
(0.000735369 -0.000235771 0)
(0.000705203 -0.000246494 0)
(0.000726385 -0.000226847 0)
(0.000697351 -0.000238608 0)
(0.000719247 -0.000219299 0)
(0.000691554 -0.000232063 0)
(0.000713789 -0.000213045 0)
(0.000687773 -0.000227124 0)
(0.000709814 -0.000208363 0)
(0.000867496 -0.00030091 0)
(0.000878736 -0.00027942 0)
(0.000844089 -0.000275821 0)
(0.00085768 -0.000254291 0)
(0.00082488 -0.000255014 0)
(0.000840442 -0.000234058 0)
(0.000809083 -0.000237707 0)
(0.000826292 -0.000217555 0)
(0.000796127 -0.000223273 0)
(0.000814718 -0.000203919 0)
(0.000785594 -0.000211181 0)
(0.000805346 -0.000192513 0)
(0.000777147 -0.000200991 0)
(0.000797877 -0.000182831 0)
(0.000770551 -0.000192361 0)
(0.000792061 -0.000174439 0)
(0.000765686 -0.000185075 0)
(0.000787602 -0.00016707 0)
(0.000762406 -0.000179183 0)
(0.000783871 -0.000160964 0)
(0.000917528 -0.000263943 0)
(0.000928648 -0.000242884 0)
(0.000898949 -0.0002381 0)
(0.000912335 -0.000217332 0)
(0.000883615 -0.000216583 0)
(0.0008988 -0.000196679 0)
(0.000870903 -0.000198656 0)
(0.000887564 -0.000179773 0)
(0.000860423 -0.000183674 0)
(0.000878319 -0.000165754 0)
(0.000851901 -0.000171091 0)
(0.000870831 -0.000153991 0)
(0.000845129 -0.000160472 0)
(0.000864917 -0.00014399 0)
(0.000839973 -0.000151494 0)
(0.000860427 -0.000135332 0)
(0.000836338 -0.000143968 0)
(0.000857122 -0.00012775 0)
(0.000833982 -0.000137992 0)
(0.000854365 -0.000121353 0)
(0.000961571 -0.000227544 0)
(0.000972399 -0.000207376 0)
(0.000947953 -0.000202174 0)
(0.000960886 -0.000182582 0)
(0.000936613 -0.000180957 0)
(0.000951111 -0.000162459 0)
(0.000927097 -0.000163244 0)
(0.000942845 -0.000145937 0)
(0.000919195 -0.000148418 0)
(0.000935981 -0.000132206 0)
(0.000912774 -0.00013596 0)
(0.000930428 -0.000120676 0)
(0.000907728 -0.000125461 0)
(0.000926103 -0.000110881 0)
(0.000903995 -0.000116618 0)
(0.000922937 -0.000102428 0)
(0.000901529 -0.000109267 0)
(0.000920751 -9.50498e-05 0)
(0.000900118 -0.000103556 0)
(0.000918945 -8.88207e-05 0)
(0.00099939 -0.00019185 0)
(0.0010097 -0.000172959 0)
(0.0009906 -0.000168112 0)
(0.00100279 -0.000150041 0)
(0.000983162 -0.000148171 0)
(0.000996633 -0.000131362 0)
(0.000976776 -0.000131487 0)
(0.000991241 -0.000115984 0)
(0.000971403 -0.000117506 0)
(0.000986687 -0.000103185 0)
(0.000967042 -0.000105757 0)
(0.000983011 -9.2435e-05 0)
(0.00096368 -9.58762e-05 0)
(0.000980224 -8.3318e-05 0)
(0.000961324 -8.7598e-05 0)
(0.000978337 -7.54678e-05 0)
(0.000959975 -8.07918e-05 0)
(0.000977227 -6.86208e-05 0)
(0.00095944 -7.56185e-05 0)
(0.000976313 -6.28057e-05 0)
(0.00103087 -0.000156899 0)
(0.00104041 -0.000139574 0)
(0.00102652 -0.000135826 0)
(0.00103765 -0.00011952 0)
(0.00102269 -0.000118047 0)
(0.0010348 -0.000103115 0)
(0.00101921 -0.000103141 0)
(0.00103203 -8.95716e-05 0)
(0.00101619 -9.06388e-05 0)
(0.0010296 -7.82794e-05 0)
(0.00101374 -8.01349e-05 0)
(0.00102764 -6.87945e-05 0)
(0.00101193 -7.13209e-05 0)
(0.00102626 -6.07592e-05 0)
(0.00101084 -6.39797e-05 0)
(0.00102553 -5.38494e-05 0)
(0.0010105 -5.80158e-05 0)
(0.0010254 -4.78136e-05 0)
(0.00101074 -5.35936e-05 0)
(0.0010253 -4.26334e-05 0)
(0.00105598 -0.000122618 0)
(0.00106446 -0.000107061 0)
(0.00105547 -0.000105088 0)
(0.00106523 -9.07043e-05 0)
(0.00105477 -9.02511e-05 0)
(0.00106517 -7.7284e-05 0)
(0.00105382 -7.77897e-05 0)
(0.00106465 -6.61675e-05 0)
(0.00105284 -6.73258e-05 0)
(0.00106403 -5.68773e-05 0)
(0.00105205 -5.8532e-05 0)
(0.00106355 -4.90688e-05 0)
(0.00105159 -5.11642e-05 0)
(0.00106338 -4.24527e-05 0)
(0.00105159 -4.50603e-05 0)
(0.00106364 -3.67552e-05 0)
(0.00105211 -4.01632e-05 0)
(0.00106433 -3.1749e-05 0)
(0.00105299 -3.6639e-05 0)
(0.00106493 -2.73756e-05 0)
(0.00107471 -8.87991e-05 0)
(0.00108181 -7.51699e-05 0)
(0.00107722 -7.5614e-05 0)
(0.00108527 -6.32092e-05 0)
(0.00107904 -6.43969e-05 0)
(0.00108738 -5.33619e-05 0)
(0.00108011 -5.49413e-05 0)
(0.00108861 -4.51518e-05 0)
(0.00108078 -4.697e-05 0)
(0.00108944 -3.82602e-05 0)
(0.00108134 -4.02473e-05 0)
(0.00109015 -3.24492e-05 0)
(0.00108198 -3.46124e-05 0)
(0.00109095 -2.75083e-05 0)
(0.00108285 -2.99714e-05 0)
(0.00109201 -2.32305e-05 0)
(0.00108404 -2.63072e-05 0)
(0.00109335 -1.94256e-05 0)
(0.00108543 -2.37722e-05 0)
(0.00109452 -1.59969e-05 0)
(0.00108671 -5.51362e-05 0)
(0.00109199 -4.36517e-05 0)
(0.00109144 -4.71776e-05 0)
(0.00109732 -3.6753e-05 0)
(0.00109507 -4.0123e-05 0)
(0.001101 -3.09133e-05 0)
(0.00109765 -3.40425e-05 0)
(0.00110358 -2.59316e-05 0)
(0.0010996 -2.88529e-05 0)
(0.00110555 -2.16957e-05 0)
(0.00110122 -2.44441e-05 0)
(0.00110718 -1.80816e-05 0)
(0.0011027 -2.07428e-05 0)
(0.00110871 -1.49689e-05 0)
(0.00110425 -1.77296e-05 0)
(0.00111033 -1.22453e-05 0)
(0.00110598 -1.54429e-05 0)
(0.00111212 -9.80716e-06 0)
(0.00110778 -1.40123e-05 0)
(0.00111372 -7.54785e-06 0)
(0.00109091 -2.19729e-05 0)
(0.00109404 -1.29785e-05 0)
(0.00109748 -1.94016e-05 0)
(0.00110096 -1.12767e-05 0)
(0.00110255 -1.66562e-05 0)
(0.00110594 -9.46123e-06 0)
(0.00110636 -1.41507e-05 0)
(0.00110957 -7.79851e-06 0)
(0.00110935 -1.19867e-05 0)
(0.00111238 -6.37303e-06 0)
(0.00111183 -1.01648e-05 0)
(0.00111472 -5.14073e-06 0)
(0.00111403 -8.6729e-06 0)
(0.00111683 -4.02538e-06 0)
(0.00111615 -7.50427e-06 0)
(0.00111893 -2.95535e-06 0)
(0.00111836 -6.62532e-06 0)
(0.0011211 -1.8681e-06 0)
(0.00112065 -5.95469e-06 0)
(0.00112299 -6.94319e-07 0)
(0.00112533 -2.46256e-06 0)
(0.00112635 -3.11825e-06 0)
(0.00111672 -8.50281e-06 0)
(0.0011154 -8.8845e-06 0)
(0.0010986 -1.60432e-05 0)
(0.00109518 -1.64432e-05 0)
(0.0010707 -2.5953e-05 0)
(0.00106553 -2.64838e-05 0)
(0.00103321 -3.93329e-05 0)
(0.00102674 -3.99924e-05 0)
(0.000986702 -5.72494e-05 0)
(0.000979416 -5.79804e-05 0)
(0.000931987 -8.06279e-05 0)
(0.000924407 -8.13283e-05 0)
(0.000870131 -0.00011018 0)
(0.000862736 -0.000110684 0)
(0.00080242 -0.000146447 0)
(0.000795537 -0.000146463 0)
(0.000730358 -0.00019043 0)
(0.00072414 -0.000189544 0)
(0.00113142 -1.74901e-06 0)
(0.00113244 -3.15119e-06 0)
(0.00112397 -6.88566e-06 0)
(0.00112309 -8.25824e-06 0)
(0.00110777 -1.29159e-05 0)
(0.00110519 -1.44505e-05 0)
(0.00108292 -2.07991e-05 0)
(0.00107898 -2.2521e-05 0)
(0.00104975 -3.1384e-05 0)
(0.00104484 -3.32438e-05 0)
(0.00100871 -4.5541e-05 0)
(0.00100324 -4.74404e-05 0)
(0.000960433 -6.41213e-05 0)
(0.000954773 -6.59209e-05 0)
(0.000905668 -8.78734e-05 0)
(0.000900191 -8.93919e-05 0)
(0.000845222 -0.000117224 0)
(0.000840283 -0.000118238 0)
(0.00077997 -0.000152112 0)
(0.000775786 -0.00015242 0)
(0.00113924 -1.12927e-06 0)
(0.00114119 -3.0353e-06 0)
(0.00113285 -5.34219e-06 0)
(0.00113302 -7.21118e-06 0)
(0.0011184 -1.02643e-05 0)
(0.00111706 -1.22553e-05 0)
(0.00109621 -1.66573e-05 0)
(0.0010937 -1.88026e-05 0)
(0.00106666 -2.51828e-05 0)
(0.00106332 -2.74497e-05 0)
(0.00103016 -3.65192e-05 0)
(0.00102633 -3.88234e-05 0)
(0.000987184 -5.13414e-05 0)
(0.000983195 -5.35553e-05 0)
(0.000938292 -7.02367e-05 0)
(0.000934425 -7.21964e-05 0)
(0.000884162 -9.3602e-05 0)
(0.000880665 -9.5117e-05 0)
(0.000825712 -0.000121597 0)
(0.00082279 -0.000122466 0)
(0.00114944 -7.256e-07 0)
(0.0011523 -2.84046e-06 0)
(0.00114394 -4.21943e-06 0)
(0.00114512 -6.2733e-06 0)
(0.00113109 -8.32473e-06 0)
(0.00113086 -1.04634e-05 0)
(0.00111128 -1.36276e-05 0)
(0.00110994 -1.58977e-05 0)
(0.00108485 -2.06349e-05 0)
(0.00108274 -2.30266e-05 0)
(0.00105219 -2.98557e-05 0)
(0.00104962 -3.23143e-05 0)
(0.00101374 -4.17937e-05 0)
(0.001011 -4.42237e-05 0)
(0.000970021 -5.69291e-05 0)
(0.000967356 -5.91927e-05 0)
(0.000921652 -7.56973e-05 0)
(0.00091928 -7.76128e-05 0)
(0.000869359 -9.84168e-05 0)
(0.000867464 -9.97617e-05 0)
(0.00116178 -5.64448e-07 0)
(0.00116537 -2.67583e-06 0)
(0.00115698 -3.65496e-06 0)
(0.00115902 -5.73505e-06 0)
(0.00114555 -7.25117e-06 0)
(0.00114626 -9.42708e-06 0)
(0.00112782 -1.18277e-05 0)
(0.00112748 -1.41453e-05 0)
(0.00110412 -1.778e-05 0)
(0.00110304 -2.02392e-05 0)
(0.00107483 -2.54956e-05 0)
(0.00107329 -2.80597e-05 0)
(0.00104034 -3.53625e-05 0)
(0.00103863 -3.79577e-05 0)
(0.00100115 -4.776e-05 0)
(0.000999518 -5.02719e-05 0)
(0.000957785 -6.30415e-05 0)
(0.000956429 -6.5304e-05 0)
(0.000910873 -8.15021e-05 0)
(0.000909924 -8.32851e-05 0)
(0.00117598 -5.83643e-07 0)
(0.00118023 -2.61812e-06 0)
(0.00117174 -3.56017e-06 0)
(0.00117455 -5.62224e-06 0)
(0.00116153 -6.93453e-06 0)
(0.0011631 -9.12747e-06 0)
(0.00114563 -1.10998e-05 0)
(0.00114622 -1.34599e-05 0)
(0.00112434 -1.6377e-05 0)
(0.00112422 -1.89028e-05 0)
(0.001098 -2.30711e-05 0)
(0.00109744 -2.57316e-05 0)
(0.00106698 -3.14794e-05 0)
(0.00106626 -3.42144e-05 0)
(0.00103173 -4.18799e-05 0)
(0.00103107 -4.45956e-05 0)
(0.000992724 -5.4519e-05 0)
(0.000992326 -5.7073e-05 0)
(0.000950532 -6.9609e-05 0)
(0.000950504 -7.17941e-05 0)
(0.00119195 -6.9682e-07 0)
(0.00119681 -2.66484e-06 0)
(0.00118815 -3.77444e-06 0)
(0.00119168 -5.82395e-06 0)
(0.00117898 -7.15433e-06 0)
(0.00118137 -9.36716e-06 0)
(0.00116468 -1.11615e-05 0)
(0.00116615 -1.35648e-05 0)
(0.0011455 -1.6061e-05 0)
(0.00114631 -1.86496e-05 0)
(0.00112176 -2.20953e-05 0)
(0.00112214 -2.4841e-05 0)
(0.0010938 -2.94931e-05 0)
(0.00109401 -3.2345e-05 0)
(0.00106202 -3.84621e-05 0)
(0.00106228 -4.13431e-05 0)
(0.00102688 -4.9182e-05 0)
(0.00102737 -5.19747e-05 0)
(0.0009889 -6.18059e-05 0)
(0.000989743 -6.43355e-05 0)
(0.0012096 -8.47414e-07 0)
(0.00121505 -2.78449e-06 0)
(0.00120617 -4.16629e-06 0)
(0.00121039 -6.21995e-06 0)
(0.0011979 -7.71167e-06 0)
(0.00120106 -9.94831e-06 0)
(0.00118498 -1.17506e-05 0)
(0.0011873 -1.41922e-05 0)
(0.00116766 -1.6502e-05 0)
(0.00116935 -1.91431e-05 0)
(0.00114621 -2.21615e-05 0)
(0.0011475 -2.49777e-05 0)
(0.00112096 -2.89087e-05 0)
(0.00112207 -3.18576e-05 0)
(0.00109228 -3.69062e-05 0)
(0.00109342 -3.99227e-05 0)
(0.00106059 -4.6301e-05 0)
(0.00106194 -4.92836e-05 0)
(0.00102636 -5.72258e-05 0)
(0.00102804 -6.00218e-05 0)
(0.00122884 -1.0093e-06 0)
(0.00123486 -2.94794e-06 0)
(0.00122573 -4.65051e-06 0)
(0.0012306 -6.72312e-06 0)
(0.00121824 -8.46314e-06 0)
(0.00122213 -1.07257e-05 0)
(0.00120654 -1.26667e-05 0)
(0.00120964 -1.51397e-05 0)
(0.00119086 -1.74427e-05 0)
(0.00119337 -2.01235e-05 0)
(0.00117144 -2.29512e-05 0)
(0.00117357 -2.58206e-05 0)
(0.0011486 -2.93388e-05 0)
(0.00115056 -3.23612e-05 0)
(0.00112268 -3.67385e-05 0)
(0.00112466 -3.98589e-05 0)
(0.00109406 -4.52601e-05 0)
(0.00109623 -4.83983e-05 0)
(0.00106312 -5.49742e-05 0)
(0.00106561 -5.80194e-05 0)
(0.00124959 -1.16964e-06 0)
(0.00125613 -3.13188e-06 0)
(0.00124676 -5.17088e-06 0)
(0.00125223 -7.27104e-06 0)
(0.00123995 -9.30587e-06 0)
(0.00124451 -1.15928e-05 0)
(0.00122933 -1.37571e-05 0)
(0.00123316 -1.62517e-05 0)
(0.00121509 -1.86773e-05 0)
(0.00121837 -2.1381e-05 0)
(0.00119749 -2.41983e-05 0)
(0.00120041 -2.70982e-05 0)
(0.00117679 -3.04367e-05 0)
(0.00117955 -3.35058e-05 0)
(0.00115333 -3.74948e-05 0)
(0.00115611 -4.06892e-05 0)
(0.00112745 -4.54579e-05 0)
(0.00113041 -4.8712e-05 0)
(0.0010995 -5.43842e-05 0)
(0.00110277 -5.76044e-05 0)
(0.00127174 -1.3188e-06 0)
(0.00127876 -3.3156e-06 0)
(0.00126915 -5.68395e-06 0)
(0.00127518 -7.81143e-06 0)
(0.00126295 -1.01582e-05 0)
(0.00126814 -1.24605e-05 0)
(0.00125329 -1.48965e-05 0)
(0.00125779 -1.73962e-05 0)
(0.00124034 -2.00298e-05 0)
(0.00124434 -2.27328e-05 0)
(0.00122435 -2.56687e-05 0)
(0.00122801 -2.85684e-05 0)
(0.00120557 -3.19077e-05 0)
(0.00120908 -3.4986e-05 0)
(0.0011843 -3.88245e-05 0)
(0.00118785 -4.20513e-05 0)
(0.00116088 -4.64791e-05 0)
(0.00116461 -4.98066e-05 0)
(0.00113565 -5.49186e-05 0)
(0.00113968 -5.82679e-05 0)
(0.00129517 -1.44773e-06 0)
(0.00130264 -3.47921e-06 0)
(0.00129281 -6.15109e-06 0)
(0.00129934 -8.29538e-06 0)
(0.00128715 -1.09487e-05 0)
(0.00129291 -1.32476e-05 0)
(0.00127835 -1.59761e-05 0)
(0.00128347 -1.84553e-05 0)
(0.00126656 -2.13487e-05 0)
(0.00127122 -2.40191e-05 0)
(0.00125201 -2.7161e-05 0)
(0.00125636 -3.00225e-05 0)
(0.00123495 -3.3492e-05 0)
(0.00123917 -3.65341e-05 0)
(0.00121566 -4.04072e-05 0)
(0.00121991 -4.36084e-05 0)
(0.00119446 -4.79588e-05 0)
(0.00119889 -5.12822e-05 0)
(0.00117166 -5.61806e-05 0)
(0.00117639 -5.95663e-05 0)
(0.00131978 -1.54756e-06 0)
(0.00132764 -3.60316e-06 0)
(0.00131762 -6.53544e-06 0)
(0.00132462 -8.67503e-06 0)
(0.00131246 -1.16106e-05 0)
(0.00131873 -1.3876e-05 0)
(0.00130443 -1.68958e-05 0)
(0.00131012 -1.93174e-05 0)
(0.00129369 -2.24968e-05 0)
(0.00129895 -2.50913e-05 0)
(0.00128044 -2.84978e-05 0)
(0.00128542 -3.12713e-05 0)
(0.00126492 -3.49664e-05 0)
(0.00126979 -3.79164e-05 0)
(0.00124742 -4.19556e-05 0)
(0.00125233 -4.50703e-05 0)
(0.00122822 -4.95072e-05 0)
(0.00123331 -5.27593e-05 0)
(0.00120763 -5.76576e-05 0)
(0.00121301 -6.09947e-05 0)
(0.00134544 -1.60909e-06 0)
(0.00135365 -3.6675e-06 0)
(0.00134348 -6.79973e-06 0)
(0.00135088 -8.90143e-06 0)
(0.00133877 -1.20772e-05 0)
(0.0013455 -1.42666e-05 0)
(0.00133145 -1.75576e-05 0)
(0.00133764 -1.98716e-05 0)
(0.00132165 -2.33408e-05 0)
(0.00132745 -2.58027e-05 0)
(0.00130958 -2.95042e-05 0)
(0.00131513 -3.21263e-05 0)
(0.00129546 -3.61091e-05 0)
(0.00130092 -3.88951e-05 0)
(0.00127956 -4.32034e-05 0)
(0.00128507 -4.61489e-05 0)
(0.00126216 -5.08132e-05 0)
(0.00126785 -5.39063e-05 0)
(0.00124354 -5.89328e-05 0)
(0.00124954 -6.21518e-05 0)
(0.00137203 -1.62189e-06 0)
(0.00138053 -3.65101e-06 0)
(0.00137025 -6.90365e-06 0)
(0.00137799 -8.92183e-06 0)
(0.00136597 -1.22775e-05 0)
(0.00137309 -1.43347e-05 0)
(0.00135929 -1.78579e-05 0)
(0.00136593 -1.99994e-05 0)
(0.00135036 -2.37439e-05 0)
(0.00135664 -2.59998e-05 0)
(0.00133935 -3.00082e-05 0)
(0.00134542 -3.23981e-05 0)
(0.00132651 -3.67045e-05 0)
(0.00133249 -3.92406e-05 0)
(0.00131207 -4.38739e-05 0)
(0.00131811 -4.65597e-05 0)
(0.00129632 -5.15523e-05 0)
(0.00130254 -5.43763e-05 0)
(0.00127954 -5.97742e-05 0)
(0.00128606 -6.27017e-05 0)
(0.00139938 -1.57224e-06 0)
(0.00140811 -3.52919e-06 0)
(0.00139779 -6.79961e-06 0)
(0.00140582 -8.67551e-06 0)
(0.00139392 -1.21297e-05 0)
(0.00140138 -1.39844e-05 0)
(0.00138785 -1.76808e-05 0)
(0.00139486 -1.95689e-05 0)
(0.00137971 -2.35549e-05 0)
(0.0013864 -2.55129e-05 0)
(0.00136969 -2.98245e-05 0)
(0.00137618 -3.18782e-05 0)
(0.00135799 -3.65412e-05 0)
(0.00136443 -3.8711e-05 0)
(0.00134488 -4.37426e-05 0)
(0.00135139 -4.60413e-05 0)
(0.0013306 -5.14552e-05 0)
(0.00133731 -5.38803e-05 0)
(0.00131544 -5.96924e-05 0)
(0.00132245 -6.22218e-05 0)
(0.00142732 -1.44019e-06 0)
(0.00143623 -3.27069e-06 0)
(0.00142595 -6.42731e-06 0)
(0.00143418 -8.08801e-06 0)
(0.00142247 -1.15377e-05 0)
(0.00143018 -1.31044e-05 0)
(0.00141698 -1.68966e-05 0)
(0.00142428 -1.84315e-05 0)
(0.00140959 -2.26089e-05 0)
(0.0014166 -2.41537e-05 0)
(0.00140047 -2.87483e-05 0)
(0.00140732 -3.03347e-05 0)
(0.00138984 -3.53686e-05 0)
(0.00139664 -3.70254e-05 0)
(0.00137791 -4.25049e-05 0)
(0.00138481 -4.42583e-05 0)
(0.00136497 -5.01702e-05 0)
(0.00137208 -5.20385e-05 0)
(0.00135128 -5.8364e-05 0)
(0.0013587 -6.03428e-05 0)
(0.00145564 -1.2045e-06 0)
(0.00146463 -2.8387e-06 0)
(0.00145449 -5.72213e-06 0)
(0.00146286 -7.07731e-06 0)
(0.00145142 -1.04027e-05 0)
(0.0014593 -1.15762e-05 0)
(0.0014465 -1.5363e-05 0)
(0.001454 -1.64228e-05 0)
(0.00143982 -2.07103e-05 0)
(0.00144707 -2.17023e-05 0)
(0.00143156 -2.65257e-05 0)
(0.00143867 -2.74903e-05 0)
(0.00142191 -3.28713e-05 0)
(0.00142901 -3.3848e-05 0)
(0.0014111 -3.97923e-05 0)
(0.00141831 -4.08166e-05 0)
(0.00139936 -4.73043e-05 0)
(0.0014068 -4.8411e-05 0)
(0.00138697 -5.53698e-05 0)
(0.00139474 -5.66056e-05 0)
(0.00148401 -8.78557e-07 0)
(0.00149304 -2.22812e-06 0)
(0.00148313 -4.65962e-06 0)
(0.00149157 -5.61098e-06 0)
(0.0014805 -8.62102e-06 0)
(0.00148847 -9.29304e-06 0)
(0.00147613 -1.28777e-05 0)
(0.00148377 -1.33416e-05 0)
(0.00147014 -1.75615e-05 0)
(0.00147757 -1.78631e-05 0)
(0.00146269 -2.27776e-05 0)
(0.00147003 -2.29681e-05 0)
(0.00145399 -2.8599e-05 0)
(0.00146136 -2.8737e-05 0)
(0.00144425 -3.50705e-05 0)
(0.00145176 -3.5213e-05 0)
(0.00143371 -4.2221e-05 0)
(0.00144148 -4.24068e-05 0)
(0.00142263 -5.0071e-05 0)
(0.00143071 -5.03163e-05 0)
(0.00151208 -5.56132e-07 0)
(0.00152121 -1.59193e-06 0)
(0.00151153 -3.20809e-06 0)
(0.00152022 -3.79147e-06 0)
(0.00150934 -5.94643e-06 0)
(0.00151764 -6.11825e-06 0)
(0.00150551 -9.04309e-06 0)
(0.00151351 -8.86754e-06 0)
(0.0015002 -1.26603e-05 0)
(0.00150802 -1.22074e-05 0)
(0.00149358 -1.69101e-05 0)
(0.00150133 -1.62479e-05 0)
(0.00148584 -2.18849e-05 0)
(0.00149362 -2.10819e-05 0)
(0.00147716 -2.76503e-05 0)
(0.00148509 -2.67822e-05 0)
(0.00146776 -3.42261e-05 0)
(0.00147597 -3.33774e-05 0)
(0.00145794 -4.15641e-05 0)
(0.00146651 -4.083e-05 0)
(0.000670916 -0.000229531 0)
(0.00068341 -0.000215363 0)
(0.000648169 -0.00024109 0)
(0.000661521 -0.000227187 0)
(0.000626962 -0.000252488 0)
(0.000640942 -0.000238667 0)
(0.000607019 -0.000263759 0)
(0.000621506 -0.000249903 0)
(0.000588127 -0.000274902 0)
(0.000603039 -0.00026094 0)
(0.00057013 -0.000285905 0)
(0.000585395 -0.000271796 0)
(0.000552906 -0.000296746 0)
(0.000568457 -0.000282474 0)
(0.000536352 -0.000307403 0)
(0.000552128 -0.000292969 0)
(0.000520374 -0.000317859 0)
(0.000536319 -0.000303273 0)
(0.000504881 -0.000328101 0)
(0.000520945 -0.000313383 0)
(0.000489777 -0.000338125 0)
(0.000505921 -0.000323296 0)
(0.000474965 -0.000347931 0)
(0.000491156 -0.000333018 0)
(0.00046034 -0.00035753 0)
(0.000476558 -0.000342561 0)
(0.000445796 -0.000366937 0)
(0.000462029 -0.000351943 0)
(0.00043122 -0.000376177 0)
(0.00044747 -0.00036119 0)
(0.000416503 -0.000385278 0)
(0.000432781 -0.000370336 0)
(0.000401534 -0.000394279 0)
(0.000417865 -0.000379425 0)
(0.000386219 -0.000403237 0)
(0.000402635 -0.000388526 0)
(0.000370483 -0.000412248 0)
(0.000387014 -0.00039774 0)
(0.000354291 -0.000421434 0)
(0.000370924 -0.000407091 0)
(0.000727353 -0.000182876 0)
(0.000739299 -0.000172529 0)
(0.000706787 -0.000193691 0)
(0.000719128 -0.000182987 0)
(0.000686979 -0.000204494 0)
(0.000699803 -0.000193494 0)
(0.000667965 -0.00021523 0)
(0.000681288 -0.000203994 0)
(0.000649729 -0.000225876 0)
(0.000663524 -0.000214442 0)
(0.000632219 -0.000236413 0)
(0.000646443 -0.000224801 0)
(0.000615374 -0.000246826 0)
(0.000629974 -0.000235046 0)
(0.000599123 -0.000257098 0)
(0.00061405 -0.000245158 0)
(0.000583396 -0.000267218 0)
(0.000598605 -0.000255127 0)
(0.000568118 -0.000277177 0)
(0.000583572 -0.00026495 0)
(0.000553215 -0.000286974 0)
(0.000568887 -0.00027463 0)
(0.000538615 -0.000296611 0)
(0.000554484 -0.000284172 0)
(0.000524243 -0.000306098 0)
(0.0005403 -0.000293593 0)
(0.000510025 -0.00031545 0)
(0.000526271 -0.000302913 0)
(0.000495889 -0.000324691 0)
(0.000512335 -0.000312158 0)
(0.000481768 -0.000333854 0)
(0.00049843 -0.00032136 0)
(0.000467601 -0.000342977 0)
(0.0004845 -0.000330561 0)
(0.000453338 -0.000352118 0)
(0.000470495 -0.000339819 0)
(0.000438952 -0.000361358 0)
(0.000456375 -0.000349215 0)
(0.000424453 -0.00037078 0)
(0.000442092 -0.00035873 0)
(0.000778794 -0.000146766 0)
(0.000790303 -0.000139335 0)
(0.000760393 -0.000156432 0)
(0.000772212 -0.000148677 0)
(0.0007424 -0.000166193 0)
(0.000754635 -0.000158098 0)
(0.000724861 -0.000175998 0)
(0.000737549 -0.000167582 0)
(0.000707803 -0.000185815 0)
(0.000720947 -0.000177105 0)
(0.000691238 -0.000195611 0)
(0.000704819 -0.000186636 0)
(0.00067516 -0.000205361 0)
(0.000689149 -0.000196149 0)
(0.00065955 -0.000215043 0)
(0.000673918 -0.000205621 0)
(0.000644378 -0.000224641 0)
(0.0006591 -0.000215037 0)
(0.000629609 -0.000234147 0)
(0.000644662 -0.000224387 0)
(0.000615204 -0.000243557 0)
(0.000630572 -0.000233669 0)
(0.000601119 -0.000252875 0)
(0.000616795 -0.000242887 0)
(0.000587311 -0.000262109 0)
(0.000603295 -0.000252049 0)
(0.000573737 -0.000271274 0)
(0.000590038 -0.000261174 0)
(0.000560356 -0.000280392 0)
(0.00057699 -0.000270283 0)
(0.000547133 -0.000289488 0)
(0.000564118 -0.000279402 0)
(0.000534041 -0.000298594 0)
(0.000551393 -0.000288562 0)
(0.000521069 -0.000307754 0)
(0.000538789 -0.000297811 0)
(0.000508231 -0.00031703 0)
(0.00052629 -0.00030721 0)
(0.000495577 -0.000326484 0)
(0.000513876 -0.000316736 0)
(0.000827179 -0.000119198 0)
(0.000838262 -0.000113989 0)
(0.000810558 -0.000127826 0)
(0.0008219 -0.00012235 0)
(0.000794182 -0.000136574 0)
(0.000805905 -0.000130812 0)
(0.000778095 -0.000145409 0)
(0.000790255 -0.000139368 0)
(0.000762331 -0.000154314 0)
(0.000774943 -0.000148006 0)
(0.000746919 -0.000163266 0)
(0.000759976 -0.000156707 0)
(0.000731874 -0.000172242 0)
(0.000745363 -0.000165451 0)
(0.000717199 -0.000181221 0)
(0.000731106 -0.000174222 0)
(0.000702891 -0.000190191 0)
(0.000717204 -0.000183007 0)
(0.00068894 -0.000199144 0)
(0.000703647 -0.000191795 0)
(0.000675325 -0.000208076 0)
(0.000690418 -0.000200583 0)
(0.000662038 -0.000216978 0)
(0.000677517 -0.000209375 0)
(0.000649065 -0.000225858 0)
(0.00066494 -0.000218177 0)
(0.000636393 -0.000234729 0)
(0.000652677 -0.000227 0)
(0.000624008 -0.000243608 0)
(0.000640719 -0.000235861 0)
(0.000611902 -0.000252515 0)
(0.000629057 -0.000244777 0)
(0.000600081 -0.000261473 0)
(0.000617686 -0.000253772 0)
(0.000588565 -0.000270514 0)
(0.000606607 -0.000262879 0)
(0.000577397 -0.000279686 0)
(0.000595825 -0.000272144 0)
(0.000566657 -0.000289029 0)
(0.000585342 -0.000281532 0)
(0.000872891 -9.86571e-05 0)
(0.00088364 -9.52977e-05 0)
(0.000857878 -0.000106365 0)
(0.00086885 -0.000102784 0)
(0.000843008 -0.000114205 0)
(0.000854337 -0.000110397 0)
(0.000828326 -0.000122146 0)
(0.000840095 -0.000118126 0)
(0.000813893 -0.000130214 0)
(0.000826095 -0.000125961 0)
(0.000799716 -0.000138375 0)
(0.000812356 -0.000133896 0)
(0.000785821 -0.00014661 0)
(0.000798897 -0.000141921 0)
(0.00077222 -0.000154906 0)
(0.000785734 -0.000150027 0)
(0.000758916 -0.000163247 0)
(0.000772879 -0.000158206 0)
(0.000745906 -0.000171604 0)
(0.000760348 -0.000166439 0)
(0.000733323 -0.000180017 0)
(0.000748165 -0.000174728 0)
(0.000721058 -0.000188469 0)
(0.000736326 -0.000183072 0)
(0.000709125 -0.000196955 0)
(0.000724839 -0.000191473 0)
(0.000697536 -0.000205479 0)
(0.000713719 -0.000199941 0)
(0.000686301 -0.000214054 0)
(0.000702973 -0.000208487 0)
(0.000675438 -0.000222701 0)
(0.000692605 -0.000217123 0)
(0.000664975 -0.00023143 0)
(0.00068264 -0.000225866 0)
(0.000654958 -0.000240262 0)
(0.000673097 -0.000234741 0)
(0.000645453 -0.00024923 0)
(0.000664001 -0.000243775 0)
(0.000636558 -0.000258357 0)
(0.000655369 -0.000252924 0)
(0.000916345 -8.37699e-05 0)
(0.000926885 -8.19857e-05 0)
(0.000902882 -9.06581e-05 0)
(0.000913588 -8.87138e-05 0)
(0.000889538 -9.76982e-05 0)
(0.000900513 -9.55982e-05 0)
(0.000875966 -0.000105037 0)
(0.000887513 -0.000102608 0)
(0.00086282 -0.000112343 0)
(0.000874745 -0.000109768 0)
(0.000849882 -0.000119761 0)
(0.000862222 -0.000117056 0)
(0.000837194 -0.000127262 0)
(0.000849968 -0.00012446 0)
(0.000824812 -0.00013483 0)
(0.00083802 -0.000131977 0)
(0.000812804 -0.000142458 0)
(0.000826426 -0.000139607 0)
(0.000800799 -0.000150928 0)
(0.000814905 -0.000147388 0)
(0.000789209 -0.000158774 0)
(0.000803785 -0.000155246 0)
(0.000778018 -0.000166717 0)
(0.000793061 -0.000163177 0)
(0.00076722 -0.000174746 0)
(0.000782736 -0.000171185 0)
(0.000756829 -0.000182863 0)
(0.000772874 -0.000179179 0)
(0.000746798 -0.000191094 0)