/*--------------------------------*- C++ -*----------------------------------*\
| =========                 |                                                 |
| \\      /  F ield         | OpenFOAM: The Open Source CFD Toolbox           |
|  \\    /   O peration     | Version:  v2012                                 |
|   \\  /    A nd           | Website:  www.openfoam.com                      |
|    \\/     M anipulation  |                                                 |
\*---------------------------------------------------------------------------*/
FoamFile
{
    version     2.0;
    format      ascii;
    class       volScalarField;
    location    "10";
    object      epsilonEq;
}
// * * * * * * * * * * * * * * * * * * * * * * * * * * * * * * * * * * * * * //

dimensions      [0 0 0 0 0 0 0];


internalField   nonuniform List<scalar> 
4000
(
0.0143457
0.0138611
0.0132658
0.0126278
0.0119406
0.0112423
0.0105188
0.00980344
0.0090727
0.00835006
0.00762374
0.00691411
0.00621889
0.00556398
0.00495418
0.00440734
0.00393117
0.00352897
0.00320506
0.00297866
0.013997
0.0135184
0.0129584
0.0123677
0.0117269
0.0110582
0.0103493
0.00962477
0.00886998
0.0081199
0.00736463
0.00663986
0.00594766
0.0053132
0.00474092
0.00424691
0.00382953
0.00349548
0.00323343
0.00304144
0.0134063
0.0129197
0.0123977
0.0118583
0.0112608
0.0106185
0.00990727
0.00915802
0.00836806
0.00758798
0.00681931
0.00611173
0.00546413
0.00490789
0.00443437
0.00405637
0.003756
0.00353062
0.00335424
0.00320541
0.0127233
0.012184
0.0116424
0.0110903
0.0104623
0.00979558
0.00904537
0.00826649
0.00746967
0.00671353
0.00601441
0.00541313
0.00490818
0.00451612
0.00421456
0.00399989
0.00383475
0.00370734
0.00358523
0.00345636
0.0120319
0.0113812
0.0107085
0.0100291
0.00925685
0.00847302
0.00767202
0.00691631
0.00620162
0.00560193
0.00510287
0.00473399
0.00446869
0.00429781
0.00418334
0.00410312
0.00401995
0.00393467
0.00382096
0.00369948
0.0113026
0.0104639
0.00951563
0.00857903
0.00770042
0.00673501
0.00593869
0.00531987
0.00483908
0.00453273
0.00434171
0.00426358
0.00423468
0.00423852
0.00422682
0.00419941
0.00413807
0.00406248
0.00396166
0.00385971
0.0103628
0.00925784
0.00797004
0.00680285
0.00571539
0.00488107
0.00424717
0.00391029
0.00375881
0.00376599
0.00383803
0.00394725
0.0040339
0.00409925
0.00411884
0.00411734
0.00408635
0.00404835
0.00399405
0.00393646
0.00891354
0.00756556
0.00609283
0.00494713
0.00401022
0.00348559
0.00319467
0.00314049
0.0031858
0.00330351
0.0034239
0.00354807
0.00364416
0.00372959
0.00378404
0.0038309
0.00385781
0.00387817
0.003878
0.0038614
0.00685467
0.00545228
0.00420423
0.00350136
0.00305041
0.0029586
0.00292759
0.00295498
0.00297225
0.00301689
0.00306699
0.00314611
0.00321807
0.0032982
0.00336436
0.00344054
0.00349963
0.00355069
0.00357882
0.00358863
0.00476608
0.00369986
0.00306897
0.00292017
0.0028504
0.00286927
0.00285018
0.00286711
0.00286298
0.00289234
0.00291104
0.00294882
0.00297344
0.00301344
0.00306275
0.00312488
0.00317034
0.00321408
0.00324507
0.00326971
0.00341168
0.00293415
0.00281549
0.00278098
0.00274726
0.00273878
0.00272536
0.0027543
0.00277052
0.00280908
0.0028296
0.00286159
0.00288263
0.00291701
0.00294394
0.00297227
0.00299033
0.00301343
0.00303721
0.0030598
0.00290395
0.00273265
0.00268515
0.00261208
0.00259181
0.00259805
0.00260978
0.0026433
0.00267007
0.00271356
0.00274671
0.00278965
0.00282051
0.00285629
0.00287986
0.00290569
0.0029232
0.00294318
0.00295744
0.0029667
0.00268918
0.00255356
0.00248839
0.00244847
0.00245124
0.00246713
0.00249467
0.00253735
0.00257626
0.00262602
0.00266587
0.00271266
0.00274855
0.00278909
0.00281869
0.00284912
0.00286946
0.00288873
0.00290079
0.00290709
0.00245237
0.00234409
0.00230065
0.00228451
0.00230253
0.00233701
0.00237987
0.00243346
0.00248282
0.00253921
0.0025862
0.00263734
0.00267739
0.00271958
0.0027508
0.00278263
0.00280487
0.00282601
0.00284022
0.00284865
0.00219343
0.00211973
0.00210027
0.00211559
0.00215566
0.00221031
0.00226885
0.00233476
0.00239421
0.00245765
0.00251044
0.00256547
0.00260868
0.00265309
0.00268595
0.00271891
0.00274185
0.0027632
0.00277794
0.00278692
0.00191818
0.00188049
0.00189347
0.0019408
0.00200455
0.00208065
0.00215503
0.00223335
0.00230263
0.00237266
0.00243143
0.00248966
0.0025365
0.00258232
0.00261745
0.0026514
0.00267589
0.00269874
0.00271464
0.00272569
0.00163667
0.00163726
0.00168687
0.00176768
0.00185789
0.00195554
0.00204638
0.00213717
0.00221605
0.00229299
0.00235701
0.00241906
0.0024685
0.00251653
0.00255276
0.00258803
0.00261305
0.00263654
0.00265298
0.00266423
0.00134754
0.00138944
0.00147836
0.00159341
0.00170978
0.00182788
0.00193414
0.00203577
0.00212375
0.00220566
0.00227547
0.00233893
0.00239269
0.00244009
0.00248005
0.00251415
0.00254163
0.00256575
0.00258369
0.00259734
0.00106363
0.00114978
0.00128109
0.00142984
0.0015721
0.00170884
0.00182966
0.0019412
0.0020375
0.00212471
0.00219933
0.00226586
0.00232233
0.00237199
0.00241351
0.00244958
0.0024791
0.00250348
0.00252433
0.00253507
0.000779401
0.000917508
0.00109339
0.00127478
0.00143987
0.00159247
0.00172508
0.00184416
0.00194717
0.00203731
0.00211656
0.00218278
0.00224406
0.00229016
0.00233964
0.00236755
0.00240494
0.00242246
0.00245883
0.00246213
0.000510578
0.000710744
0.000930647
0.00113933
0.00132259
0.00148652
0.00162807
0.00175211
0.00186025
0.0019523
0.00203482
0.00210149
0.00216463
0.00221115
0.00225979
0.00229308
0.00232876
0.00234842
0.00237948
0.00239876
0.000266127
0.000546158
0.000801035
0.00102836
0.0012221
0.00139305
0.00153908
0.00166678
0.00177709
0.00187194
0.0019552
0.00202526
0.00208728
0.00213924
0.00218278
0.00222327
0.00225537
0.00228396
0.00229843
0.00232959
0.000179774
0.000464746
0.000719362
0.000946681
0.00113942
0.00130972
0.00145471
0.00158171
0.00169088
0.00178515
0.00186715
0.00193679
0.00199766
0.00204921
0.0020927
0.00213176
0.00215944
0.00219158
0.00220174
0.00223689
0.000359825
0.000498636
0.0007001
0.000904462
0.00108309
0.00124572
0.00138397
0.00150781
0.00161243
0.00170577
0.00178367
0.00185395
0.00191026
0.00196375
0.00200192
0.00204396
0.00206644
0.00210136
0.00210716
0.00214578
0.000586846
0.000616382
0.00073732
0.000897265
0.00104851
0.00119458
0.00132046
0.00143646
0.00153412
0.00162338
0.00169675
0.00176501
0.00181805
0.00187091
0.0019063
0.00194898
0.00196799
0.00200561
0.00200817
0.00204893
0.000813654
0.000774609
0.000821187
0.000927222
0.00104152
0.00116393
0.0012719
0.00137657
0.00146395
0.00154746
0.001614
0.00167953
0.00172754
0.00177951
0.00181117
0.0018541
0.0018708
0.00190918
0.00191125
0.00195188
0.00103061
0.000943755
0.000929951
0.000982055
0.00105459
0.00114739
0.00123312
0.00132234
0.00139723
0.00147228
0.00153121
0.00159205
0.00163512
0.00168465
0.00171292
0.00175489
0.00176923
0.00180756
0.00180836
0.00184797
0.00123598
0.00111337
0.00105261
0.00105672
0.00108762
0.00114791
0.00120815
0.00127879
0.00133863
0.00140304
0.00145273
0.00150737
0.0015446
0.00159052
0.00161522
0.0016551
0.00166761
0.00170464
0.00170511
0.0017426
0.0014285
0.0012769
0.00117833
0.00114099
0.00113285
0.00115974
0.00119273
0.00124213
0.00128502
0.00133658
0.00137577
0.00142259
0.00145321
0.00149432
0.00151488
0.00155168
0.00156183
0.00159659
0.00159624
0.00163061
0.0016069
0.00143147
0.00130254
0.00123046
0.00118769
0.00118254
0.00118813
0.00121475
0.00123931
0.00127605
0.00130364
0.00134085
0.00136433
0.00139903
0.00141541
0.00144778
0.00145569
0.00148739
0.00148611
0.00151761
0.00177132
0.00157541
0.00142108
0.00131962
0.00124648
0.00121157
0.00119046
0.0011937
0.00119883
0.00121939
0.00123395
0.00126043
0.00127545
0.00130307
0.00131412
0.00134167
0.00134651
0.00137439
0.00137194
0.00139819
0.00192035
0.00170709
0.00153176
0.00140577
0.00130676
0.0012453
0.00119945
0.00117978
0.00116544
0.00116877
0.00116977
0.00118389
0.00119029
0.00120875
0.001215
0.00123522
0.00123779
0.00125992
0.00125482
0.00127966
0.00205451
0.00182615
0.00163305
0.00148632
0.00136529
0.00128041
0.0012121
0.00117059
0.00113702
0.00112273
0.00110916
0.00111022
0.00110636
0.00111553
0.00111496
0.00112879
0.00112747
0.00114577
0.00113998
0.00115617
0.00217244
0.00193136
0.00172343
0.00155957
0.00142003
0.00131527
0.00122708
0.00116589
0.00111389
0.00108277
0.00105399
0.00104215
0.00102669
0.00102656
0.001018
0.00102447
0.00102013
0.00102879
0.00102642
0.00103222
0.00227466
0.00202264
0.00180251
0.00162422
0.00146966
0.0013478
0.00124311
0.00116386
0.00109599
0.0010478
0.00100563
0.00097903
0.000953396
0.000941241
0.000925186
0.000922471
0.000911228
0.000914176
0.000905382
0.000912398
0.00236011
0.00209929
0.00186913
0.00167946
0.00151253
0.00137708
0.00125839
0.00116426
0.0010821
0.00101902
0.000963863
0.000923429
0.000887464
0.00086295
0.00083986
0.000826334
0.000810748
0.000805528
0.000791413
0.000793404
0.00242902
0.00216105
0.0019231
0.0017243
0.00154785
0.00140144
0.00127175
0.00116533
0.00107132
0.000995471
0.000928485
0.000875864
0.000828963
0.000793735
0.000761339
0.00073891
0.000716667
0.000703545
0.000688229
0.000680638
0.00248082
0.00220765
0.00196385
0.0017585
0.00157495
0.00142062
0.0012827
0.00116712
0.00106406
0.000978137
0.000901872
0.000838699
0.00078303
0.000737324
0.000697344
0.00066507
0.000636812
0.000614946
0.000595373
0.000580532
0.00251551
0.0022388
0.00199118
0.00178141
0.0015932
0.00143356
0.00129014
0.00116842
0.0010591
0.00096631
0.000883232
0.000812699
0.000750049
0.000696716
0.00065021
0.000610152
0.000576657
0.000546727
0.000523993
0.000501194
0.00253287
0.00225443
0.00200489
0.00179297
0.00160245
0.00144021
0.00129407
0.00116927
0.00105686
0.000960508
0.00087403
0.000799471
0.000733253
0.000675486
0.00062545
0.000580656
0.000543963
0.000509122
0.000483907
0.000456431
0.00043027
0.000478457
0.00056195
0.000666469
0.000784284
0.000904236
0.0010285
0.00115028
0.00127591
0.00139293
0.0015109
0.00162261
0.00173263
0.00183503
0.00193669
0.00202825
0.00212367
0.00220893
0.0023035
0.0023986
0.00039544
0.00044462
0.000529297
0.000633808
0.000749271
0.00087001
0.000993743
0.00111511
0.0012359
0.00135472
0.00147113
0.00158248
0.00169305
0.00179501
0.00189783
0.00198718
0.00207801
0.00215178
0.002229
0.0022968
0.000387022
0.000435243
0.00051874
0.000620616
0.000734616
0.000850877
0.000969621
0.00108931
0.00120834
0.00132104
0.00143497
0.00154086
0.00164822
0.00174731
0.00184905
0.0019436
0.0020397
0.00213068
0.00221175
0.00228355
0.000386899
0.0004325
0.000511339
0.000609481
0.000718485
0.00083238
0.000949025
0.00106383
0.00117971
0.00129171
0.00140247
0.00150763
0.00161102
0.00170659
0.00180003
0.00188539
0.00196828
0.00204848
0.00212737
0.00220591
0.000395259
0.000437099
0.000510836
0.000602632
0.000706039
0.000813612
0.00092417
0.00103498
0.00114558
0.00125257
0.00135987
0.00146168
0.00156419
0.0016612
0.00175776
0.00184995
0.00193679
0.00202109
0.00209308
0.00216427
0.000414805
0.000452756
0.000520092
0.000606171
0.000703546
0.000806521
0.000912866
0.00101873
0.00112548
0.00122896
0.00133115
0.00142899
0.00152376
0.00161459
0.00170067
0.00178607
0.0018649
0.0019482
0.00202222
0.002099
0.000433089
0.000466785
0.000527714
0.000606397
0.000696692
0.000792956
0.000892866
0.000993994
0.00109534
0.00119549
0.00129462
0.0013916
0.00148622
0.00157903
0.00166669
0.00175384
0.00183179
0.00191185
0.0019796
0.00205125
0.000462066
0.000492132
0.000546933
0.000619377
0.000703176
0.000793768
0.000888161
0.00098387
0.00107994
0.00117484
0.00126768
0.00135893
0.00144594
0.00153285
0.0016133
0.00169691
0.00177107
0.00185235
0.00191985
0.00199398
0.000486583
0.000512983
0.000561773
0.000627241
0.000703959
0.000788149
0.000876358
0.000967478
0.00105876
0.00115104
0.00124101
0.0013316
0.00141732
0.00150453
0.00158348
0.0016661
0.00173681
0.0018144
0.00187789
0.00194684
0.000519312
0.000542754
0.000586337
0.000645887
0.000716193
0.000794327
0.000876431
0.000961705
0.00104702
0.00113351
0.00121727
0.00130218
0.00138194
0.00146432
0.00153913
0.00161877
0.00168846
0.00176459
0.00182903
0.00189702
0.000547858
0.000568462
0.000607105
0.000660721
0.000724703
0.000797019
0.00087347
0.000954304
0.00103523
0.00111882
0.00119953
0.00128257
0.00136002
0.00144049
0.00151275
0.00158941
0.00165588
0.00172841
0.00178954
0.00185501
0.000581568
0.000599849
0.000634272
0.000682663
0.000740777
0.000807182
0.000877623
0.000952608
0.00102774
0.0011057
0.001181
0.00125897
0.00133196
0.0014084
0.00147786
0.0015518
0.00161701
0.00168774
0.00174796
0.00181208
0.000612525
0.000628689
0.00065929
0.000702871
0.00075566
0.000816886
0.000882254
0.000952833
0.00102376
0.00109824
0.00117018
0.00124516
0.00131524
0.00138859
0.00145514
0.00152575
0.00158799
0.00165574
0.0017132
0.00177507
0.000645953
0.000660309
0.000687566
0.000726739
0.000774461
0.0008303
0.000890208
0.000955314
0.00102101
0.00109034
0.00115766
0.00122814
0.00129454
0.00136434
0.00142826
0.00149627
0.00155664
0.00162232
0.00167841
0.00173819
0.00067799
0.00069077
0.000715124
0.000750456
0.000793806
0.000845099
0.000900493
0.00096129
0.00102292
0.00108841
0.00115218
0.00121911
0.00128231
0.00134864
0.00140964
0.00147425
0.00153215
0.0015946
0.00164893
0.00170586
0.000710534
0.000721908
0.000743647
0.000775371
0.000814513
0.000861131
0.00091179
0.000967691
0.00102474
0.00108558
0.0011453
0.00120813
0.00126804
0.00133092
0.00138935
0.00145107
0.00150694
0.00156691
0.0016195
0.00167453
0.000742548
0.00075273
0.00077225
0.00080091
0.000836484
0.000879169
0.000925854
0.000977695
0.0010309
0.00108786
0.00114403
0.00120319
0.00125985
0.00131927
0.00137478
0.0014333
0.00148663
0.00154369
0.00159417
0.00164668
0.000773822
0.000782914
0.000800395
0.000826154
0.000858304
0.000897056
0.000939728
0.000987304
0.0010365
0.00108932
0.00114185
0.00119723
0.00125077
0.00130685
0.00135978
0.00141535
0.00146656
0.00152097
0.0015697
0.00162003
0.000804906
0.000813079
0.000828838
0.000852139
0.000881374
0.000916772
0.000955988
0.000999878
0.00104553
0.00109466
0.00114379
0.00119562
0.001246
0.00129874
0.0013488
0.00140131
0.00144996
0.00150159
0.00154813
0.00159601
0.000834547
0.000841872
0.000856037
0.000877023
0.000903491
0.000935633
0.000971477
0.00101171
0.00105386
0.00109932
0.00114514
0.00119351
0.00124091
0.00129048
0.00133795
0.00138754
0.00143402
0.0014829
0.0015277
0.00157322
0.000863948
0.000870551
0.000883357
0.000902361
0.000926439
0.000955753
0.000988624
0.0010256
0.00106458
0.00110665
0.00114932
0.00119436
0.00123878
0.00128517
0.0013299
0.00137654
0.00142052
0.00146675
0.00150923
0.00155257
0.000891544
0.000897483
0.000909033
0.000926187
0.000948025
0.000974661
0.0010047
0.00103857
0.0010745
0.00111334
0.001153
0.00119489
0.00123649
0.00127992
0.00132206
0.00136595
0.00140761
0.00145122
0.0014918
0.00153273
0.000918604
0.000923969
0.000934431
0.000949979
0.000969849
0.000994119
0.00102163
0.00105268
0.00108579
0.00112163
0.00115842
0.00119727
0.0012361
0.00127657
0.00131614
0.00135719
0.00139654
0.00143746
0.00147589
0.00151487
0.000943674
0.000948514
0.000957974
0.000972038
0.000990085
0.00101215
0.00103729
0.0010657
0.00109618
0.00112918
0.00116328
0.00119929
0.00123553
0.00127321
0.00131038
0.00134873
0.0013859
0.00142422
0.00146059
0.00149714
0.000967772
0.000972152
0.000980731
0.00099349
0.00100991
0.00103001
0.001053
0.001079
0.00110702
0.00113739
0.00116892
0.00120222
0.00123588
0.00127091
0.00130559
0.00134141
0.00137622
0.0014122
0.00144641
0.00148081
0.000989761
0.000993721
0.00100149
0.00101305
0.00102798
0.00104627
0.00106727
0.00109104
0.00111678
0.0011447
0.00117383
0.0012046
0.00123587
0.00126838
0.00130074
0.00133412
0.00136671
0.00140031
0.00143246
0.00146475
0.00101026
0.00101385
0.0010209
0.0010314
0.00104499
0.00106165
0.00108083
0.00110258
0.00112621
0.00115186
0.00117872
0.00120711
0.00123608
0.0012662
0.00129631
0.00132733
0.0013578
0.00138907
0.00141932
0.00144934
0.00102852
0.00103177
0.00103818
0.0010477
0.00106007
0.00107523
0.00109275
0.00111264
0.00113431
0.00115786
0.00118261
0.0012088
0.0012356
0.00126349
0.00129146
0.00132026
0.00134867
0.00137778
0.00140608
0.00143421
0.0010447
0.00104765
0.00105348
0.00106214
0.00107341
0.00108724
0.00110326
0.00112146
0.00114134
0.00116298
0.00118577
0.00120991
0.00123471
0.00126049
0.00128646
0.00131315
0.00133963
0.00136662
0.0013931
0.00141924
0.00105848
0.00106117
0.00106647
0.00107435
0.00108462
0.00109723
0.00111187
0.00112853
0.00114677
0.00116664
0.00118764
0.00120989
0.0012328
0.00125664
0.00128073
0.00130547
0.0013301
0.00135516
0.00137985
0.00140424
0.00106949
0.00107194
0.00107678
0.00108398
0.00109337
0.00110491
0.00111834
0.00113363
0.00115041
0.00116871
0.00118809
0.00120864
0.00122986
0.00125194
0.00127432
0.00129726
0.00132021
0.00134346
0.00136652
0.00138921
0.0010779
0.00108013
0.00108455
0.00109113
0.00109973
0.00111031
0.00112263
0.00113668
0.00115213
0.00116901
0.00118691
0.00120593
0.0012256
0.00124608
0.00126688
0.0012882
0.00130959
0.00133122
0.00135274
0.0013739
0.00108269
0.00108475
0.00108882
0.00109488
0.0011028
0.00111257
0.00112396
0.00113696
0.00115129
0.00116696
0.00118362
0.00120133
0.0012197
0.00123882
0.0012583
0.00127824
0.0012983
0.00131853
0.00133875
0.00135856
0.00108461
0.0010865
0.00109026
0.00109586
0.00110319
0.00111223
0.0011228
0.00113488
0.00114822
0.00116283
0.0011784
0.00119497
0.0012122
0.00123014
0.00124846
0.00126721
0.00128612
0.00130516
0.00132426
0.0013429
0.00108189
0.00108367
0.00108718
0.00109242
0.0010993
0.00110779
0.00111773
0.00112911
0.00114171
0.00115553
0.0011703
0.00118603
0.00120244
0.00121955
0.00123706
0.00125499
0.00127312
0.00129132
0.00130966
0.00132749
0.00107596
0.00107763
0.00108095
0.00108589
0.00109239
0.00110043
0.00110986
0.00112067
0.00113268
0.00114587
0.00116001
0.00117511
0.0011909
0.00120739
0.00122432
0.00124166
0.00125925
0.0012769
0.00129474
0.00131203
0.00106413
0.00106574
0.00106893
0.00107371
0.00107999
0.00108776
0.00109692
0.00110744
0.00111916
0.00113207
0.00114597
0.00116083
0.00117646
0.0011928
0.00120967
0.00122696
0.00124457
0.00126224
0.00128017
0.00129753
0.00104874
0.00105031
0.00105343
0.00105811
0.00106427
0.00107192
0.00108095
0.00109135
0.00110298
0.00111582
0.00112971
0.0011446
0.00116034
0.00117683
0.00119394
0.00121151
0.00122949
0.00124756
0.00126595
0.0012838
0.00102587
0.00102745
0.00103061
0.00103534
0.00104158
0.00104935
0.00105854
0.00106918
0.00108111
0.00109435
0.00110872
0.00112422
0.00114066
0.00115798
0.00117605
0.00119467
0.00121387
0.0012332
0.00125299
0.0012723
0.000999203
0.00100084
0.00100409
0.00100897
0.00101542
0.00102349
0.00103304
0.00104415
0.00105665
0.0010706
0.00108579
0.00110228
0.00111985
0.00113845
0.00115797
0.00117817
0.00119913
0.00122029
0.00124208
0.00126347
0.00244803
0.00243491
0.00246865
0.00248221
0.0025069
0.00252347
0.00254262
0.00256119
0.00257386
0.00258327
0.00259968
0.00261019
0.00262116
0.00263068
0.00263898
0.00264727
0.00265429
0.00266169
0.00266828
0.0026753
0.00268207
0.00268925
0.00269676
0.00270461
0.00271344
0.00272254
0.00273332
0.0027444
0.00275775
0.00277186
0.00278806
0.00280692
0.00282791
0.00285181
0.00287912
0.00290886
0.00294371
0.0029792
0.00302879
0.00308805
0.00236574
0.0023937
0.00241868
0.0024387
0.00245685
0.00247582
0.00248811
0.00250753
0.00253479
0.00253501
0.00254261
0.00255865
0.00256705
0.00257961
0.0025881
0.00259876
0.00260726
0.00261698
0.0026257
0.00263522
0.00264451
0.00265443
0.00266472
0.00267566
0.00268747
0.00270017
0.00271407
0.00272957
0.00274609
0.00276621
0.00278535
0.00280849
0.00283455
0.00286267
0.00289585
0.00293147
0.00297352
0.00302257
0.00309072
0.00315605
0.00232081
0.00234284
0.00236125
0.00237812
0.00239497
0.00240976
0.00242622
0.00243764
0.00245533
0.00247119
0.00248224
0.00249468
0.00250703
0.00251805
0.00253032
0.00254086
0.00255278
0.0025634
0.00257517
0.00258631
0.00259838
0.00261049
0.00262344
0.00263696
0.00265159
0.00266696
0.00268445
0.00270191
0.00272431
0.00274353
0.00276534
0.00279453
0.00282286
0.00285527
0.0028924
0.00293201
0.00297957
0.00303701
0.00311108
0.00317606
0.00225189
0.00228076
0.00230311
0.00232335
0.00234586
0.00236085
0.00238025
0.00239402
0.00241298
0.00242372
0.00243885
0.00245079
0.00246409
0.00247622
0.00248871
0.0025009
0.00251321
0.00252569
0.00253832
0.00255146
0.00256487
0.00257911
0.00259377
0.00260951
0.00262595
0.00264353
0.00266245
0.00268188
0.00270437
0.00273938
0.00275308
0.00278241
0.00281593
0.00284834
0.00288579
0.00292646
0.00297133
0.00302517
0.00309459
0.00316095
0.00220121
0.00222745
0.0022469
0.00227108
0.00228299
0.00229865
0.00231652
0.00233127
0.00234793
0.00236282
0.00237776
0.00239211
0.0024065
0.00242043
0.00243476
0.00244858
0.00246317
0.00247726
0.00249243
0.00250719
0.00252326
0.00253914
0.00255647
0.00257393
0.00259284
0.00261248
0.00263308
0.00265575
0.00267756
0.00270474
0.0027349
0.00276947
0.00279417
0.00282711
0.00286392
0.00290278
0.0029442
0.00298775
0.00304453
0.00310791
0.00213854
0.00216786
0.00219088
0.00220908
0.002226
0.00224727
0.00226647
0.00228284
0.00230181
0.00231608
0.00233386
0.00234758
0.00236427
0.00237806
0.00239409
0.00240827
0.00242415
0.002439
0.00245522
0.00247104
0.00248809
0.0025052
0.00252357
0.00254236
0.00256256
0.00258348
0.00260604
0.00262972
0.00265513
0.00268261
0.00271104
0.00273877
0.00276886
0.00280297
0.0028386
0.00287452
0.00291441
0.00295165
0.00299532
0.00304681
0.00208805
0.00211577
0.00213576
0.00215499
0.00217472
0.00219307
0.00221114
0.00222755
0.00224565
0.00226129
0.00227891
0.00229431
0.00231151
0.00232696
0.00234398
0.00235975
0.00237691
0.00239327
0.00241089
0.00242812
0.00244656
0.00246497
0.00248457
0.00250453
0.00252566
0.00254755
0.00257059
0.00259484
0.00262029
0.00264728
0.00267592
0.00270585
0.00273666
0.00276867
0.00280333
0.00283818
0.00287599
0.0029136
0.00295337
0.00299486
0.00203264
0.00206115
0.00208489
0.00210297
0.00211379
0.00214255
0.00216461
0.00218011
0.00219954
0.00221604
0.00223423
0.00225087
0.00226847
0.00228514
0.00230257
0.0023194
0.002337
0.00235424
0.00237236
0.0023903
0.00240927
0.00242821
0.00244838
0.00246863
0.00249034
0.00251221
0.00253576
0.00255959
0.00258524
0.00261131
0.00263923
0.00266765
0.00269789
0.00272944
0.00276278
0.00279725
0.00283399
0.0028716
0.00291201
0.00295294
0.0019854
0.00201263
0.00203353
0.0020545
0.00207439
0.00209281
0.00211309
0.00213109
0.0021502
0.0021678
0.00218622
0.00220357
0.00222164
0.00223892
0.00225692
0.00227438
0.00229256
0.00231044
0.00232906
0.00234761
0.00236694
0.00238642
0.00240675
0.00242741
0.00244902
0.00247112
0.00249434
0.00251817
0.00254329
0.0025691
0.00259641
0.00262443
0.00265418
0.00268459
0.0027172
0.00275039
0.00278626
0.00282275
0.00286246
0.00290304
0.00193664
0.00196312
0.00198434
0.00200594
0.0020245
0.00204682
0.00206687
0.0020861
0.00210611
0.00212407
0.00214357
0.00216105
0.00218007
0.00219748
0.00221621
0.0022338
0.00225253
0.0022705
0.00228953
0.00230807
0.00232772
0.00234701
0.0023676
0.0023878
0.0024096
0.00243094
0.00245399
0.00247694
0.0025015
0.00252631
0.0025527
0.00257961
0.00260815
0.00263742
0.00266853
0.00270044
0.00273454
0.00276944
0.00280706
0.00284542
0.00189433
0.00191989
0.00194124
0.00196249
0.00198331
0.00200304
0.00202343
0.00204221
0.00206177
0.00208026
0.00209932
0.00211748
0.00213626
0.00215424
0.00217289
0.0021909
0.0022096
0.00222787
0.00224681
0.00226555
0.00228494
0.00230438
0.00232442
0.00234473
0.00236571
0.0023869
0.00240925
0.00243173
0.00245555
0.0024796
0.00250508
0.00253093
0.00255837
0.00258627
0.00261599
0.00264621
0.00267858
0.00271147
0.00274687
0.00278281
0.00185191
0.00187653
0.00189794
0.00191964
0.00194028
0.00196095
0.00198121
0.00200061
0.00202066
0.00203946
0.00205888
0.00207722
0.00209619
0.00211429
0.00213296
0.00215104
0.0021696
0.00218787
0.00220654
0.00222517
0.00224425
0.00226334
0.0022834
0.00230278
0.00232498
0.00234383
0.0023656
0.00238692
0.00240951
0.00243256
0.00245655
0.00248123
0.00250696
0.0025334
0.00256116
0.00258959
0.00261968
0.00265037
0.00268309
0.0027163
0.00181473
0.00183823
0.00185962
0.00188093
0.00190194
0.00192192
0.00194314
0.0019614
0.00197997
0.00199966
0.00201865
0.00203706
0.00205595
0.00207381
0.0020925
0.00211019
0.00212879
0.00214653
0.00216519
0.00218318
0.00220206
0.00222057
0.00223975
0.00225926
0.00227861
0.00229795
0.002319
0.0023397
0.00236134
0.00238328
0.00240601
0.00242925
0.00245342
0.00247813
0.00250401
0.00253039
0.00255825
0.00258656
0.00261665
0.00264714
0.00177829
0.00180058
0.00182222
0.00184315
0.00186414
0.00188417
0.00190455
0.00191967
0.00194347
0.00196195
0.00198111
0.00199906
0.00201787
0.00203546
0.002054
0.00207138
0.00208971
0.00210704
0.0021252
0.00214273
0.00216054
0.00217873
0.00219558
0.00221541
0.00224319
0.00225318
0.00227125
0.0022924
0.00231252
0.00233332
0.00235482
0.00237628
0.00239904
0.00242168
0.00244577
0.00246993
0.00249554
0.00252144
0.00254882
0.00257647
0.00174579
0.00176676
0.00178824
0.00180865
0.00182901
0.0018489
0.00186767
0.00188777
0.00190795
0.00192538
0.00194409
0.00196188
0.00197986
0.00199756
0.00201513
0.00203267
0.00205
0.00206742
0.00208464
0.00210204
0.00211931
0.0021367
0.00215425
0.00217147
0.00218976
0.00220818
0.00222612
0.00224462
0.00226362
0.00228261
0.00230256
0.00232233
0.0023433
0.00236403
0.00238616
0.00240801
0.00243145
0.00245462
0.0024794
0.0025042
0.00171372
0.00173398
0.00175515
0.00177524
0.00179554
0.00181486
0.00183443
0.00185289
0.00187198
0.00189004
0.00190833
0.00192596
0.00194364
0.00196089
0.00197809
0.00199506
0.00201191
0.0020287
0.00204533
0.00206203
0.00207866
0.00209529
0.00211239
0.00212869
0.00214734
0.00216241
0.00217996
0.0021967
0.00221431
0.00223189
0.00225008
0.00226833
0.00228731
0.00230637
0.00232622
0.00234652
0.0023671
0.00238958
0.00241029
0.00243263
0.00168507
0.00170426
0.00172493
0.0017445
0.00176419
0.0017832
0.00180209
0.00182049
0.00183897
0.00185649
0.00187433
0.00189132
0.00190854
0.00192514
0.00194185
0.00195812
0.00197443
0.00199043
0.00200647
0.00202225
0.00203814
0.00205377
0.00206964
0.00208524
0.00210115
0.00211699
0.00213289
0.00214892
0.00216505
0.00218135
0.00219789
0.00221456
0.00223167
0.00224882
0.00226673
0.00228438
0.00230354
0.00232151
0.00234084
0.00236054
0.00165743
0.00167577
0.00169607
0.00171496
0.0017343
0.00175262
0.00177113
0.00178886
0.00180666
0.00182383
0.00184097
0.00185762
0.00187418
0.00189034
0.0019064
0.00192214
0.00193778
0.00195315
0.00196847
0.00198353
0.00199865
0.00201342
0.00202846
0.002043
0.00205801
0.00207239
0.00208724
0.00210176
0.00211657
0.00213122
0.00214624
0.00216106
0.00217645
0.00219126
0.00220738
0.00222164
0.0022392
0.00226488
0.00227211
0.00228841
0.00163233
0.0016496
0.00166936
0.00168745
0.00170628
0.00172391
0.00174188
0.00175899
0.00177621
0.00179275
0.00180928
0.00182527
0.00184118
0.00185665
0.001872
0.00188701
0.00190187
0.00191645
0.00193091
0.0019451
0.00195923
0.00197311
0.00198698
0.00200061
0.0020143
0.00202774
0.00204132
0.00205464
0.00206822
0.00208146
0.00209506
0.00210838
0.00212208
0.00213559
0.00214941
0.00216332
0.00217706
0.00219181
0.0022068
0.0022213
0.00160819
0.00162473
0.00164386
0.00166127
0.0016793
0.00169636
0.00171354
0.00173008
0.00174654
0.0017625
0.0017783
0.00179369
0.00180889
0.00182372
0.00183838
0.00185266
0.00186684
0.0018806
0.00189434
0.00190762
0.00192098
0.00193382
0.00194684
0.00195931
0.00197203
0.00198423
0.00199665
0.00200879
0.00202082
0.00203233
0.00204471
0.00205634
0.0020685
0.00208028
0.00209236
0.00210463
0.0021165
0.00213011
0.00214116
0.00215373
0.00158607
0.00160149
0.00162
0.00163593
0.00165405
0.00167013
0.00168687
0.00170263
0.00171844
0.00173371
0.00174877
0.0017635
0.00177789
0.00179209
0.00180585
0.00181954
0.0018327
0.00184581
0.00185851
0.00187107
0.00188332
0.00189541
0.00190723
0.0019189
0.0019303
0.00194161
0.0019526
0.00196365
0.00197454
0.00198507
0.00199549
0.00200601
0.00201628
0.0020266
0.00203676
0.002047
0.00205713
0.00206739
0.00207773
0.00208797
0.00156493
0.00157967
0.00159779
0.00161308
0.00162913
0.00164517
0.00166075
0.00167599
0.00169096
0.00170554
0.00171986
0.00173384
0.00174752
0.00176095
0.00177403
0.00178687
0.00179948
0.00181166
0.0018237
0.00183533
0.00184682
0.00185793
0.00186889
0.0018795
0.00188998
0.00190005
0.00191014
0.00191957
0.00192944
0.00193894
0.00194797
0.00195694
0.00196581
0.00197448
0.00198309
0.00199159
0.00199995
0.00200836
0.00201655
0.00202475
0.00154494
0.00155985
0.00157579
0.00158645
0.00160669
0.00162218
0.00163638
0.00165086
0.00166489
0.00167863
0.00169221
0.00170538
0.00171835
0.00173113
0.00174331
0.00175608
0.00176708
0.00177869
0.00178966
0.0018005
0.00181109
0.00182131
0.00183139
0.00184105
0.00185059
0.0018597
0.00186871
0.00187728
0.0018858
0.00189382
0.00190179
0.00190938
0.00191687
0.00192403
0.00193109
0.00193788
0.00194457
0.00195104
0.00195746
0.00196369
0.00152572
0.00153903
0.00155436
0.00156918
0.0015847
0.00159811
0.00161252
0.00162581
0.00163938
0.0016523
0.00166513
0.00167759
0.00168965
0.00170168
0.00171281
0.00172458
0.00173607
0.00174626
0.00175681
0.0017667
0.00177653
0.00178591
0.0017951
0.00180388
0.00181247
0.00182063
0.00182862
0.00183617
0.00184356
0.00185058
0.00185729
0.00186373
0.00186984
0.0018757
0.00188126
0.00188659
0.00189164
0.00189648
0.00190108
0.00190549
0.00150783
0.00152004
0.00153519
0.00154782
0.00156274
0.00157565
0.00158927
0.00160194
0.00161471
0.00162686
0.00163902
0.00165042
0.00166215
0.00167244
0.00168411
0.00169939
0.00170491
0.00171402
0.00172452
0.00173354
0.00174288
0.00175146
0.00175993
0.00176792
0.00177564
0.00178298
0.00179
0.00179665
0.00180298
0.00180892
0.00181455
0.00181979
0.00182473
0.00182928
0.00183352
0.0018374
0.00184099
0.00184424
0.00184719
0.00184989
0.00149015
0.00150181
0.00151584
0.00152848
0.00154184
0.00155412
0.0015668
0.00157868
0.00159072
0.00160215
0.00161362
0.00162451
0.00163549
0.00164572
0.00165638
0.00166573
0.00167486
0.00168452
0.00169333
0.00170207
0.00171034
0.00171831
0.00172594
0.00173318
0.00174012
0.00174663
0.00175284
0.00175861
0.00176405
0.00176907
0.00177371
0.00177794
0.00178176
0.00178519
0.0017882
0.00179082
0.00179301
0.00179484
0.00179624
0.00179734
0.00147317
0.00148397
0.00149728
0.00150887
0.00152152
0.00153291
0.00154489
0.00155596
0.00156731
0.001578
0.00158873
0.00159903
0.00160911
0.00161909
0.00162839