/*--------------------------------*- C++ -*----------------------------------*\
| =========                 |                                                 |
| \\      /  F ield         | OpenFOAM: The Open Source CFD Toolbox           |
|  \\    /   O peration     | Version:  v2012                                 |
|   \\  /    A nd           | Website:  www.openfoam.com                      |
|    \\/     M anipulation  |                                                 |
\*---------------------------------------------------------------------------*/
FoamFile
{
    version     2.0;
    format      ascii;
    class       volSymmTensorField;
    location    "10";
    object      sigma;
}
// * * * * * * * * * * * * * * * * * * * * * * * * * * * * * * * * * * * * * //

dimensions      [1 -1 -2 0 0 0 0];


internalField   nonuniform List<symmTensor> 
4000
(
(2.84711e+08 -5.66535e+06 -2.80392e-08 4.36677e+06 5.80488e-08 1.41685e+08)
(2.90678e+08 -5.39247e+06 -4.57287e-10 1.03221e+07 7.59889e-08 1.47032e+08)
(2.97981e+08 -5.4452e+06 -6.172e-16 1.76408e+07 -8.20997e-14 1.53655e+08)
(3.03588e+08 -5.43023e+06 4.58124e-08 2.32689e+07 -7.50417e-08 1.58286e+08)
(3.10644e+08 -5.42863e+06 -7.1989e-08 3.03581e+07 -7.48023e-08 1.64128e+08)
(3.159e+08 -5.46536e+06 1.27828e-09 3.56689e+07 3.67194e-08 1.67892e+08)
(3.22657e+08 -5.49396e+06 -4.56653e-08 4.25133e+07 -6.97275e-10 1.72678e+08)
(3.27722e+08 -5.54583e+06 0 4.77081e+07 0 1.75423e+08)
(3.34059e+08 -5.56699e+06 3.50979e-09 5.42559e+07 6.91066e-08 1.78708e+08)
(3.38829e+08 -5.55572e+06 4.74543e-08 5.93348e+07 3.45675e-08 1.79886e+08)
(3.44434e+08 -5.44046e+06 -4.54554e-09 6.54249e+07 -6.41204e-08 1.8094e+08)
(3.48395e+08 -5.17957e+06 -5.30762e-09 7.00804e+07 -6.08089e-08 1.7967e+08)
(3.52513e+08 -4.72612e+06 -3.11164e-09 7.52381e+07 -2.83638e-08 1.77528e+08)
(3.54687e+08 -4.01061e+06 7.15923e-09 7.88022e+07 5.21809e-08 1.72966e+08)
(3.56291e+08 -3.04173e+06 2.86012e-08 8.22619e+07 2.55345e-08 1.67293e+08)
(3.55708e+08 -1.76128e+06 -4.2981e-09 8.38776e+07 -2.09373e-08 1.59621e+08)
(3.54141e+08 -295187 -2.9876e-08 8.4819e+07 -2.10892e-08 1.51303e+08)
(3.50635e+08 1.38656e+06 -5.57451e-08 8.38306e+07 -2.20911e-08 1.42035e+08)
(3.46671e+08 3.35296e+06 -2.58493e-08 8.22819e+07 -3.19805e-09 1.33302e+08)
(3.37878e+08 5.26349e+06 -4.62064e-08 7.73646e+07 1.09264e-08 1.24573e+08)
(2.83802e+08 -1.6921e+07 -6.51425e-09 5.2808e+06 3.90217e-08 1.41441e+08)
(2.89721e+08 -1.6175e+07 2.34596e-08 1.1033e+07 3.52206e-08 1.46635e+08)
(2.97193e+08 -1.63314e+07 2.26625e-08 1.85561e+07 -7.73051e-08 1.53395e+08)
(3.02709e+08 -1.63036e+07 4.9028e-08 2.40897e+07 3.33952e-08 1.57929e+08)
(3.09909e+08 -1.63191e+07 -6.98892e-08 3.13304e+07 4.19961e-09 1.63883e+08)
(3.15135e+08 -1.64247e+07 -1.22654e-14 3.6637e+07 -1.29162e-13 1.67582e+08)
(3.21973e+08 -1.64774e+07 1.76918e-10 4.35822e+07 1.54154e-09 1.72359e+08)
(3.26961e+08 -1.65681e+07 -5.51322e-08 4.87351e+07 -7.09538e-08 1.7487e+08)
(3.3321e+08 -1.65077e+07 0 5.5212e+07 0 1.77798e+08)
(3.37693e+08 -1.63213e+07 7.50997e-08 6.00117e+07 3.51315e-08 1.78364e+08)
(3.4286e+08 -1.57648e+07 9.65558e-15 6.563e+07 4.04872e-14 1.78537e+08)
(3.4618e+08 -1.47806e+07 -1.72413e-08 6.95542e+07 -5.87368e-08 1.76207e+08)
(3.49469e+08 -1.31776e+07 -1.00379e-08 7.37044e+07 -2.717e-08 1.72939e+08)
(3.5068e+08 -1.08702e+07 1.13906e-08 7.60215e+07 2.48156e-08 1.67344e+08)
(3.5126e+08 -7.84386e+06 3.74579e-08 7.808e+07 2.79682e-08 1.60874e+08)
(3.49679e+08 -4.06949e+06 -1.24989e-08 7.82178e+07 1.26798e-08 1.52868e+08)
(3.47366e+08 149219 -1.25512e-08 7.79378e+07 9.80167e-09 1.44789e+08)
(3.43122e+08 4.83211e+06 -6.36454e-08 7.57188e+07 -3.25397e-08 1.36271e+08)
(3.38843e+08 9.91744e+06 1.80511e-10 7.36185e+07 2.41731e-10 1.28798e+08)
(3.32491e+08 1.49196e+07 -6.82058e-08 6.90465e+07 -4.11239e-08 1.21215e+08)
(2.81974e+08 -2.79765e+07 1.33773e-08 7.04814e+06 3.40871e-08 1.40949e+08)
(2.87847e+08 -2.69525e+07 2.20094e-08 1.25264e+07 3.18137e-08 1.45899e+08)
(2.95602e+08 -2.71624e+07 -1.31479e-10 2.0383e+07 -3.85622e-08 1.52829e+08)
(3.00989e+08 -2.71669e+07 -1.97362e-08 2.58012e+07 7.72453e-08 1.57187e+08)
(3.08387e+08 -2.71859e+07 4.68283e-08 3.32542e+07 -3.72285e-09 1.63192e+08)
(3.13514e+08 -2.73323e+07 1.32377e-08 3.85106e+07 -7.30756e-08 1.66656e+08)
(3.20374e+08 -2.73003e+07 1.24599e-08 4.54818e+07 6.88384e-08 1.71139e+08)
(3.25125e+08 -2.72226e+07 3.29954e-10 5.0395e+07 1.43877e-09 1.72983e+08)
(3.31065e+08 -2.67739e+07 -7.54757e-08 5.64888e+07 -1.01477e-07 1.74951e+08)
(3.34911e+08 -2.59312e+07 3.50612e-08 6.05e+07 3.33232e-08 1.74134e+08)
(3.3916e+08 -2.44099e+07 3.80789e-08 6.49505e+07 3.34816e-08 1.72588e+08)
(3.41233e+08 -2.20753e+07 -7.70442e-09 6.72381e+07 -4.82442e-08 1.68431e+08)
(3.42996e+08 -1.87942e+07 -6.92913e-08 6.93573e+07 -4.03209e-08 1.63388e+08)
(3.42563e+08 -1.45299e+07 -5.453e-09 6.93756e+07 1.27416e-08 1.56552e+08)
(3.41545e+08 -9.39975e+06 4.28996e-08 6.90942e+07 4.02165e-08 1.49534e+08)
(3.38616e+08 -3.56755e+06 2.1811e-08 6.70762e+07 1.85667e-08 1.41932e+08)
(3.35401e+08 2.63314e+06 2.6262e-08 6.5143e+07 1.32744e-08 1.3509e+08)
(3.30666e+08 8.98367e+06 -6.23295e-08 6.18491e+07 -4.47335e-08 1.2836e+08)
(3.26262e+08 1.52529e+07 -2.624e-10 5.93036e+07 -2.50427e-10 1.22777e+08)
(3.20863e+08 2.12279e+07 -5.86666e-08 5.60075e+07 -4.62867e-08 1.17119e+08)
(2.79454e+08 -3.87215e+07 -6.57169e-08 9.80426e+06 5.40918e-08 1.40399e+08)
(2.85019e+08 -3.77761e+07 -8.21551e-09 1.48541e+07 7.69037e-08 1.44842e+08)
(2.93309e+08 -3.79211e+07 2.35597e-08 2.32591e+07 -5.86588e-09 1.51974e+08)
(2.98398e+08 -3.79528e+07 -9.55281e-10 2.84093e+07 -3.61933e-08 1.55837e+08)
(3.06066e+08 -3.79032e+07 6.33054e-08 3.61284e+07 -8.49232e-08 1.61649e+08)
(3.10898e+08 -3.79034e+07 1.1985e-08 4.10745e+07 6.95735e-08 1.64342e+08)
(3.17631e+08 -3.75416e+07 9.22306e-09 4.7814e+07 3.53247e-08 1.67896e+08)
(3.2179e+08 -3.6942e+07 7.17323e-08 5.19577e+07 2.68782e-09 1.6823e+08)
(3.27034e+08 -3.55357e+07 9.93124e-09 5.69706e+07 -2.56363e-08 1.68338e+08)
(3.2972e+08 -3.33782e+07 -3.79442e-08 5.92783e+07 -5.64116e-08 1.65299e+08)
(3.32571e+08 -3.01132e+07 5.14705e-08 6.16024e+07 1.64707e-08 1.61582e+08)
(3.3292e+08 -2.5798e+07 2.52746e-08 6.13086e+07 2.29431e-08 1.5561e+08)
(3.32974e+08 -2.0438e+07 2.91672e-08 6.0797e+07 2.193e-08 1.49603e+08)
(3.3093e+08 -1.42906e+07 -8.30972e-08 5.8275e+07 -4.94037e-08 1.42826e+08)
(3.28747e+08 -7.63977e+06 -2.72293e-08 5.59745e+07 -1.64577e-08 1.36949e+08)
(3.25123e+08 -813820 2.6391e-08 5.25271e+07 1.6738e-08 1.31242e+08)
(3.21795e+08 5.86019e+06 7.44233e-08 4.9919e+07 4.94289e-08 1.26625e+08)
(3.17523e+08 1.21948e+07 5.18239e-08 4.67389e+07 3.42459e-08 1.22049e+08)
(3.13848e+08 1.80435e+07 -2.47965e-08 4.46833e+07 -1.64496e-08 1.18149e+08)
(3.09454e+08 2.35049e+07 3.07169e-08 4.22909e+07 2.38221e-08 1.13746e+08)
(2.76171e+08 -4.91892e+07 -2.46093e-08 1.34551e+07 9.74491e-09 1.39744e+08)
(2.81374e+08 -4.84508e+07 3.52239e-08 1.81442e+07 -8.93566e-08 1.43515e+08)
(2.89925e+08 -4.84519e+07 3.44091e-09 2.67605e+07 -3.96456e-08 1.50305e+08)
(2.94911e+08 -4.83798e+07 2.33578e-08 3.17832e+07 -8.42689e-09 1.53353e+08)
(3.0255e+08 -4.80478e+07 -8.38872e-11 3.93496e+07 -7.90825e-10 1.58005e+08)
(3.06883e+08 -4.76432e+07 -1.58743e-08 4.36443e+07 3.65455e-08 1.58886e+08)
(3.13277e+08 -4.64877e+07 6.12562e-08 4.96582e+07 -3.01228e-08 1.60386e+08)
(3.16232e+08 -4.4761e+07 6.65325e-09 5.20166e+07 -2.49821e-08 1.58024e+08)
(3.20195e+08 -4.16898e+07 2.5424e-08 5.48549e+07 6.32094e-09 1.55415e+08)
(3.21189e+08 -3.75326e+07 0 5.43339e+07 0 1.50155e+08)
(3.22297e+08 -3.21134e+07 3.26094e-08 5.3685e+07 2.02202e-08 1.45086e+08)
(3.21113e+08 -2.58442e+07 -5.69915e-08 5.06515e+07 -3.41187e-08 1.39158e+08)
(3.19976e+08 -1.8992e+07 9.204e-08 4.79234e+07 5.46395e-08 1.34378e+08)
(3.17359e+08 -1.19977e+07 9.76859e-08 4.40531e+07 5.36951e-08 1.29766e+08)
(3.15091e+08 -5.13743e+06 -3.30025e-09 4.11277e+07 3.69368e-09 1.26362e+08)
(3.11933e+08 1.32459e+06 -2.84115e-08 3.78289e+07 -1.6421e-08 1.22978e+08)
(3.09314e+08 7.38817e+06 1.11821e-09 3.57101e+07 3.10658e-09 1.20158e+08)
(3.05924e+08 1.29841e+07 2.43876e-08 3.32295e+07 1.81431e-08 1.16931e+08)
(3.0307e+08 1.8279e+07 -5.26471e-09 3.18453e+07 -3.32953e-09 1.13844e+08)
(2.99328e+08 2.32333e+07 4.38415e-08 2.9843e+07 3.17323e-08 1.10153e+08)
(2.7244e+08 -5.92372e+07 4.77834e-08 1.81863e+07 -2.09461e-08 1.39124e+08)
(2.7646e+08 -5.88315e+07 -2.88883e-08 2.18919e+07 5.18362e-08 1.41308e+08)
(2.85918e+08 -5.84812e+07 2.29014e-08 3.11828e+07 -9.79794e-09 1.4753e+08)
(2.8984e+08 -5.8545e+07 -1.29171e-09 3.53976e+07 -3.53951e-08 1.48102e+08)
(2.98372e+08 -5.69486e+07 -4.99382e-08 4.29287e+07 8.60475e-09 1.51125e+08)
(3.01245e+08 -5.61507e+07 -4.13767e-08 4.58099e+07 -2.92559e-08 1.47936e+08)
(3.06983e+08 -5.29648e+07 -2.34734e-08 4.98922e+07 -2.57214e-08 1.45857e+08)
(3.0818e+08 -4.91788e+07 3.22699e-08 4.91596e+07 3.24127e-08 1.40266e+08)
(3.1035e+08 -4.3812e+07 -2.91942e-08 4.86352e+07 -1.46549e-08 1.35678e+08)
(3.09653e+08 -3.7523e+07 -1.03469e-07 4.4764e+07 -5.40732e-08 1.30299e+08)
(3.09541e+08 -3.06642e+07 2.26954e-08 4.16176e+07 -1.1745e-08 1.26682e+08)
(3.07711e+08 -2.3638e+07 -7.0954e-08 3.69814e+07 -3.65778e-08 1.23339e+08)
(3.06555e+08 -1.68145e+07 -7.6719e-08 3.37342e+07 -2.98707e-08 1.21385e+08)
(3.043e+08 -1.03562e+07 2.7691e-08 2.99844e+07 2.12756e-08 1.19285e+08)
(3.02747e+08 -4.2939e+06 3.03457e-08 2.76938e+07 1.50333e-08 1.17755e+08)
(3.00237e+08 1.38025e+06 2.71964e-08 2.4973e+07 2.10263e-08 1.15536e+08)
(2.9825e+08 6.8742e+06 2.5286e-08 2.3374e+07 1.52831e-08 1.13489e+08)
(2.95296e+08 1.20755e+07 7.34332e-08 2.11813e+07 5.17513e-08 1.10729e+08)
(2.92818e+08 1.71776e+07 -6.76974e-08 1.99647e+07 -4.98349e-08 1.08154e+08)
(2.89521e+08 2.1881e+07 -7.28632e-09 1.8141e+07 -4.46086e-09 1.05072e+08)
(2.67925e+08 -6.9102e+07 -2.98041e-08 2.3904e+07 6.42351e-08 1.37915e+08)
(2.70999e+08 -6.87956e+07 -1.98472e-08 2.67839e+07 -2.24089e-08 1.37945e+08)
(2.80477e+08 -6.8412e+07 -4.00507e-09 3.62566e+07 -7.22429e-08 1.4176e+08)
(2.83545e+08 -6.77192e+07 2.65908e-09 3.9259e+07 9.81706e-08 1.38277e+08)
(2.90825e+08 -6.52774e+07 -8.46828e-09 4.528e+07 2.46812e-08 1.35702e+08)
(2.93003e+08 -6.16128e+07 1.17583e-09 4.53387e+07 -1.08831e-08 1.28461e+08)
(2.96487e+08 -5.59865e+07 -3.97573e-08 4.54398e+07 -1.43653e-08 1.2221e+08)
(2.96668e+08 -4.93421e+07 -3.38228e-08 4.11568e+07 -2.04113e-08 1.16183e+08)
(2.97481e+08 -4.2218e+07 1.18414e-07 3.73853e+07 5.70953e-08 1.12986e+08)
(2.96567e+08 -3.51132e+07 -1.85461e-08 3.19748e+07 -3.88922e-08 1.10947e+08)
(2.96419e+08 -2.84332e+07 8.96534e-10 2.82082e+07 2.16097e-10 1.10632e+08)
(2.95087e+08 -2.21177e+07 -8.2824e-08 2.39211e+07 -2.41642e-08 1.10176e+08)
(2.94481e+08 -1.62245e+07 -6.85261e-08 2.12736e+07 -3.64163e-08 1.10154e+08)
(2.92808e+08 -1.06334e+07 3.97899e-08 1.81573e+07 4.58081e-09 1.09275e+08)
(2.91638e+08 -5.17176e+06 -8.78833e-08 1.62085e+07 -5.86236e-08 1.08396e+08)
(2.89393e+08 137532 -5.75033e-08 1.36199e+07 -3.66833e-08 1.06666e+08)
(2.8759e+08 5.39556e+06 -5.35205e-08 1.19981e+07 -3.59195e-08 1.05089e+08)
(2.84903e+08 1.03566e+07 2.36371e-08 9.81904e+06 1.30078e-08 1.02931e+08)
(2.82805e+08 1.51989e+07 7.15005e-08 8.65615e+06 4.88194e-08 1.01145e+08)
(2.79953e+08 1.95793e+07 -4.56529e-08 6.91439e+06 -3.4768e-08 9.88669e+07)
(2.6276e+08 -7.88226e+07 -2.93905e-08 3.10499e+07 3.13596e-08 1.34958e+08)
(2.64487e+08 -7.76862e+07 5.57324e-08 3.1687e+07 1.34765e-08 1.30867e+08)
(2.73997e+08 -7.66005e+07 -8.34972e-08 4.10335e+07 1.01839e-08 1.30275e+08)
(2.75386e+08 -7.42251e+07 3.2501e-08 4.11991e+07 6.0376e-09 1.21034e+08)
(2.80349e+08 -6.97847e+07 -1.60448e-08 4.36414e+07 5.54876e-09 1.1284e+08)
(2.80371e+08 -6.34486e+07 -7.1328e-08 3.85599e+07 8.03075e-09 1.03631e+08)
(2.83115e+08 -5.5052e+07 -2.24851e-08 3.45929e+07 -4.95951e-08 9.85692e+07)
(2.83172e+08 -4.68234e+07 -3.89716e-08 2.78793e+07 -2.80899e-08 9.56028e+07)
(2.84634e+08 -3.95519e+07 -2.34091e-08 2.41034e+07 -5.15948e-08 9.56407e+07)
(2.8427e+08 -3.32463e+07 8.51876e-08 1.94243e+07 3.33658e-08 9.59393e+07)
(2.84785e+08 -2.76172e+07 3.38943e-08 1.6763e+07 2.61137e-08 9.70719e+07)
(2.83868e+08 -2.22661e+07 5.06072e-14 1.32004e+07 1.10134e-14 9.73871e+07)
(2.83542e+08 -1.69979e+07 -6.95238e-08 1.09219e+07 -3.43969e-08 9.78268e+07)
(2.81937e+08 -1.18442e+07 4.35702e-09 7.78207e+06 -1.39034e-08 9.73475e+07)
(2.8078e+08 -6.62016e+06 3.27514e-08 5.64601e+06 1.08835e-08 9.69132e+07)
(2.78617e+08 -1.61532e+06 -5.80641e-08 2.88439e+06 -3.46863e-08 9.58074e+07)
(2.77053e+08 3.30967e+06 -2.58242e-14 1.20388e+06 -1.04567e-14 9.50077e+07)
(2.7471e+08 7.8469e+06 -7.95132e-08 -970759 -6.91303e-08 9.36928e+07)
(2.73004e+08 1.23585e+07 1.83727e-09 -2.10599e+06 1.12513e-08 9.27104e+07)
(2.70608e+08 1.62959e+07 -6.3481e-08 -3.77358e+06 -4.60073e-08 9.11281e+07)
(2.56626e+08 -8.74752e+07 -5.35548e-08 3.85678e+07 1.67952e-08 1.26832e+08)
(2.56749e+08 -8.4372e+07 2.52987e-08 3.52357e+07 2.25842e-08 1.16128e+08)
(2.65e+08 -8.267e+07 -4.45209e-08 4.41577e+07 -1.20475e-08 1.10224e+08)
(2.6475e+08 -7.71313e+07 -1.18125e-07 3.844e+07 -9.4189e-09 9.87834e+07)
(2.69428e+08 -6.93888e+07 1.0597e-07 3.57092e+07 2.79754e-08 9.22683e+07)
(2.65681e+08 -5.99873e+07 1.49003e-07 2.65363e+07 -3.18221e-08 8.76651e+07)
(2.66066e+08 -5.20731e+07 -1.80912e-08 2.26343e+07 -5.99362e-08 8.66101e+07)
(2.68343e+08 -4.56855e+07 -3.86025e-08 1.68139e+07 -2.94016e-08 8.5547e+07)
(2.72016e+08 -3.9747e+07 -1.27054e-07 1.48504e+07 -5.96773e-08 8.606e+07)
(2.74553e+08 -3.41203e+07 -9.98933e-08 1.04233e+07 -5.71217e-09 8.56293e+07)
(2.75672e+08 -2.81613e+07 4.5887e-08 8.47327e+06 3.61723e-09 8.6184e+07)
(2.74573e+08 -2.2437e+07 7.0105e-08 4.62478e+06 5.44563e-08 8.58909e+07)
(2.74212e+08 -1.69811e+07 -4.50982e-14 2.26347e+06 -6.62432e-15 8.61123e+07)
(2.72351e+08 -1.20279e+07 3.67891e-08 -1.18156e+06 6.65432e-09 8.55844e+07)
(2.71135e+08 -7.30421e+06 -2.37007e-09 -3.42996e+06 1.85439e-08 8.53813e+07)
(2.69098e+08 -2.88331e+06 2.85089e-08 -6.22267e+06 4.22465e-08 8.48229e+07)
(2.67701e+08 1.45163e+06 5.77091e-08 -7.95103e+06 3.29168e-08 8.45451e+07)
(2.65604e+08 5.40588e+06 5.59724e-08 -1.01445e+07 4.84908e-08 8.37568e+07)
(2.64087e+08 9.45868e+06 -5.42035e-08 -1.13917e+07 -4.79255e-08 8.31703e+07)
(2.61948e+08 1.29475e+07 2.39856e-08 -1.31205e+07 8.88476e-09 8.19979e+07)
(2.47373e+08 -9.49955e+07 -9.72114e-08 4.51096e+07 2.62875e-09 1.10273e+08)
(2.47503e+08 -8.95173e+07 -5.61228e-08 3.84095e+07 -4.34421e-09 9.58505e+07)
(2.55948e+08 -8.49677e+07 0 4.32465e+07 0 9.07829e+07)
(2.50354e+08 -7.33492e+07 -6.57675e-08 3.02312e+07 4.55344e-09 8.41756e+07)
(2.51384e+08 -6.46693e+07 -1.51379e-07 2.82897e+07 -5.74066e-08 8.39022e+07)
(2.53391e+08 -5.72166e+07 1.81555e-08 1.98697e+07 -3.35241e-08 8.19783e+07)
(2.55723e+08 -5.14115e+07 9.77715e-08 1.89434e+07 2.75499e-08 8.23998e+07)
(2.56617e+08 -4.54407e+07 8.01496e-08 1.29642e+07 5.95627e-08 8.08745e+07)
(2.58406e+08 -3.94222e+07 1.15508e-07 1.10019e+07 8.80605e-08 8.08224e+07)
(2.59602e+08 -3.34021e+07 -4.69162e-08 5.52639e+06 -2.06347e-11 7.95385e+07)
(2.61732e+08 -2.75094e+07 -8.92783e-08 2.994e+06 -1.26552e-09 7.94179e+07)
(2.62912e+08 -2.19894e+07 -1.61767e-09 -1.7863e+06 -6.02001e-11 7.83377e+07)
(2.64521e+08 -1.68651e+07 3.90949e-08 -4.08396e+06 1.98438e-09 7.81313e+07)
(2.65186e+08 -1.21014e+07 3.31639e-08 -7.99563e+06 2.76304e-08 7.72292e+07)
(2.64309e+08 -7.45587e+06 3.06341e-08 -9.84734e+06 5.06836e-08 7.71205e+07)
(2.6219e+08 -3.19381e+06 -3.17462e-08 -1.27354e+07 -4.21736e-09 7.64539e+07)
(2.60809e+08 815029 -5.13101e-10 -1.44632e+07 -8.11449e-11 7.6098e+07)
(2.58584e+08 4.38519e+06 1.0963e-07 -1.68789e+07 4.03495e-08 7.52277e+07)
(2.56963e+08 7.97094e+06 5.46035e-08 -1.83915e+07 3.04781e-08 7.46401e+07)
(2.54977e+08 1.09519e+07 5.83455e-09 -2.01826e+07 3.86482e-08 7.37567e+07)
(2.36781e+08 -1.00069e+08 -8.71752e-08 4.91608e+07 3.42017e-08 9.1916e+07)
(2.34371e+08 -9.03589e+07 -7.7729e-08 3.88056e+07 9.76569e-09 8.19531e+07)
(2.36233e+08 -8.03188e+07 2.35596e-08 3.84392e+07 7.23365e-08 8.24018e+07)
(2.36487e+08 -7.01313e+07 4.26723e-08 2.69754e+07 3.20043e-08 7.90388e+07)
(2.40107e+08 -6.39876e+07 1.28018e-07 2.68692e+07 -1.557e-08 8.00927e+07)
(2.40523e+08 -5.59508e+07 1.30638e-09 1.88605e+07 -1.42295e-10 7.78151e+07)
(2.43028e+08 -4.95054e+07 -2.92953e-08 1.67434e+07 7.32213e-08 7.79314e+07)
(2.44803e+08 -4.29319e+07 -6.70422e-08 9.95831e+06 4.00139e-08 7.64285e+07)
(2.47344e+08 -3.73559e+07 8.63953e-08 7.07053e+06 2.61075e-08 7.63245e+07)
(2.48966e+08 -3.17819e+07 8.32476e-08 1.47584e+06 2.67785e-08 7.51326e+07)
(2.50611e+08 -2.6597e+07 8.01801e-08 -1.38407e+06 2.69137e-08 7.4768e+07)
(2.513e+08 -2.14573e+07 -6.99657e-08 -5.94469e+06 -5.7574e-08 7.36066e+07)
(2.5231e+08 -1.66068e+07 -3.78483e-08 -8.46595e+06 8.18648e-10 7.31531e+07)
(2.53005e+08 -1.19731e+07 -6.89721e-08 -1.22257e+07 -2.78488e-08 7.22337e+07)
(2.541e+08 -7.57657e+06 -3.33962e-08 -1.43989e+07 -2.74914e-08 7.19103e+07)
(2.54056e+08 -3.53227e+06 -6.44118e-08 -1.7628e+07 -8.04701e-08 7.09285e+07)
(2.54109e+08 308535 -6.15637e-08 -1.94659e+07 -5.36183e-08 7.0393e+07)
(2.53359e+08 3.69163e+06 -2.68161e-08 -2.20152e+07 -1.53398e-09 6.94678e+07)
(2.52026e+08 7.04668e+06 3.16087e-08 -2.32702e+07 5.00759e-08 6.90011e+07)
(2.50171e+08 9.81262e+06 4.42505e-08 -2.50033e+07 1.58833e-08 6.82052e+07)
(2.20173e+08 -1.00193e+08 1.20954e-07 4.88978e+07 2.57233e-08 8.07213e+07)
(2.17505e+08 -8.71306e+07 -1.47898e-07 4.14057e+07 2.83548e-08 7.76732e+07)
(2.21983e+08 -7.88293e+07 -7.33469e-08 3.68184e+07 1.37802e-08 7.76405e+07)
(2.21802e+08 -6.8379e+07 2.13337e-08 2.86729e+07 -4.46245e-08 7.51424e+07)
(2.25152e+08 -6.11268e+07 4.29599e-08 2.47698e+07 3.18919e-08 7.49766e+07)
(2.27273e+08 -5.31056e+07 2.68065e-08 1.69151e+07 7.34831e-08 7.32566e+07)
(2.30479e+08 -4.71366e+07 3.92442e-08 1.3253e+07 3.15235e-08 7.31197e+07)
(2.32697e+08 -4.08012e+07 1.14737e-08 6.73587e+06 -3.8939e-08 7.18299e+07)
(2.35532e+08 -3.54478e+07 -7.7332e-08 3.27254e+06 -6.09281e-08 7.16413e+07)
(2.37558e+08 -3.00234e+07 -8.24986e-08 -2.21095e+06 -2.41221e-08 7.0604e+07)
(2.39905e+08 -2.51613e+07 4.07873e-08 -5.36411e+06 -5.03208e-09 7.03623e+07)
(2.41428e+08 -2.0455e+07 7.47897e-08 -9.88426e+06 2.49936e-08 6.94632e+07)
(2.43041e+08 -1.61417e+07 6.98365e-08 -1.25386e+07 5.74094e-08 6.91508e+07)
(2.43854e+08 -1.20228e+07 3.46305e-08 -1.61866e+07 -2.84038e-09 6.83002e+07)
(2.44602e+08 -7.99683e+06 -3.05702e-11 -1.837e+07 -3.02366e-08 6.78695e+07)
(2.44624e+08 -4.21898e+06 3.30939e-08 -2.12861e+07 2.73671e-08 6.70012e+07)
(2.44854e+08 -608059 -5.18098e-08 -2.29112e+07 3.13526e-08 6.6583e+07)
(2.44629e+08 2.59359e+06 3.39517e-08 -2.50917e+07 5.42884e-08 6.58612e+07)
(2.44636e+08 5.7877e+06 2.48843e-08 -2.62916e+07 -8.81741e-10 6.55035e+07)
(2.43675e+08 8.49607e+06 -7.30056e-08 -2.79593e+07 -3.96471e-08 6.47148e+07)
(1.98518e+08 -9.74474e+07 1.50403e-07 5.16085e+07 -9.71485e-09 7.50379e+07)
(2.00043e+08 -8.50863e+07 4.71967e-08 4.31854e+07 -1.02364e-07 7.29684e+07)
(2.04089e+08 -7.49181e+07 -4.45995e-08 3.574e+07 -3.32287e-08 7.19488e+07)
(2.06703e+08 -6.51858e+07 -1.10286e-07 2.71695e+07 -1.61812e-08 7.01616e+07)
(2.11018e+08 -5.80634e+07 -6.01483e-08 2.15627e+07 1.50286e-08 6.97743e+07)
(2.13902e+08 -5.05996e+07 -1.23218e-09 1.40757e+07 2.98952e-10 6.83934e+07)
(2.17729e+08 -4.46978e+07 -2.97938e-08 9.43025e+06 -7.58079e-08 6.81479e+07)
(2.20622e+08 -3.87349e+07 1.29847e-07 3.0669e+06 5.1348e-08 6.71067e+07)
(2.23917e+08 -3.36745e+07 8.60323e-08 -899022 2.0471e-08 6.69055e+07)
(2.26433e+08 -2.86871e+07 -4.18819e-08 -6.16845e+06 8.68814e-09 6.60794e+07)
(2.29077e+08 -2.41902e+07 -3.91688e-08 -9.47008e+06 7.83589e-09 6.5882e+07)
(2.31017e+08 -1.98584e+07 -3.25859e-09 -1.37506e+07 7.29476e-08 6.51798e+07)
(2.33021e+08 -1.58059e+07 -1.32693e-09 -1.63958e+07 2.40356e-10 6.49876e+07)
(2.344e+08 -1.20112e+07 3.04004e-08 -1.98262e+07 -3.94027e-08 6.43721e+07)
(2.35818e+08 -8.3675e+06 2.16392e-09 -2.18362e+07 3.30677e-08 6.41945e+07)
(2.36519e+08 -5.0618e+06 6.66108e-08 -2.44537e+07 8.72844e-08 6.36196e+07)
(2.37283e+08 -1.81722e+06 3.73765e-09 -2.58165e+07 3.12871e-08 6.344e+07)
(2.3734e+08 1.01532e+06 -6.13695e-08 -2.76805e+07 -5.32308e-08 6.28979e+07)
(2.37561e+08 3.95765e+06 4.66281e-08 -2.85188e+07 -6.93789e-09 6.27127e+07)
(2.36918e+08 6.39871e+06 5.11964e-08 -2.96436e+07 2.24407e-08 6.21824e+07)
(1.75174e+08 -9.31143e+07 2.23276e-07 5.33299e+07 -1.51578e-07 6.85513e+07)
(1.79984e+08 -8.09753e+07 7.86579e-08 4.24002e+07 -2.54723e-08 6.67151e+07)
(1.86174e+08 -7.10978e+07 -8.94809e-08 3.37246e+07 7.72423e-08 6.59697e+07)
(1.90517e+08 -6.21389e+07 1.44569e-09 2.47466e+07 -4.65155e-10 6.4579e+07)
(1.95824e+08 -5.49729e+07 -1.4753e-07 1.81001e+07 -4.62891e-08 6.41773e+07)
(1.99974e+08 -4.8119e+07 1.24898e-08 1.05517e+07 -4.95854e-08 6.31578e+07)
(2.0451e+08 -4.24965e+07 -1.42055e-07 5.27679e+06 -8.52438e-10 6.2936e+07)
(2.08178e+08 -3.70493e+07 -9.6334e-08 -932793 2.88864e-08 6.21736e+07)
(2.11985e+08 -3.23383e+07 1.64886e-07 -5.16758e+06 3.63042e-08 6.20452e+07)
(2.15059e+08 -2.78143e+07 7.55684e-08 -1.02189e+07 6.10048e-08 6.14521e+07)
(2.18157e+08 -2.37099e+07 -7.61346e-08 -1.35683e+07 -1.89276e-08 6.13766e+07)
(2.20574e+08 -1.98371e+07 1.07134e-07 -1.76057e+07 4.92536e-08 6.08906e+07)
(2.22981e+08 -1.61915e+07 -3.9217e-08 -2.01433e+07 -1.42384e-07 6.08514e+07)
(2.24728e+08 -1.28157e+07 -1.01171e-07 -2.3288e+07 -8.53472e-08 6.0432e+07)
(2.26502e+08 -9.53187e+06 -1.53249e-07 -2.50755e+07 -3.31909e-08 6.04279e+07)
(2.27609e+08 -6.57379e+06 -2.64724e-14 -2.74204e+07 6.71613e-15 6.00567e+07)
(2.28859e+08 -3.63522e+06 -1.16842e-08 -2.85081e+07 -6.67592e-08 6.01053e+07)
(2.29404e+08 -1.11125e+06 -5.98533e-08 -3.0102e+07 -5.30654e-08 5.97906e+07)
(2.30261e+08 1.48702e+06 -1.03585e-07 -3.05682e+07 -4.02462e-08 5.99077e+07)
(2.30168e+08 3.59196e+06 1.11383e-07 -3.14163e+07 3.61997e-08 5.96254e+07)
(1.50954e+08 -8.66579e+07 -1.06337e-07 5.30187e+07 2.61283e-08 6.11917e+07)
(1.59246e+08 -7.56714e+07 7.04389e-08 4.07305e+07 1.2956e-07 5.99928e+07)
(1.67196e+08 -6.64973e+07 4.75078e-08 3.08531e+07 3.30365e-08 5.94148e+07)
(1.73751e+08 -5.84262e+07 1.21073e-07 2.12793e+07 -4.75457e-08 5.85091e+07)
(1.80244e+08 -5.17913e+07 2.55068e-09 1.38682e+07 -9.95182e-10 5.82336e+07)
(1.8566e+08 -4.56633e+07 -9.53723e-09 6.24363e+06 5.25253e-08 5.75711e+07)
(1.90989e+08 -4.04838e+07 4.17505e-08 560158 3.17944e-08 5.74648e+07)
(1.95492e+08 -3.56392e+07 -1.69855e-07 -5.52973e+06 -2.93283e-08 5.69887e+07)
(1.99854e+08 -3.13615e+07 -8.15769e-08 -9.91211e+06 -1.50965e-08 5.69826e+07)
(2.03525e+08 -2.73778e+07 7.77398e-08 -1.47376e+07 -2.8363e-08 5.66362e+07)
(2.07044e+08 -2.36935e+07 -1.09418e-07 -1.80529e+07 -4.66903e-08 5.66973e+07)
(2.09938e+08 -2.03182e+07 3.33853e-08 -2.18159e+07 -1.18877e-08 5.64365e+07)
(2.12719e+08 -1.70648e+07 2.30007e-07 -2.42051e+07 4.01751e-10 5.65542e+07)
(2.14894e+08 -1.41632e+07 6.88651e-08 -2.70604e+07 5.59251e-08 5.635e+07)
(2.17043e+08 -1.12628e+07 -1.09236e-07 -2.86218e+07 3.86132e-08 5.65264e+07)
(2.18545e+08 -8.77024e+06 -5.80955e-08 -3.06763e+07 -1.79105e-08 5.63605e+07)
(2.20176e+08 -6.19355e+06 -6.98008e-09 -3.14961e+07 -3.51839e-08 5.66039e+07)
(2.2106e+08 -4.08954e+06 3.02257e-08 -3.28234e+07 2.60469e-08 5.64709e+07)
(2.22328e+08 -1.82994e+06 3.60378e-10 -3.30134e+07 -1.33499e-10 5.67942e+07)
(2.22547e+08 -60237.4 -6.35965e-08 -3.36883e+07 -1.37901e-09 5.66575e+07)
(1.2703e+08 -7.83363e+07 3.24747e-08 5.10962e+07 1.10822e-08 5.34379e+07)
(1.38101e+08 -6.90068e+07 -1.18652e-07 3.77953e+07 -1.10922e-10 5.2769e+07)
(1.48013e+08 -6.11238e+07 6.29118e-08 2.71663e+07 -2.95645e-08 5.25537e+07)
(1.56433e+08 -5.42407e+07 1.51264e-08 1.71943e+07 -6.12061e-08 5.20883e+07)
(1.64167e+08 -4.84164e+07 2.04631e-08 9.34785e+06 1.49635e-07 5.20545e+07)
(1.70833e+08 -4.31744e+07 -4.39599e-08 1.68124e+06 -3.15783e-08 5.17541e+07)
(1.7701e+08 -3.86294e+07 4.31709e-09 -4.19298e+06 -5.26425e-08 5.1845e+07)
(1.82345e+08 -3.44898e+07 0 -1.01274e+07 0 5.16652e+07)
(1.8733e+08 -3.07523e+07 -7.76785e-08 -1.45199e+07 -6.13217e-08 5.1843e+07)
(1.9158e+08 -2.73639e+07 8.40246e-11 -1.90973e+07 -4.70057e-08 5.17448e+07)
(1.95605e+08 -2.41642e+07 7.64236e-08 -2.23059e+07 1.03457e-07 5.19898e+07)
(1.98931e+08 -2.1312e+07 -2.04696e-07 -2.57897e+07 -4.33118e-08 5.19424e+07)
(2.02164e+08 -1.85035e+07 6.28751e-08 -2.8001e+07 1.57087e-08 5.22488e+07)
(2.04688e+08 -1.60637e+07 1.56824e-07 -3.05877e+07 5.83577e-08 5.223e+07)
(2.07268e+08 -1.35724e+07 6.53998e-08 -3.19292e+07 5.42746e-08 5.26016e+07)
(2.09093e+08 -1.14815e+07 2.47681e-08 -3.37678e+07 -1.11526e-08 5.25976e+07)
(2.11158e+08 -9.27901e+06 3.1422e-08 -3.43432e+07 2.57674e-08 5.30445e+07)
(2.12368e+08 -7.51491e+06 -2.1203e-08 -3.55371e+07 9.8418e-09 5.30494e+07)
(2.14076e+08 -5.59142e+06 3.95081e-08 -3.54696e+07 5.89048e-08 5.3582e+07)
(2.14601e+08 -4.07728e+06 1.00658e-08 -3.61115e+07 3.34093e-08 5.35469e+07)
(1.04157e+08 -6.8652e+07 7.08703e-08 4.73884e+07 -4.61247e-08 4.54636e+07)
(1.17554e+08 -6.13214e+07 1.63144e-09 3.35442e+07 -8.97666e-10 4.53294e+07)
(1.29123e+08 -5.50771e+07 1.46161e-09 2.23868e+07 -8.01746e-10 4.54531e+07)
(1.39192e+08 -4.95715e+07 1.23128e-07 1.21967e+07 1.6173e-07 4.54165e+07)
(1.48078e+08 -4.48568e+07 -4.49709e-08 4.05996e+06 -3.15885e-08 4.56414e+07)
(1.55878e+08 -4.06216e+07 1.47719e-07 -3.57575e+06 -7.97305e-08 4.56908e+07)
(1.62859e+08 -3.6895e+07 -4.29648e-08 -9.55622e+06 2.31103e-08 4.59908e+07)
(1.69001e+08 -3.35321e+07 -4.152e-08 -1.53128e+07 2.21851e-08 4.61065e+07)
(1.74558e+08 -3.04438e+07 -7.74121e-08 -1.96817e+07 -6.04252e-08 4.6463e+07)
(1.79415e+08 -2.76898e+07 -1.06995e-07 -2.4002e+07 5.67845e-08 4.6624e+07)
(1.83866e+08 -2.50246e+07 6.81032e-08 -2.71022e+07 1.21808e-08 4.70291e+07)
(1.87684e+08 -2.27198e+07 2.14026e-08 -3.02956e+07 -1.05753e-07 4.72164e+07)
(1.91256e+08 -2.03535e+07 -9.68565e-08 -3.23476e+07 -4.05744e-08 4.76726e+07)
(1.94207e+08 -1.84111e+07 7.53063e-09 -3.46401e+07 4.10571e-08 4.78702e+07)
(1.9709e+08 -1.62807e+07 8.49835e-09 -3.57944e+07 3.96511e-08 4.83886e+07)
(1.99294e+08 -1.46552e+07 -3.2663e-08 -3.73532e+07 -2.54028e-08 4.85823e+07)
(2.01666e+08 -1.27466e+07 2.09336e-08 -3.77259e+07 -1.17522e-08 4.91821e+07)
(2.03197e+08 -1.13914e+07 1.06398e-08 -3.86745e+07 3.57375e-08 4.93567e+07)
(2.05255e+08 -9.74847e+06 -7.83684e-08 -3.83747e+07 -3.66638e-08 5.0064e+07)
(2.06002e+08 -8.52702e+06 -2.90305e-08 -3.88661e+07 -2.33331e-08 5.01408e+07)
(8.2552e+07 -5.76835e+07 -2.96156e-08 4.18013e+07 -1.17806e-08 3.7306e+07)
(9.7724e+07 -5.26265e+07 -6.62895e-08 2.79235e+07 4.21568e-08 3.76942e+07)
(1.10708e+08 -4.82307e+07 -8.85284e-08 1.66865e+07 1.78914e-07 3.82183e+07)
(1.22116e+08 -4.43126e+07 1.4827e-07 6.58909e+06 -3.31653e-08 3.86115e+07)
(1.32038e+08 -4.08678e+07 1.6178e-08 -1.5241e+06 -1.27889e-07 3.91542e+07)
(1.40806e+08 -3.77826e+07 -6.16122e-09 -8.94214e+06 6.13173e-08 3.95592e+07)
(1.48562e+08 -3.49807e+07 8.17895e-08 -1.481e+07 5.17273e-09 4.01257e+07)
(1.55387e+08 -3.24896e+07 7.8818e-08 -2.02608e+07 -4.8901e-08 4.0538e+07)
(1.61559e+08 -3.01121e+07 3.95386e-08 -2.44576e+07 2.88517e-08 4.11304e+07)
(1.6689e+08 -2.80496e+07 -1.05227e-07 -2.84214e+07 1.31885e-08 4.15406e+07)
(1.71872e+08 -2.59583e+07 -7.7683e-08 -3.13239e+07 -1.04193e-07 4.21643e+07)
(1.76011e+08 -2.42204e+07 3.57262e-08 -3.41419e+07 2.73019e-08 4.25608e+07)
(1.80088e+08 -2.23401e+07 -8.89183e-08 -3.59982e+07 7.51443e-09 4.32269e+07)
(1.83252e+08 -2.08664e+07 -5.9193e-08 -3.79303e+07 -9.90824e-09 4.35966e+07)
(1.86637e+08 -1.9168e+07 1.27615e-08 -3.88978e+07 -5.48354e-08 4.43217e+07)
(1.88997e+08 -1.79242e+07 4.36393e-08 -4.01632e+07 -2.838e-08 4.46502e+07)
(1.91827e+08 -1.64083e+07 -3.93535e-08 -4.0312e+07 2.62922e-08 4.54544e+07)
(1.93553e+08 -1.53752e+07 1.81501e-08 -4.11303e+07 -1.22532e-08 4.5727e+07)
(1.96029e+08 -1.40614e+07 -1.16268e-08 -4.05832e+07 -3.54215e-08 4.66336e+07)
(1.96961e+08 -1.3068e+07 -6.06622e-08 -4.11601e+07 3.13948e-10 4.67404e+07)
(6.29282e+07 -4.61691e+07 -2.62646e-08 3.45065e+07 -1.34926e-08 2.92304e+07)
(7.93574e+07 -4.34484e+07 -1.37076e-07 2.09504e+07 1.65454e-07 3.00923e+07)
(9.33084e+07 -4.10602e+07 -1.02048e-07 9.85716e+06 9.41194e-09 3.09497e+07)
(1.05729e+08 -3.88033e+07 2.78018e-08 72137.5 -2.09033e-07 3.17402e+07)
(1.16405e+08 -3.68062e+07 4.24983e-08 -7.89588e+06 3.11666e-08 3.25528e+07)
(1.25962e+08 -3.4928e+07 -8.19767e-08 -1.49754e+07 -6.17719e-08 3.32959e+07)
(1.34289e+08 -3.32135e+07 8.67625e-10 -2.0688e+07 -6.16276e-10 3.40802e+07)
(1.41735e+08 -3.16205e+07 -7.66229e-08 -2.57781e+07 -2.8273e-09 3.4787e+07)
(1.4833e+08 -3.00967e+07 1.48175e-07 -2.98202e+07 6.21161e-08 3.55531e+07)
(1.54175e+08 -2.87179e+07 3.24425e-08 -3.34167e+07 -2.29973e-08 3.62276e+07)
(1.59465e+08 -2.73211e+07 -2.88479e-08 -3.61813e+07 2.05482e-08 3.69851e+07)
(1.64065e+08 -2.61188e+07 1.33027e-07 -3.86411e+07 6.01025e-08 3.76273e+07)
(1.68356e+08 -2.48069e+07 -8.34182e-09 -4.03934e+07 -4.46222e-08 3.83888e+07)
(1.7197e+08 -2.37845e+07 -5.60718e-08 -4.19808e+07 -8.70268e-09 3.89968e+07)
(1.75502e+08 -2.25209e+07 -1.40576e-07 -4.2904e+07 -4.18198e-08 3.97793e+07)
(1.78312e+08 -2.175e+07 -2.07763e-08 -4.38053e+07 1.54797e-08 4.03519e+07)
(1.81299e+08 -2.04718e+07 8.02652e-08 -4.40399e+07 3.23001e-08 4.11777e+07)
(1.8332e+08 -1.98511e+07 -9.03729e-08 -4.45219e+07 -6.76264e-08 4.16393e+07)
(1.86084e+08 -1.87313e+07 5.83995e-08 -4.40192e+07 4.422e-08 4.26193e+07)
(1.86984e+08 -1.81615e+07 1.11663e-07 -4.43057e+07 3.29199e-08 4.28035e+07)
(4.51206e+07 -3.40105e+07 -9.60628e-08 2.53098e+07 1.22326e-07 2.11291e+07)
(6.23607e+07 -3.36866e+07 -1.62084e-08 1.25194e+07 8.22231e-08 2.2464e+07)
(7.70078e+07 -3.33183e+07 -7.46505e-08 2.00557e+06 -1.40623e-07 2.3704e+07)
(9.01399e+07 -3.27863e+07 4.24766e-08 -7.16467e+06 3.11272e-08 2.48926e+07)
(1.01412e+08 -3.2245e+07 4.35214e-08 -1.46613e+07 -3.5389e-08 2.60252e+07)
(1.11551e+08 -3.16261e+07 8.99978e-10 -2.11973e+07 -7.28726e-10 2.71061e+07)
(1.20383e+08 -3.09836e+07 -4.05495e-08 -2.65014e+07 -2.83822e-08 2.81644e+07)