/*--------------------------------*- C++ -*----------------------------------*\
| =========                 |                                                 |
| \\      /  F ield         | OpenFOAM: The Open Source CFD Toolbox           |
|  \\    /   O peration     | Version:  v2012                                 |
|   \\  /    A nd           | Website:  www.openfoam.com                      |
|    \\/     M anipulation  |                                                 |
\*---------------------------------------------------------------------------*/
FoamFile
{
    version     2.0;
    format      ascii;
    class       volScalarField;
    location    "15";
    object      sigmaHyd;
}
// * * * * * * * * * * * * * * * * * * * * * * * * * * * * * * * * * * * * * //

dimensions      [1 -1 -2 0 0 0 0];


internalField   nonuniform List<scalar> 
7666
(
4.7595e+06
2.78509e+07
5.42277e+07
2.97243e+07
3.35216e+07
4.98729e+07
3.36972e+07
3.17221e+07
6.7266e+07
3.46261e+07
2.04792e+07
3.20948e+07
3.09384e+07
3.10538e+07
3.50432e+07
2.45429e+07
3.20075e+07
5.75542e+07
3.3821e+07
3.13976e+07
2.59399e+07
4.08712e+07
3.16509e+07
2.61231e+07
4.37648e+07
3.54781e+07
4.49741e+07
1.20951e+07
3.18662e+07
2.98078e+07
2.99846e+07
5.75323e+07
-2.79852e+06
3.07399e+07
-1.5565e+07
2.82379e+07
2.85222e+07
3.04324e+07
5.03982e+07
3.4106e+07
3.18962e+06
8.01604e+07
1.27895e+08
1.51501e+07
8.84794e+07
3.36156e+07
5.79674e+07
4.64927e+06
1.67082e+07
1.89093e+07
9.91689e+06
4.03148e+07
3.30278e+07
6.63987e+07
2.42649e+07
2.22077e+07
1.91632e+07
1.78944e+07
3.50266e+07
5.1721e+07
2.23695e+07
3.06807e+07
3.06108e+07
3.03372e+07
1.70583e+07
1.94315e+07
3.46349e+07
1.86537e+07
2.89128e+07
3.61587e+07
3.16349e+07
3.94967e+07
3.90965e+07
2.94057e+07
2.93959e+07
3.31442e+07
6.41647e+07
3.032e+07
2.97059e+07
2.21242e+07
3.30813e+07
3.75589e+07
1.78387e+07
1.09332e+08
3.22918e+07
3.9078e+07
3.81472e+07
4.28069e+07
1.24309e+07
3.00099e+07
3.25813e+07
3.31709e+07
4.26594e+07
3.84003e+07
6.80452e+07
1.8209e+07
-2.66523e+07
5.80452e+07
3.41812e+07
3.07791e+07
4.23327e+07
2.95251e+07
3.77458e+06
6.44406e+07
298797
4.91963e+07
9.44988e+07
3.86602e+07
3.34375e+07
4.03397e+07
2.84861e+07
3.59586e+07
2.49846e+07
2.18035e+07
1.87785e+07
3.69054e+07
1.42107e+07
-2.24491e+07
3.12687e+07
3.14992e+07
6.14698e+07
2.94768e+07
3.29091e+07
3.55562e+07
2.61619e+07
1.83349e+07
3.8047e+07
3.62856e+07
2.6877e+07
3.26372e+07
2.30485e+07
3.57429e+07
2.94425e+07
6.214e+07
3.24792e+07
4.9476e+07
3.29346e+07
3.3993e+07
3.14762e+07
2.61625e+07
2.78285e+07
3.79628e+07
3.5208e+07
3.55245e+07
3.48095e+07
3.28589e+07
3.33955e+07
3.80751e+07
4.52334e+06
3.30463e+07
3.52198e+07
1.2351e+07
2.28928e+07
1.96167e+06
3.31769e+07
3.29081e+07
3.87151e+06
2.87694e+07
2.79565e+07
3.18195e+07
5.75667e+07
5.03225e+07
4.06148e+07
8.92979e+07
4.82654e+07
6.84683e+07
2.84237e+07
1.72985e+07
1.7166e+07
5.24206e+07
2.64024e+07
1.93062e+07
3.84306e+07
3.56009e+07
9.41836e+06
2.27993e+07
3.77821e+07
6.55592e+07
3.13543e+07
3.02404e+07
3.90114e+07
-3.35628e+07
3.77834e+07
-2.35954e+07
1.80134e+07
1.95363e+07
3.89922e+07
2.89797e+07
3.50981e+07
3.15588e+07
2.64407e+07
3.3082e+07
3.36677e+07
3.15916e+07
3.43327e+07
5.56992e+07
2.86631e+07
3.27586e+07
3.43851e+07
-3.81223e+07
3.87113e+07
1.31219e+07
3.15512e+07
5.1093e+07
2.94636e+07
6.20408e+07
3.36617e+07
-4.41798e+06
1.53963e+07
-1.39613e+07
4.91764e+07
1.57309e+07
3.48036e+07
3.71773e+07
3.81617e+07
2.06702e+07
2.80531e+07
5.69453e+07
1.96603e+07
4.39353e+07
7.223e+07
7.24177e+07
3.0197e+07
3.54018e+07
3.73217e+07
3.09292e+07
7.82657e+07
6.63781e+07
2.6271e+07
2.90182e+07
2.88314e+07
3.18598e+07
1.1486e+07
1.54628e+07
3.96235e+07
2.89202e+07
8.66516e+07
4.11343e+07
-2.55943e+07
3.14002e+07
3.42742e+07
3.51671e+07
2.97947e+07
1.66838e+07
2.45279e+07
2.45801e+07
-4.22608e+07
2.41621e+07
4.69138e+07
3.70696e+07
3.70331e+07
2.3133e+07
3.81955e+07
3.62328e+07
3.83072e+07
2.91657e+07
6.68287e+07
4.14914e+07
3.69691e+07
-1.67239e+07
2.11533e+07
4.15382e+07
5.03194e+07
4.12185e+07
3.52322e+07
-4.32407e+07
2.84162e+07
4.60709e+07
1.24555e+08
-4.99048e+06
3.36644e+07
3.4919e+07
3.17962e+07
4.1301e+07
-5.52418e+06
2.51698e+07
6.30934e+07
5.62028e+07
2.833e+07
3.0421e+07
3.25088e+07
5.10277e+07
2.5206e+07
3.04904e+07
9.662e+06
2.87956e+06
4.04364e+07
3.01743e+07
2.40667e+06
3.67054e+07
3.61345e+07
4.37703e+07
5.51604e+07
1.49498e+07
2.82923e+07
4.72262e+07
3.68411e+07
9.76136e+06
1.21786e+07
3.37407e+07
3.15583e+07
2.55416e+07
3.29813e+07
4.02328e+07
2.90344e+07
1.85539e+07
2.68074e+07
1.0043e+07
2.44427e+07
2.37322e+07
1.12714e+06
1.70536e+07
1.35378e+07
1.42766e+07
2.51348e+07
3.35335e+07
3.17107e+07
1.70932e+07
3.40198e+07
3.11414e+07
3.22533e+07
3.20996e+07
6.44952e+07
3.53772e+07
3.10341e+07
2.45946e+07
1.33675e+07
3.2803e+07
1.83222e+07
1.08961e+07
1.07956e+07
3.93954e+07
7.45944e+07
3.17787e+07
6.47481e+07
6.63438e+07
2.86507e+07
5.72834e+06
3.90379e+07
2.92169e+07
1.9234e+07
2.12138e+07
5.99176e+06
9.83914e+06
3.90177e+07
3.49562e+07
3.03127e+07
3.14141e+07
-1.08379e+07
4.0084e+07
2.90911e+07
5.74229e+07
2.92892e+07
2.67976e+07
3.66093e+07
6.90611e+07
2.65138e+07
3.4254e+07
4.73552e+07
-3.16362e+07
3.45155e+07
6.61292e+07
3.9756e+07
6.00296e+07
3.65313e+07
6.29942e+07
4.33605e+07
4.53719e+07
3.36245e+07
5.48361e+07
3.3025e+07
3.48712e+07
-4.129e+07
3.38245e+07
3.58779e+07
-3.93006e+07
3.58284e+07
6.83389e+07
-295091
5.96216e+07
4.83075e+07
-1.53794e+07
5.16208e+06
7.91392e+06
4.75862e+07
3.46675e+07
1.36572e+07
5.29185e+07
4.18991e+07
3.02107e+07
2.9782e+07
1.01616e+07
1.05458e+07
7.25046e+07
5.62723e+07
8.60642e+07
2.87031e+07
2.94645e+07
2.20727e+07
-2.11095e+07
5.23057e+07
2.67882e+07
2.12834e+07
-1.32874e+06
8.18556e+07
3.45784e+07
3.47147e+07
4.26015e+07
4.34463e+07
5.56667e+07
4.55619e+07
3.00162e+07
-1.08802e+07
4.53872e+07
4.38271e+07
4.19928e+07
4.02229e+07
3.26703e+07
3.56257e+07
7.64474e+07
-8.64344e+06
3.23538e+07
3.09159e+07
3.25911e+07
2.29002e+07
3.2427e+07
8.0698e+06
4.87623e+07
3.34869e+07
3.40108e+07
3.08812e+06
4.27448e+07
2.75933e+07
2.89329e+07
4.09019e+07
3.65189e+07
1.08346e+07
2.97876e+07
3.24951e+07
3.32909e+07
2.00312e+07
4.18532e+06
3.00585e+07
3.12021e+07
3.62334e+07
3.02374e+07
-3.44493e+07
3.25152e+07
3.2288e+07
3.48295e+07
4.81416e+06
-1.92622e+07
2.61551e+07
6.33852e+07
2.16204e+07
3.8013e+07
3.43044e+07
2.18348e+07
3.12071e+07
3.44686e+07
7.31361e+07
2.16737e+07
8.8234e+07
5.98155e+07
-7.32474e+06
3.42398e+07
3.4108e+07
3.74344e+07
3.86269e+07
1.42898e+06
3.66643e+07
3.30438e+07
3.36632e+07
3.8721e+07
5.42261e+07
3.83862e+07
3.73502e+07
3.72517e+07
3.29712e+07
3.54055e+06
-9.83265e+06
2.24168e+07
3.22721e+07
3.2848e+07
3.16278e+07
3.34791e+07
-1.34905e+06
2.78889e+07
4.70016e+07
3.27207e+07
3.26498e+07
2.69195e+07
2.88084e+07
4.13959e+07
3.03564e+07
3.7477e+07
5.47329e+07
5.64294e+07
3.28958e+07
-7.46252e+06
2.57425e+07
2.29369e+07
6.61994e+07
-8.78653e+06
2.25295e+07
2.23173e+07
3.80251e+07
1.04267e+08
-9.90707e+06
3.19358e+07
2.57977e+07
4.93602e+07
5.14007e+07
3.80363e+07
3.79007e+07
2.93924e+07
2.92449e+07
3.25863e+07
1.99384e+07
1.95663e+07
2.09118e+07
1.20828e+08
3.36501e+07
-4.6772e+06
3.34798e+07
-3.55306e+07
3.71699e+07
7.81716e+07
2.6554e+07
3.92003e+07
2.89232e+07
3.20578e+07
4.74574e+07
2.1434e+07
5.71105e+07
-1.27006e+07
5.42863e+07
4.28704e+07
3.25878e+07
3.32819e+07
5.81089e+07
3.12666e+07
7.99038e+07
3.4374e+07
4.18852e+07
5.60118e+07
6.17355e+07
6.79193e+07
3.7041e+07
3.5971e+07
4.47507e+07
-1.54867e+07
3.09268e+07
7.29769e+07
3.26457e+07
-2.64147e+07
3.0453e+07
4.05683e+06
5.3083e+07
3.28457e+07
3.43883e+07
6.32277e+07
3.1104e+07
1.89397e+07
-6.89272e+06
6.18491e+06
2.66408e+07
3.88962e+07
6.14329e+07
3.03635e+07
3.38293e+07
3.1407e+07
3.9791e+07
3.75833e+07
1.65813e+07
3.44956e+06
5.66245e+07
3.94978e+07
5.53889e+07
3.96423e+07
6.37075e+07
1.85462e+07
3.19741e+07
-1.69238e+07
3.87466e+07
5.42817e+07
4.00286e+07
3.66651e+07
3.15892e+07
3.19091e+07
3.0015e+07
4.85719e+07
3.62179e+07
1.34156e+07
2.93622e+07
-1.2436e+07
3.31254e+07
3.73496e+07
2.95022e+07
3.32369e+07
-1.78553e+07
6.29579e+07
4.71454e+07
4.65567e+07
2.21478e+07
2.7137e+07
3.60947e+07
2.60914e+07
2.05813e+07
8.29742e+07
4.09136e+07
6.54546e+07
8.70632e+06
-1.33298e+07
2.86436e+07
3.23249e+07
3.88528e+07
3.89149e+07
2.96306e+07
2.968e+07
3.44396e+07
8.1927e+06
4.79103e+07
-1.88189e+07
3.49948e+07
2.05342e+06
2.02044e+07
-1.363e+07
3.35046e+07
5.6586e+07
3.20084e+07
1.17735e+08
1.37601e+06
5.05449e+07
-3.2148e+07
1.96207e+07
3.25725e+07
-1.77589e+07
3.40497e+07
3.10891e+07
3.82476e+07
3.03915e+07
501639
-1.88345e+07
6.22549e+06
2.99444e+07
7.95769e+06
-1.06924e+06
6.75542e+07
8.41994e+06
4.70721e+07
5.83524e+07
3.4078e+07
3.31403e+07
4.39121e+07
3.62146e+07
4.18617e+07
4.39076e+07
3.82852e+07
3.85762e+07
-1.46135e+07
4.01293e+07
8.56633e+06
6.16043e+07
2.93556e+07
6.80935e+06
2.65644e+06
1.13415e+08
4.76123e+07
3.34785e+07
2.88037e+07
455415
2.35035e+07
1.91618e+07
3.93546e+07
3.47928e+07
3.1911e+07
3.61645e+07
3.6906e+07
2.25482e+07
3.67802e+07
4.56612e+07
5.95731e+07
3.13355e+07
3.52648e+07
2.12084e+07
2.82587e+07
3.0778e+07
5.55651e+07
5.53859e+07
6.17383e+07
3.09532e+07
2.21427e+07
3.46709e+07
3.45005e+07
4.11868e+07
4.6634e+07
3.2902e+07
4.86623e+07
5.90553e+07
3.42624e+07
5.3019e+07
3.31257e+07
4.28103e+07
2.88717e+07
4.51494e+07
1.12897e+08
-1.01926e+07
3.29689e+07
5.29495e+07
8.78639e+06
3.3783e+07
1.10768e+08
4.33716e+07
3.59992e+07
2.91441e+07
3.16466e+07
3.32872e+07
2.08531e+07
4.41764e+07
7.37061e+07
2.12794e+07
4.08953e+07
2.88566e+07
2.06554e+07
5.28643e+07
3.73115e+07
5.97842e+07
3.99924e+07
3.44452e+07
5.94086e+06
3.28098e+07
3.23262e+07
3.77092e+07
3.74824e+07
4.97597e+07
4.00557e+07
3.2489e+07
6.70918e+07
2.22114e+07
4.91321e+07
1.21366e+07
5.92681e+07
5.04564e+07
3.18816e+07
8.15783e+06
3.74052e+07
4.13282e+07
9.97622e+07
3.21509e+07
1.58922e+07
3.27367e+07
3.31e+07
1.80205e+07
2.11062e+07
3.13919e+07
4.67301e+07
4.89279e+07
4.74533e+07
2.04144e+07
5.08985e+07
3.31041e+07
4.67365e+07
3.62904e+07
4.28489e+07
2.9741e+07
2.63789e+07
5.48457e+07
3.5453e+07
2.85439e+07
3.21802e+07
4.44014e+07
3.04778e+07
3.67992e+07
3.45694e+07
2.60037e+07
2.78041e+07
1.94721e+07
3.5382e+07
3.54785e+07
3.54085e+07
5.61401e+07
2.85665e+07
3.14588e+07
3.24776e+07
3.21656e+07
-1.35142e+07
5.1903e+07
2.60161e+07
1.1948e+08
5.45158e+07
2.95162e+07
3.02698e+07
3.02586e+07
4.05124e+07
3.34013e+07
5.34033e+07
2.70177e+07
2.71839e+07
2.71822e+07
2.57464e+07
3.79274e+07
3.44869e+07
6.86704e+07
1.14858e+07
4.79588e+07
3.1884e+07
4.00977e+07
2.46346e+07
3.46511e+07
2.35089e+07
2.92909e+07
2.83665e+07
4.42781e+07
3.45127e+07
3.49053e+07
3.77792e+07
3.2704e+07
2.38282e+07
2.51955e+07
8.78639e+07
3.82883e+07
3.29469e+07
1.659e+07
3.06356e+07
3.3749e+07
3.09134e+07
-1.59809e+07
2.48895e+07
4.42608e+07
2.61115e+07
2.96896e+07
3.76258e+07
-386785
3.82536e+06
3.89804e+07
3.84282e+07
3.24222e+07
3.26423e+07
3.91234e+07
3.04649e+07
3.56651e+07
1.03834e+08
3.22374e+07
4.53156e+07
5.5548e+06
3.54007e+07
2.84553e+07
3.2841e+07
1.0019e+06
-2.26397e+07
2.67403e+07
1.19932e+07
2.78747e+07
-2.42865e+07
-5.64825e+07
3.67159e+07
4.63372e+07
3.09018e+07
3.24513e+07
3.32375e+07
3.27161e+07
4.06459e+07
2.7378e+07
2.74528e+07
3.02709e+07
5.5011e+07
3.04116e+07
4.9217e+07
5.25438e+07
4.75409e+07
-1.04321e+07
2.85281e+07
2.98088e+07
-6.60025e+06
2.49503e+07
2.4134e+07
3.25137e+07
3.19834e+07
1.5206e+07
1.70246e+07
-2.78494e+07
1.91793e+07
3.34508e+07
2.65633e+06
-9.43593e+06
6.23419e+06
1.34172e+07
3.30468e+07
3.4716e+07
3.3616e+07
2.7013e+07
3.57313e+07
2.90332e+07
2.61029e+07
1.47938e+07
2.72638e+07
3.30007e+07
2.61085e+07
3.39741e+07
6.90684e+07
3.56686e+07
2.95883e+07
5.82832e+07
3.73743e+07
3.29645e+07
3.31016e+07
2.1398e+07
3.42175e+07
4.35749e+07
4.56495e+07
3.79584e+07
4.60377e+07
2.91593e+06
2.78415e+07
925151
3.18823e+07
1.71917e+07
4.48597e+07
2.12889e+06
3.69483e+07
3.61422e+07
1.35051e+07
3.38984e+07
3.06079e+07
3.34888e+06
3.35945e+07
5.97915e+07
3.64773e+07
-1.80045e+07
3.25796e+07
4.65906e+07
5.60784e+07
6.19197e+06
2.69607e+07
4.16853e+07
1.63321e+07
3.67451e+07
1.17171e+08
2.61402e+07
3.48714e+07
5.92719e+07
6.17536e+07
5.87531e+07
3.47085e+07
2.959e+07
-1.16005e+07
1.76129e+07
6.98947e+06
3.01477e+07
3.44533e+07
3.00287e+07
3.51721e+07
-5.30241e+07
3.16206e+07
4.96605e+07
4.54917e+07
4.40273e+07
4.8049e+07
5.00875e+07
5.60067e+07
3.10427e+07
7.99477e+07
1.04448e+07
3.26958e+07
-3.42717e+07
3.80808e+07
9.88338e+06
2.89525e+07
2.34698e+07
2.90774e+07
2.79825e+07
3.04514e+07
3.30941e+07
3.21059e+07
1.96586e+07
1.22812e+06
4.58211e+07
3.05867e+07
3.07696e+07
5.94675e+07
2.44233e+07
-8.60537e+06
2.26701e+07
-1.81865e+07
4.1925e+07
1.45648e+07
1.02618e+08
3.2713e+07
1.69359e+06
3.96148e+07
4.17839e+07
6.60901e+07
4.40125e+07
1.42996e+07
4.70556e+07
3.15843e+06
4.84419e+07
2.63427e+07
6.02783e+06
3.40168e+07
2.6871e+07
3.14844e+07
3.33209e+07
3.76604e+07
-1.86256e+06
4.24535e+07
3.19966e+07
3.31614e+07
9.46427e+07
3.6948e+07
3.91473e+07
3.32116e+07
3.73137e+07
6.70659e+07
3.66769e+07
2.84951e+07
6.84391e+07
9.82865e+07
3.30969e+07
3.19773e+07
3.32371e+07
3.08765e+07
2.28311e+07
6.94622e+07
3.96965e+07
2.31255e+07
3.02103e+07
1.92397e+07
5.77633e+07
3.16078e+07
4.47617e+07
-3.02727e+06
4.51009e+07
3.58725e+07
3.30346e+07
1.09235e+08
3.68604e+07
3.00953e+07
3.1098e+07
6.65617e+07
3.30331e+07
-2.01452e+07
3.3441e+07
3.19628e+07
2.2897e+07
3.231e+07
3.43912e+07
3.06892e+07
2.35288e+07
3.23058e+07
2.41955e+07
2.43518e+07
3.22948e+07
6.33306e+07
3.27999e+07
4.63128e+07
3.73913e+07
-3.69915e+07
-2.37688e+07
3.16495e+07
6.68899e+07
2.89101e+07
-4.29304e+07
1.03635e+08
3.89065e+07
-1.63874e+07
785285
3.38316e+07
-2.30063e+07
2.56283e+07
3.24072e+07
2.54892e+07
4.46577e+07
1.37096e+07
5.48872e+07
5.21306e+07
5.37211e+07
3.62816e+07
3.52098e+07
3.50534e+07
4.58352e+07
3.92451e+07
-1.01252e+07
5.30774e+07
1.07012e+08
3.24363e+07
3.13382e+07
2.87972e+07
2.24153e+07
3.1534e+07
2.42333e+07
4.18809e+07
3.46476e+07
2.13221e+07
4.09835e+07
3.80609e+07
3.25281e+07
3.18784e+07
4.05899e+07
3.21688e+07
3.16873e+07
2.77997e+07
-1.47548e+07
2.93609e+07
3.61056e+07
2.95922e+07
3.22646e+07
1.46117e+07
5.38172e+07
2.47806e+07
4.75102e+07
3.519e+07
2.46414e+07
3.27601e+07
1.05782e+07
1.9322e+07
-1.7798e+07
1.29491e+07
5.47029e+06
-8.08643e+06
2.13329e+07
3.30081e+07
3.18701e+07
3.82016e+07
2.66653e+07
-4.1162e+07
103259
2.23293e+07
8.96227e+07
3.27031e+07
4.29644e+07
5.91942e+07
3.34202e+07
4.34009e+07
5.01624e+06
2.68203e+07
2.17373e+07
3.91542e+07
3.32625e+07
2.01669e+07
3.23959e+07
3.2242e+07
3.30186e+07
3.30493e+07
3.31669e+07
3.38555e+07
3.11306e+07
4.86098e+07
1.63648e+07
4.94146e+07
6.09806e+07
3.395e+07
3.27301e+07
1.51252e+07
3.20543e+07
3.00314e+07
3.94846e+07
3.21562e+07
3.72054e+07
4.39646e+07
5.31373e+07
2.41122e+07
1.64296e+07
3.39569e+07
4.12953e+07
6.55244e+07
3.01654e+07
3.0502e+07
2.33498e+07
1.22756e+07
3.0134e+07
4.14008e+07
4.59746e+07
-6.90127e+06
8.31037e+06
-1.86251e+07
2.46943e+07
3.18435e+07
3.539e+07
2.0352e+07
3.44818e+07
3.36652e+07
3.15871e+07
3.52685e+07
1.1662e+08
3.37226e+07
3.297e+07
6.17283e+06
4.89539e+07
4.70163e+07
8.31279e+06
6.55132e+07
3.72252e+07
4.57006e+07
5.53822e+07
3.21672e+07
3.55256e+07
2.97968e+07
3.34813e+07
2.24718e+07
-1.06753e+07
2.40928e+07
3.14269e+07
-1.18109e+07
1.734e+07
2.2689e+07
3.39312e+07
3.69544e+07
2.80342e+07
3.85742e+07
-2.51385e+07
2.97116e+07
6.8071e+07
3.96854e+07
2.85479e+07
2.87141e+07
7.03726e+07
3.62694e+07
3.73327e+07
3.8778e+07
3.43782e+07
3.23639e+07
3.25196e+07
5.97015e+07
3.6455e+06
4.71693e+06
3.44542e+07
5.48955e+07
3.18572e+07
2.98754e+07
4.24564e+07
4.59658e+07
3.30665e+07
3.40391e+07
4.16968e+07
-3.42613e+07
1.67741e+07
3.17171e+07
2.21496e+07
4.10034e+07
2.36162e+07
2.01717e+07
5.10233e+07
3.70647e+07
2.18539e+07
1.01877e+08
4.54791e+07
-2.60348e+06
6.02061e+07
6.51581e+07
4.48496e+07
1.57938e+07
2.41268e+07
4.50515e+07
4.46042e+07
1.40463e+08
3.4937e+07
4.50538e+07
3.05183e+07
2.46575e+07
3.54135e+07
3.08874e+07
3.25072e+07
1.59073e+06
2.96612e+07
2.95458e+07
3.91423e+07
3.21599e+07
2.94123e+07
3.48099e+07
3.68717e+07
492635
5.11963e+07
6.25661e+06
3.2203e+07
3.2439e+07
3.84752e+07
5.72076e+07
5.12019e+07
3.93154e+07
6.19462e+06
8.13253e+06
5.10719e+07
6.1978e+07
3.58647e+07
-1.3605e+07
6.66497e+06
3.33065e+07
1.82458e+07
-552917
3.29613e+07
4.53759e+07
3.34239e+07
5.86176e+07
1.91675e+07
1.97885e+07
1.66997e+07
3.42487e+07
6.17651e+07
6.35929e+07
3.65507e+07
2.48145e+07
2.33702e+07
1.32089e+08
5.7247e+07
3.13426e+07
1.34909e+07
3.39842e+07
1.47232e+07
3.88615e+07
1.49899e+07
3.26631e+07
3.532e+07
4.76208e+07
2.77633e+07
-2.54254e+07
2.30868e+07
1.81832e+07
1.54878e+07
4.55247e+07
1.80387e+07
4.20385e+07
3.53016e+07
3.41765e+07
4.35356e+07
4.20033e+07
4.21833e+07
4.29678e+07
3.84062e+07
5.87435e+07
3.41673e+07
1.57454e+07
2.33475e+07
4.77442e+07
2.74858e+07
7.97261e+07
3.2561e+07
3.52678e+07
5.72862e+07
3.25132e+07
3.08478e+07
680816
3.14197e+07
4.40323e+07
5.046e+07
2.13187e+07
1.87093e+07
-2.81475e+07
1.55992e+07
1.53399e+07
4.13111e+07
3.49416e+07
2.20997e+07
3.15264e+07
7.32793e+07
2.86294e+07
3.64508e+07
3.62566e+07
7.56805e+06
2.06431e+07
5.93659e+07
9.68602e+06
2.16693e+07
2.88073e+07
-2.95057e+07
-7.15171e+06
5.09e+07
2.04183e+07
-4.18143e+07
3.13287e+07
3.38641e+07
3.07386e+07
3.46409e+07
3.49112e+07
3.01796e+07
2.19119e+07
1.7137e+07
3.16825e+07
3.31335e+07
3.3505e+07
3.35116e+07
-5.01268e+06
-5.90561e+06
3.55855e+07
3.48325e+07
-4.89041e+06
-7.56186e+06
5.93852e+07
4.67065e+06
4.74812e+07
2.97117e+07
5.06392e+07
3.93524e+07
-8.63345e+06
5.61847e+07
6.82895e+07
3.28848e+07
5.17841e+07
3.42145e+07
5.84681e+07
5.45438e+07
3.25757e+07
3.24187e+07
3.23716e+07
-3.41506e+06
-2.17799e+07
8.83656e+07
6.8626e+07
3.70737e+07
1.46143e+07
4.01437e+07
2.34419e+07
-1.50072e+07
3.43532e+07
3.30666e+07
3.56584e+07
3.15423e+07
2.27412e+07
4.87367e+07
4.66652e+07
2.25348e+07
3.2716e+07
4.34681e+07
4.85083e+07
6.0312e+07
3.39757e+07
1.45484e+07
1.64942e+07
2.9038e+07
2.70929e+07
3.74202e+07
2.32967e+07
3.45992e+07
3.49389e+07
1.09321e+07
3.55642e+07
2.8767e+07
3.34908e+07
3.18513e+07
3.43032e+07
2.21857e+07
3.25484e+07
3.98903e+07
3.26398e+07
3.32038e+07
3.5984e+07
2.93999e+07
2.95809e+07
3.30472e+07
1.01923e+08
2.9716e+07
3.58096e+07
3.06784e+07
2.46849e+07
2.4475e+07
3.25924e+07
1.30312e+07
3.98698e+07
3.44129e+07
2.75087e+07
9.26691e+07
4.26808e+07
3.43376e+07
3.11414e+07
3.35173e+07
3.18731e+07
2.99812e+07
3.34678e+07
4.09323e+07
3.63805e+07
2.91313e+07
1.3902e+07
2.80848e+07
6.12842e+07
2.93024e+07
3.91298e+07
4.68742e+07
4.76083e+07
8.23815e+06
1.1395e+07
5.25149e+07
5.73203e+07
4.57997e+07
-4.40172e+07
4.01859e+07
2.21881e+07
3.07385e+07
3.43809e+07
3.37199e+07
-2.40373e+07
2.4161e+07
3.23676e+07
1.3838e+08
1.76552e+07
1.88916e+07
3.35276e+07
2.90572e+07
3.74666e+07
3.23932e+07
3.36109e+07
3.19012e+07
8.0098e+07
5.14135e+07
2.99608e+07
1.73941e+07
4.46512e+07
5.09631e+07
9.01898e+06
6.48706e+07
2.128e+07
7.84028e+07
4.6868e+07
3.59588e+07
3.45436e+07
3.27375e+07
4.90682e+07
2.34168e+07
2.24597e+07
5.50084e+07
3.07494e+07
3.03034e+07
6.21131e+07
-6.88261e+06
3.04488e+07
5.66004e+07
2.56745e+07
5.13255e+07
1.22678e+07
3.37798e+07
5.62977e+07
3.16653e+07
1.2448e+07
-3.32023e+07
-1.16169e+07
3.32685e+07
3.28237e+07
3.4316e+07
2.18212e+07
4.11291e+07
1.65495e+07
2.67933e+07
4.977e+07
4.8784e+07
3.54342e+07
3.54415e+07
2.52306e+07
1.89821e+07
1.08085e+08
5.28094e+07
6.13944e+07
2.90817e+07
-5.75697e+06
4.17644e+07
5.73609e+06
1.59956e+07
6.46735e+06
3.30544e+07
3.20809e+07
4.10452e+07
3.2697e+07
1.18157e+07
1.20408e+07
4.09979e+07
6.02169e+07
5.18042e+07
3.58915e+07
4.0445e+07
1.71426e+06
7.1887e+06
6.01578e+07
1.30733e+07
3.60492e+07
2.6028e+07
3.42846e+07
3.93103e+07
4.06278e+07
1.31697e+08
1.94417e+07
3.57469e+07
3.65464e+07
4.16605e+07
7.01984e+07
3.5458e+07
2.98295e+07
3.28384e+07
3.20571e+07
4.02165e+07
1.86207e+07
3.2783e+07
5.89536e+07
3.11707e+07
3.39004e+07
3.66859e+07
2.85546e+07
1.58938e+07
3.15029e+07
2.07095e+07
3.22617e+07
5.29538e+07
8.17646e+07
2.56527e+07
3.09538e+07
1.14325e+07
2.97682e+07
4.63009e+07
3.33009e+07
3.38699e+07
5.81817e+07
331318
4.5456e+07
7.88456e+06
5.14828e+07
3.60093e+07
5.47677e+07
1.46505e+07
140904
2.77169e+07
4.43955e+07
5.00562e+07
2.06851e+07
5.21252e+07
-623954
2.78428e+07
3.77431e+07
7.96308e+06
3.24618e+07
3.18408e+07
3.85686e+07
3.14046e+07
5.42196e+07
4.82145e+07
2.72758e+07
-3.8724e+06
1.72909e+07
2.93709e+07
5.97133e+07
3.84218e+07
5.14862e+07
3.43735e+07
3.85611e+07
3.39383e+07
2.56415e+07
-2.87597e+07
3.44126e+07
3.44011e+07
2.45014e+07
2.63266e+07
3.275e+07
5.63692e+07
5.5694e+07
4.97478e+07
3.52969e+07
3.46737e+07
4.80006e+07
3.18661e+07
3.29005e+07
3.01003e+07
3.23858e+07
3.27329e+07
5.01968e+07
3.03239e+07
3.37478e+07
3.91279e+07
3.77327e+07
4.75977e+07
4.12277e+07
3.99266e+07
5.43344e+07
2.75389e+07
4.83633e+07
3.83431e+07
6.78554e+07
3.66986e+07
3.57519e+07
3.3629e+07
3.15977e+07
4.55284e+07
2.64388e+07
3.92582e+07
3.972e+07
1.28205e+07
3.04217e+07
2.75512e+07
3.57328e+07
-3.01592e+07
-6.40148e+06
7.09937e+07
3.6179e+07
3.89419e+07
2.51795e+07
2.59156e+07
3.09077e+07
3.84884e+07
2.89795e+07
6.41561e+07
3.05233e+07
2.454e+07
2.68656e+07
1.66871e+07
-3.51672e+07
3.7121e+07
3.39061e+07
3.1742e+07
1.90663e+07
2.86413e+07
5.94365e+07
4.01207e+07
2.47484e+07
4.04983e+07
2.89854e+07
5.66813e+07
3.16495e+07
4.89272e+07
3.30102e+07
3.32042e+07
4.30497e+07
3.31914e+07
3.21314e+07
1.50592e+07
-9.99918e+06
5.83072e+07
3.97879e+07
2.93969e+07
3.38918e+07
3.31741e+07
3.74074e+07
2.51299e+07
-2.07148e+07
4.53636e+06
2.83932e+07
-1.14372e+07
3.24695e+07
5.19112e+07
-3.70844e+07
5.35441e+07
3.58218e+07
3.66506e+07
4.07544e+07
4.43116e+07
3.28007e+07
3.53112e+07
4.8454e+07
5.55666e+07
2.4834e+07
1.88711e+07
2.9176e+07
-1.62829e+07
3.39618e+07
3.15534e+07
-9.72902e+06
3.32346e+07
4.51753e+07
4.31489e+07
3.18763e+07
-1.42612e+07
1.89425e+07
3.51953e+07
4.80788e+07
3.78815e+07
3.82229e+07
3.17331e+07
3.77957e+07
2.7092e+07
2.64366e+07
2.82018e+07
2.89077e+07
-1.42348e+07
-2.30375e+07
2.5272e+07
3.92368e+07
8.33531e+07
-1.23043e+07
7.38033e+06
-1.1518e+07
1.28157e+07
3.15455e+07
3.8788e+07
4.3767e+07
3.65089e+07
3.78843e+07
3.09106e+07
3.7472e+07
-3.24143e+06
2.52796e+06
5.23889e+07
-1.02926e+07
-2.09406e+07
3.22928e+07
4.25225e+07
3.32643e+07
6.75631e+06
5.10205e+07
2.83918e+07
2.83576e+07
3.35507e+07
5.2926e+07
3.26898e+07
2.92345e+07
5.33705e+07
1.03386e+08
4.02475e+07
2.90856e+07
4.54894e+07
3.91339e+07
-7.43105e+06
5.85545e+07
3.50318e+07
3.75067e+07
-2.30524e+07
-5.77006e+06
1.09304e+07
3.51287e+07
6.69292e+07
3.16092e+07
3.21687e+07
9.37513e+06
2.26966e+07
3.15176e+07
3.39622e+07
3.36368e+07
2.43495e+07
5.28351e+07
5.33645e+07
5.3861e+07
-3.5165e+07
2.97359e+07
3.56696e+07
5.07172e+07
5.13689e+07
4.25591e+07
2.67813e+07
2.54274e+07
3.80914e+07
5.55038e+07
1.85132e+07
3.31886e+07
3.20636e+07
2.9181e+07
1.73219e+07
5.476e+07
1.2081e+08
3.6903e+07
5.02573e+07
9.58764e+07
4.4497e+07
2.73096e+07
3.22029e+07
4.20591e+07
4.60251e+07
3.24274e+07
5.42515e+07
3.35091e+07
2.54475e+07
2.60805e+07
1.39005e+07
1.2949e+07
4.85046e+07
4.23853e+07
4.39278e+07
3.45783e+07
3.22804e+07
3.69803e+07
3.24062e+07
3.62969e+07
5.69865e+07
3.23118e+07
2.21264e+07
3.41859e+07
3.11933e+07
-1.29414e+07
-2.29669e+07
3.76705e+07
3.6674e+07
1.53296e+07
5.1736e+07
3.25705e+07
3.19963e+07
2.63124e+07
3.53677e+07
5.03619e+07
4.17694e+07
4.10233e+07
2.89324e+07
2.89321e+07
3.34246e+07
3.07763e+07
5.30265e+07
3.0359e+07
1.73024e+07
3.20399e+07
3.25752e+07
3.93482e+07
4.1902e+07
6.85729e+07
-2.04275e+07
5.1244e+07
3.05885e+07
4.01492e+07
2.58756e+07
3.06471e+07
3.44284e+07
3.31394e+07
3.31852e+07
4.37286e+07
3.68305e+07
3.68896e+07
4.33222e+07
1.6235e+07
6.14926e+07
2.66533e+06
3.50828e+07
3.00997e+07
3.887e+07
3.25454e+07
3.44419e+07
3.08504e+07
3.91761e+07
2.29637e+07
2.89439e+07
3.04441e+07
4.57348e+07
1.71032e+07
1.39184e+07
3.05983e+07
3.68724e+07
1.77291e+07
9.57478e+07
3.51629e+07
3.80575e+07
3.00152e+07
1.87748e+07
8.5375e+07
5.018e+07
4.54577e+07
2.95216e+07
3.55665e+07
3.76727e+07
3.17737e+07
3.31931e+07
3.4831e+07
3.423e+07
4.52564e+07
3.27308e+07
1.68217e+06
-1.07254e+07
3.90621e+07
3.94475e+07
4.71482e+07
5.62167e+07
3.3475e+07
3.26055e+07
2.34091e+07
5.63874e+07
3.24373e+07
6.17206e+07
2.1112e+07
3.30102e+07
2.13769e+07
8.54124e+07
3.15366e+07
3.29982e+07
4.86678e+07
5.99526e+07
3.45453e+07
3.04141e+07
4.76175e+07
5.60455e+07
2.61482e+06
2.24172e+07
3.33997e+07
3.18433e+07
3.02327e+07
1.09408e+08
3.16109e+07
3.37302e+07
1.06127e+08
3.59304e+07
2.92238e+07
3.34152e+07
3.40066e+07
2.62206e+07
3.56769e+07
-8.67858e+06
1.25299e+07
3.43099e+07
3.05764e+07
3.83561e+07
3.19391e+07
3.26887e+07
2.49447e+07
1.87589e+07
3.4646e+07
9.40627e+06
4.41819e+07
2.16148e+07
1.04357e+08
3.18322e+07
1.61948e+07
3.76626e+07
2.92906e+07
1.6268e+07
3.12678e+07
9.04092e+07
1.74293e+07
2.17209e+07
1.64264e+07
1.30491e+07
3.94957e+07
2.94033e+07
2.08828e+07
1.67519e+07
2.8236e+07
-1.83507e+07
3.86723e+07
5.07967e+07
4.64446e+07
5.09759e+07
2.01066e+07
3.13256e+07
3.23357e+07
2.88298e+07
3.26097e+07
3.26984e+07
6.81814e+07
3.13646e+07
5.17352e+07
3.39453e+07
3.10904e+07
3.07255e+07
3.28211e+07
5.80552e+07
1.97282e+07
3.54078e+07
3.42945e+07
2.0673e+07
-7.58696e+06
2.51133e+07
5.93443e+07
3.21348e+07
3.77433e+07
4.09678e+07
3.61199e+07
-2.11549e+07
2.64972e+07
6.0333e+07
3.21979e+07
3.38586e+07
2.75053e+07
2.87329e+07
5.04146e+07
3.46453e+07
3.69145e+07
2.72732e+07
3.18911e+07
3.01856e+07
4.01013e+07
2.56914e+07
3.17243e+07
3.34809e+07
3.22598e+07
2.84365e+07
1.6531e+07
5.25815e+07
2.64206e+07
2.98693e+07
-6.50309e+06
2.75359e+07
2.92561e+07
5.25745e+07
3.5224e+07
5.0463e+07
-4.88802e+07
4.32342e+07
3.29156e+07
4.29529e+07
3.18683e+07
3.32506e+07
3.2827e+07
3.48611e+07
5.40358e+07
3.51421e+07
3.46044e+07
2.99395e+07
3.52471e+07
3.3196e+07
6.45899e+07
3.23597e+07
3.36544e+07
3.06659e+07
3.43935e+07
1.94807e+07
-3.04267e+07
1.04074e+08
3.41981e+07
2.6396e+07
6.15561e+06
2.87068e+07
3.43595e+07
-4.45074e+07
1.88058e+07
6.73371e+07
4.11382e+07
3.32137e+07
2.933e+07
2.75013e+07
3.38922e+07
4.01027e+07
2.91995e+07
4.08851e+07
2.89088e+07
3.79941e+07
3.63274e+07
3.84442e+07
-4.25574e+07
2.78667e+07
2.80162e+07
4.25362e+07
2.38917e+07
4.05956e+07
2.24545e+07
3.10505e+07
2.76292e+06
3.60436e+07
2.89695e+07
3.38267e+07
3.53072e+07
2.97887e+07
1.71533e+07
2.85732e+07
3.58921e+07
2.89917e+07
3.08397e+07
-1.2132e+07
5.32754e+07
3.2848e+07
5.5395e+07
4.83434e+07
3.09385e+07
2.8144e+07
5.851e+07
3.24577e+07
3.30886e+07
3.34538e+07
3.26702e+07
2.84394e+07
3.14092e+07
3.19313e+07
5.22218e+07
3.22427e+07
3.08141e+07
3.62198e+07
3.55882e+07
2.95895e+07
2.99946e+07
3.38267e+07
3.42115e+07
6.02104e+07
3.96514e+07
1.08665e+08
3.11522e+07
2.30882e+07
2.39257e+07
3.10681e+07
1.67767e+07
3.36583e+07
3.3934e+07
5.96096e+07
2.39582e+07
6.91516e+07
3.2948e+07
3.21766e+07
1.51817e+07
5.7263e+07
2.6994e+07
2.40004e+07
3.71388e+07
3.67625e+07
5.62776e+07
1.12925e+08
4.0224e+07
3.94147e+07
-1.76795e+07
-1.96001e+06
4.92343e+07
4.4704e+07
5.1924e+07
3.23791e+07
-8.24445e+06
-2.17197e+06
2.66828e+07
3.34731e+07
2.57827e+07
2.56114e+07
5.32428e+07
-806669
4.5146e+07
1.4571e+07
5.46958e+07
4.89734e+07
3.2667e+07
3.52392e+07
3.54609e+07
3.26632e+07
3.21617e+07
-2.69564e+06
3.88115e+07
3.38383e+07
3.2368e+07
1.38352e+07
3.33181e+07
3.48199e+07
4.5878e+07
3.33661e+07
3.28792e+07
3.33056e+07
4.20897e+07
3.57239e+07
3.01912e+07
4.66571e+07
3.7154e+07
1.11882e+07
2.63379e+07
2.20334e+07
4.48077e+07
3.30541e+07
3.26207e+07
3.64919e+07
3.32148e+07
3.30443e+07
3.34336e+07
3.405e+07
2.02681e+07
3.4902e+07
5.29775e+07
3.40884e+07
3.36907e+07
5.50013e+07
3.2799e+07
1.05601e+08
3.31912e+07
3.22161e+07
9.91434e+07
4.39175e+06
1.84381e+07
2.23912e+07
3.90288e+07
2.75507e+07
1.17463e+06
2.32236e+07
3.24782e+07
3.24834e+07
3.21753e+07
5.31137e+07
3.10201e+07
5.21888e+07
3.35942e+07
3.14554e+07
4.05154e+07
3.49393e+07
3.00848e+07
3.15328e+07
3.61957e+07
3.15088e+07
3.9961e+07
5.05624e+07
4.01394e+07
2.96953e+07
1.47717e+07
2.75835e+07
3.25798e+07
4.99773e+07
1.04366e+07
1.19537e+08
3.24069e+07
3.26994e+07
3.34367e+07
3.69767e+07
5.04341e+07
5.20088e+07
1.03625e+07
3.30409e+07
3.37141e+07
2.4308e+07
1.45132e+07
-4.44098e+07
-5.76438e+06
3.21631e+07
3.27878e+07
1.34637e+07
1.2433e+08
1.61872e+07
3.67641e+07
3.34212e+07
3.31014e+07
5.92195e+06
4.3873e+07
3.59604e+07
3.65441e+07
3.31353e+07
3.02803e+07
3.07164e+07
3.32599e+07
-2.61506e+07
-9.33629e+06
4.76132e+06
1.30569e+07
7.82943e+07
3.46152e+07
3.02657e+07
2.82414e+07
2.97801e+07
3.37741e+07
2.35489e+07
3.50915e+07
-2.44345e+07
5.90067e+07
5.46882e+07
1.80227e+07
3.12412e+07
3.22651e+07
3.31236e+07
3.14362e+07
3.63645e+07
3.23871e+07
-4.82436e+07
2.1427e+07
3.56302e+07
3.47294e+07
3.14762e+07
3.32085e+07
3.24362e+07
3.62954e+07
6.87822e+07
2.50743e+07
3.49904e+07
-9.19065e+06
7.79536e+07
2.63577e+07
2.25101e+07
3.33891e+07
3.16392e+07
3.52162e+07
3.01399e+07
7.25011e+07
2.12388e+07
3.56481e+07
3.82101e+07
2.44136e+07
3.3532e+07
4.90433e+07
7.02505e+07
3.22637e+07
1.97391e+07
4.8429e+07
1.17617e+07
1.11741e+08
3.65959e+07
3.31781e+07
2.91089e+07
7.66477e+06
3.54638e+07
2.95186e+07
2.786e+07
5.11006e+07
4.66319e+07
3.29802e+07
2.54122e+07
9.57592e+07
3.25577e+07
2.03193e+07
3.55134e+07
2.44497e+07
3.44282e+07
3.09017e+07
2.88548e+07
2.76455e+07
3.15814e+07
-3.32532e+06
5.2544e+07
3.49915e+07
-3.32211e+06
-3.51161e+06
3.24359e+07
1.11871e+08
5.40121e+07
3.16076e+07
6.75658e+07
3.82278e+07
3.26326e+07
2.75798e+07
3.66482e+07
3.69419e+07
5.90034e+07
4.19944e+07
5.473e+07
6.30437e+07
4.32717e+07
-6.89758e+06
8.58201e+06
1.53392e+07
2.70681e+07
3.66649e+07
3.68496e+07
1.59774e+07
3.45161e+07
3.0387e+07
1.15736e+08
5.17167e+07
5.10514e+07
1.00017e+08
-4.81968e+07
3.28483e+07
3.26093e+07
2.05835e+07
3.48859e+07
4.01006e+07
2.91747e+07
3.33334e+07
3.37978e+07
6.74634e+07
3.26857e+07
3.19342e+07
3.25832e+07
2.71664e+07
4.23509e+07
2.88064e+07
3.9826e+07
4.77048e+07
1.46868e+07
2.81979e+07
5.97979e+06
2.48316e+07
-2.55547e+07
2.90945e+07
4.31443e+07
3.9435e+07
2.92127e+07
3.00126e+07
3.47298e+07
4.65721e+07
5.57059e+06
3.52347e+07
3.23046e+07