/*--------------------------------*- C++ -*----------------------------------*\
| =========                 |                                                 |
| \\      /  F ield         | OpenFOAM: The Open Source CFD Toolbox           |
|  \\    /   O peration     | Version:  v2012                                 |
|   \\  /    A nd           | Website:  www.openfoam.com                      |
|    \\/     M anipulation  |                                                 |
\*---------------------------------------------------------------------------*/
FoamFile
{
    version     2.0;
    format      ascii;
    class       volSymmTensorField;
    location    "1";
    object      epsilon;
}
// * * * * * * * * * * * * * * * * * * * * * * * * * * * * * * * * * * * * * //

dimensions      [0 0 0 0 0 0 0];


internalField   nonuniform List<symmTensor> 
500
(
(0.000491011 -6.49938e-05 1.7507e-20 -0.00019039 -3.45557e-21 9.28277e-37)
(0.000480908 -2.83817e-05 2.13876e-20 -0.000149072 -5.7447e-21 0)
(0.000339469 -1.50146e-05 -1.6538e-20 -9.25781e-05 3.03643e-21 0)
(0.000346915 7.3319e-06 -2.57213e-20 -8.51374e-05 -4.43175e-21 0)
(0.000274421 -7.10906e-06 6.85617e-21 -6.01038e-05 -4.05837e-21 0)
(0.000281303 1.85799e-05 1.08146e-20 -6.27688e-05 1.23091e-21 0)
(0.000238756 -1.71304e-06 5.85021e-21 -5.03266e-05 2.39588e-21 0)
(0.000245561 2.0902e-05 0 -5.62536e-05 0 0)
(0.000218165 8.43032e-07 0 -4.92832e-05 0 0)
(0.000224041 2.03841e-05 0 -5.56666e-05 0 0)
(0.000423799 -0.000133442 6.89607e-22 -0.000158734 -6.57481e-22 1.55642e-38)
(0.000438465 -8.30489e-05 -9.38432e-21 -0.000134606 -1.14871e-21 0)
(0.000326013 -3.02155e-05 2.50365e-20 -9.79501e-05 8.56939e-21 0)
(0.000343308 -5.35382e-06 1.62895e-20 -9.79939e-05 4.40407e-21 0)
(0.000274781 4.94352e-07 -1.17327e-20 -7.3846e-05 -5.15155e-21 0)
(0.000292014 2.20984e-05 -1.13341e-20 -8.41613e-05 -6.27936e-21 0)
(0.00024537 1.37962e-05 0 -6.64872e-05 0 0)
(0.000261288 3.08297e-05 8.83256e-21 -7.88902e-05 5.23364e-21 0)
(0.000226881 1.86877e-05 1.14472e-20 -6.53509e-05 3.1706e-21 0)
(0.000240417 3.29488e-05 2.3951e-20 -7.68446e-05 1.34891e-20 0)
(0.000331569 -0.000181971 -3.19504e-20 -9.48619e-05 1.48578e-22 -1.85683e-36)
(0.000361765 -0.000114347 3.05891e-20 -0.000106855 9.27805e-21 0)
(0.000305094 -4.99769e-05 -1.24342e-20 -0.000100674 -2.05211e-21 0)
(0.000326468 -2.22521e-05 5.67117e-20 -0.000112365 2.99606e-20 0)
(0.000278133 -5.62439e-06 4.83627e-21 -9.87603e-05 3.1218e-21 0)
(0.000299609 1.26317e-05 -1.72651e-20 -0.000111917 -1.23108e-20 0)
(0.0002589 1.34278e-05 -3.15702e-20 -9.83808e-05 -1.83443e-20 0)
(0.000278389 2.55684e-05 -3.47433e-20 -0.000109335 -2.08501e-20 0)
(0.000244043 2.10566e-05 -3.74349e-20 -9.79785e-05 -2.25916e-20 0)
(0.000260273 3.04509e-05 -2.78431e-20 -0.00010572 -1.34934e-20 0)
(0.00022762 -0.00019027 8.0713e-20 -3.04645e-05 -2.79703e-20 1.61789e-35)
(0.00027267 -0.000114908 -2.39583e-20 -8.08297e-05 -1.83636e-20 0)
(0.000275305 -6.63826e-05 -3.70606e-20 -0.000105573 -1.49161e-20 0)
(0.000298359 -4.03427e-05 -9.80885e-21 -0.000124537 -1.15873e-20 0)
(0.000274492 -2.28449e-05 3.5484e-20 -0.000124388 2.13598e-20 0)
(0.000296993 -9.19126e-06 1.76996e-20 -0.000136095 1.10437e-20 0)
(0.00026688 -2.90024e-06 -4.56505e-21 -0.000130215 -1.70346e-21 0)
(0.000286805 4.62751e-06 -1.69503e-20 -0.000136307 -9.54596e-21 0)
(0.000257451 6.4772e-06 1.46341e-20 -0.000130166 7.91663e-21 0)
(0.000273472 1.17877e-05 1.55746e-20 -0.000132386 8.24006e-21 0)
(0.000131775 -0.000160066 5.39185e-20 1.67592e-05 -2.9292e-20 8.71757e-36)
(0.00019096 -9.13967e-05 -3.47017e-20 -6.999e-05 -2.65619e-20 0)
(0.000236469 -8.03083e-05 -2.05414e-20 -0.000108886 -9.16878e-21 0)
(0.000258912 -5.75078e-05 -1.8067e-20 -0.000130752 -8.86077e-21 0)
(0.000256705 -4.92068e-05 0 -0.000141226 0 0)
(0.000276936 -3.8303e-05 2.28862e-20 -0.000146305 1.35019e-20 0)
(0.000259331 -3.23465e-05 7.70914e-21 -0.000150387 5.61973e-21 0)
(0.00027604 -2.5763e-05 3.48869e-21 -0.000145506 1.48099e-21 0)
(0.000256065 -2.18689e-05 -6.37465e-21 -0.000149794 -5.85487e-21 0)
(0.000267122 -1.60467e-05 8.71485e-21 -0.000138118 5.99987e-21 0)
(6.29659e-05 -0.000104932 -2.19977e-20 3.17766e-05 2.37813e-20 1.89009e-37)
(0.000129893 -5.58846e-05 4.76119e-20 -8.10656e-05 2.71279e-20 0)
(0.000190508 -8.97041e-05 9.6788e-21 -0.000108305 8.79244e-21 0)
(0.000210934 -7.09976e-05 6.5217e-21 -0.00013138 1.25611e-20 0)
(0.000221356 -7.76478e-05 -1.25877e-20 -0.000142625 -7.5463e-21 0)
(0.000239131 -6.90892e-05 -3.22792e-20 -0.000144266 -1.7991e-20 0)
(0.00023043 -6.67709e-05 -5.64179e-21 -0.000151147 -2.33323e-21 0)
(0.00024609 -6.3457e-05 -2.18434e-20 -0.000146215 -1.22221e-20 0)
(0.000231842 -5.49471e-05 -1.89957e-20 -0.000149863 -1.22738e-20 0)
(0.000242837 -6.52826e-05 -1.68718e-20 -0.00014547 -6.73253e-21 0)
(2.98047e-05 -4.60504e-05 1.56838e-20 1.0572e-05 -2.58905e-20 -1.75615e-37)
(9.35089e-05 -2.02195e-05 -2.9226e-20 -0.000110199 -2.97369e-20 0)
(0.000142841 -9.18017e-05 3.34205e-20 -0.000104581 3.0109e-20 0)
(0.00015943 -7.30153e-05 4.53504e-20 -0.000123985 2.54303e-20 0)
(0.000174979 -9.70269e-05 4.64669e-20 -0.00013 2.16578e-20 0)
(0.000188798 -8.37513e-05 3.10183e-20 -0.000125057 1.59341e-20 0)
(0.000189438 -9.09574e-05 1.78446e-20 -0.000136263 9.42829e-21 0)
(0.000201395 -8.02151e-05 9.38912e-21 -0.000122868 4.79027e-21 0)
(0.000196733 -7.8621e-05 0 -0.000135613 0 0)
(0.000206465 -7.99745e-05 0 -0.000120552 0 0)
(2.72751e-05 -2.10418e-06 -8.89298e-21 -3.696e-05 4.79605e-20 -7.44927e-36)
(7.74416e-05 4.54509e-06 2.40221e-20 -0.000146392 4.60236e-20 0)
(9.6145e-05 -8.30869e-05 -6.03494e-20 -9.67066e-05 -4.17858e-20 0)
(0.000110708 -6.14593e-05 -2.31478e-20 -0.000111559 -2.23123e-20 0)
(0.000120544 -9.78161e-05 -8.23721e-21 -0.000104834 2.30217e-23 0)
(0.000134082 -7.78081e-05 6.32332e-21 -9.63705e-05 3.22912e-21 0)
(0.000136192 -9.47673e-05 -5.67815e-21 -0.000105098 -1.81339e-21 0)
(0.000149228 -7.66882e-05 -1.42822e-20 -8.93095e-05 -5.15031e-21 0)
(0.000147324 -8.39292e-05 -2.75436e-20 -0.000102349 -1.03446e-20 0)
(0.000160329 -7.77663e-05 -6.88166e-21 -8.701e-05 -3.89945e-21 0)
(4.12572e-05 1.59751e-05 -2.2471e-21 -9.19516e-05 -1.9578e-20 -2.21338e-36)
(7.31548e-05 1.52201e-05 -6.3022e-21 -0.000174191 -1.22299e-20 0)
(5.83115e-05 -6.33047e-05 1.22278e-20 -8.79489e-05 2.07292e-21 0)
(7.37528e-05 -3.64657e-05 -1.03441e-20 -9.9139e-05 -8.5509e-21 0)
(7.14317e-05 -7.82448e-05 3.9685e-21 -7.66585e-05 2.13603e-21 0)
(8.89718e-05 -5.08034e-05 2.75551e-21 -7.02837e-05 9.66733e-22 0)
(8.766e-05 -7.55755e-05 -8.35105e-21 -7.06778e-05 -2.22238e-21 0)
(0.000105011 -5.15731e-05 -6.30215e-21 -5.98228e-05 -1.40036e-21 0)
(0.000102162 -6.6348e-05 2.56661e-20 -6.79052e-05 9.21229e-21 0)
(0.000120477 -5.44776e-05 1.29315e-21 -5.7351e-05 1.19161e-21 0)
(6.07407e-05 1.25095e-05 4.87175e-21 -0.000137588 1.79525e-20 -1.00781e-36)
(5.99012e-05 1.90964e-05 3.06335e-21 -0.000167138 1.41421e-20 0)
(2.93995e-05 -3.931e-05 8.77908e-21 -8.05079e-05 7.04078e-21 0)
(4.6309e-05 1.7719e-07 1.71974e-21 -8.45518e-05 7.7122e-21 0)
(4.10472e-05 -4.01522e-05 1.29686e-21 -5.50955e-05 9.50531e-22 0)
(5.97741e-05 -6.41505e-06 4.0036e-21 -5.63497e-05 3.24357e-21 0)
(5.84858e-05 -3.70538e-05 -3.70147e-21 -4.57173e-05 -7.27824e-22 0)
(7.76733e-05 -7.26003e-06 -4.21659e-21 -4.46327e-05 -2.38787e-21 0)
(7.39938e-05 -2.95746e-05 2.10507e-21 -4.27573e-05 -4.50904e-22 0)
(9.87252e-05 -8.15989e-06 4.03241e-21 -3.9895e-05 1.61244e-21 0)
(8.53798e-05 -9.31367e-06 0 -4.20286e-05 0 0)
(0.000112574 -2.20264e-05 7.59658e-21 -4.55239e-05 2.57684e-21 0)
(0.000107522 -5.1751e-05 -1.10558e-20 -5.273e-05 -3.59639e-21 0)
(0.000131083 -5.31203e-05 -7.78194e-21 -6.15481e-05 -6.47968e-21 0)
(0.000147576 -7.44065e-05 1.8799e-20 -7.81755e-05 -1.79434e-22 0)
(0.000162567 -7.00168e-05 0 -8.88198e-05 0 0)
(0.00019443 -7.70163e-05 0 -0.000107694 0 0)
(0.000198492 -7.05898e-05 0 -0.000118251 0 0)
(0.000234165 -6.03373e-05 0 -0.000131123 0 0)
(0.000223303 -5.78666e-05 7.79582e-21 -0.000139535 3.08412e-21 0)
(0.000105756 -5.79264e-06 -1.39139e-21 -4.40254e-05 5.45418e-21 0)
(0.000122234 -2.17007e-05 -5.67252e-21 -4.883e-05 3.5664e-21 0)
(0.000119539 -3.76482e-05 -7.81618e-21 -5.32013e-05 4.58171e-22 0)
(0.000136163 -4.65365e-05 9.65649e-21 -6.09694e-05 4.50785e-21 0)
(0.000148101 -5.75717e-05 -5.41219e-21 -7.22213e-05 -1.92785e-21 0)
(0.000159383 -6.19813e-05 -7.10804e-21 -8.17677e-05 -1.83225e-21 0)
(0.000182714 -6.38367e-05 -6.35386e-21 -9.51939e-05 -6.0953e-21 0)
(0.000187445 -6.53665e-05 -2.21828e-20 -0.000105682 -1.14035e-20 0)
(0.000216439 -5.57455e-05 -4.77129e-23 -0.000116173 -5.31116e-21 0)
(0.000207812 -5.79179e-05 -7.13043e-21 -0.000124238 -7.17061e-21 0)
(0.000118933 -5.47826e-06 2.99396e-21 -4.32694e-05 -2.14455e-21 0)
(0.000129973 -1.90384e-05 -7.09518e-22 -4.74333e-05 -3.73786e-21 0)
(0.000128022 -3.15099e-05 7.00606e-21 -5.09056e-05 3.50133e-21 0)
(0.000140579 -4.01193e-05 5.10965e-21 -5.74842e-05 4.62878e-21 0)
(0.000149542 -4.92285e-05 -1.19014e-21 -6.61991e-05 4.61748e-22 0)
(0.000157926 -5.42968e-05 1.37995e-20 -7.41139e-05 3.37684e-21 0)
(0.000175911 -5.67976e-05 -1.81076e-20 -8.48238e-05 -8.67287e-21 0)
(0.000179564 -5.91326e-05 -2.59846e-20 -9.39506e-05 -1.22624e-20 0)
(0.000203219 -5.34435e-05 -9.08466e-21 -0.000102992 1.27929e-21 0)
(0.000196557 -5.52425e-05 1.31941e-20 -0.000110594 1.05424e-20 0)
(0.000128575 -4.68915e-06 0 -4.18619e-05 0 0)
(0.000136672 -1.62907e-05 5.2316e-21 -4.52095e-05 1.07668e-21 0)
(0.000134365 -2.65641e-05 -9.02255e-22 -4.77855e-05 2.53383e-21 0)
(0.000144594 -3.43172e-05 -2.44163e-21 -5.34793e-05 1.06016e-21 0)
(0.000150703 -4.24218e-05 2.80348e-21 -6.01728e-05 -8.11717e-22 0)
(0.000157486 -4.7161e-05 2.5217e-21 -6.69984e-05 2.31948e-21 0)
(0.000170839 -5.03914e-05 -1.04603e-21 -7.54321e-05 -5.32993e-21 0)
(0.000173843 -5.26947e-05 -6.30192e-21 -8.33804e-05 -9.28196e-21 0)
(0.000192189 -4.99296e-05 3.14261e-21 -9.08335e-05 5.10751e-21 0)
(0.000187765 -5.13464e-05 3.33162e-21 -9.81603e-05 4.51797e-21 0)
(0.000135873 -3.68258e-06 4.66712e-21 -3.95543e-05 1.02515e-21 0)
(0.000142101 -1.38989e-05 -2.70732e-21 -4.22654e-05 2.11972e-22 0)
(0.000139346 -2.21823e-05 1.18889e-20 -4.40175e-05 -1.97583e-21 0)
(0.000147922 -2.92066e-05 7.87729e-21 -4.90601e-05 -1.75915e-21 0)
(0.000151673 -3.62879e-05 1.17e-21 -5.40742e-05 -4.67674e-22 0)
(0.00015739 -4.06194e-05 -7.15219e-22 -6.01618e-05 -3.0098e-21 0)
(0.000166976 -4.42185e-05 2.67266e-21 -6.66491e-05 6.83921e-21 0)
(0.000169525 -4.63205e-05 5.56438e-21 -7.36933e-05 6.89805e-21 0)
(0.000183336 -4.55786e-05 -5.97377e-21 -7.96133e-05 -3.02935e-21 0)
(0.000180638 -4.66915e-05 -6.90014e-21 -8.66792e-05 -2.12521e-21 0)
(0.000141255 -2.60207e-06 -4.86334e-21 -3.60035e-05 -9.88335e-22 0)
(0.00014606 -1.1881e-05 2.85634e-21 -3.82476e-05 -1.82586e-22 0)
(0.000143106 -1.82155e-05 -8.66472e-21 -3.93023e-05 -2.38968e-21 0)
(0.000150307 -2.46691e-05 3.86305e-21 -4.39551e-05 1.39138e-21 0)
(0.000152345 -3.06037e-05 4.36731e-21 -4.75843e-05 1.5654e-21 0)
(0.000157183 -3.45414e-05 -6.63679e-21 -5.32614e-05 -1.62032e-21 0)
(0.00016389 -3.81776e-05 1.30137e-20 -5.81144e-05 3.24762e-21 0)
(0.000166043 -3.99845e-05 1.25691e-20 -6.4601e-05 4.0215e-21 0)
(0.000176255 -4.05995e-05 -5.28572e-22 -6.91379e-05 4.55601e-22 0)
(0.000174687 -4.13686e-05 2.96698e-22 -7.6009e-05 -6.54423e-22 0)
(0.000144843 -1.474e-06 5.00981e-21 -3.0841e-05 9.24636e-22 0)
(0.000148381 -1.01399e-05 0 -3.27397e-05 0 0)
(0.000145547 -1.44674e-05 -5.24867e-21 -3.32168e-05 2.65035e-21 0)
(0.000151495 -2.0465e-05 1.96933e-21 -3.77687e-05 4.30898e-21 0)
(0.000152462 -2.5106e-05 -4.87218e-21 -4.02695e-05 -2.90396e-21 0)
(0.000156474 -2.86384e-05 -3.87709e-21 -4.58972e-05 -3.31031e-21 0)
(0.000161141 -3.20444e-05 3.56275e-22 -4.9406e-05 3.26917e-21 0)
(0.000162896 -3.34416e-05 -5.78657e-21 -5.57556e-05 1.69925e-21 0)
(0.000170422 -3.49587e-05 7.05502e-22 -5.90995e-05 -2.75495e-22 0)
(0.000169509 -3.52309e-05 -6.76755e-21 -6.59888e-05 -2.26054e-21 0)
(0.000146546 -2.76015e-07 -8.98001e-21 -2.36082e-05 1.82216e-21 0)
(0.000148871 -8.55165e-06 -1.02602e-20 -2.52472e-05 1.31143e-21 0)
(0.000146401 -1.06668e-05 -3.05671e-22 -2.51961e-05 8.35936e-22 0)
(0.000151213 -1.62438e-05 1.18635e-22 -3.00091e-05 1.04182e-21 0)
(0.000151669 -1.94035e-05 -4.04264e-21 -3.15854e-05 -1.32102e-21 0)
(0.00015492 -2.24359e-05 4.53727e-21 -3.76263e-05 1.56468e-21 0)
(0.000158283 -2.54076e-05 4.90947e-21 -4.00354e-05 1.71223e-21 0)
(0.00015967 -2.61902e-05 6.77094e-21 -4.68004e-05 2.21463e-21 0)
(0.00016532 -2.83563e-05 -5.56894e-21 -4.91379e-05 -2.88411e-21 0)
(0.000164812 -2.78427e-05 -1.28631e-20 -5.64876e-05 -5.90108e-21 0)
(0.000145975 9.66379e-07 0 -1.36349e-05 0 0)
(0.000147361 -6.85391e-06 3.09318e-21 -1.52142e-05 6.20278e-23 0)
(0.000145135 -6.46084e-06 5.87331e-21 -1.44637e-05 4.94568e-22 0)
(0.000149282 -1.12538e-05 2.02844e-24 -2.02495e-05 -4.74541e-22 0)
(0.000149456 -1.29528e-05 1.77075e-21 -2.09046e-05 8.39801e-22 0)
(0.000152458 -1.50176e-05 7.05189e-21 -2.81854e-05 2.465e-21 0)
(0.00015481 -1.76273e-05 1.97417e-22 -2.94655e-05 1.64087e-22 0)
(0.000156284 -1.71955e-05 3.86991e-21 -3.76276e-05 1.72255e-21 0)
(0.000160471 -2.01774e-05 -4.9137e-21 -3.89466e-05 -2.0701e-21 0)
(0.000160743 -1.82617e-05 -1.03363e-20 -4.76833e-05 -4.85363e-21 0)
(0.000142033 1.82337e-06 9.49965e-21 1.83972e-07 9.97979e-22 0)
(0.000143284 -1.48421e-06 1.91259e-21 -2.89712e-06 1.28686e-21 -7.83573e-37)
(0.000141151 -1.80059e-06 -2.72015e-21 -1.19223e-06 -6.86892e-22 0)
(0.000146879 -2.01437e-06 -1.06733e-21 -9.30386e-06 -1.06406e-21 -1.39876e-37)
(0.00014509 -5.59411e-06 3.8208e-21 -7.96368e-06 -1.25513e-22 0)
(0.000150043 -2.35823e-06 -1.2848e-21 -1.82482e-05 -3.40634e-21 -6.56781e-37)
(0.000150194 -8.18405e-06 3.54367e-21 -1.78125e-05 3.15552e-21 0)
(0.000154014 -2.58381e-06 4.5762e-21 -2.89259e-05 8.33779e-21 -3.2584e-36)
(0.000155473 -9.77341e-06 3.71574e-21 -2.88124e-05 1.02525e-21 0)
(0.000158726 -2.70674e-06 -4.19357e-21 -4.04585e-05 -5.9705e-21 -9.6757e-37)
(0.000249638 -3.22752e-05 3.90046e-21 -0.000139514 -2.06604e-21 0)
(0.00023841 -2.82767e-05 4.10104e-21 -0.000135061 -2.21741e-21 0)
(0.000240947 -1.36896e-05 8.30025e-21 -0.000130653 4.91886e-21 0)
(0.000236009 -1.01583e-05 5.23049e-21 -0.00012532 6.05327e-21 0)
(0.000231177 -1.46956e-06 1.13496e-20 -0.000120783 5.03394e-21 0)
(0.000226887 1.29787e-06 -3.76335e-21 -0.000114498 -5.62125e-21 0)
(0.000219449 6.68737e-06 -9.93364e-21 -0.000110803 7.86837e-22 0)
(0.000218354 9.08148e-06 -1.16067e-20 -0.000105673 1.07325e-21 0)
(0.000208043 1.15131e-05 5.51858e-21 -0.000101688 -3.10704e-22 0)
(0.000208023 1.34278e-05 3.44874e-21 -9.71494e-05 -1.22396e-22 0)
(0.000196879 1.4111e-05 3.91242e-21 -9.34899e-05 1.6998e-22 0)
(0.000197822 1.54309e-05 1.06617e-20 -8.96134e-05 4.4208e-21 0)
(0.000186296 1.47336e-05 3.56938e-21 -8.62349e-05 2.88026e-22 0)
(0.000188121 1.54405e-05 3.11081e-21 -8.30249e-05 1.73219e-22 0)
(0.000176409 1.35587e-05 -1.44504e-21 -7.98959e-05 3.2853e-23 0)
(0.000179189 1.35251e-05 0 -7.7348e-05 0 0)
(0.000167396 1.04732e-05 -1.84681e-20 -7.44393e-05 -1.15e-20 0)
(0.000171442 9.37623e-06 0 -7.27851e-05 0 0)
(0.000160027 5.26132e-06 -2.67849e-21 -7.00042e-05 -3.10446e-21 0)
(0.000165769 1.45316e-06 -3.56864e-21 -7.07029e-05 -1.34254e-21 4.32324e-37)
(0.000234393 -3.98497e-05 8.43467e-21 -0.000127366 4.5571e-21 0)
(0.000221764 -3.76342e-05 -1.07118e-20 -0.000125684 -3.04176e-21 0)
(0.000232513 -2.26757e-05 -1.68038e-21 -0.000124704 6.74757e-22 0)
(0.000223815 -2.06383e-05 0 -0.00012054 0 0)
(0.000225656 -1.00768e-05 -4.71942e-21 -0.000118063 1.19979e-21 0)
(0.000219618 -8.52461e-06 -4.91153e-21 -0.000113018 1.30695e-21 0)
(0.000216342 -9.60723e-07 -9.95092e-21 -0.00011001 1.54547e-21 0)
(0.000213035 4.23971e-07 1.0215e-20 -0.000105077 9.82979e-21 0)
(0.000206438 5.11736e-06 -2.99145e-20 -0.000101824 -1.33027e-20 0)
(0.000204874 6.27994e-06 -4.17188e-21 -9.73227e-05 3.04095e-22 0)
(0.000196493 8.84152e-06 -1.17368e-20 -9.40919e-05 -1.36169e-20 0)
(0.00019632 9.64672e-06 8.46637e-21 -9.01665e-05 4.32285e-21 0)
(0.000186982 1.05269e-05 3.40011e-21 -8.70921e-05 4.20677e-21 0)
(0.00018798 1.08406e-05 0 -8.3767e-05 0 0)
(0.000178243 1.03267e-05 -8.71408e-21 -8.09656e-05 -7.79875e-22 0)
(0.000180319 9.98274e-06 1.60733e-21 -7.82692e-05 3.59169e-21 0)
(0.000170726 8.21581e-06 -1.02027e-20 -7.58718e-05 -7.76806e-21 0)
(0.000173902 7.02278e-06 1.36321e-20 -7.40733e-05 8.1542e-21 0)
(0.000165333 4.14109e-06 -1.35077e-20 -7.21229e-05 -5.25949e-21 0)
(0.00016955 1.04966e-06 2.14588e-20 -7.23752e-05 6.04967e-21 5.19493e-36)
(0.000218721 -4.26051e-05 -7.73915e-21 -0.00011379 -5.63021e-21 0)
(0.000208451 -4.13391e-05 2.96195e-21 -0.00011449 -2.50777e-21 0)
(0.000220778 -2.90463e-05 -3.72565e-21 -0.000114107 1.77026e-21 0)
(0.000212237 -2.73552e-05 4.93284e-21 -0.000112473 5.82984e-21 0)
(0.00021706 -1.72639e-05 0 -0.000110561 0 0)
(0.000210822 -1.5828e-05 -1.34628e-20 -0.000107725 -9.25546e-21 0)
(0.000210647 -8.02987e-06 1.14219e-20 -0.000105086 9.80733e-21 0)
(0.000206449 -6.74431e-06 7.66014e-22 -0.000101718 5.6575e-21 0)
(0.000202847 -1.18125e-06 2.23303e-20 -9.87839e-05 8.15272e-21 0)
(0.000200354 -1.73531e-07 2.81759e-21 -9.53402e-05 -2.89751e-22 0)
(0.000194612 3.45086e-06 -1.80499e-21 -9.23961e-05 4.80971e-23 0)
(0.000193558 4.08797e-06 -1.85494e-21 -8.91413e-05 4.21012e-23 0)
(0.000186579 6.05836e-06 1.42396e-20 -8.63738e-05 4.56827e-21 0)
(0.000186755 6.22434e-06 7.13155e-21 -8.34565e-05 3.2297e-22 0)
(0.000179257 6.774e-06 2.23031e-20 -8.10227e-05 1.63548e-20 0)
(0.000180502 6.37414e-06 -7.88283e-21 -7.85789e-05 -4.23198e-21 0)
(0.000173227 5.67776e-06 3.04068e-21 -7.66405e-05 4.3524e-22 0)
(0.000175382 4.64765e-06 -1.38811e-20 -7.49476e-05 -8.18383e-21 0)
(0.00016933 2.91756e-06 2.7169e-20 -7.36208e-05 1.62093e-20 0)
(0.000172118 6.67341e-07 -1.42891e-20 -7.35509e-05 -3.32353e-21 7.13486e-37)
(0.000205603 -4.26684e-05 -1.03381e-20 -0.000100988 -1.55654e-21 0)
(0.000197476 -4.18926e-05 -1.63225e-21 -0.000102967 1.37327e-21 0)
(0.000209265 -3.21321e-05 -2.01305e-21 -0.000102897 9.96188e-22 0)
(0.000201729 -3.07772e-05 5.05247e-21 -0.000103122 5.353e-21 0)
(0.000207917 -2.19421e-05 0 -0.000101643 0 0)
(0.000201891 -2.05584e-05 -1.34203e-20 -0.000100594 -8.61409e-21 0)
(0.000203795 -1.32391e-05 -4.801e-21 -9.83829e-05 9.88264e-22 0)
(0.000199299 -1.19431e-05 -1.45286e-20 -9.65329e-05 -2.47911e-21 0)
(0.000198059 -6.29923e-06 -1.41881e-20 -9.40115e-05 -8.55381e-21 0)
(0.00019503 -5.25263e-06 -1.68677e-21 -9.17702e-05 1.93346e-22 0)
(0.000191648 -1.23696e-06 -1.65175e-21 -8.92228e-05 4.24443e-23 0)
(0.000189952 -5.45531e-07 -5.79756e-21 -8.68805e-05 -4.14972e-21 0)
(0.000185246 1.977e-06 -1.30427e-20 -8.45085e-05 -8.36781e-21 0)
(0.000184726 2.23349e-06 0 -8.22728e-05 0 0)
(0.000179422 3.42825e-06 7.11197e-21 -8.0241e-05 4.18131e-21 0)
(0.000179896 3.2058e-06 5.53562e-21 -7.82999e-05 3.94419e-21 0)
(0.000174759 3.2577e-06 -8.44129e-21 -7.67655e-05 -4.33639e-21 0)
(0.000175986 2.57058e-06 1.40348e-20 -7.53752e-05 8.1598e-21 0)
(0.000171988 1.72469e-06 -1.38356e-20 -7.44779e-05 -8.13843e-21 0)
(0.000173581 3.51684e-07 0 -7.4267e-05 0 0)
(0.000194733 -4.09776e-05 8.32998e-21 -8.89755e-05 2.91198e-21 0)
(0.000188351 -4.03221e-05 0 -9.18214e-05 0 0)
(0.000198781 -3.2867e-05 5.31425e-21 -9.17984e-05 4.71451e-21 0)
(0.000192406 -3.16212e-05 1.31694e-20 -9.34186e-05 8.08202e-21 0)
(0.000198944 -2.43626e-05 6.74514e-21 -9.22317e-05 -2.07694e-21 0)
(0.000193411 -2.28936e-05 4.05282e-21 -9.26677e-05 -1.3983e-21 0)
(0.000196597 -1.65314e-05 1.68336e-20 -9.08529e-05 7.56678e-21 0)
(0.000192149 -1.50765e-05 2.18393e-21 -9.03985e-05 -4.54759e-22 0)
(0.000192689 -9.90701e-06 2.24127e-21 -8.83152e-05 -1.99043e-22 0)
(0.000189426 -8.66303e-06 2.27764e-21 -8.7289e-05 -2.29352e-22 0)
(0.000188027 -4.78266e-06 6.05094e-21 -8.51882e-05 4.10097e-21 0)
(0.000185926 -3.87357e-06 -5.89749e-21 -8.38568e-05 -4.02756e-21 0)
(0.000183242 -1.25555e-06 -5.83626e-21 -8.19218e-05 -4.04054e-21 0)
(0.000182206 -7.50592e-07 -7.27016e-21 -8.05048e-05 -4.05351e-21 0)
(0.000178869 7.08173e-07 -3.68956e-21 -7.8881e-05 -3.92168e-22 0)
(0.00017873 7.96781e-07 -7.88638e-21 -7.75801e-05 -4.14928e-21 0)
(0.000175418 1.26515e-06 -7.1521e-22 -7.63955e-05 -1.02338e-22 0)
(0.000175913 1.00253e-06 -5.03949e-21 -7.54348e-05 -7.35748e-22 0)
(0.000173446 7.32544e-07 2.14443e-21 -7.48006e-05 3.27308e-21 0)
(0.000174171 1.30002e-07 3.74398e-21 -7.4602e-05 1.4275e-21 4.59681e-37)
(0.000185678 -3.79195e-05 -6.76702e-21 -7.77261e-05 -3.00152e-21 0)
(0.000180678 -3.71006e-05 -6.76913e-21 -8.13035e-05 -3.35344e-21 0)
(0.000189533 -3.17182e-05 9.15492e-21 -8.11962e-05 2.70024e-21 0)
(0.000184242 -3.03231e-05 5.60552e-21 -8.39411e-05 4.05457e-21 0)
(0.000190584 -2.47566e-05 6.1175e-22 -8.29564e-05 -1.43906e-22 0)
(0.000185669 -2.303e-05 -5.93528e-21 -8.46573e-05 -3.92495e-21 0)
(0.00018958 -1.79241e-05 1.95552e-21 -8.32081e-05 -2.52274e-22 0)
(0.000185395 -1.61682e-05 1.72558e-20 -8.40066e-05 7.03308e-21 0)
(0.000187224 -1.1859e-05 -1.36382e-21 -8.23693e-05 5.74478e-23 0)
(0.000183961 -1.03e-05 7.5083e-21 -8.24888e-05 3.83365e-21 0)
(0.000184144 -6.94992e-06 7.00382e-21 -8.08584e-05 1.92095e-22 0)
(0.000181858 -5.72484e-06 4.25404e-21 -8.05228e-05 8.76723e-23 0)
(0.000180861 -3.37276e-06 4.49128e-21 -7.90429e-05 3.81798e-21 0)
(0.000179507 -2.54381e-06 1.43178e-21 -7.84607e-05 1.1323e-22 0)
(0.000177819 -1.13788e-06 -2.11486e-21 -7.72399e-05 -2.59291e-22 0)
(0.00017726 -6.96531e-07 3.57982e-21 -7.66084e-05 3.61306e-21 0)
(0.000175411 -1.01234e-07 -7.08012e-21 -7.57289e-05 -4.07599e-21 0)
(0.000175406 4.17321e-08 0 -7.52398e-05 0 0)
(0.000173983 5.60363e-08 1.38977e-20 -7.47516e-05 5.19294e-21 0)
(0.000174192 1.03328e-08 -7.52373e-21 -7.46719e-05 -2.8577e-21 1.84047e-36)
(0.000178042 -3.35878e-05 0 -6.71491e-05 0 0)
(0.000174128 -3.23314e-05 0 -7.15199e-05 0 0)
(0.000181513 -2.88807e-05 -1.29764e-20 -7.12997e-05 -1.9901e-21 0)
(0.000177172 -2.70536e-05 1.00137e-20 -7.50744e-05 7.49445e-21 0)
(0.000183091 -2.32635e-05 -7.02757e-21 -7.42727e-05 -7.59217e-21 0)
(0.000178846 -2.10844e-05 7.52979e-22 -7.71053e-05 -4.52601e-21 0)
(0.000183121 -1.74663e-05 4.66249e-21 -7.60259e-05 3.68884e-21 0)
(0.000179355 -1.52793e-05 4.48909e-21 -7.79386e-05 3.79052e-21 0)
(0.000182062 -1.2131e-05 7.53408e-21 -7.67645e-05 3.79745e-21 0)
(0.000179004 -1.01784e-05 6.11295e-21 -7.79032e-05 3.79627e-21 0)
(0.000180361 -7.66894e-06 -8.71189e-21 -7.67615e-05 -4.0408e-21 0)
(0.000178104 -6.08978e-06 -5.96036e-21 -7.7313e-05 -3.83987e-21 0)
(0.000178407 -4.28782e-06 1.34268e-21 -7.62964e-05 1.63313e-22 0)
(0.000176941 -3.13379e-06 0 -7.64569e-05 0 0)
(0.000176531 -2.02723e-06 3.77178e-21 -7.563e-05 3.55277e-21 0)
(0.000175755 -1.27357e-06 3.69796e-21 -7.55913e-05 3.54989e-21 0)
(0.000174994 -7.74185e-07 3.40407e-21 -7.4987e-05 5.59108e-22 0)
(0.000174726 -3.26033e-07 2.05364e-21 -7.49227e-05 3.40982e-22 0)
(0.000173953 -2.59096e-07 -1.17963e-20 -7.45215e-05 -4.89221e-21 0)
(0.000173966 -1.75292e-08 3.79888e-21 -7.46071e-05 1.42546e-21 4.59026e-37)
(0.000171502 -2.78002e-05 -2.40317e-21 -5.71527e-05 3.83977e-23 0)
(0.000168504 -2.57747e-05 5.87503e-21 -6.25848e-05 3.00788e-21 0)
(0.000174678 -2.42955e-05 5.96294e-21 -6.23139e-05 3.02843e-21 0)
(0.00017122 -2.17167e-05 -1.42702e-21 -6.71881e-05 -3.65033e-23 0)
(0.000176667 -1.98922e-05 -1.65441e-20 -6.66362e-05 -6.9065e-21 0)
(0.000173187 -1.70627e-05 -1.51911e-20 -7.05394e-05 -7.16014e-21 0)
(0.000177549 -1.5199e-05 -8.01828e-21 -6.98857e-05 -3.69683e-21 0)
(0.000174387 -1.24785e-05 4.53759e-21 -7.27672e-05 3.45278e-21 0)
(0.000177577 -1.0781e-05 -2.96351e-21 -7.20974e-05 -4.14361e-22 0)
(0.000174947 -8.40454e-06 4.28908e-21 -7.40677e-05 3.49533e-21 0)
(0.000177037 -7.00766e-06 0 -7.34391e-05 0 0)
(0.000175038 -5.10021e-06 -5.94638e-21 -7.4674e-05 -3.80445e-21 0)
(0.000176195 -4.07755e-06 -9.15699e-21 -7.41262e-05 -4.34872e-21 0)
(0.000174835 -2.66972e-06 -9.09594e-21 -7.4827e-05 -4.39235e-21 0)
(0.00017528 -2.04171e-06 -1.98514e-21 -7.43828e-05 -3.53031e-22 0)
(0.000174491 -1.0885e-06 -3.32936e-21 -7.47514e-05 -5.97742e-22 0)
(0.000174446 -8.26519e-07 -3.73797e-21 -7.44054e-05 -3.47165e-21 0)
(0.000174116 -2.33335e-07 2.01841e-21 -7.46212e-05 3.73239e-22 0)
(0.000173726 -2.47826e-07 1.61115e-20 -7.43074e-05 8.55384e-21 0)
(0.000173764 1.55271e-08 -1.1082e-20 -7.45231e-05 -3.10115e-21 1.33147e-36)
(0.000165835 -2.00585e-05 3.57823e-21 -4.77925e-05 1.75701e-21 0)
(0.000163979 -1.66772e-05 3.52666e-21 -5.49068e-05 1.97147e-21 0)
(0.000169097 -1.76531e-05 -1.42116e-21 -5.4675e-05 -4.89587e-22 0)
(0.000166844 -1.39405e-05 4.85819e-21 -6.09096e-05 2.77098e-21 0)
(0.000171598 -1.45305e-05 4.99768e-21 -6.07031e-05 1.59031e-21 0)
(0.000169236 -1.08608e-05 -9.46207e-21 -6.56629e-05 -6.00935e-21 0)
(0.000173259 -1.11624e-05 1.95021e-21 -6.55098e-05 2.24739e-21 0)
(0.000171041 -7.84872e-06 -1.14616e-20 -6.91798e-05 -5.26561e-21 0)
(0.000174194 -7.94875e-06 1.14393e-21 -6.90703e-05 2.92697e-22 0)
(0.000172299 -5.18971e-06 1.31992e-20 -7.15911e-05 7.83344e-21 0)
(0.000174572 -5.17068e-06 1.2067e-20 -7.15076e-05 5.1422e-21 0)
(0.000173093 -3.04756e-06 1.08007e-20 -7.30959e-05 4.99052e-21 0)
(0.000174573 -2.98326e-06 1.49651e-20 -7.30248e-05 8.28132e-21 0)
(0.000173532 -1.48116e-06 9.01975e-21 -7.39276e-05 4.55316e-21 0)
(0.000174356 -1.43184e-06 9.07453e-21 -7.38566e-05 4.50074e-21 0)
(0.000173724 -4.66282e-07 9.04785e-21 -7.43189e-05 4.54344e-21 0)
(0.000174025 -4.80908e-07 -1.32783e-21 -7.42207e-05 -2.6362e-22 0)
(0.000173767 5.99306e-08 1.98484e-20 -7.44682e-05 1.213e-20 0)
(0.000173602 -3.72845e-08 -5.05054e-21 -7.42692e-05 -3.71949e-21 0)
(0.000173725 7.47228e-08 3.36046e-21 -7.45068e-05 2.73963e-22 -5.88259e-38)
(0.000161079 -9.7897e-06 1.00993e-22 -3.99508e-05 -9.51222e-23 0)
(0.000162128 -2.52483e-06 -9.05751e-22 -4.9219e-05 -2.22815e-21 -1.94447e-37)
(0.000165084 -8.59754e-06 4.70119e-21 -4.95142e-05 2.06725e-21 0)
(0.00016546 -2.02944e-06 -9.46415e-22 -5.69148e-05 -1.99748e-21 -2.03177e-37)
(0.000168359 -7.11607e-06 -9.32791e-21 -5.75765e-05 -4.99856e-21 0)
(0.000168188 -1.51499e-06 7.05336e-21 -6.30878e-05 1.14258e-20 -4.54261e-36)
(0.000170797 -5.48036e-06 1.22438e-20 -6.39322e-05 7.13643e-21 0)
(0.000170287 -1.03795e-06 -4.97143e-21 -6.77066e-05 -8.1805e-21 -1.06726e-36)
(0.000172452 -3.89365e-06 -1.34609e-20 -6.85763e-05 -6.36398e-21 0)
(0.000171786 -6.36502e-07 -8.44151e-21 -7.08942e-05 -1.20601e-20 -7.24886e-36)
(0.000173445 -2.50445e-06 -1.60637e-20 -7.16776e-05 -1.09095e-20 0)
(0.000172766 -3.2886e-07 3.66409e-21 -7.28806e-05 5.23783e-21 -1.1799e-36)
(0.000173928 -1.39676e-06 -4.53843e-22 -7.35125e-05 2.32365e-21 0)
(0.000173335 -1.18203e-07 -7.37255e-21 -7.3947e-05 -1.02003e-20 -4.74819e-36)
(0.000174058 -5.99256e-07 -1.15968e-20 -7.44022e-05 -7.74908e-21 0)
(0.000173604 2.54998e-09 -2.35625e-21 -7.43747e-05 -4.13911e-21 -2.52912e-37)
(0.000173949 -1.14168e-07 1.76837e-21 -7.46545e-05 3.06943e-21 0)
(0.000173691 2.43794e-08 -2.722e-21 -7.44117e-05 -1.64519e-21 -1.16866e-36)
(0.000173824 8.73741e-08 0 -7.46365e-05 0 0)
(0.000173665 6.11427e-09 0 -7.43654e-05 0 0)
(0.000205756 2.12932e-06 0 -5.16884e-05 0 0)
(0.000210565 1.82114e-05 -5.83873e-21 -5.71731e-05 -1.92193e-21 0)
(0.000196766 2.30067e-06 0 -5.44169e-05 0 0)
(0.000200503 1.56122e-05 -5.63192e-21 -5.92347e-05 -1.75787e-21 0)
(0.000189442 2.02905e-06 -9.31507e-21 -5.72427e-05 1.17001e-21 0)
(0.000192319 1.32564e-05 -8.73725e-21 -6.13634e-05 -6.91204e-22 0)
(0.000182963 1.62023e-06 -1.35128e-20 -5.97662e-05 -7.96193e-22 0)
(0.000185209 1.13195e-05 -1.8194e-20 -6.32372e-05 -4.68495e-21 0)
(0.000176743 1.14636e-06 -8.79733e-21 -6.17563e-05 -4.43026e-21 0)
(0.000178533 9.76465e-06 3.44905e-21 -6.46371e-05 3.84713e-21 0)
(0.000170347 6.33229e-07 2.51241e-20 -6.30996e-05 1.22665e-21 0)
(0.000171812 8.49877e-06 2.11393e-20 -6.54095e-05 5.11644e-22 0)
(0.000163389 6.45505e-08 4.14892e-21 -6.36836e-05 2.28425e-21 0)
(0.000164617 7.41981e-06 -5.06116e-21 -6.53978e-05 -1.39072e-21 0)
(0.000155437 -5.84624e-07 0 -6.33245e-05 0 0)
(0.000156493 6.43149e-06 -4.91118e-21 -6.44185e-05 -1.34455e-21 0)
(0.000145907 -1.28984e-06 -6.86095e-21 -6.16463e-05 1.74881e-21 0)
(0.000146956 5.33562e-06 -2.28926e-21 -6.23163e-05 2.56024e-21 0)
(0.00013385 -1.70622e-06 1.22783e-20 -5.77127e-05 -3.12821e-21 0)
(0.000136266 1.15888e-06 1.20826e-20 -5.86133e-05 -6.77962e-22 3.7148e-37)
(0.00021427 1.96928e-05 3.80606e-21 -6.68008e-05 4.45888e-21 0)
(0.000224691 3.10042e-05 0 -7.38895e-05 0 0)
(0.000203766 1.85728e-05 4.99206e-21 -6.46299e-05 -9.0836e-22 0)
(0.000211814 2.79626e-05 1.14456e-20 -7.17161e-05 2.36871e-21 0)
(0.0001947 1.66437e-05 2.64996e-20 -6.3882e-05 4.23797e-21 0)
(0.000201191 2.46783e-05 3.01017e-20 -7.04943e-05 1.12173e-20 0)
(0.00018682 1.45036e-05 2.28036e-20 -6.39126e-05 9.23171e-21 0)
(0.000192102 2.15887e-05 1.01211e-20 -6.98309e-05 1.09875e-21 0)
(0.000179514 1.2429e-05 -5.45125e-21 -6.41629e-05 -1.96607e-21 0)
(0.00018393 1.8814e-05 -4.39942e-21 -6.9363e-05 -3.32318e-21 0)
(0.000172291 1.04518e-05 -1.28386e-20 -6.42796e-05 -2.66483e-21 0)
(0.00017615 1.63037e-05 -4.54858e-21 -6.87818e-05 2.93882e-21 0)
(0.000164691 8.48124e-06 -1.0812e-21 -6.39807e-05 9.87918e-22 0)
(0.000168281 1.39105e-05 0 -6.78041e-05 0 0)
(0.000156193 6.34996e-06 -5.06741e-21 -6.2954e-05 -1.7412e-21 0)
(0.000159838 1.13952e-05 -9.3077e-21 -6.61531e-05 -5.26794e-21 0)
(0.000146132 3.81018e-06 8.01187e-22 -6.07215e-05 -1.00736e-21 0)
(0.000150433 8.18327e-06 -9.24216e-21 -6.36476e-05 -5.12012e-21 0)
(0.000134636 8.2558e-07 -9.65511e-21 -5.6795e-05 -2.01367e-21 0)
(0.000140817 1.51471e-06 -4.94354e-22 -6.13038e-05 7.02057e-22 2.7995e-37)
(0.000230939 2.35164e-05 0 -9.69827e-05 0 0)
(0.000242923 3.15851e-05 4.54207e-22 -9.73627e-05 -5.37592e-22 0)
(0.000218031 2.48514e-05 -1.75525e-20 -8.79617e-05 -7.86653e-21 0)
(0.000227346 3.12571e-05 -1.77835e-20 -9.0026e-05 -9.34769e-21 0)
(0.000206293 2.41119e-05 -2.66262e-20 -8.15547e-05 -1.388e-20 0)
(0.000214006 2.95424e-05 -6.71234e-21 -8.43916e-05 2.57773e-22 0)