/*--------------------------------*- C++ -*----------------------------------*\
| =========                 |                                                 |
| \\      /  F ield         | OpenFOAM: The Open Source CFD Toolbox           |
|  \\    /   O peration     | Version:  v2012                                 |
|   \\  /    A nd           | Website:  www.openfoam.com                      |
|    \\/     M anipulation  |                                                 |
\*---------------------------------------------------------------------------*/
FoamFile
{
    version     2.0;
    format      ascii;
    class       volScalarField;
    location    "1";
    object      epsilonEq;
}
// * * * * * * * * * * * * * * * * * * * * * * * * * * * * * * * * * * * * * //

dimensions      [0 0 0 0 0 0 0];


internalField   nonuniform List<scalar> 
500
(
0.000412847
0.000381576
0.00026324
0.000264403
0.00020609
0.00021267
0.000178341
0.000186891
0.000164356
0.000172577
0.000380347
0.000359061
0.000258673
0.000267657
0.000212132
0.000229392
0.000190335
0.000208656
0.000178413
0.000194864
0.000333154
0.000312818
0.000250711
0.000264471
0.000225758
0.000246126
0.000213666
0.000232717
0.000204828
0.00022032
0.00027348
0.000251691
0.000239651
0.000255227
0.000237138
0.000255951
0.000233769
0.000249439
0.0002279
0.000239383
0.00020254
0.000188314
0.000223975
0.000238427
0.000239777
0.000252117
0.000242219
0.000249022
0.000238327
0.000238605
0.000126502
0.000138793
0.000203083
0.000215601
0.000229975
0.000237407
0.000234897
0.000240371
0.000230952
0.000238739
5.59639e-05
0.000120035
0.00017834
0.000184452
0.000209239
0.000206492
0.000216115
0.000210507
0.000213248
0.00021212
3.73056e-05
0.000131363
0.000146976
0.000146642
0.000172385
0.000161037
0.000177451
0.000164945
0.000174344
0.000170449
8.08745e-05
0.000147772
0.000112123
0.000108667
0.000124404
0.000109244
0.000126509
0.00011327
0.000125063
0.000122233
0.000118221
0.000137645
7.9857e-05
7.66207e-05
7.24753e-05
6.74618e-05
7.39472e-05
7.19571e-05
7.62773e-05
8.29369e-05
7.57327e-05
9.73556e-05
0.000111646
0.000129106
0.000157813
0.000167946
0.000197916
0.000201993
0.000224749
0.000221649
8.91418e-05
0.00010479
0.000111019
0.000128334
0.000145739
0.00015867
0.000178966
0.000187299
0.000205274
0.000204942
9.71906e-05
0.000108311
0.0001125
0.00012645
0.000139706
0.000150528
0.000166985
0.000174394
0.000190209
0.000190624
0.000102702
0.000110952
0.000113284
0.000124781
0.000134658
0.000143781
0.000156887
0.000163298
0.000176539
0.000177928
0.000106335
0.000112674
0.00011346
0.000123115
0.000130096
0.000137937
0.00014805
0.000153622
0.000164355
0.000166455
0.000108229
0.00011315
0.00011283
0.000121026
0.000125666
0.000132488
0.000140054
0.000144939
0.000153445
0.000155927
0.000108329
0.000112062
0.000111055
0.00011805
0.000120917
0.0001269
0.000132412
0.000136758
0.00014341
0.000146055
0.000106444
0.000109093
0.0001077
0.000113715
0.000115318
0.000120656
0.000124597
0.000128608
0.000133801
0.000136609
0.000102171
0.000103987
0.000102193
0.000107699
0.000108324
0.000113552
0.0001161
0.000120385
0.000124256
0.000127849
9.4651e-05
9.65178e-05
9.45236e-05
0.00010119
9.96972e-05
0.000106668
0.000106982
0.000113592
0.000115023
0.000121609
0.000230686
0.000220786
0.000218244
0.000212175
0.000206516
0.000200633
0.000194233
0.000191098
0.000182788
0.000180692
0.000171924
0.000170758
0.000161739
0.000161406
0.000152241
0.000152753
0.000143531
0.000145193
0.000136292
0.000140167
0.000216825
0.000207736
0.000210978
0.000203174
0.000201997
0.000195555
0.000191728
0.000187155
0.000181456
0.000178266
0.000171511
0.000169512
0.000162158
0.000161179
0.00015359
0.000153555
0.00014615
0.000147208
0.000140653
0.000143387
0.000201241
0.000194996
0.000199429
0.000193
0.000193484
0.000187987
0.000185885
0.00018148
0.000177573
0.000174271
0.000169218
0.000166953
0.000161242
0.000159923
0.000153998
0.000153567
0.000147956
0.000148452
0.000143889
0.000145594
0.000187019
0.000182814
0.000187391
0.000182542
0.000183955
0.000179451
0.000178621
0.000174745
0.00017231
0.000169232
0.000165722
0.000163481
0.000159338
0.00015791
0.000153569
0.000152913
0.000148893
0.000148978
0.000145975
0.000146875
0.000174103
0.000171373
0.000175663
0.000172203
0.00017412
0.000170607
0.000170732
0.000167525
0.00016632
0.000163655
0.000161517
0.000159494
0.00015678
0.000155421
0.000152501
0.000151776
0.000149092
0.000148935
0.000147051
0.000147414
0.000162294
0.000160657
0.00016455
0.000162228
0.000164456
0.000161863
0.000162758
0.000160259
0.000160112
0.000157958
0.00015703
0.000155347
0.000153895
0.000152727
0.000151032
0.000150364
0.000148754
0.000148513
0.000147367
0.000147462
0.000151361
0.000150592
0.000154164
0.000152786
0.000155293
0.000153557
0.000155135
0.000153365
0.000154138
0.000152559
0.00015267
0.000151407
0.000151022
0.000150128
0.000149438
0.000148914
0.000148129
0.000147924
0.000147236
0.000147286
0.000141106
0.000141184
0.000144609
0.000144144
0.000146986
0.00014615
0.000148337
0.000147366
0.000148897
0.000147967
0.000148898
0.000148119
0.000148549
0.000147979
0.000148033
0.000147696
0.000147497
0.000147388
0.000146987
0.000147116
0.000131518
0.000132902
0.000136241
0.000137101
0.000140128
0.000140505
0.000143037
0.000143075
0.000145045
0.00014488
0.000146291
0.000146036
0.000146944
0.000146688
0.000147178
0.000146992
0.000147136
0.000147091
0.000146889
0.000147084
0.000123406
0.000127727
0.000130128
0.00013341
0.000135819
0.000138057
0.000140267
0.000141601
0.000143471
0.000144093
0.000145559
0.000145681
0.000146738
0.000146562
0.000147246
0.000146942
0.000147298
0.000147015
0.00014721
0.000146976
0.000157277
0.000164168
0.000152609
0.000158209
0.000149103
0.000153595
0.000146045
0.000149663
0.000142939
0.000145873
0.000139443
0.000141817
0.000135247
0.000137123
0.000129982
0.000131394
0.000123087
0.000124226
0.000113491
0.00011546
0.000171076
0.000183099
0.000163165
0.000173262
0.000156713
0.000165271
0.000151376
0.000158594
0.000146551
0.000152696
0.000141764
0.00014708
0.000136576
0.000141274
0.000130492
0.000134805
0.000122853
0.000127291
0.000113532
0.000119679
0.000196406
0.000205627
0.000184157
0.000192283
0.000173559
0.000180861
0.00016466
0.000171073
0.000156927
0.000162534
0.000149852
0.000154799
0.000142933
0.000147395
0.000135646
0.000139864
0.000127437
0.000131981
0.000117945
0.000124612
0.000219374
0.000224411
0.000204305
0.000209919
0.000190791
0.000196524
0.000178977
0.000184276
0.000168593
0.000173264
0.000159245
0.000163359
0.00015053
0.000154246
0.000141989
0.000145567
0.000133161
0.000137217
0.00012401
0.000130352
0.000234133
0.00022629
0.000219589
0.000213807
0.000205564
0.000202163
0.00019194
0.000190863
0.000179505
0.000179926
0.000168187
0.00016958
0.000157865
0.000159852
0.000148225
0.000150693
0.000139002
0.000142343
0.000130389
0.00013624
)
;

boundaryField
{
    back
    {
        type            empty;
    }
    front
    {
        type            empty;
    }
    left
    {
        type            symmetry;
    }
    hole
    {
        type            calculated;
        value           nonuniform List<scalar> 10(0.000420694 0.000383152 0.00033673 0.000276544 0.000204309 0.000125766 4.81265e-05 2.20639e-05 7.78307e-05 0.000117091);
    }
    down
    {
        type            symmetry;
    }
    right
    {
        type            calculated;
        value           nonuniform List<scalar> 
15
(
9.63631e-05
0.000100458
0.000106375
0.000113695
0.000121861
0.000128213
0.000133883
0.000138485
0.000141957
0.000144366
0.000145872
0.000146682
0.000147008
0.000147036
0.000147
)
;
    }
    up
    {
        type            calculated;
        value           nonuniform List<scalar> 
15
(
0.000140323
0.000143523
0.000145697
0.000146936
0.000147435
0.000147453
0.000147261
0.000147091
0.000147058
0.000147006
0.000115348
0.000119201
0.000124367
0.000130313
0.000136298
)
;
    }
}


// ************************************************************************* //
