/*--------------------------------*- C++ -*----------------------------------*\
| =========                 |                                                 |
| \\      /  F ield         | OpenFOAM: The Open Source CFD Toolbox           |
|  \\    /   O peration     | Version:  v2012                                 |
|   \\  /    A nd           | Website:  www.openfoam.com                      |
|    \\/     M anipulation  |                                                 |
\*---------------------------------------------------------------------------*/
FoamFile
{
    version     2.0;
    format      ascii;
    class       volScalarField;
    location    "1";
    object      sigmaHyd;
}
// * * * * * * * * * * * * * * * * * * * * * * * * * * * * * * * * * * * * * //

dimensions      [1 -1 -2 0 0 0 0];


internalField   nonuniform List<scalar> 
500
(
-1.75362e+07
-1.93571e+07
-1.4402e+07
-1.52704e+07
-1.25018e+07
-1.27478e+07
-1.09917e+07
-1.10429e+07
-9.85145e+06
-9.82186e+06
-1.54621e+07
-1.77251e+07
-1.33037e+07
-1.431e+07
-1.17212e+07
-1.21247e+07
-1.04348e+07
-1.06399e+07
-9.42257e+06
-9.54173e+06
-1.38079e+07
-1.48697e+07
-1.19245e+07
-1.24894e+07
-1.04634e+07
-1.09487e+07
-9.36361e+06
-9.86145e+06
-8.52043e+06
-9.01556e+06
-1.15007e+07
-1.11907e+07
-9.90106e+06
-1.01396e+07
-8.75607e+06
-9.38571e+06
-7.97212e+06
-8.77908e+06
-7.42493e+06
-8.23004e+06
-8.66448e+06
-7.05659e+06
-7.44236e+06
-7.47603e+06
-6.73628e+06
-7.62018e+06
-6.35509e+06
-7.61448e+06
-6.19917e+06
-7.52521e+06
-5.52665e+06
-2.84828e+06
-4.79519e+06
-4.64067e+06
-4.5926e+06
-5.5338e+06
-4.62485e+06
-5.82607e+06
-4.78212e+06
-5.67972e+06
-2.35531e+06
973589
-2.23179e+06
-2.06765e+06
-2.62378e+06
-3.7182e+06
-3.10187e+06
-4.58075e+06
-3.56534e+06
-5.01162e+06
564954
4.02212e+06
32758.9
49626.7
-916424
-2.19982e+06
-1.81383e+06
-3.49522e+06
-2.62356e+06
-4.27694e+06
2.95718e+06
5.8938e+06
1.72885e+06
1.48086e+06
304898
-1.09014e+06
-990627
-2.63598e+06
-1.9983e+06
-3.68237e+06
4.48277e+06
6.2555e+06
2.98132e+06
2.23083e+06
819484
-199757
-744826
-1.92737e+06
-1.82213e+06
-3.43176e+06
-2.52882e+06
-3.91129e+06
-3.19621e+06
-4.05618e+06
-4.04835e+06
-4.30195e+06
-5.05958e+06
-4.68068e+06
-6.01083e+06
-4.88651e+06
-3.60094e+06
-4.28191e+06
-3.86969e+06
-4.3863e+06
-4.42633e+06
-4.52755e+06
-5.10534e+06
-4.76954e+06
-5.84886e+06
-4.87514e+06
-4.41371e+06
-4.81481e+06
-4.49847e+06
-4.84717e+06
-4.86167e+06
-4.88902e+06
-5.31341e+06
-4.99409e+06
-5.8466e+06
-5.0145e+06
-5.05825e+06
-5.3353e+06
-5.05048e+06
-5.31502e+06
-5.2809e+06
-5.27842e+06
-5.56542e+06
-5.27696e+06
-5.91241e+06
-5.22693e+06
-5.6186e+06
-5.82374e+06
-5.56084e+06
-5.76695e+06
-5.69329e+06
-5.67166e+06
-5.85238e+06
-5.59018e+06
-6.05049e+06
-5.48094e+06
-6.13967e+06
-6.28907e+06
-6.05521e+06
-6.20383e+06
-6.11102e+06
-6.06207e+06
-6.17023e+06
-5.91746e+06
-6.24852e+06
-5.75623e+06
-6.65012e+06
-6.74577e+06
-6.55257e+06
-6.63405e+06
-6.54458e+06
-6.45032e+06
-6.51788e+06
-6.24988e+06
-6.49383e+06
-6.0387e+06
-7.17137e+06
-7.21141e+06
-7.07031e+06
-7.07021e+06
-7.00488e+06
-6.84216e+06
-6.8978e+06
-6.58407e+06
-6.77729e+06
-6.31893e+06
-7.71983e+06
-7.70859e+06
-7.62249e+06
-7.52689e+06
-7.49883e+06
-7.24926e+06
-7.31175e+06
-6.92161e+06
-7.08892e+06
-6.59513e+06
-8.29601e+06
-8.18921e+06
-8.16428e+06
-8.02519e+06
-7.99905e+06
-7.68805e+06
-7.72223e+06
-7.29678e+06
-7.38854e+06
-6.89892e+06
-6.42388e+06
-6.02871e+06
-6.43387e+06
-6.45685e+06
-6.43964e+06
-6.55599e+06
-6.33768e+06
-6.57306e+06
-6.20405e+06
-6.46763e+06
-6.03102e+06
-6.31218e+06
-5.8369e+06
-6.13064e+06
-5.62992e+06
-5.94074e+06
-5.4225e+06
-5.75498e+06
-5.25135e+06
-5.54555e+06
-6.24327e+06
-5.60467e+06
-6.28886e+06
-6.02434e+06
-6.27627e+06
-6.21829e+06
-6.20267e+06
-6.29755e+06
-6.10251e+06
-6.27383e+06
-5.97339e+06
-6.19229e+06
-5.82692e+06
-6.07906e+06
-5.67453e+06
-5.9529e+06
-5.53314e+06
-5.82335e+06
-5.43723e+06
-5.66854e+06
-6.12098e+06
-5.48109e+06
-6.22248e+06
-5.8196e+06
-6.21241e+06
-6.01402e+06
-6.15776e+06
-6.10931e+06
-6.07033e+06
-6.12582e+06
-5.96262e+06
-6.09097e+06
-5.84531e+06
-6.02575e+06
-5.73036e+06
-5.9455e+06
-5.63423e+06
-5.85866e+06
-5.58301e+06
-5.74972e+06
-6.10251e+06
-5.51301e+06
-6.20481e+06
-5.75206e+06
-6.19933e+06
-5.90902e+06
-6.14907e+06
-5.99468e+06
-6.06944e+06
-6.02348e+06
-5.97481e+06
-6.01249e+06
-5.87636e+06
-5.97643e+06
-5.78554e+06
-5.92646e+06
-5.71627e+06
-5.86897e+06
-5.68806e+06
-5.79333e+06
-6.16918e+06
-5.63087e+06
-6.24066e+06
-5.77425e+06
-6.22488e+06
-5.87669e+06
-6.16839e+06
-5.93545e+06
-6.08848e+06
-5.95799e+06
-5.99893e+06
-5.95403e+06
-5.91036e+06
-5.93255e+06
-5.83261e+06
-5.90041e+06
-5.77634e+06
-5.86123e+06
-5.75431e+06
-5.8082e+06
-6.29718e+06
-5.79683e+06
-6.31963e+06
-5.85091e+06
-6.27827e+06
-5.89234e+06
-6.20504e+06
-5.91432e+06
-6.11653e+06
-5.91923e+06
-6.02498e+06
-5.91124e+06
-5.93941e+06
-5.89434e+06
-5.86712e+06
-5.87133e+06
-5.81477e+06
-5.84305e+06
-5.78849e+06
-5.80535e+06
-6.46876e+06
-5.98549e+06
-6.42909e+06
-5.95568e+06
-6.34775e+06
-5.93485e+06
-6.24719e+06
-5.91594e+06
-6.14235e+06
-5.89755e+06
-6.04329e+06
-5.87949e+06
-5.95645e+06
-5.86156e+06
-5.88588e+06
-5.84289e+06
-5.83376e+06
-5.82184e+06
-5.80019e+06
-5.79593e+06
-6.67038e+06
-6.1786e+06
-6.55458e+06
-6.06852e+06
-6.41849e+06
-5.98776e+06
-6.28035e+06
-5.92783e+06
-6.15299e+06
-5.88463e+06
-6.04321e+06
-5.85458e+06
-5.95404e+06
-5.83379e+06
-5.88566e+06
-5.81814e+06
-5.83571e+06
-5.80384e+06
-5.7994e+06
-5.78908e+06
-6.88581e+06
-6.36256e+06
-6.67461e+06
-6.17951e+06
-6.46888e+06
-6.04174e+06
-6.28539e+06
-5.9419e+06
-6.13223e+06
-5.8746e+06
-6.01211e+06
-5.83318e+06
-5.92362e+06
-5.81028e+06
-5.86247e+06
-5.79865e+06
-5.82194e+06
-5.7924e+06
-5.79442e+06
-5.78776e+06
-7.06582e+06
-6.58637e+06
-6.74157e+06
-6.3318e+06
-6.46231e+06
-6.13083e+06
-6.2338e+06
-5.98384e+06
-6.05942e+06
-5.88537e+06
-5.9364e+06
-5.82666e+06
-5.85758e+06
-5.79763e+06
-5.81327e+06
-5.78837e+06
-5.7922e+06
-5.79132e+06
-5.78594e+06
-5.7925e+06
-8.98726e+06
-8.94789e+06
-8.30372e+06
-8.24064e+06
-7.7116e+06
-7.6391e+06
-7.18651e+06
-7.115e+06
-6.70756e+06
-6.64391e+06
-6.25612e+06
-6.20679e+06
-5.81614e+06
-5.78778e+06
-5.3732e+06
-5.37103e+06
-4.91519e+06
-4.9373e+06
-4.44137e+06
-4.52973e+06
-8.60238e+06
-8.79677e+06
-8.11624e+06
-8.17238e+06
-7.63106e+06
-7.62399e+06
-7.16962e+06
-7.13248e+06
-6.72881e+06
-6.68306e+06
-6.30066e+06
-6.26315e+06
-5.87476e+06
-5.86116e+06
-5.43892e+06
-5.46493e+06
-4.9823e+06
-5.06247e+06
-4.54072e+06
-4.63828e+06
-7.81412e+06
-8.491e+06
-7.58737e+06
-8.01031e+06
-7.27639e+06
-7.56086e+06
-6.93711e+06
-7.13587e+06
-6.58471e+06
-6.73251e+06
-6.2239e+06
-6.34761e+06
-5.85273e+06
-5.97657e+06
-5.46549e+06
-5.61295e+06
-5.05823e+06
-5.24676e+06
-4.65175e+06
-4.86991e+06
-6.95995e+06
-7.96345e+06
-6.98768e+06
-7.67469e+06
-6.85956e+06
-7.3817e+06
-6.65699e+06
-7.07167e+06
-6.40897e+06
-6.74595e+06
-6.13199e+06
-6.4168e+06
-5.8322e+06
-6.09115e+06
-5.51106e+06
-5.77153e+06
-5.16935e+06
-5.457e+06
-4.83593e+06
-5.12879e+06
-6.24134e+06
-7.54025e+06
-6.36027e+06
-7.37394e+06
-6.36772e+06
-7.19637e+06
-6.30739e+06
-6.99075e+06
-6.18519e+06
-6.73847e+06
-6.01183e+06
-6.46679e+06
-5.79869e+06
-6.18961e+06
-5.55636e+06
-5.9164e+06
-5.29568e+06
-5.65097e+06
-5.04948e+06
-5.37576e+06
)
;

boundaryField
{
    back
    {
        type            empty;
    }
    front
    {
        type            empty;
    }
    left
    {
        type            symmetry;
    }
    hole
    {
        type            zeroGradient;
    }
    down
    {
        type            symmetry;
    }
    right
    {
        type            zeroGradient;
    }
    up
    {
        type            zeroGradient;
    }
}


// ************************************************************************* //
