/*--------------------------------*- C++ -*----------------------------------*\
| =========                 |                                                 |
| \\      /  F ield         | OpenFOAM: The Open Source CFD Toolbox           |
|  \\    /   O peration     | Version:  v2012                                 |
|   \\  /    A nd           | Website:  www.openfoam.com                      |
|    \\/     M anipulation  |                                                 |
\*---------------------------------------------------------------------------*/
FoamFile
{
    version     2.0;
    format      ascii;
    class       volVectorField;
    location    "18";
    object      D;
}
// * * * * * * * * * * * * * * * * * * * * * * * * * * * * * * * * * * * * * //

dimensions      [0 1 0 0 0 0 0];


internalField   nonuniform List<vector> 
250
(
(0.000406019 -0.000245917 0)
(0.000382535 -0.000669349 0)
(0.000303237 -0.000857475 0)
(0.000236253 -0.00102357 0)
(0.000169199 -0.00105916 0)
(0.000854717 -0.000543945 0)
(0.000773144 -0.000720055 0)
(0.000617271 -0.000736214 0)
(0.0004989 -0.000798031 0)
(0.000364973 -0.000780168 0)
(0.000982149 -0.000576664 0)
(0.000902176 -0.000566229 0)
(0.000781839 -0.000521298 0)
(0.000701483 -0.000530519 0)
(0.00060234 -0.000505404 0)
(0.000938893 -0.000501527 0)
(0.000894401 -0.00047095 0)
(0.000828485 -0.000438353 0)
(0.000780894 -0.000427544 0)
(0.000720262 -0.000400504 0)
(0.00107541 -0.000389227 0)
(0.00102771 -0.000349726 0)
(0.000972851 -0.000307604 0)
(0.000935279 -0.000284947 0)
(0.000886615 -0.000252096 0)
(0.00107048 -0.000293693 0)
(0.00105434 -0.000259112 0)
(0.00102282 -0.000227479 0)
(0.00100832 -0.000202683 0)
(0.00097931 -0.000182878 0)
(0.00116543 -0.000233584 0)
(0.00114765 -0.000194197 0)
(0.00112531 -0.000156757 0)
(0.001111 -0.000134184 0)
(0.00108987 -0.000105028 0)
(0.00118871 -0.000137478 0)
(0.00119081 -0.000113353 0)
(0.00118174 -8.93481e-05 0)
(0.00118059 -7.40608e-05 0)
(0.00116872 -5.46069e-05 0)
(0.00123108 -9.9875e-05 0)
(0.00123673 -7.75495e-05 0)
(0.00123391 -5.82505e-05 0)
(0.00123573 -4.5777e-05 0)
(0.00122943 -3.05583e-05 0)
(0.00124299 -1.61919e-05 0)
(0.00125499 -1.34845e-05 0)
(0.00125649 -8.91106e-06 0)
(0.00126175 -7.31615e-06 0)
(0.00125895 -3.25578e-06 0)
(0.00126322 -1.02977e-06 0)
(0.00123632 -1.58673e-05 0)
(0.00118059 -2.95203e-05 0)
(0.00110089 -6.36367e-05 0)
(0.00100153 -0.00011126 0)
(0.00125724 3.80211e-06 0)
(0.00123452 -5.26594e-06 0)
(0.00118626 -3.63627e-06 0)
(0.00112562 -2.79941e-05 0)
(0.00104594 -3.90883e-05 0)
(0.00126958 3.80168e-06 0)
(0.00124914 -1.29452e-06 0)
(0.00121064 2.32368e-06 0)
(0.00114849 -1.58982e-05 0)
(0.00108045 -2.11989e-05 0)
(0.00127523 6.13819e-06 0)
(0.00125887 6.45803e-07 0)
(0.00122875 1.14776e-05 0)
(0.00118322 -1.52497e-06 0)
(0.00113287 2.45302e-06 0)
(0.0012958 3.24426e-06 0)
(0.00127971 -3.06608e-06 0)
(0.00125385 1.87732e-06 0)
(0.00120805 -9.24206e-06 0)
(0.00116377 -8.3425e-06 0)
(0.00131634 4.26271e-06 0)
(0.00130391 -1.65617e-06 0)
(0.00128404 5.05118e-06 0)
(0.00124973 -4.37897e-06 0)
(0.00121555 -3.73686e-06 0)
(0.0013438 1.59502e-06 0)
(0.00133172 -5.70383e-06 0)
(0.00131389 -3.91691e-06 0)
(0.0012813 -1.32299e-05 0)
(0.00125164 -1.52007e-05 0)
(0.00137548 2.45158e-06 0)
(0.00136585 -3.71238e-06 0)
(0.00135156 -1.02234e-06 0)
(0.0013256 -9.99151e-06 0)
(0.00130155 -1.28758e-05 0)
(0.00140832 2.12255e-06 0)
(0.00139945 -3.51978e-06 0)
(0.00138692 -1.29954e-06 0)
(0.00136344 -9.55499e-06 0)
(0.00134297 -1.24302e-05 0)
(0.00144367 4.07884e-06 0)
(0.00143624 1.38832e-06 0)
(0.00142588 6.69425e-06 0)
(0.00140607 5.54616e-07 0)
(0.00138912 -1.2086e-06 0)
(0.000892683 -0.000164964 0)
(0.000844165 -0.000170698 0)
(0.000789006 -0.000186932 0)
(0.000737581 -0.000195764 0)
(0.000685431 -0.000212756 0)
(0.000635057 -0.000225275 0)
(0.000587017 -0.000243025 0)
(0.00054036 -0.000259204 0)
(0.000497705 -0.000277977 0)
(0.000456914 -0.000298522 0)
(0.000985247 -7.20985e-05 0)
(0.000945745 -7.86791e-05 0)
(0.000910079 -9.2597e-05 0)
(0.000870022 -0.000102081 0)
(0.00083279 -0.000117333 0)
(0.000793725 -0.000129885 0)
(0.000757701 -0.000146591 0)
(0.00072175 -0.000162466 0)
(0.000689841 -0.000180717 0)
(0.000659787 -0.000200237 0)
(0.001015 -4.4596e-05 0)
(0.000980722 -4.86354e-05 0)
(0.000945207 -6.05635e-05 0)
(0.000911689 -6.67237e-05 0)
(0.000878583 -7.96695e-05 0)
(0.000847475 -8.87249e-05 0)
(0.000818717 -0.000102723 0)
(0.000792076 -0.000115117 0)
(0.000769535 -0.000130275 0)
(0.000749707 -0.000146179 0)
(0.00108631 -1.40988e-05 0)
(0.00106122 -1.75982e-05 0)
(0.00103735 -2.82893e-05 0)
(0.00101217 -3.46825e-05 0)
(0.000989729 -4.67584e-05 0)
(0.000966324 -5.60716e-05 0)
(0.000946884 -6.93675e-05 0)
(0.000927404 -8.15093e-05 0)
(0.000912812 -9.58532e-05 0)
(0.000899772 -0.000110625 0)
(0.00112099 -1.94767e-05 0)
(0.00110039 -2.3229e-05 0)
(0.00107831 -3.15451e-05 0)
(0.00105808 -3.71614e-05 0)
(0.00103838 -4.67577e-05 0)
(0.00102022 -5.44315e-05 0)
(0.0010044 -6.51358e-05 0)
(0.000990163 -7.49048e-05 0)
(0.000979721 -8.64635e-05 0)
(0.000971452 -9.81475e-05 0)
(0.00118273 -1.37133e-05 0)
(0.00116787 -1.74134e-05 0)
(0.00115182 -2.52128e-05 0)
(0.0011369 -3.08919e-05 0)
(0.00112285 -3.99777e-05 0)
(0.00110934 -4.75829e-05 0)
(0.00109832 -5.77259e-05 0)
(0.00108787 -6.70741e-05 0)
(0.00108091 -7.79095e-05 0)
(0.0010753 -8.86731e-05 0)
(0.00122248 -2.38383e-05 0)
(0.00121031 -2.76551e-05 0)
(0.0011955 -3.4245e-05 0)
(0.00118359 -3.94451e-05 0)
(0.00117077 -4.69967e-05 0)
(0.00116022 -5.35406e-05 0)
(0.00115044 -6.18933e-05 0)
(0.00114241 -6.96546e-05 0)
(0.00113665 -7.84687e-05 0)
(0.00113256 -8.70944e-05 0)
(0.0012779 -2.18399e-05 0)
(0.00126825 -2.55462e-05 0)
(0.00125639 -3.19536e-05 0)
(0.00124673 -3.7036e-05 0)
(0.00123659 -4.43411e-05 0)
(0.00122782 -5.07128e-05 0)
(0.00122013 -5.87497e-05 0)
(0.00121309 -6.61617e-05 0)
(0.00120802 -7.45556e-05 0)
(0.0012039 -8.26544e-05 0)
(0.00132214 -2.09773e-05 0)
(0.00131363 -2.4134e-05 0)
(0.00130192 -2.97993e-05 0)
(0.00129418 -3.43347e-05 0)
(0.00128403 -4.08054e-05 0)
(0.00127706 -4.62503e-05 0)
(0.00126889 -5.33991e-05 0)
(0.00126258 -6.00008e-05 0)
(0.00125739 -6.70701e-05 0)
(0.00125298 -7.40496e-05 0)
(0.00137066 -8.95348e-06 0)
(0.00136329 -1.20668e-05 0)
(0.00135277 -1.75628e-05 0)
(0.00134547 -2.21631e-05 0)
(0.0013363 -2.84073e-05 0)
(0.00132956 -3.42267e-05 0)
(0.00132202 -4.10426e-05 0)
(0.00131646 -4.77411e-05 0)
(0.00131115 -5.49417e-05 0)
(0.00130687 -6.20708e-05 0)
(0.000132416 -0.00109113 0)
(0.000107968 -0.00109106 0)
(9.06694e-05 -0.00110437 0)
(7.84876e-05 -0.00110353 0)
(6.66141e-05 -0.00111385 0)
(5.75049e-05 -0.00111325 0)
(4.66062e-05 -0.00112145 0)
(3.67587e-05 -0.0011212 0)
(2.32894e-05 -0.00112649 0)
(8.9774e-06 -0.00112504 0)
(0.000300267 -0.0008127 0)
(0.000250486 -0.000826512 0)
(0.000211598 -0.000859678 0)
(0.000175314 -0.000870713 0)
(0.000141171 -0.000895341 0)
(0.000112371 -0.000905189 0)
(8.07514e-05 -0.000924521 0)
(5.12715e-05 -0.00093323 0)
(1.46544e-05 -0.000947391 0)
(-2.39695e-05 -0.000955124 0)
(0.000553172 -0.000535614 0)
(0.000498633 -0.000556542 0)
(0.000449035 -0.000595154 0)
(0.000397125 -0.00061258 0)
(0.000349288 -0.000643292 0)
(0.000305058 -0.000659559 0)
(0.00026132 -0.00068497 0)
(0.000219161 -0.000700181 0)
(0.000173011 -0.000720275 0)
(0.000125077 -0.000735511 0)
(0.000673723 -0.000406215 0)
(0.000616923 -0.000416582 0)
(0.000559282 -0.000441418 0)
(0.000503264 -0.000455617 0)
(0.000446998 -0.000481753 0)
(0.000395746 -0.000498644 0)
(0.000342909 -0.000523297 0)
(0.000293468 -0.000541052 0)
(0.000240552 -0.000562737 0)
(0.000187297 -0.000581762 0)
(0.000851607 -0.000255194 0)
(0.000800994 -0.000257658 0)
(0.000747883 -0.000279981 0)
(0.000694533 -0.000286985 0)
(0.000638285 -0.00030961 0)
(0.000583749 -0.000321713 0)
(0.000528318 -0.000344069 0)
(0.00047409 -0.000360704 0)
(0.000419526 -0.000382386 0)
(0.000364661 -0.00040397 0)
)
;

boundaryField
{
    back
    {
        type            empty;
    }
    left
    {
        type            symmetry;
    }
    hole
    {
        type            calculated;
        value           nonuniform List<vector> 10((0.000392111 -3.23595e-05 -2.39309e-21) (0.000851419 -0.000433843 1.55376e-20) (0.000996721 -0.000570313 -3.72563e-21) (0.000965728 -0.000519401 5.40632e-21) (0.00110251 -0.000415418 -9.18495e-23) (0.00108448 -0.000316186 2.0158e-21) (0.00117612 -0.000260087 8.15243e-22) (0.0011893 -0.000155934 -2.55637e-21) (0.00122723 -0.000113685 -4.06359e-21) (0.00123567 -2.00196e-05 1.04132e-21));
    }
    front
    {
        type            empty;
    }
    down
    {
        type            symmetry;
    }
    right
    {
        type            calculated;
        value           nonuniform List<vector> 
15
(
(0.0014608 6.19412e-06 1.78108e-21)
(0.00145396 6.48633e-06 2.97016e-21)
(0.0014445 1.56093e-05 1.00224e-21)
(0.00142636 1.17967e-05 1.85654e-21)
(0.00141107 1.25768e-05 -5.08537e-22)
(0.0013941 5.44859e-06 -4.63644e-21)
(0.00138702 1.92324e-06 3.2133e-21)
(0.001377 -3.62523e-06 2.05913e-21)
(0.00136996 -9.27271e-06 -7.21056e-22)
(0.00136118 -1.59567e-05 0)
(0.00135464 -2.30556e-05 2.42345e-21)
(0.00134739 -3.07963e-05 1.51379e-21)
(0.00134197 -3.92428e-05 -2.45877e-21)
(0.0013368 -4.7439e-05 -1.2401e-21)
(0.00133252 -5.56086e-05 0)
)
;
    }
    up
    {
        type            calculated;
        value           nonuniform List<vector> 
15
(
(0.0004392 -0.000309134 1.38564e-21)
(0.000647615 -0.000210262 -1.46153e-21)
(0.000742548 -0.000154396 -8.56367e-22)
(0.000895934 -0.000118218 -1.10647e-21)
(0.000969699 -0.000104158 -9.58313e-22)
(0.00107441 -9.41895e-05 -7.21659e-22)
(0.00113208 -9.14977e-05 -6.89265e-22)
(0.00120286 -8.67775e-05 1.05978e-21)
(0.00125133 -7.75755e-05 5.18239e-22)
(0.00130488 -6.56727e-05 0)
(-1.13656e-06 -0.00112464 -1.19752e-21)
(-4.88379e-05 -0.000958157 -1.6052e-21)
(9.8068e-05 -0.000741837 -3.04251e-23)
(0.000159131 -0.000590223 1.88375e-21)
(0.000337631 -0.000414878 2.88841e-22)
)
;
    }
}


// ************************************************************************* //
