/*--------------------------------*- C++ -*----------------------------------*\
| =========                 |                                                 |
| \\      /  F ield         | OpenFOAM: The Open Source CFD Toolbox           |
|  \\    /   O peration     | Version:  v2012                                 |
|   \\  /    A nd           | Website:  www.openfoam.com                      |
|    \\/     M anipulation  |                                                 |
\*---------------------------------------------------------------------------*/
FoamFile
{
    version     2.0;
    format      ascii;
    class       volSymmTensorField;
    location    "18";
    object      epsilon;
}
// * * * * * * * * * * * * * * * * * * * * * * * * * * * * * * * * * * * * * //

dimensions      [0 0 0 0 0 0 0];


internalField   nonuniform List<symmTensor> 
250
(
(0.00768619 -0.00142773 6.47952e-19 -0.00810638 -7.48428e-20 -6.22255e-37)
(0.00635226 -0.00106217 3.10188e-19 -0.00603809 4.30892e-19 0)
(0.0045996 -0.000684979 2.47718e-19 -0.00361936 -1.85499e-19 0)
(0.00338065 -0.000313165 -2.63112e-19 -0.00217249 -4.37651e-19 0)
(0.0022673 -5.01645e-05 3.08425e-20 -0.000955335 2.30503e-20 0)
(0.00327927 -0.00215374 -1.49805e-19 -0.00346094 1.65331e-19 3.44894e-35)
(0.0022891 -0.00138937 2.61542e-19 -0.00208544 1.55785e-19 0)
(0.00176131 -0.000844607 3.47038e-19 -0.00119496 2.43765e-19 0)
(0.00156543 -0.000385412 -2.52427e-19 -0.000987832 -1.09417e-19 0)
(0.00134283 -7.33748e-05 -2.67926e-21 -0.000721596 -5.43648e-20 0)
(9.0778e-05 -0.000455705 -1.30721e-19 -0.00016531 1.40843e-20 1.79512e-35)
(-0.000117771 -0.000273233 -5.08356e-19 2.49876e-06 2.12529e-19 0)
(0.000252363 -0.000326579 1.58081e-19 -0.000206709 2.89434e-20 0)
(0.000569153 -0.000207731 3.0035e-19 -0.000470563 2.53577e-20 0)
(0.000858547 -0.000174227 -3.4645e-19 -0.00061522 -1.19028e-19 0)
(-6.64475e-05 5.55545e-05 -6.76552e-20 -5.34266e-05 1.04122e-19 -1.7654e-35)
(-1.09786e-05 -2.32255e-06 -8.80027e-20 -0.000102597 4.68561e-20 0)
(0.000223074 -0.000179924 -3.1367e-20 -0.000219531 -3.98895e-20 0)
(0.00036795 -0.000170118 1.81965e-19 -0.000299764 -9.56054e-21 0)
(0.000494395 -0.000214984 2.37209e-21 -0.000332255 -7.32878e-20 0)
(-4.04191e-07 0.000161231 7.08566e-21 -0.000127065 -5.64415e-21 -2.49121e-38)
(4.32596e-05 5.66928e-05 -9.93292e-20 -0.000137377 9.76773e-21 0)
(0.000183279 -3.23359e-05 -7.53827e-20 -0.000195461 -7.27406e-20 0)
(0.000281941 -7.33325e-05 8.23972e-20 -0.000255402 -1.16643e-19 0)
(0.000376805 -0.000104781 3.94348e-20 -0.000284738 3.89927e-20 0)
(-1.05892e-05 0.000248111 1.30109e-20 -0.000200527 1.89105e-20 8.08817e-37)
(5.05572e-05 0.000118905 -1.92935e-20 -0.000222795 -1.09323e-19 0)
(0.000142681 1.35335e-05 -2.36273e-20 -0.000220102 -3.20785e-20 0)
(0.000203536 -5.81589e-05 -3.34969e-20 -0.000252056 8.49394e-20 0)
(0.000265418 -0.000119687 -9.36936e-21 -0.000220087 2.70275e-20 0)
(7.57993e-05 0.000231191 9.3736e-20 -0.000344604 -1.42141e-19 6.35996e-36)
(7.46149e-05 0.000112909 -2.97869e-20 -0.000295682 -1.1993e-19 0)
(0.000129678 2.70325e-06 -7.44767e-20 -0.000290375 1.28682e-19 0)
(0.000136372 -5.69965e-05 5.35509e-20 -0.000249466 3.99882e-20 0)
(0.000168088 -0.000118203 -4.22957e-21 -0.000220986 -7.27107e-20 0)
(0.000153581 0.000262426 2.31203e-20 -0.000512468 -1.22182e-19 -2.09687e-35)
(0.000124607 0.000112371 4.84258e-20 -0.00040931 -2.26733e-20 0)
(0.00012043 7.97676e-06 -2.7377e-20 -0.000311075 1.10949e-19 0)
(0.000111588 -5.15441e-05 -2.90194e-20 -0.000250674 1.39795e-20 0)
(0.000110582 -0.000115672 1.77775e-20 -0.000172764 -5.79114e-20 0)
(0.00021964 0.00017187 -1.22874e-20 -0.000609501 -1.13941e-19 -1.00767e-35)
(0.000122551 9.16927e-05 2.49327e-20 -0.000447048 1.71384e-20 0)
(9.12402e-05 1.25716e-05 1.35556e-20 -0.000328721 1.5443e-20 0)
(5.69678e-05 -2.18624e-05 -3.77619e-20 -0.000244521 -3.18262e-20 0)
(4.65462e-05 -7.08429e-05 1.06354e-20 -0.000162755 -1.38077e-20 0)
(0.000273956 6.51567e-05 1.56801e-20 -0.000696165 -7.37481e-20 -5.32346e-36)
(0.000150118 1.89671e-05 1.98606e-20 -0.000498748 1.23564e-20 0)
(8.52666e-05 -4.27298e-06 -5.32161e-21 -0.000337465 -5.15958e-21 0)
(4.36933e-05 -1.78643e-05 -1.75873e-21 -0.000246174 -3.88098e-21 0)
(1.29756e-05 -3.17351e-05 3.56176e-21 -0.000143458 7.31674e-21 0)
(1.02033e-05 -3.86751e-05 3.05063e-21 -6.97817e-05 4.35445e-22 0)
(5.05284e-05 -0.000110656 7.27785e-22 -9.49337e-05 -3.07793e-21 0)
(0.000122784 -0.000158705 -1.98805e-20 -0.000116259 -1.49409e-20 0)
(0.000209716 -0.000191983 -2.08162e-20 -0.000173989 -1.466e-20 0)
(0.000359886 -0.000222836 -9.1253e-20 -0.000231643 -6.34334e-20 0)
(3.14528e-05 -3.60386e-05 8.81689e-22 -4.43399e-06 6.64667e-22 0)
(5.44527e-05 -0.000124349 1.39696e-20 -2.26136e-05 5.48703e-21 0)
(0.000111613 -0.000167806 9.6163e-23 -5.75858e-05 -4.42341e-22 0)
(0.00017348 -0.00021734 -9.64793e-21 -9.12199e-05 4.08312e-21 0)
(0.000269011 -0.000203551 2.7843e-20 -0.00014536 4.48742e-21 0)
(7.64479e-05 -3.60315e-05 -2.83033e-21 1.19049e-05 3.12219e-22 0)
(9.74152e-05 -0.00011201 8.21198e-21 -3.14566e-06 3.19394e-22 0)
(0.00016236 -0.000176088 -5.39317e-22 -4.67437e-05 -3.88867e-22 0)
(0.000205768 -0.000228159 1.1151e-20 -7.58449e-05 5.24164e-21 0)
(0.000292827 -0.000274291 2.67213e-20 -0.000137217 1.00803e-20 0)
(0.000107721 -3.22419e-05 -5.97412e-21 3.0243e-05 -1.05558e-22 0)
(0.000120857 -0.000100002 3.15192e-21 2.19644e-05 -4.37042e-22 0)
(0.000163791 -0.000151499 -1.74253e-20 -8.06483e-06 -4.58429e-22 0)
(0.00021434 -0.000183404 -4.07881e-20 -3.76681e-05 -3.9342e-21 0)
(0.000284291 -0.000217322 8.20669e-20 -8.65472e-05 1.40535e-20 0)
(0.000166463 -3.45848e-05 -4.89307e-21 6.15875e-07 6.5247e-23 0)
(0.000176609 -8.86631e-05 -1.12181e-20 -7.84787e-06 -4.20389e-22 0)
(0.000210597 -0.000153532 -2.19189e-20 -3.34807e-05 2.761e-22 0)
(0.000238509 -0.000187304 -2.41811e-20 -5.45577e-05 1.27453e-21 0)
(0.000282864 -0.000226457 9.314e-21 -8.39454e-05 2.85625e-21 0)
(0.000192889 -2.64617e-05 1.06801e-20 1.1595e-05 -2.29333e-22 0)
(0.000203771 -6.84721e-05 1.4524e-20 2.20575e-06 -3.81659e-22 0)
(0.00022826 -0.000114869 8.56525e-21 -1.64106e-05 1.39901e-21 0)
(0.000264887 -0.000139095 -4.22558e-20 -4.7031e-05 -5.28499e-21 0)
(0.000302901 -0.000170615 -3.095e-20 -7.429e-05 -6.85895e-21 0)
(0.000236892 -2.69966e-05 0 -1.88917e-05 0 0)
(0.000242465 -6.28649e-05 1.12209e-20 -2.60924e-05 5.37663e-22 0)
(0.000256526 -0.000110419 1.23473e-20 -3.86133e-05 -2.79231e-21 0)
(0.000274421 -0.000132755 -4.42182e-21 -5.87366e-05 -4.58894e-21 0)
(0.000297147 -0.000158164 2.27213e-20 -7.62211e-05 2.41178e-21 0)
(0.000257799 -1.78491e-05 1.26836e-20 -5.76226e-06 -1.25896e-23 0)
(0.000265227 -4.32214e-05 1.48885e-20 -1.55056e-05 4.33426e-22 0)
(0.000277352 -7.4628e-05 2.06977e-20 -2.85243e-05 1.53121e-21 0)
(0.000298358 -9.17965e-05 -2.3688e-20 -5.47582e-05 -4.03811e-21 0)
(0.000316749 -0.000110516 -1.1535e-21 -7.35356e-05 1.77251e-21 0)
(0.000272055 -1.53659e-05 -1.4637e-27 -6.42277e-06 -3.82724e-29 0)
(0.000275546 -3.49524e-05 -1.17394e-20 -1.51351e-05 -5.45694e-22 0)
(0.000281946 -6.09945e-05 1.09875e-20 -2.66547e-05 1.85058e-21 0)
(0.00029246 -7.29552e-05 -8.19444e-22 -4.95282e-05 7.27453e-22 0)
(0.000304177 -8.52653e-05 3.40326e-21 -6.74449e-05 2.27659e-21 0)
(0.000277234 -4.3823e-06 -7.08552e-21 2.5722e-05 -2.15477e-21 -1.56572e-36)
(0.000283091 -1.03949e-05 -1.16483e-20 1.31671e-05 -4.62621e-21 -3.82234e-36)
(0.000290024 -1.86677e-05 -3.82414e-21 -1.69033e-06 -2.4837e-21 -4.01555e-37)
(0.000304222 -2.28958e-05 -6.81528e-21 -3.36326e-05 -4.07299e-21 -6.97639e-37)
(0.000314232 -2.87964e-05 1.78033e-21 -5.53837e-05 2.02607e-21 -1.71425e-37)
(0.00038997 -0.000216405 -5.17274e-20 -0.000251176 -3.6616e-20 0)
(0.000397216 -0.000207532 -9.37706e-21 -0.000236976 -1.53319e-20 0)
(0.000467063 -0.000206447 1.39421e-19 -0.000271312 7.97501e-21 0)
(0.000530827 -0.000196909 1.15812e-19 -0.000278344 5.38927e-22 0)
(0.000613057 -0.000179602 -8.59145e-20 -0.000318395 -2.81144e-20 0)
(0.000684854 -0.000160539 4.63785e-20 -0.000325714 4.18139e-20 0)
(0.000770729 -0.000132532 -5.48692e-21 -0.000364729 3.28945e-20 0)
(0.000852351 -0.000104295 3.17256e-20 -0.000374728 2.52774e-20 0)
(0.000950028 -6.84863e-05 5.97408e-20 -0.000420419 2.72652e-20 0)
(0.0010544 -2.7296e-05 -5.48168e-20 -0.000445317 -1.47521e-20 4.33508e-36)
(0.000400373 -0.000174794 -2.69821e-20 -0.000202846 -8.43722e-21 0)
(0.000464585 -0.000192471 -7.56964e-35 -0.000218222 -1.71815e-34 0)
(0.000531414 -0.000188107 3.4459e-20 -0.000249134 -1.89477e-21 0)
(0.000592337 -0.000191898 -6.07808e-20 -0.00026333 -1.94521e-20 0)
(0.000657126 -0.000179728 -2.89739e-20 -0.00029599 -4.87446e-22 0)
(0.000722673 -0.000167409 -3.41202e-20 -0.000311479 -2.19337e-20 0)
(0.00078827 -0.000144456 1.86087e-20 -0.00034685 1.12682e-20 0)
(0.000856366 -0.000116109 -4.04325e-20 -0.000363299 -2.31444e-20 0)
(0.000924799 -7.85719e-05 9.23912e-20 -0.000402103 5.34283e-20 0)
(0.000996119 -3.04029e-05 4.27778e-20 -0.000421258 1.55591e-20 4.5974e-36)
(0.000349879 -0.00027342 -9.45138e-20 -0.000160745 -2.24185e-20 0)
(0.000392855 -0.000267611 4.56132e-20 -0.000169987 7.65126e-21 0)
(0.000432981 -0.000258067 1.18798e-19 -0.000192564 3.36142e-20 0)
(0.000483621 -0.000239981 -1.04786e-19 -0.000203399 -3.00501e-20 0)
(0.000533927 -0.00022175 5.04977e-20 -0.000234219 1.73018e-20 0)
(0.000587201 -0.000193102 3.32171e-20 -0.000245419 1.22008e-20 0)
(0.000643624 -0.000163523 -4.35662e-20 -0.000280965 -2.07549e-20 0)
(0.000699662 -0.000124078 -5.51937e-20 -0.00029332 -2.81695e-20 0)
(0.000758574 -8.11626e-05 -5.12261e-20 -0.000330677 -3.12428e-20 0)
(0.000816459 -2.93211e-05 7.57851e-21 -0.00034426 9.11669e-21 2.6938e-36)
(0.000360442 -0.000218723 8.65374e-20 -0.00013389 2.19732e-20 0)
(0.000407114 -0.000217393 -3.85027e-20 -0.000151069 -1.11595e-20 0)
(0.000452834 -0.000211695 1.069e-20 -0.000181875 2.33058e-21 0)
(0.000498044 -0.00020318 1.17573e-20 -0.000196618 2.37426e-21 0)
(0.000543653 -0.000188072 -2.09205e-29 -0.000227703 -1.43096e-29 0)
(0.000587703 -0.000169725 1.38739e-20 -0.000240691 2.75424e-21 0)
(0.000631718 -0.000143226 1.4913e-20 -0.000270805 3.01875e-21 0)
(0.000673918 -0.000112958 5.86127e-20 -0.00028196 2.72876e-20 0)
(0.000715081 -7.25571e-05 2.17301e-20 -0.000309961 2.28968e-20 0)
(0.000754404 -2.85566e-05 1.62899e-20 -0.000318917 1.17792e-20 3.48051e-36)
(0.000332413 -0.000230924 -1.8904e-20 -0.00011533 -8.21147e-21 0)
(0.000362838 -0.000226881 8.56552e-21 -0.000128477 1.48426e-23 0)
(0.00038946 -0.000219958 3.32697e-20 -0.000148322 1.09565e-20 0)
(0.000424335 -0.000206089 -1.13657e-20 -0.00016195 -1.13543e-20 0)
(0.000452894 -0.000189989 4.04644e-20 -0.000183853 1.41258e-20 0)
(0.000486573 -0.000166438 -1.14865e-20 -0.000195649 -6.81753e-22 0)
(0.000515199 -0.000140192 -3.51129e-20 -0.000217954 -3.12655e-20 0)
(0.000545915 -0.000106808 3.86622e-20 -0.00022705 3.47803e-21 0)
(0.000571904 -6.90719e-05 2.82151e-20 -0.000247436 1.97192e-20 0)
(0.000597159 -2.53431e-05 2.33582e-20 -0.000252348 1.0202e-20 3.01448e-36)
(0.000348407 -0.00017707 2.5329e-20 -0.000108856 8.0412e-21 0)
(0.000373979 -0.000172068 6.65197e-21 -0.000122421 9.75419e-21 0)
(0.000398681 -0.000169434 -3.37653e-20 -0.000143488 -1.03826e-20 0)
(0.000427005 -0.000158105 -2.27844e-20 -0.000157183 -1.16111e-20 0)
(0.00045042 -0.000147087 4.37454e-20 -0.000177689 3.94161e-20 0)
(0.000476294 -0.000129063 1.12439e-20 -0.000188943 7.15525e-23 0)
(0.000496842 -0.000108804 -9.10161e-20 -0.000207499 -6.18325e-20 0)
(0.000517972 -8.37119e-05 -1.07685e-20 -0.000214871 1.50292e-20 0)
(0.000533876 -5.33081e-05 4.44836e-21 -0.000229937 4.96722e-20 0)
(0.000548112 -2.04942e-05 -2.00729e-20 -0.000232039 7.68262e-21 2.27006e-36)
(0.000327371 -0.000161941 3.07336e-20 -0.000101702 1.25697e-20 0)
(0.000341496 -0.000157453 2.92799e-20 -0.000110788 7.53073e-21 0)
(0.000355752 -0.000153694 -2.10126e-20 -0.000125514 -9.27171e-21 0)
(0.000373659 -0.000142038 -1.76419e-20 -0.000135751 9.8691e-22 0)
(0.000386971 -0.000131829 1.95672e-29 -0.000150057 1.18005e-29 0)
(0.000403077 -0.000113571 1.90309e-20 -0.000158586 -5.02741e-22 0)
(0.000414421 -9.65281e-05 4.22052e-21 -0.000171546 1.27543e-20 0)
(0.00042603 -7.18677e-05 -2.01146e-20 -0.000176459 -1.46567e-22 0)
(0.000432446 -4.67334e-05 -2.46147e-21 -0.00018566 1.34453e-20 0)
(0.000437515 -1.6622e-05 2.46251e-20 -0.00018558 7.33776e-21 2.16816e-36)
(0.000341308 -0.000114492 4.62228e-22 -9.91518e-05 1.6925e-21 0)
(0.000351496 -0.00010852 8.29776e-21 -0.000107668 2.82794e-22 0)
(0.000362061 -0.000106958 5.09327e-20 -0.000122317 1.87852e-20 0)
(0.000376234 -9.66814e-05 -6.68628e-21 -0.000131875 -9.33114e-21 0)
(0.000385307 -9.01211e-05 -5.77451e-21 -0.000145601 -1.02583e-20 0)
(0.000397514 -7.52298e-05 3.17148e-20 -0.000153391 1.2502e-20 0)
(0.000403 -6.39594e-05 9.51361e-21 -0.000164465 6.82204e-22 0)
(0.000408816 -4.80196e-05 -1.30367e-22 -0.000168266 1.16545e-20 0)
(0.000410781 -2.95482e-05 2.46722e-21 -0.000175578 -1.20545e-20 0)
(0.000409668 -1.08694e-05 1.92448e-20 -0.000174004 -1.12822e-20 6.66731e-36)
(0.000316978 -8.62875e-05 -4.88629e-21 -8.89145e-05 -2.30756e-21 0)
(0.000322111 -8.03544e-05 -4.69515e-20 -9.65672e-05 -1.68235e-20 0)
(0.000327907 -7.90442e-05 -7.5537e-21 -0.000108595 -6.86612e-21 0)
(0.000335937 -6.99181e-05 2.19979e-20 -0.000117168 9.8497e-21 0)
(0.000339198 -6.40071e-05 -2.14682e-20 -0.00012685 -1.06501e-20 0)
(0.000346122 -5.25203e-05 -3.73596e-34 -0.000134069 -1.35059e-34 0)
(0.000354584 -4.19259e-05 5.1371e-20 -0.000143965 4.30058e-20 0)
(0.000351676 -2.99112e-05 8.30201e-21 -0.000145539 1.47943e-21 0)
(0.000350854 -1.77402e-05 -6.08542e-21 -0.00014956 -2.99935e-20 0)
(0.000350326 -5.97506e-06 -6.05573e-21 -0.000149372 -5.51706e-21 1.63018e-36)
(0.000325101 -2.84331e-05 1.57768e-20 -8.24204e-05 1.31092e-20 -1.46485e-36)
(0.00033043 -2.7069e-05 -1.09321e-20 -9.16526e-05 -9.98673e-21 -1.03229e-36)
(0.000337881 -2.66022e-05 -7.00542e-21 -0.000107483 -7.93974e-21 -5.87165e-50)
(0.000341083 -2.31501e-05 2.45313e-21 -0.000115448 5.48005e-21 2.31643e-37)
(0.000347167 -2.12687e-05 0 -0.000128426 0 0)
(0.000349255 -1.75526e-05 -8.24486e-21 -0.000134513 -5.52009e-21 -1.55709e-36)
(0.000353387 -1.38402e-05 -5.1501e-21 -0.000143871 -1.06277e-20 -1.43886e-50)
(0.000356859 -8.05781e-06 8.36504e-21 -0.000147966 -3.88116e-21 -2.36968e-36)
(0.000357434 -4.89396e-06 4.21896e-21 -0.000152551 2.17922e-21 -3.98388e-37)
(0.000357883 -1.60856e-06 0 -0.000152584 0 0)
(0.00178004 8.23084e-05 -5.59241e-20 -0.000533102 -3.20457e-20 0)
(0.00149992 0.00017736 6.07744e-20 -0.000312138 1.15309e-20 0)
(0.00128777 0.000256839 2.54707e-25 -0.000285804 1.39922e-25 0)
(0.00109551 0.000289155 -3.46525e-20 -0.000217828 -3.14028e-20 0)
(0.000906882 0.000290495 2.89127e-20 -0.000213296 3.00944e-20 0)
(0.000748773 0.000280705 -1.28245e-19 -0.000163615 -7.93311e-20 0)
(0.000565575 0.000250465 1.62009e-19 -0.000162782 1.48196e-20 0)
(0.000393114 0.000207517 1.49242e-19 -9.82726e-05 8.66921e-20 0)
(0.000168164 0.000144271 -6.79928e-20 -6.7767e-05 1.48584e-20 0)
(-7.42432e-05 5.78259e-05 8.72252e-20 4.97444e-05 2.34626e-20 1.27466e-35)
(0.0014036 0.000170468 2.05386e-19 -0.000803007 1.10871e-19 0)
(0.00139613 0.000320229 1.61095e-19 -0.000735537 4.0491e-20 0)
(0.00134604 0.000405339 9.90014e-20 -0.000692862 1.36536e-19 0)
(0.00122451 0.000433076 -2.97844e-19 -0.000539232 -2.83604e-19 0)
(0.00112138 0.000468748 -3.08497e-21 -0.000521833 -1.34768e-21 0)
(0.00100381 0.000471142 2.88283e-19 -0.000426692 1.38029e-19 0)
(0.000887389 0.000437448 5.43223e-20 -0.000408051 -1.21433e-19 0)
(0.000767181 0.000370176 -2.85759e-19 -0.000314363 -4.65016e-20 0)
(0.000644978 0.000262357 -1.99792e-19 -0.000297489 -1.12633e-19 0)
(0.000517544 0.000106532 1.55053e-20 -0.000201999 2.92555e-20 -1.55011e-37)
(0.00111967 -3.98697e-05 6.82996e-20 -0.000838691 6.47189e-20 0)
(0.00116083 3.51998e-05 5.10468e-20 -0.000808017 5.49464e-20 0)
(0.0011465 9.53063e-05 2.97046e-19 -0.000756304 1.33947e-19 0)
(0.00112062 0.000129332 3.12812e-19 -0.000632342 1.11837e-19 0)
(0.00110624 0.000199176 -4.38984e-19 -0.000618155 -1.85914e-19 0)
(0.00107034 0.000232893 1.09934e-19 -0.00053647 1.20455e-20 0)
(0.00103159 0.000246822 5.39244e-19 -0.000523455 3.35949e-19 0)
(0.000989561 0.000219176 7.69618e-20 -0.000441638 1.20015e-19 0)
(0.00096583 0.000162983 -1.65808e-19 -0.000446052 -6.14231e-20 0)
(0.000952976 6.59151e-05 -1.53954e-19 -0.000389847 4.88744e-22 -2.20663e-37)
(0.000623278 -0.00018581 -2.8456e-19 -0.000402483 -7.99641e-20 0)
(0.000684882 -0.000148685 3.40866e-19 -0.000425158 1.33878e-19 0)
(0.000764308 -0.000102032 3.16079e-19 -0.000468933 1.03655e-19 0)
(0.00085744 -5.72416e-05 -3.16421e-19 -0.000483836 -1.87425e-20 0)
(0.000927766 2.45176e-06 3.65265e-20 -0.000517171 4.7543e-20 0)
(0.000974904 5.28612e-05 1.30677e-20 -0.000494532 -9.80019e-20 0)
(0.00100319 8.40878e-05 -3.1926e-19 -0.000503954 -1.678e-19 0)
(0.00102122 9.59208e-05 3.38678e-20 -0.000461525 4.94777e-20 0)
(0.00105055 7.66722e-05 7.52785e-20 -0.000477651 1.04101e-19 0)
(0.00108825 3.52167e-05 -1.46338e-19 -0.000453829 -2.58623e-20 9.942e-36)
(0.000456544 -0.000140674 -1.49938e-19 -0.000316669 7.63906e-21 0)
(0.000511119 -0.000133473 -1.02196e-19 -0.000323396 -2.74393e-20 0)
(0.000582198 -0.000128095 1.05487e-19 -0.000367384 1.02474e-19 0)
(0.000665293 -0.000121565 1.28796e-19 -0.000369719 3.94616e-20 0)
(0.000753105 -0.000100731 2.56726e-19 -0.000420062 3.37479e-20 0)
(0.000827983 -6.96128e-05 3.3533e-19 -0.000411508 1.32445e-19 0)
(0.000913137 -4.18647e-05 -1.6288e-19 -0.000454779 -9.4306e-20 0)
(0.000983674 -1.79144e-05 -3.25666e-19 -0.000439013 -1.25415e-19 0)
(0.00107959 -4.65785e-06 -3.18056e-20 -0.000487495 -3.55507e-20 0)
(0.00118015 -4.44863e-08 5.56584e-20 -0.000493854 -3.34583e-21 -1.06782e-36)
)
;

boundaryField
{
    back
    {
        type            empty;
    }
    left
    {
        type            symmetry;
    }
    hole
    {
        type            calculated;
        value           nonuniform List<symmTensor> 10((0.00771273 -0.0012654 6.49817e-19 -0.00826613 -5.11417e-20 -6.22255e-37) (0.00344897 -0.0018359 -1.83328e-19 -0.00375735 1.41829e-20 3.23563e-35) (0.000254323 -0.000292564 -1.16557e-19 -0.000330805 4.82795e-20 1.79512e-35) (-6.85584e-05 7.15301e-05 -9.56906e-20 4.33432e-06 5.78586e-20 -1.61696e-35) (-8.46865e-05 0.000150321 6.78161e-21 -3.70695e-05 -4.13256e-21 3.06714e-40) (-6.35829e-05 0.000257837 -2.69868e-21 -0.000145258 6.49247e-21 2.55345e-37) (1.68074e-05 0.000277373 8.73084e-20 -0.00026585 -1.47414e-19 6.5838e-36) (0.000131725 0.000303294 4.65836e-20 -0.000474863 -1.12463e-19 -2.09687e-35) (0.000225282 0.000208298 2.69873e-20 -0.000592335 -1.04263e-19 -9.51886e-36) (0.000294006 7.82603e-05 5.34957e-21 -0.000694226 -7.45811e-20 -5.28772e-36));
    }
    front
    {
        type            empty;
    }
    down
    {
        type            symmetry;
    }
    right
    {
        type            calculated;
        value           nonuniform List<symmTensor> 
15
(
(0.000272642 -1.18808e-12 5.08453e-28 2.5722e-05 -2.15477e-21 -1.56572e-36)
(0.000278022 -3.30983e-12 6.14176e-28 1.31671e-05 -4.62621e-21 -3.82234e-36)
(0.00028439 -5.35802e-12 1.81664e-28 -1.69033e-06 -2.4837e-21 -4.01555e-37)
(0.000298079 -7.10617e-12 -3.02348e-28 -3.36326e-05 -4.07299e-21 -6.97639e-37)
(0.000307401 -9.02792e-12 -4.85247e-28 -5.53837e-05 2.02607e-21 -1.71425e-37)
(0.000318988 -1.02775e-11 2.33408e-27 -8.24204e-05 1.31092e-20 -1.46485e-36)
(0.000322945 -1.0984e-11 -1.51628e-27 -9.16526e-05 -9.98673e-21 -1.03229e-36)
(0.000329729 -1.16068e-11 -1.71479e-27 -0.000107483 -7.93974e-21 -5.87165e-50)
(0.000333143 -1.17686e-11 1.82834e-27 -0.000115448 5.48005e-21 2.31643e-37)
(0.000338705 -1.22088e-11 0 -0.000128426 0 0)
(0.000341314 -1.33094e-11 1.39577e-28 -0.000134513 -5.52009e-21 -1.55709e-36)
(0.000345324 -1.61831e-11 -2.39089e-27 -0.000143871 -1.06277e-20 -1.43886e-50)
(0.000347079 -2.14051e-11 -3.31226e-27 -0.000147966 -3.88116e-21 -2.36968e-36)
(0.000349044 -3.29457e-11 -1.11974e-28 -0.000152551 2.17922e-21 -3.98388e-37)
(0.000349058 -4.37505e-11 0 -0.000152584 0 0)
)
;
    }
    up
    {
        type            calculated;
        value           nonuniform List<symmTensor> 
15
(
(0.0010544 2.97749e-11 -5.48168e-20 -0.000451887 -4.74896e-28 4.33508e-36)
(0.000996119 1.86488e-11 4.27778e-20 -0.000426908 8.56422e-28 4.5974e-36)
(0.000816459 1.13705e-11 7.57851e-21 -0.000349911 2.35802e-28 2.6938e-36)
(0.000754404 5.99417e-12 1.62899e-20 -0.000323316 6.30187e-28 3.48051e-36)
(0.000597159 2.63263e-12 2.33582e-20 -0.000255925 5.45641e-28 3.01448e-36)
(0.000548112 1.39698e-12 -2.00729e-20 -0.000234905 3.60838e-29 2.27006e-36)
(0.000437515 2.71651e-12 2.46251e-20 -0.000187506 1.92029e-28 2.16816e-36)
(0.000409668 5.40041e-12 1.92448e-20 -0.000175572 1.27031e-27 6.66731e-36)
(0.000350326 1.38644e-11 -6.05573e-21 -0.00015014 4.01448e-28 1.63018e-36)
(0.000357883 3.72465e-11 0 -0.000153379 0 0)
(-7.42432e-05 7.87904e-12 8.72252e-20 3.18185e-05 -1.93484e-27 1.27466e-35)
(0.000517544 2.21179e-11 1.55053e-20 -0.000221805 1.42757e-27 -1.55011e-37)
(0.000952976 3.13549e-11 -1.53954e-19 -0.000408418 2.60944e-27 -2.20663e-37)
(0.00108825 3.64061e-11 -1.46338e-19 -0.000466392 -2.10016e-28 9.942e-36)
(0.00118015 3.79881e-11 5.56584e-20 -0.000505779 -2.33248e-27 -1.06782e-36)
)
;
    }
}


// ************************************************************************* //
