/*--------------------------------*- C++ -*----------------------------------*\
| =========                 |                                                 |
| \\      /  F ield         | OpenFOAM: The Open Source CFD Toolbox           |
|  \\    /   O peration     | Version:  v2012                                 |
|   \\  /    A nd           | Website:  www.openfoam.com                      |
|    \\/     M anipulation  |                                                 |
\*---------------------------------------------------------------------------*/
FoamFile
{
    version     2.0;
    format      ascii;
    class       volSymmTensorField;
    location    "18";
    object      sigma;
}
// * * * * * * * * * * * * * * * * * * * * * * * * * * * * * * * * * * * * * //

dimensions      [1 -1 -2 0 0 0 0];


internalField   nonuniform List<symmTensor> 
250
(
(-1.02866e+08 -280510 -1.17447e-08 -954370 -2.16138e-09 3.02865e+07)
(-9.37056e+06 -1.25341e+07 -4.10174e-09 5.20812e+06 2.44527e-09 5.91416e+07)
(6.66773e+07 -1.6428e+07 -1.71486e-09 2.28644e+07 -5.20804e-09 8.19998e+07)
(1.04289e+08 -1.2761e+07 -6.1745e-09 2.87426e+07 -1.02401e-08 7.83962e+07)
(1.28191e+08 -4.07465e+06 1.1514e-09 3.50334e+07 7.56825e-10 6.63693e+07)
(-6.83122e+07 -4.47448e+06 -1.32407e-09 6.02516e+06 4.42073e-09 3.04943e+07)
(-7.12413e+06 -2.83205e+07 -9.39863e-10 7.11863e+06 8.665e-10 3.5645e+07)
(4.70186e+07 -3.10745e+07 3.6972e-09 1.19989e+07 3.81455e-09 4.00944e+07)
(6.62992e+07 -1.9153e+07 -9.1119e-09 1.63796e+06 -3.53656e-09 3.31425e+07)
(7.95797e+07 -5.42897e+06 1.95766e-10 -333317 -2.44179e-09 2.94693e+07)
(-2.27737e+07 -6.90845e+06 -5.56395e-10 5.5918e+06 1.59173e-10 4.13884e+06)
(-1.09967e+07 -1.47126e+07 -2.7373e-08 -4.52066e+06 1.14439e-08 -4.65521e+06)
(1.54325e+07 -1.7585e+07 8.51205e-09 -9.28679e+06 1.55849e-09 1.84371e+06)
(3.46282e+07 -1.11855e+07 1.61727e-08 -2.13565e+07 1.36541e-09 3.98152e+06)
(5.10609e+07 -9.63115e+06 -1.75192e-08 -1.93111e+07 -5.83952e-09 1.08324e+07)
(-8.41902e+06 2.9914e+06 -3.64297e-09 -7.71789e+06 5.60655e-09 -4.84107e+06)
(-5.17786e+06 -125061 -4.7386e-09 -1.01112e+07 2.52302e-09 -4.5867e+06)
(1.21548e+07 -9.68822e+06 -1.68899e-09 -1.16778e+07 -2.1479e-09 143088)
(2.25664e+07 -9.16019e+06 9.7981e-09 -1.33875e+07 -5.14798e-10 2.75366e+06)
(3.31692e+07 -1.15761e+07 1.27728e-10 -1.13427e+07 -3.94627e-09 6.54797e+06)
(-5.16954e+06 8.68165e+06 3.81536e-10 -1.19897e+07 -3.03916e-10 -5.14778e+06)
(-1.47154e+06 3.05269e+06 -5.34849e-09 -1.11981e+07 5.25955e-10 -3.8009e+06)
(9.37694e+06 -1.74116e+06 -4.05907e-09 -1.10168e+07 -3.9168e-09 -491951)
(1.62532e+07 -3.94867e+06 4.43677e-09 -1.26806e+07 -6.28079e-09 1.07178e+06)
(2.40075e+07 -5.64205e+06 2.12341e-09 -1.1614e+07 2.09961e-09 3.71806e+06)
(-9.09603e+06 1.33598e+07 7.00586e-10 -1.93234e+07 1.01826e-09 -8.52584e+06)
(-4.23346e+06 6.40256e+06 -1.03888e-09 -1.89524e+07 -5.88664e-09 -6.95577e+06)
(4.55617e+06 728729 -1.27224e-09 -1.49783e+07 -1.72731e-09 -3.12664e+06)
(9.0002e+06 -3.13163e+06 -1.80368e-09 -1.55317e+07 4.57366e-09 -1.95944e+06)
(1.61224e+07 -6.44468e+06 -5.04504e-10 -1.00202e+07 1.45533e-09 1.83067e+06)
(-6.77409e+06 1.24487e+07 5.04732e-09 -2.94112e+07 -7.65375e-09 -1.08556e+07)
(-4.90997e+06 6.07973e+06 -1.60391e-09 -2.4849e+07 -6.45777e-09 -8.9277e+06)
(492972 145559 -4.01029e-09 -2.21253e+07 6.92903e-09 -6.48969e+06)
(2.77583e+06 -3.06904e+06 2.88351e-09 -1.8e+07 2.15321e-09 -4.56726e+06)
(6.91464e+06 -6.36477e+06 -2.27746e-10 -1.40355e+07 -3.91519e-09 -2.13627e+06)
(-6.22379e+06 1.41306e+07 1.24494e-09 -4.2088e+07 -6.57901e-09 -1.44935e+07)
(-4.78803e+06 6.05072e+06 2.60754e-09 -3.35374e+07 -1.22087e-09 -1.14976e+07)
(-1.21445e+06 429518 -1.47415e-09 -2.44493e+07 5.97416e-09 -7.69913e+06)
(391634 -2.77545e+06 -1.56259e-09 -1.91148e+07 7.52745e-10 -5.61694e+06)
(3.44318e+06 -6.22848e+06 9.57252e-10 -1.18139e+07 -3.11831e-09 -2.51122e+06)
(-3.9176e+06 9.25456e+06 -6.6163e-10 -4.85637e+07 -6.13527e-09 -1.57444e+07)
(-6.50577e+06 4.9373e+06 1.34253e-09 -3.71765e+07 9.22836e-10 -1.31047e+07)
(-4.67763e+06 676933 7.29918e-10 -2.72909e+07 8.31549e-10 -9.59056e+06)
(-4.50677e+06 -1.17721e+06 -2.03333e-09 -2.07408e+07 -1.71372e-09 -7.57427e+06)
(-2.18671e+06 -3.81462e+06 5.72675e-10 -1.34568e+07 -7.43492e-10 -4.69304e+06)
(-2.29922e+06 3.50844e+06 8.44315e-10 -5.45365e+07 -3.97105e-09 -1.70507e+07)
(-5.99599e+06 1.0213e+06 1.06942e-09 -4.0935e+07 6.65346e-10 -1.40793e+07)
(-5.59367e+06 -230083 -2.86548e-10 -2.83562e+07 -2.77823e-10 -1.0185e+07)
(-5.82437e+06 -961924 -9.47006e-11 -2.14326e+07 -2.08976e-10 -8.17709e+06)
(-4.5708e+06 -1.70881e+06 1.91787e-10 -1.29942e+07 3.93978e-10 -5.26949e+06)
(-1.85664e+06 -2.0825e+06 1.64265e-10 -6.16352e+06 2.3447e-11 -2.40605e+06)
(927470 -5.9584e+06 3.91884e-11 -6.9051e+06 -1.65735e-10 -1.79329e+06)
(6.87497e+06 -8.54565e+06 -1.07049e-09 -5.9966e+06 -8.04511e-10 263512)
(1.27352e+07 -1.03376e+07 -1.12087e-09 -7.92585e+06 -7.89386e-10 1.44281e+06)
(2.45576e+07 -1.19988e+07 -4.91362e-09 -7.29404e+06 -3.41565e-09 5.17905e+06)
(2.78476e+06 -1.94054e+06 4.74756e-11 852392 3.57897e-11 1.09115e+06)
(4.21788e+06 -6.6957e+06 7.52211e-10 68159.8 2.95456e-10 1.28581e+06)
(8.19177e+06 -9.03571e+06 5.17801e-12 -918917 -2.38184e-11 2.18185e+06)
(1.26632e+07 -1.17029e+07 -5.19504e-10 -1.58982e+06 2.1986e-10 3.32202e+06)
(1.94788e+07 -1.09604e+07 1.49924e-09 -2.83344e+06 2.4163e-10 4.99362e+06)
(7.68452e+06 -1.94016e+06 -1.52402e-10 4.20913e+06 1.68118e-11 3.56809e+06)
(9.05248e+06 -6.03129e+06 4.42184e-10 3.63766e+06 1.71981e-11 3.80704e+06)
(1.34115e+07 -9.48167e+06 -2.90401e-11 2.15214e+06 -2.0939e-11 4.66911e+06)
(1.63267e+07 -1.22855e+07 6.00439e-10 1.16294e+06 2.82242e-10 5.24689e+06)
(2.20519e+07 -1.47695e+07 1.43884e-09 -1.10439e+06 5.42788e-10 6.28424e+06)
(1.1372e+07 -1.7361e+06 -3.21683e-10 7.20009e+06 -5.68391e-12 5.57162e+06)
(1.22754e+07 -5.38474e+06 1.69719e-10 6.95046e+06 -2.3533e-11 5.76777e+06)
(1.51084e+07 -8.15761e+06 -9.38285e-10 5.85468e+06 -2.46846e-11 6.28894e+06)
(1.86762e+07 -9.87562e+06 -2.19628e-09 5.10655e+06 -2.11842e-10 7.13483e+06)
(2.32938e+07 -1.1702e+07 4.41898e-09 3.32559e+06 7.56727e-10 7.98583e+06)
(1.57108e+07 -1.86226e+06 -2.63473e-10 6.78056e+06 3.5133e-12 6.7474e+06)
(1.63251e+07 -4.77417e+06 -6.0405e-10 6.39277e+06 -2.26363e-11 6.81535e+06)
(1.84926e+07 -8.26712e+06 -1.18025e-09 5.34996e+06 1.48669e-11 7.15276e+06)
(2.02716e+07 -1.00856e+07 -1.30206e-09 4.4911e+06 6.86288e-11 7.42882e+06)
(2.32644e+07 -1.21938e+07 5.01523e-10 3.51312e+06 1.53798e-10 8.03326e+06)
(1.86444e+07 -1.42486e+06 5.7508e-10 8.88237e+06 -1.23487e-11 8.25802e+06)
(1.92906e+07 -3.68696e+06 7.82061e-10 8.43708e+06 -2.05509e-11 8.31831e+06)
(2.08464e+07 -6.18523e+06 4.61206e-10 7.67182e+06 7.53311e-11 8.55547e+06)
(2.30612e+07 -7.48973e+06 -2.27531e-09 6.26559e+06 -2.84576e-10 8.79803e+06)
(2.55424e+07 -9.18697e+06 -1.66654e-09 5.23214e+06 -3.69328e-10 9.23237e+06)
(2.15596e+07 -1.45366e+06 0 7.78661e+06 0 8.80385e+06)
(2.1794e+07 -3.38503e+06 6.04204e-10 7.33317e+06 2.89511e-11 8.73814e+06)
(2.26133e+07 -5.94566e+06 6.64855e-10 6.72115e+06 -1.50355e-10 8.80033e+06)
(2.34869e+07 -7.14837e+06 -2.38098e-10 5.54759e+06 -2.47097e-10 8.71033e+06)
(2.49222e+07 -8.51652e+06 1.22345e-09 4.81779e+06 1.29865e-10 8.922e+06)
(2.40599e+07 -961103 6.82963e-10 9.86813e+06 -6.77901e-13 1.01784e+07)
(2.43663e+07 -2.3273e+06 8.01691e-10 9.24998e+06 2.33383e-11 1.00849e+07)
(2.49831e+07 -4.01843e+06 1.11449e-09 8.51288e+06 8.24498e-11 1.00488e+07)
(2.59031e+07 -4.94289e+06 -1.27551e-09 6.88917e+06 -2.17437e-10 9.83769e+06)
(2.68778e+07 -5.95086e+06 -6.21115e-11 5.86248e+06 9.54431e-11 9.82209e+06)
(2.53765e+07 -827393 -7.88146e-17 1.03816e+07 -2.06082e-18 1.07274e+07)
(2.53537e+07 -1.88205e+06 -6.32121e-10 9.70162e+06 -2.93835e-11 1.05166e+07)
(2.54915e+07 -3.28432e+06 5.91634e-10 8.87457e+06 9.96466e-11 1.03098e+07)
(2.55585e+07 -3.92835e+06 -4.41239e-11 7.14379e+06 3.91706e-11 9.81069e+06)
(2.59391e+07 -4.59121e+06 1.83253e-10 5.92868e+06 1.22586e-10 9.56032e+06)
(2.71628e+07 -235970 -3.81528e-10 1.36198e+07 -1.16026e-10 1.22348e+07)
(2.72076e+07 -559728 -6.27217e-10 1.26733e+07 -2.49104e-10 1.19643e+07)
(2.72609e+07 -1.00518e+06 -2.05915e-10 1.15532e+07 -1.33738e-10 1.16442e+07)
(2.73088e+07 -1.23285e+06 -3.66977e-10 9.11665e+06 -2.19315e-10 1.09276e+07)
(2.73737e+07 -1.55058e+06 9.58637e-11 7.47129e+06 1.09096e-10 1.04535e+07)
(2.66035e+07 -1.16526e+07 -2.78532e-09 -7.91972e+06 -1.97163e-09 5.60514e+06)
(2.78597e+07 -1.11748e+07 -5.04919e-10 -6.28906e+06 -8.25566e-10 6.47121e+06)
(3.30549e+07 -1.11164e+07 7.50731e-09 -6.70373e+06 4.29424e-10 7.90536e+06)
(3.87794e+07 -1.06028e+07 6.23602e-09 -4.79131e+06 2.90191e-11 1.01964e+07)
(4.49106e+07 -9.67088e+06 -4.62617e-09 -5.24455e+06 -1.51385e-09 1.18998e+07)
(5.13805e+07 -8.64438e+06 2.4973e-09 -3.03472e+06 2.25152e-09 1.45037e+07)
(5.78969e+07 -7.13636e+06 -2.95449e-10 -3.24314e+06 1.77124e-09 1.63961e+07)
(6.51845e+07 -5.61591e+06 1.7083e-09 -888984 1.36109e-09 1.92887e+07)
(7.25434e+07 -3.68773e+06 3.21681e-09 -1.24988e+06 1.46812e-09 2.13881e+07)
(8.13733e+07 -1.46978e+06 -2.95167e-09 619112 -7.94344e-10 2.45977e+07)
(2.95356e+07 -9.41199e+06 -1.45288e-09 -2.94545e+06 -4.54312e-10 7.97703e+06)
(3.49654e+07 -1.03638e+07 -4.07596e-24 -1.80117e+06 -9.2516e-24 9.94927e+06)
(4.00143e+07 -1.01289e+07 1.85549e-09 -2.01519e+06 -1.02026e-10 1.13997e+07)
(4.51819e+07 -1.0333e+07 -3.27281e-09 -892477 -1.04742e-09 1.32868e+07)
(4.9968e+07 -9.67764e+06 -1.56013e-09 -1.35361e+06 -2.62471e-11 1.45843e+07)
(5.5519e+07 -9.01435e+06 -1.83724e-09 -166012 -1.18105e-09 1.66059e+07)
(6.02719e+07 -7.77838e+06 1.00201e-09 -849948 6.06751e-10 1.78266e+07)
(6.60244e+07 -6.252e+06 -2.17713e-09 350121 -1.24624e-09 1.99124e+07)
(7.09057e+07 -4.2308e+06 4.97491e-09 -542801 2.87691e-09 2.11089e+07)
(7.68528e+07 -1.63708e+06 2.30342e-09 532471 8.37799e-10 2.32156e+07)
(2.64778e+07 -1.47226e+07 -5.08921e-09 -1.01735e+06 -1.20715e-09 7.63813e+06)
(3.01542e+07 -1.44098e+07 2.45609e-09 -152676 4.11991e-10 9.00045e+06)
(3.30235e+07 -1.38959e+07 6.3968e-09 -659667 1.80999e-09 9.70916e+06)
(3.73578e+07 -1.29221e+07 -5.64233e-09 364456 -1.61808e-09 1.13167e+07)
(4.08535e+07 -1.19404e+07 2.71911e-09 -508254 9.31634e-10 1.21036e+07)
(4.54212e+07 -1.03978e+07 1.78861e-09 587861 6.56968e-10 1.38027e+07)
(4.93025e+07 -8.80508e+06 -2.34587e-09 -483058 -1.11757e-09 1.46458e+07)
(5.40841e+07 -6.68112e+06 -2.97197e-09 615780 -1.51682e-09 1.641e+07)
(5.81267e+07 -4.3703e+06 -2.75833e-09 -525265 -1.68231e-09 1.72804e+07)
(6.30328e+07 -1.57883e+06 4.08073e-10 532504 4.90899e-10 1.90696e+07)
(2.85577e+07 -1.17774e+07 4.65971e-09 1.9398e+06 1.18317e-09 9.14924e+06)
(3.22618e+07 -1.17058e+07 -2.07322e-09 2.20578e+06 -6.00894e-10 1.03403e+07)
(3.53259e+07 -1.1399e+07 5.75617e-10 1.1493e+06 1.25493e-10 1.09426e+07)
(3.89907e+07 -1.09405e+07 6.33086e-10 1.58583e+06 1.27845e-10 1.2173e+07)
(4.20331e+07 -1.0127e+07 -1.12649e-18 498578 -7.70515e-19 1.27595e+07)
(4.56595e+07 -9.13902e+06 7.47056e-10 1.05367e+06 1.48305e-10 1.4014e+07)
(4.8591e+07 -7.71219e+06 8.03006e-10 -6429.09 1.62548e-10 1.45754e+07)
(5.2117e+07 -6.08238e+06 3.15607e-09 646599 1.46933e-09 1.58291e+07)
(5.4865e+07 -3.90692e+06 1.17008e-09 -329574 1.2329e-09 1.63606e+07)
(5.82087e+07 -1.53766e+06 8.77151e-10 414497 6.34264e-10 1.7587e+07)
(2.6666e+07 -1.24344e+07 -1.01791e-09 2.55674e+06 -4.42156e-10 8.76683e+06)
(2.9002e+07 -1.22167e+07 4.6122e-10 2.54655e+06 7.99218e-13 9.46457e+06)
(3.07092e+07 -1.18439e+07 1.79144e-09 1.75169e+06 5.89967e-10 9.73826e+06)
(3.34451e+07 -1.10971e+07 -6.11998e-10 1.87593e+06 -6.11387e-10 1.05963e+07)
(3.52517e+07 -1.02302e+07 2.17885e-09 965292 7.60621e-10 1.08651e+07)
(3.7949e+07 -8.96205e+06 -6.18505e-10 1.21392e+06 -3.67098e-11 1.17489e+07)
(3.97456e+07 -7.54878e+06 -1.89069e-09 268155 -1.68353e-09 1.20041e+07)
(4.22726e+07 -5.7512e+06 2.08181e-09 651461 1.87279e-10 1.28772e+07)
(4.38984e+07 -3.71925e+06 1.51927e-09 -219990 1.0618e-09 1.31035e+07)
(4.60798e+07 -1.36463e+06 1.25775e-09 337121 5.49338e-10 1.39251e+07)
(2.84345e+07 -9.53454e+06 1.36387e-09 3.81268e+06 4.32988e-10 9.67417e+06)
(3.02964e+07 -9.26523e+06 3.58183e-10 3.56717e+06 5.25226e-10 1.01591e+07)
(3.17733e+07 -9.12339e+06 -1.81813e-09 2.57955e+06 -5.59064e-10 1.03058e+07)
(3.38893e+07 -8.51332e+06 -1.22685e-09 2.43296e+06 -6.25213e-10 1.08967e+07)
(3.52675e+07 -7.92006e+06 2.35552e-09 1.44622e+06 2.12241e-09 1.10141e+07)
(3.72512e+07 -6.94952e+06 6.05439e-10 1.43069e+06 3.85283e-12 1.16046e+07)
(3.8438e+07 -5.85867e+06 -4.90087e-09 511991 -3.32944e-09 1.1685e+07)
(4.01314e+07 -4.50756e+06 -5.79841e-10 670642 8.09263e-10 1.22406e+07)
(4.10216e+07 -2.87043e+06 2.39527e-10 -106791 2.67466e-09 1.22745e+07)
(4.22782e+07 -1.10354e+06 -1.08085e-09 270102 4.1368e-10 1.27645e+07)
(2.67412e+07 -8.71991e+06 1.65488e-09 3.6373e+06 6.76832e-10 9.11355e+06)
(2.77053e+07 -8.47824e+06 1.57661e-09 3.35152e+06 4.05501e-10 9.31703e+06)
(2.84539e+07 -8.27582e+06 -1.13145e-09 2.53961e+06 -4.99246e-10 9.29806e+06)
(2.97279e+07 -7.64822e+06 -9.49949e-10 2.29812e+06 5.31413e-11 9.6078e+06)
(3.04046e+07 -7.0985e+06 1.05362e-18 1.48769e+06 6.3541e-19 9.56769e+06)
(3.15778e+07 -6.11537e+06 1.02474e-09 1.33446e+06 -2.70707e-11 9.87369e+06)
(3.21234e+07 -5.19767e+06 2.27259e-10 571331 6.8677e-10 9.80842e+06)
(3.30189e+07 -3.8698e+06 -1.08309e-09 577224 -7.89207e-12 1.00788e+07)
(3.32519e+07 -2.51642e+06 -1.3254e-10 -30699.8 7.23978e-10 9.96637e+06)
(3.37328e+07 -895028 1.32597e-09 181564 3.9511e-10 1.01743e+07)
(2.81575e+07 -6.16495e+06 2.48892e-11 4.44044e+06 9.11345e-11 9.77938e+06)
(2.87736e+07 -5.84337e+06 4.46803e-10 4.0494e+06 1.52274e-11 9.84691e+06)
(2.91776e+07 -5.75925e+06 2.74253e-09 3.09565e+06 1.01151e-09 9.68196e+06)
(3.01271e+07 -5.20592e+06 -3.6003e-10 2.76738e+06 -5.02446e-10 9.86833e+06)
(3.04277e+07 -4.85267e+06 -3.10935e-10 1.84039e+06 -5.52368e-10 9.68043e+06)
(3.12635e+07 -4.05083e+06 1.70772e-09 1.59934e+06 6.73183e-10 9.85884e+06)
(3.13331e+07 -3.44397e+06 5.12272e-10 777312 3.67341e-11 9.63313e+06)
(3.17276e+07 -2.58567e+06 -7.01978e-12 653997 6.27549e-10 9.71449e+06)
(3.16176e+07 -1.59106e+06 1.3285e-10 44358.7 -6.49088e-10 9.49857e+06)
(3.15762e+07 -585276 1.03626e-09 147717 -6.07502e-10 9.51719e+06)
(2.62783e+07 -4.64625e+06 -2.63108e-10 4.42256e+06 -1.24253e-10 9.21026e+06)
(2.64529e+07 -4.32677e+06 -2.52816e-09 3.90872e+06 -9.05883e-10 9.10849e+06)
(2.65134e+07 -4.25623e+06 -4.06738e-10 3.00942e+06 -3.69714e-10 8.85684e+06)
(2.69238e+07 -3.76482e+06 1.1845e-09 2.52581e+06 5.30369e-10 8.83488e+06)
(2.684e+07 -3.44654e+06 -1.15598e-09 1.74515e+06 -5.73469e-10 8.57556e+06)
(2.7201e+07 -2.82802e+06 -2.01167e-23 1.34455e+06 -7.2724e-24 8.56366e+06)
(2.75987e+07 -2.25755e+06 2.76613e-09 753781 2.3157e-09 8.50575e+06)
(2.72612e+07 -1.6106e+06 4.47031e-10 488035 7.96615e-11 8.32476e+06)
(2.70213e+07 -955244 -3.27676e-10 75891.5 -1.61503e-09 8.12915e+06)
(2.69792e+07 -321734 -3.26078e-10 72322.6 -2.97072e-10 8.11544e+06)
(2.7306e+07 -1.53101e+06 8.49517e-10 5.36256e+06 7.05879e-10 9.80058e+06)
(2.74353e+07 -1.45756e+06 -5.88649e-10 4.7078e+06 -5.37747e-10 9.64295e+06)
(2.74981e+07 -1.43243e+06 -3.77215e-10 3.51699e+06 -4.27525e-10 9.30453e+06)
(2.74782e+07 -1.24654e+06 1.32091e-10 2.89572e+06 2.9508e-10 9.11217e+06)
(2.75274e+07 -1.14524e+06 0 1.9185e+06 0 8.83377e+06)
(2.74783e+07 -945139 -4.43954e-10 1.42929e+06 -2.97236e-10 8.67229e+06)
(2.74898e+07 -745242 -2.77313e-10 714339 -5.72262e-10 8.46123e+06)
(2.76515e+07 -433882 4.50425e-10 468646 -2.08986e-10 8.43606e+06)
(2.75205e+07 -263521 2.27175e-10 59856.9 1.17343e-10 8.27412e+06)
(2.75616e+07 -86614.5 0 74879.6 0 8.29094e+06)
(1.33321e+08 3.40394e+06 -2.65349e-09 3.06934e+07 -1.44293e-09 5.42008e+07)
(1.28733e+08 9.55014e+06 3.27247e-09 3.11607e+07 6.20896e-10 4.79681e+07)
(1.09806e+08 1.38298e+07 1.3715e-14 2.50746e+07 7.53427e-15 4.04641e+07)
(9.44343e+07 1.55699e+07 -1.8659e-09 2.37158e+07 -1.69092e-09 3.5445e+07)
(7.68423e+07 1.5642e+07 1.55684e-09 1.6525e+07 1.62047e-09 2.80102e+07)
(6.39499e+07 1.51149e+07 -6.90549e-09 1.48213e+07 -4.27168e-09 2.36314e+07)
(4.67207e+07 1.34866e+07 8.72355e-09 7.50145e+06 7.97977e-10 1.62666e+07)
(3.30747e+07 1.1174e+07 8.03613e-09 6.61546e+06 4.66803e-09 1.19071e+07)
(1.31095e+07 7.76846e+06 -3.66115e-09 405511 8.00066e-10 4.0545e+06)
(-4.98708e+06 3.1137e+06 4.69674e-09 1.68917e+06 1.26337e-09 -989372)
(8.31354e+07 6.12769e+06 9.32092e-09 -6.15828e+06 4.78923e-09 2.81263e+07)
(8.89577e+07 1.42047e+07 7.77643e-09 -3.08045e+06 1.7138e-09 2.97272e+07)
(9.22619e+07 1.99898e+07 4.77818e-09 -5.88562e+06 6.79634e-09 2.79294e+07)
(9.36097e+07 2.33195e+07 -1.60378e-08 -1.36094e+06 -1.5271e-08 2.76746e+07)
(8.45946e+07 2.52403e+07 -1.66114e-10 -3.88617e+06 -7.25674e-11 2.42125e+07)
(7.73584e+07 2.53692e+07 1.55229e-08 331133 7.43234e-09 2.33069e+07)
(6.71403e+07 2.35549e+07 2.92505e-09 -2.61413e+06 -6.5387e-09 1.93579e+07)
(5.95966e+07 1.99325e+07 -1.5387e-08 1.35959e+06 -2.50393e-09 1.82868e+07)
(4.87628e+07 1.41269e+07 -1.07581e-08 -1.9854e+06 -6.06483e-09 1.40332e+07)
(4.06109e+07 5.73635e+06 8.34903e-10 1.86628e+06 1.57529e-09 1.27432e+07)
(5.77951e+07 -3.90361e+06 2.87113e-09 -2.25868e+07 2.75949e-09 1.39629e+07)
(6.33491e+07 -330747 2.14792e-09 -1.85002e+07 2.38111e-09 1.68934e+07)
(7.01827e+07 3.69486e+06 1.46782e-08 -1.91128e+07 6.43241e-09 1.72144e+07)
(7.87557e+07 6.67002e+06 1.6594e-08 -1.33053e+07 5.88632e-09 1.99978e+07)
(7.92776e+07 1.07249e+07 -2.36376e-08 -1.35743e+07 -1.00108e-08 1.9711e+07)
(7.91934e+07 1.25404e+07 5.91955e-09 -7.32688e+06 6.48602e-10 2.156e+07)
(7.60682e+07 1.32904e+07 2.90362e-08 -7.66513e+06 1.80896e-08 2.05209e+07)
(7.54118e+07 1.18018e+07 4.1441e-09 -1.65284e+06 6.46234e-09 2.21277e+07)
(7.29972e+07 8.77602e+06 -8.92813e-09 -3.02714e+06 -3.3074e-09 2.0991e+07)
(7.40558e+07 3.54928e+06 -8.28984e-09 1.74995e+06 2.6317e-11 2.27417e+07)
(4.24779e+07 -1.00052e+07 -1.53225e-08 -1.27554e+07 -4.30576e-09 8.91674e+06)
(4.73671e+07 -8.00614e+06 1.83543e-08 -1.24042e+07 7.20883e-09 1.04889e+07)
(5.30836e+07 -5.49402e+06 1.70197e-08 -1.33217e+07 5.58144e-09 1.19286e+07)
(6.12577e+07 -3.08224e+06 -1.70381e-08 -1.09649e+07 -1.00921e-09 1.50878e+07)
(6.65383e+07 132018 1.96681e-09 -1.12659e+07 2.56001e-09 1.65817e+07)
(7.18944e+07 2.84637e+06 7.03643e-10 -7.22904e+06 -5.27702e-09 1.93996e+07)
(7.41797e+07 4.5278e+06 -1.71909e-08 -6.97438e+06 -9.03537e-09 2.01616e+07)
(7.7592e+07 5.16497e+06 1.82365e-09 -2.24816e+06 2.66419e-09 2.26032e+07)
(7.97045e+07 4.12851e+06 4.05346e-09 -2.58328e+06 5.60542e-09 2.31364e+07)
(8.42187e+07 1.89628e+06 -7.87976e-09 1.18386e+06 -1.39259e-09 2.56208e+07)
(3.02319e+07 -7.57475e+06 -8.07359e-09 -1.14026e+07 4.11334e-10 5.64879e+06)
(3.51029e+07 -7.187e+06 -5.50289e-09 -9.83254e+06 -1.4775e-09 7.5811e+06)
(4.00243e+07 -6.89744e+06 5.68009e-09 -1.11071e+07 5.51783e-09 8.67517e+06)
(4.77601e+07 -6.5458e+06 6.93516e-09 -7.97129e+06 2.12485e-09 1.19366e+07)
(5.40016e+07 -5.42398e+06 1.38237e-08 -9.16891e+06 1.8172e-09 1.34498e+07)
(6.14029e+07 -3.74838e+06 1.80562e-08 -5.33894e+06 7.13168e-09 1.68192e+07)
(6.76795e+07 -2.25425e+06 -8.77045e-09 -5.9775e+06 -5.07802e-09 1.85106e+07)
(7.4963e+07 -964619 -1.75359e-08 -1.64322e+06 -6.75312e-09 2.19959e+07)
(8.20436e+07 -250807 -1.71261e-09 -2.33808e+06 -1.91427e-09 2.39117e+07)
(9.12624e+07 -2395.42 2.99699e-09 1.12365e+06 -1.8016e-10 2.77158e+07)
)
;

boundaryField
{
    back
    {
        type            empty;
    }
    left
    {
        type            symmetry;
    }
    hole
    {
        type            calculated;
        value           nonuniform List<symmTensor> 10((-1.14386e+08 9.00239e+06 -1.15761e-08 -708503 9.11058e-10 1.82489e+07) (-7.09237e+07 1.70273e+07 -2.07806e-09 -4.08789e+06 3.49358e-10 2.10451e+07) (-1.51166e+07 6.26149e+06 1.13201e-10 -2.5936e+06 -4.68897e-11 4.32581e+06) (-6.28527e+06 3.85162e+06 -5.15257e-09 -2.36028e+06 3.11546e-09 -2.59367e+06) (-9.47711e+06 8.09422e+06 3.65164e-10 -6.91312e+06 -2.22522e-10 -4.91707e+06) (-1.18576e+07 1.38835e+07 -1.45314e-10 -1.62555e+07 3.49595e-10 -8.43395e+06) (-9.15248e+06 1.49355e+07 4.70122e-09 -2.43725e+07 -7.93769e-09 -1.00575e+07) (-6.76461e+06 1.63312e+07 2.50835e-09 -3.9427e+07 -6.05569e-09 -1.38575e+07) (-2.69274e+06 1.12161e+07 1.45316e-09 -4.67183e+07 -5.61414e-09 -1.48233e+07) (-331651 4.21402e+06 2.88054e-10 -5.35442e+07 -4.01591e-09 -1.61627e+07));
    }
    front
    {
        type            empty;
    }
    down
    {
        type            symmetry;
    }
    right
    {
        type            calculated;
        value           nonuniform List<symmTensor> 
15
(
(2.673e+07 -0.0639737 2.73782e-17 1.34343e+07 -1.16026e-10 1.20493e+07)
(2.673e+07 -0.178222 3.3071e-17 1.24686e+07 -2.49104e-10 1.17596e+07)
(2.673e+07 -0.288509 9.7819e-18 1.13257e+07 -1.33738e-10 1.14167e+07)
(2.673e+07 -0.38264 -1.62803e-17 8.86859e+06 -2.19315e-10 1.06796e+07)
(2.673e+07 -0.486119 -2.61287e-17 7.19543e+06 1.09096e-10 1.01776e+07)
(2.673e+07 -0.553406 1.25681e-16 5.11569e+06 7.05879e-10 9.55371e+06)
(2.673e+07 -0.591449 -8.16458e-17 4.40551e+06 -5.37747e-10 9.34065e+06)
(2.673e+07 -0.624984 -9.2335e-17 3.18781e+06 -4.27525e-10 8.97534e+06)
(2.673e+07 -0.633693 9.8449e-17 2.57507e+06 2.9508e-10 8.79152e+06)
(2.673e+07 -0.6574 0 1.57676e+06 0 8.49203e+06)
(2.673e+07 -0.716661 7.51569e-18 1.10857e+06 -2.97236e-10 8.35157e+06)
(2.673e+07 -0.871397 -1.2874e-16 388723 -5.72262e-10 8.13562e+06)
(2.673e+07 -1.15258 -1.78352e-16 73697.3 -2.08986e-10 8.04111e+06)
(2.673e+07 -1.774 -6.02938e-18 -278950 1.17343e-10 7.93532e+06)
(2.673e+07 -2.3558 0 -281513 0 7.93455e+06)
)
;
    }
    up
    {
        type            calculated;
        value           nonuniform List<symmTensor> 
15
(
(8.11079e+07 1.60326 -2.95167e-09 0.161627 -2.55713e-17 2.43324e+07)
(7.66246e+07 1.00417 2.30342e-09 0.20837 4.6115e-17 2.29874e+07)
(6.28046e+07 0.612259 4.08073e-10 0.20361 1.2697e-17 1.88414e+07)
(5.80311e+07 0.322763 8.77151e-10 0.168009 3.39332e-17 1.74093e+07)
(4.59353e+07 0.141757 1.25775e-09 0.103904 2.93807e-17 1.37806e+07)
(4.21625e+07 0.0752222 -1.08085e-09 0.0330072 1.94298e-18 1.26487e+07)
(3.3655e+07 0.146274 1.32597e-09 -0.0273462 1.034e-17 1.00965e+07)
(3.15129e+07 0.290791 1.03626e-09 -0.0888722 6.84011e-17 9.45388e+06)
(2.69482e+07 0.746544 -3.26078e-10 -0.158296 2.16164e-17 8.08445e+06)
(2.75295e+07 2.00558 0 -0.120544 0 8.25885e+06)
(-5.71101e+06 0.424256 4.69674e-09 -0.757592 -1.04184e-16 -1.7133e+06)
(3.98111e+07 1.19096 8.34903e-10 -0.626058 7.68692e-17 1.19433e+07)
(7.33058e+07 1.68834 -8.28984e-09 -0.415157 1.40508e-16 2.19917e+07)
(8.37114e+07 1.96033 -7.87976e-09 -0.227744 -1.13086e-17 2.51134e+07)
(9.07808e+07 2.04551 2.99699e-09 0.00398514 -1.25595e-16 2.72342e+07)
)
;
    }
}


// ************************************************************************* //
