/*--------------------------------*- C++ -*----------------------------------*\
| =========                 |                                                 |
| \\      /  F ield         | OpenFOAM: The Open Source CFD Toolbox           |
|  \\    /   O peration     | Version:  v2012                                 |
|   \\  /    A nd           | Website:  www.openfoam.com                      |
|    \\/     M anipulation  |                                                 |
\*---------------------------------------------------------------------------*/
FoamFile
{
    version     2.0;
    format      ascii;
    class       volScalarField;
    location    "18";
    object      sigmaEq;
}
// * * * * * * * * * * * * * * * * * * * * * * * * * * * * * * * * * * * * * //

dimensions      [1 -1 -2 0 0 0 0];


internalField   nonuniform List<scalar> 
250
(
1.20607e+08
6.61736e+07
6.02935e+07
7.00724e+07
8.24071e+07
8.94641e+07
6.18793e+07
6.26794e+07
6.50923e+07
7.05769e+07
3.01443e+07
2.62767e+07
3.7249e+07
5.22792e+07
6.33866e+07
6.13433e+06
5.25834e+06
2.66005e+07
3.49944e+07
4.36698e+07
1.6516e+07
1.02632e+07
1.79201e+07
2.59839e+07
3.24548e+07
2.54207e+07
1.75205e+07
1.7092e+07
2.19656e+07
2.52719e+07
3.00269e+07
2.10829e+07
2.00617e+07
1.90067e+07
2.12777e+07
4.07071e+07
2.80799e+07
2.07796e+07
1.79585e+07
1.71397e+07
4.31516e+07
2.924e+07
2.06343e+07
1.50769e+07
1.21944e+07
4.70392e+07
3.17298e+07
2.08533e+07
1.46699e+07
8.62066e+06
5.43096e+06
1.24076e+07
1.85303e+07
2.53314e+07
3.47092e+07
3.82449e+06
1.21716e+07
1.7587e+07
2.38357e+07
2.7292e+07
5.09998e+06
1.17287e+07
1.93514e+07
2.52486e+07
3.27739e+07
5.99103e+06
1.10922e+07
1.67762e+07
2.12911e+07
2.71698e+07
9.51051e+06
1.27675e+07
1.89029e+07
2.27256e+07
2.77008e+07
1.03861e+07
1.26445e+07
1.66577e+07
2.03534e+07
2.45044e+07
1.35299e+07
1.50049e+07
1.81629e+07
2.06973e+07
2.35821e+07
1.41375e+07
1.52588e+07
1.72272e+07
1.96839e+07
2.19169e+07
1.48941e+07
1.56052e+07
1.6932e+07
1.85311e+07
2.0104e+07
1.42918e+07
1.4933e+07
1.57588e+07
1.74885e+07
1.87845e+07
3.62657e+07
3.56068e+07
3.98002e+07
4.2512e+07
4.72246e+07
5.03828e+07
5.54603e+07
5.94496e+07
6.5789e+07
7.18771e+07
3.29439e+07
3.71491e+07
4.11145e+07
4.46196e+07
4.84865e+07
5.1884e+07
5.58987e+07
5.93997e+07
6.3878e+07
6.79424e+07
3.52588e+07
3.67126e+07
3.8368e+07
3.98025e+07
4.21417e+07
4.37783e+07
4.6764e+07
4.89667e+07
5.26313e+07
5.5667e+07
3.13801e+07
3.37064e+07
3.63189e+07
3.83964e+07
4.09129e+07
4.27798e+07
4.52121e+07
4.70026e+07
4.94933e+07
5.14751e+07
3.05605e+07
3.18194e+07
3.30436e+07
3.41584e+07
3.53285e+07
3.62547e+07
3.7468e+07
3.83689e+07
3.97194e+07
4.07562e+07
2.77308e+07
2.89697e+07
3.0596e+07
3.18171e+07
3.31664e+07
3.41624e+07
3.52483e+07
3.59918e+07
3.68828e+07
3.7411e+07
2.57947e+07
2.64396e+07
2.73415e+07
2.79429e+07
2.8618e+07
2.90089e+07
2.95035e+07
2.9655e+07
2.98989e+07
2.98777e+07
2.40499e+07
2.45763e+07
2.55219e+07
2.61916e+07
2.69299e+07
2.74298e+07
2.7876e+07
2.80389e+07
2.82018e+07
2.7966e+07
2.14644e+07
2.17765e+07
2.24396e+07
2.28836e+07
2.32516e+07
2.36221e+07
2.42473e+07
2.40038e+07
2.40135e+07
2.39283e+07
2.02696e+07
2.08592e+07
2.18164e+07
2.22438e+07
2.30321e+07
2.33457e+07
2.38993e+07
2.42152e+07
2.44173e+07
2.44379e+07
9.33123e+07
9.18506e+07
8.1768e+07
7.09681e+07
6.17361e+07
5.23812e+07
4.26248e+07
3.10267e+07
1.75897e+07
7.93409e+06
7.87404e+07
8.44578e+07
9.30393e+07
9.34684e+07
8.9685e+07
8.13764e+07
7.40291e+07
6.23234e+07
5.11641e+07
3.60104e+07
7.00351e+07
7.11013e+07
7.80413e+07
8.1559e+07
8.35694e+07
7.93265e+07
7.73015e+07
7.1342e+07
6.90048e+07
6.47206e+07
5.12219e+07
5.40431e+07
5.88306e+07
6.35748e+07
6.82816e+07
6.99068e+07
7.19837e+07
7.13298e+07
7.32633e+07
7.3984e+07
3.85537e+07
4.11691e+07
4.62275e+07
5.02132e+07
5.62276e+07
5.92345e+07
6.50888e+07
6.79648e+07
7.47965e+07
8.02194e+07
)
;

boundaryField
{
    back
    {
        type            empty;
    }
    left
    {
        type            symmetry;
    }
    hole
    {
        type            calculated;
        value           nonuniform List<scalar> 10(1.2522e+08 8.74543e+07 2.02231e+07 7.68434e+06 1.4568e+07 2.49875e+07 2.97976e+07 4.1056e+07 4.39175e+07 4.78859e+07);
    }
    front
    {
        type            empty;
    }
    down
    {
        type            symmetry;
    }
    right
    {
        type            calculated;
        value           nonuniform List<scalar> 
15
(
1.40395e+07
1.46288e+07
1.5359e+07
1.70283e+07
1.82274e+07
1.97725e+07
2.03117e+07
2.1248e+07
2.17243e+07
2.2507e+07
2.28767e+07
2.34481e+07
2.36993e+07
2.39812e+07
2.39833e+07
)
;
    }
    up
    {
        type            calculated;
        value           nonuniform List<scalar> 
15
(
7.20903e+07
6.81054e+07
5.58219e+07
5.15792e+07
4.08282e+07
3.74748e+07
2.99132e+07
2.80093e+07
2.3952e+07
2.44687e+07
5.07606e+06
3.53849e+07
6.51556e+07
7.44043e+07
8.06877e+07
)
;
    }
}


// ************************************************************************* //
