/*--------------------------------*- C++ -*----------------------------------*\
| =========                 |                                                 |
| \\      /  F ield         | OpenFOAM: The Open Source CFD Toolbox           |
|  \\    /   O peration     | Version:  v2012                                 |
|   \\  /    A nd           | Website:  www.openfoam.com                      |
|    \\/     M anipulation  |                                                 |
\*---------------------------------------------------------------------------*/
FoamFile
{
    version     2.0;
    format      ascii;
    class       volScalarField;
    location    "20";
    object      sigmaEq;
}
// * * * * * * * * * * * * * * * * * * * * * * * * * * * * * * * * * * * * * //

dimensions      [1 -1 -2 0 0 0 0];


internalField   nonuniform List<scalar> 
1896
(
3.79583e+06
1.15354e+06
4.10137e+06
2.66416e+07
3.86033e+06
4.04702e+06
3.94398e+07
5.0527e+06
7.82543e+06
5.17013e+06
3.99733e+06
7.41485e+06
7.56104e+06
7.69313e+06
2.05174e+07
2.66435e+07
3.28443e+06
5.57085e+07
5.60737e+06
3.21409e+07
1.69637e+07
3.59762e+06
1.88384e+07
2.27083e+07
2.19429e+06
2.09009e+06
7.07464e+06
7.14925e+06
4.05677e+06
8.50016e+06
7.89552e+06
312927
6.00222e+06
957699
1.25866e+07
4.03282e+06
7.32601e+06
1.66786e+06
5.40804e+07
9.16429e+06
107729
3.1782e+07
8.91889e+06
1.16514e+07
6.97519e+06
7.35983e+06
3.41217e+07
3.98128e+06
1.53526e+07
3.69987e+07
3.91938e+06
4.49243e+06
4.75539e+06
3.41052e+06
9.49518e+06
907015
1.11417e+07
3.68872e+06
1.71913e+06
5.18197e+06
4.99722e+06
2.73461e+07
3.00611e+07
4.18237e+06
3.86196e+07
145340
1.6353e+07
8.15681e+06
2.4359e+06
1.6158e+07
6.49254e+06
2.29824e+07
2.1962e+06
482094
1.44551e+07
1.7587e+06
1.43366e+06
3.57695e+06
3.4053e+06
6.03624e+06
4.00276e+07
2.0195e+07
6.20194e+06
6.01458e+06
5.94584e+06
5.77691e+06
7.79212e+06
8.17781e+06
1.01439e+07
8.88765e+06
6.78188e+06
2.43e+08
6.99594e+06
4.62623e+07
2.25008e+07
2.99734e+06
605799
4.28008e+06
238223
8.77108e+06
8.81047e+06
8.53907e+06
4.18508e+06
8.4292e+06
9.88841e+06
8.97674e+06
5.59582e+06
1.62221e+07
1.45922e+07
1.53805e+08
4.42028e+06
250956
1.34235e+07
1.05651e+07
1.05077e+08
8.28955e+06
5.95315e+06
7.50873e+06
1.7138e+07
7.99315e+06
1.77586e+07
8.29489e+06
1.71367e+06
6.46696e+06
6.15168e+06
9.93876e+06
1.2335e+07
5.26703e+06
4.4581e+06
9.36625e+06
9.13704e+06
6.57183e+06
1.45462e+07
5.12355e+07
5.35486e+06
2.73362e+07
2.03587e+07
2.36685e+07
265061
1.06754e+07
2.69251e+06
1.33603e+07
8.9836e+06
5.55604e+07
6.22185e+06
4.3267e+06
3.97387e+06
4.69667e+06
2.17219e+07
7.89443e+06
7.11764e+06
889355
2.83095e+06
3.96819e+06
4.33454e+06
1.16008e+07
6.38215e+06
1.29283e+07
2.05531e+08
4.35929e+06
4.43685e+06
1.83348e+07
9.61392e+06
2.1857e+06
4.46707e+07
5.39089e+06
2.11416e+07
3.83193e+06
4.093e+06
918818
613520
470983
6.91904e+06
6.87049e+06
2.11e+07
2.76532e+07
1.69556e+07
2.63151e+06
4.30803e+06
9.26437e+06
6.62674e+06
5.75524e+06
3.80029e+06
1.52367e+07
2.43155e+07
2.01735e+07
8.68279e+06
4.68894e+07
1.54916e+07
5.33331e+06
1.65135e+07
4.26085e+06
1.12847e+07
3.71636e+07
3.682e+07
7.62521e+06
8.91542e+06
1.33955e+07
7.79533e+06
6.50245e+06
8.12042e+06
3.22168e+07
3.94997e+06
4.12301e+06
5.05641e+07
4.31304e+06
1.24532e+07
1.20961e+07
1.29959e+07
960771
1.57615e+07
7.1907e+06
2.42103e+06
2.25298e+06
7.93152e+06
8.90345e+06
2.56755e+07
8.76332e+06
7.45114e+06
8.36986e+06
6.43526e+06
4.50699e+06
3.08713e+07
1.75911e+07
514648
1.00576e+07
2.33397e+07
4.46657e+06
3.03336e+07
432644
3.17353e+07
4.54386e+06
4.65162e+06
4.83353e+06
78059.4
4.90705e+06
8.44203e+06
1.56179e+07
5.62557e+07
4.37164e+06
2.27673e+07
1.41225e+07
7.61579e+06
4.15282e+07
3.72741e+06
7.50604e+06
1.59919e+06
7.74785e+06
7.11921e+06
1.05916e+07
1.76418e+07
9.38504e+06
622792
4.37742e+06
17214.1
4.76987e+06
6.12756e+06
5.61203e+07
2.31658e+07
1.30631e+07
3.78204e+06
1.63204e+07
1.42955e+07
8.03396e+06
3.28007e+06
9.77808e+06
1.32636e+07
9.01878e+06
5.01198e+06
4.76001e+06
9.12862e+06
5.69138e+06
3.46833e+07
7.3296e+06
3.79369e+06
6.32658e+06
1.55308e+07
2.88723e+06
5.3703e+06
4.15327e+06
389442
1.18522e+07
5.87694e+06
114158
4.43938e+06
3.29649e+07
6.34618e+06
7.8556e+06
6.30174e+06
4.27947e+06
2.00497e+07
6.25438e+06
7.79719e+06
6.44877e+06
4.49335e+07
6.31391e+06
2.9897e+07
8.22979e+06
3.96399e+07
9.60988e+06
5.15389e+07
7.96754e+06
2.02041e+07
2.75175e+07
3.93711e+06
5.52185e+06
5.76238e+06
6.18195e+06
5.96071e+06
5.21657e+06
2.27003e+06
8.72923e+06
7.22092e+06
4.16978e+06
536979
5.09194e+06
5.3139e+06
1.95138e+06
9.26396e+06
2.90405e+06
6.399e+06
3.25539e+07
3.54983e+07
9.82682e+06
6.21715e+06
8.99496e+06
9.82933e+06
7.02927e+06
3.81102e+06
1.67603e+06
1.11051e+07
2.94579e+06
4.50643e+06
139896
5.09866e+06
1.47146e+07
7.82375e+06
2.07005e+07
3.79532e+06
1.42103e+06
1.08593e+07
1.2071e+07
9.83958e+06
9.0643e+06
7.09451e+06
5.72876e+06
6.82212e+06
3.94431e+07
8.67409e+06
1.32194e+07
5.05869e+06
3.648e+06
1.16652e+07
6.70602e+06
4.35591e+06
5.99893e+06
2.94089e+07
4.31887e+07
8.18221e+06
1.33063e+07
9.55489e+06
4.84436e+07
3.5493e+07
1.24782e+07
2.05969e+06
3.83433e+06
1.14226e+07
1.15314e+07
7.24832e+06
8.07619e+06
2.63998e+07
7.58303e+06
4.54182e+06
21339.9
1.7734e+06
8.39041e+06
1.04422e+08
1.08188e+07
7.50759e+06
8.57104e+06
8.31856e+06
89806.4
6.68944e+06
3.0073e+06
7.66769e+06
2.94008e+06
4.22e+07
1.86345e+06
4.20013e+06
3.2453e+07
5.37718e+06
3.80847e+06
4.01374e+07
4.67523e+07
4.91537e+06
4.90337e+06
7.42667e+06
1.18053e+07
4.41484e+06
4.64043e+06
7.17988e+06
1.88902e+07
3.35511e+06
5.85077e+06
7.37034e+06
1.14612e+07
6.07097e+06
2.98409e+07
7.39491e+06
3.2491e+07
9.71192e+06
6.64329e+06
6.97791e+06
4.66789e+07
1.11434e+07
1.10635e+07
4.69707e+06
4.4149e+07
1.0379e+07
5.63532e+06
9.96681e+06
4.68188e+06
33913.9
1.72064e+07
1.02856e+07
8.86042e+06
6.06272e+06
5.32564e+06
3.57621e+07
2.9833e+07
1.57047e+07
1.03669e+07
1.01724e+07
3.60096e+06
1.11688e+07
1.12541e+07
674994
6.09077e+07
1.23602e+07
1.82002e+06
1.17703e+07
6.44145e+06
4.63755e+06
5.71675e+07
4.69647e+06
22787
5.70287e+06
4.8115e+06
3.39019e+06
3.5416e+06
3.28257e+07
5.10534e+06
5.3515e+06
4.66731e+06
6.19855e+06
6.42175e+06
4.76001e+06
1.06426e+07
1.94852e+07
7.1914e+06
1.37024e+07
3.7516e+06
1.06736e+07
7.06134e+06
6.80954e+06
3.63297e+07
1.0452e+07
1.03818e+07
4.02264e+06
7.42686e+07
4.01373e+06
7.51396e+06
4.77019e+06
3.5771e+06
1.96218e+06
6.48225e+06
8.62627e+06
7.23439e+06
2.87764e+06
5.61418e+06
7.33016e+06
5.01173e+06
6.23697e+06
3.97287e+06
7.8526e+06
2.80766e+07
7.89313e+06
6.48072e+06
6.44028e+06
4.84536e+06
1.0671e+07
6.72168e+06
4.10975e+06
3.04902e+06
2.66319e+07
5.28035e+07
5.42451e+06
3.69799e+06
7.08883e+06
4.01958e+06
1.43712e+06
5.02482e+06
6.90139e+06
4.73613e+07
3.98145e+06
5.35562e+06
6.35625e+06
4.09084e+07
8.63326e+06
6.85181e+06
9.20588e+06
9.45198e+06
7.14089e+06
3.94949e+06
1.48222e+07
3.73072e+07
7.26268e+06
5.60583e+06
3.71019e+06
3.99074e+06
3.97971e+06
1.25695e+06
3.47036e+07
4.20809e+06
2.38305e+07
8.77442e+06
8.51713e+06
2.66371e+07
4.16034e+06
4.14913e+06
4.09726e+06
4.12735e+06
6.73431e+06
8.57886e+06
3.96833e+06
6.5602e+06
480442
9.74322e+06
2.24638e+07
1.18693e+07
5.62884e+07
2.60848e+06
9.97447e+06
6.71684e+06
7.05386e+06
9.42134e+06
1.1376e+07
8.12704e+06
7.41067e+06
5.59337e+06
4.25918e+06
1.95923e+07
1.15058e+07
8.79167e+06
6.62066e+06
4.09633e+07
1.03921e+07
1.21079e+07
4.88506e+06
3.32217e+07
3.40472e+07
4.86993e+06
1.80862e+06
4.12153e+07
1.47435e+06
4.42842e+07
7.22785e+06
4.64835e+06
2.60523e+07
7.46156e+06
7.78959e+06
7.4374e+06
3.88669e+06
9.33288e+07
2.16313e+07
2.34884e+07
3.49407e+06
1.04626e+07
7.98065e+06
4.99124e+06
8.69692e+06
1.28455e+07
3.29601e+06
7.49963e+06
1.25979e+07
1.20387e+07
5.71969e+06
4.92026e+06
4.00554e+06
1.17694e+07
2.21903e+07
3.85965e+07
1.08355e+07
5.12336e+06
2.94156e+07
6.88662e+06
5.04877e+06
9.5219e+06
1.26803e+07
8.78056e+06
6.34414e+06
4.63219e+07
1.52868e+07
4.38696e+07
1.81599e+07
3.46388e+07
1.1419e+07
1.13909e+07
5.5198e+06
4.11131e+06
5.3121e+06
6.0226e+06
5.71433e+06
5.09543e+07
3.68136e+06
1.31759e+06
8.03453e+06
4.03675e+07
1.20468e+07
7.63568e+06
5.84344e+06
1.00362e+07
9.28492e+06
2.81187e+07
6.04727e+06
4.54227e+06
3.25565e+07
2.0513e+07
7.42313e+06
4.42832e+06
7.42923e+06
9.11915e+07
3.54762e+06
1.57216e+07
1.56397e+07
3.18387e+06
3.32972e+06
8.53592e+06
1.59263e+07
6.80322e+06
4.98946e+06
4.79298e+06
2.38407e+07
4.02951e+07
1.44704e+06
1.4134e+07
6.85532e+06
3.96351e+06
2.8451e+07
2.39403e+06
5.13049e+06
7.13413e+06
8.50692e+06
9.51444e+06
3.04933e+07
5.38316e+06
1.10423e+07
1.0106e+07
1.31176e+07
1.19751e+07
1.36797e+06
1.23393e+06
3.84863e+06
1.18462e+07
1.39222e+07
1.25642e+07
2.1677e+06
3.91037e+06
9.21168e+06
6.12214e+06
1.00015e+07
6.15926e+06
9.59037e+06
1.08887e+07
3.22247e+06
4.73973e+07
3.47105e+07
4.35773e+07
7.07387e+06
5.45337e+06
761216
1.92695e+06
3.87366e+07
5.12136e+06
8.26373e+06
7.27546e+06
1.51803e+06
4.10107e+06
2.27859e+07
6.79096e+06
6.90995e+06
1.5655e+07
1.69638e+06
4.3582e+07
1.81452e+06
1.44278e+06
893924
5.05676e+06
4.2297e+07
832518
3.91119e+06
9.46808e+06
3.80701e+06
4.19686e+06
9.57756e+06
1.04308e+07
4.54387e+06
1.65749e+07
7.05713e+06
1.59236e+07
1.19259e+07
5.61515e+06
1.16017e+07
3.4745e+06
3.99099e+07
3.97254e+06
3.60054e+07
3.2144e+07
1.26374e+07
1.19659e+06
6.23435e+06
1.94072e+06
4.13621e+07
7.30999e+06
1.70647e+07
7.0233e+06
5.0187e+06
96817.8
1.2528e+06
1.62684e+07
4.09109e+06
7.15851e+06
1.68628e+07
6.75565e+06
1.84238e+07
2.6855e+07
2.28363e+06
1.79879e+07
7.37656e+06
6.54924e+06
8.88056e+06
1.14854e+07
4.44676e+06
7.40703e+06
1.33753e+07
3.72353e+06
8.78127e+06
5.64126e+07
1.02573e+07
3.4525e+06
1.324e+07
8.14809e+06
1.21736e+07
2.67604e+06
6.67247e+06
1.8919e+07
1.45554e+07
1.84808e+06
2.03162e+07
5.70744e+07
1.05496e+07
1.48706e+07
8.12904e+06
7.13985e+06
1.40471e+07
1.20089e+07
1.64575e+07
1.8641e+07
1.79377e+07
2.72074e+07
9.70496e+06
2.48397e+07
1.42351e+07
1.0043e+07
5.85823e+06
9.9515e+06
9.83857e+06
7.95323e+06
1.09395e+07
7.90032e+06
1.2674e+07
1.17665e+07
3.28271e+07
5.22595e+06
7.89652e+06
5.82428e+06
5.88277e+06
3.20956e+06
4.41468e+07
8.19851e+06
2.43171e+07
1.16695e+07
4.24902e+06
3.43241e+07
4.55959e+06
5.15531e+06
1.19933e+07
9.59616e+06
6.79822e+06
5.99083e+06
2.46773e+06
6.59732e+06
4.50513e+06
3.32352e+06
8.15786e+06
3.62783e+06
9.58901e+06
1.01301e+07
1.17767e+07
3.36296e+06
8.21025e+06
6.71288e+06
3.95099e+06
4.15568e+06
3.91398e+06
5.36667e+07
4.15746e+06
9.1514e+06
4.4666e+06
3.19343e+07
1.1897e+07
6.67919e+06
1.11953e+07
5.09986e+07
8.48025e+06
5.1733e+06
4.15917e+06
989149
7.2847e+06
1.39247e+07
3.03653e+07
7.12192e+06
2.94465e+07
6.94207e+06
3.06097e+06
2.72006e+07
5.44001e+06
4.049e+06
9.49589e+06
7.62369e+06
7.36461e+06
270132
3.46981e+06
1.74223e+06
5.72094e+06
3.3514e+06
9.19838e+06
3.66722e+06
3.3408e+07
2.86416e+06
4.86686e+06
4.73291e+06
3.03894e+06
8.68001e+06
3.06748e+06
4.73738e+06
9.03251e+07
1.59544e+07
6.41854e+06
7.06042e+06
3.26129e+06
2.03804e+07
2.66746e+07
2.39569e+07
1.95263e+06
3.67952e+06
2.62943e+06
3.93532e+06
1.06959e+07
6.25313e+06
3.32825e+06
1.45691e+07
2.60519e+06
6.69911e+06
6.52598e+06
8.02849e+06
6.49972e+06
2.78617e+07
1.70392e+06
4.4265e+07
8.26663e+06
1.43114e+07
2.50368e+06
1.04036e+07
4.79368e+06
5.7876e+06
2.45023e+07
4.111e+06
2.77029e+07
6.0912e+06
6.7458e+06
2.84862e+07
5.37468e+06
4.37161e+06
263027
198959
4.31431e+06
2.33765e+07
6.60294e+06
2.81776e+06
4.16188e+06
4.38288e+06
1.69257e+07
1.1974e+07
1.76558e+07
9.50837e+06
2.87299e+07
6.07411e+06
8.65238e+06
1.4635e+07
1.31656e+07
3.7184e+06
1.06512e+07
1.51398e+07
4.7076e+07
9.60024e+06
9.01828e+06
4.19079e+06
1.65397e+07
8.11613e+06
4.41692e+06
2.0296e+07
1.28211e+07
1.47267e+06
5.86088e+06
1.17117e+07
6.67502e+06
5.18693e+06
6.35121e+06
4.20485e+06
2.54397e+07
3.60268e+07
5.32421e+06
8.1216e+06
7.9422e+06
8.04293e+06
4.14785e+06
1.49402e+07
3.96167e+07
3.6705e+07
9.61547e+06
1.40255e+07
6.07639e+06
9.45122e+06
9.11556e+06
8.28995e+06
8.08612e+06
7.72346e+06
1.3489e+07
6.96455e+06
1.24623e+08
1.03912e+07
1.31785e+07
1.03158e+07
1.15086e+07
8.91024e+06
7.33697e+06
1.31996e+07
7.8517e+06
2.17922e+06
8.63693e+06
1.16046e+07
4.55209e+06
3.8168e+07
4.14614e+07
8.15751e+06
2.71051e+07
4.45377e+06
4.23011e+06
1.45501e+07
3.82871e+06
3.98265e+06
1.22601e+07
6.81455e+06
3.19974e+06
8.5511e+06
3.44585e+06
8.58837e+06
5.27924e+06
6.65578e+06
1.96887e+07
4.37567e+06
3.6209e+07
3.9598e+06
6.28111e+06
5.31456e+07
1.00679e+07
4.48831e+06
4.37138e+07
2.64589e+07
9.41771e+06
8.20027e+06
6.28647e+06
6.64153e+06
2.78134e+06
8.09566e+06
1.25741e+07
4.34008e+06
9.41466e+06
9.65662e+06
2.35272e+07
8.34531e+06
1.02198e+07
7.65321e+06
1.23165e+07
4.76833e+06
5.15726e+07
8.27043e+06
3.2782e+07
3.51907e+06
3.84175e+06
3.86644e+06
2.25926e+07
6.28299e+06
694057
3.59033e+07
3.0543e+07
5.74151e+06
5.69641e+06
4.62129e+07
5.556e+06
3.05211e+06
5.09942e+06
7.95929e+06
4.32556e+07
7.22401e+06
7.09927e+06
7.43132e+06
9.12022e+06
1.40644e+07
2.04512e+07
7.75837e+06
1.1806e+07
618709
1.24018e+07
1.19296e+07
1.85922e+07
2.58036e+07
4.18709e+06
406850
8.18661e+06
1.44817e+07
8.87286e+06
3.61802e+06
2.6882e+06
2.3418e+06
1.79825e+07
1.05789e+08
4.11932e+06
189254
1.06144e+07
6.52657e+06
7.77615e+06
2.11973e+07
5.71894e+06
5.60394e+06
8.28482e+06
1.00577e+07
8.83756e+06
7.74662e+07
3.11892e+06
3.92021e+06
3.85569e+06
1.50651e+08
2.70793e+06
7.07394e+06
1.08389e+07
4.08044e+06
4.37841e+06
1.18032e+07
4.23589e+07
1.72978e+07
8.08717e+06
9.51936e+06
1.41912e+07
1.42585e+07
9.02053e+06
1.08255e+07
5.87565e+06
6.0624e+06
2.9971e+06
3.25053e+06
1.09358e+07
1.44696e+07
2.03795e+07
6.61729e+07
3.99287e+06
3.86105e+06
7.39515e+06
1.58005e+07
6.20295e+06
5.6136e+06
1.38336e+07
4.17225e+06
1.09027e+07
2.92674e+06
2.25393e+06
3.36086e+07
1.11332e+07
3.94251e+06
2.96994e+07
1.31696e+07
4.73157e+06
4.64009e+06
3.39051e+07
1.20895e+07
4.14492e+06
7.90572e+06
3.40642e+07
3.47819e+07
4.42452e+06
2.21437e+06
1.20906e+07
6.01354e+06
6.07883e+06
5.55071e+06
1.00816e+07
4.46543e+07
5.81311e+06
8.01059e+06
8.95573e+06
4.6818e+06
1.07501e+07
3.75347e+06
1.2797e+07
1.63366e+08
3.58127e+06
3.83376e+06
5.27238e+06
1.95506e+07
2.45098e+07
1.53852e+07
2.16111e+07
1.36276e+07
5.64234e+06
8.06361e+06
7.54155e+06
1.6454e+07
5.20688e+06
3.27535e+06
9.64611e+06
1.26806e+07
1.32149e+07
7.30403e+06
7.77612e+06
1.10417e+07
6.95894e+06
7.35039e+06
1.87769e+07
9.22542e+06
2.71679e+06
7.13041e+06
4.01218e+06
2.01441e+07
4.00802e+06
1.29212e+07
3.59062e+06
1.26302e+06
1.36364e+07
5.38674e+06
2.56251e+06
906639
1.97797e+07
2.01244e+07
2.01159e+07
1.93684e+07
7.79044e+06
1.35321e+07
5.89535e+06
2.82592e+06
7.48358e+06
7.17065e+06
8.47006e+06
1.35816e+07
1.0974e+07
1.06646e+07
1.94977e+07
7.70465e+06
1.06637e+07
1.83686e+06
2.42819e+06
2.3412e+06
2.74658e+06
7.78415e+06
5.52203e+06
5.29622e+06
6.21988e+06
6.15749e+06
6.18599e+06
6.08422e+06
7.06682e+06
8.86531e+06
9.58502e+06
8.98718e+06
1.42115e+07
8.43059e+06
4.15522e+07
3.08469e+06
2.82225e+06
1.79633e+07
9.11784e+06
9.10393e+06
1.33797e+07
3.97633e+06
5.96118e+06
2.07051e+07
7.23334e+06
3.46011e+06
1.27806e+07
1.35006e+07
6.56401e+06
9.07919e+06
9.87628e+06
8.65355e+06
7.4019e+06
8.73287e+06
1.94591e+06
5.40433e+06
5.31527e+06
5.34936e+06
7.06843e+06
6.9828e+06
5.34267e+06
6.79958e+06
1.04035e+07
5.97169e+06
7.73406e+06
1.06e+07
2.92484e+06
4.05322e+06
974356
7.35529e+06
7.68338e+06
2.89731e+06
4.24353e+06
7.17653e+06
6.45762e+06
4.94541e+06
1.33513e+06
9.39435e+07
3.11583e+06
1.57864e+07
1.71045e+07
7.10728e+06
1.86742e+07
3.18124e+07
1.25166e+07
7.3781e+06
2.07656e+07
4.1949e+06
3.03663e+06
5.96886e+06
6.40682e+06
7.85922e+06
7.21801e+06
7.31992e+06
5.66146e+06
6.81595e+06
3.5775e+06
2.60021e+06
5.09238e+07
4.16788e+06
1.40059e+08
3.23639e+07
2.81362e+07
1.40175e+07
4.19222e+06
4.70396e+06
4.66594e+06
8.48595e+06
4.95894e+06
6.57227e+06
1.16537e+07
1.50754e+07
1.48999e+07
3.41777e+07
1.44064e+07
1.03032e+07
1.06659e+07
1.02566e+07
3.57226e+07
1.00127e+07
8.65975e+06
9.70767e+06
5.39012e+06
1.72971e+07
3.94301e+07
1.58371e+07
5.59139e+06
1.14639e+06
8.69148e+06
7.97639e+06
7.97564e+06
1.06252e+07
2.23717e+07
8.80266e+06
2.43e+08
9.15417e+06
8.65901e+06
1.64615e+07
2.02427e+07
6.94933e+06
6.58763e+06
1.79731e+06
4.88628e+07
1.07339e+07
1.00749e+07
1.12508e+07
8.15671e+06
3.9283e+06
4.18017e+06
7.8308e+07
2.14576e+06
1.12216e+07
4.17337e+06
4.56154e+06
4.21624e+06
6.47174e+06
8.15397e+06
1.07085e+07
6.84251e+06
3.81094e+07
7.29617e+06
6.34002e+06
1.85015e+08
8.18233e+06
1.56419e+07
7.36255e+06
7.39732e+06
2.19506e+07
1.27107e+07
7.80914e+06
9.13575e+06
6.89873e+06
4.74507e+06
133630
7.11805e+06
4.07204e+07
3.02548e+07
4.91189e+06
7.23741e+06
1.16626e+07
1.42533e+07
1.23218e+07
817826
1.07449e+07
1.00503e+07
7.46362e+06
1.17868e+06
1.07385e+07
8.98225e+06
1.5068e+07
8.64033e+06
4.18174e+06
2.40373e+06
4.54493e+06
4.81575e+06
5.47248e+07
1.03335e+08
7.76849e+06
7.53293e+06
5.75353e+06
2.82387e+06
5.02539e+06
5.3232e+06
7.0469e+06
3.47657e+06
5.70707e+06
6.07265e+06
4.22803e+06
1.95036e+07
1.79064e+07
1.12627e+07
6.57164e+06
3.65874e+06
5.11237e+06
7.11742e+06
1.33505e+07
1.39679e+07
1.00549e+07
4.98027e+06
7.97202e+06
4.02443e+06
4.34599e+06
2.31935e+07
4.95682e+06
5.1357e+06
9.04706e+06
9.7485e+06
1.39998e+08
4.37049e+06
4.34976e+06
6.51792e+06
4.97373e+06
5.97698e+06
4.41182e+07
4.55903e+06
4.1424e+07
6.20037e+06
4.91965e+06
4.13611e+06
6.34308e+06
5.05245e+06
2.37688e+06
7.36594e+06
2.9447e+06
2.83505e+06
1.81996e+07
1.41036e+07
9.37916e+06
1.2535e+07
1.34984e+07
1.35308e+07
2.65914e+07
6.05957e+06
5.90912e+06
4.72854e+06
5.13491e+06
45212
44274.7
4.42661e+06
1.83072e+07
2.8978e+07
1.65722e+07
8.64958e+06
2.61286e+07
3.30674e+06
1.51212e+07
2.47075e+06
5.14711e+06
1.81849e+07
2.10814e+06
5.00153e+06
1.94095e+07
1.07318e+07
1.02706e+07
1.00409e+07
1.57103e+07
1.03199e+07
6.73482e+06
1.00067e+07
4.49783e+07
8.10114e+06
7.85928e+06
5.42502e+06
5.9333e+06
2.44616e+07
4.82221e+07
6.83712e+06
9.80663e+06
1.71789e+07
1.93438e+07
4.4272e+06
6.90318e+06
6.66525e+06
7.08055e+06
2.21817e+07
2.90112e+07
3.24039e+06
3.16188e+07
1.16147e+07
4.28294e+06
4.38937e+07
4.57148e+06
4.80681e+06
7.16331e+06
6.89526e+06
1.82186e+07
1.58936e+07
4.84888e+07
1.04589e+07
1.68541e+07
3.20964e+07
3.67998e+06
7.3399e+06
8.46248e+06
4.86874e+06
4.18841e+06
1.72705e+07
5.5611e+06
536938
5.68142e+06
6.31093e+06
1.61535e+07
3.84441e+06
1.3596e+07
7.2269e+06
6.90877e+06
1.57369e+07
6.38012e+06
163007
1.57196e+07
4.08154e+06
2.80009e+07
1.21208e+07
3.76338e+06
7.78015e+06
3.75111e+07
9.56934e+06
6.25033e+06
7.76673e+06
7.28692e+06
1.07012e+07
5.22688e+06
4.57916e+06
5.42436e+06
3.60385e+07
1.15938e+07
6.37109e+06
6.38876e+06
8.30105e+06
1.99545e+07
3.53521e+07
1.10362e+07
47591.9
43494.5
3.47985e+07
1.43477e+07
1.03739e+07
8.87797e+06
8.98496e+06
1.21908e+07
1.24921e+07
1.74629e+07
9.87959e+06
8.64359e+06
1.68652e+07
2.7269e+07
3.20168e+07
1.38728e+07
4.45107e+06
2.38026e+06
2.20145e+06
3.84773e+07
1.93029e+06
5.0334e+06
4.97305e+06
7.74704e+06
7.31302e+06
7.5076e+06
1.25172e+07
2.17033e+07
1.16596e+07
1.1523e+07
3.92054e+07
3.05216e+06
3.2494e+06
1.03736e+07
2.00664e+06
9.01664e+06
5.30826e+06
5.23377e+06
5.60438e+06
3.44082e+07
2.01264e+06
3.81268e+06
4.02961e+06
2.3589e+06
1.8179e+07
1.96698e+07
5.78384e+06
7.85013e+06
9.61868e+06
9.25328e+06
111246
8.40318e+06
1.19675e+07
1.35936e+07
2.12657e+06
2.28169e+06
3.62531e+07
3.24333e+06
6.57383e+06
1.08075e+07
3.31832e+07
1.1632e+07
4.18695e+07
8.14887e+06
1.93873e+07
1.048e+07
1.09139e+07
2.39146e+07
4.46835e+06
4.22527e+06
4.11192e+06
1.10981e+07
2.68695e+06
2.57365e+06
3.77461e+07
8.5909e+06
1.1104e+07
8.43463e+06
3.27011e+06
1.03449e+06
1.35217e+06
1.34335e+07
4.69638e+06
9.93099e+06
6.15586e+06
5.71294e+06
7.48707e+06
783999
6.87988e+06
7.16121e+06
4.44737e+06
4.08794e+06
5.8986e+07
3.96905e+06
6.86725e+06
1.25221e+07
6.84526e+06
1.01589e+07
4.35732e+06
8.53754e+06
4.8395e+06
7.2663e+06
7.22522e+06
6.8747e+06
6.60068e+06
3.7365e+06
3.62168e+06
5.07982e+06
5.30309e+06
7.28925e+06
895088
699828
2.28221e+07
9.7617e+06
9.56755e+06
2.96859e+07
1.37056e+07
1.67241e+07
4.44176e+06
100548
2.84101e+07
5.26751e+06
3.91273e+07
5.30826e+06
7.44909e+06
7.08684e+06
7.27688e+06
3.64927e+06
3.72065e+06
1.0585e+07
7.85404e+06
3.28494e+06
1.11075e+06
5.68194e+06
1.10806e+07
2.49473e+07
2.58547e+07
1.14824e+07
6.97545e+06
4.29269e+07
4.05933e+06
4.1358e+06
1.34487e+07
2.18821e+07
1.62692e+07
5.61096e+06
1.70152e+07
2.6621e+06
5.54283e+06
4.59707e+06
2.10747e+07
6.9011e+06
1.37679e+06
2.48536e+07
2.24653e+07
9.75938e+06
9.30173e+06
1.41441e+07
3.52032e+06
3.40471e+06
6.23502e+06
9.87065e+06
9.4099e+06
7.60503e+06
4.65011e+06
1.88189e+07
4.25228e+06
6.07477e+06
7.03045e+06
8.12528e+06
1.43217e+07
3.70005e+07
3.25102e+07
7.35275e+06
1.84455e+07
2.99121e+07
8.28059e+06
4.66207e+06
4.45886e+06
4.02711e+06
3.82787e+06
1.01745e+07
1.83933e+07
8.30483e+06
6.30177e+06
2.90989e+06
3.1897e+06
5.82968e+06
1.40461e+07
1.25698e+07
8.24413e+06
4.95822e+06
5.58078e+06
1.90406e+06
4.7938e+06
3.79845e+06
3.23324e+06
7.7211e+06
8.01648e+06
1.12948e+07
1.54306e+07
1.47139e+06
6.95249e+06
6.87591e+06
1.40678e+07
3.6664e+07
1.09914e+07
1.52883e+07
4.56563e+07
2.15627e+07
4.45816e+06
1.60093e+07
3.41683e+06
4.6903e+06
4.05207e+06
7.80223e+06
7.39912e+06
3.50689e+06
1.42794e+06
6.21629e+06
2.41435e+07
5.41263e+06
1.26351e+07
1.24803e+06
4.57273e+06
4.53474e+06
2.29538e+07
1.74642e+07
9.35959e+06
5.71037e+06
5.14681e+06
7.67736e+06
1.97993e+07
2.0088e+07
1.5167e+07
1.43217e+06
4.29539e+06
3.43692e+06
3.17681e+06
6.48383e+06
2.99647e+07
7.33647e+06
1.19669e+07
6.83117e+06
1.10465e+07
2.64325e+06
4.64271e+07
4.91287e+07
1.12547e+07
7.50207e+06
7.58108e+06
4.4751e+07
1.01533e+07
2.83481e+07
5.90439e+06
3.04963e+06
3.94287e+06
2.77391e+07
5.83648e+06
7.79532e+06
7.16716e+06
8.01214e+06
3.64503e+06
1.24712e+06
1.09244e+06
7.35488e+06
6.46755e+06
8.31538e+06
3.11574e+06
2.61849e+06
5.64949e+06
7.12217e+06
3.45102e+06
1.6584e+07
2.98163e+06
4.01672e+06
4.91135e+06
5.17722e+06
2.7577e+06
2.38978e+06
5.37254e+06
2.94297e+06
1.6825e+07
1.09731e+07
9.77009e+06
3.78119e+06
8.141e+06
3.30853e+06
2.60239e+07
2.83979e+07
6.94929e+06
6.79548e+06
6.31513e+06
7.47773e+06
7.1847e+06
2.75557e+06
4.41669e+06
4.68309e+06
1.01952e+07
1.06869e+07
7.10481e+06
1.25413e+07
8.91997e+06
8.48756e+06
7.59137e+06
2.2565e+07
2.83938e+06
1.34829e+07
1.19846e+07
1.50327e+07
5.64811e+06
6.76352e+06
1.74529e+07
1.68722e+07
6.61961e+06
7.07696e+06
1.01355e+06
4.22831e+06
5.83606e+06
6.96905e+06
4.11206e+06
4.89439e+06
5.89682e+06
5.74456e+06
8.79867e+06
1.37182e+07
1.7595e+06
5.04362e+06
4.85097e+06
1.27378e+07
1.21068e+07
6.9703e+06
2.39472e+06
3.35437e+06
3.09248e+06
3.02348e+06
1.32294e+07
5.18307e+06
5.46428e+06
7.39642e+06
1.49696e+07
1.29492e+07
1.2754e+07
1.08675e+07
8.57706e+06
4.42812e+06
40279.6
27337
4.62876e+06
1.02692e+07
5.94389e+06
3.92968e+06
4.00153e+06
8.15309e+06
6.6251e+06
9.69316e+06
2.19797e+07
2.73226e+07
5.66378e+06
9.03545e+06
9.54447e+06
7.69382e+06
7.30125e+06
7.88242e+06
1.83236e+07
1.59991e+07
1.56864e+06
1.7448e+06
5.16659e+06
4.80243e+06
5.14672e+06
8.09453e+06
7.5449e+06
7.49351e+06
7.72037e+06
3.44023e+07
3.40671e+07
9.35749e+06
8.89049e+06
9.00578e+06
9.1436e+06
4.07312e+06
)
;

boundaryField
{
    back
    {
        type            empty;
    }
    front
    {
        type            empty;
    }
    down
    {
        type            calculated;
        value           nonuniform List<scalar> 
30
(
1.29959e+07
4.27947e+06
5.3139e+06
5.85077e+06
7.23439e+06
7.14089e+06
2.60848e+06
6.0226e+06
6.67247e+06
3.9598e+06
3.05211e+06
4.64009e+06
4.00802e+06
3.97633e+06
7.23334e+06
4.24353e+06
7.17653e+06
4.94541e+06
6.34002e+06
4.18174e+06
4.72854e+06
4.42661e+06
6.73482e+06
1.04589e+07
5.68142e+06
6.87988e+06
4.08794e+06
7.22522e+06
4.44176e+06
5.26751e+06
)
;
    }
    right
    {
        type            calculated;
        value           nonuniform List<scalar> 
20
(
4.42028e+06
250956
514648
4.83353e+06
78059.4
1.59919e+06
2.94008e+06
3.39019e+06
5.0187e+06
96817.8
4.08044e+06
4.74507e+06
133630
817826
1.17868e+06
5.13491e+06
44274.7
2.47075e+06
2.01264e+06
3.81268e+06
)
;
    }
    up
    {
        type            calculated;
        value           nonuniform List<scalar> 
40
(
482094
1.44551e+07
1.83348e+07
3.71636e+07
114158
2.00497e+07
2.9897e+07
2.94579e+06
4.01374e+07
5.32564e+06
2.80766e+07
9.74322e+06
8.50692e+06
2.27859e+07
1.69638e+06
1.26374e+07
1.19659e+06
4.13621e+07
1.09395e+07
270132
2.45023e+07
4.37567e+06
2.25393e+06
7.17065e+06
2.07051e+07
1.64615e+07
45212
1.65722e+07
3.16188e+07
3.67998e+06
6.31093e+06
1.21208e+07
2.17033e+07
111246
4.18695e+07
3.77461e+07
9.93099e+06
783999
2.28221e+07
100548
)
;
    }
    left
    {
        type            calculated;
        value           nonuniform List<scalar> 10(1.53805e+08 2.11416e+07 4.49335e+07 6.09077e+07 1.52868e+07 3.87366e+07 2.81362e+07 3.02548e+07 1.03335e+08 1.16596e+07);
    }
    hole
    {
        type            calculated;
        value           nonuniform List<scalar> 
16
(
1.69637e+07
3.86196e+07
2.43e+08
2.05531e+08
1.54916e+07
2.94089e+07
2.24638e+07
1.64575e+07
3.43241e+07
9.03251e+07
4.4265e+07
2.54397e+07
1.96887e+07
5.31456e+07
1.50651e+08
2.43e+08
)
;
    }
}


// ************************************************************************* //
