/*--------------------------------*- C++ -*----------------------------------*\
| =========                 |                                                 |
| \\      /  F ield         | OpenFOAM: The Open Source CFD Toolbox           |
|  \\    /   O peration     | Version:  v2012                                 |
|   \\  /    A nd           | Website:  www.openfoam.com                      |
|    \\/     M anipulation  |                                                 |
\*---------------------------------------------------------------------------*/
FoamFile
{
    version     2.0;
    format      ascii;
    class       pointVectorField;
    location    "11";
    object      pointD;
}
// * * * * * * * * * * * * * * * * * * * * * * * * * * * * * * * * * * * * * //

dimensions      [0 1 0 0 0 0 0];


internalField   nonuniform List<vector> 
32562
(
(0.00371678 0 2.16933e-21)
(0.00499659 0 2.28268e-21)
(0.00459779 -0.000384346 -3.09306e-21)
(0 -0.00283712 5.30768e-22)
(0 -0.00135415 3.84388e-20)
(0.00382763 0 0)
(0 -0.00266748 0)
(0.00242702 -0.000764352 0)
(0.0011187 -0.00141989 3.9777e-21)
(0.00482015 -9.71779e-05 -1.50188e-20)
(0.00289193 -0.00118785 6.02014e-22)
(0.00289193 -0.00118785 6.02014e-22)
(0.00242702 -0.000764352 0)
(0 -0.00266748 0)
(0 -0.00135415 3.84388e-20)
(0.00371678 0 2.16933e-21)
(0.00382763 0 0)
(0.00499659 0 2.28268e-21)
(0.00482015 -9.71779e-05 -1.50188e-20)
(0.00459779 -0.000384346 -3.09306e-21)
(0.0011187 -0.00141989 3.9777e-21)
(0 -0.00283712 5.30768e-22)
(5.20885e-05 -0.00266407 0)
(0.000104379 -0.00265403 0)
(0.000157034 -0.00263783 0)
(0.000210279 -0.002616 0)
(0.000264561 -0.00258882 0)
(0.000320313 -0.00255641 0)
(0.000377836 -0.00251886 0)
(0.000437325 -0.00247635 0)
(0.000498841 -0.00242919 0)
(0.00056231 -0.00237777 0)
(0.000627569 -0.00232261 0)
(0.000694356 -0.00226433 0)
(0.000762354 -0.00220359 0)
(0.000831192 -0.00214109 0)
(0.000900407 -0.00207758 0)
(0.000969419 -0.00201388 0)
(0.00103742 -0.00195106 0)
(0.00110351 -0.00189021 0)
(0.00116709 -0.00183189 0)
(0.00122831 -0.00177587 0)
(0.00128791 -0.00172131 0)
(0.00134692 -0.00166721 0)
(0.00140613 -0.00161289 0)
(0.00146562 -0.00155834 0)
(0.0015252 -0.00150393 0)
(0.00158492 -0.00144983 0)
(0.00164475 -0.00139615 0)
(0.00170463 -0.00134302 0)
(0.00176458 -0.00129052 0)
(0.00182455 -0.00123875 0)
(0.00188453 -0.00118778 0)
(0.00194446 -0.00113767 0)
(0.00200433 -0.00108848 0)
(0.00206408 -0.00104029 0)
(0.00212372 -0.000993089 0)
(0.00218313 -0.000947012 0)
(0.00224239 -0.000901986 0)
(0.00230129 -0.000858205 0)
(0.00236005 -0.000815494 0)
(0.00249089 -0.000720595 0)
(0.00254819 -0.000681666 0)
(0.00260489 -0.000644095 0)
(0.00266095 -0.000607843 0)
(0.00271633 -0.000572926 0)
(0.00277101 -0.000539294 0)
(0.0028249 -0.000506954 0)
(0.00287798 -0.00047588 0)
(0.00293017 -0.00044607 0)
(0.00298142 -0.000417507 0)
(0.00303167 -0.000390182 0)
(0.00308087 -0.000364078 0)
(0.00312895 -0.000339177 0)
(0.00317586 -0.000315461 0)
(0.00322155 -0.000292901 0)
(0.00326595 -0.000271476 0)
(0.00330902 -0.000251164 0)
(0.00335069 -0.000231931 0)
(0.00339092 -0.000213742 0)
(0.00342965 -0.000196569 0)
(0.00346684 -0.00018037 0)
(0.00350244 -0.000165114 0)
(0.00353639 -0.000150758 0)
(0.00356866 -0.000137263 0)
(0.0035992 -0.000124586 0)
(0.00362797 -0.000112683 0)
(0.00365493 -0.000101508 0)
(0.00368005 -9.10164e-05 0)
(0.00370329 -8.11588e-05 0)
(0.00372462 -7.18869e-05 0)
(0.00374401 -6.31506e-05 0)
(0.00376143 -5.48992e-05 0)
(0.00377685 -4.70808e-05 0)
(0.00379027 -3.96432e-05 0)
(0.00380165 -3.25329e-05 0)
(0.00381099 -2.56966e-05 0)
(0.00381826 -1.90798e-05 0)
(0.00382347 -1.2628e-05 0)
(0.00382659 -6.28643e-06 0)
(0.00372233 0 0)
(0.00372921 0 0)
(0.00373558 0 0)
(0.00374148 0 0)
(0.00374694 0 0)
(0.00375201 0 0)
(0.00375671 0 0)
(0.00376108 0 0)
(0.00376514 0 0)
(0.00376892 0 0)
(0.00377244 0 0)
(0.00377573 0 0)
(0.00377879 0 0)
(0.00378167 0 0)
(0.00378437 0 0)
(0.0037869 0 0)
(0.00378929 0 0)
(0.00379155 0 0)
(0.00379368 0 0)
(0.00379572 0 0)
(0.00379765 0 0)
(0.0037995 0 0)
(0.00380128 0 0)
(0.00380299 0 0)
(0.00380465 0 0)
(0.00380626 0 0)
(0.00380782 0 0)
(0.00380936 0 0)
(0.00381086 0 0)
(0.00381234 0 0)
(0.00381381 0 0)
(0.00381527 0 0)
(0.00381672 0 0)
(0.00381817 0 0)
(0.00381962 0 0)
(0.00382108 0 0)
(0.00382255 0 0)
(0.00382404 0 0)
(0.00382554 0 0)
(0.003831 0 0)
(0.0038351 0 0)
(0.00383943 0 0)
(0.00384399 0 0)
(0.00384882 0 0)
(0.00385394 0 0)
(0.00385935 0 0)
(0.00386507 0 0)
(0.00387111 0 0)
(0.00387748 0 0)
(0.00388417 0 0)
(0.00389121 0 0)
(0.00389859 0 0)
(0.00390631 0 0)
(0.00391437 0 0)
(0.00392279 0 0)
(0.00393154 0 0)
(0.00394064 0 0)
(0.00395008 0 0)
(0.00395987 0 0)
(0.00396999 0 0)
(0.00398046 0 0)
(0.00399126 0 0)
(0.00400239 0 0)
(0.00401385 0 0)
(0.00402563 0 0)
(0.00403774 0 0)
(0.00405017 0 0)
(0.00406292 0 0)
(0.00407597 0 0)
(0.00408933 0 0)
(0.004103 0 0)
(0.00411697 0 0)
(0.00413123 0 0)
(0.00414578 0 0)
(0.00416062 0 0)
(0.00417573 0 0)
(0.00419113 0 0)
(0.0042068 0 0)
(0.00422273 0 0)
(0.00423893 0 0)
(0.00425538 0 0)
(0.00427208 0 0)
(0.00428903 0 0)
(0.00430622 0 0)
(0.00432364 0 0)
(0.00434129 0 0)
(0.00435917 0 0)
(0.00437726 0 0)
(0.00439556 0 0)
(0.00441407 0 0)
(0.00443277 0 0)
(0.00445167 0 0)
(0.00447075 0 0)
(0.00449001 0 0)
(0.00450943 0 0)
(0.00452902 0 0)
(0.00454877 0 0)
(0.00456866 0 0)
(0.00458869 0 0)
(0.00460885 0 0)
(0.00462913 0 0)
(0.00464952 0 0)
(0.00467001 0 0)
(0.0046906 0 0)
(0.00471126 0 0)
(0.004732 0 0)
(0.00475279 0 0)
(0.00477363 0 0)
(0.0047945 0 0)
(0.00481539 0 0)
(0.00483629 0 0)
(0.00485717 0 0)
(0.00487804 0 0)
(0.00489885 0 0)
(0.00491961 0 0)
(0.00494029 0 0)
(0.00496088 0 0)
(0.00498134 0 0)
(0.00500153 -5.80608e-07 2.34394e-21)
(0.00500111 -1.16923e-06 2.21466e-21)
(0.00500041 -1.77384e-06 4.40996e-21)
(0.00499944 -2.40244e-06 -2.45959e-21)
(0.0049982 -3.06293e-06 2.07453e-21)
(0.00499668 -3.76322e-06 2.25853e-21)
(0.00499489 -4.51109e-06 7.02155e-24)
(0.00499283 -5.31431e-06 4.90897e-21)
(0.00499051 -6.18049e-06 7.75291e-22)
(0.00498792 -7.11722e-06 -3.70947e-21)
(0.00498508 -8.13187e-06 -6.90044e-21)
(0.00498198 -9.23183e-06 -5.61058e-21)
(0.00497864 -1.04242e-05 4.07613e-21)
(0.00497504 -1.1716e-05 7.51908e-21)
(0.00497121 -1.3114e-05 -3.92434e-22)
(0.00496715 -1.46251e-05 -1.02955e-20)
(0.00496286 -1.62555e-05 -1.07523e-20)
(0.00495834 -1.80117e-05 -4.5707e-21)
(0.00495362 -1.98996e-05 -3.107e-21)
(0.00494868 -2.19254e-05 -3.85357e-27)
(0.00494354 -2.40942e-05 1.48236e-21)
(0.00493821 -2.64119e-05 3.85379e-21)
(0.0049327 -2.88831e-05 2.37103e-21)
(0.004927 -3.15133e-05 3.37166e-21)
(0.00492114 -3.43064e-05 9.18289e-21)
(0.00491511 -3.72674e-05 5.81123e-21)
(0.00490894 -4.03995e-05 -2.41701e-21)
(0.00490262 -4.37073e-05 -1.31073e-21)
(0.00489617 -4.71934e-05 -4.90077e-21)
(0.00488959 -5.08616e-05 -4.72222e-21)
(0.0048829 -5.47138e-05 3.73939e-21)
(0.0048761 -5.87533e-05 4.91951e-21)
(0.00486921 -6.29814e-05 2.46449e-21)
(0.00486223 -6.74003e-05 -1.28806e-21)
(0.00485518 -7.2011e-05 1.1176e-20)
(0.00484806 -7.68144e-05 1.50561e-20)
(0.00484089 -8.18118e-05 1.02429e-20)
(0.00483367 -8.70018e-05 7.79081e-21)
(0.00482642 -9.23866e-05 -1.11636e-20)
(0.00481591 -0.000100494 -7.28315e-22)
(0.00481267 -0.000103067 3.48281e-21)
(0.00480944 -0.000105677 -5.09409e-21)
(0.0048062 -0.000108325 -5.56401e-21)
(0.00480296 -0.00011101 6.47901e-21)
(0.00479973 -0.000113733 -1.21072e-21)
(0.0047965 -0.000116492 -1.92801e-20)
(0.00479327 -0.000119288 -1.15904e-20)
(0.00479004 -0.000122121 2.99933e-21)
(0.00478682 -0.00012499 -2.57583e-21)
(0.00478361 -0.000127895 -5.57516e-21)
(0.0047804 -0.000130836 6.35388e-21)
(0.0047772 -0.000133812 -1.42797e-21)
(0.004774 -0.000136823 -1.92755e-20)
(0.00477082 -0.000139869 -1.14936e-20)
(0.00476764 -0.00014295 3.39578e-22)
(0.00476448 -0.000146065 -2.59593e-21)
(0.00476133 -0.000149214 -2.9355e-21)
(0.00475818 -0.000152396 -2.61876e-21)
(0.00475506 -0.00015561 -2.61876e-21)
(0.00475194 -0.000158858 -2.62664e-21)
(0.00474884 -0.000162137 -5.49864e-21)
(0.00474575 -0.000165448 -2.64902e-21)
(0.00474268 -0.000168791 6.11069e-21)
(0.00473963 -0.000172163 -2.03739e-21)
(0.00473659 -0.000175566 -1.6189e-20)
(0.00473357 -0.000178999 -5.32854e-21)
(0.00473057 -0.00018246 -5.14361e-21)
(0.00472759 -0.00018595 -1.3591e-20)
(0.00472463 -0.000189468 -8.17111e-21)
(0.00472168 -0.000193013 3.26046e-24)
(0.00471876 -0.000196585 -3.55441e-23)
(0.00471586 -0.000200182 -2.92615e-23)
(0.00471298 -0.000203805 5.31038e-21)
(0.00471012 -0.000207452 -2.66827e-21)
(0.00470729 -0.000211124 -5.24643e-21)
(0.00470448 -0.000214818 -2.47789e-23)
(0.00470169 -0.000218535 -2.77125e-21)
(0.00469892 -0.000222274 -2.68286e-21)
(0.00469618 -0.000226034 2.52377e-21)
(0.00469347 -0.000229814 -2.66712e-21)
(0.00469077 -0.000233613 -7.88354e-21)
(0.00468811 -0.000237431 1.97277e-21)
(0.00468546 -0.000241267 -3.15814e-21)
(0.00468285 -0.000245119 -1.50407e-20)
(0.00468026 -0.000248988 -7.19864e-23)
(0.00467769 -0.000252871 4.09739e-21)
(0.00467515 -0.000256769 -1.04194e-20)
(0.00467263 -0.000260681 -1.23873e-20)
(0.00467014 -0.000264604 -5.01563e-21)
(0.00466768 -0.00026854 -4.46859e-22)
(0.00466524 -0.000272486 -3.15699e-21)
(0.00466283 -0.000276441 -7.63659e-21)
(0.00466044 -0.000280406 -7.11862e-21)
(0.00465807 -0.000284378 2.69065e-21)
(0.00465573 -0.000288357 2.16865e-21)
(0.00465341 -0.000292342 -4.83966e-21)
(0.00465111 -0.000296332 4.18749e-21)
(0.00464884 -0.000300325 -1.83528e-21)
(0.00464659 -0.000304322 -1.16231e-20)
(0.00464436 -0.000308321 -4.14711e-21)
(0.00464215 -0.000312322 1.35395e-21)
(0.00463996 -0.000316322 2.73457e-21)
(0.00463779 -0.000320322 7.08355e-22)
(0.00463563 -0.000324321 -2.71715e-21)
(0.00463349 -0.000328316 -6.82749e-26)
(0.00463137 -0.000332309 2.38202e-25)
(0.00462926 -0.000336298 -4.65535e-21)
(0.00462716 -0.000340283 -1.15061e-21)
(0.00462507 -0.000344263 3.50384e-21)
(0.004623 -0.000348237 9.25712e-21)
(0.00462092 -0.000352204 5.73353e-21)
(0.00461886 -0.000356166 -5.42643e-21)
(0.0046168 -0.00036012 -1.90458e-21)
(0.00461474 -0.000364068 1.90338e-21)
(0.00461268 -0.000368009 -5.42972e-21)
(0.00461061 -0.000371943 -4.61889e-21)
(0.00460855 -0.000375871 -1.62629e-29)
(0.00460647 -0.000379793 -1.92496e-21)
(0.00457567 -0.000390246 -2.3233e-21)
(0.00454698 -0.000396768 -3.47882e-21)
(0.00451835 -0.00040326 -3.47506e-21)
(0.00448978 -0.000409675 -3.46845e-21)
(0.00446125 -0.000415961 -4.43706e-21)
(0.00443273 -0.000422081 -7.91295e-22)
(0.00440421 -0.000428004 1.33443e-21)
(0.00437565 -0.000433708 0)
(0.00434702 -0.000439174 1.00666e-21)
(0.0043183 -0.00044439 -1.48028e-21)
(0.00428947 -0.000449349 -3.80323e-21)
(0.00426048 -0.000454049 -2.49821e-21)
(0.00423132 -0.000458485 -3.43634e-21)
(0.00420195 -0.000462667 -3.4535e-21)
(0.00417236 -0.000466599 -3.61746e-21)
(0.00414252 -0.000470287 -2.41838e-21)
(0.00411241 -0.000473745 -2.56105e-21)
(0.004082 -0.000476981 -5.05052e-21)
(0.00405128 -0.000480012 -3.49288e-21)
(0.00402022 -0.000482851 1.70116e-21)
(0.0039888 -0.000485515 3.76781e-21)
(0.003957 -0.000488022 -3.13013e-21)
(0.00392481 -0.00049039 -6.76717e-21)
(0.0038922 -0.000492636 -3.78365e-21)
(0.00385916 -0.000494786 -2.50394e-21)
(0.00382567 -0.000496861 -2.66868e-21)
(0.00379171 -0.000498881 -2.82747e-21)
(0.00375727 -0.000500871 -2.86682e-21)
(0.00372233 -0.000502855 -3.88389e-23)
(0.00368688 -0.00050486 -1.47577e-21)
(0.0036509 -0.000506909 -2.78797e-21)
(0.00361437 -0.000509031 -3.00328e-21)
(0.00357728 -0.000511253 -3.13593e-21)
(0.00353962 -0.000513604 -1.61656e-21)
(0.00350137 -0.000516114 -3.03772e-21)
(0.00346251 -0.000518813 -1.57787e-21)
(0.00342304 -0.000521736 -1.70773e-21)
(0.00338295 -0.000524907 -1.31217e-21)
(0.00334222 -0.00052836 1.98127e-21)
(0.00330083 -0.000532138 -2.73117e-22)
(0.00325878 -0.000536269 -2.08093e-21)
(0.00321606 -0.000540794 -3.49475e-21)
(0.00317264 -0.000545745 -3.3596e-21)
(0.00312853 -0.000551173 -5.60886e-21)
(0.00308372 -0.000557106 -7.64048e-21)
(0.0030382 -0.000563569 -5.34217e-21)
(0.00299196 -0.00057063 1.17383e-21)
(0.002945 -0.000578325 5.9075e-21)
(0.00289732 -0.000586692 -2.58735e-22)
(0.0028489 -0.000595777 2.28582e-21)
(0.00279975 -0.000605623 5.34089e-21)
(0.00274986 -0.000616277 -6.69375e-22)
(0.00269925 -0.00062778 -3.3689e-21)
(0.00264789 -0.000640187 -1.32631e-21)
(0.00259582 -0.000653537 -8.63222e-22)
(0.00254302 -0.000667889 -4.25443e-21)
(0.00248951 -0.000683279 -2.89547e-21)
(0.00243533 -0.000699754 1.64691e-21)
(0.00238044 -0.000717394 5.84618e-22)
(0.00232488 -0.000736213 3.67163e-23)
(0.00226868 -0.000756247 3.53709e-21)
(0.00221184 -0.00077757 3.61619e-21)
(0.00215441 -0.000800222 1.40611e-21)
(0.00209641 -0.000824242 2.316e-21)
(0.00203788 -0.000849676 7.82019e-22)
(0.00197889 -0.000876555 4.46257e-23)
(0.0019195 -0.000904915 4.16984e-21)
(0.00185971 -0.000934798 1.41896e-21)
(0.0017994 -0.000966289 -8.90217e-21)
(0.00173851 -0.000999459 -8.50836e-21)
(0.00167701 -0.00103435 -1.50222e-21)
(0.00161496 -0.00107098 -6.14584e-30)
(0.00155243 -0.0011093 5.06942e-21)
(0.00148963 -0.00114925 6.32309e-21)
(0.00142663 -0.00119081 2.62618e-21)
(0.00136361 -0.00123401 1.96049e-23)
(0.00130066 -0.00127881 5.0858e-23)
(0.00123803 -0.00132526 8.03391e-21)
(0.00117596 -0.00137342 9.93311e-21)
(0.0010708 -0.00146056 -3.93813e-21)
(0.00102739 -0.00149869 -2.81627e-21)
(0.000984194 -0.00153769 1.11028e-20)
(0.000941231 -0.0015775 5.39714e-21)
(0.000898564 -0.00161813 -1.1085e-20)
(0.000856264 -0.00165955 -2.93739e-21)
(0.00081439 -0.00170175 9.31614e-21)
(0.000773007 -0.0017447 1.29005e-21)
(0.000732179 -0.00178836 -1.29998e-20)
(0.000691976 -0.0018327 -1.46781e-20)
(0.000652472 -0.00187766 -5.89258e-21)
(0.000613742 -0.00192318 -4.3703e-22)
(0.000575872 -0.00196918 -4.27629e-22)
(0.000538939 -0.00201557 -8.45306e-22)
(0.000503033 -0.00206223 -1.29185e-23)
(0.000468231 -0.00210906 -4.56661e-21)
(0.000434615 -0.00215589 -8.68953e-21)
(0.000402249 -0.00220258 -1.52822e-20)
(0.000371197 -0.00224894 -1.43042e-20)
(0.0003415 -0.0022948 6.58003e-22)
(0.000313196 -0.00233996 -2.35213e-21)
(0.000286297 -0.00238423 -2.87073e-21)
(0.000260815 -0.00242741 1.08331e-20)
(0.000236735 -0.00246932 8.37871e-21)
(0.000214043 -0.00250976 -9.18267e-22)
(0.000192704 -0.00254856 1.70593e-21)
(0.000172682 -0.00258554 1.71031e-21)
(0.000153926 -0.00262053 2.08666e-21)
(0.000136382 -0.00265338 3.5701e-21)
(0.000119985 -0.00268394 -1.6829e-21)
(0.000104667 -0.00271207 -3.77134e-21)
(9.03463e-05 -0.00273763 -2.10716e-21)
(7.69402e-05 -0.0027605 -1.63134e-22)
(6.43537e-05 -0.00278056 0)
(5.24882e-05 -0.00279773 1.86135e-22)
(4.12351e-05 -0.0028119 5.31334e-22)
(3.04816e-05 -0.002823 2.57089e-21)
(2.01075e-05 -0.00283097 2.07727e-21)
(9.98943e-06 -0.00283578 3.84532e-22)
(0 -0.00283633 0)
(0 -0.00283521 0)
(0 -0.00283402 0)
(0 -0.00283276 0)
(0 -0.00283144 0)
(0 -0.00283006 0)
(0 -0.00282861 0)
(0 -0.00282711 0)
(0 -0.00282556 0)
(0 -0.00282395 0)
(0 -0.00282229 0)
(0 -0.00282059 0)
(0 -0.00281884 0)
(0 -0.00281705 0)
(0 -0.00281522 0)
(0 -0.00281335 0)
(0 -0.00281144 0)
(0 -0.0028095 0)
(0 -0.00280752 0)
(0 -0.00280551 0)
(0 -0.00280347 0)
(0 -0.00280141 0)
(0 -0.00279931 0)
(0 -0.00279719 0)
(0 -0.00279505 0)
(0 -0.00279288 0)
(0 -0.0027907 0)
(0 -0.00278849 0)
(0 -0.00278627 0)
(0 -0.00278402 0)
(0 -0.00278177 0)
(0 -0.00277949 0)
(0 -0.00277721 0)
(0 -0.00277491 0)
(0 -0.0027726 0)
(0 -0.00277028 0)
(0 -0.00276795 0)
(0 -0.00276561 0)
(0 -0.00276327 0)
(0 -0.00276092 0)
(0 -0.00275856 0)
(0 -0.0027562 0)
(0 -0.00275383 0)
(0 -0.00275147 0)
(0 -0.00274909 0)
(0 -0.00274672 0)
(0 -0.00274435 0)
(0 -0.00274198 0)
(0 -0.00273961 0)
(0 -0.00273723 0)
(0 -0.00273487 0)
(0 -0.0027325 0)
(0 -0.00273014 0)
(0 -0.00272778 0)
(0 -0.00272542 0)
(0 -0.00272307 0)
(0 -0.00272072 0)
(0 -0.00271838 0)
(0 -0.00271604 0)
(0 -0.00271371 0)
(0 -0.00271139 0)
(0 -0.00270907 0)
(0 -0.00270676 0)
(0 -0.00270446 0)
(0 -0.00270216 0)
(0 -0.00269987 0)
(0 -0.00269758 0)
(0 -0.0026953 0)
(0 -0.00269302 0)
(0 -0.00269075 0)
(0 -0.00268849 0)
(0 -0.00268622 0)
(0 -0.00268396 0)
(0 -0.0026817 0)
(0 -0.00267944 0)
(0 -0.00267718 0)
(0 -0.00267491 0)
(0 -0.00267264 0)
(0 -0.00267035 0)
(0 -0.00266342 0)
(0 -0.00265867 0)
(0 -0.00265357 0)
(0 -0.00264789 0)
(0 -0.00264149 0)
(0 -0.00263421 0)
(0 -0.00262592 0)
(0 -0.00261649 0)
(0 -0.00260577 0)
(0 -0.00259366 0)
(0 -0.00258002 0)
(0 -0.00256478 0)
(0 -0.00254785 0)
(0 -0.00252913 0)
(0 -0.00250859 0)
(0 -0.00248617 0)
(0 -0.0024618 0)
(0 -0.00243548 0)
(0 -0.00240713 0)
(0 -0.00237677 0)
(0 -0.00234435 0)
(0 -0.00230985 0)
(0 -0.00227326 0)
(0 -0.00223456 0)
(0 -0.00219372 0)
(0 -0.00215076 0)
(0 -0.00210565 0)
(0 -0.0020584 0)
(0 -0.00200899 0)
(0 -0.00195749 0)
(0 -0.00190385 0)
(0 -0.00184816 0)
(0 -0.00179041 0)
(0 -0.00173073 0)
(0 -0.00166913 0)
(0 -0.00160576 0)
(0 -0.00154069 0)
(0 -0.00147408 0)
(0 -0.00140604 0)
(0.00247204 -0.000717672 0)
(0.00251223 -0.000675056 0)
(0.00255195 -0.000634632 0)
(0.00259104 -0.000596444 0)
(0.00262959 -0.0005605 0)
(0.00266756 -0.000526626 0)
(0.00270496 -0.000494891 0)
(0.00274179 -0.000465099 0)
(0.00277807 -0.000437291 0)
(0.00281379 -0.000411293 0)
(0.00284898 -0.000387111 0)
(0.00288366 -0.000364596 0)
(0.00291783 -0.000343732 0)
(0.00295152 -0.000324395 0)
(0.00298476 -0.000306545 0)
(0.00301755 -0.00029009 0)
(0.00304993 -0.000274969 0)
(0.00308191 -0.0002611 0)
(0.00311352 -0.000248427 0)
(0.00314478 -0.000236876 0)
(0.00317572 -0.00022639 0)
(0.00320634 -0.000216904 0)
(0.00323669 -0.000208364 0)
(0.00326677 -0.000200707 0)
(0.0032966 -0.000193884 0)
(0.00332621 -0.00018784 0)
(0.00335561 -0.000182527 0)
(0.00338482 -0.000177897 0)
(0.00341385 -0.000173903 0)
(0.00344272 -0.000170503 0)
(0.00347145 -0.000167655 0)
(0.00350004 -0.00016531 0)
(0.00352852 -0.000163435 0)
(0.00355689 -0.00016199 0)
(0.00358517 -0.000160941 0)
(0.00361336 -0.000160251 0)
(0.00364147 -0.000159888 0)
(0.00366952 -0.000159818 0)
(0.0036975 -0.000160011 0)
(0.00372543 -0.000160436 0)
(0.00375332 -0.000161064 0)
(0.00378116 -0.000161869 0)
(0.00380897 -0.000162821 0)
(0.00383674 -0.000163895 0)
(0.00386448 -0.000165063 0)
(0.0038922 -0.000166303 0)
(0.0039199 -0.000167592 0)
(0.00394758 -0.000168904 0)
(0.00397524 -0.000170218 0)
(0.00400288 -0.000171512 0)
(0.0040305 -0.000172764 0)
(0.00405811 -0.000173953 0)
(0.0040857 -0.000175059 0)
(0.00411328 -0.000176061 0)
(0.00414083 -0.000176941 0)
(0.00416837 -0.000177677 0)
(0.00419589 -0.000178251 0)
(0.00422339 -0.000178643 0)
(0.00425087 -0.000178834 0)
(0.00427832 -0.000178806 0)
(0.00430574 -0.000178538 0)
(0.00433314 -0.000178011 0)
(0.00436051 -0.000177206 0)
(0.00438785 -0.000176102 0)
(0.00441515 -0.000174679 0)
(0.00444241 -0.000172914 0)
(0.00446964 -0.000170788 0)
(0.00449683 -0.000168274 0)
(0.00452398 -0.00016535 0)
(0.00455109 -0.000161984 0)
(0.00457816 -0.000158163 0)
(0.00460519 -0.000153844 0)
(0.00463218 -0.000149005 0)
(0.00465913 -0.000143602 0)
(0.00468604 -0.00013761 0)
(0.00471292 -0.000130975 0)
(0.00473976 -0.000123671 0)
(0.00476658 -0.000115632 0)
(0.00479338 -0.000106826 0)
(0.00239836 -0.00077753 0)
(0.00237915 -0.000785721 0)
(0.00236002 -0.000793963 0)
(0.00234104 -0.00080221 0)
(0.00232216 -0.000810496 0)
(0.00230341 -0.000818795 0)
(0.00228478 -0.000827125 0)
(0.00226626 -0.00083547 0)
(0.00224787 -0.000843838 0)
(0.0022296 -0.00085222 0)
(0.00221146 -0.000860619 0)
(0.00219343 -0.000869029 0)
(0.00217554 -0.000877453 0)
(0.00215774 -0.000885881 0)
(0.00214007 -0.00089431 0)
(0.00212253 -0.000902748 0)
(0.00210509 -0.000911183 0)
(0.00208779 -0.000919617 0)
(0.0020706 -0.000928047 0)
(0.00205353 -0.000936472 0)
(0.00203656 -0.00094489 0)
(0.00201971 -0.0009533 0)
(0.00200296 -0.000961702 0)
(0.00198632 -0.000970091 0)
(0.00196979 -0.000978473 0)
(0.00195333 -0.000986837 0)
(0.00193698 -0.000995184 0)
(0.00192073 -0.00100352 0)
(0.00190456 -0.00101184 0)
(0.0018885 -0.00102013 0)
(0.00187251 -0.00102842 0)
(0.00185661 -0.00103668 0)
(0.00184078 -0.00104492 0)
(0.00182503 -0.00105315 0)
(0.00180936 -0.00106135 0)
(0.00179375 -0.00106954 0)
(0.00177821 -0.0010777 0)
(0.00176274 -0.00108584 0)
(0.00174732 -0.00109396 0)
(0.00173196 -0.00110206 0)
(0.00171665 -0.00111015 0)
(0.00170139 -0.00111821 0)
(0.00168617 -0.00112625 0)
(0.001671 -0.00113427 0)
(0.00165586 -0.00114227 0)
(0.00164076 -0.00115025 0)
(0.00162569 -0.00115822 0)
(0.00161066 -0.00116617 0)
(0.00159564 -0.00117409 0)
(0.00158065 -0.00118201 0)
(0.00156567 -0.00118991 0)
(0.00155071 -0.00119779 0)
(0.00153576 -0.00120566 0)
(0.00152081 -0.00121351 0)
(0.00150586 -0.00122136 0)
(0.00149091 -0.00122919 0)
(0.00147595 -0.00123701 0)
(0.00146098 -0.00124483 0)
(0.00144599 -0.00125264 0)
(0.00143098 -0.00126045 0)
(0.00141595 -0.00126826 0)
(0.00140088 -0.00127607 0)
(0.00138578 -0.00128388 0)
(0.00137064 -0.00129169 0)
(0.00135545 -0.00129951 0)
(0.0013402 -0.00130734 0)
(0.0013249 -0.00131519 0)
(0.00130954 -0.00132305 0)
(0.00129411 -0.00133093 0)
(0.00127861 -0.00133884 0)
(0.00126302 -0.00134677 0)
(0.00124735 -0.00135472 0)
(0.00123158 -0.00136271 0)
(0.00121572 -0.00137072 0)
(0.00119974 -0.00137878 0)
(0.00118366 -0.00138686 0)
(0.00116747 -0.00139499 0)
(0.00115119 -0.00140316 0)
(0.00113491 -0.00141146 0)
(0.000128804 -0.00133957 5.7953e-20)
(0.000256612 -0.00134799 -1.72682e-20)
(0.000382513 -0.00136185 -5.5144e-20)
(0.000505721 -0.00138081 -1.96268e-20)
(0.00062564 -0.0014044 1.45002e-20)
(0.000741937 -0.00143203 -2.71518e-21)
(0.000854538 -0.00146289 -1.6918e-20)
(0.000963551 -0.00149621 1.89926e-21)
(0.00106921 -0.0015312 3.0509e-20)
(0.00117176 -0.00156721 1.7193e-20)
(0.0012713 -0.00160371 1.40832e-20)
(0.00136775 -0.00164019 2.69759e-20)
(0.00146084 -0.00167607 -3.19465e-23)
(0.0015501 -0.00171045 1.2038e-20)
(0.001635 -0.00174191 1.00535e-21)
(0.00171501 -0.00176886 -2.13783e-20)
(0.0017898 -0.00178986 -2.67866e-20)
(0.00185894 -0.00180306 -2.41837e-20)
(0.00192183 -0.00180578 8.95419e-21)
(0.00197837 -0.0017962 3.12353e-20)
(0.00202983 -0.00177566 1.43944e-20)
(0.0020784 -0.0017484 -1.61303e-20)
(0.00212615 -0.00171868 -2.02992e-20)
(0.00217406 -0.00168847 -7.77558e-21)
(0.00222202 -0.00165809 -1.50612e-20)
(0.00226989 -0.00162755 7.31115e-21)
(0.00231758 -0.00159684 2.25333e-20)
(0.002365 -0.00156596 2.06704e-22)
(0.00241207 -0.00153492 -1.83222e-21)
(0.00245872 -0.00150374 -1.00762e-20)
(0.0025049 -0.00147242 -1.02481e-20)
(0.00255055 -0.00144099 7.28814e-21)
(0.00259562 -0.00140947 1.29163e-20)
(0.00264007 -0.00137788 1.39736e-20)
(0.00268387 -0.00134624 2.14658e-20)
(0.00272698 -0.00131456 1.03698e-20)
(0.00276936 -0.00128286 -1.57243e-20)
(0.002811 -0.00125117 -5.20687e-21)
(0.00285186 -0.00121949 7.33063e-21)
(0.00293118 -0.00115626 4.27628e-22)
(0.0029696 -0.00112473 -4.86235e-21)
(0.00300716 -0.00109328 -1.82423e-22)
(0.00304386 -0.0010619 -5.32102e-21)
(0.00307967 -0.00103062 -2.10089e-20)
(0.00311459 -0.000999431 1.24591e-22)
(0.0031486 -0.000968348 5.63618e-21)
(0.00318169 -0.000937383 -4.24534e-21)
(0.00321385 -0.000906533 5.86426e-21)
(0.00324507 -0.000875802 5.40734e-21)
(0.00327534 -0.000845193 4.60805e-21)
(0.00330466 -0.000814706 8.2779e-21)
(0.00333302 -0.000784342 2.76381e-21)
(0.00336041 -0.000754101 -1.25946e-20)
(0.00338681 -0.000723982 -9.58011e-21)
(0.00341224 -0.000693983 1.51422e-20)
(0.00343667 -0.000664103 1.68531e-20)
(0.00346011 -0.00063434 1.24506e-21)
(0.00348254 -0.000604688 -6.09264e-21)
(0.00350397 -0.000575147 -8.30727e-21)
(0.00352438 -0.000545711 -3.30629e-21)
(0.00354378 -0.000516378 -5.96954e-23)
(0.00356216 -0.00048714 -1.55412e-21)
(0.00357951 -0.000457997 1.05619e-21)
(0.00359583 -0.000428939 -3.17994e-21)
(0.00361111 -0.000399964 -1.14447e-20)
(0.00362536 -0.000371067 3.95873e-22)
(0.00363857 -0.00034224 9.89069e-21)
(0.00365073 -0.000313483 4.15813e-21)
(0.00366184 -0.000284787 3.80113e-21)
(0.0036719 -0.000256148 -2.65985e-21)
(0.00368091 -0.00022756 -2.0417e-21)
(0.00368887 -0.000199016 8.0676e-21)
(0.00369577 -0.000170512 5.52107e-21)
(0.00370161 -0.000142042 -2.0292e-21)
(0.00370639 -0.0001136 -6.75228e-21)
(0.00371011 -8.518e-05 -7.68574e-21)
(0.00371277 -5.67774e-05 -2.99237e-21)
(0.00371436 -2.83858e-05 2.14737e-21)
(0.00286864 -0.00116678 0)
(0.00284638 -0.00114675 0)
(0.00282505 -0.00112766 0)
(0.00280463 -0.00110947 0)
(0.00278504 -0.0010921 0)
(0.00276626 -0.00107552 0)
(0.00274824 -0.00105968 0)
(0.00273096 -0.00104453 0)
(0.00271436 -0.00103003 0)
(0.00269843 -0.00101615 0)
(0.00268311 -0.00100285 0)
(0.00266841 -0.000990102 0)
(0.00265427 -0.00097787 0)
(0.00264068 -0.00096613 0)
(0.00262761 -0.000954852 0)
(0.00261504 -0.000944015 0)
(0.00260295 -0.00093359 0)
(0.00259132 -0.00092356 0)
(0.00258013 -0.000913903 0)
(0.00256936 -0.0009046 0)
(0.00255899 -0.000895633 0)
(0.00254902 -0.000886981 0)
(0.00253942 -0.000878633 0)
(0.00253018 -0.000870569 0)
(0.00252129 -0.000862778 0)
(0.00251273 -0.000855242 0)
(0.00250449 -0.000847954 0)
(0.00249655 -0.000840894 0)
(0.00248892 -0.000834059 0)
(0.00248157 -0.00082743 0)
(0.0024745 -0.000821003 0)
(0.0024677 -0.000814764 0)
(0.00246115 -0.000808708 0)
(0.00245486 -0.000802823 0)
(0.00244879 -0.000797105 0)
(0.00244298 -0.000791543 0)
(0.00243738 -0.000786137 0)
(0.00243203 -0.000780879 0)
(0.00242685 -0.000775768 0)
(0.00286864 -0.00116678 0)
(0.00284638 -0.00114675 0)
(0.00282505 -0.00112766 0)
(0.00280463 -0.00110947 0)
(0.00278504 -0.0010921 0)
(0.00276626 -0.00107552 0)
(0.00274824 -0.00105968 0)
(0.00273096 -0.00104453 0)
(0.00271436 -0.00103003 0)
(0.00269843 -0.00101615 0)
(0.00268311 -0.00100285 0)
(0.00266841 -0.000990102 0)
(0.00265427 -0.00097787 0)
(0.00264068 -0.00096613 0)
(0.00262761 -0.000954852 0)
(0.00261504 -0.000944015 0)
(0.00260295 -0.00093359 0)
(0.00259132 -0.00092356 0)
(0.00258013 -0.000913903 0)
(0.00256936 -0.0009046 0)
(0.00255899 -0.000895633 0)
(0.00254902 -0.000886981 0)
(0.00253942 -0.000878633 0)
(0.00253018 -0.000870569 0)
(0.00252129 -0.000862778 0)
(0.00251273 -0.000855242 0)
(0.00250449 -0.000847954 0)
(0.00249655 -0.000840894 0)
(0.00248892 -0.000834059 0)
(0.00248157 -0.00082743 0)
(0.0024745 -0.000821003 0)
(0.0024677 -0.000814764 0)
(0.00246115 -0.000808708 0)
(0.00245486 -0.000802823 0)
(0.00244879 -0.000797105 0)
(0.00244298 -0.000791543 0)
(0.00243738 -0.000786137 0)
(0.00243203 -0.000780879 0)
(0.00242685 -0.000775768 0)
(0.00236005 -0.000815494 0)
(0.00230129 -0.000858205 0)
(0.00224239 -0.000901986 0)
(0.00218313 -0.000947012 0)
(0.00212372 -0.000993089 0)
(0.00206408 -0.00104029 0)
(0.00200433 -0.00108848 0)
(0.00194446 -0.00113767 0)
(0.00188453 -0.00118778 0)
(0.00182455 -0.00123875 0)
(0.00176458 -0.00129052 0)
(0.00170463 -0.00134302 0)
(0.00164475 -0.00139615 0)
(0.00158492 -0.00144983 0)
(0.0015252 -0.00150393 0)
(0.00146562 -0.00155834 0)
(0.00140613 -0.00161289 0)
(0.00134692 -0.00166721 0)
(0.00128791 -0.00172131 0)
(0.00122831 -0.00177587 0)
(0.00116709 -0.00183189 0)
(0.00110351 -0.00189021 0)
(0.00103742 -0.00195106 0)
(0.000969419 -0.00201388 0)
(0.000900407 -0.00207758 0)
(0.000831192 -0.00214109 0)
(0.000762354 -0.00220359 0)
(0.000694356 -0.00226433 0)
(0.000627569 -0.00232261 0)
(0.00056231 -0.00237777 0)
(0.000498841 -0.00242919 0)
(0.000437325 -0.00247635 0)
(0.000377836 -0.00251886 0)
(0.000320313 -0.00255641 0)
(0.000264561 -0.00258882 0)
(0.000210279 -0.002616 0)
(0.000157034 -0.00263783 0)
(0.000104379 -0.00265403 0)
(5.20885e-05 -0.00266407 0)
(0 -0.00266342 0)
(0 -0.00265867 0)
(0 -0.00265357 0)
(0 -0.00264789 0)
(0 -0.00264149 0)
(0 -0.00263421 0)
(0 -0.00262592 0)
(0 -0.00261649 0)
(0 -0.00260577 0)
(0 -0.00259366 0)
(0 -0.00258002 0)
(0 -0.00256478 0)
(0 -0.00254785 0)
(0 -0.00252913 0)
(0 -0.00250859 0)
(0 -0.00248617 0)
(0 -0.0024618 0)
(0 -0.00243548 0)
(0 -0.00240713 0)
(0 -0.00237677 0)
(0 -0.00234435 0)
(0 -0.00230985 0)
(0 -0.00227326 0)
(0 -0.00223456 0)
(0 -0.00219372 0)
(0 -0.00215076 0)
(0 -0.00210565 0)
(0 -0.0020584 0)
(0 -0.00200899 0)
(0 -0.00195749 0)
(0 -0.00190385 0)
(0 -0.00184816 0)
(0 -0.00179041 0)
(0 -0.00173073 0)
(0 -0.00166913 0)
(0 -0.00160576 0)
(0 -0.00154069 0)
(0 -0.00147408 0)
(0 -0.00140604 0)
(0.000128804 -0.00133957 5.7953e-20)
(0.000256612 -0.00134799 -1.72682e-20)
(0.000382513 -0.00136185 -5.5144e-20)
(0.000505721 -0.00138081 -1.96268e-20)
(0.00062564 -0.0014044 1.45002e-20)
(0.000741937 -0.00143203 -2.71518e-21)
(0.000854538 -0.00146289 -1.6918e-20)
(0.000963551 -0.00149621 1.89926e-21)
(0.00106921 -0.0015312 3.0509e-20)
(0.00117176 -0.00156721 1.7193e-20)
(0.0012713 -0.00160371 1.40832e-20)
(0.00136775 -0.00164019 2.69759e-20)
(0.00146084 -0.00167607 -3.19465e-23)
(0.0015501 -0.00171045 1.2038e-20)
(0.001635 -0.00174191 1.00535e-21)
(0.00171501 -0.00176886 -2.13783e-20)
(0.0017898 -0.00178986 -2.67866e-20)
(0.00185894 -0.00180306 -2.41837e-20)
(0.00192183 -0.00180578 8.95419e-21)
(0.00197837 -0.0017962 3.12353e-20)
(0.00202983 -0.00177566 1.43944e-20)
(0.0020784 -0.0017484 -1.61303e-20)
(0.00212615 -0.00171868 -2.02992e-20)
(0.00217406 -0.00168847 -7.77558e-21)
(0.00222202 -0.00165809 -1.50612e-20)
(0.00226989 -0.00162755 7.31115e-21)
(0.00231758 -0.00159684 2.25333e-20)
(0.002365 -0.00156596 2.06704e-22)
(0.00241207 -0.00153492 -1.83222e-21)
(0.00245872 -0.00150374 -1.00762e-20)
(0.0025049 -0.00147242 -1.02481e-20)
(0.00255055 -0.00144099 7.28814e-21)
(0.00259562 -0.00140947 1.29163e-20)
(0.00264007 -0.00137788 1.39736e-20)
(0.00268387 -0.00134624 2.14658e-20)
(0.00272698 -0.00131456 1.03698e-20)
(0.00276936 -0.00128286 -1.57243e-20)
(0.002811 -0.00125117 -5.20687e-21)
(0.00285186 -0.00121949 7.33063e-21)
(0.00293118 -0.00115626 4.27628e-22)
(0.0029696 -0.00112473 -4.86235e-21)
(0.00300716 -0.00109328 -1.82423e-22)
(0.00304386 -0.0010619 -5.32102e-21)
(0.00307967 -0.00103062 -2.10089e-20)
(0.00311459 -0.000999431 1.24591e-22)
(0.0031486 -0.000968348 5.63618e-21)
(0.00318169 -0.000937383 -4.24534e-21)
(0.00321385 -0.000906533 5.86426e-21)
(0.00324507 -0.000875802 5.40734e-21)
(0.00327534 -0.000845193 4.60805e-21)
(0.00330466 -0.000814706 8.2779e-21)
(0.00333302 -0.000784342 2.76381e-21)
(0.00336041 -0.000754101 -1.25946e-20)
(0.00338681 -0.000723982 -9.58011e-21)