/*--------------------------------*- C++ -*----------------------------------*\
| =========                 |                                                 |
| \\      /  F ield         | OpenFOAM: The Open Source CFD Toolbox           |
|  \\    /   O peration     | Version:  v2012                                 |
|   \\  /    A nd           | Website:  www.openfoam.com                      |
|    \\/     M anipulation  |                                                 |
\*---------------------------------------------------------------------------*/
FoamFile
{
    version     2.0;
    format      ascii;
    class       volSymmTensorField;
    location    "3";
    object      epsilon;
}
// * * * * * * * * * * * * * * * * * * * * * * * * * * * * * * * * * * * * * //

dimensions      [0 0 0 0 0 0 0];


internalField   nonuniform List<symmTensor> 
1896
(
(0.000457031 -3.30736e-05 4.35104e-20 -0.000100862 1.3021e-20 0)
(0.000528592 -2.98204e-05 4.28518e-20 -0.000209076 2.20693e-20 0)
(0.000455642 -1.70596e-05 0 -0.000100548 0 0)
(0.000966854 0.000141683 9.40028e-21 -0.000424796 -3.18833e-21 0)
(0.000454927 -3.50914e-05 3.98433e-20 -0.000104469 2.48099e-20 0)
(0.000459077 -4.286e-05 -1.33747e-20 -0.000110033 -1.29843e-20 0)
(0.000975802 0.000142445 -2.06364e-19 -0.000432361 -1.75439e-19 0)
(0.000426207 -6.30521e-05 -3.85896e-20 -0.000110888 -9.02349e-21 0)
(0.000454717 -0.000253237 2.38647e-20 -0.000326819 2.14756e-20 0)
(0.000413976 -4.72587e-05 7.67728e-20 -0.000102364 3.90453e-21 0)
(0.000451291 -6.45812e-06 1.97922e-20 -8.08449e-05 -6.31424e-21 0)
(0.00027544 -0.00013753 -6.46957e-20 -9.75775e-05 -4.42879e-21 0)
(0.000321279 -8.20522e-05 4.04374e-20 -7.04055e-05 1.61014e-20 0)
(0.000301878 -0.000114149 -4.88565e-22 -8.39536e-05 -1.33278e-20 0)
(0.000917345 0.000139662 8.75379e-21 -0.000460792 1.32763e-20 0)
(0.000591053 7.15987e-05 2.33629e-20 -0.000258338 -2.90189e-20 0)
(0.000575572 -6.67351e-05 -1.31585e-19 -0.000247927 -2.28769e-21 0)
(0.00120233 -3.98735e-05 1.29723e-19 -0.000437571 7.47915e-20 0)
(0.000600731 -0.00011627 7.48972e-20 -0.000251574 2.36237e-20 0)
(0.000514917 -0.000390274 -2.50789e-19 1.50592e-05 3.0492e-20 0)
(0.000193896 0.000164411 1.11428e-20 -0.000494651 -9.03471e-20 -1.02121e-35)
(0.00051592 -8.37205e-05 -1.6094e-20 -0.000181228 2.49844e-20 0)
(0.000880809 -1.0024e-05 1.2315e-19 -0.000398037 7.76229e-20 0)
(0.000876633 -2.15971e-06 -4.09238e-20 -0.000389124 -2.35374e-20 0)
(0.000530734 -5.23322e-05 5.21659e-20 -0.000218687 -5.10354e-21 0)
(0.000527972 -5.25385e-05 -2.77773e-21 -0.000206333 -2.22631e-20 0)
(0.000275273 -6.20812e-05 2.69435e-20 -7.75659e-05 -1.20791e-20 0)
(0.000330562 -5.94189e-05 -3.38381e-20 -7.13656e-05 -7.55735e-21 0)
(0.000466737 -2.509e-05 5.15577e-21 -9.37782e-05 -8.63181e-21 0)
(0.000634069 -0.000138773 -4.16543e-20 -0.000280043 -3.56657e-20 0)
(0.000645554 -0.000147231 -3.62737e-20 -0.000261856 1.00493e-20 0)
(0.000528993 -1.05112e-05 6.40384e-20 -0.000221729 1.68828e-20 0)
(0.000182711 -0.000127478 -2.65991e-20 -0.000104359 2.18166e-21 0)
(0.000519715 -2.22248e-05 0 -0.000215476 0 0)
(0.000856337 -2.7956e-05 9.57149e-20 -0.000366789 3.50928e-20 0)
(0.000461788 -1.77149e-05 1.2256e-19 -9.68041e-05 2.36777e-20 0)
(0.000615863 -0.000145137 1.21835e-19 -0.000259735 2.00305e-20 0)
(0.00050674 -2.69797e-05 -7.61081e-21 -0.000174951 -2.07947e-23 0)
(0.00121329 -3.45666e-05 1.48924e-20 -0.000403269 5.36002e-21 0)
(0.000658506 -0.000139814 1.36316e-19 -0.000273275 -1.44849e-20 0)
(0.000522117 -2.35149e-06 1.16319e-19 -0.000223648 4.08104e-20 0)
(0.000958859 -0.000304068 -2.41758e-19 -0.000304583 -6.0777e-20 0)
(0.000546164 -0.000194932 6.31355e-20 -0.000228063 -2.24184e-20 0)
(0.000848555 -6.26628e-05 9.19488e-20 -0.000471197 4.92912e-20 0)
(0.000292596 -4.25008e-05 1.28796e-20 -7.61864e-05 -7.20489e-21 0)
(0.000311106 -4.93966e-05 -4.00019e-20 -6.49465e-05 -5.67021e-22 0)
(0.000945586 0.000161322 1.19244e-19 -0.000419228 1.05248e-19 0)
(0.00045544 -1.27566e-05 1.1408e-19 -8.20547e-05 1.97656e-20 0)
(0.000877584 5.71065e-06 9.22012e-20 -0.000458792 8.62765e-20 0)
(0.000879988 0.000175475 -5.87866e-20 -0.000377996 -6.66731e-20 0)
(0.000445053 -2.03592e-05 -1.95165e-20 -0.000101746 8.9167e-21 0)
(0.000435032 -5.7397e-05 -3.47328e-20 -0.000117592 1.64452e-20 0)
(0.000443172 -5.41435e-05 3.86457e-20 -0.000105354 -9.71127e-21 0)
(0.000511554 -7.99098e-05 5.56405e-20 -0.00018879 -3.35838e-20 0)
(0.000516864 -0.000264399 -1.33923e-19 -0.000341053 -6.14634e-20 0)
(0.00054224 -1.06339e-05 -6.97336e-20 -0.00023426 9.1375e-21 0)
(0.000683144 -0.000195651 -2.47407e-19 -0.000426261 -1.3886e-19 0)
(0.000461699 -2.64669e-05 -1.00479e-19 -9.96022e-05 -4.80687e-22 0)
(0.00049731 -1.35016e-05 -4.87864e-20 -0.000178332 -6.63607e-21 0)
(0.000665718 -2.2212e-05 -6.46483e-20 -0.000289453 4.10421e-20 0)
(0.000421524 -5.70856e-05 7.37579e-21 -0.000108641 -1.0683e-20 0)
(0.000860551 0.000164015 -2.0021e-19 -0.00040561 -1.99866e-19 0)
(0.000871884 0.000154035 -5.60086e-20 -0.0004067 -1.96661e-20 0)
(0.00047419 -7.42573e-05 4.68026e-20 -0.000132982 2.23066e-21 0)
(0.000134911 -0.000328777 -1.8485e-19 -5.46746e-05 1.62773e-19 2.76326e-36)
(0.000526363 -5.51707e-06 1.01441e-20 -0.000226068 -1.39896e-20 0)
(0.000829923 -5.39168e-05 8.95494e-20 -0.000372676 5.90845e-20 0)
(0.000348064 -0.000187372 5.22714e-20 -0.000141309 2.49412e-20 0)
(0.000501342 -4.91171e-05 -4.14436e-20 -0.000166566 -1.95524e-20 0)
(0.000873019 -3.29138e-05 -1.35684e-19 -0.000378043 -4.80113e-20 0)
(0.000213239 -3.42376e-05 -5.86798e-21 -5.28072e-05 -5.15091e-21 0)
(0.000888116 0.000127429 1.91908e-19 -0.000429593 1.8169e-19 0)
(0.000500135 -4.1008e-05 4.64785e-20 -0.000171491 2.09196e-20 0)
(0.000542978 -2.02352e-06 5.10669e-20 -0.000234162 4.42372e-21 2.12129e-36)
(0.000872965 -9.59135e-06 2.83724e-19 -0.000365984 5.02287e-20 3.53915e-35)
(0.000526896 -4.41829e-05 0 -0.000207221 0 0)
(0.000525156 -3.58204e-05 -6.34936e-20 -0.000212182 -2.85249e-20 0)
(0.000478701 -5.25792e-05 -4.99839e-20 -0.000132023 -1.88964e-20 0)
(0.000477403 -5.94696e-05 4.89394e-21 -0.000135569 -1.68287e-22 0)
(0.000501016 -0.000141943 -6.17962e-21 -0.000188829 3.53007e-20 0)
(0.000714451 -0.000322754 8.69822e-20 -0.000336607 1.84568e-19 0)
(0.000868017 -1.25666e-05 -1.16144e-19 -0.000383251 -7.05775e-20 0)
(0.000339653 -3.79194e-05 -1.351e-20 -8.68997e-05 -1.9625e-20 0)
(0.000402246 -9.14661e-05 -4.32929e-20 -0.000110731 -7.81748e-21 0)
(0.000411266 -8.49733e-05 6.68426e-20 -0.000104956 2.22771e-20 0)
(0.000547449 -0.00013392 -1.03308e-20 -0.000214225 4.20583e-20 0)
(0.000428099 -0.000175639 1.44112e-19 -0.000148874 4.93137e-20 0)
(0.000412047 -0.000166752 4.12303e-20 -0.000140655 -7.03959e-21 0)
(0.000629196 -0.000221204 2.04956e-19 -0.000416113 1.13794e-19 0)
(0.000485135 -0.000200627 1.57189e-19 -0.000194299 4.03325e-20 0)
(0.000459361 -0.00014486 -4.60223e-20 -0.000155816 6.82903e-21 0)
(0.0018069 -0.000115703 0 -0.000875059 0 0)
(0.000378595 -0.000236508 3.75321e-21 -0.000236608 -4.22329e-21 0)
(0.00115283 -0.000194317 -2.25025e-19 -0.000389801 -1.29952e-19 0)
(0.000911258 1.12664e-05 -9.20512e-20 -0.00040461 -6.5076e-20 0)
(0.000523885 -7.0759e-05 -7.08574e-20 -0.000203585 -1.93116e-20 0)
(0.000514051 -1.11261e-05 -1.0753e-19 -0.000210303 -2.43826e-20 0)
(0.000454826 -9.8262e-06 -5.27959e-20 -6.6955e-05 -5.85164e-21 0)
(0.000519019 -7.94657e-06 -8.54141e-20 -0.000215375 -6.00081e-20 0)
(0.000418071 -0.000204934 2.86334e-20 -0.000180317 5.26808e-21 0)
(0.000449788 -0.000213187 7.77739e-20 -0.000187606 2.42664e-20 0)
(0.000361914 -0.000185546 5.86079e-20 -0.000138215 2.56123e-20 0)
(0.00046497 -7.44516e-05 -1.71066e-20 -0.000129952 -3.4007e-21 0)
(0.000417844 -0.000261536 7.82644e-21 -0.000260173 3.17518e-21 0)
(0.000541086 -0.0002476 8.83471e-20 -0.000324882 4.14137e-20 0)
(0.000515574 -0.000193604 -7.71298e-20 -0.000218197 -9.28603e-21 0)
(0.000549126 -0.000126852 -7.60213e-20 -0.000207949 -2.01185e-21 0)
(0.000892552 -5.243e-05 -1.25225e-19 -0.000514093 -8.56588e-20 0)
(0.000810008 -5.08121e-05 -1.83542e-19 -0.000406229 -1.27851e-19 0)
(0.00203757 -8.76196e-05 -6.2647e-20 -0.00059572 5.854e-20 0)
(0.000458554 -2.20916e-06 -6.88865e-21 -7.46203e-05 -1.51173e-20 2.67004e-37)
(0.000514843 -1.98258e-06 -4.72166e-20 -0.000212987 -8.64554e-20 -9.12504e-35)
(0.000776106 -9.95069e-05 -5.26663e-20 -0.000394824 -2.27278e-20 0)
(0.000687074 -0.000181736 -1.32524e-20 -0.000386289 -8.55529e-21 0)
(0.00166962 -0.000425215 7.06196e-20 -0.000470202 2.02549e-20 0)
(0.000449302 -0.000174009 5.12236e-20 -0.000154271 1.55821e-20 0)
(0.000352744 -1.6096e-05 7.67553e-20 -8.78345e-05 9.25492e-21 0)
(0.00046518 -0.000171351 7.1729e-20 -0.00016529 2.0722e-21 0)
(0.000775967 -0.000148296 1.61985e-19 -0.000442586 1.20033e-19 0)
(0.000629493 -0.00013352 9.13597e-20 -0.000265044 3.42342e-20 0)
(0.000831817 -0.000157028 0 -0.000470514 0 0)
(0.000484143 -0.000251076 -3.14688e-21 -0.000336198 -3.83934e-20 0)
(0.000505674 -3.48657e-05 5.87387e-20 -0.000187114 2.59328e-20 0)
(0.000384813 -7.07645e-05 3.56704e-20 -8.45487e-05 2.29057e-20 0)
(0.000357382 -6.67615e-05 -8.04188e-20 -9.60632e-05 3.09524e-20 0)
(0.000639928 -0.000204347 -5.93591e-20 -0.000408751 2.74826e-21 0)
(0.000900948 -2.20679e-05 3.0453e-19 -0.000487498 2.72846e-19 0)
(0.000423095 -7.26388e-05 4.93051e-20 -0.000111767 -1.94975e-20 0)
(0.000631147 -5.93227e-05 -5.80295e-20 -0.000269676 5.46962e-20 0)
(0.000465221 -0.000213892 -9.12563e-20 -0.000192408 -2.74344e-20 0)
(0.000449373 -0.000224748 -9.34456e-20 -0.000217619 -2.36386e-20 0)
(0.000476055 -0.000147 4.81145e-20 -0.000157343 -3.0866e-21 0)
(0.000793017 -7.61467e-05 0 -0.000377603 0 0)
(0.000986852 -0.000247142 -2.2546e-19 -0.000479902 -9.48477e-20 0)
(0.00059739 -0.000106925 1.07553e-20 -0.000247297 3.7384e-20 0)
(0.000857176 0.000147273 -1.91675e-19 -0.00039365 -1.36566e-19 0)
(0.000970467 1.41292e-05 -1.57055e-19 -0.000442311 -1.14683e-19 0)
(0.00102196 7.7792e-05 -9.85862e-20 -0.000466568 -4.72605e-20 0)
(0.000524295 -5.11425e-06 -6.01487e-20 -0.000220975 -2.83429e-21 0)
(0.000676944 -0.000146918 1.03685e-19 -0.000300549 3.88037e-20 0)
(0.000504635 -5.98028e-05 1.00148e-21 -0.000180011 -2.1439e-20 0)
(0.000842131 -7.10316e-05 -6.85964e-20 -0.0004612 -3.81243e-20 0)
(0.000668421 -0.000151518 7.75217e-20 -0.000284772 -2.01247e-20 0)
(0.000811021 0.000153924 -1.19529e-19 -0.000295891 -7.71078e-20 0)
(0.000443712 -0.000119869 5.64821e-20 -0.000130894 -7.58757e-21 0)
(0.000556033 -9.91144e-05 5.10157e-21 -0.000230681 2.48736e-21 0)
(0.000561678 -9.46126e-05 -6.15536e-20 -0.000216445 -4.04348e-21 0)
(0.000637893 -7.24814e-05 1.36067e-19 -0.000269002 3.74492e-21 0)
(0.000870244 3.31686e-05 -4.69603e-20 -0.000385666 -2.75312e-20 0)
(0.000458134 -0.000167013 0 -0.000157525 0 0)
(0.000312982 -8.67939e-05 6.89653e-21 -7.92233e-05 3.97888e-22 0)
(0.000512585 -1.92225e-05 3.83969e-20 -0.000199741 -2.71949e-20 0)
(0.000509463 -6.49101e-05 0 -0.000172746 0 0)
(0.000487032 -7.69039e-05 2.17972e-20 -0.00014088 1.80205e-20 0)
(0.000482761 -8.78724e-05 -3.19459e-20 -0.000144838 7.91461e-21 0)
(0.000747534 -0.000130724 1.13678e-19 -0.000409169 6.26957e-20 0)
(0.000364387 -1.84971e-05 2.2417e-21 -8.37337e-05 -1.13642e-22 0)
(0.000756815 -0.000122722 -1.83681e-19 -0.000430005 -1.24423e-19 0)
(0.00156102 -0.000543924 1.36366e-19 -0.000608202 -1.03696e-20 3.24209e-35)
(0.000432924 -3.64566e-05 6.0153e-20 -0.000105661 3.46471e-21 0)
(0.000448596 -4.73831e-05 5.39047e-20 -0.000108392 -6.28274e-21 0)
(0.000912606 -2.40754e-06 -8.46771e-20 -0.000380115 -5.13029e-21 -2.78177e-36)
(0.000467051 -0.000263344 -1.42619e-19 -0.000359099 -8.88657e-20 0)
(0.000488915 -2.74607e-05 -1.76414e-20 -0.000166805 -1.16343e-20 0)
(0.00103148 5.0569e-05 2.66514e-20 -0.000329764 -2.5544e-20 0)
(0.000408063 -5.79079e-05 3.22854e-20 -0.000104128 1.04781e-20 0)
(0.000652775 -9.04873e-06 -9.17023e-20 -0.000254964 -1.91344e-21 0)
(0.000458859 -2.09789e-05 -3.98707e-22 -8.65113e-05 1.11309e-21 0)
(0.000455432 -2.1473e-05 4.23355e-20 -9.31321e-05 2.56868e-20 0)
(0.000519602 -2.18603e-05 -1.9651e-20 -0.000208303 5.3161e-20 0)
(0.000521588 -1.64314e-05 2.42491e-20 -0.000205368 -5.94959e-21 0)
(0.000534405 -1.02177e-05 -4.46798e-20 -0.000224855 -2.51823e-20 0)
(0.000241262 -0.000152833 -4.69744e-20 -0.000104568 -9.68616e-21 0)
(0.000241738 -0.000134621 3.95222e-20 -8.53646e-05 2.22204e-21 0)
(0.000954452 8.59828e-05 -6.1757e-20 -0.000483434 -9.29403e-20 0)
(0.000978093 0.000101257 2.82763e-19 -0.000463041 2.36535e-19 0)
(0.000882111 4.42421e-05 2.68853e-19 -0.000440138 2.01891e-19 0)
(0.000529362 -6.75231e-05 -5.07332e-20 -0.000202167 3.33379e-22 0)
(0.000456988 -9.19362e-06 4.57958e-20 -8.52967e-05 3.81386e-21 0)
(0.000483397 -0.000261636 -1.27831e-19 -0.000292498 -5.11602e-20 0)
(0.000238373 -0.000131452 -4.26929e-20 -0.000100164 -1.09362e-20 0)
(0.0006597 -5.36437e-05 1.81428e-20 -0.00029449 -8.33082e-20 0)
(0.000480555 -7.51008e-05 1.05879e-19 -0.000153239 3.64858e-20 0)
(0.000864484 3.2244e-05 -2.1832e-19 -0.000440556 -1.70729e-19 0)
(0.000966894 0.000131618 -2.94596e-20 -0.000457623 -1.02862e-20 0)
(0.00103218 4.10135e-05 2.28231e-20 -0.000245867 2.94091e-20 0)
(0.000434227 -0.000201643 3.59481e-20 -0.000172337 -4.32058e-21 0)
(0.000814721 0.000179558 -7.36038e-20 -0.000322009 -6.21195e-20 0)
(0.000307583 3.60292e-05 4.82995e-20 -0.000662447 6.24216e-20 -1.43285e-34)
(0.000183214 -0.000154719 -1.69538e-20 -0.000251651 -1.94898e-20 0)
(0.000964872 3.22309e-05 4.01126e-19 -0.000488673 2.81816e-19 0)
(0.000458834 -1.62323e-05 5.84078e-20 -8.62567e-05 2.01311e-20 0)
(0.00078834 -9.95318e-05 -2.65344e-19 -0.000475681 -1.77551e-19 0)
(0.000878726 8.07279e-06 0 -0.000374367 0 0)
(0.000491744 -0.000346319 -1.16049e-19 -0.000135794 1.41541e-19 0)
(0.000295718 -0.000179241 -5.10366e-20 -0.000122508 -7.68068e-21 0)
(0.000541345 -0.00018293 -7.98955e-20 -0.000218621 -2.33017e-20 0)
(0.00081126 -0.000115789 -3.68122e-20 -0.000506049 1.08839e-20 0)
(0.000302301 -0.000154246 4.07321e-20 -0.000105311 1.49441e-20 0)
(0.000369453 -4.49524e-05 -3.65069e-20 -7.63469e-05 -1.01075e-20 0)
(0.000417641 -0.000179084 1.13889e-19 -0.000145578 -1.02585e-20 0)
(0.000714431 -0.000337064 1.43128e-19 -0.000306863 1.41065e-19 0)
(0.00045533 -1.73912e-05 -3.01674e-22 -8.32141e-05 -9.49767e-21 0)
(0.000483646 -8.58988e-05 8.91538e-20 -0.000153958 2.71457e-20 0)
(0.000873988 0.000189692 5.38728e-20 -0.000347109 4.96773e-20 0)
(0.000470963 -8.56796e-05 -3.97081e-20 -0.00014598 4.60286e-21 0)
(0.000844621 -2.87581e-05 3.5283e-20 -0.000467315 1.524e-20 0)
(0.000777109 -7.63458e-05 -8.81302e-20 -0.000334266 -1.80993e-20 0)
(0.000212188 3.25494e-05 1.10382e-19 -0.000738189 2.46901e-19 0)
(0.00055318 -1.77718e-05 5.15438e-20 -0.000231421 3.77843e-20 0)
(0.000913073 -2.12272e-05 0 -0.000389379 0 0)
(0.00061657 -0.000132157 -1.23308e-19 -0.000249212 -7.16402e-20 0)
(0.000560226 -5.89745e-05 6.9931e-20 -0.00022536 6.48017e-21 0)
(0.000547377 -4.91941e-05 -8.10142e-21 -0.000235136 -2.67167e-21 0)
(0.000337629 -0.000139807 -4.04981e-21 -9.83816e-05 6.66479e-21 0)
(0.000475327 -0.000237979 9.14468e-20 -0.000260226 3.54735e-20 0)
(0.000694235 -0.000206611 -1.57751e-19 -0.000367555 -8.97868e-20 0)
(0.000738759 -5.26946e-05 -6.78372e-20 -0.000324311 -6.50645e-20 0)
(0.000750798 -5.67765e-05 -1.09445e-19 -0.000308687 -2.46199e-20 0)
(0.000649726 -0.000152029 -1.2219e-19 -0.000275836 -6.01563e-20 0)
(0.000170051 -0.000157213 1.6571e-19 -0.000263066 8.38947e-20 0)
(0.000480477 -9.66925e-05 -1.23252e-19 -0.000155398 -1.51226e-20 0)
(0.000935826 2.13795e-05 -1.27757e-19 -0.000394114 -8.83151e-20 0)
(0.000845243 -2.5438e-05 1.30585e-19 -0.00038347 8.25876e-20 0)
(0.000511255 -2.82788e-06 -1.56565e-20 -0.000198593 -2.45812e-20 -7.38476e-36)
(0.000671551 -0.000156725 1.4475e-19 -0.000299959 6.81191e-20 0)
(0.00103265 -4.17239e-05 0 -0.000460675 0 0)
(0.000549325 -0.000106961 -1.0467e-19 -0.000206747 -4.59743e-20 0)
(0.000734106 7.2935e-05 8.1741e-20 -0.000285608 4.86747e-20 0)
(0.000522394 -1.0499e-05 -1.14102e-19 -0.000220345 -1.43636e-20 0)
(0.000637447 6.76549e-05 -7.57101e-20 -0.000231194 -4.32592e-20 0)
(0.000425243 -5.19804e-05 -3.88313e-20 -0.000112079 -2.24702e-20 0)
(0.000436167 -3.9983e-05 3.20182e-20 -0.000108792 1.53902e-20 0)
(0.000455134 -2.21498e-06 0 -6.11562e-05 0 0)
(0.000519253 -1.07713e-06 -4.35663e-20 -0.000222248 -2.86194e-20 -9.37649e-35)
(0.000446147 -8.51146e-05 -4.58295e-20 -0.000127438 -3.88407e-20 0)
(0.000373628 -0.000175437 6.75723e-20 -0.000121688 2.35402e-20 0)
(0.000837387 -0.000123603 -4.14859e-20 -0.000505951 -2.46232e-20 0)
(0.000879506 0.000111953 2.34436e-19 -0.000311627 1.16611e-19 0)
(0.000680162 -2.31653e-05 1.91417e-19 -0.000280717 4.03074e-20 0)
(0.000923476 -4.8902e-05 1.34591e-20 -0.000469966 -4.12846e-20 0)
(0.000879519 -1.99482e-05 -2.41004e-19 -0.000511404 -2.01463e-19 0)
(0.00033801 -0.000155305 -4.85975e-21 -0.000107474 1.29256e-20 0)
(0.000882796 0.000136621 -1.09074e-19 -0.000303152 -6.68143e-20 0)
(0.000505194 -8.61315e-05 -4.28399e-20 -0.000183263 4.13307e-20 0)
(0.000277578 -0.000154006 1.48072e-19 -9.91216e-05 3.02658e-20 0)
(0.000497673 -4.78043e-06 -2.77696e-20 -0.000158322 -2.71451e-21 -3.35492e-35)
(0.000291771 -0.000128086 1.62012e-20 -9.59145e-05 -2.59068e-21 0)
(0.0002417 -0.000108645 2.9388e-20 -8.37106e-05 -2.67979e-21 0)
(0.000773955 -9.13493e-05 6.1706e-21 -0.000338326 4.1499e-20 0)
(0.000481184 -0.000212381 2.93244e-19 -0.000392506 1.87903e-19 0)
(0.000564619 -0.000186251 -3.86801e-20 -0.000232215 -2.83569e-20 0)
(0.000527168 -1.45023e-05 -7.25747e-20 -0.000219846 -2.55998e-20 0)
(0.000449114 -8.70985e-06 -1.84577e-20 -6.76516e-05 1.82193e-20 0)
(0.000523288 -2.88757e-06 6.73716e-20 -0.000221342 2.25316e-20 0)
(0.000494531 -0.000106512 -1.10486e-19 -0.000162932 -2.83216e-20 0)
(0.000305743 -0.000219902 -3.86202e-20 -0.000198426 -9.69932e-21 0)
(0.000788748 0.000141062 4.50847e-20 -0.000316747 5.09048e-20 0)
(0.000879443 0.000140253 9.34258e-20 -0.000421312 5.46548e-20 0)
(0.000815941 -4.4474e-05 -2.60025e-19 -0.000362669 -1.03091e-19 0)
(0.000618626 -4.18676e-05 3.30067e-19 -0.00027275 9.53485e-20 0)
(0.00018606 0.000117658 4.74348e-20 -0.000587582 8.82331e-20 0)
(0.000214245 -2.34423e-05 -7.48483e-20 -0.000437679 -7.12862e-20 0)
(0.000375648 -0.000171656 6.75242e-20 -0.000136738 3.43008e-20 0)
(0.00059771 -6.30271e-05 -4.92094e-20 -0.00024564 -5.07877e-20 0)
(0.0005857 -0.000221302 -6.87753e-20 -0.000320924 -3.04286e-20 0)
(0.000632752 4.43941e-05 -2.34717e-20 -0.000246449 -4.93555e-20 0)
(0.00042756 -0.000213929 -5.09021e-20 -0.000174215 -1.82261e-20 0)
(0.000694012 -4.71026e-05 -1.46305e-20 -0.000288698 2.29961e-20 0)
(0.000487716 -0.000105851 5.17601e-20 -0.000162789 5.36704e-22 0)
(0.000433742 -0.000214602 1.47754e-19 -0.000183185 4.7776e-20 0)
(0.000102064 -4.73394e-05 -7.72276e-21 -0.000258469 -4.31291e-20 0)
(0.000882679 3.47293e-05 -1.79523e-19 -0.000371899 -1.08419e-19 0)
(0.00025479 -8.83386e-05 -4.3355e-20 -7.28665e-05 -3.80486e-21 0)
(0.00058162 -7.89911e-05 1.55491e-19 -0.000240948 2.58308e-20 0)
(0.000259453 -0.000230691 9.13149e-20 -0.000189034 2.95535e-20 0)
(0.000814635 -5.17523e-05 -1.32306e-20 -0.000387247 -1.4637e-21 0)
(0.000477904 -1.28706e-05 -2.35875e-20 -0.000132873 -7.45018e-21 0)
(0.000487646 -0.00012351 5.70624e-20 -0.000173486 4.18839e-20 0)
(0.000458872 -6.36177e-06 -3.29006e-20 -8.91881e-05 8.52881e-21 0)
(0.000524997 -6.1012e-06 5.77574e-20 -0.000228649 7.56222e-21 0)
(0.00078544 -8.428e-05 7.95545e-20 -0.00034927 1.85699e-20 0)
(0.000210125 -0.000189359 -4.27317e-20 -0.000150364 -1.55471e-20 0)
(0.00052068 -4.40336e-07 -6.87615e-20 -0.000225979 -4.38456e-21 3.20097e-36)
(0.00053636 -0.000108057 8.00656e-20 -0.000207217 1.57631e-21 0)
(0.000683019 9.19282e-05 -7.53547e-20 -0.000281762 -4.33882e-20 0)
(0.000525448 -0.000147013 -7.49582e-22 -0.000191324 8.43651e-21 0)
(0.000453148 -0.000178747 -4.81885e-20 -0.000167593 -3.07298e-20 0)
(0.000509672 -0.000142164 4.34944e-20 -0.000170491 3.21674e-20 0)
(0.000454365 -1.11483e-06 0 -8.11291e-05 0 0)
(0.000564248 1.12725e-05 3.10268e-20 -0.000264788 1.78799e-20 -8.678e-36)
(0.000600926 -0.000131674 1.38293e-19 -0.000250388 2.15011e-20 0)
(0.000597581 -0.000149789 -2.48521e-20 -0.000246873 -2.54111e-20 0)
(0.000535816 -0.000147334 4.90628e-20 -0.000201811 -3.02769e-21 0)
(0.000931384 -8.10817e-06 -4.66493e-20 -0.000284186 2.64389e-20 0)
(0.000183563 -2.69517e-05 2.97486e-21 -5.98775e-05 -1.04156e-20 0)
(0.000652653 1.32796e-05 9.08989e-20 -0.000281906 1.37852e-20 1.43871e-35)
(0.000417351 -0.000179882 -7.5249e-20 -0.000155967 1.10843e-20 0)
(0.000862446 0.00015756 -8.47816e-20 -0.000319099 -6.36449e-20 0)
(0.000251856 -0.000138675 2.85351e-19 -0.000366417 1.82243e-19 0)
(0.000788169 0.000155318 8.8415e-20 -0.000318738 7.74103e-20 0)
(0.000606735 -0.000155784 0 -0.000253247 0 0)
(0.000862102 4.39207e-05 1.96374e-19 -0.000409372 1.59928e-19 0)
(0.000920414 0.000170769 -1.18799e-19 -0.000403755 -1.05156e-19 0)
(0.000502907 -8.69794e-05 -4.2949e-20 -0.000162543 9.07084e-21 0)
(0.000441682 -0.00010399 5.01678e-20 -0.000134068 1.58637e-20 0)
(0.000449925 -0.000111791 1.05542e-19 -0.000130811 1.18188e-20 0)
(0.000237486 -0.000159009 3.8035e-20 -0.000128231 1.32146e-20 0)
(0.000215669 -0.000165003 0 -0.000106706 0 0)
(0.000495923 -0.000116102 9.75384e-20 -0.000160344 -3.08183e-21 0)
(0.000497617 -3.48806e-05 1.46056e-19 -0.000150109 1.86285e-20 0)
(0.000478016 -0.000191817 -8.44578e-20 -0.000188085 -3.21728e-20 0)
(0.000251583 -0.000125472 -1.68498e-20 -8.38237e-05 1.89586e-21 0)
(0.000462433 -9.05103e-06 -6.76455e-20 -7.16596e-05 -1.06949e-20 0)
(0.000513045 -8.02752e-06 2.3713e-19 -0.000218632 7.51585e-20 0)
(0.000627036 -7.93873e-05 -7.56862e-21 -0.000263028 7.79354e-21 0)
(0.000395172 -2.95449e-06 -4.27496e-21 -9.36232e-05 -1.03117e-20 0)
(0.000499595 -3.40355e-05 -3.7311e-21 -0.000176105 -1.52695e-20 0)
(0.000564955 -0.000195226 -8.07933e-20 -0.000239881 -9.1948e-21 0)
(0.000488901 -4.58068e-05 -7.24828e-22 -0.000153873 -3.95524e-21 0)
(0.000434935 -0.000129106 -1.11277e-19 -0.000138512 2.27856e-20 0)
(0.00076603 0.0001155 0 -0.000350824 0 0)
(0.00079218 0.000114106 -2.28524e-19 -0.000304316 -1.9897e-19 0)
(0.000566063 -0.000209744 -1.19503e-20 -0.000259214 -4.2226e-20 0)
(0.000275386 -0.000189826 5.30425e-20 -0.000159192 1.79597e-20 0)
(0.000522996 -0.000195224 2.24066e-19 -0.000201314 7.63946e-20 0)
(0.000571932 -0.000195153 0 -0.000231507 0 0)
(0.000271765 -0.000185203 -6.17649e-20 -0.000126872 -1.67129e-20 0)
(0.000471295 -4.27942e-05 3.01952e-21 -0.000110289 1.21822e-20 0)
(0.000515138 -3.49871e-05 -3.72325e-20 -0.000199553 -2.67223e-20 0)
(0.000218769 -3.9709e-05 -5.9797e-20 -0.000342672 -4.06198e-20 0)
(0.000621705 -3.59666e-06 -1.43221e-19 -0.000267814 7.07023e-21 7.57351e-36)
(0.000457472 -5.76814e-06 -5.56484e-21 -6.92578e-05 1.1761e-21 0)
(0.000518711 -2.7863e-06 1.06281e-19 -0.000223284 9.51561e-21 0)
(0.000407071 -4.09401e-05 7.98181e-21 -0.000101449 4.55859e-22 0)
(0.00019442 9.64018e-05 -7.75893e-20 -0.000675498 -1.85302e-19 0)
(0.00031787 -0.000164673 1.77535e-20 -0.000114226 -3.81056e-21 0)
(0.000872217 3.49966e-05 1.51403e-19 -0.000406407 1.04833e-19 0)
(0.000463532 -4.50023e-05 3.39757e-20 -0.000110913 -4.83907e-21 0)
(0.00052404 -3.66283e-05 2.78173e-20 -0.000198789 -1.3603e-20 0)
(0.000602628 -0.000199314 1.37017e-19 -0.000293906 5.33844e-20 0)
(0.000180232 -3.15033e-05 -1.09027e-19 -0.000397153 -4.86795e-20 0)
(0.000636769 -0.000175926 -1.00279e-19 -0.000278231 1.29047e-21 0)
(0.000522018 -0.00023591 -8.61382e-20 -0.000297305 -3.59311e-20 0)
(0.000341116 -8.59506e-05 6.99892e-20 -8.77913e-05 1.96856e-20 0)
(0.000625508 -0.000104943 8.95863e-20 -0.000253502 6.94512e-21 0)
(0.000594455 -0.000133888 6.22653e-20 -0.000240266 -3.12129e-21 0)
(0.00114481 -0.000137081 1.04892e-19 -0.000457483 4.10935e-20 0)
(0.000421613 -0.000189247 -3.91358e-20 -0.000158484 1.70593e-20 0)
(9.51335e-05 6.21134e-05 -7.61854e-20 -0.000534082 -1.16712e-19 0)
(0.000173567 -0.000190987 4.6617e-20 -0.000200924 2.4732e-20 0)
(0.000467302 -5.09501e-05 -2.23213e-20 -0.000116298 1.72618e-20 0)
(0.000616835 -0.000230259 1.84794e-19 -0.000444768 4.55157e-20 0)
(0.000533858 -0.000152992 -1.04904e-20 -0.000205634 2.18464e-20 0)
(0.00058154 -8.72539e-05 -2.00945e-19 -0.000247311 -2.28312e-20 0)
(0.000613941 -0.000108658 -1.92387e-22 -0.000266165 5.60144e-20 0)
(-6.71649e-06 -3.69629e-05 0 1.64962e-06 0 0)
(0.00112379 4.50091e-05 -9.76651e-20 -0.000389399 -7.07859e-20 0)
(0.000441564 -0.000190086 -5.79078e-20 -0.000176033 -7.37018e-21 0)
(0.00080933 -0.000111992 -4.46201e-19 -0.000479474 -2.7411e-19 0)
(0.000634105 -0.000214623 -1.84757e-19 -0.000400828 -8.501e-20 0)
(0.000876861 5.64376e-05 -2.19995e-19 -0.000263808 -7.64428e-20 0)
(0.0010515 7.53917e-05 7.67607e-21 -0.000386818 5.24116e-21 0)
(0.000244707 -0.000124218 -1.05142e-19 -0.000301802 -1.4965e-19 0)
(0.000516524 -4.91789e-05 -8.21535e-20 -0.000203428 -2.3866e-20 0)
(0.000564608 -8.25276e-05 -1.80061e-21 -0.000234589 1.8408e-21 0)
(0.000697654 -0.000143104 -1.99296e-19 -0.000330154 -8.61651e-20 0)
(0.000710489 -0.000142717 -7.56735e-20 -0.000318373 -4.2071e-20 0)
(0.000492867 -0.00016052 -3.76607e-20 -0.00018636 -1.98098e-20 0)
(0.000530766 5.33448e-05 9.79148e-20 -0.000204777 2.72815e-20 0)
(0.00089084 0.000164857 -6.93906e-20 -0.000421622 -7.331e-20 0)
(0.000288411 -0.000112198 2.52258e-20 -6.93449e-05 7.14747e-21 0)
(0.000449642 -5.0892e-06 1.96868e-20 -5.23585e-05 -3.2252e-21 0)
(0.000521315 -1.85165e-06 -1.2188e-19 -0.000224119 -5.37915e-20 0)
(0.000519106 -4.31789e-05 0 -0.000203329 0 0)
(0.000408046 -0.00024236 -8.25483e-20 -0.000202644 -2.75775e-20 0)
(0.00135296 -0.000265398 -1.56182e-19 -0.000539698 -7.1359e-20 0)
(0.00069786 -0.000185935 3.96974e-19 -0.000412175 2.2634e-19 0)
(0.000430013 -0.000164416 4.11373e-20 -0.000151866 3.02352e-20 0)
(0.00045006 -0.000182508 -7.2148e-20 -0.000162994 -8.26134e-21 0)
(0.000399946 -0.000172932 -1.62721e-19 -0.000132106 -1.29287e-20 0)
(0.00052365 -2.39615e-06 0 -0.000222739 0 0)
(0.000250546 -0.000220612 9.14011e-20 -0.000237996 3.4397e-20 0)
(0.000491622 -5.25196e-05 5.36813e-20 -0.000141054 1.04091e-20 0)
(0.000338846 -0.000244027 2.02587e-19 -0.000215799 7.29193e-20 0)
(0.00048016 -3.9739e-06 -3.34692e-20 -0.000118199 -2.53351e-20 -1.82285e-35)
(0.00109354 7.40916e-05 -7.14706e-20 -0.000366026 -3.60365e-20 0)
(0.000515789 -4.85172e-05 -1.79523e-20 -0.000193997 -5.17096e-21 0)
(0.000454269 -4.5137e-06 -9.60666e-20 -7.19307e-05 -1.87449e-20 0)
(0.000988498 0.000138562 -9.63157e-20 -0.000336066 -7.79542e-20 0)
(0.000423596 -7.81634e-05 -6.44045e-20 -0.000114411 9.43334e-21 0)
(0.000463182 -4.3292e-05 2.80767e-20 -0.000106318 -5.42892e-21 0)
(0.000744214 1.19478e-05 -1.11379e-19 -0.000327883 -2.7738e-20 1.39482e-35)
(0.00122416 -0.000597867 0 -0.000262114 0 0)
(0.000461445 -8.973e-05 -3.41416e-20 -0.00013306 3.14451e-20 0)
(0.000243986 -0.00018896 0 -0.000207656 0 0)
(0.00067319 -0.000102698 2.143e-20 -0.000293272 -3.50984e-20 0)
(0.000742473 -0.000118025 -1.1064e-19 -0.000320666 -7.22701e-20 0)
(0.000507228 -0.00010439 -2.38821e-20 -0.000179086 2.33245e-20 0)
(0.000504731 -0.000106169 2.96684e-20 -0.000173055 1.73019e-20 0)
(0.000518955 -0.000161106 1.50692e-19 -0.00018844 2.04696e-20 0)
(0.000534962 3.06703e-05 -5.9708e-20 -0.000244418 -4.64621e-20 0)
(0.000641509 -3.09356e-05 -2.55754e-20 -0.000260097 -9.72985e-20 0)
(0.000159383 -1.26831e-05 -1.53346e-20 -7.91391e-05 9.91576e-21 0)
(0.000689288 -0.000103514 6.83058e-20 -0.000282578 3.38464e-21 0)
(0.000542247 -0.000243122 -2.91446e-19 -0.000392939 -1.64423e-19 0)
(0.000521024 -0.00013987 0 -0.000185845 0 0)
(0.000885627 2.67403e-05 0 -0.000395167 0 0)
(0.000261031 -8.18292e-05 -4.21223e-20 -6.88244e-05 -4.65446e-21 0)
(0.000642492 5.38722e-05 1.55473e-20 -0.00029419 8.53527e-20 0)
(0.000532057 -0.000224769 1.04156e-19 -0.000264245 5.13301e-20 0)
(0.000368636 -9.36604e-05 -8.38375e-20 -0.000100078 1.47524e-21 0)
(0.000368693 -8.58432e-05 -6.28129e-20 -8.39039e-05 1.3272e-20 0)
(0.000714138 0.000121709 -6.10961e-20 -0.000295688 -5.99362e-20 0)
(0.00074745 -0.000104473 -8.59148e-20 -0.000318743 -4.61483e-20 0)
(0.00073607 -0.000109728 -4.85157e-20 -0.000327374 1.62899e-20 0)
(0.000478623 -9.74738e-05 9.20359e-20 -0.00014603 2.01593e-20 0)
(0.00109958 3.85954e-05 1.97543e-19 -0.00036337 -3.09082e-20 0)
(0.000562912 -0.000208436 -1.05972e-19 -0.000265066 -4.19064e-20 0)
(0.00043612 -9.88116e-05 5.44313e-20 -0.000121407 -8.59795e-22 0)
(0.000579337 -0.000245562 -7.38332e-20 -0.000371425 -4.28914e-20 0)
(0.000448595 -2.10778e-06 -7.85661e-20 -4.95315e-05 3.28862e-21 0)
(0.000521821 -3.34237e-07 -6.35595e-20 -0.000223871 -1.75427e-20 0)
(0.000940371 9.80933e-05 -4.20244e-20 -0.000455769 -1.01992e-20 0)
(0.000660009 -0.000150054 -2.86128e-20 -0.000289101 -2.75593e-20 0)
(0.000462099 -0.000197138 1.01264e-20 -0.000179596 -9.36259e-22 0)
(0.000201286 -0.000176279 1.18603e-19 -0.00028371 7.47312e-20 0)
(0.000694212 -6.18762e-06 -1.53329e-19 -0.00029096 7.65499e-21 4.60057e-36)
(0.00104446 7.49829e-05 1.28014e-19 -0.000438536 7.71235e-20 0)
(0.00101009 0.000103521 1.35062e-19 -0.000415733 1.14878e-19 0)
(0.000212197 -6.6036e-05 0 -0.00034032 0 0)
(0.000616458 -0.000208671 2.49298e-19 -0.000398605 9.75928e-20 0)
(0.000563228 -0.000198413 -1.34746e-19 -0.000244873 -2.5678e-20 0)
(0.000537176 -8.50903e-05 -1.34844e-19 -0.000219572 -2.57314e-20 0)
(0.000667701 -0.000179221 4.47931e-20 -0.000327418 1.02724e-20 0)
(0.00064541 -0.000179632 -1.17167e-20 -0.000312718 -6.86415e-21 0)
(0.000534162 -1.59892e-05 7.45024e-20 -0.00022534 4.45251e-20 0)
(0.00123719 -2.84863e-05 2.3593e-19 -0.000391305 5.99459e-20 0)
(0.000653979 -0.000185526 -3.54689e-19 -0.000455994 -2.67561e-19 0)
(0.000495766 -2.64947e-05 3.47337e-20 -0.000161437 3.50023e-20 0)
(0.000688518 -0.000209225 -1.51252e-19 -0.000437508 -1.38622e-19 0)
(0.000670775 -7.12558e-05 -1.27225e-19 -0.000289601 2.69133e-21 0)
(0.0004744 -9.47487e-05 -4.34643e-20 -0.000143482 -2.44048e-20 0)
(0.00080374 0.000119116 1.50462e-19 -0.000271646 1.17916e-19 0)