/*--------------------------------*- C++ -*----------------------------------*\
| =========                 |                                                 |
| \\      /  F ield         | OpenFOAM: The Open Source CFD Toolbox           |
|  \\    /   O peration     | Version:  v2012                                 |
|   \\  /    A nd           | Website:  www.openfoam.com                      |
|    \\/     M anipulation  |                                                 |
\*---------------------------------------------------------------------------*/
FoamFile
{
    version     2.0;
    format      ascii;
    class       volScalarField;
    location    "3";
    object      sigmaHyd;
}
// * * * * * * * * * * * * * * * * * * * * * * * * * * * * * * * * * * * * * //

dimensions      [1 -1 -2 0 0 0 0];


internalField   nonuniform List<scalar> 
1896
(
2.10817e+07
1.82733e+07
2.04007e+07
3.17238e+07
2.0646e+07
2.03739e+07
3.15973e+07
1.84023e+07
8.81944e+06
1.80688e+07
2.16512e+07
1.16601e+07
1.33677e+07
1.19817e+07
2.84137e+07
2.04127e+07
1.97302e+07
4.72832e+07
2.06613e+07
1.91153e+07
-2.02437e+07
1.92052e+07
2.8506e+07
2.90394e+07
1.87271e+07
1.8693e+07
1.29149e+07
1.42445e+07
2.13145e+07
2.17114e+07
2.13577e+07
1.77429e+07
6.41022e+06
1.81167e+07
2.84585e+07
2.18173e+07
2.10328e+07
1.89158e+07
4.54185e+07
2.20379e+07
1.74974e+07
3.11098e+07
1.86272e+07
2.06367e+07
1.37849e+07
1.31232e+07
2.90836e+07
2.16484e+07
2.34276e+07
2.76383e+07
2.02791e+07
1.91855e+07
1.89361e+07
1.91557e+07
1.03205e+07
1.8293e+07
1.62052e+07
2.1503e+07
1.91785e+07
2.26718e+07
1.83649e+07
2.74943e+07
2.71054e+07
1.97327e+07
1.64155e+07
1.75748e+07
2.73137e+07
1.3215e+07
1.93376e+07
2.82853e+07
7.17143e+06
2.66935e+07
1.91688e+07
1.80755e+07
2.89883e+07
1.85618e+07
1.84141e+07
2.02533e+07
2.00693e+07
1.89822e+07
2.89776e+07
2.87994e+07
1.57214e+07
1.73294e+07
1.73466e+07
1.95859e+07
1.63753e+07
1.58875e+07
1.40881e+07
1.69158e+07
1.80374e+07
6.70156e+07
8.10889e+06
3.99796e+07
2.99961e+07
1.89936e+07
1.79756e+07
2.24259e+07
1.76998e+07
1.46212e+07
1.51898e+07
1.26476e+07
1.96903e+07
9.43844e+06
1.36539e+07
1.80638e+07
1.95127e+07
2.33125e+07
2.48306e+07
6.68044e+07
2.23626e+07
1.7781e+07
2.27307e+07
1.62894e+07
5.66699e+07
1.66681e+07
1.62229e+07
1.7568e+07
1.91984e+07
2.14564e+07
2.06291e+07
7.81595e+06
1.88104e+07
1.63564e+07
1.61498e+07
1.31916e+07
2.25981e+07
1.81503e+07
2.11799e+07
1.47556e+07
1.46429e+07
1.82491e+07
2.3309e+07
3.97659e+07
2.05357e+07
2.69275e+07
2.92723e+07
3.0536e+07
1.75877e+07
2.21725e+07
1.91914e+07
2.07553e+07
2.1991e+07
2.94348e+07
1.7893e+07
1.9638e+07
1.95036e+07
2.14175e+07
2.73898e+07
1.72336e+07
1.38816e+07
1.81453e+07
1.92388e+07
1.96379e+07
1.94288e+07
1.97431e+07
1.58894e+07
1.93133e+07
6.01947e+07
1.92085e+07
1.93843e+07
3.03938e+07
7.84739e+06
1.95137e+07
4.10747e+07
1.78481e+07
2.43562e+07
2.16968e+07
2.1852e+07
1.81219e+07
1.79527e+07
1.78082e+07
8.01436e+06
8.60564e+06
3.00007e+07
3.04684e+07
2.47028e+07
1.8925e+07
2.18526e+07
1.14827e+07
6.98768e+06
2.24799e+07
1.96747e+07
2.50757e+07
2.90633e+07
4.2436e+07
1.52643e+07
2.69862e+07
-2.38808e+07
-4.29324e+06
2.76331e+07
2.18402e+07
1.97047e+07
2.94699e+07
2.34429e+07
1.05654e+07
1.87696e+07
1.93767e+07
1.10397e+07
1.58833e+07
1.56178e+07
2.46316e+07
2.16515e+07
1.95e+07
3.0036e+07
1.9479e+07
2.25855e+07
2.59566e+07
-2.34342e+07
1.84424e+07
2.98794e+07
2.09681e+07
1.90476e+07
1.88933e+07
1.32018e+07
1.18681e+07
2.2208e+07
2.50864e+07
2.45483e+07
2.15821e+07
-4.18191e+06
1.93093e+07
3.05166e+07
2.5536e+07
1.8114e+07
2.16987e+07
3.02397e+07
1.94501e+07
2.67433e+07
1.7753e+07
2.37238e+07
1.88575e+07
1.89873e+07
2.28488e+07
1.74347e+07
1.89289e+07
1.33494e+07
2.05703e+07
3.30499e+07
2.23159e+07
2.91276e+07
2.32872e+07
1.36446e+07
3.41902e+07
1.92464e+07
1.06673e+07
1.93487e+07
1.08784e+07
1.01473e+07
2.5361e+07
9.49118e+06
1.90132e+07
1.78886e+07
2.24753e+07
1.74728e+07
1.91941e+07
5.88149e+06
2.96245e+07
2.69762e+07
2.76163e+07
2.09532e+07
-1.77905e+07
-1.44675e+07
1.47849e+07
1.99122e+07
1.45154e+07
2.26453e+07
1.29991e+07
2.27932e+07
1.91945e+07
1.43501e+07
-9.61208e+06
2.87959e+07
1.10322e+07
1.97879e+07
5.16354e+06
2.47712e+07
2.06423e+07
1.8996e+07
2.13291e+07
1.76899e+07
2.59187e+07
5.06425e+06
1.74129e+07
1.93752e+07
2.18036e+07
1.91746e+07
1.71193e+07
1.88753e+07
2.18725e+07
1.91569e+07
2.06722e+07
2.06249e+07
1.9336e+07
3.8645e+07
7.91619e+06
2.12153e+07
1.57627e+07
3.14966e+07
-6.20564e+06
2.82063e+07
2.05792e+07
2.70531e+07
3.03737e+07
1.93693e+07
1.84396e+07
1.82476e+07
5.52341e+06
6.55542e+06
1.90581e+07
1.96328e+07
1.71344e+07
9.54277e+06
2.2223e+07
1.77664e+07
2.12535e+07
1.7502e+07
1.9131e+07
1.89819e+07
1.98356e+07
1.77429e+07
2.58956e+07
2.52012e+07
1.81762e+07
5.88538e+06
1.78725e+07
1.85836e+07
7.58152e+06
2.07392e+07
1.85487e+07
-1.5416e+07
2.06756e+07
2.25217e+07
1.75046e+07
1.80183e+07
-2.05665e+07
1.28734e+07
2.80619e+07
2.07747e+07
1.84666e+07
1.79671e+07
-1.27316e+07
2.04894e+07
1.23922e+07
1.46828e+07
2.09872e+07
2.04587e+07
4.2469e+07
1.55562e+07
-1.85153e+07
-329038
2.05127e+07
1.21358e+07
1.93268e+07
2.01463e+07
2.11866e+07
1.30246e+06
3.95552e+07
1.65778e+07
1.94727e+07
1.22438e+07
3.57184e+07
4.17563e+07
-5.8163e+06
1.86898e+07
1.96572e+07
2.22991e+07
2.20822e+07
1.85329e+07
1.80896e+07
2.84953e+07
1.17558e+07
2.2841e+07
1.74217e+07
1.8568e+07
1.00281e+07
5.35211e+07
1.52724e+07
1.69383e+07
1.6184e+07
1.50584e+07
1.74977e+07
-756736
1.98889e+07
9.31503e+06
2.0794e+07
4.05402e+07
1.86905e+07
2.22122e+07
3.77764e+07
1.81576e+07
2.06216e+07
2.49975e+07
4.60963e+07
1.90586e+07
763249
2.28829e+07
2.37123e+07
1.92411e+07
1.9226e+07
1.88017e+07
1.79847e+07
2.11126e+07
6.47259e+06
2.27441e+07
9.05513e+06
1.91272e+07
2.98469e+07
1.09992e+07
2.2385e+07
1.63848e+07
1.60355e+07
1.56184e+07
2.57777e+07
2.41884e+07
2.46014e+07
1.92312e+07
4.73438e+07
1.68908e+07
1.8085e+07
1.29566e+07
2.29641e+07
1.73794e+07
2.82644e+07
2.1848e+07
1.63603e+07
-2.52247e+06
2.29603e+07
3.37097e+07
3.54325e+07
-6.40913e+06
1.05762e+07
1.81255e+07
1.92277e+07
1.98685e+07
1.91875e+07
1.79476e+07
5.11929e+07
1.37264e+07
1.92741e+07
1.25112e+07
2.28996e+07
1.92751e+07
3.09623e+07
2.27205e+07
1.74127e+07
1.84795e+07
1.90791e+07
2.12306e+07
2.0643e+07
2.83156e+07
1.93619e+07
1.93195e+07
1.92088e+07
1.92059e+07
1.62882e+07
1.92026e+07
1.76261e+07
-1.14133e+07
1.61954e+07
2.26815e+07
1.93674e+07
2.19462e+07
2.18899e+07
2.05603e+07
2.6236e+07
2.32947e+07
2.31578e+07
2.09211e+07
4.96144e+07
2.02019e+07
1.40873e+07
1.9519e+07
1.92988e+07
1.88947e+07
1.80018e+07
2.06885e+07
-1.2351e+07
1.89821e+07
1.86389e+07
1.80365e+07
1.82382e+07
1.81926e+07
2.00125e+07
1.6538e+07
3.09725e+07
1.3748e+07
2.29253e+07
1.88464e+07
2.20598e+07
2.30536e+07
1.89813e+07
2.1269e+07
2.10155e+07
3.68056e+07
4.61938e+07
1.91065e+07
1.94409e+07
1.46641e+07
1.99621e+07
1.85244e+07
1.92148e+07
1.64632e+07
4.21635e+07
2.0784e+07
-8.94682e+06
1.57807e+07
3.51636e+07
1.16794e+07
2.42383e+07
1.25438e+07
1.31347e+07
1.32387e+07
2.03216e+07
1.71504e+07
2.32731e+07
1.3193e+07
1.90775e+07
1.99716e+07
1.98637e+07
2.07298e+07
1.83626e+07
2.59673e+07
1.95774e+07
2.81751e+07
1.43023e+07
1.46467e+07
2.86332e+07
1.92623e+07
1.93052e+07
2.04222e+07
1.94318e+07
1.55264e+07
2.06275e+07
1.98868e+07
1.54141e+07
1.79159e+07
1.60026e+07
-1.02856e+07
2.80767e+07
4.93848e+07
-3.44757e+06
2.06935e+07
1.69808e+07
1.67182e+07
1.55881e+07
1.56247e+07
1.43385e+07
1.70668e+07
1.86032e+07
1.91812e+07
2.57244e+07
2.05577e+07
9.20151e+06
1.53428e+07
2.42682e+07
1.08305e+07
2.53117e+07
1.92193e+07
2.33443e+07
2.42422e+07
1.91876e+07
1.89932e+07
2.47169e+07
1.88447e+07
3.8242e+07
1.27571e+07
1.96554e+07
2.24637e+07
1.76743e+07
1.0128e+07
9.86421e+06
897895
5.25792e+07
2.52888e+07
2.67328e+07
2.06901e+07
1.76986e+07
2.45737e+07
1.89433e+07
1.35934e+07
2.74522e+07
1.9138e+07
7.47405e+06
2.01257e+07
2.05229e+07
5.37352e+06
3.35614e+06
-5.58978e+06
2.14082e+07
2.67833e+07
3.25435e+07
1.71828e+07
4.70827e+06
3.38258e+07
1.45324e+07
1.91646e+07
2.2514e+07
2.47669e+07
1.54921e+07
2.35311e+07
2.51847e+07
1.99855e+07
4.14317e+07
2.60569e+07
2.82162e+07
2.68628e+07
2.67878e+07
1.72253e+07
2.07629e+07
1.8856e+07
1.64229e+07
1.78611e+07
4.62087e+07
-574092
1.89769e+07
1.50092e+07
3.61468e+07
2.06456e+07
1.27571e+07
5.28913e+06
2.61513e+07
1.65353e+07
2.81882e+07
-6.40782e+06
1.92845e+07
2.81139e+07
2.7039e+07
9.72178e+06
1.92676e+07
1.0188e+07
5.52954e+07
2.01613e+07
2.53568e+07
1.38587e+07
2.00492e+07
1.99955e+07
1.91834e+07
2.60514e+07
4.89953e+06
1.87852e+07
1.87026e+07
2.73672e+07
2.88226e+07
1.87877e+07
7.99544e+06
2.2578e+07
2.12977e+07
2.69418e+07
1.92467e+07
2.17831e+07
1.59538e+07
2.54569e+07
1.2058e+07
2.68278e+07
1.88709e+07
1.81563e+07
1.64824e+07
1.05946e+07
1.693e+07
1.84666e+07
1.83027e+07
1.93111e+07
1.48853e+07
1.81957e+07
2.19567e+07
1.88102e+07
2.06555e+07
2.11033e+07
2.05109e+07
1.705e+07
1.82035e+07
2.13439e+07
1.55854e+07
1.90912e+07
3.59568e+07
2.43352e+07
2.92987e+07
1.02336e+07
1.84908e+07
1.80547e+07
1.94134e+07
3.32091e+07
3.50039e+06
7.89833e+06
8.30962e+06
1.91242e+07
2.02137e+07
3.1291e+07
1.99299e+07
1.9888e+07
2.87037e+07
1.95599e+07
2.83566e+07
1.86525e+07
1.84151e+07
1.82547e+07
1.94779e+07
3.04078e+07
1.80178e+07
2.21208e+07
1.30571e+07
2.03276e+07
2.03128e+07
1.32523e+07
2.09829e+07
1.92939e+07
2.91905e+07
1.26555e+07
2.5443e+07
2.17684e+07
1.766e+07
2.10767e+07
2.10031e+07
2.56362e+07
2.02155e+07
2.3672e+07
2.9568e+07
2.7941e+07
1.88746e+07
1.84004e+07
1.89107e+07
2.67872e+07
1.02382e+07
2.57617e+07
8.53375e+06
2.29835e+07
1.73794e+07
1.84861e+07
2.55169e+07
1.97417e+07
1.39779e+07
-1.36104e+07
1.45037e+07
1.87773e+07
2.70546e+07
1.87976e+07
2.22683e+07
2.03319e+07
8.1501e+06
1.29936e+07
1.33892e+07
1.9302e+07
1.20207e+07
-8.43179e+06
2.05141e+07
1.29258e+07
5.21536e+07
1.59511e+07
1.98386e+07
2.66643e+07
1.87758e+07
2.51881e+07
1.9406e+07
1.49221e+07
1.98354e+07
2.46146e+07
1.87952e+07
2.97826e+07
4.78271e+07
1.87672e+07
2.49681e+07
1.97142e+07
1.18503e+07
-2.22714e+07
2.39412e+07
-2.19964e+07
2.86405e+07
2.59112e+07
4.80245e+06
1.39627e+07
2.75766e+07
2.6603e+07
1.49914e+07
1.89786e+07
1.86676e+07
1.88362e+07
1.09698e+07
2.71402e+07
1.16596e+07
2.30309e+07
2.36714e+07
2.7152e+07
1.87499e+07
1.5728e+07
1.67759e+07
1.69443e+07
1.93904e+07
3.50153e+07
1.16364e+07
2.85602e+07
1.7195e+07
1.97289e+07
8.39632e+06
1.89658e+07
1.88382e+07
2.19945e+07
1.70649e+07
9.62231e+06
1.80745e+07
1.90795e+07
1.77976e+07
-2.40296e+06
1.97731e+07
-7.79808e+06
2.14261e+07
2.14589e+07
1.61022e+07
1.70095e+07
-5.19096e+06
1.90818e+07
1.46502e+07
2.10843e+07
1.94237e+07
1.92533e+07
4.73636e+07
1.97627e+07
1.80538e+07
1.94116e+07
2.98062e+07
1.74766e+07
7.08472e+06
1.76708e+07
2.77222e+07
1.75069e+07
1.86688e+07
1.95148e+07
1.81205e+07
2.43605e+07
-3.2698e+06
1.17336e+07
1.4208e+07
2.85796e+07
1.49869e+07
1.90473e+07
2.26004e+07
1.71509e+07
1.92807e+07
2.58692e+07
1.80806e+07
1.79621e+07
1.77475e+07
1.95232e+07
1.8577e+07
2.32261e+07
1.94745e+07
1.28535e+07
2.09946e+07
2.7314e+07
-1.68387e+06
1.93318e+07
1.92813e+07
2.05375e+07
1.10403e+07
2.04077e+07
3.14873e+06
4.36226e+07
-1.20367e+07
2.01571e+07
9.04452e+06
1.92439e+07
2.64065e+07
2.93859e+07
2.9464e+07
1.91566e+07
1.95165e+07
1.99824e+07
1.94437e+07
1.7814e+07
1.87451e+07
1.93283e+07
2.60334e+07
2.03727e+07
2.37851e+07
5.75629e+06
7.32957e+06
1.67006e+07
3.38685e+07
1.86542e+07
2.73388e+07
2.08612e+07
2.2265e+07
2.04342e+07
1.91545e+07
1.85939e+07
1.80647e+07
3.12841e+07
-3.74102e+06
3.09817e+07
2.11945e+07
2.09826e+07
3.2285e+07
1.78829e+07
2.26573e+07
1.7654e+07
1.75343e+07
2.23602e+07
-1.35546e+06
1.75098e+07
2.06941e+07
-800500
443421
8.35338e+06
1.69537e+07
2.59937e+07
-3.51609e+06
1.70801e+07
1.94609e+07
2.25654e+07
2.77598e+07
1.54763e+07
1.96099e+07
2.28612e+07
2.46572e+07
3.67269e+07
2.3478e+07
2.38667e+07
1.97553e+07
2.47404e+07
1.22231e+07
1.92968e+07
2.68302e+07
2.25165e+07
1.84844e+07
2.02111e+07
1.99037e+07
7.76292e+06
3.87874e+06
1.84046e+07
1.99648e+07
-4.95776e+06
3.01507e+07
1.95687e+07
2.21701e+07
1.79298e+07
1.77531e+07
2.13026e+07
2.10072e+07
2.36292e+07
2.7935e+07
2.03712e+07
2.56044e+07
2.3437e+07
1.75976e+07
1.42984e+07
1.74046e+07
1.0145e+07
2.22852e+07
2.14319e+07
1.82435e+07
5.98217e+07
1.61923e+07
2.0695e+07
1.60709e+07
1.97997e+07
2.58093e+07
1.26902e+07
2.23351e+07
1.30936e+07
1.90725e+07
1.99363e+07
2.24204e+07
1.93963e+07
3.6455e+07
2.66847e+07
2.0247e+07
3.02322e+07
1.95347e+07
1.98275e+07
2.69132e+07
2.16587e+07
2.02298e+07
2.29404e+07
1.64509e+07
-1.93955e+06
2.56508e+07
1.91322e+07
1.22489e+07
1.6564e+07
1.70783e+07
-1.61954e+07
2.20795e+07
4.20065e+07
2.05678e+07
2.39973e+07
3.56619e+07
-9.83732e+06
1.94061e+07
2.73852e+07
3.31033e+07
5.01822e+06
1.21961e+07
2.18332e+07
2.21216e+07
1.91824e+07
2.28993e+07
2.1467e+07
1.93814e+07
1.40431e+07
1.51336e+07
3.11748e+07
1.39889e+07
1.56332e+07
1.47407e+07
2.03288e+07
4.07355e+06
3.14206e+07
-1.00004e+07
3.83905e+07
1.91405e+07
2.13302e+07
2.11017e+07
3.05215e+07
2.00722e+07
1.79802e+07
2.21479e+07
2.11843e+07
2.24854e+07
488860
3.91082e+07
1.73081e+07
-221252
1.77879e+07
1.43121e+07
3.48711e+07
1.69499e+07
1.66957e+07
1.47648e+07
1.40743e+07
1.37494e+06
2.64833e+07
1.53754e+07
2.72479e+07
1.78575e+07
2.04567e+07
2.11748e+07
3.04768e+07
2.72484e+07
2.21937e+07
1.76973e+07
6.06711e+06
2.56052e+07
4.68449e+06
2.0942e+07
1.89711e+07
1.89723e+07
2.3582e+07
5.53185e+07
2.224e+07
1.76283e+07
1.52421e+07
1.67857e+07
1.95256e+07
2.66429e+07
1.88793e+07
1.88952e+07
1.07824e+07
6.43162e+06
9.75593e+06
5.18297e+07
1.92044e+07
1.31229e+06
2.11822e+07
5.32828e+07
1.93179e+07
1.84828e+07
1.91176e+07
2.20015e+07
1.93342e+07
1.90442e+07
2.56688e+07
2.90001e+07
2.39068e+07
1.16799e+07
2.14858e+07
1.25138e+07
1.15361e+07
1.80094e+07
1.71781e+07
1.68954e+07
2.02276e+07
2.04284e+07
1.83106e+07
2.24498e+07
1.9837e+07
4.51293e+07
2.01269e+07
-2.46007e+06
1.83489e+07
2.28438e+07
1.66322e+07
1.75564e+07
2.07832e+07
2.6363e+06
623385
1.98368e+07
2.00742e+07
3.96607e+07
2.73469e+07
2.02251e+07
2.77695e+07
2.26067e+07
1.84692e+07
1.85266e+07
3.04482e+07
1.79334e+07
1.96301e+07
2.38453e+07
3.09133e+07
3.11898e+07
1.7981e+06
1.87739e+07
1.88037e+07
1.78468e+07
1.76034e+07
1.74252e+07
-2.61926e+06
3.32456e+07
1.91958e+07
1.39588e+07
1.12161e+07
1.86786e+07
1.75409e+07
2.12617e+07
2.12561e+07
6.16266e+07
2.02929e+07
2.01586e+07
3.08092e+06
2.6374e+07
1.40282e+07
2.49796e+07
2.47996e+07
2.63293e+07
1.76465e+07
-1.31638e+07
1.23115e+07
-7.81524e+06
1.9184e+07
-3.41096e+06
1.75791e+07
2.42808e+07
2.43759e+07
1.40038e+07
1.4286e+07
1.92538e+07
1.3718e+07
-1.02996e+07
2.96432e+07
1.78052e+07
1.89569e+07
1.08161e+07
2.04265e+07
3.48836e+06
2.25111e+06
2.26857e+07
1.98125e+07
1.84193e+07
2.38447e+07
1.74599e+07
1.98966e+07
1.83188e+07
2.75823e+07
2.83753e+07
3.0186e+07
3.09099e+07
-3.79034e+06
2.38604e+07
1.71051e+07
1.95221e+07
1.23114e+07
2.47206e+07
1.85273e+07
2.15428e+07
1.87467e+07
1.53169e+07
4.72749e+06
8.7486e+06
2.01776e+07
1.86834e+07
1.96561e+07
1.94616e+07
2.03492e+07
2.00046e+07
1.72118e+07
1.90895e+07
1.70975e+07
2.17937e+07
1.63738e+07
1.62308e+07
2.34593e+07
1.61261e+07
1.65747e+07
2.37387e+07
2.23759e+07
2.33575e+07
3.20583e+07
1.9141e+07
1.90592e+07
2.99137e+07
1.72329e+07
1.70648e+07
2.61728e+07
2.1137e+07
1.76137e+07
3.08247e+07
1.11875e+07
-4.96269e+06
1.89678e+07
2.17889e+07
3.68934e+06
1.7017e+06
-1.54168e+07
1.45093e+07
9.41811e+06
2.2566e+07
1.96678e+07
1.87396e+07
4.99706e+06
4.77889e+06
1.78312e+07
1.78347e+07
1.5125e+07
2.34612e+06
2.4311e+07
1.87355e+07
1.91087e+07
2.13038e+07
1.91349e+07
2.03103e+07
1.84822e+07
9.48869e+06
9.72311e+06
2.02025e+07
1.96589e+07
9.9804e+06
-8.39785e+06
1.80758e+07
1.84785e+07
5.95451e+07
1.91319e+07
5.09364e+06
2.81351e+07
2.00374e+07
2.86293e+07
2.9325e+07
5.32509e+06
1.88863e+07
-7.01202e+06
2.00122e+07
1.93689e+07
6.50825e+06
7.14196e+06
1.78637e+07
9.56423e+06
9.19531e+06
3.29702e+06
8.30544e+06
1.94589e+07
1.88994e+07
4.51133e+07
1.9251e+07
6.12345e+07
3.65084e+07
2.87983e+07
2.39858e+07
1.97796e+07
1.90318e+07
1.92145e+07
1.84669e+07
1.91114e+07
-6.20153e+06
1.64564e+07
2.9171e+07
2.31525e+07
2.76581e+07
2.80112e+07
7.55712e+06
2.54031e+07
2.59412e+07
2.75056e+07
-737319
1.37342e+07
2.3711e+07
1.83118e+07
25711.1
2.40439e+07
3.18075e+06
1.87549e+07
1.86553e+07
1.14545e+07
1.18184e+07
1.20503e+07
-8.8307e+06
1.32539e+07
1.69971e+07
6.36684e+07
2.47429e+07
2.5157e+07
2.96184e+07
1.53358e+07
1.47705e+07
1.51157e+07
1.87278e+07
2.8156e+07
-1.32984e+07
1.40404e+07
3.95716e+06
1.10427e+07
2.05948e+07
2.081e+07
5.48199e+07
1.90351e+07
2.43889e+07
1.95887e+07
1.92361e+07
1.95588e+07
8.00104e+06
-5.7423e+06
-1.85972e+07
1.7601e+07
3.6208e+07
2.50007e+07
1.56238e+07
6.4474e+07
-1.212e+06
2.40359e+07
1.56078e+07
1.56671e+07
1.0339e+07
-1.97819e+07
1.88406e+07
2.29141e+07
2.1171e+07
2.2605e+07
1.75883e+07
8.20568e+06
2.72285e+07
4.42512e+07
1.91097e+07
8.76387e+06
2.12265e+07
2.21648e+07
1.80914e+07
1.84666e+07
1.80542e+07
1.76117e+07
1.41738e+07
1.88343e+07
1.99274e+07
1.95196e+07
2.70979e+07
1.99097e+07
-7.31064e+06
1.88751e+07
1.88142e+07
1.86088e+07
3.17811e+07
5.93205e+07
1.49813e+07
1.53427e+07
1.82225e+07
-1.16998e+06
1.86226e+07
1.83734e+07
2.18279e+07
2.06486e+07
1.87866e+07
2.26293e+06
1.99906e+07
2.56927e+07
2.59797e+07
5.7319e+06
7.02277e+06
1.06859e+06
2.03225e+07
1.1774e+07
2.37104e+07
2.39317e+07
2.5685e+07
1.91461e+07
2.86622e+06
2.03141e+07
1.96677e+07
2.85687e+07
1.97672e+07
1.89956e+07
1.60533e+07
1.59993e+07
6.20573e+07
2.86282e+06
1.92902e+07
1.5277e+07
2.03105e+07
1.85341e+07
2.80043e+07
1.99872e+07
3.11455e+07
1.86859e+07
2.19709e+07
2.16388e+07
1.8553e+07
3.70606e+06
1.87999e+07
1.13467e+07
1.95574e+07
1.94333e+07
2.63362e+07
2.49729e+07
-1.30626e+07
2.2227e+07
2.48885e+07
2.40543e+07
2.9358e+07
1.9841e+07
1.97744e+07
2.30083e+07
2.30851e+07
1.73624e+07
1.73617e+07
1.9087e+07
2.5945e+07
2.88985e+07
1.50682e+07
1.36962e+07
3.0679e+07
1.92902e+07
2.44967e+07
2.02589e+07
1.90141e+07
2.72949e+07
1.98536e+07
1.99221e+07
2.75948e+07
1.81065e+07
1.48181e+07
8.53719e+06
2.66094e+07
2.08388e+07
8.40186e+06
1.68535e+07
3.74809e+07
1.83968e+07
1.82795e+07
1.85852e+07
1.83241e+07
1.88614e+07
3.0293e+07
1.83298e+07
2.47407e+07
1.49124e+07
2.67745e+07
1.88958e+07
1.86392e+07
1.85451e+07
2.34525e+07
1.99105e+07
1.99808e+07
1.91164e+07
3.03618e+07
2.08255e+07
1.96017e+07
3.84962e+07
2.05383e+06
3.24934e+06
1.96021e+07
1.94638e+07
2.73473e+07
2.66794e+07
2.74572e+07
-1.79513e+07
1.86702e+07
3.42192e+07
2.1345e+07
1.50507e+07
1.92812e+07
-6.53915e+06
2.18449e+07
2.4787e+07
1.93704e+07
1.78527e+07
1.69535e+07
2.37093e+07
2.67379e+07
1.33585e+06
-751334
1.56123e+07
1.54143e+07
2.36784e+07
1.96905e+07
1.76691e+07
2.3948e+07
1.98768e+07
1.95634e+07
1.76413e+07
1.92257e+07
514541
2.63329e+07
2.25081e+07
1.60271e+07
2.30107e+07
1.50115e+07
1.57148e+07
1.97322e+07
2.01718e+07
2.01634e+07
2.58064e+07
1.88744e+07
1.7359e+07
1.73933e+07
1.49343e+07
2.64269e+07
2.63406e+07
1.49852e+07
1.7427e+07
1.73972e+07
2.52741e+07
2.87539e+07
1.42739e+07
-1.50048e+07
1.23324e+07
1.91434e+07
1.99873e+07
2.53151e+07
2.45641e+07
1.60961e+07
1.68607e+07
2.70378e+07
2.68613e+07
1.62413e+07
1.9888e+07
1.95583e+07
1.93645e+07
2.54524e+07
1.95694e+07
1.89651e+07
1.90686e+07
1.08115e+07
1.94947e+07
1.9242e+07
1.94968e+07
1.4413e+07
1.47941e+07
1.86484e+07
2.69551e+07
2.05804e+07
2.04008e+07
1.57672e+07
1.96228e+07
1.54929e+07
1.77045e+07
1.76128e+07
1.78847e+07
3.80147e+07
1.97605e+07
2.16213e+07
2.08061e+07
1.89244e+07
2.68497e+07
2.69638e+07
2.62864e+06
1.06046e+07
1.38623e+07
1.4354e+07
1.75774e+07
2.341e+07
-2.01824e+07
2.31668e+07
1.99881e+07
1.99122e+07
3.58199e+07
2.0912e+07
1.97093e+07
1.76421e+07
3.37233e+07
1.75393e+07
2.81949e+07
1.28077e+07
2.70905e+07
1.88353e+07
2.47174e+06
3.23553e+07
2.232e+07
2.21983e+07
1.9889e+07
1.77009e+07
1.96297e+07
1.95202e+07
2.32255e+07
1.34213e+07
2.68778e+07
6.27535e+06
1.9415e+07
1.86714e+07
1.86504e+07
2.67576e+07
1.92978e+07
2.63084e+07
1.64295e+07
1.67296e+07
2.03493e+07
1.84721e+07
1.41214e+07
1.73784e+07
1.94716e+07
2.00991e+07
3.37611e+07
1.97083e+07
9.45328e+06
-1.92799e+06
1.76186e+07
1.51831e+07
1.96935e+07
1.53911e+07
1.86077e+07
1.21239e+07
1.22354e+07
8.33211e+06
8.9606e+06
1.99308e+07
486010
1.87987e+07
2.18004e+07
2.22221e+06
1.8089e+07
1.80287e+07
3.13154e+07
2.61141e+07
2.65991e+07
2.73435e+07
2.57464e+07
2.642e+07
2.24413e+07
1.73797e+07
2.75349e+07
4.77722e+06
2.24564e+07
1.88134e+07
1.64042e+07
1.9247e+07
1.91373e+07
2.17597e+07
2.15392e+07
1.66775e+07
9.51179e+06
2.08195e+07
1.82971e+07
2.33158e+07
1.97693e+07
3.05747e+07
3.11667e+07
1.35025e+07
6.43943e+06
4.52918e+07
1.99164e+07
1.99974e+07
2.32016e+07
85020.8
2.59842e+07
1.91713e+07
2.59582e+07
1.90334e+07
1.99127e+07
1.92431e+07
2.67018e+07
1.61371e+07
1.83753e+07
5.72497e+06
8.76794e+06
1.94765e+07
1.98566e+07
2.40819e+07
2.11321e+07
2.10435e+07
1.68142e+07
1.53216e+07
1.59018e+07
3.57576e+06
1.85425e+07
2.58835e+07
1.93197e+07
1.66887e+07
1.59133e+07
1.96408e+07
2.58112e+07
2.46829e+07
2.67984e+07
7.94802e+06
2.55466e+07
2.66892e+07
2.41939e+07
1.92393e+07
1.92458e+07
1.92495e+07
1.92189e+07
1.96834e+07
2.60977e+07
1.73241e+07
619176
1.94223e+07
1.92468e+07
5.56697e+06
2.29853e+07
2.24628e+07
2.02439e+07
1.89948e+07
2.15258e+07
1.87431e+07
1.82971e+07
2.16599e+07
1.977e+07
1.84653e+07
1.92403e+07
2.07302e+07
2.35632e+07
1.85645e+07
1.91653e+07
1.89608e+07
2.48096e+07
3.44677e+07
2.13476e+07
2.49301e+07
3.32566e+07
2.648e+07
1.9533e+07
2.53129e+07
1.96649e+07
1.88226e+07
2.15122e+07
1.59526e+07
1.62896e+07
2.14142e+07
1.86946e+07
1.94971e+07
2.70383e+07
1.98693e+07
2.50103e+07
1.82972e+07
2.07656e+07
2.05277e+07
2.74115e+07
-2.05438e+06
2.49869e+07
1.67439e+07
1.87396e+07
1.96372e+07
2.71481e+07
-5.5919e+06
1.7495e+07
1.86486e+07
1.96764e+07
2.11401e+07
2.09549e+07
1.69696e+07
2.20367e+07
4.92257e+06
1.85788e+07
1.95088e+07
1.91736e+07
1.89463e+07
4.08135e+07
4.07979e+07
2.00694e+07
1.57864e+07
1.8738e+07
4.2043e+07
1.9842e+07
4.25284e+07
1.8576e+07
2.02061e+07
1.92218e+07
1.12928e+07
-8.55094e+06
1.54788e+07
1.7353e+07
1.868e+07
1.91956e+07
1.83562e+07
1.82319e+07
1.75955e+07
1.86147e+07
1.7975e+07
2.02905e+07
2.00251e+07
2.20375e+07
1.06946e+07
2.13542e+07
2.45767e+07
2.00197e+07
2.00266e+07
1.81433e+07
1.7843e+07
2.02825e+07
2.00571e+07
1.9226e+07
1.92764e+07
2.75608e+07
1.68178e+07
1.54559e+07
2.01851e+07
1.82753e+07
2.07722e+07
2.74066e+07
2.7639e+07
1.49317e+07
1.52159e+07
1.71714e+07
5.20583e+06
1.61513e+07
1.92669e+07
1.94231e+07
1.92828e+07
1.91055e+07
2.01992e+07
1.54396e+07
2.33506e+07
1.33925e+07
1.78582e+07
1.02063e+07
1.79347e+07
1.90501e+07
2.35052e+07
2.29599e+07
2.4205e+07
2.01155e+07
2.15139e+07
2.64141e+07
2.71077e+07
1.74383e+07
8.79419e+06
1.86454e+07
1.92521e+07
1.93028e+07
1.72127e+07
1.99751e+07
1.83229e+07
1.86714e+07
1.68665e+07
1.80936e+07
2.75322e+07
1.85559e+07
2.06598e+07
2.05074e+07
8.85075e+06
7.40166e+06
1.71771e+07
1.98547e+07
1.95899e+07
1.96309e+07
1.90511e+07
2.45823e+07
2.13252e+07
2.10589e+07
1.15031e+07
2.51554e+07
2.09343e+07
2.16653e+07
1.69746e+07
1.756e+07
2.26113e+07
1.73999e+07
1.7378e+07
2.27078e+07
1.64221e+07
1.93289e+07
2.11133e+07
2.08653e+07
1.02071e+07
2.15098e+07
1.9419e+07
2.70195e+07
2.71663e+07
2.1479e+07
2.1019e+07
2.05741e+07
2.00684e+07
1.98941e+07
2.23253e+07
2.66022e+07
2.61932e+07
1.84805e+07
1.8513e+07
2.00009e+07
2.0972e+07
2.08816e+07
2.27145e+07
1.58678e+07
1.35035e+07
1.35631e+07
2.68244e+07
2.64481e+07
1.98247e+07
1.94716e+07
2.02347e+07
2.02676e+07
1.99102e+07
)
;

boundaryField
{
    back
    {
        type            empty;
    }
    front
    {
        type            empty;
    }
    down
    {
        type            symmetry;
    }
    right
    {
        type            zeroGradient;
    }
    up
    {
        type            zeroGradient;
    }
    left
    {
        type            symmetry;
    }
    hole
    {
        type            zeroGradient;
    }
}


// ************************************************************************* //
