/*--------------------------------*- C++ -*----------------------------------*\
| =========                 |                                                 |
| \\      /  F ield         | OpenFOAM: The Open Source CFD Toolbox           |
|  \\    /   O peration     | Version:  v2012                                 |
|   \\  /    A nd           | Website:  www.openfoam.com                      |
|    \\/     M anipulation  |                                                 |
\*---------------------------------------------------------------------------*/
FoamFile
{
    version     2.0;
    format      ascii;
    class       volVectorField;
    location    "20";
    object      D_0;
}
// * * * * * * * * * * * * * * * * * * * * * * * * * * * * * * * * * * * * * //

dimensions      [0 1 0 0 0 0 0];


internalField   nonuniform List<vector> 
250
(
(0.000359308 0.000124994 0)
(0.000342006 -0.00027968 0)
(0.000267481 -0.000457463 0)
(0.000202758 -0.000613022 0)
(0.000137733 -0.000641604 0)
(0.000709336 -0.000192235 0)
(0.000647138 -0.000355162 0)
(0.000505433 -0.000365243 0)
(0.000394587 -0.000419153 0)
(0.000266863 -0.000397426 0)
(0.000744576 -0.000264981 0)
(0.000690918 -0.000249653 0)
(0.000589872 -0.000205343 0)
(0.00051998 -0.000210535 0)
(0.000428596 -0.000186094 0)
(0.000610112 -0.000230736 0)
(0.000595137 -0.000206064 0)
(0.000550899 -0.00018159 0)
(0.000515482 -0.000171843 0)
(0.000463439 -0.000150355 0)
(0.000663067 -0.000171494 0)
(0.000642325 -0.000146156 0)
(0.000606767 -0.000117442 0)
(0.000580905 -0.000100405 0)
(0.000539082 -7.49563e-05 0)
(0.000585456 -0.000117525 0)
(0.000589449 -0.000103538 0)
(0.000574871 -8.79967e-05 0)
(0.000567277 -7.31282e-05 0)
(0.000547342 -6.04952e-05 0)
(0.000617567 -0.00010461 0)
(0.000611653 -8.662e-05 0)
(0.000601109 -6.72508e-05 0)
(0.00058997 -5.36253e-05 0)
(0.000576174 -3.50695e-05 0)
(0.000590204 -4.64853e-05 0)
(0.000595955 -4.18695e-05 0)
(0.000593119 -3.35083e-05 0)
(0.000591651 -2.68318e-05 0)
(0.000584451 -1.71856e-05 0)
(0.000599655 -4.9086e-05 0)
(0.000602217 -3.93045e-05 0)
(0.000600917 -3.09125e-05 0)
(0.000599657 -2.33119e-05 0)
(0.000595073 -1.51665e-05 0)
(0.000593536 2.48199e-06 0)
(0.000599036 1.336e-07 0)
(0.000599351 8.02229e-07 0)
(0.000600464 1.46433e-07 0)
(0.000597489 1.557e-06 0)
(0.000593745 2.32578e-06 0)
(0.000588827 -3.58439e-06 0)
(0.000575339 -2.55216e-06 0)
(0.000556608 -1.0811e-05 0)
(0.000531312 -2.16463e-05 0)
(0.000580171 5.40263e-06 0)
(0.000576316 3.23027e-06 0)
(0.000563238 1.31208e-05 0)
(0.000552434 7.50983e-06 0)
(0.000529688 1.60712e-05 0)
(0.00057153 4.71457e-06 0)
(0.000565057 6.60811e-06 0)
(0.000552924 1.51865e-05 0)
(0.000531142 1.25049e-05 0)
(0.000510197 2.00268e-05 0)
(0.000561126 7.20955e-06 0)
(0.000556992 8.90015e-06 0)
(0.000548458 2.32894e-05 0)
(0.000535868 2.21164e-05 0)
(0.000521689 3.43479e-05 0)
(0.000553318 4.75556e-06 0)
(0.000547062 6.47287e-06 0)
(0.000538566 1.58259e-05 0)
(0.000520448 1.58475e-05 0)
(0.000506686 2.45276e-05 0)
(0.000549753 6.28434e-06 0)
(0.000545718 8.20925e-06 0)
(0.000540138 1.98791e-05 0)
(0.000528438 2.01519e-05 0)
(0.000518775 2.85963e-05 0)
(0.000544232 4.11731e-06 0)
(0.000539141 5.28321e-06 0)
(0.00053331 1.31009e-05 0)
(0.000519717 1.36926e-05 0)
(0.000510684 2.00733e-05 0)
(0.000545455 5.12157e-06 0)
(0.000541691 6.73018e-06 0)
(0.000537369 1.57282e-05 0)
(0.000527022 1.60233e-05 0)
(0.000519975 2.18659e-05 0)
(0.000543118 4.49223e-06 0)
(0.00053914 5.98572e-06 0)
(0.000534882 1.40728e-05 0)
(0.000524397 1.46874e-05 0)
(0.000517858 2.0327e-05 0)
(0.000544802 5.65347e-06 0)
(0.000541369 8.19069e-06 0)
(0.000537654 1.803e-05 0)
(0.000528425 1.91808e-05 0)
(0.00052254 2.53396e-05 0)
(0.000481427 -3.87839e-05 0)
(0.000455359 -3.38695e-05 0)
(0.000422216 -3.62599e-05 0)
(0.000390185 -3.39562e-05 0)
(0.000356995 -3.81498e-05 0)
(0.000323977 -3.97135e-05 0)
(0.00029329 -4.57361e-05 0)
(0.000263254 -5.12015e-05 0)
(0.00023778 -5.89569e-05 0)
(0.000214282 -6.84472e-05 0)
(0.000511895 7.68189e-06 0)
(0.000491785 1.09359e-05 0)
(0.000474665 8.61823e-06 0)
(0.000452119 9.42272e-06 0)
(0.000431882 5.52625e-06 0)
(0.000408745 3.40165e-06 0)
(0.000388256 -2.31295e-06 0)
(0.000367059 -7.56369e-06 0)
(0.000349551 -1.4954e-05 0)
(0.00033343 -2.32076e-05 0)
(0.000482343 1.51828e-05 0)
(0.000464824 1.87201e-05 0)
(0.000445741 1.69373e-05 0)
(0.00042764 1.91433e-05 0)
(0.00040939 1.63763e-05 0)
(0.000392162 1.63468e-05 0)
(0.000376493 1.24858e-05 0)
(0.000362041 9.79584e-06 0)
(0.000350622 4.8882e-06 0)
(0.000341016 -3.89865e-07 0)
(0.000505036 3.12997e-05 0)
(0.000493199 3.42168e-05 0)
(0.000482516 3.19953e-05 0)
(0.000469971 3.30215e-05 0)
(0.000459506 2.9813e-05 0)
(0.00044751 2.87611e-05 0)
(0.000438388 2.46356e-05 0)
(0.000428547 2.15416e-05 0)
(0.000422089 1.67049e-05 0)
(0.000416253 1.18308e-05 0)
(0.00048873 2.40158e-05 0)
(0.000478983 2.61166e-05 0)
(0.000467895 2.51165e-05 0)
(0.000458073 2.62417e-05 0)
(0.000448204 2.44851e-05 0)
(0.000439302 2.43529e-05 0)
(0.00043162 2.19302e-05 0)
(0.000424817 2.0437e-05 0)
(0.000420219 1.7558e-05 0)
(0.000416802 1.48451e-05 0)
(0.000506067 2.766e-05 0)
(0.000499743 2.94268e-05 0)
(0.000492605 2.81017e-05 0)
(0.000485983 2.87036e-05 0)
(0.000479846 2.6682e-05 0)
(0.000473707 2.60817e-05 0)
(0.000469103 2.35002e-05 0)
(0.00046441 2.17814e-05 0)
(0.000461803 1.88901e-05 0)
(0.000459629 1.62624e-05 0)
(0.000498142 1.99696e-05 0)
(0.000493028 2.14269e-05 0)
(0.000485744 2.08306e-05 0)
(0.000480657 2.16273e-05 0)
(0.00047449 2.05791e-05 0)
(0.000469952 2.06462e-05 0)
(0.000465472 1.92502e-05 0)
(0.000462104 1.8574e-05 0)
(0.000459789 1.7066e-05 0)
(0.000458364 1.58469e-05 0)
(0.000509925 2.10852e-05 0)
(0.000506425 2.24029e-05 0)
(0.00050085 2.15981e-05 0)
(0.000497087 2.21315e-05 0)
(0.000492634 2.09255e-05 0)
(0.000489034 2.07072e-05 0)
(0.000486078 1.9186e-05 0)
(0.000483013 1.83397e-05 0)
(0.000481195 1.67144e-05 0)
(0.000479639 1.54055e-05 0)
(0.000508286 1.99207e-05 0)
(0.000505177 2.14501e-05 0)
(0.000499471 2.10458e-05 0)
(0.000496647 2.19924e-05 0)
(0.000491778 2.13162e-05 0)
(0.000489262 2.18034e-05 0)
(0.000485486 2.08721e-05 0)
(0.000483098 2.06008e-05 0)
(0.000481026 1.99567e-05 0)
(0.000479438 1.94524e-05 0)
(0.00051376 2.49182e-05 0)
(0.000511028 2.63863e-05 0)
(0.000506117 2.5921e-05 0)
(0.000503481 2.65541e-05 0)
(0.000499162 2.58455e-05 0)
(0.000496763 2.57749e-05 0)
(0.00049314 2.48975e-05 0)
(0.000491479 2.43094e-05 0)
(0.000489431 2.33025e-05 0)
(0.000488198 2.24042e-05 0)
(0.000102322 -0.00066737 0)
(7.97092e-05 -0.00066356 0)
(6.42493e-05 -0.000672615 0)
(5.35986e-05 -0.000668141 0)
(4.36079e-05 -0.00067434 0)
(3.60093e-05 -0.000670273 0)
(2.71558e-05 -0.00067456 0)
(1.90583e-05 -0.000671167 0)
(7.92524e-06 -0.000672965 0)
(-4.12722e-06 -0.000668939 0)
(0.000206832 -0.000423968 0)
(0.000163039 -0.00043265 0)
(0.000130353 -0.00045962 0)
(9.91551e-05 -0.000465805 0)
(7.11521e-05 -0.000484588 0)
(4.73916e-05 -0.000489868 0)
(2.22772e-05 -0.000503768 0)
(-1.4362e-06 -0.000508248 0)
(-3.06734e-05 -0.000517586 0)
(-6.19861e-05 -0.000521581 0)
(0.000386992 -0.000210382 0)
(0.000342186 -0.000224036 0)
(0.000303618 -0.000253323 0)
(0.000259818 -0.000264028 0)
(0.000222293 -0.000286207 0)
(0.000186078 -0.00029619 0)
(0.000152824 -0.000313879 0)
(0.000119852 -0.000323129 0)
(8.53595e-05 -0.000336379 0)
(4.90389e-05 -0.000345978 0)
(0.000427811 -0.000150131 0)
(0.000385575 -0.000151243 0)
(0.000344767 -0.000163146 0)
(0.000300932 -0.000168625 0)
(0.000259148 -0.000183111 0)
(0.000219482 -0.000191776 0)
(0.000180476 -0.000206191 0)
(0.00014375 -0.000216057 0)
(0.000106025 -0.000228785 0)
(6.848e-05 -0.000240078 0)
(0.000517154 -7.29065e-05 0)
(0.00048584 -6.51525e-05 0)
(0.000454353 -7.31574e-05 0)
(0.000418071 -6.955e-05 0)
(0.000379875 -7.90014e-05 0)
(0.000341026 -8.06309e-05 0)
(0.000302189 -9.12417e-05 0)
(0.000263946 -9.78089e-05 0)
(0.000227017 -0.000108959 0)
(0.000190691 -0.00012057 0)
)
;

boundaryField
{
    back
    {
        type            empty;
    }
    left
    {
        type            symmetry;
    }
    hole
    {
        type            calculated;
        value           nonuniform List<vector> 10((0.000339143 0.000326425 -3.43299e-21) (0.000688038 -8.95076e-05 1.55564e-20) (0.000734949 -0.000258531 1.83707e-22) (0.000610908 -0.000240415 2.11869e-21) (0.000667331 -0.000183171 -2.38285e-22) (0.000582294 -0.000122021 -1.30807e-22) (0.000617611 -0.000112042 -6.91877e-22) (0.000586924 -4.86295e-05 -1.49297e-21) (0.000597169 -5.20141e-05 -9.63816e-22) (0.000590407 2.61459e-06 8.51389e-22));
    }
    front
    {
        type            empty;
    }
    down
    {
        type            symmetry;
    }
    right
    {
        type            calculated;
        value           nonuniform List<vector> 
15
(
(0.000544836 6.66347e-06 -1.66689e-23)
(0.00054158 1.03227e-05 1.11277e-22)
(0.000538032 2.20076e-05 4.75209e-23)
(0.0005293 2.40033e-05 3.96617e-22)
(0.000523702 3.14245e-05 1.58594e-22)
(0.000515413 3.12894e-05 -1.63601e-21)
(0.000512776 3.23654e-05 9.93674e-22)
(0.000508145 3.1825e-05 8.72259e-22)
(0.00050559 3.19942e-05 -6.73257e-22)
(0.000501508 3.11005e-05 0)
(0.000499165 3.04863e-05 2.90491e-22)
(0.000495716 2.90308e-05 6.10651e-22)
(0.000494099 2.7211e-05 -5.36114e-23)
(0.000492154 2.58692e-05 -1.63489e-22)
(0.00049091 2.41814e-05 0)
)
;
    }
    up
    {
        type            calculated;
        value           nonuniform List<vector> 
15
(
(0.000205791 -7.34473e-05 6.45036e-22)
(0.000327993 -2.7547e-05 -6.25395e-22)
(0.000338217 -3.22574e-06 -2.72262e-22)
(0.000415036 9.23589e-06 -3.71711e-22)
(0.000416448 1.33599e-05 -2.26629e-22)
(0.000459549 1.48393e-05 -1.94617e-22)
(0.000458432 1.51617e-05 -8.91747e-23)
(0.000479351 1.46839e-05 1.62496e-22)
(0.000478879 1.91593e-05 4.02752e-23)
(0.000487679 2.19186e-05 0)
(-1.2904e-05 -0.000667233 -6.64577e-22)
(-8.26181e-05 -0.000522915 -1.33174e-21)
(2.86594e-05 -0.000349847 -2.28706e-22)
(4.9309e-05 -0.000245053 1.12777e-21)
(0.000174116 -0.000126619 2.88045e-22)
)
;
    }
}


// ************************************************************************* //
