/*--------------------------------*- C++ -*----------------------------------*\
| =========                 |                                                 |
| \\      /  F ield         | OpenFOAM: The Open Source CFD Toolbox           |
|  \\    /   O peration     | Version:  v2012                                 |
|   \\  /    A nd           | Website:  www.openfoam.com                      |
|    \\/     M anipulation  |                                                 |
\*---------------------------------------------------------------------------*/
FoamFile
{
    version     2.0;
    format      ascii;
    class       volScalarField;
    location    "20";
    object      epsilonEq;
}
// * * * * * * * * * * * * * * * * * * * * * * * * * * * * * * * * * * * * * //

dimensions      [0 0 0 0 0 0 0];


internalField   nonuniform List<scalar> 
250
(
0.00824593
0.0064761
0.00419429
0.00270126
0.00141802
0.00371754
0.00232867
0.00145023
0.00104232
0.000708848
0.00053881
0.000734854
0.000486416
0.000301982
0.000427412
0.00064431
0.000519028
0.0003278
0.000266723
0.000292445
0.000500874
0.000392528
0.000269783
0.000216818
0.000160718
0.000427029
0.000335076
0.000240318
0.000195764
0.000172509
0.000284001
0.000240474
0.000176293
0.000162703
0.000152618
0.000274041
0.000202192
0.000139676
0.000106251
9.92547e-05
0.000203385
0.000161433
0.000116953
9.19851e-05
7.41706e-05
0.000199602
0.000143265
9.27322e-05
5.76072e-05
3.73833e-05
5.63048e-05
6.6811e-05
9.10877e-05
0.000118726
0.000144192
8.50977e-05
9.41643e-05
0.000101445
0.000124569
0.000129196
8.54102e-05
9.43019e-05
9.84301e-05
0.000127697
0.000151967
9.71661e-05
0.000102722
0.000100154
0.000101875
0.00010931
7.29452e-05
8.16034e-05
9.47562e-05
0.000108164
0.000124828
7.69897e-05
7.67549e-05
7.76501e-05
7.3419e-05
8.27603e-05
5.61758e-05
6.11758e-05
7.37514e-05
7.83166e-05
8.74191e-05
5.57717e-05
5.3381e-05
5.47557e-05
5.00506e-05
5.5213e-05
5.17843e-05
5.16422e-05
5.54937e-05
5.25956e-05
5.47421e-05
5.54838e-05
5.05363e-05
4.67339e-05
3.47298e-05
3.06984e-05
0.000180353
0.000196801
0.000202684
0.000206966
0.000212749
0.000223571
0.000246214
0.00027072
0.000317566
0.000367903
0.000102529
0.000118754
0.000131868
0.000160723
0.000183028
0.000209348
0.00023477
0.000258321
0.000286322
0.000311324
0.000168182
0.000170828
0.000171766
0.000166248
0.000164103
0.000157051
0.000159443
0.000159676
0.00017415
0.000187798
0.000107214
0.000110769
0.000115484
0.000122718
0.000130386
0.000137627
0.0001464
0.000152912
0.000163176
0.000171075
0.00012718
0.000126128
0.000123849
0.00011773
0.000112158
0.000103223
9.63972e-05
8.79778e-05
8.47063e-05
8.27922e-05
8.26193e-05
8.0858e-05
8.2732e-05
8.09083e-05
8.23685e-05
8.10026e-05
8.16155e-05
8.06704e-05
8.14602e-05
8.10906e-05
8.52313e-05
8.23974e-05
8.02651e-05
7.33991e-05
6.88319e-05
5.9312e-05
5.25873e-05
4.11459e-05
3.26347e-05
2.37322e-05
5.21451e-05
4.91517e-05
5.01274e-05
4.42784e-05
4.45188e-05
3.85064e-05
3.82276e-05
3.5177e-05
3.21907e-05
2.87012e-05
4.93924e-05
4.4709e-05
4.36331e-05
3.79265e-05
3.45902e-05
2.74205e-05
2.04275e-05
1.53686e-05
1.0552e-05
6.46682e-06
2.15789e-05
1.9262e-05
1.44718e-05
1.29043e-05
1.11441e-05
1.06166e-05
9.95576e-06
9.48241e-06
1.12505e-05
1.13865e-05
0.000936008
0.000698551
0.000606718
0.000509269
0.000432387
0.000358116
0.000285013
0.000216582
0.000193954
0.000300863
0.00079922
0.000815555
0.000823529
0.000721097
0.000708778
0.000639219
0.000582979
0.000471351
0.000360391
0.000188609
0.000628566
0.000634374
0.000613
0.000547249
0.000560799
0.000526929
0.000527763
0.000480431
0.000477883
0.000454036
0.000281163
0.000281652
0.000288366
0.000326142
0.000360123
0.000384732
0.000414937
0.000427101
0.000464964
0.000495032
0.00015673
0.000168125
0.000176926
0.0002116
0.000246355
0.000272273
0.000326554
0.000361028
0.000437169
0.000499943
)
;

boundaryField
{
    back
    {
        type            empty;
    }
    left
    {
        type            symmetry;
    }
    hole
    {
        type            calculated;
        value           nonuniform List<scalar> 10(0.00828906 0.00372312 0.000360163 0.000668723 0.00050953 0.000427106 0.000292454 0.000277256 0.000208418 0.000203532);
    }
    front
    {
        type            empty;
    }
    down
    {
        type            symmetry;
    }
    right
    {
        type            calculated;
        value           nonuniform List<scalar> 
15
(
5.86297e-05
5.37551e-05
4.97253e-05
3.71945e-05
3.1752e-05
2.06326e-05
1.86603e-05
1.17973e-05
1.01031e-05
4.28632e-06
3.16071e-06
1.1327e-06
2.05062e-06
4.71769e-06
4.36284e-06
)
;
    }
    up
    {
        type            calculated;
        value           nonuniform List<scalar> 
15
(
0.000368134
0.000311818
0.000188259
0.000171525
8.26537e-05
8.14183e-05
2.2897e-05
2.88878e-05
5.54689e-06
1.17031e-05
0.000286625
0.000165405
0.000458659
0.000499456
0.000504431
)
;
    }
}


// ************************************************************************* //
