/*--------------------------------*- C++ -*----------------------------------*\
| =========                 |                                                 |
| \\      /  F ield         | OpenFOAM: The Open Source CFD Toolbox           |
|  \\    /   O peration     | Version:  v2012                                 |
|   \\  /    A nd           | Website:  www.openfoam.com                      |
|    \\/     M anipulation  |                                                 |
\*---------------------------------------------------------------------------*/
FoamFile
{
    version     2.0;
    format      ascii;
    class       volSymmTensorField;
    location    "6";
    object      epsilon;
}
// * * * * * * * * * * * * * * * * * * * * * * * * * * * * * * * * * * * * * //

dimensions      [0 0 0 0 0 0 0];


internalField   nonuniform List<symmTensor> 
1896
(
(0.000931496 -6.22095e-05 0 -0.000208816 -2.03288e-20 0)
(0.00104199 -5.73859e-05 -1.73472e-18 -0.000418691 2.1684e-19 0)
(0.000895014 -2.7508e-05 -1.73472e-18 -0.000199541 1.18585e-20 0)
(0.00199643 0.000207877 1.30104e-18 -0.000897274 -8.67362e-19 0)
(0.000926139 -7.4195e-05 0 -0.000218848 -1.35525e-20 0)
(0.000912636 -7.71193e-05 0 -0.000215189 2.71051e-20 0)
(0.00189533 0.000305161 2.1684e-19 -0.000838667 -2.1684e-19 0)
(0.000854458 -0.000131456 8.67362e-19 -0.000227864 2.71051e-20 0)
(0.000985264 -0.000535979 -8.67362e-19 -0.000668668 5.42101e-20 0)
(0.000828955 -0.000104335 3.46945e-18 -0.000210874 -2.03288e-20 0)
(0.00091982 -8.36744e-06 -2.60209e-18 -0.000178985 3.38813e-21 0)
(0.000623373 -0.00025615 0 -0.000192039 -1.35525e-20 0)
(0.000591617 -0.000169318 0 -0.000156775 3.38813e-21 0)
(0.000579431 -0.000247292 -4.33681e-19 -0.000180002 0 0)
(0.00189368 0.000274337 -2.1684e-19 -0.000896821 6.50521e-19 0)
(0.00127928 8.2592e-05 -1.0842e-19 -0.00055238 -4.33681e-19 0)
(0.00116855 -0.000129557 0 -0.0004849 -1.0842e-19 0)
(0.00250932 -0.000259644 2.1684e-19 -0.000825378 -4.33681e-19 0)
(0.00121361 -0.000218689 -4.33681e-19 -0.000495858 -5.42101e-20 0)
(0.000797185 -0.000557911 0 -0.0003197 -4.33681e-19 0)
(0.000471485 0.00032665 0 -0.00132581 1.35525e-19 0)
(0.00102272 -0.000168447 -8.67362e-19 -0.000373913 0 0)
(0.00172913 -1.59278e-05 6.50521e-19 -0.000755338 0 0)
(0.00178476 1.08609e-05 -2.1684e-19 -0.000799006 2.1684e-19 0)
(0.00106951 -0.000108214 1.73472e-18 -0.000420912 -2.1684e-19 0)
(0.00105836 -0.000103967 8.67362e-19 -0.000419635 0 0)
(0.000617898 -0.000120223 0 -0.00014531 0 0)
(0.000626208 -0.000103572 -8.67362e-19 -0.000153268 0 0)
(0.000915347 -5.65024e-05 4.33681e-18 -0.000189002 -6.77626e-21 0)
(0.00130509 -0.000280766 4.33681e-19 -0.000548635 1.0842e-19 0)
(0.00124588 -0.000282517 4.33681e-19 -0.000528548 2.1684e-19 0)
(0.00104871 -1.75127e-05 0 -0.000442643 2.1684e-19 0)
(0.000441512 -0.000222845 1.30104e-18 -0.000190956 -1.35525e-20 0)
(0.00105511 -4.89809e-05 -8.67362e-19 -0.000427991 5.42101e-20 0)
(0.00167871 -3.09263e-05 -8.67362e-19 -0.000714338 0 0)
(0.000922025 -4.12247e-05 0 -0.000172469 -1.35525e-20 0)
(0.00122528 -0.000274425 -4.33681e-19 -0.000509303 -1.0842e-19 0)
(0.00100748 -6.05111e-05 8.67362e-19 -0.000363398 -5.42101e-20 0)
(0.00231827 7.16989e-05 7.58942e-19 -0.00083251 8.67362e-19 0)
(0.00133154 -0.000286569 -1.73472e-18 -0.00056874 2.71051e-19 0)
(0.00104991 -3.14435e-06 -8.67362e-19 -0.000451362 1.0842e-19 0)
(0.00162684 -0.000492376 -2.1684e-19 -0.000700158 6.50521e-19 0)
(0.00107711 -0.000368674 -8.67362e-19 -0.000443317 5.42101e-20 0)
(0.00169178 -0.000179878 0 -0.00100099 -2.1684e-19 0)
(0.000635181 -9.29337e-05 -8.67362e-19 -0.000140889 3.38813e-21 0)
(0.000572644 -9.04948e-05 8.67362e-19 -0.000140804 -8.47033e-21 0)
(0.00182816 0.000297398 2.1684e-19 -0.000853927 -2.1684e-19 0)
(0.000920659 -2.72366e-05 0 -0.000182177 -6.77626e-21 0)
(0.00170271 -1.71855e-05 2.1684e-19 -0.000920341 -2.1684e-19 0)
(0.0017086 0.000329406 -1.0842e-19 -0.000783423 -2.1684e-19 0)
(0.000910905 -4.44953e-05 3.46945e-18 -0.000212412 6.77626e-21 0)
(0.000891799 -0.000106827 8.67362e-19 -0.000225935 1.35525e-20 0)
(0.000865353 -0.000115621 -8.67362e-19 -0.000228808 -5.42101e-20 0)
(0.00103272 -0.000159683 -8.67362e-19 -0.000368037 1.0842e-19 0)
(0.00102121 -0.00047726 2.1684e-18 -0.00064274 -1.0842e-19 0)
(0.00110325 -2.02783e-05 1.73472e-18 -0.000470561 -2.1684e-19 0)
(0.00139246 -0.000345991 -4.33681e-19 -0.000800085 1.0842e-19 0)
(0.000936028 -4.56156e-05 -8.67362e-19 -0.000199922 -1.35525e-20 0)
(0.000997548 -2.75243e-05 -8.67362e-19 -0.000327379 2.71051e-20 0)
(0.00137172 -4.73142e-05 1.73472e-18 -0.000574269 -2.1684e-19 0)
(0.000844896 -0.000102577 2.60209e-18 -0.000213824 -6.77626e-21 0)
(0.0017685 0.000329627 0 -0.000801083 8.67362e-19 0)
(0.00173001 0.000303215 -6.50521e-19 -0.00081608 1.51788e-18 0)
(0.000941824 -0.00014603 8.67362e-19 -0.000265467 0 0)
(0.000782072 -0.000702368 4.33681e-19 -4.22451e-05 0 0)
(0.001048 -8.64031e-06 8.67362e-19 -0.000445533 -1.0842e-19 0)
(0.00169105 -9.11127e-05 8.67362e-19 -0.000749613 -1.0842e-19 0)
(0.00075117 -0.0003583 0 -0.000273667 4.06576e-20 0)
(0.000995598 -9.17324e-05 2.60209e-18 -0.000336677 -1.0842e-19 0)
(0.00168907 -9.05442e-05 4.33681e-19 -0.000738095 -2.1684e-19 0)
(0.000363281 -4.76213e-05 -8.67362e-19 -0.000125785 0 0)
(0.00176027 0.000240883 -2.1684e-19 -0.00084555 6.50521e-19 0)
(0.00100741 -8.75723e-05 0 -0.000349751 -1.0842e-19 0)
(0.0010764 -1.38106e-05 8.67362e-19 -0.000459604 0 0)
(0.00176091 -3.86971e-05 4.33681e-19 -0.000756619 -2.1684e-19 0)
(0.00104752 -8.66041e-05 -8.67362e-19 -0.000410769 1.0842e-19 0)
(0.00105687 -7.25064e-05 2.60209e-18 -0.000424715 5.42101e-20 0)
(0.000952621 -0.000107199 0 -0.000257519 5.42101e-20 0)
(0.000966698 -0.000112 0 -0.000277477 0 0)
(0.00102148 -0.000272546 -1.73472e-18 -0.000360755 1.6263e-19 0)
(0.00169577 -0.000711092 -8.67362e-19 -0.000519308 0 0)
(0.00176454 -4.28608e-05 -1.73472e-18 -0.000784996 1.0842e-19 0)
(0.000726067 -6.24983e-05 -8.67362e-19 -0.000165222 3.38813e-21 0)
(0.000827297 -0.000190125 -8.67362e-19 -0.000226962 4.06576e-20 0)
(0.000802571 -0.000161466 -3.46945e-18 -0.00021574 0 0)
(0.00110093 -0.000260458 4.33681e-18 -0.000423539 -2.1684e-19 0)
(0.000866768 -0.000326217 1.73472e-18 -0.000292119 -6.77626e-20 0)
(0.000829 -0.000343613 -8.67362e-19 -0.000286538 -5.42101e-20 0)
(0.00130882 -0.00040184 8.67362e-19 -0.000797077 -1.0842e-19 0)
(0.00095782 -0.000386 -8.67362e-19 -0.000379491 1.0842e-19 0)
(0.000933744 -0.000292552 -2.1684e-18 -0.000309223 8.13152e-20 0)
(0.00460192 -0.000286312 -1.53957e-17 -0.00201218 7.15573e-18 0)
(0.000772427 -0.000520735 4.33681e-19 -0.000493857 -8.13152e-20 0)
(0.00208992 -0.000280017 -4.33681e-19 -0.00085899 -6.50521e-19 0)
(0.00178856 -3.63468e-06 2.1684e-19 -0.000772853 0 0)
(0.00105305 -0.000144241 0 -0.000394412 -1.0842e-19 0)
(0.00102719 -1.58646e-05 3.46945e-18 -0.000407233 -5.42101e-20 0)
(0.00091343 -9.18806e-06 -1.73472e-18 -0.000147846 1.35525e-20 0)
(0.00103586 -8.18027e-06 -1.73472e-18 -0.000431629 1.6263e-19 0)
(0.00086988 -0.000417105 0 -0.000361629 -5.42101e-20 0)
(0.00089427 -0.000397432 8.67362e-19 -0.000364128 -2.71051e-20 0)
(0.000684695 -0.00036847 -1.30104e-18 -0.00027384 1.35525e-20 0)
(0.000943252 -0.000144337 2.60209e-18 -0.000263462 5.42101e-20 0)
(0.000811364 -0.000477637 -4.33681e-19 -0.000476919 2.71051e-20 0)
(0.00109641 -0.000454261 4.33681e-19 -0.000603205 0 0)
(0.00106452 -0.000386959 8.67362e-19 -0.000431683 -8.13152e-20 0)
(0.00108097 -0.000256018 -1.73472e-18 -0.000423055 1.6263e-19 0)
(0.00181293 -5.17607e-05 -1.0842e-18 -0.000985359 5.42101e-19 0)
(0.00164021 -7.89208e-05 1.30104e-18 -0.000778959 -4.33681e-19 0)
(0.00350671 -1.25096e-05 -2.11419e-18 -0.00138137 7.58942e-18 0)
(0.000908257 -1.28251e-05 -8.67362e-19 -0.000136337 0 0)
(0.00103728 -1.00763e-05 0 -0.000430609 0 0)
(0.00151896 -0.000187124 -8.67362e-19 -0.000739037 3.25261e-19 0)
(0.00134214 -0.000403997 -4.33681e-19 -0.000808056 0 0)
(0.00271004 -0.00094092 -5.63785e-18 -0.00105474 1.73472e-18 0)
(0.000881527 -0.00036109 -4.33681e-19 -0.000323802 0 0)
(0.000745882 -3.57292e-05 8.67362e-19 -0.000168018 5.0822e-21 0)
(0.000942831 -0.000327916 8.67362e-19 -0.000328483 -5.42101e-20 0)
(0.00157166 -0.000375903 4.33681e-19 -0.000890966 -2.1684e-19 0)
(0.00127415 -0.000280908 4.33681e-19 -0.000529619 5.42101e-20 0)
(0.00162168 -0.00023706 -2.1684e-18 -0.000915611 5.42101e-19 0)
(0.000892083 -0.000538242 0 -0.000645368 -1.0842e-19 0)
(0.00101259 -6.35984e-05 -8.67362e-19 -0.000362646 5.42101e-20 0)
(0.000736225 -0.000140319 -1.73472e-18 -0.000187784 -1.35525e-20 0)
(0.00075152 -0.000118851 1.73472e-18 -0.000186505 -1.35525e-20 0)
(0.00122166 -0.00047486 -1.30104e-18 -0.00082472 1.0842e-19 0)
(0.00174202 -0.000103289 0 -0.00101114 -1.0842e-19 0)
(0.000843051 -0.000134096 8.67362e-19 -0.000220884 5.42101e-20 0)
(0.00125794 -0.000133618 1.30104e-18 -0.000533547 -1.0842e-19 0)
(0.000903277 -0.000448758 -8.67362e-19 -0.000412968 1.0842e-19 0)
(0.000956772 -0.000440296 -2.60209e-18 -0.000432388 8.13152e-20 0)
(0.000942881 -0.0002841 -4.33681e-19 -0.00032204 0 0)
(0.00157003 -0.000175307 8.67362e-19 -0.000790917 -4.33681e-19 0)
(0.00223861 -0.000547472 -8.67362e-19 -0.000748862 -6.50521e-19 0)
(0.00119736 -0.000214856 1.73472e-18 -0.0004927 -1.0842e-19 0)
(0.00171313 0.000283254 -2.1684e-19 -0.000783912 4.33681e-19 0)
(0.00200597 4.53931e-05 0 -0.000971031 -4.33681e-19 0)
(0.0019512 5.97508e-05 0 -0.00093598 0 0)
(0.00105473 -1.26511e-05 3.46945e-18 -0.000449291 -1.0842e-19 0)
(0.00138826 -0.000292918 -8.67362e-19 -0.000614651 -3.25261e-19 0)
(0.00101051 -0.000114685 1.73472e-18 -0.000347801 -2.1684e-19 0)
(0.00161252 -0.000161715 -4.33681e-19 -0.000917374 -2.1684e-19 0)
(0.00131787 -0.000280452 -4.33681e-19 -0.000564975 1.0842e-19 0)
(0.00158317 0.000240001 -1.6263e-19 -0.00059598 0 0)
(0.000880802 -0.000243247 -2.60209e-18 -0.000269574 -2.71051e-20 0)
(0.00113233 -0.000195101 -2.60209e-18 -0.000445202 1.0842e-19 0)
(0.0011018 -0.000185284 2.60209e-18 -0.00044724 1.0842e-19 0)
(0.00126655 -0.000135189 -2.60209e-18 -0.000539398 3.25261e-19 0)
(0.00173467 6.32323e-05 4.33681e-19 -0.000814481 0 0)
(0.000903324 -0.000343894 -4.33681e-19 -0.000322798 8.13152e-20 0)
(0.000661405 -0.000166114 0 -0.000160292 1.35525e-20 0)
(0.00103234 -3.98769e-05 1.73472e-18 -0.000409844 0 0)
(0.00100768 -0.000125922 8.67362e-19 -0.000359529 0 0)
(0.000962969 -0.000156788 -1.73472e-18 -0.000298754 0 0)
(0.000958054 -0.00017709 -8.67362e-19 -0.000304209 0 0)
(0.00151721 -0.000249087 4.33681e-19 -0.0008196 1.0842e-19 0)
(0.000694359 -3.55202e-05 8.67362e-19 -0.000167524 -1.69407e-21 0)
(0.00148335 -0.000274127 4.33681e-19 -0.000837461 -1.0842e-19 0)
(0.00347475 -0.00108375 3.25261e-18 -0.00123343 5.85469e-18 0)
(0.000881996 -7.3458e-05 -2.60209e-18 -0.000217794 6.77626e-21 0)
(0.000884326 -0.000102387 0 -0.000228543 1.35525e-20 0)
(0.00185561 -2.87616e-05 8.67362e-19 -0.000799297 -2.1684e-19 0)
(0.000985067 -0.000473456 8.67362e-19 -0.000681989 -2.1684e-19 0)
(0.000991293 -5.55461e-05 -8.67362e-19 -0.000310661 5.42101e-20 0)
(0.00195243 0.000172855 -1.6263e-19 -0.000566009 -2.1684e-18 0)
(0.000816191 -0.000107148 0 -0.000203871 1.35525e-20 0)
(0.00135399 7.97671e-05 -4.06576e-20 -0.000493253 0 0)
(0.000925925 -4.93199e-05 0 -0.000195285 -6.77626e-21 0)
(0.000921472 -3.55501e-05 1.73472e-18 -0.000167708 -6.77626e-21 0)
(0.00103304 -4.07361e-05 -1.73472e-18 -0.000408848 0 0)
(0.00103887 -3.05197e-05 0 -0.000427237 -1.0842e-19 0)
(0.00105732 -2.41322e-05 8.67362e-19 -0.000449371 -1.0842e-19 0)
(0.000477503 -0.000275314 -4.33681e-19 -0.000193401 -6.77626e-21 0)
(0.000507281 -0.000279001 -8.67362e-19 -0.000193105 0 0)
(0.00199314 0.000176811 2.1684e-19 -0.000951828 0 0)
(0.00191821 0.000228104 6.50521e-19 -0.000901821 -6.50521e-19 0)
(0.00172024 4.64683e-05 0 -0.000910967 -6.50521e-19 0)
(0.00105646 -0.000129032 -1.73472e-18 -0.000411356 -1.0842e-19 0)
(0.000904618 -1.80934e-05 -8.67362e-19 -0.000158772 -1.69407e-21 0)
(0.000963512 -0.000480727 4.33681e-19 -0.000549038 -8.13152e-20 0)
(0.000416592 -0.000295234 4.33681e-19 -0.000192317 -3.38813e-20 0)
(0.00136034 -0.00011741 -4.33681e-19 -0.000570279 1.0842e-19 0)
(0.00097453 -0.000146403 4.33681e-18 -0.000291073 -5.42101e-20 0)
(0.00174267 7.88759e-05 -1.0842e-18 -0.000864752 3.25261e-19 0)
(0.00188379 0.000214574 -2.1684e-19 -0.000906685 2.1684e-19 0)
(0.00214763 7.64261e-05 1.89735e-19 -0.000657971 -4.33681e-19 0)
(0.000843489 -0.000380507 1.30104e-18 -0.000328318 -2.71051e-20 0)
(0.00153958 0.000331454 -3.25261e-19 -0.000640658 1.73472e-18 0)
(0.00058523 0.00014537 -4.33681e-19 -0.00168248 0 0)
(0.00029431 -0.000287366 -1.73472e-18 -0.000436022 5.42101e-20 0)
(0.00188188 1.81475e-05 -2.1684e-19 -0.000974212 -4.33681e-19 0)
(0.000908932 -3.18923e-05 0 -0.000161788 -1.35525e-20 0)
(0.00163932 -0.000192829 -1.30104e-18 -0.000946652 5.42101e-19 0)
(0.00179092 4.66819e-05 4.33681e-19 -0.000771497 -6.50521e-19 0)
(0.00113241 -0.000818267 -4.33681e-19 -0.000213666 -2.1684e-19 0)
(0.000616535 -0.00032049 0 -0.000233143 -1.35525e-20 0)
(0.00108878 -0.000376397 -4.33681e-19 -0.000446624 5.42101e-20 0)
(0.00161187 -0.000182416 1.30104e-18 -0.000936499 2.1684e-19 0)
(0.000598037 -0.000334813 8.67362e-19 -0.000219586 0 0)
(0.000702729 -8.78773e-05 0 -0.000169427 -6.77626e-21 0)
(0.000824342 -0.000339281 -1.30104e-18 -0.000288037 -1.35525e-20 0)
(0.00133448 -0.000508115 1.30104e-18 -0.000625679 -2.1684e-19 0)
(0.000919106 -4.15548e-05 8.67362e-19 -0.00018913 -2.03288e-20 0)
(0.000973085 -0.000164646 1.73472e-18 -0.000294144 -2.71051e-20 0)
(0.00167813 0.000326495 -3.25261e-19 -0.000679454 8.67362e-19 0)
(0.000956506 -0.000164965 0 -0.000280987 5.42101e-20 0)
(0.001732 -4.06911e-05 4.33681e-19 -0.000945204 -3.25261e-19 0)
(0.00157886 -0.000168054 4.33681e-19 -0.000689122 2.1684e-19 0)
(0.000433589 -5.87796e-05 0 -0.00116358 0 0)
(0.00109337 -3.13922e-05 8.67362e-19 -0.000473932 1.0842e-19 0)
(0.00176407 -2.41114e-05 4.33681e-19 -0.000757148 -1.0842e-19 0)
(0.00121929 -0.000276354 -4.33681e-19 -0.000509796 1.0842e-19 0)
(0.00110124 -0.000112697 0 -0.000460404 1.0842e-19 0)
(0.00111678 -0.000100962 0 -0.000455969 0 0)
(0.000661694 -0.000302451 8.67362e-19 -0.000217323 -1.35525e-20 0)
(0.000943313 -0.000502055 -1.30104e-18 -0.000545909 5.42101e-20 0)
(0.00141644 -0.000544977 4.33681e-19 -0.000654842 2.1684e-19 0)
(0.00152021 -0.000102292 4.33681e-19 -0.000643197 -4.33681e-19 0)
(0.00143433 -0.000114993 4.33681e-19 -0.000623104 1.0842e-19 0)
(0.00127235 -0.000285108 -2.1684e-18 -0.000546143 2.71051e-19 0)
(0.000430973 -0.000345565 0 -0.000559431 -5.42101e-20 0)
(0.000969321 -0.000186018 0 -0.000299147 2.71051e-20 0)
(0.00180997 2.91974e-05 2.1684e-19 -0.000778441 -2.1684e-19 0)
(0.00165057 -8.23387e-05 0 -0.000788623 3.25261e-19 0)
(0.00102737 -1.42801e-05 1.73472e-18 -0.000412369 -5.42101e-20 0)
(0.0013158 -0.000304718 2.1684e-18 -0.000580158 -3.25261e-19 0)
(0.00189009 -5.80699e-05 -4.33681e-19 -0.000926668 -2.1684e-19 0)
(0.00108458 -0.000209518 -8.67362e-19 -0.00042747 1.0842e-19 0)
(0.00138849 0.000159908 -1.0842e-19 -0.000474601 4.33681e-19 0)
(0.00105342 -2.29045e-05 8.67362e-19 -0.000440048 -1.0842e-19 0)
(0.00138556 0.00013666 0 -0.000554109 0 0)
(0.000879806 -9.6069e-05 2.60209e-18 -0.000222455 -2.71051e-20 0)
(0.000856633 -7.9141e-05 2.60209e-18 -0.000214816 -2.71051e-20 0)
(0.00089659 -5.29494e-06 -8.67362e-19 -0.000106096 0 0)
(0.00104478 -1.75539e-06 8.67362e-19 -0.000449797 -1.6263e-19 0)
(0.000905259 -0.00016318 8.67362e-19 -0.000248146 4.06576e-20 0)
(0.000685252 -0.000360051 2.1684e-18 -0.000256757 -1.35525e-20 0)
(0.00168862 -0.000181855 0 -0.000957836 1.0842e-19 0)
(0.00169936 0.000291911 1.0842e-19 -0.000564434 -8.67362e-19 0)
(0.00130867 -5.16798e-05 0 -0.000573729 1.0842e-19 0)
(0.00197621 -0.000154852 -6.50521e-19 -0.000939042 0 0)
(0.00182269 -5.65323e-07 -4.33681e-19 -0.000978172 2.1684e-19 0)
(0.000716112 -0.000283445 8.67362e-19 -0.000217446 2.71051e-20 0)
(0.00184453 0.000253871 0 -0.000649682 -1.30104e-18 0)
(0.00102287 -0.000170402 -8.67362e-19 -0.000352584 5.42101e-20 0)
(0.000577483 -0.000276272 -2.1684e-18 -0.00019209 1.35525e-20 0)
(0.000991442 -2.00297e-05 8.67362e-19 -0.000336449 -5.42101e-20 0)
(0.000537068 -0.000261698 0 -0.000192226 -1.35525e-20 0)
(0.00055314 -0.000240041 8.67362e-19 -0.00017652 1.35525e-20 0)
(0.00150066 -0.000176191 8.67362e-19 -0.000653855 0 0)
(0.00117341 -0.000427952 4.33681e-19 -0.000788782 -3.25261e-19 0)
(0.00112293 -0.000382332 -8.67362e-19 -0.000477152 -1.0842e-19 0)
(0.00104676 -3.17767e-05 -8.67362e-19 -0.000427761 -5.42101e-20 0)
(0.000910201 -8.51298e-06 2.60209e-18 -0.000143986 -6.77626e-21 0)
(0.00104356 -1.80779e-06 -8.67362e-19 -0.000446058 5.42101e-20 0)
(0.000985473 -0.000213133 0 -0.000338216 -2.71051e-20 0)
(0.000619633 -0.000489011 4.33681e-19 -0.000418731 4.06576e-20 0)
(0.00165809 0.00033959 0 -0.000614732 -4.33681e-19 0)
(0.00177829 0.000278307 -4.33681e-19 -0.000850985 6.50521e-19 0)
(0.00166802 -0.000106549 8.67362e-19 -0.000715753 -4.33681e-19 0)
(0.00125595 -9.07505e-05 1.30104e-18 -0.000533538 -1.0842e-19 0)
(0.000411368 0.000152616 4.33681e-19 -0.000836443 1.6263e-19 0)
(0.000315307 9.37333e-05 -4.33681e-19 -0.000872061 -5.42101e-20 0)
(0.000763618 -0.000317767 -2.1684e-18 -0.00025546 4.06576e-20 0)
(0.00117014 -0.000126443 0 -0.000497502 -1.0842e-19 0)
(0.00117223 -0.000470369 0 -0.000686544 0 0)
(0.00123429 -1.20916e-05 -4.06576e-20 -0.000491632 0 0)
(0.000783105 -0.000443231 -8.67362e-19 -0.00036031 0 0)
(0.00133536 -7.39272e-05 0 -0.00057748 -3.25261e-19 0)
(0.00098073 -0.000205574 -2.60209e-18 -0.000314989 0 0)
(0.00084311 -0.000417795 8.67362e-19 -0.000359865 -5.42101e-20 0)
(0.000206198 1.55209e-06 0 -0.000518428 -1.69407e-20 0)
(0.00170308 6.7306e-05 0 -0.000737026 0 0)
(0.000542253 -0.00019829 -1.30104e-18 -0.000149572 2.71051e-20 0)
(0.00115044 -0.000162898 -8.67362e-19 -0.000477642 0 0)
(0.00055073 -0.000396458 1.73472e-18 -0.000352587 -2.71051e-20 0)
(0.00160524 -0.000132713 -8.67362e-19 -0.000771431 3.25261e-19 0)
(0.0009616 -2.53154e-05 1.73472e-18 -0.000243143 0 0)
(0.000996319 -0.000239115 0 -0.000333235 -5.42101e-20 0)
(0.000901367 -1.27179e-05 2.60209e-18 -0.000179099 -3.38813e-21 0)
(0.00106451 -1.4546e-05 0 -0.000455075 -2.1684e-19 0)
(0.001568 -0.000149749 -4.33681e-19 -0.000677801 1.0842e-19 0)
(0.000496198 -0.000331392 1.73472e-18 -0.000280504 0 0)
(0.00103804 -2.71499e-06 -8.67362e-19 -0.000442592 -1.0842e-19 0)
(0.00107752 -0.00020857 -1.73472e-18 -0.000409319 0 0)
(0.0012787 0.000221987 2.71051e-19 -0.000529969 -4.33681e-19 0)
(0.00104505 -0.000287368 8.67362e-19 -0.000389462 0 0)
(0.000924149 -0.000340233 -1.73472e-18 -0.000324489 1.0842e-19 0)
(0.000998556 -0.000283871 0 -0.000363236 -2.71051e-20 0)
(0.000905312 -1.09833e-05 0 -0.000159944 1.69407e-21 0)
(0.00109765 9.81603e-05 0 -0.000457318 -4.33681e-19 0)
(0.00120134 -0.000248315 -2.1684e-18 -0.000489556 2.1684e-19 0)
(0.00121091 -0.00030227 -1.73472e-18 -0.000498133 5.42101e-20 0)
(0.00106491 -0.000290653 8.67362e-19 -0.000406178 0 0)
(0.00188267 0.000107492 -8.13152e-20 -0.00055424 0 0)
(0.000428908 -5.18738e-05 8.67362e-19 -0.000125634 -3.38813e-21 0)
(0.00122771 8.80136e-05 0 -0.000532023 0 0)
(0.000870371 -0.000361627 -2.1684e-18 -0.000308908 8.13152e-20 0)
(0.00179107 0.000355411 -1.0842e-19 -0.000696446 0 0)
(0.000398358 -0.000303863 1.30104e-18 -0.00059113 -1.6263e-19 0)
(0.00165939 0.00037437 -4.33681e-19 -0.000652065 8.67362e-19 0)
(0.00119529 -0.000310116 -1.73472e-18 -0.000502069 -5.42101e-20 0)
(0.00172717 7.11853e-05 6.50521e-19 -0.000795331 -2.1684e-19 0)
(0.00190015 0.000307758 2.1684e-19 -0.00085484 0 0)
(0.000993224 -0.000174755 -8.67362e-19 -0.000339249 2.71051e-20 0)
(0.000903834 -0.000208552 -1.73472e-18 -0.000264728 2.71051e-20 0)
(0.000883101 -0.000215407 1.73472e-18 -0.00026473 4.06576e-20 0)
(0.000398198 -0.000337563 -1.30104e-18 -0.000240629 6.77626e-21 0)
(0.000501562 -0.000325475 -3.03577e-18 -0.00024132 1.35525e-20 0)
(0.000980098 -0.000232768 -1.73472e-18 -0.000335532 5.42101e-20 0)
(0.000983069 -6.82974e-05 8.67362e-19 -0.000323584 2.71051e-20 0)
(0.00097482 -0.000383354 0 -0.000379192 2.71051e-20 0)
(0.000505425 -0.000237902 0 -0.000172286 1.35525e-20 0)
(0.000912138 -3.45625e-05 -8.67362e-19 -0.000164517 2.03288e-20 0)
(0.00103922 -2.34994e-05 -8.67362e-19 -0.000419516 5.42101e-20 0)
(0.00126051 -0.000167644 1.30104e-18 -0.000525717 -5.42101e-20 0)
(0.000790688 -1.85514e-05 0 -0.00019033 1.69407e-21 0)
(0.00100206 -6.25691e-05 8.67362e-19 -0.000339434 -8.13152e-20 0)
(0.00114498 -0.000371732 8.67362e-19 -0.000477091 5.42101e-20 0)
(0.000981515 -9.58199e-05 -2.60209e-18 -0.000294699 1.0842e-19 0)
(0.00087918 -0.000248015 2.60209e-18 -0.000266936 -8.13152e-20 0)
(0.0015987 0.00022186 1.0842e-19 -0.000675001 -6.50521e-19 0)
(0.00149278 0.000214867 -3.25261e-19 -0.000666745 1.0842e-18 0)
(0.00116325 -0.000395892 0 -0.000515274 5.42101e-20 0)
(0.000500777 -0.000428101 -4.33681e-19 -0.000320011 1.35525e-20 0)
(0.00100287 -0.000389017 1.30104e-18 -0.000411493 0 0)
(0.00109664 -0.000396291 1.30104e-18 -0.000477827 5.42101e-20 0)
(0.000489177 -0.000335921 -8.67362e-19 -0.000240861 1.35525e-20 0)
(0.000932461 -9.14442e-05 3.46945e-18 -0.000228616 -2.71051e-20 0)
(0.00103645 -7.70109e-05 1.73472e-18 -0.000388078 -1.6263e-19 0)
(0.000319525 1.24329e-05 8.67362e-19 -0.000836173 -1.35525e-19 0)
(0.00124091 -2.80283e-05 8.67362e-19 -0.000532429 -2.1684e-19 0)
(0.000904398 -2.10531e-05 -8.67362e-19 -0.000135995 3.38813e-21 0)
(0.00104548 -8.15551e-06 8.67362e-19 -0.00044211 -5.42101e-20 0)
(0.00082131 -6.97599e-05 1.73472e-18 -0.000202268 -2.37169e-20 0)
(0.00048648 0.000202239 0 -0.00103873 0 0)
(0.000685815 -0.000297984 4.33681e-19 -0.000220189 -1.35525e-20 0)
(0.00173417 6.31284e-05 -1.0842e-18 -0.000763545 0 0)
(0.000935846 -7.68044e-05 1.73472e-18 -0.000217083 2.71051e-20 0)
(0.0010338 -6.81238e-05 8.67362e-19 -0.000407726 -1.0842e-19 0)
(0.00122705 -0.000405388 4.33681e-19 -0.000610181 0 0)
(0.000394793 -0.000180957 -8.67362e-19 -0.000747437 1.0842e-19 0)
(0.00124175 -0.000339373 8.67362e-19 -0.000547059 1.6263e-19 0)
(0.00103443 -0.000511902 8.67362e-19 -0.000626282 -1.0842e-19 0)
(0.000670496 -0.000159338 -8.67362e-19 -0.00017183 -2.03288e-20 0)
(0.00122069 -0.000217398 4.33681e-19 -0.000516545 5.42101e-20 0)
(0.00118199 -0.000278409 -1.30104e-18 -0.000484761 1.6263e-19 0)
(0.00226652 -0.00033617 -6.50521e-19 -0.00085894 -2.1684e-19 0)
(0.000864676 -0.00038579 -4.33681e-19 -0.0003281 2.71051e-20 0)
(0.000375374 -5.7701e-05 0 -0.00096356 -5.42101e-20 0)
(0.00041025 -0.000321889 1.73472e-18 -0.000405479 -4.06576e-20 0)
(0.000946332 -9.58771e-05 0 -0.000243914 -5.42101e-20 0)
(0.00124468 -0.000416421 4.33681e-19 -0.000820858 -1.0842e-19 0)
(0.00107205 -0.000298503 -4.33681e-19 -0.00040609 0 0)
(0.0011916 -0.000174118 0 -0.000485341 -1.0842e-19 0)
(0.00125908 -0.000211677 1.30104e-18 -0.000518423 5.42101e-20 0)
(0.000289792 -7.72756e-05 4.33681e-19 -0.000284782 1.0842e-19 0)
(0.00207603 0.000155817 4.33681e-19 -0.000786559 0 0)
(0.000917881 -0.000358157 0 -0.000330084 0 0)
(0.00161845 -0.000303659 0 -0.000972005 1.0842e-19 0)
(0.00125935 -0.000483032 0 -0.0008607 0 0)
(0.00179019 1.17568e-05 -8.13152e-20 -0.000561305 4.33681e-19 0)
(0.002291 6.01265e-05 4.33681e-19 -0.000804677 0 0)
(0.000554167 -0.000315492 -2.1684e-18 -0.000716399 1.6263e-19 0)
(0.00104026 -9.82781e-05 2.60209e-18 -0.000393924 0 0)
(0.00114865 -0.000167175 0 -0.000462346 -1.6263e-19 0)
(0.00143388 -0.000260671 4.33681e-19 -0.000653448 1.0842e-19 0)
(0.00136827 -0.000300745 -4.33681e-19 -0.000633142 1.0842e-19 0)
(0.00101322 -0.000322402 -8.67362e-19 -0.000367464 5.42101e-20 0)
(0.00104198 3.31603e-05 0 -0.000441965 0 0)
(0.00183519 0.000329671 0 -0.000843296 -4.33681e-19 0)
(0.000558231 -0.00018891 0 -0.000156253 1.01644e-20 0)
(0.000904277 -7.6467e-06 -8.67362e-19 -0.000130917 3.38813e-21 0)
(0.00104236 -1.56767e-06 0 -0.000444813 0 0)
(0.00104146 -8.62323e-05 -2.60209e-18 -0.000402906 1.6263e-19 0)
(0.000741782 -0.000486178 4.33681e-19 -0.000423576 -5.42101e-20 0)
(0.00290613 -0.000704104 -1.95156e-18 -0.000896527 6.50521e-19 0)
(0.00131805 -0.000415066 -8.67362e-19 -0.000826642 5.42101e-20 0)
(0.000883647 -0.000313018 1.30104e-18 -0.000292254 -5.42101e-20 0)
(0.000867853 -0.000372651 -1.73472e-18 -0.000328972 -2.71051e-20 0)
(0.000795744 -0.00035652 0 -0.000278863 -2.71051e-20 0)
(0.00104314 -4.65769e-06 8.67362e-19 -0.000441257 -1.6263e-19 0)
(0.00049438 -0.000375562 2.1684e-18 -0.000500791 -8.13152e-20 0)
(0.000973835 -0.000104596 -8.67362e-19 -0.000303939 -5.42101e-20 0)
(0.000739164 -0.000453499 -2.1684e-18 -0.000403967 5.42101e-20 0)
(0.000951865 -2.19329e-05 1.73472e-18 -0.000241924 0 0)
(0.00205716 0.000211586 2.1684e-19 -0.000713429 -4.33681e-19 0)
(0.001029 -8.9105e-05 0 -0.000400805 0 0)
(0.000915653 -1.76157e-05 1.73472e-18 -0.000159617 -1.01644e-20 0)
(0.00203929 0.000191532 3.25261e-19 -0.000726241 -8.67362e-19 0)
(0.000859076 -0.000162687 0 -0.000231146 -2.71051e-20 0)
(0.000931058 -8.6203e-05 8.67362e-19 -0.000229239 0 0)
(0.00148979 7.81623e-05 0 -0.000636027 -2.1684e-19 0)
(0.00213542 -0.000911354 -1.51788e-18 -0.000756401 6.50521e-19 0)
(0.000913637 -0.000178681 0 -0.000265845 0 0)
(0.000414787 -0.000421767 1.30104e-18 -0.000389152 -2.71051e-20 0)
(0.00138244 -0.000185058 -8.67362e-19 -0.000578022 2.71051e-19 0)
(0.00145122 -0.000251873 4.33681e-19 -0.0006549 0 0)
(0.00101629 -0.000203285 4.33681e-18 -0.000356609 -8.13152e-20 0)
(0.00100616 -0.000210827 0 -0.000348212 -2.71051e-20 0)
(0.00101367 -0.000317698 4.33681e-19 -0.000381953 0 0)
(0.0010563 0.000132634 5.42101e-20 -0.000426331 -1.30104e-18 0)
(0.00124004 -6.48637e-05 -1.30104e-18 -0.000538463 2.1684e-19 0)
(0.000372065 -4.96537e-05 0 -0.000136681 0 0)
(0.00133028 -0.000216786 4.33681e-19 -0.000571024 -3.25261e-19 0)
(0.00111811 -0.00044209 -2.1684e-18 -0.000792149 2.1684e-19 0)
(0.0010221 -0.000275519 8.67362e-19 -0.000380263 -5.42101e-20 0)
(0.00181817 5.44628e-05 4.33681e-19 -0.000797508 2.1684e-19 0)
(0.000509994 -0.000133247 1.30104e-18 -0.000139898 -1.35525e-20 0)
(0.00139888 0.000107157 2.1684e-19 -0.000589262 -4.33681e-19 0)
(0.00107737 -0.000420588 4.33681e-19 -0.000503 -5.42101e-20 0)
(0.000750766 -0.000175176 -1.73472e-18 -0.000191765 -6.77626e-21 0)
(0.000713326 -0.000181858 8.67362e-19 -0.000188754 0 0)
(0.00148713 0.000323714 -1.0842e-19 -0.000549731 4.33681e-19 0)
(0.00144966 -0.000239613 -4.33681e-19 -0.000649292 0 0)
(0.0015097 -0.000199342 1.30104e-18 -0.00064711 -2.71051e-19 0)
(0.000956454 -0.000194759 0 -0.00030384 -2.71051e-20 0)
(0.00233206 -6.05431e-05 0 -0.000659482 -1.73472e-18 0)
(0.00110764 -0.000441333 8.67362e-19 -0.000543655 -5.42101e-20 0)
(0.000859689 -0.000188623 0 -0.00024638 -1.35525e-20 0)
(0.0011874 -0.000448005 -4.33681e-19 -0.000711647 -5.42101e-20 0)
(0.000900834 -5.3716e-06 0 -0.000119531 -5.92923e-21 0)
(0.00104218 1.3227e-06 8.67362e-19 -0.000446295 -1.0842e-19 0)
(0.00192185 0.000201084 2.1684e-19 -0.000943258 -2.1684e-19 0)
(0.00133737 -0.000309059 -4.33681e-19 -0.00058622 -1.0842e-19 0)
(0.000941941 -0.000401453 8.67362e-19 -0.000374253 -2.71051e-20 0)
(0.000417256 -0.000415854 0 -0.000508418 2.71051e-20 0)
(0.00137767 -3.87338e-05 1.30104e-18 -0.000598072 -2.1684e-19 0)
(0.00195716 0.000194387 8.67362e-19 -0.000879573 -8.67362e-19 0)
(0.00211604 0.000158303 4.33681e-19 -0.00087286 2.1684e-19 0)
(0.000549717 -0.000230421 8.67362e-19 -0.000681281 5.42101e-20 0)
(0.00116696 -0.000495588 -4.33681e-19 -0.000821587 0 0)
(0.00111068 -0.000418103 4.33681e-19 -0.000508671 -1.0842e-19 0)
(0.00109033 -0.000171093 0 -0.000418734 -5.42101e-20 0)
(0.00132469 -0.000327934 -1.30104e-18 -0.000628721 0 0)
(0.00130532 -0.000373806 4.33681e-19 -0.000652312 5.42101e-20 0)
(0.00107105 -2.95016e-05 8.67362e-19 -0.000457889 -5.42101e-20 0)
(0.00248849 5.8573e-05 -2.43945e-19 -0.000763174 4.33681e-19 0)
(0.00139155 -0.000421927 4.33681e-19 -0.000896668 -1.0842e-19 0)
(0.00099184 -5.41095e-05 1.73472e-18 -0.000346365 -1.0842e-19 0)
(0.00125629 -0.000426376 8.67362e-19 -0.000845739 0 0)
(0.00138099 -0.000137471 -1.73472e-18 -0.000575377 2.1684e-19 0)
(0.000948199 -0.000181191 0 -0.000283117 2.71051e-20 0)
(0.00169535 0.000274744 1.0842e-19 -0.000610315 0 0)
(0.000898028 -1.01793e-05 -1.73472e-18 -0.000120574 -7.6233e-21 0)
(0.00104479 -1.14982e-06 -8.67362e-19 -0.000445996 -5.42101e-20 0)
(0.000930349 -0.000232859 0 -0.000288004 5.42101e-20 0)
(0.000896322 -0.000157341 -2.60209e-18 -0.000251912 4.06576e-20 0)
(0.000938 -1.9129e-05 1.73472e-18 -0.000209828 -1.35525e-20 0)
(0.00123417 -9.32425e-05 4.33681e-19 -0.000523043 1.0842e-19 0)
(0.00173234 0.00010115 -4.33681e-19 -0.000730077 2.1684e-19 0)
(0.00107724 -0.000236588 -8.67362e-19 -0.000403316 -5.42101e-20 0)
(0.00105521 -0.000248137 8.67362e-19 -0.000401865 0 0)
(0.000928815 -0.000169733 2.60209e-18 -0.000268148 2.71051e-20 0)
(0.00104816 -0.000281076 0 -0.000388021 -5.42101e-20 0)
(0.000761398 -0.000167638 8.67362e-19 -0.000199282 -5.42101e-20 0)
(0.000941749 -0.000184889 0 -0.000280259 0 0)
(0.00115988 -0.000403304 -1.30104e-18 -0.000563627 1.0842e-19 0)
(0.000400447 8.05094e-05 -8.67362e-19 -0.000680425 1.0842e-19 0)
(0.000779462 -0.000255928 0 -0.000235374 1.35525e-20 0)
(0.00172881 -7.1425e-05 0 -0.000993651 3.25261e-19 0)
(0.001005 -0.000163953 -8.67362e-19 -0.000330236 -1.6263e-19 0)
(0.00135139 -0.000295869 0 -0.000609952 5.42101e-20 0)
(0.00128543 -0.000233925 1.30104e-18 -0.000540667 0 0)
(0.00119023 -0.000272468 4.33681e-19 -0.000481448 -1.6263e-19 0)
(0.00157177 0.000197107 4.33681e-19 -0.000697132 -4.33681e-19 0)
(0.00144081 -0.00023904 0 -0.00061968 -1.0842e-19 0)
(0.0013978 -0.000266971 -8.67362e-19 -0.000621804 -3.25261e-19 0)
(0.000906569 -2.40627e-05 1.73472e-18 -0.000192774 -1.35525e-20 0)
(0.00253871 -0.000996748 -2.81893e-18 -0.000796789 1.30104e-18 0)
(0.000931261 -0.000117662 -1.73472e-18 -0.000244241 2.71051e-20 0)
(0.000712881 -0.000260826 -2.60209e-18 -0.000211163 4.06576e-20 0)
(0.00110753 -0.000219252 -8.67362e-19 -0.000424796 5.42101e-20 0)