/*--------------------------------*- C++ -*----------------------------------*\
| =========                 |                                                 |
| \\      /  F ield         | OpenFOAM: The Open Source CFD Toolbox           |
|  \\    /   O peration     | Version:  v2012                                 |
|   \\  /    A nd           | Website:  www.openfoam.com                      |
|    \\/     M anipulation  |                                                 |
\*---------------------------------------------------------------------------*/
FoamFile
{
    version     2.0;
    format      ascii;
    class       pointScalarField;
    location    "1";
    object      pEpsilonEq;
}
// * * * * * * * * * * * * * * * * * * * * * * * * * * * * * * * * * * * * * //

dimensions      [0 0 0 0 0 0 0];


internalField   nonuniform List<scalar> 
150591
(
1.86839e-05
4.41539e-05
1.94567e-05
7.54815e-05
1.27035e-05
1.88398e-05
1.53314e-05
1.59403e-05
6.14767e-05
1.53203e-05
2.07618e-05
2.17544e-05
1.80282e-05
1.36212e-05
2.09523e-05
5.23197e-05
6.75437e-05
9.20109e-05
1.47407e-05
1.50968e-05
1.55101e-05
1.57756e-05
1.59254e-05
1.59792e-05
1.59867e-05
1.59698e-05
1.57869e-05
1.56519e-05
1.55144e-05
1.53552e-05
1.52217e-05
1.51052e-05
1.49931e-05
1.4979e-05
1.50519e-05
1.52024e-05
1.55722e-05
1.67491e-05
1.69564e-05
1.72951e-05
1.76548e-05
1.814e-05
1.86636e-05
1.91345e-05
1.96824e-05
2.02444e-05
2.0816e-05
2.13597e-05
2.20021e-05
2.26638e-05
2.32967e-05
2.3945e-05
2.45625e-05
2.52912e-05
2.6049e-05
2.66971e-05
2.73348e-05
2.79627e-05
2.87228e-05
2.94057e-05
3.00539e-05
3.07415e-05
3.13909e-05
3.20885e-05
3.27823e-05
3.33866e-05
3.40426e-05
3.4717e-05
3.53621e-05
3.59745e-05
3.66049e-05
3.73411e-05
3.80638e-05
3.87147e-05
3.94583e-05
4.02134e-05
4.10083e-05
4.18926e-05
4.2832e-05
4.3958e-05
4.52892e-05
4.67453e-05
4.84788e-05
5.06452e-05
5.32651e-05
5.90596e-05
1.61196e-05
1.59066e-05
1.60457e-05
1.6198e-05
1.63457e-05
1.64864e-05
1.66197e-05
1.6746e-05
1.68658e-05
1.69801e-05
1.70894e-05
1.71924e-05
1.72809e-05
1.74038e-05
1.74027e-05
1.74869e-05
1.76176e-05
1.76893e-05
1.7756e-05
1.78218e-05
1.78858e-05
1.79476e-05
1.80007e-05
1.80516e-05
1.81313e-05
1.81567e-05
1.82582e-05
1.82429e-05
1.82878e-05
1.83976e-05
1.84497e-05
1.84994e-05
1.85506e-05
1.86021e-05
1.86529e-05
1.87027e-05
1.87517e-05
1.88001e-05
1.88482e-05
1.88966e-05
1.89455e-05
1.89958e-05
1.90483e-05
1.91039e-05
1.91647e-05
1.92344e-05
1.93222e-05
1.94579e-05
1.98163e-05
1.52905e-05
1.49437e-05
1.48847e-05
1.50374e-05
1.5021e-05
1.49126e-05
1.4828e-05
1.47467e-05
1.45649e-05
1.45481e-05
1.44361e-05
1.43181e-05
1.41025e-05
1.40517e-05
1.39339e-05
1.38167e-05
1.37014e-05
1.34974e-05
1.34276e-05
1.33298e-05
1.32428e-05
1.3047e-05
1.351e-05
1.30274e-05
1.29106e-05
1.29214e-05
1.28583e-05
1.29539e-05
1.29822e-05
1.27849e-05
1.30971e-05
1.29128e-05
1.31713e-05
1.32992e-05
1.34658e-05
1.38882e-05
1.4306e-05
1.42886e-05
1.44098e-05
1.48517e-05
1.50992e-05
1.58613e-05
1.59811e-05
1.59331e-05
1.641e-05
1.68641e-05
1.70896e-05
1.69552e-05
1.75944e-05
1.81123e-05
1.75109e-05
1.69909e-05
1.65239e-05
1.6092e-05
1.57141e-05
1.53868e-05
1.51097e-05
1.48734e-05
1.46517e-05
1.43958e-05
1.41233e-05
1.38645e-05
1.36206e-05
1.34105e-05
1.32258e-05
1.30728e-05
1.29316e-05
1.29138e-05
1.2671e-05
1.25105e-05
1.23413e-05
1.21909e-05
1.207e-05
1.19454e-05
1.185e-05
1.18222e-05
1.18322e-05
1.18673e-05
1.19151e-05
1.19867e-05
1.21138e-05
1.22398e-05
1.23669e-05
1.25036e-05
1.26633e-05
1.28192e-05
1.30145e-05
1.32743e-05
1.3543e-05
1.38186e-05
1.41666e-05
1.45482e-05
1.49247e-05
1.53249e-05
1.57842e-05
1.62802e-05
1.67838e-05
1.7332e-05
1.79186e-05
1.8543e-05
1.92052e-05
1.99051e-05
2.06416e-05
2.13829e-05
2.21892e-05
2.31604e-05
2.40624e-05
2.50303e-05
2.60511e-05
2.717e-05
2.8157e-05
2.93291e-05
3.07592e-05
3.22987e-05
3.41743e-05
3.67397e-05
4.34868e-05
1.92669e-05
1.87032e-05
1.81336e-05
1.75716e-05
1.70116e-05
1.6482e-05
1.59565e-05
1.5444e-05
1.49536e-05
1.45393e-05
1.41911e-05
1.3931e-05
1.37971e-05
1.38701e-05
1.42173e-05
1.48162e-05
1.55991e-05
1.68221e-05
1.837e-05
2.09061e-05
2.1687e-05
2.24029e-05
2.31181e-05
2.37928e-05
2.45445e-05
2.52962e-05
2.59996e-05
2.66987e-05
2.74597e-05
2.81857e-05
2.88901e-05
2.96448e-05
3.03828e-05
3.11375e-05
3.18201e-05
3.25231e-05
3.32112e-05
3.38769e-05
3.46069e-05
3.53424e-05
3.60195e-05
3.66436e-05
3.72865e-05
3.79252e-05
3.8539e-05
3.92287e-05
3.99129e-05
4.05226e-05
4.11536e-05
4.17967e-05
4.24518e-05
4.31224e-05
4.38138e-05
4.45331e-05
4.5289e-05
4.60915e-05
4.69533e-05
4.7889e-05
4.89166e-05
5.00576e-05
5.13381e-05
5.27897e-05
5.44504e-05
5.63665e-05
5.85943e-05
6.12082e-05
6.43273e-05
7.15113e-05
1.29517e-05
1.23882e-05
1.25425e-05
1.25382e-05
1.26755e-05
1.28125e-05
1.2744e-05
1.29052e-05
1.30696e-05
1.32412e-05
1.35479e-05
1.36842e-05
1.39219e-05
1.41478e-05
1.41887e-05
1.42127e-05
1.44052e-05
1.46267e-05
1.48155e-05
1.48666e-05
1.49035e-05
1.50124e-05
1.5032e-05
1.51331e-05
1.52175e-05
1.52505e-05
1.52653e-05
1.52429e-05
1.52645e-05
1.52813e-05
1.53117e-05
1.53371e-05
1.53566e-05
1.53726e-05
1.53903e-05
1.53172e-05
1.53106e-05
1.53938e-05
1.54152e-05
1.53972e-05
1.5408e-05
1.54518e-05
1.54857e-05
1.55038e-05
1.55758e-05
1.56276e-05
1.56572e-05
1.5714e-05
1.60371e-05
6.9963e-05
6.93943e-05
7.00552e-05
7.05487e-05
7.0985e-05
7.12115e-05
7.18603e-05
7.27499e-05
7.22329e-05
7.29325e-05
7.9663e-05
6.85884e-05
7.39109e-05
7.45857e-05
7.44101e-05
7.45471e-05
7.51321e-05
7.54973e-05
7.64494e-05
7.65385e-05
8.2728e-05
7.1823e-05
7.6576e-05
7.63795e-05
7.7212e-05
7.76177e-05
7.77906e-05
7.79884e-05
7.8211e-05
7.84314e-05
7.86424e-05
7.88442e-05
7.90373e-05
7.92261e-05
7.95905e-05
8.03592e-05
7.91542e-05
7.96221e-05
7.99071e-05
8.01442e-05
8.09007e-05
8.75895e-05
7.49366e-05
8.03713e-05
8.06101e-05
8.07083e-05
8.08833e-05
8.196e-05
8.89585e-05
4.49581e-05
4.49664e-05
4.49761e-05
4.50435e-05
4.51512e-05
4.5289e-05
4.54515e-05
4.56361e-05
4.58414e-05
4.60666e-05
4.63113e-05
4.65752e-05
4.68581e-05
4.716e-05
4.74809e-05
4.78211e-05
4.81807e-05
4.856e-05
4.8959e-05
4.93782e-05
4.98176e-05
5.02776e-05
5.07583e-05
5.126e-05
5.1783e-05
5.23273e-05
5.28933e-05
5.34811e-05
5.40909e-05
5.47227e-05
5.53765e-05
5.60524e-05
5.67502e-05
5.74696e-05
5.82102e-05
5.89714e-05
5.97523e-05
6.05515e-05
6.13675e-05
6.2199e-05
6.30457e-05
6.38973e-05
6.47478e-05
6.55864e-05
6.63954e-05
6.71457e-05
6.78051e-05
6.848e-05
7.28471e-05
1.60749e-05
1.60963e-05
1.60834e-05
1.60753e-05
1.61536e-05
1.62181e-05
1.63033e-05
1.63412e-05
1.63196e-05
1.6475e-05
1.65947e-05
1.6603e-05
1.67217e-05
1.67974e-05
1.6883e-05
1.69696e-05
1.70551e-05
1.71923e-05
1.72542e-05
1.73504e-05
1.75468e-05
1.76187e-05
1.77106e-05
1.779e-05
1.78977e-05
1.79701e-05
1.80624e-05
1.81787e-05
1.82476e-05
1.83273e-05
1.84067e-05
1.84814e-05
1.85478e-05
1.86042e-05
1.87431e-05
1.88456e-05
1.88781e-05
1.89183e-05
1.89517e-05
1.89547e-05
1.90404e-05
1.9139e-05
1.91156e-05
1.91239e-05
1.9125e-05
1.91096e-05
1.90616e-05
1.89318e-05
1.90042e-05
1.54807e-05
1.56954e-05
1.59237e-05
1.6136e-05
1.63206e-05
1.64813e-05
1.66236e-05
1.67516e-05
1.68686e-05
1.69775e-05
1.70837e-05
1.72184e-05
1.70165e-05
1.76396e-05
1.75025e-05
1.7524e-05
1.76159e-05
1.77107e-05
1.78027e-05
1.78925e-05
1.79796e-05
1.80588e-05
1.8102e-05
1.80657e-05
1.80339e-05
1.81222e-05
1.81857e-05
1.8252e-05
1.8318e-05
1.83821e-05
1.84437e-05
1.8503e-05
1.85604e-05
1.86163e-05
1.8671e-05
1.8725e-05
1.87789e-05
1.8833e-05
1.88881e-05
1.8945e-05
1.90047e-05
1.90686e-05
1.91384e-05
1.92168e-05
1.93076e-05
1.94174e-05
1.95606e-05
1.97844e-05
1.97151e-05
2.08514e-05
1.94351e-05
1.86564e-05
1.80319e-05
1.74324e-05
1.69278e-05
1.64026e-05
1.59855e-05
1.55724e-05
1.52554e-05
1.50316e-05
1.50143e-05
1.50863e-05
1.5382e-05
1.56711e-05
1.63158e-05
1.77023e-05
1.83645e-05
1.95026e-05
2.1732e-05
2.23099e-05
2.24341e-05
2.24784e-05
2.24864e-05
2.24749e-05
2.24504e-05
2.24159e-05
2.2373e-05
2.23225e-05
2.22641e-05
2.21948e-05
2.20996e-05
2.18488e-05
2.1991e-05
2.19541e-05
2.18065e-05
2.16954e-05
2.1588e-05
2.14762e-05
2.13533e-05
2.12032e-05
2.11814e-05
2.10208e-05
2.08156e-05
2.04973e-05
2.06001e-05
2.03507e-05
2.03303e-05
2.0047e-05
1.99221e-05
2.00841e-05
1.99511e-05
1.96978e-05
1.95633e-05
1.92475e-05
1.91404e-05
1.91421e-05
1.9023e-05
1.88023e-05
1.88634e-05
1.85543e-05
1.84488e-05
1.83319e-05
1.83711e-05
1.83174e-05
1.79203e-05
1.79655e-05
1.81365e-05
1.70007e-05
1.65181e-05
1.60851e-05
1.59407e-05
1.59502e-05
1.59158e-05
1.6084e-05
1.61596e-05
1.62619e-05
1.63315e-05
1.64675e-05
1.66798e-05
1.67593e-05
1.6797e-05
1.67862e-05
1.65992e-05
1.62777e-05
1.56981e-05
1.49154e-05
1.41407e-05
1.32476e-05
1.18646e-05
1.11943e-05
1.07688e-05
1.03517e-05
1.00109e-05
9.71125e-06
9.80279e-06
9.78139e-06
9.69081e-06
9.94957e-06
1.02249e-05
1.05856e-05
1.10416e-05
1.16295e-05
1.23399e-05
1.32114e-05
1.42986e-05
1.70438e-05
1.48194e-05
1.27018e-05
1.06814e-05
8.7621e-06
6.92977e-06
5.19312e-06
3.61651e-06
2.43863e-06
2.30661e-06
3.33093e-06
4.82857e-06
6.49492e-06
8.25269e-06
1.00866e-05
1.20015e-05
1.40154e-05
1.61655e-05
1.85898e-05
1.76926e-05
1.67523e-05
1.60034e-05
1.54572e-05
1.50959e-05
1.48947e-05
1.4828e-05
1.48602e-05
1.49666e-05
1.51318e-05
1.53471e-05
1.5617e-05
1.59282e-05
1.63867e-05
1.69311e-05
1.76084e-05
1.84524e-05
1.94764e-05
2.06578e-05
1.43178e-05
1.31626e-05
1.22667e-05
1.16009e-05
1.11363e-05
1.08344e-05
1.06844e-05
1.06569e-05
1.07251e-05
1.09081e-05
1.11629e-05
1.14928e-05
1.19432e-05
1.24482e-05
1.30708e-05
1.38307e-05
1.47252e-05
1.57913e-05
1.70927e-05
1.34638e-05
1.33004e-05
1.3815e-05
1.33708e-05
1.37613e-05
1.3501e-05
1.31668e-05
1.38733e-05
1.4122e-05
1.40327e-05
1.44987e-05
1.42035e-05
1.48305e-05
1.46499e-05
1.54137e-05
1.5025e-05
1.53868e-05
1.55803e-05
1.56246e-05
1.57308e-05
1.56414e-05
1.6038e-05
1.57841e-05
1.61911e-05
1.5983e-05
1.62174e-05
1.61557e-05
1.64954e-05
1.62957e-05
1.62622e-05
1.63168e-05
1.64816e-05
1.64565e-05
1.64453e-05
1.64741e-05
1.65183e-05
1.66326e-05
1.66088e-05
1.66364e-05
1.67153e-05
1.68719e-05
1.69007e-05
1.68142e-05
1.69038e-05
1.71138e-05
1.72426e-05
1.72466e-05
1.74621e-05
1.77539e-05
1.47493e-05
1.57087e-05
1.52381e-05
1.56456e-05
1.57583e-05
1.56505e-05
1.56764e-05
1.51991e-05
1.56893e-05
1.53835e-05
1.53903e-05
1.48793e-05
1.48436e-05
1.5043e-05
1.492e-05
1.49208e-05
1.43899e-05
1.47195e-05
1.46265e-05
1.46564e-05
1.40675e-05
1.43589e-05
1.44735e-05
1.45169e-05
1.45537e-05
1.4636e-05
1.42322e-05
1.40192e-05
1.462e-05
1.49687e-05
1.46437e-05
1.54305e-05
1.53497e-05
1.58764e-05
1.53936e-05
1.58437e-05
1.64083e-05
1.70401e-05
1.63376e-05
1.75519e-05
1.93855e-05
1.85494e-05
1.94688e-05
1.83793e-05
1.92007e-05
1.89731e-05
2.00036e-05
1.99617e-05
1.9613e-05
2.05717e-05
2.0102e-05
1.95717e-05
1.89474e-05
1.83398e-05
1.78425e-05
1.7416e-05
1.70672e-05
1.68102e-05
1.66647e-05
1.64784e-05
1.62049e-05
1.57981e-05
1.52939e-05
1.48945e-05
1.4585e-05
1.43368e-05
1.4165e-05
1.38727e-05
1.15364e-05
1.06411e-05
9.61109e-06
8.56516e-06
7.59752e-06
6.76169e-06
6.05974e-06
5.55847e-06
5.32895e-06
5.35941e-06
5.63734e-06
6.11719e-06
6.7934e-06
7.63663e-06
8.57279e-06
9.51933e-06
1.0583e-05
1.18989e-05
1.30239e-05
1.71636e-05
1.51113e-05
1.32082e-05
1.10684e-05
8.99967e-06
6.96539e-06
4.92312e-06
3.01188e-06
1.74022e-06
2.52618e-06
4.37554e-06
6.50526e-06
8.53709e-06
1.05918e-05
1.26299e-05
1.4593e-05
1.64747e-05
1.82994e-05
1.99001e-05
1.32679e-05
1.32496e-05
1.31717e-05
1.28947e-05
1.26544e-05
1.25287e-05
1.23729e-05
1.23084e-05
1.24194e-05
1.24139e-05
1.24733e-05
1.27152e-05
1.29015e-05
1.30855e-05
1.31909e-05
1.34044e-05
1.37314e-05
1.38841e-05
1.39379e-05
1.4088e-05
1.46407e-05
1.48131e-05
1.53884e-05
1.55782e-05
1.59935e-05
1.64573e-05
1.6826e-05
1.77454e-05
1.79412e-05
1.85115e-05
1.91318e-05
1.97823e-05
2.04697e-05
2.12024e-05
2.19957e-05
2.28803e-05
2.35793e-05
2.4287e-05
2.52228e-05
2.61717e-05
2.71668e-05
2.82069e-05
2.93021e-05
3.04753e-05
3.17785e-05
3.33389e-05
3.55215e-05
4.00717e-05
4.37095e-05
4.97195e-05
4.89492e-05
4.89619e-05
4.90199e-05
4.90469e-05
4.91788e-05
4.9339e-05
4.95828e-05
4.96929e-05
4.99813e-05
5.01862e-05
5.0329e-05
5.05761e-05
5.08388e-05
5.11327e-05
5.15204e-05
5.18305e-05
5.21555e-05
5.24765e-05
5.27521e-05
5.32184e-05
5.35811e-05
5.38779e-05
5.42883e-05
5.47129e-05
5.51515e-05
5.56041e-05
5.60707e-05
5.6551e-05
5.70452e-05
5.7553e-05
5.80745e-05
5.86096e-05
5.91583e-05
5.97205e-05
6.02961e-05
6.08849e-05
6.14867e-05
6.21012e-05
6.27278e-05
6.33653e-05
6.40123e-05
6.46643e-05
6.53158e-05
6.59519e-05
6.65404e-05
6.70018e-05
6.71843e-05
6.74706e-05
6.86048e-05
6.95169e-05
6.00563e-05
5.46582e-05
5.09589e-05
4.84114e-05
4.6489e-05
4.49687e-05
4.37711e-05
4.27315e-05
4.18322e-05
4.10771e-05
4.03038e-05
3.95453e-05
3.89016e-05
3.83364e-05
3.76647e-05
3.70115e-05
3.64438e-05
3.58561e-05
3.52379e-05
3.50963e-05
3.36078e-05
3.32611e-05
3.26057e-05
3.1955e-05
3.12265e-05
3.05667e-05
3.04038e-05
2.88918e-05
2.89981e-05
2.82094e-05
2.69729e-05
2.66875e-05
2.5905e-05
2.56923e-05
2.43427e-05
2.44027e-05
2.31033e-05
2.31682e-05
2.18682e-05
2.1467e-05
2.12802e-05
2.05107e-05
2.00116e-05
1.9243e-05
1.93367e-05
1.85917e-05
1.83692e-05
3.12068e-05
2.41612e-05
1.96247e-05
1.64033e-05
1.39776e-05
1.21133e-05
1.07161e-05
9.76832e-06
9.29073e-06
9.3076e-06
9.82039e-06
1.08075e-05
1.22497e-05
1.41625e-05
1.66275e-05
1.98393e-05
2.42067e-05
3.06217e-05
4.12872e-05
3.65254e-05
2.84405e-05
2.31685e-05
1.92929e-05
1.62305e-05
1.37253e-05
1.16748e-05
1.0078e-05
9.01899e-06
8.59666e-06
8.87673e-06
9.8349e-06
1.13459e-05
1.33541e-05
1.58527e-05
1.89546e-05
2.30438e-05
2.94018e-05
4.10046e-05
6.76074e-05
7.07934e-05
7.16564e-05
7.39326e-05
7.54526e-05
7.43104e-05
7.54092e-05
7.71638e-05
7.21484e-05
7.45596e-05
7.65847e-05
7.34396e-05
7.64791e-05
7.92642e-05
7.69323e-05
7.75971e-05
7.64257e-05
7.76011e-05
7.86002e-05
8.00744e-05
7.8404e-05
7.84924e-05
8.15891e-05
7.94206e-05
8.06159e-05
8.11333e-05
8.13219e-05
8.17607e-05
8.19389e-05
8.20453e-05
8.21592e-05
8.23762e-05
8.24825e-05
8.26772e-05
8.28491e-05
8.42984e-05
8.17298e-05
8.35283e-05
8.35324e-05
8.35786e-05
8.36517e-05
8.37759e-05
8.3798e-05
8.39163e-05
8.39567e-05
8.39873e-05
8.39605e-05
8.4161e-05
8.56011e-05
8.58459e-05
7.86904e-05
6.94568e-05
6.37695e-05
5.98146e-05
5.6885e-05
5.46319e-05
5.28494e-05
5.14022e-05
5.01974e-05
4.91686e-05
4.82679e-05
4.74604e-05
4.67204e-05
4.60287e-05
4.53712e-05
4.47372e-05
4.41184e-05
4.35087e-05
4.29039e-05
4.23008e-05
4.17002e-05
4.10942e-05
4.04769e-05
3.98472e-05
3.92053e-05
3.85596e-05
3.79738e-05
3.77887e-05
3.63972e-05
3.64737e-05
3.50059e-05
3.46614e-05
3.44121e-05
3.36185e-05
3.22263e-05
3.18717e-05
3.15872e-05
3.01273e-05
3.01273e-05
2.93025e-05
2.79364e-05
2.74955e-05
2.71618e-05
2.57469e-05
2.56345e-05
2.47482e-05
2.39958e-05
2.23858e-05
3.91059e-05
2.99177e-05
2.44079e-05
2.03134e-05
1.70239e-05
1.43037e-05
1.20784e-05
1.03793e-05
9.32106e-06
9.04295e-06
9.59718e-06
1.08978e-05
1.2808e-05
1.5243e-05
1.82148e-05
2.18727e-05
2.66533e-05
3.3925e-05
4.91807e-05
1.52063e-05
1.57859e-05
1.61457e-05
1.63795e-05
1.65067e-05
1.65236e-05
1.65256e-05
1.6499e-05
1.63026e-05
1.61369e-05
1.5953e-05
1.57616e-05
1.56016e-05
1.54532e-05
1.53149e-05
1.52708e-05
1.52941e-05
1.54708e-05
1.5855e-05
1.56264e-05
1.59522e-05
1.62053e-05
1.63837e-05
1.64753e-05
1.64822e-05
1.64649e-05
1.63232e-05
1.6279e-05
1.606e-05
1.58557e-05
1.56578e-05
1.54979e-05
1.53548e-05
1.52197e-05
1.51803e-05
1.51882e-05
1.53794e-05
1.58071e-05
1.59213e-05
1.61389e-05
1.63035e-05
1.64268e-05
1.64877e-05
1.64846e-05
1.64288e-05
1.62817e-05
1.6215e-05
1.60051e-05
1.57926e-05
1.55897e-05
1.54236e-05
1.52865e-05
1.51777e-05
1.51349e-05
1.52098e-05
1.53826e-05
1.58024e-05
1.61502e-05
1.63164e-05
1.64154e-05
1.64899e-05
1.65182e-05
1.64908e-05
1.6406e-05
1.62741e-05
1.61546e-05
1.59528e-05
1.57376e-05
1.5528e-05
1.53485e-05
1.51712e-05
1.50835e-05
1.50381e-05
1.51416e-05
1.53403e-05
1.57819e-05
1.63406e-05
1.64777e-05
1.65289e-05
1.6561e-05
1.65556e-05
1.65024e-05
1.64032e-05
1.62631e-05
1.61063e-05
1.59039e-05
1.56878e-05
1.54749e-05
1.52843e-05
1.50662e-05
1.50069e-05
1.49874e-05
1.50979e-05
1.53093e-05
1.5782e-05
1.65069e-05
1.66233e-05
1.66385e-05
1.66341e-05
1.65968e-05
1.652e-05
1.64054e-05
1.62507e-05
1.60661e-05
1.58586e-05
1.56436e-05
1.5443e-05
1.52362e-05
1.51084e-05
1.5011e-05
1.50034e-05
1.51058e-05
1.53273e-05
1.58264e-05
1.66567e-05
1.67557e-05
1.67422e-05
1.67063e-05
1.66398e-05
1.65395e-05
1.64085e-05
1.6238e-05
1.60297e-05
1.58148e-05
1.55986e-05
1.53833e-05
1.51658e-05
1.50533e-05
1.49639e-05
1.49638e-05
1.50734e-05
1.53292e-05
1.58629e-05
1.67946e-05
1.68771e-05
1.68395e-05
1.67761e-05
1.66824e-05
1.65584e-05
1.64104e-05
1.62236e-05
1.59942e-05
1.57704e-05
1.55443e-05
1.53128e-05
1.51059e-05
1.49861e-05
1.4909e-05
1.49231e-05
1.50465e-05
1.53256e-05
1.58906e-05
1.69239e-05
1.69895e-05
1.69303e-05
1.68424e-05
1.67234e-05
1.65753e-05
1.64088e-05
1.62013e-05
1.5957e-05
1.57235e-05
1.54849e-05
1.52479e-05
1.50483e-05
1.49251e-05
1.48642e-05
1.48991e-05
1.50333e-05
1.53207e-05
1.59062e-05
1.70472e-05
1.70942e-05
1.70146e-05
1.69043e-05
1.67622e-05
1.65902e-05
1.63983e-05
1.61119e-05
1.58822e-05
1.56298e-05
1.53835e-05
1.51442e-05
1.49488e-05
1.48282e-05
1.4786e-05
1.4852e-05
1.5039e-05
1.53211e-05
1.59283e-05
1.71685e-05
1.7193e-05
1.70923e-05
1.69616e-05
1.68001e-05
1.66085e-05
1.63915e-05
1.60498e-05
1.5874e-05
1.56181e-05
1.53749e-05
1.51236e-05
1.49205e-05
1.47931e-05
1.47531e-05
1.48346e-05
1.50644e-05
1.53628e-05
1.60071e-05
1.73002e-05
1.72948e-05
1.71698e-05
1.70222e-05
1.68468e-05
1.66541e-05
1.63909e-05
1.61775e-05
1.59142e-05
1.56438e-05
1.54693e-05
1.52159e-05
1.50105e-05
1.48747e-05
1.48209e-05
1.48877e-05
1.50943e-05
1.54348e-05
1.60674e-05
1.75252e-05
1.74714e-05
1.73404e-05
1.71821e-05
1.6993e-05
1.67681e-05
1.64705e-05
1.62512e-05
1.59679e-05
1.56357e-05
1.55952e-05
1.54319e-05
1.52282e-05
1.508e-05
1.50201e-05
1.50906e-05
1.52999e-05
1.56613e-05
1.6407e-05
1.79561e-05
1.79317e-05
1.78103e-05
1.76359e-05
1.7418e-05
1.71492e-05
1.68422e-05
1.65756e-05
1.62572e-05
1.59272e-05
1.4882e-05
1.46502e-05
1.44771e-05
1.43831e-05
1.43916e-05
1.45286e-05
1.48062e-05
1.52598e-05
1.61314e-05
1.70203e-05
1.70495e-05
1.69169e-05
1.67333e-05
1.65075e-05
1.6242e-05
1.59552e-05
1.56895e-05
1.54125e-05
1.5226e-05
1.52542e-05
1.49937e-05
1.47947e-05
1.46809e-05
1.46713e-05
1.4786e-05
1.50456e-05
1.54772e-05
1.624e-05
1.75295e-05
1.75249e-05
1.73835e-05
1.71926e-05
1.69581e-05
1.66859e-05
1.63901e-05
1.61002e-05
1.57981e-05
1.54827e-05
1.51967e-05
1.4936e-05
1.47373e-05
1.46288e-05
1.46311e-05
1.47582e-05
1.50375e-05
1.54863e-05
1.63019e-05
1.76627e-05
1.76079e-05
1.74406e-05
1.72294e-05
1.6977e-05
1.66911e-05
1.63848e-05
1.60769e-05
1.57576e-05
1.54407e-05
1.51537e-05
1.4895e-05
1.46968e-05
1.45915e-05
1.46067e-05
1.47461e-05
1.50447e-05
1.55176e-05
1.63663e-05
1.77716e-05
1.76881e-05
1.75019e-05
1.7274e-05
1.70067e-05
1.67081e-05
1.63901e-05
1.60662e-05
1.57355e-05
1.54116e-05
1.5116e-05
1.48561e-05
1.46575e-05
1.45528e-05
1.45849e-05
1.47374e-05
1.50576e-05
1.55569e-05
1.64392e-05
1.78683e-05
1.77601e-05
1.75587e-05
1.73159e-05
1.70341e-05
1.67224e-05
1.63919e-05
1.60541e-05
1.57131e-05
1.5382e-05
1.50795e-05
1.48177e-05
1.4619e-05
1.4511e-05
1.45632e-05
1.47304e-05
1.50761e-05
1.56072e-05
1.65339e-05
1.79575e-05
1.78252e-05
1.76113e-05
1.73535e-05
1.70567e-05
1.67316e-05
1.63887e-05
1.60386e-05
1.56883e-05
1.53504e-05
1.50423e-05
1.47793e-05
1.45818e-05
1.44669e-05
1.45362e-05
1.47241e-05
1.50963e-05
1.56618e-05
1.66154e-05
1.80348e-05
1.78834e-05
1.76585e-05
1.73826e-05
1.70702e-05
1.67318e-05
1.63773e-05
1.60165e-05
1.56577e-05
1.53138e-05
1.50016e-05
1.47388e-05
1.45449e-05
1.44206e-05
1.44597e-05
1.4691e-05
1.50901e-05
1.56973e-05
1.67101e-05
1.80486e-05
1.7905e-05
1.76544e-05
1.73564e-05
1.70281e-05
1.66771e-05
1.6312e-05
1.5942e-05
1.55764e-05
1.52281e-05
1.49144e-05
1.46559e-05
1.44754e-05
1.43837e-05
1.43944e-05
1.46538e-05
1.50866e-05
1.57295e-05
1.68276e-05
1.80681e-05
1.80231e-05
1.77713e-05
1.7459e-05
1.71123e-05
1.67429e-05
1.63599e-05
1.59728e-05
1.55914e-05
1.52291e-05
1.49035e-05
1.46377e-05
1.44617e-05
1.44476e-05
1.44764e-05
1.471e-05
1.5148e-05
1.58132e-05
1.6907e-05
1.81962e-05
1.81138e-05
1.78687e-05
1.75567e-05
1.72048e-05
1.68277e-05
1.64362e-05
1.60405e-05
1.56512e-05
1.52819e-05
1.49498e-05
1.46753e-05
1.44948e-05
1.44213e-05
1.44778e-05
1.47159e-05
1.51685e-05
1.58481e-05
1.69488e-05
1.8256e-05
1.81207e-05
1.78647e-05
1.75512e-05
1.71967e-05
1.68151e-05
1.64182e-05
1.6017e-05
1.5623e-05
1.525e-05
1.49153e-05
1.46421e-05
1.4457e-05
1.43747e-05
1.44572e-05
1.47128e-05
1.51851e-05
1.58781e-05
1.7003e-05
1.84257e-05
1.82332e-05
1.79683e-05
1.765e-05
1.7288e-05
1.68965e-05
1.64885e-05
1.60757e-05
1.56703e-05
1.52868e-05
1.49432e-05
1.46623e-05
1.4466e-05
1.43909e-05
1.44816e-05
1.47503e-05
1.52354e-05
1.5945e-05
1.70678e-05
1.87897e-05
1.86064e-05
1.83498e-05
1.80213e-05
1.76427e-05
1.72307e-05
1.68e-05
1.63636e-05
1.59346e-05
1.55282e-05
1.51635e-05
1.48624e-05
1.46525e-05
1.45729e-05
1.46621e-05
1.49419e-05
1.54476e-05
1.61881e-05
1.74548e-05
1.78496e-05
1.77151e-05
1.74461e-05
1.71137e-05
1.67387e-05
1.63371e-05
1.59226e-05
1.5508e-05
1.51066e-05
1.47342e-05
1.44097e-05
1.41558e-05
1.40011e-05
1.39823e-05
1.41341e-05
1.44796e-05
1.50453e-05
1.58583e-05
1.72082e-05
1.83625e-05
1.81877e-05
1.79071e-05
1.75688e-05
1.71885e-05
1.67802e-05
1.63569e-05
1.5931e-05
1.55157e-05
1.51265e-05
1.4782e-05
1.45058e-05
1.43271e-05
1.42819e-05
1.4406e-05
1.47268e-05
1.52691e-05
1.60544e-05
1.72847e-05
1.84528e-05
1.8238e-05
1.79351e-05
1.75803e-05
1.71869e-05
1.67678e-05
1.63353e-05
1.59017e-05
1.54801e-05
1.5086e-05
1.47388e-05
1.44623e-05
1.42867e-05
1.42475e-05
1.43803e-05
1.47144e-05
1.52748e-05
1.60714e-05
1.73541e-05
1.85271e-05
1.82912e-05
1.79719e-05
1.76035e-05
1.71987e-05
1.67701e-05
1.63295e-05
1.58889e-05
1.54615e-05
1.5063e-05
1.47129e-05
1.44358e-05
1.42622e-05
1.42275e-05
1.43676e-05
1.47138e-05
1.52904e-05
1.61074e-05
1.74197e-05
1.85912e-05
1.83393e-05
1.80065e-05
1.7626e-05
1.72108e-05
1.6773e-05
1.63247e-05
1.58775e-05
1.54446e-05
1.50418e-05
1.46891e-05
1.44115e-05
1.42397e-05
1.42095e-05
1.43573e-05
1.47156e-05
1.53078e-05
1.61438e-05
1.74824e-05
1.86488e-05
1.83826e-05
1.80379e-05
1.76464e-05
1.72213e-05
1.67751e-05
1.63193e-05
1.58658e-05
1.54278e-05
1.50212e-05
1.46661e-05
1.43881e-05
1.42183e-05
1.41927e-05
1.43484e-05
1.47185e-05
1.53256e-05
1.61793e-05
1.75412e-05
1.87022e-05
1.84224e-05
1.80668e-05
1.7665e-05
1.72307e-05
1.67763e-05
1.63136e-05
1.58542e-05
1.54114e-05
1.50012e-05
1.46441e-05
1.43659e-05
1.41982e-05
1.41773e-05
1.43409e-05
1.47223e-05
1.53441e-05
1.62144e-05
1.75972e-05
1.87527e-05
1.84598e-05
1.80938e-05
1.76823e-05
1.72392e-05
1.67772e-05
1.63079e-05
1.58429e-05
1.53956e-05
1.49821e-05
1.46232e-05
1.4345e-05
1.41794e-05
1.41632e-05
1.43345e-05
1.47271e-05
1.53636e-05
1.62515e-05
1.76586e-05
1.88013e-05
1.84956e-05
1.81196e-05
1.76987e-05
1.72472e-05
1.67779e-05
1.63023e-05
1.58322e-05
1.53806e-05
1.49641e-05
1.46036e-05
1.43254e-05
1.4162e-05
1.41504e-05
1.43291e-05
1.47326e-05
1.5384e-05
1.62938e-05
1.77421e-05
1.88487e-05
1.85304e-05
1.81443e-05
1.77144e-05
1.72548e-05
1.67785e-05
1.62971e-05
1.5822e-05
1.53666e-05
1.49473e-05
1.45853e-05
1.43073e-05
1.4146e-05
1.41388e-05
1.43245e-05
1.4738e-05
1.54029e-05
1.63324e-05
1.77999e-05
1.88956e-05
1.85645e-05
1.81684e-05
1.77295e-05
1.72622e-05
1.67792e-05
1.62922e-05
1.58125e-05
1.53534e-05
1.49315e-05
1.45682e-05
1.42905e-05
1.41313e-05
1.41284e-05
1.43207e-05
1.47432e-05
1.54199e-05
1.63606e-05
1.78349e-05
1.89427e-05
1.85984e-05
1.8192e-05
1.77441e-05
1.72692e-05
1.67798e-05
1.62875e-05
1.58036e-05
1.5341e-05
1.49168e-05
1.45524e-05
1.4275e-05
1.41179e-05
1.41191e-05
1.43174e-05
1.4748e-05
1.54338e-05
1.63813e-05
1.78667e-05
1.89907e-05
1.86324e-05
1.82151e-05
1.77583e-05
1.7276e-05
1.67804e-05
1.6283e-05
1.57951e-05
1.53294e-05
1.4903e-05
1.45376e-05
1.42607e-05
1.41058e-05
1.41108e-05
1.43148e-05
1.47523e-05
1.54451e-05
1.6399e-05
1.78948e-05
1.90406e-05
1.86669e-05
1.8238e-05
1.77718e-05
1.72822e-05
1.67806e-05
1.62785e-05
1.5787e-05
1.53182e-05
1.489e-05
1.45237e-05
1.42474e-05
1.40948e-05
1.41036e-05
1.43127e-05
1.47563e-05
1.54555e-05
1.64156e-05
1.79194e-05
1.90938e-05
1.87025e-05
1.82604e-05
1.77845e-05
1.72879e-05
1.67803e-05
1.62736e-05
1.57789e-05
1.53074e-05
1.48775e-05
1.45105e-05
1.4235e-05
1.40847e-05
1.40973e-05
1.43113e-05
1.47603e-05
1.54659e-05
1.6435e-05
1.79634e-05
1.91521e-05
1.87397e-05
1.82825e-05
1.77962e-05
1.72924e-05
1.67789e-05
1.62679e-05
1.57703e-05
1.52966e-05
1.48652e-05
1.44977e-05
1.4223e-05
1.40754e-05
1.40918e-05
1.43106e-05
1.47645e-05
1.54753e-05
1.6451e-05
1.79871e-05
1.92181e-05
1.87792e-05
1.83037e-05
1.78062e-05
1.72953e-05
1.67758e-05
1.62607e-05
1.57606e-05
1.52853e-05
1.48526e-05
1.44847e-05
1.42109e-05
1.40664e-05
1.40869e-05
1.43107e-05
1.47691e-05
1.54843e-05
1.64609e-05
1.7991e-05
1.92953e-05
1.88219e-05
1.83236e-05
1.78135e-05
1.72956e-05
1.67699e-05
1.6251e-05
1.57486e-05
1.52733e-05
1.48392e-05
1.44711e-05
1.41981e-05
1.40572e-05
1.40821e-05
1.43115e-05
1.47744e-05
1.54933e-05
1.64687e-05
1.79916e-05
1.93889e-05
1.88691e-05
1.83416e-05
1.78166e-05
1.7292e-05
1.67602e-05
1.62382e-05
1.57333e-05
1.52604e-05
1.48244e-05
1.44566e-05
1.41835e-05
1.40469e-05
1.40766e-05
1.43132e-05
1.47805e-05
1.55032e-05
1.64775e-05
1.79845e-05
1.95092e-05
1.89258e-05
1.83619e-05
1.78172e-05
1.72879e-05
1.67498e-05
1.62252e-05
1.5717e-05
1.52493e-05
1.4811e-05
1.44432e-05
1.41677e-05
1.4036e-05
1.40706e-05
1.4317e-05
1.47896e-05
1.55161e-05
1.64895e-05
1.79669e-05
1.96888e-05
1.90354e-05
1.8429e-05
1.7862e-05
1.73248e-05
1.67824e-05
1.62542e-05
1.5743e-05
1.52739e-05
1.48345e-05
1.4464e-05
1.41838e-05
1.40466e-05
1.4082e-05
1.43335e-05
1.4819e-05
1.55463e-05
1.65099e-05
1.79477e-05
1.99424e-05
1.93063e-05
1.86941e-05
1.8115e-05
1.7565e-05
1.70203e-05
1.64865e-05
1.5965e-05
1.54804e-05
1.50378e-05
1.46619e-05
1.43722e-05
1.42139e-05
1.42415e-05
1.45043e-05
1.50257e-05
1.5774e-05
1.67562e-05
1.82866e-05
1.28905e-05
1.29506e-05
1.3141e-05
1.33296e-05
1.35207e-05
1.37124e-05
1.39121e-05
1.41182e-05
1.43412e-05
1.46039e-05
1.48845e-05
1.51751e-05
1.54739e-05
1.57828e-05
1.61041e-05
1.64545e-05
1.68337e-05
1.72407e-05
1.76856e-05
1.28596e-05
1.29595e-05
1.31417e-05
1.33242e-05
1.34978e-05
1.36686e-05
1.38457e-05
1.40323e-05
1.42392e-05
1.44807e-05
1.47493e-05
1.50262e-05
1.52914e-05
1.55408e-05
1.57857e-05
1.60439e-05
1.63125e-05
1.65723e-05
1.68389e-05
1.30397e-05
1.29922e-05
1.31079e-05
1.32415e-05
1.33968e-05
1.35731e-05
1.37776e-05
1.40018e-05
1.42318e-05
1.445e-05
1.46633e-05
1.49104e-05
1.51983e-05
1.54949e-05
1.57924e-05
1.6095e-05
1.64134e-05
1.67105e-05
1.69934e-05
1.29964e-05
1.30017e-05
1.31896e-05
1.33831e-05
1.35775e-05
1.37518e-05
1.39206e-05
1.41078e-05
1.42905e-05
1.44792e-05
1.46753e-05
1.48658e-05
1.50863e-05
1.53257e-05
1.55524e-05
1.57782e-05
1.60329e-05
1.63818e-05
1.67515e-05
1.32662e-05
1.31824e-05
1.32626e-05
1.33596e-05
1.34872e-05
1.36244e-05
1.37212e-05
1.38386e-05
1.39963e-05
1.41496e-05
1.43179e-05
1.45044e-05
1.47349e-05
1.50009e-05
1.52765e-05
1.55639e-05
1.58128e-05
1.60546e-05
1.63444e-05
1.32634e-05
1.30812e-05
1.3139e-05
1.32043e-05
1.32892e-05
1.34146e-05
1.35483e-05
1.36676e-05
1.38101e-05
1.39716e-05
1.41306e-05
1.42661e-05
1.44285e-05
1.46234e-05
1.48242e-05
1.5044e-05
1.53e-05
1.55878e-05
1.58586e-05
1.32973e-05
1.31827e-05
1.32238e-05
1.32538e-05
1.32904e-05
1.33556e-05
1.34484e-05
1.35428e-05
1.36634e-05
1.37995e-05
1.39326e-05
1.40454e-05
1.41487e-05
1.42954e-05
1.452e-05
1.47858e-05
1.5089e-05
1.5453e-05
1.58371e-05
1.3453e-05
1.3286e-05
1.33579e-05
1.34452e-05
1.35263e-05
1.35967e-05
1.36794e-05
1.37539e-05
1.38339e-05
1.39399e-05
1.40661e-05
1.42236e-05
1.44007e-05
1.45749e-05
1.47785e-05
1.5e-05
1.52333e-05
1.55069e-05
1.58101e-05
1.35929e-05
1.34713e-05
1.35537e-05
1.36235e-05
1.36926e-05
1.37455e-05
1.37812e-05
1.38268e-05
1.38902e-05
1.39692e-05
1.40532e-05
1.414e-05
1.42366e-05
1.43307e-05
1.44202e-05
1.45381e-05
1.46868e-05
1.48768e-05
1.50952e-05
1.39063e-05
1.37745e-05
1.38024e-05
1.3829e-05
1.38472e-05
1.38842e-05
1.39192e-05
1.3936e-05
1.39694e-05
1.40309e-05
1.40929e-05
1.41251e-05
1.41432e-05
1.4174e-05
1.41933e-05
1.42604e-05
1.43988e-05
1.45824e-05
1.47887e-05
1.40967e-05
1.38788e-05
1.38716e-05
1.3866e-05
1.38942e-05
1.39397e-05
1.39798e-05
1.40048e-05
1.40156e-05
1.40228e-05
1.4025e-05
1.40083e-05
1.39865e-05
1.40031e-05
1.40277e-05
1.40602e-05
1.41431e-05
1.42695e-05
1.43746e-05
1.42e-05
1.40098e-05
1.40503e-05
1.41084e-05
1.41281e-05
1.41296e-05
1.41012e-05
1.4047e-05
1.4001e-05
1.39757e-05
1.4035e-05
1.4072e-05
1.40277e-05
1.40115e-05
1.40274e-05
1.40346e-05
1.40245e-05
1.40834e-05
1.4202e-05
1.44925e-05
1.42908e-05
1.42675e-05
1.42439e-05
1.42329e-05
1.42321e-05
1.42433e-05
1.42429e-05
1.42442e-05
1.42429e-05
1.42608e-05
1.45239e-05
1.45314e-05
1.45032e-05
1.44558e-05
1.43984e-05
1.43628e-05
1.43625e-05
1.44768e-05
1.49819e-05
1.4969e-05
1.49675e-05
1.49674e-05
1.49735e-05
1.49745e-05
1.49502e-05
1.48907e-05
1.47751e-05
1.45312e-05
1.36207e-05
1.34936e-05
1.34245e-05
1.3359e-05
1.33242e-05
1.33073e-05
1.32998e-05
1.33272e-05
1.36096e-05
1.42624e-05
1.40914e-05
1.41058e-05
1.41253e-05
1.41448e-05
1.4129e-05
1.40638e-05
1.4012e-05
1.39527e-05
1.40992e-05
1.42859e-05
1.41053e-05
1.39081e-05
1.37243e-05
1.35555e-05
1.34383e-05
1.33953e-05
1.34273e-05
1.35265e-05
1.4803e-05
1.46957e-05
1.47124e-05
1.47099e-05
1.46733e-05
1.46588e-05
1.46204e-05
1.45562e-05
1.45173e-05
1.4424e-05
1.42558e-05
1.40987e-05
1.3946e-05
1.3808e-05
1.36569e-05
1.35094e-05
1.34212e-05
1.33905e-05
1.33874e-05
1.49761e-05
1.48723e-05
1.4887e-05
1.48656e-05
1.48461e-05
1.48024e-05
1.47312e-05
1.46493e-05
1.45603e-05
1.44723e-05
1.43808e-05
1.42622e-05
1.41257e-05
1.39903e-05
1.38287e-05
1.36621e-05
1.34902e-05
1.33617e-05
1.32544e-05
1.51951e-05
1.50343e-05
1.5011e-05
1.50097e-05
1.49648e-05
1.49415e-05
1.48939e-05
1.48374e-05
1.47676e-05
1.46681e-05
1.45545e-05
1.43907e-05
1.42083e-05