/*--------------------------------*- C++ -*----------------------------------*\
| =========                 |                                                 |
| \\      /  F ield         | OpenFOAM: The Open Source CFD Toolbox           |
|  \\    /   O peration     | Version:  v2012                                 |
|   \\  /    A nd           | Website:  www.openfoam.com                      |
|    \\/     M anipulation  |                                                 |
\*---------------------------------------------------------------------------*/
FoamFile
{
    version     2.0;
    format      ascii;
    class       volVectorField;
    location    "14";
    object      D;
}
// * * * * * * * * * * * * * * * * * * * * * * * * * * * * * * * * * * * * * //

dimensions      [0 1 0 0 0 0 0];


internalField   nonuniform List<vector> 
30465
(
(0.00238415 -0.00019006 0)
(0.00280915 -5.9991e-05 0)
(0.00120701 -0.000832771 0)
(0.00261987 -0.000198021 0)
(0.00286971 -0.000259966 0)
(0.00287359 -0.000263006 0)
(0.00110567 -0.000858105 0)
(0.000278806 -0.00185174 0)
(0.000754646 -0.00137066 0)
(0.0015823 -0.000555065 0)
(0.00019721 -0.00189985 0)
(0.00139604 -0.000569055 0)
(0.00241186 -0.000137217 0)
(0.00247327 -0.000150179 0)
(0.00196443 -0.000369996 0)
(0.0010431 -0.000952071 0)
(0.00285808 -0.000236958 0)
(0.00165809 -0.000631633 0)
(0.000765828 -0.00135477 0)
(0.00315037 -0.0001754 0)
(0.00281508 -1.31783e-05 0)
(0.00281936 -1.27316e-05 0)
(0.00256286 -5.08842e-05 0)
(0.000573208 -0.00151783 0)
(0.00255734 -5.22646e-05 0)
(0.00317741 -8.99642e-05 0)
(0.00317081 -9.22407e-05 0)
(0.00287445 -6.04005e-05 0)
(0.00303639 -4.6422e-05 0)
(0.00132625 -0.0010069 0)
(0.00215372 -0.000197193 0)
(0.00332789 -4.56703e-05 0)
(0.00238394 -0.000166586 0)
(0.00269825 -0.000169711 0)
(0.00240031 -0.000311687 0)
(0.00295769 -4.22099e-05 0)
(0.000712724 -0.00138818 0)
(0.00208117 -0.00083289 0)
(0.00277506 -0.000168029 0)
(0.00141369 -0.000560212 0)
(0.00271105 -3.5065e-05 0)
(0.00196425 -0.000330941 0)
(0.000552127 -0.00153638 0)
(0.00282556 -5.38313e-05 0)
(0.00283468 -5.30481e-05 0)
(0.000876878 -0.00128599 0)
(0.00165705 -0.000455172 0)
(0.00281609 -5.94885e-05 0)
(0.00325738 -7.6356e-05 0)
(0.00279291 -2.53014e-05 0)
(0.00278981 -2.65038e-05 0)
(0.00261646 -0.000141684 0)
(0.000384981 -0.00157892 0)
(0.000371176 -0.00160115 0)
(0.00123843 -0.00136427 0)
(0.00268989 -8.04255e-05 0)
(0.00124967 -0.00137563 0)
(0.00302381 -0.000133658 0)
(0.00305836 -5.05976e-05 0)
(0.00338144 -1.37811e-05 0)
(0.00337968 -1.34195e-05 0)
(0.00147123 -0.000674835 0)
(0.00298826 -1.83306e-06 0)
(0.00234383 -0.000271982 0)
(0.00234785 -0.000268283 0)
(0.00267457 -1.41486e-05 0)
(0.0022049 -0.000310077 0)
(0.000755573 -0.0014641 0)
(0.0028184 -3.64558e-06 0)
(0.0028728 -0.000121314 0)
(0.00253431 -6.30672e-05 0)
(0.00329186 -8.87332e-05 0)
(0.000896458 -0.000900541 0)
(0.00156199 -0.000481401 0)
(0.00238244 -0.000169334 0)
(0.00144348 -0.00054838 0)
(0.00316322 -2.28775e-05 0)
(0.00316497 -2.16315e-05 0)
(0.00222123 -0.000461907 0)
(0.000224229 -0.00188101 0)
(0.00073095 -0.00113231 0)
(0.000711352 -0.00114794 0)
(0.00283636 -0.000209417 0)
(0.0030685 -8.98348e-05 0)
(0.00250965 -0.000128467 0)
(0.0033118 -6.85832e-05 0)
(0.00306103 -5.18192e-05 0)
(0.0014555 -0.000540774 0)
(0.00289454 -0.000285633 0)
(0.00289187 -2.66718e-05 0)
(0.00336067 -3.64902e-05 0)
(0.00335896 -3.64441e-05 0)
(0.00286419 -0.000243526 0)
(0.00286671 -0.000239787 0)
(0.00157652 -0.000563588 0)
(0.0032365 -3.4655e-05 0)
(0.0030532 -5.81204e-05 0)
(0.00306076 -5.76948e-05 0)
(0.000302177 -0.00180907 0)
(0.0030914 -4.79869e-05 0)
(0.00271308 -0.000223617 0)
(0.00277189 -1.62598e-05 0)
(0.00277239 -1.69099e-05 0)
(0.00212909 -0.000202129 0)
(0.00250594 -0.000109818 0)
(0.00206948 -0.000364176 0)
(0.00208262 -0.000362423 0)
(0.00320324 -0.000103772 0)
(0.00252385 -6.55667e-05 0)
(0.00263803 -4.74297e-05 0)
(0.00113708 -0.000931612 0)
(0.00263988 -0.000234985 0)
(0.00232338 -0.000309031 0)
(0.00233202 -0.000310127 0)
(0.00229432 -0.000157074 0)
(0.0023004 -0.000153566 0)
(0.00274577 -6.92324e-06 0)
(0.00330178 -8.70053e-05 0)
(0.00328128 -1.16677e-05 0)
(0.000297126 -0.00169921 0)
(0.00131657 -0.000617724 0)
(0.00295247 -4.2687e-05 0)
(0.00257233 -8.82048e-05 0)
(0.00270668 -2.48863e-05 0)
(0.00284793 -5.53495e-05 0)
(0.00284659 -5.37315e-05 0)
(0.00280061 -5.56573e-06 0)
(0.00241911 -0.000269689 0)
(0.00325054 -0.000141336 0)
(0.00269221 -4.3801e-05 0)
(0.000591171 -0.00160956 0)
(0.00331331 -7.69087e-06 0)
(0.00111511 -0.00094719 0)
(0.000128832 -0.00195155 0)
(0.00313969 -0.000136937 0)
(0.00271696 -1.55533e-05 0)
(0.000924098 -0.000898129 0)
(0.00301644 -8.65662e-05 0)
(0.000647665 -0.00149317 0)
(0.000934063 -0.000887886 0)
(0.0025424 -8.30748e-05 0)
(0.000145195 -0.00196609 0)
(0.00272204 -1.17225e-05 0)
(0.00270778 -3.6244e-05 0)
(0.00303134 -2.74202e-05 0)
(0.00146256 -0.000716162 0)
(0.00338628 -2.91845e-05 0)
(0.00338246 -2.99358e-05 0)
(0.00204056 -0.000262678 0)
(0.00344304 -1.08252e-06 0)
(0.00316087 -0.000245418 0)
(0.00192754 -0.00028483 0)
(0.00325517 -6.17123e-05 0)
(0.00325913 -6.16989e-05 0)
(0.00273014 -0.000269738 0)
(0.00244253 -0.000149662 0)
(0.00213374 -0.00033383 0)
(0.00279853 -0.000181457 0)
(0.00179206 -0.000393336 0)
(0.00285911 -4.77042e-05 0)
(0.00286498 -4.65233e-05 0)
(0.00178348 -0.00039987 0)
(0.00205981 -0.000306147 0)
(0.00205313 -0.000310794 0)
(0.00273162 -1.10365e-05 0)
(0.00327386 -2.88266e-06 0)
(0.00310152 -5.5788e-05 0)
(0.000338342 -0.00181076 0)
(0.0030252 -9.71807e-05 0)
(0.00178397 -0.000395891 0)
(0.00239251 -0.000113766 0)
(0.00332434 -2.07222e-05 0)
(0.00320847 -4.1545e-05 0)
(0.00321439 -4.16241e-05 0)
(0.00300136 -8.73753e-05 0)
(0.00175301 -0.00041481 0)
(0.00243608 -0.000275768 0)
(0.00221684 -0.000163039 0)
(0.00273581 -9.23399e-06 0)
(0.000142018 -0.00197007 0)
(0.00121088 -0.000727213 0)
(0.00227667 -0.000202586 0)
(0.00228743 -0.000199735 0)
(0.00295788 -0.000286835 0)
(0.00323299 -0.000147384 0)
(0.00236308 -0.000138761 0)
(0.000491337 -0.00155676 0)
(0.00263144 -0.000151153 0)
(0.00328733 -1.1485e-05 0)
(0.00287983 -0.000235312 0)
(0.00168698 -0.000464776 0)
(0.0032197 -9.3647e-05 0)
(0.00267825 -2.59313e-05 0)
(0.000166837 -0.00195403 0)
(0.00283472 -0.000229634 0)
(0.00283049 -0.000227905 0)
(0.00111868 -0.000844004 0)
(0.00273227 -0.000138467 0)
(0.0028847 -0.000177128 0)
(0.00237344 -0.000193676 0)
(0.00331219 -1.77465e-05 0)
(0.00309784 -4.81394e-05 0)
(0.00341614 -9.34105e-06 0)
(0.000146746 -0.00193624 0)
(0.00224135 -0.000150724 0)
(0.00254613 -8.08732e-05 0)
(0.00270359 -2.51834e-05 0)
(0.000261511 -0.00186712 0)
(0.002149 -0.0001904 0)
(0.00285231 -3.87803e-05 0)
(0.00119702 -0.000819299 0)
(0.00256029 -7.57135e-05 0)
(0.00280344 -1.98288e-06 0)
(0.00311633 -6.69462e-05 0)
(0.000896347 -0.00127019 0)
(0.00212093 -0.000335394 0)
(0.00210973 -0.000340615 0)
(0.00315395 -9.9549e-05 0)
(0.00315947 -9.70585e-05 0)
(0.00169653 -0.000458238 0)
(0.00250087 -0.000265368 0)
(0.00245154 -0.000154183 0)
(0.00326855 -5.71564e-05 0)
(0.00312609 -0.000139008 0)
(0.00225949 -0.000324356 0)
(0.00266237 -9.59473e-05 0)
(0.00148445 -0.0006626 0)
(0.00193529 -0.000316685 0)
(0.00288972 -2.57022e-05 0)
(0.0023704 -0.000126046 0)
(0.00145609 -0.000684015 0)
(0.0031903 -4.90882e-05 0)
(0.00319462 -4.95689e-05 0)
(0.00235354 -0.000326645 0)
(0.00250886 -8.63501e-05 0)
(0.00273217 -1.16331e-05 0)
(0.00248562 -0.00029064 0)
(0.00249385 -0.000286846 0)
(0.000909351 -0.00100765 0)
(0.000930633 -0.000986212 0)
(0.0017177 -0.000443175 0)
(0.00237888 -0.000121406 0)
(0.00248164 -0.000107966 0)
(0.00226916 -0.000229498 0)
(0.00298231 -7.0545e-05 0)
(0.00197119 -0.000384515 0)
(0.0021547 -0.000188835 0)
(0.00236912 -0.000137815 0)
(0.000832196 -0.00138869 0)
(0.00249885 -9.05645e-05 0)
(0.0027773 -0.000143811 0)
(0.00269158 -4.83348e-05 0)
(0.00269287 -4.49975e-05 0)
(0.0014844 -0.000679289 0)
(0.00226778 -0.000153139 0)
(0.00061739 -0.00158931 0)
(0.00164641 -0.000923783 0)
(0.00166301 -0.000904131 0)
(0.00197622 -0.000263679 0)
(4.80377e-05 -0.00196213 0)
(0.00329861 -8.57872e-05 0)
(0.00245661 -8.54145e-05 0)
(0.00244409 -8.91543e-05 0)
(0.00267086 -6.42012e-05 0)
(0.00137327 -0.000829461 0)
(0.00138463 -0.000812515 0)
(0.00275862 -0.00012854 0)
(0.00164462 -0.000426945 0)
(0.00231308 -0.000149368 0)
(0.00278481 -0.000114218 0)
(0.00327294 -3.82882e-06 0)
(0.00307152 -0.000197983 0)
(0.00299129 -4.7504e-05 0)
(0.00286091 -0.000260532 0)
(0.00251363 -0.000108174 0)
(0.00194974 -0.000425411 0)
(0.00241202 -0.000333711 0)
(0.0024278 -8.9191e-05 0)
(0.00120312 -0.0010163 0)
(0.00279455 -1.17411e-05 0)
(0.00118156 -0.00102986 0)
(0.00258998 -0.000298647 0)
(0.00239942 -0.000333914 0)
(0.0029563 -0.000168681 0)
(0.00284651 -3.9503e-05 0)
(0.00296771 -0.0001469 0)
(0.00195821 -0.000287994 0)
(0.00317565 -0.000102243 0)
(0.00344132 -8.5604e-07 0)
(0.00315737 -0.000248315 0)
(0.0022312 -0.000154447 0)
(0.00231864 -0.000125315 0)
(0.00258064 -8.67573e-05 0)
(0.00156364 -0.000895758 0)
(0.00333485 -1.55659e-05 0)
(0.00317484 -0.000138333 0)
(0.00329815 -4.58277e-06 0)
(0.00277904 -5.25352e-06 0)
(0.00278189 -4.93698e-06 0)
(0.00312732 -3.38892e-05 0)
(0.00260817 -0.000280552 0)
(0.00261633 -0.000278588 0)
(0.000880885 -0.000912979 0)
(0.00286575 -2.1457e-05 0)
(0.00296891 -1.74562e-05 0)
(0.00160753 -0.000491432 0)
(0.0016224 -0.000480168 0)
(0.00330798 -2.00688e-05 0)
(0.00247552 -0.000188775 0)
(0.00231535 -0.000624967 0)
(0.00241963 -0.000140873 0)
(0.00241589 -0.000139928 0)
(0.000285393 -0.00184694 0)
(0.00323463 -0.000126161 0)
(0.00110124 -0.00111494 0)
(0.00221645 -0.000319531 0)
(7.75846e-05 -0.00195896 0)
(6.88683e-05 -0.00195727 0)
(0.00170867 -0.000392665 0)
(0.00106058 -0.001446 0)
(0.00186515 -0.000324249 0)
(0.00103682 -0.00144773 0)
(0.00173064 -0.000436977 0)
(0.00267953 -2.78358e-05 0)
(0.00276136 -6.52126e-05 0)
(0.00276455 -6.32798e-05 0)
(0.00148835 -0.00121911 0)
(0.00207317 -0.000336893 0)
(0.00263836 -9.73001e-05 0)
(0.00123651 -0.00087723 0)
(0.0027481 -4.96835e-07 0)
(0.0014762 -0.000602262 0)
(0.00267228 -2.81345e-05 0)
(0.000225193 -0.0019066 0)
(0.00255862 -0.000101318 0)
(0.00193366 -0.000354172 0)
(0.00335417 -4.52074e-05 0)
(0.00263922 -3.72564e-05 0)
(0.0026454 -3.63886e-05 0)
(0.00184464 -0.000329392 0)
(0.00199 -0.000272264 0)
(0.0026106 -0.000144739 0)
(0.00131564 -0.000825808 0)
(0.00309912 -5.47137e-05 0)
(0.00269409 -8.71995e-05 0)
(0.00183826 -0.000325068 0)
(0.00183121 -0.000328165 0)
(0.00104522 -0.00081474 0)
(0.0019323 -0.000404014 0)
(0.00340415 -2.38056e-05 0)
(0.00189742 -0.000296028 0)
(0.00294926 -2.64681e-05 0)
(0.000505159 -0.00145711 0)
(0.000212403 -0.00191776 0)
(0.00243136 -0.000112248 0)
(0.00205352 -0.000304041 0)
(0.0027123 -1.6643e-05 0)
(0.00087338 -0.000988453 0)
(0.00247458 -0.000145786 0)
(0.00255537 -0.000247281 0)
(0.00188602 -0.000338691 0)
(0.0018871 -0.000334739 0)
(0.00320259 -7.99566e-05 0)
(0.0023525 -0.000316688 0)
(0.00255211 -0.000241317 0)
(0.00120058 -0.00073791 0)
(0.000236885 -0.00186737 0)
(0.00282722 -1.31586e-06 0)
(0.00266714 -2.88826e-05 0)
(0.00218429 -0.000173647 0)
(0.0012421 -0.00132047 0)
(0.00336116 -3.49078e-05 0)
(0.000690585 -0.00140605 0)
(0.00187411 -0.000578833 0)
(0.00188132 -0.000563019 0)
(0.00195344 -0.000313663 0)
(0.00301674 -0.000243164 0)
(0.00231927 -0.000214481 0)
(0.00303237 -9.71044e-05 0)
(0.00280629 -0.000238039 0)
(0.00224592 -0.000337062 0)
(0.00303903 -0.000199761 0)
(0.00312199 -0.00016256 0)
(0.00202913 -0.000324752 0)
(0.000498457 -0.00147256 0)
(0.00291159 -2.46077e-05 0)
(0.00269426 -3.03096e-05 0)
(0.00130517 -0.000656175 0)
(0.00132293 -0.000644081 0)
(0.00269319 -3.03882e-05 0)
(0.00110969 -0.00111606 0)
(0.00275388 -1.47197e-05 0)
(0.00287014 -2.15645e-05 0)
(0.00307176 -1.70756e-05 0)
(0.00239373 -0.000151423 0)
(0.00307081 -0.000224236 0)
(0.00271483 -1.78049e-05 0)
(0.00317771 -4.95506e-06 0)
(0.00306568 -0.000247629 0)
(0.00307117 -0.000243574 0)
(0.00339847 -2.09893e-05 0)
(0.00339102 -2.2982e-05 0)
(0.00223431 -0.000311895 0)
(0.00282029 -9.23018e-07 0)
(0.00243367 -0.000331097 0)
(0.00240333 -0.000110696 0)
(0.00213826 -0.000190149 0)
(0.00257428 -0.000222887 0)
(0.00299222 -0.00017147 0)
(0.00296757 -1.83924e-05 0)
(0.0031552 -0.000222569 0)
(0.00220054 -0.000343324 0)
(0.00285303 -4.71673e-05 0)
(0.00179061 -0.000357676 0)
(0.00272211 -0.000221946 0)
(0.00249823 -0.000275445 0)
(0.00291115 -3.86048e-05 0)
(0.000304424 -0.00178467 0)
(0.00141444 -0.000560057 0)
(0.00140195 -0.00056741 0)
(0.00277621 -3.52083e-05 0)
(0.000249779 -0.00188192 0)
(0.00103553 -0.00101577 0)
(0.00209051 -0.000234242 0)
(0.00319557 -1.06487e-05 0)
(0.00210215 -0.000228382 0)
(0.00095061 -0.00105317 0)
(0.00228466 -0.0001428 0)
(0.00261159 -0.000198169 0)
(0.00204422 -0.00024101 0)
(0.000972565 -0.00116468 0)
(0.00306502 -7.19469e-05 0)
(0.00228376 -0.000484623 0)
(0.00291815 -0.000249304 0)
(0.00291892 -0.000252143 0)
(0.00320254 -0.000231618 0)
(0.00347525 -4.13552e-07 0)
(0.00276131 -0.000293149 0)
(0.00127013 -0.00110525 0)
(0.00290617 -1.84225e-06 0)
(0.00129936 -0.00083595 0)
(0.00245089 -0.000143427 0)
(0.00283479 -0.000169864 0)
(0.00174035 -0.000423841 0)
(0.00339823 -1.8022e-05 0)
(0.00327758 -4.29798e-05 0)
(0.00225021 -0.000147456 0)
(0.00226019 -0.000143899 0)
(0.00088255 -0.000968598 0)
(0.00256303 -0.000187432 0)
(0.00239127 -0.000150156 0)
(0.00249441 -8.84953e-05 0)
(0.00262977 -3.51757e-05 0)
(0.00212467 -0.000326601 0)
(0.00243331 -0.000272605 0)
(0.00154731 -0.000480286 0)
(0.00284837 -0.000219312 0)
(0.00256852 -5.01054e-05 0)
(0.00257009 -4.95778e-05 0)
(0.00298292 -1.77681e-06 0)
(0.00313247 -0.000134048 0)
(0.00312519 -0.000136834 0)
(0.000203107 -0.00189777 0)
(0.00314306 -3.64046e-05 0)
(0.00280201 -5.29228e-05 0)
(0.00244358 -0.000330605 0)
(0.00297277 -0.000165001 0)
(0.0033459 -1.32055e-05 0)
(0.0027167 -0.00024133 0)
(0.00272284 -0.000238147 0)
(0.000898287 -0.00113928 0)
(0.000873585 -0.00115818 0)
(0.00281071 -0.000274558 0)
(0.00245461 -8.70164e-05 0)
(0.00332714 -5.9775e-05 0)
(0.00167522 -0.000469711 0)
(0.00325856 -3.90287e-05 0)
(0.00325325 -3.88344e-05 0)
(0.00272338 -1.31523e-05 0)
(0.00249651 -6.87332e-05 0)
(0.00271565 -8.92788e-05 0)
(0.00271261 -8.75264e-05 0)
(0.00317532 -0.000139729 0)
(0.00250552 -7.08562e-05 0)
(0.00185591 -0.000349836 0)
(0.00287932 -5.89774e-05 0)
(0.00212424 -0.00035309 0)
(0.00211149 -0.000356832 0)
(0.00251123 -9.76669e-05 0)
(0.00213042 -0.000329244 0)
(0.00263349 -0.000145058 0)
(0.00331378 -5.80556e-07 0)
(0.00300329 -0.00028627 0)
(0.00167289 -0.000412599 0)
(0.00160364 -0.000663664 0)
(0.00147243 -0.000523316 0)
(0.0025402 -6.2351e-05 0)
(0.0031802 -6.12204e-05 0)
(0.00273366 -0.000114276 0)
(0.00257205 -8.43415e-05 0)
(0.000332834 -0.00181746 0)
(0.00325735 -8.41858e-05 0)
(0.00325064 -8.65697e-05 0)
(0.00163 -0.00117352 0)
(0.00267535 -3.55649e-05 0)
(0.00243231 -0.000322761 0)
(2.01229e-05 -0.00207168 0)
(0.00106546 -0.000899259 0)
(0.00267105 -2.62771e-05 0)
(0.00124806 -0.00087318 0)
(0.00142686 -0.000794973 0)
(0.000866142 -0.000984042 0)
(0.00234229 -0.000117155 0)
(0.00333132 -4.53377e-05 0)
(0.00279042 -5.56411e-05 0)
(0.00278425 -5.53832e-05 0)
(0.00266776 -4.51536e-05 0)
(0.00270947 -2.40975e-05 0)
(0.00262514 -0.000176935 0)
(0.00198016 -0.000275226 0)
(0.00104559 -0.00143368 0)
(0.00216907 -0.000235995 0)
(0.00183095 -0.000336335 0)
(0.00274389 -8.82275e-05 0)
(0.00332126 -7.78261e-05 0)
(0.00228755 -0.000227513 0)
(0.000983069 -0.00107114 0)
(0.000460059 -0.00156351 0)
(0.00233016 -0.000232287 0)
(0.00226886 -0.000486904 0)
(0.00300943 -8.57461e-05 0)
(0.00267574 -2.52425e-05 0)
(0.00202058 -0.000373887 0)
(0.00279716 -5.55926e-06 0)
(0.00161688 -0.000551114 0)
(0.00305841 -8.5084e-06 0)
(0.00160448 -0.00117267 0)
(0.00311409 -6.58485e-05 0)
(7.32606e-05 -0.00203629 0)
(0.00196601 -0.000412985 0)
(0.00240592 -9.55441e-05 0)
(0.0021649 -0.000193037 0)
(0.0024517 -0.00015177 0)
(0.000301364 -0.00172394 0)
(0.00137232 -0.00116244 0)
(0.00192282 -0.000322729 0)
(0.00325241 -0.000109211 0)
(0.00324647 -0.000112198 0)
(0.00210675 -0.000345887 0)
(0.0029598 -0.00025766 0)
(0.00215871 -0.000233259 0)
(0.000997841 -0.00108509 0)
(0.00295769 -0.000269355 0)
(0.00280067 -0.000241158 0)
(0.00340201 -1.74889e-05 0)
(0.00210757 -0.000270053 0)
(0.00194876 -0.000668951 0)
(0.0032553 -3.30587e-05 0)
(0.0023445 -0.000118904 0)
(0.00200258 -0.000419684 0)
(0.00220195 -0.000471921 0)
(0.00271315 -2.69894e-05 0)
(0.00223133 -0.000207121 0)
(0.00151226 -0.00122179 0)
(0.0011812 -0.00121114 0)
(0.00255748 -5.33801e-05 0)
(0.00254709 -5.60191e-05 0)
(0.00285201 -5.23481e-05 0)
(0.00270293 -1.87467e-05 0)
(0.00270865 -1.75985e-05 0)
(0.00194612 -0.000301974 0)
(0.00265606 -0.000146188 0)
(0.00272161 -1.42735e-05 0)
(0.00032972 -0.00181448 0)
(0.00282828 -0.000211258 0)
(0.000308049 -0.00183346 0)
(0.00333352 -3.37077e-05 0)
(0.00332891 -3.52526e-05 0)
(0.00224819 -0.000326008 0)
(0.00264023 -0.000191801 0)
(0.00134092 -0.000673907 0)
(0.00300936 -0.000115135 0)
(0.00276072 -8.92828e-06 0)
(0.00290725 -2.54388e-05 0)
(0.00342101 -8.51902e-06 0)
(0.000186359 -0.00190915 0)
(0.0030229 -0.00024235 0)
(0.00302385 -0.000146055 0)
(0.00272201 -9.79046e-05 0)
(0.00272655 -9.88967e-05 0)
(0.00303778 -0.000177099 0)
(0.00269874 -1.50253e-05 0)
(0.00320688 -0.000231904 0)
(0.00347959 -2.25617e-07 0)
(0.00147019 -0.000685327 0)
(0.00289396 -8.95219e-05 0)
(0.00290147 -8.94511e-05 0)
(0.00203034 -0.00026727 0)
(0.00238283 -0.000317223 0)
(0.00252083 -6.60572e-05 0)
(0.00238423 -0.0002244 0)
(0.00266259 -3.49592e-05 0)
(0.00285519 -4.46735e-05 0)
(0.00266596 -3.50794e-05 0)
(0.000992789 -0.00114968 0)
(0.00306927 -1.79941e-05 0)
(0.00295126 -1.72702e-05 0)
(0.00295651 -1.74193e-05 0)
(0.00196992 -0.000282432 0)
(0.00243768 -0.000251497 0)
(0.00155869 -0.00049005 0)
(0.00153927 -0.000500808 0)
(0.000656544 -0.00110972 0)
(0.00295869 -0.00028368 0)
(0.000305329 -0.00162169 0)
(0.00231146 -0.000157843 0)
(0.000231989 -0.00188157 0)
(0.00263461 -0.000194507 0)
(0.000258525 -0.0016333 0)
(0.00136015 -0.000709738 0)
(0.00312029 -3.83183e-05 0)
(0.00307262 -1.88139e-05 0)
(0.00220407 -0.000347245 0)
(0.00312408 -2.68515e-05 0)
(0.00269526 -3.7156e-05 0)
(0.000913485 -0.00128282 0)
(0.00299413 -4.60572e-05 0)
(0.00244037 -9.33408e-05 0)
(0.00313351 -4.38346e-05 0)
(0.00263021 -0.000219635 0)
(0.0028286 -4.85701e-06 0)
(0.00206356 -0.000294708 0)
(0.00170844 -0.000420145 0)
(0.00329027 -4.84207e-05 0)
(0.00328169 -5.00281e-05 0)
(0.00326243 -5.83483e-05 0)
(0.00218072 -0.000175413 0)
(0.00321213 -4.56278e-05 0)
(0.00270861 -2.50653e-05 0)
(0.00278413 -3.44013e-05 0)
(0.00232159 -0.000216695 0)
(0.00182807 -0.00100314 0)
(0.00266549 -9.00822e-05 0)
(0.00325156 -3.26937e-05 0)
(0.00265609 -3.97892e-05 0)
(0.00195318 -0.000300379 0)
(0.00200702 -0.000294591 0)
(0.000573777 -0.00152602 0)
(0.00312302 -3.35045e-05 0)
(0.00283685 -0.000166883 0)
(0.00300042 -0.000169011 0)
(0.00117306 -0.00122417 0)
(0.00266879 -2.89532e-05 0)
(0.0027021 -3.89195e-05 0)
(0.00243114 -0.00014131 0)
(0.00311692 -2.40812e-05 0)
(0.00251439 -6.85542e-05 0)
(0.0032431 -0.00010962 0)
(0.00303119 -0.000178319 0)
(0.00139599 -0.000568998 0)
(0.00277435 -1.36134e-05 0)
(0.00325481 -4.99546e-05 0)
(0.00326075 -4.85774e-05 0)
(0.00303078 -0.000143477 0)
(0.00346211 -3.47975e-06 0)
(0.00323791 -0.000172495 0)
(0.00273619 -7.34532e-05 0)
(0.00274401 -7.24391e-05 0)
(0.00258318 -5.3807e-05 0)
(0.000273169 -0.00185859 0)
(0.00321521 -0.000134012 0)
(0.00247824 -0.000166445 0)
(0.00281611 -9.08669e-07 0)
(0.00140157 -0.00112765 0)
(0.00102589 -0.000955064 0)
(0.00285799 -0.000239655 0)
(0.0029466 -0.000218952 0)
(8.23787e-05 -0.00193132 0)
(0.00308379 -5.68522e-05 0)
(0.0025168 -6.67751e-05 0)
(0.00209209 -0.000208936 0)
(0.00194483 -0.000352046 0)
(0.0030467 -0.000184253 0)
(0.00214559 -0.000198114 0)
(2.16085e-05 -0.00180469 0)
(0.00045303 -0.00171827 0)
(0.00321116 -0.000136725 0)
(0.00332309 -5.44781e-05 0)
(0.0033177 -5.66939e-05 0)
(0.000235429 -0.00177362 0)
(0.00251814 -0.000127621 0)
(0.00312285 -0.000144677 0)
(0.00224284 -0.000324051 0)
(0.00249257 -0.000266906 0)
(0.00312569 -3.84172e-05 0)
(0.00190991 -0.000290219 0)
(0.00325961 -2.76615e-05 0)
(0.00325953 -2.66126e-05 0)
(0.0011075 -0.000824208 0)
(0.00129671 -0.000883925 0)
(0.00109723 -0.000826153 0)
(0.00100644 -0.000892725 0)
(0.00237581 -0.000225381 0)
(0.00269405 -0.000104984 0)
(0.00270202 -0.000104562 0)
(0.000269444 -0.00186021 0)
(0.00225879 -0.000335125 0)
(0.000554989 -0.00154969 0)
(0.000398546 -0.00169199 0)
(0.00314745 -0.000106683 0)
(0.000387853 -0.00169702 0)
(0.00318398 -1.57205e-05 0)
(0.0031892 -1.46787e-05 0)
(0.0020302 -0.000248406 0)
(0.00103115 -0.000905064 0)
(0.00256204 -0.000172943 0)
(0.00113367 -0.00074338 0)
(0.00115257 -0.000729732 0)
(0.00229473 -0.000136091 0)
(0.00291826 -3.83741e-05 0)
(0.00152401 -0.000494136 0)
(0.00154291 -0.000483661 0)
(0.00201723 -0.000667969 0)
(0.00154638 -0.000500714 0)
(0.000759004 -0.00115387 0)
(0.00326254 -7.30988e-05 0)
(0.002525 -0.000295145 0)
(0.00128658 -0.00108805 0)
(0.00210486 -0.000203788 0)
(0.00282492 -0.00019161 0)
(0.00281206 -4.96601e-05 0)
(0.00280468 -5.01895e-05 0)
(0.00216796 -0.000200467 0)
(0.000778773 -0.0015685 0)
(0.00215746 -0.000202979 0)
(0.000765349 -0.00157116 0)
(0.00336118 -2.31533e-05 0)
(0.00259475 -0.000295498 0)
(0.00209062 -0.00032729 0)
(0.00227697 -0.000137954 0)
(0.00262478 -3.98027e-05 0)
(0.00263101 -3.90205e-05 0)
(0.00297523 -7.30909e-06 0)
(0.00298067 -7.56986e-06 0)
(0.00191535 -0.00041041 0)
(0.00110307 -0.00131149 0)
(0.00140429 -0.00118 0)
(0.0021518 -0.000353769 0)
(0.0016629 -0.000472359 0)
(0.00287808 -0.000276108 0)
(0.00241676 -9.52978e-05 0)
(0.00135437 -0.000661782 0)
(0.00150712 -0.00079245 0)
(0.00342424 -1.09506e-05 0)
(0.000777891 -0.00145232 0)
(0.0016796 -0.000408176 0)
(0.0016735 -0.000569685 0)
(0.00266007 -9.4304e-05 0)
(0.00200225 -0.000298601 0)
(0.00267019 -2.58646e-05 0)
(0.00239179 -0.000161548 0)
(0.00267638 -2.4497e-05 0)
(0.000680079 -0.00151636 0)
(0.00302547 -2.81052e-05 0)
(0.00256867 -0.000170553 0)
(0.00200424 -0.000263052 0)
(0.00196805 -0.000655712 0)
(0.00295744 -1.36869e-05 0)
(0.00295788 -1.28462e-05 0)
(0.00318321 -2.11784e-05 0)
(0.00213238 -0.000193226 0)
(0.00213772 -0.000190716 0)
(0.00283507 -6.79267e-06 0)
(0.00281117 -0.000171785 0)
(0.00250256 -8.952e-05 0)
(0.00299773 -0.000133208 0)
(0.00206839 -0.000334191 0)
(0.00206676 -0.000339131 0)
(0.0033194 -7.97348e-06 0)
(0.00149753 -0.00079102 0)
(0.00230937 -0.000128855 0)
(0.00308733 -2.44051e-05 0)
(0.00211014 -0.000484038 0)
(0.00335088 -4.48859e-05 0)
(0.0033452 -4.66054e-05 0)
(0.000302644 -0.00180449 0)
(0.00197434 -0.000924995 0)
(0.00307203 -0.000218775 0)
(0.00306769 -0.000222184 0)
(0.00228394 -0.000135397 0)
(0.00257434 -5.30431e-05 0)
(0.00256742 -5.43962e-05 0)
(0.00068526 -0.00146584 0)
(0.00325705 -6.01929e-05 0)
(0.00189624 -0.000300392 0)
(0.00306776 -0.000206124 0)
(0.00254693 -5.69374e-05 0)
(0.00254421 -0.000336681 0)
(0.00323463 -0.000144543 0)
(0.00296514 -2.51302e-05 0)
(0.00275559 -5.09658e-06 0)
(0.00220017 -0.00019433 0)
(0.00318637 -2.75634e-05 0)
(0.00318313 -2.88706e-05 0)
(0.00186638 -0.00031757 0)
(0.000770005 -0.00113242 0)
(0.00339129 -1.28782e-05 0)
(0.00203373 -0.000251062 0)
(0.00272616 -1.35711e-05 0)
(0.00281113 -4.61176e-07 0)
(0.00279813 -5.4488e-05 0)
(0.000744399 -0.00117083 0)
(0.00272448 -3.33036e-05 0)
(0.00305197 -5.07003e-05 0)
(0.00326311 -8.45372e-05 0)
(0.003265 -8.2782e-05 0)
(0.00243169 -0.000339859 0)
(0.00299124 -0.000234674 0)
(0.00298327 -0.000237104 0)
(0.00297896 -1.27181e-05 0)
(0.00298471 -1.24325e-05 0)
(0.00278182 -5.97741e-06 0)
(0.00305635 -0.000123774 0)
(0.00305453 -0.000125748 0)
(0.00274512 -6.97517e-06 0)
(0.00254803 -5.54521e-05 0)
(0.000127991 -0.00195377 0)
(0.00312945 -7.64306e-05 0)
(0.00264412 -9.50998e-05 0)
(0.00310662 -0.000222747 0)
(0.00291572 -0.000234585 0)
(0.00297883 -4.53367e-06 0)
(0.000862527 -0.000991634 0)
(0.00187248 -0.000340464 0)
(0.00098708 -0.00106083 0)
(0.00246715 -0.000198474 0)
(0.00276838 -0.000292538 0)
(0.00105058 -0.00100438 0)
(0.0018477 -0.000433617 0)
(0.00183323 -0.000438292 0)
(0.000160985 -0.00195449 0)
(0.00268584 -4.03735e-05 0)
(7.38272e-05 -0.00203541 0)
(0.00228742 -0.000143033 0)
(0.00302472 -0.000159148 0)
(0.0030275 -0.000156235 0)
(0.00228462 -0.000137381 0)
(0.00234653 -0.000162181 0)
(0.00278407 -9.7783e-06 0)
(0.00122892 -0.000677352 0)
(0.00123095 -0.000674846 0)
(0.00234059 -0.000218245 0)
(0.00086312 -0.00140574 0)
(0.00241556 -0.00013454 0)
(0.00235227 -0.000210294 0)
(0.00072418 -0.00158979 0)
(0.00323718 -0.000126723 0)
(0.00155419 -0.000494112 0)
(0.00343745 -8.76455e-06 0)
(0.00268185 -3.66266e-05 0)
(0.00185171 -0.000452255 0)
(0.00301964 -2.72187e-06 0)
(0.00107236 -0.000775068 0)
(0.00303753 -7.07927e-05 0)
(0.00142681 -0.000557047 0)
(0.00211528 -0.000206876 0)
(0.00253945 -8.46975e-05 0)
(0.00162355 -0.000592268 0)
(0.00295036 -0.000208277 0)
(0.00244093 -0.000304453 0)
(0.00155966 -0.000528939 0)
(0.00299859 -0.000243899 0)
(0.00280152 -7.77573e-06 0)
(0.00154797 -0.000533275 0)
(0.00134939 -0.000614324 0)
(0.0030422 -7.12858e-05 0)
(0.00282982 -6.99108e-05 0)
(0.00282211 -6.981e-05 0)
(0.00284332 -7.1343e-05 0)
(0.000773218 -0.0014622 0)
(0.00331497 -8.05386e-05 0)
(0.00274844 -3.6728e-05 0)
(0.00275564 -3.54378e-05 0)
(0.00304056 -0.000197263 0)
(0.00290963 -2.09081e-05 0)
(0.00310464 -4.69463e-05 0)
(0.00294135 -8.55424e-06 0)
(0.00273452 -0.000161768 0)
(0.00233322 -0.000123145 0)
(0.00295402 -0.000218507 0)
(0.00275103 -0.00012975 0)
(0.00286396 -0.000121761 0)
(0.00186424 -0.000335028 0)
(0.00177851 -0.000365267 0)
(0.0026661 -9.14879e-05 0)
(0.0024713 -0.000162279 0)
(0.00221973 -0.00035131 0)
(0.00253686 -0.000110891 0)
(0.002843 -0.000222562 0)
(0.00316243 -1.15233e-05 0)
(0.00138336 -0.0011262 0)
(0.00203286 -0.000368898 0)
(0.00272427 -0.000140305 0)
(0.0028749 -0.000238211 0)
(0.0031432 -6.07638e-05 0)
(0.0028999 -4.41195e-05 0)
(0.000755999 -0.00123776 0)
(0.00288201 -0.000174706 0)
(0.00115034 -0.000958995 0)
(0.00278078 -6.73027e-05 0)
(0.000175713 -0.00181908 0)
(0.00266872 -2.61336e-05 0)
(0.0026752 -2.48078e-05 0)
(0.00268697 -2.74851e-05 0)
(0.00290582 -1.35329e-06 0)
(0.00243546 -9.53315e-05 0)
(0.00119926 -0.000989763 0)
(0.00190322 -0.000295315 0)
(0.0026153 -4.88273e-05 0)
(0.00118002 -0.000999454 0)
(0.0023478 -0.000164113 0)
(0.00102938 -0.000967226 0)
(0.00303744 -0.000232034 0)
(0.00140452 -0.000566419 0)
(0.00256442 -7.05812e-05 0)
(0.00213896 -0.000197958 0)
(0.00256648 -8.32925e-05 0)
(0.000660293 -0.00139512 0)
(0.00284831 -4.85276e-05 0)
(0.00113208 -0.000805177 0)
(0.0025274 -0.000225371 0)
(0.00114261 -0.000792008 0)
(0.00329648 -2.39941e-05 0)
(0.00166118 -0.000469489 0)
(0.00163124 -0.00054542 0)
(0.000823016 -0.000972107 0)
(0.00268905 -8.25622e-05 0)
(0.00321875 -0.000126366 0)
(0.00253303 -9.78463e-05 0)
(0.000876475 -0.00120815 0)
(0.00219946 -0.000176659 0)
(0.00294861 -0.000170382 0)
(0.00118789 -0.000850825 0)
(0.000856769 -0.0012221 0)
(0.00142821 -0.000850527 0)
(0.00130149 -0.000627221 0)
(0.00226675 -0.000320083 0)
(0.00243789 -0.00030811 0)
(0.00235609 -0.000148679 0)
(0.00216281 -0.000187912 0)
(0.00272316 -0.000271796 0)
(0.00315762 -1.12812e-05 0)
(0.00315666 -0.000100255 0)
(0.0019273 -0.000429311 0)
(0.00329385 -5.66244e-06 0)
(0.00235149 -0.000178889 0)
(0.00306306 -7.35689e-05 0)
(0.000671903 -0.00148156 0)
(0.00307631 -0.000260604 0)
(0.00336905 -3.37801e-06 0)
(0.00312533 -3.11507e-05 0)
(0.00312347 -2.99884e-05 0)
(0.00224117 -0.00030804 0)
(0.00188791 -0.000480461 0)
(0.000847657 -0.00116313 0)
(0.00188476 -0.000472455 0)
(0.00273448 -0.00015954 0)
(0.0021529 -0.000251292 0)
(0.00269785 -1.97689e-05 0)
(0.00260959 -0.000109695 0)
(0.000442057 -0.00168661 0)
(0.00142473 -0.0011185 0)
(0.00262867 -0.00016872 0)
(0.00275059 -1.5599e-05 0)
(0.00258837 -5.10642e-05 0)
(0.00262199 -0.00012136 0)
(0.00283655 -7.26735e-05 0)
(0.0026039 -5.0955e-05 0)
(0.0016938 -0.000408378 0)
(0.00299685 -4.08755e-06 0)
(0.00268551 -0.000252395 0)
(0.00240881 -0.00020487 0)
(0.00267121 -6.57161e-05 0)
(0.00318603 -5.61127e-05 0)
(0.00302969 -0.000141228 0)
(0.00286794 -0.000269264 0)
(1.81036e-05 -0.0019473 0)
(0.00338619 -1.34998e-05 0)
(0.00251828 -0.000298159 0)
(0.000167716 -0.00177114 0)
(0.00266036 -5.88483e-05 0)
(0.00310106 -0.000152193 0)
(0.00267963 -2.61363e-05 0)
(0.00280974 -4.36923e-06 0)
(0.00280921 -4.05765e-06 0)
(0.00214168 -0.000206688 0)
(0.00194661 -0.000779323 0)
(0.00141341 -0.000810497 0)
(0.00126848 -0.00134948 0)
(0.00192176 -0.000783957 0)
(0.00297678 -0.000177542 0)
(0.00179159 -0.000414035 0)
(0.00294138 -2.78385e-05 0)
(0.00277282 -0.000141732 0)
(0.00328241 -8.08683e-05 0)
(0.00244959 -9.41496e-05 0)
(0.00191257 -0.000304991 0)
(0.00192909 -0.000297013 0)
(0.00270577 -2.83007e-05 0)
(0.00139991 -0.00132908 0)
(0.00279778 -7.97816e-06 0)
(0.00137093 -0.00133628 0)
(0.00326994 -7.3499e-05 0)
(0.000279514 -0.00183896 0)
(0.0029909 -2.3098e-05 0)
(0.00299771 -2.32566e-05 0)
(0.000375214 -0.00157286 0)
(0.000354671 -0.00159111 0)
(0.00290719 -4.55607e-05 0)
(0.00206631 -0.000223011 0)
(0.00330566 -2.20741e-05 0)
(0.00148161 -0.000519864 0)
(0.00148195 -0.000518877 0)
(0.00311235 -0.000152828 0)
(0.00273244 -0.000112388 0)
(0.00189098 -0.000588211 0)
(0.00192008 -0.000287077 0)
(0.00298808 -0.000218484 0)
(0.00299563 -0.000217719 0)
(0.000533213 -0.0013092 0)
(0.0028987 -3.06107e-06 0)
(0.0031987 -4.05256e-05 0)
(0.000510363 -0.00132271 0)
(0.00260699 -5.13752e-05 0)
(0.00241445 -0.000373111 0)
(0.00268445 -2.59816e-05 0)
(0.00125485 -0.00129621 0)
(0.00278447 -0.000184697 0)
(0.00290887 -4.66077e-05 0)
(0.00278192 -6.55757e-05 0)
(0.00271781 -2.68666e-05 0)
(0.00240153 -0.000319841 0)
(0.00185706 -0.000356592 0)
(0.0021182 -0.000242355 0)
(0.00187162 -0.000348793 0)
(0.00307798 -0.000222995 0)
(0.00258703 -5.09057e-05 0)
(0.000723403 -0.00120867 0)
(0.00236091 -0.000125718 0)