/*--------------------------------*- C++ -*----------------------------------*\
| =========                 |                                                 |
| \\      /  F ield         | OpenFOAM: The Open Source CFD Toolbox           |
|  \\    /   O peration     | Version:  v2012                                 |
|   \\  /    A nd           | Website:  www.openfoam.com                      |
|    \\/     M anipulation  |                                                 |
\*---------------------------------------------------------------------------*/
FoamFile
{
    version     2.0;
    format      ascii;
    class       volVectorField;
    location    "8";
    object      D;
}
// * * * * * * * * * * * * * * * * * * * * * * * * * * * * * * * * * * * * * //

dimensions      [0 1 0 0 0 0 0];


internalField   nonuniform List<vector> 
470
(
(0.00316143 -1.47108e-05 0)
(0.00325489 -1.30021e-05 0)
(0.00317889 -0.000333234 0)
(0.00385036 -1.94588e-05 0)
(0.00282853 -0.00011206 0)
(0.00347978 -0.000379306 0)
(0.00314291 -0.000114491 0)
(0.00282053 -0.000109529 0)
(0.00196075 -0.000518675 0)
(0.00312145 -0.000238223 0)
(0.00207655 -0.000455393 0)
(0.00116559 -0.00109049 0)
(0.00130495 -0.000963796 0)
(0.00372718 -3.56449e-05 0)
(0.00154858 -0.000765004 0)
(0.00261201 -0.000355032 0)
(0.00307383 -0.00022519 0)
(0.0036013 -2.93264e-05 0)
(0.00350117 -1.13419e-05 0)
(0.00319099 -2.31792e-05 0)
(0.00260106 -0.000391231 0)
(0.00385784 -0.000136337 0)
(0.00318529 -0.000368646 0)
(0.00372799 -4.7452e-05 0)
(0.00175044 -0.000662559 0)
(0.0032078 -9.70968e-05 0)
(0.00192864 -0.000537457 0)
(0.00296093 -0.000432478 0)
(0.00354011 -0.000317924 0)
(0.00378817 -1.79808e-05 0)
(0.00323467 -1.62686e-05 0)
(0.00155738 -0.000777711 0)
(0.00307753 -0.000268465 0)
(0.00123544 -0.00132648 0)
(0.0034084 -0.000394022 0)
(0.00355962 -0.000342532 0)
(0.00116441 -0.00102909 0)
(0.00324441 -2.8248e-05 0)
(0.00327626 -2.65771e-05 0)
(0.003111 -2.95212e-05 0)
(0.00224743 -0.000348986 0)
(0.00345581 -4.33988e-06 0)
(0.000883846 -0.0013871 0)
(0.00238647 -0.000281687 0)
(0.00286852 -0.000446702 0)
(0.000748287 -0.00151988 0)
(0.00311753 -5.55455e-05 0)
(0.0019824 -0.000485539 0)
(0.00213932 -0.000411328 0)
(0.00193964 -0.000524491 0)
(0.000985802 -0.00116151 0)
(0.00151538 -0.00115183 0)
(0.0035579 -3.90396e-05 0)
(0.00350634 -1.86883e-05 0)
(0.00388646 -0.000102854 0)
(0.0038392 -0.000123968 0)
(3.21558e-05 -0.00220361 0)
(6.16115e-05 -0.00219152 0)
(0.00259318 -0.000224908 0)
(0.00301286 -0.000391747 0)
(0.00330405 -0.000122241 0)
(0.00165431 -0.000718307 0)
(0.00157667 -0.000742582 0)
(0.00116114 -0.00116389 0)
(0.00205191 -0.000891144 0)
(0.00043028 -0.00188376 0)
(0.00313443 -4.9069e-05 0)
(0.00379249 -0.000163347 0)
(0.00273122 -0.000181879 0)
(0.00263043 -0.000283358 0)
(0.00317284 -2.25173e-06 0)
(0.00312249 -0.000196693 0)
(0.00113879 -0.00127177 0)
(0.00288912 -0.000147531 0)
(0.000953475 -0.00140642 0)
(0.00402286 -8.58835e-05 0)
(0.00329022 -0.00021186 0)
(0.00329552 -0.000182428 0)
(0.00270292 -0.00018742 0)
(8.23032e-05 -0.00205386 0)
(0.00240019 -0.000272093 0)
(0.00060587 -0.00174869 0)
(0.00309491 -0.000331201 0)
(0.00267266 -0.000243779 0)
(0.00182036 -0.000593036 0)
(0.0039513 -0.000116452 0)
(0.00099016 -0.00131314 0)
(0.0019571 -0.00109906 0)
(0.00071637 -0.00159654 0)
(0.00129229 -0.00110459 0)
(0.000909707 -0.00142563 0)
(0.00128577 -0.00094745 0)
(0.00297102 -0.000141056 0)
(0.00322186 -0.000170573 0)
(0.00145173 -0.000832646 0)
(0.00140778 -0.000845152 0)
(0.00303439 -7.7389e-05 0)
(0.0032346 -0.000143022 0)
(0.0027498 -0.000141561 0)
(0.00333401 -0.000357109 0)
(0.00375148 -9.98778e-05 0)
(0.00204542 -0.000458369 0)
(0.00114253 -0.00133643 0)
(0.00393795 -6.91081e-05 0)
(0.00395801 -5.2461e-05 0)
(0.00369568 -0.000265823 0)
(0.00373889 -0.000233532 0)
(0.00295392 -8.04456e-05 0)
(0.00297799 -0.000195827 0)
(0.000829061 -0.0016244 0)
(0.000677094 -0.00161112 0)
(0.000797794 -0.00160275 0)
(0.0040164 -7.80188e-05 0)
(0.00351933 -0.000400916 0)
(0.00269886 -0.000188403 0)
(0.00276223 -0.000210536 0)
(0.00389428 -4.98647e-06 0)
(0.00205894 -0.00055567 0)
(0.00301749 -9.45506e-05 0)
(0.00329654 6.7829e-07 0)
(0.00291379 -0.000119361 0)
(0.00382374 -6.81828e-05 0)
(0.00367054 -2.53135e-05 0)
(0.0041055 -3.44049e-05 0)
(0.00388652 -0.000217798 0)
(0.0026457 -0.000249938 0)
(0.00255927 -0.000257187 0)
(0.00375715 -0.000128213 0)
(0.00196653 -0.000614293 0)
(0.00377751 -6.43668e-05 0)
(0.00300842 -6.06208e-05 0)
(0.00293987 -8.39706e-05 0)
(0.00305978 -0.000120047 0)
(0.00368641 -0.000105234 0)
(0.00397266 -0.000124692 0)
(0.0032672 -0.000378127 0)
(0.00294813 -0.000175497 0)
(0.00196956 -0.000856366 0)
(0.00100663 -0.00121557 0)
(0.0036736 -0.000334053 0)
(0.00361483 -0.000343281 0)
(0.00160893 -0.000818056 0)
(0.00370021 -0.00014486 0)
(0.00338956 -0.000157021 0)
(0.00346024 -0.000166048 0)
(0.00317951 -3.29136e-05 0)
(0.00400508 -2.42613e-05 0)
(0.00149921 -0.000834023 0)
(0.00353978 -0.000115261 0)
(0.00122766 -0.00106477 0)
(0.00346487 -2.68094e-05 0)
(0.00395767 -2.19801e-05 0)
(0.00259533 -0.000219234 0)
(0.00395622 -8.55294e-05 0)
(0.00123032 -0.00149068 0)
(0.00253143 -0.000325091 0)
(0.00289522 -0.000326122 0)
(0.00327968 -8.85675e-05 0)
(0.00331789 -9.9114e-05 0)
(0.00321716 -0.000236893 0)
(0.00115806 -0.00145246 0)
(0.00170809 -0.000661742 0)
(0.000313911 -0.00189161 0)
(0.00173088 -0.000704057 0)
(0.000139225 -0.00207798 0)
(0.00236489 -0.000353267 0)
(0.00244844 -0.000284694 0)
(0.00184108 -0.000644497 0)
(0.00278164 -0.00017787 0)
(0.00226593 -0.000355799 0)
(0.00240007 -0.000293463 0)
(0.00353975 -0.000195361 0)
(0.00354109 -0.000222168 0)
(0.00338182 -0.000215637 0)
(0.00345172 -0.000195436 0)
(0.00336973 -0.000122013 0)
(0.00357081 -1.95606e-05 0)
(0.00308384 -2.20045e-05 0)
(0.00174458 -0.000697454 0)
(0.00252901 -0.000221744 0)
(0.00253776 -0.000209248 0)
(0.00088304 -0.00133673 0)
(0.00300482 -0.000169943 0)
(0.00273082 -0.00027497 0)
(0.00272671 -0.000313862 0)
(0.00195786 -0.000529876 0)
(0.00347746 -0.000276242 0)
(0.0031066 -1.07012e-05 0)
(0.000439913 -0.00176659 0)
(0.00367393 -5.94339e-05 0)
(0.00360354 -0.000288856 0)
(0.00320718 -6.98306e-05 0)
(0.00283002 -0.000241725 0)
(0.00291932 -0.000223591 0)
(0.00309087 -3.06256e-05 0)
(0.00348721 -3.96666e-05 0)
(0.0031097 -0.000395874 0)
(0.00329338 -0.000272709 0)
(0.00328012 -0.000307379 0)
(0.000451517 -0.00171129 0)
(0.00319311 -1.71805e-05 0)
(0.0031489 -9.65703e-06 0)
(0.000167927 -0.00189856 0)
(0.00217555 -0.000548529 0)
(0.00281585 -0.00031559 0)
(0.00277492 -0.000394811 0)
(0.00338016 -2.27631e-05 0)
(0.00339962 -3.05931e-05 0)
(0.00209737 -0.000638583 0)
(0.00300421 -0.000130788 0)
(0.00377563 -0.000111871 0)
(0.0030862 -0.000306314 0)
(0.00305513 -4.69358e-05 0)
(0.00356271 -5.38298e-05 0)
(0.0020547 -0.000503521 0)
(0.00217683 -0.000447147 0)
(0.00356313 -0.000130281 0)
(0.00326567 -6.44573e-05 0)
(0.00356724 -7.99302e-05 0)
(0.00216395 -0.000429639 0)
(0.00295166 -0.000157648 0)
(0.00306666 -4.51909e-05 0)
(0.00342986 -0.000303331 0)
(0.00360641 -6.22797e-05 0)
(0.00202288 -0.000510525 0)
(0.00339675 -0.000354509 0)
(0.00209637 -0.000434932 0)
(0.00300189 -7.85614e-05 0)
(0.000373645 -0.00193707 0)
(0.000927311 -0.00123787 0)
(0.00215242 -0.000396981 0)
(0.00291952 -0.000124781 0)
(0.00410238 -1.8715e-05 0)
(0.00380422 -0.000296665 0)
(0.00283885 -0.000361218 0)
(0.0031493 -0.000138605 0)
(0.00240612 -0.000639061 0)
(0.0038135 -0.000207654 0)
(0.00387752 -0.00019983 0)
(0.00405667 -5.12721e-05 0)
(0.00398799 -6.75923e-05 0)
(0.00402032 -3.78103e-05 0)
(0.00374918 -0.000273067 0)
(0.000353644 -0.00190861 0)
(0.000150823 -0.00200218 0)
(0.000246583 -0.00202837 0)
(5.19899e-05 -0.0021438 0)
(0.00379413 -0.000180572 0)
(0.00340746 -9.56384e-06 0)
(0.00338445 -0.000248084 0)
(0.00346035 -0.000248383 0)
(0.00300112 -0.000364914 0)
(0.00413738 -1.86497e-05 0)
(0.00386192 -0.00026928 0)
(0.00242364 -0.000343602 0)
(0.00332886 -1.07538e-05 0)
(0.00335127 -4.2444e-05 0)
(0.00408798 -3.34092e-05 0)
(0.00383256 -0.000249593 0)
(0.00322688 2.48451e-06 0)
(0.00284013 -0.000201697 0)
(0.000664094 -0.00166252 0)
(0.00313321 -6.77938e-06 0)
(0.00251062 -0.000561269 0)
(0.00324691 -4.54488e-05 0)
(0.00403206 -2.88397e-05 0)
(0.00372642 -0.000302848 0)
(0.00365121 -5.73234e-06 0)
(0.00329299 -4.50669e-05 0)
(0.00278796 -0.000430802 0)
(0.00319822 -0.000436028 0)
(0.00256761 -0.000442025 0)
(0.00122507 -0.000974816 0)
(0.00233203 -0.000460371 0)
(9.37131e-05 -0.00213794 0)
(0.00178936 -0.000882864 0)
(0.00156323 -0.000998271 0)
(0.00291474 -0.000285346 0)
(0.00182651 -0.000581171 0)
(0.00367865 -0.000166843 0)
(0.00307257 -0.00018193 0)
(0.00238391 -0.000341698 0)
(0.00307907 -8.84808e-05 0)
(0.00244548 -0.000302639 0)
(0.00385346 -3.47946e-05 0)
(0.00391098 -3.77963e-05 0)
(0.00266856 -0.000400328 0)
(0.00052328 -0.00171749 0)
(0.00359319 -9.46498e-05 0)
(0.00297456 -6.16392e-05 0)
(0.00212816 -0.000709907 0)
(0.00248029 -0.000417566 0)
(0.00302526 -4.47595e-05 0)
(0.00217049 -0.000514554 0)
(0.00224271 -0.000395763 0)
(0.00346659 -9.91864e-05 0)
(0.00366572 -9.00306e-05 0)
(0.00335005 -0.000424783 0)
(0.00220465 -0.000395492 0)
(0.00375819 -6.45087e-06 0)
(0.00371055 -0.00017371 0)
(0.00236768 -0.00085472 0)
(0.00384095 -0.000178745 0)
(0.00391523 -0.000155372 0)
(0.000612242 -0.00171227 0)
(0.00263489 -0.000177089 0)
(0.00360598 -0.000217729 0)
(0.00359349 -0.000177174 0)
(0.00280588 -0.000124279 0)
(0.00282388 -0.000109933 0)
(0.00142534 -0.000907505 0)
(0.00163473 -0.000840043 0)
(0.0010699 -0.00160722 0)
(0.00341296 -0.000137627 0)
(0.00254529 -0.000314166 0)
(0.00145625 -0.000849878 0)
(0.00240149 -0.000362881 0)
(0.00301812 -5.95425e-05 0)
(0.00200691 -0.000544076 0)
(0.00331152 -6.98804e-05 0)
(0.00245053 -0.000501174 0)
(0.0033665 -6.4625e-05 0)
(0.00341064 -0.000102306 0)
(0.00370851 -7.33884e-05 0)
(0.00224982 -0.000431172 0)
(0.00359698 -9.53196e-06 0)
(0.00312279 -0.000425756 0)
(0.00264828 -0.000176366 0)
(0.00275475 -0.000134792 0)
(0.0027899 -0.00023799 0)
(0.00315744 -7.31493e-05 0)
(0.0028986 -0.00016885 0)
(0.00252637 -0.000232169 0)
(0.00251303 -0.000241447 0)
(0.00285759 -0.000134246 0)
(0.00274594 -0.00015938 0)
(0.00333207 -1.34326e-05 0)
(0.0035015 -8.24549e-05 0)
(0.000729358 -0.00139236 0)
(0.00356582 -0.000265182 0)
(0.00345223 -4.79901e-05 0)
(8.66746e-05 -0.00200546 0)
(0.00225329 -0.000535219 0)
(0.00303006 -7.26483e-05 0)
(0.00352841 -0.00015179 0)
(0.002528 -0.000464646 0)
(0.000730249 -0.00144664 0)
(0.00347923 -0.000116026 0)
(0.00411479 -1.18131e-05 0)
(0.0038011 -0.000319945 0)
(0.00337197 -1.69233e-06 0)
(0.00287067 -0.00011407 0)
(0.00252008 -0.00035392 0)
(0.00268021 -0.000469319 0)
(0.00047895 -0.00166931 0)
(0.00307417 -2.87409e-05 0)
(0.000325925 -0.00195506 0)
(0.00308373 -0.000166644 0)
(0.00405791 -8.11013e-06 0)
(0.00311471 -1.11643e-05 0)
(0.00405333 -1.25235e-05 0)
(0.00407974 -5.31406e-05 0)
(0.00394262 -0.000163696 0)
(0.00295532 -0.000247549 0)
(0.00155183 -0.00136951 0)
(0.0037123 -0.00036483 0)
(0.00339284 -5.14208e-05 0)
(0.000622487 -0.00155169 0)
(0.00306781 -3.23194e-05 0)
(0.00372301 -0.000342674 0)
(0.00318552 -4.93142e-05 0)
(0.00285445 -0.000124263 0)
(0.000236109 -0.00205188 0)
(0.00389765 -5.02945e-05 0)
(0.00278603 -0.000380775 0)
(0.0026848 -0.000559737 0)
(0.0030888 -1.69631e-05 0)
(0.00369146 -0.00022508 0)
(0.000660881 -0.00176165 0)
(0.00271604 -0.000338508 0)
(0.0026203 -0.000192344 0)
(0.000921991 -0.00149391 0)
(0.000160881 -0.00208388 0)
(0.0038671 -8.30743e-05 0)
(0.00363273 -0.000124501 0)
(0.000792781 -0.00177806 0)
(0.000535834 -0.00175408 0)
(0.000429979 -0.00186497 0)
(0.002617 -0.000448338 0)
(0.00346764 -7.04094e-05 0)
(0.00150534 -0.000990606 0)
(0.00369241 -1.343e-05 0)
(0.00327444 -0.000416407 0)
(0.000842979 -0.00153043 0)
(0.00361328 -0.000242516 0)
(0.00349127 -5.81419e-05 0)
(0.00400051 -2.00083e-06 0)
(0.0036396 -0.000388509 0)
(0.00171355 -0.00066062 0)
(0.00293466 -0.000347719 0)
(0.0018347 -0.00060255 0)
(0.000223559 -0.00192314 0)
(0.00321742 -0.000263304 0)
(0.00296406 -7.20793e-05 0)
(0.0012935 -0.00105674 0)
(0.00022284 -0.00206868 0)
(0.00146076 -0.000918082 0)
(0.00334926 -0.00031295 0)
(0.00412311 -2.76969e-06 0)
(0.00415988 -4.84032e-06 0)
(0.0037803 -0.000360175 0)
(0.00383704 -0.000330263 0)
(0.00355362 -3.48168e-06 0)
(0.00303971 -0.000448338 0)
(0.000152566 -0.00211866 0)
(0.00163982 -0.00121819 0)
(0.00384738 -9.76599e-05 0)
(0.00288837 -0.000104019 0)
(0.000650515 -0.00158586 0)
(0.00308319 -3.28026e-05 0)
(0.00271247 -0.000161503 0)
(0.00311553 -2.01701e-05 0)
(0.00298919 -0.000287233 0)
(0.00380863 -8.43124e-05 0)
(0.00313276 -0.000280643 0)
(0.000389242 -0.00192274 0)
(0.000456959 -0.00184722 0)
(0.00219854 -0.000433245 0)
(0.00168978 -0.000680117 0)
(0.000274853 -0.00198381 0)
(0.00157239 -0.000757712 0)
(0.0019047 -0.000602899 0)
(0.00237399 -0.000311904 0)
(0.00227592 -0.000357818 0)
(0.00303282 -8.11847e-05 0)
(0.00304446 -5.85506e-05 0)
(0.00394978 -1.38883e-05 0)
(0.0035906 -0.000381672 0)
(0.00372059 -0.000203434 0)
(0.00233242 -0.000316051 0)
(0.00193502 -0.000618325 0)
(0.00186867 -0.000604403 0)
(0.00379805 -4.71833e-05 0)
(0.00185981 -0.000743833 0)
(0.00250082 -0.000431354 0)
(0.00182004 -0.00073356 0)
(0.00210591 -0.000534451 0)
(0.00345927 -0.000326041 0)
(0.00308902 -3.15801e-05 0)
(0.00367356 -0.000199908 0)
(0.00299291 -0.000315003 0)
(0.00224844 -0.000468287 0)
(0.0023634 -0.000433293 0)
(0.00358445 -0.000157907 0)
(0.003642 -0.000140815 0)
(0.00290383 -8.5184e-05 0)
(0.00223838 -0.000360054 0)
(0.00235683 -0.000498158 0)
(0.00291396 -7.87156e-05 0)
(0.00297627 -6.15745e-05 0)
(0.00299239 -0.00019963 0)
(0.00278913 -0.00012761 0)
(0.00303327 -4.73665e-05 0)
(0.00240396 -0.00044852 0)
(0.00235924 -0.000390455 0)
(0.00242007 -0.000393273 0)
(0.00338402 -9.03614e-05 0)
(0.00340823 -7.41586e-05 0)
(0.00240172 -0.000291928 0)
(0.00221457 -0.000375762 0)
)
;

boundaryField
{
    back
    {
        type            empty;
    }
    front
    {
        type            empty;
    }
    down
    {
        type            symmetry;
    }
    right
    {
        type            calculated;
        value           nonuniform List<vector> 10((0.00406915 -6.83218e-05 -5.38097e-21) (0.00414583 -2.2429e-05 5.26206e-21) (0.00393177 -0.000202108 -6.1129e-21) (0.00401884 -0.000106512 4.53574e-21) (0.00416807 -1.34541e-05 2.81027e-21) (0.00389699 -0.000260966 -6.1136e-21) (0.00410992 -4.39897e-05 -5.91512e-21) (0.00397422 -0.000153391 4.53664e-21) (0.00418204 -3.19067e-06 -2.12404e-21) (0.00386265 -0.000324529 -8.40669e-21));
    }
    up
    {
        type            calculated;
        value           nonuniform List<vector> 
20
(
(0.00152728 -0.000806592 0)
(0.00286816 -0.000473595 0)
(0.000905136 -0.00119864 -2.97632e-20)
(2.83709e-05 -0.00220887 -6.01841e-21)
(0.00351442 -0.00042066 1.5354e-21)
(0.00194466 -0.00063871 9.78478e-21)
(0.000244946 -0.00191297 -2.89245e-21)
(0.00170193 -0.00073114 0)
(0.00319671 -0.000453307 -3.30717e-21)
(0.00117376 -0.00100434 5.36689e-21)
(0.00334688 -0.000441369 -6.07107e-21)
(0.00244278 -0.00052049 3.26224e-21)
(0.000669419 -0.00141536 1.04901e-20)
(0.00224373 -0.000559061 2.8611e-21)
(0.00267613 -0.000489075 3.0639e-21)
(0.000424478 -0.00168896 -4.36366e-21)
(0.000125617 -0.00209897 4.75055e-21)
(0.00363423 -0.000400432 -1.62302e-21)
(0.00377468 -0.000371179 -3.26888e-21)
(0.00303708 -0.00046285 1.87025e-21)
)
;
    }
    left
    {
        type            symmetry;
    }
    hole
    {
        type            calculated;
        value           nonuniform List<vector> 8((0.00209799 -0.00118389 -1.57687e-21) (0.00289842 -0.000398554 7.66169e-21) (0.00050125 -0.00152184 -4.74585e-20) (0.00298427 -0.000157378 -4.72738e-21) (0.00244251 -0.000943979 1.08026e-20) (0.00117021 -0.00159011 -1.92607e-20) (0.00164738 -0.00138948 0) (0.0027176 -0.000629552 -1.87276e-20));
    }
}


// ************************************************************************* //
