/*--------------------------------*- C++ -*----------------------------------*\
| =========                 |                                                 |
| \\      /  F ield         | OpenFOAM: The Open Source CFD Toolbox           |
|  \\    /   O peration     | Version:  v2012                                 |
|   \\  /    A nd           | Website:  www.openfoam.com                      |
|    \\/     M anipulation  |                                                 |
\*---------------------------------------------------------------------------*/
FoamFile
{
    version     2.0;
    format      ascii;
    class       volSymmTensorField;
    location    "8";
    object      epsilon;
}
// * * * * * * * * * * * * * * * * * * * * * * * * * * * * * * * * * * * * * //

dimensions      [0 0 0 0 0 0 0];


internalField   nonuniform List<symmTensor> 
470
(
(0.000788737 -0.00029047 -1.28628e-19 -0.000133808 -3.70473e-21 0)
(0.000649696 -0.000170797 -2.11297e-20 -0.000197221 2.17337e-20 0)
(0.00161422 -0.000226467 -3.23979e-20 -0.000649743 1.35621e-20 0)
(0.00114591 -5.55834e-05 -1.03432e-19 -0.0002641 -1.32035e-20 0)
(0.00100908 -0.000685963 1.38726e-19 -0.000558297 4.77689e-20 0)
(0.00149945 -7.04636e-05 -2.76991e-19 -0.000587834 -3.3453e-20 0)
(0.00124425 -0.000459775 7.54149e-20 -0.000375484 1.98351e-21 0)
(0.00106561 -0.000608598 -1.02843e-19 -0.000566318 -3.97144e-20 0)
(0.00219796 -0.000230702 -2.61396e-21 -0.000944875 -1.45963e-20 0)
(0.00146643 -0.000391095 -1.88032e-19 -0.000630255 -4.2194e-20 0)
(0.00199669 -0.000363901 1.33679e-19 -0.00102708 6.29394e-20 0)
(0.0024299 0.000227589 -1.9892e-19 -0.00118642 -1.38279e-19 0)
(0.00240001 0.000156119 -1.74828e-19 -0.00116431 -1.28223e-19 0)
(0.00110077 -0.000137564 5.90139e-20 -0.000282575 3.35202e-20 0)
(0.0025728 1.54319e-05 1.30462e-19 -0.00108396 8.63501e-20 0)
(0.0018867 -0.000316201 7.18849e-20 -0.000779051 -5.88341e-20 0)
(0.00152838 -0.00042003 4.49497e-20 -0.000544439 6.3928e-20 0)
(0.00110577 -0.000148794 1.04545e-21 -0.000231224 -2.46173e-20 0)
(0.000952519 -8.32626e-05 -9.40744e-20 -0.000209228 1.37217e-21 0)
(0.000639268 -0.000305766 -9.86258e-20 -0.00021869 -4.16366e-22 0)
(0.00192501 -0.000280458 9.98725e-20 -0.000850249 8.87184e-20 0)
(0.00129818 -0.000141415 5.90806e-21 -0.000409085 1.65307e-20 0)
(0.00157045 -0.000186564 -6.97661e-20 -0.00068658 -3.02093e-20 0)
(0.00120721 -0.000147833 8.81206e-20 -0.000244774 2.21725e-20 0)
(0.00214267 -0.000161402 -1.66932e-19 -0.00119322 -9.80827e-20 0)
(0.00111376 -0.00048549 8.88729e-20 -0.000414456 -1.41905e-20 0)
(0.00207691 -0.000358992 -4.11978e-20 -0.00123681 -2.52558e-20 0)
(0.00178381 -0.00012261 2.15562e-19 -0.000755144 8.36587e-20 0)
(0.00145789 -0.000117078 1.11902e-19 -0.000588104 -2.78561e-20 0)
(0.00118492 -5.50293e-05 -3.77261e-20 -0.000275121 -1.03601e-20 0)
(0.000716921 -0.000186697 1.75879e-20 -0.000150359 -1.68188e-20 0)
(0.00255247 -4.14405e-05 0 -0.00104382 0 0)
(0.00157427 -0.000390171 -1.1625e-19 -0.000630675 -4.78427e-20 0)
(0.00258967 -0.000357364 -1.09203e-19 -0.00124483 -1.27089e-19 0)
(0.00143433 -5.87141e-05 -1.88461e-19 -0.000678086 -1.33854e-20 0)
(0.00143812 -9.06231e-05 -1.46236e-21 -0.000585946 4.2291e-20 0)
(0.00256139 8.71882e-05 1.47326e-20 -0.00118573 9.63968e-21 0)
(0.00087425 -0.000274827 -4.85147e-20 -0.000203118 -1.77761e-20 0)
(0.00069682 -0.000276867 -1.42502e-19 -0.000299965 -3.16026e-20 0)
(0.000545078 -0.000375237 6.17135e-20 -0.000275549 1.71068e-20 0)
(0.00170417 -0.000557218 -3.2035e-20 -0.00103632 -1.04926e-20 0)
(0.000943908 -2.21968e-05 -6.89361e-20 -0.00018107 3.35528e-20 0)
(0.00234233 0.000431076 2.27118e-19 -0.0011224 2.2416e-19 0)
(0.00173746 -0.000568639 1.34808e-19 -0.000938091 6.63365e-20 0)
(0.00178681 -1.83473e-05 0 -0.00077014 0 0)
(0.00243345 0.00044248 4.18823e-19 -0.00103867 4.03568e-19 0)
(0.000974086 -0.000499771 -1.60869e-19 -0.00029606 -3.56565e-20 0)
(0.00205103 -0.000329374 8.10054e-20 -0.000969709 4.93287e-20 0)
(0.00207612 -0.000448332 -1.77814e-19 -0.00101132 -9.2147e-20 0)
(0.0020108 -0.000342474 1.8857e-19 -0.00117886 1.1688e-19 0)
(0.0025053 8.39072e-06 4.92723e-19 -0.0010047 1.32045e-19 3.19652e-35)
(0.00229032 -0.000496854 0 -0.0008827 0 0)
(0.00102968 -0.000186319 5.23586e-20 -0.000284043 -1.02278e-21 0)
(0.00103625 -0.000111114 -1.50487e-19 -0.000180047 -3.63225e-20 0)
(0.00124816 -0.000146609 0 -0.00037577 0 0)
(0.00129027 -0.00017765 6.53346e-20 -0.00035581 4.33263e-21 0)
(0.00114898 -1.37674e-05 -9.70777e-21 -0.000603382 -4.90529e-20 0)
(0.00149584 9.25571e-05 1.41791e-19 -0.000613642 3.68202e-20 -4.14758e-36)
(0.0015753 -0.000542604 1.88658e-20 -0.000681527 8.64635e-21 0)
(0.00164709 -0.000167333 7.77636e-21 -0.000781463 1.34929e-21 0)
(0.00124612 -0.000428197 1.50243e-19 -0.000417239 2.64849e-20 0)
(0.0023703 -7.32749e-05 2.13556e-19 -0.00125963 1.56566e-19 0)
(0.00230075 -7.19538e-05 3.79431e-19 -0.00111914 2.48334e-19 0)
(0.0024144 0.000272682 -2.08817e-19 -0.00142583 -1.9576e-19 0)
(0.00139958 -0.000541849 -1.49068e-20 -0.000677468 3.7296e-19 0)
(0.00291884 0.000335481 -3.5888e-19 -0.00123616 -2.37448e-19 0)
(0.000836585 -0.000408502 6.59025e-20 -0.000270721 4.57522e-20 0)
(0.00132886 -0.000176788 -1.27213e-20 -0.000423507 1.46286e-20 0)
(0.000942088 -0.000540135 5.72238e-20 -0.000758063 8.27788e-20 0)
(0.00170469 -0.000468277 -1.35043e-19 -0.000790132 -5.44814e-20 0)
(0.000483892 -5.31645e-05 -5.3623e-20 -0.000179337 7.75141e-21 0)
(0.00139906 -0.000459369 -8.59093e-20 -0.00057358 -1.9058e-20 0)
(0.00239484 0.000138424 3.89895e-19 -0.0013174 3.54708e-19 0)
(0.00136365 -0.000593833 0 -0.000566576 0 0)
(0.00269606 0.000341188 3.40776e-20 -0.00120971 9.02954e-20 0)
(0.00128294 -2.06359e-05 2.44786e-20 -0.000326861 1.30278e-20 -1.74242e-35)
(0.00142724 -0.000375045 1.23965e-20 -0.000541393 -4.56929e-20 0)
(0.00135987 -0.00039434 -9.86831e-21 -0.000508205 -2.60218e-20 0)
(0.00150621 -0.000604751 1.37114e-19 -0.000672605 4.65695e-20 0)
(0.00246424 -5.05261e-05 7.92567e-20 -0.000834527 -4.47239e-20 0)
(0.00160916 -0.000573963 -1.32173e-19 -0.000809443 -5.14608e-20 0)
(0.00278113 0.000167008 -9.62829e-20 -0.00134374 -1.30449e-19 0)
(0.00157773 -0.000267543 -1.27329e-19 -0.000692897 7.93732e-20 0)
(0.000931107 -0.000651405 -1.96444e-19 -0.00089925 -1.01892e-19 0)
(0.00227922 -0.0002059 6.20847e-20 -0.00104781 3.476e-20 0)
(0.00130333 -9.61815e-05 -3.10986e-21 -0.000367952 1.10668e-20 0)
(0.00256731 0.000419022 -4.6267e-19 -0.00118497 -4.00131e-19 0)
(0.0004366 -0.00105272 -2.27748e-19 2.12814e-05 1.78779e-19 4.32336e-36)
(0.0026053 0.000496692 6.85746e-20 -0.00108518 2.91057e-20 0)
(0.00276333 5.43089e-05 2.28768e-19 -0.00130992 8.43143e-20 0)
(0.00250862 0.00042037 -2.08825e-19 -0.00121758 -1.4746e-19 0)
(0.00248732 3.33337e-05 -5.59042e-19 -0.00100716 -3.76697e-19 0)
(0.00131229 -0.000523792 -6.14913e-20 -0.000498712 -1.28565e-21 0)
(0.00139165 -0.000427754 -2.39816e-19 -0.000503153 -2.8072e-20 0)
(0.00253046 8.55943e-05 2.94638e-19 -0.00104939 1.90226e-19 0)
(0.00256662 -6.10223e-05 -7.96509e-20 -0.00109558 -4.22907e-20 0)
(0.00102847 -0.000523586 -1.99999e-19 -0.000361128 -1.90081e-20 0)
(0.00129426 -0.000442593 8.08134e-20 -0.000428264 2.81441e-20 0)
(0.00131808 -0.000665577 -5.63864e-20 -0.000598748 -1.62121e-20 0)
(0.00150189 -0.000161545 2.07135e-19 -0.000641958 7.91999e-20 0)
(0.00124584 -0.00021666 5.05698e-20 -0.000341057 -2.42515e-20 0)
(0.00200385 -0.000324155 -1.51594e-19 -0.00108901 -9.08152e-20 0)
(0.00290424 -8.70703e-05 0 -0.00111927 0 0)
(0.00125349 -0.000115637 7.75918e-20 -0.000259437 1.64596e-20 0)
(0.00119118 -0.000118613 -7.23905e-20 -0.000295553 -1.47854e-20 0)
(0.00142731 -9.80508e-05 -5.71477e-20 -0.00051371 6.40442e-21 0)
(0.00135905 -0.000122255 5.52749e-20 -0.000535975 -7.67684e-21 0)
(0.00103803 -0.000603631 1.1626e-19 -0.00047358 2.52091e-20 0)
(0.000403705 0.000185418 -4.74688e-21 -0.00173457 -5.91557e-20 0)
(0.00348054 -0.000307371 1.74554e-19 -0.0011052 1.63725e-19 0)
(0.00226004 0.000584839 5.92308e-20 -0.00107584 2.92465e-20 0)
(0.00260348 3.27719e-05 1.50246e-19 -0.001351 9.64241e-20 0)
(0.00125778 -7.95006e-05 1.17146e-20 -0.000304226 6.78109e-21 0)
(0.00142823 -1.17176e-05 4.38885e-20 -0.000623021 -1.0634e-20 2.52493e-36)
(0.000820724 -0.000716017 4.8757e-20 -0.000818435 4.88125e-20 0)
(0.00152752 -0.000549875 -1.47198e-21 -0.000679787 -3.28793e-21 0)
(0.00119415 -1.80845e-05 6.03629e-20 -0.000242746 -3.70964e-20 0)
(0.0022472 -0.000135685 -8.75012e-20 -0.00104172 -6.72605e-20 0)
(0.0011652 -0.000560234 -5.38994e-20 -0.000404155 9.70495e-21 0)
(0.000747306 -2.33128e-05 -2.97567e-21 -0.000139852 7.72606e-21 0)
(0.00124977 -0.000569598 2.1261e-22 -0.000494477 -2.19194e-20 0)
(0.00119919 -0.000175982 4.10161e-20 -0.000328051 -8.57413e-21 0)
(0.00112175 -9.34106e-05 9.85826e-20 -0.000240775 8.34131e-21 0)
(0.00123917 -1.30571e-05 -2.55547e-20 -0.00020401 -2.32869e-20 -1.42907e-35)
(0.00136614 -1.35901e-05 2.91751e-20 -0.000542024 2.92006e-20 -1.64626e-35)
(0.00165914 -0.000483961 -1.09415e-19 -0.000679639 -3.95556e-20 0)
(0.00167441 -0.000535529 -2.84638e-20 -0.00078925 -2.98679e-20 0)
(0.00130948 -0.000212069 1.08852e-19 -0.000359835 4.91458e-20 0)
(0.00240721 -3.25426e-05 -2.98916e-19 -0.000994184 -9.5586e-20 5.43991e-35)
(0.00122273 -0.000164542 -1.10562e-19 -0.000293042 1.46452e-20 0)
(0.000745354 -0.000543901 9.25925e-20 -0.000408255 2.42454e-20 0)
(0.00104781 -0.000558153 1.8204e-20 -0.000424636 5.40761e-21 0)
(0.00123859 -0.000558975 -7.88574e-21 -0.000461839 -2.27265e-20 0)
(0.00125291 -0.000255387 -1.96367e-19 -0.000363532 -6.91429e-20 0)
(0.00131479 -2.04054e-05 -2.13099e-20 -0.000431685 -3.93302e-20 -5.0742e-36)
(0.00156314 -0.000134348 1.27185e-19 -0.00065737 3.24737e-21 0)
(0.00142766 -0.000532692 -7.05891e-20 -0.00055401 -2.1936e-21 0)
(0.00106609 -0.00057023 -3.5997e-19 -0.00108362 -1.04844e-19 0)
(0.00242294 0.000298363 1.45453e-19 -0.0011024 1.04446e-19 0)
(0.00143029 -5.23883e-05 1.25757e-19 -0.000569179 2.49697e-20 0)
(0.00138439 -5.42789e-05 -4.63145e-20 -0.000632963 -3.6201e-21 0)
(0.00223977 -0.000121343 0 -0.0013839 0 0)
(0.0012803 -0.000233406 -1.20925e-19 -0.00042432 -4.80884e-20 0)
(0.00135276 -0.000374223 5.60885e-20 -0.000426832 1.25387e-20 0)
(0.00130615 -0.000341982 1.93856e-20 -0.000470064 -2.1239e-20 0)
(0.000763453 -0.000381735 1.16802e-19 -0.000258102 7.75416e-21 0)
(0.00119586 -5.9898e-05 -1.0121e-19 -0.000208313 -1.21754e-21 0)
(0.00237122 5.04657e-05 8.69535e-20 -0.00116131 4.69365e-20 0)
(0.00126405 -0.000315038 1.37813e-19 -0.000360276 -2.91757e-20 0)
(0.0024116 0.000302658 1.05758e-19 -0.00123464 1.15925e-19 0)
(0.000930068 -0.000160256 -1.06858e-19 -0.000261595 1.8049e-20 0)
(0.00120429 -5.50745e-05 -4.4225e-20 -0.000226322 -1.34117e-21 0)
(0.001388 -0.000749383 -2.51294e-20 -0.000809445 -2.87449e-20 0)
(0.00129845 -9.6544e-05 -1.40195e-19 -0.000278594 -1.83402e-20 0)
(0.00328519 -0.000962265 2.15065e-20 -0.000552961 1.873e-19 0)
(0.00189868 -0.00038964 -1.22786e-19 -0.000738133 -1.79592e-20 0)
(0.000421974 0.000399474 2.94407e-20 -0.000966532 1.82327e-20 9.69582e-36)
(0.00117736 -0.000406804 -6.65605e-20 -0.0003727 -4.81721e-20 0)
(0.00115086 -0.000411157 -1.6221e-19 -0.000373444 -1.63283e-20 0)
(0.00149897 -0.000361745 1.85442e-19 -0.00054611 3.30376e-20 0)
(0.00250443 -0.000725985 -2.53627e-20 -0.000895258 4.00191e-20 0)
(0.00231927 -6.7034e-05 -2.73481e-19 -0.00110125 -1.766e-19 0)
(0.0018136 4.22972e-05 1.41335e-19 -0.000779858 1.37734e-20 8.78143e-36)
(0.00257273 1.09549e-05 0 -0.000999202 0 0)
(0.00217978 0.000381011 8.68571e-20 -0.000871618 7.63983e-20 0)
(0.00148243 -0.000699129 5.63144e-20 -0.00104344 4.96718e-20 0)
(0.0014692 -0.000623094 1.77664e-19 -0.000908224 1.23627e-19 0)
(0.00245491 -0.000109511 4.48401e-20 -0.00112244 6.65526e-20 0)
(0.00146878 -0.000550327 1.76901e-20 -0.000587736 2.28984e-20 0)
(0.00176224 -0.000546811 1.89184e-19 -0.00100993 9.16145e-20 0)
(0.00147155 -0.000691325 1.14427e-19 -0.000990084 3.0322e-20 0)
(0.00136938 -0.000278693 -1.10232e-19 -0.000479394 -1.07855e-20 0)
(0.00138368 -0.000253221 -7.71643e-20 -0.000505795 2.41959e-20 0)
(0.00140273 -0.00033207 1.6501e-20 -0.000525478 3.05928e-20 0)
(0.00138312 -0.000329663 1.48363e-19 -0.000486049 -2.39906e-20 0)
(0.0012791 -0.000389893 -2.54733e-19 -0.000393908 -3.89247e-20 0)
(0.00100848 -8.97123e-05 4.09356e-20 -0.000233897 6.9607e-21 0)
(0.000230616 -0.000178317 0 -0.000261727 0 0)
(0.00226872 -0.000207021 3.84849e-19 -0.00138583 2.72653e-19 0)
(0.00151488 -0.000615663 2.08954e-20 -0.000857726 9.42267e-21 0)
(0.00135594 -0.000676982 1.20859e-19 -0.000804911 5.25918e-20 0)
(0.00242878 0.000309054 1.71274e-19 -0.00106602 9.61272e-20 0)
(0.0013891 -0.00049119 1.0339e-19 -0.000568559 -2.13432e-20 0)
(0.00172184 -0.000425632 -7.90113e-21 -0.000676721 -3.23164e-20 0)
(0.0017335 -0.000391116 9.87054e-20 -0.000777187 7.65294e-22 0)
(0.00219041 -0.000281095 1.28671e-19 -0.00101071 9.00235e-20 0)
(0.00141817 -0.000212509 -1.07147e-19 -0.000594363 1.02826e-20 0)
(0.0003582 -4.1306e-05 0 -0.000355014 0 0)
(0.0018495 0.000320083 7.20639e-20 -0.000849196 1.92162e-19 0)
(0.00116141 -0.000192964 -1.55222e-19 -0.000280474 -4.08545e-20 0)
(0.00139586 -0.000128333 3.21612e-20 -0.000577354 -1.75608e-20 0)
(0.0010478 -0.000421267 -6.76816e-20 -0.000322745 1.179e-20 0)
(0.0015547 -0.000484405 0 -0.000695846 0 0)
(0.00159557 -0.000448637 -4.38481e-20 -0.000584402 2.15298e-20 0)
(0.000686349 -0.000388089 0 -0.000297029 0 0)
(0.0010517 -0.000235166 -5.66621e-20 -0.000245187 9.46117e-21 0)
(0.00166496 -0.000126659 -1.78829e-19 -0.000685307 5.7039e-21 0)
(0.00148562 -0.00029645 9.02386e-22 -0.00060937 -3.28453e-20 0)
(0.00154296 -0.000251423 1.64971e-19 -0.00059801 4.71681e-20 0)
(0.00643287 -0.00120268 -5.30742e-20 -0.00613754 -2.96769e-19 2.98452e-34)
(0.000522289 -0.000185405 4.90963e-20 -0.000187429 1.1961e-21 0)
(0.0004464 -0.000183938 -3.44126e-20 -0.000182188 -1.30223e-20 0)
(0.00624238 -0.000296008 -8.40388e-19 -0.0022309 -2.63695e-19 0)
(0.00157601 -0.00047374 3.37573e-19 -0.00115073 1.45531e-19 0)
(0.00173863 -0.000340095 -1.33288e-19 -0.000736635 2.29849e-20 0)
(0.00192549 -0.000208746 1.19677e-20 -0.0007006 -3.54602e-20 0)
(0.000831003 -0.000170182 1.03581e-19 -0.000198088 -3.88127e-20 0)
(0.000957185 -0.000240962 8.05382e-20 -0.000208226 -8.1431e-21 0)
(0.00163047 -0.000483813 4.42134e-20 -0.000728807 1.22545e-20 0)
(0.000792437 0.000210224 -2.0729e-20 -0.00137106 -1.11445e-19 -9.12981e-36)
(0.00126032 -0.000220913 2.45583e-20 -0.000379499 -4.77154e-22 0)
(0.00161344 -0.000301222 1.97108e-20 -0.000649091 -3.64298e-20 0)
(0.000388366 8.39602e-05 -3.0757e-20 -0.00177252 -1.26018e-19 0)
(0.00111684 -0.000205515 5.0515e-20 -0.000292178 -1.10833e-20 0)
(0.00219353 -0.000210228 -1.1377e-19 -0.000948188 -4.24208e-20 0)
(0.0021195 -0.000282018 1.80743e-19 -0.000975213 8.35545e-20 0)
(0.00125666 -0.000317272 1.04097e-19 -0.000415183 5.53629e-20 0)
(0.00109685 -0.000419782 -2.40539e-20 -0.000257242 3.27957e-20 0)
(0.00116626 -0.000267604 2.40474e-20 -0.000320793 3.59996e-20 0)
(0.00173213 -0.000576994 -1.82608e-19 -0.00121452 -1.22409e-19 0)
(0.000253354 -0.000194565 -1.49729e-19 -0.000890526 -9.63225e-20 0)
(0.000860385 -0.00048656 -9.0993e-20 -0.000319115 -1.54186e-21 0)
(0.00150402 -0.000209499 -2.01877e-19 -0.000562933 -2.22857e-20 0)
(0.00114922 -0.000241757 -2.77314e-20 -0.000305449 -1.40191e-20 0)
(0.00203593 -0.000370879 -2.73219e-19 -0.00111064 -2.04514e-19 0)
(0.00153768 -0.000125776 -1.21256e-19 -0.000618863 -1.38784e-19 0)
(0.00201009 -0.000332944 -1.94076e-19 -0.000948598 -1.00408e-19 0)
(0.000610915 -0.000383074 8.93265e-20 -0.000602721 4.80797e-20 0)
(0.0023124 0.000461895 1.50359e-19 -0.000726261 1.24886e-19 0)
(0.0025141 0.000152796 -1.49253e-19 -0.00107592 -1.42014e-19 0)
(0.00192296 -0.000446233 -3.0354e-19 -0.000990156 -1.5516e-19 0)
(0.000419691 -0.00045325 -1.31602e-19 -0.000633573 -1.03971e-19 0)
(0.00119028 -9.41972e-06 -1.76114e-20 -0.000144358 -3.26477e-21 0)
(0.00139314 -1.55951e-05 9.46703e-20 -0.000595496 4.67509e-20 0)
(0.00170217 -0.000254341 -3.40379e-20 -0.000783415 5.99196e-20 0)
(0.00127098 -0.000494058 -7.10732e-20 -0.000539751 -5.56495e-23 0)
(0.000237204 -6.35012e-06 2.25512e-19 -0.000798203 2.88856e-19 0)
(0.00136665 -9.28132e-05 0 -0.000489584 0 0)
(0.00136538 -5.7921e-05 -5.76321e-20 -0.000528196 -5.86179e-20 0)
(0.0012257 -6.02739e-05 -5.43843e-20 -0.000213539 -1.88912e-20 0)
(0.00123332 -0.000106612 0 -0.000289912 0 0)
(0.00124811 -4.89742e-05 1.40444e-20 -0.000204323 5.43848e-21 0)
(0.00135188 -5.58187e-05 -4.83162e-21 -0.000590774 -1.24923e-20 0)
(0.00314919 1.35764e-05 1.55848e-19 -0.000290378 7.61662e-20 0)
(0.00327758 0.000416064 2.93176e-19 -0.000690289 1.08614e-19 0)
(0.00244185 0.000392117 -1.84853e-19 -0.000884493 -1.30278e-19 0)
(0.00192366 -3.77101e-05 1.58714e-19 -0.000637099 8.28432e-20 0)
(0.00135705 -0.000138189 7.36464e-20 -0.000430659 2.58085e-21 0)
(0.000861221 -0.000101205 1.2344e-19 -0.000236891 2.50847e-20 0)
(0.001433 -0.000293652 2.4257e-21 -0.000557305 -2.56886e-20 0)
(0.00144323 -0.000259124 -2.4182e-20 -0.000537151 2.44145e-20 0)
(0.00170688 -0.000212999 2.21317e-19 -0.000709283 -9.58632e-20 0)
(0.00119491 -9.37343e-06 -2.52744e-20 -0.000181394 -2.43779e-21 -6.35884e-36)
(0.00139266 -6.14318e-06 5.45436e-20 -0.000558597 2.64989e-20 -2.24993e-35)
(0.00184482 -0.000402999 1.64516e-19 -0.000826574 4.72745e-20 0)
(0.000903604 -0.000187968 -2.46944e-20 -0.000105196 -2.31537e-21 0)
(0.00100016 -0.000288296 4.44865e-20 -0.000216108 1.11458e-20 0)
(0.00122555 -4.79134e-05 3.96679e-20 -0.000158766 1.10896e-20 0)
(0.00136711 -4.22928e-05 1.77164e-19 -0.000576109 5.05324e-20 0)
(0.000582047 -1.01647e-05 8.37298e-21 -0.000138241 2.48604e-20 0)
(0.00153285 -0.000503525 -1.52401e-21 -0.000595141 -2.87984e-20 0)
(0.00292576 0.00048606 -1.90375e-19 -0.00113351 -1.16961e-19 0)
(0.000411914 -9.79942e-06 1.68592e-20 -0.000203962 -4.98197e-21 0)
(0.000808508 -0.00025401 6.55816e-20 -0.000489466 -2.91028e-19 0)
(0.000983373 -0.000345975 6.00318e-20 -0.000199561 8.99796e-21 0)
(0.001231 -6.55735e-05 8.60608e-20 -0.000187229 2.28186e-20 0)
(0.00138706 -4.8899e-05 -2.86416e-20 -0.000578868 -4.00413e-20 0)
(0.00106611 -1.35815e-05 6.57802e-20 -0.00024462 -1.14829e-20 0)
(0.000924224 -0.00035313 0 -0.000278593 0 0)
(0.00187198 -0.000137741 -8.74389e-20 -0.000783696 -7.07012e-20 0)
(0.00159893 -2.20902e-05 9.96183e-20 -0.000680304 1.81338e-20 1.68002e-35)
(0.000742623 -0.000225598 9.59648e-20 -0.00102797 -4.30684e-20 0)
(0.00248966 -4.11612e-06 -1.04417e-19 -0.00115141 -4.42295e-20 -1.42206e-35)
(0.00134007 -0.000641807 0 -0.00105434 0 0)
(0.00204261 0.000311463 1.86607e-19 -0.000700162 8.91522e-20 0)
(0.00198143 -0.000613572 2.21777e-19 -0.00101071 -2.44658e-20 0)
(0.00229328 -0.000280565 1.94278e-19 -0.00123981 1.99944e-19 0)
(0.00163721 -0.000398073 -1.51265e-19 -0.000660153 -7.27917e-20 0)
(0.00216336 -0.000237137 9.25705e-21 -0.0010914 6.42034e-22 0)
(0.00136143 -0.000231279 -2.16182e-20 -0.000401278 -2.50894e-20 0)
(0.0014472 -0.00045688 1.09551e-19 -0.000508329 -1.443e-20 0)
(0.00192804 -0.000419285 6.47657e-20 -0.000826862 -8.07742e-22 0)
(0.00111881 -0.000503501 1.54224e-19 -0.000410914 4.34064e-20 0)
(0.00176286 -0.000468465 7.75445e-20 -0.000784528 1.02665e-20 0)
(0.00121078 -9.3158e-05 -3.93722e-20 -0.000255167 -1.33607e-20 0)
(0.00118654 -0.000103456 1.31523e-19 -0.000259611 1.19878e-20 0)
(0.00184246 -0.000220013 -3.33085e-19 -0.00078411 1.07118e-21 0)
(0.00223348 0.0004148 3.13028e-20 -0.000782767 4.26531e-20 0)
(0.00121328 -0.000290387 -2.05398e-19 -0.000358366 -2.60307e-20 0)
(0.000515343 -0.00055622 -8.85034e-20 -0.000427191 -3.23318e-20 0)
(0.00155037 -0.000521456 1.13458e-19 -0.00118015 -2.50866e-19 0)
(0.00102579 -0.000654322 -1.63098e-19 -0.000863334 4.95016e-20 0)
(0.000679787 -0.000445023 -5.8431e-20 -0.000299197 -1.84112e-20 0)
(0.00236393 -0.000118955 3.26449e-19 -0.000918639 8.66896e-20 0)
(0.00193248 -0.000364768 -7.28568e-20 -0.000912543 3.34927e-21 0)
(0.00121288 -0.000333739 1.63031e-19 -0.000342896 2.91412e-20 0)
(0.00122326 -0.000240642 1.19439e-19 -0.0003206 2.32638e-20 0)
(0.00150627 -2.06802e-05 1.13848e-19 -0.000629408 5.36899e-20 4.52159e-35)
(0.00203417 -0.000374026 -4.78295e-20 -0.0009194 -2.53978e-20 0)
(0.00112111 -1.61497e-05 -5.91159e-20 -0.000255272 -6.23572e-21 0)
(0.00130831 -0.000215544 -1.33173e-19 -0.000484598 1.98922e-21 0)
(0.000691009 -0.000417279 -6.11775e-20 0.000594889 2.3972e-19 -2.843e-35)
(0.0013028 -0.000104746 7.09102e-20 -0.000496233 3.14502e-21 0)
(0.00133273 -7.39915e-05 -8.8042e-20 -0.000441526 -2.42832e-20 0)
(0.00246324 0.000544753 -1.49589e-19 -0.00112509 -1.19004e-19 0)
(0.00139251 -0.000642687 -1.22819e-19 -0.000648736 -2.01508e-20 0)
(0.00137934 -0.000221737 -9.93884e-21 -0.000515356 2.77633e-20 0)
(0.00132914 -0.000277929 -8.73863e-20 -0.000458465 -5.26302e-20 0)
(0.000927984 -0.000609031 -1.62035e-19 -0.000730815 -1.08e-19 0)
(0.00085833 -0.000630257 1.171e-19 -0.000515923 3.40954e-20 0)
(0.00237401 5.9529e-05 1.15733e-20 -0.00129414 1.38601e-21 0)
(0.00230926 -0.000129801 -9.46599e-20 -0.00140068 -1.83761e-19 0)
(0.00264632 -0.00133934 -4.61942e-19 -0.00176064 3.57989e-20 9.58183e-35)
(0.00126031 -0.000384941 -1.39437e-19 -0.00043596 7.98497e-21 0)
(0.00106679 -0.000446199 -2.1471e-19 -0.000853827 -1.20952e-19 0)
(0.00236138 3.53112e-05 1.248e-19 -0.00124033 1.18651e-19 0)
(0.00146257 -0.000531574 1.52799e-19 -0.00112747 -5.34137e-20 0)
(0.000301005 -0.00038695 -4.56043e-20 -0.000451242 6.44056e-21 0)
(0.00238228 -0.000153861 -3.41629e-19 -0.00100528 -1.31679e-19 0)
(0.00105347 -0.000381916 -1.95993e-19 -0.00030067 -3.83509e-20 0)
(0.00212811 -2.47279e-05 -3.10114e-20 -0.000862407 -3.11855e-20 1.50207e-35)
(0.00108708 -0.000337577 1.25616e-19 -0.000279348 3.11698e-20 0)
(0.00120023 -0.000377004 -6.12827e-20 -0.000355128 -4.30027e-20 0)
(0.00120287 -0.000221725 -3.27972e-20 -0.000317322 6.31881e-21 0)
(0.00207594 -0.000262703 0 -0.000896412 0 0)
(0.00104543 -5.82551e-05 8.07422e-20 -0.000237928 3.11524e-20 0)
(0.00163798 -8.25809e-05 -1.94776e-19 -0.000700805 -1.64105e-20 0)
(0.00113605 -0.000681998 1.26642e-19 -0.000700826 4.2852e-20 0)
(0.00102422 -0.000709274 -8.54256e-20 -0.00068474 -3.13517e-20 0)
(0.00079593 -0.000266974 1.34702e-19 -0.000848523 -5.54608e-20 0)
(0.00108089 -0.000496664 -5.95995e-20 -0.000361544 1.71466e-22 0)
(0.000677076 -0.000357058 3.44169e-21 -0.000817008 -5.40146e-21 0)
(0.0016956 -0.000575318 -3.14385e-19 -0.000702932 -1.24336e-19 0)
(0.0016058 -0.000591185 -1.05726e-19 -0.000798304 -4.47942e-20 0)
(0.00083797 -0.000641951 3.3273e-20 -0.000594581 3.41924e-20 0)
(0.00133626 -0.000579124 -6.05533e-20 -0.000626871 -3.90053e-20 0)
(0.000780627 -0.000115306 1.13581e-20 -0.000127879 1.58705e-20 0)
(0.00116087 -0.000317816 1.70739e-19 -0.000328696 1.15657e-20 0)
(0.00236089 3.98632e-05 -3.96386e-19 -0.000948545 -1.02617e-19 5.7352e-35)
(0.00144209 -0.000189023 3.19135e-20 -0.000527362 -1.81959e-20 0)
(0.00104513 -0.00025043 -5.81741e-20 -0.000240719 -1.62229e-20 0)
(0.00366448 -0.000229742 2.80089e-19 -0.00098571 5.23011e-20 0)
(0.00222913 -1.39084e-05 -1.61211e-19 -0.000958235 -2.25568e-20 5.32828e-36)
(0.000116357 -0.000203659 4.58731e-20 -0.000603896 4.45575e-20 0)
(0.00132891 -0.000314913 1.33645e-19 -0.000403975 4.61462e-20 0)
(0.00200293 -0.000119715 1.38073e-20 -0.000878435 -4.15438e-20 0)
(0.00219242 0.000205896 -1.66163e-19 -0.00103363 -1.1973e-19 0)
(0.00122834 -0.000343008 3.16434e-19 -0.000414045 1.68467e-20 0)
(0.00118027 -2.56468e-05 -2.46582e-20 -0.000154811 -1.33632e-20 0)
(0.00138978 -1.14304e-05 5.1155e-20 -0.000592218 -1.63725e-20 0)
(0.000814385 -8.19678e-06 2.81589e-21 -0.000166818 1.15675e-20 0)
(0.00121989 -0.000590745 2.47998e-19 -0.000512067 8.2615e-20 0)
(0.00191315 -0.000369233 -1.46398e-19 -0.000802029 -1.63254e-20 0)
(0.00193305 -2.13797e-05 -3.23025e-21 -0.000855084 -2.71312e-20 1.16765e-35)
(0.00199967 4.64461e-05 3.1257e-20 -0.000972462 4.2879e-20 -7.10042e-36)
(0.000271891 -0.000272151 0 -0.000768977 0 0)
(0.00178595 0.000276085 -2.65664e-19 -0.000932451 -2.56544e-19 0)
(0.00141204 -0.000486512 1.06617e-19 -0.000454892 -1.98038e-20 0)
(0.00120726 -3.81573e-05 1.9831e-20 -0.000161124 1.11052e-21 0)
(0.000288652 -0.00021081 2.85088e-20 -0.000303514 1.99903e-20 0)
(0.00120239 -4.14524e-06 1.57479e-20 -0.000164194 1.66147e-20 0)
(0.00125274 -9.03931e-06 4.9725e-20 -0.000267858 4.9225e-20 -2.00731e-35)
(0.0013397 -7.40506e-06 -3.96448e-20 -0.000486537 -3.13814e-20 -1.60222e-35)
(0.00154436 -0.000439 9.14953e-20 -0.000670115 2.22635e-20 0)
(0.00156134 -0.0016503 0 -0.00048991 0 0)
(0.00139126 -1.55346e-05 2.15375e-20 -0.000604989 2.87802e-20 0)
(0.00102113 -0.000311906 7.70667e-20 -0.000279838 4.21225e-20 0)
(0.00228932 0.000212813 -2.13974e-19 -0.000909037 -1.56805e-19 0)
(0.000464703 -0.000353361 -4.21769e-20 -0.000442992 -1.23613e-20 0)
(0.00139869 -1.15074e-05 0 -0.000604333 0 0)
(0.000951432 -0.000430712 8.79945e-20 -0.000281154 -2.2506e-20 0)
(0.00127106 -0.00062712 -3.14289e-21 -0.000532235 9.91959e-22 0)
(0.00180666 0.000449057 -2.1354e-19 -0.000709563 -2.03717e-19 0)
(0.00123506 -0.000106106 5.54165e-20 -0.000246634 1.16631e-20 0)
(0.000384754 0.000170301 -3.168e-19 -0.00140622 -3.12141e-19 0)
(4.19021e-05 0.000261608 9.48288e-20 -0.00056513 -5.28444e-19 -1.40185e-34)
(0.000425725 1.77416e-05 0 -0.000805703 0 0)
(0.00139603 -0.000161606 5.57179e-20 -0.00048953 -7.94408e-21 0)
(0.00318315 -0.000628025 1.85157e-19 -0.00108882 2.60963e-21 0)
(0.000662842 -0.000339525 -2.56158e-20 -0.00106316 3.90015e-21 0)
(0.00140277 -0.00063717 3.15487e-20 -0.000764244 3.27132e-20 0)
(0.00293099 1.69951e-05 -6.01179e-20 -0.00132801 -9.44484e-20 0)
(0.00151403 4.09474e-05 -1.78372e-20 -0.000716155 -4.53963e-20 -2.40379e-35)
(0.00124232 -0.000164002 -2.53088e-20 -0.000316079 -9.41192e-21 0)
(0.0012482 -0.000276014 -5.85034e-20 -0.000384144 5.43634e-21 0)
(0.00563112 -0.00131719 -2.16293e-19 -0.00163987 -1.02235e-19 0)
(0.00215048 0.000447884 1.381e-19 -0.000994598 1.15553e-19 0)
(0.00214535 0.000560723 3.19718e-20 -0.000777798 2.12689e-20 0)
(0.00202982 -0.00010023 1.98723e-19 -0.000851332 -5.52307e-20 0)
(0.00112285 -0.000292639 8.47349e-20 -0.000296367 1.0638e-20 0)
(0.00236791 -8.13938e-05 -3.94141e-19 -0.00126582 -3.28492e-19 0)
(0.00112601 -6.47727e-05 4.34001e-20 -0.000230892 1.07104e-20 0)
(0.00154872 -7.37707e-05 1.35912e-19 -0.000663883 -6.87655e-21 0)
(0.00272608 0.000219578 1.15385e-19 -0.00112931 4.70069e-20 0)
(0.001374 -0.000194052 -9.66369e-21 -0.000541527 2.75898e-20 0)
(0.00108393 -0.000286017 4.49943e-20 -0.000294633 2.43148e-20 0)
(0.00119817 1.17812e-05 8.58448e-20 -0.000185745 -1.41e-20 0)
(0.00140899 2.65199e-06 3.30572e-20 -0.000597854 1.35343e-20 7.40925e-36)
(0.00235222 -0.000174227 -2.16898e-19 -0.00100688 -1.15892e-19 0)
(0.00175678 -0.000276845 1.66862e-19 -0.000699961 2.95013e-20 0)
(0.00238726 -0.000146235 8.41945e-20 -0.00106719 3.59052e-20 0)
(0.00361658 -2.67616e-05 1.2869e-19 -0.00118212 1.4481e-19 0)
(0.0015356 -0.000334443 8.09317e-20 -0.00055873 -7.50383e-21 0)
(0.000677887 -0.000516509 3.08755e-20 -0.000481676 1.19521e-20 0)
(0.0024811 0.000168569 -2.48679e-20 -0.00134356 -7.71594e-20 0)
(0.00194461 0.000249759 2.03674e-19 -0.000562344 1.20527e-19 0)
(0.00261295 4.42601e-05 -4.2676e-20 -0.00124811 5.22117e-21 0)
(0.00146802 -0.000197076 -9.98359e-20 -0.000654895 -1.72235e-20 0)
(0.00118456 1.29205e-05 -7.72766e-20 -0.000138555 -1.67725e-20 0)
(0.00119853 -5.38536e-06 2.88542e-20 -0.000130216 -2.67224e-21 -6.00649e-36)
(0.00139413 -6.52475e-07 9.6186e-20 -0.000595676 3.31979e-20 2.65463e-35)
(0.00139108 5.31065e-07 1.1253e-19 -0.000583575 7.84476e-20 -7.0581e-35)
(0.00100775 -1.04903e-06 1.02944e-19 -0.000211765 1.28664e-20 0)
(0.00171479 -5.45956e-06 -2.72915e-20 -0.000701163 -1.65403e-20 7.83041e-36)
(0.00123634 9.62849e-05 -2.3683e-20 -0.00058667 -6.29207e-20 0)
(0.00220871 -0.000851904 -3.25417e-19 -0.000597947 -1.24641e-19 0)
(0.00124022 -0.000164507 -1.19515e-19 -0.000329375 -4.18078e-20 0)
(0.000640613 -0.000567429 2.37294e-20 -0.000498994 3.19437e-20 0)
(0.00219238 0.000357136 1.36551e-19 -0.000916423 2.11972e-19 0)
(0.000493937 -0.00038797 4.99818e-20 -0.000237685 2.14748e-20 0)
(0.00136338 -0.000616764 1.86187e-19 -0.000719824 4.69583e-20 0)
(0.000432711 -0.000254063 8.89663e-20 -0.000242477 3.26188e-20 0)
(0.00163622 -0.000342643 1.127e-19 -0.00065876 2.95436e-20 0)
(0.00125715 -0.000182829 -2.88488e-20 -0.000303174 -1.43905e-21 0)
(0.00152298 -0.000329725 -2.62084e-19 -0.000631585 -8.14287e-20 0)
(0.00451984 -0.000257305 -9.21162e-20 -0.00117358 -6.34153e-20 0)
(0.00244136 0.000508698 1.68844e-19 -0.00101808 1.42024e-19 0)
(0.00171252 -0.000487744 -1.14752e-19 -0.00117973 -1.58946e-20 0)
(0.00225689 -0.000128794 -3.11552e-19 -0.00113084 -2.0803e-19 0)
(0.00151704 0.000290328 -5.39668e-20 -0.000739179 -9.94176e-20 0)
(0.00233465 6.9384e-06 1.3017e-19 -0.00112685 1.36505e-19 0)
(0.00210427 -0.000382398 1.62401e-19 -0.00124739 1.20698e-19 0)
(0.00181915 -0.000486324 -8.15356e-20 -0.000865903 -3.19414e-20 0)
(0.00186638 -0.000414471 -2.14451e-19 -0.000836929 -1.22744e-19 0)
(0.000559809 -0.000162674 7.90884e-20 -0.0010143 8.57104e-20 0)
(0.000381068 -0.000159062 3.89671e-20 -0.000758361 4.1485e-20 0)
(0.0011853 -4.1535e-05 8.83983e-20 -0.000236167 -3.53391e-20 0)
(0.00141404 -3.44815e-05 -9.06001e-20 -0.000612837 -2.61721e-20 0)
(0.00136349 -0.000168274 -6.85736e-20 -0.000479632 4.13617e-21 0)
(0.00175895 -0.000544987 4.63722e-19 -0.000990005 2.2518e-19 0)
(0.00214153 -0.000395026 -5.53545e-19 -0.00123684 -2.45014e-19 0)
(0.00231995 -0.000148919 6.6779e-21 -0.00106884 -2.46781e-20 0)
(0.00116566 -0.00014298 1.10219e-19 -0.000288169 6.52666e-21 0)
(0.00212743 -0.000330772 -3.54877e-19 -0.00137617 -3.05561e-19 0)
(0.00207899 -0.000181619 2.3868e-19 -0.000860416 1.33955e-19 0)
(0.00199714 -0.000405091 6.00322e-20 -0.00141137 -2.23384e-20 0)
(0.00179245 -0.000542386 1.79819e-19 -0.00114719 1.16614e-19 0)
(0.00147317 -0.000153937 -8.15229e-20 -0.000561088 -3.8155e-20 0)