/*--------------------------------*- C++ -*----------------------------------*\
| =========                 |                                                 |
| \\      /  F ield         | OpenFOAM: The Open Source CFD Toolbox           |
|  \\    /   O peration     | Version:  v2012                                 |
|   \\  /    A nd           | Website:  www.openfoam.com                      |
|    \\/     M anipulation  |                                                 |
\*---------------------------------------------------------------------------*/
FoamFile
{
    version     2.0;
    format      ascii;
    class       pointVectorField;
    location    "8";
    object      pointD;
}
// * * * * * * * * * * * * * * * * * * * * * * * * * * * * * * * * * * * * * //

dimensions      [0 1 0 0 0 0 0];


internalField   nonuniform List<vector> 
530
(
(0.00301952 0 -2.37541e-21)
(0.00415257 0 -1.06202e-21)
(0.00381867 -0.000347854 -5.83779e-21)
(0 -0.00220624 -3.00921e-21)
(0 -0.00170926 -2.38469e-20)
(0.00301952 0 -2.37541e-21)
(0.00415257 0 -1.06202e-21)
(0.00381867 -0.000347854 -5.83779e-21)
(0 -0.00220624 -3.00921e-21)
(0 -0.00170926 -2.38469e-20)
(0.00307196 0 0)
(0.0030977 0 0)
(0.00311991 0 0)
(0.00315303 0 0)
(0.00319986 0 0)
(0.00326171 0 0)
(0.00333426 0 0)
(0.00341389 0 0)
(0.00350472 0 0)
(0.00360241 0 0)
(0.0037047 0 0)
(0.00382623 0 0)
(0.00394739 0 0)
(0.00406181 0 0)
(0.00417505 -8.32237e-06 3.43116e-22)
(0.00415695 -1.79415e-05 4.03617e-21)
(0.00412788 -3.32093e-05 -3.2653e-22)
(0.00408954 -5.61557e-05 -5.64805e-21)
(0.004044 -8.74167e-05 -4.22615e-22)
(0.00399653 -0.000129952 4.53619e-21)
(0.00395299 -0.00017775 -7.8813e-22)
(0.00391438 -0.000231537 -6.11325e-21)
(0.00387982 -0.000292747 -7.26015e-21)
(0.00370446 -0.000385806 -2.44595e-21)
(0.00357432 -0.000410546 -4.38101e-23)
(0.00343065 -0.000431015 -2.26783e-21)
(0.0032718 -0.000447338 -4.68912e-21)
(0.00311689 -0.000458078 -7.18462e-22)
(0.00295262 -0.000468222 9.35124e-22)
(0.00277215 -0.000481335 1.53195e-21)
(0.00255945 -0.000504782 3.16307e-21)
(0.00234325 -0.000539776 3.06167e-21)
(0.00209419 -0.000598886 6.32294e-21)
(0.0018233 -0.000684925 4.89239e-21)
(0.00161461 -0.000768866 0)
(0.00135052 -0.000905466 2.68344e-21)
(0.00103945 -0.00110149 -1.21982e-20)
(0.000787277 -0.001307 -9.63658e-21)
(0.000546948 -0.00155216 3.06321e-21)
(0.000334712 -0.00180097 -3.62806e-21)
(0.000185281 -0.00200597 9.2905e-22)
(7.6994e-05 -0.00215392 -6.33929e-22)
(0 -0.00217371 0)
(0 -0.00209883 0)
(0 -0.00202966 0)
(0 -0.00195201 0)
(0.000835732 -0.00155598 -3.33596e-20)
(0.0014088 -0.0014898 -9.63034e-21)
(0.00187268 -0.00128669 -7.88435e-22)
(0.00227025 -0.00106393 4.61287e-21)
(0.00258006 -0.000786765 -3.96251e-21)
(0.00280801 -0.000514053 -5.53297e-21)
(0.00294135 -0.000277966 1.46715e-21)
(0.00307196 0 0)
(0.0030977 0 0)
(0.00311991 0 0)
(0.00315303 0 0)
(0.00319986 0 0)
(0.00326171 0 0)
(0.00333426 0 0)
(0.00341389 0 0)
(0.00350472 0 0)
(0.00360241 0 0)
(0.0037047 0 0)
(0.00382623 0 0)
(0.00394739 0 0)
(0.00406181 0 0)
(0.00417505 -8.32237e-06 3.43116e-22)
(0.00415695 -1.79415e-05 4.03617e-21)
(0.00412788 -3.32093e-05 -3.2653e-22)
(0.00408954 -5.61557e-05 -5.64805e-21)
(0.004044 -8.74167e-05 -4.22615e-22)
(0.00399653 -0.000129952 4.53619e-21)
(0.00395299 -0.00017775 -7.8813e-22)
(0.00391438 -0.000231537 -6.11325e-21)
(0.00387982 -0.000292747 -7.26015e-21)
(0.00370446 -0.000385806 -2.44595e-21)
(0.00357432 -0.000410546 -4.38101e-23)
(0.00343065 -0.000431015 -2.26783e-21)
(0.0032718 -0.000447338 -4.68912e-21)
(0.00311689 -0.000458078 -7.18462e-22)
(0.00295262 -0.000468222 9.35124e-22)
(0.00277215 -0.000481335 1.53195e-21)
(0.00255945 -0.000504782 3.16307e-21)
(0.00234325 -0.000539776 3.06167e-21)
(0.00209419 -0.000598886 6.32294e-21)
(0.0018233 -0.000684925 4.89239e-21)
(0.00161461 -0.000768866 0)
(0.00135052 -0.000905466 2.68344e-21)
(0.00103945 -0.00110149 -1.21982e-20)
(0.000787277 -0.001307 -9.63658e-21)
(0.000546948 -0.00155216 3.06321e-21)
(0.000334712 -0.00180097 -3.62806e-21)
(0.000185281 -0.00200597 9.2905e-22)
(7.6994e-05 -0.00215392 -6.33929e-22)
(0 -0.00217371 0)
(0 -0.00209883 0)
(0 -0.00202966 0)
(0 -0.00195201 0)
(0.000835732 -0.00155598 -3.33596e-20)
(0.0014088 -0.0014898 -9.63034e-21)
(0.00187268 -0.00128669 -7.88435e-22)
(0.00227025 -0.00106393 4.61287e-21)
(0.00258006 -0.000786765 -3.96251e-21)
(0.00280801 -0.000514053 -5.53297e-21)
(0.00294135 -0.000277966 1.46715e-21)
(0.00252023 -0.000226225 0)
(0.00332052 -0.000147651 0)
(0.00159126 -0.000794661 0)
(0.00274149 -0.000244408 0)
(0.00310085 -7.29597e-05 0)
(0.00354233 -0.00024601 0)
(0.00374584 -8.38958e-05 0)
(0.000777391 -0.00156126 0)
(0.00279931 -0.000145086 0)
(0.00196604 -0.000509377 0)
(0.00342932 -6.09149e-05 0)
(0.00305618 -0.000290993 0)
(0.00304585 -4.62402e-05 0)
(0.00225777 -0.000452687 0)
(0.00376158 -0.000148309 0)
(0.00230531 -0.000392269 0)
(0.00305126 -0.000147597 0)
(0.0028117 -0.000153104 0)
(0.00104014 -0.00122911 0)
(0.00134214 -0.00116686 0)
(0.00364066 -4.44948e-05 0)
(0.00326721 -0.00034204 0)
(0.00397025 -3.58693e-05 0)
(0.00364493 -0.000309569 0)
(0.00211123 -0.000438015 0)
(0.00144368 -0.000847324 0)
(0.00271948 -0.000361129 0)
(0.00332249 -3.19628e-05 0)
(0.00352686 -0.0001737 0)
(0.0035243 -9.77345e-05 0)
(0.0003248 -0.00196718 0)
(0.00247921 -0.000272118 0)
(0.00391339 -8.45296e-05 0)
(0.00376598 -0.000204797 0)
(0.00329899 -0.000241413 0)
(0.000578114 -0.00178142 0)
(0.00285367 -0.000110464 0)
(0.00321211 -2.52119e-05 0)
(0.00303295 -4.74484e-05 0)
(0.00297336 -0.000113094 0)
(0.00252176 -0.000240444 0)
(0.00263025 -0.000331078 0)
(0.00302156 -0.000212069 0)
(0.00325443 -7.80298e-05 0)
(0.00194317 -0.000557314 0)
(0.000627325 -0.00163775 0)
(0.00248588 -0.000402054 0)
(0.0037938 -3.41836e-05 0)
(0.00347068 -0.000351343 0)
(0.00196 -0.000771641 0)
(0.00352925 -2.86605e-05 0)
(0.00309464 -0.000364529 0)
(0.00284448 -0.000103259 0)
(0.00181752 -0.000604021 0)
(0.00226831 -0.000342373 0)
(0.00110815 -0.00124645 0)
(0.00157248 -0.000748398 0)
(0.00102315 -0.00146843 0)
(0.00370461 -0.000122394 0)
(0.00319026 -0.000209305 0)
(0.00335838 -0.000106786 0)
(0.00314133 -1.78365e-05 0)
(0.00303796 -6.44083e-05 0)
(0.00177641 -0.000717506 0)
(0.00393304 -0.000103962 0)
(0.00111797 -0.001094 0)
(0.002177 -0.000402489 0)
(0.000255842 -0.00198386 0)
(0.00289923 -0.000396034 0)
(0.0034457 -1.75375e-05 0)
(0.00286558 -0.000175861 0)
(0.00251605 -0.000301088 0)
(0.00298862 -0.000118334 0)
(0.00233923 -0.000551928 0)
(0.00362284 -0.000192986 0)
(0.00380015 -0.000234995 0)
(0.0040228 -4.91792e-05 0)
(0.00135093 -0.00094894 0)
(0.00213898 -0.000494524 0)
(0.00255119 -0.000271988 0)
(0.00348234 -0.000138818 0)
(0.00405904 -1.9273e-05 0)
(0.00374434 -0.000319867 0)
(0.0031464 -0.000166855 0)
(0.00387358 -0.000151579 0)
(0.00304595 -4.90766e-05 0)
(0.00294058 -0.000101733 0)
(0.00262366 -0.000317967 0)
(0.00283999 -0.000272354 0)
(0.00328342 -1.5131e-05 0)
(0.00319832 -4.11781e-05 0)
(0.00353208 -6.77512e-05 0)
(0.00332847 -5.63633e-05 0)
(0.00363648 -7.65892e-05 0)
(0.00263133 -0.000199372 0)
(0.00267461 -0.000217795 0)
(0.00337756 -0.000188249 0)
(0.00365086 -0.000253115 0)
(0.00387854 -6.85529e-05 0)
(0.000752127 -0.00147042 0)
(0.000406613 -0.00184706 0)
(0.00178881 -0.00101032 0)
(0.00338365 -0.00028109 0)
(0.00363076 -1.69358e-05 0)
(0.00230674 -0.000358468 0)
(0.00319334 -0.000403591 0)
(0.00130825 -0.000924904 0)
(0.00318097 -0.000299072 0)
(0.00268978 -0.000159572 0)
(0.00390462 -2.20915e-05 0)
(0.00355657 -0.000367153 0)
(0.00323533 -0.00011414 0)
(0.0034612 -0.000220872 0)
(0.00100026 -0.00140785 0)
(0.000824051 -0.00147336 0)
(0.0018713 -0.000602131 0)
(0.000138666 -0.00212422 0)
(0.00258316 -0.000426858 0)
(0.00146589 -0.000954308 0)
(0.0028583 -0.000258916 0)
(0.00381899 -0.00011284 0)
(0.0023887 -0.000287748 0)
(0.0036127 -0.000110238 0)
(0.000951503 -0.00162225 0)
(0.000525641 -0.00179687 0)
(0.0016984 -0.000669954 0)
(0.0029142 -0.000319974 0)
(0.00373744 -5.83839e-05 0)
(0.00351297 -0.000296145 0)
(0.000448133 -0.0018347 0)
(0.00320928 -1.3586e-05 0)
(0.00289296 -9.29837e-05 0)
(0.00311447 -1.87059e-05 0)
(0.00301158 -0.00011124 0)
(0.0028149 -0.000180923 0)
(0.0022985 -0.000483427 0)
(0.00243152 -0.000271946 0)
(0.0033641 -1.16297e-05 0)
(0.00294081 -9.58609e-05 0)
(0.000767178 -0.00160695 0)
(0.00292299 -0.000201763 0)
(0.0040195 -6.70741e-05 0)
(0.00387815 -0.000181015 0)
(0.00334017 -0.000388773 0)
(0.00272226 -0.000158116 0)
(0.00372689 -1.96645e-05 0)
(0.000240941 -0.00195229 0)
(0.0037374 -0.000184535 0)
(0.000154801 -0.0020886 0)
(0.00265193 -0.000458167 0)
(0.00314146 -9.30143e-05 0)
(0.000570049 -0.00173219 0)
(0.00342429 -4.0034e-05 0)
(0.00313839 -3.32264e-05 0)
(0.00245085 -0.000361131 0)
(0.00291476 -8.41989e-05 0)
(0.00205229 -0.000455129 0)
(0.00322604 -5.75545e-05 0)
(0.00131977 -0.00101753 0)
(0.00270137 -0.000160101 0)
(0.00173227 -0.000676738 0)
(0.00306948 -3.51625e-05 0)
(0.00302071 -0.000259333 0)
(0.00305403 -5.17176e-05 0)
(0.00157334 -0.000768615 0)
(0.00183488 -0.000591975 0)
(0.00366097 -0.000217678 0)
(0.00379548 -0.000277412 0)
(0.00407463 -2.79327e-05 0)
(0.00139633 -0.0013344 0)
(0.00363868 -0.000157903 0)
(0.00384368 -5.01773e-05 0)
(0.00232243 -0.000350376 0)
(0.00270559 -0.000429116 0)
(0.00169664 -0.000863523 0)
(0.00315371 -0.000257605 0)
(0.0020967 -0.00046332 0)
(0.0034395 -8.62992e-05 0)
(0.00339427 -0.000330917 0)
(0.00334624 -8.07872e-05 0)
(0.00342801 -0.000115959 0)
(0.00279674 -0.000136665 0)
(0.00205565 -0.000522207 0)
(0.00232752 -0.000423431 0)
(0.000543783 -0.00165777 0)
(0.00218268 -0.000788746 0)
(0.00243978 -0.000388752 0)
(0.00297018 -6.35651e-05 0)
(0.000229481 -0.00203901 0)
(0.000854809 -0.00132495 0)
(0.00350958 -4.78281e-05 0)
(0.00354704 -1.241e-05 0)
(0.00309252 -2.16338e-05 0)
(0.00194517 -0.000592734 0)
(0.00214983 -0.00040505 0)
(0.00304973 -0.000419157 0)
(0.00303892 -0.000179273 0)
(0.00359035 -0.000141106 0)
(0.0030206 -0.0003331 0)
(0.00199776 -0.000636575 0)
(0.00400173 -1.35835e-05 0)
(0.00365587 -0.000360623 0)
(0.00244651 -0.000468422 0)
(0.00381025 -9.52516e-05 0)
(0.00410491 -7.89571e-06 0)
(0.0037743 -0.000342757 0)
(0.00230594 -0.000335734 0)
(0.00252023 -0.000226225 0)
(0.00332052 -0.000147651 0)
(0.00159126 -0.000794661 0)
(0.00274149 -0.000244408 0)
(0.00310085 -7.29597e-05 0)
(0.00354233 -0.00024601 0)
(0.00374584 -8.38958e-05 0)
(0.000777391 -0.00156126 0)
(0.00279931 -0.000145086 0)
(0.00196604 -0.000509377 0)
(0.00342932 -6.09149e-05 0)
(0.00305618 -0.000290993 0)
(0.00304585 -4.62402e-05 0)
(0.00225777 -0.000452687 0)
(0.00376158 -0.000148309 0)
(0.00230531 -0.000392269 0)
(0.00305126 -0.000147597 0)
(0.0028117 -0.000153104 0)
(0.00104014 -0.00122911 0)
(0.00134214 -0.00116686 0)
(0.00364066 -4.44948e-05 0)
(0.00326721 -0.00034204 0)
(0.00397025 -3.58693e-05 0)
(0.00364493 -0.000309569 0)
(0.00211123 -0.000438015 0)
(0.00144368 -0.000847324 0)
(0.00271948 -0.000361129 0)
(0.00332249 -3.19628e-05 0)
(0.00352686 -0.0001737 0)
(0.0035243 -9.77345e-05 0)
(0.0003248 -0.00196718 0)
(0.00247921 -0.000272118 0)
(0.00391339 -8.45296e-05 0)
(0.00376598 -0.000204797 0)
(0.00329899 -0.000241413 0)
(0.000578114 -0.00178142 0)
(0.00285367 -0.000110464 0)
(0.00321211 -2.52119e-05 0)
(0.00303295 -4.74484e-05 0)
(0.00297336 -0.000113094 0)
(0.00252176 -0.000240444 0)
(0.00263025 -0.000331078 0)
(0.00302156 -0.000212069 0)
(0.00325443 -7.80298e-05 0)
(0.00194317 -0.000557314 0)
(0.000627325 -0.00163775 0)
(0.00248588 -0.000402054 0)
(0.0037938 -3.41836e-05 0)
(0.00347068 -0.000351343 0)
(0.00196 -0.000771641 0)
(0.00352925 -2.86605e-05 0)
(0.00309464 -0.000364529 0)
(0.00284448 -0.000103259 0)
(0.00181752 -0.000604021 0)
(0.00226831 -0.000342373 0)
(0.00110815 -0.00124645 0)
(0.00157248 -0.000748398 0)
(0.00102315 -0.00146843 0)
(0.00370461 -0.000122394 0)
(0.00319026 -0.000209305 0)
(0.00335838 -0.000106786 0)
(0.00314133 -1.78365e-05 0)
(0.00303796 -6.44083e-05 0)
(0.00177641 -0.000717506 0)
(0.00393304 -0.000103962 0)
(0.00111797 -0.001094 0)
(0.002177 -0.000402489 0)
(0.000255842 -0.00198386 0)
(0.00289923 -0.000396034 0)
(0.0034457 -1.75375e-05 0)
(0.00286558 -0.000175861 0)
(0.00251605 -0.000301088 0)
(0.00298862 -0.000118334 0)
(0.00233923 -0.000551928 0)
(0.00362284 -0.000192986 0)
(0.00380015 -0.000234995 0)
(0.0040228 -4.91792e-05 0)
(0.00135093 -0.00094894 0)
(0.00213898 -0.000494524 0)
(0.00255119 -0.000271988 0)
(0.00348234 -0.000138818 0)
(0.00405904 -1.9273e-05 0)
(0.00374434 -0.000319867 0)
(0.0031464 -0.000166855 0)
(0.00387358 -0.000151579 0)
(0.00304595 -4.90766e-05 0)
(0.00294058 -0.000101733 0)
(0.00262366 -0.000317967 0)
(0.00283999 -0.000272354 0)
(0.00328342 -1.5131e-05 0)
(0.00319832 -4.11781e-05 0)
(0.00353208 -6.77512e-05 0)
(0.00332847 -5.63633e-05 0)
(0.00363648 -7.65892e-05 0)
(0.00263133 -0.000199372 0)
(0.00267461 -0.000217795 0)
(0.00337756 -0.000188249 0)
(0.00365086 -0.000253115 0)
(0.00387854 -6.85529e-05 0)
(0.000752127 -0.00147042 0)
(0.000406613 -0.00184706 0)
(0.00178881 -0.00101032 0)
(0.00338365 -0.00028109 0)
(0.00363076 -1.69358e-05 0)
(0.00230674 -0.000358468 0)
(0.00319334 -0.000403591 0)
(0.00130825 -0.000924904 0)
(0.00318097 -0.000299072 0)
(0.00268978 -0.000159572 0)
(0.00390462 -2.20915e-05 0)
(0.00355657 -0.000367153 0)
(0.00323533 -0.00011414 0)
(0.0034612 -0.000220872 0)
(0.00100026 -0.00140785 0)
(0.000824051 -0.00147336 0)
(0.0018713 -0.000602131 0)
(0.000138666 -0.00212422 0)
(0.00258316 -0.000426858 0)
(0.00146589 -0.000954308 0)
(0.0028583 -0.000258916 0)
(0.00381899 -0.00011284 0)
(0.0023887 -0.000287748 0)
(0.0036127 -0.000110238 0)
(0.000951503 -0.00162225 0)
(0.000525641 -0.00179687 0)
(0.0016984 -0.000669954 0)
(0.0029142 -0.000319974 0)
(0.00373744 -5.83839e-05 0)
(0.00351297 -0.000296145 0)
(0.000448133 -0.0018347 0)
(0.00320928 -1.3586e-05 0)
(0.00289296 -9.29837e-05 0)
(0.00311447 -1.87059e-05 0)
(0.00301158 -0.00011124 0)
(0.0028149 -0.000180923 0)
(0.0022985 -0.000483427 0)
(0.00243152 -0.000271946 0)
(0.0033641 -1.16297e-05 0)
(0.00294081 -9.58609e-05 0)
(0.000767178 -0.00160695 0)
(0.00292299 -0.000201763 0)
(0.0040195 -6.70741e-05 0)
(0.00387815 -0.000181015 0)
(0.00334017 -0.000388773 0)
(0.00272226 -0.000158116 0)
(0.00372689 -1.96645e-05 0)
(0.000240941 -0.00195229 0)
(0.0037374 -0.000184535 0)
(0.000154801 -0.0020886 0)
(0.00265193 -0.000458167 0)
(0.00314146 -9.30143e-05 0)
(0.000570049 -0.00173219 0)
(0.00342429 -4.0034e-05 0)
(0.00313839 -3.32264e-05 0)
(0.00245085 -0.000361131 0)
(0.00291476 -8.41989e-05 0)
(0.00205229 -0.000455129 0)
(0.00322604 -5.75545e-05 0)
(0.00131977 -0.00101753 0)
(0.00270137 -0.000160101 0)
(0.00173227 -0.000676738 0)
(0.00306948 -3.51625e-05 0)
(0.00302071 -0.000259333 0)
(0.00305403 -5.17176e-05 0)
(0.00157334 -0.000768615 0)
(0.00183488 -0.000591975 0)
(0.00366097 -0.000217678 0)
(0.00379548 -0.000277412 0)
(0.00407463 -2.79327e-05 0)
(0.00139633 -0.0013344 0)
(0.00363868 -0.000157903 0)
(0.00384368 -5.01773e-05 0)
(0.00232243 -0.000350376 0)
(0.00270559 -0.000429116 0)
(0.00169664 -0.000863523 0)
(0.00315371 -0.000257605 0)
(0.0020967 -0.00046332 0)
(0.0034395 -8.62992e-05 0)
(0.00339427 -0.000330917 0)
(0.00334624 -8.07872e-05 0)
(0.00342801 -0.000115959 0)
(0.00279674 -0.000136665 0)
(0.00205565 -0.000522207 0)
(0.00232752 -0.000423431 0)
(0.000543783 -0.00165777 0)
(0.00218268 -0.000788746 0)
(0.00243978 -0.000388752 0)
(0.00297018 -6.35651e-05 0)
(0.000229481 -0.00203901 0)
(0.000854809 -0.00132495 0)
(0.00350958 -4.78281e-05 0)
(0.00354704 -1.241e-05 0)
(0.00309252 -2.16338e-05 0)
(0.00194517 -0.000592734 0)
(0.00214983 -0.00040505 0)
(0.00304973 -0.000419157 0)
(0.00303892 -0.000179273 0)
(0.00359035 -0.000141106 0)
(0.0030206 -0.0003331 0)
(0.00199776 -0.000636575 0)
(0.00400173 -1.35835e-05 0)
(0.00365587 -0.000360623 0)
(0.00244651 -0.000468422 0)
(0.00381025 -9.52516e-05 0)
(0.00410491 -7.89571e-06 0)
(0.0037743 -0.000342757 0)
(0.00230594 -0.000335734 0)
)
;

boundaryField
{
    back
    {
        type            empty;
    }
    front
    {
        type            empty;
    }
    down
    {
        type            symmetry;
    }
    right
    {
        type            calculated;
    }
    up
    {
        type            calculated;
    }
    left
    {
        type            symmetry;
    }
    hole
    {
        type            calculated;
    }
}


// ************************************************************************* //
