/*--------------------------------*- C++ -*----------------------------------*\
| =========                 |                                                 |
| \\      /  F ield         | OpenFOAM: The Open Source CFD Toolbox           |
|  \\    /   O peration     | Version:  v2012                                 |
|   \\  /    A nd           | Website:  www.openfoam.com                      |
|    \\/     M anipulation  |                                                 |
\*---------------------------------------------------------------------------*/
FoamFile
{
    version     2.0;
    format      ascii;
    class       volScalarField;
    location    "8";
    object      sigmaEq;
}
// * * * * * * * * * * * * * * * * * * * * * * * * * * * * * * * * * * * * * //

dimensions      [1 -1 -2 0 0 0 0];


internalField   nonuniform List<scalar> 
470
(
5.38103e+07
4.42931e+07
1.10753e+08
7.00987e+07
9.78896e+07
1.00596e+08
8.99494e+07
9.58837e+07
1.51921e+08
1.06756e+08
1.47363e+08
1.73233e+08
1.70133e+08
6.93628e+07
1.75177e+08
1.31194e+08
1.07608e+08
6.80744e+07
5.82724e+07
5.04194e+07
1.35167e+08
8.41737e+07
1.093e+08
7.37974e+07
1.58363e+08
8.65055e+07
1.59721e+08
1.22129e+08
9.8846e+07
7.25388e+07
4.65994e+07
1.72595e+08
1.1199e+08
1.85459e+08
1.00738e+08
9.75021e+07
1.78803e+08
5.92243e+07
5.42358e+07
5.23622e+07
1.39124e+08
5.63751e+07
1.69703e+08
1.37268e+08
1.22349e+08
1.71257e+08
7.75496e+07
1.47084e+08
1.52639e+08
1.53771e+08
1.68593e+08
1.59615e+08
6.67681e+07
6.20947e+07
8.04564e+07
8.24597e+07
8.30361e+07
1.01564e+08
1.19229e+08
1.1667e+08
9.00518e+07
1.72028e+08
1.62757e+08
1.82823e+08
1.10965e+08
2.01427e+08
6.59537e+07
8.68539e+07
9.40627e+07
1.26682e+08
3.23782e+07
1.03881e+08
1.75998e+08
1.07841e+08
1.89174e+08
7.93826e+07
1.01093e+08
9.72983e+07
1.18355e+08
1.60033e+08
1.26686e+08
1.96823e+08
1.11362e+08
1.0477e+08
1.59807e+08
8.23931e+07
1.8311e+08
1.00829e+08
1.82859e+08
1.93999e+08
1.81488e+08
1.67786e+08
9.99909e+07
9.98548e+07
1.71818e+08
1.75401e+08
8.31047e+07
9.32717e+07
1.10536e+08
1.03718e+08
8.04844e+07
1.49405e+08
1.93851e+08
7.62233e+07
7.42318e+07
9.42412e+07
9.18161e+07
9.14828e+07
1.07357e+08
2.25034e+08
1.67899e+08
1.87489e+08
7.75865e+07
9.80863e+07
1.01499e+08
1.17243e+08
7.17544e+07
1.57276e+08
9.22254e+07
4.45386e+07
9.92543e+07
7.67566e+07
6.83775e+07
7.2851e+07
9.17149e+07
1.20943e+08
1.27519e+08
8.42886e+07
1.63141e+08
7.65386e+07
7.44948e+07
8.77834e+07
9.7174e+07
8.25986e+07
8.48626e+07
1.07116e+08
1.07522e+08
1.1348e+08
1.70481e+08
9.62028e+07
9.63575e+07
1.70918e+08
8.55782e+07
9.34143e+07
9.15675e+07
6.10077e+07
7.08923e+07
1.67985e+08
8.481e+07
1.75248e+08
6.02934e+07
7.19042e+07
1.25011e+08
7.90142e+07
2.13306e+08
1.3197e+08
7.61278e+07
8.44606e+07
8.34335e+07
1.04361e+08
1.77749e+08
1.62962e+08
1.24162e+08
1.71873e+08
1.50833e+08
1.35148e+08
1.2608e+08
1.70939e+08
1.11327e+08
1.40436e+08
1.32296e+08
9.3179e+07
9.42327e+07
9.79896e+07
9.55305e+07
8.93126e+07
6.21396e+07
2.83618e+07
1.73149e+08
1.25901e+08
1.19834e+08
1.69517e+08
1.04501e+08
1.21975e+08
1.25303e+08
1.54852e+08
9.84497e+07
3.34812e+07
1.32112e+08
7.35347e+07
9.5371e+07
7.75201e+07
1.16575e+08
1.13252e+08
5.93532e+07
6.78967e+07
1.13344e+08
1.04235e+08
1.05663e+08
2.43e+08
3.84136e+07
3.47002e+07
2.43e+08
1.35097e+08
1.22708e+08
1.28308e+08
5.33404e+07
6.21698e+07
1.21364e+08
1.0395e+08
8.26694e+07
1.12227e+08
1.07722e+08
7.1955e+07
1.51566e+08
1.49891e+08
8.64111e+07
7.7659e+07
7.71343e+07
1.48227e+08
5.88972e+07
7.27796e+07
1.01558e+08
7.50062e+07
1.52798e+08
1.04224e+08
1.4428e+08
6.69284e+07
1.54136e+08
1.7242e+08
1.44279e+08
6.50574e+07
6.83165e+07
9.51997e+07
1.20869e+08
9.81865e+07
5.05939e+07
9.01398e+07
9.12925e+07
7.2654e+07
7.60885e+07
7.34705e+07
9.30243e+07
1.7791e+08
2.0148e+08
1.6479e+08
1.24386e+08
8.79649e+07
5.47158e+07
9.95993e+07
9.85271e+07
1.17519e+08
6.97454e+07
9.3723e+07
1.32976e+08
5.46112e+07
6.62222e+07
7.07956e+07
9.3169e+07
3.56632e+07
1.12649e+08
2.00537e+08
2.92745e+07
6.55634e+07
6.73009e+07
7.21176e+07
9.43326e+07
6.50129e+07
6.73268e+07
1.27905e+08
1.09144e+08
8.55508e+07
1.73572e+08
1.26922e+08
1.36047e+08
1.53056e+08
1.69215e+08
1.16393e+08
1.56071e+08
8.88266e+07
1.0378e+08
1.37521e+08
8.75039e+07
1.29282e+08
7.35565e+07
7.25512e+07
1.27416e+08
1.51016e+08
8.1453e+07
6.80332e+07
1.36665e+08
1.07255e+08
6.2544e+07
1.58331e+08
1.39687e+08
8.23456e+07
7.92299e+07
1.02369e+08
1.45216e+08
6.83024e+07
8.88036e+07
5.22801e+07
8.72065e+07
8.64221e+07
1.78547e+08
1.14256e+08
9.36758e+07
9.03895e+07
9.61148e+07
8.74467e+07
1.73596e+08
1.75142e+08
2.4167e+08
8.96571e+07
9.89247e+07
1.70677e+08
1.3087e+08
5.04904e+07
1.62894e+08
7.52791e+07
1.43576e+08
7.43258e+07
8.37529e+07
7.75976e+07
1.44294e+08
6.39038e+07
1.12208e+08
1.07332e+08
1.03972e+08
8.06379e+07
8.39354e+07
7.73134e+07
1.26899e+08
1.26811e+08
8.99451e+07
1.07993e+08
4.71098e+07
7.87749e+07
1.58985e+08
9.6705e+07
6.78968e+07
2.2953e+08
1.52527e+08
4.07572e+07
8.95137e+07
1.38185e+08
1.54834e+08
8.5847e+07
6.81465e+07
9.48923e+07
4.89706e+07
9.96072e+07
1.34581e+08
1.33231e+08
1.41396e+08
5.63851e+07
1.31379e+08
1.01499e+08
6.98409e+07
3.39006e+07
6.95885e+07
7.57089e+07
8.82072e+07
1.13553e+08
1.83497e+08
9.54768e+07
7.01785e+07
1.54982e+08
5.36477e+07
9.58284e+07
7.24087e+07
1.04345e+08
1.2804e+08
7.47003e+07
8.93513e+07
3.99379e+07
5.83517e+07
9.24885e+07
2.15163e+08
8.71612e+07
1.18484e+08
2.03247e+08
1.06262e+08
7.83386e+07
8.36541e+07
2.43e+08
1.55637e+08
1.50571e+08
1.38366e+08
7.49667e+07
1.72195e+08
6.79779e+07
1.06116e+08
1.85985e+08
9.38553e+07
7.27718e+07
7.0064e+07
9.6098e+07
1.61594e+08
1.20834e+08
1.65525e+08
2.33188e+08
1.05843e+08
7.26107e+07
1.81644e+08
1.24877e+08
1.83807e+08
1.0304e+08
6.78333e+07
6.83142e+07
9.52465e+07
9.46142e+07
6.07726e+07
1.1592e+08
8.72548e+07
1.59132e+08
7.87023e+07
7.50951e+07
1.52663e+08
5.02079e+07
1.14219e+08
3.97369e+07
1.14748e+08
7.9023e+07
1.07778e+08
2.43e+08
1.72464e+08
1.43057e+08
1.61308e+08
1.10641e+08
1.64661e+08
1.61964e+08
1.35622e+08
1.34736e+08
7.59478e+07
5.60935e+07
7.11464e+07
9.70012e+07
9.05525e+07
1.39444e+08
1.63614e+08
1.62172e+08
7.30216e+07
1.67493e+08
1.41957e+08
1.64134e+08
1.47146e+08
9.90349e+07
3.74298e+07
9.07085e+07
1.15306e+08
1.46217e+08
1.46268e+08
8.9956e+07
8.68082e+07
8.68509e+07
1.4003e+08
1.50714e+08
8.26774e+07
7.93734e+07
1.08252e+08
1.03149e+08
6.422e+07
1.42896e+08
1.45355e+08
1.35437e+08
8.12922e+07
7.72152e+07
1.28099e+08
1.4314e+08
)
;

boundaryField
{
    back
    {
        type            empty;
    }
    front
    {
        type            empty;
    }
    down
    {
        type            symmetry;
    }
    right
    {
        type            calculated;
        value           nonuniform List<scalar> 10(7.94149e+07 7.2052e+07 9.14929e+07 8.42413e+07 7.04918e+07 9.31607e+07 7.56419e+07 8.80875e+07 6.86283e+07 9.4631e+07);
    }
    up
    {
        type            calculated;
        value           nonuniform List<scalar> 
20
(
1.74035e+08
1.23412e+08
1.69646e+08
9.88933e+07
9.84805e+07
1.63148e+08
1.22664e+08
1.72456e+08
1.09364e+08
1.7113e+08
1.03197e+08
1.44357e+08
1.59773e+08
1.52554e+08
1.32509e+08
1.38188e+08
1.0557e+08
9.65719e+07
9.53367e+07
1.16818e+08
)
;
    }
    left
    {
        type            symmetry;
    }
    hole
    {
        type            calculated;
        value           nonuniform List<scalar> 8(9.89477e+07 7.94424e+07 2.43e+08 1.03758e+08 5.76351e+07 2.31348e+08 1.76635e+08 4.06794e+07);
    }
}


// ************************************************************************* //
