/*--------------------------------*- C++ -*----------------------------------*\
| =========                 |                                                 |
| \\      /  F ield         | OpenFOAM: The Open Source CFD Toolbox           |
|  \\    /   O peration     | Version:  v2012                                 |
|   \\  /    A nd           | Website:  www.openfoam.com                      |
|    \\/     M anipulation  |                                                 |
\*---------------------------------------------------------------------------*/
FoamFile
{
    version     2.0;
    format      ascii;
    class       volScalarField;
    location    "8";
    object      sigmaHyd;
}
// * * * * * * * * * * * * * * * * * * * * * * * * * * * * * * * * * * * * * //

dimensions      [1 -1 -2 0 0 0 0];


internalField   nonuniform List<scalar> 
470
(
2.55885e+07
3.02458e+07
5.39377e+07
5.38122e+07
3.14997e+07
4.91088e+07
4.66035e+07
2.71891e+07
6.8012e+07
5.33639e+07
6.38959e+07
7.42746e+07
7.49874e+07
5.1287e+07
8.36172e+07
6.29006e+07
5.32142e+07
4.82543e+07
4.43283e+07
2.8973e+07
6.4679e+07
5.31106e+07
5.37207e+07
5.17795e+07
5.77125e+07
4.53018e+07
5.3036e+07
5.84141e+07
4.97529e+07
5.23569e+07
3.10198e+07
8.4645e+07
5.44806e+07
8.74735e+07
4.98291e+07
4.89654e+07
8.21607e+07
3.38098e+07
3.6388e+07
2.43212e+07
4.60251e+07
4.23913e+07
7.5144e+07
4.46252e+07
6.06921e+07
7.47844e+07
3.68624e+07
5.46589e+07
5.13724e+07
5.9831e+07
8.20057e+07
7.37037e+07
4.75203e+07
4.50243e+07
5.45095e+07
5.35255e+07
4.94537e+07
4.67344e+07
5.04649e+07
5.69222e+07
4.86038e+07
6.30751e+07
7.45344e+07
7.17823e+07
3.76717e+07
1.11581e+08
3.28895e+07
5.22058e+07
5.32756e+06
5.80236e+07
1.871e+07
5.17869e+07
7.95226e+07
4.67891e+07
8.29773e+07
5.4961e+07
5.19891e+07
5.11756e+07
4.77929e+07
1.10979e+08
4.74801e+07
1.05384e+08
5.50884e+07
1.16912e+06
6.45467e+07
5.35648e+07
7.51346e+07
5.20882e+07
8.08419e+07
7.18896e+07
7.97902e+07
7.91896e+07
4.77341e+07
5.08038e+07
7.91294e+07
8.33652e+07
3.81774e+07
4.92644e+07
3.59939e+07
5.15333e+07
5.28713e+07
5.86941e+07
8.72566e+07
5.61759e+07
5.67879e+07
4.91372e+07
4.98291e+07
3.61727e+07
-4.55034e+07
1.16652e+08
7.64441e+07
1.06976e+08
5.59115e+07
4.83628e+07
1.43662e+07
5.21321e+07
5.50172e+07
7.72047e+07
4.18286e+07
3.33365e+07
4.361e+07
5.38996e+07
4.98773e+07
5.93059e+07
4.82985e+07
5.4985e+07
5.43443e+07
5.28921e+07
7.89271e+07
5.30419e+07
2.83612e+07
3.20057e+07
4.58561e+07
5.20179e+07
5.23862e+07
5.22478e+07
5.01919e+07
3.88012e+07
7.6548e+07
4.75882e+07
4.79872e+07
5.84816e+07
5.22737e+07
5.08096e+07
5.11696e+07
3.23214e+07
5.83357e+07
6.68162e+07
5.05593e+07
7.10831e+07
4.41292e+07
5.7013e+07
2.23538e+07
5.56574e+07
1.06456e+08
6.11056e+07
-4.11751e+07
4.59318e+07
4.71072e+07
5.28116e+07
1.04138e+08
7.37959e+07
5.92319e+07
8.25911e+07
9.48281e+07
2.57408e+07
2.70256e+07
8.02959e+07
4.90044e+07
4.0221e+07
3.45143e+07
5.15383e+07
5.13837e+07
5.17715e+07
5.1517e+07
4.9301e+07
4.69309e+07
-9.48335e+06
5.46973e+07
3.39068e+07
3.82409e+07
7.56367e+07
5.05407e+07
5.74552e+07
5.95207e+07
7.15109e+07
5.11384e+07
-4.84574e+06
6.45339e+07
5.09819e+07
4.9739e+07
4.31831e+07
5.48062e+07
5.3981e+07
2.01995e+07
4.55684e+07
5.50978e+07
5.26559e+07
5.27542e+07
1.44835e+08
2.31087e+07
1.48303e+07
1.50487e+08
2.68444e+07
5.8724e+07
6.22471e+07
4.00149e+07
4.20094e+07
3.10537e+07
-5.39814e+07
5.31091e+07
5.50293e+07
-5.2436e+07
4.82456e+07
7.18248e+07
6.86262e+07
5.10456e+07
4.3099e+07
4.96583e+07
3.98887e+07
-3.44472e+07
2.88796e+07
5.12756e+07
4.96386e+07
4.6144e+07
5.06692e+07
6.04771e+07
-1.12045e+07
9.37466e+07
7.94226e+07
5.4613e+07
-1.05107e+07
6.02522e+07
4.71028e+07
5.99791e+07
4.86142e+07
1.0557e+07
4.98687e+07
4.92847e+07
5.80488e+07
5.6808e+07
5.8465e+07
4.81563e+07
1.27241e+08
1.26619e+08
8.78439e+07
7.67941e+07
5.14112e+07
4.0365e+07
5.19125e+07
5.15038e+07
5.69478e+07
6.0265e+07
4.72901e+07
6.24532e+07
3.74998e+07
4.24388e+07
5.94661e+07
4.78818e+07
2.62982e+07
5.24124e+07
9.40511e+07
8.69913e+06
-3.43868e+06
3.89211e+07
5.8911e+07
4.76451e+07
4.88995e+07
4.12666e+07
6.24306e+07
5.3338e+07
-4.31696e+06
8.38167e+07
1.72569e+07
6.58122e+07
4.91636e+07
6.23623e+07
5.65414e+07
6.86142e+07
5.19755e+07
5.13683e+07
6.11519e+07
4.30662e+07
5.72434e+07
5.42696e+07
5.57025e+07
6.40892e+07
6.92701e+07
5.05916e+07
1.33947e+07
2.52955e+07
4.84692e+06
1.50262e+07
7.54892e+07
6.39733e+07
4.91767e+07
5.15652e+07
5.04024e+07
6.24712e+07
5.15021e+07
5.18461e+07
2.06233e+07
5.09e+07
5.12345e+07
8.65438e+07
3.84003e+07
5.11894e+07
5.16766e+07
1.37513e+07
1.85713e+07
6.68733e+07
5.6446e+07
1.22387e+08
5.01082e+07
8.18313e+06
7.08841e+07
1.8071e+07
-1.49896e+06
7.54419e+07
4.47471e+07
6.98909e+07
4.52576e+07
4.8637e+07
5.19341e+07
6.89938e+07
4.74165e+07
5.49667e+07
2.74855e+07
2.52238e+07
-1.50082e+07
4.18082e+07
-2.10778e+07
4.63797e+07
4.98292e+07
-283337
4.40652e+07
3.62547e+07
4.87613e+07
7.71915e+07
5.05904e+07
4.56293e+07
1.40551e+08
7.44378e+07
-2.05145e+07
5.1272e+07
6.79825e+07
7.47404e+07
5.00363e+07
6.06756e+07
4.67861e+07
3.8162e+07
3.88971e+07
6.36509e+07
6.47491e+07
6.79891e+07
-1.97402e+07
6.35963e+07
5.00625e+07
5.98388e+07
3.98763e+06
5.96071e+07
5.71843e+07
5.01764e+07
5.46815e+07
8.90703e+07
4.68111e+07
4.44536e+07
7.17129e+07
-612748
4.69949e+07
3.92372e+07
4.22424e+07
6.33918e+07
5.5482e+07
-2.86875e+07
-1.81646e+07
-2.99507e+07
5.05855e+07
1.32512e+08
-1.84292e+07
4.2844e+07
9.52532e+07
5.2325e+07
5.47285e+07
5.16086e+07
1.35302e+08
7.18908e+07
7.17959e+07
6.60196e+07
4.74645e+07
6.40674e+07
5.00751e+07
5.19165e+07
9.09174e+07
5.07403e+07
4.70676e+07
5.83784e+07
4.71833e+07
7.8105e+07
5.80856e+07
7.63539e+07
1.45246e+08
5.32916e+07
6.22198e+06
6.95557e+07
7.23905e+07
6.44304e+07
5.18464e+07
6.11062e+07
6.13472e+07
4.64884e+07
4.64976e+07
4.60284e+07
5.67726e+07
5.25807e+07
7.09342e+07
5.41543e+07
6.6745e+06
7.22815e+07
1.17071e+07
4.21436e+07
1.59591e+07
5.58942e+07
5.37523e+07
5.4207e+07
1.37776e+08
8.39201e+07
3.37504e+07
6.58127e+07
5.73859e+07
7.06513e+07
4.77397e+07
5.6165e+07
5.87758e+07
-3.21596e+07
-3.9431e+07
5.67236e+07
4.77567e+07
5.11345e+07
5.18738e+07
4.34233e+07
7.77694e+07
5.31842e+07
4.40143e+07
6.74461e+07
4.74187e+07
3.52694e+07
5.06483e+07
6.01872e+06
5.14292e+07
5.64484e+07
7.16702e+07
6.91674e+07
5.1557e+07
5.1804e+07
1.8588e+07
5.46294e+07
7.16676e+07
2.34742e+07
2.4014e+07
5.20634e+07
3.8695e+07
2.03825e+07
6.93392e+07
6.59686e+07
6.63112e+07
4.74438e+07
4.66936e+07
5.28039e+07
5.78785e+07
)
;

boundaryField
{
    back
    {
        type            empty;
    }
    front
    {
        type            empty;
    }
    down
    {
        type            symmetry;
    }
    right
    {
        type            zeroGradient;
    }
    up
    {
        type            zeroGradient;
    }
    left
    {
        type            symmetry;
    }
    hole
    {
        type            zeroGradient;
    }
}


// ************************************************************************* //
