/*--------------------------------*- C++ -*----------------------------------*\
| =========                 |                                                 |
| \\      /  F ield         | OpenFOAM: The Open Source CFD Toolbox           |
|  \\    /   O peration     | Version:  v2012                                 |
|   \\  /    A nd           | Website:  www.openfoam.com                      |
|    \\/     M anipulation  |                                                 |
\*---------------------------------------------------------------------------*/
FoamFile
{
    version     2.0;
    format      ascii;
    class       volScalarField;
    location    "3";
    object      epsilonEq;
}
// * * * * * * * * * * * * * * * * * * * * * * * * * * * * * * * * * * * * * //

dimensions      [0 0 0 0 0 0 0];


internalField   nonuniform List<scalar> 
500
(
0.00165217
0.00153148
0.00119812
0.00120517
0.000929701
0.000983052
0.000774991
0.00084774
0.000681968
0.000756311
0.00160194
0.00137536
0.00117879
0.00111632
0.000945151
0.000970863
0.000824281
0.000895469
0.000752456
0.000841005
0.00135573
0.00113575
0.00104869
0.000979333
0.00091955
0.00092461
0.000871167
0.000908778
0.00084256
0.000888689
0.00102637
0.000831515
0.000862958
0.00080941
0.000851581
0.00084405
0.000870752
0.000874143
0.000880717
0.000878188
0.000654563
0.00053021
0.000653082
0.000633061
0.000745187
0.000729333
0.00081496
0.000791516
0.000861658
0.000820471
0.000295699
0.000311413
0.000456156
0.00049439
0.000605236
0.000613879
0.000680555
0.00070311
0.000706637
0.000747601
5.04595e-05
0.000286697
0.000331854
0.000410679
0.000488657
0.00049377
0.000562466
0.000549099
0.00058397
0.000599932
0.000273665
0.00039126
0.00028694
0.000374419
0.000364594
0.000382399
0.00040848
0.000403193
0.000421723
0.000432533
0.000441066
0.000476326
0.000309757
0.000368303
0.000274064
0.000307095
0.000273418
0.000289266
0.000273253
0.000284259
0.000525998
0.000513984
0.000351125
0.000370677
0.000244117
0.000270565
0.000192639
0.000210096
0.000157743
0.00015833
6.60989e-05
0.000151612
0.0002176
0.000287577
0.0003902
0.000439887
0.00056513
0.000584092
0.000707188
0.000713267
9.6515e-05
0.000177016
0.00019603
0.000293808
0.000334183
0.000422014
0.00047273
0.00054163
0.000593211
0.000638756
0.000148036
0.000211589
0.000215386
0.00030434
0.000320568
0.000408032
0.000426928
0.000502914
0.000523658
0.000578457
0.000186737
0.000239715
0.000238173
0.000312443
0.000324689
0.000395443
0.000414073
0.000471379
0.000493227
0.000532738
0.000221044
0.000264817
0.00026131
0.000320531
0.000332626
0.000386491
0.000406011
0.000447833
0.000469462
0.00049784
0.000255709
0.00029046
0.000284627
0.000331333
0.000340047
0.000382278
0.000398432
0.000430993
0.000449793
0.00047136
0.000287054
0.000313769
0.000305198
0.000342535
0.000346058
0.000380397
0.000391319
0.000417541
0.000432387
0.000448894
0.000309045
0.000328497
0.000318278
0.000348855
0.000347564
0.000376341
0.00038183
0.000403499
0.000413878
0.000426672
0.000316999
0.000327954
0.000320041
0.000344278
0.000341047
0.000364998
0.000367123
0.000385882
0.000392681
0.000404294
0.000313401
0.000315756
0.000315868
0.000327538
0.000331441
0.000345755
0.000352602
0.000366863
0.000375642
0.000386584
0.000784511
0.000725532
0.000775929
0.000727906
0.000770928
0.000728955
0.000767031
0.000728109
0.000763356
0.000725798
0.000760451
0.000725431
0.000759359
0.000730048
0.000763079
0.000743501
0.000778981
0.000765342
0.000800206
0.000799115
0.000675929
0.000660099
0.000686911
0.000665947
0.000695631
0.000671571
0.000703858
0.000679048
0.000709608
0.000683686
0.000717565
0.000694592
0.000732066
0.000708791
0.000751045
0.00072777
0.000774889
0.000752368
0.000799152
0.000784055
0.000590698
0.000600058
0.000607501
0.000611543
0.000624893
0.000622664
0.00064312
0.000634474
0.000662323
0.000646743
0.000680385
0.000660618
0.000699971
0.000676753
0.000721693
0.000695225
0.000744718
0.000714316
0.000764346
0.00073682
0.000545674
0.000553998
0.000560912
0.000566824
0.000577053
0.000579711
0.000594858
0.000592914
0.000613767
0.000606485
0.00063325
0.000620353
0.000653516
0.000635685
0.000673848
0.000650318
0.000692948
0.000662234
0.000707473
0.000674613
0.000511856
0.000518179
0.000525944
0.000530554
0.000540228
0.000542902
0.000555656
0.000555408
0.000571482
0.000567528
0.000586594
0.000576432
0.000605503
0.000592622
0.000623303
0.00060047
0.000634299
0.000605727
0.000641582
0.000610265
0.000484695
0.000489424
0.000497282
0.000499538
0.000509358
0.000509157
0.000521938
0.00051893
0.00053468
0.000530088
0.000549775
0.000540764
0.00055941
0.000547727
0.000569026
0.000552157
0.000575575
0.000553214
0.000578311
0.000552012
0.000460657
0.000463767
0.000471432
0.000471977
0.000481476
0.0004795
0.000492487
0.000489213
0.00050261
0.000496619
0.000510923
0.00050326
0.000518068
0.000507832
0.000523053
0.000509577
0.000525038
0.000507674
0.000523754
0.000502653
0.000435822
0.000437966
0.000444653
0.000444961
0.000452539
0.000451728
0.000460767
0.00045901
0.000469115
0.000465231
0.000475897
0.000470165
0.000480989
0.000473446
0.000483871
0.000474343
0.000483751
0.000472029
0.00048074
0.000465698
0.000411806
0.000414717
0.000421459
0.000422093
0.000429838
0.000428548
0.000437078
0.000434272
0.000443472
0.000439468
0.000448877
0.000444
0.000452955
0.000447473
0.000455198
0.000449265
0.000455139
0.000448696
0.000452527
0.000443358
0.000394383
0.000398139
0.000405893
0.000407977
0.000415554
0.000416732
0.00042368
0.000424561
0.000430547
0.000431367
0.000436116
0.000436937
0.000440158
0.00044104
0.000442349
0.000443458
0.000442451
0.000444058
0.000440963
0.000442835
0.000642587
0.000683043
0.000617918
0.000659888
0.000596666
0.000636609
0.000574448
0.000610948
0.000549391
0.000582049
0.000520633
0.000549631
0.000488069
0.000514045
0.00045284
0.000476728
0.000417405
0.000440851
0.000387176
0.000392602
0.000728241
0.000780548
0.000692193
0.000761552
0.000660102
0.000738759
0.000628724
0.000711562
0.000596401
0.00067998
0.00056219
0.000644276
0.000526149
0.000605221
0.000489486
0.000564583
0.000454142
0.00052678
0.000425382
0.000487001
0.000828731
0.000853054
0.000798775
0.000835612
0.000768212
0.000813412
0.000736885
0.000787394
0.000703594
0.000757615
0.000667766
0.000724384
0.000629823
0.000688843
0.000591354
0.000653833
0.000556138
0.000626313
0.000532345
0.000610316
0.000877119
0.000869681
0.000861897
0.000858885
0.000839341
0.000845407
0.000812976
0.000826583
0.000784216
0.000802161
0.000753576
0.000773714
0.000721868
0.000744336
0.000691272
0.000719393
0.0006671
0.000708051
0.000655834
0.000717515
0.000873838
0.000850213
0.000859308
0.000843264
0.000848788
0.000825708
0.000836036
0.000806425
0.000819779
0.000787095
0.000800265
0.000768219
0.000779311
0.000751759
0.00076067
0.000742651
0.000749972
0.000748594
0.000751733
0.000780207
)
;

boundaryField
{
    back
    {
        type            empty;
    }
    front
    {
        type            empty;
    }
    left
    {
        type            symmetry;
    }
    hole
    {
        type            calculated;
        value           nonuniform List<scalar> 10(0.00169151 0.0016212 0.001381 0.00105022 0.000676949 0.000312802 8.05601e-06 0.000263327 0.000437979 0.000523636);
    }
    down
    {
        type            symmetry;
    }
    right
    {
        type            calculated;
        value           nonuniform List<scalar> 
15
(
0.000319253
0.000330212
0.000345567
0.000364805
0.000385833
0.000396696
0.000404262
0.000411943
0.000419177
0.000425559
0.000430896
0.000435119
0.000438251
0.000440293
0.000440589
)
;
    }
    up
    {
        type            calculated;
        value           nonuniform List<scalar> 
15
(
0.000805935
0.000788576
0.000741106
0.000677192
0.000611935
0.000552311
0.000502413
0.000465158
0.00044375
0.000443009
0.000394965
0.000475009
0.000601909
0.000712703
0.000779692
)
;
    }
}


// ************************************************************************* //
