/*--------------------------------*- C++ -*----------------------------------*\
| =========                 |                                                 |
| \\      /  F ield         | OpenFOAM: The Open Source CFD Toolbox           |
|  \\    /   O peration     | Version:  v2012                                 |
|   \\  /    A nd           | Website:  www.openfoam.com                      |
|    \\/     M anipulation  |                                                 |
\*---------------------------------------------------------------------------*/
FoamFile
{
    version     2.0;
    format      ascii;
    class       pointVectorField;
    location    "3";
    object      pointD;
}
// * * * * * * * * * * * * * * * * * * * * * * * * * * * * * * * * * * * * * //

dimensions      [0 1 0 0 0 0 0];


internalField   nonuniform List<vector> 
572
(
(0.00114769 0 -2.79444e-22)
(0.001539 0 2.27959e-21)
(0.00141548 -0.000132588 -1.93749e-21)
(0 -0.000809108 6.32864e-23)
(0 -0.000698465 9.69016e-23)
(0.00117692 0 0)
(0 -0.000771419 0)
(0.000709943 -0.000232894 0)
(0.000343191 -0.000436754 -4.3587e-22)
(0.00149655 -2.95185e-05 -7.43504e-21)
(0.000844247 -0.000400157 -9.23085e-22)
(0.000844247 -0.000400157 -9.23085e-22)
(0.000709943 -0.000232894 0)
(0 -0.000771419 0)
(0 -0.000698465 9.69016e-23)
(0.00114769 0 -2.79444e-22)
(0.00117692 0 0)
(0.001539 0 2.27959e-21)
(0.00149655 -2.95185e-05 -7.43504e-21)
(0.00141548 -0.000132588 -1.93749e-21)
(0.000343191 -0.000436754 -4.3587e-22)
(0 -0.000809108 6.32864e-23)
(0.000105005 -0.000734977 0)
(0.000226517 -0.000640464 0)
(0.000366995 -0.00051112 0)
(0.000524846 -0.000372954 0)
(0.000892072 -0.000119446 0)
(0.00102012 -5.7288e-05 0)
(0.00111105 -2.38494e-05 0)
(0.00116271 -7.63536e-06 0)
(0.00115856 0 0)
(0.00116699 0 0)
(0.00117215 0 0)
(0.00117504 0 0)
(0.00118409 0 0)
(0.00119918 0 0)
(0.00122208 0 0)
(0.00125282 0 0)
(0.00129044 0 0)
(0.00133419 0 0)
(0.00138331 0 0)
(0.00143656 0 0)
(0.00149193 0 0)
(0.0015544 -1.88171e-06 2.74864e-21)
(0.0015466 -3.14108e-06 5.70902e-22)
(0.00153233 -7.95624e-06 3.81771e-21)
(0.00151382 -1.77825e-05 1.08881e-21)
(0.00148635 -3.7929e-05 -8.78393e-21)
(0.0014771 -4.69495e-05 -4.31715e-21)
(0.00146821 -5.68301e-05 -4.5611e-21)
(0.00145988 -6.73753e-05 -4.47572e-21)
(0.0014522 -7.84091e-05 1.5768e-21)
(0.00144524 -8.97605e-05 -6.06094e-21)
(0.00143899 -0.000101249 -1.05718e-20)
(0.00143339 -0.000112684 -7.5802e-21)
(0.00142832 -0.000123858 -6.11169e-21)
(0.00136141 -0.00014466 -1.51697e-22)
(0.00128535 -0.000156805 -6.81857e-23)
(0.00120458 -0.000165366 1.42544e-22)
(0.00111579 -0.000171577 -7.48936e-24)
(0.00101631 -0.000179294 -9.84714e-23)
(0.000904162 -0.000193779 -6.49393e-23)
(0.000777996 -0.000221061 -2.22074e-22)
(0.000639056 -0.000267858 -2.74037e-22)
(0.000491732 -0.000338447 -1.16903e-22)
(0.000235134 -0.000532118 -7.70363e-22)
(0.000149184 -0.000630335 4.77056e-22)
(8.50056e-05 -0.000721034 8.50766e-22)
(4.09662e-05 -0.000783074 7.63934e-23)
(0 -0.000810477 0)
(0 -0.000805855 0)
(0 -0.000801172 0)
(0 -0.000796538 0)
(0 -0.000792001 0)
(0 -0.000787617 0)
(0 -0.000783469 0)
(0 -0.00077964 0)
(0 -0.00077617 0)
(0 -0.000762998 0)
(0 -0.000751741 0)
(0 -0.000736866 0)
(0 -0.000716482 0)
(0.00081437 -0.00015066 0)
(0.000900263 -9.96936e-05 0)
(0.00097868 -7.05932e-05 0)
(0.00105532 -5.77096e-05 0)
(0.00113057 -5.4776e-05 0)
(0.00120514 -5.66406e-05 0)
(0.00127941 -5.89724e-05 0)
(0.00135318 -5.79257e-05 0)
(0.00142602 -4.90903e-05 0)
(0.000635684 -0.000273062 0)
(0.000592881 -0.000296518 0)
(0.000554431 -0.000318791 0)
(0.000519174 -0.000340123 0)
(0.000486129 -0.000360542 0)
(0.000454416 -0.00038004 0)
(0.000423138 -0.000398708 0)
(0.00039138 -0.000416336 0)
(0.000358539 -0.000433708 0)
(0.000166399 -0.000671597 -2.40992e-21)
(0.000362044 -0.000622925 3.31613e-21)
(0.000542338 -0.000558081 2.91721e-21)
(0.000704895 -0.000481943 -5.79007e-21)
(0.000958403 -0.000317276 1.0385e-21)
(0.0010456 -0.000235529 -9.16118e-22)
(0.00110431 -0.00015636 -1.25795e-21)
(0.00113393 -8.11008e-05 -1.55651e-21)
(0.000803525 -0.000335553 0)
(0.000757739 -0.000300426 0)
(0.000727098 -0.000274799 0)
(0.000707348 -0.000256309 0)
(0.000803525 -0.000335553 0)
(0.000757739 -0.000300426 0)
(0.000727098 -0.000274799 0)
(0.000707348 -0.000256309 0)
(0.000524846 -0.000372954 0)
(0.000366995 -0.00051112 0)
(0.000226517 -0.000640464 0)
(0.000105005 -0.000734977 0)
(0 -0.000762998 0)
(0 -0.000751741 0)
(0 -0.000736866 0)
(0 -0.000716482 0)
(0.000166399 -0.000671597 -2.40992e-21)
(0.000362044 -0.000622925 3.31613e-21)
(0.000542338 -0.000558081 2.91721e-21)
(0.000704895 -0.000481943 -5.79007e-21)
(0.000958403 -0.000317276 1.0385e-21)
(0.0010456 -0.000235529 -9.16118e-22)
(0.00110431 -0.00015636 -1.25795e-21)
(0.00113393 -8.11008e-05 -1.55651e-21)
(0.00115856 0 0)
(0.00116699 0 0)
(0.00117215 0 0)
(0.00117504 0 0)
(0.00116271 -7.63536e-06 0)
(0.00111105 -2.38494e-05 0)
(0.00102012 -5.7288e-05 0)
(0.000892072 -0.000119446 0)
(0.00118409 0 0)
(0.00119918 0 0)
(0.00122208 0 0)
(0.00125282 0 0)
(0.00129044 0 0)
(0.00133419 0 0)
(0.00138331 0 0)
(0.00143656 0 0)
(0.00149193 0 0)
(0.0015544 -1.88171e-06 2.74864e-21)
(0.0015466 -3.14108e-06 5.70902e-22)
(0.00153233 -7.95624e-06 3.81771e-21)
(0.00151382 -1.77825e-05 1.08881e-21)
(0.00142602 -4.90903e-05 0)
(0.00135318 -5.79257e-05 0)
(0.00127941 -5.89724e-05 0)
(0.00120514 -5.66406e-05 0)
(0.00113057 -5.4776e-05 0)
(0.00105532 -5.77096e-05 0)
(0.00097868 -7.05932e-05 0)
(0.000900263 -9.96936e-05 0)
(0.00081437 -0.00015066 0)
(0.00148635 -3.7929e-05 -8.78393e-21)
(0.0014771 -4.69495e-05 -4.31715e-21)
(0.00146821 -5.68301e-05 -4.5611e-21)
(0.00145988 -6.73753e-05 -4.47572e-21)
(0.0014522 -7.84091e-05 1.5768e-21)
(0.00144524 -8.97605e-05 -6.06094e-21)
(0.00143899 -0.000101249 -1.05718e-20)
(0.00143339 -0.000112684 -7.5802e-21)
(0.00142832 -0.000123858 -6.11169e-21)
(0.00136141 -0.00014466 -1.51697e-22)
(0.00128535 -0.000156805 -6.81857e-23)
(0.00120458 -0.000165366 1.42544e-22)
(0.00111579 -0.000171577 -7.48936e-24)
(0.00101631 -0.000179294 -9.84714e-23)
(0.000904162 -0.000193779 -6.49393e-23)
(0.000777996 -0.000221061 -2.22074e-22)
(0.000639056 -0.000267858 -2.74037e-22)
(0.000491732 -0.000338447 -1.16903e-22)
(0.000358539 -0.000433708 0)
(0.00039138 -0.000416336 0)
(0.000423138 -0.000398708 0)
(0.000454416 -0.00038004 0)
(0.000486129 -0.000360542 0)
(0.000519174 -0.000340123 0)
(0.000554431 -0.000318791 0)
(0.000592881 -0.000296518 0)
(0.000635684 -0.000273062 0)
(0.000235134 -0.000532118 -7.70363e-22)
(0.000149184 -0.000630335 4.77056e-22)
(8.50056e-05 -0.000721034 8.50766e-22)
(4.09662e-05 -0.000783074 7.63934e-23)
(0 -0.000810477 0)
(0 -0.000805855 0)
(0 -0.000801172 0)
(0 -0.000796538 0)
(0 -0.000792001 0)
(0 -0.000787617 0)
(0 -0.000783469 0)
(0 -0.00077964 0)
(0 -0.00077617 0)
(0.000157714 -0.000689689 0)
(0.000134506 -0.00070749 0)
(0.000120455 -0.000719425 0)
(0.000111265 -0.000728184 0)
(0.000325496 -0.000620573 0)
(0.000283254 -0.000628437 0)
(0.000256613 -0.00063346 0)
(0.000239006 -0.000636841 0)
(0.000492899 -0.00053115 0)
(0.000440713 -0.000523332 0)
(0.000406765 -0.000517328 0)
(0.000383965 -0.000512393 0)
(0.00065459 -0.00043221 0)
(0.000601619 -0.000408788 0)
(0.000566624 -0.000391524 0)
(0.000543288 -0.00037818 0)
(0.000933025 -0.000247982 0)
(0.000899741 -0.000207754 0)
(0.000876874 -0.000178376 0)
(0.000861339 -0.000157421 0)
(0.00103647 -0.000172156 0)
(0.0010177 -0.000134303 0)
(0.0010045 -0.00010609 0)
(0.000994887 -8.4938e-05 0)
(0.00110793 -0.000107927 0)
(0.00110181 -7.93481e-05 0)
(0.00109705 -5.76733e-05 0)
(0.00109321 -4.12464e-05 0)
(0.00114486 -5.33995e-05 0)
(0.00114864 -3.85263e-05 0)
(0.00115079 -2.65177e-05 0)
(0.00115205 -1.69041e-05 0)
(0.0011707 -8.45657e-06 0)
(0.00112477 -2.13637e-05 0)
(0.00104617 -4.58477e-05 0)
(0.000936462 -8.88766e-05 0)
(0.00118878 -8.08338e-06 0)
(0.0011502 -1.84679e-05 0)
(0.00108507 -3.54606e-05 0)
(0.000996276 -6.23286e-05 0)
(0.00121533 -6.80454e-06 0)
(0.00118259 -1.46089e-05 0)
(0.00112804 -2.66828e-05 0)
(0.00105564 -4.51859e-05 0)
(0.00124921 -6.26562e-06 0)
(0.00122183 -1.30938e-05 0)
(0.0011767 -2.33218e-05 0)
(0.00111765 -3.83377e-05 0)
(0.00128941 -6.88055e-06 0)
(0.00126678 -1.42867e-05 0)
(0.00122964 -2.45056e-05 0)
(0.00118131 -3.83312e-05 0)
(0.00133533 -7.96335e-06 0)
(0.00131667 -1.65215e-05 0)
(0.00128611 -2.74223e-05 0)
(0.00124652 -4.12078e-05 0)
(0.00138624 -8.59131e-06 0)
(0.0013709 -1.80286e-05 0)
(0.00134574 -2.96063e-05 0)
(0.00131325 -4.3718e-05 0)
(0.00144099 -8.02346e-06 0)
(0.00142858 -1.73615e-05 0)
(0.00140787 -2.88848e-05 0)
(0.00138105 -4.29e-05 0)
(0.00149793 -5.64054e-06 0)
(0.00148848 -1.27223e-05 0)
(0.00147152 -2.22186e-05 0)
(0.00144918 -3.47916e-05 0)
(0.00075806 -0.000180472 0)
(0.000718292 -0.00020155 0)
(0.000681493 -0.00022188 0)
(0.000647095 -0.000241484 0)
(0.000614551 -0.000260513 0)
(0.000583714 -0.000278945 0)
(0.000553893 -0.000297073 0)
(0.000524904 -0.00031473 0)
(0.000496773 -0.000332984 0)
(0.000856108 -0.000120047 0)
(0.000823573 -0.000136838 0)
(0.000792388 -0.000153929 0)
(0.000762497 -0.000171241 0)
(0.000734208 -0.000188574 0)
(0.000707642 -0.000205804 0)
(0.000682557 -0.000223116 0)
(0.000659082 -0.000240682 0)
(0.000637407 -0.000258625 0)
(0.000944132 -8.65534e-05 0)
(0.000918243 -0.000100414 0)
(0.0008931 -0.000114786 0)
(0.000868913 -0.000129579 0)
(0.000845906 -0.000144758 0)
(0.000824344 -0.000160317 0)
(0.000804495 -0.000176261 0)
(0.000786616 -0.000192634 0)
(0.000771041 -0.000209401 0)
(0.0010278 -7.11075e-05 0)
(0.00100701 -8.30688e-05 0)
(0.000986807 -9.55916e-05 0)
(0.00096744 -0.000108636 0)
(0.0009492 -0.000122181 0)
(0.000932431 -0.000136238 0)
(0.000917543 -0.000150785 0)
(0.000904442 -0.000165779 0)
(0.000893821 -0.000181111 0)
(0.00110852 -6.66636e-05 0)
(0.00109177 -7.73674e-05 0)
(0.0010756 -8.86125e-05 0)
(0.00106025 -0.000100395 0)
(0.00104569 -0.000112784 0)
(0.00103259 -0.000125662 0)
(0.00102123 -0.000138966 0)
(0.0010116 -0.000152683 0)
(0.0010044 -0.000166644 0)
(0.0011873 -6.7726e-05 0)
(0.00117358 -7.76242e-05 0)
(0.00116045 -8.80112e-05 0)
(0.001148 -9.87941e-05 0)
(0.00113608 -0.000110272 0)
(0.00112544 -0.000122158 0)
(0.00111635 -0.000134469 0)
(0.00110906 -0.000147053 0)
(0.00110382 -0.000159761 0)
(0.00126463 -6.9473e-05 0)
(0.00125296 -7.87484e-05 0)
(0.00124182 -8.82914e-05 0)
(0.00123115 -9.83392e-05 0)
(0.00122118 -0.000109055 0)
(0.00121227 -0.000120154 0)
(0.0012046 -0.000131568 0)
(0.00119834 -0.000143195 0)
(0.00119368 -0.000154894 0)
(0.00134046 -6.77787e-05 0)
(0.00133001 -7.64348e-05 0)
(0.00132 -8.55579e-05 0)
(0.00131055 -9.51243e-05 0)
(0.00130177 -0.00010509 0)
(0.00129381 -0.000115423 0)
(0.00128679 -0.000126065 0)
(0.00128081 -0.000136918 0)
(0.00127594 -0.000147857 0)
(0.00141468 -5.84475e-05 0)
(0.00140484 -6.69442e-05 0)
(0.00139538 -7.5904e-05 0)
(0.00138646 -8.52898e-05 0)
(0.00137823 -9.50567e-05 0)
(0.00137075 -0.000105152 0)
(0.00136408 -0.000115505 0)
(0.0013582 -0.000126029 0)
(0.00135306 -0.000136576 0)
(9.91064e-05 -0.000740389 0)
(9.26004e-05 -0.000745867 0)
(8.62212e-05 -0.000751489 0)
(7.98094e-05 -0.000757281 0)
(7.32143e-05 -0.000763208 0)
(6.6269e-05 -0.000769207 0)
(5.87786e-05 -0.000775201 0)
(5.05261e-05 -0.000781085 0)
(4.13112e-05 -0.000786698 0)
(0.000212328 -0.000649424 0)
(0.000198167 -0.000659788 0)
(0.000184769 -0.000669796 0)
(0.000171672 -0.000679566 0)
(0.000158431 -0.000689165 0)
(0.000144596 -0.000698622 0)
(0.000129695 -0.000707947 0)
(0.000113226 -0.000717132 0)
(9.46377e-05 -0.000726201 0)
(0.000343099 -0.000524548 0)
(0.000319726 -0.00054088 0)
(0.000298232 -0.00055601 0)
(0.000277857 -0.000570183 0)
(0.000257835 -0.000583653 0)
(0.000237399 -0.000596632 0)
(0.000215772 -0.000609281 0)
(0.000192148 -0.000621742 0)
(0.000165692 -0.000634225 0)
(0.000490383 -0.0003902 0)
(0.000456472 -0.000410656 0)
(0.000425802 -0.000430314 0)
(0.000397295 -0.00044906 0)
(0.00037005 -0.000466919 0)
(0.000343187 -0.000483958 0)
(0.000315774 -0.000500289 0)
(0.000286815 -0.000516146 0)
(0.00025523 -0.000531895 0)
(0.000157714 -0.000689689 0)
(0.000134506 -0.00070749 0)
(0.000120455 -0.000719425 0)
(0.000111265 -0.000728184 0)
(0.000325496 -0.000620573 0)
(0.000283254 -0.000628437 0)
(0.000256613 -0.00063346 0)
(0.000239006 -0.000636841 0)
(0.000492899 -0.00053115 0)
(0.000440713 -0.000523332 0)
(0.000406765 -0.000517328 0)
(0.000383965 -0.000512393 0)
(0.00065459 -0.00043221 0)
(0.000601619 -0.000408788 0)
(0.000566624 -0.000391524 0)
(0.000543288 -0.00037818 0)
(0.000933025 -0.000247982 0)
(0.000899741 -0.000207754 0)
(0.000876874 -0.000178376 0)
(0.000861339 -0.000157421 0)
(0.00103647 -0.000172156 0)
(0.0010177 -0.000134303 0)
(0.0010045 -0.00010609 0)
(0.000994887 -8.4938e-05 0)
(0.00110793 -0.000107927 0)
(0.00110181 -7.93481e-05 0)
(0.00109705 -5.76733e-05 0)
(0.00109321 -4.12464e-05 0)
(0.00114486 -5.33995e-05 0)
(0.00114864 -3.85263e-05 0)
(0.00115079 -2.65177e-05 0)
(0.00115205 -1.69041e-05 0)
(0.0011707 -8.45657e-06 0)
(0.00112477 -2.13637e-05 0)
(0.00104617 -4.58477e-05 0)
(0.000936462 -8.88766e-05 0)
(0.00118878 -8.08338e-06 0)
(0.0011502 -1.84679e-05 0)
(0.00108507 -3.54606e-05 0)
(0.000996276 -6.23286e-05 0)
(0.00121533 -6.80454e-06 0)
(0.00118259 -1.46089e-05 0)
(0.00112804 -2.66828e-05 0)
(0.00105564 -4.51859e-05 0)
(0.00124921 -6.26562e-06 0)
(0.00122183 -1.30938e-05 0)
(0.0011767 -2.33218e-05 0)
(0.00111765 -3.83377e-05 0)
(0.00128941 -6.88055e-06 0)
(0.00126678 -1.42867e-05 0)
(0.00122964 -2.45056e-05 0)
(0.00118131 -3.83312e-05 0)
(0.00133533 -7.96335e-06 0)
(0.00131667 -1.65215e-05 0)
(0.00128611 -2.74223e-05 0)
(0.00124652 -4.12078e-05 0)
(0.00138624 -8.59131e-06 0)
(0.0013709 -1.80286e-05 0)
(0.00134574 -2.96063e-05 0)
(0.00131325 -4.3718e-05 0)
(0.00144099 -8.02346e-06 0)
(0.00142858 -1.73615e-05 0)
(0.00140787 -2.88848e-05 0)
(0.00138105 -4.29e-05 0)
(0.00149793 -5.64054e-06 0)
(0.00148848 -1.27223e-05 0)
(0.00147152 -2.22186e-05 0)
(0.00144918 -3.47916e-05 0)
(0.00075806 -0.000180472 0)
(0.000718292 -0.00020155 0)
(0.000681493 -0.00022188 0)
(0.000647095 -0.000241484 0)
(0.000614551 -0.000260513 0)
(0.000583714 -0.000278945 0)
(0.000553893 -0.000297073 0)
(0.000524904 -0.00031473 0)
(0.000496773 -0.000332984 0)
(0.000856108 -0.000120047 0)
(0.000823573 -0.000136838 0)
(0.000792388 -0.000153929 0)
(0.000762497 -0.000171241 0)
(0.000734208 -0.000188574 0)
(0.000707642 -0.000205804 0)
(0.000682557 -0.000223116 0)
(0.000659082 -0.000240682 0)
(0.000637407 -0.000258625 0)
(0.000944132 -8.65534e-05 0)
(0.000918243 -0.000100414 0)
(0.0008931 -0.000114786 0)
(0.000868913 -0.000129579 0)
(0.000845906 -0.000144758 0)
(0.000824344 -0.000160317 0)
(0.000804495 -0.000176261 0)
(0.000786616 -0.000192634 0)
(0.000771041 -0.000209401 0)
(0.0010278 -7.11075e-05 0)
(0.00100701 -8.30688e-05 0)
(0.000986807 -9.55916e-05 0)
(0.00096744 -0.000108636 0)
(0.0009492 -0.000122181 0)
(0.000932431 -0.000136238 0)
(0.000917543 -0.000150785 0)
(0.000904442 -0.000165779 0)
(0.000893821 -0.000181111 0)
(0.00110852 -6.66636e-05 0)
(0.00109177 -7.73674e-05 0)
(0.0010756 -8.86125e-05 0)
(0.00106025 -0.000100395 0)
(0.00104569 -0.000112784 0)
(0.00103259 -0.000125662 0)
(0.00102123 -0.000138966 0)
(0.0010116 -0.000152683 0)
(0.0010044 -0.000166644 0)
(0.0011873 -6.7726e-05 0)
(0.00117358 -7.76242e-05 0)
(0.00116045 -8.80112e-05 0)
(0.001148 -9.87941e-05 0)
(0.00113608 -0.000110272 0)
(0.00112544 -0.000122158 0)
(0.00111635 -0.000134469 0)
(0.00110906 -0.000147053 0)
(0.00110382 -0.000159761 0)
(0.00126463 -6.9473e-05 0)
(0.00125296 -7.87484e-05 0)
(0.00124182 -8.82914e-05 0)
(0.00123115 -9.83392e-05 0)
(0.00122118 -0.000109055 0)
(0.00121227 -0.000120154 0)
(0.0012046 -0.000131568 0)
(0.00119834 -0.000143195 0)
(0.00119368 -0.000154894 0)
(0.00134046 -6.77787e-05 0)
(0.00133001 -7.64348e-05 0)
(0.00132 -8.55579e-05 0)
(0.00131055 -9.51243e-05 0)
(0.00130177 -0.00010509 0)
(0.00129381 -0.000115423 0)
(0.00128679 -0.000126065 0)
(0.00128081 -0.000136918 0)
(0.00127594 -0.000147857 0)
(0.00141468 -5.84475e-05 0)
(0.00140484 -6.69442e-05 0)
(0.00139538 -7.5904e-05 0)
(0.00138646 -8.52898e-05 0)
(0.00137823 -9.50567e-05 0)
(0.00137075 -0.000105152 0)
(0.00136408 -0.000115505 0)
(0.0013582 -0.000126029 0)
(0.00135306 -0.000136576 0)
(9.91064e-05 -0.000740389 0)
(9.26004e-05 -0.000745867 0)
(8.62212e-05 -0.000751489 0)
(7.98094e-05 -0.000757281 0)
(7.32143e-05 -0.000763208 0)
(6.6269e-05 -0.000769207 0)
(5.87786e-05 -0.000775201 0)
(5.05261e-05 -0.000781085 0)
(4.13112e-05 -0.000786698 0)
(0.000212328 -0.000649424 0)
(0.000198167 -0.000659788 0)
(0.000184769 -0.000669796 0)
(0.000171672 -0.000679566 0)
(0.000158431 -0.000689165 0)
(0.000144596 -0.000698622 0)
(0.000129695 -0.000707947 0)
(0.000113226 -0.000717132 0)
(9.46377e-05 -0.000726201 0)
(0.000343099 -0.000524548 0)
(0.000319726 -0.00054088 0)
(0.000298232 -0.00055601 0)
(0.000277857 -0.000570183 0)
(0.000257835 -0.000583653 0)
(0.000237399 -0.000596632 0)
(0.000215772 -0.000609281 0)
(0.000192148 -0.000621742 0)
(0.000165692 -0.000634225 0)
(0.000490383 -0.0003902 0)
(0.000456472 -0.000410656 0)
(0.000425802 -0.000430314 0)
(0.000397295 -0.00044906 0)
(0.00037005 -0.000466919 0)
(0.000343187 -0.000483958 0)
(0.000315774 -0.000500289 0)
(0.000286815 -0.000516146 0)
(0.00025523 -0.000531895 0)
)
;

boundaryField
{
    back
    {
        type            empty;
    }
    front
    {
        type            empty;
    }
    left
    {
        type            symmetry;
    }
    hole
    {
        type            calculated;
    }
    down
    {
        type            symmetry;
    }
    right
    {
        type            calculated;
    }
    up
    {
        type            calculated;
    }
}


// ************************************************************************* //
