/*--------------------------------*- C++ -*----------------------------------*\
| =========                 |                                                 |
| \\      /  F ield         | OpenFOAM: The Open Source CFD Toolbox           |
|  \\    /   O peration     | Version:  v2012                                 |
|   \\  /    A nd           | Website:  www.openfoam.com                      |
|    \\/     M anipulation  |                                                 |
\*---------------------------------------------------------------------------*/
FoamFile
{
    version     2.0;
    format      ascii;
    class       volScalarField;
    location    "3";
    object      sigmaHyd;
}
// * * * * * * * * * * * * * * * * * * * * * * * * * * * * * * * * * * * * * //

dimensions      [1 -1 -2 0 0 0 0];


internalField   nonuniform List<scalar> 
500
(
6.63482e+07
6.48908e+07
6.17082e+07
5.82408e+07
5.35104e+07
5.00362e+07
4.60898e+07
4.33067e+07
4.00983e+07
3.78426e+07
6.25309e+07
5.902e+07
5.71073e+07
5.19727e+07
4.91827e+07
4.47542e+07
4.27236e+07
3.93803e+07
3.77376e+07
3.51362e+07
5.33106e+07
4.83018e+07
4.80686e+07
4.22864e+07
4.15332e+07
3.6979e+07
3.6839e+07
3.35413e+07
3.35286e+07
3.11569e+07
4.04333e+07
3.48544e+07
3.62729e+07
3.07023e+07
3.19393e+07
2.78047e+07
2.94592e+07
2.6522e+07
2.81455e+07
2.60375e+07
2.60548e+07
2.06573e+07
2.34419e+07
1.86301e+07
2.15344e+07
1.80307e+07
2.11528e+07
1.84598e+07
2.15743e+07
1.95239e+07
1.19668e+07
7.26451e+06
1.09161e+07
7.1252e+06
1.102e+07
8.18002e+06
1.19177e+07
9.64062e+06
1.37565e+07
1.3107e+07
-433779
-4.07719e+06
-36913
-2.50749e+06
1.83702e+06
127325
4.06132e+06
2.98128e+06
7.45029e+06
7.16736e+06
-1.02554e+07
-1.2659e+07
-8.59481e+06
-9.66758e+06
-5.23491e+06
-5.82381e+06
-1.91865e+06
-2.35126e+06
1.90487e+06
1.79148e+06
-1.70055e+07
-1.81902e+07
-1.43345e+07
-1.41214e+07
-1.00174e+07
-9.77424e+06
-6.31683e+06
-6.20993e+06
-2.54465e+06
-2.26385e+06
-2.08651e+07
-2.08782e+07
-1.72563e+07
-1.61124e+07
-1.26168e+07
-1.17347e+07
-8.89279e+06
-8.0608e+06
-5.01664e+06
-4.07721e+06
-398094
2.09956e+06
1.54572e+06
4.80328e+06
5.57995e+06
8.99787e+06
1.06079e+07
1.35855e+07
1.56107e+07
1.77281e+07
4.65739e+06
6.09942e+06
6.32405e+06
8.15163e+06
9.45531e+06
1.116e+07
1.30802e+07
1.43292e+07
1.63772e+07
1.70794e+07
7.66914e+06
8.81908e+06
8.93505e+06
1.03822e+07
1.1238e+07
1.2662e+07
1.39047e+07
1.51161e+07
1.64237e+07
1.737e+07
1.04199e+07
1.15291e+07
1.14249e+07
1.27723e+07
1.32298e+07
1.45464e+07
1.53198e+07
1.64447e+07
1.7318e+07
1.81405e+07
1.31198e+07
1.41014e+07
1.38832e+07
1.49951e+07
1.52179e+07
1.62422e+07
1.6734e+07
1.75577e+07
1.81563e+07
1.87324e+07
1.54904e+07
1.62883e+07
1.59844e+07
1.68209e+07
1.68397e+07
1.75742e+07
1.78108e+07
1.83773e+07
1.87263e+07
1.90982e+07
1.74933e+07
1.81556e+07
1.77373e+07
1.83817e+07
1.81769e+07
1.87248e+07
1.86857e+07
1.90806e+07
1.91479e+07
1.93579e+07
1.9313e+07
1.99177e+07
1.93563e+07
1.99065e+07
1.94554e+07
1.98879e+07
1.95478e+07
1.98062e+07
1.95641e+07
1.96305e+07
2.11388e+07
2.16927e+07
2.10149e+07
2.14411e+07
2.07811e+07
2.10298e+07
2.04289e+07
2.04795e+07
1.99643e+07
1.98335e+07
2.28051e+07
2.29731e+07
2.24357e+07
2.24284e+07
2.18406e+07
2.17107e+07
2.10757e+07
2.08302e+07
2.01966e+07
1.98851e+07
2.02084e+07
2.02437e+07
2.17295e+07
2.17285e+07
2.30072e+07
2.30328e+07
2.41144e+07
2.42245e+07
2.51148e+07
2.53216e+07
2.60575e+07
2.64092e+07
2.70505e+07
2.76063e+07
2.8225e+07
2.89392e+07
2.96107e+07
3.04594e+07
3.10081e+07
3.14044e+07
1.88367e+07
1.89602e+07
2.02061e+07
2.02556e+07
2.15358e+07
2.1596e+07
2.28862e+07
2.29759e+07
2.41843e+07
2.42979e+07
2.54821e+07
2.57021e+07
2.68756e+07
2.71358e+07
2.83134e+07
2.85945e+07
2.98217e+07
3.00071e+07
3.10256e+07
3.08307e+07
1.84498e+07
1.88559e+07
1.95916e+07
1.99039e+07
2.0768e+07
2.10329e+07
2.20373e+07
2.22507e+07
2.33369e+07
2.35093e+07
2.46707e+07
2.47844e+07
2.60158e+07
2.60637e+07
2.73631e+07
2.73313e+07
2.86702e+07
2.84701e+07
2.96351e+07
2.90791e+07
1.88242e+07
1.92274e+07
1.97e+07
2.00021e+07
2.05948e+07
2.08288e+07
2.15817e+07
2.17422e+07
2.26331e+07
2.27026e+07
2.37094e+07
2.36745e+07
2.4805e+07
2.46857e+07
2.58942e+07
2.56387e+07
2.68596e+07
2.63679e+07
2.74748e+07
2.6708e+07
1.92203e+07
1.94908e+07
1.98455e+07
2.00198e+07
2.0467e+07
2.05696e+07
2.11539e+07
2.11789e+07
2.18859e+07
2.18166e+07
2.26125e+07
2.24445e+07
2.34289e+07
2.31987e+07
2.41965e+07
2.3723e+07
2.47153e+07
2.40607e+07
2.49957e+07
2.41887e+07
1.942e+07
1.95592e+07
1.98112e+07
1.98541e+07
2.01787e+07
2.01469e+07
2.05931e+07
2.0508e+07
2.10662e+07
2.08967e+07
2.15101e+07
2.12711e+07
2.19969e+07
2.15994e+07
2.23487e+07
2.1816e+07
2.25619e+07
2.18933e+07
2.26123e+07
2.18647e+07
1.94762e+07
1.95228e+07
1.96418e+07
1.9605e+07
1.97767e+07
1.9684e+07
1.99856e+07
1.98757e+07
2.02346e+07
2.00119e+07
2.0434e+07
2.01247e+07
2.06025e+07
2.01959e+07
2.0696e+07
2.01861e+07
2.06737e+07
2.00585e+07
2.05438e+07
1.99164e+07
1.95298e+07
1.95135e+07
1.95113e+07
1.94344e+07
1.94799e+07
1.93645e+07
1.95005e+07
1.9312e+07
1.95075e+07
1.92481e+07
1.94947e+07
1.9168e+07
1.94515e+07
1.90592e+07
1.93528e+07
1.88946e+07
1.91633e+07
1.86551e+07
1.89236e+07
1.84617e+07
1.95581e+07
1.94674e+07
1.93828e+07
1.9246e+07
1.9208e+07
1.90137e+07
1.90305e+07
1.87823e+07
1.88537e+07
1.8564e+07
1.86812e+07
1.83619e+07
1.85077e+07
1.81696e+07
1.83179e+07
1.79749e+07
1.80973e+07
1.77715e+07
1.78481e+07
1.75879e+07
1.95108e+07
1.93671e+07
1.91899e+07
1.90303e+07
1.88661e+07
1.86873e+07
1.855e+07
1.83648e+07
1.8265e+07
1.80837e+07
1.80216e+07
1.78516e+07
1.78205e+07
1.76681e+07
1.76549e+07
1.75264e+07
1.7517e+07
1.74224e+07
1.74223e+07
1.73933e+07
3.54914e+07
3.43562e+07
3.31254e+07
3.22213e+07
3.09628e+07
3.01736e+07
2.87812e+07
2.80648e+07
2.65169e+07
2.58637e+07
2.41736e+07
2.35896e+07
2.17949e+07
2.13036e+07
1.94721e+07
1.91035e+07
1.72998e+07
1.70654e+07
1.54079e+07
1.57174e+07
3.40102e+07
3.26896e+07
3.22339e+07
3.11884e+07
3.05374e+07
2.96767e+07
2.87726e+07
2.80712e+07
2.69009e+07
2.63675e+07
2.49405e+07
2.45968e+07
2.29461e+07
2.28211e+07
2.09966e+07
2.11103e+07
1.91665e+07
1.95962e+07
1.7772e+07
1.88552e+07
3.12857e+07
2.99399e+07
3.03117e+07
2.9209e+07
2.93003e+07
2.83885e+07
2.82089e+07
2.75339e+07
2.7039e+07
2.66244e+07
2.5803e+07
2.56695e+07
2.45443e+07
2.47165e+07
2.33339e+07
2.38694e+07
2.23279e+07
2.33852e+07
2.18733e+07
2.33674e+07
2.7457e+07
2.61505e+07
2.72896e+07
2.61541e+07
2.69644e+07
2.61487e+07
2.67175e+07
2.61799e+07
2.64681e+07
2.61836e+07
2.61718e+07
2.6153e+07
2.58555e+07
2.61456e+07
2.56215e+07
2.63152e+07
2.56935e+07
2.68832e+07
2.61637e+07
2.74925e+07
2.27503e+07
2.2182e+07
2.38477e+07
2.33223e+07
2.44639e+07
2.41119e+07
2.49603e+07
2.47913e+07
2.54178e+07
2.54345e+07
2.5869e+07
2.60798e+07
2.6366e+07
2.68076e+07
2.70272e+07
2.77641e+07
2.80182e+07
2.90366e+07
2.91623e+07
3.0102e+07
)
;

boundaryField
{
    back
    {
        type            empty;
    }
    front
    {
        type            empty;
    }
    left
    {
        type            symmetry;
    }
    hole
    {
        type            zeroGradient;
    }
    down
    {
        type            symmetry;
    }
    right
    {
        type            zeroGradient;
    }
    up
    {
        type            zeroGradient;
    }
}


// ************************************************************************* //
