/*--------------------------------*- C++ -*----------------------------------*\
| =========                 |                                                 |
| \\      /  F ield         | OpenFOAM: The Open Source CFD Toolbox           |
|  \\    /   O peration     | Version:  v2012                                 |
|   \\  /    A nd           | Website:  www.openfoam.com                      |
|    \\/     M anipulation  |                                                 |
\*---------------------------------------------------------------------------*/
FoamFile
{
    version     2.0;
    format      ascii;
    class       volVectorField;
    location    "16";
    object      D;
}
// * * * * * * * * * * * * * * * * * * * * * * * * * * * * * * * * * * * * * //

dimensions      [0 1 0 0 0 0 0];


internalField   nonuniform List<vector> 
32000
(
(3.6001e-05 -0.000406281 0)
(6.83806e-05 -0.00042413 0)
(3.48976e-05 -0.000466154 0)
(6.57765e-05 -0.00048509 0)
(3.43213e-05 -0.000524674 0)
(6.47937e-05 -0.000544022 0)
(3.41059e-05 -0.00058197 0)
(6.44442e-05 -0.000601216 0)
(3.40229e-05 -0.000637989 0)
(6.43112e-05 -0.000656972 0)
(3.39763e-05 -0.00069278 0)
(6.41885e-05 -0.000711375 0)
(3.39035e-05 -0.000746261 0)
(6.39816e-05 -0.000764379 0)
(3.37704e-05 -0.000798324 0)
(6.36432e-05 -0.000815898 0)
(3.35522e-05 -0.000848856 0)
(6.31546e-05 -0.000865835 0)
(3.32467e-05 -0.000897746 0)
(6.25185e-05 -0.000914102 0)
(3.28598e-05 -0.000944909 0)
(6.17438e-05 -0.000960612 0)
(3.2401e-05 -0.000990271 0)
(6.08367e-05 -0.0010053 0)
(3.18656e-05 -0.00103377 0)
(5.98079e-05 -0.0010481 0)
(3.12711e-05 -0.00107536 0)
(5.86759e-05 -0.00108899 0)
(3.06294e-05 -0.001115 0)
(5.74574e-05 -0.00112793 0)
(2.99495e-05 -0.00115268 0)
(5.61551e-05 -0.0011649 0)
(2.92298e-05 -0.00118838 0)
(5.47812e-05 -0.00119989 0)
(2.84798e-05 -0.0012221 0)
(5.33474e-05 -0.0012329 0)
(2.77063e-05 -0.00125383 0)
(5.18509e-05 -0.00126393 0)
(2.69059e-05 -0.00128359 0)
(5.02977e-05 -0.00129298 0)
(2.60844e-05 -0.00131137 0)
(4.86943e-05 -0.00132006 0)
(2.52412e-05 -0.00133721 0)
(4.70368e-05 -0.00134518 0)
(2.43769e-05 -0.00136109 0)
(4.533e-05 -0.00136837 0)
(2.34941e-05 -0.00138305 0)
(4.35747e-05 -0.00138963 0)
(2.25846e-05 -0.00140312 0)
(4.1775e-05 -0.001409 0)
(2.16587e-05 -0.0014213 0)
(3.99447e-05 -0.00142651 0)
(2.07184e-05 -0.00143767 0)
(3.80901e-05 -0.0014422 0)
(1.97624e-05 -0.00145224 0)
(3.62272e-05 -0.00145614 0)
(1.87974e-05 -0.0014651 0)
(3.437e-05 -0.00146838 0)
(1.78243e-05 -0.00147631 0)
(3.25372e-05 -0.001479 0)
(1.68553e-05 -0.00148597 0)
(3.07544e-05 -0.00148812 0)
(1.58976e-05 -0.0014942 0)
(2.904e-05 -0.00149584 0)
(1.49604e-05 -0.00150109 0)
(2.74169e-05 -0.00150229 0)
(1.40575e-05 -0.0015068 0)
(2.59015e-05 -0.00150759 0)
(1.32005e-05 -0.00151145 0)
(2.45104e-05 -0.00151189 0)
(1.24056e-05 -0.00151519 0)
(2.32506e-05 -0.00151533 0)
(1.1683e-05 -0.00151817 0)
(2.2128e-05 -0.00151805 0)
(1.10398e-05 -0.00152054 0)
(2.11085e-05 -0.00152012 0)
(1.04747e-05 -0.00152241 0)
(2.02423e-05 -0.00152188 0)
(1.00049e-05 -0.00152391 0)
(1.96505e-05 -0.00152361 0)
(0.000122462 -0.000415233 0)
(0.000153005 -0.000437325 0)
(0.000124636 -0.000471742 0)
(0.000155826 -0.000493623 0)
(0.000126176 -0.000528788 0)
(0.00015749 -0.000550275 0)
(0.00012725 -0.000585345 0)
(0.000158505 -0.000606276 0)
(0.000127917 -0.000640911 0)
(0.000159041 -0.000661287 0)
(0.000128214 -0.000695334 0)
(0.000159136 -0.000715108 0)
(0.000128145 -0.000748464 0)
(0.000158798 -0.00076758 0)
(0.00012771 -0.00080017 0)
(0.000158035 -0.000818581 0)
(0.000126921 -0.000850343 0)
(0.000156861 -0.000868012 0)
(0.000125796 -0.000898881 0)
(0.0001553 -0.000915783 0)
(0.000124369 -0.0009457 0)
(0.000153384 -0.000961816 0)
(0.000122665 -0.000990726 0)
(0.000151148 -0.00100604 0)
(0.000120717 -0.00103391 0)
(0.000148625 -0.00104842 0)
(0.000118552 -0.00107519 0)
(0.000145845 -0.00108889 0)
(0.000116203 -0.00111455 0)
(0.000142838 -0.00112743 0)
(0.000113685 -0.00115195 0)
(0.000139631 -0.00116402 0)
(0.000111017 -0.00118739 0)
(0.000136243 -0.00119864 0)
(0.00010823 -0.00122084 0)
(0.000132693 -0.00123128 0)
(0.000105328 -0.00125231 0)
(0.000128996 -0.00126193 0)
(0.000102313 -0.0012818 0)
(0.000125158 -0.00129058 0)
(9.92088e-05 -0.0013093 0)
(0.000121191 -0.00131726 0)
(9.60149e-05 -0.00133484 0)
(0.000117102 -0.00134196 0)
(9.27302e-05 -0.00135841 0)
(0.000112894 -0.0013647 0)
(8.93713e-05 -0.00138005 0)
(0.000108588 -0.0013855 0)
(8.59425e-05 -0.00139977 0)
(0.000104194 -0.00140439 0)
(8.24526e-05 -0.00141761 0)
(9.97315e-05 -0.00142141 0)
(7.89166e-05 -0.00143362 0)
(9.52289e-05 -0.00143662 0)
(7.53473e-05 -0.00144785 0)
(9.07144e-05 -0.00145009 0)
(7.17759e-05 -0.00146037 0)
(8.62314e-05 -0.0014619 0)
(6.82248e-05 -0.00147129 0)
(8.18239e-05 -0.00147215 0)
(6.47296e-05 -0.00148068 0)
(7.7536e-05 -0.00148095 0)
(6.13252e-05 -0.00148868 0)
(7.34177e-05 -0.00148843 0)
(5.80525e-05 -0.00149542 0)
(6.95135e-05 -0.00149472 0)
(5.49507e-05 -0.00150103 0)
(6.58646e-05 -0.00149995 0)
(5.20568e-05 -0.00150565 0)
(6.25066e-05 -0.00150425 0)
(4.94081e-05 -0.00150944 0)
(5.94673e-05 -0.00150778 0)
(4.70319e-05 -0.00151254 0)
(5.67637e-05 -0.00151066 0)
(4.49454e-05 -0.00151509 0)
(5.43956e-05 -0.00151298 0)
(4.31212e-05 -0.0015172 0)
(5.24015e-05 -0.00151497 0)
(4.15418e-05 -0.00151892 0)
(5.07573e-05 -0.00151683 0)
(0.000213919 -0.000424509 0)
(0.000245419 -0.000447336 0)
(0.00021649 -0.000481465 0)
(0.000247717 -0.000504532 0)
(0.000218873 -0.000538111 0)
(0.000249959 -0.000560901 0)
(0.000220752 -0.000594018 0)
(0.000251661 -0.000616187 0)
(0.000221971 -0.000648855 0)
(0.000252667 -0.000670327 0)
(0.000222514 -0.000702518 0)
(0.000252941 -0.000723237 0)
(0.000222395 -0.000754877 0)
(0.000252497 -0.000774799 0)
(0.000221643 -0.000805812 0)
(0.000251364 -0.000824899 0)
(0.000220288 -0.000855218 0)
(0.000249579 -0.000873442 0)
(0.00021837 -0.000903006 0)
(0.000247186 -0.000920343 0)
(0.000215934 -0.000949092 0)
(0.00024423 -0.000965531 0)
(0.000213037 -0.000993415 0)
(0.000240766 -0.00100894 0)
(0.000209722 -0.00103591 0)
(0.000236847 -0.00105053 0)
(0.000206025 -0.00107654 0)
(0.000232513 -0.00109024 0)
(0.000201992 -0.00111527 0)
(0.000227804 -0.00112804 0)
(0.000197669 -0.00115206 0)
(0.000222766 -0.00116392 0)
(0.000193087 -0.0011869 0)
(0.000217426 -0.00119782 0)
(0.000188254 -0.00121976 0)
(0.000211801 -0.00122974 0)
(0.000183206 -0.00125063 0)
(0.000205921 -0.00125967 0)
(0.000177962 -0.00127952 0)
(0.000199803 -0.00128759 0)
(0.000172519 -0.0013064 0)
(0.000193452 -0.0013135 0)
(0.000166901 -0.00133129 0)
(0.000186892 -0.0013374 0)
(0.00016112 -0.0013542 0)
(0.000180143 -0.00135931 0)
(0.00015518 -0.00137514 0)
(0.000173215 -0.00137926 0)
(0.000149107 -0.00139415 0)
(0.000166149 -0.00139729 0)
(0.000142912 -0.00141128 0)
(0.000158978 -0.00141345 0)
(0.000136641 -0.00142656 0)
(0.000151753 -0.00142783 0)
(0.000130331 -0.0014401 0)
(0.000144534 -0.00144051 0)
(0.000124031 -0.00145197 0)
(0.000137382 -0.0014516 0)
(0.000117798 -0.00146229 0)
(0.000130374 -0.00146121 0)
(0.000111699 -0.00147117 0)
(0.000123584 -0.0014695 0)
(0.000105806 -0.00147875 0)
(0.000117091 -0.00147659 0)
(0.000100192 -0.00148517 0)
(0.00011097 -0.00148262 0)
(9.49293e-05 -0.00149057 0)
(0.000105284 -0.00148772 0)
(9.00826e-05 -0.0014951 0)
(0.000100096 -0.00149204 0)
(8.57093e-05 -0.0014989 0)
(9.54389e-05 -0.00149568 0)
(8.18492e-05 -0.00150209 0)
(9.1337e-05 -0.00149875 0)
(7.85238e-05 -0.00150482 0)
(8.7792e-05 -0.00150136 0)
(7.56984e-05 -0.00150717 0)
(8.4702e-05 -0.00150351 0)
(7.32477e-05 -0.00150916 0)
(8.22285e-05 -0.00150558 0)
(0.000301578 -0.000441294 0)
(0.000332515 -0.00046601 0)
(0.000305752 -0.000497198 0)
(0.000336527 -0.000521776 0)
(0.000309246 -0.000552848 0)
(0.00033983 -0.000576933 0)
(0.000311923 -0.000607711 0)
(0.000342255 -0.000631021 0)
(0.000313682 -0.000661445 0)
(0.000343728 -0.000683919 0)
(0.000314501 -0.000713966 0)
(0.000344214 -0.000735553 0)
(0.000314385 -0.000765169 0)
(0.00034372 -0.000785826 0)
(0.000313378 -0.000814952 0)
(0.000342288 -0.00083465 0)
(0.000311534 -0.000863221 0)
(0.000339975 -0.000881939 0)
(0.000308912 -0.000909893 0)
(0.000336843 -0.000927615 0)
(0.000305573 -0.000954899 0)
(0.000332952 -0.000971606 0)
(0.000301567 -0.000998167 0)
(0.000328361 -0.00101386 0)
(0.00029697 -0.00103964 0)
(0.000323136 -0.00105431 0)
(0.000291846 -0.00107928 0)
(0.000317342 -0.00109292 0)
(0.000286241 -0.00111705 0)
(0.000311027 -0.00112965 0)
(0.000280187 -0.00115289 0)
(0.000304218 -0.00116443 0)
(0.00027373 -0.00118678 0)
(0.000296958 -0.00119725 0)
(0.00026691 -0.00121869 0)
(0.000289289 -0.00122806 0)
(0.000259734 -0.0012486 0)
(0.000281225 -0.00125685 0)
(0.000252233 -0.00127647 0)
(0.000272786 -0.00128359 0)
(0.000244436 -0.00130233 0)
(0.000264012 -0.00130829 0)
(0.000236343 -0.00132615 0)
(0.000254922 -0.00133093 0)
(0.000227989 -0.00134794 0)
(0.00024555 -0.00135155 0)
(0.000219402 -0.00136774 0)
(0.00023595 -0.0013702 0)
(0.000210612 -0.0013856 0)
(0.000226165 -0.00138693 0)
(0.000201679 -0.00140157 0)
(0.000216271 -0.00140183 0)
(0.00019265 -0.00141575 0)
(0.000206343 -0.00141501 0)
(0.000183606 -0.00142823 0)
(0.000196473 -0.0014266 0)
(0.000174624 -0.00143915 0)
(0.000186764 -0.00143674 0)
(0.000165809 -0.00144864 0)
(0.000177316 -0.00144557 0)
(0.000157255 -0.00145685 0)
(0.000168238 -0.00145325 0)
(0.000149071 -0.00146393 0)
(0.000159622 -0.00145993 0)
(0.000141349 -0.00147002 0)
(0.000151565 -0.00146574 0)
(0.000134183 -0.00147526 0)
(0.000144135 -0.00147081 0)
(0.000127647 -0.00147978 0)
(0.000137399 -0.00147523 0)
(0.0001218 -0.0014837 0)
(0.000131381 -0.00147911 0)
(0.000116671 -0.00148712 0)
(0.000126102 -0.00148251 0)
(0.000112267 -0.00149012 0)
(0.000121515 -0.00148547 0)
(0.000108538 -0.00149277 0)
(0.000117583 -0.001488 0)
(0.000105401 -0.00149513 0)
(0.000114189 -0.0014902 0)
(0.000387341 -0.000463109 0)
(0.000417915 -0.000489105 0)
(0.000392607 -0.000518038 0)
(0.000422813 -0.000543818 0)
(0.00039702 -0.000572491 0)
(0.000426904 -0.000597666 0)
(0.000400405 -0.000626033 0)
(0.000429938 -0.000650308 0)
(0.000402653 -0.000678354 0)
(0.000431822 -0.000701671 0)
(0.000403747 -0.000729399 0)
(0.000432521 -0.000751713 0)
(0.000403701 -0.0007791 0)
(0.000432044 -0.000800367 0)
(0.000402541 -0.000827376 0)
(0.000430422 -0.000847568 0)
(0.000400317 -0.000874152 0)
(0.000427703 -0.000893251 0)
(0.000397103 -0.000919359 0)
(0.000423953 -0.000937348 0)
(0.000392976 -0.000962926 0)
(0.000419252 -0.000979798 0)
(0.000388018 -0.0010048 0)
(0.000413676 -0.00102054 0)
(0.000382285 -0.00104491 0)
(0.000407287 -0.0010595 0)
(0.000375831 -0.0010832 0)
(0.000400133 -0.00109663 0)
(0.000368718 -0.00111962 0)
(0.000392259 -0.00113185 0)
(0.000361007 -0.00115412 0)
(0.000383731 -0.00116512 0)
(0.000352723 -0.00118664 0)
(0.000374587 -0.00119639 0)
(0.000343899 -0.00121715 0)
(0.00036485 -0.00122562 0)
(0.000334578 -0.00124562 0)
(0.000354555 -0.00125275 0)
(0.000324785 -0.00127201 0)
(0.000343752 -0.00127779 0)
(0.000314537 -0.00129631 0)
(0.000332473 -0.00130072 0)
(0.000303887 -0.00131853 0)
(0.000320773 -0.00132157 0)
(0.000292866 -0.00133871 0)
(0.000308721 -0.0013404 0)
(0.000281534 -0.00135688 0)
(0.000296385 -0.00135727 0)
(0.000269969 -0.00137313 0)
(0.000283875 -0.0013723 0)
(0.00025825 -0.00138756 0)
(0.000271291 -0.00138561 0)
(0.000246489 -0.0014003 0)
(0.000258762 -0.00139737 0)
(0.0002348 -0.0014115 0)
(0.000246414 -0.00140773 0)
(0.000223312 -0.00142132 0)
(0.000234382 -0.00141686 0)
(0.000212155 -0.00142993 0)
(0.000222789 -0.00142493 0)
(0.00020145 -0.00143748 0)
(0.000211759 -0.0014321 0)
(0.000191318 -0.00144414 0)
(0.000201383 -0.00143849 0)
(0.000181852 -0.00145003 0)
(0.000191751 -0.00144423 0)
(0.000173138 -0.00145527 0)
(0.000182912 -0.0014494 0)
(0.000165227 -0.00145995 0)
(0.000174905 -0.00145408 0)
(0.000158146 -0.00146416 0)
(0.000167735 -0.00145831 0)
(0.000151904 -0.00146794 0)
(0.000161385 -0.00146214 0)
(0.000146473 -0.00147135 0)
(0.000155817 -0.00146557 0)
(0.000141823 -0.00147439 0)
(0.000150951 -0.00146858 0)
(0.000137793 -0.00147703 0)
(0.000146683 -0.00147111 0)
(0.000469879 -0.000490178 0)
(0.000499705 -0.000517342 0)
(0.000476202 -0.000543768 0)
(0.000505594 -0.000570573 0)
(0.000481458 -0.000596719 0)
(0.000510443 -0.000622803 0)
(0.000485499 -0.000648654 0)
(0.000514048 -0.000673721 0)
(0.000488224 -0.000699283 0)
(0.000516333 -0.000723275 0)
(0.000489611 -0.000748572 0)
(0.000517263 -0.000771447 0)
(0.000489669 -0.000796469 0)
(0.000516845 -0.000818196 0)
(0.000488437 -0.000842924 0)
(0.000515112 -0.000863478 0)
(0.000485975 -0.000887885 0)
(0.000512115 -0.00090724 0)
(0.000482341 -0.000931295 0)
(0.000507911 -0.000949426 0)
(0.00047759 -0.000973086 0)
(0.000502558 -0.000989972 0)
(0.000471791 -0.00101319 0)
(0.000496114 -0.00102881 0)
(0.000465017 -0.00105154 0)
(0.000488636 -0.00106585 0)
(0.000457341 -0.00108807 0)
(0.000480184 -0.00110103 0)
(0.000448815 -0.0011227 0)
(0.000470823 -0.00113426 0)
(0.000439464 -0.00115536 0)
(0.000460591 -0.00116549 0)
(0.000429343 -0.001186 0)
(0.000449522 -0.00119464 0)
(0.000418499 -0.00121456 0)
(0.000437666 -0.00122165 0)
(0.000406964 -0.001241 0)
(0.000425084 -0.00124652 0)
(0.000394773 -0.0012653 0)
(0.00041183 -0.00126923 0)
(0.000381997 -0.00128746 0)
(0.00039798 -0.00128981 0)
(0.000368691 -0.00130752 0)
(0.000383635 -0.00130833 0)
(0.000354945 -0.00132554 0)
(0.000368896 -0.00132489 0)
(0.000340868 -0.00134162 0)
(0.000353909 -0.00133962 0)
(0.000326575 -0.0013559 0)
(0.000338811 -0.00135268 0)
(0.000312216 -0.00136852 0)
(0.000323768 -0.00136426 0)
(0.000297942 -0.00137968 0)
(0.000308936 -0.00137456 0)
(0.000283912 -0.00138956 0)
(0.000294483 -0.00138375 0)
(0.000270285 -0.00139834 0)
(0.000280544 -0.00139201 0)
(0.000257201 -0.00140619 0)
(0.000267253 -0.0013995 0)
(0.000244786 -0.00141326 0)
(0.000254713 -0.00140634 0)
(0.000233143 -0.00141969 0)
(0.000242993 -0.00141264 0)
(0.000222337 -0.00142557 0)
(0.000232154 -0.00141846 0)
(0.000212417 -0.00143097 0)
(0.000222212 -0.00142387 0)
(0.000203402 -0.00143596 0)
(0.000213164 -0.00142889 0)
(0.000195277 -0.00144055 0)
(0.000204997 -0.00143353 0)
(0.000188033 -0.00144477 0)
(0.000197656 -0.0014378 0)
(0.000181621 -0.00144864 0)
(0.000191103 -0.00144171 0)
(0.000175966 -0.00145212 0)
(0.000185265 -0.00144521 0)
(0.000171048 -0.00145524 0)
(0.000180071 -0.00144827 0)
(0.000549015 -0.000521632 0)
(0.000577905 -0.000549682 0)
(0.000556126 -0.000573762 0)
(0.000584507 -0.000601346 0)
(0.000562063 -0.000625047 0)
(0.000589952 -0.000651817 0)
(0.000566666 -0.000675172 0)
(0.000594049 -0.000700839 0)
(0.00056984 -0.000723883 0)
(0.000596717 -0.000748384 0)
(0.00057155 -0.00077117 0)
(0.000597915 -0.000794462 0)
(0.000571796 -0.000817014 0)
(0.000597637 -0.000839057 0)
(0.0005706 -0.000861381 0)
(0.000595896 -0.000882138 0)
(0.000567992 -0.000904228 0)
(0.000592718 -0.000923666 0)
(0.00056402 -0.000945501 0)
(0.00058814 -0.000963586 0)
(0.000558744 -0.000985141 0)
(0.000582206 -0.00100183 0)
(0.000552226 -0.00102308 0)
(0.000574963 -0.0010383 0)
(0.000544522 -0.00105922 0)
(0.000566461 -0.00107292 0)
(0.000535675 -0.00109348 0)
(0.000556749 -0.00110558 0)
(0.000525715 -0.00112576 0)
(0.000545872 -0.00113621 0)
(0.000514706 -0.00115599 0)
(0.000533875 -0.00116473 0)
(0.000502701 -0.0011841 0)
(0.000520816 -0.00119106 0)
(0.000489746 -0.00121004 0)
(0.000506774 -0.00121518 0)
(0.000475892 -0.00123378 0)
(0.000491831 -0.00123711 0)
(0.000461238 -0.00125533 0)
(0.000476093 -0.00125688 0)
(0.000445877 -0.00127475 0)
(0.000459698 -0.00127457 0)
(0.000429926 -0.00129211 0)
(0.000442794 -0.00129034 0)
(0.000413542 -0.00130756 0)
(0.000425565 -0.00130433 0)
(0.00039688 -0.00132126 0)
(0.000408193 -0.00131677 0)
(0.000380138 -0.00133341 0)
(0.000390883 -0.00132785 0)
(0.000363505 -0.0013442 0)
(0.000373823 -0.00133779 0)
(0.000347166 -0.00135387 0)
(0.000357201 -0.0013468 0)
(0.000331306 -0.00136259 0)
(0.000341171 -0.00135505 0)
(0.000316079 -0.00137055 0)
(0.000325857 -0.00136269 0)
(0.000301599 -0.00137789 0)
(0.000311372 -0.00136982 0)
(0.000287967 -0.00138471 0)
(0.000297773 -0.00137653 0)
(0.000275243 -0.0013911 0)
(0.000285089 -0.00138287 0)
(0.000263447 -0.00139711 0)
(0.000273343 -0.00138888 0)
(0.00025259 -0.00140277 0)
(0.000262525 -0.00139456 0)
(0.000242665 -0.0014081 0)
(0.000252599 -0.00139992 0)
(0.00023364 -0.0014131 0)
(0.000243539 -0.00140496 0)
(0.000225466 -0.00141776 0)
(0.000235298 -0.00140966 0)
(0.000218104 -0.00142208 0)
(0.0002278 -0.001414 0)
(0.000211503 -0.00142605 0)
(0.000221023 -0.00141799 0)
(0.000205568 -0.00142962 0)
(0.000214881 -0.00142156 0)
(0.000624765 -0.00055668 0)
(0.000652605 -0.000585322 0)
(0.000632363 -0.000607312 0)
(0.000659601 -0.000635392 0)
(0.000638724 -0.00065684 0)
(0.0006654 -0.000684045 0)
(0.000643699 -0.000705044 0)
(0.000669803 -0.00073108 0)
(0.000647185 -0.000751698 0)
(0.000672724 -0.000776496 0)
(0.000649138 -0.000796815 0)
(0.000674109 -0.000820322 0)
(0.00064954 -0.000840394 0)
(0.000673928 -0.000862555 0)
(0.00064839 -0.000882415 0)
(0.000672169 -0.000903177 0)
(0.000645697 -0.000922846 0)
(0.000668831 -0.000942147 0)
(0.000641482 -0.000961639 0)
(0.000663917 -0.000979402 0)
(0.000635768 -0.000998718 0)
(0.000657437 -0.00101485 0)
(0.000628578 -0.00103399 0)
(0.000649407 -0.00104841 0)
(0.000619934 -0.00106736 0)
(0.000639852 -0.00107996 0)
(0.000609868 -0.00109871 0)
(0.000628813 -0.00110942 0)
(0.000598433 -0.00112796 0)
(0.000616342 -0.00113671 0)
(0.00058569 -0.00115504 0)
(0.000602504 -0.00116176 0)
(0.000571703 -0.00117988 0)
(0.000587394 -0.00118454 0)
(0.000556549 -0.00120248 0)
(0.000571131 -0.0012051 0)
(0.000540349 -0.00122285 0)
(0.000553854 -0.00122349 0)
(0.000523242 -0.00124108 0)
(0.000535746 -0.00123984 0)
(0.000505387 -0.00125728 0)
(0.000517009 -0.00125433 0)
(0.000486995 -0.00127163 0)
(0.00049787 -0.00126717 0)
(0.000468273 -0.00128434 0)
(0.000478566 -0.00127861 0)
(0.000449467 -0.00129564 0)
(0.000459336 -0.00128888 0)
(0.000430797 -0.00130578 0)
(0.000440396 -0.00129821 0)
(0.00041248 -0.00131498 0)
(0.00042195 -0.00130682 0)
(0.000394713 -0.00132343 0)
(0.000404158 -0.00131486 0)
(0.000377647 -0.00133131 0)
(0.000387139 -0.00132245 0)
(0.000361393 -0.00133873 0)
(0.000370982 -0.0013297 0)
(0.000346025 -0.00134578 0)
(0.000355744 -0.00133665 0)
(0.000331596 -0.00135251 0)
(0.000341443 -0.00134333 0)
(0.000318119 -0.00135897 0)
(0.000328073 -0.00134975 0)
(0.000305583 -0.00136516 0)
(0.000315628 -0.00135593 0)
(0.000293973 -0.00137107 0)
(0.000304089 -0.00136185 0)
(0.000283271 -0.00137671 0)
(0.000293411 -0.0013675 0)
(0.000273432 -0.00138206 0)
(0.000283549 -0.00137286 0)
(0.000264409 -0.00138711 0)
(0.000274473 -0.00137792 0)
(0.000256166 -0.00139184 0)
(0.000266142 -0.00138267 0)
(0.00024865 -0.00139624 0)
(0.000258464 -0.00138707 0)
(0.000241811 -0.0014003 0)
(0.00025142 -0.00139111 0)
(0.000696852 -0.000594697 0)
(0.000723478 -0.000623695 0)
(0.000704653 -0.000643741 0)
(0.000730634 -0.000672083 0)
(0.00071119 -0.000691459 0)
(0.000736542 -0.000718859 0)
(0.00071633 -0.000737672 0)
(0.000741042 -0.000763843 0)
(0.000719975 -0.000782176 0)
(0.000744049 -0.000807034 0)
(0.000722064 -0.000824988 0)
(0.000745492 -0.000848463 0)
(0.000722554 -0.000866117 0)
(0.00074531 -0.000888126 0)
(0.000721408 -0.000905547 0)
(0.000743455 -0.000925997 0)
(0.000718596 -0.000943237 0)
(0.000739877 -0.000962016 0)
(0.000714089 -0.00097912 0)
(0.000734535 -0.000996103 0)
(0.000707863 -0.00101311 0)
(0.000727402 -0.00102817 0)
(0.000699905 -0.0010451 0)
(0.000718464 -0.00105812 0)
(0.000690221 -0.00107499 0)
(0.000707735 -0.00108587 0)
(0.000678843 -0.0011027 0)
(0.000695256 -0.00111135 0)
(0.000665826 -0.00112815 0)
(0.000681099 -0.00113452 0)
(0.00065125 -0.00115131 0)
(0.000665372 -0.00115537 0)
(0.000635222 -0.00117216 0)
(0.000648226 -0.00117397 0)
(0.000617886 -0.00119078 0)
(0.000629845 -0.00119043 0)
(0.000599433 -0.00120727 0)
(0.000610454 -0.00120493 0)
(0.000580082 -0.00122181 0)
(0.000590319 -0.0012177 0)
(0.000560088 -0.00123462 0)
(0.000569713 -0.001229 0)
(0.000539726 -0.00124596 0)
(0.000548922 -0.00123911 0)
(0.000519276 -0.00125611 0)
(0.000528216 -0.0012483 0)
(0.000498994 -0.00126532 0)
(0.000507834 -0.00125679 0)
(0.000479115 -0.00127383 0)
(0.000487983 -0.00126477 0)
(0.000459835 -0.00128181 0)
(0.000468819 -0.0012724 0)
(0.000441296 -0.0012894 0)
(0.000450451 -0.00127976 0)
(0.000423594 -0.00129672 0)
(0.000432943 -0.00128691 0)
(0.000406784 -0.0013038 0)
(0.000416344 -0.00129389 0)
(0.000390902 -0.00131068 0)
(0.000400668 -0.00130071 0)
(0.000375961 -0.00131738 0)
(0.000385905 -0.00130735 0)
(0.000361949 -0.00132389 0)
(0.000372035 -0.00131382 0)
(0.000348841 -0.00133019 0)
(0.000359042 -0.00132009 0)
(0.000336609 -0.00133628 0)
(0.000346905 -0.00132616 0)
(0.000325236 -0.00134214 0)
(0.000335586 -0.001332 0)
(0.000314687 -0.00134775 0)
(0.000325038 -0.00133759 0)
(0.000304915 -0.0013531 0)
(0.000315232 -0.00134293 0)
(0.000295868 -0.00135816 0)
(0.000306126 -0.00134799 0)
(0.000287531 -0.00136294 0)
(0.000297686 -0.00135275 0)
(0.000279832 -0.00136739 0)
(0.000289813 -0.00135716 0)
(0.00076562 -0.000634773 0)
(0.000791003 -0.000663845 0)
(0.000773285 -0.000682248 0)
(0.000797939 -0.000710574 0)
(0.000779693 -0.000728147 0)
(0.000803636 -0.000755458 0)
(0.000784719 -0.000772336 0)
(0.000807935 -0.000798339 0)
(0.000788261 -0.000814613 0)
(0.000810746 -0.000839206 0)
(0.000790247 -0.000854989 0)
(0.000811974 -0.000878066 0)
(0.0007906 -0.000893459 0)
(0.000811525 -0.000914891 0)
(0.000789241 -0.000929986 0)
(0.000809299 -0.000949621 0)
(0.000786085 -0.000964506 0)
(0.000805206 -0.000982183 0)
(0.000781057 -0.000996936 0)
(0.000799168 -0.0010125 0)
(0.000774096 -0.00102719 0)
(0.00079113 -0.00104049 0)
(0.000765167 -0.00105518 0)
(0.000781066 -0.00106609 0)
(0.000754268 -0.00108084 0)
(0.00076899 -0.00108927 0)
(0.000741434 -0.00110412 0)
(0.000754963 -0.00111002 0)
(0.000726739 -0.00112502 0)
(0.000739095 -0.0011284 0)
(0.000710312 -0.00114357 0)
(0.000721558 -0.00114451 0)
(0.000692332 -0.00115989 0)
(0.000702579 -0.00115854 0)
(0.000673028 -0.00117414 0)
(0.000682431 -0.00117074 0)
(0.000652682 -0.00118657 0)
(0.000661428 -0.0011814 0)
(0.000631602 -0.00119745 0)
(0.000639896 -0.00119083 0)
(0.00061012 -0.00120711 0)
(0.000618159 -0.00119933 0)
(0.000588545 -0.00121582 0)
(0.000596508 -0.00120718 0)
(0.000567159 -0.00122387 0)
(0.000575194 -0.00121461 0)
(0.000546205 -0.00123147 0)
(0.000554418 -0.00122177 0)
(0.000525862 -0.00123877 0)
(0.000534322 -0.00122877 0)
(0.000506255 -0.00124589 0)
(0.000514994 -0.00123568 0)
(0.000487465 -0.00125288 0)
(0.000496489 -0.00124252 0)
(0.000469534 -0.00125978 0)
(0.00047884 -0.00124929 0)
(0.000452485 -0.00126658 0)
(0.000462061 -0.00125601 0)
(0.000436331 -0.00127329 0)
(0.000446151 -0.00126265 0)
(0.000421066 -0.0012799 0)
(0.000431093 -0.00126918 0)
(0.00040667 -0.00128638 0)
(0.000416866 -0.00127559 0)
(0.000393117 -0.00129271 0)
(0.000403451 -0.00128185 0)
(0.000380382 -0.00129886 0)
(0.000390837 -0.00128796 0)
(0.000368454 -0.00130483 0)
(0.000378991 -0.00129389 0)
(0.000357301 -0.0013106 0)
(0.000367878 -0.00129961 0)
(0.000346883 -0.00131615 0)
(0.000357444 -0.00130511 0)
(0.000337161 -0.00132145 0)
(0.000347682 -0.00131037 0)
(0.000328078 -0.00132647 0)
(0.000338551 -0.00131538 0)
(0.000319631 -0.00133123 0)
(0.000329978 -0.00132008 0)
(0.00083106 -0.00067629 0)
(0.000855108 -0.00070519 0)
(0.000838296 -0.000722124 0)
(0.00086155 -0.000750162 0)
(0.000844274 -0.000766143 0)
(0.000866726 -0.000793058 0)
(0.000848876 -0.000808223 0)
(0.000870489 -0.000833701 0)
(0.000851997 -0.000848141 0)
(0.00087274 -0.000872037 0)
(0.000853538 -0.000885866 0)
(0.000873359 -0.000908025 0)
(0.000853388 -0.000921355 0)
(0.000872214 -0.00094159 0)
(0.000851429 -0.000954537 0)
(0.000869186 -0.000972657 0)
(0.00084754 -0.000985331 0)
(0.000864157 -0.00100115 0)
(0.000841614 -0.00101366 0)
(0.00085703 -0.00102701 0)
(0.000833574 -0.00103947 0)
(0.000847744 -0.00105021 0)
(0.00082338 -0.00106272 0)
(0.000836283 -0.00107076 0)
(0.000811042 -0.00108341 0)
(0.000822693 -0.00108872 0)
(0.000796625 -0.0011016 0)
(0.000807079 -0.00110421 0)
(0.000780257 -0.00111738 0)
(0.000789621 -0.00111743 0)
(0.000762131 -0.00113094 0)
(0.000770565 -0.00112865 0)
(0.000742522 -0.00114254 0)
(0.000750225 -0.0011382 0)
(0.000721753 -0.00115249 0)
(0.000728951 -0.00114644 0)
(0.000700188 -0.00116114 0)
(0.000707105 -0.00115373 0)
(0.000678188 -0.00116885 0)
(0.000685033 -0.00116041 0)
(0.00065609 -0.00117591 0)
(0.000663038 -0.00116673 0)
(0.000634186 -0.00118259 0)
(0.000641363 -0.00117288 0)
(0.000612698 -0.00118908 0)
(0.000620187 -0.00117901 0)
(0.000591784 -0.0011955 0)
(0.00059963 -0.00118516 0)
(0.000571553 -0.00120192 0)
(0.000579767 -0.00119138 0)
(0.000552069 -0.00120836 0)
(0.000560643 -0.00119766 0)
(0.000533369 -0.00121483 0)
(0.000542292 -0.00120399 0)
(0.000515477 -0.00122131 0)
(0.00052473 -0.00121035 0)
(0.000498405 -0.00122779 0)
(0.00050796 -0.00121672 0)
(0.000482155 -0.00123425 0)
(0.00049198 -0.00122308 0)
(0.000466716 -0.00124066 0)
(0.000476775 -0.00122938 0)
(0.000452073 -0.00124699 0)
(0.000462325 -0.00123561 0)
(0.000438206 -0.00125322 0)
(0.000448626 -0.00124175 0)
(0.000425097 -0.00125932 0)
(0.000435668 -0.00124778 0)
(0.000412737 -0.00126529 0)
(0.00042342 -0.00125367 0)
(0.000401098 -0.00127109 0)
(0.000411849 -0.0012594 0)
(0.000390148 -0.00127672 0)
(0.000400922 -0.00126495 0)
(0.000379837 -0.00128213 0)
(0.000390612 -0.0012703 0)
(0.000370149 -0.00128732 0)
(0.000380892 -0.00127543 0)
(0.000361034 -0.00129227 0)
(0.000371699 -0.0012803 0)
(0.0008934 -0.000718496 0)
(0.00091607 -0.000746934 0)
(0.000899911 -0.00076259 0)
(0.000921671 -0.000789998 0)
(0.00090513 -0.000804592 0)
(0.000925955 -0.000830691 0)
(0.000908933 -0.000844365 0)
(0.000928761 -0.000868799 0)
(0.000911199 -0.000881639 0)
(0.000929968 -0.00090421 0)
(0.000911806 -0.000916329 0)
(0.000929434 -0.000936825 0)
(0.000910618 -0.000948347 0)
(0.000927027 -0.000966556 0)
(0.000907494 -0.000977598 0)
(0.000922618 -0.000993325 0)
(0.000902314 -0.00100402 0)
(0.000916099 -0.00101709 0)
(0.00089499 -0.00102757 0)
(0.000907404 -0.00103785 0)
(0.00088546 -0.00104826 0)
(0.000896506 -0.00105567 0)
(0.000873709 -0.00106614 0)
(0.000883436 -0.00107068 0)
(0.000859777 -0.00108135 0)
(0.000868287 -0.0010831 0)
(0.00084378 -0.00109406 0)
(0.000851231 -0.00109322 0)
(0.000825932 -0.00110458 0)
(0.000832533 -0.00110142 0)
(0.000806527 -0.00111325 0)
(0.000812522 -0.00110814 0)
(0.000785919 -0.00112049 0)
(0.000791565 -0.00111379 0)
(0.000764493 -0.0011267 0)
(0.000770034 -0.0011188 0)
(0.000742631 -0.00113227 0)
(0.000748272 -0.0011235 0)
(0.00072066 -0.00113752 0)
(0.000726556 -0.00112812 0)
(0.00069885 -0.00114267 0)
(0.000705104 -0.00113283 0)
(0.000677394 -0.00114787 0)
(0.000684066 -0.00113771 0)
(0.000656427 -0.0011532 0)
(0.000663541 -0.0011428 0)
(0.00063604 -0.00115869 0)
(0.000643593 -0.00114808 0)
(0.000616288 -0.00116433 0)
(0.000624266 -0.00115354 0)
(0.000597208 -0.00117012 0)
(0.000605596 -0.00115915 0)
(0.00057883 -0.00117602 0)
(0.000587606 -0.0011649 0)
(0.000561174 -0.00118201 0)
(0.00057031 -0.00117075 0)
(0.000544249 -0.00118807 0)
(0.000553714 -0.00117666 0)
(0.000528056 -0.00119415 0)
(0.000537815 -0.00118261 0)
(0.000512592 -0.00120024 0)
(0.000522606 -0.00118856 0)
(0.000497845 -0.0012063 0)
(0.000508083 -0.00119449 0)
(0.000483804 -0.0012123 0)
(0.000494248 -0.00120038 0)
(0.000470461 -0.00121823 0)
(0.00048108 -0.0012062 0)
(0.000457804 -0.00122406 0)
(0.000468558 -0.00121193 0)
(0.000445806 -0.00122977 0)
(0.00045666 -0.00121754 0)
(0.000434438 -0.00123534 0)
(0.000445369 -0.00122301 0)
(0.000423687 -0.00124075 0)
(0.000434635 -0.00122832 0)
(0.000413497 -0.00124598 0)
(0.000424448 -0.00123345 0)
(0.000403825 -0.00125099 0)
(0.00041475 -0.00123835 0)
(0.000952629 -0.000760728 0)
(0.000973807 -0.000788358 0)
(0.000958145 -0.000802823 0)
(0.000978261 -0.000829159 0)
(0.00096227 -0.000842482 0)
(0.000981265 -0.000867199 0)
(0.000964852 -0.000879531 0)
(0.000982639 -0.000902225 0)
(0.000965752 -0.000913649 0)
(0.000982246 -0.00093407 0)
(0.000964839 -0.000944704 0)
(0.000979959 -0.000962634 0)
(0.000961979 -0.000972587 0)
(0.000975664 -0.000987835 0)
(0.000957072 -0.00099724 0)
(0.000969273 -0.00100964 0)
(0.000950034 -0.00101864 0)
(0.000960735 -0.00102809 0)
(0.00094081 -0.00103684 0)
(0.000950045 -0.00104329 0)
(0.000929392 -0.00105193 0)
(0.000937252 -0.00105545 0)
(0.000915828 -0.00106413 0)
(0.000922462 -0.00106487 0)
(0.000900249 -0.00107373 0)
(0.000905858 -0.00107195 0)
(0.000882875 -0.00108114 0)
(0.000887723 -0.00107718 0)
(0.000864005 -0.00108683 0)
(0.000868377 -0.0010811 0)
(0.000844013 -0.0010913 0)
(0.000848186 -0.00108421 0)
(0.000823277 -0.00109503 0)
(0.000827496 -0.00108694 0)
(0.00080215 -0.00109842 0)
(0.000806607 -0.00108963 0)
(0.00078092 -0.00110176 0)
(0.000785747 -0.00109248 0)
(0.000759806 -0.00110526 0)
(0.00076508 -0.00109561 0)
(0.000738954 -0.00110901 0)
(0.000744717 -0.00109907 0)
(0.000718468 -0.00111306 0)
(0.000724728 -0.00110287 0)
(0.000698417 -0.00111739 0)
(0.000705164 -0.00110697 0)
(0.000678851 -0.001122 0)
(0.000686071 -0.00111135 0)
(0.000659815 -0.00112684 0)
(0.000667495 -0.00111599 0)
(0.00064135 -0.0011319 0)
(0.000649469 -0.00112087 0)
(0.000623486 -0.00113714 0)
(0.000632018 -0.00112593 0)
(0.000606243 -0.00114254 0)
(0.000615156 -0.00113115 0)
(0.00058963 -0.00114804 0)
(0.000598891 -0.00113648 0)
(0.000573653 -0.00115363 0)
(0.000583228 -0.00114189 0)
(0.000558313 -0.00115926 0)
(0.00056818 -0.00114736 0)
(0.000543612 -0.00116491 0)
(0.000553745 -0.00115287 0)
(0.000529547 -0.00117057 0)
(0.000539913 -0.00115838 0)
(0.000516108 -0.00117619 0)
(0.000526671 -0.00116386 0)
(0.000503281 -0.00118176 0)
(0.000514013 -0.00116929 0)
(0.000491053 -0.00118725 0)
(0.000501931 -0.00117465 0)
(0.000479413 -0.00119265 0)
(0.000490397 -0.00117992 0)
(0.000468331 -0.00119793 0)
(0.000479369 -0.00118507 0)
(0.000457751 -0.00120306 0)
(0.000468837 -0.00119007 0)
(0.000447656 -0.00120801 0)
(0.000458751 -0.00119488 0)