/*--------------------------------*- C++ -*----------------------------------*\
| =========                 |                                                 |
| \\      /  F ield         | OpenFOAM: The Open Source CFD Toolbox           |
|  \\    /   O peration     | Version:  v2012                                 |
|   \\  /    A nd           | Website:  www.openfoam.com                      |
|    \\/     M anipulation  |                                                 |
\*---------------------------------------------------------------------------*/
FoamFile
{
    version     2.0;
    format      ascii;
    class       volScalarField;
    location    "16";
    object      sigmaEq;
}
// * * * * * * * * * * * * * * * * * * * * * * * * * * * * * * * * * * * * * //

dimensions      [1 -1 -2 0 0 0 0];


internalField   nonuniform List<scalar> 
32000
(
7.87692e+07
7.77098e+07
6.97142e+07
7.24789e+07
6.51822e+07
6.72014e+07
6.0906e+07
6.33728e+07
5.81619e+07
6.10811e+07
5.70386e+07
6.00686e+07
5.73585e+07
6.0223e+07
5.88348e+07
6.13798e+07
6.11468e+07
6.332e+07
6.40129e+07
6.58081e+07
6.72126e+07
6.86449e+07
7.05765e+07
7.16769e+07
7.39856e+07
7.47926e+07
7.73499e+07
7.78943e+07
8.06143e+07
8.09284e+07
8.37478e+07
8.38601e+07
8.67181e+07
8.66553e+07
8.9516e+07
8.92989e+07
9.21413e+07
9.17863e+07
9.4582e+07
9.41049e+07
9.68448e+07
9.62577e+07
9.8945e+07
9.8256e+07
1.00882e+08
1.00098e+08
1.02677e+08
1.01804e+08
1.04353e+08
1.03399e+08
1.05931e+08
1.04903e+08
1.07445e+08
1.06354e+08
1.08924e+08
1.07782e+08
1.10403e+08
1.09227e+08
1.11911e+08
1.10724e+08
1.13471e+08
1.12304e+08
1.15086e+08
1.13974e+08
1.16762e+08
1.15732e+08
1.18477e+08
1.17571e+08
1.20198e+08
1.19432e+08
1.2192e+08
1.2134e+08
1.23473e+08
1.23196e+08
1.24823e+08
1.24788e+08
1.23031e+08
1.24475e+08
1.18257e+08
1.19581e+08
8.02e+07
7.68123e+07
6.9467e+07
7.13127e+07
6.41545e+07
6.597e+07
6.03215e+07
6.19087e+07
5.81635e+07
5.94605e+07
5.74492e+07
5.84686e+07
5.80381e+07
5.8751e+07
5.97333e+07
6.00695e+07
6.2253e+07
6.21676e+07
6.53065e+07
6.4803e+07
6.86598e+07
6.7776e+07
7.21472e+07
7.09324e+07
7.56534e+07
7.41562e+07
7.9086e+07
7.73563e+07
8.23913e+07
8.04772e+07
8.55452e+07
8.3484e+07
8.85227e+07
8.63486e+07
9.13047e+07
8.9051e+07
9.38959e+07
9.15883e+07
9.62981e+07
9.39572e+07
9.85106e+07
9.61554e+07
1.00552e+08
9.81925e+07
1.02435e+08
1.00079e+08
1.04176e+08
1.01828e+08
1.05811e+08
1.03465e+08
1.07357e+08
1.05013e+08
1.08852e+08
1.06499e+08
1.10331e+08
1.07959e+08
1.11819e+08
1.09427e+08
1.13343e+08
1.10933e+08
1.14908e+08
1.125e+08
1.16518e+08
1.14137e+08
1.1816e+08
1.15846e+08
1.19797e+08
1.17631e+08
1.21371e+08
1.1942e+08
1.2282e+08
1.21241e+08
1.24106e+08
1.23056e+08
1.25319e+08
1.24673e+08
1.24374e+08
1.25143e+08
1.20003e+08
1.20793e+08
8.01207e+07
7.71266e+07
6.98706e+07
7.09842e+07
6.43982e+07
6.55537e+07
6.00978e+07
6.15941e+07
5.76008e+07
5.92381e+07
5.67389e+07
5.83159e+07
5.72624e+07
5.86746e+07
5.89114e+07
6.00834e+07
6.13973e+07
6.22715e+07
6.4446e+07
6.49905e+07
6.78196e+07
6.80261e+07
7.13359e+07
7.12236e+07
7.48751e+07
7.44761e+07
7.83536e+07
7.7705e+07
8.17046e+07
8.08443e+07
8.48874e+07
8.38578e+07
8.7889e+07
8.67266e+07
9.06962e+07
8.9428e+07
9.33011e+07
9.1952e+07
9.57139e+07
9.43016e+07
9.79439e+07
9.6472e+07
1.00002e+08
9.847e+07
1.01917e+08
1.00311e+08
1.03707e+08
1.02007e+08
1.05401e+08
1.03584e+08
1.07036e+08
1.05068e+08
1.08636e+08
1.06491e+08
1.10231e+08
1.07893e+08
1.11835e+08
1.09306e+08
1.13465e+08
1.1076e+08
1.15116e+08
1.12277e+08
1.1678e+08
1.13871e+08
1.18435e+08
1.1553e+08
1.20056e+08
1.17261e+08
1.21588e+08
1.18986e+08
1.23029e+08
1.20721e+08
1.24315e+08
1.22464e+08
1.25459e+08
1.24231e+08
1.2615e+08
1.25623e+08
1.22598e+08
1.23459e+08
8.00513e+07
7.65925e+07
6.87698e+07
7.04464e+07
6.33455e+07
6.50556e+07
5.9306e+07
6.12126e+07
5.69901e+07
5.90573e+07
5.62531e+07
5.83756e+07
5.68947e+07
5.89631e+07
5.86533e+07
6.05612e+07
6.12302e+07
6.28974e+07
6.4352e+07
6.57271e+07
6.7794e+07
6.88585e+07
7.13814e+07
7.21339e+07
7.49815e+07
7.54368e+07
7.85059e+07
7.86958e+07
8.19022e+07
8.18646e+07
8.51323e+07
8.48942e+07
8.81669e+07
8.77538e+07
9.09964e+07
9.04391e+07
9.36269e+07
9.2937e+07
9.60572e+07
9.52302e+07
9.82953e+07
9.73318e+07
1.00368e+08
9.92475e+07
1.02291e+08
1.00987e+08
1.04091e+08
1.02577e+08
1.05798e+08
1.04039e+08
1.07437e+08
1.05411e+08
1.09035e+08
1.06734e+08
1.10606e+08
1.08044e+08
1.12167e+08
1.09375e+08
1.1372e+08
1.10756e+08
1.15259e+08
1.12197e+08
1.16785e+08
1.13709e+08
1.18278e+08
1.15267e+08
1.19736e+08
1.16878e+08
1.21122e+08
1.18464e+08
1.22464e+08
1.20068e+08
1.23689e+08
1.21652e+08
1.25012e+08
1.23373e+08
1.26135e+08
1.24859e+08
1.25352e+08
1.25783e+08
7.94456e+07
7.55771e+07
6.78249e+07
6.94714e+07
6.2239e+07
6.43225e+07
5.82905e+07
6.07896e+07
5.62092e+07
5.89694e+07
5.57534e+07
5.86211e+07
5.66659e+07
5.95203e+07
5.86689e+07
6.13964e+07
6.14566e+07
6.39628e+07
6.47472e+07
6.697e+07
6.83175e+07
7.0224e+07
7.2002e+07
7.35918e+07
7.56851e+07
7.69762e+07
7.92832e+07
8.02919e+07
8.2732e+07
8.34726e+07
8.59887e+07
8.6491e+07
8.90411e+07
8.93277e+07
9.18815e+07
9.19474e+07
9.44992e+07
9.43392e+07
9.69017e+07
9.6513e+07
9.91106e+07
9.8463e+07
1.01139e+08
1.00204e+08
1.03015e+08
1.01765e+08
1.04767e+08
1.0317e+08
1.06414e+08
1.04467e+08
1.07985e+08
1.05696e+08
1.09498e+08
1.06903e+08
1.10965e+08
1.08127e+08
1.124e+08
1.09397e+08
1.13802e+08
1.10731e+08
1.1518e+08
1.1212e+08
1.16542e+08
1.13575e+08
1.17869e+08
1.15054e+08
1.19181e+08
1.16563e+08
1.20447e+08
1.18052e+08
1.21686e+08
1.19519e+08
1.22893e+08
1.20971e+08
1.24118e+08
1.22453e+08
1.25492e+08
1.24039e+08
1.26586e+08
1.25202e+08
7.82189e+07
7.40294e+07
6.64612e+07
6.80644e+07
6.09125e+07
6.32812e+07
5.71825e+07
6.02022e+07
5.54134e+07
5.88618e+07
5.53171e+07
5.89808e+07
5.65888e+07
6.02929e+07
5.8911e+07
6.25016e+07
6.19611e+07
6.53265e+07
6.54653e+07
6.85406e+07
6.92098e+07
7.19655e+07
7.30361e+07
7.54582e+07
7.68243e+07
7.89075e+07
8.04864e+07
8.22399e+07
8.39687e+07
8.54145e+07
8.72468e+07
8.83884e+07
9.02954e+07
9.1117e+07
9.30942e+07
9.35878e+07
9.56495e+07
9.58042e+07
9.79801e+07
9.77601e+07
1.00096e+08
9.94725e+07
1.02024e+08
1.00974e+08
1.03795e+08
1.023e+08
1.05427e+08
1.03505e+08
1.06952e+08
1.04639e+08
1.08389e+08
1.05752e+08
1.09752e+08
1.06888e+08
1.11063e+08
1.08074e+08
1.12339e+08
1.09321e+08
1.13586e+08
1.10628e+08
1.14832e+08
1.11981e+08
1.16079e+08
1.1339e+08
1.17305e+08
1.14799e+08
1.18538e+08
1.1621e+08
1.1975e+08
1.17621e+08
1.20926e+08
1.1896e+08
1.22144e+08
1.20295e+08
1.23323e+08
1.21675e+08
1.24619e+08
1.23021e+08
1.259e+08
1.24172e+08
7.64791e+07
7.20559e+07
6.48726e+07
6.63003e+07
5.94597e+07
6.19761e+07
5.60338e+07
5.9456e+07
5.46539e+07
5.8698e+07
5.49801e+07
5.93644e+07
5.66557e+07
6.11536e+07
5.93314e+07
6.3762e+07
6.26777e+07
6.69103e+07
6.64194e+07
7.03662e+07
7.03451e+07
7.39518e+07
7.42974e+07
7.75345e+07
7.81632e+07
8.10194e+07
8.18685e+07
8.4341e+07
8.53683e+07
8.74392e+07
8.86214e+07
9.02645e+07
9.15999e+07
9.27966e+07
9.43039e+07
9.50344e+07
9.67488e+07
9.69752e+07
9.89443e+07
9.86372e+07
1.00915e+08
1.00063e+08
1.02693e+08
1.01301e+08
1.04301e+08
1.02416e+08
1.05774e+08
1.03465e+08
1.07133e+08
1.04506e+08
1.08402e+08
1.05582e+08
1.09611e+08
1.06713e+08
1.10793e+08
1.07904e+08
1.11957e+08
1.09162e+08
1.13111e+08
1.10455e+08
1.14292e+08
1.11771e+08
1.1549e+08
1.13122e+08
1.1667e+08
1.14457e+08
1.17855e+08
1.15755e+08
1.1906e+08
1.17062e+08
1.20207e+08
1.18339e+08
1.21353e+08
1.1956e+08
1.22599e+08
1.20802e+08
1.23751e+08
1.22081e+08
1.24976e+08
1.23006e+08
7.43402e+07
6.96605e+07
6.30755e+07
6.41914e+07
5.79487e+07
6.04275e+07
5.49558e+07
5.85636e+07
5.40523e+07
5.84746e+07
5.48436e+07
5.97637e+07
5.69361e+07
6.20877e+07
5.99606e+07
6.51249e+07
6.35808e+07
6.85951e+07
6.7525e+07
7.2276e+07
7.15899e+07
7.59988e+07
7.56289e+07
7.96395e+07
7.95385e+07
8.31053e+07
8.32464e+07
8.6323e+07
8.66972e+07
8.92396e+07
8.98551e+07
9.18258e+07
9.27086e+07
9.40739e+07
9.52657e+07
9.59884e+07
9.75394e+07
9.75941e+07
9.95516e+07
9.89444e+07
1.01336e+08
1.00103e+08
1.02923e+08
1.01145e+08
1.04349e+08
1.02138e+08
1.05645e+08
1.03142e+08
1.06848e+08
1.04193e+08
1.07996e+08
1.05306e+08
1.09123e+08
1.06476e+08
1.10251e+08
1.077e+08
1.11382e+08
1.08962e+08
1.12526e+08
1.10227e+08
1.13702e+08
1.11494e+08
1.14888e+08
1.12775e+08
1.16047e+08
1.14033e+08
1.17193e+08
1.15234e+08
1.18351e+08
1.16432e+08
1.19495e+08
1.1763e+08
1.20586e+08
1.18772e+08
1.21699e+08
1.19893e+08
1.22948e+08
1.21043e+08
1.2407e+08
1.22026e+08
7.17267e+07
6.68754e+07
6.10768e+07
6.18132e+07
5.64151e+07
5.87072e+07
5.39897e+07
5.75728e+07
5.36528e+07
5.82035e+07
5.49522e+07
6.01438e+07
5.74591e+07
6.30124e+07
6.07937e+07
6.64731e+07
6.46284e+07
7.02435e+07
6.87081e+07
7.41083e+07
7.2846e+07
7.7909e+07
7.69058e+07
8.15266e+07
8.07854e+07
8.48722e+07
8.44113e+07
8.78863e+07
8.77378e+07
9.05326e+07
9.07409e+07
9.27978e+07
9.34157e+07
9.46932e+07
9.57745e+07
9.62553e+07
9.78381e+07
9.75484e+07
9.96377e+07
9.8655e+07
1.01214e+08
9.9661e+07
1.02609e+08
1.00642e+08
1.03873e+08
1.01653e+08
1.05055e+08
1.02722e+08
1.06196e+08
1.03856e+08
1.07328e+08
1.05039e+08
1.08472e+08
1.06256e+08
1.0963e+08
1.07497e+08
1.10792e+08
1.08736e+08
1.11963e+08
1.09956e+08
1.13143e+08
1.11162e+08
1.1432e+08
1.12368e+08
1.15456e+08
1.13552e+08
1.16558e+08
1.14677e+08
1.17666e+08
1.15766e+08
1.18767e+08
1.16871e+08
1.19818e+08
1.17968e+08
1.20863e+08
1.18987e+08
1.21952e+08
1.20015e+08
1.23165e+08
1.20947e+08
6.88017e+07
6.38051e+07
5.89437e+07
5.9247e+07
5.4927e+07
5.68918e+07
5.3208e+07
5.65511e+07
5.35148e+07
5.79279e+07
5.53375e+07
6.05115e+07
5.82261e+07
6.38867e+07
6.18074e+07
6.77048e+07
6.57755e+07
7.1692e+07
6.99008e+07
7.5646e+07
7.40147e+07
7.94184e+07
7.79923e+07
8.29036e+07
8.17428e+07
8.6031e+07
8.52055e+07
8.87582e+07
8.83433e+07
9.10701e+07
9.11382e+07
9.29797e+07
9.3591e+07
9.45341e+07
9.57169e+07
9.58147e+07
9.75461e+07
9.69196e+07
9.91297e+07
9.79447e+07
1.00526e+08
9.89688e+07
1.018e+08
1.00039e+08
1.03014e+08
1.0117e+08
1.04208e+08
1.02359e+08
1.05405e+08
1.03583e+08
1.06615e+08
1.04818e+08
1.07836e+08
1.06052e+08
1.09052e+08
1.07277e+08
1.10257e+08
1.08474e+08
1.11446e+08
1.09644e+08
1.1262e+08
1.1079e+08
1.13773e+08
1.11924e+08
1.14877e+08
1.13034e+08
1.15936e+08
1.1409e+08
1.16982e+08
1.15104e+08
1.18016e+08
1.16102e+08
1.19051e+08
1.17112e+08
1.20027e+08
1.18117e+08
1.2104e+08
1.1904e+08
1.22131e+08
1.1987e+08
6.55761e+07
6.05213e+07
5.66566e+07
5.66129e+07
5.34673e+07
5.51068e+07
5.25766e+07
5.5592e+07
5.35806e+07
5.76908e+07
5.59266e+07
6.08463e+07
5.91564e+07
6.46166e+07
6.29156e+07
6.86635e+07
6.69329e+07
7.2732e+07
7.10068e+07
7.66385e+07
7.49936e+07
8.02586e+07
7.87936e+07
8.35119e+07
8.23373e+07
8.63487e+07
8.55749e+07
8.87477e+07
8.84749e+07
9.07237e+07
9.10184e+07
9.23347e+07
9.32076e+07
9.36738e+07
9.50727e+07
9.48519e+07
9.66789e+07
9.59701e+07
9.81058e+07
9.71046e+07
9.94387e+07
9.82881e+07
1.0074e+08
9.95258e+07
1.02043e+08
1.00803e+08
1.03358e+08
1.0209e+08
1.0468e+08
1.03365e+08
1.05992e+08
1.04616e+08
1.07282e+08
1.0584e+08
1.08542e+08
1.0703e+08
1.09766e+08
1.08186e+08
1.10951e+08
1.09307e+08
1.12103e+08
1.10392e+08
1.1322e+08
1.11457e+08
1.14283e+08
1.12496e+08
1.15298e+08
1.13486e+08
1.16289e+08
1.14438e+08
1.17261e+08
1.1535e+08
1.18223e+08
1.16273e+08
1.19182e+08
1.17204e+08
1.20126e+08
1.181e+08
1.21138e+08
1.18852e+08
6.21756e+07
5.71663e+07
5.42549e+07
5.40306e+07
5.20046e+07
5.34446e+07
5.20008e+07
5.47514e+07
5.37113e+07
5.74885e+07
5.65549e+07
6.1073e+07
6.00839e+07
6.50804e+07
6.39757e+07
6.91944e+07
6.7984e+07
7.31842e+07
7.19414e+07
7.69044e+07
7.57436e+07
8.02685e+07
7.93244e+07
8.32239e+07
8.26333e+07
8.57432e+07
8.56181e+07
8.78388e+07
8.82256e+07
8.95783e+07
9.04499e+07
9.1065e+07
9.23266e+07
9.2413e+07
9.39484e+07
9.3716e+07
9.54269e+07
9.50379e+07
9.68581e+07
9.63984e+07
9.82917e+07
9.77921e+07
9.97464e+07
9.91915e+07
1.01213e+08
1.00566e+08
1.02669e+08
1.01897e+08
1.0409e+08
1.03182e+08
1.05465e+08
1.04422e+08
1.06791e+08
1.05617e+08
1.08064e+08
1.0677e+08
1.09283e+08
1.07878e+08
1.10449e+08
1.08942e+08
1.1157e+08
1.09968e+08
1.12644e+08
1.10975e+08
1.13662e+08
1.11949e+08
1.14638e+08
1.12876e+08
1.15576e+08
1.13766e+08
1.16486e+08
1.14623e+08
1.1739e+08
1.15457e+08
1.18309e+08
1.16321e+08
1.19204e+08
1.1718e+08
1.20155e+08
1.17877e+08
5.86618e+07
5.38495e+07
5.17288e+07
5.15932e+07
5.0458e+07
5.1955e+07
5.13298e+07
5.40082e+07
5.37042e+07
5.72344e+07
5.7007e+07
6.10843e+07
6.08143e+07
6.5159e+07
6.48174e+07
6.91786e+07
6.88117e+07
7.29704e+07
7.26787e+07
7.6432e+07
7.63505e+07
7.95002e+07
7.97687e+07
8.21413e+07
8.28472e+07
8.43803e+07
8.54943e+07
8.63036e+07
8.77067e+07
8.80098e+07
8.95515e+07
8.9615e+07
9.11625e+07
9.11949e+07
9.26893e+07
9.27821e+07
9.42259e+07
9.43755e+07
9.57977e+07
9.59594e+07
9.74033e+07
9.75015e+07
9.90181e+07
9.89811e+07
1.00607e+08
1.00391e+08
1.02141e+08
1.01733e+08
1.03609e+08
1.03012e+08
1.0501e+08
1.04233e+08
1.06344e+08
1.054e+08
1.07611e+08
1.06511e+08
1.08811e+08
1.07569e+08
1.09949e+08
1.08584e+08
1.11024e+08
1.09562e+08
1.12052e+08
1.10507e+08
1.13033e+08
1.11411e+08
1.13964e+08
1.12276e+08
1.14852e+08
1.13106e+08
1.15709e+08
1.1391e+08
1.16556e+08
1.14679e+08
1.17422e+08
1.15477e+08
1.18291e+08
1.16269e+08
1.19201e+08
1.16932e+08
5.50881e+07
5.06559e+07
4.90803e+07
4.93169e+07
4.87404e+07
5.05729e+07
5.04173e+07
5.32376e+07
5.33931e+07
5.67955e+07
5.71168e+07
6.07591e+07
6.11895e+07
6.47908e+07
6.535e+07
6.86677e+07
6.94378e+07
7.22475e+07
7.33573e+07
7.54399e+07
7.70183e+07
7.82043e+07
8.02686e+07
8.05893e+07
8.29671e+07
8.27084e+07
8.51388e+07
8.46592e+07
8.69145e+07
8.65612e+07
8.85048e+07
8.84616e+07
9.00848e+07
9.03487e+07
9.17275e+07
9.21964e+07
9.34241e+07
9.3981e+07
9.5147e+07
9.5677e+07
9.68693e+07
9.72799e+07
9.8556e+07
9.87882e+07
1.00174e+08
1.00204e+08
1.01711e+08
1.01538e+08
1.03168e+08
1.02798e+08
1.04553e+08
1.0399e+08
1.05864e+08
1.05113e+08
1.07099e+08
1.06173e+08
1.08262e+08
1.07182e+08
1.09363e+08
1.08155e+08
1.10408e+08
1.09089e+08
1.114e+08
1.09979e+08
1.12338e+08
1.10828e+08
1.13227e+08
1.11642e+08
1.14074e+08
1.12425e+08
1.14891e+08
1.13178e+08
1.15698e+08
1.13901e+08
1.16527e+08
1.14645e+08
1.17356e+08
1.15396e+08
1.18244e+08
1.16013e+08
5.14198e+07
4.76002e+07
4.62797e+07
4.71266e+07
4.67934e+07
4.91395e+07
4.92139e+07
5.2276e+07
5.27497e+07
5.60608e+07
5.68927e+07
6.00888e+07
6.13015e+07
6.40748e+07
6.57467e+07
6.78084e+07
7.00643e+07
7.11501e+07
7.40911e+07
7.40785e+07
7.7603e+07
7.66911e+07
8.04377e+07
7.912e+07
8.26328e+07
8.14332e+07
8.44203e+07
8.3721e+07
8.61153e+07
8.59813e+07
8.78451e+07
8.8166e+07
8.96327e+07
9.02281e+07
9.14371e+07
9.21403e+07
9.32199e+07
9.39147e+07
9.4955e+07
9.5587e+07
9.66602e+07
9.71645e+07
9.83017e+07
9.86434e+07
9.98585e+07
1.00028e+08
1.01334e+08
1.01318e+08
1.02738e+08
1.02524e+08
1.04077e+08
1.03657e+08
1.05341e+08
1.04721e+08
1.06529e+08
1.05737e+08
1.0765e+08
1.06711e+08
1.08712e+08
1.07641e+08
1.09718e+08
1.08523e+08
1.10667e+08
1.09362e+08
1.11564e+08
1.1017e+08
1.12417e+08
1.10948e+08
1.13234e+08
1.11697e+08
1.14017e+08
1.1242e+08
1.14784e+08
1.13113e+08
1.15571e+08
1.13819e+08
1.16389e+08
1.14523e+08
1.17258e+08
1.15116e+08
4.758e+07
4.4625e+07
4.33188e+07
4.48766e+07
4.46667e+07
4.75049e+07
4.78424e+07
5.10391e+07
5.19956e+07
5.50282e+07
5.66731e+07
5.91163e+07
6.15436e+07
6.30045e+07
6.6359e+07
6.65202e+07
7.08478e+07
6.97102e+07
7.46158e+07
7.27137e+07
7.75101e+07
7.57028e+07
7.98348e+07
7.85963e+07
8.18353e+07
8.13655e+07
8.38996e+07
8.39515e+07
8.60181e+07
8.63482e+07
8.81218e+07
8.85391e+07
9.01357e+07
9.05611e+07
9.20156e+07
9.24421e+07
9.37738e+07
9.41752e+07
9.54877e+07
9.57753e+07
9.70908e+07
9.72969e+07
9.85656e+07
9.8716e+07
9.99588e+07
9.99841e+07
1.01279e+08
1.01161e+08
1.02543e+08
1.0228e+08
1.03765e+08
1.03327e+08
1.04917e+08
1.04328e+08
1.06006e+08
1.05282e+08
1.07043e+08
1.06185e+08
1.08037e+08
1.07039e+08
1.08978e+08
1.07852e+08
1.09867e+08
1.08645e+08
1.10714e+08
1.09416e+08
1.11524e+08
1.10157e+08
1.12303e+08
1.1087e+08
1.13061e+08
1.11566e+08
1.13815e+08
1.12252e+08
1.14583e+08
1.12945e+08
1.15379e+08
1.13635e+08
1.16237e+08
1.14218e+08
4.35082e+07
4.16194e+07
4.03072e+07
4.24623e+07
4.25564e+07
4.56149e+07
4.66135e+07
4.95286e+07
5.15927e+07
5.37209e+07
5.69969e+07
5.78136e+07
6.24577e+07
6.16365e+07
6.73356e+07
6.52844e+07
7.12698e+07
6.88692e+07
7.38618e+07
7.26104e+07
7.60933e+07
7.53368e+07
7.77899e+07
7.77943e+07
7.99851e+07
8.03563e+07
8.24549e+07
8.28126e+07
8.49468e+07
8.51263e+07
8.73948e+07
8.73055e+07
8.97835e+07
8.93573e+07
9.20604e+07
9.12966e+07
9.38486e+07
9.34099e+07
9.55875e+07
9.52643e+07
9.72102e+07
9.67505e+07
9.86825e+07
9.816e+07
9.99784e+07
9.95384e+07
1.01191e+08
1.00756e+08
1.02451e+08
1.01858e+08
1.03562e+08
1.02942e+08
1.04607e+08
1.03924e+08
1.05598e+08
1.04818e+08
1.06556e+08
1.05665e+08
1.07459e+08
1.06447e+08
1.08327e+08
1.07218e+08
1.09158e+08
1.07966e+08
1.09953e+08
1.08682e+08
1.10714e+08
1.09368e+08
1.1145e+08
1.10036e+08
1.12173e+08
1.10703e+08
1.12895e+08
1.11376e+08
1.13633e+08
1.12051e+08
1.14402e+08
1.12729e+08
1.15242e+08
1.13328e+08
3.93316e+07
3.85239e+07
3.74156e+07
3.99511e+07
4.07939e+07
4.36396e+07
4.61002e+07
4.80068e+07
5.22027e+07
5.25467e+07
5.84312e+07
5.70264e+07
6.37506e+07
6.15518e+07
6.69809e+07
6.55736e+07
6.81655e+07
6.74406e+07
6.98868e+07
7.00675e+07
7.24217e+07
7.27079e+07
7.49608e+07
7.51442e+07
7.74626e+07
7.74962e+07
7.9922e+07
7.98162e+07
8.23094e+07
8.20928e+07
8.45993e+07
8.43036e+07
8.67971e+07
8.64311e+07
8.89914e+07
8.8469e+07
9.11694e+07
9.05175e+07
9.32948e+07
9.25257e+07
9.53198e+07
9.43802e+07
9.72796e+07
9.61001e+07
9.91112e+07
9.77537e+07
1.00416e+08
9.95987e+07
1.0162e+08
1.00742e+08
1.02689e+08
1.01822e+08
1.03725e+08
1.02849e+08
1.04726e+08
1.03845e+08
1.05686e+08
1.04712e+08
1.06574e+08
1.05567e+08
1.07416e+08
1.06349e+08
1.08207e+08
1.07062e+08
1.08958e+08
1.07729e+08
1.09683e+08
1.0838e+08
1.10402e+08
1.09043e+08
1.11114e+08
1.09704e+08
1.11824e+08
1.10357e+08
1.12546e+08
1.11013e+08
1.13296e+08
1.11677e+08
1.14114e+08
1.12291e+08
3.51631e+07
3.55543e+07
3.49428e+07
3.77738e+07
4.01199e+07
4.23045e+07
4.72318e+07
4.76642e+07
5.45683e+07
5.34163e+07
5.93878e+07
5.79772e+07
6.0073e+07
5.96054e+07
6.2016e+07
6.22688e+07
6.44517e+07
6.48258e+07
6.6979e+07
6.71722e+07
6.94625e+07
6.9485e+07
7.19206e+07
7.1823e+07
7.43762e+07
7.41591e+07
7.68093e+07
7.64696e+07
7.91923e+07
7.87394e+07
8.15093e+07
8.09586e+07
8.37592e+07
8.31309e+07
8.59488e+07
8.52894e+07
8.80832e+07
8.74019e+07
9.01064e+07
8.94235e+07
9.19793e+07
9.13341e+07
9.37427e+07
9.31237e+07
9.55492e+07
9.47933e+07
9.74088e+07
9.65707e+07
9.91333e+07
9.8185e+07
1.00737e+08
9.96722e+07
1.02209e+08
1.01058e+08
1.03395e+08
1.02457e+08
1.04295e+08
1.03334e+08
1.05118e+08
1.04171e+08
1.05953e+08
1.04981e+08
1.06779e+08
1.05764e+08
1.0759e+08
1.06508e+08
1.08362e+08
1.07239e+08
1.09075e+08
1.07899e+08
1.09779e+08
1.08528e+08
1.10475e+08
1.09144e+08
1.11177e+08
1.09772e+08
1.11909e+08
1.10441e+08
1.12704e+08
1.11091e+08
3.12677e+07
3.3568e+07
3.44625e+07
3.72345e+07
4.23279e+07
4.36471e+07
5.05211e+07
5.09186e+07
5.29642e+07
5.23511e+07
5.46084e+07
5.4862e+07
5.68395e+07
5.72966e+07
5.91959e+07
5.94895e+07
6.15554e+07
6.17515e+07
6.39847e+07
6.40415e+07
6.64468e+07
6.63353e+07
6.89033e+07
6.86453e+07
7.13388e+07
7.09658e+07
7.37412e+07
7.32767e+07
7.60979e+07
7.55596e+07
7.8401e+07
7.78051e+07
8.06509e+07
8.00144e+07
8.2847e+07
8.21905e+07
8.49794e+07
8.43113e+07
8.70305e+07
8.63497e+07
8.89906e+07
8.8299e+07
9.08655e+07
9.01745e+07
9.26648e+07
9.20127e+07
9.43769e+07
9.37563e+07
9.59499e+07
9.53842e+07
9.74071e+07
9.68873e+07
9.88673e+07
9.82918e+07
1.00402e+08
9.9758e+07
1.01805e+08
1.01078e+08
1.03089e+08
1.0229e+08
1.04252e+08
1.03393e+08
1.05195e+08
1.04313e+08
1.05867e+08
1.04977e+08
1.06544e+08
1.05651e+08
1.07252e+08
1.06333e+08
1.07969e+08
1.07022e+08
1.08679e+08
1.07713e+08
1.09412e+08
1.08427e+08
1.10183e+08
1.09142e+08
1.10983e+08
1.09822e+08
3.01848e+07
3.43073e+07
3.81673e+07
4.106e+07
4.6374e+07
4.60492e+07
4.79262e+07
4.86581e+07
5.00952e+07
5.09037e+07
5.22219e+07
5.27759e+07
5.43553e+07
5.47643e+07
5.65849e+07
5.68163e+07
5.88782e+07
5.89452e+07
6.1221e+07
6.115e+07
6.36028e+07
6.34089e+07
6.60054e+07
6.5701e+07
6.84072e+07
6.80082e+07
7.0789e+07
7.03135e+07
7.31366e+07
7.26022e+07
7.54417e+07
7.48648e+07
7.76989e+07
7.70957e+07
7.99019e+07
7.92852e+07
8.20403e+07
8.14174e+07
8.41037e+07
8.34781e+07
8.60892e+07
8.5464e+07
8.80019e+07
8.73833e+07
8.98417e+07
8.92437e+07
9.15984e+07
9.10175e+07
9.32615e+07
9.26961e+07
9.48333e+07
9.4288e+07
9.63196e+07
9.58149e+07
9.7707e+07
9.72484e+07
9.89707e+07
9.85728e+07
1.00135e+08
9.97961e+07
1.01283e+08
1.00962e+08
1.02461e+08
1.02098e+08
1.03533e+08
1.03126e+08
1.04523e+08
1.04085e+08
1.05458e+08
1.04973e+08
1.06324e+08
1.05726e+08
1.07001e+08
1.06352e+08
1.07611e+08
1.07009e+08
1.08276e+08
1.07707e+08
1.08991e+08
1.08378e+08
3.44725e+07
3.97949e+07
4.16352e+07
4.31347e+07
4.48266e+07
4.59452e+07
4.70411e+07
4.7646e+07
4.86744e+07
4.92004e+07
5.03587e+07
5.07911e+07
5.22162e+07
5.25159e+07
5.42365e+07
5.43913e+07
5.63864e+07
5.63996e+07
5.86314e+07
5.8517e+07
6.09397e+07
6.07172e+07
6.32849e+07
6.29732e+07
6.56442e+07
6.52597e+07
6.79984e+07
6.75556e+07
7.03322e+07
6.98447e+07
7.26338e+07
7.21149e+07
7.48942e+07
7.43554e+07
7.71045e+07
7.65542e+07
7.9256e+07
7.86987e+07
8.13415e+07
8.07806e+07
8.33569e+07
8.27976e+07
8.52994e+07
8.47499e+07
8.71652e+07
8.66315e+07
8.89484e+07
8.84313e+07
9.06462e+07
9.0145e+07
9.22617e+07
9.17786e+07
9.37956e+07
9.33392e+07
9.52425e+07
9.48135e+07
9.65992e+07
9.62e+07
9.78693e+07
9.75039e+07
9.90541e+07
9.8729e+07
1.00143e+08
9.98672e+07
1.01131e+08
1.00915e+08
1.02035e+08
1.01888e+08
1.02896e+08
1.02832e+08
1.03777e+08
1.03744e+08
1.04622e+08
1.04597e+08
1.05419e+08
1.05439e+08
1.06189e+08
1.06294e+08
1.06934e+08
1.07121e+08
4.01176e+07
4.25891e+07
4.23825e+07
4.43203e+07
4.45372e+07
4.55272e+07
4.60373e+07
4.64852e+07
4.73208e+07
4.75588e+07
4.87052e+07
4.88651e+07
5.03008e+07
5.03972e+07
5.21115e+07
5.21302e+07
5.41036e+07
5.40347e+07
5.62341e+07
5.60774e+07
5.8461e+07
5.82248e+07
6.07482e+07
6.04448e+07
6.30665e+07
6.27089e+07
6.53933e+07
6.49931e+07
6.77106e+07
6.72784e+07
7.00043e+07
6.95495e+07
7.22628e+07
7.17931e+07
7.44759e+07
7.39973e+07
7.6635e+07
7.61515e+07
7.87332e+07
7.82486e+07
8.07658e+07
8.02842e+07
8.27286e+07
8.22541e+07
8.46176e+07
8.41521e+07
8.64287e+07
8.59728e+07
8.81592e+07
8.77149e+07
8.98077e+07
8.93795e+07
9.13726e+07
9.09648e+07
9.28519e+07
9.24655e+07
9.42449e+07
9.38804e+07
9.5553e+07
9.52129e+07
9.67763e+07
9.64649e+07
9.7914e+07
9.76363e+07
9.89701e+07
9.87346e+07
9.99531e+07
9.97682e+07
1.00868e+08
1.00739e+08
1.01712e+08
1.01642e+08
1.02481e+08
1.02478e+08
1.03183e+08
1.03254e+08
1.03835e+08
1.0399e+08
1.04457e+08
1.04753e+08
4.42635e+07
4.38525e+07
4.38653e+07
4.43651e+07
4.42865e+07
4.4755e+07
4.49256e+07
4.52063e+07
4.58111e+07
4.59291e+07
4.69756e+07
4.69854e+07
4.84105e+07
4.83509e+07
5.00877e+07
4.99761e+07
5.19686e+07
5.18095e+07
5.40098e+07
5.38037e+07
5.6168e+07
5.59166e+07
5.84046e+07
5.81119e+07
6.06869e+07
6.0359e+07
6.29885e+07
6.26323e+07
6.52889e+07
6.49113e+07
6.75716e+07
6.71788e+07
6.98236e+07
6.94206e+07
7.2034e+07
7.16248e+07
7.4194e+07
7.37817e+07
7.62965e+07
7.5884e+07
7.8336e+07
7.79258e+07
8.03077e+07
7.9902e+07
8.22074e+07
8.18076e+07
8.40318e+07
8.36386e+07
8.57782e+07
8.53932e+07
8.74449e+07
8.70698e+07
8.90299e+07
8.86656e+07
9.05316e+07
9.01786e+07
9.19491e+07
9.16085e+07
9.3282e+07
9.29564e+07
9.4531e+07
9.42227e+07
9.56971e+07
9.54074e+07
9.67824e+07
9.65132e+07
9.77893e+07
9.75434e+07
9.87199e+07
9.84974e+07
9.9575e+07
9.93764e+07
1.00359e+08
1.00188e+08
1.0108e+08
1.00941e+08
1.01745e+08
1.01636e+08
1.02352e+08
1.02278e+08
4.5413e+07
4.44435e+07
4.43285e+07
4.39323e+07
4.38593e+07
4.36592e+07
4.38386e+07
4.37463e+07
4.43129e+07
4.42503e+07
4.52367e+07
4.5153e+07
4.65311e+07
4.64076e+07
4.81208e+07
4.79573e+07
4.99406e+07
4.97423e+07
5.19342e+07
5.17061e+07
5.40535e+07
5.37994e+07
5.6258e+07
5.59809e+07
5.85143e+07
5.82173e+07
6.07952e+07
6.04819e+07
6.30791e+07
6.27529e+07
6.53486e+07
6.5013e+07
6.75897e+07
6.72477e+07
6.97913e+07
6.94453e+07
7.19445e+07
7.15962e+07
7.40418e+07
7.36931e+07
7.60776e+07
7.57298e+07
7.80469e+07
7.77009e+07
7.99455e+07
7.9602e+07
8.17703e+07
8.14296e+07
8.35184e+07
8.31812e+07
8.51878e+07
8.48544e+07
8.67764e+07
8.64471e+07
8.82829e+07
8.79576e+07
8.97064e+07
8.93853e+07
9.10465e+07
9.07297e+07
9.2303e+07
9.19904e+07
9.34764e+07
9.31678e+07
9.45674e+07
9.42626e+07
9.55771e+07
9.52763e+07
9.65076e+07
9.62099e+07
9.73616e+07
9.70655e+07
9.81433e+07
9.78474e+07
9.88572e+07
9.85591e+07
9.95077e+07
9.9201e+07
1.00096e+08
9.97692e+07
4.55179e+07
4.41421e+07
4.39206e+07
4.30663e+07
4.29428e+07
4.23653e+07
4.25699e+07
4.21953e+07
4.28033e+07
4.25525e+07
4.35616e+07
4.33689e+07
4.47478e+07
4.45698e+07
4.62713e+07
4.60849e+07
4.80518e+07
4.78478e+07
5.00208e+07
4.97979e+07
5.2122e+07
5.18823e+07
5.43107e+07
5.40571e+07
5.65517e+07
5.62869e+07
5.88172e+07
5.85437e+07
6.10856e+07
6.08053e+07
6.33396e+07
6.30542e+07
6.55655e+07
6.52763e+07
6.77521e+07
6.74602e+07
6.98907e+07
6.95968e+07
7.19739e+07
7.16786e+07
7.39959e+07
7.36997e+07
7.5952e+07
7.56549e+07
7.7838e+07
7.75402e+07
7.96508e+07
7.9352e+07
8.13875e+07
8.10877e+07
8.30461e+07
8.2745e+07
8.46245e+07
8.43217e+07
8.61213e+07
8.58164e+07
8.75356e+07
8.72279e+07
8.88666e+07
8.85556e+07
9.01141e+07
8.97988e+07
9.12783e+07
9.09576e+07
9.23603e+07
9.20325e+07
9.33614e+07
9.30244e+07
9.42839e+07
9.39343e+07
9.51302e+07
9.47639e+07
9.5903e+07
9.55151e+07
9.6605e+07
9.61886e+07
9.72398e+07
9.67841e+07
9.78104e+07
9.73105e+07
4.47415e+07
4.31267e+07
4.29072e+07
4.17468e+07
4.16502e+07
4.08265e+07
4.10968e+07
4.05349e+07
4.12238e+07
4.08329e+07
4.19174e+07
4.16263e+07
4.30631e+07
4.2824e+07
4.45621e+07
4.43448e+07
4.63284e+07
4.61155e+07
4.8289e+07
4.80721e+07
5.03838e+07
5.01602e+07
5.25653e+07
5.23351e+07
5.47968e+07
5.45613e+07
5.705e+07
5.68106e+07
5.93033e+07
5.9061e+07
6.15399e+07
6.12953e+07
6.37464e+07
6.34997e+07
6.59123e+07
6.56637e+07
6.80293e+07
6.77785e+07
7.00904e+07
6.98372e+07
7.209e+07
7.18341e+07
7.40235e+07
7.37644e+07
7.58871e+07
7.56244e+07
7.76777e+07
7.74109e+07
7.93926e+07
7.91211e+07
8.10296e+07
8.07528e+07
8.25871e+07
8.23042e+07
8.40637e+07
8.37739e+07
8.54583e+07
8.51607e+07
8.67703e+07
8.64639e+07
8.79998e+07
8.7683e+07
8.91471e+07
8.88181e+07
9.02131e+07
8.98695e+07
9.11994e+07
9.08379e+07
9.21079e+07
9.17241e+07
9.29408e+07
9.25294e+07
9.37005e+07
9.32545e+07
9.43902e+07
9.39005e+07
9.50156e+07
9.44687e+07
9.55825e+07
9.4979e+07
4.32415e+07
4.1511e+07
4.13571e+07
4.0017e+07
4.00101e+07
3.90352e+07
3.94196e+07
3.87387e+07
3.95494e+07
3.90651e+07
4.02656e+07
3.99025e+07
4.14402e+07
4.11484e+07
4.29661e+07
4.27142e+07
4.47537e+07
4.45225e+07
4.67285e+07
4.6507e+07
4.88304e+07
4.86131e+07
5.10126e+07
5.07968e+07
5.32386e+07
5.30236e+07
5.54811e+07
5.52664e+07
5.77188e+07
5.75043e+07
5.99358e+07
5.9721e+07
6.21195e+07
6.19039e+07
6.42602e+07
6.40429e+07
6.63499e+07
6.61302e+07
6.83825e+07
6.81595e+07
7.03528e+07
7.01256e+07
7.22566e+07
7.20243e+07
7.40903e+07
7.38522e+07
7.58512e+07
7.56064e+07
7.75368e+07
7.72845e+07
7.91452e+07
7.88845e+07
8.06749e+07
8.04048e+07
8.21246e+07
8.18441e+07
8.34936e+07
8.32016e+07
8.47815e+07
8.44767e+07
8.59885e+07
8.56691e+07
8.7115e+07
8.67789e+07
8.81622e+07
8.78065e+07
8.91317e+07
8.87526e+07
9.00255e+07
8.96181e+07
9.08459e+07
9.04038e+07
9.15958e+07
9.11108e+07
9.22792e+07
9.1741e+07
9.29036e+07
9.22992e+07
9.34767e+07
9.28112e+07
4.11695e+07
3.93977e+07
3.9356e+07
3.79256e+07
3.80545e+07
3.70049e+07
3.75421e+07
3.68012e+07
3.77677e+07
3.72342e+07
3.85823e+07
3.8178e+07
3.9847e+07
3.95213e+07
4.14482e+07
4.11697e+07
4.32933e+07
4.30436e+07
4.53082e+07
4.50764e+07
4.74346e+07
4.72147e+07
4.96279e+07
4.94164e+07
5.18544e+07
5.1649e+07
5.40885e+07
5.38875e+07
5.63109e+07
5.61128e+07
5.8507e+07
5.83103e+07
6.06654e+07
6.04687e+07
6.27773e+07
6.25792e+07
6.48358e+07
6.46349e+07
6.68354e+07
6.66303e+07
6.87715e+07
6.8561e+07
7.06405e+07
7.04235e+07
7.24393e+07
7.22147e+07
7.41656e+07
7.39324e+07
7.58173e+07
7.55744e+07
7.73928e+07
7.71391e+07
7.88907e+07
7.86254e+07
8.03102e+07
8.0032e+07
8.16509e+07
8.13584e+07
8.29125e+07
8.26043e+07
8.40954e+07
8.37696e+07
8.52004e+07
8.48546e+07
8.62289e+07
8.586e+07
8.71826e+07
8.67866e+07
8.80638e+07
8.76354e+07
8.88751e+07
8.84075e+07
8.96198e+07
8.91044e+07
9.03025e+07
8.97293e+07
9.09316e+07
9.02889e+07
9.15156e+07
9.08116e+07
3.86363e+07
3.68732e+07
3.69778e+07
3.55231e+07
3.58227e+07
3.47609e+07
3.54798e+07
3.47324e+07
3.58789e+07
3.53396e+07
3.68563e+07
3.64446e+07
3.82634e+07
3.79282e+07
3.99811e+07
3.96921e+07
4.19157e+07
4.16559e+07
4.39945e+07
4.37546e+07
4.61625e+07
4.59375e+07
4.83789e+07
4.81655e+07
5.06132e+07
5.04091e+07
5.28432e+07
5.26461e+07
5.50521e+07
5.48598e+07
5.72273e+07
5.70376e+07
5.93592e+07
5.91701e+07
6.14405e+07
6.12499e+07
6.34652e+07
6.32714e+07
6.54289e+07
6.52301e+07
6.73277e+07
6.71225e+07
6.91588e+07
6.89458e+07
7.09198e+07
7.06977e+07
7.26087e+07
7.23763e+07
7.42239e+07
7.39803e+07
7.57642e+07
7.55083e+07
7.72287e+07
7.69595e+07
7.86169e+07
7.83332e+07
7.99284e+07
7.96289e+07
8.11634e+07
8.08464e+07
8.23224e+07
8.1986e+07
8.34066e+07
8.30481e+07
8.44175e+07
8.40335e+07
8.53573e+07
8.49436e+07
8.62285e+07
8.57797e+07
8.70341e+07
8.65435e+07
8.77775e+07
8.72374e+07
8.84636e+07
8.78656e+07
8.91004e+07
8.84359e+07
8.96954e+07
8.89784e+07
3.573e+07
3.40115e+07
3.42871e+07
3.28607e+07
3.33564e+07
3.23367e+07
3.32573e+07
3.25533e+07
3.38946e+07
3.33926e+07
3.50885e+07
3.47047e+07
3.66806e+07
3.63635e+07
3.8548e+07
3.82688e+07
4.05974e+07
4.03414e+07
4.27594e+07
4.25196e+07
4.49835e+07
4.47565e+07
4.72333e+07
4.70174e+07
4.9483e+07
4.92762e+07
5.17137e+07
5.15142e+07
5.39119e+07
5.37175e+07
5.60676e+07
5.58759e+07
5.81732e+07
5.7982e+07
6.02232e+07
6.00301e+07
6.22131e+07
6.2016e+07
6.41393e+07
6.39364e+07
6.59993e+07
6.57889e+07
6.77909e+07
6.75714e+07
6.95123e+07
6.92825e+07
7.11622e+07
7.0921e+07
7.27398e+07
7.2486e+07