/*--------------------------------*- C++ -*----------------------------------*\
| =========                 |                                                 |
| \\      /  F ield         | OpenFOAM: The Open Source CFD Toolbox           |
|  \\    /   O peration     | Version:  v2012                                 |
|   \\  /    A nd           | Website:  www.openfoam.com                      |
|    \\/     M anipulation  |                                                 |
\*---------------------------------------------------------------------------*/
FoamFile
{
    version     2.0;
    format      ascii;
    class       pointVectorField;
    location    "1";
    object      pointD;
}
// * * * * * * * * * * * * * * * * * * * * * * * * * * * * * * * * * * * * * //

dimensions      [0 1 0 0 0 0 0];


internalField   nonuniform List<vector> 
10435
(
(7.60092e-08 -6.02436e-06 0)
(0 -6.01179e-06 0)
(0 -5.71184e-06 0)
(5.71136e-08 -4.74158e-08 0)
(-3.72581e-08 -3.31691e-08 0)
(-1.08761e-06 -4.59521e-06 0)
(-1.82828e-07 -5.66189e-06 0)
(-1.09106e-06 -4.45166e-06 0)
(-1.49417e-07 -5.66259e-06 0)
(-7.46761e-07 -4.62515e-06 0)
(-8.20373e-07 -4.71814e-06 0)
(-4.08428e-07 -5.27541e-06 0)
(-4.2131e-07 -5.24651e-06 0)
(-2.06055e-07 -5.58157e-06 0)
(-1.84937e-07 -5.5581e-06 0)
(-1.03758e-06 -1.95549e-06 0)
(1.11499e-06 -2.09725e-06 0)
(5.10296e-08 -5.80981e-06 0)
(0 -5.77305e-06 0)
(-2.94119e-07 -5.44169e-06 0)
(-3.0457e-07 -5.42611e-06 0)
(0 -5.68062e-06 0)
(-5.77487e-07 -4.98758e-06 0)
(-4.81755e-07 -4.98264e-06 0)
(9.56501e-07 -4.74384e-06 0)
(-3.54887e-08 -2.3429e-08 2.09961e-08)
(-1.0609e-06 -1.9564e-06 4.33147e-08)
(1.13284e-06 -2.0391e-06 -4.34935e-08)
(5.90424e-08 -3.39913e-08 -3.60401e-08)
(-1.08552e-06 -4.46154e-06 -3.48548e-08)
(-7.13335e-07 -4.62194e-06 -7.00444e-08)
(9.48789e-07 -4.77644e-06 6.76057e-08)
(-4.67618e-07 -5.01211e-06 -1.28628e-07)
(-4.26869e-07 -5.29999e-06 -1.57465e-07)
(0 -5.73312e-06 8.24624e-08)
(0 -5.68573e-06 -2.49135e-08)
(-3.25689e-07 -5.40804e-06 -1.22216e-07)
(0 -5.77194e-06 -2.49012e-08)
(-1.79201e-07 -5.53399e-06 -6.36038e-08)
(5.31741e-08 -5.81018e-06 -1.68884e-08)
(-1.39065e-07 -5.6495e-06 -3.07173e-08)
(0 -6.01209e-06 -1.87894e-08)
(7.66257e-08 -6.02827e-06 -2.17646e-08)
(-8.01769e-07 -4.72673e-06 -7.84892e-08)
(-1.08532e-06 -4.6125e-06 -4.15899e-08)
(-5.73953e-07 -5.01319e-06 -1.49747e-07)
(-4.46852e-07 -5.26586e-06 -1.77937e-07)
(-3.15794e-07 -5.42486e-06 -1.3302e-07)
(-2.02351e-07 -5.56076e-06 -6.53257e-08)
(-1.75065e-07 -5.65167e-06 -3.45126e-08)
(7.08885e-08 -6.02537e-06 0)
(6.37193e-08 -6.02357e-06 0)
(5.65481e-08 -6.02075e-06 0)
(4.91593e-08 -6.01881e-06 0)
(4.09123e-08 -6.01606e-06 0)
(3.27492e-08 -6.01391e-06 0)
(2.42945e-08 -6.01222e-06 0)
(1.55674e-08 -6.01114e-06 0)
(7.15175e-09 -6.01081e-06 0)
(0 -6.00375e-06 0)
(0 -5.99195e-06 0)
(0 -5.97982e-06 0)
(0 -5.9677e-06 0)
(0 -5.95558e-06 0)
(0 -5.94345e-06 0)
(0 -5.9313e-06 0)
(0 -5.91915e-06 0)
(0 -5.907e-06 0)
(0 -5.89483e-06 0)
(0 -5.88266e-06 0)
(0 -5.8705e-06 0)
(0 -5.85835e-06 0)
(0 -5.84622e-06 0)
(0 -5.83413e-06 0)
(0 -5.8221e-06 0)
(0 -5.81014e-06 0)
(0 -5.79826e-06 0)
(0 -5.7873e-06 0)
(0 -5.75089e-06 0)
(0 -5.73189e-06 0)
(0 -5.71318e-06 0)
(0 -5.69673e-06 0)
(0 -5.68328e-06 0)
(0 -5.67356e-06 0)
(0 -5.66821e-06 0)
(0 -5.66761e-06 0)
(0 -5.67136e-06 0)
(1.24988e-07 -5.68297e-06 0)
(2.08806e-07 -5.64844e-06 0)
(2.94602e-07 -5.60231e-06 0)
(3.83756e-07 -5.54151e-06 0)
(4.76515e-07 -5.46322e-06 0)
(5.72543e-07 -5.36398e-06 0)
(6.7053e-07 -5.24147e-06 0)
(7.68889e-07 -5.09401e-06 0)
(8.5986e-07 -4.93102e-06 0)
(1.08687e-06 -1.89429e-06 0)
(1.05944e-06 -1.76051e-06 0)
(1.03016e-06 -1.62608e-06 0)
(9.97088e-07 -1.4949e-06 0)
(9.60613e-07 -1.36744e-06 0)
(9.20842e-07 -1.24397e-06 0)
(8.77819e-07 -1.12478e-06 0)
(8.31551e-07 -1.01014e-06 0)
(7.81995e-07 -9.00328e-07 0)
(7.29106e-07 -7.95651e-07 0)
(6.7281e-07 -6.96515e-07 0)
(6.13573e-07 -6.0305e-07 0)
(5.51407e-07 -5.15177e-07 0)
(4.85837e-07 -4.33203e-07 0)
(4.171e-07 -3.57144e-07 0)
(3.45443e-07 -2.86671e-07 0)
(2.71223e-07 -2.21024e-07 0)
(1.94892e-07 -1.58627e-07 0)
(1.20716e-07 -1.00222e-07 0)
(1.75171e-08 -1.63329e-08 0)
(1.10925e-08 -1.09983e-08 0)
(7.13491e-09 -9.39042e-09 0)
(3.8564e-09 -8.76964e-09 0)
(8.02178e-10 -8.54261e-09 0)
(-2.19234e-09 -8.57044e-09 0)
(-5.35639e-09 -9.06145e-09 0)
(-9.56225e-09 -1.12268e-08 0)
(-1.80567e-08 -2.00901e-08 0)
(-8.42389e-08 -7.57903e-08 0)
(-1.51835e-07 -1.3144e-07 0)
(-2.24276e-07 -1.91312e-07 0)
(-2.95936e-07 -2.5493e-07 0)
(-3.65635e-07 -3.23545e-07 0)
(-4.32674e-07 -3.97754e-07 0)
(-4.96657e-07 -4.77806e-07 0)
(-5.57379e-07 -5.63737e-07 0)
(-6.14744e-07 -6.55455e-07 0)
(-6.68641e-07 -7.52724e-07 0)
(-7.19454e-07 -8.55464e-07 0)
(-7.66959e-07 -9.63313e-07 0)
(-8.11114e-07 -1.0758e-06 0)
(-8.52059e-07 -1.19278e-06 0)
(-8.89736e-07 -1.31383e-06 0)
(-9.24181e-07 -1.43859e-06 0)
(-9.55444e-07 -1.56662e-06 0)
(-9.83718e-07 -1.69756e-06 0)
(-1.0027e-06 -1.82163e-06 0)
(-1.04984e-06 -2.07632e-06 0)
(-1.06316e-06 -2.17713e-06 0)
(-1.07589e-06 -2.27844e-06 0)
(-1.08713e-06 -2.38037e-06 0)
(-1.0971e-06 -2.48297e-06 0)
(-1.10568e-06 -2.58607e-06 0)
(-1.11297e-06 -2.6897e-06 0)
(-1.11894e-06 -2.79374e-06 0)
(-1.12363e-06 -2.89812e-06 0)
(-1.12698e-06 -3.00278e-06 0)
(-1.1293e-06 -3.10753e-06 0)
(-1.13025e-06 -3.21224e-06 0)
(-1.13007e-06 -3.31685e-06 0)
(-1.1289e-06 -3.42146e-06 0)
(-1.12671e-06 -3.52586e-06 0)
(-1.12361e-06 -3.62993e-06 0)
(-1.11976e-06 -3.73375e-06 0)
(-1.11525e-06 -3.83732e-06 0)
(-1.11025e-06 -3.94068e-06 0)
(-1.10515e-06 -4.04398e-06 0)
(-1.09987e-06 -4.14741e-06 0)
(-1.09487e-06 -4.25063e-06 0)
(-1.09043e-06 -4.34918e-06 0)
(-1.08914e-06 -4.54099e-06 0)
(-1.71082e-07 -5.6617e-06 0)
(-1.21209e-07 -5.66556e-06 0)
(-1.02418e-07 -5.66878e-06 0)
(-8.62431e-08 -5.67297e-06 0)
(-7.20356e-08 -5.67789e-06 0)
(-5.93544e-08 -5.6833e-06 0)
(-4.79224e-08 -5.6891e-06 0)
(-3.75416e-08 -5.69519e-06 0)
(-2.80897e-08 -5.70149e-06 0)
(-1.94456e-08 -5.70794e-06 0)
(-1.15164e-08 -5.71449e-06 0)
(-4.23477e-09 -5.72113e-06 0)
(2.47183e-09 -5.72784e-06 0)
(8.64514e-09 -5.73461e-06 0)
(1.43325e-08 -5.74144e-06 0)
(1.95741e-08 -5.7483e-06 0)
(2.44029e-08 -5.75519e-06 0)
(2.88517e-08 -5.76211e-06 0)
(3.29568e-08 -5.76906e-06 0)
(3.67298e-08 -5.776e-06 0)
(4.01878e-08 -5.78295e-06 0)
(4.33564e-08 -5.78992e-06 0)
(4.62418e-08 -5.79692e-06 0)
(4.84598e-08 -5.80306e-06 0)
(5.32765e-08 -5.8182e-06 0)
(5.59284e-08 -5.82807e-06 0)
(5.84203e-08 -5.83836e-06 0)
(6.05954e-08 -5.84873e-06 0)
(6.24957e-08 -5.85924e-06 0)
(6.41831e-08 -5.86987e-06 0)
(6.56537e-08 -5.8806e-06 0)
(6.69317e-08 -5.89147e-06 0)
(6.80914e-08 -5.9025e-06 0)
(6.91328e-08 -5.91359e-06 0)
(7.00574e-08 -5.92478e-06 0)
(7.09248e-08 -5.9361e-06 0)
(7.17735e-08 -5.94753e-06 0)
(7.25773e-08 -5.95897e-06 0)
(7.33431e-08 -5.97047e-06 0)
(7.4093e-08 -5.98204e-06 0)
(7.47981e-08 -5.99363e-06 0)
(7.5479e-08 -6.00532e-06 0)
(7.59605e-08 -6.01615e-06 0)
(4.66151e-08 -5.80529e-06 0)
(4.10675e-08 -5.79963e-06 0)
(3.44952e-08 -5.79323e-06 0)
(2.8016e-08 -5.78758e-06 0)
(2.19239e-08 -5.783e-06 0)
(1.64306e-08 -5.77956e-06 0)
(1.16434e-08 -5.77714e-06 0)
(7.56732e-09 -5.77555e-06 0)
(4.06023e-09 -5.7746e-06 0)
(-8.29809e-07 -1.96664e-06 0)
(-6.03808e-07 -1.96363e-06 0)
(-3.81789e-07 -1.96024e-06 0)
(-1.70152e-07 -1.95927e-06 0)
(3.58783e-08 -1.96128e-06 0)
(2.41961e-07 -1.96656e-06 0)
(4.53725e-07 -1.97537e-06 0)
(6.75995e-07 -1.98774e-06 0)
(8.93996e-07 -2.0054e-06 0)
(-6.60794e-07 -4.52654e-06 0)
(-5.87323e-07 -4.42743e-06 0)
(-5.1458e-07 -4.3237e-06 0)
(-4.43502e-07 -4.21924e-06 0)
(-3.72876e-07 -4.11444e-06 0)
(-3.01658e-07 -4.00876e-06 0)
(-2.29595e-07 -3.90244e-06 0)
(-1.56684e-07 -3.79532e-06 0)
(-8.29214e-08 -3.68775e-06 0)
(-8.29104e-09 -3.57978e-06 0)
(6.72597e-08 -3.47148e-06 0)
(1.43742e-07 -3.36297e-06 0)
(2.21142e-07 -3.25441e-06 0)
(2.99474e-07 -3.14595e-06 0)
(3.78406e-07 -3.03815e-06 0)
(4.5825e-07 -2.93084e-06 0)
(5.38851e-07 -2.82416e-06 0)
(6.19877e-07 -2.71861e-06 0)
(7.01244e-07 -2.6145e-06 0)
(7.82981e-07 -2.51172e-06 0)
(8.64656e-07 -2.41103e-06 0)
(9.45984e-07 -2.31215e-06 0)
(1.02708e-06 -2.21388e-06 0)
(-7.8576e-07 -4.67495e-06 0)
(-4.20057e-07 -5.25934e-06 0)
(-3.65676e-07 -5.31033e-06 0)
(-3.19401e-07 -5.33794e-06 0)
(-2.70581e-07 -5.36548e-06 0)
(-2.23287e-07 -5.39284e-06 0)
(-1.78448e-07 -5.42023e-06 0)
(-1.36277e-07 -5.44772e-06 0)
(-9.68291e-08 -5.47505e-06 0)
(-6.04487e-08 -5.50175e-06 0)
(-2.71462e-08 -5.52749e-06 0)
(3.15188e-09 -5.55211e-06 0)
(3.02101e-08 -5.57547e-06 0)
(5.37039e-08 -5.59738e-06 0)
(7.3614e-08 -5.6175e-06 0)
(8.98769e-08 -5.63581e-06 0)
(1.02469e-07 -5.65218e-06 0)
(1.11175e-07 -5.66643e-06 0)
(1.15793e-07 -5.67852e-06 0)
(1.16258e-07 -5.6885e-06 0)
(1.12581e-07 -5.69655e-06 0)
(1.04876e-07 -5.70263e-06 0)
(9.298e-08 -5.70697e-06 0)
(7.73161e-08 -5.70981e-06 0)
(5.86199e-08 -5.71163e-06 0)
(-1.96286e-07 -5.56914e-06 0)
(-1.61602e-07 -5.55627e-06 0)
(-1.43627e-07 -5.56211e-06 0)
(-1.27642e-07 -5.5719e-06 0)
(-1.13149e-07 -5.5834e-06 0)
(-9.98938e-08 -5.59546e-06 0)
(-8.7664e-08 -5.60759e-06 0)
(-7.63606e-08 -5.61949e-06 0)
(-6.59419e-08 -5.63097e-06 0)
(-5.63515e-08 -5.64196e-06 0)
(-4.75569e-08 -5.65245e-06 0)
(-3.95353e-08 -5.66243e-06 0)
(-3.22877e-08 -5.67193e-06 0)
(-2.57944e-08 -5.68101e-06 0)
(-2.00407e-08 -5.6897e-06 0)
(-1.50214e-08 -5.69807e-06 0)
(-1.07249e-08 -5.70618e-06 0)
(-7.13268e-09 -5.71408e-06 0)
(-4.22247e-09 -5.72182e-06 0)
(-1.97878e-09 -5.72949e-06 0)
(-3.6856e-10 -5.73713e-06 0)
(6.64085e-10 -5.74477e-06 0)
(1.16531e-09 -5.75248e-06 0)
(1.25669e-09 -5.76101e-06 0)
(-1.06597e-06 -4.60139e-06 0)
(-1.03788e-06 -4.60529e-06 0)
(-1.00949e-06 -4.61164e-06 0)
(-9.80834e-07 -4.62021e-06 0)
(-9.52027e-07 -4.63095e-06 0)
(-9.23237e-07 -4.64384e-06 0)
(-8.94729e-07 -4.65887e-06 0)
(-8.66721e-07 -4.67586e-06 0)
(-8.45786e-07 -4.69374e-06 0)
(-7.06566e-07 -4.64354e-06 0)
(-6.77493e-07 -4.67195e-06 0)
(-6.47025e-07 -4.70571e-06 0)
(-6.18275e-07 -4.74164e-06 0)
(-5.91458e-07 -4.77923e-06 0)
(-5.66769e-07 -4.81803e-06 0)
(-5.44286e-07 -4.85771e-06 0)
(-5.24139e-07 -4.89782e-06 0)
(-5.06179e-07 -4.93775e-06 0)
(-3.9779e-07 -5.29744e-06 0)
(-3.90663e-07 -5.31377e-06 0)
(-3.82799e-07 -5.33055e-06 0)
(-3.74186e-07 -5.3462e-06 0)
(-3.64725e-07 -5.36082e-06 0)
(-3.5435e-07 -5.37466e-06 0)
(-3.43074e-07 -5.38788e-06 0)
(-3.30964e-07 -5.40069e-06 0)
(-3.18222e-07 -5.41331e-06 0)
(-1.98464e-07 -5.59224e-06 0)
(-1.93827e-07 -5.60261e-06 0)
(-1.89923e-07 -5.61237e-06 0)
(-1.86683e-07 -5.62155e-06 0)
(-1.84064e-07 -5.63017e-06 0)
(-1.82063e-07 -5.63827e-06 0)
(-1.80688e-07 -5.64589e-06 0)
(-1.80001e-07 -5.65305e-06 0)
(-1.8042e-07 -5.65877e-06 0)
(-1.06507e-06 -4.46847e-06 0)
(-1.02888e-06 -4.47712e-06 0)
(-9.90778e-07 -4.4851e-06 0)
(-9.52618e-07 -4.49582e-06 0)
(-9.14614e-07 -4.50938e-06 0)
(-8.77046e-07 -4.52575e-06 0)
(-8.40184e-07 -4.54486e-06 0)
(-8.04473e-07 -4.56658e-06 0)
(-7.74568e-07 -4.59276e-06 0)
(-7.84182e-07 -4.73782e-06 0)
(-7.57401e-07 -4.76204e-06 0)
(-7.31532e-07 -4.7877e-06 0)
(-7.06277e-07 -4.81462e-06 0)
(-6.81997e-07 -4.84253e-06 0)
(-6.58601e-07 -4.87125e-06 0)
(-6.36191e-07 -4.90047e-06 0)
(-6.14664e-07 -4.92999e-06 0)
(-5.93931e-07 -4.95749e-06 0)
(-4.06852e-07 -5.27334e-06 0)
(-3.93815e-07 -5.29459e-06 0)
(-3.80887e-07 -5.31513e-06 0)
(-3.68042e-07 -5.33507e-06 0)
(-3.55283e-07 -5.35439e-06 0)
(-3.42641e-07 -5.37304e-06 0)
(-3.30014e-07 -5.39101e-06 0)
(-3.17604e-07 -5.40853e-06 0)
(-3.07062e-07 -5.42357e-06 0)
(-1.77104e-07 -5.57152e-06 0)
(-1.71227e-07 -5.58298e-06 0)
(-1.65626e-07 -5.59485e-06 0)
(-1.60911e-07 -5.60631e-06 0)
(-1.57055e-07 -5.6173e-06 0)
(-1.54022e-07 -5.6278e-06 0)
(-1.51806e-07 -5.63777e-06 0)
(-1.50363e-07 -5.64722e-06 0)
(-1.49667e-07 -5.65615e-06 0)
(-3.01899e-07 -5.42956e-06 0)
(-2.93514e-07 -5.43692e-06 0)
(-2.80296e-07 -5.45064e-06 0)
(-2.65635e-07 -5.46648e-06 0)
(-2.50454e-07 -5.48325e-06 0)
(-2.35263e-07 -5.50027e-06 0)
(-2.20219e-07 -5.51725e-06 0)
(-2.05521e-07 -5.53382e-06 0)
(-1.91234e-07 -5.54981e-06 0)
(-1.773e-07 -5.56516e-06 0)
(-1.63674e-07 -5.57975e-06 0)
(-1.50411e-07 -5.59354e-06 0)
(-1.37508e-07 -5.60644e-06 0)
(-1.2494e-07 -5.61837e-06 0)
(-1.12651e-07 -5.62932e-06 0)
(-1.00603e-07 -5.63929e-06 0)
(-8.87827e-08 -5.64824e-06 0)
(-7.7168e-08 -5.65617e-06 0)
(-6.57249e-08 -5.66306e-06 0)
(-5.44562e-08 -5.66886e-06 0)
(-4.33411e-08 -5.67361e-06 0)
(-3.2335e-08 -5.67732e-06 0)
(-2.14347e-08 -5.67995e-06 0)
(-1.08934e-08 -5.68142e-06 0)
(-5.40654e-07 -4.98778e-06 0)
(9.0745e-07 -4.75155e-06 0)
(8.37468e-07 -4.77024e-06 0)
(7.68252e-07 -4.77979e-06 0)
(7.00722e-07 -4.7884e-06 0)
(6.34995e-07 -4.79626e-06 0)
(5.70888e-07 -4.80383e-06 0)
(5.08338e-07 -4.81118e-06 0)
(4.47183e-07 -4.81846e-06 0)
(3.87216e-07 -4.82591e-06 0)
(3.28359e-07 -4.83359e-06 0)
(2.7053e-07 -4.84146e-06 0)
(2.13497e-07 -4.84972e-06 0)
(1.57112e-07 -4.85831e-06 0)
(1.01238e-07 -4.86754e-06 0)
(4.58651e-08 -4.8773e-06 0)
(-9.18738e-09 -4.88766e-06 0)
(-6.42205e-08 -4.89872e-06 0)
(-1.19183e-07 -4.91042e-06 0)
(-1.74346e-07 -4.92279e-06 0)
(-2.30034e-07 -4.93574e-06 0)
(-2.86624e-07 -4.94912e-06 0)
(-3.44801e-07 -4.96264e-06 0)
(-4.05578e-07 -4.97549e-06 0)
(-5.5633e-07 -5.01913e-06 0)
(-5.38672e-07 -5.04816e-06 0)
(-5.21734e-07 -5.0766e-06 0)
(-5.05547e-07 -5.10425e-06 0)
(-4.89988e-07 -5.13116e-06 0)
(-4.75032e-07 -5.15723e-06 0)
(-4.60631e-07 -5.18218e-06 0)
(-4.4663e-07 -5.20607e-06 0)
(-4.34873e-07 -5.2249e-06 0)
(-2.82223e-07 -5.4581e-06 0)
(-2.70962e-07 -5.4738e-06 0)
(-2.60242e-07 -5.48905e-06 0)
(-2.50099e-07 -5.50387e-06 0)
(-2.40588e-07 -5.51819e-06 0)
(-2.31729e-07 -5.53196e-06 0)
(-2.236e-07 -5.54524e-06 0)
(-2.16308e-07 -5.55791e-06 0)
(-2.1129e-07 -5.56872e-06 0)
(-4.70451e-07 -5.02752e-06 0)
(-4.62514e-07 -5.06216e-06 0)
(-4.52782e-07 -5.09672e-06 0)
(-4.44259e-07 -5.12933e-06 0)
(-4.36685e-07 -5.15979e-06 0)
(-4.29772e-07 -5.18807e-06 0)
(-4.23204e-07 -5.21414e-06 0)
(-4.16735e-07 -5.23791e-06 0)
(-4.11951e-07 -5.2575e-06 0)
(-2.9015e-07 -5.43937e-06 0)
(-2.77275e-07 -5.45136e-06 0)
(-2.6363e-07 -5.46433e-06 0)
(-2.50254e-07 -5.47756e-06 0)
(-2.37368e-07 -5.49097e-06 0)
(-2.25139e-07 -5.5045e-06 0)
(-2.13709e-07 -5.51806e-06 0)
(-2.03218e-07 -5.53157e-06 0)
(-1.93774e-07 -5.54486e-06 0)
(1.02011e-06 -4.55014e-06 0)
(1.08428e-06 -4.33239e-06 0)
(1.14447e-06 -4.0737e-06 0)
(1.18971e-06 -3.79968e-06 0)
(1.21938e-06 -3.51649e-06 0)
(1.23389e-06 -3.22829e-06 0)
(1.23378e-06 -2.93882e-06 0)
(1.2203e-06 -2.6529e-06 0)
(1.19512e-06 -2.38869e-06 0)
(0 -5.69319e-06 0)
(0 -5.70567e-06 0)
(0 -5.71902e-06 0)
(0 -5.73069e-06 0)
(0 -5.73922e-06 0)
(0 -5.74369e-06 0)
(0 -5.74369e-06 0)
(0 -5.73939e-06 0)
(0 -5.73184e-06 0)
(-8.8708e-08 -5.73336e-08 5.06047e-08)
(-1.6665e-07 -1.08122e-07 8.235e-08)
(-2.46767e-07 -1.64529e-07 1.02436e-07)
(-3.18153e-07 -2.22937e-07 1.1098e-07)
(-3.8648e-07 -2.87988e-07 1.14568e-07)
(-4.51806e-07 -3.60052e-07 1.1474e-07)
(-5.14401e-07 -4.38965e-07 1.12705e-07)
(-5.74309e-07 -5.24439e-07 1.09272e-07)
(-6.31481e-07 -6.16164e-07 1.04969e-07)
(-6.85826e-07 -7.13817e-07 1.00138e-07)
(-7.37246e-07 -8.17067e-07 9.49897e-08)
(-7.8566e-07 -9.25581e-07 8.96429e-08)
(-8.31027e-07 -1.03903e-06 8.41684e-08)
(-8.73332e-07 -1.15707e-06 7.86108e-08)
(-9.12572e-07 -1.27941e-06 7.29833e-08)
(-9.48765e-07 -1.40574e-06 6.72808e-08)
(-9.81957e-07 -1.53581e-06 6.14848e-08)
(-1.01239e-06 -1.66944e-06 5.54229e-08)
(-1.04372e-06 -1.82276e-06 4.70366e-08)
(-8.79262e-07 -1.96704e-06 4.02539e-08)
(-6.23497e-07 -1.95126e-06 2.9265e-08)
(-3.9883e-07 -1.94555e-06 1.92621e-08)
(-1.68312e-07 -1.94424e-06 8.96444e-09)
(3.38066e-08 -1.94518e-06 6.407e-10)
(2.20902e-07 -1.94842e-06 -7.17016e-09)
(4.52215e-07 -1.95716e-06 -1.59169e-08)
(6.69769e-07 -1.96608e-06 -2.37803e-08)
(9.2833e-07 -1.97199e-06 -3.43159e-08)
(1.11847e-06 -1.88775e-06 -4.53958e-08)
(1.09066e-06 -1.74741e-06 -5.15144e-08)
(1.0584e-06 -1.61065e-06 -5.81286e-08)
(1.02318e-06 -1.47814e-06 -6.42205e-08)
(9.84962e-07 -1.34952e-06 -7.0073e-08)
(9.43664e-07 -1.22501e-06 -7.57258e-08)
(8.99303e-07 -1.10492e-06 -8.11909e-08)
(8.51927e-07 -9.89533e-07 -8.64838e-08)
(8.01663e-07 -8.79151e-07 -9.16286e-08)
(7.49044e-07 -7.73705e-07 -9.68025e-08)
(6.93757e-07 -6.72836e-07 -1.0212e-07)
(6.34756e-07 -5.77319e-07 -1.07186e-07)
(5.72545e-07 -4.88584e-07 -1.11204e-07)
(5.08065e-07 -4.06649e-07 -1.14031e-07)
(4.41384e-07 -3.31209e-07 -1.15218e-07)
(3.72384e-07 -2.62345e-07 -1.1383e-07)
(3.00806e-07 -1.99988e-07 -1.084e-07)
(2.2613e-07 -1.43584e-07 -9.65864e-08)
(1.37214e-07 -8.54354e-08 -6.86859e-08)
(1.98732e-08 -6.41393e-09 -1.70305e-08)
(1.44734e-08 -3.71521e-09 -1.27551e-08)
(9.24261e-09 -2.81639e-09 -8.25518e-09)
(4.66614e-09 -2.40717e-09 -4.10203e-09)
(-9.53976e-10 -3.61696e-09 1.21581e-09)
(-7.64381e-09 -4.43695e-09 7.4577e-09)
(-1.37808e-08 -4.77518e-09 1.33995e-08)
(-2.23109e-08 -7.10346e-09 2.09632e-08)
(-2.7508e-08 -1.21671e-08 2.40034e-08)
(-3.5136e-08 -2.73181e-08 2.24185e-09)
(-3.46164e-08 -2.75907e-08 4.90167e-09)
(-3.47695e-08 -2.65793e-08 1.15398e-08)
(-1.10346e-06 -1.96453e-06 1.74373e-08)
(-1.10277e-06 -1.9614e-06 2.98145e-08)
(-1.10107e-06 -1.95822e-06 3.80925e-08)
(1.19118e-06 -2.07034e-06 -1.8559e-08)
(1.18832e-06 -2.06262e-06 -2.82797e-08)
(1.18354e-06 -2.05044e-06 -4.09415e-08)
(5.77714e-08 -4.48391e-08 -5.38151e-09)
(5.68618e-08 -4.38042e-08 -1.12313e-08)
(5.75747e-08 -4.09703e-08 -2.19898e-08)
(-1.082e-06 -2.06377e-06 4.08082e-08)
(-1.09e-06 -2.1635e-06 3.87201e-08)
(-1.10758e-06 -2.26595e-06 3.54105e-08)
(-1.11258e-06 -2.36719e-06 3.29476e-08)
(-1.12404e-06 -2.45772e-06 3.14952e-08)
(-1.13228e-06 -2.56109e-06 2.84818e-08)
(-1.13901e-06 -2.66532e-06 2.51374e-08)
(-1.14438e-06 -2.77013e-06 2.16323e-08)
(-1.14985e-06 -2.88838e-06 1.69576e-08)
(-1.14747e-06 -2.99235e-06 1.39163e-08)
(-1.15064e-06 -3.08514e-06 1.23464e-08)
(-1.15038e-06 -3.19003e-06 9.31596e-09)
(-1.14933e-06 -3.30808e-06 5.38418e-09)
(-1.14262e-06 -3.41143e-06 2.15289e-09)
(-1.1413e-06 -3.5045e-06 1.28494e-10)
(-1.13638e-06 -3.60856e-06 -2.70788e-09)
(-1.13054e-06 -3.71283e-06 -6.0025e-09)
(-1.12414e-06 -3.81757e-06 -9.85093e-09)
(-1.1163e-06 -3.93581e-06 -1.44184e-08)
(-1.10614e-06 -4.03793e-06 -1.78932e-08)
(-1.10077e-06 -4.12944e-06 -1.94922e-08)
(-1.09465e-06 -4.24635e-06 -2.35054e-08)
(-1.08836e-06 -4.36471e-06 -2.95698e-08)
(-1.05577e-06 -4.47184e-06 -3.65722e-08)
(-1.0169e-06 -4.47462e-06 -3.83179e-08)
(-9.77426e-07 -4.48199e-06 -4.07506e-08)
(-9.37911e-07 -4.49198e-06 -4.35923e-08)
(-8.98303e-07 -4.50587e-06 -4.71085e-08)
(-8.59184e-07 -4.52233e-06 -5.08238e-08)
(-8.23894e-07 -4.54004e-06 -5.46737e-08)
(-7.81493e-07 -4.56552e-06 -5.99113e-08)
(-7.40414e-07 -4.59419e-06 -6.54627e-08)
(-6.42123e-07 -4.53935e-06 -6.34144e-08)
(-5.56431e-07 -4.42155e-06 -5.33834e-08)
(-4.86352e-07 -4.31705e-06 -4.53171e-08)
(-4.17949e-07 -4.21284e-06 -3.85978e-08)
(-3.46997e-07 -4.10615e-06 -3.24232e-08)
(-2.74426e-07 -4.00859e-06 -2.69061e-08)
(-2.08193e-07 -3.89976e-06 -2.29055e-08)
(-1.36097e-07 -3.78168e-06 -1.89933e-08)
(-6.31912e-08 -3.67102e-06 -1.55032e-08)
(1.07095e-08 -3.56017e-06 -1.2398e-08)
(8.55421e-08 -3.44903e-06 -9.78431e-09)
(1.61338e-07 -3.33767e-06 -7.72175e-09)
(2.38183e-07 -3.22627e-06 -6.25972e-09)
(3.17065e-07 -3.11435e-06 -5.54935e-09)
(3.97404e-07 -3.00149e-06 -5.46056e-09)
(4.77721e-07 -2.8889e-06 -6.22431e-09)
(5.58228e-07 -2.77768e-06 -7.58848e-09)
(6.39338e-07 -2.66766e-06 -9.63448e-09)
(7.20811e-07 -2.559e-06 -1.26428e-08)
(8.02284e-07 -2.452e-06 -1.66981e-08)
(8.84142e-07 -2.34595e-06 -2.18319e-08)
(9.67335e-07 -2.24093e-06 -2.77389e-08)
(1.06357e-06 -2.12209e-06 -3.55942e-08)
(-1.109e-06 -4.45952e-06 -1.48119e-08)
(-1.10724e-06 -4.46016e-06 -2.45261e-08)
(-1.10225e-06 -4.45801e-06 -3.12224e-08)
(-7.41168e-07 -4.61935e-06 -2.25653e-08)
(-7.3882e-07 -4.62272e-06 -4.03744e-08)
(-7.30245e-07 -4.62396e-06 -5.71015e-08)
(1.19944e-06 -2.29e-06 -4.20216e-08)
(1.22961e-06 -2.60954e-06 -3.07755e-08)
(1.23928e-06 -2.88393e-06 -1.7519e-08)
(1.24141e-06 -3.17357e-06 -3.95416e-09)
(1.22455e-06 -3.50697e-06 1.3247e-08)
(1.19327e-06 -3.79961e-06 2.86591e-08)
(1.15154e-06 -4.05797e-06 4.16356e-08)
(1.09724e-06 -4.31921e-06 5.35061e-08)
(1.01516e-06 -4.59657e-06 6.51596e-08)
(9.05343e-07 -4.77936e-06 6.80283e-08)
(8.28086e-07 -4.79724e-06 6.39203e-08)
(7.58188e-07 -4.8069e-06 5.85611e-08)
(6.90888e-07 -4.81597e-06 5.22719e-08)
(6.25699e-07 -4.82434e-06 4.57722e-08)
(5.62323e-07 -4.83236e-06 3.92274e-08)
(5.00542e-07 -4.84025e-06 3.24699e-08)
(4.40187e-07 -4.84811e-06 2.55244e-08)
(3.81238e-07 -4.85613e-06 1.84004e-08)
(3.23456e-07 -4.86428e-06 1.11928e-08)
(2.60284e-07 -4.87375e-06 3.25296e-09)
(2.06248e-07 -4.88234e-06 -3.9903e-09)
(1.54998e-07 -4.90065e-06 -1.12824e-08)
(1.02608e-07 -4.90831e-06 -1.90713e-08)
(4.72534e-08 -4.91055e-06 -2.81385e-08)
(-6.62523e-09 -4.92024e-06 -3.68792e-08)
(-5.99777e-08 -4.9309e-06 -4.58753e-08)
(-1.20166e-07 -4.94357e-06 -5.65928e-08)
(-1.72153e-07 -4.95502e-06 -6.60874e-08)
(-2.22605e-07 -4.9672e-06 -7.59422e-08)
(-2.83791e-07 -4.98139e-06 -8.85509e-08)
(-3.37494e-07 -4.99306e-06 -9.99698e-08)
(-4.01329e-07 -5.00551e-06 -1.14508e-07)
(-4.83093e-07 -4.96929e-06 -1.23553e-07)
(-4.97912e-07 -4.92655e-06 -1.17787e-07)
(-5.13811e-07 -4.88859e-06 -1.12448e-07)
(-5.36165e-07 -4.84222e-06 -1.05651e-07)
(-5.62128e-07 -4.79556e-06 -9.87385e-08)
(-5.88418e-07 -4.75513e-06 -9.25951e-08)
(-6.14395e-07 -4.72004e-06 -8.70644e-08)
(-6.44814e-07 -4.68396e-06 -8.11224e-08)
(-6.80788e-07 -4.6454e-06 -7.45644e-08)
(9.62948e-07 -4.76043e-06 2.33455e-08)
(9.61478e-07 -4.76505e-06 4.062e-08)
(9.58852e-07 -4.77172e-06 5.71238e-08)
(-4.82816e-07 -4.98298e-06 -3.47151e-08)
(-4.82215e-07 -4.98664e-06 -6.58111e-08)
(-4.77065e-07 -4.99562e-06 -9.92631e-08)
(-4.60439e-07 -5.0499e-06 -1.33958e-07)
(-4.52522e-07 -5.08738e-06 -1.38709e-07)
(-4.46201e-07 -5.12622e-06 -1.43481e-07)
(-4.41712e-07 -5.15933e-06 -1.47093e-07)
(-4.38476e-07 -5.18678e-06 -1.49924e-07)
(-4.35551e-07 -5.21715e-06 -1.52931e-07)
(-4.33258e-07 -5.2423e-06 -1.54844e-07)
(-4.30665e-07 -5.26475e-06 -1.56141e-07)
(-4.27736e-07 -5.28645e-06 -1.56878e-07)
(-3.82674e-07 -5.33143e-06 -1.36628e-07)
(-3.29528e-07 -5.36364e-06 -1.14363e-07)
(-2.76032e-07 -5.39446e-06 -9.50089e-08)
(-2.31729e-07 -5.4211e-06 -7.98879e-08)
(-1.88456e-07 -5.4487e-06 -6.62035e-08)
(-1.44778e-07 -5.47691e-06 -5.30022e-08)
(-1.04199e-07 -5.50417e-06 -4.11139e-08)
(-6.64841e-08 -5.53093e-06 -3.01104e-08)
(-3.20625e-08 -5.55685e-06 -1.98649e-08)
(-1.55736e-09 -5.58128e-06 -1.03077e-08)
(2.16754e-08 -5.60444e-06 -2.26424e-09)
(5.07635e-08 -5.62836e-06 7.50386e-09)
(7.16697e-08 -5.6466e-06 1.51145e-08)
(8.73342e-08 -5.66389e-06 2.20013e-08)
(1.01382e-07 -5.68221e-06 2.99335e-08)
(1.08699e-07 -5.69459e-06 3.57848e-08)
(1.11891e-07 -5.70571e-06 4.17594e-08)
(1.11093e-07 -5.71551e-06 4.78876e-08)
(1.05845e-07 -5.72317e-06 5.4004e-08)
(9.61922e-08 -5.72862e-06 6.0201e-08)
(8.23622e-08 -5.73225e-06 6.66724e-08)
(6.46978e-08 -5.73426e-06 7.33331e-08)
(4.06204e-08 -5.73493e-06 8.13124e-08)
(9.57741e-08 -5.71138e-06 8.21609e-08)
(1.79663e-07 -5.68225e-06 8.07693e-08)
(2.74605e-07 -5.63716e-06 8.04044e-08)
(3.68371e-07 -5.58145e-06 8.35323e-08)
(4.612e-07 -5.507e-06 8.3222e-08)
(5.69651e-07 -5.40108e-06 8.44698e-08)
(6.61883e-07 -5.29083e-06 8.48891e-08)
(7.6133e-07 -5.14205e-06 7.88042e-08)
(8.69676e-07 -4.93346e-06 6.97167e-08)
(-4.06272e-07 -5.27852e-06 -4.09323e-08)
(-4.08614e-07 -5.28163e-06 -7.87652e-08)
(-4.14624e-07 -5.2886e-06 -1.20892e-07)
(0 -5.71367e-06 2.72063e-08)
(0 -5.71867e-06 4.78663e-08)
(0 -5.72622e-06 6.87694e-08)
(0 -5.74832e-06 6.94897e-08)
(0 -5.75801e-06 5.20677e-08)
(0 -5.76123e-06 3.69936e-08)
(0 -5.76084e-06 2.26048e-08)
(0 -5.75477e-06 1.09532e-08)
(0 -5.74566e-06 1.30807e-09)
(0 -5.73331e-06 -6.69904e-09)
(0 -5.71604e-06 -1.44091e-08)
(0 -5.69852e-06 -2.07313e-08)
(-1.15082e-08 -5.68699e-06 -2.51401e-08)
(-2.50876e-08 -5.68469e-06 -2.55597e-08)
(-3.71675e-08 -5.6818e-06 -2.6166e-08)
(-4.93037e-08 -5.67778e-06 -2.70121e-08)
(-6.15626e-08 -5.67257e-06 -2.80969e-08)
(-7.391e-08 -5.66624e-06 -2.94129e-08)
(-8.63375e-08 -5.6589e-06 -3.09546e-08)
(-9.77428e-08 -5.65141e-06 -3.25432e-08)
(-1.09479e-07 -5.64286e-06 -3.44273e-08)
(-1.23939e-07 -5.63121e-06 -3.70433e-08)
(-1.3868e-07 -5.61839e-06 -4.00292e-08)
(-1.52474e-07 -5.60558e-06 -4.32264e-08)
(-1.66389e-07 -5.5919e-06 -4.67959e-08)
(-1.79646e-07 -5.57904e-06 -5.02453e-08)
(-1.93797e-07 -5.56364e-06 -5.45568e-08)
(-2.10116e-07 -5.54475e-06 -6.00095e-08)
(-2.23984e-07 -5.52889e-06 -6.48966e-08)
(-2.39568e-07 -5.51038e-06 -7.11084e-08)
(-2.56451e-07 -5.48997e-06 -7.82529e-08)
(-2.70654e-07 -5.47292e-06 -8.47575e-08)
(-2.84892e-07 -5.45559e-06 -9.20783e-08)
(-3.0095e-07 -5.43592e-06 -1.0175e-07)
(-3.15208e-07 -5.419e-06 -1.12067e-07)
(-3.4169e-07 -5.39851e-06 -1.28763e-07)
(-3.57623e-07 -5.38913e-06 -1.34812e-07)
(-3.70367e-07 -5.38084e-06 -1.38854e-07)
(-3.82128e-07 -5.37274e-06 -1.42146e-07)
(-3.92778e-07 -5.36334e-06 -1.45874e-07)
(-4.02538e-07 -5.35307e-06 -1.4936e-07)
(-4.10111e-07 -5.34206e-06 -1.521e-07)
(-4.17127e-07 -5.32841e-06 -1.54548e-07)
(-4.21915e-07 -5.31443e-06 -1.55902e-07)
(0 -5.68127e-06 -7.81206e-09)
(0 -5.68246e-06 -1.41803e-08)
(0 -5.68426e-06 -2.06207e-08)
(-3.05217e-07 -5.42683e-06 -3.33532e-08)
(-3.08721e-07 -5.42627e-06 -6.33878e-08)
(-3.14897e-07 -5.42264e-06 -9.59805e-08)
(0 -5.67602e-06 -2.72251e-08)
(0 -5.66906e-06 -2.8581e-08)
(0 -5.66793e-06 -2.94109e-08)
(0 -5.67268e-06 -2.92572e-08)
(0 -5.68213e-06 -2.86771e-08)
(0 -5.6956e-06 -2.78629e-08)
(0 -5.71071e-06 -2.72861e-08)
(0 -5.72805e-06 -2.61302e-08)
(0 -5.75076e-06 -2.50105e-08)
(1.1546e-09 -5.76167e-06 -2.57967e-08)
(1.46485e-09 -5.753e-06 -2.60187e-08)
(1.10723e-09 -5.745e-06 -2.62585e-08)
(1.83262e-10 -5.73705e-06 -2.65435e-08)
(-1.36053e-09 -5.72915e-06 -2.68634e-08)
(-3.55461e-09 -5.7212e-06 -2.7221e-08)
(-6.42795e-09 -5.71314e-06 -2.76221e-08)
(-1.001e-08 -5.70491e-06 -2.80636e-08)
(-1.39956e-08 -5.69698e-06 -2.8473e-08)
(-1.87477e-08 -5.68869e-06 -2.89801e-08)
(-2.53321e-08 -5.67821e-06 -2.9716e-08)
(-3.20158e-08 -5.66841e-06 -3.05088e-08)
(-3.94539e-08 -5.65807e-06 -3.14343e-08)
(-4.76365e-08 -5.64711e-06 -3.25192e-08)
(-5.66399e-08 -5.63557e-06 -3.38614e-08)
(-6.64036e-08 -5.62337e-06 -3.54263e-08)
(-7.60849e-08 -5.61137e-06 -3.70526e-08)
(-8.61037e-08 -5.59918e-06 -3.89549e-08)
(-9.81847e-08 -5.5849e-06 -4.14453e-08)
(-1.12235e-07 -5.56924e-06 -4.48394e-08)
(-1.2659e-07 -5.55468e-06 -4.85622e-08)
(-1.4185e-07 -5.54231e-06 -5.30235e-08)
(-1.60388e-07 -5.53391e-06 -5.83543e-08)
(-1.89609e-07 -5.51983e-06 -6.88177e-08)
(-2.02745e-07 -5.50401e-06 -7.48965e-08)
(-2.15997e-07 -5.49014e-06 -8.05541e-08)
(-2.29046e-07 -5.47746e-06 -8.56982e-08)
(-2.43399e-07 -5.46454e-06 -9.12386e-08)
(-2.58688e-07 -5.45222e-06 -9.73384e-08)
(-2.75854e-07 -5.44e-06 -1.0399e-07)
(-2.92946e-07 -5.42867e-06 -1.10241e-07)
(-3.09321e-07 -5.4184e-06 -1.16087e-07)
(0 -5.77365e-06 -7.97504e-09)
(0 -5.77338e-06 -1.43486e-08)
(0 -5.77296e-06 -2.07007e-08)
(-1.85074e-07 -5.55658e-06 -2.11121e-08)
(-1.8603e-07 -5.55426e-06 -3.78305e-08)
(-1.84996e-07 -5.54701e-06 -5.28091e-08)
(3.52678e-09 -5.77318e-06 -2.5267e-08)
(7.44152e-09 -5.77399e-06 -2.48628e-08)
(1.16502e-08 -5.77543e-06 -2.4417e-08)
(1.65872e-08 -5.77775e-06 -2.38541e-08)
(2.22435e-08 -5.78114e-06 -2.31342e-08)
(2.81222e-08 -5.78538e-06 -2.23085e-08)
(3.44121e-08 -5.79075e-06 -2.13102e-08)
(4.20587e-08 -5.79809e-06 -1.99443e-08)
(4.88848e-08 -5.80518e-06 -1.84807e-08)
(5.10913e-08 -5.8042e-06 -1.68277e-08)
(4.80822e-08 -5.79635e-06 -1.68341e-08)
(4.46238e-08 -5.78835e-06 -1.72041e-08)
(4.13056e-08 -5.78123e-06 -1.73661e-08)
(3.77652e-08 -5.77412e-06 -1.74946e-08)
(3.39546e-08 -5.76708e-06 -1.76038e-08)
(2.98107e-08 -5.76003e-06 -1.76825e-08)
(2.59335e-08 -5.7537e-06 -1.78993e-08)
(2.11699e-08 -5.7468e-06 -1.76537e-08)
(1.54076e-08 -5.73875e-06 -1.79429e-08)
(9.78834e-09 -5.73156e-06 -1.80745e-08)
(3.72304e-09 -5.72435e-06 -1.82187e-08)
(-2.83429e-09 -5.7171e-06 -1.83888e-08)
(-9.91512e-09 -5.7098e-06 -1.85447e-08)
(-1.65424e-08 -5.70325e-06 -1.88628e-08)
(-2.51122e-08 -5.69618e-06 -1.89082e-08)
(-3.38967e-08 -5.6888e-06 -1.96199e-08)
(-4.27816e-08 -5.68259e-06 -1.98804e-08)
(-5.51811e-08 -5.6749e-06 -2.06391e-08)
(-6.87677e-08 -5.66733e-06 -2.20261e-08)
(-8.10101e-08 -5.66185e-06 -2.34945e-08)
(-9.8119e-08 -5.65716e-06 -2.53432e-08)
(-1.1842e-07 -5.65247e-06 -2.78567e-08)
(-1.38741e-07 -5.64185e-06 -3.23058e-08)
(-1.39432e-07 -5.63126e-06 -3.45913e-08)
(-1.40987e-07 -5.62099e-06 -3.69434e-08)
(-1.4315e-07 -5.61121e-06 -3.93816e-08)
(-1.45987e-07 -5.60097e-06 -4.2203e-08)
(-1.50568e-07 -5.58755e-06 -4.60779e-08)
(-1.56521e-07 -5.5733e-06 -5.03224e-08)
(-1.62464e-07 -5.56133e-06 -5.41457e-08)
(-1.70019e-07 -5.54788e-06 -5.87079e-08)
(5.2293e-08 -5.81105e-06 -5.19054e-09)
(5.26828e-08 -5.81101e-06 -9.53945e-09)
(5.33364e-08 -5.81095e-06 -1.38821e-08)
(-1.49074e-07 -5.66539e-06 -1.43939e-08)
(-1.47847e-07 -5.66237e-06 -2.28246e-08)
(-1.43386e-07 -5.65711e-06 -2.81725e-08)
(0 -6.0049e-06 -1.90473e-08)
(0 -5.99281e-06 -1.93891e-08)
(0 -5.98075e-06 -1.96391e-08)
(0 -5.96734e-06 -1.9712e-08)
(0 -5.9552e-06 -2.0389e-08)
(0 -5.94429e-06 -2.03521e-08)
(0 -5.93084e-06 -2.03582e-08)
(0 -5.91871e-06 -2.1032e-08)
(0 -5.90779e-06 -2.09789e-08)
(0 -5.89428e-06 -2.09848e-08)
(0 -5.88083e-06 -2.15129e-08)
(0 -5.87e-06 -2.20541e-08)
(0 -5.85912e-06 -2.20558e-08)
(0 -5.84698e-06 -2.22861e-08)
(0 -5.83488e-06 -2.25716e-08)
(0 -5.82274e-06 -2.2875e-08)
(0 -5.81062e-06 -2.31753e-08)
(0 -5.79864e-06 -2.35071e-08)
(0 -5.7856e-06 -2.37765e-08)
(5.51831e-08 -5.81732e-06 -1.67005e-08)
(5.85876e-08 -5.82914e-06 -1.68327e-08)
(6.06881e-08 -5.83923e-06 -1.75964e-08)
(6.24341e-08 -5.8486e-06 -1.77256e-08)
(6.4285e-08 -5.86031e-06 -1.79296e-08)
(6.578e-08 -5.8721e-06 -1.85104e-08)
(6.68991e-08 -5.88171e-06 -1.89933e-08)
(6.80795e-08 -5.8914e-06 -1.89446e-08)
(6.9137e-08 -5.90233e-06 -1.90908e-08)
(7.01318e-08 -5.91349e-06 -1.92554e-08)
(7.10783e-08 -5.92466e-06 -1.93892e-08)
(7.18626e-08 -5.93592e-06 -1.95371e-08)
(7.25892e-08 -5.94733e-06 -1.97229e-08)