/*--------------------------------*- C++ -*----------------------------------*\
| =========                 |                                                 |
| \\      /  F ield         | OpenFOAM: The Open Source CFD Toolbox           |
|  \\    /   O peration     | Version:  v2012                                 |
|   \\  /    A nd           | Website:  www.openfoam.com                      |
|    \\/     M anipulation  |                                                 |
\*---------------------------------------------------------------------------*/
FoamFile
{
    version     2.0;
    format      ascii;
    class       volScalarField;
    location    "1";
    object      sigmaHyd;
}
// * * * * * * * * * * * * * * * * * * * * * * * * * * * * * * * * * * * * * //

dimensions      [1 -1 -2 0 0 0 0];


internalField   nonuniform List<scalar> 
47040
(
3.77852e+06
4.619e+06
4.33332e+06
4.45004e+06
4.6166e+06
4.04788e+06
4.53586e+06
4.67469e+06
4.14909e+06
4.65866e+06
4.31622e+06
4.09256e+06
3.27171e+06
3.71185e+06
3.43887e+06
3.40667e+06
3.6255e+06
3.8313e+06
3.73916e+06
3.60074e+06
3.37616e+06
3.66309e+06
2.67343e+06
3.34866e+06
2.8896e+06
2.90986e+06
3.01354e+06
3.0309e+06
2.92861e+06
3.12358e+06
3.10482e+06
3.06295e+06
2.8584e+06
3.15208e+06
2.51274e+06
2.93878e+06
2.30949e+06
2.37279e+06
2.39607e+06
2.40719e+06
2.23197e+06
2.4423e+06
2.47865e+06
2.1986e+06
2.33946e+06
2.42282e+06
1.69028e+06
1.91772e+06
1.99243e+06
1.84084e+06
1.94143e+06
2.09046e+06
2.03319e+06
1.91131e+06
2.07447e+06
2.05404e+06
1.89257e+06
2.10524e+06
1.56467e+06
1.94205e+06
1.45977e+06
1.47534e+06
1.57024e+06
1.57775e+06
1.44019e+06
1.58906e+06
1.60918e+06
1.43869e+06
1.57419e+06
1.60811e+06
1.08005e+06
1.41125e+06
1.17417e+06
1.01903e+06
1.11831e+06
1.20121e+06
1.19851e+06
1.08295e+06
1.21319e+06
1.2191e+06
1.09456e+06
1.27266e+06
998829
1.17366e+06
744045
763949
863065
834712
874977
759798
866405
854860
770889
870757
611232
662336
469856
332426
420291
483727
401952
496437
508575
534409
390700
518379
423808
408031
88400.3
106303
224631
106176
147875
238217
123754
230123
184792
120380
113788
193234
-191461
-329339
-246396
-171734
-285244
-184287
-157377
-273441
-171869
-159714
-317918
-210229
-550700
-548275
-401187
-532431
-527434
-397369
-518844
-526561
-389479
-540586
-463879
-411085
-848944
-1.00385e+06
-918433
-823977
-970673
-870435
-822367
-986840
-884828
-860911
-1.0548e+06
-970633
-1.2184e+06
-1.23794e+06
-1.03641e+06
-1.20359e+06
-1.22232e+06
-1.04436e+06
-1.17159e+06
-1.22986e+06
-1.02762e+06
-1.2114e+06
-1.14011e+06
-1.06293e+06
-1.55552e+06
-1.74492e+06
-1.65013e+06
-1.52305e+06
-1.59565e+06
-1.73101e+06
-1.51416e+06
-1.74577e+06
-1.62323e+06
-1.59485e+06
-1.80964e+06
-1.77177e+06
-1.95734e+06
-1.99173e+06
-1.72529e+06
-1.93337e+06
-2.00401e+06
-1.73284e+06
-1.91338e+06
-2.03277e+06
-1.71834e+06
-1.95926e+06
-1.86111e+06
-1.77682e+06
-2.37801e+06
-2.63187e+06
-2.50845e+06
-2.34061e+06
-2.59955e+06
-2.46497e+06
-2.33638e+06
-2.48113e+06
-2.63532e+06
-2.42209e+06
-2.52399e+06
-2.82986e+06
-2.86098e+06
-2.97383e+06
-2.52198e+06
-2.81238e+06
-2.99083e+06
-2.54771e+06
-2.79174e+06
-2.99413e+06
-2.51873e+06
-2.75138e+06
-2.83317e+06
-2.53116e+06
-3.48757e+06
-4.32558e+06
-3.95817e+06
-3.45192e+06
-4.2962e+06
-3.96281e+06
-3.42606e+06
-4.25629e+06
-3.96191e+06
-3.50436e+06
-4.36982e+06
-4.28817e+06
-3.62056e+06
-4.00966e+06
-3.55915e+06
-3.69198e+06
-3.96259e+06
-3.56992e+06
-3.63675e+06
-3.86728e+06
-3.50657e+06
-3.52524e+06
-3.74825e+06
-3.40433e+06
3.34362e+06
3.39081e+06
3.05965e+06
3.43779e+06
3.45001e+06
3.27727e+06
3.27669e+06
3.34577e+06
3.13692e+06
3.13854e+06
2.77174e+06
3.16245e+06
2.78581e+06
2.87689e+06
2.96159e+06
2.72798e+06
2.82914e+06
2.92005e+06
2.58928e+06
2.72235e+06
2.72364e+06
2.44286e+06
2.33324e+06
2.73639e+06
2.58058e+06
2.67361e+06
2.40653e+06
2.4593e+06
2.41697e+06
2.60881e+06
2.36043e+06
2.29164e+06
2.42313e+06
2.19414e+06
1.93e+06
2.00952e+06
1.95057e+06
1.96457e+06
2.15819e+06
1.85432e+06
1.93662e+06
1.95353e+06
1.80403e+06
1.83189e+06
1.88284e+06
1.61469e+06
1.38673e+06
1.54585e+06
1.77979e+06
1.8092e+06
1.55987e+06
1.6749e+06
1.67845e+06
1.78457e+06
1.64377e+06
1.61067e+06
1.71542e+06
1.59044e+06
1.19496e+06
1.45488e+06
1.24037e+06
1.26741e+06
1.45684e+06
1.20395e+06
1.26818e+06
1.30418e+06
1.18766e+06
1.16138e+06
1.23565e+06
1.05792e+06
996549
1.14335e+06
1.07641e+06
1.08297e+06
861363
1.01542e+06
1.08149e+06
890227
1.00467e+06
1.01101e+06
884501
940834
753403
770579
625338
622079
810171
597086
625594
729437
572262
582586
662739
526237
450062
577969
437415
432038
237894
408251
427251
274476
386747
410154
274267
390955
251867
235078
41425.2
26723.2
207470
39687.1
25982.4
174549
36801.9
22173.1
155707
20164.5
6573.8
140554
-161448
-191335
-369918
-179767
-196303
-351805
-168943
-188886
-334230
-142915
-225735
-343773
-538301
-573632
-375277
-538022
-579251
-403643
-518266
-562246
-394024
-507549
-489004
-366429
-757666
-816998
-992752
-779604
-826019
-985674
-749985
-792761
-950240
-695927
-760102
-937971
-1.14239e+06
-1.20509e+06
-970924
-1.14547e+06
-1.21589e+06
-1.00137e+06
-1.10186e+06
-1.16605e+06
-964583
-1.05571e+06
-1.04403e+06
-892454
-1.37812e+06
-1.47726e+06
-1.65615e+06
-1.41196e+06
-1.48547e+06
-1.66649e+06
-1.35529e+06
-1.42435e+06
-1.60559e+06
-1.27175e+06
-1.34476e+06
-1.5683e+06
-1.80122e+06
-1.89566e+06
-1.6045e+06
-1.80633e+06
-1.9155e+06
-1.64044e+06
-1.7435e+06
-1.83795e+06
-1.57728e+06
-1.66435e+06
-1.66026e+06
-1.45964e+06
-2.05641e+06
-2.15935e+06
-2.39116e+06
-2.06137e+06
-2.17071e+06
-2.38291e+06
-1.99026e+06
-2.07968e+06
-2.31908e+06
-1.87186e+06
-1.95068e+06
-2.20525e+06
-2.54093e+06
-2.70356e+06
-2.3219e+06
-2.54211e+06
-2.7034e+06
-2.34894e+06
-2.46031e+06
-2.60959e+06
-2.2631e+06
-2.29067e+06
-2.34628e+06
-2.08183e+06
-2.78864e+06
-2.99659e+06
-3.05336e+06
-2.77561e+06
-2.94679e+06
-3.06399e+06
-2.70583e+06
-2.83844e+06
-3.0083e+06
-2.52881e+06
-2.77015e+06
-2.83842e+06
-2.9864e+06
-2.8731e+06
-3.02615e+06
-2.97397e+06
-2.82139e+06
-2.95837e+06
-2.90686e+06
-2.72644e+06
-2.85371e+06
-2.66717e+06
-2.53732e+06
-2.69594e+06
3.04425e+06
3.00344e+06
2.75746e+06
2.95095e+06
3.00565e+06
2.8772e+06
2.8415e+06
2.85359e+06
2.79496e+06
2.59097e+06
2.66517e+06
2.56926e+06
2.47555e+06
2.50095e+06
2.54204e+06
2.36164e+06
2.46486e+06
2.4955e+06
2.27265e+06
2.33363e+06
2.33971e+06
2.02377e+06
2.16227e+06
2.10215e+06
2.29993e+06
2.36721e+06
2.17626e+06
2.21838e+06
2.2969e+06
2.18536e+06
2.12117e+06
2.10577e+06
2.06342e+06
1.85047e+06
1.71832e+06
1.78515e+06
1.7567e+06
1.77685e+06
1.92222e+06
1.70013e+06
1.75344e+06
1.82674e+06
1.61247e+06
1.59838e+06
1.70676e+06
1.4321e+06
1.37772e+06
1.32316e+06
1.61819e+06
1.6734e+06
1.42723e+06
1.59724e+06
1.64892e+06
1.49531e+06
1.53178e+06
1.50884e+06
1.42094e+06
1.38866e+06
1.29144e+06
1.18998e+06
1.14163e+06
1.15528e+06
1.33117e+06
1.12297e+06
1.15233e+06
1.24564e+06
1.07184e+06
1.04682e+06
1.15783e+06
939269
907739
1.00784e+06
1.00543e+06
1.02893e+06
813275
984438
1.02135e+06
859999
955470
938353
833556
869998
734758
706035
580122
576442
749866
569313
571637
687910
539476
518097
634272
465394
482718
545363
419726
419704
231065
401627
408829
269667
389948
377860
265245
370097
293753
223423
36186.3
18298.8
193181
31802.8
19144.5
146882
27564.8
8991.96
128498
6901.35
52130.8
113201
-140080
-160380
-336773
-155198
-163798
-301444
-142838
-152058
-276067
-113882
-164586
-265372
-506447
-540722
-351369
-507303
-534774
-388351
-486819
-504391
-375088
-463968
-403791
-334411
-693616
-736991
-911664
-709050
-734112
-880539
-673505
-683173
-826049
-601368
-636565
-769520
-1.06763e+06
-1.12195e+06
-903480
-1.06744e+06
-1.11272e+06
-937034
-1.02306e+06
-1.0429e+06
-894478
-958208
-883250
-801811
-1.25122e+06
-1.32186e+06
-1.5067e+06
-1.2698e+06
-1.31391e+06
-1.47793e+06
-1.21148e+06
-1.2249e+06
-1.39612e+06
-1.09696e+06
-1.12061e+06
-1.29763e+06
-1.65747e+06
-1.73984e+06
-1.47367e+06
-1.66199e+06
-1.73022e+06
-1.51156e+06
-1.59607e+06
-1.62692e+06
-1.44186e+06
-1.49623e+06
-1.40868e+06
-1.29716e+06
-1.84868e+06
-1.90002e+06
-2.12238e+06
-1.8224e+06
-1.8817e+06
-2.07066e+06
-1.74159e+06
-1.76516e+06
-1.97429e+06
-1.59837e+06
-1.57432e+06
-1.75174e+06
-2.2686e+06
-2.38587e+06
-2.09887e+06
-2.24915e+06
-2.35022e+06
-2.1046e+06
-2.17033e+06
-2.22955e+06
-2.0129e+06
-1.99044e+06
-1.88205e+06
-1.82609e+06
-2.37682e+06
-2.53765e+06
-2.55064e+06
-2.38909e+06
-2.48751e+06
-2.5662e+06
-2.32537e+06
-2.36852e+06
-2.484e+06
-2.12896e+06
-2.1319e+06
-2.17167e+06
-2.56845e+06
-2.52912e+06
-2.62739e+06
-2.56145e+06
-2.49223e+06
-2.56797e+06
-2.50707e+06
-2.40368e+06
-2.47479e+06
-2.28669e+06
-2.21564e+06
-2.29914e+06
2.71091e+06
2.6815e+06
2.49082e+06
2.60399e+06
2.66448e+06
2.59919e+06
2.5149e+06
2.56423e+06
2.5603e+06
2.29801e+06
2.28921e+06
2.38036e+06
2.25012e+06
2.24653e+06
2.26143e+06
2.12377e+06
2.21335e+06
2.19332e+06
2.0468e+06
2.13303e+06
2.074e+06
1.85999e+06
1.90055e+06
1.72453e+06
2.08377e+06
2.09311e+06
1.96197e+06
1.97313e+06
1.99862e+06
1.93999e+06
1.88391e+06
1.8535e+06
1.82765e+06
1.67112e+06
1.3933e+06
1.62246e+06
1.5998e+06
1.59984e+06
1.73785e+06
1.54001e+06
1.55741e+06
1.63697e+06
1.45823e+06
1.42847e+06
1.53168e+06
1.30851e+06
1.25419e+06
1.17357e+06
1.4809e+06
1.50495e+06
1.30233e+06
1.44454e+06
1.45351e+06
1.34567e+06
1.37865e+06
1.33756e+06
1.26997e+06
1.26371e+06
1.12868e+06
1.1013e+06
1.05272e+06
1.05145e+06
1.22073e+06
1.02767e+06
1.02843e+06
1.12725e+06
974310
938634
1.04912e+06
864782
866485
924744
938565
944919
754765
908525
910758
795502
871772
840206
756028
804661
688543
652649
539037
526406
695133
522345
516521
623667
493944
470341
580366
431512
460053
512200
402304
395178
219110
379380
376443
261579
367462
350288
254762
351008
272322
216009
32118.8
10583
180207
23392.5
12682.3
125799
18972.9
7019.44
113028
2250.52
57140.2
102038
-118159
-138137
-307553
-135449
-143235
-262341
-124019
-129058
-238148
-95183
-145991
-226113
-475300
-507134
-327171
-478151
-494838
-369719
-459887
-463100
-354617
-436022
-360502
-315169
-630285
-664774
-836904
-643803
-658374
-788132
-610412
-606958
-734452
-539687
-570148
-676542
-994994
-1.04044e+06
-837656
-994459
-1.0197e+06
-873729
-954768
-952384
-832715
-892581
-797316
-744983
-1.13711e+06
-1.18762e+06
-1.37299e+06
-1.14793e+06
-1.1723e+06
-1.31803e+06
-1.0947e+06
-1.08641e+06
-1.23805e+06
-984634
-999297
-1.14104e+06
-1.52136e+06
-1.58716e+06
-1.35163e+06
-1.52396e+06
-1.56232e+06
-1.38857e+06
-1.46687e+06
-1.46575e+06
-1.32559e+06
-1.3737e+06
-1.26511e+06
-1.19218e+06
-1.67423e+06
-1.7011e+06
-1.90803e+06
-1.63962e+06
-1.67335e+06
-1.82964e+06
-1.56758e+06
-1.56265e+06
-1.73312e+06
-1.43276e+06
-1.40024e+06
-1.50238e+06
-2.05014e+06
-2.13111e+06
-1.90665e+06
-2.01997e+06
-2.0749e+06
-1.90025e+06
-1.95413e+06
-1.96167e+06
-1.81964e+06
-1.79234e+06
-1.64135e+06
-1.66283e+06
-2.10678e+06
-2.22397e+06
-2.23914e+06
-2.12123e+06
-2.18121e+06
-2.2377e+06
-2.06385e+06
-2.09271e+06
-2.15139e+06
-1.89084e+06
-1.89367e+06
-1.85585e+06
-2.2889e+06
-2.26542e+06
-2.34432e+06
-2.29495e+06
-2.24269e+06
-2.29979e+06
-2.24639e+06
-2.179e+06
-2.23654e+06
-2.05963e+06
-2.06413e+06
-2.10685e+06
2.4653e+06
2.45579e+06
2.29159e+06
2.3724e+06
2.43908e+06
2.4096e+06
2.29998e+06
2.38109e+06
2.38803e+06
2.13466e+06
2.15588e+06
2.26139e+06
2.07504e+06
2.05374e+06
2.0507e+06
1.94689e+06
2.03604e+06
1.98311e+06
1.88885e+06
1.98261e+06
1.89193e+06
1.73317e+06
1.79836e+06
1.58434e+06
1.90968e+06
1.88294e+06
1.78144e+06
1.78517e+06
1.78829e+06
1.75285e+06
1.71462e+06
1.67413e+06
1.66185e+06
1.53123e+06
1.25705e+06
1.50596e+06
1.46732e+06
1.45158e+06
1.58736e+06
1.40586e+06
1.40947e+06
1.48248e+06
1.33996e+06
1.31008e+06
1.40047e+06
1.21849e+06
1.18182e+06
1.06645e+06
1.36143e+06
1.36187e+06
1.18733e+06
1.31485e+06
1.30903e+06
1.22544e+06
1.26151e+06
1.21973e+06
1.16268e+06
1.17055e+06
1.05203e+06
1.03357e+06
971623
959210
1.12462e+06
943003
935253
1.02653e+06
899269
866474
965683
811236
832802
862069
874633
866427
695466
837194
829953
735098
807445
777587
699918
756078
656015
618342
499437
481029
645606
479431
471081
569198
455863
435906
537897
405327
446049
481720
383719
369417
204162
355730
349047
249641
346584
330858
242348
335469
260666
208957
27321.7
4821.02
169057
16178.8
8287.19
110019
12443.8
5502.26
103427
-1229.94
60463
93367.8
-98532.2
-118953
-283066
-118510
-124568
-230489
-108110
-110458
-211020
-81336
-133274
-202110
-446331
-474237
-303087
-450384
-458955
-349489
-435313
-431511
-333773
-415034
-334000
-301306
-572571
-600178
-770915
-585791
-593102
-709766
-557156
-548890
-665299
-495005
-528127
-618060
-926379
-962631
-774945
-925742
-937269
-813335
-893452
-881972
-777242
-842011
-743197
-704720
-1.03793e+06
-1.07338e+06
-1.25779e+06
-1.04522e+06
-1.05676e+06
-1.18626e+06
-1.00107e+06
-985853
-1.12017e+06
-907142
-925516
-1.04074e+06
-1.39988e+06
-1.44881e+06
-1.24123e+06
-1.39995e+06
-1.41823e+06
-1.27788e+06
-1.3551e+06
-1.34117e+06
-1.22612e+06
-1.27954e+06
-1.16912e+06
-1.11855e+06
-1.52717e+06
-1.53677e+06
-1.73619e+06
-1.49142e+06
-1.50858e+06
-1.64351e+06
-1.43409e+06
-1.41984e+06
-1.5656e+06
-1.32241e+06
-1.2936e+06
-1.35773e+06
-1.87622e+06
-1.93273e+06
-1.74627e+06
-1.84297e+06
-1.87114e+06
-1.73627e+06
-1.79504e+06
-1.7842e+06
-1.67329e+06
-1.66081e+06
-1.5068e+06
-1.55745e+06
-1.90005e+06
-1.99349e+06
-2.00989e+06
-1.92477e+06
-1.96906e+06
-2.00709e+06
-1.88299e+06
-1.91386e+06
-1.93916e+06
-1.74479e+06
-1.75259e+06
-1.68295e+06
-2.07539e+06
-2.05812e+06
-2.1268e+06
-2.09267e+06
-2.05279e+06
-2.09652e+06
-2.05732e+06
-2.01652e+06
-2.06048e+06
-1.90867e+06
-1.95953e+06
-1.96866e+06
2.27724e+06
2.28082e+06
2.13273e+06
2.19666e+06
2.27119e+06
2.26195e+06
2.14257e+06
2.243e+06
2.25622e+06
2.01059e+06
2.04972e+06
2.16459e+06
1.93354e+06
1.90035e+06
1.88523e+06
1.80545e+06
1.89844e+06
1.82321e+06
1.76423e+06
1.86856e+06
1.75838e+06
1.63742e+06
1.72268e+06
1.48437e+06
1.7667e+06
1.71504e+06
1.63051e+06
1.6331e+06
1.62418e+06
1.60126e+06
1.57975e+06
1.53995e+06
1.53075e+06
1.42347e+06
1.15589e+06
1.41681e+06
1.35401e+06
1.32879e+06
1.46189e+06
1.29361e+06
1.29061e+06
1.35708e+06
1.24226e+06
1.21662e+06
1.2961e+06
1.14534e+06
1.12266e+06
980366
1.25778e+06
1.24141e+06
1.08466e+06
1.20472e+06
1.19143e+06
1.12296e+06
1.16365e+06
1.12572e+06
1.07381e+06
1.09421e+06
990085
977493
898541
880117
1.04126e+06
869765
858678
942683
835724
808075
897816
766027
802664
809670
815476
796211
638472
772660
761505
679551
750743
725101
650896
713495
624742
589155
462215
441399
601430
441588
433062
523522
423212
407832
503245
383064
434035
454678
364884
344534
187095
332597
324799
235744
326696
313885
228642
321212
250788
202425
22289
596.371
159603
10407.8
4941.06
98214.2
7366.3
4210.15
97171.6
-3645.01
63372.5
86286.4
-81768.6
-103426
-263757
-104789
-109487
-205846
-95716.8
-96310.9
-192011
-70916.4
-123810
-185623
-419471
-443161
-279840
-423960
-427540
-329030
-412556
-405817
-313604
-396884
-314445
-289699
-521374
-545047
-714361
-536008
-539295
-645497
-513016
-503858
-612368
-460469
-498646
-576776
-862853
-891027
-716492
-862022
-865719
-757154
-837812
-824238
-727218
-798812
-703165
-672579
-951274
-977667
-1.16025e+06
-958867
-963551
-1.07965e+06
-924849
-909483
-1.03057e+06
-848613
-875491
-970313
-1.29378e+06
-1.32935e+06
-1.14296e+06
-1.29223e+06
-1.29937e+06
-1.18093e+06
-1.25998e+06
-1.24365e+06
-1.14125e+06
-1.20397e+06
-1.09948e+06
-1.06216e+06
-1.40258e+06
-1.40204e+06
-1.59652e+06
-1.36993e+06
-1.37818e+06
-1.49791e+06
-1.32789e+06
-1.31326e+06
-1.44257e+06
-1.24076e+06
-1.22033e+06
-1.25979e+06
-1.73379e+06
-1.77461e+06
-1.61191e+06
-1.7009e+06
-1.71575e+06
-1.60307e+06
-1.67073e+06
-1.65703e+06
-1.55816e+06
-1.56374e+06
-1.4176e+06
-1.48281e+06
-1.73175e+06
-1.81255e+06
-1.8306e+06
-1.76949e+06
-1.80744e+06
-1.83368e+06
-1.74521e+06
-1.78088e+06
-1.78895e+06
-1.63954e+06
-1.65289e+06
-1.56827e+06
-1.90145e+06
-1.88617e+06
-1.95032e+06
-1.92793e+06
-1.8984e+06
-1.93026e+06
-1.90858e+06
-1.88653e+06
-1.91682e+06
-1.79296e+06
-1.87451e+06
-1.85682e+06
2.12757e+06
2.13997e+06
1.99992e+06
2.05558e+06
2.13826e+06
2.13996e+06
2.01701e+06
2.13379e+06
2.14719e+06
1.91163e+06
1.9663e+06
2.0822e+06
1.81477e+06
1.77266e+06
1.74988e+06
1.68638e+06
1.78494e+06
1.69471e+06
1.65936e+06
1.77365e+06
1.65117e+06
1.55559e+06
1.65501e+06
1.40082e+06
1.64615e+06
1.57706e+06
1.50263e+06
1.50592e+06
1.4923e+06
1.47592e+06
1.46742e+06
1.4325e+06
1.42301e+06
1.33312e+06
1.07182e+06
1.34306e+06
1.25557e+06
1.22563e+06
1.35487e+06
1.1978e+06
1.19256e+06
1.25231e+06
1.15851e+06
1.13857e+06
1.20846e+06
1.08142e+06
1.07018e+06
904673
1.16767e+06
1.13961e+06
993844
1.11051e+06
1.0946e+06
1.03522e+06
1.08014e+06
1.048e+06
998082
1.02856e+06
937451
928828
833078
812212
968716
806069
794226
871614
780211
758000
839727
725315
774325
762344
761815
734241
585144
715042
702930
629261
700162
679485
606818
674820
596004
562806
427695
406784
562184
408195
400474
484570
394469
383601
473553
363247
422859
429452
346487
320936
168877
310476
302779
220869
307636
298129
214240
307868
241894
196457
17258
-2596.77
151495
5834.15
1939.4
88952.4
3258.09
3175.7
92779.3
-4946.17
67091
81207.2
-67894.6
-91587.7
-249127
-94196.6
-98178.4
-187281
-86668.7
-85828.7
-178717
-62679.8
-115699
-172244
-394829
-414470
-258063
-399089
-400207
-309376
-391027
-383689
-294995
-379418
-296245
-277872
-476448
-498811
-666312
-493737
-495214
-592803
-475855
-467471
-570092
-431606
-474631
-543329
-804555
-826334
-662766
-803249
-803476
-705536
-785898
-774429
-681700
-758863
-668398
-643785
-874831
-897031
-1.07724e+06
-885137
-887060
-992379
-860256
-847923
-959141
-799976
-836136
-915101
-1.20031e+06
-1.2266e+06
-1.05522e+06
-1.19778e+06
-1.20052e+06
-1.09572e+06
-1.17661e+06
-1.16367e+06
-1.06719e+06
-1.1388e+06
-1.04293e+06
-1.01422e+06
-1.29528e+06
-1.29029e+06
-1.48002e+06
-1.26768e+06
-1.27265e+06
-1.38051e+06
-1.23905e+06
-1.22858e+06
-1.34596e+06
-1.17376e+06
-1.16345e+06
-1.18359e+06
-1.61217e+06
-1.64353e+06
-1.49673e+06
-1.581e+06
-1.59121e+06
-1.49106e+06
-1.56632e+06
-1.55749e+06
-1.46243e+06
-1.48416e+06
-1.34822e+06
-1.423e+06
-1.58714e+06
-1.66197e+06
-1.68188e+06
-1.63871e+06
-1.67474e+06
-1.69448e+06
-1.63086e+06
-1.67127e+06
-1.67166e+06
-1.55289e+06
-1.56992e+06
-1.47806e+06
-1.75191e+06
-1.73624e+06
-1.79948e+06
-1.78596e+06
-1.76584e+06
-1.78644e+06
-1.78268e+06
-1.77442e+06
-1.79156e+06
-1.69385e+06
-1.79877e+06
-1.75787e+06
2.00369e+06
2.02152e+06
1.88441e+06
1.93628e+06
2.02669e+06
2.0337e+06
1.90999e+06
2.03979e+06
2.05125e+06
1.82414e+06
1.88861e+06
2.00474e+06
1.71133e+06
1.66205e+06
1.63484e+06
1.58198e+06
1.68632e+06
1.58618e+06
1.56631e+06
1.68893e+06
1.55865e+06
1.48003e+06
1.58827e+06
1.32352e+06
1.54138e+06
1.46008e+06
1.39209e+06
1.39598e+06
1.38185e+06
1.3694e+06
1.36953e+06
1.34054e+06
1.33023e+06
1.25211e+06
995124
1.27708e+06
1.16891e+06
1.13706e+06
1.26108e+06
1.11414e+06
1.10876e+06
1.16159e+06
1.08394e+06
1.06962e+06
1.13111e+06
1.02217e+06
1.01985e+06
833738
1.08887e+06
1.0524e+06
913573
1.0286e+06
1.01257e+06
959146
1.00672e+06
980468
931506
969192
889086
884126
775501
753641
905516
750423
738338
809604
730088
712857
787704
686738
745795
717165
713789
679525
535818
663609
651722
583645
654123
638331
566414
638406
568178
537875
395776
376401
527489
378686
371826
450623
369001
362054
446917
345501
411954
404791
328810
298664
150219
289564
282340
205708
289686
283416
199696
296439
234040
191081
12481.2
-5161.84
144391
2006.02
-968.093
81401.5
-270.791
1039.72
88683
-7152.69
76196.9
83582.1
-56602.7
-83110.3
-238448
-86478.3
-90135.6
-173317
-80614.1
-79912.7
-170352
-57378.1
-106125
-159648
-372324
-388807
-238395
-376244
-375541
-290325
-370027
-367297
-280628
-368294
-271333
-260746
-435758
-460487
-624975
-458386
-458176
-547898
-444234
-439195
-535063
-409415
-448687
-511695
-750525
-769793
-613624
-752870
-751559
-661470
-743264
-734367
-643738
-730937
-633352
-618603
-804651
-829228
-1.00455e+06
-823753
-823948
-918369
-807702
-798339
-899727
-761597
-799646
-867267
-1.11949e+06
-1.13926e+06
-976024
-1.11975e+06
-1.11993e+06
-1.02575e+06
-1.10926e+06
-1.09934e+06
-1.00842e+06
-1.08868e+06
-990593
-973176
-1.20079e+06
-1.19706e+06
-1.37902e+06
-1.18272e+06
-1.1857e+06
-1.28178e+06
-1.16521e+06
-1.15856e+06
-1.26491e+06
-1.1175e+06
-1.11271e+06
-1.11817e+06
-1.50833e+06
-1.53298e+06
-1.39644e+06
-1.48168e+06
-1.49012e+06
-1.39973e+06
-1.48129e+06
-1.47603e+06
-1.3848e+06
-1.41692e+06
-1.28126e+06
-1.36712e+06
-1.4588e+06
-1.53086e+06
-1.55313e+06
-1.52644e+06
-1.56071e+06
-1.57737e+06
-1.53368e+06
-1.57573e+06
-1.57286e+06
-1.47574e+06
-1.49414e+06
-1.39583e+06
-1.61029e+06
-1.59292e+06
-1.65857e+06
-1.65781e+06
-1.64332e+06
-1.65724e+06
-1.66906e+06
-1.67139e+06
-1.67786e+06
-1.6027e+06
-1.72428e+06
-1.67102e+06
1.89701e+06
1.91752e+06
1.78017e+06
1.83079e+06
1.92823e+06
1.93716e+06
1.8138e+06
1.95334e+06
1.96266e+06
1.74131e+06
1.81052e+06
1.92773e+06
1.61839e+06
1.56274e+06
1.53295e+06
1.48758e+06
1.59713e+06
1.4907e+06
1.48067e+06
1.60929e+06
1.47411e+06
1.40679e+06
1.51949e+06
1.24785e+06
1.45014e+06
1.35691e+06
1.29446e+06
1.29729e+06
1.28595e+06
1.27669e+06
1.28144e+06
1.25734e+06
1.24671e+06
1.17579e+06
921009
1.2145e+06
1.09359e+06
1.05674e+06
1.17743e+06
1.03428e+06
1.03415e+06
1.07885e+06
1.01486e+06
1.00586e+06
1.06032e+06
965147
969411
764703
1.0208e+06
974078
842260
952138
941319
893227
940906
919121
870921
913421
842194
841251
721076
701338
850725
696339
685111
746815
679850
670756
740416
649238
715731
672575
668142
629887
489864
615223
604232
541107
609509
600430
529549
603652
540046
513683
366007
349029
494671
351413
345206
418453
344705
340448
420111
326816
396414
377500
311487
277596
131695
269141
262252
189770
270840
266116
183126
279231
223730
178264
8378.81
-7636.1
137205
-1575.06
-2315.25
75587.2
-797.057
2529.79
89901.2
27086.7
125085
132531
-47252.7
-77832.6
-231698
-81628.2
-83580.7
-163242
-74505.5
-89236.6
-173661
-70562.6
-78293.9
-143561
-349640
-364556
-223063
-352596
-346882
-284679
-342878
-358402
-275393
-317723
-158494
-177958
-399628
-436659
-590436
-432987
-424556
-487787
-408973
-424449
-484902
-400056
-385296
-466844
-683695
-726255
-568338
-702323
-686644
-631259
-689352
-673921
-602792
-637212
-524734
-526647
-727175
-784085
-932450
-766294
-762821
-819863
-750649
-754321
-818814
-735374
-735134
-817290
-1.03069e+06
-1.05131e+06
-884988
-1.02921e+06
-1.03105e+06
-959628
-1.02905e+06
-1.02516e+06
-954427
-983197
-882998
-878753
-1.10119e+06
-1.1282e+06
-1.28354e+06
-1.10368e+06
-1.1041e+06
-1.16515e+06
-1.08812e+06
-1.09481e+06
-1.16685e+06
-1.07114e+06
-1.05529e+06
-1.08003e+06
-1.39357e+06
-1.42651e+06
-1.28434e+06
-1.36759e+06
-1.38356e+06
-1.30684e+06
-1.37674e+06
-1.38067e+06
-1.30585e+06
-1.31412e+06
-1.17738e+06
-1.24895e+06
-1.32227e+06
-1.42451e+06
-1.45262e+06
-1.41291e+06
-1.46025e+06
-1.45695e+06
-1.42617e+06
-1.48182e+06
-1.46228e+06
-1.41176e+06
-1.43202e+06
-1.30816e+06
-1.50121e+06
-1.4572e+06
-1.52801e+06
-1.52947e+06
-1.53817e+06
-1.55491e+06
-1.56544e+06
-1.56481e+06
-1.57683e+06
-1.5472e+06
-1.66669e+06
-1.64036e+06
1.79391e+06
1.82369e+06
1.67671e+06
1.73769e+06
1.83966e+06
1.85411e+06
1.72515e+06
1.87014e+06
1.87911e+06
1.65968e+06
1.72962e+06
1.84923e+06
1.52733e+06
1.49774e+06
1.4492e+06
1.40029e+06
1.50103e+06
1.38704e+06
1.38881e+06
1.53331e+06
1.39526e+06
1.33449e+06
1.44772e+06
1.17174e+06
1.35005e+06
1.24921e+06
1.19327e+06
1.20589e+06
1.1997e+06
1.2122e+06
1.19416e+06
1.17968e+06
1.16875e+06
1.10188e+06
847168
1.15297e+06
1.03232e+06
974046
1.09544e+06
956287
1.00038e+06
1.00851e+06
964123
943975
997486
908516
918194
696583
963304
889306
772257
884193
907295
866947
896389
860943
810366
858691
795426
799405
659469
657886
806175
654726
655934
700355
647769
628764
703969
613669
686595
628751
623630
582900
445641
571753
562465
504322
570855
565015
495909
574577
515190
494693
341573
325047
464597
327419
322596
391997
314033
314674
385155
304362
339486
356677
299149
258276
114810
251026
244627
175292
248714
257980
173452
251253
170453
170413
-13626.3
-16224.7
115411
-13645.8
-5689.46
66996.8
803.672
4297.58
89916.3
71395.9
52923.3
69614.9
-59753
-76888.6
-233067
-82235.3
-91785.5
-150460
-82563.3
-85689.9
-160331
-110083
-20732.7
-37343.9
-319346
-332627
-176569
-297027
-324035
-313865
-292801
-319791
-323292
-336122
-393518
-384409
-380404
-410233
-597902
-432860
-418744
-415789
-427387
-382115
-390963
-405600
-350557
-390253
-635321
-685204
-524822
-661690
-637844
-649297
-643972
-593161
-640331
-641395
-725008
-663568
-688174
-714125
-915811
-742077
-729440
-733203
-748499
-711044
-726613
-739468
-664725
-726494
-953206
-992180
-824911
-976260
-949717
-959567
-970237
-927241
-960754
-987581
-1.0361e+06
-991531
-1.03134e+06
-1.03996e+06
-1.24097e+06
-1.06365e+06
-1.04161e+06
-1.05225e+06
-1.07489e+06
-1.02725e+06
-1.04778e+06
-1.01376e+06
-938200
-1.03463e+06
-1.31172e+06
-1.35051e+06
-1.20744e+06
-1.28533e+06
-1.2729e+06
-1.27469e+06
-1.28921e+06
-1.26752e+06
-1.28543e+06
-1.23646e+06
-1.36045e+06
-1.2806e+06
-1.27081e+06
-1.31095e+06
-1.33779e+06
-1.32365e+06
-1.35808e+06
-1.33176e+06
-1.33806e+06
-1.37389e+06
-1.34022e+06
-1.26443e+06
-1.34911e+06
-1.28242e+06
-1.42707e+06
-1.37445e+06
-1.45918e+06
-1.43518e+06
-1.41322e+06
-1.42451e+06
-1.4518e+06
-1.42243e+06
-1.43538e+06
-1.41933e+06
-1.52042e+06
-1.43826e+06
1.73429e+06
1.74593e+06
1.61412e+06
1.64766e+06
1.73427e+06
1.75013e+06
1.63249e+06
1.78821e+06
1.79905e+06
1.57782e+06
1.6453e+06
1.7682e+06
1.49773e+06
1.39323e+06
1.36716e+06
1.32116e+06
1.4418e+06
1.30359e+06
1.3188e+06
1.45768e+06
1.31527e+06
1.26175e+06
1.37319e+06
1.09488e+06
1.27507e+06
1.18343e+06
1.09984e+06
1.11147e+06
1.06316e+06
1.08743e+06
1.12199e+06
1.1e+06
1.08524e+06
1.02908e+06
773480
1.09129e+06
955583
899878
1.00591e+06
894686
898020
915399
894112
877045
935284
852811
865904
629176
890924
864932
707324
838813
812776
783234
814422
803452
760922
805322
748720
758459
620148
605543
744469
606452
600989
653380
600463
591029
649542
575467
657009
584501
588671
541403
408449
531048
526345
468485
535392
520589
456696
526018
515771
482516
315184
303559
437905
304132
299787
363995
298149
292698
364286
326780
410866
345443
281883
224803
80923.8
221898
233370
152310
240125
227990
156565
288711
247831
297257
2341.91
-12299.7
127919
5154.48
-3883.48
70521.5
3298.15
-380.233
90693.2
-35896.9
122032
166399
-27336.3
-58405.4
-204400
-89184
-103367
-83207.2
-93539.3
-101913
-80926.8
-58157.4
-149890
-217371
-310206
-310969
-176137
-318935
-313321
-279001
-311799
-315608
-269507
-319985
-478644
-266177
-338979
-374594
-517430
-386578
-375315
-428830
-374022
-354328
-424250
-331451
-536758
-481056
-624923
-629037
-487919
-644183
-618733
-580378
-626167
-619383
-567731
-613303
-770029
-563877
-646022
-666177
-823309
-687158
-677964
-733060
-678758
-668637
-738531
-623233
-832745
-793196
-921496
-925310
-784721
-940619
-920266
-874205
-930292
-929935
-871304
-916890
-1.08442e+06
-863878
-969690
-974913
-1.13236e+06
-990648
-977635
-1.04125e+06
-977813
-978228
-1.04327e+06
-935292
-1.13075e+06
-1.05825e+06
-1.24685e+06
-1.26053e+06
-1.1464e+06
-1.23895e+06
-1.23667e+06
-1.18437e+06
-1.2479e+06
-1.25085e+06
-1.19092e+06
-1.22758e+06
-1.38062e+06
-1.23515e+06
-1.14003e+06
-1.22181e+06
-1.25405e+06
-1.23879e+06
-1.24836e+06
-1.2738e+06
-1.25645e+06
-1.26596e+06
-1.28879e+06
-1.23586e+06
-1.29167e+06
-1.24024e+06
-1.29961e+06
-1.25841e+06
-1.34705e+06
-1.32748e+06
-1.30032e+06
-1.30578e+06
-1.34502e+06
-1.3236e+06
-1.31638e+06
-1.28585e+06
-1.41095e+06
-1.29649e+06
1.66487e+06
1.63395e+06
1.50612e+06
1.55662e+06
1.70626e+06
1.71785e+06
1.56031e+06
1.70611e+06
1.70966e+06
1.49485e+06
1.55832e+06
1.68491e+06
1.37475e+06
1.31494e+06
1.29259e+06
1.22468e+06
1.37551e+06
1.2359e+06
1.25006e+06
1.3793e+06
1.23929e+06
1.18792e+06
1.29689e+06
1.01747e+06
1.21265e+06
1.07898e+06
1.04867e+06
1.02096e+06
1.04228e+06
1.0254e+06
1.04005e+06
1.03321e+06
1.02514e+06
956679
699748
1.02968e+06
881129
858837
957876
839769
841223
867216
829368
827776
865793
797168
811183
560963
832107
782478
652297
768003
755347
720907
760683
751500
709603
754170
701161
715402
575934
565259
694501
564372
559330
607457
559213
552622
605261
538316
620064
537724
552284
503108
370435
493195
487511
434641
497751
489838
430256
496676
472323
485772
289629
280957
410520
281861
278742
337555
278439
278529
344859
271263
438442
293738
265102
221069
82579.1
214908
211934
150930
222192
220912
146674
241061
414828
161555
-595.237
-4136.26
123359
-1831.82
-710.983
63412.1
-2667.77
615.676
78770.8
-288.45
74516.2
65775.5
-19422.6
-56836.7
-206613
-62581
-63266.6
-130122
-59403.4
-60171.9
-141842
-49599.8
-101589
-143305
-291043
-295726
-162569
-292973
-289616
-221926
-296015
-297815
-213304
-310253
-240873
-255733
-307815
-343417
-503086
-347590
-345217
-418707
-343183
-348626
-425864
-339651
-401806
-431960
-581856
-587109
-450368
-581745
-578782
-507812
-585759
-589550
-503210
-599652
-535325
-547296
-591140
-625076
-792714
-629150
-628558
-702785
-627876
-635648
-712661
-623379
-690584
-717567
-859457
-867806
-727638
-861437
-862961
-788917
-870932
-881243
-791557
-887877
-824539
-835490
-897608
-910838
-1.0749e+06
-908735
-915258
-986438
-914867
-932530
-1.00725e+06
-921398
-945065
-901992
-1.16838e+06
-1.18724e+06
-1.07349e+06
-1.14987e+06
-1.16409e+06
-1.09321e+06
-1.17663e+06
-1.19366e+06
-1.10642e+06
-1.16078e+06
-1.05812e+06
-1.19135e+06
-1.04495e+06
-1.11492e+06
-1.1507e+06
-1.14636e+06
-1.16365e+06
-1.19595e+06
-1.1763e+06
-1.20384e+06
-1.22419e+06
-1.16557e+06
-1.14719e+06
-1.07806e+06
-1.19639e+06
-1.14803e+06
-1.2433e+06
-1.22305e+06
-1.19679e+06
-1.19535e+06
-1.2467e+06
-1.23483e+06
-1.21738e+06
-1.20264e+06
-1.33181e+06
-1.22711e+06
1.55227e+06
1.56464e+06
1.42484e+06
1.46745e+06
1.57148e+06
1.58896e+06
1.45919e+06
1.61972e+06
1.62379e+06
1.41074e+06
1.46995e+06
1.60009e+06
1.30789e+06
1.22657e+06
1.20084e+06
1.15794e+06
1.27479e+06
1.15936e+06
1.16179e+06
1.30276e+06
1.16049e+06
1.11364e+06
1.21862e+06
939002
1.1404e+06
1.02249e+06
970984
966942
959495
961175
964879
956183
952109
884068
624974
967087