/*--------------------------------*- C++ -*----------------------------------*\
| =========                 |                                                 |
| \\      /  F ield         | OpenFOAM: The Open Source CFD Toolbox           |
|  \\    /   O peration     | Version:  v2012                                 |
|   \\  /    A nd           | Website:  www.openfoam.com                      |
|    \\/     M anipulation  |                                                 |
\*---------------------------------------------------------------------------*/
FoamFile
{
    version     2.0;
    format      ascii;
    class       volSymmTensorField;
    location    "19";
    object      sigma;
}
// * * * * * * * * * * * * * * * * * * * * * * * * * * * * * * * * * * * * * //

dimensions      [1 -1 -2 0 0 0 0];


internalField   nonuniform List<symmTensor> 
8000
(
(-1.91856e+08 3.67756e+06 0 -87326.1 0 -2.32629e+06)
(-1.87211e+08 706562 3.77162e-09 -2.80962e+06 1.3249e-09 1.26654e+06)
(-1.59439e+08 5.41122e+06 -9.35603e-08 -7.42307e+06 1.22812e-09 2.95918e+06)
(-1.58749e+08 -454320 -9.81832e-08 -5.87792e+06 -8.23045e-09 1.11857e+07)
(-1.30309e+08 5.99869e+06 -8.31148e-08 -1.10292e+07 -6.90221e-11 1.4326e+07)
(-1.28666e+08 -2.19944e+06 -2.07335e-08 -8.1957e+06 -1.61627e-08 2.13486e+07)
(-1.02613e+08 5.12156e+06 7.2455e-08 -1.199e+07 8.351e-10 2.39755e+07)
(-1.01025e+08 -3.83924e+06 4.69495e-08 -8.98856e+06 1.36572e-08 3.08771e+07)
(-7.74882e+07 3.87953e+06 0 -1.1403e+07 0 3.28796e+07)
(-7.6266e+07 -5.17731e+06 -7.41545e-08 -8.27926e+06 1.7381e-08 3.96258e+07)
(-5.47312e+07 2.72626e+06 -1.08462e-07 -9.66115e+06 -1.19455e-09 4.11007e+07)
(-5.37735e+07 -6.27478e+06 -5.08079e-08 -6.31187e+06 -3.09201e-08 4.75238e+07)
(-3.38728e+07 1.73268e+06 -2.76927e-08 -6.89862e+06 -1.21162e-08 4.87222e+07)
(-3.306e+07 -7.19683e+06 -3.1602e-08 -3.32089e+06 -1.49135e-08 5.46999e+07)
(-1.46259e+07 868794 4.68605e-08 -3.22426e+06 2.4561e-08 5.56684e+07)
(-1.38889e+07 -7.97522e+06 3.83665e-08 505438 2.09667e-08 6.11022e+07)
(3.18466e+06 92317 5.18779e-08 1.2321e+06 1.16617e-08 6.17655e+07)
(3.86014e+06 -8.61214e+06 5.48398e-08 5.01314e+06 -3.71418e-09 6.6608e+07)
(1.96776e+07 -626009 3.0994e-08 6.3226e+06 -3.72015e-08 6.68233e+07)
(2.0248e+07 -9.08262e+06 1.88702e-08 1.00592e+07 -4.38968e-09 7.09979e+07)
(3.49163e+07 -1.29717e+06 1.18104e-08 1.18846e+07 1.0905e-08 7.05756e+07)
(3.5289e+07 -9.34137e+06 3.20402e-08 1.54909e+07 -1.41039e-08 7.40049e+07)
(4.89096e+07 -1.91653e+06 2.56109e-08 1.77335e+07 -2.436e-09 7.27562e+07)
(4.89511e+07 -9.32813e+06 2.48545e-08 2.11316e+07 7.21712e-09 7.53799e+07)
(6.16169e+07 -2.45589e+06 1.80892e-09 2.36462e+07 -9.83863e-09 7.31848e+07)
(6.11676e+07 -8.97592e+06 2.84141e-09 2.67678e+07 7.27464e-09 7.49498e+07)
(7.296e+07 -2.85757e+06 1.54713e-09 2.93548e+07 1.50204e-08 7.179e+07)
(7.18661e+07 -8.22751e+06 1.33811e-09 3.21419e+07 9.59582e-10 7.26987e+07)
(8.28745e+07 -3.05069e+06 -4.23528e-09 3.4569e+07 -6.94545e-09 6.86792e+07)
(8.10264e+07 -7.05399e+06 -7.05946e-09 3.69635e+07 -7.59586e-09 6.88927e+07)
(9.13819e+07 -2.96922e+06 0 3.90117e+07 0 6.4231e+07)
(8.87443e+07 -5.46861e+06 1.61108e-08 4.09323e+07 1.19586e-08 6.40671e+07)
(9.86342e+07 -2.55197e+06 2.10309e-08 4.24556e+07 2.87119e-09 5.90335e+07)
(9.52973e+07 -3.55078e+06 7.72439e-09 4.37709e+07 4.44168e-09 5.89192e+07)
(1.04955e+08 -1.74688e+06 1.47563e-08 4.47638e+07 5.36209e-10 5.37315e+07)
(1.01257e+08 -1.50299e+06 2.58036e-08 4.52817e+07 1.27173e-08 5.39003e+07)
(1.10574e+08 -510177 -2.15109e-08 4.59176e+07 -2.34587e-09 4.838e+07)
(1.0676e+08 510487 -3.99752e-08 4.5325e+07 -1.83694e-08 4.84968e+07)
(1.0979e+08 1.25325e+06 -2.81811e-08 4.60138e+07 -3.61013e-09 4.59743e+07)
(1.07148e+08 1.94125e+06 1.15127e-08 4.39648e+07 4.27393e-09 4.44141e+07)
(-1.94772e+08 1.51974e+07 -4.51716e-09 -1.6579e+06 -1.88465e-09 -2.30232e+06)
(-1.86412e+08 6.66743e+06 -1.55891e-07 -3.38197e+06 -4.24733e-08 -1.44063e+06)
(-1.60736e+08 1.13097e+07 4.8195e-08 -6.29318e+06 1.78789e-08 -2843.49)
(-1.56179e+08 3.05114e+06 5.54153e-08 -5.29513e+06 1.70007e-08 9.43088e+06)
(-1.29316e+08 7.71818e+06 8.35885e-08 -9.42646e+06 1.8525e-08 1.21676e+07)
(-1.25796e+08 -753877 4.94672e-08 -5.89971e+06 1.63953e-08 2.03908e+07)
(-1.01012e+08 4.25853e+06 7.27599e-08 -1.06896e+07 1.47237e-08 2.32962e+07)
(-9.8275e+07 -4.29784e+06 4.59805e-08 -5.36822e+06 8.50566e-09 3.00152e+07)
(-7.60579e+07 975561 1.00787e-07 -1.02039e+07 2.1182e-08 3.32297e+07)
(-7.37138e+07 -7.51269e+06 4.80461e-08 -3.77552e+06 3.99084e-08 3.86249e+07)
(-5.3645e+07 -2.08075e+06 -4.15558e-08 -8.35545e+06 -3.33698e-08 4.20617e+07)
(-5.14755e+07 -1.0389e+07 -2.20467e-08 -1.2228e+06 -3.57524e-08 4.63522e+07)
(-3.31211e+07 -4.86959e+06 0 -5.47566e+06 0 4.99739e+07)
(-3.10909e+07 -1.29021e+07 1.80959e-08 2.14755e+06 3.29764e-09 5.3272e+07)
(-1.4162e+07 -7.36908e+06 4.55272e-08 -1.78669e+06 4.78231e-08 5.69828e+07)
(-1.23265e+07 -1.50172e+07 8.99086e-08 6.1643e+06 4.47101e-08 5.92919e+07)
(3.39807e+06 -9.57112e+06 -2.92908e-09 2.54221e+06 -2.08173e-08 6.29158e+07)
(4.91183e+06 -1.66835e+07 -1.01854e-08 1.06345e+07 6.88978e-09 6.42081e+07)
(1.96566e+07 -1.14587e+07 -4.53326e-08 7.33476e+06 -2.85905e-08 6.75069e+07)
(2.0639e+07 -1.78285e+07 -4.90413e-08 1.53472e+07 -2.27209e-08 6.7786e+07)
(3.46586e+07 -1.29813e+07 9.98369e-11 1.23731e+07 3.45259e-08 7.04958e+07)
(3.48144e+07 -1.83554e+07 -3.20132e-09 2.00733e+07 -7.6479e-09 6.97781e+07)
(4.83773e+07 -1.40367e+07 1.00296e-08 1.73869e+07 -6.2571e-09 7.16532e+07)
(4.73711e+07 -1.81574e+07 7.56162e-09 2.45705e+07 1.94302e-09 6.99833e+07)
(6.07201e+07 -1.4481e+07 -7.11865e-09 2.20773e+07 -1.7768e-08 7.09022e+07)
(5.82717e+07 -1.71531e+07 -5.5771e-09 2.86037e+07 -6.03261e-09 6.84232e+07)
(7.15841e+07 -1.41765e+07 8.02555e-10 2.61765e+07 -2.0549e-09 6.84168e+07)
(6.75429e+07 -1.53217e+07 2.47343e-08 3.19713e+07 1.92356e-08 6.53855e+07)
(8.09119e+07 -1.30393e+07 1.41119e-08 2.95003e+07 2.12263e-08 6.45933e+07)
(7.53039e+07 -1.27209e+07 -2.21067e-08 3.45299e+07 -7.20242e-09 6.13527e+07)
(8.87312e+07 -1.10669e+07 -1.14551e-08 3.19787e+07 -1.27588e-08 5.99726e+07)
(8.17939e+07 -9.48659e+06 5.87252e-09 3.6207e+07 -1.10298e-09 5.69031e+07)
(9.52104e+07 -8.35289e+06 5.84208e-09 3.3658e+07 1.02848e-08 5.51585e+07)
(8.74025e+07 -5.81623e+06 -4.13218e-09 3.69946e+07 3.09637e-09 5.2636e+07)
(1.00712e+08 -5.07746e+06 0 3.46707e+07 0 5.06764e+07)
(9.27465e+07 -1.93972e+06 1.81613e-08 3.69028e+07 1.12342e-08 4.88175e+07)
(1.05653e+08 -1.44615e+06 4.59928e-08 3.51704e+07 2.82101e-08 4.61645e+07)
(9.77758e+07 2.03806e+06 -3.03551e-08 3.59111e+07 -2.04301e-08 4.49085e+07)
(1.06427e+08 2.66976e+06 -2.28312e-08 3.52521e+07 -1.62673e-08 4.26995e+07)
(1.00462e+08 4.98304e+06 -5.82389e-08 3.43196e+07 -4.28987e-08 3.9502e+07)
(-1.90601e+08 2.27067e+07 3.73702e-09 -4.00715e+06 4.81405e-09 -1.22359e+06)
(-1.83293e+08 1.21324e+07 1.04426e-07 -2.79414e+06 6.30215e-08 -436802)
(-1.569e+08 1.67029e+07 -5.08497e-10 -7.62543e+06 1.29484e-08 2.23336e+06)
(-1.51818e+08 6.08326e+06 5.43709e-08 -3.98905e+06 2.68279e-08 1.03599e+07)
(-1.25554e+08 1.03229e+07 -3.07078e-08 -8.35489e+06 -3.44742e-08 1.44384e+07)
(-1.21009e+08 -209457 -3.46441e-09 -3.62956e+06 -1.95131e-08 2.18759e+07)
(-9.74122e+07 4.09717e+06 -2.93153e-08 -7.44527e+06 7.95591e-09 2.5129e+07)
(-9.38499e+07 -5.92858e+06 3.76681e-08 -2.02232e+06 3.2972e-08 3.18041e+07)
(-7.27958e+07 -1.4813e+06 4.87517e-09 -5.45522e+06 1.87059e-08 3.46353e+07)
(-6.99256e+07 -1.09173e+07 3.40846e-08 532899 3.18364e-08 4.04077e+07)
(-5.08681e+07 -6.40555e+06 1.60357e-08 -2.61042e+06 -1.21242e-08 4.31197e+07)
(-4.83719e+07 -1.52131e+07 -5.34442e-08 3.79153e+06 -3.91788e-08 4.79029e+07)
(-3.09188e+07 -1.07789e+07 1.85252e-08 948084 5.35903e-09 5.05936e+07)
(-2.8722e+07 -1.88243e+07 -3.82657e-08 7.53591e+06 -6.45151e-09 5.43636e+07)
(-1.25817e+07 -1.46428e+07 -5.35689e-08 5.05254e+06 -1.98089e-08 5.68741e+07)
(-1.0819e+07 -2.16951e+07 -1.01845e-08 1.15407e+07 -1.90959e-08 5.9628e+07)
(4.30746e+06 -1.79573e+07 0 9.47333e+06 0 6.16625e+07)
(5.35611e+06 -2.3724e+07 -1.98582e-08 1.5559e+07 -3.15171e-10 6.33904e+07)
(1.97992e+07 -2.06131e+07 1.87684e-08 1.39124e+07 1.00666e-08 6.46561e+07)
(1.97717e+07 -2.479e+07 -3.6759e-09 1.93286e+07 -7.40368e-09 6.53667e+07)
(3.38539e+07 -2.24442e+07 -6.16155e-09 1.80137e+07 -7.99043e-09 6.5703e+07)
(3.24028e+07 -2.47924e+07 -3.68618e-09 2.26004e+07 4.84299e-10 6.54377e+07)
(4.63693e+07 -2.32694e+07 -3.20032e-10 2.14228e+07 3.51368e-09 6.48764e+07)
(4.32809e+07 -2.36982e+07 -6.92569e-09 2.51854e+07 -1.21639e-08 6.37353e+07)
(5.72577e+07 -2.29684e+07 1.90937e-08 2.3887e+07 -9.83088e-09 6.25324e+07)
(5.25191e+07 -2.15678e+07 1.57583e-08 2.69887e+07 -1.07847e-08 6.06812e+07)
(6.6507e+07 -2.15269e+07 -3.50048e-08 2.53158e+07 -2.63112e-08 5.92162e+07)
(6.03042e+07 -1.85536e+07 1.04944e-08 2.80213e+07 4.51511e-09 5.68471e+07)
(7.42109e+07 -1.90503e+07 9.59435e-09 2.5797e+07 1.5221e-08 5.54943e+07)
(6.68789e+07 -1.48732e+07 -2.25014e-08 2.83844e+07 -1.53062e-09 5.27938e+07)
(8.05844e+07 -1.57448e+07 -1.31794e-08 2.55576e+07 -1.77761e-08 5.18233e+07)
(7.25191e+07 -1.07607e+07 7.10823e-10 2.82297e+07 -1.5085e-08 4.89643e+07)
(8.59734e+07 -1.18684e+07 -1.43969e-08 2.48842e+07 -2.58152e-08 4.84975e+07)
(7.75355e+07 -6.40814e+06 -2.38436e-08 2.77016e+07 -2.3738e-08 4.5667e+07)
(9.08195e+07 -7.65257e+06 -4.65701e-08 2.40372e+07 -3.02827e-08 4.56241e+07)
(8.2292e+07 -1.88667e+06 3.00807e-08 2.68578e+07 1.79373e-08 4.29418e+07)
(9.53479e+07 -3.2291e+06 4.36644e-08 2.32032e+07 3.55726e-08 4.27393e+07)
(8.6821e+07 2.73401e+06 -2.1546e-09 2.57414e+07 7.01137e-09 4.00525e+07)
(9.8456e+07 1.42586e+06 0 2.25055e+07 0 3.86002e+07)
(8.94594e+07 7.43938e+06 9.8381e-09 2.38782e+07 5.98923e-09 3.64115e+07)
(-1.84888e+08 2.92293e+07 0 -5.03884e+06 0 94990.8)
(-1.76177e+08 1.62126e+07 0 -3.87065e+06 0 857219)
(-1.50562e+08 1.90314e+07 -4.76118e-08 -7.09041e+06 -2.07711e-08 2.75554e+06)
(-1.45072e+08 7.42033e+06 4.7659e-08 -3.44325e+06 2.21742e-08 1.17919e+07)
(-1.19122e+08 1.01186e+07 4.02954e-08 -6.76107e+06 1.83324e-08 1.5454e+07)
(-1.14803e+08 -989043 0 -1.73399e+06 0 2.3408e+07)
(-9.16391e+07 2.09467e+06 0 -4.70943e+06 0 2.63274e+07)
(-8.84385e+07 -8.38376e+06 -8.87336e-09 840437 9.33671e-09 3.31255e+07)
(-6.78798e+07 -4.99003e+06 -9.38546e-08 -1.58754e+06 -7.88216e-08 3.54809e+07)
(-6.54594e+07 -1.47124e+07 -3.37002e-08 4.01675e+06 -6.76384e-08 4.13501e+07)
(-4.6797e+07 -1.12533e+07 3.25237e-09 2.21215e+06 2.23389e-08 4.32012e+07)
(-4.49788e+07 -2.00024e+07 3.31062e-08 7.55216e+06 2.91066e-08 4.82195e+07)
(-2.77089e+07 -1.67571e+07 2.74946e-08 6.41407e+06 2.098e-08 4.94761e+07)
(-2.65739e+07 -2.42046e+07 5.97742e-09 1.11737e+07 3.13846e-08 5.36109e+07)
(-1.03402e+07 -2.14349e+07 -2.24525e-08 1.07139e+07 -1.65416e-08 5.40573e+07)
(-1.01415e+07 -2.72082e+07 -1.12403e-08 1.45819e+07 -2.77621e-08 5.7205e+07)
(5.38191e+06 -2.51178e+07 -3.30886e-09 1.47295e+07 -7.89391e-09 5.66531e+07)
(4.31934e+06 -2.88926e+07 3.65021e-09 1.74806e+07 7.20204e-09 5.87375e+07)
(1.94239e+07 -2.75758e+07 -2.49551e-09 1.80138e+07 5.42837e-09 5.72189e+07)
(1.68406e+07 -2.91919e+07 2.60747e-09 1.96288e+07 -5.37527e-09 5.82433e+07)
(3.17213e+07 -2.86138e+07 5.75113e-09 2.01755e+07 -1.78781e-09 5.60905e+07)
(2.75589e+07 -2.81556e+07 2.51427e-08 2.09003e+07 1.8847e-08 5.6145e+07)
(4.2266e+07 -2.81831e+07 -1.32895e-08 2.10451e+07 1.12079e-08 5.38785e+07)
(3.67064e+07 -2.59616e+07 -3.21726e-08 2.13117e+07 2.63008e-09 5.31119e+07)
(5.1141e+07 -2.64086e+07 2.81379e-08 2.07228e+07 1.71107e-08 5.12667e+07)
(4.45581e+07 -2.28795e+07 3.60155e-08 2.10083e+07 1.25269e-08 4.98211e+07)
(5.85359e+07 -2.3568e+07 8.28624e-09 1.95354e+07 1.79397e-08 4.87706e+07)
(5.13658e+07 -1.92032e+07 -1.59264e-08 2.02112e+07 3.89213e-09 4.67598e+07)
(6.47241e+07 -2.00144e+07 3.97117e-09 1.79052e+07 -1.6148e-08 4.6601e+07)
(5.73254e+07 -1.51847e+07 -1.72811e-08 1.91479e+07 -3.42901e-08 4.41376e+07)
(7.00174e+07 -1.60814e+07 -2.40723e-08 1.62004e+07 -3.49328e-08 4.47278e+07)
(6.26191e+07 -1.10162e+07 -3.3322e-08 1.80098e+07 -3.97942e-08 4.1937e+07)
(7.47108e+07 -1.2015e+07 -3.13614e-08 1.46517e+07 -4.62446e-08 4.30769e+07)
(6.7429e+07 -6.81804e+06 -1.42759e-08 1.6938e+07 -4.31115e-08 4.00706e+07)
(7.90987e+07 -7.95081e+06 -3.51131e-08 1.33487e+07 -3.04684e-08 4.15525e+07)
(7.19065e+07 -2.60168e+06 3.14727e-08 1.60302e+07 2.94757e-08 3.83963e+07)
(8.3361e+07 -3.95048e+06 1.17331e-08 1.23035e+07 4.93288e-09 3.97369e+07)
(7.60222e+07 1.6829e+06 1.07294e-08 1.53191e+07 1.26601e-08 3.63789e+07)
(8.67971e+07 173083 -2.19542e-08 1.14426e+07 -3.23026e-08 3.68632e+07)
(7.8787e+07 5.92321e+06 -2.93941e-08 1.4933e+07 -3.41751e-08 3.35971e+07)
(-1.74684e+08 3.43422e+07 -1.3994e-10 -7.31435e+06 2.03268e-11 2.3256e+06)
(-1.65438e+08 1.96369e+07 -7.75969e-08 -4.50451e+06 -2.00958e-08 2.40095e+06)
(-1.42134e+08 2.05683e+07 -2.08458e-08 -7.13479e+06 1.03418e-08 4.77864e+06)
(-1.35701e+08 8.1884e+06 6.71859e-08 -2.86813e+06 1.75518e-08 1.31697e+07)
(-1.11523e+08 8.91852e+06 6.03817e-08 -5.16403e+06 1.3668e-08 1.67648e+07)
(-1.06952e+08 -2.2313e+06 -9.97308e-08 -159886 -4.0892e-08 2.45325e+07)
(-8.49662e+07 -960276 -4.17542e-08 -1.89975e+06 -3.98435e-08 2.66786e+07)
(-8.21379e+07 -1.10199e+07 -3.01739e-08 3.07689e+06 -5.52689e-08 3.35931e+07)
(-6.21773e+07 -9.32493e+06 2.87559e-08 2.15841e+06 1.94054e-08 3.44584e+07)
(-6.06884e+07 -1.82512e+07 3.79318e-08 6.50159e+06 9.88852e-09 4.07027e+07)
(-4.21341e+07 -1.64695e+07 7.1183e-09 6.61885e+06 -9.741e-09 4.02586e+07)
(-4.18266e+07 -2.39899e+07 -5.09479e-08 9.80906e+06 -2.34168e-08 4.58424e+07)
(-2.4271e+07 -2.24318e+07 -1.90143e-08 1.10177e+07 -3.59051e-09 4.39972e+07)
(-2.52506e+07 -2.8162e+07 -3.34022e-08 1.26724e+07 -2.36292e-08 4.87562e+07)
(-8.43286e+06 -2.70326e+07 0 1.47874e+07 0 4.55715e+07)
(-1.08945e+07 -3.06478e+07 -1.06328e-08 1.4772e+07 -6.50532e-09 4.93198e+07)
(5.3751e+06 -2.99873e+07 2.35633e-08 1.73247e+07 1.46033e-08 4.52344e+07)
(1.3581e+06 -3.14229e+07 1.71858e-08 1.58828e+07 1.03838e-08 4.79108e+07)
(1.71725e+07 -3.11154e+07 -1.71468e-08 1.82105e+07 -4.57729e-09 4.37356e+07)
(1.17955e+07 -3.06552e+07 -4.2821e-08 1.5968e+07 -2.16656e-08 4.53815e+07)
(2.71142e+07 -3.05134e+07 -1.45652e-08 1.74826e+07 -1.36132e-08 4.19372e+07)
(2.0798e+07 -2.86733e+07 2.77139e-08 1.51876e+07 -1.30277e-08 4.26305e+07)
(3.54601e+07 -2.85189e+07 -7.69989e-09 1.55787e+07 2.88501e-08 4.04691e+07)
(2.87222e+07 -2.5867e+07 -2.62382e-08 1.3832e+07 1.03479e-08 4.02798e+07)
(4.2542e+07 -2.56084e+07 5.29509e-08 1.31234e+07 -5.60578e-09 3.95528e+07)
(3.5808e+07 -2.25745e+07 3.04148e-08 1.22131e+07 -2.30654e-08 3.8576e+07)
(4.86883e+07 -2.22363e+07 -2.80732e-09 1.0665e+07 -3.13638e-08 3.90575e+07)
(4.21764e+07 -1.9028e+07 1.83693e-09 1.05807e+07 -9.73093e-09 3.7437e+07)
(5.41631e+07 -1.87067e+07 -2.59464e-08 8.50555e+06 -1.78557e-08 3.87154e+07)
(4.78824e+07 -1.53598e+07 -4.68198e-09 9.09336e+06 9.49962e-09 3.66307e+07)
(5.91537e+07 -1.51638e+07 -1.36113e-08 6.72255e+06 -2.41468e-08 3.82897e+07)
(5.30344e+07 -1.16629e+07 -2.07895e-08 7.84394e+06 -3.73989e-08 3.5881e+07)
(6.37642e+07 -1.16412e+07 -1.50315e-08 5.27706e+06 -2.4518e-08 3.77336e+07)
(5.77206e+07 -7.97363e+06 -3.46054e-08 6.86724e+06 -4.18582e-08 3.5101e+07)
(6.81802e+07 -8.15798e+06 -4.3671e-08 4.11596e+06 -6.35237e-08 3.69792e+07)
(6.20166e+07 -4.28851e+06 -6.84779e-09 6.17905e+06 -3.13088e-08 3.42387e+07)
(7.23e+07 -4.66906e+06 -1.22e-08 3.18979e+06 -5.38661e-09 3.60421e+07)
(6.60062e+07 -661116 -1.04218e-08 5.85463e+06 -1.33263e-08 3.2988e+07)
(7.60299e+07 -1.19856e+06 2.30635e-08 2.4791e+06 2.78232e-08 3.42843e+07)
(6.89788e+07 2.88672e+06 1.07269e-08 5.91581e+06 1.34651e-08 3.10637e+07)
(-1.60654e+08 3.74461e+07 2.87745e-08 -9.55184e+06 1.28222e-08 5.07983e+06)
(-1.51378e+08 2.21378e+07 -2.70985e-08 -5.10965e+06 3.64604e-08 4.47514e+06)
(-1.31225e+08 2.08387e+07 0 -6.84261e+06 0 7.00047e+06)
(-1.24043e+08 8.57306e+06 1.44915e-07 -2.25761e+06 3.8937e-08 1.43984e+07)
(-1.02582e+08 6.89689e+06 1.12443e-07 -3.19953e+06 6.7731e-08 1.75287e+07)
(-9.7667e+07 -3.38377e+06 2.88274e-08 1.20094e+06 6.79824e-08 2.4683e+07)
(-7.76496e+07 -4.56994e+06 -2.41385e-08 1.24761e+06 -5.94783e-08 2.53634e+07)
(-7.50763e+07 -1.31547e+07 -5.20193e-09 4.72419e+06 -2.34303e-08 3.19675e+07)
(-5.62882e+07 -1.39076e+07 -3.88842e-08 6.08358e+06 -1.1527e-08 3.02097e+07)
(-5.58182e+07 -2.08196e+07 7.29088e-08 7.93109e+06 2.2142e-08 3.63506e+07)
(-3.7745e+07 -2.13501e+07 5.11029e-08 1.07238e+07 3.90961e-08 3.22933e+07)
(-3.9281e+07 -2.64102e+07 6.72949e-08 1.04292e+07 6.12783e-08 3.78496e+07)
(-2.16868e+07 -2.68235e+07 4.73873e-08 1.43983e+07 5.86362e-08 3.19461e+07)
(-2.52089e+07 -2.98749e+07 8.95361e-08 1.18451e+07 7.42565e-08 3.68292e+07)
(-8.10445e+06 -3.01157e+07 6.53083e-09 1.62462e+07 6.47587e-09 3.01329e+07)
(-1.33593e+07 -3.12938e+07 1.9149e-08 1.19841e+07 7.40139e-09 3.43041e+07)
(3.12172e+06 -3.11792e+07 -3.18013e-08 1.57619e+07 8.88584e-09 2.8294e+07)
(-3.26298e+06 -3.10306e+07 -7.11919e-12 1.09731e+07 2.36108e-08 3.16092e+07)
(1.23817e+07 -3.04109e+07 4.63473e-08 1.34188e+07 3.15024e-08 2.73513e+07)
(5.58153e+06 -2.95898e+07 2.93122e-09 9.18115e+06 2.5286e-08 2.96635e+07)
(2.01843e+07 -2.84359e+07 -1.55896e-08 1.01841e+07 2.4664e-08 2.74741e+07)
(1.35499e+07 -2.74372e+07 1.04314e-08 7.04551e+06 5.20375e-08 2.87432e+07)
(2.70268e+07 -2.5876e+07 1.66804e-08 6.93368e+06 1.11225e-08 2.83155e+07)
(2.08377e+07 -2.48881e+07 -3.85237e-09 4.91539e+06 3.24652e-08 2.86577e+07)
(3.32569e+07 -2.31459e+07 9.67113e-09 4.13771e+06 1.32157e-08 2.93943e+07)
(2.75009e+07 -2.21034e+07 -9.27338e-09 2.99097e+06 -1.32209e-08 2.9008e+07)
(3.90159e+07 -2.03829e+07 1.43735e-08 1.8782e+06 4.68093e-08 3.03757e+07)
(3.35455e+07 -1.91537e+07 -2.58124e-08 1.35038e+06 -6.88504e-09 2.94497e+07)
(4.43438e+07 -1.7579e+07 2.32791e-08 49110.9 7.3379e-09 3.11026e+07)
(3.9e+07 -1.60908e+07 8.49416e-09 15258 -2.87447e-08 2.97691e+07)
(4.92613e+07 -1.47119e+07 2.48174e-08 -1.45228e+06 1.81823e-08 3.15393e+07)
(4.39727e+07 -1.29788e+07 -3.2131e-09 -1.01073e+06 8.99706e-09 2.98506e+07)
(5.38132e+07 -1.17897e+07 -1.48015e-08 -2.6746e+06 -2.47135e-08 3.17273e+07)
(4.84827e+07 -9.82591e+06 -3.44655e-08 -1.75292e+06 -4.1491e-08 2.97667e+07)
(5.81443e+07 -8.85799e+06 -3.20069e-08 -3.64523e+06 -5.07466e-08 3.16533e+07)
(5.27014e+07 -6.72334e+06 5.48935e-09 -2.1712e+06 -2.64828e-08 2.94597e+07)
(6.2294e+07 -5.91164e+06 -6.03928e-09 -4.41806e+06 6.69483e-09 3.13876e+07)
(5.65897e+07 -3.65208e+06 -3.73768e-08 -2.28983e+06 -2.43245e-08 2.89735e+07)
(6.60454e+07 -2.91225e+06 -2.49499e-08 -5.02168e+06 -4.81707e-08 3.06482e+07)
(5.97991e+07 -685687 -2.22014e-08 -2.08732e+06 -4.9778e-08 2.78611e+07)
(-1.43551e+08 3.83381e+07 -5.94295e-08 -1.14372e+07 2.2262e-09 8.019e+06)
(-1.34784e+08 2.37709e+07 -8.67597e-08 -5.82088e+06 -2.04406e-08 6.93427e+06)
(-1.18156e+08 2.00102e+07 -1.06136e-07 -6.19491e+06 -9.33872e-08 8.8934e+06)
(-1.10523e+08 8.71994e+06 -2.75994e-08 -1.85225e+06 -7.61606e-08 1.50006e+07)
(-9.24058e+07 4.30853e+06 0 -673484 0 1.66264e+07)
(-8.71696e+07 -4.25294e+06 -1.76072e-08 2.21871e+06 1.38111e-08 2.25647e+07)
(-6.98926e+07 -8.35479e+06 1.76617e-08 4.92485e+06 3.82307e-08 2.05829e+07)
(-6.75248e+07 -1.44088e+07 -2.0339e-08 5.7107e+06 -3.58039e-08 2.58149e+07)
(-5.07877e+07 -1.80563e+07 2.86271e-08 9.9853e+06 1.12831e-08 2.04319e+07)
(-5.12837e+07 -2.17337e+07 0 8.08065e+06 0 2.50749e+07)
(-3.46475e+07 -2.48226e+07 -8.90235e-09 1.36175e+07 -1.1811e-08 1.72049e+07)
(-3.7816e+07 -2.63421e+07 -4.67711e-08 8.9017e+06 -3.11286e-08 2.15694e+07)
(-2.12347e+07 -2.84705e+07 -1.30673e-09 1.47043e+07 -6.52717e-09 1.30923e+07)
(-2.65715e+07 -2.85584e+07 -3.19731e-08 8.08669e+06 -4.31338e-09 1.75548e+07)
(-1.03936e+07 -2.92414e+07 6.70739e-10 1.26325e+07 -9.38485e-09 1.08424e+07)
(-1.68271e+07 -2.90921e+07 2.57062e-08 6.09337e+06 -5.6561e-09 1.49531e+07)
(-1.54462e+06 -2.82675e+07 -3.07326e-08 8.80181e+06 -4.23739e-10 1.10287e+07)
(-8.10507e+06 -2.85977e+07 -1.59995e-08 3.55957e+06 -2.86016e-09 1.43443e+07)
(5.98755e+06 -2.65858e+07 2.85622e-08 4.80522e+06 1.08748e-08 1.28373e+07)
(-163323 -2.74888e+07 9.30205e-09 992283 1.23818e-08 1.52437e+07)
(1.27832e+07 -2.47693e+07 -1.01361e-08 1.44185e+06 -1.25642e-08 1.52353e+07)
(7.13588e+06 -2.59785e+07 -1.75208e-08 -1.32919e+06 -1.0776e-09 1.68601e+07)
(1.91556e+07 -2.29736e+07 -9.98205e-09 -1.19025e+06 -2.24847e-08 1.75648e+07)
(1.38598e+07 -2.41617e+07 2.64214e-08 -3.30904e+06 -1.84296e-08 1.85876e+07)
(2.51175e+07 -2.11524e+07 1.11684e-08 -3.35168e+06 2.27409e-08 1.96611e+07)
(2.00006e+07 -2.20632e+07 1.81456e-08 -4.96325e+06 3.48459e-08 2.01695e+07)
(3.0627e+07 -1.91742e+07 -5.17234e-09 -5.18441e+06 5.00386e-08 2.14597e+07)
(2.56031e+07 -1.9738e+07 7.27634e-08 -6.31691e+06 1.07527e-07 2.14837e+07)
(3.57022e+07 -1.70253e+07 7.6867e-08 -6.75029e+06 7.97023e-08 2.29333e+07)
(3.07275e+07 -1.72609e+07 -2.9917e-08 -7.38015e+06 2.12355e-08 2.24846e+07)
(4.03983e+07 -1.47526e+07 -3.76923e-09 -8.04154e+06 -3.0084e-08 2.40484e+07)
(3.54276e+07 -1.46737e+07 -1.04546e-08 -8.1841e+06 -4.12728e-08 2.3165e+07)
(4.47885e+07 -1.23862e+07 -1.18871e-08 -9.09619e+06 1.53302e-08 2.48189e+07)
(3.97367e+07 -1.20219e+07 2.67175e-09 -8.73707e+06 1.03859e-08 2.36105e+07)
(4.89612e+07 -9.9435e+06 3.41303e-08 -9.97155e+06 3.18589e-08 2.54004e+07)
(4.3802e+07 -9.36413e+06 4.33551e-08 -9.06324e+06 3.44768e-08 2.39741e+07)
(5.29913e+07 -7.4748e+06 3.85627e-08 -1.06569e+07 7.15447e-08 2.5896e+07)
(4.7757e+07 -6.84732e+06 1.19468e-08 -9.07597e+06 5.04354e-08 2.41258e+07)
(5.68374e+07 -5.0257e+06 3.98103e-08 -1.11216e+07 5.39538e-08 2.58808e+07)
(5.11464e+07 -4.39665e+06 3.68705e-08 -8.81708e+06 4.75247e-08 2.37074e+07)
(-1.24567e+08 3.71436e+07 1.56532e-08 -1.23347e+07 1.79578e-08 1.01099e+07)
(-1.1657e+08 2.43464e+07 1.11429e-07 -6.74749e+06 9.75736e-08 8.78553e+06)
(-1.03298e+08 1.8012e+07 2.65873e-08 -4.66478e+06 -1.29379e-07 8.5472e+06)
(-9.58608e+07 8.6327e+06 -1.5983e-07 -1.82709e+06 -1.28993e-07 1.32037e+07)
(-8.11149e+07 1.35338e+06 -1.4847e-07 2.59329e+06 -7.66279e-08 1.13323e+07)
(-7.61482e+07 -4.42575e+06 2.20735e-08 2.2933e+06 -4.32941e-08 1.55131e+07)
(-6.20226e+07 -1.16141e+07 -1.62144e-08 8.58602e+06 -2.5336e-08 9.24027e+06)
(-6.01205e+07 -1.39688e+07 1.7604e-08 4.76247e+06 2.0291e-08 1.26076e+07)
(-4.64031e+07 -2.05349e+07 -3.94966e-09 1.23256e+07 -6.85317e-09 3.0957e+06)
(-4.75099e+07 -2.00421e+07 -1.32384e-09 5.08304e+06 2.38887e-09 6.77958e+06)
(-3.4066e+07 -2.53924e+07 6.9156e-09 1.16464e+07 -1.61559e-08 -2.32762e+06)
(-3.71681e+07 -2.33691e+07 6.86625e-08 3.46686e+06 -2.02983e-08 1.48479e+06)
(-2.40274e+07 -2.62461e+07 2.30639e-09 6.74921e+06 1.7709e-08 -3.77206e+06)
(-2.79933e+07 -2.50873e+07 -4.80931e-08 868206 1.74323e-08 -1.02455e+06)
(-1.51878e+07 -2.53277e+07 -6.23514e-09 1.58568e+06 -2.21278e-08 -2.75112e+06)
(-1.96033e+07 -2.58688e+07 8.91243e-08 -1.93789e+06 5.59123e-09 -580173)
(-7.19867e+06 -2.41782e+07 -1.61879e-08 -1.99874e+06 8.55765e-08 -749551)
(-1.18071e+07 -2.60936e+07 -5.93009e-08 -4.48056e+06 7.56208e-08 1.39343e+06)
(31651.7 -2.32014e+07 5.00373e-08 -4.33735e+06 -1.3228e-09 1.6605e+06)
(-4.66462e+06 -2.58411e+07 -6.99012e-09 -6.62314e+06 -2.31608e-08 3.82623e+06)
(6.62453e+06 -2.23055e+07 -1.15038e-08 -6.21724e+06 -2.26466e-08 4.27372e+06)
(1.80159e+06 -2.50823e+07 2.62973e-08 -8.43397e+06 -2.23642e-08 6.35363e+06)
(1.27795e+07 -2.11944e+07 8.22444e-09 -8.11992e+06 4.49419e-08 6.98617e+06)
(7.73011e+06 -2.3873e+07 2.35389e-09 -9.99377e+06 4.34809e-08 8.8848e+06)
(1.83261e+07 -1.99345e+07 2.46463e-08 -9.75702e+06 3.49233e-08 9.60287e+06)
(1.32726e+07 -2.23679e+07 5.94371e-09 -1.12818e+07 3.21625e-08 1.10802e+07)
(2.34048e+07 -1.84723e+07 -9.92199e-09 -1.12159e+07 -3.27323e-08 1.19942e+07)
(1.83687e+07 -2.05995e+07 3.34535e-09 -1.23234e+07 -1.90008e-08 1.2938e+07)
(2.81223e+07 -1.68657e+07 -2.23762e-10 -1.24207e+07 -1.98103e-08 1.39505e+07)
(2.30581e+07 -1.86149e+07 -1.19227e-08 -1.31546e+07 -2.1456e-08 1.43831e+07)
(3.25106e+07 -1.50888e+07 -1.23078e-08 -1.34295e+07 1.66192e-08 1.5485e+07)
(2.7377e+07 -1.64499e+07 4.6893e-08 -1.38158e+07 4.92997e-08 1.55384e+07)
(3.66114e+07 -1.31547e+07 3.2157e-08 -1.43575e+07 4.7086e-08 1.68436e+07)
(3.14641e+07 -1.42286e+07 4.26039e-09 -1.42757e+07 2.86002e-08 1.65784e+07)
(4.05702e+07 -1.11672e+07 2.35427e-08 -1.51069e+07 1.70154e-08 1.8117e+07)
(3.54628e+07 -1.2079e+07 2.20884e-08 -1.44574e+07 1.60646e-08 1.75205e+07)
(4.45136e+07 -9.21569e+06 1.16038e-08 -1.5622e+07 3.13892e-08 1.92727e+07)
(3.93915e+07 -1.00198e+07 8.49934e-09 -1.43884e+07 2.94341e-08 1.82562e+07)
(4.83598e+07 -7.26242e+06 5.53048e-09 -1.59485e+07 -1.58391e-08 1.98464e+07)
(4.28564e+07 -7.96849e+06 -2.64552e-08 -1.41278e+07 -3.25044e-08 1.83561e+07)
(-1.04743e+08 3.40727e+07 -1.23405e-08 -1.18438e+07 -1.69915e-08 8.83659e+06)
(-9.76955e+07 2.38979e+07 2.73513e-08 -8.17909e+06 -4.0819e-08 7.22622e+06)
(-8.7316e+07 1.50656e+07 5.67826e-08 -2.14957e+06 -4.97728e-09 2.49986e+06)
(-8.10599e+07 8.67649e+06 -1.5235e-09 -3.08584e+06 -1.7372e-08 5.96108e+06)
(-6.91852e+07 -1.18235e+06 -2.65476e-08 5.67956e+06 -9.56218e-09 -1.74454e+06)
(-6.53906e+07 -3.42235e+06 -3.61453e-08 128812 -1.19032e-08 2.23535e+06)
(-5.45986e+07 -1.29638e+07 1.37245e-08 9.89271e+06 -3.7718e-09 -8.75739e+06)
(-5.29873e+07 -1.19101e+07 -1.17722e-08 1.18989e+06 -2.48474e-09 -4.52461e+06)
(-4.31866e+07 -1.85146e+07 -2.62243e-08 6.60934e+06 -2.00996e-09 -1.23293e+07)
(-4.34781e+07 -1.74149e+07 -2.80315e-08 817930 -5.95259e-09 -9.84068e+06)
(-3.55939e+07 -1.95523e+07 -3.85577e-08 653550 3.81465e-08 -1.09773e+07)
(-3.69353e+07 -1.94593e+07 1.92867e-08 -1.54904e+06 1.90979e-08 -9.65935e+06)
(-2.82965e+07 -2.04313e+07 6.13745e-08 -3.40651e+06 1.46192e-08 -9.48658e+06)
(-2.91693e+07 -2.11158e+07 -1.87749e-08 -3.99859e+06 4.88663e-09 -8.85593e+06)
(-2.02775e+07 -2.16058e+07 -7.83098e-09 -6.07001e+06 -2.41036e-08 -8.2366e+06)
(-2.16251e+07 -2.22906e+07 4.29049e-08 -6.26002e+06 -1.91223e-08 -7.29404e+06)
(-1.22786e+07 -2.22014e+07 3.32967e-09 -8.4315e+06 -5.81678e-08 -6.79141e+06)
(-1.4694e+07 -2.2843e+07 -6.81437e-08 -8.46885e+06 -4.2765e-08 -5.4118e+06)
(-4.92522e+06 -2.19251e+07 -8.28616e-08 -1.06384e+07 -1.87418e-08 -5.11097e+06)
(-8.19497e+06 -2.29833e+07 3.5106e-08 -1.05809e+07 -3.87817e-09 -3.46557e+06)
(1.33751e+06 -2.09937e+07 4.44474e-08 -1.24046e+07 3.54854e-08 -2.88105e+06)
(-1.86052e+06 -2.31725e+07 -4.5252e-08 -1.21243e+07 -1.31469e-08 -1.74e+06)
(7.29834e+06 -2.01682e+07 -1.4536e-08 -1.34572e+07 1.11033e-08 -964310)
(3.26289e+06 -2.26684e+07 -5.77274e-08 -1.35155e+07 -1.35439e-08 778610)
(1.24861e+07 -1.91163e+07 -1.53177e-08 -1.43656e+07 -2.21294e-08 1.12996e+06)
(8.06082e+06 -2.18109e+07 2.97867e-08 -1.46845e+07 -8.45541e-09 2.89953e+06)
(1.72061e+07 -1.80454e+07 2.69158e-08 -1.5202e+07 1.27389e-08 3.04474e+06)
(1.24365e+07 -2.05696e+07 1.18238e-08 -1.57271e+07 1.14981e-08 4.73838e+06)
(2.14838e+07 -1.68691e+07 1.20891e-08 -1.61493e+07 1.2129e-08 4.8516e+06)
(1.65289e+07 -1.90539e+07 -3.7092e-08 -1.66518e+07 -2.51305e-08 6.34526e+06)
(2.5478e+07 -1.54064e+07 -3.23402e-08 -1.72672e+07 -5.52543e-08 6.76312e+06)
(2.04713e+07 -1.74366e+07 -2.49854e-09 -1.73569e+07 -3.81272e-08 7.92259e+06)
(2.9292e+07 -1.38898e+07 -2.31151e-08 -1.81053e+07 -2.42091e-08 8.60236e+06)
(2.43416e+07 -1.58349e+07 -1.23978e-09 -1.77604e+07 8.61296e-09 9.34088e+06)
(3.30725e+07 -1.23799e+07 -2.91575e-08 -1.8667e+07 -3.50214e-08 1.02905e+07)
(2.8117e+07 -1.42308e+07 7.4745e-09 -1.79124e+07 -6.93127e-09 1.0623e+07)
(3.68348e+07 -1.08659e+07 -1.03636e-08 -1.90207e+07 1.51693e-08 1.17982e+07)
(3.18038e+07 -1.26047e+07 -1.27983e-08 -1.78825e+07 1.40171e-08 1.17025e+07)
(4.04902e+07 -9.26785e+06 2.28535e-08 -1.92631e+07 2.50544e-08 1.28039e+07)
(3.51743e+07 -1.09369e+07 3.2589e-08 -1.7703e+07 2.29243e-08 1.21759e+07)
(-8.51608e+07 2.96879e+07 2.31544e-08 -9.59376e+06 -1.42587e-08 -67069)
(-7.91914e+07 2.24379e+07 -6.99327e-08 -1.03361e+07 -3.97914e-08 -528158)
(-7.14992e+07 1.20283e+07 1.71364e-08 -187369 6.56253e-09 -1.05292e+07)
(-6.63154e+07 7.80687e+06 -7.97461e-09 -4.23942e+06 2.25476e-09 -7.36883e+06)
(-5.74539e+07 -1.78792e+06 -5.03079e-08 4.8834e+06 3.60398e-08 -1.69361e+07)
(-5.44158e+07 -3.96994e+06 3.09489e-08 1.01637e+06 1.97303e-08 -1.42839e+07)
(-4.90454e+07 -7.1016e+06 7.19739e-08 1.60888e+06 8.58021e-09 -1.51152e+07)
(-4.8741e+07 -8.3375e+06 -1.68086e-08 659039 8.02635e-09 -1.32048e+07)
(-4.23466e+07 -1.03849e+07 -2.53594e-08 -1.29698e+06 -4.14666e-09 -1.37233e+07)
(-4.1315e+07 -1.16934e+07 -8.61157e-09 -1.7185e+06 -1.1637e-08 -1.24501e+07)
(-3.56133e+07 -1.32487e+07 -1.77861e-08 -3.29505e+06 -2.38701e-08 -1.28749e+07)
(-3.4997e+07 -1.46587e+07 -2.63499e-08 -3.55603e+06 -5.58722e-09 -1.10439e+07)
(-2.8866e+07 -1.5517e+07 -1.76837e-08 -5.17483e+06 5.9902e-09 -1.15603e+07)
(-2.87731e+07 -1.67942e+07 6.11223e-09 -5.25777e+06 -1.64214e-08 -9.59013e+06)
(-2.22442e+07 -1.71971e+07 1.87419e-08 -7.06241e+06 3.44204e-08 -1.00275e+07)
(-2.25868e+07 -1.8194e+07 3.3647e-08 -6.98786e+06 2.97619e-08 -8.25319e+06)
(-1.58536e+07 -1.83572e+07 6.90339e-08 -8.94499e+06 2.76688e-08 -8.5653e+06)
(-1.66002e+07 -1.90561e+07 1.17723e-08 -8.62655e+06 1.14145e-08 -7.03383e+06)
(-9.60131e+06 -1.91293e+07 -2.90345e-08 -1.07706e+07 1.55202e-09 -7.22834e+06)
(-1.08118e+07 -1.9524e+07 9.00502e-08 -1.01067e+07 6.21654e-08 -5.89632e+06)
(-3.55855e+06 -1.94743e+07 3.79787e-08 -1.2578e+07 9.03074e-08 -5.79023e+06)
(-5.1528e+06 -1.95685e+07 2.77347e-08 -1.18493e+07 1.01652e-07 -4.69813e+06)
(2.08137e+06 -1.9308e+07 3.19596e-08 -1.4365e+07 -3.01863e-09 -4.41732e+06)
(-117234 -1.93986e+07 -4.20462e-08 -1.35492e+07 -9.0444e-09 -3.4572e+06)
(7.26401e+06 -1.86516e+07 -5.87152e-08 -1.60391e+07 -6.88795e-08 -3.22134e+06)
(4.43152e+06 -1.90215e+07 -4.05059e-08 -1.516e+07 -5.45581e-08 -2.24953e+06)
(1.19323e+07 -1.75956e+07 -4.37037e-08 -1.74461e+07 -1.18068e-08 -2.1515e+06)
(8.56779e+06 -1.85258e+07 5.37619e-08 -1.64993e+07 2.32584e-08 -1.02005e+06)
(1.57278e+07 -1.62514e+07 4.45909e-08 -1.84385e+07 3.47795e-08 -605350)