/*--------------------------------*- C++ -*----------------------------------*\
| =========                 |                                                 |
| \\      /  F ield         | OpenFOAM: The Open Source CFD Toolbox           |
|  \\    /   O peration     | Version:  v2012                                 |
|   \\  /    A nd           | Website:  www.openfoam.com                      |
|    \\/     M anipulation  |                                                 |
\*---------------------------------------------------------------------------*/
FoamFile
{
    version     2.0;
    format      ascii;
    class       volScalarField;
    location    "19";
    object      sigmaHyd;
}
// * * * * * * * * * * * * * * * * * * * * * * * * * * * * * * * * * * * * * //

dimensions      [1 -1 -2 0 0 0 0];


internalField   nonuniform List<scalar> 
8000
(
-6.47566e+07
-6.29181e+07
-5.46342e+07
-5.11471e+07
-4.23375e+07
-3.85045e+07
-3.02091e+07
-2.63788e+07
-1.86705e+07
-1.49731e+07
-7.76386e+06
-4.18719e+06
2.65027e+06
6.10633e+06
1.26061e+07
1.59062e+07
2.20607e+07
2.51604e+07
3.09412e+07
3.37684e+07
3.91255e+07
4.15949e+07
4.64665e+07
4.84876e+07
5.2816e+07
5.42951e+07
5.80349e+07
5.89023e+07
6.20409e+07
6.22942e+07
6.48749e+07
6.45812e+07
6.67078e+07
6.59958e+07
6.78167e+07
6.68129e+07
6.82904e+07
6.68604e+07
6.72594e+07
6.51756e+07
-6.6244e+07
-6.37449e+07
-5.56774e+07
-5.0681e+07
-4.21918e+07
-3.71016e+07
-2.94684e+07
-2.45427e+07
-1.76774e+07
-1.29548e+07
-6.64624e+06
-2.11539e+06
3.79239e+06
8.10954e+06
1.36781e+07
1.77099e+07
2.2952e+07
2.65848e+07
3.14994e+07
3.45908e+07
3.91759e+07
4.15553e+07
4.58058e+07
4.73083e+07
5.12332e+07
5.17662e+07
5.53925e+07
5.49666e+07
5.83352e+07
5.70622e+07
6.02275e+07
5.83013e+07
6.13423e+07
5.9011e+07
6.20198e+07
5.94889e+07
6.23295e+07
5.95318e+07
6.14595e+07
5.80945e+07
-6.52771e+07
-6.21745e+07
-5.40972e+07
-4.84823e+07
-3.98235e+07
-3.42544e+07
-2.65761e+07
-2.13561e+07
-1.45386e+07
-9.66166e+06
-3.45294e+06
1.10753e+06
6.87432e+06
1.10592e+07
1.64483e+07
2.01166e+07
2.51478e+07
2.81018e+07
3.27893e+07
3.48223e+07
3.91902e+07
4.0147e+07
4.42228e+07
4.40672e+07
4.78924e+07
4.67297e+07
5.03463e+07
4.83909e+07
5.18341e+07
4.93523e+07
5.26551e+07
4.99044e+07
5.31184e+07
5.03014e+07
5.34936e+07
5.06972e+07
5.37635e+07
5.08716e+07
5.31872e+07
4.99163e+07
-6.32772e+07
-5.97302e+07
-5.16323e+07
-4.55746e+07
-3.68096e+07
-3.10429e+07
-2.33404e+07
-1.81575e+07
-1.13288e+07
-6.69751e+06
-461216
3.59761e+06
9.39373e+06
1.27369e+07
1.81437e+07
2.05485e+07
2.55882e+07
2.68458e+07
3.15522e+07
3.15709e+07
3.59958e+07
3.48681e+07
3.90632e+07
3.70433e+07
4.10435e+07
3.84625e+07
4.22806e+07
3.94456e+07
4.30768e+07
4.02036e+07
4.36485e+07
4.08553e+07
4.41464e+07
4.14792e+07
4.46666e+07
4.2111e+07
4.51338e+07
4.25734e+07
4.50343e+07
4.2439e+07
-5.98908e+07
-5.58473e+07
-4.81635e+07
-4.17998e+07
-3.33076e+07
-2.75266e+07
-2.00624e+07
-1.5156e+07
-8.52017e+06
-4.49469e+06
1.58113e+06
4.60829e+06
1.0248e+07
1.20594e+07
1.73087e+07
1.77324e+07
2.26447e+07
2.17172e+07
2.63729e+07
2.43816e+07
2.88447e+07
2.62054e+07
3.05026e+07
2.76113e+07
3.17394e+07
2.88657e+07
3.28036e+07
3.00647e+07
3.37947e+07
3.12021e+07
3.4722e+07
3.22531e+07
3.55916e+07
3.32296e+07
3.64251e+07
3.41448e+07
3.71773e+07
3.49496e+07
3.75978e+07
3.53194e+07
-5.50418e+07
-5.06707e+07
-4.36891e+07
-3.73006e+07
-2.94175e+07
-2.39277e+07
-1.70129e+07
-1.27949e+07
-6.66497e+06
-3.84551e+06
1.75734e+06
2.99926e+06
8.21921e+06
7.82181e+06
1.27582e+07
1.09763e+07
1.57259e+07
1.31064e+07
1.77173e+07
1.48087e+07
1.92808e+07
1.64462e+07
2.07587e+07
1.81369e+07
2.2263e+07
1.98333e+07
2.37566e+07
2.14485e+07
2.51652e+07
2.29281e+07
2.64494e+07
2.42708e+07
2.7622e+07
2.54988e+07
2.87175e+07
2.66633e+07
2.97545e+07
2.77578e+07
3.05573e+07
2.85243e+07
-4.89896e+07
-4.45569e+07
-3.84858e+07
-3.24583e+07
-2.54843e+07
-2.07954e+07
-1.4795e+07
-1.19997e+07
-6.79017e+06
-6.04272e+06
-1.27502e+06
-2.4483e+06
2.18731e+06
-309979
4.36044e+06
1.40646e+06
6.0953e+06
3.26626e+06
7.8767e+06
5.35755e+06
9.82012e+06
7.5556e+06
1.18434e+07
9.71279e+06
1.3809e+07
1.17356e+07
1.56341e+07
1.359e+07
1.72951e+07
1.52773e+07
1.88017e+07
1.68028e+07
2.01704e+07
1.82034e+07
2.14634e+07
1.9571e+07
2.27435e+07
2.09356e+07
2.38655e+07
2.20122e+07
-4.2264e+07
-3.81772e+07
-3.31385e+07
-2.81614e+07
-2.23964e+07
-1.94472e+07
-1.47321e+07
-1.42502e+07
-1.03273e+07
-1.18824e+07
-8.24909e+06
-1.07388e+07
-7.01674e+06
-9.3832e+06
-5.45107e+06
-7.37378e+06
-3.31565e+06
-4.96475e+06
-881731
-2.48718e+06
1.56034e+06
-92914.6
3.88193e+06
2.20705e+06
6.05731e+06
4.35698e+06
8.06104e+06
6.32776e+06
9.88404e+06
8.09557e+06
1.15221e+07
9.69988e+06
1.30325e+07
1.12556e+07
1.45268e+07
1.28419e+07
1.60547e+07
1.44198e+07
1.74192e+07
1.56949e+07
-3.59168e+07
-3.28828e+07
-2.89886e+07
-2.60615e+07
-2.17501e+07
-2.10088e+07
-1.78211e+07
-1.8774e+07
-1.63022e+07
-1.75003e+07
-1.53059e+07
-1.60479e+07
-1.37299e+07
-1.40079e+07
-1.1528e+07
-1.17264e+07
-9.16716e+06
-9.52489e+06
-6.89154e+06
-7.41382e+06
-4.64939e+06
-5.24161e+06
-2.37439e+06
-3.15801e+06
-249839
-1.24137e+06
1.68292e+06
482592
3.39538e+06
2.07412e+06
4.9913e+06
3.67899e+06
6.59636e+06
5.30734e+06
8.23199e+06
6.94257e+06
9.8708e+06
8.54129e+06
1.13437e+07
9.88241e+06
-3.16072e+07
-3.00186e+07
-2.74053e+07
-2.59745e+07
-2.31689e+07
-2.25611e+07
-2.08506e+07
-2.04289e+07
-1.91223e+07
-1.84945e+07
-1.72611e+07
-1.65323e+07
-1.52004e+07
-1.45403e+07
-1.31114e+07
-1.26093e+07
-1.11213e+07
-1.07535e+07
-9.2001e+06
-8.93829e+06
-7.30892e+06
-7.23341e+06
-5.56697e+06
-5.70787e+06
-3.9988e+06
-4.32601e+06
-2.55509e+06
-2.98385e+06
-1.10536e+06
-1.5672e+06
429735
-151614
1.94366e+06
1.22583e+06
3.43149e+06
2.60593e+06
4.90787e+06
3.98197e+06
6.26199e+06
5.19236e+06
-2.9186e+07
-2.78051e+07
-2.63344e+07
-2.44078e+07
-2.28974e+07
-2.131e+07
-2.03635e+07
-1.91523e+07
-1.8374e+07
-1.73867e+07
-1.65678e+07
-1.57407e+07
-1.48145e+07
-1.41325e+07
-1.31092e+07
-1.25511e+07
-1.14492e+07
-1.09942e+07
-9.82712e+06
-9.48092e+06
-8.28727e+06
-8.04903e+06
-6.87441e+06
-6.71802e+06
-5.56563e+06
-5.45935e+06
-4.30326e+06
-4.26904e+06
-3.09198e+06
-3.17755e+06
-1.96149e+06
-2.16388e+06
-870423
-1.14936e+06
262437
-65437.3
1.463e+06
1.04308e+06
2.60617e+06
2.04963e+06
-2.62227e+07
-2.42382e+07
-2.35106e+07
-2.14179e+07
-2.05465e+07
-1.91047e+07
-1.85507e+07
-1.75389e+07
-1.70422e+07
-1.6253e+07
-1.56615e+07
-1.50041e+07
-1.42871e+07
-1.37269e+07
-1.28995e+07
-1.24193e+07
-1.15046e+07
-1.1098e+07
-1.01237e+07
-9.79012e+06
-8.78701e+06
-8.52323e+06
-7.51734e+06
-7.31287e+06
-6.3141e+06
-6.1655e+06
-5.18288e+06
-5.0882e+06
-4.13533e+06
-4.07812e+06
-3.15406e+06
-3.11168e+06
-2.19004e+06
-2.15672e+06
-1.20739e+06
-1.22214e+06
-246839
-330960
650382
514780
-2.18611e+07
-2.02011e+07
-2.0136e+07
-1.85764e+07
-1.82769e+07
-1.72066e+07
-1.69648e+07
-1.62029e+07
-1.59144e+07
-1.53024e+07
-1.48909e+07
-1.43597e+07
-1.38133e+07
-1.33394e+07
-1.26753e+07
-1.22522e+07
-1.14959e+07
-1.11235e+07
-1.03024e+07
-9.98164e+06
-9.12192e+06
-8.85105e+06
-7.97373e+06
-7.74822e+06
-6.86868e+06
-6.68297e+06
-5.81357e+06
-5.65944e+06
-4.8079e+06
-4.67502e+06
-3.84132e+06
-3.72081e+06
-2.89861e+06
-2.78827e+06
-1.97688e+06
-1.86677e+06
-1.06863e+06
-929551
-139371
77574.7
-1.82792e+07
-1.7177e+07
-1.73757e+07
-1.6384e+07
-1.63998e+07
-1.56811e+07
-1.56469e+07
-1.5093e+07
-1.49556e+07
-1.4478e+07
-1.42023e+07
-1.37637e+07
-1.33509e+07
-1.29404e+07
-1.24098e+07
-1.20266e+07
-1.14037e+07
-1.10504e+07
-1.0361e+07
-1.00405e+07
-9.30762e+06
-9.02093e+06
-8.2628e+06
-8.00908e+06
-7.23871e+06
-7.01511e+06
-6.24118e+06
-6.04281e+06
-5.27021e+06
-5.09042e+06
-4.32067e+06
-4.15184e+06
-3.38463e+06
-3.21666e+06
-2.44855e+06
-2.264e+06
-1.48202e+06
-1.25244e+06
-437129
-166123
-1.58392e+07
-1.51588e+07
-1.54511e+07
-1.48615e+07
-1.50157e+07
-1.4564e+07
-1.46199e+07
-1.42375e+07
-1.417e+07
-1.38092e+07
-1.36059e+07
-1.32494e+07
-1.29175e+07
-1.25633e+07
-1.21215e+07
-1.17734e+07
-1.1245e+07
-1.09088e+07
-1.03173e+07
-9.99845e+06
-9.36444e+06
-9.06697e+06
-8.40636e+06
-8.13263e+06
-7.45588e+06
-7.20665e+06
-6.51902e+06
-6.29345e+06
-5.59566e+06
-5.39131e+06
-4.68062e+06
-4.49306e+06
-3.76381e+06
-3.58512e+06
-2.82663e+06
-2.64347e+06
-1.83743e+06
-1.64177e+06
-788522
-626741
-1.42509e+07
-1.38652e+07
-1.41648e+07
-1.38519e+07
-1.40518e+07
-1.37903e+07
-1.38731e+07
-1.36189e+07
-1.35728e+07
-1.3303e+07
-1.31284e+07
-1.28373e+07
-1.25452e+07
-1.22359e+07
-1.18447e+07
-1.15239e+07
-1.10554e+07
-1.07312e+07
-1.02072e+07
-9.88673e+06
-9.32688e+06
-9.016e+06
-8.43609e+06
-8.13915e+06
-7.54986e+06
-7.27029e+06
-6.67641e+06
-6.41702e+06
-5.81697e+06
-5.58011e+06
-4.9661e+06
-4.75314e+06
-4.11159e+06
-3.92168e+06
-3.23305e+06
-3.06295e+06
-2.30697e+06
-2.15802e+06
-1.35171e+06
-1.24927e+06
-1.3298e+07
-1.31216e+07
-1.33719e+07
-1.32447e+07
-1.34258e+07
-1.32912e+07
-1.33593e+07
-1.31914e+07
-1.31384e+07
-1.29297e+07
-1.2759e+07
-1.25104e+07
-1.22335e+07
-1.19508e+07
-1.15855e+07
-1.1277e+07
-1.08436e+07
-1.0518e+07
-1.00375e+07
-9.70239e+06
-9.19395e+06
-8.85524e+06
-8.33606e+06
-7.9979e+06
-7.48235e+06
-7.14781e+06
-6.64647e+06
-6.31843e+06
-5.83621e+06
-5.51841e+06
-5.05197e+06
-4.74939e+06
-4.28416e+06
-4.00117e+06
-3.50873e+06
-3.24086e+06
-2.6799e+06
-2.39019e+06
-1.72717e+06
-1.30917e+06
-1.28184e+07
-1.27824e+07
-1.29538e+07
-1.29385e+07
-1.30603e+07
-1.30011e+07
-1.30258e+07
-1.29104e+07
-1.28292e+07
-1.2658e+07
-1.24717e+07
-1.22488e+07
-1.19663e+07
-1.16987e+07
-1.13358e+07
-1.10322e+07
-1.06076e+07
-1.02769e+07
-9.80943e+06
-9.45923e+06
-8.96642e+06
-8.60273e+06
-8.10032e+06
-7.72748e+06
-7.22997e+06
-6.85068e+06
-6.37202e+06
-5.98758e+06
-5.54138e+06
-5.15224e+06
-4.74992e+06
-4.35571e+06
-4.00014e+06
-3.59445e+06
-3.265e+06
-2.81526e+06
-2.44153e+06
-1.85071e+06
-1.29013e+06
-398774
-1.26711e+07
-1.27193e+07
-1.28014e+07
-1.28428e+07
-1.28859e+07
-1.28665e+07
-1.28314e+07
-1.27487e+07
-1.26237e+07
-1.24808e+07
-1.22611e+07
-1.20631e+07
-1.17537e+07
-1.15085e+07
-1.1122e+07
-1.08393e+07
-1.03918e+07
-1.00814e+07
-9.58888e+06
-9.2594e+06
-8.73655e+06
-8.39574e+06
-7.85491e+06
-7.5103e+06
-6.96165e+06
-6.62156e+06
-6.07324e+06
-5.7471e+06
-5.20554e+06
-4.9017e+06
-4.37033e+06
-4.08907e+06
-3.56081e+06
-3.28324e+06
-2.71835e+06
-2.40898e+06
-1.70173e+06
-1.38637e+06
-365628
-274772
-1.27358e+07
-1.28263e+07
-1.28241e+07
-1.2888e+07
-1.28505e+07
-1.28527e+07
-1.27544e+07
-1.26976e+07
-1.25231e+07
-1.24103e+07
-1.21491e+07
-1.19853e+07
-1.16386e+07
-1.14327e+07
-1.10102e+07
-1.07734e+07
-1.02884e+07
-1.00328e+07
-9.49891e+06
-9.23587e+06
-8.66547e+06
-8.40606e+06
-7.80986e+06
-7.56459e+06
-6.95189e+06
-6.73156e+06
-6.11028e+06
-5.92801e+06
-5.30396e+06
-5.18073e+06
-4.55557e+06
-4.53671e+06
-3.90597e+06
-4.10828e+06
-3.45892e+06
-4.16045e+06
-3.4561e+06
-5.10055e+06
-4.30685e+06
-7.15392e+06
-1.29208e+07
-1.30282e+07
-1.29557e+07
-1.30254e+07
-1.2918e+07
-1.29328e+07
-1.27798e+07
-1.27443e+07
-1.25279e+07
-1.24437e+07
-1.21494e+07
-1.20209e+07
-1.1647e+07
-1.14833e+07
-1.10376e+07
-1.08502e+07
-1.03448e+07
-1.0146e+07
-9.5939e+06
-9.3958e+06
-8.80922e+06
-8.62452e+06
-8.0147e+06
-7.85795e+06
-7.23529e+06
-7.12511e+06
-6.49974e+06
-6.46203e+06
-5.84696e+06
-5.92366e+06
-5.34806e+06
-5.62652e+06
-5.17247e+06
-5.8414e+06
-5.66755e+06
-6.93781e+06
-7.01497e+06
-8.23717e+06
-7.31505e+06
-4.82292e+06
-1.31695e+07
-1.32829e+07
-1.31538e+07
-1.32214e+07
-1.3057e+07
-1.3075e+07
-1.28801e+07
-1.28544e+07
-1.26109e+07
-1.25416e+07
-1.22323e+07
-1.21226e+07
-1.17434e+07
-1.16018e+07
-1.11593e+07
-1.09968e+07
-1.05025e+07
-1.03313e+07
-9.7981e+06
-9.63136e+06
-9.07251e+06
-8.92495e+06
-8.35439e+06
-8.24444e+06
-7.67738e+06
-7.62964e+06
-7.08421e+06
-7.13313e+06
-6.63704e+06
-6.83621e+06
-6.45103e+06
-6.8912e+06
-6.75408e+06
-7.52818e+06
-7.76563e+06
-8.6088e+06
-8.65686e+06
-8.16069e+06
-5.83717e+06
-3.73388e+06
-1.34574e+07
-1.35737e+07
-1.33941e+07
-1.34519e+07
-1.32359e+07
-1.32438e+07
-1.30144e+07
-1.29815e+07
-1.27217e+07
-1.26477e+07
-1.23369e+07
-1.2224e+07
-1.18557e+07
-1.17115e+07
-1.12907e+07
-1.11262e+07
-1.06637e+07
-1.04916e+07
-1.00007e+07
-9.83542e+06
-9.33114e+06
-9.18951e+06
-8.68919e+06
-8.59113e+06
-8.11548e+06
-8.08365e+06
-7.65899e+06
-7.71827e+06
-7.38487e+06
-7.56559e+06
-7.40104e+06
-7.74123e+06
-7.86861e+06
-8.35079e+06
-8.73299e+06
-9.04258e+06
-8.7885e+06
-8.23432e+06
-5.56104e+06
-3.73221e+06
-1.37789e+07
-1.38956e+07
-1.36624e+07
-1.37006e+07
-1.34285e+07
-1.3413e+07
-1.31472e+07
-1.30931e+07
-1.28176e+07
-1.27251e+07
-1.2415e+07
-1.22856e+07
-1.1931e+07
-1.17718e+07
-1.13758e+07
-1.11977e+07
-1.07703e+07
-1.05861e+07
-1.01409e+07
-9.96457e+06
-9.51821e+06
-9.36514e+06
-8.93767e+06
-8.82425e+06
-8.43929e+06
-8.38236e+06
-8.06766e+06
-8.0844e+06
-7.87757e+06
-7.98915e+06
-7.95407e+06
-8.18786e+06
-8.4052e+06
-8.75578e+06
-9.124e+06
-9.39721e+06
-9.07981e+06
-8.59433e+06
-5.84699e+06
-4.08475e+06
-1.41301e+07
-1.42415e+07
-1.3948e+07
-1.39559e+07
-1.36192e+07
-1.35706e+07
-1.32613e+07
-1.31792e+07
-1.2882e+07
-1.27666e+07
-1.24517e+07
-1.23032e+07
-1.19567e+07
-1.17813e+07
-1.14041e+07
-1.12119e+07
-1.08128e+07
-1.06158e+07
-1.02079e+07
-1.00192e+07
-9.61936e+06
-9.45315e+06
-9.08147e+06
-8.95314e+06
-8.63253e+06
-8.55803e+06
-8.3137e+06
-8.30932e+06
-8.17324e+06
-8.25954e+06
-8.28533e+06
-8.49382e+06
-8.75039e+06
-9.09535e+06
-9.48738e+06
-9.78161e+06
-9.48071e+06
-9.01257e+06
-6.25746e+06
-4.50338e+06
-1.44986e+07
-1.45961e+07
-1.42387e+07
-1.42072e+07
-1.38e+07
-1.3713e+07
-1.33546e+07
-1.32427e+07
-1.29179e+07
-1.27802e+07
-1.24538e+07
-1.22884e+07
-1.19428e+07
-1.17545e+07
-1.13881e+07
-1.11863e+07
-1.08063e+07
-1.06023e+07
-1.02207e+07
-1.00274e+07
-9.66015e+06
-9.49183e+06
-9.15846e+06
-9.03053e+06
-8.75294e+06
-8.68109e+06
-8.48254e+06
-8.48242e+06
-8.39163e+06
-8.48359e+06
-8.55075e+06
-8.76826e+06
-9.06232e+06
-9.42e+06
-9.84757e+06
-1.01506e+07
-9.87791e+06
-9.40978e+06
-6.67094e+06
-4.9253e+06
-1.48644e+07
-1.4939e+07
-1.45197e+07
-1.4442e+07
-1.3965e+07
-1.38371e+07
-1.34288e+07
-1.32871e+07
-1.29324e+07
-1.27739e+07
-1.24326e+07
-1.22532e+07
-1.1904e+07
-1.1707e+07
-1.13462e+07
-1.11403e+07
-1.07732e+07
-1.05695e+07
-1.02069e+07
-1.0018e+07
-9.67516e+06
-9.51498e+06
-9.21078e+06
-9.09432e+06
-8.84985e+06
-8.79185e+06
-8.62904e+06
-8.64399e+06
-8.58984e+06
-8.69719e+06
-8.80042e+06
-9.03256e+06
-9.36107e+06
-9.7298e+06
-1.0188e+07
-1.04954e+07
-1.02484e+07
-9.78342e+06
-7.07557e+06
-5.34933e+06
-1.52053e+07
-1.52503e+07
-1.47754e+07
-1.46483e+07
-1.41071e+07
-1.39379e+07
-1.34832e+07
-1.33126e+07
-1.29295e+07
-1.2752e+07
-1.23958e+07
-1.22049e+07
-1.18513e+07
-1.16493e+07
-1.12923e+07
-1.1087e+07
-1.07308e+07
-1.05325e+07
-1.01866e+07
-1.00075e+07
-9.68629e+06
-9.53949e+06
-9.26116e+06
-9.16068e+06
-8.94553e+06
-8.90495e+06
-8.77385e+06
-8.80645e+06
-8.7851e+06
-8.90911e+06
-9.04471e+06
-9.2908e+06
-9.64897e+06
-1.00265e+07
-1.05092e+07
-1.08196e+07
-1.05966e+07
-1.01389e+07
-7.47518e+06
-5.77811e+06
-1.55033e+07
-1.5515e+07
-1.49929e+07
-1.48164e+07
-1.42195e+07
-1.401e+07
-1.35153e+07
-1.33172e+07
-1.29097e+07
-1.2715e+07
-1.23465e+07
-1.21464e+07
-1.17901e+07
-1.15857e+07
-1.1234e+07
-1.10321e+07
-1.06876e+07
-1.04976e+07
-1.01688e+07
-1.00019e+07
-9.70221e+06
-9.57054e+06
-9.31735e+06
-9.2338e+06
-9.04656e+06
-9.02357e+06
-8.9222e+06
-8.97192e+06
-8.98096e+06
-9.12033e+06
-9.28526e+06
-9.54316e+06
-9.92683e+06
-1.03103e+07
-1.0813e+07
-1.11245e+07
-1.09252e+07
-1.04774e+07
-7.87049e+06
-6.2101e+06
-1.57474e+07
-1.57251e+07
-1.51644e+07
-1.49406e+07
-1.42973e+07
-1.405e+07
-1.35223e+07
-1.32987e+07
-1.28719e+07
-1.26617e+07
-1.2285e+07
-1.20775e+07
-1.1722e+07
-1.15169e+07
-1.11733e+07
-1.09763e+07
-1.06459e+07
-1.04655e+07
-1.01555e+07
-1.00015e+07
-9.72432e+06
-9.6079e+06
-9.38003e+06
-9.31288e+06
-9.15298e+06
-9.14643e+06
-9.07358e+06
-9.13869e+06
-9.17631e+06
-9.32875e+06
-9.5205e+06
-9.78725e+06
-1.01931e+07
-1.0579e+07
-1.10981e+07
-1.14079e+07
-1.12329e+07
-1.07959e+07
-8.2583e+06
-6.63976e+06
-1.59334e+07
-1.58787e+07
-1.52868e+07
-1.502e+07
-1.43383e+07
-1.4057e+07
-1.35025e+07
-1.32559e+07
-1.2815e+07
-1.25912e+07
-1.22106e+07
-1.19973e+07
-1.16462e+07
-1.1442e+07
-1.11097e+07
-1.0919e+07
-1.06051e+07
-1.04351e+07
-1.01456e+07
-1.00049e+07
-9.7512e+06
-9.64972e+06
-9.44735e+06
-9.39566e+06
-9.26255e+06
-9.27089e+06
-9.22534e+06
-9.30368e+06
-9.36809e+06
-9.53075e+06
-9.74691e+06
-1.00189e+07
-1.04437e+07
-1.08279e+07
-1.13604e+07
-1.16645e+07
-1.15149e+07
-1.10874e+07
-8.63111e+06
-7.057e+06
-1.60631e+07
-1.59794e+07
-1.53618e+07
-1.50572e+07
-1.43436e+07
-1.40321e+07
-1.3456e+07
-1.31891e+07
-1.27383e+07
-1.25029e+07
-1.21224e+07
-1.19052e+07
-1.15622e+07
-1.13606e+07
-1.10425e+07
-1.08596e+07
-1.05644e+07
-1.04059e+07
-1.01382e+07
-1.00113e+07
-9.78142e+06
-9.69475e+06
-9.51742e+06
-9.48038e+06
-9.37287e+06
-9.39457e+06
-9.37447e+06
-9.46372e+06
-9.55249e+06
-9.72214e+06
-9.95973e+06
-1.02326e+07
-1.0673e+07
-1.105e+07
-1.15927e+07
-1.18853e+07
-1.17618e+07
-1.13397e+07
-8.97613e+06
-7.4464e+06
-1.61431e+07
-1.6035e+07
-1.53948e+07
-1.50577e+07
-1.43162e+07
-1.3978e+07
-1.3384e+07
-1.30992e+07
-1.26421e+07
-1.23974e+07
-1.20206e+07
-1.18019e+07
-1.14704e+07
-1.12738e+07
-1.09725e+07
-1.07996e+07
-1.05246e+07
-1.03793e+07
-1.01338e+07
-1.00218e+07
-9.81512e+06
-9.7436e+06
-9.58983e+06
-9.56698e+06
-9.48273e+06
-9.5165e+06
-9.51877e+06
-9.61666e+06
-9.72603e+06
-9.89923e+06
-1.01538e+07
-1.04228e+07
-1.08736e+07
-1.12367e+07
-1.17848e+07
-1.20572e+07
-1.19587e+07
-1.15335e+07
-9.27407e+06
-7.78661e+06
-1.61835e+07
-1.60562e+07
-1.53936e+07
-1.50287e+07
-1.42604e+07
-1.38985e+07
-1.32883e+07
-1.2988e+07
-1.25276e+07
-1.22764e+07
-1.1907e+07
-1.16902e+07
-1.13732e+07
-1.1185e+07
-1.09027e+07
-1.07426e+07
-1.04888e+07
-1.03589e+07
-1.01354e+07
-1.00397e+07
-9.85487e+06
-9.79922e+06
-9.66647e+06
-9.65786e+06
-9.59321e+06
-9.63828e+06
-9.65814e+06
-9.76291e+06
-9.88696e+06
-1.00606e+07
-1.03251e+07
-1.05849e+07
-1.10379e+07
-1.13787e+07
-1.19232e+07
-1.21631e+07
-1.20841e+07
-1.16424e+07
-9.49836e+06
-8.05093e+06
-1.61975e+07
-1.60565e+07
-1.5368e+07
-1.49788e+07
-1.41814e+07
-1.37979e+07
-1.31718e+07
-1.28584e+07
-1.23977e+07
-1.21439e+07
-1.17855e+07
-1.1575e+07
-1.12756e+07
-1.10999e+07
-1.08383e+07
-1.06941e+07
-1.04622e+07
-1.03496e+07
-1.01478e+07
-1.00697e+07
-9.90528e+06
-9.86639e+06
-9.75189e+06
-9.75815e+06
-9.70863e+06
-9.76539e+06
-9.79631e+06
-9.90773e+06
-1.00376e+07
-1.021e+07
-1.0473e+07
-1.07193e+07
-1.116e+07
-1.14692e+07
-1.19926e+07
-1.21838e+07
-1.21099e+07
-1.16339e+07
-9.61644e+06
-8.21054e+06
-1.62012e+07
-1.60517e+07
-1.53294e+07
-1.49174e+07
-1.40846e+07
-1.3678e+07
-1.30368e+07
-1.27113e+07
-1.22558e+07
-1.20037e+07
-1.16616e+07
-1.14624e+07
-1.11837e+07
-1.10239e+07
-1.07846e+07
-1.0658e+07
-1.0449e+07
-1.03545e+07
-1.01753e+07
-1.01151e+07
-9.97145e+06
-9.95028e+06
-9.85283e+06
-9.87596e+06
-9.83777e+06
-9.90925e+06
-9.94366e+06
-1.00652e+07
-1.01886e+07
-1.03624e+07
-1.06058e+07
-1.08379e+07
-1.12412e+07
-1.15108e+07
-1.19809e+07
-1.21055e+07
-1.2007e+07
-1.14795e+07
-9.59596e+06
-8.243e+06
-1.62104e+07
-1.60519e+07
-1.52851e+07
-1.48374e+07
-1.39649e+07
-1.35236e+07
-1.28774e+07
-1.25417e+07
-1.21029e+07
-1.18613e+07
-1.15403e+07
-1.13591e+07
-1.11015e+07
-1.09602e+07
-1.07432e+07
-1.06342e+07
-1.04495e+07
-1.03719e+07
-1.02183e+07
-1.01757e+07
-1.00569e+07
-1.00552e+07
-9.97809e+06
-1.00229e+07
-9.99607e+06
-1.00901e+07
-1.01222e+07
-1.02638e+07
-1.03664e+07
-1.05517e+07
-1.07503e+07
-1.09747e+07
-1.13017e+07
-1.15301e+07
-1.18929e+07
-1.19402e+07
-1.17632e+07
-1.11815e+07
-9.42386e+06
-8.155e+06
-1.62146e+07
-1.60222e+07
-1.52064e+07
-1.46871e+07
-1.37887e+07
-1.33196e+07
-1.2688e+07
-1.23812e+07
-1.1955e+07
-1.17551e+07
-1.14375e+07
-1.12898e+07
-1.10362e+07
-1.09182e+07
-1.07129e+07
-1.06204e+07
-1.04573e+07
-1.0394e+07
-1.02705e+07
-1.02441e+07
-1.01601e+07
-1.01789e+07
-1.01353e+07
-1.02058e+07
-1.02031e+07
-1.03267e+07
-1.03642e+07
-1.05353e+07
-1.06149e+07
-1.08222e+07
-1.09581e+07
-1.11843e+07
-1.1395e+07
-1.15881e+07
-1.17794e+07
-1.17565e+07
-1.14291e+07
-1.08239e+07
-9.15739e+06
-8.0271e+06
-1.61389e+07
-1.58952e+07
-1.50261e+07
-1.44764e+07
-1.35845e+07
-1.32325e+07
-1.25821e+07
-1.24048e+07
-1.19194e+07
-1.18062e+07
-1.14227e+07
-1.13258e+07
-1.1022e+07
-1.09341e+07
-1.0702e+07
-1.06283e+07
-1.04635e+07
-1.0413e+07
-1.03127e+07
-1.02953e+07
-1.02569e+07
-1.02822e+07
-1.03007e+07
-1.03757e+07
-1.0441e+07
-1.05676e+07
-1.06638e+07
-1.0836e+07
-1.09451e+07
-1.11489e+07
-1.12605e+07
-1.14713e+07
-1.15763e+07
-1.17329e+07
-1.17277e+07
-1.16601e+07
-1.1135e+07
-1.05616e+07
-8.95136e+06
-7.98879e+06
-1.60523e+07
-1.58612e+07
-1.48932e+07
-1.45633e+07
-1.36933e+07
-1.35016e+07
-1.28335e+07
-1.27083e+07
-1.21641e+07
-1.20563e+07
-1.1602e+07
-1.15031e+07
-1.1132e+07
-1.10446e+07
-1.07563e+07
-1.06844e+07
-1.04806e+07
-1.04295e+07
-1.03139e+07
-1.02905e+07
-1.02661e+07
-1.02775e+07
-1.03431e+07
-1.03946e+07
-1.05399e+07
-1.06325e+07
-1.08346e+07
-1.09624e+07
-1.11861e+07
-1.13356e+07
-1.15401e+07
-1.1688e+07
-1.18186e+07
-1.19096e+07
-1.18158e+07
-1.17044e+07
-1.10057e+07
-1.04692e+07
-8.83767e+06
-7.9876e+06
-5.23543e+06
-3.90853e+06
-5.00931e+06
-3.46469e+06
-4.68243e+06
-2.95172e+06
-4.37557e+06
-2.41322e+06
-4.0369e+06
-1.85241e+06
-3.64913e+06
-1.27986e+06
-3.2139e+06
-698176
-2.73653e+06
-105586
-2.22649e+06
494950
-1.69791e+06
1.09363e+06
-1.16685e+06
1.67688e+06
-648191
2.23109e+06
-153766
2.74497e+06
308269
3.21052e+06
733622
3.62361e+06
1.12459e+06
3.98913e+06
1.49129e+06
4.31991e+06
1.79654e+06
4.54128e+06
1.81574e+06
4.39977e+06
1.55142e+06
4.75085e+06
-2.68938e+06
-2.50874e+06
-2.38553e+06
-2.10554e+06
-1.82093e+06
-1.47594e+06
-1.151e+06
-770556
-446810
-62632.2
247962
616337
918585
1.26365e+06
1.56876e+06
1.88756e+06
2.20399e+06
2.49345e+06
2.82315e+06
3.07922e+06
3.41861e+06
3.63709e+06
3.97966e+06
4.15701e+06
4.4957e+06
4.62923e+06
4.95767e+06
5.04382e+06
5.35609e+06
5.38431e+06
5.67647e+06
5.61634e+06
5.89819e+06
5.69258e+06
6.00244e+06
5.67985e+06
6.08132e+06
6.15574e+06
6.45667e+06
6.02556e+06
-2.97583e+06
-3.23034e+06
-2.69256e+06
-2.84886e+06
-2.15503e+06
-2.29078e+06
-1.52581e+06
-1.68452e+06
-885535
-1.08546e+06
-266670
-513754
322831
29371.4
887185
550555
1.4322e+06
1.05528e+06
1.95915e+06
1.54367e+06
2.46376e+06
2.01046e+06
2.93797e+06
2.44649e+06
3.37138e+06
2.83826e+06
3.74903e+06
3.16186e+06
4.04349e+06
3.37559e+06
4.21245e+06
3.44837e+06
4.24829e+06
3.49826e+06
4.34621e+06
3.97172e+06
4.94782e+06
4.80393e+06
5.39064e+06
5.30459e+06
-3.99757e+06
-4.22853e+06
-3.68314e+06
-3.81166e+06
-3.17515e+06
-3.28449e+06
-2.62151e+06
-2.74911e+06
-2.07683e+06
-2.2318e+06
-1.55468e+06
-1.73565e+06
-1.05447e+06
-1.25722e+06
-570835
-791036
-98821
-333159
362746
116049
809997
550697
1.23385e+06
958468
1.61882e+06
1.3188e+06
1.94014e+06
1.60558e+06
2.16909e+06
1.81616e+06
2.31743e+06
2.05236e+06
2.54688e+06
2.58798e+06
3.19923e+06
3.57086e+06
4.23941e+06
4.63556e+06
5.07174e+06
5.24782e+06
-4.79493e+06
-4.88973e+06
-4.43534e+06
-4.4245e+06
-3.90935e+06
-3.87672e+06
-3.37418e+06
-3.35074e+06
-2.86492e+06
-2.85423e+06
-2.37803e+06
-2.37488e+06
-1.90469e+06
-1.90297e+06
-1.43789e+06
-1.43306e+06
-973776
-963507
-512783
-497112
-60610.5
-41954.3
371296
389230
766984
785473
1.11523e+06
1.15842e+06
1.43938e+06
1.57936e+06
1.84754e+06
2.19372e+06
2.53223e+06
3.10334e+06
3.55253e+06
4.16576e+06
4.61481e+06
5.04965e+06
5.303e+06
5.49964e+06
-5.19438e+06
-5.15848e+06
-4.80048e+06
-4.65819e+06
-4.23835e+06
-4.07889e+06
-3.68781e+06
-3.53707e+06
-3.17559e+06
-3.03175e+06
-2.68519e+06
-2.54078e+06
-2.20096e+06
-2.04975e+06
-1.71473e+06
-1.55297e+06
-1.2241e+06
-1.05062e+06
-731567
-547205
-243857
-49392.3
230755
439856
690760
933744
1.15843e+06
1.4764e+06
1.69837e+06
2.14014e+06
2.40586e+06
2.97348e+06
3.31768e+06
3.91802e+06
4.30689e+06
4.80963e+06
5.14189e+06
5.48031e+06
5.64e+06
5.80804e+06
-5.23312e+06
-5.09179e+06
-4.82597e+06
-4.58196e+06
-4.24109e+06
-3.98803e+06
-3.6745e+06
-3.43448e+06
-3.15078e+06
-2.91758e+06
-2.64686e+06
-2.41161e+06
-2.1435e+06
-1.90059e+06
-1.6321e+06
-1.37882e+06
-1.11123e+06
-846687
-583701
-306972
-53141.9
240095
481977
803908
1.03731e+06
1.40913e+06
1.6485e+06
2.09068e+06
2.36039e+06
2.86942e+06
3.18845e+06
3.71854e+06
4.07569e+06
4.55851e+06
4.90641e+06
5.29413e+06
5.56613e+06
5.83592e+06
5.95696e+06
6.10948e+06
-4.977e+06
-4.75814e+06
-4.57967e+06
-4.26578e+06
-3.99831e+06
-3.68233e+06
-3.43179e+06
-3.13319e+06
-2.90483e+06
-2.61512e+06
-2.39329e+06
-2.10294e+06
-1.87763e+06
-1.58141e+06
-1.34949e+06
-1.04496e+06
-807189
-492457
-251224
77243
320322
669737
916645
1.29763e+06
1.55608e+06
1.9772e+06
2.25922e+06
2.71685e+06
3.0314e+06
3.50266e+06
3.84484e+06
4.29441e+06
4.64101e+06
5.03821e+06
5.35307e+06
5.67807e+06
5.91455e+06
6.15326e+06
6.25833e+06
6.41436e+06
-4.49842e+06
-4.22977e+06
-4.13018e+06
-3.77629e+06
-3.57736e+06
-3.2254e+06
-3.03008e+06
-2.69768e+06
-2.51375e+06
-2.19201e+06
-2.00621e+06
-1.68563e+06
-1.48944e+06
-1.16478e+06
-955572
-623837
-401763
-59950.6
174369
530656
777989
1.15426e+06
1.41796e+06
1.81809e+06
2.10339e+06
2.52506e+06
2.83549e+06
3.26712e+06
3.5994e+06
4.02215e+06
4.3632e+06
4.75713e+06
5.08558e+06
5.43405e+06
5.72299e+06
6.01317e+06
6.22878e+06
6.45252e+06
6.55566e+06
6.71352e+06
-3.86962e+06
-3.5752e+06
-3.5432e+06
-3.17393e+06
-3.03691e+06
-2.67069e+06
-2.52422e+06
-2.17729e+06
-2.03128e+06
-1.69536e+06
-1.53906e+06
-1.20518e+06
-1.03153e+06
-694372
-501234
-157400
55476.6
409138
642082
1.00873e+06
1.26293e+06
1.64455e+06
1.92176e+06
2.31706e+06
2.61796e+06
3.02091e+06
3.34273e+06
3.74296e+06
4.0775e+06
4.46243e+06
4.79569e+06
5.15261e+06
5.46565e+06
5.78261e+06
6.05282e+06
6.31848e+06
6.52018e+06
6.72383e+06
6.83022e+06
6.96977e+06
-3.15269e+06
-2.85052e+06
-2.87428e+06
-2.50731e+06
-2.42465e+06
-2.05965e+06
-1.95619e+06
-1.60817e+06
-1.49542e+06
-1.15733e+06
-1.02684e+06
-690561
-536365
-196870
-17144.8
328715
534251
888755
1.12029e+06
1.48468e+06
1.74239e+06
2.11601e+06
2.3993e+06
2.77883e+06
3.08512e+06
3.46455e+06
3.7881e+06
4.15942e+06
4.49064e+06
4.84448e+06
5.16968e+06
5.49573e+06
5.79762e+06
6.085e+06
6.34373e+06
6.58254e+06
6.77663e+06
6.96205e+06
7.07331e+06
7.22012e+06
-2.39431e+06
-2.09629e+06
-2.16493e+06
-1.81137e+06
-1.77551e+06
-1.4215e+06
-1.35563e+06
-1.01506e+06
-931722
-599032
-491855
-160086
-23970.6
311157
477802
818618
1.01579e+06
1.36336e+06
1.59054e+06
1.94458e+06
2.20062e+06
2.55921e+06
2.84176e+06
3.20121e+06
3.50596e+06
3.861e+06
4.18105e+06
4.52495e+06
4.85026e+06
5.1749e+06
5.49204e+06
5.78827e+06
6.0809e+06
6.33993e+06
6.59024e+06
6.80598e+06
6.99744e+06
7.17004e+06
7.29449e+06
7.43154e+06
-1.62622e+06
-1.33942e+06
-1.44347e+06
-1.10946e+06
-1.11323e+06
-775795
-742445
-414415
-357028
-34480.5
51448.5
374097
492839
818865
971719
1.30247e+06
1.48904e+06
1.82453e+06
2.04357e+06
2.38262e+06
2.63199e+06
2.97222e+06
3.24851e+06
3.58633e+06
3.88442e+06
4.21506e+06
4.5275e+06
4.84493e+06
5.16148e+06
5.45852e+06
5.76608e+06
6.03519e+06
6.31848e+06
6.55299e+06
6.79633e+06
6.99147e+06
7.18197e+06
7.33636e+06
7.47038e+06
7.59357e+06
-868579
-596731
-728179
-416566
-453375
-135411
-129876
182603
217241
526549
593105
903399
1.00529e+06
1.31882e+06
1.45699e+06
1.77425e+06
1.94795e+06
2.26823e+06
2.4757e+06
2.79737e+06
3.03588e+06
3.35641e+06
3.62204e+06
3.938e+06
4.22518e+06
4.53219e+06
4.83325e+06
5.12593e+06
5.43073e+06
5.70298e+06
5.99898e+06
6.24449e+06
6.5175e+06
6.73026e+06
6.966e+06
7.14128e+06
7.32885e+06
7.46742e+06
7.60765e+06
7.72247e+06
-133507
121736
-30454.3
257878
193903
491108
473051
768249
783010
1.07705e+06
1.12594e+06
1.42165e+06
1.50723e+06
1.80597e+06
1.92881e+06
2.23044e+06
2.38953e+06
2.6929e+06
2.8862e+06
3.18945e+06
3.41396e+06
3.71456e+06
3.96611e+06
4.2608e+06
4.5337e+06
4.81845e+06
5.10508e+06
5.37513e+06
5.66573e+06
5.91575e+06
6.19849e+06
6.42286e+06
6.68433e+06
6.87738e+06
7.104e+06
7.2613e+06
7.44432e+06
7.56734e+06
7.71314e+06
7.81544e+06
572142
810393
642839
908152
822029
1.09817e+06
1.06017e+06
1.33721e+06
1.33457e+06
1.61211e+06
1.64486e+06
1.92459e+06
1.99447e+06
2.27706e+06
2.3843e+06
2.66915e+06
2.81256e+06
3.09827e+06
3.2757e+06
3.5603e+06
3.76866e+06
4.04964e+06
4.28476e+06
4.55904e+06
4.81529e+06
5.07915e+06
5.34919e+06
5.59828e+06
5.87285e+06
6.10224e+06
6.37019e+06
6.57447e+06
6.82309e+06
6.99672e+06
7.21319e+06
7.35235e+06
7.52945e+06
7.63764e+06
7.78563e+06
7.88159e+06
1.24494e+06
1.46656e+06
1.28787e+06
1.53106e+06
1.42694e+06
1.68233e+06
1.62742e+06
1.88605e+06
1.8681e+06
2.12856e+06
2.1465e+06
2.40957e+06
2.46443e+06
2.73022e+06
2.82192e+06
3.08954e+06
3.21679e+06
3.48468e+06
3.64527e+06
3.9114e+06
4.10232e+06
4.36422e+06
4.58138e+06
4.83609e+06
5.07411e+06
5.31809e+06
5.56999e+06
5.79911e+06
6.05613e+06
6.26572e+06
6.51735e+06
6.70238e+06
6.93658e+06
7.0923e+06
7.29708e+06
7.42107e+06
7.59093e+06
7.68893e+06
7.83834e+06
7.92993e+06
1.88373e+06
2.08949e+06
1.90288e+06
2.12519e+06
2.0064e+06
2.24175e+06
2.17242e+06
2.41284e+06
2.38129e+06
2.62461e+06
2.6289e+06
2.87516e+06
2.9157e+06
3.16459e+06
3.24105e+06
3.49147e+06
3.60246e+06
3.85274e+06
3.99609e+06
4.24418e+06
4.41694e+06
4.66038e+06
4.85866e+06
5.09456e+06
5.31325e+06
5.53821e+06
5.77071e+06
5.98084e+06
6.21893e+06
6.41001e+06
6.64385e+06
6.81158e+06
7.02997e+06
7.17042e+06
7.36236e+06
7.47367e+06
7.63533e+06
7.72318e+06
7.87166e+06
7.95399e+06
2.48882e+06
2.67975e+06
2.48759e+06
2.69044e+06
2.55957e+06
2.77587e+06
2.69406e+06
2.91682e+06
2.87307e+06
3.09958e+06
3.0912e+06
3.32091e+06
3.34782e+06
3.5801e+06
3.64172e+06
3.87532e+06
3.97021e+06
4.20338e+06
4.32938e+06
4.56004e+06
4.71432e+06
4.94004e+06
5.11888e+06
5.33686e+06
5.53544e+06
5.74246e+06
5.95462e+06
6.14715e+06
6.36529e+06
6.53965e+06
6.75474e+06
6.90721e+06
7.10892e+06
7.2359e+06
7.41411e+06
7.51383e+06
7.66568e+06
7.74399e+06
7.88818e+06
7.96488e+06
3.06156e+06
3.23881e+06
3.04274e+06
3.22762e+06
3.08662e+06
3.28503e+06
3.19225e+06
3.39817e+06
3.3433e+06
3.55362e+06
3.53341e+06
3.74714e+06
3.76103e+06
3.97729e+06
4.02452e+06
4.24194e+06
4.321e+06
4.53778e+06
4.64653e+06