/*--------------------------------*- C++ -*----------------------------------*\
| =========                 |                                                 |
| \\      /  F ield         | OpenFOAM: The Open Source CFD Toolbox           |
|  \\    /   O peration     | Version:  v2012                                 |
|   \\  /    A nd           | Website:  www.openfoam.com                      |
|    \\/     M anipulation  |                                                 |
\*---------------------------------------------------------------------------*/
FoamFile
{
    version     2.0;
    format      ascii;
    class       volScalarField;
    location    "5";
    object      epsilonEq;
}
// * * * * * * * * * * * * * * * * * * * * * * * * * * * * * * * * * * * * * //

dimensions      [0 0 0 0 0 0 0];


internalField   nonuniform List<scalar> 
1896
(
0.0005881
0.000725932
0.000562572
0.0014274
0.000590041
0.000581809
0.00136717
0.000564407
0.000954257
0.000539513
0.000568316
0.000479856
0.000414833
0.000451236
0.00138859
0.000903439
0.000826703
0.00164949
0.000871094
0.000781161
0.000945664
0.000714376
0.00122102
0.00126724
0.000746559
0.000739634
0.000408443
0.000411424
0.000571862
0.000953785
0.000916606
0.000737196
0.00038006
0.00073601
0.00117891
0.000568567
0.000896525
0.000686144
0.00154705
0.000976535
0.000741168
0.00125364
0.00083143
0.00132202
0.000409483
0.000375751
0.00133874
0.000570418
0.00127911
0.00125637
0.000576757
0.000578809
0.000567328
0.000715499
0.000931
0.000777334
0.00111994
0.000586018
0.000665007
0.000961716
0.000548755
0.00129586
0.00127649
0.000627014
0.000822421
0.000737842
0.0012022
0.000616976
0.000672768
0.00119639
0.00025041
0.0012941
0.000683527
0.000758606
0.00123939
0.000728373
0.000737412
0.000622631
0.000638173
0.000737885
0.00132272
0.00125209
0.00046177
0.000565328
0.000540296
0.00079709
0.000659907
0.000648592
0.00109573
0.000760166
0.000683513
0.00295051
0.000793954
0.00149032
0.00125846
0.000733244
0.000711593
0.000554195
0.000725814
0.000729834
0.000731541
0.000593737
0.000626694
0.000778768
0.000938543
0.000828893
0.000785506
0.0013689
0.00118811
0.00233657
0.000547577
0.000726174
0.00112091
0.00111586
0.00209384
0.000693758
0.000470897
0.000709196
0.00125829
0.000930797
0.00126261
0.000907686
0.000688829
0.000490322
0.000492701
0.00109289
0.00134423
0.000556488
0.00089335
0.000778855
0.000805107
0.000689235
0.00116653
0.0015986
0.000860645
0.00125102
0.00146102
0.00141344
0.000742967
0.00102501
0.000688092
0.00124239
0.000966603
0.00109923
0.000624979
0.000804297
0.000787177
0.000900376
0.00124916
0.000695486
0.00045006
0.000716219
0.000692872
0.000652567
0.00065676
0.00116556
0.000442761
0.00116155
0.00262197
0.000565824
0.000575007
0.00130568
0.000928944
0.00065693
0.00127772
0.00053074
0.000924879
0.000579184
0.000566291
0.000716244
0.000726193
0.000744631
0.000426324
0.000440795
0.00145041
0.00139607
0.00128359
0.000739011
0.00055328
0.000871472
0.000413967
0.000959594
0.000653601
0.00127706
0.00137763
0.00140728
0.000687816
0.0011135
0.00113719
0.000449564
0.00139538
0.000557229
0.00127339
0.00125639
0.00106335
0.000524267
0.000841253
0.0012548
0.000520255
0.000454561
0.000644925
0.00109168
0.000572774
0.00065794
0.00119521
0.000644575
0.00130627
0.00112741
0.000793191
0.000773815
0.00124061
0.000894213
0.000779416
0.000784344
0.000529031
0.000872184
0.00115419
0.00107111
0.00101922
0.000937536
0.000582924
0.00066301
0.00127061
0.00119705
0.000713697
0.000978337
0.0013833
0.000776295
0.000943311
0.000738772
0.000968436
0.000569422
0.000551828
0.00053117
0.000737808
0.000605612
0.000583567
0.00130497
0.00115908
0.000928492
0.00144397
0.00136827
0.0005445
0.00125451
0.000706826
0.000469518
0.000664958
0.000443708
0.000434393
0.00107385
0.00104028
0.000871175
0.000730635
0.000551127
0.000735662
0.000692933
0.000689844
0.00116574
0.00131117
0.00117789
0.000887375
0.000625152
0.000595782
0.000595644
0.000832105
0.00101217
0.000857572
0.000706619
0.000945377
0.000679886
0.00071802
0.000357823
0.00119759
0.000400342
0.000819816
0.000582402
0.00117098
0.000614193
0.000704361
0.000558361
0.000750502
0.00111484
0.000496246
0.000731352
0.000765517
0.000914359
0.000765164
0.00070433
0.000731334
0.000553886
0.000772615
0.000869673
0.000893271
0.00078229
0.00123358
0.000285922
0.000867297
0.000683994
0.00126577
0.000562145
0.00118935
0.000889468
0.00123823
0.00137656
0.00068741
0.000623364
0.000614966
0.000450456
0.000481833
0.000695007
0.000658528
0.000766641
0.000410424
0.000560046
0.000723054
0.000896804
0.000502306
0.000674196
0.000877683
0.000650009
0.000624984
0.00113611
0.0010762
0.000910473
0.000574001
0.000793561
0.000864796
0.000483573
0.000599107
0.000712622
0.00057199
0.000875176
0.00054559
0.00073512
0.000527171
0.000770574
0.000538666
0.00122799
0.000594944
0.000718109
0.000980943
0.000583486
0.000939503
0.000946544
0.000456396
0.000882485
0.000866419
0.00158528
0.000699857
0.000663776
0.000501121
0.000612662
0.00108123
0.000788504
0.000846288
0.000901701
0.000287348
0.00140997
0.000711509
0.00129618
0.0011288
0.00118156
0.00151727
0.000684874
0.000719304
0.000813675
0.00105593
0.00102444
0.000754539
0.000736968
0.00134552
0.000406148
0.000543517
0.000734521
0.000722037
0.000736679
0.00203645
0.00111631
0.000662026
0.000694957
0.000637402
0.000733518
0.000601428
0.000650608
0.000709564
0.000608353
0.00137666
0.000714957
0.000559584
0.00136866
0.000575393
0.000597874
0.001044
0.00171119
0.000620242
0.000561939
0.000983779
0.0010629
0.000712862
0.000706572
0.000758096
0.000747086
0.000878906
0.000259399
0.000960084
0.00102015
0.000746307
0.00128367
0.000355002
0.00098162
0.000876192
0.000509335
0.000491425
0.00105241
0.00105713
0.00107957
0.000660382
0.00150474
0.000914246
0.000588288
0.00102077
0.000537861
0.000735027
0.00141351
0.00099261
0.000758397
0.000600266
0.000974119
0.0014004
0.00147185
0.000634043
0.00107627
0.000892154
0.000767218
0.0010095
0.00102372
0.000755485
0.00162038
0.00118502
0.000670729
0.00110072
0.000974844
0.000645021
0.00117003
0.000536725
0.000736283
0.000652785
0.000600856
0.000589229
0.000871951
0.00121299
0.000770551
0.00076219
0.000626666
0.000764025
0.000515058
0.000641619
0.000930308
0.00052798
0.000568211
0.0013271
0.00068774
0.00100547
0.000928904
0.000867613
0.00112594
0.00104087
0.00102591
0.000566318
0.00195718
0.000608231
0.000530309
0.000789481
0.000697418
0.000694826
0.000656999
0.000911157
0.000427023
0.000725686
0.000727144
0.000707257
0.00052869
0.000665584
0.000615479
0.000647775
0.00133087
0.000516895
0.000967574
0.000739762
0.000919861
0.00103682
0.000759993
0.000899547
0.000605381
0.00144499
0.00175197
0.000732503
0.000796305
0.000482772
0.000826108
0.000712304
0.00074411
0.000581163
0.00152085
0.000581126
0.000346326
0.000478661
0.00146499
0.000811135
0.00101337
0.000805619
0.00101131
0.00037318
0.000605699
0.000767922
0.0010345
0.000451604
0.000735697
0.000635599
0.000631997
0.000569547
0.000701783
0.00110771
0.000585967
0.00122883
0.000665587
0.000679634
0.00125489
0.000705854
0.000693295
0.000568989
0.000672644
0.000459002
0.000903422
0.000629846
0.000489879
0.000757855
0.000612551
0.00064384
0.00116673
0.00169951
0.000253103
0.000954186
0.000602798
0.000586339
0.000765926
0.00121443
0.000545064
0.000656074
0.000646954
0.000559772
0.00129772
0.00106272
0.0010298
0.000435047
0.00100268
0.00100604
0.00110754
0.000729108
0.000983503
0.00100946
0.000709084
0.000801086
0.00105271
0.000679209
0.00124656
0.00035855
0.000794613
0.00127529
0.000706187
0.000804724
0.000454924
0.000382664
0.00178078
0.00125747
0.00127332
0.000611461
0.000899537
0.00105231
0.000617484
0.000724047
0.0011556
0.000754736
0.000680308
0.00108485
0.00104094
0.000270522
0.00027906
0.000373387
0.00131799
0.00127752
0.00132155
0.0011804
0.00032154
0.00135413
0.000402756
0.000721724
0.000995119
0.00110041
0.000741786
0.00099723
0.00111099
0.000843763
0.00127108
0.00140177
0.00128484
0.00112578
0.00113309
0.00049109
0.000569436
0.000656837
0.000462871
0.000582482
0.00138538
0.000329965
0.000678868
0.000592022
0.00133538
0.00114128
0.000426341
0.000354182
0.00110109
0.000820425
0.00121576
0.000408134
0.000675925
0.00121524
0.00135065
0.000519396
0.00073869
0.000371095
0.00187657
0.00084781
0.00118921
0.00114599
0.000638544
0.000643714
0.000841698
0.00116841
0.00066482
0.000581036
0.000574594
0.00135109
0.00128956
0.000785454
0.000938498
0.000959873
0.000574425
0.00125493
0.000800665
0.000922589
0.000561044
0.00108899
0.000942981
0.00117119
0.000674461
0.00128665
0.000860499
0.00108082
0.00125384
0.00076242
0.000724749
0.000766496
0.00116239
0.00124126
0.00113754
0.000708975
0.000578835
0.000941426
0.000861408
0.000847983
0.000640658
0.000952737
0.000999864
0.00073876
0.00123709
0.00106226
0.00125064
0.000347784
0.000602017
0.0007382
0.000824138
0.00109816
0.000588569
0.000844304
0.000858466
0.000805633
0.000581439
0.001347
0.000837547
0.000828619
0.00120895
0.00081921
0.00123634
0.000749937
0.000741856
0.000761811
0.000780031
0.00130492
0.000757903
0.000569824
0.000879188
0.000855269
0.000847541
0.000861024
0.000981834
0.00075318
0.00124917
0.000376768
0.00138221
0.00103685
0.000534462
0.00105192
0.000893966
0.00113785
0.000569791
0.0010368
0.00132007
0.00120493
0.00079407
0.000671253
0.000783817
0.00113595
0.000303697
0.00121978
0.000327351
0.000523953
0.000738891
0.000775855
0.00120912
0.000807419
0.000385892
0.000549494
0.000418642
0.000765352
0.00123077
0.000725841
0.000819412
0.000864295
0.000372752
0.000817695
0.00119046
0.000550245
0.000340952
0.000531946
0.000609644
0.000730852
0.00159116
0.0010142
0.000649278
0.00115225
0.000816063
0.00110392
0.000817304
0.000419539
0.000844516
0.00135691
0.00070104
0.00125469
0.00160443
0.000942268
0.00137015
0.000857134
0.000368791
0.000843507
0.00108963
0.00113223
0.00140121
0.00131398
0.000374478
0.00094078
0.00125284
0.00140824
0.000935232
0.000727879
0.000891147
0.000898459
0.000580015
0.00116154
0.000594798
0.00107751
0.0010703
0.00124475
0.000633933
0.000611511
0.000501119
0.00048763
0.000684358
0.00137619
0.000726495
0.00124877
0.00120291
0.000609426
0.00047971
0.000541873
0.000625549
0.00107066
0.000870278
0.000316203
0.00063773
0.000695253
0.000650285
0.000516409
0.000656859
0.000495144
0.00058811
0.000962063
0.00106784
0.0010503
0.000265
0.000816923
0.000441289
0.000577018
0.000782709
0.000712129
0.00156337
0.000564717
0.000853228
0.000592309
0.00125079
0.00110638
0.000587244
0.00111178
0.00109585
0.00077583
0.000612052
0.000560599
0.000743102
0.00103989
0.000626146
0.00055522
0.000447178
0.00124284
0.000465707
0.000757258
0.000864074
0.000500768
0.000759745
0.00109178
0.000738101
0.000710027
0.000744802
0.000797735
0.000772432
0.000979147
0.000676556
0.000771667
0.000596689
0.00119119
0.000245885
0.000762264
0.000748067
0.000618407
0.000702162
0.000854253
0.000211781
0.00205532
0.000602163
0.000842272
0.000276546
0.000770188
0.00126863
0.00125773
0.00125468
0.000809813
0.000673838
0.00064711
0.000677307
0.00122912
0.000726614
0.00077918
0.0011603
0.000855854
0.000997455
0.000769401
0.000758742
0.00055855
0.00148756
0.000703183
0.00119734
0.000920231
0.00128465
0.000628317
0.00096119
0.000555184
0.000610663
0.00135277
0.000402999
0.00129155
0.0008955
0.000898242
0.00142647
0.00055037
0.000549972
0.000728268
0.000728495
0.000555113
0.000289212
0.000615398
0.000620581
0.000433679
0.000451895
0.000827226
0.00116191
0.00129138
0.0006852
0.000992948
0.00078616
0.000978435
0.00118631
0.00118043
0.00066035
0.0010217
0.00122454
0.0012321
0.00101733
0.00102461
0.000557446
0.00122534
0.000513672
0.000545284
0.000940996
0.00135315
0.000759097
0.000844745
0.001313
0.000592899
0.000486024
0.000691749
0.000591706
0.00039964
0.00129074
0.000796686
0.000943602
0.000752236
0.000741509
0.000560941
0.00131434
0.000975502
0.00105578
0.000919542
0.00113879
0.000973273
0.000859055
0.000721329
0.000735408
0.000876271
0.000964732
0.00119811
0.000721477
0.00213036
0.000922619
0.00115064
0.000935309
0.00121278
0.00109216
0.000479656
0.00118841
0.000483456
0.000793654
0.000881253
0.00104349
0.000603486
0.00131452
0.00114925
0.000881197
0.00129184
0.000620407
0.000609201
0.00115525
0.000579467
0.000597422
0.00134258
0.000545279
0.000348146
0.00107132
0.000732272
0.000630423
0.000751903
0.000589777
0.000851285
0.000936702
0.00145785
0.000568355
0.00100251
0.0015682
0.000573371
0.000641378
0.0011983
0.00140351
0.000872744
0.000681504
0.000923978
0.000942274
0.000795393
0.000986322
0.00121196
0.000566362
0.000782193
0.000837839
0.00130077
0.000564448
0.00087415
0.000567719
0.00113114
0.000251925
0.00118825
0.000443684
0.0013432
0.000748395
0.000582262
0.00058701
0.00129158
0.000837849
0.000724298
0.000976703
0.000879661
0.000941183
0.000644079
0.00157476
0.00049605
0.000229256
0.000513511
0.000581907
0.00111069
0.000624051
0.000618933
0.000524334
0.000873924
0.000856158
0.00125117
0.000608814
0.00115399
0.000747474
0.00110027
0.00108707
0.00127885
0.00131787
0.000561058
0.000730047
0.000911589
0.0013892
0.000840177
0.000599619
0.000709996
0.000703349
0.00135019
0.00188702
0.000563529
0.000730865
0.00107059
0.000537978
0.000829778
0.00126521
0.000710819
0.000698555
0.000950915
0.000964408
0.000870593
0.00173306
0.000696978
0.000316238
0.000577086
0.00237978
0.00068272
0.000728271
0.000987782
0.000561903
0.000676951
0.00121438
0.0010199
0.00123634
0.00102847
0.00105286
0.0012982
0.00103521
0.00102167
0.00101524
0.000516672
0.000505774
0.000636733
0.000626535
0.00117827
0.00122522
0.00115255
0.00161061
0.000598645
0.000380499
0.000743637
0.00132779
0.000529389
0.000517102
0.00121028
0.000283386
0.000750699
0.000839583
0.000845099
0.00153932
0.00115201
0.000582108
0.00131378
0.00111105
0.000544791
0.000536375
0.00102857
0.00122867
0.00064141
0.00100664
0.00107128
0.001308
0.000488671
0.000767446
0.0010511
0.000601571
0.000595093
0.000533048
0.000649731
0.00124955
0.000755234
0.000608947
0.000795617
0.000532755
0.000964467
0.000588263
0.00108388
0.00243052
0.000622752
0.000620918
0.000479653
0.0013232
0.000807931
0.00130735
0.00139115
0.0011484
0.000557328
0.000410585
0.000418906
0.000462345
0.000739728
0.000289795
0.000841042
0.00110169
0.00111566
0.000488466
0.000505653
0.00105687
0.000390998
0.000451716
0.00124425
0.000815821
0.000748155
0.000336529
0.000594559
0.000603976
0.000233607
0.00125688
0.000650392
0.000775443
0.00132016
0.000516065
0.00064511
0.000700071
0.00123733
0.00122948
0.00128498
0.00128287
0.000550314
0.0012822
0.000537514
0.000808133
0.000368994
0.00104463
0.000806973
0.00113034
0.000964187
0.00105187
0.000813376
0.00058779
0.000974073
0.000754639
0.00081811
0.000810666
0.000631469
0.000855538
0.000508497
0.000713363
0.00055728
0.000927813
0.000480064
0.00047794
0.000995987
0.000776075
0.000803853
0.00102378
0.00117675
0.000995719
0.00111652
0.000706616
0.000713087
0.0012554
0.000813002
0.000809873
0.00113517
0.000568632
0.000569919
0.00134
0.000322638
0.000335983
0.00120449
0.00111135
0.000739016
0.000760544
0.00057742
0.000626139
0.000450201
0.000975668
0.000657366
0.000653547
0.000260818
0.000409264
0.000692055
0.000672336
0.000671714
0.000715625
0.0010546
0.000701439
0.000803084
0.00101716
0.000774293
0.000562971
0.00070049
0.000614029
0.000577477
0.000633719
0.000553413
0.000294471
0.000476182
0.00052065
0.000698554
0.00190729
0.000769982
0.000893216
0.00120266
0.000847697
0.00124089
0.00124283
0.000947573
0.000783357
0.000379865
0.000569536
0.000683115
0.000304403
0.00029382
0.000728721
0.000311017
0.000516735
0.000677443
0.00050976
0.000680441
0.000717183
0.00150229
0.000734412
0.00225883
0.00151364
0.00101168
0.0011979
0.000597279
0.00059282
0.000585127
0.000810301
0.000677724
0.000494845
0.000647174
0.00123457
0.00120667
0.00116443
0.00119973
0.000981164
0.00108521
0.00109102
0.00117315
0.000776129
0.000714947
0.00103234
0.000600283
0.000756642
0.000987486
0.000776488
0.000674427
0.00069325
0.000657039
0.000523629
0.000591446
0.000589746
0.000985243
0.000729584
0.00309172
0.00105508
0.00105697
0.00128544
0.00103366
0.000415665
0.000441603
0.000783738
0.00108422
0.000481375
0.00107311
0.000844262
0.000752915
0.0008661
0.00087705
0.00178943
0.000688832
0.0010742
0.000575475
0.000695145
0.000563958
0.00031943
0.000558034
0.000555924
0.000663237
0.00144545
0.00103879
0.000443959
0.0025353
0.000659509
0.00118987
0.000571891
0.000544201
0.000874752
0.000772938
0.000800741
0.00100556
0.000908568
0.000534526
0.000735549
0.000705416
0.00121919
0.00138842
0.000663112
0.000384129
0.00126209
0.00124703
0.00115428
0.000698985
0.000949564
0.000910786
0.000459062
0.000684321
0.000956435
0.00087794
0.00117752
0.000877743
0.00030441
0.000754225
0.000547712
0.000532302
0.00112493
0.00200723
0.000555694
0.000566216
0.00063946
0.000258728
0.000591705
0.000579559
0.000930065
0.000611607
0.00069226
0.000630113
0.000576952
0.00127189
0.00126522
0.000956138
0.000341473
0.000228699
0.000841293
0.000345394
0.0011244
0.00113584
0.00108774
0.000701917
0.000840333
0.000595785
0.000581765
0.0012618
0.000810172
0.000657843
0.000743419
0.000814031
0.0022544
0.0003541
0.000689262
0.000432361
0.000852311
0.000678414
0.00122299
0.000825234
0.00122706
0.000706102
0.00093977
0.000905779
0.000695378
0.000377658
0.000730626
0.000341012
0.000667584
0.000677099
0.00124632
0.00114468
0.000541193
0.00108466
0.00137978
0.00116183
0.00124242
0.000820189
0.000813536
0.000536287
0.000519136
0.00073412
0.000736223
0.000546251
0.00134857
0.00139825
0.000546604
0.000656091
0.00134102
0.000689215
0.00134363
0.000628642
0.000679987
0.00120928
0.000834712
0.000821958
0.00123303
0.00105213
0.000875926
0.000972472
0.00117855
0.000971207
0.000276662
0.000935511
0.00143755
0.000786772
0.000756818
0.000629717
0.000641929
0.0010125
0.00105957
0.000714163
0.00105696
0.00114547
0.00134295
0.00054781
0.000734831
0.000717564
0.000982842
0.000856291
0.000859595
0.000721685
0.00130963
0.00100994
0.000596137
0.00148492
0.000399288
0.000429952
0.000827529
0.000801693
0.00121737
0.00118254
0.00105388
0.000592211
0.000779879
0.00140716
0.000908393
0.000524453
0.000847462
0.000340977
0.000562236
0.0012589
0.000774056
0.000733291
0.000482251
0.00101355
0.00138994
0.000246869
0.000688817
0.000519102
0.0005084
0.00131301
0.000811063
0.000743908
0.00124057
0.000583067
0.000859197
0.000664295
0.000746976
0.000739566
0.00117658
0.000994644
0.00070358
0.00097756
0.000487211
0.000974735
0.000801935
0.000834677
0.000843236
0.00113849
0.00100663
0.000606584
0.000582706
0.000650089
0.0012541
0.00115023
0.00114877
0.000737269
0.000735807
0.00111451
0.0012024
0.00101071
0.000474335
0.000730015
0.00125228
0.00104582
0.00124699
0.00105481
0.000703317
0.00115364
0.00121461
0.0011971
0.00120995
0.00082596
0.000828643
0.000818264
0.00111133
0.000653847
0.000648897
0.000638561
0.000650642
0.000815277
0.000812807
0.0011369
0.00051663
0.000642654
0.00110185
0.00119701
0.000622404
0.000622174
0.00118654
0.000821286
0.000794674
0.000517051
0.000514851
0.000561813
0.00152532
0.000646918
0.000571943
0.000564691
0.000764167
0.00122206
0.00123223
0.000572603
0.00058335
0.000817535
0.000841097
0.000734152
0.00100914
0.000748811
0.001221
0.000643329
0.000644286
0.00138321
0.000602429
0.000813689
0.00106802
0.00148079
0.00104148
0.00120626
0.000649992
0.00137395
0.000917782
0.000874382
0.001485
0.000546402
0.000557897
0.000593335
0.00100213
0.000661615
0.000662185
0.000944479
0.000654928
0.00114505
0.000857923
0.000801917
0.00078517
0.000791804
0.00115431
0.000610921
0.00113724
0.000463369
0.000491845
0.000864475
0.000774021
0.000399909
0.000648484
0.000619111
0.000561988
0.00114891
0.000643204
0.000366746
0.000759291
0.000641026
0.000937707
0.00056774
0.000661475
0.00054053
0.000391445
0.000346709
0.00027169
0.000323758
0.000635905
0.00028205
0.000616903
0.000914566
0.000733777
0.000750029
0.000744302
0.00136279
0.00110883
0.00111193
0.0012186
0.00113622
0.00120659
0.000547846
0.00073111
0.00119739
0.000223282
0.000975572
0.000640392
0.000605407
0.000798361
0.000787571
0.000579872
0.000580847
0.000976346
0.000672299
0.000611711
0.000746231
0.000983619
0.000981759
0.00129864
0.00130367
0.0011121
0.00083938
0.00141254
0.000574732
0.000564344
0.00117205
0.000606908
0.0013517
0.000744279
0.00123668
0.000777724
0.000821657
0.000608392
0.00125639
0.000535737
0.00075213
0.000643703
0.000672956
0.000902738
0.000913782
0.00125032
0.000597523
0.000602375
0.000518603
0.000824562
0.000834765
0.000792416
0.000539389
0.00125973
0.000757088
0.000511688
0.0005313
0.000847095
0.00116157
0.00108265
0.00122245
0.000619135
0.00132391
0.0011923
0.00102527
0.000732811
0.000724187
0.000720953
0.000723297
0.000931401
0.00124084
0.000743397
0.000676499
0.000805228
0.000787348
0.000232641
0.00114125
0.00110656
0.000885998
0.000633818
0.000916098
0.000767626
0.000528317
0.000908616
0.000652583
0.000770719
0.00082964
0.00100478
0.00125894
0.000769593
0.000776713
0.000768929
0.00114777
0.00129119
0.00101446
0.00133651
0.00123363
0.0013294
0.000604395
0.00125054
0.0006607
0.000549662
0.000910675
0.000612464
0.000628263
0.000586253
0.000783269
0.000793353
0.00125338
0.000819625
0.00111275
0.000765451
0.000869983
0.000862599
0.00123633
0.000509012
0.00105946
0.000482868
0.000594437
0.000839627
0.00124197
0.000557358
0.00122697
0.000699213
0.000561566
0.000596033
0.000607242
0.000566918
0.000879457
0.000833577
0.00108277
0.000807749
0.00109406
0.000760136
0.00130983
0.00154053
0.00102025
0.000598293
0.000773578
0.00150238
0.000942032
0.00144069
0.000665965
0.000847636
0.000739485
0.000775299
0.000379147
0.000588714
0.000669319
0.000789394
0.000730646
0.000752866
0.000757638
0.000678453
0.000717736
0.000776657
0.000868328
0.000843159
0.000930659
0.000317065
0.00059123
0.00130813
0.000845588
0.000616425
0.000528131
0.000513256
0.000626178
0.000641124
0.00075265
0.000787266
0.00142693
0.00101088
0.000890169
0.000620382
0.00078062
0.000609025
0.00122707
0.00124016
0.000436332
0.000449634
0.000579077
0.00076366
0.000598062
0.000797502
0.000636058
0.000628609
0.000932116
0.000994991
0.000536835
0.0010985
0.000777051
0.000769355
0.000692688
0.00114955
0.000760878
0.00110905
0.00107232
0.00116376
0.000835946
0.000909387
0.00121071
0.00119179
0.000629427
0.00064913
0.000690966
0.000727723
0.000766089
0.000613314
0.000561532
0.000525555
0.000685913
0.00048231
0.000805912
0.00116698
0.000759002
0.000868438
0.000856853
0.00105851
0.00094554
0.000636111
0.000839164
0.000666563
0.000662792
0.000719395
0.00112656
0.000893126
0.000894072
0.000368518
0.00115638
0.00116306
0.00114619
0.00101031
0.000769793
0.000549183
0.000734302
0.000734825
0.00054056
0.000974744
0.000771895
0.000574692
0.000572138
0.000628204
0.000922646
0.000902534
0.00125301
0.00124515
0.000899862
0.0009304
0.000932347
0.000865084
0.000838264
0.000962641
0.00122448
0.00118954
0.000748143
0.000745234
0.00082642
0.000881417
0.000876332
0.000972666
0.000577007
0.00050057
0.000459114
0.00121188
0.00118921
0.000904753
0.000876035
0.000902742
0.000906194
0.00056334
)
;

boundaryField
{
    back
    {
        type            empty;
    }
    front
    {
        type            empty;
    }
    down
    {
        type            calculated;
        value           nonuniform List<scalar> 
30
(
0.000793191
0.000553886
0.000502306
0.000259399
0.000427023
0.00037318
0.000253103
0.000462871
0.000419539
0.000568355
0.000229256
0.000536375
0.000233607
0.000568632
0.000322638
0.000553413
0.000294471
0.00052065
0.000443959
0.00030441
0.000536287
0.000546251
0.000276662
0.000592211
0.000482251
0.000399909
0.000561988
0.000346709
0.000547846
0.000223282
)
;
    }
    right
    {
        type            calculated;
        value           nonuniform List<scalar> 
20
(
0.000547577
0.000726174
0.000713697
0.00053117
0.000737808
0.000664958
0.000608353
0.000589229
0.000523953
0.000738891
0.000561903
0.000534526
0.000735549
0.000698985
0.000684321
0.000519136
0.000736223
0.000628642
0.000646918
0.000571943
)
;
    }
    up
    {
        type            calculated;
        value           nonuniform List<scalar> 
40
(
0.000758606
0.00123939
0.00130568
0.00125639
0.000731352
0.000772615
0.000867297
0.000875176
0.001044
0.000974119
0.00133087
0.000612551
0.00108899
0.001347
0.00081921
0.00120493
0.00079407
0.00113595
0.00116154
0.000744802
0.00135277
0.000936702
0.000845099
0.00104463
0.00134
0.00128544
0.00073412
0.000546604
0.00130963
0.000908393
0.00101355
0.000664295
0.00051663
0.000734152
0.00120626
0.000944479
0.00113724
0.000774021
0.00136279
0.00073111
)
;
    }
    left
    {
        type            calculated;
        value           nonuniform List<scalar> 10(0.00233657 0.000924879 0.00123358 0.00162038 0.000843763 0.00109816 0.00101168 0.00138842 0.00200723 0.000642654);
    }
    hole
    {
        type            calculated;
        value           nonuniform List<scalar> 
16
(
0.000945664
0.000822421
0.00295051
0.00262197
0.00113719
0.000287348
0.00064384
0.00113223
0.00047971
0.00205532
0.00119734
0.00039964
0.000851285
0.0015682
0.00237978
0.00309172
)
;
    }
}


// ************************************************************************* //
