/*--------------------------------*- C++ -*----------------------------------*\
| =========                 |                                                 |
| \\      /  F ield         | OpenFOAM: The Open Source CFD Toolbox           |
|  \\    /   O peration     | Version:  v2012                                 |
|   \\  /    A nd           | Website:  www.openfoam.com                      |
|    \\/     M anipulation  |                                                 |
\*---------------------------------------------------------------------------*/
FoamFile
{
    version     2.0;
    format      ascii;
    class       volVectorField;
    location    "20";
    object      D;
}
// * * * * * * * * * * * * * * * * * * * * * * * * * * * * * * * * * * * * * //

dimensions      [0 1 0 0 0 0 0];


internalField   nonuniform List<vector> 
32000
(
(2.61454e-05 0.000373693 0)
(4.92236e-05 0.000358405 0)
(2.55509e-05 0.000321714 0)
(4.72905e-05 0.000304776 0)
(2.53957e-05 0.000270086 0)
(4.67836e-05 0.00025288 0)
(2.54395e-05 0.000219465 0)
(4.68659e-05 0.000202279 0)
(2.55752e-05 0.000169734 0)
(4.71377e-05 0.000152676 0)
(2.57386e-05 0.000120839 0)
(4.73938e-05 0.00010404 0)
(2.58722e-05 7.29071e-05 0)
(4.75418e-05 5.6469e-05 0)
(2.59404e-05 2.60866e-05 0)
(4.75362e-05 1.00861e-05 0)
(2.59158e-05 -1.94806e-05 0)
(4.73599e-05 -3.49863e-05 0)
(2.57942e-05 -6.36616e-05 0)
(4.70176e-05 -7.86339e-05 0)
(2.55798e-05 -0.000106346 0)
(4.65194e-05 -0.00012075 0)
(2.52812e-05 -0.000147442 0)
(4.58725e-05 -0.000161244 0)
(2.48935e-05 -0.000186869 0)
(4.5088e-05 -0.000200046 0)
(2.44344e-05 -0.000224557 0)
(4.41851e-05 -0.000237102 0)
(2.39168e-05 -0.000260464 0)
(4.31809e-05 -0.000272365 0)
(2.33507e-05 -0.000294557 0)
(4.20787e-05 -0.000305798 0)
(2.2736e-05 -0.000326801 0)
(4.08917e-05 -0.000337384 0)
(2.20835e-05 -0.000357182 0)
(3.96321e-05 -0.000367107 0)
(2.14012e-05 -0.000385698 0)
(3.82983e-05 -0.000394951 0)
(2.0687e-05 -0.000412333 0)
(3.68973e-05 -0.00042092 0)
(1.99476e-05 -0.000437089 0)
(3.54365e-05 -0.000445011 0)
(1.91835e-05 -0.000459978 0)
(3.39131e-05 -0.000467224 0)
(1.83957e-05 -0.000480994 0)
(3.23329e-05 -0.000487576 0)
(1.75873e-05 -0.000500157 0)
(3.06976e-05 -0.000506069 0)
(1.67505e-05 -0.000517482 0)
(2.90123e-05 -0.000522728 0)
(1.58954e-05 -0.000532987 0)
(2.72917e-05 -0.000537587 0)
(1.50238e-05 -0.000546716 0)
(2.55426e-05 -0.00055067 0)
(1.4134e-05 -0.000558701 0)
(2.37814e-05 -0.00056204 0)
(1.32319e-05 -0.000569009 0)
(2.20226e-05 -0.000571751 0)
(1.23176e-05 -0.000577712 0)
(2.02848e-05 -0.000579885 0)
(1.14022e-05 -0.000584891 0)
(1.85936e-05 -0.000586543 0)
(1.04924e-05 -0.00059066 0)
(1.69676e-05 -0.000591821 0)
(9.59642e-06 -0.000595123 0)
(1.543e-05 -0.000595852 0)
(8.72767e-06 -0.00059842 0)
(1.3998e-05 -0.00059876 0)
(7.89787e-06 -0.000600681 0)
(1.26899e-05 -0.000600685 0)
(7.12306e-06 -0.000602054 0)
(1.15148e-05 -0.000601762 0)
(6.41219e-06 -0.000602686 0)
(1.04809e-05 -0.000602125 0)
(5.7668e-06 -0.000602722 0)
(9.55533e-06 -0.000601861 0)
(5.17076e-06 -0.000602298 0)
(8.78875e-06 -0.000601299 0)
(4.61286e-06 -0.000601539 0)
(8.30382e-06 -0.000600719 0)
(8.33628e-05 0.000364098 0)
(0.000104784 0.000344542 0)
(8.6637e-05 0.00031559 0)
(0.000108959 0.000295633 0)
(8.93494e-05 0.00026551 0)
(0.000111934 0.000246 0)
(9.14521e-05 0.000215657 0)
(0.000114151 0.000196597 0)
(9.30588e-05 0.000166378 0)
(0.000115787 0.000147739 0)
(9.42319e-05 0.000117845 0)
(0.000116901 9.96804e-05 0)
(9.49868e-05 7.02601e-05 0)
(0.000117514 5.26359e-05 0)
(9.53284e-05 2.37974e-05 0)
(0.000117643 6.76602e-06 0)
(9.52712e-05 -2.14061e-05 0)
(0.000117308 -3.77993e-05 0)
(9.48335e-05 -6.52255e-05 0)
(0.000116533 -8.09473e-05 0)
(9.4049e-05 -0.000107556 0)
(0.000115354 -0.000122579 0)
(9.2944e-05 -0.000148304 0)
(0.000113808 -0.00016261 0)
(9.15531e-05 -0.0001874 0)
(0.000111928 -0.00020097 0)
(8.99044e-05 -0.000224778 0)
(0.000109747 -0.000237604 0)
(8.8034e-05 -0.000260391 0)
(0.000107299 -0.000272465 0)
(8.5961e-05 -0.000294198 0)
(0.000104614 -0.000305514 0)
(8.37073e-05 -0.000326169 0)
(0.000101712 -0.000336722 0)
(8.13069e-05 -0.000356286 0)
(9.86157e-05 -0.000366071 0)
(7.87682e-05 -0.00038453 0)
(9.5344e-05 -0.000393541 0)
(7.60968e-05 -0.000410892 0)
(9.19057e-05 -0.000419118 0)
(7.3317e-05 -0.000435366 0)
(8.83159e-05 -0.000442806 0)
(7.04322e-05 -0.000457955 0)
(8.45833e-05 -0.000464597 0)
(6.74428e-05 -0.00047866 0)
(8.07146e-05 -0.000484498 0)
(6.43667e-05 -0.000497492 0)
(7.67315e-05 -0.000502534 0)
(6.12093e-05 -0.000514478 0)
(7.26467e-05 -0.000518715 0)
(5.79796e-05 -0.000529634 0)
(6.84808e-05 -0.000533089 0)
(5.46924e-05 -0.000543007 0)
(6.42624e-05 -0.0005457 0)
(5.13599e-05 -0.000554651 0)
(6.00201e-05 -0.00055661 0)
(4.80124e-05 -0.000564631 0)
(5.57971e-05 -0.000565909 0)
(4.4671e-05 -0.000573039 0)
(5.1637e-05 -0.000573678 0)
(4.13701e-05 -0.000579965 0)
(4.75829e-05 -0.000580039 0)
(3.81433e-05 -0.00058553 0)
(4.36843e-05 -0.000585101 0)
(3.50304e-05 -0.000589858 0)
(3.99854e-05 -0.000589 0)
(3.20697e-05 -0.000593088 0)
(3.65274e-05 -0.000591865 0)
(2.92965e-05 -0.000595362 0)
(3.33459e-05 -0.000593834 0)
(2.67451e-05 -0.00059683 0)
(3.04684e-05 -0.000595047 0)
(2.44378e-05 -0.000597639 0)
(2.79109e-05 -0.000595633 0)
(2.23834e-05 -0.000597926 0)
(2.56712e-05 -0.000595687 0)
(2.05447e-05 -0.000597791 0)
(2.37855e-05 -0.00059544 0)
(1.88996e-05 -0.000597308 0)
(2.22294e-05 -0.000595095 0)
(0.000145549 0.000353972 0)
(0.000168143 0.000333578 0)
(0.00014987 0.000304985 0)
(0.000172492 0.000283712 0)
(0.000154141 0.000255196 0)
(0.000176777 0.000234229 0)
(0.000157771 0.000205907 0)
(0.000180416 0.000185417 0)
(0.000160636 0.000157286 0)
(0.000183221 0.000137339 0)
(0.000162721 0.000109452 0)
(0.000185162 9.01234e-05 0)
(0.000164045 6.25836e-05 0)
(0.00018627 4.39319e-05 0)
(0.000164641 1.68428e-05 0)
(0.000186585 -1.0856e-06 0)
(0.000164549 -2.76363e-05 0)
(0.000186156 -4.48064e-05 0)
(0.000163813 -7.07422e-05 0)
(0.000185033 -8.71233e-05 0)
(0.000162481 -0.000112372 0)
(0.000183264 -0.000127944 0)
(0.000160614 -0.000152443 0)
(0.000180911 -0.00016719 0)
(0.000158259 -0.00019088 0)
(0.000178029 -0.000204791 0)
(0.000155458 -0.000227626 0)
(0.000174664 -0.000240685 0)
(0.00015226 -0.000262623 0)
(0.000170859 -0.00027483 0)
(0.000148717 -0.000295835 0)
(0.000166667 -0.000307184 0)
(0.000144865 -0.000327232 0)
(0.000162117 -0.000337702 0)
(0.000140718 -0.000356773 0)
(0.000157234 -0.000366354 0)
(0.000136315 -0.000384436 0)
(0.000152051 -0.000393122 0)
(0.000131681 -0.000410214 0)
(0.000146591 -0.000417981 0)
(0.000126817 -0.000434086 0)
(0.000140862 -0.000440917 0)
(0.000121749 -0.000456045 0)
(0.000134894 -0.000461938 0)
(0.000116492 -0.000476106 0)
(0.000128706 -0.000481039 0)
(0.000111052 -0.00049427 0)
(0.000122313 -0.000498245 0)
(0.000105457 -0.000510563 0)
(0.000115759 -0.000513599 0)
(9.97155e-05 -0.000525028 0)
(0.000109076 -0.000527141 0)
(9.38747e-05 -0.00053771 0)
(0.000102316 -0.000538953 0)
(8.79716e-05 -0.000548691 0)
(9.554e-05 -0.000549108 0)
(8.20523e-05 -0.000558048 0)
(8.8808e-05 -0.000557721 0)
(7.61745e-05 -0.000565892 0)
(8.21944e-05 -0.000564901 0)
(7.04021e-05 -0.000572338 0)
(7.57738e-05 -0.000570784 0)
(6.48068e-05 -0.00057752 0)
(6.96226e-05 -0.0005755 0)
(5.94594e-05 -0.000581573 0)
(6.38156e-05 -0.000579187 0)
(5.44315e-05 -0.00058464 0)
(5.84156e-05 -0.000581976 0)
(4.97848e-05 -0.00058686 0)
(5.34833e-05 -0.000583998 0)
(4.55747e-05 -0.000588374 0)
(4.90524e-05 -0.000585371 0)
(4.18377e-05 -0.000589316 0)
(4.51477e-05 -0.000586207 0)
(3.8593e-05 -0.000589811 0)
(4.17723e-05 -0.000586599 0)
(3.58068e-05 -0.000589947 0)
(3.88283e-05 -0.000586564 0)
(3.33618e-05 -0.000589753 0)
(3.64824e-05 -0.00058648 0)
(0.000203439 0.000335844 0)
(0.000225733 0.000313308 0)
(0.000210341 0.000287744 0)
(0.00023281 0.000264723 0)
(0.000216574 0.000238831 0)
(0.000239002 0.000216327 0)
(0.000221754 0.000190447 0)
(0.000244099 0.000168578 0)
(0.000225846 0.000142801 0)
(0.00024804 0.000121613 0)
(0.000228844 9.5997e-05 0)
(0.000250816 7.55591e-05 0)
(0.000230766 5.01896e-05 0)
(0.000252455 3.05591e-05 0)
(0.000231662 5.51634e-06 0)
(0.000253012 -1.32682e-05 0)
(0.000231597 -3.79019e-05 0)
(0.000252558 -5.58127e-05 0)
(0.000230638 -7.99605e-05 0)
(0.000251164 -9.69747e-05 0)
(0.000228853 -0.000120571 0)
(0.0002489 -0.000136663 0)
(0.000226301 -0.000159644 0)
(0.000245832 -0.000174804 0)
(0.000223062 -0.00019711 0)
(0.000242031 -0.000211329 0)
(0.000219209 -0.00023291 0)
(0.000237571 -0.000246178 0)
(0.000214794 -0.000266994 0)
(0.000232504 -0.000279287 0)
(0.000209857 -0.000299302 0)
(0.000226865 -0.000310598 0)
(0.000204449 -0.000329784 0)
(0.000220705 -0.000340069 0)
(0.000198618 -0.000358413 0)
(0.000214071 -0.000367662 0)
(0.000192374 -0.000385151 0)
(0.000206984 -0.000393334 0)
(0.000185757 -0.000409963 0)
(0.000199467 -0.000417058 0)
(0.000178798 -0.000432841 0)
(0.000191568 -0.000438825 0)
(0.000171501 -0.000453773 0)
(0.000183308 -0.000458627 0)
(0.000163903 -0.000472755 0)
(0.000174725 -0.000476486 0)
(0.000156034 -0.000489822 0)
(0.000165876 -0.000492436 0)
(0.000147925 -0.000505 0)
(0.000156805 -0.000506534 0)
(0.000139635 -0.000518357 0)
(0.000147589 -0.000518865 0)
(0.000131211 -0.000529973 0)
(0.000138303 -0.000529526 0)
(0.000122734 -0.000539942 0)
(0.000129039 -0.000538644 0)
(0.00011428 -0.000548391 0)
(0.000119898 -0.000546351 0)
(0.000105953 -0.00055545 0)
(0.00011098 -0.000552795 0)
(9.78455e-05 -0.000561266 0)
(0.000102393 -0.000558122 0)
(9.00665e-05 -0.000565982 0)
(9.42295e-05 -0.000562476 0)
(8.27093e-05 -0.000569744 0)
(8.6584e-05 -0.00056599 0)
(7.58663e-05 -0.000572687 0)
(7.95266e-05 -0.000568785 0)
(6.96103e-05 -0.000574936 0)
(7.31222e-05 -0.000570965 0)
(6.40003e-05 -0.000576607 0)
(6.73988e-05 -0.000572617 0)
(5.90656e-05 -0.000577797 0)
(6.23793e-05 -0.000573822 0)
(5.48157e-05 -0.000578597 0)
(5.80218e-05 -0.00057461 0)
(5.12046e-05 -0.00057906 0)
(5.42945e-05 -0.000574994 0)
(4.81629e-05 -0.00057926 0)
(5.10912e-05 -0.000575076 0)
(0.000259459 0.000312078 0)
(0.000281718 0.000287959 0)
(0.000268392 0.000264697 0)
(0.000290602 0.000240242 0)
(0.000276385 0.000216844 0)
(0.000298413 0.000192969 0)
(0.000283031 0.000169614 0)
(0.000304852 0.000146498 0)
(0.000288293 0.000123221 0)
(0.000309861 0.000100917 0)
(0.000292185 7.77541e-05 0)
(0.000313452 5.6321e-05 0)
(0.00029475 3.33267e-05 0)
(0.000315666 1.28185e-05 0)
(0.000296027 -9.94916e-06 0)
(0.000316553 -2.94967e-05 0)
(0.000296082 -5.19747e-05 0)
(0.000316181 -7.05363e-05 0)
(0.000294999 -9.26596e-05 0)
(0.000314626 -0.000110213 0)
(0.000292868 -0.000131916 0)
(0.00031198 -0.000148448 0)
(0.00028978 -0.000169671 0)
(0.000308331 -0.00018516 0)
(0.000285799 -0.000205848 0)
(0.000303748 -0.000220273 0)
(0.000280989 -0.000240372 0)
(0.000298289 -0.000253706 0)
(0.000275421 -0.000273176 0)
(0.000292007 -0.000285386 0)
(0.000269163 -0.0003042 0)
(0.000284976 -0.000315254 0)
(0.000262249 -0.000333386 0)
(0.000277242 -0.000343247 0)
(0.000254717 -0.000360674 0)
(0.000268835 -0.000369305 0)
(0.000246619 -0.000386027 0)
(0.000259798 -0.000393387 0)
(0.000237982 -0.000409412 0)
(0.000250185 -0.000415466 0)
(0.00022883 -0.000430797 0)
(0.000240034 -0.000435533 0)
(0.000219217 -0.000450188 0)
(0.000229403 -0.000453608 0)
(0.000209179 -0.000467608 0)
(0.000218365 -0.000469727 0)
(0.000198775 -0.000483092 0)
(0.00020699 -0.000483965 0)
(0.000188084 -0.000496723 0)
(0.000195389 -0.000496421 0)
(0.000177186 -0.000508588 0)
(0.000183663 -0.000507221 0)
(0.000166193 -0.000518817 0)
(0.00017194 -0.000516512 0)
(0.000155217 -0.000527549 0)
(0.000160347 -0.000524454 0)
(0.00014439 -0.000534947 0)
(0.000149019 -0.00053121 0)
(0.000133842 -0.000541168 0)
(0.000138079 -0.000536945 0)
(0.000123694 -0.000546373 0)
(0.00012765 -0.000541804 0)
(0.00011407 -0.000550709 0)
(0.000117826 -0.000545922 0)
(0.000105063 -0.000554309 0)
(0.000108697 -0.000549411 0)
(9.6761e-05 -0.000557287 0)
(0.000100316 -0.000552359 0)
(8.92175e-05 -0.000559735 0)
(9.27225e-05 -0.000554837 0)
(8.24612e-05 -0.000561726 0)
(8.59262e-05 -0.000556891 0)
(7.65033e-05 -0.000563315 0)
(7.99139e-05 -0.000558561 0)
(7.13204e-05 -0.000564545 0)
(7.46557e-05 -0.000559861 0)
(6.68876e-05 -0.000565445 0)
(7.00766e-05 -0.000560766 0)
(6.30552e-05 -0.000565958 0)
(6.60825e-05 -0.000561217 0)
(0.000312307 0.000282448 0)
(0.000334126 0.000256795 0)
(0.000323237 0.000236047 0)
(0.000344947 0.000210293 0)
(0.000332888 0.000189537 0)
(0.000354317 0.000164441 0)
(0.00034092 0.000143728 0)
(0.000362026 0.000119511 0)
(0.000347315 9.8854e-05 0)
(0.000368068 7.55779e-05 0)
(0.000352103 5.499e-05 0)
(0.000372472 3.27059e-05 0)
(0.000355327 1.22277e-05 0)
(0.000375285 -9.02831e-06 0)
(0.000357054 -2.93539e-05 0)
(0.000376568 -4.95522e-05 0)
(0.000357359 -6.9683e-05 0)
(0.000376391 -8.87911e-05 0)
(0.000356317 -0.000108683 0)
(0.000374831 -0.00012667 0)
(0.000353999 -0.000146269 0)
(0.000371956 -0.000163108 0)
(0.000350481 -0.000182357 0)
(0.000367838 -0.000198018 0)
(0.000345851 -0.000216866 0)
(0.000362546 -0.000231308 0)
(0.000340191 -0.000249717 0)
(0.000356149 -0.000262885 0)
(0.000333563 -0.000280824 0)
(0.000348722 -0.000292668 0)
(0.000326002 -0.000310098 0)
(0.000340313 -0.000320574 0)
(0.000317567 -0.000337473 0)
(0.000330964 -0.000346525 0)
(0.000308317 -0.000362892 0)
(0.000320732 -0.000370463 0)
(0.000298289 -0.0003863 0)
(0.000309686 -0.000392353 0)
(0.000287521 -0.000407659 0)
(0.000297884 -0.000412184 0)
(0.00027609 -0.000426976 0)
(0.000285409 -0.000429978 0)
(0.000264053 -0.000444272 0)
(0.000272364 -0.00044579 0)
(0.000251503 -0.000459602 0)
(0.000258854 -0.000459713 0)
(0.000238551 -0.000473065 0)
(0.000245025 -0.000471876 0)
(0.00022531 -0.000484777 0)
(0.000231017 -0.000482435 0)
(0.000211935 -0.0004949 0)
(0.000216997 -0.000491566 0)
(0.000198578 -0.000503601 0)
(0.000203121 -0.000499457 0)
(0.000185397 -0.000511066 0)
(0.000189559 -0.000506288 0)
(0.000172555 -0.000517472 0)
(0.000176447 -0.000512231 0)
(0.000160194 -0.000522988 0)
(0.000163921 -0.000517435 0)
(0.000148443 -0.000527759 0)
(0.000152087 -0.000522025 0)
(0.000137409 -0.000531914 0)
(0.000141016 -0.000526098 0)
(0.00012716 -0.000535548 0)
(0.000130774 -0.000529727 0)
(0.000117749 -0.000538733 0)
(0.000121379 -0.000532959 0)
(0.000109198 -0.000541522 0)
(0.000112835 -0.000535826 0)
(0.000101497 -0.000543942 0)
(0.000105132 -0.000538343 0)
(9.46385e-05 -0.000546016 0)
(9.82217e-05 -0.000540507 0)
(8.85794e-05 -0.000547753 0)
(9.20725e-05 -0.000542333 0)
(8.32511e-05 -0.00054913 0)
(8.66169e-05 -0.000543784 0)
(7.8639e-05 -0.000550163 0)
(8.17922e-05 -0.000544812 0)
(0.000361985 0.000247854 0)
(0.000383259 0.000220887 0)
(0.000374555 0.000202462 0)
(0.000395568 0.000175668 0)
(0.000385616 0.000157434 0)
(0.000406232 0.000131346 0)
(0.000394888 0.000113231 0)
(0.00041508 8.81081e-05 0)
(0.000402358 7.00924e-05 0)
(0.000422112 4.60046e-05 0)
(0.000408052 2.80665e-05 0)
(0.00042735 5.06398e-06 0)
(0.000412011 -1.27941e-05 0)
(0.000430832 -3.46677e-05 0)
(0.000414284 -5.24321e-05 0)
(0.000432603 -7.31363e-05 0)
(0.000414927 -9.07838e-05 0)
(0.000432714 -0.00011028 0)
(0.000414004 -0.000127777 0)
(0.000431221 -0.000146024 0)
(0.000411593 -0.000163337 0)
(0.000428185 -0.000180283 0)
(0.000407768 -0.000197376 0)
(0.000423666 -0.000212955 0)
(0.000402598 -0.000229796 0)
(0.000417726 -0.000243932 0)
(0.000396136 -0.000260489 0)
(0.000410428 -0.000273112 0)
(0.000388425 -0.000289346 0)
(0.000401825 -0.000300396 0)
(0.000379535 -0.000316287 0)
(0.000391974 -0.000325695 0)
(0.00036953 -0.000341239 0)
(0.00038094 -0.000348932 0)
(0.000358462 -0.000364132 0)
(0.000368809 -0.000370076 0)
(0.000346389 -0.000384927 0)
(0.000355673 -0.000389121 0)
(0.000333413 -0.000403634 0)
(0.000341639 -0.0004061 0)
(0.000319632 -0.00042029 0)
(0.000326853 -0.000421096 0)
(0.000305166 -0.000434971 0)
(0.000311465 -0.000434233 0)
(0.000290176 -0.000447807 0)
(0.000295663 -0.000445676 0)
(0.000274818 -0.000458954 0)
(0.000279631 -0.000455618 0)
(0.000259295 -0.000468606 0)
(0.000263576 -0.000464265 0)
(0.000243795 -0.000476963 0)
(0.000247689 -0.00047183 0)
(0.00022851 -0.000484233 0)
(0.000232161 -0.000478505 0)
(0.000213627 -0.000490605 0)
(0.000217147 -0.000484461 0)
(0.000199305 -0.000496251 0)
(0.000202777 -0.000489839 0)
(0.000185661 -0.000501306 0)
(0.000189166 -0.000494751 0)
(0.000172803 -0.000505881 0)
(0.000176377 -0.00049927 0)
(0.000160794 -0.000510057 0)
(0.000164444 -0.000503447 0)
(0.00014966 -0.000513877 0)
(0.000153392 -0.000507314 0)
(0.000139417 -0.000517373 0)
(0.00014322 -0.000510885 0)
(0.000130062 -0.000520563 0)
(0.000133896 -0.000514153 0)
(0.000121566 -0.000523447 0)
(0.000125399 -0.000517122 0)
(0.000113886 -0.000526014 0)
(0.000117689 -0.000519778 0)
(0.000106987 -0.00052826 0)
(0.000110696 -0.0005221 0)
(0.000100821 -0.000530185 0)
(0.000104403 -0.000524097 0)
(9.52979e-05 -0.000531726 0)
(9.87287e-05 -0.000525697 0)
(0.000408645 0.000209008 0)
(0.00042922 0.000181046 0)
(0.000422409 0.000164705 0)
(0.000442555 0.000137166 0)
(0.000434505 0.000121243 0)
(0.000454169 9.44361e-05 0)
(0.000444756 7.87522e-05 0)
(0.00046391 5.29683e-05 0)
(0.000453125 3.74735e-05 0)
(0.000471764 1.27907e-05 0)
(0.000459622 -2.5667e-06 0)
(0.000477732 -2.60886e-05 0)
(0.000464269 -4.13367e-05 0)
(0.000481827 -6.36387e-05 0)
(0.000467092 -7.87952e-05 0)
(0.000484069 -9.98167e-05 0)
(0.000468128 -0.000114891 0)
(0.000484481 -0.000134564 0)
(0.000467416 -0.000149555 0)
(0.000483092 -0.000167797 0)
(0.000464996 -0.000182701 0)
(0.000479925 -0.000199414 0)
(0.000460907 -0.000214221 0)
(0.000475013 -0.000229304 0)
(0.000455183 -0.000243996 0)
(0.000468397 -0.000257355 0)
(0.000447868 -0.000271909 0)
(0.000460126 -0.000283463 0)
(0.000439025 -0.000297864 0)
(0.000450263 -0.000307532 0)
(0.000428726 -0.000321776 0)
(0.000438886 -0.000329485 0)
(0.000417041 -0.000343577 0)
(0.000426097 -0.000349294 0)
(0.000404054 -0.000363234 0)
(0.000412022 -0.000366976 0)
(0.000389893 -0.000380768 0)
(0.000396808 -0.00038259 0)
(0.000374704 -0.000396245 0)
(0.000380642 -0.000396254 0)
(0.000358648 -0.000409776 0)
(0.000363731 -0.000408138 0)
(0.00034194 -0.000421531 0)
(0.000346307 -0.00041845 0)
(0.000324794 -0.000431711 0)
(0.000328612 -0.00042742 0)
(0.000307459 -0.000440549 0)
(0.000310887 -0.000435284 0)
(0.000290161 -0.000448271 0)
(0.000293354 -0.000442268 0)
(0.00027312 -0.0004551 0)
(0.000276221 -0.000448569 0)
(0.000256539 -0.000461231 0)
(0.000259652 -0.000454347 0)
(0.000240577 -0.000466825 0)
(0.000243771 -0.000459721 0)
(0.000225348 -0.000471998 0)
(0.000228673 -0.000464779 0)
(0.000210934 -0.000476833 0)
(0.000214421 -0.000469576 0)
(0.000197392 -0.000481389 0)
(0.000201039 -0.000474136 0)
(0.000184744 -0.000485696 0)
(0.000188524 -0.000478468 0)
(0.000172982 -0.000489757 0)
(0.00017688 -0.000482578 0)
(0.000162096 -0.000493573 0)
(0.000166091 -0.000486458 0)
(0.000152074 -0.000497143 0)
(0.00015612 -0.000490086 0)
(0.000142875 -0.000500449 0)
(0.000146925 -0.000493449 0)
(0.000134454 -0.000503471 0)
(0.000138483 -0.000496539 0)
(0.00012678 -0.000506203 0)
(0.000130757 -0.000499346 0)
(0.000119804 -0.000508626 0)
(0.000123663 -0.000501826 0)
(0.000113478 -0.000510728 0)
(0.000117182 -0.000503963 0)
(0.000452152 0.000166626 0)
(0.000471778 0.00013803 0)
(0.000466582 0.000123659 0)
(0.000485675 9.563e-05 0)
(0.000479339 8.17458e-05 0)
(0.000497896 5.44808e-05 0)
(0.000490292 4.09926e-05 0)
(0.00050827 1.47867e-05 0)
(0.000499366 1.62895e-06 0)
(0.000516747 -2.34165e-05 0)
(0.000506532 -3.63266e-05 0)
(0.000523292 -6.01271e-05 0)
(0.000511778 -7.28543e-05 0)
(0.000527885 -9.53201e-05 0)
(0.000515097 -0.000107917 0)
(0.000530506 -0.000128947 0)
(0.000516482 -0.000141457 0)
(0.000531133 -0.000160931 0)
(0.000515924 -0.00017339 0)
(0.000529747 -0.000191176 0)
(0.000513417 -0.000203612 0)
(0.000526338 -0.000219577 0)
(0.000508961 -0.000232009 0)
(0.000520908 -0.000246028 0)
(0.000502576 -0.000258469 0)
(0.000513485 -0.000270432 0)
(0.000494306 -0.00028289 0)
(0.000504121 -0.000292706 0)
(0.000484215 -0.000305189 0)
(0.0004929 -0.000312797 0)
(0.000472393 -0.000325312 0)
(0.000479938 -0.000330691 0)
(0.000458955 -0.00034325 0)
(0.000465394 -0.00034644 0)
(0.000444052 -0.000359049 0)
(0.000449462 -0.000360153 0)
(0.00042788 -0.000372815 0)
(0.000432374 -0.000371995 0)
(0.000410668 -0.000384713 0)
(0.0004144 -0.00038219 0)
(0.000392676 -0.00039496 0)
(0.00039582 -0.000390993 0)
(0.000374184 -0.000403808 0)
(0.000376928 -0.000398673 0)
(0.000355481 -0.000411521 0)
(0.000357998 -0.000405486 0)
(0.000336828 -0.00041835 0)
(0.000339276 -0.00041166 0)
(0.000318468 -0.000424521 0)
(0.000320975 -0.000417382 0)
(0.000300603 -0.000430216 0)
(0.000303259 -0.00042279 0)
(0.000283384 -0.000435572 0)
(0.000286241 -0.000427973 0)
(0.000266915 -0.00044068 0)
(0.000269994 -0.000432985 0)
(0.000251255 -0.000445593 0)
(0.000254573 -0.000437859 0)
(0.000236449 -0.000450341 0)
(0.000239998 -0.000442604 0)
(0.000222515 -0.000454939 0)
(0.000226267 -0.00044721 0)
(0.000209449 -0.000459379 0)
(0.000213365 -0.000451662 0)
(0.00019723 -0.000463644 0)
(0.000201282 -0.000455951 0)
(0.000185837 -0.000467716 0)
(0.000190004 -0.00046006 0)
(0.000175255 -0.000471584 0)
(0.000179497 -0.000463967 0)
(0.000165455 -0.000475236 0)
(0.000169721 -0.000467646 0)
(0.000156391 -0.000478646 0)
(0.000160651 -0.000471093 0)
(0.000148016 -0.000481786 0)
(0.000152251 -0.000474289 0)
(0.000140318 -0.000484665 0)
(0.000144489 -0.000477221 0)
(0.000133225 -0.00048724 0)
(0.00013727 -0.000479817 0)
(0.000492225 0.000121781 0)
(0.000510803 9.28568e-05 0)
(0.000507115 8.01052e-05 0)
(0.000525091 5.1803e-05 0)
(0.000520295 3.97141e-05 0)
(0.00053765 1.22428e-05 0)
(0.000531664 6.95924e-07 0)
(0.000548348 -2.56432e-05 0)
(0.000541156 -3.67126e-05 0)
(0.000557138 -6.17996e-05 0)
(0.000548726 -7.24857e-05 0)
(0.000563965 -9.62028e-05 0)
(0.000554329 -0.000106593 0)
(0.000568768 -0.0001288 0)
(0.000557908 -0.000138978 0)
(0.000571479 -0.000159515 0)
(0.000559403 -0.00016956 0)
(0.000572032 -0.000188258 0)
(0.000558756 -0.000198241 0)
(0.000570371 -0.000214936 0)
(0.000555924 -0.000224922 0)
(0.000566457 -0.000239456 0)
(0.000550887 -0.000249503 0)
(0.000560279 -0.000261743 0)
(0.000543653 -0.000271902 0)
(0.000551867 -0.000281747 0)
(0.000534269 -0.000292062 0)
(0.000541289 -0.000299456 0)
(0.000522819 -0.00030996 0)
(0.000528668 -0.000314911 0)
(0.00050944 -0.00032563 0)
(0.000514186 -0.000328216 0)
(0.00049432 -0.000339167 0)
(0.000498076 -0.000339542 0)
(0.000477696 -0.000350736 0)
(0.000480621 -0.000349125 0)
(0.000459859 -0.000360565 0)
(0.000462142 -0.000357251 0)
(0.000441126 -0.00036893 0)
(0.000442975 -0.000364224 0)
(0.000421836 -0.000376131 0)
(0.000423451 -0.000370342 0)
(0.000402308 -0.000382457 0)
(0.00040387 -0.000375871 0)
(0.000382834 -0.000388169 0)
(0.000384491 -0.000381028 0)
(0.000363665 -0.000393482 0)
(0.000365525 -0.000385973 0)
(0.000344988 -0.000398549 0)
(0.000347119 -0.00039081 0)
(0.000326939 -0.000403475 0)
(0.000329374 -0.000395595 0)
(0.000309607 -0.000408318 0)
(0.000312349 -0.000400348 0)
(0.000293041 -0.000413102 0)
(0.000296087 -0.00040508 0)
(0.000277271 -0.000417832 0)
(0.000280609 -0.000409783 0)
(0.000262319 -0.000422505 0)
(0.000265919 -0.000414441 0)
(0.000248184 -0.000427104 0)
(0.000252011 -0.000419027 0)
(0.000234854 -0.000431607 0)
(0.000238865 -0.000423514 0)
(0.000222307 -0.000435986 0)
(0.000226472 -0.000427885 0)
(0.000210523 -0.000440218 0)
(0.000214825 -0.000432127 0)
(0.000199495 -0.000444292 0)
(0.000203897 -0.000436214 0)
(0.000189196 -0.00044819 0)
(0.000193658 -0.000440122 0)
(0.000179587 -0.000451886 0)
(0.000184059 -0.000443821 0)
(0.000170635 -0.000455362 0)
(0.000175096 -0.000447317 0)
(0.000162283 -0.000458585 0)
(0.000166733 -0.000450587 0)
(0.000154531 -0.000461564 0)
(0.000158901 -0.00045357 0)
(0.00052902 7.50791e-05 0)
(0.000546485 4.60587e-05 0)
(0.000544091 3.47187e-05 0)
(0.000560876 6.41532e-06 0)
(0.000557401 -4.11421e-06 0)
(0.000573464 -3.14894e-05 0)
(0.000568877 -4.13347e-05 0)
(0.000584146 -6.74533e-05 0)
(0.000578456 -7.66798e-05 0)
(0.000592872 -0.000101379 0)
(0.000586071 -0.000110082 0)
(0.000599567 -0.000133194 0)
(0.000591643 -0.000141474 0)
(0.000604135 -0.000162801 0)
(0.000595076 -0.000170764 0)
(0.000606486 -0.000190107 0)
(0.000596272 -0.000197857 0)
(0.000606527 -0.000215023 0)
(0.000595141 -0.000222664 0)
(0.00060418 -0.000237473 0)
(0.000591623 -0.000245112 0)
(0.000599401 -0.000257415 0)
(0.00058569 -0.000265153 0)
(0.00059219 -0.000274849 0)
(0.000577363 -0.000282775 0)
(0.000582602 -0.000289827 0)
(0.000566719 -0.000298013 0)
(0.000570755 -0.000302459 0)
(0.000553894 -0.000310967 0)
(0.000556838 -0.00031293 0)
(0.000539091 -0.000321805 0)
(0.000541107 -0.0003215 0)
(0.000522595 -0.000330775 0)
(0.000523883 -0.000328491 0)
(0.000504739 -0.000338183 0)
(0.000505529 -0.000334258 0)
(0.000485898 -0.00034437 0)
(0.000486417 -0.000339155 0)
(0.000466443 -0.000349675 0)
(0.000466902 -0.0003435 0)
(0.000446724 -0.000354405 0)
(0.000447298 -0.000347553 0)
(0.000427041 -0.000358811 0)
(0.000427859 -0.000351503 0)
(0.00040763 -0.000363078 0)
(0.000408775 -0.000355473 0)
(0.000388659 -0.000367325 0)
(0.000390177 -0.000359527 0)
(0.000370246 -0.000371615 0)
(0.000372148 -0.000363685 0)
(0.000352467 -0.000375973 0)
(0.000354745 -0.000367944 0)
(0.000335366 -0.000380397 0)
(0.000338008 -0.000372294 0)
(0.000318975 -0.000384873 0)
(0.000321962 -0.000376714 0)
(0.000303316 -0.000389385 0)
(0.000306619 -0.000381178 0)
(0.000288394 -0.000393909 0)
(0.000291981 -0.000385658 0)
(0.000274209 -0.000398415 0)
(0.000278043 -0.00039012 0)
(0.000260751 -0.000402875 0)
(0.000264789 -0.000394532 0)
(0.000248002 -0.000407259 0)
(0.000252222 -0.00039888 0)
(0.000235952 -0.000411544 0)
(0.000240336 -0.000403147 0)
(0.000224597 -0.000415717 0)
(0.000229107 -0.000407304 0)
(0.000213911 -0.000419753 0)
(0.000218508 -0.000411322 0)
(0.000203866 -0.000423634 0)
(0.000208507 -0.000415178 0)
(0.000194415 -0.000427323 0)
(0.000199085 -0.000418863 0)
(0.000185544 -0.000430817 0)
(0.000190218 -0.000422362 0)
(0.000177207 -0.000434082 0)
(0.000181846 -0.000425615 0)
(0.000562817 2.72744e-05 0)
(0.000579129 -1.56022e-06 0)
(0.000577762 -1.17138e-05 0)
(0.000593261 -3.96765e-05 0)
(0.000590869 -4.88804e-05 0)
(0.000605496 -7.5736e-05 0)
(0.000602069 -8.41288e-05 0)
(0.000615727 -0.000109505 0)
(0.000611289 -0.000117149 0)
(0.000623893 -0.000140829 0)
(0.000618444 -0.00014782 0)
(0.000629896 -0.000169576 0)
(0.00062343 -0.000176028 0)
(0.000633644 -0.00019564 0)
(0.00062613 -0.00020166 0)
(0.000635036 -0.000218924 0)
(0.000626446 -0.000224634 0)
(0.000633989 -0.000239369 0)
(0.000624307 -0.000244904 0)
(0.000630456 -0.000256965 0)
(0.000619666 -0.00026246 0)
(0.000624428 -0.000271762 0)
(0.00061252 -0.00027735 0)
(0.000615945 -0.000283883 0)
(0.000602919 -0.000289685 0)
(0.000605116 -0.000293528 0)
(0.000590992 -0.000299648 0)
(0.000592121 -0.00030098 0)
(0.000576963 -0.000307512 0)
(0.000577235 -0.000306612 0)
(0.000561137 -0.000313629 0)
(0.000560798 -0.000310842 0)
(0.000543879 -0.000318392 0)
(0.000543189 -0.000314101 0)
(0.000525588 -0.000322211 0)
(0.000524793 -0.000316786 0)
(0.000506656 -0.00032546 0)
(0.000505962 -0.000319225 0)
(0.000487428 -0.000328445 0)
(0.00048699 -0.000321656 0)
(0.000468181 -0.000331393 0)
(0.000468105 -0.000324233 0)
(0.000449125 -0.000334446 0)
(0.000449471 -0.000327036 0)
(0.000430405 -0.000337679 0)
(0.000431198 -0.00033009 0)
(0.000412124 -0.000341118 0)
(0.000413362 -0.000333386 0)
(0.000394348 -0.000344757 0)
(0.000396018 -0.000336904 0)
(0.000377124 -0.000348576 0)
(0.00037921 -0.000340619 0)
(0.000360489 -0.00035255 0)
(0.000362972 -0.000344503 0)
(0.000344473 -0.000356655 0)
(0.000347325 -0.000348524 0)
(0.000329093 -0.000360858 0)
(0.000332281 -0.000352647 0)
(0.000314356 -0.000365125 0)
(0.000317847 -0.000356835 0)
(0.000300266 -0.000369422 0)
(0.00030402 -0.000361054 0)
(0.000286817 -0.000373722 0)
(0.000290804 -0.000365279 0)
(0.000274004 -0.000377995 0)
(0.000278206 -0.000369492 0)
(0.000261825 -0.000382219 0)
(0.000266212 -0.000373664 0)
(0.000250269 -0.000386372 0)
(0.000254804 -0.000377766 0)
(0.000239317 -0.000390427 0)
(0.000243968 -0.000381773 0)
(0.000228943 -0.00039436 0)
(0.00023369 -0.00038567 0)
(0.000219135 -0.000398163 0)
(0.000223925 -0.000389425 0)
(0.000209841 -0.000401798 0)
(0.000214668 -0.000393033 0)
(0.000201022 -0.000405235 0)
(0.000205865 -0.000396434 0)
(0.000593642 -2.09621e-05 0)
(0.000608685 -4.92687e-05 0)
(0.00060817 -5.83536e-05 0)
(0.000622227 -8.55339e-05 0)
(0.000620725 -9.35584e-05 0)
(0.000633704 -0.000119326 0)
(0.000631213 -0.000126443 0)
(0.000642996 -0.000150376 0)
(0.000639548 -0.00015665 0)
(0.000650027 -0.000178477 0)
(0.000645639 -0.00018401 0)
(0.000654721 -0.000203499 0)
(0.000649384 -0.000208391 0)
(0.000657001 -0.000225343 0)
(0.00065071 -0.000229716 0)
(0.000656811 -0.000243959 0)
(0.000649551 -0.00024795 0)
(0.000654123 -0.000259367 0)
(0.000645872 -0.000263119 0)
(0.00064895 -0.000271669 0)
(0.000639679 -0.000275324 0)
(0.000641358 -0.000281056 0)
(0.000631032 -0.000284753 0)
(0.000631466 -0.000287812 0)
(0.000620075 -0.000291698 0)
(0.000619469 -0.000292328 0)
(0.000607043 -0.000296549 0)
(0.000605661 -0.000295097 0)
(0.000592245 -0.000299769 0)
(0.000590376 -0.000296633 0)
(0.000576069 -0.000301856 0)
(0.000573991 -0.000297439 0)
(0.000558909 -0.000303278 0)
(0.000556867 -0.000297944 0)
(0.00054113 -0.000304431 0)
(0.000539317 -0.000298469 0)
(0.000523037 -0.000305607 0)
(0.000521584 -0.000299217 0)
(0.000504862 -0.000306992 0)
(0.000503848 -0.000300304 0)
(0.000486764 -0.000308685 0)
(0.00048623 -0.000301773 0)
(0.00046886 -0.000310721 0)
(0.000468817 -0.000303622 0)
(0.000451232 -0.000313096 0)
(0.00045167 -0.000305828 0)
(0.000433941 -0.000315784 0)
(0.000434849 -0.00030836 0)
(0.000417042 -0.000318755 0)
(0.000418407 -0.000311192 0)
(0.000400585 -0.00032198 0)
(0.000402389 -0.000314291 0)
(0.000384611 -0.000325429 0)
(0.000386828 -0.00031762 0)
(0.000369147 -0.000329064 0)
(0.000371746 -0.000321136 0)
(0.00035421 -0.000332845 0)