/*--------------------------------*- C++ -*----------------------------------*\
| =========                 |                                                 |
| \\      /  F ield         | OpenFOAM: The Open Source CFD Toolbox           |
|  \\    /   O peration     | Version:  v2012                                 |
|   \\  /    A nd           | Website:  www.openfoam.com                      |
|    \\/     M anipulation  |                                                 |
\*---------------------------------------------------------------------------*/
FoamFile
{
    version     2.0;
    format      ascii;
    class       volScalarField;
    location    "20";
    object      sigmaEq;
}
// * * * * * * * * * * * * * * * * * * * * * * * * * * * * * * * * * * * * * //

dimensions      [1 -1 -2 0 0 0 0];


internalField   nonuniform List<scalar> 
32000
(
2.43e+08
2.43e+08
2.42728e+08
2.43e+08
2.25617e+08
2.27205e+08
2.08505e+08
2.10417e+08
1.92332e+08
1.94595e+08
1.77394e+08
1.79992e+08
1.63638e+08
1.66495e+08
1.50963e+08
1.54006e+08
1.39288e+08
1.42468e+08
1.28546e+08
1.31822e+08
1.18674e+08
1.2201e+08
1.09612e+08
1.12974e+08
1.01304e+08
1.04662e+08
9.36882e+07
9.70042e+07
8.67086e+07
8.99513e+07
8.0318e+07
8.34547e+07
7.44487e+07
7.74504e+07
6.90493e+07
7.18885e+07
6.40794e+07
6.67253e+07
5.94666e+07
6.18941e+07
5.51658e+07
5.73515e+07
5.11581e+07
5.30702e+07
4.73795e+07
4.89869e+07
4.3822e+07
4.50962e+07
4.0502e+07
4.14147e+07
3.74383e+07
3.7954e+07
3.47369e+07
3.48224e+07
3.24941e+07
3.21408e+07
3.08843e+07
3.01086e+07
3.00804e+07
2.89473e+07
3.01952e+07
2.88151e+07
3.12469e+07
2.97569e+07
3.31138e+07
3.16388e+07
3.56033e+07
3.42466e+07
3.84917e+07
3.72948e+07
4.1617e+07
4.06205e+07
4.46883e+07
4.39992e+07
4.7658e+07
4.72041e+07
4.73905e+07
4.85923e+07
4.40996e+07
4.52569e+07
2.43e+08
2.43e+08
2.43e+08
2.42273e+08
2.25861e+08
2.26004e+08
2.08354e+08
2.0917e+08
1.92062e+08
1.93357e+08
1.77151e+08
1.78786e+08
1.63448e+08
1.65349e+08
1.50834e+08
1.52932e+08
1.39244e+08
1.41463e+08
1.28615e+08
1.30875e+08
1.18887e+08
1.21112e+08
1.10002e+08
1.12123e+08
1.01905e+08
1.03854e+08
9.45259e+07
9.62431e+07
8.78016e+07
8.9241e+07
8.16851e+07
8.28013e+07
7.61103e+07
7.68673e+07
7.10022e+07
7.13793e+07
6.63144e+07
6.62966e+07
6.199e+07
6.15686e+07
5.79599e+07
5.71385e+07
5.41937e+07
5.29735e+07
5.06464e+07
4.90377e+07
4.72957e+07
4.53083e+07
4.41726e+07
4.17991e+07
4.12873e+07
3.8537e+07
3.87259e+07
3.56035e+07
3.65942e+07
3.31196e+07
3.50247e+07
3.12382e+07
3.41692e+07
3.01463e+07
3.40963e+07
2.9961e+07
3.48235e+07
3.07209e+07
3.62609e+07
3.23371e+07
3.82549e+07
3.46515e+07
4.06061e+07
3.74124e+07
4.31226e+07
4.04895e+07
4.56743e+07
4.37443e+07
4.83384e+07
4.69714e+07
4.89049e+07
4.92013e+07
4.60052e+07
4.64666e+07
2.43e+08
2.43e+08
2.42798e+08
2.4198e+08
2.25494e+08
2.24888e+08
2.08033e+08
2.07853e+08
1.91772e+08
1.92198e+08
1.76941e+08
1.77867e+08
1.63359e+08
1.64662e+08
1.50878e+08
1.5247e+08
1.39412e+08
1.41226e+08
1.28903e+08
1.3087e+08
1.19288e+08
1.21335e+08
1.10508e+08
1.12565e+08
1.02513e+08
1.04514e+08
9.52519e+07
9.71326e+07
8.86559e+07
9.03584e+07
8.26569e+07
8.41399e+07
7.72038e+07
7.84337e+07
7.22283e+07
7.3176e+07
6.76571e+07
6.83067e+07
6.34396e+07
6.3783e+07
5.95162e+07
5.95395e+07
5.58331e+07
5.55236e+07
5.23748e+07
5.17052e+07
4.91153e+07
4.80429e+07
4.6071e+07
4.45417e+07
4.32976e+07
4.12375e+07
4.08517e+07
3.81756e+07
3.88426e+07
3.54791e+07
3.73625e+07
3.32939e+07
3.65131e+07
3.17961e+07
3.63299e+07
3.11325e+07
3.68069e+07
3.1382e+07
3.78699e+07
3.2499e+07
3.94104e+07
3.4371e+07
4.12852e+07
3.67669e+07
4.34118e+07
3.95549e+07
4.5667e+07
4.26249e+07
4.80462e+07
4.5944e+07
5.02469e+07
4.90692e+07
4.81759e+07
4.85081e+07
2.43e+08
2.43e+08
2.41989e+08
2.40324e+08
2.23767e+08
2.22907e+08
2.06208e+08
2.05849e+08
1.90179e+08
1.9035e+08
1.75642e+08
1.76271e+08
1.62349e+08
1.63363e+08
1.5015e+08
1.51484e+08
1.38966e+08
1.40556e+08
1.28736e+08
1.30516e+08
1.19406e+08
1.21313e+08
1.10919e+08
1.12889e+08
1.03214e+08
1.0518e+08
9.62322e+07
9.8138e+07
8.99227e+07
9.17202e+07
8.42195e+07
8.58591e+07
7.90444e+07
8.04813e+07
7.43306e+07
7.55421e+07
7.00185e+07
7.09766e+07
6.60255e+07
6.66872e+07
6.22884e+07
6.26268e+07
5.87727e+07
5.87394e+07
5.54327e+07
5.49584e+07
5.22646e+07
5.12724e+07
4.92784e+07
4.76643e+07
4.65098e+07
4.41677e+07
4.40228e+07
4.08669e+07
4.18941e+07
3.78694e+07
4.0205e+07
3.53392e+07
3.9019e+07
3.34336e+07
3.83763e+07
3.23109e+07
3.82897e+07
3.20535e+07
3.87271e+07
3.26438e+07
3.96425e+07
3.40024e+07
4.09503e+07
3.59317e+07
4.26246e+07
3.83471e+07
4.45458e+07
4.11039e+07
4.69062e+07
4.42929e+07
4.93708e+07
4.74473e+07
5.01045e+07
4.99795e+07
2.43e+08
2.43e+08
2.40028e+08
2.37682e+08
2.213e+08
2.19981e+08
2.03614e+08
2.03095e+08
1.87728e+08
1.87901e+08
1.73454e+08
1.74134e+08
1.60472e+08
1.61552e+08
1.48616e+08
1.5003e+08
1.37795e+08
1.39487e+08
1.2794e+08
1.29851e+08
1.18989e+08
1.21056e+08
1.10886e+08
1.13052e+08
1.03578e+08
1.05791e+08
9.70029e+07
9.92102e+07
9.10852e+07
9.32253e+07
8.5747e+07
8.77751e+07
8.09258e+07
8.28013e+07
7.65388e+07
7.82004e+07
7.24888e+07
7.38758e+07
6.87079e+07
6.97676e+07
6.51384e+07
6.5787e+07
6.17145e+07
6.18643e+07
5.84166e+07
5.79717e+07
5.52348e+07
5.40773e+07
5.21826e+07
5.02125e+07
4.93015e+07
4.64371e+07
4.6648e+07
4.28447e+07
4.42818e+07
3.95728e+07
4.22803e+07
3.67735e+07
4.07008e+07
3.4603e+07
3.96056e+07
3.31874e+07
3.90279e+07
3.25986e+07
3.89658e+07
3.2813e+07
3.94103e+07
3.37655e+07
4.03009e+07
3.53124e+07
4.16117e+07
3.73388e+07
4.329e+07
3.97579e+07
4.53428e+07
4.25335e+07
4.78488e+07
4.56424e+07
5.03016e+07
4.84133e+07
2.43e+08
2.43e+08
2.36878e+08
2.3386e+08
2.1798e+08
2.16172e+08
2.00387e+08
1.99687e+08
1.8473e+08
1.84919e+08
1.70721e+08
1.71546e+08
1.58041e+08
1.59353e+08
1.46527e+08
1.48232e+08
1.36081e+08
1.38109e+08
1.26634e+08
1.28923e+08
1.18123e+08
1.20616e+08
1.10482e+08
1.13121e+08
1.03637e+08
1.0636e+08
9.75082e+07
1.00251e+08
9.20204e+07
9.47299e+07
8.70999e+07
8.97094e+07
8.26412e+07
8.50665e+07
7.85329e+07
8.06942e+07
7.46978e+07
7.65125e+07
7.10618e+07
7.24204e+07
6.75412e+07
6.83376e+07
6.41019e+07
6.4227e+07
6.07215e+07
6.00595e+07
5.74013e+07
5.58671e+07
5.41728e+07
5.17078e+07
5.1079e+07
4.76727e+07
4.81753e+07
4.38862e+07
4.55454e+07
4.04901e+07
4.3265e+07
3.76059e+07
4.14037e+07
3.53626e+07
4.00324e+07
3.38397e+07
3.91878e+07
3.3085e+07
3.88657e+07
3.30586e+07
3.90591e+07
3.36939e+07
3.97106e+07
3.49129e+07
4.07707e+07
3.65551e+07
4.22593e+07
3.85974e+07
4.40584e+07
4.10108e+07
4.62626e+07
4.3642e+07
4.865e+07
4.61934e+07
2.43e+08
2.43e+08
2.32447e+08
2.28946e+08
2.1389e+08
2.1163e+08
1.96622e+08
1.9569e+08
1.8127e+08
1.81401e+08
1.6755e+08
1.6847e+08
1.55181e+08
1.56723e+08
1.44019e+08
1.46073e+08
1.33973e+08
1.36454e+08
1.24965e+08
1.27794e+08
1.16916e+08
1.2002e+08
1.09745e+08
1.13048e+08
1.03368e+08
1.06792e+08
9.77001e+07
1.01166e+08
9.26487e+07
9.60624e+07
8.80916e+07
9.1347e+07
8.39056e+07
8.68951e+07
7.99954e+07
8.26075e+07
7.62721e+07
7.83783e+07
7.26391e+07
7.4115e+07
6.90458e+07
6.97797e+07
6.54663e+07
6.53576e+07
6.18943e+07
6.08841e+07
5.83585e+07
5.64269e+07
5.49021e+07
5.20796e+07
5.15879e+07
4.79627e+07
4.85064e+07
4.42015e+07
4.57421e+07
4.08876e+07
4.33644e+07
3.81255e+07
4.1446e+07
3.59876e+07
4.00355e+07
3.44968e+07
3.91397e+07
3.36704e+07
3.87325e+07
3.34673e+07
3.87975e+07
3.38142e+07
3.93089e+07
3.46861e+07
4.01733e+07
3.59908e+07
4.14059e+07
3.76308e+07
4.3056e+07
3.96137e+07
4.48995e+07
4.18665e+07
4.69976e+07
4.39342e+07
2.43e+08
2.40582e+08
2.27368e+08
2.23222e+08
2.09151e+08
2.064e+08
1.92278e+08
1.91038e+08
1.7729e+08
1.77266e+08
1.63916e+08
1.64843e+08
1.51905e+08
1.53622e+08
1.41129e+08
1.43517e+08
1.31498e+08
1.34455e+08
1.22928e+08
1.26357e+08
1.15334e+08
1.19134e+08
1.08624e+08
1.12688e+08
1.02701e+08
1.06909e+08
9.7451e+07
1.01674e+08
9.27439e+07
9.6843e+07
8.84428e+07
9.22754e+07
8.44276e+07
8.78491e+07
8.05912e+07
8.34552e+07
7.68317e+07
7.90032e+07
7.3081e+07
7.44539e+07
6.93114e+07
6.98114e+07
6.55149e+07
6.51196e+07
6.17234e+07
6.04602e+07
5.799e+07
5.59314e+07
5.4393e+07
5.16482e+07
5.10292e+07
4.77155e+07
4.79832e+07
4.42025e+07
4.53174e+07
4.11724e+07
4.30861e+07
3.86731e+07
4.13203e+07
3.6717e+07
4.00239e+07
3.52998e+07
3.91793e+07
3.44223e+07
3.87524e+07
3.40582e+07
3.87248e+07
3.41491e+07
3.90842e+07
3.46844e+07
3.97888e+07
3.56304e+07
4.07884e+07
3.68985e+07
4.2114e+07
3.84568e+07
4.38229e+07
4.0292e+07
4.56009e+07
4.21075e+07
2.42238e+08
2.34988e+08
2.21765e+08
2.17747e+08
2.03728e+08
2.0088e+08
1.8728e+08
1.8581e+08
1.72726e+08
1.72509e+08
1.59773e+08
1.60631e+08
1.48181e+08
1.49987e+08
1.37827e+08
1.40475e+08
1.28622e+08
1.32004e+08
1.20481e+08
1.24476e+08
1.13313e+08
1.17781e+08
1.07014e+08
1.11793e+08
1.0146e+08
1.06373e+08
9.65124e+07
1.01375e+08
9.20261e+07
9.66497e+07
8.7858e+07
9.20584e+07
8.38789e+07
8.74863e+07
7.99794e+07
8.28529e+07
7.60782e+07
7.81208e+07
7.21362e+07
7.331e+07
6.81547e+07
6.8482e+07
6.41741e+07
6.37274e+07
6.0266e+07
5.91505e+07
5.65243e+07
5.48525e+07
5.30463e+07
5.09127e+07
4.99059e+07
4.73766e+07
4.7146e+07
4.42687e+07
4.47905e+07
4.16047e+07
4.28481e+07
3.93868e+07
4.1311e+07
3.76017e+07
4.01598e+07
3.62416e+07
3.93769e+07
3.53086e+07
3.89361e+07
3.47957e+07
3.88253e+07
3.46676e+07
3.90457e+07
3.48984e+07
3.95726e+07
3.55007e+07
4.03621e+07
3.64358e+07
4.14344e+07
3.76142e+07
4.27965e+07
3.90367e+07
4.44319e+07
4.05356e+07
2.37073e+08
2.28909e+08
2.1619e+08
2.11429e+08
1.98034e+08
1.94757e+08
1.81861e+08
1.80058e+08
1.67718e+08
1.67231e+08
1.55207e+08
1.55896e+08
1.44055e+08
1.45832e+08
1.34125e+08
1.36902e+08
1.25325e+08
1.28987e+08
1.17566e+08
1.21963e+08
1.10746e+08
1.15691e+08
1.04746e+08
1.10019e+08
9.9428e+07
1.04793e+08
9.4644e+07
9.98605e+07
9.02402e+07
9.50781e+07
8.60688e+07
9.03266e+07
8.20024e+07
8.5529e+07
7.79475e+07
8.06629e+07
7.38566e+07
7.57603e+07
6.9738e+07
7.08969e+07
6.56469e+07
6.61685e+07
6.16772e+07
6.16773e+07
5.79323e+07
5.75028e+07
5.44967e+07
5.36937e+07
5.14214e+07
5.02666e+07
4.87203e+07
4.72148e+07
4.63844e+07
4.45291e+07
4.44021e+07
4.22013e+07
4.27592e+07
4.02161e+07
4.14332e+07
3.85668e+07
4.04101e+07
3.72518e+07
3.96804e+07
3.6274e+07
3.92281e+07
3.56366e+07
3.90471e+07
3.53247e+07
3.914e+07
3.53178e+07
3.9494e+07
3.56057e+07
4.01074e+07
3.62026e+07
4.09404e+07
3.70892e+07
4.2048e+07
3.8159e+07
4.33719e+07
3.92923e+07
2.30168e+08
2.21767e+08
2.09781e+08
2.0445e+08
1.91876e+08
1.88105e+08
1.76063e+08
1.73821e+08
1.62339e+08
1.61473e+08
1.50267e+08
1.50658e+08
1.39543e+08
1.41121e+08
1.30012e+08
1.32693e+08
1.21569e+08
1.25227e+08
1.14111e+08
1.18565e+08
1.07524e+08
1.12549e+08
1.01685e+08
1.07018e+08
9.64572e+07
1.01818e+08
9.16916e+07
9.68065e+07
8.72357e+07
9.18685e+07
8.29441e+07
8.69349e+07
7.87045e+07
8.19914e+07
7.44642e+07
7.70843e+07
7.02406e+07
7.22941e+07
6.61143e+07
6.77176e+07
6.21948e+07
6.34375e+07
5.85759e+07
5.95034e+07
5.53163e+07
5.5934e+07
5.24314e+07
5.27143e+07
4.98996e+07
4.98143e+07
4.76865e+07
4.7212e+07
4.57685e+07
4.48939e+07
4.41269e+07
4.28442e+07
4.27414e+07
4.10582e+07
4.15989e+07
3.95341e+07
4.06917e+07
3.82681e+07
4.00138e+07
3.72675e+07
3.9559e+07
3.65452e+07
3.9328e+07
3.60908e+07
3.93181e+07
3.58893e+07
3.95197e+07
3.59256e+07
3.99403e+07
3.62283e+07
4.05975e+07
3.68094e+07
4.14709e+07
3.7601e+07
4.25408e+07
3.84243e+07
2.22354e+08
2.13814e+08
2.02596e+08
1.96844e+08
1.85127e+08
1.80934e+08
1.69777e+08
1.67106e+08
1.56511e+08
1.55224e+08
1.44883e+08
1.44869e+08
1.34578e+08
1.35765e+08
1.25423e+08
1.27718e+08
1.17286e+08
1.20542e+08
1.10047e+08
1.14065e+08
1.03591e+08
1.08127e+08
9.78006e+07
1.02577e+08
9.25503e+07
9.72816e+07
8.76912e+07
9.2128e+07
8.30619e+07
8.70559e+07
7.85429e+07
8.20701e+07
7.40907e+07
7.72251e+07
6.97498e+07
7.26052e+07
6.5627e+07
6.82883e+07
6.18331e+07
6.43255e+07
5.8433e+07
6.07342e+07
5.54414e+07
5.7497e+07
5.28287e+07
5.45682e+07
5.05402e+07
5.19013e+07
4.85238e+07
4.94677e+07
4.67487e+07
4.72538e+07
4.51965e+07
4.52496e+07
4.38507e+07
4.34486e+07
4.26979e+07
4.1845e+07
4.17271e+07
4.04347e+07
4.0932e+07
3.92261e+07
4.03139e+07
3.82392e+07
3.98765e+07
3.74729e+07
3.9616e+07
3.69106e+07
3.95204e+07
3.65523e+07
3.95962e+07
3.64037e+07
3.9867e+07
3.64707e+07
4.03503e+07
3.67876e+07
4.10291e+07
3.7331e+07
4.18857e+07
3.7895e+07
2.13706e+08
2.05148e+08
1.94627e+08
1.88642e+08
1.77697e+08
1.73241e+08
1.62865e+08
1.59881e+08
1.50078e+08
1.48419e+08
1.38905e+08
1.3844e+08
1.29025e+08
1.29647e+08
1.20237e+08
1.21822e+08
1.12389e+08
1.14781e+08
1.05356e+08
1.08358e+08
9.90192e+07
1.02399e+08
9.32545e+07
9.6759e+07
8.79118e+07
9.13305e+07
8.28299e+07
8.608e+07
7.7897e+07
8.10347e+07
7.31039e+07
7.62601e+07
6.85553e+07
7.18444e+07
6.43978e+07
6.78473e+07
6.07298e+07
6.42754e+07
5.75675e+07
6.10975e+07
5.48662e+07
5.82523e+07
5.25495e+07
5.56685e+07
5.05357e+07
5.32934e+07
4.87609e+07
5.11011e+07
4.71905e+07
4.90804e+07
4.58045e+07
4.72217e+07
4.45859e+07
4.55151e+07
4.35164e+07
4.395e+07
4.25794e+07
4.2522e+07
4.17681e+07
4.12451e+07
4.10902e+07
4.01357e+07
4.0556e+07
3.91896e+07
4.01535e+07
3.83937e+07
3.98706e+07
3.77554e+07
3.97151e+07
3.72871e+07
3.97029e+07
3.69984e+07
3.98468e+07
3.68828e+07
4.01812e+07
3.69908e+07
4.07139e+07
3.7304e+07
4.13982e+07
3.76539e+07
2.04311e+08
1.95827e+08
1.85882e+08
1.79843e+08
1.69505e+08
1.64974e+08
1.5519e+08
1.52056e+08
1.42874e+08
1.40943e+08
1.32149e+08
1.31233e+08
1.22699e+08
1.2264e+08
1.14319e+08
1.1496e+08
1.06845e+08
1.0801e+08
1.00121e+08
1.01614e+08
9.39834e+07
9.56094e+07
8.82294e+07
8.98798e+07
8.26729e+07
8.441e+07
7.72369e+07
7.92488e+07
7.1988e+07
7.44929e+07
6.7141e+07
7.02408e+07
6.28791e+07
6.65309e+07
5.92699e+07
6.33254e+07
5.62657e+07
6.05427e+07
5.3765e+07
5.80839e+07
5.16619e+07
5.58627e+07
4.98692e+07
5.38236e+07
4.83189e+07
5.19374e+07
4.69689e+07
5.01877e+07
4.57903e+07
4.85585e+07
4.47553e+07
4.70332e+07
4.38375e+07
4.5597e+07
4.30137e+07
4.42468e+07
4.22764e+07
4.3e+07
4.16351e+07
4.18743e+07
4.10949e+07
4.08665e+07
4.06444e+07
3.99628e+07
4.02731e+07
3.91716e+07
3.99917e+07
3.851e+07
3.98144e+07
3.79848e+07
3.97473e+07
3.75945e+07
3.98075e+07
3.7355e+07
4.00379e+07
3.73163e+07
4.04468e+07
3.74743e+07
4.10047e+07
3.76491e+07
1.94187e+08
1.8585e+08
1.76354e+08
1.70385e+08
1.60482e+08
1.56011e+08
1.4664e+08
1.43468e+08
1.34758e+08
1.32623e+08
1.24475e+08
1.23126e+08
1.15511e+08
1.14726e+08
1.07643e+08
1.07209e+08
1.0066e+08
1.00348e+08
9.43112e+07
9.39405e+07
8.83302e+07
8.7873e+07
8.24583e+07
8.21656e+07
7.66267e+07
7.69012e+07
7.10094e+07
7.21987e+07
6.59433e+07
6.81373e+07
6.15986e+07
6.47087e+07
5.79819e+07
6.183e+07
5.5005e+07
5.93752e+07
5.25426e+07
5.72178e+07
5.04675e+07
5.52832e+07
4.87358e+07
5.35381e+07
4.73051e+07
5.19569e+07
4.61248e+07
5.05096e+07
4.51436e+07
4.9154e+07
4.43011e+07
4.78602e+07
4.35642e+07
4.66099e+07
4.29004e+07
4.54045e+07
4.22965e+07
4.42717e+07
4.17617e+07
4.32244e+07
4.12935e+07
4.22483e+07
4.0876e+07
4.133e+07
4.04989e+07
4.04849e+07
4.0177e+07
3.97366e+07
3.99256e+07
3.90912e+07
3.97472e+07
3.85457e+07
3.96448e+07
3.81126e+07
3.96485e+07
3.78136e+07
3.98104e+07
3.76946e+07
4.01552e+07
3.77404e+07
4.06202e+07
3.77972e+07
1.83302e+08
1.75156e+08
1.66026e+08
1.60149e+08
1.50589e+08
1.46183e+08
1.37158e+08
1.33941e+08
1.25684e+08
1.23342e+08
1.15887e+08
1.14092e+08
1.07469e+08
1.05894e+08
1.00156e+08
9.84344e+07
9.35996e+07
9.1479e+07
8.73586e+07
8.50109e+07
8.11415e+07
7.91206e+07
7.52793e+07
7.39508e+07
6.97375e+07
6.95829e+07
6.49259e+07
6.59582e+07
6.08911e+07
6.2929e+07
5.74695e+07
6.03511e+07
5.45236e+07
5.81109e+07
5.2e+07
5.61404e+07
4.98943e+07
5.4392e+07
4.79998e+07
5.2851e+07
4.64353e+07
5.1511e+07
4.52149e+07
5.0333e+07
4.42776e+07
4.92221e+07
4.35063e+07
4.81348e+07
4.28361e+07
4.707e+07
4.22789e+07
4.6034e+07
4.17879e+07
4.50611e+07
4.13767e+07
4.41422e+07
4.10196e+07
4.32462e+07
4.06867e+07
4.23601e+07
4.03567e+07
4.1513e+07
4.00557e+07
4.07406e+07
3.98013e+07
4.00466e+07
3.95913e+07
3.94204e+07
3.94251e+07
3.88664e+07
3.93214e+07
3.84117e+07
3.93161e+07
3.80973e+07
3.94546e+07
3.79475e+07
3.97497e+07
3.794e+07
4.01547e+07
3.79367e+07
1.7161e+08
1.63684e+08
1.54906e+08
1.4902e+08
1.39805e+08
1.35355e+08
1.26699e+08
1.23382e+08
1.15646e+08
1.13048e+08
1.06354e+08
1.03968e+08
9.84814e+07
9.57648e+07
9.1532e+07
8.83377e+07
8.50196e+07
8.17501e+07
7.83582e+07
7.62112e+07
7.21923e+07
7.19051e+07
6.73989e+07
6.81034e+07
6.35698e+07
6.47122e+07
6.03372e+07
6.17855e+07
5.75075e+07
5.92183e+07
5.49683e+07
5.6933e+07
5.26225e+07
5.4865e+07
5.03915e+07
5.29753e+07
4.83604e+07
5.14753e+07
4.6713e+07
5.03668e+07
4.53368e+07
4.93565e+07
4.413e+07
4.83688e+07
4.311e+07
4.74724e+07
4.23489e+07
4.66207e+07
4.16946e+07
4.58129e+07
4.1177e+07
4.51089e+07
4.08008e+07
4.44302e+07
4.05054e+07
4.37098e+07
4.02301e+07
4.29552e+07
3.9949e+07
4.21965e+07
3.96972e+07
4.1493e+07
3.94869e+07
4.08328e+07
3.92985e+07
4.0195e+07
3.91171e+07
3.9582e+07
3.89547e+07
3.90302e+07
3.88511e+07
3.85898e+07
3.88472e+07
3.82814e+07
3.89629e+07
3.8103e+07
3.92085e+07
3.80492e+07
3.95584e+07
3.80275e+07
1.59104e+08
1.51444e+08
1.42944e+08
1.36994e+08
1.27999e+08
1.23554e+08
1.15189e+08
1.11809e+08
1.04619e+08
1.01605e+08
9.60629e+07
9.27908e+07
8.89072e+07
8.53942e+07
8.13437e+07
7.98322e+07
7.53678e+07
7.58088e+07
7.06651e+07
7.12896e+07
6.65845e+07
6.74805e+07
6.2973e+07
6.42999e+07
5.97432e+07
6.13837e+07
5.68586e+07
5.86825e+07
5.43001e+07
5.62169e+07
5.20567e+07
5.39979e+07
5.01204e+07
5.20404e+07
4.84736e+07
5.03834e+07
4.70891e+07
4.88409e+07
4.59047e+07
4.74646e+07
4.48137e+07
4.63246e+07
4.37423e+07
4.53335e+07
4.26342e+07
4.44623e+07
4.15253e+07
4.41079e+07
4.07896e+07
4.37222e+07
4.02038e+07
4.32637e+07
3.9748e+07
4.27419e+07
3.93947e+07
4.2224e+07
3.91103e+07
4.16852e+07
3.8875e+07
4.12242e+07
3.87024e+07
4.07627e+07
3.85477e+07
4.02497e+07
3.83788e+07
3.96901e+07
3.82056e+07
3.91461e+07
3.80779e+07
3.86987e+07
3.80257e+07
3.83461e+07
3.80482e+07
3.80661e+07
3.81481e+07
3.78783e+07
3.83502e+07
3.78085e+07
3.86626e+07
3.78077e+07
1.45683e+08
1.38478e+08
1.29942e+08
1.24186e+08
1.15206e+08
1.10867e+08
1.03085e+08
9.9433e+07
9.38851e+07
9.02201e+07
8.5739e+07
8.41789e+07
8.00743e+07
8.00854e+07
7.51448e+07
7.5049e+07
7.07444e+07
7.12064e+07
6.67391e+07
6.76989e+07
6.30956e+07
6.43654e+07
5.97829e+07
6.12803e+07
5.67754e+07
5.84488e+07
5.4059e+07
5.58514e+07
5.16263e+07
5.34803e+07
4.94706e+07
5.13408e+07
4.7585e+07
4.94411e+07
4.59615e+07
4.7771e+07
4.45735e+07
4.62652e+07
4.33801e+07
4.49023e+07
4.23653e+07
4.3717e+07
4.15465e+07
4.273e+07
4.09508e+07
4.19451e+07
4.05164e+07
4.11493e+07
4.00503e+07
4.05725e+07
3.95176e+07
4.01204e+07
3.8923e+07
3.97987e+07
3.83082e+07
3.97766e+07
3.78359e+07
3.96006e+07
3.75132e+07
3.93372e+07
3.7299e+07
3.8999e+07
3.71416e+07
3.86218e+07
3.70152e+07
3.82633e+07
3.6892e+07
3.80062e+07
3.68236e+07
3.77647e+07
3.68137e+07
3.75184e+07
3.68278e+07
3.72821e+07
3.68862e+07
3.71128e+07
3.70422e+07
3.70764e+07
3.7317e+07
3.71282e+07
1.31414e+08
1.24794e+08
1.16299e+08
1.10751e+08
1.02468e+08
9.79615e+07
9.21729e+07
8.85981e+07
8.54547e+07
8.46774e+07
8.02616e+07
7.93157e+07
7.55531e+07
7.51475e+07
7.1245e+07
7.1335e+07
6.7288e+07
6.77437e+07
6.35959e+07
6.43995e+07
6.01531e+07
6.12778e+07
5.69727e+07
5.83581e+07
5.40661e+07
5.56433e+07
5.14363e+07
5.31413e+07
4.90803e+07
5.0857e+07
4.69912e+07
4.87914e+07
4.51586e+07
4.69379e+07
4.35661e+07
4.52718e+07
4.21912e+07
4.37745e+07
4.10089e+07
4.24415e+07
4.0001e+07
4.12803e+07
3.91612e+07
4.03001e+07
3.84827e+07
3.94881e+07
3.79266e+07
3.87304e+07
3.74485e+07
3.8073e+07
3.7073e+07
3.75363e+07
3.68583e+07
3.7128e+07
3.6779e+07
3.67636e+07
3.65992e+07
3.65422e+07
3.63309e+07
3.64167e+07
3.60057e+07
3.63873e+07
3.56389e+07
3.63993e+07
3.53041e+07
3.62821e+07
3.51401e+07
3.61268e+07
3.50641e+07
3.59591e+07
3.50427e+07
3.58023e+07
3.50789e+07
3.56888e+07
3.51781e+07
3.56958e+07
3.53715e+07
3.57929e+07
3.56358e+07
3.59403e+07
1.17781e+08
1.1065e+08
1.03458e+08
9.74811e+07
9.17423e+07
8.97845e+07
8.58715e+07
8.3535e+07
8.06887e+07
7.89116e+07
7.60788e+07
7.49471e+07
7.18412e+07
7.12091e+07
6.78518e+07
6.77064e+07
6.40957e+07
6.43845e+07
6.05759e+07
6.12387e+07
5.72962e+07
5.82807e+07
5.42618e+07
5.55115e+07
5.14775e+07
5.29297e+07
4.89462e+07
5.05384e+07
4.66663e+07
4.83416e+07
4.46318e+07
4.63392e+07
4.28326e+07
4.45242e+07
4.12549e+07
4.28836e+07
3.98827e+07
4.14097e+07
3.87e+07
4.01017e+07
3.76936e+07
3.89582e+07
3.68506e+07
3.79681e+07
3.61509e+07
3.71042e+07
3.55693e+07
3.63504e+07
3.50856e+07
3.57085e+07
3.4696e+07
3.51874e+07
3.43968e+07
3.47759e+07
3.41555e+07
3.43948e+07
3.39452e+07
3.40757e+07
3.37963e+07
3.38274e+07
3.37583e+07
3.36548e+07
3.38045e+07
3.35616e+07
3.37654e+07
3.35541e+07
3.36842e+07
3.3616e+07
3.36023e+07
3.37484e+07
3.35211e+07
3.38634e+07
3.33929e+07
3.39101e+07
3.33414e+07
3.39846e+07
3.34269e+07
3.41157e+07
3.3597e+07
3.42876e+07
1.05206e+08
9.72838e+07
9.38342e+07
9.00489e+07
8.64507e+07
8.34217e+07
8.07414e+07
7.85583e+07
7.61684e+07
7.4472e+07
7.2054e+07
7.08484e+07
6.81773e+07
6.74593e+07
6.44868e+07
6.42369e+07
6.09798e+07
6.11617e+07
5.76675e+07
5.82293e+07
5.4563e+07
5.54452e+07
5.16768e+07
5.28181e+07
4.90157e+07
5.03557e+07
4.65825e+07
4.80638e+07
4.43766e+07
4.59454e+07
4.23937e+07
4.40004e+07
4.0626e+07
4.22247e+07
3.90633e+07
4.06134e+07
3.76937e+07
3.91628e+07
3.65046e+07
3.78701e+07
3.54834e+07
3.67292e+07
3.46164e+07
3.5728e+07
3.38879e+07
3.48507e+07
3.32816e+07
3.40908e+07
3.27841e+07
3.34443e+07
3.23849e+07
3.29024e+07
3.20686e+07
3.24479e+07
3.18165e+07
3.20659e+07
3.16159e+07
3.17569e+07
3.14636e+07
3.15213e+07
3.1351e+07
3.1341e+07
3.1256e+07
3.11954e+07
3.11747e+07
3.11017e+07
3.1134e+07
3.10608e+07
3.11643e+07
3.10768e+07
3.12794e+07
3.11544e+07
3.13774e+07
3.129e+07
3.14584e+07
3.14923e+07
3.15634e+07
3.17875e+07
3.17019e+07
3.22292e+07
9.40797e+07
8.90226e+07
8.73052e+07
8.31319e+07
8.11266e+07
7.81281e+07
7.61697e+07
7.4045e+07
7.19933e+07
7.04585e+07
6.82194e+07
6.71462e+07
6.46661e+07
6.40192e+07
6.12701e+07
6.10335e+07
5.802e+07
5.81689e+07
5.49246e+07
5.54205e+07
5.19993e+07
5.27933e+07
4.92588e+07
5.02972e+07
4.67136e+07
4.79425e+07
4.437e+07
4.57376e+07
4.22296e+07
4.36876e+07
4.02905e+07
4.1794e+07
3.85479e+07
4.00561e+07
3.69948e+07
3.84719e+07
3.56228e+07
3.7039e+07
3.4422e+07
3.57536e+07
3.33816e+07
3.46091e+07
3.24896e+07
3.35968e+07
3.17328e+07
3.27075e+07
3.10978e+07
3.19347e+07
3.05721e+07
3.12712e+07
3.0143e+07
3.07069e+07
2.97974e+07
3.02287e+07
2.95221e+07
2.98289e+07
2.93063e+07
2.9501e+07
2.91414e+07
2.92382e+07
2.90173e+07
2.90316e+07
2.89252e+07
2.88757e+07
2.88635e+07
2.87731e+07
2.88331e+07
2.87225e+07
2.88282e+07
2.87071e+07
2.88337e+07
2.87186e+07
2.88484e+07
2.87654e+07
2.88924e+07
2.88441e+07
2.89909e+07
2.89521e+07
2.91694e+07
2.91795e+07
8.4557e+07
8.22027e+07
8.04783e+07
7.74258e+07
7.58981e+07
7.32687e+07
7.1847e+07
6.97945e+07
6.81913e+07
6.66841e+07
6.47653e+07
6.37357e+07
6.14895e+07
6.08815e+07
5.83364e+07
5.8109e+07
5.53026e+07
5.54213e+07
5.23968e+07
5.28258e+07
4.9633e+07
5.03323e+07
4.70254e+07
4.79517e+07
4.45862e+07
4.56943e+07
4.23232e+07
4.35689e+07
4.02408e+07
4.15818e+07
3.83396e+07
3.97362e+07
3.66173e+07
3.80335e+07
3.50696e+07
3.64732e+07
3.36906e+07
3.50535e+07
3.24726e+07
3.37712e+07
3.14069e+07
3.26208e+07
3.04837e+07
3.15962e+07
2.96922e+07
3.06908e+07
2.90213e+07
2.98981e+07
2.84594e+07
2.92102e+07
2.79946e+07
2.86183e+07
2.76147e+07
2.81132e+07
2.73082e+07
2.76871e+07
2.70643e+07
2.7333e+07
2.68737e+07
2.70431e+07
2.67275e+07
2.681e+07
2.66184e+07
2.66279e+07
2.65403e+07
2.64913e+07
2.64884e+07
2.6394e+07
2.64582e+07
2.63295e+07
2.64464e+07
2.62939e+07
2.64558e+07
2.62879e+07
2.64924e+07
2.63125e+07
2.65644e+07
2.63693e+07
2.66873e+07
2.64777e+07
7.79704e+07
7.60857e+07
7.47711e+07
7.23915e+07
7.11175e+07
6.89729e+07
6.7773e+07
6.59644e+07
6.46303e+07
6.3203e+07
6.15826e+07
6.05535e+07
5.85956e+07
5.7955e+07
5.56734e+07
5.53944e+07
5.28326e+07
5.28805e+07
5.00918e+07
5.04296e+07
4.74689e+07
4.8059e+07
4.49796e+07
4.57836e+07
4.26361e+07
4.36159e+07
4.04475e+07
4.15653e+07
3.84192e+07
3.96385e+07
3.65536e+07
3.78399e+07
3.48503e+07
3.61716e+07
3.3307e+07
3.46342e+07
3.19196e+07
3.32267e+07
3.06825e+07
3.19465e+07
2.9589e+07
3.07898e+07
2.86313e+07
2.9752e+07
2.78006e+07
2.88278e+07
2.70874e+07
2.80113e+07
2.64816e+07
2.72956e+07
2.59727e+07
2.66734e+07
2.55499e+07
2.61371e+07
2.52028e+07
2.56794e+07
2.49211e+07
2.52928e+07
2.46954e+07
2.49699e+07
2.4517e+07
2.47036e+07
2.43782e+07
2.44875e+07
2.42729e+07
2.43154e+07
2.41963e+07
2.41813e+07
2.4145e+07
2.40801e+07
2.41171e+07
2.40071e+07
2.41112e+07
2.39565e+07
2.41273e+07
2.39251e+07
2.4175e+07
2.39233e+07
2.42759e+07
2.39959e+07
7.23336e+07
7.08423e+07
6.98802e+07
6.78736e+07
6.6901e+07
6.50546e+07
6.40649e+07
6.24689e+07
6.1323e+07
6.00166e+07
5.86074e+07
5.76169e+07
5.58978e+07
5.52349e+07
5.32061e+07
5.28651e+07
5.05569e+07
5.05175e+07
4.79763e+07
4.82098e+07
4.54878e+07
4.59612e+07
4.31103e+07
4.37897e+07
4.08583e+07
4.17099e+07
3.8742e+07
3.97328e+07
3.67681e+07
3.78663e+07
3.49398e+07
3.61153e+07
3.32583e+07
3.44829e+07
3.17226e+07
3.29701e+07
3.03299e+07
3.15765e+07
2.90764e+07
3.03005e+07
2.79569e+07
2.91394e+07
2.69654e+07
2.80898e+07
2.6095e+07
2.71474e+07
2.53377e+07
2.63073e+07
2.46853e+07
2.55639e+07
2.41287e+07
2.4911e+07
2.36585e+07
2.43422e+07
2.32653e+07
2.38509e+07
2.294e+07
2.34302e+07
2.26738e+07
2.30734e+07
2.24587e+07
2.27737e+07
2.22875e+07
2.25248e+07
2.21544e+07
2.23206e+07
2.20546e+07
2.21553e+07
2.19841e+07
2.20235e+07
2.19398e+07
2.19195e+07
2.19185e+07
2.18371e+07
2.19198e+07
2.17746e+07
2.19564e+07
2.17474e+07
2.20601e+07
2.18193e+07
6.75151e+07
6.62915e+07
6.55735e+07
6.3864e+07
6.31159e+07
6.15047e+07
6.06911e+07
5.92677e+07
5.82787e+07
5.70879e+07
5.58437e+07
5.49131e+07
5.33796e+07
5.27246e+07
5.09029e+07
5.05259e+07
4.84396e+07
4.83313e+07
4.60181e+07
4.61598e+07
4.36645e+07
4.40311e+07
4.14001e+07
4.19638e+07
3.92415e+07
3.99732e+07
3.72006e+07
3.80716e+07
3.52852e+07
3.62676e+07
3.34997e+07
3.45672e+07
3.18462e+07
3.29739e+07
3.03247e+07
3.14893e+07
2.89336e+07
3.01138e+07
2.76702e+07
2.88463e+07
2.65309e+07
2.76852e+07
2.55111e+07
2.66278e+07
2.46053e+07
2.56709e+07
2.38074e+07
2.48107e+07
2.31108e+07
2.40426e+07
2.25078e+07
2.33618e+07
2.19909e+07
2.27628e+07
2.1552e+07
2.224e+07
2.1183e+07
2.17873e+07
2.08762e+07
2.13989e+07
2.06244e+07
2.10685e+07
2.0421e+07
2.07906e+07
2.02604e+07
2.05592e+07
2.01378e+07
2.03693e+07
2.00495e+07
2.02155e+07
1.99923e+07
2.00924e+07
1.99636e+07
1.99948e+07
1.99646e+07
1.99242e+07
2.00118e+07
1.99015e+07
2.01426e+07
1.99922e+07
6.33818e+07
6.23233e+07
6.17901e+07
6.03003e+07
5.97207e+07
5.82996e+07
5.76232e+07
5.6348e+07
5.54862e+07
5.44023e+07
5.3292e+07
5.24281e+07
5.10437e+07
5.0416e+07
4.8761e+07
4.83749e+07
4.64713e+07
4.63222e+07
4.42033e+07
4.42789e+07
4.19835e+07
4.22656e+07
3.98343e+07
4.03008e+07
3.77731e+07
3.84003e+07
3.58129e+07
3.65764e+07
3.39625e+07
3.48383e+07
3.22272e+07
3.31924e+07
3.06099e+07
3.16428e+07
2.91114e+07
3.01916e+07
2.77312e+07
2.88396e+07
2.64673e+07
2.75866e+07
2.53174e+07
2.64314e+07
2.42779e+07
2.53722e+07
2.33449e+07
2.44066e+07
2.25138e+07
2.35319e+07
2.17793e+07
2.27445e+07
2.11355e+07
2.20407e+07
2.05764e+07
2.14161e+07
2.00954e+07
2.08661e+07
1.96856e+07
2.03857e+07
1.93406e+07
1.99697e+07
1.9054e+07
1.9613e+07
1.88199e+07
1.93104e+07
1.86332e+07
1.9057e+07
1.849e+07
1.88486e+07
1.83871e+07
1.86808e+07
1.8322e+07
1.85494e+07
1.82932e+07
1.8451e+07
1.83033e+07
1.83891e+07
1.83716e+07
1.83873e+07
1.85356e+07
1.85035e+07
5.98001e+07
5.8844e+07
5.84525e+07
5.71259e+07
5.66755e+07
5.54064e+07
5.48375e+07
5.36902e+07
5.29298e+07
5.19457e+07
5.09434e+07
5.01494e+07
4.88857e+07
4.82977e+07
4.67783e+07
4.64024e+07
4.46488e+07
4.4483e+07
4.25261e+07
4.25613e+07
4.04365e+07
4.06586e+07
3.84022e+07
3.87939e+07
3.6441e+07
3.6983e+07
3.45663e+07
3.52381e+07
3.27871e+07
3.35688e+07
3.11096e+07
3.19814e+07
2.95372e+07
3.04803e+07
2.80712e+07
2.90681e+07
2.67118e+07
2.77458e+07
2.54579e+07
2.65137e+07
2.43078e+07
2.53712e+07
2.32592e+07
2.43171e+07
2.2309e+07
2.33497e+07
2.1454e+07
2.2467e+07
2.06901e+07
2.16665e+07
2.00131e+07
2.09455e+07
1.94182e+07
2.03007e+07
1.89003e+07
1.97286e+07
1.84541e+07
1.92252e+07
1.80743e+07
1.87862e+07
1.77555e+07
1.84075e+07
1.74927e+07
1.80845e+07
1.72818e+07
1.78134e+07
1.71192e+07
1.75907e+07
1.70026e+07
1.74133e+07
1.69305e+07
1.72787e+07
1.69022e+07
1.71856e+07
1.6922e+07
1.71398e+07
1.70095e+07
1.71639e+07
1.71983e+07
1.73027e+07
5.66733e+07
5.57777e+07
5.5495e+07
5.42901e+07
5.39393e+07
5.2792e+07
5.23079e+07
5.12705e+07
5.05913e+07
4.96995e+07
4.87842e+07
4.80613e+07
4.68956e+07
4.63556e+07
4.49469e+07
4.45955e+07
4.29655e+07
4.28013e+07
4.09795e+07
4.09953e+07
3.90149e+07
3.91993e+07
3.70936e+07
3.74322e+07
3.52331e+07
3.57099e+07
3.34467e+07
3.40447e+07
3.17436e+07
3.2446e+07
3.01302e+07
3.09204e+07
2.86102e+07
2.94721e+07
2.71853e+07
2.81039e+07
2.58562e+07
2.68172e+07
2.46223e+07
2.56124e+07
2.34825e+07
2.44893e+07
2.24353e+07
2.34472e+07
2.14783e+07
2.2485e+07
2.06093e+07
2.16011e+07
1.98253e+07
2.07939e+07
1.91232e+07
2.00613e+07
1.84995e+07
1.94011e+07
1.79504e+07
1.8811e+07
1.7472e+07
1.8288e+07
1.70604e+07
1.78294e+07
1.67115e+07
1.74317e+07
1.64215e+07
1.70916e+07
1.61872e+07
1.68057e+07
1.60058e+07
1.65709e+07
1.58754e+07
1.63848e+07
1.57949e+07
1.62458e+07
1.57643e+07
1.61538e+07
1.57883e+07
1.61158e+07
1.5885e+07
1.61516e+07
1.60806e+07
1.62914e+07
5.39242e+07
5.30605e+07
5.28619e+07
5.17477e+07
5.14739e+07
5.04241e+07
5.00076e+07
4.90641e+07
4.8451e+07
4.76432e+07
4.67992e+07
4.6146e+07
4.50608e+07
4.45733e+07
4.3256e+07
4.29386e+07
4.14112e+07
4.12622e+07
3.95537e+07
3.95666e+07
3.77084e+07
3.78733e+07
3.58969e+07
3.62014e+07
3.41362e+07
3.45666e+07
3.24393e+07
3.29812e+07
3.08153e+07
3.14545e+07
2.92705e+07
2.9993e+07
2.78088e+07
2.86009e+07
2.6432e+07
2.72809e+07
2.51411e+07
2.60347e+07
2.39358e+07
2.48627e+07
2.28156e+07
2.37651e+07
2.17793e+07
2.27414e+07
2.08254e+07
2.17909e+07
1.9952e+07
2.09125e+07
1.91571e+07
2.01048e+07
1.84382e+07
1.93663e+07
1.77928e+07
1.86954e+07
1.72181e+07
1.80905e+07
1.67112e+07