/*--------------------------------*- C++ -*----------------------------------*\
| =========                 |                                                 |
| \\      /  F ield         | OpenFOAM: The Open Source CFD Toolbox           |
|  \\    /   O peration     | Version:  v2012                                 |
|   \\  /    A nd           | Website:  www.openfoam.com                      |
|    \\/     M anipulation  |                                                 |
\*---------------------------------------------------------------------------*/
FoamFile
{
    version     2.0;
    format      ascii;
    class       volScalarField;
    location    "20";
    object      sigmaHyd;
}
// * * * * * * * * * * * * * * * * * * * * * * * * * * * * * * * * * * * * * //

dimensions      [1 -1 -2 0 0 0 0];


internalField   nonuniform List<scalar> 
32000
(
-9.74066e+07
-9.69438e+07
-9.42002e+07
-9.30444e+07
-8.89973e+07
-8.70209e+07
-8.20248e+07
-7.96902e+07
-7.45298e+07
-7.21861e+07
-6.71684e+07
-6.48716e+07
-5.99737e+07
-5.77077e+07
-5.28872e+07
-5.06512e+07
-4.59035e+07
-4.37064e+07
-3.90443e+07
-3.68965e+07
-3.23298e+07
-3.02394e+07
-2.57764e+07
-2.37467e+07
-1.9394e+07
-1.74253e+07
-1.31947e+07
-1.12909e+07
-7.18574e+06
-5.34813e+06
-1.36958e+06
400529
4.24219e+06
5.94436e+06
9.64676e+06
1.12795e+07
1.48443e+07
1.64042e+07
1.98199e+07
2.13044e+07
2.45679e+07
2.59738e+07
2.90883e+07
3.0409e+07
3.33577e+07
3.45845e+07
3.73665e+07
3.84916e+07
4.11035e+07
4.2119e+07
4.45445e+07
4.54386e+07
4.76827e+07
4.84433e+07
5.04898e+07
5.11074e+07
5.2956e+07
5.34213e+07
5.50705e+07
5.53806e+07
5.6822e+07
5.6977e+07
5.82254e+07
5.82274e+07
5.92736e+07
5.91281e+07
5.99864e+07
5.97051e+07
6.03762e+07
5.99725e+07
6.04683e+07
5.99596e+07
6.02838e+07
5.96719e+07
5.97374e+07
5.89384e+07
5.84603e+07
5.74535e+07
5.62866e+07
5.50895e+07
-9.82716e+07
-9.75097e+07
-9.48779e+07
-9.31204e+07
-8.91554e+07
-8.66496e+07
-8.19421e+07
-7.91173e+07
-7.43841e+07
-7.15498e+07
-6.70009e+07
-6.42148e+07
-5.98022e+07
-5.70551e+07
-5.27325e+07
-5.0026e+07
-4.57822e+07
-4.31272e+07
-3.89677e+07
-3.63739e+07
-3.23045e+07
-2.97771e+07
-2.58009e+07
-2.33441e+07
-1.94633e+07
-1.70817e+07
-1.33056e+07
-1.10009e+07
-7.3353e+06
-5.10699e+06
-1.55273e+06
596294
4.03361e+06
6.10019e+06
9.4118e+06
1.13932e+07
1.45804e+07
1.647e+07
1.95299e+07
2.13196e+07
2.42436e+07
2.5924e+07
2.87161e+07
3.02707e+07
3.29262e+07
3.4341e+07
3.6855e+07
3.81131e+07
4.04941e+07
4.15715e+07
4.3812e+07
4.46929e+07
4.67985e+07
4.74622e+07
4.94356e+07
4.98684e+07
5.17084e+07
5.19029e+07
5.36248e+07
5.35778e+07
5.51761e+07
5.48933e+07
5.63825e+07
5.58747e+07
5.72517e+07
5.65409e+07
5.78124e+07
5.69248e+07
5.80875e+07
5.70548e+07
5.81116e+07
5.69781e+07
5.79288e+07
5.67291e+07
5.74843e+07
5.62003e+07
5.64981e+07
5.50804e+07
5.46173e+07
5.29524e+07
-9.82359e+07
-9.74448e+07
-9.46565e+07
-9.27216e+07
-8.85164e+07
-8.57771e+07
-8.09593e+07
-7.79574e+07
-7.32212e+07
-7.02464e+07
-6.57495e+07
-6.28359e+07
-5.85104e+07
-5.56398e+07
-5.14326e+07
-4.86045e+07
-4.44993e+07
-4.17228e+07
-3.77159e+07
-3.49984e+07
-3.10924e+07
-2.8441e+07
-2.46375e+07
-2.20551e+07
-1.83531e+07
-1.58423e+07
-1.22423e+07
-9.80653e+06
-6.31651e+06
-3.96087e+06
-584660
1.68729e+06
4.95128e+06
7.13213e+06
1.02781e+07
1.23561e+07
1.53787e+07
1.7343e+07
2.02452e+07
2.20809e+07
2.48585e+07
2.65436e+07
2.91936e+07
3.0709e+07
3.32374e+07
3.45587e+07
3.69606e+07
3.80627e+07
4.03411e+07
4.12043e+07
4.33674e+07
4.39706e+07
4.60153e+07
4.63435e+07
4.82836e+07
4.83302e+07
5.01658e+07
4.9937e+07
5.16808e+07
5.11867e+07
5.28407e+07
5.21075e+07
5.36805e+07
5.27386e+07
5.42314e+07
5.31183e+07
5.4533e+07
5.32867e+07
5.46212e+07
5.32798e+07
5.45397e+07
5.3143e+07
5.43377e+07
5.29114e+07
5.39933e+07
5.25273e+07
5.32818e+07
5.16742e+07
5.17342e+07
5.00316e+07
-9.83557e+07
-9.74027e+07
-9.43496e+07
-9.21038e+07
-8.76385e+07
-8.46857e+07
-7.97625e+07
-7.66414e+07
-7.18789e+07
-6.88395e+07
-6.43326e+07
-6.13841e+07
-5.70523e+07
-5.41678e+07
-4.9963e+07
-4.71367e+07
-4.30441e+07
-4.028e+07
-3.62934e+07
-3.35972e+07
-2.97114e+07
-2.70853e+07
-2.33007e+07
-2.0749e+07
-1.70682e+07
-1.45963e+07
-1.10192e+07
-8.6312e+06
-5.15617e+06
-2.85776e+06
510442
2.7049e+06
5.96102e+06
8.03606e+06
1.11814e+07
1.31268e+07
1.61608e+07
1.79545e+07
2.08699e+07
2.24817e+07
2.52811e+07
2.66925e+07
2.93782e+07
3.05612e+07
3.31294e+07
3.40552e+07
3.65131e+07
3.71626e+07
3.95096e+07
3.98611e+07
4.21032e+07
4.21483e+07
4.42934e+07
4.40378e+07
4.60891e+07
4.55455e+07
4.75139e+07
4.67117e+07
4.85971e+07
4.75697e+07
4.9381e+07
4.8175e+07
4.99101e+07
4.85666e+07
5.02277e+07
4.87895e+07
5.03742e+07
4.88741e+07
5.03794e+07
4.88438e+07
5.02774e+07
4.87294e+07
5.01041e+07
4.85601e+07
4.98636e+07
4.83103e+07
4.93858e+07
4.77675e+07
4.83367e+07
4.66809e+07
-9.80239e+07
-9.68559e+07
-9.36154e+07
-9.10435e+07
-8.6416e+07
-8.32236e+07
-7.83005e+07
-7.50544e+07
-7.03515e+07
-6.72464e+07
-6.27948e+07
-5.98105e+07
-5.55213e+07
-5.26219e+07
-4.84511e+07
-4.56256e+07
-4.15634e+07
-3.88133e+07
-3.48577e+07
-3.21855e+07
-2.8334e+07
-2.5744e+07
-2.19917e+07
-1.94863e+07
-1.58305e+07
-1.34137e+07
-9.85667e+06
-7.54132e+06
-4.0874e+06
-1.89296e+06
1.45703e+06
3.51887e+06
6.76622e+06
8.67977e+06
1.18195e+07
1.35513e+07
1.65809e+07
1.81015e+07
2.10237e+07
2.23134e+07
2.51262e+07
2.61501e+07
2.88529e+07
2.95845e+07
3.21836e+07
3.26059e+07
3.51003e+07
3.51957e+07
3.75922e+07
3.7365e+07
3.96678e+07
3.91326e+07
4.13487e+07
4.05308e+07
4.26654e+07
4.16089e+07
4.36684e+07
4.24181e+07
4.4402e+07
4.30108e+07
4.49267e+07
4.34397e+07
4.52809e+07
4.37364e+07
4.55053e+07
4.39329e+07
4.56235e+07
4.4039e+07
4.56473e+07
4.40639e+07
4.55969e+07
4.40232e+07
4.5493e+07
4.39401e+07
4.5357e+07
4.3822e+07
4.51086e+07
4.3578e+07
4.44957e+07
4.28237e+07
-9.72727e+07
-9.58577e+07
-9.24088e+07
-8.94395e+07
-8.47121e+07
-8.12917e+07
-7.64697e+07
-7.31306e+07
-6.85638e+07
-6.54108e+07
-6.10678e+07
-5.80481e+07
-5.3848e+07
-5.09248e+07
-4.68357e+07
-4.40022e+07
-4.00163e+07
-3.7273e+07
-3.33857e+07
-3.07325e+07
-2.69411e+07
-2.43794e+07
-2.06836e+07
-1.82226e+07
-1.46234e+07
-1.22808e+07
-8.77926e+06
-6.57285e+06
-3.16799e+06
-1.11071e+06
2.19745e+06
4.07974e+06
7.28646e+06
8.95541e+06
1.20584e+07
1.34855e+07
1.64871e+07
1.76491e+07
2.05485e+07
2.14086e+07
2.4204e+07
2.47387e+07
2.74352e+07
2.76315e+07
3.02296e+07
3.00789e+07
3.25849e+07
3.21047e+07
3.45233e+07
3.37408e+07
3.60778e+07
3.50349e+07
3.72935e+07
3.60478e+07
3.82357e+07
3.68446e+07
3.89572e+07
3.74688e+07
3.95092e+07
3.79725e+07
3.99397e+07
3.83835e+07
4.02713e+07
3.87168e+07
4.05269e+07
3.89836e+07
4.07103e+07
3.91793e+07
4.08196e+07
3.93053e+07
4.08649e+07
3.93674e+07
4.08573e+07
3.9384e+07
4.08247e+07
3.93895e+07
4.0746e+07
3.92885e+07
4.03837e+07
3.89186e+07
-9.59657e+07
-9.42415e+07
-9.05931e+07
-8.72426e+07
-8.25037e+07
-7.89315e+07
-7.42829e+07
-7.09015e+07
-6.65129e+07
-6.33352e+07
-5.91318e+07
-5.60949e+07
-5.20067e+07
-4.90777e+07
-4.50847e+07
-4.2255e+07
-3.83562e+07
-3.56252e+07
-3.18217e+07
-2.91954e+07
-2.54862e+07
-2.29769e+07
-1.93611e+07
-1.6986e+07
-1.34639e+07
-1.12417e+07
-7.81269e+06
-5.76309e+06
-2.42707e+06
-583090
2.65674e+06
4.25589e+06
7.39705e+06
8.72061e+06
1.17651e+07
1.27869e+07
1.57359e+07
1.64218e+07
1.92726e+07
1.96005e+07
2.23581e+07
2.23238e+07
2.49916e+07
2.46008e+07
2.71832e+07
2.64683e+07
2.89711e+07
2.79765e+07
3.04035e+07
2.91871e+07
3.15409e+07
3.01708e+07
3.24566e+07
3.0995e+07
3.32079e+07
3.16961e+07
3.38332e+07
3.23129e+07
3.4378e+07
3.28727e+07
3.48586e+07
3.33724e+07
3.52748e+07
3.38105e+07
3.56306e+07
3.41866e+07
3.5922e+07
3.44934e+07
3.61418e+07
3.47273e+07
3.62937e+07
3.4902e+07
3.63997e+07
3.50381e+07
3.64816e+07
3.51462e+07
3.65209e+07
3.52195e+07
3.64129e+07
3.50654e+07
-9.40825e+07
-9.21122e+07
-8.82518e+07
-8.46958e+07
-7.99495e+07
-7.63729e+07
-7.18568e+07
-6.85006e+07
-6.42572e+07
-6.10888e+07
-5.70151e+07
-5.39809e+07
-5.00103e+07
-4.70881e+07
-4.32039e+07
-4.03937e+07
-3.65963e+07
-3.39069e+07
-3.01978e+07
-2.76429e+07
-2.40233e+07
-2.16214e+07
-1.8092e+07
-1.58652e+07
-1.24272e+07
-1.0403e+07
-7.05673e+06
-5.27131e+06
-2.01769e+06
-509489
2.64963e+06
3.84659e+06
6.91158e+06
7.76809e+06
1.07413e+07
1.12291e+07
1.41111e+07
1.42139e+07
1.70079e+07
1.67336e+07
1.94466e+07
1.88201e+07
2.14557e+07
2.05263e+07
2.30912e+07
2.19222e+07
2.44189e+07
2.30812e+07
2.55112e+07
2.40774e+07
2.64425e+07
2.49702e+07
2.7266e+07
2.57883e+07
2.80093e+07
2.6551e+07
2.86975e+07
2.72716e+07
2.93429e+07
2.79459e+07
2.99359e+07
2.85592e+07
3.04661e+07
2.91054e+07
3.09308e+07
2.95838e+07
3.13283e+07
2.99936e+07
3.16568e+07
3.03371e+07
3.19212e+07
3.06235e+07
3.21411e+07
3.08757e+07
3.23426e+07
3.112e+07
3.25268e+07
3.13169e+07
3.25772e+07
3.13635e+07
-9.18608e+07
-8.97303e+07
-8.57319e+07
-8.21063e+07
-7.73716e+07
-7.37804e+07
-6.9371e+07
-6.60112e+07
-6.18986e+07
-5.8731e+07
-5.47862e+07
-5.17642e+07
-4.7915e+07
-4.50241e+07
-4.12523e+07
-3.84999e+07
-3.48071e+07
-3.22105e+07
-2.86002e+07
-2.61814e+07
-2.2656e+07
-2.04416e+07
-1.70036e+07
-1.50267e+07
-1.16789e+07
-9.97712e+06
-6.72132e+06
-5.33155e+06
-2.16838e+06
-1.12602e+06
1.94435e+06
2.60827e+06
5.58815e+06
5.8532e+06
8.74668e+06
8.60919e+06
1.14206e+07
1.09023e+07
1.36398e+07
1.27894e+07
1.54599e+07
1.43465e+07
1.69555e+07
1.56588e+07
1.82082e+07
1.6807e+07
1.92966e+07
1.78588e+07
2.02867e+07
1.88572e+07
2.12188e+07
1.98176e+07
2.21073e+07
2.07408e+07
2.29564e+07
2.16249e+07
2.37676e+07
2.2464e+07
2.45306e+07
2.32421e+07
2.52296e+07
2.3949e+07
2.58574e+07
2.4583e+07
2.64145e+07
2.5149e+07
2.69067e+07
2.56533e+07
2.73372e+07
2.60977e+07
2.77101e+07
2.64923e+07
2.80437e+07
2.68606e+07
2.83672e+07
2.72191e+07
2.86779e+07
2.75639e+07
2.88983e+07
2.77518e+07
-8.93445e+07
-8.70328e+07
-8.30811e+07
-7.93354e+07
-7.46835e+07
-7.10434e+07
-6.67642e+07
-6.33911e+07
-5.94227e+07
-5.62647e+07
-5.24632e+07
-4.94763e+07
-4.5764e+07
-4.29417e+07
-3.92989e+07
-3.66592e+07
-3.30874e+07
-3.06562e+07
-2.71598e+07
-2.49683e+07
-2.15518e+07
-1.96368e+07
-1.63045e+07
-1.4705e+07
-1.14608e+07
-1.02139e+07
-7.06004e+06
-6.19974e+06
-3.13676e+06
-2.69004e+06
283526
304627
3.19444e+06
2.80306e+06
5.61832e+06
4.85916e+06
7.60918e+06
6.55607e+06
9.25009e+06
7.9927e+06
1.06346e+07
9.264e+06
1.18546e+07
1.04491e+07
1.29856e+07
1.15976e+07
1.40753e+07
1.27308e+07
1.51446e+07
1.38467e+07
1.61912e+07
1.49309e+07
1.72033e+07
1.59714e+07
1.81726e+07
1.696e+07
1.90893e+07
1.78843e+07
1.99394e+07
1.8736e+07
2.07167e+07
1.95136e+07
2.14209e+07
2.02197e+07
2.20565e+07
2.08626e+07
2.26331e+07
2.14512e+07
2.31559e+07
2.19898e+07
2.36313e+07
2.24837e+07
2.40693e+07
2.29454e+07
2.44944e+07
2.34154e+07
2.49304e+07
2.38736e+07
2.52789e+07
2.41955e+07
-8.62951e+07
-8.38221e+07
-8.00658e+07
-7.62208e+07
-7.17544e+07
-6.80701e+07
-6.39799e+07
-6.06029e+07
-5.68201e+07
-5.36931e+07
-5.007e+07
-4.71567e+07
-4.36162e+07
-4.09225e+07
-3.74432e+07
-3.4995e+07
-3.15765e+07
-2.94097e+07
-2.60569e+07
-2.42114e+07
-2.09305e+07
-1.94456e+07
-1.62425e+07
-1.51536e+07
-1.20338e+07
-1.13728e+07
-8.33944e+06
-8.12726e+06
-5.17749e+06
-5.41297e+06
-2.53905e+06
-3.18529e+06
-377509
-1.36098e+06
1.39333e+06
174246
2.88296e+06
1.53536e+06
4.20194e+06
2.81955e+06
5.44194e+06
4.08776e+06
6.66034e+06
5.36467e+06
7.88126e+06
6.64878e+06
9.10301e+06
7.92031e+06
1.03069e+07
9.15494e+06
1.14716e+07
1.03372e+07
1.25852e+07
1.14595e+07
1.36388e+07
1.25133e+07
1.46228e+07
1.34941e+07
1.55337e+07
1.44012e+07
1.63715e+07
1.52348e+07
1.71382e+07
1.6002e+07
1.78432e+07
1.67163e+07
1.84979e+07
1.73828e+07
1.91047e+07
1.79994e+07
1.96643e+07
1.85719e+07
2.01912e+07
1.91273e+07
2.07167e+07
1.96837e+07
2.12451e+07
2.02358e+07
2.17057e+07
2.06753e+07
-8.27541e+07
-8.01827e+07
-7.66689e+07
-7.27857e+07
-6.8554e+07
-6.48679e+07
-6.10049e+07
-5.76626e+07
-5.41019e+07
-5.10553e+07
-4.76525e+07
-4.48798e+07
-4.15582e+07
-3.9072e+07
-3.58077e+07
-3.36453e+07
-3.04376e+07
-2.86442e+07
-2.54953e+07
-2.41128e+07
-2.10254e+07
-2.00893e+07
-1.70666e+07
-1.6605e+07
-1.36494e+07
-1.36752e+07
-1.07849e+07
-1.12782e+07
-8.44599e+06
-9.33646e+06
-6.54861e+06
-7.72605e+06
-4.97301e+06
-6.3085e+06
-3.58514e+06
-4.96192e+06
-2.27166e+06
-3.60812e+06
-958300
-2.2158e+06
385208
-787647
1.75698e+06
652290
3.13446e+06
2.07086e+06
4.48674e+06
3.44039e+06
5.7892e+06
4.74719e+06
7.03031e+06
5.98693e+06
8.20518e+06
7.1564e+06
9.30924e+06
8.25306e+06
1.03401e+07
9.27513e+06
1.12967e+07
1.02222e+07
1.21801e+07
1.11013e+07
1.30003e+07
1.19275e+07
1.37712e+07
1.27061e+07
1.4494e+07
1.34317e+07
1.51648e+07
1.41077e+07
1.5793e+07
1.47523e+07
1.63999e+07
1.53778e+07
1.69999e+07
1.60067e+07
1.76113e+07
1.66463e+07
1.81743e+07
1.7185e+07
-7.88441e+07
-7.6224e+07
-7.29665e+07
-6.91017e+07
-6.51261e+07
-6.14939e+07
-5.78803e+07
-5.4638e+07
-5.13283e+07
-4.84416e+07
-4.52969e+07
-4.27506e+07
-3.96972e+07
-3.75191e+07
-3.45337e+07
-3.27705e+07
-2.98454e+07
-2.85404e+07
-2.56702e+07
-2.4861e+07
-2.20404e+07
-2.17559e+07
-1.89788e+07
-1.92261e+07
-1.6482e+07
-1.72133e+07
-1.44853e+07
-1.55835e+07
-1.28579e+07
-1.41721e+07
-1.14454e+07
-1.28235e+07
-1.01023e+07
-1.14306e+07
-8.72901e+06
-9.952e+06
-7.28679e+06
-8.39859e+06
-5.78277e+06
-6.80451e+06
-4.24681e+06
-5.21259e+06
-2.71898e+06
-3.6623e+06
-1.23526e+06
-2.17775e+06
183731
-765116
1.53307e+06
577045
2.81303e+06
1.84837e+06
4.02211e+06
3.04627e+06
5.15775e+06
4.16789e+06
6.21789e+06
5.21372e+06
7.20482e+06
6.19388e+06
8.13065e+06
7.12186e+06
9.00687e+06
7.99912e+06
9.83167e+06
8.81969e+06
1.06009e+07
9.58835e+06
1.13231e+07
1.03189e+07
1.20134e+07
1.10202e+07
1.26807e+07
1.17032e+07
1.33469e+07
1.23979e+07
1.40336e+07
1.31061e+07
1.46755e+07
1.37246e+07
-7.46608e+07
-7.20428e+07
-6.90453e+07
-6.52681e+07
-6.15582e+07
-5.80596e+07
-5.47081e+07
-5.16583e+07
-4.86196e+07
-4.59902e+07
-4.31348e+07
-4.09223e+07
-3.81838e+07
-3.6422e+07
-3.37767e+07
-3.25119e+07
-2.99461e+07
-2.92258e+07
-2.67212e+07
-2.65831e+07
-2.41136e+07
-2.45554e+07
-2.20844e+07
-2.30169e+07
-2.05033e+07
-2.17518e+07
-1.91743e+07
-2.05482e+07
-1.79076e+07
-1.92409e+07
-1.65595e+07
-1.77622e+07
-1.50725e+07
-1.61293e+07
-1.34624e+07
-1.4403e+07
-1.17811e+07
-1.26482e+07
-1.00837e+07
-1.09178e+07
-8.41848e+06
-9.24895e+06
-6.81772e+06
-7.65759e+06
-5.29385e+06
-6.14313e+06
-3.84453e+06
-4.7013e+06
-2.46615e+06
-3.33332e+06
-1.16041e+06
-2.04282e+06
69018.6
-832943
1.22004e+06
299388
2.2974e+06
1.36719e+06
3.31407e+06
2.38162e+06
4.27902e+06
3.34154e+06
5.18936e+06
4.24118e+06
6.04186e+06
5.08785e+06
6.84593e+06
5.89444e+06
7.61354e+06
6.66663e+06
8.34909e+06
7.40711e+06
9.06115e+06
8.13293e+06
9.77835e+06
8.87619e+06
1.05226e+07
9.64462e+06
1.1234e+07
1.03266e+07
-7.03107e+07
-6.77501e+07
-6.50232e+07
-6.14213e+07
-5.79925e+07
-5.47303e+07
-5.16535e+07
-4.89e+07
-4.61479e+07
-4.38814e+07
-4.13403e+07
-3.95695e+07
-3.71809e+07
-3.59503e+07
-3.3688e+07
-3.30624e+07
-3.08994e+07
-3.0931e+07
-2.88168e+07
-2.94762e+07
-2.73466e+07
-2.84748e+07
-2.6267e+07
-2.76143e+07
-2.52901e+07
-2.6636e+07
-2.41907e+07
-2.5384e+07
-2.28425e+07
-2.38498e+07
-2.12496e+07
-2.21108e+07
-1.94878e+07
-2.02644e+07
-1.765e+07
-1.83959e+07
-1.58124e+07
-1.65648e+07
-1.4023e+07
-1.47979e+07
-1.23071e+07
-1.30973e+07
-1.06694e+07
-1.1463e+07
-9.10637e+06
-9.90106e+06
-7.61893e+06
-8.42359e+06
-6.21383e+06
-7.03487e+06
-4.8945e+06
-5.73649e+06
-3.66095e+06
-4.52006e+06
-2.50305e+06
-3.36588e+06
-1.40378e+06
-2.26584e+06
-357533
-1.22678e+06
628539
-255363
1.55206e+06
660687
2.42593e+06
1.53579e+06
3.26181e+06
2.37327e+06
4.06101e+06
3.17134e+06
4.82583e+06
3.94014e+06
5.57415e+06
4.70289e+06
6.33608e+06
5.49274e+06
7.13145e+06
6.3033e+06
7.88837e+06
7.0258e+06
-6.5914e+07
-6.34863e+07
-6.10535e+07
-5.7732e+07
-5.46108e+07
-5.16809e+07
-4.88997e+07
-4.65397e+07
-4.40989e+07
-4.23196e+07
-4.01176e+07
-3.89578e+07
-3.69366e+07
-3.64795e+07
-3.45973e+07
-3.48949e+07
-3.30885e+07
-3.40338e+07
-3.22112e+07
-3.35019e+07
-3.16062e+07
-3.28738e+07
-3.09163e+07
-3.19571e+07
-2.99363e+07
-3.06769e+07
-2.85931e+07
-2.91076e+07
-2.69676e+07
-2.73718e+07
-2.51759e+07
-2.55645e+07
-2.33137e+07
-2.37477e+07
-2.14516e+07
-2.1965e+07
-1.96373e+07
-2.02285e+07
-1.78747e+07
-1.85016e+07
-1.61428e+07
-1.67871e+07
-1.44498e+07
-1.51195e+07
-1.28273e+07
-1.35384e+07
-1.13024e+07
-1.20565e+07
-9.87487e+06
-1.06679e+07
-8.54109e+06
-9.35464e+06
-7.28234e+06
-8.09365e+06
-6.0793e+06
-6.89098e+06
-4.9365e+06
-5.76411e+06
-3.86755e+06
-4.71688e+06
-2.86967e+06
-3.72653e+06
-1.92273e+06
-2.77606e+06
-1.01477e+06
-1.86607e+06
-147744
-1.00298e+06
675384
-183277
1.46453e+06
611348
2.24255e+06
1.41094e+06
3.04224e+06
2.23678e+06
3.86956e+06
3.07375e+06
4.65593e+06
3.82509e+06
-6.16326e+07
-5.94223e+07
-5.73063e+07
-5.43585e+07
-5.1581e+07
-4.90935e+07
-4.66468e+07
-4.4856e+07
-4.27615e+07
-4.17231e+07
-3.98872e+07
-3.96727e+07
-3.80291e+07
-3.86282e+07
-3.70803e+07
-3.81844e+07
-3.66755e+07
-3.77751e+07
-3.62506e+07
-3.69326e+07
-3.54142e+07
-3.56724e+07
-3.41928e+07
-3.41327e+07
-3.26555e+07
-3.24306e+07
-3.09545e+07
-3.06934e+07
-2.92174e+07
-2.89917e+07
-2.75028e+07
-2.73491e+07
-2.58325e+07
-2.57716e+07
-2.42152e+07
-2.42448e+07
-2.26188e+07
-2.26866e+07
-2.09699e+07
-2.10983e+07
-1.93098e+07
-1.95484e+07
-1.7701e+07
-1.80669e+07
-1.61726e+07
-1.66554e+07
-1.47309e+07
-1.53037e+07
-1.33634e+07
-1.39694e+07
-1.20328e+07
-1.26518e+07
-1.0737e+07
-1.13896e+07
-9.50975e+06
-1.02162e+07
-8.37334e+06
-9.12712e+06
-7.31248e+06
-8.08481e+06
-6.29585e+06
-7.0688e+06
-5.31353e+06
-6.09269e+06
-4.3757e+06
-5.1711e+06
-3.49091e+06
-4.30363e+06
-2.65167e+06
-3.46841e+06
-1.8341e+06
-2.63515e+06
-1.01127e+06
-1.79263e+06
-172773
-940976
678490
-88064.8
1.48805e+06
690184
-5.76606e+07
-5.57519e+07
-5.39604e+07
-5.1523e+07
-4.91406e+07
-4.73259e+07
-4.5276e+07
-4.43314e+07
-4.26577e+07
-4.25991e+07
-4.1209e+07
-4.18562e+07
-4.06374e+07
-4.14051e+07
-4.02346e+07
-4.0557e+07
-3.94578e+07
-3.92633e+07
-3.81525e+07
-3.76077e+07
-3.65102e+07
-3.58445e+07
-3.47792e+07
-3.4097e+07
-3.30374e+07
-3.23867e+07
-3.13287e+07
-3.07321e+07
-2.96815e+07
-2.91472e+07
-2.81075e+07
-2.76354e+07
-2.66037e+07
-2.61826e+07
-2.51457e+07
-2.4759e+07
-2.36969e+07
-2.3368e+07
-2.22795e+07
-2.20516e+07
-2.09393e+07
-2.08257e+07
-1.96754e+07
-1.96702e+07
-1.84657e+07
-1.85425e+07
-1.72504e+07
-1.73396e+07
-1.59658e+07
-1.61367e+07
-1.47074e+07
-1.49954e+07
-1.35192e+07
-1.39281e+07
-1.24188e+07
-1.2911e+07
-1.13778e+07
-1.19015e+07
-1.03515e+07
-1.08881e+07
-9.33748e+06
-9.90918e+06
-8.36804e+06
-8.99162e+06
-7.461e+06
-8.13512e+06
-6.60686e+06
-7.30479e+06
-5.77116e+06
-6.46217e+06
-4.92637e+06
-5.61227e+06
-4.07939e+06
-4.77236e+06
-3.23471e+06
-3.93186e+06
-2.38072e+06
-3.07714e+06
-1.54792e+06
-2.26765e+06
-5.42526e+07
-5.27943e+07
-5.13309e+07
-4.96606e+07
-4.77173e+07
-4.67346e+07
-4.51573e+07
-4.4929e+07
-4.3792e+07
-4.39916e+07
-4.31104e+07
-4.30964e+07
-4.23496e+07
-4.18456e+07
-4.10461e+07
-4.02374e+07
-3.94308e+07
-3.85269e+07
-3.7686e+07
-3.68006e+07
-3.59387e+07
-3.51117e+07
-3.42388e+07
-3.34738e+07
-3.25886e+07
-3.18848e+07
-3.09921e+07
-3.03476e+07
-2.9456e+07
-2.88666e+07
-2.79826e+07
-2.74411e+07
-2.65649e+07
-2.60643e+07
-2.51901e+07
-2.47346e+07
-2.38632e+07
-2.34641e+07
-2.26105e+07
-2.22693e+07
-2.1443e+07
-2.11491e+07
-2.03416e+07
-2.00757e+07
-1.92632e+07
-1.90138e+07
-1.81741e+07
-1.79999e+07
-1.71492e+07
-1.7079e+07
-1.6207e+07
-1.62297e+07
-1.53166e+07
-1.53968e+07
-1.44141e+07
-1.45062e+07
-1.34572e+07
-1.36098e+07
-1.25109e+07
-1.27596e+07
-1.16165e+07
-1.19633e+07
-1.07885e+07
-1.12098e+07
-1.00074e+07
-1.04556e+07
-9.2185e+06
-9.66289e+06
-8.39792e+06
-8.86141e+06
-7.57802e+06
-8.0804e+06
-6.77745e+06
-7.31588e+06
-5.97871e+06
-6.53495e+06
-5.15148e+06
-5.71561e+06
-4.32399e+06
-4.92677e+06
-5.18068e+07
-5.09246e+07
-4.98001e+07
-4.87815e+07
-4.72726e+07
-4.65243e+07
-4.54386e+07
-4.48713e+07
-4.42774e+07
-4.35554e+07
-4.30476e+07
-4.20881e+07
-4.15515e+07
-4.05099e+07
-3.99069e+07
-3.88972e+07
-3.82546e+07
-3.73143e+07
-3.66284e+07
-3.57636e+07
-3.50389e+07
-3.42425e+07
-3.34877e+07
-3.27511e+07
-3.19736e+07
-3.12921e+07
-3.04999e+07
-2.98706e+07
-2.90712e+07
-2.84908e+07
-2.76895e+07
-2.71538e+07
-2.63531e+07
-2.58603e+07
-2.50631e+07
-2.4614e+07
-2.38262e+07
-2.34215e+07
-2.2652e+07
-2.22881e+07
-2.15415e+07
-2.12107e+07
-2.04822e+07
-2.01797e+07
-1.94601e+07
-1.91973e+07
-1.84935e+07
-1.82763e+07
-1.76049e+07
-1.74214e+07
-1.6778e+07
-1.66092e+07
-1.5971e+07
-1.58126e+07
-1.51591e+07
-1.50608e+07
-1.44033e+07
-1.43839e+07
-1.37101e+07
-1.37537e+07
-1.30472e+07
-1.3128e+07
-1.23772e+07
-1.24714e+07
-1.16663e+07
-1.17947e+07
-1.09336e+07
-1.11297e+07
-1.02161e+07
-1.04836e+07
-9.52556e+06
-9.8525e+06
-8.85135e+06
-9.21234e+06
-8.15281e+06
-8.52338e+06
-7.40394e+06
-7.79645e+06
-6.64967e+06
-7.09282e+06
-5.03264e+07
-4.96245e+07
-4.87801e+07
-4.74772e+07
-4.64019e+07
-4.51176e+07
-4.4491e+07
-4.32979e+07
-4.29146e+07
-4.17709e+07
-4.14054e+07
-4.03164e+07
-3.99085e+07
-3.88933e+07
-3.8424e+07
-3.7488e+07
-3.69644e+07
-3.60961e+07
-3.55235e+07
-3.47131e+07
-3.40978e+07
-3.33395e+07
-3.2689e+07
-3.198e+07
-3.13023e+07
-3.06409e+07
-2.99439e+07
-2.93286e+07
-2.8619e+07
-2.80481e+07
-2.73308e+07
-2.68028e+07
-2.60819e+07
-2.55961e+07
-2.48756e+07
-2.44318e+07
-2.37167e+07
-2.33138e+07
-2.26089e+07
-2.22436e+07
-2.15514e+07
-2.12197e+07
-2.05401e+07
-2.02409e+07
-1.95759e+07
-1.93093e+07
-1.86642e+07
-1.84283e+07
-1.78076e+07
-1.75962e+07
-1.69967e+07
-1.68061e+07
-1.62209e+07
-1.60591e+07
-1.54939e+07
-1.53619e+07
-1.48275e+07
-1.47136e+07
-1.42037e+07
-1.40973e+07
-1.35956e+07
-1.35038e+07
-1.29976e+07
-1.29511e+07
-1.24375e+07
-1.24446e+07
-1.19069e+07
-1.19545e+07
-1.13786e+07
-1.14545e+07
-1.08379e+07
-1.09356e+07
-1.02693e+07
-1.03917e+07
-9.66076e+06
-9.82229e+06
-9.0198e+06
-9.23258e+06
-8.37916e+06
-8.64866e+06
-4.86121e+07
-4.74067e+07
-4.68412e+07
-4.51221e+07
-4.43913e+07
-4.28754e+07
-4.24395e+07
-4.11889e+07
-4.09221e+07
-3.98305e+07
-3.95717e+07
-3.85791e+07
-3.82735e+07
-3.73515e+07
-3.69875e+07
-3.61223e+07
-3.57018e+07
-3.4885e+07
-3.44131e+07
-3.36403e+07
-3.31241e+07
-3.23936e+07
-3.18406e+07
-3.11522e+07
-3.057e+07
-2.99235e+07
-2.93193e+07
-2.87144e+07
-2.80942e+07
-2.75303e+07
-2.68992e+07
-2.63759e+07
-2.57383e+07
-2.52549e+07
-2.4615e+07
-2.41707e+07
-2.35325e+07
-2.31259e+07
-2.24926e+07
-2.21214e+07
-2.14951e+07
-2.11574e+07
-2.05399e+07
-2.02342e+07
-1.96278e+07
-1.93529e+07
-1.87604e+07
-1.85138e+07
-1.7937e+07
-1.77155e+07
-1.71547e+07
-1.69568e+07
-1.64131e+07
-1.62381e+07
-1.57147e+07
-1.55603e+07
-1.50592e+07
-1.49218e+07
-1.44403e+07
-1.43193e+07
-1.38547e+07
-1.37534e+07
-1.33098e+07
-1.32245e+07
-1.28041e+07
-1.27254e+07
-1.23197e+07
-1.22437e+07
-1.18405e+07
-1.17748e+07
-1.13653e+07
-1.13285e+07
-1.09063e+07
-1.09052e+07
-1.04534e+07
-1.0483e+07
-9.98465e+06
-1.00391e+07
-9.49159e+06
-9.56694e+06
-4.57444e+07
-4.41716e+07
-4.39582e+07
-4.22276e+07
-4.18374e+07
-4.04519e+07
-4.02352e+07
-3.91122e+07
-3.8976e+07
-3.79871e+07
-3.78341e+07
-3.69193e+07
-3.67126e+07
-3.58499e+07
-3.55825e+07
-3.4763e+07
-3.44371e+07
-3.36567e+07
-3.32778e+07
-3.25347e+07
-3.21097e+07
-3.14036e+07
-3.09403e+07
-3.02715e+07
-2.97773e+07
-2.91462e+07
-2.86279e+07
-2.80346e+07
-2.74983e+07
-2.69427e+07
-2.63934e+07
-2.58752e+07
-2.53174e+07
-2.48361e+07
-2.42736e+07
-2.38282e+07
-2.32647e+07
-2.28538e+07
-2.22919e+07
-2.1914e+07
-2.13561e+07
-2.10097e+07
-2.04578e+07
-2.01413e+07
-1.95974e+07
-1.93093e+07
-1.87753e+07
-1.85137e+07
-1.7991e+07
-1.7754e+07
-1.72438e+07
-1.70299e+07
-1.65334e+07
-1.63413e+07
-1.58601e+07
-1.56878e+07
-1.52229e+07
-1.5068e+07
-1.46198e+07
-1.44806e+07
-1.40499e+07
-1.39242e+07
-1.35122e+07
-1.33971e+07
-1.3003e+07
-1.28965e+07
-1.25169e+07
-1.24195e+07
-1.20521e+07
-1.19656e+07
-1.16114e+07
-1.15326e+07
-1.11913e+07
-1.11121e+07
-1.07762e+07
-1.06909e+07
-1.0349e+07
-1.02559e+07
-9.89612e+06
-9.79132e+06
-4.20564e+07
-4.06383e+07
-4.08124e+07
-3.93505e+07
-3.93033e+07
-3.80942e+07
-3.80934e+07
-3.70753e+07
-3.70813e+07
-3.61673e+07
-3.61259e+07
-3.52714e+07
-3.51627e+07
-3.43502e+07
-3.41734e+07
-3.33961e+07
-3.31564e+07
-3.24119e+07
-3.21165e+07
-3.14041e+07
-3.10609e+07
-3.03811e+07
-2.9998e+07
-2.93513e+07
-2.8936e+07
-2.83231e+07
-2.78822e+07
-2.73035e+07
-2.68429e+07
-2.62985e+07
-2.58233e+07
-2.53129e+07
-2.48276e+07
-2.43506e+07
-2.38588e+07
-2.34144e+07
-2.29194e+07
-2.25064e+07
-2.20109e+07
-2.1628e+07
-2.11343e+07
-2.07801e+07
-2.02902e+07
-1.99634e+07
-1.94793e+07
-1.91783e+07
-1.87015e+07
-1.84248e+07
-1.79568e+07
-1.77028e+07
-1.7245e+07
-1.70122e+07
-1.65657e+07
-1.63524e+07
-1.59184e+07
-1.5723e+07
-1.53023e+07
-1.51229e+07
-1.47161e+07
-1.45509e+07
-1.41585e+07
-1.40056e+07
-1.36277e+07
-1.34852e+07
-1.31218e+07
-1.29874e+07
-1.26381e+07
-1.25097e+07
-1.21742e+07
-1.20488e+07
-1.17271e+07
-1.16011e+07
-1.12914e+07
-1.1162e+07
-1.08601e+07
-1.07263e+07
-1.04239e+07
-1.02816e+07
-9.96724e+06
-9.8179e+06
-3.87129e+07
-3.7565e+07
-3.79197e+07
-3.67356e+07
-3.68963e+07
-3.58637e+07
-3.60121e+07
-3.51034e+07
-3.5221e+07
-3.43856e+07
-3.44384e+07
-3.36476e+07
-3.36239e+07
-3.28655e+07
-3.27674e+07
-3.20369e+07
-3.18717e+07
-3.11676e+07
-3.09442e+07
-3.02668e+07
-2.9994e+07
-2.93443e+07
-2.90306e+07
-2.84097e+07
-2.80628e+07
-2.74716e+07
-2.70983e+07
-2.65374e+07
-2.61434e+07
-2.56131e+07
-2.52034e+07
-2.47036e+07
-2.42824e+07
-2.38125e+07
-2.33834e+07
-2.29428e+07
-2.25089e+07
-2.20965e+07
-2.16604e+07
-2.12751e+07
-2.08391e+07
-2.04796e+07
-2.00457e+07
-1.97108e+07
-1.92807e+07
-1.8969e+07
-1.85445e+07
-1.82546e+07
-1.78369e+07
-1.75673e+07
-1.71578e+07
-1.69071e+07
-1.6507e+07
-1.62735e+07
-1.58838e+07
-1.5666e+07
-1.52875e+07
-1.50836e+07
-1.47169e+07
-1.45252e+07
-1.41707e+07
-1.39892e+07
-1.36471e+07
-1.34738e+07
-1.31441e+07
-1.29768e+07
-1.2659e+07
-1.24956e+07
-1.21889e+07
-1.20272e+07
-1.1731e+07
-1.15692e+07
-1.12821e+07
-1.1119e+07
-1.08388e+07
-1.06714e+07
-1.03907e+07
-1.02118e+07
-9.91903e+06
-9.72201e+06
-3.59009e+07
-3.49615e+07
-3.53999e+07
-3.44288e+07
-3.47041e+07
-3.38247e+07
-3.4059e+07
-3.32594e+07
-3.34458e+07
-3.26944e+07
-3.28111e+07
-3.20891e+07
-3.21279e+07
-3.14278e+07
-3.13911e+07
-3.07107e+07
-3.06059e+07
-2.99453e+07
-2.97814e+07
-2.9142e+07
-2.89281e+07
-2.83114e+07
-2.80563e+07
-2.74639e+07
-2.71752e+07
-2.66083e+07
-2.62927e+07
-2.57522e+07
-2.54154e+07
-2.49018e+07
-2.45486e+07
-2.40618e+07
-2.36962e+07
-2.3236e+07
-2.28615e+07
-2.24272e+07
-2.20467e+07
-2.16375e+07
-2.12535e+07
-2.08685e+07
-2.04831e+07
-2.01212e+07
-1.97363e+07
-1.93963e+07
-1.90137e+07
-1.86944e+07
-1.83156e+07
-1.80156e+07
-1.76419e+07
-1.736e+07
-1.69927e+07
-1.67274e+07
-1.63676e+07
-1.61174e+07
-1.5766e+07
-1.55294e+07
-1.51872e+07
-1.49626e+07
-1.46301e+07
-1.44159e+07
-1.40934e+07
-1.38877e+07
-1.35754e+07
-1.33764e+07
-1.3074e+07
-1.288e+07
-1.25871e+07
-1.23963e+07
-1.21121e+07
-1.19228e+07
-1.16467e+07
-1.14575e+07
-1.11889e+07
-1.09982e+07
-1.07348e+07
-1.05388e+07
-1.02721e+07
-1.00611e+07
-9.77592e+06
-9.54251e+06
-3.35002e+07
-3.27156e+07
-3.31917e+07
-3.23854e+07
-3.27279e+07
-3.19768e+07
-3.22631e+07
-3.15618e+07
-3.17903e+07
-3.11186e+07
-3.12758e+07
-3.06212e+07
-3.07023e+07
-3.00602e+07
-3.00679e+07
-2.9438e+07
-2.93792e+07
-2.8763e+07
-2.86462e+07
-2.80457e+07
-2.78798e+07
-2.72973e+07
-2.70905e+07
-2.65279e+07
-2.62877e+07
-2.57466e+07
-2.54796e+07
-2.49611e+07
-2.46728e+07
-2.41775e+07
-2.38724e+07
-2.34005e+07
-2.30825e+07
-2.2634e+07
-2.23063e+07
-2.18806e+07
-2.15461e+07
-2.11426e+07
-2.08034e+07
-2.04214e+07
-2.00797e+07
-1.97182e+07
-1.93756e+07
-1.90336e+07
-1.86919e+07
-1.83682e+07
-1.80287e+07
-1.77222e+07
-1.73862e+07
-1.70957e+07
-1.67643e+07
-1.64886e+07
-1.61627e+07
-1.59003e+07
-1.55809e+07
-1.53306e+07
-1.50181e+07
-1.47784e+07
-1.44734e+07
-1.42428e+07
-1.39456e+07
-1.37226e+07
-1.34331e+07
-1.32162e+07
-1.29343e+07
-1.27218e+07
-1.2447e+07
-1.22375e+07
-1.19692e+07
-1.17612e+07
-1.14988e+07
-1.12908e+07
-1.10339e+07
-1.08243e+07
-1.05702e+07
-1.03546e+07
-1.00932e+07
-9.86132e+06
-9.5752e+06
-9.32176e+06
-3.14256e+07
-3.07631e+07
-3.12484e+07
-3.05733e+07
-3.09511e+07
-3.03069e+07
-3.06229e+07
-3.00071e+07
-3.02609e+07
-2.96607e+07
-2.98435e+07
-2.9251e+07
-2.93602e+07
-2.87728e+07
-2.88116e+07
-2.82302e+07
-2.82053e+07
-2.76321e+07
-2.75515e+07
-2.69893e+07
-2.68612e+07
-2.63126e+07
-2.61449e+07
-2.56123e+07
-2.5412e+07
-2.48972e+07
-2.46705e+07
-2.41747e+07
-2.39269e+07
-2.3451e+07
-2.31864e+07
-2.27308e+07
-2.2453e+07
-2.20178e+07
-2.17299e+07
-2.13147e+07
-2.10192e+07
-2.06236e+07
-2.03227e+07
-1.99461e+07
-1.96416e+07
-1.92832e+07
-1.89767e+07
-1.86356e+07
-1.83286e+07
-1.80039e+07
-1.76977e+07
-1.73883e+07
-1.7084e+07
-1.67889e+07
-1.64876e+07
-1.62056e+07
-1.59081e+07
-1.56381e+07
-1.53451e+07
-1.5086e+07
-1.47979e+07
-1.45484e+07
-1.42657e+07
-1.40246e+07
-1.37474e+07
-1.35134e+07
-1.32418e+07
-1.30134e+07
-1.27471e+07
-1.25232e+07
-1.22616e+07
-1.20407e+07
-1.17833e+07
-1.1564e+07
-1.13104e+07
-1.10913e+07
-1.08407e+07
-1.06201e+07
-1.03697e+07
-1.0143e+07
-9.88173e+06
-9.63905e+06
-9.34916e+06
-9.08799e+06
-2.96206e+07
-2.9056e+07
-2.95333e+07
-2.89631e+07
-2.93547e+07
-2.8799e+07
-2.91286e+07
-2.85862e+07
-2.88532e+07
-2.83162e+07
-2.85142e+07
-2.79776e+07
-2.81049e+07
-2.75677e+07
-2.76279e+07
-2.70917e+07
-2.70911e+07
-2.65587e+07
-2.65051e+07
-2.59796e+07
-2.58807e+07
-2.5365e+07
-2.52282e+07
-2.47249e+07
-2.45568e+07
-2.4068e+07
-2.38743e+07
-2.34014e+07
-2.31871e+07
-2.27311e+07
-2.25003e+07
-2.20618e+07
-2.18177e+07
-2.13969e+07
-2.11425e+07
-2.07392e+07
-2.04767e+07
-2.00908e+07
-1.98222e+07
-1.9453e+07
-1.91801e+07
-1.8827e+07
-1.85511e+07
-1.82135e+07
-1.7936e+07
-1.7613e+07
-1.73351e+07
-1.70258e+07
-1.67484e+07
-1.6452e+07
-1.6176e+07
-1.58915e+07
-1.56177e+07
-1.5344e+07
-1.5073e+07
-1.48093e+07
-1.45416e+07
-1.42867e+07
-1.40225e+07
-1.37755e+07
-1.3515e+07
-1.32748e+07
-1.30177e+07
-1.27832e+07
-1.25293e+07
-1.22992e+07
-1.20481e+07
-1.18212e+07
-1.1572e+07
-1.13471e+07
-1.10992e+07
-1.0875e+07
-1.06277e+07
-1.04025e+07
-1.01526e+07
-9.92193e+06
-9.65822e+06
-9.41362e+06
-9.1198e+06
-8.86235e+06
-2.80401e+07
-2.75546e+07
-2.80137e+07