/*--------------------------------*- C++ -*----------------------------------*\
| =========                 |                                                 |
| \\      /  F ield         | OpenFOAM: The Open Source CFD Toolbox           |
|  \\    /   O peration     | Version:  v2012                                 |
|   \\  /    A nd           | Website:  www.openfoam.com                      |
|    \\/     M anipulation  |                                                 |
\*---------------------------------------------------------------------------*/
FoamFile
{
    version     2.0;
    format      ascii;
    class       volScalarField;
    location    "6";
    object      epsilonEq;
}
// * * * * * * * * * * * * * * * * * * * * * * * * * * * * * * * * * * * * * //

dimensions      [0 0 0 0 0 0 0];


internalField   nonuniform List<scalar> 
8000
(
0.00487408
0.00418111
0.00408772
0.00374143
0.003576
0.00336283
0.00311113
0.0029954
0.0027954
0.0027788
0.0025629
0.00257167
0.00237589
0.00239581
0.00222661
0.0022489
0.00210204
0.00212413
0.00199486
0.00201667
0.00190152
0.00192322
0.00181972
0.00184128
0.00174758
0.00176888
0.00168346
0.00170444
0.00162595
0.00164664
0.00157381
0.00159434
0.00152592
0.00154641
0.0014813
0.00150154
0.0014389
0.00145785
0.00139752
0.001411
0.00415873
0.00410475
0.00374031
0.00369771
0.00338153
0.00330453
0.00300247
0.00295722
0.00276882
0.00274531
0.00255412
0.00254922
0.00237521
0.00238507
0.00222775
0.00224616
0.00210346
0.00212634
0.00199667
0.00202209
0.00190381
0.0019309
0.00182237
0.00185063
0.0017504
0.00177948
0.00168633
0.00171595
0.00162888
0.00165879
0.00157697
0.00160691
0.00152962
0.0015593
0.00148567
0.00151476
0.00144339
0.00147152
0.0014005
0.00142486
0.00426199
0.00401621
0.00371772
0.00359639
0.00329256
0.00318395
0.00294039
0.00288515
0.00272361
0.00268919
0.00252898
0.00251526
0.00236557
0.00236737
0.00222735
0.00223947
0.00210852
0.00212755
0.00200542
0.00202923
0.00191538
0.00194261
0.00183622
0.00186598
0.00176616
0.00179783
0.00170371
0.00173685
0.00164763
0.00168193
0.00159681
0.00163205
0.00155019
0.00158623
0.00150656
0.00154328
0.00146438
0.00150163
0.00142206
0.0014575
0.00406973
0.00383428
0.00353753
0.0033954
0.00308958
0.0029881
0.00285389
0.00279857
0.00266117
0.00262321
0.00248997
0.00247207
0.00234348
0.00234066
0.00221695
0.00222485
0.00210666
0.00212249
0.00201016
0.00203201
0.00192543
0.00195189
0.00185071
0.00188072
0.00178445
0.00181724
0.00172532
0.00176031
0.00167216
0.00170892
0.00162391
0.00166215
0.00157954
0.00161905
0.00153787
0.00157849
0.00149741
0.00153908
0.00145669
0.00149751
0.00381355
0.00357957
0.0032635
0.00312502
0.00294556
0.00287676
0.00276317
0.00270709
0.00259048
0.00255427
0.00243996
0.00242133
0.0023094
0.00230432
0.00219524
0.00220066
0.00209509
0.00210881
0.0020071
0.00202745
0.00192962
0.00195524
0.00186114
0.00189095
0.00180031
0.00183345
0.00174593
0.00178174
0.00169693
0.0017349
0.00165233
0.00169209
0.00161114
0.00165244
0.00157229
0.00161496
0.00153445
0.00157843
0.00149637
0.00153984
0.00350918
0.00328713
0.00302302
0.00293993
0.00284317
0.00277513
0.00266929
0.00261705
0.00251412
0.00247999
0.00238024
0.00236153
0.00226394
0.00225777
0.00216225
0.00216636
0.00207315
0.0020857
0.00199496
0.00201441
0.00192613
0.00195116
0.00186527
0.0018948
0.00181115
0.00184429
0.00176269
0.00179871
0.0017189
0.00175724
0.00167888
0.00171912
0.00164175
0.0016836
0.00160654
0.0016498
0.0015721
0.0016167
0.00153734
0.00158154
0.00320351
0.0030042
0.00291054
0.00282998
0.00273537
0.00266453
0.00257042
0.00251902
0.00242949
0.00239612
0.00231001
0.00229146
0.00220738
0.00220105
0.00211851
0.00212235
0.00204124
0.00205352
0.0019738
0.001993
0.00191464
0.00193946
0.00186242
0.00189175
0.00181598
0.00184891
0.00177431
0.00181009
0.00173652
0.00177456
0.0017018
0.00174165
0.00166937
0.00171072
0.00163841
0.00168103
0.00160788
0.00165172
0.00157689
0.00162027
0.00297944
0.00290218
0.0027921
0.0027193
0.00261337
0.00255127
0.00245997
0.00241415
0.00233394
0.00230392
0.00222936
0.00221297
0.00214106
0.00213621
0.00206569
0.00207057
0.00200093
0.0020139
0.00194491
0.00196451
0.00189606
0.00192102
0.00185308
0.0018823
0.00181486
0.00184744
0.00178047
0.00181566
0.00174912
0.00178632
0.0017201
0.00175886
0.00169273
0.00173275
0.00166631
0.00170735
0.00163997
0.00168197
0.00161295
0.00165431
0.00287882
0.00277753
0.00267377
0.00259101
0.00249139
0.0024298
0.00234625
0.00230417
0.00223321
0.00220702
0.0021429
0.00212968
0.00206881
0.00206643
0.00200702
0.00201373
0.00195489
0.00196913
0.00191043
0.00193079
0.00187202
0.00189727
0.00183839
0.00186747
0.00180849
0.00184052
0.00178148
0.00181574
0.00175664
0.00179256
0.00173338
0.00177052
0.00171112
0.00174919
0.00168928
0.00172806
0.00166716
0.00170655
0.00164413
0.00168263
0.00273839
0.00263049
0.00253941
0.00245118
0.00236464
0.00230175
0.00223082
0.0021899
0.00213094
0.00210693
0.00205445
0.0020436
0.0019941
0.00199384
0.00194546
0.00195386
0.0019056
0.00192101
0.00187236
0.00189335
0.00184409
0.00186944
0.00181953
0.00184822
0.0017977
0.00182887
0.00177783
0.00181079
0.0017593
0.00179352
0.00174159
0.00177666
0.00172426
0.0017599
0.00170685
0.00174284
0.00168879
0.00172502
0.00166959
0.00170464
0.00257801
0.00246704
0.00239189
0.00230116
0.00223086
0.00216738
0.00211182
0.00207149
0.00202673
0.00200396
0.00196464
0.00195526
0.00191805
0.00191919
0.0018823
0.00189179
0.00185431
0.00187036
0.00183183
0.00185298
0.00181322
0.00183823
0.00179726
0.00182512
0.00178305
0.00181292
0.00176989
0.00180114
0.00175727
0.00178938
0.00174477
0.00177736
0.00173205
0.00176486
0.00171876
0.00175159
0.00170449
0.00173718
0.00168887
0.00172008
0.00240277
0.00229132
0.00223351
0.00214239
0.00209001
0.00202702
0.00198841
0.00194897
0.00191977
0.00189806
0.00187299
0.00186466
0.00184051
0.0018425
0.00181762
0.00182762
0.00180122
0.00181736
0.00178908
0.00180985
0.00177965
0.0018038
0.00177179
0.00179832
0.00176468
0.00179282
0.00175776
0.00178688
0.00175061
0.00178023
0.00174291
0.00177269
0.00173443
0.0017641
0.00172493
0.0017543
0.00171412
0.00174301
0.00170177
0.00172889
0.00221678
0.00210658
0.00206659
0.00197677
0.00194304
0.00188169
0.00186076
0.00182284
0.00180988
0.00178945
0.0017792
0.00177183
0.00176117
0.00176373
0.00175115
0.00176126
0.0017461
0.00176186
0.00174394
0.00176383
0.00174323
0.00176604
0.00174297
0.00176775
0.0017425
0.0017685
0.00174136
0.00176799
0.00173924
0.00176606
0.00173594
0.00176264
0.00173133
0.00175765
0.00172528
0.00175102
0.00171764
0.00174257
0.00170824
0.00173114
0.00202328
0.00191566
0.00189344
0.00180634
0.00179142
0.00173279
0.00172975
0.00169405
0.00169752
0.00167872
0.00168341
0.00167708
0.00167999
0.00168297
0.00168271
0.00169264
0.00168872
0.00170373
0.00169612
0.00171474
0.00170367
0.00172476
0.00171056
0.00173321
0.00171627
0.00173979
0.00172048
0.00174434
0.00172302
0.00174681
0.00172378
0.0017472
0.00172272
0.00174554
0.00171984
0.00174181
0.00171508
0.00173593
0.00170838
0.0017269
0.0018249
0.00172097
0.00171619
0.00163305
0.00163676
0.00158188
0.00159656
0.0015638
0.00158348
0.00156673
0.00158611
0.00158097
0.00159717
0.00160052
0.00161232
0.00162187
0.00162894
0.00164292
0.00164541
0.00166246
0.00166072
0.00167977
0.00167426
0.0016945
0.00168572
0.00170651
0.00169491
0.00171579
0.00170177
0.00172237
0.00170632
0.00172636
0.00170859
0.00172783
0.00170867
0.00172682
0.00170658
0.0017233
0.00170238
0.00171641
0.00162389
0.00152463
0.00153679
0.00145881
0.00148073
0.00143062
0.00146254
0.00143346
0.0014688
0.00145455
0.00148802
0.00148424
0.00151315
0.00151686
0.00154018
0.0015492
0.00156681
0.00157953
0.00159171
0.00160691
0.00161418
0.00163093
0.00163385
0.00165144
0.00165057
0.00166846
0.00166434
0.00168213
0.00167523
0.00169258
0.00168335
0.00170001
0.00168882
0.00170454
0.00169178
0.00170626
0.00169233
0.00170516
0.00169056
0.00170056
0.00142221
0.00132852
0.00135705
0.00128544
0.00132498
0.00128073
0.00132916
0.00130454
0.00135468
0.00134338
0.00139005
0.00138785
0.00142858
0.00143264
0.00146668
0.00147504
0.00150248
0.00151369
0.00153504
0.00154805
0.00156395
0.00157801
0.00158911
0.00160364
0.00161056
0.00162516
0.00162845
0.00164279
0.00164296
0.00165679
0.00165433
0.00166743
0.00166281
0.00167498
0.00166865
0.00167962
0.00167194
0.00168134
0.00167263
0.00167946
0.00122159
0.00113439
0.00117866
0.00111477
0.00117124
0.00113403
0.00119801
0.00117869
0.00124248
0.00123464
0.00129328
0.00129289
0.00134428
0.00134876
0.00139243
0.00140004
0.00143635
0.00144584
0.00147553
0.00148601
0.00150994
0.00152075
0.00153978
0.00155048
0.00156533
0.00157562
0.00158687
0.00159651
0.00160462
0.00161339
0.00161878
0.00162642
0.00162963
0.00163582
0.00163768
0.00164206
0.00164353
0.00164579
0.00164715
0.00164656
0.00102354
0.000943842
0.00100329
0.000948776
0.00102134
0.000992616
0.00107087
0.00105784
0.00113374
0.00112996
0.00119899
0.00120078
0.00126129
0.00126644
0.00131831
0.00132538
0.00136919
0.00137716
0.00141384
0.00142196
0.00145253
0.00146023
0.00148576
0.00149259
0.00151416
0.00151979
0.00153838
0.00154259
0.00155903
0.00156162
0.00157641
0.00157706
0.0015904
0.00158837
0.00160052
0.00159417
0.00160686
0.00159264
0.00161236
0.00158225
0.000829376
0.00075845
0.000832701
0.000789779
0.000877474
0.000859009
0.000949851
0.000944225
0.00103025
0.00103122
0.00110866
0.00111312
0.00118089
0.00118717
0.00124548
0.00125257
0.00130219
0.00130943
0.00135133
0.00135824
0.00139342
0.00139964
0.00142906
0.0014343
0.00145886
0.00146289
0.00148351
0.00148616
0.00150391
0.00150516
0.0015213
0.00152141
0.00153738
0.00153704
0.0015541
0.00155453
0.00157289
0.00157571
0.00159144
0.00160013
0.000640173
0.000579977
0.000669018
0.000640945
0.000742385
0.000736349
0.000837429
0.000840306
0.000933995
0.000940263
0.00102391
0.00103137
0.00110451
0.00111221
0.00117534
0.00118282
0.0012368
0.00124383
0.00128962
0.00129609
0.00133461
0.00134054
0.0013726
0.00137811
0.00140432
0.00140966
0.00143038
0.00143599
0.0014512
0.00145785
0.00146704
0.00147621
0.00147825
0.00149293
0.00148589
0.00151154
0.00149261
0.0015355
0.00150232
0.00155251
0.000456798
0.000411369
0.000515411
0.000507442
0.000619852
0.000628791
0.000736478
0.000748744
0.000846951
0.000858682
0.000946121
0.000956427
0.00103323
0.00104201
0.00110888
0.00111622
0.0011741
0.00118015
0.00123
0.00123491
0.00127765
0.00128155
0.00131802
0.00132109
0.00135203
0.00135442
0.00138052
0.00138241
0.00140427
0.00140589
0.00142395
0.00142577
0.00144004
0.00144326
0.00145262
0.00145948
0.00146109
0.00147363
0.00146378
0.00148892
0.00028018
0.000260853
0.000378145
0.00039896
0.000515462
0.000541998
0.000650305
0.000672482
0.00077091
0.000787967
0.000876215
0.000888966
0.000967393
0.000976677
0.00104599
0.00105245
0.00111352
0.00111762
0.00117136
0.00117344
0.00122074
0.00122104
0.00126272
0.00126142
0.00129819
0.00129548
0.00132787
0.00132405
0.00135234
0.00134794
0.00137201
0.00136814
0.00138716
0.00138573
0.00139796
0.00140128
0.00140469
0.00141449
0.00140783
0.00143174
0.000113508
0.000162882
0.000272731
0.000332659
0.000437538
0.000482994
0.000582679
0.000614678
0.000707581
0.000729682
0.000814873
0.000829807
0.000907069
0.000916664
0.000986254
0.000991733
0.00105417
0.00105637
0.0011123
0.00111181
0.0011619
0.00115915
0.00120402
0.00119937
0.00123954
0.00123338
0.00126921
0.00126201
0.00129362
0.00128611
0.00131323
0.00130654
0.00132832
0.00132419
0.00133908
0.00133988
0.00134587
0.00135424
0.00134914
0.00137341
7.02277e-05
0.000194497
0.000232696
0.000326139
0.00039613
0.000457754
0.000537374
0.000577995
0.000658652
0.000685264
0.000762938
0.000779855
0.000852708
0.000862628
0.000929951
0.000934631
0.00099632
0.000996946
0.00105322
0.00105062
0.00110183
0.00109663
0.00114317
0.00113588
0.0011781
0.00116923
0.00120735
0.00119747
0.0012315
0.00122141
0.00125099
0.00124187
0.0012661
0.00125973
0.00127706
0.00127595
0.0012841
0.00129125
0.00128718
0.00131091
0.000217387
0.000307559
0.000276105
0.000374559
0.000396689
0.000466722
0.000516755
0.000563392
0.000625423
0.000655563
0.000721289
0.00073983
0.000805041
0.000815214
0.000877809
0.000881769
0.000940768
0.00093999
0.000995027
0.000990557
0.00104159
0.00103421
0.00108135
0.0010717
0.00111509
0.00110375
0.00114345
0.00113111
0.00116698
0.0011545
0.00118608
0.00117473
0.00120103
0.00119269
0.00121204
0.0012094
0.00121916
0.00122538
0.00122195
0.00124478
0.000363353
0.000434943
0.000366412
0.00045411
0.000433301
0.00050324
0.000520083
0.000569267
0.000608178
0.000640463
0.000690438
0.000710074
0.000764647
0.000774915
0.000830439
0.000833698
0.000888157
0.000886085
0.000938407
0.000932219
0.000981874
0.000972489
0.00101924
0.0010074
0.00105112
0.00103753
0.00107808
0.00106349
0.00110057
0.00108593
0.00111896
0.00110562
0.00113351
0.00112348
0.00114439
0.00114048
0.00115152
0.00115697
0.00115402
0.00117572
0.000501188
0.000560229
0.000470803
0.000545733
0.000492853
0.000557498
0.000543267
0.000591744
0.000605825
0.000638717
0.000670302
0.000690407
0.000731802
0.00074198
0.000788259
0.000790843
0.000838962
0.000835726
0.00088385
0.000876129
0.000923171
0.000911996
0.00095731
0.000943529
0.00098669
0.000971083
0.00101172
0.00099512
0.00103277
0.0010162
0.00105012
0.00103503
0.00106402
0.00105252
0.00107463
0.00106963
0.00108169
0.00108644
0.00108385
0.00110421
0.000629881
0.000679002
0.000576078
0.000639443
0.000563573
0.000620895
0.000580456
0.00062593
0.000616025
0.000648118
0.00066014
0.000680075
0.000706454
0.000716358
0.000751508
0.000753472
0.000793549
0.000789321
0.000831777
0.00082275
0.000865927
0.000853214
0.000896028
0.000880559
0.000922254
0.000904887
0.000944836
0.000926475
0.00096401
0.000945763
0.000979997
0.00096339
0.000993007
0.000980244
0.00100319
0.000997227
0.00101009
0.00101417
0.00101185
0.00103062
0.000748972
0.000789583
0.000677121
0.000730332
0.000637775
0.000687396
0.000625951
0.00066714
0.000635715
0.000665931
0.000658622
0.000677815
0.000688198
0.000697663
0.000720241
0.000721665
0.000752188
0.000747178
0.000782555
0.000772492
0.000810552
0.000796591
0.000835815
0.000818952
0.000858237
0.000839394
0.000877841
0.000857991
0.00089472
0.000875041
0.000909004
0.000891099
0.00092087
0.000907021
0.000930442
0.000923652
0.000937083
0.00094053
0.000938369
0.000955281
0.000858182
0.000891171
0.000771646
0.000815856
0.000710913
0.000753107
0.00067517
0.000711533
0.000661708
0.000689346
0.000664008
0.00068201
0.000676299
0.000685197
0.000694306
0.000695302
0.000715038
0.000709499
0.000736497
0.000725719
0.000757425
0.000742563
0.000777078
0.000759164
0.00079505
0.000775062
0.000811144
0.000790114
0.00082529
0.00080446
0.000837519
0.000818565
0.000847973
0.000833247
0.000856754
0.000849278
0.000863026
0.000865865
0.000863749
0.000878543
0.000957333
0.000983337
0.000858482
0.000894595
0.000780306
0.00081555
0.00072476
0.000756199
0.000691117
0.00071581
0.000674383
0.000690901
0.000669753
0.000678016
0.000673349
0.000674069
0.000682141
0.000676376
0.000693863
0.000682756
0.000706917
0.000691571
0.000720232
0.000701686
0.000733122
0.000712392
0.000745167
0.000723334
0.000756132
0.000734496
0.000765943
0.000746245
0.000774705
0.000759356
0.000782511
0.000774527
0.000788308
0.000790589
0.000788383
0.000800792
0.00104632
0.00106584
0.00093697
0.000965711
0.000844311
0.000873128
0.000772354
0.000799016
0.000721533
0.000743178
0.00068786
0.000702764
0.000667394
0.000675029
0.000656842
0.000657481
0.000653427
0.000647792
0.000654872
0.000643894
0.000659407
0.000644086
0.000665735
0.000647079
0.000672942
0.000651977
0.000680406
0.000658249
0.000687734
0.000665731
0.000694752
0.000674701
0.000701538
0.000685897
0.000708181
0.000699932
0.000713405
0.000715223
0.000712754
0.000722517
0.00112508
0.00113857
0.00100671
0.00102868
0.000901866
0.000924784
0.000816272
0.000838461
0.000751033
0.00076973
0.000702723
0.000716035
0.000668002
0.000675091
0.000644134
0.000644922
0.000628737
0.000623626
0.000619715
0.000609396
0.000615312
0.000600631
0.000614134
0.00059602
0.000615121
0.000594575
0.000617496
0.000595643
0.000620734
0.00059895
0.000624579
0.000604701
0.000629098
0.000613614
0.000634395
0.000626219
0.000638959
0.00064047
0.000637513
0.000644377
0.00119362
0.00120145
0.00106742
0.00108321
0.000952211
0.000969799
0.000855274
0.000873416
0.000778116
0.000794107
0.000717518
0.000729355
0.000670436
0.000677102
0.000634544
0.000635727
0.000607865
0.00060371
0.000588599
0.000579554
0.000575143
0.000561859
0.000566137
0.000549412
0.00056048
0.000541237
0.000557316
0.000536643
0.000556036
0.0005353
0.000556336
0.000537383
0.000558303
0.000543618
0.00056208
0.00055446
0.000565908
0.000567351
0.000563596
0.000567315
0.00125196
0.00125459
0.0011188
0.00112908
0.000994697
0.00100759
0.000888426
0.000903025
0.000801727
0.000815332
0.000731204
0.000741781
0.000673824
0.000680314
0.000627535
0.000629511
0.000590713
0.000588126
0.000561866
0.00055493
0.000539615
0.00052876
0.000522739
0.000508576
0.000510201
0.000493515
0.00050116
0.000482939
0.000494997
0.00047654
0.000491418
0.000474518
0.000490578
0.000477651
0.000492685
0.000486323
0.0004957
0.000497421
0.000492427
0.000492796
0.00130016
0.00129841
0.00116042
0.00116594
0.00102876
0.00103767
0.000915321
0.00092704
0.000821551
0.000833401
0.00074342
0.000753415
0.000677825
0.000684925
0.00062296
0.000626655
0.000577483
0.000577543
0.00054015
0.000536564
0.000509796
0.000502765
0.000485377
0.000475311
0.000465997
0.000453519
0.000450925
0.00043689
0.000439637
0.000425214
0.000431942
0.00041877
0.000428129
0.000418389
0.000428484
0.00042435
0.000430602
0.000432952
0.000426202
0.00042296
0.00133833
0.00133337
0.00119194
0.00119334
0.00105439
0.00106037
0.00093648
0.000946772
0.000838026
0.000849674
0.000754281
0.000765209
0.000682379
0.000691506
0.00062081
0.000627534
0.000568408
0.000572372
0.000524068
0.000525113
0.000486776
0.000484937
0.000455643
0.000451159
0.000429929
0.000423259
0.000409054
0.000400922
0.000392661
0.000384125
0.000380766
0.000373311
0.000373912
0.000369361
0.000372511
0.000372231
0.000373656
0.000377376
0.000367893
0.000361065
0.00136641
0.00135428
0.00121316
0.00121292
0.00107227
0.00107941
0.000951961
0.000964269
0.000850128
0.000863908
0.000762192
0.00077541
0.000685742
0.000697535
0.000619407
0.000629401
0.000562039
0.000570054
0.000512572
0.000518538
0.00047007
0.000474008
0.000433757
0.000435793
0.00040302
0.000403418
0.000377425
0.000376637
0.000356772
0.000355525
0.000341256
0.000340673
0.000331596
0.000333115
0.000328189
0.000332695
0.000327587
0.000334357
0.000319927
0.000314607
0.00138048
0.00135994
0.00122387
0.00122233
0.00108012
0.00108706
0.000957478
0.000967652
0.000852899
0.000863462
0.000762259
0.000772484
0.000683204
0.000693038
0.000614254
0.000623657
0.000554201
0.000563051
0.000501984
0.000510138
0.000456705
0.000464042
0.000417639
0.000424107
0.000384239
0.000389911
0.000356155
0.000361304
0.000333322
0.000338448
0.000316148
0.00032187
0.000305543
0.000312087
0.000301531
0.000307569
0.000298876
0.000301415
0.00028562
0.000278063
0.000213299
0.000243961
0.000247412
0.000277994
0.00030105
0.000332586
0.000368833
0.000400524
0.000444435
0.00047574
0.000523625
0.000554451
0.000604307
0.000634558
0.000685353
0.000714783
0.00076604
0.000794294
0.000845845
0.000872528
0.000924373
0.000949081
0.0010013
0.00102365
0.00107634
0.00109599
0.00114919
0.00116585
0.00121951
0.00123302
0.00128688
0.00129726
0.00135073
0.00135824
0.00141015
0.00141431
0.00146313
0.00146271
0.00150248
0.00152989
0.000209403
0.000243789
0.000234228
0.000282339
0.000287372
0.000338574
0.000353958
0.000405179
0.000427771
0.000477715
0.000505138
0.000553295
0.000583909
0.000630074
0.00066285
0.000706867
0.000741215
0.000782894
0.000818512
0.00085762
0.00089439
0.000930665
0.000968576
0.00100175
0.00104083
0.00107064
0.00111093
0.00113712
0.0011786
0.0012009
0.00124355
0.00126161
0.0013055
0.00131882
0.00136403
0.00137233
0.00141863
0.0014244
0.00146974
0.00147849
0.000226894
0.000259697
0.000249599
0.000297183
0.000298681
0.000350707
0.00036027
0.00041336
0.000428509
0.000481423
0.000500495
0.00055255
0.000574342
0.000625065
0.000648735
0.000697787
0.000722803
0.000769909
0.000795979
0.000840876
0.00086788
0.000910296
0.000938233
0.000977873
0.00100682
0.00104335
0.00107341
0.00110645
0.00113774
0.00116689
0.00119946
0.00122456
0.00125814
0.00127984
0.00131343
0.00133386
0.0013663
0.00138587
0.00141842
0.00143089
0.000244866
0.000275815
0.000265591
0.000310224
0.000310615
0.000359679
0.000367308
0.000417982
0.000430553
0.000481669
0.000497668
0.000548547
0.000566923
0.000617033
0.000637055
0.000685961
0.000707148
0.0007545
0.000776568
0.000822063
0.000844877
0.000888228
0.000911755
0.000952671
0.000976935
0.00101512
0.00104015
0.00107535
0.00110111
0.00113328
0.00115958
0.00118909
0.00121569
0.00124328
0.00127028
0.001296
0.00132416
0.00134543
0.00137565
0.0013867
0.000260144
0.00028931
0.000278408
0.000320303
0.00031988
0.0003657
0.000372394
0.0004199
0.000431437
0.000479582
0.000494456
0.000542588
0.000559768
0.00060737
0.00062615
0.000672791
0.0006927
0.000738018
0.000758755
0.000802444
0.000823834
0.000865622
0.000887573
0.000927224
0.00094968
0.000987011
0.00100991
0.00104486
0.00106813
0.00110077
0.00112443
0.00115491
0.00117922
0.0012074
0.00123292
0.00125785
0.00128482
0.00130468
0.00133231
0.00134383
0.000274871
0.000302238
0.000290517
0.000329864
0.000328537
0.000371347
0.000377275
0.000421611
0.000432513
0.000477455
0.000491791
0.000536749
0.000553462
0.00059797
0.00061633
0.00066
0.000679507
0.000722014
0.000742333
0.000783405
0.00080431
0.000843724
0.000865067
0.000902648
0.00092433
0.000959969
0.000981938
0.00101558
0.00103787
0.00106948
0.00109226
0.00112169
0.00114527
0.00117219
0.00119675
0.00122053
0.00124568
0.00126529
0.0012901
0.00130336
0.000290822
0.0003162
0.000303948
0.000340569
0.000338364
0.000378192
0.000383317
0.000424538
0.000434796
0.000476552
0.000490392
0.000532153
0.000548481
0.000589839
0.000607885
0.000648507
0.000667731
0.000707341
0.000727365
0.000765738
0.000786299
0.000823255
0.000844177
0.000879574
0.000900752
0.000934482
0.000955886
0.000987855
0.00100953
0.00103965
0.0010617
0.00108985
0.00111238
0.00113839
0.00116136
0.00118479
0.00120784
0.00122778
0.00125015
0.00126492
0.000308242
0.000331556
0.00031912
0.00035285
0.00034987
0.000386682
0.000390916
0.000429105
0.000438551
0.000477267
0.000490422
0.000529162
0.000544922
0.000583318
0.000600881
0.000638643
0.000657432
0.000694326
0.000713929
0.000749767
0.000769894
0.000804522
0.000824979
0.000858269
0.00087894
0.000910784
0.000931616
0.000961921
0.000982912
0.00101161
0.00103278
0.00105979
0.0010812
0.00110636
0.00112797
0.00115084
0.00117237
0.0011921
0.00121292
0.0012281
0.000326695
0.000348059
0.000335668
0.000366548
0.000362898
0.000396753
0.000400032
0.000435315
0.000443775
0.000479646
0.000491891
0.000527846
0.000542806
0.000578492
0.000595355
0.000630506
0.000648671
0.00068308
0.000702108
0.000735609
0.000755187
0.000787645
0.000807555
0.000838857
0.000858956
0.000889009
0.000909213
0.00093794
0.000958214
0.000985543
0.00100589
0.00103172
0.00105218
0.00107632
0.00109683
0.00111898
0.00113919
0.00115885
0.00117797
0.00119413
0.000345724
0.00036535
0.000353127
0.000381361
0.000377132
0.000408195
0.000410511
0.000443051
0.000450421
0.000483636
0.000494814
0.000528199
0.000542178
0.000575382
0.000591369
0.000624132
0.000641518
0.000673645
0.000691973
0.000723312
0.000742247
0.000772676
0.000791976
0.000821396
0.00084089
0.000869222
0.000888801
0.000915975
0.000935578
0.000961526
0.000981132
0.00100576
0.00102535
0.00104851
0.001068
0.00108945
0.00110852
0.00112789
0.00114585
0.00116268
0.000365023
0.000383136
0.000371144
0.000397
0.000392281
0.000420778
0.00042217
0.000452157
0.000458415
0.000489151
0.000499185
0.00053018
0.000543073
0.000573975
0.000588971
0.000619523
0.000636022
0.00066603
0.000683569
0.000712886
0.000731112
0.000759626
0.000778276
0.000805897
0.00082478
0.000851435
0.000870418
0.000896044
0.000915038
0.000939579
0.000958521
0.000981905
0.00100075
0.00102284
0.00104152
0.00106209
0.00108035
0.0010991
0.00111634
0.00113298
0.000384403
0.000401198
0.000389478
0.000413229
0.000408101
0.000434278
0.00043482
0.000462455
0.000467633
0.000496062
0.000504943
0.000533705
0.000545468
0.000574219
0.000588161
0.000616643
0.000632188
0.000660208
0.000676893
0.000704306
0.000721771
0.000748468
0.000766435
0.000792331
0.000810592
0.000835617
0.000854019
0.000878114
0.000896548
0.000919655
0.000938042
0.000960086
0.000978363
0.000999238
0.00101731
0.00103689
0.00105449
0.00107263
0.00108911
0.00110576
0.000403732
0.000419377
0.000407954
0.000429847
0.000424392
0.000448487
0.000448265
0.000473754
0.000477916
0.000504214
0.00051197
0.000538652
0.00054928
0.000576018
0.000588878
0.000615418
0.000629964
0.000656114
0.000671898
0.000697513
0.000714171
0.000739143
0.000756391
0.000780637
0.000798251
0.000821704
0.000839514
0.00086212
0.000879995
0.000901698
0.000919537
0.000940279
0.000957991
0.00097772
0.000995185
0.00101385
0.00103082
0.00104834
0.0010643
0.00108057
0.000422916
0.000437547
0.000426439
0.000446691
0.00044098
0.000463216
0.000462319
0.000485863
0.000489086
0.000513428
0.00052011
0.000544864
0.00055438
0.000579239
0.000591014
0.000615733
0.000629259
0.00065365
0.000668497
0.000692416
0.000708229
0.000731568
0.000748056
0.000770734
0.000787664
0.000809619
0.000826804
0.000847986
0.000865277
0.000885646
0.000902919
0.00092244
0.000939587
0.000958234
0.000975143
0.0009929
0.00100935
0.00102619
0.00104163
0.00105757
0.000441877
0.000455607
0.000444823
0.000463621
0.000457717
0.000478295
0.000476809
0.000498597
0.000500964
0.000523519
0.000529192
0.000552169
0.000560612
0.000583726
0.000594429
0.000617449
0.000629947
0.00065269
0.000666579
0.000688902
0.000703837
0.000725636
0.000741329
0.000762523
0.000778735
0.000799266
0.000815801
0.000835624
0.000852318
0.000871405
0.000888123
0.000906452
0.000923086
0.00094064
0.000957091
0.000973832
0.000989931
0.00100575
0.00102109
0.00103603
0.000460548
0.000473469
0.000463011
0.000480516
0.000474474
0.00049357
0.000491576
0.000511782
0.000513377
0.000534307
0.000539042
0.000560387
0.000567808
0.000589309
0.000598969
0.000620407
0.000631887
0.000653088
0.000666011
0.000686838
0.000700877
0.000721224
0.000736098
0.000755887
0.000771359
0.000790533
0.000806403
0.000824922
0.000841021
0.000858859
0.000875046
0.000892181
0.000908342
0.000924757
0.000940786
0.000956461
0.000972175
0.000987082
0.00100202
0.0010164
0.000478868
0.000491055
0.000480922
0.000497272
0.000491136
0.000508907
0.000506476
0.000525258
0.000526161
0.000545617
0.000549486
0.000569341
0.000575796
0.000595812
0.000604467
0.000624441
0.000634921
0.000654687
0.000666649
0.000686074
0.00069921
0.000718192
0.000732233
0.000750695
0.000765409
0.000783294
0.000798482
0.000815751
0.000831244
0.00084787
0.000863525
0.000879491
0.000895186
0.000910487
0.000926103
0.000940741
0.000956096
0.000970064
0.000984777
0.00099829
0.000496778
0.000508295
0.000498481
0.000513793
0.0005076
0.000524182
0.00052138
0.000538879
0.000539165
0.000557285
0.000560362
0.000578856
0.000584408
0.000603059
0.000610756
0.000629377
0.000638888
0.00065732
0.000668335
0.000686452
0.000698686
0.000716389
0.000729588
0.000746801
0.000760742
0.000777408
0.000791897
0.000807977
0.000822842
0.000838313
0.000853404
0.000868262
0.000883447
0.000897706
0.00091286
0.000926547
0.000941496
0.000954636
0.000969001
0.000981853
0.00051422
0.00052512
0.000515617
0.000529991
0.000523771
0.000539284
0.000536166
0.000552509
0.000552247
0.000569157
0.000571512
0.000588766
0.000593478
0.00061088
0.000617668
0.000635043
0.000643619
0.000660819
0.000670906
0.000687809
0.000699148
0.000715658
0.000728011
0.000744054
0.000757209
0.00077273
0.000786498
0.00080146
0.000815673
0.000830055
0.000844564
0.000858362
0.000873037
0.000886266
0.000900992
0.00091367
0.000928304
0.00094042
0.000954662
0.000966411
0.000531135
0.000541462
0.000532259
0.000545783
0.000539561
0.000554109
0.000550723
0.000566022
0.000565275
0.000581088
0.000582787
0.000598914
0.000602847
0.000619107
0.000625038
0.000641269
0.000648951
0.000665013
0.0006742
0.000689978
0.000700435
0.000715836
0.000727345
0.000742297
0.000754659
0.000769109
0.000782142
0.000796054
0.000809598
0.000822952
0.000836864
0.000849652
0.000863809
0.000876033
0.000890327
0.000901992
0.000916283
0.000927369
0.000941356
0.000952111
0.000547462
0.000557254
0.00054834
0.00056109
0.000554883
0.000568557
0.000564947
0.0005793
0.000578125
0.000592944
0.000594049
0.000609151
0.000612364
0.000627582
0.000632709
0.000647892
0.000654721
0.000669738
0.000678053
0.000692794
0.000702387
0.000716763
0.000727434
0.000741374
0.000752939
0.000766392
0.000778679
0.000791612
0.000804465
0.00081686
0.000830138
0.000841994
0.000855569
0.000866898
0.000880648
0.00089147
0.000905231
0.00091558
0.000929023
0.000939255
0.000563139
0.000572429
0.00056379
0.000575831
0.000569656
0.000582535
0.000578737
0.000592233
0.000590679
0.000604597
0.000605163
0.000619334
0.000621884
0.000636153
0.000640527
0.000654753
0.000660771
0.00067483
0.000682308
0.000696095
0.000704847
0.000718277
0.000728122
0.000741128
0.000751897
0.000764428
0.000775962
0.000787986
0.000800135
0.000811635
0.000824261
0.000835241
0.000848217
0.0008587
0.00087191
0.000881916
0.000895241
0.000904736
0.000917976
0.00092709
0.0005781
0.000586915
0.000578538
0.000589929
0.000583796
0.00059595
0.000591995
0.000604713
0.000602824
0.000615924
0.000616004
0.000629329
0.000631269
0.000644674
0.000648345
0.000661698
0.00066695
0.000680134
0.000686809
0.000699722
0.000707658
0.000720218
0.000729256
0.000741398
0.000751382
0.000763059
0.000773843
0.000785023
0.000796469
0.000807133
0.000819114
0.000829257
0.000841656
0.000851286
0.000863992
0.00087313
0.000886003
0.000894662
0.000907432
0.000915878
0.000592276
0.000600639
0.000592511
0.000603301
0.00059722
0.000608711
0.000604627
0.000616635
0.000614453
0.000626809
0.00062645
0.000639006
0.000640386
0.000653006
0.000656022
0.00066858
0.00067311
0.000685495
0.000691405
0.000703519
0.000710669
0.000722432
0.000730683
0.00074203
0.000751245
0.000762128
0.000772172
0.000782563
0.000793307