/*--------------------------------*- C++ -*----------------------------------*\
| =========                 |                                                 |
| \\      /  F ield         | OpenFOAM: The Open Source CFD Toolbox           |
|  \\    /   O peration     | Version:  v2012                                 |
|   \\  /    A nd           | Website:  www.openfoam.com                      |
|    \\/     M anipulation  |                                                 |
\*---------------------------------------------------------------------------*/
FoamFile
{
    version     2.0;
    format      ascii;
    class       pointVectorField;
    location    "11";
    object      pointD;
}
// * * * * * * * * * * * * * * * * * * * * * * * * * * * * * * * * * * * * * //

dimensions      [0 1 0 0 0 0 0];


internalField   nonuniform List<vector> 
7900
(
(0.0037206 0 2.33279e-21)
(0.0049916 0 7.69335e-22)
(0.00459527 -0.000381227 -5.22022e-21)
(0 -0.00283537 0)
(0 -0.00142621 0)
(0.0037206 0 2.33279e-21)
(0.0049916 0 7.69335e-22)
(0.00459527 -0.000381227 -5.22022e-21)
(0 -0.00283537 0)
(0 -0.00142621 0)
(0.00373986 0 0)
(0.00375949 0 0)
(0.00377502 0 0)
(0.00378735 0 0)
(0.00379643 0 0)
(0.00380383 0 0)
(0.00381001 0 0)
(0.00381552 0 0)
(0.00382115 0 0)
(0.00382763 0 0)
(0.00383416 0 0)
(0.00384089 0 0)
(0.00384914 0 0)
(0.00385659 0 0)
(0.00386513 0 0)
(0.0038757 0 0)
(0.0038858 0 0)
(0.00389771 0 0)
(0.00391048 0 0)
(0.00392349 0 0)
(0.00393788 0 0)
(0.00395285 0 0)
(0.00396861 0 0)
(0.00398489 0 0)
(0.00400182 0 0)
(0.00402038 0 0)
(0.00403988 0 0)
(0.00406029 0 0)
(0.00408164 0 0)
(0.00410343 0 0)
(0.00412575 0 0)
(0.00414931 0 0)
(0.00417354 0 0)
(0.00419806 0 0)
(0.00422429 0 0)
(0.00425013 0 0)
(0.00427557 0 0)
(0.00430276 0 0)
(0.00433092 0 0)
(0.00435946 0 0)
(0.00438884 0 0)
(0.00441841 0 0)
(0.00444733 0 0)
(0.00447755 0 0)
(0.00450991 0 0)
(0.0045417 0 0)
(0.00457256 0 0)
(0.00460357 0 0)
(0.00463742 0 0)
(0.00467151 0 0)
(0.00470477 0 0)
(0.00473786 0 0)
(0.00477005 0 0)
(0.00480317 0 0)
(0.0048357 0 0)
(0.00486754 0 0)
(0.00490285 0 0)
(0.00493729 0 0)
(0.00496688 0 0)
(0.00500106 -1.15383e-06 7.69335e-22)
(0.00499984 -2.23281e-06 0)
(0.00499745 -3.40598e-06 0)
(0.00499394 -4.89879e-06 4.96023e-21)
(0.00498959 -6.52212e-06 6.82613e-21)
(0.00498419 -8.45809e-06 -3.9047e-22)
(0.00497815 -1.06366e-05 3.99147e-22)
(0.00497148 -1.30725e-05 -1.95909e-21)
(0.00496339 -1.60169e-05 -4.6146e-21)
(0.00495434 -1.94633e-05 -1.31955e-21)
(0.00494477 -2.34843e-05 3.04872e-22)
(0.00493464 -2.79332e-05 1.62442e-21)
(0.00492433 -3.2747e-05 -1.90168e-21)
(0.00491279 -3.83339e-05 -4.1483e-21)
(0.00490067 -4.47061e-05 -4.46965e-22)
(0.00488889 -5.12981e-05 -2.76605e-22)
(0.00487619 -5.85473e-05 -2.53572e-21)
(0.00486275 -6.69957e-05 -4.59455e-22)
(0.00484944 -7.58788e-05 -2.54248e-21)
(0.00483592 -8.5295e-05 -3.40978e-22)
(0.00482228 -9.55076e-05 4.06641e-21)
(0.00480838 -0.00010644 2.24266e-21)
(0.00479402 -0.000118528 2.91899e-21)
(0.00478041 -0.00013086 5.80896e-21)
(0.00476725 -0.000143438 7.68071e-21)
(0.00475359 -0.000157245 2.75128e-21)
(0.00474053 -0.000171294 9.04628e-23)
(0.00472826 -0.000185279 1.6943e-21)
(0.0047158 -0.000200426 4.57496e-21)
(0.00470355 -0.000216253 2.13191e-21)
(0.00469211 -0.000231944 3.65802e-21)
(0.00468072 -0.000248576 7.28336e-21)
(0.00466973 -0.000265545 1.12444e-21)
(0.00465965 -0.000282017 -7.80749e-22)
(0.00464962 -0.000299255 2.94621e-21)
(0.00464008 -0.000316443 1.85113e-21)
(0.00463022 -0.00033487 -1.87583e-21)
(0.00462193 -0.000350681 -2.41728e-21)
(0.00461459 -0.00036478 -6.08953e-21)
(0.00456277 -0.000393176 -1.54796e-21)
(0.00452767 -0.000401103 -5.44946e-22)
(0.0044873 -0.000410127 -5.64586e-22)
(0.00444614 -0.000419127 1.18442e-21)
(0.00440908 -0.000426867 1.20406e-21)
(0.00437117 -0.000434425 0)
(0.00433288 -0.000441611 3.08277e-22)
(0.00429507 -0.000448245 5.08044e-23)
(0.00425526 -0.000454686 -2.57473e-22)
(0.00421501 -0.000460653 -5.54696e-22)
(0.0041731 -0.000466341 1.87824e-21)
(0.00413068 -0.000471645 1.63672e-21)
(0.00409093 -0.000476004 1.36707e-21)
(0.00405056 -0.000479967 1.48369e-21)
(0.00400765 -0.000483836 1.15475e-21)
(0.00396262 -0.00048755 8.25389e-22)
(0.00391941 -0.000490727 -1.00896e-21)
(0.00387661 -0.000493587 -1.27777e-21)
(0.00383112 -0.000496433 -6.60112e-22)
(0.00378434 -0.000499225 -7.62167e-22)
(0.00373714 -0.000501933 -2.88589e-21)
(0.00369033 -0.000504536 -2.26454e-21)
(0.00363898 -0.000507551 -1.99115e-21)
(0.00358619 -0.000510725 4.16472e-23)
(0.00353735 -0.000513746 1.98522e-21)
(0.00348692 -0.000517041 7.10904e-22)
(0.00343429 -0.000520775 5.94895e-22)
(0.0033812 -0.000524858 2.58065e-21)
(0.00332798 -0.000529443 -1.31005e-22)
(0.00326831 -0.000535313 -5.10102e-21)
(0.00320665 -0.000541925 -2.98426e-21)
(0.00314736 -0.000548862 0)
(0.003087 -0.000556789 0)
(0.00302726 -0.000565279 -1.44733e-21)
(0.00296644 -0.000574704 -7.54011e-21)
(0.00289712 -0.000586914 -1.92708e-21)
(0.00282866 -0.000600047 2.10972e-21)
(0.00276334 -0.000613637 4.6623e-22)
(0.00269424 -0.000629076 8.96744e-22)
(0.0026288 -0.000645051 4.01837e-22)
(0.00255576 -0.000664535 2.43777e-21)
(0.00248108 -0.000686027 -2.12252e-21)
(0.0024058 -0.00070945 -4.98267e-21)
(0.00232797 -0.000735312 -2.44969e-21)
(0.00225437 -0.000761789 -2.5367e-22)
(0.00217952 -0.000790413 1.03082e-21)
(0.00209973 -0.000823015 -3.55878e-21)
(0.00201731 -0.000858963 -2.21285e-21)
(0.00193738 -0.000896348 2.63042e-21)
(0.00185519 -0.000937296 1.37917e-21)
(0.00177158 -0.000981767 -8.78741e-22)
(0.00168924 -0.00102784 -1.83077e-21)
(0.00160926 -0.00107475 6.61748e-21)
(0.00152787 -0.00112514 8.55134e-21)
(0.00144253 -0.00118079 -1.71731e-21)
(0.001347 -0.00124681 -9.17303e-21)
(0.00125175 -0.00131596 -8.74904e-21)
(0.00118099 -0.00137046 -5.92331e-21)
(0.0011024 -0.00143555 5.34396e-21)
(0.00101364 -0.00151246 9.77841e-21)
(0.000936809 -0.00158299 -8.48049e-21)
(0.00085722 -0.0016597 -1.36167e-21)
(0.000776205 -0.00174216 -2.01564e-21)
(0.000700803 -0.00182375 -1.63485e-21)
(0.000624516 -0.00191191 9.66508e-21)
(0.000550001 -0.00200253 -2.67594e-21)
(0.00048532 -0.00208753 -8.42785e-23)
(0.000421935 -0.00217466 2.59166e-21)
(0.000362205 -0.00226278 -3.13087e-23)
(0.000309661 -0.00234592 -3.13087e-23)
(0.000260076 -0.00243011 -4.54349e-21)
(0.000214566 -0.00251103 3.993e-22)
(0.000176232 -0.00257961 1.67654e-21)
(0.000142007 -0.00264261 -6.34678e-21)
(0.000110612 -0.00270136 9.28717e-22)
(8.3909e-05 -0.00274982 5.03483e-21)
(5.97255e-05 -0.00278719 1.02559e-21)
(3.80055e-05 -0.00281501 0)
(1.87681e-05 -0.00283114 0)
(0 -0.00282686 0)
(0 -0.00281482 0)
(0 -0.00279939 0)
(0 -0.00278052 0)
(0 -0.00276124 0)
(0 -0.00274208 0)
(0 -0.00272418 0)
(0 -0.00270603 0)
(0 -0.00268609 0)
(0 -0.00266724 0)
(0 -0.00264856 0)
(0 -0.00261661 0)
(0 -0.00256369 0)
(0 -0.00248849 0)
(0 -0.00237637 0)
(0 -0.00222768 0)
(0 -0.00205344 0)
(0 -0.00185503 0)
(0 -0.00162753 0)
(0.000331364 -0.0013653 -9.41958e-21)
(0.000631504 -0.00141376 5.56054e-22)
(0.000912225 -0.00148273 9.83441e-21)
(0.00118033 -0.00156955 1.5824e-20)
(0.0014236 -0.0016661 1.6401e-21)
(0.0016354 -0.00174664 -1.95368e-20)
(0.00182266 -0.00179799 -1.26485e-20)
(0.00197535 -0.00179212 1.05629e-21)
(0.00209394 -0.00173702 2.09754e-21)
(0.00221254 -0.00166482 3.138e-21)
(0.00232958 -0.00158996 7.83746e-21)
(0.00245522 -0.00151002 2.11466e-20)
(0.00257836 -0.00142609 2.28717e-20)
(0.00267925 -0.0013529 2.70068e-22)
(0.00278751 -0.00127263 2.07365e-21)
(0.00289216 -0.00119162 -7.82844e-21)
(0.00299021 -0.00111076 -1.58418e-20)
(0.00308512 -0.00102796 -6.19548e-21)
(0.00316751 -0.000953883 -1.47395e-23)
(0.00324817 -0.00087531 1.5846e-23)
(0.00332326 -0.000798458 6.77726e-21)
(0.00338721 -0.000729038 6.83907e-21)
(0.00345021 -0.000649268 2.2293e-21)
(0.00350922 -0.000568522 5.71923e-21)
(0.00355689 -0.000497502 3.36758e-22)
(0.00359605 -0.000427851 -5.74521e-21)
(0.0036314 -0.000358752 9.05808e-22)
(0.00366163 -0.000287318 6.02162e-21)
(0.0036846 -0.000216325 1.33359e-21)
(0.0037008 -0.000148751 -1.27572e-21)
(0.00370954 -7.5546e-05 2.32366e-21)
(0.00373986 0 0)
(0.00375949 0 0)
(0.00377502 0 0)
(0.00378735 0 0)
(0.00379643 0 0)
(0.00380383 0 0)
(0.00381001 0 0)
(0.00381552 0 0)
(0.00382115 0 0)
(0.00382763 0 0)
(0.00383416 0 0)
(0.00384089 0 0)
(0.00384914 0 0)
(0.00385659 0 0)
(0.00386513 0 0)
(0.0038757 0 0)
(0.0038858 0 0)
(0.00389771 0 0)
(0.00391048 0 0)
(0.00392349 0 0)
(0.00393788 0 0)
(0.00395285 0 0)
(0.00396861 0 0)
(0.00398489 0 0)
(0.00400182 0 0)
(0.00402038 0 0)
(0.00403988 0 0)
(0.00406029 0 0)
(0.00408164 0 0)
(0.00410343 0 0)
(0.00412575 0 0)
(0.00414931 0 0)
(0.00417354 0 0)
(0.00419806 0 0)
(0.00422429 0 0)
(0.00425013 0 0)
(0.00427557 0 0)
(0.00430276 0 0)
(0.00433092 0 0)
(0.00435946 0 0)
(0.00438884 0 0)
(0.00441841 0 0)
(0.00444733 0 0)
(0.00447755 0 0)
(0.00450991 0 0)
(0.0045417 0 0)
(0.00457256 0 0)
(0.00460357 0 0)
(0.00463742 0 0)
(0.00467151 0 0)
(0.00470477 0 0)
(0.00473786 0 0)
(0.00477005 0 0)
(0.00480317 0 0)
(0.0048357 0 0)
(0.00486754 0 0)
(0.00490285 0 0)
(0.00493729 0 0)
(0.00496688 0 0)
(0.00500106 -1.15383e-06 7.69335e-22)
(0.00499984 -2.23281e-06 0)
(0.00499745 -3.40598e-06 0)
(0.00499394 -4.89879e-06 4.96023e-21)
(0.00498959 -6.52212e-06 6.82613e-21)
(0.00498419 -8.45809e-06 -3.9047e-22)
(0.00497815 -1.06366e-05 3.99147e-22)
(0.00497148 -1.30725e-05 -1.95909e-21)
(0.00496339 -1.60169e-05 -4.6146e-21)
(0.00495434 -1.94633e-05 -1.31955e-21)
(0.00494477 -2.34843e-05 3.04872e-22)
(0.00493464 -2.79332e-05 1.62442e-21)
(0.00492433 -3.2747e-05 -1.90168e-21)
(0.00491279 -3.83339e-05 -4.1483e-21)
(0.00490067 -4.47061e-05 -4.46965e-22)
(0.00488889 -5.12981e-05 -2.76605e-22)
(0.00487619 -5.85473e-05 -2.53572e-21)
(0.00486275 -6.69957e-05 -4.59455e-22)
(0.00484944 -7.58788e-05 -2.54248e-21)
(0.00483592 -8.5295e-05 -3.40978e-22)
(0.00482228 -9.55076e-05 4.06641e-21)
(0.00480838 -0.00010644 2.24266e-21)
(0.00479402 -0.000118528 2.91899e-21)
(0.00478041 -0.00013086 5.80896e-21)
(0.00476725 -0.000143438 7.68071e-21)
(0.00475359 -0.000157245 2.75128e-21)
(0.00474053 -0.000171294 9.04628e-23)
(0.00472826 -0.000185279 1.6943e-21)
(0.0047158 -0.000200426 4.57496e-21)
(0.00470355 -0.000216253 2.13191e-21)
(0.00469211 -0.000231944 3.65802e-21)
(0.00468072 -0.000248576 7.28336e-21)
(0.00466973 -0.000265545 1.12444e-21)
(0.00465965 -0.000282017 -7.80749e-22)
(0.00464962 -0.000299255 2.94621e-21)
(0.00464008 -0.000316443 1.85113e-21)
(0.00463022 -0.00033487 -1.87583e-21)
(0.00462193 -0.000350681 -2.41728e-21)
(0.00461459 -0.00036478 -6.08953e-21)
(0.00456277 -0.000393176 -1.54796e-21)
(0.00452767 -0.000401103 -5.44946e-22)
(0.0044873 -0.000410127 -5.64586e-22)
(0.00444614 -0.000419127 1.18442e-21)
(0.00440908 -0.000426867 1.20406e-21)
(0.00437117 -0.000434425 0)
(0.00433288 -0.000441611 3.08277e-22)
(0.00429507 -0.000448245 5.08044e-23)
(0.00425526 -0.000454686 -2.57473e-22)
(0.00421501 -0.000460653 -5.54696e-22)
(0.0041731 -0.000466341 1.87824e-21)
(0.00413068 -0.000471645 1.63672e-21)
(0.00409093 -0.000476004 1.36707e-21)
(0.00405056 -0.000479967 1.48369e-21)
(0.00400765 -0.000483836 1.15475e-21)
(0.00396262 -0.00048755 8.25389e-22)
(0.00391941 -0.000490727 -1.00896e-21)
(0.00387661 -0.000493587 -1.27777e-21)
(0.00383112 -0.000496433 -6.60112e-22)
(0.00378434 -0.000499225 -7.62167e-22)
(0.00373714 -0.000501933 -2.88589e-21)
(0.00369033 -0.000504536 -2.26454e-21)
(0.00363898 -0.000507551 -1.99115e-21)
(0.00358619 -0.000510725 4.16472e-23)
(0.00353735 -0.000513746 1.98522e-21)
(0.00348692 -0.000517041 7.10904e-22)
(0.00343429 -0.000520775 5.94895e-22)
(0.0033812 -0.000524858 2.58065e-21)
(0.00332798 -0.000529443 -1.31005e-22)
(0.00326831 -0.000535313 -5.10102e-21)
(0.00320665 -0.000541925 -2.98426e-21)
(0.00314736 -0.000548862 0)
(0.003087 -0.000556789 0)
(0.00302726 -0.000565279 -1.44733e-21)
(0.00296644 -0.000574704 -7.54011e-21)
(0.00289712 -0.000586914 -1.92708e-21)
(0.00282866 -0.000600047 2.10972e-21)
(0.00276334 -0.000613637 4.6623e-22)
(0.00269424 -0.000629076 8.96744e-22)
(0.0026288 -0.000645051 4.01837e-22)
(0.00255576 -0.000664535 2.43777e-21)
(0.00248108 -0.000686027 -2.12252e-21)
(0.0024058 -0.00070945 -4.98267e-21)
(0.00232797 -0.000735312 -2.44969e-21)
(0.00225437 -0.000761789 -2.5367e-22)
(0.00217952 -0.000790413 1.03082e-21)
(0.00209973 -0.000823015 -3.55878e-21)
(0.00201731 -0.000858963 -2.21285e-21)
(0.00193738 -0.000896348 2.63042e-21)
(0.00185519 -0.000937296 1.37917e-21)
(0.00177158 -0.000981767 -8.78741e-22)
(0.00168924 -0.00102784 -1.83077e-21)
(0.00160926 -0.00107475 6.61748e-21)
(0.00152787 -0.00112514 8.55134e-21)
(0.00144253 -0.00118079 -1.71731e-21)
(0.001347 -0.00124681 -9.17303e-21)
(0.00125175 -0.00131596 -8.74904e-21)
(0.00118099 -0.00137046 -5.92331e-21)
(0.0011024 -0.00143555 5.34396e-21)
(0.00101364 -0.00151246 9.77841e-21)
(0.000936809 -0.00158299 -8.48049e-21)
(0.00085722 -0.0016597 -1.36167e-21)
(0.000776205 -0.00174216 -2.01564e-21)
(0.000700803 -0.00182375 -1.63485e-21)
(0.000624516 -0.00191191 9.66508e-21)
(0.000550001 -0.00200253 -2.67594e-21)
(0.00048532 -0.00208753 -8.42785e-23)
(0.000421935 -0.00217466 2.59166e-21)
(0.000362205 -0.00226278 -3.13087e-23)
(0.000309661 -0.00234592 -3.13087e-23)
(0.000260076 -0.00243011 -4.54349e-21)
(0.000214566 -0.00251103 3.993e-22)
(0.000176232 -0.00257961 1.67654e-21)
(0.000142007 -0.00264261 -6.34678e-21)
(0.000110612 -0.00270136 9.28717e-22)
(8.3909e-05 -0.00274982 5.03483e-21)
(5.97255e-05 -0.00278719 1.02559e-21)
(3.80055e-05 -0.00281501 0)
(1.87681e-05 -0.00283114 0)
(0 -0.00282686 0)
(0 -0.00281482 0)
(0 -0.00279939 0)
(0 -0.00278052 0)
(0 -0.00276124 0)
(0 -0.00274208 0)
(0 -0.00272418 0)
(0 -0.00270603 0)
(0 -0.00268609 0)
(0 -0.00266724 0)
(0 -0.00264856 0)
(0 -0.00261661 0)
(0 -0.00256369 0)
(0 -0.00248849 0)
(0 -0.00237637 0)
(0 -0.00222768 0)
(0 -0.00205344 0)
(0 -0.00185503 0)
(0 -0.00162753 0)
(0.000331364 -0.0013653 -9.41958e-21)
(0.000631504 -0.00141376 5.56054e-22)
(0.000912225 -0.00148273 9.83441e-21)
(0.00118033 -0.00156955 1.5824e-20)
(0.0014236 -0.0016661 1.6401e-21)
(0.0016354 -0.00174664 -1.95368e-20)
(0.00182266 -0.00179799 -1.26485e-20)
(0.00197535 -0.00179212 1.05629e-21)
(0.00209394 -0.00173702 2.09754e-21)
(0.00221254 -0.00166482 3.138e-21)
(0.00232958 -0.00158996 7.83746e-21)
(0.00245522 -0.00151002 2.11466e-20)
(0.00257836 -0.00142609 2.28717e-20)
(0.00267925 -0.0013529 2.70068e-22)
(0.00278751 -0.00127263 2.07365e-21)
(0.00289216 -0.00119162 -7.82844e-21)
(0.00299021 -0.00111076 -1.58418e-20)
(0.00308512 -0.00102796 -6.19548e-21)
(0.00316751 -0.000953883 -1.47395e-23)
(0.00324817 -0.00087531 1.5846e-23)
(0.00332326 -0.000798458 6.77726e-21)
(0.00338721 -0.000729038 6.83907e-21)
(0.00345021 -0.000649268 2.2293e-21)
(0.00350922 -0.000568522 5.71923e-21)
(0.00355689 -0.000497502 3.36758e-22)
(0.00359605 -0.000427851 -5.74521e-21)
(0.0036314 -0.000358752 9.05808e-22)
(0.00366163 -0.000287318 6.02162e-21)
(0.0036846 -0.000216325 1.33359e-21)
(0.0037008 -0.000148751 -1.27572e-21)
(0.00370954 -7.5546e-05 2.32366e-21)
(0.00314984 -0.000234627 0)
(0.00394576 -0.000153321 0)
(0.00208785 -0.000896911 0)
(0.00423564 -0.000254802 0)
(0.00446646 -9.48063e-05 0)
(0.00328739 -0.0002698 0)
(0.00379701 -6.42176e-05 0)
(0.00113733 -0.00183562 0)
(0.00348907 -0.000161605 0)
(0.00243737 -0.000567953 0)
(0.00378225 -0.000304478 0)
(0.00420231 -6.10813e-05 0)
(0.0028525 -0.000526923 0)
(0.0037426 -4.64536e-05 0)
(0.00453061 -0.00015203 0)
(0.00278397 -0.000447506 0)
(0.00345832 -0.000153536 0)
(0.00471893 -4.52653e-05 0)
(0.00437349 -0.000318534 0)
(0.00421959 -0.000164611 0)
(0.00138099 -0.00141289 0)
(0.00191987 -0.00127638 0)
(0.00339656 -0.000364731 0)
(0.00404948 -3.18533e-05 0)
(0.00186088 -0.0009373 0)
(0.00271067 -0.000464391 0)
(0.00399861 -0.000359079 0)
(0.00443166 -4.51348e-05 0)
(0.00364293 -0.000228863 0)
(0.00395547 -8.38611e-05 0)
(0.00304346 -0.000293837 0)
(0.000428652 -0.00248914 0)
(0.00391182 -2.20375e-05 0)
(0.00369714 -0.000141495 0)
(0.00469335 -8.68867e-05 0)
(0.00451547 -0.000216847 0)
(0.003533 -0.000105864 0)
(0.000955836 -0.00213224 0)
(0.0036666 -0.000151537 0)
(0.00304937 -0.000426641 0)
(0.00375096 -5.0202e-05 0)
(0.00316208 -0.000260181 0)
(0.00398235 -0.000219223 0)
(0.00417539 -0.000109366 0)
(0.00331311 -0.00036613 0)
(0.00085611 -0.00195378 0)
(0.00238048 -0.000620098 0)
(0.00252932 -0.000911938 0)
(0.00351037 -0.000114568 0)
(0.00360185 -0.000396211 0)
(0.00420255 -2.62484e-05 0)
(0.00230946 -0.000672028 0)
(0.00278591 -0.000392686 0)
(0.00157187 -0.00138805 0)
(0.00157865 -0.00168506 0)
(0.00417388 -0.00038088 0)
(0.00459166 -3.28533e-05 0)
(0.00401796 -0.000280227 0)
(0.00433382 -7.94868e-05 0)
(0.00203321 -0.000802103 0)
(0.00434074 -0.000188577 0)
(0.0023707 -0.000807932 0)
(0.00379792 -0.00040754 0)
(0.00432916 -2.68957e-05 0)
(0.00387114 -1.75576e-05 0)
(0.001432 -0.00125792 0)
(0.0048395 -2.03819e-05 0)
(0.0044647 -0.000348932 0)
(0.00443059 -0.000136397 0)
(0.000434588 -0.00247767 0)
(0.00471116 -0.000108393 0)
(0.00274039 -0.000424067 0)
(0.00374071 -5.50888e-05 0)
(0.00298937 -0.000651714 0)
(0.00347104 -0.000192829 0)
(0.00368626 -0.000105214 0)
(0.00401826 -1.52286e-05 0)
(0.00464279 -0.000157276 0)
(0.00178531 -0.00106465 0)
(0.00318154 -0.000320977 0)
(0.00480372 -5.07317e-05 0)
(0.00453328 -0.000257791 0)
(0.00423238 -0.0003085 0)
(0.00456521 -6.30191e-05 0)
(0.00415777 -0.000218554 0)
(0.00430121 -0.000119686 0)
(0.00304215 -0.000331306 0)
(0.00277482 -0.000514726 0)
(0.00323989 -0.000208652 0)
(0.00341432 -0.000291077 0)
(0.00394703 -5.31003e-05 0)
(0.00359872 -0.000300931 0)
(0.00408032 -5.34796e-05 0)
(0.00319825 -0.000446504 0)
(0.00379808 -0.000240968 0)
(0.00403808 -0.000105223 0)
(0.00102303 -0.00167021 0)
(0.00377198 -5.42566e-05 0)
(0.00406449 -0.000167361 0)
(0.00383565 -2.01536e-05 0)
(0.00288846 -0.000420721 0)
(0.000509957 -0.00232855 0)
(0.00375545 -0.00017359 0)
(0.00223136 -0.00125127 0)
(0.00412269 -1.519e-05 0)
(0.00386831 -0.000123284 0)
(0.00471565 -2.21052e-05 0)
(0.00431689 -0.000385162 0)
(0.000204951 -0.00268847 0)
(0.00326004 -0.000237223 0)
(0.00150648 -0.0015816 0)
(0.00336792 -0.000156082 0)
(0.00439578 -0.000218631 0)
(0.00363167 -9.30795e-05 0)
(0.00195337 -0.00109233 0)
(0.00245068 -0.000659475 0)
(0.0012093 -0.00166776 0)
(0.00394758 -3.34204e-05 0)
(0.00298123 -0.000318049 0)
(0.00340044 -0.00044302 0)
(0.00459601 -8.3945e-05 0)
(0.00354418 -0.000297365 0)
(0.00252884 -0.000591775 0)
(0.00217157 -0.000729854 0)
(0.00171427 -0.00100773 0)
(0.00401863 -0.000419313 0)
(0.00449307 -2.29988e-05 0)
(0.0032211 -0.000341616 0)
(0.00437629 -0.000271335 0)
(0.00362326 -8.94073e-05 0)
(0.000773465 -0.0021337 0)
(0.00386745 -0.000345789 0)
(0.00431619 -4.8302e-05 0)
(0.00456966 -0.000118888 0)
(0.0035051 -0.000222774 0)
(0.00383546 -8.32264e-05 0)
(0.000814285 -0.00212912 0)
(0.000819256 -0.00215999 0)
(0.00365338 -0.000114075 0)
(0.00301893 -0.000289066 0)
(0.00373198 -0.000131474 0)
(0.00350563 -0.00021478 0)
(0.00343142 -0.000143819 0)
(0.00139811 -0.00195166 0)
(0.00394522 -9.27337e-06 0)
(0.000244111 -0.00263524 0)
(0.00411784 -0.00030728 0)
(0.00445077 -6.81623e-05 0)
(0.00361673 -7.91914e-05 0)
(0.00179153 -0.00114382 0)
(0.00299601 -0.000389153 0)
(0.00382125 -3.37068e-05 0)
(0.00338233 -0.000173693 0)
(0.00478889 -7.55346e-05 0)
(0.00409541 -7.61891e-05 0)
(0.00123844 -0.00184585 0)
(0.00464777 -0.000180147 0)
(0.00385016 -4.03791e-05 0)
(0.00256597 -0.000518769 0)
(0.00390353 -0.000195895 0)
(0.000448558 -0.00245392 0)
(0.00203059 -0.000853084 0)
(0.00451384 -0.000186769 0)
(0.00214382 -0.000753232 0)
(0.00228713 -0.000653631 0)
(0.00487768 -2.79561e-05 0)
(0.00455233 -0.000290955 0)
(0.00391069 -0.000265479 0)
(0.00422968 -8.09541e-05 0)
(0.00222778 -0.00100944 0)
(0.0026134 -0.000500125 0)
(0.00326433 -0.00055141 0)
(0.00292573 -0.000512867 0)
(0.00376081 -4.1918e-05 0)
(0.00381401 -2.53031e-05 0)
(0.00366744 -0.000443365 0)
(0.00426724 -1.59339e-05 0)
(0.00265722 -0.00057883 0)
(0.00196335 -0.00154273 0)
(0.00406439 -0.000134594 0)
(0.004176 -0.000139305 0)
(0.00307622 -0.00046486 0)
(0.0035595 -0.000147541 0)
(0.00470708 -6.36554e-05 0)
(0.00372892 -0.000364037 0)
(0.00424633 -3.88931e-05 0)
(0.00281689 -0.000892205 0)
(0.00267734 -0.000443946 0)
(0.000750843 -0.00194509 0)
(0.00353152 -0.000361254 0)
(0.0041223 -3.6056e-05 0)
(0.00377257 -6.52113e-05 0)
(0.000310367 -0.0025551 0)
(0.00113914 -0.00149061 0)
(0.00319964 -0.000222855 0)
(0.00388905 -0.000438734 0)
(0.00441023 -1.73262e-05 0)
(0.00261214 -0.000725856 0)
(0.00321813 -0.000389774 0)
(0.00413374 -0.000348477 0)
(0.00451987 -4.75045e-05 0)
(0.00380301 -0.000108486 0)
(0.00363054 -0.000182353 0)
(0.00287351 -0.000355609 0)
(0.00433198 -0.000160738 0)
(0.00365207 -7.10983e-05 0)
(0.00410474 -0.000194214 0)
(0.00331997 -0.000172699 0)
(0.00227961 -0.000728315 0)
(0.00155216 -0.00121561 0)
(0.00450791 -0.000109981 0)
(0.0023188 -0.00068304 0)
(0.00287496 -0.000381553 0)
(0.00398996 -8.68137e-06 0)
(0.00377248 -0.000206771 0)
(0.00418861 -1.34261e-05 0)
(0.00474108 -0.000115497 0)
(0.00145782 -0.00119265 0)
(0.00112533 -0.00165895 0)
(0.00352403 -0.000452593 0)
(0.00243482 -0.000577602 0)
(0.00280022 -0.000396697 0)
(0.0032806 -0.000210219 0)
(0.00443637 -0.000185113 0)
(0.00420773 -0.000417477 0)
(0.00464427 -1.59837e-05 0)
(0.004905 -9.3556e-06 0)
(0.004518 -0.000363377 0)
(0.00484502 -5.21036e-05 0)
(0.00337093 -0.000245494 0)
(0.000561686 -0.00237473 0)
(0.00407616 -9.6761e-06 0)
(0.00313358 -0.000328464 0)
(0.00296548 -0.000311767 0)
(0.00426313 -0.000344684 0)
(0.00463338 -4.4141e-05 0)
(0.00183949 -0.00145287 0)
(0.0015138 -0.00136262 0)
(0.00403764 -0.00024205 0)
(0.00413191 -0.00025499 0)
(0.00437452 -9.47303e-05 0)
(0.00427171 -0.000100017 0)
(0.00462962 -0.000210763 0)
(0.00257265 -0.00111694 0)
(0.00462172 -0.000142585 0)
(0.00387748 -1.05397e-05 0)
(0.00440525 -0.000117368 0)
(0.00425274 -0.000219353 0)
(0.00171031 -0.00135086 0)
(0.00137112 -0.00161 0)
(0.00199347 -0.000831158 0)
(0.00443826 -0.00015858 0)
(0.00334217 -0.000173091 0)
(0.00424178 -0.000190426 0)
(0.00182878 -0.00092999 0)
(0.00432336 -0.000256283 0)
(0.00249483 -0.000542508 0)
(0.00479729 -1.25324e-05 0)
(0.00438596 -0.000394609 0)
(0.00365711 -0.000239723 0)
(0.00249529 -0.000582676 0)
(0.00307072 -0.000496323 0)
(0.00357118 -0.00012011 0)
(0.00173195 -0.00175782 0)
(0.00381724 -2.77774e-05 0)
(0.00130305 -0.00140982 0)
(0.00399561 -0.00032052 0)
(0.00437422 -6.07478e-05 0)
(0.00219692 -0.000890805 0)
(0.00465373 -0.00010962 0)
(0.00411786 -9.61058e-05 0)
(0.00162846 -0.00109343 0)
(0.00388778 -4.82522e-05 0)
(0.00409891 -0.000432911 0)
(0.00456268 -1.57306e-05 0)
(0.00479609 -3.51831e-05 0)
(0.00445264 -0.000319875 0)
(0.00406247 -1.98048e-05 0)
(0.00366232 -0.000334629 0)
(0.00417009 -4.63403e-05 0)
(0.000550032 -0.00219108 0)
(0.0020101 -0.000909157 0)
(0.00446951 -0.000254796 0)
(0.00325647 -0.000245454 0)
(0.00355149 -0.000272407 0)
(0.00399049 -6.35953e-05 0)
(0.00364362 -8.04897e-05 0)
(0.00261491 -0.00052526 0)
(0.00289262 -0.000380864 0)
(0.00298751 -0.000408841 0)
(0.0046405 -6.15437e-05 0)
(0.00367757 -0.000257396 0)
(0.00282358 -0.000638396 0)
(0.00348729 -0.000116998 0)
(0.00261452 -0.000593838 0)
(0.00392025 -0.000390941 0)
(0.0043998 -3.32114e-05 0)
(0.00391381 -8.10411e-06 0)
(0.00100584 -0.0018946 0)
(0.00327342 -0.000479075 0)
(0.00341298 -0.000186053 0)
(0.00334337 -0.00033261 0)
(0.000199232 -0.00263072 0)
(0.00374263 -6.46606e-05 0)
(0.00396477 -2.16606e-05 0)
(0.00430764 -0.000142882 0)
(0.00335911 -0.000228029 0)
(0.00309851 -0.000290299 0)
(0.00269889 -0.00050304 0)
(0.00371501 -8.57755e-05 0)
(0.00377481 -0.000457535 0)
(0.00434385 -1.20164e-05 0)
(0.00392173 -0.000298266 0)
(0.00428607 -6.83835e-05 0)
(0.00479284 -8.48944e-05 0)
(0.0038845 -2.04944e-05 0)
(0.0038398 -1.47386e-05 0)
(0.00491358 -1.68864e-05 0)
(0.00456362 -0.000316156 0)
(0.00175469 -0.00104133 0)
(0.00285035 -0.000454226 0)
(0.00401661 -4.579e-05 0)
(0.00347166 -0.000316489 0)
(0.00371997 -5.38087e-05 0)
(0.00366408 -8.51306e-05 0)
(0.000662305 -0.00230957 0)
(0.0047096 -0.00014772 0)
(0.00319535 -0.000280704 0)
(0.00344666 -0.000462373 0)
(0.00307552 -0.000328643 0)
(0.00333585 -0.000413527 0)
(0.00125636 -0.00192183 0)
(0.00396222 -0.000101313 0)
(0.00372287 -0.00028655 0)
(0.00454054 -7.90064e-05 0)
(0.00127736 -0.00134158 0)
(0.000119993 -0.00273027 0)
(0.00395119 -0.00012598 0)
(0.00460683 -9.84584e-05 0)
(0.00311815 -0.000719179 0)
(9.76143e-05 -0.00277468 0)
(0.00488767 -3.30459e-05 0)
(0.00461424 -0.000248706 0)
(0.00443297 -0.000231753 0)
(0.000841765 -0.00210798 0)
(0.00432409 -0.000300807 0)
(0.00162328 -0.00121471 0)
(0.00369547 -0.000122684 0)
(0.00123057 -0.00194802 0)
(0.00358814 -0.000167464 0)
(0.00229416 -0.00108343 0)
(0.00376789 -0.000146381 0)
(0.00385565 -0.000148515 0)
(0.00351333 -0.000129592 0)
(0.00337965 -0.000268884 0)
(0.00476207 -6.75514e-05 0)
(0.00421052 -0.000290151 0)
(0.000702385 -0.00215027 0)
(0.00384996 -0.000176082 0)
(0.00263747 -0.000465488 0)
(0.0029121 -0.000350854 0)
(0.00385212 -6.31425e-05 0)
(0.00446428 -0.000279282 0)
(0.00458649 -0.000185956 0)
(0.00314757 -0.000236618 0)
(0.00278325 -0.000555973 0)
(0.00322564 -0.000352629 0)
(0.00373517 -6.43574e-05 0)
(0.00403775 -6.68034e-06 0)
(0.00400005 -2.51824e-05 0)
(0.00317141 -0.000242521 0)
(0.00353581 -0.000112463 0)
(0.00476617 -4.76817e-05 0)
(0.00403141 -7.28793e-05 0)
(0.00336808 -0.000171044 0)
(0.00399438 -0.00018918 0)
(0.000212273 -0.00259055 0)
(0.00370669 -0.000101477 0)
(0.00292742 -0.000386204 0)
(0.00381179 -0.000269189 0)
(0.00411122 -2.62352e-05 0)
(0.000420433 -0.00234348 0)
(0.00454884 -0.000225803 0)
(0.00380881 -2.69567e-05 0)
(0.00474158 -3.2327e-05 0)
(0.00436776 -0.000349332 0)
(0.00371226 -0.000402207 0)
(0.00427636 -2.80898e-05 0)
(0.00229296 -0.000649041 0)
(0.00349021 -0.000400504 0)
(0.00291238 -0.000460797 0)
(0.0041324 -6.00423e-05 0)
(0.00460625 -0.000130689 0)
(0.0034656 -0.000288943 0)
(0.00081481 -0.00180454 0)
(0.00397719 -3.95321e-05 0)
(0.00309757 -0.000378192 0)
(0.00388093 -0.000239669 0)
(0.000290033 -0.00261454 0)
(0.00203938 -0.00110744 0)
(0.00350289 -0.00025423 0)
(0.00392302 -6.85477e-05 0)
(0.00315364 -0.000506112 0)
(0.000552377 -0.00234051 0)
(0.00195922 -0.00085981 0)
(0.00274681 -0.000794317 0)
(0.00310398 -0.000447677 0)
(0.00433207 -0.000213366 0)
(0.00380493 -2.95545e-05 0)
(0.0036616 -0.000201144 0)
(0.00127755 -0.00175866 0)
(0.00370848 -6.01338e-05 0)
(0.00395685 -1.42378e-05 0)
(0.0040549 -0.0003792 0)
(0.00448839 -3.76742e-05 0)
(0.00218155 -0.000718131 0)
(0.00225585 -0.00140754 0)
(0.000359627 -0.00244095 0)
(0.0011302 -0.00208761 0)
(0.0042562 -0.000370875 0)
(0.00465692 -3.27609e-05 0)
(0.00398355 -0.000168307 0)
(0.0034201 -0.000138758 0)
(0.000192659 -0.00267878 0)
(0.00196353 -0.00102814 0)
(0.0026625 -0.000531507 0)
(0.00178939 -0.00120059 0)
(0.00262344 -0.000473941 0)
(0.00133195 -0.00151159 0)
(0.000543579 -0.00182866 0)
(0.00416921 -7.42069e-05 0)
(0.000931639 -0.0018109 0)
(0.00146078 -0.00169581 0)
(0.00355424 -0.000158226 0)
(0.00451281 -0.00014118 0)
(0.00218914 -0.000954064 0)
(0.00422992 -0.000121534 0)
(0.00233726 -0.000770955 0)
(0.00388564 -9.94181e-05 0)
(0.00217431 -0.000774948 0)
(0.0021807 -0.000740531 0)
(0.00203896 -0.000824083 0)
(0.00391654 -2.95295e-05 0)
(0.00358658 -0.000218141 0)
(0.00360965 -0.000155706 0)
(0.0017321 -0.00143942 0)
(0.00402675 -8.88768e-05 0)
(0.0041513 -7.86918e-06 0)
(0.00395853 -0.000454801 0)
(0.00446617 -1.11609e-05 0)
(0.00101225 -0.00203561 0)
(0.00364194 -7.50049e-05 0)
(0.00414506 -0.000161066 0)
(0.00337022 -0.000210693 0)
(0.00374002 -0.000101052 0)
(0.00465604 -8.23864e-05 0)
(0.00381806 -3.93049e-05 0)
(0.00106839 -0.00193626 0)
(0.0038634 -9.39962e-06 0)
(0.000385186 -0.00252515 0)
(0.000795654 -0.00225598 0)
(0.00380305 -2.92167e-05 0)
(0.00258089 -0.000672218 0)
(0.00426106 -0.000423908 0)
(0.00469938 -1.10562e-05 0)
(0.00329272 -0.000294987 0)
(0.00323625 -0.000203166 0)
(0.00384016 -2.60899e-05 0)
(0.00341949 -0.000483197 0)
(0.00214483 -0.000734732 0)
(0.0020612 -0.00126517 0)
(0.00288671 -0.00034523 0)
(0.00430417 -0.000280547 0)
(0.00377741 -5.60646e-05 0)
(0.00240779 -0.000667576 0)
(0.00443584 -8.40808e-05 0)
(0.0014004 -0.00150103 0)
(0.0041573 -2.14612e-05 0)
(0.0034497 -0.000217177 0)
(0.00317301 -0.000499228 0)
(0.00379959 -0.000372201 0)
(0.00429999 -3.78375e-05 0)
(0.00339634 -0.000402552 0)
(0.00183694 -0.00093495 0)
(0.00304303 -0.000303286 0)
(0.00376429 -8.83209e-05 0)
(0.00308879 -0.000263858 0)
(0.00358433 -0.000114232 0)
(0.00154329 -0.00111847 0)
(0.00274369 -0.000435939 0)
(0.0010154 -0.00183308 0)
(0.00120482 -0.00153553 0)
(0.00227204 -0.000771455 0)
(0.00062574 -0.00229867 0)
(0.0034913 -0.000135669 0)
(0.000947878 -0.00165321 0)
(0.00244044 -0.000882749 0)
(0.00356533 -0.00037438 0)
(0.0033173 -0.00017823 0)
(0.00447599 -0.000209609 0)
(0.00257381 -0.000558469 0)
(0.00408954 -0.00011232 0)
(0.00485897 -7.10947e-06 0)
(0.00445162 -0.000392867 0)
(0.00249686 -0.000580871 0)
(0.00385019 -1.87338e-05 0)
(0.00368945 -0.000167138 0)
(0.000376862 -0.00252635 0)
(0.00415963 -0.000275978 0)
(0.00307934 -0.000403617 0)
(0.00299332 -0.000331558 0)
(0.0045094 -0.000283516 0)
(0.00283671 -0.00048962 0)
(0.00191631 -0.00101759 0)
(0.00397104 -4.84182e-06 0)
(0.00339263 -0.000278247 0)
(0.00423507 -8.81882e-06 0)
(0.00380295 -0.000332103 0)
(0.00425529 -5.1306e-05 0)
(0.00417888 -0.000187885 0)
(0.00393112 -0.000358068 0)
(0.00437537 -4.519e-05 0)
(0.004529 -9.38222e-05 0)
(0.00119171 -0.00174412 0)
(0.00450297 -7.15605e-05 0)
(0.00187311 -0.000902263 0)
(0.000676084 -0.00212096 0)
(0.00306247 -0.000277803 0)
(0.00357643 -9.76376e-05 0)
(0.00472789 -9.4168e-05 0)
(0.0037004 -0.000195426 0)
(0.00409048 -0.000402335 0)
(0.00453958 -2.86259e-05 0)
(0.00157882 -0.00116028 0)
(0.00449813 -0.000125895 0)
(0.00354087 -0.000194937 0)
(0.00218024 -0.000753912 0)
(0.00376344 -0.000101719 0)
(0.00424881 -0.00013534 0)
(0.00475428 -0.000122303 0)
(0.00233018 -0.000633055 0)
(0.00485063 -5.64227e-05 0)
(0.00317945 -0.00025203 0)