/*--------------------------------*- C++ -*----------------------------------*\
| =========                 |                                                 |
| \\      /  F ield         | OpenFOAM: The Open Source CFD Toolbox           |
|  \\    /   O peration     | Version:  v2012                                 |
|   \\  /    A nd           | Website:  www.openfoam.com                      |
|    \\/     M anipulation  |                                                 |
\*---------------------------------------------------------------------------*/
FoamFile
{
    version     2.0;
    format      ascii;
    class       volVectorField;
    location    "5";
    object      D_0;
}
// * * * * * * * * * * * * * * * * * * * * * * * * * * * * * * * * * * * * * //

dimensions      [0 1 0 0 0 0 0];


internalField   nonuniform List<vector> 
32000
(
(1.16264e-05 -0.000934267 0)
(2.29686e-05 -0.000937085 0)
(1.11618e-05 -0.000943345 0)
(2.23609e-05 -0.000946108 0)
(1.08104e-05 -0.000951957 0)
(2.18015e-05 -0.00095458 0)
(1.05241e-05 -0.000960052 0)
(2.12804e-05 -0.000962518 0)
(1.02703e-05 -0.00096767 0)
(2.07896e-05 -0.000969986 0)
(1.0036e-05 -0.00097486 0)
(2.03265e-05 -0.000977034 0)
(9.81748e-06 -0.000981657 0)
(1.98906e-05 -0.0009837 0)
(9.61365e-06 -0.000988093 0)
(1.94816e-05 -0.000990013 0)
(9.42341e-06 -0.000994195 0)
(1.90981e-05 -0.000996004 0)
(9.24558e-06 -0.000999992 0)
(1.87385e-05 -0.0010017 0)
(9.07907e-06 -0.00100551 0)
(1.8401e-05 -0.00100712 0)
(8.92299e-06 -0.00101077 0)
(1.80843e-05 -0.00101229 0)
(8.77656e-06 -0.00101579 0)
(1.77869e-05 -0.00101723 0)
(8.63913e-06 -0.00102059 0)
(1.75075e-05 -0.00102196 0)
(8.5101e-06 -0.00102519 0)
(1.7245e-05 -0.00102649 0)
(8.38892e-06 -0.00102962 0)
(1.69982e-05 -0.00103085 0)
(8.27508e-06 -0.00103387 0)
(1.67662e-05 -0.00103505 0)
(8.16807e-06 -0.00103797 0)
(1.6548e-05 -0.00103909 0)
(8.06746e-06 -0.00104193 0)
(1.63426e-05 -0.001043 0)
(7.9728e-06 -0.00104575 0)
(1.61493e-05 -0.00104679 0)
(7.88371e-06 -0.00104946 0)
(1.59672e-05 -0.00105046 0)
(7.79979e-06 -0.00105307 0)
(1.57955e-05 -0.00105402 0)
(7.7207e-06 -0.00105657 0)
(1.56337e-05 -0.00105749 0)
(7.64611e-06 -0.00105998 0)
(1.54809e-05 -0.00106087 0)
(7.57569e-06 -0.00106331 0)
(1.53366e-05 -0.00106417 0)
(7.50914e-06 -0.00106657 0)
(1.52002e-05 -0.0010674 0)
(7.44618e-06 -0.00106975 0)
(1.5071e-05 -0.00107056 0)
(7.38653e-06 -0.00107288 0)
(1.49486e-05 -0.00107366 0)
(7.32994e-06 -0.00107595 0)
(1.48324e-05 -0.00107671 0)
(7.27615e-06 -0.00107896 0)
(1.47219e-05 -0.00107971 0)
(7.22492e-06 -0.00108193 0)
(1.46166e-05 -0.00108266 0)
(7.17604e-06 -0.00108486 0)
(1.4516e-05 -0.00108557 0)
(7.12927e-06 -0.00108775 0)
(1.44196e-05 -0.00108845 0)
(7.0843e-06 -0.00109061 0)
(1.43267e-05 -0.00109129 0)
(7.04065e-06 -0.00109343 0)
(1.42361e-05 -0.0010941 0)
(6.99757e-06 -0.00109623 0)
(1.41465e-05 -0.00109689 0)
(6.95426e-06 -0.001099 0)
(1.40561e-05 -0.00109965 0)
(6.91092e-06 -0.00110175 0)
(1.39638e-05 -0.00110239 0)
(6.87171e-06 -0.00110447 0)
(1.38702e-05 -0.00110511 0)
(6.85009e-06 -0.00110716 0)
(1.37785e-05 -0.00110781 0)
(4.71296e-05 -0.000933541 0)
(5.81307e-05 -0.000936158 0)
(4.57182e-05 -0.000942656 0)
(5.65235e-05 -0.000945186 0)
(4.44435e-05 -0.000951279 0)
(5.50358e-05 -0.000953652 0)
(4.32862e-05 -0.000959364 0)
(5.36639e-05 -0.000961577 0)
(4.22257e-05 -0.000966961 0)
(5.23928e-05 -0.000969022 0)
(4.12458e-05 -0.000974123 0)
(5.12085e-05 -0.00097604 0)
(4.03344e-05 -0.000980894 0)
(5.0101e-05 -0.00098267 0)
(3.94833e-05 -0.000987304 0)
(4.90639e-05 -0.000988949 0)
(3.86867e-05 -0.000993384 0)
(4.80917e-05 -0.000994905 0)
(3.79401e-05 -0.000999158 0)
(4.71799e-05 -0.00100057 0)
(3.72401e-05 -0.00100465 0)
(4.63246e-05 -0.00100596 0)
(3.65834e-05 -0.00100989 0)
(4.55217e-05 -0.0010111 0)
(3.59671e-05 -0.00101489 0)
(4.4768e-05 -0.00101601 0)
(3.53885e-05 -0.00101968 0)
(4.406e-05 -0.00102071 0)
(3.4845e-05 -0.00102427 0)
(4.33949e-05 -0.00102522 0)
(3.43345e-05 -0.00102867 0)
(4.27697e-05 -0.00102956 0)
(3.38546e-05 -0.00103291 0)
(4.2182e-05 -0.00103373 0)
(3.34034e-05 -0.00103699 0)
(4.16292e-05 -0.00103775 0)
(3.29791e-05 -0.00104094 0)
(4.11091e-05 -0.00104164 0)
(3.25798e-05 -0.00104475 0)
(4.06194e-05 -0.0010454 0)
(3.22039e-05 -0.00104845 0)
(4.01583e-05 -0.00104905 0)
(3.18498e-05 -0.00105203 0)
(3.97238e-05 -0.0010526 0)
(3.15161e-05 -0.00105552 0)
(3.93141e-05 -0.00105604 0)
(3.12013e-05 -0.00105892 0)
(3.89275e-05 -0.00105941 0)
(3.09042e-05 -0.00106224 0)
(3.85624e-05 -0.00106269 0)
(3.06236e-05 -0.00106548 0)
(3.82173e-05 -0.0010659 0)
(3.03581e-05 -0.00106865 0)
(3.78908e-05 -0.00106904 0)
(3.01067e-05 -0.00107177 0)
(3.75814e-05 -0.00107212 0)
(2.98683e-05 -0.00107482 0)
(3.72877e-05 -0.00107515 0)
(2.96419e-05 -0.00107782 0)
(3.70086e-05 -0.00107813 0)
(2.94262e-05 -0.00108078 0)
(3.67427e-05 -0.00108106 0)
(2.92204e-05 -0.0010837 0)
(3.64886e-05 -0.00108396 0)
(2.90233e-05 -0.00108657 0)
(3.6245e-05 -0.00108681 0)
(2.88341e-05 -0.00108941 0)
(3.60106e-05 -0.00108963 0)
(2.86518e-05 -0.00109222 0)
(3.57843e-05 -0.00109243 0)
(2.84763e-05 -0.001095 0)
(3.55651e-05 -0.00109519 0)
(2.8308e-05 -0.00109775 0)
(3.53523e-05 -0.00109793 0)
(2.81487e-05 -0.00110048 0)
(3.51451e-05 -0.00110064 0)
(2.80019e-05 -0.00110318 0)
(3.49426e-05 -0.00110333 0)
(2.78735e-05 -0.00110586 0)
(3.4743e-05 -0.00110598 0)
(8.25615e-05 -0.000932257 0)
(9.3241e-05 -0.000934661 0)
(8.0229e-05 -0.000941275 0)
(9.07121e-05 -0.000943577 0)
(7.80743e-05 -0.000949814 0)
(8.83461e-05 -0.000951935 0)
(7.6076e-05 -0.000957827 0)
(8.61436e-05 -0.000959768 0)
(7.42209e-05 -0.000965357 0)
(8.40945e-05 -0.000967132 0)
(7.24964e-05 -0.000972458 0)
(8.21851e-05 -0.000974077 0)
(7.08899e-05 -0.000979169 0)
(8.04019e-05 -0.00098064 0)
(6.93894e-05 -0.000985522 0)
(7.87336e-05 -0.000986853 0)
(6.79852e-05 -0.000991548 0)
(7.71705e-05 -0.000992748 0)
(6.66693e-05 -0.000997273 0)
(7.57048e-05 -0.00099835 0)
(6.54351e-05 -0.00100272 0)
(7.43296e-05 -0.00100368 0)
(6.4277e-05 -0.00100792 0)
(7.30387e-05 -0.00100877 0)
(6.31899e-05 -0.00101288 0)
(7.18266e-05 -0.00101364 0)
(6.21691e-05 -0.00101762 0)
(7.0688e-05 -0.00101829 0)
(6.12102e-05 -0.00102217 0)
(6.96182e-05 -0.00102276 0)
(6.03091e-05 -0.00102654 0)
(6.86126e-05 -0.00102705 0)
(5.94621e-05 -0.00103074 0)
(6.76671e-05 -0.00103118 0)
(5.86656e-05 -0.00103479 0)
(6.67778e-05 -0.00103516 0)
(5.79164e-05 -0.0010387 0)
(6.5941e-05 -0.00103901 0)
(5.72113e-05 -0.00104248 0)
(6.51532e-05 -0.00104274 0)
(5.65474e-05 -0.00104615 0)
(6.44112e-05 -0.00104635 0)
(5.5922e-05 -0.00104971 0)
(6.3712e-05 -0.00104986 0)
(5.53324e-05 -0.00105317 0)
(6.30527e-05 -0.00105327 0)
(5.47763e-05 -0.00105654 0)
(6.24306e-05 -0.0010566 0)
(5.42513e-05 -0.00105983 0)
(6.1843e-05 -0.00105985 0)
(5.37553e-05 -0.00106304 0)
(6.12876e-05 -0.00106302 0)
(5.3286e-05 -0.00106619 0)
(6.0762e-05 -0.00106613 0)
(5.28416e-05 -0.00106927 0)
(6.02639e-05 -0.00106918 0)
(5.24201e-05 -0.0010723 0)
(5.97911e-05 -0.00107218 0)
(5.20196e-05 -0.00107528 0)
(5.93417e-05 -0.00107513 0)
(5.16383e-05 -0.00107821 0)
(5.89135e-05 -0.00107803 0)
(5.12746e-05 -0.00108109 0)
(5.85047e-05 -0.00108089 0)
(5.09268e-05 -0.00108394 0)
(5.81132e-05 -0.00108371 0)
(5.05935e-05 -0.00108676 0)
(5.77374e-05 -0.0010865 0)
(5.02736e-05 -0.00108954 0)
(5.73756e-05 -0.00108926 0)
(4.99662e-05 -0.00109229 0)
(5.70261e-05 -0.00109199 0)
(4.96712e-05 -0.00109502 0)
(5.66877e-05 -0.0010947 0)
(4.93898e-05 -0.00109772 0)
(5.63591e-05 -0.00109738 0)
(4.91247e-05 -0.0011004 0)
(5.60392e-05 -0.00110004 0)
(4.88798e-05 -0.00110305 0)
(5.57271e-05 -0.00110267 0)
(0.000117988 -0.000930358 0)
(0.00012834 -0.000932497 0)
(0.00011471 -0.000939231 0)
(0.000124879 -0.000941266 0)
(0.000111679 -0.000947633 0)
(0.000121652 -0.00094948 0)
(0.000108859 -0.000955521 0)
(0.000118644 -0.000957175 0)
(0.000106229 -0.000962939 0)
(0.000115836 -0.000964413 0)
(0.000103774 -0.000969936 0)
(0.000113213 -0.000971242 0)
(0.000101481 -0.000976551 0)
(0.00011076 -0.000977699 0)
(9.93355e-05 -0.000982815 0)
(0.000108464 -0.000983814 0)
(9.73268e-05 -0.000988757 0)
(0.000106313 -0.000989616 0)
(9.54441e-05 -0.000994403 0)
(0.000104296 -0.000995132 0)
(9.36783e-05 -0.000999776 0)
(0.000102403 -0.00100038 0)
(9.20212e-05 -0.0010049 0)
(0.000100626 -0.0010054 0)
(9.04655e-05 -0.00100979 0)
(9.89575e-05 -0.00101018 0)
(8.90044e-05 -0.00101448 0)
(9.739e-05 -0.00101477 0)
(8.76318e-05 -0.00101896 0)
(9.59169e-05 -0.00101917 0)
(8.63417e-05 -0.00102327 0)
(9.45323e-05 -0.00102339 0)
(8.5129e-05 -0.00102742 0)
(9.32302e-05 -0.00102746 0)
(8.39884e-05 -0.00103142 0)
(9.20054e-05 -0.00103139 0)
(8.29154e-05 -0.00103528 0)
(9.08528e-05 -0.00103518 0)
(8.19055e-05 -0.00103901 0)
(8.97677e-05 -0.00103885 0)
(8.09545e-05 -0.00104263 0)
(8.87457e-05 -0.00104241 0)
(8.00585e-05 -0.00104614 0)
(8.77825e-05 -0.00104586 0)
(7.92139e-05 -0.00104955 0)
(8.68742e-05 -0.00104923 0)
(7.84171e-05 -0.00105288 0)
(8.60171e-05 -0.0010525 0)
(7.76649e-05 -0.00105612 0)
(8.52076e-05 -0.0010557 0)
(7.69541e-05 -0.00105929 0)
(8.44423e-05 -0.00105883 0)
(7.62817e-05 -0.0010624 0)
(8.37181e-05 -0.0010619 0)
(7.56449e-05 -0.00106544 0)
(8.30319e-05 -0.0010649 0)
(7.50409e-05 -0.00106843 0)
(8.23807e-05 -0.00106785 0)
(7.44672e-05 -0.00107136 0)
(8.17618e-05 -0.00107075 0)
(7.39213e-05 -0.00107425 0)
(8.11724e-05 -0.00107361 0)
(7.34007e-05 -0.0010771 0)
(8.061e-05 -0.00107642 0)
(7.29035e-05 -0.00107991 0)
(8.00721e-05 -0.0010792 0)
(7.24275e-05 -0.00108268 0)
(7.95565e-05 -0.00108195 0)
(7.19711e-05 -0.00108542 0)
(7.90609e-05 -0.00108466 0)
(7.1533e-05 -0.00108814 0)
(7.85833e-05 -0.00108735 0)
(7.11125e-05 -0.00109083 0)
(7.81216e-05 -0.00109002 0)
(7.071e-05 -0.00109349 0)
(7.76738e-05 -0.00109266 0)
(7.03266e-05 -0.00109613 0)
(7.72376e-05 -0.00109527 0)
(6.9965e-05 -0.00109875 0)
(7.68109e-05 -0.00109785 0)
(0.000153378 -0.000927834 0)
(0.0001634 -0.000929693 0)
(0.000149162 -0.000936525 0)
(0.000159016 -0.000938269 0)
(0.000145257 -0.000944752 0)
(0.000154934 -0.0009463 0)
(0.000141621 -0.000952474 0)
(0.00015113 -0.000953822 0)
(0.000138228 -0.000959738 0)
(0.000147578 -0.000960898 0)
(0.000135055 -0.000966593 0)
(0.000144255 -0.000967575 0)
(0.000132087 -0.000973076 0)
(0.000141145 -0.00097389 0)
(0.000129307 -0.000979217 0)
(0.000138231 -0.000979874 0)
(0.000126702 -0.000985043 0)
(0.000135499 -0.000985553 0)
(0.000124259 -0.00099058 0)
(0.000132936 -0.000990953 0)
(0.000121968 -0.00099585 0)
(0.000130532 -0.000996096 0)
(0.000119817 -0.00100088 0)
(0.000128274 -0.001001 0)
(0.000117797 -0.00100568 0)
(0.000126154 -0.00100569 0)
(0.000115901 -0.00101027 0)
(0.000124162 -0.00101019 0)
(0.000114118 -0.00101468 0)
(0.00012229 -0.00101449 0)
(0.000112443 -0.00101891 0)
(0.00012053 -0.00101863 0)
(0.000110868 -0.00102298 0)
(0.000118875 -0.00102262 0)
(0.000109387 -0.0010269 0)
(0.000117318 -0.00102647 0)
(0.000107993 -0.00103069 0)
(0.000115853 -0.00103018 0)
(0.000106681 -0.00103435 0)
(0.000114473 -0.00103378 0)
(0.000105445 -0.0010379 0)
(0.000113173 -0.00103727 0)
(0.000104281 -0.00104135 0)
(0.000111949 -0.00104065 0)
(0.000103184 -0.0010447 0)
(0.000110794 -0.00104395 0)
(0.000102149 -0.00104797 0)
(0.000109704 -0.00104716 0)
(0.000101171 -0.00105115 0)
(0.000108675 -0.00105029 0)
(0.000100248 -0.00105426 0)
(0.000107702 -0.00105336 0)
(9.93743e-05 -0.00105731 0)
(0.000106781 -0.00105636 0)
(9.85471e-05 -0.0010603 0)
(0.000105909 -0.0010593 0)
(9.77627e-05 -0.00106323 0)
(0.000105082 -0.00106219 0)
(9.70179e-05 -0.00106611 0)
(0.000104296 -0.00106504 0)
(9.63095e-05 -0.00106894 0)
(0.000103547 -0.00106783 0)
(9.56344e-05 -0.00107173 0)
(0.000102834 -0.00107059 0)
(9.49899e-05 -0.00107449 0)
(0.000102152 -0.00107331 0)
(9.43733e-05 -0.00107721 0)
(0.000101499 -0.001076 0)
(9.37825e-05 -0.0010799 0)
(0.000100872 -0.00107866 0)
(9.32155e-05 -0.00108256 0)
(0.000100268 -0.00108129 0)
(9.26711e-05 -0.0010852 0)
(9.96847e-05 -0.0010839 0)
(9.21489e-05 -0.00108781 0)
(9.91193e-05 -0.00108648 0)
(9.16492e-05 -0.0010904 0)
(9.85688e-05 -0.00108903 0)
(9.11735e-05 -0.00109296 0)
(9.80305e-05 -0.00109156 0)
(0.000188698 -0.000924698 0)
(0.000198391 -0.000926266 0)
(0.000183561 -0.000933162 0)
(0.000193102 -0.000934602 0)
(0.000178795 -0.000941175 0)
(0.000188179 -0.000942409 0)
(0.000174355 -0.000948695 0)
(0.00018359 -0.000949722 0)
(0.000170208 -0.000955768 0)
(0.000179305 -0.000956601 0)
(0.000166329 -0.000962445 0)
(0.000175295 -0.000963093 0)
(0.000162697 -0.000968761 0)
(0.000171539 -0.000969235 0)
(0.000159294 -0.000974745 0)
(0.000168019 -0.000975055 0)
(0.000156104 -0.000980425 0)
(0.000164717 -0.000980581 0)
(0.00015311 -0.000985823 0)
(0.000161619 -0.000985836 0)
(0.000150302 -0.000990963 0)
(0.000158711 -0.000990842 0)
(0.000147665 -0.000995865 0)
(0.000155981 -0.00099562 0)
(0.000145189 -0.00100055 0)
(0.000153416 -0.00100019 0)
(0.000142862 -0.00100503 0)
(0.000151007 -0.00100456 0)
(0.000140676 -0.00100933 0)
(0.000148742 -0.00100876 0)
(0.000138622 -0.00101346 0)
(0.000146612 -0.00101279 0)
(0.000136689 -0.00101743 0)
(0.000144609 -0.00101668 0)
(0.000134872 -0.00102126 0)
(0.000142725 -0.00102043 0)
(0.000133162 -0.00102496 0)
(0.000140952 -0.00102405 0)
(0.000131552 -0.00102854 0)
(0.000139282 -0.00102755 0)
(0.000130036 -0.001032 0)
(0.000137709 -0.00103095 0)
(0.000128607 -0.00103537 0)
(0.000136227 -0.00103425 0)
(0.000127261 -0.00103864 0)
(0.000134829 -0.00103746 0)
(0.00012599 -0.00104183 0)
(0.00013351 -0.00104059 0)
(0.000124791 -0.00104494 0)
(0.000132264 -0.00104365 0)
(0.000123658 -0.00104798 0)
(0.000131087 -0.00104663 0)
(0.000122586 -0.00105095 0)
(0.000129973 -0.00104956 0)
(0.000121571 -0.00105387 0)
(0.000128918 -0.00105242 0)
(0.00012061 -0.00105673 0)
(0.000127917 -0.00105524 0)
(0.000119696 -0.00105954 0)
(0.000126967 -0.00105801 0)
(0.000118828 -0.0010623 0)
(0.000126063 -0.00106073 0)
(0.000118001 -0.00106503 0)
(0.000125201 -0.00106342 0)
(0.000117212 -0.00106772 0)
(0.000124378 -0.00106607 0)
(0.000116458 -0.00107037 0)
(0.00012359 -0.00106869 0)
(0.000115735 -0.00107299 0)
(0.000122834 -0.00107127 0)
(0.000115042 -0.00107559 0)
(0.000122107 -0.00107383 0)
(0.000114376 -0.00107816 0)
(0.000121405 -0.00107637 0)
(0.000113737 -0.0010807 0)
(0.000120725 -0.00107888 0)
(0.000113123 -0.00108322 0)
(0.000120063 -0.00108136 0)
(0.000112536 -0.00108572 0)
(0.000119416 -0.00108382 0)
(0.000223927 -0.000920963 0)
(0.000233291 -0.000922228 0)
(0.000217889 -0.000929154 0)
(0.000227118 -0.000930281 0)
(0.000212279 -0.000936911 0)
(0.000221372 -0.000937823 0)
(0.000207049 -0.00094419 0)
(0.000216015 -0.000944888 0)
(0.000202162 -0.000951038 0)
(0.00021101 -0.000951535 0)
(0.00019759 -0.000957503 0)
(0.000206327 -0.000957809 0)
(0.000193308 -0.000963619 0)
(0.000201939 -0.000963746 0)
(0.000189295 -0.000969416 0)
(0.000197826 -0.000969373 0)
(0.00018553 -0.000974919 0)
(0.000193967 -0.000974717 0)
(0.000181998 -0.000980151 0)
(0.000190345 -0.0009798 0)
(0.000178683 -0.000985133 0)
(0.000186945 -0.000984644 0)
(0.00017557 -0.000989886 0)
(0.000183752 -0.000989267 0)
(0.000172646 -0.000994429 0)
(0.000180752 -0.000993689 0)
(0.000169898 -0.000998777 0)
(0.000177932 -0.000997924 0)
(0.000167316 -0.00100295 0)
(0.000175282 -0.00100199 0)
(0.000164888 -0.00100695 0)
(0.00017279 -0.0010059 0)
(0.000162606 -0.00101081 0)
(0.000170446 -0.00100966 0)
(0.000160458 -0.00101452 0)
(0.000168241 -0.00101329 0)
(0.000158437 -0.00101811 0)
(0.000166165 -0.00101679 0)
(0.000156535 -0.00102159 0)
(0.00016421 -0.00102019 0)
(0.000154743 -0.00102495 0)
(0.000162369 -0.00102348 0)
(0.000153055 -0.00102822 0)
(0.000160634 -0.00102668 0)
(0.000151463 -0.0010314 0)
(0.000158998 -0.00102979 0)
(0.000149962 -0.00103449 0)
(0.000157454 -0.00103283 0)
(0.000148545 -0.00103751 0)
(0.000155996 -0.00103579 0)
(0.000147206 -0.00104046 0)
(0.000154618 -0.00103868 0)
(0.000145939 -0.00104335 0)
(0.000153315 -0.00104151 0)
(0.000144741 -0.00104617 0)
(0.000152081 -0.00104429 0)
(0.000143605 -0.00104895 0)
(0.00015091 -0.00104702 0)
(0.000142527 -0.00105168 0)
(0.000149799 -0.0010497 0)
(0.000141502 -0.00105436 0)
(0.000148743 -0.00105234 0)
(0.000140527 -0.00105701 0)
(0.000147737 -0.00105494 0)
(0.000139597 -0.00105961 0)
(0.000146776 -0.0010575 0)
(0.000138708 -0.00106219 0)
(0.000145857 -0.00106004 0)
(0.000137856 -0.00106473 0)
(0.000144976 -0.00106254 0)
(0.00013704 -0.00106725 0)
(0.000144128 -0.00106502 0)
(0.000136256 -0.00106974 0)
(0.000143311 -0.00106747 0)
(0.000135503 -0.0010722 0)
(0.000142519 -0.00106989 0)
(0.000134779 -0.00107464 0)
(0.00014175 -0.00107229 0)
(0.000134085 -0.00107706 0)
(0.000140999 -0.00107467 0)
(0.000259042 -0.000916639 0)
(0.000268081 -0.000917591 0)
(0.000252126 -0.000924513 0)
(0.000261049 -0.000925317 0)
(0.000245694 -0.000931973 0)
(0.000254501 -0.000932554 0)
(0.000239693 -0.000938974 0)
(0.000248395 -0.000939335 0)
(0.000234085 -0.000945561 0)
(0.000242689 -0.000945715 0)
(0.000228837 -0.00095178 0)
(0.000237349 -0.000951739 0)
(0.000223919 -0.000957666 0)
(0.000232345 -0.00095744 0)
(0.00021931 -0.000963245 0)
(0.000227653 -0.000962846 0)
(0.000214985 -0.000968543 0)
(0.000223251 -0.00096798 0)
(0.000210927 -0.000973582 0)
(0.000219118 -0.000972866 0)
(0.000207117 -0.000978381 0)
(0.000215238 -0.000977522 0)
(0.000203538 -0.000982961 0)
(0.000211593 -0.000981968 0)
(0.000200177 -0.000987338 0)
(0.000208168 -0.000986221 0)
(0.000197018 -0.00099153 0)
(0.000204948 -0.000990295 0)
(0.000194048 -0.00099555 0)
(0.000201922 -0.000994206 0)
(0.000191256 -0.000999413 0)
(0.000199076 -0.000997966 0)
(0.00018863 -0.00100313 0)
(0.000196399 -0.00100159 0)
(0.00018616 -0.00100672 0)
(0.00019388 -0.00100508 0)
(0.000183835 -0.00101018 0)
(0.000191508 -0.00100846 0)
(0.000181646 -0.00101353 0)
(0.000189275 -0.00101173 0)
(0.000179585 -0.00101678 0)
(0.000187172 -0.0010149 0)
(0.000177642 -0.00101993 0)
(0.000185189 -0.00101798 0)
(0.000175811 -0.001023 0)
(0.00018332 -0.00102098 0)
(0.000174084 -0.00102598 0)
(0.000181556 -0.0010239 0)
(0.000172453 -0.0010289 0)
(0.000179891 -0.00102675 0)
(0.000170913 -0.00103174 0)
(0.000178317 -0.00102954 0)
(0.000169457 -0.00103453 0)
(0.000176829 -0.00103226 0)
(0.000168078 -0.00103726 0)
(0.00017542 -0.00103494 0)
(0.000166772 -0.00103993 0)
(0.000174085 -0.00103756 0)
(0.000165534 -0.00104257 0)
(0.000172817 -0.00104015 0)
(0.000164357 -0.00104515 0)
(0.000171613 -0.00104269 0)
(0.000163236 -0.0010477 0)
(0.000170465 -0.00104519 0)
(0.000162169 -0.00105022 0)
(0.000169371 -0.00104766 0)
(0.000161149 -0.0010527 0)
(0.000168325 -0.00105009 0)
(0.000160173 -0.00105515 0)
(0.000167322 -0.0010525 0)
(0.000159237 -0.00105757 0)
(0.000166358 -0.00105488 0)
(0.000158339 -0.00105997 0)
(0.00016543 -0.00105724 0)
(0.000157476 -0.00106235 0)
(0.000164531 -0.00105957 0)
(0.000156646 -0.0010647 0)
(0.00016366 -0.00106187 0)
(0.000155849 -0.00106702 0)
(0.00016281 -0.00106415 0)
(0.000294023 -0.000911737 0)
(0.000302742 -0.000912367 0)
(0.000286257 -0.000919253 0)
(0.000294877 -0.000919724 0)
(0.000279027 -0.000926376 0)
(0.000287553 -0.000926619 0)
(0.000272279 -0.000933062 0)
(0.000280721 -0.000933079 0)
(0.00026597 -0.000939354 0)
(0.000274336 -0.00093916 0)
(0.000260064 -0.000945295 0)
(0.000268358 -0.000944903 0)
(0.00025453 -0.00095092 0)
(0.000262756 -0.000950339 0)
(0.00024934 -0.000956254 0)
(0.000257502 -0.000955495 0)
(0.000244471 -0.000961319 0)
(0.000252572 -0.000960394 0)
(0.000239901 -0.000966138 0)
(0.000247943 -0.000965057 0)
(0.000235609 -0.00097073 0)
(0.000243595 -0.000969502 0)
(0.000231578 -0.000975113 0)
(0.000239511 -0.000973748 0)
(0.00022779 -0.000979304 0)
(0.000235673 -0.00097781 0)
(0.00022423 -0.000983317 0)
(0.000232065 -0.000981703 0)
(0.000220884 -0.000987168 0)
(0.000228673 -0.000985441 0)
(0.000217737 -0.000990868 0)
(0.000225482 -0.000989035 0)
(0.000214777 -0.000994431 0)
(0.00022248 -0.000992497 0)
(0.000211992 -0.000997866 0)
(0.000219655 -0.000995839 0)
(0.00020937 -0.00100119 0)
(0.000216996 -0.000999069 0)
(0.000206902 -0.0010044 0)
(0.000214492 -0.0010022 0)
(0.000204578 -0.00100751 0)
(0.000212133 -0.00100523 0)
(0.000202387 -0.00101053 0)
(0.00020991 -0.00100818 0)
(0.000200322 -0.00101347 0)
(0.000207814 -0.00101105 0)
(0.000198375 -0.00101634 0)
(0.000205836 -0.00101384 0)
(0.000196536 -0.00101913 0)
(0.000203969 -0.00101657 0)
(0.0001948 -0.00102186 0)
(0.000202205 -0.00101923 0)
(0.000193158 -0.00102453 0)
(0.000200537 -0.00102185 0)
(0.000191605 -0.00102715 0)
(0.000198958 -0.0010244 0)
(0.000190134 -0.00102972 0)
(0.000197462 -0.00102692 0)
(0.000188739 -0.00103224 0)
(0.000196043 -0.00102938 0)
(0.000187414 -0.00103472 0)
(0.000194694 -0.00103181 0)
(0.000186153 -0.00103716 0)
(0.000193411 -0.00103421 0)
(0.000184952 -0.00103957 0)
(0.000192187 -0.00103657 0)
(0.000183806 -0.00104195 0)
(0.000191018 -0.00103889 0)
(0.00018271 -0.00104429 0)
(0.000189898 -0.00104119 0)
(0.000181659 -0.00104661 0)
(0.000188823 -0.00104347 0)
(0.000180651 -0.00104891 0)
(0.000187788 -0.00104572 0)
(0.000179682 -0.00105118 0)
(0.000186788 -0.00104794 0)
(0.000178751 -0.00105343 0)
(0.000185818 -0.00105014 0)
(0.000177856 -0.00105565 0)
(0.000184874 -0.00105231 0)
(0.000328852 -0.000906269 0)
(0.000337254 -0.000906568 0)
(0.000320266 -0.000913386 0)
(0.000328589 -0.000913518 0)
(0.000312266 -0.000920136 0)
(0.000320516 -0.000920034 0)
(0.000304796 -0.000926472 0)
(0.000312984 -0.00092614 0)
(0.00029781 -0.000932435 0)
(0.000305943 -0.000931889 0)
(0.000291268 -0.000938068 0)
(0.00029935 -0.000937321 0)
(0.000285136 -0.000943403 0)
(0.000293169 -0.000942465 0)
(0.000279385 -0.000948463 0)
(0.000287372 -0.000947346 0)
(0.000273989 -0.000953271 0)
(0.000281931 -0.000951984 0)
(0.000268923 -0.000957846 0)
(0.000276822 -0.0009564 0)
(0.000264165 -0.000962207 0)
(0.000272023 -0.000960612 0)
(0.000259694 -0.000966371 0)
(0.000267513 -0.000964636 0)
(0.000255494 -0.000970354 0)
(0.000263275 -0.000968488 0)
(0.000251545 -0.000974169 0)
(0.00025929 -0.00097218 0)
(0.000247833 -0.00097783 0)
(0.000255543 -0.000975725 0)
(0.000244341 -0.00098135 0)
(0.000252018 -0.000979136 0)
(0.000241057 -0.000984739 0)
(0.000248702 -0.000982422 0)
(0.000237966 -0.000988009 0)
(0.000245581 -0.000985595 0)
(0.000235057 -0.000991168 0)
(0.000242643 -0.000988662 0)
(0.000232318 -0.000994225 0)
(0.000239876 -0.000991632 0)
(0.000229737 -0.000997189 0)
(0.000237269 -0.000994514 0)
(0.000227306 -0.00100007 0)
(0.000234812 -0.000997314 0)
(0.000225014 -0.00100287 0)
(0.000232496 -0.00100004 0)
(0.000222853 -0.00100559 0)
(0.000230311 -0.00100269 0)
(0.000220812 -0.00100826 0)
(0.000228248 -0.00100529 0)
(0.000218886 -0.00101086 0)
(0.000226299 -0.00100782 0)
(0.000217065 -0.0010134 0)
(0.000224457 -0.0010103 0)
(0.000215342 -0.00101589 0)
(0.000222714 -0.00101273 0)
(0.00021371 -0.00101834 0)
(0.000221062 -0.00101512 0)
(0.000212164 -0.00102074 0)
(0.000219496 -0.00101746 0)
(0.000210696 -0.0010231 0)
(0.000218009 -0.00101977 0)
(0.0002093 -0.00102542 0)
(0.000216594 -0.00102204 0)
(0.00020797 -0.00102772 0)
(0.000215246 -0.00102428 0)
(0.000206702 -0.00102998 0)
(0.000213959 -0.00102649 0)
(0.00020549 -0.00103221 0)
(0.000212727 -0.00102867 0)
(0.00020433 -0.00103442 0)
(0.000211546 -0.00103083 0)
(0.000203217 -0.0010366 0)
(0.000210409 -0.00103296 0)
(0.000202148 -0.00103875 0)
(0.000209312 -0.00103507 0)
(0.00020112 -0.00104089 0)
(0.00020825 -0.00103715 0)
(0.000200133 -0.001043 0)
(0.000207218 -0.0010392 0)
(0.000363509 -0.000900248 0)
(0.000371601 -0.000900209 0)
(0.000354136 -0.000906929 0)
(0.000362169 -0.000906716 0)
(0.000345397 -0.000913269 0)
(0.000353379 -0.000912818 0)
(0.000337234 -0.000919222 0)
(0.000345175 -0.000918539 0)
(0.000329597 -0.000924826 0)
(0.000337504 -0.000923927 0)
(0.000322443 -0.000930122 0)
(0.000330319 -0.000929019 0)
(0.000315736 -0.000935139 0)
(0.000323583 -0.000933844 0)
(0.000309445 -0.0009399 0)
(0.000317263 -0.000938424 0)
(0.00030354 -0.000944425 0)
(0.00031133 -0.000942778 0)
(0.000297995 -0.000948734 0)
(0.000305758 -0.000946926 0)
(0.000292787 -0.000952842 0)
(0.000300524 -0.000950883 0)
(0.000287893 -0.000956766 0)
(0.000295604 -0.000954665 0)
(0.000283294 -0.00096052 0)
(0.00029098 -0.000958286 0)
(0.00027897 -0.000964118 0)
(0.000286632 -0.000961759 0)
(0.000274904 -0.000967572 0)
(0.000282542 -0.000965095 0)
(0.000271079 -0.000970893 0)
(0.000278695 -0.000968305 0)
(0.000267481 -0.000974093 0)
(0.000275075 -0.000971399 0)
(0.000264094 -0.00097718 0)
(0.000271668 -0.000974387 0)
(0.000260907 -0.000980163 0)
(0.00026846 -0.000977276 0)
(0.000257905 -0.000983052 0)
(0.000265439 -0.000980075 0)
(0.000255078 -0.000985852 0)
(0.000262593 -0.000982791 0)
(0.000252414 -0.000988573 0)
(0.00025991 -0.00098543 0)
(0.000249902 -0.000991219 0)
(0.000257381 -0.000987999 0)
(0.000247533 -0.000993797 0)
(0.000254995 -0.000990502 0)
(0.000245298 -0.000996312 0)
(0.000252743 -0.000992947 0)
(0.000243187 -0.00099877 0)
(0.000250616 -0.000995336 0)
(0.000241192 -0.00100117 0)
(0.000248606 -0.000997675 0)
(0.000239306 -0.00100353 0)
(0.000246704 -0.000999967 0)
(0.00023752 -0.00100584 0)
(0.000244903 -0.00100222 0)
(0.000235828 -0.00100811 0)
(0.000243196 -0.00100443 0)
(0.000234222 -0.00101034 0)
(0.000241576 -0.0010066 0)
(0.000232695 -0.00101254 0)
(0.000240035 -0.00100874 0)
(0.000231243 -0.0010147 0)
(0.000238568 -0.00101085 0)
(0.000229858 -0.00101684 0)
(0.000237168 -0.00101293 0)
(0.000228536 -0.00101895 0)
(0.00023583 -0.00101499 0)
(0.00022727 -0.00102103 0)
(0.000234547 -0.00101702 0)
(0.000226058 -0.00102309 0)
(0.000233315 -0.00101902 0)
(0.000224894 -0.00102512 0)
(0.000232127 -0.001021 0)
(0.000223776 -0.00102713 0)
(0.000230978 -0.00102296 0)
(0.000222702 -0.00102912 0)
(0.000229862 -0.00102488 0)
(0.000397974 -0.00089369 0)
(0.000405763 -0.000893307 0)
(0.000387852 -0.000899899 0)
(0.000395601 -0.000899336 0)
(0.000378407 -0.000905796 0)
(0.000386128 -0.000904993 0)
(0.000369582 -0.000911335 0)
(0.000377283 -0.000910298 0)
(0.000361322 -0.00091655 0)
(0.00036901 -0.000915296 0)
(0.000353582 -0.000921481 0)
(0.00036126 -0.000920024 0)
(0.000346325 -0.000926155 0)
(0.000353992 -0.000924504 0)
(0.000339515 -0.000930592 0)
(0.000347172 -0.00092876 0)
(0.000333123 -0.000934812 0)
(0.000340768 -0.000932808 0)
(0.000327119 -0.000938832 0)
(0.000334753 -0.000936665 0)
(0.000321478 -0.000942666 0)
(0.000329101 -0.000940348 0)
(0.000316178 -0.00094633 0)
(0.000323788 -0.000943869 0)
(0.000311195 -0.000949837 0)
(0.000318793 -0.000947242 0)
(0.00030651 -0.0009532 0)
(0.000314096 -0.000950478 0)
(0.000302103 -0.000956429 0)
(0.000309678 -0.000953588 0)
(0.000297958 -0.000959536 0)
(0.00030552 -0.000956581 0)
(0.000294058 -0.00096253 0)
(0.000301608 -0.000959468 0)
(0.000290387 -0.000965419 0)
(0.000297926 -0.000962257 0)
(0.000286931 -0.000968213 0)
(0.000294458 -0.000964954 0)
(0.000283677 -0.000970919 0)
(0.000291193 -0.000967568 0)
(0.000280611 -0.000973543 0)
(0.000288116 -0.000970105 0)
(0.000277722 -0.000976092 0)
(0.000285216 -0.000972571 0)
(0.000274999 -0.000978572 0)
(0.000282482 -0.000974972 0)
(0.000272431 -0.000980988 0)
(0.000279904 -0.000977313 0)
(0.000270008 -0.000983347 0)
(0.00027747 -0.000979598 0)
(0.00026772 -0.000985651 0)
(0.000275172 -0.000981831 0)
(0.000265558 -0.000987905 0)
(0.000273 -0.000984018 0)
(0.000263514 -0.000990114 0)
(0.000270946 -0.000986161 0)
(0.00026158 -0.000992281 0)
(0.000269002 -0.000988265 0)
(0.000259747 -0.000994409 0)
(0.000267159 -0.000990331 0)
(0.000258009 -0.000996501 0)
(0.000265411 -0.000992363 0)
(0.000256359 -0.00099856 0)
(0.00026375 -0.000994363 0)
(0.000254789 -0.00100059 0)
(0.00026217 -0.000996334 0)
(0.000253293 -0.00100259 0)
(0.000260663 -0.000998277 0)
(0.000251865 -0.00100456 0)
(0.000259224 -0.00100019 0)
(0.000250501 -0.00100651 0)
(0.000257846 -0.00100209 0)
(0.000249194 -0.00100843 0)
(0.000256523 -0.00100396 0)
(0.000247941 -0.00101034 0)
(0.00025525 -0.00100581 0)
(0.000246738 -0.00101222 0)
(0.00025402 -0.00100763 0)
(0.000245583 -0.00101408 0)
(0.000252829 -0.00100942 0)
(0.00043223 -0.000886609 0)
(0.000439724 -0.000885878 0)
(0.000421398 -0.000892314 0)
(0.000428872 -0.000891398 0)
(0.000411284 -0.000897738 0)
(0.000418751 -0.00089658 0)
(0.000401829 -0.000902834 0)
(0.000409299 -0.000901442 0)
(0.000392977 -0.000907634 0)
(0.000400454 -0.000906025 0)
(0.00038468 -0.000912174 0)
(0.000392167 -0.000910362 0)
(0.000376898 -0.00091648 0)
(0.000384393 -0.000914476 0)
(0.000369594 -0.000920571 0)
(0.000377096 -0.000918385 0)
(0.000362736 -0.000924464 0)
(0.000370243 -0.000922106 0)
(0.000356294 -0.000928173 0)
(0.000363805 -0.000925654 0)
(0.000350241 -0.000931714 0)
(0.000357755 -0.000929043 0)
(0.000344551 -0.0009351 0)
(0.000352067 -0.000932285 0)
(0.000339201 -0.000938343 0)
(0.000346718 -0.000935393 0)
(0.00033417 -0.000941453 0)
(0.000341687 -0.000938376 0)
(0.000329438 -0.000944442 0)
(0.000336954 -0.000941244 0)
(0.000324986 -0.000947319 0)
(0.0003325 -0.000944007 0)
(0.000320796 -0.000950093 0)
(0.000328308 -0.000946673 0)
(0.000316852 -0.000952771 0)
(0.000324362 -0.000949249 0)
(0.000313139 -0.000955361 0)
(0.000320646 -0.000951742 0)
(0.000309642 -0.000957871 0)
(0.000317147 -0.000954158 0)
(0.000306348 -0.000960305 0)
(0.000313849 -0.000956505 0)
(0.000303244 -0.000962672 0)
(0.000310741 -0.000958786 0)
(0.000300317 -0.000964974 0)
(0.000307811 -0.000961008 0)
(0.000297558 -0.000967218 0)
(0.000305048 -0.000963174 0)
(0.000294954 -0.000969409 0)
(0.00030244 -0.00096529 0)
(0.000292497 -0.000971549 0)
(0.000299978 -0.000967358 0)
(0.000290175 -0.000973644 0)
(0.000297652 -0.000969383 0)
(0.00028798 -0.000975696 0)
(0.000295453 -0.000971368 0)
(0.000285904 -0.000977709 0)
(0.000293372 -0.000973315 0)
(0.000283938 -0.000979686 0)
(0.0002914 -0.000975229 0)
(0.000282074 -0.000981629 0)
(0.000289531 -0.00097711 0)
(0.000280305 -0.000983541 0)
(0.000287756 -0.000978961 0)
(0.000278623 -0.000985425 0)
(0.000286068 -0.000980785 0)
(0.000277022 -0.000987281 0)
(0.00028446 -0.000982583 0)
(0.000275496 -0.000989112 0)
(0.000282926 -0.000984357 0)
(0.000274038 -0.00099092 0)
(0.000281458 -0.000986108 0)
(0.000272643 -0.000992705 0)