/*--------------------------------*- C++ -*----------------------------------*\
| =========                 |                                                 |
| \\      /  F ield         | OpenFOAM: The Open Source CFD Toolbox           |
|  \\    /   O peration     | Version:  v2012                                 |
|   \\  /    A nd           | Website:  www.openfoam.com                      |
|    \\/     M anipulation  |                                                 |
\*---------------------------------------------------------------------------*/
FoamFile
{
    version     2.0;
    format      ascii;
    class       pointVectorField;
    location    "5";
    object      pointD;
}
// * * * * * * * * * * * * * * * * * * * * * * * * * * * * * * * * * * * * * //

dimensions      [0 1 0 0 0 0 0];


internalField   nonuniform List<vector> 
32562
(
(0.00177893 0 8.00756e-22)
(0.00252911 0 6.69892e-22)
(0.00233404 -0.000232766 0)
(0 -0.00125246 -1.79223e-23)
(0 -0.000971973 1.5593e-21)
(0.00183792 0 0)
(0 -0.00115493 0)
(0.00108147 -0.000396669 0)
(0.000538647 -0.000737176 2.97649e-22)
(0.00244333 -7.16637e-05 7.11359e-21)
(0.00129283 -0.000587837 7.34259e-22)
(0.00129283 -0.000587837 7.34259e-22)
(0.00108147 -0.000396669 0)
(0 -0.00115493 0)
(0 -0.000971973 1.5593e-21)
(0.00177893 0 8.00756e-22)
(0.00183792 0 0)
(0.00252911 0 6.69892e-22)
(0.00244333 -7.16637e-05 7.11359e-21)
(0.00233404 -0.000232766 0)
(0.000538647 -0.000737176 2.97649e-22)
(0 -0.00125246 -1.79223e-23)
(2.16689e-05 -0.00115442 0)
(4.34592e-05 -0.001152 0)
(6.5303e-05 -0.00114802 0)
(8.72624e-05 -0.00114248 0)
(0.000109375 -0.00113541 0)
(0.000131672 -0.00112684 0)
(0.000154187 -0.00111682 0)
(0.000176948 -0.00110539 0)
(0.000199984 -0.0010926 0)
(0.000223319 -0.00107851 0)
(0.000246976 -0.00106319 0)
(0.000270973 -0.00104669 0)
(0.000295328 -0.00102909 0)
(0.000320053 -0.00101046 0)
(0.000345159 -0.000990879 0)
(0.000370653 -0.000970416 0)
(0.000396541 -0.000949152 0)
(0.000422823 -0.000927164 0)
(0.000449499 -0.000904532 0)
(0.000476566 -0.000881333 0)
(0.000504016 -0.000857644 0)
(0.000531841 -0.000833542 0)
(0.00056003 -0.0008091 0)
(0.000588569 -0.000784391 0)
(0.000617444 -0.000759486 0)
(0.000646636 -0.000734452 0)
(0.000676126 -0.000709354 0)
(0.000705894 -0.000684256 0)
(0.000735916 -0.000659215 0)
(0.000766169 -0.000634289 0)
(0.000796628 -0.000609531 0)
(0.000827264 -0.00058499 0)
(0.000858051 -0.000560713 0)
(0.000888957 -0.000536742 0)
(0.000919954 -0.00051312 0)
(0.000951015 -0.000489887 0)
(0.000982091 -0.000467064 0)
(0.00101304 -0.000444648 0)
(0.00104389 -0.000423032 0)
(0.00111925 -0.000371452 0)
(0.00114966 -0.000351505 0)
(0.00117988 -0.000332174 0)
(0.00120987 -0.000313432 0)
(0.00123957 -0.000295296 0)
(0.00126895 -0.000277783 0)
(0.00129796 -0.000260905 0)
(0.00132657 -0.000244668 0)
(0.00135473 -0.000229076 0)
(0.00138241 -0.000214131 0)
(0.00140957 -0.000199831 0)
(0.00143618 -0.000186171 0)
(0.0014622 -0.000173145 0)
(0.00148759 -0.000160746 0)
(0.00151233 -0.000148962 0)
(0.00153638 -0.000137783 0)
(0.0015597 -0.000127195 0)
(0.00158227 -0.000117184 0)
(0.00160406 -0.000107733 0)
(0.00162503 -9.88249e-05 0)
(0.00164515 -9.0441e-05 0)
(0.00166441 -8.25616e-05 0)
(0.00168277 -7.51657e-05 0)
(0.0017002 -6.82313e-05 0)
(0.00171668 -6.17355e-05 0)
(0.0017322 -5.56546e-05 0)
(0.00174671 -4.9964e-05 0)
(0.00176022 -4.46381e-05 0)
(0.00177269 -3.96509e-05 0)
(0.00178411 -3.49757e-05 0)
(0.00179446 -3.05852e-05 0)
(0.00180373 -2.64515e-05 0)
(0.00181191 -2.25466e-05 0)
(0.00181898 -1.88419e-05 0)
(0.00182494 -1.53093e-05 0)
(0.00182977 -1.19211e-05 0)
(0.00183348 -8.65126e-06 0)
(0.00183608 -5.47715e-06 0)
(0.0018376 -2.36881e-06 0)
(0.00178201 0 0)
(0.00178548 0 0)
(0.00178866 0 0)
(0.00179159 0 0)
(0.00179429 0 0)
(0.00179679 0 0)
(0.00179911 0 0)
(0.00180126 0 0)
(0.00180326 0 0)
(0.00180513 0 0)
(0.00180687 0 0)
(0.0018085 0 0)
(0.00181003 0 0)
(0.00181147 0 0)
(0.00181283 0 0)
(0.00181412 0 0)
(0.00181534 0 0)
(0.00181651 0 0)
(0.00181762 0 0)
(0.0018187 0 0)
(0.00181973 0 0)
(0.00182074 0 0)
(0.00182171 0 0)
(0.00182267 0 0)
(0.0018236 0 0)
(0.00182453 0 0)
(0.00182544 0 0)
(0.00182635 0 0)
(0.00182725 0 0)
(0.00182816 0 0)
(0.00182907 0 0)
(0.00182998 0 0)
(0.0018309 0 0)
(0.00183184 0 0)
(0.00183279 0 0)
(0.00183375 0 0)
(0.00183475 0 0)
(0.00183578 0 0)
(0.00183681 0 0)
(0.00183983 0 0)
(0.00184249 0 0)
(0.00184533 0 0)
(0.00184838 0 0)
(0.00185165 0 0)
(0.00185512 0 0)
(0.00185879 0 0)
(0.00186265 0 0)
(0.00186672 0 0)
(0.00187099 0 0)
(0.00187546 0 0)
(0.00188014 0 0)
(0.00188501 0 0)
(0.00189009 0 0)
(0.00189536 0 0)
(0.00190084 0 0)
(0.0019065 0 0)
(0.00191236 0 0)
(0.00191841 0 0)
(0.00192464 0 0)
(0.00193106 0 0)
(0.00193766 0 0)
(0.00194444 0 0)
(0.0019514 0 0)
(0.00195853 0 0)
(0.00196583 0 0)
(0.0019733 0 0)
(0.00198094 0 0)
(0.00198874 0 0)
(0.0019967 0 0)
(0.00200482 0 0)
(0.00201309 0 0)
(0.00202152 0 0)
(0.00203009 0 0)
(0.00203881 0 0)
(0.00204768 0 0)
(0.00205669 0 0)
(0.00206583 0 0)
(0.00207512 0 0)
(0.00208453 0 0)
(0.00209408 0 0)
(0.00210375 0 0)
(0.00211355 0 0)
(0.00212347 0 0)
(0.00213351 0 0)
(0.00214366 0 0)
(0.00215393 0 0)
(0.0021643 0 0)
(0.00217479 0 0)
(0.00218538 0 0)
(0.00219606 0 0)
(0.00220685 0 0)
(0.00221773 0 0)
(0.0022287 0 0)
(0.00223975 0 0)
(0.00225089 0 0)
(0.00226211 0 0)
(0.00227341 0 0)
(0.00228478 0 0)
(0.00229621 0 0)
(0.00230771 0 0)
(0.00231927 0 0)
(0.00233088 0 0)
(0.00234254 0 0)
(0.00235425 0 0)
(0.002366 0 0)
(0.00237778 0 0)
(0.00238959 0 0)
(0.00240143 0 0)
(0.00241328 0 0)
(0.00242514 0 0)
(0.002437 0 0)
(0.00244887 0 0)
(0.00246071 0 0)
(0.00247254 0 0)
(0.00248434 0 0)
(0.0024961 0 0)
(0.00250781 0 0)
(0.00251945 0 0)
(0.0025329 -1.04675e-06 3.51377e-21)
(0.00253273 -1.91885e-06 4.30205e-21)
(0.0025324 -2.79284e-06 1.53625e-23)
(0.00253193 -3.683e-06 -3.60696e-21)
(0.00253131 -4.59335e-06 -2.16527e-21)
(0.00253056 -5.52592e-06 -7.71824e-22)
(0.00252968 -6.48365e-06 -2.16229e-21)
(0.00252866 -7.47008e-06 -1.09972e-23)
(0.00252751 -8.48883e-06 1.02749e-23)
(0.00252623 -9.54351e-06 -2.72884e-21)
(0.00252482 -1.06377e-05 -2.22013e-21)
(0.00252328 -1.17748e-05 1.36099e-21)
(0.00252163 -1.29584e-05 -3.14052e-21)
(0.00251985 -1.41919e-05 -5.36199e-21)
(0.00251795 -1.54786e-05 -2.2572e-21)
(0.00251594 -1.68216e-05 -3.57549e-21)
(0.00251381 -1.82243e-05 -1.31829e-21)
(0.00251158 -1.96895e-05 -3.20798e-22)
(0.00250923 -2.12203e-05 -2.13301e-23)
(0.00250679 -2.28194e-05 -1.00699e-21)
(0.00250425 -2.44897e-05 -2.09363e-21)
(0.00250161 -2.62336e-05 3.77437e-23)
(0.00249888 -2.80536e-05 -2.58979e-22)
(0.00249606 -2.99521e-05 2.23506e-22)
(0.00249316 -3.19312e-05 3.55004e-21)
(0.00249017 -3.39931e-05 3.55525e-21)
(0.00248712 -3.61395e-05 1.31262e-21)
(0.00248399 -3.83723e-05 -3.6747e-21)
(0.00248079 -4.06931e-05 -5.00086e-21)
(0.00247754 -4.31032e-05 2.43285e-21)
(0.00247422 -4.5604e-05 3.86637e-21)
(0.00247086 -4.81966e-05 -3.83455e-21)
(0.00246744 -5.08819e-05 -2.67482e-21)
(0.00246399 -5.36608e-05 1.34567e-21)
(0.00246049 -5.65339e-05 -1.29408e-21)
(0.00245697 -5.95021e-05 -2.69117e-21)
(0.00245342 -6.25651e-05 -1.3775e-21)
(0.00244985 -6.57208e-05 2.69771e-21)
(0.00244626 -6.89672e-05 7.42441e-21)
(0.00244139 -7.34641e-05 7.21559e-21)
(0.00243978 -7.49924e-05 9.53295e-21)
(0.00243816 -7.6547e-05 1.18621e-20)
(0.00243654 -7.81243e-05 9.56035e-21)
(0.00243493 -7.97214e-05 7.26277e-21)
(0.00243331 -8.13368e-05 9.59394e-21)
(0.00243171 -8.29698e-05 9.6075e-21)
(0.00243011 -8.46201e-05 1.44347e-20)
(0.00242851 -8.6288e-05 1.1969e-20)
(0.00242691 -8.79736e-05 2.34143e-21)
(0.00242533 -8.96772e-05 2.48225e-21)
(0.00242374 -9.13987e-05 7.322e-21)
(0.00242217 -9.3138e-05 7.20099e-21)
(0.0024206 -9.48949e-05 4.8468e-21)
(0.00241903 -9.66688e-05 9.7149e-21)
(0.00241748 -9.84593e-05 1.70656e-20)
(0.00241593 -0.000100266 1.45998e-20)
(0.0024144 -0.00010209 4.76355e-21)
(0.00241287 -0.000103916 -4.88079e-21)
(0.00241136 -0.000105754 9.45755e-23)
(0.00240984 -0.000107618 9.77628e-21)
(0.00240834 -0.00010949 4.80092e-21)
(0.00240684 -0.00011137 2.48596e-21)
(0.00240535 -0.000113255 7.38175e-21)
(0.00240386 -0.000115147 7.30638e-21)
(0.00240237 -0.000117044 7.31283e-21)
(0.00240088 -0.000118947 7.39793e-21)
(0.00239938 -0.000120859 2.40774e-21)
(0.00239787 -0.000122786 -2.50567e-21)
(0.00239636 -0.000124737 5.11878e-24)
(0.00239484 -0.000126718 -4.95015e-21)
(0.00239333 -0.000128728 -1.4837e-20)
(0.00239184 -0.000130765 -7.39525e-21)
(0.00239036 -0.000132822 4.96825e-21)
(0.00238889 -0.000134895 4.94776e-21)
(0.00238745 -0.000136982 2.51059e-21)
(0.00238603 -0.00013908 2.46236e-21)
(0.00238463 -0.000141186 -4.96646e-21)
(0.00238325 -0.000143299 -2.47672e-21)
(0.00238189 -0.00014542 7.45945e-21)
(0.00238054 -0.000147547 1.24286e-20)
(0.00237921 -0.00014968 4.97788e-21)
(0.00237789 -0.000151819 -2.49847e-21)
(0.00237659 -0.000153964 4.9583e-21)
(0.0023753 -0.000156115 9.95306e-21)
(0.00237402 -0.000158271 7.48444e-21)
(0.00237276 -0.000160433 4.97655e-21)
(0.0023715 -0.0001626 2.5163e-21)
(0.00237026 -0.000164772 -4.93573e-21)
(0.00236904 -0.00016695 -1.0024e-20)
(0.00236782 -0.000169132 -5.04137e-21)
(0.00236661 -0.00017132 2.52705e-21)
(0.00236542 -0.000173513 2.52705e-21)
(0.00236423 -0.00017571 0)
(0.00236306 -0.00017791 -2.45169e-21)
(0.0023619 -0.000180114 -9.97813e-21)
(0.00236075 -0.00018232 -7.52644e-21)
(0.00235961 -0.000184529 0)
(0.00235848 -0.000186741 0)
(0.00235737 -0.000188953 0)
(0.00235626 -0.000191167 0)
(0.00235516 -0.000193381 2.55196e-21)
(0.00235407 -0.000195596 -2.43417e-21)
(0.00235299 -0.00019781 -7.5413e-21)
(0.00235192 -0.000200024 4.8575e-21)
(0.00235085 -0.000202236 7.41267e-21)
(0.00234979 -0.000204447 1.34578e-22)
(0.00234874 -0.000206656 -2.42485e-21)
(0.0023477 -0.000208864 -2.55943e-21)
(0.00234666 -0.000211069 -2.56045e-21)
(0.00234562 -0.000213271 6.05088e-26)
(0.00234459 -0.000215468 1.43895e-22)
(0.00234356 -0.000217663 -7.39261e-21)
(0.00234253 -0.000219854 -9.95116e-21)
(0.0023415 -0.000222042 -5.11831e-21)
(0.00234047 -0.000224228 4.83097e-21)
(0.00233944 -0.000226412 7.53158e-21)
(0.00233841 -0.000228594 -2.41643e-21)
(0.00233737 -0.000230776 -4.97391e-21)
(0.00232321 -0.000235306 5.89778e-23)
(0.00230726 -0.000238563 -1.2758e-22)
(0.00229134 -0.000241808 -1.86558e-22)
(0.00227545 -0.000245018 1.0795e-22)
(0.00225958 -0.00024817 5.81407e-23)
(0.00224373 -0.000251246 -1.70092e-22)
(0.00222787 -0.00025423 -1.20283e-22)
(0.00221199 -0.00025711 1.13971e-22)
(0.00219608 -0.000259878 1.13971e-22)
(0.00218012 -0.000262538 8.79631e-23)
(0.00216411 -0.000265094 8.79631e-23)
(0.00214805 -0.000267501 1.29646e-24)
(0.00213189 -0.000269756 9.39137e-24)
(0.00211564 -0.00027191 2.05923e-22)
(0.00209929 -0.000273955 8.93741e-23)
(0.00208282 -0.000275882 -1.34707e-22)
(0.00206621 -0.000277694 -2.62524e-23)
(0.00204946 -0.000279396 -2.02146e-22)
(0.00203256 -0.000280998 -7.71315e-23)
(0.00201548 -0.000282515 1.7639e-22)
(0.00199824 -0.000283942 2.57951e-22)
(0.00198083 -0.000285292 2.69102e-22)
(0.00196323 -0.000286586 1.34167e-22)
(0.00194542 -0.00028782 -1.42016e-22)
(0.0019274 -0.000289011 -6.39597e-23)
(0.00190916 -0.000290172 1.42568e-22)
(0.00189069 -0.00029132 -1.56956e-22)
(0.00187201 -0.000292454 -1.38166e-22)
(0.00185308 -0.000293584 1.16624e-23)
(0.00183391 -0.000294728 7.24335e-23)
(0.00181448 -0.000295898 -1.10505e-23)
(0.0017948 -0.000297109 -3.18105e-22)
(0.00177485 -0.000298378 -2.34621e-22)
(0.00175463 -0.000299715 0)
(0.00173412 -0.000301129 1.60112e-22)
(0.00171334 -0.000302642 3.20066e-22)
(0.00169226 -0.000304272 1.59954e-22)
(0.00167089 -0.000306033 1.58518e-22)
(0.00164922 -0.000307939 1.58518e-22)
(0.00162724 -0.000310006 -1.08886e-22)
(0.00160495 -0.000312251 1.59821e-22)
(0.00158235 -0.000314695 4.48889e-22)
(0.00155944 -0.000317368 2.94205e-22)
(0.00153621 -0.000320259 -2.22936e-23)
(0.00151266 -0.000323384 -1.36317e-22)
(0.00148878 -0.000326796 1.8841e-23)
(0.00146456 -0.000330508 -1.1308e-22)
(0.00144002 -0.000334531 -4.826e-22)
(0.00141516 -0.000338886 -4.40162e-23)
(0.00138997 -0.000343594 3.37012e-22)
(0.00136446 -0.000348663 3.41043e-22)
(0.00133863 -0.000354131 8.76052e-23)
(0.00131248 -0.000360027 -1.31927e-22)
(0.00128602 -0.00036636 9.11617e-23)
(0.00125926 -0.000373139 -7.37286e-23)
(0.00123218 -0.000380396 -2.90905e-22)
(0.0012048 -0.000388163 7.87278e-23)
(0.00117715 -0.000396451 2.47559e-23)
(0.00114922 -0.000405282 2.88958e-23)
(0.00112103 -0.000414679 3.00044e-22)
(0.0010926 -0.000424664 -3.62094e-22)
(0.00106395 -0.000435223 1.91827e-23)
(0.00103508 -0.000446402 4.06282e-22)
(0.001006 -0.000458239 6.38574e-23)
(0.00097676 -0.000470719 3.8852e-23)
(0.000947357 -0.000483854 -5.32265e-22)
(0.000917835 -0.000497655 5.19098e-22)
(0.000888214 -0.00051214 5.48633e-22)
(0.000858521 -0.000527315 -5.02729e-22)
(0.000828788 -0.000543187 1.39078e-22)
(0.000799054 -0.000559755 1.39078e-22)
(0.000769356 -0.000577004 -5.8405e-22)
(0.000739721 -0.000594912 -5.8405e-22)
(0.000710184 -0.00061351 4.13151e-22)
(0.000680791 -0.000632787 4.13151e-22)
(0.000651578 -0.000652687 0)
(0.000622586 -0.000673211 0)
(0.000593879 -0.0006943 2.78798e-22)
(0.000565468 -0.000715945 5.77625e-22)
(0.00051614 -0.000755592 1.51715e-21)
(0.000496414 -0.000772182 5.3317e-22)
(0.000476932 -0.00078897 -2.26362e-21)
(0.000457711 -0.000805938 -9.91035e-22)
(0.000438767 -0.000823066 -1.3545e-21)
(0.000420117 -0.000840328 5.68004e-22)
(0.000401777 -0.000857698 3.8855e-21)
(0.000383762 -0.000875148 -2.65549e-21)
(0.000366086 -0.000892645 -1.78406e-21)
(0.000348764 -0.00091016 4.22495e-21)
(0.000331806 -0.000927656 3.77354e-21)
(0.000315226 -0.0009451 4.99985e-22)
(0.000299034 -0.000962455 -2.36825e-21)
(0.000283238 -0.000979683 -1.63284e-21)
(0.000267846 -0.000996745 5.90811e-22)
(0.000252864 -0.0010136 7.50336e-22)
(0.000238298 -0.00103021 -6.99499e-22)
(0.000224149 -0.00104653 0)
(0.00021042 -0.00106253 0)
(0.00019711 -0.00107815 0)
(0.000184216 -0.00109335 1.303e-21)
(0.000171735 -0.0011081 7.66615e-22)
(0.000159659 -0.00112235 -5.36387e-22)
(0.000147982 -0.00113606 -3.18979e-22)
(0.000136693 -0.00114919 4.3084e-22)
(0.00012578 -0.00116169 3.28978e-22)
(0.000115229 -0.00117353 -4.20842e-22)
(0.000105023 -0.00118468 0)
(9.5146e-05 -0.00119509 -3.32366e-22)
(8.55772e-05 -0.00120473 -2.96827e-23)
(7.62955e-05 -0.00121357 9.0659e-22)
(6.72776e-05 -0.00122157 -2.31431e-23)
(5.84991e-05 -0.00122872 -6.2705e-22)
(4.99339e-05 -0.00123498 4.56841e-22)
(4.15545e-05 -0.00124034 -1.3163e-22)
(3.33321e-05 -0.00124477 -3.40979e-22)
(2.52388e-05 -0.00124825 1.42904e-22)
(1.72623e-05 -0.00125077 4.12943e-24)
(9.34076e-06 -0.00125221 9.07205e-23)
(0 -0.00125188 0)
(0 -0.00125104 0)
(0 -0.00125018 0)
(0 -0.00124931 0)
(0 -0.00124842 0)
(0 -0.00124752 0)
(0 -0.00124659 0)
(0 -0.00124565 0)
(0 -0.00124469 0)
(0 -0.00124371 0)
(0 -0.00124272 0)
(0 -0.00124171 0)
(0 -0.00124069 0)
(0 -0.00123965 0)
(0 -0.00123859 0)
(0 -0.00123752 0)
(0 -0.00123644 0)
(0 -0.00123535 0)
(0 -0.00123424 0)
(0 -0.00123312 0)
(0 -0.00123199 0)
(0 -0.00123085 0)
(0 -0.0012297 0)
(0 -0.00122853 0)
(0 -0.00122736 0)
(0 -0.00122618 0)
(0 -0.00122499 0)
(0 -0.00122379 0)
(0 -0.00122259 0)
(0 -0.00122137 0)
(0 -0.00122015 0)
(0 -0.00121892 0)
(0 -0.00121769 0)
(0 -0.00121645 0)
(0 -0.0012152 0)
(0 -0.00121394 0)
(0 -0.00121268 0)
(0 -0.00121142 0)
(0 -0.00121015 0)
(0 -0.00120887 0)
(0 -0.00120759 0)
(0 -0.00120631 0)
(0 -0.00120502 0)
(0 -0.00120373 0)
(0 -0.00120243 0)
(0 -0.00120113 0)
(0 -0.00119982 0)
(0 -0.00119852 0)
(0 -0.0011972 0)
(0 -0.00119589 0)
(0 -0.00119457 0)
(0 -0.00119325 0)
(0 -0.00119193 0)
(0 -0.00119061 0)
(0 -0.00118928 0)
(0 -0.00118795 0)
(0 -0.00118662 0)
(0 -0.00118528 0)
(0 -0.00118395 0)
(0 -0.00118261 0)
(0 -0.00118126 0)
(0 -0.00117992 0)
(0 -0.00117858 0)
(0 -0.00117723 0)
(0 -0.00117588 0)
(0 -0.00117453 0)
(0 -0.00117318 0)
(0 -0.00117182 0)
(0 -0.00117046 0)
(0 -0.00116911 0)
(0 -0.00116774 0)
(0 -0.00116638 0)
(0 -0.00116501 0)
(0 -0.00116364 0)
(0 -0.00116227 0)
(0 -0.0011609 0)
(0 -0.00115952 0)
(0 -0.00115814 0)
(0 -0.00115676 0)
(0 -0.00115239 0)
(0 -0.00114958 0)
(0 -0.00114674 0)
(0 -0.00114387 0)
(0 -0.00114097 0)
(0 -0.00113804 0)
(0 -0.00113509 0)
(0 -0.0011321 0)
(0 -0.00112908 0)
(0 -0.00112601 0)
(0 -0.0011229 0)
(0 -0.00111974 0)
(0 -0.00111652 0)
(0 -0.00111324 0)
(0 -0.0011099 0)
(0 -0.00110648 0)
(0 -0.00110298 0)
(0 -0.00109939 0)
(0 -0.0010957 0)
(0 -0.0010919 0)
(0 -0.00108799 0)
(0 -0.00108395 0)
(0 -0.00107977 0)
(0 -0.00107543 0)
(0 -0.00107093 0)
(0 -0.00106625 0)
(0 -0.00106137 0)
(0 -0.00105627 0)
(0 -0.00105094 0)
(0 -0.00104535 0)
(0 -0.00103948 0)
(0 -0.0010333 0)
(0 -0.00102679 0)
(0 -0.00101991 0)
(0 -0.00101263 0)
(0 -0.0010049 0)
(0 -0.00099669 0)
(0 -0.000988032 0)
(0 -0.000978714 0)
(0.00110521 -0.000376317 0)
(0.00112931 -0.000356014 0)
(0.001153 -0.000336839 0)
(0.0011763 -0.000318743 0)
(0.00119917 -0.000301687 0)
(0.00122162 -0.000285613 0)
(0.00124369 -0.000270488 0)
(0.00126537 -0.00025628 0)
(0.00128667 -0.000242971 0)
(0.0013076 -0.000230523 0)
(0.00132817 -0.000218889 0)
(0.00134842 -0.000208061 0)
(0.00136832 -0.000198002 0)
(0.00138791 -0.000188646 0)
(0.00140721 -0.00017998 0)
(0.00142621 -0.000171974 0)
(0.00144494 -0.000164588 0)
(0.00146342 -0.000157794 0)
(0.00148165 -0.000151569 0)
(0.00149965 -0.000145886 0)
(0.00151743 -0.000140695 0)
(0.00153503 -0.000135974 0)
(0.00155243 -0.000131712 0)
(0.00156965 -0.000127873 0)
(0.00158672 -0.000124426 0)
(0.00160363 -0.00012135 0)
(0.00162041 -0.000118631 0)
(0.00163705 -0.000116239 0)
(0.00165358 -0.000114154 0)
(0.00166999 -0.000112351 0)
(0.00168631 -0.000110815 0)
(0.00170254 -0.000109524 0)
(0.00171868 -0.000108459 0)
(0.00173475 -0.000107604 0)
(0.00175075 -0.000106941 0)
(0.00176669 -0.000106449 0)
(0.00178257 -0.000106122 0)
(0.0017984 -0.000105946 0)
(0.00181419 -0.000105895 0)
(0.00182993 -0.000105957 0)
(0.00184564 -0.000106122 0)
(0.00186132 -0.000106376 0)
(0.00187696 -0.000106703 0)
(0.00189258 -0.000107091 0)
(0.00190818 -0.000107528 0)
(0.00192375 -0.000108003 0)
(0.00193931 -0.000108503 0)
(0.00195484 -0.000109019 0)
(0.00197036 -0.000109539 0)
(0.00198586 -0.000110053 0)
(0.00200133 -0.000110554 0)
(0.00201672 -0.000111066 0)
(0.002032 -0.000111726 0)
(0.00204756 -0.000112295 0)
(0.00206216 -0.000111222 0)
(0.00207785 -0.000111036 0)
(0.00209495 -0.000113073 0)
(0.00211004 -0.000112962 0)
(0.00212523 -0.000112853 0)
(0.00214045 -0.000112707 0)
(0.0021557 -0.000112472 0)
(0.00217097 -0.00011212 0)
(0.00218625 -0.000111639 0)
(0.00220153 -0.000111022 0)
(0.0022168 -0.000110255 0)
(0.00223205 -0.000109322 0)
(0.00224728 -0.000108214 0)
(0.0022625 -0.000106918 0)
(0.0022777 -0.000105422 0)
(0.00229288 -0.000103712 0)
(0.00230804 -0.000101774 0)
(0.00232318 -9.95918e-05 0)
(0.0023383 -9.71526e-05 0)
(0.0023534 -9.44423e-05 0)
(0.00236848 -9.14431e-05 0)
(0.00238354 -8.814e-05 0)
(0.00239859 -8.45059e-05 0)
(0.00241363 -8.05094e-05 0)
(0.00242866 -7.61117e-05 0)
(0.0010655 -0.000405516 0)
(0.00105627 -0.000410365 0)
(0.0010472 -0.000415189 0)
(0.00103826 -0.000420004 0)
(0.00102944 -0.000424815 0)
(0.00102073 -0.000429625 0)
(0.00101214 -0.000434435 0)
(0.00100365 -0.000439243 0)
(0.000995265 -0.000444049 0)
(0.000986991 -0.000448852 0)
(0.000978821 -0.000453651 0)
(0.000970756 -0.000458443 0)
(0.000962794 -0.000463228 0)
(0.000954932 -0.000468004 0)
(0.00094717 -0.000472771 0)
(0.000939505 -0.000477526 0)
(0.000931935 -0.00048227 0)
(0.000924459 -0.000487001 0)
(0.000917073 -0.000491719 0)
(0.000909778 -0.000496421 0)
(0.000902573 -0.000501105 0)
(0.000895454 -0.000505772 0)
(0.000888418 -0.000510422 0)
(0.000881463 -0.000515052 0)
(0.000874586 -0.000519662 0)
(0.000867786 -0.000524252 0)
(0.00086106 -0.00052882 0)
(0.000854408 -0.000533366 0)
(0.000847826 -0.000537888 0)
(0.00084131 -0.000542387 0)
(0.000834856 -0.000546861 0)
(0.000828464 -0.000551326 0)
(0.000822126 -0.000555774 0)
(0.000815842 -0.000560182 0)
(0.000809623 -0.000564552 0)
(0.000803464 -0.000568892 0)
(0.000797342 -0.000573216 0)
(0.000791262 -0.000577516 0)
(0.000785223 -0.00058179 0)
(0.000779223 -0.000586039 0)
(0.000773259 -0.000590262 0)
(0.000767328 -0.00059446 0)
(0.000761427 -0.000598631 0)
(0.000755554 -0.000602777 0)
(0.000749705 -0.000606898 0)
(0.000743877 -0.000610994 0)
(0.000738066 -0.000615064 0)
(0.00073227 -0.000619111 0)
(0.000726486 -0.000623134 0)
(0.000720708 -0.000627134 0)
(0.000714935 -0.000631111 0)
(0.000709163 -0.000635066 0)
(0.000703389 -0.000639 0)
(0.000697611 -0.000642905 0)
(0.000691828 -0.000646786 0)
(0.000686032 -0.000650655 0)
(0.000680219 -0.000654506 0)
(0.000674388 -0.000658339 0)
(0.000668535 -0.000662154 0)
(0.000662657 -0.000665954 0)
(0.000656751 -0.000669738 0)
(0.000650813 -0.000673507 0)
(0.000644841 -0.000677262 0)
(0.000638833 -0.000681006 0)
(0.000632782 -0.000684738 0)
(0.000626684 -0.000688462 0)
(0.000620535 -0.00069218 0)
(0.000614331 -0.000695893 0)
(0.000608071 -0.000699598 0)
(0.000601752 -0.0007033 0)
(0.00059537 -0.000707001 0)
(0.000588919 -0.000710703 0)
(0.000582398 -0.000714407 0)
(0.000575801 -0.000718115 0)
(0.000569123 -0.000721825 0)
(0.000562365 -0.00072554 0)
(0.000555523 -0.000729272 0)
(0.00054859 -0.000733019 0)
(0.000541563 -0.000736785 0)
(3.14059e-05 -0.000969727 -5.39013e-22)
(6.89062e-05 -0.000968677 -9.69554e-22)
(0.000106448 -0.000967072 3.18824e-21)
(0.000143963 -0.000964874 -2.60673e-22)
(0.000181336 -0.000962081 2.23471e-21)
(0.000218355 -0.000958656 1.59568e-21)
(0.000255067 -0.000954571 -2.67964e-21)
(0.000291711 -0.000949862 -1.69755e-21)
(0.000328262 -0.00094457 -8.42799e-22)
(0.000364664 -0.000938722 -3.06806e-21)
(0.000400886 -0.000932325 -1.24568e-21)
(0.000436899 -0.000925391 4.14549e-21)
(0.00047268 -0.000917936 -2.03989e-22)
(0.000508206 -0.000909974 1.94883e-22)
(0.000543457 -0.000901525 -7.6327e-22)
(0.000578414 -0.000892606 -3.91263e-22)
(0.000613058 -0.000883237 1.19661e-21)
(0.000647373 -0.000873436 -3.64683e-21)
(0.000681342 -0.000863224 -2.88782e-21)
(0.000714948 -0.000852622 9.37062e-23)
(0.000748177 -0.000841649 1.05833e-22)
(0.000781014 -0.000830325 2.83848e-21)
(0.000813447 -0.000818672 -2.11385e-22)
(0.000845462 -0.00080671 -5.96144e-21)
(0.000877047 -0.000794457 -2.98384e-22)
(0.00090819 -0.000781934 3.02606e-21)
(0.000938882 -0.00076916 -3.0799e-21)
(0.00096911 -0.000756153 -4.66288e-22)
(0.000998867 -0.000742931 3.02063e-21)
(0.00102814 -0.000729513 -7.06051e-22)
(0.00105693 -0.000715914 -3.74555e-21)
(0.00108522 -0.000702151 1.18468e-24)
(0.001113 -0.00068824 3.04069e-21)
(0.00114027 -0.000674194 -4.91646e-21)
(0.00116702 -0.000660029 1.09341e-21)
(0.00119325 -0.000645757 3.02612e-21)
(0.00121895 -0.00063139 -1.88166e-21)
(0.00124412 -0.000616941 5.18094e-21)
(0.00126875 -0.00060242 6.4532e-21)
(0.00131636 -0.000573201 -1.63883e-21)
(0.00133935 -0.00055852 -1.29517e-21)
(0.00136178 -0.000543803 -8.1033e-21)
(0.00138364 -0.000529057 -4.11559e-21)
(0.00140495 -0.000514287 6.71181e-21)
(0.00142569 -0.0004995 1.43489e-21)
(0.00144586 -0.000484701 3.8934e-21)
(0.00146545 -0.000469896 1.0254e-22)
(0.00148448 -0.000455087 -5.42369e-21)
(0.00150292 -0.00044028 6.22566e-21)
(0.00152078 -0.000425478 6.74688e-21)
(0.00153806 -0.000410683 -7.31685e-22)
(0.00155475 -0.000395899 -2.20569e-21)
(0.00157085 -0.000381127 -3.54806e-21)
(0.00158637 -0.000366371 -7.60088e-23)
(0.00160129 -0.00035163 8.02175e-23)
(0.00161562 -0.000336907 1.74866e-21)
(0.00162935 -0.000322203 9.82948e-21)
(0.00164248 -0.000307518 -4.90552e-21)
(0.00165501 -0.000292852 -6.41805e-21)
(0.00166694 -0.000278206 4.67963e-21)
(0.00167827 -0.00026358 2.91473e-21)
(0.001689 -0.000248972 7.87687e-23)
(0.00169912 -0.000234384 2.65137e-21)
(0.00170864 -0.000219813 3.27536e-22)
(0.00171755 -0.00020526 -5.22922e-21)
(0.00172585 -0.000190723 -1.5726e-21)
(0.00173354 -0.0001762 3.40748e-21)
(0.00174063 -0.000161691 3.40604e-21)
(0.0017471 -0.000147194 -3.09576e-21)
(0.00175296 -0.000132708 -3.09582e-21)
(0.00175821 -0.00011823 -1.64062e-21)
(0.00176284 -0.000103759 7.18934e-22)
(0.00176686 -8.92933e-05 1.69264e-21)
(0.00177025 -7.48291e-05 -2.8941e-21)
(0.00177303 -6.03635e-05 -9.87828e-22)
(0.00177519 -4.58873e-05 2.37699e-22)
(0.0017767 -3.13785e-05 -2.99816e-22)
(0.00177747 -1.68399e-05 1.50524e-21)
(0.00128364 -0.000574791 0)
(0.00127107 -0.000564705 0)
(0.00125916 -0.000555184 0)
(0.00124786 -0.000546189 0)
(0.00123714 -0.000537683 0)
(0.00122697 -0.000529635 0)
(0.00121731 -0.000522018 0)
(0.00120815 -0.000514803 0)
(0.00119945 -0.000507966 0)
(0.00119119 -0.000501483 0)
(0.00118336 -0.000495333 0)
(0.00117593 -0.000489495 0)
(0.00116889 -0.00048395 0)
(0.00116222 -0.000478682 0)
(0.00115589 -0.000473672 0)
(0.0011499 -0.000468907 0)
(0.00114423 -0.000464371 0)
(0.00113886 -0.00046005 0)
(0.00113379 -0.000455932 0)
(0.00112899 -0.000452006 0)
(0.00112446 -0.000448259 0)
(0.00112019 -0.000444681 0)
(0.00111616 -0.000441263 0)
(0.00111236 -0.000437995 0)
(0.00110878 -0.000434868 0)
(0.00110541 -0.000431874 0)
(0.00110225 -0.000429006 0)
(0.00109929 -0.000426257 0)
(0.00109651 -0.000423619 0)
(0.00109391 -0.000421086 0)
(0.00109148 -0.000418652 0)
(0.00108921 -0.000416314 0)
(0.00108711 -0.000414064 0)
(0.00108515 -0.000411902 0)
(0.00108335 -0.000409824 0)
(0.00108169 -0.000407829 0)
(0.00108019 -0.000405919 0)
(0.00107882 -0.000404094 0)
(0.0010776 -0.000402354 0)
(0.00128364 -0.000574791 0)
(0.00127107 -0.000564705 0)
(0.00125916 -0.000555184 0)
(0.00124786 -0.000546189 0)
(0.00123714 -0.000537683 0)
(0.00122697 -0.000529635 0)
(0.00121731 -0.000522018 0)
(0.00120815 -0.000514803 0)
(0.00119945 -0.000507966 0)
(0.00119119 -0.000501483 0)
(0.00118336 -0.000495333 0)
(0.00117593 -0.000489495 0)
(0.00116889 -0.00048395 0)
(0.00116222 -0.000478682 0)
(0.00115589 -0.000473672 0)
(0.0011499 -0.000468907 0)
(0.00114423 -0.000464371 0)
(0.00113886 -0.00046005 0)
(0.00113379 -0.000455932 0)
(0.00112899 -0.000452006 0)
(0.00112446 -0.000448259 0)
(0.00112019 -0.000444681 0)
(0.00111616 -0.000441263 0)
(0.00111236 -0.000437995 0)
(0.00110878 -0.000434868 0)
(0.00110541 -0.000431874 0)
(0.00110225 -0.000429006 0)
(0.00109929 -0.000426257 0)
(0.00109651 -0.000423619 0)
(0.00109391 -0.000421086 0)
(0.00109148 -0.000418652 0)
(0.00108921 -0.000416314 0)
(0.00108711 -0.000414064 0)
(0.00108515 -0.000411902 0)
(0.00108335 -0.000409824 0)
(0.00108169 -0.000407829 0)
(0.00108019 -0.000405919 0)
(0.00107882 -0.000404094 0)
(0.0010776 -0.000402354 0)
(0.00104389 -0.000423032 0)
(0.00101304 -0.000444648 0)
(0.000982091 -0.000467064 0)
(0.000951015 -0.000489887 0)
(0.000919954 -0.00051312 0)
(0.000888957 -0.000536742 0)
(0.000858051 -0.000560713 0)
(0.000827264 -0.00058499 0)
(0.000796628 -0.000609531 0)
(0.000766169 -0.000634289 0)
(0.000735916 -0.000659215 0)
(0.000705894 -0.000684256 0)
(0.000676126 -0.000709354 0)
(0.000646636 -0.000734452 0)
(0.000617444 -0.000759486 0)
(0.000588569 -0.000784391 0)
(0.00056003 -0.0008091 0)
(0.000531841 -0.000833542 0)
(0.000504016 -0.000857644 0)
(0.000476566 -0.000881333 0)
(0.000449499 -0.000904532 0)
(0.000422823 -0.000927164 0)
(0.000396541 -0.000949152 0)
(0.000370653 -0.000970416 0)
(0.000345159 -0.000990879 0)
(0.000320053 -0.00101046 0)
(0.000295328 -0.00102909 0)
(0.000270973 -0.00104669 0)
(0.000246976 -0.00106319 0)
(0.000223319 -0.00107851 0)
(0.000199984 -0.0010926 0)
(0.000176948 -0.00110539 0)
(0.000154187 -0.00111682 0)
(0.000131672 -0.00112684 0)
(0.000109375 -0.00113541 0)
(8.72624e-05 -0.00114248 0)
(6.5303e-05 -0.00114802 0)
(4.34592e-05 -0.001152 0)
(2.16689e-05 -0.00115442 0)
(0 -0.00115239 0)
(0 -0.00114958 0)
(0 -0.00114674 0)
(0 -0.00114387 0)
(0 -0.00114097 0)
(0 -0.00113804 0)
(0 -0.00113509 0)
(0 -0.0011321 0)
(0 -0.00112908 0)
(0 -0.00112601 0)
(0 -0.0011229 0)
(0 -0.00111974 0)
(0 -0.00111652 0)
(0 -0.00111324 0)
(0 -0.0011099 0)
(0 -0.00110648 0)
(0 -0.00110298 0)
(0 -0.00109939 0)
(0 -0.0010957 0)
(0 -0.0010919 0)
(0 -0.00108799 0)
(0 -0.00108395 0)
(0 -0.00107977 0)
(0 -0.00107543 0)
(0 -0.00107093 0)
(0 -0.00106625 0)
(0 -0.00106137 0)
(0 -0.00105627 0)
(0 -0.00105094 0)
(0 -0.00104535 0)
(0 -0.00103948 0)
(0 -0.0010333 0)
(0 -0.00102679 0)
(0 -0.00101991 0)
(0 -0.00101263 0)
(0 -0.0010049 0)
(0 -0.00099669 0)
(0 -0.000988032 0)
(0 -0.000978714 0)
(3.14059e-05 -0.000969727 -5.39013e-22)
(6.89062e-05 -0.000968677 -9.69554e-22)
(0.000106448 -0.000967072 3.18824e-21)
(0.000143963 -0.000964874 -2.60673e-22)
(0.000181336 -0.000962081 2.23471e-21)
(0.000218355 -0.000958656 1.59568e-21)
(0.000255067 -0.000954571 -2.67964e-21)
(0.000291711 -0.000949862 -1.69755e-21)
(0.000328262 -0.00094457 -8.42799e-22)
(0.000364664 -0.000938722 -3.06806e-21)
(0.000400886 -0.000932325 -1.24568e-21)
(0.000436899 -0.000925391 4.14549e-21)
(0.00047268 -0.000917936 -2.03989e-22)
(0.000508206 -0.000909974 1.94883e-22)
(0.000543457 -0.000901525 -7.6327e-22)
(0.000578414 -0.000892606 -3.91263e-22)
(0.000613058 -0.000883237 1.19661e-21)
(0.000647373 -0.000873436 -3.64683e-21)
(0.000681342 -0.000863224 -2.88782e-21)
(0.000714948 -0.000852622 9.37062e-23)
(0.000748177 -0.000841649 1.05833e-22)
(0.000781014 -0.000830325 2.83848e-21)
(0.000813447 -0.000818672 -2.11385e-22)
(0.000845462 -0.00080671 -5.96144e-21)
(0.000877047 -0.000794457 -2.98384e-22)
(0.00090819 -0.000781934 3.02606e-21)
(0.000938882 -0.00076916 -3.0799e-21)
(0.00096911 -0.000756153 -4.66288e-22)
(0.000998867 -0.000742931 3.02063e-21)
(0.00102814 -0.000729513 -7.06051e-22)
(0.00105693 -0.000715914 -3.74555e-21)
(0.00108522 -0.000702151 1.18468e-24)
(0.001113 -0.00068824 3.04069e-21)
(0.00114027 -0.000674194 -4.91646e-21)
(0.00116702 -0.000660029 1.09341e-21)
(0.00119325 -0.000645757 3.02612e-21)
(0.00121895 -0.00063139 -1.88166e-21)
(0.00124412 -0.000616941 5.18094e-21)
(0.00126875 -0.00060242 6.4532e-21)
(0.00131636 -0.000573201 -1.63883e-21)
(0.00133935 -0.00055852 -1.29517e-21)
(0.00136178 -0.000543803 -8.1033e-21)
(0.00138364 -0.000529057 -4.11559e-21)
(0.00140495 -0.000514287 6.71181e-21)
(0.00142569 -0.0004995 1.43489e-21)
(0.00144586 -0.000484701 3.8934e-21)
(0.00146545 -0.000469896 1.0254e-22)
(0.00148448 -0.000455087 -5.42369e-21)