/*--------------------------------*- C++ -*----------------------------------*\
| =========                 |                                                 |
| \\      /  F ield         | OpenFOAM: The Open Source CFD Toolbox           |
|  \\    /   O peration     | Version:  v2012                                 |
|   \\  /    A nd           | Website:  www.openfoam.com                      |
|    \\/     M anipulation  |                                                 |
\*---------------------------------------------------------------------------*/
FoamFile
{
    version     2.0;
    format      ascii;
    class       volVectorField;
    location    "6";
    object      D_0;
}
// * * * * * * * * * * * * * * * * * * * * * * * * * * * * * * * * * * * * * //

dimensions      [0 1 0 0 0 0 0];


internalField   nonuniform List<vector> 
30465
(
(0.00192272 -0.00021774 0)
(0.00228705 -8.11254e-05 0)
(0.000844548 -0.000739041 0)
(0.00214583 -0.000221322 0)
(0.0023893 -0.000277781 0)
(0.00239319 -0.000280691 0)
(0.000798385 -0.000765634 0)
(0.00020081 -0.00132362 0)
(0.000472453 -0.00109153 0)
(0.00113513 -0.000512738 0)
(0.000162663 -0.0013611 0)
(0.00107095 -0.000550599 0)
(0.00193162 -0.000166704 0)
(0.00188929 -0.000127184 0)
(0.00156212 -0.000383351 0)
(0.000734282 -0.000830228 0)
(0.00237623 -0.000255703 0)
(0.0011404 -0.00054974 0)
(0.000481498 -0.00108302 0)
(0.00265408 -0.000199609 0)
(0.00226131 -2.40534e-05 0)
(0.00226539 -2.32491e-05 0)
(0.00201431 -6.5698e-05 0)
(0.000388816 -0.00116506 0)
(0.00200985 -6.7421e-05 0)
(0.00266109 -0.000109634 0)
(0.00265512 -0.000111999 0)
(0.00235119 -7.98526e-05 0)
(0.00250497 -6.02738e-05 0)
(0.000810167 -0.000840055 0)
(0.00164307 -0.000204773 0)
(0.00280109 -6.51476e-05 0)
(0.00191578 -0.000195583 0)
(0.00221475 -0.000193195 0)
(0.00195214 -0.000328965 0)
(0.00242516 -5.7207e-05 0)
(0.000461196 -0.00109984 0)
(0.0014701 -0.000674762 0)
(0.00228734 -0.000190311 0)
(0.00108961 -0.000543819 0)
(0.00217258 -5.43361e-05 0)
(0.00155812 -0.000349038 0)
(0.000378197 -0.00117451 0)
(0.00230026 -7.40276e-05 0)
(0.00230884 -7.28909e-05 0)
(0.000525919 -0.00104697 0)
(0.00122829 -0.000440432 0)
(0.00229367 -8.04458e-05 0)
(0.00273918 -9.79856e-05 0)
(0.00224951 -4.12376e-05 0)
(0.00224724 -4.28051e-05 0)
(0.00213067 -0.000167948 0)
(0.000309977 -0.00121291 0)
(0.00029992 -0.00122395 0)
(0.000551904 -0.00107878 0)
(0.00217984 -0.000105563 0)
(0.000561307 -0.00107513 0)
(0.00252009 -0.00015408 0)
(0.00252836 -6.47034e-05 0)
(0.00284224 -2.20086e-05 0)
(0.00284033 -2.13024e-05 0)
(0.00102435 -0.000604603 0)
(0.00244017 -2.81257e-06 0)
(0.00189828 -0.000293445 0)
(0.00190165 -0.000290017 0)
(0.002084 -1.17499e-05 0)
(0.0017744 -0.000329095 0)
(0.000407703 -0.00114676 0)
(0.00225374 -7.41392e-06 0)
(0.00237027 -0.000142934 0)
(0.00200527 -8.49808e-05 0)
(0.00278112 -0.000116398 0)
(0.000692939 -0.000806972 0)
(0.00118044 -0.00047271 0)
(0.00191522 -0.000198228 0)
(0.00111653 -0.000534237 0)
(0.00262414 -2.99975e-05 0)
(0.00262565 -2.8374e-05 0)
(0.00162805 -0.000378482 0)
(0.000177477 -0.00134911 0)
(0.000554073 -0.000960957 0)
(0.000541423 -0.000971202 0)
(0.00235242 -0.000229371 0)
(0.00255192 -0.000108152 0)
(0.00202404 -0.000157059 0)
(0.00279526 -9.43247e-05 0)
(0.00253144 -6.6076e-05 0)
(0.00112593 -0.000527955 0)
(0.00241456 -0.00030254 0)
(0.00235138 -4.0387e-05 0)
(0.00283262 -5.67182e-05 0)
(0.00283056 -5.62518e-05 0)
(0.00238271 -0.000262005 0)
(0.00238478 -0.000258433 0)
(0.00112787 -0.000518923 0)
(0.00270131 -4.52276e-05 0)
(0.00252602 -7.33837e-05 0)
(0.00253333 -7.27977e-05 0)
(0.000224454 -0.00130977 0)
(0.00256026 -6.12558e-05 0)
(0.00223709 -0.000244052 0)
(0.00221782 -2.87948e-05 0)
(0.00221915 -2.97533e-05 0)
(0.00167081 -0.000228374 0)
(0.00192636 -9.71728e-05 0)
(0.00165505 -0.000377926 0)
(0.00166674 -0.00037633 0)
(0.00269216 -0.000126302 0)
(0.00199595 -8.76645e-05 0)
(0.00205474 -4.4153e-05 0)
(0.000772796 -0.000808507 0)
(0.00216941 -0.000255607 0)
(0.00188188 -0.000327167 0)
(0.00188975 -0.000328155 0)
(0.00182204 -0.00018634 0)
(0.00182624 -0.000182773 0)
(0.00216393 -8.40029e-06 0)
(0.00279128 -0.000115573 0)
(0.00274069 -1.57751e-05 0)
(0.000104857 -0.00126353 0)
(0.00101078 -0.000590616 0)
(0.00242023 -5.79297e-05 0)
(0.00206757 -0.000115507 0)
(0.00211108 -1.97616e-05 0)
(0.00232294 -7.50606e-05 0)
(0.00232086 -7.33114e-05 0)
(0.0022352 -1.09723e-05 0)
(0.00196732 -0.00029049 0)
(0.00274981 -0.000169839 0)
(0.00209737 -3.50843e-05 0)
(0.000319862 -0.00120836 0)
(0.00277229 -1.06869e-05 0)
(0.00075842 -0.000820437 0)
(8.52655e-05 -0.00134348 0)
(0.00263616 -0.000159452 0)
(0.00214135 -2.01896e-05 0)
(0.000708384 -0.000804342 0)
(0.00249961 -0.000105023 0)
(0.00040403 -0.00115251 0)
(0.000716342 -0.000797147 0)
(0.00203397 -0.000110097 0)
(0.000103863 -0.00136809 0)
(0.00212885 -9.78389e-06 0)
(0.0021703 -5.58867e-05 0)
(0.00249252 -3.74783e-05 0)
(0.00100078 -0.000632093 0)
(0.00285786 -5.06758e-05 0)
(0.00285375 -5.09074e-05 0)
(0.00161311 -0.000287166 0)
(0.00290149 -2.55961e-06 0)
(0.00267178 -0.000269735 0)
(0.00147412 -0.00029747 0)
(0.00273071 -7.97716e-05 0)
(0.00273489 -8.0026e-05 0)
(0.00225716 -0.000287337 0)
(0.00186339 -0.000129807 0)
(0.00171148 -0.000350793 0)
(0.00231213 -0.000202895 0)
(0.00140991 -0.000403879 0)
(0.00233022 -6.62054e-05 0)
(0.00233548 -6.47598e-05 0)
(0.00140301 -0.000409543 0)
(0.0016422 -0.000326616 0)
(0.00163668 -0.000330757 0)
(0.0021473 -1.18782e-05 0)
(0.00273242 -3.88235e-06 0)
(0.0025731 -7.01966e-05 0)
(0.000205089 -0.00128492 0)
(0.00251152 -0.000116174 0)
(0.00132014 -0.000382855 0)
(0.00189665 -0.00014163 0)
(0.00278606 -2.91775e-05 0)
(0.00267527 -5.34314e-05 0)
(0.00268132 -5.36268e-05 0)
(0.0024851 -0.000106054 0)
(0.00129396 -0.000399428 0)
(0.0019834 -0.000295849 0)
(0.00173609 -0.000188575 0)
(0.002151 -9.90332e-06 0)
(0.000102483 -0.00137157 0)
(0.000900586 -0.000671795 0)
(0.00182376 -0.000230747 0)
(0.00183324 -0.000227897 0)
(0.00247577 -0.000304516 0)
(0.00273296 -0.000175025 0)
(0.00180649 -0.000134386 0)
(0.000356 -0.00119053 0)
(0.00203852 -0.000123664 0)
(0.00274673 -1.5608e-05 0)
(0.00239694 -0.000254135 0)
(0.00132333 -0.000465126 0)
(0.00270597 -0.000115773 0)
(0.00212216 -3.93546e-05 0)
(0.00012045 -0.00136567 0)
(0.00235321 -0.000248762 0)
(0.00234899 -0.000247142 0)
(0.000809507 -0.000755498 0)
(0.00224008 -0.000162489 0)
(0.00239387 -0.000197832 0)
(0.00191352 -0.00022128 0)
(0.00277295 -2.46341e-05 0)
(0.00256673 -6.13463e-05 0)
(0.00287654 -1.7637e-05 0)
(9.32371e-05 -0.00133164 0)
(0.00174333 -0.000171949 0)
(0.00203624 -0.000107572 0)
(0.00210804 -2.00206e-05 0)
(0.000158499 -0.00130459 0)
(0.00168226 -0.000215998 0)
(0.00231879 -5.62155e-05 0)
(0.000848052 -0.000731706 0)
(0.00204738 -0.000101917 0)
(0.0022344 -3.86914e-06 0)
(0.00259176 -8.28437e-05 0)
(0.00053686 -0.00103777 0)
(0.00170008 -0.000352184 0)
(0.00169024 -0.000356924 0)
(0.00264036 -0.000119623 0)
(0.00264518 -0.000117045 0)
(0.00133132 -0.000459605 0)
(0.00204253 -0.000285553 0)
(0.00197693 -0.000182891 0)
(0.00274282 -7.4906e-05 0)
(0.00262294 -0.000161185 0)
(0.00182437 -0.000341497 0)
(0.0020681 -7.75014e-05 0)
(0.00103636 -0.000594936 0)
(0.0014437 -0.000309413 0)
(0.00234864 -3.92625e-05 0)
(0.00181939 -0.000127043 0)
(0.00101336 -0.000612585 0)
(0.0026596 -6.23975e-05 0)
(0.00266411 -6.3013e-05 0)
(0.00176199 -0.000267394 0)
(0.0019383 -8.35452e-05 0)
(0.0021534 -1.47553e-05 0)
(0.00202986 -0.000308914 0)
(0.00203734 -0.000305345 0)
(0.000665884 -0.000874847 0)
(0.000681756 -0.00086017 0)
(0.00126022 -0.00042231 0)
(0.00182799 -0.000123329 0)
(0.00198694 -0.000136644 0)
(0.00170198 -0.000202228 0)
(0.00246069 -8.83073e-05 0)
(0.00156867 -0.000396058 0)
(0.00168806 -0.000214753 0)
(0.00188866 -0.000167294 0)
(0.000456659 -0.00110947 0)
(0.00192872 -8.72525e-05 0)
(0.00228432 -0.000166838 0)
(0.00209629 -3.85742e-05 0)
(0.00209777 -3.59123e-05 0)
(0.00102812 -0.000605435 0)
(0.00178969 -0.000181179 0)
(0.000331171 -0.00120039 0)
(0.0010498 -0.000752744 0)
(0.00106807 -0.000737829 0)
(0.00154102 -0.000285639 0)
(2.91797e-05 -0.00133558 0)
(0.00278747 -0.000113767 0)
(0.00190655 -9.41605e-05 0)
(0.0018959 -9.8192e-05 0)
(0.00207623 -5.14679e-05 0)
(0.000908823 -0.000716676 0)
(0.000921533 -0.000704432 0)
(0.00226265 -0.00015229 0)
(0.0012566 -0.000428424 0)
(0.00183705 -0.000178612 0)
(0.00228368 -0.000137569 0)
(0.00273157 -5.16688e-06 0)
(0.00257894 -0.00021981 0)
(0.00246068 -6.24365e-05 0)
(0.00238089 -0.000278297 0)
(0.00193311 -9.53031e-05 0)
(0.00140368 -0.00037312 0)
(0.00181808 -0.000272371 0)
(0.00190577 -0.000110595 0)
(0.000752702 -0.000856752 0)
(0.00223706 -2.18421e-05 0)
(0.000738385 -0.000867428 0)
(0.00212692 -0.000315385 0)
(0.00180556 -0.000272685 0)
(0.00246157 -0.000189288 0)
(0.00231341 -5.7233e-05 0)
(0.00246829 -0.000167538 0)
(0.00153975 -0.000310009 0)
(0.00266333 -0.00012329 0)
(0.00289975 -1.97378e-06 0)
(0.00266857 -0.000272466 0)
(0.00173396 -0.000175335 0)
(0.00179705 -0.000141011 0)
(0.00207504 -0.000113854 0)
(0.000994623 -0.000740967 0)
(0.00279531 -2.22459e-05 0)
(0.00267208 -0.00016236 0)
(0.00275686 -6.27984e-06 0)
(0.00220827 -9.46535e-06 0)
(0.00221127 -8.96288e-06 0)
(0.0025913 -4.40026e-05 0)
(0.00214322 -0.000298416 0)
(0.00215074 -0.000296509 0)
(0.000681442 -0.000815727 0)
(0.00232142 -3.44715e-05 0)
(0.00242489 -2.6048e-05 0)
(0.00118443 -0.000470322 0)
(0.00119775 -0.000461155 0)
(0.00276927 -2.76844e-05 0)
(0.001886 -0.000155068 0)
(0.00171672 -0.000515724 0)
(0.00194096 -0.000170306 0)
(0.00193683 -0.000169371 0)
(0.000203784 -0.00132007 0)
(0.00273071 -0.000152901 0)
(0.000668731 -0.000929379 0)
(0.00163915 -0.000269954 0)
(4.82209e-05 -0.00133667 0)
(4.16895e-05 -0.00133423 0)
(0.00132236 -0.000401501 0)
(0.000431102 -0.00112982 0)
(0.00141053 -0.000328758 0)
(0.000414205 -0.0011367 0)
(0.00126987 -0.000416296 0)
(0.00209879 -2.902e-05 0)
(0.0022427 -8.79399e-05 0)
(0.0022449 -8.57952e-05 0)
(0.00082752 -0.000957974 0)
(0.00152067 -0.000298002 0)
(0.00213681 -0.000123842 0)
(0.000832267 -0.00076352 0)
(0.00216298 -5.73653e-07 0)
(0.00106526 -0.000558749 0)
(0.00209493 -3.10857e-05 0)
(0.000160637 -0.00134465 0)
(0.00197233 -8.60834e-05 0)
(0.00153333 -0.000369548 0)
(0.00283129 -6.94479e-05 0)
(0.00209467 -5.5031e-05 0)
(0.00210089 -5.42156e-05 0)
(0.0014006 -0.000336232 0)
(0.00156515 -0.000295564 0)
(0.00212594 -0.000171021 0)
(0.000886582 -0.00072144 0)
(0.00257035 -6.89516e-05 0)
(0.00218686 -0.000112436 0)
(0.00141094 -0.000337558 0)
(0.00140673 -0.000340845 0)
(0.000794262 -0.000742621 0)
(0.00139872 -0.000361663 0)
(0.00287622 -4.71345e-05 0)
(0.0014677 -0.000313477 0)
(0.00240925 -3.84073e-05 0)
(0.000384508 -0.00114686 0)
(0.000152692 -0.00135063 0)
(0.00193765 -0.000140892 0)
(0.00163607 -0.000324768 0)
(0.00213693 -2.14084e-05 0)
(0.000657535 -0.000865189 0)
(0.00189129 -0.000123997 0)
(0.00196198 -0.000202698 0)
(0.00140519 -0.000331191 0)
(0.00140863 -0.000328874 0)
(0.00268336 -9.9115e-05 0)
(0.00176163 -0.000259508 0)
(0.00195833 -0.000197216 0)
(0.000891149 -0.000679747 0)
(0.000185942 -0.00134231 0)
(0.00226237 -2.79159e-06 0)
(0.00211406 -4.35062e-05 0)
(0.00168664 -0.000190984 0)
(0.000563725 -0.00107463 0)
(0.00283202 -5.41658e-05 0)
(0.00045087 -0.00110894 0)
(0.00130755 -0.000487744 0)
(0.00131666 -0.000475808 0)
(0.00154446 -0.000333665 0)
(0.00253007 -0.000263137 0)
(0.00186716 -0.000241254 0)
(0.00251856 -0.000116069 0)
(0.00232693 -0.000256893 0)
(0.00166225 -0.000280533 0)
(0.00254724 -0.000220856 0)
(0.00262361 -0.000185454 0)
(0.0016165 -0.000343333 0)
(0.000378498 -0.00115452 0)
(0.00237013 -3.7215e-05 0)
(0.00210439 -2.64949e-05 0)
(0.000973982 -0.000616008 0)
(0.000987389 -0.000606204 0)
(0.00210381 -2.67518e-05 0)
(0.000670622 -0.000929736 0)
(0.00219504 -2.58947e-05 0)
(0.00232602 -3.45011e-05 0)
(0.00253002 -2.33953e-05 0)
(0.00191979 -0.000180853 0)
(0.00258122 -0.000245804 0)
(0.00212812 -1.72384e-05 0)
(0.00263577 -6.56692e-06 0)
(0.00257827 -0.000268701 0)
(0.00258332 -0.000264859 0)
(0.00286495 -3.77578e-05 0)
(0.00285779 -3.96353e-05 0)
(0.00165576 -0.000262898 0)
(0.00225403 -1.98502e-06 0)
(0.00198282 -0.000346417 0)
(0.00190607 -0.000138474 0)
(0.00165711 -0.000210875 0)
(0.00210664 -0.000245273 0)
(0.00249703 -0.000192133 0)
(0.00242389 -2.73155e-05 0)
(0.00266422 -0.000246953 0)
(0.00177168 -0.000358846 0)
(0.00232398 -6.58447e-05 0)
(0.00135653 -0.000361834 0)
(0.00224541 -0.000242355 0)
(0.0019041 -0.000224732 0)
(0.00237722 -5.43003e-05 0)
(0.000117573 -0.00127563 0)
(0.00107929 -0.000542304 0)
(0.00107009 -0.000548483 0)
(0.00224005 -5.38588e-05 0)
(0.000168179 -0.00132191 0)
(0.00070198 -0.000870226 0)
(0.00158042 -0.000235179 0)
(0.00265435 -1.40207e-05 0)
(0.00159087 -0.000229904 0)
(0.000660864 -0.000899693 0)
(0.00179897 -0.000169903 0)
(0.00213807 -0.000221605 0)
(0.00155506 -0.000249306 0)
(0.000610934 -0.000967217 0)
(0.00254256 -8.86556e-05 0)
(0.00168747 -0.000396636 0)
(0.00243502 -0.000267772 0)
(0.00243599 -0.000270517 0)
(0.00271174 -0.00025767 0)
(0.00293383 -2.76957e-06 0)
(0.0022877 -0.000309252 0)
(0.000738964 -0.000911235 0)
(0.00235177 -3.29017e-06 0)
(0.000875382 -0.000729901 0)
(0.00187188 -0.000124827 0)
(0.0023447 -0.000191245 0)
(0.00128262 -0.000406924 0)
(0.00286223 -3.16048e-05 0)
(0.00274621 -5.71623e-05 0)
(0.00174995 -0.000168359 0)
(0.00175863 -0.000164881 0)
(0.000667723 -0.000852101 0)
(0.00196899 -0.000151778 0)
(0.00191684 -0.000179617 0)
(0.00198736 -0.000115565 0)
(0.00207531 -4.88882e-05 0)
(0.00156272 -0.000284478 0)
(0.00198061 -0.000292975 0)
(0.00118467 -0.000475483 0)
(0.0023651 -0.000238804 0)
(0.00201215 -6.119e-05 0)
(0.00201464 -6.11817e-05 0)
(0.00243452 -2.78839e-06 0)
(0.00262821 -0.000156175 0)
(0.00262153 -0.000158873 0)
(0.000112739 -0.00131018 0)
(0.00260787 -4.69667e-05 0)
(0.00227659 -7.36117e-05 0)
(0.00199191 -0.000345923 0)
(0.00247688 -0.000185592 0)
(0.00280592 -1.92414e-05 0)
(0.00224236 -0.000260686 0)
(0.00224782 -0.000257614 0)
(0.000608304 -0.000955026 0)
(0.000593848 -0.000967582 0)
(0.00233384 -0.000291631 0)
(0.0019403 -0.000111798 0)
(0.00280836 -8.51469e-05 0)
(0.00131338 -0.000469328 0)
(0.00272516 -5.12995e-05 0)
(0.00271971 -5.0913e-05 0)
(0.00213282 -1.16839e-05 0)
(0.0019533 -8.35895e-05 0)
(0.00220862 -0.000114091 0)
(0.00220497 -0.000112351 0)
(0.00267287 -0.000163868 0)
(0.00198095 -9.36714e-05 0)
(0.00138399 -0.000343357 0)
(0.00235535 -7.81747e-05 0)
(0.00170358 -0.000367868 0)
(0.00169231 -0.000371241 0)
(0.00201111 -0.000125768 0)
(0.00156651 -0.000285617 0)
(0.00204014 -0.000118269 0)
(0.00277233 -7.99077e-07 0)
(0.00251993 -0.000304893 0)
(0.0012759 -0.000415085 0)
(0.00109623 -0.000578339 0)
(0.00113127 -0.000512718 0)
(0.00201162 -8.45207e-05 0)
(0.00265377 -7.66774e-05 0)
(0.00223465 -0.000138767 0)
(0.00206507 -0.000111366 0)
(0.00018432 -0.00128419 0)
(0.00274227 -0.000107425 0)
(0.002736 -0.000109705 0)
(0.000969815 -0.000918211 0)
(0.00213453 -5.45601e-05 0)
(0.00198158 -0.000338802 0)
(1.99171e-05 -0.00144404 0)
(0.000765675 -0.000795246 0)
(0.00211192 -3.83926e-05 0)
(0.000838246 -0.00075964 0)
(0.000948979 -0.000687732 0)
(0.000655596 -0.000862853 0)
(0.00183667 -0.000140969 0)
(0.00280471 -6.51484e-05 0)
(0.00226658 -7.69225e-05 0)
(0.00226034 -7.67741e-05 0)
(0.00213597 -6.6784e-05 0)
(0.00211587 -1.97857e-05 0)
(0.00203498 -0.000147786 0)
(0.00155621 -0.000298195 0)
(0.000447954 -0.00112299 0)
(0.00173007 -0.000262472 0)
(0.0013896 -0.000342616 0)
(0.00223556 -0.000112362 0)
(0.00280961 -0.000107321 0)
(0.00171718 -0.000198771 0)
(0.00066121 -0.000908369 0)
(0.000343612 -0.00119752 0)
(0.00175143 -0.000197523 0)
(0.00167274 -0.000398308 0)
(0.00249246 -0.000104207 0)
(0.00211553 -3.68937e-05 0)
(0.00161197 -0.000386561 0)
(0.00223117 -1.10479e-05 0)
(0.00115297 -0.000504601 0)
(0.00251434 -1.19719e-05 0)
(0.000946035 -0.000919782 0)
(0.00258914 -8.1596e-05 0)
(6.40141e-05 -0.00142348 0)
(0.00141916 -0.000362685 0)
(0.00187501 -0.000111994 0)
(0.00165205 -0.000200442 0)
(0.00197617 -0.000180517 0)
(0.000108414 -0.00126672 0)
(0.000769922 -0.000937854 0)
(0.00143356 -0.000315183 0)
(0.00274514 -0.000135791 0)
(0.00273969 -0.000138619 0)
(0.00168779 -0.000361575 0)
(0.00247589 -0.000276284 0)
(0.00171924 -0.000259941 0)
(0.00065805 -0.000915835 0)
(0.00247464 -0.000287573 0)
(0.00232186 -0.000259887 0)
(0.00286614 -3.14182e-05 0)
(0.00156944 -0.000251058 0)
(0.00135582 -0.000548413 0)
(0.00271981 -4.35632e-05 0)
(0.00181377 -0.000131468 0)
(0.0014445 -0.000362499 0)
(0.00160911 -0.000386835 0)
(0.00216628 -4.35733e-05 0)
(0.00168168 -0.000193918 0)
(0.0008455 -0.000956413 0)
(0.000644549 -0.00098844 0)
(0.00200153 -6.4184e-05 0)
(0.0019927 -6.72314e-05 0)
(0.00232549 -7.16297e-05 0)
(0.00213341 -2.62568e-05 0)
(0.00213851 -2.47771e-05 0)
(0.00145965 -0.000299535 0)
(0.00216951 -0.000171497 0)
(0.00213077 -1.25611e-05 0)
(0.000219861 -0.0012936 0)
(0.00234492 -0.000231212 0)
(0.000206724 -0.00130183 0)
(0.00280074 -4.83455e-05 0)
(0.00279656 -5.0151e-05 0)
(0.00181423 -0.000343072 0)
(0.00216395 -0.000215124 0)
(0.000975021 -0.000622718 0)
(0.0025012 -0.000135048 0)
(0.00219168 -1.52977e-05 0)
(0.00236627 -3.84116e-05 0)
(0.0028813 -1.66679e-05 0)
(0.000156127 -0.00136641 0)
(0.00253602 -0.000262463 0)
(0.00252299 -0.000166722 0)
(0.00221803 -0.000122697 0)
(0.00222275 -0.000123577 0)
(0.00254265 -0.000198213 0)
(0.00210408 -1.20565e-05 0)
(0.00271605 -0.00025811 0)
(0.00293816 -2.36092e-06 0)
(0.00101886 -0.000611333 0)
(0.00238115 -0.000110198 0)
(0.00238846 -0.000110011 0)
(0.00160468 -0.000291409 0)
(0.00193626 -0.000334132 0)
(0.00196359 -7.42703e-05 0)
(0.00192976 -0.000249517 0)
(0.00211931 -5.32233e-05 0)
(0.00232477 -6.29144e-05 0)
(0.00212323 -5.34633e-05 0)
(0.000623115 -0.000956847 0)
(0.00252775 -2.46043e-05 0)
(0.00240664 -2.63295e-05 0)
(0.00241209 -2.6333e-05 0)
(0.00154923 -0.000304909 0)
(0.00198286 -0.000273599 0)
(0.00121192 -0.000486004 0)
(0.00119618 -0.00049502 0)
(0.00051944 -0.000951052 0)
(0.00247641 -0.000301499 0)
(0.000104745 -0.00125307 0)
(0.00184031 -0.000187306 0)
(0.000126981 -0.00130484 0)
(0.00215912 -0.000217782 0)
(8.85745e-05 -0.00125714 0)
(0.000961969 -0.000642469 0)
(0.00258569 -4.94274e-05 0)
(0.00253141 -2.56724e-05 0)
(0.00177485 -0.000362326 0)
(0.00258583 -3.52946e-05 0)
(0.00210029 -2.9753e-05 0)
(0.000529999 -0.00104696 0)
(0.00246293 -6.07717e-05 0)
(0.00193107 -0.000119167 0)
(0.0026008 -5.59706e-05 0)
(0.0021586 -0.000241415 0)
(0.00226678 -9.79821e-06 0)
(0.00164384 -0.000316403 0)
(0.00127322 -0.000411022 0)
(0.0027618 -6.50481e-05 0)
(0.00275349 -6.66263e-05 0)
(0.0027369 -7.60129e-05 0)
(0.00168225 -0.000192142 0)
(0.00268042 -5.85138e-05 0)
(0.00211372 -2.01465e-05 0)
(0.00224755 -5.27394e-05 0)
(0.00186983 -0.000243288 0)
(0.0011997 -0.000799515 0)
(0.00207106 -7.24943e-05 0)
(0.0027159 -4.30006e-05 0)
(0.00211791 -5.96819e-05 0)
(0.00146394 -0.000297262 0)
(0.00159074 -0.00031646 0)
(0.000385778 -0.00116838 0)
(0.00258683 -4.35637e-05 0)
(0.0023461 -0.000188329 0)
(0.0025046 -0.000189707 0)
(0.000633933 -0.000997367 0)
(0.00211649 -4.38849e-05 0)
(0.00216667 -5.91975e-05 0)
(0.00195245 -0.000170624 0)
(0.00257779 -3.18654e-05 0)
(0.00195695 -7.62134e-05 0)
(0.00273546 -0.00013552 0)
(0.00253637 -0.000199363 0)
(0.00107229 -0.000550769 0)
(0.00221684 -2.46022e-05 0)
(0.00272551 -6.50613e-05 0)
(0.00273108 -6.3561e-05 0)
(0.00252922 -0.000164155 0)
(0.0029234 -1.51104e-05 0)
(0.00274123 -0.000200654 0)
(0.00222192 -9.72509e-05 0)
(0.00222911 -9.60342e-05 0)
(0.00205169 -7.55801e-05 0)
(0.000167396 -0.00130232 0)
(0.00271239 -0.000159967 0)
(0.00189106 -0.000138355 0)
(0.0022491 -1.92545e-06 0)
(0.000803384 -0.000912586 0)
(0.000727491 -0.00083354 0)
(0.00237644 -0.000258317 0)
(0.00245957 -0.000238575 0)
(4.18198e-05 -0.00131869 0)
(0.00255586 -7.1588e-05 0)
(0.00198871 -8.86656e-05 0)
(0.00162077 -0.000229764 0)
(0.0015432 -0.000367684 0)
(0.00255257 -0.000205526 0)
(0.00163906 -0.000207315 0)
(8.20797e-06 -0.00128868 0)
(0.000260686 -0.00124982 0)
(0.00270881 -0.000162604 0)
(0.00280076 -7.70475e-05 0)
(0.0027959 -7.9297e-05 0)
(0.000208913 -0.00131029 0)
(0.00203196 -0.000156105 0)
(0.00262095 -0.000167013 0)
(0.00180934 -0.000341346 0)
(0.00203499 -0.000287036 0)
(0.00259116 -4.95456e-05 0)
(0.00147857 -0.000308331 0)
(0.00272249 -3.66527e-05 0)
(0.00272211 -3.52858e-05 0)
(0.000814851 -0.000743942 0)
(0.000851477 -0.000761017 0)
(0.000810183 -0.000746074 0)
(0.000746977 -0.000795901 0)
(0.00192207 -0.000250545 0)
(0.00219362 -0.000130411 0)
(0.00220113 -0.000129817 0)
(0.000150077 -0.00129859 0)
(0.00167395 -0.000278262 0)
(0.000373565 -0.00117953 0)
(0.000289451 -0.00125405 0)
(0.00263597 -0.000127283 0)
(0.00028487 -0.00125787 0)
(0.00264349 -2.07371e-05 0)
(0.00264855 -1.92808e-05 0)
(0.0015941 -0.000272965 0)
(0.000751215 -0.000801797 0)
(0.00196828 -0.000139845 0)
(0.000863953 -0.000689252 0)
(0.000878532 -0.000678802 0)
(0.00180268 -0.000161989 0)
(0.00238419 -5.38381e-05 0)
(0.00117476 -0.000488571 0)
(0.0011904 -0.000479813 0)
(0.00141889 -0.000545186 0)
(0.00115847 -0.000486384 0)
(0.000560175 -0.000971732 0)
(0.00274331 -9.43925e-05 0)
(0.00206647 -0.000312675 0)
(0.000754766 -0.000898348 0)
(0.00163171 -0.000224885 0)
(0.00233896 -0.000212346 0)
(0.00228477 -6.97015e-05 0)
(0.00227779 -7.05117e-05 0)
(0.00164659 -0.000202645 0)
(0.000316055 -0.00119177 0)
(0.00163914 -0.000206096 0)
(0.000317174 -0.00119276 0)
(0.002825 -3.51622e-05 0)
(0.00213126 -0.000312414 0)
(0.00153653 -0.000289359 0)
(0.00177441 -0.000159547 0)
(0.00208095 -5.77569e-05 0)
(0.00208746 -5.7144e-05 0)
(0.00242742 -1.1314e-05 0)
(0.00243321 -1.1605e-05 0)
(0.00138514 -0.000368314 0)
(0.000554397 -0.0010566 0)
(0.000781902 -0.000945172 0)
(0.00157854 -0.00030039 0)
(0.00130284 -0.000471533 0)
(0.00239831 -0.000293276 0)
(0.00187594 -0.000107041 0)
(0.00098668 -0.000613333 0)
(0.000992279 -0.000676279 0)
(0.00288629 -2.26484e-05 0)
(0.00041427 -0.00114173 0)
(0.00128271 -0.000411618 0)
(0.00117358 -0.000507219 0)
(0.00215671 -0.000120394 0)
(0.0015872 -0.000320087 0)
(0.00210222 -3.38462e-05 0)
(0.00181884 -0.000143349 0)
(0.00210762 -3.21488e-05 0)
(0.000379467 -0.00116863 0)
(0.00248689 -3.84831e-05 0)
(0.00197478 -0.000137849 0)
(0.0015752 -0.000286917 0)
(0.00137486 -0.000537549 0)
(0.00241128 -2.10966e-05 0)
(0.00241133 -1.9861e-05 0)
(0.00264387 -2.77666e-05 0)
(0.0016474 -0.000211948 0)
(0.00165355 -0.000210189 0)
(0.00227618 -1.3378e-05 0)
(0.00232247 -0.000193397 0)
(0.0019969 -0.000116917 0)
(0.00249443 -0.000153624 0)
(0.0016528 -0.000351379 0)
(0.00165171 -0.000355838 0)
(0.00277841 -1.11761e-05 0)
(0.000987413 -0.000676391 0)
(0.001788 -0.000144005 0)
(0.00254797 -3.25814e-05 0)
(0.00152333 -0.000399886 0)
(0.00282711 -6.81468e-05 0)
(0.00282153 -6.95854e-05 0)
(0.000226279 -0.00130869 0)
(0.00135498 -0.000742697 0)
(0.00258188 -0.000240426 0)
(0.00257797 -0.000243707 0)
(0.00177969 -0.000156752 0)
(0.00203984 -7.37621e-05 0)
(0.00203332 -7.51647e-05 0)
(0.000417684 -0.00114062 0)
(0.00273206 -7.80095e-05 0)
(0.00144778 -0.000311552 0)
(0.00257625 -0.000227814 0)
(0.00199015 -6.68167e-05 0)
(0.00195352 -0.000282205 0)
(0.00273419 -0.000172147 0)
(0.00242468 -3.62501e-05 0)
(0.00217601 -6.91447e-06 0)
(0.00174476 -0.000222814 0)
(0.0026487 -3.58865e-05 0)
(0.00264583 -3.75329e-05 0)
(0.00145512 -0.000335605 0)
(0.000570827 -0.000958664 0)
(0.0028521 -2.1361e-05 0)
(0.00154058 -0.000255888 0)
(0.00215077 -1.82251e-05 0)
(0.002243 -8.33483e-07 0)
(0.00227351 -7.53885e-05 0)
(0.000549516 -0.000982378 0)
(0.00218517 -5.21295e-05 0)
(0.00252207 -6.49743e-05 0)
(0.00274855 -0.000108355 0)
(0.00274991 -0.000106452 0)
(0.00183734 -0.000277647 0)
(0.0025045 -0.000254382 0)
(0.00249697 -0.000256629 0)
(0.00243317 -1.91661e-05 0)
(0.00243909 -1.87207e-05 0)
(0.00221295 -1.10172e-05 0)
(0.00254968 -0.000144013 0)
(0.0025484 -0.000146057 0)
(0.00216274 -8.24494e-06 0)
(0.00199445 -6.71662e-05 0)
(8.56153e-05 -0.00134608 0)
(0.00260813 -9.3567e-05 0)
(0.00214152 -0.000121502 0)
(0.00261632 -0.000245417 0)
(0.00243141 -0.000253542 0)
(0.00243055 -7.06096e-06 0)
(0.000651694 -0.000867843 0)
(0.00139806 -0.000334968 0)
(0.000667211 -0.000901776 0)
(0.00187742 -0.000162902 0)
(0.00229438 -0.000308746 0)
(0.000711688 -0.000861875 0)
(0.00133297 -0.000393665 0)
(0.00132233 -0.00039891 0)
(0.000114329 -0.00136202 0)
(0.00209347 -3.34634e-05 0)
(6.58411e-05 -0.00142424 0)
(0.0018027 -0.000170438 0)
(0.00252653 -0.000180014 0)
(0.00252871 -0.000177044 0)
(0.00178996 -0.000162146 0)
(0.00187765 -0.000191668 0)
(0.00222225 -1.83367e-05 0)
(0.000937251 -0.000637759 0)
(0.000939802 -0.00063595 0)
(0.00176297 -0.000186753 0)
(0.000443882 -0.00112084 0)
(0.00193404 -0.000163989 0)
(0.00177446 -0.000180109 0)
(0.000304089 -0.00120086 0)
(0.00273345 -0.000153664 0)
(0.00116617 -0.000481244 0)
(0.0028997 -2.12722e-05 0)
(0.00209233 -3.18694e-05 0)
(0.00132794 -0.000404754 0)
(0.00247325 -3.97846e-06 0)
(0.000823759 -0.000713678 0)
(0.00251504 -8.7695e-05 0)
(0.0010827 -0.000538581 0)
(0.00161861 -0.000218555 0)
(0.00196193 -7.80517e-05 0)
(0.0011366 -0.000529254 0)
(0.00246191 -0.000228188 0)
(0.00198918 -0.000322011 0)
(0.00114158 -0.000500751 0)
(0.00251246 -0.000263521 0)
(0.0022395 -1.51463e-05 0)
(0.00113462 -0.000505336 0)
(0.00104199 -0.000588183 0)
(0.00251982 -8.81812e-05 0)
(0.00231166 -9.12183e-05 0)
(0.0023041 -9.13116e-05 0)
(0.00232542 -9.24257e-05 0)
(0.000407271 -0.0011468 0)
(0.0028036 -0.000109668 0)
(0.00221289 -5.61741e-05 0)
(0.00221928 -5.45131e-05 0)
(0.0025484 -0.000218399 0)
(0.00236594 -3.24371e-05 0)
(0.00257307 -5.98842e-05 0)
(0.00239207 -1.38478e-05 0)
(0.00224755 -0.000184957 0)
(0.00180352 -0.000135454 0)
(0.00246668 -0.000238199 0)
(0.00225572 -0.000153615 0)
(0.00236187 -0.00014353 0)
(0.00146368 -0.000352449 0)
(0.00134525 -0.000368129 0)
(0.00207301 -7.42834e-05 0)
(0.00199821 -0.000190282 0)
(0.0017889 -0.000365878 0)
(0.00195171 -9.45571e-05 0)
(0.00236034 -0.000241966 0)
(0.00262099 -1.52637e-05 0)
(0.000792233 -0.000913717 0)
(0.00162271 -0.00038218 0)
(0.00223293 -0.000164433 0)
(0.00239251 -0.000256904 0)
(0.00261643 -7.58174e-05 0)
(0.0023688 -6.10371e-05 0)
(0.000531659 -0.00101912 0)
(0.00239088 -0.000195496 0)
(0.000763407 -0.000824315 0)
(0.00226268 -8.96775e-05 0)
(6.78278e-05 -0.00128782 0)
(0.0021061 -3.66869e-05 0)
(0.00211228 -3.52477e-05 0)
(0.00210299 -2.7068e-05 0)
(0.00235131 -2.38861e-06 0)
(0.00192751 -0.000121398 0)
(0.000764091 -0.0008396 0)
(0.00145712 -0.000308179 0)
(0.00203789 -4.86785e-05 0)
(0.000752857 -0.000847504 0)
(0.00187968 -0.000193519 0)
(0.000723053 -0.000840797 0)
(0.00254929 -0.000252672 0)
(0.00108289 -0.000548886 0)
(0.00198752 -6.69168e-05 0)
(0.00167874 -0.000224342 0)
(0.00198375 -7.37807e-05 0)
(0.000450834 -0.00110476 0)
(0.00231999 -6.74681e-05 0)
(0.000832783 -0.000729481 0)
(0.00206316 -0.000248281 0)
(0.00084293 -0.000720072 0)
(0.00275873 -3.26825e-05 0)
(0.00130122 -0.000469121 0)
(0.00116267 -0.000498692 0)
(0.000636811 -0.000857244 0)
(0.00217992 -0.000107733 0)
(0.00271437 -0.000152052 0)
(0.00195197 -8.65603e-05 0)
(0.000570514 -0.000997133 0)
(0.00173119 -0.000204096 0)
(0.00245441 -0.000190915 0)
(0.000829139 -0.000752526 0)
(0.000560194 -0.00100601 0)
(0.000926606 -0.000724267 0)
(0.000999296 -0.000598279 0)
(0.00183084 -0.000337585 0)
(0.00198649 -0.000325357 0)
(0.00179655 -0.000140821 0)
(0.00165724 -0.00019942 0)
(0.0022507 -0.000289311 0)
(0.00261609 -1.49906e-05 0)
(0.00264332 -0.000120488 0)
(0.00138658 -0.000378752 0)
(0.0027526 -7.78497e-06 0)
(0.00188847 -0.000207647 0)
(0.00254118 -9.04659e-05 0)
(0.000408596 -0.00114824 0)
(0.00258971 -0.000281753 0)
(0.00282765 -5.1633e-06 0)
(0.00258841 -4.06366e-05 0)
(0.00258615 -3.9199e-05 0)
(0.00180713 -0.000326975 0)
(0.00134283 -0.000418086 0)
(0.000585338 -0.00097187 0)
(0.00134305 -0.000413088 0)
(0.00224704 -0.000182816 0)
(0.00160827 -0.000232491 0)
(0.00212829 -2.72396e-05 0)
(0.00211382 -0.000136829 0)
(0.000301076 -0.00124232 0)
(0.000822707 -0.000904501 0)
(0.002038 -0.000140299 0)
(0.00219244 -2.71316e-05 0)
(0.00205426 -7.2108e-05 0)
(0.00212988 -0.000148111 0)
(0.00231932 -9.39478e-05 0)
(0.00207229 -7.28682e-05 0)
(0.00128131 -0.000408029 0)
(0.00244951 -6.23317e-06 0)
(0.0022139 -0.000271395 0)
(0.00194922 -0.00023115 0)
(0.00207646 -5.25594e-05 0)
(0.00265778 -7.07361e-05 0)
(0.00252764 -0.000161847 0)
(0.00238818 -0.000286674 0)
(9.4973e-06 -0.00132453 0)
(0.00284707 -2.19652e-05 0)
(0.00206034 -0.00031556 0)
(0.00018039 -0.00131606 0)
(0.00213871 -8.28291e-05 0)
(0.00260072 -0.0001742 0)
(0.00210186 -2.90768e-05 0)
(0.00224439 -8.76249e-06 0)
(0.00224331 -8.12271e-06 0)
(0.00162844 -0.000211379 0)
(0.00134127 -0.000632267 0)
(0.000935773 -0.000699538 0)
(0.000603324 -0.00105389 0)
(0.00131741 -0.000636296 0)
(0.00248303 -0.000198077 0)
(0.00141187 -0.000421747 0)
(0.00240199 -4.03868e-05 0)
(0.00227956 -0.000164877 0)
(0.002768 -0.000105906 0)
(0.00189327 -9.80392e-05 0)
(0.00144431 -0.000308705 0)
(0.00145769 -0.000301195 0)
(0.00211101 -2.27308e-05 0)
(0.000692823 -0.00103013 0)
(0.00223534 -1.53676e-05 0)
(0.000665359 -0.00103976 0)
(0.00275143 -9.55697e-05 0)
(0.000207591 -0.00132289 0)
(0.00244985 -3.29675e-05 0)
(0.00245681 -3.29654e-05 0)
(0.000306748 -0.00121136 0)
(0.000294448 -0.00122129 0)
(0.00237668 -6.24602e-05 0)
(0.00158599 -0.000238025 0)
(0.00276747 -3.0352e-05 0)
(0.00113054 -0.000508559 0)
(0.00113261 -0.000508019 0)
(0.00261214 -0.000175135 0)
(0.0022329 -0.000136889 0)
(0.00131906 -0.000492809 0)
(0.00147129 -0.000300724 0)
(0.00249975 -0.000238501 0)
(0.00250703 -0.000237881 0)
(0.000424721 -0.00107168 0)
(0.00234391 -5.62239e-06 0)
(0.0026651 -5.20571e-05 0)
(0.000411114 -0.00108031 0)
(0.0020302 -5.11741e-05 0)
(0.00181947 -0.000305551 0)
(0.00210384 -2.74863e-05 0)
(0.000579811 -0.00106913 0)
(0.00229929 -0.000206184 0)
(0.00237882 -6.35991e-05 0)
(0.002263 -8.78406e-05 0)
(0.0021713 -4.35073e-05 0)
(0.00180829 -0.000260888 0)
(0.00137954 -0.000346716 0)
(0.00159019 -0.000233542 0)
(0.00139151 -0.000339536 0)