/*--------------------------------*- C++ -*----------------------------------*\
| =========                 |                                                 |
| \\      /  F ield         | OpenFOAM: The Open Source CFD Toolbox           |
|  \\    /   O peration     | Version:  v2012                                 |
|   \\  /    A nd           | Website:  www.openfoam.com                      |
|    \\/     M anipulation  |                                                 |
\*---------------------------------------------------------------------------*/
FoamFile
{
    version     2.0;
    format      ascii;
    class       volSymmTensorField;
    location    "6";
    object      sigma;
}
// * * * * * * * * * * * * * * * * * * * * * * * * * * * * * * * * * * * * * //

dimensions      [1 -1 -2 0 0 0 0];


internalField   nonuniform List<symmTensor> 
30465
(
(9.75281e+07 -1.57013e+07 3.29865e-08 1.01899e+06 2.12461e-09 2.9645e+07)
(7.30363e+07 -1.61361e+07 -1.20786e-08 8.34743e+06 -9.5819e-09 2.45738e+07)
(1.32415e+08 1.04984e+07 -1.52861e-07 -1.17377e+07 -1.348e-07 3.63953e+07)
(9.2232e+07 -1.24734e+07 1.42316e-08 2.14425e+06 3.3658e-08 2.81557e+07)
(8.63655e+07 -3.97602e+06 5.3053e-08 641408 3.22731e-09 2.60322e+07)
(8.59354e+07 -3.55008e+06 4.24762e-08 657794 2.22744e-08 2.61019e+07)
(1.31093e+08 1.07423e+07 -2.00035e-07 -7.3006e+06 -1.70394e-07 3.7134e+07)
(1.16025e+08 1.40611e+07 -3.29478e-08 6.72178e+06 -1.99309e-08 3.72118e+07)
(1.3846e+08 1.99056e+07 6.67124e-08 791192 6.5153e-08 4.204e+07)
(1.22972e+08 -2.88101e+06 4.68769e-08 -1.89265e+07 2.98812e-08 3.09409e+07)
(9.47579e+07 9.79313e+06 4.2076e-08 2.23181e+06 3.36792e-08 2.85551e+07)
(1.34672e+08 -514857 -4.00984e-08 -2.2389e+06 -1.83059e-08 3.97355e+07)
(9.00766e+07 -1.9602e+07 1.22175e-08 880157 3.50596e-08 2.72789e+07)
(3.71969e+07 -2.55702e+07 1.23888e-07 -2.86224e+07 5.85981e-08 2.47816e+06)
(1.26465e+08 -3.44741e+06 6.3484e-08 51298.1 3.69153e-08 3.8031e+07)
(1.3176e+08 1.40135e+07 9.59801e-08 -7.78996e+06 7.75361e-08 3.73494e+07)
(8.69609e+07 -6.00526e+06 1.01882e-09 1.40859e+06 -7.96343e-09 2.63933e+07)
(1.21617e+08 -8.44422e+06 5.46619e-08 -2.41978e+07 3.23681e-08 2.98483e+07)
(1.38923e+08 1.9819e+07 1.31916e-07 -325429 1.17476e-07 4.14081e+07)
(8.10499e+07 -2.43852e+06 -2.4423e-08 2.67561e+06 -1.02173e-08 2.51407e+07)
(5.40271e+07 -1.11849e+07 2.36597e-08 9.90969e+06 1.65331e-08 1.93723e+07)
(5.43592e+07 -1.09833e+07 3.58579e-09 1.00658e+07 4.76098e-09 1.90523e+07)
(5.8097e+07 -2.36244e+07 -2.8388e-08 -1.91583e+06 -1.11866e-08 1.70475e+07)
(1.27486e+08 2.00492e+07 4.5991e-08 1.89546e+06 4.28245e-08 3.85377e+07)
(5.92825e+07 -2.35737e+07 -2.87771e-08 -2.0954e+06 -1.11329e-08 1.69473e+07)
(8.01121e+07 -7.24541e+06 -1.03483e-08 1.05741e+07 5.23025e-09 2.72266e+07)
(8.01456e+07 -7.40462e+06 6.97563e-08 1.04147e+07 1.25392e-08 2.71377e+07)
(7.36994e+07 -1.45601e+07 4.82466e-08 9.3994e+06 1.07788e-08 2.48239e+07)
(7.34889e+07 -1.00388e+07 -1.54864e-08 1.21576e+07 1.03929e-09 2.58374e+07)
(1.4938e+08 -629880 0 -7.9479e+06 0 4.30911e+07)
(8.88866e+07 -2.2802e+07 -2.89625e-08 -1.49293e+07 -1.45491e-08 2.1748e+07)
(7.99711e+07 -3.50986e+06 0 1.59995e+07 0 2.8588e+07)
(9.48417e+07 -1.74102e+07 6.5495e-09 988728 3.46334e-09 2.86329e+07)
(8.83982e+07 -1.36817e+07 -2.26175e-08 3.3192e+06 1.46199e-08 2.75023e+07)
(1.06512e+08 -3.41665e+06 6.5058e-08 101344 1.83676e-08 3.15904e+07)
(7.1037e+07 -1.16024e+07 -1.38312e-09 1.1425e+07 -5.5189e-09 2.46321e+07)
(1.3439e+08 2.05251e+07 4.68967e-08 76424.4 4.81292e-08 4.02145e+07)
(4.27925e+07 -3.11696e+07 -8.96905e-08 2.31141e+07 -1.4971e-08 1.93037e+07)
(8.67687e+07 -1.25482e+07 -3.41277e-08 3.79245e+06 1.56904e-10 2.71558e+07)
(1.3703e+08 -1.2463e+06 -2.9615e-08 -1.10857e+06 -1.15924e-08 4.08907e+07)
(6.28716e+07 -1.82542e+07 3.37139e-08 6.48196e+06 6.29528e-09 2.10306e+07)
(1.20968e+08 -7.63388e+06 8.04565e-10 -364327 -2.38467e-08 3.63467e+07)
(1.26067e+08 1.9152e+07 -3.82612e-09 1.65912e+06 -7.3635e-09 3.8485e+07)
(7.15914e+07 -1.56617e+07 -2.51623e-08 8.7908e+06 8.48037e-09 2.44367e+07)
(7.18203e+07 -1.54017e+07 1.26586e-08 9.11007e+06 6.20799e-09 2.40112e+07)
(1.46469e+08 1.78046e+07 7.02275e-08 -548194 5.84808e-08 4.36519e+07)
(1.18718e+08 -6.30677e+06 -7.32748e-10 -1.45972e+07 1.96173e-09 3.14819e+07)
(7.30949e+07 -1.59804e+07 1.4085e-08 8.5905e+06 1.79223e-08 2.437e+07)
(8.01674e+07 -4.83115e+06 2.07001e-08 1.17069e+07 1.32142e-09 2.75115e+07)
(6.07341e+07 -1.48537e+07 2.2791e-08 9.1133e+06 3.83903e-09 2.11392e+07)
(6.15645e+07 -1.49945e+07 -2.12949e-09 8.98086e+06 -9.30394e-10 2.09711e+07)
(8.74081e+07 -1.65628e+07 -4.48108e-08 3.56022e+06 -4.85214e-09 2.739e+07)
(1.0526e+08 1.06357e+07 -8.03682e-09 158191 -6.29846e-09 3.18004e+07)
(1.04861e+08 1.13073e+07 3.14844e-08 126839 3.46137e-08 3.10459e+07)
(2.30462e+08 -4.79348e+07 1.12818e-07 2.24371e+07 4.3994e-08 7.77407e+07)
(7.7411e+07 -1.83708e+07 1.10666e-08 5.91136e+06 1.82932e-08 2.50498e+07)
(2.29338e+08 -4.3209e+07 -7.67996e-08 2.25677e+07 -2.79068e-08 7.29471e+07)
(8.18875e+07 -9.5432e+06 -1.65443e-09 6.77533e+06 1.6646e-09 2.66504e+07)
(7.46959e+07 -9.81134e+06 2.59454e-08 1.22477e+07 1.98949e-10 2.60867e+07)
(7.9576e+07 -1.80773e+06 -2.13173e-08 2.11502e+07 -6.12466e-09 3.02145e+07)
(7.9432e+07 -1.80617e+06 -9.33323e-09 2.12249e+07 3.38951e-09 3.01695e+07)
(1.28652e+08 1.234e+06 -4.44579e-08 -1.89869e+07 -2.17752e-08 3.2905e+07)
(6.30067e+07 -813173 -1.89264e-08 1.36965e+07 -5.03124e-09 2.32006e+07)
(1.061e+08 -8.52925e+06 -5.66145e-08 278549 -4.72563e-09 3.18257e+07)
(1.05422e+08 -8.69821e+06 -7.16163e-09 337721 2.63725e-08 3.19018e+07)
(-6.14232e+06 -365864 4.44861e-08 -1.02733e+08 3.98218e-08 -3.20291e+07)
(1.13783e+08 -5.8986e+06 -9.24639e-08 72324.2 4.31695e-09 3.43474e+07)
(1.60774e+08 1.3598e+07 -8.26993e-08 1.03888e+07 -6.13332e-08 5.15469e+07)
(4.56381e+07 -4.88545e+06 0 9.78882e+06 0 1.64682e+07)
(8.20747e+07 -1.3496e+07 -1.12493e-08 6.52211e+06 -1.6994e-08 2.65161e+07)
(6.90508e+07 -2.31336e+07 -1.16269e-08 144698 3.22305e-10 2.06756e+07)
(8.01845e+07 -1.53147e+06 5.48236e-08 7.59625e+06 2.43184e-08 2.65139e+07)
(1.4228e+08 907557 -1.32749e-08 -143183 -2.10925e-08 4.28776e+07)
(1.23959e+08 -3.41549e+06 2.81692e-08 -8.00331e+06 1.71016e-08 3.4745e+07)
(9.50575e+07 -1.74436e+07 -6.17541e-09 934307 -4.48393e-08 2.89433e+07)
(1.39638e+08 -1.30985e+06 -1.82771e-08 -621327 -8.66294e-09 4.14294e+07)
(7.41735e+07 -4.70803e+06 0 1.50497e+07 0 2.66935e+07)
(7.4109e+07 -4.58818e+06 3.28738e-08 1.5047e+07 -6.83641e-10 2.67826e+07)
(4.68815e+07 -1.89763e+07 -3.77777e-08 -2.7995e+07 -8.40528e-08 4.68271e+06)
(1.00324e+08 1.08423e+07 -2.09112e-08 2.53898e+06 -1.50202e-08 3.05613e+07)
(1.25854e+08 1.01388e+07 -2.17822e-08 -1.29285e+06 -3.38925e-08 3.71565e+07)
(1.24975e+08 9.64372e+06 6.04739e-08 -1.21295e+06 4.87631e-08 3.73647e+07)
(8.72006e+07 -8.50454e+06 2.77549e-08 2.42821e+06 1.97205e-08 2.6739e+07)
(7.92586e+07 -1.03122e+07 2.14268e-08 9.97285e+06 -1.13767e-09 2.67932e+07)
(8.73716e+07 -1.88664e+07 -1.60711e-09 2.55557e+06 4.06179e-10 2.71363e+07)
(8.0171e+07 -2.22331e+06 3.70114e-08 1.10663e+07 5.50167e-09 2.73435e+07)
(7.50099e+07 -9.88721e+06 1.05423e-08 1.21216e+07 -4.72919e-09 2.6152e+07)
(1.38206e+08 -1.80423e+06 -7.08938e-08 -695999 -3.95393e-08 4.15994e+07)
(8.4621e+07 -1.5158e+06 -7.57553e-08 138291 -1.32267e-08 2.53189e+07)
(6.47236e+07 -1.16487e+07 1.07716e-08 1.12921e+07 -1.10323e-09 2.29043e+07)
(8.01181e+07 -2.38788e+06 -1.68928e-08 1.70132e+07 3.4061e-09 2.91578e+07)
(7.99983e+07 -2.59555e+06 -2.33899e-08 1.72425e+07 -8.65844e-09 2.91217e+07)
(8.67014e+07 -5.38519e+06 4.70611e-08 1.1806e+06 -6.78512e-09 2.62872e+07)
(8.65354e+07 -5.55908e+06 -1.79107e-08 1.28249e+06 6.67193e-09 2.64232e+07)
(1.23351e+08 -3.10483e+06 -7.80134e-08 -1.96086e+07 -4.67781e-08 3.14026e+07)
(7.75387e+07 -5.35717e+06 0 1.57244e+07 0 2.79168e+07)
(7.56707e+07 -1.03881e+07 -1.26003e-08 1.17198e+07 3.74823e-09 2.62677e+07)
(7.57643e+07 -1.01394e+07 1.2536e-08 1.18884e+07 5.89135e-09 2.62613e+07)
(1.10327e+08 1.39729e+07 2.79531e-08 4.00701e+06 2.48071e-08 3.45966e+07)
(7.51994e+07 -8.9563e+06 3.62085e-08 1.27306e+07 -1.12815e-08 2.63135e+07)
(9.06539e+07 -9.27226e+06 5.65321e-08 1.60865e+06 -9.7808e-09 2.78184e+07)
(5.33739e+07 -1.38223e+07 4.08105e-09 8.16495e+06 4.74007e-09 1.84655e+07)
(5.39491e+07 -1.41967e+07 2.82171e-09 8.28854e+06 -9.30543e-09 1.86472e+07)
(1.00683e+08 -1.79288e+07 -7.78537e-09 -4.17732e+06 -2.43016e-09 2.87677e+07)
(3.95438e+07 -2.61578e+07 -4.43018e-08 -2.16577e+07 -1.87656e-08 5.00918e+06)
(1.23464e+08 -2.09597e+06 -2.96461e-08 -109465 -1.7677e-08 3.75256e+07)
(1.23427e+08 -1.62785e+06 1.91652e-08 81960 3.01031e-08 3.6638e+07)
(8.04922e+07 -5.36919e+06 -3.76069e-08 8.91289e+06 -5.94721e-09 2.67634e+07)
(6.95472e+07 -2.29797e+07 -2.13232e-08 -6918.74 -2.25694e-09 2.08588e+07)
(2.82512e+07 -1.99713e+07 -2.97066e-08 -1.25167e+07 -1.08594e-08 4.13549e+06)
(1.34886e+08 1.33938e+07 -9.94213e-08 -1.0784e+07 -8.10736e-08 3.72332e+07)
(9.34018e+07 -9.15736e+06 3.5473e-08 1.27528e+06 -1.41213e-08 2.83127e+07)
(1.09501e+08 -4.63039e+06 2.52427e-08 95473.1 -5.82705e-09 3.28252e+07)
(1.09034e+08 -4.21133e+06 2.74644e-08 83751.3 -5.62184e-09 3.29022e+07)
(9.40475e+07 -1.95722e+07 1.86792e-08 -1.33533e+06 1.19442e-08 2.77651e+07)
(9.30705e+07 -1.94977e+07 -4.90265e-08 -1.09551e+06 -5.3146e-09 2.75193e+07)
(2.67155e+07 -6.63792e+06 1.73487e-08 351372 6.32998e-09 8.14809e+06)
(8.02585e+07 -974556 -4.06214e-08 7.30476e+06 -1.76977e-08 2.61506e+07)
(7.72877e+07 -2.02792e+06 -6.07151e-08 1.7696e+07 6.6673e-09 2.84865e+07)
(2.10198e+08 105331 -4.95838e-08 3.20783e+07 -2.69484e-08 7.29791e+07)
(1.38557e+08 -75878.4 9.51997e-08 -1.24213e+06 6.56227e-08 4.11824e+07)
(7.0911e+07 -1.17269e+07 6.1562e-09 1.12507e+07 7.41576e-09 2.47772e+07)
(7.95479e+07 -2.02488e+07 -1.20544e-08 3.4816e+06 -1.22308e-08 2.49845e+07)
(-1.77931e+06 -3.79587e+06 1.29907e-08 -3.97347e+07 1.87381e-08 -1.23882e+07)
(7.23189e+07 -1.51173e+07 -2.75846e-09 9.18322e+06 -1.94183e-10 2.45077e+07)
(7.19257e+07 -1.50452e+07 6.31736e-09 9.30284e+06 -5.33056e-09 2.4304e+07)
(4.42545e+07 -7.10967e+06 1.17259e-08 8.79556e+06 2.92648e-09 1.63058e+07)
(1.0331e+08 -7.86819e+06 6.08401e-09 442726 -1.23212e-08 3.08376e+07)
(8.01692e+07 -442211 -5.79991e-09 2.08174e+06 -4.72329e-10 2.46571e+07)
(-6.5691e+06 -2.20849e+06 -7.61578e-09 -5.90536e+07 -9.85991e-09 -2.00691e+07)
(1.62683e+08 1.29939e+07 5.40119e-08 1.45446e+07 2.8146e-08 5.30862e+07)
(7.7956e+07 -1.19371e+06 -1.94914e-08 1.88129e+07 -2.5513e-09 2.90163e+07)
(1.34987e+08 1.39166e+07 8.14064e-08 -1.0441e+07 6.07199e-08 3.73447e+07)
(1.42129e+08 6.15596e+06 8.5717e-08 1.91562e+07 7.58183e-09 4.8417e+07)
(8.12169e+07 -5.58697e+06 0 6.1187e+06 0 2.62939e+07)
(3.46542e+07 -1.39888e+07 0 530762 0 1.04846e+07)
(1.37621e+08 3.58991e+06 -8.69809e-08 -714688 -6.92858e-08 4.0918e+07)
(7.85216e+07 -1.15159e+07 2.51058e-08 9.61685e+06 5.52409e-09 2.65974e+07)
(1.39995e+08 1.92716e+07 3.81051e-08 3.91026e+06 3.26809e-08 4.32917e+07)
(1.37711e+08 3.22627e+06 -6.32544e-08 -267773 -4.75979e-08 4.13167e+07)
(7.80352e+07 -2.1293e+07 -5.8569e-08 2.49815e+06 -1.23846e-08 2.43376e+07)
(1.2096e+08 8.03759e+06 -3.36233e-08 1.06723e+07 -1.94912e-08 3.94661e+07)
(8.40612e+06 -4.09979e+06 -2.65217e-09 -1.84255e+07 -6.44007e-09 -3.2464e+06)
(6.36787e+07 -1.84661e+07 -9.81989e-09 6.49599e+06 2.7136e-09 2.08462e+07)
(7.00517e+07 -7.7463e+06 1.90557e-08 1.31198e+07 3.44557e-09 2.48054e+07)
(1.31228e+08 1.28038e+06 6.63413e-08 -2.00896e+07 5.85324e-08 3.33859e+07)
(8.0118e+07 -1.35829e+06 5.20959e-08 1.7851e+07 1.84487e-08 2.95802e+07)
(8.01035e+07 -1.66449e+06 -2.28667e-08 1.81072e+07 -6.56248e-09 2.93342e+07)
(1.10751e+08 -1.32056e+07 7.77615e-09 -1.87818e+06 -1.97237e-09 3.29649e+07)
(8.01524e+07 -107086 2.30742e-08 2.50897e+07 -4.44992e-10 3.15741e+07)
(8.0114e+07 107173 2.17396e-08 11089 1.81755e-08 2.40253e+07)
(1.0718e+08 -1.50079e+07 -5.76435e-08 -1.09109e+07 -2.63218e-08 2.87083e+07)
(7.96375e+07 -5.70657e+06 -5.70603e-09 1.37788e+07 -5.44661e-09 2.79302e+07)
(7.96478e+07 -5.67112e+06 -1.73869e-08 1.36562e+07 1.06259e-09 2.81093e+07)
(9.0947e+07 -5.03377e+06 2.50476e-08 557806 -2.0214e-08 2.74003e+07)
(4.32507e+07 -2.73252e+07 4.48854e-08 -2.52741e+07 1.67657e-08 5.5735e+06)
(1.18786e+08 -4.09497e+06 -2.86239e-08 157271 -1.72825e-08 3.52726e+07)
(8.69421e+07 -1.12909e+07 -2.63534e-08 3.40768e+06 1.32338e-08 2.71583e+07)
(1.2898e+08 -5.3855e+06 9.06949e-08 -401736 3.83254e-08 3.87392e+07)
(7.04635e+07 -1.44972e+07 4.04959e-08 9.76078e+06 3.04692e-09 2.41187e+07)
(7.04285e+07 -1.43814e+07 -9.83939e-09 9.84056e+06 -1.45102e-08 2.39987e+07)
(1.30493e+08 -4.84442e+06 2.02179e-08 -600966 -1.03575e-09 3.88415e+07)
(1.17006e+08 -8.62655e+06 -3.0708e-08 -356569 9.49492e-09 3.52504e+07)
(1.18027e+08 -8.25263e+06 -1.71779e-08 -259017 -1.73447e-08 3.50526e+07)
(2.34118e+07 -8.47692e+06 0 -2.91608e+06 0 6.37598e+06)
(7.67977e+07 -596340 -3.24024e-08 1.76814e+07 2.05705e-10 2.83422e+07)
(7.63682e+07 -9.24282e+06 -3.70563e-08 1.23849e+07 -9.52122e-09 2.66713e+07)
(1.5138e+08 1.17837e+07 9.10818e-08 1.80788e+07 6.2574e-08 5.11863e+07)
(7.96483e+07 -1.11279e+07 2.95839e-09 9.10485e+06 -7.16417e-09 2.66417e+07)
(1.12844e+08 -1.0937e+07 4.15062e-08 -1.79783e+07 2.70062e-08 2.80923e+07)
(8.44408e+07 -2.1692e+07 -4.42354e-08 -832066 -5.51831e-09 2.49535e+07)
(7.86628e+07 -3.07803e+06 5.15615e-10 1.87213e+07 5.26106e-09 2.92663e+07)
(7.73958e+07 -6.29392e+06 1.06745e-10 1.48747e+07 5.72449e-09 2.7515e+07)
(7.7366e+07 -6.33136e+06 -4.24777e-08 1.48833e+07 1.35273e-09 2.78423e+07)
(7.85167e+07 -1.18996e+07 0 9.44647e+06 0 2.64841e+07)
(1.14478e+08 -9.88101e+06 -1.18522e-07 -1.83538e+07 -7.59997e-08 2.89291e+07)
(1.02669e+08 -7.17782e+06 5.10389e-08 222453 -2.48993e-08 3.10578e+07)
(9.25731e+07 -2.07242e+07 1.53261e-08 -4.95441e+06 2.32971e-09 2.63258e+07)
(2.28031e+07 -6.99819e+06 -4.61001e-10 -2.88167e+06 1.33023e-09 6.02831e+06)
(1.1755e+08 7.84452e+06 3.80578e-08 1.10029e+07 1.87298e-08 3.86086e+07)
(1.31318e+08 5.93253e+06 -3.12419e-08 -5.54728e+06 -2.79829e-08 3.76241e+07)
(1.00979e+08 -1.55446e+07 0 239009 0 3.04486e+07)
(1.00867e+08 -1.58599e+07 7.03693e-08 65320.9 -7.49514e-09 3.0122e+07)
(8.20783e+07 -579033 -2.47486e-08 33028.6 -2.08414e-08 2.46924e+07)
(8.02412e+07 -934034 3.26947e-08 2.43882e+06 1.52549e-08 2.46976e+07)
(6.28216e+07 -2.77674e+07 -4.31103e-08 -1.76933e+07 -1.67442e-08 1.36024e+07)
(1.18391e+08 1.78622e+07 -4.58563e-08 902815 -4.48404e-08 3.5415e+07)
(-4.36893e+06 2.26083e+06 -3.72933e-08 -7.72404e+07 -6.81329e-08 -2.34079e+07)
(7.72841e+07 -1.9597e+06 -2.34949e-09 1.79697e+07 -6.26422e-10 2.86556e+07)
(8.61736e+07 -5.68703e+06 -3.72565e-09 1.39744e+06 1.20324e-08 2.63761e+07)
(1.40195e+08 -1.0229e+06 4.56282e-08 -187679 2.89698e-08 4.18207e+07)
(8.04014e+07 -5.37054e+06 -1.71882e-08 9.8977e+06 1.18737e-09 2.69964e+07)
(5.13199e+07 -1.89717e+07 -2.37075e-08 3.4548e+06 -4.31392e-09 1.66234e+07)
(1.17161e+08 8.79577e+06 0 9.91197e+06 0 3.82289e+07)
(8.7378e+07 -6.93528e+06 -4.93006e-08 1.59447e+06 1.13809e-09 2.67972e+07)
(8.76154e+07 -7.17631e+06 -4.00116e-08 1.7073e+06 8.12167e-09 2.66737e+07)
(1.31066e+08 1.05846e+07 -6.70617e-08 -7.2124e+06 -5.98909e-08 3.69793e+07)
(8.52576e+07 -1.518e+07 3.15157e-08 4.60336e+06 8.55208e-09 2.6922e+07)
(8.51185e+07 -9.92463e+06 4.31559e-08 3.85138e+06 -2.15203e-09 2.68428e+07)
(9.81777e+07 -1.53234e+07 0 992033 0 2.97333e+07)
(7.82918e+07 -2.67338e+06 -1.43313e-08 1.8559e+07 -9.91664e-09 2.8968e+07)
(7.52051e+07 -8.85391e+06 -2.11358e-08 1.28855e+07 -3.2498e-09 2.64705e+07)
(7.98519e+07 -1.25274e+06 3.71279e-08 2.30496e+07 7.69605e-09 3.09412e+07)
(1.49621e+08 6.90058e+06 -6.6054e-08 2.12654e+07 -1.68294e-10 5.11699e+07)
(8.77651e+07 -2.25018e+07 -4.80722e-08 -7.69352e+06 -1.72942e-08 2.39439e+07)
(7.74607e+07 -2.11392e+07 -2.71235e-08 2.72208e+06 -1.46755e-09 2.38934e+07)
(-4.13122e+06 -3.11251e+06 -9.3195e-09 -4.95381e+07 -2.96788e-08 -1.58036e+07)
(1.52477e+08 9.73937e+06 -7.097e-09 2.14546e+07 -2.60024e-09 5.2398e+07)
(9.79118e+07 -1.91458e+07 -2.50095e-08 -5.10746e+06 -2.90845e-09 2.79705e+07)
(6.8009e+07 -1.42828e+07 -4.904e-08 9.97034e+06 -1.04724e-08 2.3302e+07)
(1.31486e+08 1.02375e+07 -3.57958e-09 -1.05285e+07 -8.49827e-09 3.63666e+07)
(7.60866e+07 -2.11695e+07 -3.35714e-09 2.97425e+06 -8.54513e-09 2.35234e+07)
(4.16256e+07 -2.43029e+06 2.27132e-08 8.48581e+06 2.6705e-10 1.4778e+07)
(7.78101e+07 -9.28188e+06 -4.84731e-08 1.19157e+07 -8.14398e-09 2.69515e+07)
(1.46175e+08 1.76193e+07 1.70828e-07 -424533 1.48051e-07 4.38804e+07)
(1.19052e+08 -4.48785e+06 -3.3725e-08 -46578.5 -1.96482e-09 3.58695e+07)
(1.19924e+08 -3.75726e+06 -1.62026e-09 122401 -1.71286e-08 3.60112e+07)
(8.03955e+07 -7.55309e+06 4.75992e-08 9.70364e+06 1.82681e-08 2.69852e+07)
(8.02603e+07 -7.51884e+06 -1.1366e-08 9.87801e+06 -7.58886e-09 2.71294e+07)
(1.38912e+08 -1.80449e+06 -1.00989e-07 -63156.6 -4.4531e-08 4.16344e+07)
(9.97947e+07 -7.68307e+06 4.61842e-08 398404 1.48987e-08 2.99654e+07)
(9.20593e+07 -1.78251e+07 -5.72158e-09 1.69978e+06 3.68292e-10 2.8196e+07)
(7.96242e+07 -5.43841e+06 7.0021e-09 1.44162e+07 5.10167e-09 2.80786e+07)
(8.13515e+07 -5.87549e+06 2.34886e-08 6.15545e+06 4.85328e-09 2.62899e+07)
(1.13408e+08 -3.49361e+06 2.74528e-08 158134 -7.74261e-09 3.37007e+07)
(-4.37789e+06 -3.56964e+06 -6.1354e-09 -6.53459e+07 -1.82523e-08 -2.10556e+07)
(1.28128e+08 609259 0 -1.98179e+07 0 3.30954e+07)
(1.02905e+08 -1.7028e+07 -4.34133e-08 -1.93069e+07 -2.58884e-08 2.53017e+07)
(6.4481e+07 -1.13979e+07 2.0644e-10 1.12798e+07 8.70866e-09 2.26475e+07)
(6.47242e+07 -2.75273e+07 1.40627e-08 -1.52375e+07 4.92969e-09 1.50867e+07)
(1.29731e+08 2.26283e+06 3.08778e-08 -1.88043e+07 9.97256e-09 3.28872e+07)
(7.76104e+07 -7.10553e+06 6.8056e-09 1.4113e+07 5.34329e-09 2.74212e+07)
(7.765e+07 -7.15638e+06 -4.8171e-09 1.40932e+07 -1.1577e-08 2.76149e+07)
(3.57994e+07 -1.87129e+07 -9.3177e-10 -3.76862e+07 -2.64349e-08 -954117)
(4.66543e+07 -2.64862e+07 1.41528e-08 -1.48769e+07 7.09393e-09 9.30414e+06)
(3.04893e+07 -1.06323e+07 -5.52135e-09 557991 -5.94928e-09 9.68448e+06)
(1.01584e+08 -5.03173e+06 4.25062e-08 296689 -1.20087e-08 3.02368e+07)
(1.00673e+08 -5.45844e+06 0 233014 0 3.05152e+07)
(1.29476e+08 1.25804e+07 -1.01251e-07 -3.67348e+06 -8.02841e-08 3.7313e+07)
(1.29402e+08 1.21605e+07 1.35181e-07 -4.05735e+06 1.23107e-07 3.79467e+07)
(1.16463e+08 -8.45266e+06 -9.92839e-08 -1.86562e+07 -6.39967e-08 2.91043e+07)
(6.48638e+07 -2.68486e+07 -7.08585e-08 -1.48938e+07 -2.82591e-08 1.48398e+07)
(8.41519e+07 -2.05825e+07 -9.34562e-09 1.80209e+06 -1.59495e-08 2.55865e+07)
(6.50832e+07 -2.78362e+07 -1.18225e-07 -2.73351e+07 -5.52364e-08 1.13015e+07)
(7.65284e+07 -1.22438e+07 -3.62449e-08 1.02244e+07 -6.44674e-09 2.58866e+07)
(1.28082e+08 -1.44332e+06 8.48587e-08 -76327.3 5.961e-08 3.88413e+07)
(9.77144e+07 -1.89418e+07 -4.7281e-08 -4.63998e+06 -1.6666e-08 2.78732e+07)
(9.0377e+07 -2.00769e+07 -3.34152e-08 -44475.2 -9.66778e-09 2.69624e+07)
(1.58638e+08 1.35261e+07 -5.02625e-08 7.19721e+06 -3.95224e-08 4.9844e+07)
(4.68364e+07 -2.64231e+07 3.90955e-08 -1.50219e+07 1.52037e-08 9.68943e+06)
(8.48828e+07 -1.40366e+07 -3.00961e-08 4.73946e+06 1.18553e-08 2.7047e+07)
(-3.79028e+06 -4.1863e+06 1.09191e-08 -5.29076e+07 1.63547e-08 -1.72598e+07)
(-5.48626e+06 -3.73587e+06 8.91665e-11 -5.35366e+07 -2.5413e-09 -1.79156e+07)
(1.28754e+08 757476 8.37407e-08 -1.96884e+07 4.86922e-08 3.27345e+07)
(9.22981e+07 -2.05071e+07 3.81704e-08 -2.61758e+06 2.0037e-08 2.69167e+07)
(1.62246e+08 1.30058e+07 6.12162e-08 1.53532e+07 4.44188e-08 5.35435e+07)
(1.29397e+08 -2.4864e+07 0 297234 0 3.98879e+07)
(1.29421e+08 -2.48162e+07 8.89624e-08 -1.95596e+06 4.02196e-08 3.71936e+07)
(1.08929e+08 -1.4308e+07 -7.07644e-08 -4.92341e+06 -3.74921e-08 3.09903e+07)
(1.54107e+08 2.66028e+06 4.50557e-09 2.47735e+07 7.25452e-09 5.34256e+07)
(8.02509e+07 -1.3508e+06 1.24536e-08 7.88851e+06 1.25595e-08 2.6308e+07)
(6.07777e+07 -2.62749e+07 -1.06661e-08 -9.17258e+06 -2.64756e-09 1.57546e+07)
(6.29825e+07 -2.61698e+07 -1.44291e-08 -9.62713e+06 -2.64601e-09 1.57125e+07)
(3.38117e+06 -1.14384e+07 -4.922e-09 -3.59262e+07 -1.34177e-09 -9.68067e+06)
(1.36609e+08 4.30026e+06 1.09852e-08 -1.72669e+07 1.00559e-08 3.63089e+07)
(1.36331e+08 4.30978e+06 5.7037e-08 -1.73033e+07 3.29988e-08 3.49397e+07)
(8.39604e+07 -1.5212e+07 -2.0794e-08 5.26734e+06 3.44359e-09 2.6625e+07)
(1.2273e+08 -6.13591e+06 2.69329e-08 -6.9399e+06 2.10237e-08 3.47843e+07)
(9.22551e+07 -2.00159e+07 0 -1.14125e+06 0 2.75091e+07)
(8.21017e+07 -1.54307e+07 3.33069e-08 6.01247e+06 1.19037e-09 2.63368e+07)
(7.6749e+07 -602763 -1.27397e-08 1.76792e+07 -9.53822e-10 2.83369e+07)
(8.21236e+07 -3.54093e+06 6.89189e-10 2.46624e+06 -1.60164e-09 2.54325e+07)
(7.28175e+07 -1.11379e+07 -1.36766e-08 1.164e+07 -7.62174e-09 2.51785e+07)
(8.64161e+07 -3.95327e+06 3.19145e-08 730689 1.85057e-08 2.62239e+07)
(3.7106e+07 -2.55155e+07 7.14818e-08 -2.15557e+07 3.4918e-08 4.98758e+06)
(9.77247e+07 -1.95574e+07 9.64666e-09 -2.82319e+07 1.62527e-08 2.04921e+07)
(1.96322e+07 -1.06479e+07 4.24025e-08 -4.22515e+07 1.20522e-08 -6.08823e+06)
(7.41028e+07 -2.40638e+07 -1.70066e-08 -3.5117e+06 -1.02466e-08 2.10734e+07)
(1.45437e+08 9.5667e+06 1.0253e-07 -1.00296e+07 8.39778e-08 4.11203e+07)
(5.08433e+07 -1.15529e+07 -5.08933e-09 9.01494e+06 -2.30547e-10 1.82328e+07)
(1.4623e+08 9.76155e+06 -4.04624e-08 -9.737e+06 -2.8566e-08 4.07495e+07)
(9.7058e+07 -3.41979e+06 6.42584e-08 195454 4.93102e-09 2.89409e+07)
(2.40338e+07 -1.2834e+07 -1.3614e-07 -4.14048e+07 -8.13176e-08 -5.54904e+06)
(8.38545e+07 -8.97828e+06 1.47273e-09 4.64212e+06 -2.1283e-09 2.63878e+07)
(6.79457e+07 -1.43914e+07 -2.35454e-08 9.82223e+06 2.0837e-09 2.34843e+07)
(8.28692e+07 -1.00978e+07 -1.3837e-09 5.75337e+06 -3.59404e-09 2.67166e+07)
(1.14042e+08 -1.20444e+07 -5.42249e-09 -2.46462e+06 6.61618e-09 3.34394e+07)
(8.04405e+07 -6.65867e+06 -2.25662e-08 9.24732e+06 -5.28926e-09 2.70818e+07)
(7.99591e+07 -168303 7.33181e-09 2.52003e+07 2.78977e-10 3.15046e+07)
(8.00554e+07 78578 -1.97038e-08 6808.54 1.07892e-08 2.40287e+07)
(8.79174e+07 -2.25265e+07 -1.54869e-09 -7.90225e+06 3.91548e-10 2.4302e+07)
(7.81472e+07 -2.4706e+07 -2.72403e-08 -8.95667e+06 -6.59194e-09 2.04837e+07)
(7.92583e+07 -2.03784e+07 -1.17634e-08 3.64981e+06 -9.70395e-09 2.48447e+07)
(1.3597e+08 -1.54038e+07 0 -8.60568e+06 0 3.84325e+07)
(7.86899e+07 -2.24805e+06 -7.08636e-10 1.93965e+07 3.59953e-09 2.93574e+07)
(8.09311e+07 -4.00072e+06 1.48728e-09 5.40929e+06 -1.69079e-08 2.5869e+07)
(7.7609e+07 -783540 -2.92214e-08 1.83754e+07 -9.57743e-09 2.86812e+07)
(3.90467e+07 -7.07518e+06 -1.44319e-08 7.00908e+06 2.71119e-11 1.38597e+07)
(3.97274e+07 -6.53788e+06 2.55839e-08 7.03551e+06 4.82067e-10 1.37467e+07)
(7.41419e+07 -6.89813e+06 -2.90489e-08 1.40159e+07 -7.0732e-09 2.65347e+07)
(9.57801e+07 -5.1413e+06 -2.42947e-08 343285 6.97268e-09 2.88665e+07)
(9.55096e+07 -5.38572e+06 -2.42513e-08 339348 6.51321e-09 2.87022e+07)
(1.42167e+08 512872 -3.64314e-08 -232706 -1.53639e-08 4.23998e+07)
(6.19025e+07 -1.1586e+07 -4.87403e-09 1.09265e+07 4.00217e-09 2.18598e+07)
(6.49256e+07 -7.20916e+06 3.86248e-08 1.29089e+07 4.514e-09 2.34284e+07)
(1.20759e+08 -4.39631e+06 -1.02472e-07 -1.48101e+07 -7.02324e-08 3.1986e+07)
(1.2065e+08 -4.77847e+06 -1.15368e-08 -1.49868e+07 -9.03919e-09 3.16174e+07)
(7.83446e+07 -3.04809e+06 -6.92171e-09 1.81863e+07 -3.12273e-09 2.8954e+07)
(2.88898e+07 -2.17268e+07 1.06139e-07 -3.59175e+07 3.19174e-08 -2.20953e+06)
(-2.29599e+06 3.97157e+06 4.69126e-08 -8.03982e+06 -6.92233e-08 -3.7192e+06)
(9.04044e+07 -1.91174e+07 1.09397e-08 1.26071e+06 -4.98006e-09 2.76095e+07)
(9.05812e+07 -1.92081e+07 -4.9769e-08 1.03004e+06 -1.97363e-08 2.7404e+07)
(1.1928e+08 1.414e+07 -1.298e-08 6.61527e+06 -1.52814e-08 3.73243e+07)
(8.04401e+07 -2.05263e+06 -6.50711e-09 4.78501e+06 3.72988e-09 2.55191e+07)
(1.48755e+08 1.18948e+07 -9.59197e-09 -5.57557e+06 -1.02346e-08 4.31752e+07)
(6.48537e+07 -2.51545e+07 5.56444e-08 -3.23117e+07 2.39399e-08 9.58485e+06)
(1.51584e+08 3.89592e+06 -5.78877e-08 2.36135e+07 -2.15425e-08 5.25681e+07)
(1.53874e+08 2.09652e+06 1.5272e-07 2.44774e+07 1.71835e-08 5.37533e+07)
(1.22786e+08 -7.23345e+06 -8.25476e-08 -3.80697e+06 -4.3401e-08 3.54984e+07)
(2.23717e+08 -2.14196e+07 -7.76704e-08 2.03795e+07 -2.97808e-08 7.15189e+07)
(1.09252e+08 -1.37846e+07 1.16915e-08 -1.34887e+07 6.85019e-09 2.88772e+07)
(2.23336e+08 -2.108e+07 -1.71545e-07 2.07429e+07 -7.67987e-08 7.58969e+07)
(1.15362e+08 -9.16126e+06 -1.00579e-07 -1.87361e+07 -6.59853e-08 2.89727e+07)
(2.91431e+07 -1.6772e+07 3.77119e-08 -5.6578e+06 1.07989e-08 7.18256e+06)
(7.42746e+07 -1.73396e+07 0 7.41283e+06 0 2.43779e+07)
(7.35908e+07 -1.72481e+07 0 7.5209e+06 0 2.4475e+07)
(1.79884e+08 -5.1721e+07 -1.20211e-07 2.50276e+07 -4.43659e-08 6.26549e+07)
(8.65347e+07 -2.31435e+07 1.94381e-08 -2.86141e+07 -6.55926e-09 1.71279e+07)
(8.1147e+07 -1.86623e+07 -1.3227e-08 4.76319e+06 6.9071e-09 2.55715e+07)
(1.35924e+08 1.02325e+07 -3.05684e-08 -1.39762e+07 -3.20977e-08 3.69484e+07)
(2.25332e+07 -145160 -7.19816e-09 -1.94819e+06 1.74941e-09 6.16188e+06)
(1.25849e+08 693361 1.01167e-07 -1.56414e+07 7.81662e-08 3.34258e+07)
(3.33608e+07 -1.7626e+07 1.48051e-08 -4.08565e+06 3.39289e-09 8.735e+06)
(1.18848e+08 1.22057e+07 -4.14407e-08 9.51855e+06 -2.81325e-08 3.85287e+07)
(2.80959e+07 -2.27568e+07 5.98033e-09 -2.45001e+07 1.95075e-09 891770)
(1.2452e+08 -6.14628e+06 -7.04468e-08 -289919 -2.66131e-08 3.7404e+07)
(8.02194e+07 -1.78529e+06 -7.46161e-09 1.45784e+07 -1.98301e-09 2.84219e+07)
(5.93122e+07 -2.09056e+07 -5.3767e-08 2.99125e+06 -1.49154e-08 1.88211e+07)
(5.95193e+07 -2.03934e+07 -2.71197e-08 3.26909e+06 -3.39244e-09 1.87275e+07)
(1.10854e+08 -1.26877e+07 -8.2464e-08 -1.19685e+07 -4.54369e-08 2.98509e+07)
(1.11956e+08 -1.30303e+07 -1.01275e-07 -2.69626e+06 -3.80383e-08 3.26973e+07)
(8.80531e+07 -1.64439e+07 -3.06201e-08 3.39696e+06 7.77225e-09 2.73434e+07)
(1.35295e+08 7.65135e+06 4.95744e-08 -1.5712e+07 4.79044e-08 3.57173e+07)
(7.6071e+07 -9.21132e+06 -1.51132e-08 1.25596e+07 -5.60175e-09 2.65952e+07)
(7.86549e+07 -1.81644e+07 9.23031e-09 5.79677e+06 7.88209e-09 2.54691e+07)
(1.12974e+08 -1.15585e+07 -2.47568e-08 -8.09922e+06 -1.04318e-08 3.12833e+07)
(1.13645e+08 -1.16998e+07 2.72476e-08 -8.23472e+06 1.20862e-08 3.19548e+07)
(1.36167e+08 4.35389e+06 5.08491e-08 -1.35338e+06 3.91667e-08 4.0321e+07)
(1.0034e+08 -1.85695e+07 6.9409e-08 -2.70854e+07 5.34985e-08 2.1822e+07)
(8.01796e+07 -495087 2.00429e-09 1.8188e+07 -3.22219e-09 2.96564e+07)
(1.11141e+08 -1.31287e+07 -1.02103e-08 -6.48312e+06 -3.8349e-10 3.147e+07)
(6.66814e+07 -9.81627e+06 1.11728e-08 1.2097e+07 -1.27394e-08 2.37342e+07)
(1.14616e+08 1.39846e+07 -5.50064e-08 -442479 -4.94419e-08 3.40648e+07)
(1.17888e+08 1.08468e+07 3.94003e-08 8.44598e+06 1.31223e-08 3.80153e+07)
(8.48617e+07 -2.12179e+07 1.62161e-08 440068 1.17966e-08 2.55431e+07)
(1.1706e+08 -8.78988e+06 7.60089e-09 -266297 2.21386e-09 3.48221e+07)
(3.44943e+07 -1.40048e+07 1.26472e-08 404127 1.91223e-09 1.07404e+07)
(1.30335e+08 8.86296e+06 5.25067e-08 -1.95551e+06 2.52013e-08 3.86564e+07)
(3.67981e+07 -2.54203e+07 0 -2.70003e+07 0 3.0216e+06)
(-169885 3.35292e+06 -3.71816e-09 -6.59704e+07 -6.22354e-08 -1.83848e+07)
(1.06824e+08 -1.50551e+07 -1.33074e-08 -1.87167e+07 -1.05748e-08 2.6199e+07)
(1.06336e+08 -1.49723e+07 4.04668e-08 -1.77198e+07 2.31596e-08 2.65111e+07)
(7.98695e+07 -6.85221e+06 0 1.17384e+07 0 2.73474e+07)
(3.6058e+07 -1.91041e+07 0 -3.66626e+07 0 247533)
(1.85475e+06 -697499 -2.30908e-08 -6.0851e+07 -4.10028e-08 -1.91874e+07)
(1.31332e+08 6.10084e+06 -6.83909e-08 -5.95856e+06 -5.89802e-08 3.77648e+07)
(1.01026e+08 1.18095e+07 -7.32785e-08 3.18468e+06 -5.78835e-08 3.11248e+07)
(4.52605e+07 -1.75428e+06 2.27808e-08 1.01848e+07 -6.94807e-10 1.67965e+07)
(5.40799e+07 -1.95119e+07 4.55201e-08 3.12227e+06 1.01002e-08 1.69353e+07)
(8.96155e+07 -2.21963e+07 -1.58067e-08 -9.85356e+06 -6.15787e-09 2.39492e+07)
(2.39456e+08 -5.65713e+07 5.59487e-08 2.25719e+07 1.96406e-08 8.01e+07)
(8.0001e+07 -2.58529e+06 7.15634e-10 1.75598e+07 -3.08899e-10 2.9206e+07)
(1.32886e+08 1.99836e+07 -1.55728e-08 268567 -1.71585e-08 4.0099e+07)
(1.02165e+08 -1.96123e+07 -7.16157e-08 -2.51388e+07 -4.16124e-08 2.29017e+07)
(1.01757e+08 -1.85584e+07 6.64234e-08 -2.59179e+07 4.10469e-08 2.25261e+07)
(1.18534e+08 -9.77458e+06 2.83448e-08 -1.14008e+06 2.96286e-09 3.52147e+07)
(8.25084e+07 -2.06471e+06 2.14214e-08 820112 9.4751e-09 2.50585e+07)
(1.01759e+08 -1.4143e+07 -5.4136e-09 532237 -8.47625e-10 3.05534e+07)
(7.96548e+07 -1.09756e+07 -4.51856e-08 9.18571e+06 -4.25623e-11 2.66746e+07)
(8.81539e+07 -6.67636e+06 3.28458e-09 1.34411e+06 4.97298e-09 2.70265e+07)
(5.70061e+07 -2.45839e+07 1.52538e-08 -3.29495e+07 6.53839e-09 6.7422e+06)
(8.27773e+07 -4.46342e+06 6.90443e-08 2.68654e+06 2.22195e-08 2.55899e+07)
(8.14678e+07 -4.31371e+06 -2.46302e-09 4.2453e+06 1.38329e-09 2.57434e+07)
(1.20166e+08 -6.99389e+06 -8.22291e-09 -209121 1.40218e-09 3.56268e+07)
(1.14022e+08 1.45359e+07 1.64652e-08 -25101.9 6.12554e-09 3.41577e+07)
(6.48548e+07 -1.06697e+07 -4.21389e-08 1.1745e+07 -9.31933e-09 2.2833e+07)
(1.58685e+07 -1.24067e+07 2.02129e-08 -1.46563e+07 9.25871e-09 215520)
(1.30251e+08 3.73886e+06 4.65298e-08 -6.34003e+06 3.57543e-08 3.70712e+07)
(1.30084e+08 3.17506e+06 2.47099e-08 -6.96669e+06 1.63319e-08 3.70558e+07)
(1.66644e+07 -1.34913e+07 -9.02323e-09 -1.38543e+07 -2.97632e-09 967177)
(1.50639e+08 1.11743e+07 6.94089e-08 -5.91411e+06 4.54381e-08 4.32073e+07)
(4.9375e+07 -1.41766e+07 1.34176e-08 6.95181e+06 4.95965e-09 1.72165e+07)
(6.18923e+07 -1.13594e+07 2.43753e-08 1.1239e+07 -3.63153e-10 2.19839e+07)
(6.98754e+07 -4.88911e+06 -3.15466e-08 1.40388e+07 -7.81676e-09 2.51297e+07)
(9.23615e+07 -1.86292e+07 -4.36733e-08 927690 -9.69868e-09 2.80963e+07)
(8.17575e+07 -1.90311e+06 -9.26044e-09 1.22332e+06 5.98119e-09 2.49623e+07)
(2.05654e+07 -1.03314e+07 -1.4132e-08 -7.31e+06 -6.11588e-09 3.84526e+06)
(7.35664e+07 -1.04523e+06 8.62599e-09 1.56832e+07 -6.89074e-09 2.66732e+07)