/*--------------------------------*- C++ -*----------------------------------*\
| =========                 |                                                 |
| \\      /  F ield         | OpenFOAM: The Open Source CFD Toolbox           |
|  \\    /   O peration     | Version:  v2012                                 |
|   \\  /    A nd           | Website:  www.openfoam.com                      |
|    \\/     M anipulation  |                                                 |
\*---------------------------------------------------------------------------*/
FoamFile
{
    version     2.0;
    format      ascii;
    class       pointVectorField;
    location    "4";
    object      pointD;
}
// * * * * * * * * * * * * * * * * * * * * * * * * * * * * * * * * * * * * * //

dimensions      [0 1 0 0 0 0 0];


internalField   nonuniform List<vector> 
32562
(
(0.00142222 0 6.42243e-22)
(0.00202279 0 5.36811e-22)
(0.00186684 -0.000186321 0)
(0 -0.00100132 -1.50745e-23)
(0 -0.00077678 1.13822e-21)
(0.00146949 0 0)
(0 -0.000923221 0)
(0.000864552 -0.000317382 0)
(0.000430829 -0.000589718 2.3797e-22)
(0.00195421 -5.74599e-05 5.69087e-21)
(0.00103328 -0.000470056 5.8584e-22)
(0.00103328 -0.000470056 5.8584e-22)
(0.000864552 -0.000317382 0)
(0 -0.000923221 0)
(0 -0.00077678 1.13822e-21)
(0.00142222 0 6.42243e-22)
(0.00146949 0 0)
(0.00202279 0 5.36811e-22)
(0.00195421 -5.74599e-05 5.69087e-21)
(0.00186684 -0.000186321 0)
(0.000430829 -0.000589718 2.3797e-22)
(0 -0.00100132 -1.50745e-23)
(1.7338e-05 -0.000922817 0)
(3.47683e-05 -0.000920888 0)
(5.22385e-05 -0.000917713 0)
(6.98005e-05 -0.000913295 0)
(8.74836e-05 -0.000907656 0)
(0.000105313 -0.000900823 0)
(0.000123316 -0.000892828 0)
(0.000141514 -0.000883706 0)
(0.000159931 -0.0008735 0)
(0.000178587 -0.000862255 0)
(0.000197499 -0.00085002 0)
(0.000216682 -0.000836848 0)
(0.000236151 -0.000822793 0)
(0.000255916 -0.000807915 0)
(0.000275985 -0.000792271 0)
(0.000296365 -0.000775924 0)
(0.00031706 -0.000758936 0)
(0.00033807 -0.000741368 0)
(0.000359395 -0.000723284 0)
(0.000381033 -0.000704746 0)
(0.000402977 -0.000685815 0)
(0.000425221 -0.000666553 0)
(0.000447756 -0.00064702 0)
(0.00047057 -0.000627272 0)
(0.000493653 -0.000607368 0)
(0.000516989 -0.00058736 0)
(0.000540563 -0.000567302 0)
(0.000564357 -0.000547243 0)
(0.000588355 -0.000527231 0)
(0.000612536 -0.000507311 0)
(0.000636879 -0.000487526 0)
(0.000661363 -0.000467916 0)
(0.000685966 -0.000448518 0)
(0.000710663 -0.000429367 0)
(0.000735431 -0.000410496 0)
(0.000760246 -0.000391936 0)
(0.000785076 -0.000373709 0)
(0.000809827 -0.000355818 0)
(0.000834495 -0.00033852 0)
(0.000894747 -0.000297228 0)
(0.00091906 -0.00028129 0)
(0.000943218 -0.000265842 0)
(0.000967185 -0.000250866 0)
(0.000990924 -0.000236374 0)
(0.0010144 -0.000222381 0)
(0.00103759 -0.000208895 0)
(0.00106045 -0.00019592 0)
(0.00108295 -0.00018346 0)
(0.00110508 -0.000171516 0)
(0.00112679 -0.000160085 0)
(0.00114806 -0.000149164 0)
(0.00116886 -0.000138749 0)
(0.00118916 -0.000128832 0)
(0.00120894 -0.000119406 0)
(0.00122817 -0.000110463 0)
(0.00124683 -0.00010199 0)
(0.00126488 -9.39771e-05 0)
(0.0012823 -8.64111e-05 0)
(0.00129908 -7.92782e-05 0)
(0.00131518 -7.25637e-05 0)
(0.00133059 -6.62517e-05 0)
(0.00134527 -6.03259e-05 0)
(0.00135922 -5.47686e-05 0)
(0.00137242 -4.95617e-05 0)
(0.00138483 -4.46864e-05 0)
(0.00139645 -4.01229e-05 0)
(0.00140726 -3.58512e-05 0)
(0.00141725 -3.18503e-05 0)
(0.00142639 -2.8099e-05 0)
(0.00143468 -2.45755e-05 0)
(0.00144211 -2.12575e-05 0)
(0.00144866 -1.81226e-05 0)
(0.00145433 -1.51479e-05 0)
(0.0014591 -1.23107e-05 0)
(0.00146298 -9.58852e-06 0)
(0.00146595 -6.95993e-06 0)
(0.00146803 -4.40673e-06 0)
(0.00146924 -1.90636e-06 0)
(0.00142469 0 0)
(0.00142747 0 0)
(0.00143002 0 0)
(0.00143236 0 0)
(0.00143452 0 0)
(0.00143653 0 0)
(0.00143838 0 0)
(0.00144011 0 0)
(0.00144172 0 0)
(0.00144321 0 0)
(0.00144461 0 0)
(0.00144591 0 0)
(0.00144714 0 0)
(0.0014483 0 0)
(0.00144938 0 0)
(0.00145042 0 0)
(0.0014514 0 0)
(0.00145233 0 0)
(0.00145323 0 0)
(0.00145409 0 0)
(0.00145492 0 0)
(0.00145572 0 0)
(0.0014565 0 0)
(0.00145727 0 0)
(0.00145802 0 0)
(0.00145876 0 0)
(0.0014595 0 0)
(0.00146023 0 0)
(0.00146095 0 0)
(0.00146168 0 0)
(0.00146241 0 0)
(0.00146314 0 0)
(0.00146388 0 0)
(0.00146463 0 0)
(0.00146539 0 0)
(0.00146617 0 0)
(0.00146696 0 0)
(0.00146778 0 0)
(0.00146861 0 0)
(0.00147103 0 0)
(0.00147319 0 0)
(0.00147548 0 0)
(0.00147794 0 0)
(0.00148057 0 0)
(0.00148335 0 0)
(0.0014863 0 0)
(0.0014894 0 0)
(0.00149266 0 0)
(0.00149608 0 0)
(0.00149967 0 0)
(0.00150342 0 0)
(0.00150733 0 0)
(0.0015114 0 0)
(0.00151562 0 0)
(0.00152001 0 0)
(0.00152454 0 0)
(0.00152924 0 0)
(0.00153408 0 0)
(0.00153907 0 0)
(0.00154422 0 0)
(0.0015495 0 0)
(0.00155493 0 0)
(0.0015605 0 0)
(0.00156621 0 0)
(0.00157206 0 0)
(0.00157804 0 0)
(0.00158416 0 0)
(0.0015904 0 0)
(0.00159677 0 0)
(0.00160327 0 0)
(0.0016099 0 0)
(0.00161664 0 0)
(0.00162351 0 0)
(0.00163049 0 0)
(0.00163759 0 0)
(0.0016448 0 0)
(0.00165212 0 0)
(0.00165955 0 0)
(0.00166708 0 0)
(0.00167472 0 0)
(0.00168246 0 0)
(0.0016903 0 0)
(0.00169824 0 0)
(0.00170627 0 0)
(0.0017144 0 0)
(0.00172262 0 0)
(0.00173092 0 0)
(0.00173931 0 0)
(0.00174778 0 0)
(0.00175633 0 0)
(0.00176496 0 0)
(0.00177367 0 0)
(0.00178245 0 0)
(0.00179129 0 0)
(0.00180021 0 0)
(0.00180918 0 0)
(0.00181822 0 0)
(0.00182732 0 0)
(0.00183647 0 0)
(0.00184567 0 0)
(0.00185491 0 0)
(0.0018642 0 0)
(0.00187353 0 0)
(0.0018829 0 0)
(0.0018923 0 0)
(0.00190173 0 0)
(0.00191118 0 0)
(0.00192064 0 0)
(0.00193012 0 0)
(0.00193961 0 0)
(0.0019491 0 0)
(0.00195859 0 0)
(0.00196807 0 0)
(0.00197753 0 0)
(0.00198697 0 0)
(0.00199638 0 0)
(0.00200575 0 0)
(0.00201506 0 0)
(0.00202582 -8.38054e-07 2.81312e-21)
(0.00202568 -1.54152e-06 3.44258e-21)
(0.00202541 -2.24672e-06 1.21548e-23)
(0.00202503 -2.96482e-06 -2.8859e-21)
(0.00202453 -3.69885e-06 -1.73268e-21)
(0.00202393 -4.45046e-06 -6.17824e-22)
(0.00202322 -5.22202e-06 -1.73033e-21)
(0.0020224 -6.01637e-06 -8.76034e-24)
(0.00202148 -6.83642e-06 8.1871e-24)
(0.00202045 -7.68504e-06 -2.18352e-21)
(0.00201933 -8.5651e-06 -1.7765e-21)
(0.0020181 -9.47941e-06 1.08905e-21)
(0.00201677 -1.04307e-05 -2.51291e-21)
(0.00201535 -1.14218e-05 -4.2905e-21)
(0.00201383 -1.24552e-05 -1.80615e-21)
(0.00201222 -1.35337e-05 -2.86116e-21)
(0.00201052 -1.46596e-05 -1.05501e-21)
(0.00200874 -1.58354e-05 -2.57112e-22)
(0.00200686 -1.70636e-05 -1.70181e-23)
(0.00200491 -1.83462e-05 -8.05519e-22)
(0.00200288 -1.96856e-05 -1.6746e-21)
(0.00200077 -2.10838e-05 3.01227e-23)
(0.00199859 -2.25428e-05 -2.0781e-22)
(0.00199633 -2.40644e-05 1.79523e-22)
(0.00199401 -2.56504e-05 2.84005e-21)
(0.00199163 -2.73024e-05 2.84425e-21)
(0.00198919 -2.9022e-05 1.05065e-21)
(0.00198669 -3.08106e-05 -2.93967e-21)
(0.00198414 -3.26695e-05 -4.00122e-21)
(0.00198153 -3.45998e-05 1.94547e-21)
(0.00197889 -3.66025e-05 3.09404e-21)
(0.0019762 -3.86785e-05 -3.06741e-21)
(0.00197347 -4.08285e-05 -2.14128e-21)
(0.00197071 -4.30532e-05 1.07728e-21)
(0.00196792 -4.5353e-05 -1.03471e-21)
(0.00196511 -4.77286e-05 -2.15307e-21)
(0.00196227 -5.01798e-05 -1.10271e-21)
(0.00195942 -5.27048e-05 2.15698e-21)
(0.00195656 -5.53022e-05 5.94054e-21)
(0.00195267 -5.89004e-05 5.77106e-21)
(0.00195138 -6.01225e-05 7.62505e-21)
(0.00195009 -6.13649e-05 9.48829e-21)
(0.0019488 -6.26245e-05 7.64625e-21)
(0.00194751 -6.38994e-05 5.80744e-21)
(0.00194623 -6.51883e-05 7.67236e-21)
(0.00194494 -6.64906e-05 7.683e-21)
(0.00194366 -6.78064e-05 1.15429e-20)
(0.00194239 -6.91357e-05 9.57105e-21)
(0.00194111 -7.04786e-05 1.87228e-21)
(0.00193984 -7.18353e-05 1.9854e-21)
(0.00193857 -7.32059e-05 5.85532e-21)
(0.00193731 -7.45901e-05 5.75679e-21)
(0.00193605 -7.59881e-05 3.87597e-21)
(0.00193479 -7.73994e-05 7.76798e-21)
(0.00193354 -7.8824e-05 1.36498e-20)
(0.00193229 -8.02619e-05 1.16747e-20)
(0.00193105 -8.17147e-05 3.80378e-21)
(0.00192982 -8.31677e-05 -3.90478e-21)
(0.00192859 -8.46323e-05 8.48972e-23)
(0.00192736 -8.61219e-05 7.82303e-21)
(0.00192614 -8.7622e-05 3.83336e-21)
(0.00192492 -8.91319e-05 1.99482e-21)
(0.00192371 -9.06514e-05 5.91689e-21)
(0.00192251 -9.21805e-05 5.85217e-21)
(0.00192131 -9.37192e-05 5.85906e-21)
(0.00192012 -9.52673e-05 5.92582e-21)
(0.00191893 -9.68251e-05 1.93781e-21)
(0.00191774 -9.83938e-05 -2.00151e-21)
(0.00191656 -9.99752e-05 3.73448e-24)
(0.00191538 -0.00010157 -3.95438e-21)
(0.00191421 -0.000103179 -1.18544e-20)
(0.00191305 -0.000104801 -5.91332e-21)
(0.0019119 -0.000106434 3.96555e-21)
(0.00191075 -0.000108078 3.95494e-21)
(0.00190962 -0.000109731 2.00039e-21)
(0.0019085 -0.000111394 1.97044e-21)
(0.00190739 -0.000113065 -3.96997e-21)
(0.00190629 -0.000114743 -1.9795e-21)
(0.0019052 -0.000116429 5.96453e-21)
(0.00190412 -0.000118123 9.93857e-21)
(0.00190306 -0.000119823 3.97882e-21)
(0.001902 -0.00012153 -1.99694e-21)
(0.00190095 -0.000123243 3.96962e-21)
(0.00189991 -0.000124962 7.96316e-21)
(0.00189889 -0.000126686 5.98698e-21)
(0.00189787 -0.000128416 3.98189e-21)
(0.00189686 -0.000130151 2.01238e-21)
(0.00189587 -0.000131891 -3.95187e-21)
(0.00189488 -0.000133635 -8.01922e-21)
(0.0018939 -0.000135383 -4.03217e-21)
(0.00189293 -0.000137136 2.02137e-21)
(0.00189197 -0.000138893 2.02137e-21)
(0.00189102 -0.000140652 0)
(0.00189008 -0.000142415 -1.96214e-21)
(0.00188915 -0.00014418 -7.98388e-21)
(0.00188823 -0.000145948 -6.02174e-21)
(0.00188732 -0.000147717 0)
(0.00188641 -0.000149488 0)
(0.00188552 -0.000151259 0)
(0.00188463 -0.000153032 0)
(0.00188375 -0.000154805 2.04158e-21)
(0.00188288 -0.000156578 -1.94761e-21)
(0.00188201 -0.00015835 -6.03332e-21)
(0.00188115 -0.000160122 3.88645e-21)
(0.0018803 -0.000161893 5.93058e-21)
(0.00187945 -0.000163663 1.07396e-22)
(0.00187861 -0.000165431 -1.94008e-21)
(0.00187777 -0.000167197 -2.04748e-21)
(0.00187694 -0.000168961 -2.04827e-21)
(0.00187611 -0.000170723 5.08466e-26)
(0.00187529 -0.000172482 1.14798e-22)
(0.00187446 -0.000174238 -5.91445e-21)
(0.00187364 -0.000175991 -7.96119e-21)
(0.00187281 -0.000177742 -4.09447e-21)
(0.00187199 -0.000179491 3.86517e-21)
(0.00187116 -0.000181238 6.02522e-21)
(0.00187034 -0.000182984 -1.93339e-21)
(0.00186951 -0.000184729 -3.97923e-21)
(0.00185817 -0.000188355 4.7353e-23)
(0.00184541 -0.000190964 -1.02134e-22)
(0.00183268 -0.000193563 -1.49487e-22)
(0.00181997 -0.000196133 8.66371e-23)
(0.00180728 -0.000198657 4.66795e-23)
(0.00179459 -0.000201119 -1.36208e-22)
(0.00178191 -0.000203508 -9.62506e-23)
(0.00176921 -0.000205812 9.11637e-23)
(0.00175648 -0.000208027 9.11637e-23)
(0.00174372 -0.000210151 7.06761e-23)
(0.00173091 -0.000212185 7.06761e-23)
(0.00171806 -0.000214108 1.68789e-24)
(0.00170513 -0.000215916 8.716e-24)
(0.00169213 -0.000217638 1.65292e-22)
(0.00167904 -0.00021927 7.14109e-23)
(0.00166586 -0.000220809 -1.07932e-22)
(0.00165258 -0.000222258 -2.10784e-23)
(0.00163917 -0.00022362 -1.61736e-22)
(0.00162565 -0.000224901 -6.17486e-23)
(0.00161199 -0.000226115 1.41077e-22)
(0.00159819 -0.000227258 2.06374e-22)
(0.00158426 -0.000228339 2.15197e-22)
(0.00157018 -0.000229376 1.07285e-22)
(0.00155593 -0.000230365 -1.13401e-22)
(0.00154151 -0.000231319 -5.11798e-23)
(0.00152692 -0.000232249 1.13953e-22)
(0.00151215 -0.000233168 -1.25495e-22)
(0.0014972 -0.000234075 -1.10611e-22)
(0.00148206 -0.00023498 9.24361e-24)
(0.00146673 -0.000235896 5.79647e-23)
(0.00145119 -0.000236832 -8.80471e-24)
(0.00143544 -0.0002378 -2.54476e-22)
(0.00141948 -0.000238815 -1.87706e-22)
(0.0014033 -0.000239883 0)
(0.0013869 -0.000241014 1.28106e-22)
(0.00137028 -0.000242224 2.56067e-22)
(0.00135342 -0.000243527 1.2796e-22)
(0.00133632 -0.000244935 1.26839e-22)
(0.00131898 -0.000246459 1.26839e-22)
(0.0013014 -0.000248112 -8.71085e-23)
(0.00128357 -0.000249907 1.27892e-22)
(0.0012655 -0.000251861 3.5917e-22)
(0.00124717 -0.000253998 2.35159e-22)
(0.00122859 -0.000256311 -1.81415e-23)
(0.00120975 -0.000258811 -1.09131e-22)
(0.00119064 -0.000261541 1.51296e-23)
(0.00117127 -0.000264511 -9.0416e-23)
(0.00115164 -0.000267729 -3.86091e-22)
(0.00113176 -0.000271212 -3.51721e-23)
(0.00111161 -0.000274977 2.69736e-22)
(0.0010912 -0.000279032 2.73018e-22)
(0.00107054 -0.000283405 7.01757e-23)
(0.00104963 -0.000288121 -1.05509e-22)
(0.00102846 -0.000293187 7.29698e-23)
(0.00100706 -0.00029861 -5.90063e-23)
(0.000985397 -0.000304415 -2.32726e-22)
(0.000963501 -0.000310627 6.29892e-23)
(0.000941384 -0.000317255 1.98321e-23)
(0.000919048 -0.000324319 2.31132e-23)
(0.000896503 -0.000331834 2.3999e-22)
(0.000873763 -0.00033982 -2.89505e-22)
(0.000850852 -0.000348266 1.56052e-23)
(0.000827759 -0.000357208 3.25033e-22)
(0.000804508 -0.000366674 5.09332e-23)
(0.000781124 -0.000376655 3.10108e-23)
(0.000757611 -0.00038716 -4.25626e-22)
(0.000734003 -0.000398197 4.1518e-22)
(0.000710316 -0.00040978 4.3873e-22)
(0.000686572 -0.000421915 -4.02076e-22)
(0.000662797 -0.000434607 1.11139e-22)
(0.000639021 -0.000447856 1.11139e-22)
(0.000615274 -0.000461649 -4.67088e-22)
(0.000591579 -0.00047597 -4.67088e-22)
(0.000567962 -0.000490841 3.30415e-22)
(0.000544462 -0.000506255 3.30415e-22)
(0.000521107 -0.000522167 0)
(0.00049793 -0.000538578 0)
(0.000474979 -0.00055544 2.2302e-22)
(0.000452268 -0.000572747 4.61932e-22)
(0.00041284 -0.000604438 1.21221e-21)
(0.000397072 -0.000617695 4.25888e-22)
(0.000381501 -0.00063111 -1.80876e-21)
(0.000366138 -0.000644669 -7.9158e-22)
(0.000350997 -0.000658355 -1.08182e-21)
(0.000336091 -0.000672148 4.53896e-22)
(0.000321432 -0.000686027 3.10413e-21)
(0.000307034 -0.000699968 -2.12148e-21)
(0.000292906 -0.000713948 -1.42544e-21)
(0.00027906 -0.00072794 3.3747e-21)
(0.000265507 -0.000741917 3.01379e-21)
(0.000252254 -0.000755852 3.99085e-22)
(0.000239311 -0.000769715 -1.89166e-21)
(0.000226684 -0.000783476 -1.30394e-21)
(0.000214379 -0.000797104 4.72065e-22)
(0.000202402 -0.000810567 5.99291e-22)
(0.000190756 -0.000823833 -5.58641e-22)
(0.000179444 -0.000836869 0)
(0.000168465 -0.000849641 0)
(0.000157821 -0.000862115 0)
(0.000147509 -0.000874258 1.04021e-21)
(0.000137526 -0.000886035 6.11936e-22)
(0.000127867 -0.000897414 -4.28271e-22)
(0.000118525 -0.00090836 -2.54575e-22)
(0.000109492 -0.000918842 3.43954e-22)
(0.000100759 -0.000928826 2.62562e-22)
(9.23138e-05 -0.000938283 -3.35967e-22)
(8.41447e-05 -0.000947181 0)
(7.62369e-05 -0.000955492 -2.65311e-22)
(6.85749e-05 -0.000963188 -2.37e-23)
(6.11416e-05 -0.000970245 7.23498e-22)
(5.39185e-05 -0.000976638 -1.85467e-23)
(4.6886e-05 -0.000982344 -5.00434e-22)
(4.00234e-05 -0.000987344 3.64572e-22)
(3.33088e-05 -0.00099162 -1.04993e-22)
(2.67192e-05 -0.000995155 -2.72021e-22)
(2.02321e-05 -0.000997938 1.14159e-22)
(1.38367e-05 -0.000999952 3.39163e-24)
(7.48275e-06 -0.00100111 7.16403e-23)
(0 -0.00100085 0)
(0 -0.00100018 0)
(0 -0.000999491 0)
(0 -0.000998793 0)
(0 -0.000998082 0)
(0 -0.000997357 0)
(0 -0.000996618 0)
(0 -0.000995863 0)
(0 -0.000995095 0)
(0 -0.000994313 0)
(0 -0.000993518 0)
(0 -0.000992709 0)
(0 -0.000991889 0)
(0 -0.000991056 0)
(0 -0.000990211 0)
(0 -0.000989356 0)
(0 -0.00098849 0)
(0 -0.000987613 0)
(0 -0.000986727 0)
(0 -0.000985832 0)
(0 -0.000984927 0)
(0 -0.000984013 0)
(0 -0.000983091 0)
(0 -0.000982161 0)
(0 -0.000981223 0)
(0 -0.000980278 0)
(0 -0.000979326 0)
(0 -0.000978367 0)
(0 -0.000977401 0)
(0 -0.00097643 0)
(0 -0.000975452 0)
(0 -0.000974468 0)
(0 -0.00097348 0)
(0 -0.000972485 0)
(0 -0.000971486 0)
(0 -0.000970482 0)
(0 -0.000969474 0)
(0 -0.000968461 0)
(0 -0.000967444 0)
(0 -0.000966423 0)
(0 -0.000965399 0)
(0 -0.00096437 0)
(0 -0.000963338 0)
(0 -0.000962303 0)
(0 -0.000961265 0)
(0 -0.000960224 0)
(0 -0.00095918 0)
(0 -0.000958133 0)
(0 -0.000957084 0)
(0 -0.000956032 0)
(0 -0.000954978 0)
(0 -0.000953921 0)
(0 -0.000952862 0)
(0 -0.000951802 0)
(0 -0.000950739 0)
(0 -0.000949674 0)
(0 -0.000948607 0)
(0 -0.000947538 0)
(0 -0.000946468 0)
(0 -0.000945396 0)
(0 -0.000944322 0)
(0 -0.000943246 0)
(0 -0.000942169 0)
(0 -0.00094109 0)
(0 -0.000940009 0)
(0 -0.000938927 0)
(0 -0.000937844 0)
(0 -0.000936759 0)
(0 -0.000935672 0)
(0 -0.000934583 0)
(0 -0.000933492 0)
(0 -0.0009324 0)
(0 -0.000931305 0)
(0 -0.000930208 0)
(0 -0.000929108 0)
(0 -0.000928006 0)
(0 -0.000926902 0)
(0 -0.000925797 0)
(0 -0.000924689 0)
(0 -0.000921185 0)
(0 -0.00091893 0)
(0 -0.00091665 0)
(0 -0.000914349 0)
(0 -0.000912026 0)
(0 -0.000909682 0)
(0 -0.000907313 0)
(0 -0.000904918 0)
(0 -0.000902492 0)
(0 -0.000900034 0)
(0 -0.000897538 0)
(0 -0.000895001 0)
(0 -0.00089242 0)
(0 -0.000889789 0)
(0 -0.000887103 0)
(0 -0.000884358 0)
(0 -0.000881546 0)
(0 -0.000878663 0)
(0 -0.0008757 0)
(0 -0.000872651 0)
(0 -0.000869507 0)
(0 -0.00086626 0)
(0 -0.0008629 0)
(0 -0.000859416 0)
(0 -0.000855799 0)
(0 -0.000852035 0)
(0 -0.000848111 0)
(0 -0.000844013 0)
(0 -0.000839726 0)
(0 -0.000835232 0)
(0 -0.000830514 0)
(0 -0.000825551 0)
(0 -0.000820321 0)
(0 -0.000814801 0)
(0 -0.000808967 0)
(0 -0.000802791 0)
(0 -0.000796238 0)
(0 -0.00078927 0)
(0 -0.000781895 0)
(0.000883565 -0.000301065 0)
(0.000902859 -0.000284828 0)
(0.000921824 -0.000269496 0)
(0.00094047 -0.000255025 0)
(0.000958773 -0.000241385 0)
(0.000976746 -0.000228528 0)
(0.000994409 -0.000216432 0)
(0.00101177 -0.000205069 0)
(0.00102882 -0.000194426 0)
(0.00104557 -0.000184472 0)
(0.00106204 -0.000175171 0)
(0.00107825 -0.000166515 0)
(0.00109418 -0.000158473 0)
(0.00110986 -0.000150994 0)
(0.0011253 -0.000144067 0)
(0.00114052 -0.000137668 0)
(0.00115551 -0.000131765 0)
(0.00117029 -0.000126336 0)
(0.00118488 -0.000121362 0)
(0.00119929 -0.00011682 0)
(0.00121352 -0.000112672 0)
(0.00122759 -0.000108899 0)
(0.00124152 -0.000105493 0)
(0.0012553 -0.000102426 0)
(0.00126895 -9.96703e-05 0)
(0.00128248 -9.72122e-05 0)
(0.00129591 -9.50388e-05 0)
(0.00130922 -9.31273e-05 0)
(0.00132244 -9.14599e-05 0)
(0.00133558 -9.00185e-05 0)
(0.00134863 -8.87907e-05 0)
(0.00136161 -8.77589e-05 0)
(0.00137452 -8.69065e-05 0)
(0.00138738 -8.62224e-05 0)
(0.00140018 -8.56921e-05 0)
(0.00141292 -8.52973e-05 0)
(0.00142563 -8.50352e-05 0)
(0.00143829 -8.4894e-05 0)
(0.00145092 -8.4852e-05 0)
(0.00146351 -8.49004e-05 0)
(0.00147608 -8.5031e-05 0)
(0.00148862 -8.52331e-05 0)
(0.00150113 -8.54933e-05 0)
(0.00151362 -8.58024e-05 0)
(0.0015261 -8.61511e-05 0)
(0.00153855 -8.653e-05 0)
(0.001551 -8.693e-05 0)
(0.00156342 -8.73427e-05 0)
(0.00157584 -8.7759e-05 0)
(0.00158824 -8.81697e-05 0)
(0.00160062 -8.85659e-05 0)
(0.00161299 -8.89479e-05 0)
(0.00162532 -8.93398e-05 0)
(0.0016377 -8.96847e-05 0)
(0.00164987 -8.96575e-05 0)
(0.00166226 -8.97711e-05 0)
(0.00167494 -9.03013e-05 0)
(0.0016872 -9.03377e-05 0)
(0.00169946 -9.03162e-05 0)
(0.00171173 -9.02246e-05 0)
(0.00172399 -9.0048e-05 0)
(0.00173625 -8.97735e-05 0)
(0.00174849 -8.93912e-05 0)
(0.00176073 -8.88975e-05 0)
(0.00177295 -8.82835e-05 0)
(0.00178516 -8.75364e-05 0)
(0.00179735 -8.66488e-05 0)
(0.00180953 -8.5612e-05 0)
(0.00182169 -8.44162e-05 0)
(0.00183384 -8.30508e-05 0)
(0.00184597 -8.15045e-05 0)
(0.00185808 -7.97652e-05 0)
(0.00187018 -7.78215e-05 0)
(0.00188226 -7.56605e-05 0)
(0.00189433 -7.32668e-05 0)
(0.00190638 -7.06273e-05 0)
(0.00191842 -6.77211e-05 0)
(0.00193046 -6.45251e-05 0)
(0.00194248 -6.10109e-05 0)
(0.000851826 -0.000324425 0)
(0.000844457 -0.000328291 0)
(0.000837212 -0.000332142 0)
(0.00083007 -0.000335989 0)
(0.000823022 -0.000339835 0)
(0.000816064 -0.00034368 0)
(0.000809194 -0.000347526 0)
(0.00080241 -0.000351371 0)
(0.000795712 -0.000355215 0)
(0.0007891 -0.000359056 0)
(0.000782571 -0.000362894 0)
(0.000776125 -0.000366728 0)
(0.000769761 -0.000370556 0)
(0.000763478 -0.000374377 0)
(0.000757274 -0.000378191 0)
(0.000751148 -0.000381996 0)
(0.000745099 -0.000385791 0)
(0.000739124 -0.000389576 0)
(0.000733222 -0.000393351 0)
(0.000727392 -0.000397113 0)
(0.000721633 -0.000400862 0)
(0.000715944 -0.000404596 0)
(0.000710322 -0.000408316 0)
(0.000704764 -0.000412021 0)
(0.000699268 -0.000415711 0)
(0.000693834 -0.000419383 0)
(0.00068846 -0.000423039 0)
(0.000683143 -0.000426676 0)
(0.000677884 -0.000430295 0)
(0.000672677 -0.000433895 0)
(0.000667521 -0.000437475 0)
(0.000662414 -0.000441046 0)
(0.000657351 -0.000444604 0)
(0.000652331 -0.00044813 0)
(0.000647362 -0.000451627 0)
(0.000642439 -0.0004551 0)
(0.000637548 -0.00045856 0)
(0.000632691 -0.000462 0)
(0.000627865 -0.00046542 0)
(0.000623072 -0.000468819 0)
(0.000618307 -0.000472198 0)
(0.000613568 -0.000475556 0)
(0.000608854 -0.000478894 0)
(0.000604161 -0.000482211 0)
(0.000599488 -0.000485507 0)
(0.000594831 -0.000488784 0)
(0.000590189 -0.000492041 0)
(0.000585558 -0.000495278 0)
(0.000580936 -0.000498497 0)
(0.00057632 -0.000501696 0)
(0.000571708 -0.000504878 0)
(0.000567096 -0.000508042 0)
(0.000562482 -0.000511189 0)
(0.000557867 -0.000514313 0)
(0.000553246 -0.000517418 0)
(0.000548615 -0.000520513 0)
(0.000543971 -0.000523593 0)
(0.000539311 -0.000526659 0)
(0.000534634 -0.000529712 0)
(0.000529938 -0.000532751 0)
(0.000525218 -0.000535778 0)
(0.000520474 -0.000538793 0)
(0.000515702 -0.000541797 0)
(0.0005109 -0.000544792 0)
(0.000506065 -0.000547777 0)
(0.000501192 -0.000550756 0)
(0.000496277 -0.00055373 0)
(0.000491319 -0.0005567 0)
(0.000486317 -0.000559664 0)
(0.000481268 -0.000562625 0)
(0.000476167 -0.000565585 0)
(0.000471012 -0.000568546 0)
(0.000465799 -0.000571509 0)
(0.000460527 -0.000574475 0)
(0.00045519 -0.000577441 0)
(0.000449788 -0.000580413 0)
(0.000444319 -0.000583398 0)
(0.000438777 -0.000586394 0)
(0.000433159 -0.000589406 0)
(2.4801e-05 -0.000775152 -3.87985e-22)
(5.46375e-05 -0.000774335 -7.29409e-22)
(8.4441e-05 -0.000773046 2.36013e-21)
(0.000114226 -0.000771262 -2.14834e-22)
(0.000143958 -0.000768979 1.72066e-21)
(0.000173613 -0.000766205 1.14571e-21)
(0.000203174 -0.000762949 -2.15029e-21)
(0.000232623 -0.000759219 -1.37094e-21)
(0.000261942 -0.000755024 -6.76994e-22)
(0.000291115 -0.000750374 -2.45124e-21)
(0.000320125 -0.00074528 -9.87578e-22)
(0.000348955 -0.000739754 3.30801e-21)
(0.00037759 -0.000733808 -1.63338e-22)
(0.000406015 -0.000727456 1.55984e-22)
(0.000434215 -0.000720714 -6.12522e-22)
(0.000462175 -0.000713594 -3.1487e-22)
(0.000489881 -0.000706114 9.50637e-22)
(0.000517321 -0.000698288 -2.9205e-21)
(0.000544482 -0.000690133 -2.31e-21)
(0.000571351 -0.000681665 7.64268e-23)
(0.000597917 -0.0006729 8.61299e-23)
(0.000624169 -0.000663855 2.26868e-21)
(0.000650096 -0.000654545 -1.67679e-22)
(0.000675688 -0.000644988 -4.76344e-21)
(0.000700936 -0.000635198 -2.37384e-22)
(0.00072583 -0.000625192 2.41864e-21)
(0.000750362 -0.000614984 -2.46167e-21)
(0.000774524 -0.00060459 -3.71698e-22)
(0.000798308 -0.000594025 2.41424e-21)
(0.000821708 -0.000583301 -5.63526e-22)
(0.000844716 -0.000572433 -2.99291e-21)
(0.000867327 -0.000561433 9.76408e-25)
(0.000889534 -0.000550314 2.43036e-21)
(0.000911333 -0.000539088 -3.92855e-21)
(0.000932718 -0.000527765 8.7523e-22)
(0.000953684 -0.000516357 2.41878e-21)
(0.000974227 -0.000504873 -1.5045e-21)
(0.000994343 -0.000493323 4.14054e-21)
(0.00101403 -0.000481714 5.15729e-21)
(0.00105209 -0.000458355 -1.3104e-21)
(0.00107047 -0.000446618 -1.03511e-21)
(0.0010884 -0.000434852 -6.47751e-21)
(0.00110588 -0.000423062 -3.28985e-21)
(0.00112291 -0.000411253 5.36561e-21)
(0.00113949 -0.00039943 1.14692e-21)
(0.00115562 -0.000387598 3.11268e-21)
(0.00117129 -0.00037576 8.18229e-23)
(0.0011865 -0.000363919 -4.33611e-21)
(0.00120124 -0.00035208 4.97777e-21)
(0.00121553 -0.000340244 5.39442e-21)
(0.00122934 -0.000328414 -5.8521e-22)
(0.00124269 -0.000316593 -1.76376e-21)
(0.00125557 -0.000304781 -2.8374e-21)
(0.00126798 -0.000292981 -6.06277e-23)
(0.00127992 -0.000281194 6.39922e-23)
(0.00129138 -0.000269421 1.39886e-21)
(0.00130236 -0.000257662 7.86231e-21)
(0.00131287 -0.000245918 -3.92453e-21)
(0.0013229 -0.000234189 -5.13394e-21)
(0.00133245 -0.000222476 3.74395e-21)
(0.00134152 -0.000210778 2.33204e-21)
(0.0013501 -0.000199096 6.28191e-23)
(0.0013582 -0.000187428 2.12166e-21)
(0.00136582 -0.000175774 2.61703e-22)
(0.00137296 -0.000164134 -4.18479e-21)
(0.00137961 -0.000152506 -1.2583e-21)
(0.00138577 -0.000140891 2.72749e-21)
(0.00139144 -0.000129286 2.72634e-21)
(0.00139663 -0.000117691 -2.47833e-21)
(0.00140132 -0.000106105 -2.47838e-21)
(0.00140553 -9.45259e-05 -1.31383e-21)
(0.00140925 -8.29527e-05 5.76835e-22)
(0.00141247 -7.13838e-05 1.35537e-21)
(0.0014152 -5.98175e-05 -2.31922e-21)
(0.00141743 -4.82513e-05 -7.89581e-22)
(0.00141917 -3.66786e-05 1.89522e-22)
(0.0014204 -2.50833e-05 -2.36352e-22)
(0.00142104 -1.34682e-05 1.21284e-21)
(0.00102594 -0.000459628 0)
(0.0010159 -0.000451567 0)
(0.00100638 -0.000443959 0)
(0.000997363 -0.000436771 0)
(0.000988803 -0.000429974 0)
(0.000980677 -0.000423545 0)
(0.000972965 -0.00041746 0)
(0.000965643 -0.000411696 0)
(0.000958695 -0.000406235 0)
(0.000952102 -0.000401057 0)
(0.000945847 -0.000396146 0)
(0.000939915 -0.000391484 0)
(0.000934291 -0.000387057 0)
(0.00092896 -0.00038285 0)
(0.000923909 -0.000378851 0)
(0.000919126 -0.000375046 0)
(0.000914599 -0.000371425 0)
(0.000910315 -0.000367977 0)
(0.000906264 -0.000364691 0)
(0.000902436 -0.000361558 0)
(0.00089882 -0.000358568 0)
(0.000895408 -0.000355714 0)
(0.000892191 -0.000352987 0)
(0.000889159 -0.00035038 0)
(0.000886305 -0.000347887 0)
(0.000883621 -0.0003455 0)
(0.0008811 -0.000343213 0)
(0.000878734 -0.000341021 0)
(0.000876518 -0.000338919 0)
(0.000874445 -0.0003369 0)
(0.000872508 -0.000334961 0)
(0.000870703 -0.000333097 0)
(0.000869024 -0.000331305 0)
(0.000867466 -0.000329582 0)
(0.000866028 -0.000327925 0)
(0.000864706 -0.000326334 0)
(0.000863502 -0.000324808 0)
(0.000862413 -0.000323349 0)
(0.000861432 -0.000321954 0)
(0.00102594 -0.000459628 0)
(0.0010159 -0.000451567 0)
(0.00100638 -0.000443959 0)
(0.000997363 -0.000436771 0)
(0.000988803 -0.000429974 0)
(0.000980677 -0.000423545 0)
(0.000972965 -0.00041746 0)
(0.000965643 -0.000411696 0)
(0.000958695 -0.000406235 0)
(0.000952102 -0.000401057 0)
(0.000945847 -0.000396146 0)
(0.000939915 -0.000391484 0)
(0.000934291 -0.000387057 0)
(0.00092896 -0.00038285 0)
(0.000923909 -0.000378851 0)
(0.000919126 -0.000375046 0)
(0.000914599 -0.000371425 0)
(0.000910315 -0.000367977 0)
(0.000906264 -0.000364691 0)
(0.000902436 -0.000361558 0)
(0.00089882 -0.000358568 0)
(0.000895408 -0.000355714 0)
(0.000892191 -0.000352987 0)
(0.000889159 -0.00035038 0)
(0.000886305 -0.000347887 0)
(0.000883621 -0.0003455 0)
(0.0008811 -0.000343213 0)
(0.000878734 -0.000341021 0)
(0.000876518 -0.000338919 0)
(0.000874445 -0.0003369 0)
(0.000872508 -0.000334961 0)
(0.000870703 -0.000333097 0)
(0.000869024 -0.000331305 0)
(0.000867466 -0.000329582 0)
(0.000866028 -0.000327925 0)
(0.000864706 -0.000326334 0)
(0.000863502 -0.000324808 0)
(0.000862413 -0.000323349 0)
(0.000861432 -0.000321954 0)
(0.000834495 -0.00033852 0)
(0.000809827 -0.000355818 0)
(0.000785076 -0.000373709 0)
(0.000760246 -0.000391936 0)
(0.000735431 -0.000410496 0)
(0.000710663 -0.000429367 0)
(0.000685966 -0.000448518 0)
(0.000661363 -0.000467916 0)
(0.000636879 -0.000487526 0)
(0.000612536 -0.000507311 0)
(0.000588355 -0.000527231 0)
(0.000564357 -0.000547243 0)
(0.000540563 -0.000567302 0)
(0.000516989 -0.00058736 0)
(0.000493653 -0.000607368 0)
(0.00047057 -0.000627272 0)
(0.000447756 -0.00064702 0)
(0.000425221 -0.000666553 0)
(0.000402977 -0.000685815 0)
(0.000381033 -0.000704746 0)
(0.000359395 -0.000723284 0)
(0.00033807 -0.000741368 0)
(0.00031706 -0.000758936 0)
(0.000296365 -0.000775924 0)
(0.000275985 -0.000792271 0)
(0.000255916 -0.000807915 0)
(0.000236151 -0.000822793 0)
(0.000216682 -0.000836848 0)
(0.000197499 -0.00085002 0)
(0.000178587 -0.000862255 0)
(0.000159931 -0.0008735 0)
(0.000141514 -0.000883706 0)
(0.000123316 -0.000892828 0)
(0.000105313 -0.000900823 0)
(8.74836e-05 -0.000907656 0)
(6.98005e-05 -0.000913295 0)
(5.22385e-05 -0.000917713 0)
(3.47683e-05 -0.000920888 0)
(1.7338e-05 -0.000922817 0)
(0 -0.000921185 0)
(0 -0.00091893 0)
(0 -0.00091665 0)
(0 -0.000914349 0)
(0 -0.000912026 0)
(0 -0.000909682 0)
(0 -0.000907313 0)
(0 -0.000904918 0)
(0 -0.000902492 0)
(0 -0.000900034 0)
(0 -0.000897538 0)
(0 -0.000895001 0)
(0 -0.00089242 0)
(0 -0.000889789 0)
(0 -0.000887103 0)
(0 -0.000884358 0)
(0 -0.000881546 0)
(0 -0.000878663 0)
(0 -0.0008757 0)
(0 -0.000872651 0)
(0 -0.000869507 0)
(0 -0.00086626 0)
(0 -0.0008629 0)
(0 -0.000859416 0)
(0 -0.000855799 0)
(0 -0.000852035 0)
(0 -0.000848111 0)
(0 -0.000844013 0)
(0 -0.000839726 0)
(0 -0.000835232 0)
(0 -0.000830514 0)
(0 -0.000825551 0)
(0 -0.000820321 0)
(0 -0.000814801 0)
(0 -0.000808967 0)
(0 -0.000802791 0)
(0 -0.000796238 0)
(0 -0.00078927 0)
(0 -0.000781895 0)
(2.4801e-05 -0.000775152 -3.87985e-22)
(5.46375e-05 -0.000774335 -7.29409e-22)
(8.4441e-05 -0.000773046 2.36013e-21)
(0.000114226 -0.000771262 -2.14834e-22)
(0.000143958 -0.000768979 1.72066e-21)
(0.000173613 -0.000766205 1.14571e-21)
(0.000203174 -0.000762949 -2.15029e-21)
(0.000232623 -0.000759219 -1.37094e-21)
(0.000261942 -0.000755024 -6.76994e-22)
(0.000291115 -0.000750374 -2.45124e-21)
(0.000320125 -0.00074528 -9.87578e-22)
(0.000348955 -0.000739754 3.30801e-21)
(0.00037759 -0.000733808 -1.63338e-22)
(0.000406015 -0.000727456 1.55984e-22)
(0.000434215 -0.000720714 -6.12522e-22)
(0.000462175 -0.000713594 -3.1487e-22)
(0.000489881 -0.000706114 9.50637e-22)
(0.000517321 -0.000698288 -2.9205e-21)
(0.000544482 -0.000690133 -2.31e-21)
(0.000571351 -0.000681665 7.64268e-23)
(0.000597917 -0.0006729 8.61299e-23)
(0.000624169 -0.000663855 2.26868e-21)
(0.000650096 -0.000654545 -1.67679e-22)
(0.000675688 -0.000644988 -4.76344e-21)
(0.000700936 -0.000635198 -2.37384e-22)
(0.00072583 -0.000625192 2.41864e-21)
(0.000750362 -0.000614984 -2.46167e-21)
(0.000774524 -0.00060459 -3.71698e-22)
(0.000798308 -0.000594025 2.41424e-21)
(0.000821708 -0.000583301 -5.63526e-22)
(0.000844716 -0.000572433 -2.99291e-21)
(0.000867327 -0.000561433 9.76408e-25)
(0.000889534 -0.000550314 2.43036e-21)
(0.000911333 -0.000539088 -3.92855e-21)
(0.000932718 -0.000527765 8.7523e-22)
(0.000953684 -0.000516357 2.41878e-21)
(0.000974227 -0.000504873 -1.5045e-21)
(0.000994343 -0.000493323 4.14054e-21)
(0.00101403 -0.000481714 5.15729e-21)
(0.00105209 -0.000458355 -1.3104e-21)