/*--------------------------------*- C++ -*----------------------------------*\
| =========                 |                                                 |
| \\      /  F ield         | OpenFOAM: The Open Source CFD Toolbox           |
|  \\    /   O peration     | Version:  v2012                                 |
|   \\  /    A nd           | Website:  www.openfoam.com                      |
|    \\/     M anipulation  |                                                 |
\*---------------------------------------------------------------------------*/
FoamFile
{
    version     2.0;
    format      ascii;
    class       volSymmTensorField;
    location    "6";
    object      sigma;
}
// * * * * * * * * * * * * * * * * * * * * * * * * * * * * * * * * * * * * * //

dimensions      [1 -1 -2 0 0 0 0];


internalField   nonuniform List<symmTensor> 
16000
(
(2.79488e+08 -2.72413e+06 2.90979e-09 2.24878e+06 5.63219e-08 1.03713e+08)
(2.81477e+08 -2.69828e+06 6.37996e-08 4.76987e+06 5.51749e-08 1.03098e+08)
(2.84853e+08 -2.69309e+06 -2.10716e-09 8.88225e+06 -5.23542e-08 1.03196e+08)
(2.86767e+08 -2.65634e+06 1.20528e-07 1.1521e+07 -9.90165e-08 1.02158e+08)
(2.89559e+08 -2.63061e+06 -6.29569e-08 1.52463e+07 -9.01658e-10 1.01486e+08)
(2.91291e+08 -2.6078e+06 4.72955e-16 1.79309e+07 2.42788e-14 9.99804e+07)
(2.93952e+08 -2.57195e+06 -6.96094e-08 2.18402e+07 -8.65323e-08 9.8773e+07)
(2.94795e+08 -2.4601e+06 6.27451e-09 2.37997e+07 8.06112e-08 9.64333e+07)
(2.86848e+08 -2.09536e+06 -5.85927e-08 2.70621e+07 3.58276e-08 9.4173e+07)
(2.76666e+08 -1.63124e+06 -1.19509e-07 2.88873e+07 -3.76198e-08 9.16659e+07)
(2.67608e+08 -1.26979e+06 -5.33961e-08 3.06525e+07 3.1241e-08 8.94781e+07)
(2.59172e+08 -998707 5.31357e-08 3.17681e+07 1.37787e-09 8.72822e+07)
(2.51537e+08 -760674 -8.34662e-16 3.2842e+07 -6.14129e-15 8.53137e+07)
(2.4437e+08 -568140 3.34436e-09 3.3465e+07 5.53469e-08 8.33505e+07)
(2.37791e+08 -399236 1.38753e-07 3.40655e+07 -2.23827e-08 8.1557e+07)
(2.31582e+08 -255478 -2.79464e-09 3.43453e+07 -5.0403e-08 7.97782e+07)
(2.25822e+08 -128309 1.28429e-09 3.46039e+07 2.41418e-08 7.81279e+07)
(2.20364e+08 -17346.5 -1.94761e-16 3.46333e+07 4.16497e-15 7.64991e+07)
(2.15257e+08 82105.8 -5.92756e-16 3.46384e+07 -3.91271e-15 7.49688e+07)
(2.10402e+08 170031 -7.68275e-08 3.44786e+07 1.9191e-08 7.34642e+07)
(2.05828e+08 249830 -9.43012e-10 3.4292e+07 -2.09332e-08 7.20361e+07)
(2.01467e+08 320938 -3.82082e-08 3.39858e+07 -4.18292e-08 7.06358e+07)
(1.97334e+08 386022 -3.53255e-08 3.36523e+07 -1.15943e-09 6.92959e+07)
(1.93383e+08 444459 -3.34974e-08 3.3231e+07 1.81311e-08 6.79843e+07)
(1.89619e+08 497901 7.16713e-10 3.27839e+07 1.88199e-08 6.67209e+07)
(1.86014e+08 546583 3.16348e-08 3.22712e+07 -1.73096e-08 6.54854e+07)
(1.8256e+08 590326 -6.28084e-08 3.17362e+07 -2.18739e-09 6.4289e+07)
(1.79247e+08 631412 3.17384e-08 3.11503e+07 3.65339e-08 6.31192e+07)
(1.76058e+08 666962 5.88999e-08 3.05474e+07 -1.53018e-08 6.19817e+07)
(1.72993e+08 701986 -5.84431e-08 2.99028e+07 -1.92726e-08 6.08688e+07)
(1.70031e+08 731260 0 2.92471e+07 0 5.97835e+07)
(1.67176e+08 760984 -4.79596e-10 2.85563e+07 -1.67254e-08 5.87198e+07)
(1.64413e+08 786726 -2.68275e-08 2.78582e+07 -1.01301e-09 5.76812e+07)
(1.61733e+08 811083 -2.57412e-08 2.71329e+07 1.53708e-08 5.66598e+07)
(1.5914e+08 833422 -2.5555e-08 2.6403e+07 -9.90396e-10 5.56628e+07)
(1.56608e+08 853463 -5.03118e-08 2.56521e+07 -1.80529e-08 5.46779e+07)
(1.5416e+08 871768 -4.87589e-08 2.48991e+07 -1.93889e-09 5.37176e+07)
(1.5175e+08 888739 1.12623e-09 2.41306e+07 4.76288e-08 5.27643e+07)
(1.49427e+08 902438 2.2921e-08 2.33608e+07 -1.48385e-08 5.18363e+07)
(1.47117e+08 917469 -2.3833e-08 2.25829e+07 -4.8059e-08 5.09099e+07)
(2.79228e+08 -8.16926e+06 -5.74782e-08 2.45586e+06 2.85214e-08 1.03469e+08)
(2.81226e+08 -8.08183e+06 1.9174e-07 4.98643e+06 5.69102e-08 1.02834e+08)
(2.84591e+08 -8.05294e+06 4.98701e-08 9.08892e+06 -1.02664e-07 1.02924e+08)
(2.86467e+08 -7.95435e+06 -6.99052e-09 1.16752e+07 -5.12283e-08 1.01889e+08)
(2.89258e+08 -7.87281e+06 -4.81432e-08 1.53991e+07 9.34818e-08 1.01202e+08)
(2.90955e+08 -7.85283e+06 2.66052e-15 1.80575e+07 1.2069e-14 9.96486e+07)
(2.93665e+08 -7.75762e+06 -1.77759e-08 2.20532e+07 -8.40011e-08 9.83701e+07)
(2.94254e+08 -7.2994e+06 -4.55818e-08 2.37224e+07 7.61141e-08 9.5752e+07)
(2.85416e+08 -6.10498e+06 1.49059e-07 2.71509e+07 1.18351e-07 9.37701e+07)
(2.75507e+08 -4.83286e+06 -1.24236e-07 2.85625e+07 -4.1355e-08 9.1221e+07)
(2.66751e+08 -3.8112e+06 -1.34651e-08 3.04051e+07 -6.45127e-08 8.91468e+07)
(2.58486e+08 -3.00377e+06 1.0015e-07 3.14177e+07 -2.34681e-08 8.69712e+07)
(2.50992e+08 -2.30488e+06 -4.53631e-08 3.25032e+07 2.52498e-08 8.50486e+07)
(2.43926e+08 -1.72657e+06 4.3756e-08 3.31035e+07 -2.38761e-08 8.31087e+07)
(2.37428e+08 -1.22321e+06 1.82547e-07 3.37074e+07 -1.24513e-08 8.13405e+07)
(2.31282e+08 -790969 4.18359e-09 3.39863e+07 2.51299e-08 7.95805e+07)
(2.25574e+08 -410961 3.84798e-09 3.42501e+07 2.40766e-08 7.79472e+07)
(2.20158e+08 -77122.5 8.35909e-08 3.42855e+07 7.03165e-09 7.6333e+07)
(2.15087e+08 219744 4.69146e-08 3.42977e+07 4.80893e-08 7.48153e+07)
(2.10262e+08 484419 8.10832e-08 3.41464e+07 2.88335e-08 7.33224e+07)
(2.05713e+08 722361 -5.66203e-09 3.3968e+07 -4.17589e-08 7.19042e+07)
(2.01374e+08 936257 -2.61102e-09 3.36709e+07 -2.0073e-08 7.05136e+07)
(1.9726e+08 1.13091e+06 -3.53662e-08 3.33458e+07 -3.08107e-09 6.91817e+07)
(1.93328e+08 1.30587e+06 3.4349e-08 3.29335e+07 3.41392e-09 6.78783e+07)
(1.89577e+08 1.46794e+06 -2.15335e-09 3.24947e+07 -1.87664e-08 6.66216e+07)
(1.85987e+08 1.61199e+06 3.4372e-08 3.19901e+07 2.1333e-08 6.53933e+07)
(1.82545e+08 1.74901e+06 -6.28942e-08 3.14634e+07 -5.86501e-09 6.42026e+07)
(1.79245e+08 1.86841e+06 -3.59622e-09 3.08847e+07 -3.55096e-08 6.30388e+07)
(1.76066e+08 1.98507e+06 3.31308e-08 3.02899e+07 3.7453e-08 6.19067e+07)
(1.73009e+08 2.08633e+06 1.62404e-09 2.96524e+07 1.74263e-08 6.07984e+07)
(1.70057e+08 2.18382e+06 -5.95593e-08 2.90046e+07 -3.9652e-08 5.97186e+07)
(1.67204e+08 2.27402e+06 0 2.83221e+07 0 5.86579e+07)
(1.64453e+08 2.35033e+06 -2.55049e-08 2.76315e+07 1.37369e-08 5.76252e+07)
(1.61774e+08 2.42787e+06 2.75421e-08 2.69132e+07 1.93054e-08 5.66063e+07)
(1.59192e+08 2.48853e+06 -2.43469e-08 2.61915e+07 1.34782e-08 5.5615e+07)
(1.56663e+08 2.55384e+06 -2.49856e-08 2.5446e+07 -2.51536e-09 5.46326e+07)
(1.54224e+08 2.6018e+06 -2.67329e-08 2.47019e+07 -3.43125e-08 5.36777e+07)
(1.51819e+08 2.65711e+06 -2.38721e-08 2.39377e+07 -2.73664e-09 5.2727e+07)
(1.49503e+08 2.69268e+06 7.0004e-08 2.31774e+07 7.99575e-09 5.18042e+07)
(1.47198e+08 2.74123e+06 -4.20834e-08 2.24031e+07 2.10467e-08 5.08804e+07)
(2.78741e+08 -1.361e+07 -7.66228e-08 2.89669e+06 -5.4e-08 1.03059e+08)
(2.80721e+08 -1.34655e+07 5.2556e-08 5.41104e+06 -5.34647e-08 1.02344e+08)
(2.84089e+08 -1.33773e+07 2.08349e-08 9.52878e+06 1.02276e-07 1.02371e+08)
(2.85938e+08 -1.32041e+07 -6.27358e-08 1.20829e+07 -1.69894e-09 1.01276e+08)
(2.88721e+08 -1.31016e+07 -3.27635e-15 1.58079e+07 -1.31237e-14 1.00562e+08)
(2.90446e+08 -1.31436e+07 4.98608e-08 1.85272e+07 -4.00753e-08 9.90246e+07)
(2.93009e+08 -1.29695e+07 4.88591e-08 2.23684e+07 -3.66809e-08 9.76074e+07)
(2.9232e+08 -1.18554e+07 -1.28632e-07 2.39401e+07 -1.12936e-08 9.4878e+07)
(2.82942e+08 -9.69824e+06 1.49686e-07 2.71398e+07 8.30308e-08 9.30247e+07)
(2.73483e+08 -7.81275e+06 1.28899e-07 2.82137e+07 4.62778e-08 9.05091e+07)
(2.65133e+08 -6.25818e+06 -1.44543e-07 2.99777e+07 -1.08652e-07 8.85332e+07)
(2.57169e+08 -4.95937e+06 -4.32722e-08 3.08575e+07 2.39242e-08 8.6408e+07)
(2.49919e+08 -3.84886e+06 -4.17432e-08 3.18987e+07 2.29827e-08 8.45452e+07)
(2.43043e+08 -2.90566e+06 -2.48511e-08 3.24529e+07 -8.24041e-08 8.26487e+07)
(2.367e+08 -2.0853e+06 -4.69801e-08 3.30415e+07 -6.22577e-09 8.09223e+07)
(2.30678e+08 -1.37419e+06 1.38616e-08 3.33101e+07 4.9949e-08 7.91965e+07)
(2.25073e+08 -746466 -4.98391e-08 3.35757e+07 -2.97449e-08 7.75946e+07)
(2.19741e+08 -193623 3.58954e-08 3.36162e+07 -1.77733e-08 7.6007e+07)
(2.14741e+08 301027 -4.05187e-08 3.36389e+07 -5.88147e-09 7.45141e+07)
(2.09975e+08 741430 1.27243e-07 3.34992e+07 5.87839e-08 7.30421e+07)
(2.05479e+08 1.14042e+06 4.70533e-09 3.33349e+07 2.07691e-08 7.16442e+07)
(2.01182e+08 1.49766e+06 3.22103e-08 3.30525e+07 -1.49325e-08 7.02704e+07)
(1.97109e+08 1.82533e+06 6.69299e-08 3.27422e+07 -8.89102e-09 6.89553e+07)
(1.93206e+08 2.11876e+06 3.43708e-08 3.23465e+07 4.91756e-09 6.76659e+07)
(1.89489e+08 2.39128e+06 3.58146e-09 3.19217e+07 1.86593e-08 6.64233e+07)
(1.85921e+08 2.63441e+06 -2.91217e-08 3.14357e+07 1.31042e-08 6.52071e+07)
(1.82504e+08 2.86219e+06 3.15943e-09 3.09219e+07 1.78867e-08 6.40279e+07)
(1.79224e+08 3.06558e+06 -3.36672e-08 3.03627e+07 -2.24185e-08 6.28759e+07)
(1.76059e+08 3.25452e+06 -9.24802e-08 2.9782e+07 -3.19883e-08 6.17522e+07)
(1.73028e+08 3.4279e+06 9.26248e-08 2.91617e+07 4.83903e-08 6.06568e+07)
(1.70076e+08 3.58194e+06 4.56719e-11 2.8532e+07 3.03159e-10 5.95823e+07)
(1.67262e+08 3.73356e+06 5.05529e-08 2.78594e+07 -2.35045e-08 5.85364e+07)
(1.64514e+08 3.86587e+06 5.16892e-08 2.71823e+07 -6.87239e-09 5.75089e+07)
(1.61865e+08 3.99061e+06 2.13401e-09 2.64787e+07 1.58974e-08 5.6503e+07)
(1.5929e+08 4.10153e+06 4.16698e-09 2.57679e+07 3.20613e-08 5.55175e+07)
(1.5678e+08 4.20515e+06 2.30906e-08 2.50394e+07 -1.14454e-08 5.4546e+07)
(1.54352e+08 4.29389e+06 2.45135e-08 2.43062e+07 4.40726e-09 5.35974e+07)
(1.51961e+08 4.3823e+06 2.21207e-08 2.35585e+07 -1.10395e-08 5.2656e+07)
(1.49656e+08 4.44797e+06 2.34046e-08 2.28103e+07 4.19123e-09 5.17399e+07)
(1.47363e+08 4.52657e+06 1.1221e-08 2.20504e+07 7.29816e-08 5.0824e+07)
(2.7803e+08 -1.90142e+07 -1.06262e-08 3.57099e+06 -2.71552e-08 1.02479e+08)
(2.7994e+08 -1.8802e+07 -1.25159e-07 6.00258e+06 -4.06157e-09 1.01651e+08)
(2.8329e+08 -1.8684e+07 1.81613e-10 1.01231e+07 6.12928e-10 1.01577e+08)
(2.85103e+08 -1.84174e+07 -7.99651e-08 1.26459e+07 -5.30499e-08 1.00328e+08)
(2.87935e+08 -1.82569e+07 -6.40339e-08 1.64589e+07 -5.07508e-09 9.95208e+07)
(2.89752e+08 -1.83237e+07 -2.01976e-08 1.93671e+07 -4.35151e-08 9.7897e+07)
(2.9175e+08 -1.80051e+07 2.19585e-08 2.25224e+07 4.01499e-08 9.61938e+07)
(2.88406e+08 -1.60015e+07 -4.24737e-08 2.43422e+07 3.00161e-08 9.38243e+07)
(2.79528e+08 -1.302e+07 -7.94825e-08 2.67154e+07 -4.31364e-08 9.1873e+07)
(2.70763e+08 -1.05893e+07 1.66319e-07 2.77569e+07 1.16157e-07 8.95561e+07)
(2.62876e+08 -8.58071e+06 7.11985e-08 2.92657e+07 4.08903e-08 8.76427e+07)
(2.55321e+08 -6.85488e+06 -1.33462e-07 3.00628e+07 -7.58523e-08 8.5615e+07)
(2.48383e+08 -5.38284e+06 5.09569e-08 3.10163e+07 8.30647e-09 8.38199e+07)
(2.41767e+08 -4.10957e+06 3.76317e-08 3.15299e+07 -1.85228e-08 8.19891e+07)
(2.35632e+08 -2.9985e+06 -1.51293e-07 3.20912e+07 -4.97541e-08 8.0317e+07)
(2.29784e+08 -2.02428e+06 -3.56361e-08 3.23515e+07 1.66562e-08 7.86406e+07)
(2.24321e+08 -1.16188e+06 -8.71227e-08 3.26162e+07 -1.57174e-08 7.70811e+07)
(2.19109e+08 -395240 -8.40518e-08 3.2666e+07 -1.55358e-08 7.55326e+07)
(2.1421e+08 290184 -4.04726e-08 3.27e+07 -7.33867e-09 7.40731e+07)
(2.09532e+08 906823 7.09452e-11 3.25787e+07 2.13753e-10 7.26331e+07)
(2.05109e+08 1.46192e+06 3.80035e-08 3.24313e+07 7.58714e-09 7.1262e+07)
(2.0088e+08 1.96599e+06 1.84369e-08 3.21715e+07 -5.2476e-08 6.99154e+07)
(1.96861e+08 2.42231e+06 7.12447e-08 3.18803e+07 1.44075e-08 6.86223e+07)
(1.93014e+08 2.83833e+06 -5.84741e-08 3.15085e+07 2.34619e-08 6.73568e+07)
(1.89338e+08 3.21856e+06 -2.8593e-08 3.11036e+07 1.12793e-08 6.61325e+07)
(1.85819e+08 3.56217e+06 -6.05465e-08 3.06402e+07 4.01741e-09 6.49379e+07)
(1.82435e+08 3.88415e+06 0 3.01462e+07 0 6.37744e+07)
(1.79199e+08 4.16559e+06 3.50547e-08 2.96068e+07 2.43302e-08 6.26417e+07)
(1.76062e+08 4.44382e+06 2.22759e-08 2.90453e+07 -2.69873e-08 6.15323e+07)
(1.73064e+08 4.67594e+06 -3.67629e-08 2.84423e+07 -4.05746e-08 6.04518e+07)
(1.70144e+08 4.91638e+06 8.20117e-08 2.78314e+07 3.24575e-09 5.93927e+07)
(1.67319e+08 5.14139e+06 -6.7077e-09 2.71837e+07 -3.30026e-08 5.83508e+07)
(1.64619e+08 5.31382e+06 -1.76556e-08 2.6528e+07 4.16388e-08 5.73441e+07)
(1.61968e+08 5.50146e+06 9.11735e-09 2.58391e+07 4.82485e-08 5.6342e+07)
(1.5943e+08 5.6444e+06 5.17103e-08 2.5156e+07 1.28399e-08 5.53758e+07)
(1.5693e+08 5.79836e+06 -2.78378e-09 2.4437e+07 -1.56974e-08 5.44102e+07)
(1.54528e+08 5.91641e+06 -5.39518e-09 2.37334e+07 -3.11437e-08 5.34784e+07)
(1.52154e+08 6.04544e+06 -4.42588e-11 2.29941e+07 -2.63228e-10 5.25445e+07)
(1.4987e+08 6.13595e+06 2.56498e-09 2.22752e+07 1.54941e-08 5.16435e+07)
(1.47594e+08 6.24892e+06 2.30315e-08 2.15237e+07 5.98441e-09 5.07354e+07)
(2.77044e+08 -2.43804e+07 6.25328e-08 4.43163e+06 -1.65778e-09 1.01652e+08)
(2.78928e+08 -2.4088e+07 -8.09643e-08 6.81527e+06 -5.45599e-08 1.00747e+08)
(2.82243e+08 -2.39286e+07 1.47006e-07 1.09135e+07 5.76078e-08 1.00574e+08)
(2.83983e+08 -2.36653e+07 2.21534e-08 1.33736e+07 4.81947e-08 9.92126e+07)
(2.86845e+08 -2.35667e+07 -8.84016e-08 1.73129e+07 -5.05342e-08 9.82528e+07)
(2.88848e+08 -2.33897e+07 1.28088e-08 2.04678e+07 -7.33686e-08 9.64623e+07)
(2.90103e+08 -2.24136e+07 -1.31731e-07 2.25318e+07 -1.9591e-08 9.43015e+07)
(2.83534e+08 -1.93811e+07 2.16434e-07 2.46025e+07 6.70367e-08 9.24408e+07)
(2.7531e+08 -1.59935e+07 -8.37838e-08 2.60305e+07 -4.46839e-08 9.04022e+07)
(2.67383e+08 -1.31744e+07 3.70436e-08 2.70974e+07 -2.20464e-08 8.83442e+07)
(2.60049e+08 -1.0799e+07 2.95475e-07 2.83282e+07 8.19344e-08 8.65131e+07)
(2.52973e+08 -8.72902e+06 7.04062e-08 2.90563e+07 3.98029e-08 8.46089e+07)
(2.46411e+08 -6.94068e+06 -8.26891e-08 2.99156e+07 -6.64816e-08 8.28981e+07)
(2.40108e+08 -5.37414e+06 1.41234e-08 3.0387e+07 2.60586e-08 8.11484e+07)
(2.34229e+08 -3.9942e+06 -2.04877e-08 3.09178e+07 4.08661e-08 7.95441e+07)
(2.28596e+08 -2.77408e+06 -7.84823e-08 3.11642e+07 4.30734e-09 7.7928e+07)
(2.23313e+08 -1.68533e+06 8.76978e-08 3.14276e+07 2.03661e-08 7.64223e+07)
(2.18255e+08 -713435 -2.08224e-08 3.14805e+07 -4.48532e-08 7.49205e+07)
(2.13488e+08 162571 6.21423e-08 3.15286e+07 -2.40139e-08 7.3505e+07)
(2.08921e+08 950465 -1.18538e-07 3.14188e+07 -2.93544e-08 7.21019e+07)
(2.046e+08 1.66714e+06 1.14561e-07 3.12936e+07 2.85869e-08 7.0768e+07)
(2.00453e+08 2.31421e+06 2.12602e-08 3.10493e+07 -3.02056e-08 6.94507e+07)
(1.96517e+08 2.9091e+06 -1.28924e-07 3.07838e+07 9.3278e-10 6.81901e+07)
(1.92729e+08 3.44474e+06 2.06295e-08 3.04302e+07 5.62893e-08 6.69479e+07)
(1.89126e+08 3.94518e+06 -2.73367e-08 3.00497e+07 9.28777e-09 6.57526e+07)
(1.85646e+08 4.38955e+06 6.57724e-08 2.96096e+07 1.82265e-08 6.45768e+07)
(1.82327e+08 4.81518e+06 5.25758e-08 2.91339e+07 -1.71102e-08 6.34383e+07)
(1.79114e+08 5.18308e+06 -1.07312e-08 2.86278e+07 -3.44489e-08 6.23227e+07)
(1.76023e+08 5.54363e+06 9.56843e-08 2.80771e+07 4.25465e-08 6.123e+07)
(1.73057e+08 5.85137e+06 -2.9391e-08 2.75182e+07 -8.3151e-09 6.01727e+07)
(1.70091e+08 6.13245e+06 -4.59335e-09 2.69359e+07 -1.64522e-08 5.9108e+07)
(1.67413e+08 6.41745e+06 -1.93661e-08 2.63066e+07 2.40744e-08 5.81159e+07)
(1.64721e+08 6.67503e+06 -1.13292e-07 2.56601e+07 -4.88623e-08 5.71144e+07)
(1.62124e+08 6.89461e+06 -7.85137e-09 2.50148e+07 -3.17417e-08 5.61417e+07)
(1.59609e+08 7.10812e+06 7.38322e-09 2.43437e+07 3.0879e-08 5.51859e+07)
(1.57138e+08 7.29324e+06 3.57567e-09 2.36641e+07 1.54302e-08 5.42406e+07)
(1.54761e+08 7.46175e+06 2.48618e-08 2.29785e+07 8.00384e-09 5.33219e+07)
(1.5241e+08 7.62312e+06 -2.75735e-08 2.22705e+07 -2.28544e-08 5.24041e+07)
(1.5015e+08 7.74806e+06 2.04833e-08 2.15747e+07 -7.35949e-09 5.15173e+07)
(1.47895e+08 7.89313e+06 3.15083e-09 2.08476e+07 1.49904e-08 5.06228e+07)
(2.75814e+08 -2.97073e+07 8.07078e-08 5.52584e+06 2.33091e-08 1.00548e+08)
(2.77634e+08 -2.93266e+07 1.04943e-07 7.82585e+06 -4.16939e-08 9.94689e+07)
(2.80928e+08 -2.90862e+07 -8.97933e-08 1.19107e+07 -5.41694e-08 9.91617e+07)
(2.82695e+08 -2.88519e+07 1.19239e-07 1.44575e+07 9.67366e-08 9.77009e+07)
(2.85559e+08 -2.88773e+07 3.50929e-08 1.85415e+07 -3.28323e-08 9.66098e+07)
(2.87036e+08 -2.83283e+07 -7.80612e-10 2.09401e+07 -9.15405e-10 9.45213e+07)
(2.85621e+08 -2.60416e+07 -1.63911e-07 2.2968e+07 -5.99395e-08 9.25768e+07)
(2.78254e+08 -2.21563e+07 -1.27014e-07 2.43332e+07 -2.5708e-08 9.07762e+07)
(2.70835e+08 -1.85833e+07 8.77006e-08 2.54159e+07 4.5924e-08 8.88753e+07)
(2.63618e+08 -1.55439e+07 -7.41092e-08 2.63065e+07 -9.49448e-08 8.69772e+07)
(2.56847e+08 -1.28809e+07 -8.86387e-08 2.73257e+07 4.6016e-09 8.52518e+07)
(2.50252e+08 -1.05483e+07 1.35027e-07 2.79507e+07 1.26556e-07 8.34609e+07)
(2.44085e+08 -8.49275e+06 1.92257e-08 2.87052e+07 2.78367e-08 8.18369e+07)
(2.38118e+08 -6.67414e+06 -6.60911e-08 2.91216e+07 -3.78805e-08 8.01718e+07)
(2.32521e+08 -5.05448e+06 1.10606e-07 2.96053e+07 4.94747e-08 7.86378e+07)
(2.27129e+08 -3.60892e+06 -2.93384e-08 2.98308e+07 -4.76324e-08 7.7088e+07)
(2.22052e+08 -2.31058e+06 6.0264e-08 3.00783e+07 -2.26167e-08 7.56391e+07)
(2.17172e+08 -1.14144e+06 8.48398e-08 3.01325e+07 2.3607e-08 7.41914e+07)
(2.12558e+08 -85579 -4.69324e-08 3.0182e+07 4.02922e-08 7.28221e+07)
(2.08127e+08 874362 -5.02363e-08 3.00881e+07 -3.14842e-08 7.14646e+07)
(2.03922e+08 1.74258e+06 -4.10546e-08 2.99735e+07 -8.04007e-08 7.01686e+07)
(1.99883e+08 2.54133e+06 3.81327e-08 2.97554e+07 7.76484e-08 6.88914e+07)
(1.96035e+08 3.26036e+06 -6.30166e-08 2.95052e+07 -2.91337e-09 6.76619e+07)
(1.92337e+08 3.93273e+06 2.66468e-08 2.91862e+07 -7.42157e-09 6.64569e+07)
(1.888e+08 4.53006e+06 -7.82523e-09 2.88231e+07 -1.7933e-08 6.52869e+07)
(1.85403e+08 5.09963e+06 1.81924e-08 2.8425e+07 -2.46598e-08 6.41485e+07)
(1.82133e+08 5.59737e+06 1.10273e-07 2.79663e+07 6.62509e-08 6.30298e+07)
(1.79012e+08 6.07079e+06 -3.12705e-08 2.75088e+07 -1.04857e-08 6.19563e+07)
(1.75959e+08 6.49683e+06 -6.71514e-08 2.69679e+07 -3.75466e-08 6.08782e+07)
(1.73121e+08 6.83935e+06 5.84231e-09 2.64624e+07 1.61001e-08 5.98752e+07)
(1.70211e+08 7.25805e+06 -6.33846e-08 2.58571e+07 -3.64224e-08 5.88204e+07)
(1.67389e+08 7.65509e+06 -1.80226e-08 2.52153e+07 2.12814e-08 5.77812e+07)
(1.64835e+08 7.90241e+06 3.75413e-08 2.4659e+07 4.13635e-08 5.68482e+07)
(1.6224e+08 8.18652e+06 -5.84321e-08 2.39891e+07 -3.50397e-08 5.58687e+07)
(1.59781e+08 8.43955e+06 -5.24692e-08 2.33924e+07 -1.94503e-08 5.4952e+07)
(1.57346e+08 8.67092e+06 1.69762e-08 2.27055e+07 -2.04483e-08 5.40155e+07)
(1.55002e+08 8.88466e+06 -4.23751e-09 2.20759e+07 -1.50842e-08 5.31235e+07)
(1.52693e+08 9.08369e+06 -3.44665e-11 2.13752e+07 -1.26345e-10 5.22204e+07)
(1.50459e+08 9.2471e+06 -2.39837e-08 2.07246e+07 -9.48252e-09 5.13552e+07)
(1.48242e+08 9.42489e+06 1.22306e-08 2.00122e+07 3.53995e-08 5.04761e+07)
(2.74337e+08 -3.49533e+07 4.1049e-08 6.82476e+06 -2.61183e-08 9.92098e+07)
(2.76051e+08 -3.4463e+07 1.56787e-07 8.9759e+06 5.92205e-08 9.7914e+07)
(2.79333e+08 -3.4259e+07 -3.01989e-09 1.3128e+07 8.47953e-08 9.74536e+07)
(2.81125e+08 -3.40826e+07 -1.65899e-07 1.58201e+07 -6.14205e-08 9.58022e+07)
(2.8407e+08 -3.38498e+07 6.66098e-08 1.99717e+07 1.12262e-08 9.457e+07)
(2.84765e+08 -3.25118e+07 4.03166e-08 2.09639e+07 3.78619e-08 9.21619e+07)
(2.79606e+08 -2.8828e+07 2.04436e-07 2.32559e+07 9.76043e-08 9.08586e+07)
(2.72679e+08 -2.46746e+07 -3.15446e-07 2.35365e+07 -1.21617e-07 8.88648e+07)
(2.6612e+08 -2.09915e+07 -3.24202e-08 2.47352e+07 -8.19613e-08 8.72567e+07)
(2.59514e+08 -1.77845e+07 5.62694e-08 2.5302e+07 6.12622e-08 8.54448e+07)
(2.5331e+08 -1.49044e+07 8.50133e-10 2.62276e+07 9.61761e-10 8.38612e+07)
(2.47186e+08 -1.23575e+07 -7.67861e-08 2.67232e+07 -4.21237e-08 8.21727e+07)
(2.41426e+08 -1.00744e+07 1.01919e-07 2.74004e+07 2.80521e-08 8.0648e+07)
(2.35809e+08 -8.03531e+06 2.90399e-08 2.77537e+07 -1.14341e-08 7.90689e+07)
(2.30514e+08 -6.19886e+06 1.13131e-07 2.81959e+07 5.20845e-08 7.76129e+07)
(2.25385e+08 -4.54731e+06 1.08607e-07 2.83908e+07 5.11854e-08 7.61328e+07)
(2.20536e+08 -3.05163e+06 -3.1687e-08 2.86245e+07 -4.46923e-08 7.4748e+07)
(2.15856e+08 -1.69836e+06 7.21781e-08 2.86661e+07 5.68648e-08 7.33568e+07)
(2.11418e+08 -467102 -6.84374e-08 2.87226e+07 -5.74909e-09 7.2042e+07)
(2.07144e+08 653180 9.38936e-08 2.86242e+07 -5.34265e-10 7.07304e+07)
(2.03075e+08 1.67591e+06 -1.17414e-08 2.85347e+07 -1.91725e-08 6.94829e+07)
(1.99161e+08 2.61123e+06 -2.20989e-15 2.83117e+07 -3.17556e-15 6.82419e+07)
(1.95423e+08 3.46707e+06 8.30966e-08 2.8106e+07 4.42182e-08 6.70588e+07)
(1.91827e+08 4.25297e+06 9.81197e-09 2.7772e+07 1.7981e-08 6.58798e+07)
(1.88385e+08 4.97428e+06 -2.5144e-08 2.7478e+07 4.74819e-09 6.4759e+07)
(1.85064e+08 5.63654e+06 -9.25405e-08 2.70438e+07 -7.63754e-08 6.36324e+07)
(1.819e+08 6.25182e+06 -7.61465e-11 2.66843e+07 -1.57343e-10 6.25753e+07)
(1.78803e+08 6.80606e+06 5.45918e-08 2.61603e+07 6.16991e-08 6.1489e+07)
(1.75936e+08 7.3499e+06 1.32114e-10 2.57417e+07 2.97425e-10 6.05032e+07)
(1.72979e+08 7.79388e+06 6.24506e-11 2.51511e+07 1.44942e-10 5.9439e+07)
(1.69896e+08 8.40846e+06 -3.53962e-08 2.46164e+07 -1.68606e-08 5.83537e+07)
(1.6753e+08 8.63511e+06 -3.45597e-08 2.40494e+07 -2.69721e-08 5.7474e+07)
(1.65031e+08 9.03399e+06 2.77386e-08 2.35452e+07 1.14454e-08 5.65729e+07)
(1.62413e+08 9.35106e+06 -2.1601e-08 2.28768e+07 3.39512e-09 5.55869e+07)
(1.59994e+08 9.66134e+06 2.12259e-08 2.23367e+07 -3.33167e-09 5.46993e+07)
(1.57583e+08 9.94925e+06 -5.15413e-09 2.16448e+07 -1.48123e-08 5.37685e+07)
(1.55276e+08 1.01943e+07 -2.03785e-08 2.1068e+07 3.38549e-09 5.29033e+07)
(1.53003e+08 1.04459e+07 4.0412e-11 2.03685e+07 1.22743e-10 5.20115e+07)
(1.50806e+08 1.06328e+07 -7.73078e-08 1.97673e+07 -4.73515e-08 5.1172e+07)
(1.48624e+08 1.08549e+07 -9.90188e-09 1.9062e+07 -2.06557e-08 5.03059e+07)
(2.7258e+08 -4.01123e+07 -6.44438e-08 8.28138e+06 1.48977e-09 9.76311e+07)
(2.74274e+08 -3.95365e+07 -9.78038e-08 1.0377e+07 3.10282e-08 9.6193e+07)
(2.77576e+08 -3.94367e+07 1.78349e-07 1.47021e+07 1.38572e-07 9.55788e+07)
(2.7942e+08 -3.92732e+07 4.94931e-10 1.75503e+07 4.77849e-10 9.38049e+07)
(2.81688e+08 -3.849e+07 -2.01945e-07 2.06018e+07 -1.24393e-07 9.21524e+07)
(2.79147e+08 -3.54755e+07 8.98696e-08 2.15768e+07 -4.55019e-09 9.02172e+07)
(2.73501e+08 -3.10746e+07 1.83924e-07 2.28814e+07 1.14387e-07 8.89147e+07)
(2.6719e+08 -2.69207e+07 2.85129e-07 2.30149e+07 9.51908e-08 8.70615e+07)
(2.61266e+08 -2.32131e+07 -2.20363e-07 2.40187e+07 -1.23099e-07 8.55853e+07)
(2.55233e+08 -1.98669e+07 -6.23796e-08 2.43995e+07 -5.87939e-08 8.38898e+07)
(2.49528e+08 -1.68444e+07 1.66873e-07 2.5179e+07 8.71312e-08 8.24121e+07)
(2.43855e+08 -1.41204e+07 1.06324e-07 2.55526e+07 6.99264e-08 8.08223e+07)
(2.38488e+08 -1.16528e+07 -2.44054e-08 2.61265e+07 -2.56015e-08 7.93843e+07)
(2.33222e+08 -9.42363e+06 -7.20321e-08 2.64037e+07 -4.05583e-08 7.78877e+07)
(2.28234e+08 -7.3964e+06 -9.53532e-08 2.67797e+07 -3.17733e-08 7.6504e+07)
(2.23379e+08 -5.55981e+06 4.58168e-08 2.69309e+07 1.55401e-08 7.50928e+07)
(2.18771e+08 -3.88213e+06 -1.829e-08 2.71255e+07 -2.20347e-08 7.3769e+07)
(2.14307e+08 -2.35854e+06 -9.26822e-09 2.71469e+07 2.65567e-08 7.24362e+07)
(2.10061e+08 -959811 9.87218e-08 2.71818e+07 5.08647e-08 7.1173e+07)
(2.05959e+08 311628 -8.42588e-08 2.7081e+07 -7.41874e-08 6.99119e+07)
(2.02046e+08 1.48629e+06 6.40651e-08 2.69796e+07 1.0771e-08 6.87078e+07)
(1.9827e+08 2.55174e+06 -1.22074e-08 2.67686e+07 2.20174e-08 6.75116e+07)
(1.9466e+08 3.54531e+06 1.19962e-08 2.65541e+07 1.79538e-08 6.63642e+07)
(1.91174e+08 4.44025e+06 -1.31602e-08 2.62454e+07 2.03549e-08 6.52258e+07)
(1.87836e+08 5.28633e+06 7.99477e-08 2.59402e+07 4.61764e-08 6.41328e+07)
(1.84604e+08 6.04074e+06 -2.97422e-08 2.55442e+07 -5.00074e-08 6.30444e+07)
(1.8151e+08 6.76331e+06 -1.07574e-07 2.51702e+07 -5.86831e-08 6.20042e+07)
(1.7849e+08 7.41249e+06 6.37305e-08 2.46954e+07 2.78903e-08 6.09557e+07)
(1.75627e+08 8.01821e+06 -3.12352e-08 2.42729e+07 -1.41752e-08 5.99699e+07)
(1.72755e+08 8.63161e+06 5.3456e-08 2.373e+07 5.98098e-08 5.89454e+07)
(1.70135e+08 9.08041e+06 6.72588e-11 2.32723e+07 1.37069e-10 5.80221e+07)
(1.67602e+08 9.49511e+06 2.1632e-08 2.27762e+07 -1.56809e-09 5.71134e+07)
(1.64986e+08 9.98095e+06 -1.46477e-08 2.21896e+07 1.62268e-08 5.61526e+07)
(1.62549e+08 1.03868e+07 2.11131e-08 2.16447e+07 -1.17857e-09 5.5258e+07)
(1.60133e+08 1.07408e+07 -6.17246e-09 2.10447e+07 -1.44807e-08 5.43534e+07)
(1.5781e+08 1.10965e+07 -2.61749e-08 2.04583e+07 -1.28292e-08 5.34804e+07)
(1.55539e+08 1.13735e+07 -5.6473e-09 1.98538e+07 -1.40577e-08 5.26178e+07)
(1.53323e+08 1.16776e+07 3.58918e-08 1.92357e+07 4.04459e-08 5.17677e+07)
(1.51168e+08 1.18915e+07 -2.44444e-08 1.86316e+07 -1.23506e-08 5.09399e+07)
(1.49034e+08 1.21565e+07 1.37871e-08 1.79886e+07 -1.49334e-08 5.01067e+07)
(2.70552e+08 -4.51992e+07 8.1476e-10 9.93635e+06 5.16195e-10 9.5752e+07)
(2.72216e+08 -4.46178e+07 -1.73555e-07 1.20305e+07 -6.2343e-08 9.41178e+07)
(2.75599e+08 -4.45868e+07 6.82623e-08 1.66334e+07 1.24306e-08 9.33195e+07)
(2.77258e+08 -4.40462e+07 3.24643e-07 1.906e+07 9.62732e-08 9.13334e+07)
(2.781e+08 -4.21077e+07 -2.37839e-07 2.08615e+07 -1.01416e-07 8.96883e+07)
(2.72637e+08 -3.76645e+07 -1.13274e-07 2.16215e+07 -4.98596e-08 8.82776e+07)
(2.673e+08 -3.3192e+07 -1.92441e-07 2.21532e+07 -5.16154e-08 8.68358e+07)
(2.61679e+08 -2.90661e+07 2.23951e-07 2.24104e+07 8.18411e-08 8.52267e+07)
(2.56288e+08 -2.53132e+07 3.6962e-08 2.31586e+07 2.93762e-08 8.3834e+07)
(2.50776e+08 -2.18693e+07 -1.24633e-07 2.34541e+07 -7.32191e-08 8.22692e+07)
(2.45531e+08 -1.87246e+07 -1.96851e-07 2.40945e+07 -7.95674e-08 8.08878e+07)
(2.40283e+08 -1.58541e+07 -2.49103e-08 2.43751e+07 7.38695e-09 7.93974e+07)
(2.35294e+08 -1.32282e+07 -4.89147e-08 2.48534e+07 1.3823e-08 7.80443e+07)
(2.30373e+08 -1.08326e+07 -2.42908e-08 2.50591e+07 6.2758e-09 7.66297e+07)
(2.25694e+08 -8.63697e+06 -1.18482e-07 2.53697e+07 -5.72328e-08 7.5319e+07)
(2.21118e+08 -6.63187e+06 -6.78871e-08 2.54719e+07 -3.92541e-08 7.3977e+07)
(2.16762e+08 -4.79018e+06 -4.44855e-08 2.56247e+07 -1.70745e-08 7.27161e+07)
(2.12526e+08 -3.10554e+06 -8.62843e-08 2.56162e+07 -3.41173e-08 7.14426e+07)
(2.08487e+08 -1.55456e+06 1.01113e-07 2.56272e+07 5.34451e-08 7.02342e+07)
(2.0457e+08 -133852 -3.26772e-08 2.55125e+07 -3.7754e-08 6.90248e+07)
(2.0083e+08 1.17795e+06 -9.39935e-08 2.53997e+07 -5.18297e-08 6.78689e+07)
(1.97207e+08 2.37966e+06 -9.242e-09 2.51893e+07 1.92971e-08 6.67188e+07)
(1.93743e+08 3.49423e+06 5.05053e-08 2.49698e+07 3.37576e-08 6.56138e+07)
(1.90384e+08 4.51225e+06 -4.84951e-08 2.46768e+07 -3.29823e-08 6.45183e+07)
(1.87172e+08 5.46381e+06 1.04575e-07 2.43655e+07 4.78099e-08 6.34611e+07)
(1.84049e+08 6.32593e+06 2.23241e-08 2.4005e+07 3.21811e-08 6.24163e+07)
(1.81059e+08 7.14176e+06 -5.39088e-08 2.36148e+07 -4.69631e-08 6.14022e+07)
(1.78149e+08 7.87099e+06 9.81089e-09 2.32018e+07 1.52735e-08 6.04053e+07)
(1.75338e+08 8.56898e+06 9.60443e-09 2.2749e+07 1.55405e-08 5.94262e+07)
(1.72635e+08 9.18907e+06 2.17863e-08 2.22923e+07 4.52595e-10 5.84782e+07)
(1.69907e+08 9.76687e+06 5.96252e-08 2.18197e+07 3.01891e-08 5.75179e+07)
(1.67466e+08 1.03152e+07 -2.9146e-08 2.12962e+07 -1.50039e-08 5.66287e+07)
(1.64992e+08 1.08158e+07 8.53644e-08 2.07667e+07 4.4584e-08 5.57277e+07)
(1.62601e+08 1.12696e+07 8.32519e-08 2.02325e+07 4.38921e-08 5.48502e+07)
(1.60285e+08 1.16864e+07 6.92739e-09 1.96869e+07 1.39362e-08 5.39915e+07)
(1.58002e+08 1.20726e+07 1.99738e-08 1.91193e+07 7.74487e-10 5.31363e+07)
(1.55805e+08 1.24109e+07 4.55964e-08 1.85682e+07 1.50852e-08 5.23121e+07)
(1.53633e+08 1.27433e+07 -1.93077e-08 1.79701e+07 -7.838e-10 5.14808e+07)
(1.51538e+08 1.30074e+07 4.37407e-08 1.74193e+07 1.47082e-08 5.06871e+07)
(1.49445e+08 1.33003e+07 2.57019e-08 1.67956e+07 7.88615e-09 4.98723e+07)
(2.68307e+08 -5.0218e+07 7.70425e-08 1.18394e+07 3.64407e-08 9.36866e+07)
(2.69924e+08 -4.97359e+07 6.87545e-08 1.40065e+07 1.25444e-08 9.18877e+07)
(2.73392e+08 -4.95862e+07 -8.7915e-08 1.87252e+07 -9.36531e-08 9.10008e+07)
(2.7434e+08 -4.81783e+07 2.33493e-07 1.95303e+07 1.17503e-07 8.87169e+07)
(2.71186e+08 -4.42237e+07 1.059e-07 2.1528e+07 6.39139e-08 8.78143e+07)
(2.66168e+08 -3.9576e+07 -1.32101e-07 2.10813e+07 -3.67213e-08 8.61748e+07)
(2.61357e+08 -3.51861e+07 -1.08246e-07 2.18537e+07 -4.77766e-08 8.49631e+07)
(2.56168e+08 -3.11212e+07 -1.45864e-07 2.18625e+07 -7.63055e-08 8.34092e+07)
(2.51256e+08 -2.73179e+07 1.5757e-07 2.25049e+07 6.5297e-08 8.21284e+07)
(2.46185e+08 -2.38065e+07 3.63463e-08 2.26536e+07 2.64648e-08 8.06515e+07)
(2.41358e+08 -2.05544e+07 6.83412e-08 2.31624e+07 5.12816e-08 7.9356e+07)
(2.36501e+08 -1.75599e+07 -7.41832e-08 2.33278e+07 -1.31763e-08 7.79487e+07)
(2.31872e+08 -1.47944e+07 -2.86417e-08 2.36948e+07 -2.28985e-08 7.66702e+07)
(2.27286e+08 -1.22528e+07 2.24336e-08 2.38104e+07 -3.42218e-09 7.53288e+07)
(2.22911e+08 -9.90599e+06 4.80315e-08 2.40364e+07 1.9027e-08 7.40842e+07)
(2.18617e+08 -7.75069e+06 -6.9915e-08 2.40717e+07 -3.95843e-08 7.28065e+07)
(2.14517e+08 -5.75865e+06 -4.49292e-08 2.41641e+07 -1.88193e-08 7.16043e+07)
(2.10516e+08 -3.92912e+06 -6.39788e-08 2.41091e+07 -3.7921e-08 7.03875e+07)
(2.06692e+08 -2.23565e+06 -1.95445e-08 2.40802e+07 -1.89592e-08 6.92316e+07)
(2.02972e+08 -679920 1.79233e-08 2.39363e+07 1.79961e-08 6.80724e+07)
(1.99412e+08 762750 -7.89076e-08 2.38007e+07 -3.61717e-08 6.69638e+07)
(1.95954e+08 2.08848e+06 2.2572e-08 2.35746e+07 9.92844e-10 6.58586e+07)
(1.92642e+08 3.31979e+06 1.47536e-08 2.33475e+07 1.64694e-08 6.47967e+07)
(1.89423e+08 4.45263e+06 3.63032e-08 2.30488e+07 1.77781e-08 6.37416e+07)
(1.86337e+08 5.50401e+06 -4.24926e-15 2.27452e+07 -4.76641e-15 6.27247e+07)
(1.83336e+08 6.47608e+06 8.1056e-08 2.23842e+07 5.03205e-08 6.17161e+07)
(1.80455e+08 7.37116e+06 2.16997e-08 2.20184e+07 2.05467e-09 6.07419e+07)
(1.7765e+08 8.21023e+06 -1.08562e-08 2.16052e+07 -1.46366e-08 5.97765e+07)
(1.7495e+08 8.96616e+06 2.11109e-08 2.11909e+07 2.06623e-09 5.88421e+07)
(1.72328e+08 9.68984e+06 -2.12784e-08 2.07334e+07 -2.69421e-09 5.79185e+07)
(1.69785e+08 1.03255e+07 4.86735e-08 2.02818e+07 4.44442e-08 5.702e+07)
(1.6735e+08 1.09134e+07 1.19631e-08 1.9784e+07 -1.09417e-08 5.61401e+07)
(1.64943e+08 1.14836e+07 1.18518e-08 1.92964e+07 -1.11591e-08 5.52718e+07)