# PointID PointCoord Dx Dy Dz magD
4 (0 0.5 0) 0 -3.97213e-05 0 3.97213e-05
105 (0 0.55 0) 0 -4.16396e-05 0 4.16396e-05
104 (0 0.6 0) 0 -4.31599e-05 0 4.31599e-05
103 (0 0.65 0) 0 -4.43832e-05 0 4.43832e-05
102 (0 0.7 0) 0 -4.5421e-05 0 4.5421e-05
101 (0 0.75 0) 0 -4.63452e-05 0 4.63452e-05
100 (0 0.8 0) 0 -4.72581e-05 0 4.72581e-05
99 (0 0.85 0) 0 -4.80647e-05 0 4.80647e-05
98 (0 0.9 0) 0 -4.88415e-05 0 4.88415e-05
97 (0 0.95 0) 0 -4.9642e-05 0 4.9642e-05
3 (0 1 0) 0 -5.01443e-05 1.2707e-23 5.01443e-05
4 (0 0.5 0) 0 -3.97213e-05 0 3.97213e-05
105 (0 0.55 0) 0 -4.16396e-05 0 4.16396e-05
104 (0 0.6 0) 0 -4.31599e-05 0 4.31599e-05
103 (0 0.65 0) 0 -4.43832e-05 0 4.43832e-05
102 (0 0.7 0) 0 -4.5421e-05 0 4.5421e-05
101 (0 0.75 0) 0 -4.63452e-05 0 4.63452e-05
100 (0 0.8 0) 0 -4.72581e-05 0 4.72581e-05
99 (0 0.85 0) 0 -4.80647e-05 0 4.80647e-05
98 (0 0.9 0) 0 -4.88415e-05 0 4.88415e-05
97 (0 0.95 0) 0 -4.9642e-05 0 4.9642e-05
3 (0 1 0) 0 -5.01443e-05 1.2707e-23 5.01443e-05
4 (0 0.5 0) 0 -7.94986e-05 0 7.94986e-05
105 (0 0.55 0) 0 -8.33496e-05 0 8.33496e-05
104 (0 0.6 0) 0 -8.63801e-05 0 8.63801e-05
103 (0 0.65 0) 0 -8.88153e-05 0 8.88153e-05
102 (0 0.7 0) 0 -9.0892e-05 0 9.0892e-05
101 (0 0.75 0) 0 -9.27334e-05 0 9.27334e-05
100 (0 0.8 0) 0 -9.4566e-05 0 9.4566e-05
99 (0 0.85 0) 0 -9.61781e-05 0 9.61781e-05
98 (0 0.9 0) 0 -9.77305e-05 0 9.77305e-05
97 (0 0.95 0) 0 -9.93373e-05 0 9.93373e-05
3 (0 1 0) 0 -0.000100336 2.61114e-23 0.000100336
4 (0 0.5 0) 0 -7.94986e-05 0 7.94986e-05
105 (0 0.55 0) 0 -8.33496e-05 0 8.33496e-05
104 (0 0.6 0) 0 -8.63801e-05 0 8.63801e-05
103 (0 0.65 0) 0 -8.88153e-05 0 8.88153e-05
102 (0 0.7 0) 0 -9.0892e-05 0 9.0892e-05
101 (0 0.75 0) 0 -9.27334e-05 0 9.27334e-05
100 (0 0.8 0) 0 -9.4566e-05 0 9.4566e-05
99 (0 0.85 0) 0 -9.61781e-05 0 9.61781e-05
98 (0 0.9 0) 0 -9.77305e-05 0 9.77305e-05
97 (0 0.95 0) 0 -9.93373e-05 0 9.93373e-05
3 (0 1 0) 0 -0.000100336 2.61114e-23 0.000100336
4 (0 0.5 0) 0 -0.000119301 0 0.000119301
105 (0 0.55 0) 0 -0.000125091 0 0.000125091
104 (0 0.6 0) 0 -0.000129631 0 0.000129631
103 (0 0.65 0) 0 -0.000133274 0 0.000133274
102 (0 0.7 0) 0 -0.000136392 0 0.000136392
101 (0 0.75 0) 0 -0.000139148 0 0.000139148
100 (0 0.8 0) 0 -0.000141902 0 0.000141902
99 (0 0.85 0) 0 -0.00014432 0 0.00014432
98 (0 0.9 0) 0 -0.000146646 0 0.000146646
97 (0 0.95 0) 0 -0.000149061 0 0.000149061
3 (0 1 0) 0 -0.000150554 3.98987e-23 0.000150554
4 (0 0.5 0) 0 -0.000119301 0 0.000119301
105 (0 0.55 0) 0 -0.000125091 0 0.000125091
104 (0 0.6 0) 0 -0.000129631 0 0.000129631
103 (0 0.65 0) 0 -0.000133274 0 0.000133274
102 (0 0.7 0) 0 -0.000136392 0 0.000136392
101 (0 0.75 0) 0 -0.000139148 0 0.000139148
100 (0 0.8 0) 0 -0.000141902 0 0.000141902
99 (0 0.85 0) 0 -0.00014432 0 0.00014432
98 (0 0.9 0) 0 -0.000146646 0 0.000146646
97 (0 0.95 0) 0 -0.000149061 0 0.000149061
3 (0 1 0) 0 -0.000150554 3.98987e-23 0.000150554
4 (0 0.5 0) 0 -0.000159119 0 0.000159119
105 (0 0.55 0) 0 -0.000166853 0 0.000166853
104 (0 0.6 0) 0 -0.000172903 0 0.000172903
103 (0 0.65 0) 0 -0.000177754 0 0.000177754
102 (0 0.7 0) 0 -0.000181913 0 0.000181913
101 (0 0.75 0) 0 -0.000185583 0 0.000185583
100 (0 0.8 0) 0 -0.000189258 0 0.000189258
99 (0 0.85 0) 0 -0.000192483 0 0.000192483
98 (0 0.9 0) 0 -0.000195582 0 0.000195582
97 (0 0.95 0) 0 -0.000198805 0 0.000198805
3 (0 1 0) 0 -0.000200793 5.39759e-23 0.000200793
4 (0 0.5 0) 0 -0.000159119 0 0.000159119
105 (0 0.55 0) 0 -0.000166853 0 0.000166853
104 (0 0.6 0) 0 -0.000172903 0 0.000172903
103 (0 0.65 0) 0 -0.000177754 0 0.000177754
102 (0 0.7 0) 0 -0.000181913 0 0.000181913
101 (0 0.75 0) 0 -0.000185583 0 0.000185583
100 (0 0.8 0) 0 -0.000189258 0 0.000189258
99 (0 0.85 0) 0 -0.000192483 0 0.000192483
98 (0 0.9 0) 0 -0.000195582 0 0.000195582
97 (0 0.95 0) 0 -0.000198805 0 0.000198805
3 (0 1 0) 0 -0.000200793 5.39759e-23 0.000200793
4 (0 0.5 0) 0 -0.00019895 0 0.00019895
105 (0 0.55 0) 0 -0.00020863 0 0.00020863
104 (0 0.6 0) 0 -0.000216192 0 0.000216192
103 (0 0.65 0) 0 -0.000222249 0 0.000222249
102 (0 0.7 0) 0 -0.000227451 0 0.000227451
101 (0 0.75 0) 0 -0.000232032 0 0.000232032
100 (0 0.8 0) 0 -0.00023663 0 0.00023663
99 (0 0.85 0) 0 -0.000240663 0 0.000240663
98 (0 0.9 0) 0 -0.000244532 0 0.000244532
97 (0 0.95 0) 0 -0.000248564 0 0.000248564
3 (0 1 0) 0 -0.000251046 6.82747e-23 0.000251046
4 (0 0.5 0) 0 -0.00019895 0 0.00019895
105 (0 0.55 0) 0 -0.00020863 0 0.00020863
104 (0 0.6 0) 0 -0.000216192 0 0.000216192
103 (0 0.65 0) 0 -0.000222249 0 0.000222249
102 (0 0.7 0) 0 -0.000227451 0 0.000227451
101 (0 0.75 0) 0 -0.000232032 0 0.000232032
100 (0 0.8 0) 0 -0.00023663 0 0.00023663
99 (0 0.85 0) 0 -0.000240663 0 0.000240663
98 (0 0.9 0) 0 -0.000244532 0 0.000244532
97 (0 0.95 0) 0 -0.000248564 0 0.000248564
3 (0 1 0) 0 -0.000251046 6.82747e-23 0.000251046
4 (0 0.5 0) 0 -0.000238788 0 0.000238788
105 (0 0.55 0) 0 -0.000250415 0 0.000250415
104 (0 0.6 0) 0 -0.000259491 0 0.000259491
103 (0 0.65 0) 0 -0.000266755 0 0.000266755
102 (0 0.7 0) 0 -0.000273 0 0.000273
101 (0 0.75 0) 0 -0.000278492 0 0.000278492
100 (0 0.8 0) 0 -0.000284013 0 0.000284013
99 (0 0.85 0) 0 -0.000288854 0 0.000288854
98 (0 0.9 0) 0 -0.000293493 0 0.000293493
97 (0 0.95 0) 0 -0.000298333 0 0.000298333
3 (0 1 0) 0 -0.000301311 8.27432e-23 0.000301311
4 (0 0.5 0) 0 -0.000238788 0 0.000238788
105 (0 0.55 0) 0 -0.000250415 0 0.000250415
104 (0 0.6 0) 0 -0.000259491 0 0.000259491
103 (0 0.65 0) 0 -0.000266755 0 0.000266755
102 (0 0.7 0) 0 -0.000273 0 0.000273
101 (0 0.75 0) 0 -0.000278492 0 0.000278492
100 (0 0.8 0) 0 -0.000284013 0 0.000284013
99 (0 0.85 0) 0 -0.000288854 0 0.000288854
98 (0 0.9 0) 0 -0.000293493 0 0.000293493
97 (0 0.95 0) 0 -0.000298333 0 0.000298333
3 (0 1 0) 0 -0.000301311 8.27432e-23 0.000301311
4 (0 0.5 0) 0 -0.000278632 0 0.000278632
105 (0 0.55 0) 0 -0.000292208 0 0.000292208
104 (0 0.6 0) 0 -0.000302799 0 0.000302799
103 (0 0.65 0) 0 -0.000311269 0 0.000311269
102 (0 0.7 0) 0 -0.000318557 0 0.000318557
101 (0 0.75 0) 0 -0.000324959 0 0.000324959
100 (0 0.8 0) 0 -0.000331404 0 0.000331404
99 (0 0.85 0) 0 -0.000337054 0 0.000337054
98 (0 0.9 0) 0 -0.000342462 0 0.000342462
97 (0 0.95 0) 0 -0.000348111 0 0.000348111
3 (0 1 0) 0 -0.000351584 9.73431e-23 0.000351584
4 (0 0.5 0) 0 -0.000278632 0 0.000278632
105 (0 0.55 0) 0 -0.000292208 0 0.000292208
104 (0 0.6 0) 0 -0.000302799 0 0.000302799
103 (0 0.65 0) 0 -0.000311269 0 0.000311269
102 (0 0.7 0) 0 -0.000318557 0 0.000318557
101 (0 0.75 0) 0 -0.000324959 0 0.000324959
100 (0 0.8 0) 0 -0.000331404 0 0.000331404
99 (0 0.85 0) 0 -0.000337054 0 0.000337054
98 (0 0.9 0) 0 -0.000342462 0 0.000342462
97 (0 0.95 0) 0 -0.000348111 0 0.000348111
3 (0 1 0) 0 -0.000351584 9.73431e-23 0.000351584
4 (0 0.5 0) 0 -0.00031848 0 0.00031848
105 (0 0.55 0) 0 -0.000334005 0 0.000334005
104 (0 0.6 0) 0 -0.000346112 0 0.000346112
103 (0 0.65 0) 0 -0.00035579 0 0.00035579
102 (0 0.7 0) 0 -0.000364121 0 0.000364121
101 (0 0.75 0) 0 -0.000371432 0 0.000371432
100 (0 0.8 0) 0 -0.000378802 0 0.000378802
99 (0 0.85 0) 0 -0.00038526 0 0.00038526
98 (0 0.9 0) 0 -0.000391437 0 0.000391437
97 (0 0.95 0) 0 -0.000397894 0 0.000397894
3 (0 1 0) 0 -0.000401864 1.12046e-22 0.000401864
4 (0 0.5 0) 0 -0.00031848 0 0.00031848
105 (0 0.55 0) 0 -0.000334005 0 0.000334005
104 (0 0.6 0) 0 -0.000346112 0 0.000346112
103 (0 0.65 0) 0 -0.00035579 0 0.00035579
102 (0 0.7 0) 0 -0.000364121 0 0.000364121
101 (0 0.75 0) 0 -0.000371432 0 0.000371432
100 (0 0.8 0) 0 -0.000378802 0 0.000378802
99 (0 0.85 0) 0 -0.00038526 0 0.00038526
98 (0 0.9 0) 0 -0.000391437 0 0.000391437
97 (0 0.95 0) 0 -0.000397894 0 0.000397894
3 (0 1 0) 0 -0.000401864 1.12046e-22 0.000401864
4 (0 0.5 0) 0 -0.000358331 0 0.000358331
105 (0 0.55 0) 0 -0.000375806 0 0.000375806
104 (0 0.6 0) 0 -0.00038943 0 0.00038943
103 (0 0.65 0) 0 -0.000400315 0 0.000400315
102 (0 0.7 0) 0 -0.000409689 0 0.000409689
101 (0 0.75 0) 0 -0.000417909 0 0.000417909
100 (0 0.8 0) 0 -0.000426203 0 0.000426203
99 (0 0.85 0) 0 -0.000433472 0 0.000433472
98 (0 0.9 0) 0 -0.000440416 0 0.000440416
97 (0 0.95 0) 0 -0.000447682 0 0.000447682
3 (0 1 0) 0 -0.000452148 1.2683e-22 0.000452148
4 (0 0.5 0) 0 -0.000358331 0 0.000358331
105 (0 0.55 0) 0 -0.000375806 0 0.000375806
104 (0 0.6 0) 0 -0.00038943 0 0.00038943
103 (0 0.65 0) 0 -0.000400315 0 0.000400315
102 (0 0.7 0) 0 -0.000409689 0 0.000409689
101 (0 0.75 0) 0 -0.000417909 0 0.000417909
100 (0 0.8 0) 0 -0.000426203 0 0.000426203
99 (0 0.85 0) 0 -0.000433472 0 0.000433472
98 (0 0.9 0) 0 -0.000440416 0 0.000440416
97 (0 0.95 0) 0 -0.000447682 0 0.000447682
3 (0 1 0) 0 -0.000452148 1.2683e-22 0.000452148
4 (0 0.5 0) 0 -0.000398185 0 0.000398185
105 (0 0.55 0) 0 -0.000417609 0 0.000417609
104 (0 0.6 0) 0 -0.00043275 0 0.00043275
103 (0 0.65 0) 0 -0.000444844 0 0.000444844
102 (0 0.7 0) 0 -0.000455262 0 0.000455262
101 (0 0.75 0) 0 -0.000464389 0 0.000464389
100 (0 0.8 0) 0 -0.000473608 0 0.000473608
99 (0 0.85 0) 0 -0.000481687 0 0.000481687
98 (0 0.9 0) 0 -0.000489399 0 0.000489399
97 (0 0.95 0) 0 -0.000497473 0 0.000497473
3 (0 1 0) 0 -0.000502435 1.4168e-22 0.000502435
4 (0 0.5 0) 0 -0.000398185 0 0.000398185
105 (0 0.55 0) 0 -0.000417609 0 0.000417609
104 (0 0.6 0) 0 -0.00043275 0 0.00043275
103 (0 0.65 0) 0 -0.000444844 0 0.000444844
102 (0 0.7 0) 0 -0.000455262 0 0.000455262
101 (0 0.75 0) 0 -0.000464389 0 0.000464389
100 (0 0.8 0) 0 -0.000473608 0 0.000473608
99 (0 0.85 0) 0 -0.000481687 0 0.000481687
98 (0 0.9 0) 0 -0.000489399 0 0.000489399
97 (0 0.95 0) 0 -0.000497473 0 0.000497473
3 (0 1 0) 0 -0.000502435 1.4168e-22 0.000502435
4 (0 0.5 0) 0 -0.00043804 0 0.00043804
105 (0 0.55 0) 0 -0.000459414 0 0.000459414
104 (0 0.6 0) 0 -0.000476073 0 0.000476073
103 (0 0.65 0) 0 -0.000489375 0 0.000489375
102 (0 0.7 0) 0 -0.000500836 0 0.000500836
101 (0 0.75 0) 0 -0.000510871 0 0.000510871
100 (0 0.8 0) 0 -0.000521016 0 0.000521016
99 (0 0.85 0) 0 -0.000529905 0 0.000529905
98 (0 0.9 0) 0 -0.000538383 0 0.000538383
97 (0 0.95 0) 0 -0.000547266 0 0.000547266
3 (0 1 0) 0 -0.000552725 1.56584e-22 0.000552725
4 (0 0.5 0) 0 -0.00043804 0 0.00043804
105 (0 0.55 0) 0 -0.000459414 0 0.000459414
104 (0 0.6 0) 0 -0.000476073 0 0.000476073
103 (0 0.65 0) 0 -0.000489375 0 0.000489375
102 (0 0.7 0) 0 -0.000500836 0 0.000500836
101 (0 0.75 0) 0 -0.000510871 0 0.000510871
100 (0 0.8 0) 0 -0.000521016 0 0.000521016
99 (0 0.85 0) 0 -0.000529905 0 0.000529905
98 (0 0.9 0) 0 -0.000538383 0 0.000538383
97 (0 0.95 0) 0 -0.000547266 0 0.000547266
3 (0 1 0) 0 -0.000552725 1.56584e-22 0.000552725
4 (0 0.5 0) 0 -0.000477896 0 0.000477896
105 (0 0.55 0) 0 -0.000501221 0 0.000501221
104 (0 0.6 0) 0 -0.000519397 0 0.000519397
103 (0 0.65 0) 0 -0.000533908 0 0.000533908
102 (0 0.7 0) 0 -0.000546413 0 0.000546413
101 (0 0.75 0) 0 -0.000557355 0 0.000557355
100 (0 0.8 0) 0 -0.000568425 0 0.000568425
99 (0 0.85 0) 0 -0.000578125 0 0.000578125
98 (0 0.9 0) 0 -0.00058737 0 0.00058737
97 (0 0.95 0) 0 -0.00059706 0 0.00059706
3 (0 1 0) 0 -0.000603016 1.71533e-22 0.000603016
4 (0 0.5 0) 0 -0.000477896 0 0.000477896
105 (0 0.55 0) 0 -0.000501221 0 0.000501221
104 (0 0.6 0) 0 -0.000519397 0 0.000519397
103 (0 0.65 0) 0 -0.000533908 0 0.000533908
102 (0 0.7 0) 0 -0.000546413 0 0.000546413
101 (0 0.75 0) 0 -0.000557355 0 0.000557355
100 (0 0.8 0) 0 -0.000568425 0 0.000568425
99 (0 0.85 0) 0 -0.000578125 0 0.000578125
98 (0 0.9 0) 0 -0.00058737 0 0.00058737
97 (0 0.95 0) 0 -0.00059706 0 0.00059706
3 (0 1 0) 0 -0.000603016 1.71533e-22 0.000603016
4 (0 0.5 0) 0 -0.000517753 0 0.000517753
105 (0 0.55 0) 0 -0.000543029 0 0.000543029
104 (0 0.6 0) 0 -0.000562723 0 0.000562723
103 (0 0.65 0) 0 -0.000578442 0 0.000578442
102 (0 0.7 0) 0 -0.000591992 0 0.000591992
101 (0 0.75 0) 0 -0.000603839 0 0.000603839
100 (0 0.8 0) 0 -0.000615835 0 0.000615835
99 (0 0.85 0) 0 -0.000626347 0 0.000626347
98 (0 0.9 0) 0 -0.000636357 0 0.000636357
97 (0 0.95 0) 0 -0.000646856 0 0.000646856
3 (0 1 0) 0 -0.000653309 1.8652e-22 0.000653309
4 (0 0.5 0) 0 -0.000517753 0 0.000517753
105 (0 0.55 0) 0 -0.000543029 0 0.000543029
104 (0 0.6 0) 0 -0.000562723 0 0.000562723
103 (0 0.65 0) 0 -0.000578442 0 0.000578442
102 (0 0.7 0) 0 -0.000591992 0 0.000591992
101 (0 0.75 0) 0 -0.000603839 0 0.000603839
100 (0 0.8 0) 0 -0.000615835 0 0.000615835
99 (0 0.85 0) 0 -0.000626347 0 0.000626347
98 (0 0.9 0) 0 -0.000636357 0 0.000636357
97 (0 0.95 0) 0 -0.000646856 0 0.000646856
3 (0 1 0) 0 -0.000653309 1.8652e-22 0.000653309
4 (0 0.5 0) 0 -0.000557611 0 0.000557611
105 (0 0.55 0) 0 -0.000584837 0 0.000584837
104 (0 0.6 0) 0 -0.000606048 0 0.000606048
103 (0 0.65 0) 0 -0.000622976 0 0.000622976
102 (0 0.7 0) 0 -0.000637571 0 0.000637571
101 (0 0.75 0) 0 -0.000650325 0 0.000650325
100 (0 0.8 0) 0 -0.000663246 0 0.000663246
99 (0 0.85 0) 0 -0.000674569 0 0.000674569
98 (0 0.9 0) 0 -0.000685345 0 0.000685345
97 (0 0.95 0) 0 -0.000696652 0 0.000696652
3 (0 1 0) 0 -0.000703602 2.0154e-22 0.000703602
4 (0 0.5 0) 0 -0.000557611 0 0.000557611
105 (0 0.55 0) 0 -0.000584837 0 0.000584837
104 (0 0.6 0) 0 -0.000606048 0 0.000606048
103 (0 0.65 0) 0 -0.000622976 0 0.000622976
102 (0 0.7 0) 0 -0.000637571 0 0.000637571
101 (0 0.75 0) 0 -0.000650325 0 0.000650325
100 (0 0.8 0) 0 -0.000663246 0 0.000663246
99 (0 0.85 0) 0 -0.000674569 0 0.000674569
98 (0 0.9 0) 0 -0.000685345 0 0.000685345
97 (0 0.95 0) 0 -0.000696652 0 0.000696652
3 (0 1 0) 0 -0.000703602 2.0154e-22 0.000703602
4 (0 0.5 0) 0 -0.000597468 0 0.000597468
105 (0 0.55 0) 0 -0.000626645 0 0.000626645
104 (0 0.6 0) 0 -0.000649375 0 0.000649375
103 (0 0.65 0) 0 -0.000667512 0 0.000667512
102 (0 0.7 0) 0 -0.000683151 0 0.000683151
101 (0 0.75 0) 0 -0.00069681 0 0.00069681
100 (0 0.8 0) 0 -0.000710657 0 0.000710657
99 (0 0.85 0) 0 -0.000722792 0 0.000722792
98 (0 0.9 0) 0 -0.000734334 0 0.000734334
97 (0 0.95 0) 0 -0.000746449 0 0.000746449
3 (0 1 0) 0 -0.000753897 2.16587e-22 0.000753897
4 (0 0.5 0) 0 -0.000597468 0 0.000597468
105 (0 0.55 0) 0 -0.000626645 0 0.000626645
104 (0 0.6 0) 0 -0.000649375 0 0.000649375
103 (0 0.65 0) 0 -0.000667512 0 0.000667512
102 (0 0.7 0) 0 -0.000683151 0 0.000683151
101 (0 0.75 0) 0 -0.00069681 0 0.00069681
100 (0 0.8 0) 0 -0.000710657 0 0.000710657
99 (0 0.85 0) 0 -0.000722792 0 0.000722792
98 (0 0.9 0) 0 -0.000734334 0 0.000734334
97 (0 0.95 0) 0 -0.000746449 0 0.000746449
3 (0 1 0) 0 -0.000753897 2.16587e-22 0.000753897
4 (0 0.5 0) 0 -0.000637326 0 0.000637326
105 (0 0.55 0) 0 -0.000668454 0 0.000668454
104 (0 0.6 0) 0 -0.000692701 0 0.000692701
103 (0 0.65 0) 0 -0.000712047 0 0.000712047
102 (0 0.7 0) 0 -0.000728731 0 0.000728731
101 (0 0.75 0) 0 -0.000743296 0 0.000743296
100 (0 0.8 0) 0 -0.000758068 0 0.000758068
99 (0 0.85 0) 0 -0.000771016 0 0.000771016
98 (0 0.9 0) 0 -0.000783323 0 0.000783323
97 (0 0.95 0) 0 -0.000796246 0 0.000796246
3 (0 1 0) 0 -0.000804191 2.3166e-22 0.000804191
4 (0 0.5 0) 0 -0.000637326 0 0.000637326
105 (0 0.55 0) 0 -0.000668454 0 0.000668454
104 (0 0.6 0) 0 -0.000692701 0 0.000692701
103 (0 0.65 0) 0 -0.000712047 0 0.000712047
102 (0 0.7 0) 0 -0.000728731 0 0.000728731
101 (0 0.75 0) 0 -0.000743296 0 0.000743296
100 (0 0.8 0) 0 -0.000758068 0 0.000758068
99 (0 0.85 0) 0 -0.000771016 0 0.000771016
98 (0 0.9 0) 0 -0.000783323 0 0.000783323
97 (0 0.95 0) 0 -0.000796246 0 0.000796246
3 (0 1 0) 0 -0.000804191 2.3166e-22 0.000804191
4 (0 0.5 0) 0 -0.000677185 0 0.000677185
105 (0 0.55 0) 0 -0.000710263 0 0.000710263
104 (0 0.6 0) 0 -0.000736027 0 0.000736027
103 (0 0.65 0) 0 -0.000756583 0 0.000756583
102 (0 0.7 0) 0 -0.000774312 0 0.000774312
101 (0 0.75 0) 0 -0.000789781 0 0.000789781
100 (0 0.8 0) 0 -0.00080548 0 0.00080548
99 (0 0.85 0) 0 -0.00081924 0 0.00081924
98 (0 0.9 0) 0 -0.000832312 0 0.000832312
97 (0 0.95 0) 0 -0.000846043 0 0.000846043
3 (0 1 0) 0 -0.000854486 2.46754e-22 0.000854486
4 (0 0.5 0) 0 -0.000677185 0 0.000677185
105 (0 0.55 0) 0 -0.000710263 0 0.000710263
104 (0 0.6 0) 0 -0.000736027 0 0.000736027
103 (0 0.65 0) 0 -0.000756583 0 0.000756583
102 (0 0.7 0) 0 -0.000774312 0 0.000774312
101 (0 0.75 0) 0 -0.000789781 0 0.000789781
100 (0 0.8 0) 0 -0.00080548 0 0.00080548
99 (0 0.85 0) 0 -0.00081924 0 0.00081924
98 (0 0.9 0) 0 -0.000832312 0 0.000832312
97 (0 0.95 0) 0 -0.000846043 0 0.000846043
3 (0 1 0) 0 -0.000854486 2.46754e-22 0.000854486
4 (0 0.5 0) 0 -0.000717043 0 0.000717043
105 (0 0.55 0) 0 -0.000752072 0 0.000752072
104 (0 0.6 0) 0 -0.000779353 0 0.000779353
103 (0 0.65 0) 0 -0.000801118 0 0.000801118
102 (0 0.7 0) 0 -0.000819892 0 0.000819892
101 (0 0.75 0) 0 -0.000836267 0 0.000836267
100 (0 0.8 0) 0 -0.000852891 0 0.000852891
99 (0 0.85 0) 0 -0.000867464 0 0.000867464
98 (0 0.9 0) 0 -0.000881301 0 0.000881301
97 (0 0.95 0) 0 -0.00089584 0 0.00089584
3 (0 1 0) 0 -0.000904781 2.61869e-22 0.000904781
4 (0 0.5 0) 0 -0.000717043 0 0.000717043
105 (0 0.55 0) 0 -0.000752072 0 0.000752072
104 (0 0.6 0) 0 -0.000779353 0 0.000779353
103 (0 0.65 0) 0 -0.000801118 0 0.000801118
102 (0 0.7 0) 0 -0.000819892 0 0.000819892
101 (0 0.75 0) 0 -0.000836267 0 0.000836267
100 (0 0.8 0) 0 -0.000852891 0 0.000852891
99 (0 0.85 0) 0 -0.000867464 0 0.000867464
98 (0 0.9 0) 0 -0.000881301 0 0.000881301
97 (0 0.95 0) 0 -0.00089584 0 0.00089584
3 (0 1 0) 0 -0.000904781 2.61869e-22 0.000904781
4 (0 0.5 0) 0 -0.0007569 0 0.0007569
105 (0 0.55 0) 0 -0.000793881 0 0.000793881
104 (0 0.6 0) 0 -0.000822679 0 0.000822679
103 (0 0.65 0) 0 -0.000845654 0 0.000845654
102 (0 0.7 0) 0 -0.000865473 0 0.000865473
101 (0 0.75 0) 0 -0.000882752 0 0.000882752
100 (0 0.8 0) 0 -0.000900302 0 0.000900302
99 (0 0.85 0) 0 -0.000915687 0 0.000915687
98 (0 0.9 0) 0 -0.000930289 0 0.000930289
97 (0 0.95 0) 0 -0.000945636 0 0.000945636
3 (0 1 0) 0 -0.000955075 2.77001e-22 0.000955075
4 (0 0.5 0) 0 -0.0007569 0 0.0007569
105 (0 0.55 0) 0 -0.000793881 0 0.000793881
104 (0 0.6 0) 0 -0.000822679 0 0.000822679
103 (0 0.65 0) 0 -0.000845654 0 0.000845654
102 (0 0.7 0) 0 -0.000865473 0 0.000865473
101 (0 0.75 0) 0 -0.000882752 0 0.000882752
100 (0 0.8 0) 0 -0.000900302 0 0.000900302
99 (0 0.85 0) 0 -0.000915687 0 0.000915687
98 (0 0.9 0) 0 -0.000930289 0 0.000930289
97 (0 0.95 0) 0 -0.000945636 0 0.000945636
3 (0 1 0) 0 -0.000955075 2.77001e-22 0.000955075
4 (0 0.5 0) 0 -0.000796758 0 0.000796758
105 (0 0.55 0) 0 -0.000835689 0 0.000835689
104 (0 0.6 0) 0 -0.000866004 0 0.000866004
103 (0 0.65 0) 0 -0.000890189 0 0.000890189
102 (0 0.7 0) 0 -0.000911054 0 0.000911054
101 (0 0.75 0) 0 -0.000929237 0 0.000929237
100 (0 0.8 0) 0 -0.000947713 0 0.000947713
99 (0 0.85 0) 0 -0.000963911 0 0.000963911
98 (0 0.9 0) 0 -0.000979278 0 0.000979278
97 (0 0.95 0) 0 -0.000995433 0 0.000995433
3 (0 1 0) 0 -0.00100537 2.9215e-22 0.00100537
4 (0 0.5 0) 0 -0.000796758 0 0.000796758
105 (0 0.55 0) 0 -0.000835689 0 0.000835689
104 (0 0.6 0) 0 -0.000866004 0 0.000866004
103 (0 0.65 0) 0 -0.000890189 0 0.000890189
102 (0 0.7 0) 0 -0.000911054 0 0.000911054
101 (0 0.75 0) 0 -0.000929237 0 0.000929237
100 (0 0.8 0) 0 -0.000947713 0 0.000947713
99 (0 0.85 0) 0 -0.000963911 0 0.000963911
98 (0 0.9 0) 0 -0.000979278 0 0.000979278
97 (0 0.95 0) 0 -0.000995433 0 0.000995433
3 (0 1 0) 0 -0.00100537 2.9215e-22 0.00100537
4 (0 0.5 0) 0 -0.000836616 0 0.000836616
105 (0 0.55 0) 0 -0.000877498 0 0.000877498
104 (0 0.6 0) 0 -0.00090933 0 0.00090933
103 (0 0.65 0) 0 -0.000934723 0 0.000934723
102 (0 0.7 0) 0 -0.000956634 0 0.000956634
101 (0 0.75 0) 0 -0.000975721 0 0.000975721
100 (0 0.8 0) 0 -0.000995124 0 0.000995124
99 (0 0.85 0) 0 -0.00101213 0 0.00101213
98 (0 0.9 0) 0 -0.00102827 0 0.00102827
97 (0 0.95 0) 0 -0.00104523 0 0.00104523
3 (0 1 0) 0 -0.00105566 3.07314e-22 0.00105566
4 (0 0.5 0) 0 -0.000836616 0 0.000836616
105 (0 0.55 0) 0 -0.000877498 0 0.000877498
104 (0 0.6 0) 0 -0.00090933 0 0.00090933
103 (0 0.65 0) 0 -0.000934723 0 0.000934723
102 (0 0.7 0) 0 -0.000956634 0 0.000956634
101 (0 0.75 0) 0 -0.000975721 0 0.000975721
100 (0 0.8 0) 0 -0.000995124 0 0.000995124
99 (0 0.85 0) 0 -0.00101213 0 0.00101213
98 (0 0.9 0) 0 -0.00102827 0 0.00102827
97 (0 0.95 0) 0 -0.00104523 0 0.00104523
3 (0 1 0) 0 -0.00105566 3.07314e-22 0.00105566
4 (0 0.5 0) 0 -0.000876473 0 0.000876473
105 (0 0.55 0) 0 -0.000919306 0 0.000919306
104 (0 0.6 0) 0 -0.000952654 0 0.000952654
103 (0 0.65 0) 0 -0.000979258 0 0.000979258
102 (0 0.7 0) 0 -0.00100221 0 0.00100221
101 (0 0.75 0) 0 -0.00102221 0 0.00102221
100 (0 0.8 0) 0 -0.00104253 0 0.00104253
99 (0 0.85 0) 0 -0.00106036 0 0.00106036
98 (0 0.9 0) 0 -0.00107725 0 0.00107725
97 (0 0.95 0) 0 -0.00109503 0 0.00109503
3 (0 1 0) 0 -0.00110596 3.22491e-22 0.00110596
4 (0 0.5 0) 0 -0.000876473 0 0.000876473
105 (0 0.55 0) 0 -0.000919306 0 0.000919306
104 (0 0.6 0) 0 -0.000952654 0 0.000952654
103 (0 0.65 0) 0 -0.000979258 0 0.000979258
102 (0 0.7 0) 0 -0.00100221 0 0.00100221
101 (0 0.75 0) 0 -0.00102221 0 0.00102221
100 (0 0.8 0) 0 -0.00104253 0 0.00104253
99 (0 0.85 0) 0 -0.00106036 0 0.00106036
98 (0 0.9 0) 0 -0.00107725 0 0.00107725
97 (0 0.95 0) 0 -0.00109503 0 0.00109503
3 (0 1 0) 0 -0.00110596 3.22491e-22 0.00110596
4 (0 0.5 0) 0 -0.00091633 0 0.00091633
105 (0 0.55 0) 0 -0.000961114 0 0.000961114
104 (0 0.6 0) 0 -0.000995979 0 0.000995979
103 (0 0.65 0) 0 -0.00102379 0 0.00102379
102 (0 0.7 0) 0 -0.00104779 0 0.00104779
101 (0 0.75 0) 0 -0.00106869 0 0.00106869
100 (0 0.8 0) 0 -0.00108994 0 0.00108994
99 (0 0.85 0) 0 -0.00110858 0 0.00110858
98 (0 0.9 0) 0 -0.00112624 0 0.00112624
97 (0 0.95 0) 0 -0.00114482 0 0.00114482
3 (0 1 0) 0 -0.00115625 3.37681e-22 0.00115625
4 (0 0.5 0) 0 -0.00091633 0 0.00091633
105 (0 0.55 0) 0 -0.000961114 0 0.000961114
104 (0 0.6 0) 0 -0.000995979 0 0.000995979
103 (0 0.65 0) 0 -0.00102379 0 0.00102379
102 (0 0.7 0) 0 -0.00104779 0 0.00104779
101 (0 0.75 0) 0 -0.00106869 0 0.00106869
100 (0 0.8 0) 0 -0.00108994 0 0.00108994
99 (0 0.85 0) 0 -0.00110858 0 0.00110858
98 (0 0.9 0) 0 -0.00112624 0 0.00112624
97 (0 0.95 0) 0 -0.00114482 0 0.00114482
3 (0 1 0) 0 -0.00115625 3.37681e-22 0.00115625
4 (0 0.5 0) 0 -0.000956187 0 0.000956187
105 (0 0.55 0) 0 -0.00100292 0 0.00100292
104 (0 0.6 0) 0 -0.0010393 0 0.0010393
103 (0 0.65 0) 0 -0.00106833 0 0.00106833
102 (0 0.7 0) 0 -0.00109337 0 0.00109337
101 (0 0.75 0) 0 -0.00111517 0 0.00111517
100 (0 0.8 0) 0 -0.00113735 0 0.00113735
99 (0 0.85 0) 0 -0.0011568 0 0.0011568
98 (0 0.9 0) 0 -0.00117523 0 0.00117523
97 (0 0.95 0) 0 -0.00119462 0 0.00119462
3 (0 1 0) 0 -0.00120655 3.52883e-22 0.00120655
4 (0 0.5 0) 0 -0.000956187 0 0.000956187
105 (0 0.55 0) 0 -0.00100292 0 0.00100292
104 (0 0.6 0) 0 -0.0010393 0 0.0010393
103 (0 0.65 0) 0 -0.00106833 0 0.00106833
102 (0 0.7 0) 0 -0.00109337 0 0.00109337
101 (0 0.75 0) 0 -0.00111517 0 0.00111517
100 (0 0.8 0) 0 -0.00113735 0 0.00113735
99 (0 0.85 0) 0 -0.0011568 0 0.0011568
98 (0 0.9 0) 0 -0.00117523 0 0.00117523
97 (0 0.95 0) 0 -0.00119462 0 0.00119462
3 (0 1 0) 0 -0.00120655 3.52883e-22 0.00120655
4 (0 0.5 0) 0 -0.000996043 0 0.000996043
105 (0 0.55 0) 0 -0.00104473 0 0.00104473
104 (0 0.6 0) 0 -0.00108263 0 0.00108263
103 (0 0.65 0) 0 -0.00111286 0 0.00111286
102 (0 0.7 0) 0 -0.00113895 0 0.00113895
101 (0 0.75 0) 0 -0.00116166 0 0.00116166
100 (0 0.8 0) 0 -0.00118476 0 0.00118476
99 (0 0.85 0) 0 -0.00120503 0 0.00120503
98 (0 0.9 0) 0 -0.00122422 0 0.00122422
97 (0 0.95 0) 0 -0.00124441 0 0.00124441
3 (0 1 0) 0 -0.00125684 3.68096e-22 0.00125684
4 (0 0.5 0) 0 -0.000996043 0 0.000996043
105 (0 0.55 0) 0 -0.00104473 0 0.00104473
104 (0 0.6 0) 0 -0.00108263 0 0.00108263
103 (0 0.65 0) 0 -0.00111286 0 0.00111286
102 (0 0.7 0) 0 -0.00113895 0 0.00113895
101 (0 0.75 0) 0 -0.00116166 0 0.00116166
100 (0 0.8 0) 0 -0.00118476 0 0.00118476
99 (0 0.85 0) 0 -0.00120503 0 0.00120503
98 (0 0.9 0) 0 -0.00122422 0 0.00122422
97 (0 0.95 0) 0 -0.00124441 0 0.00124441
3 (0 1 0) 0 -0.00125684 3.68096e-22 0.00125684
4 (0 0.5 0) 0 -0.0010359 0 0.0010359
105 (0 0.55 0) 0 -0.00108654 0 0.00108654
104 (0 0.6 0) 0 -0.00112595 0 0.00112595
103 (0 0.65 0) 0 -0.00115739 0 0.00115739
102 (0 0.7 0) 0 -0.00118453 0 0.00118453
101 (0 0.75 0) 0 -0.00120814 0 0.00120814
100 (0 0.8 0) 0 -0.00123217 0 0.00123217
99 (0 0.85 0) 0 -0.00125325 0 0.00125325
98 (0 0.9 0) 0 -0.0012732 0 0.0012732
97 (0 0.95 0) 0 -0.00129421 0 0.00129421
3 (0 1 0) 0 -0.00130713 3.83319e-22 0.00130713
4 (0 0.5 0) 0 -0.0010359 0 0.0010359
105 (0 0.55 0) 0 -0.00108654 0 0.00108654
104 (0 0.6 0) 0 -0.00112595 0 0.00112595
103 (0 0.65 0) 0 -0.00115739 0 0.00115739
102 (0 0.7 0) 0 -0.00118453 0 0.00118453
101 (0 0.75 0) 0 -0.00120814 0 0.00120814
100 (0 0.8 0) 0 -0.00123217 0 0.00123217
99 (0 0.85 0) 0 -0.00125325 0 0.00125325
98 (0 0.9 0) 0 -0.0012732 0 0.0012732
97 (0 0.95 0) 0 -0.00129421 0 0.00129421
3 (0 1 0) 0 -0.00130713 3.83319e-22 0.00130713
4 (0 0.5 0) 0 -0.00107576 0 0.00107576
105 (0 0.55 0) 0 -0.00112834 0 0.00112834
104 (0 0.6 0) 0 -0.00116927 0 0.00116927
103 (0 0.65 0) 0 -0.00120193 0 0.00120193
102 (0 0.7 0) 0 -0.00123011 0 0.00123011
101 (0 0.75 0) 0 -0.00125462 0 0.00125462
100 (0 0.8 0) 0 -0.00127958 0 0.00127958
99 (0 0.85 0) 0 -0.00130147 0 0.00130147
98 (0 0.9 0) 0 -0.00132219 0 0.00132219
97 (0 0.95 0) 0 -0.001344 0 0.001344
3 (0 1 0) 0 -0.00135743 3.98552e-22 0.00135743
4 (0 0.5 0) 0 -0.00107576 0 0.00107576
105 (0 0.55 0) 0 -0.00112834 0 0.00112834
104 (0 0.6 0) 0 -0.00116927 0 0.00116927
103 (0 0.65 0) 0 -0.00120193 0 0.00120193
102 (0 0.7 0) 0 -0.00123011 0 0.00123011
101 (0 0.75 0) 0 -0.00125462 0 0.00125462
100 (0 0.8 0) 0 -0.00127958 0 0.00127958
99 (0 0.85 0) 0 -0.00130147 0 0.00130147
98 (0 0.9 0) 0 -0.00132219 0 0.00132219
97 (0 0.95 0) 0 -0.001344 0 0.001344
3 (0 1 0) 0 -0.00135743 3.98552e-22 0.00135743
4 (0 0.5 0) 0 -0.00111529 0 0.00111529
105 (0 0.55 0) 0 -0.00117011 0 0.00117011
104 (0 0.6 0) 0 -0.00121261 0 0.00121261
103 (0 0.65 0) 0 -0.00124648 0 0.00124648
102 (0 0.7 0) 0 -0.00127572 0 0.00127572
101 (0 0.75 0) 0 -0.00130114 0 0.00130114
100 (0 0.8 0) 0 -0.00132703 0 0.00132703
99 (0 0.85 0) 0 -0.00134973 0 0.00134973
98 (0 0.9 0) 0 -0.00137121 0 0.00137121
97 (0 0.95 0) 0 -0.00139383 0 0.00139383
3 (0 1 0) 0 -0.00140776 4.13836e-22 0.00140776
4 (0 0.5 0) 0 -0.00111529 0 0.00111529
105 (0 0.55 0) 0 -0.00117011 0 0.00117011
104 (0 0.6 0) 0 -0.00121261 0 0.00121261
103 (0 0.65 0) 0 -0.00124648 0 0.00124648
102 (0 0.7 0) 0 -0.00127572 0 0.00127572
101 (0 0.75 0) 0 -0.00130114 0 0.00130114
100 (0 0.8 0) 0 -0.00132703 0 0.00132703
99 (0 0.85 0) 0 -0.00134973 0 0.00134973
98 (0 0.9 0) 0 -0.00137121 0 0.00137121
97 (0 0.95 0) 0 -0.00139383 0 0.00139383
3 (0 1 0) 0 -0.00140776 4.13836e-22 0.00140776
4 (0 0.5 0) 0 -0.00115601 0 0.00115601
105 (0 0.55 0) 0 -0.00121675 0 0.00121675
104 (0 0.6 0) 0 -0.00126105 0 0.00126105
103 (0 0.65 0) 0 -0.00129613 0 0.00129613
102 (0 0.7 0) 0 -0.00132629 0 0.00132629
101 (0 0.75 0) 0 -0.00135236 0 0.00135236
100 (0 0.8 0) 0 -0.001379 0 0.001379
99 (0 0.85 0) 0 -0.00140241 0 0.00140241
98 (0 0.9 0) 0 -0.00142459 0 0.00142459
97 (0 0.95 0) 0 -0.00144797 0 0.00144797
3 (0 1 0) 0 -0.00146234 4.35578e-22 0.00146234
4 (0 0.5 0) 0 -0.00115601 0 0.00115601
105 (0 0.55 0) 0 -0.00121675 0 0.00121675
104 (0 0.6 0) 0 -0.00126105 0 0.00126105
103 (0 0.65 0) 0 -0.00129613 0 0.00129613
102 (0 0.7 0) 0 -0.00132629 0 0.00132629
101 (0 0.75 0) 0 -0.00135236 0 0.00135236
100 (0 0.8 0) 0 -0.001379 0 0.001379
99 (0 0.85 0) 0 -0.00140241 0 0.00140241
98 (0 0.9 0) 0 -0.00142459 0 0.00142459
97 (0 0.95 0) 0 -0.00144797 0 0.00144797
3 (0 1 0) 0 -0.00146234 4.35578e-22 0.00146234
4 (0 0.5 0) 0 -0.0011975 0 0.0011975
105 (0 0.55 0) 0 -0.00126517 0 0.00126517
104 (0 0.6 0) 0 -0.00131129 0 0.00131129
103 (0 0.65 0) 0 -0.00134765 0 0.00134765
102 (0 0.7 0) 0 -0.00137871 0 0.00137871
101 (0 0.75 0) 0 -0.00140535 0 0.00140535
100 (0 0.8 0) 0 -0.00143268 0 0.00143268
99 (0 0.85 0) 0 -0.00145676 0 0.00145676
98 (0 0.9 0) 0 -0.00147961 0 0.00147961
97 (0 0.95 0) 0 -0.00150376 0 0.00150376
3 (0 1 0) 0 -0.00151855 4.59758e-22 0.00151855
4 (0 0.5 0) 0 -0.0011975 0 0.0011975
105 (0 0.55 0) 0 -0.00126517 0 0.00126517
104 (0 0.6 0) 0 -0.00131129 0 0.00131129
103 (0 0.65 0) 0 -0.00134765 0 0.00134765
102 (0 0.7 0) 0 -0.00137871 0 0.00137871
101 (0 0.75 0) 0 -0.00140535 0 0.00140535
100 (0 0.8 0) 0 -0.00143268 0 0.00143268
99 (0 0.85 0) 0 -0.00145676 0 0.00145676
98 (0 0.9 0) 0 -0.00147961 0 0.00147961
97 (0 0.95 0) 0 -0.00150376 0 0.00150376
3 (0 1 0) 0 -0.00151855 4.59758e-22 0.00151855
4 (0 0.5 0) 0 -0.00123889 0 0.00123889
105 (0 0.55 0) 0 -0.00131381 0 0.00131381
104 (0 0.6 0) 0 -0.00136176 0 0.00136176
103 (0 0.65 0) 0 -0.00139959 0 0.00139959
102 (0 0.7 0) 0 -0.00143161 0 0.00143161
101 (0 0.75 0) 0 -0.00145882 0 0.00145882
100 (0 0.8 0) 0 -0.00148685 0 0.00148685
99 (0 0.85 0) 0 -0.00151159 0 0.00151159
98 (0 0.9 0) 0 -0.00153513 0 0.00153513
97 (0 0.95 0) 0 -0.00156003 0 0.00156003
3 (0 1 0) 0 -0.00157524 4.84556e-22 0.00157524
4 (0 0.5 0) 0 -0.00123889 0 0.00123889
105 (0 0.55 0) 0 -0.00131381 0 0.00131381
104 (0 0.6 0) 0 -0.00136176 0 0.00136176
103 (0 0.65 0) 0 -0.00139959 0 0.00139959
102 (0 0.7 0) 0 -0.00143161 0 0.00143161
101 (0 0.75 0) 0 -0.00145882 0 0.00145882
100 (0 0.8 0) 0 -0.00148685 0 0.00148685
99 (0 0.85 0) 0 -0.00151159 0 0.00151159
98 (0 0.9 0) 0 -0.00153513 0 0.00153513
97 (0 0.95 0) 0 -0.00156003 0 0.00156003
3 (0 1 0) 0 -0.00157524 4.84556e-22 0.00157524
4 (0 0.5 0) 0 -0.0012805 0 0.0012805
105 (0 0.55 0) 0 -0.00136261 0 0.00136261
104 (0 0.6 0) 0 -0.00141249 0 0.00141249
103 (0 0.65 0) 0 -0.00145201 0 0.00145201
102 (0 0.7 0) 0 -0.00148513 0 0.00148513
101 (0 0.75 0) 0 -0.00151293 0 0.00151293
100 (0 0.8 0) 0 -0.00154167 0 0.00154167
99 (0 0.85 0) 0 -0.00156709 0 0.00156709
98 (0 0.9 0) 0 -0.0015913 0 0.0015913
97 (0 0.95 0) 0 -0.00161696 0 0.00161696
3 (0 1 0) 0 -0.00163258 5.10048e-22 0.00163258
4 (0 0.5 0) 0 -0.0012805 0 0.0012805
105 (0 0.55 0) 0 -0.00136261 0 0.00136261
104 (0 0.6 0) 0 -0.00141249 0 0.00141249
103 (0 0.65 0) 0 -0.00145201 0 0.00145201
102 (0 0.7 0) 0 -0.00148513 0 0.00148513
101 (0 0.75 0) 0 -0.00151293 0 0.00151293
100 (0 0.8 0) 0 -0.00154167 0 0.00154167
99 (0 0.85 0) 0 -0.00156709 0 0.00156709
98 (0 0.9 0) 0 -0.0015913 0 0.0015913