/*--------------------------------*- C++ -*----------------------------------*\
| =========                 |                                                 |
| \\      /  F ield         | OpenFOAM: The Open Source CFD Toolbox           |
|  \\    /   O peration     | Version:  v2012                                 |
|   \\  /    A nd           | Website:  www.openfoam.com                      |
|    \\/     M anipulation  |                                                 |
\*---------------------------------------------------------------------------*/
FoamFile
{
    version     2.0;
    format      ascii;
    class       volSymmTensorField;
    location    "8";
    object      DEpsilonP;
}
// * * * * * * * * * * * * * * * * * * * * * * * * * * * * * * * * * * * * * //

dimensions      [0 0 0 0 0 0 0];


internalField   nonuniform List<symmTensor> 
16000
(
(0.000353842 -6.71934e-06 -9.31512e-22 -0.000330259 1.7032e-19 -2.35833e-05)
(0.000353971 -6.69112e-06 1.32185e-19 -0.000328318 1.67077e-19 -2.56534e-05)
(0.000354567 -6.68239e-06 -6.45507e-22 -0.000326446 -1.65652e-19 -2.81209e-05)
(0.000354965 -6.64963e-06 2.59424e-19 -0.000324463 -3.27992e-19 -3.05016e-05)
(0.000355502 -6.62945e-06 -1.30105e-19 -0.000322194 6.36995e-22 -3.33081e-05)
(0.000355827 -6.5949e-06 -1.26533e-27 -0.000319796 8.40627e-26 -3.60309e-05)
(0.000356179 -6.55887e-06 -1.32346e-19 -0.000316983 -3.08155e-19 -3.91957e-05)
(0.000356321 -6.5061e-06 3.6732e-21 -0.000314042 3.01785e-19 -4.22786e-05)
(0.000356384 -6.44391e-06 -1.26357e-19 -0.000310594 1.46982e-19 -4.57905e-05)
(0.000356325 -6.38071e-06 -2.58853e-19 -0.000307024 -1.43611e-19 -4.93009e-05)
(0.000356199 -6.29543e-06 -1.25011e-19 -0.000302965 1.38143e-19 -5.32341e-05)
(0.000355836 -6.20001e-06 1.27653e-19 -0.000298668 7.53787e-22 -5.7168e-05)
(0.000355136 -6.09901e-06 -1.93149e-27 -0.000293709 -2.71612e-26 -6.14269e-05)
(0.000354329 -5.97322e-06 8.81409e-21 -0.000288525 2.47271e-19 -6.58041e-05)
(0.000352652 -5.78101e-06 3.74941e-19 -0.00028224 -1.12511e-19 -7.04115e-05)
(0.00034968 -5.588e-06 -1.10138e-20 -0.000274963 -2.22288e-19 -7.47172e-05)
(0.000347367 -5.34634e-06 6.17006e-21 -0.000267828 1.04497e-19 -7.95389e-05)
(0.000345397 -5.00854e-06 -1.97382e-29 -0.000260772 1.75565e-26 -8.46249e-05)
(0.000345502 -4.76859e-06 -2.5522e-27 -0.00025534 -1.60132e-26 -9.01617e-05)
(0.0003503 -4.60958e-06 -2.4613e-19 -0.000252712 7.8281e-20 -9.75884e-05)
(0.000338161 -4.07539e-06 -9.0778e-21 -0.000237603 -7.60079e-20 -0.000100558)
(0.000142722 -1.50874e-06 -6.07671e-20 -9.77488e-05 -6.06026e-20 -4.4973e-05)
(0 0 0 0 0 0)
(0 0 0 0 0 0)
(0 0 0 0 0 0)
(0 0 0 0 0 0)
(0 0 0 0 0 0)
(0 0 0 0 0 0)
(0 0 0 0 0 0)
(0 0 0 0 0 0)
(0 0 0 0 0 0)
(0 0 0 0 0 0)
(0 0 0 0 0 0)
(0 0 0 0 0 0)
(0 0 0 0 0 0)
(0 0 0 0 0 0)
(0 0 0 0 0 0)
(0 0 0 0 0 0)
(0 0 0 0 0 0)
(0 0 0 0 0 0)
(0.000353793 -2.0169e-05 -1.34032e-19 -0.000330054 8.98727e-20 -2.37392e-05)
(0.000353821 -2.00839e-05 3.96892e-19 -0.000328 1.51143e-19 -2.58207e-05)
(0.000354251 -2.00329e-05 1.27141e-19 -0.000325953 -3.35766e-19 -2.82978e-05)
(0.000354502 -1.99392e-05 -2.60098e-21 -0.000323821 -1.66962e-19 -3.06809e-05)
(0.000355011 -1.9862e-05 -1.23702e-19 -0.000321491 3.25972e-19 -3.35202e-05)
(0.000355335 -1.97588e-05 2.01545e-27 -0.00031906 4.18996e-26 -3.62748e-05)
(0.000355687 -1.96446e-05 -9.40075e-21 -0.000316213 -3.05972e-19 -3.94746e-05)
(0.000355925 -1.95038e-05 -1.1772e-19 -0.000313295 3.03045e-19 -4.26305e-05)
(0.000356138 -1.93427e-05 2.77353e-19 -0.000309941 4.38531e-19 -4.61966e-05)
(0.000356161 -1.91339e-05 -2.64421e-19 -0.000306396 -1.37922e-19 -4.9765e-05)
(0.00035606 -1.89192e-05 -1.78184e-20 -0.000302316 -2.74656e-19 -5.37438e-05)
(0.000356055 -1.8639e-05 2.4589e-19 -0.000298221 -1.33121e-19 -5.7834e-05)
(0.000355369 -1.82704e-05 -1.16174e-19 -0.000293191 1.26402e-19 -6.21774e-05)
(0.000354176 -1.79177e-05 1.14071e-19 -0.000287663 -1.19822e-19 -6.65127e-05)
(0.00035303 -1.73267e-05 4.93654e-19 -0.000281746 -1.0438e-19 -7.12845e-05)
(0.00035061 -1.66613e-05 1.68483e-20 -0.000274744 1.10201e-19 -7.58663e-05)
(0.000348162 -1.60255e-05 1.89282e-20 -0.000267547 1.03489e-19 -8.06145e-05)
(0.000347864 -1.50319e-05 2.5268e-19 -0.000261679 1.56444e-20 -8.61848e-05)
(0.000347327 -1.427e-05 1.72975e-19 -0.000255409 1.89941e-19 -9.19176e-05)
(0.000342684 -1.34479e-05 2.77276e-19 -0.000246023 1.05949e-19 -9.66611e-05)
(0.00029411 -1.03175e-05 -4.83221e-20 -0.000205461 -1.28521e-19 -8.86487e-05)
(8.83924e-05 -2.60798e-06 -7.67891e-21 -6.02565e-05 -1.74508e-20 -2.81359e-05)
(0 0 0 0 0 0)
(0 0 0 0 0 0)
(0 0 0 0 0 0)
(0 0 0 0 0 0)
(0 0 0 0 0 0)
(0 0 0 0 0 0)
(0 0 0 0 0 0)
(0 0 0 0 0 0)
(0 0 0 0 0 0)
(0 0 0 0 0 0)
(0 0 0 0 0 0)
(0 0 0 0 0 0)
(0 0 0 0 0 0)
(0 0 0 0 0 0)
(0 0 0 0 0 0)
(0 0 0 0 0 0)
(0 0 0 0 0 0)
(0 0 0 0 0 0)
(0.000353555 -3.36536e-05 -1.28716e-19 -0.000329523 -1.61876e-19 -2.40323e-05)
(0.000353487 -3.34908e-05 1.29151e-19 -0.000327333 -1.81183e-19 -2.61541e-05)
(0.000353746 -3.33848e-05 7.20109e-21 -0.000325074 3.28949e-19 -2.86714e-05)
(0.000353804 -3.32172e-05 -1.3053e-19 -0.000322713 1.13989e-20 -3.10906e-05)
(0.00035417 -3.30664e-05 -1.06187e-27 -0.000320197 -4.48233e-26 -3.39731e-05)
(0.000354445 -3.28797e-05 1.22967e-19 -0.000317672 -1.62539e-19 -3.67732e-05)
(0.000354904 -3.26767e-05 1.21261e-19 -0.000314842 -1.59875e-19 -4.00618e-05)
(0.000355308 -3.24582e-05 -2.58465e-19 -0.000311987 9.41956e-21 -4.33207e-05)
(0.000355748 -3.21915e-05 2.8097e-19 -0.000308716 2.81145e-19 -4.70319e-05)
(0.000356136 -3.18784e-05 2.71635e-19 -0.000305382 1.3879e-19 -5.07546e-05)
(0.000356092 -3.14736e-05 -3.04777e-19 -0.000301222 -4.12342e-19 -5.48699e-05)
(0.000355854 -3.10185e-05 -1.11187e-19 -0.000296823 1.292e-19 -5.90311e-05)
(0.000355338 -3.03482e-05 -1.08147e-19 -0.00029174 1.2481e-19 -6.35982e-05)
(0.000353649 -2.9561e-05 -6.99384e-20 -0.00028565 -3.6305e-19 -6.79989e-05)
(0.000352007 -2.86498e-05 -1.28329e-19 -0.000279297 -8.11474e-21 -7.27098e-05)
(0.000351377 -2.74565e-05 5.87468e-20 -0.000273454 2.1579e-19 -7.79233e-05)
(0.000349834 -2.62877e-05 -1.60873e-19 -0.00026677 -1.12448e-19 -8.30644e-05)
(0.000349943 -2.50198e-05 9.08779e-20 -0.000261155 -8.25305e-20 -8.87879e-05)
(0.000345061 -2.3133e-05 -1.27764e-19 -0.000251248 -1.7379e-20 -9.38134e-05)
(0.000319126 -2.02145e-05 4.37369e-19 -0.000226754 1.97111e-19 -9.23718e-05)
(0.000190934 -1.07935e-05 2.72409e-20 -0.00013215 3.95948e-20 -5.87842e-05)
(5.59401e-06 -2.41219e-07 1.28055e-21 -3.79082e-06 -6.76889e-22 -1.80319e-06)
(0 0 0 0 0 0)
(0 0 0 0 0 0)
(0 0 0 0 0 0)
(0 0 0 0 0 0)
(0 0 0 0 0 0)
(0 0 0 0 0 0)
(0 0 0 0 0 0)
(0 0 0 0 0 0)
(0 0 0 0 0 0)
(0 0 0 0 0 0)
(0 0 0 0 0 0)
(0 0 0 0 0 0)
(0 0 0 0 0 0)
(0 0 0 0 0 0)
(0 0 0 0 0 0)
(0 0 0 0 0 0)
(0 0 0 0 0 0)
(0 0 0 0 0 0)
(0.000353027 -4.71649e-05 2.67714e-21 -0.00032855 -8.56985e-20 -2.44767e-05)
(0.000352911 -4.69071e-05 -2.64321e-19 -0.000326253 2.73671e-20 -2.66586e-05)
(0.0003531 -4.67482e-05 6.66227e-23 -0.000323843 2.00405e-21 -2.92572e-05)
(0.000353095 -4.64973e-05 -1.37869e-19 -0.000321331 -1.53797e-19 -3.17638e-05)
(0.000353323 -4.62606e-05 -1.3054e-19 -0.000318592 9.41926e-21 -3.47303e-05)
(0.000353565 -4.59926e-05 -1.0276e-20 -0.000315943 -1.57748e-19 -3.76225e-05)
(0.00035415 -4.57107e-05 1.21716e-20 -0.000313108 1.5229e-19 -4.10416e-05)
(0.000354772 -4.54029e-05 -1.15369e-19 -0.00031033 1.5565e-19 -4.4442e-05)
(0.000355457 -4.50316e-05 -1.46927e-19 -0.000307103 -1.39326e-19 -4.83543e-05)
(0.000356076 -4.46019e-05 3.19906e-19 -0.000303764 4.14225e-19 -5.23118e-05)
(0.00035615 -4.39605e-05 1.54222e-19 -0.000299506 1.40109e-19 -5.66431e-05)
(0.000355322 -4.31665e-05 -3.13e-19 -0.000294406 -2.6201e-19 -6.09165e-05)
(0.000353918 -4.20963e-05 1.29816e-19 -0.00028842 5.28771e-21 -6.54982e-05)
(0.000352187 -4.07662e-05 9.53258e-20 -0.000282043 -1.07725e-19 -7.01439e-05)
(0.000350116 -3.92992e-05 -4.25528e-19 -0.000275112 -1.40566e-19 -7.50033e-05)
(0.000349507 -3.77053e-05 -8.55396e-20 -0.000269176 8.90877e-20 -8.03309e-05)
(0.000348733 -3.58345e-05 -2.58946e-19 -0.000262656 -3.45648e-20 -8.60766e-05)
(0.000342157 -3.33758e-05 -2.55291e-19 -0.00025185 -4.16409e-20 -9.03077e-05)
(0.000319602 -2.9259e-05 -1.19048e-19 -0.000229413 -2.21405e-20 -9.01892e-05)
(0.000249798 -2.08929e-05 4.8412e-22 -0.000174809 5.29717e-22 -7.4989e-05)
(7.06962e-05 -5.00506e-06 2.676e-20 -4.84866e-05 6.71534e-21 -2.22096e-05)
(0 0 0 0 0 0)
(0 0 0 0 0 0)
(0 0 0 0 0 0)
(0 0 0 0 0 0)
(0 0 0 0 0 0)
(0 0 0 0 0 0)
(0 0 0 0 0 0)
(0 0 0 0 0 0)
(0 0 0 0 0 0)
(0 0 0 0 0 0)
(0 0 0 0 0 0)
(0 0 0 0 0 0)
(0 0 0 0 0 0)
(0 0 0 0 0 0)
(0 0 0 0 0 0)
(0 0 0 0 0 0)
(0 0 0 0 0 0)
(0 0 0 0 0 0)
(0 0 0 0 0 0)
(0.000352038 -6.06563e-05 1.33491e-19 -0.00032696 -1.46475e-20 -2.50775e-05)
(0.000351888 -6.03088e-05 -1.38339e-19 -0.000324566 -1.4984e-19 -2.73218e-05)
(0.000352139 -6.00956e-05 2.71562e-19 -0.000322108 1.33355e-19 -3.00312e-05)
(0.000352234 -5.97688e-05 9.81757e-21 -0.000319588 1.65889e-19 -3.26464e-05)
(0.000352642 -5.94717e-05 -1.42826e-19 -0.000316862 -1.44827e-19 -3.57808e-05)
(0.000353103 -5.91457e-05 1.02661e-19 -0.00031423 -3.18493e-19 -3.88732e-05)
(0.000353844 -5.87899e-05 -2.62074e-19 -0.000311344 1.63622e-20 -4.25004e-05)
(0.000354637 -5.83844e-05 4.13673e-19 -0.000308503 1.29057e-19 -4.6134e-05)
(0.000355249 -5.78421e-05 -1.55249e-19 -0.000304961 -1.38948e-19 -5.0288e-05)
(0.000355443 -5.71376e-05 1.03635e-19 -0.000301021 -1.38722e-19 -5.4422e-05)
(0.000355024 -5.615e-05 6.89162e-19 -0.000296039 1.35948e-19 -5.89852e-05)
(0.000353599 -5.48436e-05 1.68657e-19 -0.000290173 1.30867e-19 -6.34256e-05)
(0.000351699 -5.32301e-05 -2.16509e-19 -0.000283532 -2.47469e-19 -6.81675e-05)
(0.000350243 -5.14503e-05 4.72042e-20 -0.000277102 1.09326e-19 -7.31413e-05)
(0.000348657 -4.93862e-05 -2.15184e-20 -0.000270178 1.92573e-19 -7.84787e-05)
(0.000345661 -4.68693e-05 -1.99785e-19 -0.000262095 5.43811e-20 -8.35657e-05)
(0.000336737 -4.33476e-05 2.57127e-19 -0.000249358 5.21323e-20 -8.7379e-05)
(0.000311209 -3.766e-05 -1.3732e-19 -0.000224816 -1.44049e-19 -8.63922e-05)
(0.000252991 -2.81758e-05 7.1987e-20 -0.000178355 -5.36128e-20 -7.46358e-05)
(9.51084e-05 -9.21422e-06 -1.10352e-19 -6.57619e-05 -3.35914e-20 -2.93464e-05)
(0 0 0 0 0 0)
(0 0 0 0 0 0)
(0 0 0 0 0 0)
(0 0 0 0 0 0)
(0 0 0 0 0 0)
(0 0 0 0 0 0)
(0 0 0 0 0 0)
(0 0 0 0 0 0)
(0 0 0 0 0 0)
(0 0 0 0 0 0)
(0 0 0 0 0 0)
(0 0 0 0 0 0)
(0 0 0 0 0 0)
(0 0 0 0 0 0)
(0 0 0 0 0 0)
(0 0 0 0 0 0)
(0 0 0 0 0 0)
(0 0 0 0 0 0)
(0 0 0 0 0 0)
(0 0 0 0 0 0)
(0.000350726 -7.41519e-05 1.31331e-19 -0.000324866 6.71882e-20 -2.58596e-05)
(0.000350705 -7.37389e-05 2.57348e-19 -0.000322473 -2.06781e-19 -2.82322e-05)
(0.000351171 -7.35064e-05 -1.43342e-19 -0.000320058 -1.48914e-19 -3.11129e-05)
(0.000351579 -7.31411e-05 1.58081e-19 -0.000317675 3.03163e-19 -3.39038e-05)
(0.000352436 -7.28387e-05 1.16225e-19 -0.00031515 -1.71562e-19 -3.72851e-05)
(0.000353272 -7.24703e-05 -4.53325e-22 -0.000312655 -3.60601e-21 -4.06169e-05)
(0.000354165 -7.19971e-05 -2.88098e-19 -0.000309619 -1.28633e-19 -4.45454e-05)
(0.000354653 -7.13776e-05 -2.66751e-19 -0.000306219 6.90859e-21 -4.84333e-05)
(0.000354552 -7.04369e-05 1.65972e-19 -0.00030172 1.38547e-19 -5.28319e-05)
(0.000353596 -6.92022e-05 -1.14027e-19 -0.000296485 -4.02367e-19 -5.71112e-05)
(0.000352004 -6.75849e-05 -2.22587e-19 -0.000290189 1.15331e-19 -6.18148e-05)
(0.000350251 -6.56649e-05 3.33166e-19 -0.000283708 4.86329e-19 -6.65431e-05)
(0.000348954 -6.35762e-05 5.87251e-20 -0.000277142 1.14391e-19 -7.18122e-05)
(0.000347469 -6.11569e-05 -1.9744e-19 -0.000270273 -1.2138e-19 -7.71959e-05)
(0.000342347 -5.77728e-05 3.38e-19 -0.000260322 1.44715e-19 -8.20244e-05)
(0.000328869 -5.27591e-05 -1.57702e-19 -0.000244246 -1.65399e-19 -8.46236e-05)
(0.000296291 -4.47699e-05 7.09393e-20 -0.000214601 -7.24799e-20 -8.16897e-05)
(0.000232388 -3.238e-05 1.82847e-19 -0.000164483 5.82733e-20 -6.79055e-05)
(9.2335e-05 -1.13266e-05 1.02287e-20 -6.419e-05 2.64675e-20 -2.81449e-05)
(0 0 0 0 0 0)
(0 0 0 0 0 0)
(0 0 0 0 0 0)
(0 0 0 0 0 0)
(0 0 0 0 0 0)
(0 0 0 0 0 0)
(0 0 0 0 0 0)
(0 0 0 0 0 0)
(0 0 0 0 0 0)
(0 0 0 0 0 0)
(0 0 0 0 0 0)
(0 0 0 0 0 0)
(0 0 0 0 0 0)
(0 0 0 0 0 0)
(0 0 0 0 0 0)
(0 0 0 0 0 0)
(0 0 0 0 0 0)
(0 0 0 0 0 0)
(0 0 0 0 0 0)
(0 0 0 0 0 0)
(0 0 0 0 0 0)
(0.000349488 -8.77437e-05 1.36164e-19 -0.000322604 -1.06895e-19 -2.68839e-05)
(0.000349703 -8.72562e-05 2.78321e-19 -0.000320266 1.18866e-19 -2.94371e-05)
(0.000350513 -8.70347e-05 -1.04275e-19 -0.000317953 3.52283e-19 -3.25598e-05)
(0.000351379 -8.66559e-05 -2.84647e-19 -0.000315766 -1.23383e-19 -3.5613e-05)
(0.00035272 -8.63564e-05 1.33792e-19 -0.00031339 -1.68336e-20 -3.93297e-05)
(0.000353786 -8.59111e-05 2.6701e-20 -0.000310814 1.56248e-19 -4.29723e-05)
(0.000354486 -8.52066e-05 3.32467e-19 -0.000307235 2.78208e-19 -4.72505e-05)
(0.000354132 -8.41402e-05 -6.1246e-19 -0.000302743 -2.57598e-19 -5.13888e-05)
(0.000352756 -8.25596e-05 3.38889e-21 -0.000296753 -4.07915e-19 -5.60029e-05)
(0.000350515 -8.05422e-05 1.01768e-19 -0.000290012 2.56498e-19 -6.05028e-05)
(0.00034793 -7.81152e-05 1.93435e-21 -0.000282471 3.95451e-21 -6.54587e-05)
(0.000345792 -7.54464e-05 -2.01795e-19 -0.000275216 -1.27021e-19 -7.0576e-05)
(0.000342873 -7.23288e-05 2.68104e-19 -0.000266889 4.27206e-20 -7.59839e-05)
(0.000334719 -6.77499e-05 4.69092e-20 -0.000254581 -6.30716e-20 -8.01381e-05)
(0.000315187 -6.06428e-05 3.41038e-19 -0.000233895 1.43783e-19 -8.1292e-05)
(0.000274345 -4.97532e-05 3.0825e-19 -0.000198686 1.30776e-19 -7.56591e-05)
(0.00020312 -3.39865e-05 -1.38574e-19 -0.000143885 -7.97793e-20 -5.9235e-05)
(7.11231e-05 -1.05419e-05 7.84723e-20 -4.964e-05 3.72578e-20 -2.1483e-05)
(0 0 0 0 0 0)
(0 0 0 0 0 0)
(0 0 0 0 0 0)
(0 0 0 0 0 0)
(0 0 0 0 0 0)
(0 0 0 0 0 0)
(0 0 0 0 0 0)
(0 0 0 0 0 0)
(0 0 0 0 0 0)
(0 0 0 0 0 0)
(0 0 0 0 0 0)
(0 0 0 0 0 0)
(0 0 0 0 0 0)
(0 0 0 0 0 0)
(0 0 0 0 0 0)
(0 0 0 0 0 0)
(0 0 0 0 0 0)
(0 0 0 0 0 0)
(0 0 0 0 0 0)
(0 0 0 0 0 0)
(0 0 0 0 0 0)
(0 0 0 0 0 0)
(0.000348421 -0.000101486 -1.35496e-19 -0.000320224 2.2493e-20 -2.81967e-05)
(0.000348912 -0.000100928 -2.5398e-19 -0.000317961 2.16365e-19 -3.09503e-05)
(0.000350203 -0.000100769 1.93459e-19 -0.000315812 4.66469e-19 -3.43909e-05)
(0.000351517 -0.000100393 2.8466e-22 -0.000313747 1.91232e-21 -3.77698e-05)
(0.000353122 -0.000100035 -2.23679e-19 -0.000311203 -4.50095e-19 -4.19195e-05)
(0.000353878 -9.93135e-05 2.38006e-19 -0.000307923 -1.75656e-19 -4.5955e-05)
(0.000353644 -9.80486e-05 2.62602e-19 -0.000303033 4.20755e-19 -5.06112e-05)
(0.000352026 -9.62049e-05 5.99239e-19 -0.000296972 1.30472e-19 -5.50539e-05)
(0.000349405 -9.37118e-05 -4.48555e-19 -0.000289425 -3.91383e-19 -5.99792e-05)
(0.000346316 -9.07823e-05 -1.35295e-19 -0.000281498 -2.38987e-19 -6.48183e-05)
(0.000342488 -8.72753e-05 4.26533e-19 -0.000272427 2.50936e-19 -7.00608e-05)
(0.000336451 -8.28835e-05 3.12732e-19 -0.000261647 2.23149e-19 -7.48038e-05)
(0.000322382 -7.62464e-05 -9.63692e-20 -0.000244496 -8.47811e-20 -7.78864e-05)
(0.00029217 -6.56948e-05 -2.19486e-19 -0.000216136 -1.05829e-19 -7.60338e-05)
(0.000238877 -5.04565e-05 -1.99785e-19 -0.000172451 -7.24484e-20 -6.64261e-05)
(0.000162523 -3.1662e-05 6.75868e-20 -0.000115044 2.75578e-20 -4.74788e-05)
(3.71297e-05 -6.44229e-06 -1.49358e-20 -2.59829e-05 -6.48697e-21 -1.11468e-05)
(0 0 0 0 0 0)
(0 0 0 0 0 0)
(0 0 0 0 0 0)
(0 0 0 0 0 0)
(0 0 0 0 0 0)
(0 0 0 0 0 0)
(0 0 0 0 0 0)
(0 0 0 0 0 0)
(0 0 0 0 0 0)
(0 0 0 0 0 0)
(0 0 0 0 0 0)
(0 0 0 0 0 0)
(0 0 0 0 0 0)
(0 0 0 0 0 0)
(0 0 0 0 0 0)
(0 0 0 0 0 0)
(0 0 0 0 0 0)
(0 0 0 0 0 0)
(0 0 0 0 0 0)
(0 0 0 0 0 0)
(0 0 0 0 0 0)
(0 0 0 0 0 0)
(0 0 0 0 0 0)
(0.0003478 -0.000115515 7.44567e-23 -0.000317893 2.1378e-21 -2.99066e-05)
(0.000348861 -0.000114981 -2.93779e-19 -0.000315883 -1.10068e-19 -3.29775e-05)
(0.000350887 -0.00011497 1.37664e-19 -0.000313992 -2.25838e-20 -3.68954e-05)
(0.000352392 -0.000114517 5.85707e-19 -0.00031169 8.19246e-20 -4.0702e-05)
(0.000353423 -0.000113762 -3.57417e-19 -0.000308089 -2.74884e-19 -4.53346e-05)
(0.000352616 -0.000112201 -1.87281e-19 -0.000302922 -1.36983e-19 -4.96941e-05)
(0.000350261 -0.000109743 -4.19673e-19 -0.000295627 6.82424e-21 -5.46336e-05)
(0.000346737 -0.000106626 4.83427e-19 -0.000287422 1.38461e-19 -5.93148e-05)
(0.000342658 -0.000102892 7.76645e-20 -0.000278105 1.17936e-19 -6.45534e-05)
(0.000337443 -9.84914e-05 -3.15209e-19 -0.000267919 -2.31243e-19 -6.95241e-05)
(0.000327126 -9.22842e-05 -5.09539e-19 -0.000253304 -1.80719e-19 -7.38226e-05)
(0.000305643 -8.27855e-05 -2.54068e-20 -0.000230729 3.80682e-20 -7.49145e-05)
(0.000263066 -6.78004e-05 -1.97537e-20 -0.000193433 3.62947e-20 -6.96326e-05)
(0.000196843 -4.76283e-05 -3.57913e-22 -0.000141549 3.62229e-21 -5.52946e-05)
(0.000100503 -2.23351e-05 -1.3135e-19 -7.10448e-05 -5.61428e-20 -2.94579e-05)
(4.22261e-07 -8.35623e-08 -3.68818e-22 -2.96315e-07 -1.5511e-22 -1.25946e-07)
(0 0 0 0 0 0)
(0 0 0 0 0 0)
(0 0 0 0 0 0)
(0 0 0 0 0 0)
(0 0 0 0 0 0)
(0 0 0 0 0 0)
(0 0 0 0 0 0)
(0 0 0 0 0 0)
(0 0 0 0 0 0)
(0 0 0 0 0 0)
(0 0 0 0 0 0)
(0 0 0 0 0 0)
(0 0 0 0 0 0)
(0 0 0 0 0 0)
(0 0 0 0 0 0)
(0 0 0 0 0 0)
(0 0 0 0 0 0)
(0 0 0 0 0 0)
(0 0 0 0 0 0)
(0 0 0 0 0 0)
(0 0 0 0 0 0)
(0 0 0 0 0 0)
(0 0 0 0 0 0)
(0 0 0 0 0 0)
(0.000348371 -0.000130204 1.49844e-20 -0.000316209 1.69458e-19 -3.21625e-05)
(0.000350113 -0.000129714 1.39735e-19 -0.000314439 -2.68009e-20 -3.56737e-05)
(0.000352417 -0.000129673 3.29068e-20 -0.000312216 -5.05846e-19 -4.02016e-05)
(0.000352936 -0.000128594 2.72555e-19 -0.000308471 4.41587e-19 -4.4465e-05)
(0.000351731 -0.000126603 1.07586e-19 -0.000302224 2.93809e-19 -4.9507e-05)
(0.000347898 -0.000123356 -2.84797e-19 -0.000293872 5.83916e-21 -5.40265e-05)
(0.000342521 -0.00011905 -2.15392e-19 -0.000283405 -1.28282e-19 -5.91156e-05)
(0.00033605 -0.000114058 -3.15095e-19 -0.000272222 -2.41218e-19 -6.38271e-05)
(0.000326953 -0.000107796 3.78154e-19 -0.000258319 1.47584e-19 -6.8634e-05)
(0.000311085 -9.91253e-05 1.10175e-19 -0.000239529 8.38142e-20 -7.15562e-05)
(0.000279105 -8.5327e-05 2.29289e-19 -0.000208955 1.31646e-19 -7.01499e-05)
(0.000223261 -6.48884e-05 -9.62052e-20 -0.000162961 -3.23215e-20 -6.03006e-05)
(0.00015008 -4.0886e-05 -7.1329e-20 -0.000107264 -2.55058e-20 -4.28153e-05)
(4.37442e-05 -1.09245e-05 -1.89302e-21 -3.09165e-05 2.58542e-21 -1.28277e-05)
(0 0 0 0 0 0)
(0 0 0 0 0 0)
(0 0 0 0 0 0)
(0 0 0 0 0 0)
(0 0 0 0 0 0)
(0 0 0 0 0 0)
(0 0 0 0 0 0)
(0 0 0 0 0 0)
(0 0 0 0 0 0)
(0 0 0 0 0 0)
(0 0 0 0 0 0)
(0 0 0 0 0 0)
(0 0 0 0 0 0)
(0 0 0 0 0 0)
(0 0 0 0 0 0)
(0 0 0 0 0 0)
(0 0 0 0 0 0)
(0 0 0 0 0 0)
(0 0 0 0 0 0)
(0 0 0 0 0 0)
(0 0 0 0 0 0)
(0 0 0 0 0 0)
(0 0 0 0 0 0)
(0 0 0 0 0 0)
(0 0 0 0 0 0)
(0 0 0 0 0 0)
(0.000350763 -0.000145985 -1.57606e-19 -0.000315487 -5.24625e-20 -3.52761e-05)
(0.000352448 -0.000145165 -2.24067e-19 -0.000313131 -3.0484e-19 -3.93166e-05)
(0.000352998 -0.000144166 -1.48484e-26 -0.000308551 -4.67675e-26 -4.44474e-05)
(0.000349831 -0.000141076 -2.42693e-20 -0.000300932 3.08307e-19 -4.8899e-05)
(0.000344027 -0.000136488 3.62171e-19 -0.000290002 1.29494e-19 -5.40247e-05)
(0.000336018 -0.000130668 -1.43246e-19 -0.000277584 -6.37689e-21 -5.84337e-05)
(0.000326189 -0.000123711 1.86736e-19 -0.00026291 -7.18598e-20 -6.32789e-05)
(0.000312422 -0.000115119 -4.97225e-19 -0.000245528 -2.38655e-19 -6.68933e-05)
(0.000287532 -0.000102353 -1.33647e-21 -0.000219419 -8.16857e-22 -6.81135e-05)
(0.000242086 -8.27226e-05 -2.24871e-19 -0.000179652 -8.21586e-20 -6.24334e-05)
(0.000175782 -5.70976e-05 1.71761e-19 -0.000127163 6.64182e-20 -4.86186e-05)
(9.10494e-05 -2.75933e-05 1.34823e-19 -6.47896e-05 5.53099e-20 -2.62598e-05)
(0 0 0 0 0 0)
(0 0 0 0 0 0)
(0 0 0 0 0 0)
(0 0 0 0 0 0)
(0 0 0 0 0 0)
(0 0 0 0 0 0)
(0 0 0 0 0 0)
(0 0 0 0 0 0)
(0 0 0 0 0 0)
(0 0 0 0 0 0)
(0 0 0 0 0 0)
(0 0 0 0 0 0)
(0 0 0 0 0 0)
(0 0 0 0 0 0)
(0 0 0 0 0 0)
(0 0 0 0 0 0)
(0 0 0 0 0 0)
(0 0 0 0 0 0)
(0 0 0 0 0 0)
(0 0 0 0 0 0)
(0 0 0 0 0 0)
(0 0 0 0 0 0)
(0 0 0 0 0 0)
(0 0 0 0 0 0)
(0 0 0 0 0 0)
(0 0 0 0 0 0)
(0 0 0 0 0 0)
(0 0 0 0 0 0)
(0.000353153 -0.000162258 2.00369e-19 -0.000313787 1.33229e-19 -3.93667e-05)
(0.000352477 -0.000159758 -5.41861e-20 -0.000308663 -1.55034e-19 -4.38141e-05)
(0.000347568 -0.000155768 -5.04673e-19 -0.000298354 -4.16704e-19 -4.92141e-05)
(0.000337708 -0.000148742 2.2729e-19 -0.000284426 1.29733e-19 -5.32817e-05)
(0.000325005 -0.000140127 3.31514e-19 -0.000267109 2.39913e-19 -5.7896e-05)
(0.000310343 -0.000130487 1.41358e-19 -0.000248947 2.14851e-20 -6.13963e-05)
(0.000291279 -0.000118903 2.70746e-19 -0.000226785 6.4169e-20 -6.44936e-05)
(0.000257609 -0.000101724 1.39948e-21 -0.000194746 6.78424e-22 -6.28627e-05)
(0.000199493 -7.56975e-05 1.10675e-20 -0.000146329 -1.9186e-21 -5.3164e-05)
(0.00012735 -4.5761e-05 -6.13575e-20 -9.13894e-05 -2.90405e-20 -3.59602e-05)
(2.50424e-05 -8.3729e-06 -4.18805e-20 -1.77549e-05 -1.30521e-20 -7.28748e-06)
(0 0 0 0 0 0)
(0 0 0 0 0 0)
(0 0 0 0 0 0)
(0 0 0 0 0 0)
(0 0 0 0 0 0)
(0 0 0 0 0 0)
(0 0 0 0 0 0)
(0 0 0 0 0 0)
(0 0 0 0 0 0)
(0 0 0 0 0 0)
(0 0 0 0 0 0)
(0 0 0 0 0 0)
(0 0 0 0 0 0)
(0 0 0 0 0 0)
(0 0 0 0 0 0)
(0 0 0 0 0 0)
(0 0 0 0 0 0)
(0 0 0 0 0 0)
(0 0 0 0 0 0)
(0 0 0 0 0 0)
(0 0 0 0 0 0)
(0 0 0 0 0 0)
(0 0 0 0 0 0)
(0 0 0 0 0 0)
(0 0 0 0 0 0)
(0 0 0 0 0 0)
(0 0 0 0 0 0)
(0 0 0 0 0 0)
(0 0 0 0 0 0)
(0.000349567 -0.000175912 -1.83807e-24 -0.000305445 6.89557e-23 -4.41216e-05)
(0.000342517 -0.000169111 3.78884e-19 -0.000294176 1.19031e-19 -4.83413e-05)
(0.0003284 -0.000159665 -3.87341e-19 -0.000275183 -1.25689e-19 -5.32172e-05)
(0.000310922 -0.000147719 -2.47757e-19 -0.000254673 -1.21542e-19 -5.62491e-05)
(0.000289982 -0.000134329 1.15433e-19 -0.000230533 8.76483e-20 -5.94487e-05)
(0.000262299 -0.00011803 1.33093e-19 -0.000202503 3.19959e-21 -5.97968e-05)
(0.000217426 -9.47294e-05 -2.2152e-19 -0.000162205 -8.10798e-20 -5.52213e-05)
(0.000153797 -6.43537e-05 1.72081e-19 -0.000111628 5.956e-20 -4.21696e-05)
(7.11389e-05 -2.81342e-05 4.56442e-20 -5.06427e-05 9.29466e-21 -2.04962e-05)
(0 0 0 0 0 0)
(0 0 0 0 0 0)
(0 0 0 0 0 0)
(0 0 0 0 0 0)
(0 0 0 0 0 0)
(0 0 0 0 0 0)
(0 0 0 0 0 0)
(0 0 0 0 0 0)
(0 0 0 0 0 0)
(0 0 0 0 0 0)
(0 0 0 0 0 0)
(0 0 0 0 0 0)
(0 0 0 0 0 0)
(0 0 0 0 0 0)
(0 0 0 0 0 0)
(0 0 0 0 0 0)
(0 0 0 0 0 0)
(0 0 0 0 0 0)
(0 0 0 0 0 0)
(0 0 0 0 0 0)
(0 0 0 0 0 0)
(0 0 0 0 0 0)
(0 0 0 0 0 0)
(0 0 0 0 0 0)
(0 0 0 0 0 0)
(0 0 0 0 0 0)
(0 0 0 0 0 0)
(0 0 0 0 0 0)
(0 0 0 0 0 0)
(0 0 0 0 0 0)
(0 0 0 0 0 0)
(0.000330869 -0.000180835 0 -0.0002825 0 -4.83687e-05)
(0.000313886 -0.000167013 -4.96648e-20 -0.000262624 1.17373e-19 -5.12616e-05)
(0.000289098 -0.000150917 3.35361e-26 -0.000234656 2.85741e-26 -5.44425e-05)
(0.000265381 -0.000134743 -2.53242e-19 -0.000209625 -1.03602e-19 -5.57556e-05)
(0.000231389 -0.000114386 -2.45529e-19 -0.000176278 -9.04609e-20 -5.51111e-05)
(0.000178986 -8.58149e-05 1.24917e-19 -0.000132129 2.42253e-20 -4.68565e-05)
(0.000108769 -5.00246e-05 1.69729e-20 -7.79869e-05 -1.32684e-20 -3.07823e-05)
(1.24027e-05 -5.3621e-06 -1.72396e-20 -8.7942e-06 -2.73177e-21 -3.60853e-06)
(0 0 0 0 0 0)
(0 0 0 0 0 0)
(0 0 0 0 0 0)
(0 0 0 0 0 0)
(0 0 0 0 0 0)
(0 0 0 0 0 0)
(0 0 0 0 0 0)
(0 0 0 0 0 0)
(0 0 0 0 0 0)
(0 0 0 0 0 0)
(0 0 0 0 0 0)
(0 0 0 0 0 0)
(0 0 0 0 0 0)
(0 0 0 0 0 0)
(0 0 0 0 0 0)
(0 0 0 0 0 0)
(0 0 0 0 0 0)
(0 0 0 0 0 0)
(0 0 0 0 0 0)
(0 0 0 0 0 0)
(0 0 0 0 0 0)
(0 0 0 0 0 0)
(0 0 0 0 0 0)
(0 0 0 0 0 0)
(0 0 0 0 0 0)
(0 0 0 0 0 0)
(0 0 0 0 0 0)
(0 0 0 0 0 0)
(0 0 0 0 0 0)
(0 0 0 0 0 0)
(0 0 0 0 0 0)
(0 0 0 0 0 0)
(0.000290158 -0.000170667 8.95235e-20 -0.000240237 4.33589e-20 -4.99211e-05)
(0.00026318 -0.000149593 2.52121e-19 -0.000212853 1.05665e-19 -5.03274e-05)
(0.000230693 -0.000128448 -2.44486e-19 -0.00017982 -9.06783e-20 -5.08724e-05)
(0.000195371 -0.000105719 -3.57579e-26 -0.000147559 -1.19864e-26 -4.78121e-05)
(0.000138282 -7.28038e-05 1.86808e-20 -0.000100533 -1.38433e-20 -3.77489e-05)
(7.68677e-05 -3.86691e-05 -1.44662e-19 -5.47281e-05 -5.15438e-20 -2.21396e-05)
(0 0 0 0 0 0)
(0 0 0 0 0 0)
(0 0 0 0 0 0)
(0 0 0 0 0 0)
(0 0 0 0 0 0)
(0 0 0 0 0 0)
(0 0 0 0 0 0)
(0 0 0 0 0 0)
(0 0 0 0 0 0)
(0 0 0 0 0 0)
(0 0 0 0 0 0)
(0 0 0 0 0 0)
(0 0 0 0 0 0)
(0 0 0 0 0 0)
(0 0 0 0 0 0)
(0 0 0 0 0 0)
(0 0 0 0 0 0)
(0 0 0 0 0 0)
(0 0 0 0 0 0)
(0 0 0 0 0 0)
(0 0 0 0 0 0)
(0 0 0 0 0 0)
(0 0 0 0 0 0)
(0 0 0 0 0 0)
(0 0 0 0 0 0)
(0 0 0 0 0 0)
(0 0 0 0 0 0)
(0 0 0 0 0 0)
(0 0 0 0 0 0)
(0 0 0 0 0 0)
(0 0 0 0 0 0)
(0 0 0 0 0 0)
(0 0 0 0 0 0)
(0 0 0 0 0 0)
(0.00023014 -0.000144564 -2.20484e-19 -0.000183402 -1.45815e-20 -4.67379e-05)
(0.000197493 -0.000119391 3.42264e-19 -0.00015319 1.25672e-19 -4.43033e-05)
(0.000156245 -9.27878e-05 2.01337e-19 -0.000116127 6.13767e-20 -4.01184e-05)
(0.000101549 -5.84358e-05 4.49196e-20 -7.32535e-05 4.34385e-20 -2.82951e-05)
(2.3381e-05 -1.28979e-05 1.89036e-20 -1.64762e-05 1.84049e-21 -6.90484e-06)
(0 0 0 0 0 0)
(0 0 0 0 0 0)
(0 0 0 0 0 0)
(0 0 0 0 0 0)
(0 0 0 0 0 0)
(0 0 0 0 0 0)
(0 0 0 0 0 0)
(0 0 0 0 0 0)
(0 0 0 0 0 0)
(0 0 0 0 0 0)
(0 0 0 0 0 0)
(0 0 0 0 0 0)
(0 0 0 0 0 0)
(0 0 0 0 0 0)
(0 0 0 0 0 0)
(0 0 0 0 0 0)
(0 0 0 0 0 0)
(0 0 0 0 0 0)
(0 0 0 0 0 0)
(0 0 0 0 0 0)
(0 0 0 0 0 0)
(0 0 0 0 0 0)
(0 0 0 0 0 0)
(0 0 0 0 0 0)
(0 0 0 0 0 0)
(0 0 0 0 0 0)
(0 0 0 0 0 0)
(0 0 0 0 0 0)
(0 0 0 0 0 0)
(0 0 0 0 0 0)
(0 0 0 0 0 0)
(0 0 0 0 0 0)
(0 0 0 0 0 0)
(0 0 0 0 0 0)
(0 0 0 0 0 0)
(0.000160944 -0.000107554 -1.85239e-19 -0.000122756 -3.69943e-21 -3.81883e-05)
(0.000126173 -8.14172e-05 -9.47859e-20 -9.34056e-05 -1.87975e-20 -3.27672e-05)
(7.25634e-05 -4.58567e-05 -7.70555e-20 -5.15627e-05 9.07476e-21 -2.10007e-05)
(0 0 0 0 0 0)
(0 0 0 0 0 0)
(0 0 0 0 0 0)
(0 0 0 0 0 0)
(0 0 0 0 0 0)
(0 0 0 0 0 0)
(0 0 0 0 0 0)
(0 0 0 0 0 0)
(0 0 0 0 0 0)
(0 0 0 0 0 0)
(0 0 0 0 0 0)
(0 0 0 0 0 0)
(0 0 0 0 0 0)
(0 0 0 0 0 0)
(0 0 0 0 0 0)
(0 0 0 0 0 0)
(0 0 0 0 0 0)
(0 0 0 0 0 0)
(0 0 0 0 0 0)
(0 0 0 0 0 0)
(0 0 0 0 0 0)
(0 0 0 0 0 0)
(0 0 0 0 0 0)
(0 0 0 0 0 0)
(0 0 0 0 0 0)
(0 0 0 0 0 0)
(0 0 0 0 0 0)
(0 0 0 0 0 0)
(0 0 0 0 0 0)
(0 0 0 0 0 0)
(0 0 0 0 0 0)
(0 0 0 0 0 0)
(0 0 0 0 0 0)
(0 0 0 0 0 0)
(0 0 0 0 0 0)
(0 0 0 0 0 0)
(0 0 0 0 0 0)
(9.67682e-05 -6.89614e-05 -1.49502e-19 -7.05329e-05 1.2771e-20 -2.62354e-05)
(5.65131e-05 -3.88291e-05 3.79784e-20 -4.01529e-05 1.78928e-20 -1.63602e-05)
(0 0 0 0 0 0)
(0 0 0 0 0 0)
(0 0 0 0 0 0)
(0 0 0 0 0 0)
(0 0 0 0 0 0)
(0 0 0 0 0 0)
(0 0 0 0 0 0)
(0 0 0 0 0 0)
(0 0 0 0 0 0)
(0 0 0 0 0 0)
(0 0 0 0 0 0)
(0 0 0 0 0 0)
(0 0 0 0 0 0)
(0 0 0 0 0 0)
(0 0 0 0 0 0)
(0 0 0 0 0 0)
(0 0 0 0 0 0)
(0 0 0 0 0 0)
(0 0 0 0 0 0)
(0 0 0 0 0 0)
(0 0 0 0 0 0)
(0 0 0 0 0 0)
(0 0 0 0 0 0)
(0 0 0 0 0 0)
(0 0 0 0 0 0)
(0 0 0 0 0 0)
(0 0 0 0 0 0)
(0 0 0 0 0 0)
(0 0 0 0 0 0)
(0 0 0 0 0 0)
(0 0 0 0 0 0)
(0 0 0 0 0 0)
(0 0 0 0 0 0)
(0 0 0 0 0 0)
(0 0 0 0 0 0)
(0 0 0 0 0 0)
(0 0 0 0 0 0)
(0 0 0 0 0 0)
(4.10502e-05 -3.11372e-05 -2.25442e-20 -2.88162e-05 1.64793e-20 -1.2234e-05)
(0 0 0 0 0 0)
(0 0 0 0 0 0)
(0 0 0 0 0 0)
(0 0 0 0 0 0)
(0 0 0 0 0 0)
(0 0 0 0 0 0)
(0 0 0 0 0 0)
(0 0 0 0 0 0)
(0 0 0 0 0 0)
(0 0 0 0 0 0)
(0 0 0 0 0 0)
(0 0 0 0 0 0)
(0 0 0 0 0 0)
(0 0 0 0 0 0)
(0 0 0 0 0 0)
(0 0 0 0 0 0)
(0 0 0 0 0 0)
(0 0 0 0 0 0)
(0 0 0 0 0 0)
(0 0 0 0 0 0)
(0 0 0 0 0 0)
(0 0 0 0 0 0)
(0 0 0 0 0 0)
(0 0 0 0 0 0)
(0 0 0 0 0 0)
(0 0 0 0 0 0)
(0 0 0 0 0 0)
(0 0 0 0 0 0)
(0 0 0 0 0 0)
(0 0 0 0 0 0)
(0 0 0 0 0 0)
(0 0 0 0 0 0)
(0 0 0 0 0 0)
(0 0 0 0 0 0)
(0 0 0 0 0 0)
(0 0 0 0 0 0)
(0 0 0 0 0 0)
(0 0 0 0 0 0)
(0 0 0 0 0 0)
(0 0 0 0 0 0)
(0 0 0 0 0 0)
(0 0 0 0 0 0)
(0 0 0 0 0 0)
(0 0 0 0 0 0)
(0 0 0 0 0 0)
(0 0 0 0 0 0)
(0 0 0 0 0 0)
(0 0 0 0 0 0)
(0 0 0 0 0 0)
(0 0 0 0 0 0)
(0 0 0 0 0 0)
(0 0 0 0 0 0)
(0 0 0 0 0 0)
(0 0 0 0 0 0)
(0 0 0 0 0 0)
(0 0 0 0 0 0)
(0 0 0 0 0 0)
(0 0 0 0 0 0)
(0 0 0 0 0 0)
(0 0 0 0 0 0)
(0 0 0 0 0 0)
(0 0 0 0 0 0)
(0 0 0 0 0 0)
(0 0 0 0 0 0)
(0 0 0 0 0 0)
(0 0 0 0 0 0)
(0 0 0 0 0 0)
(0 0 0 0 0 0)
(0 0 0 0 0 0)
(0 0 0 0 0 0)
(0 0 0 0 0 0)
(0 0 0 0 0 0)
(0 0 0 0 0 0)
(0 0 0 0 0 0)
(0 0 0 0 0 0)
(0 0 0 0 0 0)
(0 0 0 0 0 0)
(0 0 0 0 0 0)
(0 0 0 0 0 0)
(0 0 0 0 0 0)
(0 0 0 0 0 0)
(0 0 0 0 0 0)
(0 0 0 0 0 0)
(0 0 0 0 0 0)
(0 0 0 0 0 0)
(0 0 0 0 0 0)
(0 0 0 0 0 0)
(0 0 0 0 0 0)
(0 0 0 0 0 0)
(0 0 0 0 0 0)
(0 0 0 0 0 0)
(0 0 0 0 0 0)
(0 0 0 0 0 0)
(0 0 0 0 0 0)
(0 0 0 0 0 0)
(0 0 0 0 0 0)
(0 0 0 0 0 0)
(0 0 0 0 0 0)
(0 0 0 0 0 0)
(0 0 0 0 0 0)
(0 0 0 0 0 0)
(0 0 0 0 0 0)
(0 0 0 0 0 0)
(0 0 0 0 0 0)
(0 0 0 0 0 0)
(0 0 0 0 0 0)
(0 0 0 0 0 0)
(0 0 0 0 0 0)
(0 0 0 0 0 0)
(0 0 0 0 0 0)
(0 0 0 0 0 0)
(0 0 0 0 0 0)
(0 0 0 0 0 0)
(0 0 0 0 0 0)
(0 0 0 0 0 0)
(0 0 0 0 0 0)
(0 0 0 0 0 0)
(0 0 0 0 0 0)
(0 0 0 0 0 0)
(0 0 0 0 0 0)
(0 0 0 0 0 0)
(0 0 0 0 0 0)
(0 0 0 0 0 0)
(0 0 0 0 0 0)
(0 0 0 0 0 0)
(0 0 0 0 0 0)
(0 0 0 0 0 0)
(0 0 0 0 0 0)
(0 0 0 0 0 0)
(0 0 0 0 0 0)
(0 0 0 0 0 0)
(0 0 0 0 0 0)
(0 0 0 0 0 0)
(0 0 0 0 0 0)
(0 0 0 0 0 0)
(0 0 0 0 0 0)
(0 0 0 0 0 0)
(0 0 0 0 0 0)
(0 0 0 0 0 0)
(0 0 0 0 0 0)
(0 0 0 0 0 0)
(0 0 0 0 0 0)
(0 0 0 0 0 0)
(0 0 0 0 0 0)
(0 0 0 0 0 0)
(0 0 0 0 0 0)
(0 0 0 0 0 0)
(0 0 0 0 0 0)
(0 0 0 0 0 0)
(0 0 0 0 0 0)
(0 0 0 0 0 0)
(0 0 0 0 0 0)
(0 0 0 0 0 0)
(0 0 0 0 0 0)
(0 0 0 0 0 0)
(0 0 0 0 0 0)
(0 0 0 0 0 0)
(0 0 0 0 0 0)
(0 0 0 0 0 0)
(0 0 0 0 0 0)
(0 0 0 0 0 0)
(0 0 0 0 0 0)
(0 0 0 0 0 0)
(0 0 0 0 0 0)
(0 0 0 0 0 0)
(0 0 0 0 0 0)
(0 0 0 0 0 0)
(0 0 0 0 0 0)
(0 0 0 0 0 0)
(0 0 0 0 0 0)
(0 0 0 0 0 0)
(0 0 0 0 0 0)
(0 0 0 0 0 0)
(0 0 0 0 0 0)
(0 0 0 0 0 0)
(0 0 0 0 0 0)
(0 0 0 0 0 0)
(0 0 0 0 0 0)
(0 0 0 0 0 0)
(0 0 0 0 0 0)
(0 0 0 0 0 0)
(0 0 0 0 0 0)
(0 0 0 0 0 0)
(0 0 0 0 0 0)
(0 0 0 0 0 0)
(0 0 0 0 0 0)
(0 0 0 0 0 0)
(0 0 0 0 0 0)
(0 0 0 0 0 0)
(0 0 0 0 0 0)
(0 0 0 0 0 0)
(0 0 0 0 0 0)
(0 0 0 0 0 0)
(0 0 0 0 0 0)
(0 0 0 0 0 0)
(0 0 0 0 0 0)
(0 0 0 0 0 0)
(0 0 0 0 0 0)
(0 0 0 0 0 0)
(0 0 0 0 0 0)
(0 0 0 0 0 0)
(0 0 0 0 0 0)
(0 0 0 0 0 0)
(0 0 0 0 0 0)
(0 0 0 0 0 0)
(0 0 0 0 0 0)
(0 0 0 0 0 0)
(0 0 0 0 0 0)
(0 0 0 0 0 0)
(0 0 0 0 0 0)
(0 0 0 0 0 0)
(0 0 0 0 0 0)
(0 0 0 0 0 0)
(0 0 0 0 0 0)
(0 0 0 0 0 0)
(0 0 0 0 0 0)
(0 0 0 0 0 0)
(0 0 0 0 0 0)
(0 0 0 0 0 0)
(0 0 0 0 0 0)
(0 0 0 0 0 0)
(0 0 0 0 0 0)
(0 0 0 0 0 0)
(0 0 0 0 0 0)
(0 0 0 0 0 0)
(0 0 0 0 0 0)
(0 0 0 0 0 0)
(0 0 0 0 0 0)
(0 0 0 0 0 0)
(0 0 0 0 0 0)
(0 0 0 0 0 0)
(0 0 0 0 0 0)
(0 0 0 0 0 0)
(0 0 0 0 0 0)
(0 0 0 0 0 0)
(0 0 0 0 0 0)
(0 0 0 0 0 0)
(0 0 0 0 0 0)
(0 0 0 0 0 0)