/*--------------------------------*- C++ -*----------------------------------*\
| =========                 |                                                 |
| \\      /  F ield         | OpenFOAM: The Open Source CFD Toolbox           |
|  \\    /   O peration     | Version:  v2012                                 |
|   \\  /    A nd           | Website:  www.openfoam.com                      |
|    \\/     M anipulation  |                                                 |
\*---------------------------------------------------------------------------*/
FoamFile
{
    version     2.0;
    format      ascii;
    class       volScalarField;
    location    "8";
    object      epsilonEq;
}
// * * * * * * * * * * * * * * * * * * * * * * * * * * * * * * * * * * * * * //

dimensions      [0 0 0 0 0 0 0];


internalField   nonuniform List<scalar> 
16000
(
0.00800611
0.00777152
0.00752653
0.00729402
0.00705504
0.00682484
0.00658906
0.00636056
0.0061266
0.00589725
0.00566445
0.0054353
0.00520345
0.0049727
0.00473943
0.0045118
0.00427947
0.00404985
0.0038279
0.00359822
0.00337136
0.00315452
0.00295588
0.00281197
0.00269458
0.00259197
0.00250426
0.002427
0.00235866
0.00229779
0.00224275
0.0021931
0.00214758
0.00210589
0.00206737
0.0020315
0.00199823
0.00196667
0.00193744
0.00190903
0.00798682
0.00775117
0.00750531
0.00727239
0.00703075
0.00679872
0.00656102
0.00632952
0.00609474
0.00586404
0.00562951
0.00539689
0.00516257
0.00493143
0.00469614
0.00446363
0.00423368
0.00400134
0.00377019
0.00354288
0.00331055
0.00309894
0.0029298
0.00280077
0.00269106
0.00259484
0.00251084
0.00243633
0.00236971
0.00230997
0.00225568
0.00220634
0.00216111
0.00211942
0.00208091
0.00204493
0.00201151
0.00197982
0.00195034
0.0019218
0.00794899
0.00771029
0.00746147
0.00722561
0.00698148
0.00674718
0.00650582
0.0062707
0.00603124
0.00579643
0.00555767
0.00532156
0.00508058
0.00484411
0.00460733
0.00436734
0.00413222
0.00389794
0.00365709
0.00342723
0.00320454
0.00301429
0.00288998
0.00278427
0.00268657
0.0026009
0.00252305
0.00245327
0.00238958
0.00233211
0.00227882
0.00223084
0.00218593
0.00214471
0.00210621
0.00207021
0.0020366
0.0020047
0.00197488
0.00194607
0.00789043
0.00764801
0.00739414
0.00715295
0.00690472
0.00666577
0.00641985
0.00618069
0.00593486
0.00569233
0.00544633
0.00520292
0.00495641
0.00471104
0.00446589
0.00422129
0.00397407
0.00373334
0.00349232
0.00326606
0.00308111
0.00294908
0.00285483
0.0027668
0.00268381
0.00260872
0.00253859
0.00247471
0.00241514
0.00236072
0.00230973
0.00226264
0.002219
0.00217813
0.00214001
0.00210417
0.00207043
0.00203856
0.00200831
0.00197946
0.00781051
0.00756447
0.00730581
0.00705955
0.00680423
0.0065563
0.00630262
0.00605395
0.00579873
0.00554756
0.00529064
0.00503763
0.0047822
0.00452679
0.00426928
0.00401603
0.00376251
0.00351587
0.00329046
0.00310656
0.00297971
0.0029014
0.00282751
0.00275387
0.00268471
0.00261863
0.00255673
0.00249813
0.00244335
0.002392
0.00234207
0.00229882
0.00225651
0.0022167
0.00217943
0.0021438
0.00211039
0.00207848
0.00204817
0.00201919
0.0077086
0.00745505
0.00718874
0.00693504
0.00667118
0.0064149
0.00615001
0.00588958
0.00562161
0.00535839
0.00508873
0.0048221
0.00455202
0.00428329
0.00401595
0.00375475
0.00350218
0.00327873
0.00310412
0.00298927
0.00292288
0.00286684
0.00280601
0.00274565
0.00268637
0.00262887
0.00257368
0.002521
0.00247072
0.00242363
0.00237795
0.00233494
0.00229471
0.00225651
0.00221991
0.00218562
0.00215238
0.00212136
0.00209095
0.00206246
0.0075826
0.0073196
0.00704227
0.00677724
0.00650142
0.00623365
0.00595455
0.00568042
0.00539741
0.00511732
0.00483177
0.00454774
0.00426131
0.00398076
0.00370869
0.00345654
0.00323883
0.00308254
0.0029858
0.00293345
0.00289024
0.00284164
0.00279042
0.00273951
0.0026877
0.00263796
0.00258848
0.00254154
0.00249661
0.00245218
0.00240508
0.00237015
0.00233252
0.00229523
0.00225979
0.00222692
0.00219423
0.00216442
0.00213422
0.00210659
0.00742963
0.00715725
0.00686776
0.00658957
0.00629687
0.00601015
0.00571148
0.00541739
0.00511519
0.00481624
0.00451177
0.0042114
0.00391278
0.00363269
0.00338056
0.00317966
0.0030474
0.00297583
0.00293627
0.00290298
0.00286295
0.00282128
0.00277733
0.00273305
0.00268809
0.00264401
0.00260015
0.00255778
0.00251624
0.00247615
0.00243761
0.00240086
0.00236467
0.00233051
0.00229727
0.00226573
0.00223489
0.00220581
0.00217691
0.00214976
0.00724495
0.00695858
0.00665147
0.00635488
0.00604053
0.00573153
0.00540992
0.00509331
0.00476912
0.00444899
0.00412656
0.00381862
0.00353207
0.0032929
0.00311507
0.00300902
0.00296235
0.00293472
0.00290602
0.0028739
0.00283848
0.00280181
0.00276339
0.00272452
0.00268533
0.00264616
0.00260768
0.00256945
0.00253224
0.00249601
0.00245884
0.00242674
0.00239364
0.00236183
0.00233099
0.0023011
0.00227197
0.00224425
0.00221653
0.00219046
0.0070266
0.00672132
0.00638926
0.00606658
0.00572484
0.00539048
0.00504361
0.00470328
0.00435542
0.00401835
0.00369481
0.00341396
0.003195
0.00305528
0.00298282
0.00295166
0.0029284
0.00290348
0.002875
0.00284552
0.00281372
0.00278115
0.00274729
0.00271316
0.00267856
0.00264416
0.00260983
0.00257611
0.00254267
0.00251035
0.00247809
0.00244764
0.00241702
0.00238806
0.00235913
0.00233172
0.00230425
0.00227845
0.00225213
0.00222749
0.00675977
0.0064281
0.00606407
0.00571154
0.00533986
0.00497912
0.00460729
0.00424569
0.00388534
0.0035617
0.00329308
0.00310757
0.0030025
0.00296106
0.00293874
0.00291924
0.00289462
0.00286964
0.00284327
0.00281615
0.00278765
0.00275869
0.00272887
0.00269885
0.00266851
0.00263824
0.002608
0.00257818
0.00254842
0.00251963
0.00249059
0.00246345
0.00243558
0.00240939
0.0023828
0.00235768
0.00233217
0.00230828
0.00228357
0.00226046
0.00643378
0.00606748
0.00566547
0.00528312
0.00488205
0.00449824
0.00410678
0.00374395
0.00342016
0.00318263
0.00303609
0.00297223
0.00294336
0.00292425
0.00290248
0.00288067
0.00285718
0.00283416
0.00280959
0.00278516
0.00275959
0.00273402
0.00270778
0.00268152
0.00265505
0.00262856
0.00260225
0.00257596
0.00254983
0.00252435
0.0024975
0.00247416
0.00244933
0.00242556
0.00240167
0.00237862
0.00235533
0.00233332
0.00231043
0.00228894
0.00603135
0.00562948
0.0051923
0.00478511
0.00436315
0.00396853
0.00358928
0.00329158
0.00308869
0.00298865
0.00294718
0.00292685
0.00290542
0.00288369
0.00286089
0.0028402
0.0028179
0.00279658
0.00277422
0.0027523
0.00272961
0.00270716
0.00268419
0.0026614
0.00263831
0.00261543
0.00259237
0.00256957
0.00254681
0.00252381
0.00250204
0.0024812
0.00245826
0.00243732
0.00241545
0.00239497
0.00237362
0.0023538
0.00233271
0.00231299
0.0055402
0.00511012
0.00465249
0.00423651
0.00381571
0.00345737
0.00317876
0.00302275
0.00295646
0.00292984
0.00290545
0.00288355
0.00285918
0.00283879
0.00281686
0.00279722
0.00277645
0.00275713
0.00273688
0.00271761
0.00269751
0.00267821
0.00265811
0.00263878
0.00261869
0.00259937
0.00257955
0.00256013
0.00254132
0.00252124
0.00249749
0.00248267
0.00246406
0.00244454
0.00242524
0.00240698
0.00238758
0.00236996
0.00235057
0.00233275
0.00497973
0.00454102
0.00408864
0.00369194
0.00333129
0.00309968
0.00298043
0.00293683
0.00290739
0.00288398
0.00285604
0.00283426
0.00281097
0.00279123
0.00277054
0.0027523
0.00273338
0.00271604
0.00269819
0.00268134
0.00266409
0.00264746
0.00263053
0.00261395
0.00259718
0.00258063
0.0025639
0.00254752
0.00253063
0.00251502
0.00249733
0.00248007
0.00246406
0.00244773
0.00243092
0.00241494
0.00239781
0.00238206
0.0023647
0.00234849
0.00439784
0.00397763
0.00356303
0.00324703
0.00303684
0.00295777
0.00291652
0.00288972
0.00285632
0.00283086
0.00280408
0.00278257
0.0027601
0.00274144
0.00272225
0.00270566
0.00268873
0.00267352
0.00265806
0.00264372
0.00262914
0.00261527
0.00260116
0.00258748
0.0025736
0.00255987
0.00254605
0.00253215
0.00251807
0.00250431
0.00248878
0.00247626
0.00246179
0.00244794
0.0024334
0.00241931
0.00240438
0.00239034
0.00237497
0.0023603
0.00386071
0.00348848
0.00317277
0.00300633
0.00293537
0.00290393
0.00286351
0.00283356
0.00280053
0.00277549
0.00274908
0.00272828
0.00270706
0.00268973
0.0026723
0.00265755
0.00264276
0.0026298
0.00261675
0.00260492
0.00259293
0.00258172
0.00257033
0.00255936
0.00254825
0.00253725
0.00252618
0.00251501
0.00250353
0.00249235
0.00248037
0.00246872
0.00245665
0.00244487
0.00243231
0.00242041
0.0024073
0.00239525
0.0023816
0.00236864
0.00343198
0.00314991
0.00298972
0.00293088
0.00288429
0.00284582
0.00280411
0.00277363
0.00274107
0.00271624
0.00269115
0.00267141
0.00265197
0.00263628
0.00262098
0.00260827
0.00259587
0.00258523
0.00257473
0.0025654
0.00255604
0.00254747
0.00253863
0.00253044
0.00252164
0.0025135
0.00250444
0.00249564
0.00248664
0.00247773
0.00246806
0.00245907
0.00244895
0.00243947
0.00242882
0.00241887
0.00240759
0.00239724
0.00238534
0.00237386
0.00314737
0.00298933
0.00292451
0.0028759
0.00282363
0.00278181
0.00274158
0.00270927
0.00267847
0.002654
0.00263082
0.0026125
0.00259521
0.0025815
0.00256853
0.00255813
0.00254818
0.00254002
0.00253201
0.00252524
0.00251837
0.00251236
0.00250603
0.00250028
0.00249423
0.00248821
0.00248272
0.0024756
0.00246888
0.00246212
0.00245463
0.0024475
0.00243936
0.00243171
0.00242286
0.0024147
0.0024051
0.00239641
0.0023861
0.00237611
0.00300383
0.00292194
0.00286557
0.00280505
0.00275624
0.00271158
0.00267327
0.00264094
0.00261224
0.00258912
0.00256829
0.00255198
0.00253721
0.00252584
0.00251549
0.00250756
0.00250027
0.00249459
0.00248927
0.00248493
0.00248073
0.0024771
0.00247333
0.00247012
0.00246607
0.00246377
0.00245824
0.00245289
0.00244942
0.00244465
0.00243937
0.00243428
0.00242794
0.00242221
0.00241499
0.00240855
0.0024005
0.00239335
0.00238454
0.00237591
0.00294231
0.00286118
0.00279304
0.00273139
0.0026814
0.00263747
0.0026006
0.00256994
0.00254356
0.00252265
0.00250447
0.00249066
0.00247864
0.0024699
0.00246231
0.00245702
0.00245243
0.00244935
0.00244661
0.0024448
0.00244302
0.0024418
0.00244018
0.00243917
0.00243685
0.00243607
0.00243776
0.00243201
0.00242862
0.0024266
0.00242285
0.00241955
0.002415
0.00241078
0.00240528
0.00240025
0.00239379
0.00238795
0.00238063
0.00237322
0.00287604
0.0027881
0.00271504
0.00265408
0.00260356
0.00256139
0.00252616
0.0024978
0.00247393
0.00245566
0.0024403
0.0024293
0.00242016
0.00241424
0.00240945
0.00240694
0.002405
0.00240462
0.00240437
0.00240513
0.00240569
0.00240684
0.00240759
0.00240838
0.00240908
0.00240832
0.00240953
0.00241087
0.00240848
0.00240787
0.00240562
0.00240383
0.00240082
0.00239808
0.00239405
0.00239041
0.00238533
0.00238078
0.00237477
0.00236852
0.00279353
0.00270684
0.0026333
0.00257371
0.00252396
0.00248401
0.00245082
0.00242518
0.00240404
0.00238871
0.00237634
0.00236832
0.00236216
0.00235914
0.00235722
0.00235746
0.00235822
0.0023604
0.00236265
0.0023658
0.00236867
0.00237208
0.00237497
0.00237808
0.0023807
0.002383
0.00238557
0.00238634
0.00238721
0.00238775
0.00238735
0.00238705
0.00238545
0.00238416
0.0023814
0.00237909
0.00237521
0.00237185
0.00236702
0.00236184
0.00270299
0.00261837
0.00254666
0.00248964
0.00244203
0.00240504
0.00237463
0.00235218
0.00233416
0.00232207
0.00231289
0.00230802
0.00230497
0.00230494
0.00230592
0.00230893
0.00231238
0.00231708
0.00232182
0.00232721
0.0023324
0.00233775
0.00234279
0.00234757
0.0023521
0.00235605
0.00235972
0.00236327
0.00236524
0.00236766
0.00236845
0.00236963
0.00236925
0.00236923
0.00236765
0.00236649
0.00236375
0.00236144
0.00235771
0.00235349
0.00260374
0.00252334
0.00245539
0.00240206
0.00235785
0.00232452
0.00229759
0.00227877
0.00226427
0.0022557
0.00224993
0.00224838
0.00224851
0.00225154
0.00225545
0.00226123
0.00226732
0.00227454
0.00228164
0.00228933
0.00229661
0.00230408
0.00231099
0.00231775
0.00232391
0.00232963
0.00233477
0.00233928
0.00234307
0.00234646
0.00234882
0.00235106
0.002352
0.00235305
0.00235263
0.00235249
0.00235081
0.00234944
0.00234672
0.00234337
0.00249841
0.00242306
0.00235993
0.00231117
0.00227132
0.00224233
0.00221956
0.00220485
0.00219429
0.00218955
0.00218743
0.00218937
0.00219283
0.00219897
0.00220585
0.00221439
0.00222313
0.00223275
0.0022422
0.00225199
0.00226135
0.00227066
0.00227939
0.00228781
0.00229553
0.00230285
0.00230928
0.00231543
0.00232035
0.00232519
0.00232861
0.00233208
0.00233404
0.00233616
0.00233672
0.00233753
0.00233678
0.00233626
0.00233445
0.00233189
0.00238778
0.00231823
0.00226075
0.00221731
0.00218258
0.00215854
0.0021405
0.00213034
0.0021241
0.00212348
0.00212524
0.00213083
0.00213772
0.00214706
0.00215694
0.00216827
0.00217961
0.00219166
0.00220335
0.00221527
0.00222656
0.00223774
0.00224814
0.0022582
0.00226739
0.0022761
0.00228385
0.00229112
0.00229732
0.00230313
0.00230772
0.00231209
0.00231511
0.00231808
0.00231959
0.0023212
0.00232134
0.00232156
0.0023206
0.00231873
0.00227301
0.00220971
0.00215841
0.00212086
0.00209184
0.00207326
0.00206043
0.00205522
0.00205365
0.00205739
0.00206326
0.00207264
0.00208307
0.00209567
0.00210859
0.00212268
0.0021366
0.00215101
0.00216491
0.00217882
0.002192
0.0022049
0.00221692
0.00222849
0.00223905
0.00224913
0.00225807
0.00226657
0.00227381
0.00228073
0.00228627
0.00229162
0.00229551
0.00229935
0.00230167
0.00230405
0.00230497
0.00230588
0.00230566
0.00230443
0.00215487
0.00209817
0.00205348
0.00202227
0.00199943
0.00198673
0.00197951
0.00197957
0.00198296
0.0019913
0.00200144
0.00201476
0.00202882
0.00204474
0.00206071
0.0020776
0.00209408
0.00211083
0.00212687
0.00214276
0.00215774
0.00217231
0.00218585
0.00219883
0.0022107
0.00222197
0.00223205
0.00224157
0.00224982
0.00225761
0.00226407
0.00227019
0.00227491
0.00227945
0.00228254
0.00228555
0.00228719
0.00228867
0.00228914
0.00228847
0.0020341
0.00198423
0.00194645
0.00192192
0.00190562
0.00189915
0.00189785
0.00190345
0.00191202
0.00192513
0.00193968
0.00195701
0.00197477
0.00199403
0.00201306
0.00203271
0.00205172
0.00207074
0.00208888
0.00210666
0.00212338
0.00213953
0.00215453
0.00216886
0.00218196
0.00219439
0.00220553
0.00221606
0.00222524
0.00223393
0.0022412
0.00224813
0.00225359
0.00225883
0.00226261
0.00226625
0.00226854
0.00227058
0.00227167
0.00227152
0.00191132
0.00186846
0.00183785
0.0018203
0.00181084
0.00181088
0.00181578
0.00182714
0.00184107
0.0018591
0.00187817
0.0018996
0.00192109
0.00194371
0.0019658
0.0019882
0.00200971
0.00203099
0.00205116
0.00207078
0.00208918
0.00210685
0.00212323
0.00213883
0.00215308
0.00216657
0.00217868
0.0021901
0.00220013
0.00220957
0.00221758
0.00222515
0.00223127
0.00223709
0.00224147
0.00224562
0.00224847
0.00225098
0.00225262
0.0022529
0.00178706
0.00175132
0.00172806
0.00171773
0.00171535
0.00172213
0.0017334
0.00175068
0.00177009
0.0017931
0.00181673
0.00184225
0.00186747
0.00189342
0.00191853
0.00194361
0.00196755
0.00199099
0.00201314
0.00203452
0.00205452
0.00207363
0.00209133
0.00210811
0.00212347
0.00213795
0.00215101
0.00216328
0.00217412
0.0021843
0.00219303
0.00220127
0.00220803
0.00221444
0.00221941
0.0022241
0.0022275
0.00223048
0.00223264
0.00223336
0.00166182
0.00163333
0.00161761
0.00161473
0.00161966
0.00163338
0.0016512
0.00167453
0.0016995
0.00172757
0.00175578
0.00178542
0.00181435
0.00184361
0.00187169
0.00189944
0.00192576
0.00195134
0.0019754
0.0019985
0.00202005
0.00204055
0.00205951
0.00207743
0.00209383
0.00210925
0.00212316
0.00213622
0.00214776
0.00215861
0.00216794
0.00217673
0.00218401
0.0021909
0.00219633
0.00220142
0.00220526
0.00220858
0.00221117
0.00221221
0.00153598
0.00151481
0.00150679
0.00151154
0.00152396
0.00154477
0.00156924
0.00159867
0.00162923
0.00166231
0.00169507
0.00172874
0.0017613
0.00179376
0.00182473
0.00185499
0.00188361
0.00191118
0.00193706
0.00196174
0.00198475
0.00200652
0.00202666
0.0020456
0.00206298
0.00207923
0.00209397
0.00210772
0.00211998
0.00213142
0.00214139
0.00215072
0.00215858
0.00216596
0.00217192
0.00217749
0.0021818
0.00218559
0.00218859
0.00219007
0.00141001
0.00139626
0.00139612
0.00140874
0.00142884
0.0014569
0.00148813
0.00152372
0.00155988
0.00159797
0.00163521
0.00167287
0.00170898
0.0017446
0.00177836
0.00181112
0.00184195
0.0018715
0.00189914
0.0019254
0.00194983
0.00197286
0.00199416
0.00201412
0.00203244
0.00204954
0.00206506
0.00207951
0.00209241
0.00210445
0.00211494
0.00212478
0.00213305
0.00214087
0.00214715
0.00215307
0.00215765
0.0021617
0.00216497
0.00216665
0.00128412
0.0012779
0.00128582
0.00130652
0.00133445
0.00136987
0.00140788
0.0014496
0.00149128
0.00153426
0.00157587
0.00161734
0.00165687
0.00169544
0.00173188
0.00176692
0.00179983
0.00183114
0.00186042
0.00188805
0.00191377
0.00193787
0.0019602
0.00198099
0.00200016
0.00201789
0.00203414
0.00204907
0.00206263
0.00207503
0.00208612
0.00209627
0.00210511
0.00211324
0.00212006
0.00212636
0.00213139
0.00213594
0.00213952
0.00214176
0.0011588
0.00116024
0.00117649
0.00120553
0.00124152
0.00128441
0.00132925
0.00137707
0.00142419
0.00147195
0.00151781
0.00156298
0.00160578
0.00164722
0.00168617
0.00172346
0.00175832
0.00179142
0.00182226
0.00185129
0.00187829
0.00190349
0.0019269
0.00194857
0.00196864
0.00198711
0.00200412
0.00201969
0.00203389
0.00204687
0.0020585
0.00206917
0.00207844
0.00208705
0.00209417
0.00210087
0.00210609
0.00211087
0.00211457
0.00211678
0.00103409
0.00104342
0.00106827
0.00110596
0.00115015
0.0012006
0.00125221
0.00130602
0.00135842
0.00141075
0.00146064
0.00150926
0.00155516
0.00159919
0.00164053
0.00167978
0.00171649
0.00175106
0.00178332
0.0018135
0.00184159
0.00186767
0.00189194
0.00191426
0.00193506
0.00195395
0.00197161
0.00198739
0.00200223
0.0020152
0.00202751
0.00203798
0.00204802
0.0020563
0.00206428
0.00207068
0.00207678
0.00208161
0.00208591
0.00208883
0.000910559
0.000928041
0.000961943
0.00100862
0.00106126
0.0011193
0.00117765
0.00123728
0.00129478
0.00135146
0.00140517
0.00145704
0.0015058
0.00155228
0.00159575
0.00163692
0.00167518
0.00171134
0.00174492
0.00177623
0.00180547
0.0018324
0.00185766
0.00188063
0.00190229
0.00192173
0.00194017
0.00195643
0.001972
0.00198544
0.00199846
0.00200943
0.00202015
0.002029
0.00203766
0.00204469
0.00205152
0.00205674
0.00206211
0.00206416
0.000788093
0.000814208
0.000857675
0.000913821
0.000975023
0.00104071
0.00110558
0.00117084
0.00123314
0.00129385
0.0013511
0.00140588
0.00145728
0.0015059
0.00155141
0.00159414
0.00163404
0.00167134
0.00170605
0.00173836
0.0017684
0.00179613
0.00182203
0.00184562
0.00186785
0.00188767
0.00190669
0.00192307
0.0019393
0.00195253
0.00196638
0.00197666
0.00198861
0.00199604
0.00200667
0.00201127
0.00202143
0.00202311
0.00203427
0.00203255
0.000667346
0.000702749
0.000756564
0.000822625
0.000892622
0.000965789
0.001037
0.00110751
0.00117425
0.00123868
0.0012991
0.00135653
0.00141029
0.00146077
0.00150805
0.00155213
0.00159288
0.00163166
0.00166758
0.0017005
0.00173161
0.00175974
0.00178651
0.00181041
0.00183336
0.00185343
0.00187307
0.00188964
0.00190644
0.0019198
0.0019342
0.00194457
0.001957
0.00196463
0.00197551
0.00198075
0.0019905
0.00199408
0.0020032
0.00200836
0.000548151
0.000593991
0.000659148
0.000735774
0.000814459
0.000895041
0.000972032
0.00104749
0.00111827
0.00118587
0.0012491
0.00130868
0.00136443
0.00141639
0.00146529
0.00151019
0.00155296
0.00159284
0.00162886
0.00166301
0.00169429
0.00172338
0.00175043
0.00177508
0.00179836
0.00181909
0.00183906
0.00185633
0.00187341
0.00188764
0.00190217
0.00191382
0.00192601
0.00193559
0.00194543
0.00195361
0.00196063
0.00196835
0.00197124
0.00198177
0.000431273
0.000489353
0.000567239
0.000654783
0.000742183
0.000829457
0.000911845
0.000991476
0.00106548
0.00113599
0.00120131
0.00126298
0.00132021
0.00137373
0.00142395
0.00146982
0.00151418
0.00155291
0.00159067
0.00162453
0.00165668
0.00168594
0.00171348
0.00173838
0.00176198
0.00178291
0.0018031
0.00182051
0.00183772
0.00185203
0.0018666
0.00187829
0.00189038
0.00190002
0.00190951
0.0019179
0.00192418
0.00193241
0.00193393
0.00194569
0.000316953
0.000390499
0.000482741
0.000581439
0.000676602
0.000770101
0.000856471
0.000940018
0.00101708
0.00108944
0.00115658
0.00121969
0.00127784
0.00133277
0.00138293
0.00143072
0.00147376
0.00151382
0.00155205
0.00158659
0.00161929
0.0016489
0.00167686
0.00170206
0.00172592
0.00174722
0.00176751
0.00178538
0.00180248
0.00181739
0.00183157
0.00184402
0.00185534
0.00186594
0.00187418
0.00188371
0.00188829
0.00189786
0.00189772
0.00191132
0.000206798
0.00030161
0.000409302
0.000518025
0.000620065
0.000717745
0.000807988
0.00089354
0.000972022
0.00104584
0.0011143
0.00117803
0.00123739
0.00129233
0.00134359
0.00139093
0.00143459
0.00147585
0.00151394
0.0015488
0.00158157
0.00161128
0.00163931
0.00166459
0.00168848
0.00170987
0.00173013
0.00174813
0.00176514
0.00178024
0.00179424
0.001807
0.00181799
0.00182908
0.00183683
0.0018471
0.001851
0.0018616
0.00186065
0.00187535
0.000107732
0.000231918
0.000352734
0.000468189
0.000574247
0.000674277
0.000765213
0.000852586
0.00093251
0.00100663
0.00107478
0.00113961
0.00119844
0.00125435
0.0013052
0.00135321
0.00139715
0.0014382
0.00147618
0.00151127
0.00154394
0.0015739
0.00160187
0.00162737
0.00165119
0.0016728
0.00169294
0.0017112
0.00172801
0.00174344
0.00175713
0.0017703
0.00178089
0.00179249
0.00179978
0.00181067
0.00181421
0.00182553
0.00182454
0.00183984
7.37898e-05
0.00019895
0.000319195
0.000434901
0.000540229
0.000639945
0.00073158
0.000815004
0.000896847
0.000970816
0.00103947
0.00110351
0.00116255
0.00121776
0.00126863
0.00131619
0.00135994
0.00140093
0.00143867
0.00147372
0.00150618
0.00153608
0.00156388
0.00158934
0.00161301
0.00163463
0.00165462
0.00167295
0.0016896
0.00170519
0.00171869
0.00173212
0.0017425
0.00175449
0.00176156
0.00177295
0.00177627
0.00178818
0.00178705
0.00180272
0.000151423
0.000216635
0.000314887
0.000420913
0.000520029
0.000616756
0.000705838
0.00078958
0.00086629
0.000939996
0.00100756
0.00107043
0.001129
0.00118323
0.0012338
0.00128061
0.00132419
0.00136451
0.00140204
0.00143667
0.00146889
0.00149856
0.00152613
0.00155147
0.00157492
0.00159651
0.00161629
0.00163467
0.00165111
0.00166682
0.00168013
0.00169376
0.00170397
0.00171622
0.00172317
0.00173488
0.00173819
0.00175043
0.00174944
0.00176515
0.000249792
0.000273197
0.000339969
0.000427007
0.000515524
0.000604194
0.000687842
0.000768661
0.000842621
0.000913047
0.000978619
0.00103997
0.0010971
0.00115037
0.00119986
0.00124599
0.00128874
0.00132858
0.00136544
0.00139971
0.00143141
0.00146081
0.00148796
0.0015131
0.00153623
0.00155769
0.00157721
0.00159553
0.00161176
0.00162749
0.00164063
0.00165436
0.00166443
0.00167684
0.00168371
0.00169562
0.0016989
0.00171135
0.00171041
0.00172603
0.000349856
0.000348339
0.000386296
0.000451666
0.000524967
0.000603438
0.000679513
0.000754063
0.000823757
0.000891412
0.00095377
0.00101327
0.00106826
0.00112009
0.00116815
0.00121311
0.00125486
0.00129376
0.00132988
0.00136342
0.00139454
0.0014234
0.00145008
0.00147484
0.00149759
0.00151879
0.00153801
0.00155617
0.00157217
0.00158783
0.00160079
0.00161453
0.00162448
0.00163697
0.00164378
0.00165581
0.00165911
0.00167166
0.00167084
0.00168624
0.000448467
0.000430495
0.000446071
0.000490138
0.000546766
0.000612803
0.000679177
0.000747072
0.000811285
0.00087417
0.000933062
0.000989364
0.00104194
0.00109161
0.00113789
0.00118134
0.00122175
0.00125955
0.00129463
0.00132738
0.00135769
0.00138594
0.001412
0.00143631
0.00145857
0.00147944
0.00149828
0.00151622
0.00153193
0.00154745
0.0015602
0.00157386
0.00158368
0.00159612
0.00160286
0.00161488
0.00161817
0.00163072
0.00162998
0.00164509
0.00054511
0.000515215
0.000513354
0.000538909
0.000578984
0.000631487
0.000687232
0.000746464
0.00080413
0.000861723
0.000916143
0.000969
0.00101843
0.00106567
0.00110969
0.00115135
0.0011901
0.00122654
0.00126038
0.00129206
0.00132142
0.00134886
0.00137418
0.00139787
0.00141955
0.00143996
0.00145835
0.00147595
0.00149133
0.0015066
0.00151912
0.00153262
0.0015423
0.00155469
0.00156133
0.00157337
0.00157662
0.00158909
0.0015885
0.00160321
0.000639294
0.00059993
0.000584407
0.00059411
0.000618877
0.000657907
0.000702259
0.000752355
0.000802443
0.000853822
0.000903179
0.000951711
0.000997618
0.00104179
0.00108326
0.00112269
0.00115954
0.00119433
0.00122671
0.00125717
0.0012854
0.00131191
0.00133636
0.00135934
0.00138035
0.00140022
0.0014181
0.00143529
0.00145028
0.00146526
0.00147751
0.00149076
0.00150029
0.00151241
0.00151903
0.00153079
0.001534
0.00154642
0.00154582
0.00156024
0.000730864
0.000683692
0.000656977
0.000653365
0.000664402
0.000690469
0.000723482
0.000763771
0.000805765
0.000850315
0.000893971
0.000937756
0.000979578
0.00102036
0.00105885
0.00109579
0.0011304
0.00116332
0.00119401
0.00122303
0.00124996
0.00127537
0.00129879
0.00132092
0.00134113
0.00136034
0.00137759
0.00139426
0.00140878
0.00142332
0.00143525
0.00144813
0.00145749
0.00146935
0.0014759
0.00148784
0.00149081
0.00150278
0.00150252
0.00151621
0.000819733
0.000765786
0.000729726
0.000714741
0.000713636
0.000727706
0.00074963
0.000780118
0.000813587
0.00085087
0.000888335
0.00092684
0.000964178
0.0010011
0.00103629
0.00107036
0.00110251
0.00113327
0.00116207
0.00118945
0.00121492
0.00123907
0.00126136
0.00128252
0.00130184
0.00132031
0.00133687
0.001353
0.00136699
0.00138113
0.00139269
0.00140525
0.00141448
0.00142588
0.0014329
0.00144353
0.00144595
0.00145866
0.00145801
0.00147184
0.00090571
0.000845811
0.000801714
0.000776983
0.000765193
0.000768294
0.000779761
0.000800566
0.000825462
0.000855188
0.000886126
0.000918991
0.000951458
0.000984196
0.00101573
0.00104667
0.00107605
0.00110444
0.00113112
0.00115668
0.0011805
0.00120325
0.00122424
0.00124434
0.00126261
0.00128029
0.00129599
0.00131155
0.00132479
0.00133856
0.00134943
0.00136173
0.0013703
0.00138132
0.00138775
0.00139717
0.00140203
0.00141317
0.00141335
0.00142613
0.000988843
0.000923557
0.000872424
0.000839178
0.000817937
0.000811114
0.000812789
0.00082431
0.000840684
0.000862773
0.000886948
0.000913893
0.000941184
0.000969421
0.000997024
0.00102454
0.00105092
0.00107668
0.00110105
0.00112458
0.0011466
0.00116776
0.00118735
0.00120618
0.00122336
0.00124003
0.00125488
0.00126963
0.0012822
0.00129534
0.00130562
0.00131757
0.0013254
0.00133675
0.00134168
0.00135329
0.00135709
0.00136755
0.00136764
0.0013796
0.00106891
0.00099875
0.000941371
0.000900655
0.00087105
0.000855288
0.000847959
0.000850679
0.000858816
0.000873302
0.00089065
0.000911476
0.000933378
0.000956841
0.000980266
0.0010041
0.00102724
0.00105014
0.001072
0.00109331
0.00111337
0.00113279
0.00115084
0.0011683
0.00118428
0.00119984
0.00121377
0.00122758
0.00123952
0.00125181
0.00126177
0.00127287
0.0012808
0.00129121
0.00129684
0.00130751
0.00131009
0.00132081
0.00132076
0.00133238
0.00114603
0.00107135
0.00100834
0.000960955
0.000923872
0.000900037
0.000884419
0.000878897
0.000879117
0.000886184
0.000896703
0.000911362
0.000927703
0.000946252
0.000965263
0.00098524
0.00100491
0.0010248
0.00104393
0.00106288
0.0010808
0.00109836
0.0011147
0.0011307
0.00114531
0.00115973
0.00117256
0.00118551
0.00119651
0.00120821
0.00121733
0.00122807
0.00123523
0.00124539
0.00125044
0.00126048
0.00126328
0.00127365
0.00127356
0.00128469
0.00121994
0.00114113
0.00107302
0.00101969
0.00097591
0.00094482
0.000921652
0.000908485
0.000901251
0.000901146
0.000905008
0.000913448
0.000924212
0.000937619
0.000952114
0.000967962
0.00098403
0.00100065
0.00101693
0.00103329
0.00104894
0.00106445
0.00107901
0.00109336
0.00110658
0.00111967
0.00113141
0.00114327
0.00115346
0.00116423
0.00117279
0.00118274
0.00118952
0.00119901
0.0012038
0.00121331
0.00121575
0.00122573
0.00122551
0.0012361
0.00129082
0.00120811
0.00113536
0.00107661
0.00102679
0.000989107
0.000959026
0.000938769
0.000924495
0.000917555
0.000914897
0.000917288
0.000922399
0.000930761
0.000940534
0.000952278
0.000964498
0.000977811
0.000990992
0.00100469
0.00101788
0.00103125
0.00104384
0.00105648
0.00106811
0.00107985
0.0010903
0.00110109
0.00111023
0.00112017
0.00112788
0.00113714
0.00114328
0.00115216
0.00115653
0.00116543
0.00116773
0.00117716
0.00117693
0.00118689
0.00135837
0.0012721
0.00119505
0.00113145
0.00107615
0.00103255
0.00099617
0.000969446
0.000948652
0.000935254
0.000926453
0.000922818
0.000922526
0.00092554
0.000930703
0.000937991
0.000946376
0.000956085
0.00096613
0.000976944
0.000987587
0.000998647
0.00100919
0.00101997
0.00102997
0.00104019
0.00104935
0.00105891
0.00106703
0.00107595
0.00108287
0.00109129
0.00109683
0.00110501
0.00110893
0.00111723
0.00111922
0.0011281
0.00112775
0.00113707
0.00142279
0.00133314
0.00125219
0.00118409
0.00112386
0.00107482
0.00103272
0.000999967
0.000973078
0.000953577
0.000938785
0.000929486
0.000923671
0.000921874
0.000922135
0.000925315
0.000929566
0.000935784
0.000942446
0.000950336
0.000958247
0.000966892
0.000975233
0.000984044
0.000992261
0.00100089
0.00100861
0.00101687
0.00102384
0.0010317
0.0010377
0.00104525
0.00105009
0.00105751
0.00106095
0.00106856
0.00107028
0.00107852
0.00107808
0.0010867
0.00148381
0.00139106
0.00130645
0.00123432
0.0011695
0.00111563
0.00106821
0.00103012
0.000997571
0.00097253
0.00095228
0.000937402
0.000926845
0.000919386
0.000915206
0.000913722
0.000914033
0.000916482
0.000919788
0.000924615
0.000929732
0.000935873
0.00094192
0.000948678
0.000955028
0.000961967
0.000968179
0.000975053
0.00098081
0.000987525
0.000992574
0.00099916
0.00100326
0.00100987
0.00101276
0.00101966
0.00102101
0.00102859
0.001028
0.0010359
0.00154159
0.00144588
0.001358
0.00128209
0.00121326
0.00115485
0.00110277
0.00105955
0.00102188
0.00099143
0.000965822
0.000945702
0.000929802
0.000918457
0.000909183
0.000903822
0.00089988
0.000898668
0.000898498
0.000900098
0.00090237
0.000905784
0.000909493
0.000913997
0.000918424
0.000923517
0.000928152
0.000933516
0.00093799
0.000943464
0.000947485
0.000953036
0.000956343
0.000962065
0.000964377
0.000970488
0.000971474
0.000978313
0.00097757
0.000984706
0.00159597
0.00149753
0.00140655
0.00132722
0.00125459
0.00119215
0.00113557
0.00108797
0.00104523
0.00101038
0.000979616
0.000955094
0.000936116
0.000917813
0.000904235
0.000894551
0.000886566
0.000881827
0.000878126
0.000876674
0.000875941
0.000876729
0.000877922
0.000880197
0.000882541
0.000885762
0.000888689
0.000892489
0.000895577
0.000899742
0.000902653
0.000907104
0.000909542
0.000914322
0.000915987
0.000921262
0.000921819
0.000927877
0.000926929
0.000933275
0.00164686
0.00154592
0.00145215