/*--------------------------------*- C++ -*----------------------------------*\
| =========                 |                                                 |
| \\      /  F ield         | OpenFOAM: The Open Source CFD Toolbox           |
|  \\    /   O peration     | Version:  v2012                                 |
|   \\  /    A nd           | Website:  www.openfoam.com                      |
|    \\/     M anipulation  |                                                 |
\*---------------------------------------------------------------------------*/
FoamFile
{
    version     2.0;
    format      ascii;
    class       pointVectorField;
    location    "1";
    object      pointD;
}
// * * * * * * * * * * * * * * * * * * * * * * * * * * * * * * * * * * * * * //

dimensions      [0 1 0 0 0 0 0];


internalField   nonuniform List<vector> 
10435
(
(2.47968e-07 -2.08091e-05 0)
(0 -2.07456e-05 0)
(0 -1.9773e-05 0)
(0 0 0)
(0 0 0)
(-3.928e-06 -1.62139e-05 0)
(-5.72894e-07 -1.97219e-05 0)
(-3.93862e-06 -1.5667e-05 0)
(-4.51315e-07 -1.97262e-05 0)
(-2.69617e-06 -1.61462e-05 0)
(-3.06117e-06 -1.65226e-05 0)
(-1.35854e-06 -1.8437e-05 0)
(-1.28089e-06 -1.8119e-05 0)
(-6.44507e-07 -1.94916e-05 0)
(-5.54037e-07 -1.94158e-05 0)
(-3.97241e-06 -7.15914e-06 0)
(4.12537e-06 -7.18791e-06 0)
(1.57108e-07 -2.01413e-05 0)
(0 -2.00199e-05 0)
(-8.19653e-07 -1.90901e-05 0)
(-9.00653e-07 -1.90392e-05 0)
(0 -1.97455e-05 0)
(-2.25581e-06 -1.71808e-05 0)
(-1.86026e-06 -1.73372e-05 0)
(3.27745e-06 -1.66877e-05 0)
(0 0 0)
(-3.93756e-06 -7.12682e-06 1.10022e-07)
(4.08806e-06 -7.15846e-06 -1.14889e-07)
(0 0 0)
(-3.86919e-06 -1.56541e-05 -1.36792e-07)
(-2.60649e-06 -1.61647e-05 -2.38513e-07)
(3.25337e-06 -1.6782e-05 2.5989e-07)
(-1.79119e-06 -1.74639e-05 -5.40749e-07)
(-1.473e-06 -1.85387e-05 -7.64114e-07)
(0 -1.98378e-05 2.51156e-07)
(0 -1.97633e-05 -7.99277e-08)
(-9.77066e-07 -1.89758e-05 -4.48626e-07)
(0 -2.00157e-05 -7.67665e-08)
(-5.37205e-07 -1.93414e-05 -1.98243e-07)
(1.62327e-07 -2.01403e-05 -5.54845e-08)
(-4.07514e-07 -1.96739e-05 -9.50447e-08)
(0 -2.07436e-05 -5.89705e-08)
(2.47609e-07 -2.08095e-05 -6.41677e-08)
(-2.97927e-06 -1.65468e-05 -2.7132e-07)
(-3.86396e-06 -1.62054e-05 -1.63609e-07)
(-2.22497e-06 -1.73494e-05 -6.53454e-07)
(-1.46046e-06 -1.82922e-05 -9.61227e-07)
(-9.14084e-07 -1.90546e-05 -5.16698e-07)
(-6.31674e-07 -1.94242e-05 -2.16758e-07)
(-5.3284e-07 -1.96734e-05 -1.16502e-07)
(2.26521e-07 -2.08018e-05 0)
(2.04856e-07 -2.07937e-05 0)
(1.82525e-07 -2.07852e-05 0)
(1.5923e-07 -2.07765e-05 0)
(1.34842e-07 -2.07682e-05 0)
(1.09373e-07 -2.07606e-05 0)
(8.29436e-08 -2.07543e-05 0)
(5.57432e-08 -2.07495e-05 0)
(2.80081e-08 -2.07466e-05 0)
(0 -2.07089e-05 0)
(0 -2.06724e-05 0)
(0 -2.06359e-05 0)
(0 -2.05994e-05 0)
(0 -2.0563e-05 0)
(0 -2.05265e-05 0)
(0 -2.049e-05 0)
(0 -2.04535e-05 0)
(0 -2.0417e-05 0)
(0 -2.03804e-05 0)
(0 -2.03438e-05 0)
(0 -2.03072e-05 0)
(0 -2.02707e-05 0)
(0 -2.02342e-05 0)
(0 -2.01978e-05 0)
(0 -2.01616e-05 0)
(0 -2.01257e-05 0)
(0 -2.009e-05 0)
(0 -2.00547e-05 0)
(0 -1.99524e-05 0)
(0 -1.98886e-05 0)
(0 -1.98302e-05 0)
(0 -1.97793e-05 0)
(0 -1.97381e-05 0)
(0 -1.97091e-05 0)
(0 -1.96945e-05 0)
(0 -1.96959e-05 0)
(0 -1.97135e-05 0)
(2.89532e-07 -1.97415e-05 0)
(5.82258e-07 -1.96703e-05 0)
(8.84651e-07 -1.95512e-05 0)
(1.19961e-06 -1.93766e-05 0)
(1.5294e-06 -1.91384e-05 0)
(1.87528e-06 -1.88262e-05 0)
(2.23447e-06 -1.84313e-05 0)
(2.59714e-06 -1.79461e-05 0)
(2.94889e-06 -1.7365e-05 0)
(4.05211e-06 -6.70952e-06 0)
(3.96778e-06 -6.23728e-06 0)
(3.87285e-06 -5.77328e-06 0)
(3.76756e-06 -5.319e-06 0)
(3.65224e-06 -4.87569e-06 0)
(3.52717e-06 -4.44447e-06 0)
(3.39256e-06 -4.02634e-06 0)
(3.24862e-06 -3.62228e-06 0)
(3.098e-06 -3.23421e-06 0)
(2.9358e-06 -2.86371e-06 0)
(2.75419e-06 -2.51677e-06 0)
(2.54904e-06 -2.19909e-06 0)
(2.31485e-06 -1.91285e-06 0)
(2.04844e-06 -1.65717e-06 0)
(1.74983e-06 -1.42682e-06 0)
(1.42156e-06 -1.21219e-06 0)
(1.06945e-06 -9.98184e-07 0)
(7.02393e-07 -7.61858e-07 0)
(3.3502e-07 -4.64991e-07 0)
(0 0 0)
(0 0 0)
(0 0 0)
(0 0 0)
(0 0 0)
(0 0 0)
(0 0 0)
(0 0 0)
(0 0 0)
(-3.30416e-07 -4.45477e-07 0)
(-6.89918e-07 -7.30416e-07 0)
(-1.04681e-06 -9.58511e-07 0)
(-1.38676e-06 -1.16889e-06 0)
(-1.70098e-06 -1.38286e-06 0)
(-1.98463e-06 -1.61606e-06 0)
(-2.23569e-06 -1.87686e-06 0)
(-2.45593e-06 -2.16864e-06 0)
(-2.64985e-06 -2.49109e-06 0)
(-2.82225e-06 -2.84049e-06 0)
(-2.97921e-06 -3.21047e-06 0)
(-3.12799e-06 -3.598e-06 0)
(-3.26745e-06 -4.00098e-06 0)
(-3.3975e-06 -4.41817e-06 0)
(-3.518e-06 -4.84848e-06 0)
(-3.62877e-06 -5.29084e-06 0)
(-3.72968e-06 -5.74419e-06 0)
(-3.82062e-06 -6.20743e-06 0)
(-3.90154e-06 -6.67946e-06 0)
(-4.01679e-06 -7.50241e-06 0)
(-4.05639e-06 -7.84903e-06 0)
(-4.09118e-06 -8.19845e-06 0)
(-4.12117e-06 -8.55023e-06 0)
(-4.14635e-06 -8.90399e-06 0)
(-4.16678e-06 -9.25934e-06 0)
(-4.18249e-06 -9.61594e-06 0)
(-4.19356e-06 -9.97345e-06 0)
(-4.20007e-06 -1.03315e-05 0)
(-4.20214e-06 -1.06899e-05 0)
(-4.1999e-06 -1.10482e-05 0)
(-4.19353e-06 -1.14062e-05 0)
(-4.18324e-06 -1.17637e-05 0)
(-4.16926e-06 -1.21204e-05 0)
(-4.1519e-06 -1.24761e-05 0)
(-4.13149e-06 -1.28309e-05 0)
(-4.10846e-06 -1.31846e-05 0)
(-4.0833e-06 -1.35373e-05 0)
(-4.05662e-06 -1.38892e-05 0)
(-4.0292e-06 -1.42407e-05 0)
(-4.00204e-06 -1.45925e-05 0)
(-3.97651e-06 -1.49458e-05 0)
(-3.95454e-06 -1.53027e-05 0)
(-3.93309e-06 -1.59361e-05 0)
(-5.08825e-07 -1.97247e-05 0)
(-3.84368e-07 -1.97325e-05 0)
(-3.26845e-07 -1.97419e-05 0)
(-2.76396e-07 -1.97536e-05 0)
(-2.31536e-07 -1.9767e-05 0)
(-1.91277e-07 -1.97817e-05 0)
(-1.54907e-07 -1.97973e-05 0)
(-1.21892e-07 -1.98137e-05 0)
(-9.18145e-08 -1.98307e-05 0)
(-6.4338e-08 -1.98481e-05 0)
(-3.91867e-08 -1.9866e-05 0)
(-1.61292e-08 -1.98842e-05 0)
(5.031e-09 -1.99027e-05 0)
(2.44633e-08 -1.99215e-05 0)
(4.23154e-08 -1.99405e-05 0)
(5.87177e-08 -1.99597e-05 0)
(7.37861e-08 -1.99791e-05 0)
(8.76247e-08 -1.99987e-05 0)
(1.00328e-07 -2.00185e-05 0)
(1.11982e-07 -2.00385e-05 0)
(1.22666e-07 -2.00586e-05 0)
(1.32454e-07 -2.0079e-05 0)
(1.41413e-07 -2.00995e-05 0)
(1.4961e-07 -2.01203e-05 0)
(1.66621e-07 -2.01712e-05 0)
(1.75009e-07 -2.02015e-05 0)
(1.82398e-07 -2.02322e-05 0)
(1.88906e-07 -2.02633e-05 0)
(1.94647e-07 -2.02948e-05 0)
(1.99727e-07 -2.03267e-05 0)
(2.04246e-07 -2.0359e-05 0)
(2.08302e-07 -2.03917e-05 0)
(2.11984e-07 -2.04249e-05 0)
(2.15379e-07 -2.04584e-05 0)
(2.18566e-07 -2.04923e-05 0)
(2.21621e-07 -2.05266e-05 0)
(2.24615e-07 -2.05611e-05 0)
(2.27612e-07 -2.0596e-05 0)
(2.30671e-07 -2.06312e-05 0)
(2.33838e-07 -2.06665e-05 0)
(2.3715e-07 -2.07021e-05 0)
(2.40623e-07 -2.07377e-05 0)
(2.44247e-07 -2.07734e-05 0)
(1.38721e-07 -2.01197e-05 0)
(1.19264e-07 -2.00978e-05 0)
(9.9468e-08 -2.00772e-05 0)
(8.01812e-08 -2.00595e-05 0)
(6.21925e-08 -2.00453e-05 0)
(4.60731e-08 -2.00347e-05 0)
(3.20682e-08 -2.00275e-05 0)
(2.00618e-08 -2.0023e-05 0)
(9.6083e-09 -2.00206e-05 0)
(-3.05313e-06 -7.1232e-06 0)
(-2.20426e-06 -7.09652e-06 0)
(-1.41025e-06 -7.07906e-06 0)
(-6.54038e-07 -7.07073e-06 0)
(8.2601e-08 -7.07126e-06 0)
(8.18761e-07 -7.08012e-06 0)
(1.57385e-06 -7.09663e-06 0)
(2.36673e-06 -7.12024e-06 0)
(3.21409e-06 -7.1509e-06 0)
(-2.38913e-06 -1.57804e-05 0)
(-2.11151e-06 -1.54225e-05 0)
(-1.84739e-06 -1.50656e-05 0)
(-1.58853e-06 -1.47069e-05 0)
(-1.33068e-06 -1.43449e-05 0)
(-1.07166e-06 -1.39793e-05 0)
(-8.10237e-07 -1.36098e-05 0)
(-5.45709e-07 -1.32366e-05 0)
(-2.7765e-07 -1.28599e-05 0)
(-5.80159e-09 -1.24799e-05 0)
(2.6998e-07 -1.20972e-05 0)
(5.49757e-07 -1.17122e-05 0)
(8.33514e-07 -1.13255e-05 0)
(1.12117e-06 -1.09378e-05 0)
(1.41256e-06 -1.05498e-05 0)
(1.70744e-06 -1.01623e-05 0)
(2.00549e-06 -9.77605e-06 0)
(2.30627e-06 -9.39204e-06 0)
(2.60924e-06 -9.01115e-06 0)
(2.91372e-06 -8.63433e-06 0)
(3.21888e-06 -8.26254e-06 0)
(3.52362e-06 -7.89675e-06 0)
(3.82648e-06 -7.53806e-06 0)
(-2.86549e-06 -1.63292e-05 0)
(-1.36813e-06 -1.83148e-05 0)
(-1.23774e-06 -1.85724e-05 0)
(-1.07994e-06 -1.86657e-05 0)
(-9.11916e-07 -1.87549e-05 0)
(-7.47839e-07 -1.8846e-05 0)
(-5.91992e-07 -1.89389e-05 0)
(-4.45592e-07 -1.90323e-05 0)
(-3.09157e-07 -1.91248e-05 0)
(-1.83093e-07 -1.92152e-05 0)
(-6.78455e-08 -1.93022e-05 0)
(3.60592e-08 -1.93849e-05 0)
(1.28019e-07 -1.94623e-05 0)
(2.07376e-07 -1.95336e-05 0)
(2.73445e-07 -1.95982e-05 0)
(3.25545e-07 -1.96554e-05 0)
(3.63035e-07 -1.97046e-05 0)
(3.85344e-07 -1.97457e-05 0)
(3.92016e-07 -1.97782e-05 0)
(3.82738e-07 -1.98021e-05 0)
(3.57373e-07 -1.98172e-05 0)
(3.15992e-07 -1.98239e-05 0)
(2.5889e-07 -1.98223e-05 0)
(1.86605e-07 -1.98128e-05 0)
(9.99358e-08 -1.97961e-05 0)
(-5.93728e-07 -1.94426e-05 0)
(-4.87869e-07 -1.94011e-05 0)
(-4.32263e-07 -1.94121e-05 0)
(-3.83079e-07 -1.94358e-05 0)
(-3.38583e-07 -1.94658e-05 0)
(-2.97853e-07 -1.94986e-05 0)
(-2.60347e-07 -1.95325e-05 0)
(-2.25729e-07 -1.95664e-05 0)
(-1.93791e-07 -1.95996e-05 0)
(-1.64402e-07 -1.96318e-05 0)
(-1.37487e-07 -1.96628e-05 0)
(-1.13001e-07 -1.96925e-05 0)
(-9.09203e-08 -1.9721e-05 0)
(-7.12291e-08 -1.97483e-05 0)
(-5.39126e-08 -1.97746e-05 0)
(-3.89509e-08 -1.98e-05 0)
(-2.63139e-08 -1.98248e-05 0)
(-1.59578e-08 -1.98491e-05 0)
(-7.82227e-09 -1.98731e-05 0)
(-1.82892e-09 -1.9897e-05 0)
(2.11931e-09 -1.9921e-05 0)
(4.13761e-09 -1.99452e-05 0)
(4.3577e-09 -1.99697e-05 0)
(2.92567e-09 -1.99946e-05 0)
(-3.8409e-06 -1.62157e-05 0)
(-3.75365e-06 -1.62245e-05 0)
(-3.66612e-06 -1.62402e-05 0)
(-3.57836e-06 -1.62627e-05 0)
(-3.49052e-06 -1.62916e-05 0)
(-3.40288e-06 -1.63267e-05 0)
(-3.31576e-06 -1.63677e-05 0)
(-3.2295e-06 -1.64143e-05 0)
(-3.1445e-06 -1.64661e-05 0)
(-2.58783e-06 -1.62433e-05 0)
(-2.48459e-06 -1.63473e-05 0)
(-2.3881e-06 -1.64562e-05 0)
(-2.297e-06 -1.65712e-05 0)
(-2.21343e-06 -1.66893e-05 0)
(-2.13437e-06 -1.68129e-05 0)
(-2.05962e-06 -1.69407e-05 0)
(-1.98945e-06 -1.70709e-05 0)
(-1.92305e-06 -1.72037e-05 0)
(-1.3177e-06 -1.85147e-05 0)
(-1.27671e-06 -1.85886e-05 0)
(-1.23558e-06 -1.8658e-05 0)
(-1.19269e-06 -1.87237e-05 0)
(-1.1473e-06 -1.87855e-05 0)
(-1.09913e-06 -1.88431e-05 0)
(-1.04902e-06 -1.88969e-05 0)
(-9.98579e-07 -1.89474e-05 0)
(-9.48738e-07 -1.89947e-05 0)
(-6.30097e-07 -1.952e-05 0)
(-6.17273e-07 -1.95469e-05 0)
(-6.05882e-07 -1.95724e-05 0)
(-5.9611e-07 -1.95966e-05 0)
(-5.87969e-07 -1.96196e-05 0)
(-5.81489e-07 -1.96414e-05 0)
(-5.76699e-07 -1.96622e-05 0)
(-5.73635e-07 -1.96824e-05 0)
(-5.72346e-07 -1.97021e-05 0)
(-3.81355e-06 -1.56706e-05 0)
(-3.6864e-06 -1.56843e-05 0)
(-3.55811e-06 -1.57082e-05 0)
(-3.42947e-06 -1.5742e-05 0)
(-3.30127e-06 -1.57859e-05 0)
(-3.17432e-06 -1.58395e-05 0)
(-3.04944e-06 -1.59028e-05 0)
(-2.92747e-06 -1.59754e-05 0)
(-2.80925e-06 -1.60567e-05 0)
(-2.9799e-06 -1.65833e-05 0)
(-2.90119e-06 -1.66472e-05 0)
(-2.82458e-06 -1.67131e-05 0)
(-2.74792e-06 -1.678e-05 0)
(-2.67147e-06 -1.68466e-05 0)
(-2.59421e-06 -1.69126e-05 0)
(-2.51477e-06 -1.69784e-05 0)
(-2.43238e-06 -1.70445e-05 0)
(-2.34628e-06 -1.71114e-05 0)
(-1.20464e-06 -1.82278e-05 0)
(-1.13473e-06 -1.83368e-05 0)
(-1.06807e-06 -1.84458e-05 0)
(-1.0104e-06 -1.85554e-05 0)
(-9.61193e-07 -1.86617e-05 0)
(-9.19996e-07 -1.87628e-05 0)
(-8.86225e-07 -1.88573e-05 0)
(-8.59136e-07 -1.89437e-05 0)
(-8.37491e-07 -1.90214e-05 0)
(-5.32165e-07 -1.94516e-05 0)
(-5.12935e-07 -1.94869e-05 0)
(-4.96467e-07 -1.95214e-05 0)
(-4.82692e-07 -1.95547e-05 0)
(-4.7152e-07 -1.95868e-05 0)
(-4.62837e-07 -1.96175e-05 0)
(-4.56526e-07 -1.96468e-05 0)
(-4.52503e-07 -1.96747e-05 0)
(-4.50744e-07 -1.97012e-05 0)
(-8.84275e-07 -1.90666e-05 0)
(-8.89517e-07 -1.90351e-05 0)
(-8.63079e-07 -1.90513e-05 0)
(-8.28299e-07 -1.90852e-05 0)
(-7.88682e-07 -1.91285e-05 0)
(-7.46611e-07 -1.91764e-05 0)
(-7.0345e-07 -1.9226e-05 0)
(-6.60028e-07 -1.92758e-05 0)
(-6.16821e-07 -1.93248e-05 0)
(-5.74089e-07 -1.93723e-05 0)
(-5.31963e-07 -1.94179e-05 0)
(-4.90502e-07 -1.94611e-05 0)
(-4.49717e-07 -1.95018e-05 0)
(-4.09597e-07 -1.95398e-05 0)
(-3.70113e-07 -1.95747e-05 0)
(-3.31228e-07 -1.96067e-05 0)
(-2.92896e-07 -1.96355e-05 0)
(-2.55072e-07 -1.9661e-05 0)
(-2.17703e-07 -1.96833e-05 0)
(-1.80738e-07 -1.97022e-05 0)
(-1.44122e-07 -1.97177e-05 0)
(-1.07799e-07 -1.97299e-05 0)
(-7.17113e-08 -1.97386e-05 0)
(-3.57987e-08 -1.97438e-05 0)
(-2.07254e-06 -1.72967e-05 0)
(3.02574e-06 -1.67207e-05 0)
(2.78155e-06 -1.6751e-05 0)
(2.54441e-06 -1.67791e-05 0)
(2.31382e-06 -1.68055e-05 0)
(2.08925e-06 -1.68307e-05 0)
(1.87009e-06 -1.68551e-05 0)
(1.6558e-06 -1.6879e-05 0)
(1.44586e-06 -1.69028e-05 0)
(1.23978e-06 -1.69268e-05 0)
(1.03709e-06 -1.69512e-05 0)
(8.37307e-07 -1.69764e-05 0)
(6.39969e-07 -1.70023e-05 0)
(4.44604e-07 -1.70294e-05 0)
(2.50721e-07 -1.70577e-05 0)
(5.77996e-08 -1.70874e-05 0)
(-1.34739e-07 -1.71185e-05 0)
(-3.27574e-07 -1.71511e-05 0)
(-5.21572e-07 -1.71851e-05 0)
(-7.17959e-07 -1.72201e-05 0)
(-9.18694e-07 -1.72555e-05 0)
(-1.12731e-06 -1.72897e-05 0)
(-1.35052e-06 -1.73197e-05 0)
(-1.59322e-06 -1.734e-05 0)
(-2.16095e-06 -1.72542e-05 0)
(-2.06229e-06 -1.73311e-05 0)
(-1.96018e-06 -1.74132e-05 0)
(-1.85607e-06 -1.75021e-05 0)
(-1.75211e-06 -1.7597e-05 0)
(-1.65e-06 -1.76971e-05 0)
(-1.55097e-06 -1.78006e-05 0)
(-1.45551e-06 -1.79059e-05 0)
(-1.36403e-06 -1.80126e-05 0)
(-8.05524e-07 -1.91506e-05 0)
(-7.90547e-07 -1.92031e-05 0)
(-7.74172e-07 -1.92495e-05 0)
(-7.56119e-07 -1.92913e-05 0)
(-7.36323e-07 -1.93293e-05 0)
(-7.16494e-07 -1.93639e-05 0)
(-6.96622e-07 -1.93979e-05 0)
(-6.77909e-07 -1.94306e-05 0)
(-6.60518e-07 -1.94619e-05 0)
(-1.80079e-06 -1.747e-05 0)
(-1.7442e-06 -1.76009e-05 0)
(-1.69011e-06 -1.77284e-05 0)
(-1.63812e-06 -1.78503e-05 0)
(-1.58796e-06 -1.7965e-05 0)
(-1.53931e-06 -1.80725e-05 0)
(-1.49203e-06 -1.8173e-05 0)
(-1.44601e-06 -1.82673e-05 0)
(-1.40132e-06 -1.83559e-05 0)
(-8.54584e-07 -1.90809e-05 0)
(-8.12468e-07 -1.91193e-05 0)
(-7.74358e-07 -1.91553e-05 0)
(-7.36532e-07 -1.91926e-05 0)
(-7.01571e-07 -1.92295e-05 0)
(-6.67434e-07 -1.92671e-05 0)
(-6.35434e-07 -1.93047e-05 0)
(-6.05753e-07 -1.93421e-05 0)
(-5.7857e-07 -1.93793e-05 0)
(3.57552e-06 -1.59216e-05 0)
(3.83328e-06 -1.50779e-05 0)
(4.04405e-06 -1.41708e-05 0)
(4.20442e-06 -1.32153e-05 0)
(4.31366e-06 -1.22261e-05 0)
(4.37264e-06 -1.12165e-05 0)
(4.38285e-06 -1.01983e-05 0)
(4.34569e-06 -9.18174e-06 0)
(4.26145e-06 -8.17601e-06 0)
(0 -1.97883e-05 0)
(0 -1.98363e-05 0)
(0 -1.98829e-05 0)
(0 -1.99214e-05 0)
(0 -1.99461e-05 0)
(0 -1.99526e-05 0)
(0 -1.99381e-05 0)
(0 -1.99018e-05 0)
(0 -1.9845e-05 0)
(-3.90408e-07 -4.02235e-07 4.07479e-07)
(-7.742e-07 -5.98044e-07 5.27329e-07)
(-1.11734e-06 -7.81246e-07 5.65144e-07)
(-1.42586e-06 -9.80011e-07 5.55825e-07)
(-1.70586e-06 -1.20536e-06 5.18213e-07)
(-1.96114e-06 -1.46016e-06 4.66708e-07)
(-2.19322e-06 -1.74387e-06 4.12089e-07)
(-2.4038e-06 -2.05607e-06 3.62555e-07)
(-2.5954e-06 -2.39456e-06 3.21793e-07)
(-2.7697e-06 -2.75503e-06 2.90368e-07)
(-2.93029e-06 -3.13322e-06 2.65944e-07)
(-3.08184e-06 -3.52729e-06 2.45165e-07)
(-3.22396e-06 -3.93597e-06 2.26245e-07)
(-3.3563e-06 -4.35837e-06 2.08457e-07)
(-3.47867e-06 -4.79359e-06 1.91334e-07)
(-3.59091e-06 -5.24069e-06 1.74612e-07)
(-3.69294e-06 -5.69865e-06 1.58146e-07)
(-3.78473e-06 -6.16641e-06 1.41874e-07)
(-3.86626e-06 -6.64285e-06 1.25801e-07)
(-3.01768e-06 -7.08971e-06 9.23355e-08)
(-2.1747e-06 -7.06164e-06 6.9955e-08)
(-1.38926e-06 -7.04308e-06 4.59706e-08)
(-6.42889e-07 -7.03419e-06 2.13209e-08)
(8.32671e-08 -7.03475e-06 -3.58679e-09)
(8.08717e-07 -7.0442e-06 -2.85182e-08)
(1.55332e-06 -7.06187e-06 -5.32376e-08)
(2.33671e-06 -7.08713e-06 -7.72651e-08)
(3.17722e-06 -7.1197e-06 -9.92022e-08)
(4.01474e-06 -6.67486e-06 -1.32152e-07)
(3.93005e-06 -6.19771e-06 -1.49055e-07)
(3.83441e-06 -5.72892e-06 -1.65878e-07)
(3.72803e-06 -5.2699e-06 -1.82712e-07)
(3.61113e-06 -4.82181e-06 -1.99689e-07)
(3.48393e-06 -4.38568e-06 -2.17064e-07)
(3.34665e-06 -3.96231e-06 -2.35214e-07)
(3.19957e-06 -3.55241e-06 -2.54615e-07)
(3.0449e-06 -3.15736e-06 -2.76742e-07)
(2.87794e-06 -2.77789e-06 -3.04648e-07)
(2.69412e-06 -2.41776e-06 -3.41822e-07)
(2.4918e-06 -2.08169e-06 -3.8934e-07)
(2.26856e-06 -1.77211e-06 -4.45502e-07)
(2.02309e-06 -1.49065e-06 -5.04543e-07)
(1.75534e-06 -1.23831e-06 -5.5768e-07)
(1.46406e-06 -1.01342e-06 -5.93856e-07)
(1.14518e-06 -8.12242e-07 -5.99342e-07)
(7.91785e-07 -6.25442e-07 -5.55986e-07)
(3.97999e-07 -4.229e-07 -4.27956e-07)
(0 0 0)
(0 0 0)
(0 0 0)
(0 0 0)
(0 0 0)
(0 0 0)
(0 0 0)
(0 0 0)
(0 0 0)
(0 0 0)
(0 0 0)
(0 0 0)
(-3.97076e-06 -7.15695e-06 2.80581e-08)
(-3.96537e-06 -7.15049e-06 5.58769e-08)
(-3.95508e-06 -7.14014e-06 8.32584e-08)
(4.12351e-06 -7.18586e-06 -2.92097e-08)
(4.1177e-06 -7.17984e-06 -5.82172e-08)
(4.10662e-06 -7.17028e-06 -8.6909e-08)
(0 0 0)
(0 0 0)
(0 0 0)
(-3.98215e-06 -7.47318e-06 9.84349e-08)
(-4.0219e-06 -7.82285e-06 8.72302e-08)
(-4.05681e-06 -8.17522e-06 7.61462e-08)
(-4.08683e-06 -8.52988e-06 6.51625e-08)
(-4.112e-06 -8.88644e-06 5.42501e-08)
(-4.13233e-06 -9.24451e-06 4.3417e-08)
(-4.14784e-06 -9.60372e-06 3.26821e-08)
(-4.1586e-06 -9.96371e-06 2.20719e-08)
(-4.16466e-06 -1.03241e-05 1.16178e-08)
(-4.1661e-06 -1.06846e-05 1.35325e-09)
(-4.16301e-06 -1.10448e-05 -8.68861e-09)
(-4.15553e-06 -1.14045e-05 -1.84778e-08)
(-4.1438e-06 -1.17632e-05 -2.79911e-08)
(-4.12801e-06 -1.21209e-05 -3.72165e-08)
(-4.10841e-06 -1.24771e-05 -4.61588e-08)
(-4.08531e-06 -1.28319e-05 -5.48459e-08)
(-4.0591e-06 -1.3185e-05 -6.33376e-08)
(-4.03033e-06 -1.35366e-05 -7.17355e-08)
(-3.9997e-06 -1.38868e-05 -8.01973e-08)
(-3.96818e-06 -1.42362e-05 -8.89561e-08)
(-3.93712e-06 -1.45854e-05 -9.83526e-08)
(-3.90842e-06 -1.4936e-05 -1.08891e-07)
(-3.88469e-06 -1.52906e-05 -1.21329e-07)
(-3.74315e-06 -1.56594e-05 -1.40582e-07)
(-3.61453e-06 -1.56749e-05 -1.4588e-07)
(-3.48437e-06 -1.57007e-05 -1.52589e-07)
(-3.35354e-06 -1.57368e-05 -1.60695e-07)
(-3.22295e-06 -1.57832e-05 -1.70182e-07)
(-3.0935e-06 -1.58399e-05 -1.81055e-07)
(-2.96616e-06 -1.59069e-05 -1.93312e-07)
(-2.84191e-06 -1.59836e-05 -2.06957e-07)
(-2.72172e-06 -1.60698e-05 -2.22006e-07)
(-2.29947e-06 -1.58009e-05 -2.0315e-07)
(-2.02806e-06 -1.54468e-05 -1.70787e-07)
(-1.77279e-06 -1.50929e-05 -1.41508e-07)
(-1.52384e-06 -1.4736e-05 -1.15418e-07)
(-1.27596e-06 -1.43747e-05 -9.24391e-08)
(-1.02643e-06 -1.40087e-05 -7.23976e-08)
(-7.73837e-07 -1.36381e-05 -5.51054e-08)
(-5.1745e-07 -1.32631e-05 -4.0408e-08)
(-2.56894e-07 -1.2884e-05 -2.81929e-08)
(8.00964e-09 -1.25014e-05 -1.83849e-08)
(2.77327e-07 -1.21156e-05 -1.0938e-08)
(5.51051e-07 -1.17274e-05 -5.82623e-09)
(8.29119e-07 -1.13372e-05 -3.03634e-09)
(1.11141e-06 -1.09458e-05 -2.56101e-09)
(1.39777e-06 -1.05541e-05 -4.39331e-09)
(1.68794e-06 -1.01627e-05 -8.52155e-09)
(1.98163e-06 -9.77258e-06 -1.49245e-08)
(2.27846e-06 -9.3847e-06 -2.35663e-08)
(2.57795e-06 -8.99997e-06 -3.43899e-08)
(2.87953e-06 -8.61937e-06 -4.73075e-08)
(3.18247e-06 -8.24387e-06 -6.21847e-08)
(3.48584e-06 -7.87443e-06 -7.87949e-08)
(3.78833e-06 -7.51213e-06 -9.67082e-08)
(-3.93673e-06 -1.56695e-05 -4.98807e-08)
(-3.9285e-06 -1.56744e-05 -9.21926e-08)
(-3.90713e-06 -1.56747e-05 -1.19996e-07)
(-2.69659e-06 -1.61503e-05 -6.88897e-08)
(-2.69211e-06 -1.61603e-05 -1.34282e-07)
(-2.67242e-06 -1.61718e-05 -1.91622e-07)
(4.22482e-06 -8.15773e-06 -8.1631e-08)
(4.30843e-06 -9.17502e-06 -4.41727e-08)
(4.34501e-06 -1.0204e-05 -4.7364e-09)
(4.33464e-06 -1.12354e-05 3.59679e-08)
(4.27615e-06 -1.22587e-05 7.74497e-08)
(4.16818e-06 -1.3262e-05 1.1901e-07)
(4.00991e-06 -1.42314e-05 1.59583e-07)
(3.80203e-06 -1.51517e-05 1.97704e-07)
(3.54771e-06 -1.60068e-05 2.31661e-07)
(3.00065e-06 -1.68148e-05 2.40231e-07)
(2.7567e-06 -1.68451e-05 2.18346e-07)
(2.52063e-06 -1.68733e-05 1.9557e-07)
(2.29165e-06 -1.68999e-05 1.72353e-07)
(2.06909e-06 -1.69256e-05 1.48918e-07)
(1.85223e-06 -1.69506e-05 1.25343e-07)
(1.64049e-06 -1.69753e-05 1.01624e-07)
(1.43332e-06 -1.70002e-05 7.77094e-08)
(1.23022e-06 -1.70254e-05 5.35108e-08)
(1.03071e-06 -1.70513e-05 2.89095e-08)
(8.34344e-07 -1.70782e-05 3.75844e-09)
(6.40677e-07 -1.71061e-05 -2.21183e-08)
(4.49273e-07 -1.71354e-05 -4.89261e-08)
(2.59681e-07 -1.7166e-05 -7.69033e-08)
(7.14233e-08 -1.71981e-05 -1.06325e-07)
(-1.16039e-07 -1.72318e-05 -1.3751e-07)
(-3.03357e-07 -1.72668e-05 -1.70829e-07)
(-4.91391e-07 -1.7303e-05 -2.06724e-07)
(-6.814e-07 -1.734e-05 -2.45751e-07)
(-8.75351e-07 -1.73769e-05 -2.88647e-07)
(-1.07764e-06 -1.7412e-05 -3.36374e-07)
(-1.29436e-06 -1.74425e-05 -3.92693e-07)
(-1.52775e-06 -1.74636e-05 -4.63139e-07)
(-1.84498e-06 -1.7316e-05 -4.97016e-07)
(-1.90566e-06 -1.71668e-05 -4.54936e-07)
(-1.9734e-06 -1.70198e-05 -4.13134e-07)
(-2.04622e-06 -1.68779e-05 -3.766e-07)
(-2.12291e-06 -1.67443e-05 -3.46729e-07)
(-2.20643e-06 -1.66162e-05 -3.20471e-07)
(-2.29655e-06 -1.64938e-05 -2.97218e-07)
(-2.39352e-06 -1.63773e-05 -2.75953e-07)
(-2.49646e-06 -1.62678e-05 -2.56603e-07)
(3.27647e-06 -1.66937e-05 6.52929e-08)
(3.27325e-06 -1.67117e-05 1.30715e-07)
(3.26648e-06 -1.67416e-05 1.95997e-07)
(-1.86633e-06 -1.7339e-05 -1.19038e-07)
(-1.8723e-06 -1.7352e-05 -2.44492e-07)
(-1.86718e-06 -1.73857e-05 -3.88661e-07)
(-1.7437e-06 -1.76086e-05 -5.84212e-07)
(-1.70238e-06 -1.77485e-05 -6.25002e-07)
(-1.66601e-06 -1.78811e-05 -6.6192e-07)
(-1.63391e-06 -1.80049e-05 -6.93271e-07)
(-1.60545e-06 -1.81185e-05 -7.19125e-07)
(-1.57915e-06 -1.82217e-05 -7.39041e-07)
(-1.55374e-06 -1.83146e-05 -7.53294e-07)
(-1.52809e-06 -1.83978e-05 -7.61941e-07)
(-1.50121e-06 -1.84721e-05 -7.65356e-07)
(-1.32997e-06 -1.86658e-05 -5.82989e-07)
(-1.1654e-06 -1.87585e-05 -4.55586e-07)
(-9.91706e-07 -1.88481e-05 -3.63494e-07)
(-8.21643e-07 -1.8939e-05 -2.90794e-07)
(-6.59331e-07 -1.90309e-05 -2.30697e-07)
(-5.06222e-07 -1.91227e-05 -1.79477e-07)
(-3.63064e-07 -1.92133e-05 -1.34867e-07)
(-2.30441e-07 -1.93017e-05 -9.53616e-08)
(-1.08919e-07 -1.93868e-05 -5.98949e-08)
(9.05793e-10 -1.94676e-05 -2.7689e-08)
(9.83947e-08 -1.95433e-05 1.83337e-09)
(1.82876e-07 -1.96131e-05 2.91027e-08)
(2.53658e-07 -1.96763e-05 5.4441e-08)
(3.10056e-07 -1.97321e-05 7.80908e-08)
(3.5142e-07 -1.97802e-05 1.00238e-07)
(3.77164e-07 -1.982e-05 1.21031e-07)
(3.86808e-07 -1.98514e-05 1.40597e-07)
(3.80012e-07 -1.98741e-05 1.59052e-07)
(3.56605e-07 -1.98881e-05 1.76508e-07)
(3.16622e-07 -1.98936e-05 1.93077e-07)
(2.60332e-07 -1.98907e-05 2.0886e-07)
(1.88251e-07 -1.988e-05 2.23924e-07)
(1.0114e-07 -1.98621e-05 2.38208e-07)
(2.90956e-07 -1.98091e-05 2.581e-07)
(5.83958e-07 -1.97425e-05 2.65359e-07)
(8.85908e-07 -1.96291e-05 2.73864e-07)
(1.1998e-06 -1.94611e-05 2.83047e-07)
(1.52747e-06 -1.92299e-05 2.9246e-07)
(1.87028e-06 -1.89247e-05 3.00519e-07)
(2.22478e-06 -1.85341e-05 3.03198e-07)
(2.58199e-06 -1.80493e-05 2.971e-07)
(2.92917e-06 -1.74652e-05 2.81883e-07)
(-1.3673e-06 -1.84338e-05 -1.53463e-07)
(-1.37907e-06 -1.84439e-05 -3.28425e-07)
(-1.40431e-06 -1.84716e-05 -5.43229e-07)
(0 -1.97772e-05 6.40201e-08)
(0 -1.97896e-05 1.27483e-07)
(0 -1.98101e-05 1.8991e-07)
(0 -1.99109e-05 2.12581e-07)
(0 -1.99676e-05 1.70325e-07)
(0 -2.00024e-05 1.2743e-07)
(0 -2.00138e-05 8.56209e-08)
(0 -2.00025e-05 4.62972e-08)
(0 -1.99716e-05 1.06848e-08)
(0 -1.99255e-05 -2.02232e-08)
(0 -1.98706e-05 -4.57512e-08)
(0 -1.98142e-05 -6.56108e-08)
(-3.87151e-08 -1.97615e-05 -8.03257e-08)
(-7.75815e-08 -1.97561e-05 -8.14816e-08)
(-1.16673e-07 -1.9747e-05 -8.33672e-08)
(-1.56065e-07 -1.97343e-05 -8.59812e-08)
(-1.95832e-07 -1.97181e-05 -8.93383e-08)
(-2.36047e-07 -1.96983e-05 -9.34662e-08)
(-2.76783e-07 -1.96749e-05 -9.84046e-08)
(-3.18109e-07 -1.96481e-05 -1.04205e-07)
(-3.60089e-07 -1.96177e-05 -1.10934e-07)
(-4.0278e-07 -1.95839e-05 -1.18671e-07)
(-4.46227e-07 -1.95467e-05 -1.27512e-07)
(-4.90461e-07 -1.95062e-05 -1.37571e-07)
(-5.35488e-07 -1.94624e-05 -1.48985e-07)
(-5.8128e-07 -1.94156e-05 -1.61912e-07)
(-6.27762e-07 -1.93659e-05 -1.76537e-07)
(-6.74785e-07 -1.93137e-05 -1.93076e-07)
(-7.22087e-07 -1.92593e-05 -2.1178e-07)
(-7.69243e-07 -1.92034e-05 -2.3294e-07)
(-8.15566e-07 -1.91471e-05 -2.56906e-07)
(-8.59972e-07 -1.90921e-05 -2.84121e-07)
(-9.00831e-07 -1.90416e-05 -3.15208e-07)
(-9.35794e-07 -1.90013e-05 -3.51233e-07)
(-9.62468e-07 -1.89784e-05 -3.95206e-07)
(-1.04024e-06 -1.894e-05 -4.93141e-07)
(-1.10403e-06 -1.89043e-05 -5.38955e-07)
(-1.16642e-06 -1.88679e-05 -5.84164e-07)
(-1.2253e-06 -1.88304e-05 -6.26731e-07)
(-1.27938e-06 -1.8791e-05 -6.64992e-07)
(-1.32834e-06 -1.87491e-05 -6.97867e-07)
(-1.37191e-06 -1.87038e-05 -7.24498e-07)
(-1.40987e-06 -1.86541e-05 -7.44186e-07)
(-1.44232e-06 -1.85992e-05 -7.56706e-07)
(0 -1.97466e-05 -1.99769e-08)
(0 -1.975e-05 -3.99498e-08)
(0 -1.97555e-05 -5.99256e-08)
(-9.03111e-07 -1.904e-05 -1.03071e-07)
(-9.08969e-07 -1.90447e-05 -2.12559e-07)
(-9.26805e-07 -1.90406e-05 -3.29515e-07)
(0 -1.97243e-05 -8.92063e-08)
(0 -1.9701e-05 -9.4229e-08)
(0 -1.96953e-05 -9.59265e-08)
(0 -1.9707e-05 -9.52435e-08)
(0 -1.97342e-05 -9.30269e-08)
(0 -1.97745e-05 -8.99596e-08)
(0 -1.98251e-05 -8.65415e-08)
(0 -1.98835e-05 -8.31053e-08)
(0 -1.99476e-05 -7.98482e-08)
(3.21282e-09 -1.999e-05 -7.78641e-08)
(4.87168e-09 -1.99649e-05 -7.89094e-08)
(4.84051e-09 -1.99402e-05 -7.99454e-08)
(2.97938e-09 -1.99158e-05 -8.09914e-08)
(-8.41141e-10 -1.98916e-05 -8.20647e-08)
(-6.73441e-09 -1.98673e-05 -8.31856e-08)
(-1.4795e-08 -1.98428e-05 -8.43788e-08)
(-2.50979e-08 -1.98178e-05 -8.56744e-08)
(-3.76982e-08 -1.97922e-05 -8.71084e-08)
(-5.26334e-08 -1.97658e-05 -8.87236e-08)
(-6.99247e-08 -1.97382e-05 -9.05709e-08)
(-8.95806e-08 -1.97092e-05 -9.27113e-08)
(-1.11601e-07 -1.96786e-05 -9.52183e-08)
(-1.35981e-07 -1.96462e-05 -9.81825e-08)
(-1.62717e-07 -1.9612e-05 -1.01717e-07)
(-1.91811e-07 -1.95757e-05 -1.05967e-07)
(-2.23284e-07 -1.95375e-05 -1.11115e-07)
(-2.5718e-07 -1.94976e-05 -1.17399e-07)
(-2.93591e-07 -1.94566e-05 -1.2512e-07)
(-3.32698e-07 -1.94157e-05 -1.34651e-07)
(-3.74874e-07 -1.93771e-05 -1.46425e-07)
(-4.20959e-07 -1.93451e-05 -1.60876e-07)
(-4.73072e-07 -1.93278e-05 -1.78231e-07)
(-5.67219e-07 -1.93028e-05 -2.14631e-07)
(-6.00634e-07 -1.92639e-05 -2.32231e-07)
(-6.37283e-07 -1.92253e-05 -2.51111e-07)
(-6.77044e-07 -1.91872e-05 -2.71316e-07)
(-7.18054e-07 -1.91511e-05 -2.92639e-07)
(-7.62083e-07 -1.91155e-05 -3.15771e-07)
(-8.09639e-07 -1.90805e-05 -3.41566e-07)
(-8.59422e-07 -1.90469e-05 -3.70885e-07)
(-9.16304e-07 -1.90114e-05 -4.07131e-07)
(0 -2.00197e-05 -1.91773e-08)
(0 -2.00189e-05 -3.83617e-08)
(0 -2.00176e-05 -5.75583e-08)
(-5.5519e-07 -1.94154e-05 -5.80762e-08)
(-5.57214e-07 -1.9412e-05 -1.12943e-07)
(-5.56475e-07 -1.93956e-05 -1.59928e-07)
(1.02153e-08 -2.00164e-05 -7.63334e-08)
(2.12585e-08 -2.00188e-05 -7.56808e-08)
(3.3905e-08 -2.00234e-05 -7.46625e-08)
(4.86191e-08 -2.00308e-05 -7.3191e-08)
(6.54923e-08 -2.00418e-05 -7.11959e-08)
(8.42134e-08 -2.00565e-05 -6.86386e-08)
(1.04115e-07 -2.0075e-05 -6.55414e-08)
(1.24312e-07 -2.00964e-05 -6.20294e-08)
(1.43921e-07 -2.0119e-05 -5.84108e-08)
(1.55304e-07 -2.01191e-05 -5.50926e-08)
(1.47627e-07 -2.0098e-05 -5.47015e-08)
(1.39235e-07 -2.0077e-05 -5.43129e-08)
(1.3007e-07 -2.00562e-05 -5.39297e-08)
(1.2007e-07 -2.00355e-05 -5.35546e-08)
(1.09171e-07 -2.00148e-05 -5.31907e-08)
(9.73032e-08 -1.99942e-05 -5.28417e-08)
(8.43933e-08 -1.99737e-05 -5.25128e-08)
(7.03604e-08 -1.99531e-05 -5.22117e-08)
(5.51154e-08 -1.99326e-05 -5.19496e-08)
(3.85593e-08 -1.9912e-05 -5.17435e-08)
(2.05799e-08 -1.98913e-05 -5.16175e-08)
(1.04819e-09 -1.98705e-05 -5.16065e-08)
(-2.01864e-08 -1.98496e-05 -5.1759e-08)
(-4.33033e-08 -1.98287e-05 -5.21415e-08)
(-6.85197e-08 -1.98077e-05 -5.28439e-08)
(-9.61045e-08 -1.97867e-05 -5.39852e-08)
(-1.26398e-07 -1.9766e-05 -5.57208e-08)
(-1.59841e-07 -1.97457e-05 -5.8251e-08)
(-1.97026e-07 -1.97262e-05 -6.18328e-08)
(-2.38776e-07 -1.97082e-05 -6.6797e-08)
(-2.86297e-07 -1.96926e-05 -7.35782e-08)
(-3.41501e-07 -1.96807e-05 -8.27516e-08)
(-4.08339e-07 -1.9648e-05 -1.003e-07)
(-4.11524e-07 -1.96201e-05 -1.06775e-07)
(-4.17116e-07 -1.95904e-05 -1.14377e-07)
(-4.25254e-07 -1.95589e-05 -1.23072e-07)
(-4.36121e-07 -1.95257e-05 -1.32859e-07)
(-4.49922e-07 -1.9491e-05 -1.43742e-07)
(-4.6684e-07 -1.94548e-05 -1.55723e-07)
(-4.87011e-07 -1.94176e-05 -1.68798e-07)
(-5.1049e-07 -1.93797e-05 -1.82961e-07)
(1.57459e-07 -2.01411e-05 -1.36796e-08)
(1.58499e-07 -2.01407e-05 -2.74456e-08)
(1.60175e-07 -2.01403e-05 -4.13689e-08)
(-4.51072e-07 -1.97249e-05 -3.62274e-08)
(-4.48641e-07 -1.97189e-05 -6.62257e-08)
(-4.38181e-07 -1.97029e-05 -8.45647e-08)
(0 -2.07069e-05 -5.9553e-08)
(0 -2.06704e-05 -6.02289e-08)
(0 -2.06339e-05 -6.09333e-08)
(0 -2.05974e-05 -6.16457e-08)
(0 -2.05609e-05 -6.23596e-08)
(0 -2.05244e-05 -6.30751e-08)
(0 -2.04879e-05 -6.37952e-08)
(0 -2.04513e-05 -6.45249e-08)
(0 -2.04147e-05 -6.52705e-08)
(0 -2.03781e-05 -6.60388e-08)
(0 -2.03414e-05 -6.68371e-08)
(0 -2.03047e-05 -6.76732e-08)
(0 -2.0268e-05 -6.85546e-08)
(0 -2.02313e-05 -6.94892e-08)
(0 -2.01948e-05 -7.04847e-08)
(0 -2.01584e-05 -7.15491e-08)
(0 -2.01222e-05 -7.26909e-08)
(0 -2.00862e-05 -7.39211e-08)
(0 -2.00507e-05 -7.52597e-08)
(1.71265e-07 -2.01706e-05 -5.59923e-08)
(1.79135e-07 -2.02012e-05 -5.65054e-08)
(1.86051e-07 -2.02321e-05 -5.70349e-08)
(1.92124e-07 -2.02634e-05 -5.75814e-08)
(1.9746e-07 -2.0295e-05 -5.81416e-08)
(2.0216e-07 -2.0327e-05 -5.87105e-08)
(2.06324e-07 -2.03594e-05 -5.9282e-08)
(2.10046e-07 -2.03922e-05 -5.98496e-08)
(2.13415e-07 -2.04254e-05 -6.04067e-08)
(2.16516e-07 -2.04589e-05 -6.09463e-08)
(2.19431e-07 -2.04928e-05 -6.14616e-08)
(2.22235e-07 -2.05271e-05 -6.19458e-08)
(2.25001e-07 -2.05616e-05 -6.23926e-08)
(2.27796e-07 -2.05965e-05 -6.27959e-08)
(2.30679e-07 -2.06316e-05 -6.31506e-08)
(2.33701e-07 -2.0667e-05 -6.34533e-08)
(2.36901e-07 -2.07025e-05 -6.37024e-08)
(2.40299e-07 -2.07381e-05 -6.39002e-08)
(2.43887e-07 -2.07738e-05 -6.40524e-08)
(2.26166e-07 -2.08021e-05 -6.39275e-08)
(2.04478e-07 -2.07939e-05 -6.34977e-08)
(1.82107e-07 -2.07851e-05 -6.28731e-08)
(1.58778e-07 -2.0776e-05 -6.21181e-08)
(1.34385e-07 -2.07673e-05 -6.13177e-08)
(1.08948e-07 -2.07594e-05 -6.05542e-08)
(8.25869e-08 -2.07528e-05 -5.98955e-08)
(5.54868e-08 -2.07478e-05 -5.9392e-08)
(2.78742e-08 -2.07447e-05 -5.90774e-08)
(0 -2.07455e-05 -1.4739e-08)
(0 -2.07451e-05 -2.94734e-08)
(0 -2.07445e-05 -4.42081e-08)
(2.4795e-07 -2.08092e-05 -1.60216e-08)
(2.47893e-07 -2.08092e-05 -3.2059e-08)
(2.47783e-07 -2.08093e-05 -4.81151e-08)