/*--------------------------------*- C++ -*----------------------------------*\
| =========                 |                                                 |
| \\      /  F ield         | OpenFOAM: The Open Source CFD Toolbox           |
|  \\    /   O peration     | Version:  v2012                                 |
|   \\  /    A nd           | Website:  www.openfoam.com                      |
|    \\/     M anipulation  |                                                 |
\*---------------------------------------------------------------------------*/
FoamFile
{
    version     2.0;
    format      ascii;
    class       volScalarField;
    location    "1";
    object      sigmaEq;
}
// * * * * * * * * * * * * * * * * * * * * * * * * * * * * * * * * * * * * * //

dimensions      [1 -1 -2 0 0 0 0];


internalField   nonuniform List<scalar> 
7840
(
4.5e+06
4.5e+06
4.5e+06
4.5e+06
4.43461e+06
4.5e+06
4.5e+06
4.5e+06
3.00616e+06
3.05235e+06
3.21839e+06
3.82742e+06
2.05197e+06
2.04667e+06
2.05248e+06
2.20821e+06
1.55669e+06
1.50609e+06
1.37318e+06
1.09731e+06
1.60281e+06
1.55778e+06
1.44284e+06
1.235e+06
2.17136e+06
2.17596e+06
2.20998e+06
2.44119e+06
3.16081e+06
3.21676e+06
3.40944e+06
4.10432e+06
4.5e+06
4.5e+06
4.5e+06
4.5e+06
4.5e+06
4.5e+06
4.5e+06
4.5e+06
4.5e+06
4.5e+06
4.5e+06
4.5e+06
4.5e+06
4.5e+06
4.5e+06
4.5e+06
3.74907e+06
3.8306e+06
4.01386e+06
4.0914e+06
2.59116e+06
2.59557e+06
2.59418e+06
2.48326e+06
2.04859e+06
2.00453e+06
1.88949e+06
1.60688e+06
2.09708e+06
2.05795e+06
1.95555e+06
1.69634e+06
2.72561e+06
2.74092e+06
2.76353e+06
2.68526e+06
3.9811e+06
4.08285e+06
4.29457e+06
4.41313e+06
4.5e+06
4.5e+06
4.5e+06
4.5e+06
4.5e+06
4.5e+06
4.5e+06
4.5e+06
4.5e+06
4.5e+06
4.5e+06
4.5e+06
4.5e+06
4.5e+06
4.5e+06
4.5e+06
4.3527e+06
4.39023e+06
4.40234e+06
4.18972e+06
3.02878e+06
3.02141e+06
2.97156e+06
2.77636e+06
2.45082e+06
2.40756e+06
2.29805e+06
2.06919e+06
2.501e+06
2.46141e+06
2.35861e+06
2.13443e+06
3.16999e+06
3.17126e+06
3.13546e+06
2.94594e+06
4.5e+06
4.5e+06
4.5e+06
4.48696e+06
4.5e+06
4.5e+06
4.5e+06
4.5e+06
4.5e+06
4.5e+06
4.5e+06
4.5e+06
4.5e+06
4.5e+06
4.5e+06
4.5e+06
4.5e+06
4.5e+06
4.5e+06
4.5e+06
4.5e+06
4.5e+06
4.41364e+06
4.14133e+06
3.30014e+06
3.27432e+06
3.19544e+06
3.01965e+06
2.73481e+06
2.69173e+06
2.59716e+06
2.44769e+06
2.78633e+06
2.74507e+06
2.6524e+06
2.50002e+06
3.44312e+06
3.42181e+06
3.34639e+06
3.16173e+06
4.5e+06
4.5e+06
4.5e+06
4.40839e+06
4.5e+06
4.5e+06
4.5e+06
4.5e+06
4.5e+06
4.5e+06
4.5e+06
4.5e+06
4.5e+06
4.5e+06
4.5e+06
4.5e+06
4.5e+06
4.5e+06
4.5e+06
4.5e+06
4.39255e+06
4.35137e+06
4.23662e+06
4.02466e+06
3.4038e+06
3.36852e+06
3.28978e+06
3.17573e+06
2.89594e+06
2.85827e+06
2.78972e+06
2.72003e+06
2.94869e+06
2.91099e+06
2.84145e+06
2.76692e+06
3.54616e+06
3.51133e+06
3.4303e+06
3.30293e+06
4.5e+06
4.5e+06
4.49361e+06
4.24884e+06
4.5e+06
4.5e+06
4.5e+06
4.5e+06
4.5e+06
4.5e+06
4.5e+06
4.5e+06
4.5e+06
4.5e+06
4.5e+06
4.5e+06
4.5e+06
4.5e+06
4.5e+06
4.5e+06
4.12722e+06
4.08169e+06
3.98267e+06
3.87321e+06
3.37642e+06
3.34357e+06
3.28646e+06
3.24394e+06
2.95303e+06
2.92666e+06
2.8902e+06
2.88802e+06
3.00607e+06
2.97923e+06
2.94043e+06
2.93311e+06
3.51885e+06
3.48582e+06
3.42294e+06
3.3643e+06
4.37093e+06
4.32233e+06
4.20829e+06
4.04807e+06
4.5e+06
4.5e+06
4.5e+06
4.5e+06
4.5e+06
4.5e+06
4.5e+06
4.5e+06
4.5e+06
4.5e+06
4.5e+06
4.5e+06
4.5e+06
4.5e+06
4.5e+06
4.5e+06
3.8738e+06
3.84365e+06
3.79245e+06
3.75862e+06
3.28081e+06
3.25928e+06
3.23403e+06
3.25052e+06
2.94151e+06
2.92923e+06
2.92451e+06
2.97167e+06
2.99232e+06
2.97921e+06
2.97193e+06
3.01517e+06
3.41274e+06
3.38889e+06
3.35721e+06
3.36335e+06
4.02916e+06
3.98923e+06
3.9353e+06
3.8982e+06
4.5e+06
4.5e+06
4.5e+06
4.5e+06
4.5e+06
4.5e+06
4.5e+06
4.5e+06
4.5e+06
4.5e+06
4.5e+06
4.5e+06
4.31753e+06
4.27295e+06
4.2008e+06
4.17074e+06
3.63697e+06
3.61563e+06
3.59253e+06
3.61537e+06
3.15777e+06
3.14869e+06
3.15219e+06
3.20976e+06
2.89269e+06
2.89351e+06
2.91478e+06
2.99335e+06
2.94005e+06
2.94011e+06
2.95919e+06
3.03528e+06
3.27972e+06
3.26848e+06
3.26655e+06
3.31836e+06
3.79365e+06
3.77101e+06
3.74031e+06
3.75247e+06
4.5e+06
4.5e+06
4.46389e+06
4.42023e+06
4.5e+06
4.5e+06
4.5e+06
4.5e+06
4.5e+06
4.5e+06
4.5e+06
4.5e+06
3.93209e+06
3.90996e+06
3.88855e+06
3.92247e+06
3.41336e+06
3.40219e+06
3.40565e+06
3.4663e+06
3.02863e+06
3.03046e+06
3.05629e+06
3.13842e+06
2.82784e+06
2.83895e+06
2.87898e+06
2.97481e+06
2.8714e+06
2.88176e+06
2.92025e+06
3.01496e+06
3.14211e+06
3.14224e+06
3.16417e+06
3.24396e+06
3.55629e+06
3.54494e+06
3.54322e+06
3.59917e+06
4.10013e+06
4.07231e+06
4.04478e+06
4.07442e+06
4.5e+06
4.5e+06
4.5e+06
4.5e+06
4.39883e+06
4.37421e+06
4.35208e+06
4.38574e+06
3.66159e+06
3.65032e+06
3.65278e+06
3.7136e+06
3.21424e+06
3.21256e+06
3.23603e+06
3.31574e+06
2.90677e+06
2.91732e+06
2.95836e+06
3.05189e+06
2.76103e+06
2.77947e+06
2.83118e+06
2.93387e+06
2.80078e+06
2.81841e+06
2.86926e+06
2.97192e+06
3.01203e+06
3.02091e+06
3.05975e+06
3.15394e+06
3.34811e+06
3.34645e+06
3.36677e+06
3.44769e+06
3.80536e+06
3.79336e+06
3.79082e+06
3.85218e+06
4.5e+06
4.5e+06
4.5e+06
4.5e+06
4.04096e+06
4.03059e+06
4.029e+06
4.07392e+06
3.42676e+06
3.42441e+06
3.44244e+06
3.5133e+06
3.03782e+06
3.04427e+06
3.0803e+06
3.16638e+06
2.79838e+06
2.81529e+06
2.86518e+06
2.96151e+06
2.69965e+06
2.72278e+06
2.78059e+06
2.8836e+06
2.73603e+06
2.75857e+06
2.816e+06
2.91942e+06
2.89633e+06
2.91203e+06
2.96108e+06
3.05939e+06
3.16681e+06
3.17314e+06
3.20814e+06
3.29838e+06
3.56176e+06
3.55913e+06
3.57497e+06
3.65141e+06
4.18356e+06
4.17156e+06
4.16846e+06
4.22601e+06
3.795e+06
3.79142e+06
3.79898e+06
3.84036e+06
3.21782e+06
3.22168e+06
3.24872e+06
3.32021e+06
2.88273e+06
2.895e+06
2.93777e+06
3.02305e+06
2.70549e+06
2.72637e+06
2.78033e+06
2.87477e+06
2.647e+06
2.6727e+06
2.7327e+06
2.83257e+06
2.68042e+06
2.70579e+06
2.76573e+06
2.86606e+06
2.79692e+06
2.81715e+06
2.87117e+06
2.96765e+06
3.00714e+06
3.01949e+06
3.06266e+06
3.15251e+06
3.34787e+06
3.35206e+06
3.37897e+06
3.45689e+06
3.89203e+06
3.88787e+06
3.89704e+06
3.95009e+06
3.54965e+06
3.55048e+06
3.56327e+06
3.60197e+06
3.02586e+06
3.03392e+06
3.065e+06
3.13217e+06
2.74672e+06
2.76265e+06
2.80804e+06
2.88923e+06
2.62723e+06
2.6502e+06
2.70514e+06
2.79557e+06
2.6037e+06
2.63044e+06
2.69025e+06
2.78559e+06
2.63472e+06
2.66128e+06
2.72119e+06
2.81687e+06
2.7134e+06
2.73609e+06
2.79153e+06
2.8835e+06
2.86764e+06
2.88377e+06
2.93029e+06
3.01517e+06
3.15618e+06
3.16449e+06
3.19668e+06
3.26952e+06
3.67661e+06
3.67733e+06
3.69115e+06
3.73675e+06
3.30751e+06
3.31101e+06
3.32547e+06
3.35882e+06
2.84377e+06
2.85427e+06
2.88621e+06
2.94752e+06
2.62564e+06
2.64355e+06
2.68911e+06
2.76538e+06
2.56135e+06
2.58516e+06
2.63933e+06
2.72528e+06
2.56904e+06
2.59589e+06
2.65426e+06
2.7449e+06
2.59825e+06
2.62506e+06
2.68361e+06
2.77442e+06
2.64376e+06
2.66759e+06
2.72243e+06
2.80926e+06
2.74522e+06
2.76348e+06
2.81036e+06
2.88908e+06
2.97816e+06
2.98894e+06
3.02249e+06
3.08804e+06
3.43902e+06
3.44247e+06
3.45852e+06
3.49752e+06
3.0655e+06
3.06979e+06
3.08391e+06
3.11202e+06
2.66827e+06
2.67976e+06
2.71095e+06
2.76683e+06
2.51589e+06
2.53462e+06
2.57915e+06
2.65097e+06
2.5054e+06
2.5293e+06
2.58193e+06
2.66376e+06
2.54176e+06
2.56824e+06
2.62469e+06
2.71111e+06
2.56973e+06
2.59629e+06
2.65297e+06
2.7394e+06
2.58532e+06
2.60948e+06
2.66286e+06
2.74502e+06
2.63525e+06
2.65451e+06
2.70033e+06
2.77343e+06
2.80675e+06
2.8187e+06
2.85148e+06
2.9099e+06
3.2005e+06
3.20502e+06
3.22073e+06
3.25257e+06
2.82225e+06
2.82665e+06
2.83946e+06
2.86298e+06
2.49739e+06
2.50919e+06
2.53903e+06
2.59057e+06
2.41489e+06
2.43382e+06
2.47692e+06
2.54518e+06
2.45729e+06
2.4809e+06
2.5318e+06
2.6102e+06
2.5205e+06
2.54641e+06
2.60092e+06
2.68383e+06
2.5477e+06
2.57378e+06
2.62859e+06
2.71149e+06
2.5357e+06
2.55977e+06
2.61153e+06
2.69008e+06
2.53489e+06
2.55444e+06
2.5988e+06
2.66774e+06
2.64149e+06
2.65381e+06
2.68501e+06
2.73802e+06
2.96146e+06
2.96611e+06
2.98016e+06
3.00585e+06
2.57803e+06
2.58219e+06
2.5934e+06
2.6132e+06
2.33052e+06
2.34233e+06
2.37079e+06
2.41914e+06
2.32105e+06
2.33991e+06
2.38161e+06
2.4472e+06
2.41541e+06
2.43861e+06
2.48787e+06
2.56354e+06
2.5041e+06
2.52941e+06
2.58218e+06
2.66232e+06
2.53097e+06
2.55653e+06
2.60973e+06
2.68999e+06
2.49307e+06
2.5169e+06
2.56732e+06
2.64344e+06
2.44162e+06
2.46122e+06
2.50441e+06
2.57088e+06
2.47927e+06
2.49167e+06
2.52146e+06
2.57107e+06
2.71901e+06
2.72343e+06
2.73555e+06
2.75651e+06
2.33329e+06
2.33712e+06
2.34678e+06
2.36367e+06
2.1677e+06
2.17948e+06
2.20684e+06
2.25289e+06
2.23345e+06
2.25221e+06
2.29277e+06
2.35633e+06
2.37861e+06
2.40143e+06
2.4493e+06
2.52279e+06
2.4917e+06
2.51648e+06
2.56781e+06
2.64579e+06
2.5188e+06
2.54391e+06
2.59584e+06
2.67427e+06
2.45643e+06
2.48007e+06
2.52955e+06
2.60432e+06
2.35401e+06
2.37372e+06
2.41626e+06
2.48175e+06
2.31912e+06
2.33164e+06
2.36061e+06
2.40871e+06
2.47305e+06
2.47711e+06
2.48755e+06
2.50537e+06
2.0888e+06
2.09234e+06
2.10079e+06
2.11538e+06
2.00946e+06
2.02136e+06
2.0481e+06
2.09252e+06
2.15173e+06
2.17048e+06
2.2103e+06
2.27225e+06
2.34619e+06
2.36872e+06
2.41556e+06
2.48721e+06
2.48273e+06
2.50709e+06
2.55734e+06
2.63361e+06
2.51091e+06
2.53565e+06
2.58667e+06
2.66389e+06
2.42581e+06
2.44933e+06
2.49826e+06
2.57254e+06
2.27206e+06
2.29198e+06
2.33441e+06
2.40013e+06
2.16009e+06
2.17288e+06
2.20173e+06
2.25006e+06
2.22355e+06
2.22742e+06
2.23672e+06
2.25312e+06
1.84522e+06
1.84854e+06
1.85641e+06
1.8697e+06
1.85628e+06
1.86847e+06
1.8955e+06
1.93922e+06
2.07596e+06
2.0948e+06
2.13456e+06
2.19548e+06
2.31779e+06
2.3401e+06
2.38646e+06
2.45664e+06
2.47687e+06
2.50089e+06
2.55049e+06
2.62538e+06
2.50733e+06
2.53176e+06
2.5822e+06
2.65851e+06
2.40227e+06
2.42569e+06
2.47432e+06
2.5484e+06
2.19801e+06
2.21822e+06
2.26087e+06
2.32725e+06
2.00115e+06
2.0145e+06
2.04388e+06
2.09354e+06
1.96449e+06
1.96811e+06
1.97686e+06
1.99417e+06
1.62025e+06
1.62306e+06
1.62948e+06
1.64163e+06
1.71336e+06
1.72572e+06
1.75259e+06
1.79794e+06
1.99697e+06
2.01583e+06
2.0551e+06
2.11778e+06
2.27602e+06
2.29828e+06
2.34388e+06
2.41541e+06
2.45675e+06
2.48084e+06
2.52972e+06
2.60565e+06
2.4984e+06
2.52318e+06
2.57321e+06
2.65044e+06
2.39118e+06
2.41534e+06
2.46418e+06
2.53932e+06
2.15892e+06
2.18042e+06
2.22438e+06
2.2922e+06
1.88912e+06
1.90433e+06
1.93664e+06
1.98758e+06
1.79087e+06
1.79661e+06
1.81064e+06
1.8307e+06
1.45488e+06
1.457e+06
1.46222e+06
1.47377e+06
1.5966e+06
1.60812e+06
1.63379e+06
1.67818e+06
1.91497e+06
1.93299e+06
1.97101e+06
2.03204e+06
2.22047e+06
2.24198e+06
2.28655e+06
2.35631e+06
2.42901e+06
2.45251e+06
2.50079e+06
2.57541e+06
2.50296e+06
2.52737e+06
2.57742e+06
2.65435e+06
2.42869e+06
2.45293e+06
2.50272e+06
2.57927e+06
2.21573e+06
2.23829e+06
2.2849e+06
2.3571e+06
1.91425e+06
1.9324e+06
1.97073e+06
2.03148e+06
1.6686e+06
1.67852e+06
1.70054e+06
1.73565e+06
1.29024e+06
1.29181e+06
1.29641e+06
1.30822e+06
1.48042e+06
1.49146e+06
1.51632e+06
1.56019e+06
1.83006e+06
1.84751e+06
1.88443e+06
1.94429e+06
2.15938e+06
2.18036e+06
2.22387e+06
2.29235e+06
2.39426e+06
2.41735e+06
2.46487e+06
2.53858e+06
2.50065e+06
2.5249e+06
2.57471e+06
2.65152e+06
2.46319e+06
2.48767e+06
2.53803e+06
2.6158e+06
2.28251e+06
2.30605e+06
2.35461e+06
2.43031e+06
1.98389e+06
2.00458e+06
2.04754e+06
2.11599e+06
1.65099e+06
1.66522e+06
1.69606e+06
1.74586e+06
1.12617e+06
1.12733e+06
1.13146e+06
1.14304e+06
1.36496e+06
1.37567e+06
1.3999e+06
1.44276e+06
1.74295e+06
1.75986e+06
1.79572e+06
1.8537e+06
2.09322e+06
2.11365e+06
2.15607e+06
2.2224e+06
2.35234e+06
2.37501e+06
2.42167e+06
2.49351e+06
2.49021e+06
2.5143e+06
2.56368e+06
2.63933e+06
2.49108e+06
2.51579e+06
2.56642e+06
2.64419e+06
2.35042e+06
2.37479e+06
2.42479e+06
2.5024e+06
2.07846e+06
2.10111e+06
2.14771e+06
2.22122e+06
1.71667e+06
1.73497e+06
1.77385e+06
1.83526e+06
963406
964248
967935
979583
1.25083e+06
1.26122e+06
1.28481e+06
1.32701e+06
1.65398e+06
1.67039e+06
1.70516e+06
1.76161e+06
2.02213e+06
2.04206e+06
2.08334e+06
2.14794e+06
2.30301e+06
2.32531e+06
2.37104e+06
2.44139e+06
2.47068e+06
2.4946e+06
2.54344e+06
2.61815e+06
2.5098e+06
2.53465e+06
2.58535e+06
2.66307e+06
2.41308e+06
2.43808e+06
2.48911e+06
2.56803e+06
2.18229e+06
2.20644e+06
2.25576e+06
2.33293e+06
1.83481e+06
1.85635e+06
1.90143e+06
1.9712e+06
803083
803554
806764
818607
1.13934e+06
1.14943e+06
1.17233e+06
1.21374e+06
1.56388e+06
1.57976e+06
1.61336e+06
1.66809e+06
1.94653e+06
1.96593e+06
2.006e+06
2.0687e+06
2.24636e+06
2.26825e+06
2.31296e+06
2.38163e+06
2.4415e+06
2.46519e+06
2.51338e+06
2.5869e+06
2.51752e+06
2.54242e+06
2.593e+06
2.67024e+06
2.46592e+06
2.49137e+06
2.54307e+06
2.62253e+06
2.28409e+06
2.30935e+06
2.36063e+06
2.43998e+06
1.9773e+06
2.00118e+06
2.05064e+06
2.12584e+06
647520
647654
650475
662852
1.03263e+06
1.04242e+06
1.06462e+06
1.10509e+06
1.47369e+06
1.48904e+06
1.5214e+06
1.57421e+06
1.86702e+06
1.88588e+06
1.92469e+06
1.98531e+06
2.18263e+06
2.20407e+06
2.24772e+06
2.31456e+06
2.4024e+06
2.42583e+06
2.47328e+06
2.54542e+06
2.51306e+06
2.53793e+06
2.58824e+06
2.66471e+06
2.50572e+06
2.53149e+06
2.58358e+06
2.66307e+06
2.37581e+06
2.40187e+06
2.45452e+06
2.53512e+06
2.12318e+06
2.14866e+06
2.20107e+06
2.27969e+06
501200
501221
504060
517562
933773
943336
964852
1.00409e+06
1.38497e+06
1.3998e+06
1.43089e+06
1.48149e+06
1.78454e+06
1.80286e+06
1.84036e+06
1.8987e+06
2.11235e+06
2.13335e+06
2.17588e+06
2.24073e+06
2.35349e+06
2.37664e+06
2.4233e+06
2.49389e+06
2.49578e+06
2.52059e+06
2.57053e+06
2.64599e+06
2.53042e+06
2.5564e+06
2.60867e+06
2.68782e+06
2.45211e+06
2.47873e+06
2.53234e+06
2.61352e+06
2.25863e+06
2.2852e+06
2.33955e+06
2.42029e+06
374145
374786
378826
394419
846955
856448
877386
914978
1.29979e+06
1.31417e+06
1.34399e+06
1.39208e+06
1.70041e+06
1.71824e+06
1.75442e+06
1.81026e+06
2.03641e+06
2.05701e+06
2.09842e+06
2.16109e+06
2.29526e+06
2.31815e+06
2.36399e+06
2.43287e+06
2.46561e+06
2.49035e+06
2.53986e+06
2.61413e+06
2.53889e+06
2.56502e+06
2.61736e+06
2.69591e+06
2.50966e+06
2.5367e+06
2.59098e+06
2.67232e+06
2.37518e+06
2.4025e+06
2.45816e+06
2.54018e+06
289837
292834
300558
318885
777486
787183
807786
843208
1.22083e+06
1.23489e+06
1.26356e+06
1.30879e+06
1.61644e+06
1.63386e+06
1.66882e+06
1.72192e+06
1.95615e+06
1.97639e+06
2.01675e+06
2.07709e+06
2.22864e+06
2.2513e+06
2.29637e+06
2.36342e+06
2.42301e+06
2.44769e+06
2.49678e+06
2.56975e+06
2.53084e+06
2.55711e+06
2.60946e+06
2.68727e+06
2.54676e+06
2.57413e+06
2.62893e+06
2.71017e+06
2.46807e+06
2.49594e+06
2.55253e+06
2.63532e+06
283867
290833
304041
323369
731187
741482
762197
795000
1.15132e+06
1.16531e+06
1.1931e+06
1.23524e+06
1.53499e+06
1.55217e+06
1.58609e+06
1.63632e+06
1.87339e+06
1.89341e+06
1.93285e+06
1.99077e+06
2.15507e+06
2.17759e+06
2.222e+06
2.28717e+06
2.36902e+06
2.39369e+06
2.44246e+06
2.5141e+06
2.50678e+06
2.5332e+06
2.58561e+06
2.66263e+06
2.56299e+06
2.59067e+06
2.64594e+06
2.727e+06
2.53511e+06
2.56344e+06
2.62081e+06
2.70412e+06
354718
364982
382696
401782
712824
724181
745690
775843
1.09496e+06
1.10921e+06
1.1366e+06
1.17568e+06
1.45903e+06
1.47622e+06
1.50945e+06
1.55686e+06
1.79062e+06
1.81059e+06
1.8494e+06
1.90497e+06
2.07661e+06
2.09914e+06
2.14312e+06
2.20649e+06
2.30535e+06
2.33013e+06
2.37875e+06
2.44917e+06
2.468e+06
2.49465e+06
2.54726e+06
2.62362e+06
2.55907e+06
2.58709e+06
2.64293e+06
2.72388e+06
2.57605e+06
2.60482e+06
2.663e+06
2.74684e+06
463166
475856
497472
517761
723991
736829
760000
788264
1.05551e+06
1.07042e+06
1.09816e+06
1.13467e+06
1.39214e+06
1.40965e+06
1.44276e+06
1.48772e+06
1.71102e+06
1.7312e+06
1.76981e+06
1.82336e+06
1.99612e+06
2.01884e+06
2.06276e+06
2.12465e+06
2.23451e+06
2.25955e+06
2.30834e+06
2.37785e+06
2.41672e+06
2.44371e+06
2.49678e+06
2.57278e+06
2.53683e+06
2.56529e+06
2.62191e+06
2.70304e+06
2.59219e+06
2.62149e+06
2.68067e+06
2.76528e+06
583095
597831
623473
646903
762025
776582
802313
830332
1.03615e+06
1.05212e+06
1.08112e+06
1.1162e+06
1.33839e+06
1.35657e+06
1.39031e+06
1.43372e+06
1.63862e+06
1.65928e+06
1.69833e+06
1.75061e+06
1.91735e+06
1.94051e+06
1.98488e+06
2.04597e+06
2.16003e+06
2.1855e+06
2.23491e+06
2.30413e+06
2.35618e+06
2.38367e+06
2.4376e+06
2.51385e+06
2.49931e+06
2.52833e+06
2.58609e+06
2.668e+06
2.58635e+06
2.61627e+06
2.67682e+06
2.76278e+06
702860
719246
749034
777318
821016
837226
866218
896236
1.03867e+06
1.05592e+06
1.08711e+06
1.12268e+06
1.30197e+06
1.32108e+06
1.35635e+06
1.39977e+06
1.5782e+06
1.59959e+06
1.63984e+06
1.6922e+06
1.84516e+06
1.86894e+06
1.91442e+06
1.9759e+06
2.08659e+06
2.11267e+06
2.16325e+06
2.23329e+06
2.29096e+06
2.31907e+06
2.37435e+06
2.4519e+06
2.45094e+06
2.48064e+06
2.54e+06
2.62371e+06
2.56289e+06
2.59357e+06
2.65597e+06
2.74428e+06
816497
833790
867439
902056
893862
911220
943711
978143
1.06287e+06
1.08121e+06
1.11526e+06
1.15383e+06
1.2866e+06
1.30663e+06
1.34418e+06
1.38993e+06
1.53513e+06
1.55727e+06
1.59945e+06
1.65395e+06
1.78548e+06
1.80991e+06
1.85716e+06
1.92089e+06
2.02033e+06
2.04702e+06
2.09936e+06
2.17194e+06
2.22719e+06
2.25594e+06
2.31309e+06
2.39356e+06
2.3979e+06
2.42831e+06
2.48976e+06
2.57683e+06
2.52807e+06
2.55955e+06
2.62434e+06
2.71655e+06
919977
936825
973303
1.01547e+06
973733
991115
1.02657e+06
1.06765e+06
1.10646e+06
1.12504e+06
1.1619e+06
1.20629e+06
1.29475e+06
1.31507e+06
1.35515e+06
1.40614e+06
1.51475e+06
1.53715e+06
1.5816e+06
1.64106e+06
1.74515e+06
1.76982e+06
1.8192e+06
1.88782e+06
1.96882e+06
1.99577e+06
2.0502e+06
2.1278e+06
2.17287e+06
2.20194e+06
2.26127e+06
2.34704e+06
2.34847e+06
2.37932e+06
2.44315e+06
2.5359e+06
2.49047e+06
2.52257e+06
2.5901e+06
2.68847e+06
1.00983e+06
1.02398e+06
1.06104e+06
1.11156e+06
1.05455e+06
1.06995e+06
1.10663e+06
1.15616e+06
1.1654e+06
1.18246e+06
1.22088e+06
1.27375e+06
1.32688e+06
1.34594e+06
1.38769e+06
1.44706e+06
1.52138e+06
1.5427e+06
1.5888e+06
1.65651e+06
1.73118e+06
1.75487e+06
1.80587e+06
1.8827e+06
1.94079e+06
1.96688e+06
2.02296e+06
2.10884e+06
2.13784e+06
2.16623e+06
2.22733e+06
2.32158e+06
2.31331e+06
2.34372e+06
2.40956e+06
2.51113e+06
2.46149e+06
2.49343e+06
2.56344e+06
2.67107e+06
1.08255e+06
1.09049e+06
1.124e+06
1.18288e+06
1.1308e+06
1.14105e+06
1.17538e+06
1.23432e+06
1.23447e+06
1.24704e+06
1.28393e+06
1.34729e+06
1.38095e+06
1.39597e+06
1.43668e+06
1.50724e+06
1.55717e+06
1.57476e+06
1.62011e+06
1.69938e+06
1.74941e+06
1.76964e+06
1.82007e+06
1.90867e+06
1.94499e+06
1.96789e+06
2.02357e+06
2.12142e+06
2.13313e+06
2.15864e+06
2.21955e+06
2.32605e+06
2.30527e+06
2.33318e+06
2.39918e+06
2.51337e+06
2.45552e+06
2.48544e+06
2.55622e+06
2.67693e+06
1.13424e+06
1.1309e+06
1.15378e+06
1.21952e+06
1.19708e+06
1.19753e+06
1.22321e+06
1.29111e+06
1.30747e+06
1.31113e+06
1.34071e+06
1.41524e+06
1.45228e+06
1.45895e+06
1.49322e+06
1.57663e+06
1.62077e+06
1.63041e+06
1.66988e+06
1.76314e+06
1.80254e+06
1.81517e+06
1.86008e+06
1.96345e+06
1.9881e+06
2.00376e+06
2.05418e+06
2.16739e+06
2.169e+06
2.18768e+06
2.24365e+06
2.36604e+06
2.33782e+06
2.35941e+06
2.4209e+06
2.55152e+06
2.48907e+06
2.51331e+06
2.58035e+06
2.71799e+06
1.16039e+06
1.13907e+06
1.13988e+06
1.20794e+06
1.24739e+06
1.2319e+06
1.23867e+06
1.31234e+06
1.37672e+06
1.36565e+06
1.37839e+06
1.46223e+06
1.53288e+06
1.52548e+06
1.54418e+06
1.63974e+06
1.70587e+06
1.70185e+06
1.72648e+06
1.834e+06
1.88752e+06
1.88678e+06
1.91725e+06
2.03642e+06
2.07118e+06
2.07372e+06
2.10994e+06
2.24008e+06
2.25097e+06
2.25687e+06
2.29888e+06
2.43906e+06
2.42113e+06
2.43036e+06
2.47826e+06
2.62733e+06
2.57725e+06
2.58977e+06
2.64396e+06
2.80049e+06
1.15602e+06
1.10913e+06
1.07022e+06
1.12987e+06
1.2742e+06
1.23583e+06
1.20812e+06
1.27895e+06
1.43147e+06
1.39912e+06
1.38064e+06
1.46697e+06
1.60951e+06
1.58168e+06
1.57098e+06
1.67326e+06
1.79848e+06
1.77444e+06
1.77059e+06
1.88803e+06
1.99165e+06
1.971e+06
1.97335e+06
2.10474e+06
2.18436e+06
2.16698e+06
2.1751e+06
2.31903e+06
2.37306e+06
2.35898e+06
2.37274e+06
2.52769e+06
2.55386e+06
2.54302e+06
2.56254e+06
2.72676e+06
2.72485e+06
2.71761e+06
2.74366e+06
2.91531e+06
1.11752e+06
1.03919e+06
935857
962976
1.26693e+06
1.20043e+06
1.11716e+06
1.16511e+06
1.45344e+06
1.39497e+06
1.32613e+06
1.39762e+06
1.6573e+06
1.60452e+06
1.54627e+06
1.63969e+06
1.86943e+06
1.82097e+06
1.77097e+06
1.8838e+06
2.084e+06
2.03911e+06
1.99581e+06
2.12541e+06
2.29694e+06
2.25519e+06
2.2176e+06
2.36125e+06
2.5059e+06
2.46712e+06
2.43473e+06
2.58976e+06
2.70756e+06
2.67081e+06
2.64311e+06
2.80652e+06
2.90208e+06
2.86638e+06
2.84351e+06
3.0166e+06
1.05226e+06
943818
753463
695317
1.20966e+06
1.11376e+06
954108
934177
1.40381e+06
1.31681e+06
1.17841e+06
1.19402e+06
1.61944e+06
1.53842e+06
1.41485e+06
1.4604e+06
1.84936e+06
1.77214e+06
1.65952e+06
1.72951e+06
2.08732e+06
2.01253e+06
1.90838e+06
1.9976e+06
2.32731e+06
2.25387e+06
2.1566e+06
2.26007e+06
2.56422e+06
2.49114e+06
2.39983e+06
2.51308e+06
2.79155e+06
2.71668e+06
2.63032e+06
2.74919e+06
2.99559e+06
2.92705e+06
2.84521e+06
2.97122e+06
3.26033e+06
3.19647e+06
3.12165e+06
3.24358e+06
3.48641e+06
3.42291e+06
3.34532e+06
3.43244e+06
3.66704e+06
3.59919e+06
3.5116e+06
3.62648e+06
3.92605e+06
3.86015e+06
3.77496e+06
3.84775e+06
4.05764e+06
4.00778e+06
3.94631e+06
4.06124e+06
4.38749e+06
4.32418e+06
4.26111e+06
4.38371e+06
4.5e+06
4.5e+06
4.5e+06
4.5e+06
4.5e+06
4.5e+06
4.5e+06
4.5e+06
4.5e+06
4.5e+06
4.5e+06
4.5e+06
4.5e+06
4.5e+06
4.5e+06
4.5e+06
3.10715e+06
3.07405e+06
3.05693e+06
3.23477e+06
3.30657e+06
3.2698e+06
3.24455e+06
3.423e+06
3.51536e+06
3.47575e+06
3.44141e+06
3.62188e+06
3.73273e+06
3.69194e+06
3.64971e+06
3.81016e+06
3.90582e+06
3.86395e+06
3.81539e+06
3.9905e+06
4.13569e+06
4.09602e+06
4.04498e+06
4.21146e+06
4.38833e+06
4.34623e+06
4.28526e+06
4.47451e+06
4.5e+06
4.5e+06
4.5e+06
4.5e+06
4.5e+06
4.5e+06
4.5e+06
4.5e+06
4.5e+06
4.5e+06
4.5e+06
4.5e+06
2.9055e+06
2.8993e+06
2.92847e+06
3.11563e+06
3.10057e+06
3.0899e+06
3.11359e+06
3.30702e+06
3.30221e+06
3.28763e+06
3.30439e+06
3.50258e+06
3.50181e+06
3.48324e+06
3.49211e+06
3.68985e+06
3.69249e+06
3.66983e+06
3.66985e+06
3.87015e+06
3.89029e+06
3.86394e+06
3.85478e+06
4.04598e+06
4.08326e+06
4.05464e+06
4.03794e+06
4.23384e+06
4.25286e+06
4.21977e+06
4.20054e+06
4.39352e+06
4.4107e+06
4.37426e+06
4.34064e+06
4.5e+06
4.49953e+06
4.45221e+06
4.40954e+06
4.48548e+06
2.74138e+06
2.75331e+06
2.80812e+06
2.98943e+06
2.92563e+06
2.93393e+06
2.98741e+06
3.17841e+06
3.11449e+06
3.11906e+06
3.16895e+06
3.3689e+06
3.30237e+06
3.30261e+06
3.34703e+06
3.55296e+06
3.48443e+06
3.48005e+06
3.5171e+06
3.72696e+06
3.66032e+06
3.651e+06
3.67907e+06
3.88854e+06
3.82417e+06
3.80976e+06
3.82753e+06
4.03519e+06
3.96654e+06
3.94656e+06
3.95358e+06
4.15081e+06
4.06986e+06
4.04313e+06
4.03299e+06
4.2049e+06
4.11323e+06
4.07974e+06
4.05177e+06
4.15753e+06
2.6391e+06
2.66261e+06
2.72936e+06
2.89597e+06
2.80303e+06
2.82422e+06
2.89316e+06
3.07152e+06
2.97138e+06
2.99e+06
3.05868e+06
3.24828e+06
3.13936e+06
3.15474e+06
3.22097e+06
3.41982e+06
3.30188e+06
3.31336e+06
3.37486e+06
3.58014e+06
3.45412e+06
3.46103e+06
3.5154e+06
3.72297e+06
3.58903e+06
3.59058e+06
3.63533e+06
3.84092e+06
3.69605e+06
3.69108e+06
3.72379e+06
3.92165e+06
3.75668e+06
3.74336e+06
3.75879e+06
3.93779e+06
3.75837e+06
3.73707e+06
3.73113e+06
3.86616e+06
2.59128e+06
2.6209e+06
2.69152e+06
2.84168e+06
2.73069e+06
2.75936e+06
2.83464e+06
2.99733e+06
2.87468e+06
2.90217e+06
2.97982e+06
3.15469e+06
3.01871e+06
3.04427e+06
3.12215e+06
3.30782e+06
3.15717e+06
3.17989e+06
3.25565e+06
3.4496e+06
3.28339e+06
3.30233e+06
3.37335e+06
3.57182e+06
3.38897e+06
3.40304e+06
3.4664e+06
3.66455e+06
3.46262e+06
3.4704e+06
3.52287e+06
3.71437e+06
3.48815e+06
3.48798e+06
3.5248e+06
3.69975e+06
3.45294e+06
3.4441e+06
3.46039e+06
3.60288e+06
2.58208e+06
2.61421e+06
2.68458e+06
2.81992e+06
2.69649e+06
2.72883e+06
2.80531e+06
2.95292e+06
2.81542e+06
2.84784e+06
2.92845e+06
3.08823e+06
2.93452e+06
2.96627e+06
3.04912e+06
3.22019e+06
3.04786e+06
3.07795e+06
3.16085e+06
3.34116e+06
3.14788e+06
3.17521e+06
3.25559e+06
3.44181e+06
3.22529e+06
3.24859e+06
3.32346e+06
3.51099e+06
3.26853e+06
3.28631e+06
3.35224e+06
3.53503e+06
3.26363e+06
3.27421e+06
3.32682e+06
3.49627e+06
3.198e+06
3.20018e+06
3.2345e+06
3.37857e+06
2.59482e+06
2.62751e+06
2.69594e+06
2.81909e+06
2.68615e+06
2.71984e+06
2.79495e+06
2.92949e+06
2.78157e+06
2.81626e+06
2.89646e+06
3.04249e+06
2.87694e+06
2.91198e+06
2.9957e+06
3.15277e+06
2.96624e+06
3.00068e+06
3.08603e+06
3.25257e+06
3.04157e+06
3.07427e+06
3.15888e+06
3.33207e+06
3.09319e+06
3.12282e+06
3.20384e+06
3.37949e+06
3.10959e+06
3.13462e+06
3.20865e+06
3.38119e+06
3.07822e+06
3.09697e+06
3.15998e+06
3.32204e+06
2.98791e+06
2.99901e+06
3.04639e+06
3.18805e+06
2.61512e+06
2.64744e+06
2.71353e+06
2.82718e+06
2.68664e+06
2.72041e+06
2.79311e+06
2.91696e+06
2.76148e+06
2.79681e+06
2.87492e+06
3.0092e+06
2.83577e+06
2.87214e+06
2.95444e+06
3.09901e+06
2.90359e+06
2.94016e+06
3.02507e+06
3.1788e+06
2.957e+06
2.9927e+06
3.07814e+06
3.23863e+06
2.98618e+06
3.01972e+06
3.10304e+06
3.26657e+06
2.97991e+06
3.00976e+06
3.08778e+06
3.24929e+06
2.92668e+06
2.95122e+06
3.02023e+06
3.17329e+06
2.817e+06
2.8348e+06
2.89064e+06
3.02699e+06
2.63151e+06
2.66313e+06
2.72706e+06
2.83354e+06
2.68706e+06
2.7203e+06
2.79038e+06
2.9058e+06
2.74501e+06
2.78008e+06
2.85542e+06
2.98004e+06
2.80177e+06
2.83826e+06
2.91797e+06
3.05185e+06
2.85163e+06
2.88885e+06
2.97164e+06
3.11395e+06
2.88683e+06
2.92381e+06
3.00789e+06
3.15662e+06
2.89774e+06
2.93327e+06
3.01626e+06
3.16808e+06
2.87358e+06
2.90622e+06
2.98517e+06
3.1355e+06
2.80383e+06
2.83203e+06
2.90355e+06
3.04668e+06
2.68055e+06
2.70291e+06
2.76329e+06
2.89225e+06
2.63523e+06
2.66609e+06
2.72824e+06
2.8294e+06
2.67872e+06
2.7112e+06
2.77881e+06
2.88775e+06
2.72377e+06
2.75811e+06
2.83059e+06
2.94746e+06
2.76703e+06
2.80295e+06
2.87961e+06
3.00457e+06
2.80311e+06
2.84002e+06
2.91983e+06
3.05224e+06
2.82453e+06
2.86158e+06
2.943e+06
3.08111e+06
2.82204e+06
2.85813e+06
2.93903e+06
3.07984e+06
2.78545e+06
2.81925e+06
2.89691e+06
3.03623e+06
2.70526e+06
2.73531e+06
2.80664e+06
2.93931e+06
2.57501e+06
2.59997e+06
2.66167e+06
2.78169e+06
2.6197e+06
2.64987e+06
2.71064e+06
2.80783e+06
2.65481e+06
2.68648e+06
2.75191e+06
2.85591e+06
2.69092e+06
2.72433e+06
2.79408e+06
2.90486e+06
2.72496e+06
2.75992e+06
2.83345e+06
2.95111e+06
2.75185e+06
2.78786e+06
2.86432e+06
2.98829e+06
2.7645e+06
2.80081e+06
2.87884e+06
3.00752e+06
2.75414e+06
2.78976e+06
2.86743e+06
2.99804e+06
2.71132e+06
2.74502e+06
2.81981e+06
2.94846e+06
2.62759e+06
2.65801e+06
2.72707e+06
2.849e+06
2.49794e+06
2.52381e+06
2.58419e+06
2.69412e+06
2.58018e+06
2.60972e+06
2.66938e+06
2.76357e+06
2.61001e+06
2.64088e+06
2.70441e+06
2.80465e+06
2.64089e+06
2.67331e+06
2.74057e+06
2.84657e+06
2.67003e+06
2.70384e+06
2.77436e+06
2.88607e+06
2.69266e+06
2.72742e+06
2.80043e+06
2.91722e+06
2.70208e+06
2.73712e+06
2.81137e+06
2.93169e+06
2.6901e+06
2.72451e+06
2.79819e+06
2.91938e+06
2.64804e+06
2.68067e+06
2.75144e+06
2.86977e+06
2.56854e+06
2.59813e+06
2.66333e+06
2.77433e+06
2.44799e+06
2.47335e+06
2.5303e+06
2.62922e+06
2.51338e+06
2.54233e+06
2.60104e+06
2.6928e+06
2.54025e+06
2.57032e+06
2.63215e+06
2.72947e+06
2.56916e+06
2.60055e+06
2.66553e+06
2.76777e+06
2.59763e+06
2.63018e+06
2.69784e+06
2.80468e+06
2.62117e+06
2.65447e+06
2.72403e+06
2.83468e+06
2.63347e+06
2.66688e+06
2.73712e+06
2.84997e+06
2.62688e+06
2.65953e+06
2.72871e+06
2.84108e+06
2.59348e+06
2.62429e+06
2.69018e+06
2.79844e+06
2.52693e+06
2.55473e+06
2.61482e+06
2.71469e+06
2.42477e+06
2.44846e+06
2.50032e+06
2.58748e+06
2.41746e+06
2.44578e+06
2.50353e+06
2.59313e+06
2.44248e+06
2.47173e+06
2.53193e+06
2.62685e+06
2.47198e+06
2.50231e+06
2.56513e+06
2.66432e+06
2.50381e+06
2.53503e+06
2.59993e+06
2.7027e+06
2.53372e+06
2.56539e+06
2.6315e+06
2.73678e+06
2.55566e+06
2.58714e+06
2.65319e+06
2.75917e+06
2.56238e+06
2.59283e+06
2.65708e+06
2.76101e+06
2.54657e+06
2.57497e+06
2.63525e+06
2.73351e+06
2.50263e+06
2.52788e+06
2.58184e+06
2.67031e+06
2.42874e+06
2.44987e+06
2.49535e+06
2.57013e+06
2.29213e+06
2.31968e+06
2.37626e+06
2.46363e+06
2.31469e+06
2.34303e+06
2.40149e+06
2.49427e+06
2.34631e+06
2.37549e+06
2.43615e+06
2.53271e+06
2.38522e+06
2.41499e+06
2.47713e+06
2.57631e+06
2.42724e+06
2.45711e+06
2.51968e+06
2.62002e+06
2.46637e+06
2.49566e+06
2.55726e+06
2.65666e+06
2.49544e+06
2.52331e+06
2.58215e+06
2.67771e+06
2.50731e+06
2.53279e+06
2.58678e+06
2.67486e+06
2.49651e+06
2.51863e+06
2.56563e+06
2.64231e+06
2.46103e+06
2.47895e+06
2.51714e+06
2.57906e+06
2.13909e+06
2.16561e+06
2.22057e+06
2.3053e+06
2.15602e+06
2.18324e+06
2.23969e+06
2.33027e+06
2.18973e+06
2.21759e+06
2.27591e+06
2.36998e+06
2.23892e+06
2.26707e+06
2.32628e+06
2.42204e+06
2.29922e+06
2.32707e+06
2.38584e+06
2.48131e+06
2.36415e+06
2.39095e+06
2.44767e+06
2.54039e+06
2.42594e+06
2.45083e+06
2.5037e+06
2.59056e+06
2.4768e+06
2.49891e+06
2.54595e+06
2.62337e+06
2.5104e+06
2.52893e+06
2.5683e+06
2.63273e+06
2.52327e+06
2.53759e+06
2.56793e+06
2.61671e+06
1.96303e+06
1.98808e+06
2.0406e+06
2.12183e+06
1.96713e+06
1.9929e+06
2.0468e+06
2.1348e+06
2.00047e+06
2.02676e+06
2.08235e+06
2.17375e+06
2.06242e+06
2.0887e+06
2.14458e+06
2.23672e+06
2.14781e+06
2.17332e+06
2.22775e+06
2.31798e+06
2.24855e+06
2.27246e+06
2.32366e+06
2.40907e+06
2.35501e+06
2.37651e+06
2.42266e+06
2.50003e+06
2.45737e+06
2.47572e+06
2.51511e+06
2.58109e+06
2.54696e+06
2.56159e+06
2.59285e+06
2.64453e+06
2.61739e+06
2.62795e+06
2.65028e+06
2.68592e+06
1.77347e+06
1.79636e+06
1.84509e+06
1.92126e+06
1.75109e+06
1.77492e+06
1.82537e+06
1.90991e+06
1.77758e+06
1.80191e+06
1.85412e+06
1.94226e+06
1.85363e+06
1.87766e+06
1.92953e+06
2.01741e+06
1.97192e+06
1.99465e+06
2.04392e+06
2.12795e+06
2.12047e+06
2.141e+06
2.18569e+06
2.26255e+06
2.28532e+06
2.30297e+06
2.34146e+06
2.40803e+06
2.4526e+06
2.46686e+06
2.49792e+06
2.55144e+06
2.60951e+06
2.62014e+06
2.64305e+06
2.68157e+06
2.74548e+06
2.75238e+06
2.76694e+06
2.7898e+06
1.58827e+06
1.60797e+06
1.65078e+06
1.71926e+06
1.51542e+06
1.53656e+06
1.58208e+06
1.66152e+06
1.52134e+06
1.5432e+06
1.59098e+06
1.67478e+06
1.61093e+06
1.63219e+06
1.67901e+06
1.76139e+06
1.77178e+06
1.79112e+06
1.83395e+06
1.91003e+06
1.98278e+06
1.99934e+06
2.03619e+06
2.10244e+06
2.22149e+06