/*--------------------------------*- C++ -*----------------------------------*\
| =========                 |                                                 |
| \\      /  F ield         | OpenFOAM: The Open Source CFD Toolbox           |
|  \\    /   O peration     | Version:  v2012                                 |
|   \\  /    A nd           | Website:  www.openfoam.com                      |
|    \\/     M anipulation  |                                                 |
\*---------------------------------------------------------------------------*/
FoamFile
{
    version     2.0;
    format      ascii;
    class       volSymmTensorField;
    location    "1";
    object      sigma;
}
// * * * * * * * * * * * * * * * * * * * * * * * * * * * * * * * * * * * * * //

dimensions      [1 -1 -2 0 0 0 0];


internalField   nonuniform List<symmTensor> 
7840
(
(-6.39959e+06 -1.59737e+06 129054 -2.58785e+06 -10980.6 -3.21001e+06)
(-6.34987e+06 -1.55797e+06 415922 -2.57601e+06 -36131 -3.13485e+06)
(-6.3043e+06 -1.45237e+06 776469 -2.64714e+06 -67349.5 -3.03752e+06)
(-6.50497e+06 -1.19192e+06 1.20971e+06 -3.05413e+06 -71003.2 -3.15123e+06)
(-5.58171e+06 -1.41532e+06 156741 -1.84358e+06 -6983.2 -1.95129e+06)
(-5.58066e+06 -1.36799e+06 507410 -1.83113e+06 -27791.6 -1.88468e+06)
(-5.53513e+06 -1.18416e+06 914499 -1.89596e+06 -73270.9 -1.82197e+06)
(-5.74883e+06 -803686 1.32923e+06 -2.30913e+06 -107612 -2.00333e+06)
(-3.907e+06 -992487 110524 -1.47582e+06 -7369.04 -1.42171e+06)
(-3.91736e+06 -956121 351276 -1.47062e+06 -20471.4 -1.38518e+06)
(-3.99788e+06 -861376 660994 -1.4743e+06 -38545.6 -1.3076e+06)
(-4.58622e+06 -625814 1.09716e+06 -1.6468e+06 -55906.7 -1.27983e+06)
(-2.17993e+06 -889681 64154.5 -860432 -7415.41 -800686)
(-2.18229e+06 -856569 201476 -855626 -19879 -780889)
(-2.22458e+06 -766859 371486 -859050 -30865.6 -746132)
(-2.53778e+06 -550075 601073 -960011 -32757.5 -741749)
(-619936 -871147 18522 -249374 -6995.4 -228670)
(-619994 -838413 57927.4 -247522 -18314.8 -223098)
(-630928 -750268 106037 -248079 -26614 -213382)
(-718217 -543591 170606 -276434 -27965.6 -211730)
(875423 -871190 -26625.1 353148 -7009.64 322356)
(876803 -838402 -82938 351385 -18614.2 315420)
(895490 -750032 -151245 353823 -26902.9 303243)
(1.02589e+06 -542146 -243091 396849 -28131.3 302671)
(2.45201e+06 -892473 -72740.1 967460 -7363.01 899586)
(2.45497e+06 -859313 -228061 962028 -20522.7 877482)
(2.50404e+06 -769110 -420259 966470 -31647.3 838906)
(2.86267e+06 -548753 -679265 1.08291e+06 -33486.1 835783)
(4.1715e+06 -1.00951e+06 -118478 1.57607e+06 -6538.19 1.5177e+06)
(4.18311e+06 -973268 -375897 1.56954e+06 -19812.9 1.47714e+06)
(4.26804e+06 -876589 -712406 1.57303e+06 -36491.1 1.38913e+06)
(4.88775e+06 -636196 -1.19587e+06 1.74797e+06 -62032.1 1.33401e+06)
(5.6293e+06 -1.46007e+06 -161309 1.8492e+06 -10382.6 1.99013e+06)
(5.61624e+06 -1.38566e+06 -508219 1.8687e+06 -38604.2 1.95994e+06)
(5.56468e+06 -1.19673e+06 -936141 1.93782e+06 -73414.5 1.89581e+06)
(5.75754e+06 -816256 -1.3557e+06 2.349e+06 -109207 2.05626e+06)
(6.37127e+06 -1.6341e+06 -132355 2.61341e+06 -12326.4 3.22939e+06)
(6.35682e+06 -1.59698e+06 -422857 2.64447e+06 -40352.8 3.18859e+06)
(6.31353e+06 -1.48659e+06 -798755 2.72152e+06 -62157.4 3.0971e+06)
(6.50305e+06 -1.21876e+06 -1.23323e+06 3.10992e+06 -69329.3 3.19966e+06)
(-5.63626e+06 -831196 92538.4 -943560 -17373.5 -2.01138e+06)
(-5.61442e+06 -791283 275499 -966702 -54896.5 -1.8999e+06)
(-5.51024e+06 -694459 420331 -953921 -88325.7 -1.59509e+06)
(-5.01736e+06 -545277 410836 -557812 -90136.5 -809815)
(-5.77672e+06 -1.20013e+06 107733 -1.6504e+06 -20197.5 -1.94632e+06)
(-5.7575e+06 -1.13759e+06 319358 -1.66271e+06 -69443 -1.84684e+06)
(-5.63847e+06 -989213 490256 -1.59735e+06 -139163 -1.54734e+06)
(-5.1988e+06 -771368 489967 -1.2149e+06 -189369 -812354)
(-4.25725e+06 -1.21619e+06 93711.3 -1.23525e+06 -22336.5 -1.09067e+06)
(-4.30189e+06 -1.18557e+06 282334 -1.22399e+06 -67012.3 -1.00253e+06)
(-4.40206e+06 -1.10469e+06 471871 -1.18949e+06 -117981 -795788)
(-4.33375e+06 -888967 483816 -1.04959e+06 -125475 -340069)
(-2.30922e+06 -1.15891e+06 53993.7 -757989 -21563.2 -600882)
(-2.31947e+06 -1.13017e+06 161497 -745822 -58661.8 -553205)
(-2.34933e+06 -1.05463e+06 264833 -724061 -88751.4 -451399)
(-2.32137e+06 -869126 269263 -668217 -74578.9 -223347)
(-652801 -1.1527e+06 15444.2 -224890 -19839 -171658)
(-654745 -1.12313e+06 46054.8 -220484 -52485.9 -158646)
(-661740 -1.04744e+06 75141.2 -213934 -75384.8 -130531)
(-652885 -869530 75931.8 -198206 -62754.6 -65462.7)
(920358 -1.15198e+06 -22514.2 321616 -19877.8 240187)
(924208 -1.12231e+06 -66839.7 316978 -53313 223183)
(936792 -1.04638e+06 -108628 310015 -76194.7 185200)
(929526 -867286 -109362 290722 -63063.6 93242.2)
(2.60356e+06 -1.15692e+06 -61811.2 856978 -21801.5 675406)
(2.61545e+06 -1.12798e+06 -184510 843034 -60740.3 621829)
(2.65009e+06 -1.05196e+06 -302535 819645 -91677.7 508269)
(2.6209e+06 -863673 -307059 758437 -76765.1 250677)
(4.57038e+06 -1.24946e+06 -101310 1.30828e+06 -21970.5 1.1638e+06)
(4.62304e+06 -1.216e+06 -312762 1.2937e+06 -68221.6 1.0576e+06)
(4.73978e+06 -1.13047e+06 -529479 1.26698e+06 -121633 840325)
(4.66683e+06 -907813 -540890 1.11309e+06 -142499 322298)
(5.80692e+06 -1.20618e+06 -107702 1.66977e+06 -24955.4 2.00291e+06)
(5.75417e+06 -1.13353e+06 -322985 1.63985e+06 -81296.9 1.8621e+06)
(5.63197e+06 -982460 -515743 1.57472e+06 -138488 1.5655e+06)
(5.1904e+06 -769605 -505816 1.19718e+06 -187136 818672)
(5.6388e+06 -847695 -95338.3 960354 -18300.9 2.01504e+06)
(5.60363e+06 -806749 -281284 972159 -59060.2 1.88727e+06)
(5.50071e+06 -707499 -439782 963291 -80992 1.58662e+06)
(5.01071e+06 -555793 -425993 565813 -85420.2 803535)
(-5.29417e+06 -466644 48219.2 -479425 -11908.2 -1.40254e+06)
(-5.24528e+06 -436615 131157 -475461 -35047.4 -1.26054e+06)
(-5.09399e+06 -380561 157828 -408146 -36470.8 -943052)
(-4.73191e+06 -322333 101122 -109877 -18159.5 -450051)
(-5.46466e+06 -914153 55772.2 -1.07449e+06 -28972.6 -1.45962e+06)
(-5.40247e+06 -864417 150730 -1.04499e+06 -90960.8 -1.3068e+06)
(-5.20117e+06 -766815 189672 -903841 -150389 -940651)
(-4.81097e+06 -667478 127174 -557819 -166206 -400751)
(-4.54543e+06 -1.35264e+06 62023.5 -965869 -36150 -798186)
(-4.54044e+06 -1.30809e+06 166443 -930820 -106325 -673646)
(-4.45359e+06 -1.20305e+06 230197 -830819 -169334 -417287)
(-4.12595e+06 -1.04052e+06 157369 -678415 -132490 -107703)
(-2.39224e+06 -1.36869e+06 35499 -616297 -32611.6 -417489)
(-2.38807e+06 -1.33871e+06 97414.6 -593120 -87991.5 -357276)
(-2.35726e+06 -1.26564e+06 136636 -546896 -125150 -242307)
(-2.20747e+06 -1.12901e+06 95887.4 -480255 -81756.8 -79309.9)
(-673250 -1.38184e+06 10085.3 -184605 -29042.8 -118904)
(-672029 -1.35268e+06 27705.9 -177229 -76849.4 -102974)
(-663921 -1.28302e+06 39066.7 -164472 -105798 -71592.2)
(-622228 -1.14975e+06 27487.7 -145615 -68309.9 -24560.4)
(948221 -1.37965e+06 -15161.7 271764 -29094.2 164692)
(947228 -1.35046e+06 -41382.2 263573 -78123.9 143513)
(937724 -1.28061e+06 -58170.8 248344 -106968 100866)
(882682 -1.14645e+06 -41079.5 225826 -68478.4 34614.3)
(2.69606e+06 -1.35947e+06 -41413.7 704696 -33430 466793)
(2.69029e+06 -1.32936e+06 -113375 677404 -92156.6 398343)
(2.65712e+06 -1.2565e+06 -159376 627417 -130539 272004)
(2.49066e+06 -1.11779e+06 -112261 555409 -84550.5 87047.5)
(4.83583e+06 -1.32071e+06 -67264.2 1.04907e+06 -36968 882152)
(4.78603e+06 -1.26222e+06 -179964 1.01031e+06 -109635 742907)
(4.67979e+06 -1.15476e+06 -247064 914522 -175603 486091)
(4.44529e+06 -1.03433e+06 -177926 706436 -153339 71168.9)
(5.48783e+06 -909561 -56098 1.08012e+06 -31359.5 1.49939e+06)
(5.40324e+06 -855985 -151371 1.02889e+06 -95089 1.31743e+06)
(5.20612e+06 -757785 -198088 890671 -148542 956497)
(4.79993e+06 -659727 -135097 532923 -160447 395563)
(5.29364e+06 -481330 -49390.2 490268 -10566 1.39427e+06)
(5.24111e+06 -448174 -133919 482364 -32997.1 1.24739e+06)
(5.09319e+06 -387310 -168694 416892 -29526.2 935384)
(4.72198e+06 -328020 -112969 108213 -11695.4 434334)
(-5.07121e+06 -268118 7390.05 -280053 -6094.32 -997039)
(-5.01868e+06 -251298 12028.5 -267963 -15803.7 -873470)
(-4.8906e+06 -227228 -16420.2 -206489 -4560.48 -641042)
(-4.63555e+06 -220089 -59311.2 18371.6 10223.6 -346557)
(-5.12987e+06 -711475 10661 -645829 -28972.2 -977719)
(-5.05527e+06 -677914 20056.7 -605451 -84739.4 -830888)
(-4.88131e+06 -624385 -1502.44 -489064 -128238 -549252)
(-4.59974e+06 -601000 -48968.6 -240771 -130299 -216205)
(-4.43196e+06 -1.30785e+06 20356.4 -617395 -42324.1 -475597)
(-4.38076e+06 -1.26996e+06 42676.2 -572229 -116940 -358381)
(-4.20729e+06 -1.19246e+06 40260.8 -482305 -167595 -172571)
(-3.84281e+06 -1.11694e+06 -8935.93 -377639 -109703 -20716.6)
(-2.38384e+06 -1.49493e+06 14388.2 -435057 -37229.5 -254718)
(-2.36227e+06 -1.46376e+06 33366.9 -408731 -97545 -202575)
(-2.2952e+06 -1.40135e+06 36692.6 -363313 -128482 -118144)
(-2.12209e+06 -1.32183e+06 4126.6 -313843 -71804.3 -31076.1)
(-676215 -1.54331e+06 4189.47 -132494 -32650.3 -74498)
(-670651 -1.51502e+06 9910.84 -124244 -85444.1 -60743.1)
(-652773 -1.45706e+06 11341.8 -111292 -110869 -37109.8)
(-604322 -1.37487e+06 2035.61 -96325.1 -61914.4 -10706.7)
(951977 -1.5401e+06 -6998.98 207232 -32633.7 101550)
(944585 -1.51168e+06 -16352.8 198066 -86921.6 82992.6)
(920774 -1.4534e+06 -19094.9 182719 -112053 50987)
(854603 -1.37084e+06 -5049.72 166872 -61900.2 14601.6)
(2.68711e+06 -1.47951e+06 -17638.8 511526 -38310.1 282867)
(2.65922e+06 -1.44811e+06 -40847 478812 -103464 221812)
(2.58462e+06 -1.38545e+06 -46658.1 429393 -135116 130479)
(2.3916e+06 -1.3053e+06 -8870.83 379434 -74581.3 32153.2)
(4.61662e+06 -1.22348e+06 -22028 725100 -42296.1 574542)
(4.55611e+06 -1.18199e+06 -48505.9 673889 -120095 445976)
(4.43121e+06 -1.12114e+06 -49340.4 562235 -175535 226776)
(4.16821e+06 -1.08381e+06 7017.91 410526 -128339 -6324.16)
(5.14491e+06 -699271 -11205.2 639060 -28743.3 1.007e+06)
(5.0645e+06 -665162 -22050 594356 -84897.4 851299)
(4.89046e+06 -612619 -5344.5 479586 -126568 567454)
(4.58873e+06 -590852 43295.6 212696 -127501 213021)
(5.0866e+06 -268671 -8053.17 301866 -3738.45 1.00221e+06)
(5.02684e+06 -253290 -14758.4 282933 -11745.8 872187)
(4.89274e+06 -232092 8109.48 215363 1064.29 635771)
(4.62464e+06 -228305 47095.8 -22457.2 14588.8 328857)
(-4.90188e+06 -151019 -23023.5 -166930 -2342.34 -699970)
(-4.8535e+06 -148331 -70712.3 -151439 -4180.46 -608549)
(-4.75366e+06 -154015 -124168 -99698 7518.99 -454915)
(-4.58789e+06 -187332 -141937 59191.6 16009.8 -292806)
(-4.83703e+06 -583905 -20356.4 -344957 -25117.3 -568618)
(-4.77487e+06 -564574 -61135.1 -315111 -70187.8 -459151)
(-4.65382e+06 -545226 -106237 -242890 -101510 -280137)
(-4.47063e+06 -574128 -125932 -82294.5 -96075.1 -98686.8)
(-4.08463e+06 -1.23984e+06 -9668.68 -308238 -38470.5 -200853)
(-4.00854e+06 -1.20798e+06 -33959.8 -274112 -102436 -125803)
(-3.84034e+06 -1.16143e+06 -58088.6 -216544 -132343 -30793.2)
(-3.55967e+06 -1.1509e+06 -73545.7 -164781 -74035 21262.6)
(-2.29305e+06 -1.54357e+06 -2458.14 -251982 -34592.8 -127978)
(-2.2625e+06 -1.51646e+06 -11789 -230884 -88310.7 -94054.1)
(-2.18656e+06 -1.47318e+06 -22637.7 -198990 -108144 -47167.8)
(-2.03791e+06 -1.44483e+06 -36447.8 -170219 -53387.3 -11392.4)
(-659032 -1.63532e+06 -545.211 -78101.9 -30738.6 -40355.6)
(-650888 -1.6114e+06 -2758.67 -71189.2 -79579 -31223.9)
(-630078 -1.57092e+06 -5447.91 -61453.3 -97834.2 -17373.4)
(-587457 -1.53583e+06 -9553.77 -51299.4 -50006 -4932.44)
(931062 -1.63181e+06 -437.335 137175 -30491.1 53650.1)
(919902 -1.60752e+06 2039.55 130257 -80796 41124.7)
(891234 -1.56679e+06 5467.74 119425 -98738.8 22377.8)
(831536 -1.53215e+06 12337.7 110754 -49930.9 6558.63)
(2.58068e+06 -1.52686e+06 1448.89 309886 -35205.5 137524)
(2.54565e+06 -1.49822e+06 11414.4 284848 -93744.9 97951.9)
(2.46155e+06 -1.45465e+06 22438.6 250741 -114573 47609.7)
(2.29429e+06 -1.42862e+06 39169.6 225376 -56370.9 10038.6)
(4.34858e+06 -1.16095e+06 9136.98 392365 -39471.9 257915)
(4.29272e+06 -1.13752e+06 35558.7 346611 -108853 163280)
(4.17697e+06 -1.11845e+06 60740.3 255950 -147745 18191.7)
(3.86221e+06 -1.10816e+06 84824.1 203741 -91182.6 -36734.2)
(4.87428e+06 -563706 19364.2 357356 -24407.6 617857)
(4.80581e+06 -546560 60141 322819 -70246.9 501488)
(4.67276e+06 -528320 101814 240461 -101736 308004)
(4.46704e+06 -556506 124932 57573.2 -100308 103285)
(4.92016e+06 -152581 22492.4 188207 -18.843 714327)
(4.86648e+06 -150993 67824.1 168416 -1258.75 616420)
(4.76427e+06 -156066 117483 114409 12167.8 459649)
(4.58549e+06 -185185 130754 -57673.8 19860.1 282636)
(-4.74677e+06 -106979 -41446.8 -74661.7 -445.264 -451364)
(-4.70998e+06 -114020 -117697 -61526.6 663.65 -394941)
(-4.646e+06 -134439 -177251 -26615.5 9224.25 -312150)
(-4.56523e+06 -187456 -171319 59830.8 14186.9 -249562)
(-4.58138e+06 -513145 -38583.8 -119892 -19542.4 -223255)
(-4.53439e+06 -506272 -103753 -97097.4 -52483.1 -153950)
(-4.44978e+06 -512795 -150444 -43383.5 -72340.6 -52203.8)
(-4.34752e+06 -581691 -143292 44759 -66452.8 14480.3)
(-3.6559e+06 -1.16062e+06 -25753.4 -84730.2 -29104.7 -20101.5)
(-3.59152e+06 -1.1418e+06 -68210.8 -66823.8 -74831.4 14932.9)
(-3.45851e+06 -1.12857e+06 -91856.8 -39549.9 -87921.1 46852.2)
(-3.28907e+06 -1.17199e+06 -83198 -27794.3 -42857.9 38000)
(-2.15053e+06 -1.53641e+06 -12453.4 -103823 -27563.4 -43640.6)
(-2.1206e+06 -1.51774e+06 -34557.5 -91568.9 -68720 -27493.5)
(-2.05329e+06 -1.4974e+06 -47100.6 -74687.6 -78620.5 -9084.69)
(-1.94514e+06 -1.51094e+06 -44900 -61102.2 -34799.5 -1882.57)
(-624956 -1.66912e+06 -3428.81 -32405.3 -25410.1 -16919.8)
(-616629 -1.6529e+06 -9355.42 -27745.6 -64999.6 -12306.8)
(-597661 -1.63244e+06 -12756.6 -21874.4 -76102.7 -6209.65)
(-565701 -1.63563e+06 -12428.6 -15672.7 -36674.6 -1862.4)
(891251 -1.66535e+06 3577.81 73229.3 -25009.1 21197.6)
(879751 -1.64912e+06 12216.8 69640.7 -65753.9 14893.9)
(852846 -1.6286e+06 17300.7 64204.1 -76543.6 6647.05)
(806999 -1.63248e+06 18132.8 61194.8 -36411.8 2809.13)
(2.42395e+06 -1.51981e+06 13029 140399 -27699.4 41600.3)
(2.39016e+06 -1.50129e+06 38655.9 126454 -72437.3 23043.1)
(2.31395e+06 -1.48104e+06 53314 108940 -82976.9 2992.91)
(2.19105e+06 -1.49646e+06 52588.6 102002 -36178.3 -199.041)
(3.99349e+06 -1.11615e+06 27035.6 128427 -31419.8 21733.6)
(3.92149e+06 -1.09755e+06 76705.2 108679 -82787.2 -16510)
(3.76067e+06 -1.08435e+06 101867 73542 -100459 -63968.5)
(3.54028e+06 -1.12675e+06 98535.3 56437.2 -54027.3 -55662.6)
(4.63809e+06 -489147 37762.3 152425 -19236.3 289088)
(4.59068e+06 -483646 105904 132023 -54600.9 217534)
(4.49575e+06 -487968 152608 73368.9 -75520 98093.2)
(4.37222e+06 -548612 151070 -36969.3 -74507 4017.34)
(4.77477e+06 -96159.7 41671 99570.1 1480.72 481686)
(4.73505e+06 -102724 117759 85232.4 2520.87 419882)
(4.6678e+06 -123222 177136 48156.8 14194.2 332175)
(4.56745e+06 -173479 168625 -59627.1 19303.6 249945)
(-4.60955e+06 -102276 -49711.3 -2095.26 672.782 -234655)
(-4.58769e+06 -112761 -134240 6333.52 3230.06 -210068)
(-4.5582e+06 -138933 -188425 25047.5 11404.4 -185565)
(-4.53568e+06 -198761 -165625 61622.4 16714.3 -188391)
(-4.36802e+06 -504914 -46909.4 54598.4 -13440.2 36084.6)
(-4.34121e+06 -511904 -115204 67322.3 -34404.7 63990.4)
(-4.29768e+06 -541803 -152208 94410.9 -43165.9 95265.7)
(-4.24225e+06 -630104 -125784 137527 -39209.6 97059.7)
(-3.31027e+06 -1.11849e+06 -31703.8 33009.6 -19448.7 54287.6)
(-3.27309e+06 -1.11514e+06 -74003.5 35128.3 -47009.8 57843.7)
(-3.19837e+06 -1.13006e+06 -90746.7 39136.1 -50733.7 50737.5)
(-3.10272e+06 -1.19555e+06 -69493.1 41528.5 -21136.7 21408.9)
(-1.99076e+06 -1.50629e+06 -16543.5 -6063.31 -19734.1 1952.63)
(-1.96684e+06 -1.49824e+06 -40312.8 -1308.82 -47388.4 5677.06)
(-1.91639e+06 -1.49968e+06 -49602.8 5121.92 -50915.9 7453.76)
(-1.84797e+06 -1.54067e+06 -38156.7 11265.1 -20543.7 1816.27)
(-581162 -1.66496e+06 -4678.01 -1509.06 -19161.8 -3135.65)
(-574107 -1.6577e+06 -11219.5 1129.92 -47821.8 -1734)
(-559325 -1.65617e+06 -13818.4 4137.56 -53399.4 -410.881)
(-538358 -1.68666e+06 -10805.6 7980.43 -24690.4 -150.253)
(840379 -1.66012e+06 5456.69 23795.8 -18844.2 2251.6)
(830544 -1.65297e+06 15733.9 22646.2 -48117.2 510.443)
(809119 -1.65167e+06 20078.3 21414.4 -53284.5 -988.209)
(778475 -1.68325e+06 17073.1 21945 -24028.1 931.734)
(2.24544e+06 -1.48584e+06 18066.3 21321.7 -19852.8 -11821.2)
(2.21809e+06 -1.47778e+06 46332.1 16135.3 -49297.7 -15546.6)
(2.16118e+06 -1.48006e+06 57710 11527.2 -52257.5 -16020.9)
(2.08529e+06 -1.52516e+06 45805.7 14832.9 -19113.2 -4122.52)
(3.52161e+06 -1.05933e+06 33222 -32594.8 -21344.7 -96323.3)
(3.47214e+06 -1.05566e+06 82719.9 -37433.2 -52771.3 -100342)
(3.3962e+06 -1.07343e+06 103307 -39058.5 -58694.1 -92512.7)
(3.31764e+06 -1.15013e+06 80732.3 -19450.5 -24815.2 -40295)
(4.41122e+06 -453564 46938.1 -31993.8 -13170.8 -5624.66)
(4.38302e+06 -458779 121734 -43760.3 -37586.8 -37753.7)
(4.34364e+06 -488397 164198 -60423.7 -50588.1 -71764.4)
(4.30939e+06 -579365 138983 -82211.9 -48013.8 -57470.8)
(4.64743e+06 -80383.9 50954.9 28530 2137.77 283192)
(4.62219e+06 -91396.9 139300 18764 3929.36 253340)
(4.58636e+06 -121341 197163 -3789.67 12932.3 220883)
(4.55173e+06 -187191 172993 -52371 18125.9 211109)
(-4.47649e+06 -113897 -49784.9 69422.5 2191.47 -34522.9)
(-4.46619e+06 -124577 -128797 77203.2 7784.56 -33089.2)
(-4.45894e+06 -149810 -170016 91312 17451.6 -46894.1)
(-4.48415e+06 -210600 -135317 87206.5 24427.5 -103886)
(-4.05071e+06 -530407 -45545.9 156162 -7284.91 178135)
(-4.00651e+06 -540139 -101245 150371 -16737.9 167529)
(-3.93461e+06 -571361 -120432 144276 -16961.3 140764)
(-3.8951e+06 -654879 -81589.1 140025 -14773.4 91266.6)
(-3.02565e+06 -1.08941e+06 -31400.1 93393.6 -11524.9 72526.2)
(-2.99929e+06 -1.09323e+06 -65557.8 92132.2 -25393.3 64576.1)
(-2.95115e+06 -1.11955e+06 -74026.1 92634 -23644.9 47037.9)
(-2.90945e+06 -1.19403e+06 -45389.7 92219.1 -5760.44 16154.1)
(-1.83408e+06 -1.46955e+06 -16694 48150 -13097.2 20491.9)
(-1.81637e+06 -1.47026e+06 -36482.8 49140.8 -29561.2 17805.6)
(-1.78252e+06 -1.4874e+06 -41650.8 50734.9 -29383.7 12047.9)
(-1.74587e+06 -1.54379e+06 -26995.8 54239.2 -10563.4 2623.94)
(-534687 -1.64026e+06 -4780.97 14773 -13562.6 3261.16)
(-529235 -1.641e+06 -10284.8 16064.9 -32205.4 2866.47)
(-518976 -1.65452e+06 -11707.3 17623.2 -34093.2 1847.72)
(-506982 -1.70207e+06 -7634.19 20551.4 -15227.1 478.771)
(785515 -1.63442e+06 5854.2 -9009.09 -13441.1 -6427.89)
(778048 -1.63542e+06 15022.5 -8841.94 -32096 -5612.72)
(763026 -1.64938e+06 17788.6 -7828.21 -33568.2 -3735.44)
(745488 -1.69818e+06 12971.9 -6042.95 -14262 -2.74084)
(2.0747e+06 -1.44757e+06 18541.6 -46840 -13208.3 -31536.1)
(2.05465e+06 -1.44891e+06 42300.3 -46985.9 -29818.6 -27798.1)
(2.01681e+06 -1.46754e+06 48544.9 -45547.7 -28789.2 -19277.4)
(1.97732e+06 -1.52842e+06 32006.8 -40613.4 -7818.17 -4289.06)
(3.24172e+06 -1.04463e+06 33330.2 -85020.5 -12694.8 -99083.1)
(3.21611e+06 -1.05179e+06 73491.5 -80212.4 -28170.5 -85486.7)
(3.16218e+06 -1.07943e+06 86524.3 -80674.8 -27934.8 -66267.7)
(3.11919e+06 -1.15928e+06 53441.2 -72060.2 -6105.48 -26433.6)
(4.2588e+06 -485815 48677.5 -141262 -7191.26 -180496)
(4.24661e+06 -500546 115302 -145971 -20360.1 -182642)
(4.19857e+06 -539202 144503 -148767 -26139.7 -169383)
(4.1563e+06 -629562 102514 -135337 -23923.1 -111439)
(4.52538e+06 -97742.5 52246.9 -34962.1 2971.01 96825.7)
(4.5127e+06 -109957 138056 -42919.3 6323.2 92178.4)
(4.5033e+06 -138855 185265 -55739.2 14257.9 102482)
(4.52135e+06 -204637 151378 -55787.1 20686.9 149107)
(-4.40058e+06 -141630 -44476.9 98186.9 3981.76 85910.5)
(-4.40435e+06 -154757 -109973 101268 13135.1 65647.8)
(-4.42222e+06 -180628 -134338 102320 24683.6 17789.5)
(-4.47474e+06 -234122 -94552.8 74256 31738.4 -70523.1)
(-3.67023e+06 -559069 -37676.6 130572 -1981.63 149760)
(-3.6535e+06 -575288 -75972.9 122466 -2572.49 127668)
(-3.638e+06 -614611 -81750.9 111045 1527.38 87486.4)
(-3.65807e+06 -693728 -43890.2 107008 -1144.7 42257.7)
(-2.7759e+06 -1.06867e+06 -27350.7 116070 -5639.36 66471.9)
(-2.75797e+06 -1.07833e+06 -50632.6 112969 -10131.7 54728)
(-2.73253e+06 -1.11288e+06 -51772.1 110755 -6201.98 35079.2)
(-2.72657e+06 -1.18847e+06 -23176.9 111331 1383.74 9952.88)
(-1.68588e+06 -1.43351e+06 -14795.2 71318 -8130.19 24069.4)
(-1.67301e+06 -1.44066e+06 -29020.6 71090.2 -16574.5 19056.9)
(-1.65267e+06 -1.46809e+06 -30407.2 71128.4 -14568.4 11104.9)
(-1.63816e+06 -1.53121e+06 -15789.3 74718 -4460.88 2269.54)
(-488939 -1.6067e+06 -4286.66 20428.7 -9142.18 5218.52)
(-484988 -1.61354e+06 -8331.88 20959.4 -20009.2 4000.88)
(-478476 -1.6377e+06 -8759.43 22056.1 -19768.4 2186.58)
(-472748 -1.69441e+06 -4607.97 24917.5 -8585.25 564.833)
(731156 -1.60026e+06 5343.58 -28095.7 -9203.19 -8715)
(725822 -1.60732e+06 12199 -27581.4 -19610.1 -6972.83)
(716644 -1.63205e+06 13397.5 -25823.5 -18963.6 -3981.11)
(709081 -1.69006e+06 8282.59 -24134.2 -7458.91 -301.188)
(1.91603e+06 -1.4117e+06 16456.4 -80128.9 -8300.48 -33204.7)
(1.90228e+06 -1.41957e+06 33625.7 -78429.4 -15854.2 -27010.7)
(1.88015e+06 -1.44873e+06 35685.9 -75192.8 -12938.1 -16053.1)
(1.86604e+06 -1.51603e+06 18909.5 -72060.7 -1411.42 -2976.62)
(2.97446e+06 -1.02651e+06 28728.4 -120536 -6265.29 -89337)
(2.9577e+06 -1.03872e+06 56602.1 -115393 -10940.2 -74452.5)
(2.93101e+06 -1.07567e+06 60601.9 -110825 -6778.09 -50208.2)
(2.92797e+06 -1.15744e+06 27841.6 -103004 3513.87 -16691.4)
(3.82839e+06 -510920 40132.9 -149271 -2062.72 -199272)
(3.8077e+06 -526523 85880.9 -139932 -5296.54 -176577)
(3.79043e+06 -567282 98838.8 -126941 -3623.9 -131971)
(3.8155e+06 -653221 56308.1 -116213 -5381.71 -78425.2)
(4.41063e+06 -116509 47409.6 -96928.6 4458.27 -71131.5)
(4.41231e+06 -129021 119817 -100657 10938.7 -53570.8)
(4.43213e+06 -156981 152378 -98617.3 20419.5 -3354.72)
(4.48123e+06 -217462 111875 -71753.2 28565.4 78494.6)
(-4.26784e+06 -183615 -35245.6 107497 5164.16 130502)
(-4.2573e+06 -195123 -80830.9 105044 15920 97938.3)
(-4.26213e+06 -216045 -89901.3 100294 27934.8 40628.4)
(-4.33945e+06 -258395 -50891.3 79935.1 35008.5 -38160.3)
(-3.4147e+06 -595149 -29310.8 100574 1457.9 96270.2)
(-3.40542e+06 -612038 -52456.9 96305.4 5631.41 76381.7)
(-3.40574e+06 -650040 -49554.9 91331.1 10984.3 44347.6)
(-3.44305e+06 -718834 -15407.3 95062.7 5242.75 14554.7)
(-2.55853e+06 -1.05882e+06 -21757.3 111647 -1936.68 49052.8)
(-2.54676e+06 -1.07198e+06 -35418.2 108937 -1445.34 37995.4)
(-2.53683e+06 -1.10997e+06 -31778.8 107485 2508.27 21641.2)
(-2.54895e+06 -1.18119e+06 -7448.43 112185 3343.72 5143.33)
(-1.54782e+06 -1.40254e+06 -11999 74535.5 -4687.98 20584.8)
(-1.53925e+06 -1.41394e+06 -20985.8 74089.5 -8137.24 15338.5)
(-1.52887e+06 -1.44707e+06 -19719.8 74406.5 -5669.53 8105.03)
(-1.52758e+06 -1.51112e+06 -6968.52 79360.9 -1389.33 1675.15)
(-445160 -1.57201e+06 -3552.88 19703.7 -5903.6 5041.01)
(-442501 -1.58307e+06 -6191.23 19932.6 -11514.8 3604.2)
(-438784 -1.61372e+06 -5891.3 20999 -10319.9 1794.63)
(-436922 -1.67385e+06 -2183.23 23992.3 -4457.78 542.8)
(679526 -1.56531e+06 4365.28 -37433.6 -6003.47 -7746.32)
(675863 -1.57647e+06 8824.72 -37015 -10943.5 -6015.07)
(671251 -1.60775e+06 8820.12 -35437.5 -9375.56 -3165.86)
(670370 -1.66917e+06 4263.11 -34537.2 -3329.68 -220.416)
(1.76964e+06 -1.38129e+06 13300.1 -91303.3 -4837.99 -27160.5)
(1.76034e+06 -1.39329e+06 24017.1 -89610.1 -6888.32 -21083.4)
(1.75004e+06 -1.42824e+06 22844.2 -86799.2 -3508.25 -11191.2)
(1.75208e+06 -1.49617e+06 8239.92 -86429.3 1574.38 -1682.67)
(2.74695e+06 -1.02111e+06 22825.2 -123820 -2148.88 -66585.7)
(2.73648e+06 -1.03626e+06 39373 -119539 -929.194 -53491.2)
(2.72788e+06 -1.07663e+06 36993 -115314 3771.74 -31919.5)
(2.74725e+06 -1.15369e+06 8666.1 -112889 6376.6 -8681.13)
(3.56168e+06 -559230 31030.8 -105816 1509.26 -129952)
(3.55511e+06 -576718 59548.8 -98630.3 4373.07 -107156)
(3.55636e+06 -615409 62047.7 -91649 8884.75 -68013.8)
(3.60116e+06 -689522 22397.5 -89941.4 4231.51 -31359.2)
(4.37623e+06 -157234 39289.9 -97803.9 5956.89 -131997)
(4.38424e+06 -170132 93348.1 -101308 15606.1 -104909)
(4.40731e+06 -195411 111633 -103833 26572.5 -46709.1)
(4.45874e+06 -243872 68347 -75902.5 35932.1 39339)
(-3.95419e+06 -213225 -24803.6 63105.4 5387.39 76105.6)
(-3.95546e+06 -223544 -52947.4 62135 15735.8 48514.8)
(-3.97503e+06 -240935 -53308.5 59583.5 26466.8 1738.84)
(-4.04955e+06 -272212 -20023.2 47299.6 32015.3 -56352.5)
(-3.1849e+06 -623547 -21590.9 79063.9 3212.23 54789.4)
(-3.18129e+06 -640081 -33647.1 76537.8 9221.23 39389.5)
(-3.19055e+06 -675529 -26115.3 75156.1 13743.6 17153.2)
(-3.23059e+06 -734535 2205.95 85192 5904.2 1709.17)
(-2.36248e+06 -1.05548e+06 -16298.8 94894.3 28.1636 30868.9)
(-2.35557e+06 -1.07049e+06 -23061.2 93339 2547.17 22234.2)
(-2.35492e+06 -1.10855e+06 -17002.3 94014.2 5549.92 10892.4)
(-2.37443e+06 -1.17324e+06 2126.42 102583 2869.65 1960.08)
(-1.42039e+06 -1.37769e+06 -9182 66576.8 -2538.67 14701)
(-1.41521e+06 -1.39165e+06 -14056.4 66408.9 -3308.71 10289)
(-1.41133e+06 -1.42713e+06 -11311.3 67751.6 -1143.96 4927.73)
(-1.41685e+06 -1.48898e+06 -1068.74 74074.1 -222.459 1096.74)
(-404047 -1.54021e+06 -2799.16 15469 -3733.15 3998.18)
(-402350 -1.55391e+06 -4304.26 15664.1 -6177.17 2697.05)
(-400506 -1.58784e+06 -3576.22 16855.1 -4761.56 1230.84)
(-400751 -1.64783e+06 -509.036 19895.9 -2183.56 466.809)
(631304 -1.5337e+06 3279.99 -40478.7 -3782.07 -5557.33)
(629171 -1.54751e+06 5790.29 -40174.8 -5565.08 -4129.93)
(627690 -1.58202e+06 5057.38 -39249.2 -3850.72 -2001.06)
(630555 -1.64307e+06 1415.33 -39431 -1220.68 -0.621867)
(1.63513e+06 -1.35783e+06 9972.77 -89356.2 -2565.66 -18890.1)
(1.6298e+06 -1.37234e+06 15619 -88147 -1875.91 -13875.2)
(1.62728e+06 -1.40955e+06 12569.4 -86870.3 1079.08 -6534.85)
(1.63764e+06 -1.47453e+06 1048.57 -89363.1 2274.6 -616.178)
(2.54662e+06 -1.02285e+06 17005.9 -112088 121.908 -42748.2)
(2.54109e+06 -1.03926e+06 25002.7 -109199 3795.48 -32546.4)
(2.54321e+06 -1.07967e+06 19074.3 -107349 7659.66 -16860.8)
(2.57149e+06 -1.14915e+06 -2871.15 -110722 5701.43 -3249.82)
(3.32731e+06 -592608 22750.6 -87635 3540.91 -78583.2)
(3.32607e+06 -609718 37882 -83303.1 9341.35 -60781)
(3.33858e+06 -646688 32625.8 -79642.6 14111.6 -31505.2)
(3.39072e+06 -710749 39.5274 -83814.8 6984.18 -8723.55)
(4.08187e+06 -193787 28135.4 -69531.9 6390.73 -106037)
(4.08569e+06 -204777 62286.3 -65908.2 17113.9 -72605.3)
(4.10724e+06 -223864 65599.4 -64188.7 28007.4 -18040.1)
(4.19421e+06 -259634 28098.5 -54775.7 35501.8 42319.1)
(-3.756e+06 -240171 -18236.9 21548 5214.75 10403.8)
(-3.76013e+06 -249228 -36597 21871.1 14668.5 -10042.1)
(-3.78096e+06 -263938 -33622.3 21693.7 23909.9 -43056.1)
(-3.83497e+06 -288553 -7944.21 20088.3 28104 -77169)
(-2.97481e+06 -650539 -15630 55816.8 3698.44 22204.8)
(-2.9744e+06 -665967 -20957.5 54595.1 9718.02 11828.3)
(-2.98711e+06 -698267 -12199.7 55997.4 12719.1 -937.625)
(-3.02199e+06 -749371 9293.34 71139.1 3786.63 -4621.68)
(-2.18157e+06 -1.05666e+06 -11802.5 74082.9 829.196 15891.7)
(-2.17818e+06 -1.07221e+06 -14166.8 73648.7 3765.91 10026.9)
(-2.18229e+06 -1.10869e+06 -7465.31 76433.4 5548.8 3609.69)
(-2.2024e+06 -1.16708e+06 6764.79 87819.3 1427.36 337.392)
(-1.30264e+06 -1.35877e+06 -6788 53582 -1387.71 8915.98)
(-1.29978e+06 -1.37395e+06 -8835.47 53921.2 -980.459 5732.13)
(-1.29964e+06 -1.40969e+06 -5515.05 56355.2 568.874 2407.49)
(-1.30773e+06 -1.46811e+06 2291.69 63621.5 -126.25 660.136)
(-365641 -1.51308e+06 -2142.51 9723.8 -2427.66 2817.21)
(-364580 -1.52818e+06 -2851.49 9998.32 -3204.44 1790.31)
(-363850 -1.5632e+06 -1933.72 11321.3 -1958.79 750.689)
(-365037 -1.62118e+06 487.821 14282.9 -1135.52 385.641)
(586681 -1.50706e+06 2321.38 -39895.4 -2438.01 -3219.28)
(585688 -1.52229e+06 3411.91 -39818.2 -2642.51 -2241.61)
(586117 -1.55782e+06 2332.71 -39652.9 -1183.09 -951.274)
(590601 -1.61656e+06 -355.245 -40810.2 -380.146 159.813)
(1.51168e+06 -1.34081e+06 7126.01 -80533.7 -1321.4 -11024.1)
(1.50918e+06 -1.35653e+06 9216.34 -80036.2 373.691 -7471.96)
(1.51111e+06 -1.39375e+06 5389.55 -80559.7 2507.67 -2924.86)
(1.52432e+06 -1.45441e+06 -3082.21 -85420.9 1793.65 49.3478)
(2.36332e+06 -1.02821e+06 12101.4 -94536.6 1075.32 -23196.1)
(2.36129e+06 -1.04489e+06 14427 -93116.6 5205.64 -16200.8)
(2.3688e+06 -1.08342e+06 7121.8 -94022.4 7697.41 -6722.03)
(2.39746e+06 -1.14514e+06 -8734.15 -102054 3714.47 -486.997)
(3.11618e+06 -622512 16115.5 -67597.9 4172.85 -38562.5)
(3.1183e+06 -638586 22199.3 -64995.9 10570.7 -26110.7)
(3.135e+06 -672145 13515.7 -64944 13814.4 -8104.35)
(3.18188e+06 -726405 -11100 -75826.9 5388.36 1524.89)
(3.82877e+06 -223473 19312.6 -39192.3 6030.08 -48394.4)
(3.8356e+06 -232729 39124.3 -38040.7 16168.1 -23166)
(3.86145e+06 -248445 35782.9 -37243.7 25871.3 15783.5)
(3.93236e+06 -274866 7558.91 -32996.6 30758.8 57444.9)
(-3.52639e+06 -256057 -13830.4 11516.5 4901.61 -21028.6)
(-3.53194e+06 -264134 -26694.1 12163.6 13538.9 -35531.2)
(-3.55221e+06 -277222 -23682.5 12821.2 21687 -57632.1)
(-3.59527e+06 -299089 -5040.6 14876.2 25235.4 -78769.5)
(-2.77242e+06 -674693 -11367.9 36704.9 3555.49 136.28)
(-2.77389e+06 -688880 -13321 36338.6 8837.85 -5996.18)
(-2.78679e+06 -718066 -5460.79 39600.1 10513.9 -11382.7)
(-2.81378e+06 -763189 9864.09 57802.1 1507.07 -7464.28)
(-2.01244e+06 -1.06037e+06 -8460.88 53934.6 999.478 4962.44)
(-2.01124e+06 -1.07572e+06 -8416.45 54371.3 3551.75 1578.28)
(-2.01709e+06 -1.10998e+06 -2187.97 58752.1 4225.23 -878.713)
(-2.03453e+06 -1.16302e+06 8073.62 71803.1 -187.647 -481.813)
(-1.19309e+06 -1.34476e+06 -4935.95 39473.8 -866.906 4308.34)
(-1.19168e+06 -1.36028e+06 -5273.41 40280.4 -186.357 2303.65)
(-1.19333e+06 -1.39512e+06 -1971.01 43555.5 699.814 695.723)
(-1.20148e+06 -1.44993e+06 3798.12 51327 -554.219 378.802)
(-329665 -1.49094e+06 -1615.83 3733.71 -1720.72 1842.09)
(-328997 -1.50657e+06 -1821.27 4095.83 -1823.02 1093.12)
(-328837 -1.54135e+06 -876.452 5487 -910.674 425.188)
(-330257 -1.59661e+06 978.828 8277 -834.233 323.957)
(545436 -1.48568e+06 1574.91 -37535.4 -1712.61 -1225.14)
(545164 -1.50143e+06 1757.17 -37729.5 -1369.95 -714.745)
(546569 -1.53663e+06 588.696 -38256.3 -323.959 -172.231)
(551328 -1.5924e+06 -1292.03 -40145.1 -289.937 251.582)