/*--------------------------------*- C++ -*----------------------------------*\
| =========                 |                                                 |
| \\      /  F ield         | OpenFOAM: The Open Source CFD Toolbox           |
|  \\    /   O peration     | Version:  v2012                                 |
|   \\  /    A nd           | Website:  www.openfoam.com                      |
|    \\/     M anipulation  |                                                 |
\*---------------------------------------------------------------------------*/
FoamFile
{
    version     2.0;
    format      ascii;
    class       volSymmTensorField;
    location    "9";
    object      epsilon;
}
// * * * * * * * * * * * * * * * * * * * * * * * * * * * * * * * * * * * * * //

dimensions      [0 0 0 0 0 0 0];


internalField   nonuniform List<symmTensor> 
2000
(
(0.00986262 -0.000753053 -3.25261e-19 -0.00736077 7.80626e-18 0)
(0.0091221 -0.00112366 8.67362e-19 -0.00683855 8.67362e-18 0)
(0.00916511 -0.000567476 1.0842e-18 -0.00638448 9.54098e-18 0)
(0.00835181 -0.00102308 -2.71051e-18 -0.005847 7.80626e-18 0)
(0.00840126 -0.000384699 -3.25261e-18 -0.00538326 6.50521e-18 0)
(0.00754266 -0.000912306 -6.17995e-18 -0.00484548 4.77049e-18 0)
(0.00759719 -0.000209432 -1.95156e-18 -0.00439116 5.63785e-18 0)
(0.00669736 -0.000802312 -4.98733e-18 -0.00383419 7.37257e-18 0)
(0.00675694 -3.61008e-05 -2.22261e-18 -0.00342371 6.50521e-18 0)
(0.00583613 -0.000683022 -2.38524e-18 -0.00286157 6.93889e-18 0)
(0.00589956 0.000130947 5.42101e-20 -0.00251856 2.1684e-18 0)
(0.00502263 -0.000536256 -1.30104e-18 -0.00204034 2.60209e-18 0)
(0.00508537 0.00026794 -9.21572e-19 -0.00175043 2.60209e-18 0)
(0.00430672 -0.000378946 -3.03577e-18 -0.00141658 8.67362e-19 0)
(0.0043645 0.000361262 -1.57209e-18 -0.0011654 2.1684e-18 0)
(0.00372105 -0.000228761 -2.1684e-18 -0.0010123 1.73472e-18 0)
(0.00377049 0.000404087 -1.0842e-19 -0.000824918 2.1684e-18 0)
(0.00333579 -5.38024e-05 -2.71051e-19 -0.000899086 0 0)
(0.00337033 0.000388746 -2.1684e-19 -0.000746529 0 0)
(0.00305233 3.52455e-05 -5.42101e-20 -0.000835966 8.67362e-19 0)
(0.00936047 -0.00169719 5.20417e-18 -0.00674975 6.50521e-18 0)
(0.00837157 -0.00203041 8.23994e-18 -0.00603126 7.80626e-18 0)
(0.00849972 -0.001474 0 -0.00577694 9.97466e-18 0)
(0.00749889 -0.00178176 -2.1684e-18 -0.00486715 5.20417e-18 0)
(0.00763916 -0.00118543 -7.37257e-18 -0.00480309 4.77049e-18 0)
(0.00658908 -0.00150751 -9.32414e-18 -0.00372758 1.12757e-17 0)
(0.0067439 -0.00085927 -1.07336e-17 -0.00382551 9.97466e-18 0)
(0.00568019 -0.00121026 -8.45678e-18 -0.00268142 9.97466e-18 0)
(0.00584746 -0.000515856 -2.38524e-18 -0.00288795 5.20417e-18 0)
(0.00489805 -0.000886017 -8.67362e-19 -0.00192149 4.33681e-18 0)
(0.00506519 -0.000190243 -1.30104e-18 -0.00209507 4.77049e-18 0)
(0.00428352 -0.000573896 1.0842e-19 -0.00144896 -4.33681e-19 0)
(0.00443865 7.90479e-05 -2.71051e-18 -0.00148949 0 0)
(0.00382498 -0.000306131 -7.58942e-19 -0.00117975 1.73472e-18 0)
(0.00396351 0.000284135 -1.95156e-18 -0.00109453 0 0)
(0.00356149 -5.42748e-05 -4.33681e-19 -0.00113179 1.73472e-18 0)
(0.0036828 0.000466977 -4.33681e-19 -0.000983208 0 0)
(0.00331895 0.000130667 -6.50521e-19 -0.00108808 -8.67362e-19 0)
(0.00341644 0.000552462 -2.1684e-19 -0.000919633 -4.33681e-19 0)
(0.00310293 0.000247072 1.0842e-19 -0.0010398 4.33681e-19 0)
(0.00841291 -0.00253331 9.32414e-18 -0.00587299 0 0)
(0.0071007 -0.00266237 1.21431e-17 -0.0046485 -7.37257e-18 0)
(0.00734081 -0.00207105 8.0231e-18 -0.00477155 2.1684e-18 0)
(0.00604426 -0.00213769 3.90313e-18 -0.0033065 -2.60209e-18 0)
(0.00628729 -0.00156608 -1.04083e-17 -0.00370145 1.04083e-17 0)
(0.00505285 -0.00161976 -7.58942e-18 -0.0021625 5.63785e-18 0)
(0.00530046 -0.00105297 -5.42101e-18 -0.00272172 6.50521e-18 0)
(0.00434792 -0.00113588 1.73472e-18 -0.00153826 -8.67362e-19 0)
(0.00457759 -0.000604735 8.67362e-19 -0.00200255 -1.73472e-18 0)
(0.00391928 -0.00073619 -6.50521e-19 -0.00130495 8.67362e-19 0)
(0.00412167 -0.000251529 0 -0.00154702 1.73472e-18 0)
(0.00368353 -0.000422195 8.67362e-19 -0.00125783 0 0)
(0.00385823 1.45204e-05 1.0842e-18 -0.00128215 1.30104e-18 0)
(0.00357796 -0.000175373 6.50521e-19 -0.00129084 4.33681e-19 0)
(0.00375006 0.000262592 2.1684e-19 -0.00123689 -4.33681e-19 0)
(0.00344671 3.49237e-05 0 -0.00129052 0 0)
(0.00360884 0.000451744 -2.1684e-19 -0.00119706 8.67362e-19 0)
(0.00329291 0.000204465 2.1684e-19 -0.0012656 8.67362e-19 0)
(0.00343644 0.000576503 -3.25261e-19 -0.00115252 1.30104e-18 0)
(0.003135 0.000331851 4.33681e-19 -0.00122808 -8.67362e-19 0)
(0.00685633 -0.00292785 1.36609e-17 -0.00450694 -9.1073e-18 0)
(0.00524899 -0.00268428 9.54098e-18 -0.00271983 -4.77049e-18 0)
(0.00560864 -0.0021266 3.03577e-18 -0.00328672 -5.63785e-18 0)
(0.00417555 -0.00187389 -5.20417e-18 -0.00150271 -4.77049e-18 0)
(0.0045086 -0.00138776 -1.95156e-18 -0.00224253 -3.03577e-18 0)
(0.00362584 -0.00126481 3.90313e-18 -0.00113076 -6.93889e-18 0)
(0.00389393 -0.000861845 6.50521e-19 -0.00164368 -2.60209e-18 0)
(0.00345912 -0.000858481 8.67362e-19 -0.00117654 -4.77049e-18 0)
(0.00366561 -0.000522904 6.50521e-19 -0.00139274 -3.03577e-18 0)
(0.00343443 -0.000582014 -4.33681e-19 -0.00125645 -3.03577e-18 0)
(0.00361857 -0.000265799 -6.50521e-19 -0.00132918 0 0)
(0.00342913 -0.000363422 -2.1684e-19 -0.0013147 -1.30104e-18 0)
(0.00362289 -2.69586e-05 0 -0.00136469 -2.60209e-18 0)
(0.00338899 -0.000155242 -8.67362e-19 -0.0013548 4.33681e-19 0)
(0.00358417 0.000188329 -2.1684e-19 -0.0013721 0 0)
(0.00331753 3.26202e-05 -2.1684e-19 -0.00137226 8.67362e-19 0)
(0.00350439 0.000366261 -4.33681e-19 -0.00135547 -8.67362e-19 0)
(0.00322456 0.000192647 4.33681e-19 -0.00136928 -8.67362e-19 0)
(0.00339609 0.000502944 2.1684e-19 -0.00132528 -4.33681e-19 0)
(0.00311972 0.000322395 -6.50521e-19 -0.00135094 4.33681e-19 0)
(0.00480385 -0.00261083 1.73472e-17 -0.00272057 -2.60209e-18 0)
(0.0032475 -0.00202053 1.99493e-17 -0.000856364 -4.77049e-18 0)
(0.00366867 -0.00159276 8.67362e-19 -0.00163188 -3.90313e-18 0)
(0.00301948 -0.00139614 6.50521e-18 -0.000882335 -6.07153e-18 0)
(0.00330477 -0.00107214 3.90313e-18 -0.00122207 -7.37257e-18 0)
(0.00307013 -0.00105484 1.73472e-18 -0.0010245 -2.60209e-18 0)
(0.00330865 -0.000767581 1.30104e-18 -0.00121973 -3.90313e-18 0)
(0.00312977 -0.000797266 8.67362e-19 -0.00113372 0 0)
(0.00335815 -0.000516721 0 -0.00129083 -3.46945e-18 0)
(0.0031736 -0.000567825 2.1684e-18 -0.00123102 -1.30104e-18 0)
(0.00339456 -0.000291725 -2.1684e-19 -0.00135764 1.30104e-18 0)
(0.00319559 -0.000360392 1.30104e-18 -0.00131094 0 0)
(0.00341314 -8.27963e-05 2.1684e-19 -0.00140442 -8.67362e-19 0)
(0.0031924 -0.000172114 4.33681e-19 -0.00137025 4.33681e-19 0)
(0.00340427 0.000104378 0 -0.00142805 -1.73472e-18 0)
(0.00316563 -4.46693e-06 -4.33681e-19 -0.00140785 0 0)
(0.00336728 0.000264546 -4.33681e-19 -0.00143107 1.73472e-18 0)
(0.00311981 0.000140622 -2.1684e-19 -0.0014253 1.30104e-18 0)
(0.00330685 0.00039543 2.1684e-19 -0.00141815 0 0)
(0.00306033 0.000262286 2.1684e-19 -0.00142579 -8.67362e-19 0)
(0.0028602 -0.00182344 2.29851e-17 -0.000953182 -3.03577e-18 0)
(0.00246368 -0.0016532 6.93889e-18 -0.000555867 0 0)
(0.00282946 -0.00133576 6.93889e-18 -0.000899756 -4.33681e-19 0)
(0.00260607 -0.00130109 5.20417e-18 -0.000745337 -4.33681e-19 0)
(0.00293216 -0.00101409 2.60209e-18 -0.00103459 4.33681e-19 0)
(0.00272961 -0.00100856 1.30104e-18 -0.000921587 1.30104e-18 0)
(0.00301752 -0.000749819 1.73472e-18 -0.00115376 0 0)
(0.00283228 -0.000765064 2.60209e-18 -0.00107282 -1.30104e-18 0)
(0.0030973 -0.000520177 8.67362e-19 -0.0012574 -8.67362e-19 0)
(0.0029108 -0.000554866 1.73472e-18 -0.00119899 -1.73472e-18 0)
(0.00315967 -0.000317518 -4.33681e-19 -0.00134029 8.67362e-19 0)
(0.00296456 -0.000370396 8.67362e-19 -0.00129962 -4.33681e-19 0)
(0.00320136 -0.000136919 -2.1684e-19 -0.00140094 4.33681e-19 0)
(0.00299428 -0.00020718 4.33681e-19 -0.00137548 -2.1684e-18 0)
(0.0032197 2.25485e-05 -4.33681e-19 -0.0014395 -8.67362e-19 0)
(0.00300233 -6.33383e-05 4.33681e-19 -0.00142815 -8.67362e-19 0)
(0.00321495 0.000160386 -6.50521e-19 -0.001458 0 0)
(0.00299229 6.17872e-05 4.33681e-19 -0.00146006 -1.30104e-18 0)
(0.00318986 0.000276188 -2.1684e-19 -0.00145953 0 0)
(0.00296831 0.000168528 4.33681e-19 -0.00147428 -4.33681e-19 0)
(0.0022387 -0.00163509 6.07153e-18 -0.000515915 -1.30104e-18 0)
(0.00197463 -0.00152511 3.46945e-18 -0.00031379 -1.30104e-18 0)
(0.00240691 -0.00125785 3.03577e-18 -0.000737688 1.30104e-18 0)
(0.00220535 -0.00119801 2.60209e-18 -0.000600342 -1.73472e-18 0)
(0.00257313 -0.000961626 2.1684e-18 -0.000928789 4.33681e-19 0)
(0.00239211 -0.000939448 0 -0.000835166 -1.30104e-18 0)
(0.00271466 -0.000721806 2.1684e-18 -0.00108636 4.33681e-19 0)
(0.00254027 -0.000728044 1.30104e-18 -0.00102449 1.30104e-18 0)
(0.00283191 -0.000520576 -4.33681e-19 -0.00121346 1.51788e-18 0)
(0.00265434 -0.000549662 2.1684e-18 -0.00117504 -8.67362e-19 0)
(0.00292355 -0.000347689 1.73472e-18 -0.00131211 2.1684e-19 0)
(0.00273826 -0.000395925 0 -0.00129198 0 0)
(0.00299008 -0.000197059 -4.33681e-19 -0.0013847 8.67362e-19 0)
(0.00279573 -0.000261762 4.33681e-19 -0.00137966 8.67362e-19 0)
(0.00303257 -6.54771e-05 4.33681e-19 -0.00143382 0 0)
(0.00283052 -0.000144232 2.1684e-18 -0.0014419 -2.1684e-18 0)
(0.00305297 4.86312e-05 0 -0.0014624 0 0)
(0.0028467 -4.16288e-05 4.33681e-19 -0.0014824 -8.67362e-19 0)
(0.00305419 0.000146067 4.33681e-19 -0.00147369 -4.33681e-19 0)
(0.00284862 4.70591e-05 4.33681e-19 -0.00150486 8.67362e-19 0)
(0.00165362 -0.00145063 2.60209e-18 -0.000284525 -8.67362e-19 0)
(0.00150787 -0.00130845 2.60209e-18 -0.000125379 -8.67362e-19 0)
(0.00195909 -0.00112747 3.90313e-18 -0.000594318 -1.30104e-18 0)
(0.00182294 -0.00105346 1.73472e-18 -0.000491974 -8.67362e-19 0)
(0.00220694 -0.000881333 2.1684e-18 -0.000836858 -2.1684e-19 0)
(0.00206721 -0.000853463 2.1684e-18 -0.000773227 0 0)
(0.002405 -0.000685205 -4.33681e-19 -0.0010262 -6.50521e-19 0)
(0.00225683 -0.000690446 4.33681e-19 -0.00099049 0 0)
(0.00256164 -0.000523211 0 -0.00117265 1.0842e-18 0)
(0.00240278 -0.000553461 -8.67362e-19 -0.00115789 8.67362e-19 0)
(0.00268285 -0.000385855 1.73472e-18 -0.00128351 -8.67362e-19 0)
(0.00251289 -0.000435843 4.33681e-19 -0.00128518 -4.33681e-19 0)
(0.00277339 -0.000267374 1.73472e-18 -0.00136439 -1.30104e-18 0)
(0.00259307 -0.000333455 4.33681e-19 -0.00137949 -1.30104e-18 0)
(0.00283721 -0.000164253 4.33681e-19 -0.00141987 -2.1684e-19 0)
(0.00264813 -0.000243655 -2.1684e-18 -0.00144633 0 0)
(0.00287796 -7.42776e-05 0 -0.00145412 -4.33681e-19 0)
(0.00268258 -0.000164605 -4.33681e-19 -0.00149043 -4.33681e-19 0)
(0.00289929 4.00739e-06 0 -0.00147113 -6.50521e-19 0)
(0.00270158 -9.49506e-05 4.33681e-19 -0.0015164 4.33681e-19 0)
(0.00109625 -0.00116236 1.30104e-18 -0.000120379 -1.30104e-18 0)
(0.0011028 -0.00102443 1.73472e-18 -2.12724e-05 -8.67362e-19 0)
(0.00151972 -0.000944724 4.33681e-19 -0.000489914 1.30104e-18 0)
(0.00147553 -0.000875177 1.73472e-18 -0.000429562 0 0)
(0.00184188 -0.000775851 1.30104e-18 -0.000767065 -8.67362e-19 0)
(0.00176093 -0.000752991 0 -0.000734792 0 0)
(0.0020903 -0.000639441 -4.33681e-19 -0.000976696 4.33681e-19 0)
(0.00198151 -0.00064977 0 -0.000965395 -2.1684e-19 0)
(0.00228266 -0.000525605 -8.67362e-19 -0.00113496 2.1684e-19 0)
(0.00215231 -0.000560366 1.73472e-18 -0.00113978 -4.33681e-19 0)
(0.00243083 -0.000428285 8.67362e-19 -0.00125285 -4.33681e-19 0)
(0.00228371 -0.00048162 1.30104e-18 -0.00127045 2.1684e-19 0)
(0.00254319 -0.000343748 1.30104e-18 -0.0013382 -4.33681e-19 0)
(0.00238291 -0.000411615 1.30104e-18 -0.00136623 2.1684e-19 0)
(0.00262595 -0.000269578 1.73472e-18 -0.00139695 -2.1684e-19 0)
(0.00245477 -0.000349041 4.33681e-19 -0.00143352 -4.33681e-19 0)
(0.00268399 -0.000203887 1.73472e-18 -0.00143409 -4.33681e-19 0)
(0.00250253 -0.000292565 0 -0.00147719 -4.33681e-19 0)
(0.00272168 -0.000144708 -4.33681e-19 -0.00145471 -4.33681e-19 0)
(0.00253039 -0.000240394 0 -0.00150225 -6.50521e-19 0)
(0.000629844 -0.000803563 1.30104e-18 -5.35493e-05 -6.50521e-19 0)
(0.000783473 -0.000705276 8.67362e-19 -1.10191e-05 -4.33681e-19 0)
(0.00112262 -0.000719335 -4.33681e-19 -0.000438331 0 0)
(0.00117572 -0.00067518 0 -0.000416693 0 0)
(0.00149295 -0.000645293 -4.33681e-19 -0.000723282 0 0)
(0.00147763 -0.000640104 1.73472e-18 -0.000718388 -6.50521e-19 0)
(0.00177585 -0.00057928 1.30104e-18 -0.000935782 -2.1684e-19 0)
(0.00171263 -0.000602077 -1.73472e-18 -0.000943978 2.1684e-19 0)
(0.00199392 -0.00051938 8.67362e-19 -0.00109425 0 0)
(0.00189725 -0.000562008 -1.30104e-18 -0.00111242 4.33681e-19 0)
(0.00216255 -0.000464344 4.33681e-19 -0.00121158 2.1684e-19 0)
(0.00204358 -0.000520415 4.33681e-19 -0.00123698 4.33681e-19 0)
(0.00229256 -0.000413518 -8.67362e-19 -0.00129708 6.50521e-19 0)
(0.00216044 -0.000477549 8.67362e-19 -0.00132707 -4.33681e-19 0)
(0.00239181 -0.00036655 -4.33681e-19 -0.00135768 0 0)
(0.00225356 -0.000433069 0 -0.00138904 -2.1684e-19 0)
(0.0024661 -0.000322744 -8.67362e-19 -0.00139906 -4.33681e-19 0)
(0.00232339 -0.000384636 1.73472e-18 -0.0014259 -6.50521e-19 0)
(0.00252036 -0.000279294 -1.30104e-18 -0.00142848 0 0)
(0.00235558 -0.000322647 -4.33681e-19 -0.00143453 0 0)
(0.000288198 -0.000416288 8.67362e-19 -9.37209e-05 0 0)
(0.000559652 -0.000384594 -8.67362e-19 -9.1595e-05 0 0)
(0.000794099 -0.000468859 1.73472e-18 -0.000447716 -2.1684e-19 0)
(0.000930737 -0.000472112 8.67362e-19 -0.000455425 0 0)
(0.00117715 -0.000494952 -8.67362e-19 -0.000708206 0 0)
(0.00121737 -0.000526737 1.73472e-18 -0.000725417 -6.50521e-19 0)
(0.00147011 -0.000503551 1.30104e-18 -0.000898511 -6.50521e-19 0)
(0.00143917 -0.000558473 8.67362e-19 -0.000924522 -4.33681e-19 0)
(0.00169533 -0.000499791 -4.33681e-19 -0.00103493 -2.1684e-19 0)
(0.00161035 -0.000574092 8.67362e-19 -0.00106922 -4.33681e-19 0)
(0.00186837 -0.000486975 1.73472e-18 -0.00112864 -2.1684e-19 0)
(0.00174126 -0.000578655 0 -0.00117124 -2.1684e-19 0)
(0.00200004 -0.000467471 -4.33681e-19 -0.00118682 0 0)
(0.00183956 -0.000576619 -8.67362e-19 -0.00123879 4.33681e-19 0)
(0.00209743 -0.000443242 4.33681e-19 -0.00121255 0 0)
(0.00191164 -0.000573359 8.67362e-19 -0.00127727 0 0)
(0.00216339 -0.000416441 -4.33681e-19 -0.00120229 2.1684e-19 0)
(0.00196574 -0.00057898 0 -0.00128963 -2.1684e-19 0)
(0.00219267 -0.000390716 1.30104e-18 -0.00113548 -3.25261e-19 0)
(0.00202298 -0.000620695 1.73472e-18 -0.00127652 -2.1684e-19 0)
(8.66976e-05 -4.16538e-05 8.67362e-19 -0.00024629 2.1684e-19 0)
(0.000443443 -9.0869e-05 0 -0.000261879 0 0)
(0.000557132 -0.00021936 -1.73472e-18 -0.000535123 0 0)
(0.0007656 -0.000281234 0 -0.000555437 -4.33681e-19 0)
(0.000919164 -0.000342643 2.60209e-18 -0.000747696 2.1684e-19 0)
(0.00101841 -0.000416898 1.73472e-18 -0.000772929 2.1684e-19 0)
(0.00119906 -0.000427537 4.33681e-18 -0.000901972 1.0842e-19 0)
(0.00121723 -0.000513226 -1.73472e-18 -0.000932159 0 0)
(0.00141606 -0.000485073 -8.67362e-19 -0.00101134 5.42101e-19 0)
(0.00137386 -0.000581387 -8.67362e-19 -0.00104655 6.50521e-19 0)
(0.00158428 -0.000523283 -1.73472e-18 -0.00108572 0 0)
(0.00149748 -0.000629865 8.67362e-19 -0.00112623 -2.1684e-19 0)
(0.00171421 -0.000548539 -2.60209e-18 -0.0011327 4.33681e-19 0)
(0.00159569 -0.000665505 8.67362e-19 -0.00117906 -1.0842e-19 0)
(0.00181412 -0.000566739 -2.60209e-18 -0.00115909 7.58942e-19 0)
(0.00167545 -0.000693983 -1.73472e-18 -0.00121191 7.58942e-19 0)
(0.0018922 -0.000584985 -1.73472e-18 -0.00117475 -4.33681e-19 0)
(0.00174365 -0.000718448 -1.73472e-18 -0.00123274 3.25261e-19 0)
(0.00196235 -0.000615301 -4.33681e-19 -0.00120603 0 0)
(0.00180423 -0.000730223 0 -0.00125603 0 0)
(1.16717e-05 0.000291404 -2.60209e-18 -0.000496228 4.33681e-19 0)
(0.000420775 0.000153745 1.73472e-18 -0.000505913 0 0)
(0.000413031 1.13037e-05 1.73472e-18 -0.000692808 -4.33681e-19 0)
(0.000670887 -0.000115951 1.73472e-18 -0.00070749 0 0)
(0.000727284 -0.000193518 -1.73472e-18 -0.000836327 -2.1684e-19 0)
(0.000871742 -0.0003149 4.33681e-18 -0.000855201 -4.33681e-19 0)
(0.000974273 -0.000343477 8.67362e-19 -0.000939167 -6.50521e-19 0)
(0.00103381 -0.000461808 0 -0.000961692 3.25261e-19 0)
(0.00116918 -0.000453458 0 -0.00101097 -3.25261e-19 0)
(0.00116536 -0.00057044 8.67362e-19 -0.00103676 0 0)
(0.00132368 -0.00053452 0 -0.00105945 -1.0842e-19 0)
(0.00127308 -0.000650948 3.46945e-18 -0.00108817 -4.33681e-19 0)
(0.00144701 -0.000595105 -1.73472e-18 -0.00109119 1.0842e-19 0)
(0.00136249 -0.000710639 0 -0.00112236 -2.1684e-19 0)
(0.00154701 -0.000641673 -1.73472e-18 -0.00111258 8.67362e-19 0)
(0.00143813 -0.00075415 -1.73472e-18 -0.00114519 0 0)
(0.0016309 -0.000678243 2.60209e-18 -0.00112982 -3.25261e-19 0)
(0.00150329 -0.000783315 0 -0.00116197 2.1684e-19 0)
(0.00170436 -0.000702354 -8.67362e-19 -0.00114355 1.0842e-19 0)
(0.00155952 -0.00079981 0 -0.00117448 0 0)
(4.26235e-05 0.000558998 -8.67362e-19 -0.000821544 4.33681e-19 0)
(0.000471786 0.000331984 0 -0.00080195 2.1684e-19 0)
(0.000351379 0.000205517 1.73472e-18 -0.000905837 -1.0842e-19 0)
(0.000633508 1.17424e-05 0 -0.000896721 0 0)
(0.00059818 -5.83218e-05 8.67362e-19 -0.000964117 -3.25261e-19 0)
(0.000769094 -0.00022774 2.60209e-18 -0.000962688 -2.1684e-19 0)
(0.000796616 -0.000255725 8.67362e-19 -0.00100266 -3.25261e-19 0)
(0.000883473 -0.00040704 -1.73472e-18 -0.00100698 3.25261e-19 0)
(0.000957264 -0.000403797 0 -0.00102649 1.0842e-19 0)
(0.000980706 -0.000541233 8.67362e-19 -0.00103516 1.0842e-19 0)
(0.00108845 -0.000515144 8.67362e-19 -0.00103973 -2.1684e-19 0)
(0.00106417 -0.000641294 -1.73472e-18 -0.0010517 -2.1684e-19 0)
(0.00119687 -0.000598941 -1.73472e-18 -0.00104588 -3.25261e-19 0)
(0.00113662 -0.000715075 1.73472e-18 -0.00106025 0 0)
(0.00128798 -0.000661502 -8.67362e-19 -0.00104772 0 0)
(0.00120019 -0.000768075 0 -0.00106366 1.0842e-19 0)
(0.00136597 -0.000706573 1.73472e-18 -0.00104677 -3.79471e-19 0)
(0.0012563 -0.000804331 1.73472e-18 -0.00106362 -4.33681e-19 0)
(0.0014335 -0.000737031 -1.73472e-18 -0.00104381 -1.0842e-19 0)
(0.00130591 -0.000826934 0 -0.00106107 -2.1684e-19 0)
(0.00015444 0.000743357 -1.73472e-18 -0.00119431 0 0)
(0.000572438 0.000432827 8.67362e-19 -0.00112362 0 0)
(0.000355724 0.000349886 -8.67362e-19 -0.00115403 -3.25261e-19 0)
(0.000637336 9.38819e-05 4.33681e-18 -0.00110436 -2.1684e-19 0)
(0.000522574 5.35294e-05 0 -0.00111717 2.1684e-19 0)
(0.000700598 -0.000161098 2.60209e-18 -0.00108279 2.1684e-19 0)
(0.000662021 -0.000170333 3.46945e-18 -0.0010831 -2.1684e-19 0)
(0.000761137 -0.000353145 1.73472e-18 -0.00105996 0 0)
(0.000779602 -0.000339724 1.73472e-18 -0.00105151 -2.71051e-19 0)
(0.000818494 -0.00049757 -8.67362e-19 -0.00103672 1.0842e-19 0)
(0.000879761 -0.000467823 2.60209e-18 -0.00102231 2.71051e-19 0)
(0.000872588 -0.000605567 0 -0.00101378 4.33681e-19 0)
(0.000966078 -0.000564212 0 -0.00099552 1.0842e-19 0)
(0.000923491 -0.000685354 0 -0.000991698 2.71051e-19 0)
(0.00104135 -0.0006358 0 -0.000971057 -1.6263e-19 0)
(0.000971264 -0.000743057 1.73472e-18 -0.000970747 1.6263e-19 0)
(0.00110762 -0.000687706 0 -0.000948693 1.0842e-19 0)
(0.00101592 -0.000783295 -8.67362e-19 -0.000950976 1.0842e-19 0)
(0.00116629 -0.000723809 2.60209e-18 -0.000928087 -2.71051e-19 0)
(0.00105745 -0.000809614 0 -0.000932261 1.0842e-19 0)
(0.000319103 0.000833638 -8.67362e-19 -0.00158235 0 0)
(0.000696824 0.000452603 0 -0.00144205 1.0842e-19 0)
(0.000406976 0.000436222 0 -0.00141469 1.0842e-19 0)
(0.00066551 0.000127481 8.67362e-19 -0.00131034 3.25261e-19 0)
(0.000488808 0.000135479 1.73472e-18 -0.00128039 5.42101e-20 0)
(0.000656325 -0.000117985 -1.73472e-18 -0.00120234 1.0842e-19 0)
(0.000564637 -9.2882e-05 1.73472e-18 -0.00117133 0 0)
(0.000662204 -0.000303485 0 -0.00111276 -1.0842e-19 0)
(0.000634768 -0.000266473 -1.73472e-18 -0.00108171 5.42101e-20 0)
(0.000678438 -0.000443286 3.46945e-18 -0.00103775 -5.42101e-20 0)
(0.00069969 -0.000398189 8.67362e-19 -0.00100737 2.1684e-19 0)
(0.000701859 -0.000547902 0 -0.000974486 1.6263e-19 0)
(0.000759945 -0.000497558 8.67362e-19 -0.000945245 2.1684e-19 0)
(0.000730106 -0.000625332 8.67362e-19 -0.000920816 -2.1684e-19 0)
(0.000815976 -0.000571721 -1.73472e-18 -0.000892947 -1.6263e-19 0)
(0.000761339 -0.000681643 -8.67362e-19 -0.000874975 0 0)
(0.000868087 -0.000626069 3.46945e-18 -0.000848498 -1.35525e-19 0)
(0.000794103 -0.00072141 8.67362e-19 -0.000835465 -1.0842e-19 0)
(0.000916472 -0.000664707 8.67362e-19 -0.000810282 -2.71051e-20 0)
(0.000827265 -0.000748065 8.67362e-19 -0.000801039 1.0842e-19 0)
(0.000507278 0.000827035 -8.67362e-19 -0.00195142 0 0)
(0.000819486 0.00039585 -1.73472e-18 -0.00172876 -1.0842e-19 0)
(0.000485679 0.00046183 0 -0.00166499 0 0)
(0.000702155 0.000114534 -8.67362e-19 -0.00149581 -2.1684e-19 0)
(0.00048503 0.000184108 0 -0.0014393 5.42101e-20 0)
(0.0006268 -9.88368e-05 1.73472e-18 -0.00130939 -3.25261e-19 0)
(0.00049839 -2.76397e-05 2.60209e-18 -0.00125902 1.0842e-19 0)
(0.000581743 -0.000260231 -3.46945e-18 -0.00115852 1.0842e-19 0)
(0.000521189 -0.000188994 1.73472e-18 -0.00111352 0 0)
(0.000559815 -0.000381124 3.46945e-18 -0.00103561 5.42101e-20 0)
(0.000550529 -0.000311591 0 -0.000995654 -5.42101e-20 0)
(0.000555096 -0.000471128 -8.67362e-19 -0.000935116 -5.42101e-20 0)
(0.000584265 -0.000404327 8.67362e-19 -0.000899757 -2.71051e-20 0)
(0.000562859 -0.000537665 2.60209e-18 -0.000852556 -8.13152e-20 0)
(0.0006207 -0.000473955 2.60209e-18 -0.000821221 -1.6263e-19 0)
(0.000579412 -0.000586292 2.60209e-18 -0.000784248 -8.13152e-20 0)
(0.000658472 -0.00052556 8.67362e-19 -0.00075628 -1.0842e-19 0)
(0.000601849 -0.00062109 -8.67362e-19 -0.000727158 2.71051e-20 0)
(0.000696502 -0.000562949 1.73472e-18 -0.000701892 5.42101e-20 0)
(0.000627827 -0.000644915 -8.67362e-19 -0.000678846 0 0)
(0.000690486 0.000729281 -1.73472e-18 -0.00226833 0 0)
(0.000918321 0.000275171 -8.67362e-19 -0.00195942 -1.0842e-19 0)
(0.000573746 0.000428649 -2.60209e-18 -0.00188473 -1.0842e-19 0)
(0.000732717 5.99882e-05 -2.60209e-18 -0.00164514 -1.0842e-19 0)
(0.000499903 0.00019805 -1.73472e-18 -0.00158101 -1.6263e-19 0)
(0.000599147 -0.000104059 0 -0.00139264 -1.35525e-19 0)
(0.000456321 2.23676e-05 0 -0.00133669 -1.35525e-19 0)
(0.00051227 -0.000223831 -3.46945e-18 -0.00118975 -2.71051e-20 0)
(0.000436161 -0.000110851 2.60209e-18 -0.00114179 -1.89735e-19 0)
(0.00046056 -0.000311689 3.46945e-18 -0.00102717 -8.13152e-20 0)
(0.000433594 -0.000211926 1.73472e-18 -0.00098641 -8.13152e-20 0)
(0.000434564 -0.000376464 -8.67362e-19 -0.000896632 -2.71051e-20 0)
(0.000443849 -0.000288668 3.46945e-18 -0.000862072 -1.6263e-19 0)
(0.000427251 -0.000424288 0 -0.000791329 0 0)
(0.000463165 -0.000346868 4.33681e-18 -0.00076195 -1.35525e-19 0)
(0.000433418 -0.000459611 -8.67362e-19 -0.000705735 0 0)
(0.000488582 -0.00039079 -8.67362e-19 -0.000680539 2.71051e-20 0)
(0.000449074 -0.000485752 -8.67362e-19 -0.000635305 1.35525e-20 0)
(0.000517728 -0.000423492 0 -0.000613253 -1.35525e-20 0)
(0.000470856 -0.000504979 8.67362e-19 -0.000576212 -1.35525e-20 0)
(0.000844313 0.000552207 0 -0.00250745 5.42101e-20 0)
(0.000979587 0.00010659 1.73472e-18 -0.00211996 -1.0842e-19 0)
(0.000655111 0.000337888 1.73472e-18 -0.00206066 1.35525e-19 0)
(0.000719655 -3.9994e-05 1.73472e-18 -0.00173885 0 0)
(0.000517342 0.00017731 0 -0.00168458 8.13152e-20 0)
(0.000553049 -0.000127237 -1.73472e-18 -0.00143553 -9.48677e-20 0)
(0.00042794 5.82373e-05 0 -0.00138988 0 0)
(0.000445949 -0.000187476 -2.60209e-18 -0.00119729 -4.06576e-20 0)
(0.000375171 -3.16529e-05 -6.07153e-18 -0.00115942 9.48677e-20 0)
(0.00037996 -0.000231099 -3.46945e-18 -0.00100938 5.42101e-20 0)
(0.000349147 -0.00010037 8.67362e-19 -0.000978007 -9.48677e-20 0)
(0.000343464 -0.000263079 -8.67362e-19 -0.000860298 6.77626e-20 0)
(0.000342497 -0.000153326 1.73472e-18 -0.000834304 -8.80914e-20 0)
(0.000328595 -0.000286606 8.67362e-19 -0.000741404 -5.42101e-20 0)
(0.000349782 -0.000194462 8.67362e-19 -0.000719889 -3.38813e-20 0)
(0.000329841 -0.000304227 -1.73472e-18 -0.000646083 4.06576e-20 0)
(0.000366874 -0.000226812 -1.73472e-18 -0.000628277 6.77626e-21 0)
(0.000343236 -0.000318545 -1.73472e-18 -0.000568796 4.06576e-20 0)
(0.000390358 -0.000252627 -8.67362e-19 -0.000553853 6.77626e-21 0)
(0.000365687 -0.000333232 -1.73472e-18 -0.000503653 1.35525e-20 0)
(0.000955587 0.000281513 -8.67362e-19 -0.00269046 2.71051e-20 0)
(0.000818388 -0.000155177 0 -0.00215049 0 0)
(0.000684669 0.000197376 0 -0.00212258 -5.42101e-20 0)
(0.000622551 -0.000141031 -8.67362e-19 -0.00173895 0 0)
(0.0005127 0.000140169 0 -0.00171669 -5.42101e-20 0)
(0.000484029 -0.000135808 1.73472e-18 -0.00142491 0 0)
(0.00040296 9.38806e-05 8.67362e-19 -0.00140673 -1.35525e-20 0)
(0.000388592 -0.000133868 -8.67362e-19 -0.00117926 -1.35525e-20 0)
(0.000335776 5.57002e-05 0 -0.00116428 -2.71051e-20 0)
(0.00032636 -0.00013269 0 -0.000984908 0 0)
(0.00029889 2.45186e-05 1.73472e-18 -0.000972512 -1.35525e-20 0)
(0.000289627 -0.000131141 0 -0.000830248 0 0)
(0.000284075 -6.74944e-07 2.60209e-18 -0.000819987 -4.06576e-20 0)
(0.000272362 -0.000128715 -3.46945e-18 -0.000706971 3.38813e-20 0)
(0.000285591 -2.104e-05 0 -0.00069853 2.71051e-20 0)
(0.000270014 -0.000125216 -8.67362e-19 -0.00060918 0 0)
(0.000299311 -3.81602e-05 8.67362e-19 -0.000602385 0 0)
(0.000279543 -0.000120685 -1.73472e-18 -0.000533164 -6.77626e-21 0)
(0.000322025 -5.48814e-05 -1.73472e-18 -0.000528059 1.35525e-20 0)
(0.00029993 -0.000115591 -8.67362e-19 -0.00047796 1.35525e-20 0)
(0.000396949 -0.000113685 8.67362e-19 -0.00047796 1.35525e-20 0)
(0.000388401 -4.31041e-05 -8.67362e-19 -0.000312113 6.77626e-21 0)
(0.000385824 -0.0003212 -1.73472e-18 -0.000501086 2.03288e-20 0)
(0.00046656 -0.000202031 -1.73472e-18 -0.000332114 0 0)
(0.000461056 -0.000510856 0 -0.000578162 -2.71051e-20 0)
(0.000601839 -0.00034468 1.73472e-18 -0.000383315 -8.13152e-20 0)
(0.000593586 -0.000674654 -8.67362e-19 -0.000692897 -4.06576e-20 0)
(0.000782164 -0.000459499 0 -0.000458518 -2.71051e-20 0)
(0.000771739 -0.000804028 -8.67362e-19 -0.000834773 0 0)
(0.0009968 -0.000540087 -8.67362e-19 -0.000550322 1.0842e-19 0)
(0.000985149 -0.000892323 -8.67362e-19 -0.000993155 5.42101e-20 0)
(0.00123459 -0.000582967 0 -0.00065124 5.42101e-20 0)
(0.00122294 -0.000935127 0 -0.00115623 -5.42101e-20 0)
(0.00148395 -0.000587335 8.67362e-19 -0.00075398 -1.0842e-19 0)
(0.00147367 -0.000930285 1.73472e-18 -0.00131052 -2.71051e-19 0)
(0.00173339 -0.000554827 -8.67362e-19 -0.000851932 0 0)
(0.00172579 -0.000877646 4.33681e-19 -0.00143972 -2.1684e-19 0)
(0.00197229 -0.000488921 -3.46945e-18 -0.00093977 2.1684e-19 0)
(0.00196837 -0.000777502 0 -0.00151975 0 0)
(0.00219196 -0.00039334 -4.33681e-19 -0.00101393 1.0842e-19 0)
(0.00042606 -0.000117686 1.73472e-18 -0.000317761 -6.77626e-21 0)
(0.000444186 -6.5054e-05 2.60209e-18 -0.000223583 -1.01644e-20 0)
(0.00044194 -0.000307366 -8.67362e-19 -0.000355599 -2.03288e-20 0)
(0.000516911 -0.000218575 8.67362e-19 -0.000250438 -6.77626e-21 0)
(0.000512094 -0.000488724 -2.60209e-18 -0.000434747 -4.06576e-20 0)
(0.000637661 -0.000357484 -1.73472e-18 -0.000304029 0 0)
(0.000630382 -0.000648339 -8.67362e-19 -0.000549069 -2.71051e-20 0)
(0.000798402 -0.000471297 0 -0.000379753 2.71051e-20 0)
(0.000789138 -0.000777284 1.73472e-18 -0.000691308 -1.76183e-19 0)
(0.000990366 -0.00055347 1.73472e-18 -0.000471307 5.42101e-20 0)
(0.000979929 -0.000868872 1.73472e-18 -0.000852887 5.42101e-20 0)
(0.00120394 -0.000600188 -8.67362e-19 -0.00057167 5.42101e-20 0)
(0.00119341 -0.00091849 -8.67362e-19 -0.00102381 -5.42101e-20 0)
(0.00142887 -0.000610155 -8.67362e-19 -0.000673584 -1.0842e-19 0)
(0.00141948 -0.000923518 8.67362e-19 -0.00119263 -5.42101e-20 0)
(0.00165453 -0.000584458 8.67362e-19 -0.000769963 2.1684e-19 0)
(0.00164751 -0.000882905 4.33681e-19 -0.00134608 0 0)
(0.00187009 -0.000526296 8.67362e-19 -0.000854208 1.0842e-19 0)
(0.00186643 -0.000795468 4.33681e-19 -0.00146685 -1.0842e-19 0)
(0.00206403 -0.000440485 -8.67362e-19 -0.000920136 1.0842e-19 0)
(0.000491787 -0.000106822 0 -0.000226627 3.38813e-21 0)
(0.000514454 -7.11951e-05 0 -0.000175497 -6.77626e-21 0)
(0.000512493 -0.000282721 -2.60209e-18 -0.000264181 -3.38813e-21 0)
(0.000578515 -0.00021752 4.33681e-18 -0.000202295 0 0)
(0.000574331 -0.0004521 1.73472e-18 -0.000336122 4.74338e-20 0)
(0.000682336 -0.000350626 -1.73472e-18 -0.000252374 2.71051e-20 0)
(0.00067599 -0.00060404 0 -0.000439588 3.38813e-20 0)
(0.000820837 -0.000462293 4.33681e-18 -0.00032243 -2.71051e-20 0)
(0.00081271 -0.000730519 0 -0.000569607 2.71051e-20 0)
(0.00098749 -0.000546609 0 -0.000407501 0 0)
(0.000978257 -0.000825396 2.60209e-18 -0.00071979 -6.77626e-20 0)
(0.00117475 -0.000599757 -3.46945e-18 -0.000501747 5.42101e-20 0)
(0.00116533 -0.000884232 0 -0.000882459 -8.13152e-20 0)
(0.00137432 -0.000619988 1.73472e-18 -0.000598893 0 0)
(0.0013658 -0.000904221 8.67362e-19 -0.00104868 -2.71051e-20 0)
(0.00157734 -0.000607605 -1.73472e-18 -0.000692583 0 0)
(0.00157084 -0.000883956 4.33681e-19 -0.00120807 0 0)
(0.00177456 -0.000564846 2.60209e-18 -0.000776641 -2.1684e-19 0)
(0.00177106 -0.000822459 1.73472e-18 -0.00134774 -2.1684e-19 0)
(0.00195601 -0.00049564 2.1684e-18 -0.000845093 -1.6263e-19 0)
(0.000571353 -9.32949e-05 1.73472e-18 -0.000177061 -3.38813e-21 0)
(0.000592238 -7.09714e-05 0 -0.000153239 0 0)
(0.000590528 -0.000255357 1.73472e-18 -0.000210141 6.77626e-21 0)
(0.000646848 -0.000208275 0 -0.000177524 0 0)
(0.000643221 -0.000411496 0 -0.000272067 2.71051e-20 0)
(0.000734372 -0.000334122 -1.73472e-18 -0.000221974 1.35525e-20 0)
(0.000728869 -0.00055374 -4.33681e-18 -0.000361312 4.74338e-20 0)
(0.000851529 -0.00044216 0 -0.000284104 4.06576e-20 0)
(0.000844454 -0.000675465 8.67362e-19 -0.000474568 5.42101e-20 0)
(0.000993647 -0.000527324 8.67362e-19 -0.000360137 2.71051e-20 0)
(0.000985558 -0.00077136 0 -0.00060728 1.35525e-20 0)
(0.00115509 -0.000586044 8.67362e-19 -0.000445476 2.71051e-20 0)
(0.00114676 -0.000837415 -1.73472e-18 -0.000753829 8.13152e-20 0)
(0.00132946 -0.000616346 -1.73472e-18 -0.000535032 0 0)
(0.00132182 -0.000870907 -2.60209e-18 -0.000907581 1.35525e-19 0)
(0.00150981 -0.000617909 0 -0.000623508 -5.42101e-20 0)