/*--------------------------------*- C++ -*----------------------------------*\
| =========                 |                                                 |
| \\      /  F ield         | OpenFOAM: The Open Source CFD Toolbox           |
|  \\    /   O peration     | Version:  v2012                                 |
|   \\  /    A nd           | Website:  www.openfoam.com                      |
|    \\/     M anipulation  |                                                 |
\*---------------------------------------------------------------------------*/
FoamFile
{
    version     2.0;
    format      ascii;
    class       pointVectorField;
    location    "9";
    object      pointD;
}
// * * * * * * * * * * * * * * * * * * * * * * * * * * * * * * * * * * * * * //

dimensions      [0 1 0 0 0 0 0];


internalField   nonuniform List<vector> 
2142
(
(0.003413 0 0)
(0.0047472 0 0)
(0.00437193 -0.000403928 0)
(0 -0.00249046 0)
(0 -0.00147638 0)
(0.00351428 0 0)
(0 -0.00232512 0)
(0.00215364 -0.000712611 0)
(0.00103398 -0.00135757 0)
(0.00457404 -0.000117959 0)
(0.00257352 -0.00108868 0)
(0.00257352 -0.00108868 0)
(0.00215364 -0.000712611 0)
(0 -0.00232512 0)
(0 -0.00147638 0)
(0.003413 0 0)
(0.00351428 0 0)
(0.0047472 0 0)
(0.00457404 -0.000117959 0)
(0.00437193 -0.000403928 0)
(0.00103398 -0.00135757 0)
(0 -0.00249046 0)
(0.000181148 -0.00227995 0)
(0.000371153 -0.00217169 0)
(0.000572032 -0.00201967 0)
(0.000782854 -0.00184097 0)
(0.00100181 -0.00164775 0)
(0.00122711 -0.00144901 0)
(0.00145693 -0.00125185 0)
(0.00168931 -0.00106173 0)
(0.00192218 -0.000882248 0)
(0.00237024 -0.000581558 0)
(0.00257985 -0.00046333 0)
(0.00277773 -0.000360031 0)
(0.00295952 -0.000272338 0)
(0.00312119 -0.000199892 0)
(0.00325906 -0.000141485 0)
(0.00336991 -9.51946e-05 0)
(0.00345099 -5.84657e-05 0)
(0.00349998 -2.81252e-05 0)
(0.00343346 0 0)
(0.00344902 0 0)
(0.00346112 0 0)
(0.00347084 0 0)
(0.00347899 0 0)
(0.00348623 0 0)
(0.00349304 0 0)
(0.00349979 0 0)
(0.00350678 0 0)
(0.00353909 0 0)
(0.00356572 0 0)
(0.00359646 0 0)
(0.00363217 0 0)
(0.0036731 0 0)
(0.00371922 0 0)
(0.00377036 0 0)
(0.00382629 0 0)
(0.00388672 0 0)
(0.00395137 0 0)
(0.00401992 0 0)
(0.00409205 0 0)
(0.00416739 0 0)
(0.00424557 0 0)
(0.00432616 0 0)
(0.00440871 0 0)
(0.0044927 0 0)
(0.00457754 0 0)
(0.00466258 0 0)
(0.00474359 -4.69615e-06 0)
(0.00473698 -1.0139e-05 0)
(0.00472667 -1.65478e-05 0)
(0.00471273 -2.43185e-05 0)
(0.00469544 -3.3845e-05 0)
(0.00467516 -4.54807e-05 0)
(0.00465235 -5.95222e-05 0)
(0.00462753 -7.61995e-05 0)
(0.00460125 -9.56647e-05 0)
(0.00456216 -0.000128662 0)
(0.00455019 -0.000139902 0)
(0.00453823 -0.000151671 0)
(0.00452635 -0.000163954 0)
(0.0045146 -0.000176732 0)
(0.00450304 -0.000189983 0)
(0.00449169 -0.000203679 0)
(0.00448062 -0.000217789 0)
(0.00446984 -0.000232278 0)
(0.00445938 -0.000247107 0)
(0.00444927 -0.000262234 0)
(0.00443952 -0.000277613 0)
(0.00443012 -0.000293198 0)
(0.00442108 -0.000308937 0)
(0.00441237 -0.000324779 0)
(0.00440396 -0.000340676 0)
(0.00439579 -0.000356577 0)
(0.0043878 -0.00037244 0)
(0.00437988 -0.00038823 0)
(0.00425739 -0.000429151 0)
(0.00414313 -0.000452071 0)
(0.00402777 -0.000471485 0)
(0.00390978 -0.000487162 0)
(0.00378776 -0.000499539 0)
(0.00366052 -0.000509469 0)
(0.00352699 -0.00051809 0)
(0.00338623 -0.00052676 0)
(0.00323741 -0.000537029 0)
(0.0030798 -0.000550642 0)
(0.00291279 -0.00056954 0)
(0.00273594 -0.000595861 0)
(0.002549 -0.000631937 0)
(0.00235208 -0.000680257 0)
(0.00214564 -0.000743402 0)
(0.00193071 -0.00082393 0)
(0.001709 -0.000924194 0)
(0.00148305 -0.00104608 0)
(0.00125641 -0.00119061 0)
(0.000877906 -0.00148996 0)
(0.00072955 -0.0016307 0)
(0.000590958 -0.00177644 0)
(0.000464231 -0.0019232 0)
(0.00035124 -0.00206603 0)
(0.000253356 -0.00219895 0)
(0.000171063 -0.002315 0)
(0.000103467 -0.00240662 0)
(4.78205e-05 -0.00246658 0)
(0 -0.00248439 0)
(0 -0.00247763 0)
(0 -0.00247032 0)
(0 -0.00246257 0)
(0 -0.00245447 0)
(0 -0.00244611 0)
(0 -0.00243754 0)
(0 -0.00242885 0)
(0 -0.00242006 0)
(0 -0.00241124 0)
(0 -0.00240241 0)
(0 -0.00239361 0)
(0 -0.00238486 0)
(0 -0.00237618 0)
(0 -0.00236757 0)
(0 -0.00235903 0)
(0 -0.00235055 0)
(0 -0.0023421 0)
(0 -0.00233364 0)
(0 -0.00230645 0)
(0 -0.00228583 0)
(0 -0.00225669 0)
(0 -0.00221293 0)
(0 -0.00214997 0)
(0 -0.00206438 0)
(0 -0.0019546 0)
(0 -0.00182002 0)
(0 -0.0016604 0)
(0.00231471 -0.000577928 0)
(0.00246638 -0.000465341 0)
(0.00261012 -0.00037601 0)
(0.00274664 -0.00030791 0)
(0.00287688 -0.000258087 0)
(0.00300192 -0.000223416 0)
(0.00312284 -0.000200917 0)
(0.00324067 -0.000187888 0)
(0.00335623 -0.000181939 0)
(0.00347023 -0.000180979 0)
(0.00358315 -0.000183188 0)
(0.00369534 -0.000186968 0)
(0.00380702 -0.000190908 0)
(0.00391826 -0.000193727 0)
(0.00402907 -0.000194234 0)
(0.00413937 -0.000191271 0)
(0.00424908 -0.00018364 0)
(0.0043581 -0.000170011 0)
(0.0044664 -0.000148788 0)
(0.0020805 -0.000748447 0)
(0.00201036 -0.00078424 0)
(0.00194309 -0.000819862 0)
(0.00187855 -0.000855227 0)
(0.00181663 -0.000890261 0)
(0.00175715 -0.000924896 0)
(0.00169995 -0.000959064 0)
(0.00164479 -0.000992707 0)
(0.00159144 -0.00102578 0)
(0.00153962 -0.00105823 0)
(0.00148904 -0.00109007 0)
(0.00143938 -0.00112127 0)
(0.00139031 -0.00115188 0)
(0.00134149 -0.00118193 0)
(0.00129256 -0.00121151 0)
(0.00124315 -0.00124074 0)
(0.00119291 -0.00126975 0)
(0.00114148 -0.00129873 0)
(0.00108857 -0.00132791 0)
(0.000386906 -0.00152412 0)
(0.000756987 -0.00158191 0)
(0.001099 -0.00164117 0)
(0.00139755 -0.00167444 0)
(0.00164281 -0.00164461 0)
(0.00184472 -0.00154219 0)
(0.00204086 -0.00143101 0)
(0.00222955 -0.0013179 0)
(0.00240781 -0.00120341 0)
(0.00272533 -0.000974937 0)
(0.00286289 -0.000862588 0)
(0.00298585 -0.000751692 0)
(0.00309381 -0.000642098 0)
(0.00318636 -0.000533585 0)
(0.00326307 -0.000425947 0)
(0.0033236 -0.000319037 0)
(0.00336784 -0.000212774 0)
(0.00339629 -0.000107012 0)
(0.00249024 -0.00101668 0)
(0.00242066 -0.00095755 0)
(0.00236239 -0.000908494 0)
(0.0023136 -0.000867404 0)
(0.00227284 -0.000832639 0)
(0.00223895 -0.000802882 0)
(0.00221095 -0.000777039 0)
(0.00218802 -0.000754136 0)
(0.00216931 -0.000733156 0)
(0.00249024 -0.00101668 0)
(0.00242066 -0.00095755 0)
(0.00236239 -0.000908494 0)
(0.0023136 -0.000867404 0)
(0.00227284 -0.000832639 0)
(0.00223895 -0.000802882 0)
(0.00221095 -0.000777039 0)
(0.00218802 -0.000754136 0)
(0.00216931 -0.000733156 0)
(0.00192218 -0.000882248 0)
(0.00168931 -0.00106173 0)
(0.00145693 -0.00125185 0)
(0.00122711 -0.00144901 0)
(0.00100181 -0.00164775 0)
(0.000782854 -0.00184097 0)
(0.000572032 -0.00201967 0)
(0.000371153 -0.00217169 0)
(0.000181148 -0.00227995 0)
(0 -0.00230645 0)
(0 -0.00228583 0)
(0 -0.00225669 0)
(0 -0.00221293 0)
(0 -0.00214997 0)
(0 -0.00206438 0)
(0 -0.0019546 0)
(0 -0.00182002 0)
(0 -0.0016604 0)
(0.000386906 -0.00152412 0)
(0.000756987 -0.00158191 0)
(0.001099 -0.00164117 0)
(0.00139755 -0.00167444 0)
(0.00164281 -0.00164461 0)
(0.00184472 -0.00154219 0)
(0.00204086 -0.00143101 0)
(0.00222955 -0.0013179 0)
(0.00240781 -0.00120341 0)
(0.00272533 -0.000974937 0)
(0.00286289 -0.000862588 0)
(0.00298585 -0.000751692 0)
(0.00309381 -0.000642098 0)
(0.00318636 -0.000533585 0)
(0.00326307 -0.000425947 0)
(0.0033236 -0.000319037 0)
(0.00336784 -0.000212774 0)
(0.00339629 -0.000107012 0)
(0.00343346 0 0)
(0.00344902 0 0)
(0.00346112 0 0)
(0.00347084 0 0)
(0.00347899 0 0)
(0.00348623 0 0)
(0.00349304 0 0)
(0.00349979 0 0)
(0.00350678 0 0)
(0.00349998 -2.81252e-05 0)
(0.00345099 -5.84657e-05 0)
(0.00336991 -9.51946e-05 0)
(0.00325906 -0.000141485 0)
(0.00312119 -0.000199892 0)
(0.00295952 -0.000272338 0)
(0.00277773 -0.000360031 0)
(0.00257985 -0.00046333 0)
(0.00237024 -0.000581558 0)
(0.00353909 0 0)
(0.00356572 0 0)
(0.00359646 0 0)
(0.00363217 0 0)
(0.0036731 0 0)
(0.00371922 0 0)
(0.00377036 0 0)
(0.00382629 0 0)
(0.00388672 0 0)
(0.00395137 0 0)
(0.00401992 0 0)
(0.00409205 0 0)
(0.00416739 0 0)
(0.00424557 0 0)
(0.00432616 0 0)
(0.00440871 0 0)
(0.0044927 0 0)
(0.00457754 0 0)
(0.00466258 0 0)
(0.00474359 -4.69615e-06 0)
(0.00473698 -1.0139e-05 0)
(0.00472667 -1.65478e-05 0)
(0.00471273 -2.43185e-05 0)
(0.00469544 -3.3845e-05 0)
(0.00467516 -4.54807e-05 0)
(0.00465235 -5.95222e-05 0)
(0.00462753 -7.61995e-05 0)
(0.00460125 -9.56647e-05 0)
(0.0044664 -0.000148788 0)
(0.0043581 -0.000170011 0)
(0.00424908 -0.00018364 0)
(0.00413937 -0.000191271 0)
(0.00402907 -0.000194234 0)
(0.00391826 -0.000193727 0)
(0.00380702 -0.000190908 0)
(0.00369534 -0.000186968 0)
(0.00358315 -0.000183188 0)
(0.00347023 -0.000180979 0)
(0.00335623 -0.000181939 0)
(0.00324067 -0.000187888 0)
(0.00312284 -0.000200917 0)
(0.00300192 -0.000223416 0)
(0.00287688 -0.000258087 0)
(0.00274664 -0.00030791 0)
(0.00261012 -0.00037601 0)
(0.00246638 -0.000465341 0)
(0.00231471 -0.000577928 0)
(0.00456216 -0.000128662 0)
(0.00455019 -0.000139902 0)
(0.00453823 -0.000151671 0)
(0.00452635 -0.000163954 0)
(0.0045146 -0.000176732 0)
(0.00450304 -0.000189983 0)
(0.00449169 -0.000203679 0)
(0.00448062 -0.000217789 0)
(0.00446984 -0.000232278 0)
(0.00445938 -0.000247107 0)
(0.00444927 -0.000262234 0)
(0.00443952 -0.000277613 0)
(0.00443012 -0.000293198 0)
(0.00442108 -0.000308937 0)
(0.00441237 -0.000324779 0)
(0.00440396 -0.000340676 0)
(0.00439579 -0.000356577 0)
(0.0043878 -0.00037244 0)
(0.00437988 -0.00038823 0)
(0.00425739 -0.000429151 0)
(0.00414313 -0.000452071 0)
(0.00402777 -0.000471485 0)
(0.00390978 -0.000487162 0)
(0.00378776 -0.000499539 0)
(0.00366052 -0.000509469 0)
(0.00352699 -0.00051809 0)
(0.00338623 -0.00052676 0)
(0.00323741 -0.000537029 0)
(0.0030798 -0.000550642 0)
(0.00291279 -0.00056954 0)
(0.00273594 -0.000595861 0)
(0.002549 -0.000631937 0)
(0.00235208 -0.000680257 0)
(0.00214564 -0.000743402 0)
(0.00193071 -0.00082393 0)
(0.001709 -0.000924194 0)
(0.00148305 -0.00104608 0)
(0.00125641 -0.00119061 0)
(0.00108857 -0.00132791 0)
(0.00114148 -0.00129873 0)
(0.00119291 -0.00126975 0)
(0.00124315 -0.00124074 0)
(0.00129256 -0.00121151 0)
(0.00134149 -0.00118193 0)
(0.00139031 -0.00115188 0)
(0.00143938 -0.00112127 0)
(0.00148904 -0.00109007 0)
(0.00153962 -0.00105823 0)
(0.00159144 -0.00102578 0)
(0.00164479 -0.000992707 0)
(0.00169995 -0.000959064 0)
(0.00175715 -0.000924896 0)
(0.00181663 -0.000890261 0)
(0.00187855 -0.000855227 0)
(0.00194309 -0.000819862 0)
(0.00201036 -0.00078424 0)
(0.0020805 -0.000748447 0)
(0.000877906 -0.00148996 0)
(0.00072955 -0.0016307 0)
(0.000590958 -0.00177644 0)
(0.000464231 -0.0019232 0)
(0.00035124 -0.00206603 0)
(0.000253356 -0.00219895 0)
(0.000171063 -0.002315 0)
(0.000103467 -0.00240662 0)
(4.78205e-05 -0.00246658 0)
(0 -0.00248439 0)
(0 -0.00247763 0)
(0 -0.00247032 0)
(0 -0.00246257 0)
(0 -0.00245447 0)
(0 -0.00244611 0)
(0 -0.00243754 0)
(0 -0.00242885 0)
(0 -0.00242006 0)
(0 -0.00241124 0)
(0 -0.00240241 0)
(0 -0.00239361 0)
(0 -0.00238486 0)
(0 -0.00237618 0)
(0 -0.00236757 0)
(0 -0.00235903 0)
(0 -0.00235055 0)
(0 -0.0023421 0)
(0 -0.00233364 0)
(0.00037752 -0.00169682 0)
(0.000362535 -0.00184409 0)
(0.00034274 -0.00196571 0)
(0.000318086 -0.00206144 0)
(0.000289296 -0.00213227 0)
(0.000259346 -0.0021821 0)
(0.000231143 -0.002216 0)
(0.000207081 -0.00223966 0)
(0.000191714 -0.00226056 0)
(0.000731628 -0.00173752 0)
(0.000697235 -0.00186154 0)
(0.000653174 -0.00195431 0)
(0.000600605 -0.00201815 0)
(0.000545377 -0.00206074 0)
(0.000493198 -0.00209009 0)
(0.000447714 -0.00211204 0)
(0.000413954 -0.00213286 0)
(0.000389488 -0.00215277 0)
(0.00104897 -0.00176329 0)
(0.000986964 -0.00184526 0)
(0.000914031 -0.00189215 0)
(0.000839341 -0.00191878 0)
(0.000770242 -0.00193701 0)
(0.000710756 -0.00195307 0)
(0.00066293 -0.00197 0)
(0.000625251 -0.00198709 0)
(0.000595646 -0.00200375 0)
(0.00131511 -0.00174063 0)
(0.00122222 -0.00176464 0)
(0.00113235 -0.00177277 0)
(0.00105315 -0.00177959 0)
(0.000985325 -0.0017878 0)
(0.000928023 -0.00179745 0)
(0.000880439 -0.00180809 0)
(0.000841355 -0.00181919 0)
(0.000809324 -0.00183027 0)
(0.00152974 -0.00164335 0)
(0.00142867 -0.00163661 0)
(0.00134134 -0.00163212 0)
(0.0012659 -0.0016299 0)
(0.00120129 -0.00162986 0)
(0.0011464 -0.00163164 0)
(0.00110016 -0.00163478 0)
(0.00106144 -0.00163879 0)
(0.00102904 -0.00164324 0)
(0.00173142 -0.00152012 0)
(0.00163398 -0.00150154 0)
(0.00155044 -0.00148661 0)
(0.00147889 -0.00147504 0)
(0.00141782 -0.00146639 0)
(0.00136589 -0.00146015 0)
(0.00132193 -0.00145577 0)
(0.00128483 -0.00145276 0)
(0.00125354 -0.00145063 0)
(0.00193081 -0.0013943 0)
(0.00183773 -0.0013637 0)
(0.00175875 -0.0013385 0)
(0.00169163 -0.00131789 0)
(0.00163461 -0.00130111 0)
(0.00158625 -0.00128744 0)
(0.00154531 -0.00127622 0)
(0.00151073 -0.00126687 0)
(0.00148154 -0.00125889 0)
(0.00212545 -0.00126716 0)
(0.00203832 -0.0012253 0)
(0.00196498 -0.00119067 0)
(0.00190307 -0.00116192 0)
(0.00185076 -0.00113795 0)
(0.00180659 -0.00111782 0)
(0.00176932 -0.00110076 0)
(0.00173791 -0.00108609 0)
(0.00171148 -0.00107323 0)
(0.00231277 -0.00114062 0)
(0.00223352 -0.00108905 0)
(0.00216711 -0.00104633 0)
(0.00211133 -0.00101066 0)
(0.00206446 -0.000980654 0)
(0.00202513 -0.000955182 0)
(0.00199217 -0.000933328 0)
(0.00196459 -0.000914315 0)
(0.0019415 -0.000897474 0)
(0.00265565 -0.000897003 0)
(0.00259702 -0.000832982 0)
(0.00254769 -0.000779932 0)
(0.00250624 -0.000735612 0)
(0.00247151 -0.000698295 0)
(0.00244255 -0.000666639 0)
(0.00241853 -0.000639611 0)
(0.00239878 -0.000616474 0)
(0.00238275 -0.000596904 0)
(0.00280789 -0.000782069 0)
(0.00276114 -0.000715941 0)
(0.0027215 -0.000661254 0)
(0.00268802 -0.000615748 0)
(0.00265989 -0.000577687 0)
(0.00263644 -0.000545749 0)
(0.0026171 -0.000518948 0)
(0.00260141 -0.000496596 0)
(0.00258906 -0.000478236 0)
(0.00294589 -0.000671915 0)
(0.00291139 -0.000606459 0)
(0.0028818 -0.000552446 0)
(0.00285663 -0.000507666 0)
(0.00283545 -0.000470417 0)
(0.00281785 -0.00043939 0)
(0.00280353 -0.000413575 0)
(0.0027922 -0.000392177 0)
(0.00278366 -0.000374523 0)
(0.0030686 -0.000566302 0)
(0.00304615 -0.000504195 0)
(0.00302648 -0.00045305 0)
(0.00300955 -0.000410766 0)
(0.00299527 -0.000375717 0)
(0.00298351 -0.000346632 0)
(0.00297417 -0.000322501 0)
(0.00296713 -0.000302508 0)
(0.00296229 -0.000285976 0)
(0.00317493 -0.000464832 0)
(0.00316377 -0.000408576 0)
(0.00315342 -0.000362328 0)
(0.00314424 -0.000324176 0)
(0.00313645 -0.000292627 0)
(0.00313018 -0.000266504 0)
(0.0031255 -0.000244867 0)
(0.00312245 -0.000226953 0)
(0.00312102 -0.000212134 0)
(0.00326386 -0.000367007 0)
(0.00326271 -0.000318842 0)
(0.00326063 -0.000279318 0)
(0.00325833 -0.000246785 0)
(0.00325628 -0.000219948 0)
(0.00325486 -0.000197778 0)
(0.00325429 -0.000179452 0)
(0.00325474 -0.000164307 0)
(0.00325631 -0.000151802 0)
(0.00333448 -0.000272228 0)
(0.00334163 -0.00023405 0)
(0.00334638 -0.000202827 0)
(0.00334971 -0.000177234 0)
(0.00335237 -0.000156191 0)
(0.00335489 -0.000138853 0)
(0.00335767 -0.000124559 0)
(0.00336099 -0.000112787 0)
(0.00336503 -0.000103117 0)
(0.00338622 -0.000179758 0)
(0.00339954 -0.000153066 0)
(0.00340925 -0.000131536 0)
(0.00341663 -0.000114 0)
(0.00342265 -9.96174e-05 0)
(0.00342801 -8.77843e-05 0)
(0.00343321 -7.8052e-05 0)
(0.00343861 -7.00832e-05 0)
(0.00344449 -6.36228e-05 0)
(0.00341935 -8.8581e-05 0)
(0.00343579 -7.50401e-05 0)
(0.00344801 -6.42832e-05 0)
(0.00345751 -5.5514e-05 0)
(0.00346535 -4.82968e-05 0)
(0.00347228 -4.23413e-05 0)
(0.00347884 -3.74411e-05 0)
(0.00348546 -3.3457e-05 0)
(0.00349243 -3.03279e-05 0)
(0.00352437 -1.86061e-05 0)
(0.00348076 -3.98616e-05 0)
(0.00340906 -6.67451e-05 0)
(0.00331088 -0.00010189 0)
(0.00318838 -0.000147561 0)
(0.00304413 -0.000205596 0)
(0.00288113 -0.000277322 0)
(0.0027027 -0.000363457 0)
(0.00251251 -0.000463982 0)
(0.00355225 -1.3204e-05 0)
(0.00351365 -2.87946e-05 0)
(0.00345036 -4.90511e-05 0)
(0.00336356 -7.61166e-05 0)
(0.0032549 -0.000111913 0)
(0.00312642 -0.000158082 0)
(0.00298051 -0.000215915 0)
(0.00281984 -0.000286281 0)
(0.00264735 -0.000369529 0)
(0.00358452 -1.02647e-05 0)
(0.00355037 -2.25068e-05 0)
(0.00349441 -3.84959e-05 0)
(0.00341752 -5.99434e-05 0)
(0.00332101 -8.84297e-05 0)
(0.00320652 -0.000125354 0)
(0.00307594 -0.000171883 0)
(0.0029314 -0.000228897 0)
(0.00277526 -0.000296918 0)
(0.00362165 -8.87875e-06 0)
(0.00359136 -1.93372e-05 0)
(0.00354167 -3.27533e-05 0)
(0.00347331 -5.04753e-05 0)
(0.00338734 -7.37721e-05 0)
(0.0032851 -0.000103795 0)
(0.0031681 -0.000141543 0)
(0.00303808 -0.00018782 0)
(0.00289691 -0.000243191 0)
(0.0036638 -8.49876e-06 0)
(0.00363682 -1.82382e-05 0)
(0.00359248 -3.02922e-05 0)
(0.00353143 -4.57142e-05 0)
(0.00345456 -6.5506e-05 0)
(0.00336296 -9.05908e-05 0)
(0.00325793 -0.000121788 0)
(0.00314088 -0.000159786 0)
(0.00301332 -0.000205112 0)
(0.00371096 -8.77566e-06 0)
(0.0036868 -1.85204e-05 0)
(0.00364705 -3.00721e-05 0)
(0.00359226 -4.42516e-05 0)
(0.00352323 -6.18419e-05 0)
(0.00344091 -8.35697e-05 0)
(0.00334639 -0.000110088 0)
(0.00324086 -0.000141957 0)
(0.0031256 -0.000179629 0)
(0.00376298 -9.47456e-06 0)
(0.00374124 -1.97082e-05 0)
(0.00370543 -3.13581e-05 0)
(0.00365606 -4.50651e-05 0)
(0.00359383 -6.14395e-05 0)
(0.00351959 -8.10473e-05 0)
(0.00343431 -0.000104398 0)
(0.00333903 -0.000131934 0)
(0.00323484 -0.000164018 0)
(0.00381966 -1.0428e-05 0)
(0.00380001 -2.14572e-05 0)
(0.00376762 -3.36082e-05 0)
(0.00372295 -4.73861e-05 0)
(0.00366666 -6.32687e-05 0)
(0.00359951 -8.16965e-05 0)
(0.00352238 -0.000103063 0)
(0.00343622 -0.000127709 0)
(0.00334199 -0.000155914 0)
(0.00388074 -1.15089e-05 0)
(0.00386293 -2.35032e-05 0)
(0.00383353 -3.6403e-05 0)
(0.00379299 -5.06131e-05 0)
(0.00374191 -6.65129e-05 0)
(0.00368102 -8.44485e-05 0)
(0.00361112 -0.000104725 0)
(0.0035331 -0.000127601 0)
(0.00344784 -0.000153287 0)
(0.00394597 -1.26146e-05 0)
(0.00392976 -2.56324e-05 0)
(0.003903 -3.94016e-05 0)
(0.00386611 -5.42551e-05 0)
(0.00381966 -7.05021e-05 0)
(0.00376433 -8.84204e-05 0)
(0.00370089 -0.00010825 0)
(0.00363017 -0.000130191 0)
(0.003553 -0.000154397 0)
(0.00401503 -1.36572e-05 0)
(0.00400026 -2.76617e-05 0)
(0.00397586 -4.23124e-05 0)
(0.00394222 -5.78934e-05 0)
(0.0038999 -7.46658e-05 0)
(0.00384954 -9.28607e-05 0)
(0.0037919 -0.000112674 0)
(0.00372775 -0.000134261 0)
(0.00365789 -0.00015774 0)
(0.00408761 -1.45564e-05 0)
(0.00407413 -2.94249e-05 0)
(0.00405184 -4.4873e-05 0)
(0.00402113 -6.11539e-05 0)
(0.00398252 -7.84984e-05 0)
(0.00393665 -9.71079e-05 0)
(0.00388423 -0.000117149 0)
(0.00382601 -0.000138752 0)
(0.00376279 -0.000162007 0)
(0.00416337 -1.52348e-05 0)
(0.00415106 -3.07625e-05 0)
(0.00413068 -4.68335e-05 0)
(0.00410261 -6.36846e-05 0)
(0.00406736 -8.15304e-05 0)
(0.00402555 -0.000100556 0)
(0.00397786 -0.000120912 0)
(0.00392503 -0.000142711 0)
(0.00386783 -0.00016603 0)
(0.00424193 -1.56132e-05 0)
(0.00423068 -3.15122e-05 0)
(0.00421204 -4.79419e-05 0)
(0.00418638 -6.5135e-05 0)
(0.00415419 -8.33017e-05 0)
(0.00411607 -0.000102622 0)
(0.00407269 -0.000123238 0)
(0.00402476 -0.000145255 0)
(0.00397303 -0.000168741 0)
(0.00432288 -1.56059e-05 0)
(0.00431261 -3.14982e-05 0)
(0.00429556 -4.7927e-05 0)
(0.0042721 -6.51327e-05 0)
(0.00424272 -8.33325e-05 0)
(0.00420798 -0.00010271 0)
(0.00416853 -0.000123407 0)
(0.00412507 -0.000145525 0)
(0.00407834 -0.000169126 0)
(0.00440576 -1.51151e-05 0)
(0.00439637 -3.05184e-05 0)
(0.00438079 -4.64773e-05 0)
(0.00435937 -6.32547e-05 0)
(0.00433257 -8.10876e-05 0)
(0.00430096 -0.000100171 0)
(0.00426514 -0.000120652 0)
(0.00422579 -0.000142631 0)
(0.00418363 -0.000166164 0)
(0.00449003 -1.40239e-05 0)
(0.00448145 -2.83249e-05 0)
(0.00446722 -4.32093e-05 0)
(0.0044477 -5.89874e-05 0)
(0.00442334 -7.59307e-05 0)
(0.00439464 -9.4251e-05 0)
(0.00436221 -0.000114104 0)
(0.00432668 -0.000135591 0)
(0.00428873 -0.000158766 0)
(0.00457505 -1.21836e-05 0)
(0.00456717 -2.45856e-05 0)
(0.0045542 -3.7616e-05 0)
(0.00453652 -5.16772e-05 0)
(0.0045145 -6.7068e-05 0)
(0.0044886 -8.40205e-05 0)
(0.00445939 -0.000102707 0)
(0.00442745 -0.00012324 0)
(0.00439346 -0.000145674 0)
(0.00466002 -9.36103e-06 0)
(0.00465266 -1.8771e-05 0)
(0.00464098 -2.90172e-05 0)
(0.00462514 -4.04808e-05 0)
(0.00460545 -5.34813e-05 0)
(0.00458232 -6.82886e-05 0)
(0.00455626 -8.51139e-05 0)
(0.00452784 -0.000104102 0)
(0.00449766 -0.000125327 0)
(0.00224969 -0.000608518 0)
(0.00218584 -0.000639791 0)
(0.00212358 -0.000671524 0)
(0.0020631 -0.000703519 0)
(0.00200447 -0.000735607 0)
(0.00194765 -0.000767649 0)
(0.00189258 -0.000799531 0)
(0.00183913 -0.000831164 0)
(0.00178717 -0.000862479 0)
(0.00173653 -0.000893431 0)
(0.00168701 -0.000923999 0)
(0.00163842 -0.000954182 0)
(0.00159052 -0.000984007 0)
(0.00154311 -0.00101352 0)
(0.00149596 -0.00104281 0)
(0.00144884 -0.00107198 0)
(0.00140153 -0.00110116 0)
(0.00135382 -0.00113053 0)
(0.00130553 -0.00116028 0)
(0.00240732 -0.000493013 0)
(0.00234909 -0.000521233 0)
(0.00229189 -0.000549905 0)
(0.00223588 -0.000578916 0)
(0.00218114 -0.000608157 0)
(0.00212773 -0.000637525 0)
(0.00207563 -0.000666931 0)
(0.00202484 -0.000696302 0)
(0.00197527 -0.000725582 0)
(0.00192687 -0.000754733 0)
(0.00187952 -0.000783737 0)
(0.00183313 -0.000812596 0)
(0.00178757 -0.000841334 0)
(0.00174274 -0.000869998 0)
(0.00169851 -0.000898657 0)
(0.00165478 -0.000927405 0)
(0.00161143 -0.000956361 0)
(0.0015684 -0.00098567 0)
(0.00152561 -0.0010155 0)
(0.00255626 -0.000401033 0)
(0.00250302 -0.000426556 0)
(0.00245054 -0.00045252 0)
(0.00239891 -0.000478858 0)
(0.00234822 -0.000505501 0)
(0.00229855 -0.000532383 0)
(0.00224992 -0.000559443 0)
(0.00220237 -0.00058663 0)
(0.00215589 -0.000613906 0)
(0.00211047 -0.000641244 0)
(0.00206608 -0.000668633 0)
(0.0020227 -0.000696078 0)
(0.0019803 -0.000723602 0)
(0.00193883 -0.000751243 0)
(0.00189827 -0.000779061 0)
(0.0018586 -0.000807132 0)
(0.00181982 -0.000835554 0)
(0.00178192 -0.000864443 0)
(0.00174496 -0.000893938 0)
(0.00269763 -0.000330435 0)
(0.00264907 -0.000353477 0)
(0.00260106 -0.00037699 0)
(0.00255371 -0.000400925 0)
(0.0025071 -0.000425235 0)
(0.00246131 -0.000449876 0)
(0.0024164 -0.000474806 0)
(0.00237242 -0.000499991 0)
(0.00232943 -0.000525405 0)
(0.00228745 -0.000551031 0)
(0.0022465 -0.000576862 0)
(0.00220663 -0.000602906 0)
(0.00216785 -0.000629179 0)
(0.00213019 -0.000655715 0)
(0.00209369 -0.000682558 0)
(0.0020584 -0.000709767 0)
(0.00202436 -0.000737416 0)
(0.00199167 -0.000765591 0)
(0.00196041 -0.000794392 0)
(0.00283246 -0.000278368 0)
(0.00278835 -0.0002992 0)
(0.00274465 -0.000320545 0)
(0.00270146 -0.000342365 0)
(0.00265889 -0.000364625 0)
(0.00261701 -0.000387292 0)
(0.00257591 -0.000410338 0)
(0.00253567 -0.000433737 0)
(0.00249635 -0.000457471 0)
(0.00245802 -0.000481529 0)
(0.00242075 -0.000505907 0)
(0.0023846 -0.000530608 0)
(0.00234965 -0.000555647 0)
(0.00231596 -0.000581045 0)
(0.00228361 -0.000606835 0)
(0.00225269 -0.000633057 0)
(0.00222331 -0.000659762 0)
(0.00219558 -0.000687009 0)
(0.00216964 -0.000714864 0)
(0.00296183 -0.000241784 0)
(0.00292194 -0.00026073 0)
(0.00288237 -0.000280225 0)
(0.0028432 -0.000300237 0)
(0.00280456 -0.000320741 0)
(0.00276653 -0.00034171 0)
(0.00272921 -0.000363123 0)
(0.0026927 -0.000384962 0)
(0.00265707 -0.00040721 0)
(0.00262243 -0.00042986 0)
(0.00258886 -0.000452905 0)
(0.00255646 -0.000476349 0)
(0.00252531 -0.000500196 0)
(0.00249552 -0.000524461 0)
(0.0024672 -0.000549162 0)
(0.00244046 -0.000574324 0)
(0.00241543 -0.000599978 0)
(0.00239225 -0.000626158 0)
(0.00237107 -0.000652904 0)
(0.0030868 -0.000217727 0)
(0.00305088 -0.000235128 0)
(0.0030152 -0.000253097 0)
(0.00297986 -0.00027161 0)
(0.00294497 -0.000290647 0)
(0.00291064 -0.000310186 0)
(0.00287697 -0.000330212 0)
(0.00284407 -0.000350707 0)
(0.00281203 -0.00037166 0)
(0.00278097 -0.000393061 0)
(0.00275097 -0.000414902 0)
(0.00272216 -0.000437182 0)
(0.00269464 -0.0004599 0)
(0.00266853 -0.000483062 0)
(0.00264396 -0.000506674 0)
(0.00262105 -0.000530746 0)
(0.00259994 -0.000555293 0)
(0.00258078 -0.000580329 0)
(0.00256375 -0.000605871 0)
(0.00320834 -0.000203478 0)
(0.00317609 -0.000219655 0)
(0.00314402 -0.000236403 0)
(0.00311225 -0.000253704 0)
(0.00308088 -0.000271541 0)
(0.00305003 -0.000289898 0)
(0.0030198 -0.000308761 0)
(0.0029903 -0.000328115 0)
(0.00296163 -0.000347949 0)
(0.00293392 -0.000368252 0)
(0.00290727 -0.000389014 0)
(0.0028818 -0.000410229 0)
(0.00285762 -0.000431891 0)
(0.00283486 -0.000453997 0)
(0.00281366 -0.000476544 0)
(0.00279414 -0.00049953 0)
(0.00277645 -0.000522956 0)
(0.00276074 -0.00054682 0)
(0.00274718 -0.000571123 0)
(0.00332727 -0.000196602 0)
(0.00329836 -0.000211837 0)
(0.00326959 -0.00022763 0)
(0.00324109 -0.000243968 0)
(0.00321295 -0.00026084 0)
(0.00318529 -0.00027823 0)
(0.00315822 -0.000296127 0)
(0.00313185 -0.000314518 0)
(0.00310628 -0.00033339 0)
(0.00308163 -0.000352732 0)
(0.00305801 -0.000372532 0)
(0.00303554 -0.00039278 0)
(0.00301435 -0.000413463 0)
(0.00299455 -0.000434573 0)
(0.00297628 -0.000456098 0)
(0.00295967 -0.000478027 0)
(0.00294486 -0.00050035 0)
(0.00293201 -0.000523052 0)
(0.00292127 -0.000546121 0)
(0.00344427 -0.000194955 0)
(0.00341834 -0.000209475 0)
(0.00339254 -0.00022453 0)
(0.00336697 -0.000240112 0)
(0.00334174 -0.000256209 0)
(0.00331696 -0.000272811 0)
(0.00329273 -0.000289907 0)
(0.00326916 -0.000307484 0)
(0.00324635 -0.000325529 0)
(0.00322443 -0.00034403 0)
(0.00320349 -0.000362973 0)
(0.00318366 -0.000382344 0)
(0.00316505 -0.000402127 0)
(0.00314778 -0.000422307 0)
(0.00313199 -0.000442866 0)
(0.0031178 -0.000463786 0)
(0.00310534 -0.000485047 0)
(0.00309475 -0.000506627 0)
(0.00308619 -0.000528501 0)
(0.00355983 -0.000196654 0)
(0.00353653 -0.000210632 0)
(0.00351334 -0.000225115 0)
(0.00349037 -0.000240097 0)
(0.00346771 -0.000255569 0)
(0.00344546 -0.000271522 0)
(0.00342373 -0.000287946 0)
(0.00340262 -0.000304829 0)
(0.00338223 -0.000322158 0)
(0.00336267 -0.000339918 0)
(0.00334404 -0.000358096 0)
(0.00332646 -0.000376672 0)
(0.00331003 -0.00039563 0)
(0.00329486 -0.000414949 0)
(0.00328109 -0.000434607 0)
(0.00326882 -0.000454578 0)
(0.00325819 -0.000474837 0)
(0.00324932 -0.000495354 0)
(0.00324235 -0.000516097 0)
(0.00367431 -0.000200048 0)
(0.00365328 -0.000213602 0)
(0.00363236 -0.000227628 0)
(0.00361164 -0.000242121 0)
(0.00359121 -0.000257074 0)
(0.00357116 -0.000272479 0)
(0.00355159 -0.000288327 0)
(0.00353259 -0.000304607 0)
(0.00351427 -0.000321305 0)
(0.00349671 -0.000338406 0)
(0.00348002 -0.000355895 0)
(0.0034643 -0.000373751 0)
(0.00344965 -0.000391955 0)
(0.00343617 -0.000410482 0)
(0.00342398 -0.000429306 0)
(0.00341318 -0.000448398 0)
(0.00340389 -0.000467727 0)
(0.00339621 -0.000487256 0)
(0.00339029 -0.000506948 0)
(0.00378793 -0.00020367 0)
(0.00376884 -0.000216871 0)
(0.00374986 -0.00023051 0)
(0.00373105 -0.000244583 0)
(0.00371252 -0.000259085 0)
(0.00369433 -0.000274009 0)
(0.00367659 -0.000289347 0)
(0.00365938 -0.000305088 0)
(0.00364278 -0.000321218 0)
(0.00362689 -0.000337723 0)
(0.00361179 -0.000354586 0)
(0.00359757 -0.000371786 0)
(0.00358433 -0.0003893 0)
(0.00357215 -0.000407102 0)
(0.00356114 -0.000425164 0)
(0.00355138 -0.000443453 0)
(0.00354299 -0.000461931 0)
(0.00353605 -0.00048056 0)
(0.00353068 -0.000499296 0)
(0.0039008 -0.000206198 0)
(0.00388334 -0.000219077 0)
(0.00386598 -0.000232361 0)
(0.00384878 -0.000246049 0)
(0.00383183 -0.000260138 0)
(0.00381521 -0.00027462 0)
(0.00379899 -0.000289488 0)
(0.00378325 -0.000304732 0)
(0.00376807 -0.00032034 0)
(0.00375353 -0.000336297 0)
(0.0037397 -0.000352584 0)
(0.00372667 -0.000369182 0)
(0.00371451 -0.000386067 0)
(0.00370329 -0.000403211 0)
(0.00369311 -0.000420582 0)
(0.00368403 -0.000438147 0)
(0.00367615 -0.000455864 0)
(0.00366954 -0.00047369 0)
(0.0036643 -0.000491576 0)
(0.00401295 -0.000206411 0)
(0.00399684 -0.000218967 0)
(0.00398081 -0.000231903 0)
(0.00396494 -0.000245218 0)
(0.0039493 -0.000258908 0)
(0.00393396 -0.000272969 0)
(0.00391899 -0.000287392 0)
(0.00390445 -0.00030217 0)
(0.00389042 -0.000317289 0)
(0.00387696 -0.000332736 0)
(0.00386414 -0.000348493 0)
(0.00385201 -0.000364539 0)
(0.00384065 -0.000380851 0)
(0.00383012 -0.000397401 0)
(0.00382047 -0.000414157 0)
(0.00381177 -0.000431081 0)
(0.00380409 -0.000448132 0)
(0.00379748 -0.000465262 0)
(0.00379201 -0.000482418 0)
(0.00412434 -0.000203128 0)
(0.00410933 -0.000215348 0)
(0.00409439 -0.00022793 0)
(0.00407961 -0.000240875 0)
(0.00406504 -0.000254178 0)
(0.00405074 -0.000267835 0)
(0.00403678 -0.000281838 0)
(0.00402321 -0.000296179 0)
(0.0040101 -0.000310846 0)
(0.0039975 -0.000325824 0)
(0.00398546 -0.000341099 0)
(0.00397403 -0.000356648 0)
(0.00396326 -0.00037245 0)
(0.00395319 -0.000388477 0)
(0.00394387 -0.000404697 0)
(0.00393533 -0.000421072 0)
(0.00392761 -0.00043756 0)
(0.00392075 -0.000454111 0)
(0.00391479 -0.000470667 0)
(0.00423493 -0.000195153 0)
(0.0042208 -0.000207026 0)
(0.00420676 -0.00021926 0)
(0.00419285 -0.000231851 0)
(0.00417915 -0.000244796 0)
(0.00416569 -0.000258087 0)
(0.00415255 -0.000271718 0)
(0.00413977 -0.000285677 0)
(0.00412739 -0.000299953 0)
(0.00411548 -0.000314531 0)
(0.00410405 -0.000329396 0)
(0.00409316 -0.000344527 0)
(0.00408283 -0.000359902 0)
(0.00407309 -0.000375494 0)
(0.00406396 -0.000391274 0)
(0.00405545 -0.000407206 0)
(0.00404758 -0.000423247 0)
(0.00404034 -0.000439348 0)
(0.00403374 -0.00045545 0)
(0.00434469 -0.000181176 0)
(0.0043313 -0.000192725 0)
(0.00431799 -0.000204653 0)
(0.00430482 -0.000216955 0)
(0.00429182 -0.000229622 0)
(0.00427906 -0.000242644 0)
(0.00426659 -0.000256009 0)
(0.00425445 -0.000269704 0)
(0.00424267 -0.000283716 0)
(0.00423131 -0.000298027 0)
(0.00422039 -0.000312618 0)
(0.00420993 -0.000327469 0)
(0.00419996 -0.000342558 0)
(0.00419048 -0.000357856 0)
(0.00418149 -0.000373337 0)
(0.00417298 -0.000388964 0)
(0.00416493 -0.000404702 0)
(0.0041573 -0.000420503 0)
(0.00415005 -0.000436314 0)
(0.00445368 -0.00015965 0)
(0.00444097 -0.000170963 0)
(0.00442833 -0.000182708 0)
(0.0044158 -0.000194869 0)
(0.00440343 -0.000207433 0)
(0.00439127 -0.000220385 0)
(0.00437937 -0.000233708 0)
(0.00436776 -0.000247382 0)
(0.0043565 -0.000261386 0)
(0.00434561 -0.000275697 0)
(0.00433511 -0.000290289 0)
(0.00432502 -0.000305134 0)