/*--------------------------------*- C++ -*----------------------------------*\
| =========                 |                                                 |
| \\      /  F ield         | OpenFOAM: The Open Source CFD Toolbox           |
|  \\    /   O peration     | Version:  v2012                                 |
|   \\  /    A nd           | Website:  www.openfoam.com                      |
|    \\/     M anipulation  |                                                 |
\*---------------------------------------------------------------------------*/
FoamFile
{
    version     2.0;
    format      ascii;
    class       volScalarField;
    location    "1";
    object      epsilonEq;
}
// * * * * * * * * * * * * * * * * * * * * * * * * * * * * * * * * * * * * * //

dimensions      [0 0 0 0 0 0 0];


internalField   nonuniform List<scalar> 
53760
(
1.65958e-05
1.0859e-05
1.04407e-05
1.1078e-05
8.75687e-06
1.19277e-05
8.49671e-06
7.7202e-06
1.0489e-05
6.54684e-06
7.3757e-06
9.68793e-06
5.26992e-06
7.43097e-06
9.03581e-06
5.03507e-06
8.14145e-06
8.54012e-06
6.48656e-06
1.21465e-05
1.09005e-05
1.0734e-05
1.29924e-05
1.18027e-05
1.30013e-05
1.01413e-05
1.65417e-05
1.06756e-05
8.0375e-06
9.53014e-06
8.17192e-06
7.29012e-06
9.7944e-06
6.53303e-06
6.81621e-06
1.0677e-05
5.40849e-06
7.52556e-06
1.12717e-05
5.6408e-06
9.65663e-06
8.38451e-06
7.75722e-06
1.28933e-05
1.00576e-05
1.04665e-05
1.34632e-05
1.39639e-05
1.3314e-05
1.04531e-05
1.01293e-05
1.07074e-05
8.20264e-06
1.07645e-05
7.65989e-06
7.34533e-06
8.24831e-06
5.88216e-06
6.8598e-06
6.98938e-06
4.52528e-06
7.70502e-06
6.18155e-06
5.37717e-06
9.22118e-06
6.97282e-06
8.27738e-06
1.10266e-05
1.04727e-05
1.09253e-05
1.41071e-05
1.16254e-05
1.46307e-05
1.10051e-05
1.44881e-05
1.12729e-05
8.00057e-06
7.39654e-06
8.61284e-06
7.88069e-06
5.88426e-06
6.08332e-06
6.59203e-06
5.06268e-06
5.46188e-06
7.80468e-06
5.29408e-06
6.43685e-06
9.52078e-06
7.53995e-06
8.48056e-06
1.0897e-05
8.98862e-06
1.10446e-05
1.388e-05
1.33296e-05
1.52324e-05
1.15324e-05
1.10566e-05
1.17379e-05
8.34576e-06
1.23472e-05
8.92333e-06
5.84867e-06
6.04593e-06
6.07187e-06
5.03039e-06
7.97679e-06
4.98948e-06
5.98755e-06
4.80162e-06
6.18423e-06
8.52545e-06
7.43363e-06
8.34258e-06
1.12363e-05
1.1307e-05
1.14384e-05
1.43885e-05
1.46468e-05
1.48219e-05
1.09776e-05
1.52261e-05
1.14174e-05
8.59452e-06
8.75932e-06
8.95247e-06
5.51601e-06
1.0673e-05
6.38952e-06
5.5887e-06
4.80016e-06
5.40766e-06
5.84995e-06
7.38271e-06
5.96179e-06
8.47566e-06
7.43441e-06
8.36603e-06
1.14592e-05
9.0528e-06
1.14465e-05
1.4741e-05
1.20003e-05
1.53541e-05
1.13422e-05
1.12524e-05
1.16826e-05
8.52633e-06
8.16069e-06
9.0705e-06
5.22305e-06
5.96115e-06
6.14192e-06
4.70089e-06
5.47357e-06
5.32621e-06
5.96318e-06
6.90386e-06
6.09638e-06
8.74001e-06
9.33847e-06
8.64447e-06
1.20186e-05
1.10997e-05
1.19333e-05
1.52843e-05
1.48018e-05
1.45284e-05
1.06833e-05
1.47111e-05
1.09646e-05
7.71443e-06
1.12719e-05
8.46502e-06
5.84695e-06
9.45063e-06
6.52631e-06
5.33792e-06
7.14515e-06
5.63311e-06
6.69091e-06
6.7544e-06
6.45871e-06
8.7632e-06
7.15614e-06
8.42132e-06
1.16514e-05
9.05408e-06
1.14883e-05
1.4773e-05
1.21207e-05
1.51036e-05
1.10972e-05
1.1481e-05
1.13161e-05
8.37575e-06
8.44086e-06
8.3465e-06
5.37098e-06
6.72995e-06
6.06996e-06
4.82945e-06
6.55496e-06
5.18719e-06
6.34667e-06
7.66558e-06
6.20606e-06
8.80939e-06
9.57185e-06
8.59672e-06
1.20576e-05
1.18158e-05
1.19849e-05
1.53283e-05
1.48903e-05
1.44015e-05
1.06972e-05
1.43133e-05
1.11749e-05
8.16177e-06
1.11573e-05
8.6794e-06
6.567e-06
8.51645e-06
7.20246e-06
6.54907e-06
6.97727e-06
6.57318e-06
7.71316e-06
6.59961e-06
7.13974e-06
9.56236e-06
7.42064e-06
8.81203e-06
1.18663e-05
9.36162e-06
1.14413e-05
1.46411e-05
1.22613e-05
1.50188e-05
1.10893e-05
1.16803e-05
1.13812e-05
8.07702e-06
9.3196e-06
8.51687e-06
6.02246e-06
8.18411e-06
6.64962e-06
5.90413e-06
8.10799e-06
5.95242e-06
7.37168e-06
8.82859e-06
6.85276e-06
9.60136e-06
1.00912e-05
8.93974e-06
1.28332e-05
1.12472e-05
1.20164e-05
1.54039e-05
1.45929e-05
1.42359e-05
1.06666e-05
1.38885e-05
1.12281e-05
8.56289e-06
1.06038e-05
9.43583e-06
7.69523e-06
8.44265e-06
8.37306e-06
8.01375e-06
7.28917e-06
7.95867e-06
9.01252e-06
7.21677e-06
8.3126e-06
1.0383e-05
8.22831e-06
9.59132e-06
1.26392e-05
1.02605e-05
1.18617e-05
1.49533e-05
1.2927e-05
1.51439e-05
1.13761e-05
1.24539e-05
1.17767e-05
9.88019e-06
9.70168e-06
9.3323e-06
9.29154e-06
7.79993e-06
7.61493e-06
9.63069e-06
6.93958e-06
6.88602e-06
1.0505e-05
7.30998e-06
7.49318e-06
1.19132e-05
8.77475e-06
9.60177e-06
1.30369e-05
1.24085e-05
1.25231e-05
1.57858e-05
1.49065e-05
1.46744e-05
1.10357e-05
1.37908e-05
1.21261e-05
9.43922e-06
1.07091e-05
1.07092e-05
9.14353e-06
8.8354e-06
9.97067e-06
9.74789e-06
8.1068e-06
9.68773e-06
1.08113e-05
8.40057e-06
9.91069e-06
1.22776e-05
9.58548e-06
1.08523e-05
1.38086e-05
1.15144e-05
1.28582e-05
1.62142e-05
1.42304e-05
1.62989e-05
1.26447e-05
1.36704e-05
1.27394e-05
1.11812e-05
1.0884e-05
1.03771e-05
1.10169e-05
9.14077e-06
8.8492e-06
1.16154e-05
8.38997e-06
8.21639e-06
1.25831e-05
8.69709e-06
8.74665e-06
1.38177e-05
1.01775e-05
1.04919e-05
1.54512e-05
1.23795e-05
1.36971e-05
1.81978e-05
1.60481e-05
1.53186e-05
1.23028e-05
1.43387e-05
1.23509e-05
1.11124e-05
1.23747e-05
1.0263e-05
1.10162e-05
1.17212e-05
8.84336e-06
1.15439e-05
1.17491e-05
8.16734e-06
1.23761e-05
1.2027e-05
8.55403e-06
1.34177e-05
1.25798e-05
1.01558e-05
1.49227e-05
1.36546e-05
1.31821e-05
1.73943e-05
1.58681e-05
1.53167e-05
1.26739e-05
1.57094e-05
1.22159e-05
8.14899e-06
8.95642e-06
1.04415e-05
6.53079e-06
7.67891e-06
9.39246e-06
5.78232e-06
7.1846e-06
8.65671e-06
6.62527e-06
7.71012e-06
8.59188e-06
8.52534e-06
1.0759e-05
6.77971e-06
1.17849e-05
1.15547e-05
1.07123e-05
1.35801e-05
1.34297e-05
1.384e-05
1.07677e-05
1.14553e-05
1.06465e-05
6.88312e-06
1.36337e-05
8.39875e-06
5.51252e-06
1.26023e-05
6.96075e-06
5.26341e-06
1.12651e-05
6.30436e-06
6.21054e-06
1.00787e-05
6.59083e-06
8.24346e-06
8.6945e-06
7.91438e-06
1.24844e-05
9.67517e-06
1.02418e-05
1.37768e-05
1.10062e-05
1.44606e-05
1.07337e-05
1.11328e-05
1.08251e-05
6.50134e-06
6.92373e-06
8.14383e-06
5.29282e-06
5.03993e-06
6.79339e-06
5.43127e-06
6.36786e-06
6.45736e-06
6.71751e-06
8.10273e-06
7.06959e-06
8.67083e-06
9.93592e-06
8.41823e-06
1.07097e-05
9.96154e-06
1.07838e-05
1.45915e-05
1.4106e-05
1.47414e-05
1.13801e-05
1.47042e-05
1.13818e-05
7.31183e-06
1.36186e-05
8.23301e-06
5.29473e-06
1.07078e-05
6.22249e-06
4.63099e-06
9.13725e-06
5.78581e-06
5.93719e-06
8.28857e-06
6.35802e-06
8.03544e-06
7.83744e-06
8.02518e-06
1.11439e-05
8.72891e-06
1.13156e-05
1.45888e-05
1.16045e-05
1.51953e-05
1.17158e-05
1.15899e-05
1.17287e-05
7.42596e-06
7.63077e-06
8.34146e-06
5.17079e-06
5.36883e-06
6.14769e-06
4.26313e-06
5.75754e-06
5.54212e-06
5.62731e-06
6.57608e-06
6.17845e-06
8.12605e-06
9.30783e-06
8.19393e-06
1.15632e-05
1.154e-05
1.17833e-05
1.5079e-05
1.47924e-05
1.47087e-05
1.13004e-05
1.48436e-05
1.1359e-05
7.69702e-06
1.23763e-05
8.30588e-06
5.48709e-06
9.59591e-06
6.24564e-06
4.6141e-06
8.03921e-06
5.28689e-06
5.84266e-06
6.81251e-06
5.98989e-06
8.26687e-06
7.02762e-06
8.19146e-06
1.1244e-05
8.78368e-06
1.12547e-05
1.44367e-05
1.1987e-05
1.51877e-05
1.16115e-05
1.16987e-05
1.1642e-05
7.78703e-06
8.19274e-06
8.37802e-06
5.29609e-06
6.12249e-06
6.07546e-06
4.13033e-06
5.79321e-06
4.922e-06
5.67371e-06
7.02896e-06
5.87007e-06
8.38104e-06
9.14018e-06
8.36528e-06
1.15917e-05
1.174e-05
1.16723e-05
1.49507e-05
1.46326e-05
1.43001e-05
1.10129e-05
1.43626e-05
1.11223e-05
7.87146e-06
1.14619e-05
8.43028e-06
5.88095e-06
8.91422e-06
6.52365e-06
5.49196e-06
7.17573e-06
5.735e-06
6.60616e-06
6.34677e-06
6.40987e-06
8.74228e-06
6.99426e-06
8.38274e-06
1.13907e-05
8.94386e-06
1.12016e-05
1.43829e-05
1.19299e-05
1.48548e-05
1.13703e-05
1.17354e-05
1.14185e-05
7.88913e-06
8.70892e-06
8.39183e-06
5.498e-06
7.02195e-06
6.15536e-06
4.8903e-06
6.74017e-06
5.19959e-06
6.29203e-06
7.64426e-06
6.16352e-06
8.78069e-06
9.37095e-06
8.52161e-06
1.17255e-05
1.16272e-05
1.16434e-05
1.49485e-05
1.43249e-05
1.40617e-05
1.08708e-05
1.38646e-05
1.11714e-05
8.17838e-06
1.09865e-05
8.84889e-06
6.77104e-06
8.53225e-06
7.3662e-06
6.7493e-06
6.99722e-06
6.77511e-06
7.77546e-06
6.59271e-06
7.25661e-06
9.51646e-06
7.46829e-06
8.81639e-06
1.17323e-05
9.40346e-06
1.12868e-05
1.436e-05
1.21629e-05
1.46912e-05
1.12694e-05
1.19246e-05
1.14316e-05
8.11116e-06
9.44316e-06
8.6763e-06
6.18048e-06
8.33179e-06
6.76227e-06
5.97437e-06
8.23148e-06
6.02477e-06
7.28348e-06
8.87664e-06
6.8231e-06
9.4648e-06
1.01103e-05
8.89663e-06
1.21936e-05
1.19695e-05
1.19159e-05
1.51951e-05
1.42796e-05
1.38818e-05
1.07533e-05
1.33855e-05
1.13758e-05
8.63118e-06
1.06192e-05
9.61744e-06
7.91206e-06
8.52244e-06
8.61237e-06
8.26455e-06
7.45028e-06
8.23755e-06
9.25055e-06
7.44316e-06
8.54091e-06
1.06598e-05
8.43632e-06
9.65376e-06
1.25217e-05
1.02552e-05
1.17224e-05
1.47075e-05
1.27769e-05
1.47323e-05
1.135e-05
1.25728e-05
1.17246e-05
8.4706e-06
1.07441e-05
9.28027e-06
7.05305e-06
1.00747e-05
7.71009e-06
7.20686e-06
1.01044e-05
7.17815e-06
8.52404e-06
1.05467e-05
7.87817e-06
1.05532e-05
1.13639e-05
9.74564e-06
1.305e-05
1.25944e-05
1.25211e-05
1.58289e-05
1.45007e-05
1.40036e-05
1.10047e-05
1.30943e-05
1.2133e-05
9.49865e-06
1.05931e-05
1.08651e-05
9.35146e-06
8.87978e-06
1.02241e-05
9.99942e-06
8.25658e-06
9.98629e-06
1.09967e-05
8.58733e-06
1.01402e-05
1.2221e-05
9.70315e-06
1.09098e-05
1.36802e-05
1.15045e-05
1.2609e-05
1.55988e-05
1.39869e-05
1.5645e-05
1.27019e-05
1.35489e-05
1.29078e-05
1.14537e-05
1.11028e-05
1.06172e-05
1.13722e-05
9.4233e-06
9.09087e-06
1.1962e-05
8.62622e-06
8.41841e-06
1.28018e-05
8.7896e-06
8.85612e-06
1.39022e-05
1.00205e-05
1.05579e-05
1.54667e-05
1.22347e-05
1.36012e-05
1.79799e-05
1.55353e-05
1.50792e-05
1.22651e-05
1.41191e-05
1.24838e-05
1.12498e-05
1.25867e-05
1.04073e-05
1.12662e-05
1.20075e-05
8.99464e-06
1.18702e-05
1.20006e-05
8.34759e-06
1.26181e-05
1.23362e-05
8.6656e-06
1.35706e-05
1.28363e-05
1.01773e-05
1.49465e-05
1.38075e-05
1.30119e-05
1.71327e-05
1.57632e-05
1.53863e-05
1.21577e-05
1.57263e-05
1.19157e-05
9.21543e-06
1.31018e-05
8.56e-06
7.20766e-06
1.07692e-05
6.05951e-06
6.72636e-06
9.3374e-06
4.68385e-06
7.32712e-06
8.74829e-06
5.36039e-06
9.36596e-06
8.98268e-06
8.37426e-06
1.17377e-05
1.13451e-05
1.07191e-05
1.5586e-05
1.17491e-05
1.45777e-05
1.15803e-05
1.20841e-05
1.13425e-05
9.82036e-06
9.218e-06
9.02222e-06
8.65642e-06
6.906e-06
7.09845e-06
8.42688e-06
5.62825e-06
6.05058e-06
8.70883e-06
5.54537e-06
6.12809e-06
9.68926e-06
6.90928e-06
7.47759e-06
1.22458e-05
9.67063e-06
1.05322e-05
1.36404e-05
1.28628e-05
1.53868e-05
1.15851e-05
1.17961e-05
1.16948e-05
8.64563e-06
7.0383e-06
9.34847e-06
6.01981e-06
4.67924e-06
7.32988e-06
5.32084e-06
4.69266e-06
6.29363e-06
5.97377e-06
6.34954e-06
6.40762e-06
7.79326e-06
8.59847e-06
7.74443e-06
1.06145e-05
1.10682e-05
1.06854e-05
1.38866e-05
1.3949e-05
1.50117e-05
1.15072e-05
1.49118e-05
1.14917e-05
7.95403e-06
1.28271e-05
8.55757e-06
5.25423e-06
1.06771e-05
6.33111e-06
4.44596e-06
8.88237e-06
5.3772e-06
5.60154e-06
7.63234e-06
5.99541e-06
7.90803e-06
7.33723e-06
7.95642e-06
1.10143e-05
8.56853e-06
1.11366e-05
1.45764e-05
1.16553e-05
1.53679e-05
1.17602e-05
1.18099e-05
1.17519e-05
8.05276e-06
7.75773e-06
8.64784e-06
5.1313e-06
5.2877e-06
6.24126e-06
4.21881e-06
4.98933e-06
5.22587e-06
5.57057e-06
6.52744e-06
6.02933e-06
8.11993e-06
8.86856e-06
8.23293e-06
1.14066e-05
1.15991e-05
1.15869e-05
1.51175e-05
1.46043e-05
1.47213e-05
1.13515e-05
1.47284e-05
1.1349e-05
7.94123e-06
1.21092e-05
8.42467e-06
5.46298e-06
9.59527e-06
6.23683e-06
4.65732e-06
7.65966e-06
5.24127e-06
5.87323e-06
6.56027e-06
6.00175e-06
8.19544e-06
6.86492e-06
8.10319e-06
1.11302e-05
8.64125e-06
1.11309e-05
1.44314e-05
1.18791e-05
1.51415e-05
1.16165e-05
1.17523e-05
1.15934e-05
7.98177e-06
8.30571e-06
8.44374e-06
5.19954e-06
6.14582e-06
6.00707e-06
4.25992e-06
5.71783e-06
4.92366e-06
5.69998e-06
6.9067e-06
5.89227e-06
8.3098e-06
8.9783e-06
8.28308e-06
1.14585e-05
1.15261e-05
1.15303e-05
1.49242e-05
1.44263e-05
1.41672e-05
1.09411e-05
1.41415e-05
1.10519e-05
7.93713e-06
1.12767e-05
8.44968e-06
5.986e-06
8.76128e-06
6.5766e-06
5.58882e-06
6.97762e-06
5.80607e-06
6.70163e-06
6.22779e-06
6.46027e-06
8.71468e-06
6.8897e-06
8.3136e-06
1.12692e-05
8.8267e-06
1.10442e-05
1.42348e-05
1.17997e-05
1.47067e-05
1.12792e-05
1.17e-05
1.13284e-05
7.94123e-06
8.80164e-06
8.40012e-06
5.5964e-06
7.17581e-06
6.19782e-06
5.02391e-06
6.88572e-06
5.29355e-06
6.37643e-06
7.71405e-06
6.20182e-06
8.76282e-06
9.32469e-06
8.46134e-06
1.16382e-05
1.1486e-05
1.15237e-05
1.48418e-05
1.4143e-05
1.38639e-05
1.07453e-05
1.35847e-05
1.10943e-05
8.25002e-06
1.07869e-05
8.94682e-06
6.94867e-06
8.47259e-06
7.53059e-06
6.94064e-06
6.97702e-06
6.96253e-06
7.9228e-06
6.60968e-06
7.37964e-06
9.54743e-06
7.4679e-06
8.79384e-06
1.16424e-05
9.33598e-06
1.11219e-05
1.41819e-05
1.20012e-05
1.45144e-05
1.11472e-05
1.1913e-05
1.13509e-05
8.14531e-06
9.60645e-06
8.73566e-06
6.31874e-06
8.54783e-06
6.88678e-06
6.14077e-06
8.45924e-06
6.18425e-06
7.4178e-06
9.05661e-06
6.9345e-06
9.5273e-06
1.01909e-05
8.91306e-06
1.21025e-05
1.18379e-05
1.17562e-05
1.50169e-05
1.40787e-05
1.36453e-05
1.06255e-05
1.30883e-05
1.13438e-05
8.7443e-06
1.04741e-05
9.77515e-06
8.14294e-06
8.54059e-06
8.8585e-06
8.51559e-06
7.53265e-06
8.49456e-06
9.45456e-06
7.53861e-06
8.7165e-06
1.07539e-05
8.47591e-06
9.66992e-06
1.24025e-05
1.01935e-05
1.15434e-05
1.4495e-05
1.25978e-05
1.4484e-05
1.12006e-05
1.24142e-05
1.16293e-05
8.51333e-06
1.08386e-05
9.35346e-06
7.20034e-06
1.02655e-05
7.86904e-06
7.38856e-06
1.03318e-05
7.36333e-06
8.67322e-06
1.07598e-05
7.99163e-06
1.05985e-05
1.14732e-05
9.70591e-06
1.29406e-05
1.25669e-05
1.23515e-05
1.56539e-05
1.42686e-05
1.37444e-05
1.08392e-05
1.28027e-05
1.20562e-05
9.60249e-06
1.04258e-05
1.10587e-05
9.59477e-06
8.93858e-06
1.05129e-05
1.02533e-05
8.40587e-06
1.02768e-05
1.11874e-05
8.73243e-06
1.03458e-05
1.22636e-05
9.76088e-06
1.09268e-05
1.35546e-05
1.14229e-05
1.24109e-05
1.52855e-05
1.37676e-05
1.54835e-05
1.26497e-05
1.3491e-05
1.2866e-05
1.1642e-05
1.12058e-05
1.07567e-05
1.16585e-05
9.59791e-06
9.26615e-06
1.21805e-05
8.77874e-06
8.57889e-06
1.30077e-05
8.87174e-06
8.93003e-06
1.40075e-05
9.95681e-06
1.05216e-05
1.54504e-05
1.20665e-05
1.34705e-05
1.77898e-05
1.52725e-05
1.48913e-05
1.21413e-05
1.39491e-05
1.23733e-05
1.14301e-05
1.25464e-05
1.05425e-05
1.15995e-05
1.22332e-05
9.21546e-06
1.2126e-05
1.22972e-05
8.52882e-06
1.28131e-05
1.25641e-05
8.6678e-06
1.3615e-05
1.30462e-05
1.00154e-05
1.48034e-05
1.38276e-05
1.27248e-05
1.68497e-05
1.56115e-05
1.57139e-05
1.22525e-05
1.59625e-05
1.19195e-05
9.1327e-06
1.30168e-05
8.5451e-06
7.01491e-06
1.06223e-05
5.81297e-06
6.38803e-06
9.10893e-06
4.38335e-06
7.13354e-06
8.53945e-06
5.26889e-06
9.27188e-06
9.02498e-06
8.20344e-06
1.19183e-05
1.10649e-05
1.14145e-05
1.57268e-05
1.24862e-05
1.51367e-05
1.20203e-05
1.25062e-05
1.17196e-05
9.87505e-06
9.42154e-06
9.04384e-06
8.49968e-06
6.92676e-06
6.91604e-06
8.09254e-06
5.36933e-06
5.7243e-06
8.46802e-06
5.35145e-06
5.94e-06
9.70004e-06
6.96963e-06
7.67553e-06
1.21408e-05
9.96044e-06
1.08874e-05
1.44077e-05
1.36967e-05
1.60166e-05
1.21442e-05
1.2379e-05
1.21476e-05
8.61709e-06
7.74277e-06
9.33293e-06
5.93649e-06
4.97111e-06
7.06189e-06
4.72693e-06
4.58995e-06
5.74683e-06
5.41907e-06
6.17965e-06
5.89274e-06
7.54515e-06
8.51122e-06
7.63324e-06
1.0742e-05
1.12418e-05
1.0892e-05
1.45621e-05
1.42417e-05
1.52963e-05
1.17449e-05
1.51234e-05
1.16711e-05
8.16826e-06
1.25923e-05
8.68242e-06
5.39796e-06
1.03847e-05
6.31247e-06
4.27836e-06
8.46653e-06
5.12504e-06
5.40732e-06
7.10319e-06
5.73841e-06
7.79894e-06
6.88358e-06
7.85213e-06
1.10049e-05
8.43213e-06
1.11356e-05
1.47301e-05
1.18251e-05
1.56002e-05
1.19605e-05
1.20833e-05
1.1891e-05
8.26512e-06
8.02773e-06
8.77317e-06
5.32048e-06
5.38794e-06
6.25487e-06
4.07877e-06
4.82686e-06
4.99079e-06
5.33869e-06
6.25546e-06
5.73333e-06
7.9419e-06
8.64279e-06
8.05817e-06
1.12953e-05
1.15039e-05
1.14804e-05
1.51451e-05
1.4566e-05
1.47704e-05
1.14382e-05
1.47005e-05
1.14011e-05
8.09575e-06
1.19493e-05
8.51672e-06
5.61026e-06
9.48968e-06
6.27666e-06
4.71343e-06
7.48672e-06
5.22991e-06
5.80386e-06
6.2883e-06
5.89237e-06
8.17147e-06
6.63874e-06
8.05456e-06
1.10628e-05
8.48538e-06
1.10535e-05
1.43801e-05
1.17482e-05
1.51504e-05
1.1666e-05
1.18391e-05
1.16059e-05
8.10795e-06
8.4346e-06
8.50768e-06
5.34978e-06
6.2643e-06
6.04207e-06
4.31973e-06
5.73922e-06
4.9094e-06
5.67305e-06
6.85142e-06
5.8154e-06
8.30714e-06
8.90693e-06
8.24931e-06
1.13752e-05
1.13948e-05
1.14349e-05
1.48552e-05
1.42671e-05
1.41212e-05
1.0891e-05
1.39726e-05
1.10067e-05
7.98177e-06
1.11023e-05
8.4851e-06
6.10153e-06
8.62626e-06
6.65359e-06
5.69368e-06
6.81116e-06
5.86297e-06
6.76072e-06
6.10881e-06
6.47142e-06
8.71462e-06
6.77487e-06
8.25621e-06
1.11478e-05
8.72657e-06
1.08832e-05
1.40605e-05
1.16525e-05
1.46429e-05
1.12114e-05
1.16816e-05
1.12654e-05
7.96658e-06
8.87679e-06
8.41688e-06
5.71453e-06
7.32542e-06
6.27307e-06
5.17254e-06
7.04165e-06
5.38321e-06
6.47099e-06
7.80637e-06
6.24286e-06
8.77124e-06
9.31677e-06
8.41498e-06
1.15301e-05
1.13466e-05
1.13803e-05
1.46899e-05
1.39427e-05
1.37405e-05
1.06573e-05
1.34231e-05
1.10514e-05
8.31105e-06
1.0657e-05
9.04336e-06
7.12941e-06
8.4383e-06
7.71435e-06
7.14381e-06
7.00289e-06
7.15632e-06
8.07344e-06
6.64805e-06
7.49309e-06
9.58535e-06
7.46848e-06
8.76427e-06
1.15366e-05
9.26173e-06
1.09607e-05
1.40301e-05
1.1877e-05
1.43931e-05
1.10544e-05
1.18685e-05
1.12938e-05
8.18105e-06
9.71999e-06
8.80369e-06
6.47733e-06
8.76505e-06
7.04663e-06
6.32958e-06
8.70044e-06
6.35984e-06
7.55055e-06
9.24312e-06
7.02733e-06
9.56386e-06
1.02686e-05
8.88628e-06
1.20172e-05
1.1756e-05
1.16217e-05
1.4879e-05
1.38977e-05
1.34781e-05
1.05209e-05
1.28955e-05
1.13166e-05
8.81866e-06
1.03538e-05
9.91961e-06
8.35632e-06
8.56477e-06
9.10585e-06
8.76842e-06
7.65508e-06
8.75841e-06
9.65808e-06
7.67615e-06
8.89022e-06
1.08388e-05
8.54061e-06
9.69604e-06
1.23488e-05
1.01731e-05
1.14232e-05
1.43281e-05
1.24729e-05
1.43417e-05
1.11023e-05
1.23507e-05
1.15762e-05
8.55456e-06
1.09339e-05
9.45168e-06
7.35906e-06
1.04921e-05
8.05918e-06
7.57354e-06
1.05917e-05
7.55792e-06
8.7983e-06
1.0977e-05
8.08312e-06
1.06146e-05
1.1592e-05
9.6649e-06
1.28435e-05
1.25353e-05
1.22019e-05
1.54851e-05
1.40951e-05
1.36e-05
1.07483e-05
1.2619e-05
1.20626e-05
9.67056e-06
1.03203e-05
1.1236e-05
9.81804e-06
9.01468e-06
1.08194e-05
1.05316e-05
8.62057e-06
1.05956e-05
1.14251e-05
8.97125e-06
1.05595e-05
1.23787e-05
9.8927e-06
1.09978e-05
1.35174e-05
1.14235e-05
1.23063e-05
1.50983e-05
1.36397e-05
1.53972e-05
1.26246e-05
1.34757e-05
1.28454e-05
1.173e-05
1.12422e-05
1.08894e-05
1.189e-05
9.75355e-06
9.49067e-06
1.24374e-05
8.95809e-06
8.76568e-06
1.31706e-05
8.96736e-06
8.94205e-06
1.41452e-05
9.88194e-06
1.04238e-05
1.54272e-05
1.18743e-05
1.32997e-05
1.76572e-05
1.50166e-05
1.48052e-05
1.22021e-05
1.38851e-05
1.24244e-05
1.14259e-05
1.27297e-05
1.05586e-05
1.1757e-05
1.24839e-05
9.3334e-06
1.24158e-05
1.27376e-05
8.76348e-06
1.32082e-05
1.30823e-05
9.03842e-06
1.40357e-05
1.33401e-05
1.02866e-05
1.51472e-05
1.42644e-05
1.29823e-05
1.7343e-05
1.61453e-05
1.60436e-05
1.23973e-05
1.62175e-05
1.20232e-05
9.09243e-06
1.30121e-05
8.49905e-06
6.83555e-06
1.04902e-05
5.629e-06
6.07161e-06
8.87424e-06
4.10424e-06
6.93769e-06
8.30579e-06
5.18381e-06
9.1973e-06
8.96581e-06
8.2055e-06
1.20834e-05
1.09349e-05
1.18466e-05
1.5908e-05
1.2903e-05
1.55737e-05
1.23219e-05
1.28069e-05
1.19797e-05
9.87221e-06
9.52802e-06
9.01692e-06
8.28955e-06
6.80732e-06
6.69303e-06
7.74899e-06
5.08509e-06
5.41091e-06
8.22774e-06
5.16758e-06
5.78587e-06
9.661e-06
7.034e-06
7.86741e-06
1.21861e-05
1.02906e-05
1.12562e-05
1.50454e-05
1.44167e-05
1.64372e-05
1.25214e-05
1.28118e-05
1.24251e-05
8.6682e-06
8.16618e-06
9.28946e-06
5.75211e-06
5.15204e-06
6.79388e-06
4.30977e-06
4.5014e-06
5.33459e-06
5.15243e-06
6.14748e-06
5.62801e-06
7.55183e-06
8.55166e-06
7.73519e-06
1.10248e-05
1.14498e-05
1.1239e-05
1.5239e-05
1.46628e-05
1.55016e-05
1.19771e-05
1.53199e-05
1.18501e-05
8.30229e-06
1.25189e-05
8.7297e-06
5.44638e-06
1.01103e-05
6.24983e-06
4.16669e-06
8.02405e-06
4.97285e-06
5.37964e-06
6.58508e-06
5.65754e-06
7.86031e-06
6.50301e-06
7.83671e-06
1.09816e-05
8.35455e-06
1.1021e-05
1.49317e-05
1.20513e-05
1.57624e-05
1.21703e-05
1.23434e-05
1.20463e-05
8.4013e-06
8.28711e-06
8.82499e-06
5.39273e-06
5.53301e-06
6.21185e-06
3.97162e-06
4.79078e-06
4.84162e-06
5.2533e-06
6.16372e-06
5.58847e-06
7.82716e-06
8.39084e-06
7.88817e-06
1.11266e-05
1.14176e-05
1.12358e-05
1.52193e-05
1.46679e-05
1.44257e-05
1.15514e-05
1.46577e-05
1.15144e-05
8.21831e-06
1.1874e-05
8.58614e-06
5.73333e-06
9.37031e-06
6.3061e-06
4.80088e-06
7.36232e-06
5.19412e-06
5.83557e-06
6.22659e-06
5.83299e-06
8.07271e-06
6.47938e-06
7.90047e-06
1.10636e-05
8.44846e-06
1.10698e-05
1.42155e-05
1.12603e-05
1.4816e-05
1.17712e-05
1.20191e-05
1.17018e-05
8.22946e-06
8.57697e-06
8.57615e-06
5.47969e-06
6.38998e-06
6.07525e-06
4.3724e-06
5.79215e-06
4.83363e-06
5.59751e-06
6.79238e-06
5.6572e-06
8.24368e-06
8.89308e-06
8.11813e-06
1.138e-05
1.13447e-05
1.14302e-05
1.46789e-05
1.40354e-05
1.42884e-05
1.09302e-05
1.34669e-05
1.105e-05
8.08778e-06
1.10649e-05
8.58373e-06
6.25025e-06
8.55124e-06
6.76999e-06
5.78858e-06
6.67046e-06
5.91235e-06
6.73774e-06
5.86657e-06
6.37769e-06
8.60343e-06
6.55935e-06
8.09004e-06
1.09057e-05
8.3881e-06
1.06476e-05
1.39426e-05
1.17034e-05
1.47912e-05
1.12114e-05
1.16963e-05
1.12711e-05
8.0216e-06
8.97516e-06
8.46468e-06
5.85146e-06
7.50374e-06
6.37355e-06
5.32763e-06
7.22473e-06
5.48226e-06
6.57276e-06
7.92776e-06
6.27048e-06
8.76867e-06
9.32536e-06
8.35064e-06
1.13416e-05
1.11315e-05
1.11957e-05
1.45509e-05
1.37223e-05
1.36496e-05
1.06017e-05
1.3482e-05
1.1028e-05
8.37714e-06
1.06109e-05
9.14298e-06
7.29565e-06
8.42469e-06
7.89009e-06
7.3306e-06
7.0358e-06
7.33201e-06
8.20272e-06
6.68644e-06
7.59041e-06
9.62843e-06
7.49133e-06
8.7777e-06
1.15447e-05
9.33806e-06
1.09161e-05
1.395e-05
1.17934e-05
1.43004e-05
1.09924e-05
1.18291e-05
1.12606e-05
8.22986e-06
9.84593e-06
8.8842e-06
6.63123e-06
8.99583e-06
7.209e-06
6.51924e-06
8.96256e-06
6.53554e-06
7.68046e-06
9.45582e-06
7.12301e-06
9.57648e-06
1.03493e-05
8.8674e-06
1.19817e-05
1.17094e-05
1.15476e-05
1.48195e-05
1.38142e-05
1.33717e-05
1.04455e-05
1.27708e-05
1.131e-05
8.88086e-06
1.0247e-05
1.00468e-05
8.55307e-06
8.57967e-06
9.33376e-06
9.02224e-06
7.76795e-06
9.0145e-06
9.88131e-06
7.81688e-06
9.09352e-06
1.09599e-05
8.63739e-06
9.77293e-06
1.23335e-05
1.01562e-05
1.13368e-05
1.41937e-05
1.23456e-05
1.42626e-05
1.10468e-05
1.23527e-05
1.15631e-05
8.58142e-06
1.10872e-05
9.53323e-06
7.49908e-06
1.0741e-05
8.23023e-06
7.77255e-06
1.09013e-05
7.75951e-06
8.96924e-06
1.12569e-05
8.23435e-06
1.06803e-05
1.17445e-05
9.69128e-06
1.28249e-05
1.25767e-05
1.21352e-05
1.5402e-05
1.40324e-05
1.35721e-05
1.07431e-05
1.25272e-05
1.21318e-05
9.8136e-06
1.02797e-05
1.14444e-05
1.00654e-05
9.07211e-06
1.11118e-05
1.08288e-05
8.75787e-06
1.09098e-05
1.16877e-05
9.12919e-06
1.08196e-05
1.25298e-05
1.00164e-05
1.11243e-05
1.35582e-05
1.14561e-05
1.22738e-05
1.50171e-05
1.35706e-05
1.54237e-05
1.27105e-05
1.35487e-05
1.29099e-05
1.19596e-05
1.13672e-05
1.09742e-05
1.21923e-05
9.86995e-06
9.64163e-06
1.28712e-05
9.12813e-06
8.98564e-06
1.36191e-05
9.1676e-06
9.22476e-06
1.43027e-05
1.00844e-05
1.05967e-05
1.57071e-05
1.19753e-05
1.34486e-05
1.80068e-05
1.5105e-05
1.50458e-05
1.2498e-05
1.41365e-05
1.27019e-05
1.19434e-05
1.30262e-05
1.09605e-05
1.2221e-05
1.29063e-05
9.68519e-06
1.28326e-05
1.31218e-05
8.94136e-06
1.34431e-05
1.33834e-05
8.97158e-06
1.39593e-05
1.3542e-05
1.01225e-05
1.52205e-05
1.43888e-05
1.28498e-05
1.72777e-05
1.61014e-05
1.63459e-05
1.25536e-05
1.64568e-05
1.2152e-05
9.07891e-06
1.30272e-05
8.47716e-06
6.63993e-06
1.03496e-05
5.44813e-06
5.75288e-06
8.61322e-06
3.83857e-06
6.73884e-06
8.04129e-06
5.10377e-06
9.14724e-06
8.84736e-06
8.29035e-06
1.22147e-05
1.08567e-05
1.21387e-05
1.60847e-05
1.31461e-05
1.59567e-05
1.25596e-05
1.30521e-05
1.2185e-05
9.83672e-06
9.59063e-06
8.97718e-06
8.03449e-06
6.66213e-06
6.46259e-06
7.40211e-06
4.79689e-06
5.09868e-06
8.01035e-06
4.9844e-06
5.62621e-06
9.60509e-06
7.0088e-06
8.03307e-06
1.22518e-05
1.06303e-05
1.16053e-05
1.55886e-05
1.50865e-05
1.6762e-05
1.27926e-05
1.30769e-05
1.26096e-05
8.71582e-06
8.44835e-06
9.22307e-06
5.56956e-06
5.25826e-06
6.53194e-06
3.96798e-06
4.42607e-06
4.9779e-06
5.00418e-06
5.98259e-06
5.43379e-06
7.62065e-06
8.77009e-06
7.93488e-06
1.14048e-05
1.19346e-05
1.16821e-05
1.58805e-05
1.49359e-05
1.578e-05
1.21824e-05
1.55921e-05
1.20249e-05
8.38794e-06
1.24863e-05
8.73184e-06
5.43216e-06
9.85846e-06
6.14058e-06
4.05055e-06
7.59729e-06
4.77309e-06
5.23238e-06
6.01916e-06
5.589e-06
8.49692e-06
6.22312e-06
8.61891e-06
1.18093e-05
8.9626e-06
1.17503e-05
1.53605e-05
1.20756e-05
1.59777e-05
1.23375e-05
1.21971e-05
1.21831e-05
8.47325e-06
8.54381e-06
8.81359e-06
5.38713e-06
5.70997e-06
6.10579e-06
3.87911e-06
4.84554e-06
4.65537e-06
5.13938e-06
6.18801e-06
5.56354e-06
8.47435e-06
8.7158e-06
8.51175e-06
1.19372e-05
8.91884e-06
1.19612e-05
1.5511e-05
1.22301e-05
1.48993e-05
1.08862e-05
1.43638e-05
1.10674e-05
7.90076e-06
1.07702e-05
7.98133e-06
5.78874e-06
7.86026e-06
5.55347e-06
5.16561e-06
5.85953e-06
4.46837e-06
6.31107e-06
5.34838e-06
5.57982e-06
8.30164e-06
6.54706e-06
7.73003e-06
1.09145e-05
1.05405e-05
1.09323e-05
1.45696e-05
1.41768e-05
1.52962e-05
1.11297e-05
1.20926e-05
1.1174e-05
7.9443e-06
1.07613e-05
8.50812e-06
5.57954e-06
7.57152e-06
6.54283e-06
4.83004e-06
5.25967e-06
5.71357e-06
6.12262e-06
4.67677e-06
6.4384e-06
8.24629e-06
6.16657e-06
8.17903e-06
1.12219e-05
8.42374e-06
1.10973e-05
1.47217e-05
1.3697e-05
1.42906e-05
1.1262e-05
1.42128e-05
1.1412e-05
8.35085e-06
8.97585e-06
9.12373e-06
6.10339e-06
6.93656e-06
7.25475e-06
5.12182e-06
5.8984e-06
6.23493e-06
5.92404e-06
6.22629e-06
6.47255e-06
7.92921e-06
7.79283e-06
7.95875e-06
1.07885e-05
1.04136e-05
1.06554e-05
1.38849e-05
1.17398e-05
1.47979e-05
1.15636e-05
1.18978e-05
1.16132e-05
8.65752e-06
9.48054e-06
9.06964e-06
6.44825e-06
7.90934e-06
6.91158e-06
5.61373e-06
7.35425e-06
5.71908e-06
6.47603e-06
7.76231e-06
6.11908e-06
8.49414e-06
8.95462e-06
8.00828e-06
1.13557e-05
1.08953e-05
1.10996e-05
1.45576e-05
1.37251e-05
1.3638e-05
1.06533e-05
1.33162e-05
1.1147e-05
8.51131e-06
1.04172e-05
9.31722e-06
7.48432e-06
8.46129e-06
8.08403e-06
7.50819e-06
7.11733e-06
7.48621e-06
8.30404e-06
6.7286e-06
7.6384e-06
9.62246e-06
7.42324e-06
8.67274e-06
1.14564e-05
9.09302e-06
1.07508e-05
1.37929e-05
1.15481e-05
1.43182e-05
1.1048e-05
1.18962e-05
1.13575e-05
8.33528e-06
9.97786e-06
9.02674e-06
6.81699e-06
9.16464e-06
7.39875e-06
6.73537e-06
9.15204e-06
6.72581e-06
7.84455e-06
9.6169e-06
7.23626e-06
9.67183e-06
1.04471e-05
8.87695e-06
1.20033e-05
1.17612e-05
1.14976e-05
1.47317e-05
1.37533e-05
1.33479e-05
1.04543e-05
1.2705e-05
1.13904e-05
9.01855e-06
1.0271e-05
1.02382e-05
8.78381e-06
8.69863e-06
9.58807e-06
9.26402e-06
7.93339e-06
9.25534e-06
1.00629e-05
7.95748e-06
9.24165e-06
1.10358e-05
8.68515e-06
9.76496e-06
1.22864e-05
1.00796e-05
1.12158e-05
1.40188e-05
1.22043e-05
1.42872e-05
1.10766e-05
1.24423e-05
1.1631e-05
8.67552e-06
1.12568e-05
9.67085e-06
7.67163e-06
1.10046e-05
8.42585e-06
7.96768e-06
1.11947e-05
7.95432e-06
9.12095e-06
1.15239e-05
8.35494e-06
1.07596e-05
1.19338e-05
9.7017e-06
1.2807e-05
1.26438e-05
1.20655e-05
1.52821e-05
1.39476e-05
1.36084e-05
1.08059e-05
1.25249e-05
1.22733e-05
9.98523e-06
1.03511e-05
1.16864e-05
1.03353e-05
9.24361e-06
1.14244e-05
1.11229e-05
8.99657e-06
1.12329e-05
1.1952e-05
9.36932e-06
1.10816e-05
1.27231e-05
1.01998e-05
1.12312e-05
1.36081e-05
1.15082e-05
1.22529e-05
1.49144e-05
1.3518e-05
1.55986e-05
1.29278e-05
1.37698e-05
1.31394e-05
1.22435e-05
1.16294e-05
1.12568e-05
1.25379e-05
1.01709e-05
9.91375e-06
1.3184e-05
9.36882e-06
9.17037e-06
1.38875e-05
9.27519e-06
9.26477e-06
1.45339e-05
1.00482e-05
1.05253e-05
1.58363e-05
1.18541e-05
1.33966e-05
1.79485e-05
1.49715e-05
1.50485e-05
1.2522e-05
1.41437e-05
1.27258e-05
1.19667e-05
1.31914e-05
1.09423e-05
1.24136e-05
1.31386e-05
9.76099e-06
1.31711e-05
1.34842e-05
9.17219e-06
1.39499e-05
1.39337e-05
9.38669e-06
1.47268e-05
1.44013e-05
1.08607e-05
1.58567e-05
1.49571e-05
1.34432e-05
1.76174e-05
1.65464e-05
1.6621e-05
1.27107e-05
1.66683e-05
1.22842e-05
9.07362e-06
1.30437e-05
8.47472e-06
6.43452e-06
1.02001e-05
5.29267e-06
5.422e-06
8.33035e-06
3.57721e-06
6.5301e-06
7.76912e-06
5.0026e-06
9.08035e-06
8.67897e-06
8.41915e-06
1.23287e-05
1.0652e-05
1.23748e-05
1.62483e-05
1.32804e-05
1.63442e-05
1.27401e-05
1.32771e-05
1.23421e-05
9.75986e-06
9.63527e-06
8.92772e-06
7.72204e-06
6.51444e-06
6.21276e-06
6.95443e-06
4.49629e-06
4.76115e-06
7.6805e-06
4.88429e-06
5.61777e-06
9.79362e-06
7.62775e-06
8.49675e-06
1.23868e-05
1.08969e-05
1.1797e-05
1.5229e-05
1.46387e-05
1.70738e-05
1.29817e-05
1.32611e-05
1.27018e-05
8.74839e-06
8.64832e-06
9.13241e-06
5.40034e-06
5.2774e-06
6.25644e-06
3.61972e-06
4.28234e-06
4.60431e-06
4.89527e-06
5.89966e-06
5.38955e-06
8.09946e-06
8.29594e-06
8.36956e-06
1.17765e-05
1.10919e-05
1.18108e-05
1.56594e-05
1.50682e-05
1.5695e-05
1.19561e-05
1.54003e-05
1.16364e-05
8.15345e-06
1.20448e-05
8.42994e-06
5.16568e-06
9.34502e-06
5.82159e-06
3.86196e-06
7.05234e-06
4.53997e-06
5.21566e-06
5.63854e-06
5.49541e-06
7.72279e-06
6.10639e-06
7.80755e-06
1.14235e-05
8.2597e-06
1.15557e-05
1.52899e-05
1.23006e-05
1.58755e-05
1.20871e-05
1.26647e-05
1.17737e-05
8.30071e-06
8.47914e-06
8.50944e-06
5.71355e-06
5.31831e-06
5.78574e-06
4.6703e-06
3.36642e-06
4.38374e-06
5.84753e-06
4.35801e-06
5.3943e-06
8.26367e-06
7.00123e-06
7.92133e-06
1.154e-05
1.13458e-05
1.17292e-05
1.55174e-05
1.49052e-05
1.49449e-05
1.17138e-05
1.4627e-05
1.15086e-05
8.1501e-06
1.16361e-05
8.54603e-06
5.74368e-06
8.96594e-06
6.23798e-06
4.7677e-06
6.78798e-06
5.05386e-06
5.80957e-06
5.62198e-06
5.7228e-06
8.31496e-06
6.18142e-06
8.10297e-06
1.13046e-05
8.50232e-06
1.12618e-05
1.48307e-05
1.2083e-05
1.53257e-05
1.19659e-05
1.21154e-05