/*--------------------------------*- C++ -*----------------------------------*\
| =========                 |                                                 |
| \\      /  F ield         | OpenFOAM: The Open Source CFD Toolbox           |
|  \\    /   O peration     | Version:  v2012                                 |
|   \\  /    A nd           | Website:  www.openfoam.com                      |
|    \\/     M anipulation  |                                                 |
\*---------------------------------------------------------------------------*/
FoamFile
{
    version     2.0;
    format      ascii;
    class       pointSymmTensorField;
    location    "1";
    object      pEpsilon;
}
// * * * * * * * * * * * * * * * * * * * * * * * * * * * * * * * * * * * * * //

dimensions      [0 0 0 0 0 0 0];


internalField   nonuniform List<symmTensor> 
10701
(
(-6.23351e-06 5.73564e-07 -1.23816e-08 2.1762e-05 4.57118e-07 -4.29271e-06)
(-4.33569e-05 -4.4179e-07 1.73365e-05 4.46666e-07 2.27959e-08 4.35369e-06)
(2.1854e-05 -1.89525e-07 1.58917e-06 -4.03769e-06 1.61072e-07 -6.28882e-06)
(8.47029e-08 -1.53912e-07 8.1041e-08 -6.44636e-05 2.82705e-05 6.0791e-06)
(-3.54051e-06 5.48012e-07 5.34874e-07 1.50976e-05 1.28504e-06 -3.30605e-06)
(8.34045e-06 7.28882e-07 1.33631e-06 -1.79747e-05 3.53273e-06 2.24258e-06)
(1.33947e-05 -7.10619e-06 1.32104e-06 -5.81625e-07 -2.51245e-07 -3.57508e-06)
(1.71126e-06 -1.23279e-05 1.55716e-06 -2.21462e-06 1.69797e-06 9.34963e-07)
(-1.88076e-05 -2.45158e-05 1.35287e-05 -3.18108e-05 1.90156e-05 3.65142e-06)
(-1.28288e-05 6.96099e-06 1.45745e-06 3.14163e-06 -6.71568e-07 9.54928e-07)
(-2.53385e-05 7.0133e-07 -7.54051e-07 8.21231e-06 -6.71817e-08 3.63253e-06)
(-7.75029e-06 3.42247e-07 6.40588e-07 2.0114e-05 2.80532e-06 -8.2943e-06)
(-2.00462e-06 1.47026e-05 9.61617e-07 3.36976e-06 1.65847e-06 -3.86814e-06)
(4.65475e-06 -7.20843e-08 8.47274e-07 -1.59752e-05 1.41143e-07 9.72946e-07)
(9.61007e-06 -1.94964e-07 -2.19013e-07 -2.70138e-05 -8.06043e-07 3.25947e-06)
(4.98871e-05 1.22257e-06 2.22155e-05 -8.79791e-07 8.99967e-07 0)
(1.73134e-05 2.27014e-05 1.4717e-05 2.96497e-05 2.05043e-05 0)
(-5.76803e-07 7.83855e-07 7.27688e-07 7.15278e-05 3.74066e-05 0)
(1.16785e-05 -6.86279e-06 1.18776e-06 -7.47539e-07 -7.75055e-07 -3.41726e-06)
(1.02966e-05 -8.8731e-06 1.12261e-06 1.31301e-06 -9.72945e-07 -3.0979e-06)
(9.08231e-06 -9.87557e-06 9.47565e-07 2.07786e-06 -7.50914e-07 -2.82415e-06)
(7.71505e-06 -1.03563e-05 8.08472e-07 2.37668e-06 -4.78571e-07 -2.0494e-06)
(6.27353e-06 -1.0703e-05 7.40206e-07 2.25691e-06 -1.05199e-07 -1.50402e-06)
(4.79238e-06 -1.11236e-05 7.05274e-07 1.63183e-06 1.59958e-07 -3.74548e-07)
(3.35075e-06 -1.18917e-05 9.97577e-07 2.15129e-07 4.30478e-07 1.0918e-06)
(-3.82034e-07 -1.35671e-05 1.78165e-06 -4.59415e-06 2.20611e-06 3.47383e-06)
(-1.14212e-06 -1.37108e-05 2.03985e-06 -5.75204e-06 2.77923e-06 4.15134e-06)
(-2.07678e-06 -1.40239e-05 2.25631e-06 -7.0513e-06 3.06722e-06 4.9877e-06)
(-3.06394e-06 -1.44669e-05 2.30664e-06 -8.31203e-06 3.13122e-06 5.71017e-06)
(-3.98006e-06 -1.48939e-05 2.27823e-06 -9.60316e-06 3.25397e-06 6.47384e-06)
(-4.90702e-06 -1.54101e-05 2.43355e-06 -1.1042e-05 3.53122e-06 7.28344e-06)
(-5.84828e-06 -1.60841e-05 2.62077e-06 -1.26725e-05 3.68678e-06 8.00028e-06)
(-6.83846e-06 -1.67288e-05 2.6318e-06 -1.42253e-05 3.69933e-06 9.00398e-06)
(-7.83789e-06 -1.73357e-05 2.64608e-06 -1.57269e-05 3.79422e-06 9.80674e-06)
(-8.8083e-06 -1.79557e-05 2.69962e-06 -1.7299e-05 3.97659e-06 1.06092e-05)
(-9.71495e-06 -1.85103e-05 2.73666e-06 -1.89115e-05 4.04189e-06 1.13658e-05)
(-1.07692e-05 -1.91207e-05 2.84248e-06 -2.04839e-05 4.21857e-06 1.20995e-05)
(-1.1855e-05 -1.97589e-05 3.161e-06 -2.20466e-05 4.54455e-06 1.28678e-05)
(-1.2748e-05 -2.03205e-05 3.33557e-06 -2.35867e-05 4.677e-06 1.32749e-05)
(-1.37207e-05 -2.10678e-05 3.75095e-06 -2.53701e-05 5.25026e-06 1.37772e-05)
(-1.48604e-05 -2.18399e-05 4.33863e-06 -2.70634e-05 6.16981e-06 1.41349e-05)
(-1.59482e-05 -2.2522e-05 5.11839e-06 -2.87524e-05 7.54272e-06 1.37723e-05)
(-1.71008e-05 -2.32901e-05 6.50006e-06 -3.04e-05 9.86343e-06 1.23818e-05)
(-1.88782e-05 -2.48791e-05 1.06768e-05 -3.24525e-05 1.55664e-05 9.40307e-06)
(1.50195e-05 -7.81018e-06 1.27222e-06 -4.5028e-07 -2.94296e-07 -6.05463e-06)
(1.49787e-05 -6.97113e-06 1.55476e-06 -1.17291e-06 -2.88044e-07 -4.99216e-06)
(1.55147e-05 -6.78634e-06 1.59115e-06 -1.17171e-06 -1.90853e-07 -5.16437e-06)
(1.60812e-05 -6.62445e-06 1.57332e-06 -1.35906e-06 -1.68602e-07 -5.29781e-06)
(1.66345e-05 -6.42896e-06 1.52867e-06 -1.61403e-06 -1.71578e-07 -5.39424e-06)
(1.7163e-05 -6.19955e-06 1.46911e-06 -1.88492e-06 -1.82195e-07 -5.4632e-06)
(1.76516e-05 -5.9589e-06 1.3992e-06 -2.14412e-06 -1.83915e-07 -5.50914e-06)
(1.80937e-05 -5.69122e-06 1.31925e-06 -2.3962e-06 -1.71797e-07 -5.56162e-06)
(1.85149e-05 -5.38959e-06 1.23857e-06 -2.65e-06 -1.51109e-07 -5.62282e-06)
(1.89076e-05 -5.05429e-06 1.16205e-06 -2.90899e-06 -1.29185e-07 -5.68036e-06)
(1.92524e-05 -4.60614e-06 1.14029e-06 -3.20956e-06 -1.48352e-07 -5.68189e-06)
(1.96462e-05 -4.18549e-06 1.01929e-06 -3.37445e-06 -1.19674e-07 -5.59442e-06)
(2.00591e-05 -3.80638e-06 8.51528e-07 -3.5512e-06 -7.43761e-08 -5.74867e-06)
(2.03636e-05 -3.37614e-06 7.73299e-07 -3.77233e-06 -4.33898e-08 -5.7797e-06)
(2.06925e-05 -2.91231e-06 6.738e-07 -3.98178e-06 -1.63894e-08 -5.83602e-06)
(2.10067e-05 -2.41565e-06 5.61548e-07 -4.16519e-06 1.98547e-08 -5.90613e-06)
(2.13242e-05 -1.85748e-06 4.34087e-07 -4.32625e-06 8.19077e-08 -6.01462e-06)
(2.17038e-05 -1.16526e-06 2.74755e-07 -4.45402e-06 2.12641e-07 -6.25941e-06)
(2.26508e-05 -6.41331e-07 3.43252e-07 -4.25069e-06 3.72926e-07 -7.03881e-06)
(1.23706e-05 -7.42333e-06 1.70146e-06 -1.0135e-06 -5.18533e-07 -4.36642e-06)
(1.1334e-05 -7.37704e-06 2.18556e-06 -2.66799e-08 -3.47789e-07 -3.98293e-06)
(1.08184e-05 -7.62887e-06 2.54484e-06 3.72169e-07 -8.79835e-07 -3.58507e-06)
(1.0323e-05 -7.91894e-06 2.76658e-06 6.22043e-07 -9.26957e-07 -3.42605e-06)
(9.68864e-06 -8.3842e-06 3.1926e-06 1.00854e-06 -1.00895e-06 -3.26905e-06)
(8.95357e-06 -8.57241e-06 3.46584e-06 1.78621e-06 -1.42967e-06 -3.14075e-06)
(8.14692e-06 -8.64748e-06 3.57484e-06 2.29782e-06 -1.55989e-06 -2.98212e-06)
(7.37786e-06 -8.86289e-06 3.69671e-06 2.81851e-06 -1.67179e-06 -2.86254e-06)
(6.8197e-06 -8.79601e-06 3.88792e-06 3.60154e-06 -1.90469e-06 -2.65985e-06)
(5.90188e-06 -9.12508e-06 4.04487e-06 3.83513e-06 -2.14496e-06 -2.63123e-06)
(4.94888e-06 -8.87392e-06 3.86305e-06 4.9545e-06 -2.40394e-06 -2.52681e-06)
(4.1723e-06 -9.02156e-06 3.70048e-06 6.03368e-06 -2.63454e-06 -2.58552e-06)
(3.72066e-06 -8.92379e-06 3.66218e-06 7.34636e-06 -2.67449e-06 -2.50507e-06)
(2.53384e-06 -9.4632e-06 3.35959e-06 7.94811e-06 -2.98386e-06 -2.46307e-06)
(9.32839e-07 -9.31089e-06 2.73689e-06 9.80841e-06 -3.14235e-06 -2.83347e-06)
(-5.68974e-07 -8.75669e-06 2.23594e-06 1.22538e-05 -2.72498e-06 -3.01897e-06)
(-2.08194e-06 -7.35678e-06 1.6568e-06 1.41542e-05 -2.39088e-06 -3.14162e-06)
(-3.68074e-06 -6.21532e-06 6.58997e-07 1.48679e-05 -2.04428e-06 -3.27017e-06)
(-5.70961e-06 -5.27443e-06 3.6132e-07 1.80987e-05 -1.64588e-06 -3.97268e-06)
(-5.88504e-06 5.98782e-07 4.4782e-08 2.03201e-05 6.68211e-07 -4.37096e-06)
(-5.12782e-06 6.16528e-07 1.90365e-08 1.90126e-05 8.00036e-07 -4.34406e-06)
(-4.50745e-06 6.18554e-07 1.8019e-08 1.79237e-05 8.7518e-07 -4.2484e-06)
(-4.13783e-06 6.05213e-07 3.86057e-08 1.71255e-05 9.45594e-07 -4.10247e-06)
(-3.8016e-06 5.92103e-07 6.10803e-08 1.6439e-05 9.67609e-07 -3.91231e-06)
(-3.48006e-06 5.89463e-07 1.36696e-07 1.58561e-05 9.37719e-07 -3.69557e-06)
(-3.37e-06 5.64315e-07 2.12243e-07 1.57636e-05 5.48656e-07 -3.80176e-06)
(-3.84493e-06 6.19982e-07 6.19501e-07 1.47654e-05 1.01655e-06 -3.11225e-06)
(-4.51077e-06 6.3945e-07 8.53254e-07 1.40723e-05 1.05847e-06 -2.65477e-06)
(-5.47962e-06 5.9613e-07 1.06235e-06 1.36099e-05 1.0863e-06 -2.20672e-06)
(-6.70649e-06 5.4948e-07 1.24023e-06 1.32226e-05 1.13276e-06 -1.61284e-06)
(-8.0596e-06 4.64296e-07 1.51936e-06 1.28324e-05 1.17498e-06 -9.46051e-07)
(-9.54468e-06 3.78701e-07 1.70825e-06 1.23846e-05 1.11614e-06 -2.3559e-07)
(-1.11058e-05 2.914e-07 1.91016e-06 1.18727e-05 1.0879e-06 5.53355e-07)
(-1.26545e-05 2.48214e-07 2.0794e-06 1.12802e-05 9.89725e-07 1.25484e-06)
(-1.44819e-05 1.58805e-07 2.32694e-06 1.06671e-05 1.02784e-06 2.02829e-06)
(-1.65808e-05 1.00286e-07 2.37482e-06 1.00742e-05 8.35098e-07 3.05859e-06)
(-1.8611e-05 4.16919e-08 2.42947e-06 9.44594e-06 7.26822e-07 3.94859e-06)
(-2.08025e-05 -2.7659e-08 2.60643e-06 8.74571e-06 6.23554e-07 4.97347e-06)
(-2.31434e-05 -1.1762e-07 2.78378e-06 7.96287e-06 4.87322e-07 6.0809e-06)
(-2.56961e-05 -3.2119e-07 2.96587e-06 7.0287e-06 2.00067e-07 7.36242e-06)
(-2.80032e-05 -3.0119e-07 3.29673e-06 6.13466e-06 1.82931e-07 8.36196e-06)
(-3.05086e-05 -3.05963e-07 3.41993e-06 5.2376e-06 1.73965e-08 9.48357e-06)
(-3.36708e-05 -4.40754e-07 3.76851e-06 4.21257e-06 -1.365e-07 1.05616e-05)
(-3.70935e-05 -6.45386e-07 4.59068e-06 3.07951e-06 -2.82118e-07 1.21909e-05)
(-4.39689e-05 -1.22982e-06 8.86602e-06 1.77239e-06 2.22719e-07 1.4343e-05)
(2.0415e-05 -2.49205e-07 1.80182e-06 -3.53091e-06 5.92634e-07 -6.31306e-06)
(1.83129e-05 -3.14373e-07 1.51423e-06 -3.24582e-06 8.63161e-07 -5.65921e-06)
(1.6384e-05 -2.65765e-07 1.45955e-06 -3.79734e-06 1.14783e-06 -4.76094e-06)
(1.46016e-05 -1.87506e-07 1.35906e-06 -5.3387e-06 1.43444e-06 -3.54041e-06)
(1.28609e-05 -1.20323e-07 1.30034e-06 -7.65409e-06 1.75648e-06 -2.04659e-06)
(1.10498e-05 -2.87829e-08 8.87835e-07 -1.10256e-05 1.9651e-06 6.4818e-08)
(9.70852e-06 5.60341e-07 5.03605e-07 -1.52412e-05 3.04691e-06 3.03846e-06)
(8.16895e-06 1.40807e-07 4.31681e-07 -2.33324e-05 2.08431e-06 5.16221e-06)
(7.79412e-06 7.98492e-08 1.95349e-07 -2.52914e-05 2.73248e-06 6.43896e-06)
(7.47426e-06 1.16213e-07 3.49569e-07 -2.69911e-05 3.09276e-06 7.23994e-06)
(7.14001e-06 1.17923e-07 2.75799e-07 -2.89327e-05 3.44359e-06 8.26081e-06)
(6.7706e-06 1.39986e-07 1.6327e-07 -3.08212e-05 3.45792e-06 9.03332e-06)
(6.38433e-06 1.37322e-07 1.68892e-07 -3.27375e-05 3.64443e-06 9.92351e-06)
(5.98259e-06 1.50553e-07 5.37247e-08 -3.46906e-05 3.76531e-06 1.07625e-05)
(5.57088e-06 1.46928e-07 2.3056e-08 -3.66694e-05 3.97486e-06 1.16952e-05)
(5.15037e-06 1.60046e-07 -1.41545e-07 -3.8709e-05 4.10559e-06 1.26398e-05)
(4.72558e-06 1.81419e-07 -2.08082e-07 -4.06523e-05 4.13701e-06 1.34072e-05)
(4.29984e-06 2.00859e-07 -2.65777e-07 -4.26351e-05 4.34676e-06 1.42273e-05)
(3.86847e-06 2.2297e-07 -3.3781e-07 -4.46586e-05 4.65492e-06 1.50337e-05)
(3.43029e-06 2.46472e-07 -4.23543e-07 -4.67343e-05 5.08851e-06 1.57884e-05)
(2.98323e-06 2.65367e-07 -5.18438e-07 -4.88839e-05 5.72035e-06 1.64481e-05)
(2.52275e-06 2.67309e-07 -6.14574e-07 -5.11372e-05 6.6675e-06 1.69414e-05)
(2.0419e-06 2.29849e-07 -6.94491e-07 -5.35254e-05 8.11088e-06 1.71364e-05)
(1.53216e-06 1.14406e-07 -7.16299e-07 -5.60609e-05 1.03338e-05 1.67746e-05)
(9.89953e-07 -1.42486e-07 -5.75671e-07 -5.86732e-05 1.37846e-05 1.533e-05)
(4.51472e-07 -1.79169e-07 1.19002e-07 -6.36591e-05 2.05934e-05 1.42959e-05)
(-3.41074e-06 -2.83339e-07 -2.58907e-08 1.53492e-05 -1.16391e-06 -4.36614e-06)
(-3.75871e-06 -1.93299e-06 3.01053e-07 1.29399e-05 -6.19649e-07 -3.74973e-06)
(-3.8571e-06 -2.66032e-06 5.77231e-07 1.27709e-05 -2.64641e-07 -3.27016e-06)
(-4.48114e-06 -3.22721e-06 9.9825e-07 1.25648e-05 2.30893e-07 -3.22279e-06)
(-5.06551e-06 -3.73688e-06 9.76485e-07 1.27463e-05 3.08788e-07 -2.88169e-06)
(-5.32229e-06 -4.41816e-06 1.01546e-06 1.23531e-05 6.33101e-07 -2.64452e-06)
(-5.7039e-06 -5.30068e-06 1.07826e-06 1.2081e-05 9.9499e-07 -2.64244e-06)
(-5.82224e-06 -6.21114e-06 1.14333e-06 1.17295e-05 1.06851e-06 -2.27047e-06)
(-5.78924e-06 -7.06417e-06 9.55459e-07 1.12277e-05 1.22174e-06 -2.15314e-06)
(-5.53147e-06 -7.96952e-06 8.32215e-07 1.03521e-05 1.41201e-06 -1.91633e-06)
(-5.13144e-06 -8.79529e-06 7.61579e-07 9.33117e-06 1.53325e-06 -1.76732e-06)
(-4.63552e-06 -9.50008e-06 6.97878e-07 8.27842e-06 1.6173e-06 -1.61317e-06)
(-4.07917e-06 -1.01553e-05 6.88566e-07 7.16658e-06 1.7265e-06 -1.47954e-06)
(-3.45441e-06 -1.07199e-05 6.62622e-07 6.04996e-06 1.77122e-06 -1.32278e-06)
(-2.70053e-06 -1.11312e-05 5.65049e-07 4.85383e-06 1.83702e-06 -1.24232e-06)
(-1.94648e-06 -1.1499e-05 5.57268e-07 3.48057e-06 2.02907e-06 -1.12457e-06)
(-1.2116e-06 -1.18823e-05 5.81818e-07 2.17309e-06 2.14737e-06 -9.84892e-07)
(-4.11373e-07 -1.2164e-05 4.87999e-07 8.7472e-07 2.26302e-06 -1.03816e-06)
(7.97769e-07 -1.27977e-05 4.88885e-07 -2.09607e-07 2.35622e-06 -2.1157e-06)
(-2.06056e-05 -2.77246e-05 1.44926e-05 -3.69898e-05 2.13651e-05 4.94296e-06)
(-1.89225e-05 -2.76135e-05 1.34066e-05 -3.94743e-05 2.11505e-05 6.16067e-06)
(-1.72812e-05 -2.71485e-05 1.28577e-05 -4.18321e-05 2.17176e-05 6.42505e-06)
(-1.5592e-05 -2.668e-05 1.25118e-05 -4.4718e-05 2.27687e-05 6.43529e-06)
(-1.38122e-05 -2.58941e-05 1.20113e-05 -4.75893e-05 2.36971e-05 6.63414e-06)
(-1.2206e-05 -2.44602e-05 1.10769e-05 -4.84772e-05 2.38727e-05 6.44518e-06)
(-1.10363e-05 -2.39563e-05 1.06969e-05 -5.10994e-05 2.48368e-05 6.57779e-06)
(-9.56517e-06 -2.28676e-05 1.0087e-05 -5.34452e-05 2.56519e-05 6.62414e-06)
(-8.19385e-06 -2.14807e-05 9.39524e-06 -5.50519e-05 2.63314e-05 6.53458e-06)
(-6.99076e-06 -2.03576e-05 8.78888e-06 -5.77099e-05 2.71279e-05 6.68447e-06)
(-5.72058e-06 -1.86763e-05 7.92752e-06 -5.91275e-05 2.74096e-05 6.67019e-06)
(-4.68777e-06 -1.71139e-05 7.16853e-06 -6.05701e-05 2.78345e-05 6.69171e-06)
(-3.63068e-06 -1.54359e-05 6.40676e-06 -6.26131e-05 2.82153e-05 6.71892e-06)
(-2.3407e-06 -1.35029e-05 6.25215e-06 -6.83823e-05 2.96864e-05 7.6202e-06)
(-2.15207e-06 -1.13881e-05 4.24702e-06 -6.16618e-05 2.72766e-05 5.50672e-06)
(-1.40709e-06 -1.01639e-05 4.06212e-06 -6.56042e-05 2.97444e-05 6.55922e-06)
(-8.99677e-07 -8.11443e-06 2.99247e-06 -6.61287e-05 2.93686e-05 6.65334e-06)
(-4.1729e-07 -6.12362e-06 2.2693e-06 -6.78996e-05 2.97634e-05 6.78766e-06)
(3.62957e-07 -2.38899e-06 1.58091e-06 -7.28225e-05 3.09948e-05 8.37194e-06)
(-4.37421e-05 -2.61628e-06 1.80565e-05 2.18784e-07 9.6343e-07 4.95668e-06)
(-4.3294e-05 -5.02276e-06 1.79505e-05 -2.69647e-07 1.8871e-06 4.98708e-06)
(-4.27366e-05 -7.18236e-06 1.79311e-05 -9.07804e-07 2.86114e-06 5.0115e-06)
(-4.21769e-05 -9.29711e-06 1.7943e-05 -1.74192e-06 3.84784e-06 5.05881e-06)
(-4.14921e-05 -1.13847e-05 1.79516e-05 -2.81109e-06 4.85118e-06 5.12007e-06)
(-4.06443e-05 -1.33948e-05 1.79079e-05 -4.10184e-06 5.85104e-06 5.1939e-06)
(-3.96613e-05 -1.52896e-05 1.7824e-05 -5.5862e-06 6.84992e-06 5.27983e-06)
(-3.86099e-05 -1.70716e-05 1.77201e-05 -7.23266e-06 7.85223e-06 5.3793e-06)
(-3.75052e-05 -1.87845e-05 1.76171e-05 -9.08139e-06 8.87785e-06 5.49296e-06)
(-3.6255e-05 -2.03571e-05 1.74853e-05 -1.1095e-05 9.90466e-06 5.61545e-06)
(-3.49243e-05 -2.18095e-05 1.73529e-05 -1.32701e-05 1.09559e-05 5.74395e-06)
(-3.34915e-05 -2.31191e-05 1.72071e-05 -1.55949e-05 1.20273e-05 5.87532e-06)
(-3.19666e-05 -2.42728e-05 1.70437e-05 -1.80501e-05 1.31192e-05 6.00633e-06)
(-3.03536e-05 -2.52558e-05 1.6859e-05 -2.06144e-05 1.42323e-05 6.13244e-06)
(-2.86495e-05 -2.60484e-05 1.66482e-05 -2.32607e-05 1.53664e-05 6.24713e-06)
(-2.68403e-05 -2.66216e-05 1.64047e-05 -2.59491e-05 1.65179e-05 6.34058e-06)
(-2.48758e-05 -2.69345e-05 1.61296e-05 -2.86294e-05 1.76803e-05 6.40206e-06)
(-2.28723e-05 -2.68986e-05 1.59309e-05 -3.12855e-05 1.88633e-05 6.5145e-06)
(-2.19984e-05 -2.77612e-05 1.60242e-05 -3.49038e-05 2.15182e-05 6.59821e-06)
(2.93961e-06 -1.21947e-05 1.71436e-06 -3.86768e-06 1.56669e-06 -3.29545e-07)
(3.46334e-06 -1.17391e-05 1.83763e-06 -5.30639e-06 1.54422e-06 -1.06607e-07)
(4.00971e-06 -1.12419e-05 1.80763e-06 -6.59318e-06 1.67778e-06 9.46158e-08)
(4.75258e-06 -1.08385e-05 1.88349e-06 -7.94709e-06 1.70907e-06 3.51507e-07)
(5.11343e-06 -1.0495e-05 1.73664e-06 -9.02619e-06 1.81046e-06 4.7416e-07)
(5.53311e-06 -9.9917e-06 1.81529e-06 -1.00506e-05 1.97946e-06 6.80371e-07)
(6.09641e-06 -9.46378e-06 1.72228e-06 -1.11172e-05 2.04457e-06 7.9717e-07)
(6.43181e-06 -8.95384e-06 1.63906e-06 -1.20717e-05 2.19128e-06 9.67353e-07)
(6.8574e-06 -8.26935e-06 1.60571e-06 -1.30224e-05 2.3348e-06 1.15856e-06)
(7.26714e-06 -7.68353e-06 1.616e-06 -1.39235e-05 2.3973e-06 1.28631e-06)
(7.62525e-06 -6.97901e-06 1.55627e-06 -1.47739e-05 2.54939e-06 1.42699e-06)
(7.80763e-06 -6.16282e-06 1.46363e-06 -1.54809e-05 2.66051e-06 1.56959e-06)
(8.31062e-06 -5.08126e-06 1.43185e-06 -1.63041e-05 2.76356e-06 1.78213e-06)
(8.33738e-06 -4.57199e-06 1.332e-06 -1.7006e-05 2.85044e-06 1.95284e-06)
(8.65885e-06 -3.64091e-06 1.42832e-06 -1.73886e-05 2.92435e-06 1.96833e-06)
(8.69371e-06 -2.97629e-06 1.28042e-06 -1.77944e-05 2.87432e-06 2.06559e-06)
(8.58507e-06 -2.18025e-06 1.16336e-06 -1.78971e-05 2.98447e-06 2.1468e-06)
(8.35241e-06 -1.38816e-06 1.007e-06 -1.78481e-05 2.88713e-06 2.14353e-06)
(8.91429e-06 3.72086e-07 1.03891e-06 -1.84179e-05 2.26204e-06 1.29057e-06)
(-1.31411e-05 7.05253e-06 1.2006e-06 2.80672e-06 -5.14193e-08 1.16213e-06)
(-1.45444e-05 8.08213e-06 4.34861e-07 2.05032e-06 6.33739e-07 7.63798e-08)
(-1.62494e-05 8.18009e-06 1.98447e-07 2.61448e-06 5.10268e-07 1.73679e-07)
(-1.67902e-05 7.68033e-06 4.05148e-07 3.37899e-06 3.34515e-07 4.4902e-07)
(-1.72641e-05 7.25854e-06 4.36357e-07 3.96444e-06 2.55278e-07 6.26275e-07)
(-1.77035e-05 6.82508e-06 4.24983e-07 4.50078e-06 2.06395e-07 7.91032e-07)
(-1.81439e-05 6.26442e-06 3.80412e-07 4.89377e-06 2.07972e-07 8.12098e-07)
(-1.86541e-05 5.81966e-06 2.3405e-07 5.22163e-06 1.77624e-07 8.77019e-07)
(-1.91524e-05 5.42322e-06 1.10436e-07 5.53616e-06 1.48081e-07 9.79084e-07)
(-1.96008e-05 4.99248e-06 -6.7965e-09 5.81591e-06 1.24995e-07 1.07325e-06)
(-2.0011e-05 4.5273e-06 -1.23442e-07 6.06698e-06 1.02085e-07 1.15803e-06)
(-2.04e-05 4.03797e-06 -2.34945e-07 6.30114e-06 8.16458e-08 1.23352e-06)
(-2.07805e-05 3.53818e-06 -3.415e-07 6.51478e-06 6.26278e-08 1.30068e-06)
(-2.11611e-05 3.03145e-06 -4.47957e-07 6.70612e-06 3.64221e-08 1.3729e-06)
(-2.15485e-05 2.51715e-06 -5.4842e-07 6.88287e-06 2.74604e-09 1.45229e-06)
(-2.19555e-05 2.00388e-06 -6.31518e-07 7.05615e-06 -3.67973e-08 1.53811e-06)
(-2.24147e-05 1.50839e-06 -6.63766e-07 7.24595e-06 -8.55993e-08 1.63297e-06)
(-2.30475e-05 1.02589e-06 -4.67154e-07 7.51177e-06 -1.76223e-07 1.7579e-06)
(-2.30689e-05 5.80401e-07 -6.05629e-07 7.80969e-06 1.76333e-07 6.01373e-07)
(-2.56501e-05 2.43054e-07 -1.08778e-06 6.82545e-06 6.77552e-07 3.67876e-06)
(-2.12923e-05 4.53107e-07 -6.27695e-07 5.23569e-06 7.45289e-07 2.87577e-06)
(-1.88473e-05 5.9908e-07 -4.52585e-07 5.33521e-06 9.64359e-07 1.93716e-06)
(-1.68079e-05 6.79555e-07 -3.37744e-07 6.51411e-06 1.28486e-06 6.38001e-07)
(-1.48444e-05 6.85521e-07 3.13782e-08 9.29983e-06 1.66811e-06 -1.4297e-06)
(-1.25649e-05 7.36431e-07 -2.97007e-07 1.16369e-05 1.85112e-06 -1.91392e-06)
(-9.98878e-06 9.33625e-08 6.7932e-07 1.65629e-05 2.04597e-06 -5.78447e-06)
(-7.69887e-06 3.33814e-07 4.40373e-07 2.00943e-05 3.03237e-06 -9.34621e-06)
(-9.03359e-06 1.16336e-06 1.31536e-07 2.12431e-05 3.1786e-06 -9.22843e-06)
(-9.19434e-06 1.94002e-06 1.93993e-07 2.11783e-05 3.08835e-06 -9.14909e-06)
(-8.9623e-06 3.01101e-06 1.69907e-07 2.03653e-05 2.88377e-06 -8.87205e-06)
(-8.71425e-06 4.45636e-06 3.99728e-07 2.06897e-05 3.3424e-06 -9.16963e-06)
(-9.12502e-06 4.84118e-06 4.60336e-07 2.03601e-05 2.958e-06 -8.83411e-06)
(-8.82898e-06 5.81811e-06 5.16806e-07 1.95296e-05 2.90806e-06 -8.63569e-06)
(-8.5709e-06 6.71924e-06 5.73822e-07 1.87303e-05 2.82888e-06 -8.41093e-06)
(-8.28329e-06 7.48273e-06 5.62641e-07 1.78502e-05 2.73844e-06 -8.12461e-06)
(-8.05028e-06 8.0703e-06 6.24716e-07 1.70134e-05 2.64573e-06 -8.0794e-06)
(-7.55868e-06 8.64801e-06 5.56964e-07 1.56424e-05 2.31436e-06 -7.65487e-06)
(-6.45697e-06 9.71358e-06 8.2541e-07 1.45184e-05 2.50837e-06 -7.55341e-06)
(-6.39779e-06 1.04805e-05 6.98232e-07 1.37208e-05 2.27374e-06 -7.36743e-06)
(-6.12972e-06 1.10532e-05 7.35126e-07 1.26533e-05 2.10002e-06 -7.0373e-06)
(-5.42645e-06 1.16012e-05 8.27197e-07 1.14239e-05 2.10608e-06 -6.86145e-06)
(-4.71341e-06 1.22322e-05 9.07668e-07 1.03713e-05 2.07518e-06 -6.73265e-06)
(-4.16763e-06 1.25663e-05 8.74301e-07 8.9257e-06 1.87808e-06 -6.24088e-06)
(-3.12243e-06 1.3225e-05 9.78167e-07 7.26248e-06 1.99719e-06 -6.04989e-06)
(-2.78956e-06 1.39642e-05 9.26363e-07 6.02633e-06 1.75805e-06 -5.72998e-06)
(-4.49858e-06 1.36007e-05 3.21913e-07 4.51604e-08 1.07777e-06 -1.32921e-07)
(-5.48895e-06 1.27416e-05 7.05673e-07 -8.71963e-07 1.08662e-06 -9.56545e-07)
(-7.03546e-06 1.21381e-05 4.70169e-07 -1.75735e-06 8.17048e-07 1.00475e-06)
(-8.57541e-06 1.1894e-05 6.17584e-07 -1.50548e-06 5.89136e-07 6.93185e-07)
(-9.93671e-06 1.12145e-05 5.46072e-07 -1.16335e-06 3.46265e-07 1.82873e-06)
(-1.10714e-05 9.8007e-06 9.5611e-07 -1.55465e-08 -5.42581e-07 7.63826e-07)
(-1.20302e-05 7.73251e-06 7.08309e-07 1.68298e-06 -1.70179e-07 8.4482e-07)
(9.84459e-06 -4.17168e-06 3.79788e-06 -2.05582e-06 -1.62629e-06 -3.23169e-06)
(6.29033e-06 -2.41067e-06 5.42656e-06 -1.20954e-06 -2.30972e-06 -2.59526e-06)
(2.8471e-06 -8.21892e-07 6.29375e-06 -3.20108e-07 -2.52487e-06 -2.04869e-06)
(-5.64309e-07 6.54127e-07 6.41299e-06 6.75987e-07 -2.59991e-06 -1.47169e-06)
(-3.82548e-06 2.05184e-06 5.78064e-06 1.55857e-06 -2.22783e-06 -1.26682e-06)
(-7.34219e-06 3.68149e-06 5.03653e-06 1.88367e-06 -2.38688e-06 -3.5584e-07)
(-1.13685e-05 5.73851e-06 2.65036e-06 3.07079e-06 -1.2478e-06 8.64787e-07)
(1.50126e-05 9.14105e-08 1.08673e-06 -3.00864e-06 -1.02275e-08 -5.23583e-06)
(9.29797e-06 1.76837e-07 9.03135e-07 -1.26432e-06 -1.19872e-08 -4.24435e-06)
(3.90607e-06 2.16084e-07 8.80566e-07 6.2366e-07 7.69115e-08 -3.41521e-06)
(-1.3768e-06 2.40836e-07 8.90459e-07 2.58116e-06 1.17297e-07 -2.68716e-06)
(-6.71203e-06 2.99195e-07 9.21032e-07 4.51276e-06 4.13257e-08 -1.88325e-06)
(-1.23432e-05 3.94614e-07 8.70134e-07 6.27315e-06 -5.6697e-08 -6.29663e-07)
(-1.88033e-05 5.32787e-07 3.19366e-07 7.68711e-06 8.28616e-08 1.81746e-06)
(6.38832e-06 3.38468e-08 8.77681e-07 -1.40713e-05 6.80403e-06 2.1516e-06)
(4.45711e-06 -2.38076e-07 7.02828e-07 -9.30247e-06 1.03385e-05 7.70438e-07)
(2.44654e-06 -4.49402e-07 6.63093e-07 -3.99433e-06 1.23946e-05 -1.06011e-06)
(3.99612e-07 -6.00958e-07 6.78044e-07 1.49289e-06 1.28786e-05 -3.10887e-06)
(-1.6808e-06 -7.03261e-07 7.07998e-07 6.94234e-06 1.18413e-05 -5.14935e-06)
(-3.81655e-06 -7.14731e-07 7.56474e-07 1.21313e-05 9.33512e-06 -7.06488e-06)
(-6.09283e-06 -6.25109e-07 7.18085e-07 1.66157e-05 5.0927e-06 -8.39367e-06)
(1.03467e-06 -8.53826e-06 3.09836e-06 -2.06325e-06 4.29032e-06 5.77161e-07)
(6.17637e-07 -5.08945e-06 4.39183e-06 -1.30243e-06 6.35431e-06 -4.10071e-08)
(3.11212e-07 -1.61499e-06 5.11337e-06 -2.13197e-07 7.49474e-06 -9.51915e-07)
(3.12972e-08 1.89189e-06 5.21958e-06 9.93048e-07 7.70921e-06 -1.96383e-06)
(-2.81822e-07 5.38554e-06 4.71789e-06 2.09058e-06 7.0332e-06 -2.91173e-06)
(-7.28742e-07 8.88885e-06 3.58375e-06 2.92359e-06 5.45002e-06 -3.55532e-06)
(-1.44212e-06 1.24564e-05 1.84568e-06 3.33179e-06 2.90568e-06 -3.8086e-06)
(5.42097e-06 2.06005e-06 1.75844e-07 -1.4727e-05 -1.88274e-07 -1.09533e-06)
(5.55629e-06 2.23583e-06 6.31749e-07 -1.56866e-05 -4.95753e-07 7.03357e-07)
(5.27229e-06 2.94275e-06 9.19417e-07 -1.4367e-05 -3.9354e-07 -9.224e-07)
(6.13958e-06 4.02413e-06 1.24947e-06 -1.5181e-05 -6.52171e-07 4.41343e-07)
(6.17195e-06 4.50697e-06 1.63019e-06 -1.42379e-05 5.69235e-07 -5.1423e-07)
(6.48753e-06 5.59806e-06 1.41564e-06 -1.32812e-05 3.80675e-07 -2.5257e-06)
(6.79605e-06 7.29684e-06 1.0436e-06 -1.38656e-05 1.01754e-07 -3.20649e-07)
(6.80081e-06 7.77867e-06 1.59545e-06 -1.2352e-05 8.67396e-07 -1.27146e-06)
(6.73563e-06 8.34569e-06 1.19183e-06 -1.14782e-05 1.28966e-06 -2.19332e-06)
(6.19646e-06 9.20394e-06 1.09913e-06 -1.0672e-05 1.28668e-06 -2.33264e-06)
(5.66381e-06 1.02454e-05 1.04411e-06 -9.19082e-06 1.30072e-06 -2.53453e-06)
(5.22199e-06 1.10621e-05 9.42789e-07 -8.02586e-06 1.4785e-06 -2.92139e-06)
(4.77184e-06 1.18058e-05 8.36211e-07 -6.7799e-06 1.58533e-06 -3.32497e-06)
(3.98782e-06 1.20474e-05 9.04073e-07 -5.76165e-06 1.75537e-06 -3.50288e-06)
(3.10655e-06 1.25578e-05 8.81518e-07 -4.00357e-06 1.70569e-06 -3.67427e-06)
(2.55188e-06 1.31064e-05 7.99554e-07 -2.6202e-06 1.81848e-06 -4.11306e-06)
(1.80327e-06 1.32313e-05 8.85462e-07 -1.51087e-06 1.99764e-06 -4.33592e-06)
(8.03777e-07 1.35689e-05 9.7929e-07 2.47501e-07 1.9201e-06 -4.47368e-06)
(1.67736e-07 1.3979e-05 1.24815e-06 2.05343e-06 2.02697e-06 -6.56178e-06)
(-1.23644e-05 7.47062e-06 1.89034e-06 2.96452e-06 -6.27817e-07 -1.61938e-07)
(-1.16017e-05 8.1365e-06 2.65349e-06 3.06664e-06 -5.23767e-07 -2.14972e-06)
(-1.18606e-05 9.19923e-06 2.78591e-06 1.70974e-06 -2.81437e-07 -3.61493e-07)
(-1.14446e-05 9.91485e-06 2.97859e-06 1.42436e-06 -1.2208e-06 1.09121e-06)
(-1.0381e-05 1.00723e-05 3.48316e-06 1.77212e-06 -1.7928e-06 -1.09936e-07)
(-9.41354e-06 9.83649e-06 4.11355e-06 8.23294e-07 -9.81193e-07 -1.799e-06)
(-8.98406e-06 1.097e-05 3.72435e-06 -5.54318e-07 -1.7883e-06 7.42281e-07)
(-7.88977e-06 1.09299e-05 3.97683e-06 2.14017e-07 -2.49786e-06 -2.1043e-07)
(-7.0975e-06 1.12628e-05 4.11346e-06 -2.47246e-07 -2.81175e-06 -2.20741e-07)
(-6.18261e-06 1.13885e-05 3.80219e-06 -1.0787e-06 -3.20703e-06 -2.55111e-07)
(-5.06558e-06 1.17982e-05 3.9787e-06 -1.84348e-06 -3.53972e-06 -3.84942e-07)
(-3.90221e-06 1.23358e-05 3.78484e-06 -2.57531e-06 -3.9287e-06 3.59889e-08)
(-2.94812e-06 1.29852e-05 3.21981e-06 -3.69591e-06 -3.97252e-06 5.0442e-07)
(-1.77657e-06 1.22991e-05 2.12327e-06 -6.33118e-06 -3.90125e-06 2.92784e-07)
(4.96525e-07 1.40799e-05 1.76927e-06 -6.64745e-06 -4.39361e-06 4.66093e-08)
(2.62419e-06 1.41821e-05 1.33166e-06 -1.0278e-05 -4.05993e-06 5.00733e-07)
(4.53582e-06 1.28821e-05 2.93627e-07 -1.34184e-05 -3.13261e-06 7.33796e-07)
(5.94267e-06 8.5622e-06 -1.77385e-07 -1.6395e-05 -2.27589e-06 3.90564e-07)
(8.33341e-06 4.12953e-06 -4.94592e-07 -2.0433e-05 -2.82785e-06 -3.66968e-07)
(9.17067e-06 -2.99072e-07 -2.96879e-07 -2.56662e-05 -6.98557e-07 3.20984e-06)
(8.36318e-06 -3.74682e-07 -5.02808e-07 -2.42809e-05 -5.87202e-07 2.98944e-06)
(7.66558e-06 -4.33872e-07 -6.70619e-07 -2.30559e-05 -4.44242e-07 2.73858e-06)
(6.77644e-06 -4.1834e-07 -8.15548e-07 -2.17167e-05 -3.02715e-07 2.57788e-06)
(5.73724e-06 -3.55113e-07 -1.01273e-06 -2.01982e-05 -1.51811e-07 2.42228e-06)
(4.99039e-06 -2.4995e-07 -1.34793e-06 -1.85028e-05 1.06641e-07 1.68055e-06)
(4.58141e-06 -9.12371e-08 -2.68369e-07 -1.61234e-05 7.75037e-08 6.68506e-07)
(-3.23706e-06 1.3464e-07 1.58505e-06 1.01501e-05 9.18695e-07 -3.07536e-06)
(-2.35374e-06 1.40694e-07 3.05243e-06 6.43926e-06 8.37768e-07 -2.62946e-06)
(-1.2675e-06 1.08245e-07 4.00595e-06 2.38043e-06 7.83559e-07 -2.01978e-06)
(-5.39525e-08 9.10714e-08 4.2083e-06 -1.81061e-06 7.52046e-07 -1.4989e-06)
(1.2161e-06 1.08083e-07 3.82165e-06 -6.14954e-06 6.76166e-07 -9.08869e-07)
(3.07272e-06 -4.08338e-08 2.69697e-06 -1.0557e-05 5.3701e-07 -2.85949e-07)
(4.09261e-06 -1.4305e-07 1.2307e-06 -1.41219e-05 2.99207e-07 6.03227e-07)
(-4.57985e-06 3.96397e-07 3.22583e-07 1.54953e-05 4.35809e-07 -2.79824e-06)
(-2.28657e-06 3.35828e-07 5.18049e-07 8.3714e-06 -4.65027e-09 -1.74834e-06)
(-3.74327e-07 2.83629e-07 4.98428e-07 2.9715e-06 -7.24797e-08 -1.78633e-06)
(1.70873e-06 4.04916e-07 4.34528e-07 -2.20226e-06 1.28385e-07 -1.94251e-06)
(4.1047e-06 5.7243e-07 5.09249e-07 -8.05012e-06 1.74672e-07 -1.59895e-06)
(6.63475e-06 5.66805e-07 4.06042e-07 -1.507e-05 1.7579e-07 -5.76576e-07)
(8.6348e-06 2.93757e-07 2.63276e-07 -2.2084e-05 -2.68693e-07 1.78075e-06)
(4.90561e-06 4.83591e-09 5.43544e-07 -1.56203e-05 1.28047e-08 1.0687e-06)
(5.30282e-06 5.83287e-08 5.83014e-07 -1.50635e-05 1.04569e-07 8.90421e-07)
(6.16994e-06 1.08633e-07 7.091e-07 -1.47308e-05 2.37252e-07 5.58133e-07)
(7.37378e-06 2.03148e-07 7.75709e-07 -1.44246e-05 1.77137e-07 1.20188e-07)
(8.9687e-06 2.27905e-07 1.07481e-06 -1.39735e-05 4.24051e-07 -1.10418e-06)
(9.9682e-06 2.89567e-07 1.01631e-06 -1.34739e-05 2.35031e-07 -1.07447e-06)
(1.20315e-05 3.50276e-07 1.28101e-06 -1.2956e-05 5.96521e-07 -2.77447e-06)
(1.3275e-05 4.36856e-07 1.11759e-06 -1.2504e-05 3.53568e-07 -2.42587e-06)
(1.55154e-05 4.96684e-07 1.19663e-06 -1.12664e-05 6.27525e-07 -5.17799e-06)
(1.62886e-05 5.85217e-07 1.24194e-06 -1.03515e-05 5.29087e-07 -5.11525e-06)
(1.84494e-05 7.12282e-07 1.04397e-06 -9.83487e-06 5.35219e-07 -5.84089e-06)
(2.06478e-05 7.86296e-07 9.18147e-07 -9.08627e-06 5.39174e-07 -6.89795e-06)
(2.29226e-05 8.49238e-07 8.4806e-07 -8.24465e-06 5.57152e-07 -8.06776e-06)
(2.53488e-05 9.16858e-07 8.07606e-07 -7.36564e-06 5.93884e-07 -9.3171e-06)
(2.80189e-05 1.00371e-06 7.89352e-07 -6.49981e-06 6.77234e-07 -1.06393e-05)
(3.11134e-05 1.15675e-06 7.29796e-07 -5.77346e-06 9.24249e-07 -1.1996e-05)
(3.40568e-05 1.43093e-06 1.24244e-06 -4.30167e-06 6.30827e-07 -1.38606e-05)
(3.88436e-05 1.94026e-06 3.50309e-06 -3.13698e-06 1.10667e-06 -1.63479e-05)
(4.15657e-05 1.20246e-06 1.08539e-05 -2.58916e-06 1.04672e-06 -1.03855e-05)
(4.63745e-05 3.67839e-06 2.03269e-05 1.16146e-07 1.16321e-06 -6.37771e-07)
(4.39869e-05 5.68641e-06 2.04092e-05 5.49191e-07 2.35062e-06 -2.44705e-07)
(4.31714e-05 7.5384e-06 2.04306e-05 1.0619e-06 3.41208e-06 0)
(4.24935e-05 9.53618e-06 1.99749e-05 1.96687e-06 4.37874e-06 -6.28556e-07)
(4.18186e-05 1.16755e-05 2.01895e-05 2.99179e-06 5.58735e-06 0)
(4.06611e-05 1.33961e-05 1.98322e-05 4.20285e-06 6.51026e-06 -3.70158e-07)
(3.96307e-05 1.51978e-05 1.97015e-05 5.61785e-06 7.59787e-06 -3.69189e-07)
(3.84707e-05 1.68638e-05 1.95514e-05 7.17331e-06 8.68687e-06 -3.6594e-07)
(3.73587e-05 1.85151e-05 1.93987e-05 8.9406e-06 9.79228e-06 -3.64864e-07)
(3.6117e-05 2.00803e-05 1.92234e-05 1.09153e-05 1.09051e-05 -3.65467e-07)
(3.46819e-05 2.14684e-05 1.90113e-05 1.30333e-05 1.20144e-05 -3.65736e-07)
(3.3151e-05 2.26885e-05 1.87643e-05 1.52633e-05 1.31208e-05 -3.6558e-07)
(3.15424e-05 2.37386e-05 1.8488e-05 1.75897e-05 1.42275e-05 -3.65305e-07)
(2.98616e-05 2.4609e-05 1.81864e-05 1.99914e-05 1.53376e-05 -3.64969e-07)
(2.81084e-05 2.5285e-05 1.78638e-05 2.244e-05 1.64556e-05 -3.64442e-07)
(2.62648e-05 2.57365e-05 1.75271e-05 2.48936e-05 1.75908e-05 -3.63942e-07)
(2.4278e-05 2.58861e-05 1.718e-05 2.72603e-05 1.87542e-05 -3.65245e-07)