/*--------------------------------*- C++ -*----------------------------------*\
| =========                 |                                                 |
| \\      /  F ield         | OpenFOAM: The Open Source CFD Toolbox           |
|  \\    /   O peration     | Version:  v2012                                 |
|   \\  /    A nd           | Website:  www.openfoam.com                      |
|    \\/     M anipulation  |                                                 |
\*---------------------------------------------------------------------------*/
FoamFile
{
    version     2.0;
    format      ascii;
    class       volScalarField;
    location    "1";
    object      sigmaHyd;
}
// * * * * * * * * * * * * * * * * * * * * * * * * * * * * * * * * * * * * * //

dimensions      [1 -1 -2 0 0 0 0];


internalField   nonuniform List<scalar> 
53760
(
-1.63113e+06
-560851
-245472
-663469
-225822
-1.37321e+06
-308251
112345
-926266
51370.2
430556
-612627
364825
737881
-264592
685748
1.1899e+06
235504
841071
1.5282e+06
305917
1.38885e+06
1.4782e+06
872084
-916361
-858495
-1.97266e+06
-854674
-562384
987183
-539735
-94829.5
1.5426e+06
-222193
277825
1.91847e+06
194973
665417
2.16464e+06
562853
1.25592e+06
1.32158e+06
1.06783e+06
1.42256e+06
1.76441e+06
1.13237e+06
1.76858e+06
2.13023e+06
-988003
-818792
-260108
-792421
-553791
-1.1914e+06
-640271
-94065.1
-902804
-182121
185172
-660616
10037.4
559213
-249090
355275
859801
87703.1
862770
1.1809e+06
1.4431e+06
969918
1.67095e+06
865951
-1.52719e+06
-1.15403e+06
-1.7531e+06
-1.1328e+06
-666131
298141
-671469
-244825
-5873.9
-332880
276147
439454
188602
532408
767105
377360
903146
1.32564e+06
906114
1.39544e+06
605299
1.15165e+06
1.51398e+06
1.76219e+06
-1.30222e+06
-1.00557e+06
-374919
-984344
-457532
-1.62002e+06
-462869
-271763
133472
-219877
275118
-1.07172e+06
341302
458794
874597
364337
867259
1.19416e+06
757793
1.30069e+06
1.76094e+06
1.0569e+06
1.36935e+06
1.96326e+06
-1.46783e+06
-1.00444e+06
-1.79123e+06
-1.05227e+06
-657270
-307063
-713843
-132013
-1.45338e+06
-217463
-52353.1
504360
31596.6
661197
-802324
563219
1.1308e+06
-384161
963708
1.35607e+06
500492
1.26155e+06
1.70237e+06
920945
-1.28207e+06
-883708
-349164
-931533
-547178
43259
-661144
-116936
610447
-202386
75987.6
1.0588e+06
-14311.9
561459
1.354e+06
463481
1.04132e+06
1.72584e+06
874230
1.37014e+06
1.54259e+06
1.09979e+06
1.61307e+06
1.73045e+06
-1.32329e+06
-787534
-1.59091e+06
-852868
-445796
-1.29076e+06
-457802
-41693.4
-1.15336e+06
-109648
270649
-842650
227688
608816
-590061
554536
916387
-195902
844690
1.39093e+06
217298
1.21398e+06
1.64574e+06
759386
-1.10599e+06
-611425
-347372
-676760
-365651
-13966.8
-397730
-12363.1
598194
-80317.4
216656
994234
173695
516645
1.32045e+06
462365
762783
1.61264e+06
691086
1.21623e+06
1.68479e+06
1.03928e+06
1.46706e+06
1.83498e+06
-1.1756e+06
-727189
-1.37539e+06
-754256
-258758
-1.19598e+06
-359198
-58878.1
-929979
-52412.8
242189
-702985
245479
549433
-462973
526283
874746
-147191
804591
1.13256e+06
254537
1.0948e+06
1.39487e+06
693482
-922516
-536907
-206867
-563975
-122911
180772
-223351
-6312.25
622874
153.115
210732
920843
214022
457540
1.16707e+06
434390
753597
1.34877e+06
683442
1.18979e+06
1.31894e+06
870327
1.34869e+06
1.40164e+06
-967819
-506248
-1.11952e+06
-551942
-261658
-899594
-229461
-14064.2
-749429
38948.6
223860
-582589
283106
448020
-391260
509349
651488
-157128
724605
1.09198e+06
86901.1
953326
1.25897e+06
492802
-603650
-198969
-121488
-244663
-150193
401651
-16888.5
43690.2
623981
144813
237096
786064
285947
433287
910484
407825
597397
979734
469951
823192
1.2747e+06
684539
957648
1.35245e+06
-800040
-439400
-830210
-367784
-109473
-736050
-86675.7
61897.9
-655915
125452
220830
-560253
298596
391140
-443277
448170
603166
-280124
586193
727471
11710.5
759419
944063
353495
-254031
-121970
428209
-12948
31556.9
708782
151822
146405
824794
250511
259239
899627
308627
382869
955575
343006
554110
1.02654e+06
388886
705257
976404
398002
837197
930406
-9960.41
70260.1
-574863
179283
132060
-456935
252325
166962
-399369
271068
203497
-351334
252884
253892
-296999
214030
325671
-223310
160447
417735
-120913
110480
458358
19254.1
-1.49473e+06
-751017
-1.86984e+06
-1.14527e+06
-968694
-531203
-849517
-483272
-97503.9
-569519
-140425
261146
-180599
322640
635874
231646
943717
2.15201e+06
755625
1.14572e+06
77025.2
912685
1.70859e+06
1.79262e+06
-1.21334e+06
-481187
-214051
-684430
-155892
-1.78619e+06
-120640
319014
-1.6802e+06
194217
596495
-1.42323e+06
539559
963458
-1.06331e+06
829219
1.08668e+06
-546312
1.03899e+06
1.33943e+06
1.84658e+06
1.19011e+06
1.90751e+06
836161
-1.37154e+06
-647112
-403836
-833212
-323113
-36887.3
-342287
75782.3
1.31018e+06
-49014.6
329371
1.5135e+06
272436
676294
1.99364e+06
542055
855294
2.09808e+06
807605
1.20294e+06
1.54995e+06
1.01722e+06
1.7334e+06
2.15892e+06
-1.52717e+06
-891771
-1.72866e+06
-1.09068e+06
-506409
-1.93432e+06
-567102
-46687.3
-1.48955e+06
-197286
134483
-1.20845e+06
184689
696563
-801184
589527
1.02676e+06
-329953
904381
1.64838e+06
227714
1.38427e+06
1.97875e+06
999344
-1.36876e+06
-778872
-421259
-977784
-404115
339389
-464808
49589.6
874527
-101009
133624
1.42426e+06
183830
688892
1.61063e+06
581857
939767
1.99076e+06
817392
1.53515e+06
2.04041e+06
1.27104e+06
1.90047e+06
2.26172e+06
-1.45096e+06
-837232
-1.66154e+06
-1.01539e+06
-461010
-1.60714e+06
-547989
-98182.9
-1.2774e+06
-202872
260834
-1.07392e+06
231161
650449
-608812
541934
1.00652e+06
-231537
901218
1.42297e+06
349218
1.25767e+06
1.81594e+06
943613
-1.27896e+06
-706953
-415678
-885109
-320327
156255
-407306
-33488
731692
-138177
296012
1.09004e+06
266339
609370
1.50221e+06
500855
913458
1.72323e+06
808157
1.28726e+06
1.95625e+06
1.12196e+06
1.65577e+06
2.1327e+06
-1.29515e+06
-715104
-1.46883e+06
-883690
-406552
-1.31718e+06
-485105
-85364.3
-1.08459e+06
-121961
253866
-825988
226340
590004
-502491
543478
939868
-141637
862577
1.33388e+06
312884
1.18913e+06
1.73133e+06
826951
-1.08663e+06
-550084
-336363
-718671
-299218
175389
-377771
-34872.9
576675
-71469.9
251135
944779
223609
519065
1.27298e+06
472539
813331
1.52463e+06
736040
1.17004e+06
1.74434e+06
1.0253e+06
1.54009e+06
1.94987e+06
-1.12471e+06
-597249
-1.25188e+06
-749404
-328821
-1.10956e+06
-381611
-59287.4
-895562
-59469.2
225939
-668450
240194
518049
-410081
522417
830195
-104556
800775
1.17517e+06
273080
1.0838e+06
1.5484e+06
714307
-862849
-385823
-225717
-537977
-169143
198199
-221933
26265.6
574010
26083.8
232354
884180
246609
443419
1.14719e+06
447787
679914
1.36992e+06
650494
932025
1.58522e+06
840649
1.24961e+06
1.71037e+06
-887765
-427181
-978516
-554845
-232985
-870665
-240299
-28095.8
-720092
28858.9
193499
-557657
269543
424828
-369353
492573
681370
-138541
709514
993622
154878
940279
1.32951e+06
539320
-539812
-127793
-99423.4
-255458
-40028.8
342588
-47342.3
54656.3
644565
111611
168056
876271
244100
294046
1.05695e+06
361792
447496
1.19145e+06
475640
682505
1.25885e+06
629163
939095
1.3333e+06
-646123
-280742
-647069
-343725
-133876
-640190
-74858.9
19771.4
-575305
125539
169820
-495996
288627
326268
-388707
428683
501046
-234815
561786
696160
-2954.95
697480
947914
313061
-112609
-2027.66
570692
36275.9
54977.7
699370
171278
129156
791046
246815
213948
847191
277153
311735
872772
290115
442798
890679
296853
602870
894300
284866
790549
890508
121963
193509
-449583
231813
165037
-428734
281338
164961
-381698
282621
185870
-338272
249074
220359
-305079
198739
275030
-245657
129085
364288
-163246
46284.3
474073
-48712.2
-1.59382e+06
-857602
-1.95289e+06
-1.06084e+06
-286188
-1.42543e+06
-550306
88833.5
-1.01869e+06
-83125.3
472079
-594884
356926
933463
-192604
792718
1.54919e+06
235892
1.34911e+06
1.50332e+06
702922
1.35399e+06
2.52256e+06
903980
-1.36621e+06
-626251
-362798
-857305
-374292
-113537
-597727
-48582.6
295329
-215564
248458
636655
118608
593730
1.01943e+06
461050
918510
1.35484e+06
756391
1.32246e+06
1.81738e+06
1.12516e+06
1.7196e+06
2.08995e+06
-1.56911e+06
-837442
-621126
-1.02376e+06
-649010
302313
-774505
-312094
725522
-376707
32292.8
1.17321e+06
-37037.4
416451
1.52754e+06
312538
779133
1.81088e+06
644001
1.30077e+06
2.04885e+06
1.12804e+06
1.77207e+06
2.19976e+06
-1.5537e+06
-868020
-1.68883e+06
-1.06895e+06
-503804
-1.658e+06
-629469
-111634
-1.41453e+06
-188302
262779
-1.08611e+06
199096
675299
-688117
592280
1.09294e+06
-214424
957261
1.59006e+06
362762
1.35534e+06
2.06708e+06
1.13439e+06
-1.45384e+06
-791107
-562293
-992035
-474221
178246
-599886
-118097
685213
-194765
209427
1.16893e+06
145744
580975
1.50551e+06
497956
966460
1.81359e+06
830783
1.45389e+06
2.05108e+06
1.21916e+06
1.91865e+06
2.24518e+06
-1.46432e+06
-816093
-1.59404e+06
-1.00646e+06
-460468
-1.4856e+06
-575597
-106589
-1.23325e+06
-170768
268206
-931717
206713
643533
-553376
573221
1.04065e+06
-120550
916199
1.46267e+06
384034
1.2682e+06
1.90851e+06
996843
-1.31156e+06
-699120
-511257
-889484
-379454
90800.4
-494583
-66936
582675
-131115
257072
1.01967e+06
195579
583416
1.36887e+06
513104
936002
1.67107e+06
811547
1.32991e+06
1.91152e+06
1.13545e+06
1.75798e+06
2.13042e+06
-1.29384e+06
-698212
-1.3974e+06
-870170
-381686
-1.24135e+06
-474909
-67279
-1.01411e+06
-109138
258983
-755619
232751
594904
-443085
556078
956975
-72418
873605
1.34949e+06
367169
1.19197e+06
1.77475e+06
879448
-1.09373e+06
-540454
-406456
-712412
-275478
107882
-368701
-20153
526128
-62011.6
245725
890698
219493
520622
1.20619e+06
481796
824799
1.48165e+06
741429
1.17067e+06
1.71608e+06
1.01315e+06
1.56727e+06
1.93886e+06
-1.10949e+06
-582702
-1.18161e+06
-730992
-317575
-1.03464e+06
-378349
-55010.7
-839226
-55104.3
224236
-614824
244201
518314
-355607
526965
838084
-53392.7
805474
1.19024e+06
314836
1.07943e+06
1.58165e+06
741458
-833467
-361204
-267974
-509494
-163079
167195
-223853
23356.4
524067
23262.8
220733
830863
240698
430206
1.09167e+06
438857
668084
1.31671e+06
635474
946883
1.50936e+06
836066
1.28733e+06
1.68325e+06
-846640
-413450
-899357
-527292
-216374
-801119
-229923
-19426.1
-669276
32320.2
191059
-515861
267772
418313
-332667
486364
673100
-108785
700468
968043
181796
915749
1.31474e+06
542208
-498531
-112320
-113580
-226162
-9182.74
294445
-22731.1
80483.5
595096
132230
183536
821287
260249
304551
996392
372602
456911
1.12945e+06
484279
656379
1.21916e+06
604085
917378
1.28402e+06
-581240
-245689
-560281
-289196
-108286
-544921
-56138.9
16926.9
-509992
132142
148482
-447475
283443
289749
-354313
412597
450095
-218969
532526
643189
-12850.3
651704
893049
277661
-22084.9
56054.5
633249
114525
79131.1
747189
197777
125040
796921
246322
190945
821542
267202
270632
834174
260391
376570
830465
246089
523811
825122
214400
711634
815494
223951
261059
-359009
319530
223222
-344338
341867
199123
-333893
320404
191573
-310856
267829
198649
-286790
188408
223856
-264863
93375.1
290330
-195968
-19081
383982
-111703
-1.62526e+06
-828633
-1.99296e+06
-1.05969e+06
-332955
-1.48245e+06
-556390
53488
-1.05107e+06
-113493
445456
-631033
315607
886648
-229350
753968
1.38471e+06
185892
1.22259e+06
1.58893e+06
613473
1.39163e+06
2.36851e+06
912307
-1.45874e+06
-704503
-422324
-945600
-374409
-55454.5
-590159
-60329
321638
-223658
265103
668811
128950
616919
1.04803e+06
482566
965827
1.42044e+06
806661
1.37422e+06
1.85791e+06
1.15045e+06
1.84105e+06
2.23544e+06
-1.6807e+06
-907087
-764488
-1.11869e+06
-569453
86598.8
-695943
-185956
692502
-288601
176597
1.18176e+06
86636.2
575838
1.5671e+06
464425
988504
1.88591e+06
832730
1.49796e+06
2.15122e+06
1.2679e+06
2.05812e+06
2.29433e+06
-1.59032e+06
-877246
-1.67255e+06
-1.092e+06
-508817
-1.56043e+06
-643833
-116273
-1.32737e+06
-211740
275271
-1.00814e+06
188737
680279
-614059
582628
1.10236e+06
-141961
971178
1.58619e+06
431529
1.34682e+06
2.10357e+06
1.20462e+06
-1.52718e+06
-824174
-685272
-1.03893e+06
-485195
39661.5
-620212
-124667
596292
-220134
231777
1.06425e+06
145243
605518
1.43496e+06
507867
1.00219e+06
1.75681e+06
871011
1.47922e+06
2.05077e+06
1.23985e+06
1.98363e+06
2.26076e+06
-1.48418e+06
-821121
-1.55729e+06
-1.01374e+06
-465983
-1.41362e+06
-585490
-107832
-1.17775e+06
-182600
256119
-875858
200981
651690
-488087
573927
1.0686e+06
-36270.2
947217
1.48776e+06
442098
1.28292e+06
1.94991e+06
1.03846e+06
-1.34146e+06
-712567
-601485
-905181
-398242
2100.71
-517750
-81713.8
499050
-156482
236910
932310
181771
584351
1.30863e+06
506587
961956
1.63033e+06
840573
1.35918e+06
1.8908e+06
1.15433e+06
1.80488e+06
2.12083e+06
-1.29689e+06
-685378
-1.33118e+06
-854446
-362421
-1.15838e+06
-455450
-43696.5
-938761
-87656.5
281884
-679973
255360
616279
-382502
572720
974522
-26802.8
893598
1.36151e+06
420163
1.19711e+06
1.79304e+06
920065
-1.10753e+06
-539087
-465239
-708155
-271105
49139.8
-364135
-12075.2
473737
-56035.2
251661
839872
225138
528245
1.15569e+06
484686
834710
1.43746e+06
753786
1.17608e+06
1.67873e+06
1.01168e+06
1.57691e+06
1.91262e+06
-1.09924e+06
-575048
-1.13372e+06
-715813
-312928
-974090
-369901
-49921.2
-784378
-51642.5
224471
-564905
244386
517081
-308028
526433
839542
-12114.7
808223
1.19316e+06
360008
1.0743e+06
1.58674e+06
766528
-816583
-348203
-296076
-488968
-155514
128081
-212486
28339.5
483455
26618.2
219457
785650
239373
427348
1.04459e+06
436700
664598
1.27182e+06
633280
941351
1.46293e+06
822491
1.28835e+06
1.65264e+06
-818542
-400035
-844802
-502885
-210688
-741482
-218584
-17952.8
-621266
35403.9
184987
-478812
264153
406015
-304783
477651
656209
-88346.7
685791
945087
197414
891076
1.29137e+06
531537
-457326
-88825.2
-112671
-191675
9739.13
269609
1843.57
97799.7
560862
151156
193918
784928
273084
307793
955356
379428
450646
1.08682e+06
480229
640464
1.18042e+06
586453
895723
1.24942e+06
-530767
-217482
-494109
-246430
-97751
-479771
-34630
11725
-461531
132763
123857
-421661
268462
247820
-347127
384857
400584
-223436
493548
588708
-36733.1
603018
832119
230297
44859.8
97471.3
683909
169768
106709
777619
248952
143382
827320
281887
198477
838843
291338
272595
836113
276972
363096
824750
230376
499718
797438
180537
671043
772856
317362
306045
-294059
378341
242499
-318975
384741
205366
-316846
343871
179615
-316217
272476
165563
-298717
169939
192571
-259938
59851.4
241504
-218946
-77676.1
322502
-169552
-1.64808e+06
-824699
-2.01595e+06
-1.0658e+06
-360701
-1.50917e+06
-576451
29560.1
-1.06962e+06
-133769
424819
-649752
288667
850941
-246502
716588
1.30036e+06
161206
1.14119e+06
1.62296e+06
559962
1.39919e+06
2.28742e+06
924706
-1.51837e+06
-756508
-464957
-1.00219e+06
-389562
-43234.1
-604477
-59452.1
331026
-223269
280211
692683
141220
644464
1.07612e+06
499434
1.00128e+06
1.4527e+06
826725
1.42806e+06
1.90194e+06
1.1903e+06
1.94573e+06
2.33938e+06
-1.74946e+06
-946354
-862434
-1.17833e+06
-549822
-33657.3
-688527
-139897
618101
-251798
251295
1.13541e+06
146997
663255
1.55395e+06
535502
1.0901e+06
1.8897e+06
915774
1.62183e+06
2.20816e+06
1.36514e+06
2.23543e+06
2.37882e+06
-1.6238e+06
-899424
-1.67181e+06
-1.12914e+06
-517867
-1.51865e+06
-666640
-124515
-1.26728e+06
-232786
277962
-936206
185278
714390
-517776
551747
1.09723e+06
-92088.6
992702
1.55856e+06
419646
1.38793e+06
2.1404e+06
1.24744e+06
-1.58807e+06
-861934
-785444
-1.09165e+06
-494481
-60079.9
-643254
-122435
522588
-230706
253191
1.00716e+06
160507
667871
1.41199e+06
505227
1.0443e+06
1.70024e+06
939770
1.50157e+06
2.04305e+06
1.33094e+06
2.06799e+06
2.31536e+06
-1.51746e+06
-853970
-1.5587e+06
-1.02118e+06
-486828
-1.39628e+06
-608755
-127149
-1.15622e+06
-210957
237436
-856788
165248
615238
-493983
522445
1.08715e+06
19720.8
1.0276e+06
1.52576e+06
548078
1.31511e+06
1.96393e+06
1.09034e+06
-1.3719e+06
-727347
-692259
-894561
-399076
-73325.1
-521003
-78257
439099
-162066
244778
877470
172590
578303
1.25867e+06
485510
985438
1.62016e+06
925884
1.40742e+06
1.90037e+06
1.19677e+06
1.82554e+06
2.1016e+06
-1.33667e+06
-662138
-1.26227e+06
-815788
-324322
-1.04143e+06
-413670
-1671.54
-847538
-46730.5
324859
-595359
297229
664479
-301486
631702
1.00577e+06
-7877.41
943876
1.37114e+06
501119
1.18115e+06
1.79443e+06
975572
-1.14035e+06
-542929
-509677
-696579
-267059
3006.98
-356407
-6119.03
427443
-51178
259071
794397
231442
540812
1.11394e+06
508034
843674
1.39829e+06
781783
1.16581e+06
1.62048e+06
975828
1.58316e+06
1.88447e+06
-1.0725e+06
-564887
-1.11158e+06
-695692
-310944
-919000
-362151
-47673.4
-734090
-47993
225398
-519794
246750
515881
-267062
527884
826946
31676.3
790110
1.18595e+06
430563
1.05573e+06
1.59717e+06
764696
-792315
-337400
-313379
-468206
-151808
93015.3
-203015
29553.9
443645
29234.2
216483
744187
237835
421297
1.00249e+06
433300
653642
1.22761e+06
616806
938133
1.42505e+06
807912
1.28836e+06
1.6361e+06
-788410
-390982
-796374
-485395
-208620
-687969
-210237
-18660.2
-577271
37995
180622
-443620
262837
397271
-277439
471076
641675
-67087
669851
933818
202948
877633
1.28051e+06
519771
-415344
-66392.7
-106318
-160805
21413.6
256803
19796.2
103241
536444
159896
190995
753410
273210
297786
920011
371590
436886
1.04672e+06
465062
619812
1.14202e+06
563626
867927
1.21903e+06
-484241
-188638
-431136
-209649
-74860.9
-415886
-3732.05
28917.4
-405114
157172
133737
-374767
286641
250041
-312759
395142
391850
-204029
487225
568167
-37398.6
587966
807948
211493
105174
119634
733553
214904
111929
814476
260819
124377
832750
272246
154963
822633
252108
209972
789242
213794
310109
748667
180403
448273
735082
108012
593601
693267
384378
356401
-233804
451672
285189
-265572
434079
225182
-292108
373051
182658
-307061
279803
158136
-311998
161958
164082
-291857
34375.4
224115
-261029
-116146
301971
-209536
-1.67033e+06
-832315
-2.03411e+06
-1.078e+06
-381988
-1.52345e+06
-596903
9271.17
-1.08042e+06
-154546
406301
-658720
267310
827020
-251429
681989
1.25655e+06
151770
1.082e+06
1.63065e+06
533687
1.39289e+06
2.23359e+06
938748
-1.56642e+06
-794791
-499074
-1.04422e+06
-402642
-45274.7
-617707
-54934.1
335916
-217534
300780
711620
165397
660354
1.08595e+06
514591
1.00512e+06
1.44123e+06
773164
1.50009e+06
1.95614e+06
1.23601e+06
2.06089e+06
2.44272e+06
-1.79963e+06
-975637
-928549
-1.22383e+06
-547334
-122188
-697497
-119965
540754
-234493
294565
1.06892e+06
189743
709780
1.48166e+06
578643
1.10406e+06
1.815e+06
880386
1.69342e+06
2.31042e+06
1.40944e+06
2.36919e+06
2.49751e+06
-1.65843e+06
-935325
-1.69502e+06
-1.18759e+06
-522388
-1.48736e+06
-692560
-125901
-1.21046e+06
-247496
279766
-862528
169694
711552
-421442
594028
1.29925e+06
220220
1.16061e+06
1.68494e+06
928577
1.4926e+06
2.04493e+06
1.3975e+06
-1.63758e+06
-926466
-877118
-1.17873e+06
-519291
-117509
-689463
-138903
452209
-260498
244743
942686
134671
652948
1.36367e+06
535424
1.23786e+06
1.76465e+06
1.26433e+06
1.63484e+06
957749
1.54894e+06
1.99961e+06
1.42462e+06
-1.49747e+06
-749542
-1.40909e+06
-842991
-369482
-1.12532e+06
-424545
32189.9
-766651
-38601.6
409753
-395529
320397
779393
-18576.3
664225
1.03324e+06
356692
959352
1.34479e+06
1.58047e+06
1.2567e+06
1.66328e+06
2.08701e+06
-1.3647e+06
-626802
-720370
-856317
-274995
-969335
-415994
92435.7
-648999
-11178.1
430792
-319660
370513
761718
16860.2
735133
1.00513e+06
353285
964872
1.30778e+06
680062
1.20584e+06
1.82878e+06
2.02252e+06
-1.35628e+06
-784455
-1.34614e+06
-982803
-512593
-269370
-650111
-204057
80122.3
-299629
95890.5
431926
43690.6
409082
786212
380443
780240
1.14138e+06
711591
1.10133e+06
1.61049e+06
1.12215e+06
1.81223e+06
1.06912e+06
-1.13955e+06
-616244
-575560
-814592
-413834
-181412
-519089
-170454
215750
-219175
97189.3
585713
68006.1
391759
921012
347092
717458
1.2245e+06
607171
1.15979e+06
1.51629e+06
966976
1.58566e+06
1.86782e+06
-1.08687e+06
-581651
-1.06991e+06
-717627
-306354
-859516
-361688
-34135.1
-678030
-38225.7
242299
-467362
259443
535458
-222269
538757
858622
72099
809774
1.22344e+06
399932
1.09059e+06
1.61755e+06
793074
-787552
-349549
-344720
-485525
-168876
36544
-224210
12147.3
386854
8056.67
197963
689234
215107
403042
951930
406341
641263
1.18378e+06
592415
938266
1.40125e+06
805421
1.2809e+06
1.62616e+06
-772968
-380800
-753368
-471728
-195289
-639654
-193726
-7414.98
-534257
52395.3
188168
-406041
273131
401386
-249023
476663
643829
-51151.5
672857
928709
195782
876149
1.26178e+06
506169
-379418
-43083.7
-100169
-134012
37821.1
244392
39384.2
110522
515631
170332
189232
726269
274195
287391
890596
362667
419763
1.01828e+06
448792
597230
1.11247e+06
544669
831891
1.18618e+06
-457524
-174571
-388903
-188541
-75219.7
-379439
7472.57
17054.2
-379344
155523
110495
-363244
272481
217200
-317856
370472
351918
-226618
457339
523703
-70319.9
554261
757851
172921
177623
180385
799907
292272
155543
877542
338735
163615
895825
336507
187601
874349
300683
230950
829867
243319
312023
773949
187004
427037
729025
83291.9
550550
650976
468260
393199
-181851
505086
292557
-241060
475750
221205
-272998
394097
168303
-307062
281386
133085
-336110
145454
138297
-332117
13277.5
190564
-255087
-153181
246285
-217955
-1.69142e+06
-846184
-2.05224e+06
-1.09561e+06
-402150
-1.52995e+06
-617215
-9474.11
-1.08552e+06
-172074
390148
-663931
254765
812652
-256126
666890
1.23821e+06
147561
1.00626e+06
1.62658e+06
576138
1.36249e+06
2.18629e+06
983977
-1.63008e+06
-811683
-511228
-1.06429e+06
-407941
-51972.6
-621809
-48183.9
337447
-214079
322526
730983
175591
718555
1.14552e+06
555574
1.17083e+06
1.60514e+06
977332
1.51881e+06
1.87301e+06
1.26573e+06
1.9399e+06
2.25698e+06
-1.86558e+06
-986003
-951686
-1.25149e+06
-545645
-220447
-702519
-104315
462426
-224462
335048
1.0083e+06
215004
799521
1.44423e+06
646575
1.35422e+06
1.75127e+06
1.15533e+06
1.66936e+06
1.96104e+06
1.47905e+06
2.09499e+06
2.361e+06
-1.64451e+06
-827030
-1.62913e+06
-1.08482e+06
-477280
-1.38022e+06
-619280
-80079.3
-1.10045e+06
-182706
324730
-756476
226995
735030
-344600
620491
1.1092e+06
135669
925193
1.57572e+06
533202
1.36418e+06
2.01223e+06
1.32265e+06
-1.63321e+06
-785000
-887923
-1.04279e+06
-546277
-232212
-584475
-98509.2
212544
-162051
317109
628788
229180
728101
1.02201e+06
600514
1.06968e+06
1.35069e+06
838734
1.50512e+06
1.84607e+06
1.29359e+06
1.90596e+06
2.34402e+06
-1.55381e+06
-838588
-1.49784e+06
-1.08064e+06
-536152
-1.3248e+06
-622575
-119887
-1.05537e+06
-202248
270423
-742245
192624
665791
-383809
568086
1.14584e+06
8503.52
960413
1.46591e+06
570897
1.31663e+06
2.09678e+06
1.14752e+06
-1.42577e+06
-753643
-764754
-995694
-512927
-146963
-599349
-142627
317663
-224988
204367
748172
126569
561563
1.13209e+06
463858
1.0344e+06
1.47488e+06
848978
1.34056e+06
1.8431e+06
1.19127e+06
2.02876e+06
2.05864e+06
-1.36067e+06
-745854
-1.32571e+06
-924868
-399684
-1.14658e+06
-489621
-60055.2
-872223
-118016
273964
-591234
232112
626472
-271685
565073
1.00897e+06
100343
891472
1.41463e+06
513067
1.22141e+06
1.83358e+06
1.0372e+06
-1.13747e+06
-575933
-596925
-754947
-261415
-120497
-351353
31297.8
356353
-26663
310275
751776
268423
605776
1.09946e+06
544377
936178
1.41021e+06
818684
1.29096e+06
1.7009e+06
1.09774e+06
1.6656e+06
1.9569e+06
-1.09245e+06
-578887
-1.046e+06
-713212
-308043
-859840
-363203
-45189.5
-665428
-47026.2
228691
-458337
247204
521140
-218390
524609
841778
63695.7
795461
1.19472e+06
392725
1.06905e+06
1.58284e+06
791334
-771773
-327707
-352198
-462032
-131784
36499.9
-186944
44649.4
390296
42812.7
228113
693334
246626
429989
957981
433458
663672
1.1935e+06
617355
937299
1.40995e+06
811634
1.25843e+06
1.61588e+06
-758135
-369389
-720177
-456292
-189746
-611923
-182924
-6852.74
-502780
59027.8
186162
-380361
276132
397555
-230265
476449
637912
-42276.4
670937
914933
195033
868721
1.24306e+06
500506
-345071
-16331.5
-89379.4
-103234
57547.8
247643
64370.1
120637
509613
186518
190852
712654
280822
279288
871226
358182
400650
995093
433674
568310
1.08573e+06
522098
795938
1.15499e+06
-420208
-147100
-338444
-153507
-52102.8
-329805
40063.2
35673
-331348
184615
125194
-320646
295002
227292
-283595
387204
357647
-203910
473835
521225
-63756
558792
739853
161088
238563
205764
856504
331937
163691
913161
351376
149226
902916
329131
153319
859984
272390
173363
796510
186041
231594
714520
80047.5
338680
613976
117.816
478115
550799
538302
446769
-125256
572942
334077
-193369
521762
244447
-245123
424352
176780
-287193
295851
126471
-322177
139149
113017
-340760
-38530
129929
-328652
-208633
180434
-287292
-1.71924e+06
-862034
-2.05643e+06
-1.11464e+06
-420117
-1.53016e+06
-633985
-23546.7
-1.08669e+06
-189442
378331
-662901
231395
793429
-251458
630448
1.20809e+06
153901
1.0146e+06
1.64253e+06
574612
1.38944e+06
2.21723e+06
1.01093e+06
-1.64648e+06
-831075
-545855
-1.07964e+06
-428651
-82082.5
-641690
-59266.8
320317
-227909
319892
719635
169543
717442
1.12654e+06
555939
1.12688e+06
1.53053e+06
933296
1.52364e+06
1.89519e+06
1.26316e+06
2.00365e+06
2.32553e+06
-1.87918e+06
-999593
-1.02228e+06
-1.26539e+06
-560174
-242075
-717380
-101863
420150
-227437
346878
970144
223604
805272
1.4241e+06
660758
1.28318e+06
1.80279e+06
1.10016e+06
1.74131e+06
2.15717e+06
1.48698e+06
2.31639e+06
2.34751e+06
-1.65486e+06
-875951
-1.62845e+06
-1.12453e+06
-503486
-1.40331e+06
-657213
-116051
-1.11592e+06
-228573
280934
-772345
179660
691999
-365190
573762
1.11821e+06
110298
949708
1.58997e+06
656090
1.34581e+06
2.13577e+06
1.3732e+06
-1.65959e+06
-864386
-929288
-1.11297e+06
-490453
-231700
-644181
-109811
352432
-222332
274764
850724
173490
671405
1.28436e+06
553168
1.07849e+06
1.67177e+06
909989
1.54827e+06
1.95422e+06
1.30411e+06
2.0813e+06
2.24269e+06
-1.56701e+06
-855462
-1.5004e+06
-1.07675e+06
-492238
-1.27176e+06
-627681
-119615
-1.00199e+06
-206649
269768
-682834
191968
673514
-316053
574772
1.10494e+06
104857
954398
1.54565e+06
609263
1.32813e+06
2.04721e+06
1.19974e+06
-1.44122e+06
-761215
-800429
-982499
-440682
-208329
-576125
-112932
288588
-199966
234116
728970
156316
599133
1.12333e+06
500391
1.00132e+06
1.48011e+06
850776
1.42565e+06
1.80856e+06
1.20813e+06
1.92942e+06
2.10078e+06
-1.36461e+06
-739561
-1.3025e+06
-920534
-404031
-1.087e+06
-505788
-73760.1
-838681
-121671
268506
-557430
232557
623464
-241003
570650
1.00481e+06
123647
898567
1.40911e+06
540912
1.2232e+06
1.84049e+06
1.02309e+06
-1.13143e+06
-562751
-615310
-743724
-284431
-137060
-386189
-12206.1
295707
-60117.1
270345
690746
234395
566342
1.04094e+06
513528
894740
1.36091e+06
788497
1.25526e+06
1.65662e+06
1.06935e+06
1.65892e+06
1.92546e+06
-1.09316e+06
-578339
-1.02386e+06
-709502
-308906
-836148
-360587
-44231
-640966
-41446
228933
-433865
252125
520108
-198247
529970
837957
75704.6
797771
1.18657e+06
396166
1.06569e+06
1.57007e+06
779695
-750514
-311201
-354933
-442364
-124104
30883.6
-175785
52200.5
374799
54985.5
233113
676913
256305
431640
941572
441502
661094
1.18006e+06
620909
929021
1.39954e+06
808147
1.24753e+06
1.60236e+06
-738829
-358353
-686462
-438928
-184053
-582619
-170264
-4125.59
-475445
68921.5
184295
-356250
282038
390837
-213443
478638
626970
-34032.7
667060
899096
190993
860163
1.21741e+06
482574
-307661
10552.7
-75787.2
-70021.5
74917.7
249520
88706.8
130944
502803
203991
193040
699596
290783
273930
852303
361731
386689
973449
426779
539691
1.06588e+06
500758
750033
1.12581e+06
-385401
-122973
-291271
-119300
-36394.5
-283953
66529.4
43470.3
-293981
204986
125556
-291654
305539
214111
-269884
384860
330179
-208004
453045
485820
-87735.3
530620
694267
121915
292993
242923
906154
380684
181208
950375
394241
162373
933285
354883
155542
871910
287573
173402
796626
197647
223827
709144
92111.5
324246
619993
-30591.8
423928
509199
598043
480119
-73698.8
617880
344974
-163992
558007
244949
-221467
437459
167340
-270961
299372
100714
-333412
124958
68688.4
-365273
-63027.5
90843.3
-372803
-263995
123591
-354217
-1.73936e+06
-879077
-2.05884e+06
-1.12765e+06
-433805
-1.53219e+06
-646844
-33475.4
-1.08777e+06
-202118
369822
-659397
219472
784765
-242476
623262
1.21018e+06
167181
1.01659e+06
1.65973e+06
582055
1.39925e+06
2.23063e+06
1.03325e+06
-1.66621e+06
-860286
-585509
-1.10265e+06
-446691
-102604
-657966
-67437
309330
-237825
320671
713373
168401
723307
1.12087e+06
560605
1.13515e+06
1.5277e+06
936389
1.5591e+06
1.93304e+06
1.28833e+06
2.05626e+06
2.37186e+06
-1.89322e+06
-1.02233e+06
-1.05645e+06
-1.28655e+06
-573792
-275657
-736162
-109601
384942
-241398
344722
931271
218519
805228
1.39106e+06
660911
1.28396e+06
1.77799e+06
1.09686e+06
1.79519e+06
2.10058e+06
1.52513e+06
2.39374e+06
2.34583e+06
-1.6612e+06
-888100
-1.62413e+06
-1.13681e+06
-504879
-1.39512e+06
-663642
-114052
-1.1014e+06
-233302
288595
-745248
178850
705126
-330010
578781
1.14361e+06
155708
970121
1.6197e+06
730001
1.36145e+06
2.15873e+06
1.42766e+06
-1.68195e+06
-891878
-967426
-1.14058e+06
-498511
-294008
-657274
-103809
292499
-223058
294109
798257
184365
702592
1.23866e+06
576247
1.13331e+06
1.62587e+06
959819
1.60511e+06
1.96075e+06
1.34686e+06
2.13804e+06
2.25603e+06
-1.5783e+06
-860738
-1.4928e+06
-1.08442e+06
-489152
-1.23874e+06
-629642
-116221
-958187
-212706
272076
-635493
188403
676411
-263639
576626
1.10467e+06
165049
957738
1.56331e+06
663052
1.3356e+06
2.0554e+06
1.23112e+06
-1.45475e+06
-765738
-833667
-989419
-429613
-257274
-570104
-96419.9
250378
-192905
251748
704957
168075
618252
1.10823e+06
518467
1.01465e+06
1.47275e+06
867725
1.45131e+06
1.81136e+06
1.22361e+06
1.93516e+06
2.12474e+06
-1.36572e+06
-738461
-1.28439e+06
-928085
-411376
-1.05759e+06
-514624
-82516.3
-809080
-130764
257189
-541986
225315
611744
-230015
565291
989812
129773
903753
1.41025e+06
553457
1.22534e+06
1.84454e+06
1.01752e+06
-1.12172e+06
-552513
-629771
-742137
-286083
-160511
-389330
-20807.4
263352
-69055.4
256084
655101
224209
549039
1.00594e+06
502585
870763
1.32886e+06
784704
1.24511e+06
1.64469e+06
1.06021e+06
1.65122e+06
1.92621e+06
-1.08855e+06
-586544
-1.01079e+06
-707121
-311795
-817900
-362202
-42565.2
-613579
-36046.1
227219
-411712
256131
516845
-179763
536065
834645
90661.6
812332
1.18659e+06
403830
1.07287e+06
1.56081e+06
759649
-719486
-299042
-357435
-419618
-115886
26482.7
-166293
60234.7
366706
66753.8
235750
663487
264663
429167
926372
448387
654286
1.16572e+06
631973
923686
1.39372e+06
809965
1.23127e+06
1.5957e+06
-717767
-348187
-644908