/*--------------------------------*- C++ -*----------------------------------*\
| =========                 |                                                 |
| \\      /  F ield         | OpenFOAM: The Open Source CFD Toolbox           |
|  \\    /   O peration     | Version:  v2012                                 |
|   \\  /    A nd           | Website:  www.openfoam.com                      |
|    \\/     M anipulation  |                                                 |
\*---------------------------------------------------------------------------*/
FoamFile
{
    version     2.0;
    format      ascii;
    class       volScalarField;
    location    "1";
    object      sigmaEq;
}
// * * * * * * * * * * * * * * * * * * * * * * * * * * * * * * * * * * * * * //

dimensions      [1 -1 -2 0 0 0 0];


internalField   nonuniform List<scalar> 
53760
(
4.02128e+06
2.63122e+06
2.52986e+06
2.68429e+06
2.12186e+06
2.89018e+06
2.05882e+06
1.87066e+06
2.54156e+06
1.58635e+06
1.78719e+06
2.34746e+06
1.27694e+06
1.80058e+06
2.18945e+06
1.22004e+06
1.97274e+06
2.06934e+06
1.57174e+06
2.94318e+06
2.64128e+06
2.60092e+06
3.14817e+06
2.85989e+06
3.15031e+06
2.45731e+06
4.00818e+06
2.58678e+06
1.94755e+06
2.30923e+06
1.98012e+06
1.76645e+06
2.37326e+06
1.583e+06
1.65162e+06
2.58713e+06
1.31052e+06
1.8235e+06
2.73123e+06
1.36681e+06
2.33988e+06
2.03163e+06
1.87963e+06
3.12414e+06
2.43702e+06
2.53612e+06
3.26224e+06
3.38357e+06
3.22608e+06
2.53285e+06
2.45441e+06
2.59447e+06
1.98756e+06
2.60832e+06
1.85605e+06
1.77983e+06
1.99863e+06
1.42529e+06
1.66218e+06
1.69358e+06
1.09651e+06
1.86699e+06
1.49784e+06
1.30293e+06
2.23436e+06
1.68957e+06
2.00567e+06
2.67183e+06
2.53762e+06
2.64728e+06
3.41825e+06
2.81692e+06
3.54512e+06
2.66661e+06
3.51058e+06
2.73152e+06
1.9386e+06
1.79224e+06
2.08696e+06
1.90955e+06
1.4258e+06
1.47403e+06
1.5973e+06
1.22673e+06
1.32346e+06
1.89113e+06
1.2828e+06
1.5597e+06
2.30696e+06
1.82699e+06
2.05491e+06
2.64042e+06
2.17801e+06
2.67619e+06
3.36323e+06
3.22986e+06
3.69093e+06
2.7944e+06
2.67911e+06
2.84419e+06
2.02224e+06
2.99182e+06
2.16219e+06
1.41718e+06
1.46497e+06
1.47126e+06
1.2189e+06
1.93284e+06
1.20899e+06
1.45083e+06
1.16347e+06
1.49849e+06
2.06578e+06
1.80123e+06
2.02147e+06
2.72264e+06
2.73978e+06
2.77161e+06
3.48644e+06
3.54903e+06
3.59146e+06
2.65996e+06
3.6894e+06
2.76651e+06
2.08252e+06
2.12245e+06
2.16925e+06
1.33657e+06
2.58615e+06
1.54823e+06
1.35419e+06
1.16312e+06
1.31032e+06
1.41749e+06
1.78889e+06
1.44459e+06
2.05372e+06
1.80142e+06
2.02715e+06
2.77665e+06
2.19356e+06
2.77357e+06
3.57186e+06
2.90776e+06
3.72042e+06
2.74831e+06
2.72655e+06
2.83078e+06
2.066e+06
1.9774e+06
2.19785e+06
1.26558e+06
1.44443e+06
1.48823e+06
1.13906e+06
1.32629e+06
1.29058e+06
1.44492e+06
1.67286e+06
1.4772e+06
2.11777e+06
2.26278e+06
2.09462e+06
2.91219e+06
2.68955e+06
2.89152e+06
3.7035e+06
3.5866e+06
3.52033e+06
2.58865e+06
3.56462e+06
2.6568e+06
1.86927e+06
2.73127e+06
2.05114e+06
1.41676e+06
2.28996e+06
1.58138e+06
1.29342e+06
1.73133e+06
1.36495e+06
1.62126e+06
1.63664e+06
1.56499e+06
2.12339e+06
1.73399e+06
2.04055e+06
2.82321e+06
2.19387e+06
2.7837e+06
3.57962e+06
2.93694e+06
3.65973e+06
2.68893e+06
2.78192e+06
2.74199e+06
2.02951e+06
2.04529e+06
2.02242e+06
1.30143e+06
1.63072e+06
1.4708e+06
1.17021e+06
1.58832e+06
1.2569e+06
1.53785e+06
1.85743e+06
1.50378e+06
2.13458e+06
2.31933e+06
2.08305e+06
2.92165e+06
2.86306e+06
2.90403e+06
3.71416e+06
3.60804e+06
3.48959e+06
2.59202e+06
3.46821e+06
2.70777e+06
1.97766e+06
2.70351e+06
2.10308e+06
1.59123e+06
2.0636e+06
1.74521e+06
1.58689e+06
1.69065e+06
1.59273e+06
1.86896e+06
1.59914e+06
1.73001e+06
2.31703e+06
1.79808e+06
2.13522e+06
2.8753e+06
2.26839e+06
2.77231e+06
3.54764e+06
2.971e+06
3.63917e+06
2.68702e+06
2.83022e+06
2.75776e+06
1.95712e+06
2.25821e+06
2.0637e+06
1.45929e+06
1.98307e+06
1.61125e+06
1.43061e+06
1.96463e+06
1.44232e+06
1.78621e+06
2.13924e+06
1.66048e+06
2.32648e+06
2.44517e+06
2.16617e+06
3.10958e+06
2.72528e+06
2.91166e+06
3.73249e+06
3.53597e+06
3.44947e+06
2.5846e+06
3.3653e+06
2.72066e+06
2.07485e+06
2.56939e+06
2.28637e+06
1.86461e+06
2.04572e+06
2.02886e+06
1.94179e+06
1.76622e+06
1.92845e+06
2.1838e+06
1.74868e+06
2.01421e+06
2.51588e+06
1.99378e+06
2.32405e+06
3.06258e+06
2.4862e+06
2.87418e+06
3.62331e+06
3.13231e+06
3.66949e+06
2.75652e+06
3.01767e+06
2.85359e+06
2.39405e+06
2.35079e+06
2.26129e+06
2.25141e+06
1.88998e+06
1.84516e+06
2.33359e+06
1.68151e+06
1.66853e+06
2.54543e+06
1.77126e+06
1.81565e+06
2.88667e+06
2.12619e+06
2.32658e+06
3.15894e+06
3.00666e+06
3.03445e+06
3.82501e+06
3.61196e+06
3.55572e+06
2.67402e+06
3.34161e+06
2.93826e+06
2.2872e+06
2.59491e+06
2.59491e+06
2.21555e+06
2.14089e+06
2.41597e+06
2.36199e+06
1.96434e+06
2.34741e+06
2.61966e+06
2.03552e+06
2.40144e+06
2.97495e+06
2.32264e+06
2.62959e+06
3.34594e+06
2.79003e+06
3.11564e+06
3.92882e+06
3.44813e+06
3.94934e+06
3.06391e+06
3.31245e+06
3.08685e+06
2.7093e+06
2.63729e+06
2.51444e+06
2.66947e+06
2.21488e+06
2.14423e+06
2.81449e+06
2.03295e+06
1.9909e+06
3.04897e+06
2.10737e+06
2.11938e+06
3.34814e+06
2.46609e+06
2.54227e+06
3.74395e+06
2.99965e+06
3.31892e+06
4.40947e+06
3.88858e+06
3.71181e+06
2.98105e+06
3.47438e+06
2.99273e+06
2.69262e+06
2.99849e+06
2.48682e+06
2.66931e+06
2.84013e+06
2.14281e+06
2.79717e+06
2.8469e+06
1.97901e+06
2.99883e+06
2.91424e+06
2.07271e+06
3.2512e+06
3.04819e+06
2.46083e+06
3.61589e+06
3.30861e+06
3.19411e+06
4.21477e+06
3.84497e+06
3.71135e+06
3.07098e+06
3.8065e+06
2.96001e+06
1.97456e+06
2.17021e+06
2.53006e+06
1.58246e+06
1.86066e+06
2.27586e+06
1.4011e+06
1.74088e+06
2.09759e+06
1.60535e+06
1.86822e+06
2.08188e+06
2.06575e+06
2.60698e+06
1.64278e+06
2.85556e+06
2.7998e+06
2.59567e+06
3.29055e+06
3.25413e+06
3.35353e+06
2.6091e+06
2.7757e+06
2.57972e+06
1.66783e+06
3.30354e+06
2.03508e+06
1.33573e+06
3.05362e+06
1.68664e+06
1.27537e+06
2.72961e+06
1.52759e+06
1.50486e+06
2.44215e+06
1.59701e+06
1.99745e+06
2.10674e+06
1.91771e+06
3.02506e+06
2.34437e+06
2.48167e+06
3.33822e+06
2.6669e+06
3.50392e+06
2.60087e+06
2.69757e+06
2.62299e+06
1.57533e+06
1.67767e+06
1.97331e+06
1.28249e+06
1.22121e+06
1.64609e+06
1.31604e+06
1.54298e+06
1.56467e+06
1.6277e+06
1.96335e+06
1.71302e+06
2.10101e+06
2.40755e+06
2.0398e+06
2.59504e+06
2.41376e+06
2.61299e+06
3.53564e+06
3.41798e+06
3.57195e+06
2.7575e+06
3.56294e+06
2.7579e+06
1.77171e+06
3.29988e+06
1.99492e+06
1.28295e+06
2.59458e+06
1.50776e+06
1.12213e+06
2.21403e+06
1.40195e+06
1.43863e+06
2.00838e+06
1.5406e+06
1.94705e+06
1.89907e+06
1.94456e+06
2.70026e+06
2.11508e+06
2.74185e+06
3.53497e+06
2.81187e+06
3.68195e+06
2.83884e+06
2.80833e+06
2.84195e+06
1.79937e+06
1.84899e+06
2.0212e+06
1.25292e+06
1.30091e+06
1.48963e+06
1.03299e+06
1.3951e+06
1.3429e+06
1.36354e+06
1.59343e+06
1.49709e+06
1.96901e+06
2.25536e+06
1.98545e+06
2.80184e+06
2.79623e+06
2.85519e+06
3.65376e+06
3.58432e+06
3.56403e+06
2.73817e+06
3.59672e+06
2.75236e+06
1.86505e+06
2.99886e+06
2.01258e+06
1.32956e+06
2.32516e+06
1.51337e+06
1.11803e+06
1.94796e+06
1.28105e+06
1.41572e+06
1.65072e+06
1.4514e+06
2.00313e+06
1.70285e+06
1.98485e+06
2.72451e+06
2.12835e+06
2.72709e+06
3.49813e+06
2.90455e+06
3.6801e+06
2.81355e+06
2.83468e+06
2.82094e+06
1.88686e+06
1.98516e+06
2.03006e+06
1.28328e+06
1.48353e+06
1.47213e+06
1.00081e+06
1.40374e+06
1.19264e+06
1.37478e+06
1.70317e+06
1.42236e+06
2.03079e+06
2.21474e+06
2.02697e+06
2.80876e+06
2.84469e+06
2.82828e+06
3.62268e+06
3.5456e+06
3.46503e+06
2.6685e+06
3.48017e+06
2.69502e+06
1.90732e+06
2.7773e+06
2.04272e+06
1.425e+06
2.15998e+06
1.58073e+06
1.33074e+06
1.73873e+06
1.38963e+06
1.60072e+06
1.53787e+06
1.55316e+06
2.11832e+06
1.69476e+06
2.0312e+06
2.76006e+06
2.16716e+06
2.71424e+06
3.48508e+06
2.89071e+06
3.59942e+06
2.75511e+06
2.84357e+06
2.76679e+06
1.9116e+06
2.11024e+06
2.0334e+06
1.33221e+06
1.70147e+06
1.49149e+06
1.18496e+06
1.6332e+06
1.2599e+06
1.52461e+06
1.85226e+06
1.49347e+06
2.12763e+06
2.27065e+06
2.06485e+06
2.84117e+06
2.81736e+06
2.82128e+06
3.62215e+06
3.47104e+06
3.40725e+06
2.63407e+06
3.35951e+06
2.70693e+06
1.98169e+06
2.66211e+06
2.14415e+06
1.64067e+06
2.06743e+06
1.78489e+06
1.63541e+06
1.69548e+06
1.64166e+06
1.88405e+06
1.59746e+06
1.75833e+06
2.30591e+06
1.80962e+06
2.13628e+06
2.84283e+06
2.27853e+06
2.73488e+06
3.47955e+06
2.94717e+06
3.5598e+06
2.73067e+06
2.88943e+06
2.76996e+06
1.9654e+06
2.28815e+06
2.10233e+06
1.49758e+06
2.01886e+06
1.63855e+06
1.44764e+06
1.99455e+06
1.45985e+06
1.76484e+06
2.15088e+06
1.65329e+06
2.29339e+06
2.4498e+06
2.15572e+06
2.95461e+06
2.9003e+06
2.88731e+06
3.68188e+06
3.46005e+06
3.36366e+06
2.60561e+06
3.2434e+06
2.75645e+06
2.0914e+06
2.57312e+06
2.33038e+06
1.91715e+06
2.06505e+06
2.08684e+06
2.00257e+06
1.80526e+06
1.99602e+06
2.24148e+06
1.80353e+06
2.06953e+06
2.58294e+06
2.04419e+06
2.33918e+06
3.03411e+06
2.48492e+06
2.84043e+06
3.56375e+06
3.09595e+06
3.56974e+06
2.75019e+06
3.04649e+06
2.84096e+06
2.05249e+06
2.60339e+06
2.24868e+06
1.70901e+06
2.44117e+06
1.86821e+06
1.74628e+06
2.44837e+06
1.73932e+06
2.06544e+06
2.55554e+06
1.90894e+06
2.55712e+06
2.75356e+06
2.36144e+06
3.16212e+06
3.05171e+06
3.03396e+06
3.83546e+06
3.51363e+06
3.39319e+06
2.66651e+06
3.17286e+06
2.93991e+06
2.3016e+06
2.5668e+06
2.63269e+06
2.26593e+06
2.15164e+06
2.47737e+06
2.42294e+06
2.00063e+06
2.41975e+06
2.66458e+06
2.08078e+06
2.45704e+06
2.96125e+06
2.35115e+06
2.64352e+06
3.31482e+06
2.78763e+06
3.05525e+06
3.77971e+06
3.38914e+06
3.79091e+06
3.07778e+06
3.28301e+06
3.12767e+06
2.77531e+06
2.69028e+06
2.57264e+06
2.75556e+06
2.28334e+06
2.20279e+06
2.89849e+06
2.0902e+06
2.03985e+06
3.10198e+06
2.12979e+06
2.14591e+06
3.3686e+06
2.42803e+06
2.55826e+06
3.74769e+06
2.96456e+06
3.29568e+06
4.35667e+06
3.76432e+06
3.65381e+06
2.97192e+06
3.42116e+06
3.02493e+06
2.72591e+06
3.04986e+06
2.52177e+06
2.72988e+06
2.9095e+06
2.17947e+06
2.87625e+06
2.90784e+06
2.02268e+06
3.05745e+06
2.98916e+06
2.09974e+06
3.28825e+06
3.11034e+06
2.46603e+06
3.62166e+06
3.34565e+06
3.15289e+06
4.15139e+06
3.81956e+06
3.72822e+06
2.9459e+06
3.81061e+06
2.88726e+06
2.23297e+06
3.17465e+06
2.07415e+06
1.74647e+06
2.60946e+06
1.46827e+06
1.62985e+06
2.26252e+06
1.13493e+06
1.77542e+06
2.11978e+06
1.29886e+06
2.26944e+06
2.17657e+06
2.02915e+06
2.84413e+06
2.74902e+06
2.59731e+06
3.77661e+06
2.84691e+06
3.53229e+06
2.80599e+06
2.92807e+06
2.74838e+06
2.37955e+06
2.23359e+06
2.18615e+06
2.09752e+06
1.67338e+06
1.72001e+06
2.0419e+06
1.36377e+06
1.4661e+06
2.11022e+06
1.34369e+06
1.48488e+06
2.34778e+06
1.67417e+06
1.81188e+06
2.96726e+06
2.34327e+06
2.55202e+06
3.30518e+06
3.11675e+06
3.72834e+06
2.80717e+06
2.85828e+06
2.83373e+06
2.0949e+06
1.70543e+06
2.26521e+06
1.45865e+06
1.13382e+06
1.77609e+06
1.28928e+06
1.13707e+06
1.525e+06
1.44749e+06
1.53854e+06
1.55262e+06
1.88837e+06
2.08348e+06
1.87653e+06
2.57197e+06
2.6819e+06
2.58915e+06
3.36483e+06
3.37996e+06
3.63745e+06
2.78829e+06
3.61323e+06
2.78454e+06
1.92732e+06
3.10811e+06
2.07357e+06
1.27314e+06
2.58714e+06
1.53408e+06
1.07729e+06
2.15227e+06
1.30294e+06
1.3573e+06
1.84937e+06
1.45273e+06
1.91618e+06
1.77787e+06
1.9279e+06
2.66884e+06
2.07622e+06
2.69849e+06
3.53197e+06
2.82417e+06
3.72377e+06
2.84958e+06
2.86164e+06
2.84758e+06
1.95125e+06
1.87976e+06
2.09544e+06
1.24335e+06
1.28125e+06
1.5123e+06
1.02225e+06
1.20895e+06
1.26627e+06
1.34979e+06
1.58165e+06
1.46095e+06
1.96752e+06
2.14892e+06
1.9949e+06
2.7639e+06
2.81055e+06
2.80759e+06
3.6631e+06
3.53874e+06
3.56707e+06
2.75056e+06
3.56881e+06
2.74995e+06
1.92422e+06
2.93416e+06
2.04136e+06
1.32372e+06
2.32501e+06
1.51123e+06
1.1285e+06
1.85599e+06
1.27e+06
1.42313e+06
1.5896e+06
1.45427e+06
1.98582e+06
1.66342e+06
1.96347e+06
2.69693e+06
2.09384e+06
2.6971e+06
3.49684e+06
2.8784e+06
3.66891e+06
2.81477e+06
2.84766e+06
2.80917e+06
1.93404e+06
2.01254e+06
2.04598e+06
1.25989e+06
1.48918e+06
1.45556e+06
1.03221e+06
1.38547e+06
1.19304e+06
1.38115e+06
1.67355e+06
1.42774e+06
2.01353e+06
2.17551e+06
2.00705e+06
2.77648e+06
2.79287e+06
2.79387e+06
3.61625e+06
3.4956e+06
3.43282e+06
2.65112e+06
3.42659e+06
2.67795e+06
1.92323e+06
2.73242e+06
2.04742e+06
1.45045e+06
2.12292e+06
1.59356e+06
1.35421e+06
1.69073e+06
1.40685e+06
1.62386e+06
1.50904e+06
1.56537e+06
2.11163e+06
1.66943e+06
2.01445e+06
2.73061e+06
2.13878e+06
2.67609e+06
3.4492e+06
2.85917e+06
3.56354e+06
2.73303e+06
2.83501e+06
2.74496e+06
1.92422e+06
2.13271e+06
2.03541e+06
1.35605e+06
1.73875e+06
1.50178e+06
1.21733e+06
1.66846e+06
1.28267e+06
1.54506e+06
1.86917e+06
1.50275e+06
2.1233e+06
2.25944e+06
2.05025e+06
2.82002e+06
2.78314e+06
2.79229e+06
3.59627e+06
3.42696e+06
3.35934e+06
2.60367e+06
3.29168e+06
2.68824e+06
1.99904e+06
2.61375e+06
2.16788e+06
1.68372e+06
2.05297e+06
1.82472e+06
1.68177e+06
1.69059e+06
1.68707e+06
1.91976e+06
1.60158e+06
1.78814e+06
2.31342e+06
1.80953e+06
2.13082e+06
2.82105e+06
2.26218e+06
2.69493e+06
3.43638e+06
2.90797e+06
3.51695e+06
2.70105e+06
2.88661e+06
2.75042e+06
1.97367e+06
2.32772e+06
2.11672e+06
1.53108e+06
2.0712e+06
1.66872e+06
1.48796e+06
2.04974e+06
1.49849e+06
1.79739e+06
2.19449e+06
1.68028e+06
2.30854e+06
2.46932e+06
2.1597e+06
2.93252e+06
2.86842e+06
2.84862e+06
3.6387e+06
3.41139e+06
3.30637e+06
2.57464e+06
3.1714e+06
2.7487e+06
2.11881e+06
2.53797e+06
2.36859e+06
1.9731e+06
2.06945e+06
2.14648e+06
2.06339e+06
1.82522e+06
2.0583e+06
2.29091e+06
1.82666e+06
2.11208e+06
2.60576e+06
2.05378e+06
2.3431e+06
3.00521e+06
2.46996e+06
2.79705e+06
3.51224e+06
3.05255e+06
3.50958e+06
2.714e+06
3.00806e+06
2.81786e+06
2.06285e+06
2.62628e+06
2.26642e+06
1.7447e+06
2.48742e+06
1.90673e+06
1.7903e+06
2.50348e+06
1.78419e+06
2.10159e+06
2.60719e+06
1.93643e+06
2.56811e+06
2.78004e+06
2.35182e+06
3.1356e+06
3.04506e+06
2.99285e+06
3.79306e+06
3.4574e+06
3.33037e+06
2.62643e+06
3.10219e+06
2.9213e+06
2.32676e+06
2.52625e+06
2.6796e+06
2.32489e+06
2.16589e+06
2.54734e+06
2.48445e+06
2.03681e+06
2.49014e+06
2.71078e+06
2.11594e+06
2.50686e+06
2.97157e+06
2.36514e+06
2.64764e+06
3.28437e+06
2.76786e+06
3.00725e+06
3.7038e+06
3.33599e+06
3.75177e+06
3.06513e+06
3.26897e+06
3.11752e+06
2.82094e+06
2.71524e+06
2.60642e+06
2.82494e+06
2.32565e+06
2.24526e+06
2.95144e+06
2.12716e+06
2.07873e+06
3.15186e+06
2.14969e+06
2.16381e+06
3.39412e+06
2.41261e+06
2.54948e+06
3.74375e+06
2.92382e+06
3.264e+06
4.31062e+06
3.70064e+06
3.60828e+06
2.94192e+06
3.37998e+06
2.99813e+06
2.7696e+06
3.04009e+06
2.55452e+06
2.81065e+06
2.9642e+06
2.23298e+06
2.93823e+06
2.9797e+06
2.0666e+06
3.10472e+06
3.04438e+06
2.10027e+06
3.29902e+06
3.1612e+06
2.42682e+06
3.58698e+06
3.35054e+06
3.08332e+06
4.0828e+06
3.78278e+06
3.80759e+06
2.96888e+06
3.86783e+06
2.88819e+06
2.21292e+06
3.15406e+06
2.07054e+06
1.69977e+06
2.57388e+06
1.40853e+06
1.54787e+06
2.20716e+06
1.06212e+06
1.72851e+06
2.06917e+06
1.27669e+06
2.24665e+06
2.18682e+06
1.98776e+06
2.8879e+06
2.68111e+06
2.76582e+06
3.81073e+06
3.02551e+06
3.66775e+06
2.91261e+06
3.03034e+06
2.83976e+06
2.3928e+06
2.28291e+06
2.19139e+06
2.05954e+06
1.67841e+06
1.67581e+06
1.96088e+06
1.30103e+06
1.38704e+06
2.05187e+06
1.2967e+06
1.43931e+06
2.35039e+06
1.68879e+06
1.85984e+06
2.94181e+06
2.41349e+06
2.63809e+06
3.4911e+06
3.31882e+06
3.88095e+06
2.94262e+06
2.99953e+06
2.94346e+06
2.08799e+06
1.87613e+06
2.26144e+06
1.43846e+06
1.20454e+06
1.71115e+06
1.14537e+06
1.11218e+06
1.3925e+06
1.31308e+06
1.49738e+06
1.42786e+06
1.82825e+06
2.06233e+06
1.84959e+06
2.60288e+06
2.72397e+06
2.63921e+06
3.5285e+06
3.45087e+06
3.70642e+06
2.84589e+06
3.66453e+06
2.82799e+06
1.97923e+06
3.05121e+06
2.10382e+06
1.30797e+06
2.51629e+06
1.52956e+06
1.03668e+06
2.05151e+06
1.24184e+06
1.31024e+06
1.72116e+06
1.39046e+06
1.88974e+06
1.66795e+06
1.90263e+06
2.66657e+06
2.04317e+06
2.69823e+06
3.56921e+06
2.8653e+06
3.78006e+06
2.89812e+06
2.92789e+06
2.88128e+06
2.0027e+06
1.94518e+06
2.12581e+06
1.28919e+06
1.30554e+06
1.5156e+06
988317
1.16958e+06
1.20931e+06
1.29361e+06
1.51575e+06
1.38923e+06
1.92438e+06
2.09421e+06
1.95256e+06
2.73695e+06
2.78748e+06
2.7818e+06
3.66978e+06
3.52945e+06
3.57897e+06
2.77156e+06
3.56205e+06
2.76258e+06
1.96166e+06
2.89541e+06
2.06367e+06
1.35941e+06
2.29942e+06
1.52088e+06
1.1421e+06
1.81409e+06
1.26725e+06
1.40632e+06
1.5237e+06
1.42777e+06
1.98001e+06
1.60862e+06
1.95168e+06
2.6806e+06
2.05607e+06
2.67835e+06
3.4844e+06
2.84669e+06
3.67105e+06
2.82675e+06
2.8687e+06
2.81221e+06
1.96462e+06
2.04377e+06
2.06148e+06
1.29629e+06
1.51789e+06
1.46404e+06
1.0467e+06
1.39066e+06
1.18958e+06
1.37462e+06
1.66015e+06
1.40912e+06
2.01288e+06
2.15822e+06
1.99887e+06
2.75629e+06
2.76104e+06
2.77076e+06
3.59953e+06
3.45704e+06
3.42167e+06
2.63897e+06
3.38568e+06
2.66701e+06
1.93404e+06
2.69016e+06
2.05601e+06
1.47845e+06
2.09021e+06
1.61222e+06
1.37962e+06
1.6504e+06
1.42064e+06
1.63817e+06
1.48021e+06
1.56808e+06
2.11162e+06
1.6416e+06
2.00054e+06
2.70119e+06
2.11451e+06
2.63709e+06
3.40696e+06
2.8235e+06
3.54809e+06
2.7166e+06
2.83053e+06
2.72969e+06
1.93036e+06
2.15091e+06
2.03947e+06
1.38468e+06
1.77501e+06
1.52001e+06
1.25335e+06
1.70624e+06
1.30439e+06
1.56797e+06
1.89154e+06
1.51269e+06
2.12534e+06
2.25753e+06
2.03902e+06
2.79383e+06
2.74937e+06
2.75754e+06
3.55949e+06
3.37842e+06
3.32943e+06
2.58236e+06
3.25253e+06
2.67784e+06
2.01383e+06
2.58228e+06
2.19128e+06
1.72751e+06
2.04466e+06
1.86925e+06
1.731e+06
1.69685e+06
1.73403e+06
1.95626e+06
1.61087e+06
1.81563e+06
2.3226e+06
1.80967e+06
2.12365e+06
2.79542e+06
2.24419e+06
2.65587e+06
3.3996e+06
2.87788e+06
3.48757e+06
2.67857e+06
2.87582e+06
2.73659e+06
1.98233e+06
2.35523e+06
2.1332e+06
1.56951e+06
2.12384e+06
1.70745e+06
1.53371e+06
2.10818e+06
1.54104e+06
1.82956e+06
2.23968e+06
1.70278e+06
2.3174e+06
2.48817e+06
2.15321e+06
2.91185e+06
2.84857e+06
2.81603e+06
3.60529e+06
3.36751e+06
3.26584e+06
2.5493e+06
3.12467e+06
2.74211e+06
2.13683e+06
2.50881e+06
2.4036e+06
2.0248e+06
2.07531e+06
2.20642e+06
2.12466e+06
1.85488e+06
2.12223e+06
2.34023e+06
1.85999e+06
2.15417e+06
2.62632e+06
2.06946e+06
2.34943e+06
2.9922e+06
2.46502e+06
2.76793e+06
3.47182e+06
3.02228e+06
3.4751e+06
2.69016e+06
2.99266e+06
2.805e+06
2.07284e+06
2.64936e+06
2.29021e+06
1.78316e+06
2.54233e+06
1.9528e+06
1.83513e+06
2.56646e+06
1.83134e+06
2.1319e+06
2.6598e+06
1.9586e+06
2.572e+06
2.80882e+06
2.34188e+06
3.11209e+06
3.03739e+06
2.95663e+06
3.75217e+06
3.41534e+06
3.29539e+06
2.6044e+06
3.05768e+06
2.92286e+06
2.34325e+06
2.50068e+06
2.72257e+06
2.37899e+06
2.18433e+06
2.62161e+06
2.55188e+06
2.08883e+06
2.5674e+06
2.76839e+06
2.1738e+06
2.55866e+06
2.99946e+06
2.39708e+06
2.66486e+06
3.27538e+06
2.768e+06
2.9819e+06
3.65843e+06
3.30501e+06
3.73087e+06
3.05905e+06
3.26527e+06
3.11255e+06
2.84228e+06
2.72407e+06
2.63859e+06
2.88103e+06
2.36336e+06
2.29966e+06
3.01368e+06
2.17061e+06
2.12399e+06
3.19134e+06
2.17286e+06
2.16673e+06
3.42749e+06
2.39447e+06
2.52576e+06
3.73812e+06
2.87723e+06
3.22261e+06
4.27848e+06
3.63864e+06
3.58742e+06
2.95666e+06
3.36446e+06
3.01052e+06
2.76859e+06
3.0845e+06
2.55844e+06
2.84881e+06
3.02495e+06
2.26156e+06
3.00843e+06
3.08643e+06
2.12346e+06
3.20045e+06
3.16995e+06
2.19008e+06
3.40095e+06
3.2324e+06
2.49253e+06
3.67029e+06
3.45637e+06
3.14571e+06
4.20234e+06
3.91212e+06
3.88748e+06
3.00396e+06
3.92963e+06
2.91332e+06
2.20317e+06
3.15293e+06
2.05939e+06
1.65631e+06
2.54187e+06
1.36395e+06
1.4712e+06
2.1503e+06
994489
1.68106e+06
2.01256e+06
1.25608e+06
2.22858e+06
2.17248e+06
1.98826e+06
2.92791e+06
2.64962e+06
2.87052e+06
3.85464e+06
3.1265e+06
3.77362e+06
2.9857e+06
3.1032e+06
2.90278e+06
2.39211e+06
2.30871e+06
2.18487e+06
2.00862e+06
1.64947e+06
1.62177e+06
1.87764e+06
1.23216e+06
1.31111e+06
1.99364e+06
1.25214e+06
1.40196e+06
2.34093e+06
1.70439e+06
1.90633e+06
2.95279e+06
2.49349e+06
2.72747e+06
3.64563e+06
3.49327e+06
3.98286e+06
3.03404e+06
3.1044e+06
3.0107e+06
2.10037e+06
1.97873e+06
2.25091e+06
1.39378e+06
1.24838e+06
1.64621e+06
1.04429e+06
1.09072e+06
1.29261e+06
1.24847e+06
1.48958e+06
1.36371e+06
1.82987e+06
2.07213e+06
1.8743e+06
2.67138e+06
2.77437e+06
2.72331e+06
3.69252e+06
3.55292e+06
3.75616e+06
2.90215e+06
3.71213e+06
2.87137e+06
2.01171e+06
3.03342e+06
2.11527e+06
1.3197e+06
2.4498e+06
1.51438e+06
1.00962e+06
1.94429e+06
1.20496e+06
1.30353e+06
1.59562e+06
1.37087e+06
1.90461e+06
1.57573e+06
1.89889e+06
2.66093e+06
2.02437e+06
2.67048e+06
3.61807e+06
2.92012e+06
3.81936e+06
2.94895e+06
2.99091e+06
2.9189e+06
2.0357e+06
2.00803e+06
2.13836e+06
1.3067e+06
1.34069e+06
1.50518e+06
962355
1.16084e+06
1.17316e+06
1.27292e+06
1.49352e+06
1.35413e+06
1.89658e+06
2.03316e+06
1.91136e+06
2.69607e+06
2.76657e+06
2.72252e+06
3.68775e+06
3.55414e+06
3.49546e+06
2.799e+06
3.55168e+06
2.79004e+06
1.99136e+06
2.87715e+06
2.08049e+06
1.38923e+06
2.2705e+06
1.52802e+06
1.16329e+06
1.78395e+06
1.25857e+06
1.414e+06
1.50875e+06
1.41338e+06
1.95608e+06
1.57e+06
1.91435e+06
2.6808e+06
2.04713e+06
2.68229e+06
3.44452e+06
2.72846e+06
3.59004e+06
2.85226e+06
2.91232e+06
2.83545e+06
1.99406e+06
2.07827e+06
2.07807e+06
1.32777e+06
1.54834e+06
1.47208e+06
1.05947e+06
1.40348e+06
1.17123e+06
1.35632e+06
1.64585e+06
1.37078e+06
1.99751e+06
2.15486e+06
1.96709e+06
2.75747e+06
2.7489e+06
2.76962e+06
3.55682e+06
3.40088e+06
3.46219e+06
2.64848e+06
3.26313e+06
2.67751e+06
1.95973e+06
2.68112e+06
2.0799e+06
1.51448e+06
2.07203e+06
1.64042e+06
1.40262e+06
1.6163e+06
1.43261e+06
1.63261e+06
1.42151e+06
1.54536e+06
2.08468e+06
1.58938e+06
1.96028e+06
2.64254e+06
2.0325e+06
2.57999e+06
3.37841e+06
2.83583e+06
3.58403e+06
2.71662e+06
2.83411e+06
2.73107e+06
1.9437e+06
2.17475e+06
2.05106e+06
1.41785e+06
1.81821e+06
1.54436e+06
1.29093e+06
1.75061e+06
1.32839e+06
1.59263e+06
1.92096e+06
1.51939e+06
2.12472e+06
2.25961e+06
2.02343e+06
2.74816e+06
2.69725e+06
2.7128e+06
3.52578e+06
3.32501e+06
3.30741e+06
2.56888e+06
3.26678e+06
2.67218e+06
2.02985e+06
2.57111e+06
2.21541e+06
1.76779e+06
2.04137e+06
1.91183e+06
1.77626e+06
1.70483e+06
1.7766e+06
1.98758e+06
1.62018e+06
1.83921e+06
2.33304e+06
1.81521e+06
2.1269e+06
2.79736e+06
2.26268e+06
2.64506e+06
3.38019e+06
2.85763e+06
3.4651e+06
2.66354e+06
2.86629e+06
2.72853e+06
1.99416e+06
2.38574e+06
2.15271e+06
1.6068e+06
2.17976e+06
1.7468e+06
1.57966e+06
2.1717e+06
1.58361e+06
1.86104e+06
2.29122e+06
1.72596e+06
2.32046e+06
2.50771e+06
2.14864e+06
2.90325e+06
2.83728e+06
2.79807e+06
3.59088e+06
3.3473e+06
3.24006e+06
2.53104e+06
3.09447e+06
2.7405e+06
2.1519e+06
2.48294e+06
2.43441e+06
2.07248e+06
2.07892e+06
2.26164e+06
2.18616e+06
1.88224e+06
2.18428e+06
2.39432e+06
1.89409e+06
2.20343e+06
2.65567e+06
2.0929e+06
2.36806e+06
2.9885e+06
2.46092e+06
2.74701e+06
3.43925e+06
2.99143e+06
3.45593e+06
2.67673e+06
2.99315e+06
2.80183e+06
2.07934e+06
2.6865e+06
2.30997e+06
1.81709e+06
2.60264e+06
1.99425e+06
1.88335e+06
2.64146e+06
1.88019e+06
2.17332e+06
2.72763e+06
1.99525e+06
2.58793e+06
2.84579e+06
2.34827e+06
3.10756e+06
3.04743e+06
2.94045e+06
3.73202e+06
3.40017e+06
3.28863e+06
2.60314e+06
3.03544e+06
2.93964e+06
2.37791e+06
2.49085e+06
2.77306e+06
2.43893e+06
2.19824e+06
2.69246e+06
2.62389e+06
2.1221e+06
2.64353e+06
2.83203e+06
2.21207e+06
2.62166e+06
3.03607e+06
2.42706e+06
2.69551e+06
3.28526e+06
2.77591e+06
2.97404e+06
3.63875e+06
3.28826e+06
3.73728e+06
3.07985e+06
3.28296e+06
3.12816e+06
2.8979e+06
2.75436e+06
2.65913e+06
2.95428e+06
2.39156e+06
2.33624e+06
3.11878e+06
2.21182e+06
2.17729e+06
3.30002e+06
2.22138e+06
2.23523e+06
3.46566e+06
2.44352e+06
2.56766e+06
3.80595e+06
2.90171e+06
3.2587e+06
4.36318e+06
3.66006e+06
3.64571e+06
3.02835e+06
3.42537e+06
3.07777e+06
2.89398e+06
3.15635e+06
2.65581e+06
2.96124e+06
3.1273e+06
2.3468e+06
3.10944e+06
3.17951e+06
2.16656e+06
3.25736e+06
3.24291e+06
2.17388e+06
3.38243e+06
3.28133e+06
2.45276e+06
3.68804e+06
3.48651e+06
3.11361e+06
4.18652e+06
3.90149e+06
3.96075e+06
3.04184e+06
3.98761e+06
2.94453e+06
2.19989e+06
3.15658e+06
2.05408e+06
1.60891e+06
2.5078e+06
1.32012e+06
1.39397e+06
2.08705e+06
930116
1.63287e+06
1.94847e+06
1.23668e+06
2.21645e+06
2.14378e+06
2.00882e+06
2.95972e+06
2.63067e+06
2.94131e+06
3.89744e+06
3.1854e+06
3.86643e+06
3.0433e+06
3.16261e+06
2.95253e+06
2.38351e+06
2.32388e+06
2.17524e+06
1.94682e+06
1.61429e+06
1.56594e+06
1.79359e+06
1.16232e+06
1.23545e+06
1.94097e+06
1.20776e+06
1.36327e+06
2.32739e+06
1.69829e+06
1.94647e+06
2.96871e+06
2.5758e+06
2.81206e+06
3.77725e+06
3.65558e+06
4.06157e+06
3.09976e+06
3.16864e+06
3.05541e+06
2.11191e+06
2.0471e+06
2.23482e+06
1.34955e+06
1.27412e+06
1.58274e+06
961472
1.07247e+06
1.20618e+06
1.21255e+06
1.44963e+06
1.31665e+06
1.84654e+06
2.12506e+06
1.92268e+06
2.76347e+06
2.89183e+06
2.83066e+06
3.84797e+06
3.61909e+06
3.82361e+06
2.95189e+06
3.77808e+06
2.91373e+06
2.03246e+06
3.02553e+06
2.11579e+06
1.31625e+06
2.38878e+06
1.48791e+06
981480
1.84088e+06
1.15656e+06
1.26785e+06
1.45849e+06
1.35426e+06
2.05887e+06
1.50791e+06
2.08843e+06
2.86149e+06
2.17171e+06
2.84718e+06
3.72196e+06
2.92601e+06
3.87153e+06
2.98947e+06
2.95545e+06
2.95206e+06
2.05313e+06
2.07023e+06
2.1356e+06
1.30534e+06
1.38357e+06
1.47948e+06
939938
1.17411e+06
1.12803e+06
1.24531e+06
1.4994e+06
1.34809e+06
2.0534e+06
2.11191e+06
2.06246e+06
2.89247e+06
2.1611e+06
2.89829e+06
3.75843e+06
2.96344e+06
3.61021e+06
2.63782e+06
3.48046e+06
2.68171e+06
1.91442e+06
2.60971e+06
1.93394e+06
1.40266e+06
1.9046e+06
1.34565e+06
1.25167e+06
1.41981e+06
1.08272e+06
1.52922e+06
1.29595e+06
1.35203e+06
2.01155e+06
1.5864e+06
1.87305e+06
2.64466e+06
2.55405e+06
2.64899e+06
3.53033e+06
3.43516e+06
3.7064e+06
2.69682e+06
2.93012e+06
2.70754e+06
1.92496e+06
2.60755e+06
2.06158e+06
1.35196e+06
1.83464e+06
1.58538e+06
1.17036e+06
1.27446e+06
1.38444e+06
1.48356e+06
1.13322e+06
1.56007e+06
1.99814e+06
1.49421e+06
1.98184e+06
2.71914e+06
2.04114e+06
2.68897e+06
3.56719e+06
3.31888e+06
3.46272e+06
2.72887e+06
3.44388e+06
2.76522e+06
2.02347e+06
2.17492e+06
2.21075e+06
1.4789e+06
1.68078e+06
1.75788e+06
1.24106e+06
1.42923e+06
1.51077e+06
1.43544e+06
1.50868e+06
1.56835e+06
1.92131e+06
1.88826e+06
1.92847e+06
2.61413e+06
2.52329e+06
2.58189e+06
3.36442e+06
2.84466e+06
3.58564e+06
2.80196e+06
2.88293e+06
2.81396e+06
2.09778e+06
2.29721e+06
2.19764e+06
1.56246e+06
1.91649e+06
1.67473e+06
1.36025e+06
1.78199e+06
1.38578e+06
1.56919e+06
1.88087e+06
1.4827e+06
2.05819e+06
2.16977e+06
1.94047e+06
2.75158e+06
2.64e+06
2.68952e+06
3.52742e+06
3.32569e+06
3.30459e+06
2.58137e+06
3.22662e+06
2.70102e+06
2.06236e+06
2.52416e+06
2.25763e+06
1.81351e+06
2.05024e+06
1.95882e+06
1.81929e+06
1.72458e+06
1.81397e+06
2.01213e+06
1.63039e+06
1.85084e+06
2.3316e+06
1.79871e+06
2.10147e+06
2.77596e+06
2.20331e+06
2.60499e+06
3.34212e+06
2.79819e+06
3.4694e+06
2.67702e+06
2.88255e+06
2.75201e+06
2.0197e+06
2.41771e+06
2.18725e+06
1.65181e+06
2.22066e+06
1.79277e+06
1.63203e+06
2.21761e+06
1.62972e+06
1.90079e+06
2.33025e+06
1.7534e+06
2.34356e+06
2.53142e+06
2.15095e+06
2.90849e+06
2.84983e+06
2.78595e+06
3.5696e+06
3.33253e+06
3.23429e+06
2.53316e+06
3.07852e+06
2.75997e+06
2.18527e+06
2.48873e+06
2.4808e+06
2.12839e+06
2.10774e+06
2.32326e+06
2.24474e+06
1.92232e+06
2.24264e+06
2.43831e+06
1.92816e+06
2.23932e+06
2.67407e+06
2.10448e+06
2.36612e+06
2.97709e+06
2.44236e+06
2.71767e+06
3.39686e+06
2.9572e+06
3.46189e+06
2.68395e+06
3.01487e+06
2.81828e+06
2.10214e+06
2.7276e+06
2.34332e+06
1.85889e+06
2.66649e+06
2.04165e+06
1.93063e+06
2.71257e+06
1.92739e+06
2.21008e+06
2.79233e+06
2.02447e+06
2.60714e+06
2.89164e+06
2.3508e+06
3.10324e+06
3.06369e+06
2.92357e+06
3.70297e+06
3.3796e+06
3.29742e+06
2.61836e+06
3.03489e+06
2.97391e+06
2.4195e+06
2.50815e+06
2.83169e+06
2.50432e+06
2.2398e+06
2.76822e+06
2.69516e+06
2.17994e+06
2.72182e+06
2.89607e+06
2.27026e+06
2.68515e+06
3.0829e+06
2.47148e+06
2.72142e+06
3.29735e+06
2.78853e+06
2.96897e+06
3.61387e+06
3.27552e+06
3.77966e+06
3.13252e+06
3.33653e+06
3.18378e+06
2.96669e+06
2.81789e+06
2.72761e+06
3.03803e+06
2.46449e+06
2.40218e+06
3.19457e+06
2.27014e+06
2.22205e+06
3.36505e+06
2.24745e+06
2.24492e+06
3.52167e+06
2.43474e+06
2.55037e+06
3.83725e+06
2.87234e+06
3.24611e+06
4.34906e+06
3.62772e+06
3.64637e+06
3.03418e+06
3.42713e+06
3.08357e+06
2.89962e+06
3.19638e+06
2.6514e+06
3.00792e+06
3.18359e+06
2.36516e+06
3.19145e+06
3.26732e+06
2.22249e+06
3.38016e+06
3.37625e+06
2.27447e+06
3.56842e+06
3.48954e+06
2.63164e+06
3.8422e+06
3.62421e+06
3.25738e+06
4.26883e+06
4.00933e+06
4.0274e+06
3.0799e+06
4.03887e+06
2.97657e+06
2.19861e+06
3.1606e+06
2.05349e+06
1.55913e+06
2.47155e+06
1.28245e+06
1.31379e+06
2.01851e+06
866785
1.58229e+06
1.88252e+06
1.21217e+06
2.20024e+06
2.10298e+06
2.04003e+06
2.98735e+06
2.58105e+06
2.9985e+06
3.9371e+06
3.21794e+06
3.96033e+06
3.08703e+06
3.21715e+06
2.99057e+06
2.36489e+06
2.3347e+06
2.16325e+06
1.87111e+06
1.5785e+06
1.5054e+06
1.68511e+06
1.08949e+06
1.15366e+06
1.86105e+06
1.1835e+06
1.36123e+06
2.37307e+06
1.84826e+06
2.05883e+06
3.00141e+06
2.64041e+06
2.8585e+06
3.6901e+06
3.54706e+06
4.13712e+06
3.14558e+06
3.21327e+06
3.07774e+06
2.1198e+06
2.09556e+06
2.21285e+06
1.30854e+06
1.27876e+06
1.51598e+06
877087
1.03764e+06
1.11566e+06
1.18616e+06
1.42953e+06
1.30593e+06
1.96256e+06
2.01017e+06
2.02801e+06
2.85353e+06
2.68766e+06
2.86185e+06
3.79438e+06
3.65115e+06
3.80302e+06
2.89706e+06
3.73162e+06
2.81958e+06
1.97564e+06
2.91855e+06
2.04264e+06
1.25168e+06
2.26437e+06
1.41062e+06
935783
1.70884e+06
1.10007e+06
1.2638e+06
1.36626e+06
1.33158e+06
1.87129e+06
1.47963e+06
1.89183e+06
2.768e+06
2.00139e+06
2.80004e+06
3.70486e+06
2.98054e+06
3.84677e+06
2.9288e+06
3.06875e+06
2.85286e+06
2.01133e+06
2.05456e+06
2.0619e+06
1.38444e+06
1.28867e+06
1.40193e+06
1.13165e+06
815709
1.06221e+06
1.4169e+06
1.05598e+06
1.30708e+06
2.00235e+06
1.69645e+06
1.9194e+06
2.79622e+06
2.74917e+06
2.84209e+06
3.75998e+06
3.61164e+06
3.62126e+06
2.83833e+06
3.54423e+06
2.78862e+06
1.97483e+06
2.81951e+06
2.07077e+06
1.39174e+06
2.17252e+06
1.51151e+06
1.15525e+06
1.64478e+06
1.22459e+06
1.4077e+06
1.36225e+06
1.38668e+06
2.01478e+06
1.4978e+06
1.96341e+06
2.7392e+06
2.06018e+06
2.72882e+06
3.5936e+06
2.9278e+06
3.71354e+06
2.89944e+06
2.93566e+06
2.84819e+06
1.98892e+06
2.11591e+06
2.08002e+06