/*--------------------------------*- C++ -*----------------------------------*\
| =========                 |                                                 |
| \\      /  F ield         | OpenFOAM: The Open Source CFD Toolbox           |
|  \\    /   O peration     | Version:  v2012                                 |
|   \\  /    A nd           | Website:  www.openfoam.com                      |
|    \\/     M anipulation  |                                                 |
\*---------------------------------------------------------------------------*/
FoamFile
{
    version     2.0;
    format      ascii;
    class       volVectorField;
    location    "4";
    object      D_0;
}
// * * * * * * * * * * * * * * * * * * * * * * * * * * * * * * * * * * * * * //

dimensions      [0 1 0 0 0 0 0];


internalField   nonuniform List<vector> 
1896
(
(0.0018251 -2.39186e-05 0)
(0.00170794 -0.000138416 0)
(0.00178508 -8.03584e-06 0)
(0.000415322 -0.00062857 0)
(0.00179904 -2.23922e-05 0)
(0.0017818 -2.44183e-05 0)
(0.000378655 -0.000659377 0)
(0.00165818 -2.41214e-05 0)
(0.00115256 -0.000106629 0)
(0.00164955 -1.65082e-05 0)
(0.00184879 -3.78701e-06 0)
(0.00142921 -1.65739e-05 0)
(0.00148616 -1.12091e-05 0)
(0.00144234 -1.4212e-05 0)
(0.000461553 -0.000578565 0)
(0.000158198 -0.000832151 0)
(0.00148876 -0.000170899 0)
(0.000300538 -0.000732673 0)
(0.0013845 -0.000149982 0)
(0.000876572 -0.000450123 0)
(0.0013206 -0.000123001 0)
(0.00165799 -0.000101408 0)
(0.0007115 -0.000353993 0)
(0.000672989 -0.000379194 0)
(0.00164613 -0.000140805 0)
(0.00166514 -0.000134565 0)
(0.0014867 -7.90282e-06 0)
(0.00151406 -8.77353e-06 0)
(0.0018359 -2.06425e-05 0)
(0.00123092 -0.000149251 0)
(0.00125598 -0.000142787 0)
(0.0017003 -0.000167525 0)
(0.00140185 -1.22094e-05 0)
(0.0017119 -0.000143391 0)
(0.00096278 -0.000268876 0)
(0.00187116 -2.3625e-05 0)
(0.00129773 -0.000139165 0)
(0.00178597 -8.9431e-05 0)
(0.000264435 -0.000755834 0)
(0.00119154 -0.000152958 0)
(0.00168284 -0.000189094 0)
(0.000664194 -0.000521953 0)
(0.00129597 -9.09596e-05 0)
(0.000773853 -0.000328277 0)
(0.00150966 -6.24831e-06 0)
(0.00149596 -5.4347e-06 0)
(0.000416626 -0.000618793 0)
(0.00184944 -9.96774e-06 0)
(0.000707249 -0.000362341 0)
(0.000372822 -0.000650874 0)
(0.00177832 -1.14604e-05 0)
(0.00170624 -2.5281e-05 0)
(0.00169102 -2.38931e-05 0)
(0.00166694 -0.000103819 0)
(0.00113145 -0.000113255 0)
(0.00158036 -0.000201729 0)
(0.000974639 -0.000188623 0)
(0.00185832 -2.81391e-05 0)
(0.00182399 -7.29445e-05 0)
(0.00130113 -0.000217995 0)
(0.00166244 -1.9669e-05 0)
(0.000407329 -0.000618262 0)
(0.00043083 -0.000592404 0)
(0.00173038 -4.95421e-05 0)
(0.000933216 -0.000452708 0)
(0.00168373 -0.000183157 0)
(0.000841593 -0.000283958 0)
(0.00138221 -3.18172e-05 0)
(0.00176616 -8.30809e-05 0)
(0.0008168 -0.000300484 0)
(0.00143012 -3.4642e-06 0)
(0.000501656 -0.00052818 0)
(0.00176813 -8.71337e-05 0)
(0.0015963 -0.000203124 0)
(0.0009359 -0.000283101 0)
(0.00168431 -0.000134201 0)
(0.00168591 -0.000141366 0)
(0.0017887 -5.02994e-05 0)
(0.00177582 -5.4972e-05 0)
(0.00151996 -8.4852e-05 0)
(0.00071679 -0.000509161 0)
(0.000730326 -0.000344486 0)
(0.00156244 -6.83293e-06 0)
(0.00158493 -2.77508e-05 0)
(0.00159498 -2.45296e-05 0)
(0.00146938 -0.000114438 0)
(0.00143287 -4.59048e-05 0)
(0.00142957 -4.16085e-05 0)
(0.00101791 -0.000168334 0)
(0.00133857 -6.5417e-05 0)
(0.00151454 -5.82822e-05 0)
(8.88959e-05 -0.000757129 0)
(0.00124999 -6.11603e-05 0)
(0.00047817 -0.000627635 0)
(0.000647139 -0.000396583 0)
(0.00164848 -0.000121553 0)
(0.00179117 -0.000111181 0)
(0.00189864 -1.47765e-05 0)
(0.00178532 -0.000124726 0)
(0.00133333 -4.9128e-05 0)
(0.00132812 -5.41852e-05 0)
(0.00137834 -3.09424e-05 0)
(0.00172704 -4.59589e-05 0)
(0.00123337 -6.73096e-05 0)
(0.00113637 -0.000106481 0)
(0.00130909 -8.22995e-05 0)
(0.00148839 -0.000113743 0)
(0.000685226 -0.000406829 0)
(0.000799753 -0.000293344 0)
(4.52893e-05 -0.000776247 0)
(0.00190255 -1.57839e-05 0)
(0.00179772 -0.000116009 0)
(0.000891973 -0.000237242 0)
(0.000996208 -0.000175519 0)
(0.000365292 -0.00070407 0)
(0.0014161 -5.14183e-05 0)
(0.00158329 -3.59828e-06 0)
(0.00144146 -5.94699e-05 0)
(0.00080476 -0.000364725 0)
(0.00127208 -0.000147606 0)
(0.000769526 -0.000376685 0)
(0.0011508 -0.000110176 0)
(0.00176951 -9.65211e-05 0)
(0.00156618 -1.6604e-05 0)
(0.00156556 -1.41428e-05 0)
(0.00102427 -0.000168196 0)
(0.000705131 -0.00038414 0)
(0.00164179 -2.5212e-05 0)
(0.00137671 -0.000187836 0)
(0.00128813 -5.92375e-05 0)
(0.00127095 -6.33569e-05 0)
(0.00151348 -6.30879e-05 0)
(0.000861458 -0.000254764 0)
(0.000525514 -0.000610407 0)
(0.00140239 -0.000151237 0)
(0.00042221 -0.000596276 0)
(0.000549788 -0.00052641 0)
(0.000500031 -0.000563188 0)
(0.00170425 -0.000173923 0)
(0.00110376 -0.000161938 0)
(0.00173003 -9.36254e-05 0)
(0.000799283 -0.000300028 0)
(0.00117695 -0.000152152 0)
(0.000148914 -0.000852198 0)
(0.00156733 -4.42831e-05 0)
(0.00150755 -0.000139708 0)
(0.00153184 -0.00013795 0)
(0.00135899 -0.000185043 0)
(0.000627495 -0.000410342 0)
(0.00144008 -5.48551e-05 0)
(0.00149457 -1.24563e-05 0)
(0.00176759 -0.000116103 0)
(0.00171899 -9.29954e-05 0)
(0.00172263 -6.23718e-05 0)
(0.00169282 -6.30756e-05 0)
(0.000910068 -0.000222258 0)
(0.00157133 -3.63894e-06 0)
(0.000905585 -0.000225403 0)
(0.000322879 -0.000720509 0)
(0.00171595 -1.54111e-05 0)
(0.00172009 -2.25864e-05 0)
(0.00082472 -0.000320073 0)
(0.00113043 -0.000123793 0)
(0.00181209 -6.94654e-05 0)
(0.000101983 -0.000847855 0)
(0.00163618 -1.75955e-05 0)
(1.50176e-05 -0.000922791 0)
(0.00186118 -2.30778e-05 0)
(0.00186628 -2.00253e-05 0)
(0.00174862 -0.000125458 0)
(0.00175128 -0.000131048 0)
(0.00166371 -0.000180114 0)
(0.0013941 -1.57879e-05 0)
(0.00140309 -1.44625e-05 0)
(0.000486485 -0.000569516 0)
(0.00045067 -0.00059783 0)
(0.000660423 -0.000394827 0)
(0.00164714 -0.000127736 0)
(0.00185816 -6.98025e-06 0)
(0.00118546 -8.59803e-05 0)
(0.0013929 -1.57221e-05 0)
(0.00129776 -0.000199725 0)
(0.00173263 -6.46435e-05 0)
(0.000653716 -0.000397471 0)
(0.000469219 -0.00057508 0)
(7.5405e-05 -0.000852052 0)
(0.00136345 -4.77222e-05 0)
(0.000228183 -0.000788459 0)
(0.00135514 -3.20158e-05 0)
(0.00133502 -4.49e-05 0)
(0.000572847 -0.000500886 0)
(0.00185911 -1.22108e-05 0)
(0.000828699 -0.000282023 0)
(0.000414082 -0.000563338 0)
(0.000827221 -0.000472258 0)
(0.00138676 -2.29893e-05 0)
(0.00131451 -9.09458e-05 0)
(0.000815306 -0.000300323 0)
(0.00140029 -2.07519e-05 0)
(0.00156381 -9.35551e-06 0)
(0.00141505 -4.1254e-05 0)
(0.000769373 -0.000468905 0)
(0.00185111 -1.4948e-05 0)
(0.0017023 -6.62363e-05 0)
(0.00024223 -0.0007766 0)
(0.00170313 -5.71674e-05 0)
(0.00073924 -0.00033931 0)
(0.00101062 -0.000225483 0)
(0.0013638 -1.47525e-05 0)
(0.00157745 -0.000195753 0)
(0.000855713 -0.000305376 0)
(0.00131718 -0.000140362 0)
(0.00157247 -0.000160624 0)
(0.00157916 -0.000166424 0)
(0.00143368 -2.13918e-05 0)
(0.00120175 -7.89069e-05 0)
(0.000783729 -0.000433382 0)
(0.00114024 -0.000218837 0)
(0.00116843 -0.000213439 0)
(0.00121679 -0.000144896 0)
(0.00131838 -5.57984e-05 0)
(0.00167267 -6.5738e-05 0)
(0.000512588 -0.000487926 0)
(0.000772426 -0.000311505 0)
(0.00180839 -0.000101459 0)
(0.00113114 -0.000151751 0)
(0.000556907 -0.000534033 0)
(0.00153852 -0.00012399 0)
(7.52675e-05 -0.000899597 0)
(0.00171833 -0.000157852 0)
(6.92743e-05 -0.000910439 0)
(0.00169106 -2.04103e-05 0)
(0.00170206 -1.62343e-05 0)
(0.00191272 -8.13136e-06 0)
(0.00178347 -0.000142587 0)
(0.0016694 -3.89708e-05 0)
(0.00139933 -2.92094e-05 0)
(0.00076379 -0.000358404 0)
(0.000140041 -0.0008486 0)
(0.00132226 -0.000215938 0)
(0.000599577 -0.000508918 0)
(0.000682686 -0.00039638 0)
(0.00143531 -2.38592e-05 0)
(0.000162134 -0.000832251 0)
(0.001665 -9.58967e-05 0)
(0.00141122 -1.76696e-05 0)
(0.00184092 -6.53551e-05 0)
(0.00142406 -1.52463e-05 0)
(0.00142784 -1.19548e-05 0)
(0.00103721 -0.000214326 0)
(0.000985609 -0.000263988 0)
(0.00127219 -9.84421e-05 0)
(0.00171502 -0.000152765 0)
(0.00188595 -6.89942e-06 0)
(0.00174302 -0.000163035 0)
(0.00163174 -7.78823e-05 0)
(0.00129464 -4.65396e-05 0)
(0.000176459 -0.000831365 0)
(0.000467659 -0.00056042 0)
(0.00096817 -0.000254421 0)
(0.00139408 -0.000198713 0)
(0.00130032 -0.000134251 0)
(0.00129176 -0.0001214 0)
(0.00142587 -3.32161e-05 0)
(0.00147259 -0.00017837 0)
(0.00110366 -0.000121027 0)
(2.42626e-05 -0.000927132 0)
(0.00131373 -4.73746e-05 0)
(0.00128752 -0.000209358 0)
(0.00164179 -7.2823e-05 0)
(0.00132278 -4.95005e-05 0)
(0.00138436 -9.522e-06 0)
(0.000396015 -0.000582743 0)
(0.00144711 -9.87479e-06 0)
(0.00148523 -0.000162275 0)
(0.00131797 -3.79294e-05 0)
(0.000823404 -0.0002798 0)
(0.00185888 -4.31322e-05 0)
(0.00158392 -7.77662e-05 0)
(0.00183359 -4.01335e-06 0)
(0.00166378 -0.000185623 0)
(0.000990237 -0.000227608 0)
(0.00135444 -2.57027e-05 0)
(0.00169803 -0.000189008 0)
(0.00155113 -0.000118249 0)
(0.00017779 -0.000824182 0)
(0.00147648 -9.31553e-05 0)
(0.00141912 -5.61213e-05 0)
(0.00151067 -8.07731e-05 0)
(0.00185884 -1.49184e-06 0)
(0.000128011 -0.000859033 0)
(0.00136145 -0.000141137 0)
(0.0013077 -0.000128769 0)
(0.00145801 -9.93504e-05 0)
(2.27057e-05 -0.000873483 0)
(0.00143664 -1.94291e-06 0)
(0.000169657 -0.000810856 0)
(0.00140052 -4.52372e-05 0)
(0.000228002 -0.000788267 0)
(0.00126871 -0.000101437 0)
(0.000218324 -0.000799798 0)
(0.00129518 -0.000126519 0)
(0.000614058 -0.00042146 0)
(0.000377529 -0.000655663 0)
(0.00168174 -8.25407e-05 0)
(0.00161667 -4.44927e-05 0)
(0.0016004 -4.44179e-05 0)
(0.00137113 -1.99693e-05 0)
(0.00137552 -1.98019e-05 0)
(0.00160343 -7.52672e-05 0)
(0.00180183 -6.94851e-05 0)
(0.00135341 -6.52333e-05 0)
(0.00141946 -1.25083e-05 0)
(0.00188352 -1.65065e-05 0)
(0.0017669 -0.000130166 0)
(0.00136576 -0.000177452 0)
(0.00163497 -1.71136e-06 0)
(0.0017873 -8.34661e-05 0)
(0.00125451 -9.99777e-05 0)
(0.00178808 -6.65412e-05 0)
(0.00155125 -4.49702e-05 0)
(0.000316956 -0.000682734 0)
(0.000283533 -0.00071346 0)
(0.00120194 -0.000101441 0)
(0.00133469 -3.23379e-05 0)
(0.00133195 -7.66629e-05 0)
(0.00125318 -9.59293e-05 0)
(0.00136621 -2.3049e-05 0)
(0.00180827 -3.43824e-05 0)
(0.00172705 -0.000119268 0)
(0.00133881 -6.97887e-05 0)
(0.0014126 -0.000217103 0)
(0.00188815 -8.53093e-06 0)
(0.00175033 -0.000155284 0)
(0.00165113 -1.25966e-05 0)
(0.00133689 -9.23351e-05 0)
(0.00141744 -2.34364e-05 0)
(0.000607197 -0.000424137 0)
(0.00180905 -3.12494e-05 0)
(0.00171924 -0.000125463 0)
(0.00112537 -0.000121326 0)
(0.00130228 -0.00010116 0)
(0.00117572 -0.000129942 0)
(0.00115245 -9.90813e-05 0)
(0.00151274 -1.38217e-05 0)
(0.00136388 -0.000158396 0)
(0.001365 -0.000132372 0)
(0.000431572 -0.000658012 0)
(0.0013753 -4.75708e-05 0)
(0.00134122 -7.28134e-05 0)
(0.0013353 -3.82562e-05 0)
(0.00179477 -3.86162e-05 0)
(0.000998484 -0.000197181 0)
(0.00144376 -9.88354e-05 0)
(0.00145032 -0.000161377 0)
(0.00134325 -0.000160059 0)
(0.00109653 -0.000343654 0)
(0.000307592 -0.000725941 0)
(0.00139274 -5.41549e-05 0)
(0.000792595 -0.000346753 0)
(0.00101433 -0.000182133 0)
(3.85101e-05 -0.000880861 0)
(0.000268617 -0.00075128 0)
(0.0012431 -0.000123254 0)
(0.00169821 -0.000121747 0)
(0.00150309 -0.000154622 0)
(0.0010303 -0.000179294 0)
(0.00105589 -0.000170543 0)
(0.00144913 -7.69231e-05 0)
(4.89908e-05 -0.000932574 0)
(0.000405985 -0.000624688 0)
(0.00145038 -1.19664e-05 0)
(0.00190645 -7.27626e-06 0)
(0.00177144 -0.000150485 0)
(0.00169916 -0.000128076 0)
(0.00127056 -5.41022e-05 0)
(0.000342442 -0.000711588 0)
(0.000984059 -0.000187044 0)
(0.00145928 -4.83149e-05 0)
(0.00138886 -5.08105e-05 0)
(0.00141444 -3.73018e-05 0)
(0.00172398 -0.000170675 0)
(0.0012916 -6.26997e-05 0)
(0.00178027 -6.50262e-05 0)
(0.00128752 -4.83923e-05 0)
(0.00187307 -3.78849e-05 0)
(0.000225134 -0.000782335 0)
(0.00171313 -0.000117439 0)
(0.00187359 -6.03218e-06 0)
(0.000229416 -0.000779772 0)
(0.00163433 -2.8778e-05 0)
(0.00179759 -2.97177e-05 0)
(0.00025516 -0.000715543 0)
(0.0005277 -0.000644215 0)
(0.00167046 -4.57654e-05 0)
(0.00131876 -4.45665e-05 0)
(0.00123248 -0.000181446 0)
(0.00102992 -0.000193824 0)
(0.00162529 -9.15772e-05 0)
(0.0016233 -8.72455e-05 0)
(0.00144131 -8.37382e-05 0)
(6.36272e-05 -0.000923772 0)
(0.00138753 -0.00020688 0)
(0.00142702 -1.93808e-06 0)
(0.00122892 -0.000175399 0)
(0.00105614 -0.000175377 0)
(0.00150814 -9.12985e-05 0)
(0.000530754 -0.000477123 0)
(0.00145416 -7.82813e-06 0)
(0.000198695 -0.000783301 0)
(0.00120721 -8.89715e-05 0)
(0.00154189 -1.99669e-05 0)
(0.00153183 -1.82199e-05 0)
(0.000157403 -0.000851191 0)
(0.00105278 -0.000195563 0)
(0.00105538 -0.000201262 0)
(0.00166415 -6.19795e-05 0)
(4.11324e-05 -0.000843343 0)
(0.00118608 -9.76137e-05 0)
(0.00161113 -3.61253e-05 0)
(0.001079 -0.000135369 0)
(0.00191151 -3.58804e-06 0)
(0.00176764 -0.000163777 0)
(0.000507239 -0.000542986 0)
(0.00114536 -0.000151945 0)
(0.00134801 -5.89962e-05 0)
(0.00129808 -6.3197e-05 0)
(0.00128516 -0.000226963 0)
(0.00041187 -0.000640682 0)
(0.000375471 -0.000670377 0)
(0.00120416 -0.000171994 0)
(0.00102225 -0.000192445 0)
(0.00122505 -9.63551e-05 0)
(0.00157946 -0.000132595 0)
(0.00106699 -0.00015071 0)
(0.00108048 -0.000142055 0)
(0.00164968 -0.000179759 0)
(2.44114e-05 -0.000833844 0)
(0.000927424 -0.000258165 0)
(0.00180609 -7.57444e-05 0)
(0.000960439 -0.000235499 0)
(0.00126167 -0.000194787 0)
(0.00167576 -5.73403e-05 0)
(0.000137819 -0.000855306 0)
(0.00189786 -4.44242e-06 0)
(0.00175324 -0.000165858 0)
(0.00159056 -5.51068e-05 0)
(0.00168374 -3.70719e-05 0)
(0.00188114 -3.11961e-05 0)
(0.0014133 -0.000193485 0)
(0.000406903 -0.000579929 0)
(0.00152938 -0.000110733 0)
(0.00152548 -0.000105187 0)
(0.00168399 -4.60528e-05 0)
(0.00149022 -9.45784e-05 0)
(0.00155561 -1.90889e-05 0)
(0.00167226 -5.38561e-05 0)
(0.00114742 -0.00011277 0)
(0.00123701 -0.000203638 0)
(0.00150536 -3.07148e-05 0)
(0.000707751 -0.00037195 0)
(0.00169201 -8.47879e-05 0)
(0.00109317 -0.0001608 0)
(0.00126455 -0.000158738 0)
(0.00134373 -0.00013164 0)
(0.000325393 -0.000664842 0)
(0.00108313 -0.000179678 0)
(0.00110741 -0.000174996 0)
(0.0018132 -8.97388e-06 0)
(0.00047127 -0.000662394 0)
(0.00177052 -3.7059e-05 0)
(0.00145573 -2.27134e-05 0)
(0.0015179 -0.000124758 0)
(0.00168498 -9.12746e-05 0)
(0.00175351 -9.864e-05 0)
(0.00153538 -5.40735e-05 0)
(0.00124867 -0.000127582 0)
(0.00138255 -6.01134e-06 0)
(0.00166602 -0.000116641 0)
(2.19073e-05 -0.000939101 0)
(0.00147171 -6.41801e-05 0)
(0.0016631 -1.09907e-05 0)
(0.00155381 -5.52799e-05 0)
(0.00175618 -4.03171e-05 0)
(0.00145483 -4.41097e-05 0)
(0.000530715 -0.00047424 0)
(0.00145089 -2.15522e-05 0)
(0.00125074 -0.000190065 0)
(0.00148623 -8.21699e-05 0)
(0.00132515 -0.000196611 0)
(0.00105436 -0.00018165 0)
(0.00147378 -8.68141e-05 0)
(0.00137448 -0.000194949 0)
(0.00186991 -3.58484e-05 0)
(0.000302864 -0.000726579 0)
(0.000400786 -0.000676989 0)
(0.00156071 -8.85502e-05 0)
(0.00153703 -0.000144869 0)
(0.00150285 -1.64906e-05 0)
(0.00146818 -0.000158965 0)
(0.00174402 -0.000113906 0)
(0.00156431 -9.92709e-05 0)
(0.00151931 -3.13343e-05 0)
(0.000541933 -0.000610743 0)
(0.00180755 -2.53492e-05 0)
(0.00138027 -1.89149e-05 0)
(0.00155507 -1.1638e-05 0)
(0.000616955 -0.000558123 0)
(0.001248 -6.28437e-05 0)
(0.00120247 -0.00021686 0)
(0.0012398 -6.67314e-05 0)
(0.00109953 -0.000123895 0)
(0.00150418 -1.1562e-06 0)
(0.00178086 -3.94684e-05 0)
(8.58677e-05 -0.000906458 0)
(0.000210862 -0.000794467 0)
(0.00147409 -1.29848e-05 0)
(0.0015457 -8.8102e-05 0)
(0.00175788 -5.23214e-05 0)
(0.00174567 -5.26043e-05 0)
(0.00180346 -6.9321e-06 0)
(0.00176349 -0.000111339 0)
(0.000295789 -0.000680702 0)
(0.00173195 -2.42065e-05 0)
(0.000529216 -0.000484773 0)
(0.0013598 -4.19702e-05 0)
(0.00137214 -4.1275e-05 0)
(0.000542589 -0.000472215 0)
(0.00164652 -9.09721e-05 0)
(0.00166247 -8.52532e-05 0)
(0.00178579 -1.47888e-05 0)
(0.00169015 -7.24617e-05 0)
(0.00154503 -1.21636e-05 0)
(0.00126644 -0.000126129 0)
(0.00174575 -4.82584e-05 0)
(0.00153388 -1.53525e-05 0)
(0.00161853 -0.000196033 0)
(6.65298e-05 -0.000923019 0)
(0.00122595 -0.000244036 0)
(0.000991239 -0.000262238 0)
(0.000410801 -0.000684403 0)
(0.00139491 -3.31706e-06 0)
(0.00118768 -0.000131048 0)
(0.00152783 -3.66134e-05 0)
(0.00151671 -3.54682e-05 0)
(0.00130775 -6.00697e-05 0)
(0.00092135 -0.000234872 0)
(0.00144556 -2.61701e-05 0)
(0.00147693 -4.67257e-05 0)
(0.0016077 -5.33342e-05 0)
(0.00171932 -8.04545e-06 0)
(0.00058842 -0.000453098 0)
(0.00101562 -0.000172813 0)
(0.00109127 -0.000144392 0)
(0.00155041 -5.52803e-06 0)
(0.000158279 -0.000851494 0)
(0.00106359 -0.000155341 0)
(0.000972237 -0.000224123 0)
(0.00158352 -9.56464e-05 0)
(0.000224479 -0.000766674 0)
(0.000241196 -0.000736922 0)
(0.00160645 -8.56936e-05 0)
(0.00153968 -0.000189744 0)
(0.000225246 -0.000786988 0)
(0.00180136 -8.62758e-05 0)
(0.000110803 -0.000850374 0)
(0.00149489 -1.61938e-06 0)
(0.00150159 -0.000132887 0)
(0.000757227 -0.000430264 0)
(0.00145724 -5.9009e-05 0)
(0.0012459 -6.18392e-05 0)
(0.00140984 -1.5627e-05 0)
(0.00137942 -1.73297e-05 0)
(0.000287757 -0.000741456 0)
(0.000702071 -0.000454459 0)
(0.000521009 -0.000505971 0)
(0.00181367 -4.0568e-05 0)
(0.00120186 -9.79664e-05 0)
(0.00118086 -0.000219877 0)
(0.00166498 -4.28544e-05 0)
(0.00131573 -4.7854e-05 0)
(0.000951706 -0.000253948 0)
(0.00160288 -0.000129664 0)
(0.00128148 -4.95655e-05 0)
(0.000969335 -0.000190931 0)
(0.00103665 -0.000164606 0)
(0.00141463 -5.56595e-06 0)
(0.00140124 -9.11424e-06 0)
(0.00136938 -2.54935e-05 0)
(0.000765608 -0.000325656 0)
(0.000497569 -0.000527815 0)
(0.0003012 -0.000726 0)
(0.000938402 -0.00021023 0)
(0.00140544 -9.00072e-06 0)
(0.000268633 -0.000753454 0)
(0.00153224 -2.09209e-06 0)
(0.00159034 -8.85298e-05 0)
(0.00113425 -0.000163392 0)
(0.000975716 -0.000217646 0)
(0.00134472 -5.26487e-05 0)
(0.00124549 -0.000213469 0)
(0.000208968 -0.000805192 0)
(9.00038e-06 -0.000937788 0)
(3.87887e-05 -0.000862591 0)
(0.000618117 -0.000466602 0)
(0.000350843 -0.00067383 0)
(0.000998761 -0.000239597 0)
(0.00102137 -0.00023705 0)
(0.00162294 -2.79578e-06 0)
(0.00180518 -1.84655e-05 0)
(0.0016176 -6.04516e-05 0)
(0.0015902 -1.36738e-06 0)
(0.00160693 -3.20346e-05 0)
(7.61911e-05 -0.000842737 0)
(0.00137694 -1.89629e-05 0)
(0.0018213 -7.81558e-05 0)
(0.00144073 -3.19134e-05 0)
(0.000269007 -0.000753343 0)
(0.000938785 -0.000207682 0)
(0.00146509 -1.32082e-05 0)
(0.00139811 -1.15362e-05 0)
(0.00107256 -0.000229768 0)
(0.00127179 -7.41983e-05 0)
(0.000466426 -0.000535959 0)
(0.00136116 -3.21385e-05 0)
(0.00166186 -7.10581e-05 0)
(0.000433333 -0.000562475 0)
(0.000494507 -0.000542093 0)
(0.00138767 -2.06231e-05 0)
(0.00158849 -0.000106371 0)
(0.00143599 -9.88631e-06 0)
(0.000224953 -0.000763675 0)
(0.00145079 -0.000179499 0)
(0.000828532 -0.000279492 0)
(0.000916935 -0.000277235 0)
(0.00178858 -5.90972e-05 0)
(0.00177588 -5.90761e-05 0)
(0.00130811 -9.80126e-05 0)
(0.000810794 -0.000291378 0)
(0.00127836 -5.37111e-05 0)
(0.00167128 -3.0685e-05 0)
(0.00167254 -2.6783e-05 0)
(0.00049611 -0.000543827 0)
(0.000362801 -0.000665957 0)
(0.00155432 -0.000191437 0)
(0.00101743 -0.000233701 0)
(0.00125774 -0.000179849 0)
(0.00183415 -1.75334e-05 0)
(0.000454681 -0.000564226 0)
(0.00153541 -0.000175636 0)
(0.0013353 -0.000189163 0)
(0.00150711 -2.77998e-05 0)
(0.0011507 -0.000239945 0)
(0.00113397 -0.000108488 0)
(0.000365946 -0.00063009 0)
(0.00160656 -6.45463e-05 0)
(0.000844381 -0.000284136 0)
(0.00122787 -8.39021e-05 0)
(0.000996939 -0.000217617 0)
(0.000860784 -0.00028988 0)
(0.00162075 -0.000168858 0)
(0.00172637 -0.000129089 0)
(0.00156828 -0.000128376 0)
(0.000925114 -0.000240394 0)
(0.000833675 -0.000300927 0)
(0.000913402 -0.000223506 0)
(0.00172218 -0.00010987 0)
(0.00179912 -1.51144e-05 0)
(0.00122578 -0.00013538 0)
(0.00138532 -0.000141657 0)
(0.00124956 -8.24441e-05 0)
(0.00156709 -5.22109e-05 0)
(0.00117309 -0.000141906 0)
(0.00108295 -0.000130486 0)
(0.00163273 -0.000119187 0)
(9.74123e-05 -0.000861255 0)
(0.000252978 -0.000735756 0)
(0.00029375 -0.000729557 0)
(0.00145045 -6.04919e-06 0)
(0.00163054 -4.06072e-05 0)
(0.00169902 -0.000152583 0)
(0.0014949 -0.000208528 0)
(1.57263e-05 -0.000892021 0)
(0.00132599 -3.63212e-05 0)
(0.00118918 -8.86019e-05 0)
(0.0012024 -8.15344e-05 0)
(0.00151519 -0.000205171 0)
(0.00177216 -2.24537e-05 0)
(0.000708266 -0.000370395 0)
(0.00139781 -0.000117924 0)
(0.00138624 -0.000114259 0)
(0.000858977 -0.000289205 0)
(0.00148471 -0.00021475 0)
(0.000287734 -0.000733551 0)
(0.00164395 -0.000146932 0)
(0.00167075 -0.000148112 0)
(0.001617 -0.000182054 0)
(0.00151317 -0.00011812 0)
(0.000337466 -0.000692166 0)
(0.00162795 -0.000186243 0)
(0.00188953 -2.01699e-05 0)
(0.00118935 -8.51698e-05 0)
(0.00143812 -0.000176395 0)
(0.00143846 -0.000167976 0)
(0.0012087 -7.76664e-05 0)
(0.00114714 -0.000140186 0)
(0.00157495 -0.000110204 0)
(0.000869498 -0.000292147 0)
(0.00149106 -3.75639e-06 0)
(0.000610909 -0.0004568 0)
(0.00102492 -0.000177216 0)
(0.00161907 -2.18597e-05 0)
(0.00104203 -0.000167055 0)
(0.00139375 -0.00021383 0)
(0.000258913 -0.000755012 0)
(0.00177559 -5.67192e-06 0)
(0.000230121 -0.000771585 0)
(0.000333164 -0.000694269 0)
(0.00100256 -0.000267768 0)
(0.001529 -0.000210106 0)
(0.00155096 -6.10088e-05 0)
(0.00156771 -0.000174874 0)
(0.00030729 -0.000660772 0)
(0.00145488 -4.12925e-06 0)
(0.000741085 -0.000330745 0)
(0.00142837 -7.85975e-06 0)
(0.00191734 -4.66241e-06 0)
(0.00177879 -0.000156029 0)
(0.0015848 -0.000189063 0)
(0.000728492 -0.00033888 0)
(0.00149444 -0.000147455 0)
(0.0015167 -3.80489e-06 0)
(0.00125833 -0.000178458 0)
(0.0015293 -4.31532e-06 0)
(0.000100755 -0.000896744 0)
(0.000449357 -0.000564643 0)
(0.00168389 -0.0001214 0)
(4.75039e-05 -0.000922113 0)
(0.00134821 -0.000124613 0)
(0.00141919 -1.00629e-05 0)
(0.00125363 -6.33267e-05 0)
(0.000960477 -0.000223738 0)
(0.00172411 -1.12782e-05 0)
(0.00147999 -3.28924e-06 0)
(0.00123901 -0.000145688 0)
(0.00179931 -4.18147e-05 0)
(0.00129544 -5.10078e-05 0)
(0.000129289 -0.000809921 0)
(0.00109219 -0.000126536 0)
(0.00175785 -6.34406e-05 0)
(0.00096212 -0.000242421 0)
(0.00135719 -8.83235e-05 0)
(0.000998403 -0.000217235 0)
(0.00151503 -0.000179352 0)
(0.00154282 -1.47986e-06 0)
(4.33216e-05 -0.000929614 0)
(0.000634025 -0.000431988 0)
(0.00174001 -0.000105829 0)
(0.000722483 -0.000353227 0)
(0.000115325 -0.000823511 0)
(0.00114763 -0.000119096 0)
(0.000615867 -0.000442585 0)
(0.00133283 -0.000107063 0)
(0.00147517 -4.82924e-06 0)
(0.00135404 -5.49465e-05 0)
(0.00100363 -0.000201741 0)
(0.00134188 -7.85973e-05 0)
(0.000515767 -0.000540915 0)
(0.000567544 -0.000472917 0)
(0.00104806 -0.00034871 0)
(0.0011564 -9.82652e-05 0)
(0.000546297 -0.000474381 0)
(0.000571507 -0.00048935 0)
(0.00114604 -0.000103931 0)
(0.00154249 -8.2969e-05 0)
(0.00121696 -0.000102537 0)
(0.00122756 -0.000102212 0)
(0.00137048 -2.7355e-05 0)
(0.00105411 -0.000255814 0)
(0.00136987 -2.95229e-05 0)
(0.0010027 -0.00019399 0)
(0.000992543 -0.000202455 0)
(0.000354804 -0.000663925 0)
(0.00163384 -4.94129e-05 0)
(0.00144412 -3.75721e-05 0)
(0.00159363 -1.2623e-05 0)
(0.00160314 -1.05505e-05 0)
(0.00171915 -8.551e-05 0)
(0.000338898 -0.000697991 0)
(0.00130099 -4.65284e-05 0)
(0.000571768 -0.000450457 0)
(0.000882796 -0.000257574 0)
(0.00173474 -3.74859e-05 0)
(0.00102271 -0.000399876 0)
(0.00170662 -7.48693e-06 0)
(0.00164594 -4.73337e-05 0)
(0.000979945 -0.000194109 0)
(0.00122693 -8.77593e-05 0)
(0.00145146 -2.08273e-06 0)
(0.00157265 -4.79653e-05 0)
(0.0017302 -9.78981e-05 0)
(0.00153559 -4.98645e-05 0)
(0.00134165 -3.78079e-05 0)
(0.00175474 -6.71844e-05 0)
(0.00131133 -7.28753e-05 0)
(0.00185895 -3.01613e-05 0)
(0.00118666 -0.000142435 0)
(0.00104994 -0.000147266 0)
(0.00102745 -0.000158661 0)
(0.00139033 -6.561e-06 0)
(0.00134784 -9.39782e-05 0)
(0.00152561 -8.27788e-06 0)
(0.00182262 -1.66941e-05 0)
(0.00154645 -0.000130717 0)
(0.0016474 -9.54613e-05 0)
(0.000209174 -0.000782139 0)
(0.00174978 -9.35885e-06 0)
(0.00127114 -8.76912e-05 0)
(0.001715 -3.21892e-05 0)
(0.000454341 -0.000532732 0)
(0.000974406 -0.000186013 0)
(0.00133291 -3.30258e-05 0)
(0.000990379 -0.000177146 0)
(0.000183111 -0.00082814 0)
(0.00134763 -7.06742e-05 0)
(0.00164448 -4.05943e-05 0)
(0.00173742 -3.76034e-06 0)
(0.00168072 -0.00015775 0)
(0.00121009 -0.000226727 0)
(0.00117895 -0.000170841 0)
(0.000971472 -0.000402654 0)
(0.00150652 -1.11067e-05 0)
(0.000485009 -0.000519111 0)
(0.00152409 -1.31151e-05 0)
(0.0016125 -0.00013358 0)
(8.78388e-05 -0.000904703 0)
(0.00161851 -5.70372e-06 0)
(0.00157893 -0.000120785 0)
(0.0010943 -0.00022739 0)
(0.00143796 -6.87191e-05 0)
(0.00145523 -6.4625e-05 0)
(0.00163378 -0.000198941 0)
(0.00152122 -0.000153874 0)
(0.00160514 -0.000169785 0)
(0.00126469 -0.000213984 0)
(0.00172435 -8.02849e-05 0)
(0.00127081 -5.77319e-05 0)
(0.0018271 -3.35193e-05 0)
(0.000382133 -0.00061075 0)
(0.00139674 -5.40267e-06 0)
(0.00154681 -0.00011114 0)
(0.00156056 -0.000107077 0)
(0.00183379 -4.76012e-05 0)
(0.00129407 -4.72513e-05 0)
(0.00142892 -0.000195356 0)
(0.00141029 -3.13777e-06 0)
(0.000604578 -0.000624531 0)
(0.00126346 -0.00014739 0)
(0.00139046 -0.000126037 0)
(0.00144602 -2.29772e-06 0)
(0.00157222 -0.000139202 0)
(0.000554744 -0.00047742 0)
(0.000564847 -0.000452941 0)
(0.000594833 -0.000430944 0)
(0.0015212 -0.000195697 0)
(0.00171404 -7.44e-05 0)
(0.00180589 -6.17622e-05 0)
(0.00169659 -7.57283e-05 0)
(0.000893044 -0.000241425 0)
(0.00152022 -7.62201e-05 0)
(0.00155416 -0.000144136 0)
(0.00089449 -0.000253932 0)
(0.00143073 -0.000211955 0)
(0.00121913 -0.000208408 0)
(0.00125189 -6.45358e-05 0)
(0.00123487 -6.85237e-05 0)
(0.00154813 -2.74982e-05 0)
(0.000448665 -0.000615209 0)
(0.00174848 -0.000108032 0)
(0.000813803 -0.00051684 0)
(0.00126995 -0.000132687 0)
(0.000737322 -0.000344473 0)
(0.00185443 -4.73514e-05 0)
(0.00115566 -0.000119867 0)
(0.00167682 -1.81008e-05 0)
(0.00159819 -3.96558e-05 0)
(0.000590857 -0.000435043 0)
(0.00136987 -2.49904e-05 0)
(0.000574281 -0.000444771 0)
(0.00133422 -0.000155403 0)
(0.00133939 -0.000147523 0)
(0.000484427 -0.000587174 0)
(0.00163234 -2.17445e-05 0)
(0.00190346 -1.08256e-05 0)
(0.00176326 -0.000138329 0)
(0.00177924 -0.000137282 0)
(0.00188713 -1.37949e-05 0)
(0.00111812 -0.000297516 0)
(0.00154515 -4.17271e-05 0)
(0.00184727 -4.37809e-05 0)
(0.00136412 -2.44577e-05 0)
(0.00135078 -2.98775e-05 0)
(0.00100152 -0.000279877 0)
(0.000924482 -0.000221645 0)
(0.000581423 -0.000456143 0)
(0.00126802 -8.88378e-05 0)
(0.000881187 -0.000399646 0)
(0.00147122 -0.000106963 0)
(0.00119209 -0.000165249 0)
(0.00088634 -0.000272406 0)
(0.000897194 -0.000267408 0)
(0.00172745 -7.05175e-05 0)
(0.0010829 -0.000173791 0)
(0.000728873 -0.000339444 0)
(0.000168237 -0.000823638 0)
(0.00113254 -0.000180217 0)
(0.00113184 -0.000188493 0)
(0.00174956 -6.75888e-06 0)
(0.000749897 -0.000325099 0)
(0.00141588 -2.11237e-05 0)
(0.00172589 -3.97127e-06 0)
(2.56395e-05 -0.000912732 0)
(0.000714131 -0.000393411 0)
(0.0016298 -0.000163272 0)
(0.00140835 -0.000134449 0)
(0.000784293 -0.000334354 0)
(0.00134727 -2.83336e-05 0)
(0.00135613 -2.55679e-05 0)
(0.00153176 -6.41318e-05 0)
(0.00175396 -3.06864e-05 0)
(0.00116553 -0.000291912 0)
(0.000274646 -0.000749326 0)
(0.00149153 -0.000120128 0)
(0.00121998 -0.000159147 0)
(0.00140858 -6.87646e-05 0)
(0.00139685 -6.74096e-05 0)
(0.00183326 -1.06578e-05 0)
(0.00075484 -0.00034987 0)
(0.000109346 -0.00088778 0)
(5.47011e-05 -0.000904491 0)
(0.00120895 -0.000124334 0)
(0.000891564 -0.000251695 0)
(0.00124273 -0.000206308 0)
(0.00124775 -8.72886e-05 0)
(0.00130353 -5.45141e-05 0)
(0.00139962 -6.23497e-05 0)
(0.00120009 -7.98793e-05 0)
(0.00124217 -0.000165508 0)
(0.000849808 -0.000259433 0)
(0.00147731 -6.78509e-05 0)
(0.000211076 -0.000759668 0)
(0.00116864 -9.95622e-05 0)
(0.000883427 -0.000239067 0)
(0.0011521 -0.000104586 0)
(0.000868948 -0.000250251 0)
(0.00112793 -0.000238547 0)
(0.00145098 -1.64843e-05 0)
(0.000833782 -0.000269535 0)
(0.00144859 -1.87475e-05 0)
(0.00154662 -0.000179312 0)
(0.00129433 -0.000111764 0)
(0.00106382 -0.00017246 0)
(0.00170996 -3.63649e-05 0)
(0.000203094 -0.000800342 0)
(0.000273622 -0.000743759 0)
(0.00128946 -0.000118339 0)
(0.00060332 -0.000425874 0)
(0.00171212 -4.64458e-05 0)
(0.00174095 -4.08351e-05 0)
(0.000871973 -0.000269292 0)
(0.00185442 -1.92245e-05 0)
(0.00177222 -3.39795e-05 0)
(0.000703143 -0.000372452 0)
(0.00153476 -2.74597e-05 0)
(0.00138463 -1.44727e-05 0)
(0.0011249 -0.000231149 0)
(0.00163959 -0.000112681 0)
(0.00135215 -3.49148e-05 0)
(1.61894e-05 -0.000945396 0)
(0.00154168 -3.48956e-05 0)
(0.00127935 -0.000177604 0)
(0.00133553 -0.000222954 0)
(0.000190989 -0.000800132 0)
(0.00179608 -1.56108e-06 0)
(0.00122889 -0.000224554 0)
(0.000707387 -0.000573387 0)
(0.00132653 -6.74513e-05 0)
(0.00169481 -5.48578e-05 0)
(0.000262427 -0.000757954 0)
(0.000337799 -0.000694903 0)
(0.00112629 -0.000146262 0)
(0.00133293 -3.9298e-05 0)
(0.00129769 -0.000168859 0)
(0.00127625 -0.000171559 0)
(0.00155602 -0.000161662 0)
(0.00118918 -0.000173282 0)
(0.000827976 -0.000273715 0)
(0.00172369 -1.85216e-05 0)
(0.00126735 -6.23475e-05 0)
(0.00123181 -7.65533e-05 0)
(0.000685299 -0.000379789 0)
(0.00142211 -2.78044e-05 0)
(0.00121068 -8.43255e-05 0)
(0.00145207 -2.76213e-05 0)
(0.000928344 -0.000212376 0)
(0.0014148 -1.87243e-06 0)
(0.000195983 -0.000812891 0)
(0.00134361 -5.28136e-05 0)
(0.000149065 -0.000830546 0)
(0.00161219 -0.000122695 0)
(0.00184227 -2.68663e-05 0)
(0.00182834 -2.71397e-05 0)
(0.000692213 -0.000372643 0)
(0.00140962 -0.000126976 0)
(0.00173218 -0.000139299 0)
(0.000164278 -0.000843379 0)
(0.000138936 -0.00086374 0)
(0.00128549 -0.000191392 0)
(0.00130051 -5.35792e-05 0)
(0.000636484 -0.000591918 0)
(0.00162295 -7.90325e-06 0)
(0.00140139 -1.73146e-06 0)
(0.00164712 -3.3026e-06 0)
(0.001429 -2.89186e-05 0)
(6.93032e-05 -0.000876646 0)
(0.00149381 -4.28467e-05 0)
(0.00149713 -3.87749e-05 0)
(0.00147856 -2.27556e-05 0)
(0.0012085 -8.07469e-05 0)
(0.00113486 -0.000172237 0)
(0.000584446 -0.000449288 0)
(0.00144764 -3.41389e-05 0)
(0.0010197 -0.000246433 0)
(0.00167977 -0.000170962 0)
(0.000979484 -0.000187117 0)
(0.000967491 -0.000195905 0)
(0.000798941 -0.000326197 0)
(0.000464134 -0.000567737 0)