/*--------------------------------*- C++ -*----------------------------------*\
| =========                 |                                                 |
| \\      /  F ield         | OpenFOAM: The Open Source CFD Toolbox           |
|  \\    /   O peration     | Version:  v2012                                 |
|   \\  /    A nd           | Website:  www.openfoam.com                      |
|    \\/     M anipulation  |                                                 |
\*---------------------------------------------------------------------------*/
FoamFile
{
    version     2.0;
    format      ascii;
    class       volScalarField;
    location    "4";
    object      epsilonEq;
}
// * * * * * * * * * * * * * * * * * * * * * * * * * * * * * * * * * * * * * //

dimensions      [0 0 0 0 0 0 0];


internalField   nonuniform List<scalar> 
1896
(
0.000460477
0.000587236
0.000457108
0.00111953
0.000461111
0.000469403
0.00113214
0.000447192
0.00071883
0.000427189
0.000441627
0.000365462
0.000345335
0.00035817
0.0011015
0.000679363
0.000658494
0.00130709
0.000697691
0.000750284
0.000602957
0.000571627
0.00100757
0.000998417
0.000598858
0.000588741
0.000300965
0.000342542
0.00046386
0.000752098
0.000753928
0.00059403
0.000297781
0.000582886
0.000967266
0.000460441
0.000727355
0.000546697
0.00129745
0.000768148
0.000589233
0.00111736
0.000681951
0.00103369
0.000306753
0.000318785
0.00110448
0.000446354
0.00104521
0.00103014
0.000448864
0.000456826
0.000455884
0.000571378
0.00077938
0.000613439
0.000912338
0.000462869
0.000539461
0.000754737
0.000439983
0.00102698
0.00103363
0.000504592
0.000530508
0.000594425
0.000951603
0.000483193
0.000540644
0.000989142
0.000223141
0.00105355
0.000540927
0.000613783
0.000980111
0.000586665
0.000587022
0.0005013
0.000504063
0.000590874
0.000964932
0.000987202
0.000351994
0.00043881
0.00043995
0.000639009
0.000534653
0.000511112
0.000878652
0.000620925
0.000540573
0.00211364
0.000601188
0.00127011
0.00103759
0.00058796
0.000573902
0.000437373
0.000581388
0.000568235
0.00060178
0.000489455
0.000495106
0.000662736
0.00077378
0.000652229
0.000632906
0.00109912
0.000956358
0.00213015
0.000444437
0.000576149
0.000929859
0.000882492
0.00184985
0.000552144
0.000359891
0.000568261
0.000977531
0.000736735
0.00104442
0.000743588
0.000554376
0.000400219
0.000381861
0.000872268
0.00108512
0.000448432
0.000717882
0.000615252
0.000627616
0.000555867
0.000927365
0.00121404
0.000688504
0.00101081
0.00111179
0.00117887
0.000589383
0.000803351
0.000554151
0.00102263
0.000788728
0.000913574
0.000499229
0.000641141
0.000635224
0.000725628
0.000992148
0.000555543
0.000346143
0.000566523
0.000555233
0.0005209
0.000523749
0.000924911
0.000368016
0.000944171
0.00191658
0.000443001
0.000460538
0.00102298
0.000755433
0.000526281
0.0010962
0.000426108
0.000721055
0.000452275
0.000453066
0.000578202
0.000577627
0.000600627
0.000360578
0.000333448
0.00113434
0.00114315
0.00103871
0.000590918
0.00044909
0.000725573
0.000335438
0.000756835
0.000522092
0.00102329
0.0011377
0.00104599
0.000572871
0.000943764
0.000765866
0.000411131
0.00113887
0.000451749
0.000994967
0.00099034
0.000736614
0.000430986
0.000665033
0.00103914
0.000402936
0.000373726
0.000527767
0.000959918
0.000447136
0.000529111
0.00101145
0.000513558
0.00102483
0.000885718
0.000769447
0.000621204
0.00102986
0.000715686
0.000629443
0.000622791
0.000412618
0.000681031
0.000887956
0.000842705
0.000843264
0.000768163
0.000414446
0.000531631
0.00105219
0.00096883
0.00056396
0.000802949
0.00117887
0.000623718
0.000816698
0.000587579
0.000700482
0.000443606
0.000448284
0.00043435
0.000585899
0.000481798
0.000480953
0.00106206
0.000966495
0.000761274
0.00109474
0.00108436
0.000430628
0.000971577
0.000564666
0.000382929
0.0005271
0.000367948
0.00030889
0.000888957
0.000749665
0.000693019
0.000591508
0.000432563
0.000588757
0.000551971
0.000517991
0.000903231
0.00104461
0.000932022
0.000706195
0.000646939
0.000513429
0.000486551
0.000675042
0.000785539
0.000701549
0.000579562
0.000781017
0.000546065
0.000589082
0.000295225
0.00099364
0.000297687
0.000662344
0.000495892
0.000947656
0.000494963
0.000560959
0.000452816
0.000594993
0.000904019
0.000403428
0.000589525
0.000613732
0.000776856
0.000614555
0.000565717
0.000587215
0.000444278
0.000651966
0.000703453
0.000707138
0.000629266
0.000978649
0.000199206
0.000738206
0.000533919
0.000971401
0.000523763
0.000908874
0.000721523
0.00100145
0.00107725
0.000550678
0.000490386
0.000499626
0.000376144
0.000358397
0.000556258
0.00052479
0.0006056
0.000330935
0.000446577
0.000578347
0.000714482
0.000399571
0.000542281
0.000703505
0.000521468
0.000501514
0.000896682
0.000888877
0.000725654
0.000447376
0.000649341
0.000704149
0.000423798
0.000480108
0.000570268
0.000439768
0.000702729
0.000440697
0.000586097
0.000419079
0.000718174
0.0004279
0.00100712
0.000474221
0.000577838
0.00076769
0.000458185
0.000771177
0.000734525
0.000373141
0.000715118
0.000693032
0.00128933
0.000545672
0.000530945
0.000411524
0.000482007
0.000893533
0.000633126
0.000668636
0.000714713
5.63987e-05
0.00121182
0.000570777
0.00101785
0.000868689
0.00092397
0.00115058
0.000463239
0.000576398
0.00064508
0.000837411
0.00084037
0.000594078
0.000590562
0.00106251
0.000339594
0.000425015
0.000588813
0.000577275
0.000607069
0.00155811
0.000910279
0.000529088
0.000563686
0.00050289
0.000589897
0.00050669
0.00051772
0.000571325
0.000488014
0.00117575
0.000569658
0.000439401
0.00108152
0.000452697
0.00047095
0.000846193
0.00152901
0.00049987
0.000453957
0.000779112
0.000858894
0.00057116
0.000566335
0.000616121
0.000615356
0.000715865
0.000188191
0.00078601
0.000814032
0.000603832
0.00101031
0.000295939
0.000742299
0.000713998
0.00040644
0.000393252
0.00082032
0.000857835
0.000855396
0.00052499
0.00117346
0.000725547
0.000476341
0.000828712
0.000422648
0.000589077
0.00110646
0.000783904
0.000593302
0.000463316
0.000779381
0.00117912
0.00114032
0.000442282
0.000850463
0.000707228
0.000613596
0.000828218
0.000801832
0.000601106
0.0013091
0.000905544
0.00052883
0.000932092
0.000766085
0.000518773
0.000880378
0.000432485
0.00058778
0.000518116
0.000481655
0.000475244
0.000699023
0.000972153
0.000615333
0.000613168
0.000494721
0.000611412
0.000404318
0.00051048
0.000773301
0.000449294
0.000461154
0.0010763
0.000552017
0.000822346
0.000758814
0.000702939
0.000910603
0.000828739
0.000822943
0.000456165
0.00151365
0.000481741
0.000420638
0.000627669
0.000557819
0.000551447
0.000531576
0.000736298
0.00033679
0.000579477
0.0006527
0.000569671
0.000425012
0.000523554
0.000485722
0.000515996
0.00104675
0.000413264
0.000785222
0.000597179
0.00075165
0.000844793
0.000604972
0.000719424
0.000477329
0.00111388
0.00125667
0.000581371
0.000630092
0.000375466
0.000670846
0.00056604
0.000591195
0.000453455
0.00135992
0.000470646
0.000314165
0.000370862
0.00108346
0.000626949
0.000824739
0.000672481
0.000793019
0.000295381
0.000488446
0.000542711
0.000799016
0.000342716
0.000588494
0.000504275
0.00050787
0.000449115
0.000568744
0.000885349
0.000460218
0.00100365
0.000551175
0.000524723
0.00100219
0.000564878
0.000555687
0.000461188
0.000537334
0.000376372
0.000728358
0.000496737
0.000375775
0.000604435
0.000567852
0.000352237
0.000959669
0.00149387
0.000199543
0.000749878
0.000472827
0.000477973
0.000614591
0.000949246
0.000445229
0.000522425
0.000518197
0.00043497
0.00105138
0.000848082
0.000783424
0.000349386
0.000811761
0.000857241
0.000898305
0.000588588
0.000803585
0.000824841
0.000569974
0.000638789
0.000880913
0.000550466
0.00103068
0.00028931
0.000644988
0.00094475
0.000558301
0.000621243
0.000352797
0.000269601
0.00151963
0.00106395
0.00102948
0.000484286
0.000721159
0.000829102
0.000490298
0.000581418
0.000952813
0.000605404
0.000577168
0.000890768
0.000841996
0.000226856
0.000246859
0.000315512
0.0010256
0.00102819
0.00108764
0.000918887
0.000229701
0.00105155
0.000325696
0.00057302
0.000807324
0.00088546
0.000569471
0.000793652
0.000848271
0.000620889
0.00106784
0.00112487
0.00101409
0.000923606
0.000908617
0.000395278
0.000464894
0.000530601
0.000373002
0.00045794
0.00123326
0.000308885
0.000539732
0.000477464
0.00113204
0.000891496
0.000353945
0.000286277
0.000888598
0.000659708
0.000998512
0.000334027
0.000538617
0.000976835
0.0010785
0.000395712
0.000593998
0.000312374
0.0015198
0.000676263
0.000933397
0.000910955
0.00051101
0.000509263
0.000686987
0.000962798
0.000568781
0.000466034
0.000457297
0.00111188
0.00106038
0.000633609
0.000802199
0.000770172
0.000457139
0.00101058
0.000643956
0.000735372
0.000436688
0.000859122
0.000778012
0.000943076
0.000535454
0.000994591
0.00069059
0.000870392
0.000983188
0.000613345
0.00057492
0.000615705
0.000959959
0.00102404
0.000905134
0.000563919
0.000453619
0.00074498
0.00069202
0.000680386
0.000521963
0.000781514
0.000819378
0.000590997
0.000937258
0.000833168
0.00102769
0.000255445
0.000488641
0.000590904
0.000651462
0.000895334
0.00043965
0.000711652
0.000670182
0.000647594
0.000464087
0.00105235
0.0006661
0.000676766
0.000985887
0.000661268
0.000990392
0.000600063
0.000595781
0.000613635
0.000629231
0.00108613
0.000608994
0.00044743
0.000717781
0.000682099
0.000684458
0.000686524
0.00077001
0.000599044
0.000985798
0.000279285
0.00111651
0.000859231
0.000435726
0.000827595
0.00070878
0.000891251
0.000445709
0.000818903
0.00103483
0.000947372
0.000637164
0.000543047
0.000630637
0.000918869
0.000262865
0.000966207
0.000273425
0.000426818
0.000588689
0.000620994
0.000985825
0.000654617
0.000319262
0.000487871
0.000322536
0.000651703
0.000996688
0.000578071
0.00071571
0.00069287
0.000280155
0.000627972
0.000882777
0.000447611
0.000280793
0.000497114
0.000489261
0.000582962
0.00143957
0.000795099
0.000521364
0.000914642
0.000647808
0.0008855
0.000648868
0.000331469
0.000606657
0.00110771
0.000561819
0.00102117
0.00118575
0.000775577
0.00109402
0.000678161
0.000271663
0.000777978
0.000864361
0.00071358
0.00115589
0.0010543
0.000342185
0.000736357
0.000995871
0.00111611
0.00076873
0.00058179
0.000725568
0.000710908
0.000456545
0.000911168
0.000479726
0.00085501
0.000879999
0.000984235
0.000502388
0.000500262
0.000393012
0.000399257
0.00054511
0.00115357
0.000565969
0.00100992
0.000996407
0.000481552
0.000272068
0.000439725
0.000501218
0.000877923
0.000699288
0.0002171
0.000505606
0.000553551
0.000514738
0.000358761
0.000520586
0.000461104
0.000466333
0.000763532
0.000832415
0.000871687
0.000223421
0.00066529
0.000335531
0.00045848
0.000622464
0.000569911
0.00127664
0.000446532
0.000677654
0.000475158
0.00102325
0.000904898
0.000479791
0.000876259
0.000922668
0.000626597
0.000482335
0.000436986
0.000591543
0.000815085
0.000551123
0.000517953
0.000340898
0.000987088
0.000364265
0.000601975
0.000755371
0.000389185
0.000605151
0.000879936
0.000585613
0.000576328
0.000598517
0.000647617
0.000614885
0.000788193
0.000541021
0.000630813
0.000473795
0.000942974
0.000189996
0.000609903
0.000603485
0.00049579
0.000581895
0.00069448
0.000208573
0.00143345
0.000436652
0.000679737
0.000238145
0.000620888
0.00103495
0.00101876
0.0010214
0.000645235
0.000533915
0.000514024
0.000540238
0.000959725
0.000575731
0.000628764
0.000924345
0.000692463
0.000807447
0.000584436
0.000645676
0.000435898
0.001153
0.000565485
0.000892868
0.000726744
0.00105096
0.000498229
0.000752041
0.000440292
0.00047995
0.00105931
0.000285398
0.00106762
0.000723414
0.00071058
0.00118284
0.000433589
0.000428938
0.00058351
0.000587977
0.000441811
0.000319019
0.000493656
0.000486893
0.000311502
0.000381805
0.000720481
0.000963408
0.00103195
0.000476015
0.000682216
0.000631131
0.000782191
0.000960174
0.000969758
0.000530326
0.000830737
0.000994832
0.00105736
0.000817694
0.000830453
0.000448259
0.000975145
0.000413767
0.00044457
0.000802942
0.00108105
0.000607563
0.000675945
0.00103982
0.00043902
0.000384443
0.00054926
0.00047823
0.000153032
0.00100364
0.00063498
0.000777739
0.000591192
0.000603602
0.000456425
0.0010705
0.000737894
0.00077181
0.000752261
0.000930333
0.000798786
0.000687715
0.000605638
0.000586645
0.00067044
0.00076231
0.000957184
0.000574368
0.00171605
0.00073711
0.000950393
0.000757964
0.000961349
0.00087789
0.000362017
0.000960818
0.000393682
0.00063585
0.000699577
0.000822162
0.000478648
0.00105144
0.000950132
0.000717035
0.00102345
0.000500878
0.000491181
0.000954648
0.000452291
0.000481341
0.00105677
0.000445143
0.000235247
0.000870884
0.000583178
0.000516317
0.000525744
0.00047197
0.000535549
0.000744339
0.00112958
0.000449553
0.000818642
0.00113079
0.000375251
0.000512325
0.000936896
0.00109069
0.000746896
0.000525688
0.000752013
0.000751852
0.000628431
0.000795832
0.000972232
0.000455651
0.000643043
0.000680473
0.00107195
0.000465892
0.000701948
0.000448861
0.000918501
0.000175025
0.000998091
0.000413411
0.00101269
0.000597541
0.000466715
0.000469157
0.00103776
0.000670503
0.000583787
0.000737059
0.00074156
0.000771066
0.000458751
0.00130912
0.000402381
0.000179738
0.000404957
0.000455531
0.000952334
0.000508367
0.000487712
0.000419549
0.000690354
0.000619237
0.00101943
0.000477567
0.000923463
0.000591803
0.00086653
0.000887386
0.00104545
0.00107542
0.000443103
0.000584296
0.000723709
0.00110573
0.000694068
0.000480331
0.000565693
0.000566772
0.00108988
0.00142298
0.000438565
0.000588051
0.000857329
0.000433485
0.000675962
0.00101585
0.000568362
0.000563255
0.000736592
0.000740338
0.000716988
0.0013723
0.000559236
0.000269245
0.000447761
0.00175084
0.000542468
0.00059162
0.000772705
0.000455728
0.000543961
0.000960063
0.00082333
0.000987275
0.000808864
0.000819722
0.00107011
0.000888306
0.000805788
0.000798103
0.000420091
0.000404177
0.000503185
0.000494691
0.000914859
0.000989966
0.00100165
0.00134732
0.00047266
0.000352192
0.000604292
0.00105343
0.000418453
0.000417792
0.000983885
0.000189588
0.000675132
0.000663799
0.000678987
0.0011827
0.000936396
0.000456716
0.0010689
0.000878643
0.000425179
0.000421529
0.000863818
0.000983182
0.000509608
0.000825408
0.000832107
0.00105739
0.000356359
0.000608158
0.000855247
0.000487005
0.000467504
0.000412337
0.000587358
0.00106236
0.000601422
0.000472464
0.000673391
0.000432326
0.000793804
0.000470076
0.000855713
0.00202497
0.000494299
0.000498696
0.000427806
0.00105625
0.000702033
0.00104356
0.00104473
0.000927552
0.000436853
0.000417476
0.000325744
0.000484534
0.000596582
0.000290093
0.000676437
0.000902548
0.000882902
0.000376928
0.000408491
0.000833721
0.000302222
0.000303317
0.00101301
0.000668526
0.000598391
0.000254376
0.000477902
0.000540102
0.000168826
0.000999052
0.000514797
0.000613322
0.00104394
0.000407171
0.000517386
0.000565089
0.000984122
0.00101373
0.00101914
0.00106416
0.000487586
0.0010247
0.000418613
0.000655065
0.000309166
0.000840403
0.000643244
0.000915578
0.000798525
0.000844778
0.000577222
0.000492417
0.000768047
0.000609604
0.00066291
0.000655364
0.000501041
0.000694505
0.000396533
0.000577216
0.000444792
0.000739646
0.000389588
0.000371953
0.000793534
0.000621794
0.000639637
0.000818499
0.00093691
0.000819164
0.000883146
0.000565548
0.000567123
0.00101924
0.000635262
0.000655721
0.000918162
0.000449398
0.000464096
0.00104112
0.00025507
0.000242269
0.000992596
0.000897497
0.000602603
0.000663721
0.000405718
0.0005199
0.000378059
0.000795291
0.000519543
0.000519216
0.000199803
0.000310394
0.000547546
0.00054581
0.000475207
0.000546547
0.000847674
0.000563649
0.000651586
0.000815491
0.000622527
0.000452681
0.000559773
0.000477164
0.000456413
0.00050882
0.00044442
0.000238641
0.000346344
0.00041251
0.000558714
0.00168735
0.0006141
0.000720762
0.000997074
0.000674937
0.000984357
0.0010008
0.000714166
0.000621787
0.000379612
0.000459468
0.000544848
0.000230966
0.000225772
0.000591973
0.000272624
0.000427029
0.000501346
0.000380492
0.000541577
0.000577954
0.00121207
0.000591353
0.001752
0.00116097
0.000800999
0.000969078
0.000477425
0.000469409
0.000468995
0.000653714
0.000539973
0.000344053
0.000576388
0.000996843
0.000968826
0.00094997
0.000950404
0.000804184
0.000867738
0.000891077
0.000937419
0.000560844
0.000554473
0.000833319
0.000470046
0.000550542
0.000834613
0.000642096
0.000542201
0.000551269
0.000540345
0.000435606
0.000452173
0.000422524
0.000744843
0.000596225
0.00211325
0.000843248
0.000865054
0.00100331
0.000858279
0.000339045
0.00034119
0.000624431
0.000818905
0.000478793
0.000851643
0.000730186
0.000599327
0.000694865
0.000702191
0.00145759
0.000553229
0.000861557
0.000448695
0.000557302
0.000444575
0.000237445
0.000423809
0.000570628
0.000522297
0.0012061
0.000855804
0.000347945
0.00214413
0.00057501
0.000954323
0.000445675
0.000445635
0.00066109
0.000567781
0.000634248
0.000797839
0.000723846
0.000436566
0.000582516
0.000533904
0.000958541
0.00112865
0.000531456
0.00031951
0.000999705
0.00101765
0.000959613
0.000554772
0.000744655
0.00073804
0.000377862
0.0005441
0.000788048
0.000694832
0.000938037
0.000712332
0.000246727
0.000599493
0.000431582
0.000431003
0.000899354
0.00166418
0.000442437
0.000458633
0.000500031
0.000221858
0.000466311
0.000469311
0.000745692
0.000488782
0.00055049
0.000542549
0.000469301
0.00102628
0.00101222
0.000721
0.000276489
0.000183549
0.000683103
0.000263565
0.000924004
0.00089953
0.000874247
0.000559543
0.000629449
0.000469378
0.000470631
0.000999661
0.000646431
0.000525662
0.000609569
0.000652041
0.00168028
0.000256459
0.000552302
0.000341391
0.000674534
0.000538506
0.00101842
0.000663917
0.00107655
0.000565867
0.000732694
0.00073559
0.000564125
0.000312216
0.000588307
0.000277544
0.000533662
0.000539126
0.00100893
0.000935966
0.000400481
0.000858439
0.00111416
0.000940583
0.00101943
0.000658845
0.000651023
0.000423356
0.000422553
0.000588316
0.000588766
0.000435175
0.00111049
0.00103883
0.000513965
0.000519197
0.0011604
0.000556016
0.00108035
0.000502718
0.0005463
0.000993016
0.000669846
0.000659948
0.000973773
0.000828145
0.000724949
0.000819884
0.000954403
0.000795774
0.000212498
0.000741622
0.00120666
0.000620979
0.000620665
0.000508262
0.000519195
0.000880784
0.000903159
0.000566563
0.000854738
0.000859801
0.00113641
0.000428875
0.000586849
0.000575958
0.000809583
0.00065214
0.0006619
0.0005789
0.00103058
0.000806154
0.000469493
0.00118758
0.000348793
0.000333715
0.000651782
0.000652224
0.000959157
0.000957682
0.000845757
0.000523455
0.000615416
0.00119496
0.000722614
0.000411022
0.000671529
0.000268449
0.000453037
0.00101261
0.000618843
0.000582165
0.000384078
0.000805597
0.0011006
0.000204907
0.000586715
0.000419904
0.000400501
0.00108235
0.000651491
0.000595263
0.000991834
0.000457407
0.000653118
0.000598903
0.000601059
0.000558132
0.000935405
0.000795321
0.000503349
0.000788838
0.000403153
0.000787333
0.000648501
0.00067753
0.000671947
0.000918357
0.000827695
0.000477013
0.000473641
0.000508467
0.000997623
0.000947564
0.000941966
0.000588715
0.00058765
0.000874396
0.000985856
0.000826608
0.000436085
0.000596903
0.00101198
0.000865517
0.000995681
0.000846073
0.000580351
0.000966525
0.00098345
0.000967684
0.000962094
0.000656993
0.00065896
0.000650915
0.000901157
0.000524665
0.000516212
0.000513568
0.000502733
0.000663171
0.000643498
0.000916237
0.000488598
0.000478532
0.000894877
0.000979359
0.000490518
0.000499357
0.000924146
0.000665764
0.000631143
0.000413379
0.00040222
0.00045487
0.00117484
0.000516382
0.000464335
0.000453594
0.000614651
0.000995119
0.000987359
0.000489406
0.000480798
0.000675238
0.000653739
0.000594589
0.000795292
0.000533781
0.000983529
0.000508338
0.000512864
0.00119293
0.000482183
0.000657152
0.000843748
0.00112125
0.00084142
0.000956279
0.00050454
0.00112953
0.000754458
0.000642743
0.00113727
0.000442115
0.00043812
0.000465942
0.0008193
0.000527103
0.000531076
0.000788049
0.000543493
0.000902552
0.000695054
0.000641564
0.000631271
0.000628519
0.000930518
0.000494812
0.000889493
0.000382497
0.000379881
0.000704669
0.000625114
0.000310977
0.000523685
0.000491337
0.000447343
0.000937949
0.000513142
0.00026489
0.000534582
0.000520811
0.00073289
0.000462308
0.000545237
0.000436616
0.000305366
0.000273651
0.000244567
0.00022839
0.000509182
0.000217637
0.000493689
0.00074464
0.000631115
0.000601921
0.000597042
0.00105912
0.000885799
0.000914185
0.000968798
0.000922282
0.000988523
0.000433924
0.000588495
0.000976924
0.0001815
0.00072608
0.000514508
0.000489823
0.000633825
0.00064072
0.000454284
0.000463543
0.000769137
0.00054803
0.000482704
0.000595481
0.000790707
0.000803957
0.00103632
0.0010747
0.000909535
0.000660547
0.0012259
0.000450511
0.000455
0.000948149
0.000379596
0.00107963
0.00060026
0.000997919
0.000618154
0.000661099
0.000482183
0.000999329
0.000424574
0.000600126
0.000438484
0.000576758
0.000719528
0.000731153
0.00100633
0.000474864
0.000476695
0.000420329
0.000665313
0.000670224
0.000620848
0.000421836
0.00101412
0.00061013
0.00040109
0.000430342
0.000691578
0.000930291
0.00086277
0.000987354
0.00052454
0.00107919
0.000961641
0.000830913
0.000584948
0.000579272
0.000577707
0.000579004
0.000761021
0.000984629
0.000595635
0.000544387
0.000646165
0.000627728
0.000201324
0.000895412
0.000901079
0.000698952
0.000500753
0.000723358
0.000619417
0.00041738
0.00073622
0.000525246
0.000610847
0.000656189
0.000824694
0.00101424
0.000622459
0.000630484
0.000613081
0.000898881
0.00101609
0.000800426
0.00106957
0.00100539
0.00108721
0.000488436
0.00100756
0.000529795
0.000437783
0.000727465
0.000492011
0.000497738
0.000467026
0.000627784
0.000637795
0.00100476
0.000653091
0.000902408
0.000607948
0.000702123
0.000689342
0.00100465
0.000483227
0.000860312
0.000377406
0.000482207
0.000664236
0.00100419
0.000304036
0.00101465
0.000555399
0.000454348
0.00047471
0.000479106
0.000458575
0.000738004
0.000660972
0.000872837
0.000642368
0.000866158
0.000608469
0.00112821
0.00122325
0.000801723
0.000474622
0.000629251
0.00127963
0.000742167
0.00107755
0.000532078
0.000686448
0.000590591
0.000517291
0.000355152
0.000469539
0.000531017
0.000641995
0.000585677
0.000606126
0.000603171
0.000551958
0.000572888
0.000616314
0.000688199
0.00067871
0.000749302
0.000248075
0.000472613
0.00105861
0.000675674
0.000497159
0.000414817
0.000410356
0.000508268
0.00050956
0.000600416
0.00063397
0.00113384
0.000829526
0.000714916
0.000491341
0.000634789
0.000489317
0.000993029
0.000988677
0.000357345
0.000358448
0.00045393
0.0006233
0.000466768
0.000638903
0.000502371
0.000505137
0.000732287
0.000784558
0.000423518
0.000903919
0.000615001
0.00062528
0.00053452
0.000835112
0.000612987
0.000877148
0.000879584
0.000918511
0.000671616
0.000742616
0.000957671
0.000978965
0.000498711
0.000502804
0.000551289
0.00057944
0.000616406
0.000499411
0.000450055
0.00042184
0.000554873
0.000387849
0.000638804
0.000958771
0.000605776
0.000694661
0.000690662
0.000798302
0.000799709
0.000499406
0.000672288
0.000535069
0.000530539
0.000578931
0.00092121
0.00072823
0.000708666
0.000288365
0.00092339
0.000920134
0.000931475
0.000791973
0.000608547
0.00042803
0.000588742
0.000587734
0.000431797
0.000786359
0.000620499
0.000454527
0.000455477
0.000522099
0.000727908
0.0007374
0.00101531
0.00100511
0.000737223
0.000758665
0.000740123
0.00068614
0.000683887
0.000770334
0.000961671
0.000969667
0.000601337
0.000595175
0.000666316
0.000707085
0.000703976
0.000783044
0.000472203
0.000380368
0.000381815
0.000983497
0.000940161
0.000717529
0.000709481
0.000734049
0.000722457
0.000444943
)
;

boundaryField
{
    back
    {
        type            empty;
    }
    front
    {
        type            empty;
    }
    down
    {
        type            symmetry;
    }
    right
    {
        type            calculated;
        value           nonuniform List<scalar> 
20
(
0.000442856
0.000576381
0.000565302
0.000429631
0.000586623
0.000527948
0.000486504
0.000474076
0.000425887
0.000588218
0.00045306
0.000436127
0.000581762
0.00055531
0.000544744
0.000422977
0.000588546
0.000502607
0.000516975
0.000463181
)
;
    }
    up
    {
        type            calculated;
        value           nonuniform List<scalar> 
40
(
0.000612333
0.000983307
0.00102956
0.000995088
0.000588671
0.000642941
0.000727048
0.000700763
0.000843417
0.000780429
0.00104793
0.000549377
0.000861685
0.0010601
0.000664364
0.0009431
0.000636089
0.000914488
0.000916413
0.000599126
0.00106251
0.000745381
0.000680676
0.000843353
0.00104229
0.00100574
0.00058812
0.000504437
0.00103054
0.000722104
0.00080395
0.00059487
0.000487053
0.000595328
0.000955599
0.000786179
0.000890905
0.000625175
0.0010596
0.00058865
)
;
    }
    left
    {
        type            symmetry;
    }
    hole
    {
        type            calculated;
        value           nonuniform List<scalar> 
16
(
0.000646965
0.000498891
0.00216771
0.00197826
0.000781623
4.14477e-05
0.000318213
0.000717459
0.000249875
0.00138656
0.000922374
0.000160334
0.000541372
0.00116036
0.00176461
0.00210438
)
;
    }
}


// ************************************************************************* //
