/*--------------------------------*- C++ -*----------------------------------*\
| =========                 |                                                 |
| \\      /  F ield         | OpenFOAM: The Open Source CFD Toolbox           |
|  \\    /   O peration     | Version:  v2012                                 |
|   \\  /    A nd           | Website:  www.openfoam.com                      |
|    \\/     M anipulation  |                                                 |
\*---------------------------------------------------------------------------*/
FoamFile
{
    version     2.0;
    format      ascii;
    class       volSymmTensorField;
    location    "4";
    object      epsilon;
}
// * * * * * * * * * * * * * * * * * * * * * * * * * * * * * * * * * * * * * //

dimensions      [0 0 0 0 0 0 0];


internalField   nonuniform List<symmTensor> 
1896
(
(0.000609263 -4.40347e-05 5.80033e-20 -0.000134536 1.73745e-20 0)
(0.000704989 -3.97928e-05 5.71389e-20 -0.000278691 2.94095e-20 0)
(0.000607592 -2.27325e-05 0 -0.000134047 0 0)
(0.00128949 0.000189573 1.25965e-20 -0.00056568 -4.38628e-21 0)
(0.000606515 -4.68678e-05 5.3083e-20 -0.000139367 3.30834e-20 0)
(0.000612146 -5.71509e-05 -1.78576e-20 -0.00014661 -1.73009e-20 0)
(0.00130026 0.00019056 -2.75048e-19 -0.000577458 -2.34232e-19 0)
(0.000568177 -8.40668e-05 -5.14768e-20 -0.000147926 -1.20617e-20 0)
(0.000605668 -0.00033745 3.17585e-20 -0.000435996 2.86527e-20 0)
(0.000552029 -6.29826e-05 1.0237e-19 -0.000136479 5.20406e-21 0)
(0.000601816 -8.56143e-06 2.64043e-20 -0.000107712 -8.41352e-21 0)
(0.000367262 -0.000183407 -8.62705e-20 -0.00013012 -5.94847e-21 0)
(0.000428459 -0.00010949 5.37942e-20 -9.34723e-05 2.13633e-20 0)
(0.000402365 -0.000151919 -5.78639e-22 -0.000111838 -1.77595e-20 0)
(0.0012225 0.000186626 1.16493e-20 -0.000615363 1.7694e-20 0)
(0.000788244 9.5126e-05 3.12091e-20 -0.000344328 -3.86923e-20 0)
(0.000767397 -8.88523e-05 -1.75445e-19 -0.000330638 -3.02397e-21 0)
(0.00160066 -5.41539e-05 1.72485e-19 -0.000583023 9.94858e-20 0)
(0.000801066 -0.000155018 9.9848e-20 -0.000335582 3.14906e-20 0)
(0.000686971 -0.000519516 -3.33819e-19 2.26341e-05 4.0962e-20 0)
(0.000259891 0.000219174 1.48907e-20 -0.000659505 -1.20833e-19 -1.36728e-35)
(0.000687817 -0.000111554 -2.14808e-20 -0.000241797 3.33407e-20 0)
(0.00117431 -1.33815e-05 1.64213e-19 -0.00053061 1.0353e-19 0)
(0.00116916 -2.87984e-06 -5.45674e-20 -0.000518895 -3.14131e-20 0)
(0.000707574 -6.97213e-05 6.95656e-20 -0.000291845 -6.8499e-21 0)
(0.000704036 -7.00749e-05 -3.70455e-21 -0.000275202 -2.96954e-20 0)
(0.000366512 -8.27987e-05 3.58005e-20 -0.000103954 -1.61563e-20 0)
(0.000440787 -7.91315e-05 -4.51247e-20 -9.50407e-05 -1.00792e-20 0)
(0.000622426 -3.34025e-05 6.88067e-21 -0.000124925 -1.14948e-20 0)
(0.000845185 -0.000184932 -5.55894e-20 -0.000373876 -4.76154e-20 0)
(0.000861099 -0.000196386 -4.83943e-20 -0.000348614 1.3382e-20 0)
(0.000705341 -1.39985e-05 8.53872e-20 -0.000295592 2.25155e-20 0)
(0.000243524 -0.000169998 -3.54783e-20 -0.000139656 3.08755e-21 0)
(0.000692876 -2.95689e-05 0 -0.000287416 0 0)
(0.00114191 -3.70085e-05 1.27637e-19 -0.000488772 4.68527e-20 0)
(0.00061572 -2.35839e-05 1.63407e-19 -0.000129189 3.15393e-20 0)
(0.000820751 -0.000193487 1.62369e-19 -0.00034647 2.66969e-20 0)
(0.000675715 -3.59029e-05 -1.01436e-20 -0.00023325 -3.85443e-23 0)
(0.00161786 -4.52844e-05 1.98418e-20 -0.000539526 7.10855e-21 0)
(0.000878417 -0.000186391 1.8183e-19 -0.000363711 -1.91248e-20 0)
(0.000696213 -3.06418e-06 1.55103e-19 -0.000298134 5.44353e-20 0)
(0.00127821 -0.000404721 -3.22164e-19 -0.000406048 -8.10303e-20 0)
(0.000728123 -0.000259908 8.4112e-20 -0.000303845 -2.97797e-20 0)
(0.00113091 -8.31102e-05 1.22392e-19 -0.000627943 6.56916e-20 0)
(0.000389844 -5.67545e-05 1.71593e-20 -0.000101849 -9.64464e-21 0)
(0.0004152 -6.60488e-05 -5.33909e-20 -8.61237e-05 -7.5574e-22 0)
(0.00126126 0.000214729 1.59061e-19 -0.000558187 1.40256e-19 0)
(0.0006075 -1.70321e-05 1.52199e-19 -0.000109299 2.63679e-20 0)
(0.00117021 7.62435e-06 1.22962e-19 -0.000611071 1.15085e-19 0)
(0.00117375 0.000234174 -7.84235e-20 -0.00050394 -8.89568e-20 0)
(0.000593339 -2.71359e-05 -2.60138e-20 -0.000135858 1.19032e-20 0)
(0.000579917 -7.64685e-05 -4.63141e-20 -0.000157012 2.19592e-20 0)
(0.000591223 -7.22367e-05 5.15452e-20 -0.000140055 -1.28986e-20 0)
(0.000682257 -0.000106586 7.41765e-20 -0.000251642 -4.47354e-20 0)
(0.000689058 -0.000352257 -1.78675e-19 -0.00045445 -8.20249e-20 0)
(0.000723034 -1.41499e-05 -9.29995e-20 -0.000312283 1.21989e-20 0)
(0.000910514 -0.000260647 -3.29804e-19 -0.000568082 -1.85136e-19 0)
(0.00061553 -3.53444e-05 -1.33972e-19 -0.00013286 -5.73968e-22 0)
(0.000662936 -1.78647e-05 -6.5051e-20 -0.000237935 -8.8274e-21 0)
(0.00088768 -2.93203e-05 -8.62856e-20 -0.00038568 5.46681e-20 0)
(0.000562073 -7.61012e-05 9.83349e-21 -0.000144695 -1.42263e-20 0)
(0.00114763 0.000218857 -2.67008e-19 -0.000540448 -2.66701e-19 0)
(0.00116226 0.000205505 -7.46802e-20 -0.000543163 -2.64171e-20 0)
(0.000632442 -9.90303e-05 6.2422e-20 -0.000177207 2.97669e-21 0)
(0.00017751 -0.000440651 -2.46392e-19 -7.58202e-05 2.16448e-19 3.98283e-36)
(0.00070173 -7.34598e-06 1.35287e-20 -0.000301467 -1.8658e-20 0)
(0.00110682 -7.17675e-05 1.19469e-19 -0.000496945 7.88134e-20 0)
(0.000463516 -0.000249894 6.9738e-20 -0.00018877 3.33257e-20 0)
(0.000668618 -6.54217e-05 -5.52312e-20 -0.000222053 -2.60548e-20 0)
(0.00116423 -4.39975e-05 -1.80916e-19 -0.000503716 -6.40859e-20 0)
(0.000285206 -4.5337e-05 -7.86457e-21 -6.91963e-05 -6.72612e-21 0)
(0.00118461 0.000170052 2.55974e-19 -0.000573102 2.4236e-19 0)
(0.000666837 -5.46931e-05 6.19897e-20 -0.000228611 2.79005e-20 0)
(0.000723819 -2.65371e-06 6.80655e-20 -0.000312394 5.89762e-21 2.82806e-36)
(0.00116395 -1.30634e-05 3.78477e-19 -0.000487978 6.70598e-20 4.72507e-35)
(0.000702764 -5.89033e-05 0 -0.000275976 0 0)
(0.000700053 -4.76816e-05 -8.46646e-20 -0.00028319 -3.80948e-20 0)
(0.000638295 -7.01003e-05 -6.66608e-20 -0.000175951 -2.51949e-20 0)
(0.000636545 -7.92349e-05 6.52649e-21 -0.000180679 -2.25134e-22 0)
(0.00066783 -0.000189362 -8.24578e-21 -0.000252152 4.71739e-20 0)
(0.000952489 -0.000431234 1.16105e-19 -0.000449308 2.44781e-19 0)
(0.00115713 -1.68361e-05 -1.54801e-19 -0.000511263 -9.40498e-20 0)
(0.000452781 -5.06765e-05 -1.80834e-20 -0.000116118 -2.62234e-20 0)
(0.000536166 -0.000122021 -5.77119e-20 -0.000147819 -1.04287e-20 0)
(0.000548286 -0.00011331 8.91543e-20 -0.000140008 2.97285e-20 0)
(0.000730108 -0.000178578 -1.37638e-20 -0.000285549 5.6048e-20 0)
(0.000571203 -0.000234087 1.92301e-19 -0.000198211 6.56941e-20 0)
(0.000548928 -0.000222245 5.49397e-20 -0.000187716 -9.46156e-21 0)
(0.000838531 -0.000294596 2.73148e-19 -0.000555082 1.51785e-19 0)
(0.000646649 -0.000267448 2.09551e-19 -0.000259153 5.38086e-20 0)
(0.000612368 -0.000193097 -6.13534e-20 -0.000208002 9.1149e-21 0)
(0.00240953 -0.00015277 0 -0.00116744 0 0)
(0.000505373 -0.000315233 4.85163e-21 -0.000316123 -5.51059e-21 0)
(0.00153842 -0.000258276 -3.00418e-19 -0.000517071 -1.73602e-19 0)
(0.00121474 1.51659e-05 -1.2269e-19 -0.000539336 -8.67499e-20 0)
(0.000698513 -9.43049e-05 -9.44686e-20 -0.000271387 -2.57416e-20 0)
(0.000685244 -1.47858e-05 -1.43338e-19 -0.000280469 -3.25788e-20 0)
(0.000606429 -1.31276e-05 -7.03994e-20 -8.93161e-05 -7.77578e-21 0)
(0.000692147 -1.06149e-05 -1.13876e-19 -0.000287082 -7.99766e-20 0)
(0.000556767 -0.000273147 3.81221e-20 -0.000241409 7.00957e-21 0)
(0.000600396 -0.000284233 1.03724e-19 -0.000249429 3.22675e-20 0)
(0.000482408 -0.000247215 7.81336e-20 -0.000184401 3.41565e-20 0)
(0.000619954 -9.93465e-05 -2.28093e-20 -0.000173424 -4.53427e-21 0)
(0.000556755 -0.000348846 1.04306e-20 -0.000346666 4.23592e-21 0)
(0.000721034 -0.000330125 1.17752e-19 -0.000433391 5.53007e-20 0)
(0.000687461 -0.00025805 -1.0283e-19 -0.000291042 -1.23466e-20 0)
(0.000732011 -0.000169017 -1.01343e-19 -0.000277191 -2.73279e-21 0)
(0.00118995 -6.99274e-05 -1.67061e-19 -0.000686226 -1.14333e-19 0)
(0.00107949 -6.77062e-05 -2.44837e-19 -0.000541996 -1.7058e-19 0)
(0.00271858 -0.000116101 -8.37092e-20 -0.000791518 7.77297e-20 0)
(0.000611248 -2.94173e-06 -9.17679e-21 -9.95729e-05 -2.01731e-20 3.55693e-37)
(0.000686354 -2.65941e-06 -6.29285e-20 -0.000284159 -1.15255e-19 -1.21615e-34)
(0.00103483 -0.000132878 -7.01888e-20 -0.000526289 -3.0336e-20 0)
(0.000916191 -0.000242413 -1.76685e-20 -0.000514754 -1.14166e-20 0)
(0.002226 -0.000566912 9.43396e-20 -0.00062449 2.66519e-20 0)
(0.000599061 -0.00023207 6.83229e-20 -0.00020566 2.07774e-20 0)
(0.000470356 -2.14541e-05 1.02357e-19 -0.000117124 1.23636e-20 0)
(0.000620336 -0.000228396 9.56504e-20 -0.000220365 2.77174e-21 0)
(0.00103686 -0.000197064 2.15978e-19 -0.000589364 1.59812e-19 0)
(0.000839138 -0.000178129 1.21805e-19 -0.000353703 4.56701e-20 0)
(0.00110967 -0.000209631 0 -0.000627943 0 0)
(0.000645651 -0.000334691 -4.29933e-21 -0.000448779 -5.10303e-20 0)
(0.000674195 -4.661e-05 7.83222e-20 -0.000249483 3.45624e-20 0)
(0.000513082 -9.43647e-05 4.76375e-20 -0.000112567 3.04963e-20 0)
(0.000476129 -8.914e-05 -1.0713e-19 -0.000128308 4.14334e-20 0)
(0.000852807 -0.000272197 -7.92741e-20 -0.000545288 3.74865e-21 0)
(0.0012015 -2.94248e-05 4.06116e-19 -0.000649876 3.63674e-19 0)
(0.000564193 -9.68592e-05 6.573e-20 -0.000148689 -2.5923e-20 0)
(0.000841842 -7.89827e-05 -7.76687e-20 -0.000359661 7.3081e-20 0)
(0.000620239 -0.000284894 -1.21534e-19 -0.00025529 -3.63889e-20 0)
(0.00059919 -0.000299126 -1.24603e-19 -0.000290812 -3.17223e-20 0)
(0.000634821 -0.000196041 6.41581e-20 -0.000209542 -4.08522e-21 0)
(0.00105749 -0.000101635 0 -0.000503396 0 0)
(0.00131417 -0.000331738 -3.00384e-19 -0.000643241 -1.26773e-19 0)
(0.000796452 -0.000142535 1.43599e-20 -0.000329705 4.98352e-20 0)
(0.00114345 0.000196563 -2.55586e-19 -0.000524812 -1.82065e-19 0)
(0.00129485 1.90541e-05 -2.09437e-19 -0.000586503 -1.52628e-19 0)
(0.00136437 0.000104266 -1.31941e-19 -0.000620947 -6.27496e-20 0)
(0.000699047 -6.82635e-06 -8.01858e-20 -0.000294641 -3.80928e-21 0)
(0.000902529 -0.000195959 1.38214e-19 -0.000400776 5.16944e-20 0)
(0.000672869 -7.97093e-05 1.37753e-21 -0.00024003 -2.85999e-20 0)
(0.00112261 -9.50051e-05 -9.13711e-20 -0.00061373 -5.07304e-20 0)
(0.000891518 -0.000202094 1.03423e-19 -0.000379515 -2.68427e-20 0)
(0.00108129 0.00020493 -1.59352e-19 -0.000394772 -1.02853e-19 0)
(0.000591959 -0.000159923 7.53622e-20 -0.00017437 -1.01622e-20 0)
(0.000741311 -0.000132198 6.80425e-21 -0.000307803 3.31965e-21 0)
(0.000748957 -0.000126165 -8.20739e-20 -0.000288425 -5.36398e-21 0)
(0.000850347 -9.66476e-05 1.81384e-19 -0.000358641 5.01088e-21 0)
(0.00116093 4.41709e-05 -6.2618e-20 -0.000514124 -3.6691e-20 0)
(0.000611048 -0.000222784 0 -0.000209723 0 0)
(0.000417509 -0.000115589 9.20077e-21 -0.000105516 5.39881e-22 0)
(0.00068353 -2.57212e-05 5.11781e-20 -0.000266297 -3.62611e-20 0)
(0.000679249 -8.66296e-05 0 -0.000230542 0 0)
(0.000649392 -0.00010249 2.90682e-20 -0.00018786 2.40294e-20 0)
(0.000643706 -0.000117186 -4.25962e-20 -0.00019316 1.05589e-20 0)
(0.000996486 -0.000174126 1.5166e-19 -0.000545351 8.32958e-20 0)
(0.000485938 -2.46135e-05 2.98959e-21 -0.00011173 -1.51496e-22 0)
(0.00100914 -0.000163616 -2.44896e-19 -0.000573253 -1.6607e-19 0)
(0.00208139 -0.00072604 1.82202e-19 -0.00081251 -1.38574e-20 4.3307e-35)
(0.000577247 -4.87562e-05 8.01991e-20 -0.000140934 4.56075e-21 0)
(0.000598234 -6.31316e-05 7.19125e-20 -0.000144553 -8.4286e-21 0)
(0.00121686 -3.16959e-06 -1.12988e-19 -0.000506926 -6.79293e-21 -3.6833e-36)
(0.000623259 -0.000350567 -1.90183e-19 -0.000478306 -1.18509e-19 0)
(0.000651633 -3.65592e-05 -2.34987e-20 -0.000222551 -1.55176e-20 0)
(0.0013745 6.69748e-05 3.5502e-20 -0.000441155 -3.43149e-20 0)
(0.000544033 -7.71657e-05 4.30499e-20 -0.000138696 1.39633e-20 0)
(0.000869855 -1.15919e-05 -1.222e-19 -0.000340914 -2.64141e-21 0)
(0.000611589 -2.79737e-05 -5.29295e-22 -0.000115354 1.48386e-21 0)
(0.000607121 -2.85902e-05 5.64195e-20 -0.000124173 3.42479e-20 0)
(0.000692899 -2.91454e-05 -2.62474e-20 -0.000277717 7.08879e-20 0)
(0.000695579 -2.18876e-05 3.23441e-20 -0.000273829 -7.93453e-21 0)
(0.000712596 -1.35762e-05 -5.95652e-20 -0.00029967 -3.3562e-20 0)
(0.000321533 -0.000203975 -6.26402e-20 -0.000139535 -1.2959e-20 0)
(0.000322576 -0.000179371 5.27258e-20 -0.000113684 2.89384e-21 0)
(0.00127147 0.000114983 -8.23342e-20 -0.000646068 -1.23571e-19 0)
(0.00130371 0.000134803 3.76647e-19 -0.000617394 3.14888e-19 0)
(0.00117597 5.91403e-05 3.58484e-19 -0.000586706 2.69221e-19 0)
(0.000705889 -9.01403e-05 -6.76416e-20 -0.000269613 4.28453e-22 0)
(0.00060922 -1.23044e-05 6.1058e-20 -0.000113682 5.10123e-21 0)
(0.000644896 -0.000348905 -1.70533e-19 -0.000389875 -6.81626e-20 0)
(0.000318051 -0.000175169 -5.69496e-20 -0.000132945 -1.45684e-20 0)
(0.00087949 -7.1315e-05 2.41286e-20 -0.000392969 -1.11115e-19 0)
(0.00064061 -0.000100131 1.41122e-19 -0.000204519 4.8668e-20 0)
(0.00115268 4.28797e-05 -2.91104e-19 -0.000587282 -2.27595e-19 0)
(0.00128879 0.000175788 -3.93588e-20 -0.000610143 -1.36606e-20 0)
(0.00137792 5.44104e-05 3.03121e-20 -0.000325339 3.89189e-20 0)
(0.000579069 -0.000268996 4.79283e-20 -0.000229929 -5.75389e-21 0)
(0.0010869 0.00023968 -9.83255e-20 -0.000429025 -8.28363e-20 0)
(0.000410742 4.78758e-05 6.45416e-20 -0.000883816 8.2294e-20 -1.91315e-34)
(0.000243524 -0.000205767 -2.25364e-20 -0.000335203 -2.59955e-20 0)
(0.00128429 4.23825e-05 5.34737e-19 -0.000652404 3.75947e-19 0)
(0.000611737 -2.1758e-05 7.78249e-20 -0.000114948 2.6782e-20 0)
(0.00105121 -0.000132535 -3.53529e-19 -0.000634541 -2.36618e-19 0)
(0.00117165 1.07537e-05 0 -0.000498988 0 0)
(0.000653002 -0.000463184 -1.54879e-19 -0.000180867 1.87936e-19 0)
(0.000394176 -0.000238909 -6.80351e-20 -0.000163706 -1.02751e-20 0)
(0.000721824 -0.000243923 -1.06496e-19 -0.000291651 -3.10553e-20 0)
(0.0010817 -0.000154932 -4.90923e-20 -0.000675715 1.42199e-20 0)
(0.000402888 -0.000205569 5.4357e-20 -0.000140302 1.98953e-20 0)
(0.00049304 -6.01501e-05 -4.87704e-20 -0.000101459 -1.34331e-20 0)
(0.000557069 -0.000238663 1.51952e-19 -0.000193784 -1.37305e-20 0)
(0.00095162 -0.000448403 1.90794e-19 -0.000413495 1.8872e-19 0)
(0.000607037 -2.32186e-05 -4.056e-22 -0.000111037 -1.26747e-20 0)
(0.000644918 -0.000114556 1.18894e-19 -0.000205365 3.62141e-20 0)
(0.00116515 0.000252838 7.16906e-20 -0.000462349 6.61558e-20 0)
(0.000627781 -0.000114192 -5.29234e-20 -0.000194753 6.12398e-21 0)
(0.00112632 -3.82645e-05 4.69596e-20 -0.000623128 2.03532e-20 0)
(0.00103618 -0.000101939 -1.17517e-19 -0.000445592 -2.40567e-20 0)
(0.000281629 4.25247e-05 1.46794e-19 -0.000984885 3.28901e-19 0)
(0.000737379 -2.36311e-05 6.8713e-20 -0.000308653 5.04023e-20 0)
(0.00121727 -2.84857e-05 0 -0.000519482 0 0)
(0.000822284 -0.000176147 -1.64325e-19 -0.000332005 -9.54258e-20 0)
(0.000747104 -7.85581e-05 9.32568e-20 -0.000300473 8.64706e-21 0)
(0.00072969 -6.56391e-05 -1.07989e-20 -0.000313714 -3.5613e-21 0)
(0.000450464 -0.000186163 -5.48639e-21 -0.000131015 8.91564e-21 0)
(0.000633776 -0.000317138 1.21917e-19 -0.000346869 4.73053e-20 0)
(0.000925124 -0.000273779 -2.09807e-19 -0.000489956 -1.19551e-19 0)
(0.000985016 -7.04258e-05 -9.05889e-20 -0.000432301 -8.67467e-20 0)
(0.00100106 -7.58395e-05 -1.45896e-19 -0.000411129 -3.26716e-20 0)
(0.000866204 -0.000202645 -1.62871e-19 -0.000367984 -8.02427e-20 0)
(0.000226556 -0.000209734 2.21358e-19 -0.000351493 1.12129e-19 0)
(0.000640623 -0.000128905 -1.64332e-19 -0.000207203 -2.01674e-20 0)
(0.00124798 2.86737e-05 -1.70332e-19 -0.000525112 -1.17714e-19 0)
(0.00112765 -3.38078e-05 1.74252e-19 -0.000510791 1.10311e-19 0)
(0.000681964 -3.78828e-06 -2.08826e-20 -0.000264629 -3.27594e-20 -9.8498e-36)
(0.000895439 -0.000208759 1.93026e-19 -0.000399945 9.08746e-20 0)
(0.00137695 -5.66085e-05 0 -0.000613564 0 0)
(0.000732504 -0.000142682 -1.39548e-19 -0.00027547 -6.12331e-20 0)
(0.000977924 9.7096e-05 1.09067e-19 -0.000380065 6.50764e-20 0)
(0.000696493 -1.4019e-05 -1.52131e-19 -0.000293932 -1.91233e-20 0)
(0.000849571 9.05138e-05 -1.00744e-19 -0.000308775 -5.74976e-20 0)
(0.000566774 -6.93307e-05 -5.17777e-20 -0.000149537 -2.99812e-20 0)
(0.000581571 -5.32709e-05 4.27051e-20 -0.000145076 2.05314e-20 0)
(0.000606955 -2.9952e-06 0 -8.14409e-05 0 0)
(0.000692349 -1.44583e-06 -5.80893e-20 -0.000296365 -3.81498e-20 -1.25022e-34)
(0.000594757 -0.000113446 -6.11243e-20 -0.000169932 -5.1791e-20 0)
(0.000499101 -0.000234162 9.01812e-20 -0.000161714 3.12832e-20 0)
(0.00111592 -0.000165033 -5.53374e-20 -0.000675839 -3.28743e-20 0)
(0.00117248 0.000149306 3.12515e-19 -0.000415684 1.55572e-19 0)
(0.000906612 -3.10611e-05 2.55174e-19 -0.000374105 5.36982e-20 0)
(0.00123148 -6.43997e-05 1.80658e-20 -0.000627922 -5.52042e-20 0)
(0.00117275 -2.64246e-05 -3.2141e-19 -0.000683279 -2.68966e-19 0)
(0.000451264 -0.000207181 -6.58397e-21 -0.000142796 1.72445e-20 0)
(0.00117705 0.000181782 -1.45353e-19 -0.000404291 -8.93432e-20 0)
(0.000673435 -0.000114891 -5.70049e-20 -0.000244377 5.50692e-20 0)
(0.000370156 -0.00020544 1.97485e-19 -0.000132017 4.0304e-20 0)
(0.000663677 -6.52694e-06 -3.70219e-20 -0.000210978 -3.61989e-21 -4.47271e-35)
(0.000388774 -0.000170559 2.16089e-20 -0.000128086 -3.49463e-21 0)
(0.000321681 -0.000144736 3.90999e-20 -0.000111602 -3.56417e-21 0)
(0.00103191 -0.000121686 8.23151e-21 -0.000451004 5.53008e-20 0)
(0.000641276 -0.000283365 3.91282e-19 -0.000525046 2.51045e-19 0)
(0.00075267 -0.00024837 -5.15392e-20 -0.000309719 -3.78309e-20 0)
(0.000703021 -1.93896e-05 -9.67871e-20 -0.000293026 -3.41228e-20 0)
(0.000598693 -1.15796e-05 -2.46503e-20 -9.02337e-05 2.4308e-20 0)
(0.000697779 -3.82599e-06 8.98353e-20 -0.000295093 3.00445e-20 0)
(0.000659266 -0.000141991 -1.47292e-19 -0.000217225 -3.77602e-20 0)
(0.00040813 -0.000293663 -5.1513e-20 -0.000265047 -1.30092e-20 0)
(0.00105151 0.000188319 6.01857e-20 -0.000422913 6.79745e-20 0)
(0.00117218 0.000187064 1.24614e-19 -0.000562704 7.31252e-20 0)
(0.00108785 -5.94795e-05 -3.46659e-19 -0.000483853 -1.37342e-19 0)
(0.000824418 -5.60776e-05 4.39957e-19 -0.00036427 1.27178e-19 0)
(0.000247168 0.000156976 6.32023e-20 -0.00078303 1.17649e-19 0)
(0.000285838 -3.13303e-05 -9.94539e-20 -0.000584335 -9.49343e-20 0)
(0.000500011 -0.000229094 9.02589e-20 -0.000183223 4.59461e-20 0)
(0.000796986 -8.41717e-05 -6.54917e-20 -0.000327895 -6.77627e-20 0)
(0.000780852 -0.000295256 -9.17738e-20 -0.000427857 -4.05601e-20 0)
(0.000844313 5.85304e-05 -3.17761e-20 -0.000327816 -6.56851e-20 0)
(0.000571172 -0.000285213 -6.79562e-20 -0.000231171 -2.41797e-20 0)
(0.000925406 -6.309e-05 -1.95292e-20 -0.000384793 3.06797e-20 0)
(0.000650285 -0.000141133 6.90131e-20 -0.000217087 7.14565e-22 0)
(0.000577751 -0.000286181 1.97299e-19 -0.000244738 6.39157e-20 0)
(0.000136258 -6.25715e-05 -9.97517e-21 -0.000344709 -5.75937e-20 0)
(0.00117683 4.62769e-05 -2.39457e-19 -0.000496178 -1.4464e-19 0)
(0.000339546 -0.000117868 -5.77606e-20 -9.71403e-05 -5.00278e-21 0)
(0.000775465 -0.000105479 2.07348e-19 -0.000321273 3.44487e-20 0)
(0.000345097 -0.000307383 1.21741e-19 -0.000252332 3.94542e-20 0)
(0.00108564 -6.93355e-05 -1.75991e-20 -0.000516533 -1.88467e-21 0)
(0.00063723 -1.71028e-05 -3.14489e-20 -0.000177168 -9.93146e-21 0)
(0.000650058 -0.000164709 7.60537e-20 -0.000231479 5.58848e-20 0)
(0.000611844 -8.44513e-06 -4.38758e-20 -0.000118773 1.13567e-20 0)
(0.000699888 -8.08291e-06 7.69953e-20 -0.000305006 1.01191e-20 0)
(0.00104701 -0.00011222 1.06046e-19 -0.000465867 2.4788e-20 0)
(0.000279922 -0.00025238 -5.69743e-20 -0.000201129 -2.08867e-20 0)
(0.000694171 -6.23235e-07 -9.16833e-20 -0.000301419 -5.85063e-21 4.27128e-36)
(0.000715096 -0.000144109 1.06747e-19 -0.000276231 2.10937e-21 0)
(0.000910812 0.000122856 -1.00724e-19 -0.000375511 -5.78567e-20 0)
(0.000700678 -0.000195992 -9.97161e-22 -0.000254909 1.12368e-20 0)
(0.000604257 -0.000238094 -6.41561e-20 -0.00022339 -4.09622e-20 0)
(0.000679882 -0.000189674 5.80471e-20 -0.00022684 4.27986e-20 0)
(0.00060566 -1.54784e-06 0 -0.00010825 0 0)
(0.000751779 1.53556e-05 4.13437e-20 -0.000353356 2.38324e-20 -1.1567e-35)
(0.000801121 -0.000175517 1.84365e-19 -0.000334041 2.86926e-20 0)
(0.000796973 -0.000199691 -3.31246e-20 -0.000328902 -3.38547e-20 0)
(0.000714456 -0.000196582 6.54207e-20 -0.000269011 -4.06979e-21 0)
(0.00124111 -1.01005e-05 -6.22384e-20 -0.00037914 3.52402e-20 0)
(0.000244192 -3.5904e-05 3.81413e-21 -7.96391e-05 -1.37967e-20 0)
(0.000870611 1.79764e-05 1.20972e-19 -0.000375059 1.83429e-20 1.91437e-35)
(0.000556634 -0.000239738 -1.00314e-19 -0.000208102 1.45498e-20 0)
(0.00114992 0.000210376 -1.12978e-19 -0.000424353 -8.51313e-20 0)
(0.000333228 -0.000184876 3.79392e-19 -0.000490211 2.43289e-19 0)
(0.00104975 0.000206878 1.17786e-19 -0.000425773 1.03368e-19 0)
(0.000808887 -0.000207568 0 -0.000338094 0 0)
(0.00114959 5.8253e-05 2.61815e-19 -0.000545554 2.13351e-19 0)
(0.00122728 0.000227979 -1.58508e-19 -0.000537649 -1.40319e-19 0)
(0.000670619 -0.000115932 -5.72734e-20 -0.000216675 1.20806e-20 0)
(0.000588463 -0.000138565 6.68719e-20 -0.000178801 2.11713e-20 0)
(0.000599919 -0.000149009 1.40768e-19 -0.00017451 1.5854e-20 0)
(0.000316372 -0.000212213 5.07426e-20 -0.000170705 1.75919e-20 0)
(0.000287644 -0.000220061 0 -0.000141966 0 0)
(0.000661267 -0.000154765 1.30059e-19 -0.000213783 -4.10849e-21 0)
(0.000663557 -4.6456e-05 1.94776e-19 -0.000200156 2.48317e-20 0)
(0.000637304 -0.000255674 -1.12495e-19 -0.000250967 -4.29096e-20 0)
(0.00033569 -0.000167281 -2.24882e-20 -0.000111352 2.48183e-21 0)
(0.000616765 -1.20607e-05 -9.02222e-20 -9.53313e-05 -1.42716e-20 0)
(0.000683924 -1.06588e-05 3.16126e-19 -0.000291629 1.00305e-19 0)
(0.000836265 -0.000105942 -1.00983e-20 -0.000350251 1.03828e-20 0)
(0.000527056 -3.97139e-06 -5.70139e-21 -0.000124855 -1.37508e-20 0)
(0.00066621 -4.53221e-05 -4.94811e-21 -0.000234888 -2.03708e-20 0)
(0.000753309 -0.00026029 -1.07729e-19 -0.000319556 -1.22524e-20 0)
(0.000651776 -6.10487e-05 -9.70184e-22 -0.000205195 -5.27317e-21 0)
(0.000579451 -0.000172011 -1.48239e-19 -0.000184959 3.03823e-20 0)
(0.00102098 0.000153758 0 -0.000467443 0 0)
(0.00105701 0.000152531 -3.04932e-19 -0.000404229 -2.6539e-19 0)
(0.000754906 -0.000279688 -1.59346e-20 -0.000345528 -5.62658e-20 0)
(0.000368057 -0.000253009 7.06451e-20 -0.000211809 2.38975e-20 0)
(0.000697436 -0.000260283 2.98905e-19 -0.000268245 1.01853e-19 0)
(0.000762929 -0.000260221 0 -0.000308403 0 0)
(0.000362498 -0.000246961 -8.23694e-20 -0.000168877 -2.22537e-20 0)
(0.000628371 -5.7116e-05 4.053e-21 -0.000147019 1.62359e-20 0)
(0.000687064 -4.64821e-05 -4.96476e-20 -0.000265719 -3.55993e-20 0)
(0.000292982 -5.26869e-05 -7.95375e-20 -0.000455534 -5.39835e-20 0)
(0.000828908 -4.70289e-06 -1.9102e-19 -0.000357383 9.46504e-21 1.01388e-35)
(0.000609983 -7.73142e-06 -7.40931e-21 -9.21761e-05 1.55872e-21 0)
(0.000691576 -3.72722e-06 1.41686e-19 -0.000297753 1.27271e-20 0)
(0.000542713 -5.45311e-05 1.06413e-20 -0.000135261 6.09186e-22 0)
(0.000258499 0.000128606 -1.03309e-19 -0.000900681 -2.47116e-19 0)
(0.000423577 -0.000219525 2.36738e-20 -0.000152677 -5.15419e-21 0)
(0.00116257 4.66504e-05 2.01797e-19 -0.000542076 1.39843e-19 0)
(0.000618093 -6.00011e-05 4.53115e-20 -0.000147752 -6.44993e-21 0)
(0.000698958 -4.88585e-05 3.7094e-20 -0.000265093 -1.81325e-20 0)
(0.0008033 -0.00026585 1.82596e-19 -0.0003921 7.10999e-20 0)
(0.000240425 -4.24486e-05 -1.45676e-19 -0.000530626 -6.50656e-20 0)
(0.000849105 -0.000234429 -1.33741e-19 -0.000370747 1.68276e-21 0)
(0.000695905 -0.000314639 -1.1488e-19 -0.000396177 -4.78805e-20 0)
(0.000455039 -0.000114672 9.34241e-20 -0.000116765 2.62013e-20 0)
(0.000834154 -0.000139943 1.19468e-19 -0.000337924 9.25834e-21 0)
(0.000792874 -0.000178527 8.30513e-20 -0.000320193 -4.16804e-21 0)
(0.00152716 -0.000182653 1.39528e-19 -0.000611595 5.50428e-20 0)
(0.000561922 -0.000252391 -5.21362e-20 -0.000211008 2.27364e-20 0)
(0.000125415 8.26357e-05 -1.01e-19 -0.000713178 -1.55857e-19 0)
(0.000231138 -0.000254244 6.20607e-20 -0.000267906 3.29416e-20 0)
(0.000623034 -6.78537e-05 -2.97774e-20 -0.000155176 2.30306e-20 0)
(0.000821255 -0.000306678 2.46356e-19 -0.000593566 6.08196e-20 0)
(0.000711936 -0.00020401 -1.39817e-20 -0.000274039 2.91059e-20 0)
(0.000775281 -0.000116385 -2.67878e-19 -0.000329636 -3.03444e-20 0)
(0.000818419 -0.000144818 -1.8618e-22 -0.000355027 7.46845e-20 0)
(-1.08444e-05 -4.82149e-05 0 4.30521e-06 0 0)
(0.00150079 5.94756e-05 -1.30776e-19 -0.000516202 -9.43581e-20 0)
(0.000588679 -0.00025342 -7.71808e-20 -0.000235234 -9.80604e-21 0)
(0.00107874 -0.000149194 -5.9433e-19 -0.000640252 -3.6553e-19 0)
(0.000845831 -0.000286256 -2.46213e-19 -0.000533901 -1.13227e-19 0)
(0.0011701 7.48302e-05 -2.93578e-19 -0.000351549 -1.01713e-19 0)
(0.00140082 0.000100107 1.02505e-20 -0.000514836 6.99823e-21 0)
(0.000328306 -0.000165656 -1.40596e-19 -0.000401235 -1.99401e-19 0)
(0.000688617 -6.55327e-05 -1.0948e-19 -0.00027132 -3.17532e-20 0)
(0.000752782 -0.000110003 -2.40061e-21 -0.000312793 2.45403e-21 0)
(0.000930099 -0.000190851 -2.65711e-19 -0.000440347 -1.14893e-19 0)
(0.000947499 -0.000190353 -1.0087e-19 -0.000424573 -5.60916e-20 0)
(0.00065699 -0.000213916 -5.0143e-20 -0.000248638 -2.64256e-20 0)
(0.000707778 7.13123e-05 1.30756e-19 -0.000273606 3.60894e-20 0)
(0.00118776 0.000220122 -9.25166e-20 -0.000562248 -9.78125e-20 0)
(0.000385078 -0.000149757 3.36732e-20 -9.20372e-05 9.48606e-21 0)
(0.00059958 -6.81398e-06 2.62616e-20 -6.99043e-05 -4.31755e-21 0)
(0.000695063 -2.46915e-06 -1.625e-19 -0.000298785 -7.17132e-20 0)
(0.000691784 -5.76476e-05 0 -0.000271289 0 0)
(0.000544106 -0.000323413 -1.10092e-19 -0.000269585 -3.66875e-20 0)
(0.00180717 -0.000354196 -2.08507e-19 -0.000720167 -9.46646e-20 0)
(0.000930774 -0.000248012 5.29346e-19 -0.000549543 3.01708e-19 0)
(0.000573018 -0.000219144 5.49069e-20 -0.000202897 4.03758e-20 0)
(0.000599838 -0.000243096 -9.61597e-20 -0.000217554 -1.10647e-20 0)
(0.000533469 -0.000230793 -2.17006e-19 -0.000175738 -1.70012e-20 0)
(0.000698141 -3.17641e-06 0 -0.000296973 0 0)
(0.000334889 -0.000294019 1.21791e-19 -0.000316496 4.57497e-20 0)
(0.00065561 -7.00974e-05 7.15885e-20 -0.000187916 1.38691e-20 0)
(0.000450868 -0.000325447 2.70119e-19 -0.000288589 9.74937e-20 0)
(0.000640316 -5.34889e-06 -4.46353e-20 -0.000157612 -3.378e-20 -2.431e-35)
(0.00145929 9.97403e-05 -9.56263e-20 -0.000488292 -4.7969e-20 0)
(0.000687462 -6.47617e-05 -2.39258e-20 -0.000258857 -6.88771e-21 0)
(0.00060575 -5.94618e-06 -1.28019e-19 -9.60098e-05 -2.49668e-20 0)
(0.00131894 0.000184095 -1.28915e-19 -0.000447505 -1.03812e-19 0)
(0.000564823 -0.000104206 -8.58803e-20 -0.000152625 1.25862e-20 0)
(0.000617576 -5.77163e-05 3.74514e-20 -0.000141759 -7.25561e-21 0)
(0.000992162 1.59626e-05 -1.48391e-19 -0.000437751 -3.69425e-20 1.85767e-35)
(0.00163187 -0.000798554 0 -0.000345899 0 0)
(0.000615336 -0.000119579 -4.55441e-20 -0.000177441 4.19198e-20 0)
(0.000325862 -0.000252062 0 -0.000276875 0 0)
(0.000897616 -0.000137062 2.84785e-20 -0.000390918 -4.67447e-20 0)
(0.000989894 -0.000157492 -1.47484e-19 -0.000427275 -9.62912e-20 0)
(0.00067628 -0.000139243 -3.17913e-20 -0.000238767 3.10715e-20 0)
(0.00067313 -0.000141568 3.95311e-20 -0.000230623 2.30523e-20 0)
(0.000691798 -0.000214932 2.0091e-19 -0.00025125 2.72725e-20 0)
(0.000712455 4.10815e-05 -7.96168e-20 -0.000326585 -6.20733e-20 0)
(0.000855259 -4.1078e-05 -3.39512e-20 -0.000346566 -1.29646e-19 0)
(0.00021204 -1.75067e-05 -2.05131e-20 -0.000106219 1.35253e-20 0)
(0.000919181 -0.000138125 9.10854e-20 -0.000376573 4.51733e-21 0)
(0.000723418 -0.000323658 -3.88388e-19 -0.000523838 -2.19157e-19 0)
(0.000694583 -0.000186588 0 -0.00024777 0 0)
(0.00118017 3.54847e-05 0 -0.000527155 0 0)
(0.000348157 -0.000108949 -5.61701e-20 -9.15061e-05 -6.21402e-21 0)
(0.000855695 7.17217e-05 2.04302e-20 -0.000393842 1.13693e-19 0)
(0.000709632 -0.000299509 1.3882e-19 -0.000352456 6.8464e-20 0)
(0.000491271 -0.000124931 -1.11729e-19 -0.000133643 1.96771e-21 0)
(0.000491443 -0.000114344 -8.3806e-20 -0.000111484 1.77723e-20 0)
(0.000950562 0.000163276 -8.10615e-20 -0.000394446 -7.99567e-20 0)
(0.000996754 -0.000139421 -1.14524e-19 -0.000424813 -6.14786e-20 0)
(0.000981446 -0.000146294 -6.46507e-20 -0.000436476 2.1671e-20 0)
(0.000638118 -0.000129965 1.22702e-19 -0.000194814 2.68882e-20 0)
(0.00146369 5.10231e-05 2.63137e-19 -0.00048621 -4.18599e-20 0)
(0.000749953 -0.000277971 -1.41268e-19 -0.000353594 -5.58958e-20 0)
(0.000581593 -0.000131728 7.2588e-20 -0.000161732 -1.12619e-21 0)
(0.00077264 -0.000326994 -9.84682e-20 -0.000494993 -5.7307e-20 0)
(0.000598354 -2.86713e-06 -1.04784e-19 -6.60286e-05 4.38753e-21 0)
(0.00069569 -4.76739e-07 -8.47387e-20 -0.00029852 -2.33891e-20 0)
(0.00125418 0.000131221 -5.59054e-20 -0.000607087 -1.35131e-20 0)
(0.000879992 -0.000200178 -3.81483e-20 -0.000385615 -3.6766e-20 0)
(0.000616638 -0.00026279 1.35174e-20 -0.000239092 -1.2463e-21 0)
(0.000267903 -0.00023535 1.57995e-19 -0.000378875 9.95946e-20 0)
(0.000925955 -8.27441e-06 -2.04441e-19 -0.000387599 1.01278e-20 6.08671e-36)
(0.00139348 9.98877e-05 1.70781e-19 -0.000584654 1.02824e-19 0)
(0.0013481 0.000137684 1.8025e-19 -0.000553079 1.53005e-19 0)
(0.000282908 -8.8593e-05 0 -0.00045567 0 0)
(0.000822491 -0.000278296 3.32436e-19 -0.000530923 1.29991e-19 0)
(0.000750801 -0.000264621 -1.7963e-19 -0.000326408 -3.42768e-20 0)
(0.000716065 -0.000113457 -1.79732e-19 -0.000293079 -3.42867e-20 0)
(0.000890652 -0.00023901 5.97487e-20 -0.00043618 1.37361e-20 0)
(0.000861008 -0.000239538 -1.56103e-20 -0.00041712 -9.15762e-21 0)
(0.000712183 -2.13299e-05 9.93019e-20 -0.000300583 5.93648e-20 0)
(0.00164891 -3.65042e-05 3.14164e-19 -0.000521935 8.00827e-20 0)
(0.000870247 -0.000247158 -4.72633e-19 -0.000610708 -3.57639e-19 0)
(0.000660981 -3.53724e-05 4.63501e-20 -0.00021523 4.66647e-20 0)
(0.000919313 -0.000279009 -2.01943e-19 -0.000583128 -1.84371e-19 0)
(0.000894256 -9.48883e-05 -1.69635e-19 -0.000385766 3.66081e-21 0)
(0.000632615 -0.000126312 -5.7966e-20 -0.000191153 -3.25156e-20 0)
(0.00107241 0.000158685 2.00724e-19 -0.000361458 1.5703e-19 0)
(0.000599399 -4.17454e-06 1.41989e-19 -8.9318e-05 -8.42135e-21 0)