/*--------------------------------*- C++ -*----------------------------------*\
| =========                 |                                                 |
| \\      /  F ield         | OpenFOAM: The Open Source CFD Toolbox           |
|  \\    /   O peration     | Version:  v2012                                 |
|   \\  /    A nd           | Website:  www.openfoam.com                      |
|    \\/     M anipulation  |                                                 |
\*---------------------------------------------------------------------------*/
FoamFile
{
    version     2.0;
    format      ascii;
    class       volScalarField;
    location    "10";
    object      sigmaHyd;
}
// * * * * * * * * * * * * * * * * * * * * * * * * * * * * * * * * * * * * * //

dimensions      [1 -1 -2 0 0 0 0];


internalField   nonuniform List<scalar> 
32000
(
1.41596e+08
1.38835e+08
1.45807e+08
1.41814e+08
1.49977e+08
1.44535e+08
1.54035e+08
1.4719e+08
1.57954e+08
1.49829e+08
1.61733e+08
1.52467e+08
1.65373e+08
1.55099e+08
1.68884e+08
1.57724e+08
1.72272e+08
1.60336e+08
1.75543e+08
1.62927e+08
1.78707e+08
1.65489e+08
1.81761e+08
1.68019e+08
1.84707e+08
1.70512e+08
1.87546e+08
1.72961e+08
1.90281e+08
1.75359e+08
1.92904e+08
1.77708e+08
1.95408e+08
1.79991e+08
1.97798e+08
1.82198e+08
2.00051e+08
1.84324e+08
2.02151e+08
1.86347e+08
2.04101e+08
1.88246e+08
2.05861e+08
1.90013e+08
2.07406e+08
1.91607e+08
2.08728e+08
1.93004e+08
2.09768e+08
1.94191e+08
2.10514e+08
1.95104e+08
2.10924e+08
1.95736e+08
2.10944e+08
1.96044e+08
2.10597e+08
1.95999e+08
2.09807e+08
1.95607e+08
2.086e+08
1.9483e+08
2.06958e+08
1.93708e+08
2.04894e+08
1.92235e+08
2.02459e+08
1.90468e+08
1.99656e+08
1.8844e+08
1.96571e+08
1.86203e+08
1.93222e+08
1.83798e+08
1.89662e+08
1.81251e+08
1.8594e+08
1.77994e+08
1.80611e+08
1.73774e+08
1.43024e+08
1.38685e+08
1.46221e+08
1.42226e+08
1.49673e+08
1.45406e+08
1.53196e+08
1.48396e+08
1.56731e+08
1.51264e+08
1.60244e+08
1.54045e+08
1.63717e+08
1.56756e+08
1.6713e+08
1.59413e+08
1.70472e+08
1.62025e+08
1.73733e+08
1.64596e+08
1.76906e+08
1.67127e+08
1.79984e+08
1.69618e+08
1.82965e+08
1.72072e+08
1.85838e+08
1.74488e+08
1.88602e+08
1.76857e+08
1.91244e+08
1.79174e+08
1.93761e+08
1.81436e+08
1.96139e+08
1.8362e+08
1.98367e+08
1.85712e+08
2.00434e+08
1.87702e+08
2.02315e+08
1.8955e+08
2.03997e+08
1.91234e+08
2.05452e+08
1.92736e+08
2.06655e+08
1.9399e+08
2.07586e+08
1.94982e+08
2.08201e+08
1.95668e+08
2.08493e+08
1.96e+08
2.0843e+08
1.9598e+08
2.0799e+08
1.95551e+08
2.07182e+08
1.94747e+08
2.05977e+08
1.9355e+08
2.04407e+08
1.92016e+08
2.0247e+08
1.90168e+08
2.00206e+08
1.88074e+08
1.97645e+08
1.85788e+08
1.94828e+08
1.8337e+08
1.91808e+08
1.80885e+08
1.88662e+08
1.78426e+08
1.8468e+08
1.75597e+08
1.79946e+08
1.72165e+08
1.43249e+08
1.39152e+08
1.46103e+08
1.42855e+08
1.4922e+08
1.4627e+08
1.52448e+08
1.49476e+08
1.55727e+08
1.5252e+08
1.59026e+08
1.55432e+08
1.62326e+08
1.58239e+08
1.6561e+08
1.60958e+08
1.68857e+08
1.63602e+08
1.72052e+08
1.66183e+08
1.75182e+08
1.68713e+08
1.78238e+08
1.71195e+08
1.81206e+08
1.73633e+08
1.8407e+08
1.76028e+08
1.86817e+08
1.7838e+08
1.89441e+08
1.80671e+08
1.91922e+08
1.82893e+08
1.94247e+08
1.85035e+08
1.96401e+08
1.87064e+08
1.9837e+08
1.88952e+08
2.00127e+08
1.9068e+08
2.01657e+08
1.92194e+08
2.02937e+08
1.93453e+08
2.03938e+08
1.94433e+08
2.04657e+08
1.95058e+08
2.05057e+08
1.95323e+08
2.05127e+08
1.95174e+08
2.04868e+08
1.94613e+08
2.04257e+08
1.93641e+08
2.0332e+08
1.9228e+08
2.02042e+08
1.90581e+08
2.00467e+08
1.88588e+08
1.98594e+08
1.86377e+08
1.9647e+08
1.84004e+08
1.9411e+08
1.81543e+08
1.91546e+08
1.79047e+08
1.88784e+08
1.76568e+08
1.85782e+08
1.74105e+08
1.82292e+08
1.71608e+08
1.77928e+08
1.6873e+08
1.42802e+08
1.39853e+08
1.45633e+08
1.43585e+08
1.4861e+08
1.47121e+08
1.51675e+08
1.50467e+08
1.54793e+08
1.53643e+08
1.57941e+08
1.56672e+08
1.61102e+08
1.59573e+08
1.64257e+08
1.62366e+08
1.67393e+08
1.65066e+08
1.70496e+08
1.67687e+08
1.73548e+08
1.70243e+08
1.76533e+08
1.72745e+08
1.79432e+08
1.75193e+08
1.82231e+08
1.77588e+08
1.84907e+08
1.7992e+08
1.87443e+08
1.82183e+08
1.89823e+08
1.84355e+08
1.92031e+08
1.86406e+08
1.94038e+08
1.8831e+08
1.95828e+08
1.9003e+08
1.9739e+08
1.91509e+08
1.98686e+08
1.92716e+08
1.99711e+08
1.93592e+08
2.00448e+08
1.94083e+08
2.00869e+08
1.94174e+08
2.00995e+08
1.93807e+08
2.00791e+08
1.9302e+08
2.00292e+08
1.91792e+08
1.99483e+08
1.90202e+08
1.98398e+08
1.88275e+08
1.97048e+08
1.86112e+08
1.95462e+08
1.83759e+08
1.9366e+08
1.81305e+08
1.91664e+08
1.788e+08
1.89489e+08
1.763e+08
1.87142e+08
1.73824e+08
1.84616e+08
1.71396e+08
1.81966e+08
1.69002e+08
1.79297e+08
1.66791e+08
1.75546e+08
1.64485e+08
1.42055e+08
1.40552e+08
1.44951e+08
1.44302e+08
1.47882e+08
1.47913e+08
1.50858e+08
1.5136e+08
1.53873e+08
1.54647e+08
1.5691e+08
1.57783e+08
1.59956e+08
1.60782e+08
1.62996e+08
1.63661e+08
1.6602e+08
1.66437e+08
1.6901e+08
1.69125e+08
1.7195e+08
1.71735e+08
1.74821e+08
1.74276e+08
1.776e+08
1.76746e+08
1.80265e+08
1.79145e+08
1.82796e+08
1.81457e+08
1.85177e+08
1.83661e+08
1.87378e+08
1.85724e+08
1.89373e+08
1.87623e+08
1.91155e+08
1.89302e+08
1.92694e+08
1.90707e+08
1.93961e+08
1.91803e+08
1.94965e+08
1.92514e+08
1.95672e+08
1.92799e+08
1.96078e+08
1.92632e+08
1.96196e+08
1.91982e+08
1.96004e+08
1.90889e+08
1.95552e+08
1.89366e+08
1.94814e+08
1.87503e+08
1.93855e+08
1.85357e+08
1.92662e+08
1.83018e+08
1.91288e+08
1.80569e+08
1.89734e+08
1.78063e+08
1.8803e+08
1.75563e+08
1.8618e+08
1.73098e+08
1.84198e+08
1.70686e+08
1.82086e+08
1.68331e+08
1.79879e+08
1.66036e+08
1.77579e+08
1.63824e+08
1.75052e+08
1.61581e+08
1.7259e+08
1.59522e+08
1.41247e+08
1.41108e+08
1.44188e+08
1.44903e+08
1.47101e+08
1.48583e+08
1.50021e+08
1.52123e+08
1.52954e+08
1.55516e+08
1.55895e+08
1.58764e+08
1.58833e+08
1.61876e+08
1.61759e+08
1.64864e+08
1.64659e+08
1.67739e+08
1.67515e+08
1.70514e+08
1.70307e+08
1.73195e+08
1.73011e+08
1.75783e+08
1.75607e+08
1.78277e+08
1.78076e+08
1.80657e+08
1.80393e+08
1.82902e+08
1.82529e+08
1.84976e+08
1.84461e+08
1.86849e+08
1.86177e+08
1.8846e+08
1.87646e+08
1.89752e+08
1.88845e+08
1.9068e+08
1.8978e+08
1.91168e+08
1.90423e+08
1.91178e+08
1.9078e+08
1.90689e+08
1.9086e+08
1.89699e+08
1.9066e+08
1.88262e+08
1.90222e+08
1.86431e+08
1.89544e+08
1.84302e+08
1.88671e+08
1.8197e+08
1.8762e+08
1.79509e+08
1.86405e+08
1.77015e+08
1.85068e+08
1.74528e+08
1.836e+08
1.72085e+08
1.82026e+08
1.6971e+08
1.80345e+08
1.67406e+08
1.78574e+08
1.65165e+08
1.76712e+08
1.62986e+08
1.74773e+08
1.60855e+08
1.72727e+08
1.58751e+08
1.7071e+08
1.5673e+08
1.68533e+08
1.5472e+08
1.40527e+08
1.41448e+08
1.43454e+08
1.45314e+08
1.46336e+08
1.49075e+08
1.49196e+08
1.52716e+08
1.52045e+08
1.56228e+08
1.5488e+08
1.59607e+08
1.57698e+08
1.62855e+08
1.60488e+08
1.65976e+08
1.63234e+08
1.68973e+08
1.65913e+08
1.7185e+08
1.68504e+08
1.74605e+08
1.7099e+08
1.7723e+08
1.73346e+08
1.79706e+08
1.75547e+08
1.82005e+08
1.77567e+08
1.84089e+08
1.79385e+08
1.8592e+08
1.80983e+08
1.87437e+08
1.82336e+08
1.88577e+08
1.83426e+08
1.89282e+08
1.84253e+08
1.8949e+08
1.84804e+08
1.8916e+08
1.85081e+08
1.883e+08
1.85109e+08
1.86931e+08
1.84887e+08
1.85143e+08
1.84458e+08
1.8302e+08
1.83833e+08
1.80672e+08
1.83041e+08
1.78213e+08
1.82116e+08
1.7571e+08
1.81057e+08
1.73237e+08
1.79901e+08
1.70831e+08
1.78649e+08
1.68505e+08
1.77301e+08
1.66261e+08
1.75874e+08
1.64097e+08
1.74371e+08
1.61996e+08
1.728e+08
1.59941e+08
1.71156e+08
1.57937e+08
1.69455e+08
1.55959e+08
1.67745e+08
1.54027e+08
1.65943e+08
1.52123e+08
1.64116e+08
1.50262e+08
1.39971e+08
1.41551e+08
1.42826e+08
1.45499e+08
1.45636e+08
1.49357e+08
1.48407e+08
1.53115e+08
1.51144e+08
1.56766e+08
1.53847e+08
1.60297e+08
1.56511e+08
1.63702e+08
1.59122e+08
1.66973e+08
1.61661e+08
1.70103e+08
1.64108e+08
1.7308e+08
1.66444e+08
1.75885e+08
1.68647e+08
1.78493e+08
1.70691e+08
1.80869e+08
1.72554e+08
1.82972e+08
1.74214e+08
1.8475e+08
1.75653e+08
1.86147e+08
1.76853e+08
1.87095e+08
1.77799e+08
1.87525e+08
1.78484e+08
1.87394e+08
1.78917e+08
1.86675e+08
1.79098e+08
1.85407e+08
1.79061e+08
1.8365e+08
1.78811e+08
1.81534e+08
1.78394e+08
1.79168e+08
1.77818e+08
1.76678e+08
1.77113e+08
1.74173e+08
1.76307e+08
1.71708e+08
1.75398e+08
1.69328e+08
1.744e+08
1.67055e+08
1.73332e+08
1.64884e+08
1.72186e+08
1.62799e+08
1.70968e+08
1.60784e+08
1.69688e+08
1.58828e+08
1.6835e+08
1.5691e+08
1.66956e+08
1.5503e+08
1.65526e+08
1.53174e+08
1.64057e+08
1.51356e+08
1.62536e+08
1.49559e+08
1.61002e+08
1.47788e+08
1.59417e+08
1.4605e+08
1.39601e+08
1.41444e+08
1.42335e+08
1.45473e+08
1.45026e+08
1.49432e+08
1.47665e+08
1.53317e+08
1.50248e+08
1.57115e+08
1.52773e+08
1.60807e+08
1.55228e+08
1.64375e+08
1.57598e+08
1.67795e+08
1.59867e+08
1.7104e+08
1.62016e+08
1.74075e+08
1.64026e+08
1.76859e+08
1.65877e+08
1.79346e+08
1.67545e+08
1.81485e+08
1.69013e+08
1.83216e+08
1.70258e+08
1.84478e+08
1.71271e+08
1.852e+08
1.72041e+08
1.85319e+08
1.72564e+08
1.84798e+08
1.72856e+08
1.83657e+08
1.72934e+08
1.81964e+08
1.72823e+08
1.79847e+08
1.72549e+08
1.77457e+08
1.72146e+08
1.74928e+08
1.71622e+08
1.72393e+08
1.71006e+08
1.69932e+08
1.7031e+08
1.67578e+08
1.69534e+08
1.65348e+08
1.68683e+08
1.63246e+08
1.67772e+08
1.61246e+08
1.66796e+08
1.59327e+08
1.65757e+08
1.57466e+08
1.64661e+08
1.55645e+08
1.63518e+08
1.53859e+08
1.62333e+08
1.521e+08
1.61109e+08
1.50365e+08
1.59857e+08
1.4865e+08
1.58562e+08
1.4696e+08
1.57244e+08
1.45292e+08
1.55896e+08
1.4365e+08
1.54537e+08
1.42027e+08
1.39388e+08
1.41198e+08
1.41961e+08
1.45293e+08
1.44485e+08
1.49346e+08
1.46942e+08
1.53347e+08
1.49319e+08
1.57277e+08
1.51605e+08
1.61109e+08
1.53787e+08
1.64807e+08
1.5585e+08
1.68326e+08
1.5778e+08
1.71613e+08
1.59561e+08
1.74603e+08
1.61179e+08
1.77233e+08
1.62614e+08
1.79436e+08
1.63851e+08
1.81139e+08
1.64874e+08
1.8227e+08
1.65667e+08
1.82754e+08
1.6623e+08
1.82535e+08
1.66571e+08
1.81609e+08
1.66706e+08
1.80035e+08
1.66672e+08
1.77951e+08
1.66486e+08
1.75534e+08
1.66195e+08
1.72958e+08
1.65806e+08
1.70379e+08
1.65339e+08
1.67899e+08
1.64809e+08
1.65563e+08
1.64213e+08
1.63379e+08
1.63553e+08
1.61338e+08
1.62831e+08
1.59422e+08
1.62052e+08
1.57598e+08
1.61218e+08
1.55838e+08
1.6033e+08
1.5412e+08
1.59392e+08
1.52429e+08
1.5841e+08
1.50761e+08
1.57397e+08
1.49117e+08
1.56351e+08
1.4749e+08
1.55274e+08
1.45881e+08
1.54162e+08
1.44291e+08
1.53036e+08
1.42713e+08
1.5188e+08
1.41167e+08
1.5071e+08
1.39637e+08
1.49517e+08
1.38139e+08
1.39252e+08
1.40919e+08
1.41638e+08
1.45059e+08
1.43951e+08
1.49174e+08
1.46175e+08
1.53247e+08
1.4829e+08
1.57252e+08
1.5028e+08
1.61147e+08
1.52128e+08
1.64876e+08
1.53822e+08
1.68371e+08
1.55351e+08
1.71547e+08
1.56705e+08
1.74318e+08
1.57871e+08
1.76593e+08
1.58836e+08
1.78284e+08
1.59592e+08
1.793e+08
1.6013e+08
1.79558e+08
1.60452e+08
1.7901e+08
1.60577e+08
1.7769e+08
1.60542e+08
1.75731e+08
1.6038e+08
1.73335e+08
1.60132e+08
1.70725e+08
1.59819e+08
1.68102e+08
1.59453e+08
1.65596e+08
1.59046e+08
1.63268e+08
1.58591e+08
1.61127e+08
1.58083e+08
1.59154e+08
1.57521e+08
1.57317e+08
1.56906e+08
1.55589e+08
1.56242e+08
1.53931e+08
1.55527e+08
1.52317e+08
1.54765e+08
1.50729e+08
1.5396e+08
1.49155e+08
1.53118e+08
1.47596e+08
1.52244e+08
1.46057e+08
1.51347e+08
1.44531e+08
1.50419e+08
1.43019e+08
1.49465e+08
1.41521e+08
1.4849e+08
1.40037e+08
1.47495e+08
1.38574e+08
1.46489e+08
1.37132e+08
1.45462e+08
1.35719e+08
1.44426e+08
1.34326e+08
1.39078e+08
1.40724e+08
1.4125e+08
1.44879e+08
1.4332e+08
1.48999e+08
1.4527e+08
1.53062e+08
1.47079e+08
1.57025e+08
1.48724e+08
1.60834e+08
1.5019e+08
1.64411e+08
1.51469e+08
1.67666e+08
1.52552e+08
1.70495e+08
1.5343e+08
1.72787e+08
1.54097e+08
1.74435e+08
1.54546e+08
1.75326e+08
1.54777e+08
1.75361e+08
1.54807e+08
1.74508e+08
1.54681e+08
1.72854e+08
1.54443e+08
1.70606e+08
1.54146e+08
1.68044e+08
1.53822e+08
1.65423e+08
1.53493e+08
1.62917e+08
1.53156e+08
1.60617e+08
1.52798e+08
1.58541e+08
1.52403e+08
1.56656e+08
1.51968e+08
1.54919e+08
1.51489e+08
1.53291e+08
1.50967e+08
1.51741e+08
1.50399e+08
1.50234e+08
1.49785e+08
1.4875e+08
1.49129e+08
1.47278e+08
1.48436e+08
1.4581e+08
1.47712e+08
1.44353e+08
1.4696e+08
1.42911e+08
1.46181e+08
1.41478e+08
1.45381e+08
1.40055e+08
1.44555e+08
1.38643e+08
1.43713e+08
1.37244e+08
1.42852e+08
1.35864e+08
1.41976e+08
1.34502e+08
1.41091e+08
1.33163e+08
1.40193e+08
1.31849e+08
1.39287e+08
1.30558e+08
1.38721e+08
1.40712e+08
1.40664e+08
1.44836e+08
1.42471e+08
1.48877e+08
1.44121e+08
1.52799e+08
1.45594e+08
1.56542e+08
1.46866e+08
1.60038e+08
1.47929e+08
1.63193e+08
1.48765e+08
1.65903e+08
1.49366e+08
1.68055e+08
1.49726e+08
1.69535e+08
1.49842e+08
1.70209e+08
1.49727e+08
1.69966e+08
1.49423e+08
1.68792e+08
1.48994e+08
1.66859e+08
1.48521e+08
1.64461e+08
1.48067e+08
1.61934e+08
1.47663e+08
1.59519e+08
1.47306e+08
1.57337e+08
1.46974e+08
1.5541e+08
1.46643e+08
1.53693e+08
1.46294e+08
1.52118e+08
1.45918e+08
1.50641e+08
1.45509e+08
1.49226e+08
1.45064e+08
1.47853e+08
1.44574e+08
1.46491e+08
1.44044e+08
1.45129e+08
1.43478e+08
1.43764e+08
1.42878e+08
1.42393e+08
1.42253e+08
1.4103e+08
1.41604e+08
1.3968e+08
1.40928e+08
1.3833e+08
1.40233e+08
1.3699e+08
1.39515e+08
1.35655e+08
1.38782e+08
1.34334e+08
1.38036e+08
1.33031e+08
1.37273e+08
1.31744e+08
1.365e+08
1.30478e+08
1.35716e+08
1.29231e+08
1.34929e+08
1.28009e+08
1.34135e+08
1.26809e+08
1.3804e+08
1.40922e+08
1.39748e+08
1.44945e+08
1.41282e+08
1.48789e+08
1.42624e+08
1.52394e+08
1.43753e+08
1.55687e+08
1.4465e+08
1.58581e+08
1.45292e+08
1.60979e+08
1.45665e+08
1.62775e+08
1.45751e+08
1.63866e+08
1.45542e+08
1.64111e+08
1.45066e+08
1.63398e+08
1.44392e+08
1.61773e+08
1.43632e+08
1.59544e+08
1.42908e+08
1.57093e+08
1.42285e+08
1.548e+08
1.41779e+08
1.52817e+08
1.41367e+08
1.51162e+08
1.41013e+08
1.49769e+08
1.40676e+08
1.48526e+08
1.40335e+08
1.47347e+08
1.39987e+08
1.46191e+08
1.39621e+08
1.45035e+08
1.39231e+08
1.43871e+08
1.38802e+08
1.42671e+08
1.38341e+08
1.41441e+08
1.3785e+08
1.40188e+08
1.37331e+08
1.38912e+08
1.36795e+08
1.37639e+08
1.36237e+08
1.36373e+08
1.35648e+08
1.35097e+08
1.35042e+08
1.33833e+08
1.34412e+08
1.32567e+08
1.33772e+08
1.31316e+08
1.33119e+08
1.30084e+08
1.3245e+08
1.28863e+08
1.31775e+08
1.27666e+08
1.31085e+08
1.26482e+08
1.30391e+08
1.25323e+08
1.29699e+08
1.24183e+08
1.29003e+08
1.2307e+08
1.36919e+08
1.41291e+08
1.38398e+08
1.45107e+08
1.39667e+08
1.48599e+08
1.40706e+08
1.51683e+08
1.41494e+08
1.54268e+08
1.42004e+08
1.56256e+08
1.42202e+08
1.57543e+08
1.42062e+08
1.58046e+08
1.41563e+08
1.57592e+08
1.40741e+08
1.56104e+08
1.3971e+08
1.53758e+08
1.38654e+08
1.51081e+08
1.37708e+08
1.48542e+08
1.36944e+08
1.46562e+08
1.36333e+08
1.45116e+08
1.35836e+08
1.44094e+08
1.35404e+08
1.43335e+08
1.34999e+08
1.4267e+08
1.34615e+08
1.41995e+08
1.34249e+08
1.41271e+08
1.3389e+08
1.40478e+08
1.33524e+08
1.39611e+08
1.3313e+08
1.38641e+08
1.32718e+08
1.37598e+08
1.32287e+08
1.36496e+08
1.31835e+08
1.3534e+08
1.31374e+08
1.34174e+08
1.30891e+08
1.33003e+08
1.30375e+08
1.318e+08
1.29848e+08
1.30608e+08
1.29293e+08
1.29404e+08
1.28734e+08
1.28217e+08
1.2816e+08
1.27046e+08
1.2757e+08
1.25883e+08
1.26976e+08
1.24745e+08
1.26365e+08
1.23618e+08
1.25753e+08
1.22513e+08
1.25141e+08
1.21429e+08
1.24531e+08
1.2037e+08
1.23923e+08
1.19339e+08
1.35304e+08
1.41629e+08
1.36565e+08
1.4509e+08
1.37576e+08
1.48047e+08
1.3831e+08
1.50395e+08
1.38731e+08
1.52023e+08
1.38797e+08
1.52818e+08
1.3846e+08
1.52677e+08
1.37686e+08
1.5139e+08
1.36546e+08
1.48855e+08
1.35224e+08
1.45494e+08
1.33976e+08
1.4217e+08
1.32925e+08
1.39424e+08
1.3213e+08
1.37625e+08
1.31448e+08
1.36556e+08
1.30856e+08
1.36036e+08
1.30311e+08
1.35806e+08
1.29783e+08
1.3566e+08
1.29289e+08
1.35517e+08
1.2884e+08
1.35334e+08
1.28422e+08
1.35055e+08
1.28022e+08
1.34652e+08
1.27611e+08
1.3406e+08
1.27211e+08
1.33338e+08
1.26809e+08
1.32504e+08
1.264e+08
1.3156e+08
1.26e+08
1.30573e+08
1.2558e+08
1.29544e+08
1.25124e+08
1.28443e+08
1.24669e+08
1.27343e+08
1.2418e+08
1.26205e+08
1.23695e+08
1.25082e+08
1.23195e+08
1.23967e+08
1.22674e+08
1.22849e+08
1.22155e+08
1.21759e+08
1.21614e+08
1.20671e+08
1.21075e+08
1.19609e+08
1.20532e+08
1.18567e+08
1.19992e+08
1.17551e+08
1.19455e+08
1.16565e+08
1.18913e+08
1.15601e+08
1.33197e+08
1.4164e+08
1.34242e+08
1.4456e+08
1.34972e+08
1.46784e+08
1.3534e+08
1.48175e+08
1.35281e+08
1.48592e+08
1.34734e+08
1.47945e+08
1.33659e+08
1.45796e+08
1.32183e+08
1.42237e+08
1.3065e+08
1.37803e+08
1.29391e+08
1.33847e+08
1.2843e+08
1.3082e+08
1.27762e+08
1.2918e+08
1.27139e+08
1.28262e+08
1.26542e+08
1.27784e+08
1.25893e+08
1.27553e+08
1.25218e+08
1.27498e+08
1.24583e+08
1.27599e+08
1.23996e+08
1.27809e+08
1.23438e+08
1.2806e+08
1.22911e+08
1.28251e+08
1.22385e+08
1.28237e+08
1.21923e+08
1.2806e+08
1.21488e+08
1.27693e+08
1.21067e+08
1.27161e+08
1.20692e+08
1.26531e+08
1.20305e+08
1.25788e+08
1.19888e+08
1.24886e+08
1.19498e+08
1.23959e+08
1.19063e+08
1.2294e+08
1.18652e+08
1.21918e+08
1.1822e+08
1.20876e+08
1.17766e+08
1.19812e+08
1.17321e+08
1.18768e+08
1.16842e+08
1.17714e+08
1.16372e+08
1.16682e+08
1.15893e+08
1.15668e+08
1.15418e+08
1.14678e+08
1.14946e+08
1.1372e+08
1.14465e+08
1.12781e+08
1.13985e+08
1.11867e+08
1.30634e+08
1.40976e+08
1.31407e+08
1.43145e+08
1.31748e+08
1.44384e+08
1.31568e+08
1.4453e+08
1.30799e+08
1.43423e+08
1.29366e+08
1.4055e+08
1.27633e+08
1.3569e+08
1.26091e+08
1.30547e+08
1.2545e+08
1.27333e+08
1.25515e+08
1.26107e+08
1.25229e+08
1.25349e+08
1.24892e+08
1.24754e+08
1.24358e+08
1.24147e+08
1.238e+08
1.23563e+08
1.23292e+08
1.23026e+08
1.22723e+08
1.22501e+08
1.22029e+08
1.21976e+08
1.21242e+08
1.21486e+08
1.20396e+08
1.21085e+08
1.19588e+08
1.20941e+08
1.18703e+08
1.20931e+08
1.17762e+08
1.20974e+08
1.16951e+08
1.21081e+08
1.16297e+08
1.21136e+08
1.15699e+08
1.2098e+08
1.15124e+08
1.20581e+08
1.14676e+08
1.20037e+08
1.14189e+08
1.19312e+08
1.13783e+08
1.18534e+08
1.13367e+08
1.17676e+08
1.12939e+08
1.16736e+08
1.12544e+08
1.15794e+08
1.12105e+08
1.14802e+08
1.11691e+08
1.13819e+08
1.11266e+08
1.12834e+08
1.1085e+08
1.11864e+08
1.10439e+08
1.1092e+08
1.10012e+08
1.0999e+08
1.09586e+08
1.09082e+08
1.09172e+08
1.08207e+08
1.27592e+08
1.39308e+08
1.27936e+08
1.40411e+08
1.27677e+08
1.40252e+08
1.26735e+08
1.38761e+08
1.25136e+08
1.34489e+08
1.23563e+08
1.28655e+08
1.2361e+08
1.25328e+08
1.2425e+08
1.24303e+08
1.23934e+08
1.23567e+08
1.23227e+08
1.22809e+08
1.22485e+08
1.2213e+08
1.21806e+08
1.21484e+08
1.21195e+08
1.20852e+08
1.20611e+08
1.2024e+08
1.20039e+08
1.19635e+08
1.19478e+08
1.19024e+08
1.18926e+08
1.18406e+08
1.18385e+08
1.17792e+08
1.1787e+08
1.17198e+08
1.1735e+08
1.16611e+08
1.16849e+08
1.16085e+08
1.16213e+08
1.15584e+08
1.15309e+08
1.15068e+08
1.14316e+08
1.14698e+08
1.13373e+08
1.14602e+08
1.12282e+08
1.14426e+08
1.11238e+08
1.14309e+08
1.10444e+08
1.1412e+08
1.09721e+08
1.13735e+08
1.09056e+08
1.13195e+08
1.08527e+08
1.12528e+08
1.07974e+08
1.11733e+08
1.07499e+08
1.10911e+08
1.0703e+08
1.10043e+08
1.06597e+08
1.0915e+08
1.0619e+08
1.08256e+08
1.0577e+08
1.07354e+08
1.0536e+08
1.06458e+08
1.04972e+08
1.05582e+08
1.04608e+08
1.04735e+08
1.23941e+08
1.36216e+08
1.23714e+08
1.35688e+08
1.22861e+08
1.33448e+08
1.21523e+08
1.27986e+08
1.21908e+08
1.23761e+08
1.23225e+08
1.2274e+08
1.22606e+08
1.21817e+08
1.21665e+08
1.21006e+08
1.20806e+08
1.20243e+08
1.20045e+08
1.19507e+08
1.19307e+08
1.18812e+08
1.18615e+08
1.18147e+08
1.17972e+08
1.17504e+08
1.17361e+08
1.16875e+08
1.16777e+08
1.16255e+08
1.1622e+08
1.1564e+08
1.15684e+08
1.15028e+08
1.15163e+08
1.14424e+08
1.14651e+08
1.13825e+08
1.14151e+08
1.1323e+08
1.13634e+08
1.1263e+08
1.13106e+08
1.12008e+08
1.12591e+08
1.11377e+08
1.1206e+08
1.10763e+08
1.11491e+08
1.10165e+08
1.10956e+08
1.09681e+08
1.10113e+08
1.09123e+08
1.0914e+08
1.08697e+08
1.08165e+08
1.08435e+08
1.0707e+08
1.08058e+08
1.0599e+08
1.07731e+08
1.05125e+08
1.07324e+08
1.04327e+08
1.068e+08
1.03635e+08
1.06206e+08
1.03037e+08
1.05529e+08
1.02463e+08
1.04766e+08
1.01933e+08
1.03975e+08
1.01456e+08
1.0318e+08
1.01024e+08
1.02382e+08
1.00651e+08
1.01605e+08
1.19784e+08
1.30873e+08
1.19546e+08
1.28016e+08
1.19716e+08
1.22548e+08
1.21754e+08
1.21021e+08
1.2132e+08
1.20083e+08
1.20247e+08
1.19214e+08
1.19306e+08
1.1837e+08
1.18391e+08
1.17574e+08
1.17541e+08
1.16819e+08
1.1676e+08
1.16095e+08
1.16025e+08
1.15402e+08
1.15335e+08
1.14737e+08
1.14687e+08
1.14093e+08
1.14076e+08
1.13466e+08
1.13496e+08
1.12853e+08
1.12944e+08
1.1225e+08
1.12413e+08
1.11655e+08
1.11898e+08
1.11068e+08
1.11393e+08
1.10487e+08
1.10896e+08
1.09905e+08
1.10403e+08
1.0932e+08
1.09921e+08
1.0873e+08
1.09444e+08
1.08137e+08
1.08959e+08
1.07544e+08
1.0847e+08
1.06956e+08
1.0793e+08
1.06351e+08
1.07422e+08
1.05727e+08
1.06871e+08
1.05105e+08
1.06272e+08
1.0449e+08
1.05718e+08
1.03979e+08
1.04962e+08
1.03422e+08
1.04106e+08
1.02983e+08
1.03183e+08
1.0255e+08
1.0219e+08
1.02049e+08
1.01201e+08
1.01569e+08
1.00316e+08
1.01087e+08
9.9544e+07
1.00553e+08
9.88536e+07
9.99999e+07
9.82704e+07
9.94297e+07
9.77461e+07
9.88348e+07
1.16553e+08
1.22251e+08
1.18874e+08
1.18962e+08
1.19791e+08
1.18211e+08
1.18859e+08
1.17333e+08
1.17797e+08
1.1647e+08
1.16777e+08
1.15635e+08
1.15836e+08
1.14824e+08
1.1495e+08
1.14048e+08
1.14123e+08
1.13306e+08
1.13355e+08
1.12594e+08
1.12637e+08
1.11912e+08
1.11964e+08
1.11257e+08
1.11332e+08
1.10625e+08
1.10736e+08
1.10012e+08
1.10172e+08
1.09415e+08
1.09635e+08
1.08833e+08
1.0912e+08
1.08262e+08
1.08622e+08
1.077e+08
1.08138e+08
1.07144e+08
1.07665e+08
1.06593e+08
1.07202e+08
1.06045e+08
1.06746e+08
1.05497e+08
1.06293e+08
1.0495e+08
1.05838e+08
1.04402e+08
1.05376e+08
1.0385e+08
1.04911e+08
1.03293e+08
1.04451e+08
1.02729e+08
1.0398e+08
1.02163e+08
1.035e+08
1.01602e+08
1.02973e+08
1.01036e+08
1.02466e+08
1.00456e+08
1.01909e+08
9.98657e+07
1.01314e+08
9.92786e+07
1.00729e+08
9.87457e+07
1.00106e+08
9.82458e+07
9.94028e+07
9.77805e+07
9.86533e+07
9.73473e+07
9.78629e+07
9.68809e+07
9.70791e+07
9.64551e+07
9.63229e+07
9.60665e+07
1.17676e+08
1.15905e+08
1.17379e+08
1.15316e+08
1.16187e+08
1.14546e+08
1.15118e+08
1.13695e+08
1.14087e+08
1.12839e+08
1.13112e+08
1.12007e+08
1.12204e+08
1.11206e+08
1.11357e+08
1.1044e+08
1.10567e+08
1.09709e+08
1.09832e+08
1.09012e+08
1.09145e+08
1.08346e+08
1.08503e+08
1.07708e+08
1.079e+08
1.07095e+08
1.07333e+08
1.06505e+08
1.06797e+08
1.05933e+08
1.06287e+08
1.05378e+08
1.05801e+08
1.04837e+08
1.05333e+08
1.04308e+08
1.04881e+08
1.03789e+08
1.04441e+08
1.03277e+08
1.04013e+08
1.02771e+08
1.03591e+08
1.02269e+08
1.03175e+08
1.0177e+08
1.02761e+08
1.01273e+08
1.02348e+08
1.00777e+08
1.01934e+08
1.00281e+08
1.01521e+08
9.97847e+07
1.01103e+08
9.92879e+07
1.00674e+08
9.87897e+07
1.00237e+08
9.829e+07
9.97996e+07
9.77852e+07
9.93565e+07
9.72788e+07
9.89069e+07
9.67795e+07
9.84351e+07
9.62896e+07
9.79562e+07
9.58027e+07
9.74722e+07
9.53149e+07
9.6961e+07
9.48302e+07
9.64431e+07
9.43649e+07
9.59326e+07
9.39393e+07
9.54682e+07
9.35936e+07
1.15336e+08
1.12739e+08
1.13736e+08
1.11843e+08
1.12423e+08
1.10923e+08
1.11289e+08
1.1001e+08
1.10261e+08
1.09127e+08
1.09317e+08
1.08286e+08
1.08446e+08
1.07487e+08
1.0764e+08
1.06731e+08
1.06894e+08
1.06016e+08
1.06201e+08
1.05338e+08
1.05556e+08
1.04695e+08
1.04955e+08
1.04083e+08
1.04392e+08
1.03498e+08
1.03864e+08
1.02938e+08
1.03367e+08
1.02399e+08
1.02896e+08
1.0188e+08
1.02448e+08
1.01376e+08
1.02021e+08
1.00887e+08
1.01609e+08
1.00409e+08
1.01212e+08
9.9942e+07
1.00826e+08
9.94835e+07
1.0045e+08
9.9032e+07
1.00081e+08
9.85864e+07
9.97164e+07
9.81456e+07
9.93559e+07
9.77088e+07
9.89976e+07
9.72754e+07
9.86404e+07
9.68448e+07
9.82824e+07
9.64162e+07
9.79227e+07
9.59898e+07
9.7561e+07
9.55655e+07
9.71996e+07
9.51435e+07
9.68368e+07
9.47251e+07
9.64687e+07
9.43116e+07
9.60941e+07
9.39039e+07
9.57182e+07
9.35013e+07
9.53444e+07
9.31031e+07
9.49722e+07
9.27133e+07
9.45996e+07
9.23366e+07
9.42231e+07
9.19741e+07
9.38242e+07
9.16066e+07
1.11698e+08
1.09115e+08
1.09964e+08
1.08048e+08
1.08563e+08
1.07054e+08
1.07379e+08
1.06116e+08
1.06343e+08
1.05233e+08
1.05417e+08
1.04403e+08
1.04579e+08
1.03624e+08
1.03815e+08
1.02893e+08
1.03115e+08
1.02206e+08
1.0247e+08
1.0156e+08
1.01874e+08
1.0095e+08
1.01322e+08
1.00373e+08
1.00808e+08
9.98258e+07
1.00328e+08
9.93047e+07
9.98789e+07
9.88068e+07
9.9456e+07
9.83295e+07
9.90562e+07
9.78703e+07
9.86766e+07
9.7427e+07
9.83144e+07
9.69978e+07
9.7967e+07
9.65807e+07
9.76323e+07
9.61743e+07
9.73081e+07
9.57772e+07
9.69928e+07
9.53882e+07
9.66847e+07
9.50064e+07
9.63823e+07
9.46311e+07
9.60844e+07
9.42617e+07
9.57901e+07
9.38975e+07
9.54986e+07
9.35384e+07
9.52093e+07
9.31843e+07
9.49217e+07
9.28355e+07
9.4636e+07
9.24924e+07
9.43515e+07
9.21553e+07
9.40676e+07
9.18249e+07
9.37846e+07
9.15022e+07
9.35041e+07
9.11877e+07
9.3228e+07
9.08825e+07
9.29555e+07
9.05878e+07
9.26856e+07
9.03041e+07
9.24184e+07
9.00302e+07
9.21645e+07
8.97659e+07
1.07277e+08
1.05071e+08
1.05702e+08
1.03946e+08
1.0437e+08
1.02933e+08
1.0323e+08
1.02004e+08
1.02237e+08
1.01146e+08
1.01358e+08
1.00349e+08
1.00572e+08
9.96076e+07
9.98629e+07
9.89172e+07
9.92195e+07
9.82729e+07
9.86326e+07
9.76703e+07
9.80949e+07
9.71054e+07
9.76005e+07
9.65743e+07
9.7144e+07
9.60737e+07
9.67212e+07
9.56003e+07
9.6328e+07
9.51511e+07
9.5961e+07
9.47236e+07
9.56171e+07
9.43154e+07
9.52933e+07
9.39244e+07
9.49871e+07
9.35486e+07
9.46963e+07
9.31864e+07
9.44189e+07
9.28364e+07
9.4153e+07
9.24973e+07
9.38972e+07
9.2168e+07
9.36499e+07
9.18477e+07
9.341e+07
9.15357e+07
9.31766e+07
9.12314e+07
9.29488e+07
9.09344e+07
9.27261e+07
9.06446e+07
9.2508e+07
9.0362e+07
9.22942e+07
9.00867e+07
9.20845e+07
8.9819e+07
9.18791e+07
8.95593e+07
9.1678e+07
8.93083e+07
9.14816e+07
8.90666e+07
9.12908e+07
8.88352e+07
9.11066e+07
8.86147e+07
9.09298e+07
8.84061e+07
9.07617e+07
8.82104e+07
9.06056e+07
8.80296e+07
9.04652e+07
8.78664e+07
1.02333e+08
1.00661e+08
1.00995e+08
9.95568e+07
9.9823e+07
9.85741e+07
9.87991e+07
9.76855e+07
9.79003e+07
9.6874e+07
9.71058e+07
9.61287e+07
9.63986e+07
9.54416e+07
9.57653e+07
9.48063e+07
9.51952e+07
9.42176e+07
9.46796e+07
9.36707e+07
9.42116e+07
9.31615e+07
9.37852e+07
9.26861e+07
9.33955e+07
9.22413e+07
9.30381e+07
9.18238e+07
9.27094e+07
9.14308e+07
9.24059e+07
9.10599e+07
9.21248e+07
9.07088e+07
9.18634e+07
9.03755e+07
9.16196e+07
9.00581e+07
9.13911e+07
8.97552e+07
9.11762e+07
8.94655e+07
9.09734e+07
8.91876e+07
9.07813e+07
8.89207e+07
9.05986e+07
8.86639e+07
9.04244e+07
8.84167e+07
9.02578e+07
8.81785e+07
9.00983e+07
8.79491e+07
8.99453e+07
8.77282e+07
8.97986e+07
8.75159e+07
8.96578e+07
8.73124e+07
8.95231e+07
8.71178e+07
8.93946e+07
8.69326e+07
8.92726e+07
8.67574e+07
8.91575e+07
8.65927e+07
8.905e+07
8.64395e+07
8.89511e+07
8.62984e+07
8.88619e+07
8.61708e+07
8.87838e+07
8.60579e+07
8.87182e+07
8.59616e+07
8.86663e+07
8.58841e+07
9.7026e+07
9.59413e+07
9.59392e+07
9.49121e+07
9.49651e+07
9.39974e+07
9.41003e+07
9.31761e+07
9.33345e+07
9.24326e+07
9.26559e+07
9.17557e+07
9.2053e+07
9.11369e+07
9.15158e+07
9.05695e+07
9.10359e+07
9.00478e+07
9.06059e+07
8.9567e+07
9.02198e+07
8.91231e+07
8.98722e+07
8.87122e+07
8.95587e+07
8.83311e+07
8.92754e+07
8.79769e+07
8.90188e+07
8.76468e+07
8.8786e+07
8.73386e+07
8.85743e+07
8.70501e+07
8.83814e+07
8.67794e+07
8.82053e+07
8.6525e+07
8.8044e+07
8.62853e+07
8.78962e+07
8.6059e+07
8.77602e+07
8.58452e+07
8.76351e+07
8.5643e+07
8.75197e+07
8.54516e+07
8.74133e+07
8.52704e+07
8.73151e+07
8.5099e+07
8.72247e+07
8.49372e+07
8.71416e+07
8.47849e+07
8.70655e+07
8.46419e+07
8.69965e+07
8.45086e+07
8.69345e+07
8.4385e+07
8.68798e+07
8.42717e+07
8.68325e+07
8.41691e+07
8.67932e+07
8.40777e+07
8.67623e+07
8.39985e+07
8.67408e+07
8.39322e+07
8.67293e+07
8.38798e+07
8.67286e+07
8.38427e+07
8.67396e+07
8.3822e+07
8.67628e+07
8.38191e+07
9.14516e+07
9.09685e+07
9.06139e+07
9.00468e+07
8.98527e+07
8.9228e+07
8.91694e+07
8.84961e+07
8.85606e+07
8.78384e+07
8.80204e+07
8.72446e+07
8.75419e+07
8.67067e+07
8.71184e+07
8.62181e+07
8.67438e+07
8.57733e+07
8.64126e+07
8.53677e+07
8.61198e+07
8.49973e+07
8.58612e+07
8.46585e+07
8.56329e+07
8.43482e+07
8.54316e+07
8.40636e+07
8.52545e+07
8.38023e+07
8.50989e+07
8.35621e+07
8.49625e+07
8.3341e+07
8.48433e+07
8.31373e+07
8.47396e+07
8.29495e+07
8.46498e+07
8.27762e+07
8.45725e+07
8.26165e+07
8.45066e+07
8.24691e+07
8.44511e+07
8.23334e+07
8.44051e+07
8.22088e+07
8.43679e+07
8.20946e+07
8.43389e+07
8.19905e+07
8.43178e+07
8.18964e+07
8.43041e+07
8.1812e+07
8.42978e+07
8.17374e+07
8.42987e+07
8.16727e+07
8.43069e+07
8.16181e+07
8.43225e+07
8.15741e+07
8.43458e+07
8.1541e+07
8.43772e+07
8.15195e+07
8.44169e+07
8.15101e+07
8.44656e+07
8.15137e+07
8.45237e+07
8.1531e+07
8.45919e+07
8.1563e+07
8.46705e+07
8.16105e+07
8.476e+07
8.16745e+07
8.56759e+07
8.57903e+07
8.50816e+07
8.49968e+07
8.45372e+07
8.42932e+07
8.4046e+07
8.36677e+07
8.36079e+07
8.311e+07
8.32207e+07
8.26116e+07
8.28808e+07
8.21652e+07
8.25844e+07
8.17649e+07
8.23273e+07
8.14055e+07
8.21058e+07
8.10827e+07
8.19162e+07
8.07928e+07
8.17552e+07
8.05325e+07
8.16201e+07
8.02989e+07
8.1508e+07
8.00894e+07
8.14167e+07
7.99018e+07
8.13439e+07
7.97341e+07
8.1288e+07
7.95845e+07
8.12471e+07
7.94514e+07
8.12199e+07
7.93335e+07
8.1205e+07
7.92295e+07
8.12014e+07
7.91385e+07
8.12081e+07
7.90596e+07
8.12242e+07
7.89921e+07
8.1249e+07
7.89353e+07
8.1282e+07
7.88888e+07
8.13227e+07
7.88523e+07
8.13708e+07
7.88256e+07
8.1426e+07
7.88085e+07
8.14881e+07
7.88011e+07
8.15572e+07
7.88035e+07
8.16332e+07
7.88159e+07
8.17161e+07
7.88387e+07
8.18063e+07
7.88721e+07
8.19039e+07
7.89169e+07
8.20093e+07
7.89734e+07
8.21228e+07
7.90422e+07
8.22447e+07
7.91242e+07
8.23754e+07
7.92198e+07
8.25155e+07
7.93298e+07
8.26651e+07
7.94547e+07
7.97484e+07
8.04483e+07
7.9391e+07
7.97956e+07
7.90626e+07
7.92203e+07
7.87674e+07
7.87135e+07
7.8507e+07
7.8267e+07
7.82814e+07
7.78737e+07
7.80895e+07
7.75275e+07
7.79294e+07
7.72231e+07
7.77988e+07
7.69562e+07
7.76953e+07
7.67226e+07
7.76167e+07
7.65191e+07
7.75607e+07
7.63426e+07
7.75252e+07
7.61906e+07
7.75082e+07
7.60607e+07
7.7508e+07
7.59509e+07
7.75231e+07
7.58595e+07
7.75519e+07
7.57847e+07
7.75932e+07
7.57252e+07
7.76458e+07
7.56799e+07
7.77088e+07
7.56475e+07
7.77812e+07
7.56273e+07
7.78624e+07
7.56184e+07
7.79517e+07
7.56201e+07
7.80484e+07
7.56321e+07
7.81523e+07
7.56537e+07
7.82629e+07
7.56848e+07
7.83799e+07