/*--------------------------------*- C++ -*----------------------------------*\
| =========                 |                                                 |
| \\      /  F ield         | OpenFOAM: The Open Source CFD Toolbox           |
|  \\    /   O peration     | Version:  v2012                                 |
|   \\  /    A nd           | Website:  www.openfoam.com                      |
|    \\/     M anipulation  |                                                 |
\*---------------------------------------------------------------------------*/
FoamFile
{
    version     2.0;
    format      ascii;
    class       volScalarField;
    location    "15";
    object      sigmaEq;
}
// * * * * * * * * * * * * * * * * * * * * * * * * * * * * * * * * * * * * * //

dimensions      [1 -1 -2 0 0 0 0];


internalField   nonuniform List<scalar> 
1896
(
4.33255e+07
5.94155e+07
4.27927e+07
1.26653e+08
4.34151e+07
4.44754e+07
1.29773e+08
4.16155e+07
6.43585e+07
3.90306e+07
4.09809e+07
3.32017e+07
2.96715e+07
3.13487e+07
1.26423e+08
9.69879e+07
6.85848e+07
1.15645e+08
7.42345e+07
4.02644e+07
7.77932e+07
5.77001e+07
1.21087e+08
1.21322e+08
6.09765e+07
5.96806e+07
2.40887e+07
2.88624e+07
4.3802e+07
8.12308e+07
8.15449e+07
6.01227e+07
2.63063e+07
5.87462e+07
1.11043e+08
4.3397e+07
7.7983e+07
5.4237e+07
1.18943e+08
8.30966e+07
5.94912e+07
7.80732e+07
7.14751e+07
9.48616e+07
2.4307e+07
2.6229e+07
1.24807e+08
4.16546e+07
1.04514e+08
1.31562e+08
4.17525e+07
4.28855e+07
4.28296e+07
5.77334e+07
7.22043e+07
6.25359e+07
8.71867e+07
4.37247e+07
5.32143e+07
8.08055e+07
4.06741e+07
1.34006e+08
1.26192e+08
4.92149e+07
1.97617e+07
6.01283e+07
1.10233e+08
4.65675e+07
5.36029e+07
1.16688e+08
1.63779e+07
1.21662e+08
5.34926e+07
6.2569e+07
1.13336e+08
5.93636e+07
5.93399e+07
4.86184e+07
4.89679e+07
6.07341e+07
6.06315e+07
1.17969e+08
2.96601e+07
4.10101e+07
4.09851e+07
6.67841e+07
5.34364e+07
5.01094e+07
8.1806e+07
6.34936e+07
5.42318e+07
5.83082e+07
5.52372e+07
9.47579e+07
1.29218e+08
5.96205e+07
5.75627e+07
4.06064e+07
5.86072e+07
5.59434e+07
6.03999e+07
4.67148e+07
4.80529e+07
6.21594e+07
7.46701e+07
6.75654e+07
6.56753e+07
1.03235e+08
1.0677e+08
6.05398e+07
4.13937e+07
5.78703e+07
1.00105e+08
8.3293e+07
7.17575e+07
5.53739e+07
3.03559e+07
5.77703e+07
8.05883e+07
7.93212e+07
8.93963e+07
6.68598e+07
5.51928e+07
3.58751e+07
3.35047e+07
7.90802e+07
9.93178e+07
4.18919e+07
7.65343e+07
6.01504e+07
6.22868e+07
5.62395e+07
9.94326e+07
8.12875e+07
7.28083e+07
1.28708e+08
1.07188e+08
1.14617e+08
5.95126e+07
8.70898e+07
5.53045e+07
9.7274e+07
8.61681e+07
1.47301e+08
4.90384e+07
6.67389e+07
6.58423e+07
7.7297e+07
1.16701e+08
5.60194e+07
2.98643e+07
5.6724e+07
5.5564e+07
5.12448e+07
5.17494e+07
9.19576e+07
3.14758e+07
9.29924e+07
7.16475e+07
4.10135e+07
4.33683e+07
1.21337e+08
6.81307e+07
5.15474e+07
1.33885e+08
3.88723e+07
9.10667e+07
4.22554e+07
4.24064e+07
5.82197e+07
5.81328e+07
6.09316e+07
3.28719e+07
2.93785e+07
1.1956e+08
1.19993e+08
1.08823e+08
6.01025e+07
4.18639e+07
6.9359e+07
2.91783e+07
8.14372e+07
5.13937e+07
1.11161e+08
1.21469e+08
1.37361e+08
5.74673e+07
1.47213e+08
9.3262e+07
3.97467e+07
1.0732e+08
4.22278e+07
9.47273e+07
1.36457e+08
3.78751e+07
4.03056e+07
6.95836e+07
9.7769e+07
3.67165e+07
3.26084e+07
5.2372e+07
6.70169e+07
4.17113e+07
5.24357e+07
1.40912e+08
5.03269e+07
1.02556e+08
9.97694e+07
9.22781e+07
6.34992e+07
1.21845e+08
7.64864e+07
6.49094e+07
6.39281e+07
3.80546e+07
6.41394e+07
6.29572e+07
9.30636e+07
9.30467e+07
8.33126e+07
3.95249e+07
5.27546e+07
1.37064e+08
1.08589e+08
5.64674e+07
8.73262e+07
1.00745e+08
6.45359e+07
1.20599e+08
5.93607e+07
9.29045e+07
4.10702e+07
4.16549e+07
4.02716e+07
5.91185e+07
4.62628e+07
4.64945e+07
9.57327e+07
1.47874e+08
8.15904e+07
9.33931e+07
1.05347e+08
4.07813e+07
1.45677e+08
5.67617e+07
3.51273e+07
5.17603e+07
3.25935e+07
2.61437e+07
9.98925e+07
6.32886e+07
7.26428e+07
5.98551e+07
3.98944e+07
5.94767e+07
5.5365e+07
4.72817e+07
1.50737e+08
1.23597e+08
1.06799e+08
7.47202e+07
8.12559e+07
6.20977e+07
4.74416e+07
7.09732e+07
7.50434e+07
9.03981e+07
5.61919e+07
8.4563e+07
5.46685e+07
5.83482e+07
3.50224e+07
1.39896e+08
2.45548e+07
6.93014e+07
4.56894e+07
1.04991e+08
4.76665e+07
5.671e+07
4.22965e+07
6.02211e+07
1.02307e+08
3.69393e+07
5.95502e+07
6.31902e+07
1.12984e+08
6.36417e+07
5.72229e+07
6.02413e+07
4.12557e+07
8.49431e+07
7.49729e+07
7.54009e+07
6.5578e+07
1.4369e+08
1.32707e+07
1.06362e+08
5.30075e+07
1.45371e+08
5.3221e+07
1.4698e+08
7.73702e+07
1.1877e+08
1.37008e+08
5.50963e+07
4.72917e+07
4.88657e+07
3.35907e+07
3.22186e+07
5.60641e+07
5.14969e+07
6.17555e+07
2.91816e+07
4.17473e+07
5.81396e+07
7.60254e+07
3.53664e+07
5.37426e+07
7.39705e+07
5.10614e+07
4.90134e+07
1.27335e+08
1.28764e+08
7.54841e+07
4.05044e+07
6.73389e+07
7.36227e+07
3.89306e+07
4.58544e+07
5.71301e+07
5.32073e+07
7.41434e+07
4.09314e+07
5.91162e+07
3.7864e+07
8.78887e+07
4.0374e+07
1.23329e+08
4.51643e+07
5.83363e+07
7.82545e+07
5.44258e+07
8.24953e+07
6.88418e+07
3.30472e+07
7.63781e+07
7.37038e+07
9.52854e+07
5.40776e+07
6.63115e+07
3.72225e+07
4.61738e+07
7.97423e+07
6.60592e+07
7.00101e+07
7.62236e+07
2.26074e+07
1.25425e+08
5.78557e+07
8.80019e+07
7.70094e+07
1.36444e+08
1.30052e+08
4.57577e+07
5.80074e+07
6.70054e+07
9.08649e+07
9.14599e+07
6.09342e+07
6.84068e+07
1.32215e+08
3.00629e+07
3.9165e+07
5.94508e+07
5.79918e+07
5.69911e+07
9.19468e+07
8.42371e+07
5.27923e+07
5.63713e+07
4.9169e+07
5.95702e+07
4.6128e+07
5.07042e+07
5.38941e+07
4.68862e+07
1.28532e+08
5.71258e+07
4.08147e+07
1.34471e+08
4.25577e+07
4.47028e+07
1.2583e+08
8.3207e+07
4.8703e+07
4.15697e+07
8.47625e+07
9.49401e+07
5.78071e+07
5.73148e+07
6.38682e+07
7.21783e+07
7.56867e+07
1.29235e+07
8.57444e+07
7.21345e+07
6.22508e+07
1.30962e+08
2.44746e+07
1.11378e+08
7.25241e+07
3.70598e+07
3.50876e+07
1.25781e+08
9.54891e+07
9.55161e+07
5.19545e+07
1.26677e+08
7.29797e+07
4.5762e+07
7.79074e+07
3.89417e+07
5.94738e+07
1.17029e+08
8.48625e+07
6.00324e+07
4.33211e+07
8.42026e+07
1.22743e+08
1.26123e+08
4.8039e+07
7.47784e+07
7.29316e+07
6.30856e+07
8.72868e+07
8.31049e+07
6.10442e+07
1.1804e+08
7.83403e+07
5.19258e+07
8.19408e+07
8.25157e+07
5.11013e+07
1.4476e+08
3.99364e+07
5.93175e+07
5.10461e+07
4.62367e+07
4.51981e+07
7.37754e+07
1.33346e+08
6.36366e+07
6.33257e+07
4.80192e+07
6.33253e+07
3.67287e+07
5.01997e+07
7.92989e+07
6.32824e+07
4.41609e+07
1.00996e+08
5.52492e+07
8.92179e+07
8.23626e+07
7.48063e+07
1.26945e+08
9.12408e+07
9.05488e+07
4.27471e+07
9.3259e+07
4.60543e+07
3.95035e+07
6.50495e+07
5.60219e+07
5.46501e+07
5.32566e+07
7.89892e+07
4.1157e+07
5.86146e+07
7.9919e+07
5.79408e+07
3.85401e+07
5.20055e+07
4.6748e+07
5.08064e+07
1.37365e+08
3.82302e+07
8.56359e+07
6.13761e+07
8.07428e+07
9.31699e+07
6.24652e+07
7.63547e+07
4.55071e+07
1.30961e+08
1.07534e+08
5.92627e+07
6.51199e+07
3.33827e+07
7.04525e+07
5.65833e+07
6.04495e+07
4.31828e+07
8.07295e+07
4.46771e+07
3.71709e+07
3.20854e+07
7.07621e+07
5.92366e+07
9.02057e+07
6.59467e+07
7.39808e+07
2.28359e+07
4.69619e+07
5.96716e+07
1.19237e+08
2.97702e+07
6.03495e+07
4.91135e+07
4.95361e+07
4.18279e+07
5.70039e+07
1.32459e+08
4.33464e+07
1.26956e+08
5.46905e+07
5.11886e+07
1.2457e+08
5.6956e+07
5.58525e+07
4.33304e+07
5.34571e+07
3.29288e+07
7.79356e+07
4.80952e+07
3.30506e+07
6.14495e+07
6.19629e+07
5.78226e+07
1.09738e+08
9.84801e+07
2.14005e+07
8.00857e+07
4.56155e+07
4.62099e+07
6.1418e+07
8.641e+07
4.22318e+07
5.18216e+07
5.14294e+07
3.98393e+07
1.1312e+08
8.96856e+07
6.94592e+07
2.92342e+07
1.22793e+08
7.73616e+07
1.01626e+08
6.02342e+07
1.18212e+08
1.2462e+08
5.76633e+07
6.59227e+07
1.35861e+08
5.47073e+07
1.38887e+08
2.22318e+07
6.72259e+07
7.24757e+07
5.64111e+07
5.83805e+07
3.08823e+07
2.41617e+07
1.01906e+08
8.44091e+07
1.18824e+08
4.64702e+07
7.41307e+07
9.12021e+07
4.7478e+07
5.74923e+07
1.09732e+08
6.19909e+07
5.36054e+07
9.19436e+07
8.85561e+07
1.78925e+07
2.13899e+07
3.33504e+07
9.85509e+07
1.22413e+08
1.35805e+08
8.57771e+07
1.86181e+07
1.38171e+08
2.62704e+07
5.81459e+07
8.82604e+07
9.90566e+07
5.65207e+07
8.63748e+07
1.2993e+08
6.92036e+07
1.31698e+08
1.05479e+08
1.39105e+08
1.04888e+08
1.03029e+08
3.47345e+07
4.39215e+07
5.28047e+07
3.19861e+07
4.35033e+07
1.25346e+08
2.8733e+07
5.34774e+07
4.62202e+07
1.33906e+08
9.1272e+07
3.09506e+07
2.41288e+07
9.98137e+07
6.73457e+07
1.30601e+08
3.42074e+07
5.36674e+07
1.29092e+08
1.2144e+08
3.57171e+07
6.06019e+07
2.6651e+07
1.05453e+08
7.08878e+07
1.04716e+08
7.85126e+07
4.98139e+07
4.95915e+07
7.24526e+07
1.10269e+08
5.20727e+07
4.41947e+07
4.31531e+07
1.19479e+08
1.36747e+08
6.52133e+07
6.8487e+07
8.35507e+07
4.29833e+07
1.24726e+08
6.67385e+07
7.89785e+07
4.08974e+07
9.52239e+07
7.35135e+07
1.31243e+08
5.35095e+07
9.04336e+07
6.96589e+07
7.57849e+07
8.60629e+07
6.25694e+07
5.7773e+07
6.33349e+07
8.52391e+07
9.20237e+07
9.56618e+07
5.63441e+07
4.23974e+07
8.01211e+07
7.33938e+07
6.91601e+07
5.20019e+07
8.45416e+07
7.97531e+07
6.01503e+07
1.4441e+08
1.23397e+08
1.41406e+08
1.95288e+07
4.73764e+07
5.97737e+07
6.75077e+07
1.33572e+08
3.94388e+07
6.6131e+07
6.09522e+07
6.67614e+07
4.38441e+07
1.28756e+08
7.01953e+07
7.15808e+07
1.15662e+08
6.8649e+07
1.43531e+08
6.11944e+07
6.0455e+07
6.26699e+07
6.54177e+07
1.36481e+08
6.2023e+07
4.19482e+07
7.00357e+07
7.16963e+07
7.21845e+07
6.61402e+07
8.23889e+07
6.13555e+07
1.15467e+08
2.11075e+07
1.09537e+08
9.2667e+07
4.02213e+07
8.81023e+07
7.47699e+07
1.37072e+08
4.12989e+07
1.21172e+08
1.38121e+08
1.08255e+08
6.55913e+07
5.44832e+07
6.4861e+07
1.33181e+08
2.02039e+07
1.08378e+08
2.22448e+07
3.92357e+07
5.94783e+07
6.36736e+07
1.10691e+08
6.82927e+07
2.57848e+07
6.66264e+07
2.60342e+07
8.51492e+07
1.25562e+08
5.82588e+07
9.34215e+07
7.36641e+07
2.35746e+07
6.05139e+07
7.71961e+07
4.15016e+07
2.16379e+07
5.28981e+07
4.69865e+07
5.68854e+07
1.09676e+08
7.78447e+07
5.13063e+07
1.04066e+08
6.7777e+07
9.961e+07
6.7225e+07
2.70178e+07
6.74154e+07
1.0605e+08
5.61873e+07
1.2386e+08
1.2711e+08
8.09621e+07
1.11164e+08
7.16488e+07
2.06959e+07
9.3483e+07
9.57999e+07
8.85713e+07
1.15017e+08
1.16536e+08
3.20891e+07
7.05703e+07
1.21043e+08
1.09118e+08
7.61396e+07
5.9564e+07
7.60567e+07
7.42719e+07
4.24079e+07
1.02671e+08
4.58413e+07
9.34964e+07
9.74223e+07
1.38417e+08
4.91346e+07
4.90938e+07
3.47974e+07
3.54196e+07
5.42152e+07
1.30095e+08
5.45381e+07
1.26256e+08
9.02704e+07
4.62054e+07
8.13055e+06
4.04837e+07
4.89002e+07
9.4831e+07
7.1768e+07
1.47462e+07
4.95712e+07
5.50993e+07
5.10683e+07
3.35204e+07
5.10193e+07
4.75217e+07
4.41076e+07
8.24212e+07
8.04926e+07
8.54499e+07
2.42602e+07
6.97973e+07
2.79332e+07
4.31796e+07
6.43124e+07
5.77104e+07
1.21056e+08
4.12932e+07
7.038e+07
4.53588e+07
1.39649e+08
8.82735e+07
4.45464e+07
8.51392e+07
1.48657e+08
6.46559e+07
4.62535e+07
4.01183e+07
5.97728e+07
8.89268e+07
5.13376e+07
3.01142e+07
2.87349e+07
1.27801e+08
3.15019e+07
6.15204e+07
1.07855e+08
3.40666e+07
6.20135e+07
9.82536e+07
5.99612e+07
5.88859e+07
6.05687e+07
6.74168e+07
6.29516e+07
8.54813e+07
5.37694e+07
6.16405e+07
4.50569e+07
1.28322e+08
1.82708e+07
6.28579e+07
6.19484e+07
4.77743e+07
5.51969e+07
7.29772e+07
1.75213e+07
7.76206e+07
5.42502e+07
7.18277e+07
1.73405e+07
6.4014e+07
1.19727e+08
1.28241e+08
1.28856e+08
6.6738e+07
5.28949e+07
5.01865e+07
5.38205e+07
8.86764e+07
5.87331e+07
6.48623e+07
1.05517e+08
7.26596e+07
8.81898e+07
5.25256e+07
5.97496e+07
4.0835e+07
1.1343e+08
5.67591e+07
4.48316e+07
7.79835e+07
1.01967e+08
4.8273e+07
7.84885e+07
4.0653e+07
4.63326e+07
1.35281e+08
2.75424e+07
1.35688e+08
7.74282e+07
7.58892e+07
1.10526e+08
4.0014e+07
3.9568e+07
5.88522e+07
5.93873e+07
4.10842e+07
4.39632e+07
4.81661e+07
4.67871e+07
2.88365e+07
3.48009e+07
5.94561e+07
9.04366e+07
1.15845e+08
4.44779e+07
4.73954e+07
6.56186e+07
8.51129e+07
1.11543e+08
8.63091e+07
5.23945e+07
9.15471e+07
1.08737e+08
1.37944e+08
9.01212e+07
9.18593e+07
4.15606e+07
1.0647e+08
3.80388e+07
4.10317e+07
1.11823e+08
9.57428e+07
6.19596e+07
7.14287e+07
9.28688e+07
4.02347e+07
3.4295e+07
5.53586e+07
4.56539e+07
4.04194e+07
1.43528e+08
6.62121e+07
8.47784e+07
6.04709e+07
6.20758e+07
4.2714e+07
9.9611e+07
1.04885e+08
1.06076e+08
8.02985e+07
1.06076e+08
8.71792e+07
7.1066e+07
6.00581e+07
5.97799e+07
6.17635e+07
8.25926e+07
9.66782e+07
5.87501e+07
8.79595e+07
7.36451e+07
9.66522e+07
7.61835e+07
9.41692e+07
9.75019e+07
3.24317e+07
1.00794e+08
3.6321e+07
6.55006e+07
7.42544e+07
8.93492e+07
4.56926e+07
1.3805e+08
1.41825e+08
7.69175e+07
1.28952e+08
4.87366e+07
4.73167e+07
1.1035e+08
4.23887e+07
4.61496e+07
1.03479e+08
4.20507e+07
2.282e+07
9.67811e+07
5.91455e+07
4.95643e+07
4.95594e+07
4.54656e+07
7.32029e+07
7.9458e+07
1.32803e+08
4.18407e+07
8.91944e+07
6.16469e+07
4.07333e+07
5.02915e+07
1.46745e+08
1.35285e+08
6.55966e+07
5.05412e+07
8.13622e+07
8.1133e+07
6.46721e+07
8.71949e+07
9.89479e+07
4.26845e+07
6.31755e+07
6.76861e+07
1.32079e+08
4.4896e+07
7.0075e+07
4.27758e+07
9.40622e+07
1.29722e+07
1.44838e+08
4.52012e+07
1.41043e+08
6.09628e+07
4.42864e+07
4.44431e+07
1.2766e+08
7.07233e+07
5.88561e+07
1.0644e+08
1.07464e+08
8.35315e+07
4.06623e+07
7.38404e+07
3.5663e+07
1.66337e+07
3.59297e+07
4.35426e+07
1.48405e+08
5.02037e+07
4.77711e+07
3.92305e+07
6.75586e+07
5.42371e+07
1.18775e+08
4.63615e+07
1.04794e+08
5.98821e+07
8.96957e+07
9.37899e+07
1.24998e+08
1.27566e+08
4.12596e+07
5.88994e+07
6.37711e+07
9.70918e+07
6.18626e+07
4.58811e+07
5.664e+07
5.70942e+07
9.95998e+07
1.10608e+08
4.06573e+07
5.93726e+07
8.19041e+07
4.03827e+07
7.13989e+07
1.17727e+08
5.76269e+07
5.69842e+07
6.77499e+07
6.64399e+07
6.70063e+07
1.10237e+08
5.60577e+07
2.40535e+07
4.16853e+07
7.04294e+07
5.37705e+07
6.07479e+07
8.04907e+07
4.27646e+07
5.42897e+07
9.10788e+07
1.26471e+08
1.16626e+08
8.89105e+07
7.54579e+07
1.03196e+08
7.42034e+07
7.31618e+07
8.07915e+07
3.83215e+07
3.6128e+07
4.88378e+07
4.77489e+07
8.8359e+07
1.00468e+08
8.29897e+07
1.11056e+08
4.48978e+07
3.32947e+07
6.22083e+07
8.76607e+07
3.83885e+07
3.79236e+07
9.65947e+07
1.50857e+07
6.1914e+07
6.90556e+07
7.09307e+07
1.27313e+08
1.06159e+08
4.28475e+07
1.2575e+08
9.44705e+07
3.87108e+07
3.79463e+07
1.29078e+08
9.17297e+07
4.98851e+07
9.1231e+07
1.13877e+08
1.38168e+08
3.15936e+07
6.21316e+07
8.66171e+07
4.7277e+07
4.49052e+07
3.72529e+07
5.52364e+07
1.37456e+08
6.18197e+07
4.54048e+07
6.45628e+07
3.94656e+07
8.07228e+07
4.4607e+07
8.9974e+07
6.81169e+07
4.78022e+07
4.83168e+07
3.92781e+07
1.16165e+08
5.0081e+07
1.11634e+08
8.93793e+07
1.06299e+08
4.06075e+07
4.97189e+07
2.74965e+07
5.73472e+07
6.12088e+07
2.93062e+07
6.93952e+07
1.00769e+08
9.82604e+07
3.38431e+07
3.77153e+07
8.57292e+07
2.36826e+07
3.49345e+07
1.221e+08
6.94242e+07
6.08845e+07
1.87077e+07
4.5528e+07
4.79943e+07
1.35574e+07
1.02447e+08
5.04327e+07
6.2514e+07
1.05847e+08
3.6376e+07
5.04477e+07
5.64901e+07
1.1541e+08
1.23515e+08
1.22603e+08
1.29778e+08
4.58337e+07
1.0713e+08
3.84323e+07
6.81079e+07
2.5231e+07
9.26145e+07
6.68532e+07
9.55305e+07
8.28466e+07
8.05139e+07
4.96491e+07
4.59288e+07
8.14543e+07
6.22422e+07
6.89965e+07
6.80091e+07
4.85833e+07
7.37407e+07
3.5172e+07
5.8749e+07
4.18046e+07
7.94768e+07
3.4312e+07
3.20694e+07
8.63736e+07
6.33309e+07
6.4534e+07
9.03158e+07
9.75328e+07
9.04652e+07
1.34563e+08
5.68207e+07
5.69379e+07
1.21584e+08
6.48196e+07
6.7608e+07
1.04675e+08
4.1883e+07
4.41881e+07
1.25348e+08
1.84975e+07
2.65824e+07
9.56228e+07
9.47568e+07
5.40257e+07
5.95395e+07
5.00438e+07
5.10563e+07
3.45576e+07
8.72388e+07
5.07843e+07
5.12868e+07
1.55249e+07
2.76267e+07
5.51152e+07
5.49097e+07
3.80759e+07
4.93626e+07
9.41201e+07
5.72047e+07
6.82879e+07
8.79797e+07
6.4052e+07
4.2203e+07
5.58803e+07
4.48089e+07
4.24166e+07
4.94811e+07
4.10333e+07
1.7085e+07
3.7344e+07
3.6915e+07
5.56378e+07
8.92254e+07
6.29843e+07
6.23524e+07
1.18414e+08
7.12989e+07
1.15989e+08
1.31605e+08
6.16303e+07
6.46643e+07
5.64082e+07
4.30921e+07
5.41756e+07
1.85633e+07
1.70048e+07
6.06666e+07
2.17946e+07
3.9619e+07
4.43601e+07
3.38538e+07
5.38803e+07
5.84418e+07
1.25924e+08
6.0509e+07
9.52264e+07
9.661e+07
1.07979e+08
1.04918e+08
4.54087e+07
4.45917e+07
4.44996e+07
6.82249e+07
5.3907e+07
3.44553e+07
6.25752e+07
1.15765e+08
1.01346e+08
1.3282e+08
1.09687e+08
7.0162e+07
9.75337e+07
1.00432e+08
1.37453e+08
5.06313e+07
5.423e+07
9.22453e+07
4.48867e+07
4.96734e+07
1.29319e+08
5.66587e+07
5.43085e+07
5.46762e+07
5.1326e+07
4.09325e+07
4.26918e+07
4.49347e+07
5.90209e+07
6.07641e+07
6.12281e+07
9.33912e+07
9.67098e+07
1.17659e+08
6.90114e+07
2.81458e+07
2.83917e+07
6.40716e+07
1.27224e+08
5.59904e+07
7.88007e+07
6.3389e+07
5.75113e+07
7.33434e+07
7.4299e+07
1.11724e+08
5.51636e+07
9.59209e+07
4.16796e+07
5.60907e+07
4.1252e+07
1.85863e+07
4.05704e+07
6.92083e+07
5.19476e+07
1.12546e+08
9.45525e+07
2.88541e+07
5.713e+07
5.2995e+07
1.03196e+08
4.21949e+07
4.24398e+07
5.36422e+07
6.9164e+07
6.6103e+07
8.70723e+07
7.75528e+07
4.0469e+07
5.86793e+07
4.93109e+07
1.40654e+08
1.33252e+08
5.28402e+07
2.76322e+07
9.90268e+07
1.00819e+08
9.28811e+07
5.5193e+07
7.64575e+07
7.60421e+07
3.35511e+07
5.3781e+07
8.36634e+07
7.34327e+07
1.08166e+08
7.58086e+07
2.92531e+07
6.09789e+07
3.93986e+07
3.93156e+07
1.43655e+08
8.91724e+07
4.18611e+07
4.40435e+07
4.88809e+07
2.10765e+07
4.43092e+07
4.46471e+07
8.03334e+07
4.68643e+07
5.56547e+07
4.90417e+07
4.44487e+07
1.1304e+08
1.1412e+08
6.28999e+07
2.27661e+07
1.60047e+07
7.22435e+07
1.95887e+07
1.01896e+08
9.88807e+07
9.78684e+07
5.64492e+07
5.57759e+07
4.43872e+07
4.47998e+07
1.20614e+08
6.75063e+07
5.20817e+07
6.15151e+07
6.54111e+07
8.48307e+07
2.2542e+07
5.54516e+07
2.82051e+07
7.09805e+07
5.39173e+07
1.4192e+08
6.96609e+07
5.96184e+07
5.75184e+07
7.81555e+07
7.82821e+07
5.71731e+07
2.7318e+07
5.9611e+07
2.16587e+07
5.27047e+07
5.33875e+07
1.16369e+08
1.05165e+08
4.83639e+07
9.23057e+07
1.02031e+08
1.04085e+08
1.33092e+08
6.92043e+07
6.80217e+07
3.89679e+07
3.87468e+07
5.93981e+07
5.94638e+07
3.98365e+07
1.13145e+08
7.76917e+07
4.70715e+07
5.07977e+07
8.97254e+07
5.56554e+07
1.06889e+08
4.85359e+07
5.47825e+07
1.17202e+08
6.96528e+07
6.92802e+07
1.14053e+08
8.34589e+07
7.14899e+07
7.26528e+07
1.10367e+08
8.55856e+07
1.45877e+07
7.51274e+07
1.22076e+08
6.42352e+07
6.42638e+07
4.99286e+07
5.16839e+07
6.73027e+07
1.47318e+08
5.7574e+07
9.5294e+07
7.17853e+07
9.66989e+07
3.90742e+07
6.02788e+07
5.86553e+07
8.89377e+07
8.45703e+07
8.60718e+07
5.85261e+07
1.38975e+08
8.60412e+07
4.45146e+07
6.94757e+07
3.1255e+07
3.02327e+07
6.83668e+07
6.85501e+07
1.11867e+08
1.10881e+08
1.29191e+08
6.41493e+07
7.94518e+07
9.69841e+07
7.66135e+07
3.78288e+07
7.07256e+07
2.84282e+07
4.23613e+07
1.07937e+08
6.41507e+07
5.86593e+07
3.32518e+07
8.77811e+07
1.13987e+08
1.75088e+07
5.51099e+07
3.88286e+07
3.65869e+07
1.07364e+08
6.82889e+07
6.02311e+07
1.04604e+08
4.29953e+07
8.57413e+07
7.12115e+07
6.16314e+07
5.01159e+07
1.33297e+08
8.68995e+07
4.74171e+07
8.60739e+07
3.68629e+07
7.70323e+07
6.77528e+07
7.14046e+07
7.07856e+07
1.35992e+08
8.51931e+07
4.61237e+07
4.55239e+07
4.97143e+07
1.1355e+08
1.29862e+08
8.56586e+07
5.94304e+07
5.93329e+07
1.28083e+08
1.14724e+08
7.9549e+07
5.35387e+07
5.76403e+07
9.31922e+07
8.97191e+07
1.09032e+08
9.4105e+07
5.85968e+07
8.17227e+07
1.2966e+08
1.27233e+08
8.29225e+07
6.86602e+07
6.84257e+07
6.73529e+07
1.3328e+08
5.13792e+07
5.09193e+07
5.04744e+07
4.76291e+07
6.98883e+07
6.73148e+07
9.11047e+07
3.93884e+07
3.68818e+07
8.94288e+07
1.3661e+08
4.7243e+07
4.83087e+07
8.5406e+07
6.91941e+07
6.33894e+07
3.72088e+07
3.56974e+07
4.28273e+07
1.09159e+08
5.03432e+07
4.38919e+07
4.2331e+07
6.29322e+07
1.16217e+08
1.14991e+08
4.56287e+07
4.54476e+07
6.648e+07
6.45639e+07
6.01534e+07
8.68594e+07
6.54704e+07
1.03623e+08
4.93792e+07
4.98758e+07
8.71516e+07
4.60057e+07
6.9035e+07
8.37776e+07
8.60487e+07
8.344e+07
1.35721e+08
4.84295e+07
1.15393e+08
7.89792e+07
5.69163e+07
9.98358e+07
4.11868e+07
4.06155e+07
4.41035e+07
8.27603e+07
5.17933e+07
5.22908e+07
1.15998e+08
5.34654e+07
1.01644e+08
6.34105e+07
6.64867e+07
6.47565e+07
6.4442e+07
1.06563e+08
4.80263e+07
9.93776e+07
3.327e+07
3.30061e+07
7.53062e+07
6.40025e+07
2.44091e+07
5.20285e+07
4.76594e+07
4.14622e+07
1.4567e+08
5.02347e+07
2.11666e+07
4.91784e+07
5.17217e+07
7.17463e+07
4.35039e+07
5.43818e+07
4.02232e+07
2.51395e+07
2.05465e+07
1.85764e+07
1.66216e+07
4.95712e+07
1.95181e+07
4.79791e+07
8.00874e+07
5.55821e+07
6.11666e+07
6.0449e+07
1.32418e+08
9.91489e+07
1.02776e+08
1.2444e+08
1.04925e+08
1.14392e+08
4.00582e+07
5.94163e+07
1.32043e+08
1.28859e+07
1.03713e+08
5.05571e+07
4.7621e+07
6.60688e+07
6.70188e+07
4.25851e+07
4.37473e+07
7.68188e+07
5.13506e+07
4.62242e+07
6.03893e+07
8.55523e+07
8.47082e+07
1.28803e+08
1.34702e+08
8.305e+07
5.89623e+07
1.28379e+08
4.2018e+07
4.24872e+07
1.02231e+08
3.63573e+07
1.15813e+08
6.16872e+07
1.13664e+08
6.34659e+07
6.95747e+07
4.6307e+07
1.15659e+08
3.9518e+07
6.09865e+07
3.52606e+07
4.45211e+07
7.59278e+07
7.77385e+07
1.07049e+08
4.52298e+07
4.54294e+07
3.8495e+07
6.64583e+07
6.78329e+07
5.61187e+07
3.81872e+07
1.13131e+08
6.29063e+07
3.60501e+07
4.04805e+07
7.32991e+07
1.0584e+08
1.2904e+08
1.30017e+08
4.86208e+07
1.11591e+08
1.30678e+08
9.18404e+07
5.95759e+07
5.88991e+07
5.8608e+07
5.87273e+07
8.05877e+07
1.10748e+08
6.092e+07
4.91925e+07
6.70121e+07
6.48007e+07
1.4347e+07
9.60432e+07
9.75489e+07
7.41564e+07
4.87071e+07
7.71915e+07
6.34391e+07
3.75932e+07
7.83553e+07
5.16844e+07
6.30751e+07
6.88931e+07
8.79176e+07
1.04253e+08
6.38691e+07
6.58433e+07
6.34214e+07
1.00228e+08
1.38998e+08
8.58106e+07
1.11756e+08
1.4258e+08
1.18213e+08
4.70287e+07
1.11735e+08
5.23134e+07
4.02693e+07
7.76221e+07
4.80699e+07
4.89459e+07
4.42327e+07
6.45455e+07
6.65587e+07
1.19611e+08
6.83437e+07
1.01699e+08
6.19359e+07
7.45572e+07
7.28486e+07
1.24206e+08
5.00617e+07
9.62236e+07
3.25861e+07
4.65088e+07
6.99189e+07
1.18812e+08
3.87936e+07
8.92409e+07
5.52112e+07
4.23923e+07
4.51119e+07
4.57383e+07
4.3737e+07
1.0655e+08
5.81761e+07
8.69585e+07
6.71875e+07
8.78281e+07
6.23025e+07
1.31865e+08
1.16513e+08
8.4253e+07
4.5969e+07
6.54722e+07
1.14654e+08
7.85973e+07
1.3835e+08
5.27605e+07
7.23007e+07
6.01517e+07
3.69507e+07
3.93713e+07
4.49493e+07
5.31269e+07
6.69961e+07
5.95573e+07
6.18337e+07
6.12828e+07
5.57851e+07
5.84688e+07
6.35587e+07
7.23716e+07
7.09515e+07
8.05764e+07
1.79692e+07
4.49742e+07
1.07784e+08
7.06535e+07
4.81332e+07
3.7279e+07
3.66755e+07
4.93191e+07
4.95782e+07
6.16491e+07
6.54533e+07
1.12282e+08
8.30202e+07
7.16755e+07
4.7405e+07
6.60686e+07
4.69701e+07
1.26994e+08
1.23999e+08
3.07499e+07
3.07175e+07
4.30732e+07
5.69758e+07
4.50826e+07
6.61778e+07
4.89624e+07
4.92462e+07
7.66565e+07
8.29773e+07
3.97e+07
9.95066e+07
6.01083e+07
6.46398e+07
5.07288e+07
6.54654e+07
6.28805e+07
9.60679e+07
9.6378e+07
1.00765e+08
7.06542e+07
8.0109e+07
1.0939e+08
1.14334e+08
4.90191e+07
4.67628e+07
5.46183e+07
5.87159e+07
6.38863e+07
4.89347e+07
4.18222e+07
3.81146e+07
5.61949e+07
3.38643e+07
6.63666e+07
1.11124e+08
6.17361e+07
7.36434e+07
7.30509e+07
6.75148e+07
7.05277e+07
4.9012e+07
7.01405e+07
5.30284e+07
5.23026e+07
5.8604e+07
1.02786e+08
7.78939e+07
7.54731e+07
2.31171e+07
1.0392e+08
9.38332e+07
9.70076e+07
7.83281e+07
6.22736e+07
3.94195e+07
5.94259e+07
5.93274e+07
3.98557e+07
7.85713e+07
6.43575e+07
4.25757e+07
4.25967e+07
4.90863e+07
7.80967e+07
7.80658e+07
1.24377e+08
1.24362e+08
7.93042e+07
8.1682e+07
7.93803e+07
7.27477e+07
7.24629e+07
8.35901e+07
1.09665e+08
1.10891e+08
6.10729e+07
6.03532e+07
7.01136e+07
7.51627e+07
7.46515e+07
8.53021e+07
4.55163e+07
3.43501e+07
3.42764e+07
1.32174e+08
1.32312e+08
7.59924e+07
7.50572e+07
7.83633e+07
7.70251e+07
4.11568e+07
)
;

boundaryField
{
    back
    {
        type            empty;
    }
    front
    {
        type            empty;
    }
    down
    {
        type            symmetry;
    }
    right
    {
        type            calculated;
        value           nonuniform List<scalar> 
20
(
4.12516e+07
5.79516e+07
5.64574e+07
3.96347e+07
5.92075e+07
5.1783e+07
4.66076e+07
4.51009e+07
3.92154e+07
5.93975e+07
4.24849e+07
4.04515e+07
5.85772e+07
5.52392e+07
5.38941e+07
3.88904e+07
5.94205e+07
4.86218e+07
5.04399e+07
4.37205e+07
)
;
    }
    up
    {
        type            calculated;
        value           nonuniform List<scalar> 
40
(
6.23303e+07
1.13908e+08
1.22053e+08
1.37565e+08
5.94058e+07
8.34326e+07
1.04385e+08
7.37248e+07
1.25316e+08
8.44331e+07
1.37027e+08
5.78011e+07
9.54518e+07
1.29658e+08
6.92109e+07
1.07421e+08
6.53082e+07
1.3331e+08
1.03364e+08
6.07372e+07
1.35639e+08
7.96429e+07
7.11095e+07
9.32019e+07
1.25535e+08
1.18225e+08
5.93695e+07
4.51591e+07
1.38966e+08
7.65193e+07
8.74788e+07
7.04795e+07
3.9072e+07
6.03031e+07
1.35868e+08
1.15092e+08
9.9475e+07
6.40125e+07
1.32534e+08
5.94438e+07
)
;
    }
    left
    {
        type            symmetry;
    }
    hole
    {
        type            calculated;
        value           nonuniform List<scalar> 
16
(
8.23277e+07
1.36239e+07
6.12846e+07
6.9763e+07
9.50139e+07
2.40021e+07
5.41096e+07
8.91279e+07
8.91475e+06
7.57558e+07
4.70023e+07
4.13422e+07
7.41185e+07
6.22831e+07
6.3986e+07
6.54391e+07
)
;
    }
}


// ************************************************************************* //
