/*--------------------------------*- C++ -*----------------------------------*\
| =========                 |                                                 |
| \\      /  F ield         | OpenFOAM: The Open Source CFD Toolbox           |
|  \\    /   O peration     | Version:  v2012                                 |
|   \\  /    A nd           | Website:  www.openfoam.com                      |
|    \\/     M anipulation  |                                                 |
\*---------------------------------------------------------------------------*/
FoamFile
{
    version     2.0;
    format      ascii;
    class       volVectorField;
    location    "17";
    object      D_0;
}
// * * * * * * * * * * * * * * * * * * * * * * * * * * * * * * * * * * * * * //

dimensions      [0 1 0 0 0 0 0];


internalField   nonuniform List<vector> 
7666
(
(0.00170484 -2.78373e-06 0)
(0.00171286 -1.09543e-05 0)
(0.0009907 -0.000863868 0)
(0.00160183 -2.80521e-05 0)
(0.00118162 -0.000183271 0)
(0.000885793 -0.000326564 0)
(0.00195177 -2.81001e-05 0)
(0.00161784 -3.89106e-05 0)
(0.000615443 -0.000474377 0)
(0.00194089 -2.3979e-05 0)
(0.00165806 -6.60013e-06 0)
(0.00176443 -8.74125e-05 0)
(0.00162243 -3.40386e-05 0)
(0.0017185 -2.4147e-05 0)
(0.00198365 -1.39355e-05 0)
(0.00116214 -0.000470339 0)
(0.00162319 -3.73445e-05 0)
(0.00101317 -0.000244747 0)
(0.00166758 -8.41422e-05 0)
(0.00181595 -1.55274e-05 0)
(0.00178907 -1.73318e-06 0)
(0.00136313 -0.000105977 0)
(0.00170682 -3.0238e-05 0)
(0.00157453 -2.22241e-05 0)
(0.000884271 -0.000387617 0)
(0.00198418 -1.34963e-05 0)
(0.000871749 -0.00040328 0)
(0.00164498 -1.33705e-05 0)
(0.00162529 -3.49685e-05 0)
(0.00184316 -0.000106914 0)
(0.00176518 -0.000133974 0)
(0.00102125 -0.000238287 0)
(0.00166584 -2.36913e-05 0)
(0.0018689 -7.43835e-05 0)
(0.00165909 -4.78689e-05 0)
(0.00177137 -9.11047e-06 0)
(0.00177664 -8.23797e-06 0)
(0.00180561 -0.000108232 0)
(0.00104377 -0.000213302 0)
(0.00190831 -2.90708e-05 0)
(0.00143356 -0.000183237 0)
(0.000444844 -0.0010307 0)
(8.0963e-05 -0.00130817 0)
(0.00159878 -2.0881e-05 0)
(0.000164947 -0.00124979 0)
(0.00196374 -2.26835e-05 0)
(0.00079595 -0.000362521 0)
(0.00143261 -0.000172996 0)
(0.00135552 -0.000158075 0)
(0.00173302 -3.75923e-08 0)
(0.00164713 -1.40307e-05 0)
(0.0014384 -0.000129144 0)
(0.00195605 -2.89775e-05 0)
(0.000636466 -0.00045808 0)
(0.00176777 -2.68148e-07 0)
(0.00117052 -0.000481193 0)
(0.00172821 1.68364e-08 0)
(0.00173185 -1.53424e-07 0)
(0.000973414 -0.000427218 0)
(0.000874149 -0.000329195 0)
(0.00172723 -1.49996e-06 0)
(0.00180811 -0.000109663 0)
(0.00165484 -2.70821e-05 0)
(0.00164945 -2.86047e-05 0)
(0.00171765 -4.09191e-07 0)
(0.00134933 -0.000143589 0)
(0.00193182 -1.42273e-05 0)
(0.00172085 -1.25605e-07 0)
(0.00105888 -0.000490493 0)
(0.000968316 -0.000416151 0)
(0.00103333 -0.000506933 0)
(0.00203096 -6.67652e-07 0)
(0.00202853 -9.49927e-07 0)
(0.00187725 -9.44113e-05 0)
(0.00187159 -9.77692e-05 0)
(0.00197428 -2.07612e-05 0)
(0.000111022 -0.00129434 0)
(0.0016949 -2.16663e-05 0)
(0.00168969 -2.32255e-05 0)
(0.00172662 -1.73664e-06 0)
(0.00189051 -4.68649e-05 0)
(0.00199871 -5.94706e-06 0)
(0.00151937 -4.27734e-05 0)
(9.60551e-05 -0.00130171 0)
(0.00170882 -0.000112812 0)
(0.0015158 -0.000154359 0)
(0.00151308 -0.000150603 0)
(0.00138254 -0.000121779 0)
(0.00138975 -0.000152971 0)
(0.00180215 -0.000118461 0)
(0.00178525 -4.27687e-05 0)
(0.00179048 -4.35328e-05 0)
(0.00144038 -0.000166737 0)
(0.000876139 -0.000589374 0)
(0.000406226 -0.000655575 0)
(0.00124089 -0.000303195 0)
(0.00167095 -4.82444e-05 0)
(0.00101871 -0.000848666 0)
(0.00166706 -8.74095e-05 0)
(0.00182254 -1.46998e-05 0)
(0.00143267 -0.000165113 0)
(0.00184957 -0.0001061 0)
(0.00164882 -2.29417e-05 0)
(0.000720598 -0.000854028 0)
(0.0015711 -6.95444e-05 0)
(0.00109821 -0.000188806 0)
(0.000250852 -0.00118734 0)
(0.00119045 -0.000150072 0)
(0.00195784 -2.60521e-05 0)
(0.0014449 -0.000140015 0)
(0.00165127 -1.9014e-05 0)
(0.00128055 -0.000108571 0)
(0.00166748 -8.44894e-06 0)
(0.00173262 -1.09251e-06 0)
(0.00165882 -6.39835e-06 0)
(0.00111409 -0.000212306 0)
(0.00164912 -1.04671e-05 0)
(0.00164571 -7.55178e-05 0)
(0.00177499 -0.000110261 0)
(0.00177626 -0.000107005 0)
(0.000819273 -0.000339939 0)
(0.00191969 -6.78476e-05 0)
(0.00180028 -6.93297e-05 0)
(0.00197569 -1.59931e-05 0)
(0.00158383 -2.03548e-05 0)
(0.00173803 5.78523e-08 0)
(0.00119973 -0.000145179 0)
(0.00136094 -8.03796e-05 0)
(0.00149447 -3.90195e-05 0)
(0.00171351 -4.45401e-05 0)
(0.0011589 -0.000506514 0)
(0.00159863 -0.000116989 0)
(0.00182442 -6.1874e-06 0)
(3.79733e-05 -0.00135066 0)
(0.00179774 -7.1772e-05 0)
(0.00111019 -0.000184982 0)
(0.00189696 -4.45927e-05 0)
(0.00190817 -3.02039e-05 0)
(0.00176049 -3.05939e-05 0)
(0.0016098 -1.75234e-05 0)
(0.00148058 -4.27213e-05 0)
(0.00200793 -4.73561e-06 0)
(0.00194956 -2.95004e-06 0)
(0.00195605 -2.40513e-06 0)
(0.00192608 -1.52426e-05 0)
(0.00184622 -2.62447e-05 0)
(0.00194946 -2.80823e-05 0)
(0.0020162 -3.19229e-06 0)
(0.00169831 -4.86806e-06 0)
(0.0016528 -5.7451e-05 0)
(0.0019464 -2.31912e-05 0)
(0.00136018 -0.000196848 0)
(0.0017204 -2.15858e-06 0)
(0.00146862 -0.000150501 0)
(0.00188528 -1.14527e-05 0)
(0.0018919 -1.06735e-05 0)
(0.00144971 -0.000156796 0)
(0.00143136 -5.71346e-05 0)
(0.00156731 -2.57375e-05 0)
(0.00190789 -5.46096e-05 0)
(0.000670418 -0.000813693 0)
(0.000159572 -0.000991785 0)
(0.00137748 -0.00010128 0)
(0.000273925 -0.00117122 0)
(0.000790939 -0.000858182 0)
(0.00078454 -0.00084139 0)
(0.00155779 -2.75021e-05 0)
(0.00172472 -1.93842e-07 0)
(0.00172493 -2.08428e-07 0)
(0.000634691 -0.000828022 0)
(0.00169199 -9.28087e-06 0)
(0.00166582 -5.64152e-06 0)
(0.0014529 -9.25695e-05 0)
(0.00157912 -0.000128171 0)
(0.00136751 -0.000201635 0)
(0.00176433 -1.80247e-07 0)
(0.00128212 -0.000106776 0)
(0.000328467 -0.000742147 0)
(0.00172359 -0.000133251 0)
(0.00159297 -2.9692e-05 0)
(0.00138489 -9.15728e-05 0)
(0.00168188 -2.85316e-05 0)
(0.00150706 -9.77587e-05 0)
(0.00166417 -5.59896e-05 0)
(0.00136369 -0.000134768 0)
(0.00122233 -0.00030911 0)
(0.00202375 -4.75561e-07 0)
(0.00184878 -0.000119402 0)
(0.000991457 -0.000394639 0)
(0.00187624 -6.321e-05 0)
(0.00168493 -1.02194e-05 0)
(0.0018584 -3.31974e-05 0)
(0.00186115 -3.17036e-05 0)
(0.00177798 -3.02063e-05 0)
(0.00121973 -0.000143263 0)
(0.000497341 -0.000690296 0)
(0.00169939 -1.61237e-05 0)
(0.00196617 -2.48596e-05 0)
(0.00195422 -2.59263e-05 0)
(0.00161901 -0.000156122 0)
(0.0012764 -0.000109046 0)
(0.00165674 -8.83329e-06 0)
(0.0017303 -0.000130625 0)
(0.00107964 -0.000197601 0)
(0.00183605 -4.36134e-06 0)
(0.000485202 -0.000926281 0)
(0.00189251 -1.43526e-05 0)
(0.00151231 -0.00014954 0)
(0.00166901 -5.89333e-06 0)
(0.00165214 -5.06253e-05 0)
(0.000691906 -0.000561543 0)
(0.00167386 -4.88099e-06 0)
(0.00194515 -2.61744e-06 0)
(0.00198817 -6.92432e-06 0)
(0.00201354 -3.60701e-06 0)
(0.00168847 -3.23811e-06 0)
(0.00166234 -1.65754e-05 0)
(0.000816089 -0.00035268 0)
(0.0016966 -2.51878e-06 0)
(0.00137648 -0.000163148 0)
(0.000340466 -0.00105259 0)
(0.00047854 -0.000978147 0)
(0.00176678 -0.000136235 0)
(0.00195756 -1.77376e-06 0)
(0.00154471 -0.000122581 0)
(0.00143506 -5.60864e-05 0)
(0.000291367 -0.0011281 0)
(8.01762e-05 -0.00132253 0)
(0.00179785 -2.7987e-07 0)
(0.00156182 -2.94097e-05 0)
(0.00157215 -2.71984e-05 0)
(0.00184967 -7.47937e-05 0)
(0.00140234 -0.00014994 0)
(0.00127259 -0.00030433 0)
(0.00203467 -5.21184e-08 0)
(0.00186004 -0.000119185 0)
(0.000185202 -0.00123345 0)
(0.00143951 -0.000132554 0)
(0.00165088 -7.33916e-05 0)
(0.00186027 -7.71654e-05 0)
(0.00192977 -7.39868e-06 0)
(0.00150044 -6.83061e-05 0)
(0.00164512 -2.48184e-05 0)
(0.00169973 -1.77071e-06 0)
(0.00166384 -9.38329e-06 0)
(0.00169671 -6.40385e-06 0)
(0.00166189 -6.93504e-05 0)
(0.0016755 -7.55165e-06 0)
(0.000753012 -0.000779929 0)
(0.00125328 -0.000118983 0)
(0.00126977 -0.000112325 0)
(0.00171255 -3.06766e-06 0)
(0.0010973 -0.000224092 0)
(0.00158749 -0.000124633 0)
(0.00201128 -7.9758e-07 0)
(0.00183374 -0.000122953 0)
(4.93192e-05 -0.0013428 0)
(0.00138352 -0.000109258 0)
(0.00121454 -0.000142618 0)
(0.00153786 -0.000180395 0)
(0.00142079 -8.27988e-05 0)
(0.000961187 -0.000331289 0)
(0.00105748 -0.000206223 0)
(0.00137798 -0.000119251 0)
(0.00196171 -2.10613e-05 0)
(0.00166591 -5.50057e-05 0)
(0.0016451 -1.90486e-05 0)
(0.00102251 -0.00023215 0)
(3.33133e-05 -0.00129316 0)
(0.00169642 -8.21519e-06 0)
(0.00197405 -2.03282e-05 0)
(0.00196832 -2.06225e-05 0)
(0.0018359 -8.06951e-05 0)
(0.00144914 -0.000134201 0)
(0.00169368 -1.06774e-05 0)
(0.00167956 -7.69253e-06 0)
(0.000234844 -0.00113578 0)
(0.000289556 -0.000983536 0)
(0.00140191 -6.70349e-05 0)
(0.00139937 -6.76469e-05 0)
(0.00195002 -3.2146e-05 0)
(0.00116015 -0.000187289 0)
(0.00161868 -1.38041e-05 0)
(0.00183872 -9.80014e-05 0)
(0.00160295 -2.78322e-05 0)
(0.00154604 -7.59765e-05 0)
(0.00137816 -0.000107373 0)
(0.00106114 -0.000397295 0)
(0.00156091 -7.01441e-05 0)
(0.00198395 -7.78018e-06 0)
(0.0019709 -9.01037e-06 0)
(0.000656019 -0.000758148 0)
(0.00078381 -0.000385012 0)
(0.00159255 -2.34018e-05 0)
(0.00166063 -1.78687e-05 0)
(0.000759277 -0.000763771 0)
(0.00198476 -6.78852e-06 0)
(0.00169837 -3.23674e-06 0)
(0.00170015 -2.71893e-06 0)
(0.00167006 -9.83913e-05 0)
(0.00184373 -1.18702e-05 0)
(0.00170027 -6.5164e-06 0)
(0.00184593 -2.50824e-05 0)
(0.00204695 7.13611e-07 0)
(0.00188549 -0.000101334 0)
(0.00169408 -2.33308e-06 0)
(0.00180177 -1.08937e-07 0)
(0.00135504 -0.000225513 0)
(0.00153171 -3.00036e-05 0)
(0.00174922 -1.21951e-06 0)
(0.00167135 -1.59368e-05 0)
(0.00172701 1.1279e-08 0)
(0.00171399 -8.23119e-07 0)
(0.00171549 -6.52612e-07 0)
(0.00171206 -5.52711e-06 0)
(0.00166482 -0.000104987 0)
(0.00185011 -1.02339e-05 0)
(0.00152978 -4.16647e-05 0)
(0.00166386 -9.75278e-05 0)
(0.0018383 -1.18904e-05 0)
(0.00148483 -4.68864e-05 0)
(0.00147589 -4.99638e-05 0)
(0.000362695 -0.000713051 0)
(0.00159702 -7.96671e-05 0)
(0.00191514 -5.1855e-05 0)
(0.0017072 -5.74713e-06 0)
(0.00172207 7.13687e-09 0)
(0.00176653 -8.9604e-05 0)
(0.00172003 -6.33309e-07 0)
(0.00158105 -3.35809e-05 0)
(0.00159071 -3.23857e-05 0)
(0.00138668 -9.9779e-05 0)
(0.000922299 -0.000813853 0)
(0.00187815 -6.4195e-05 0)
(0.000669367 -0.00044029 0)
(0.000667482 -0.00043923 0)
(0.0011556 -0.000244819 0)
(0.00165524 -1.70756e-05 0)
(0.00202465 -5.41285e-07 0)
(0.00185203 -0.000116221 0)
(0.0015968 -1.75533e-05 0)
(0.0012235 -0.000263578 0)
(0.00166079 -1.41451e-05 0)
(0.00133314 -0.000417699 0)
(0.00144553 -9.22406e-05 0)
(0.00163987 -0.000109948 0)
(0.0018403 -8.6112e-06 0)
(0.00114748 -0.000241359 0)
(0.00163472 -5.85321e-05 0)
(0.00204162 3.86936e-07 0)
(0.00188035 -0.000101548 0)
(0.000339216 -0.000986654 0)
(0.00106788 -0.000383061 0)
(0.00178924 -1.47102e-06 0)
(0.000958073 -0.000444926 0)
(0.00019423 -0.00120836 0)
(0.00156965 -2.36499e-05 0)
(0.00192383 -7.90602e-06 0)
(0.00100753 -0.000242152 0)
(0.00168509 -2.04368e-05 0)
(0.00163846 -6.87943e-05 0)
(0.000182401 -0.00121689 0)
(0.00146236 -0.000132274 0)
(0.000299353 -0.00104525 0)
(0.00198161 -5.95305e-06 0)
(0.000765213 -0.000373565 0)
(0.00107893 -0.000207028 0)
(0.00111827 -0.000176316 0)
(0.0019235 -3.24067e-05 0)
(0.000471064 -0.000713797 0)
(0.00175539 -8.84238e-05 0)
(0.00159283 -8.27215e-05 0)
(0.00167483 -3.29837e-05 0)
(0.00164673 -6.86222e-05 0)
(0.00200357 -5.92969e-06 0)
(0.00167833 -2.89335e-05 0)
(0.00150932 -6.43573e-05 0)
(0.000911143 -0.000877738 0)
(0.00166735 -2.02449e-05 0)
(0.000423223 -0.00096571 0)
(0.000702529 -0.000544315 0)
(0.00161087 -9.26754e-05 0)
(0.00170761 -1.20416e-06 0)
(0.00136974 -0.000221661 0)
(0.00113612 -0.00016877 0)
(0.00160998 -8.44522e-05 0)
(0.00127796 -0.000313954 0)
(0.000474184 -0.000738857 0)
(0.000817325 -0.000815778 0)
(0.00183348 -0.000106108 0)
(0.00184189 -0.000104 0)
(0.00168919 -4.89421e-06 0)
(0.00169382 -4.11366e-06 0)
(8.30265e-05 -0.00131984 0)
(0.000459007 -0.000739348 0)
(0.000483417 -0.00107268 0)
(0.00170707 -1.49083e-05 0)
(0.00191254 -6.996e-05 0)
(0.00165945 -6.7249e-06 0)
(0.001647 -6.93881e-05 0)
(0.00107576 -0.000203578 0)
(0.00144958 -5.27618e-05 0)
(0.00167195 -5.67372e-06 0)
(0.00166421 -2.25841e-05 0)
(0.00052217 -0.000863798 0)
(0.00156311 -6.2545e-05 0)
(0.00155986 -6.55182e-05 0)
(0.00109125 -0.000198995 0)
(0.00100559 -0.000261198 0)
(0.000666961 -0.000497712 0)
(0.000730502 -0.000590453 0)
(0.00184531 -9.6509e-05 0)
(0.00164158 -5.26253e-05 0)
(0.00100085 -0.000258639 0)
(0.000744107 -0.000567226 0)
(0.001302 -0.000110063 0)
(0.00131667 -0.000106086 0)
(0.0018535 -2.37465e-05 0)
(0.0019543 -1.02641e-05 0)
(0.000304707 -0.00112152 0)
(0.00161963 -6.4509e-05 0)
(0.00176656 -3.74537e-05 0)
(0.00193718 -4.38835e-05 0)
(0.00172199 -4.03669e-05 0)
(0.0017074 -3.09733e-06 0)
(0.00178512 -4.11071e-05 0)
(0.00160354 -3.19754e-05 0)
(0.00122617 -0.000162505 0)
(0.0016984 -0.000113913 0)
(0.00100789 -0.000549202 0)
(0.00133875 -0.000434929 0)
(0.000889115 -0.000816527 0)
(0.00157332 -2.34866e-05 0)
(0.00189633 -0.000100556 0)
(0.00205742 1.51885e-06 0)
(0.00197229 -8.44877e-06 0)
(0.00160647 -2.5801e-05 0)
(0.00171443 -2.28548e-05 0)
(0.00170387 -4.67485e-05 0)
(0.00167336 -4.9262e-05 0)
(0.00120538 -0.000383049 0)
(0.00169101 -7.21529e-06 0)
(0.00172964 -2.28345e-05 0)
(0.00173513 -2.38751e-05 0)
(0.00198305 -1.13359e-05 0)
(0.00163678 -2.58807e-05 0)
(0.00159914 -0.000174327 0)
(0.00180795 -3.04243e-05 0)
(0.00180096 -3.18583e-05 0)
(0.00196917 -1.86772e-05 0)
(0.00170051 -4.44331e-06 0)
(0.00167011 -4.33761e-05 0)
(0.00144585 -5.47918e-05 0)
(0.000254323 -0.00111883 0)
(0.00167605 -5.10989e-06 0)
(0.00134689 -8.93964e-05 0)
(0.00191507 -3.41986e-05 0)
(0.00155579 -2.57857e-05 0)
(0.00174966 -2.47662e-05 0)
(0.00141088 -6.73222e-05 0)
(0.000100766 -0.0013057 0)
(0.0015461 -2.80363e-05 0)
(0.000388815 -0.00106471 0)
(0.00043436 -0.000931501 0)
(0.0016481 -4.19149e-05 0)
(0.00190523 -2.78824e-05 0)
(0.00190428 -2.69717e-05 0)
(0.00129463 -0.000102062 0)
(0.0013996 -9.24289e-05 0)
(0.00163431 -3.11522e-05 0)
(0.00142601 -7.16991e-05 0)
(0.00193869 -3.26872e-05 0)
(0.00193182 -3.51306e-05 0)
(0.000999345 -0.000324817 0)
(0.000893889 -0.000302323 0)
(0.00135264 -8.87487e-05 0)
(0.00199601 -5.80644e-06 0)
(0.00150082 -9.58874e-05 0)
(0.00189126 -5.87933e-06 0)
(0.0013719 -0.000361627 0)
(0.00164649 -4.55494e-05 0)
(0.00121154 -0.000280369 0)
(0.00170066 -0.000141155 0)
(0.00190734 -2.52624e-06 0)
(0.00170969 -0.000139005 0)
(0.001913 -2.73642e-06 0)
(0.00138512 -0.000341826 0)
(0.00153907 -3.05748e-05 0)
(0.000675197 -0.000776426 0)
(0.00176063 -6.67457e-05 0)
(0.00184307 -5.97602e-05 0)
(0.00161475 -1.75122e-05 0)
(0.00190055 -0.000100578 0)
(0.00206165 1.70109e-06 0)
(0.00178703 -1.7736e-05 0)
(0.000883634 -0.000571165 0)
(0.000638987 -0.000808682 0)
(0.000585302 -0.000867581 0)
(0.00185373 -2.26268e-05 0)
(0.00143923 -0.000354596 0)
(0.001699 -8.70261e-06 0)
(0.00163315 -1.05947e-05 0)
(0.000337667 -0.00100187 0)
(0.001452 -0.000329408 0)
(0.00162733 -1.17273e-05 0)
(0.0017461 -1.00198e-06 0)
(0.00201024 -4.58879e-06 0)
(0.000647217 -0.00095795 0)
(0.00169739 -8.01301e-06 0)
(0.00186434 -1.04712e-05 0)
(0.00175139 -5.13164e-06 0)
(0.00111417 -0.000180351 0)
(0.00110617 -0.000188407 0)
(0.00200883 -1.14216e-06 0)
(0.00200186 -1.67596e-06 0)
(0.0018258 -0.000120601 0)
(0.0018332 -0.000120195 0)
(0.0017357 -5.35903e-05 0)
(0.00143325 -7.65883e-05 0)
(0.00171906 -5.17949e-07 0)
(0.00172053 -1.0119e-06 0)
(5.50776e-05 -0.00126606 0)
(0.00113067 -0.000224466 0)
(0.0015309 -0.000123385 0)
(0.00168477 -0.000105465 0)
(0.00162321 -0.000141946 0)
(0.00198706 -5.61333e-06 0)
(0.000474746 -0.000928356 0)
(0.00179176 -2.0713e-06 0)
(0.00202878 -2.02826e-07 0)
(0.00185277 -0.000121262 0)
(0.00101056 -0.000504557 0)
(0.00111892 -0.000176034 0)
(0.00171582 -2.101e-06 0)
(0.000785797 -0.00037836 0)
(0.00162569 -7.09109e-05 0)
(0.000136273 -0.00125429 0)
(0.00122871 -0.000130556 0)
(0.00178911 -5.88489e-05 0)
(0.0017932 -5.66444e-05 0)
(0.000360586 -0.000985846 0)
(0.00102102 -0.000478131 0)
(0.000256293 -0.00115687 0)
(0.00158981 -6.07009e-05 0)
(0.00123963 -0.000125586 0)
(0.000865928 -0.000315818 0)
(0.000848453 -0.000321523 0)
(0.00067932 -0.000428198 0)
(0.00154648 -0.000118979 0)
(0.00196131 -1.57477e-05 0)
(0.00106386 -0.000209204 0)
(0.00154114 -0.0001923 0)
(0.00121556 -0.000172565 0)
(0.000272259 -0.00113767 0)
(0.00158239 -4.63599e-05 0)
(0.00165889 -6.45536e-05 0)
(0.00171394 -2.6047e-05 0)
(0.00170671 -1.68327e-06 0)
(0.000125255 -0.00126177 0)
(0.0014186 -6.19373e-05 0)
(0.00116543 -0.000189097 0)
(6.66392e-05 -0.00133302 0)
(0.00170209 -3.22092e-05 0)
(0.00152304 -3.97635e-05 0)
(0.00150718 -0.00015993 0)
(0.00168993 -7.05268e-06 0)
(0.00174541 -5.37986e-06 0)
(0.00202989 -5.64155e-08 0)
(0.000717893 -0.000960143 0)
(0.00170651 -2.3241e-05 0)
(0.00167395 -8.78668e-05 0)
(0.00182792 -1.47453e-05 0)
(0.00149952 -0.000150252 0)
(0.00201088 -4.39491e-06 0)
(0.00136216 -0.000148349 0)
(0.00167311 -1.4357e-05 0)
(0.000874678 -0.000309137 0)
(0.000852166 -0.000608258 0)
(0.000896519 -0.000295246 0)
(0.000978563 -0.000334766 0)
(0.000346296 -0.000754785 0)
(0.00163593 -1.00332e-05 0)
(0.00188691 -5.60536e-06 0)
(0.001622 -8.38171e-05 0)
(0.00150421 -0.000112211 0)
(0.000592311 -0.000601691 0)
(0.000883537 -0.00046577 0)
(0.00197664 -8.84896e-06 0)
(0.0019304 -4.69153e-05 0)
(0.00107983 -0.000305103 0)
(0.0018293 -0.000105438 0)
(0.000842345 -0.000384805 0)
(0.00149835 -7.10196e-05 0)
(0.00162993 -1.4226e-05 0)
(0.00177415 -1.03439e-05 0)
(0.00164967 -4.87745e-05 0)
(0.00176181 -6.88374e-05 0)
(0.00199687 -1.5813e-06 0)
(0.00181865 -0.000123425 0)
(0.001823 -5.75425e-05 0)
(0.0015598 -0.000153096 0)
(0.000608378 -0.000503418 0)
(0.00130081 -0.00015101 0)
(0.00129001 -0.000156838 0)
(0.00175638 -7.73644e-08 0)
(0.00170103 -1.05118e-05 0)
(0.00150582 -7.16625e-05 0)
(0.0017513 -4.26446e-06 0)
(0.0011858 -0.000388273 0)
(0.000260514 -0.00115774 0)
(0.000862675 -0.00047519 0)
(0.000670348 -0.000433707 0)
(0.00170991 -1.50791e-06 0)
(0.00156806 -0.000137704 0)
(0.00176992 -1.12633e-05 0)
(0.00188125 -6.03038e-05 0)
(0.00202751 -1.18432e-06 0)
(0.00202023 -2.09032e-06 0)
(0.00186998 -9.21075e-05 0)
(0.00187715 -9.15759e-05 0)
(0.00192758 -3.07155e-05 0)
(0.00170893 -1.68984e-06 0)
(0.000205166 -0.00109529 0)
(0.00162947 -8.29051e-05 0)
(0.00193312 -2.60596e-05 0)
(0.00158563 -5.56803e-05 0)
(0.00155636 -2.63222e-05 0)
(0.00169619 -8.2225e-06 0)
(0.00157188 -4.79544e-05 0)
(0.000766082 -0.000397843 0)
(0.00182059 -8.02244e-05 0)
(0.000225237 -0.0012263 0)
(0.0015975 -4.92846e-05 0)
(0.000175458 -0.00111456 0)
(0.00160269 -0.000180595 0)
(0.0016843 -3.07354e-06 0)
(0.00169692 -0.000110422 0)
(0.00157004 -0.000159088 0)
(0.00163471 -0.000113174 0)
(0.00184104 -7.67384e-06 0)
(0.00132615 -9.20618e-05 0)
(0.00174786 -2.01005e-05 0)
(0.0017011 -4.2124e-06 0)
(0.00163911 -7.35987e-05 0)
(0.00164806 -1.87134e-05 0)
(0.00184755 -0.000100839 0)
(0.00165433 -1.41078e-05 0)
(0.00170148 -4.2204e-06 0)
(0.000125119 -0.00128189 0)
(0.00166034 -1.35288e-05 0)
(0.00111442 -0.000179222 0)
(0.000118733 -0.00128347 0)
(0.00159649 -5.36617e-05 0)
(0.00160496 -5.33288e-05 0)
(0.000695706 -0.000618054 0)
(0.000990775 -0.000384893 0)
(0.00117355 -0.000151237 0)
(0.00117342 -0.000151413 0)
(0.00202301 -1.42511e-06 0)
(0.00202313 -1.73574e-06 0)
(0.00166474 -4.20026e-05 0)
(0.000921989 -0.000388751 0)
(0.00146317 -0.000116546 0)
(0.00035358 -0.00102972 0)
(0.00176241 -1.1873e-05 0)
(0.00147512 -0.000108985 0)
(0.00170659 -8.48982e-07 0)
(0.000238003 -0.00121621 0)
(0.000679368 -0.000618726 0)
(0.00168967 -0.000110369 0)
(0.00181775 -3.1388e-06 0)
(0.00169691 -6.67089e-06 0)
(0.00166528 -7.05157e-06 0)
(0.00168849 -2.68147e-06 0)
(0.0013754 -9.24715e-05 0)
(0.000957846 -0.00059699 0)
(0.00177524 -8.84349e-05 0)
(0.00200304 -6.29523e-06 0)
(0.000929621 -0.000501628 0)
(0.00166636 -6.85203e-06 0)
(0.000909298 -0.00050569 0)
(0.0012664 -0.000135833 0)
(0.000775469 -0.000376603 0)
(0.00176712 -0.00011319 0)
(0.00161531 -7.99186e-05 0)
(0.00137128 -0.000113718 0)
(0.0018135 -9.97707e-07 0)
(0.00132714 -9.91502e-05 0)
(0.000802175 -0.000367648 0)
(0.000813926 -0.000357068 0)
(0.000773133 -0.000370887 0)
(0.00178032 -1.85827e-05 0)
(0.00173343 -1.12473e-06 0)
(0.00162097 -7.19631e-05 0)
(0.00191318 -2.78758e-05 0)
(0.000999379 -0.000296447 0)
(0.000983691 -0.000259923 0)
(0.00100626 -0.000472371 0)
(0.000975513 -0.000261837 0)
(0.000844789 -0.000323968 0)
(0.00191656 -1.47925e-05 0)
(8.58454e-05 -0.00131668 0)
(0.000977829 -0.000486933 0)
(0.0013664 -0.00014087 0)
(0.00152903 -3.22782e-05 0)
(0.00131354 -0.000147621 0)
(9.81992e-05 -0.0011123 0)
(0.00169096 -1.49541e-05 0)
(0.00168926 -4.48114e-05 0)
(0.00106374 -0.000207705 0)
(0.00164631 -1.63902e-05 0)
(0.00127661 -0.000117777 0)
(0.000686016 -0.000971186 0)
(0.00137643 -0.000151652 0)
(0.00158178 -0.000113924 0)
(0.00181231 -6.0603e-06 0)
(0.00169636 -0.000138327 0)
(0.00190272 -3.15651e-06 0)
(0.00154879 -2.86351e-05 0)
(0.00133888 -0.000150329 0)
(0.000119481 -0.0012907 0)
(0.00135393 -0.000120812 0)
(0.00205516 3.35731e-06 0)
(0.0019115 -8.16566e-05 0)
(0.00171225 -1.94798e-06 0)
(0.000583897 -0.000808651 0)
(0.001993 -4.23275e-06 0)
(0.000432087 -0.000687266 0)
(0.000856308 -0.000634002 0)
(0.00193502 -5.9755e-06 0)
(0.00135842 -0.000281931 0)
(0.00168957 -0.00013856 0)
(0.00189793 -3.21531e-06 0)
(0.00154275 -0.000134686 0)
(0.00155026 -0.000136213 0)
(0.000525035 -0.000803744 0)
(0.00137706 -9.62034e-05 0)
(0.00181951 -5.97213e-05 0)
(0.00061188 -0.00101018 0)
(0.00134474 -0.000127909 0)
(0.000550249 -0.000833733 0)
(0.000607388 -0.000495962 0)
(0.000328359 -0.000778313 0)
(0.000521131 -0.000791822 0)
(0.00172062 -3.86356e-05 0)
(0.00135185 -0.000274044 0)
(0.00199525 -4.36061e-06 0)
(0.00111946 -0.000184329 0)
(0.000441063 -0.00108898 0)
(0.00176748 -3.58419e-05 0)
(0.00160655 -1.75444e-05 0)
(0.00178326 -6.29658e-05 0)
(0.00178397 -6.44834e-05 0)
(0.00160857 -1.60289e-05 0)
(0.00171189 -1.75039e-06 0)
(0.00187429 -7.09126e-05 0)
(0.0010559 -0.000211505 0)
(0.0010864 -0.000191907 0)
(0.00110308 -0.000184239 0)
(0.00170108 -2.35873e-06 0)
(0.00109134 -0.000196503 0)
(0.00189165 -1.53432e-05 0)
(0.00132287 -0.000153558 0)
(0.00156108 -0.000133912 0)
(0.00079438 -0.000533873 0)
(0.00183341 -3.74881e-06 0)
(0.00178873 -2.80697e-06 0)
(0.000915679 -0.000285148 0)
(0.00196169 -2.02636e-05 0)
(0.00106556 -0.000436078 0)
(6.37687e-05 -0.00119733 0)
(0.000773122 -0.000542713 0)
(0.00180537 -0.000114973 0)
(0.00198265 -4.28521e-06 0)
(0.0019304 -6.50016e-06 0)
(0.0017121 -6.44116e-06 0)
(0.00113137 -0.00052955 0)
(0.00160259 -1.60222e-05 0)
(0.00195081 -1.97343e-05 0)
(0.00195031 -1.93131e-05 0)
(0.00195613 -1.71706e-05 0)
(0.000102403 -0.00129715 0)
(0.00178259 -8.09731e-06 0)
(0.00177069 -0.000106552 0)
(0.00178193 -3.09649e-05 0)
(0.00178177 -2.87642e-05 0)
(0.0015831 -0.000110589 0)
(0.00116929 -0.000181406 0)
(0.00110643 -0.000527971 0)
(0.00035525 -0.0011076 0)
(0.000233063 -0.000967451 0)
(0.00170352 -2.08095e-05 0)
(0.00185359 -9.19402e-05 0)
(0.00185911 -9.16388e-05 0)
(0.000840789 -0.000632841 0)
(0.00173688 -5.52828e-05 0)
(0.000235852 -0.000945686 0)
(0.00179566 -1.71339e-06 0)
(0.00178651 -3.73578e-06 0)
(0.00179142 -3.61101e-06 0)
(0.00176848 -2.05252e-06 0)
(1.09224e-05 -0.00137558 0)
(0.00160865 -7.80984e-05 0)
(0.000350782 -0.0010111 0)
(0.00167855 -5.80784e-06 0)
(0.00123651 -0.000161326 0)
(0.00176277 -2.88668e-05 0)
(0.00141926 -0.000118299 0)
(0.00172458 -4.19526e-06 0)
(0.00192225 -2.36217e-05 0)
(0.00174949 -1.49953e-06 0)
(0.00122936 -0.00016832 0)
(0.001444 -5.33132e-05 0)
(0.000601333 -0.000725465 0)
(0.00195807 -2.18508e-05 0)
(0.00137603 -7.60109e-05 0)
(0.00201602 -2.80919e-06 0)
(0.0018869 -4.48521e-06 0)
(0.0017669 -1.01017e-06 0)
(0.00177028 -1.07946e-06 0)
(0.000285142 -0.00114581 0)
(0.00200995 -2.28451e-06 0)
(0.00107145 -0.000316946 0)
(0.00171775 -5.05831e-07 0)
(0.00187732 -7.76972e-05 0)
(0.0016295 -7.19081e-05 0)
(0.00181822 -9.72449e-05 0)
(0.00169597 -7.71695e-06 0)
(0.00176733 -2.3532e-06 0)
(0.00089956 -0.000362745 0)
(0.00126875 -0.000631679 0)
(0.00166453 -2.04768e-05 0)
(0.00150126 -0.000102198 0)
(0.0016839 -1.25065e-05 0)
(0.00164085 -2.40118e-05 0)
(0.00140733 -8.84921e-05 0)
(0.00201734 -3.11971e-06 0)
(0.00183588 -6.39285e-05 0)
(0.00184021 -6.43116e-05 0)
(0.0014699 -0.000101442 0)
(0.00176908 -0.000130707 0)
(0.00140067 -6.94825e-05 0)
(0.000334133 -0.00104127 0)
(0.00160986 -3.99474e-05 0)
(0.00125597 -0.000141155 0)
(0.00140117 -0.000207768 0)
(0.00127415 -0.000112435 0)
(0.00166175 -1.96103e-05 0)
(0.00181968 -3.63206e-05 0)
(0.00138962 -0.000287728 0)
(0.00168312 -2.90091e-05 0)
(0.00170922 -1.00997e-05 0)
(0.00129463 -0.000309591 0)
(0.00154983 -2.82557e-05 0)
(0.00168234 -3.05485e-05 0)
(0.00165513 -7.08447e-05 0)
(0.00156655 -0.000135665 0)
(0.00075462 -0.000824178 0)
(0.00185645 -7.65812e-05 0)
(0.00186918 -6.19642e-05 0)
(0.00181481 -4.06924e-05 0)
(0.00174131 -5.85643e-05 0)
(0.0014806 -0.0001641 0)
(0.0013671 -8.84155e-05 0)
(0.00135395 -9.28368e-05 0)
(0.00105157 -0.000460746 0)
(0.000187111 -0.000960725 0)
(0.00187541 -8.25531e-05 0)
(0.00113163 -0.000174482 0)
(0.000913922 -0.000289959 0)
(0.00114756 -0.000165438 0)
(0.00149982 -0.000198344 0)
(0.00178161 -9.88662e-06 0)
(0.00178519 -1.07935e-05 0)
(0.00148542 -0.000206894 0)
(0.00164962 -1.05973e-05 0)
(0.0016519 -9.58191e-06 0)
(0.00179223 -3.20643e-05 0)
(0.00179062 -3.0555e-05 0)
(0.00172689 -1.49066e-08 0)
(0.00172929 -3.91982e-08 0)
(0.00158055 -0.000178426 0)
(0.0016289 -1.10995e-05 0)
(0.00191079 -3.60911e-05 0)
(0.00170044 -4.43173e-06 0)
(0.0016275 -5.94951e-05 0)
(0.00160646 -3.40656e-05 0)
(0.00167967 -5.34878e-06 0)
(0.00189463 -9.98649e-06 0)
(0.00147388 -5.6657e-05 0)
(0.00148534 -5.53446e-05 0)
(0.00169522 -1.1548e-05 0)
(0.00157215 -0.000106787 0)
(0.00179832 -6.73168e-06 0)
(0.00152757 -3.09699e-05 0)
(0.00161915 -1.69731e-05 0)
(0.00154294 -2.82025e-05 0)
(0.00158053 -5.16621e-05 0)
(0.00155335 -2.61606e-05 0)
(0.0015707 -5.33138e-05 0)
(0.000407118 -0.000990912 0)
(0.00158759 -0.000120357 0)
(0.00182214 -5.33224e-06 0)
(0.000453963 -0.000694441 0)
(0.00151549 -0.00011023 0)
(0.00178973 -3.93282e-05 0)
(0.00189155 -8.88713e-06 0)
(0.00175368 3.55814e-08 0)
(0.0019092 -1.53985e-05 0)
(0.00134689 -0.000140887 0)
(0.0013501 -0.00014395 0)
(0.00116597 -0.000170218 0)
(0.00136428 -0.000165919 0)
(0.00153833 -8.36477e-05 0)
(0.00149957 -3.77559e-05 0)
(0.00170461 -1.59345e-06 0)
(0.00185296 -1.60513e-05 0)
(0.00123313 -0.00034748 0)
(0.000335853 -0.000541794 0)
(0.00139583 -0.000272933 0)
(0.00198613 -3.57025e-06 0)
(0.00118182 -0.000161768 0)
(0.0012852 -0.000288823 0)
(0.00190543 -1.69073e-05 0)
(0.00187556 -7.65076e-05 0)
(0.00141875 -0.000199962 0)
(0.00163771 -6.59886e-05 0)
(0.000284349 -0.00105254 0)
(0.00095974 -0.00057855 0)
(0.00166993 -4.02195e-05 0)
(0.00184141 -2.75897e-05 0)
(0.00124345 -0.000144866 0)
(0.000302953 -0.00100453 0)
(0.00134013 -0.000520654 0)
(0.00179665 -4.71567e-07 0)
(0.00142215 -0.000121115 0)
(0.0012772 -0.000529559 0)
(0.00135181 -8.40859e-05 0)
(4.68145e-05 -0.00117331 0)
(0.00161501 -1.6055e-05 0)
(0.00163285 -7.49987e-05 0)
(0.000916054 -0.00028368 0)
(0.000931657 -0.000281471 0)
(0.000950209 -0.000271276 0)
(0.00195641 -2.1352e-05 0)
(0.00165278 -2.45239e-05 0)
(0.00161521 -7.57687e-05 0)
(0.00128125 -0.00050432 0)
(0.00169947 -4.09126e-06 0)
(0.0017937 -0.000121469 0)
(0.00112074 -0.00023467 0)
(0.00183031 -6.03744e-06 0)
(0.00160745 -0.000118144 0)
(0.00163871 -0.000126744 0)
(0.00181835 -8.2577e-05 0)
(0.000428507 -0.000540782 0)
(0.00133256 -0.000161895 0)
(0.00137433 -0.000135875 0)
(0.00116135 -0.000168761 0)
(0.00116636 -0.000169301 0)
(0.000247551 -0.00107379 0)
(0.00182062 -9.06042e-05 0)
(0.000227716 -0.00119032 0)
(0.00163299 -1.84197e-05 0)
(0.00181722 -3.15061e-05 0)
(0.00164809 -8.9916e-05 0)
(0.00200989 -2.48849e-06 0)
(0.00164133 -1.58266e-05 0)
(0.00147638 -4.4079e-05 0)
(0.00158567 -1.84806e-05 0)
(0.00146594 -4.68431e-05 0)
(0.0017209 -1.2634e-05 0)
(0.00131031 -0.000105647 0)
(0.00186043 -1.87877e-05 0)
(0.00185541 -1.812e-05 0)
(4.45063e-06 -0.00138312 0)
(0.00164302 -2.84733e-05 0)
(0.00134617 -0.000152818 0)
(0.00111565 -0.000276039 0)
(0.00114046 -0.000260987 0)
(0.000815732 -0.000343209 0)
(0.00154651 -2.66076e-05 0)
(0.00153723 -0.000145446 0)
(0.0015094 -3.85074e-05 0)
(0.00158294 -0.000128536 0)
(0.00137303 -0.000126635 0)
(0.0015005 -6.3821e-05 0)
(0.000766723 -0.00092736 0)
(0.000984066 -0.000554184 0)
(0.00141996 -0.000220933 0)
(0.00149087 -0.000162229 0)
(0.000803136 -0.000692949 0)
(0.000297088 -0.00106389 0)
(0.000920092 -0.000351425 0)
(0.00138442 -0.000149006 0)
(0.00113379 -0.000172474 0)
(0.00169735 -5.83937e-06 0)
(0.000643714 -0.000759403 0)
(0.00113484 -0.000337946 0)
(0.00159146 -4.15196e-05 0)
(0.00102254 -0.000635108 0)
(0.00147678 -4.3784e-05 0)
(0.00169734 -0.000144803 0)
(0.00190647 -1.80097e-06 0)
(0.00101153 -0.000653435 0)
(0.00145772 -0.000194864 0)
(0.00091058 -0.000387087 0)
(0.0016152 -4.30528e-05 0)
(0.00161629 -4.4731e-05 0)
(0.000136215 -0.00127395 0)
(0.00198889 -1.01176e-05 0)
(0.00149063 -0.000154295 0)
(0.00171462 -0.000109329 0)
(0.0019947 -6.66781e-06 0)
(0.000291569 -0.00108768 0)
(0.00157433 -0.00011271 0)
(0.00180683 -5.9672e-06 0)
(0.000504758 -0.000967946 0)
(0.000116832 -0.00129078 0)
(0.00160537 -4.3952e-05 0)
(0.00171622 -0.000132581 0)
(0.00191349 -4.07467e-06 0)
(0.00141787 -6.0524e-05 0)
(0.0017501 -5.21743e-07 0)
(0.000824546 -0.000920292 0)
(4.78862e-05 -0.00134731 0)
(0.00176596 -1.84456e-08 0)
(0.00174143 -2.00067e-05 0)
(0.00162343 -1.22346e-05 0)
(0.000479623 -0.000674334 0)
(6.41854e-05 -0.00121768 0)
(0.000987833 -0.000275125 0)
(0.00166142 -2.6522e-05 0)
(0.000965526 -0.000286179 0)
(0.00196001 -1.5546e-05 0)
(0.00196764 -2.27494e-05 0)
(0.000203151 -0.00111134 0)
(0.00133688 -8.88567e-05 0)
(0.00178498 -1.25358e-05 0)
(0.00184444 -7.81148e-05 0)
(0.000563553 -0.000898553 0)
(0.00181308 -3.78216e-05 0)
(0.00166445 -4.95319e-05 0)
(0.00168026 -0.00011366 0)
(0.00187177 -8.57489e-06 0)