/*--------------------------------*- C++ -*----------------------------------*\
| =========                 |                                                 |
| \\      /  F ield         | OpenFOAM: The Open Source CFD Toolbox           |
|  \\    /   O peration     | Version:  v2012                                 |
|   \\  /    A nd           | Website:  www.openfoam.com                      |
|    \\/     M anipulation  |                                                 |
\*---------------------------------------------------------------------------*/
FoamFile
{
    version     2.0;
    format      ascii;
    class       volVectorField;
    location    "18";
    object      D;
}
// * * * * * * * * * * * * * * * * * * * * * * * * * * * * * * * * * * * * * //

dimensions      [0 1 0 0 0 0 0];


internalField   nonuniform List<vector> 
7666
(
(0.00125921 -1.38302e-06 0)
(0.00124345 1.01069e-06 0)
(0.000875446 -0.000642748 0)
(0.0011672 -6.11683e-06 0)
(0.000897345 -0.000111674 0)
(0.000672568 -0.000208179 0)
(0.00137912 -6.60048e-06 0)
(0.0011732 -1.26193e-05 0)
(0.000460197 -0.000316433 0)
(0.00137593 -6.63654e-06 0)
(0.00121662 2.72044e-06 0)
(0.00125714 -4.41403e-05 0)
(0.00117758 -9.82802e-06 0)
(0.00124121 -5.91253e-06 0)
(0.00140111 1.47298e-06 0)
(0.000930256 -0.000336471 0)
(0.0011771 -1.18341e-05 0)
(0.00075134 -0.000147152 0)
(0.0011964 -4.15799e-05 0)
(0.0013048 -3.62267e-06 0)
(0.0012957 1.03829e-06 0)
(0.000996748 -5.26935e-05 0)
(0.00123185 -9.10537e-06 0)
(0.00115588 -3.48376e-06 0)
(0.000684985 -0.000256644 0)
(0.00140181 1.46176e-06 0)
(0.000676878 -0.0002685 0)
(0.00121693 -5.10275e-06 0)
(0.00117906 -1.03716e-05 0)
(0.00130376 -5.49578e-05 0)
(0.00125412 -7.29853e-05 0)
(0.00075733 -0.000142612 0)
(0.00123724 -1.60367e-05 0)
(0.00132242 -3.49052e-05 0)
(0.00123566 -3.48378e-05 0)
(0.00128024 3.03172e-07 0)
(0.00128401 4.17155e-07 0)
(0.00128068 -5.6539e-05 0)
(0.00077779 -0.000125517 0)
(0.00135586 -1.0109e-05 0)
(0.00109373 -0.000129271 0)
(0.000380045 -0.000781596 0)
(6.80486e-05 -0.0010357 0)
(0.00118443 -8.06488e-06 0)
(0.000130784 -0.000977641 0)
(0.00138728 -3.39049e-06 0)
(0.000599348 -0.000232842 0)
(0.00109203 -0.00012131 0)
(0.00103329 -0.00010459 0)
(0.00126814 1.68011e-06 0)
(0.00121897 -5.92813e-06 0)
(0.00104368 -6.87036e-05 0)
(0.00138068 -6.2465e-06 0)
(0.000476121 -0.000303766 0)
(0.00128526 9.11423e-07 0)
(0.000937577 -0.000345362 0)
(0.00126491 2.42184e-06 0)
(0.00126709 1.93891e-06 0)
(0.000771462 -0.000292896 0)
(0.000662661 -0.000209705 0)
(0.00126049 3.38671e-06 0)
(0.00128208 -5.73415e-05 0)
(0.00120027 -6.31397e-06 0)
(0.00119635 -7.10187e-06 0)
(0.001259 2.6099e-06 0)
(0.00102566 -9.23908e-05 0)
(0.00137492 -3.84091e-06 0)
(0.0012606 2.78335e-06 0)
(0.000853376 -0.000346975 0)
(0.000764974 -0.00028385 0)
(0.000835415 -0.000358619 0)
(0.00143681 2.67873e-06 0)
(0.00143546 2.21609e-06 0)
(0.00132539 -4.64736e-05 0)
(0.0013217 -4.86631e-05 0)
(0.00139234 -7.00445e-07 0)
(8.44228e-05 -0.0010126 0)
(0.00122731 -4.04213e-06 0)
(0.00122347 -4.80748e-06 0)
(0.00125947 3.57728e-06 0)
(0.00134022 -1.91533e-05 0)
(0.00141627 8.61496e-07 0)
(0.00113136 -2.11567e-05 0)
(7.87357e-05 -0.00102906 0)
(0.00121987 -5.99809e-05 0)
(0.00109387 -8.59113e-05 0)
(0.00109214 -8.3423e-05 0)
(0.00100745 -6.33668e-05 0)
(0.00105828 -0.000102882 0)
(0.00127784 -6.28758e-05 0)
(0.00127775 -1.75838e-05 0)
(0.00128083 -1.80867e-05 0)
(0.001044 -9.37497e-05 0)
(0.000715226 -0.000416605 0)
(0.000299135 -0.00045847 0)
(0.000968261 -0.000211429 0)
(0.0012434 -3.52866e-05 0)
(0.000896399 -0.000629885 0)
(0.00119567 -4.36569e-05 0)
(0.0013092 -3.41143e-06 0)
(0.00103887 -9.26479e-05 0)
(0.00130773 -5.43079e-05 0)
(0.00122427 -1.41876e-05 0)
(0.000625979 -0.000625169 0)
(0.00117741 -4.77034e-05 0)
(0.000815183 -0.000108315 0)
(0.000207872 -0.000923938 0)
(0.000892587 -8.46794e-05 0)
(0.00138286 -5.11446e-06 0)
(0.00104747 -7.60141e-05 0)
(0.00120148 -1.82014e-06 0)
(0.000954134 -5.65752e-05 0)
(0.00121833 2.74191e-06 0)
(0.00126387 3.37101e-06 0)
(0.00121904 2.11668e-06 0)
(0.000846807 -0.000130295 0)
(0.00121777 -2.42796e-06 0)
(0.00122796 -5.5097e-05 0)
(0.00126158 -5.81635e-05 0)
(0.00126259 -5.61038e-05 0)
(0.000613833 -0.000215898 0)
(0.00135317 -2.91576e-05 0)
(0.00128182 -3.31358e-05 0)
(0.00139699 -6.97475e-07 0)
(0.00116245 -2.58295e-06 0)
(0.00127146 2.66202e-07 0)
(0.000898389 -8.11794e-05 0)
(0.00100441 -3.68975e-05 0)
(0.00110341 -1.34317e-05 0)
(0.00123233 -1.76554e-05 0)
(0.000932362 -0.000364036 0)
(0.00114906 -6.20652e-05 0)
(0.00131385 -3.99107e-07 0)
(2.83635e-05 -0.0010626 0)
(0.00127987 -3.46096e-05 0)
(0.000823034 -0.000105608 0)
(0.00134449 -1.77411e-05 0)
(0.00135545 -1.06838e-05 0)
(0.00126544 -1.03022e-05 0)
(0.00117819 -8.47917e-07 0)
(0.00109399 -1.56937e-05 0)
(0.00142157 2.12352e-06 0)
(0.00138847 -6.60999e-07 0)
(0.00139241 -4.30998e-07 0)
(0.00137123 -4.29475e-06 0)
(0.00131982 -9.23812e-06 0)
(0.00137809 -6.93286e-06 0)
(0.00142604 3.91653e-06 0)
(0.00125481 -2.32321e-06 0)
(0.00119105 -2.4585e-05 0)
(0.0013792 -5.981e-06 0)
(0.0010428 -0.000135688 0)
(0.00125547 3.66309e-06 0)
(0.00111495 -0.000105663 0)
(0.00134828 -3.13679e-06 0)
(0.00135237 -2.76809e-06 0)
(0.00110234 -0.000109584 0)
(0.00106135 -2.48057e-05 0)
(0.00114874 -4.96038e-06 0)
(0.00134825 -2.22826e-05 0)
(0.00056831 -0.000591309 0)
(0.000104421 -0.000739987 0)
(0.0010069 -4.97504e-05 0)
(0.000229176 -0.000909477 0)
(0.000694275 -0.000630026 0)
(0.000685147 -0.000615055 0)
(0.00114218 -5.85608e-06 0)
(0.00126383 1.9544e-06 0)
(0.00126331 2.26928e-06 0)
(0.000535911 -0.000603277 0)
(0.0012319 2.16445e-06 0)
(0.00122394 2.228e-06 0)
(0.00105676 -4.45936e-05 0)
(0.00113586 -6.92019e-05 0)
(0.0010488 -0.00013986 0)
(0.00128351 1.03953e-06 0)
(0.000951431 -5.4332e-05 0)
(0.000237967 -0.000528923 0)
(0.00122809 -7.28601e-05 0)
(0.00116106 -6.93741e-06 0)
(0.00101352 -4.34134e-05 0)
(0.00124965 -2.08588e-05 0)
(0.00109127 -4.85762e-05 0)
(0.00123924 -4.09671e-05 0)
(0.00103499 -8.6312e-05 0)
(0.000954981 -0.000214876 0)
(0.00143311 4.90233e-07 0)
(0.00130637 -6.24125e-05 0)
(0.000780987 -0.000268123 0)
(0.00132847 -2.83436e-05 0)
(0.00122693 1.92639e-06 0)
(0.00132515 -1.27969e-05 0)
(0.00132725 -1.20374e-05 0)
(0.00127651 -1.04186e-05 0)
(0.000916738 -8.14569e-05 0)
(0.000381393 -0.000489156 0)
(0.00123249 -1.20647e-06 0)
(0.00138696 -3.32374e-06 0)
(0.00138136 -5.68256e-06 0)
(0.00121097 -0.00011173 0)
(0.000946467 -5.55692e-05 0)
(0.00122285 -1.54435e-06 0)
(0.00123243 -7.11942e-05 0)
(0.00080195 -0.000114431 0)
(0.00132142 -3.03588e-07 0)
(0.000400719 -0.000690019 0)
(0.00135163 -4.19781e-06 0)
(0.00114466 -0.000106946 0)
(0.00122948 5.96579e-07 0)
(0.00123123 -3.6698e-05 0)
(0.000542011 -0.000388272 0)
(0.00123222 1.2893e-06 0)
(0.00138588 -5.75416e-07 0)
(0.00141012 -1.57563e-07 0)
(0.00142496 2.92174e-06 0)
(0.00123711 3.54755e-06 0)
(0.00120951 -7.51148e-07 0)
(0.00061526 -0.000225849 0)
(0.0012424 3.65994e-06 0)
(0.00100134 -9.11195e-05 0)
(0.00027276 -0.000801787 0)
(0.000403974 -0.00073493 0)
(0.00125503 -7.4384e-05 0)
(0.00139335 -3.67459e-07 0)
(0.00111376 -6.52426e-05 0)
(0.00105886 -2.25943e-05 0)
(0.00023586 -0.000869509 0)
(6.10003e-05 -0.00103837 0)
(0.00130121 1.54852e-07 0)
(0.00114299 -6.71179e-06 0)
(0.00115017 -5.53314e-06 0)
(0.00131093 -3.56763e-05 0)
(0.00106718 -0.000101339 0)
(0.000991903 -0.000214129 0)
(0.00143969 4.52886e-07 0)
(0.00131324 -6.19752e-05 0)
(0.000147939 -0.00096377 0)
(0.00104425 -7.09913e-05 0)
(0.00123114 -5.35312e-05 0)
(0.00131694 -3.67657e-05 0)
(0.00137587 -1.80297e-06 0)
(0.00109164 -2.94043e-05 0)
(0.00119515 -4.91084e-06 0)
(0.00124828 2.50027e-06 0)
(0.00121541 2.42749e-06 0)
(0.00123691 3.2034e-06 0)
(0.00123653 -4.97723e-05 0)
(0.00122369 3.02726e-06 0)
(0.000641664 -0.000563438 0)
(0.000933768 -6.30344e-05 0)
(0.000945585 -5.8727e-05 0)
(0.00124961 3.80714e-06 0)
(0.000835358 -0.000138631 0)
(0.0011414 -6.69261e-05 0)
(0.00142562 2.77466e-07 0)
(0.00129699 -6.4964e-05 0)
(3.7368e-05 -0.00105629 0)
(0.00100947 -5.5015e-05 0)
(0.000911638 -8.04362e-05 0)
(0.00116268 -0.000130402 0)
(0.00106669 -4.76212e-05 0)
(0.000741632 -0.000215887 0)
(0.000787951 -0.000120648 0)
(0.0010047 -6.16237e-05 0)
(0.00138757 -3.57759e-06 0)
(0.00123884 -3.94365e-05 0)
(0.00119774 -1.75391e-06 0)
(0.000769577 -0.000140096 0)
(2.98468e-05 -0.00102356 0)
(0.00125698 -5.61585e-06 0)
(0.00139255 -7.02121e-07 0)
(0.00139041 -2.19042e-06 0)
(0.00130186 -3.94223e-05 0)
(0.00105047 -7.21579e-05 0)
(0.00125538 -7.4141e-06 0)
(0.0012258 2.9761e-06 0)
(0.000181183 -0.000872397 0)
(0.000218783 -0.000736925 0)
(0.00104207 -3.13075e-05 0)
(0.00103932 -3.13907e-05 0)
(0.00137662 -8.26942e-06 0)
(0.000854533 -0.000107017 0)
(0.00118674 5.31592e-07 0)
(0.00130175 -4.96837e-05 0)
(0.0011914 -1.50557e-05 0)
(0.00116047 -5.13989e-05 0)
(0.00100631 -5.36791e-05 0)
(0.000840491 -0.000274232 0)
(0.00117006 -4.7554e-05 0)
(0.00140726 -3.35635e-07 0)
(0.00139946 -1.29886e-06 0)
(0.000542767 -0.00054647 0)
(0.000593591 -0.000250155 0)
(0.00118087 -9.91876e-06 0)
(0.00120784 -1.40386e-06 0)
(0.000643243 -0.000551294 0)
(0.00140827 -3.49651e-07 0)
(0.0012518 -1.58044e-07 0)
(0.00125228 3.77003e-07 0)
(0.00119643 -5.06466e-05 0)
(0.00132309 -2.64208e-06 0)
(0.00123884 3.12826e-06 0)
(0.00131999 -8.66293e-06 0)
(0.00144683 2.44236e-06 0)
(0.00132987 -5.04041e-05 0)
(0.00124252 3.2377e-06 0)
(0.00130335 1.43484e-07 0)
(0.00104261 -0.000157693 0)
(0.00113084 -8.97383e-06 0)
(0.00127339 2.6685e-06 0)
(0.00123909 -9.87943e-06 0)
(0.00126534 1.78813e-06 0)
(0.0012593 1.40628e-06 0)
(0.00126064 1.20154e-06 0)
(0.00124659 3.28589e-06 0)
(0.00119249 -5.48166e-05 0)
(0.00132755 -2.15412e-06 0)
(0.00113925 -2.11231e-05 0)
(0.00119256 -5.00546e-05 0)
(0.0013198 -2.55026e-06 0)
(0.00108948 -1.63835e-05 0)
(0.00108282 -1.81562e-05 0)
(0.000265487 -0.000505239 0)
(0.00115168 -3.78745e-05 0)
(0.00135288 -2.04394e-05 0)
(0.0012437 3.22501e-06 0)
(0.00126513 1.96074e-07 0)
(0.00125821 -4.54791e-05 0)
(0.00125941 2.77841e-06 0)
(0.0011765 -1.8308e-05 0)
(0.00118343 -1.80159e-05 0)
(0.00101293 -4.87463e-05 0)
(0.000822445 -0.000587434 0)
(0.00132943 -2.88352e-05 0)
(0.000501992 -0.000290385 0)
(0.000500138 -0.000289549 0)
(0.000890548 -0.000159558 0)
(0.00122707 -9.50797e-06 0)
(0.0014336 7.47018e-07 0)
(0.00130855 -6.03854e-05 0)
(0.00117953 -4.16003e-06 0)
(0.000949077 -0.000179256 0)
(0.00123012 -7.38102e-06 0)
(0.00104279 -0.000302155 0)
(0.00105203 -4.4306e-05 0)
(0.00117614 -5.78442e-05 0)
(0.00132229 -1.46758e-06 0)
(0.000883044 -0.000156202 0)
(0.00122005 -4.21738e-05 0)
(0.00144357 2.37186e-06 0)
(0.00132674 -5.06877e-05 0)
(0.000264345 -0.000742049 0)
(0.000843722 -0.000263442 0)
(0.00129598 8.90909e-07 0)
(0.000761301 -0.000306104 0)
(0.000151187 -0.000937761 0)
(0.0011518 -4.06567e-06 0)
(0.00137219 -1.96661e-06 0)
(0.000759304 -0.000147271 0)
(0.00125173 -1.49288e-05 0)
(0.00117992 -3.15228e-05 0)
(0.000140994 -0.000944636 0)
(0.0010593 -7.10052e-05 0)
(0.000232635 -0.000793096 0)
(0.00140679 -5.14687e-07 0)
(0.000573601 -0.000240465 0)
(0.000812898 -0.000123421 0)
(0.000833106 -0.000100267 0)
(0.00136313 -1.08814e-05 0)
(0.000360062 -0.000508293 0)
(0.00125139 -4.47744e-05 0)
(0.00114859 -3.98131e-05 0)
(0.00124465 -2.37119e-05 0)
(0.0011852 -3.15004e-05 0)
(0.00141365 6.95101e-06 0)
(0.00124702 -2.10265e-05 0)
(0.00109803 -2.69299e-05 0)
(0.000810047 -0.000651084 0)
(0.00123745 -1.32438e-05 0)
(0.000343729 -0.000725005 0)
(0.000548923 -0.000374641 0)
(0.00120639 -6.72519e-05 0)
(0.00126097 -6.43803e-07 0)
(0.00105267 -0.000155534 0)
(0.000844042 -9.4797e-05 0)
(0.00115942 -4.11547e-05 0)
(0.000996971 -0.000221823 0)
(0.000365567 -0.000529408 0)
(0.000708803 -0.000594941 0)
(0.0012979 -5.46838e-05 0)
(0.00130319 -5.32286e-05 0)
(0.00124595 -8.62415e-07 0)
(0.00124921 -6.27123e-07 0)
(6.37955e-05 -0.00103675 0)
(0.000351923 -0.000529403 0)
(0.000430747 -0.000820393 0)
(0.00123778 -7.42249e-07 0)
(0.00134873 -3.06964e-05 0)
(0.00121696 2.80745e-06 0)
(0.00122865 -5.06363e-05 0)
(0.000797647 -0.000118367 0)
(0.00107604 -2.29764e-05 0)
(0.00122484 3.15297e-06 0)
(0.00123575 -1.50314e-05 0)
(0.000477568 -0.000617139 0)
(0.00113274 -2.64798e-05 0)
(0.00113009 -2.83666e-05 0)
(0.000821155 -0.000117696 0)
(0.000763885 -0.000162499 0)
(0.000509006 -0.000336116 0)
(0.000582547 -0.000412953 0)
(0.00130585 -4.86005e-05 0)
(0.00122427 -3.78646e-05 0)
(0.00075875 -0.000160175 0)
(0.000591093 -0.000394563 0)
(0.00095788 -5.52788e-05 0)
(0.000967844 -5.26946e-05 0)
(0.00132501 -8.05905e-06 0)
(0.00138947 -2.23051e-06 0)
(0.000248884 -0.000863691 0)
(0.00121039 -4.6156e-05 0)
(0.0012674 -1.43132e-05 0)
(0.0013667 -1.48255e-05 0)
(0.00123866 -1.53048e-05 0)
(0.00124664 3.87885e-06 0)
(0.00127807 -1.66445e-05 0)
(0.00119324 -1.87349e-05 0)
(0.000900523 -9.01077e-05 0)
(0.0012132 -6.06594e-05 0)
(0.000821285 -0.000390307 0)
(0.00104718 -0.000315055 0)
(0.000798587 -0.000585915 0)
(0.00115368 -3.86795e-06 0)
(0.0013365 -4.9615e-05 0)
(0.00145315 2.75267e-06 0)
(0.00140053 -1.22794e-06 0)
(0.00119314 -1.34428e-05 0)
(0.00123903 -5.07865e-06 0)
(0.0012257 -1.88028e-05 0)
(0.00120577 -1.98306e-05 0)
(0.000951769 -0.000271236 0)
(0.00125018 -3.66008e-06 0)
(0.00124857 -5.39714e-06 0)
(0.00125173 -6.10445e-06 0)
(0.00140437 -1.23814e-07 0)
(0.00118954 -5.35046e-06 0)
(0.00119962 -0.00012532 0)
(0.00129507 -1.09975e-05 0)
(0.00129032 -1.16667e-05 0)
(0.00139227 -1.98123e-06 0)
(0.0012565 -2.25019e-06 0)
(0.00124272 -3.17355e-05 0)
(0.00107426 -2.46118e-05 0)
(0.000197759 -0.000857991 0)
(0.00122817 3.14217e-06 0)
(0.000991536 -4.2151e-05 0)
(0.00135783 -1.21022e-05 0)
(0.00115042 -8.00345e-06 0)
(0.00126046 -6.85673e-06 0)
(0.00103767 -2.855e-05 0)
(7.79289e-05 -0.00102478 0)
(0.00114339 -9.09005e-06 0)
(0.000355888 -0.000809452 0)
(0.000349884 -0.000695069 0)
(0.00122761 -2.97895e-05 0)
(0.00135458 -9.7748e-06 0)
(0.00135433 -9.34663e-06 0)
(0.000960219 -5.12497e-05 0)
(0.0010226 -4.40997e-05 0)
(0.00121586 -2.0216e-05 0)
(0.00104435 -3.10185e-05 0)
(0.00137084 -9.71413e-06 0)
(0.00136641 -1.13245e-05 0)
(0.00077396 -0.000213002 0)
(0.000672962 -0.000189266 0)
(0.000994976 -4.16759e-05 0)
(0.00141488 6.16963e-07 0)
(0.00108738 -4.72705e-05 0)
(0.00135339 -1.34106e-06 0)
(0.00106468 -0.000261078 0)
(0.00122686 -3.25808e-05 0)
(0.000942436 -0.00019174 0)
(0.00121334 -7.79416e-05 0)
(0.00136345 -5.92956e-07 0)
(0.00121912 -7.65541e-05 0)
(0.00136676 -6.05364e-07 0)
(0.00107217 -0.000246487 0)
(0.00113009 -7.63534e-06 0)
(0.00056554 -0.00056083 0)
(0.00125766 -3.15414e-05 0)
(0.00130949 -2.72245e-05 0)
(0.00118092 -8.31948e-07 0)
(0.00133906 -4.951e-05 0)
(0.0014557 2.73417e-06 0)
(0.00128615 -4.0211e-06 0)
(0.000718721 -0.000402451 0)
(0.000536114 -0.000587443 0)
(0.000493245 -0.000637485 0)
(0.00132553 -7.54409e-06 0)
(0.00110605 -0.00025621 0)
(0.00123634 2.35591e-06 0)
(0.00119866 1.42642e-06 0)
(0.000264387 -0.000755565 0)
(0.00111344 -0.000237718 0)
(0.00119426 1.03359e-06 0)
(0.00127181 2.83362e-06 0)
(0.00142232 3.07653e-06 0)
(0.000589249 -0.000712114 0)
(0.00125868 -5.74114e-06 0)
(0.00133594 -2.41626e-06 0)
(0.00127074 2.18536e-06 0)
(0.00082726 -0.000102583 0)
(0.000819639 -0.000107908 0)
(0.00142407 3.85858e-07 0)
(0.00141987 1.64248e-07 0)
(0.00129227 -6.37171e-05 0)
(0.00129681 -6.32849e-05 0)
(0.00124439 -2.33934e-05 0)
(0.00107474 -4.33674e-05 0)
(0.00125757 3.52313e-06 0)
(0.00125804 3.30033e-06 0)
(4.88957e-05 -0.000998118 0)
(0.000864644 -0.000141347 0)
(0.00115519 -8.78042e-05 0)
(0.00120519 -5.52358e-05 0)
(0.00121376 -0.000102019 0)
(0.00141004 -1.77381e-07 0)
(0.000434393 -0.000677897 0)
(0.00129698 9.33913e-07 0)
(0.00143614 3.11397e-07 0)
(0.00130869 -6.34336e-05 0)
(0.000816256 -0.000355475 0)
(0.000832795 -9.99388e-05 0)
(0.0012531 3.67998e-06 0)
(0.000594003 -0.00024495 0)
(0.00121491 -5.12734e-05 0)
(0.000102045 -0.000975459 0)
(0.000909238 -6.90417e-05 0)
(0.00127676 -2.69684e-05 0)
(0.0012797 -2.56878e-05 0)
(0.000284315 -0.000742262 0)
(0.000820665 -0.000335416 0)
(0.000204589 -0.000894492 0)
(0.00115019 -2.57177e-05 0)
(0.000917527 -6.58382e-05 0)
(0.00065084 -0.0001987 0)
(0.000634584 -0.00020243 0)
(0.000508376 -0.000281277 0)
(0.00111514 -6.28884e-05 0)
(0.00139085 -2.97754e-06 0)
(0.000799164 -0.000124182 0)
(0.00116509 -0.000139114 0)
(0.000923356 -0.000105551 0)
(0.000217107 -0.000877422 0)
(0.00114876 -1.66238e-05 0)
(0.00123598 -4.71808e-05 0)
(0.00123763 -6.84518e-06 0)
(0.00126017 -6.91977e-07 0)
(9.27335e-05 -0.000981363 0)
(0.00104577 -2.5734e-05 0)
(0.000884906 -0.000115186 0)
(5.04753e-05 -0.00104722 0)
(0.0012283 -1.01539e-05 0)
(0.00113276 -1.86931e-05 0)
(0.00114196 -0.0001146 0)
(0.00124899 -3.35715e-06 0)
(0.00126684 2.39491e-06 0)
(0.00143441 6.06722e-06 0)
(0.000650479 -0.000718038 0)
(0.001234 -5.1571e-06 0)
(0.0012 -4.39868e-05 0)
(0.00131241 -3.50516e-06 0)
(0.00108319 -8.31214e-05 0)
(0.00142131 4.83427e-06 0)
(0.00103656 -9.72134e-05 0)
(0.00123975 -8.59979e-06 0)
(0.000656601 -0.000193797 0)
(0.000697336 -0.000430617 0)
(0.000672372 -0.000183764 0)
(0.0007578 -0.000219678 0)
(0.000253808 -0.000539955 0)
(0.00120465 1.28775e-07 0)
(0.0013509 -1.28345e-06 0)
(0.0012132 -6.08505e-05 0)
(0.00108801 -5.80342e-05 0)
(0.000456784 -0.000418237 0)
(0.000699431 -0.000319 0)
(0.00140276 -9.5065e-07 0)
(0.00136236 -1.68852e-05 0)
(0.00083935 -0.000202437 0)
(0.0012954 -5.43797e-05 0)
(0.000646557 -0.000252435 0)
(0.00108963 -3.10637e-05 0)
(0.00120527 -4.46882e-06 0)
(0.00128147 -3.71283e-07 0)
(0.00122938 -3.52348e-05 0)
(0.00125808 -3.28463e-05 0)
(0.00141688 1.03914e-07 0)
(0.00128771 -6.55965e-05 0)
(0.00129783 -2.61893e-05 0)
(0.00117574 -0.000110774 0)
(0.000457911 -0.000339174 0)
(0.000951079 -8.25891e-05 0)
(0.000943576 -8.64943e-05 0)
(0.00127988 3.25299e-07 0)
(0.00123648 1.47405e-06 0)
(0.00109433 -3.15637e-05 0)
(0.00127124 2.52093e-06 0)
(0.000937777 -0.000274266 0)
(0.000209193 -0.00089581 0)
(0.000682499 -0.000325518 0)
(0.000501646 -0.000285237 0)
(0.00126052 -3.17832e-07 0)
(0.00118061 -9.96916e-05 0)
(0.00127827 -5.25782e-07 0)
(0.0013319 -2.65742e-05 0)
(0.00143456 2.69336e-06 0)
(0.00143008 2.21809e-06 0)
(0.00132117 -4.53022e-05 0)
(0.00132556 -4.47698e-05 0)
(0.00136597 -9.95222e-06 0)
(0.00125969 -2.41523e-07 0)
(0.000150848 -0.000833446 0)
(0.00121788 -6.03527e-05 0)
(0.00137088 -7.8694e-06 0)
(0.00118551 -3.73823e-05 0)
(0.00115186 -8.80589e-06 0)
(0.00125833 -5.95421e-06 0)
(0.0011417 -1.74968e-05 0)
(0.000580289 -0.00025969 0)
(0.00129263 -3.93996e-05 0)
(0.000196443 -0.000961652 0)
(0.00119294 -3.28986e-05 0)
(0.000125761 -0.000849452 0)
(0.00120158 -0.000129324 0)
(0.00123498 3.6918e-06 0)
(0.0012125 -5.8424e-05 0)
(0.00118241 -0.000115134 0)
(0.00117261 -5.98439e-05 0)
(0.00132302 -1.1101e-06 0)
(0.000979824 -4.42377e-05 0)
(0.00126094 -4.33932e-06 0)
(0.00125833 -2.54982e-06 0)
(0.00122382 -5.36313e-05 0)
(0.00122226 -1.04377e-05 0)
(0.00130687 -5.11667e-05 0)
(0.00122488 -6.68452e-06 0)
(0.00125899 -2.65819e-06 0)
(9.61854e-05 -0.00100245 0)
(0.0012292 -6.66472e-06 0)
(0.000828117 -0.000101898 0)
(8.97209e-05 -0.00100217 0)
(0.00115587 -2.1343e-05 0)
(0.00116135 -2.12914e-05 0)
(0.000554857 -0.000434276 0)
(0.0007787 -0.000260321 0)
(0.00087455 -8.36594e-05 0)
(0.000873476 -8.36331e-05 0)
(0.00142978 5.69449e-06 0)
(0.00143016 5.11891e-06 0)
(0.00123915 -3.057e-05 0)
(0.000718893 -0.000259495 0)
(0.00110678 -7.87203e-05 0)
(0.000282807 -0.000781347 0)
(0.00127348 -7.25914e-07 0)
(0.00111432 -7.34245e-05 0)
(0.0012608 -3.69888e-07 0)
(0.000210406 -0.000952358 0)
(0.000539748 -0.00043444 0)
(0.00120791 -5.83812e-05 0)
(0.00131124 2.92404e-07 0)
(0.00125548 -4.00741e-06 0)
(0.00121876 3.12695e-06 0)
(0.00123884 3.30601e-06 0)
(0.00100736 -4.39702e-05 0)
(0.000787573 -0.000425482 0)
(0.00126374 -4.47314e-05 0)
(0.00141369 6.33921e-06 0)
(0.000746713 -0.000349565 0)
(0.00122005 2.95744e-06 0)
(0.000729605 -0.000351869 0)
(0.000930023 -7.2199e-05 0)
(0.000584079 -0.000243203 0)
(0.00125645 -6.00122e-05 0)
(0.00116341 -3.82599e-05 0)
(0.00103593 -6.95562e-05 0)
(0.00130967 1.52133e-07 0)
(0.000993416 -5.31764e-05 0)
(0.000606274 -0.000237146 0)
(0.00061461 -0.000229184 0)
(0.000580292 -0.000238675 0)
(0.00128173 -4.3168e-06 0)
(0.0012648 3.06509e-06 0)
(0.00116821 -3.33055e-05 0)
(0.00135911 -9.54029e-06 0)
(0.000767521 -0.000190328 0)
(0.000743402 -0.000160165 0)
(0.000807339 -0.00033031 0)
(0.00073627 -0.000161232 0)
(0.000632477 -0.000204245 0)
(0.00136578 -4.24218e-06 0)
(6.38592e-05 -0.00103073 0)
(0.000785732 -0.000340184 0)
(0.000995342 -7.6061e-05 0)
(0.00112365 -8.64093e-06 0)
(0.00095979 -8.03452e-05 0)
(8.96857e-05 -0.000851092 0)
(0.00125463 -1.07114e-05 0)
(0.00121688 -1.73889e-05 0)
(0.000789458 -0.000121296 0)
(0.00121973 -8.15829e-06 0)
(0.000956754 -6.46514e-05 0)
(0.000617545 -0.000728044 0)
(0.00100156 -8.33883e-05 0)
(0.00113837 -5.98928e-05 0)
(0.00130665 2.23738e-08 0)
(0.00121069 -7.61572e-05 0)
(0.00136065 -7.05697e-07 0)
(0.00114717 -1.03811e-05 0)
(0.000976523 -8.22589e-05 0)
(9.25665e-05 -0.00101117 0)
(0.00102389 -7.40269e-05 0)
(0.00145114 6.02346e-06 0)
(0.00134703 -3.76936e-05 0)
(0.00125237 3.24322e-06 0)
(0.000480626 -0.000588683 0)
(0.00141399 4.04485e-08 0)
(0.000323258 -0.000485141 0)
(0.000705927 -0.000451119 0)
(0.00137929 -1.37157e-06 0)
(0.00105048 -0.000201188 0)
(0.00120638 -7.63082e-05 0)
(0.00135781 -7.12746e-07 0)
(0.0011119 -7.31603e-05 0)
(0.00111674 -7.41698e-05 0)
(0.000421572 -0.00058512 0)
(0.00100754 -4.6384e-05 0)
(0.00129525 -2.74488e-05 0)
(0.000550807 -0.000763576 0)
(0.00101837 -7.91999e-05 0)
(0.000450971 -0.000610251 0)
(0.000544346 -0.000263666 0)
(0.000239724 -0.000559442 0)
(0.000416211 -0.000574935 0)
(0.00123824 -1.42522e-05 0)
(0.00104524 -0.00019477 0)
(0.00141522 2.30423e-07 0)
(0.000841337 -0.000107682 0)
(0.000389284 -0.000835275 0)
(0.00126842 -1.34265e-05 0)
(0.00118816 -5.35221e-06 0)
(0.00127239 -2.93932e-05 0)
(0.00127257 -3.02743e-05 0)
(0.00118866 -3.97272e-06 0)
(0.00125167 3.68639e-06 0)
(0.00132611 -3.27373e-05 0)
(0.000792427 -0.00012544 0)
(0.000808829 -0.000110753 0)
(0.000820695 -0.000105444 0)
(0.0012459 3.30543e-06 0)
(0.000808687 -0.000113495 0)
(0.0013508 -4.58057e-06 0)
(0.000965732 -8.44242e-05 0)
(0.00112388 -7.28337e-05 0)
(0.000631331 -0.000369607 0)
(0.00132005 -1.28688e-07 0)
(0.00129479 1.12035e-06 0)
(0.000686974 -0.000176666 0)
(0.00138816 -3.53792e-06 0)
(0.000850586 -0.000304846 0)
(3.18456e-05 -0.000919312 0)
(0.000613451 -0.00037593 0)
(0.00128004 -6.06521e-05 0)
(0.0014079 -3.38948e-07 0)
(0.00137643 -1.55329e-06 0)
(0.00124612 2.84834e-06 0)
(0.000914614 -0.000380994 0)
(0.00118285 -3.04529e-06 0)
(0.00138325 -4.7014e-06 0)
(0.00138321 -4.65017e-06 0)
(0.00138739 -3.70613e-06 0)
(7.61965e-05 -0.00101341 0)
(0.00128763 3.60159e-07 0)
(0.00125918 -5.59056e-05 0)
(0.00127875 -1.08935e-05 0)
(0.00127933 -9.71796e-06 0)
(0.00118904 -7.99e-05 0)
(0.000861088 -0.000102991 0)
(0.000896056 -0.000378333 0)
(0.000322609 -0.000850062 0)
(0.00016753 -0.0007206 0)
(0.00123301 -3.74732e-06 0)
(0.00131132 -4.56843e-05 0)
(0.00131467 -4.53344e-05 0)
(0.000691649 -0.00044975 0)
(0.00124482 -2.44232e-05 0)
(0.000168677 -0.00070166 0)
(0.00129926 1.0974e-06 0)
(0.00129266 1.30963e-06 0)
(0.00129562 1.21636e-06 0)
(0.00128357 1.9799e-06 0)
(7.46061e-06 -0.0010804 0)
(0.0011594 -3.70592e-05 0)
(0.000277668 -0.000764544 0)
(0.00123792 -6.09241e-07 0)
(0.000907455 -8.93225e-05 0)
(0.00126741 -9.42427e-06 0)
(0.00103186 -6.13127e-05 0)
(0.00125555 3.19513e-06 0)
(0.00136591 -7.52847e-06 0)
(0.00127312 2.7456e-06 0)
(0.000933861 -0.00010318 0)
(0.00107002 -2.24567e-05 0)
(0.000483277 -0.00052029 0)
(0.0013855 -4.29518e-06 0)
(0.00101464 -3.41178e-05 0)
(0.0014244 6.02155e-06 0)
(0.0013511 -9.37601e-07 0)
(0.00128383 1.73551e-06 0)
(0.00128561 1.66496e-06 0)
(0.000233257 -0.000885806 0)
(0.00142448 7.11967e-07 0)
(0.000834658 -0.000211328 0)
(0.00125974 2.2208e-06 0)
(0.00132703 -3.65582e-05 0)
(0.00117364 -3.33342e-05 0)
(0.00128929 -4.95837e-05 0)
(0.00125837 -5.64164e-06 0)
(0.00128257 2.08756e-06 0)
(0.000693471 -0.000237611 0)
(0.00101729 -0.000463834 0)
(0.00120897 -2.82664e-06 0)
(0.00108701 -5.14209e-05 0)
(0.00124761 -7.91346e-06 0)
(0.0012187 -1.45485e-05 0)
(0.00102827 -4.15599e-05 0)
(0.00142707 3.56157e-06 0)
(0.0013044 -2.96893e-05 0)
(0.00130692 -2.98408e-05 0)
(0.00106666 -5.06131e-05 0)
(0.0012567 -7.09151e-05 0)
(0.00103105 -2.9935e-05 0)
(0.000305878 -0.000785198 0)
(0.00116791 -1.32005e-05 0)
(0.000922494 -7.57279e-05 0)
(0.00107348 -0.00014646 0)
(0.000950654 -5.94896e-05 0)
(0.00120761 -2.30719e-06 0)
(0.00130067 -1.4302e-05 0)
(0.00107205 -0.000206408 0)
(0.00125075 -2.12673e-05 0)
(0.00124163 1.54236e-06 0)
(0.00100831 -0.000219293 0)
(0.00113767 -6.43083e-06 0)
(0.00125029 -2.24193e-05 0)
(0.00123114 -5.00808e-05 0)
(0.00112737 -7.39462e-05 0)
(0.00065246 -0.000600102 0)
(0.00131472 -3.65378e-05 0)
(0.00132454 -2.78732e-05 0)
(0.00129655 -1.66761e-05 0)
(0.00124696 -2.6466e-05 0)
(0.00107067 -9.21685e-05 0)
(0.00102371 -4.75509e-05 0)
(0.00101423 -5.01958e-05 0)
(0.000842778 -0.000323443 0)
(0.000126999 -0.000713466 0)
(0.00132537 -3.94645e-05 0)
(0.00083849 -9.83815e-05 0)
(0.000687605 -0.000180414 0)
(0.000851004 -9.2377e-05 0)
(0.00113914 -0.000142896 0)
(0.00128615 -3.19107e-07 0)
(0.00128797 -8.37354e-07 0)
(0.00113021 -0.000148971 0)
(0.00120651 1.91829e-06 0)
(0.00120863 2.33336e-06 0)
(0.00128487 -1.16768e-05 0)
(0.00128428 -1.08195e-05 0)
(0.00126645 9.23568e-07 0)
(0.00126738 9.30002e-07 0)
(0.00118884 -0.000128819 0)
(0.00120027 -4.4391e-07 0)
(0.00135485 -1.31362e-05 0)
(0.00125699 -2.38065e-06 0)
(0.0012153 -4.2597e-05 0)
(0.00119587 -2.06906e-05 0)
(0.00123818 -1.58581e-07 0)
(0.00135432 -2.69642e-06 0)
(0.00107844 -2.19416e-05 0)
(0.00108577 -2.11879e-05 0)
(0.00123231 1.11891e-06 0)
(0.00113268 -5.51692e-05 0)
(0.00129795 2.48885e-07 0)
(0.00112722 -9.23511e-06 0)
(0.00119846 -6.17541e-06 0)
(0.0011349 -6.81749e-06 0)
(0.00114624 -1.9911e-05 0)
(0.00114156 -5.56161e-06 0)
(0.00113957 -2.07714e-05 0)
(0.000331234 -0.000747224 0)
(0.00114177 -6.41438e-05 0)
(0.00131279 -8.09113e-08 0)
(0.000343055 -0.000491636 0)
(0.00109555 -5.6839e-05 0)
(0.00128138 -1.56776e-05 0)
(0.00135272 -2.17314e-06 0)
(0.00127862 2.5805e-07 0)
(0.00136117 -4.50146e-06 0)
(0.000982372 -7.59378e-05 0)
(0.000984358 -7.80426e-05 0)
(0.000879044 -9.96726e-05 0)
(0.000993114 -9.29359e-05 0)
(0.00115602 -5.70942e-05 0)
(0.00110594 -1.23797e-05 0)
(0.00126053 -9.98688e-07 0)
(0.00132723 -4.53549e-06 0)
(0.000968038 -0.00024535 0)
(0.00030556 -0.000299544 0)
(0.00107522 -0.00019575 0)
(0.00141014 -1.59143e-07 0)
(0.000889872 -9.38655e-05 0)
(0.000999446 -0.000202772 0)
(0.00135848 -5.15548e-06 0)
(0.00132611 -3.59136e-05 0)
(0.00108504 -0.000141255 0)
(0.00117985 -2.97012e-05 0)
(0.000219364 -0.000798957 0)
(0.000786204 -0.000411146 0)
(0.00124246 -2.93799e-05 0)
(0.00131645 -9.87047e-06 0)
(0.000913862 -7.82103e-05 0)
(0.000232439 -0.000756408 0)
(0.00105253 -0.00037865 0)
(0.0013005 3.49347e-07 0)
(0.00103354 -6.32037e-05 0)
(0.00101455 -0.000385778 0)
(0.00099742 -3.91532e-05 0)
(4.2453e-05 -0.000910047 0)
(0.00118255 -3.58202e-07 0)
(0.00117538 -3.53667e-05 0)
(0.000683303 -0.000175111 0)
(0.000693347 -0.000173425 0)
(0.000706652 -0.000165957 0)
(0.00138505 -4.42943e-06 0)
(0.00119994 -4.81921e-06 0)
(0.00120822 -5.46146e-05 0)
(0.00101531 -0.000366314 0)
(0.00125451 -1.49786e-06 0)
(0.00127245 -6.4843e-05 0)
(0.000858777 -0.000148882 0)
(0.00131728 -4.05445e-07 0)
(0.00115474 -6.28519e-05 0)
(0.00122159 -8.97197e-05 0)
(0.00129096 -4.08206e-05 0)
(0.000388934 -0.000301596 0)
(0.000971896 -9.00983e-05 0)
(0.00100094 -7.27586e-05 0)
(0.000857712 -9.43753e-05 0)
(0.000860655 -9.46699e-05 0)
(0.000187484 -0.000816226 0)
(0.00129144 -4.55527e-05 0)
(0.000182078 -0.000924771 0)
(0.00121026 -8.83065e-06 0)
(0.00130048 -1.1689e-05 0)
(0.00122913 -6.51661e-05 0)
(0.00142433 8.60576e-07 0)
(0.00121576 -7.21458e-06 0)
(0.00108944 -1.5976e-05 0)
(0.00116696 -2.48261e-06 0)
(0.00108198 -1.75096e-05 0)
(0.00124754 2.89132e-08 0)
(0.000981434 -5.72489e-05 0)
(0.00133084 -5.80475e-06 0)
(0.001328 -5.45142e-06 0)
(2.14407e-06 -0.00108505 0)
(0.00122156 -1.85176e-05 0)
(0.000981323 -8.40103e-05 0)
(0.000863655 -0.000181685 0)
(0.000881312 -0.000171389 0)
(0.000611848 -0.000218324 0)
(0.00114111 -7.13121e-06 0)
(0.00116093 -0.000104702 0)
(0.00111994 -1.59017e-05 0)
(0.00118968 -9.3158e-05 0)
(0.00100073 -6.65356e-05 0)
(0.00112401 -3.81002e-05 0)
(0.000693405 -0.00068796 0)
(0.000802074 -0.000393123 0)
(0.00108765 -0.000157375 0)
(0.00107743 -9.10198e-05 0)
(0.000669005 -0.00049606 0)
(0.000232214 -0.000810001 0)
(0.000709461 -0.000229665 0)
(0.00105365 -9.93964e-05 0)
(0.000840717 -9.71511e-05 0)
(0.00125523 -3.32156e-06 0)
(0.000530886 -0.00054773 0)
(0.000890813 -0.000232056 0)
(0.00118677 -2.59866e-05 0)
(0.000847535 -0.000458057 0)
(0.00109257 -1.66854e-05 0)
(0.00121115 -8.02663e-05 0)
(0.00136301 -4.1244e-07 0)
(0.000842061 -0.000472016 0)
(0.00111123 -0.000139114 0)
(0.000708466 -0.000257592 0)
(0.00117037 -1.51063e-05 0)
(0.00117061 -1.6158e-05 0)
(0.00010837 -0.00100012 0)
(0.00140787 8.25842e-07 0)
(0.0010773 -8.57869e-05 0)
(0.00122382 -5.78039e-05 0)
(0.00141365 6.06961e-07 0)
(0.000229325 -0.000831756 0)
(0.00113361 -5.90436e-05 0)
(0.00130343 2.34997e-07 0)
(0.000429686 -0.000725548 0)
(9.3143e-05 -0.00101577 0)
(0.00116392 -1.55231e-05 0)
(0.00122347 -7.24757e-05 0)
(0.00136687 -9.41641e-07 0)
(0.00104848 -2.56686e-05 0)
(0.00127518 2.19699e-06 0)
(0.000741872 -0.000685209 0)
(3.29724e-05 -0.00105536 0)
(0.00128461 2.32039e-07 0)
(0.00125694 -4.13095e-06 0)
(0.00119619 -9.08779e-07 0)
(0.000363834 -0.000475554 0)
(3.37078e-05 -0.000937489 0)
(0.000751745 -0.000172597 0)
(0.00123463 -1.8118e-05 0)
(0.000734561 -0.000180134 0)
(0.00139032 -3.08111e-06 0)
(0.0013887 -2.54707e-06 0)
(0.000185572 -0.000851279 0)
(0.00098688 -4.21124e-05 0)
(0.00128705 -1.57848e-06 0)
(0.00130732 -3.77208e-05 0)
(0.000476983 -0.000664314 0)
(0.00129621 -1.50743e-05 0)
(0.00123929 -3.62403e-05 0)