/*--------------------------------*- C++ -*----------------------------------*\
| =========                 |                                                 |
| \\      /  F ield         | OpenFOAM: The Open Source CFD Toolbox           |
|  \\    /   O peration     | Version:  v2012                                 |
|   \\  /    A nd           | Website:  www.openfoam.com                      |
|    \\/     M anipulation  |                                                 |
\*---------------------------------------------------------------------------*/
FoamFile
{
    version     2.0;
    format      ascii;
    class       volVectorField;
    location    "18";
    object      D_0;
}
// * * * * * * * * * * * * * * * * * * * * * * * * * * * * * * * * * * * * * //

dimensions      [0 1 0 0 0 0 0];


internalField   nonuniform List<vector> 
7666
(
(0.00133348 -1.61656e-06 0)
(0.00132169 -9.83445e-07 0)
(0.000894656 -0.000679602 0)
(0.00123964 -9.77273e-06 0)
(0.000944724 -0.000123607 0)
(0.000708105 -0.00022791 0)
(0.00147456 -1.01838e-05 0)
(0.0012473 -1.70011e-05 0)
(0.000486072 -0.000342757 0)
(0.00147009 -9.52694e-06 0)
(0.00129019 1.1671e-06 0)
(0.00134169 -5.13523e-05 0)
(0.00125173 -1.38632e-05 0)
(0.00132076 -8.95157e-06 0)
(0.0014982 -1.0951e-06 0)
(0.000968902 -0.000358782 0)
(0.00125145 -1.60859e-05 0)
(0.000794979 -0.000163418 0)
(0.00127493 -4.86736e-05 0)
(0.00138999 -5.60673e-06 0)
(0.00137793 5.76374e-07 0)
(0.00105781 -6.15741e-05 0)
(0.00131101 -1.26274e-05 0)
(0.00122565 -6.60711e-06 0)
(0.000718199 -0.000278473 0)
(0.00149887 -1.03125e-06 0)
(0.000709357 -0.000290964 0)
(0.00128827 -6.48061e-06 0)
(0.00125343 -1.4471e-05 0)
(0.00139366 -6.36172e-05 0)
(0.0013393 -8.315e-05 0)
(0.000801317 -0.000158558 0)
(0.00130867 -1.73124e-05 0)
(0.0014135 -4.14849e-05 0)
(0.00130623 -3.70096e-05 0)
(0.0013621 -1.26569e-06 0)
(0.00136612 -1.02532e-06 0)
(0.00136817 -6.51546e-05 0)
(0.00082212 -0.000140148 0)
(0.00144794 -1.32693e-05 0)
(0.00115037 -0.000138266 0)
(0.000390844 -0.000823113 0)
(7.02008e-05 -0.00108111 0)
(0.00125349 -1.02008e-05 0)
(0.000136477 -0.001023 0)
(0.00148336 -6.60599e-06 0)
(0.000632115 -0.000254455 0)
(0.00114879 -0.000129925 0)
(0.001087 -0.000113504 0)
(0.00134562 1.39385e-06 0)
(0.00129033 -7.27862e-06 0)
(0.00110947 -7.8777e-05 0)
(0.00147658 -1.00349e-05 0)
(0.000502845 -0.000329485 0)
(0.00136568 7.14817e-07 0)
(0.0009764 -0.000368001 0)
(0.00134213 2.02105e-06 0)
(0.00134455 1.59018e-06 0)
(0.000805121 -0.000315283 0)
(0.000697909 -0.00022962 0)
(0.00133828 2.57227e-06 0)
(0.00136975 -6.60617e-05 0)
(0.00127603 -9.77526e-06 0)
(0.00127187 -1.06857e-05 0)
(0.00133544 2.10676e-06 0)
(0.0010796 -0.000100924 0)
(0.00146773 -5.57196e-06 0)
(0.00133731 2.2986e-06 0)
(0.000887626 -0.000370895 0)
(0.000798864 -0.000305901 0)
(0.0008684 -0.000383338 0)
(0.00153583 2.121e-06 0)
(0.00153431 1.6884e-06 0)
(0.00141736 -5.44632e-05 0)
(0.00141334 -5.68474e-05 0)
(0.00148933 -4.04391e-06 0)
(8.88557e-05 -0.00105956 0)
(0.00130524 -6.97944e-06 0)
(0.00130117 -7.87713e-06 0)
(0.00133733 2.69161e-06 0)
(0.00143194 -2.37719e-05 0)
(0.00151334 -2.73276e-07 0)
(0.00119603 -2.47594e-05 0)
(8.16216e-05 -0.0010745 0)
(0.00130136 -6.87861e-05 0)
(0.00116419 -9.73191e-05 0)
(0.00116229 -9.46196e-05 0)
(0.00106997 -7.31023e-05 0)
(0.00111353 -0.00011123 0)
(0.00136523 -7.21401e-05 0)
(0.00136233 -2.17812e-05 0)
(0.00136577 -2.23278e-05 0)
(0.00111007 -0.000105914 0)
(0.000742045 -0.0004454 0)
(0.000316984 -0.000491321 0)
(0.0010137 -0.000226724 0)
(0.00131466 -3.74462e-05 0)
(0.000916785 -0.000666348 0)
(0.00127423 -5.09491e-05 0)
(0.00139475 -5.29282e-06 0)
(0.0011045 -0.000104725 0)
(0.00139804 -6.294e-05 0)
(0.00129503 -1.56466e-05 0)
(0.000641748 -0.000663312 0)
(0.00124302 -5.13433e-05 0)
(0.000862354 -0.00012173 0)
(0.000215036 -0.000967838 0)
(0.000942231 -9.5578e-05 0)
(0.00147869 -8.60408e-06 0)
(0.00111371 -8.66809e-05 0)
(0.00127644 -4.68577e-06 0)
(0.00100854 -6.52412e-05 0)
(0.00129319 8.76835e-07 0)
(0.00134199 2.6271e-06 0)
(0.00129234 6.97559e-07 0)
(0.000891354 -0.000143964 0)
(0.00128966 -3.76789e-06 0)
(0.00129759 -5.85004e-05 0)
(0.00134714 -6.68464e-05 0)
(0.0013482 -6.45872e-05 0)
(0.000648073 -0.000236571 0)
(0.00144759 -3.5606e-05 0)
(0.00136823 -3.91681e-05 0)
(0.00149344 -3.24675e-06 0)
(0.00123268 -5.54495e-06 0)
(0.00134922 2.3152e-07 0)
(0.000948612 -9.18461e-05 0)
(0.00106383 -4.41445e-05 0)
(0.00116859 -1.76963e-05 0)
(0.00131252 -2.21362e-05 0)
(0.000970118 -0.000387782 0)
(0.00122399 -7.12192e-05 0)
(0.00139894 -1.36385e-06 0)
(2.99645e-05 -0.00111061 0)
(0.00136618 -4.08034e-05 0)
(0.000870894 -0.000118837 0)
(0.00143656 -2.22164e-05 0)
(0.00144757 -1.39372e-05 0)
(0.00134795 -1.3684e-05 0)
(0.00125013 -3.62702e-06 0)
(0.00115842 -2.01983e-05 0)
(0.00151929 9.80321e-07 0)
(0.00148199 -1.04257e-06 0)
(0.00148635 -7.59973e-07 0)
(0.0014637 -6.11937e-06 0)
(0.00140755 -1.20725e-05 0)
(0.00147332 -1.04577e-05 0)
(0.0015244 2.73175e-06 0)
(0.00132873 -2.74723e-06 0)
(0.00126801 -3.00626e-05 0)
(0.00147373 -8.84936e-06 0)
(0.0010957 -0.000145881 0)
(0.00133296 2.69285e-06 0)
(0.00117389 -0.000113136 0)
(0.00143778 -4.52289e-06 0)
(0.00144229 -4.0856e-06 0)
(0.00116024 -0.000117452 0)
(0.00112302 -3.01938e-05 0)
(0.0012185 -8.42322e-06 0)
(0.00144153 -2.76704e-05 0)
(0.000585328 -0.000628374 0)
(0.000113613 -0.000781953 0)
(0.00106866 -5.83387e-05 0)
(0.000236634 -0.000953101 0)
(0.000710385 -0.000668052 0)
(0.000701712 -0.000652778 0)
(0.00121144 -9.4637e-06 0)
(0.00134064 1.5964e-06 0)
(0.00134025 1.85631e-06 0)
(0.000552375 -0.000640734 0)
(0.00130858 2.56905e-07 0)
(0.00129758 9.16447e-07 0)
(0.00112278 -5.25896e-05 0)
(0.00120974 -7.90301e-05 0)
(0.00110191 -0.000150156 0)
(0.00136365 8.3626e-07 0)
(0.00100655 -6.30728e-05 0)
(0.00025305 -0.00056446 0)
(0.00131067 -8.29254e-05 0)
(0.00123305 -1.07299e-05 0)
(0.00107542 -5.144e-05 0)
(0.00132169 -2.21378e-05 0)
(0.00116057 -5.67733e-05 0)
(0.00131006 -4.34709e-05 0)
(0.00108977 -9.43881e-05 0)
(0.000999539 -0.000230581 0)
(0.00153155 3.29268e-07 0)
(0.00139677 -7.19108e-05 0)
(0.000816066 -0.000289209 0)
(0.00141977 -3.41547e-05 0)
(0.00130326 -9.78563e-08 0)
(0.00141403 -1.6197e-05 0)
(0.00141623 -1.53152e-05 0)
(0.00136009 -1.37165e-05 0)
(0.000967237 -9.1758e-05 0)
(0.000400717 -0.000522679 0)
(0.0013103 -3.69267e-06 0)
(0.0014835 -6.91304e-06 0)
(0.00147684 -9.05655e-06 0)
(0.00127898 -0.000119129 0)
(0.00100146 -6.4482e-05 0)
(0.00129517 -2.75905e-06 0)
(0.00131541 -8.10995e-05 0)
(0.000848232 -0.000128293 0)
(0.00140719 -9.79906e-07 0)
(0.0004148 -0.000729396 0)
(0.00144178 -5.89029e-06 0)
(0.00120593 -0.000114045 0)
(0.00130273 -4.84978e-07 0)
(0.00130138 -3.90192e-05 0)
(0.000566994 -0.000417151 0)
(0.00130583 2.6101e-07 0)
(0.0014791 -9.15737e-07 0)
(0.00150646 -1.2854e-06 0)
(0.00152306 1.83366e-06 0)
(0.00131234 2.41649e-06 0)
(0.00128498 -3.38852e-06 0)
(0.000648732 -0.000246988 0)
(0.0013181 2.63019e-06 0)
(0.00106387 -0.000103124 0)
(0.000284044 -0.000843588 0)
(0.000416402 -0.000775467 0)
(0.00134032 -8.46926e-05 0)
(0.00148739 -6.0189e-07 0)
(0.00118559 -7.4799e-05 0)
(0.00112156 -2.81764e-05 0)
(0.000245112 -0.000912607 0)
(6.4196e-05 -0.00108573 0)
(0.00138398 8.23696e-08 0)
(0.00121279 -1.04948e-05 0)
(0.0012205 -9.14393e-06 0)
(0.00140072 -4.21959e-05 0)
(0.00112304 -0.000109439 0)
(0.00103868 -0.000229162 0)
(0.00153885 3.6874e-07 0)
(0.00140437 -7.15103e-05 0)
(0.00015415 -0.00100872 0)
(0.00111013 -8.12518e-05 0)
(0.0013011 -5.68413e-05 0)
(0.00140749 -4.3499e-05 0)
(0.00146818 -2.73556e-06 0)
(0.00115978 -3.58879e-05 0)
(0.00127015 -8.22877e-06 0)
(0.00132353 1.78855e-06 0)
(0.00129015 4.59049e-07 0)
(0.00131355 1.6022e-06 0)
(0.00130742 -5.30356e-05 0)
(0.00129899 1.26413e-06 0)
(0.000660223 -0.000599519 0)
(0.00098702 -7.23594e-05 0)
(0.000999616 -6.76599e-05 0)
(0.00132677 2.66139e-06 0)
(0.000879016 -0.000152874 0)
(0.00121575 -7.65439e-05 0)
(0.00152323 9.82723e-08 0)
(0.00138645 -7.46288e-05 0)
(3.93598e-05 -0.00110404 0)
(0.00107181 -6.40555e-05 0)
(0.000962123 -9.07997e-05 0)
(0.00122521 -0.000138734 0)
(0.00112571 -5.34841e-05 0)
(0.000778224 -0.00023512 0)
(0.000832874 -0.000134911 0)
(0.00106691 -7.12282e-05 0)
(0.00148326 -6.49152e-06 0)
(0.00131002 -4.2031e-05 0)
(0.0012723 -4.63633e-06 0)
(0.000811733 -0.000155438 0)
(3.04257e-05 -0.00106849 0)
(0.00133022 -6.04898e-06 0)
(0.00148947 -3.97313e-06 0)
(0.00148673 -5.26244e-06 0)
(0.00139087 -4.63011e-05 0)
(0.00111692 -8.24984e-05 0)
(0.00132843 -7.95812e-06 0)
(0.00130142 1.19804e-06 0)
(0.000190126 -0.000916294 0)
(0.000230578 -0.000778026 0)
(0.00110204 -3.72619e-05 0)
(0.00109933 -3.74335e-05 0)
(0.00147218 -1.22489e-05 0)
(0.000905469 -0.000120395 0)
(0.00125873 -1.85757e-06 0)
(0.00139125 -5.77367e-05 0)
(0.00125999 -1.71849e-05 0)
(0.00122473 -5.5495e-05 0)
(0.00106829 -6.2628e-05 0)
(0.000877265 -0.000294743 0)
(0.0012352 -5.13194e-05 0)
(0.00150337 -1.57635e-06 0)
(0.0014947 -2.58408e-06 0)
(0.000561642 -0.000581749 0)
(0.000625294 -0.000272631 0)
(0.00124948 -1.21658e-05 0)
(0.0012833 -4.14801e-06 0)
(0.000662581 -0.000586707 0)
(0.00150435 -1.42275e-06 0)
(0.00132623 -6.71118e-07 0)
(0.00132693 -1.38914e-07 0)
(0.00127537 -5.86041e-05 0)
(0.00140986 -4.18009e-06 0)
(0.00131575 1.5209e-06 0)
(0.00140765 -1.13995e-05 0)
(0.00154685 2.15418e-06 0)
(0.00142247 -5.88925e-05 0)
(0.00131778 2.30926e-06 0)
(0.00138642 1.01422e-07 0)
(0.00109468 -0.000168997 0)
(0.00119766 -1.24788e-05 0)
(0.00135269 2.02051e-06 0)
(0.00131113 -1.08889e-05 0)
(0.00134229 1.49201e-06 0)
(0.00133508 1.03476e-06 0)
(0.00133645 8.92538e-07 0)
(0.00132417 1.81711e-06 0)
(0.00127121 -6.31783e-05 0)
(0.00141464 -3.50073e-06 0)
(0.00120434 -2.45467e-05 0)
(0.00127111 -5.79668e-05 0)
(0.00140622 -4.10692e-06 0)
(0.00115537 -2.14672e-05 0)
(0.00114833 -2.34575e-05 0)
(0.000281689 -0.000539874 0)
(0.0012259 -4.48399e-05 0)
(0.00144659 -2.56753e-05 0)
(0.00132095 1.72959e-06 0)
(0.00134128 1.64576e-07 0)
(0.00134293 -5.28333e-05 0)
(0.00133618 2.20976e-06 0)
(0.00124392 -2.08534e-05 0)
(0.00125131 -2.04109e-05 0)
(0.00107522 -5.72517e-05 0)
(0.000839088 -0.000625172 0)
(0.00142088 -3.47286e-05 0)
(0.000529888 -0.000315369 0)
(0.000528029 -0.000314496 0)
(0.000934723 -0.000173769 0)
(0.00129843 -1.07692e-05 0)
(0.00153211 5.32307e-07 0)
(0.00139913 -6.96914e-05 0)
(0.00124907 -6.39219e-06 0)
(0.000994813 -0.00019331 0)
(0.0013019 -8.50824e-06 0)
(0.00109118 -0.000321412 0)
(0.00111761 -5.22951e-05 0)
(0.00125343 -6.65283e-05 0)
(0.00140863 -2.65822e-06 0)
(0.000927117 -0.000170395 0)
(0.00128916 -4.49001e-05 0)
(0.00154324 2.04105e-06 0)
(0.00141901 -5.91645e-05 0)
(0.000276823 -0.000782817 0)
(0.000881081 -0.000283378 0)
(0.00137819 4.97198e-07 0)
(0.000794097 -0.000329241 0)
(0.000158361 -0.000982861 0)
(0.00122144 -7.32972e-06 0)
(0.00146413 -2.9565e-06 0)
(0.000800676 -0.000163085 0)
(0.00132395 -1.58467e-05 0)
(0.00125634 -3.77347e-05 0)
(0.000147895 -0.000990012 0)
(0.00112648 -8.12167e-05 0)
(0.000243754 -0.000835122 0)
(0.00150259 -1.42111e-06 0)
(0.000605536 -0.000262648 0)
(0.000857237 -0.000137356 0)
(0.000880634 -0.000112942 0)
(0.00145653 -1.4469e-05 0)
(0.000378562 -0.000542543 0)
(0.00133539 -5.20493e-05 0)
(0.00122263 -4.69645e-05 0)
(0.00131635 -2.52565e-05 0)
(0.00126212 -3.76873e-05 0)
(0.00151197 4.80423e-06 0)
(0.0013189 -2.23447e-05 0)
(0.00116658 -3.31676e-05 0)
(0.000826895 -0.00068886 0)
(0.0013091 -1.44105e-05 0)
(0.000356978 -0.000765122 0)
(0.000574524 -0.00040292 0)
(0.0012738 -7.14892e-05 0)
(0.00133541 -7.37429e-07 0)
(0.00110551 -0.000166555 0)
(0.000892721 -0.000107126 0)
(0.00123451 -4.8371e-05 0)
(0.0010438 -0.000237178 0)
(0.00038367 -0.000564316 0)
(0.00072689 -0.000631747 0)
(0.00138716 -6.32544e-05 0)
(0.00139298 -6.16905e-05 0)
(0.00131982 -1.53434e-06 0)
(0.00132331 -1.20816e-06 0)
(6.70004e-05 -0.00108393 0)
(0.00036977 -0.000564394 0)
(0.000439524 -0.00086244 0)
(0.00131599 -3.10324e-06 0)
(0.0014427 -3.72404e-05 0)
(0.00129071 1.21882e-06 0)
(0.00129838 -5.37616e-05 0)
(0.000843999 -0.000132569 0)
(0.00113829 -2.79405e-05 0)
(0.00129936 1.68184e-06 0)
(0.00130716 -1.62901e-05 0)
(0.000485004 -0.000658247 0)
(0.00120447 -3.24906e-05 0)
(0.00120172 -3.45586e-05 0)
(0.00086617 -0.000131246 0)
(0.000804169 -0.000178949 0)
(0.000535332 -0.000363049 0)
(0.000607206 -0.000442536 0)
(0.00139576 -5.65852e-05 0)
(0.00129382 -4.03246e-05 0)
(0.0007991 -0.000176586 0)
(0.000616595 -0.00042334 0)
(0.00101523 -6.44095e-05 0)
(0.00102598 -6.15932e-05 0)
(0.00141309 -1.06736e-05 0)
(0.00148361 -3.5695e-06 0)
(0.000258188 -0.000906662 0)
(0.00127859 -4.92148e-05 0)
(0.00135059 -1.81699e-05 0)
(0.00146178 -1.96685e-05 0)
(0.00131922 -1.94818e-05 0)
(0.00132343 2.71612e-06 0)
(0.00136258 -2.07216e-05 0)
(0.00126162 -2.09414e-05 0)
(0.000954798 -0.000102174 0)
(0.00129407 -6.9535e-05 0)
(0.000852385 -0.000416789 0)
(0.00109578 -0.000335033 0)
(0.000813674 -0.000624352 0)
(0.00122362 -7.13775e-06 0)
(0.00142981 -5.81053e-05 0)
(0.00155386 2.54704e-06 0)
(0.00149583 -2.43143e-06 0)
(0.00126203 -1.55025e-05 0)
(0.00131826 -8.04131e-06 0)
(0.0013054 -2.34603e-05 0)
(0.00128371 -2.47358e-05 0)
(0.000994038 -0.000289871 0)
(0.00132365 -4.25253e-06 0)
(0.00132875 -8.30333e-06 0)
(0.0013323 -9.06618e-06 0)
(0.00150081 -1.99251e-06 0)
(0.00126408 -8.77218e-06 0)
(0.00126621 -0.000133488 0)
(0.00138055 -1.42353e-05 0)
(0.00137543 -1.50319e-05 0)
(0.00148842 -4.7639e-06 0)
(0.0013305 -2.61569e-06 0)
(0.00131395 -3.36757e-05 0)
(0.00113619 -2.96417e-05 0)
(0.000207186 -0.000901464 0)
(0.00130282 1.76676e-06 0)
(0.00105076 -5.00252e-05 0)
(0.00145071 -1.5785e-05 0)
(0.00121798 -1.0967e-05 0)
(0.00134199 -9.84154e-06 0)
(0.00109987 -3.5012e-05 0)
(8.1735e-05 -0.0010716 0)
(0.00121051 -1.22478e-05 0)
(0.000361375 -0.000851994 0)
(0.000363964 -0.000734474 0)
(0.00129769 -3.18103e-05 0)
(0.00144636 -1.27928e-05 0)
(0.00144599 -1.22841e-05 0)
(0.00101595 -5.97184e-05 0)
(0.00108544 -5.21546e-05 0)
(0.00128561 -2.20386e-05 0)
(0.00110796 -3.77986e-05 0)
(0.00146548 -1.3543e-05 0)
(0.00146065 -1.52922e-05 0)
(0.000811524 -0.000231638 0)
(0.000709784 -0.000208108 0)
(0.00105459 -4.95213e-05 0)
(0.00151174 -4.53563e-07 0)
(0.00115629 -5.53733e-05 0)
(0.00144303 -2.09737e-06 0)
(0.00111588 -0.000277837 0)
(0.0012968 -3.47423e-05 0)
(0.000987287 -0.000206512 0)
(0.00129456 -8.84771e-05 0)
(0.0014541 -9.15163e-07 0)
(0.00130088 -8.69626e-05 0)
(0.0014578 -9.60536e-07 0)
(0.00112433 -0.000262376 0)
(0.00119825 -1.14586e-05 0)
(0.000583816 -0.000596762 0)
(0.00134149 -3.74087e-05 0)
(0.00139842 -3.26471e-05 0)
(0.00125322 -3.61197e-06 0)
(0.00143265 -5.80213e-05 0)
(0.00155669 2.56198e-06 0)
(0.00136963 -6.30684e-06 0)
(0.000746207 -0.00043057 0)
(0.00055326 -0.000624316 0)
(0.000508588 -0.000675834 0)
(0.00141356 -1.00579e-05 0)
(0.00116158 -0.000272608 0)
(0.00131345 5.12873e-07 0)
(0.00127107 -5.77062e-07 0)
(0.0002766 -0.000796615 0)
(0.00116987 -0.000252999 0)
(0.00126644 -1.09316e-06 0)
(0.00135086 2.19437e-06 0)
(0.00152031 1.79895e-06 0)
(0.000598907 -0.000753087 0)
(0.0013318 -6.11974e-06 0)
(0.00142401 -3.75865e-06 0)
(0.00135085 9.65788e-07 0)
(0.000875079 -0.000115544 0)
(0.000867394 -0.000121324 0)
(0.00152153 1.31211e-07 0)
(0.00151686 -1.42485e-07 0)
(0.00138119 -7.31978e-05 0)
(0.00138621 -7.27699e-05 0)
(0.00132627 -2.84262e-05 0)
(0.00113449 -4.89042e-05 0)
(0.00133449 2.84972e-06 0)
(0.00133512 2.58162e-06 0)
(4.9926e-05 -0.00104277 0)
(0.000908981 -0.000155201 0)
(0.00121781 -9.37343e-05 0)
(0.00128512 -6.36073e-05 0)
(0.001282 -0.000108674 0)
(0.00150621 -1.08333e-06 0)
(0.000441119 -0.000719642 0)
(0.00137944 4.3289e-07 0)
(0.00153492 2.25674e-07 0)
(0.00139937 -7.30717e-05 0)
(0.00084864 -0.000380323 0)
(0.000880483 -0.000112621 0)
(0.00133022 2.71647e-06 0)
(0.000625969 -0.000267185 0)
(0.00128337 -5.45463e-05 0)
(0.000107749 -0.00102193 0)
(0.000962483 -7.9294e-05 0)
(0.00136216 -3.22818e-05 0)
(0.00136529 -3.08473e-05 0)
(0.000297026 -0.00078286 0)
(0.000854058 -0.000359201 0)
(0.000213206 -0.000938221 0)
(0.00122346 -3.15483e-05 0)
(0.000971211 -7.57962e-05 0)
(0.000686688 -0.00021822 0)
(0.000670229 -0.000222279 0)
(0.000536867 -0.000305763 0)
(0.00118703 -7.22368e-05 0)
(0.00148593 -5.1059e-06 0)
(0.00084328 -0.000138353 0)
(0.00122777 -0.000147979 0)
(0.000972057 -0.00011672 0)
(0.000226299 -0.000920797 0)
(0.00122103 -2.15797e-05 0)
(0.00130647 -5.00762e-05 0)
(0.00131701 -1.00454e-05 0)
(0.00133459 -8.56985e-07 0)
(9.8154e-05 -0.0010281 0)
(0.00110791 -3.17679e-05 0)
(0.00093166 -0.000127505 0)
(5.31689e-05 -0.00109485 0)
(0.00130727 -1.38297e-05 0)
(0.00119781 -2.22048e-05 0)
(0.00120283 -0.000122155 0)
(0.00132248 -3.97307e-06 0)
(0.0013466 1.09919e-06 0)
(0.00153366 5.04662e-06 0)
(0.000661717 -0.000758389 0)
(0.00131275 -8.17107e-06 0)
(0.001279 -5.13002e-05 0)
(0.00139832 -5.37849e-06 0)
(0.00115258 -9.43098e-05 0)
(0.00151957 3.29609e-06 0)
(0.00109083 -0.000105736 0)
(0.00131197 -9.55923e-06 0)
(0.000692948 -0.00021302 0)
(0.000723142 -0.000460223 0)
(0.00070973 -0.000202344 0)
(0.000794594 -0.000238859 0)
(0.000269223 -0.00057576 0)
(0.00127653 -1.56488e-06 0)
(0.00144023 -2.00382e-06 0)
(0.00128133 -6.46783e-05 0)
(0.00115738 -6.70635e-05 0)
(0.000479372 -0.000448813 0)
(0.000730115 -0.000343462 0)
(0.00149841 -2.26706e-06 0)
(0.00145703 -2.18902e-05 0)
(0.00087943 -0.000219548 0)
(0.00138439 -6.28895e-05 0)
(0.000679189 -0.000274497 0)
(0.00115775 -3.7723e-05 0)
(0.00127604 -6.09496e-06 0)
(0.00136359 -2.03339e-06 0)
(0.00129943 -3.74914e-05 0)
(0.00134203 -3.88449e-05 0)
(0.00151355 -1.76942e-07 0)
(0.0013762 -7.52345e-05 0)
(0.00138536 -3.14149e-05 0)
(0.00123975 -0.000117828 0)
(0.000482989 -0.000366548 0)
(0.00100937 -9.39927e-05 0)
(0.00100132 -9.82183e-05 0)
(0.0013593 2.58191e-07 0)
(0.0013139 -5.23575e-07 0)
(0.00116291 -3.82467e-05 0)
(0.00135125 1.3901e-06 0)
(0.000979114 -0.000293267 0)
(0.000217746 -0.000939464 0)
(0.000712529 -0.000350463 0)
(0.000529763 -0.000309982 0)
(0.00133542 -5.16178e-07 0)
(0.00124519 -0.000106027 0)
(0.00136021 -2.31522e-06 0)
(0.00142346 -3.21958e-05 0)
(0.00153338 2.04706e-06 0)
(0.00152844 1.5e-06 0)
(0.00141264 -5.31031e-05 0)
(0.00141749 -5.25708e-05 0)
(0.00145957 -1.34128e-05 0)
(0.00133456 -4.82879e-07 0)
(0.000159902 -0.000877087 0)
(0.00128648 -6.41114e-05 0)
(0.00146459 -1.09011e-05 0)
(0.00125219 -4.04318e-05 0)
(0.00121928 -1.17252e-05 0)
(0.00133131 -6.33215e-06 0)
(0.0012134 -2.25731e-05 0)
(0.000611255 -0.000282715 0)
(0.00138063 -4.62038e-05 0)
(0.00020124 -0.00100576 0)
(0.00126037 -3.56296e-05 0)
(0.000134043 -0.000893635 0)
(0.00126843 -0.000137869 0)
(0.00130986 2.56449e-06 0)
(0.00129324 -6.70904e-05 0)
(0.00124701 -0.000122459 0)
(0.00124963 -6.87322e-05 0)
(0.00140936 -2.20397e-06 0)
(0.00103754 -5.22084e-05 0)
(0.0013421 -6.96614e-06 0)
(0.00133212 -2.82681e-06 0)
(0.00129303 -5.69592e-05 0)
(0.00129322 -1.1817e-05 0)
(0.00139698 -5.94454e-05 0)
(0.00129646 -7.92163e-06 0)
(0.00133274 -2.91852e-06 0)
(0.000101007 -0.00104902 0)
(0.00130106 -7.80874e-06 0)
(0.000875833 -0.000114785 0)
(9.45564e-05 -0.00104905 0)
(0.00122931 -2.67294e-05 0)
(0.00123529 -2.66309e-05 0)
(0.000578332 -0.000464906 0)
(0.000814046 -0.000281083 0)
(0.000924383 -9.49222e-05 0)
(0.000923467 -9.49297e-05 0)
(0.00152865 4.50791e-06 0)
(0.00152899 3.97642e-06 0)
(0.00131008 -3.24753e-05 0)
(0.000752743 -0.000281038 0)
(0.00116618 -8.50246e-05 0)
(0.000294602 -0.000822742 0)
(0.00135497 -2.58386e-06 0)
(0.00117445 -7.93512e-05 0)
(0.0013351 -4.49535e-07 0)
(0.000215006 -0.000996333 0)
(0.000563018 -0.000465154 0)
(0.0012882 -6.70458e-05 0)
(0.00139566 -2.7948e-07 0)
(0.00132905 -4.4512e-06 0)
(0.00129318 1.43066e-06 0)
(0.00131379 2.30823e-06 0)
(0.0010687 -5.20537e-05 0)
(0.000815952 -0.000454066 0)
(0.00134899 -5.20153e-05 0)
(0.00151191 4.23347e-06 0)
(0.000777198 -0.000374908 0)
(0.00129443 1.32247e-06 0)
(0.000759554 -0.000377505 0)
(0.000986085 -8.28047e-05 0)
(0.000615978 -0.000265436 0)
(0.00134156 -6.8875e-05 0)
(0.00123873 -4.52029e-05 0)
(0.00109182 -7.69165e-05 0)
(0.00139364 -3.95337e-08 0)
(0.00104904 -6.08386e-05 0)
(0.000638924 -0.000258896 0)
(0.000647829 -0.000250498 0)
(0.000612432 -0.00026071 0)
(0.00136483 -6.69442e-06 0)
(0.0013429 2.36679e-06 0)
(0.00124367 -3.97484e-05 0)
(0.00145146 -1.25962e-05 0)
(0.000806164 -0.000208015 0)
(0.00078345 -0.000176791 0)
(0.000840493 -0.000353987 0)
(0.000776144 -0.000177999 0)
(0.000667863 -0.000224199 0)
(0.00145758 -6.00054e-06 0)
(6.75237e-05 -0.00107839 0)
(0.000817748 -0.000364642 0)
(0.00105718 -8.68625e-05 0)
(0.00119121 -1.25804e-05 0)
(0.00101875 -9.15579e-05 0)
(9.11031e-05 -0.000894627 0)
(0.00132735 -1.14185e-05 0)
(0.00129561 -2.19592e-05 0)
(0.000835172 -0.000135698 0)
(0.00129083 -9.53028e-06 0)
(0.00101006 -7.35056e-05 0)
(0.000628955 -0.000768568 0)
(0.00106404 -9.47656e-05 0)
(0.00121227 -6.8898e-05 0)
(0.00139093 -9.91347e-07 0)
(0.00129164 -8.65189e-05 0)
(0.00145099 -1.11417e-06 0)
(0.00121411 -1.34234e-05 0)
(0.00103692 -9.36038e-05 0)
(9.7052e-05 -0.00105776 0)
(0.0010789 -8.18243e-05 0)
(0.00155181 5.57907e-06 0)
(0.00144111 -4.50207e-05 0)
(0.00132902 2.37786e-06 0)
(0.000497838 -0.000625344 0)
(0.00151049 -6.71784e-07 0)
(0.000341396 -0.000518829 0)
(0.000730991 -0.000481599 0)
(0.00147191 -2.1389e-06 0)
(0.00110181 -0.000214646 0)
(0.00128691 -8.66835e-05 0)
(0.00144783 -1.12984e-06 0)
(0.00118371 -8.34146e-05 0)
(0.001189 -8.45102e-05 0)
(0.000438815 -0.000621557 0)
(0.00106913 -5.46872e-05 0)
(0.00138262 -3.28276e-05 0)
(0.000560986 -0.000804677 0)
(0.00107276 -8.7318e-05 0)
(0.000467517 -0.000647498 0)
(0.000554853 -0.000302382 0)
(0.000254497 -0.00059592 0)
(0.000433699 -0.000611083 0)
(0.00131863 -1.83161e-05 0)
(0.00109634 -0.000207982 0)
(0.00151189 -5.3474e-07 0)
(0.00088769 -0.000120456 0)
(0.000397914 -0.00087756 0)
(0.0013516 -1.71624e-05 0)
(0.00125789 -7.38417e-06 0)
(0.00135753 -3.49887e-05 0)
(0.0013578 -3.59758e-05 0)
(0.00125864 -5.98194e-06 0)
(0.00132837 2.78031e-06 0)
(0.00141747 -3.90999e-05 0)
(0.000836339 -0.000139784 0)
(0.000855091 -0.000124279 0)
(0.000867759 -0.000118577 0)
(0.00132176 2.3613e-06 0)
(0.000855797 -0.000127329 0)
(0.00144094 -6.37434e-06 0)
(0.00102526 -9.59465e-05 0)
(0.00119675 -8.30136e-05 0)
(0.000658506 -0.000396984 0)
(0.00140561 -7.32037e-07 0)
(0.00137711 4.65706e-07 0)
(0.000725091 -0.000194746 0)
(0.00148375 -6.32552e-06 0)
(0.000886415 -0.000326717 0)
(3.71664e-05 -0.000965649 0)
(0.000640063 -0.000403727 0)
(0.0013676 -6.97056e-05 0)
(0.00150369 -9.96662e-07 0)
(0.00146876 -2.37775e-06 0)
(0.00132378 1.30007e-06 0)
(0.000950739 -0.000405754 0)
(0.00125281 -5.20801e-06 0)
(0.00147785 -7.20687e-06 0)
(0.00147773 -7.09397e-06 0)
(0.00148218 -5.95021e-06 0)
(8.05638e-05 -0.0010607 0)
(0.00137012 -1.04932e-06 0)
(0.00134443 -6.43466e-05 0)
(0.00136261 -1.42387e-05 0)
(0.00136307 -1.28923e-05 0)
(0.00125471 -8.50148e-05 0)
(0.000912455 -0.00011606 0)
(0.000931119 -0.000403272 0)
(0.000328048 -0.000892985 0)
(0.000178452 -0.000761741 0)
(0.00131143 -6.59101e-06 0)
(0.0014017 -5.33936e-05 0)
(0.00140541 -5.30518e-05 0)
(0.000716505 -0.000480265 0)
(0.00132683 -2.95664e-05 0)
(0.000179873 -0.000742332 0)
(0.00138199 6.29014e-07 0)
(0.00137497 4.68769e-07 0)
(0.00137826 4.11876e-07 0)
(0.00136439 1.30783e-06 0)
(8.03771e-06 -0.0011296 0)
(0.00123427 -4.38991e-05 0)
(0.000289854 -0.000805637 0)
(0.00131136 -1.47564e-06 0)
(0.000962297 -0.000101323 0)
(0.00134997 -1.26647e-05 0)
(0.00109643 -7.08104e-05 0)
(0.00133372 1.96332e-06 0)
(0.00145863 -1.02107e-05 0)
(0.00135251 2.03808e-06 0)
(0.000983112 -0.000114036 0)
(0.00113235 -2.75994e-05 0)
(0.000502953 -0.000554486 0)
(0.00148093 -7.22114e-06 0)
(0.00107487 -4.10999e-05 0)
(0.001523 4.54975e-06 0)
(0.0014404 -1.52883e-06 0)
(0.00136434 1.27792e-06 0)
(0.00136638 1.20757e-06 0)
(0.000241905 -0.000929139 0)
(0.00152206 2.12541e-07 0)
(0.000874123 -0.000228931 0)
(0.00133608 1.76642e-06 0)
(0.00141874 -4.34147e-05 0)
(0.00124962 -3.97631e-05 0)
(0.00137744 -5.75271e-05 0)
(0.00133131 -5.98769e-06 0)
(0.00136336 1.34746e-06 0)
(0.00072782 -0.000258466 0)
(0.0010592 -0.000491808 0)
(0.0012849 -5.76835e-06 0)
(0.00115605 -5.98837e-05 0)
(0.00132032 -8.67883e-06 0)
(0.00128906 -1.61255e-05 0)
(0.00109145 -4.93819e-05 0)
(0.00152545 2.44798e-06 0)
(0.00139298 -3.53958e-05 0)
(0.0013958 -3.55859e-05 0)
(0.00113386 -5.90845e-05 0)
(0.00134209 -8.08805e-05 0)
(0.00109266 -3.65262e-05 0)
(0.000310587 -0.000827877 0)
(0.00124157 -1.76584e-05 0)
(0.000978073 -8.66323e-05 0)
(0.00112809 -0.000156678 0)
(0.00100457 -6.83137e-05 0)
(0.0012833 -5.19102e-06 0)
(0.00138717 -1.79717e-05 0)
(0.00112498 -0.00021996 0)
(0.00132282 -2.25574e-05 0)
(0.00131956 -3.97923e-07 0)
(0.00105603 -0.000234343 0)
(0.00120636 -1.00683e-05 0)
(0.0013223 -2.37742e-05 0)
(0.00130181 -5.35414e-05 0)
(0.00120056 -8.42327e-05 0)
(0.000669487 -0.000637448 0)
(0.00140501 -4.32117e-05 0)
(0.00141532 -3.35551e-05 0)
(0.00138293 -2.06788e-05 0)
(0.00132935 -3.18157e-05 0)
(0.00113899 -0.000104157 0)
(0.00108094 -5.43616e-05 0)
(0.00107085 -5.73026e-05 0)
(0.000877578 -0.000346327 0)
(0.000137018 -0.000754676 0)
(0.00141704 -4.6646e-05 0)
(0.000887346 -0.000111065 0)
(0.000725325 -0.000198672 0)
(0.00090043 -0.000104554 0)
(0.00119926 -0.000152137 0)
(0.00136873 -1.91363e-06 0)
(0.00137084 -2.49668e-06 0)
(0.00118941 -0.000158625 0)
(0.00128036 -1.67642e-07 0)
(0.00128251 3.47522e-07 0)
(0.00136943 -1.50748e-05 0)
(0.00136867 -1.41087e-05 0)
(0.00134319 7.67185e-07 0)
(0.00134437 7.68473e-07 0)
(0.00125412 -0.000137087 0)
(0.00127171 -2.21972e-06 0)
(0.0014475 -1.6962e-05 0)
(0.0013309 -2.72232e-06 0)
(0.001284 -4.54133e-05 0)
(0.0012643 -2.29198e-05 0)
(0.00131177 -1.0236e-06 0)
(0.00144437 -3.91151e-06 0)
(0.00114435 -2.77275e-05 0)
(0.00115237 -2.68807e-05 0)
(0.00130946 -9.92221e-07 0)
(0.00120592 -6.37721e-05 0)
(0.00138135 -9.1452e-07 0)
(0.00119395 -1.28575e-05 0)
(0.00126858 -7.97493e-06 0)
(0.0012029 -1.03816e-05 0)
(0.00121862 -2.52028e-05 0)
(0.00121019 -8.99473e-06 0)
(0.00121143 -2.61951e-05 0)
(0.000343881 -0.000787838 0)
(0.00121608 -7.35126e-05 0)
(0.00139768 -9.56097e-07 0)
(0.00036154 -0.000525437 0)
(0.00116554 -6.57374e-05 0)
(0.00136611 -1.96194e-05 0)
(0.00144253 -3.29209e-06 0)
(0.0013578 2.20987e-07 0)
(0.00145251 -6.31755e-06 0)
(0.00104313 -8.67627e-05 0)
(0.00104532 -8.90272e-05 0)
(0.000926865 -0.00011143 0)
(0.00105498 -0.0001051 0)
(0.00121974 -6.15199e-05 0)
(0.00117155 -1.6609e-05 0)
(0.00133454 -1.09791e-06 0)
(0.00141485 -6.45476e-06 0)
(0.00101222 -0.000262372 0)
(0.000310608 -0.000339922 0)
(0.00112866 -0.000208614 0)
(0.00150613 -7.27659e-07 0)
(0.00093853 -0.000105183 0)
(0.00104707 -0.000217113 0)
(0.00144964 -7.11415e-06 0)
(0.00141768 -4.26793e-05 0)
(0.00114065 -0.000151039 0)
(0.00125616 -3.5749e-05 0)
(0.000230195 -0.00084122 0)
(0.000815127 -0.000439046 0)
(0.00131371 -3.11864e-05 0)
(0.00140394 -1.28237e-05 0)
(0.000968793 -8.93197e-05 0)
(0.000244192 -0.000797761 0)
(0.00110046 -0.000402317 0)
(0.0013832 2.12553e-07 0)
(0.00109831 -7.28556e-05 0)
(0.00105832 -0.000409741 0)
(0.00105648 -4.6642e-05 0)
(4.3181e-05 -0.000953924 0)
(0.00125463 -2.97449e-06 0)
(0.00125163 -4.1972e-05 0)
(0.000722095 -0.000193206 0)
(0.000733066 -0.000191433 0)
(0.000747245 -0.000183509 0)
(0.00148028 -7.24986e-06 0)
(0.00127542 -8.1033e-06 0)
(0.00127605 -5.81403e-05 0)
(0.00105964 -0.000389314 0)
(0.00132867 -1.93001e-06 0)
(0.00135932 -7.42806e-05 0)
(0.000902438 -0.00016318 0)
(0.00140278 -1.34405e-06 0)
(0.00123019 -7.20673e-05 0)
(0.00129111 -9.58903e-05 0)
(0.00137886 -4.778e-05 0)
(0.000395532 -0.000341461 0)
(0.00103201 -0.000102064 0)
(0.00106317 -8.3278e-05 0)
(0.000908319 -0.000106773 0)
(0.000911606 -0.000107108 0)
(0.000197495 -0.000859154 0)
(0.00137963 -5.30611e-05 0)
(0.000189685 -0.000969029 0)
(0.00128072 -1.04288e-05 0)
(0.0013866 -1.49919e-05 0)
(0.00129895 -6.92909e-05 0)
(0.00152193 3.02402e-07 0)
(0.00128669 -8.64976e-06 0)
(0.00115393 -2.06599e-05 0)
(0.00123675 -5.14892e-06 0)
(0.00114597 -2.23985e-05 0)
(0.00132643 -2.08158e-06 0)
(0.00103625 -6.53153e-05 0)
(0.0014191 -7.96858e-06 0)
(0.0014159 -7.56282e-06 0)
(2.52848e-06 -0.00113473 0)
(0.00129181 -2.01768e-05 0)
(0.00104213 -9.54783e-05 0)
(0.000905654 -0.000197411 0)
(0.000924503 -0.000186322 0)
(0.000645829 -0.000239138 0)
(0.00120868 -1.03771e-05 0)
(0.00122364 -0.000111492 0)
(0.00118485 -1.96693e-05 0)
(0.00125523 -9.90544e-05 0)
(0.00106278 -7.65522e-05 0)
(0.00118675 -4.23869e-05 0)
(0.000705623 -0.000727861 0)
(0.000832406 -0.000419967 0)
(0.00114304 -0.000167968 0)
(0.00114633 -0.000102888 0)
(0.00069136 -0.000528875 0)
(0.000243027 -0.000852315 0)
(0.000744566 -0.000249958 0)
(0.00110878 -0.000107665 0)
(0.000889562 -0.000109705 0)
(0.00132892 -3.74121e-06 0)
(0.000549691 -0.000583009 0)
(0.000931484 -0.000249704 0)
(0.00125421 -2.85753e-05 0)
(0.000876703 -0.000487565 0)
(0.00115661 -2.12017e-05 0)
(0.00129218 -9.10224e-05 0)
(0.00145358 -6.43853e-07 0)
(0.000870306 -0.000502252 0)
(0.00116898 -0.000148406 0)
(0.000742152 -0.000279175 0)
(0.0012445 -1.9764e-05 0)
(0.00124489 -2.09202e-05 0)
(0.00011301 -0.00104576 0)
(0.00150471 -9.9808e-07 0)
(0.00114619 -9.7205e-05 0)
(0.00130562 -6.63915e-05 0)
(0.00151049 -6.05496e-07 0)
(0.000239699 -0.000874409 0)
(0.00120706 -6.79879e-05 0)
(0.00138733 -7.98643e-07 0)
(0.000442197 -0.000765948 0)
(9.70912e-05 -0.0010616 0)
(0.0012375 -2.02612e-05 0)
(0.0013056 -8.24933e-05 0)
(0.00145797 -1.46382e-06 0)
(0.00111004 -3.14778e-05 0)
(0.00135433 1.74386e-06 0)
(0.000755652 -0.000724392 0)
(3.5458e-05 -0.00110402 0)
(0.00136484 1.90316e-07 0)
(0.00133769 -6.77683e-06 0)
(0.0012674 -2.79641e-06 0)
(0.000383132 -0.000508684 0)
(3.87874e-05 -0.000984186 0)
(0.000791093 -0.000189685 0)
(0.00130576 -1.95187e-05 0)
(0.000773055 -0.000197808 0)
(0.00148527 -5.15858e-06 0)
(0.00148519 -5.91415e-06 0)
(0.000188503 -0.000894624 0)
(0.00104521 -4.99031e-05 0)
(0.00137004 -3.40466e-06 0)
(0.00139684 -4.44531e-05 0)
(0.000491412 -0.000703354 0)
(0.00138236 -1.88655e-05 0)
(0.00131015 -3.84555e-05 0)
(0.00128143 -6.93053e-05 0)