/*--------------------------------*- C++ -*----------------------------------*\
| =========                 |                                                 |
| \\      /  F ield         | OpenFOAM: The Open Source CFD Toolbox           |
|  \\    /   O peration     | Version:  v2012                                 |
|   \\  /    A nd           | Website:  www.openfoam.com                      |
|    \\/     M anipulation  |                                                 |
\*---------------------------------------------------------------------------*/
FoamFile
{
    version     2.0;
    format      ascii;
    class       volSymmTensorField;
    location    "18";
    object      sigma;
}
// * * * * * * * * * * * * * * * * * * * * * * * * * * * * * * * * * * * * * //

dimensions      [1 -1 -2 0 0 0 0];


internalField   nonuniform List<symmTensor> 
7666
(
(117046 -1.76863e+06 -1.75344e-10 -2.06509e+06 -3.147e-10 -385678)
(1.8867e+07 -8.17976e+06 4.88166e-09 6.07081e+06 7.26311e-11 7.87796e+06)
(-3.15081e+07 -1.72969e+07 6.22684e-09 9.79996e+06 3.32817e-09 1.26607e+07)
(2.43137e+07 -1.13151e+07 -7.33358e-09 4.12291e+06 -2.45305e-09 8.40299e+06)
(3.35867e+07 -1.14852e+07 -3.31362e-10 -3.27077e+06 3.58758e-10 9.31739e+06)
(5.73679e+07 -7.90118e+06 -3.95311e-09 -1.25643e+06 6.43288e-09 1.66696e+07)
(2.67967e+07 -1.47543e+06 1.35214e-08 5.59028e+06 5.40276e-09 9.69476e+06)
(2.7199e+07 -1.046e+07 -6.64045e-11 4.02402e+06 4.12536e-10 9.03782e+06)
(8.37468e+07 -1.32185e+06 -1.3407e-08 144338 -1.11969e-08 2.70079e+07)
(2.65385e+07 -2.99742e+06 -8.72358e-10 7.53241e+06 -2.15437e-10 1.01417e+07)
(1.34922e+07 -8.8848e+06 0 3.98084e+06 0 5.18663e+06)
(2.91355e+07 -4.33579e+06 -2.14748e-09 2.08323e+06 2.55408e-09 9.2489e+06)
(2.59885e+07 -1.05758e+07 -2.11417e-09 4.43358e+06 1.02085e-09 8.78579e+06)
(2.32958e+07 -8.74405e+06 -3.24048e-09 5.61335e+06 -3.75235e-10 8.76754e+06)
(2.67626e+07 -1.02493e+06 0 7.70314e+06 0 1.02353e+07)
(1.02222e+07 -2.45705e+06 2.4334e-08 -1.13856e+07 1.36734e-08 -132160)
(2.62205e+07 -1.05189e+07 9.26535e-09 4.21759e+06 2.7267e-10 9.39277e+06)
(6.63875e+07 -3.0867e+06 -2.47467e-09 -113831 -5.27859e-09 1.95495e+07)
(3.10389e+07 -6.66434e+06 5.92722e-09 2.00715e+06 1.64762e-09 9.85528e+06)
(2.22163e+07 -5.67366e+06 -2.10629e-09 7.10806e+06 3.36052e-10 8.96669e+06)
(1.59991e+07 -2.34849e+06 3.49375e-09 7.75908e+06 -2.03593e-10 7.14422e+06)
(4.13117e+07 -9.22326e+06 6.77646e-09 901470 -3.41773e-09 1.24893e+07)
(2.45776e+07 -8.96187e+06 -1.12839e-09 5.14365e+06 8.01451e-10 9.01943e+06)
(2.03032e+07 -1.15933e+07 4.90853e-09 3.53765e+06 7.23087e-10 7.07139e+06)
(4.94395e+07 -6.71804e+06 -6.72493e-09 -5.32423e+06 4.38104e-09 1.29085e+07)
(2.66441e+07 -1.30012e+06 -7.77607e-09 7.95787e+06 -2.57496e-09 1.04327e+07)
(4.94531e+07 -7.2037e+06 -1.17354e-08 -6.20572e+06 -2.21307e-11 1.31997e+07)
(6.32327e+06 -8.13566e+06 -1.54685e-09 -41302.8 9.99093e-10 1.71815e+06)
(2.5995e+07 -1.03757e+07 1.60639e-09 4.15814e+06 2.17454e-10 9.26964e+06)
(2.71804e+07 -522364 -5.31443e-10 496568 2.34728e-09 8.25957e+06)
(2.81441e+07 -639248 -5.47692e-10 108789 -9.31969e-11 8.42618e+06)
(6.44926e+07 -3.52955e+06 -1.47463e-08 31794.5 -7.34633e-09 1.95719e+07)
(-912582 -4.42219e+06 1.7403e-09 -9.24552e+06 -3.42903e-09 -2.89149e+06)
(2.73483e+07 -1.80241e+06 -1.06572e-08 2.00173e+06 -3.34071e-09 8.70268e+06)
(-4.44865e+06 -2.08209e+06 1.02417e-08 -1.97774e+07 6.13647e-09 -7.3689e+06)
(1.94841e+07 -6.20606e+06 2.68819e-09 7.08253e+06 1.0951e-10 7.82398e+06)
(1.90671e+07 -5.76677e+06 -3.8354e-09 7.25507e+06 1.21343e-10 7.91938e+06)
(2.81646e+07 -1.54712e+06 1.41065e-08 737936 7.7307e-09 8.55669e+06)
(5.66382e+07 -8.12035e+06 -3.39203e-08 -214762 -1.62396e-08 1.67228e+07)
(2.61146e+07 -4.03933e+06 3.04187e-09 6.94317e+06 5.49058e-10 9.99795e+06)
(7.04911e+06 -4.08983e+06 4.69644e-09 -1.64451e+07 1.48975e-08 -2.54695e+06)
(7.67316e+07 -8.12845e+06 -4.70695e-09 -910161 6.28547e-09 4.06761e+07)
(1.38071e+08 -1.87024e+06 -2.2585e-08 4.76568e+07 -1.00323e-08 6.36364e+07)
(1.0206e+07 -9.85554e+06 -1.3207e-08 27190.5 -2.69826e-09 3.16352e+06)
(1.11503e+08 1.96304e+07 3.03591e-09 1.72525e+07 3.67761e-10 3.87688e+07)
(2.67401e+07 -1.32941e+06 5.82659e-09 6.3979e+06 2.38608e-09 9.7937e+06)
(7.01475e+07 -5.61219e+06 -2.44793e-08 -218475 -2.08466e-08 2.04925e+07)
(7.24465e+06 -5.19191e+06 3.68877e-09 -1.44654e+07 1.7892e-09 -2.20336e+06)
(1.6641e+07 -9.38086e+06 -2.38269e-09 -9.13423e+06 -6.28841e-09 2.17827e+06)
(8.60727e+06 -2.47604e+06 -1.81514e-09 5.61454e+06 5.21461e-10 4.56647e+06)
(5.86089e+06 -7.52665e+06 4.07076e-09 -798259 3.35512e-10 1.41669e+06)
(4.14882e+07 -5.26659e+06 -1.41654e-09 564386 -2.70826e-09 1.23394e+07)
(2.67474e+07 -888114 -6.54842e-10 4.58814e+06 -2.66548e-10 9.54669e+06)
(8.35583e+07 -1.3867e+06 -1.59553e-08 374401 -1.29965e-08 2.60981e+07)
(1.31667e+07 -1.15622e+06 1.23417e-09 7.38015e+06 -2.67764e-10 6.33454e+06)
(8.96717e+06 -1.3199e+06 -9.37198e-10 -1.13828e+07 6.92526e-09 -704288)
(8.9844e+06 -3.30306e+06 2.07652e-09 5.5519e+06 -3.57029e-10 4.51473e+06)
(9.36688e+06 -2.74594e+06 -8.51858e-10 5.68873e+06 5.40123e-11 4.26612e+06)
(3.57184e+07 -6.47534e+06 1.95398e-08 -1.10408e+07 6.68746e-09 7.38311e+06)
(5.94545e+07 -8.00574e+06 -1.3998e-09 -1.40161e+06 -4.95849e-09 1.73691e+07)
(1.23622e+07 -5.20988e+06 -2.08482e-09 6.26476e+06 3.26993e-11 5.77207e+06)
(2.78088e+07 -1.22371e+06 -3.68016e-09 691325 2.12731e-09 8.6506e+06)
(2.40076e+07 -1.0224e+07 1.54043e-09 4.78864e+06 1.09964e-09 8.69297e+06)
(2.45336e+07 -1.02224e+07 1.2774e-09 4.73073e+06 -7.15335e-10 8.58285e+06)
(8.70353e+06 -4.32846e+06 -1.82492e-09 4.78365e+06 -1.83518e-10 3.94827e+06)
(1.8437e+07 -1.02917e+07 -1.00206e-08 -7.02881e+06 -3.84196e-09 3.36105e+06)
(2.53843e+07 -3.12931e+06 -7.89814e-09 8.79881e+06 -8.45646e-10 1.00822e+07)
(8.73505e+06 -3.87103e+06 -1.22653e-09 5.17941e+06 1.51454e-10 4.35586e+06)
(2.0927e+07 -6.15514e+06 -1.59784e-08 -1.23885e+07 -1.03375e-08 2.31658e+06)
(3.66356e+07 -7.07519e+06 0 -1.00141e+07 0 8.13401e+06)
(2.18767e+07 -6.16051e+06 1.21348e-08 -1.21154e+07 -2.24389e-09 2.9812e+06)
(2.66206e+07 -601054 -1.65551e-09 1.2665e+07 6.07298e-10 1.18823e+07)
(2.6469e+07 -607245 -6.39055e-09 1.27661e+07 -3.98896e-10 1.17368e+07)
(2.68987e+07 -297637 -5.00042e-10 390789 -6.24326e-10 8.18711e+06)
(2.69598e+07 -324476 -4.30907e-10 338979 -5.67038e-10 8.18836e+06)
(2.67196e+07 -142853 5.89292e-11 5.10252e+06 -7.2296e-11 9.53212e+06)
(7.51484e+07 1.6132e+07 2.46108e-08 1.15798e+07 2.88546e-08 2.73887e+07)
(2.25531e+07 -9.23909e+06 -7.56025e-09 5.4593e+06 1.75351e-10 8.60279e+06)
(2.32404e+07 -9.28394e+06 0 5.29522e+06 0 8.42744e+06)
(1.32504e+07 -5.66054e+06 1.78764e-09 6.32083e+06 -7.45631e-11 5.69782e+06)
(2.69909e+07 -3.34882e+06 -4.63852e-09 4.58489e+06 -8.48524e-10 9.56712e+06)
(2.64037e+07 -1.56962e+06 5.48127e-09 1.07715e+07 9.08541e-10 1.11695e+07)
(1.48009e+07 -1.17179e+07 2.47729e-09 -1.69987e+06 7.05411e-10 3.79944e+06)
(1.31055e+08 7.64823e+06 2.0366e-08 4.36966e+07 1.35919e-08 5.98487e+07)
(3.06964e+07 -3.51316e+06 -5.873e-09 945171 8.39693e-10 9.2261e+06)
(3.86867e+07 -1.5226e+06 5.44686e-09 -168614 -2.7602e-09 1.18541e+07)
(3.89723e+07 -1.76501e+06 -4.27065e-09 185321 -7.42356e-09 1.13552e+07)
(4.26953e+07 -7.1769e+06 -1.21828e-08 581452 -1.63047e-09 1.3232e+07)
(1.37469e+07 -8.13781e+06 1.42765e-08 -1.05031e+07 2.53093e-09 772069)
(2.77806e+07 -891381 -3.27624e-09 372273 6.46193e-11 8.42192e+06)
(2.64831e+07 -6.81455e+06 -8.63548e-10 5.00494e+06 -1.41847e-10 9.4509e+06)
(2.65075e+07 -6.68824e+06 7.52664e-10 5.04751e+06 -1.49061e-09 9.49383e+06)
(4.31331e+07 -245891 -1.37733e-08 215630 -1.02582e-09 1.28649e+07)
(3.66997e+07 -8.91332e+06 -4.93782e-08 -1.65922e+07 -5.24453e-08 5.95951e+06)
(9.10512e+07 -90018.2 2.57259e-08 124871 9.19139e-09 2.74896e+07)
(1.58027e+07 -5.29227e+06 -1.202e-08 -1.25471e+07 -1.17917e-08 971616)
(-5.50797e+06 -29929.5 -2.86364e-09 -2.83234e+07 -4.77959e-09 -1.07761e+07)
(-4.80992e+07 -1.43247e+07 2.45276e-08 7.92962e+06 -3.87502e-09 1.675e+07)
(3.10894e+07 -6.4064e+06 5.96467e-09 1.91875e+06 1.29345e-09 9.91245e+06)
(2.23172e+07 -5.38174e+06 -3.90905e-09 7.3146e+06 -5.87096e-10 8.78442e+06)
(4.36788e+07 -855209 3.75796e-09 62737 -5.04806e-09 1.30119e+07)
(2.71902e+07 -447744 -4.46859e-09 366340 -7.51716e-10 8.21298e+06)
(1.62792e+06 -6.41467e+06 6.83274e-10 -5.32363e+06 -1.26185e-09 -1.03785e+06)
(4.13141e+07 -2.46106e+07 3.07022e-08 -1.1487e+07 -1.5478e-08 2.05193e+07)
(3.19035e+06 -6.4322e+06 -1.31092e-08 -1.13476e+07 -3.45529e-09 -2.31649e+06)
(5.48445e+07 -8.52351e+06 4.75919e-09 -374544 1.76787e-09 1.63171e+07)
(1.06099e+08 2.19245e+06 -4.70481e-08 1.11466e+07 -3.40423e-08 4.74142e+07)
(3.96204e+07 -1.23889e+07 -4.19501e-09 -1.10491e+06 -1.22332e-09 1.16667e+07)
(2.6727e+07 -1.39454e+06 4.48124e-09 5.63441e+06 1.784e-09 9.73058e+06)
(4.20848e+07 -4.00064e+06 -3.42877e-09 367155 4.20893e-09 1.23184e+07)
(2.16999e+07 -1.01282e+07 5.65823e-09 5.01794e+06 1.41018e-09 7.94274e+06)
(3.52886e+07 -1.28429e+07 2.64481e-09 140040 6.32646e-10 1.04707e+07)
(1.6425e+07 -9.18791e+06 1.56917e-09 5.19552e+06 -7.34059e-11 6.58991e+06)
(1.26686e+07 -4.9703e+06 1.57464e-09 6.46259e+06 -3.75083e-10 5.44736e+06)
(1.17306e+07 -8.49572e+06 6.91515e-09 3.79717e+06 7.33065e-10 4.48511e+06)
(3.93832e+07 -1.0837e+07 -1.15516e-08 -3.19146e+06 -8.17735e-09 1.06679e+07)
(7.77192e+06 -7.83133e+06 -2.42075e-09 1.13283e+06 2.54049e-10 2.63178e+06)
(-4.52208e+06 349634 -2.71036e-10 -2.81844e+07 -2.91706e-10 -9.47784e+06)
(2.87011e+07 -2.15462e+06 6.88686e-10 889663 -2.10057e-11 8.88558e+06)
(2.88668e+07 -2.33359e+06 9.99159e-10 919076 1.86024e-09 8.91925e+06)
(7.21949e+07 -4.75578e+06 4.55851e-09 -30426.4 3.69612e-09 2.23511e+07)
(2.67694e+07 -209860 -6.8681e-09 428349 -3.47818e-09 8.21746e+06)
(2.81685e+07 -4.78166e+06 -2.25196e-10 3.07255e+06 -2.45233e-09 9.48703e+06)
(2.66569e+07 -1.78495e+06 7.32588e-09 8.01624e+06 2.49816e-09 1.04369e+07)
(1.96646e+07 -1.16143e+07 -1.0726e-09 3.5597e+06 -1.51807e-10 7.05787e+06)
(8.73474e+06 -251783 -9.716e-10 5.65681e+06 2.33733e-10 4.30826e+06)
(3.97153e+07 -1.21391e+07 6.51162e-09 -646575 4.20616e-09 1.1413e+07)
(3.4501e+07 -1.27379e+07 -8.27193e-09 1.15964e+06 -2.31986e-09 1.09148e+07)
(2.325e+07 -1.28928e+07 -1.40964e-08 1.6573e+06 -2.13644e-09 7.3489e+06)
(2.68777e+07 -8.34883e+06 0 4.41073e+06 0 9.4354e+06)
(8.84164e+06 -1.13283e+06 -4.46952e-09 -1.03241e+07 -1.55207e-08 -1.81437e+06)
(3.42662e+07 -4.81568e+06 1.79539e-10 576681 2.14366e-09 1.06296e+07)
(1.98684e+07 -3.55267e+06 -6.8845e-10 7.91962e+06 1.48472e-10 8.23152e+06)
(7.11403e+07 6.79632e+06 -1.73898e-08 1.4911e+07 -1.01344e-08 2.64671e+07)
(2.8268e+07 -4.65915e+06 -2.34771e-09 3.04627e+06 -2.89516e-10 9.32527e+06)
(5.44263e+07 -7.46555e+06 -6.11502e-09 17072.2 -1.84791e-09 1.6453e+07)
(2.68949e+07 -3.25847e+06 -1.59796e-09 4.86195e+06 -8.83475e-10 9.52502e+06)
(2.64156e+07 -3.95342e+06 4.04005e-09 6.66907e+06 8.85963e-10 9.94431e+06)
(2.49343e+07 -7.61797e+06 5.98926e-09 5.63435e+06 8.33437e-10 9.09568e+06)
(2.00185e+07 -1.11937e+07 -2.06712e-09 4.22523e+06 1.09416e-11 7.08931e+06)
(2.33769e+07 -1.29199e+07 -8.33006e-09 1.70698e+06 -1.86688e-09 7.75002e+06)
(2.64597e+07 -1.26462e+06 3.81382e-09 1.11191e+07 6.33774e-10 1.13209e+07)
(2.46548e+07 -841194 2.26416e-09 9.73449e+06 -2.53057e-11 1.02922e+07)
(2.48249e+07 -673164 3.07794e-09 9.84416e+06 1.06236e-10 1.04848e+07)
(2.51721e+07 -3.29653e+06 3.76639e-09 8.54047e+06 7.10494e-10 1.02451e+07)
(2.49733e+07 -5.64369e+06 3.93676e-09 6.7296e+06 1.40553e-09 9.48518e+06)
(2.66905e+07 -1.83959e+06 -4.66156e-09 6.01254e+06 -1.6843e-09 9.73843e+06)
(2.66401e+07 -1.07334e+06 1.01733e-09 1.14758e+07 -2.77273e-10 1.12858e+07)
(1.18498e+06 -3.05202e+06 6.17952e-10 -2.29769e+06 5.22364e-10 -520231)
(2.91899e+07 -8.89806e+06 -5.95157e-10 3.466e+06 1.71356e-09 9.55688e+06)
(2.65853e+07 -2.86605e+06 -9.43435e-09 7.42445e+06 -2.04672e-09 1.03092e+07)
(1.23116e+07 -6.87507e+06 8.57176e-09 -1.23852e+07 -4.73332e-09 108458)
(1.30072e+07 -5.99586e+06 -2.91446e-09 6.16486e+06 3.64576e-11 6.0651e+06)
(5.71046e+06 -5.38633e+06 4.11386e-09 -1.47334e+07 1.37571e-08 -2.92753e+06)
(2.32973e+07 -3.42175e+06 -3.53636e-09 8.24538e+06 -1.27695e-10 9.54656e+06)
(2.35496e+07 -3.13002e+06 1.90942e-09 8.35867e+06 -2.60814e-10 9.54275e+06)
(7.53278e+06 -5.16329e+06 -6.07345e-09 -1.50094e+07 -6.75912e-09 -1.96065e+06)
(2.52388e+07 -1.31772e+07 -8.64555e-10 759408 -1.0589e-09 8.17499e+06)
(2.21709e+07 -1.20246e+07 -3.19649e-09 3.48738e+06 -6.44668e-10 7.76548e+06)
(2.68842e+07 -1.48076e+06 -5.5445e-09 2.71764e+06 -2.26354e-09 9.02745e+06)
(5.10696e+07 -1.64588e+07 -2.84826e-10 -2.02829e+07 -1.09449e-09 1.75749e+07)
(7.0001e+07 888358 0 -429777 0 2.04836e+07)
(4.0296e+07 -9.83023e+06 -4.57457e-09 850811 -8.4726e-10 1.25235e+07)
(1.00378e+08 2.91074e+06 3.28816e-09 1.46469e+07 -3.6952e-09 4.77017e+07)
(3.34979e+07 -2.65211e+07 -4.49341e-08 -4.67898e+06 -4.32723e-08 9.70007e+06)
(3.06637e+07 -3.00683e+07 -5.12274e-09 -6.53433e+06 -3.64262e-08 1.28123e+07)
(2.25729e+07 -1.19379e+07 9.18374e-09 3.4866e+06 1.28806e-09 7.8556e+06)
(8.00204e+06 -2.85624e+06 -2.88428e-09 4.95642e+06 2.20773e-10 4.08194e+06)
(8.90163e+06 -3.49375e+06 1.05184e-10 5.32682e+06 -3.1679e-10 3.95269e+06)
(5.8339e+07 -1.34513e+07 3.5837e-08 -1.91011e+07 3.80762e-08 1.64968e+07)
(1.78583e+07 -8.72109e+06 0 5.75786e+06 0 7.20265e+06)
(1.11875e+07 -8.39091e+06 -2.37626e-09 3.65214e+06 -5.84061e-10 4.58302e+06)
(3.75506e+07 -8.97768e+06 6.65896e-09 1.5279e+06 -4.30726e-10 1.15892e+07)
(3.52951e+07 -3.90708e+06 1.23897e-09 559748 4.33279e-09 1.05381e+07)
(1.1647e+07 -5.62982e+06 2.90015e-08 -1.34065e+07 8.99132e-09 -494490)
(1.30021e+07 -1.49592e+06 -2.3554e-09 7.20577e+06 1.29455e-10 6.01736e+06)
(3.78326e+07 -1.22623e+07 -5.13628e-09 482649 -4.97472e-10 1.14565e+07)
(8.97448e+07 102766 7.81892e-09 593642 1.06469e-08 2.69669e+07)
(2.97176e+07 -1.46291e+06 4.08261e-09 194076 -3.78801e-10 8.9173e+06)
(2.45012e+07 -1.12584e+07 -7.55236e-09 4.07422e+06 -2.37744e-09 8.65373e+06)
(3.88472e+07 -1.04489e+07 4.86354e-09 1.37492e+06 -9.58596e-10 1.19301e+07)
(-6.13954e+06 664839 4.17942e-09 -3.41784e+07 1.25501e-08 -1.25095e+07)
(3.6428e+07 -7.73401e+06 -4.99665e-09 1.21233e+06 1.87764e-09 1.13135e+07)
(-5.29841e+06 675299 7.97171e-09 -2.8411e+07 1.42483e-08 -9.6118e+06)
(1.83649e+07 -1.0281e+07 1.10109e-08 -7.29003e+06 7.2841e-09 3.22133e+06)
(1.76967e+07 -5.08118e+06 -1.70352e-08 -1.25888e+07 -4.52366e-09 1.42253e+06)
(2.63395e+07 -338593 -4.46098e-09 1.26198e+07 3.01902e-10 1.16515e+07)
(2.67359e+07 -65395.9 -4.15339e-09 43343 -2.01562e-09 8.03298e+06)
(3.63144e+07 -6.73276e+06 1.56078e-08 -9.92222e+06 4.32357e-09 7.77983e+06)
(2.72614e+07 -2.42465e+06 2.09184e-09 2.95946e+06 2.36685e-09 8.98021e+06)
(1.828e+07 -8.92413e+06 0 5.71019e+06 0 7.22668e+06)
(2.60335e+07 -5.30094e+06 -9.47391e-10 6.34149e+06 9.5356e-10 9.57163e+06)
(2.58087e+07 -5.33618e+06 2.58517e-09 6.33892e+06 -2.79055e-10 9.79777e+06)
(2.48667e+07 -7.22337e+06 -7.33285e-09 5.94596e+06 -1.14979e-09 9.06362e+06)
(3.62453e+07 -1.21671e+07 -1.16253e-08 -1.41242e+06 -3.84564e-09 9.88823e+06)
(7.50545e+07 3.08289e+06 -4.87978e-08 -8.61541e+06 -4.30634e-08 2.02771e+07)
(2.10528e+07 -8.90474e+06 -3.30784e-09 5.75329e+06 4.60862e-10 8.08167e+06)
(2.67287e+07 -582419 0 4.73496e+06 0 9.44111e+06)
(2.67954e+07 -1.70864e+06 3.5144e-09 6.05909e+06 1.34475e-09 9.92883e+06)
(-5.01137e+06 1.05182e+07 -2.2792e-09 -4.47061e+07 -2.26289e-09 -1.48824e+07)
(3.90091e+07 -1.25605e+07 8.24006e-09 517084 2.99209e-09 1.16721e+07)
(7.68208e+06 -7.90182e+06 0 960809 0 2.56536e+06)
(2.95143e+07 -1.5655e+06 0 265096 0 8.95575e+06)
(5.55999e+07 -7.78242e+06 2.61082e-09 75469.9 2.05213e-09 1.67175e+07)
(1.99755e+07 -2.47131e+06 0 8.15697e+06 0 8.29475e+06)
(7.41845e+07 -405412 1.55992e-09 -1.4932e+07 -8.0202e-09 2.5878e+07)
(2.40395e+07 -3.87371e+06 8.39749e-11 8.03311e+06 1.01031e-10 9.79255e+06)
(1.70145e+06 -2.0243e+06 -6.18776e-09 -1.90518e+07 1.74492e-08 -4.8494e+06)
(8.07983e+06 -7.45134e+06 -3.14613e-09 2.49774e+06 -1.17275e-10 3.16726e+06)
(-3.48249e+06 -2.26706e+06 -9.46853e-09 -1.95224e+07 -4.63302e-09 -6.60346e+06)
(5.9337e+07 -3.57993e+06 3.47042e-08 -9.86989e+06 1.31544e-08 1.52438e+07)
(8.3613e+06 -6.99252e+06 1.09171e-09 2.84436e+06 7.79224e-10 3.30823e+06)
(2.453e+07 -728467 2.34927e-09 9.53683e+06 4.4909e-10 1.02674e+07)
(2.61585e+07 -1.77916e+06 1.71992e-09 1.05178e+07 1.70041e-10 1.0987e+07)
(2.64731e+07 -1.17304e+06 3.17479e-09 1.15231e+07 4.4438e-10 1.13356e+07)
(1.17512e+07 -7.32655e+06 -2.02093e-09 4.73696e+06 7.83326e-11 5.12299e+06)
(2.07543e+07 -9.81636e+06 -8.03782e-09 5.17847e+06 -1.5043e-09 7.89138e+06)
(6.64829e+07 -6.26018e+06 1.44907e-08 -36362.1 1.82585e-08 2.02602e+07)
(1.19027e+07 -6.877e+06 4.98418e-09 5.17707e+06 -3.50386e-10 4.6339e+06)
(4.69175e+07 -1.93471e+06 -4.23778e-09 -95657.6 -3.50286e-09 1.36872e+07)
(9.0875e+07 1.46177e+07 -2.43265e-08 -6.11786e+06 -5.91188e-09 3.21923e+07)
(7.51883e+07 -8.58264e+06 -2.67294e-08 -1.05324e+07 -2.51909e-08 3.3935e+07)
(2.78416e+07 -475005 -6.95652e-09 54574.9 -2.65649e-09 8.4471e+06)
(2.49281e+07 -506526 -3.09307e-09 9.95614e+06 -4.86038e-11 1.03831e+07)
(3.63395e+07 -4.85437e+06 -2.03125e-08 600458 -1.40412e-09 1.11274e+07)
(2.86526e+07 -1.32221e+07 -1.06701e-08 1.63033e+06 -2.37592e-09 8.74689e+06)
(9.74962e+07 1.43817e+07 4.71983e-08 1.54464e+06 4.17837e-08 3.91104e+07)
(7.73295e+07 1.37299e+07 8.43777e-09 1.69961e+07 6.30124e-09 2.80572e+07)
(1.63053e+07 -460026 3.15401e-09 7.92179e+06 -2.62149e-10 7.1882e+06)
(2.39043e+07 -1.18456e+07 1.85955e-09 3.56812e+06 6.74653e-10 8.18095e+06)
(2.33109e+07 -1.19031e+07 3.13924e-09 3.70329e+06 1.49909e-10 8.06245e+06)
(2.75299e+07 -2.54066e+06 2.50046e-09 2.3127e+06 2.9587e-09 9.05129e+06)
(1.2107e+07 -8.06572e+06 1.19965e-08 -1.05409e+07 7.72988e-09 591684)
(1.25227e+07 -3.93699e+06 -6.37381e-09 -1.34973e+07 -1.35255e-08 -213308)
(2.65022e+07 -155972 4.61846e-09 1.32205e+07 -4.34218e-10 1.18433e+07)
(2.66339e+07 -8827.66 3.37403e-09 8931.53 2.33967e-09 8.01307e+06)
(1.12758e+08 2.1873e+07 1.51639e-08 1.81016e+07 1.44344e-08 3.85612e+07)
(4.14007e+07 -4.96519e+06 0 470437 0 1.26834e+07)
(-5.57393e+06 1.35793e+06 -1.31636e-08 -2.89271e+07 -1.73209e-08 -1.02452e+07)
(2.74117e+07 -1.87991e+06 4.61633e-09 1.87277e+06 -5.24647e-10 8.87101e+06)
(2.44332e+07 -2.03012e+06 -3.42276e-10 9.09903e+06 1.41039e-10 1.00294e+07)
(3.3572e+07 -1.05827e+07 1.28176e-08 2.13514e+06 6.25393e-09 1.05739e+07)
(2.3267e+07 -1.04685e+07 1.18498e-08 4.74638e+06 6.41834e-10 8.55726e+06)
(7.97776e+06 -5.48128e+06 -3.42085e-09 3.93019e+06 -9.09187e-11 3.81321e+06)
(1.71616e+07 -9.43864e+06 1.89217e-09 5.16149e+06 -1.08114e-10 6.52433e+06)
(1.61611e+07 -8.17885e+06 3.29395e-09 5.83609e+06 -1.27921e-10 6.69479e+06)
(-4.21451e+06 5.94937e+06 -1.65027e-10 -4.83665e+07 -5.21056e-10 -1.59518e+07)
(1.63746e+07 -9.00755e+06 5.15485e-09 5.25668e+06 2.49127e-10 6.40995e+06)
(4.36351e+07 -1.98889e+07 8.49531e-09 -1.80203e+07 2.12286e-08 8.7291e+06)
(3.79093e+07 -1.24643e+07 -1.15775e-08 -22105.9 -4.04998e-09 1.11336e+07)
(3.65759e+07 -1.29961e+07 -1.17517e-08 -266005 -4.06114e-09 1.12433e+07)
(1.39436e+07 -6.71648e+06 -2.90005e-09 6.17413e+06 2.54523e-10 6.06833e+06)
(3.95389e+07 -1.10983e+07 -1.35632e-10 -3.06388e+06 5.32879e-10 1.10482e+07)
(3.47628e+07 -4.16825e+06 -1.41897e-08 316893 -5.57189e-09 1.08222e+07)
(2.62414e+07 -332566 6.96043e-09 1.18622e+07 4.4629e-10 1.14545e+07)
(2.68114e+07 -80864.3 -1.06756e-09 69413.7 -4.49584e-10 8.06893e+06)
(7.55542e+07 9.68885e+06 -1.47239e-08 1.77674e+07 -1.01186e-08 2.79164e+07)
(4.09326e+07 -8.63749e+06 -1.19128e-08 708340 -7.43369e-10 1.29924e+07)
(3.66021e+07 -1.26256e+07 -3.76204e-09 -1.32214e+06 4.73684e-10 1.11256e+07)
(-2.23295e+06 2.43764e+06 9.94678e-09 -2.46706e+07 4.62164e-09 -9.31057e+06)
(1.82258e+07 -1.21021e+07 -6.71117e-09 -3.33434e+06 -5.87748e-10 4.70812e+06)
(4.52396e+07 -8.22194e+06 1.48432e-08 -5.08408e+06 4.82891e-09 1.20732e+07)
(5.50381e+07 -9.02941e+06 -1.6965e-08 -185820 -7.66459e-09 1.65871e+07)
(4.29594e+07 -7.45377e+06 8.46453e-09 514101 7.76862e-09 1.28879e+07)
(2.6653e+07 -2.03434e+06 2.7875e-09 7.17372e+06 9.77661e-10 1.02936e+07)
(-4.25788e+06 3.49656e+06 4.17225e-09 -4.88221e+07 2.01253e-09 -1.60617e+07)
(2.15617e+07 -1.04058e+07 4.89033e-09 4.87451e+06 -1.79588e-11 7.9991e+06)
(5.17484e+07 -9.62158e+06 -1.12481e-09 -924311 -1.63672e-09 1.48178e+07)
(1.31195e+08 -2.42123e+06 -9.79255e-09 4.93425e+07 -9.1714e-09 8.26734e+07)
(-2.61271e+06 -1.71179e+06 3.33234e-09 -9.36826e+06 2.57726e-09 -3.64684e+06)
(2.6734e+07 -536937 -3.64651e-09 5.33982e+06 -1.78801e-09 9.70674e+06)
(2.68069e+07 -1.30576e+06 -8.29752e-10 6.42962e+06 -4.3432e-10 1.00224e+07)
(2.77055e+07 -2.5743e+06 -4.97738e-09 2.02642e+06 -1.50833e-09 9.04928e+06)
(4.09543e+07 -4.43057e+06 -2.16663e-09 443973 -2.57921e-09 1.2709e+07)
(-3.42182e+06 -2.17744e+06 0 -9.51587e+06 0 -3.8869e+06)
(1.63614e+07 -8.7199e+06 7.41617e-09 5.52864e+06 5.05615e-10 6.72181e+06)
(8.39109e+07 2.2679e+07 1.97626e-08 3.00842e+06 1.60051e-08 2.69607e+07)
(7.44586e+07 1.90977e+07 1.3116e-08 -4.51487e+06 4.43363e-08 2.23674e+07)
(2.67082e+07 -1.3138e+07 4.34589e-09 128236 1.55765e-10 7.92936e+06)
(2.70555e+07 -1.33743e+07 3.64441e-09 449120 -7.74554e-11 8.47426e+06)
(2.67386e+07 -1.07553e+06 -5.30521e-09 4.55015e+06 -2.27131e-09 9.29473e+06)
(5.7176e+07 -4.42868e+06 5.50227e-09 45259 6.75799e-09 1.67362e+07)
(1.75093e+07 -1.06802e+07 -1.61336e-08 3.93566e+06 -1.98478e-09 6.6757e+06)
(2.73915e+07 -1.1362e+06 1.84185e-09 842890 2.69235e-09 8.58346e+06)
(7.04092e+06 -9.09929e+06 4.36684e-09 -3.18515e+06 5.4656e-09 1.16735e+06)
(5.23446e+06 -7.2647e+06 3.9333e-09 -1.0212e+07 2.22087e-09 -1.77844e+06)
(4.16e+07 -8.95987e+06 7.49539e-09 724587 -1.3636e-09 1.23051e+07)
(2.82492e+07 -6.99267e+06 1.3534e-08 -1.1703e+07 1.16054e-08 4.87172e+06)
(4.20224e+06 -7.72353e+06 8.67219e-09 -1.05099e+07 5.6638e-09 -1.60168e+06)
(2.60856e+07 -1.85939e+06 -2.78462e-11 1.03836e+07 -5.71195e-11 1.08631e+07)
(2.58612e+07 -1.98838e+06 -5.82243e-09 9.97992e+06 -7.0234e-10 1.06078e+07)
(5.36208e+07 -7.38813e+06 5.8162e-08 -2.30848e+07 6.05555e-08 1.02335e+07)
(6.69327e+07 -5.67956e+06 8.39698e-09 -1.25516e+06 3.2574e-10 1.93512e+07)
(1.02056e+07 -1.02112e+07 9.00497e-10 -374644 1.55395e-09 2.80322e+06)
(2.13713e+07 -1.01191e+07 -7.76835e-09 5.18889e+06 -1.37874e-09 7.82491e+06)
(4.28114e+07 -1.81229e+07 -1.59783e-08 -1.82356e+07 1.10297e-09 7.59211e+06)
(2.5927e+07 -1.69095e+06 1.45159e-09 1.05592e+07 1.44476e-10 1.09287e+07)
(4.27227e+06 -4.10361e+06 5.53429e-09 1.13197e+06 8.6485e-11 1.37648e+06)
(4.29437e+06 -4.32168e+06 0 1.99026e+06 0 2.10408e+06)
(3.147e+07 -5.44426e+06 -3.66985e-09 1.3244e+06 -3.40056e-09 9.91239e+06)
(2.21517e+07 -4.41592e+06 -6.4884e-09 7.78771e+06 -3.98507e-10 8.96328e+06)
(1.63957e+07 -8.02577e+06 1.26678e-09 5.96225e+06 -1.01463e-10 6.76217e+06)
(2.47079e+07 -5.59221e+06 3.0865e-10 6.82203e+06 1.11212e-10 9.53178e+06)
(2.67242e+07 -147700 -9.67341e-10 1.39767e+07 4.96602e-10 1.21679e+07)
(2.67592e+07 23468.1 -1.25535e-09 19869.1 -2.2455e-09 8.03621e+06)
(1.02317e+07 -6.68363e+06 5.90983e-09 4.5998e+06 3.75948e-10 4.276e+06)
(1.65703e+07 -120382 3.75675e-10 8.03737e+06 -1.37977e-10 7.34376e+06)
(1.12249e+07 -4.87476e+06 -2.15646e-09 -1.43048e+07 -1.02782e-08 -1.15813e+06)
(1.97748e+07 -1.22497e+07 3.71038e-09 1.93791e+06 2.53798e-10 6.44115e+06)
(1.31524e+07 -3.98569e+06 2.60652e-10 6.9142e+06 -7.30491e-12 6.25478e+06)
(634539 -5.19556e+06 -2.82943e-09 -5.62776e+06 3.1647e-10 -1.59293e+06)
(8.04958e+06 -2.71257e+06 -1.45896e-09 5.08105e+06 6.24727e-11 3.84318e+06)
(6.24309e+06 -3.14977e+06 1.4932e-09 3.36005e+06 1.25727e-11 2.7827e+06)
(5.35223e+06 -2.77512e+06 1.57648e-09 3.38664e+06 3.60181e-11 2.87039e+06)
(1.62959e+07 -7.42644e+06 3.54674e-09 6.24254e+06 4.18288e-12 6.65004e+06)
(3.19377e+07 -4.97435e+06 8.86666e-09 1.21493e+06 3.96291e-09 9.63696e+06)
(2.18458e+07 -3.96772e+06 3.24319e-09 7.81143e+06 1.72315e-10 9.18131e+06)
(1.30145e+07 -1.09547e+07 -5.09543e-09 -1.5304e+06 -4.47336e-11 3.45633e+06)
(3.16304e+07 -5.61628e+06 1.02127e-08 1.4071e+06 -1.51243e-09 9.89181e+06)
(2.20567e+07 -4.55025e+06 -2.70628e-09 7.67705e+06 -6.91537e-10 8.89035e+06)
(2.80273e+07 -1.25036e+07 6.68916e-09 2.5854e+06 1.82763e-09 9.36543e+06)
(2.92965e+07 -1.26121e+07 2.86952e-08 2.3838e+06 6.69239e-09 9.26556e+06)
(9.11614e+07 870245 -2.05975e-08 -619261 -1.93974e-08 2.651e+07)
(3.23754e+07 -8.1251e+06 -3.53376e-09 2.00609e+06 1.01209e-09 1.04085e+07)
(2.68808e+07 -1.42485e+06 -2.23029e-09 2.92935e+06 -1.44435e-09 8.82643e+06)
(1.61383e+07 -7.73936e+06 -2.14067e-09 5.97952e+06 1.52178e-11 6.73841e+06)
(5.16132e+06 -178888 -1.73544e-12 3.50855e+06 -1.91662e-10 2.65972e+06)
(2.90342e+07 -4.03575e+06 -4.96737e-09 1.86276e+06 -8.80714e-10 9.37984e+06)
(9.57411e+06 -4.51238e+06 -3.49374e-09 5.26361e+06 -1.03795e-10 4.48548e+06)
(8.73456e+06 -9.66138e+06 5.96747e-09 -2.94778e+06 2.34363e-09 1.30821e+06)
(7.35273e+06 -9.23044e+06 9.42343e-11 -3.38669e+06 -1.29722e-09 1.44596e+06)
(4.01783e+07 -9.36998e+06 -8.37735e-09 787630 -9.04501e-10 1.24062e+07)
(-4.77843e+07 -1.07217e+07 3.84143e-08 7.71033e+06 -3.41652e-08 2.673e+07)
(2.71379e+07 -2.18997e+06 6.27744e-09 2.77848e+06 1.69222e-09 9.02356e+06)
(8.34038e+07 -1.88068e+06 2.18217e-09 207614 1.26856e-09 2.40785e+07)
(8.36351e+07 -2.40681e+06 -2.17647e-10 -80070.8 1.56943e-10 2.52426e+07)
(3.01002e+07 -9.09691e+06 -7.31312e-09 -6.74464e+06 5.23194e-09 6.71469e+06)
(2.94251e+06 -6.78713e+06 6.63823e-09 -3.44607e+06 3.20413e-09 -220870)
(2.64848e+07 -233815 3.009e-10 1.25417e+07 1.1296e-10 1.16678e+07)
(2.68328e+07 -18645.4 1.64432e-09 36046.3 -3.45966e-09 8.08123e+06)
(1.29949e+07 -1.06312e+07 -8.04858e-12 1.82154e+06 -5.31388e-11 4.46293e+06)
(2.09292e+07 -6.75658e+06 -9.99539e-10 -1.05598e+07 1.33868e-09 3.1193e+06)
(3.07648e+06 -6.1044e+06 -7.82221e-09 -2.69606e+06 -2.28298e-09 103056)
(-2.37927e+06 6.65623e+06 2.09105e-08 -1.59521e+07 1.41115e-08 -4.61452e+06)
(3.77433e+07 -9.43905e+06 1.42958e-08 1.43742e+06 4.10968e-09 1.16764e+07)
(3.2523e+07 -4.79489e+06 3.14372e-09 969089 -4.12629e-09 1.0187e+07)
(2.13307e+07 -3.71233e+06 0 7.84447e+06 0 8.66289e+06)
(3.10187e+07 -1.02182e+07 -2.13728e-08 -6.53893e+06 -2.35771e-09 7.78109e+06)
(-2.78923e+06 -3.35014e+06 -9.09955e-09 -1.70049e+07 1.62064e-10 -6.15447e+06)
(2.66382e+07 -367435 -2.54754e-09 1.3584e+07 -4.09087e-10 1.20666e+07)
(2.68e+07 -30724.4 8.38978e-09 94500.8 1.37694e-09 8.069e+06)
(8.60384e+07 2.00626e+07 4.48038e-08 -6.4879e+06 4.90232e-08 2.27534e+07)
(2.79842e+07 -6.37991e+06 2.69298e-08 -1.07678e+07 1.18584e-08 4.98732e+06)
(1.59364e+07 -1.97285e+06 -6.41055e-10 7.61748e+06 1.85517e-10 7.19393e+06)
(3.57768e+07 -7.03155e+06 -1.77203e-08 -1.13062e+07 -8.49199e-09 7.56684e+06)
(9.27241e+07 2.37176e+07 -2.84867e-08 6.98179e+06 -2.77806e-08 3.02033e+07)
(2.13031e+07 -1.18742e+07 3.38267e-09 3.31683e+06 5.38828e-10 7.27448e+06)
(2.42497e+07 -2.26037e+06 -2.0685e-09 9.00253e+06 -5.09029e-10 9.96691e+06)
(5.12786e+07 -1.00201e+07 -1.22382e-08 -992040 -5.77181e-09 1.57116e+07)
(-5.41919e+06 521906 -2.17596e-09 -3.47812e+07 -6.68641e-09 -1.19884e+07)
(3.03495e+07 -8.44967e+06 4.43341e-09 2.71499e+06 -3.23532e-10 1.00715e+07)
(8.57658e+07 2.18064e+07 -8.06206e-09 8.3261e+06 -9.17188e-09 2.84799e+07)
(4.07546e+07 -4.71567e+06 3.10101e-09 513734 2.62149e-09 1.19321e+07)
(8.82349e+07 2.32354e+07 4.64139e-09 -2.33036e+06 2.36331e-08 2.48408e+07)
(2.59403e+07 -1.47534e+06 -4.21423e-10 1.04389e+07 -3.70153e-11 1.07713e+07)
(7.70519e+07 -3.7828e+06 1.02247e-08 71705 5.02934e-09 2.34612e+07)
(4.59391e+07 -1.10478e+07 -1.37417e-08 -1.37663e+06 -7.6525e-09 1.38001e+07)
(4.99692e+07 -9.95801e+06 -8.64698e-09 -340773 -3.69675e-09 1.46734e+07)
(2.66922e+07 -3.08378e+06 0 6.38536e+06 0 9.75738e+06)
(7.52658e+07 4.24181e+06 -5.61905e-09 -6.93984e+06 -1.57311e-08 2.04567e+07)
(2.92111e+07 -4.43289e+06 8.87096e-09 1.92516e+06 8.02196e-10 9.52632e+06)
(3.27763e+07 -8.0526e+06 -1.4914e-08 1.89986e+06 -1.6951e-09 1.0385e+07)
(-5.00433e+06 1.68989e+06 1.44997e-09 -4.49582e+07 -2.69016e-09 -1.50049e+07)
(3.04361e+07 -8.12084e+06 -5.00573e-09 2.63921e+06 9.7354e-10 9.8767e+06)
(2.68494e+07 -112260 -2.11822e-11 8.23333e+06 5.21337e-10 1.04793e+07)
(-5.43433e+06 1.53947e+06 2.6212e-09 -3.99781e+07 3.73088e-09 -1.4864e+07)
(3.23938e+07 -1.06582e+07 1.67736e-09 2.41851e+06 -1.06257e-09 1.07034e+07)
(-8.65342e+06 -3.08157e+07 -2.35996e-08 1.06585e+07 -8.73331e-09 1.72452e+07)
(-348626 -4.54217e+06 4.44484e-09 -7.19484e+06 2.68911e-09 -2.28249e+06)
(7.97463e+07 8.62349e+06 -5.81856e-09 -1.0678e+07 6.02002e-09 2.68649e+07)
(5.91411e+07 -2.96452e+06 1.53114e-08 -8.14826e+06 -1.69871e-08 1.50233e+07)
(-2.99539e+06 -924173 1.2749e-08 -2.2421e+07 9.7013e-09 -7.77187e+06)
(29542.5 -804771 3.23209e-10 -1.92595e+06 2.41627e-10 -313212)
(9.14509e+06 -4.44359e+06 3.34345e-08 -1.43443e+07 -1.43293e-09 -1.20718e+06)
(4.94532e+07 -1.01832e+07 9.33522e-09 454533 3.94429e-09 1.51429e+07)
(3.25621e+07 -7.4732e+06 -4.17327e-10 1.89275e+06 3.27176e-09 1.02445e+07)
(1.20543e+07 -2.8268e+06 -1.22514e-08 -1.43622e+07 -1.3841e-08 -985545)
(7.52688e+07 6.02712e+06 -1.56126e-08 -9.5239e+06 2.94923e-09 1.81569e+07)
(2.96578e+07 -2.53776e+07 1.73749e-08 -9.43237e+06 1.39812e-08 3.80972e+06)
(2.73715e+07 -782749 1.12243e-08 476858 4.42015e-09 8.46064e+06)
(2.73612e+07 -710739 -7.05543e-10 470560 -1.57174e-09 8.33398e+06)
(4.31737e+06 -4.87382e+06 -3.57193e-09 732769 -1.10267e-09 1.50119e+06)
(3.57979e+06 -4.62183e+06 1.47872e-10 866426 -4.61553e-10 1.50157e+06)
(8.606e+07 1.3811e+07 0 1.58255e+07 0 3.06605e+07)
(7.58548e+07 5.62579e+06 4.36373e-09 -9.35414e+06 3.64821e-08 2.0544e+07)
(6.99611e+07 -2.72424e+07 2.06264e-08 2.11005e+07 6.3699e-09 5.51831e+07)
(2.06816e+07 -8.74903e+06 -4.64453e-09 5.99607e+06 -3.47517e-10 7.96219e+06)
(2.67483e+07 -266571 5.02089e-09 723494 -6.20454e-10 8.19562e+06)
(1.35275e+07 -9.1242e+06 -5.01216e-09 4.48454e+06 -2.73599e-10 5.50987e+06)