/*--------------------------------*- C++ -*----------------------------------*\
| =========                 |                                                 |
| \\      /  F ield         | OpenFOAM: The Open Source CFD Toolbox           |
|  \\    /   O peration     | Version:  v2012                                 |
|   \\  /    A nd           | Website:  www.openfoam.com                      |
|    \\/     M anipulation  |                                                 |
\*---------------------------------------------------------------------------*/
FoamFile
{
    version     2.0;
    format      ascii;
    class       volVectorField;
    location    "4";
    object      D;
}
// * * * * * * * * * * * * * * * * * * * * * * * * * * * * * * * * * * * * * //

dimensions      [0 1 0 0 0 0 0];


internalField   nonuniform List<vector> 
250
(
(0.0001079 -0.000825187 0)
(9.28231e-05 -0.000866398 0)
(8.20896e-05 -0.000889803 0)
(7.62182e-05 -0.000912677 0)
(7.15598e-05 -0.000928627 0)
(0.000319438 -0.000780179 0)
(0.000276994 -0.000809279 0)
(0.000246471 -0.000823691 0)
(0.000229717 -0.000840494 0)
(0.000216638 -0.000850192 0)
(0.000531233 -0.000695721 0)
(0.000471464 -0.000705398 0)
(0.00042892 -0.000705109 0)
(0.000404701 -0.000712282 0)
(0.000387567 -0.000712355 0)
(0.000728046 -0.000599129 0)
(0.00066268 -0.000585674 0)
(0.00061527 -0.000569243 0)
(0.000588125 -0.000565096 0)
(0.000569515 -0.000555291 0)
(0.000918533 -0.000487019 0)
(0.00085813 -0.000454554 0)
(0.000815116 -0.00042573 0)
(0.000788854 -0.000411397 0)
(0.000773466 -0.00039676 0)
(0.00107506 -0.00038946 0)
(0.00103022 -0.000344025 0)
(0.000993735 -0.000308516 0)
(0.000976843 -0.000286715 0)
(0.000958806 -0.000270478 0)
(0.00122068 -0.000289465 0)
(0.00119312 -0.00024058 0)
(0.00116812 -0.000201457 0)
(0.00115883 -0.00017946 0)
(0.00114471 -0.000157523 0)
(0.00132797 -0.000199345 0)
(0.00131965 -0.000156654 0)
(0.00130727 -0.000122748 0)
(0.00130646 -0.000103402 0)
(0.00129857 -8.32648e-05 0)
(0.00140506 -0.000116423 0)
(0.00141081 -8.71017e-05 0)
(0.00140875 -6.34786e-05 0)
(0.00141352 -5.07892e-05 0)
(0.00141181 -3.64245e-05 0)
(0.00144311 -3.79637e-05 0)
(0.00145696 -2.78347e-05 0)
(0.00146086 -1.9599e-05 0)
(0.00146864 -1.51755e-05 0)
(0.0014708 -9.9539e-06 0)
(0.0014859 -7.14344e-06 0)
(0.00143717 -2.63553e-05 0)
(0.00134151 -5.9408e-05 0)
(0.00120788 -0.000115683 0)
(0.00104006 -0.000201099 0)
(0.00150703 -4.13701e-06 0)
(0.00146635 -1.87304e-05 0)
(0.00138712 -3.87262e-05 0)
(0.00127913 -7.82879e-05 0)
(0.0011484 -0.000126004 0)
(0.00154908 -3.24357e-06 0)
(0.00151837 -1.57437e-05 0)
(0.0014582 -2.96523e-05 0)
(0.00137086 -5.99382e-05 0)
(0.0012633 -9.26582e-05 0)
(0.00158931 -3.86246e-06 0)
(0.00156314 -1.72385e-05 0)
(0.00151375 -2.85963e-05 0)
(0.00144287 -5.17279e-05 0)
(0.00135896 -7.41021e-05 0)
(0.00164804 -4.78171e-06 0)
(0.00162678 -1.92526e-05 0)
(0.00158678 -3.18954e-05 0)
(0.00152741 -5.3186e-05 0)
(0.00145739 -7.32085e-05 0)
(0.00170539 -5.7939e-06 0)
(0.00168745 -2.11455e-05 0)
(0.00165442 -3.47499e-05 0)
(0.00160583 -5.44026e-05 0)
(0.0015492 -7.37694e-05 0)
(0.0017756 -6.62605e-06 0)
(0.00176059 -2.30195e-05 0)
(0.00173292 -3.82732e-05 0)
(0.00169213 -5.82574e-05 0)
(0.00164484 -7.81795e-05 0)
(0.00184558 -6.78775e-06 0)
(0.00183302 -2.27573e-05 0)
(0.00180999 -3.83215e-05 0)
(0.00177634 -5.78827e-05 0)
(0.00173735 -7.83042e-05 0)
(0.00192231 -5.9873e-06 0)
(0.00191182 -2.02839e-05 0)
(0.0018927 -3.45855e-05 0)
(0.00186477 -5.30812e-05 0)
(0.00183272 -7.28702e-05 0)
(0.00199779 -4.17593e-06 0)
(0.00198926 -1.45623e-05 0)
(0.00197382 -2.57925e-05 0)
(0.00195115 -4.11411e-05 0)
(0.00192551 -5.94185e-05 0)
(0.000913907 -0.000277879 0)
(0.000862571 -0.000302988 0)
(0.000814663 -0.000332267 0)
(0.000770604 -0.000358121 0)
(0.000729169 -0.000385452 0)
(0.000689958 -0.00041055 0)
(0.000651818 -0.000435913 0)
(0.000614464 -0.000460157 0)
(0.000576392 -0.000484338 0)
(0.000537693 -0.00050907 0)
(0.00105459 -0.000178848 0)
(0.00101062 -0.000201556 0)
(0.000969787 -0.000226663 0)
(0.000930175 -0.000250266 0)
(0.000892784 -0.00027497 0)
(0.000856926 -0.000298675 0)
(0.000822683 -0.000322751 0)
(0.000789687 -0.000346646 0)
(0.000757857 -0.000370618 0)
(0.00072691 -0.000395724 0)
(0.00118241 -0.000130953 0)
(0.00114467 -0.000149001 0)
(0.00110878 -0.000170258 0)
(0.00107414 -0.000189902 0)
(0.00104147 -0.000211535 0)
(0.00101038 -0.00023236 0)
(0.000981416 -0.000254259 0)
(0.000954195 -0.000276265 0)
(0.000929457 -0.00029877 0)
(0.000906663 -0.000322514 0)
(0.00129409 -0.000102147 0)
(0.00126405 -0.000117389 0)
(0.00123502 -0.000135357 0)
(0.00120668 -0.000152634 0)
(0.00118011 -0.000171689 0)
(0.00115473 -0.0001906 0)
(0.00113172 -0.000210567 0)
(0.00111041 -0.000230981 0)
(0.00109223 -0.000251928 0)
(0.00107633 -0.000274015 0)
(0.00140372 -9.52322e-05 0)
(0.00137925 -0.000108898 0)
(0.00135516 -0.000124438 0)
(0.00133192 -0.000139955 0)
(0.00131013 -0.000156836 0)
(0.00128962 -0.000173982 0)
(0.00127141 -0.000192032 0)
(0.00125502 -0.000210649 0)
(0.00124187 -0.000229766 0)
(0.00123114 -0.00024977 0)
(0.00150557 -9.30082e-05 0)
(0.00148615 -0.000105663 0)
(0.00146664 -0.000119693 0)
(0.00144802 -0.000134049 0)
(0.0014305 -0.000149474 0)
(0.00141417 -0.000165335 0)
(0.00139984 -0.000181958 0)
(0.00138719 -0.000199101 0)
(0.00137745 -0.000216677 0)
(0.00136992 -0.000234836 0)
(0.00160886 -9.63611e-05 0)
(0.00159279 -0.000108372 0)
(0.00157639 -0.000121378 0)
(0.00156102 -0.000134874 0)
(0.00154636 -0.000149116 0)
(0.00153295 -0.000163901 0)
(0.00152111 -0.000179223 0)
(0.00151083 -0.000195025 0)
(0.00150303 -0.000211169 0)
(0.00149714 -0.000227642 0)
(0.0017078 -9.60937e-05 0)
(0.00169392 -0.000107531 0)
(0.00168013 -0.000119833 0)
(0.00166691 -0.000132534 0)
(0.00165441 -0.000145977 0)
(0.0016429 -0.000159827 0)
(0.00163253 -0.000174237 0)
(0.00162369 -0.00018896 0)
(0.00161653 -0.000203994 0)
(0.00161092 -0.00021916 0)
(0.00180837 -9.04114e-05 0)
(0.00179599 -0.000101089 0)
(0.00178314 -0.000112621 0)
(0.00177179 -0.000124884 0)
(0.00176033 -0.000137608 0)
(0.00175023 -0.000150843 0)
(0.00174056 -0.000164533 0)
(0.00173192 -0.000178599 0)
(0.00172486 -0.0001928 0)
(0.00171863 -0.00020716 0)
(0.00190479 -7.54703e-05 0)
(0.00189384 -8.58088e-05 0)
(0.00188196 -9.69243e-05 0)
(0.00187124 -0.000108649 0)
(0.00186067 -0.000120958 0)
(0.00185101 -0.000133794 0)
(0.0018422 -0.00014704 0)
(0.00183388 -0.00016067 0)
(0.00182667 -0.000174501 0)
(0.00182023 -0.000188444 0)
(6.82626e-05 -0.000942143 0)
(6.39249e-05 -0.000950624 0)
(5.98715e-05 -0.000959914 0)
(5.60609e-05 -0.00096818 0)
(5.20585e-05 -0.000977126 0)
(4.82063e-05 -0.000985051 0)
(4.388e-05 -0.00099352 0)
(3.95262e-05 -0.00100075 0)
(3.44478e-05 -0.00100831 0)
(2.91313e-05 -0.00101418 0)
(0.000206473 -0.000862867 0)
(0.000192995 -0.000874798 0)
(0.000179867 -0.00088804 0)
(0.00016801 -0.000899376 0)
(0.00015532 -0.000911821 0)
(0.000143383 -0.000922525 0)
(0.000129931 -0.000934094 0)
(0.000116492 -0.000943945 0)
(0.000100839 -0.000954328 0)
(8.43956e-05 -0.000962842 0)
(0.000370742 -0.000724143 0)
(0.000348116 -0.000741348 0)
(0.000324716 -0.000760972 0)
(0.000305147 -0.000776956 0)
(0.000283708 -0.000794882 0)
(0.000264238 -0.000809787 0)
(0.000242296 -0.000826103 0)
(0.000220562 -0.000840018 0)
(0.000195467 -0.000854732 0)
(0.000169051 -0.000867511 0)
(0.00054581 -0.000566579 0)
(0.000512095 -0.000589144 0)
(0.000476576 -0.000615958 0)
(0.000447833 -0.000637259 0)
(0.000417496 -0.000661409 0)
(0.000390321 -0.00068125 0)
(0.000360991 -0.00070273 0)
(0.000331851 -0.000721239 0)
(0.000298919 -0.000740507 0)
(0.0002638 -0.000758007 0)
(0.000744699 -0.000406351 0)
(0.00070014 -0.000431271 0)
(0.000653744 -0.00046144 0)
(0.00061427 -0.000486805 0)
(0.000575375 -0.000514807 0)
(0.000539489 -0.000539321 0)
(0.000503333 -0.00056462 0)
(0.00046729 -0.000587655 0)
(0.000428416 -0.000610685 0)
(0.00038709 -0.000632968 0)
)
;

boundaryField
{
    back
    {
        type            empty;
    }
    left
    {
        type            symmetry;
    }
    hole
    {
        type            calculated;
        value           nonuniform List<vector> 10((0.00012217 -0.000798249 2.37158e-21) (0.000359093 -0.000763727 -2.81323e-23) (0.000585239 -0.000696001 -8.68689e-21) (0.000785798 -0.000617343 7.32318e-21) (0.000969232 -0.0005192 3.23503e-22) (0.0011133 -0.000429547 4.78684e-21) (0.00124441 -0.000331995 3.37268e-21) (0.0013365 -0.000235376 -2.29517e-21) (0.00140209 -0.000140912 -6.94773e-21) (0.00143376 -4.6456e-05 4.54121e-22));
    }
    front
    {
        type            empty;
    }
    down
    {
        type            symmetry;
    }
    right
    {
        type            calculated;
        value           nonuniform List<vector> 
15
(
(0.0020358 -1.82193e-06 4.02133e-21)
(0.00202816 -7.87549e-06 6.37871e-21)
(0.00201441 -1.48732e-05 2.13202e-21)
(0.00199427 -2.68055e-05 3.25633e-21)
(0.00197175 -4.23363e-05 -1.49235e-21)
(0.00195321 -5.75084e-05 -6.70438e-21)
(0.00194273 -6.79475e-05 4.94782e-21)
(0.00193131 -7.92448e-05 2.61197e-21)
(0.00192099 -9.1995e-05 -1.1219e-22)
(0.00191079 -0.000105125 0)
(0.00190144 -0.000119349 4.76027e-21)
(0.0018929 -0.000133642 1.97936e-21)
(0.00188478 -0.000148518 -5.41962e-21)
(0.00187767 -0.000163825 -2.40566e-21)
(0.00187127 -0.00017861 0)
)
;
    }
    up
    {
        type            calculated;
        value           nonuniform List<vector> 
15
(
(0.000517052 -0.000521569 1.65369e-21)
(0.000712005 -0.000408358 -1.86054e-21)
(0.00089694 -0.000334478 -1.30168e-21)
(0.00107052 -0.000285125 -1.6365e-21)
(0.00122801 -0.000259822 -1.62921e-21)
(0.00136815 -0.000243944 -1.17655e-21)
(0.00149589 -0.000235894 -1.33625e-21)
(0.00160929 -0.000226744 2.00898e-21)
(0.00171617 -0.000214327 1.05978e-21)
(0.00181717 -0.000195418 0)
(2.60882e-05 -0.00101707 -1.20327e-21)
(7.50621e-05 -0.000966621 -6.02481e-22)
(0.000154266 -0.000872964 4.51278e-22)
(0.000243926 -0.000765771 1.69549e-21)
(0.000363847 -0.000643726 2.3471e-24)
)
;
    }
}


// ************************************************************************* //
