/*--------------------------------*- C++ -*----------------------------------*\
| =========                 |                                                 |
| \\      /  F ield         | OpenFOAM: The Open Source CFD Toolbox           |
|  \\    /   O peration     | Version:  v2012                                 |
|   \\  /    A nd           | Website:  www.openfoam.com                      |
|    \\/     M anipulation  |                                                 |
\*---------------------------------------------------------------------------*/
FoamFile
{
    version     2.0;
    format      ascii;
    class       volSymmTensorField;
    location    "4";
    object      sigma;
}
// * * * * * * * * * * * * * * * * * * * * * * * * * * * * * * * * * * * * * //

dimensions      [1 -1 -2 0 0 0 0];


internalField   nonuniform List<symmTensor> 
250
(
(2.02234e+08 -1.16675e+07 1.18726e-08 1.1302e+07 3.38185e-10 6.40607e+07)
(1.63732e+08 -4.11771e+06 5.26907e-09 1.69201e+07 3.27769e-09 5.41955e+07)
(1.36301e+08 60690 5.84252e-09 1.89477e+07 -3.92766e-10 4.65746e+07)
(1.17917e+08 2.42621e+06 -1.18584e-09 1.67288e+07 -4.65569e-09 4.03937e+07)
(1.03437e+08 3.83899e+06 2.5756e-10 1.44962e+07 4.99371e-10 3.53801e+07)
(1.77997e+08 -3.09898e+07 -2.19067e-09 1.48296e+07 1.484e-10 5.7848e+07)
(1.50916e+08 -1.18032e+07 6.99332e-09 1.45848e+07 3.48633e-09 4.96501e+07)
(1.30425e+08 -1.00923e+06 1.35417e-08 1.40377e+07 7.21123e-09 4.33387e+07)
(1.16012e+08 5.31643e+06 -3.93715e-09 1.1317e+07 -2.78544e-09 3.81988e+07)
(1.04292e+08 9.0193e+06 -1.5144e-09 9.10812e+06 -9.38221e-10 3.40201e+07)
(1.36917e+08 -4.02276e+07 -1.47932e-08 1.92757e+07 1.09769e-09 4.68577e+07)
(1.2734e+08 -1.75387e+07 -1.06769e-08 1.07517e+07 1.08663e-09 4.14276e+07)
(1.17562e+08 -4.41424e+06 5.8024e-09 6.61164e+06 2.73297e-09 3.7252e+07)
(1.09986e+08 3.83661e+06 6.28956e-09 3.01353e+06 2.93263e-09 3.38998e+07)
(1.02508e+08 8.77725e+06 -8.55611e-09 708255 -5.73934e-09 3.09649e+07)
(9.1924e+07 -3.81196e+07 7.04053e-10 1.99778e+07 4.64168e-09 3.35705e+07)
(9.82321e+07 -1.99666e+07 -4.59339e-09 5.14982e+06 1.19514e-09 3.10146e+07)
(9.89441e+07 -9.32296e+06 -3.65744e-09 -1.90283e+06 -2.75733e-09 2.91124e+07)
(9.83169e+07 -1.56312e+06 6.49286e-09 -6.30856e+06 1.54972e-09 2.76025e+07)
(9.51989e+07 2.74437e+06 -3.4607e-09 -8.57314e+06 -4.00248e-09 2.59877e+07)
(5.09376e+07 -2.63833e+07 4.77398e-10 1.42066e+07 -4.88053e-10 1.95433e+07)
(6.79637e+07 -1.83105e+07 -7.90236e-09 -1.85784e+06 -5.60994e-10 1.98318e+07)
(7.57476e+07 -1.28246e+07 -7.5932e-09 -8.52349e+06 -4.95765e-09 2.01672e+07)
(8.16389e+07 -8.37997e+06 -1.16443e-10 -1.35102e+07 -4.61879e-09 2.04386e+07)
(8.18003e+07 -4.79235e+06 3.41612e-09 -1.47148e+07 2.60896e-09 2.01256e+07)
(2.28387e+07 -1.21598e+07 2.91091e-09 1.16716e+06 4.07016e-10 7.20176e+06)
(4.1034e+07 -1.48886e+07 -4.96047e-09 -1.16635e+07 -7.70998e-09 8.81115e+06)
(5.25217e+07 -1.44405e+07 -3.20697e-09 -1.59875e+07 -2.44811e-09 1.09603e+07)
(5.89949e+07 -1.48598e+07 5.48671e-10 -1.98501e+07 4.78121e-09 1.17435e+07)
(6.55305e+07 -1.34272e+07 5.76388e-10 -1.81724e+07 1.35738e-09 1.42074e+07)
(5.98354e+06 1.1907e+06 9.71061e-09 -2.01857e+07 -1.25041e-08 -4.26064e+06)
(2.13037e+07 -9.14184e+06 -4.60129e-09 -2.37225e+07 -7.93476e-09 -725635)
(3.31001e+07 -1.38617e+07 -3.78812e-09 -2.33245e+07 7.17196e-09 2.93267e+06)
(3.88257e+07 -1.64639e+07 5.51762e-09 -2.23659e+07 3.06869e-09 4.93794e+06)
(4.72339e+07 -1.801e+07 -3.23885e-09 -1.89892e+07 -3.85069e-09 8.47342e+06)
(-1.8024e+06 8.73036e+06 3.77553e-09 -4.23603e+07 -1.23233e-08 -1.32488e+07)
(7.08955e+06 -4.17067e+06 6.51706e-09 -3.50639e+07 -2.49033e-09 -8.39232e+06)
(1.62722e+07 -1.11946e+07 -1.71403e-09 -2.74362e+07 7.92216e-09 -3.34921e+06)
(2.07888e+07 -1.45115e+07 -2.43054e-09 -2.26571e+07 5.9989e-10 -560481)
(2.84674e+07 -1.76212e+07 -7.38558e-10 -1.61006e+07 -2.9726e-09 3.71002e+06)
(-3.60274e+06 8.93685e+06 -1.66298e-09 -6.12816e+07 -8.47462e-09 -1.94653e+07)
(-1.17668e+06 -1.22092e+06 2.97351e-09 -4.46314e+07 1.1465e-09 -1.37424e+07)
(4.3118e+06 -7.35549e+06 1.50629e-09 -3.1094e+07 1.06203e-09 -8.03466e+06)
(7.64709e+06 -9.98416e+06 -4.07924e-09 -2.30947e+07 -2.25363e-09 -4.63428e+06)
(1.34792e+07 -1.2874e+07 3.46942e-10 -1.43975e+07 -5.09015e-10 -275470)
(-3.43464e+06 3.69423e+06 5.65571e-10 -7.20954e+07 -4.53731e-09 -2.2659e+07)
(-4.78289e+06 -174085 1.47843e-09 -5.00493e+07 1.3859e-09 -1.64497e+07)
(-1.86824e+06 -2.54217e+06 -5.14872e-10 -3.26911e+07 -4.80499e-10 -1.03678e+07)
(860110 -3.47572e+06 -3.00109e-11 -2.30552e+07 -1.97767e-10 -6.65853e+06)
(5.23732e+06 -4.61358e+06 7.66885e-10 -1.29878e+07 4.99146e-10 -2.32514e+06)
(1.1897e+07 -4.41584e+06 -1.5236e-10 -5.79886e+06 1.58546e-10 1.82943e+06)
(1.87904e+07 -1.2624e+07 -2.56354e-10 -7.7938e+06 -8.10207e-11 3.29897e+06)
(3.14646e+07 -1.69254e+07 -2.34883e-09 -1.05987e+07 -1.02169e-09 6.25978e+06)
(4.79326e+07 -1.77934e+07 -2.22603e-09 -1.40236e+07 -1.12472e-09 1.01727e+07)
(6.47149e+07 -1.41879e+07 -7.58798e-09 -1.67308e+07 -4.61263e-09 1.43952e+07)
(2.07163e+07 -3.80411e+06 3.90971e-10 1.33731e+06 2.58394e-11 6.61609e+06)
(2.46886e+07 -1.13543e+07 2.3163e-09 -542386 4.34716e-10 7.24385e+06)
(3.22955e+07 -1.59656e+07 -5.01813e-11 -4.09828e+06 -1.01884e-11 8.45917e+06)
(4.2662e+07 -1.81133e+07 -3.91666e-11 -6.89759e+06 -5.46358e-11 1.07293e+07)
(5.48334e+07 -1.55361e+07 1.88576e-09 -1.04521e+07 8.79239e-10 1.33144e+07)
(2.81517e+07 -3.00873e+06 -2.50687e-10 5.68107e+06 -1.35013e-10 1.01498e+07)
(3.13599e+07 -8.88531e+06 7.5247e-10 4.4399e+06 1.86763e-10 1.07399e+07)
(3.76644e+07 -1.32681e+07 -1.45259e-10 1.41071e+06 2.31042e-13 1.17225e+07)
(4.53998e+07 -1.60205e+07 1.81475e-09 -1.12754e+06 2.74843e-10 1.32817e+07)
(5.37562e+07 -1.66415e+07 2.9257e-09 -5.0843e+06 8.23325e-10 1.46016e+07)
(3.38147e+07 -2.68571e+06 -1.18934e-09 7.29491e+06 1.42273e-11 1.23329e+07)
(3.56448e+07 -7.72118e+06 -4.09278e-11 6.52587e+06 2.00411e-10 1.26512e+07)
(3.95001e+07 -1.17021e+07 -1.253e-09 4.45578e+06 -5.13734e-10 1.31868e+07)
(4.50034e+07 -1.38534e+07 -3.4802e-09 2.78745e+06 -1.06593e-09 1.43373e+07)
(5.15482e+07 -1.49039e+07 6.89375e-09 -188371 2.2835e-09 1.5408e+07)
(3.95289e+07 -2.18169e+06 -3.8516e-10 8.66311e+06 -3.55237e-10 1.44576e+07)
(4.09955e+07 -6.13803e+06 -8.46975e-10 7.94348e+06 -4.10446e-10 1.46817e+07)
(4.38164e+07 -9.80999e+06 -2.34717e-09 6.19786e+06 -1.96983e-10 1.50043e+07)
(4.76261e+07 -1.20814e+07 -3.19763e-09 4.61282e+06 4.91893e-11 1.56717e+07)
(5.17819e+07 -1.36603e+07 3.68906e-10 2.4746e+06 4.1848e-10 1.6277e+07)
(4.31826e+07 -1.85973e+06 1.52085e-09 9.14625e+06 -1.99403e-11 1.56987e+07)
(4.40966e+07 -5.12231e+06 1.27309e-09 8.59712e+06 6.62933e-10 1.58081e+07)
(4.59021e+07 -8.14646e+06 3.3902e-10 7.35275e+06 5.61511e-10 1.59764e+07)
(4.87153e+07 -9.99166e+06 -3.52299e-09 5.91495e+06 -1.27229e-09 1.63891e+07)
(5.18476e+07 -1.14449e+07 -2.21087e-09 4.15699e+06 -1.18327e-09 1.68014e+07)
(4.73154e+07 -1.51141e+06 0 9.89158e+06 0 1.71621e+07)
(4.79256e+07 -4.15314e+06 1.20367e-09 9.30428e+06 2.37879e-10 1.7169e+07)
(4.90022e+07 -6.71862e+06 1.90495e-09 8.13822e+06 -3.37712e-10 1.71421e+07)
(5.07278e+07 -8.39275e+06 3.24482e-10 6.72743e+06 -6.95053e-10 1.72366e+07)
(5.254e+07 -9.6438e+06 1.99453e-09 5.154e+06 5.28054e-10 1.73082e+07)
(4.9685e+07 -1.16493e+06 1.62375e-09 1.08549e+07 -2.24804e-10 1.8162e+07)
(5.00304e+07 -3.18822e+06 1.78941e-09 1.02658e+07 3.33033e-11 1.80889e+07)
(5.06608e+07 -5.12838e+06 2.17983e-09 9.13615e+06 3.25018e-10 1.79391e+07)
(5.1753e+07 -6.44599e+06 -2.13657e-09 7.65421e+06 -7.00159e-10 1.78222e+07)
(5.28824e+07 -7.39282e+06 -3.90856e-10 5.9989e+06 2.91055e-10 1.76644e+07)
(5.22772e+07 -835059 -1.7566e-16 1.30384e+07 -3.38921e-18 1.95947e+07)
(5.24016e+07 -2.26811e+06 -1.54839e-09 1.22992e+07 1.38199e-10 1.94103e+07)
(5.26102e+07 -3.67362e+06 7.72837e-10 1.09136e+07 5.38594e-10 1.90571e+07)
(5.30009e+07 -4.60562e+06 -3.92252e-10 9.10639e+06 2.33686e-10 1.86322e+07)
(5.34296e+07 -5.21846e+06 -8.80071e-11 7.0285e+06 4.38916e-10 1.81374e+07)
(5.33134e+07 -314136 -8.61416e-10 1.61056e+07 8.14159e-11 2.08257e+07)
(5.33189e+07 -823219 -1.34701e-09 1.51344e+07 -3.09109e-10 2.0536e+07)
(5.3338e+07 -1.36449e+06 -4.38034e-10 1.34506e+07 -1.53599e-10 2.00366e+07)
(5.33416e+07 -1.68348e+06 -6.4367e-10 1.09905e+07 -4.67534e-10 1.92996e+07)
(5.34074e+07 -1.97153e+06 2.8132e-10 8.46158e+06 1.55623e-12 1.85607e+07)
(7.31394e+07 -1.03915e+07 -4.33048e-09 -1.66317e+07 -2.83793e-09 1.69523e+07)
(7.48905e+07 -6.90115e+06 -1.33407e-09 -1.36283e+07 -1.02431e-09 1.83787e+07)
(7.84452e+07 -4.11744e+06 5.05022e-09 -1.25328e+07 2.66258e-09 1.97737e+07)
(8.07588e+07 -1.81201e+06 3.38638e-09 -9.80172e+06 1.70659e-09 2.12871e+07)
(8.28486e+07 111037 -3.90423e-09 -8.15552e+06 -2.60782e-09 2.24079e+07)
(8.46646e+07 1.34568e+06 3.76765e-09 -5.63133e+06 2.86857e-09 2.371e+07)
(8.65015e+07 2.16202e+06 1.9954e-09 -4.01595e+06 1.84383e-09 2.47457e+07)
(8.87553e+07 2.23532e+06 2.22471e-09 -1.9466e+06 1.66986e-09 2.60426e+07)
(9.16584e+07 1.86126e+06 2.90914e-09 -968541 1.83657e-09 2.7207e+07)
(9.56076e+07 749912 -3.07457e-09 187539 -9.48007e-10 2.87385e+07)
(6.56732e+07 -1.15581e+07 -1.85247e-09 -1.06254e+07 -1.00245e-09 1.65143e+07)
(6.9881e+07 -1.02027e+07 -1.68853e-23 -9.20668e+06 -9.03417e-24 1.82023e+07)
(7.33478e+07 -8.2179e+06 8.62592e-10 -8.45398e+06 6.61362e-10 1.94682e+07)
(7.65414e+07 -6.66217e+06 -3.26067e-09 -6.75599e+06 -2.04558e-09 2.09356e+07)
(7.93067e+07 -5.06419e+06 -4.00533e-10 -5.65404e+06 -5.45635e-10 2.20958e+07)
(8.21817e+07 -3.77068e+06 -2.77143e-09 -3.90731e+06 -1.5412e-09 2.34823e+07)
(8.50402e+07 -2.63333e+06 1.42538e-09 -2.83814e+06 7.85576e-10 2.46606e+07)
(8.83335e+07 -1.7364e+06 -2.9384e-09 -1.34143e+06 -1.59052e-09 2.60976e+07)
(9.20873e+07 -995610 5.71199e-09 -724514 3.68322e-09 2.74088e+07)
(9.66295e+07 -326052 2.57271e-09 161541 1.06653e-09 2.90373e+07)
(6.04149e+07 -1.47216e+07 -5.86253e-09 -5.62443e+06 -2.81814e-09 1.64372e+07)
(6.4349e+07 -1.33949e+07 2.02194e-09 -4.60879e+06 1.30036e-09 1.79221e+07)
(6.74452e+07 -1.18518e+07 7.12013e-09 -4.58897e+06 3.85874e-09 1.88569e+07)
(7.08982e+07 -1.03495e+07 -5.70043e-09 -3.41673e+06 -3.49569e-09 2.02444e+07)
(7.38589e+07 -8.81438e+06 2.69987e-09 -3.11535e+06 1.79788e-09 2.12231e+07)
(7.71017e+07 -7.31326e+06 1.2551e-09 -1.94388e+06 1.34179e-09 2.25473e+07)
(8.01959e+07 -5.82912e+06 -2.37931e-09 -1.58468e+06 -1.85916e-09 2.35834e+07)
(8.36824e+07 -4.29807e+06 -3.5872e-09 -586138 -2.385e-09 2.49289e+07)
(8.73126e+07 -2.75196e+06 -3.45877e-09 -453965 -2.47169e-09 2.60576e+07)
(9.15236e+07 -958941 2.77578e-10 185047 7.4617e-10 2.75126e+07)
(5.74004e+07 -1.40569e+07 6.43141e-09 -1.40941e+06 2.69487e-09 1.67973e+07)
(6.09232e+07 -1.32578e+07 -2.50139e-09 -1.0861e+06 -1.40628e-09 1.79511e+07)
(6.38325e+07 -1.22472e+07 1.06549e-09 -1.50548e+06 1.98155e-10 1.86981e+07)
(6.70206e+07 -1.11628e+07 1.1148e-09 -1.02935e+06 2.15997e-10 1.97974e+07)
(6.98063e+07 -9.88126e+06 -7.61033e-19 -1.17399e+06 -1.3896e-18 2.05897e+07)
(7.28049e+07 -8.5231e+06 1.20759e-09 -634757 2.52461e-10 2.1651e+07)
(7.56068e+07 -7.00233e+06 1.25411e-09 -665414 2.69107e-10 2.24824e+07)
(7.86562e+07 -5.30647e+06 4.27378e-09 -161286 2.31897e-09 2.35485e+07)
(8.16525e+07 -3.44662e+06 1.44299e-09 -246704 1.82226e-09 2.44217e+07)
(8.49743e+07 -1.22641e+06 1.16559e-09 133836 9.38097e-10 2.55325e+07)
(5.60124e+07 -1.34051e+07 -2.74053e-10 1.33555e+06 -1.09179e-09 1.72044e+07)
(5.86428e+07 -1.28445e+07 9.60453e-10 1.21614e+06 5.07089e-11 1.79577e+07)
(6.09015e+07 -1.2129e+07 2.00391e-09 667365 1.31513e-09 1.84707e+07)
(6.34416e+07 -1.12029e+07 1.80805e-10 657876 -1.21117e-09 1.92298e+07)
(6.56436e+07 -1.00899e+07 2.87415e-09 268746 1.5369e-09 1.97737e+07)
(6.80437e+07 -8.78424e+06 -1.12201e-09 339473 -1.09261e-10 2.0515e+07)
(7.01927e+07 -7.29816e+06 -1.7712e-09 55824.4 -2.98158e-09 2.10746e+07)
(7.25095e+07 -5.54767e+06 3.59091e-09 175467 4.13604e-10 2.18055e+07)
(7.46157e+07 -3.61356e+06 2.24432e-09 -58362.4 1.80902e-09 2.23672e+07)
(7.68752e+07 -1.27916e+06 1.98881e-09 101007 9.33921e-10 2.30929e+07)
(5.50582e+07 -1.15434e+07 1.68958e-09 2.96186e+06 1.06699e-09 1.7406e+07)
(5.69861e+07 -1.11093e+07 -1.98583e-10 2.56982e+06 1.12544e-09 1.78668e+07)
(5.87184e+07 -1.06462e+07 -2.57099e-09 1.91941e+06 -1.21524e-09 1.81913e+07)
(6.06411e+07 -9.89157e+06 -1.53014e-09 1.60131e+06 -1.26106e-09 1.86727e+07)
(6.22805e+07 -8.99454e+06 2.25679e-09 1.07138e+06 3.90761e-09 1.90056e+07)
(6.40415e+07 -7.86487e+06 1.05229e-09 845221 4.3593e-11 1.9466e+07)
(6.55342e+07 -6.56087e+06 -6.73031e-09 434895 -5.83005e-09 1.97907e+07)
(6.70833e+07 -4.98797e+06 -1.26424e-09 318366 1.33504e-09 2.02205e+07)
(6.83605e+07 -3.2475e+06 -6.45154e-11 34187.7 4.37866e-09 2.05184e+07)
(6.96372e+07 -1.14467e+06 -1.83213e-09 57443.3 6.74436e-10 2.09084e+07)
(5.47071e+07 -9.80456e+06 1.71619e-09 3.97041e+06 1.64131e-09 1.76033e+07)
(5.58527e+07 -9.47858e+06 2.27361e-09 3.45049e+06 1.05125e-09 1.7791e+07)
(5.70465e+07 -9.11887e+06 -1.34533e-09 2.74574e+06 -1.12223e-09 1.79377e+07)
(5.8247e+07 -8.46714e+06 -1.89321e-09 2.24801e+06 -1.31051e-11 1.81485e+07)
(5.93019e+07 -7.72538e+06 1.26548e-18 1.64459e+06 1.30852e-18 1.8284e+07)
(6.03814e+07 -6.73166e+06 1.97826e-09 1.22344e+06 4.76387e-11 1.84815e+07)
(6.12143e+07 -5.6326e+06 -6.96229e-11 747202 1.28454e-09 1.85884e+07)
(6.20835e+07 -4.25532e+06 -2.04553e-09 445729 -8.77164e-11 1.87588e+07)
(6.26252e+07 -2.76109e+06 -4.54399e-10 129372 1.3263e-09 1.88264e+07)
(6.30848e+07 -968253 2.43967e-09 31625.7 7.65982e-10 1.89349e+07)
(5.42841e+07 -7.62115e+06 -1.23038e-10 4.7483e+06 2.25468e-10 1.77097e+07)
(5.49361e+07 -7.26576e+06 8.78749e-10 4.1039e+06 3.14944e-11 1.7712e+07)
(5.55319e+07 -6.93775e+06 4.07519e-09 3.324e+06 2.19325e-09 1.76568e+07)
(5.63285e+07 -6.45499e+06 -1.77364e-10 2.73136e+06 -1.06386e-09 1.7718e+07)
(5.68628e+07 -5.82906e+06 -9.15594e-11 2.01917e+06 -1.10596e-09 1.76646e+07)
(5.75063e+07 -5.07644e+06 2.80599e-09 1.50313e+06 1.30962e-09 1.77028e+07)
(5.78266e+07 -4.15958e+06 9.49018e-10 926186 6.3525e-11 1.76258e+07)
(5.80854e+07 -3.07913e+06 -2.78933e-10 525814 1.189e-09 1.75834e+07)
(5.81337e+07 -1.97727e+06 4.18661e-10 182938 -1.1994e-09 1.7495e+07)
(5.79631e+07 -670816 2.12093e-09 755.685 -1.15161e-09 1.73892e+07)
(5.39543e+07 -5.33187e+06 -2.70421e-10 5.57202e+06 -3.27526e-10 1.78579e+07)
(5.37157e+07 -4.97245e+06 -3.82641e-09 4.64834e+06 -2.10705e-09 1.75092e+07)
(5.44746e+07 -4.83854e+06 -1.52004e-10 3.86033e+06 -9.08526e-10 1.75005e+07)
(5.47632e+07 -4.34809e+06 1.84925e-09 3.00805e+06 1.16136e-09 1.73314e+07)
(5.49631e+07 -3.88767e+06 -1.80491e-09 2.29846e+06 -1.20738e-09 1.71785e+07)
(5.51408e+07 -3.2831e+06 -3.67237e-23 1.58274e+06 -1.42687e-23 1.7017e+07)
(5.49373e+07 -2.56815e+06 3.87019e-09 1.02428e+06 4.66664e-09 1.67885e+07)
(5.52308e+07 -1.90786e+06 9.08984e-10 522173 1.2234e-10 1.67259e+07)
(5.50872e+07 -1.10888e+06 1.28707e-10 220057 -3.37313e-09 1.65922e+07)
(5.47662e+07 -380708 -4.7191e-10 -25724.2 -6.07501e-10 1.64221e+07)
(5.33396e+07 -1.92425e+06 1.22842e-09 6.41393e+06 1.5928e-09 1.79261e+07)
(5.34889e+07 -1.8724e+06 -9.06397e-10 5.355e+06 -1.12903e-09 1.76532e+07)
(5.35008e+07 -1.80095e+06 -4.7849e-10 4.22463e+06 -9.67178e-10 1.73176e+07)
(5.34483e+07 -1.56387e+06 2.0552e-11 3.22528e+06 8.03433e-10 1.70021e+07)
(5.34908e+07 -1.37522e+06 0 2.33322e+06 0 1.67472e+07)
(5.34314e+07 -1.08481e+06 -8.7204e-10 1.54022e+06 -3.97341e-10 1.64915e+07)
(5.3538e+07 -852021 -3.62601e-10 936061 -1.13805e-09 1.63422e+07)
(5.35134e+07 -583920 9.92828e-10 446469 -6.14911e-10 1.6188e+07)
(5.33975e+07 -279551 4.40695e-10 140670 1.71475e-10 1.60614e+07)
(5.33077e+07 -87144.7 0 5628.5 0 1.5994e+07)
(9.46716e+07 4.34374e+06 -8.42232e-10 1.16269e+07 -1.00929e-09 3.18896e+07)
(8.91194e+07 4.33457e+06 -5.77882e-10 1.02702e+07 2.15062e-09 2.98169e+07)
(8.34494e+07 4.29658e+06 3.74142e-15 8.37202e+06 8.88083e-15 2.75464e+07)
(7.83287e+07 4.10236e+06 -1.6244e-09 6.88759e+06 -5.24498e-10 2.55649e+07)
(7.26646e+07 3.79519e+06 1.5347e-09 5.16416e+06 5.05028e-10 2.33486e+07)
(6.73524e+07 3.4161e+06 -3.79783e-09 3.78376e+06 -5.35865e-09 2.13409e+07)
(6.1255e+07 2.89008e+06 9.72034e-10 2.39647e+06 7.85233e-09 1.90954e+07)
(5.51871e+07 2.27689e+06 5.16468e-09 1.32112e+06 5.24964e-09 1.69525e+07)
(4.80924e+07 1.50778e+06 -4.12192e-10 500529 -1.52028e-09 1.45779e+07)
(4.06305e+07 560101 3.51232e-09 -26157.6 1.26944e-09 1.21813e+07)
(9.69059e+07 1.06164e+07 3.34429e-09 6.96089e+06 3.04585e-09 3.116e+07)
(9.25218e+07 1.08827e+07 1.41606e-09 6.56107e+06 1.83197e-09 2.97249e+07)
(8.71383e+07 1.09019e+07 3.82986e-09 5.14975e+06 2.8953e-09 2.76864e+07)
(8.28906e+07 1.06468e+07 -8.58023e-09 4.53513e+06 -7.26136e-09 2.62277e+07)
(7.75691e+07 9.92852e+06 -5.75477e-11 3.2055e+06 -5.69215e-11 2.42324e+07)
(7.30207e+07 9.10958e+06 6.44825e-09 2.57539e+06 5.72211e-09 2.26788e+07)
(6.74637e+07 7.76998e+06 -1.16419e-09 1.46122e+06 -1.11976e-09 2.06775e+07)
(6.22381e+07 6.20846e+06 -5.92808e-09 973372 -3.88702e-09 1.89634e+07)
(5.60162e+07 4.13822e+06 -5.35719e-09 250501 -3.64205e-09 1.688e+07)
(4.96328e+07 1.55847e+06 1.09637e-09 73603.8 5.91254e-10 1.49119e+07)
(9.76742e+07 1.141e+07 2.95125e-09 -452048 2.53923e-09 2.91666e+07)
(9.57942e+07 1.2725e+07 2.28762e-09 785590 2.03762e-09 2.89739e+07)
(9.09737e+07 1.309e+07 6.00247e-09 130541 4.84447e-09 2.73313e+07)
(8.80909e+07 1.34723e+07 5.98628e-09 979581 4.75596e-09 2.67212e+07)
(8.35008e+07 1.26622e+07 -9.77242e-09 265749 -7.59212e-09 2.513e+07)
(8.01759e+07 1.19333e+07 1.95846e-09 813488 1.06004e-09 2.42968e+07)
(7.58104e+07 1.02214e+07 1.64707e-08 103192 1.25709e-08 2.27741e+07)
(7.20934e+07 8.27666e+06 3.61656e-09 456303 3.69388e-09 2.17649e+07)
(6.76245e+07 5.55473e+06 -4.89996e-09 -117428 -2.60676e-09 2.02521e+07)
(6.32716e+07 2.11031e+06 -4.07122e-09 174823 -3.9034e-10 1.90339e+07)
(9.37743e+07 5.84587e+06 -1.01651e-08 -9.13736e+06 -6.74735e-09 2.53911e+07)
(9.57012e+07 8.75778e+06 1.23395e-08 -6.41981e+06 9.21235e-09 2.67844e+07)
(9.29567e+07 1.015e+07 9.40862e-09 -6.38742e+06 6.96266e-09 2.59708e+07)
(9.19433e+07 1.19987e+07 -5.36359e-09 -4.00894e+06 -2.89026e-09 2.63803e+07)
(8.89767e+07 1.21187e+07 2.16771e-09 -3.79899e+06 2.12122e-09 2.55533e+07)
(8.68028e+07 1.21709e+07 -2.67474e-09 -1.90395e+06 -3.6494e-09 2.54697e+07)
(8.39404e+07 1.09751e+07 -1.06904e-08 -1.75054e+06 -8.01033e-09 2.4657e+07)
(8.15496e+07 9.14617e+06 1.85417e-09 -453745 1.95965e-09 2.43288e+07)
(7.90366e+07 6.41259e+06 3.84251e-09 -491713 4.04434e-09 2.35635e+07)
(7.691e+07 2.43769e+06 -5.40225e-09 214568 -1.25341e-09 2.31374e+07)
(8.29174e+07 -3.03212e+06 -5.353e-09 -1.46104e+07 -1.90463e-09 2.04921e+07)
(8.6518e+07 487374 -4.59414e-09 -1.20666e+07 -2.84324e-09 2.23354e+07)
(8.73107e+07 2.55742e+06 7.69545e-09 -1.1822e+07 6.32354e-09 2.26466e+07)
(8.81085e+07 5.28401e+06 4.82447e-09 -9.31924e+06 3.37041e-09 2.36368e+07)
(8.8137e+07 6.76742e+06 6.77438e-09 -8.2686e+06 4.04674e-09 2.39605e+07)
(8.79527e+07 7.78187e+06 1.23132e-08 -5.71034e+06 8.9954e-09 2.46727e+07)
(8.7697e+07 7.8796e+06 -6.86776e-09 -4.28857e+06 -5.33041e-09 2.50225e+07)
(8.76608e+07 6.91369e+06 -1.20918e-08 -2.1123e+06 -7.68218e-09 2.56645e+07)
(8.82054e+07 5.12806e+06 -1.79861e-09 -1.06347e+06 -1.68485e-09 2.61426e+07)
(8.9584e+07 1.95457e+06 1.97394e-09 134802 -1.46365e-12 2.69156e+07)
)
;

boundaryField
{
    back
    {
        type            empty;
    }
    left
    {
        type            symmetry;
    }
    hole
    {
        type            calculated;
        value           nonuniform List<symmTensor> 10((1.97098e+08 -1.55119e+07 1.1773e-08 1.22081e+06 -9.26557e-10 5.94955e+07) (1.6928e+08 -4.06406e+07 -2.25493e-09 9.75695e+06 1.59708e-10 5.37112e+07) (1.23492e+08 -5.11521e+07 -1.30149e-08 2.11879e+07 5.39093e-09 4.3404e+07) (7.54794e+07 -4.62538e+07 -1.1574e-09 2.83444e+07 1.21406e-09 3.11471e+07) (3.46603e+07 -2.96027e+07 2.08436e-10 2.52831e+07 -5.04822e-10 1.7983e+07) (9.10823e+06 -1.06644e+07 8.45577e-10 1.24864e+07 -1.12789e-09 6.47838e+06) (-3.83831e+06 6.26355e+06 8.25223e-09 -1.02212e+07 -1.3578e-08 -4.21785e+06) (-6.13929e+06 1.48216e+07 4.90985e-09 -3.57824e+07 -1.18534e-08 -1.25765e+07) (-3.32666e+06 1.38565e+07 1.94783e-09 -5.77166e+07 -7.57129e-09 -1.8313e+07) (-436111 5.54132e+06 3.22012e-10 -7.04091e+07 -4.55946e-09 -2.12536e+07));
    }
    front
    {
        type            empty;
    }
    down
    {
        type            symmetry;
    }
    right
    {
        type            calculated;
        value           nonuniform List<symmTensor> 
15
(
(5.346e+07 0.0633174 -2.69432e-17 1.61684e+07 8.14159e-11 2.08885e+07)
(5.346e+07 0.177304 -3.26136e-17 1.51949e+07 -3.09109e-10 2.05965e+07)
(5.346e+07 0.2892 -9.67372e-18 1.35029e+07 -1.53599e-10 2.00889e+07)
(5.346e+07 0.385465 1.65518e-17 1.10412e+07 -4.67534e-10 1.93504e+07)
(5.346e+07 0.491515 2.62809e-17 8.48411e+06 1.55623e-12 1.85832e+07)
(5.346e+07 0.561011 -1.27554e-16 6.46553e+06 1.5928e-09 1.79777e+07)
(5.346e+07 0.600411 8.30212e-17 5.3426e+06 -1.12903e-09 1.76408e+07)
(5.346e+07 0.635752 9.39259e-17 4.20716e+06 -9.67178e-10 1.73001e+07)
(5.346e+07 0.646026 -1.00242e-16 3.2303e+06 8.03433e-10 1.70071e+07)
(5.346e+07 0.670246 0 2.32003e+06 0 1.6734e+07)
(5.346e+07 0.728286 -7.44801e-18 1.55248e+06 -3.97341e-10 1.65037e+07)
(5.346e+07 0.879959 1.30005e-16 902614 -1.13805e-09 1.63088e+07)
(5.346e+07 1.15486 1.78372e-16 423579 -6.14911e-10 1.61651e+07)
(5.346e+07 1.76874 5.8648e-18 167476 1.71475e-10 1.60882e+07)
(5.346e+07 2.35486 0 70895.3 0 1.60593e+07)
)
;
    }
    up
    {
        type            calculated;
        value           nonuniform List<symmTensor> 
15
(
(9.55272e+07 -1.59711 -3.07457e-09 -0.27024 2.39286e-17 2.86582e+07)
(9.65603e+07 -0.994947 2.57271e-09 -0.293772 -4.46738e-17 2.89681e+07)
(9.14443e+07 -0.603698 2.77578e-10 -0.253075 -1.22276e-17 2.74333e+07)
(8.4917e+07 -0.316729 1.16559e-09 -0.201309 -3.35028e-17 2.54751e+07)
(7.68319e+07 -0.134879 1.98881e-09 -0.132459 -2.85337e-17 2.30496e+07)
(6.96126e+07 -0.0705867 -1.83213e-09 -0.0568561 -2.15054e-18 2.08838e+07)
(6.30713e+07 -0.142119 2.43967e-09 0.017224 -9.66064e-18 1.89214e+07)
(5.79628e+07 -0.287394 2.12093e-09 0.0800439 -6.82345e-17 1.73888e+07)
(5.47772e+07 -0.748558 -4.7191e-10 0.138957 -2.19678e-17 1.64332e+07)
(5.33053e+07 -2.01221 0 0.103162 0 1.59916e+07)
(4.06417e+07 -0.427032 3.51232e-09 0.280974 1.19535e-16 1.21925e+07)
(4.96012e+07 -1.19729 1.09637e-09 0.196702 -7.72773e-17 1.48804e+07)
(6.31967e+07 -1.69376 -4.07122e-09 0.0682534 -1.49549e-16 1.8959e+07)
(7.68181e+07 -1.96215 -5.40225e-09 -0.0623038 4.93019e-18 2.30454e+07)
(8.95263e+07 -2.04356 1.97394e-09 -0.186369 1.28601e-16 2.68579e+07)
)
;
    }
}


// ************************************************************************* //
