/*--------------------------------*- C++ -*----------------------------------*\
| =========                 |                                                 |
| \\      /  F ield         | OpenFOAM: The Open Source CFD Toolbox           |
|  \\    /   O peration     | Version:  v2012                                 |
|   \\  /    A nd           | Website:  www.openfoam.com                      |
|    \\/     M anipulation  |                                                 |
\*---------------------------------------------------------------------------*/
FoamFile
{
    version     2.0;
    format      ascii;
    class       volSymmTensorField;
    location    "12";
    object      sigma;
}
// * * * * * * * * * * * * * * * * * * * * * * * * * * * * * * * * * * * * * //

dimensions      [1 -1 -2 0 0 0 0];


internalField   nonuniform List<symmTensor> 
7666
(
(2.64563e+07 -6.32762e+06 8.92048e-06 -3.20818e+06 -2.53808e-06 6.97443e+06)
(8.72834e+07 -2.3656e+07 -6.72539e-06 1.55136e+07 -4.79593e-06 3.08391e+07)
(2.02549e+08 -5.09486e+07 -0.000972151 2.43365e+07 -0.000347226 9.83505e+07)
(1.0101e+08 -3.06579e+07 -7.9397e-07 8.2441e+06 5.31128e-05 3.27763e+07)
(1.44287e+08 -2.4442e+07 -0.000237841 -2.05507e+07 3.19748e-05 3.71207e+07)
(1.85407e+08 -6.52789e+06 0.0001626 -1.05859e+07 -9.63389e-05 5.24463e+07)
(1.07118e+08 -4.72757e+06 -1.68135e-05 1.59465e+07 -3.63956e-05 3.69194e+07)
(1.07433e+08 -2.84283e+07 3.50281e-06 8.58951e+06 6.49333e-06 3.48068e+07)
(2.25654e+08 963366 -7.14573e-06 -925045 2.30134e-05 6.77447e+07)
(1.05957e+08 -8.65859e+06 -3.96985e-06 2.02266e+07 -4.21096e-05 3.7855e+07)
(6.90918e+07 -2.77709e+07 -2.61543e-05 8.46316e+06 -2.65775e-05 2.32665e+07)
(1.12759e+08 -1.18782e+07 7.0243e-05 4.76744e+06 -2.78473e-05 3.5258e+07)
(1.04615e+08 -2.90572e+07 8.15453e-05 8.71572e+06 4.57904e-05 3.39993e+07)
(9.92298e+07 -2.40714e+07 5.85669e-05 1.45131e+07 -7.19272e-05 3.41229e+07)
(1.0653e+08 -3.31432e+06 7.84629e-06 2.11265e+07 -1.254e-05 3.82968e+07)
(1.36118e+08 -2.15276e+07 -5.37331e-05 -2.33917e+07 -1.7479e-05 3.3818e+07)
(1.07689e+08 -2.81888e+07 1.91487e-06 9.29152e+06 2.1678e-05 3.50941e+07)
(2.00923e+08 -4.51544e+06 -0.000469446 -33324.4 0.000173774 6.0267e+07)
(1.18315e+08 -1.82875e+07 -1.30304e-05 4.96651e+06 -1.00209e-05 3.69846e+07)
(9.56093e+07 -1.58537e+07 -8.0658e-05 1.93754e+07 -6.69255e-06 3.44954e+07)
(7.60145e+07 -7.05713e+06 -3.60089e-05 2.02259e+07 5.02697e-05 2.88721e+07)
(1.46188e+08 -2.34536e+07 0.000190553 410620 0.000134216 4.39797e+07)
(1.02651e+08 -2.4574e+07 -0.000122738 1.3139e+07 -6.05343e-05 3.4737e+07)
(9.21218e+07 -3.43137e+07 -0.000123906 4.72373e+06 -1.49745e-06 2.90536e+07)
(1.77723e+08 -2.29656e+06 -0.000181445 -1.91479e+07 0.000207273 4.75726e+07)
(1.06935e+08 -3.22743e+06 -2.89565e-06 2.21887e+07 -9.9684e-07 3.87372e+07)
(1.8032e+08 545405 -0.000474817 -1.72301e+07 0.000164258 4.89269e+07)
(5.12296e+07 -2.75234e+07 -2.19042e-05 -2.0304e+06 6.56776e-07 1.47597e+07)
(1.06718e+08 -2.86962e+07 3.57286e-05 9.73088e+06 3.29278e-05 3.49348e+07)
(1.08702e+08 -1.60158e+06 0.00018336 1.11633e+06 3.58045e-05 3.29455e+07)
(1.10443e+08 -1.63737e+06 -5.93142e-05 -9516.04 -3.67036e-05 3.313e+07)
(2.01036e+08 -6.68979e+06 -0.000180511 -467936 0.00016281 6.01706e+07)
(1.92673e+07 -2.21105e+07 6.63198e-06 -2.26015e+07 -1.16622e-05 -1.00023e+06)
(1.07969e+08 -4.89888e+06 -8.13585e-05 5.01108e+06 4.36479e-05 3.3894e+07)
(6.97841e+06 -1.66915e+07 -3.31599e-06 -5.4384e+07 8.03602e-06 -1.42217e+07)
(8.61364e+07 -1.76877e+07 -6.65066e-05 1.79857e+07 -7.50112e-05 3.12366e+07)
(8.61458e+07 -1.61132e+07 -5.83334e-05 1.90022e+07 -6.14363e-05 3.15444e+07)
(1.10258e+08 -3.91161e+06 6.25368e-05 1.67407e+06 2.90441e-05 3.35797e+07)
(1.80957e+08 -1.49439e+07 -0.000125751 -3.80706e+06 -9.88959e-06 5.31451e+07)
(1.05754e+08 -1.12353e+07 9.22873e-05 1.86159e+07 4.47717e-05 3.73109e+07)
(6.8966e+07 -2.93518e+07 -7.03831e-05 -4.5896e+07 -9.21238e-06 6.921e+06)
(2.44697e+08 -778393 -0.000966885 1.7966e+07 -0.00084304 9.41608e+07)
(2.98424e+08 3.22574e+06 -0.000123434 7.64545e+07 -2.66674e-05 1.25621e+08)
(6.4312e+07 -3.43229e+07 -1.24233e-05 -4.7785e+06 1.62005e-07 1.78601e+07)
(2.43705e+08 3.44463e+07 -0.000200019 3.43835e+07 0.000197652 8.34265e+07)
(1.06469e+08 -3.67784e+06 -8.95317e-05 1.6317e+07 -7.38114e-05 3.68358e+07)
(2.01435e+08 -3.15411e+06 0.000366067 -1.87799e+06 2.59324e-05 5.9867e+07)
(7.58129e+07 -3.13216e+07 -0.000110876 -4.6895e+07 -9.15809e-05 8.67536e+06)
(1.03238e+08 -3.21763e+07 -3.57753e-05 -3.36937e+07 -2.56172e-05 2.08632e+07)
(5.64448e+07 -7.3703e+06 1.10689e-05 1.5708e+07 5.12012e-06 2.16458e+07)
(4.54387e+07 -2.83516e+07 -4.67041e-07 -4.31171e+06 -7.18805e-06 1.23381e+07)
(1.45324e+08 -1.39725e+07 -0.000235762 -201816 9.05476e-06 4.35365e+07)
(1.07175e+08 -2.79241e+06 5.08608e-05 1.36286e+07 9.61666e-06 3.6241e+07)
(2.25398e+08 -759447 -0.000448009 -704665 3.59976e-05 6.77233e+07)
(7.02417e+07 -4.11617e+06 5.72125e-05 2.02779e+07 -1.60084e-05 2.71559e+07)
(1.25939e+08 -2.22518e+07 -0.000109194 -2.21726e+07 3.85075e-05 3.11301e+07)
(5.75548e+07 -1.09158e+07 1.9102e-05 1.54463e+07 2.382e-05 2.19003e+07)
(5.39167e+07 -9.03845e+06 1.18628e-05 1.4589e+07 1.94568e-05 2.05517e+07)
(1.66521e+08 -4.71637e+06 0.000375478 -2.93306e+07 8.6566e-05 4.11571e+07)
(1.87875e+08 -4.82789e+06 0.000375337 -6.81899e+06 -0.00011077 5.43169e+07)
(6.76669e+07 -1.66271e+07 4.20337e-06 1.633e+07 1.53978e-05 2.51991e+07)
(1.10695e+08 -3.74121e+06 8.9485e-05 2.08717e+06 8.42425e-06 3.38347e+07)
(1.00943e+08 -2.76064e+07 1.97558e-05 1.13071e+07 1.66675e-05 3.3675e+07)
(1.0085e+08 -2.82197e+07 2.12971e-05 1.04402e+07 2.08519e-05 3.33869e+07)
(5.30206e+07 -1.30459e+07 5.37097e-05 1.27309e+07 9.37056e-06 1.97254e+07)
(1.08853e+08 -3.33043e+07 7.14106e-05 -3.10331e+07 -1.49687e-05 2.33459e+07)
(1.02454e+08 -9.04551e+06 1.86816e-05 2.36999e+07 -2.17437e-05 3.78463e+07)
(5.69087e+07 -1.32466e+07 4.39018e-05 1.43094e+07 1.44164e-05 2.13654e+07)
(1.55795e+08 -1.22748e+07 0.000304044 -2.86084e+07 -0.00011467 3.81559e+07)
(1.69279e+08 -4.84287e+06 5.69089e-05 -3.00052e+07 4.78483e-05 4.17822e+07)
(1.59645e+08 -1.37463e+07 0.000258834 -2.63721e+07 -0.000153178 3.99819e+07)
(1.06632e+08 -1.49675e+06 7.68282e-05 3.61715e+07 8.70411e-05 4.2841e+07)
(1.06473e+08 -1.65948e+06 6.54791e-05 3.49562e+07 6.20028e-05 4.24288e+07)
(1.07469e+08 -784970 -9.41555e-05 984169 9.65023e-06 3.25358e+07)
(1.07402e+08 -766319 -7.77623e-05 1.01666e+06 2.02521e-05 3.25255e+07)
(1.06936e+08 -894553 4.06326e-05 1.42757e+07 1.77972e-05 3.63637e+07)
(1.9007e+08 2.90513e+07 -0.000382906 1.71549e+07 0.000101114 6.21676e+07)
(9.74442e+07 -2.56977e+07 -2.48933e-05 1.37893e+07 -1.94216e-05 3.33701e+07)
(9.6686e+07 -2.62317e+07 -4.9553e-05 1.2468e+07 -3.19237e-05 3.27462e+07)
(6.74474e+07 -1.67205e+07 -4.34348e-06 1.57409e+07 2.2345e-06 2.49565e+07)
(1.07867e+08 -9.20163e+06 5.04404e-05 1.30508e+07 -2.22924e-05 3.62753e+07)
(1.05537e+08 -4.30807e+06 -5.7773e-05 3.06417e+07 3.6681e-05 4.08537e+07)
(7.96519e+07 -3.6972e+07 -4.60969e-05 -1.01009e+07 6.84945e-06 2.08653e+07)
(2.80329e+08 4.3032e+06 -0.000211312 5.65745e+07 -8.93489e-05 1.04004e+08)
(1.16659e+08 -9.50294e+06 -6.74407e-05 1.55539e+06 1.64982e-05 3.54645e+07)
(1.40774e+08 -3.29857e+06 0.000260749 433959 -5.93667e-05 4.23623e+07)
(1.38536e+08 -5.17544e+06 0.000396191 -482334 2.28208e-05 4.14161e+07)
(1.51546e+08 -1.73789e+07 -1.33574e-05 1.68556e+06 -6.35876e-05 4.59696e+07)
(9.07505e+07 -3.43086e+07 -0.00011195 -3.68231e+07 -9.61812e-05 1.61782e+07)
(1.0985e+08 -2.41768e+06 0.000103543 655862 5.26997e-05 3.31518e+07)
(1.06117e+08 -1.8975e+07 1.59728e-05 1.29853e+07 1.21489e-05 3.57308e+07)
(1.07346e+08 -1.84492e+07 1.33574e-05 1.37406e+07 5.70636e-05 3.6326e+07)
(1.52879e+08 -1.29601e+06 0.000138338 396373 9.37585e-06 4.59826e+07)
(1.83792e+08 -748795 -2.18108e-05 -2.63534e+07 -0.000391941 4.72316e+07)
(2.2216e+08 1.79526e+06 4.06793e-05 -692044 8.55853e-05 6.64405e+07)
(1.22e+08 -2.33332e+07 0.000117975 -4.1019e+07 3.63942e-05 2.42942e+07)
(-8.14913e+06 -4.80911e+06 2.90032e-05 -7.9563e+07 -3.23835e-05 -2.63136e+07)
(1.97384e+08 -6.13296e+07 -0.000663354 3.83308e+07 -0.000416839 1.07019e+08)
(1.19588e+08 -1.72984e+07 -5.18415e-06 4.9405e+06 -2.26953e-05 3.73587e+07)
(9.37583e+07 -1.50839e+07 -3.47478e-05 1.91416e+07 -1.22883e-05 3.387e+07)
(1.52766e+08 -1.68268e+06 4.95063e-06 -648156 -8.71265e-05 4.56354e+07)
(1.0786e+08 -1.12682e+06 7.54738e-05 996755 3.17179e-05 3.2657e+07)
(3.57831e+07 -2.6488e+07 -7.00561e-06 -1.52928e+07 -1.63559e-05 6.14708e+06)
(2.27859e+08 -1.78932e+07 0.000420062 1.00596e+07 0.000350157 7.94856e+07)
(4.44106e+07 -3.46444e+07 -2.19976e-05 -3.51717e+07 2.38395e-05 2.77166e+06)
(1.7567e+08 -1.56498e+07 0.000209421 -1.9155e+06 -0.000118646 5.21264e+07)
(2.58825e+08 1.80046e+07 -6.8105e-05 3.52577e+07 -5.34482e-05 9.94665e+07)
(1.4967e+08 -2.44556e+07 -0.000174673 -9.84012e+06 2.12796e-05 4.1949e+07)
(1.0666e+08 -3.22998e+06 -3.42808e-05 1.55235e+07 -1.35734e-05 3.66551e+07)
(1.45529e+08 -9.784e+06 -4.92728e-05 -220357 5.18824e-05 4.35927e+07)
(9.39131e+07 -2.89268e+07 8.26662e-06 1.09963e+07 -4.69522e-06 3.14728e+07)
(1.3859e+08 -3.00947e+07 -0.000189525 -8.40713e+06 0.000116708 3.90549e+07)
(8.08889e+07 -2.72819e+07 -7.69216e-05 1.21369e+07 -4.69143e-05 2.79077e+07)
(6.58462e+07 -1.48354e+07 -1.39178e-05 1.6216e+07 3.12089e-05 2.46187e+07)
(6.43596e+07 -2.77595e+07 6.07153e-06 7.31561e+06 9.99832e-06 2.15026e+07)
(1.52824e+08 -2.02697e+07 -6.87718e-05 -1.77992e+07 -3.80989e-05 4.05075e+07)
(5.47656e+07 -2.84193e+07 -1.42447e-05 1.31929e+06 -9.64367e-06 1.68255e+07)
(-981528 -1.01115e+07 -1.03683e-05 -7.1608e+07 2.2418e-06 -2.17768e+07)
(1.12672e+08 -5.92509e+06 6.99627e-05 2.09476e+06 3.9068e-05 3.44299e+07)
(1.12671e+08 -6.64976e+06 2.6668e-05 2.87241e+06 6.12583e-05 3.4663e+07)
(2.11232e+08 -3.20776e+06 0.000246084 -1.3564e+06 7.32904e-05 6.29626e+07)
(1.06925e+08 -370512 -0.000152255 1.78439e+06 4.65932e-05 3.26128e+07)
(1.11209e+08 -1.32447e+07 -8.71965e-05 9.06745e+06 -2.23859e-05 3.60829e+07)
(1.07001e+08 -4.55495e+06 -2.45664e-05 2.23783e+07 -1.51993e-05 3.88137e+07)
(9.11494e+07 -3.27713e+07 -9.41555e-05 6.11758e+06 -1.04209e-05 2.91801e+07)
(5.43699e+07 -1.58757e+06 -1.40112e-05 1.57243e+07 -2.01639e-06 2.10283e+07)
(1.47675e+08 -2.62921e+07 -0.000187727 -1.05441e+07 -7.18075e-06 4.11393e+07)
(1.33189e+08 -3.12367e+07 0.000102469 -2.01439e+06 2.29551e-05 3.93523e+07)
(1.00677e+08 -3.54844e+07 8.0658e-05 -737400 -1.25955e-06 2.99818e+07)
(1.07952e+08 -2.28066e+07 3.19456e-05 1.12769e+07 -1.26656e-05 3.57688e+07)
(1.31161e+08 -2.09396e+07 -0.000163978 -1.98805e+07 3.69546e-05 3.33842e+07)
(1.27973e+08 -1.2658e+07 1.62063e-05 1.87577e+06 -2.48699e-06 3.89545e+07)
(8.73263e+07 -9.74347e+06 6.70671e-05 2.09756e+07 1.44637e-06 3.24906e+07)
(1.78677e+08 1.47445e+07 -0.000212515 2.22145e+07 -5.7446e-06 6.02675e+07)
(1.10956e+08 -1.28259e+07 2.47532e-05 7.87689e+06 -1.72455e-05 3.56498e+07)
(1.77018e+08 -1.661e+07 0.000259815 -2.75233e+06 -6.55842e-05 5.22798e+07)
(1.07346e+08 -9.13522e+06 5.04871e-05 1.30837e+07 -2.34484e-05 3.61289e+07)
(1.05742e+08 -1.1193e+07 0.000115406 1.82588e+07 3.93394e-05 3.72002e+07)
(1.0115e+08 -2.12501e+07 0.000106018 1.4132e+07 1.33836e-05 3.45847e+07)
(8.92852e+07 -3.14243e+07 -2.37257e-05 7.89416e+06 1.63289e-05 2.91538e+07)
(1.04659e+08 -3.625e+07 9.13532e-05 -1.80923e+06 -3.75384e-06 3.0855e+07)
(1.05955e+08 -3.74135e+06 -0.000128343 3.16092e+07 -3.44154e-05 4.12692e+07)
(1.013e+08 -2.06102e+06 -2.96104e-05 2.67932e+07 5.04169e-05 3.8428e+07)
(1.02035e+08 -2.16339e+06 -4.34815e-05 2.7138e+07 1.29741e-05 3.8752e+07)
(1.03289e+08 -9.29617e+06 -7.28584e-06 2.3444e+07 -2.45926e-05 3.802e+07)
(1.01925e+08 -1.5574e+07 0.000105878 1.81274e+07 4.68982e-05 3.60157e+07)
(1.06481e+08 -4.96697e+06 -4.18002e-05 1.55483e+07 -5.09556e-05 3.66088e+07)
(1.0642e+08 -3.38702e+06 1.63464e-05 3.15438e+07 1.02607e-05 4.1389e+07)
(2.56347e+07 -1.16258e+07 1.26101e-05 -3.58302e+06 -5.13471e-06 6.61549e+06)
(1.13204e+08 -2.40982e+07 -0.000114192 7.373e+06 2.75875e-05 3.61732e+07)
(1.0687e+08 -7.73532e+06 6.26302e-05 2.13338e+07 -2.82005e-05 3.8461e+07)
(9.74813e+07 -2.96395e+07 -5.69323e-05 -4.09011e+07 -9.41204e-05 1.69741e+07)
(6.99224e+07 -1.88347e+07 -6.35176e-06 1.58823e+07 -2.14229e-05 2.57414e+07)
(6.56506e+07 -3.10201e+07 -8.04244e-05 -4.70151e+07 -4.73463e-05 5.59065e+06)
(9.83041e+07 -9.44863e+06 -2.70884e-06 2.2811e+07 4.32217e-05 3.63345e+07)
(9.77886e+07 -9.27252e+06 6.2817e-05 2.2412e+07 -7.86891e-06 3.60602e+07)
(6.74217e+07 -3.30392e+07 -9.05592e-05 -4.31774e+07 -0.000118202 7.2733e+06)
(1.11373e+08 -3.63585e+07 1.35442e-06 -5.19429e+06 4.60999e-05 3.18537e+07)
(9.73885e+07 -3.27682e+07 -4.71711e-05 5.94556e+06 2.03747e-05 3.10002e+07)
(1.07983e+08 -4.39215e+06 -2.6201e-05 8.68288e+06 1.78059e-05 3.49996e+07)
(2.1782e+08 -2.97826e+06 0.000484245 -6.9504e+06 0.000261626 6.90534e+07)
(1.64755e+08 6.23552e+06 0.000109042 -537477 -1.48986e-05 4.92654e+07)
(1.44537e+08 -2.33587e+07 0.000171311 1.34962e+06 0.000131314 4.37661e+07)
(2.56241e+08 7.87923e+06 -0.000532692 2.9176e+07 -0.000405801 9.56872e+07)
(2.10284e+08 -3.36485e+07 -0.000558461 3.38993e+06 0.000326094 6.96286e+07)
(2.3216e+08 -2.56732e+07 2.79428e-05 2.08881e+07 0.000212436 8.10641e+07)
(9.966e+07 -3.41181e+07 -7.72019e-05 4.99552e+06 2.72197e-05 3.13967e+07)
(5.28828e+07 -1.06657e+07 2.2418e-05 1.36166e+07 7.67972e-06 1.99498e+07)
(5.26942e+07 -1.0752e+07 1.98959e-05 1.33813e+07 1.23178e-05 1.98227e+07)
(2.11259e+08 4.22806e+06 0.000362791 -1.34319e+07 0.000162241 6.54935e+07)
(8.3673e+07 -2.46873e+07 -0.000114565 1.42542e+07 -2.20874e-05 2.93782e+07)
(6.50725e+07 -2.54703e+07 9.52764e-06 8.68036e+06 2.0652e-06 2.21259e+07)
(1.366e+08 -2.36389e+07 7.7342e-05 1.94918e+06 -5.78839e-05 4.15647e+07)
(1.29276e+08 -1.06072e+07 1.9569e-05 119982 4.31312e-05 3.88188e+07)
(8.94189e+07 -3.18312e+07 5.16547e-05 -4.39618e+07 -4.81928e-05 1.36371e+07)
(6.65614e+07 -4.04239e+06 2.64345e-05 1.88974e+07 -4.58868e-06 2.56377e+07)
(1.41629e+08 -2.96308e+07 -0.00013745 -5.61186e+06 0.000136534 4.0805e+07)
(2.12145e+08 3.14807e+06 -0.000200512 -493783 7.20878e-05 6.34952e+07)
(1.14737e+08 -3.9951e+06 -2.39125e-05 345307 2.27741e-05 3.45248e+07)
(1.03226e+08 -3.13366e+07 -6.02483e-06 7.6394e+06 -1.55204e-05 3.32596e+07)
(1.39804e+08 -2.65301e+07 0.000450181 492305 -1.36405e-05 4.20889e+07)
(-1.19522e+07 -2.35757e+06 4.28277e-05 -1.00721e+08 -4.27182e-05 -3.3802e+07)
(1.33945e+08 -2.06963e+07 5.89873e-05 2.55915e+06 -3.90038e-05 4.09511e+07)
(-3.19679e+06 -1.10025e+07 2.56405e-05 -7.37444e+07 -2.93681e-05 -2.30823e+07)
(1.0202e+08 -3.45365e+07 -3.75968e-05 -2.96357e+07 1.96099e-05 2.17152e+07)
(1.2275e+08 -2.2357e+07 7.4026e-05 -3.83346e+07 8.16621e-05 2.53247e+07)
(1.063e+08 -374765 3.22258e-05 3.47639e+07 -1.62064e-06 4.23192e+07)
(1.0699e+08 20317.1 5.45504e-05 9485.4 1.84656e-05 3.20999e+07)
(1.64887e+08 -6.20659e+06 0.000108237 -2.84343e+07 -6.235e-05 4.09359e+07)
(1.07968e+08 -6.65547e+06 5.33361e-05 7.78907e+06 2.54829e-05 3.47272e+07)
(8.45306e+07 -2.62508e+07 -8.21058e-05 1.33894e+07 -2.48809e-05 2.9376e+07)
(1.04292e+08 -1.49071e+07 1.6253e-05 1.65529e+07 2.66928e-05 3.62534e+07)
(1.04954e+08 -1.46028e+07 2.26982e-05 1.78707e+07 2.30733e-05 3.68473e+07)
(1.01019e+08 -2.02603e+07 7.7342e-05 1.46646e+07 3.97072e-05 3.4705e+07)
(1.40074e+08 -2.82364e+07 -0.000277469 -1.48162e+07 -7.45281e-05 3.75774e+07)
(1.99097e+08 1.80568e+07 -8.77336e-05 -9.12213e+06 6.58061e-05 5.69923e+07)
(9.16507e+07 -2.55694e+07 7.05232e-06 1.38881e+07 -4.90247e-05 3.16616e+07)
(1.06805e+08 -1.09187e+06 1.8775e-05 1.30805e+07 1.77972e-05 3.59656e+07)
(1.07292e+08 -4.96908e+06 -6.24434e-05 1.81119e+07 -3.69575e-05 3.76211e+07)
(-1.07991e+07 2.50376e+07 5.10476e-05 -1.17507e+08 -3.61139e-05 -3.84919e+07)
(1.43434e+08 -2.76376e+07 -0.00023296 -3.80156e+06 0.000145921 4.18898e+07)
(5.08549e+07 -2.59805e+07 -8.07981e-06 1.54778e+06 1.43031e-05 1.57208e+07)
(1.15016e+08 -4.14914e+06 -3.32533e-05 727862 5.49707e-05 3.47232e+07)
(1.82056e+08 -1.50443e+07 0.00020851 -2.75919e+06 -0.000179898 5.37891e+07)
(8.69912e+07 -6.81689e+06 1.85415e-05 2.1384e+07 -1.83788e-05 3.25126e+07)
(2.18305e+08 1.95608e+07 7.14961e-05 -6.75347e+06 3.57933e-05 7.23081e+07)
(1.00253e+08 -1.04057e+07 -2.73686e-05 2.25267e+07 -2.55413e-07 3.6834e+07)
(4.61391e+07 -2.85365e+07 -4.30612e-05 -5.11621e+07 -9.55099e-06 -1.50689e+06)
(5.46677e+07 -2.41521e+07 -2.00828e-06 5.65711e+06 1.39747e-05 1.80974e+07)
(6.39475e+06 -1.98808e+07 3.59622e-06 -4.90313e+07 -8.51328e-06 -1.2791e+07)
(1.92038e+08 1.19986e+07 1.45016e-05 -1.61831e+07 0.000164142 5.27564e+07)
(5.49861e+07 -2.4481e+07 1.27969e-05 6.18199e+06 8.33449e-06 1.83504e+07)
(1.00404e+08 -2.25593e+06 -6.58528e-06 2.63015e+07 3.66983e-05 3.80118e+07)
(1.05138e+08 -4.63399e+06 -3.74567e-05 2.97284e+07 3.59804e-05 4.04598e+07)
(1.06692e+08 -3.32114e+06 -0.000114939 3.15552e+07 -5.70596e-05 4.1474e+07)
(6.63212e+07 -2.31764e+07 1.71871e-05 1.18604e+07 -3.70907e-05 2.34545e+07)
(9.17138e+07 -2.83033e+07 -3.50281e-05 1.1728e+07 2.28266e-06 3.10325e+07)
(2.0031e+08 -3.18354e+06 0.000591017 -4.70247e+06 2.99724e-05 5.86823e+07)
(6.27554e+07 -2.12717e+07 6.34709e-05 1.19442e+07 -2.48958e-05 2.24099e+07)
(1.58225e+08 -4.69748e+06 -8.94383e-05 -819384 0.000107869 4.72216e+07)
(2.2568e+08 3.55532e+07 -6.78935e-05 6.6607e+06 -5.15818e-05 7.5084e+07)
(2.33704e+08 7.54556e+06 -0.00096098 7.69644e+06 -0.000596235 8.61661e+07)
(1.1085e+08 -1.41459e+06 -3.0778e-05 312453 -2.52728e-05 3.33487e+07)
(1.01407e+08 -1.1954e+06 -8.77103e-05 2.73533e+07 -9.56759e-06 3.86282e+07)
(1.33835e+08 -1.25079e+07 -0.000119843 1.32152e+06 -3.71765e-05 4.0547e+07)
(1.1494e+08 -3.45488e+07 -2.06899e-05 -1.51958e+06 3.83382e-05 3.40262e+07)
(2.36673e+08 2.68363e+07 -0.000273592 1.32383e+07 -0.000225615 8.30719e+07)
(1.93248e+08 1.90906e+07 -0.000159308 2.03962e+07 1.8775e-05 6.40934e+07)
(7.66087e+07 -852290 1.31239e-05 2.07848e+07 6.74792e-06 2.92181e+07)
(1.0124e+08 -3.34403e+07 -5.72592e-05 5.45241e+06 2.67965e-06 3.20077e+07)
(9.9665e+07 -3.22325e+07 -9.88259e-05 6.61072e+06 -9.65753e-06 3.18827e+07)
(1.09826e+08 -7.21534e+06 0.000129791 6.9473e+06 -1.47205e-05 3.5032e+07)
(8.99583e+07 -3.47012e+07 -9.87325e-05 -3.85862e+07 -0.000133375 1.54116e+07)
(1.13356e+08 -2.34014e+07 2.56873e-06 -4.11496e+07 -6.17662e-06 2.16619e+07)
(1.06777e+08 -132251 3.62424e-05 3.64509e+07 2.1425e-05 4.29682e+07)
(1.06736e+08 130725 0.00012484 59249.1 -2.38541e-05 3.20384e+07)
(2.48839e+08 2.65949e+07 -0.000210738 2.56742e+07 9.38976e-05 8.35558e+07)
(1.47116e+08 -1.20471e+07 -0.000294189 807333 4.1952e-05 4.43771e+07)
(-1.31001e+06 -1.06738e+07 -1.8775e-05 -8.18134e+07 -5.63368e-07 -2.4937e+07)
(1.09232e+08 -5.475e+06 -9.01389e-06 5.99065e+06 4.22351e-05 3.45668e+07)
(1.00081e+08 -6.00869e+06 4.63305e-05 2.48125e+07 6.96694e-06 3.74681e+07)
(1.24391e+08 -2.78852e+07 3.46077e-05 3.2128e+06 3.74363e-05 3.8281e+07)
(9.86601e+07 -2.82906e+07 -9.4389e-05 1.08288e+07 2.74065e-05 3.28467e+07)
(5.43439e+07 -1.86364e+07 -1.18161e-05 1.01785e+07 -3.11604e-07 1.93567e+07)
(8.0318e+07 -2.75429e+07 -3.92781e-05 1.11493e+07 -3.54309e-05 2.74402e+07)
(7.78941e+07 -2.38894e+07 -3.89979e-05 1.38096e+07 -2.92594e-05 2.75111e+07)
(-8.1246e+06 8.27113e+06 -5.413e-05 -1.36169e+08 -0.000122819 -4.3288e+07)
(7.83259e+07 -2.61712e+07 -0.000114985 1.19592e+07 -3.0076e-05 2.70855e+07)
(2.07994e+08 -1.29559e+07 0.000534178 -1.21743e+07 0.000237608 5.98253e+07)
(1.4172e+08 -2.89738e+07 -1.45717e-05 -7.88542e+06 0.000109072 4.01505e+07)
(1.40534e+08 -2.83748e+07 -0.000154404 -6.23075e+06 0.00018364 4.0291e+07)
(7.16762e+07 -2.07834e+07 -2.10635e-05 1.49105e+07 -1.0226e-05 2.5976e+07)
(1.57792e+08 -1.82697e+07 0.000102375 -1.88024e+07 -7.47149e-05 4.16967e+07)
(1.29964e+08 -1.09088e+07 2.55004e-05 1.55482e+06 5.53035e-05 3.94557e+07)
(1.05319e+08 -575329 9.29411e-05 3.34037e+07 -3.22853e-05 4.16168e+07)
(1.07507e+08 -350186 3.08714e-05 132499 2.20035e-05 3.22919e+07)
(1.87021e+08 9.38505e+06 -0.000141764 2.76503e+07 -1.5786e-05 6.44014e+07)
(1.47315e+08 -2.14681e+07 0.000129931 1.42213e+06 3.27396e-05 4.46211e+07)
(1.45613e+08 -2.61903e+07 -0.00027462 -1.13695e+07 4.4544e-05 4.02731e+07)
(2.492e+07 -1.22809e+07 -3.16654e-05 -7.22115e+07 1.8454e-05 -1.41874e+07)
(1.00439e+08 -3.7055e+07 5.17948e-05 -1.86196e+07 3.91701e-05 2.45458e+07)
(1.70534e+08 -7.35148e+06 0.000209491 -1.87674e+07 -5.00434e-05 4.55301e+07)
(1.802e+08 -1.44928e+07 0.000195317 -3.37499e+06 -1.04909e-05 5.30476e+07)
(1.48064e+08 -1.85091e+07 -2.94236e-06 -65591.8 -4.31546e-05 4.43995e+07)
(1.07316e+08 -5.61028e+06 -1.16293e-05 2.09594e+07 3.17325e-05 3.84827e+07)
(-1.09845e+07 1.13086e+07 -1.50854e-05 -1.3778e+08 -9.49786e-05 -4.46293e+07)
(9.3848e+07 -2.88864e+07 -2.13438e-05 1.09642e+07 4.73901e-06 3.14437e+07)
(1.72278e+08 -1.5232e+07 0.000317097 -8.90553e+06 -0.000107163 4.90118e+07)
(2.94473e+08 2.80425e+06 0.000297014 6.99922e+07 0.000449795 1.36415e+08)
(9.4634e+06 -9.54411e+06 -1.02749e-06 -2.08921e+07 -6.35358e-06 -3.42862e+06)
(1.07068e+08 -1.04986e+06 3.9465e-05 1.59032e+07 -1.08281e-05 3.68914e+07)
(1.07723e+08 -3.51371e+06 -2.53603e-05 1.95064e+07 -9.01185e-05 3.81688e+07)
(1.10296e+08 -7.29571e+06 2.68549e-05 6.25742e+06 2.80341e-05 3.49659e+07)
(1.47576e+08 -1.20348e+07 -0.000119049 866638 4.89401e-05 4.45328e+07)
(1.15367e+07 -9.65643e+06 -2.00828e-06 -2.40006e+07 -5.0528e-06 -3.73917e+06)
(8.06501e+07 -2.62708e+07 -8.39273e-05 1.29506e+07 -2.72569e-05 2.80802e+07)
(1.98938e+08 4.01975e+07 -0.000103893 7.1963e+06 0.000144199 6.18404e+07)
(1.89125e+08 3.37549e+07 -5.33361e-05 -1.87638e+06 3.323e-05 5.61746e+07)
(1.12766e+08 -3.60864e+07 -0.000128483 -8.05656e+06 2.32907e-05 3.14128e+07)
(1.1764e+08 -3.45762e+07 2.00828e-06 -5.62308e+06 6.97059e-06 3.3605e+07)
(1.06917e+08 -2.95448e+06 -7.51936e-06 1.21102e+07 6.57754e-05 3.57081e+07)
(1.81307e+08 -9.78875e+06 -0.000430658 -1.01954e+06 -0.000188509 5.40863e+07)
(8.53791e+07 -3.08599e+07 3.71765e-05 8.53334e+06 2.11475e-05 2.81737e+07)
(1.09557e+08 -3.4089e+06 -2.61076e-05 2.57652e+06 1.78818e-05 3.36402e+07)
(5.22429e+07 -3.25982e+07 4.9086e-05 -1.11421e+07 -2.38111e-05 1.23302e+07)
(5.18827e+07 -3.61698e+07 -4.94596e-05 -3.36021e+07 -5.68914e-06 5.48417e+06)
(1.44946e+08 -2.18998e+07 0.000111529 386050 9.19312e-05 4.35995e+07)
(1.56749e+08 -1.00609e+07 0.000226492 -3.32385e+07 -0.000142109 3.70531e+07)
(4.85522e+07 -3.29931e+07 -2.94236e-05 -3.13811e+07 -7.24205e-06 5.15133e+06)
(1.05002e+08 -5.43092e+06 -0.000108027 2.82472e+07 3.34518e-05 3.99748e+07)
(1.04211e+08 -6.07356e+06 -2.72752e-05 2.7083e+07 -9.54588e-06 3.93881e+07)
(1.99204e+08 8.30301e+06 0.000482067 -2.70893e+07 6.30326e-05 5.31144e+07)
(1.96325e+08 -1.23256e+06 0.00027037 -5.18331e+06 0.00010784 5.73426e+07)
(6.42052e+07 -3.35241e+07 2.09234e-05 -4.90765e+06 -5.45416e-06 1.77893e+07)
(9.26926e+07 -2.77722e+07 -3.64292e-06 1.17036e+07 -1.10178e-05 3.13189e+07)
(2.06495e+08 -1.17938e+07 0.000430682 -1.4858e+07 0.000236206 5.74911e+07)
(1.05034e+08 -4.76293e+06 1.73739e-05 2.86712e+07 1.96004e-05 4.01114e+07)
(3.70754e+07 -1.51393e+07 -2.89565e-06 3.22904e+06 3.36215e-06 1.20913e+07)
(4.32593e+07 -1.51574e+07 -1.9569e-05 5.81325e+06 4.20647e-06 1.47218e+07)
(1.19581e+08 -1.478e+07 6.20697e-05 3.47673e+06 -2.48699e-06 3.69174e+07)
(9.47281e+07 -1.24177e+07 -1.95223e-05 2.08179e+07 4.06326e-06 3.46638e+07)
(8.01632e+07 -2.3886e+07 -2.86296e-05 1.46979e+07 -2.47758e-05 2.84583e+07)
(1.01914e+08 -1.55584e+07 8.78504e-05 1.85273e+07 6.15764e-05 3.61325e+07)
(1.06692e+08 -915591 5.7446e-06 3.86277e+07 3.08353e-05 4.3596e+07)
(1.07048e+08 -18448.3 -1.86816e-07 141120 -2.48933e-05 3.21566e+07)
(5.96258e+07 -2.05826e+07 3.05445e-05 1.13665e+07 -2.33728e-05 2.12977e+07)
(7.80441e+07 -985617 -3.09648e-05 2.11909e+07 9.18087e-06 2.97705e+07)
(9.18986e+07 -2.79796e+07 8.48613e-05 -4.26892e+07 -3.15253e-07 1.47628e+07)
(9.18542e+07 -3.64179e+07 0.000111296 -622305 -1.36639e-05 2.73696e+07)
(7.01782e+07 -1.23706e+07 -7.61277e-06 1.85021e+07 1.9123e-05 2.66041e+07)
(2.44939e+07 -2.06627e+07 1.09288e-05 -1.39362e+07 -1.15855e-05 3.16731e+06)
(5.18138e+07 -7.59817e+06 2.48933e-05 1.38736e+07 6.63636e-06 1.97062e+07)
(4.40143e+07 -1.12823e+07 -5.6979e-06 9.40136e+06 1.89117e-05 1.60247e+07)
(4.61269e+07 -9.527e+06 -1.69536e-05 1.00864e+07 8.80482e-06 1.6864e+07)
(7.82796e+07 -2.23834e+07 -1.15826e-05 1.5189e+07 -2.23953e-05 2.80406e+07)
(1.20022e+08 -1.34499e+07 0.000104384 2.35708e+06 -1.93063e-05 3.67137e+07)
(9.44442e+07 -1.10364e+07 6.77209e-06 2.16272e+07 -2.71541e-06 3.48214e+07)
(7.79335e+07 -3.80593e+07 -8.92048e-05 -1.12185e+07 1.14031e-05 2.00145e+07)
(1.20432e+08 -1.51825e+07 8.17322e-06 3.57641e+06 8.08273e-06 3.72025e+07)
(9.36296e+07 -1.27083e+07 -2.8256e-05 2.0508e+07 8.15205e-06 3.42413e+07)
(1.15254e+08 -3.3638e+07 -0.000115266 2.43699e+06 1.36814e-05 3.53073e+07)
(1.15225e+08 -3.30383e+07 -5.12344e-05 2.05675e+06 -1.57276e-05 3.51845e+07)
(2.11206e+08 2.76098e+06 -7.80192e-05 -176713 0.000111693 6.33088e+07)
(1.23353e+08 -2.19138e+07 1.56459e-05 5.08171e+06 3.79967e-05 3.85303e+07)
(1.06708e+08 -3.78318e+06 -5.0347e-05 7.29223e+06 9.67359e-06 3.42001e+07)
(7.6992e+07 -2.24696e+07 3.73633e-07 1.47341e+07 -3.14078e-05 2.75178e+07)
(4.26806e+07 -1.84862e+06 -1.59261e-05 1.02348e+07 3.58244e-06 1.58746e+07)
(1.14172e+08 -1.13552e+07 9.21472e-05 5.76075e+06 -1.93238e-05 3.59799e+07)
(5.65282e+07 -1.35569e+07 5.52976e-05 1.36159e+07 1.66531e-05 2.10432e+07)
(5.76015e+07 -3.48763e+07 3.39072e-05 -1.23721e+07 -4.03684e-05 1.35688e+07)
(5.79458e+07 -3.44576e+07 3.18055e-05 -1.28998e+07 -3.57899e-05 1.35138e+07)
(1.41654e+08 -2.40799e+07 1.67201e-05 69657.3 0.000102854 4.2517e+07)
(2.1716e+08 -6.15897e+07 -0.000426623 5.80628e+07 -0.000479986 1.3276e+08)
(1.08672e+08 -6.3583e+06 4.92728e-05 7.8389e+06 -1.94289e-05 3.49534e+07)
(2.19974e+08 -869417 -0.00016274 -1.03214e+06 1.7082e-05 6.56826e+07)
(2.23588e+08 881697 -0.000428113 -904440 3.72582e-05 6.68051e+07)
(1.41151e+08 -2.18536e+07 9.06293e-05 -3.12347e+07 4.31604e-05 3.29749e+07)
(3.65178e+07 -2.44327e+07 8.82707e-06 -9.52507e+06 -2.1373e-05 8.0978e+06)
(1.0597e+08 -930571 6.75341e-05 3.52581e+07 3.94396e-05 4.23683e+07)
(1.07363e+08 -221576 7.17375e-05 449188 4.12514e-05 3.23436e+07)
(7.28148e+07 -3.30052e+07 2.66213e-06 1.021e+06 -2.30689e-05 2.21507e+07)
(1.25976e+08 -2.48687e+07 0.0001325 -3.86471e+07 0.000118144 2.61988e+07)
(3.55255e+07 -2.54679e+07 1.26101e-05 -8.0915e+06 -1.47249e-05 8.2302e+06)
(7.9148e+07 -2.32469e+07 -7.85563e-05 -1.89128e+07 4.21037e-05 1.80706e+07)
(1.37978e+08 -2.34436e+07 -8.41141e-05 2.59474e+06 -2.77889e-05 4.21717e+07)
(1.2421e+08 -1.34346e+07 -5.94543e-05 2.97203e+06 -7.25665e-05 3.81545e+07)
(9.06133e+07 -1.07847e+07 2.38191e-05 2.06795e+07 1.33435e-06 3.33878e+07)
(1.46821e+08 -1.96749e+07 0.000307733 -2.72767e+07 -3.51565e-05 3.58634e+07)
(1.72703e+07 -2.2798e+07 -7.9864e-06 -4.74839e+07 -7.4712e-06 -9.06408e+06)
(1.06658e+08 -489411 3.73633e-05 3.81508e+07 1.83939e-05 4.34428e+07)
(1.07212e+08 -41844.1 -1.92888e-05 167448 -1.43907e-05 3.22139e+07)
(2.00684e+08 3.63769e+07 3.77603e-05 -8.46155e+06 -3.13618e-05 5.76668e+07)
(1.52585e+08 -1.25654e+07 2.89799e-05 -3.48552e+07 -0.000148192 3.5319e+07)
(7.76876e+07 -5.89979e+06 1.55525e-05 2.15251e+07 2.69612e-05 2.97638e+07)
(1.72307e+08 -3.17411e+06 0.000568155 -2.95219e+07 8.79205e-05 4.28357e+07)
(2.0667e+08 3.53099e+07 0.000254456 1.65563e+07 -0.000110315 6.69679e+07)
(9.35397e+07 -3.36686e+07 -0.000143335 4.9082e+06 1.1606e-05 2.95344e+07)
(1.0001e+08 -6.01557e+06 2.98906e-05 2.48103e+07 5.72052e-06 3.7446e+07)
(1.75789e+08 -1.30126e+07 0.000380638 -8.54459e+06 -9.55332e-05 5.01734e+07)
(-1.30624e+07 955453 3.78303e-05 -9.34307e+07 -1.65435e-06 -3.19479e+07)
(1.18528e+08 -2.24461e+07 2.58741e-05 7.04541e+06 -5.62201e-05 3.76719e+07)
(2.03731e+08 3.50592e+07 0.000194861 9.75195e+06 -0.000186606 6.40449e+07)
(1.43012e+08 -1.1889e+07 1.86816e-06 317014 0.000110811 4.29986e+07)
(2.00185e+08 3.77733e+07 1.31589e-05 -1.17511e+06 -6.45451e-05 5.9703e+07)
(1.0393e+08 -4.49509e+06 5.51108e-05 2.8717e+07 1.6985e-06 3.97941e+07)
(2.14243e+08 -970138 -6.30739e-05 -114944 3.99787e-05 6.42385e+07)
(1.65564e+08 -1.77415e+07 0.000101418 -1.08037e+07 4.03115e-05 4.64282e+07)
(1.66242e+08 -1.98118e+07 0.000257947 -5.03532e+06 2.69132e-05 4.83621e+07)
(1.06443e+08 -8.61246e+06 3.87644e-05 1.63319e+07 -2.21553e-05 3.68324e+07)
(1.98094e+08 1.89875e+07 0.000233287 -1.12303e+07 9.80786e-07 5.60591e+07)
(1.14872e+08 -1.24016e+07 3.59622e-05 5.80368e+06 7.6478e-07 3.62027e+07)
(1.22765e+08 -2.13254e+07 8.38338e-05 4.02667e+06 -5.37973e-06 3.80375e+07)
(-1.41864e+07 7.07779e+06 5.13745e-06 -1.2754e+08 -7.9718e-05 -4.25179e+07)
(1.16874e+08 -2.22988e+07 7.22979e-05 6.33948e+06 -4.4655e-05 3.6964e+07)
(1.06924e+08 -942081 3.26929e-06 2.35901e+07 -2.12409e-05 3.91541e+07)
(-1.2876e+07 -1.19754e+06 4.25007e-06 -1.20754e+08 -8.7017e-05 -4.0089e+07)
(1.25112e+08 -2.81378e+07 -2.83027e-05 4.67228e+06 6.25981e-05 3.89354e+07)
(2.20459e+08 -5.67504e+07 -0.000827392 4.32152e+07 -0.000292345 9.30722e+07)
(2.42582e+07 -2.27899e+07 1.06485e-05 -1.84863e+07 -4.10777e-06 1.73158e+06)
(2.13989e+08 2.65472e+07 0.000144122 -1.06298e+07 0.000270623 6.66814e+07)
(1.9053e+08 1.00485e+07 0.000145133 -1.77894e+07 0.000153306 5.18221e+07)
(1.55428e+07 -2.14392e+07 -1.66734e-05 -6.13011e+07 -4.81636e-06 -1.37275e+07)
(2.69856e+07 -2.30567e+06 1.08353e-05 -2.30335e+06 -7.82567e-07 7.40468e+06)
(8.90085e+07 -2.97584e+07 5.9501e-05 -4.70183e+07 5.19408e-05 1.25971e+07)
(1.70627e+08 -1.84867e+07 -2.60375e-05 -2.4073e+06 -0.000116608 5.04659e+07)
(1.21954e+08 -2.02386e+07 1.28436e-05 4.17395e+06 -9.09854e-06 3.78385e+07)
(1.05865e+08 -2.28302e+07 -6.17662e-05 -4.04372e+07 7.74938e-05 1.96283e+07)
(1.97745e+08 2.16591e+07 2.6633e-05 -1.4456e+07 0.00024097 5.49867e+07)
(2.0185e+08 -3.33228e+07 -0.000163931 -6.49722e+06 6.84682e-05 5.86059e+07)
(1.0929e+08 -2.42582e+06 0.000180605 1.89896e+06 4.05859e-05 3.33565e+07)