/*--------------------------------*- C++ -*----------------------------------*\
| =========                 |                                                 |
| \\      /  F ield         | OpenFOAM: The Open Source CFD Toolbox           |
|  \\    /   O peration     | Version:  v2012                                 |
|   \\  /    A nd           | Website:  www.openfoam.com                      |
|    \\/     M anipulation  |                                                 |
\*---------------------------------------------------------------------------*/
FoamFile
{
    version     2.0;
    format      ascii;
    class       volSymmTensorField;
    location    "18";
    object      epsilon;
}
// * * * * * * * * * * * * * * * * * * * * * * * * * * * * * * * * * * * * * //

dimensions      [0 0 0 0 0 0 0];


internalField   nonuniform List<symmTensor> 
2000
(
(0.0149171 -0.00176403 3.82592e-18 -0.0160979 -4.27128e-19 9.56451e-34)
(0.00705441 -0.000668359 1.82031e-18 -0.00716382 -2.69458e-18 0)
(0.0105766 -0.00092387 -3.07994e-18 -0.00981074 -5.34463e-19 0)
(0.00687262 -0.000786625 -1.23208e-18 -0.00714809 1.4638e-18 0)
(0.00855337 -0.000599532 2.44613e-18 -0.00803173 3.33786e-19 0)
(0.00643261 -0.000765245 3.68091e-19 -0.00642597 -9.03643e-19 0)
(0.00714961 -0.000479397 -1.17336e-18 -0.00644721 5.3272e-19 0)
(0.00573892 -0.000676116 -2.37887e-18 -0.00536485 -1.06388e-18 0)
(0.00588713 -0.000427895 -3.99868e-18 -0.00494691 -1.03283e-18 0)
(0.00478531 -0.000537444 -4.25582e-19 -0.0041062 9.26603e-19 0)
(0.00464001 -0.000367002 0 -0.00348403 0 0)
(0.00371407 -0.000377609 0 -0.00278838 0 0)
(0.00348321 -0.000269628 -5.07826e-19 -0.00218467 8.68958e-20 0)
(0.00273086 -0.000239318 -7.69824e-19 -0.00166234 -3.12726e-19 0)
(0.00253629 -0.000149673 -3.26978e-19 -0.00117325 -1.61549e-19 0)
(0.00197937 -0.000141752 4.35065e-19 -0.00086651 2.52313e-19 0)
(0.00186657 -2.95946e-05 0 -0.000467909 0 0)
(0.00152352 -8.40084e-05 0 -0.000369274 0 0)
(0.00151345 8.08546e-05 0 -6.47829e-05 0 0)
(0.00132062 -4.21764e-05 -1.39457e-19 -0.000108232 -8.99461e-20 0)
(0.00480129 -0.0012372 0 -0.00668261 0 0)
(0.00704113 -0.00190997 6.43222e-19 -0.00669583 5.92137e-19 0)
(0.00612217 -0.00144903 -1.38139e-19 -0.00617734 6.39755e-19 0)
(0.00654614 -0.00186683 7.36108e-19 -0.00626781 -3.08268e-21 0)
(0.00596001 -0.00147741 3.25567e-19 -0.00571142 -8.05067e-19 0)
(0.0057334 -0.00167906 3.20365e-19 -0.00541983 -8.58897e-19 0)
(0.00516512 -0.00134089 -9.36296e-19 -0.00453445 9.08516e-19 0)
(0.00465351 -0.00135109 -1.88178e-18 -0.00417085 -4.68147e-19 0)
(0.00417874 -0.00111662 -3.58875e-18 -0.0032493 -1.27106e-18 0)
(0.00354679 -0.000977896 -2.00874e-18 -0.00291416 -1.66941e-19 0)
(0.00327877 -0.000853732 -6.85917e-19 -0.0022101 -4.04475e-19 0)
(0.00263173 -0.00064334 2.07265e-19 -0.00189955 1.38296e-19 0)
(0.00257723 -0.000591119 8.49474e-19 -0.00148541 6.0049e-19 0)
(0.00199648 -0.000380293 -2.31688e-19 -0.00121022 9.21801e-20 0)
(0.00207809 -0.000353547 -8.49337e-19 -0.00101734 -7.49148e-19 0)
(0.00162204 -0.000181045 -2.67315e-19 -0.000807584 -6.25787e-19 0)
(0.00175141 -0.000149308 1.70205e-19 -0.000725906 2.80124e-19 0)
(0.00145304 -1.8982e-05 4.41276e-19 -0.000596599 4.19845e-19 0)
(0.00151661 2.6849e-05 6.21566e-19 -0.000494597 5.29485e-19 0)
(0.0013292 0.000105315 4.41906e-19 -0.000422894 5.49068e-19 0)
(0.00707075 -0.0032433 -1.31023e-18 -0.00864983 5.49592e-19 3.30156e-34)
(0.00582554 -0.0025442 -1.66814e-18 -0.00556941 9.61159e-19 0)
(0.00560445 -0.00241232 -1.08148e-20 -0.00533269 -5.6955e-19 0)
(0.00471326 -0.00222311 5.35211e-19 -0.00465023 3.86934e-19 0)
(0.00436124 -0.00195696 1.31731e-19 -0.00362456 3.55046e-19 0)
(0.00345813 -0.00172078 -1.24271e-18 -0.00341309 -1.00061e-18 0)
(0.00330763 -0.0015132 -1.50444e-18 -0.00219647 -2.81391e-19 0)
(0.00237527 -0.00121436 -8.08005e-19 -0.00223542 1.97163e-20 0)
(0.00256869 -0.00112875 0 -0.0013502 0 0)
(0.00172836 -0.000840329 0 -0.00148068 0 0)
(0.00212376 -0.000818873 -3.54876e-19 -0.00102204 -2.59293e-19 0)
(0.00148097 -0.000574983 -1.38662e-18 -0.00111439 -7.46549e-19 0)
(0.00187998 -0.000559665 -1.35754e-18 -0.000962927 -8.65536e-19 0)
(0.0014705 -0.000360989 1.42789e-19 -0.000979294 -3.74682e-19 0)
(0.00175546 -0.000334476 6.91723e-19 -0.000992826 7.37279e-19 0)
(0.0015576 -0.000167221 5.70053e-19 -0.000954005 5.55925e-19 0)
(0.00168328 -0.000142493 4.34065e-19 -0.00102212 1.56143e-19 0)
(0.00164336 1.1662e-05 -1.82578e-19 -0.000933874 -6.97697e-20 0)
(0.0016356 1.91579e-05 -1.95789e-19 -0.000972602 3.82124e-20 0)
(0.00163123 0.000162376 7.4691e-19 -0.000843248 8.2758e-19 0)
(0.00403489 -0.00292236 1.75596e-18 -0.00506376 -9.89433e-19 1.10817e-33)
(0.00350802 -0.0022908 8.96008e-19 -0.00363322 -1.47916e-18 0)
(0.00287092 -0.00197991 6.52988e-20 -0.00224108 6.81289e-19 0)
(0.00200842 -0.00152922 -3.90614e-19 -0.00221478 1.55464e-19 0)
(0.00186233 -0.00135195 -2.18097e-19 -0.000877559 -6.10691e-20 0)
(0.000900378 -0.000936081 1.856e-19 -0.00113293 6.2413e-20 0)
(0.00128629 -0.000952175 6.87833e-19 -0.000330919 5.00428e-19 0)
(0.000451714 -0.000643805 4.12981e-19 -0.000598592 5.68377e-19 0)
(0.00113814 -0.000695146 7.20297e-19 -0.000363782 1.07821e-18 0)
(0.000485157 -0.000525842 1.60969e-19 -0.000506631 8.31852e-19 0)
(0.00122417 -0.000516653 1.0334e-18 -0.000556066 1.42223e-18 0)
(0.000717181 -0.000442311 2.57469e-19 -0.000611401 6.3061e-19 0)
(0.00137768 -0.000372878 7.89907e-19 -0.000762915 3.14105e-19 0)
(0.000977742 -0.000339111 6.97655e-19 -0.000770912 5.19076e-19 0)
(0.00152372 -0.000234226 3.30402e-19 -0.000956223 6.48914e-19 0)
(0.00119765 -0.000213418 4.50444e-19 -0.000929054 8.55914e-19 0)
(0.00164214 -0.000102342 4.9423e-19 -0.00110862 1.7138e-19 0)
(0.00139739 -8.17156e-05 1.14711e-19 -0.00103 2.91322e-20 0)
(0.00166727 1.54701e-05 -6.45334e-19 -0.0011401 -5.69883e-19 0)
(0.00147745 3.34132e-05 -2.19401e-19 -0.000980819 -2.3272e-19 0)
(0.00161616 -0.00170842 -3.12603e-19 -0.00177034 9.12271e-21 2.80537e-34)
(0.000864475 -0.000964942 3.30006e-19 -0.00121004 -7.77135e-21 0)
(0.000483793 -0.000789284 2.42693e-19 -0.000108558 -1.26498e-19 0)
(-5.81525e-06 -0.000466369 -9.18008e-20 -0.000181472 -5.03107e-19 0)
(0.000128233 -0.000514321 -2.79108e-19 0.000139845 2.32102e-19 0)
(-8.57357e-05 -0.000405882 -1.11337e-19 -6.41299e-05 4.11088e-19 0)
(0.000215938 -0.000455979 4.2806e-20 -0.000114795 -4.09974e-19 0)
(9.88972e-05 -0.000392822 -1.4241e-19 -0.000146152 -3.50214e-19 0)
(0.000411246 -0.00040768 -6.33656e-19 -0.000223024 -3.55467e-19 0)
(0.000256327 -0.000359884 1.90807e-19 -0.000247188 -2.73627e-20 0)
(0.000585355 -0.000342153 -1.85693e-19 -0.000306282 -4.31617e-19 0)
(0.000360044 -0.000314433 -7.3952e-19 -0.000362125 -3.4609e-19 0)
(0.000794865 -0.000263806 -7.06483e-19 -0.000489133 -5.79423e-19 0)
(0.00049549 -0.000283399 -4.50781e-20 -0.000447828 -3.54869e-19 0)
(0.00103913 -0.00019515 -6.29167e-20 -0.000653864 1.63847e-19 0)
(0.000723538 -0.000235992 -4.48022e-19 -0.000624183 -5.47407e-20 0)
(0.00121261 -0.000120296 -1.14276e-19 -0.000803046 -3.44625e-19 0)
(0.00090485 -0.000166871 8.70314e-20 -0.000743128 -4.40195e-19 0)
(0.00131561 -4.81531e-05 3.63589e-19 -0.000886384 4.1096e-19 0)
(0.00103219 -8.89576e-05 -3.82468e-20 -0.000790673 1.46987e-19 0)
(-0.000167983 -7.42117e-06 2.20252e-19 -1.08152e-05 -1.28381e-19 -4.24474e-35)
(-0.000185435 -8.58456e-05 9.64985e-19 0.000148839 -1.62087e-19 0)
(-0.000119222 -0.000120344 4.46301e-19 0.000150613 3.59819e-19 0)
(-7.00468e-05 -0.000202285 -2.34779e-19 6.67833e-05 5.02971e-19 0)
(5.74308e-05 -0.00025247 -3.39073e-19 0.000108132 -4.59457e-19 0)
(3.36757e-05 -0.000264139 -3.23535e-19 -5.15881e-05 -4.78948e-19 0)
(0.00020293 -0.000296622 -1.95913e-19 -7.41059e-07 7.74194e-20 0)
(0.00012355 -0.000275422 5.41588e-19 -0.000145463 2.7344e-19 0)
(0.00032575 -0.000296691 2.31368e-19 -0.000122949 3.10698e-19 0)
(0.000221378 -0.000257209 5.49538e-19 -0.00022406 6.45576e-19 0)
(0.000448956 -0.000278526 4.36631e-19 -0.000229088 4.81218e-19 0)
(0.00032055 -0.000228256 2.24681e-19 -0.000288086 5.07491e-19 0)
(0.00055602 -0.000244867 0 -0.000333859 0 0)
(0.000422259 -0.000194025 1.72433e-19 -0.000359989 1.59405e-19 0)
(0.000641383 -0.000197213 -6.13278e-20 -0.000433378 1.60835e-19 0)
(0.000507953 -0.000163478 6.04674e-20 -0.000432323 1.59512e-19 0)
(0.000708515 -0.000143652 3.19443e-19 -0.000517098 1.70017e-19 0)
(0.000580861 -0.00013781 1.33136e-19 -0.000499754 8.07496e-21 0)
(0.000871686 -9.07249e-05 5.95198e-19 -0.000635909 9.39721e-19 0)
(0.000728227 -0.000112846 6.30498e-19 -0.000585163 9.95483e-19 0)
(-7.96008e-05 4.91895e-05 2.36784e-19 -6.42908e-05 -1.70511e-19 -5.60994e-35)
(-3.98743e-05 -3.19635e-05 -1.6638e-19 7.44024e-05 -6.21645e-19 0)
(-2.28789e-07 -4.11316e-05 1.70419e-19 3.48855e-05 1.69938e-19 0)
(2.3967e-06 -0.000108346 7.21933e-19 -1.69309e-06 3.74858e-19 0)
(8.29454e-05 -0.000112628 3.5595e-19 7.86582e-06 4.64139e-19 0)
(6.78487e-05 -0.000144001 5.531e-20 -8.65285e-05 6.2096e-19 0)
(0.000175165 -0.000150711 -1.65216e-19 -6.4349e-05 8.47883e-20 0)
(0.000136436 -0.000155635 -1.83989e-19 -0.000164123 -1.53878e-19 0)
(0.000265097 -0.000167229 4.77857e-20 -0.000152086 -5.73901e-19 0)
(0.00020699 -0.000152576 -3.87353e-19 -0.000231448 -6.26089e-19 0)
(0.000347705 -0.000169603 -4.89696e-19 -0.000242544 -5.70902e-20 0)
(0.000280454 -0.000140746 0 -0.000291634 0 0)
(0.000427011 -0.000162095 -3.42516e-20 -0.000326084 -5.13446e-19 0)
(0.00035845 -0.000120473 -8.60245e-21 -0.000345511 -5.17648e-19 0)
(0.000506328 -0.000147748 -9.2772e-20 -0.000399539 3.30747e-19 0)
(0.000436936 -9.83234e-05 9.36226e-19 -0.000397295 1.05049e-18 0)
(0.000593716 -0.00013282 5.60296e-19 -0.000459436 4.30376e-19 0)
(0.000516439 -8.05881e-05 2.71678e-19 -0.000445166 4.46642e-19 0)
(0.000667948 -0.000113581 -3.03886e-19 -0.000522059 -2.88343e-19 0)
(0.000599657 -7.22427e-05 -1.50469e-19 -0.000481788 -1.37779e-19 0)
(6.22837e-06 4.83973e-06 -1.11922e-19 2.60671e-07 -9.35577e-22 3.6285e-35)
(-1.15344e-05 1.88307e-05 -5.90092e-19 -9.75182e-06 2.09159e-19 0)
(5.13551e-05 -8.1244e-06 -7.03811e-19 -3.68675e-05 -6.66977e-19 0)
(4.14374e-05 -1.88503e-05 -9.15956e-19 -7.27835e-05 -1.1233e-18 0)
(0.000117662 -3.34731e-05 -4.04395e-19 -8.689e-05 -6.11465e-19 0)
(0.000103094 -4.38053e-05 8.64284e-20 -0.000137645 -6.63089e-19 0)
(0.000189073 -5.46131e-05 -1.7971e-19 -0.000149699 -1.60093e-19 0)
(0.000163607 -5.92542e-05 -3.11955e-19 -0.000194774 -7.80172e-20 0)
(0.00025588 -7.05189e-05 -5.89823e-20 -0.00021603 -1.4136e-19 0)
(0.000221812 -6.77559e-05 -3.90929e-19 -0.000241079 -4.58615e-19 0)
(0.000314712 -8.06425e-05 -4.17995e-19 -0.000282034 -4.53523e-19 0)
(0.000278657 -6.90447e-05 -9.88792e-20 -0.000277648 -3.55102e-19 0)
(0.00036663 -8.49439e-05 4.85935e-20 -0.000346646 -1.90738e-19 0)
(0.000333527 -6.1966e-05 -8.0185e-19 -0.000308139 -5.06183e-19 0)
(0.000417057 -8.46293e-05 -9.66828e-19 -0.000409776 -8.5079e-19 0)
(0.00038592 -4.76075e-05 -5.08922e-19 -0.000340665 -7.5188e-19 0)
(0.000475315 -8.25079e-05 -1.24806e-19 -0.000470571 2.09263e-20 0)
(0.000436551 -3.13774e-05 3.6162e-19 -0.000382674 9.4561e-20 0)
(0.000548897 -8.45011e-05 5.22755e-19 -0.000525896 4.05468e-19 0)
(0.00049981 -2.65955e-05 1.32946e-19 -0.000418146 2.85751e-19 0)
(-8.56503e-07 3.78635e-05 3.2046e-19 8.19691e-06 -2.20621e-19 5.82581e-35)
(-2.04048e-05 7.0233e-05 6.79923e-20 -8.92571e-05 -5.90502e-19 0)
(7.6498e-05 3.38466e-05 2.77508e-19 -7.38953e-05 7.49446e-19 0)
(5.22427e-05 5.11523e-05 -2.62879e-19 -0.000145429 5.80111e-19 0)
(0.000147167 1.86548e-05 1.8954e-19 -0.000148808 1.5707e-19 0)
(0.000120541 3.0564e-05 1.10298e-19 -0.000195627 -9.41018e-20 0)
(0.000210929 7.97305e-07 4.1865e-19 -0.000216335 4.51862e-19 0)
(0.000179653 1.1402e-05 2.49079e-20 -0.000238753 1.70161e-19 0)
(0.000266938 -1.45104e-05 3.03693e-19 -0.00027343 6.75115e-20 0)
(0.000230931 -5.09827e-06 0 -0.000274757 0 0)
(0.000314444 -2.39416e-05 1.3236e-19 -0.000322045 3.65095e-19 0)
(0.00027739 -1.86226e-05 2.35804e-19 -0.000301656 3.0367e-19 0)
(0.000351053 -2.57546e-05 6.02114e-19 -0.000366829 5.92997e-19 0)
(0.00032302 -2.93089e-05 2.46689e-19 -0.000313306 3.00033e-19 0)
(0.000375835 -2.11643e-05 2.87024e-19 -0.00041429 9.90955e-20 0)
(0.000375783 -3.78085e-05 -1.7134e-19 -0.000297283 -1.29445e-19 0)
(0.000399504 -1.78999e-05 -3.02939e-19 -0.000471966 -4.8029e-19 0)
(0.000454322 -4.68687e-05 -2.66869e-19 -0.000229577 -2.77823e-19 0)
(0.000463675 -3.44854e-05 -2.62434e-19 -0.000542164 -1.17931e-19 0)
(0.000571558 -5.60324e-05 3.48467e-19 -0.000106106 9.78794e-20 0)
(-1.21683e-05 0.000106506 -1.95508e-19 -1.9247e-05 2.30087e-19 -6.57486e-35)
(-3.49494e-05 0.000135223 5.49941e-19 -0.0001606 5.96156e-19 0)
(8.74633e-05 8.40856e-05 -8.44302e-20 -0.000119306 -2.90775e-19 0)
(5.58208e-05 0.000111735 -9.28369e-20 -0.000210106 1.13654e-19 0)
(0.000159029 5.90007e-05 -4.86252e-19 -0.000201948 -1.67086e-19 0)
(0.000125391 8.54976e-05 9.31859e-20 -0.000248808 -9.92737e-20 0)
(0.00021358 3.37973e-05 -7.4608e-20 -0.000265899 -2.51163e-19 0)
(0.000181086 6.17088e-05 -2.75736e-19 -0.000278633 -4.51489e-20 0)
(0.000255355 1.3087e-05 -2.86908e-19 -0.000314099 -5.04878e-20 0)
(0.00022717 4.26067e-05 0 -0.000305441 0 0)
(0.000287152 -1.46539e-06 -1.72211e-19 -0.000351589 -1.3959e-19 0)
(0.000266 2.84028e-05 0 -0.000338217 0 0)
(0.00031164 -8.27029e-06 -1.2713e-20 -0.000384851 2.0577e-19 0)
(0.000302885 1.89632e-05 5.1077e-19 -0.000388611 3.63393e-19 0)
(0.000336528 -3.75056e-06 3.82198e-19 -0.000425154 2.11108e-20 0)
(0.000353695 1.35893e-05 -9.63858e-20 -0.000469681 4.18669e-20 0)
(0.000385466 1.75749e-05 -1.07547e-19 -0.000494937 4.68621e-20 0)
(0.000444158 3.32433e-06 4.17269e-19 -0.00059266 2.41892e-19 0)
(0.00049818 6.25803e-05 2.72995e-19 -0.000627612 2.96984e-19 0)
(0.000468264 -1.02288e-05 1.42726e-20 -0.000921402 1.86389e-19 0)
(-1.35158e-05 0.000189643 1.55897e-19 -8.44729e-05 -2.22474e-19 -6.04791e-35)
(-4.71653e-05 0.000202609 -8.11691e-20 -0.000229017 -4.29748e-19 0)
(9.40405e-05 0.000135131 1.83323e-19 -0.000167429 1.29489e-19 0)
(5.44539e-05 0.00016481 2.48504e-19 -0.00025701 6.42565e-21 0)
(0.000160581 9.10992e-05 3.67459e-19 -0.000240834 6.52077e-19 0)
(0.00012203 0.000129881 7.46089e-19 -0.000276035 8.02086e-19 0)
(0.00021072 5.59866e-05 8.36097e-19 -0.000292184 7.75133e-19 0)
(0.000174148 0.000102679 1.82362e-19 -0.000285032 5.2562e-19 0)
(0.000251872 3.23717e-05 4.24694e-19 -0.000328109 3.82641e-19 0)
(0.000220642 8.46535e-05 5.94462e-20 -0.000285879 1.56308e-19 0)
(0.000287285 2.14672e-05 4.28421e-19 -0.000356847 3.79866e-19 0)
(0.000270067 7.91806e-05 7.23497e-20 -0.000284472 1.52784e-19 0)
(0.000321549 2.93524e-05 -7.82269e-20 -0.000388043 -4.09516e-19 0)
(0.000335287 9.76645e-05 -8.30265e-20 -0.000304122 -1.49833e-19 0)
(0.000360504 7.45055e-05 -9.14372e-20 -0.000440446 6.88804e-20 0)
(0.000420038 0.000158586 -2.0097e-19 -0.000415892 -6.03256e-20 0)
(0.000374027 0.000181252 -4.25298e-19 -0.000563335 -6.45082e-19 0)
(0.000429745 0.000249789 -1.79904e-19 -0.000772615 -4.98674e-19 0)
(0.000171553 0.000307033 6.85124e-21 -0.00086665 2.1811e-19 0)
(0.000582493 8.40409e-05 2.4162e-19 -0.000489711 2.75809e-19 0)
(2.87248e-06 0.000265844 0 -0.000179178 0 0)
(-4.79631e-05 0.000257929 0 -0.000298452 0 0)
(9.66942e-05 0.000182676 0 -0.00021619 0 0)
(4.74476e-05 0.00020353 -2.08854e-19 -0.000299314 6.35267e-21 0)
(0.000141985 0.000119576 -2.31022e-19 -0.000264989 1.14725e-20 0)
(0.000106359 0.000158509 2.69866e-19 -0.000298368 -9.80689e-20 0)
(0.000173874 7.39371e-05 1.4286e-19 -0.000298468 -2.15717e-19 0)
(0.000150804 0.000126155 0 -0.00029813 0 0)
(0.000202249 4.51813e-05 -1.56333e-19 -0.000322348 1.03961e-19 0)
(0.000188301 0.000104667 5.06818e-19 -0.000310282 4.23656e-19 0)
(0.000233225 3.45752e-05 2.52664e-19 -0.000346131 4.21649e-19 0)
(0.000223519 9.51937e-05 1.68991e-20 -0.000351452 4.17517e-19 0)
(0.000274133 5.34435e-05 1.29525e-19 -0.000380949 -8.89121e-20 0)
(0.000263831 0.00010979 -2.95494e-19 -0.000435748 -4.03461e-19 0)
(0.000323635 0.000120862 1.75166e-19 -0.000440484 3.18164e-19 0)
(0.000298404 0.000168757 3.57098e-19 -0.000552408 3.79591e-19 0)
(0.000323221 0.000217725 1.81896e-19 -0.000543527 -1.57948e-19 0)
(0.000237526 0.000256885 -4.31473e-19 -0.000632575 -3.72801e-19 0)
(0.000113227 0.000201408 -4.59962e-19 -0.000712821 -3.77429e-19 0)
(0.00044365 5.08066e-05 -1.57574e-19 -0.000187007 -2.01651e-19 0)
(3.99178e-05 0.000316248 6.26281e-20 -0.000283161 -2.17906e-19 -8.03651e-35)
(-2.99959e-05 0.000293282 -2.40746e-19 -0.000368864 -3.34761e-19 0)
(0.000106968 0.00021632 -3.05144e-19 -0.000263456 -2.98561e-19 0)
(4.42134e-05 0.000225672 -2.76077e-19 -0.000346099 -3.17063e-19 0)
(0.000126855 0.000138678 -3.29363e-19 -0.000278981 -6.80007e-20 0)
(8.61488e-05 0.000171574 1.73737e-19 -0.000332736 -7.70374e-21 0)
(0.000142422 8.44663e-05 3.45024e-19 -0.000293282 2.79196e-19 0)
(0.000119528 0.00013389 -4.28869e-20 -0.000328819 2.95816e-19 0)
(0.000162303 5.33378e-05 -3.6848e-19 -0.000309123 -4.66763e-19 0)
(0.000152592 0.000111572 -2.24755e-20 -0.000340125 -4.04226e-19 0)
(0.000189012 4.66842e-05 -1.17417e-19 -0.000333526 9.72603e-20 0)
(0.000191265 0.000108921 3.27071e-19 -0.00037213 2.89267e-19 0)
(0.000225146 7.22579e-05 2.25777e-19 -0.00037173 1.95919e-19 0)
(0.000237284 0.000138134 -2.04181e-20 -0.000424034 2.57848e-19 0)
(0.000261831 0.000132069 -5.27457e-19 -0.000424368 -5.9711e-19 0)
(0.000260103 0.000200329 -6.09259e-19 -0.000483992 -7.18838e-19 0)
(0.000240866 0.000182098 -6.47981e-20 -0.000494406 7.43244e-20 0)
(0.000165741 0.000232164 -1.23217e-19 -0.000555673 -1.02039e-19 0)
(5.96721e-05 0.000127074 -1.46386e-19 -0.000612564 -3.0352e-19 0)
(0.000301103 -6.85805e-07 -1.0288e-19 -0.000174329 7.63514e-20 0)
(9.21937e-05 0.000333838 0 -0.00038498 0 0)
(3.83339e-06 0.000307815 0 -0.000437606 0 0)
(0.000128328 0.000232035 2.39747e-19 -0.000316933 5.69821e-19 0)
(5.37292e-05 0.000234434 3.26166e-19 -0.000389657 5.56113e-19 0)
(0.000122962 0.000152062 2.75562e-19 -0.000299562 2.37808e-19 0)
(7.81184e-05 0.000177949 2.49226e-19 -0.000360384 2.55158e-19 0)
(0.00012187 9.75972e-05 1.56406e-19 -0.000294221 -2.13679e-20 0)
(0.000101531 0.000141113 -3.14453e-20 -0.000346554 7.44988e-20 0)
(0.000131307 6.78017e-05 -2.09058e-19 -0.000300239 -3.25956e-19 0)
(0.000128756 0.000122201 -4.08397e-19 -0.000350233 -4.86436e-19 0)
(0.000150437 6.19304e-05 -4.64244e-19 -0.000320013 -4.66225e-19 0)
(0.000160189 0.000123762 -3.47672e-19 -0.000372393 -3.5675e-19 0)
(0.000179398 8.24452e-05 -6.39249e-19 -0.000353362 -4.77669e-19 0)
(0.000192783 0.000152013 -6.80492e-20 -0.000407961 -3.5825e-19 0)
(0.000209785 0.000125066 3.54681e-19 -0.000396619 6.76664e-19 0)
(0.000203671 0.000198544 6.24644e-19 -0.000451014 7.4044e-19 0)
(0.000191989 0.000155525 5.33432e-19 -0.000455245 4.63512e-19 0)
(0.000121123 0.000210558 4.93324e-19 -0.000518746 5.15992e-19 0)
(1.65495e-05 0.000100294 5.17151e-19 -0.00055977 3.24628e-19 0)
(0.000227726 1.60039e-06 2.17311e-19 -0.000155987 2.71929e-19 0)
(0.00014732 0.000321941 -3.69358e-20 -0.000480391 1.88885e-19 -5.30444e-35)
(4.49715e-05 0.000302163 6.10672e-20 -0.000497352 3.40199e-19 0)
(0.000154149 0.000231727 -2.93769e-19 -0.000370335 -4.54025e-19 0)
(7.1203e-05 0.000231994 -2.6974e-19 -0.000425159 -3.98689e-19 0)
(0.000125271 0.000160208 -3.20406e-19 -0.000323618 -1.71366e-19 0)
(7.83019e-05 0.000179297 -1.14204e-19 -0.000381265 -1.56253e-19 0)
(0.000108236 0.000112016 -2.632e-19 -0.000299816 -3.38563e-19 0)
(9.02172e-05 0.000146177 -1.29362e-19 -0.000359316 -3.74165e-19 0)
(0.000107009 8.53512e-05 1.26656e-19 -0.00029493 2.02964e-19 0)
(0.000108644 0.000130048 1.15141e-19 -0.000357011 2.08673e-19 0)
(0.000118512 7.79503e-05 3.31647e-19 -0.000307272 3.1405e-19 0)
(0.000131419 0.000131361 2.35473e-19 -0.000371828 2.04058e-19 0)
(0.000142431 9.02469e-05 3.3388e-19 -0.000333865 1.04864e-19 0)
(0.000155586 0.000152244 -9.04443e-20 -0.000399327 -5.70232e-20 0)
(0.000171841 0.000118844 4.25227e-20 -0.000371254 1.51472e-19 0)
(0.000162853 0.00018453 2.54034e-19 -0.000437681 2.29877e-19 0)
(0.000156357 0.000137806 1.8546e-19 -0.000423731 1.54357e-19 0)
(8.64754e-05 0.000190054 3.36064e-20 -0.00049909 1.73677e-19 0)
(-1.9522e-05 8.8911e-05 1.04655e-19 -0.000513954 7.55442e-20 0)
(0.000160723 1.86142e-05 -1.22984e-19 -0.000139788 4.05088e-20 0)
(0.000196219 0.000284709 1.86854e-20 -0.00055928 -1.11194e-19 -3.23488e-35)
(8.59529e-05 0.000277391 -1.80359e-20 -0.000540677 -1.50669e-19 0)
(0.000178602 0.000217723 5.1572e-20 -0.00041581 5.95767e-20 0)
(8.95048e-05 0.000218417 -9.42932e-22 -0.0004512 5.82799e-20 0)
(0.000130726 0.000162217 -9.4467e-20 -0.000345455 -1.12675e-19 0)
(8.17849e-05 0.000173866 -1.36704e-19 -0.000397683 -2.34629e-19 0)
(0.000101383 0.000123834 1.6898e-19 -0.000307154 2.17753e-19 0)
(8.40835e-05 0.00014536 1.59817e-19 -0.000371276 1.69506e-19 0)
(9.21961e-05 0.000100754 -1.473e-20 -0.0002937 -1.88971e-19 0)
(9.49807e-05 0.000130213 -1.86072e-19 -0.000365915 -1.15275e-19 0)
(9.81113e-05 9.08748e-05 -4.15571e-19 -0.000300208 -2.94019e-19 0)
(0.000110809 0.00012811 -1.34456e-19 -0.000376869 -3.05963e-19 0)
(0.000118075 9.4786e-05 2.72872e-19 -0.000321998 4.6568e-19 0)
(0.000129276 0.000140534 2.71818e-19 -0.000399793 4.47951e-19 0)
(0.000144667 0.00011081 -1.44176e-19 -0.000354667 -3.71671e-19 0)
(0.000133975 0.000162535 -3.29336e-19 -0.00043252 -3.8358e-19 0)
(0.000126674 0.000120226 -7.20106e-20 -0.000398568 1.44179e-19 0)
(5.94491e-05 0.000166627 1.80256e-19 -0.000481166 9.84638e-20 0)
(-4.91578e-05 7.95186e-05 2.15785e-19 -0.000466663 7.4826e-20 0)
(0.00010185 3.48793e-05 2.32074e-20 -0.000125704 -3.23985e-21 0)
(0.000233726 0.000228383 2.44809e-20 -0.000610493 -2.3177e-19 -1.14357e-34)
(0.000121727 0.00023575 -8.6585e-20 -0.000562873 -3.9971e-19 0)
(0.000199325 0.00019185 -5.8926e-20 -0.000449234 -1.11476e-19 0)
(0.000105746 0.000192992 -2.88905e-20 -0.00046677 -1.55818e-19 0)
(0.00013839 0.0001568 -6.51164e-21 -0.000364788 -5.26501e-20 0)
(8.73498e-05 0.000158665 -6.89254e-20 -0.000410143 -2.80913e-21 0)
(0.000100458 0.000129815 -2.43333e-19 -0.00031867 -2.50804e-19 0)
(8.31084e-05 0.000134549 -2.18354e-19 -0.000383569 -3.28928e-19 0)
(8.55017e-05 0.000110186 -5.35272e-21 -0.000300774 5.26073e-20 0)
(8.85043e-05 0.000118888 0 -0.000378599 0 0)
(8.71192e-05 9.72545e-05 1.43574e-19 -0.000303333 1.71263e-19 0)
(9.85524e-05 0.000111966 8.83002e-20 -0.000388434 1.04756e-19 0)
(0.000103057 9.26152e-05 4.56429e-20 -0.000319934 4.92082e-20 0)
(0.000110785 0.000116212 1.63585e-19 -0.000407299 1.08278e-19 0)
(0.000124456 9.64266e-05 3.5997e-19 -0.000344479 2.61236e-19 0)
(0.000109352 0.000130194 2.84837e-19 -0.000430525 2.74299e-19 0)
(0.000100966 9.70381e-05 2.55171e-19 -0.00037275 1.9418e-19 0)
(3.32247e-05 0.000135593 3.21649e-19 -0.000458633 2.92608e-19 0)
(-7.12573e-05 6.59237e-05 2.50906e-19 -0.000409647 9.50381e-20 0)
(5.05136e-05 4.44415e-05 1.12877e-19 -0.000109761 1.51717e-19 0)
(0.000258475 0.000161132 -2.15707e-20 -0.000628318 2.58995e-19 -6.84291e-35)
(0.000147807 0.000179636 3.77633e-20 -0.00056995 2.65745e-19 0)
(0.000213805 0.00015412 7.36765e-20 -0.00046976 2.77324e-19 0)
(0.000118261 0.000152662 5.28494e-20 -0.000473752 2.25063e-19 0)
(0.00014512 0.000140677 2.21902e-20 -0.000383492 1.12076e-20 0)
(9.283e-05 0.000128364 5.29305e-20 -0.000418333 9.38221e-20 0)
(0.000100864 0.000125736 4.52027e-20 -0.000337291 7.52888e-20 0)
(8.44845e-05 0.000108429 2.52173e-20 -0.000394024 1.10156e-19 0)
(8.06002e-05 0.00010996 -1.41646e-19 -0.000318666 -2.14921e-19 0)
(8.55517e-05 9.23799e-05 -1.07673e-19 -0.000391344 -1.7653e-19 0)
(7.7851e-05 9.46868e-05 -1.71604e-19 -0.000317491 -1.27145e-19 0)
(8.93793e-05 8.14111e-05 -6.28236e-20 -0.000402431 -8.99026e-20 0)
(8.96069e-05 8.25147e-05 -1.37163e-20 -0.000325653 8.29526e-20 0)
(9.2453e-05 7.89215e-05 1.12744e-19 -0.000419072 1.2974e-19 0)
(0.000105465 7.52199e-05 -7.21058e-20 -0.000334791 -1.4887e-19 0)
(7.96335e-05 8.66868e-05 -8.63989e-20 -0.000431333 -9.74411e-20 0)
(7.76787e-05 6.78836e-05 -1.90888e-19 -0.000336255 -1.36099e-19 0)
(-4.93935e-07 9.49623e-05 -1.18746e-19 -0.000431611 -6.19007e-20 0)
(-8.12304e-05 4.59757e-05 -2.80644e-20 -0.000329029 1.66614e-19 0)
(-3.55076e-06 4.21352e-05 -1.47916e-20 -9.62942e-05 -1.10922e-20 0)
(0.000269201 8.83823e-05 1.0738e-20 -0.000618903 -7.55636e-20 -1.02705e-36)
(0.000167106 0.000114923 0 -0.000572722 0 0)
(0.0002166 0.000103414 -1.69947e-20 -0.000477582 -2.11884e-19 0)
(0.000124711 9.5746e-05 -5.93066e-21 -0.000487141 -2.27126e-19 0)
(0.000148939 0.000109983 2.72435e-20 -0.000399141 4.89846e-20 0)
(9.30455e-05 7.53172e-05 -3.56609e-21 -0.000433029 5.47327e-21 0)
(0.000101112 0.000107225 3.62745e-20 -0.00035938 1.12617e-19 0)
(7.80882e-05 5.7146e-05 6.93311e-20 -0.000406871 1.74129e-19 0)
(7.43744e-05 9.75909e-05 6.33469e-20 -0.000343739 1.57015e-19 0)
(7.19154e-05 4.26871e-05 3.94248e-20 -0.000400432 7.86735e-20 0)
(6.57211e-05 8.38734e-05 3.34182e-20 -0.000339674 3.75755e-20 0)
(6.90338e-05 3.35877e-05 2.52133e-20 -0.00040589 5.19495e-20 0)
(7.24244e-05 6.84837e-05 -9.79857e-20 -0.000336861 -1.78217e-19 0)
(6.47556e-05 3.27385e-05 -1.0329e-19 -0.00041462 -1.78461e-19 0)
(8.2163e-05 5.34337e-05 1.13816e-21 -0.000324016 2.14605e-20 0)
(4.23014e-05 4.22718e-05 -4.45182e-21 -0.000415023 2.03563e-20 0)
(5.19168e-05 3.86874e-05 -2.4864e-20 -0.000288341 -2.91261e-20 0)
(-4.15123e-05 5.66549e-05 -1.92675e-20 -0.000394733 -7.51358e-20 0)
(-8.15713e-05 2.18154e-05 -1.15206e-19 -0.000225722 -1.02856e-19 0)
(-8.12759e-05 3.04853e-05 9.33738e-21 -0.000123047 8.88058e-21 0)
(0.000268316 1.0687e-05 -7.04896e-23 -0.000589321 -4.92219e-23 -1.12322e-40)
(0.000190645 5.06073e-05 -5.29316e-20 -0.000571261 1.06158e-19 0)
(0.000243962 4.64982e-05 -4.37687e-20 -0.000453257 1.23072e-19 0)
(0.000133599 3.01872e-05 3.24897e-20 -0.000502478 5.49914e-20 0)
(0.000174452 6.40685e-05 2.67704e-20 -0.000396051 -7.0901e-20 0)
(9.73841e-05 9.56503e-06 9.46609e-21 -0.000444197 -7.94307e-20 0)
(0.000116278 7.14253e-05 -1.0863e-20 -0.00037389 -1.3191e-19 0)
(7.76516e-05 -6.4566e-06 -3.67583e-20 -0.000409431 -1.49584e-19 0)
(7.57962e-05 7.17222e-05 -3.09715e-21 -0.000368991 -3.4674e-20 0)
(6.38263e-05 -1.79876e-05 1.70412e-21 -0.000398604 -8.29768e-20 0)
(5.32794e-05 6.54119e-05 -1.86146e-20 -0.000368012 -1.27993e-19 0)
(4.95154e-05 -2.53698e-05 -2.23343e-20 -0.000404288 -1.30171e-19 0)
(4.86531e-05 5.18888e-05 -8.81916e-21 -0.000358274 -3.92495e-20 0)
(3.07918e-05 -2.57965e-05 -1.28685e-20 -0.000410302 -1.5473e-19 0)
(5.11675e-05 3.25222e-05 -3.44592e-20 -0.000324811 -1.38891e-19 0)
(-3.19494e-06 -1.30062e-05 -3.40165e-20 -0.000390502 -2.04684e-19 0)
(1.99354e-05 1.329e-05 -4.56477e-20 -0.000251949 -1.05885e-19 0)
(-7.792e-05 1.74526e-05 -5.15107e-20 -0.000316278 -1.60919e-19 0)
(-9.55067e-05 3.10349e-06 -4.63843e-20 -0.000134303 -4.42496e-20 0)
(-0.000146168 2.88264e-05 -1.8612e-20 -0.000102771 -3.37038e-20 0)
(-0.000170204 7.88258e-06 -3.44089e-20 0.000255881 2.30403e-20 0)
(-0.000174185 -4.09661e-05 -6.57104e-21 0.000249896 2.09195e-20 0)
(-0.000122871 -2.2921e-05 1.27122e-20 0.000249989 -3.25834e-20 0)
(-0.000125536 -5.78138e-05 1.37753e-20 0.000281771 -2.40351e-21 0)
(-0.000114277 -5.87469e-05 5.79054e-20 0.0002136 -3.71916e-20 0)
(-5.03749e-05 -8.01372e-05 2.85358e-20 0.000305292 -3.46181e-20 0)
(-6.00241e-05 -0.000113422 7.87298e-22 0.000190221 1.14051e-21 0)
(2.40157e-05 -0.000119777 3.33411e-20 0.000311387 -4.82678e-20 0)
(2.62563e-05 -0.000173797 -1.98352e-20 0.000158871 9.28757e-21 0)
(9.47594e-05 -0.000175454 -7.08613e-20 0.000299694 6.2615e-20 0)
(0.000127824 -0.000228336 1.10104e-19 0.000111915 -5.7208e-20 0)
(0.000173296 -0.000237996 7.43324e-20 0.000275607 -9.04342e-20 0)
(0.000238225 -0.000269227 7.41469e-20 5.06767e-05 -4.65774e-20 0)
(0.000274809 -0.000301784 4.46859e-20 0.00024695 -7.72947e-20 0)
(0.000353277 -0.000287635 3.28026e-20 -1.66362e-05 8.96654e-21 0)
(0.000391697 -0.000354143 8.00039e-20 0.000218503 -4.8561e-20 0)
(0.000469949 -0.000277391 -1.01829e-19 -5.78171e-05 4.82419e-20 0)
(0.000380587 -0.000314886 -4.84047e-20 9.85934e-05 6.81926e-20 0)
(0.000591029 -0.000250636 1.81234e-19 -2.81841e-05 -4.06091e-20 0)
(0.000478467 -0.000260011 1.46237e-19 -0.000219872 -1.29646e-19 0)
(-0.000300885 3.67018e-06 -1.21638e-20 0.000209249 4.91856e-20 0)
(-0.000217922 -3.02115e-05 -3.90987e-20 0.000225972 4.35498e-20 0)
(-0.000232905 -4.44851e-05 -1.52988e-20 0.000239475 -2.16458e-20 0)
(-0.000178698 -6.41436e-05 6.87468e-21 0.000207771 3.57875e-21 0)
(-0.000195871 -9.24398e-05 2.40766e-20 0.000221947 -2.69687e-20 0)
(-0.00012123 -9.89925e-05 2.75009e-20 0.000193265 -8.63029e-21 0)
(-0.000145359 -0.000151103 -5.59547e-21 0.00020235 1.54375e-20 0)
(-5.72e-05 -0.000136602 0 0.000172113 0 0)
(-6.96681e-05 -0.000218408 4.074e-20 0.000184572 -8.12996e-21 0)
(5.26809e-06 -0.000177506 4.14938e-20 0.000136616 -1.72511e-20 0)
(2.48765e-05 -0.000284594 -9.82948e-20 0.000161044 1.20753e-20 0)
(6.1802e-05 -0.000215223 -6.70906e-20 8.52962e-05 2.64976e-20 0)
(0.0001286 -0.000342491 6.59029e-20 0.000127855 -1.99779e-20 0)
(9.78755e-05 -0.000236915 -1.21552e-20 7.50668e-06 1.27915e-21 0)
(0.000240911 -0.000389171 -4.36549e-20 8.66504e-05 3.70395e-21 0)
(0.000113163 -0.000240139 -5.51407e-20 -9.30859e-05 -3.83833e-20 0)
(0.000373519 -0.000423899 -5.34957e-20 3.93933e-05 -2.80278e-21 0)
(0.00021052 -0.000261749 4.59971e-20 -0.000124218 3.17273e-20 0)
(0.000447569 -0.000445149 9.72176e-20 -5.73282e-05 2.27398e-20 0)
(0.000344217 -0.000225942 7.24474e-20 -0.000174546 5.51998e-20 0)
(-0.000232269 -1.33735e-05 9.76727e-21 0.000116314 1.81989e-20 0)
(-0.000153088 -1.13808e-05 -1.5978e-20 0.000149222 1.40977e-20 0)
(-0.000173196 -4.87523e-05 -1.56487e-20 0.000129864 6.10193e-21 0)
(-0.000108219 -4.32691e-05 -1.43891e-20 0.000114693 6.92954e-21 0)
(-0.000117651 -8.85298e-05 -1.34435e-20 0.00011044 -6.75283e-21 0)
(-5.50349e-05 -7.36215e-05 -3.06439e-20 7.74908e-05 1.49064e-20 0)
(-5.37592e-05 -0.000127683 1.54139e-20 8.26133e-05 7.49215e-21 0)
(2.7826e-06 -9.76177e-05 3.14106e-20 4.136e-05 -6.82236e-21 0)