/*--------------------------------*- C++ -*----------------------------------*\
| =========                 |                                                 |
| \\      /  F ield         | OpenFOAM: The Open Source CFD Toolbox           |
|  \\    /   O peration     | Version:  v2012                                 |
|   \\  /    A nd           | Website:  www.openfoam.com                      |
|    \\/     M anipulation  |                                                 |
\*---------------------------------------------------------------------------*/
FoamFile
{
    version     2.0;
    format      ascii;
    class       volSymmTensorField;
    location    "18";
    object      sigma;
}
// * * * * * * * * * * * * * * * * * * * * * * * * * * * * * * * * * * * * * //

dimensions      [1 -1 -2 0 0 0 0];


internalField   nonuniform List<symmTensor> 
2000
(
(-1.04471e+08 3.35879e+06 -5.21945e-08 844385 2.05757e-09 2.49689e+07)
(-9.45395e+07 -2.11898e+06 -2.79051e-08 -1.7789e+06 -1.86721e-08 3.04275e+07)
(-5.1615e+07 4.05813e+06 2.53895e-08 -8.69522e+06 -3.92485e-09 3.78867e+07)
(-5.04894e+07 -5.13317e+06 1.6529e-08 -993705 1.40569e-08 4.73909e+07)
(-1.12441e+07 4.01512e+06 -1.9357e-08 -8.21247e+06 2.3197e-09 5.70351e+07)
(-8.4993e+06 -8.98633e+06 -4.31616e-09 1.99203e+06 -1.00984e-08 6.28524e+07)
(2.31611e+07 1.45856e+06 7.82407e-09 -1.50031e+06 6.92159e-09 7.02959e+07)
(2.56187e+07 -1.22798e+07 1.83021e-08 8.03635e+06 -5.864e-09 7.51355e+07)
(5.14538e+07 -1.47719e+06 1.78514e-08 8.00131e+06 -1.02696e-08 7.8851e+07)
(5.21761e+07 -1.42208e+07 7.69239e-09 1.63655e+07 1.74226e-08 8.21134e+07)
(7.44606e+07 -3.54267e+06 0 1.82538e+07 0 8.11729e+07)
(7.25803e+07 -1.44578e+07 0 2.54878e+07 0 8.18229e+07)
(9.27333e+07 -3.99159e+06 -1.75482e-09 2.76666e+07 2.69484e-09 7.65647e+07)
(8.7792e+07 -1.28901e+07 -4.77413e-09 3.36636e+07 -6.90749e-09 7.51983e+07)
(1.07153e+08 -2.6626e+06 -5.58017e-09 3.51257e+07 -4.23313e-09 6.69071e+07)
(9.95078e+07 -9.8711e+06 9.38041e-09 3.94398e+07 8.51242e-09 6.57743e+07)
(1.19661e+08 112037 0 4.01384e+07 0 5.55675e+07)
(1.10631e+08 -6.24202e+06 0 4.20599e+07 0 5.58893e+07)
(1.27656e+08 4.35371e+06 0 4.26745e+07 0 4.61628e+07)
(1.1786e+08 -2.27104e+06 -7.50924e-09 4.09218e+07 -4.84325e-09 4.67497e+07)
(-1.06647e+08 1.85595e+07 0 -1.66603e+06 0 2.89865e+07)
(-8.87225e+07 300363 -2.29146e-08 -2.10767e+06 -4.2301e-09 2.7299e+07)
(-5.31062e+07 3.61526e+06 -6.64326e-09 -2.65577e+06 5.1841e-09 3.14643e+07)
(-4.40616e+07 -9.93776e+06 -1.3073e-08 2.14221e+06 -7.35628e-09 4.5205e+07)
(-8.73669e+06 -7.13417e+06 7.81845e-10 272518 -1.11284e-08 5.06605e+07)
(-4.17161e+06 -1.83729e+07 -4.88505e-10 8.79728e+06 -1.3329e-08 6.13388e+07)
(2.64021e+07 -1.53165e+07 8.68321e-09 6.70395e+06 2.05624e-08 6.39921e+07)
(2.6478e+07 -2.36399e+07 1.54165e-08 1.59358e+07 9.01404e-09 6.98797e+07)
(5.31715e+07 -2.06237e+07 4.15464e-09 1.43615e+07 -6.67248e-09 6.94625e+07)
(4.84458e+07 -2.52225e+07 1.67753e-08 2.20603e+07 1.52287e-08 7.05781e+07)
(7.31401e+07 -2.22775e+07 -8.72739e-09 2.03291e+07 -7.93112e-09 6.79389e+07)
(6.36656e+07 -2.31569e+07 5.14848e-09 2.61492e+07 2.87534e-09 6.54526e+07)
(8.78912e+07 -2.0084e+07 1.19554e-08 2.31169e+07 1.64293e-08 6.21559e+07)
(7.44044e+07 -1.82506e+07 -1.64058e-08 2.78963e+07 3.4795e-09 5.8176e+07)
(9.92412e+07 -1.47801e+07 -2.04071e-08 2.30878e+07 -2.68381e-08 5.53247e+07)
(8.31266e+07 -1.1696e+07 7.12262e-10 2.75288e+07 -2.37046e-08 5.17789e+07)
(1.0883e+08 -7.48472e+06 4.5711e-09 2.1481e+07 1.23556e-08 4.95108e+07)
(9.18532e+07 -4.14714e+06 1.64616e-08 2.51261e+07 1.76295e-08 4.66622e+07)
(1.15543e+08 1.12014e+06 3.03804e-08 1.95212e+07 2.66533e-08 4.32632e+07)
(9.83356e+07 3.81115e+06 2.00048e-08 2.09118e+07 2.68342e-08 3.97017e+07)
(-9.05451e+07 2.20955e+07 1.28157e-08 -7.273e+06 3.87722e-09 3.30997e+07)
(-7.61037e+07 2.64388e+06 3.92089e-08 1.44879e+06 3.71221e-08 3.02727e+07)
(-4.26299e+07 927756 7.46608e-09 -1.92133e+06 -6.75345e-09 3.62274e+07)
(-3.42869e+07 -1.27139e+07 -1.98984e-08 6.76043e+06 -4.35739e-09 4.59704e+07)
(-1.47261e+06 -1.56291e+07 -3.34679e-09 8.08717e+06 5.65127e-09 4.79569e+07)
(643634 -2.374e+07 2.13176e-08 1.23341e+07 -2.83192e-09 5.59663e+07)
(2.97598e+07 -2.66882e+07 7.32672e-09 1.73344e+07 1.24176e-08 4.97906e+07)
(2.4657e+07 -2.85911e+07 2.30612e-08 1.58642e+07 2.13638e-08 5.5367e+07)
(5.10227e+07 -3.06129e+07 0 2.15136e+07 0 4.57302e+07)
(4.00613e+07 -2.7901e+07 0 1.64608e+07 0 4.95004e+07)
(6.46226e+07 -2.85307e+07 -6.90832e-09 1.91056e+07 -6.92408e-09 4.19904e+07)
(5.04018e+07 -2.35366e+07 -4.03889e-08 1.46818e+07 -2.13623e-08 4.362e+07)
(7.36244e+07 -2.28362e+07 -4.05076e-08 1.33261e+07 -2.78713e-08 4.01656e+07)
(5.84992e+07 -1.74713e+07 1.19095e-08 1.17325e+07 -1.38438e-08 3.95049e+07)
(8.06804e+07 -1.56759e+07 2.00475e-08 7.38108e+06 2.70139e-08 3.96993e+07)
(6.60075e+07 -1.09232e+07 1.69448e-08 8.61436e+06 1.95056e-08 3.72406e+07)
(8.73586e+07 -8.46578e+06 1.80323e-08 2.55177e+06 5.67226e-09 3.97953e+07)
(7.36208e+07 -4.19582e+06 -7.3237e-09 5.94236e+06 -2.24109e-09 3.55824e+07)
(9.33816e+07 -1.36729e+06 -9.80218e-09 -914169 1.86591e-09 3.78575e+07)
(7.96789e+07 2.67584e+06 2.50667e-08 3.9919e+06 3.16309e-08 3.27513e+07)
(-7.05125e+07 2.01495e+07 -1.11857e-08 -5.96298e+06 -1.58923e-08 3.4915e+07)
(-5.58869e+07 2.08787e+06 -5.80058e-09 -42482.1 -4.86895e-08 3.11494e+07)
(-2.9002e+07 -8.40501e+06 -1.1897e-08 7.82735e+06 1.97478e-08 2.62224e+07)
(-2.30439e+07 -1.49762e+07 1.16887e-08 6.06913e+06 1.6702e-08 3.55064e+07)
(6.15006e+06 -2.5845e+07 -2.28271e-09 1.79494e+07 -1.51889e-09 2.35778e+07)
(3.06589e+06 -2.45029e+07 4.28707e-09 8.5414e+06 1.89187e-09 3.28324e+07)
(2.88965e+07 -3.23858e+07 1.35898e-08 1.90728e+07 1.30713e-08 1.86255e+07)
(1.98201e+07 -2.69012e+07 1.01451e-08 6.92564e+06 2.185e-08 2.6121e+07)
(4.28084e+07 -2.89299e+07 1.95296e-08 1.08914e+07 4.19243e-08 1.81418e+07)
(3.05422e+07 -2.50212e+07 2.2219e-09 3.05215e+06 3.79291e-08 2.2645e+07)
(5.12487e+07 -2.26638e+07 3.27023e-08 2.99278e+06 5.7146e-08 1.98177e+07)
(3.8519e+07 -2.13802e+07 7.56713e-09 -1.08016e+06 2.77933e-08 2.21752e+07)
(5.71653e+07 -1.6948e+07 3.08858e-08 -2.64964e+06 1.12655e-08 2.21582e+07)
(4.51519e+07 -1.69735e+07 2.69056e-08 -4.55678e+06 2.06637e-08 2.3141e+07)
(6.30085e+07 -1.17108e+07 7.53225e-09 -7.28831e+06 2.45324e-08 2.48146e+07)
(5.13866e+07 -1.22128e+07 1.07632e-08 -7.12862e+06 3.28368e-08 2.50208e+07)
(6.88989e+07 -7.01777e+06 1.93444e-08 -1.04575e+07 5.78604e-09 2.74021e+07)
(5.80283e+07 -7.52448e+06 4.75158e-09 -8.54144e+06 9.28451e-10 2.61419e+07)
(7.48622e+07 -2.5845e+06 -2.2538e-08 -1.25544e+07 -2.09082e-08 2.83109e+07)
(6.39422e+07 -3.00743e+06 -7.32258e-09 -8.61526e+06 -8.52117e-09 2.49154e+07)
(-4.43358e+07 1.20067e+07 2.31443e-08 -1.10664e+06 -7.68954e-09 2.16225e+07)
(-3.21383e+07 525175 -1.77316e-08 -3.16506e+06 -1.67505e-08 1.85351e+07)
(-1.71669e+07 -1.55663e+07 8.34024e-09 1.33541e+07 -3.58335e-09 5.2032e+06)
(-9.04945e+06 -1.74169e+07 1.30071e-09 4.68165e+06 -2.16326e-08 8.07753e+06)
(7.19564e+06 -2.68132e+07 -1.48461e-08 1.03782e+07 1.2295e-08 2.27907e+06)
(2.93155e+06 -2.18552e+07 -5.99508e-09 4.09494e+06 2.21355e-08 7.54809e+06)
(1.85617e+07 -2.45527e+07 2.30494e-09 752960 -2.20755e-08 6.93422e+06)
(1.27412e+07 -2.11519e+07 -7.66825e-09 -453763 -1.88577e-08 7.41598e+06)
(2.90171e+07 -2.1952e+07 -3.412e-08 -5.13587e+06 -1.91405e-08 6.87313e+06)
(2.1737e+07 -1.93784e+07 1.02742e-08 -5.37538e+06 -1.47338e-09 7.93477e+06)
(3.83129e+07 -1.84236e+07 -9.99884e-09 -9.69834e+06 -2.32409e-08 6.79377e+06)
(2.89954e+07 -1.6931e+07 -3.98203e-08 -9.8906e+06 -1.86356e-08 9.60842e+06)
(4.42483e+07 -1.35994e+07 -3.42429e-08 -1.33686e+07 -2.84872e-08 9.45505e+06)
(3.60516e+07 -1.51874e+07 -2.20083e-09 -1.26436e+07 -1.88181e-08 1.0805e+07)
(5.00036e+07 -1.01151e+07 -3.78636e-09 -1.51399e+07 7.50437e-09 1.18101e+07)
(4.12121e+07 -1.26898e+07 -2.20508e-08 -1.44588e+07 -2.29443e-09 1.35822e+07)
(5.52869e+07 -7.0875e+06 -2.93642e-09 -1.66408e+07 -1.44925e-08 1.45915e+07)
(4.62613e+07 -9.79227e+06 6.99366e-09 -1.55422e+07 -1.96075e-08 1.54579e+07)
(6.05738e+07 -4.32342e+06 1.37531e-08 -1.81965e+07 1.67545e-08 1.62679e+07)
(5.0981e+07 -6.53291e+06 -2.81415e-09 -1.62881e+07 6.4296e-09 1.58138e+07)
(-1.7417e+07 5.48312e+06 1.04098e-08 596554 -6.13866e-09 -539688)
(-1.3589e+07 -4.62246e+06 5.19607e-08 4.41036e+06 -8.72775e-09 -3.60404e+06)
(-8.54359e+06 -6.48007e+06 2.40316e-08 5.98599e+06 1.93749e-08 -2.12396e+06)
(-4.09894e+06 -1.08923e+07 -1.26419e-08 3.26883e+06 2.7083e-08 -327195)
(2.10104e+06 -1.35946e+07 -1.82578e-08 4.83109e+06 -2.474e-08 -991385)
(4.17873e+06 -1.42229e+07 -1.74211e-08 -412398 -2.57895e-08 2.36542e+06)
(1.10309e+07 -1.59719e+07 -1.05492e-08 63996.6 4.16874e-09 103900)
(1.02736e+07 -1.48304e+07 2.91624e-08 -4.21167e+06 1.47237e-08 3.62093e+06)
(1.8805e+07 -1.59757e+07 1.24583e-08 -5.35571e+06 1.67299e-08 1.2646e+06)
(1.60985e+07 -1.38497e+07 2.95905e-08 -7.88666e+06 3.47618e-08 4.17812e+06)
(2.62621e+07 -1.49976e+07 2.35109e-08 -1.02479e+07 2.59117e-08 2.08754e+06)
(2.18076e+07 -1.22907e+07 1.20982e-08 -1.09651e+07 2.73265e-08 4.54721e+06)
(3.32969e+07 -1.31852e+07 0 -1.46197e+07 0 3.35732e+06)
(2.7836e+07 -1.04475e+07 9.28487e-09 -1.4285e+07 8.58336e-09 5.09901e+06)
(3.95089e+07 -1.06192e+07 -3.30226e-09 -1.83628e+07 8.66036e-09 4.97292e+06)
(3.33306e+07 -8.80267e+06 3.25594e-09 -1.72996e+07 8.5891e-09 5.97932e+06)
(4.48107e+07 -7.73508e+06 1.72008e-08 -2.11838e+07 9.15475e-09 6.65988e+06)
(3.84631e+07 -7.42056e+06 7.16885e-09 -1.97239e+07 4.34806e-10 7.186e+06)
(4.91709e+07 -5.1355e+06 2.85779e-08 -2.28066e+07 4.69334e-08 8.28043e+06)
(4.31763e+07 -6.3059e+06 3.12425e-08 -2.1196e+07 5.07964e-08 8.1244e+06)
(-5.15303e+06 2.64867e+06 1.27499e-08 -4.32864e+06 -9.18137e-09 -866828)
(-4.94417e+06 -1.72111e+06 -8.95894e-09 1.20918e+06 -3.34732e-08 -2.7971e+06)
(-1.56375e+06 -2.21478e+06 9.17643e-09 327022 9.15048e-09 -1.55143e+06)
(-14710.7 -5.83401e+06 3.88733e-08 -234930 2.01847e-08 -143764)
(3.88619e+06 -6.06459e+06 1.91666e-08 -156553 2.49921e-08 -580097)
(4.96841e+06 -7.75389e+06 2.97823e-09 -3.34421e+06 3.34363e-08 1.31502e+06)
(9.3522e+06 -8.11522e+06 -8.89625e-09 -3.54472e+06 4.56552e-09 -79777.7)
(9.26896e+06 -8.38035e+06 -9.90711e-09 -6.91499e+06 -8.28572e-09 1.92242e+06)
(1.46423e+07 -9.00462e+06 2.57307e-09 -7.82144e+06 -3.09024e-08 367819)
(1.33384e+07 -8.21561e+06 -2.08575e-08 -1.02698e+07 -3.37125e-08 2.19276e+06)
(1.97481e+07 -9.13244e+06 -2.63683e-08 -1.20345e+07 -3.07409e-09 1.02556e+06)
(1.74813e+07 -7.57863e+06 0 -1.33234e+07 0 2.37993e+06)
(2.47397e+07 -8.72818e+06 -1.84431e-09 -1.58116e+07 -2.76471e-08 1.74678e+06)
(2.18464e+07 -6.48701e+06 -4.63209e-10 -1.60592e+07 -2.78733e-08 2.54523e+06)
(2.97307e+07 -7.95565e+06 -4.99542e-09 -1.90468e+07 1.78094e-08 2.46683e+06)
(2.64633e+07 -5.29434e+06 5.04121e-08 -1.84568e+07 5.65651e-08 2.93603e+06)
(3.50903e+07 -7.15187e+06 3.01698e-08 -2.16179e+07 2.31741e-08 3.12097e+06)
(3.13824e+07 -4.33936e+06 1.46288e-08 -2.03963e+07 2.405e-08 3.57416e+06)
(4.02673e+07 -6.11592e+06 -1.63631e-08 -2.381e+07 -1.55262e-08 4.30082e+06)
(3.65153e+07 -3.88999e+06 -8.10218e-09 -2.17164e+07 -7.41887e-09 4.22608e+06)
(-1.50374e+06 260601 -6.02655e-09 -1.82508e+06 -5.03772e-11 -1.83912e+06)
(-1.78423e+06 1.01396e+06 -3.17742e-08 -1.68824e+06 1.12624e-08 -1.16314e+06)
(1.76208e+06 -437468 -3.78975e-08 -2.98838e+06 -3.59142e-08 -1.0032e+06)
(1.85454e+06 -1.01502e+06 -4.93207e-08 -4.29581e+06 -6.04852e-08 -376704)
(5.69862e+06 -1.8024e+06 -2.17751e-08 -5.31573e+06 -3.2925e-08 -637039)
(5.5463e+06 -2.35875e+06 4.65384e-09 -7.41657e+06 -3.57048e-08 -4935.95)
(9.6554e+06 -2.9407e+06 -9.67672e-09 -8.58611e+06 -8.62039e-09 -525426)
(8.93146e+06 -3.19061e+06 -1.67976e-08 -1.0366e+07 -4.20093e-09 121832)
(1.34423e+07 -3.79717e+06 -3.17597e-09 -1.19683e+07 -7.61171e-09 -335911)
(1.208e+07 -3.6484e+06 -2.105e-08 -1.28449e+07 -2.46946e-08 136277)
(1.70154e+07 -4.34229e+06 -2.25074e-08 -1.51171e+07 -2.44205e-08 69328.2)
(1.51063e+07 -3.71779e+06 -5.32426e-09 -1.48485e+07 -1.91209e-08 101735)
(2.04528e+07 -4.5739e+06 2.61657e-09 -1.79544e+07 -1.02705e-08 711132)
(1.8098e+07 -3.33663e+06 -4.31765e-08 -1.64532e+07 -2.7256e-08 138893)
(2.40315e+07 -4.55696e+06 -5.20599e-08 -2.04903e+07 -4.58117e-08 1.57458e+06)
(2.12834e+07 -2.56348e+06 -2.74035e-08 -1.78404e+07 -4.04859e-08 503036)
(2.82142e+07 -4.44273e+06 -6.72031e-09 -2.27181e+07 1.1268e-09 2.62029e+06)
(2.50261e+07 -1.68955e+06 1.94719e-08 -1.9086e+07 5.09175e-09 1.51955e+06)
(3.33929e+07 -4.55006e+06 2.81484e-08 -2.44805e+07 2.18329e-08 3.83697e+06)
(2.97923e+07 -1.43207e+06 7.15864e-09 -1.96361e+07 1.53866e-08 2.87943e+06)
(-2.68271e+06 2.0388e+06 1.72556e-08 -2.19521e+06 -1.18796e-08 -2.63659e+06)
(-2.39105e+06 3.78177e+06 3.66113e-09 -6.09848e+06 -3.17963e-08 -1.29233e+06)
(1.75861e+06 1.82251e+06 1.49428e-08 -6.33949e+06 4.03548e-08 -2.36052e+06)
(1.33703e+06 2.75436e+06 -1.4155e-08 -9.30686e+06 3.12368e-08 -1.47604e+06)
(5.82975e+06 1.00449e+06 1.0206e-08 -1.01074e+07 8.4576e-09 -2.09465e+06)
(4.95393e+06 1.64575e+06 5.93911e-09 -1.20705e+07 -5.06702e-09 -1.53676e+06)
(9.57466e+06 42931.8 2.25427e-08 -1.34319e+07 2.43311e-08 -1.78306e+06)
(8.22475e+06 613956 1.34119e-09 -1.43048e+07 9.16252e-09 -1.44888e+06)
(1.29227e+07 -781327 1.63527e-08 -1.6174e+07 3.63523e-09 -1.45089e+06)
(1.1134e+07 -274522 0 -1.60953e+07 0 -1.30072e+06)
(1.5871e+07 -1.28917e+06 7.12707e-09 -1.84015e+07 1.9659e-08 -1.06063e+06)
(1.3728e+07 -1.00275e+06 1.26971e-08 -1.74513e+07 1.63514e-08 -1.20835e+06)
(1.84276e+07 -1.38679e+06 3.24215e-08 -2.02276e+07 3.19306e-08 -475267)
(1.60524e+07 -1.57817e+06 1.32833e-08 -1.82113e+07 1.61556e-08 -1.34101e+06)
(2.07608e+07 -1.13962e+06 1.54551e-08 -2.17844e+07 5.33591e-09 523552)
(1.82438e+07 -2.03584e+06 -9.22601e-09 -1.79982e+07 -6.97014e-09 -1.99069e+06)
(2.35992e+07 -963840 -1.63121e-08 -2.33261e+07 -2.58617e-08 2.08745e+06)
(2.06453e+07 -2.5237e+06 -1.43699e-08 -1.61801e+07 -1.49597e-08 -3.8182e+06)
(2.86926e+07 -1.85691e+06 -1.41311e-08 -2.54679e+07 -6.35013e-09 3.72549e+06)
(2.36959e+07 -3.01713e+06 1.87636e-08 -1.27937e+07 5.27043e-09 -7.08031e+06)
(-5.306e+06 5.73494e+06 -1.05274e-08 -5.68717e+06 1.23893e-08 -4.65079e+06)
(-4.78215e+06 7.28122e+06 2.96122e-08 -1.1548e+07 3.21007e-08 -2.90025e+06)
(137231 4.52769e+06 -4.54624e-09 -1.09965e+07 -1.56571e-08 -4.57233e+06)
(-345118 6.01649e+06 -4.99891e-09 -1.46643e+07 6.11985e-09 -3.35085e+06)
(4.59108e+06 3.17696e+06 -2.61828e-08 -1.48461e+07 -8.99692e-09 -3.972e+06)
(3.55181e+06 4.60372e+06 5.0177e-09 -1.65973e+07 -5.34551e-09 -3.19998e+06)
(8.30937e+06 1.81986e+06 -4.01735e-09 -1.75087e+07 -1.35242e-08 -3.19109e+06)
(6.91442e+06 3.32278e+06 -1.48473e-08 -1.78396e+07 -2.43109e-09 -2.83635e+06)
(1.13103e+07 704683 -1.54489e-08 -1.93526e+07 -2.71857e-09 -2.43958e+06)
(9.81662e+06 2.29421e+06 0 -1.88624e+07 0 -2.41561e+06)
(1.36756e+07 -78905.6 -9.2729e-09 -2.07181e+07 -7.51636e-09 -1.78641e+06)
(1.23642e+07 1.52938e+06 0 -2.01706e+07 0 -1.95886e+06)
(1.54744e+07 -445323 -6.84548e-10 -2.20289e+07 1.10799e-08 -1.30621e+06)
(1.46409e+07 1.02109e+06 2.7503e-08 -2.25935e+07 1.95673e-08 -1.66829e+06)
(1.68784e+07 -201953 2.05799e-08 -2.41353e+07 1.13673e-09 -1.24233e+06)
(1.6767e+07 731731 -5.19e-09 -2.75686e+07 2.25437e-09 -2.27815e+06)
(1.86518e+07 946340 -5.79099e-09 -2.87545e+07 2.52335e-09 -2.10408e+06)
(1.91605e+07 179003 2.24683e-08 -3.66682e+07 1.30249e-08 -4.75573e+06)
(2.25815e+07 3.36971e+06 1.46997e-08 -3.80381e+07 1.59914e-08 -4.2436e+06)
(2.18464e+07 -550781 7.68526e-10 -5.29818e+07 1.00363e-08 -3.36781e+06)
(-7.7733e+06 1.02116e+07 8.39445e-09 -1.15941e+07 -1.19794e-08 -7.04553e+06)
(-7.62892e+06 1.09097e+07 -4.37064e-09 -1.74209e+07 -2.31403e-08 -5.08925e+06)
(-2.03329e+06 7.27626e+06 9.87122e-09 -1.61124e+07 6.97249e-09 -7.09701e+06)
(-2.60489e+06 8.87436e+06 1.3381e-08 -1.9376e+07 3.45997e-10 -5.53702e+06)
(2.70913e+06 4.90534e+06 1.97862e-08 -1.89056e+07 3.51118e-08 -5.93755e+06)
(1.57438e+06 6.99361e+06 4.0174e-08 -1.98599e+07 4.31892e-08 -4.99649e+06)
(6.66847e+06 3.01466e+06 4.50206e-08 -2.0411e+07 4.17379e-08 -4.67798e+06)
(5.03239e+06 5.52886e+06 9.8195e-09 -1.96927e+07 2.83026e-08 -4.3448e+06)
(9.9458e+06 1.74309e+06 2.28681e-08 -2.12839e+07 2.06037e-08 -3.61654e+06)
(7.93026e+06 4.55827e+06 3.20095e-09 -1.9344e+07 8.41656e-09 -3.95046e+06)
(1.26167e+07 1.15593e+06 2.30688e-08 -2.20674e+07 2.04543e-08 -2.85251e+06)
(1.03757e+07 4.26357e+06 3.89575e-09 -1.94841e+07 8.22681e-09 -4.16638e+06)
(1.45147e+07 1.58051e+06 -4.21222e-09 -2.36941e+07 -2.20509e-08 -2.79951e+06)
(1.23701e+07 5.25886e+06 -4.47066e-09 -2.20596e+07 -8.06795e-09 -5.68378e+06)
(1.50462e+07 4.01184e+06 -4.92354e-09 -2.80819e+07 3.70894e-09 -4.36554e+06)
(1.39823e+07 8.53924e+06 -1.08214e-08 -3.10294e+07 -3.2483e-09 -8.6352e+06)
(1.33677e+07 9.75971e+06 -2.29006e-08 -3.71056e+07 -3.47352e-08 -6.77219e+06)
(1.63125e+07 1.34502e+07 -9.68714e-09 -4.843e+07 -2.68517e-08 -6.82761e+06)
(1.04055e+07 1.65325e+07 3.68913e-10 -4.54978e+07 1.17444e-08 1.16801e+06)
(2.50715e+07 4.52528e+06 1.30103e-08 -3.26626e+07 1.48512e-08 -6.29357e+06)
(-9.16589e+06 1.43147e+07 0 -1.89686e+07 0 -9.32057e+06)
(-9.8956e+06 1.38885e+07 0 -2.33835e+07 0 -7.31297e+06)
(-4.24301e+06 9.8364e+06 0 -2.10906e+07 0 -9.44962e+06)
(-4.94893e+06 1.09593e+07 -1.1246e-08 -2.36207e+07 3.42067e-10 -7.50381e+06)
(-20528.8 6.43869e+06 -1.24397e-08 -2.19345e+07 6.17753e-10 -7.66586e+06)
(-864567 8.53508e+06 1.45313e-08 -2.26576e+07 -5.28063e-09 -6.59159e+06)
(3.45627e+06 3.98123e+06 7.69249e-09 -2.19776e+07 -1.16155e-08 -5.9062e+06)
(2.43917e+06 6.79296e+06 0 -2.17342e+07 0 -5.68104e+06)
(6.26923e+06 2.43284e+06 -8.41792e-09 -2.19783e+07 5.59787e-09 -4.62108e+06)
(5.129e+06 5.63591e+06 2.72902e-08 -2.17178e+07 2.28123e-08 -5.01028e+06)
(8.48269e+06 1.86174e+06 1.3605e-08 -2.27134e+07 2.27042e-08 -4.0756e+06)
(7.20645e+06 5.12581e+06 9.0995e-10 -2.37535e+07 2.24817e-08 -4.82917e+06)
(9.79231e+06 2.87773e+06 6.97442e-09 -2.54813e+07 -4.78757e-09 -4.96868e+06)
(8.33879e+06 5.91179e+06 -1.59112e-08 -2.93308e+07 -2.17248e-08 -5.86748e+06)
(9.48101e+06 6.50795e+06 9.43201e-09 -3.16639e+07 1.71319e-08 -7.94548e+06)
(8.05713e+06 9.08694e+06 1.92284e-08 -3.77558e+07 2.04395e-08 -8.01079e+06)
(7.8793e+06 1.17236e+07 9.7944e-09 -3.87918e+07 -8.50491e-09 -9.5249e+06)
(7.32142e+06 1.38322e+07 -2.32332e-08 -3.95302e+07 -2.00739e-08 -5.46844e+06)
(9.72903e+06 1.0845e+07 -2.47672e-08 -3.47505e+07 -2.03231e-08 3.63217e+06)
(1.72689e+07 2.73574e+06 -8.48473e-09 -1.66895e+07 -1.08581e-08 -6.6199e+06)
(-9.2107e+06 1.70287e+07 3.37228e-09 -2.66072e+07 -1.17334e-08 -1.13601e+07)
(-1.09271e+07 1.57921e+07 -1.29633e-08 -2.91739e+07 -1.80256e-08 -9.31195e+06)
(-5.8222e+06 1.1648e+07 -1.64308e-08 -2.57681e+07 -1.60763e-08 -1.1582e+07)
(-6.71806e+06 1.21516e+07 -1.48657e-08 -2.77349e+07 -1.70726e-08 -9.09879e+06)
(-2.6476e+06 7.46725e+06 -1.77349e-08 -2.45003e+07 -3.66157e-09 -9.47823e+06)
(-3.17392e+06 9.23857e+06 9.35506e-09 -2.57293e+07 -4.14817e-10 -7.8127e+06)
(78304.7 4.54818e+06 1.85782e-08 -2.33826e+07 1.50336e-08 -7.59055e+06)
(-329452 7.20945e+06 -2.3093e-09 -2.44712e+07 1.59285e-08 -6.76557e+06)
(2.30901e+06 2.87203e+06 -1.98412e-08 -2.30755e+07 -2.51334e-08 -6.4304e+06)
(1.94641e+06 6.00773e+06 -1.21022e-09 -2.45845e+07 -2.1766e-08 -6.27009e+06)
(3.96127e+06 2.51376e+06 -6.32245e-09 -2.41754e+07 5.23709e-09 -6.21628e+06)
(3.65855e+06 5.86498e+06 1.76115e-08 -2.66781e+07 1.55759e-08 -6.64033e+06)
(4.68763e+06 3.89081e+06 1.21572e-08 -2.74518e+07 1.05495e-08 -7.43561e+06)
(4.49988e+06 7.43798e+06 -1.09943e-09 -3.11096e+07 1.38841e-08 -8.27697e+06)
(4.18985e+06 7.11143e+06 -2.84015e-08 -3.27593e+07 -3.21521e-08 -9.90872e+06)
(4.0509e+06 1.07869e+07 -3.28063e-08 -3.60157e+07 -3.87066e-08 -9.95462e+06)
(3.64521e+06 9.80528e+06 -3.48913e-09 -3.59464e+07 4.00208e-09 -9.32449e+06)
(3.13172e+06 1.25011e+07 -6.63474e-09 -3.57137e+07 -5.49441e-09 -5.79279e+06)
(6.48184e+06 6.84244e+06 -7.88234e-09 -2.97155e+07 -1.63434e-08 3.26873e+06)
(1.12953e+07 -36928 -5.53969e-09 -1.43049e+07 4.11123e-09 -4.91791e+06)
(-8.05632e+06 1.79759e+07 0 -3.37503e+07 0 -1.30206e+07)
(-1.07237e+07 1.65747e+07 0 -3.44935e+07 0 -1.09301e+07)
(-6.34898e+06 1.24942e+07 1.29095e-08 -3.03246e+07 3.06826e-08 -1.32589e+07)
(-7.55554e+06 1.26233e+07 1.75628e-08 -3.14302e+07 2.99445e-08 -1.04486e+07)
(-4.40779e+06 8.18796e+06 1.48379e-08 -2.71591e+07 1.2805e-08 -1.10288e+07)
(-4.7625e+06 9.58189e+06 1.34199e-08 -2.83742e+07 1.37393e-08 -8.96887e+06)
(-2.579e+06 5.25523e+06 8.42185e-09 -2.49839e+07 -1.15058e-09 -9.14122e+06)
(-2.46074e+06 7.59839e+06 -1.69321e-09 -2.65884e+07 4.01147e-09 -7.92777e+06)
(-1.00383e+06 3.65086e+06 -1.1257e-08 -2.42409e+07 -1.75515e-08 -8.0742e+06)
(-609605 6.58008e+06 -2.19906e-08 -2.64013e+07 -2.61927e-08 -7.54261e+06)
(179597 3.33471e+06 -2.49977e-08 -2.51523e+07 -2.51044e-08 -7.92086e+06)
(691607 6.6641e+06 -1.87208e-08 -2.79859e+07 -1.92096e-08 -7.93393e+06)
(719094 4.43936e+06 -3.44211e-08 -2.7968e+07 -2.57206e-08 -8.94077e+06)
(1.09476e+06 8.18529e+06 -3.66419e-09 -3.1253e+07 -1.92904e-08 -9.28585e+06)
(521484 6.73434e+06 1.90982e-08 -3.21311e+07 3.64358e-08 -1.07746e+07)
(407269 1.06908e+07 3.36347e-08 -3.4845e+07 3.98699e-08 -1.05597e+07)
(451391 8.3744e+06 2.87233e-08 -3.43997e+07 2.49584e-08 -9.88648e+06)
(-69435 1.13377e+07 2.65636e-08 -3.45239e+07 2.77842e-08 -6.59144e+06)
(2.86711e+06 5.40045e+06 2.78466e-08 -2.81655e+07 1.748e-08 1.97598e+06)
(6.70953e+06 86174.8 1.17014e-08 -1.39519e+07 1.46423e-08 -5.55266e+06)
(-6.17168e+06 1.73353e+07 -1.98885e-09 -3.99715e+07 1.01707e-08 -1.41043e+07)
(-9.68363e+06 1.62703e+07 3.28824e-09 -3.88856e+07 1.83184e-08 -1.21052e+07)
(-6.07015e+06 1.24776e+07 -1.58183e-08 -3.43116e+07 -2.44475e-08 -1.43705e+07)
(-7.60806e+06 1.2492e+07 -1.45245e-08 -3.43352e+07 -2.14679e-08 -1.14421e+07)
(-5.33308e+06 8.62659e+06 -1.72526e-08 -2.95041e+07 -9.22738e-09 -1.20785e+07)
(-5.61371e+06 9.65445e+06 -6.14947e-09 -3.03596e+07 -8.4136e-09 -9.82997e+06)
(-4.38585e+06 6.03162e+06 -1.41723e-08 -2.63579e+07 -1.82303e-08 -1.0214e+07)
(-3.90542e+06 7.87107e+06 -6.96565e-09 -2.81111e+07 -2.01474e-08 -8.76327e+06)
(-3.44093e+06 4.59583e+06 6.81995e-09 -2.50838e+07 1.09288e-08 -9.20296e+06)
(-2.53623e+06 7.00258e+06 6.19988e-09 -2.76099e+07 1.12362e-08 -8.38628e+06)
(-2.66866e+06 4.19732e+06 1.78579e-08 -2.55955e+07 1.69104e-08 -9.05005e+06)
(-1.65603e+06 7.0733e+06 1.26793e-08 -2.8754e+07 1.09877e-08 -8.73245e+06)
(-2.2736e+06 4.85945e+06 1.79782e-08 -2.79203e+07 5.64653e-09 -9.94298e+06)
(-1.55558e+06 8.19778e+06 -4.87008e-09 -3.14355e+07 -3.07048e-09 -9.93329e+06)
(-2.34262e+06 6.39929e+06 2.28968e-09 -3.15862e+07 8.15617e-09 -1.15956e+07)
(-2.27315e+06 9.93625e+06 1.36787e-08 -3.46096e+07 1.2378e-08 -1.10422e+07)
(-2.33532e+06 7.42035e+06 9.98629e-09 -3.35708e+07 8.31154e-09 -1.07545e+07)
(-2.68876e+06 1.02337e+07 1.80957e-09 -3.42192e+07 9.35185e-09 -7.34513e+06)
(-673768 4.78751e+06 5.63528e-09 -2.7297e+07 4.06776e-09 377416)
(2.28944e+06 1.0023e+06 -6.6222e-09 -1.3892e+07 2.18124e-09 -6.3649e+06)
(-4.04822e+06 1.53305e+07 1.00614e-09 -4.47289e+07 -5.98734e-09 -1.46138e+07)
(-8.19491e+06 1.49364e+07 -9.71161e-10 -4.19365e+07 -8.11295e-09 -1.28231e+07)
(-5.302e+06 1.17236e+07 2.77695e-09 -3.73088e+07 3.20798e-09 -1.4919e+07)
(-7.1731e+06 1.17609e+07 -5.07732e-11 -3.6288e+07 3.13815e-09 -1.19926e+07)
(-5.62838e+06 8.73478e+06 -5.08669e-09 -3.12689e+07 -6.06709e-09 -1.26675e+07)
(-5.95083e+06 9.362e+06 -7.361e-09 -3.17683e+07 -1.26339e-08 -1.03546e+07)
(-5.46416e+06 6.668e+06 9.09891e-09 -2.74623e+07 1.17252e-08 -1.09232e+07)
(-4.82293e+06 7.82706e+06 8.60551e-09 -2.93423e+07 9.12725e-09 -9.3505e+06)
(-5.07804e+06 5.42519e+06 -7.93155e-10 -2.5857e+07 -1.01754e-08 -1.00424e+07)
(-3.92866e+06 7.01147e+06 -1.00193e-08 -2.87461e+07 -6.20709e-09 -9.04301e+06)
(-4.68013e+06 4.89326e+06 -2.23769e-08 -2.61281e+07 -1.58318e-08 -9.96305e+06)
(-3.43667e+06 6.89821e+06 -7.23996e-09 -2.96962e+07 -1.64749e-08 -9.40329e+06)
(-4.47164e+06 5.10386e+06 1.46931e-08 -2.81679e+07 2.50751e-08 -1.08295e+07)
(-3.55653e+06 7.56722e+06 1.46364e-08 -3.20448e+07 2.41204e-08 -1.05175e+07)
(-4.56863e+06 5.96667e+06 -7.7633e-09 -3.14559e+07 -2.00131e-08 -1.23584e+07)
(-4.27361e+06 8.75189e+06 -1.77335e-08 -3.47772e+07 -2.06543e-08 -1.14876e+07)
(-4.68847e+06 6.47368e+06 -3.8775e-09 -3.29707e+07 7.76349e-09 -1.15094e+07)
(-4.79603e+06 8.97223e+06 9.70611e-09 -3.39061e+07 5.30189e-09 -7.99714e+06)
(-3.84898e+06 4.28177e+06 1.16192e-08 -2.63301e+07 4.02909e-09 -1.20202e+06)
(-1.57579e+06 1.87812e+06 1.24963e-09 -1.38287e+07 -1.74454e-10 -7.06004e+06)
(-2.08308e+06 1.22975e+07 1.3182e-09 -4.7541e+07 -1.24799e-08 -1.46683e+07)
(-6.57719e+06 1.26942e+07 -4.66227e-09 -4.34403e+07 -2.15228e-08 -1.31317e+07)
(-4.26063e+06 1.03304e+07 -3.17294e-09 -3.91831e+07 -6.00258e-09 -1.49935e+07)
(-6.49831e+06 1.03919e+07 -1.55564e-09 -3.73261e+07 -8.39021e-09 -1.21923e+07)
(-5.47092e+06 8.44309e+06 -3.50627e-10 -3.25651e+07 -2.83501e-09 -1.29227e+07)
(-5.99983e+06 8.54353e+06 -3.71137e-09 -3.27879e+07 -1.51261e-10 -1.07033e+07)
(-6.01336e+06 6.99002e+06 -1.31025e-08 -2.85818e+07 -1.35048e-08 -1.14226e+07)
(-5.43529e+06 7.24495e+06 -1.17575e-08 -3.05641e+07 -1.77115e-08 -9.91036e+06)
(-6.16306e+06 5.93309e+06 -2.88224e-10 -2.69625e+07 2.8327e-09 -1.0767e+07)
(-5.0017e+06 6.40165e+06 0 -3.01534e+07 0 -9.76732e+06)
(-6.14927e+06 5.23678e+06 7.73093e-09 -2.71736e+07 9.22187e-09 -1.08403e+07)
(-4.8701e+06 6.02894e+06 4.75463e-09 -3.10924e+07 5.64068e-09 -1.01768e+07)
(-6.17079e+06 4.98697e+06 2.45769e-09 -2.89472e+07 2.64967e-09 -1.172e+07)
(-5.19803e+06 6.25759e+06 8.80841e-09 -3.30949e+07 5.83034e-09 -1.11634e+07)
(-6.37456e+06 5.1922e+06 1.9383e-08 -3.16249e+07 1.40666e-08 -1.3076e+07)
(-5.97173e+06 7.01046e+06 1.53374e-08 -3.50421e+07 1.47699e-08 -1.18599e+07)
(-6.68245e+06 5.22513e+06 1.374e-08 -3.21902e+07 1.04559e-08 -1.21191e+07)
(-6.65394e+06 7.30117e+06 1.73196e-08 -3.31386e+07 1.57558e-08 -8.44296e+06)
(-6.57669e+06 3.54974e+06 1.35103e-08 -2.47977e+07 5.11743e-09 -2.73975e+06)
(-4.8403e+06 2.39301e+06 6.078e-09 -1.34705e+07 8.16937e-09 -7.56026e+06)
(-568032 8.67635e+06 -1.1615e-09 -4.83184e+07 1.39459e-08 -1.44859e+07)
(-5.09558e+06 9.67273e+06 2.03341e-09 -4.37441e+07 1.43094e-08 -1.30544e+07)
(-3.23723e+06 8.29878e+06 3.96719e-09 -4.00446e+07 1.49328e-08 -1.47498e+07)
(-5.82962e+06 8.22027e+06 2.84574e-09 -3.77072e+07 1.21188e-08 -1.21975e+07)
(-5.15027e+06 7.57493e+06 1.19486e-09 -3.3614e+07 6.03486e-10 -1.29644e+07)
(-6.04813e+06 6.91192e+06 2.8501e-09 -3.35723e+07 5.05196e-09 -1.10467e+07)
(-6.371e+06 6.77041e+06 2.43399e-09 -2.99639e+07 4.05401e-09 -1.18021e+07)
(-6.08252e+06 5.83846e+06 1.35786e-09 -3.18483e+07 5.93147e-09 -1.06317e+07)
(-7.1111e+06 5.92092e+06 -7.62707e-09 -2.86101e+07 -1.15727e-08 -1.14511e+07)
(-6.13654e+06 4.9743e+06 -5.79776e-09 -3.18155e+07 -9.50545e-09 -1.07432e+07)
(-7.54974e+06 5.09852e+06 -9.24023e-09 -2.88374e+07 -6.84627e-09 -1.17417e+07)
(-6.36998e+06 4.38367e+06 -3.38281e-09 -3.28521e+07 -4.84091e-09 -1.11827e+07)
(-7.84585e+06 4.4431e+06 -7.38569e-10 -3.0206e+07 4.46668e-09 -1.26708e+07)
(-6.91498e+06 4.24962e+06 6.07081e-09 -3.44586e+07 6.98597e-09 -1.18932e+07)
(-8.15776e+06 4.0503e+06 -3.88262e-09 -3.18639e+07 -8.01609e-09 -1.38367e+07)
(-7.77839e+06 4.66775e+06 -4.65225e-09 -3.5292e+07 -5.24683e-09 -1.20663e+07)
(-8.56439e+06 3.65527e+06 -1.02786e-08 -3.08531e+07 -7.32838e-09 -1.27471e+07)
(-8.60632e+06 5.11336e+06 -6.39401e-09 -3.18203e+07 -3.33312e-09 -8.57972e+06)
(-8.91142e+06 2.47562e+06 -1.51116e-09 -2.22544e+07 8.97154e-09 -4.53748e+06)
(-7.82242e+06 2.26882e+06 -7.96472e-10 -1.28163e+07 -5.97272e-10 -7.63122e+06)
(264118 4.75905e+06 5.78201e-10 -4.75569e+07 -4.06881e-09 -1.42313e+07)
(-3.77172e+06 6.18817e+06 0 -4.36086e+07 0 -1.27698e+07)
(-2.67256e+06 5.56847e+06 -9.15098e-10 -4.00516e+07 -1.14091e-08 -1.43356e+07)
(-5.16695e+06 5.15556e+06 -3.19343e-10 -3.81128e+07 -1.22299e-08 -1.18821e+07)
(-4.94761e+06 5.92217e+06 1.46696e-09 -3.44596e+07 2.63763e-09 -1.29674e+07)
(-6.20573e+06 4.05554e+06 -1.9202e-10 -3.45328e+07 2.94715e-10 -1.12159e+07)
(-6.77463e+06 5.77366e+06 1.95324e-09 -3.15703e+07 6.064e-09 -1.22191e+07)
(-7.06818e+06 3.07709e+06 3.73321e-09 -3.31814e+07 9.37619e-09 -1.12729e+07)
(-8.16048e+06 5.2549e+06 3.41099e-09 -3.06743e+07 8.45466e-09 -1.21653e+07)
(-7.83707e+06 2.29854e+06 2.12287e-09 -3.32711e+07 4.23627e-09 -1.17094e+07)
(-9.11625e+06 4.51626e+06 1.79944e-09 -3.09452e+07 2.0233e-09 -1.26551e+07)
(-8.57309e+06 1.80857e+06 1.35764e-09 -3.41459e+07 2.79728e-09 -1.22903e+07)
(-9.72974e+06 3.68758e+06 -5.27615e-09 -3.17682e+07 -9.59631e-09 -1.36295e+07)
(-9.34481e+06 1.76284e+06 -5.56179e-09 -3.51573e+07 -9.60941e-09 -1.28316e+07)
(-1.01768e+07 2.8772e+06 6.12854e-11 -3.2048e+07 1.15556e-09 -1.4601e+07)
(-1.01828e+07 2.27617e+06 -2.39713e-10 -3.4808e+07 1.09611e-09 -1.24606e+07)
(-1.06416e+07 2.08317e+06 -1.33883e-09 -2.89632e+07 -1.56833e-09 -1.34371e+07)
(-1.09363e+07 3.05065e+06 -1.03748e-09 -2.99559e+07 -4.04577e-09 -8.701e+06)
(-1.11368e+07 1.17468e+06 -6.20339e-09 -1.88987e+07 -5.53841e-09 -6.74446e+06)
(-1.07894e+07 1.64151e+06 5.02782e-10 -1.30387e+07 4.78185e-10 -6.41304e+06)
(261626 575452 -3.79559e-12 -4.59188e+07 -2.65041e-12 -1.41861e+07)
(-2.56699e+06 2.72501e+06 -2.85016e-09 -4.35927e+07 5.7162e-09 -1.28325e+07)
(-1.76599e+06 2.50375e+06 -2.35677e-09 -3.93085e+07 6.62698e-09 -1.49024e+07)
(-4.49473e+06 1.62547e+06 1.74944e-09 -3.87451e+07 2.96108e-09 -1.16886e+07)
(-4.28752e+06 3.44984e+06 1.44148e-09 -3.50069e+07 -3.81774e-09 -1.36811e+07)
(-6.20402e+06 515040 5.09713e-10 -3.53661e+07 -4.27704e-09 -1.14478e+07)
(-6.67725e+06 3.84598e+06 -5.84929e-10 -3.30709e+07 -7.10284e-09 -1.29384e+07)
(-7.72516e+06 -347663 -1.97929e-09 -3.39527e+07 -8.0545e-09 -1.19064e+07)
(-8.73707e+06 3.86196e+06 -1.6677e-10 -3.26872e+07 -1.86706e-09 -1.28184e+07)
(-9.10461e+06 -968562 9.17604e-11 -3.40047e+07 -4.46798e-09 -1.25414e+07)
(-1.0385e+07 3.52218e+06 -1.00233e-09 -3.30699e+07 -6.89193e-09 -1.32539e+07)