/*--------------------------------*- C++ -*----------------------------------*\
| =========                 |                                                 |
| \\      /  F ield         | OpenFOAM: The Open Source CFD Toolbox           |
|  \\    /   O peration     | Version:  v2012                                 |
|   \\  /    A nd           | Website:  www.openfoam.com                      |
|    \\/     M anipulation  |                                                 |
\*---------------------------------------------------------------------------*/
FoamFile
{
    version     2.0;
    format      ascii;
    class       volSymmTensorField;
    location    "2";
    object      epsilon;
}
// * * * * * * * * * * * * * * * * * * * * * * * * * * * * * * * * * * * * * //

dimensions      [0 0 0 0 0 0 0];


internalField   nonuniform List<symmTensor> 
500
(
(0.00145356 -3.3152e-05 -1.64205e-15 -0.000609355 -6.85454e-15 0)
(0.00107648 -0.000235577 7.12592e-17 -0.00044169 -3.05452e-15 0)
(0.00111782 2.86829e-05 1.38848e-15 -0.000399817 -7.6543e-15 0)
(0.000880206 -0.000125471 4.81006e-16 -0.000321315 -3.46609e-15 0)
(0.000908547 5.57106e-05 -8.78326e-16 -0.000292632 -6.104e-15 0)
(0.000751927 -6.11699e-05 -7.22946e-16 -0.000255991 2.19009e-16 0)
(0.000772087 6.75714e-05 3.47053e-16 -0.00023923 -6.14743e-16 0)
(0.000663072 -2.27317e-05 -1.54027e-15 -0.000220815 2.11886e-15 0)
(0.000678113 7.30663e-05 -1.08802e-15 -0.000214648 -1.45104e-15 0)
(0.000596728 4.28361e-07 -2.86771e-15 -0.000202023 2.04589e-15 0)
(0.00127909 -0.000209517 -2.75165e-15 -0.000455028 -1.68398e-15 0)
(0.000902188 -0.000330128 -2.52288e-15 -0.000313471 3.16262e-16 0)
(0.00103516 -5.72041e-05 3.63099e-16 -0.000346827 1.95048e-16 0)
(0.000788767 -0.000158558 -1.71418e-15 -0.000273553 -9.14525e-16 0)
(0.000879502 2.87168e-05 -8.79532e-16 -0.000287664 -6.01624e-16 0)
(0.000708576 -5.59503e-05 -4.46025e-15 -0.000251053 2.01109e-15 0)
(0.00077301 7.77215e-05 -3.85651e-15 -0.000255394 3.87895e-15 0)
(0.000648325 7.10419e-06 -4.78187e-15 -0.000237435 6.4239e-15 0)
(0.000695493 0.000105305 -2.55739e-15 -0.000237722 4.57062e-15 0)
(0.00060045 4.62118e-05 7.43058e-16 -0.000228211 6.70666e-15 0)
(0.000984199 -0.000334525 -3.4624e-15 -0.000319272 -1.3726e-16 0)
(0.000685781 -0.000352599 -9.72421e-16 -0.000184544 5.29091e-16 0)
(0.000891578 -0.000128859 -1.84824e-15 -0.000303706 -1.10426e-16 0)
(0.000673032 -0.000175186 -6.88902e-16 -0.000238532 -1.21062e-15 0)
(0.000817859 -1.13491e-05 -3.7347e-15 -0.000291574 4.67129e-16 0)
(0.000652039 -6.64311e-05 1.1357e-15 -0.0002644 4.62412e-16 0)
(0.000757539 5.73526e-05 -2.59856e-15 -0.000281618 5.08952e-15 0)
(0.000628048 2.15187e-06 4.00483e-15 -0.000274867 2.40064e-15 0)
(0.000706691 9.75179e-05 1.31633e-15 -0.000272768 6.66047e-15 0)
(0.000603675 4.61178e-05 1.15126e-15 -0.000276488 2.50917e-15 0)
(0.000637762 -0.000347046 6.57785e-16 -0.000177735 1.14638e-15 0)
(0.00047306 -0.000303425 1.54119e-15 -8.86948e-05 1.92511e-15 0)
(0.000699553 -0.000168676 -5.05238e-17 -0.000252051 -1.75315e-16 0)
(0.000543629 -0.000177126 9.7177e-16 -0.0002114 -1.52959e-15 0)
(0.000714077 -6.09412e-05 2.90859e-15 -0.0002861 -1.81739e-15 0)
(0.000574427 -9.40155e-05 -4.35849e-17 -0.000274048 -1.98973e-15 0)
(0.000705922 5.71625e-06 3.30796e-15 -0.000298717 2.00469e-16 0)
(0.000583305 -3.82437e-05 -2.39587e-15 -0.000303565 -1.43315e-15 0)
(0.000686759 4.74412e-05 3.09269e-16 -0.000299407 2.31233e-16 0)
(0.000580215 -1.93158e-07 -7.74337e-16 -0.0003141 -1.97758e-16 0)
(0.00033224 -0.000255573 2.08427e-15 -8.38931e-05 1.49609e-15 0)
(0.000306754 -0.000209542 1.08599e-15 -5.0609e-05 -1.04707e-15 0)
(0.000496129 -0.000164481 1.27968e-15 -0.000204701 -1.06165e-15 0)
(0.000417032 -0.000161303 -1.66322e-15 -0.000191161 -1.14882e-15 0)
(0.000576155 -0.000100136 -2.68004e-15 -0.000266066 -1.91557e-15 0)
(0.000479039 -0.000120376 -2.43832e-15 -0.000266123 -1.27134e-15 0)
(0.000611533 -5.48551e-05 -2.81275e-15 -0.000294327 -2.36264e-15 0)
(0.000511366 -8.61018e-05 -2.87823e-15 -0.000302124 -1.15641e-15 0)
(0.000622263 -2.21483e-05 -2.31488e-15 -0.000304393 -3.12955e-16 0)
(0.000519534 -5.45445e-05 -1.93834e-15 -0.000311678 -7.41269e-16 0)
(0.000123034 -0.000111845 1.15793e-16 -6.22811e-05 -1.16798e-15 0)
(0.000193978 -0.000110354 3.70797e-17 -6.37037e-05 -8.25403e-16 0)
(0.00031248 -0.000120699 -1.07499e-15 -0.000167817 -8.85305e-16 0)
(0.000290344 -0.000140802 -7.6523e-16 -0.000175127 -8.09086e-17 0)
(0.000416901 -0.000112672 -1.70285e-15 -0.000219394 -4.36933e-16 0)
(0.000347459 -0.0001513 -7.7824e-16 -0.000233986 -3.2751e-16 0)
(0.000470658 -9.92976e-05 -2.32659e-15 -0.000235025 -7.90695e-16 0)
(0.000380856 -0.000156213 -1.16205e-15 -0.000259443 -4.336e-16 0)
(0.000490145 -8.60401e-05 -1.96392e-15 -0.000219297 -1.18121e-15 0)
(0.000404632 -0.00016996 8.25078e-16 -0.000262264 -7.63089e-16 0)
(3.9484e-05 2.1653e-05 1.65558e-16 -0.000134412 -6.65131e-16 0)
(0.000160486 -3.66442e-05 -2.88831e-16 -0.000135074 -8.13883e-16 0)
(0.000191696 -6.88614e-05 -2.60534e-16 -0.00018628 -3.14961e-16 0)
(0.000218117 -0.000118824 -3.78387e-16 -0.000190839 -3.97414e-16 0)
(0.000284676 -0.000115962 -4.55148e-16 -0.000212326 -7.12863e-17 0)
(0.000258896 -0.000163797 -3.76435e-16 -0.000219789 -4.21023e-16 0)
(0.000341424 -0.00014195 -3.26236e-16 -0.000224005 -4.35538e-16 0)
(0.000288967 -0.000188756 -2.80375e-16 -0.000233698 -8.58227e-16 0)
(0.000378539 -0.000162051 6.28837e-16 -0.000234605 -5.45272e-16 0)
(0.000312927 -0.000199262 -3.05745e-17 -0.000243609 -6.0405e-16 0)
(4.19891e-05 0.00011208 -3.03143e-16 -0.000262418 -9.91394e-16 0)
(0.000164983 -3.70921e-06 -1.66533e-16 -0.000229944 -8.13043e-16 0)
(0.000127456 -1.84293e-05 -2.90891e-16 -0.0002357 -6.22955e-16 0)
(0.00016983 -9.74784e-05 -6.50521e-17 -0.000218452 -3.93877e-16 0)
(0.000186814 -9.35004e-05 -2.28116e-16 -0.00021807 -4.08405e-16 0)
(0.000181969 -0.00015053 -2.03179e-16 -0.000209181 -2.62187e-16 0)
(0.000229484 -0.000137338 -3.55401e-16 -0.000206404 -6.9742e-16 0)
(0.000198578 -0.000178258 -1.73256e-16 -0.000202473 -2.96611e-16 0)
(0.000262562 -0.000161135 -4.13948e-16 -0.000199265 -6.5126e-16 0)
(0.000216589 -0.000190899 -1.24683e-16 -0.000198041 6.94567e-17 0)
(9.0544e-05 0.00013826 3.31766e-17 -0.000398725 -2.44203e-16 0)
(0.000174665 -1.17033e-05 3.23092e-17 -0.000311686 7.46941e-16 0)
(0.000103086 1.74335e-05 -5.7788e-17 -0.00029357 -1.16782e-16 0)
(0.000127396 -8.3523e-05 -2.25297e-16 -0.000239734 4.60854e-16 0)
(0.000120361 -5.31929e-05 -1.82688e-16 -0.000224765 -2.21685e-17 0)
(0.00011607 -0.000117303 -2.19009e-17 -0.000193875 2.58731e-16 0)
(0.000141519 -9.34717e-05 -1.84314e-17 -0.000183899 1.9231e-17 0)
(0.000122377 -0.000134134 2.35272e-16 -0.000166233 7.95059e-17 0)
(0.000163916 -0.000116034 6.63532e-17 -0.000159937 1.09511e-16 0)
(0.000137431 -0.000143356 1.15359e-16 -0.000149293 -1.31697e-17 0)
(0.000146191 9.34109e-05 -3.26995e-16 -0.000503938 9.02341e-16 0)
(0.000110057 -6.42969e-05 -4.4062e-16 -0.000336342 1.89918e-16 0)
(9.24815e-05 3.31244e-05 -1.11456e-16 -0.000320899 5.59204e-16 0)
(7.40419e-05 -6.08027e-05 -3.25261e-18 -0.000231812 1.69844e-16 0)
(7.96548e-05 -9.43552e-08 -5.09575e-17 -0.000222291 3.16201e-16 0)
(6.64823e-05 -5.78615e-05 -3.9465e-17 -0.000172325 5.72594e-18 0)
(8.64468e-05 -2.06787e-05 1.99927e-16 -0.000166596 5.39899e-17 0)
(7.43122e-05 -5.4783e-05 1.57209e-17 -0.000139087 2.77556e-17 0)
(0.000102752 -3.49186e-05 1.36393e-16 -0.000136136 -1.75709e-17 0)
(9.12084e-05 -5.16585e-05 -3.57787e-18 -0.00012311 -4.48402e-17 0)
(0.000134134 -4.99693e-05 -5.96311e-18 -0.00012311 -5.41593e-17 0)
(0.000142452 -1.84007e-05 1.14275e-16 -6.17613e-05 -3.85874e-17 0)
(0.000140349 -0.000136359 3.70797e-17 -0.000146102 -8.1183e-17 0)
(0.000203303 -6.99719e-05 -2.14455e-16 -8.07806e-05 1.6053e-17 0)
(0.000199363 -0.00020003 -2.20635e-16 -0.00020265 5.71205e-17 0)
(0.000290429 -0.000100324 -5.02202e-16 -0.00011398 1.80804e-16 0)
(0.000286212 -0.000227578 -8.50015e-17 -0.000268281 -1.9597e-17 0)
(0.000384414 -0.00010325 1.46259e-15 -0.000150071 7.59213e-16 0)
(0.000381841 -0.000212421 1.5142e-15 -0.000318169 -3.5961e-16 0)
(0.000469153 -7.9557e-05 7.07984e-17 -0.000178388 -1.18023e-15 0)
(0.00014779 -4.50203e-05 1.89302e-16 -6.55961e-05 6.31378e-18 0)
(0.000166005 -2.63903e-05 3.81856e-16 -4.68239e-05 3.23194e-17 0)
(0.000164383 -0.000117301 1.02457e-16 -9.95401e-05 1.69508e-17 0)
(0.000214921 -7.16583e-05 -1.78243e-16 -6.68145e-05 -3.64204e-16 0)
(0.00021183 -0.000173659 -4.5298e-16 -0.000157815 -8.13118e-17 0)
(0.000283113 -9.92892e-05 -6.24067e-16 -9.72679e-05 -4.25834e-16 0)
(0.000279717 -0.000201784 -6.71121e-17 -0.000226656 3.34185e-16 0)
(0.000356558 -0.000105002 8.32667e-17 -0.000129558 8.84248e-16 0)
(0.000354425 -0.000195582 1.22168e-15 -0.000288169 6.94872e-16 0)
(0.000421678 -9.04226e-05 -5.84493e-16 -0.000154727 8.47948e-16 0)
(0.000177076 -3.42164e-05 3.63641e-16 -4.78742e-05 1.37101e-17 0)
(0.000191881 -2.5357e-05 -1.98843e-16 -4.70854e-05 4.23025e-17 0)
(0.000190652 -9.42107e-05 -1.10589e-17 -7.46841e-05 -1.21987e-16 0)
(0.000227483 -6.58419e-05 5.29091e-17 -6.31182e-05 -3.06341e-16 0)
(0.000225106 -0.000144184 -2.38633e-16 -0.000120736 -5.88612e-16 0)
(0.000278391 -9.33923e-05 4.159e-16 -8.79672e-05 -3.1103e-16 0)
(0.00027568 -0.00017512 -3.7817e-16 -0.00017853 -1.32534e-16 0)
(0.000335871 -0.000104419 2.11203e-16 -0.000115988 -2.30664e-17 0)
(0.000334053 -0.000181549 -2.31911e-16 -0.000236768 1.03138e-15 0)
(0.00039001 -9.95375e-05 3.25911e-16 -0.000140692 -1.3541e-16 0)
(0.000207991 -2.52429e-05 -1.37043e-16 -4.71243e-05 1.56125e-17 0)
(0.000218344 -2.21668e-05 -9.69277e-17 -5.3807e-05 5.81234e-18 0)
(0.000217412 -7.43291e-05 -1.61221e-16 -6.57375e-05 -5.01782e-17 0)
(0.000243176 -5.77971e-05 -2.49366e-16 -6.5758e-05 9.60874e-18 0)
(0.000241371 -0.000117199 3.01083e-16 -9.87166e-05 -1.94502e-16 0)
(0.000279905 -8.4421e-05 -2.1207e-16 -8.50371e-05 1.2139e-16 0)
(0.000277797 -0.00014788 4.4951e-16 -0.000142318 -1.60143e-16 0)
(0.000323693 -9.90395e-05 2.32019e-16 -0.000108301 5.76796e-16 0)
(0.000322199 -0.000162294 2.87747e-16 -0.000190028 -1.42698e-16 0)
(0.00036835 -0.000101383 6.60171e-16 -0.000131372 1.47451e-16 0)
(0.000236418 -1.88269e-05 -6.1084e-16 -5.35225e-05 -4.5384e-18 0)
(0.000243427 -1.86152e-05 4.96131e-16 -6.24163e-05 1.22769e-16 0)
(0.00024271 -5.87337e-05 3.89337e-16 -6.60257e-05 8.98685e-17 0)
(0.000260468 -4.95132e-05 1.13147e-15 -7.12227e-05 -2.38233e-16 0)
(0.000259098 -9.45566e-05 -1.89302e-16 -8.88141e-05 4.91618e-18 0)
(0.000286444 -7.41512e-05 6.15827e-17 -8.60108e-05 -1.96878e-16 0)
(0.000284837 -0.000122433 -1.83339e-16 -0.000120099 3.30912e-16 0)
(0.000318963 -9.00805e-05 6.79578e-16 -0.000104922 -4.66207e-18 0)
(0.000317792 -0.000139613 6.75675e-16 -0.000156343 5.66211e-16 0)
(0.000354668 -9.65397e-05 -1.12432e-16 -0.000125458 -3.76293e-16 0)
(0.000261073 -1.44072e-05 -2.92301e-16 -6.20986e-05 6.89976e-17 0)
(0.000265835 -1.50901e-05 -7.63278e-17 -7.00954e-05 -4.75999e-17 0)
(0.000265268 -4.6755e-05 1.09992e-15 -7.061e-05 -8.56554e-17 0)
(0.000277425 -4.15587e-05 -2.34188e-17 -7.66922e-05 -2.29587e-16 0)
(0.000276373 -7.60998e-05 7.0278e-16 -8.63852e-05 -4.01724e-16 0)
(0.000295514 -6.35219e-05 1.30104e-18 -8.81921e-05 -2.74506e-16 0)
(0.000294303 -9.98642e-05 8.83625e-17 -0.000108563 -2.4234e-16 0)
(0.000319098 -7.89918e-05 -9.05092e-16 -0.000103594 -2.6586e-16 0)
(0.000318217 -0.000116212 9.54098e-17 -0.000135267 -3.25511e-16 0)
(0.000346579 -8.70107e-05 -7.26849e-16 -0.000121405 6.14871e-16 0)
(0.000281436 -1.13839e-05 3.28947e-16 -6.98652e-05 -6.05713e-17 0)
(0.000284659 -1.15707e-05 -5.53377e-16 -7.46663e-05 -1.08837e-16 0)
(0.000284197 -3.74135e-05 -1.11109e-15 -7.59279e-05 -1.50923e-16 0)
(0.000292374 -3.38863e-05 8.44377e-16 -7.9734e-05 2.94009e-16 0)
(0.000291551 -6.09162e-05 6.33716e-16 -8.72036e-05 1.36033e-17 0)
(0.000304686 -5.27581e-05 1.00614e-16 -8.9013e-05 -3.11342e-16 0)
(0.000303775 -8.00882e-05 -7.02129e-16 -0.000103253 -4.36849e-16 0)
(0.000321315 -6.65933e-05 -5.00468e-16 -0.000101935 -5.73245e-16 0)
(0.000320674 -9.365e-05 -1.12822e-15 -0.000123039 9.86624e-17 0)
(0.000341583 -7.44116e-05 -3.48246e-16 -0.000117428 5.46282e-16 0)
(0.000297063 -9.35125e-06 3.42174e-16 -7.45619e-05 -3.08456e-17 0)
(0.000298995 -7.93259e-06 3.26128e-16 -7.38822e-05 -2.31037e-17 0)
(0.000298604 -2.97777e-05 3.81205e-16 -7.91461e-05 1.21244e-16 0)
(0.000303772 -2.60557e-05 2.09468e-16 -7.77708e-05 3.56194e-16 0)
(0.000303111 -4.77693e-05 5.31476e-16 -8.77263e-05 2.3822e-16 0)
(0.000311858 -4.13698e-05 -2.07733e-16 -8.59347e-05 2.34215e-16 0)
(0.000311166 -6.2158e-05 -2.16732e-16 -0.00010005 -4.39847e-16 0)
(0.000323246 -5.27714e-05 1.05168e-15 -9.77897e-05 2.91881e-16 0)
(0.000322789 -7.20646e-05 2.66172e-16 -0.000115397 -3.22821e-17 0)
(0.000337533 -5.93373e-05 2.44379e-16 -0.000111966 2.8068e-16 0)
(0.000307341 -8.15251e-06 4.52763e-16 -7.38921e-05 2.3412e-18 0)
(0.00030735 -4.10835e-06 1.73472e-18 -6.44322e-05 -2.43037e-16 0)
(0.000307016 -2.28219e-05 4.98733e-18 -7.74494e-05 -7.58603e-18 0)
(0.000309645 -1.6938e-05 -2.67581e-16 -6.70737e-05 -2.72731e-16 0)
(0.000309104 -3.47825e-05 -2.68882e-16 -8.48018e-05 2.51935e-16 0)
(0.000315271 -2.76238e-05 -3.20924e-17 -7.65634e-05 -1.48034e-16 0)
(0.000314723 -4.41551e-05 5.54461e-16 -9.56527e-05 3.71566e-16 0)
(0.000323209 -3.6118e-05 3.67328e-16 -8.94709e-05 5.42237e-17 0)
(0.000322879 -5.01322e-05 9.25475e-16 -0.000108903 2.69661e-16 0)
(0.000333031 -4.10571e-05 1.99493e-17 -0.000104287 7.94178e-17 0)
(0.000311409 -8.12994e-06 -1.99493e-16 -6.45017e-05 -1.423e-16 0)
(0.000305242 -3.67315e-10 -1.23382e-16 -3.68904e-05 -7.57247e-17 0)
(0.000305 -1.36582e-05 -9.88792e-17 -6.6902e-05 -3.51661e-16 0)
(0.00030815 -2.6894e-06 -1.07184e-15 -4.52407e-05 -4.31418e-16 0)
(0.000307668 -1.86981e-05 -6.23416e-16 -7.57937e-05 -4.81819e-16 0)
(0.000313502 -7.98873e-06 -1.3984e-15 -5.82759e-05 -1.85683e-16 0)
(0.000313022 -2.257e-05 -3.81205e-16 -8.78569e-05 -9.59654e-17 0)
(0.000320449 -1.31031e-05 -3.14202e-16 -7.57928e-05 -7.18216e-17 0)
(0.000320179 -2.46163e-05 7.1991e-17 -0.000101811 5.21772e-18 0)
(0.000328032 -1.70364e-05 -5.37981e-16 -9.58832e-05 6.27523e-16 0)
(0.000469153 -0.000146165 -4.70761e-16 -0.000328168 -1.90668e-15 0)
(0.000502509 -8.15912e-05 -7.08201e-16 -0.000250648 -1.07369e-15 0)
(0.000502509 -0.000105272 -1.48411e-15 -0.000323874 -3.41375e-16 0)
(0.000523987 -6.11768e-05 -9.54857e-16 -0.000258218 -1.04322e-15 0)
(0.000523987 -7.01403e-05 -8.03231e-16 -0.000315354 -5.29131e-16 0)
(0.000537493 -4.03525e-05 -1.08355e-15 -0.000261182 -1.57573e-15 0)
(0.000537493 -4.10785e-05 -2.08004e-16 -0.000304143 -1.12491e-15 0)
(0.000545756 -2.11978e-05 -1.4975e-15 -0.000260637 -2.67348e-15 0)
(0.000545756 -1.84565e-05 -4.37313e-16 -0.000291426 -2.75642e-15 0)
(0.000551051 -4.8021e-06 -9.29812e-16 -0.000257812 -5.01259e-15 0)
(0.000551051 -2.59662e-06 -1.59502e-15 -0.000278343 -2.07831e-15 0)
(0.000555508 8.26785e-06 -1.85084e-15 -0.000253989 -2.99907e-15 0)
(0.000555508 6.27338e-06 -1.69808e-15 -0.000266115 -2.99782e-16 0)
(0.000561275 1.77914e-05 1.64257e-16 -0.000250504 -3.71632e-15 0)
(0.000561275 8.06595e-06 -6.35722e-16 -0.000256126 -1.60923e-16 0)
(0.000570608 2.3846e-05 2.00577e-17 -0.000248756 -3.70813e-15 0)
(0.000570608 2.98237e-06 -3.88632e-16 -0.000250054 -4.29805e-16 0)
(0.000585861 2.68235e-05 -3.44559e-16 -0.000250201 -4.54557e-15 0)
(0.000585861 -7.95374e-06 2.83627e-16 -0.000250155 -1.84171e-15 0)
(0.000609103 2.74411e-05 -3.1019e-16 -0.000256215 -1.61833e-15 0)
(0.000421678 -0.000136956 -6.54099e-16 -0.000250648 -6.47025e-16 0)
(0.000446261 -9.1758e-05 5.96311e-17 -0.000208494 1.03352e-15 0)
(0.000446261 -0.000120297 -3.27754e-16 -0.000258218 -8.47331e-16 0)
(0.000467842 -7.98032e-05 9.06393e-17 -0.000216108 1.17419e-15 0)
(0.000467842 -0.0001014 -1.24374e-15 -0.000261182 -9.70496e-16 0)
(0.000486044 -6.66175e-05 -1.00614e-15 -0.000221728 1.30695e-15 0)
(0.000486044 -8.28932e-05 -1.6378e-15 -0.000260637 -2.05223e-15 0)
(0.000501522 -5.30776e-05 -1.0842e-16 -0.00022559 -9.18319e-16 0)
(0.000501522 -6.62684e-05 -7.41161e-16 -0.000257812 -4.4975e-15 0)
(0.000515374 -3.98672e-05 7.71301e-16 -0.000228225 -1.60196e-15 0)
(0.000515374 -5.23622e-05 -9.14579e-16 -0.000253989 -3.5028e-15 0)
(0.000528918 -2.73935e-05 -1.0777e-16 -0.000230341 7.29234e-16 0)
(0.000528918 -4.15544e-05 -2.44325e-16 -0.000250504 -2.75688e-15 0)
(0.000543583 -1.57729e-05 5.74302e-16 -0.000232755 1.57285e-15 0)
(0.000543583 -3.38415e-05 8.99996e-16 -0.000248756 -3.82591e-15 0)
(0.00056086 -4.82647e-06 1.98626e-16 -0.000236341 6.42173e-16 0)
(0.00056086 -2.88567e-05 -8.23831e-16 -0.000250201 -3.89123e-15 0)
(0.000582256 5.93127e-06 -6.23091e-16 -0.000241988 -1.81983e-16 0)
(0.000582256 -2.59583e-05 -2.72785e-16 -0.000256215 -1.8654e-15 0)
(0.000609346 1.73228e-05 7.96672e-16 -0.000250596 1.3307e-15 0)
(0.00039001 -0.000138118 2.43078e-16 -0.000208494 1.05317e-15 0)
(0.000410955 -0.000100462 4.79651e-16 -0.000177912 -3.1637e-16 0)
(0.000410955 -0.000128006 2.63244e-16 -0.000216108 1.36079e-15 0)
(0.000430668 -9.23402e-05 3.4933e-16 -0.000185928 -6.93347e-17 0)
(0.000430668 -0.000116302 -3.5616e-16 -0.000221728 1.50296e-15 0)
(0.00044906 -8.29313e-05 1.1035e-15 -0.000192969 -2.77745e-16 0)
(0.00044906 -0.000103767 3.52474e-16 -0.00022559 -7.19233e-17 0)
(0.000466343 -7.25006e-05 1.54065e-15 -0.000199146 -1.04729e-15 0)
(0.000466343 -9.10586e-05 1.20878e-15 -0.000228225 -8.19074e-16 0)
(0.000482978 -6.12717e-05 1.37433e-15 -0.000204697 -9.36127e-16 0)
(0.000482978 -7.86041e-05 5.73272e-16 -0.000230341 8.22476e-16 0)
(0.000499592 -4.93535e-05 -4.12214e-16 -0.000209959 5.60072e-16 0)
(0.000499592 -6.65628e-05 -1.77104e-16 -0.000232755 2.76846e-15 0)
(0.000516901 -3.66982e-05 -1.1061e-15 -0.000215332 1.61557e-15 0)
(0.000516901 -5.4816e-05 6.71663e-17 -0.000236341 1.98046e-15 0)
(0.000535643 -2.30781e-05 1.18677e-15 -0.000221235 1.36197e-15 0)
(0.000535643 -4.2957e-05 4.32976e-16 -0.000241988 9.39407e-16 0)
(0.000556516 -8.07624e-06 3.70082e-15 -0.000228072 2.15339e-15 0)
(0.000556516 -3.02397e-05 1.35178e-15 -0.000250596 1.83526e-15 0)
(0.000580064 8.90908e-06 3.99865e-15 -0.000236164 3.18479e-15 0)
(0.00036835 -0.000134282 4.29995e-16 -0.000177912 -5.60126e-16 0)
(0.000386621 -0.000102271 1.33791e-16 -0.000156478 -5.15565e-16 0)
(0.000386621 -0.000127557 3.54968e-16 -0.000185928 -6.68899e-16 0)
(0.000404222 -9.66332e-05 4.83554e-17 -0.000164738 -4.67372e-16 0)
(0.000404222 -0.000119358 1.1717e-15 -0.000192969 -5.48146e-16 0)
(0.000421182 -8.95399e-05 1.94723e-16 -0.000172423 -2.20852e-16 0)
(0.000421182 -0.00010987 1.36024e-15 -0.000199146 -7.76438e-16 0)
(0.000437598 -8.10599e-05 -2.39392e-16 -0.000179586 8.26162e-16 0)
(0.000437598 -9.92746e-05 9.49761e-16 -0.000204697 -5.01254e-16 0)
(0.000453648 -7.12268e-05 -4.93963e-16 -0.000186318 5.13614e-16 0)
(0.000453648 -8.76765e-05 -2.62485e-16 -0.000209959 -1.36244e-16 0)
(0.000469571 -6.00132e-05 -1.3893e-15 -0.000192745 -1.04238e-15 0)
(0.000469571 -7.50546e-05 -1.65579e-15 -0.000215332 5.04533e-16 0)
(0.000485637 -4.73085e-05 -1.61893e-15 -0.000199007 -7.80192e-16 0)
(0.000485637 -6.12397e-05 6.77518e-16 -0.000221235 1.21523e-15 0)
(0.000502113 -3.29072e-05 2.12937e-16 -0.000205243 6.81529e-16 0)
(0.000502113 -4.59061e-05 3.73985e-15 -0.000228072 2.07557e-15 0)
(0.000519219 -1.6505e-05 1.51376e-15 -0.000211566 1.00142e-15 0)
(0.000519219 -2.85893e-05 3.99518e-15 -0.000236164 2.77655e-15 0)
(0.000537109 2.29571e-06 6.7741e-16 -0.000218045 1.56952e-15 0)
(0.000354668 -0.000123711 3.36103e-17 -0.000156478 -3.92291e-16 0)
(0.000370011 -9.74618e-05 -2.02746e-16 -0.000142433 -4.62859e-16 0)
(0.000370011 -0.000119215 -8.63025e-17 -0.000164738 -4.95399e-16 0)
(0.000384944 -9.35578e-05 -3.05745e-17 -0.000150381 -1.94262e-16 0)
(0.000384944 -0.000113111 -2.06974e-16 -0.000172423 -7.96211e-17 0)
(0.000399453 -8.80974e-05 -2.41994e-16 -0.000157951 2.40069e-16 0)
(0.000399453 -0.000105444 -5.00685e-16 -0.000179586 9.95352e-16 0)
(0.000413541 -8.10933e-05 7.41594e-17 -0.000165131 9.02436e-16 0)
(0.000413541 -9.62381e-05 -5.97504e-16 -0.000186318 9.8966e-16 0)
(0.000427224 -7.25288e-05 1.84531e-16 -0.000171917 9.87085e-16 0)
(0.000427224 -8.54739e-05 -1.00018e-15 -0.000192745 -7.96103e-16 0)
(0.00044053 -6.23479e-05 -2.14455e-16 -0.000178302 8.8021e-16 0)
(0.00044053 -7.307e-05 -1.33021e-15 -0.000199007 -8.71834e-16 0)
(0.000453485 -5.04475e-05 -1.5374e-16 -0.00018428 1.30915e-15 0)
(0.000453485 -5.88709e-05 -6.15068e-16 -0.000205243 6.18144e-16 0)
(0.000466099 -3.66708e-05 -3.06612e-16 -0.000189826 1.55258e-15 0)
(0.000466099 -4.26427e-05 3.89988e-16 -0.000211566 7.98881e-16 0)
(0.000478354 -2.0806e-05 -1.26201e-16 -0.000194896 -3.35561e-17 0)
(0.000478354 -2.40736e-05 4.78133e-17 -0.000218045 5.04547e-16 0)
(0.000490183 -2.58913e-06 6.83047e-17 -0.000199413 -1.34634e-15 0)
(0.000346579 -0.000108373 -2.44813e-16 -0.000142433 -9.09917e-17 0)
(0.000358729 -8.78974e-05 -5.5728e-17 -0.000133261 7.11548e-16 0)
(0.000358729 -0.000105297 -3.03577e-18 -0.000150381 -5.00969e-17 0)
(0.000370609 -8.51275e-05 -7.41594e-17 -0.000140477 7.47828e-17 0)
(0.000370609 -0.000100567 -1.83555e-16 -0.000157951 1.23999e-16 0)
(0.000382144 -8.08404e-05 1.86049e-16 -0.000147444 -2.36302e-16 0)
(0.000382144 -9.41935e-05 2.71593e-16 -0.000165131 4.07796e-16 0)
(0.000393256 -7.50446e-05 2.98156e-16 -0.000154094 -1.26906e-16 0)
(0.000393256 -8.61666e-05 3.72098e-16 -0.000171917 9.4392e-16 0)
(0.000403859 -6.77298e-05 3.50414e-16 -0.000160356 -2.25785e-17 0)
(0.000403859 -7.64462e-05 2.34296e-16 -0.000178302 1.25374e-15 0)
(0.000413856 -5.88618e-05 4.25875e-16 -0.000166144 -1.24141e-17 0)
(0.000413856 -6.49562e-05 1.78351e-16 -0.00018428 1.28699e-15 0)
(0.000423134 -4.83756e-05 1.31405e-16 -0.000171356 6.77355e-16 0)
(0.000423134 -5.15779e-05 -2.67473e-16 -0.000189826 1.56636e-15 0)
(0.000431557 -3.61697e-05 -2.86013e-16 -0.000175871 5.26814e-16 0)
(0.000431557 -3.61469e-05 -4.65556e-16 -0.000194896 3.93294e-17 0)
(0.000438966 -2.21012e-05 -7.51569e-16 -0.000179542 -6.13442e-16 0)
(0.000438966 -1.84539e-05 8.0231e-18 -0.000199413 -1.71193e-15 0)
(0.000445179 -5.98343e-06 -6.26018e-16 -0.0001822 -8.99075e-16 0)
(0.000341583 -9.03507e-05 -2.37223e-16 -0.000133261 9.54315e-16 0)
(0.000350597 -7.51413e-05 -1.58077e-16 -0.00012634 6.60266e-16 0)
(0.000350597 -8.80575e-05 2.23346e-17 -0.000140477 2.3807e-16 0)
(0.000359435 -7.29959e-05 -4.0766e-17 -0.000132755 5.29795e-16 0)
(0.000359435 -8.42156e-05 1.29887e-16 -0.000147444 -1.71243e-16 0)
(0.000367982 -6.9496e-05 -3.59955e-17 -0.000139016 4.70327e-16 0)
(0.000367982 -7.88367e-05 2.05131e-16 -0.000154094 -1.7146e-16 0)
(0.00037611 -6.46705e-05 2.10986e-16 -0.00014502 6.84836e-16 0)
(0.00037611 -7.19192e-05 3.58112e-16 -0.000160356 -1.04707e-16 0)
(0.000383668 -5.85438e-05 -2.19443e-16 -0.000150651 1.10047e-15 0)
(0.000383668 -6.34432e-05 2.21611e-16 -0.000166144 -5.77338e-18 0)
(0.00039048 -5.11278e-05 -1.00115e-15 -0.000155776 1.26743e-15 0)
(0.00039048 -5.33653e-05 -1.43874e-16 -0.000171356 5.77107e-16 0)
(0.000396342 -4.24178e-05 -1.0391e-15 -0.00016024 1.42583e-15 0)
(0.000396342 -4.16131e-05 -3.14527e-16 -0.000175871 5.74654e-16 0)
(0.000401014 -3.23838e-05 -5.00251e-16 -0.000163857 1.11242e-15 0)
(0.000401014 -2.80782e-05 -6.82288e-16 -0.000179542 -6.56213e-17 0)
(0.000404224 -2.09563e-05 -3.89445e-16 -0.000166403 6.00567e-16 0)
(0.000404224 -1.26115e-05 -8.66928e-16 -0.0001822 -3.78902e-16 0)
(0.000405678 -8.00604e-06 -3.80121e-16 -0.000167612 -3.65105e-17 0)
(0.000337533 -7.06824e-05 -2.38524e-16 -0.00012634 5.59706e-16 0)
(0.000343834 -5.97616e-05 -2.37874e-16 -0.000119689 -1.81157e-16 0)
(0.000343834 -6.87081e-05 -9.35666e-17 -0.000132755 4.59343e-16 0)
(0.000350045 -5.78588e-05 -1.7022e-16 -0.000125671 -2.44732e-16 0)
(0.000350045 -6.54228e-05 -1.14166e-16 -0.000139016 5.08735e-16 0)
(0.000356035 -5.4855e-05 -5.02636e-16 -0.000131539 -1.29887e-16 0)
(0.000356035 -6.08525e-05 -4.55365e-17 -0.00014502 6.41712e-16 0)
(0.000361648 -5.08122e-05 -6.53557e-16 -0.000137142 -2.38335e-16 0)
(0.000361648 -5.50178e-05 -3.62774e-16 -0.000150651 1.03053e-15 0)
(0.000366705 -4.57802e-05 -1.98409e-16 -0.00014236 -4.97025e-16 0)
(0.000366705 -4.79336e-05 -9.53881e-16 -0.000155776 1.10307e-15 0)
(0.000370998 -3.98244e-05 3.00541e-16 -0.000147057 -3.53775e-16 0)
(0.000370998 -3.96066e-05 -8.90564e-16 -0.00016024 1.16184e-15 0)
(0.000374267 -3.30264e-05 6.57027e-17 -0.000151071 -5.67065e-16 0)
(0.000374267 -3.00271e-05 -5.37981e-16 -0.000163857 9.06583e-16 0)
(0.00037619 -2.54745e-05 -2.93385e-16 -0.000154192 -9.26586e-16 0)
(0.00037619 -1.91546e-05 -2.06974e-16 -0.000166403 4.85641e-16 0)
(0.000376364 -1.7244e-05 -1.35308e-16 -0.000156149 -8.17678e-16 0)
(0.000376364 -6.89682e-06 -2.35272e-16 -0.000167612 -3.92481e-17 0)
(0.000374304 -8.35776e-06 -4.59268e-16 -0.000156585 -2.73951e-16 0)
(0.000333031 -4.89709e-05 -2.30068e-16 -0.000119689 -2.23834e-16 0)
(0.000337496 -4.08975e-05 -1.18395e-16 -0.000112887 2.95987e-16 0)
(0.000337496 -4.71133e-05 -1.97e-16 -0.000125671 -2.67459e-16 0)
(0.000341937 -3.91803e-05 8.54351e-17 -0.000119503 8.84031e-16 0)
(0.000341937 -4.43188e-05 -3.55076e-16 -0.000131539 3.20246e-17 0)
(0.000346148 -3.67927e-05 2.35055e-16 -0.000125669 9.35829e-16 0)
(0.000346148 -4.05969e-05 -6.46401e-16 -0.000137142 -2.43857e-16 0)
(0.000350006 -3.36421e-05 4.77266e-16 -0.000131396 -3.72694e-17 0)
(0.000350006 -3.59716e-05 8.79288e-17 -0.00014236 -9.04814e-16 0)
(0.000353381 -2.9773e-05 4.52763e-16 -0.000136614 -3.93376e-16 0)
(0.000353381 -3.04909e-05 5.73435e-16 -0.000147057 -6.3846e-16 0)
(0.0003561 -2.53026e-05 1.70437e-16 -0.000141212 -7.48371e-17 0)
(0.0003561 -2.42242e-05 2.97505e-16 -0.000151071 -8.06592e-16 0)
(0.000357925 -2.04075e-05 1.38778e-16 -0.000145056 -5.96718e-16 0)
(0.000357925 -1.72557e-05 -1.69786e-16 -0.000154192 -1.29868e-15 0)
(0.000358522 -1.53297e-05 3.33067e-16 -0.00014798 -7.82658e-16 0)
(0.000358522 -9.6709e-06 -3.89229e-17 -0.000156149 -1.03444e-15 0)
(0.000357407 -1.03957e-05 6.34909e-16 -0.000149764 -9.36127e-16 0)
(0.000357407 -1.5266e-06 -1.41922e-16 -0.000156585 -5.26028e-16 0)
(0.000353853 -6.05149e-06 3.6169e-16 -0.000150105 -4.86373e-16 0)
(0.000328032 -2.29341e-05 -2.85362e-16 -0.000112887 6.25856e-16 0)
(0.00033262 -1.51458e-05 -4.78458e-16 -0.000109063 7.29004e-16 0)
(0.00033262 -2.15914e-05 8.73867e-17 -0.000119503 9.37239e-16 0)
(0.000336511 -1.5173e-05 -7.41594e-17 -0.00011744 -3.16384e-16 0)
(0.000336511 -1.98118e-05 3.31766e-16 -0.000125669 7.3761e-16 0)
(0.000339977 -1.4333e-05 -2.77773e-16 -0.000125314 -1.02084e-15 0)
(0.000339977 -1.75224e-05 5.1608e-16 -0.000131396 -6.59737e-17 0)
(0.000343053 -1.28767e-05 -3.97469e-16 -0.000132449 -6.55563e-16 0)
(0.000343053 -1.47397e-05 2.18358e-16 -0.000136614 -2.19822e-16 0)
(0.000345687 -1.09398e-05 -2.52619e-16 -0.000138621 -1.11266e-17 0)
(0.000345687 -1.15241e-05 6.61363e-17 -0.000141212 -4.96022e-18 0)
(0.000347777 -8.63847e-06 -6.42932e-17 -0.000143619 9.15609e-17 0)
(0.000347777 -7.97458e-06 8.26162e-17 -0.000145056 -2.18114e-16 0)
(0.000349188 -6.11853e-06 -4.01697e-16 -0.000147258 2.70495e-16 0)
(0.000349188 -4.24129e-06 2.61943e-16 -0.00014798 -4.3669e-16 0)
(0.000349747 -3.59295e-06 -5.26705e-16 -0.000149389 9.07206e-17 0)
(0.000349747 -5.52746e-07 4.54498e-16 -0.000149764 -7.50756e-16 0)
(0.000349234 -1.38145e-06 2.62811e-16 -0.000149926 -2.18331e-16 0)
(0.000349234 2.73021e-06 7.20344e-16 -0.000150105 -5.76606e-16 0)
(0.000347394 4.58112e-08 5.71917e-16 -0.000148892 -7.55255e-16 0)
(0.000608693 7.66746e-05 -4.48616e-16 -0.000196201 -3.99301e-15 0)
(0.000565411 -6.20889e-07 -1.57128e-15 -0.000217637 -2.38633e-16 0)
(0.00057602 7.45192e-05 -3.14324e-16 -0.000190456 -3.94395e-15 0)
(0.000537722 4.78722e-06 -2.08164e-15 -0.00021091 -8.33535e-16 0)
(0.000546298 7.23698e-05 -6.77247e-16 -0.000186538 -2.68351e-15 0)
(0.000511242 7.4819e-06 -2.12124e-15 -0.000205087 -1.95959e-15 0)
(0.000518308 7.03687e-05 -3.73664e-16 -0.000183605 -3.00058e-15 0)
(0.000484995 7.82497e-06 -1.2044e-15 -0.000199698 -1.88966e-15 0)
(0.00049092 6.86084e-05 -2.26104e-16 -0.0001809 -4.04098e-15 0)
(0.00045801 6.01947e-06 -1.08895e-15 -0.000194206 -1.43733e-15 0)
(0.000463035 6.71487e-05 -3.10495e-16 -0.000177701 -3.74646e-15 0)
(0.000429276 2.12429e-06 -3.19135e-16 -0.000188007 -5.23995e-16 0)
(0.000433529 6.60284e-05 1.32103e-16 -0.000173277 -1.3475e-15 0)
(0.00039769 -3.95175e-06 -4.5836e-16 -0.000180419 4.37801e-16 0)
(0.000401185 6.52736e-05 -3.43753e-16 -0.00016684 -2.06866e-16 0)
(0.000361971 -1.24828e-05 -1.14646e-15 -0.000170657 3.6852e-16 0)
(0.000364606 6.49017e-05 -2.42597e-16 -0.00015748 -5.54515e-16 0)
(0.000320555 -2.40051e-05 -7.57383e-16 -0.000157803 -3.61039e-17 0)
(0.000322086 6.49208e-05 -1.48719e-16 -0.000144071 -9.84672e-16 0)
(0.000271391 -3.94904e-05 -2.22641e-16 -0.00014078 -1.80086e-16 0)
(0.000635933 0.00012265 -1.45364e-15 -0.000207061 2.9255e-15 0)
(0.000572376 4.38561e-05 2.384e-15 -0.000250424 6.53015e-15 0)
(0.000605497 0.000125366 -9.61931e-16 -0.000200563 1.20509e-15 0)
(0.000550599 5.40025e-05 1.98306e-15 -0.000242194 5.40637e-15 0)
(0.000576579 0.000125248 -1.89979e-15 -0.00019498 4.3856e-17 0)
(0.000528476 5.98773e-05 6.73506e-16 -0.000233912 3.81303e-15 0)
(0.000548787 0.000122769 -1.0438e-15 -0.000189833 -5.44324e-16 0)
(0.000505706 6.16857e-05 7.8545e-16 -0.000225651 2.25362e-15 0)
(0.000521571 0.000118192 -7.87998e-16 -0.000184581 2.31423e-16 0)
(0.000481897 5.9508e-05 9.29703e-17 -0.000217355 1.17983e-15 0)
(0.00049427 0.000111573 -4.78106e-16 -0.000178622 2.22858e-16 0)
(0.000456585 5.32734e-05 2.62344e-15 -0.00020887 1.28033e-15 0)
(0.000466146 0.000102755 8.47629e-16 -0.000171278 9.22331e-16 0)
(0.00042926 4.27357e-05 2.60989e-15 -0.00019997 9.98767e-16 0)
(0.000436417 9.13257e-05 -8.33684e-16 -0.000161779 5.22477e-16 0)
(0.000399414 2.74605e-05 8.82785e-16 -0.000190401 3.46403e-16 0)
(0.000404311 7.65262e-05 -5.33712e-16 -0.000149228 2.97939e-16 0)
(0.00036665 6.84692e-06 1.63281e-16 -0.00017993 9.48677e-17 0)