/*--------------------------------*- C++ -*----------------------------------*\
| =========                 |                                                 |
| \\      /  F ield         | OpenFOAM: The Open Source CFD Toolbox           |
|  \\    /   O peration     | Version:  v2012                                 |
|   \\  /    A nd           | Website:  www.openfoam.com                      |
|    \\/     M anipulation  |                                                 |
\*---------------------------------------------------------------------------*/
FoamFile
{
    version     2.0;
    format      ascii;
    class       volSymmTensorField;
    location    "2";
    object      sigma;
}
// * * * * * * * * * * * * * * * * * * * * * * * * * * * * * * * * * * * * * //

dimensions      [1 -1 -2 0 0 0 0];


internalField   nonuniform List<symmTensor> 
500
(
(1.12362e+08 -1.78511e+06 -8.84181e-05 1.28161e+06 -0.000369091 3.4093e+07)
(8.36001e+07 -1.26849e+07 3.83703e-06 1.85244e+06 -0.000164474 2.56357e+07)
(8.91862e+07 1.54446e+06 7.47645e-05 7.46755e+06 -0.000412155 2.89961e+07)
(6.99663e+07 -6.75615e+06 2.59003e-05 5.26901e+06 -0.000186635 2.25706e+07)
(7.37952e+07 2.9998e+06 -4.72945e-05 9.11639e+06 -0.000328677 2.48735e+07)
(6.05165e+07 -3.29377e+06 -3.89279e-05 6.24406e+06 1.17928e-05 2.00282e+07)
(6.30931e+07 3.63846e+06 1.86875e-05 8.63758e+06 -3.31015e-05 2.15192e+07)
(5.35642e+07 -1.22401e+06 -8.29377e-05 5.9703e+06 0.000114092 1.78604e+07)
(5.52306e+07 3.93434e+06 -5.85859e-05 7.15889e+06 -7.8133e-05 1.87169e+07)
(4.80715e+07 23065.6 -0.000154415 5.06186e+06 0.000110163 1.594e+07)
(1.02154e+08 -1.12817e+07 -0.000148166 8.77807e+06 -9.0676e-05 3.32796e+07)
(7.23544e+07 -1.77761e+07 -0.000135848 6.89588e+06 1.70295e-05 2.37751e+07)
(8.35371e+07 -3.08022e+06 1.95515e-05 9.12262e+06 1.05026e-05 2.77979e+07)
(6.32788e+07 -8.53775e+06 -9.23019e-05 6.07694e+06 -4.92436e-05 2.08067e+07)
(7.12589e+07 1.54629e+06 -4.73594e-05 8.4115e+06 -3.23951e-05 2.39011e+07)
(5.6631e+07 -3.01271e+06 -0.000240167 4.9587e+06 0.000108289 1.84769e+07)
(6.25274e+07 4.18501e+06 -0.000207658 7.15177e+06 0.000208867 2.09037e+07)
(5.15034e+07 382533 -0.000257486 3.8087e+06 0.000345902 1.65936e+07)
(5.59365e+07 5.67025e+06 -0.000137706 5.68649e+06 0.00024611 1.84869e+07)
(4.73646e+07 2.48833e+06 4.00108e-05 2.74446e+06 0.000361128 1.50327e+07)
(7.98481e+07 -1.80129e+07 -0.000186437 9.66127e+06 -7.39092e-06 2.68528e+07)
(5.7169e+07 -1.89861e+07 -5.23611e-05 1.03053e+07 2.84895e-05 2.02423e+07)
(7.1749e+07 -6.93859e+06 -9.95206e-05 7.38754e+06 -5.94601e-06 2.3741e+07)
(5.37873e+07 -9.4331e+06 -3.70947e-05 4.70311e+06 -6.51872e-05 1.75471e+07)
(6.52924e+07 -611105 -0.000201099 5.55374e+06 2.51531e-05 2.12539e+07)
(5.07645e+07 -3.57706e+06 6.11532e-05 1.41774e+06 2.48991e-05 1.56547e+07)
(6.00105e+07 3.08822e+06 -0.000139923 4.05584e+06 0.000274051 1.92199e+07)
(4.8081e+07 115870 0.000215644 -537465 0.000129265 1.42631e+07)
(5.55764e+07 5.25096e+06 7.08793e-05 2.83634e+06 0.000358641 1.75238e+07)
(4.57189e+07 2.48327e+06 6.19909e-05 -1.67452e+06 0.000135109 1.32133e+07)
(5.29191e+07 -1.86871e+07 3.54192e-05 9.00764e+06 6.17282e-05 1.8578e+07)
(4.09949e+07 -1.63382e+07 8.29873e-05 1.07466e+07 0.00010366 1.55225e+07)
(5.57404e+07 -9.08254e+06 -2.72051e-06 4.50019e+06 -9.44006e-06 1.80722e+07)
(4.26892e+07 -9.53755e+06 5.23261e-05 2.03381e+06 -8.23627e-05 1.34169e+07)
(5.57339e+07 -3.28145e+06 0.000156616 1.87825e+06 -9.78597e-05 1.72837e+07)
(4.30614e+07 -5.06237e+06 -2.34688e-06 -2.6257e+06 -0.000107139 1.21307e+07)
(5.4456e+07 307798 0.000178121 360089 1.07945e-05 1.64448e+07)
(4.27059e+07 -2.05928e+06 -0.000129008 -5.04858e+06 -7.71698e-05 1.12972e+07)
(5.26224e+07 2.55452e+06 1.66529e-05 -478833 1.2451e-05 1.56431e+07)
(4.19893e+07 -10400.8 -4.16951e-05 -6.1661e+06 -1.06485e-05 1.0747e+07)
(2.79192e+07 -1.37616e+07 0.00011223 5.51207e+06 8.05587e-05 1.00294e+07)
(2.68619e+07 -1.1283e+07 5.84764e-05 7.61924e+06 -5.63806e-05 1.03443e+07)
(3.84838e+07 -8.85667e+06 6.89061e-05 746815 -5.71658e-05 1.17692e+07)
(3.15773e+07 -8.68556e+06 -8.9558e-05 -1.17158e+06 -6.18596e-05 9.12172e+06)
(4.35466e+07 -5.39194e+06 -0.00014431 -1.80381e+06 -0.000103146 1.25228e+07)
(3.43929e+07 -6.48179e+06 -0.000131294 -5.73121e+06 -6.84565e-05 8.59851e+06)
(4.57389e+07 -2.95373e+06 -0.000151456 -3.03818e+06 -0.000127219 1.28102e+07)
(3.59852e+07 -4.63625e+06 -0.000154982 -7.8181e+06 -6.22682e-05 8.45014e+06)
(4.63436e+07 -1.1926e+06 -0.000124647 -3.55331e+06 -1.68514e-05 1.28371e+07)
(3.63691e+07 -2.93701e+06 -0.000104372 -8.38847e+06 -3.99145e-05 8.39419e+06)
(9.07838e+06 -6.02245e+06 6.235e-06 -900118 -6.28914e-05 2.45348e+06)
(1.5706e+07 -5.94215e+06 1.9966e-06 1.83086e+06 -4.44448e-05 5.26106e+06)
(2.2668e+07 -6.49919e+06 -5.78839e-05 -3.19413e+06 -4.76703e-05 5.84217e+06)
(2.02869e+07 -7.58162e+06 -4.12047e-05 -4.7769e+06 -4.35662e-06 4.65301e+06)
(3.04247e+07 -6.06694e+06 -9.16918e-05 -3.83727e+06 -2.35272e-05 7.97624e+06)
(2.32919e+07 -8.14695e+06 -4.19052e-05 -8.0167e+06 -1.76352e-05 4.58255e+06)
(3.48591e+07 -5.34679e+06 -0.000125278 -3.13925e+06 -4.25759e-05 9.51595e+06)
(2.54108e+07 -8.41148e+06 -6.25718e-05 -9.06682e+06 -2.33477e-05 4.9032e+06)
(3.73305e+07 -4.63293e+06 -0.00010575 -870255 -6.36037e-05 1.09381e+07)
(2.75373e+07 -9.1517e+06 4.44273e-05 -8.37244e+06 -4.10894e-05 5.74947e+06)
(-1.70755e+06 1.16593e+06 8.91464e-06 -1.10712e+07 -3.58147e-05 -3.83361e+06)
(9.66778e+06 -1.97315e+06 -1.55525e-05 -6.24698e+06 -4.38245e-05 1.02624e+06)
(1.05408e+07 -3.70792e+06 -1.40287e-05 -9.81171e+06 -1.69594e-05 218741)
(1.28464e+07 -6.39824e+06 -2.03747e-05 -9.17436e+06 -2.13992e-05 1.1016e+06)
(1.82506e+07 -6.24413e+06 -2.4508e-05 -8.51112e+06 -3.83849e-06 2.92183e+06)
(1.55199e+07 -8.81984e+06 -2.02696e-05 -1.02555e+07 -2.26705e-05 1.57932e+06)
(2.31263e+07 -7.64348e+06 -1.75666e-05 -7.31992e+06 -2.3452e-05 4.74191e+06)
(1.77918e+07 -1.01638e+07 -1.50971e-05 -1.03517e+07 -4.62122e-05 2.23202e+06)
(2.61956e+07 -8.72582e+06 3.38605e-05 -6.81989e+06 -2.93608e-05 5.81271e+06)
(1.96494e+07 -1.07295e+07 -1.64632e-06 -1.0318e+07 -3.25258e-05 2.79941e+06)
(-6.641e+06 6.03506e+06 -1.63231e-05 -2.30322e+07 -5.33828e-05 -8.90194e+06)
(6.26025e+06 -199727 -8.96719e-06 -1.5005e+07 -4.37792e-05 -2.62343e+06)
(2.49162e+06 -992349 -1.56634e-05 -1.70629e+07 -3.35438e-05 -4.37139e+06)
(7.18112e+06 -5.24884e+06 -3.50281e-06 -1.37263e+07 -2.12088e-05 -1.96357e+06)
(8.79698e+06 -5.03464e+06 -1.22832e-05 -1.30045e+07 -2.19911e-05 -1.26225e+06)
(8.69942e+06 -8.10549e+06 -1.09404e-05 -1.23625e+07 -1.41178e-05 -1.09892e+06)
(1.32889e+07 -7.39511e+06 -1.9137e-05 -1.0182e+07 -3.75534e-05 932080)
(1.05353e+07 -9.5985e+06 -9.32914e-06 -1.10597e+07 -1.59713e-05 -157302)
(1.66941e+07 -8.67648e+06 -2.22895e-05 -8.17349e+06 -3.50678e-05 2.55619e+06)
(1.24115e+07 -1.02792e+07 -6.71371e-06 -9.91468e+06 3.73998e-06 749059)
(-7.57031e+06 7.44478e+06 1.78643e-06 -3.39156e+07 -1.31494e-05 -1.24458e+07)
(3.87154e+06 -630179 1.73973e-06 -2.23166e+07 4.02199e-05 -5.53351e+06)
(-2.14183e+06 938728 -3.11166e-06 -2.35002e+07 -6.28827e-06 -7.69261e+06)
(2.32305e+06 -4.49739e+06 -1.21314e-05 -1.74455e+07 2.48152e-05 -4.53672e+06)
(2.26464e+06 -2.86423e+06 -9.83705e-06 -1.63191e+07 -1.19369e-06 -4.21632e+06)
(3.10781e+06 -6.31631e+06 -1.17928e-06 -1.35815e+07 1.39317e-05 -3.14211e+06)
(5.90881e+06 -5.03309e+06 -9.92462e-07 -1.16137e+07 1.03552e-06 -1.71147e+06)
(4.8184e+06 -7.22261e+06 1.26685e-05 -1.07222e+07 4.28109e-06 -1.77113e+06)
(8.98694e+06 -6.248e+06 3.57286e-06 -8.45128e+06 5.89676e-06 160698)
(6.92111e+06 -7.71916e+06 6.21164e-06 -8.51791e+06 -7.09136e-07 -479040)
(-6.57564e+06 5.02982e+06 -1.76074e-05 -4.15826e+07 4.85876e-05 -1.44475e+07)
(-3.21231e+06 -3.46214e+06 -2.37257e-05 -2.72492e+07 1.02264e-05 -9.13844e+06)
(-4.24476e+06 1.78362e+06 -6.00148e-06 -2.65037e+07 3.0111e-05 -9.22454e+06)
(-2.3846e+06 -3.27399e+06 -1.7514e-07 -1.88536e+07 9.14543e-06 -6.37147e+06)
(-1.47119e+06 -5080.67 -2.74387e-06 -1.77298e+07 1.70262e-05 -5.7603e+06)
(-694601 -3.11562e+06 -2.12504e-06 -1.35535e+07 3.0832e-07 -4.27442e+06)
(1.41804e+06 -1.11347e+06 1.07653e-05 -1.22073e+07 2.90715e-06 -3.23679e+06)
(1.38553e+06 -2.94986e+06 8.46512e-07 -1.01052e+07 1.49453e-06 -2.6159e+06)
(4.18457e+06 -1.88023e+06 7.34422e-06 -8.67863e+06 -9.46123e-07 -1.34822e+06)
(3.62291e+06 -2.78161e+06 -1.92654e-07 -7.91729e+06 -2.41447e-06 -1.28832e+06)
(7.66782e+06 -2.69066e+06 -3.21091e-07 -6.18376e+06 -2.91627e-06 445219)
(1.09291e+07 -990808 6.15326e-06 -66956.4 -2.07778e-06 3.25865e+06)
(7.32491e+06 -7.34243e+06 1.9966e-06 -8.09938e+06 -4.37139e-06 -232341)
(1.58951e+07 -3.76772e+06 -1.15476e-05 598290 8.64391e-07 4.94802e+06)
(1.06022e+07 -1.07709e+07 -1.18804e-05 -1.10447e+07 3.07572e-06 -132744)
(2.27643e+07 -5.40209e+06 -2.70417e-05 988426 9.73561e-06 7.12582e+06)
(1.61355e+07 -1.22542e+07 -4.577e-06 -1.37217e+07 -1.05522e-06 724140)
(3.01631e+07 -5.55963e+06 7.87548e-05 1.3831e+06 4.08807e-05 9.46386e+06)
(2.3132e+07 -1.14381e+07 8.15337e-05 -1.45608e+07 -1.93636e-05 2.57136e+06)
(3.70045e+07 -4.28384e+06 3.81222e-06 2.13693e+06 -6.35508e-05 1.17424e+07)
(1.12773e+07 -2.42417e+06 1.01932e-05 -212746 3.39973e-07 3.31935e+06)
(1.37518e+07 -1.42102e+06 2.05615e-05 2.29179e+06 1.74027e-06 4.81307e+06)
(1.14701e+07 -6.31618e+06 5.51692e-06 -2.74119e+06 9.12737e-07 2.61866e+06)
(1.75539e+07 -3.85853e+06 -9.59769e-06 2.38351e+06 -1.9611e-05 5.98121e+06)
(1.35876e+07 -9.35089e+06 -2.43912e-05 -6.31636e+06 -4.37833e-06 2.18137e+06)
(2.27498e+07 -5.34634e+06 -3.36036e-05 2.26778e+06 -2.29295e-05 7.50528e+06)
(1.72046e+07 -1.08653e+07 -3.61373e-06 -1.00617e+07 1.79946e-05 2.14286e+06)
(2.83666e+07 -5.65397e+06 4.48359e-06 2.19111e+06 4.76134e-05 9.1673e+06)
(2.17601e+07 -1.05313e+07 6.57827e-05 -1.28411e+07 3.74162e-05 2.6757e+06)
(3.34864e+07 -4.86891e+06 -3.14727e-05 2.44928e+06 4.56587e-05 1.07807e+07)
(1.47526e+07 -1.84242e+06 1.95807e-05 2.6399e+06 7.38235e-07 5.21775e+06)
(1.61796e+07 -1.36538e+06 -1.07069e-05 3.31215e+06 2.27783e-06 5.84752e+06)
(1.49492e+07 -5.07288e+06 -5.95477e-07 661869 -6.56854e-06 4.68332e+06)
(1.88869e+07 -3.54534e+06 2.84895e-06 3.23915e+06 -1.64953e-05 6.63783e+06)
(1.63361e+07 -7.76376e+06 -1.28495e-05 -2.28618e+06 -3.16945e-05 4.21497e+06)
(2.26805e+07 -5.02881e+06 2.23946e-05 2.95351e+06 -1.67478e-05 7.69021e+06)
(1.87677e+07 -9.42956e+06 -2.0363e-05 -5.6898e+06 -7.13642e-06 3.92337e+06)
(2.69653e+07 -5.62256e+06 1.13724e-05 2.63439e+06 -1.24204e-06 8.8799e+06)
(2.19163e+07 -9.77573e+06 -1.24875e-05 -8.82026e+06 5.55359e-05 3.92881e+06)
(3.10691e+07 -5.35971e+06 1.75491e-05 2.49286e+06 -7.29131e-06 1.00686e+07)
(1.76961e+07 -1.35923e+06 -7.37925e-06 3.95909e+06 8.40674e-07 6.49655e+06)
(1.84018e+07 -1.1936e+06 -5.21918e-06 3.74748e+06 3.12972e-07 6.64478e+06)
(1.78322e+07 -4.00234e+06 -8.68112e-06 2.58562e+06 -2.7019e-06 6.12533e+06)
(2.02591e+07 -3.11215e+06 -1.34274e-05 3.62415e+06 5.17394e-07 7.16496e+06)
(1.8758e+07 -6.31074e+06 1.62122e-05 445540 -1.04732e-05 5.76105e+06)
(2.29415e+07 -4.54575e+06 -1.14192e-05 3.29076e+06 6.53638e-06 7.86968e+06)
(2.04295e+07 -7.96278e+06 2.42044e-05 -2.19199e+06 -8.62311e-06 5.47126e+06)
(2.61281e+07 -5.3329e+06 1.24933e-05 2.86691e+06 3.10582e-05 8.69851e+06)
(2.26869e+07 -8.73889e+06 1.54941e-05 -4.89455e+06 -7.68374e-06 5.3377e+06)
(2.94045e+07 -5.45909e+06 3.55477e-05 2.49637e+06 7.9397e-06 9.57026e+06)
(2.01163e+07 -1.01376e+06 -3.28914e-05 4.50417e+06 -2.44376e-07 7.38615e+06)
(2.04177e+07 -1.00236e+06 2.67147e-05 3.94918e+06 6.61064e-06 7.31005e+06)
(2.02043e+07 -3.16258e+06 2.09643e-05 3.5801e+06 4.83907e-06 7.13533e+06)
(2.16678e+07 -2.66609e+06 6.09255e-05 3.80753e+06 -1.28279e-05 7.6426e+06)
(2.08283e+07 -5.09151e+06 -1.01932e-05 2.09454e+06 2.64717e-07 6.87684e+06)
(2.35183e+07 -3.99275e+06 3.31599e-06 3.46306e+06 -1.06011e-05 8.09441e+06)
(2.19903e+07 -6.59254e+06 -9.87208e-06 186021 1.78183e-05 6.65288e+06)
(2.58189e+07 -4.85049e+06 3.65927e-05 2.99433e+06 -2.51035e-07 8.64397e+06)
(2.36319e+07 -7.51763e+06 3.63825e-05 -1.89844e+06 3.04883e-05 6.52004e+06)
(2.8354e+07 -5.19829e+06 -6.05402e-06 2.50113e+06 -2.02619e-05 9.25655e+06)
(2.20933e+07 -775772 -1.57393e-05 4.69174e+06 3.71526e-06 8.03551e+06)
(2.2219e+07 -812542 -4.10996e-06 4.13048e+06 -2.56307e-06 7.90485e+06)
(2.21449e+07 -2.51758e+06 5.92266e-05 4.05913e+06 -4.61221e-06 7.86121e+06)
(2.30447e+07 -2.23778e+06 -1.26101e-06 3.97692e+06 -1.23624e-05 8.1065e+06)
(2.25542e+07 -4.09768e+06 3.7842e-05 3.02107e+06 -2.16313e-05 7.67258e+06)
(2.42849e+07 -3.42041e+06 7.00561e-08 3.62383e+06 -1.47811e-05 8.37263e+06)
(2.33482e+07 -5.37731e+06 4.75798e-06 1.65539e+06 -1.30491e-05 7.50107e+06)
(2.58853e+07 -4.25341e+06 -4.87357e-05 3.12494e+06 -1.43155e-05 8.70307e+06)
(2.45231e+07 -6.25756e+06 5.13745e-06 104753 -1.75275e-05 7.38837e+06)
(2.77555e+07 -4.68519e+06 -3.9138e-05 2.55636e+06 3.31085e-05 9.09355e+06)
(2.36984e+07 -612978 1.77125e-05 4.78223e+06 -3.26153e-06 8.5442e+06)
(2.38083e+07 -623036 -2.97972e-05 4.45998e+06 -5.86045e-06 8.48047e+06)
(2.37138e+07 -2.01457e+06 -5.98279e-05 4.32244e+06 -8.1266e-06 8.41086e+06)
(2.43306e+07 -1.82465e+06 4.54664e-05 4.294e+06 1.58312e-05 8.58737e+06)
(2.39513e+07 -3.2801e+06 3.41232e-05 3.55689e+06 7.32488e-07 8.25247e+06)
(2.51161e+07 -2.84082e+06 5.41767e-06 3.91688e+06 -1.67646e-05 8.70988e+06)
(2.44551e+07 -4.31244e+06 -3.7807e-05 2.53826e+06 -2.35226e-05 8.09802e+06)
(2.61611e+07 -3.58579e+06 -2.69483e-05 3.37075e+06 -3.0867e-05 8.85957e+06)
(2.52485e+07 -5.04269e+06 -6.07503e-05 1.35626e+06 5.31259e-06 7.98143e+06)
(2.74453e+07 -4.00678e+06 -1.87517e-05 2.72932e+06 2.94152e-05 9.05238e+06)
(2.49813e+07 -503529 1.84248e-05 4.97075e+06 -1.66091e-06 8.98562e+06)
(2.51908e+07 -427139 1.75607e-05 5.11281e+06 -1.24404e-06 9.09108e+06)
(2.49414e+07 -1.60341e+06 2.05264e-05 4.60102e+06 6.52854e-06 8.86274e+06)
(2.54839e+07 -1.403e+06 1.1279e-05 4.9393e+06 1.91797e-05 9.12695e+06)
(2.50196e+07 -2.57219e+06 2.86179e-05 3.97451e+06 1.28272e-05 8.69824e+06)
(2.59162e+07 -2.2276e+06 -1.11856e-05 4.49658e+06 1.26116e-05 9.12384e+06)
(2.5281e+07 -3.34697e+06 -1.16702e-05 3.13856e+06 -2.36841e-05 8.52586e+06)
(2.65105e+07 -2.84153e+06 5.66287e-05 3.83936e+06 1.57167e-05 9.10496e+06)
(2.57564e+07 -3.8804e+06 1.43323e-05 2.16179e+06 -1.73827e-06 8.37546e+06)
(2.72843e+07 -3.19508e+06 1.31589e-05 3.08052e+06 1.51135e-05 9.10945e+06)
(2.59769e+07 -438981 2.43795e-05 5.44895e+06 1.26065e-07 9.42775e+06)
(2.63598e+07 -221219 9.34082e-08 6.34072e+06 -1.30866e-05 9.81014e+06)
(2.58026e+07 -1.22887e+06 2.68549e-07 5.10062e+06 -4.08478e-07 9.27097e+06)
(2.64693e+07 -912044 -1.44082e-05 6.18448e+06 -1.46855e-05 9.79614e+06)
(2.57024e+07 -1.8729e+06 -1.44783e-05 4.49212e+06 1.35657e-05 9.05837e+06)
(2.66163e+07 -1.48744e+06 -1.72805e-06 5.51749e+06 -7.97108e-06 9.64013e+06)
(2.57937e+07 -2.37758e+06 2.98556e-05 3.69655e+06 2.00074e-05 8.84708e+06)
(2.6843e+07 -1.94481e+06 1.97792e-05 4.62177e+06 2.91974e-06 9.43944e+06)
(2.60271e+07 -2.69943e+06 4.98333e-05 2.77736e+06 1.45202e-05 8.64134e+06)
(2.71702e+07 -2.21076e+06 1.07419e-06 3.62228e+06 4.27634e-06 9.23773e+06)
(2.67395e+07 -437766 -1.07419e-05 6.49809e+06 -7.6623e-06 9.97127e+06)
(2.72734e+07 -19.7785 -6.64366e-06 8.85087e+06 -4.07749e-06 1.08373e+07)
(2.60386e+07 -735444 -5.32427e-06 6.01308e+06 -1.89356e-05 9.6155e+06)
(2.72102e+07 -144814 -5.77146e-05 8.18144e+06 -2.32302e-05 1.06175e+07)
(2.59309e+07 -1.00682e+06 -3.35686e-05 5.28297e+06 -2.59441e-05 9.36417e+06)
(2.71881e+07 -430162 -7.52987e-05 7.16926e+06 -9.99832e-06 1.03072e+07)
(2.59482e+07 -1.21531e+06 -2.05264e-05 4.36244e+06 -5.16737e-06 9.0932e+06)
(2.71353e+07 -705552 -1.69186e-05 5.79919e+06 -3.86732e-06 9.88035e+06)
(2.60591e+07 -1.3255e+06 3.87644e-06 3.33657e+06 2.80954e-07 8.8187e+06)
(2.70385e+07 -917344 -2.89682e-05 4.21231e+06 3.37897e-05 9.37525e+06)
(3.09557e+07 -7.87042e+06 -2.53486e-05 -1.1977e+07 -0.000102667 5.69363e+06)
(3.72294e+07 -4.39337e+06 -3.81339e-05 -3.32516e+06 -5.78138e-05 1.01713e+07)
(3.42722e+07 -5.66848e+06 -7.99136e-05 -1.02253e+07 -1.83817e-05 7.21409e+06)
(3.89476e+07 -3.29413e+06 -5.14154e-05 -3.17111e+06 -5.61733e-05 1.0733e+07)
(3.66402e+07 -3.77679e+06 -4.32509e-05 -8.55508e+06 -2.84917e-05 8.42553e+06)
(4.01006e+07 -2.17283e+06 -5.83451e-05 -2.90494e+06 -8.48467e-05 1.11587e+07)
(3.83657e+07 -2.21192e+06 -1.12002e-05 -6.95321e+06 -6.05723e-05 9.42373e+06)
(4.09013e+07 -1.14142e+06 -8.06346e-05 -2.51987e+06 -0.000143957 1.15144e+07)
(3.96579e+07 -993810 -2.35476e-05 -5.4211e+06 -0.000148423 1.02711e+07)
(4.15143e+07 -258575 -5.00668e-05 -2.03982e+06 -0.000269909 1.18423e+07)
(4.06852e+07 -139818 -8.58859e-05 -3.9745e+06 -0.000111909 1.10132e+07)
(4.20886e+07 445192 -9.96607e-05 -1.49967e+06 -0.000161488 1.21767e+07)
(4.15989e+07 337797 -9.14349e-05 -2.6423e+06 -1.61421e-05 1.1687e+07)
(4.27728e+07 957996 8.84459e-06 -938350 -0.00020011 1.25503e+07)
(4.25458e+07 434320 -3.42312e-05 -1.46812e+06 -8.66507e-06 1.23233e+07)
(4.37229e+07 1.28401e+06 1.08003e-06 -396672 -0.000199669 1.29979e+07)
(4.36705e+07 160589 -2.09264e-05 -519028 -2.31433e-05 1.29454e+07)
(4.51018e+07 1.44434e+06 -1.85532e-05 83096.9 -0.000244762 1.35555e+07)
(4.51037e+07 -428278 1.52722e-05 87514 -9.91688e-05 1.35574e+07)
(4.70491e+07 1.4776e+06 -1.67026e-05 455031 -8.71411e-05 1.42512e+07)
(2.96127e+07 -7.37458e+06 -3.52207e-05 -6.58949e+06 -3.48398e-05 6.90695e+06)
(3.36316e+07 -4.94082e+06 3.21091e-06 -1.62448e+06 5.56508e-05 9.60212e+06)
(3.16235e+07 -6.47755e+06 -1.76483e-05 -6.31003e+06 -4.56255e-05 7.59403e+06)
(3.53577e+07 -4.2971e+06 4.88058e-06 -1.47042e+06 6.32257e-05 1.01662e+07)
(3.35374e+07 -5.46002e+06 -6.69708e-05 -5.71776e+06 -5.22575e-05 8.34589e+06)
(3.68459e+07 -3.5871e+06 -5.41767e-05 -1.26485e+06 7.03743e-05 1.06743e+07)
(3.52746e+07 -4.46348e+06 -8.8189e-05 -4.93132e+06 -0.000110505 9.10298e+06)
(3.81484e+07 -2.85803e+06 -5.83801e-06 -1.00374e+06 -4.9448e-05 1.11434e+07)
(3.68471e+07 -3.5683e+06 -3.99086e-05 -4.04004e+06 -0.000242173 9.84213e+06)
(3.93473e+07 -2.1467e+06 4.15316e-05 -692606 -8.62595e-05 1.15964e+07)
(3.83068e+07 -2.8195e+06 -4.92465e-05 -3.12044e+06 -0.000188612 1.05559e+07)
(4.05381e+07 -1.47503e+06 -5.80298e-06 -345091 3.92665e-05 1.20579e+07)
(3.97238e+07 -2.23755e+06 -1.3156e-05 -2.24508e+06 -0.000148448 1.12436e+07)
(4.18225e+07 -849311 3.09239e-05 19680.9 8.4692e-05 1.25527e+07)
(4.11764e+07 -1.82224e+06 4.84613e-05 -1.48805e+06 -0.00020601 1.19065e+07)
(4.33058e+07 -259887 1.06952e-05 379550 3.45785e-05 1.31056e+07)
(4.2746e+07 -1.55382e+06 -4.43601e-05 -926544 -0.000209528 1.25458e+07)
(4.50939e+07 319376 -3.35511e-05 711481 -9.7991e-06 1.37416e+07)
(4.45193e+07 -1.39776e+06 -1.46884e-05 -629146 -0.000100444 1.31671e+07)
(4.72989e+07 932764 4.28977e-05 994362 7.16528e-05 1.4488e+07)
(2.8331e+07 -7.43714e+06 1.30888e-05 -3.89615e+06 5.6709e-05 7.33045e+06)
(3.15397e+07 -5.4095e+06 2.58274e-05 -168574 -1.70353e-05 9.41133e+06)
(2.99971e+07 -6.8926e+06 1.41747e-05 -3.76779e+06 7.32732e-05 7.8688e+06)
(3.30736e+07 -4.97216e+06 1.88101e-05 -127739 -3.73341e-06 9.88375e+06)
(3.16278e+07 -6.2624e+06 -1.91779e-05 -3.5012e+06 8.09287e-05 8.43798e+06)
(3.45222e+07 -4.46553e+06 5.94193e-05 -48544.8 -1.49555e-05 1.03421e+07)
(3.32049e+07 -5.58744e+06 1.89794e-05 -3.1224e+06 -3.87279e-06 9.02474e+06)
(3.59014e+07 -3.90388e+06 8.29581e-05 67351.8 -5.63923e-05 1.07906e+07)
(3.47271e+07 -4.90315e+06 6.5088e-05 -2.67272e+06 -4.4104e-05 9.6163e+06)
(3.72448e+07 -3.29924e+06 7.40026e-05 216116 -5.04069e-05 1.12383e+07)
(3.62092e+07 -4.23253e+06 3.08685e-05 -2.20035e+06 4.42872e-05 1.02026e+07)
(3.85978e+07 -2.6575e+06 -2.21961e-05 391221 3.01577e-05 1.16967e+07)
(3.76772e+07 -3.58415e+06 -9.53639e-06 -1.75689e+06 0.000149071 1.07761e+07)
(4.00119e+07 -1.97606e+06 -5.95594e-05 583977 8.69922e-05 1.21788e+07)
(3.91634e+07 -2.95163e+06 3.61665e-06 -1.39575e+06 0.00010664 1.13303e+07)
(4.15396e+07 -1.24267e+06 6.39029e-05 784567 7.33371e-05 1.26972e+07)
(4.07015e+07 -2.31307e+06 2.33141e-05 -1.17098e+06 5.05835e-05 1.18591e+07)
(4.32303e+07 -434875 0.000199275 983301 0.000115952 1.32641e+07)
(4.23207e+07 -1.62829e+06 7.27883e-05 -1.13914e+06 9.88215e-05 1.23545e+07)
(4.51225e+07 479720 0.000215312 1.1717e+06 0.000171489 1.38883e+07)
(2.7525e+07 -7.23057e+06 2.31536e-05 -1.88914e+06 -3.01606e-05 7.69076e+06)
(3.01123e+07 -5.5069e+06 7.20411e-06 868525 -2.77612e-05 9.29425e+06)
(2.8923e+07 -6.86848e+06 1.91137e-05 -1.90656e+06 -3.60176e-05 8.10492e+06)
(3.14373e+07 -5.20333e+06 2.60375e-06 800967 -2.51662e-05 9.67147e+06)
(3.02972e+07 -6.42697e+06 6.30914e-05 -1.85929e+06 -2.95155e-05 8.53136e+06)
(3.2725e+07 -4.82138e+06 1.04851e-05 761689 -1.1892e-05 1.0046e+07)
(3.16458e+07 -5.91605e+06 7.32437e-05 -1.75645e+06 -4.18082e-05 8.96682e+06)
(3.39827e+07 -4.36476e+06 -1.28903e-05 749699 4.44856e-05 1.04197e+07)
(3.29686e+07 -5.34555e+06 5.1141e-05 -1.61654e+06 -2.69906e-05 9.40561e+06)
(3.52232e+07 -3.83529e+06 -2.6598e-05 763481 2.76561e-05 1.0796e+07)
(3.42685e+07 -4.72104e+06 -1.41338e-05 -1.46423e+06 -7.33619e-06 9.84127e+06)
(3.64641e+07 -3.23148e+06 -7.48083e-05 800961 -5.61281e-05 1.11795e+07)
(3.55519e+07 -4.0414e+06 -8.91581e-05 -1.32742e+06 2.71672e-05 1.02673e+07)
(3.77252e+07 -2.54738e+06 -8.71732e-05 859719 -4.20103e-05 1.15755e+07)
(3.68275e+07 -3.29752e+06 3.64817e-05 -1.2349e+06 6.54354e-05 1.06778e+07)
(3.90258e+07 -1.77192e+06 1.14659e-05 937430 3.66977e-05 1.1989e+07)
(3.81039e+07 -2.47187e+06 0.000201376 -1.21374e+06 0.000111761 1.1067e+07)
(4.03824e+07 -888729 8.15103e-05 1.03243e+06 5.39228e-05 1.24244e+07)
(3.9389e+07 -1.53942e+06 0.000215125 -1.2855e+06 0.000149506 1.1431e+07)
(4.18065e+07 123615 3.64759e-05 1.14437e+06 8.45125e-05 1.28853e+07)
(2.71013e+07 -6.66139e+06 1.80978e-06 -421899 -2.11234e-05 8.00382e+06)
(2.91143e+07 -5.24794e+06 -1.09171e-05 1.52113e+06 -2.49232e-05 9.19062e+06)
(2.82135e+07 -6.41929e+06 -4.64706e-06 -580646 -2.66753e-05 8.28986e+06)
(3.02004e+07 -5.03773e+06 -1.64632e-06 1.37528e+06 -1.04603e-05 9.47272e+06)
(2.93103e+07 -6.0906e+06 -1.11448e-05 -701785 -4.28729e-06 8.58255e+06)
(3.1262e+07 -4.7437e+06 -1.30304e-05 1.24791e+06 1.29268e-05 9.75296e+06)
(3.03883e+07 -5.67776e+06 -2.69599e-05 -790772 5.35959e-05 8.87924e+06)
(3.22995e+07 -4.36656e+06 3.9932e-06 1.14021e+06 4.85927e-05 1.00319e+07)
(3.14439e+07 -5.18205e+06 -3.21733e-05 -856230 5.32894e-05 9.17629e+06)
(3.33148e+07 -3.90539e+06 9.9363e-06 1.05343e+06 5.31507e-05 1.03105e+07)
(3.24737e+07 -4.60244e+06 -5.38557e-05 -909210 -4.28671e-05 9.46934e+06)
(3.43108e+07 -3.3572e+06 -1.15476e-05 989047 4.73959e-05 1.05899e+07)
(3.34746e+07 -3.93454e+06 -7.16266e-05 -961943 -4.69449e-05 9.75381e+06)
(3.52901e+07 -2.7164e+06 -8.2783e-06 948967 7.04925e-05 1.08717e+07)
(3.44436e+07 -3.16997e+06 -3.3119e-05 -1.0264e+06 3.32847e-05 1.00251e+07)
(3.62548e+07 -1.97458e+06 -1.65099e-05 935774 8.36003e-05 1.11572e+07)
(3.53769e+07 -2.29614e+06 2.09993e-05 -1.11279e+06 4.30167e-05 1.02792e+07)
(3.72048e+07 -1.12032e+06 -6.79545e-06 952940 -1.80686e-06 1.14473e+07)
(3.627e+07 -1.29627e+06 2.57456e-06 -1.22842e+06 2.71679e-05 1.05125e+07)
(3.81371e+07 -139415 3.67795e-06 1.00498e+06 -7.2495e-05 1.17426e+07)
(2.69063e+07 -5.83546e+06 -1.31822e-05 574839 -4.89955e-06 8.24433e+06)
(2.84216e+07 -4.73294e+06 -3.00074e-06 1.92984e+06 3.83141e-05 9.10543e+06)
(2.77302e+07 -5.66986e+06 -1.63464e-07 316609 -2.69753e-06 8.41405e+06)
(2.92496e+07 -4.58379e+06 -3.9932e-06 1.72963e+06 4.02677e-06 9.29378e+06)
(2.8544e+07 -5.41514e+06 -9.88375e-06 83052.7 6.67686e-06 8.58811e+06)
(3.00553e+07 -4.35295e+06 1.0018e-05 1.53902e+06 -1.27239e-05 9.47829e+06)
(2.9341e+07 -5.07196e+06 1.46242e-05 -127725 2.19582e-05 8.76397e+06)
(3.08338e+07 -4.04086e+06 1.60545e-05 1.36107e+06 -6.83339e-06 9.65845e+06)
(3.0114e+07 -4.63974e+06 2.00361e-05 -318340 5.08265e-05 8.9387e+06)
(3.158e+07 -3.64699e+06 1.88685e-05 1.19921e+06 -1.21577e-06 9.83377e+06)
(3.08553e+07 -4.11633e+06 1.26159e-05 -491879 6.75093e-05 9.10902e+06)
(3.22883e+07 -3.16948e+06 2.29317e-05 1.05756e+06 -6.68452e-07 1.00038e+07)
(3.15559e+07 -3.49764e+06 9.60353e-06 -651408 6.92994e-05 9.27136e+06)
(3.29521e+07 -2.60484e+06 7.07567e-06 941066 3.6473e-05 1.01679e+07)
(3.22062e+07 -2.77727e+06 -1.44024e-05 -799365 8.43425e-05 9.42205e+06)
(3.35635e+07 -1.9476e+06 -1.54007e-05 855784 2.83669e-05 1.03258e+07)
(3.27951e+07 -1.94637e+06 -2.50684e-05 -936933 2.11774e-06 9.55746e+06)
(3.41134e+07 -1.19006e+06 -4.04691e-05 809062 -3.30315e-05 1.04767e+07)
(3.33109e+07 -993670 4.32013e-07 -1.06338e+06 -9.21807e-05 9.67425e+06)
(3.45915e+07 -322185 -3.37087e-05 809568 -4.84117e-05 1.06203e+07)
(2.68059e+07 -4.86504e+06 -1.27736e-05 1.2374e+06 5.13862e-05 8.41299e+06)
(2.79348e+07 -4.04607e+06 -8.51182e-06 2.25358e+06 3.55528e-05 9.05652e+06)
(2.73639e+07 -4.74156e+06 1.20263e-06 921449 1.28192e-05 8.4856e+06)
(2.85086e+07 -3.93055e+06 -2.19509e-06 2.00601e+06 2.85274e-05 9.15437e+06)
(2.79154e+07 -4.53468e+06 6.99394e-06 621923 -9.22077e-06 8.56119e+06)
(2.90612e+07 -3.74209e+06 -1.93822e-06 1.76126e+06 2.53253e-05 9.24672e+06)
(2.84522e+07 -4.24505e+06 1.10455e-05 340404 -9.23245e-06 8.63779e+06)
(2.95845e+07 -3.48226e+06 1.13608e-05 1.5237e+06 3.68758e-05 9.33247e+06)
(2.89652e+07 -3.87257e+06 1.9283e-05 78574.1 -5.63806e-06 8.71313e+06)
(3.00693e+07 -3.15236e+06 -1.18161e-05 1.29832e+06 5.92558e-05 9.41029e+06)
(2.94436e+07 -3.41617e+06 1.19329e-05 -161601 -3.10874e-07 8.78461e+06)
(3.05043e+07 -2.75304e+06 -5.39082e-05 1.0905e+06 6.82464e-05 9.47844e+06)
(2.98751e+07 -2.87352e+06 -7.74704e-06 -377647 3.1075e-05 8.84923e+06)
(3.08764e+07 -2.28404e+06 -5.59515e-05 906552 7.67757e-05 9.53488e+06)
(3.02451e+07 -2.2407e+06 -1.69361e-05 -566359 3.09429e-05 8.90363e+06)
(3.11705e+07 -1.74374e+06 -2.69366e-05 754386 5.98995e-05 9.57747e+06)
(3.05371e+07 -1.5119e+06 -3.67386e-05 -723629 -3.53346e-06 8.94404e+06)
(3.13702e+07 -1.12841e+06 -2.09701e-05 644155 3.23382e-05 9.60431e+06)
(3.07323e+07 -679079 -4.66807e-05 -844372 -2.04024e-05 8.96637e+06)
(3.14584e+07 -431094 -2.04681e-05 588888 -1.96595e-06 9.61418e+06)
(2.67038e+07 -3.80598e+06 -1.28436e-05 1.726e+06 3.0138e-05 8.52894e+06)
(2.75661e+07 -3.21793e+06 -1.28086e-05 2.60722e+06 -9.75459e-06 9.05201e+06)
(2.70384e+07 -3.69967e+06 -5.0382e-06 1.37596e+06 2.47338e-05 8.52432e+06)
(2.79098e+07 -3.11548e+06 -9.16568e-06 2.29436e+06 -1.31779e-05 9.06125e+06)
(2.73709e+07 -3.52277e+06 -6.14743e-06 1.03685e+06 2.73934e-05 8.52231e+06)
(2.82373e+07 -2.95373e+06 -2.7065e-05 1.98337e+06 -6.99394e-06 9.06622e+06)
(2.76929e+07 -3.27667e+06 -2.45196e-06 712996 3.45537e-05 8.52177e+06)
(2.85399e+07 -2.73604e+06 -3.51915e-05 1.68199e+06 -1.28334e-05 9.06658e+06)
(2.79944e+07 -2.96249e+06 -1.9534e-05 409066 5.54903e-05 8.52104e+06)
(2.88058e+07 -2.46509e+06 -1.06836e-05 1.3946e+06 -2.67629e-05 9.06012e+06)
(2.8264e+07 -2.58104e+06 -5.13628e-05 130365 5.93959e-05 8.5183e+06)
(2.90206e+07 -2.14439e+06 1.6183e-05 1.12533e+06 -1.90494e-05 9.04378e+06)
(2.84882e+07 -2.13266e+06 -4.79534e-05 -116956 6.25609e-05 8.51137e+06)
(2.91666e+07 -1.77834e+06 3.53784e-06 879144 -3.05343e-05 9.01371e+06)
(2.86502e+07 -1.61684e+06 -2.89682e-05 -325768 4.8816e-05 8.49732e+06)
(2.92217e+07 -1.3717e+06 -1.57977e-05 662655 -4.98931e-05 8.9653e+06)
(2.87285e+07 -1.0314e+06 -1.11448e-05 -487990 2.61499e-05 8.47217e+06)
(2.9159e+07 -928521 -7.28584e-06 485241 -4.40288e-05 8.89328e+06)
(2.86961e+07 -371367 -1.26685e-05 -594941 -2.11336e-06 8.43035e+06)
(2.89473e+07 -450033 -2.47298e-05 361039 -1.47512e-05 8.79251e+06)
(2.65482e+07 -2.63689e+06 -1.23883e-05 2.17095e+06 -1.20526e-05 8.61573e+06)
(2.72436e+07 -2.20217e+06 -6.37511e-06 2.9922e+06 1.59378e-05 9.07075e+06)
(2.67274e+07 -2.53687e+06 -1.06077e-05 1.7876e+06 -1.44016e-05 8.55449e+06)
(2.73949e+07 -2.10971e+06 4.60035e-06 2.54808e+06 4.76017e-05 8.98288e+06)
(2.69088e+07 -2.38639e+06 -1.91195e-05 1.41401e+06 1.7244e-06 8.49685e+06)
(2.75426e+07 -1.98114e+06 1.26568e-05 2.13711e+06 5.03908e-05 8.90393e+06)
(2.70793e+07 -2.18599e+06 -3.48062e-05 1.05602e+06 -1.31308e-05 8.4406e+06)
(2.76749e+07 -1.8115e+06 2.56989e-05 1.75327e+06 -2.00682e-06 8.82846e+06)
(2.72322e+07 -1.93693e+06 4.73463e-06 720203 -4.87208e-05 8.38572e+06)
(2.77823e+07 -1.60316e+06 2.43795e-05 1.39795e+06 -2.11818e-05 8.75407e+06)
(2.73605e+07 -1.64182e+06 3.08772e-05 413875 -3.43786e-05 8.33232e+06)
(2.78528e+07 -1.36245e+06 9.17735e-06 1.07445e+06 -4.02969e-06 8.67817e+06)
(2.74547e+07 -1.30438e+06 1.60195e-05 145474 -4.34319e-05 8.28004e+06)
(2.78695e+07 -1.09886e+06 7.47265e-06 785908 -3.2131e-05 8.59663e+06)
(2.75006e+07 -929152 -9.14233e-06 -74950.6 -6.99292e-05 8.2277e+06)
(2.78077e+07 -825446 1.79344e-05 534542 -4.21431e-05 8.50267e+06)
(2.74778e+07 -520741 -2.09585e-06 -235301 -5.57005e-05 8.17274e+06)
(2.76305e+07 -559769 3.41874e-05 321312 -5.04069e-05 8.38555e+06)
(2.73551e+07 -82201.4 -7.64196e-06 -321353 -2.83246e-05 8.11012e+06)
(2.72819e+07 -325849 1.94756e-05 145730 -2.61893e-05 8.22829e+06)
(2.63518e+07 -1.23491e+06 -1.53656e-05 2.61e+06 3.36999e-05 8.68854e+06)
(2.69385e+07 -815543 -2.57631e-05 3.15561e+06 3.92541e-05 9.02824e+06)
(2.65169e+07 -1.16261e+06 4.70544e-06 2.17181e+06 5.04667e-05 8.60661e+06)
(2.69669e+07 -817006 -3.9932e-06 2.52344e+06 -1.7036e-05 8.84712e+06)
(2.66346e+07 -1.06679e+06 1.78643e-05 1.74794e+06 3.97175e-05 8.51476e+06)
(2.69755e+07 -771776 -1.4957e-05 1.92143e+06 -5.49682e-05 8.66908e+06)
(2.67299e+07 -943515 2.77889e-05 1.34824e+06 -3.55243e-06 8.42343e+06)
(2.69773e+07 -693363 -2.14022e-05 1.37327e+06 -3.52995e-05 8.50516e+06)
(2.68091e+07 -793678 1.17578e-05 980874 -1.18366e-05 8.33699e+06)
(2.69762e+07 -589067 -1.36026e-05 898044 -5.99126e-07 8.36227e+06)
(2.68716e+07 -620528 3.56119e-06 653920 -2.67089e-07 8.25765e+06)
(2.69713e+07 -465148 -3.46194e-06 511487 4.9302e-06 8.24484e+06)
(2.69133e+07 -429401 4.44856e-06 376082 -1.17446e-05 8.18681e+06)
(2.69573e+07 -329460 -2.16298e-05 225612 1.45651e-05 8.15489e+06)
(2.69282e+07 -228377 1.41046e-05 157615 -2.35141e-05 8.12574e+06)