/*--------------------------------*- C++ -*----------------------------------*\
| =========                 |                                                 |
| \\      /  F ield         | OpenFOAM: The Open Source CFD Toolbox           |
|  \\    /   O peration     | Version:  v2012                                 |
|   \\  /    A nd           | Website:  www.openfoam.com                      |
|    \\/     M anipulation  |                                                 |
\*---------------------------------------------------------------------------*/
FoamFile
{
    version     2.0;
    format      ascii;
    class       volSymmTensorField;
    location    "17";
    object      epsilon;
}
// * * * * * * * * * * * * * * * * * * * * * * * * * * * * * * * * * * * * * //

dimensions      [0 0 0 0 0 0 0];


internalField   nonuniform List<symmTensor> 
1896
(
(0.000442051 -4.40318e-05 -8.43509e-16 -5.3402e-05 2.73642e-16 0)
(0.000520938 -4.04335e-05 1.72171e-16 -0.000203337 4.02158e-16 0)
(0.000415877 -1.94688e-05 9.29812e-16 -4.60073e-05 3.73987e-16 0)
(0.00118492 -0.000120228 -5.17815e-16 -0.000722278 2.16212e-15 0)
(0.000437875 -5.23153e-05 7.91468e-16 -5.98166e-05 8.4002e-17 0)
(0.00042825 -5.46485e-05 2.57953e-15 -5.70357e-05 2.12175e-16 0)
(0.00122804 -0.000115421 9.42605e-16 -0.000949975 1.52656e-16 0)
(0.000385524 -9.20368e-05 1.34441e-17 -6.22932e-05 1.86008e-16 0)
(0.000370154 -0.000260126 2.96204e-16 -0.000299306 -9.83507e-16 0)
(0.000367819 -7.26898e-05 -1.68832e-15 -5.03699e-05 -1.68034e-17 0)
(0.000433902 -5.97083e-06 8.87311e-16 -3.25873e-05 4.34219e-17 0)
(0.000222916 -0.000154532 -8.63025e-17 -3.74885e-05 8.66125e-17 0)
(0.000207915 -0.000108256 1.74773e-16 -1.33497e-05 8.71656e-17 0)
(0.000198973 -0.000151568 -2.06866e-16 -2.80897e-05 3.77853e-17 0)
(0.00103857 -3.86872e-05 5.24949e-15 -0.000609427 -3.42174e-16 0)
(0.000998563 0.000142367 -3.38813e-16 -0.000435225 -2.25232e-15 0)
(0.000611857 -9.4329e-05 1.26288e-15 -0.000250062 -2.24891e-16 0)
(0.0018627 -0.000871423 -1.00699e-14 -0.000858841 3.68846e-16 0)
(0.000643696 -0.000163987 -1.86526e-15 -0.000255114 -2.05511e-16 0)
(0.000131389 2.64247e-05 3.90313e-17 -0.000169665 8.6747e-16 0)
(0.000296764 0.000260111 5.20417e-17 -0.00089028 -9.47945e-16 0)
(0.000506284 -0.00012056 -8.84275e-16 -0.000169571 -1.0838e-16 0)
(0.00110569 -0.000104284 -9.24174e-16 -0.000477842 1.38854e-15 0)
(0.00120179 -8.82029e-05 3.53016e-16 -0.000521459 2.5533e-16 0)
(0.000540539 -7.71524e-05 -3.29597e-16 -0.00020441 -7.79135e-16 0)
(0.00053261 -7.39679e-05 -9.84456e-17 -0.000203796 -6.88523e-16 0)
(0.000225764 -7.54101e-05 -2.55872e-16 -9.16542e-06 1.88784e-16 0)
(0.000230145 -6.71511e-05 2.64545e-17 -1.12367e-05 2.95864e-16 0)
(0.00043083 -3.99484e-05 -2.27292e-15 -3.99886e-05 9.00125e-17 0)
(0.000707055 -0.000223876 7.069e-17 -0.000283116 -6.24948e-16 0)
(0.000660566 -0.000221577 -8.97719e-17 -0.000271412 -2.43878e-16 0)
(0.000525575 -1.20174e-05 -1.46281e-15 -0.000220413 1.39488e-15 0)
(0.00012877 -0.00011393 -1.2013e-16 -6.51515e-05 -1.05303e-17 0)
(0.000530328 -3.44617e-05 -2.51101e-16 -0.000210139 1.08217e-16 0)
(0.00102199 -3.33086e-05 4.64884e-15 -0.000432023 -1.37152e-15 0)
(0.000436013 -2.92169e-05 1.14969e-15 -2.93843e-05 -4.43984e-16 0)
(0.000646557 -0.000212131 -2.18055e-15 -0.000259001 -6.53422e-16 0)
(0.000496618 -4.28533e-05 -1.31796e-15 -0.000164607 -3.66325e-17 0)
(0.00173584 -0.000605185 -6.38899e-15 -0.0011832 -2.91824e-15 0)
(0.000726022 -0.000232905 4.47992e-16 -0.00029416 2.57905e-16 0)
(0.000526162 -2.09096e-06 4.50161e-16 -0.000226501 2.27682e-17 0)
(0.000348763 -0.000136868 4.09612e-16 -0.000205295 1.27958e-15 0)
(0.00051582 -0.00027498 2.93472e-15 -0.000189729 -8.13531e-16 0)
(0.000718552 -0.000176912 -2.02789e-15 -0.000459477 1.16985e-15 0)
(0.000237475 -5.9951e-05 -2.51535e-17 -5.13745e-06 2.49964e-16 0)
(0.000197585 -5.72851e-05 -1.04083e-16 -5.28885e-06 8.97295e-17 0)
(0.00116373 -4.42746e-05 5.09076e-15 -0.0007863 2.55612e-15 0)
(0.000434547 -1.92306e-05 -5.01769e-16 -3.49299e-05 -4.65693e-16 0)
(0.000851588 -0.000171455 3.50631e-15 -0.000469553 6.451e-17 0)
(0.00129003 0.000119241 5.6745e-15 -0.000735269 -1.388e-15 0)
(0.000426932 -3.13576e-05 1.02912e-15 -5.46117e-05 1.96574e-16 0)
(0.000412373 -7.54013e-05 4.21104e-16 -6.24012e-05 -4.53739e-16 0)
(0.000393709 -8.12507e-05 -3.42608e-17 -6.41596e-05 -4.79827e-17 0)
(0.000513812 -0.000114261 -1.48319e-16 -0.000165929 -1.00519e-16 0)
(0.00037201 -0.000251811 2.60642e-16 -0.000265971 -1.0092e-15 0)
(0.000563685 -1.4395e-05 -1.07379e-15 -0.000239963 -1.71087e-16 0)
(0.000567751 -0.00024091 -1.49663e-15 -0.000338774 1.87025e-16 0)
(0.000445745 -3.23458e-05 9.93129e-16 -4.81919e-05 -5.7849e-17 0)
(0.00048968 -1.96165e-05 -1.06252e-16 -0.000139348 -2.6874e-16 0)
(0.000760999 -3.64258e-05 2.50971e-15 -0.000315573 3.43204e-16 0)
(0.000378864 -7.18932e-05 -1.27546e-15 -5.28813e-05 1.2077e-16 0)
(0.00118413 6.25911e-05 9.98572e-15 -0.000643367 -2.76537e-15 0)
(0.00118418 2.4311e-05 7.43264e-15 -0.000674093 -2.83085e-15 0)
(0.000448372 -0.000103718 -2.32973e-15 -9.19723e-05 5.97036e-16 0)
(0.000132407 3.73343e-05 5.42101e-17 -0.000141118 1.31579e-15 0)
(0.000524861 -5.8012e-06 -1.32706e-15 -0.000222321 1.32316e-15 0)
(0.00105108 -0.000138071 3.46945e-16 -0.000454113 2.57877e-15 0)
(0.000291417 -0.000226297 6.10623e-16 -7.63115e-05 2.49722e-16 0)
(0.000487794 -6.51452e-05 -8.0708e-16 -0.000144765 -4.34901e-17 0)
(0.00104628 -0.000130969 -9.5258e-16 -0.000457397 2.40617e-15 0)
(8.76667e-05 -2.43921e-05 5.63785e-17 -2.24769e-05 5.03671e-17 0)
(0.00108112 -4.09505e-05 -1.28803e-16 -0.000587589 -4.63713e-16 0)
(0.000496415 -6.21929e-05 -1.35308e-15 -0.000154545 3.56838e-17 0)
(0.000544255 -9.7033e-06 -3.44776e-16 -0.000232025 -1.61638e-15 0)
(0.00108744 -3.77629e-05 4.29474e-15 -0.000468522 2.31694e-16 0)
(0.00052483 -6.14662e-05 2.11203e-16 -0.000197414 -4.20833e-16 0)
(0.000531593 -5.12848e-05 2.90133e-16 -0.00020766 -3.15123e-16 0)
(0.000456957 -7.60914e-05 1.33617e-15 -8.81505e-05 2.06615e-16 0)
(0.000466787 -7.95578e-05 -7.59809e-16 -0.000101728 3.93992e-16 0)
(0.000500775 -0.000197464 1.51832e-15 -0.000153467 -1.89383e-16 0)
(0.000329099 -8.04282e-05 -1.11239e-16 -0.000186626 9.24824e-16 0)
(0.00114593 -0.000120127 1.61329e-16 -0.000498864 -6.53178e-16 0)
(0.000296827 -4.1856e-05 1.30972e-16 -1.88227e-05 1.79508e-16 0)
(0.000364533 -0.000132057 -6.31006e-16 -5.85248e-05 1.13895e-16 0)
(0.000347509 -0.000112079 -1.08333e-15 -5.20367e-05 9.78154e-18 0)
(0.000559374 -0.000191283 7.67615e-17 -0.000200547 1.15581e-15 0)
(0.000378009 -0.000225428 -4.54064e-16 -9.25707e-05 -8.01463e-17 0)
(0.000353429 -0.000235257 -4.03757e-16 -8.57731e-05 1.04995e-16 0)
(0.000517021 -0.000237936 -1.54347e-15 -0.000338713 -1.62104e-15 0)
(0.000428311 -0.00027325 -4.17635e-16 -0.000141003 -2.36546e-16 0)
(0.000435711 -0.000208097 -3.49113e-16 -0.000112186 -5.9089e-17 0)
(0.00691209 -0.000599524 6.44856e-15 -0.00712201 -2.61555e-14 0)
(0.000281511 -0.000269954 -4.29344e-17 -0.000209541 9.43662e-17 0)
(0.00040185 -0.000409269 -6.23872e-15 -0.000316153 2.79356e-15 0)
(0.00119961 -8.10402e-05 1.30993e-15 -0.00052133 -6.3686e-16 0)
(0.000528582 -0.000103247 -8.32667e-17 -0.00018484 1.33777e-16 0)
(0.000510617 -1.116e-05 -6.58328e-16 -0.000195821 -3.73643e-17 0)
(0.000430057 -6.55786e-06 1.99493e-17 -1.20797e-05 -4.01633e-16 0)
(0.000516752 -5.60901e-06 -9.17235e-16 -0.000213054 7.19992e-16 0)
(0.000365258 -0.000276262 6.20164e-16 -0.00012275 5.67858e-16 0)
(0.000376811 -0.000267507 1.47018e-16 -0.000125819 5.77663e-16 0)
(0.000248793 -0.000229656 7.12971e-16 -7.45439e-05 2.74429e-16 0)
(0.000449218 -0.000102337 -1.57383e-15 -8.9859e-05 5.2428e-16 0)
(0.000287768 -0.000257681 -2.60209e-18 -0.000185471 1.51246e-17 0)
(0.000435887 -0.000284355 -2.1684e-18 -0.000240356 9.58191e-16 0)
(0.000509199 -0.000283751 1.96674e-15 -0.000178225 -2.75171e-16 0)
(0.000545588 -0.00018715 8.56086e-16 -0.000200108 8.61778e-16 0)
(0.000694735 -0.000133299 -6.52907e-16 -0.000455271 1.87795e-15 0)
(0.000928891 -0.0001752 1.00657e-15 -0.000424141 -8.97123e-16 0)
(0.00592621 -0.000708819 2.53313e-15 -0.00580774 -5.40692e-15 0)
(0.000426528 -9.07685e-06 -2.87097e-16 -4.41078e-06 -6.07921e-16 0)
(0.00051787 -7.01264e-06 -7.94937e-16 -0.000212665 4.39847e-16 0)
(0.000795343 -0.000234717 1.5541e-15 -0.000367682 -2.03418e-15 0)
(0.000578663 -0.000284147 -1.38257e-15 -0.000344959 9.37157e-16 0)
(0.00189545 -0.00109892 -9.75413e-15 -0.00229943 3.38488e-15 0)
(0.000388956 -0.000251841 -3.13985e-16 -0.000110448 -2.96705e-16 0)
(0.000310527 -2.42234e-05 -4.60135e-16 -2.06283e-05 4.10972e-17 0)
(0.000434646 -0.000232673 -9.20271e-16 -0.000120226 -5.9543e-16 0)
(0.000526998 -0.000107298 -1.12649e-15 -0.000402996 -7.31403e-16 0)
(0.000686306 -0.000219566 -2.42731e-15 -0.000272104 -3.15909e-16 0)
(0.000526732 -0.000106604 -2.36052e-15 -0.000386705 3.10949e-16 0)
(0.000320571 -0.000255679 4.00721e-16 -0.000280976 -7.1701e-16 0)
(0.000500062 -4.51306e-05 -2.59341e-16 -0.000163682 2.43268e-17 0)
(0.000302164 -9.57124e-05 -8.50015e-17 -3.23811e-05 3.8108e-17 0)
(0.000313155 -8.04046e-05 1.06252e-16 -3.2128e-05 6.69207e-17 0)
(0.000477048 -0.000271176 -5.58147e-16 -0.000350666 -1.58185e-15 0)
(0.000751009 -0.000155377 -1.05515e-15 -0.000475249 2.68579e-15 0)
(0.000376921 -9.39553e-05 -3.32633e-16 -5.71128e-05 2.51941e-16 0)
(0.000677205 -9.94306e-05 5.76796e-17 -0.000284897 4.18583e-16 0)
(0.000377513 -0.000297694 -3.02709e-16 -0.000146428 2.61225e-17 0)
(0.000402488 -0.000290381 5.50775e-16 -0.000158619 1.17121e-16 0)
(0.000441734 -0.000202992 3.40006e-16 -0.000122904 1.15996e-16 0)
(0.000856346 -0.000235661 3.04921e-15 -0.000405481 -2.40888e-15 0)
(0.000296387 -0.000252276 -4.5105e-15 -0.000173294 2.57997e-15 0)
(0.000631985 -0.000160204 -8.76903e-16 -0.000252298 -1.1029e-16 0)
(0.00121344 8.11669e-05 4.13981e-15 -0.000596367 -2.09685e-16 0)
(0.000781848 -0.000157575 5.46004e-16 -0.000522918 2.25601e-15 0)
(0.000916324 -0.000215849 -5.06106e-16 -0.000558131 2.81416e-15 0)
(0.000529751 -8.67693e-06 -1.3353e-15 -0.000225157 1.10778e-15 0)
(0.000756166 -0.000253316 -3.02232e-15 -0.00031397 -8.20741e-17 0)
(0.00049827 -8.1718e-05 3.26128e-16 -0.000152238 4.82145e-16 0)
(0.000727112 -0.000208885 2.37202e-15 -0.000418004 2.13653e-15 0)
(0.000708691 -0.000230181 4.09395e-16 -0.000291823 4.03648e-16 0)
(0.00147969 0.000405274 -2.99213e-15 -0.000624587 2.00968e-15 0)
(0.000400654 -0.000171196 9.86624e-16 -8.72971e-05 -3.98187e-16 0)
(0.000585198 -0.000142322 -1.58207e-15 -0.000219899 -8.1429e-16 0)
(0.000563018 -0.000134332 -1.0378e-15 -0.000221603 -1.15617e-15 0)
(0.000684253 -0.000101191 -8.17055e-16 -0.000290314 1.32435e-16 0)
(0.00112971 -9.66752e-05 -3.18278e-15 -0.000518527 -1.15771e-15 0)
(0.000407766 -0.000242147 -5.57714e-16 -0.000113678 -3.64448e-16 0)
(0.000251716 -0.000106806 2.61943e-16 -1.58657e-05 -2.96906e-17 0)
(0.000514317 -2.80587e-05 -1.47018e-16 -0.000197659 1.92324e-16 0)
(0.000496132 -8.95875e-05 8.43943e-16 -0.000160403 2.82001e-16 0)
(0.000463491 -0.000111391 3.2396e-16 -0.000115753 -5.26516e-17 0)
(0.00045949 -0.000125948 -4.38885e-16 -0.000118612 4.66729e-16 0)
(0.00071973 -0.000242127 -2.02898e-15 -0.000375312 1.38127e-16 0)
(0.000275692 -2.38805e-05 7.28584e-17 -2.03353e-05 4.87226e-17 0)
(0.000669668 -0.000259543 -1.51918e-15 -0.00036728 7.46636e-16 0)
(0.00484351 -0.00387338 -1.22686e-14 -0.00446247 -2.30458e-15 0)
(0.000405835 -5.15408e-05 -1.52959e-15 -5.68895e-05 5.19565e-16 0)
(0.000407558 -7.20068e-05 -8.83408e-16 -6.47834e-05 -2.75882e-16 0)
(0.00119102 -3.39709e-05 2.21025e-15 -0.000514198 8.61182e-16 0)
(0.000345135 -0.000201963 2.72785e-16 -0.000308289 -6.54587e-17 0)
(0.0004851 -3.9536e-05 5.81566e-16 -0.000127181 -2.50851e-16 0)
(0.00234309 -7.11796e-05 -7.39551e-15 -0.00123453 2.35012e-15 0)
(0.000358422 -7.47028e-05 -5.16948e-16 -4.52783e-05 1.69027e-16 0)
(0.00101905 0.0001474 3.89947e-16 -0.000252983 -6.27103e-16 0)
(0.000438574 -3.47888e-05 1.37607e-15 -4.49357e-05 -5.02579e-16 0)
(0.00043547 -2.51936e-05 -1.42638e-15 -2.56227e-05 -2.76458e-16 0)
(0.000514657 -2.86625e-05 -2.13805e-16 -0.000196609 7.12294e-16 0)
(0.000518848 -2.13195e-05 -1.17137e-15 -0.000209806 8.23397e-16 0)
(0.000531479 -1.67501e-05 -1.7872e-15 -0.000225074 9.80796e-16 0)
(0.000139814 -0.000147462 1.05384e-16 -5.36115e-05 -1.7417e-16 0)
(0.000160462 -0.000156926 3.31766e-16 -5.06843e-05 -2.98243e-16 0)
(0.000950771 -0.000123528 1.11911e-15 -0.000614184 4.80952e-16 0)
(0.000992485 -0.000139927 2.61249e-15 -0.000684566 1.63368e-15 0)
(0.00093447 -0.000145946 4.02304e-15 -0.000503194 -5.04696e-16 0)
(0.000531072 -9.21433e-05 -3.17454e-16 -0.000197475 -3.06016e-17 0)
(0.000423389 -1.27879e-05 -2.48499e-16 -1.89626e-05 -1.3e-16 0)
(0.00036018 -0.000275516 -5.39933e-16 -0.000216007 -1.29183e-16 0)
(0.000113383 -0.000157707 -1.01915e-16 -5.532e-05 -6.94567e-20 0)
(0.000754315 -9.0103e-05 -1.50834e-15 -0.000312264 2.14293e-16 0)
(0.000472039 -0.000104363 2.98372e-16 -0.000110751 -5.31293e-16 0)
(0.000978578 -0.000102281 1.08355e-15 -0.000476813 -6.28187e-16 0)
(0.00102822 -0.000102744 4.36413e-15 -0.000656007 -7.52653e-16 0)
(0.0033442 -1.29649e-05 -1.57754e-14 -0.0013174 -2.89309e-15 0)
(0.000349462 -0.000255545 9.88792e-16 -0.000106503 6.8468e-16 0)
(0.00131533 0.000373847 4.31708e-15 -0.000673587 -3.48896e-15 0)
(0.00037354 9.66346e-05 -7.14706e-16 -0.00107391 7.34513e-16 0)
(9.88892e-05 -9.52213e-05 3.59521e-16 -0.000270922 -3.14554e-17 0)
(0.000825715 -0.000155193 8.18356e-16 -0.000522799 8.54568e-16 0)
(0.000426504 -2.25015e-05 -1.53046e-15 -2.1222e-05 -8.93662e-17 0)
(0.000712525 -0.000187156 8.39606e-16 -0.000428176 6.23633e-16 0)
(0.00142868 -9.38763e-06 2.78597e-15 -0.000620866 8.20849e-16 0)
(0.000241572 -6.46939e-05 -1.37477e-16 -0.00012026 5.9024e-16 0)
(0.000211567 -0.000186136 -1.39645e-16 -6.17376e-05 -2.02361e-16 0)
(0.000532424 -0.000280236 1.2503e-15 -0.000192285 -3.49682e-16 0)
(0.000643247 -0.000174104 -1.17267e-15 -0.000407717 4.06034e-17 0)
(0.00020712 -0.000199928 -1.99493e-17 -5.06117e-05 -2.09691e-17 0)
(0.000280593 -5.93082e-05 -1.09721e-16 -2.09067e-05 1.12392e-16 0)
(0.000345857 -0.000230098 2.74954e-16 -8.74828e-05 -7.51013e-17 0)
(0.000270476 -2.76037e-05 4.56666e-16 -0.000232028 3.77953e-16 0)
(0.000433597 -2.92784e-05 -2.88138e-15 -4.00539e-05 1.4723e-16 0)
(0.000470433 -0.000117446 -7.09936e-16 -0.000112068 -3.9757e-16 0)
(0.00154083 0.000271158 6.19405e-16 -0.00086409 -7.29234e-16 0)
(0.000458409 -0.000117489 -2.94903e-17 -0.000102247 1.05086e-15 0)
(0.000828354 -0.000150019 4.00244e-15 -0.00046114 1.68827e-15 0)
(0.000934487 -0.000159823 -1.98409e-15 -0.000400414 -1.59866e-16 0)
(0.000287622 -2.06024e-05 -6.5746e-16 -0.00077695 1.32988e-15 0)
(0.000556859 -2.21028e-05 -1.56992e-16 -0.000242429 9.63368e-16 0)
(0.00110912 -3.03941e-05 5.20157e-15 -0.000475634 2.5154e-15 0)
(0.000644761 -0.000211454 -2.12027e-15 -0.000258708 -5.35962e-16 0)
(0.000563117 -8.078e-05 4.18502e-16 -0.000232574 6.50169e-16 0)
(0.000574362 -7.23492e-05 6.51389e-16 -0.000229515 2.24647e-16 0)
(0.000246217 -0.000191281 -5.10009e-16 -4.56252e-05 8.66828e-17 0)
(0.000371923 -0.000300011 -6.1149e-17 -0.00021259 6.92941e-17 0)
(0.000391749 -8.6146e-05 8.59555e-16 -0.000277556 2.1207e-16 0)
(0.000880838 -8.57689e-05 2.45897e-16 -0.000368217 -1.25412e-15 0)
(0.000812537 -9.29782e-05 -6.40547e-16 -0.000354307 -3.30085e-16 0)
(0.000676621 -0.000227614 6.42281e-16 -0.000280536 -3.48408e-16 0)
(0.000159901 -0.000114429 4.96998e-16 -0.000345897 -4.26959e-16 0)
(0.000467168 -0.000132731 -6.44883e-16 -0.000114645 3.1946e-16 0)
(0.00133926 -1.98332e-05 -4.30211e-15 -0.000594214 -2.47979e-15 0)
(0.000972946 -0.000196666 -2.51296e-15 -0.000446529 -2.39663e-16 0)
(0.000510935 -1.0031e-05 -1.23165e-16 -0.000199893 -4.05478e-16 0)
(0.000693741 -0.000257076 4.72712e-17 -0.00029125 -9.28944e-16 0)
(0.000694226 -0.000225568 1.40881e-15 -0.000448859 3.2203e-15 0)
(0.000550034 -0.000151982 -4.64039e-17 -0.000206344 -2.59124e-17 0)
(0.0010875 0.00031088 2.31916e-15 -0.000232964 2.91e-15 0)
(0.000529005 -1.58985e-05 -1.01048e-16 -0.000218726 2.10932e-16 0)
(0.00108405 0.000281366 1.9977e-15 -0.000385318 1.86504e-15 0)
(0.000403835 -6.75041e-05 -1.43115e-15 -5.94678e-05 3.27736e-16 0)
(0.000387893 -5.57023e-05 -1.71087e-15 -5.47304e-05 3.80968e-16 0)
(0.000418312 -3.7766e-06 -7.74988e-16 1.69496e-05 5.71702e-16 0)
(0.000523015 -1.09121e-06 -2.77989e-16 -0.000225862 1.77755e-16 0)
(0.000421078 -0.000115483 1.30885e-15 -7.69827e-05 -1.90508e-16 0)
(0.000255983 -0.000229025 4.39752e-16 -6.55032e-05 2.92037e-16 0)
(0.000603176 -0.000130561 -1.56602e-15 -0.00041512 1.69797e-15 0)
(0.00166929 0.000379552 3.1006e-15 -0.00063762 2.26251e-15 0)
(0.000713458 -3.84855e-05 2.10335e-16 -0.00031528 -4.22785e-16 0)
(0.000624501 -0.00015351 1.22537e-15 -0.000409755 2.53205e-15 0)
(0.000776251 -0.000123867 -3.48679e-16 -0.000467945 2.46168e-15 0)
(0.00027867 -0.00018062 -1.94289e-16 -4.66449e-05 2.2188e-16 0)
(0.00205933 0.000356361 -3.09984e-15 -0.00103609 1.80346e-15 0)
(0.000506395 -0.000121996 -3.87711e-16 -0.000153948 2.61062e-16 0)
(0.000193771 -0.000161284 4.48426e-16 -4.01385e-05 1.22842e-16 0)
(0.000485495 -1.41693e-05 6.21031e-16 -0.000146235 2.63712e-16 0)
(0.000172093 -0.00015562 4.87457e-16 -3.71252e-05 1.90457e-16 0)
(0.000185613 -0.000139834 5.65954e-16 -3.49157e-05 5.3114e-17 0)
(0.000866197 -0.000162978 8.96418e-16 -0.000374163 -1.03606e-15 0)
(0.000383132 -6.56422e-05 1.25767e-17 -0.000406248 1.67184e-16 0)
(0.00055281 -0.00028891 1.99493e-15 -0.000210037 -9.81975e-16 0)
(0.000524294 -2.21667e-05 -2.54137e-16 -0.000209922 -5.12096e-16 0)
(0.000427594 -6.07432e-06 1.08854e-16 -8.91421e-06 -1.18156e-16 0)
(0.000522038 -1.03244e-06 -6.22766e-16 -0.000222937 -6.55942e-17 0)
(0.000478251 -0.000152499 1.10328e-15 -0.000141589 1.35376e-16 0)
(0.00021233 -0.000242573 -1.16226e-16 -0.000183552 -3.15503e-16 0)
(0.00159495 0.000490619 -3.41242e-15 -0.00064108 2.73024e-15 0)
(0.00114968 2.49558e-05 4.70153e-15 -0.000597348 -2.86359e-15 0)
(0.00101185 -0.000104979 2.53682e-15 -0.000430154 -7.87619e-16 0)
(0.000674967 -6.71951e-05 1.3314e-16 -0.000285138 7.38098e-16 0)
(0.000269438 0.00018489 -4.77049e-16 -0.000613749 -2.1259e-15 0)
(0.000170645 0.000164391 9.97466e-18 -0.000595635 -2.16081e-16 0)
(0.000306229 -0.000210134 3.09648e-16 -6.71742e-05 9.80695e-17 0)
(0.000612799 -9.19238e-05 1.07553e-15 -0.000259182 1.03072e-15 0)
(0.000494804 -0.000305526 -4.43656e-16 -0.000282926 1.17479e-15 0)
(0.000848133 8.89962e-06 8.23018e-16 -0.000273315 1.48362e-15 0)
(0.000300698 -0.000278417 6.40113e-16 -0.000117664 1.98131e-16 0)
(0.000734761 -5.59403e-05 5.55545e-16 -0.000318758 3.26236e-16 0)
(0.000474861 -0.000147069 6.31006e-16 -0.000125239 2.67825e-16 0)
(0.000336944 -0.000272084 1.75641e-16 -0.000118099 1.13855e-16 0)
(9.21797e-05 1.74285e-05 -3.26562e-16 -0.00036486 -3.33988e-16 0)
(0.00135407 1.69558e-05 2.64534e-15 -0.000583921 -4.43656e-16 0)
(0.000179845 -0.00011857 9.15067e-17 -1.65236e-05 1.80117e-17 0)
(0.000598528 -0.000118764 -1.11022e-16 -0.000243981 -1.36558e-15 0)
(0.00017254 -0.000187493 -2.73219e-17 -0.000155172 -2.59043e-16 0)
(0.000914143 -0.000212893 2.84863e-15 -0.000418912 -1.09223e-15 0)
(0.000464195 -1.80797e-05 -1.39212e-15 -7.96338e-05 -2.08885e-16 0)
(0.000484718 -0.0001719 -1.97542e-15 -0.000135917 -5.87095e-16 0)
(0.000420931 -8.98857e-06 1.2464e-15 -3.26657e-05 -6.33285e-16 0)
(0.000536489 -1.00912e-05 -8.39172e-16 -0.000229167 1.65693e-15 0)
(0.000924653 -0.000150039 -4.45716e-15 -0.000394036 8.93925e-16 0)
(0.000152203 -0.000159602 -3.59955e-17 -0.000119829 -9.96788e-18 0)
(0.000517753 -1.79517e-06 -4.09828e-16 -0.000220306 -9.85215e-16 0)
(0.00054473 -0.000151081 1.29063e-15 -0.00019335 6.12127e-16 0)
(0.000997788 0.000329699 9.94755e-16 -0.000445264 -1.14557e-15 0)
(0.000516218 -0.000209447 1.8709e-15 -0.000173012 4.99099e-16 0)
(0.000417643 -0.00023971 -5.41234e-16 -0.000114702 -3.07026e-16 0)
(0.000483415 -0.000205064 9.80119e-16 -0.00015366 -4.14789e-16 0)
(0.000423948 -7.64984e-06 7.67181e-16 -1.97489e-05 1.31206e-16 0)
(0.000807474 0.000155381 -3.69919e-15 -0.000329731 -2.6049e-15 0)
(0.000632974 -0.000187535 -8.99454e-16 -0.000248585 3.46321e-16 0)
(0.000635937 -0.000232184 -1.00267e-15 -0.000246547 -4.44143e-16 0)
(0.000531337 -0.000212833 1.60375e-15 -0.00018379 4.22785e-16 0)
(0.00193011 0.000196013 -2.37934e-15 -0.00037904 5.19094e-15 0)
(0.000124042 -2.82142e-05 1.01915e-16 -2.23305e-05 -2.03586e-17 0)
(0.00102359 0.000127811 1.20216e-15 -0.00045779 -1.45869e-15 0)
(0.000376824 -0.000246581 7.60676e-16 -9.77108e-05 1.20109e-16 0)
(0.00170953 0.000289174 -3.32102e-15 -0.000925764 5.79831e-16 0)
(0.0001585 -5.74057e-05 5.40366e-16 -0.000372391 1.44443e-16 0)
(0.00146963 0.000444048 2.01445e-15 -0.00066347 -7.64363e-16 0)
(0.000621037 -0.000238656 8.08815e-16 -0.000249238 -5.57199e-16 0)
(0.00108222 -0.000104479 -4.67465e-15 -0.000496992 -1.9082e-17 0)
(0.00130874 2.24926e-05 2.73436e-15 -0.000758154 2.31694e-15 0)
(0.000485007 -0.00012468 -2.2031e-16 -0.000144329 1.19831e-16 0)
(0.000418659 -0.000147334 -8.51316e-16 -8.6364e-05 -1.27126e-16 0)
(0.000403359 -0.000152053 6.99961e-16 -8.63656e-05 -3.40578e-16 0)
(0.000104138 -0.000171977 -1.98626e-16 -8.9466e-05 -1.11402e-17 0)
(0.000159025 -0.000169637 -1.38344e-16 -9.1951e-05 8.66718e-17 0)
(0.000473552 -0.000166659 -9.71879e-16 -0.000138367 -1.00167e-16 0)
(0.000479151 -4.83554e-05 3.28296e-16 -0.000136013 -4.29663e-16 0)
(0.000446573 -0.000273117 1.0456e-15 -0.000141967 -6.49369e-17 0)
(0.000155607 -0.000134098 6.76542e-16 -3.52917e-05 -9.94213e-17 0)
(0.000429087 -2.43083e-05 -1.46801e-15 -2.37348e-05 -4.09193e-16 0)
(0.000519106 -1.64615e-05 -1.05038e-15 -0.000204468 6.35478e-16 0)
(0.000679648 -0.000125845 -7.09502e-16 -0.000278676 1.21404e-15 0)
(0.000341598 -1.2766e-05 -1.09071e-15 -3.63095e-05 -1.5298e-16 0)
(0.000492594 -4.44645e-05 -1.46324e-15 -0.000147229 -3.09228e-16 0)
(0.000561569 -0.00028211 1.32316e-15 -0.000209998 -1.18319e-15 0)
(0.00047785 -6.82037e-05 9.19837e-16 -0.000115181 -8.23831e-16 0)
(0.000398168 -0.000174982 4.36283e-16 -8.5118e-05 -8.31515e-17 0)
(0.00125477 0.000140355 3.56919e-16 -0.00055878 2.19659e-16 0)
(0.00121405 0.000204411 3.05008e-15 -0.00058509 -3.20707e-16 0)
(0.000555381 -0.000297171 -1.43982e-16 -0.000219597 -2.94009e-16 0)
(0.000154931 -0.000217404 -7.54605e-17 -0.000128949 7.79677e-17 0)
(0.000466068 -0.000282533 1.21908e-15 -0.000166969 6.87791e-17 0)
(0.000524005 -0.000298316 1.45283e-15 -0.000204806 -1.04211e-15 0)
(0.000143834 -0.000178264 -1.56125e-16 -7.70862e-05 -5.72594e-19 0)
(0.000442658 -6.46896e-05 1.41553e-15 -6.76471e-05 7.91268e-16 0)
(0.00051707 -5.46183e-05 1.17484e-15 -0.000181576 4.06711e-16 0)
(0.000172933 8.01298e-05 3.6169e-16 -0.000570282 4.18909e-16 0)
(0.00066217 -2.04503e-05 -1.92554e-16 -0.000284152 6.66622e-16 0)
(0.00042357 -1.47923e-05 -4.6187e-16 -3.57971e-06 -3.26762e-16 0)
(0.00052339 -5.50242e-06 -1.30104e-17 -0.000220272 3.08456e-17 0)
(0.000362505 -4.86407e-05 -1.92468e-15 -4.46664e-05 -3.64921e-16 0)
(0.000318431 0.000174886 -4.60135e-16 -0.000711359 1.35081e-15 0)
(0.000256375 -0.000185783 5.9848e-17 -4.83233e-05 2.01096e-16 0)
(0.00113402 -7.29981e-05 -2.56609e-15 -0.000490951 -2.04448e-15 0)
(0.000445014 -5.447e-05 9.05092e-16 -5.91381e-05 5.46702e-16 0)
(0.000515123 -4.8149e-05 1.24683e-15 -0.000195523 4.35009e-16 0)
(0.000577949 -0.00031106 1.03259e-15 -0.0002619 -2.52118e-16 0)
(0.000199884 4.25347e-06 1.06339e-15 -0.000522039 -8.21554e-17 0)
(0.00063267 -0.000273945 5.76362e-16 -0.00026112 -4.84205e-16 0)
(0.000414288 -0.000306062 -8.07514e-16 -0.000253684 2.41858e-16 0)
(0.000257049 -0.000104346 -9.06393e-17 -2.19848e-05 -1.43981e-16 0)
(0.000649343 -0.000163341 -1.61546e-15 -0.000270433 1.02809e-15 0)
(0.000618178 -0.000209988 -7.45931e-17 -0.000241338 -2.08763e-16 0)
(0.000589259 -0.00042173 -4.9767e-15 -0.000375999 1.52287e-15 0)
(0.00037047 -0.000262897 8.62591e-16 -0.000106197 4.79946e-16 0)
(0.000238743 3.30738e-05 -4.4062e-16 -0.000669972 4.52925e-16 0)
(0.000128886 -0.000123555 1.80845e-16 -0.000230821 -3.06639e-16 0)
(0.000452321 -6.79418e-05 1.10285e-15 -7.78388e-05 1.01888e-15 0)
(0.000444059 -0.000188382 -3.72966e-16 -0.000354794 -6.92155e-16 0)
(0.000535134 -0.000219536 1.2039e-15 -0.000183715 4.29236e-16 0)
(0.000628679 -0.000128169 8.46111e-16 -0.000249391 7.37257e-18 0)
(0.000678092 -0.000160831 -6.94323e-16 -0.000271422 8.00114e-16 0)
(5.94584e-05 0.000258047 -1.96024e-16 -0.000336477 -5.35596e-16 0)
(0.00152984 -0.000331808 -2.97819e-15 -0.0010508 1.35395e-15 0)
(0.000409307 -0.000249948 6.41848e-17 -0.000114137 -4.637e-17 0)
(0.000595511 -0.000146297 -1.29952e-15 -0.000433258 1.41553e-15 0)
(0.000480422 -0.000237397 -5.76796e-17 -0.000386258 -8.05779e-16 0)
(0.00175966 3.12774e-05 -3.0785e-15 -0.00034442 1.96067e-15 0)
(0.00197031 -0.0003877 -1.97325e-15 -0.00106373 -2.39153e-15 0)
(0.000219095 -3.73847e-05 4.78784e-16 -0.00046894 1.52249e-16 0)
(0.0005197 -6.99136e-05 4.38885e-16 -0.000185355 2.40178e-16 0)
(0.000597325 -0.000121868 -7.11237e-16 -0.000233066 -1.50181e-15 0)
(0.000773513 -0.000246831 -7.60243e-16 -0.000330695 9.93454e-16 0)
(0.000725988 -0.000270325 -7.99708e-16 -0.00031837 5.55654e-18 0)
(0.000489692 -0.000233852 -1.44242e-15 -0.000150682 -4.66844e-16 0)
(0.000570329 9.58359e-05 4.69609e-16 -0.000235734 3.33501e-16 0)
(0.0011822 4.58372e-05 7.754e-15 -0.000663415 2.25297e-16 0)
(0.000185603 -0.000114432 1.9559e-16 -1.67189e-05 1.32211e-16 0)
(0.000423558 -5.39219e-06 -1.21431e-16 -2.18809e-08 -2.25932e-16 0)
(0.000521216 -9.56366e-07 6.47486e-16 -0.000222137 -2.09549e-16 0)
(0.000520573 -6.11337e-05 9.7795e-16 -0.000192065 3.62096e-16 0)
(0.000264151 -0.00027579 4.88325e-16 -0.000155353 2.75523e-16 0)
(0.00141182 -0.00114525 -1.525e-14 -0.000522663 1.42876e-15 0)
(0.000535157 -0.000270466 -2.67928e-15 -0.000348116 -1.26933e-15 0)
(0.000393333 -0.000218918 -3.17454e-16 -9.5411e-05 -2.84075e-16 0)
(0.000374302 -0.000257094 8.6953e-16 -0.000109672 1.60601e-16 0)
(0.000329521 -0.000239059 5.21718e-16 -7.97064e-05 5.34241e-17 0)
(0.000521616 -3.03051e-06 -9.20704e-16 -0.000219489 -9.3919e-17 0)
(0.000162504 -0.000131258 1.17961e-16 -0.000279735 -3.21683e-16 0)
(0.000472157 -7.42394e-05 9.04658e-16 -0.000121258 -6.62915e-16 0)
(0.000261788 -0.000245942 4.57533e-16 -0.000155552 5.19814e-16 0)
(0.000457363 -1.54477e-05 -1.41293e-15 -7.9214e-05 1.60953e-16 0)
(0.00179512 -0.000231615 -3.81184e-15 -0.00112728 -6.58978e-16 0)
(0.00051162 -6.3164e-05 6.25368e-16 -0.000190489 2.6155e-16 0)
(0.000431249 -1.2335e-05 2.07299e-16 -1.96179e-05 2.82279e-16 0)
(0.00193173 -8.66402e-05 -3.47942e-15 -0.0010605 3.4083e-15 0)
(0.000388087 -0.000113977 -7.98406e-16 -6.35151e-05 5.05187e-17 0)
(0.000441476 -6.09327e-05 9.4369e-16 -6.73337e-05 7.58782e-16 0)
(0.00132127 6.08046e-05 -1.46584e-15 -0.000574673 -7.54171e-16 0)
(0.000312363 -0.000376642 -6.15263e-15 -0.000228023 2.21307e-15 0)
(0.00042707 -0.000126651 1.68051e-15 -9.00698e-05 -1.72971e-16 0)
(0.000131399 -0.000179077 1.92988e-16 -0.000204927 -5.32276e-16 0)
(0.00077286 -0.000147031 5.21718e-16 -0.000317079 8.4332e-16 0)
(0.000812197 -0.000236743 -3.62774e-15 -0.000352706 2.57769e-16 0)
(0.00050084 -0.000145906 8.51316e-16 -0.000155986 1.38927e-16 0)
(0.000493339 -0.000151259 7.64146e-16 -0.000148868 2.17599e-16 0)
(0.000489916 -0.000231588 -1.16834e-15 -0.000162687 -3.70411e-16 0)
(0.000616042 0.000260779 -2.80951e-16 -0.000209948 -2.13805e-16 0)
(0.000662987 -4.76277e-05 1.85615e-16 -0.000289331 8.77011e-16 0)
(9.73308e-05 -2.83329e-05 6.59195e-17 -3.75542e-05 4.18743e-17 0)
(0.000730445 -0.000171799 -1.97715e-15 -0.000308667 1.50195e-15 0)
(0.000389453 -0.000164748 2.07733e-16 -0.000365517 8.02797e-16 0)
(0.0005013 -0.000200065 1.18438e-15 -0.000167631 -3.48666e-16 0)
(0.00132811 -5.48791e-05 -2.52825e-15 -0.000576447 -1.53122e-15 0)
(0.000160087 -7.86788e-05 -4.0766e-17 -1.10524e-05 4.09744e-17 0)
(0.00116578 0.000124307 8.37221e-16 -0.000486818 -9.53881e-16 0)
(0.000477248 -0.000296877 -7.41161e-16 -0.000201045 3.12996e-16 0)
(0.000310485 -0.000118796 -3.2049e-16 -3.42564e-05 4.47902e-16 0)
(0.000285567 -0.000122364 -2.49366e-16 -3.13499e-05 3.16394e-16 0)
(0.0012447 0.000512749 4.56774e-16 -0.00044908 1.27285e-15 0)
(0.000818844 -0.000217812 -3.03273e-15 -0.000358683 -8.82053e-16 0)
(0.000873918 -0.000183288 9.75782e-16 -0.000363033 -9.81528e-16 0)
(0.000457688 -0.000138658 -5.34729e-16 -0.000117088 4.88481e-16 0)
(0.00462363 -0.000822783 -2.1542e-14 -0.00241806 -3.33631e-15 0)
(0.000503913 -0.000318883 -1.34875e-16 -0.000221702 5.12394e-16 0)
(0.000387273 -0.000132534 -7.1991e-17 -7.37629e-05 -2.40852e-16 0)
(0.000457171 -0.000258134 9.80986e-16 -0.00029715 -9.35097e-16 0)
(0.000421163 -3.75679e-06 1.22428e-15 7.87528e-06 -7.93042e-16 0)
(0.000521058 1.02023e-06 -5.0307e-17 -0.000223122 2.1947e-16 0)
(0.000943471 -7.36939e-05 4.00916e-15 -0.0005718 -4.0303e-15 0)
(0.000721524 -0.000259114 3.67761e-16 -0.000296458 -7.27608e-16 0)
(0.000420768 -0.00027994 4.6187e-16 -0.000135773 1.72842e-16 0)
(0.000152432 -0.000152338 4.00287e-16 -0.000310457 -4.91171e-16 0)
(0.000763613 -2.91957e-05 3.79514e-15 -0.000333112 5.27627e-16 0)
(0.000991231 -0.000236202 -3.01733e-15 -0.000743503 1.07813e-15 0)
(0.00126254 -0.000219275 -3.70255e-15 -0.000752544 1.14058e-16 0)
(0.000222758 3.83528e-05 5.57714e-16 -0.000469827 4.55907e-17 0)
(0.000427342 -0.000209602 4.06793e-16 -0.000371989 5.10713e-16 0)
(0.000527242 -0.000311695 4.03757e-16 -0.000215383 -5.65493e-16 0)
(0.000555104 -0.00012342 4.63605e-16 -0.000201551 1.69949e-16 0)
(0.000648557 -0.000280371 -2.05391e-15 -0.000283564 6.91884e-16 0)
(0.000638474 -0.00030403 -3.70797e-16 -0.000293929 -6.54316e-17 0)
(0.000541349 -2.05868e-05 -1.41684e-15 -0.000231175 1.36338e-16 0)
(0.0057284 -0.000354256 -1.07051e-14 -0.00454897 9.56266e-17 0)
(0.000505557 -0.000159524 -6.49654e-16 -0.00041471 6.39571e-16 0)
(0.000485534 -3.82724e-05 -3.11817e-16 -0.000152651 -3.57129e-16 0)