/*--------------------------------*- C++ -*----------------------------------*\
| =========                 |                                                 |
| \\      /  F ield         | OpenFOAM: The Open Source CFD Toolbox           |
|  \\    /   O peration     | Version:  v2012                                 |
|   \\  /    A nd           | Website:  www.openfoam.com                      |
|    \\/     M anipulation  |                                                 |
\*---------------------------------------------------------------------------*/
FoamFile
{
    version     2.0;
    format      ascii;
    class       pointSymmTensorField;
    location    "17";
    object      pEpsilon;
}
// * * * * * * * * * * * * * * * * * * * * * * * * * * * * * * * * * * * * * //

dimensions      [0 0 0 0 0 0 0];


internalField   nonuniform List<symmTensor> 
2014
(
(0.00030941 -1.16173e-05 1.43115e-16 -0.00100455 0 0)
(0.000418448 -5.16466e-06 1.71412e-15 2.70875e-05 0 0)
(0.000520395 9.08278e-07 -7.12321e-16 -0.000224097 1.10033e-15 0)
(0.000132403 0.000120229 0 -8.26989e-05 1.07336e-16 0)
(0.00668448 -0.000359712 0 -0.00614496 -3.4939e-14 0)
(0.00030941 -1.16173e-05 1.43115e-16 -0.00100455 0 0)
(0.000418448 -5.16466e-06 1.71412e-15 2.70875e-05 0 0)
(0.000520395 9.08278e-07 -7.12321e-16 -0.000224097 1.10033e-15 0)
(0.000132403 0.000120229 0 -8.26989e-05 1.07336e-16 0)
(0.00668448 -0.000359712 0 -0.00614496 -3.4939e-14 0)
(0.000246116 -1.21532e-05 -9.04225e-16 -0.000719778 0 0)
(0.000162154 -1.96788e-05 5.97395e-16 -0.000510752 0 0)
(9.67453e-05 -2.83759e-05 -2.6563e-16 -0.000365242 0 0)
(6.08867e-05 -3.10215e-05 -1.0842e-17 -0.000246164 0 0)
(5.27559e-05 -3.02115e-05 -1.30104e-17 -0.000172344 0 0)
(5.76295e-05 -2.61982e-05 -2.81893e-17 -0.00011508 0 0)
(6.5556e-05 -3.09644e-05 8.45678e-17 -7.10284e-05 0 0)
(7.96155e-05 -2.43037e-05 1.73472e-16 -4.13596e-05 0 0)
(0.000105465 -2.66137e-05 -1.73472e-16 -2.39294e-05 0 0)
(0.000124928 -2.63757e-05 -2.25514e-16 -1.05072e-05 0 0)
(0.000146938 -1.8301e-05 -2.23346e-16 -3.12386e-06 0 0)
(0.00017513 -1.58411e-05 -3.7405e-16 7.33869e-07 0 0)
(0.000196524 -1.22733e-05 -2.28767e-16 1.3711e-07 0 0)
(0.000223598 -1.25694e-05 1.17419e-15 -3.91829e-06 0 0)
(0.000243712 -1.41514e-05 5.91974e-16 -8.63725e-06 0 0)
(0.000269447 -1.52379e-05 1.00722e-15 -1.19722e-05 0 0)
(0.000291044 -1.77893e-05 4.55365e-17 -1.99825e-05 0 0)
(0.000311659 -1.30491e-05 -1.14275e-15 -2.66599e-05 0 0)
(0.000330484 -1.01531e-05 -1.20889e-15 -3.34232e-05 0 0)
(0.00035179 -9.37633e-06 -2.14889e-15 -3.99987e-05 0 0)
(0.000369925 -8.22688e-06 3.18755e-15 -4.55682e-05 0 0)
(0.000384804 -1.02426e-05 1.48644e-15 -4.84504e-05 0 0)
(0.000396912 -1.07288e-05 -8.52183e-16 -5.0378e-05 0 0)
(0.000408382 -6.67859e-06 -5.48606e-16 -4.99801e-05 0 0)
(0.000417838 -5.61871e-06 2.01336e-15 -4.77291e-05 0 0)
(0.000425666 -6.772e-06 -1.28478e-15 -4.19685e-05 0 0)
(0.000427059 -9.34287e-06 2.79941e-15 -3.12444e-05 0 0)
(0.00042522 -5.53504e-06 -1.31514e-15 -1.57936e-05 0 0)
(0.000422556 -3.37224e-06 -1.03758e-15 4.01679e-06 0 0)
(0.000421611 -4.05407e-07 2.79724e-15 2.48997e-05 -1.13211e-15 0)
(0.000423938 -2.02339e-06 -8.89046e-17 1.78511e-05 -1.68265e-16 0)
(0.000426677 -6.93257e-06 -9.26993e-16 1.07998e-05 1.33151e-15 0)
(0.000429884 -5.75876e-06 4.66207e-17 1.10707e-06 6.79829e-17 0)
(0.000438065 -8.90694e-06 -2.48174e-15 -1.61327e-05 -4.99059e-16 0)
(0.000442733 -1.13692e-05 3.18755e-16 -3.02749e-05 -4.32753e-16 0)
(0.000447685 -1.01097e-05 2.91867e-15 -4.58546e-05 -6.69892e-16 0)
(0.000457525 -1.12994e-05 -2.02746e-15 -6.85032e-05 4.09246e-16 0)
(0.000466435 -1.37049e-05 -2.26598e-16 -9.05606e-05 -9.04618e-16 0)
(0.000475784 -1.09646e-05 -2.05998e-16 -0.000113359 4.13505e-16 0)
(0.000482766 -1.23345e-05 9.74698e-16 -0.000133758 1.05291e-15 0)
(0.000488389 -1.31587e-05 -6.00648e-16 -0.00015377 5.22619e-17 0)
(0.000499399 -9.44963e-06 -9.89877e-16 -0.000174318 5.23737e-16 0)
(0.000505147 -1.07139e-05 6.67869e-16 -0.000190264 -1.70321e-16 0)
(0.000510264 -7.79628e-06 -3.56703e-16 -0.000204266 -4.84876e-16 0)
(0.000516909 -4.6192e-06 -1.21539e-15 -0.000217002 9.12221e-16 0)
(0.000518667 -3.41865e-06 -2.58907e-15 -0.000222892 1.57548e-16 0)
(0.000521065 -1.4079e-08 2.17166e-15 -0.000225695 6.0058e-16 0)
(0.000521123 8.63842e-07 3.97902e-16 -0.000225157 2.17559e-15 0)
(0.000519018 4.6423e-07 1.1807e-15 -0.000223275 -3.1984e-16 0)
(0.000518415 2.10366e-07 -1.867e-15 -0.000223844 -1.59683e-15 0)
(0.000521186 -1.98568e-06 1.79002e-15 -0.000226501 -1.31324e-16 0)
(0.000526437 -4.29377e-06 7.52436e-16 -0.00022728 2.02475e-15 0)
(0.000539005 -7.11101e-06 9.20488e-16 -0.000232904 -2.88913e-15 0)
(0.000554125 -1.07303e-05 -1.59703e-15 -0.000240466 -1.04124e-15 0)
(0.000569867 -1.13663e-05 -4.97866e-15 -0.000245505 -8.67362e-16 0)
(0.000594839 -1.44371e-05 4.22188e-15 -0.000257824 -3.54046e-15 0)
(0.000618379 -1.36524e-05 3.83916e-15 -0.000264556 1.29427e-15 0)
(0.000646416 -1.64112e-05 9.5193e-16 -0.000276143 -9.02734e-16 0)
(0.000679985 -1.84719e-05 -2.27249e-15 -0.000291497 1.61668e-15 0)
(0.000710121 -2.02719e-05 1.76183e-15 -0.000301855 1.53631e-15 0)
(0.000744241 -2.69587e-05 5.32994e-15 -0.000314132 8.58959e-16 0)
(0.000786702 -2.26777e-05 2.06432e-15 -0.000332459 -4.31919e-16 0)
(0.000825698 -2.96676e-05 -4.30428e-16 -0.000349352 -2.56048e-15 0)
(0.000865304 -2.6166e-05 4.17635e-15 -0.000364136 -6.27441e-15 0)
(0.000917805 -2.08054e-05 -4.51679e-15 -0.000386197 2.97342e-15 0)
(0.000958682 -2.9245e-05 2.32887e-15 -0.000400932 -4.07118e-15 0)
(0.00100834 -2.52694e-05 1.56017e-14 -0.000423679 -1.43494e-15 0)
(0.00104724 -3.33395e-05 3.84675e-15 -0.000421972 -3.55618e-16 0)
(0.00111519 -2.95574e-05 4.14165e-15 -0.000468647 2.79006e-15 0)
(0.00115783 -2.93449e-05 4.20887e-15 -0.000475963 3.37919e-15 0)
(0.00121275 -2.11119e-05 3.39355e-16 -0.000504864 -1.80872e-15 0)
(0.0012513 -2.23721e-05 -1.88272e-15 -0.000511931 -2.25189e-15 0)
(0.00131245 -4.41564e-06 -4.71628e-15 -0.000547778 1.28695e-15 0)
(0.00136824 -1.82722e-05 -7.80951e-15 -0.000576288 -3.24095e-15 0)
(0.00139652 -2.31871e-05 4.37584e-15 -0.000577996 -1.5973e-15 0)
(0.00143487 -1.17191e-05 -7.74988e-15 -0.000594359 -5.1936e-15 0)
(0.00143649 -2.35705e-05 1.04354e-15 -0.000591125 3.24773e-15 0)
(0.00142598 1.13604e-05 -2.40828e-15 -0.000583486 -5.18791e-16 0)
(0.0014152 1.1986e-05 5.27464e-16 -0.000580365 2.54788e-15 0)
(0.00134616 4.12427e-05 -3.24095e-15 -0.000555154 -3.16695e-15 0)
(0.00124898 7.47147e-05 -1.52005e-15 -0.000520218 -7.60568e-16 0)
(0.00112408 9.845e-05 1.97352e-15 -0.00049005 -2.12504e-16 0)
(0.000935063 0.000111209 3.23431e-16 -0.000431652 -3.25152e-15 0)
(0.000686878 0.000119746 -7.87365e-15 -0.00032776 -2.05565e-15 0)
(0.000502048 0.000117121 -3.73431e-15 -0.000289653 -1.36501e-15 0)
(0.000308293 4.55067e-05 6.19317e-16 -0.000209039 -5.43185e-16 0)
(0.00019216 2.63026e-05 4.60299e-16 -0.000198148 8.3592e-16 0)
(0.000551137 0.000135378 0 -0.00020086 -8.27246e-16 0)
(0.000894494 0.000127603 0 -0.000261145 -1.5645e-15 0)
(0.00111038 0.000119257 0 -0.000240127 -2.40476e-15 0)
(0.00140245 0.000125996 0 -0.000250187 6.70037e-15 0)
(0.00174751 0.000169213 0 -0.000314086 6.2591e-15 0)
(0.00246773 0.000164053 0 -0.00100848 1.11727e-14 0)
(0.00456661 3.64006e-06 0 -0.00298114 -8.82215e-15 0)
(0.00624283 -0.000224759 0 -0.00535693 2.32995e-15 0)
(0.00618839 -0.000557708 0 -0.00588894 1.52417e-14 0)
(0.00708465 -0.0015883 1.03154e-14 -0.00748047 -3.92031e-14 0)
(0.00611347 -0.00336677 -1.15484e-14 -0.00663648 -1.83547e-14 0)
(0.00284749 -0.00255978 2.86013e-15 -0.00171712 6.24988e-15 0)
(0.000712485 -0.000832174 -9.68409e-15 1.90516e-05 6.966e-16 0)
(0.000267981 -0.000304001 -4.33464e-15 -6.43054e-05 3.91939e-16 0)
(0.000205387 -0.00012391 -1.22623e-15 -7.48293e-05 7.4051e-16 0)
(0.000146746 -2.74983e-05 -2.82977e-16 -0.000125522 1.54119e-15 0)
(6.57086e-05 8.80087e-05 9.6494e-17 -0.000170976 1.13624e-15 0)
(3.45282e-05 0.000190806 2.28767e-16 -0.000261371 -2.90024e-17 0)
(4.51439e-05 0.000282582 -4.93312e-16 -0.000376779 -8.23994e-16 0)
(8.93588e-05 0.000345715 -1.63715e-16 -0.000522361 -1.53144e-16 0)
(0.000142353 0.000297939 -4.02022e-15 -0.000686153 2.02597e-15 0)
(0.00024491 0.000264208 -2.22261e-16 -0.000826029 -6.64331e-15 0)
(0.000303993 0.000238761 -3.33934e-16 -0.00093217 3.43028e-15 0)
(0.000354882 0.000122562 -1.05818e-15 -0.00102241 -1.59195e-15 0)
(0.000246116 -1.21532e-05 -9.04225e-16 -0.000719778 0 0)
(0.000162154 -1.96788e-05 5.97395e-16 -0.000510752 0 0)
(9.67453e-05 -2.83759e-05 -2.6563e-16 -0.000365242 0 0)
(6.08867e-05 -3.10215e-05 -1.0842e-17 -0.000246164 0 0)
(5.27559e-05 -3.02115e-05 -1.30104e-17 -0.000172344 0 0)
(5.76295e-05 -2.61982e-05 -2.81893e-17 -0.00011508 0 0)
(6.5556e-05 -3.09644e-05 8.45678e-17 -7.10284e-05 0 0)
(7.96155e-05 -2.43037e-05 1.73472e-16 -4.13596e-05 0 0)
(0.000105465 -2.66137e-05 -1.73472e-16 -2.39294e-05 0 0)
(0.000124928 -2.63757e-05 -2.25514e-16 -1.05072e-05 0 0)
(0.000146938 -1.8301e-05 -2.23346e-16 -3.12386e-06 0 0)
(0.00017513 -1.58411e-05 -3.7405e-16 7.33869e-07 0 0)
(0.000196524 -1.22733e-05 -2.28767e-16 1.3711e-07 0 0)
(0.000223598 -1.25694e-05 1.17419e-15 -3.91829e-06 0 0)
(0.000243712 -1.41514e-05 5.91974e-16 -8.63725e-06 0 0)
(0.000269447 -1.52379e-05 1.00722e-15 -1.19722e-05 0 0)
(0.000291044 -1.77893e-05 4.55365e-17 -1.99825e-05 0 0)
(0.000311659 -1.30491e-05 -1.14275e-15 -2.66599e-05 0 0)
(0.000330484 -1.01531e-05 -1.20889e-15 -3.34232e-05 0 0)
(0.00035179 -9.37633e-06 -2.14889e-15 -3.99987e-05 0 0)
(0.000369925 -8.22688e-06 3.18755e-15 -4.55682e-05 0 0)
(0.000384804 -1.02426e-05 1.48644e-15 -4.84504e-05 0 0)
(0.000396912 -1.07288e-05 -8.52183e-16 -5.0378e-05 0 0)
(0.000408382 -6.67859e-06 -5.48606e-16 -4.99801e-05 0 0)
(0.000417838 -5.61871e-06 2.01336e-15 -4.77291e-05 0 0)
(0.000425666 -6.772e-06 -1.28478e-15 -4.19685e-05 0 0)
(0.000427059 -9.34287e-06 2.79941e-15 -3.12444e-05 0 0)
(0.00042522 -5.53504e-06 -1.31514e-15 -1.57936e-05 0 0)
(0.000422556 -3.37224e-06 -1.03758e-15 4.01679e-06 0 0)
(0.000421611 -4.05407e-07 2.79724e-15 2.48997e-05 -1.13211e-15 0)
(0.000423938 -2.02339e-06 -8.89046e-17 1.78511e-05 -1.68265e-16 0)
(0.000426677 -6.93257e-06 -9.26993e-16 1.07998e-05 1.33151e-15 0)
(0.000429884 -5.75876e-06 4.66207e-17 1.10707e-06 6.79829e-17 0)
(0.000438065 -8.90694e-06 -2.48174e-15 -1.61327e-05 -4.99059e-16 0)
(0.000442733 -1.13692e-05 3.18755e-16 -3.02749e-05 -4.32753e-16 0)
(0.000447685 -1.01097e-05 2.91867e-15 -4.58546e-05 -6.69892e-16 0)
(0.000457525 -1.12994e-05 -2.02746e-15 -6.85032e-05 4.09246e-16 0)
(0.000466435 -1.37049e-05 -2.26598e-16 -9.05606e-05 -9.04618e-16 0)
(0.000475784 -1.09646e-05 -2.05998e-16 -0.000113359 4.13505e-16 0)
(0.000482766 -1.23345e-05 9.74698e-16 -0.000133758 1.05291e-15 0)
(0.000488389 -1.31587e-05 -6.00648e-16 -0.00015377 5.22619e-17 0)
(0.000499399 -9.44963e-06 -9.89877e-16 -0.000174318 5.23737e-16 0)
(0.000505147 -1.07139e-05 6.67869e-16 -0.000190264 -1.70321e-16 0)
(0.000510264 -7.79628e-06 -3.56703e-16 -0.000204266 -4.84876e-16 0)
(0.000516909 -4.6192e-06 -1.21539e-15 -0.000217002 9.12221e-16 0)
(0.000518667 -3.41865e-06 -2.58907e-15 -0.000222892 1.57548e-16 0)
(0.000521065 -1.4079e-08 2.17166e-15 -0.000225695 6.0058e-16 0)
(0.000521123 8.63842e-07 3.97902e-16 -0.000225157 2.17559e-15 0)
(0.000519018 4.6423e-07 1.1807e-15 -0.000223275 -3.1984e-16 0)
(0.000518415 2.10366e-07 -1.867e-15 -0.000223844 -1.59683e-15 0)
(0.000521186 -1.98568e-06 1.79002e-15 -0.000226501 -1.31324e-16 0)
(0.000526437 -4.29377e-06 7.52436e-16 -0.00022728 2.02475e-15 0)
(0.000539005 -7.11101e-06 9.20488e-16 -0.000232904 -2.88913e-15 0)
(0.000554125 -1.07303e-05 -1.59703e-15 -0.000240466 -1.04124e-15 0)
(0.000569867 -1.13663e-05 -4.97866e-15 -0.000245505 -8.67362e-16 0)
(0.000594839 -1.44371e-05 4.22188e-15 -0.000257824 -3.54046e-15 0)
(0.000618379 -1.36524e-05 3.83916e-15 -0.000264556 1.29427e-15 0)
(0.000646416 -1.64112e-05 9.5193e-16 -0.000276143 -9.02734e-16 0)
(0.000679985 -1.84719e-05 -2.27249e-15 -0.000291497 1.61668e-15 0)
(0.000710121 -2.02719e-05 1.76183e-15 -0.000301855 1.53631e-15 0)
(0.000744241 -2.69587e-05 5.32994e-15 -0.000314132 8.58959e-16 0)
(0.000786702 -2.26777e-05 2.06432e-15 -0.000332459 -4.31919e-16 0)
(0.000825698 -2.96676e-05 -4.30428e-16 -0.000349352 -2.56048e-15 0)
(0.000865304 -2.6166e-05 4.17635e-15 -0.000364136 -6.27441e-15 0)
(0.000917805 -2.08054e-05 -4.51679e-15 -0.000386197 2.97342e-15 0)
(0.000958682 -2.9245e-05 2.32887e-15 -0.000400932 -4.07118e-15 0)
(0.00100834 -2.52694e-05 1.56017e-14 -0.000423679 -1.43494e-15 0)
(0.00104724 -3.33395e-05 3.84675e-15 -0.000421972 -3.55618e-16 0)
(0.00111519 -2.95574e-05 4.14165e-15 -0.000468647 2.79006e-15 0)
(0.00115783 -2.93449e-05 4.20887e-15 -0.000475963 3.37919e-15 0)
(0.00121275 -2.11119e-05 3.39355e-16 -0.000504864 -1.80872e-15 0)
(0.0012513 -2.23721e-05 -1.88272e-15 -0.000511931 -2.25189e-15 0)
(0.00131245 -4.41564e-06 -4.71628e-15 -0.000547778 1.28695e-15 0)
(0.00136824 -1.82722e-05 -7.80951e-15 -0.000576288 -3.24095e-15 0)
(0.00139652 -2.31871e-05 4.37584e-15 -0.000577996 -1.5973e-15 0)
(0.00143487 -1.17191e-05 -7.74988e-15 -0.000594359 -5.1936e-15 0)
(0.00143649 -2.35705e-05 1.04354e-15 -0.000591125 3.24773e-15 0)
(0.00142598 1.13604e-05 -2.40828e-15 -0.000583486 -5.18791e-16 0)
(0.0014152 1.1986e-05 5.27464e-16 -0.000580365 2.54788e-15 0)
(0.00134616 4.12427e-05 -3.24095e-15 -0.000555154 -3.16695e-15 0)
(0.00124898 7.47147e-05 -1.52005e-15 -0.000520218 -7.60568e-16 0)
(0.00112408 9.845e-05 1.97352e-15 -0.00049005 -2.12504e-16 0)
(0.000935063 0.000111209 3.23431e-16 -0.000431652 -3.25152e-15 0)
(0.000686878 0.000119746 -7.87365e-15 -0.00032776 -2.05565e-15 0)
(0.000502048 0.000117121 -3.73431e-15 -0.000289653 -1.36501e-15 0)
(0.000308293 4.55067e-05 6.19317e-16 -0.000209039 -5.43185e-16 0)
(0.00019216 2.63026e-05 4.60299e-16 -0.000198148 8.3592e-16 0)
(0.000551137 0.000135378 0 -0.00020086 -8.27246e-16 0)
(0.000894494 0.000127603 0 -0.000261145 -1.5645e-15 0)
(0.00111038 0.000119257 0 -0.000240127 -2.40476e-15 0)
(0.00140245 0.000125996 0 -0.000250187 6.70037e-15 0)
(0.00174751 0.000169213 0 -0.000314086 6.2591e-15 0)
(0.00246773 0.000164053 0 -0.00100848 1.11727e-14 0)
(0.00456661 3.64006e-06 0 -0.00298114 -8.82215e-15 0)
(0.00624283 -0.000224759 0 -0.00535693 2.32995e-15 0)
(0.00618839 -0.000557708 0 -0.00588894 1.52417e-14 0)
(0.00708465 -0.0015883 1.03154e-14 -0.00748047 -3.92031e-14 0)
(0.00611347 -0.00336677 -1.15484e-14 -0.00663648 -1.83547e-14 0)
(0.00284749 -0.00255978 2.86013e-15 -0.00171712 6.24988e-15 0)
(0.000712485 -0.000832174 -9.68409e-15 1.90516e-05 6.966e-16 0)
(0.000267981 -0.000304001 -4.33464e-15 -6.43054e-05 3.91939e-16 0)
(0.000205387 -0.00012391 -1.22623e-15 -7.48293e-05 7.4051e-16 0)
(0.000146746 -2.74983e-05 -2.82977e-16 -0.000125522 1.54119e-15 0)
(6.57086e-05 8.80087e-05 9.6494e-17 -0.000170976 1.13624e-15 0)
(3.45282e-05 0.000190806 2.28767e-16 -0.000261371 -2.90024e-17 0)
(4.51439e-05 0.000282582 -4.93312e-16 -0.000376779 -8.23994e-16 0)
(8.93588e-05 0.000345715 -1.63715e-16 -0.000522361 -1.53144e-16 0)
(0.000142353 0.000297939 -4.02022e-15 -0.000686153 2.02597e-15 0)
(0.00024491 0.000264208 -2.22261e-16 -0.000826029 -6.64331e-15 0)
(0.000303993 0.000238761 -3.33934e-16 -0.00093217 3.43028e-15 0)
(0.000354882 0.000122562 -1.05818e-15 -0.00102241 -1.59195e-15 0)
(0.000496902 -0.000303182 -2.42753e-15 -0.000243865 1.88651e-16 0)
(0.000482774 -0.00019446 2.77122e-15 -0.000144751 -1.84077e-16 0)
(0.000831417 -0.000154319 1.23328e-15 -0.000474604 -5.7544e-16 0)
(0.000612598 -0.000258617 -1.57643e-15 -0.000237953 -5.17029e-17 0)
(0.000330064 -0.000222039 -5.42101e-17 -7.40436e-05 -1.3478e-16 0)
(0.000535858 -0.000106431 -3.01408e-16 -0.000195972 1.47716e-15 0)
(0.000438882 -0.000100666 -1.69678e-15 -8.35158e-05 -7.20825e-17 0)
(0.00144218 1.38168e-05 1.02728e-15 -0.00096409 -1.11022e-15 0)
(0.000214264 -0.00020914 -2.05998e-17 -0.000231899 -3.56567e-16 0)
(0.000853152 -0.000226715 1.84206e-15 -0.000394414 -3.9671e-15 0)
(0.000617937 -0.000172466 1.30104e-17 -0.000244395 -1.80364e-15 0)
(0.000368233 -0.000143326 4.74881e-16 -6.37815e-05 3.54543e-16 0)
(0.000206412 -0.0002087 -7.26415e-17 -7.32342e-05 -2.80597e-16 0)
(0.000452656 -0.000177752 4.90059e-16 -0.000377945 -9.32414e-16 0)
(0.000481377 -0.000102609 7.36173e-16 -0.000130253 -1.56976e-15 0)
(0.000807254 -0.000221453 -6.21573e-15 -0.000340798 -7.02834e-16 0)
(0.000467526 -0.000296302 -6.87384e-16 -0.000177178 -8.75832e-17 0)
(0.000467826 -0.000246642 -4.47775e-16 -0.000144813 -3.18654e-16 0)
(0.00115811 2.06194e-05 3.20273e-15 -0.000603027 -2.25622e-15 0)
(0.000706549 -0.000158872 1.92446e-16 -0.00046307 2.96909e-15 0)
(0.000724342 -0.000166313 -1.01915e-15 -0.000301187 1.06618e-15 0)
(0.000594656 -0.000104222 -1.06577e-15 -0.000240707 -1.60902e-15 0)
(0.0010692 -0.000110524 -4.72766e-15 -0.000487307 1.02484e-15 0)
(0.000610785 -0.000252908 -1.70328e-15 -0.000352615 2.74019e-15 0)
(0.000432919 -4.25128e-05 -4.91144e-16 -4.93608e-05 -3.77247e-16 0)
(0.000531075 -4.01546e-05 4.9548e-16 -0.000212605 2.20635e-16 0)
(0.000391993 -7.8155e-05 -7.45931e-16 -5.99269e-05 1.95385e-16 0)
(0.000280386 -0.000117679 -1.52873e-16 -2.74619e-05 -3.05842e-17 0)
(0.000547185 -0.000162327 4.34765e-16 -0.000197479 1.32611e-15 0)
(0.00134888 0.00043682 -4.31052e-15 -0.000558382 3.32633e-15 0)
(0.000465772 -0.00014302 -8.1532e-16 -0.000121517 5.41932e-16 0)
(0.000616709 -0.000294145 8.33751e-16 -0.000264476 -1.02627e-15 0)
(0.000206369 -0.000132137 -3.03577e-17 -2.06172e-05 1.4232e-16 0)
(0.00198937 -0.000477641 -2.17545e-15 -0.00114338 -9.00864e-15 0)
(0.000121893 -0.00014773 -9.97466e-17 -0.00010818 -2.8595e-16 0)
(0.000455384 -6.75096e-05 4.56883e-15 -8.32078e-05 -9.92723e-17 0)
(0.00050417 -6.7257e-05 -8.9013e-16 -0.000168665 2.08065e-16 0)
(0.000309509 -0.000278343 4.35849e-16 -0.000174373 4.94667e-17 0)
(0.000136011 -6.0822e-05 4.75965e-16 -0.000365905 6.23755e-17 0)
(0.000419653 -0.00013879 -2.33212e-15 -8.79617e-05 -5.18486e-16 0)
(0.000240721 -0.000104633 5.42101e-18 -0.000373842 1.03961e-15 0)
(0.000567942 -0.000230387 -9.69277e-16 -0.000210406 -1.33265e-15 0)
(0.000416297 -0.000273675 2.54788e-16 -0.00028159 -1.02362e-15 0)
(0.000416617 -0.0002005 -8.67362e-16 -0.00010271 -2.25023e-16 0)
(0.000972458 -0.00016783 -9.50845e-16 -0.000419204 -1.11104e-15 0)
(0.00128574 0.000277716 -8.31854e-16 -0.000648257 1.27068e-15 0)
(0.000330591 -0.000261503 8.66278e-16 -0.000106025 2.85984e-16 0)
(0.000831283 -0.000153294 1.42898e-15 -0.000351372 -2.38091e-15 0)
(0.00056502 -5.98312e-05 8.67362e-16 -0.000232203 -5.61549e-16 0)
(0.000443267 -8.00695e-05 7.80626e-16 -0.00036183 -2.25839e-15 0)
(0.000415618 -5.03185e-05 1.32815e-15 -5.81575e-05 9.29534e-17 0)
(0.000505746 -0.000140302 7.76289e-16 -0.000161428 -6.28498e-17 0)
(0.000692303 -0.000118781 -2.13154e-15 -0.000286467 1.33831e-16 0)
(0.000317005 -8.19996e-05 8.78204e-17 -3.34676e-05 -2.93628e-16 0)
(0.000817399 -0.000207851 -2.395e-15 -0.000416182 -2.62512e-16 0)
(0.000667926 -0.000285626 1.52873e-15 -0.000323951 -1.4447e-16 0)
(0.00108418 -0.000131674 7.16658e-16 -0.000477251 7.80897e-16 0)
(0.000986975 -7.26984e-05 2.69262e-15 -0.000586642 -3.63587e-15 0)
(0.000349638 -0.000183427 2.01662e-16 -6.71779e-05 5.7334e-16 0)
(0.00063191 -0.000394064 -7.66694e-15 -0.000439922 2.47252e-15 0)
(0.00014908 -0.000117693 5.58364e-16 -3.03316e-05 -1.83389e-16 0)
(0.000531112 -0.000205788 2.98698e-15 -0.000182753 3.50468e-16 0)
(0.000507193 -0.000279101 3.22116e-15 -0.000178076 -4.06542e-16 0)
(0.00065026 -0.000169503 -3.76543e-15 -0.000436729 1.867e-15 0)
(0.0007713 -0.000254837 -4.53197e-16 -0.000339763 4.43506e-16 0)
(0.00121021 -2.36338e-05 -3.88036e-15 -0.000549194 -2.10335e-16 0)
(0.000406863 -0.00029602 1.29996e-15 -0.000169094 5.75203e-16 0)
(0.000677009 -0.000266651 1.58402e-15 -0.000279151 -7.74527e-16 0)
(0.000644388 -8.18448e-05 5.80048e-16 -0.000269855 7.4959e-16 0)
(0.00208792 0.000275451 7.20005e-15 -0.000907709 1.98084e-15 0)
(0.000472854 -6.31437e-05 2.21177e-16 -0.000109777 -6.6675e-16 0)
(0.000303018 -4.27843e-05 -4.87891e-16 -0.000392066 4.1281e-16 0)
(0.000957251 -0.000129519 -2.8688e-15 -0.000414034 1.52493e-15 0)
(0.000353642 -6.35889e-05 -1.81604e-15 -4.50231e-05 -1.93293e-16 0)
(0.000462004 -0.000114523 -2.07083e-16 -0.000109164 9.50642e-16 0)
(0.000441256 -3.6216e-05 2.98481e-15 -4.47854e-05 -5.08711e-16 0)
(0.000514089 -4.05302e-05 1.22623e-15 -0.00019303 2.54313e-16 0)
(0.000985649 -0.000107476 -4.65936e-15 -0.000503072 -1.22623e-15 0)
(0.000411043 -0.000265231 1.05384e-15 -0.000125479 5.52435e-17 0)
(8.32992e-05 -8.67914e-05 3.25261e-18 -0.000207898 1.8262e-17 0)
(0.000716596 -0.000219826 2.69966e-16 -0.000294143 -7.65243e-16 0)
(0.000393054 -0.000233409 -1.64799e-16 -0.000102914 -7.20232e-16 0)
(0.000227452 -8.32977e-05 -8.5652e-17 -1.11561e-05 2.02918e-16 0)
(0.000259626 -0.000205388 5.20417e-17 -5.45454e-05 9.92045e-17 0)
(0.000427471 -1.45301e-05 -1.00397e-15 -1.86564e-05 -5.74119e-16 0)
(0.000524729 -7.76031e-06 1.4962e-16 -0.000219951 1.35003e-15 0)
(0.000640469 -0.000202148 -1.88651e-16 -0.000254871 5.45557e-16 0)
(0.00050344 -0.000111074 -2.36356e-16 -0.000159822 1.34299e-15 0)
(0.000433887 -0.00017779 -3.03902e-15 -0.000106696 1.9973e-16 0)
(0.000563262 -0.000291081 -2.01662e-16 -0.000219801 -2.33707e-15 0)
(0.000491065 -0.000224012 -8.45678e-16 -0.000154568 5.64632e-16 0)
(0.000487502 -5.16189e-05 -1.21539e-15 -0.000140851 -2.44623e-16 0)
(0.000195253 -0.000225336 -2.3744e-16 -0.00014846 -2.78674e-17 0)
(0.000587485 -0.00014864 -1.60462e-15 -0.00022774 -6.44423e-16 0)
(0.00125559 0.000119047 -2.6563e-15 -0.00058491 7.23705e-16 0)
(0.000360321 -0.000208686 -2.38524e-17 -0.00033517 8.74545e-16 0)
(0.000441547 -6.88398e-05 3.09648e-15 -7.07486e-05 8.1914e-16 0)
(0.000524591 -7.14608e-05 3.25261e-16 -0.000192888 -5.68529e-17 0)
(0.000560361 -0.000125823 9.1073e-17 -0.000213622 -1.68024e-15 0)
(0.000504368 -0.000170748 8.60857e-16 -0.000161385 -7.36444e-16 0)
(0.000392767 -9.38992e-05 1.57101e-15 -0.000264449 8.50015e-16 0)
(0.00113693 0.000371675 4.33234e-15 -0.000516447 1.0842e-18 0)
(0.000281707 -0.000178661 -1.74557e-16 -4.64506e-05 -5.07792e-16 0)
(0.000822753 0.000229234 1.70498e-15 -0.000267703 2.34188e-16 0)
(0.000810082 -9.78946e-05 1.36935e-15 -0.000343776 8.98126e-16 0)
(0.00123362 7.82402e-05 1.11407e-14 -0.00072009 -2.09847e-15 0)
(0.000986427 -0.000201941 -3.11545e-15 -0.000630675 4.68646e-15 0)
(0.00051209 -0.00029267 -1.65016e-15 -0.000287122 5.70019e-16 0)
(0.000588878 -0.000219104 -7.38342e-16 -0.000394481 3.895e-16 0)
(0.000300865 -0.000267352 4.36933e-16 -0.000124137 4.56432e-16 0)
(0.000592008 -5.8598e-05 -9.82287e-16 -0.000248787 -6.11693e-16 0)
(0.0007814 -0.00013565 2.23346e-15 -0.000480865 3.67707e-15 0)
(0.000545776 -3.02594e-05 -1.98951e-15 -0.000228503 8.73189e-16 0)
(0.000497928 -0.00030435 -1.27827e-15 -0.000205328 3.52976e-16 0)
(0.000103951 -9.41669e-05 4.87891e-17 -5.77176e-05 -4.4952e-17 0)
(0.000415802 -7.88423e-05 6.77626e-16 -6.67788e-05 -1.03476e-15 0)
(0.000183521 3.33261e-05 1.31622e-15 -0.000493606 -7.78593e-16 0)
(0.000423858 -2.79573e-05 2.50884e-15 -4.8105e-05 1.0186e-16 0)
(0.000393786 -3.98738e-05 -1.63389e-15 -5.23869e-05 3.79208e-16 0)
(0.00038809 -0.000123025 -1.35092e-15 -6.84733e-05 -2.03762e-16 0)
(0.0012051 -7.56762e-05 4.57967e-15 -0.000519938 -2.62106e-15 0)
(0.000278531 -6.29648e-05 2.72135e-16 -1.90964e-05 4.24423e-16 0)
(0.000942677 -0.000179498 -2.59992e-15 -0.000445175 -1.62725e-15 0)
(0.0014625 0.000311787 2.15214e-15 -0.000769547 -6.22874e-16 0)
(0.00494886 -0.00133026 -1.56673e-14 -0.00410072 -1.08691e-15 0)
(0.000438205 -0.000128871 2.46114e-15 -9.62647e-05 4.04204e-17 0)
(0.000760499 -8.0188e-05 -1.13191e-15 -0.000323243 7.51488e-16 0)
(0.000718985 -0.000210919 -2.43945e-16 -0.000401312 7.99599e-16 0)
(0.00180808 6.57918e-05 -1.31947e-15 -0.0010327 2.88181e-15 0)
(0.000325185 -0.000132027 -3.90313e-16 -4.46908e-05 3.62035e-16 0)
(0.00059566 -0.00030354 1.29454e-15 -0.000273564 5.60939e-16 0)
(0.000554691 -0.000256659 -4.86807e-16 -0.000202457 5.29429e-16 0)
(0.000546711 -7.72529e-05 -3.89229e-16 -0.00021316 -3.45725e-16 0)
(0.000191246 3.1906e-05 -2.42861e-16 -0.000583995 6.34157e-16 0)
(0.000482335 -0.000129188 -1.45066e-15 -0.000136235 3.87941e-16 0)
(0.000181177 -0.000133645 1.82146e-16 -0.000321698 -1.82824e-16 0)
(0.000129745 -0.000161146 1.09504e-16 -0.000183698 -2.87246e-16 0)
(0.000158849 -6.46465e-05 -7.58942e-18 -7.01864e-06 8.51872e-17 0)
(0.000299335 -0.000270198 5.09575e-17 -0.000220999 8.06375e-18 0)
(0.000406059 -0.000293135 -2.94903e-16 -0.000228324 -6.43067e-17 0)
(0.000466978 -0.000170187 -3.67328e-15 -0.000129069 2.76099e-16 0)
(0.00135388 0.000330478 2.58894e-15 -0.000362023 3.26779e-15 0)
(0.00115113 -0.000875385 -1.26071e-14 -0.000798271 2.86229e-16 0)
(0.00112504 -9.12414e-05 -5.1299e-15 -0.000489243 1.4718e-16 0)
(0.000428212 -6.57164e-05 4.42788e-15 -6.33256e-05 -2.49197e-17 0)
(0.000652774 -0.000226829 -2.46114e-16 -0.000258385 2.70915e-16 0)
(0.000433115 -2.23627e-05 -4.46258e-15 -2.52467e-05 8.69183e-17 0)
(0.000520022 -1.72858e-05 -1.56559e-15 -0.000209793 6.1481e-16 0)
(0.000403938 -0.000159629 2.11094e-15 -8.7153e-05 -1.11068e-15 0)
(0.000145336 -0.0001705 7.91468e-17 -7.20781e-05 -1.82451e-17 0)
(0.000628018 -0.000134815 1.11781e-15 -0.000254298 2.71728e-16 0)
(0.000215009 -0.000175991 3.07913e-16 -4.28825e-05 2.7753e-16 0)
(0.000931294 -0.000103077 -1.7499e-15 -0.00052997 -5.13966e-15 0)
(0.00138103 -0.000254002 -5.01227e-15 -0.000884896 1.84423e-15 0)
(0.000725883 -0.000266572 -5.19333e-16 -0.000313687 -2.271e-15 0)
(0.000933792 -9.97495e-05 1.25009e-15 -0.000399767 1.23003e-15 0)
(0.000457847 -3.97006e-05 2.36356e-16 -8.12127e-05 -1.00933e-15 0)
(0.000350562 -9.88382e-05 -7.75205e-16 -4.8553e-05 6.88384e-17 0)
(0.00287752 -0.000306487 -5.31828e-15 -0.00154983 2.06432e-15 0)
(0.000771767 -0.000216697 1.91795e-15 -0.000322918 8.3653e-16 0)
(0.000530126 -0.000141963 2.17057e-15 -0.000184886 -1.30917e-15 0)
(0.00071701 -0.000252442 -2.92192e-15 -0.000372553 -7.93365e-16 0)
(0.000939258 -0.000152015 2.32073e-15 -0.000465927 3.35561e-16 0)
(0.000500717 -3.36753e-05 -7.39426e-16 -0.000171633 5.65886e-16 0)
(0.000461293 -0.000237646 1.33574e-15 -0.000345978 -1.49091e-15 0)
(0.000567345 -9.3603e-05 2.36356e-16 -0.000227589 7.03105e-16 0)
(0.000410287 -0.000109589 1.71087e-15 -7.40894e-05 -5.60973e-16 0)
(0.000569326 -0.000182945 3.48029e-16 -0.000211198 4.35239e-16 0)
(6.55186e-05 -7.46859e-05 -2.49366e-17 -0.000108121 -6.36122e-17 0)
(0.000961964 -0.000178919 -1.37802e-15 -0.000421504 -1.46286e-15 0)
(0.000466983 -8.78975e-05 -1.25225e-15 -0.000108707 4.33613e-16 0)
(0.000860612 -0.000215609 -6.90203e-15 -0.000374582 1.58809e-15 0)
(8.88022e-05 -5.4777e-05 9.6494e-17 -0.00033035 -8.20606e-16 0)
(0.000494872 -8.52741e-05 1.42356e-15 -0.000149085 6.451e-17 0)
(0.000581532 -0.000206695 -2.78857e-15 -0.000216025 -1.12215e-15 0)
(0.000378068 -0.000176333 -1.40946e-17 -7.66101e-05 7.05036e-16 0)
(0.000600978 -0.00013132 -2.73111e-15 -0.000421361 7.53249e-16 0)
(0.000396515 -0.00027678 -4.17418e-16 -0.000133013 3.32647e-16 0)
(0.000197571 6.15424e-05 1.79978e-16 -0.000432168 -7.07442e-17 0)
(0.000452635 -9.10483e-05 -1.93313e-15 -9.10936e-05 -6.41373e-17 0)
(0.000232911 -0.000238992 2.95987e-16 -0.000115388 -4.34748e-16 0)
(0.00105775 -9.8592e-05 -4.66966e-15 -0.000452494 1.76915e-15 0)
(0.00068539 -0.00015925 -5.42101e-17 -0.000281993 6.16369e-16 0)
(0.000455316 -0.000206411 9.40003e-16 -0.000130521 2.54008e-16 0)
(0.000377947 -0.000296288 6.70037e-16 -0.00018262 1.49816e-15 0)
(0.000258864 -0.000233749 6.09322e-16 -8.10873e-05 2.58328e-16 0)
(0.000684351 -5.97341e-05 -7.16658e-16 -0.000292451 1.02999e-16 0)
(0.000519796 -0.000243137 -1.1601e-16 -0.000177493 1.00167e-15 0)
(0.000260511 1.4448e-05 2.32019e-16 -0.000309146 5.76253e-16 0)
(0.000338113 -0.000135795 7.80626e-17 -0.000377923 1.1132e-15 0)
(0.000761233 -0.000259388 5.73543e-16 -0.000352866 1.18463e-15 0)
(0.000327778 -4.13879e-05 -8.54351e-16 -3.40201e-05 -2.04925e-16 0)
(0.000330304 -0.000202618 -2.86555e-15 -0.00017271 1.94831e-15 0)
(0.000620639 -5.20566e-05 1.89844e-15 -0.000263959 6.36427e-16 0)
(0.000432863 -0.000225013 -1.22515e-16 -0.000119854 1.32984e-16 0)
(0.00129848 2.86416e-05 3.5204e-15 -0.00058176 2.45247e-15 0)
(0.000861583 -0.000172834 5.2226e-15 -0.000366554 -9.95162e-16 0)
(0.0011982 0.000220671 5.17923e-15 -0.000557079 -9.49219e-16 0)
(0.000878781 0.00033348 3.22869e-15 -0.000360696 -1.21864e-15 0)
(0.00126608 -4.37402e-05 -2.85091e-15 -0.000545906 -2.27005e-15 0)
(0.000887371 -8.0915e-05 3.73616e-15 -0.000379791 -1.82783e-15 0)
(0.000451808 -0.000261702 1.5851e-15 -0.000143715 3.7632e-16 0)
(0.00051882 -0.000141887 -3.34151e-15 -0.000411439 1.04409e-15 0)
(0.000339756 -0.000251896 2.75387e-16 -9.52451e-05 1.13545e-16 0)
(0.000370208 -3.4541e-05 -6.72205e-17 -4.67705e-05 1.94172e-16 0)
(0.000524468 -0.000186344 2.3126e-15 -0.000176559 1.01949e-15 0)
(0.000515649 -9.4534e-05 -2.14672e-16 -0.000176838 -2.96665e-16 0)
(0.000567359 -3.21496e-05 9.82287e-16 -0.000241393 2.28712e-15 0)
(0.000767295 -0.000173782 -2.18792e-15 -0.000316317 2.74757e-15 0)
(0.000487518 -0.000153932 5.65954e-16 -0.000144888 1.63782e-16 0)
(0.000448559 -3.40784e-05 2.60209e-17 -5.5955e-05 1.55242e-15 0)
(0.000862987 -0.000221183 2.87856e-15 -0.000381736 -2.45992e-15 0)
(0.000321623 -0.000191254 3.68629e-17 -6.02841e-05 -4.05178e-17 0)
(0.000443438 -0.000151617 1.79544e-15 -0.000106818 -6.56027e-16 0)
(0.000612466 -0.000281991 -2.97288e-15 -0.000324861 4.76236e-16 0)
(0.000414534 -2.37808e-05 -1.24141e-15 -5.15224e-05 5.9622e-16 0)
(0.00111269 -4.30923e-05 -2.24376e-15 -0.000550721 -5.74627e-16 0)
(0.000680353 -0.000286266 -3.40439e-15 -0.000301447 2.6048e-15 0)
(0.000387725 -0.000207399 3.28513e-15 -9.29618e-05 7.01513e-17 0)
(0.000515844 -0.000119557 -1.48427e-15 -0.00017383 -8.94467e-16 0)
(0.0011925 -8.33916e-05 -6.90095e-16 -0.000514563 -1.47723e-16 0)
(0.000195888 -5.78441e-05 -2.00577e-16 -5.05261e-06 3.6992e-16 0)