/*--------------------------------*- C++ -*----------------------------------*\
| =========                 |                                                 |
| \\      /  F ield         | OpenFOAM: The Open Source CFD Toolbox           |
|  \\    /   O peration     | Version:  v2012                                 |
|   \\  /    A nd           | Website:  www.openfoam.com                      |
|    \\/     M anipulation  |                                                 |
\*---------------------------------------------------------------------------*/
FoamFile
{
    version     2.0;
    format      ascii;
    class       volSymmTensorField;
    location    "19";
    object      sigma;
}
// * * * * * * * * * * * * * * * * * * * * * * * * * * * * * * * * * * * * * //

dimensions      [1 -1 -2 0 0 0 0];


internalField   nonuniform List<symmTensor> 
1896
(
(1.3049e+07 -1.26111e+06 2.03396e-05 6.87704e+06 -7.7412e-06 5.97781e+06)
(1.37861e+07 -1.1534e+06 -2.07366e-05 1.0072e+06 1.13418e-05 4.43799e+06)
(1.18961e+07 -557563 -3.72465e-06 6.71586e+06 3.47753e-06 5.58357e+06)
(2.79919e+07 -1.0489e+07 -8.282e-06 -1.58171e+07 -4.92593e-05 4.72543e+06)
(1.26978e+07 -1.49323e+06 1.80628e-05 6.48922e+06 -4.65463e-06 5.7561e+06)
(1.22758e+07 -1.56681e+06 1.47585e-05 6.42913e+06 1.65932e-06 5.61147e+06)
(2.30739e+07 -1.22804e+07 6.52653e-05 -3.4273e+07 -4.04682e-05 -1.9577e+06)
(1.00233e+07 -2.61006e+06 9.29411e-06 5.38483e+06 5.83573e-07 4.62245e+06)
(745936 -4.38566e+06 -1.10455e-05 -5.53105e+06 1.28692e-05 -1.43553e+06)
(9.40565e+06 -2.05207e+06 3.59622e-06 5.6041e+06 -3.39982e-06 4.50292e+06)
(1.30871e+07 -172249 2.10869e-05 7.73402e+06 5.45672e-06 6.24633e+06)
(2.43847e+06 -3.73702e+06 3.75968e-06 3.12772e+06 3.00585e-06 1.66986e+06)
(2.52592e+06 -2.80234e+06 5.72125e-07 4.12282e+06 -4.21614e-07 1.99462e+06)
(1.77963e+06 -3.73719e+06 5.81466e-06 3.26223e+06 -1.1043e-06 1.51256e+06)
(2.603e+07 -7.05672e+06 -1.55875e-05 -1.29413e+07 -6.30126e-05 3.92659e+06)
(4.39155e+07 6.23572e+06 -5.7449e-05 -560334 0.000114769 1.30066e+07)
(1.74024e+07 -2.76941e+06 1.867e-05 650233 1.44239e-05 5.41579e+06)
(1.96426e+07 -2.69303e+07 -0.000103036 2.5386e+07 -8.91303e-05 3.28275e+07)
(1.89393e+07 -4.93345e+06 1.48986e-05 1.20161e+06 6.8541e-06 6.04226e+06)
(-1.55149e+07 1.16029e+07 -6.93556e-06 -1.14725e+07 -1.34566e-05 -8.09621e+06)
(-4.98353e+06 8.19167e+06 3.75151e-05 -3.67864e+07 -4.58817e-05 -1.2531e+07)
(1.37711e+07 -3.48737e+06 -2.20443e-05 2.45855e+06 2.3843e-06 4.86891e+06)
(4.09225e+07 -5.37083e+06 0.000158619 73671.6 -9.5145e-06 1.22989e+07)
(4.71008e+07 -4.98247e+06 7.01028e-05 469172 9.94067e-06 1.4271e+07)
(1.47605e+07 -2.22421e+06 -3.9932e-06 1.39922e+06 1.67341e-06 4.84791e+06)
(1.43691e+07 -2.12841e+06 -6.74874e-06 1.24598e+06 2.53673e-05 4.68453e+06)
(3.40068e+06 -1.91057e+06 2.51035e-06 4.52438e+06 -2.10123e-06 2.37752e+06)
(3.57695e+06 -1.76476e+06 3.30431e-06 4.64628e+06 -3.53765e-06 2.46697e+06)
(1.27723e+07 -1.14304e+06 2.38191e-05 7.28486e+06 -9.10894e-06 6.01714e+06)
(2.16311e+07 -7.0587e+06 1.76308e-05 1.55294e+06 1.94603e-05 6.95522e+06)
(1.92976e+07 -6.90188e+06 3.8274e-05 939509 1.72231e-05 6.07113e+06)
(1.36438e+07 -334506 1.51555e-05 242978 -2.27965e-05 4.16605e+06)
(-1.86623e+06 -2.13604e+06 -2.56873e-07 -893802 2.70236e-09 -828009)
(1.4111e+07 -981771 1.93238e-05 860080 -3.70203e-06 4.49133e+06)
(3.58808e+07 -1.24755e+06 6.40605e-05 405504 -2.62623e-05 1.08859e+07)
(1.32593e+07 -837782 2.15423e-05 7.88723e+06 7.38983e-06 6.34395e+06)
(1.88645e+07 -6.53577e+06 2.98789e-05 1.2173e+06 -1.34685e-06 6.02454e+06)
(1.3396e+07 -1.22803e+06 -2.18108e-05 2.40986e+06 -6.31075e-06 4.74175e+06)
(9.95823e+06 -2.81454e+07 -9.29333e-05 -1.2099e+07 -0.000184012 1.22739e+07)
(2.24169e+07 -7.44375e+06 3.67094e-05 1.55476e+06 -1.25784e-05 7.1915e+06)
(1.35323e+07 -56435.5 1.39178e-05 -50877.6 -4.90138e-06 4.04442e+06)
(-1.76021e+07 1.43406e+06 6.56893e-05 -5.19693e+06 -7.95137e-06 -6.8397e+06)
(1.30709e+07 -8.2363e+06 3.00658e-05 2.3972e+06 -3.51229e-06 4.64042e+06)
(9.41249e+06 -6.37089e+06 3.66627e-06 -5.63527e+06 -1.79811e-05 1.13317e+06)
(4.06795e+06 -1.56704e+06 1.71638e-06 5.00828e+06 -3.68217e-06 2.72287e+06)
(2.25832e+06 -1.46652e+06 -8.87378e-07 4.21874e+06 2.00226e-08 1.94312e+06)
(3.21739e+07 -7.76427e+06 -0.000124227 -2.51338e+07 -4.78192e-05 2.11203e+06)
(1.30698e+07 -549562 1.83314e-06 7.62769e+06 1.3185e-05 6.20924e+06)
(2.02105e+07 -9.011e+06 3.07488e-05 -3.90924e+06 1.98011e-05 4.89039e+06)
(4.89923e+07 556392 6.64599e-05 -1.57184e+07 -1.21489e-05 9.98218e+06)
(1.22664e+07 -894608 2.14839e-06 6.54106e+06 1.63743e-05 5.64224e+06)
(1.13571e+07 -2.15411e+06 -5.4527e-06 5.89803e+06 -8.08834e-06 5.17655e+06)
(1.03916e+07 -2.312e+06 -8.17322e-07 5.42238e+06 -8.65896e-06 4.7442e+06)
(1.42371e+07 -3.30448e+06 -1.50854e-05 2.78822e+06 -1.90502e-06 5.1076e+06)
(780550 -5.00393e+06 -4.54197e-06 -3.60319e+06 1.56641e-06 -846791)
(1.51161e+07 -413396 -2.81509e-05 81726.9 2.18925e-09 4.55935e+06)
(6.7601e+06 -6.80636e+06 1.49687e-05 -2.60983e+06 -2.27558e-05 1.24508e+06)
(1.3347e+07 -927940 2.40059e-05 7.17814e+06 1.26605e-05 6.15753e+06)
(1.35904e+07 -565324 -1.83314e-05 3.51814e+06 -1.06575e-05 5.13257e+06)
(2.3668e+07 -1.11884e+06 1.10105e-05 571976 1.82923e-05 7.27199e+06)
(9.88637e+06 -2.04075e+06 1.03333e-05 5.69187e+06 -7.74722e-07 4.67347e+06)
(4.10689e+07 -2.52438e+06 9.83822e-05 -1.15422e+07 -4.94246e-05 8.85802e+06)
(4.12037e+07 -4.13395e+06 6.80362e-05 -1.34853e+07 -3.19106e-05 8.31552e+06)
(1.25222e+07 -2.97982e+06 7.60109e-06 5.12915e+06 1.44126e-08 5.29539e+06)
(-1.75719e+07 1.48462e+07 -2.0363e-05 -1.73807e+07 8.64901e-06 -1.04858e+07)
(1.35605e+07 -158093 1.99193e-05 134225 -2.1269e-05 4.10841e+06)
(3.7831e+07 -5.84329e+06 -0.000136796 443197 -5.35178e-05 1.14823e+07)
(4.41503e+06 -5.77861e+06 2.12504e-06 3.08296e+06 9.31072e-06 2.2494e+06)
(1.33793e+07 -1.87148e+06 -2.46364e-05 3.24869e+06 5.89103e-06 4.98838e+06)
(3.71492e+07 -5.46876e+06 -8.53868e-05 -401601 -9.96716e-05 1.10243e+07)
(-2.43366e+06 -458945 -6.07153e-07 481918 1.93236e-07 -585521)
(3.43918e+07 -6.56745e+06 4.79418e-05 -8.94197e+06 -2.32003e-05 7.63495e+06)
(1.36027e+07 -1.78672e+06 -1.66734e-05 2.92491e+06 8.12982e-06 4.95827e+06)
(1.42972e+07 -276089 -2.74153e-05 62340.6 -2.72745e-06 4.30788e+06)
(3.85784e+07 -1.34839e+06 6.67927e-05 -173484 -6.79399e-06 1.15215e+07)
(1.41133e+07 -1.76488e+06 -1.56108e-05 1.40144e+06 2.22176e-05 4.65443e+06)
(1.42317e+07 -1.46804e+06 -3.62657e-05 1.01914e+06 1.35509e-05 4.57525e+06)
(1.30422e+07 -2.18492e+06 -4.50695e-06 5.44221e+06 -2.80918e-06 5.54532e+06)
(1.32478e+07 -2.28595e+06 3.57286e-06 4.99491e+06 -1.21466e-05 5.47281e+06)
(1.37634e+07 -5.77271e+06 -2.35972e-05 3.36348e+06 9.63664e-06 5.13807e+06)
(-2.34217e+07 8.55894e+06 4.88408e-05 -1.09452e+07 -6.75458e-06 -1.03101e+07)
(4.3167e+07 -5.74221e+06 0.00017099 174129 -5.99359e-05 1.30023e+07)
(6.59284e+06 -1.1375e+06 1.11506e-05 5.66077e+06 -9.78934e-06 3.67608e+06)
(9.03299e+06 -3.71747e+06 -2.10168e-07 5.22938e+06 -5.08819e-07 4.27871e+06)
(8.3126e+06 -3.15316e+06 -2.93068e-06 5.13268e+06 -2.40325e-06 4.03358e+06)
(1.57445e+07 -5.65682e+06 1.2108e-05 2.18927e+06 9.54834e-07 5.38014e+06)
(8.55888e+06 -6.31553e+06 7.37925e-06 4.07655e+06 -1.06544e-06 3.79063e+06)
(7.62483e+06 -6.53315e+06 1.71871e-05 4.05884e+06 6.80858e-07 3.5051e+06)
(4.55726e+06 -5.62704e+06 8.99054e-06 -3.62238e+06 -1.1398e-05 280465)
(9.66168e+06 -7.82686e+06 1.59845e-05 3.0601e+06 1.86404e-05 3.81653e+06)
(1.13482e+07 -5.98642e+06 -2.00828e-06 4.19384e+06 1.28738e-05 4.66263e+06)
(-1.98678e+08 1.07166e+07 -1.36615e-05 -646609 -0.000649608 4.00378e+06)
(368828 -5.19548e+06 6.30505e-07 -3.26958e+06 -3.96529e-07 -870227)
(-2.96166e+07 -1.7399e+07 0.000101371 -1.50159e+07 1.39178e-05 -1.33897e+07)
(4.64246e+07 -4.33194e+06 1.17636e-05 -486609 -2.85377e-05 1.37814e+07)
(1.45834e+07 -2.9869e+06 3.92898e-05 2.15397e+06 1.86339e-05 5.02122e+06)
(1.34258e+07 -317885 -1.65216e-05 1.1386e+06 -9.89497e-07 4.36933e+06)
(1.33358e+07 -189223 4.15666e-06 8.62351e+06 2.57028e-06 6.58779e+06)
(1.33636e+07 -156013 4.80702e-05 408044 3.06715e-06 4.13149e+06)
(6.96533e+06 -7.42436e+06 -9.28244e-06 2.85714e+06 9.89233e-06 2.94674e+06)
(7.19625e+06 -7.30658e+06 -2.38191e-06 2.78282e+06 1.40576e-05 2.99372e+06)
(2.55228e+06 -5.77613e+06 6.46852e-06 2.42639e+06 9.30634e-06 1.4936e+06)
(1.26159e+07 -2.93555e+06 -6.2817e-06 5.28125e+06 1.06983e-05 5.36914e+06)
(472448 -5.31345e+06 -1.1676e-07 -1.79717e+06 -4.50786e-06 -397418)
(4.96985e+06 -7.19063e+06 2.10402e-05 -849729 -4.76674e-06 1.23604e+06)
(1.31523e+07 -8.3802e+06 4.09245e-05 3.02282e+06 9.44508e-06 4.85254e+06)
(1.50801e+07 -5.51302e+06 1.23766e-05 1.92605e+06 2.55206e-06 5.10186e+06)
(3.23639e+06 -6.35032e+06 -1.72221e-05 -8.37885e+06 -2.30893e-06 -1.54274e+06)
(2.9459e+07 -8.08011e+06 1.58327e-05 -65094.1 -2.54559e-05 8.81818e+06)
(-1.09461e+08 -1.63393e+07 -7.4769e-05 -9.5296e+06 0.000201581 1.63236e+07)
(1.33205e+07 -259951 0 8.91325e+06 1.40495e-05 6.67011e+06)
(1.34266e+07 -197799 4.70544e-06 438674 -1.49031e-05 4.15957e+06)
(2.23726e+07 -9.3495e+06 -5.46905e-05 245203 1.42988e-05 6.78534e+06)
(9.25991e+06 -8.09891e+06 2.71117e-05 -1.8111e+06 -1.90527e-05 2.23464e+06)
(-1.02858e+08 1.04822e+07 0.000421125 -4.33059e+07 -0.000448881 -2.23447e+07)
(8.83381e+06 -7.11654e+06 4.08661e-06 3.63e+06 -8.91264e-06 3.73914e+06)
(7.22944e+06 -666334 1.57393e-05 5.86618e+06 2.10403e-06 3.92869e+06)
(1.08925e+07 -6.67849e+06 -1.06135e-05 3.87493e+06 8.03621e-06 4.43023e+06)
(-4.23207e+06 977522 3.96985e-07 -9.91312e+06 2.17466e-06 -4.24356e+06)
(2.08322e+07 -6.82194e+06 4.59335e-05 1.57125e+06 1.7676e-05 6.72103e+06)
(-4.86555e+06 -1.52416e+06 -8.99054e-07 -8.29439e+06 -3.34518e-06 -3.94798e+06)
(-574619 -4.10272e+06 -1.12323e-05 -5.27903e+06 1.63815e-05 -1.7561e+06)
(1.35884e+07 -1.29562e+06 -2.55121e-05 2.54457e+06 -1.26991e-05 4.83989e+06)
(6.53221e+06 -2.64843e+06 -6.29338e-06 5.16883e+06 -6.80201e-06 3.51031e+06)
(7.08334e+06 -2.20712e+06 2.3352e-06 5.39132e+06 -1.17684e-05 3.7424e+06)
(3.4199e+06 -6.10526e+06 7.22746e-06 -4.31667e+06 -1.95398e-05 -269030)
(1.04039e+07 -6.6048e+06 -8.5235e-07 -6.18231e+06 -4.09537e-06 1.26647e+06)
(9.68418e+06 -2.66627e+06 8.00975e-06 5.46018e+06 4.99533e-06 4.54331e+06)
(2.00153e+07 -2.97282e+06 4.09828e-05 329891 -6.80858e-06 6.10357e+06)
(6.80271e+06 -8.01338e+06 2.54537e-06 2.28352e+06 2.1638e-06 2.72587e+06)
(7.24246e+06 -7.76996e+06 1.2435e-05 2.03033e+06 -4.1293e-06 2.78184e+06)
(1.13682e+07 -5.86279e+06 2.97739e-06 3.7035e+06 -4.28547e-07 4.52151e+06)
(2.57151e+07 -9.61477e+06 -1.37252e-05 88816.1 -7.56606e-06 7.74118e+06)
(-4.00867e+07 -3.92892e+06 8.08214e-05 -1.11575e+07 5.93609e-05 -1.53733e+07)
(1.84146e+07 -4.79759e+06 1.60312e-05 1.11324e+06 -2.184e-05 5.85835e+06)
(4.72425e+07 -695233 5.56596e-05 -5.68362e+06 1.19913e-05 1.24677e+07)
(2.50467e+06 -9.4611e+06 -2.09468e-05 -1.43654e+07 -2.43445e-05 -3.55821e+06)
(1.51584e+07 -1.2891e+07 -3.68262e-05 -1.26463e+07 -2.68607e-05 753622)
(1.37467e+07 -241409 1.66267e-05 91586.9 -1.99248e-05 4.15149e+06)
(2.32966e+07 -8.43709e+06 7.48433e-06 1.58641e+06 1.85904e-07 7.46489e+06)
(1.3748e+07 -2.35455e+06 -6.30505e-06 3.11563e+06 5.60602e-06 5.05908e+06)
(1.32925e+07 -8.42491e+06 -2.62711e-06 -2.93432e+06 -1.19081e-05 3.10744e+06)
(2.12476e+07 -7.40695e+06 5.81699e-05 1.1372e+06 -1.31718e-05 6.71544e+06)
(7.27399e+07 1.77438e+07 0.000274446 -1.69932e+06 3.75851e-05 2.13122e+07)
(1.01733e+07 -4.87804e+06 -2.5804e-06 4.59202e+06 -9.73032e-07 4.4296e+06)
(1.67078e+07 -4.18515e+06 2.40526e-06 1.66264e+06 -4.16232e-06 5.51113e+06)
(1.55289e+07 -3.92957e+06 2.494e-05 1.0781e+06 -5.34963e-06 4.98211e+06)
(2.02705e+07 -3.03989e+06 3.11283e-05 170811 -1.10897e-05 6.1324e+06)
(4.21765e+07 -6.38941e+06 -9.22931e-05 -1.02082e+06 -3.88563e-05 1.23467e+07)
(9.78343e+06 -6.90261e+06 -2.66213e-06 3.76019e+06 4.13368e-06 4.06309e+06)
(4.41475e+06 -2.78179e+06 -4.32013e-07 4.82844e+06 2.52968e-06 2.77296e+06)
(1.35744e+07 -799414 -3.8239e-05 1.12745e+06 9.0886e-06 4.41056e+06)
(1.3462e+07 -2.5778e+06 1.15709e-05 2.66402e+06 -1.84761e-06 4.83782e+06)
(1.27718e+07 -3.20111e+06 2.51852e-05 4.25507e+06 2.0132e-07 5.10805e+06)
(1.25056e+07 -3.62282e+06 8.90881e-06 4.0608e+06 7.56378e-06 4.96992e+06)
(1.60289e+07 -8.63127e+06 5.25071e-05 -974044 2.64104e-05 4.51645e+06)
(5.56225e+06 -651489 1.55758e-05 5.16157e+06 -5.42536e-06 3.21715e+06)
(1.29132e+07 -9.1241e+06 4.47775e-05 -1.22516e+06 6.49187e-06 3.50641e+06)
(-1.37357e+08 -2.88358e+06 -0.000155687 3.21373e+07 -0.000680917 3.20574e+07)
(1.11611e+07 -1.46452e+06 -1.03683e-05 6.03029e+06 2.21466e-06 5.15741e+06)
(1.10756e+07 -2.05043e+06 -8.90881e-06 5.66023e+06 1.01536e-06 5.02076e+06)
(4.41353e+07 -1.32331e+06 -3.63708e-06 -229013 8.07003e-05 1.31719e+07)
(-1.81746e+06 -2.36306e+06 -7.18075e-06 -6.97951e+06 6.6079e-06 -2.63909e+06)
(1.36218e+07 -1.13806e+06 4.67041e-08 4.04162e+06 -7.17054e-06 5.29902e+06)
(7.32214e+07 -8.38918e+06 0.000147864 3.46285e+06 -0.000177856 3.78133e+07)
(9.03031e+06 -2.11026e+06 6.34008e-06 5.65646e+06 -8.63734e-06 4.40603e+06)
(4.99929e+07 6.56496e+06 -1.50373e-05 1.47307e+07 3.67094e-05 1.94171e+07)
(1.30561e+07 -993317 2.86413e-05 7.18577e+06 3.04078e-06 6.07257e+06)
(1.33135e+07 -722372 9.74948e-06 8.07875e+06 -1.32453e-05 6.41768e+06)
(1.36137e+07 -816595 -3.25644e-05 1.19987e+06 9.81944e-06 4.44407e+06)
(1.35396e+07 -603405 -7.34422e-06 621476 1.77021e-05 4.24833e+06)
(1.38331e+07 -471287 1.54824e-05 137130 -2.21844e-05 4.19106e+06)
(-1.45864e+06 -3.00372e+06 -1.27269e-06 240768 -1.0539e-06 -365362)
(-327579 -3.45106e+06 -1.87984e-06 945110 6.56776e-08 185259)
(1.5071e+07 -9.95374e+06 1.89152e-06 -1.66038e+07 -4.12806e-05 -459830)
(1.78499e+07 -1.17666e+07 -4.47192e-06 -2.21758e+07 -6.02483e-05 -1.29775e+06)
(2.60354e+07 -8.77164e+06 -4.70894e-05 -4.27151e+06 -4.91925e-05 6.52917e+06)
(1.44281e+07 -2.66016e+06 1.34391e-05 1.54687e+06 1.83751e-05 4.79248e+06)
(1.28507e+07 -365778 3.24593e-06 8.16519e+06 1.4241e-05 6.30478e+06)
(2.25383e+06 -6.22757e+06 5.4527e-06 -1.53011e+06 -2.22246e-06 217117)
(-2.11665e+06 -3.19799e+06 -5.72125e-07 -202171 -1.01592e-06 -695648)
(2.34749e+07 -2.76078e+06 -2.04097e-05 642487 -1.00899e-05 7.23521e+06)
(1.33157e+07 -3.0081e+06 2.31069e-05 4.67686e+06 -1.15802e-06 5.39776e+06)
(2.9968e+07 -6.98511e+06 -7.78674e-05 -1.72898e+06 -7.94802e-05 8.4717e+06)
(2.35731e+07 -9.49646e+06 2.94177e-05 -1.73737e+07 -4.13565e-05 1.85981e+06)
(1.1322e+08 -4.05444e+06 0.000114931 6.74502e+07 -6.46019e-05 8.85675e+07)
(6.51091e+06 -6.96436e+06 -9.4459e-06 3.05797e+06 7.13405e-06 2.87066e+06)
(5.723e+07 1.43606e+07 -3.42998e-05 -1.10725e+07 9.9433e-05 1.38472e+07)
(-3.92012e+06 2.60609e+06 9.51246e-05 -4.13141e+07 -7.53733e-05 -1.35703e+07)
(-5.06217e+06 55864.2 -2.49867e-06 -1.18685e+07 1.89947e-05 -5.07922e+06)
(1.06551e+07 -8.83018e+06 -1.67551e-06 -1.07792e+07 -4.82161e-05 -37219.4)
(1.29587e+07 -642619 -1.58794e-06 8.11447e+06 5.7343e-06 6.32197e+06)
(1.10413e+07 -6.67867e+06 -2.31069e-05 -3.91789e+06 -2.1262e-05 2.13703e+06)
(6.40368e+07 -1.3475e+06 5.39724e-05 -685450 -8.28677e-05 1.90054e+07)
(-1.5173e+07 1.13986e+07 -8.16154e-06 -1.02363e+07 -2.45313e-05 -7.62279e+06)
(1.149e+06 -4.28368e+06 3.29264e-06 1.76103e+06 3.91493e-06 873009)
(1.42198e+07 -8.38142e+06 9.04892e-06 2.77714e+06 -3.01716e-06 5.09909e+06)
(6.00322e+06 -6.16771e+06 -9.25909e-06 -4.75096e+06 -2.54727e-05 375680)
(1.58403e+06 -4.77271e+06 3.28096e-06 2.45883e+06 6.23071e-06 1.21286e+06)
(5.76447e+06 -1.62419e+06 1.09755e-05 5.25335e+06 -1.48438e-05 3.30535e+06)
(7.00358e+06 -6.33155e+06 1.9137e-05 3.6988e+06 -6.14086e-07 3.21071e+06)
(-1.78238e+07 7.72739e+06 1.1174e-05 -9.31803e+06 -2.35505e-05 -8.14256e+06)
(1.29149e+07 -835121 1.08821e-05 7.34423e+06 -6.65013e-06 6.07773e+06)
(1.31972e+07 -3.38721e+06 1.81912e-05 4.60358e+06 6.41661e-06 5.34022e+06)
(6.19644e+07 7.78441e+06 2.01086e-05 -1.66268e+07 6.36497e-06 1.50101e+07)
(1.28022e+07 -3.3837e+06 6.79545e-06 4.85486e+06 9.11888e-06 5.29713e+06)
(1.77588e+07 -7.42216e+06 5.19466e-05 -3.65133e+06 2.54129e-05 4.23225e+06)
(3.1681e+07 -5.62817e+06 4.83738e-05 404362 -1.35778e-05 9.62562e+06)
(-2.24078e+06 -49703.1 0.000136072 -3.1031e+07 -2.9193e-05 -9.98154e+06)
(1.47271e+07 -630104 -4.52446e-05 -188821 -7.49528e-06 4.36148e+06)
(4.02558e+07 -1.2133e+06 7.92218e-05 7303.98 6.53346e-06 1.20789e+07)
(1.89031e+07 -6.46394e+06 1.97558e-05 1.2694e+06 4.07064e-06 6.05176e+06)
(1.52888e+07 -2.33981e+06 -7.70618e-07 465456 -1.4304e-05 4.72627e+06)
(1.59275e+07 -2.09513e+06 4.97399e-06 861395 -1.38974e-05 5.03666e+06)
(3.44771e+06 -4.89183e+06 3.03577e-06 3.58607e+06 2.45379e-06 2.11014e+06)
(4.11233e+06 -7.1704e+06 4.96231e-06 -549683 -1.13932e-05 1.06879e+06)
(-1.02994e+07 5.21183e+06 1.34274e-05 -8.87847e+06 -1.79548e-05 -5.75336e+06)
(2.91323e+07 -2.8003e+06 1.75257e-05 618082 -4.01469e-05 8.9251e+06)
(2.56633e+07 -2.96108e+06 -4.47075e-05 -310790 5.20305e-05 7.60575e+06)
(1.98499e+07 -7.18279e+06 1.05201e-05 925099 -5.4561e-06 6.23249e+06)
(-4.98463e+06 71607 -4.81052e-06 -1.44472e+07 2.32316e-05 -5.82955e+06)
(1.29696e+07 -3.82901e+06 7.6478e-06 4.43606e+06 -1.05878e-06 5.22171e+06)
(5.61153e+07 -1.60169e+06 -8.19015e-05 -1.82363e+06 9.87354e-05 1.62875e+07)
(3.25336e+07 -9.18255e+06 -5.92967e-05 -235791 1.38609e-05 9.68935e+06)
(1.33542e+07 -285352 -2.56172e-05 925302 -9.93009e-07 4.28386e+06)
(2.01221e+07 -8.42692e+06 2.8758e-05 1.09364e+06 1.62735e-06 6.36473e+06)
(197990 -1.13157e+07 6.00148e-06 -1.07685e+07 -2.39358e-06 -3.17114e+06)
(1.51946e+07 -4.44783e+06 4.31196e-05 1.60563e+06 -9.44891e-06 5.04006e+06)
(5.59844e+07 1.40244e+07 0.000168869 1.8357e+07 5.3301e-05 2.23024e+07)
(1.38537e+07 -447339 2.65046e-06 396535 -1.183e-05 4.27507e+06)
(5.06127e+07 1.28316e+07 7.54906e-05 6.27655e+06 5.56012e-05 1.70668e+07)
(1.0999e+07 -1.92065e+06 -4.02823e-06 5.88177e+06 -5.86214e-06 5.06424e+06)
(1.03096e+07 -1.58727e+06 -8.36003e-06 5.75556e+06 -6.81123e-06 4.81954e+06)
(1.33685e+07 -108905 -1.45834e-05 9.80619e+06 -6.41707e-06 6.95241e+06)
(1.34012e+07 -27373.4 2.94002e-05 -98075.7 1.2777e-06 3.99094e+06)
(1.14651e+07 -3.30707e+06 2.27799e-05 5.38956e+06 4.41345e-06 5.05641e+06)
(3.3541e+06 -5.8951e+06 1.61129e-06 3.02786e+06 7.6966e-06 1.91459e+06)
(-283926 -3.82896e+06 9.42255e-06 -7.45758e+06 -8.26079e-06 -2.32245e+06)
(8.3375e+07 1.48004e+07 0.00011618 4.36226e+06 -2.84269e-05 2.73016e+07)
(2.11583e+07 -1.15138e+06 -6.1194e-05 -494886 2.10395e-05 6.19903e+06)
(-7.42044e+06 -5.61986e+06 3.24243e-05 -1.0606e+07 -3.35686e-05 -5.40793e+06)
(1.00934e+07 -6.75204e+06 2.69132e-06 -6.61894e+06 -2.4435e-05 1.04235e+06)
(4.76136e+06 -4.6583e+06 2.35856e-06 4.07316e+06 2.73894e-06 2.65035e+06)
(7.27056e+07 9.06083e+06 -3.05339e-05 4.39949e+06 2.82917e-05 3.29037e+07)
(1.41226e+07 -3.52983e+06 4.50695e-06 3.26774e+06 -6.43962e-06 5.21712e+06)
(1.02048e+06 -3.73771e+06 2.91901e-07 2.31552e+06 6.00184e-06 1.0008e+06)
(1.32298e+07 -405646 -1.73622e-05 3.06463e+06 -1.14509e-05 4.88833e+06)
(370723 -3.69519e+06 1.7514e-06 2.27461e+06 6.37976e-06 793599)
(1.02047e+06 -3.23124e+06 1.05084e-07 2.31607e+06 3.83293e-06 1.00096e+06)
(2.82645e+07 -5.65167e+06 3.90096e-05 61761.5 7.02422e-06 8.49788e+06)
(-6.76104e+06 4.21804e+06 -8.40674e-07 -1.39138e+07 -3.32183e-06 -6.20244e+06)
(1.47642e+07 -8.74484e+06 -1.06252e-06 2.42552e+06 4.3215e-06 5.15691e+06)
(1.38086e+07 -626584 4.5303e-05 741376 -1.63718e-05 4.36499e+06)
(1.32807e+07 -175226 -1.30888e-05 8.7453e+06 2.28252e-05 6.6078e+06)
(1.34151e+07 -23229.2 3.22258e-06 37823 -2.41028e-06 4.03588e+06)
(1.29443e+07 -4.41006e+06 5.75628e-06 3.34883e+06 -3.50518e-06 4.88795e+06)
(-1.31029e+06 -4.2838e+06 -8.17322e-07 -3.9249e+06 6.35431e-07 -1.57056e+06)
(7.79283e+07 1.96417e+07 0.000140605 3.25521e+06 1.38389e-05 2.5365e+07)
(4.00278e+07 -3.66186e+06 8.85568e-05 -7.14397e+06 -3.55622e-05 9.86515e+06)
(3.53516e+07 -3.76676e+06 0.000143154 360588 -3.26111e-05 1.07136e+07)
(1.98562e+07 -2.00081e+06 -4.55365e-07 242707 7.52009e-07 6.02966e+06)
(-1.07631e+06 7.27179e+06 7.63612e-06 -2.63671e+07 1.37748e-05 -8.23302e+06)
(-6.18873e+06 7.2295e+06 -1.75257e-05 -2.62252e+07 4.7374e-05 -9.72418e+06)
(5.55147e+06 -5.63793e+06 1.00414e-05 3.80628e+06 -5.77981e-06 2.80732e+06)
(1.72418e+07 -2.69538e+06 1.73973e-05 200879 1.34595e-05 5.2328e+06)
(7.56325e+06 -8.04882e+06 1.06602e-05 -877439 -2.23122e-06 2.00574e+06)
(3.67301e+07 723665 -5.35984e-05 7.40016e+06 4.76849e-05 1.32391e+07)
(3.7773e+06 -7.06603e+06 2.81392e-06 1.85144e+06 3.57542e-06 1.68862e+06)
(2.2244e+07 -1.69526e+06 1.94523e-05 -202103 -1.63081e-05 6.61257e+06)
(1.31224e+07 -4.25247e+06 1.03566e-05 4.09078e+06 -8.10476e-06 5.16397e+06)
(5.29004e+06 -7.18474e+06 -1.85649e-06 2.45441e+06 5.72745e-06 2.32333e+06)
(-5.59661e+06 919100 -5.28924e-06 -1.72494e+07 -6.99038e-06 -6.85379e+06)
(6.07578e+07 -292032 -1.8667e-05 -117177 6.06686e-05 1.81922e+07)
(1.20054e+06 -2.83545e+06 5.02069e-07 3.12068e+06 -8.67903e-07 1.29637e+06)
(1.68603e+07 -3.49078e+06 -4.93896e-06 701416 2.10128e-05 5.26851e+06)
(-2.64677e+06 -2.97443e+06 3.73633e-07 -4.01452e+06 -3.69619e-07 -1.99839e+06)
(2.92761e+07 -9.15035e+06 -3.09415e-06 66933 -1.02085e-05 8.80291e+06)
(1.35957e+07 -521976 -6.55025e-06 5.96709e+06 6.48621e-06 5.86884e+06)
(1.33772e+07 -4.99164e+06 1.5424e-05 3.84523e+06 9.39275e-06 5.16674e+06)
(1.24394e+07 -257103 2.17641e-05 7.45328e+06 -3.23009e-06 5.96779e+06)
(1.39916e+07 -283792 6.21164e-06 35552.5 -2.02466e-05 4.20814e+06)
(3.11966e+07 -5.42925e+06 5.98104e-05 397933 -7.75434e-06 9.47835e+06)
(-2.3866e+06 -2.64265e+06 8.28998e-07 -3.03353e+06 -5.64271e-06 -1.62604e+06)
(1.32436e+07 -48171.4 1.8775e-05 78479.1 4.05815e-06 3.99661e+06)
(1.51966e+07 -4.41609e+06 4.49177e-05 2.14358e+06 -1.96346e-05 5.20205e+06)
(4.31455e+07 1.38929e+07 1.96734e-05 -2.25139e+06 3.82039e-05 1.22682e+07)
(1.40767e+07 -6.15429e+06 -4.81286e-05 2.7265e+06 1.91779e-06 5.04096e+06)
(1.00408e+07 -6.83674e+06 -2.61543e-06 3.83489e+06 -5.35711e-06 4.16271e+06)
(1.28682e+07 -5.9797e+06 -2.46714e-05 3.02938e+06 3.85765e-07 4.76926e+06)
(1.28657e+07 -215915 -4.21504e-06 8.14103e+06 3.71852e-06 6.30203e+06)
(3.45277e+07 6.65958e+06 -2.01579e-05 1.13619e+06 8.41958e-05 1.06992e+07)
(1.84904e+07 -5.67416e+06 2.89565e-06 1.35237e+06 1.5904e-05 5.95283e+06)
(1.86675e+07 -7.11893e+06 1.59728e-05 1.80939e+06 7.14883e-07 6.14306e+06)
(1.4671e+07 -6.27858e+06 -3.15953e-05 2.57895e+06 2.13887e-06 5.175e+06)
(1.06845e+08 7.87347e+06 5.03312e-05 4.04854e+07 0.000286259 4.78619e+07)
(-1.06028e+06 -589298 -4.78717e-07 1.07794e+06 6.04702e-07 5296.23)
(4.67431e+07 5.34626e+06 -0.000105615 -1.62991e+06 0.000168981 1.35339e+07)
(8.35098e+06 -6.82074e+06 1.27035e-05 4.02467e+06 -3.55352e-06 3.7127e+06)
(6.03853e+07 5.61361e+06 6.5276e-05 -7.41611e+06 -5.72329e-06 2.07872e+07)
(-4.7263e+06 2.41235e+06 -3.37437e-06 -1.55689e+07 2.56026e-05 -6.08855e+06)
(6.80297e+07 1.71994e+07 1.34478e-05 -4.56676e+06 7.89412e-05 1.92432e+07)
(1.76913e+07 -7.32792e+06 3.84141e-06 1.28445e+06 1.33589e-05 5.69273e+06)
(3.85257e+07 -6.95637e+06 -0.000128746 -1.41428e+06 -7.55731e-06 1.11334e+07)
(3.93222e+07 -5.03517e+06 -6.10055e-05 -1.30577e+07 -2.37607e-05 9.33087e+06)
(1.32425e+07 -3.59648e+06 1.76541e-05 3.29073e+06 4.3454e-06 4.95997e+06)
(1.11243e+07 -4.21255e+06 5.93142e-06 4.94611e+06 -6.32713e-06 4.82113e+06)
(1.03293e+07 -4.34429e+06 -3.08247e-06 4.60532e+06 -7.09711e-06 4.48038e+06)
(-3.14274e+06 -3.20298e+06 3.26929e-07 -2.03694e+06 -4.68132e-06 -1.5539e+06)
(-1.30643e+06 -3.29587e+06 -5.48773e-07 -1.42497e+06 -1.87729e-06 -819421)
(1.27633e+07 -4.82233e+06 2.44613e-05 3.45163e+06 2.5661e-06 4.86447e+06)
(1.31341e+07 -1.38537e+06 -1.2038e-05 3.48284e+06 6.87991e-06 4.98509e+06)
(1.0814e+07 -7.86776e+06 1.48285e-05 3.47132e+06 1.30642e-05 4.28559e+06)
(-387094 -2.95839e+06 -1.52956e-06 1.5735e+06 2.28882e-06 355922)
(1.30372e+07 -692239 3.31599e-06 8.02395e+06 -1.35229e-05 6.31833e+06)
(1.36653e+07 -467106 3.31132e-05 889059 1.79133e-05 4.3663e+06)
(2.03128e+07 -3.78928e+06 3.21908e-05 736827 -4.72496e-06 6.31488e+06)
(8.42307e+06 -356246 3.54951e-06 5.7405e+06 -2.77716e-06 4.24907e+06)
(1.35671e+07 -1.27814e+06 -2.38424e-05 3.20957e+06 -8.80126e-07 5.03301e+06)
(1.48958e+07 -8.56813e+06 -1.18161e-05 2.48338e+06 8.1297e-06 5.21375e+06)
(1.35149e+07 -1.9633e+06 -3.03927e-05 4.51261e+06 -9.62971e-06 5.40825e+06)
(1.00413e+07 -4.99703e+06 -1.33924e-05 4.63603e+06 5.22456e-06 4.4032e+06)
(5.48078e+07 3.61849e+06 1.1279e-05 -2.31294e+06 2.68782e-05 1.57485e+07)
(5.3093e+07 7.21854e+06 -0.000138939 -5.29851e+06 4.84555e-05 1.43384e+07)
(1.38553e+07 -8.94714e+06 -3.36853e-05 2.28414e+06 1.43227e-05 4.84183e+06)
(-2.10519e+06 -4.02427e+06 -9.92462e-07 -2.5935e+06 -1.41882e-06 -1.40961e+06)
(1.11965e+07 -8.2766e+06 2.98206e-05 2.53375e+06 3.4395e-06 4.11907e+06)
(1.30839e+07 -9.00208e+06 -1.52839e-05 2.12895e+06 4.21778e-06 4.56386e+06)
(-1.75743e+06 -3.57479e+06 8.05646e-07 -475776 -3.45471e-06 -669961)
(1.27655e+07 -1.85191e+06 -2.06666e-06 6.16421e+06 1.04636e-05 5.67891e+06)
(1.40637e+07 -1.56724e+06 -2.30368e-05 2.02007e+06 -5.46958e-06 4.82514e+06)
(-5.56184e+06 4.12925e+06 -2.55938e-05 -2.49215e+07 3.70677e-05 -9.14501e+06)
(1.91429e+07 -601496 -4.22439e-05 -15284 -2.69249e-05 5.7383e+06)
(1.31911e+07 -420866 -1.1676e-06 8.91341e+06 2.00568e-05 6.63137e+06)
(1.35375e+07 -150674 -3.96985e-07 194499 -7.29204e-07 4.11959e+06)
(9.25867e+06 -1.37415e+06 2.35856e-06 5.7602e+06 -8.97868e-06 4.50566e+06)
(-26029.3 5.82428e+06 -8.75702e-06 -2.82355e+07 -2.65651e-05 -8.47847e+06)
(3.5746e+06 -4.67424e+06 3.64292e-06 3.50546e+06 4.78781e-06 2.12402e+06)
(4.30341e+07 -5.10199e+06 -4.00312e-05 169354 2.98556e-05 1.2961e+07)
(1.30712e+07 -1.56285e+06 1.15943e-05 6.65609e+06 -1.81371e-06 5.91819e+06)
(1.36628e+07 -1.37735e+06 -2.77889e-05 1.27609e+06 7.07631e-06 4.48166e+06)
(1.35411e+07 -9.52971e+06 -2.31185e-06 1.33062e+06 -9.96466e-06 4.46153e+06)
(-4.64177e+06 3.52629e+06 -1.76074e-05 -2.30888e+07 3.19274e-05 -8.31918e+06)
(1.7448e+07 -8.7132e+06 1.55291e-06 1.42658e+06 -1.42831e-05 5.66238e+06)
(4.66174e+06 -7.32115e+06 1.14075e-05 -1.4153e+06 -3.667e-07 973932)
(4.54043e+06 -2.77142e+06 2.96571e-06 4.70734e+06 2.19482e-06 2.77433e+06)
(1.89088e+07 -4.92188e+06 3.66744e-05 536857 1.62255e-05 5.83371e+06)
(1.79291e+07 -6.34685e+06 -1.42097e-05 1.54982e+06 -1.67975e-06 5.84368e+06)
(-1.95881e+07 -1.7076e+07 2.49283e-05 -1.5425e+07 1.99602e-05 -1.05039e+07)
(7.84406e+06 -7.2678e+06 -2.07833e-06 3.64745e+06 1.33125e-06 3.44745e+06)
(-3.40549e+06 2.84841e+06 -4.24073e-05 -2.84253e+07 1.32764e-05 -9.54922e+06)
(-4.68525e+06 -855798 -3.81806e-06 -9.38711e+06 1.17463e-05 -4.22171e+06)
(1.30362e+07 -1.948e+06 -5.68622e-06 5.88656e+06 1.47449e-05 5.67682e+06)
(-683489 -2.67034e+06 8.94383e-06 -6.49203e+06 -3.45172e-06 -2.15265e+06)
(1.48068e+07 -6.50004e+06 -5.75628e-05 2.64068e+06 1.87657e-05 5.23424e+06)
(1.83017e+07 -3.79779e+06 -1.34508e-05 1.0993e+06 7.96341e-07 5.82031e+06)
(2.04062e+07 -4.88955e+06 3.51448e-05 1.15062e+06 2.55059e-05 6.46705e+06)
(-1.34174e+07 1.54391e+07 -1.0018e-05 -2.44708e+07 1.83314e-05 -1.13665e+07)
(2.47869e+07 -1.98732e+07 3.07055e-05 -2.31073e+07 3.35194e-05 6.60576e+06)
(9.5469e+06 -7.06697e+06 8.37171e-06 3.81246e+06 -9.22935e-06 4.00781e+06)
(689761 -2.46264e+06 6.15326e-06 -8.0591e+06 -1.12382e-06 -2.2108e+06)
(1.57914e+06 -4.12062e+06 8.93216e-06 -6.929e+06 -1.10382e-05 -1.60496e+06)
(1.03563e+08 1.53823e+06 8.52496e-05 3.25095e+07 0.000146966 4.08219e+07)
(3.59289e+07 -1.85694e+07 0.000111349 8.49688e+06 -8.28543e-05 2.81832e+07)
(-6.15438e+06 3.71296e+06 9.34082e-07 -2.04198e+07 1.24313e-05 -7.97224e+06)
(1.41183e+07 -2.01156e+06 1.19796e-05 1.90197e+06 1.29598e-05 4.80608e+06)
(1.7039e+07 -3.58164e+06 -2.96571e-06 1.2279e+06 4.8253e-06 5.48008e+06)
(2.33419e+07 -8.67079e+06 -4.41354e-06 1.3146e+06 6.78413e-06 7.39696e+06)
(2.11359e+07 -9.21888e+06 -1.55408e-05 798512 -5.68586e-06 6.58032e+06)
(1.31772e+07 -6.84306e+06 -4.31546e-05 3.50286e+06 -2.99143e-06 5.00401e+06)
(1.73216e+07 4.61814e+06 5.80515e-05 675189 4.64472e-05 5.39903e+06)
(3.8584e+07 -3.43417e+06 -0.000107011 -1.31112e+07 3.07079e-06 7.64184e+06)
(1.32245e+06 -2.78132e+06 4.01655e-06 3.33166e+06 -4.42777e-07 1.39623e+06)
(1.32696e+07 -153920 5.19583e-06 9.09128e+06 1.16872e-05 6.70827e+06)
(1.33909e+07 -23460 2.62711e-06 57188.1 5.08473e-06 4.03442e+06)
(1.40122e+07 -1.75357e+06 4.18002e-06 1.56899e+06 1.79393e-05 4.67437e+06)
(943352 -6.14185e+06 5.44103e-06 -644095 -5.30689e-06 89777.2)
(-3.45757e+07 -1.69903e+07 0.00036982 4.30416e+07 -0.000213048 2.81959e+07)
(6.00919e+06 -7.15684e+06 1.17811e-05 -2.9655e+06 -1.43338e-05 913108)
(9.36491e+06 -6.20197e+06 8.64026e-07 4.20505e+06 4.97435e-06 4.07099e+06)
(7.9776e+06 -7.19163e+06 9.04892e-06 3.45763e+06 -8.22357e-06 3.43057e+06)
(6.55246e+06 -6.50481e+06 1.5751e-05 3.87065e+06 2.37516e-06 3.12694e+06)
(1.34634e+07 -79969.8 8.75702e-06 201353 -5.92339e-06 4.09942e+06)
(-4.86183e+06 -297497 1.20263e-06 -1.07816e+07 1.63063e-05 -4.69304e+06)
(1.30964e+07 -2.13166e+06 -2.83144e-05 4.10157e+06 -1.301e-05 5.15939e+06)
(526220 -5.11382e+06 4.70544e-06 -1.34801e+06 -5.16016e-06 -246537)
(1.32564e+07 -440490 8.39506e-06 5.82263e+06 1.99065e-05 5.72372e+06)
(3.88543e+07 -1.63603e+07 8.09934e-05 -1.58592e+07 -0.000122265 1.57823e+07)
(1.35931e+07 -1.81164e+06 -2.95403e-06 1.45714e+06 -6.0667e-06 4.51506e+06)
(1.32318e+07 -349866 -6.70204e-06 8.29958e+06 1.7322e-05 6.4594e+06)
(5.2584e+07 -9.33049e+06 7.60835e-05 -1.64306e+06 -1.80069e-05 2.54784e+07)
(1.01149e+07 -3.23415e+06 -4.67041e-07 5.41448e+06 4.2622e-06 4.65883e+06)
(1.27191e+07 -1.74308e+06 2.66213e-05 6.18482e+06 1.93498e-06 5.67116e+06)
(6.33816e+07 1.88906e+06 -7.46302e-05 -875187 0.00014285 1.87519e+07)
(-3.78353e+07 -4.01701e+06 0.000374602 -1.3934e+07 -7.94378e-05 -1.55308e+07)
(1.14764e+07 -3.63205e+06 1.46067e-05 4.83841e+06 4.22955e-06 4.89444e+06)
(-3.75784e+06 -2.05571e+06 -5.60449e-07 -7.40328e+06 1.47052e-05 -3.34834e+06)