/*--------------------------------*- C++ -*----------------------------------*\
| =========                 |                                                 |
| \\      /  F ield         | OpenFOAM: The Open Source CFD Toolbox           |
|  \\    /   O peration     | Version:  v2012                                 |
|   \\  /    A nd           | Website:  www.openfoam.com                      |
|    \\/     M anipulation  |                                                 |
\*---------------------------------------------------------------------------*/
FoamFile
{
    version     2.0;
    format      ascii;
    class       volScalarField;
    location    "4";
    object      epsilonEq;
}
// * * * * * * * * * * * * * * * * * * * * * * * * * * * * * * * * * * * * * //

dimensions      [0 0 0 0 0 0 0];


internalField   nonuniform List<scalar> 
7666
(
0.000206845
0.000489817
0.00163565
0.000606396
0.000937089
0.000992629
0.000524253
0.000618606
0.0010343
0.000506249
0.000468141
0.000605812
0.00060976
0.000543723
0.000499427
0.00102653
0.000616425
0.000999911
0.000643722
0.00047999
0.00036613
0.000798283
0.000565024
0.000608317
0.00103231
0.000497074
0.00104043
0.000441257
0.000612823
0.000592179
0.000605362
0.00100303
0.000348737
0.000573826
0.000383273
0.000450259
0.000441136
0.000598086
0.000943723
0.000516363
0.000760467
0.00108033
0.00101521
0.000547584
0.000905464
0.000518981
0.000994079
0.00080303
0.000871052
0.000289933
0.000431443
0.000777483
0.00053275
0.00104433
0.000333629
0.000979648
0.000307126
0.000287468
0.00108923
0.000986043
0.000372942
0.000598318
0.000578932
0.000584018
0.000305753
0.000880645
0.000477324
0.000317617
0.0011115
0.00109639
0.00110126
0.00043992
0.00044397
0.000586699
0.000586269
0.000528301
0.000793268
0.00054652
0.000550264
0.000374847
0.000544904
0.000457994
0.000652085
0.000957512
0.00063366
0.000745499
0.000739815
0.000802895
0.000835537
0.000599833
0.00055971
0.000560692
0.000801225
0.0011543
0.000953267
0.000997526
0.000366337
0.0017429
0.000647156
0.000470281
0.000804497
0.000588613
0.000422548
0.00120207
0.000604683
0.000916474
0.00102117
0.000886823
0.000522881
0.000773489
0.000558787
0.000843439
0.000496572
0.000357956
0.000454352
0.000945269
0.000446156
0.000389481
0.000609036
0.000606431
0.00102229
0.000580574
0.000583638
0.000497601
0.000592059
0.00027023
0.000881801
0.000787428
0.000675266
0.000587274
0.00101103
0.000688749
0.000420897
0.000746824
0.000586481
0.000926261
0.000542201
0.000517587
0.000541637
0.000568418
0.000699491
0.000455618
0.000452586
0.000454669
0.000482712
0.000511439
0.000523173
0.000457715
0.000231864
0.000629327
0.00050476
0.000880612
0.000394407
0.000750534
0.00046302
0.00046181
0.000751845
0.000743786
0.000615872
0.000558105
0.00112612
0.000708444
0.000787806
0.00100371
0.00130311
0.00123788
0.000634795
0.00029118
0.000292491
0.0011376
0.00048575
0.000439338
0.00075099
0.000699211
0.000862148
0.000321405
0.000834939
0.000889496
0.000624973
0.000620742
0.000780492
0.000439021
0.000728904
0.00038341
0.000845462
0.000981642
0.000443731
0.000588636
0.0010773
0.0005638
0.000499587
0.000526196
0.000523318
0.000535449
0.000882963
0.000956254
0.000521971
0.000532732
0.000516468
0.00055142
0.000828906
0.000414285
0.000624671
0.000944076
0.000412408
0.00105641
0.000474724
0.000655042
0.000401559
0.000381387
0.0010391
0.000401702
0.000450453
0.000460084
0.000459001
0.000417554
0.000544368
0.00100083
0.00039206
0.000830037
0.000975972
0.00109482
0.000605903
0.000450512
0.000717478
0.000727275
0.000982428
0.000791456
0.000360403
0.000633632
0.000617623
0.000576576
0.000842029
0.000961708
0.000439367
0.000587205
0.000923076
0.000778704
0.000431887
0.000576113
0.000457908
0.000707872
0.000575081
0.000348787
0.000498995
0.000460027
0.000628587
0.000480947
0.00119329
0.000847689
0.000837276
0.00041476
0.000968641
0.000696754
0.000444505
0.000590613
0.000755635
0.000794037
0.000885283
0.000559774
0.000784669
0.00101699
0.000940914
0.000796614
0.000505708
0.000628959
0.000559012
0.000946375
0.00107188
0.000207372
0.000522323
0.000511743
0.000581756
0.000780902
0.000230484
0.000486737
0.000855979
0.000854098
0.000761764
0.000765394
0.000537948
0.000930306
0.000549467
0.000590661
0.000519516
0.000641678
0.00078898
0.00109571
0.000599447
0.000466056
0.000467758
0.00109508
0.000993275
0.000545276
0.000545907
0.00114639
0.000463961
0.000279786
0.000296858
0.000647705
0.000461094
0.000465634
0.000509912
0.000430603
0.000588271
0.000377895
0.000365667
0.000861109
0.000644904
0.000359292
0.000328775
0.000275308
0.000268064
0.000267548
0.000448536
0.000651796
0.000453476
0.000655301
0.000651903
0.000458029
0.000703453
0.000701754
0.000910135
0.000675561
0.000557507
0.000445629
0.00023113
0.000607348
0.000320811
0.000560714
0.000560509
0.000781804
0.00179788
0.000566547
0.00102541
0.00103103
0.000993032
0.000389647
0.000440307
0.000588536
0.000548509
0.000989654
0.000386451
0.00071979
0.000753982
0.000668364
0.000439155
0.00099567
0.000447293
0.000432227
0.000588945
0.000902232
0.00107296
0.000366922
0.00111699
0.000838381
0.000609883
0.000457641
0.000958318
0.00039365
0.000648237
0.000850226
0.000762166
0.000880829
0.000458422
0.00101999
0.000940514
0.000904265
0.000524105
0.000937994
0.000612144
0.000675376
0.000559077
0.000643288
0.000490346
0.000530909
0.000706688
0.00145612
0.000358355
0.000994819
0.00103423
0.000492595
0.000194978
0.000871923
0.000906856
0.000668221
0.000920753
0.000952723
0.00124757
0.000591887
0.000589769
0.000317475
0.000299981
0.000778899
0.000936337
0.001185
0.000510996
0.000581982
0.000475698
0.000423052
0.000954659
0.000728
0.000450407
0.000354448
0.0015855
0.000677605
0.000678959
0.00092511
0.000970231
0.000994409
0.0010824
0.000586892
0.000419747
0.000973066
0.00107192
0.000826935
0.000809926
0.000502659
0.000467242
0.000976287
0.000489688
0.000555918
0.000556666
0.000576843
0.000413434
0.000557772
0.000522579
0.000892565
0.000641416
0.00113983
0.000589637
0.00171222
0.00061504
0.000589552
0.000421482
0.000465728
0.000526155
0.000537534
0.000594853
0.000611858
0.00100778
0.000272591
0.00053116
0.000535825
0.000478137
0.000588623
0.000477853
0.000528397
0.000534999
0.000505185
0.000233014
0.000326377
0.000722644
0.000858189
0.000448002
0.000790125
0.000523596
0.000618262
0.000531293
0.000750379
0.000819794
0.000620243
0.00132087
0.00100012
0.000414643
0.000511983
0.00051067
0.000819349
0.000769535
0.000459379
0.000751693
0.000528463
0.000529356
0.00103551
0.000988387
0.00079257
0.000461905
0.000727521
0.000445805
0.000686743
0.00039064
0.00101289
0.000637011
0.000437742
0.00063198
0.00044306
0.000618821
0.000644236
0.00113361
0.000594487
0.000565187
0.000571841
0.000590158
0.000415468
0.00049122
0.00113147
0.00110391
0.00108999
0.00050233
0.000436047
0.000478182
0.000523064
0.000927612
0.00039529
0.000525314
0.000349621
0.000459935
0.00147047
0.000206063
0.000454826
0.000416504
0.000921682
0.000931057
0.000449077
0.00044991
0.000593141
0.000589577
0.000590773
0.000754407
0.000348237
0.000355862
0.00109924
0.000966934
0.000650588
0.000644028
0.000519066
0.000459654
0.00152294
0.000372177
0.000436485
0.000587085
0.00113289
0.00091329
0.00038513
0.00100096
0.000464614
0.000744429
0.000854553
0.000578955
0.000575965
0.000929116
0.00110291
0.000942464
0.000663249
0.00085739
0.000985683
0.00102318
0.00107559
0.000715836
0.000484775
0.000938265
0.000469923
0.000914982
0.000923587
0.000647775
0.000401513
0.00054668
0.000184586
0.000746323
0.000746143
0.0009283
0.000755433
0.000567991
0.000660997
0.000654339
0.00027926
0.000429361
0.000447734
0.0014149
0.00054187
0.000642034
0.000474959
0.000750472
0.000465331
0.000871158
0.000345199
0.000998966
0.00113615
0.000982765
0.00102093
0.000890662
0.000485874
0.000437892
0.000431494
0.000738661
0.00098852
0.00109479
0.000465181
0.000556553
0.00103284
0.000593878
0.00100625
0.000713712
0.000474353
0.000458198
0.000390004
0.000597931
0.000449598
0.00059246
0.000568126
0.000520132
0.000998684
0.000863142
0.000867515
0.000307494
0.000488678
0.000712447
0.000413697
0.00099766
0.000951129
0.00108059
0.00104879
0.000217453
0.000521645
0.000463951
0.000560659
0.000444938
0.000446156
0.000586013
0.000584282
0.000518197
0.000217343
0.000754175
0.000453738
0.00050893
0.000566645
0.000608732
0.0002263
0.000660419
0.00100232
0.000584044
0.00110149
0.000527354
0.000745982
0.000474501
0.000411135
0.000636433
0.000494526
0.0006654
0.00044024
0.000804726
0.000516811
0.000195684
0.000400983
0.00042807
0.000589387
0.000400202
0.000190232
0.000791121
0.00039425
0.000912107
0.000750272
0.000653472
0.000646484
0.00106428
0.00107951
0.00088204
0.00088976
0.000454657
0.000454773
0.000332695
0.00104931
0.00076844
0.000948476
0.000471865
0.000731876
0.000174166
0.00112241
0.00106118
0.000644197
0.000399505
0.00021739
0.000480823
0.000400961
0.000779976
0.00116399
0.000602023
0.000487592
0.00112539
0.000475503
0.00112309
0.000857659
0.00100782
0.000610032
0.000667436
0.000831627
0.000381452
0.000822829
0.000990715
0.000992274
0.00101837
0.000502305
0.00035742
0.000658049
0.000511279
0.00100587
0.000972344
0.00113301
0.000966608
0.00100477
0.00048029
0.000710402
0.00111002
0.000818989
0.000657839
0.000844814
0.0013005
0.00022533
0.000599952
0.000950819
0.000436665
0.000855766
0.00137656
0.000820779
0.00069505
0.000422138
0.000634986
0.000442859
0.000618725
0.000838197
0.000823319
0.000846543
0.00042398
0.00059001
0.000373554
0.00106576
0.000456843
0.000915096
0.00114107
0.000454893
0.000809381
0.000643686
0.000435889
0.000724066
0.000719173
0.00102611
0.000783889
0.000570886
0.00127995
0.000864243
0.00105548
0.00214848
0.000857657
0.00100713
0.000573634
0.000862387
0.000452901
0.000915993
0.00120009
0.000552973
0.00052359
0.000583395
0.000586775
0.000534515
0.000380163
0.000571264
0.000935304
0.000933196
0.000907973
0.000388862
0.000931371
0.000476133
0.00085611
0.000708403
0.00108641
0.000410564
0.000379929
0.000982515
0.000503062
0.00107846
0.000556511
0.00108077
0.000598477
0.000458234
0.000456375
0.000456118
0.00104107
0.000548957
0.000495787
0.000495678
0.000491226
0.000743555
0.000442242
0.000610038
0.000538128
0.000533125
0.000521359
0.000928398
0.00106416
0.00131617
0.000790371
0.000534545
0.000587365
0.000584044
0.00115971
0.00059367
0.000781465
0.000377214
0.000395392
0.00039639
0.00037404
0.000621684
0.000665658
0.000948574
0.000357329
0.00089058
0.00053938
0.000779388
0.000418553
0.000503662
0.000361521
0.000927959
0.000721644
0.00104288
0.000507125
0.000767465
0.000466031
0.000441859
0.00034525
0.000354894
0.0010082
0.000449244
0.00104649
0.000300304
0.000578476
0.000651725
0.000592382
0.000222785
0.000372402
0.0010171
0.00101829
0.000555988
0.000730004
0.000276034
0.000425839
0.000771917
0.000453907
0.00057148
0.000568849
0.000748571
0.000606676
0.000761626
0.00141731
0.000632807
0.000857436
0.000812942
0.000835647
0.00055262
0.000539166
0.000745617
0.000332439
0.00048404
0.000917435
0.000631951
0.000314065
0.000905744
0.000706543
0.0012096
0.000576132
0.000562979
0.000548541
0.000594075
0.000772374
0.00080572
0.000809435
0.00112138
0.000758034
0.000579752
0.000910191
0.000971038
0.00090869
0.000593579
0.000452535
0.000459626
0.000620095
0.000515983
0.000510656
0.000536913
0.000534556
0.000249625
0.000264001
0.000475492
0.000505589
0.00052941
0.00021955
0.000438772
0.000517892
0.000364958
0.000457101
0.000714084
0.000706138
0.000500249
0.000695484
0.000427361
0.000648166
0.000507004
0.000636544
0.000653576
0.000623751
0.000665925
0.00101576
0.000694133
0.000418242
0.000931119
0.000725696
0.000553031
0.000456668
0.000300723
0.000479035
0.000827761
0.000836056
0.000917306
0.000848735
0.000640646
0.000681369
0.000185771
0.000477008
0.000962304
0.00206425
0.000752451
0.000451971
0.000896865
0.0009312
0.000484726
0.0005741
0.00080404
0.000644249
0.000882262
0.00113617
0.000346096
0.000516515
0.000875952
0.000866035
0.000565888
0.000364635
0.00078516
0.000818769
0.000783981
0.00123317
0.000565562
0.000656504
0.00100634
0.00103739
0.00101981
0.000504297
0.000572415
0.000464602
0.000789664
0.000247162
0.000600181
0.000977497
0.00042597
0.00068346
0.000832119
0.000586893
0.00209375
0.000856933
0.000818805
0.000900417
0.000914497
0.000831155
0.000589556
0.000924404
0.000474525
0.000529238
0.000478528
0.000448887
0.000433173
0.000702902
0.000583713
0.00070914
0.00049231
0.0008326
0.000489363
0.000485519
0.000497736
0.000418521
0.000844854
0.00101474
0.00100803
0.00100457
0.000624865
0.000612437
0.000672074
0.000505068
0.000804613
0.00069319
0.00149041
0.00112562
0.000772539
0.000759009
0.00114303
0.000906364
0.00102507
0.000848414
0.000906519
0.000235158
0.00109507
0.00104529
0.000559959
0.0011311
0.000692226
0.000632841
0.00044133
0.00119859
0.000736128
0.00105071
0.000629191
0.000632887
0.000910388
0.000477559
0.000759066
0.000634156
0.000465308
0.000901113
0.000701259
0.000417163
0.00108532
0.000922314
0.000637594
0.000631404
0.000444403
0.0007406
0.00033547
0.00149406
0.000616923
0.000320392
0.000516459
0.000509171
0.000943741
0.000571996
0.000984096
0.000370025
0.000976251
0.000485134
0.000526025
0.00130895
0.00079731
0.000468669
0.000578775
0.00111755
0.000544979
0.000378354
0.000647126
0.000449238
0.000621969
0.000526746
0.000663385
0.000454665
0.000627704
0.000612844
0.000744972
0.00074807
0.000724206
0.000911089
0.000562823
0.001058
0.00072432
0.000496299
0.000482178
0.00058725
0.000965389
0.000462623
0.000709485
0.000925395
0.000449301
0.000315677
0.000167583
0.000632836
0.000339889
0.000383787
0.000556798
0.000421963
0.000899668
0.000234397
0.000983833
0.000947232
0.000959604
0.00109478
0.000680195
0.00047516
0.000844837
0.000765908
0.000565542
0.000950248
0.00104225
0.000545733
0.000550952
0.000478259
0.000498871
0.000573381
0.000622734
0.00103607
0.000664774
0.000663128
0.000921201
0.000745063
0.000452146
0.000604517
0.00077167
0.000594833
0.000592355
0.000630986
0.000505746
0.000593874
0.000451492
0.000484425
0.000838824
0.000248599
0.00188272
0.000462755
0.00100807
0.000769936
0.000555382
0.000574933
0.000475137
0.000328518
0.000465364
0.000490061
0.000589476
0.000244583
0.000324139
0.000582323
0.000629905
0.000733147
0.000678079
0.000564891
0.000594114
0.000968411
0.000956712
0.000536924
0.00112826
0.00102544
0.000613182
0.000811115
0.000261734
0.00105061
0.00102704
0.000828376
0.000708016
0.000634897
0.000526814
0.000527029
0.000863973
0.000728448
0.000730606
0.000647629
0.000573367
0.000950407
0.000573849
0.000941178
0.000930595
0.000900739
0.000529144
0.000337482
0.000631702
0.000607316
0.000751899
0.000593066
0.00125501
0.000838176
0.000947306
0.000466027
0.000923363
0.000636033
0.000787979
0.000933936
0.00060591
0.000554795
0.000566036
0.000691538
0.000579447
0.000800127
0.00086579
0.000481169
0.000682661
0.00033594
0.000430552
0.000563328
0.00062194
0.000633475
0.000501266
0.000499141
0.000774221
0.000457036
0.00100814
0.000525439
0.000530128
0.00022269
0.000896425
0.00111769
0.000233004
0.000954971
0.00239341
0.00103495
0.000978326
0.000584508
0.000693549
0.00040411
0.00060026
0.000808845
0.00029326
0.00105792
0.000583558
0.000538389
0.000261928
0.000998034
0.000656594
0.000706256
0.000418594
0.000756903
0.000419687
0.000485358
0.0010111
0.00076409
0.000400065
0.000405154
0.00119886
0.000480796
0.000476201
0.00110704
0.000451184
0.00062753
0.00062499
0.00186534
0.000549164
0.000544108
0.000646641
0.000973431
0.000617082
0.00107723
0.00111868
0.000856912
0.000603623
0.000762199
0.00110113
0.000487688
0.000700051
0.000560599
0.00104382
0.000774153
0.00104101
0.000439677
0.000782404
0.00110848
0.000472291
0.00101797
0.000856058
0.000590131
0.0010453
0.00105266
0.00114423
0.000903921
0.000456566
0.000830206
0.00082476
0.00114836
0.000458048
0.0008747
0.000576498
0.000349189
0.00105699
0.00059083
0.000558369
0.00020021
0.00059253
0.000592862
0.00111811
0.00074884
0.000472805
0.000475745
0.0004772
0.00072392
0.000934157
0.000509363
0.000640923
0.000433913
0.000732667
0.000992802
0.000956686
0.00107472
0.000246334
0.000233391
0.00095684
0.000981613
0.000461381
0.000204666
0.000220958
0.000471128
0.00027156
0.000718187
0.000539417
0.000867502
0.000528103
0.00123268
0.000278534
0.000657259
0.000287589
0.000510592
0.00102032
0.00103811
0.00106533
0.00102498
0.00103128
0.00104404
0.000991027
0.000725524
0.000774788
0.000445678
0.000335988
0.000834335
0.000336493
0.000585547
0.000677467
0.000872162
0.000545961
0.000348719
0.000842596
0.000869206
0.000784383
0.000658005
0.000797372
0.000783252
0.000718207
0.000641477
0.000901808
0.000873554
0.000870385
0.00089208
0.00107326
0.00101355
0.00112565
0.000485824
0.000382976
0.000945721
0.00107683
0.00139105
0.000910771
0.0004992
0.00101171
0.000487381
0.000600556
0.000224437
0.000559392
0.000871239
0.00075485
0.000303905
0.00100404
0.000363644
0.00028291
0.00027731
0.00125614
0.000456136
0.000804803
0.00109583
0.000935978
0.000534896
0.00100587
0.000704635
0.000596096
0.000694239
0.00102111
0.000595512
0.000723798
0.000548761
0.000366157
0.000245361
0.000963781
0.000438238
0.00059029
0.000439932
0.00066183
0.000434561
0.000665541
0.000667269
0.000446521
0.000312962
0.000409637
0.00056215
0.000446643
0.000448538
0.000626964
0.00026214
0.000316268
0.000699719
0.000503498
0.000237039
0.000591198
0.000972511
0.000584315
0.0012336
0.000553142
0.000939824
0.00112257
0.000535676
0.000962212
0.00102897
0.000573384
0.000952859
0.000639688
0.000953824
0.000937838
0.000569412
0.000609379
0.000598557
0.000495342
0.000285886
0.000888298
0.00105361
0.0010654
0.00043793
0.000993946
0.000543342
0.000440061
0.000485797
0.000529845
0.00086416
0.000561679
0.000596791
0.000902128
0.00088595
0.000598752
0.000573453
0.00117325
0.000883996
0.00100829
0.000646099
0.000240227
0.000406726
0.000527669
0.000775858
0.00073889
0.000453506
0.000508612
0.000507379
0.000807628
0.000491338
0.000494702
0.000498829
0.000762282
0.000511497
0.000501574
0.000631122
0.000781831
0.000567706
0.000565
0.000703037
0.000399777
0.000579008
0.000575146
0.00138461
0.000600864
0.000451476
0.000526026
0.000338149
0.000376786
0.000555292
0.000858702
0.00109042
0.000622785
0.000379366
0.000988716
0.000802397
0.000655945
0.000447301
0.000649286
0.000452101
0.000531921
0.000502097
0.0010814
0.000701709
0.000400492
0.000904324
0.0009311
0.000816285
0.00092083
0.00106083
0.00100533
0.000967392
0.000547891
0.000323556
0.00209152
0.00111404
0.00104428
0.000650155
0.00112107
0.00033149
0.000561328
0.000520439
0.0005212
0.000312904
0.000531402
0.000458749
0.00120188
0.000979752
0.000685748
0.000638043
0.00106369
0.000469107
0.000549035
0.00065182
0.000447533
0.000950478
0.000825981
0.000582841
0.000267349
0.00104534
0.000923028
0.000860938
0.000962776
0.000312631
0.00112517
0.000986287
0.000480512
0.000744404
0.000603859
0.00101654
0.000387206
0.000401056
0.00082116
0.000582106
0.000582753
0.000867022
0.000312088
0.000604878
0.000996554
0.000401909
0.000991395
0.000496327
0.000528366
0.000792052
0.000586159
0.000223442
0.000455279
0.00021538
0.000524736
0.000521777
0.00050384
0.000405872
0.000970478
0.000576758
0.000378576
0.000902038
0.000900761
0.000616716
0.000600906
0.000344185
0.000340639
0.000969924
0.000976537
0.000938331
0.000679391
0.00049701
0.00117254
0.000473758
0.000250192
0.000483501
0.000653126
0.000435012
0.00100395
0.000555909
0.000686671
0.000687074
0.000780048
0.000842328
0.000980105
0.000470343
0.000764
0.000763977
0.000424776
0.00103525
0.000729583
0.000490513
0.000754785
0.000503286
0.000773115
0.000778854
0.00107999
0.000367452
0.000485731
0.000482677
0.00220911
0.00168941
0.000473734
0.000580628
0.000649302
0.000430443
0.000994717
0.000377449
0.000578079
0.000848414
0.000624199
0.000447494
0.000896462
0.00104889
0.000362295
0.000629494
0.00097479
0.000632502
0.000971026
0.00163807
0.000584834
0.000594187
0.000298091
0.000562721
0.00101747
0.000695127
0.000696754
0.000945959
0.000306852
0.00105413
0.00045365
0.000993521
0.000722041
0.000972085
0.000784386
0.000688145
0.000391657
0.000673071
0.00116841
0.000506612
0.00101182
0.000645223
0.00100719
0.000600785
0.000635388
0.000544551
0.000545607
0.000451287
0.000614322
0.000988058
0.000677998
0.000650026
0.000451038
0.000541901
0.000582951
0.000916269
0.000744824
0.000928918
0.00111569
0.000748136
0.000520347
0.000542582
0.000380353
0.000474164
0.000473241
0.000528168
0.00105969
0.000533346
0.000994621
0.000972962
0.00091104
0.000492768
0.000493243
0.000999721
0.000636314
0.00043771
0.00112151
0.000678428
0.000538293
0.000924038
0.000563527
0.000531099
0.0011685
0.00111765
0.00101806
0.000787324
0.000770406
0.00107892
0.000650854
0.000912149
0.000862166
0.00114229
0.000716657
0.000705377
0.000643309
0.00046365
0.000836416
0.00103366
0.000440934
0.000439958
0.000681675
0.00110775
0.000576394
0.000456879
0.000383861
0.000530374
0.00170286
0.000726767
0.00095246
0.000355321
0.00035769
0.000705056
0.000444133
0.000587235
0.00132589
0.000591515
0.000417657
0.000484172
0.000504374
0.000468261
0.000709576
0.000531168
0.000770764
0.000343688
0.00108234
0.0010199
0.000844352
0.000431717
0.000428437
0.000588021
0.000998042
0.000573365
0.00104056
0.00061594
0.000608559
0.00140772
0.00101753
0.000583785
0.000242933
0.000277426
0.00157033
0.000436841
0.000584959
0.000500998
0.000547082
0.00093437
0.000545142
0.000423071
0.000740749
0.000451238
0.00024471
0.000584784
0.000962397
0.000503374
0.000819433
0.000496682
0.00046202
0.000977869
0.00082502
0.000652831
0.00137544
0.000709181
0.000947256
0.00097622
0.000975479
0.00108639
0.000394863
0.000638443
0.000586285
0.000485346
0.000523418
0.000895537
0.000799342
0.000760627
0.000422271
0.000480502
0.00049189
0.000921869
0.000732874
0.000729425
0.000615255
0.000461212
0.000407964
0.000395745
0.000521996
0.000392662
0.000283234
0.000448903
0.000670964
0.000762921
0.0012709
0.000254861
0.000553389
0.000310859
0.000232975
0.000433612
0.00119322
0.00106686
0.000696707
0.0007572
0.000519717
0.00142466
0.000462256
0.000373087
0.000942493
0.000199557
0.000437578
0.000477864
0.00116282
0.000875229
0.000806837
0.00128007
0.000388361
0.00048661
0.000516437
0.000960059
0.000874587
0.000738588
0.000993392
0.00127958
0.000433532
0.000585611
0.000969818
0.000769629
0.000346774
0.0010115
0.000660306
0.000469006
0.000469922
0.000360767
0.000645144
0.000498258
0.00102885
0.000553125
0.000550354
0.000386442
0.000396509
0.00055364
0.000478424
0.000477422
0.000513625
0.000964049
0.000960497
0.000975065
0.000464491
0.00069762
0.00113686
0.000916267
0.000922756
0.000791642
0.000380152
0.000388259
0.000905925
0.000960976
0.00091848
0.000648393
0.000434339
0.0005479
0.000927941
0.000994903
0.00136121
0.00103331
0.000920159
0.000894394
0.000994597
0.000382936
0.000588594
0.00078776
0.00115746
0.00057926
0.000991404
0.000530163
0.000458078
0.000461445
0.000470351
0.000437937
0.000896516
0.0008294
0.000842744
0.000490153
0.00123662
0.000744858
0.000481081
0.000861648
0.00090203
0.000558655
0.000512527
0.000659606
0.000436412
0.000561706
0.000491374
0.00120549
0.000749526
0.000642589
0.000940878
0.0006041
0.000591986
0.000433726
0.000782867
0.00100002
0.000415306
0.000422765
0.000588486
0.000588071
0.000608493
0.000937647
0.00086889
0.00106253
0.000277539
0.000518736
0.00051646
0.000748219
0.000834641
0.000951613
0.000495261
0.000955137
0.000710547
0.000777017
0.000755121
0.00109582
0.000515833
0.000537487
0.000536575
0.00138157
0.000460472
0.000454232
0.00152969
0.00052112
0.00071842
0.000190386
0.000460557
0.00076673
0.00138973
0.000678562
0.000509231
0.000586145
0.00131956
0.000825829
0.000499335
0.0011186
0.000887388
0.000605496
0.000250836
0.000528026
0.00071753
0.000356679
0.0016202
0.000493348
0.000452875
0.00041845
0.000921453
0.00127637
0.00110939
0.000907485
0.000598185
0.000451372
0.000739436
0.00122948
0.000570503
0.000461021
0.000894606
0.000845716
0.000546131
0.00029138
0.000557327
0.000749717
0.00075193
0.000868747
0.000981462
0.00060357
0.000597724
0.000369101
0.000974295
0.000608036
0.00089429
0.000592253
0.000566936
0.000592908
0.000884859
0.000596687
0.000616577
0.0010331
0.00117223
0.000649224
0.000474278
0.000745078
0.00098871
0.000375524
0.000739384
0.000656273
0.000442509
0.000524987
0.00115039
0.000623685
0.000450062
0.00092265
0.000685636
0.000429351
0.000636965
0.000635942
0.000362908
0.000855963
0.000434253
0.000695276
0.00066538
0.000453204
0.000455557
0.000572805
0.000636958
0.000344082
0.000769947
0.000670393
0.000805831
0.000851004
0.000482511
0.00114095
0.00095976
0.000620208
0.000455296
0.00102221
0.000621578
0.000588128
0.0011311
0.000979602
0.000744189
0.000781774
0.000327165
0.000439977
0.000584022
0.000828673
0.000941363
0.000894165
0.000463986
0.000759341
0.00101547
0.000865792
0.000962259
0.000687427
0.000612181
0.000743823
0.000570334
0.000605506
0.000613394
0.00104157
0.000622779
0.00101194
0.000670391
0.000421527
0.000595788
0.000449443
0.00103097
0.000861094
0.000483035
0.000664829
0.000850189
0.000618147
0.000837999
0.000973145
0.000615741
0.000754142
0.000774787
0.00045613
0.000299112
0.000642006
0.000970989
0.000571201
0.000693984
0.000372552
0.00109823
0.000917118
0.000509582
0.000950642
0.00058672
0.00108868
0.00059475
0.000758129
0.000950517
0.000630732
0.000445455
0.000632897
0.000520938
0.000384119
0.000938095
0.00094187
0.000579511
0.000351104
0.000727416
0.000491984
0.00103468
0.000873054
0.00101755
0.00074795
0.000848046
0.000494823
0.000914287
0.000591787
0.000642316
0.000679126
0.000822603
0.000790988
0.000452399
0.000516345
0.000604522
0.000450369
0.000481981
0.00108415
0.000555468
0.000535943
0.000414863
0.000676142
0.000469602
0.000435345
0.00087934
0.000511981
0.000828728
0.000619943
0.000510342
0.000708308
0.000804945
0.000404162
0.00106309
0.000781447
0.000707524
0.000540018
0.000950688
0.000525838
0.000431583
0.000585859
0.000420974
0.0005887
0.00105638
0.000481
0.00096052
0.000641408
0.000572213
0.000531549
0.0010827
0.000970594
0.000965038
0.000515799
0.000600401
0.000638605
0.000683544
0.000436517
0.000529682
0.000685088
0.000429577
0.000954638
0.000685178
0.000693804
0.000427958
0.000521409
0.000521519
0.000966447
0.00110837
0.000980338
0.00104909
0.000488654
0.00109932
0.00102634
0.000577927
0.000574493
0.00060588
0.000600908
0.000795327
0.000621936
0.000523882
0.00100219
0.000566288
0.000483933
0.000706293
0.000685453
0.000419132
0.000524312
0.000471527
0.000469339
0.000889344
0.000767019
0.00107433
0.000595896
0.000324307
0.000327896
0.000486591
0.000676524
0.000638502
0.000525968
0.000980499
0.000514351
0.00106821
0.000534322
0.000591009
0.000372131
0.000858082
0.00054196
0.000332057
0.000724301
0.000733972
0.000835381
0.00105665
0.000762571
0.000760899
0.000251202
0.000434173
0.00107096
0.000987657
0.00100093
0.00066711
0.00045031
0.00064654
0.000876867
0.000526326
0.000578533
0.000563402
0.00190027
0.000319869
0.00101889
0.000448859
0.000997229
0.00116403
0.000608037
0.000474054
0.000476693
0.000647942
0.000432535
0.000710674
0.000976083
0.0010888
0.000733903
0.000313704
0.000747888
0.000504935
0.000856312
0.000630708
0.000501586
0.000504631
0.000990924
0.000694145
0.000705683
0.000868765
0.00047016
0.000900753
0.000538222
0.00104404
0.000853073
0.000615887
0.000646408
0.000717311
0.000531899
0.000636931
0.000640011
0.000807413
0.000461763
0.000794902
0.000964151
0.000650487
0.000651677
0.00097354
0.000581762
0.00107003
0.000599449
0.000627799
0.00108686
0.000415033
0.000580703
0.000313266
0.000447428
0.000372431
0.000407026
0.000318533
0.000639234
0.000435618
0.000449182
0.00100778
0.000571169
0.00100482
0.000665003
0.000427043
0.000765861
0.000674517
0.00068813
0.00069436
0.000799894
0.00065378
0.00104679
0.00102071
0.000773494
0.000594975
0.000286627
0.000611186
0.000547606
0.00101979
0.000416444
0.00123125
0.000475492
0.000617724
0.000616226
0.00108427
0.000966575
0.000944851
0.000276054
0.000496279
0.00053141
0.000816347
0.000928026
0.00077503
0.000613353
0.000559331
0.000559628
0.000800454
0.00121953
0.000360344
0.00103386
0.000530891
0.000531235
0.000565791
0.000829777
0.000450214
0.000454355
0.000617173
0.000586381
0.000744858
0.000764359
0.000416561
0.000559332
0.000389329
0.000821666
0.00127096
0.000661999
0.000466444
0.000634415
0.000641076
0.000519937
0.000507796
0.000782907
0.00038065
0.0010106
0.000960455
0.000825818
0.000589109
0.000517137
0.00055257
0.00051157
0.000475417
0.000621944
0.000723313
0.000766031
0.000736653
0.000693534
0.000685338
0.000533498
0.000564184
0.000474393
0.00100009
0.00076524
0.000818032
0.000267692
0.00140857
0.000382073
0.000500911
0.000658774
0.000429751
0.00068103
0.000413736
0.00138523
0.000887158
0.00139647
0.000901902
0.000667714
0.000618903
0.000947133
0.00120677
0.000587255
0.000284033
0.00089422
0.000856565
0.00142177
0.000718712
0.000535419
0.00103832
0.000819957
0.00068694
0.000427925
0.000573578
0.00101291
0.00102689
0.000544821
0.000347799
0.00138276
0.000619903
0.000300928
0.000806263
0.000364452
0.000666826
0.000426435
0.000617289
0.00104935
0.000522825
0.000687265
0.00100217
0.000688073
0.000543217
0.000676255
0.000549862
0.00114399
0.000992793
0.000648969
0.00105067
0.000731018
0.000550022
0.000378082
0.000715177
0.000797445
0.0010162
0.000996463
0.0010499
0.000915751
0.000850559
0.000618257
0.000632195
0.000479896
0.000590338
0.000471134
0.000473501
0.000252889
0.000673324
0.000444949
0.00132505
0.00094498
0.000949275
0.00104946
0.000810885
0.000481839
0.0005881
0.000735217
0.000502021
0.000433449
0.000587479
0.000591172
0.000662289
0.000993502
0.000651401
0.000428276
0.000668189
0.000394584
0.000815237
0.000585911
0.000432304
0.000894904
0.000311484
0.00044259
0.000790334
0.000639991
0.000311292
0.000411704
0.00107287
0.000436694
0.000588596
0.000506589
0.000701015
0.000865016
0.000763539
0.000496183
0.000543053
0.000920895
0.00121172
0.000685182
0.000385575
0.000552998
0.000414743
0.000998808
0.0004139
0.000589751
0.000982472
0.000925747
0.000952406
0.00070066
0.000399523
0.000506284
0.00108208
0.000478613
0.000555732
0.000625242
0.000438168
0.0016968
0.000491294
0.000593664
0.000321107
0.00107503
0.000715153
0.000561779
0.000484492
0.000626951
0.000623811
0.000499536
0.000889173
0.000809649
0.000716127
0.000373925
0.000388333