/*--------------------------------*- C++ -*----------------------------------*\
| =========                 |                                                 |
| \\      /  F ield         | OpenFOAM: The Open Source CFD Toolbox           |
|  \\    /   O peration     | Version:  v2012                                 |
|   \\  /    A nd           | Website:  www.openfoam.com                      |
|    \\/     M anipulation  |                                                 |
\*---------------------------------------------------------------------------*/
FoamFile
{
    version     2.0;
    format      ascii;
    class       pointVectorField;
    location    "4";
    object      pointD;
}
// * * * * * * * * * * * * * * * * * * * * * * * * * * * * * * * * * * * * * //

dimensions      [0 1 0 0 0 0 0];


internalField   nonuniform List<vector> 
7900
(
(0.00141583 0 0)
(0.00202242 0 0)
(0.00186652 -0.00018695 0)
(0 -0.000996829 0)
(0 -0.000769428 0)
(0.00141583 0 0)
(0.00202242 0 0)
(0.00186652 -0.00018695 0)
(0 -0.000996829 0)
(0 -0.000769428 0)
(0.00142632 0 0)
(0.00143392 0 0)
(0.00144001 0 0)
(0.00144463 0 0)
(0.00144816 0 0)
(0.00145136 0 0)
(0.00145434 0 0)
(0.00145737 0 0)
(0.00146048 0 0)
(0.0014639 0 0)
(0.00146727 0 0)
(0.00147113 0 0)
(0.0014755 0 0)
(0.00147994 0 0)
(0.00148509 0 0)
(0.00149044 0 0)
(0.00149622 0 0)
(0.00150249 0 0)
(0.0015091 0 0)
(0.00151614 0 0)
(0.00152361 0 0)
(0.00153143 0 0)
(0.00153964 0 0)
(0.00154821 0 0)
(0.00155714 0 0)
(0.00156644 0 0)
(0.00157606 0 0)
(0.00158604 0 0)
(0.00159634 0 0)
(0.00160696 0 0)
(0.00161788 0 0)
(0.00162909 0 0)
(0.0016406 0 0)
(0.0016524 0 0)
(0.00166448 0 0)
(0.00167681 0 0)
(0.0016894 0 0)
(0.00170222 0 0)
(0.00171529 0 0)
(0.00172858 0 0)
(0.00174209 0 0)
(0.00175581 0 0)
(0.00176971 0 0)
(0.0017838 0 0)
(0.00179807 0 0)
(0.0018125 0 0)
(0.00182707 0 0)
(0.00184177 0 0)
(0.00185661 0 0)
(0.00187152 0 0)
(0.00188654 0 0)
(0.00190162 0 0)
(0.00191676 0 0)
(0.00193193 0 0)
(0.00194712 0 0)
(0.0019623 0 0)
(0.00197749 0 0)
(0.00199252 0 0)
(0.00200749 0 0)
(0.00202218 -1.40575e-06 0)
(0.00202154 -2.81791e-06 0)
(0.00202068 -4.29254e-06 0)
(0.00201932 -5.78102e-06 0)
(0.00201761 -7.37594e-06 0)
(0.00201555 -9.14023e-06 0)
(0.00201312 -1.09283e-05 0)
(0.00201039 -1.29156e-05 0)
(0.00200734 -1.50399e-05 0)
(0.00200394 -1.72686e-05 0)
(0.00200025 -1.97445e-05 0)
(0.00199633 -2.24525e-05 0)
(0.00199212 -2.53183e-05 0)
(0.0019877 -2.84438e-05 0)
(0.00198308 -3.18313e-05 0)
(0.00197822 -3.54263e-05 0)
(0.00197326 -3.92825e-05 0)
(0.00196819 -4.34261e-05 0)
(0.00196293 -4.77861e-05 0)
(0.00195768 -5.24333e-05 0)
(0.00195231 -5.73366e-05 0)
(0.00194689 -6.25252e-05 0)
(0.00194154 -6.79685e-05 0)
(0.00193619 -7.36757e-05 0)
(0.00193084 -7.96107e-05 0)
(0.00192563 -8.57782e-05 0)
(0.00192045 -9.21823e-05 0)
(0.00191537 -9.8818e-05 0)
(0.00191048 -0.000105621 0)
(0.00190571 -0.000112621 0)
(0.00190112 -0.00011976 0)
(0.00189669 -0.000127046 0)
(0.00189244 -0.000134422 0)
(0.00188835 -0.000141906 0)
(0.00188445 -0.000149404 0)
(0.00188069 -0.00015695 0)
(0.00187705 -0.000164499 0)
(0.00187352 -0.000172009 0)
(0.00187002 -0.000179496 0)
(0.00184915 -0.000190465 0)
(0.00183182 -0.000193982 0)
(0.00181451 -0.000197453 0)
(0.00179723 -0.000200823 0)
(0.00177996 -0.000204083 0)
(0.00176267 -0.000207172 0)
(0.00174531 -0.000210117 0)
(0.00172789 -0.000212847 0)
(0.00171034 -0.000215436 0)
(0.00169268 -0.000217826 0)
(0.00167486 -0.000220045 0)
(0.00165687 -0.000222061 0)
(0.00163866 -0.000223986 0)
(0.00162027 -0.000225666 0)
(0.0016016 -0.00022724 0)
(0.00158267 -0.000228779 0)
(0.00156345 -0.00023019 0)
(0.00154396 -0.000231461 0)
(0.00152416 -0.000232742 0)
(0.00150402 -0.000233958 0)
(0.00148353 -0.000235212 0)
(0.00146268 -0.000236443 0)
(0.00144139 -0.00023771 0)
(0.00141984 -0.000239051 0)
(0.00139787 -0.000240573 0)
(0.00137541 -0.000242075 0)
(0.00135259 -0.000243858 0)
(0.00132929 -0.000245688 0)
(0.0013056 -0.000247932 0)
(0.00128141 -0.000250272 0)
(0.0012568 -0.000252995 0)
(0.00123171 -0.00025594 0)
(0.00120618 -0.000259428 0)
(0.00118007 -0.000263122 0)
(0.00115359 -0.00026738 0)
(0.00112654 -0.000272032 0)
(0.00109908 -0.000277308 0)
(0.00107112 -0.000283072 0)
(0.00104277 -0.000289531 0)
(0.00101383 -0.00029657 0)
(0.000984478 -0.000304283 0)
(0.000954732 -0.00031283 0)
(0.000924482 -0.000322113 0)
(0.000893982 -0.000332179 0)
(0.000863139 -0.000343161 0)
(0.00083176 -0.000354979 0)
(0.000800322 -0.000367732 0)
(0.000768603 -0.000381508 0)
(0.000736514 -0.000396182 0)
(0.0007045 -0.000411909 0)
(0.000672259 -0.000428626 0)
(0.000640047 -0.000446373 0)
(0.00060771 -0.000465141 0)
(0.000575648 -0.000484947 0)
(0.000543897 -0.000505619 0)
(0.000512323 -0.000527234 0)
(0.000481116 -0.000549892 0)
(0.00045033 -0.000573366 0)
(0.000420033 -0.000597342 0)
(0.000390437 -0.000622095 0)
(0.000361521 -0.000647524 0)
(0.000333432 -0.000673257 0)
(0.000306241 -0.000699335 0)
(0.000280011 -0.000725365 0)
(0.000254895 -0.000751519 0)
(0.000230632 -0.000777303 0)
(0.000207595 -0.000802598 0)
(0.000185859 -0.000827535 0)
(0.000164979 -0.000851272 0)
(0.000145469 -0.000873963 0)
(0.000127294 -0.000895373 0)
(0.000109881 -0.000915287 0)
(9.34233e-05 -0.000933303 0)
(7.84155e-05 -0.00094957 0)
(6.37415e-05 -0.00096356 0)
(4.98594e-05 -0.00097515 0)
(3.71432e-05 -0.000984503 0)
(2.41695e-05 -0.000991114 0)
(1.23161e-05 -0.000995133 0)
(0 -0.000990829 0)
(0 -0.000983832 0)
(0 -0.000977142 0)
(0 -0.000969279 0)
(0 -0.000961474 0)
(0 -0.000952874 0)
(0 -0.000944305 0)
(0 -0.000935751 0)
(0 -0.000927202 0)
(0 -0.000917972 0)
(0 -0.00090883 0)
(0 -0.000899538 0)
(0 -0.000889541 0)
(0 -0.00087889 0)
(0 -0.000867354 0)
(0 -0.000853754 0)
(0 -0.000838202 0)
(0 -0.000819962 0)
(0 -0.00079743 0)
(7.45071e-05 -0.000767136 0)
(0.000149353 -0.000761963 0)
(0.000221481 -0.000754669 0)
(0.000294431 -0.000743843 0)
(0.000364567 -0.000729485 0)
(0.000436617 -0.000714031 0)
(0.000504853 -0.000696083 0)
(0.000570997 -0.000675628 0)
(0.000637814 -0.000652973 0)
(0.000700696 -0.000629079 0)
(0.000761383 -0.000603651 0)
(0.000820252 -0.000577591 0)
(0.000876324 -0.000549863 0)
(0.000930333 -0.000521982 0)
(0.000981029 -0.000493217 0)
(0.00102953 -0.000464564 0)
(0.00107519 -0.000435153 0)
(0.00111867 -0.000406458 0)
(0.00115904 -0.000377341 0)
(0.00119664 -0.000347226 0)
(0.00123124 -0.00031808 0)
(0.00126294 -0.000288888 0)
(0.00129176 -0.000259034 0)
(0.0013175 -0.000230465 0)
(0.0013405 -0.000201534 0)
(0.00136009 -0.000172834 0)
(0.00137698 -0.000142993 0)
(0.00139079 -0.00011482 0)
(0.00140131 -8.56058e-05 0)
(0.00140887 -5.77707e-05 0)
(0.00141429 -2.91967e-05 0)
(0.00142632 0 0)
(0.00143392 0 0)
(0.00144001 0 0)
(0.00144463 0 0)
(0.00144816 0 0)
(0.00145136 0 0)
(0.00145434 0 0)
(0.00145737 0 0)
(0.00146048 0 0)
(0.0014639 0 0)
(0.00146727 0 0)
(0.00147113 0 0)
(0.0014755 0 0)
(0.00147994 0 0)
(0.00148509 0 0)
(0.00149044 0 0)
(0.00149622 0 0)
(0.00150249 0 0)
(0.0015091 0 0)
(0.00151614 0 0)
(0.00152361 0 0)
(0.00153143 0 0)
(0.00153964 0 0)
(0.00154821 0 0)
(0.00155714 0 0)
(0.00156644 0 0)
(0.00157606 0 0)
(0.00158604 0 0)
(0.00159634 0 0)
(0.00160696 0 0)
(0.00161788 0 0)
(0.00162909 0 0)
(0.0016406 0 0)
(0.0016524 0 0)
(0.00166448 0 0)
(0.00167681 0 0)
(0.0016894 0 0)
(0.00170222 0 0)
(0.00171529 0 0)
(0.00172858 0 0)
(0.00174209 0 0)
(0.00175581 0 0)
(0.00176971 0 0)
(0.0017838 0 0)
(0.00179807 0 0)
(0.0018125 0 0)
(0.00182707 0 0)
(0.00184177 0 0)
(0.00185661 0 0)
(0.00187152 0 0)
(0.00188654 0 0)
(0.00190162 0 0)
(0.00191676 0 0)
(0.00193193 0 0)
(0.00194712 0 0)
(0.0019623 0 0)
(0.00197749 0 0)
(0.00199252 0 0)
(0.00200749 0 0)
(0.00202218 -1.40575e-06 0)
(0.00202154 -2.81791e-06 0)
(0.00202068 -4.29254e-06 0)
(0.00201932 -5.78102e-06 0)
(0.00201761 -7.37594e-06 0)
(0.00201555 -9.14023e-06 0)
(0.00201312 -1.09283e-05 0)
(0.00201039 -1.29156e-05 0)
(0.00200734 -1.50399e-05 0)
(0.00200394 -1.72686e-05 0)
(0.00200025 -1.97445e-05 0)
(0.00199633 -2.24525e-05 0)
(0.00199212 -2.53183e-05 0)
(0.0019877 -2.84438e-05 0)
(0.00198308 -3.18313e-05 0)
(0.00197822 -3.54263e-05 0)
(0.00197326 -3.92825e-05 0)
(0.00196819 -4.34261e-05 0)
(0.00196293 -4.77861e-05 0)
(0.00195768 -5.24333e-05 0)
(0.00195231 -5.73366e-05 0)
(0.00194689 -6.25252e-05 0)
(0.00194154 -6.79685e-05 0)
(0.00193619 -7.36757e-05 0)
(0.00193084 -7.96107e-05 0)
(0.00192563 -8.57782e-05 0)
(0.00192045 -9.21823e-05 0)
(0.00191537 -9.8818e-05 0)
(0.00191048 -0.000105621 0)
(0.00190571 -0.000112621 0)
(0.00190112 -0.00011976 0)
(0.00189669 -0.000127046 0)
(0.00189244 -0.000134422 0)
(0.00188835 -0.000141906 0)
(0.00188445 -0.000149404 0)
(0.00188069 -0.00015695 0)
(0.00187705 -0.000164499 0)
(0.00187352 -0.000172009 0)
(0.00187002 -0.000179496 0)
(0.00184915 -0.000190465 0)
(0.00183182 -0.000193982 0)
(0.00181451 -0.000197453 0)
(0.00179723 -0.000200823 0)
(0.00177996 -0.000204083 0)
(0.00176267 -0.000207172 0)
(0.00174531 -0.000210117 0)
(0.00172789 -0.000212847 0)
(0.00171034 -0.000215436 0)
(0.00169268 -0.000217826 0)
(0.00167486 -0.000220045 0)
(0.00165687 -0.000222061 0)
(0.00163866 -0.000223986 0)
(0.00162027 -0.000225666 0)
(0.0016016 -0.00022724 0)
(0.00158267 -0.000228779 0)
(0.00156345 -0.00023019 0)
(0.00154396 -0.000231461 0)
(0.00152416 -0.000232742 0)
(0.00150402 -0.000233958 0)
(0.00148353 -0.000235212 0)
(0.00146268 -0.000236443 0)
(0.00144139 -0.00023771 0)
(0.00141984 -0.000239051 0)
(0.00139787 -0.000240573 0)
(0.00137541 -0.000242075 0)
(0.00135259 -0.000243858 0)
(0.00132929 -0.000245688 0)
(0.0013056 -0.000247932 0)
(0.00128141 -0.000250272 0)
(0.0012568 -0.000252995 0)
(0.00123171 -0.00025594 0)
(0.00120618 -0.000259428 0)
(0.00118007 -0.000263122 0)
(0.00115359 -0.00026738 0)
(0.00112654 -0.000272032 0)
(0.00109908 -0.000277308 0)
(0.00107112 -0.000283072 0)
(0.00104277 -0.000289531 0)
(0.00101383 -0.00029657 0)
(0.000984478 -0.000304283 0)
(0.000954732 -0.00031283 0)
(0.000924482 -0.000322113 0)
(0.000893982 -0.000332179 0)
(0.000863139 -0.000343161 0)
(0.00083176 -0.000354979 0)
(0.000800322 -0.000367732 0)
(0.000768603 -0.000381508 0)
(0.000736514 -0.000396182 0)
(0.0007045 -0.000411909 0)
(0.000672259 -0.000428626 0)
(0.000640047 -0.000446373 0)
(0.00060771 -0.000465141 0)
(0.000575648 -0.000484947 0)
(0.000543897 -0.000505619 0)
(0.000512323 -0.000527234 0)
(0.000481116 -0.000549892 0)
(0.00045033 -0.000573366 0)
(0.000420033 -0.000597342 0)
(0.000390437 -0.000622095 0)
(0.000361521 -0.000647524 0)
(0.000333432 -0.000673257 0)
(0.000306241 -0.000699335 0)
(0.000280011 -0.000725365 0)
(0.000254895 -0.000751519 0)
(0.000230632 -0.000777303 0)
(0.000207595 -0.000802598 0)
(0.000185859 -0.000827535 0)
(0.000164979 -0.000851272 0)
(0.000145469 -0.000873963 0)
(0.000127294 -0.000895373 0)
(0.000109881 -0.000915287 0)
(9.34233e-05 -0.000933303 0)
(7.84155e-05 -0.00094957 0)
(6.37415e-05 -0.00096356 0)
(4.98594e-05 -0.00097515 0)
(3.71432e-05 -0.000984503 0)
(2.41695e-05 -0.000991114 0)
(1.23161e-05 -0.000995133 0)
(0 -0.000990829 0)
(0 -0.000983832 0)
(0 -0.000977142 0)
(0 -0.000969279 0)
(0 -0.000961474 0)
(0 -0.000952874 0)
(0 -0.000944305 0)
(0 -0.000935751 0)
(0 -0.000927202 0)
(0 -0.000917972 0)
(0 -0.00090883 0)
(0 -0.000899538 0)
(0 -0.000889541 0)
(0 -0.00087889 0)
(0 -0.000867354 0)
(0 -0.000853754 0)
(0 -0.000838202 0)
(0 -0.000819962 0)
(0 -0.00079743 0)
(7.45071e-05 -0.000767136 0)
(0.000149353 -0.000761963 0)
(0.000221481 -0.000754669 0)
(0.000294431 -0.000743843 0)
(0.000364567 -0.000729485 0)
(0.000436617 -0.000714031 0)
(0.000504853 -0.000696083 0)
(0.000570997 -0.000675628 0)
(0.000637814 -0.000652973 0)
(0.000700696 -0.000629079 0)
(0.000761383 -0.000603651 0)
(0.000820252 -0.000577591 0)
(0.000876324 -0.000549863 0)
(0.000930333 -0.000521982 0)
(0.000981029 -0.000493217 0)
(0.00102953 -0.000464564 0)
(0.00107519 -0.000435153 0)
(0.00111867 -0.000406458 0)
(0.00115904 -0.000377341 0)
(0.00119664 -0.000347226 0)
(0.00123124 -0.00031808 0)
(0.00126294 -0.000288888 0)
(0.00129176 -0.000259034 0)
(0.0013175 -0.000230465 0)
(0.0013405 -0.000201534 0)
(0.00136009 -0.000172834 0)
(0.00137698 -0.000142993 0)
(0.00139079 -0.00011482 0)
(0.00140131 -8.56058e-05 0)
(0.00140887 -5.77707e-05 0)
(0.00141429 -2.91967e-05 0)
(0.00119449 -0.000113847 0)
(0.0015576 -8.07752e-05 0)
(0.000743233 -0.00038033 0)
(0.00169515 -0.000125271 0)
(0.00178473 -5.00461e-05 0)
(0.00127824 -0.000136221 0)
(0.00147623 -3.77828e-05 0)
(0.000353896 -0.000721827 0)
(0.00131689 -6.74141e-05 0)
(0.00091855 -0.000261069 0)
(0.00149747 -0.000149572 0)
(0.00166134 -3.43904e-05 0)
(0.00103505 -0.000217582 0)
(0.00143793 -2.49733e-05 0)
(0.00182067 -7.88717e-05 0)
(0.00107168 -0.000213536 0)
(0.00133615 -8.23208e-05 0)
(0.00189287 -2.54508e-05 0)
(0.00176119 -0.000154727 0)
(0.00168178 -8.41816e-05 0)
(0.000489757 -0.00058123 0)
(0.000631054 -0.000510749 0)
(0.00133345 -0.000177283 0)
(0.00158573 -2.00257e-05 0)
(0.000686771 -0.000410245 0)
(0.000999548 -0.000207816 0)
(0.00159616 -0.000172403 0)
(0.00176439 -2.46332e-05 0)
(0.00143083 -0.000117456 0)
(0.00155302 -4.79129e-05 0)
(0.00116795 -0.000145415 0)
(0.000154758 -0.000890896 0)
(0.00151692 -1.4624e-05 0)
(0.00144475 -7.72194e-05 0)
(0.00188814 -4.74312e-05 0)
(0.00181898 -0.000109783 0)
(0.00135548 -5.62475e-05 0)
(0.00024245 -0.000804164 0)
(0.00139075 -5.85514e-05 0)
(0.00118656 -0.000204721 0)
(0.00143337 -2.16486e-05 0)
(0.00118261 -0.000116309 0)
(0.00158056 -0.000110578 0)
(0.0016555 -5.87449e-05 0)
(0.00123194 -0.000144493 0)
(0.000306282 -0.000754832 0)
(0.000908566 -0.000285189 0)
(0.00088213 -0.000364034 0)
(0.00133579 -5.4358e-05 0)
(0.00142311 -0.000190357 0)
(0.00165579 -1.55301e-05 0)
(0.00085272 -0.000296318 0)
(0.00104973 -0.000183515 0)
(0.000526303 -0.000565426 0)
(0.000462868 -0.000663191 0)
(0.00167339 -0.000182025 0)
(0.00183704 -1.7702e-05 0)
(0.00160061 -0.000137304 0)
(0.00172377 -4.28113e-05 0)
(0.000765631 -0.000359559 0)
(0.00173722 -9.55343e-05 0)
(0.000840642 -0.000331361 0)
(0.00150955 -0.000194505 0)
(0.0017159 -1.51327e-05 0)
(0.00149418 -1.02905e-05 0)
(0.000528798 -0.000531362 0)
(0.00194992 -1.23018e-05 0)
(0.00180402 -0.000169043 0)
(0.00177325 -7.05158e-05 0)
(0.000137983 -0.000879166 0)
(0.00189983 -5.93597e-05 0)
(0.00104505 -0.000202463 0)
(0.00144291 -3.2157e-05 0)
(0.00108686 -0.000256142 0)
(0.00135043 -0.000101262 0)
(0.00143312 -5.93878e-05 0)
(0.00156748 -1.02922e-05 0)
(0.00187403 -8.22106e-05 0)
(0.000640413 -0.000452685 0)
(0.00118207 -0.000131847 0)
(0.0019374 -2.94479e-05 0)
(0.00183012 -0.000128827 0)
(0.00169665 -0.000150004 0)
(0.00182729 -3.37655e-05 0)
(0.00165783 -0.000109414 0)
(0.00171444 -6.25675e-05 0)
(0.00117535 -0.000163516 0)
(0.00107406 -0.00024201 0)
(0.00124093 -0.000106108 0)
(0.00133728 -0.000145162 0)
(0.00154135 -3.25895e-05 0)
(0.00141807 -0.000148723 0)
(0.00160416 -3.15264e-05 0)
(0.00125307 -0.000212805 0)
(0.00149975 -0.000121574 0)
(0.00159312 -5.76158e-05 0)
(0.000376562 -0.000672225 0)
(0.00143843 -2.15658e-05 0)
(0.00161223 -8.65002e-05 0)
(0.00147349 -9.7653e-06 0)
(0.00106387 -0.000179901 0)
(0.000194911 -0.000858091 0)
(0.00147828 -9.09177e-05 0)
(0.000738541 -0.000494378 0)
(0.00161753 -9.56607e-06 0)
(0.00151933 -6.7462e-05 0)
(0.00189432 -1.2411e-05 0)
(0.00173513 -0.000184818 0)
(7.8826e-05 -0.000948774 0)
(0.00125937 -0.000121836 0)
(0.000470501 -0.000630899 0)
(0.00128061 -7.65636e-05 0)
(0.00176521 -0.000109316 0)
(0.00140311 -5.22881e-05 0)
(0.000669023 -0.000451704 0)
(0.000885856 -0.000282188 0)
(0.000408204 -0.000665776 0)
(0.00153862 -2.12489e-05 0)
(0.00111836 -0.00014475 0)
(0.00133815 -0.000210282 0)
(0.00184349 -4.48801e-05 0)
(0.00133352 -0.00011786 0)
(0.000972393 -0.000274036 0)
(0.000808686 -0.000325886 0)
(0.000642372 -0.000439839 0)
(0.00160649 -0.000198478 0)
(0.00179135 -1.25051e-05 0)
(0.00125609 -0.000167878 0)
(0.00175924 -0.000133518 0)
(0.00137901 -3.98138e-05 0)
(0.000263681 -0.00080025 0)
(0.00153772 -0.000166817 0)
(0.00171195 -2.69857e-05 0)
(0.00183448 -6.24476e-05 0)
(0.00137046 -0.00011487 0)
(0.00149804 -4.79859e-05 0)
(0.000167009 -0.000821127 0)
(0.000247785 -0.000808249 0)
(0.00138671 -4.52323e-05 0)
(0.00114767 -0.000140987 0)
(0.00142054 -5.08846e-05 0)
(0.00131858 -8.54178e-05 0)
(0.00131714 -7.60964e-05 0)
(0.000347072 -0.000746114 0)
(0.0015291 -6.29986e-06 0)
(8.57361e-05 -0.00092438 0)
(0.00164583 -0.000149226 0)
(0.00177531 -3.65829e-05 0)
(0.00138651 -4.114e-05 0)
(0.000622617 -0.000476717 0)
(0.00115881 -0.000189681 0)
(0.00147567 -2.01695e-05 0)
(0.00127519 -7.76586e-05 0)
(0.00193223 -4.39098e-05 0)
(0.00161574 -4.30336e-05 0)
(0.000355279 -0.000727292 0)
(0.00187716 -9.42498e-05 0)
(0.00149349 -2.52076e-05 0)
(0.000952521 -0.000234194 0)
(0.00154425 -0.000100418 0)
(0.000114794 -0.000867518 0)
(0.000742594 -0.000372035 0)
(0.0018161 -9.50943e-05 0)
(0.000815708 -0.000339418 0)
(0.000864218 -0.000298597 0)
(0.00196652 -1.81104e-05 0)
(0.00183982 -0.000144144 0)
(0.00155217 -0.000131792 0)
(0.00167639 -4.41776e-05 0)
(0.000763188 -0.00040841 0)
(0.000996239 -0.00023675 0)
(0.0012096 -0.00021438 0)
(0.00113788 -0.000240759 0)
(0.00144113 -2.03353e-05 0)
(0.00145872 -1.06472e-05 0)
(0.00145068 -0.000210314 0)
(0.00168619 -9.29877e-06 0)
(0.000961107 -0.000244271 0)
(0.000609157 -0.000599761 0)
(0.0016087 -7.09695e-05 0)
(0.00165916 -7.25818e-05 0)
(0.00112776 -0.000187657 0)
(0.00138386 -7.97435e-05 0)
(0.00189205 -3.51093e-05 0)
(0.00147832 -0.000174193 0)
(0.00167784 -2.27859e-05 0)
(0.00100011 -0.000351932 0)
(0.00101315 -0.000208416 0)
(0.000284359 -0.000758148 0)
(0.00139177 -0.00017486 0)
(0.00162205 -2.16812e-05 0)
(0.00143827 -2.44381e-05 0)
(0.000124792 -0.000919389 0)
(0.000426905 -0.000613753 0)
(0.0012068 -0.000104631 0)
(0.00154924 -0.000207513 0)
(0.00175256 -9.61353e-06 0)
(0.000925639 -0.000296882 0)
(0.00125799 -0.000188694 0)
(0.00165344 -0.00016798 0)
(0.00180481 -2.56478e-05 0)
(0.00148712 -6.06671e-05 0)
(0.00142163 -9.6125e-05 0)
(0.00109585 -0.000170826 0)
(0.00173016 -8.24587e-05 0)
(0.00139536 -3.49085e-05 0)
(0.00163279 -9.85736e-05 0)
(0.00126801 -8.67307e-05 0)
(0.000826444 -0.000316548 0)
(0.000564438 -0.000510576 0)
(0.00180502 -5.78062e-05 0)
(0.00088735 -0.000311371 0)
(0.00110358 -0.000185914 0)
(0.00155166 -5.91793e-06 0)
(0.00148698 -0.000106059 0)
(0.00164911 -8.1252e-06 0)
(0.00191315 -6.49414e-05 0)
(0.000548471 -0.000507735 0)
(0.00039955 -0.000664699 0)
(0.00139097 -0.000214869 0)
(0.000907087 -0.000263093 0)
(0.00104598 -0.000181977 0)
(0.00126598 -0.000107572 0)
(0.0017814 -9.35098e-05 0)
(0.00168813 -0.000198988 0)
(0.00186004 -8.98683e-06 0)
(0.00197905 -6.18488e-06 0)
(0.00182726 -0.000176849 0)
(0.00195478 -3.24245e-05 0)
(0.00126234 -9.96117e-05 0)
(0.000188029 -0.000857944 0)
(0.00159494 -6.39375e-06 0)
(0.00121579 -0.000162585 0)
(0.00111837 -0.000147787 0)
(0.00171132 -0.000166341 0)
(0.00185656 -2.41667e-05 0)
(0.000576586 -0.000576722 0)
(0.000523422 -0.000559439 0)
(0.00160691 -0.000120423 0)
(0.00164997 -0.00012578 0)
(0.00174367 -5.05766e-05 0)
(0.00169784 -5.32906e-05 0)
(0.00187142 -0.000108488 0)
(0.000884985 -0.000437351 0)
(0.00186167 -7.49857e-05 0)
(0.00149371 -5.78189e-06 0)
(0.00175906 -6.13827e-05 0)
(0.00170026 -0.000109594 0)
(0.000562675 -0.000546445 0)
(0.0004423 -0.000643545 0)
(0.000747322 -0.000367988 0)
(0.00177961 -8.12443e-05 0)
(0.00126442 -8.06711e-05 0)
(0.00169447 -9.60005e-05 0)
(0.000692021 -0.000408652 0)
(0.00173591 -0.000125777 0)
(0.000945701 -0.000253431 0)
(0.00192927 -7.51261e-06 0)
(0.00176926 -0.000188549 0)
(0.00138569 -9.43716e-05 0)
(0.000915724 -0.000257234 0)
(0.00119621 -0.000235029 0)
(0.00138384 -6.56919e-05 0)
(0.000493116 -0.000675815 0)
(0.00146797 -1.52922e-05 0)
(0.000476041 -0.000583203 0)
(0.00159216 -0.000155475 0)
(0.0017396 -3.29729e-05 0)
(0.000769087 -0.000372612 0)
(0.00187327 -5.87337e-05 0)
(0.00162871 -5.22993e-05 0)
(0.000606136 -0.000468909 0)
(0.00151446 -2.97357e-05 0)
(0.00164293 -0.00020488 0)
(0.00182424 -8.48308e-06 0)
(0.00193057 -2.03683e-05 0)
(0.00179607 -0.000155776 0)
(0.0015897 -1.28466e-05 0)
(0.00144768 -0.000163222 0)
(0.00164447 -2.65295e-05 0)
(0.000217958 -0.000824927 0)
(0.000722322 -0.000390562 0)
(0.00180004 -0.000126785 0)
(0.00121777 -0.000105587 0)
(0.00139474 -0.000136851 0)
(0.00156506 -3.73503e-05 0)
(0.00140415 -4.50053e-05 0)
(0.00100506 -0.000246147 0)
(0.00107286 -0.000168963 0)
(0.00109913 -0.000170784 0)
(0.00186192 -3.32614e-05 0)
(0.00144934 -0.000129229 0)
(0.00101997 -0.000255089 0)
(0.0013317 -5.81045e-05 0)
(0.00101029 -0.000274211 0)
(0.00155966 -0.000187215 0)
(0.00174757 -1.81192e-05 0)
(0.00151262 -5.22459e-06 0)
(0.000335621 -0.000734784 0)
(0.00128542 -0.000226247 0)
(0.00132176 -9.79782e-05 0)
(0.00130737 -0.000164889 0)
(6.60135e-05 -0.000913994 0)
(0.00144875 -3.80659e-05 0)
(0.00154386 -1.43822e-05 0)
(0.00171878 -7.35593e-05 0)
(0.00130291 -0.000118043 0)
(0.00119431 -0.000144645 0)
(0.000988265 -0.000218332 0)
(0.00144158 -4.90886e-05 0)
(0.00149923 -0.000215335 0)
(0.00172094 -7.03422e-06 0)
(0.0015587 -0.000145778 0)
(0.00170061 -3.74788e-05 0)
(0.00193635 -4.93929e-05 0)
(0.00150208 -1.30469e-05 0)
(0.00147335 -6.48792e-06 0)
(0.00198283 -1.15679e-05 0)
(0.00184542 -0.000156538 0)
(0.000640449 -0.000447695 0)
(0.00110155 -0.000216605 0)
(0.0015745 -2.78862e-05 0)
(0.00136417 -0.000156213 0)
(0.00142984 -3.03931e-05 0)
(0.00139447 -3.60387e-05 0)
(0.000190756 -0.000841816 0)
(0.00190274 -7.99476e-05 0)
(0.00123691 -0.000141455 0)
(0.00128858 -0.000183133 0)
(0.00114293 -0.000139909 0)
(0.00130936 -0.00019809 0)
(0.000335247 -0.000747085 0)
(0.00155914 -5.62615e-05 0)
(0.00147181 -0.000141478 0)
(0.00181655 -4.22089e-05 0)
(0.000480016 -0.000562215 0)
(4.77221e-05 -0.000952113 0)
(0.00155697 -6.81485e-05 0)
(0.00185085 -5.19805e-05 0)
(0.00114029 -0.000283484 0)
(3.97229e-05 -0.000975136 0)
(0.00197245 -2.21778e-05 0)
(0.00186553 -0.000126225 0)
(0.00178234 -0.00011597 0)
(0.000271913 -0.000792086 0)
(0.00173682 -0.000147213 0)
(0.000572895 -0.000510456 0)
(0.00144102 -6.78821e-05 0)
(0.000273701 -0.000773093 0)
(0.00139855 -9.02095e-05 0)
(0.000775618 -0.000433048 0)
(0.0014788 -7.86154e-05 0)
(0.00151742 -7.92402e-05 0)
(0.00133117 -5.70376e-05 0)
(0.00132009 -0.000135328 0)
(0.00191889 -3.81724e-05 0)
(0.00168637 -0.000141472 0)
(0.000251744 -0.000808872 0)
(0.00151718 -9.16032e-05 0)
(0.000987136 -0.000217572 0)
(0.00111426 -0.000171377 0)
(0.0015017 -3.79796e-05 0)
(0.00179859 -0.000138108 0)
(0.00184955 -9.58163e-05 0)
(0.00119887 -0.000116964 0)
(0.00107836 -0.000259679 0)
(0.00119638 -0.00014082 0)
(0.00142438 -2.61458e-05 0)
(0.00157471 -4.70695e-06 0)
(0.00156106 -1.63204e-05 0)
(0.00121781 -0.0001221 0)
(0.00136214 -6.05199e-05 0)
(0.00191711 -2.74368e-05 0)
(0.00158644 -4.13464e-05 0)
(0.00129475 -8.98082e-05 0)
(0.00158215 -9.73165e-05 0)
(6.235e-05 -0.000896993 0)
(0.0014094 -3.94293e-05 0)
(0.00112955 -0.000187657 0)
(0.0015106 -0.00013371 0)
(0.00161287 -1.60999e-05 0)
(8.74768e-05 -0.000856895 0)
(0.00183664 -0.000113725 0)
(0.0014556 -1.04706e-05 0)
(0.00190537 -1.80815e-05 0)
(0.00175929 -0.000169064 0)
(0.00147056 -0.000191952 0)
(0.00169144 -1.60646e-05 0)
(0.00086066 -0.000295388 0)
(0.00137565 -0.000192234 0)
(0.00113046 -0.00021943 0)
(0.0016296 -3.44657e-05 0)
(0.00185315 -6.88347e-05 0)
(0.00129987 -0.000113049 0)
(0.000313937 -0.000716291 0)
(0.00155347 -2.48973e-05 0)
(0.00120389 -0.0001843 0)
(0.00153682 -0.000120276 0)
(0.000106289 -0.000925309 0)
(0.00069146 -0.000449853 0)
(0.00137362 -0.000128192 0)
(0.00153507 -4.02983e-05 0)
(0.00116132 -0.000200113 0)
(0.000198843 -0.000857641 0)
(0.00074354 -0.000381586 0)
(0.000977066 -0.000313975 0)
(0.0012113 -0.00021345 0)
(0.00173651 -0.000106547 0)
(0.00145716 -1.34951e-05 0)
(0.0014388 -0.000104084 0)
(0.000390128 -0.000694873 0)
(0.00141625 -2.73625e-05 0)
(0.00153625 -9.72506e-06 0)
(0.00162047 -0.000181382 0)
(0.0017898 -2.04265e-05 0)
(0.000826396 -0.000325715 0)
(0.000739477 -0.000544819 0)
(0.000150136 -0.000892492 0)
(0.000254756 -0.000790835 0)
(0.00170889 -0.000178172 0)
(0.0018666 -1.78814e-05 0)
(0.00157689 -8.71708e-05 0)
(0.0013064 -7.09724e-05 0)
(8.23339e-05 -0.000952772 0)
(0.000683659 -0.000430957 0)
(0.00102596 -0.000248989 0)
(0.000608547 -0.000495595 0)
(0.000992459 -0.000224605 0)
(0.000460811 -0.000613612 0)
(0.000110505 -0.000810115 0)
(0.00164791 -4.14611e-05 0)
(0.000339143 -0.000715547 0)
(0.00043425 -0.000670475 0)
(0.0013428 -6.32549e-05 0)
(0.00181228 -7.24468e-05 0)
(0.000757366 -0.00039287 0)
(0.00168181 -6.38733e-05 0)
(0.000831959 -0.000324678 0)
(0.0015238 -5.61619e-05 0)
(0.000790936 -0.000338991 0)
(0.000804759 -0.000328016 0)
(0.000753356 -0.00036327 0)
(0.00152184 -1.90011e-05 0)
(0.00135432 -8.47371e-05 0)
(0.00136671 -6.08048e-05 0)
(0.000548855 -0.000576603 0)
(0.00158599 -4.97383e-05 0)
(0.00163039 -4.99298e-06 0)
(0.00158041 -0.000213846 0)
(0.00177837 -6.43081e-06 0)
(0.000284461 -0.000779471 0)
(0.0014018 -4.04714e-05 0)
(0.00164853 -8.34221e-05 0)
(0.00126424 -8.89908e-05 0)
(0.00142577 -3.87765e-05 0)
(0.00187073 -4.45394e-05 0)
(0.00147659 -2.4019e-05 0)
(0.000321619 -0.000750772 0)
(0.00148496 -4.88336e-06 0)
(0.000131063 -0.000894423 0)
(0.000178954 -0.000831038 0)
(0.00145188 -1.12921e-05 0)
(0.000922261 -0.000278966 0)
(0.00171367 -0.000201644 0)
(0.00188547 -6.01656e-06 0)
(0.00128317 -0.000148433 0)
(0.00122546 -9.85158e-05 0)
(0.00148144 -1.5396e-05 0)
(0.0013467 -0.00022752 0)
(0.00080771 -0.000330479 0)
(0.000674061 -0.000504551 0)
(0.00109437 -0.000165191 0)
(0.00172685 -0.000138209 0)
(0.00144017 -2.17615e-05 0)
(0.000925865 -0.00030428 0)
(0.00177088 -4.4235e-05 0)
(0.000472765 -0.00060815 0)
(0.00163512 -1.30589e-05 0)
(0.00134455 -0.00011241 0)
(0.00124159 -0.000235077 0)
(0.00150854 -0.000179033 0)
(0.0017036 -2.12734e-05 0)
(0.00126783 -0.00015652 0)
(0.000684644 -0.000410824 0)
(0.0011356 -0.000136974 0)
(0.00146566 -5.09124e-05 0)
(0.00116567 -0.000123553 0)
(0.00135925 -4.88799e-05 0)
(0.000582399 -0.00048083 0)
(0.00105061 -0.000208307 0)
(0.000349934 -0.000717841 0)
(0.000433449 -0.000626649 0)
(0.000814061 -0.000329837 0)
(0.000214591 -0.000842169 0)
(0.00134695 -7.31473e-05 0)
(0.000360704 -0.00066859 0)
(0.00085008 -0.000356337 0)
(0.00134516 -0.00014718 0)
(0.0012706 -9.10116e-05 0)
(0.0018004 -0.000105739 0)
(0.000941474 -0.000243563 0)
(0.00161616 -6.08079e-05 0)
(0.00195716 -4.5634e-06 0)
(0.0017978 -0.000189002 0)
(0.000955431 -0.000270284 0)
(0.0014817 -1.02162e-05 0)
(0.00139939 -6.54313e-05 0)
(0.00013936 -0.000906713 0)
(0.00166255 -0.000135439 0)
(0.00113456 -0.000164459 0)
(0.0011511 -0.000163115 0)
(0.00182 -0.000140519 0)
(0.00103508 -0.000204889 0)
(0.000676824 -0.000429956 0)
(0.00154131 -3.5276e-06 0)
(0.00126787 -0.00011102 0)
(0.00167069 -5.26695e-06 0)
(0.00150856 -0.000161404 0)
(0.00168445 -2.88136e-05 0)
(0.00166535 -9.47722e-05 0)
(0.00156471 -0.000172536 0)
(0.00173834 -2.46226e-05 0)
(0.00181528 -4.96068e-05 0)
(0.000387694 -0.000689159 0)
(0.00179973 -3.7888e-05 0)
(0.000705324 -0.000397362 0)
(0.000252075 -0.000802698 0)
(0.00117218 -0.000136546 0)
(0.00136308 -4.47207e-05 0)
(0.00190575 -5.22566e-05 0)
(0.00140776 -7.57155e-05 0)
(0.00163669 -0.000191335 0)
(0.00181325 -1.54572e-05 0)
(0.000582705 -0.000491054 0)
(0.00180295 -6.55027e-05 0)
(0.00138209 -0.000102084 0)
(0.000830205 -0.000341155 0)
(0.00146832 -5.74497e-05 0)
(0.001692 -7.03458e-05 0)
(0.00192152 -6.84072e-05 0)
(0.000870223 -0.000286924 0)
(0.00196036 -3.52423e-05 0)
(0.00122449 -0.000127388 0)
(0.00162859 -0.000162886 0)
(0.00166482 -0.000155133 0)
(0.00177921 -2.93173e-05 0)
(0.00160005 -2.61855e-05 0)
(0.00172832 -0.000117321 0)
(0.000296071 -0.000769332 0)
(0.00141854 -0.000223143 0)
(0.00123584 -9.27096e-05 0)
(0.00140395 -0.000113778 0)
(0.00162812 -7.57717e-05 0)
(0.00147449 -3.25574e-05 0)
(0.001496 -1.87812e-05 0)
(0.00183248 -8.43578e-05 0)
(0.00189318 -9.71534e-05 0)
(0.00105259 -0.000178086 0)
(0.00137147 -4.32611e-05 0)
(0.00140791 -3.30689e-05 0)
(0.0004203 -0.000717744 0)
(0.00141536 -7.7945e-05 0)
(0.00174874 -7.02851e-05 0)
(0.0014242 -2.62766e-05 0)
(0.00192419 -1.2723e-05 0)
(0.00177278 -0.000175821 0)
(0.00168092 -0.000169924 0)
(0.00182682 -2.69611e-05 0)
(0.00193821 -5.38579e-05 0)
(0.0011111 -0.000151523 0)
(0.00108719 -0.000346915 0)
(0.000908221 -0.000278056 0)
(0.00132824 -6.75879e-05 0)
(0.00122856 -0.000186054 0)
(0.00158367 -6.75205e-05 0)
(0.000190773 -0.000848989 0)
(0.00134783 -0.000186539 0)
(0.00161132 -0.000109557 0)
(0.00174914 -4.10728e-05 0)
(0.000680008 -0.00041891 0)
(0.00161025 -0.000212316 0)
(0.00180095 -6.26993e-06 0)
(0.00158981 -0.000191044 0)
(0.00177166 -1.62431e-05 0)
(0.000705879 -0.000461115 0)
(0.000645144 -0.000553751 0)
(0.00151034 -0.000109414 0)
(0.00136517 -4.98903e-05 0)
(0.00152668 -3.27718e-06 0)
(0.00145482 -2.29677e-05 0)
(0.00161721 -0.000146035 0)
(0.00141924 -4.21224e-05 0)
(0.0013144 -6.19339e-05 0)
(4.44965e-05 -0.000932164 0)
(0.00161197 -4.08682e-06 0)
(0.00137219 -7.52867e-05 0)
(0.00144173 -0.000177071 0)
(0.00165707 -2.09633e-05 0)
(0.00175015 -8.59441e-05 0)
(0.00117634 -0.000173649 0)
(0.00115309 -0.000250598 0)
(0.00041823 -0.000703403 0)
(0.00151235 -2.50933e-05 0)
(0.0006304 -0.000448417 0)
(0.0015213 -4.86358e-05 0)
(0.00100177 -0.000226789 0)
(0.00166411 -1.05474e-05 0)
(0.00130613 -6.54054e-05 0)
(0.000850377 -0.000499859 0)
(0.000906498 -0.000262199 0)
(0.000994872 -0.000209607 0)
(0.00101283 -0.000200781 0)
(0.00151079 -8.78398e-06 0)
(0.00115657 -0.00013289 0)
(0.000618715 -0.000474329 0)
(0.000865861 -0.00031315 0)
(0.00194367 -2.39759e-05 0)
(0.00191307 -4.45817e-05 0)
(0.00176788 -0.000141238 0)
(3.26653e-05 -0.00096706 0)
(0.00197526 -2.51968e-05 0)
(0.000978027 -0.000413528 0)
(0.00155075 -0.000108491 0)
(0.00146393 -1.4313e-05 0)
(0.0014747 -0.000117824 0)
(0.00158337 -0.000130799 0)
(0.00157716 -0.000121266 0)
(0.00167396 -5.17976e-05 0)
(0.00169684 -4.66006e-05 0)
(0.00152947 -0.000143935 0)
(0.00167622 -3.76473e-05 0)
(0.00060181 -0.000632526 0)
(0.00178976 -9.96792e-05 0)
(0.000491677 -0.000604287 0)
(0.000835111 -0.000420066 0)
(0.00195362 -4.1272e-05 0)