/*--------------------------------*- C++ -*----------------------------------*\
| =========                 |                                                 |
| \\      /  F ield         | OpenFOAM: The Open Source CFD Toolbox           |
|  \\    /   O peration     | Version:  v2012                                 |
|   \\  /    A nd           | Website:  www.openfoam.com                      |
|    \\/     M anipulation  |                                                 |
\*---------------------------------------------------------------------------*/
FoamFile
{
    version     2.0;
    format      ascii;
    class       volSymmTensorField;
    location    "7";
    object      epsilon;
}
// * * * * * * * * * * * * * * * * * * * * * * * * * * * * * * * * * * * * * //

dimensions      [0 0 0 0 0 0 0];


internalField   nonuniform List<symmTensor> 
16000
(
(0.00641435 -0.000103593 7.00266e-20 -0.00412174 2.28837e-18 1.01636e-32)
(0.00623147 -9.90798e-05 2.20987e-18 -0.00390613 2.17744e-18 0)
(0.00604737 -9.49699e-05 -4.95757e-20 -0.00366964 -2.03731e-18 0)
(0.00586429 -9.04692e-05 3.87082e-18 -0.00345594 -3.81282e-18 0)
(0.00568224 -8.62761e-05 -1.90186e-18 -0.00322852 -1.38096e-20 0)
(0.00549994 -8.20668e-05 1.90448e-27 -0.00301837 8.93665e-25 0)
(0.00531739 -7.76756e-05 -1.85194e-18 -0.00279775 -3.12376e-18 0)
(0.00513521 -7.33661e-05 1.18245e-19 -0.00259121 2.87674e-18 0)
(0.00495145 -6.91583e-05 -1.52064e-18 -0.00237714 1.2976e-18 0)
(0.00476689 -6.43878e-05 -3.07709e-18 -0.00217318 -1.25412e-18 0)
(0.00458169 -5.91179e-05 -1.36696e-18 -0.00196681 1.06574e-18 0)
(0.00439826 -5.52699e-05 1.35979e-18 -0.00177002 2.80554e-20 0)
(0.00421062 -5.23988e-05 -2.69253e-26 -0.00156951 -1.83645e-25 0)
(0.00401513 -4.74589e-05 1.52462e-19 -0.00136178 1.511e-18 0)
(0.00382381 -3.79393e-05 3.36232e-18 -0.00118095 -5.52157e-19 0)
(0.00365668 -2.6559e-05 -1.2555e-19 -0.00107757 -1.19531e-18 0)
(0.00351126 -1.66862e-05 5.36966e-20 -0.00100604 5.57935e-19 0)
(0.00338258 -9.21582e-06 -1.182e-27 -0.000942584 9.3696e-26 0)
(0.00326789 -3.35756e-06 -1.65156e-26 -0.00089019 -8.64046e-26 0)
(0.00316468 1.29089e-06 -1.7629e-18 -0.000845662 4.03157e-19 0)
(0.00307117 5.04407e-06 -3.23978e-20 -0.000807249 -4.4758e-19 0)
(0.00298584 8.07917e-06 -8.90185e-19 -0.000774755 -8.90587e-19 0)
(0.00290753 1.05973e-05 -8.02257e-19 -0.000746245 -3.08089e-20 0)
(0.00283529 1.26761e-05 -7.50901e-19 -0.000722043 3.70161e-19 0)
(0.00276829 1.44281e-05 2.17587e-20 -0.000700659 3.88428e-19 0)
(0.00270599 1.59124e-05 7.05442e-19 -0.000682463 -3.49476e-19 0)
(0.00264766 1.71595e-05 -1.40613e-18 -0.000666326 -5.65163e-20 0)
(0.00259308 1.82592e-05 7.1603e-19 -0.000652629 7.51251e-19 0)
(0.00254156 1.91572e-05 1.30913e-18 -0.00064044 -3.00726e-19 0)
(0.00249311 1.9997e-05 -1.30234e-18 -0.00063019 -4.02605e-19 0)
(0.00244706 2.06598e-05 0 -0.000621046 0 0)
(0.00240352 2.13082e-05 -1.28017e-20 -0.000613458 -3.40053e-19 0)
(0.00236197 2.18391e-05 -5.93712e-19 -0.000606734 -2.52545e-20 0)
(0.00232234 2.23252e-05 -5.67236e-19 -0.00060118 3.08406e-19 0)
(0.00228448 2.27514e-05 -5.64196e-19 -0.000596355 -2.44549e-20 0)
(0.00224801 2.31184e-05 -1.111e-18 -0.000592368 -3.76519e-19 0)
(0.00221318 2.34389e-05 -1.0744e-18 -0.000589025 -4.74694e-20 0)
(0.00217923 2.37284e-05 2.81339e-20 -0.000586224 9.74863e-19 0)
(0.00214691 2.39363e-05 5.03239e-19 -0.000584054 -3.00668e-19 0)
(0.00211493 2.41845e-05 -5.26686e-19 -0.000582088 -9.90772e-19 0)
(0.00638735 -0.000309448 -2.14158e-18 -0.00409565 1.17342e-18 2.44872e-33)
(0.00620411 -0.000295926 6.61049e-18 -0.00387983 2.1291e-18 0)
(0.00602007 -0.000283438 1.77033e-18 -0.00364352 -4.04026e-18 0)
(0.00583743 -0.000270484 -1.57125e-19 -0.00343052 -1.95075e-18 0)
(0.0056533 -0.000257353 -1.57621e-18 -0.00320105 3.55417e-18 0)
(0.00546955 -0.000244573 5.76335e-26 -0.00298992 4.4265e-25 0)
(0.00528573 -0.000231365 -3.40241e-19 -0.00276839 -3.05457e-18 0)
(0.00510038 -0.00021805 -1.29733e-18 -0.00255945 2.79579e-18 0)
(0.00491618 -0.000205076 3.70846e-18 -0.00234525 4.01803e-18 0)
(0.00473177 -0.000191868 -3.18764e-18 -0.00214254 -1.27875e-18 0)
(0.00454555 -0.00017715 -3.94508e-19 -0.00193512 -2.13129e-18 0)
(0.00435661 -0.000163495 2.49475e-18 -0.00173278 -8.21267e-19 0)
(0.00416926 -0.000154366 -1.05944e-18 -0.00153278 7.64304e-19 0)
(0.00397805 -0.000140642 9.78041e-19 -0.00133273 -6.43814e-19 0)
(0.00379124 -0.000110324 4.3366e-18 -0.00116381 -2.76909e-19 0)
(0.00363506 -7.55304e-05 1.82862e-19 -0.00107262 5.90531e-19 0)
(0.00349663 -4.81556e-05 1.58115e-19 -0.00100641 5.5369e-19 0)
(0.00337291 -2.69785e-05 1.96259e-18 -0.000945785 1.92169e-19 0)
(0.00326193 -1.0111e-05 1.18259e-18 -0.000895633 1.0791e-18 0)
(0.00316134 3.38146e-06 1.9119e-18 -0.000852379 6.6394e-19 0)
(0.00306975 1.43309e-05 -1.93239e-19 -0.000814807 -8.9469e-19 0)
(0.00298583 2.32921e-05 -8.60626e-20 -0.000782775 -4.25371e-19 0)
(0.00290853 3.07387e-05 -8.03354e-19 -0.00075449 -8.37348e-20 0)
(0.00283708 3.6924e-05 7.77378e-19 -0.00073036 8.98316e-20 0)
(0.00277062 4.22077e-05 -6.52247e-20 -0.000708922 -3.88746e-19 0)
(0.00270876 4.66113e-05 7.86623e-19 -0.000690627 4.57531e-19 0)
(0.00265072 5.0507e-05 -1.40898e-18 -0.000674314 -1.54758e-19 0)
(0.00259639 5.37269e-05 -1.02272e-19 -0.000660444 -7.27317e-19 0)
(0.00254503 5.66818e-05 7.57692e-19 -0.000648036 7.81494e-19 0)
(0.00249668 5.91277e-05 4.46676e-20 -0.000637564 3.55738e-19 0)
(0.00245074 6.13662e-05 -1.33791e-18 -0.000628201 -8.38392e-19 0)
(0.00240714 6.33521e-05 0 -0.000620328 0 0)
(0.0023657 6.49474e-05 -5.59062e-19 -0.000613409 2.66564e-19 0)
(0.002326 6.65321e-05 6.14439e-19 -0.0006076 4.07125e-19 0)
(0.00228821 6.76789e-05 -5.33294e-19 -0.00060257 2.62782e-19 0)
(0.0022517 6.89285e-05 -5.51406e-19 -0.00059838 -6.34872e-20 0)
(0.0022169 6.97362e-05 -5.96881e-19 -0.000594819 -7.14258e-19 0)
(0.00218294 7.07363e-05 -5.25946e-19 -0.00059186 -6.72059e-20 0)
(0.00215061 7.1235e-05 1.54111e-18 -0.000589461 1.96122e-19 0)
(0.00211864 7.20865e-05 -9.21135e-19 -0.000587371 4.13583e-19 0)
(0.00633497 -0.000512009 -2.58467e-18 -0.00404491 -2.16651e-18 1.01399e-32)
(0.00614962 -0.000489185 1.90085e-18 -0.00382754 -2.1887e-18 0)
(0.00596372 -0.000467566 4.91662e-19 -0.00358969 3.96729e-18 0)
(0.00577948 -0.000446088 -1.96228e-18 -0.00337562 2.67542e-20 0)
(0.00559413 -0.000424293 -6.75804e-26 -0.00314545 -4.8977e-25 0)
(0.00540912 -0.000402541 1.52316e-18 -0.00293342 -1.5834e-18 0)
(0.00522253 -0.000380425 1.42706e-18 -0.00270983 -1.46202e-18 0)
(0.00503492 -0.000358068 -3.27467e-18 -0.00249943 -1.25228e-19 0)
(0.00484729 -0.000334494 3.72979e-18 -0.00228296 2.64883e-18 0)
(0.00466026 -0.000312556 3.29075e-18 -0.00207856 1.34056e-18 0)
(0.00447338 -0.000291094 -3.82983e-18 -0.00187242 -3.32613e-18 0)
(0.00428015 -0.000267649 -9.91897e-19 -0.00166624 7.82369e-19 0)
(0.00408328 -0.000246162 -8.94147e-19 -0.00145564 6.68766e-19 0)
(0.00389794 -0.00022008 -1.12823e-18 -0.00127275 -2.08963e-18 0)
(0.00373607 -0.000172225 -1.13368e-18 -0.00114191 -1.64322e-19 0)
(0.00359678 -0.000117224 5.85787e-19 -0.00106789 1.1586e-18 0)
(0.00347038 -7.5592e-05 -1.28129e-18 -0.00100746 -7.0328e-19 0)
(0.00335545 -4.33958e-05 7.51992e-19 -0.000953073 -3.69823e-19 0)
(0.00325092 -1.68949e-05 -9.42283e-19 -0.0009062 -1.58991e-19 0)
(0.00315502 4.27056e-06 3.05579e-18 -0.000865395 1.36904e-18 0)
(0.00306697 2.1856e-05 1.58835e-19 -0.000829269 4.4671e-19 0)
(0.00298559 3.63089e-05 6.92128e-19 -0.000798093 -2.87804e-19 0)
(0.00291029 4.85251e-05 1.48511e-18 -0.000770278 -1.27983e-19 0)
(0.0028402 5.87248e-05 7.77905e-19 -0.00074625 1.32517e-19 0)
(0.0027749 6.75253e-05 1.08157e-19 -0.000724812 3.89184e-19 0)
(0.00271375 7.49336e-05 -6.31603e-19 -0.000706245 2.44173e-19 0)
(0.00265636 8.14401e-05 9.15135e-20 -0.000689698 3.69932e-19 0)
(0.00260242 8.69672e-05 -7.71453e-19 -0.000675401 -4.88511e-19 0)
(0.00255131 9.1828e-05 -2.08117e-18 -0.000662587 -7.34071e-19 0)
(0.00250331 9.60892e-05 2.0922e-18 -0.000651725 1.06736e-18 0)
(0.00245724 9.97016e-05 1.23884e-21 -0.00064177 6.22193e-21 0)
(0.00241418 0.000103119 1.10125e-18 -0.000633713 -4.36988e-19 0)
(0.00237265 0.000105967 1.13692e-18 -0.00062631 -9.74777e-20 0)
(0.00233324 0.000108571 5.57606e-20 -0.000620181 3.26197e-19 0)
(0.00229542 0.000110778 1.0769e-19 -0.000614754 6.58225e-19 0)
(0.002259 0.000112793 5.03382e-19 -0.000610167 -2.159e-19 0)
(0.00222419 0.000114409 5.41252e-19 -0.000606247 1.09172e-19 0)
(0.00219025 0.00011603 4.82414e-19 -0.000602895 -2.09579e-19 0)
(0.00215791 0.000117071 5.15841e-19 -0.000600142 1.0351e-19 0)
(0.00212593 0.000118469 2.6904e-19 -0.000597703 1.5095e-18 0)
(0.00625622 -0.000708277 -2.51877e-19 -0.00396858 -1.10053e-18 2.47598e-33)
(0.00606835 -0.000675683 -4.24905e-18 -0.0037498 4.68592e-20 0)
(0.00587862 -0.000645129 4.23707e-21 -0.00350831 2.36694e-20 0)
(0.00568995 -0.000613953 -2.31462e-18 -0.0032909 -1.87718e-18 0)
(0.00550225 -0.000582968 -1.8631e-18 -0.00305903 -4.42097e-20 0)
(0.00531398 -0.000552454 -3.95893e-19 -0.00284498 -1.59533e-18 0)
(0.00512487 -0.000521338 4.07816e-19 -0.00261965 1.44908e-18 0)
(0.00493639 -0.000490035 -1.18964e-18 -0.00241012 1.24399e-18 0)
(0.00474646 -0.000456894 -1.97341e-18 -0.00219325 -1.31349e-18 0)
(0.00455394 -0.00042325 4.27362e-18 -0.00198506 3.51921e-18 0)
(0.00436069 -0.000392609 1.87519e-18 -0.00177343 1.15864e-18 0)
(0.00416274 -0.000364155 -3.60762e-18 -0.00156638 -2.03952e-18 0)
(0.00396474 -0.000328615 1.23689e-18 -0.00135653 1.97925e-19 0)
(0.00379284 -0.000278591 6.76252e-19 -0.00120014 -4.23282e-19 0)
(0.00366717 -0.000214369 -3.7959e-18 -0.00111982 -1.23015e-18 0)
(0.00354793 -0.000149901 -6.80381e-19 -0.00106669 3.50602e-19 0)
(0.003436 -9.9232e-05 -2.04293e-18 -0.00101131 -4.24158e-19 0)
(0.00333225 -5.86977e-05 -1.95886e-18 -0.000964951 -4.19987e-19 0)
(0.00323566 -2.48806e-05 -9.3641e-19 -0.000921396 -2.00014e-19 0)
(0.00314591 2.82955e-06 2.43564e-21 -0.000883729 4.66604e-21 0)
(0.00306239 2.61021e-05 8.7223e-19 -0.000849236 2.03101e-19 0)
(0.00298455 4.56583e-05 2.47675e-19 -0.000819204 -1.08684e-18 0)
(0.00291186 6.22464e-05 1.62067e-18 -0.000791954 3.8353e-19 0)
(0.00284389 7.64105e-05 -1.23986e-18 -0.000768173 4.21194e-19 0)
(0.0027801 8.86036e-05 -6.09144e-19 -0.000746707 2.0056e-19 0)
(0.0027203 9.90498e-05 -1.33205e-18 -0.000727985 1.23312e-20 0)
(0.00266378 0.00010829 0 -0.000711108 0 0)
(0.00261075 0.00011605 8.11159e-19 -0.000696499 5.40337e-19 0)
(0.00256017 0.000123287 4.55086e-19 -0.000683229 -5.27573e-19 0)
(0.00251268 0.000129145 -8.60106e-19 -0.000671943 -8.72759e-19 0)
(0.00246705 0.000134897 1.81117e-18 -0.000661532 1.59074e-19 0)
(0.00242364 0.000140098 -1.80124e-19 -0.00065262 -6.82581e-19 0)
(0.00238268 0.000143934 -3.51835e-19 -0.00064482 8.32287e-19 0)
(0.00234307 0.000148004 2.39119e-19 -0.000638076 9.97325e-19 0)
(0.00230555 0.000150935 1.14652e-18 -0.000632095 3.18284e-19 0)
(0.00226913 0.000154079 -7.14783e-20 -0.000627086 -3.24679e-19 0)
(0.00223441 0.000156305 -1.3718e-19 -0.000622532 -6.44554e-19 0)
(0.00220057 0.0001588 -1.11513e-21 -0.000618855 -5.45275e-21 0)
(0.00216821 0.000160318 6.40724e-20 -0.000615449 3.21258e-19 0)
(0.00213634 0.000162428 5.08157e-19 -0.000612732 1.46034e-19 0)
(0.006151 -0.000895819 2.18823e-18 -0.00386692 -1.13398e-19 1.19924e-36)
(0.00596149 -0.000853674 -2.53587e-18 -0.00364748 -2.00144e-18 0)
(0.00576859 -0.000814045 4.4751e-18 -0.00340324 1.90252e-18 0)
(0.00557626 -0.00077308 4.82934e-19 -0.00318331 1.81246e-18 0)
(0.00538295 -0.000731782 -2.32103e-18 -0.00294686 -1.67815e-18 0)
(0.00518791 -0.000690765 7.40181e-19 -0.00272773 -2.91142e-18 0)
(0.00499445 -0.000648604 -3.3388e-18 -0.00250002 -2.25821e-19 0)
(0.00480071 -0.000606681 5.31423e-18 -0.00228725 1.66856e-18 0)
(0.0046065 -0.000564934 -2.08015e-18 -0.00206828 -1.29183e-18 0)
(0.0044092 -0.000523402 8.37922e-19 -0.00185755 -8.18069e-19 0)
(0.00420608 -0.000482373 7.35952e-18 -0.00163725 1.91309e-18 0)
(0.0040068 -0.000441265 1.92398e-18 -0.00142985 9.99478e-19 0)
(0.00382961 -0.000389474 -2.51421e-18 -0.00125673 -1.58582e-18 0)
(0.00369821 -0.000319292 5.89357e-19 -0.0011585 5.8962e-19 0)
(0.0035972 -0.000241721 -4.20527e-20 -0.00110853 8.85175e-19 0)
(0.00349548 -0.000174631 -1.65283e-18 -0.00106486 1.6509e-20 0)
(0.00339767 -0.000119905 2.04637e-18 -0.00101859 5.40244e-19 0)
(0.00330494 -7.35476e-05 -7.43418e-19 -0.000978465 -9.96531e-19 0)
(0.00321692 -3.45911e-05 1.21322e-18 -0.000939374 -4.40159e-19 0)
(0.00313391 -1.60695e-06 -2.73068e-18 -0.000904987 -7.77858e-19 0)
(0.00305568 2.65605e-05 2.62723e-18 -0.000872632 7.56692e-19 0)
(0.00298196 5.05905e-05 3.4428e-19 -0.000844124 -6.08216e-19 0)
(0.00291263 7.14184e-05 -2.81488e-18 -0.000817749 -1.56332e-19 0)
(0.00284714 8.92701e-05 6.28376e-19 -0.000794472 1.20304e-18 0)
(0.00278559 0.000105038 -5.7222e-19 -0.000773244 1.55075e-19 0)
(0.00272717 0.000118493 1.48585e-18 -0.000754374 4.6905e-19 0)
(0.00267224 0.000130694 1.11309e-18 -0.000737477 -2.80256e-19 0)
(0.00261982 0.000140932 -3.04507e-19 -0.000722233 -7.24908e-19 0)
(0.00257022 0.000150453 2.17358e-18 -0.000708773 1.00758e-18 0)
(0.00252316 0.000158384 -6.57622e-19 -0.00069664 -2.11191e-19 0)
(0.00247675 0.000165341 -1.2487e-19 -0.000685082 -3.44009e-19 0)
(0.00243556 0.000172137 -3.92576e-19 -0.000676454 4.68135e-19 0)
(0.00239468 0.000178059 -2.54158e-18 -0.000668156 -1.15385e-18 0)
(0.00235558 0.000182997 -2.06514e-19 -0.000660681 -6.62026e-19 0)
(0.00231828 0.000187619 1.92257e-19 -0.00065426 6.43842e-19 0)
(0.00228194 0.000191539 9.21877e-20 -0.000648431 3.21731e-19 0)
(0.00224739 0.000194954 5.51319e-19 -0.000643377 1.96064e-19 0)
(0.00221358 0.000198203 -6.21201e-19 -0.000639 -5.0494e-19 0)
(0.00218132 0.000200509 4.43617e-19 -0.000635025 -1.26477e-19 0)
(0.00214947 0.000203336 7.84767e-20 -0.000631745 3.13138e-19 0)
(0.00601791 -0.00107215 2.56103e-18 -0.00373845 8.8625e-19 2.55303e-33)
(0.00582331 -0.00101931 3.60233e-18 -0.00351548 -1.9727e-18 0)
(0.00562556 -0.000969126 -2.5517e-18 -0.00326723 -1.87122e-18 0)
(0.00542826 -0.000918056 3.04788e-18 -0.00304404 3.40027e-18 0)
(0.00522903 -0.00086647 1.19321e-18 -0.00280315 -1.46067e-18 0)
(0.00502958 -0.000814686 -1.48204e-20 -0.00258172 -3.32411e-20 0)
(0.0048306 -0.0007615 -3.90955e-18 -0.00235099 -1.56117e-18 0)
(0.00463105 -0.000708925 -3.12735e-18 -0.00213479 -4.06748e-19 0)
(0.0044293 -0.000656212 2.18731e-18 -0.00191081 1.2539e-18 0)
(0.00422538 -0.000605511 -2.225e-18 -0.00169526 -2.71178e-18 0)
(0.0040199 -0.000553886 -1.86813e-18 -0.00147659 2.072e-19 0)
(0.00383536 -0.000495633 4.35627e-18 -0.00129418 2.95344e-18 0)
(0.00370363 -0.000423744 7.62517e-19 -0.00118218 6.11158e-19 0)
(0.0036163 -0.000341898 -1.80267e-18 -0.00113998 -8.80829e-19 0)
(0.00353028 -0.000263062 2.80128e-18 -0.00110519 1.19212e-18 0)
(0.00344291 -0.000195739 -1.06991e-18 -0.00106686 -1.05763e-18 0)
(0.00335773 -0.000138345 1.05706e-18 -0.00102916 -4.04955e-19 0)
(0.00327486 -8.86357e-05 1.95975e-18 -0.0009937 6.2041e-19 0)
(0.00319523 -4.59005e-05 -7.12142e-19 -0.000959129 7.91159e-19 0)
(0.00311891 -8.80783e-06 -1.25748e-18 -0.000927676 -7.40543e-19 0)
(0.00304621 2.32734e-05 -1.31421e-18 -0.000897732 -1.75862e-18 0)
(0.00297696 5.13919e-05 1.19495e-18 -0.000870729 1.69086e-18 0)
(0.00291126 7.5731e-05 -1.36307e-18 -0.000845537 -1.57529e-19 0)
(0.00284878 9.74025e-05 5.43314e-19 -0.000822806 -1.13806e-19 0)
(0.00278958 0.000116048 -2.31889e-19 -0.00080201 -3.85513e-19 0)
(0.00273327 0.000132983 3.14252e-19 -0.000783101 -4.83654e-19 0)
(0.00267982 0.000147404 2.57357e-18 -0.000766187 1.54486e-18 0)
(0.00262917 0.000160554 -7.04139e-19 -0.000750625 -2.6565e-19 0)
(0.00258055 0.000172031 -1.5434e-18 -0.000737 -8.79791e-19 0)
(0.00253546 0.000181164 1.60689e-19 -0.000724585 3.41053e-19 0)
(0.0024903 0.000191578 -1.44672e-18 -0.000713395 -8.48234e-19 0)
(0.00244711 0.000201188 -3.55565e-19 -0.000703634 4.11371e-19 0)
(0.00240783 0.000207172 8.81875e-19 -0.00069445 9.08899e-19 0)
(0.00236896 0.000213783 -1.3226e-18 -0.000686983 -8.09422e-19 0)
(0.00233199 0.000219489 -1.16877e-18 -0.000679363 -4.78541e-19 0)
(0.00229624 0.00022461 3.46089e-19 -0.000673513 -3.96796e-19 0)
(0.00226175 0.000229174 -1.0877e-19 -0.000667398 -3.17254e-19 0)
(0.00222845 0.000233377 -8.77203e-22 -0.000662824 -2.65747e-21 0)
(0.00219619 0.00023664 -5.32105e-19 -0.00065793 -2.29805e-19 0)
(0.00216471 0.000240265 2.96776e-19 -0.000654333 7.48959e-19 0)
(0.00585572 -0.00123373 1.6102e-18 -0.00358217 -1.12866e-18 2.01779e-33)
(0.00565471 -0.00116864 4.70407e-18 -0.00335506 1.85681e-18 0)
(0.00544965 -0.00110735 -5.64741e-19 -0.00310033 3.44557e-18 0)
(0.00524518 -0.00104455 -4.39623e-18 -0.00287231 -1.74752e-18 0)
(0.00504027 -0.00098131 1.75254e-18 -0.0026277 1.08452e-19 0)
(0.00483737 -0.000918636 7.78461e-19 -0.00240582 1.34377e-18 0)
(0.00463349 -0.000854584 4.75936e-18 -0.002173 2.74853e-18 0)
(0.00442818 -0.000791762 -7.62533e-18 -0.0019541 -2.97682e-18 0)
(0.00421765 -0.000728622 -1.15226e-18 -0.00172367 -2.45767e-18 0)
(0.00400738 -0.000666553 1.78538e-18 -0.00150583 1.55482e-18 0)
(0.00381822 -0.000601275 3.00691e-20 -0.00131052 2.17308e-20 0)
(0.00368571 -0.000525824 -2.0954e-18 -0.00119619 -9.49148e-19 0)
(0.00360861 -0.0004409 2.32927e-18 -0.00115633 7.18605e-19 0)
(0.00354046 -0.000356704 3.99329e-19 -0.0011352 -1.91125e-19 0)
(0.00346677 -0.000281477 2.83281e-18 -0.00110316 1.24838e-18 0)
(0.00339161 -0.000215485 2.70186e-18 -0.0010731 1.23289e-18 0)
(0.00331669 -0.000156745 -1.07589e-18 -0.00104021 -9.85774e-19 0)
(0.00324283 -0.000105171 1.96249e-18 -0.00100973 1.30761e-18 0)
(0.00317076 -5.95651e-05 -1.43692e-18 -0.000978678 -2.2886e-19 0)
(0.00310106 -1.94072e-05 1.91969e-18 -0.00095048 1.38838e-19 0)
(0.00303373 1.60924e-05 -3.6804e-19 -0.00092262 -4.21493e-19 0)
(0.00296931 4.74793e-05 -6.4666e-26 -0.000897772 -7.01809e-26 0)
(0.00290733 7.52821e-05 1.97147e-18 -0.000873469 1.06233e-18 0)
(0.00284841 9.99819e-05 2.9253e-19 -0.000852267 3.91786e-19 0)
(0.00279174 0.000121943 -5.09511e-19 -0.000831393 5.68846e-20 0)
(0.00273807 0.000141508 -2.25935e-18 -0.000813749 -1.74432e-18 0)
(0.00268658 0.000159092 -2.17769e-21 -0.000796054 -3.3966e-21 0)
(0.00263748 0.000174584 1.36219e-18 -0.000781606 1.37174e-18 0)
(0.00259154 0.000189148 3.6914e-21 -0.0007672 6.38727e-21 0)
(0.0025456 0.000201046 1.72174e-21 -0.000755057 3.1056e-21 0)
(0.00249757 0.000216135 -8.00137e-19 -0.000741386 -4.08017e-19 0)
(0.00246126 0.000222434 -8.02636e-19 -0.000733171 -6.15011e-19 0)
(0.00242267 0.000232083 6.20758e-19 -0.00072325 2.82156e-19 0)
(0.00238352 0.000239773 -4.60145e-19 -0.000715234 3.50402e-20 0)
(0.00234686 0.000247006 4.53271e-19 -0.000706658 -3.46245e-20 0)
(0.00231152 0.000253648 -1.34117e-19 -0.000700682 -3.14648e-19 0)
(0.00227723 0.000259111 -4.36693e-19 -0.000693619 3.76379e-20 0)
(0.00224445 0.000264683 1.03434e-21 -0.000688927 2.60418e-21 0)
(0.00221234 0.000268632 -1.73381e-18 -0.000683124 -1.10093e-18 0)
(0.0021813 0.000273388 -2.37734e-19 -0.000679339 -4.43218e-19 0)
(0.00566459 -0.00137743 -2.07125e-18 -0.00339863 1.42088e-19 6.55397e-36)
(0.00545821 -0.00129998 -3.21179e-18 -0.00316864 1.69601e-18 0)
(0.00524601 -0.00122704 4.29064e-18 -0.0029079 4.90648e-18 0)
(0.00503584 -0.00115214 9.95253e-21 -0.00267714 1.76495e-20 0)
(0.00482514 -0.0010762 -4.30093e-18 -0.00242943 -4.14092e-18 0)
(0.00461581 -0.00100101 2.33989e-18 -0.00220463 -7.82687e-19 0)
(0.00440352 -0.000925094 4.30189e-18 -0.00196641 3.35456e-18 0)
(0.00418717 -0.000851016 6.78103e-18 -0.00173908 2.10621e-18 0)
(0.00397152 -0.00077777 -5.75095e-18 -0.00150767 -2.95971e-18 0)
(0.00378086 -0.000703964 -2.0651e-18 -0.00131538 -1.28516e-18 0)
(0.00365267 -0.00062365 4.45612e-18 -0.0011978 1.92211e-18 0)
(0.00358602 -0.000536969 3.06902e-18 -0.0011679 1.50856e-18 0)
(0.00353239 -0.000451168 -8.46253e-19 -0.0011521 -5.37948e-19 0)
(0.00347103 -0.000372475 -1.90102e-18 -0.00113053 -9.3022e-19 0)
(0.0034068 -0.000300329 -2.18116e-18 -0.00110464 -8.07371e-19 0)
(0.00334098 -0.000234949 1.04759e-18 -0.00107907 3.96198e-19 0)
(0.00327459 -0.000175847 -5.97091e-19 -0.00105098 -4.83509e-19 0)
(0.00320856 -0.000122843 9.77607e-20 -0.00102447 5.32111e-19 0)
(0.00314353 -7.51084e-05 2.39735e-18 -0.000997117 1.22535e-18 0)
(0.00307995 -3.25197e-05 -2.29171e-18 -0.000971811 -1.68856e-18 0)
(0.00301815 5.8839e-06 1.35534e-18 -0.000946639 3.35608e-19 0)
(0.00295835 4.00157e-05 -8.85603e-20 -0.000923657 4.37698e-19 0)
(0.0029006 7.09781e-05 3.57945e-19 -0.000901259 3.95205e-19 0)
(0.00284507 9.83414e-05 -1.48984e-19 -0.000881063 4.01257e-19 0)
(0.00279162 0.000123438 1.88423e-18 -0.000861533 1.10223e-18 0)
(0.00274035 0.000145454 -8.5481e-19 -0.000844208 -1.09353e-18 0)
(0.0026911 0.000165886 -2.48939e-18 -0.000827378 -1.40998e-18 0)
(0.00264373 0.000183928 1.44044e-18 -0.000812764 6.9178e-19 0)
(0.00259855 0.000200357 -7.05898e-19 -0.000798384 -3.49317e-19 0)
(0.00255419 0.000216417 1.32224e-18 -0.000786014 1.33638e-18 0)
(0.00251331 0.000228334 1.8345e-21 -0.000774031 2.96304e-21 0)
(0.00247421 0.000239107 4.53831e-19 -0.000763433 5.10364e-21 0)
(0.00243458 0.000251111 -2.70254e-19 -0.000753727 3.11427e-19 0)
(0.00239764 0.000261083 4.4704e-19 -0.000744774 1.18453e-20 0)
(0.00236154 0.000269624 -1.62563e-19 -0.000736845 -3.10954e-19 0)
(0.00232696 0.000278049 -5.85172e-19 -0.000729521 -3.10619e-19 0)
(0.00229345 0.000284499 -1.46378e-19 -0.000722828 -3.01156e-19 0)
(0.00226104 0.000291471 8.37902e-19 -0.00071694 8.99509e-19 0)
(0.00222959 0.000296252 -5.44656e-19 -0.000711154 -2.97066e-19 0)
(0.00219883 0.000302146 2.75467e-19 -0.000706399 -2.87065e-19 0)
(0.00544252 -0.00149967 1.75789e-20 -0.0031859 2.10914e-20 1.30826e-36)
(0.00522801 -0.00140821 -4.74517e-18 -0.00295125 -1.75259e-18 0)
(0.00500705 -0.00132115 1.84219e-18 -0.00268354 1.26881e-19 0)
(0.00479107 -0.0012329 7.9482e-18 -0.00245106 2.0305e-18 0)
(0.00457474 -0.00114421 -5.30122e-18 -0.00220107 -2.799e-18 0)
(0.00435766 -0.00105741 -2.60571e-18 -0.00197211 -1.31305e-18 0)
(0.00413585 -0.000970529 -4.43897e-18 -0.00172676 -9.84576e-19 0)
(0.00391754 -0.000886918 5.27866e-18 -0.00150146 1.85303e-18 0)
(0.00372992 -0.000803728 1.15285e-18 -0.00130351 6.18745e-19 0)
(0.00360929 -0.000718625 -3.4833e-18 -0.00119784 -1.52431e-18 0)
(0.00355265 -0.000631735 -4.71888e-18 -0.00116948 -1.8536e-18 0)
(0.00350994 -0.000546114 -2.57838e-19 -0.00116362 6.72934e-20 0)
(0.00345898 -0.000465184 -5.50998e-19 -0.00114503 1.35299e-19 0)
(0.00340499 -0.000389697 -3.00954e-19 -0.00112804 6.37872e-20 0)
(0.00334843 -0.000319323 -2.90864e-18 -0.00110566 -1.35389e-18 0)
(0.00329016 -0.000254779 -1.7429e-18 -0.00108427 -9.0986e-19 0)
(0.00323117 -0.000195436 -1.01316e-18 -0.00106004 -4.28789e-19 0)
(0.00317202 -0.000141442 -1.96855e-18 -0.0010372 -8.55536e-19 0)
(0.00311339 -9.21596e-05 2.44684e-18 -0.00101314 1.28011e-18 0)
(0.00305558 -4.75182e-05 -9.93111e-19 -0.000990722 -8.3492e-19 0)
(0.00299906 -6.87779e-06 -2.25587e-18 -0.000968116 -1.24174e-18 0)
(0.00294388 2.9825e-05 -1.11792e-20 -0.000947204 3.81827e-19 0)
(0.00289042 6.32795e-05 1.23942e-18 -0.000926733 7.91944e-19 0)
(0.00283847 9.33798e-05 -1.1825e-18 -0.000907834 -7.7308e-19 0)
(0.0027885 0.000120965 2.37433e-18 -0.000889788 1.18361e-18 0)
(0.00273995 0.000145614 6.36023e-19 -0.000873035 7.0985e-19 0)
(0.0026935 0.000168431 -1.33745e-18 -0.000857436 -1.0747e-18 0)
(0.00264832 0.000188603 2.74314e-19 -0.000842764 3.35624e-19 0)
(0.00260492 0.000207456 2.66179e-19 -0.000829304 3.40784e-19 0)
(0.00256322 0.000224057 4.48489e-19 -0.000816718 4.84025e-20 0)
(0.00252129 0.000239217 1.34387e-18 -0.000804212 7.34974e-19 0)
(0.00248423 0.00025336 -6.56239e-19 -0.00079455 -3.64175e-19 0)
(0.00244677 0.000266045 1.91967e-18 -0.000784771 1.07934e-18 0)
(0.00241074 0.000277442 1.86939e-18 -0.000775784 1.06055e-18 0)
(0.00237603 0.00028771 1.83038e-19 -0.000767466 3.022e-19 0)
(0.0023421 0.000297124 4.22505e-19 -0.000759907 5.11234e-20 0)
(0.00230951 0.000305242 9.97612e-19 -0.000752634 3.93598e-19 0)
(0.00227771 0.0003131 -4.10478e-19 -0.000746489 -4.99451e-20 0)
(0.00224689 0.000319277 9.57349e-19 -0.000740008 3.82055e-19 0)
(0.00221667 0.000325997 5.61056e-19 -0.00073499 2.08598e-19 0)
(0.00518995 -0.00159642 1.63328e-18 -0.00294496 1.50426e-18 7.7948e-33)
(0.00496785 -0.00148963 1.88056e-18 -0.00270749 1.26194e-19 0)
(0.00473979 -0.00138789 -1.42056e-18 -0.00243503 -3.79403e-18 0)
(0.00451844 -0.00128567 4.94621e-18 -0.00220167 3.71337e-18 0)
(0.0042957 -0.00118486 2.29097e-18 -0.00194807 2.02852e-18 0)
(0.00407102 -0.00108763 -3.00568e-18 -0.00171373 -7.04666e-19 0)
(0.00385084 -0.000992315 -2.62135e-18 -0.00147355 -1.09676e-18 0)
(0.00366927 -0.000901905 -3.84198e-18 -0.00129038 -1.61932e-18 0)
(0.00355834 -0.000813046 3.79544e-18 -0.00118634 1.45808e-18 0)
(0.00350988 -0.00072578 1.14417e-18 -0.00116888 5.02954e-19 0)
(0.00347578 -0.000640574 2.14827e-18 -0.00116274 1.00731e-18 0)
(0.00343368 -0.000558894 -1.3581e-18 -0.00115364 -4.43515e-19 0)
(0.00338868 -0.000481015 -8.95711e-19 -0.00113858 -4.71123e-19 0)
(0.0033407 -0.000407727 2.7115e-19 -0.00112434 5.77171e-22 0)
(0.00329049 -0.00033886 1.08591e-18 -0.00110544 4.70739e-19 0)
(0.00323877 -0.000274931 -1.77339e-18 -0.00108754 -9.13051e-19 0)
(0.00318618 -0.000215506 -1.02061e-18 -0.00106687 -4.65227e-19 0)
(0.0031332 -0.000160828 -1.60803e-18 -0.00104737 -8.83085e-19 0)
(0.00308039 -0.000110335 -5.85292e-19 -0.00102648 -4.17671e-19 0)
(0.00302801 -6.41376e-05 5.32101e-19 -0.0010069 3.98168e-19 0)
(0.00297647 -2.1621e-05 -1.79466e-18 -0.000986866 -8.91379e-19 0)
(0.00292586 1.71466e-05 4.11983e-19 -0.000968204 6.46911e-20 0)
(0.00287651 5.27675e-05 4.26835e-19 -0.000949654 3.66336e-19 0)
(0.00282833 8.52128e-05 8.25415e-19 -0.000932456 4.35424e-19 0)
(0.00278164 0.000114957 -1.18133e-25 -0.000915696 -1.0653e-25 0)
(0.00273619 0.000142137 1.90799e-18 -0.000900213 1.19394e-18 0)
(0.0026923 0.00016687 4.29271e-19 -0.000885307 8.27121e-20 0)
(0.00264969 0.000189728 -3.01833e-19 -0.000871611 -3.24381e-19 0)
(0.00260853 0.000210146 4.24681e-19 -0.000858465 8.1472e-20 0)
(0.00256879 0.000229355 -4.343e-19 -0.000846566 -9.46482e-20 0)
(0.00253015 0.00024615 1.18404e-18 -0.000835006 1.01442e-18 0)
(0.0024935 0.000261482 1.91527e-19 -0.000824991 -2.06722e-19 0)
(0.0024572 0.000276066 1.93895e-19 -0.000814953 -2.11491e-19 0)
(0.00242272 0.000288908 -2.10187e-19 -0.000806238 1.9659e-19 0)
(0.00238878 0.000300836 8.1769e-19 -0.00079759 6.68945e-19 0)
(0.00235626 0.000311678 2.19097e-19 -0.000790092 -1.93863e-19 0)
(0.00232438 0.000321175 -4.10139e-19 -0.000782519 -9.79338e-20 0)
(0.00229371 0.000330323 1.50423e-18 -0.000776203 1.2983e-18 0)
(0.00226355 0.000337655 2.25806e-19 -0.000769393 -1.85158e-19 0)
(0.00223418 0.000345503 7.37224e-19 -0.000764059 5.36225e-19 0)
(0.00490202 -0.00166142 -2.79533e-18 -0.00267215 -5.1282e-19 2.348e-33)
(0.00467518 -0.00153918 -4.14659e-18 -0.00243572 -2.84787e-18 0)
(0.00444583 -0.00142514 -3.59317e-25 -0.00216445 -3.41594e-25 0)
(0.00422263 -0.00131194 8.85409e-19 -0.00193297 1.68106e-18 0)
(0.00399547 -0.00120164 4.34217e-18 -0.00167594 1.57322e-18 0)
(0.00377706 -0.00109759 -1.43384e-18 -0.001451 -4.31592e-19 0)
(0.00360098 -0.000998405 1.38951e-18 -0.00126069 4.14393e-19 0)
(0.00350054 -0.000906047 -5.25835e-18 -0.00117578 -1.97543e-18 0)
(0.00345994 -0.000819084 -1.40293e-20 -0.00115674 -5.34272e-21 0)
(0.00343243 -0.000734564 -2.50456e-18 -0.00115973 -1.01117e-18 0)
(0.00339773 -0.000652218 2.27912e-18 -0.00115013 9.60349e-19 0)
(0.00336038 -0.000573359 3.36997e-18 -0.00114374 1.4636e-18 0)
(0.00332 -0.00049769 1.85855e-19 -0.00113074 4.20669e-20 0)
(0.00327723 -0.000426125 1.10788e-18 -0.00111925 4.96672e-19 0)
(0.0032326 -0.000358386 2.97971e-18 -0.00110338 1.42698e-18 0)
(0.00318656 -0.000294971 2.86788e-18 -0.00108863 1.41719e-18 0)
(0.00313968 -0.000235564 -1.01436e-18 -0.00107118 -4.89689e-19 0)
(0.00309226 -0.00018036 3.31322e-19 -0.00105476 8.81474e-20 0)
(0.00304481 -0.000129014 6.23877e-21 -0.00103689 3.97819e-21 0)
(0.0029975 -8.1545e-05 -1.86277e-18 -0.00102004 -9.62433e-19 0)
(0.00295075 -3.75971e-05 -1.58907e-19 -0.00100261 -2.64562e-19 0)
(0.00290457 2.88657e-06 -8.86025e-19 -0.000986193 -4.78085e-19 0)
(0.00285934 4.02765e-05 -3.88229e-19 -0.000969787 -1.13529e-19 0)
(0.00281495 7.45995e-05 3.95379e-19 -0.000954326 1.17632e-19 0)
(0.00277171 0.000106309 -1.2133e-18 -0.000939248 -7.9619e-19 0)
(0.00272948 0.000135261 2.7325e-18 -0.000925048 1.68815e-18 0)
(0.0026884 0.00016213 5.74479e-26 -0.00091139 4.92701e-26 0)
(0.00264855 0.000186435 3.28638e-19 -0.000898619 3.10681e-19 0)
(0.00260959 0.000209207 -9.85871e-20 -0.000886297 1.78896e-19 0)
(0.0025722 0.000229625 -9.95503e-19 -0.000875082 -7.31207e-19 0)
(0.00253527 0.000248826 1.39848e-19 -0.000863942 -1.59241e-19 0)
(0.00250035 0.000266592 6.68971e-19 -0.000854393 4.20917e-19 0)
(0.0024658 0.000282147 -1.62705e-19 -0.000844582 1.53569e-19 0)
(0.00243271 0.000297024 -6.37756e-19 -0.00083614 -4.1177e-19 0)
(0.00240026 0.000309937 -8.47148e-19 -0.000827479 -6.88211e-19 0)
(0.00236893 0.000322323 8.21742e-19 -0.000820111 6.79982e-19 0)
(0.00233826 0.000332932 -2.1913e-18 -0.000812327 -1.7395e-18 0)
(0.00230863 0.000343271 9.7547e-19 -0.000806035 5.25995e-19 0)
(0.00227944 0.000351746 5.29141e-26 -0.000798861 6.33963e-26 0)
(0.00225095 0.00036056 4.10689e-19 -0.000793456 3.69448e-19 0)
(0.0045892 -0.00169456 3.95561e-18 -0.00237869 9.6981e-19 8.10409e-33)
(0.00436253 -0.0015584 -1.26559e-18 -0.00214796 -1.09929e-18 0)
(0.00413514 -0.00143493 -7.3323e-18 -0.00188059 -3.51819e-18 0)
(0.00391268 -0.00131449 2.92942e-18 -0.00165135 1.18437e-18 0)
(0.00369446 -0.00119893 4.3126e-18 -0.0014052 1.70656e-18 0)
(0.0035277 -0.00109459 1.40257e-18 -0.00123816 5.09044e-19 0)
(0.00343776 -0.0010001 2.68608e-18 -0.001152 1.05316e-18 0)
(0.00340385 -0.000912558 1.52245e-20 -0.00114629 5.07249e-21 0)
(0.00338144 -0.000828669 -1.38843e-20 -0.00114422 -8.55595e-20 0)
(0.00335292 -0.000746374 -1.22094e-18 -0.00114438 -5.21329e-19 0)
(0.00332181 -0.00066634 -3.41217e-18 -0.00113658 -1.38935e-18 0)
(0.00328807 -0.000589378 2.20521e-18 -0.00113181 9.52075e-19 0)