/*--------------------------------*- C++ -*----------------------------------*\
| =========                 |                                                 |
| \\      /  F ield         | OpenFOAM: The Open Source CFD Toolbox           |
|  \\    /   O peration     | Version:  v2012                                 |
|   \\  /    A nd           | Website:  www.openfoam.com                      |
|    \\/     M anipulation  |                                                 |
\*---------------------------------------------------------------------------*/
FoamFile
{
    version     2.0;
    format      ascii;
    class       volScalarField;
    location    "7";
    object      sigmaEq;
}
// * * * * * * * * * * * * * * * * * * * * * * * * * * * * * * * * * * * * * //

dimensions      [1 -1 -2 0 0 0 0];


internalField   nonuniform List<scalar> 
16000
(
2.43e+08
2.43e+08
2.43e+08
2.43e+08
2.43e+08
2.43e+08
2.43e+08
2.43e+08
2.43e+08
2.43e+08
2.43e+08
2.43e+08
2.43e+08
2.43e+08
2.43e+08
2.31444e+08
2.21191e+08
2.12122e+08
2.04195e+08
1.97158e+08
1.90854e+08
1.85194e+08
1.80048e+08
1.75376e+08
1.7108e+08
1.67145e+08
1.63494e+08
1.60126e+08
1.56974e+08
1.54052e+08
1.51296e+08
1.48727e+08
1.46295e+08
1.44005e+08
1.41835e+08
1.39769e+08
1.37812e+08
1.35922e+08
1.34141e+08
1.32385e+08
2.43e+08
2.43e+08
2.43e+08
2.43e+08
2.43e+08
2.43e+08
2.43e+08
2.43e+08
2.43e+08
2.43e+08
2.43e+08
2.43e+08
2.43e+08
2.43e+08
2.41869e+08
2.30222e+08
2.20475e+08
2.11741e+08
2.04077e+08
1.97222e+08
1.91052e+08
1.8549e+08
1.80414e+08
1.75794e+08
1.71535e+08
1.6763e+08
1.63997e+08
1.60646e+08
1.57504e+08
1.54588e+08
1.51839e+08
1.49266e+08
1.46839e+08
1.44545e+08
1.42378e+08
1.40309e+08
1.38351e+08
1.36461e+08
1.34675e+08
1.32921e+08
2.43e+08
2.43e+08
2.43e+08
2.43e+08
2.43e+08
2.43e+08
2.43e+08
2.43e+08
2.43e+08
2.43e+08
2.43e+08
2.43e+08
2.43e+08
2.43e+08
2.38493e+08
2.28192e+08
2.192e+08
2.11109e+08
2.03881e+08
1.97355e+08
1.91429e+08
1.86042e+08
1.81102e+08
1.76575e+08
1.72395e+08
1.68536e+08
1.64948e+08
1.6162e+08
1.58494e+08
1.556e+08
1.52839e+08
1.50303e+08
1.47871e+08
1.45594e+08
1.43425e+08
1.41359e+08
1.394e+08
1.37509e+08
1.35719e+08
1.33963e+08
2.43e+08
2.43e+08
2.43e+08
2.43e+08
2.43e+08
2.43e+08
2.43e+08
2.43e+08
2.43e+08
2.43e+08
2.43e+08
2.43e+08
2.43e+08
2.43e+08
2.3438e+08
2.25753e+08
2.17616e+08
2.1035e+08
2.03633e+08
1.97535e+08
1.91909e+08
1.8676e+08
1.81995e+08
1.7761e+08
1.73532e+08
1.69763e+08
1.66234e+08
1.62967e+08
1.59879e+08
1.57019e+08
1.54292e+08
1.51733e+08
1.49334e+08
1.47049e+08
1.44893e+08
1.42833e+08
1.40871e+08
1.38992e+08
1.37191e+08
1.35448e+08
2.43e+08
2.43e+08
2.43e+08
2.43e+08
2.43e+08
2.43e+08
2.43e+08
2.43e+08
2.43e+08
2.43e+08
2.43e+08
2.43e+08
2.43e+08
2.38442e+08
2.30545e+08
2.23095e+08
2.15961e+08
2.09447e+08
2.03311e+08
1.97671e+08
1.924e+08
1.87532e+08
1.82992e+08
1.78777e+08
1.7485e+08
1.71176e+08
1.67761e+08
1.64533e+08
1.61521e+08
1.58683e+08
1.55898e+08
1.53495e+08
1.51116e+08
1.48853e+08
1.46723e+08
1.44659e+08
1.42714e+08
1.40832e+08
1.39036e+08
1.37295e+08
2.43e+08
2.43e+08
2.43e+08
2.43e+08
2.43e+08
2.43e+08
2.43e+08
2.43e+08
2.43e+08
2.43e+08
2.43e+08
2.43e+08
2.40997e+08
2.33784e+08
2.27136e+08
2.20571e+08
2.1435e+08
2.08476e+08
2.0291e+08
1.9771e+08
1.92809e+08
1.88235e+08
1.83939e+08
1.79922e+08
1.76157e+08
1.72623e+08
1.69311e+08
1.66199e+08
1.63262e+08
1.60541e+08
1.57882e+08
1.55379e+08
1.53067e+08
1.50851e+08
1.48722e+08
1.46717e+08
1.44765e+08
1.42929e+08
1.41125e+08
1.39416e+08
2.43e+08
2.43e+08
2.43e+08
2.43e+08
2.43e+08
2.43e+08
2.43e+08
2.43e+08
2.43e+08
2.43e+08
2.43e+08
2.42329e+08
2.3542e+08
2.29869e+08
2.23948e+08
2.18282e+08
2.12718e+08
2.07452e+08
2.02374e+08
1.97613e+08
1.93056e+08
1.8881e+08
1.84748e+08
1.80986e+08
1.77371e+08
1.74044e+08
1.70838e+08
1.67876e+08
1.65091e+08
1.62376e+08
1.59545e+08
1.57433e+08
1.55187e+08
1.52964e+08
1.50852e+08
1.48899e+08
1.4695e+08
1.45171e+08
1.43365e+08
1.41705e+08
2.43e+08
2.43e+08
2.43e+08
2.43e+08
2.43e+08
2.43e+08
2.43e+08
2.43e+08
2.43e+08
2.43e+08
2.42718e+08
2.36413e+08
2.3151e+08
2.26323e+08
2.211e+08
2.16038e+08
2.11045e+08
2.06286e+08
2.01671e+08
1.97307e+08
1.93116e+08
1.8917e+08
1.85399e+08
1.81857e+08
1.78475e+08
1.75303e+08
1.72271e+08
1.69424e+08
1.66705e+08
1.64119e+08
1.61697e+08
1.59415e+08
1.57167e+08
1.55069e+08
1.53041e+08
1.51119e+08
1.49252e+08
1.47485e+08
1.4574e+08
1.44092e+08
2.43e+08
2.43e+08
2.43e+08
2.43e+08
2.43e+08
2.43e+08
2.43e+08
2.43e+08
2.43e+08
2.42812e+08
2.36807e+08
2.32555e+08
2.27722e+08
2.23075e+08
2.18343e+08
2.13783e+08
2.09266e+08
2.04952e+08
2.00749e+08
1.96757e+08
1.9291e+08
1.89265e+08
1.85781e+08
1.82475e+08
1.79337e+08
1.76343e+08
1.73521e+08
1.70807e+08
1.68245e+08
1.658e+08
1.6335e+08
1.61261e+08
1.59143e+08
1.57122e+08
1.55189e+08
1.5332e+08
1.51517e+08
1.498e+08
1.48098e+08
1.46496e+08
2.43e+08
2.43e+08
2.43e+08
2.43e+08
2.43e+08
2.43e+08
2.43e+08
2.43e+08
2.4245e+08
2.36975e+08
2.32883e+08
2.28573e+08
2.2417e+08
2.19908e+08
2.15595e+08
2.11455e+08
2.0735e+08
2.0343e+08
1.99601e+08
1.95958e+08
1.92436e+08
1.89089e+08
1.85876e+08
1.82823e+08
1.79904e+08
1.77127e+08
1.74476e+08
1.71954e+08
1.69536e+08
1.67251e+08
1.65031e+08
1.62971e+08
1.60937e+08
1.59036e+08
1.57164e+08
1.55403e+08
1.53659e+08
1.52027e+08
1.50376e+08
1.48839e+08
2.43e+08
2.43e+08
2.43e+08
2.43e+08
2.43e+08
2.43e+08
2.43e+08
2.42097e+08
2.36704e+08
2.33011e+08
2.28776e+08
2.24803e+08
2.20691e+08
2.16765e+08
2.12806e+08
2.09026e+08
2.05285e+08
2.01717e+08
1.98232e+08
1.94913e+08
1.91702e+08
1.88643e+08
1.85704e+08
1.82901e+08
1.80218e+08
1.77656e+08
1.75204e+08
1.72867e+08
1.70614e+08
1.68488e+08
1.66402e+08
1.64484e+08
1.62566e+08
1.60782e+08
1.59009e+08
1.57346e+08
1.55682e+08
1.54133e+08
1.52549e+08
1.5108e+08
2.43e+08
2.43e+08
2.43e+08
2.43e+08
2.43e+08
2.43e+08
2.41446e+08
2.36558e+08
2.32679e+08
2.28829e+08
2.24828e+08
2.21071e+08
2.1722e+08
2.13583e+08
2.09932e+08
2.06472e+08
2.03053e+08
1.99808e+08
1.96637e+08
1.93625e+08
1.90706e+08
1.8793e+08
1.85256e+08
1.82704e+08
1.80262e+08
1.77916e+08
1.75683e+08
1.73526e+08
1.71461e+08
1.69492e+08
1.67492e+08
1.65772e+08
1.64e+08
1.62321e+08
1.60675e+08
1.591e+08
1.57537e+08
1.56072e+08
1.54567e+08
1.53173e+08
2.43e+08
2.43e+08
2.43e+08
2.43e+08
2.43e+08
2.41147e+08
2.36058e+08
2.32454e+08
2.2837e+08
2.24683e+08
2.20842e+08
2.17286e+08
2.13679e+08
2.10302e+08
2.06939e+08
2.03769e+08
2.00654e+08
1.97707e+08
1.94836e+08
1.92113e+08
1.89477e+08
1.86971e+08
1.84554e+08
1.82251e+08
1.80032e+08
1.77915e+08
1.75873e+08
1.7392e+08
1.72036e+08
1.70206e+08
1.68488e+08
1.66874e+08
1.65191e+08
1.63656e+08
1.621e+08
1.60655e+08
1.5918e+08
1.57825e+08
1.564e+08
1.55094e+08
2.43e+08
2.43e+08
2.43e+08
2.43e+08
2.40611e+08
2.35975e+08
2.31816e+08
2.28054e+08
2.24055e+08
2.20481e+08
2.16795e+08
2.1343e+08
2.10047e+08
2.06914e+08
2.03814e+08
2.0092e+08
1.98083e+08
1.95423e+08
1.92828e+08
1.9039e+08
1.88014e+08
1.85783e+08
1.83601e+08
1.81559e+08
1.79552e+08
1.77678e+08
1.75837e+08
1.74097e+08
1.72452e+08
1.70778e+08
1.68948e+08
1.67676e+08
1.66232e+08
1.6476e+08
1.63331e+08
1.62004e+08
1.60618e+08
1.59381e+08
1.58033e+08
1.56828e+08
2.43e+08
2.43e+08
2.43e+08
2.40826e+08
2.35541e+08
2.31654e+08
2.27293e+08
2.23542e+08
2.19622e+08
2.16144e+08
2.12627e+08
2.09442e+08
2.06286e+08
2.03388e+08
2.0055e+08
1.9792e+08
1.95361e+08
1.92972e+08
1.90657e+08
1.88483e+08
1.86381e+08
1.84395e+08
1.82477e+08
1.80655e+08
1.78896e+08
1.77215e+08
1.7559e+08
1.74039e+08
1.72516e+08
1.7111e+08
1.69637e+08
1.6823e+08
1.66922e+08
1.65636e+08
1.64346e+08
1.6314e+08
1.61878e+08
1.60735e+08
1.59494e+08
1.58369e+08
2.43e+08
2.43e+08
2.409e+08
2.35899e+08
2.31091e+08
2.26937e+08
2.22591e+08
2.18822e+08
2.15014e+08
2.11643e+08
2.08311e+08
2.05315e+08
2.02392e+08
1.99731e+08
1.97153e+08
1.94783e+08
1.92494e+08
1.90374e+08
1.88327e+08
1.86416e+08
1.84572e+08
1.82838e+08
1.81162e+08
1.79573e+08
1.78039e+08
1.76565e+08
1.75148e+08
1.73767e+08
1.72432e+08
1.7115e+08
1.69796e+08
1.68679e+08
1.67473e+08
1.66327e+08
1.65172e+08
1.64067e+08
1.6293e+08
1.61878e+08
1.60744e+08
1.59701e+08
2.43e+08
2.41993e+08
2.36e+08
2.31273e+08
2.26266e+08
2.21942e+08
2.17648e+08
2.1388e+08
2.10216e+08
2.06973e+08
2.03845e+08
2.01053e+08
1.9837e+08
1.95954e+08
1.93637e+08
1.9153e+08
1.89507e+08
1.87651e+08
1.85866e+08
1.84212e+08
1.82617e+08
1.81125e+08
1.79684e+08
1.7832e+08
1.77004e+08
1.75739e+08
1.74522e+08
1.73336e+08
1.72176e+08
1.71068e+08
1.6995e+08
1.68885e+08
1.67821e+08
1.66806e+08
1.65764e+08
1.64792e+08
1.63756e+08
1.6282e+08
1.6178e+08
1.60833e+08
2.43e+08
2.36857e+08
2.31369e+08
2.25936e+08
2.21018e+08
2.16529e+08
2.12369e+08
2.08667e+08
2.05192e+08
2.02125e+08
1.99229e+08
1.96668e+08
1.94244e+08
1.92084e+08
1.90036e+08
1.88191e+08
1.86439e+08
1.84842e+08
1.83319e+08
1.81915e+08
1.80566e+08
1.79313e+08
1.78095e+08
1.7696e+08
1.75834e+08
1.74788e+08
1.73726e+08
1.72713e+08
1.71729e+08
1.7078e+08
1.69815e+08
1.68924e+08
1.67987e+08
1.67117e+08
1.66193e+08
1.65339e+08
1.64412e+08
1.63576e+08
1.62636e+08
1.61774e+08
2.39159e+08
2.32205e+08
2.25953e+08
2.20288e+08
2.15316e+08
2.10865e+08
2.06831e+08
2.03289e+08
2.00022e+08
1.97175e+08
1.94526e+08
1.92216e+08
1.90057e+08
1.88161e+08
1.86381e+08
1.84802e+08
1.8331e+08
1.81972e+08
1.80696e+08
1.79538e+08
1.7842e+08
1.77396e+08
1.76394e+08
1.75465e+08
1.74557e+08
1.73684e+08
1.72889e+08
1.72003e+08
1.71182e+08
1.70388e+08
1.69573e+08
1.68808e+08
1.68001e+08
1.67251e+08
1.6644e+08
1.65699e+08
1.64874e+08
1.6414e+08
1.63294e+08
1.6252e+08
2.34282e+08
2.26714e+08
2.20092e+08
2.14429e+08
2.09419e+08
2.0509e+08
2.01196e+08
1.97849e+08
1.94801e+08
1.92192e+08
1.89799e+08
1.87749e+08
1.85858e+08
1.84228e+08
1.82716e+08
1.81397e+08
1.80168e+08
1.79076e+08
1.78051e+08
1.77122e+08
1.76242e+08
1.75429e+08
1.74645e+08
1.73926e+08
1.73187e+08
1.72593e+08
1.7181e+08
1.71064e+08
1.7048e+08
1.69829e+08
1.69172e+08
1.68547e+08
1.67863e+08
1.67239e+08
1.66536e+08
1.65906e+08
1.65178e+08
1.64541e+08
1.63784e+08
1.63093e+08
2.28308e+08
2.2069e+08
2.13985e+08
2.0838e+08
2.03428e+08
1.99253e+08
1.95528e+08
1.92397e+08
1.89581e+08
1.87223e+08
1.8509e+08
1.83304e+08
1.81682e+08
1.80316e+08
1.7907e+08
1.78007e+08
1.77031e+08
1.76182e+08
1.75394e+08
1.74691e+08
1.74027e+08
1.73421e+08
1.72825e+08
1.72287e+08
1.71696e+08
1.71228e+08
1.70966e+08
1.70206e+08
1.69643e+08
1.69189e+08
1.68646e+08
1.68146e+08
1.67589e+08
1.67067e+08
1.66479e+08
1.65941e+08
1.65316e+08
1.64763e+08
1.64099e+08
1.63482e+08
2.2162e+08
2.14126e+08
2.07545e+08
2.02099e+08
1.97304e+08
1.93336e+08
1.89826e+08
1.86939e+08
1.84375e+08
1.82281e+08
1.80416e+08
1.78899e+08
1.77545e+08
1.76444e+08
1.75455e+08
1.74647e+08
1.73912e+08
1.73304e+08
1.72737e+08
1.72259e+08
1.71797e+08
1.71395e+08
1.70994e+08
1.70616e+08
1.70257e+08
1.69816e+08
1.69538e+08
1.69287e+08
1.68804e+08
1.68456e+08
1.68023e+08
1.67634e+08
1.67185e+08
1.66768e+08
1.6628e+08
1.65838e+08
1.65303e+08
1.64835e+08
1.64255e+08
1.63711e+08
2.14308e+08
2.07105e+08
2.00787e+08
1.95591e+08
1.9104e+08
1.87331e+08
1.84083e+08
1.81469e+08
1.79181e+08
1.77365e+08
1.75777e+08
1.74535e+08
1.73451e+08
1.72613e+08
1.71879e+08
1.71317e+08
1.70819e+08
1.70437e+08
1.70087e+08
1.69817e+08
1.69553e+08
1.69342e+08
1.69119e+08
1.6893e+08
1.68729e+08
1.68524e+08
1.68363e+08
1.68085e+08
1.67838e+08
1.67586e+08
1.67286e+08
1.6701e+08
1.66661e+08
1.66349e+08
1.65949e+08
1.65598e+08
1.65145e+08
1.64757e+08
1.64254e+08
1.6378e+08
2.06525e+08
1.99693e+08
1.93726e+08
1.88854e+08
1.84618e+08
1.8122e+08
1.78279e+08
1.7597e+08
1.73984e+08
1.72465e+08
1.71169e+08
1.70209e+08
1.694e+08
1.68825e+08
1.68346e+08
1.68026e+08
1.67762e+08
1.67599e+08
1.67463e+08
1.67386e+08
1.67317e+08
1.67274e+08
1.67231e+08
1.67184e+08
1.67139e+08
1.67069e+08
1.66999e+08
1.66933e+08
1.6678e+08
1.66666e+08
1.66461e+08
1.66293e+08
1.66036e+08
1.65815e+08
1.65501e+08
1.65231e+08
1.64858e+08
1.6454e+08
1.64112e+08
1.637e+08
1.98357e+08
1.91954e+08
1.86397e+08
1.81906e+08
1.7804e+08
1.74998e+08
1.72404e+08
1.70431e+08
1.68771e+08
1.67566e+08
1.66575e+08
1.65906e+08
1.65376e+08
1.65066e+08
1.64841e+08
1.6476e+08
1.64723e+08
1.64776e+08
1.64843e+08
1.64961e+08
1.65071e+08
1.65205e+08
1.6532e+08
1.65436e+08
1.65528e+08
1.65601e+08
1.65654e+08
1.65671e+08
1.65656e+08
1.65624e+08
1.65538e+08
1.65453e+08
1.65295e+08
1.65154e+08
1.64924e+08
1.64728e+08
1.6443e+08
1.64179e+08
1.6382e+08
1.63466e+08
1.89881e+08
1.83941e+08
1.78837e+08
1.7477e+08
1.71316e+08
1.68667e+08
1.66453e+08
1.64844e+08
1.63534e+08
1.62662e+08
1.61988e+08
1.61619e+08
1.61374e+08
1.61332e+08
1.61361e+08
1.61517e+08
1.61705e+08
1.61965e+08
1.62231e+08
1.62529e+08
1.62815e+08
1.63107e+08
1.63375e+08
1.63631e+08
1.63855e+08
1.64059e+08
1.64219e+08
1.64367e+08
1.64446e+08
1.64527e+08
1.64527e+08
1.64537e+08
1.64458e+08
1.64398e+08
1.64242e+08
1.64116e+08
1.63886e+08
1.63695e+08
1.63401e+08
1.63101e+08
1.81159e+08
1.75706e+08
1.71083e+08
1.67472e+08
1.64463e+08
1.62237e+08
1.60431e+08
1.59208e+08
1.58268e+08
1.57743e+08
1.57398e+08
1.57337e+08
1.57383e+08
1.57611e+08
1.57893e+08
1.58286e+08
1.58694e+08
1.5916e+08
1.59617e+08
1.60095e+08
1.60547e+08
1.60997e+08
1.61407e+08
1.61801e+08
1.62149e+08
1.62471e+08
1.62741e+08
1.62984e+08
1.63167e+08
1.6333e+08
1.63423e+08
1.63506e+08
1.6351e+08
1.63517e+08
1.63434e+08
1.63369e+08
1.63205e+08
1.63069e+08
1.62835e+08
1.62584e+08
1.72242e+08
1.67292e+08
1.63171e+08
1.6004e+08
1.575e+08
1.55721e+08
1.54345e+08
1.53528e+08
1.52973e+08
1.52807e+08
1.52802e+08
1.53055e+08
1.53395e+08
1.53895e+08
1.54431e+08
1.55055e+08
1.55682e+08
1.56347e+08
1.5699e+08
1.5764e+08
1.58251e+08
1.58848e+08
1.59397e+08
1.59919e+08
1.60385e+08
1.60821e+08
1.61193e+08
1.61538e+08
1.6181e+08
1.62063e+08
1.62234e+08
1.62397e+08
1.6247e+08
1.62547e+08
1.62527e+08
1.62522e+08
1.62417e+08
1.62333e+08
1.62155e+08
1.6195e+08
1.63173e+08
1.58737e+08
1.55134e+08
1.52501e+08
1.50451e+08
1.49138e+08
1.48209e+08
1.47813e+08
1.47655e+08
1.4786e+08
1.48201e+08
1.48773e+08
1.4941e+08
1.50182e+08
1.5097e+08
1.51827e+08
1.52667e+08
1.53529e+08
1.54353e+08
1.5517e+08
1.55935e+08
1.56674e+08
1.57353e+08
1.57997e+08
1.58575e+08
1.59115e+08
1.59584e+08
1.60017e+08
1.60374e+08
1.60703e+08
1.6095e+08
1.61178e+08
1.6132e+08
1.61454e+08
1.61496e+08
1.61542e+08
1.61493e+08
1.61454e+08
1.61329e+08
1.61165e+08
1.53992e+08
1.50078e+08
1.47003e+08
1.44883e+08
1.43336e+08
1.42504e+08
1.42036e+08
1.42071e+08
1.42321e+08
1.42901e+08
1.43593e+08
1.44486e+08
1.4542e+08
1.46463e+08
1.47501e+08
1.48585e+08
1.49634e+08
1.50686e+08
1.51686e+08
1.52663e+08
1.53576e+08
1.54451e+08
1.55256e+08
1.56016e+08
1.567e+08
1.5734e+08
1.57901e+08
1.58421e+08
1.58858e+08
1.59263e+08
1.5958e+08
1.59876e+08
1.6008e+08
1.60273e+08
1.60371e+08
1.60468e+08
1.60471e+08
1.60476e+08
1.604e+08
1.60275e+08
1.44732e+08
1.41343e+08
1.38807e+08
1.37212e+08
1.36182e+08
1.35843e+08
1.35847e+08
1.36323e+08
1.36986e+08
1.37947e+08
1.38992e+08
1.40207e+08
1.41438e+08
1.4275e+08
1.44035e+08
1.45343e+08
1.46597e+08
1.47836e+08
1.49006e+08
1.50138e+08
1.51193e+08
1.52199e+08
1.53122e+08
1.53991e+08
1.54777e+08
1.55509e+08
1.56155e+08
1.56753e+08
1.57265e+08
1.57736e+08
1.58118e+08
1.58471e+08
1.58732e+08
1.58974e+08
1.59124e+08
1.59264e+08
1.59314e+08
1.59357e+08
1.59326e+08
1.59235e+08
1.35423e+08
1.32563e+08
1.30571e+08
1.29511e+08
1.29008e+08
1.2917e+08
1.29653e+08
1.30575e+08
1.31654e+08
1.32997e+08
1.34394e+08
1.35928e+08
1.37451e+08
1.39028e+08
1.40554e+08
1.42078e+08
1.43531e+08
1.44949e+08
1.46283e+08
1.47563e+08
1.48754e+08
1.49882e+08
1.50919e+08
1.51892e+08
1.52773e+08
1.53593e+08
1.54322e+08
1.54996e+08
1.55578e+08
1.56115e+08
1.5656e+08
1.5697e+08
1.57287e+08
1.5758e+08
1.5778e+08
1.57966e+08
1.58062e+08
1.58144e+08
1.58156e+08
1.58099e+08
1.26092e+08
1.23763e+08
1.22324e+08
1.21809e+08
1.21842e+08
1.22515e+08
1.23484e+08
1.24856e+08
1.26354e+08
1.28079e+08
1.29825e+08
1.31676e+08
1.33488e+08
1.35324e+08
1.37086e+08
1.38823e+08
1.40469e+08
1.42061e+08
1.43553e+08
1.44976e+08
1.46298e+08
1.47545e+08
1.4869e+08
1.49762e+08
1.50733e+08
1.51636e+08
1.52441e+08
1.53184e+08
1.53831e+08
1.54427e+08
1.54927e+08
1.55388e+08
1.55752e+08
1.56088e+08
1.5633e+08
1.56552e+08
1.56686e+08
1.56799e+08
1.56847e+08
1.56817e+08
1.16761e+08
1.14966e+08
1.14084e+08
1.14123e+08
1.147e+08
1.1589e+08
1.17346e+08
1.19169e+08
1.21083e+08
1.23185e+08
1.25276e+08
1.27436e+08
1.29528e+08
1.31614e+08
1.33603e+08
1.35542e+08
1.37372e+08
1.39127e+08
1.40769e+08
1.42326e+08
1.4377e+08
1.45126e+08
1.46373e+08
1.47534e+08
1.48591e+08
1.49569e+08
1.50446e+08
1.51253e+08
1.51964e+08
1.52615e+08
1.53171e+08
1.5368e+08
1.54095e+08
1.54476e+08
1.54763e+08
1.55026e+08
1.55202e+08
1.55353e+08
1.55438e+08
1.55442e+08
1.07457e+08
1.06198e+08
1.05883e+08
1.06485e+08
1.07616e+08
1.0933e+08
1.11279e+08
1.13553e+08
1.15881e+08
1.18356e+08
1.20785e+08
1.23247e+08
1.25611e+08
1.27941e+08
1.3015e+08
1.32286e+08
1.34293e+08
1.36208e+08
1.37994e+08
1.3968e+08
1.41243e+08
1.42706e+08
1.44051e+08
1.45301e+08
1.4644e+08
1.47492e+08
1.48439e+08
1.49309e+08
1.50077e+08
1.50782e+08
1.51386e+08
1.51942e+08
1.52396e+08
1.52816e+08
1.53136e+08
1.53432e+08
1.53635e+08
1.5381e+08
1.53921e+08
1.53944e+08
9.81916e+07
9.74722e+07
9.7732e+07
9.89092e+07
1.006e+08
1.02843e+08
1.05284e+08
1.08005e+08
1.1074e+08
1.13578e+08
1.16335e+08
1.19086e+08
1.21712e+08
1.24272e+08
1.26688e+08
1.29006e+08
1.31179e+08
1.33238e+08
1.35158e+08
1.3696e+08
1.3863e+08
1.40186e+08
1.4162e+08
1.42945e+08
1.44158e+08
1.45271e+08
1.46281e+08
1.47199e+08
1.48024e+08
1.48768e+08
1.49424e+08
1.50013e+08
1.50516e+08
1.50968e+08
1.51333e+08
1.51662e+08
1.51905e+08
1.52121e+08
1.52262e+08
1.52329e+08
8.89929e+07
8.88193e+07
8.96678e+07
9.14337e+07
9.36972e+07
9.64739e+07
9.9407e+07
1.02572e+08
1.05707e+08
1.08899e+08
1.11973e+08
1.15004e+08
1.1788e+08
1.2066e+08
1.23273e+08
1.25768e+08
1.28096e+08
1.30299e+08
1.32345e+08
1.34262e+08
1.36039e+08
1.37688e+08
1.39212e+08
1.40614e+08
1.41903e+08
1.43081e+08
1.44157e+08
1.45132e+08
1.46014e+08
1.46809e+08
1.47513e+08
1.48149e+08
1.48691e+08
1.49185e+08
1.4958e+08
1.49945e+08
1.50209e+08
1.50447e+08
1.50603e+08
1.50673e+08
7.98646e+07
8.02467e+07
8.16986e+07
8.40706e+07
8.69141e+07
9.0229e+07
9.36498e+07
9.72498e+07
1.00773e+08
1.04304e+08
1.07681e+08
1.10973e+08
1.14084e+08
1.17066e+08
1.19864e+08
1.22515e+08
1.24991e+08
1.27315e+08
1.29477e+08
1.31492e+08
1.3336e+08
1.35087e+08
1.36684e+08
1.38147e+08
1.39499e+08
1.40721e+08
1.41853e+08
1.42857e+08
1.43792e+08
1.44601e+08
1.4536e+08
1.45994e+08
1.46596e+08
1.47078e+08
1.47539e+08
1.47892e+08
1.48222e+08
1.4847e+08
1.48674e+08
1.48798e+08
7.08387e+07
7.17905e+07
7.38701e+07
7.68678e+07
8.03057e+07
8.41605e+07
8.80664e+07
9.20906e+07
9.59884e+07
9.98439e+07
1.03506e+08
1.07046e+08
1.10376e+08
1.13548e+08
1.16512e+08
1.19315e+08
1.21914e+08
1.24366e+08
1.26636e+08
1.28746e+08
1.30708e+08
1.32508e+08
1.34188e+08
1.3571e+08
1.37134e+08
1.38407e+08
1.39604e+08
1.40654e+08
1.41649e+08
1.425e+08
1.43317e+08
1.43996e+08
1.44653e+08
1.45184e+08
1.45699e+08
1.46104e+08
1.4649e+08
1.46775e+08
1.47056e+08
1.4713e+08
6.1909e+07
6.34556e+07
6.61918e+07
6.98438e+07
7.38832e+07
7.82817e+07
8.26591e+07
8.7094e+07
9.13473e+07
9.55043e+07
9.94337e+07
1.03196e+08
1.06729e+08
1.10068e+08
1.13193e+08
1.16121e+08
1.18852e+08
1.21401e+08
1.23762e+08
1.25958e+08
1.27987e+08
1.29859e+08
1.31594e+08
1.33172e+08
1.34646e+08
1.35959e+08
1.37204e+08
1.38275e+08
1.39323e+08
1.40173e+08
1.41053e+08
1.41696e+08
1.42441e+08
1.42886e+08
1.43537e+08
1.43786e+08
1.444e+08
1.44448e+08
1.45123e+08
1.44937e+08
5.31143e+07
5.52901e+07
5.87274e+07
6.30613e+07
6.77184e+07
7.26517e+07
7.74903e+07
8.23132e+07
8.68979e+07
9.13362e+07
9.55079e+07
9.94743e+07
1.03192e+08
1.06679e+08
1.09943e+08
1.12982e+08
1.15783e+08
1.18452e+08
1.20912e+08
1.23164e+08
1.25281e+08
1.27193e+08
1.29e+08
1.30613e+08
1.32147e+08
1.33489e+08
1.34787e+08
1.35882e+08
1.36978e+08
1.37847e+08
1.38773e+08
1.39433e+08
1.4022e+08
1.40688e+08
1.41366e+08
1.41667e+08
1.42267e+08
1.42456e+08
1.43009e+08
1.43307e+08
4.44431e+07
4.73086e+07
5.15044e+07
5.65623e+07
6.18341e+07
6.73018e+07
7.25682e+07
7.77601e+07
8.26507e+07
8.73334e+07
9.17225e+07
9.58593e+07
9.9734e+07
1.0334e+08
1.06735e+08
1.09837e+08
1.12807e+08
1.15573e+08
1.18044e+08
1.20394e+08
1.22534e+08
1.24523e+08
1.26361e+08
1.28035e+08
1.29603e+08
1.31e+08
1.32331e+08
1.33483e+08
1.34608e+08
1.35544e+08
1.36489e+08
1.37241e+08
1.38023e+08
1.38627e+08
1.39246e+08
1.39752e+08
1.40175e+08
1.40654e+08
1.40786e+08
1.41471e+08
3.59396e+07
3.95874e+07
4.46239e+07
5.04349e+07
5.63319e+07
6.22943e+07
6.7968e+07
7.34808e+07
7.8625e+07
8.35354e+07
8.80938e+07
9.23973e+07
9.63945e+07
1.00128e+08
1.03634e+08
1.06825e+08
1.09901e+08
1.12599e+08
1.15215e+08
1.17554e+08
1.19766e+08
1.2178e+08
1.23662e+08
1.25364e+08
1.26963e+08
1.28384e+08
1.29739e+08
1.30909e+08
1.32052e+08
1.33002e+08
1.33957e+08
1.34721e+08
1.35502e+08
1.36119e+08
1.36719e+08
1.37247e+08
1.37621e+08
1.38141e+08
1.38177e+08
1.38943e+08
2.76099e+07
3.22009e+07
3.81841e+07
4.47811e+07
5.12586e+07
5.76964e+07
6.36905e+07
6.95112e+07
7.49002e+07
7.99682e+07
8.46775e+07
8.91032e+07
9.31832e+07
9.70344e+07
1.00547e+08
1.039e+08
1.06896e+08
1.09679e+08
1.12348e+08
1.14745e+08
1.1701e+08
1.19056e+08
1.20978e+08
1.22709e+08
1.24337e+08
1.2579e+08
1.27162e+08
1.28369e+08
1.29515e+08
1.3051e+08
1.3145e+08
1.32268e+08
1.33007e+08
1.33692e+08
1.34216e+08
1.34825e+08
1.35091e+08
1.35706e+08
1.35634e+08
1.36526e+08
1.95152e+07
2.53383e+07
3.23771e+07
3.97342e+07
4.67629e+07
5.35583e+07
5.98761e+07
6.5883e+07
7.14091e+07
7.66073e+07
8.14367e+07
8.5927e+07
9.01123e+07
9.39793e+07
9.7586e+07
1.00911e+08
1.0397e+08
1.06863e+08
1.09524e+08
1.11955e+08
1.14233e+08
1.16295e+08
1.18232e+08
1.19977e+08
1.21615e+08
1.23082e+08
1.2446e+08
1.25683e+08
1.26831e+08
1.27845e+08
1.28779e+08
1.29624e+08
1.30348e+08
1.3107e+08
1.31567e+08
1.3223e+08
1.32456e+08
1.33143e+08
1.33023e+08
1.33993e+08
1.1841e+07
1.93977e+07
2.75237e+07
3.55169e+07
4.29557e+07
5.00057e+07
5.64486e+07
6.26285e+07
6.82899e+07
7.35517e+07
7.83846e+07
8.29776e+07
8.71452e+07
9.10982e+07
9.46913e+07
9.8078e+07
1.0117e+08
1.04053e+08
1.06719e+08
1.09175e+08
1.11457e+08
1.13544e+08
1.15486e+08
1.17253e+08
1.18897e+08
1.20384e+08
1.21763e+08
1.23009e+08
1.24151e+08
1.25192e+08
1.26114e+08
1.2699e+08
1.27695e+08
1.28455e+08
1.28929e+08
1.29636e+08
1.29845e+08
1.30583e+08
1.30466e+08
1.3148e+08
5.63705e+06
1.52348e+07
2.39986e+07
3.23314e+07
3.99112e+07
4.70583e+07
5.36329e+07
5.95878e+07
6.54552e+07
7.07299e+07
7.56339e+07
8.01916e+07
8.43959e+07
8.83163e+07
9.19265e+07
9.52944e+07
9.83877e+07
1.0128e+08
1.03938e+08
1.06401e+08
1.08676e+08
1.10768e+08
1.12706e+08
1.14477e+08
1.16117e+08
1.17611e+08
1.18987e+08
1.20243e+08
1.21381e+08
1.22437e+08
1.23354e+08
1.24252e+08
1.24949e+08
1.25739e+08
1.26204e+08
1.26949e+08
1.27149e+08
1.27931e+08
1.27811e+08
1.28853e+08
6.96089e+06
1.42314e+07
2.2339e+07
3.04243e+07
3.77878e+07
4.48749e+07
5.13523e+07
5.74218e+07
6.29706e+07
6.8263e+07
7.3119e+07
7.76199e+07
8.18111e+07
8.56807e+07
8.92843e+07
9.26128e+07
9.57064e+07
9.85617e+07
1.01214e+08
1.03657e+08
1.05924e+08
1.08007e+08
1.09937e+08
1.11706e+08
1.13339e+08
1.14835e+08
1.16205e+08
1.17468e+08
1.186e+08
1.19667e+08
1.20578e+08
1.21492e+08
1.22184e+08
1.22995e+08
1.23459e+08
1.24228e+08
1.24433e+08
1.2524e+08
1.25135e+08
1.26184e+08
1.34772e+07
1.6746e+07
2.2886e+07
2.99426e+07
3.67716e+07
4.34306e+07
4.96307e+07
5.55545e+07
6.0957e+07
6.60658e+07
7.08123e+07
7.52333e+07
7.93446e+07
8.31646e+07
8.67088e+07
9.00022e+07
9.30498e+07
9.58816e+07
9.8498e+07
1.00923e+08
1.03163e+08
1.05233e+08
1.07142e+08
1.08902e+08
1.10519e+08
1.12012e+08
1.1337e+08
1.14633e+08
1.15757e+08
1.1683e+08
1.17734e+08
1.18659e+08
1.19348e+08
1.20173e+08
1.20636e+08
1.21422e+08
1.2163e+08
1.22455e+08
1.22359e+08
1.23405e+08
2.0571e+07
2.14171e+07
2.52879e+07
3.08961e+07
3.67816e+07
4.28356e+07
4.85877e+07
5.41396e+07
5.92914e+07
6.42443e+07
6.87972e+07
7.31129e+07
7.70951e+07
8.08308e+07
8.42895e+07
8.75135e+07
9.05028e+07
9.32782e+07
9.58517e+07
9.82343e+07
1.00441e+08
1.0248e+08
1.04363e+08
1.06102e+08
1.077e+08
1.09179e+08
1.10522e+08
1.11779e+08
1.12891e+08
1.13963e+08
1.14861e+08
1.15789e+08
1.16475e+08
1.17309e+08
1.17773e+08
1.1857e+08
1.18784e+08
1.19618e+08
1.19535e+08
1.2057e+08
2.76387e+07
2.69914e+07
2.89917e+07
3.30141e+07
3.77569e+07
4.29996e+07
4.81345e+07
5.32713e+07
5.80828e+07
6.27377e+07
6.70761e+07
7.11925e+07
7.50256e+07
7.86267e+07
8.19758e+07
8.51063e+07
8.80127e+07
9.07215e+07
9.32314e+07
9.55653e+07
9.77232e+07
9.97263e+07
1.01572e+08
1.03285e+08
1.04855e+08
1.06316e+08
1.07638e+08
1.08883e+08
1.09981e+08
1.11047e+08
1.11934e+08
1.12861e+08
1.13542e+08
1.14375e+08
1.14839e+08
1.15638e+08
1.15856e+08
1.16693e+08
1.16619e+08
1.17638e+08
3.4584e+07
3.29185e+07
3.34647e+07
3.60427e+07
3.95798e+07
4.3886e+07
4.83075e+07
5.28756e+07
5.72619e+07
6.15767e+07
6.56279e+07
6.95244e+07
7.3156e+07
7.66029e+07
7.98079e+07
8.28242e+07
8.56255e+07
8.82472e+07
9.06788e+07
9.2946e+07
9.50444e+07
9.69967e+07
9.87973e+07
1.00472e+08
1.02007e+08
1.03439e+08
1.04736e+08
1.05961e+08
1.0704e+08
1.08092e+08
1.08969e+08
1.09887e+08
1.10562e+08
1.11395e+08
1.11856e+08
1.1266e+08
1.12879e+08
1.13713e+08
1.13652e+08
1.14648e+08
4.1359e+07
3.89216e+07
3.83475e+07
3.96717e+07
4.20561e+07
4.53916e+07
4.90198e+07
5.29663e+07
5.68454e+07
6.07484e+07
6.44665e+07
6.80797e+07
7.14813e+07
7.47281e+07
7.77673e+07
8.0639e+07
8.33171e+07
8.58324e+07
8.81706e+07
9.03584e+07
9.23853e+07
9.4278e+07
9.60237e+07
9.76538e+07
9.91467e+07
1.00546e+08
1.01811e+08
1.03012e+08
1.04069e+08
1.05104e+08
1.05965e+08
1.0687e+08
1.07538e+08
1.08356e+08
1.08818e+08
1.09606e+08
1.09825e+08
1.10659e+08
1.10601e+08
1.1158e+08
4.79476e+07
4.4893e+07
4.34209e+07
4.36919e+07
4.50257e+07
4.74042e+07
5.02195e+07
5.34812e+07
5.68039e+07
6.02443e+07
6.35793e+07
6.68757e+07
7.0006e+07
7.30283e+07
7.58704e+07
7.85778e+07
8.11095e+07
8.35015e+07
8.57291e+07
8.78232e+07
8.97652e+07
9.15862e+07
9.32661e+07
9.48414e+07
9.62832e+07
9.76407e+07
9.88665e+07
1.00034e+08
1.01062e+08
1.0207e+08
1.02913e+08
1.03794e+08
1.04455e+08
1.05257e+08
1.05718e+08
1.06521e+08
1.06726e+08
1.07532e+08
1.075e+08
1.08432e+08
5.43415e+07
5.07639e+07
4.85553e+07
4.79337e+07
4.83334e+07
4.98128e+07
5.18187e+07
5.4381e+07
5.71066e+07
6.00451e+07
6.29568e+07
6.58953e+07
6.87233e+07
7.14867e+07
7.41081e+07
7.66246e+07
7.89917e+07
8.12407e+07
8.33433e+07
8.5329e+07
8.71752e+07
8.89132e+07
9.05192e+07
9.20311e+07
9.34157e+07
9.47254e+07
9.59072e+07
9.70401e+07
9.80351e+07
9.90184e+07
9.98388e+07
1.00702e+08
1.01356e+08
1.0213e+08
1.02627e+08
1.03341e+08
1.03509e+08
1.0437e+08
1.04314e+08
1.05259e+08
6.05271e+07
5.64969e+07
5.3665e+07
5.22848e+07
5.18625e+07
5.2514e+07
5.37461e+07
5.56073e+07
5.7722e+07
6.01305e+07
6.25894e+07
6.51402e+07
6.76357e+07
7.01148e+07
7.24896e+07
7.47948e+07
7.69764e+07
7.90661e+07
8.10271e+07
8.28914e+07
8.46279e+07
8.62733e+07
8.77931e+07
8.9235e+07
9.05508e+07
9.18089e+07
9.29341e+07
9.40311e+07
9.49774e+07
9.59377e+07
9.67133e+07
9.75608e+07
9.81718e+07
9.89215e+07
9.93802e+07
1.00011e+08
1.00355e+08
1.01108e+08
1.01113e+08
1.01988e+08
6.65063e+07
6.20717e+07
5.8701e+07
5.66647e+07
5.5518e+07
5.5418e+07
5.59206e+07
5.71018e+07
5.86023e+07
6.04682e+07
6.2452e+07
6.45911e+07
6.67293e+07
6.88997e+07
7.1006e+07
7.30786e+07
7.50566e+07
7.69692e+07
7.87741e+07
8.05019e+07
8.21178e+07
8.3657e+07
8.50833e+07
8.64413e+07
8.76846e+07
8.8876e+07
8.99451e+07
9.0989e+07
9.18912e+07
9.28113e+07
9.35482e+07
9.43751e+07
9.49366e+07
9.5713e+07
9.60671e+07
9.6858e+07
9.71291e+07
9.78375e+07
9.78377e+07
9.86594e+07
7.2265e+07
6.7467e+07
6.36228e+07
6.10153e+07
5.92303e+07
5.84534e+07
5.82818e+07
5.88138e+07
5.97143e+07
6.10346e+07
6.25333e+07
6.42428e+07
6.6005e+07
6.78451e+07
6.96636e+07
7.14835e+07
7.32407e+07
7.49592e+07
7.65937e+07
7.81713e+07
7.96549e+07
8.10768e+07
8.23999e+07
8.36655e+07
8.48289e+07
8.59459e+07
8.69549e+07
8.79366e+07
8.87976e+07
8.96614e+07
9.03788e+07
9.11488e+07
9.17199e+07
9.24335e+07
9.28403e+07
9.35671e+07
9.37546e+07
9.44845e+07
9.44768e+07
9.52776e+07
7.78091e+07
7.26774e+07
6.84102e+07
6.52968e+07
6.2944e+07
6.1557e+07
6.0764e+07
6.0685e+07
6.10054e+07
6.17885e+07
6.27983e+07
6.40703e+07
6.54416e+07
6.69386e+07
6.8451e+07
7.00048e+07
7.15236e+07
7.30356e+07
7.44842e+07
7.59007e+07
7.72385e+07
7.85343e+07
7.97425e+07
8.09096e+07
8.19813e+07
8.30224e+07
8.3957e+07
8.48822e+07
8.56806e+07
8.6506e+07
8.71676e+07
8.79153e+07
8.84351e+07
8.91342e+07
8.95021e+07
9.01879e+07
9.03928e+07
9.11011e+07
9.10928e+07
9.18629e+07
8.31231e+07
7.76865e+07
7.30387e+07
6.94768e+07
6.66184e+07
6.46842e+07
6.33248e+07
6.26775e+07
6.24484e+07
6.27092e+07
6.3238e+07
6.40662e+07
6.50417e+07
6.61776e+07
6.73739e+07
6.86412e+07
6.99105e+07
7.11974e+07
7.24497e+07
7.36894e+07
7.48729e+07
7.60292e+07
7.7116e+07
7.81721e+07
7.9149e+07
8.01007e+07
8.09624e+07
8.18145e+07
8.25587e+07
8.33231e+07
8.39468e+07
8.46429e+07
8.51384e+07
8.57941e+07
8.61453e+07
8.6797e+07
8.6978e+07
8.76626e+07
8.76467e+07
8.83824e+07
8.82163e+07
8.24951e+07
7.75015e+07
7.35344e+07
7.0222e+07
6.77922e+07
6.5915e+07
6.47398e+07
6.39908e+07
6.37509e+07
6.38068e+07
6.41995e+07
6.47721e+07
6.55502e+07
6.64148e+07
6.73946e+07
6.83965e+07
6.94537e+07
7.0493e+07
7.15495e+07
7.25637e+07
7.3574e+07
7.45262e+07
7.54662e+07
7.63354e+07
7.71955e+07
7.79704e+07
7.87506e+07
7.94245e+07
8.01328e+07
8.07001e+07
8.13511e+07
8.18035e+07
8.24196e+07
8.27436e+07
8.33555e+07
8.35284e+07
8.41777e+07
8.4163e+07
8.48573e+07
9.30708e+07
8.70887e+07
8.17785e+07
7.74486e+07
7.3726e+07
7.08528e+07
6.85042e+07
6.68473e+07
6.5615e+07
6.49009e+07
6.45077e+07
6.44655e+07
6.46489e+07
6.50473e+07
6.55845e+07
6.62518e+07
6.69847e+07
6.77915e+07
6.86129e+07
6.94702e+07
7.03094e+07
7.11609e+07
7.19731e+07
7.2786e+07
7.35438e+07
7.43015e+07
7.49882e+07
7.56855e+07
7.62905e+07
7.69311e+07
7.74452e+07
7.80407e+07
7.8453e+07
7.90229e+07
7.93174e+07
7.98901e+07
8.00432e+07
8.06565e+07
8.06353e+07
8.12872e+07
9.76991e+07
9.14704e+07
8.58724e+07
8.12093e+07
7.71187e+07
7.38392e+07
7.10629e+07
6.89577e+07
6.72737e+07