/*--------------------------------*- C++ -*----------------------------------*\
| =========                 |                                                 |
| \\      /  F ield         | OpenFOAM: The Open Source CFD Toolbox           |
|  \\    /   O peration     | Version:  v2012                                 |
|   \\  /    A nd           | Website:  www.openfoam.com                      |
|    \\/     M anipulation  |                                                 |
\*---------------------------------------------------------------------------*/
FoamFile
{
    version     2.0;
    format      ascii;
    class       volSymmTensorField;
    location    "1";
    object      epsilon;
}
// * * * * * * * * * * * * * * * * * * * * * * * * * * * * * * * * * * * * * //

dimensions      [0 0 0 0 0 0 0];


internalField   nonuniform List<symmTensor> 
1534
(
(-3.85105e-06 5.62163e-06 8.94513e-07 3.54136e-06 6.87644e-06 -4.95621e-06)
(-5.27819e-06 2.8705e-06 1.39456e-06 3.18607e-07 4.88067e-06 -9.21293e-07)
(2.99074e-06 -1.77766e-06 4.54416e-06 2.58471e-06 5.97721e-06 -1.62191e-06)
(-8.93283e-07 4.73526e-07 9.1963e-07 1.05434e-06 4.46798e-06 -1.65654e-06)
(-3.7339e-06 2.5676e-06 2.90705e-06 1.74853e-06 3.41024e-06 -8.25167e-07)
(1.8404e-06 -3.03877e-06 2.83031e-06 3.15021e-06 6.6833e-06 -7.45173e-07)
(-2.36183e-07 6.77727e-08 2.92953e-06 6.95422e-07 6.61331e-06 -1.24278e-06)
(-2.54038e-07 7.30214e-08 2.61675e-06 6.96202e-07 6.60165e-06 -2.10192e-06)
(-2.31836e-06 3.5147e-07 1.87237e-06 1.73086e-06 7.05138e-06 -1.24047e-06)
(-9.79368e-08 6.07395e-07 8.25252e-07 -3.95953e-07 4.47921e-06 -2.57152e-06)
(-7.08206e-06 3.60758e-06 8.78651e-07 -3.194e-07 6.17934e-06 -3.97404e-07)
(7.06526e-06 -3.17363e-06 1.60118e-06 7.87979e-07 5.18603e-06 -4.02261e-06)
(-4.39759e-06 4.29552e-06 1.41207e-06 8.17158e-07 4.29953e-06 -1.66483e-06)
(1.93863e-08 -7.11223e-08 1.1336e-07 1.47325e-06 5.617e-06 -2.57152e-06)
(1.88582e-06 -1.46855e-06 2.60825e-06 -5.96335e-06 8.83769e-06 -1.18407e-06)
(4.485e-06 -6.32971e-06 6.18742e-06 9.32266e-07 6.08783e-06 -3.33919e-06)
(-4.77288e-07 5.56377e-07 -1.70033e-06 9.51714e-07 2.72557e-06 -1.54202e-06)
(-4.05668e-07 9.67871e-07 1.228e-06 5.9808e-06 3.08462e-06 -5.48924e-06)
(5.66499e-07 -1.06426e-06 1.43965e-06 -3.20831e-06 3.04538e-06 6.39457e-07)
(-4.10007e-07 2.00561e-07 2.56953e-06 8.68247e-08 1.02247e-06 -1.65654e-06)
(-1.40809e-06 -8.48766e-06 2.33669e-06 -3.01998e-06 7.34844e-06 2.11908e-06)
(-9.37776e-07 -1.3211e-06 1.93316e-06 2.9479e-07 2.87242e-06 5.30759e-07)
(2.0654e-07 2.33681e-06 1.61648e-06 1.22019e-06 2.42966e-06 -3.72139e-06)
(-1.60382e-07 3.93751e-07 3.3597e-06 9.99916e-07 -1.63716e-07 -2.75093e-06)
(1.2049e-06 1.44041e-07 1.37041e-06 8.14857e-07 8.32358e-07 -1.58483e-06)
(-1.65414e-07 3.66115e-06 2.94284e-06 1.51883e-05 1.32249e-05 -6.48791e-06)
(7.99802e-06 3.41193e-07 1.68714e-06 -7.68289e-08 4.46731e-07 -3.47007e-06)
(-9.94237e-07 -5.90222e-07 4.53215e-07 6.589e-06 4.61657e-06 -3.62907e-06)
(-1.94305e-06 8.83761e-07 1.21782e-06 1.07174e-06 1.26211e-06 -1.93148e-06)
(-8.24088e-06 3.1654e-07 8.3057e-07 1.03496e-06 1.29522e-06 -1.63214e-06)
(-3.63553e-07 1.73219e-06 1.13412e-06 1.07476e-05 8.86393e-06 -1.05783e-05)
(2.04244e-06 -1.84413e-06 3.85278e-06 -2.79243e-06 4.30325e-07 3.73124e-07)
(-3.19255e-06 -2.06543e-06 1.23296e-06 9.01613e-06 1.11621e-05 -7.15907e-06)
(-9.56101e-08 -1.14283e-06 1.62968e-06 -9.76917e-06 8.58462e-06 6.70489e-06)
(9.27499e-06 -4.60314e-07 1.67319e-06 4.29306e-07 1.43342e-06 -2.47654e-06)
(-6.99938e-06 4.7351e-06 5.04023e-07 1.1544e-05 6.82824e-06 -8.1391e-06)
(-7.31364e-06 3.26492e-06 1.89096e-06 6.53879e-06 4.52278e-06 -3.47162e-06)
(7.30504e-06 -2.70399e-06 2.66865e-06 -4.67806e-06 4.38748e-06 -5.77667e-07)
(7.011e-06 -4.19205e-06 1.15969e-06 -1.09631e-05 6.01449e-06 3.66557e-06)
(-3.31593e-07 5.71299e-07 -1.12016e-06 6.85965e-07 3.59774e-06 -1.70323e-06)
(-4.30473e-06 3.90675e-06 -2.32264e-06 1.33235e-06 5.96572e-07 -6.98593e-07)
(2.37791e-06 1.16785e-07 1.80374e-06 -7.9615e-07 1.25701e-06 -7.44777e-07)
(-9.47821e-07 2.82031e-07 -2.12387e-07 1.20723e-06 1.27866e-06 -1.9305e-06)
(-2.3929e-06 2.45193e-06 3.59997e-06 4.06176e-06 6.2713e-07 -4.20205e-06)
(-1.89941e-06 1.19702e-06 -1.92887e-06 4.75155e-07 2.20331e-06 -1.46064e-06)
(3.23619e-07 -6.05552e-08 9.55071e-07 7.01876e-07 1.93182e-06 -2.80928e-06)
(-1.13471e-06 -6.59526e-06 1.97385e-06 -1.30656e-05 9.88362e-06 1.50019e-06)
(3.20056e-07 -6.42777e-08 1.02689e-06 6.99196e-07 1.95115e-06 -1.69069e-06)
(-8.21094e-06 -7.06727e-07 1.73431e-06 3.25243e-06 6.88021e-07 -1.63884e-06)
(2.87538e-07 1.22171e-06 -1.83507e-06 1.50807e-06 7.3069e-06 -4.13763e-06)
(-6.3729e-06 4.0039e-06 2.4551e-06 2.82789e-06 2.45733e-06 -3.13464e-06)
(-2.21187e-06 1.09562e-06 1.54079e-06 1.96126e-06 1.03151e-06 -3.12798e-06)
(1.70744e-06 3.57788e-08 4.12722e-07 -1.29871e-06 -2.19676e-07 -5.00792e-07)
(-3.21594e-07 8.40729e-07 4.05398e-06 1.00075e-06 -6.91402e-07 -1.712e-06)
(-1.06794e-06 -5.44451e-08 -2.543e-06 1.63878e-06 2.60422e-06 -2.25783e-06)
(2.71464e-06 -8.29988e-07 4.81966e-06 -1.2674e-06 1.80273e-06 2.69038e-07)
(-6.4562e-06 4.78568e-06 2.01215e-06 3.68866e-06 1.82591e-06 -5.96462e-07)
(5.98564e-06 -4.63208e-06 1.839e-06 -9.26807e-07 2.2669e-06 -3.27076e-06)
(7.77526e-06 -2.22864e-06 5.29726e-07 -1.11086e-06 8.32092e-07 -2.32446e-06)
(-7.23934e-06 1.69232e-06 2.27289e-06 2.75798e-06 -1.012e-07 -2.29169e-06)
(-1.35282e-06 -3.4384e-06 1.81136e-06 -7.9364e-06 5.50912e-06 2.30688e-06)
(2.66126e-06 -3.79995e-06 2.98162e-06 -8.38187e-06 5.19612e-06 2.55791e-06)
(-2.72176e-06 1.65775e-06 4.43344e-06 2.39563e-06 1.88385e-06 -4.0438e-06)
(1.20342e-05 -1.421e-06 -1.41897e-07 -1.19034e-06 -7.93537e-07 -4.8489e-06)
(-5.7984e-06 5.5712e-06 5.1321e-07 -3.33844e-07 4.05913e-06 -9.01708e-08)
(6.57024e-06 -4.25455e-06 -2.6266e-07 1.44062e-06 3.76862e-06 -3.74238e-06)
(-2.63296e-06 -1.64081e-06 8.53715e-07 4.23306e-06 6.68269e-07 -1.9252e-06)
(2.55612e-06 -2.65835e-06 -2.87294e-07 -1.91168e-06 2.73254e-06 -1.52004e-06)
(-6.8853e-06 5.20767e-06 -3.25327e-07 6.60112e-08 3.39501e-06 -2.2486e-07)
(1.03137e-05 1.09077e-07 2.28249e-06 -2.45985e-06 1.74436e-06 -4.08262e-06)
(6.52145e-06 -5.60157e-06 5.33517e-07 5.88251e-07 3.93352e-06 -3.7131e-06)
(9.22384e-06 -2.69666e-06 1.39118e-06 -2.8045e-06 9.88095e-07 -4.46751e-06)
(5.96103e-06 1.26989e-06 1.8402e-06 2.05575e-06 5.24289e-06 -2.97393e-06)
(-1.32205e-05 2.33874e-06 -2.37636e-08 2.71261e-06 -1.54091e-07 5.28188e-07)
(-6.12453e-06 6.68584e-06 -4.75474e-07 9.19171e-07 2.92009e-06 9.44802e-07)
(-2.56059e-07 9.95167e-08 7.99329e-07 9.35124e-07 4.25787e-06 -7.30648e-07)
(3.47889e-06 -1.04642e-06 3.78857e-06 4.67344e-07 -3.7772e-07 -3.29981e-06)
(6.7485e-06 -1.33592e-06 1.77416e-06 -4.75206e-06 6.22571e-06 -3.00625e-06)
(8.96175e-06 -5.89407e-06 -2.00247e-07 -4.39692e-07 2.44955e-06 -4.28294e-06)
(3.165e-06 -9.73663e-06 3.13647e-06 -5.04095e-06 4.42163e-06 3.27662e-06)
(-2.35061e-06 6.6028e-07 3.62222e-06 1.12107e-06 -3.80762e-07 -1.32957e-06)
(6.79635e-06 -3.89746e-06 2.47286e-06 -1.01252e-06 4.79365e-06 -2.50451e-06)
(5.96103e-06 -1.31252e-06 1.25022e-06 5.60057e-07 2.68803e-06 -3.79288e-06)
(5.21014e-06 -7.06884e-06 -1.29681e-06 -5.86557e-07 2.57478e-06 -5.25048e-06)
(2.79576e-06 1.92202e-08 7.07128e-07 9.96321e-07 6.34646e-07 -3.59816e-06)
(-9.1083e-06 6.50783e-06 -4.39087e-08 1.61898e-06 2.62374e-06 -1.0139e-07)
(-4.04084e-06 2.94208e-06 -1.01643e-06 4.06861e-06 2.74943e-06 -2.52144e-06)
(-6.38818e-06 6.32288e-06 6.40714e-08 9.42649e-07 3.97526e-06 2.72241e-08)
(-7.36032e-06 1.71325e-06 1.00859e-06 3.21665e-06 1.42457e-06 -2.29076e-06)
(8.17516e-06 -1.81644e-06 1.98346e-06 -9.11568e-07 1.32815e-06 -1.84562e-06)
(9.43295e-06 -2.78694e-06 2.22522e-06 -1.13272e-06 1.13042e-06 -3.41324e-06)
(-2.7245e-07 3.10305e-07 4.38371e-08 3.48768e-06 1.72643e-06 -4.00457e-06)
(6.33443e-07 -3.8631e-07 3.87926e-07 -1.17899e-06 1.70402e-06 -7.57605e-07)
(2.23283e-06 -2.54905e-06 3.08421e-06 -4.2798e-07 8.82763e-08 -1.81049e-06)
(-2.12116e-06 -8.01182e-06 3.71929e-06 -5.57223e-06 4.46863e-06 4.99793e-06)
(-2.9506e-07 4.11986e-08 2.04356e-07 1.06515e-06 4.53465e-06 -3.54384e-06)
(6.08084e-06 -5.7019e-06 -1.48654e-07 2.73386e-07 4.41759e-06 -3.73771e-06)
(-9.90417e-06 3.30161e-06 2.32807e-06 2.2334e-06 1.43752e-06 -6.35145e-07)
(-7.15832e-06 3.97143e-06 3.01551e-06 6.69603e-06 2.80809e-06 -3.32878e-06)
(1.90652e-06 -1.31073e-06 3.59793e-06 1.27366e-06 7.85801e-06 -4.35887e-07)
(-1.8277e-06 6.92836e-07 4.90812e-07 1.01798e-05 8.66042e-06 -9.98653e-06)
(-6.46307e-06 4.70693e-06 2.0053e-06 2.83972e-06 1.8595e-06 -3.68344e-07)
(5.99342e-06 -4.59622e-06 1.77889e-06 -8.89966e-07 1.59232e-06 -4.03709e-06)
(6.78127e-06 -3.05279e-06 1.33175e-06 -1.02266e-05 8.9871e-06 4.76877e-06)
(9.57758e-06 -1.17758e-06 1.18964e-06 1.12635e-06 2.41814e-07 -4.73008e-06)
(-8.42896e-07 2.47673e-06 2.6177e-06 1.79592e-06 7.13793e-10 -2.33417e-06)
(4.87219e-06 1.74599e-06 1.99789e-06 -1.6066e-07 -5.31498e-07 -4.73008e-06)
(6.51887e-07 -1.93806e-08 -3.10726e-07 8.64796e-07 -1.12939e-06 -2.7271e-06)
(-2.5474e-06 1.99463e-06 9.1135e-07 3.44375e-07 1.04747e-06 -7.84745e-07)
(9.57758e-06 3.07002e-07 1.38449e-06 -1.71447e-06 1.21117e-06 -4.42669e-06)
(-2.86168e-06 -3.3078e-06 2.57634e-06 2.90617e-06 -7.25793e-07 -1.63996e-07)
(-4.05735e-06 4.46572e-06 2.32189e-06 1.66593e-06 7.39687e-07 -1.35647e-06)
(-1.04716e-05 2.98211e-06 1.55233e-06 4.93191e-06 7.48884e-07 1.01323e-06)
(-7.12791e-06 2.36051e-06 2.41653e-06 5.41248e-06 6.12753e-06 -8.49273e-07)
(-9.24619e-06 2.85586e-06 1.3868e-06 2.79326e-06 -1.69263e-06 5.00558e-07)
(-1.14841e-05 4.01404e-07 2.75409e-06 4.87406e-06 2.2899e-06 -5.78582e-08)
(-7.13976e-06 2.96392e-06 9.61267e-07 1.10489e-05 6.34031e-06 -7.588e-06)
(8.93754e-06 -2.86078e-06 2.05748e-06 -1.22931e-06 -1.39207e-06 -4.51546e-06)
(9.31788e-06 -3.92305e-06 8.25963e-07 -1.90638e-06 1.37399e-06 -1.50262e-06)
(-3.50614e-06 6.13373e-06 1.34382e-06 3.24333e-06 5.29004e-06 -2.8787e-06)
(-6.73035e-07 3.22935e-07 1.058e-07 9.03812e-07 8.13544e-07 -1.33566e-06)
(1.09937e-05 -2.15064e-06 7.7253e-07 -5.60747e-06 1.85668e-06 -4.58718e-06)
(-1.00078e-05 2.43481e-06 2.39596e-07 6.6435e-06 2.77092e-06 -1.97586e-07)
(-7.71652e-06 5.50246e-07 1.77418e-06 2.10147e-06 4.95912e-06 -1.26156e-06)
(-1.69753e-06 -2.10715e-06 9.10536e-07 -9.70229e-06 9.68609e-06 5.42286e-06)
(-7.71652e-06 2.28218e-06 1.10438e-06 6.61251e-07 3.29919e-06 -2.48455e-07)
(-9.80636e-06 4.28838e-06 1.35346e-06 3.71064e-06 1.30758e-06 -2.02788e-06)
(-9.90828e-06 3.27544e-06 2.33525e-06 2.76533e-06 1.91093e-06 -3.85842e-07)
(9.40842e-06 -3.00979e-06 2.34422e-06 -5.46849e-07 1.86166e-06 -3.94362e-06)
(1.90652e-06 1.79995e-06 4.07397e-06 -7.19716e-06 3.7635e-06 -1.4907e-06)
(4.64379e-06 -4.06301e-06 1.9717e-06 2.07487e-08 9.55257e-07 -3.17495e-06)
(-5.15032e-06 2.44e-06 -6.68393e-07 1.02105e-05 6.68884e-06 -6.25971e-06)
(-1.39681e-06 7.18528e-06 2.59535e-06 9.12964e-06 7.33424e-06 -5.14111e-06)
(4.07856e-06 -3.32165e-06 1.54893e-07 -7.19716e-06 9.01601e-06 4.2633e-06)
(3.61579e-06 -2.8833e-06 1.34231e-06 -1.009e-05 1.04503e-05 4.09215e-06)
(-9.61754e-06 3.20977e-06 3.72882e-07 4.98511e-06 4.15275e-06 -5.4238e-07)
(1.04745e-05 -3.17228e-06 1.13075e-06 -3.30944e-06 4.57838e-06 -3.89019e-06)
(1.68289e-07 4.96428e-07 -9.4919e-07 9.16047e-07 8.00277e-07 -1.78548e-06)
(-1.68589e-06 1.58265e-06 1.25741e-06 2.41719e-06 8.61515e-06 -3.66658e-06)
(-2.23204e-06 6.2943e-07 1.21603e-06 1.81737e-06 6.96368e-06 -1.32545e-06)
(-1.02556e-05 1.17575e-06 1.77638e-06 1.09517e-06 3.95949e-08 -1.63996e-07)
(-3.00337e-06 2.98372e-06 1.26499e-06 1.0948e-05 9.90737e-06 -9.04516e-06)
(-1.02556e-05 -5.06566e-08 1.40506e-06 3.44196e-06 1.6263e-06 5.81684e-07)
(1.69656e-06 -6.23849e-06 1.5478e-06 -9.5629e-06 7.23377e-06 1.80598e-06)
(-3.80661e-06 -2.31352e-06 4.52544e-06 -2.13443e-06 8.9281e-06 3.22327e-06)
(-3.36641e-06 9.99431e-06 3.84025e-06 7.81448e-06 3.76261e-06 -6.96244e-06)
(5.39233e-06 -5.54907e-06 1.22666e-06 -3.55025e-06 4.14713e-06 -1.81473e-06)
(-1.2238e-06 -6.54033e-07 2.77483e-06 1.02105e-05 3.13425e-06 -3.53067e-06)
(-5.88225e-06 5.22335e-06 3.64445e-06 1.17462e-05 7.93606e-06 -5.53655e-06)
(3.43271e-06 -1.96108e-06 8.13978e-07 1.62702e-06 7.71722e-07 -3.3665e-06)
(-1.2238e-06 3.08972e-06 1.97093e-06 1.57295e-06 8.59403e-06 -5.47718e-06)
(6.73636e-06 -4.64402e-06 3.71258e-06 -1.12363e-05 7.03931e-06 1.37568e-06)
(5.96103e-06 -5.03316e-07 1.27652e-06 -1.90758e-06 3.40193e-06 -3.74387e-06)
(-7.71652e-06 1.27713e-06 1.30176e-06 3.72614e-06 3.93473e-06 -6.16285e-07)
(1.04852e-06 -1.47405e-07 9.70828e-07 2.83108e-06 1.29986e-05 -7.68479e-06)
(-3.38929e-06 9.32419e-06 -7.84977e-07 2.92875e-06 4.42411e-06 -1.59631e-06)
(5.27547e-06 -8.76211e-06 3.61631e-06 -5.65739e-06 3.60074e-06 2.15362e-07)
(5.27573e-06 -8.72433e-06 -8.75162e-07 -2.33338e-06 4.5148e-06 -1.85897e-06)
(-1.07485e-05 5.16478e-06 4.05492e-06 2.89545e-06 -1.22407e-06 6.34503e-07)
(-9.41953e-06 6.18065e-06 3.82708e-07 3.42891e-06 3.14189e-06 -6.83912e-07)
(9.18739e-06 -5.62938e-06 2.12926e-07 -1.54937e-06 3.04339e-06 -3.53475e-06)
(1.08912e-05 -4.98041e-06 3.41802e-06 -1.3055e-06 -1.33797e-06 -5.80384e-06)
(3.02343e-06 -1.48666e-06 1.93636e-06 -2.38354e-06 7.48001e-06 5.17982e-07)
(-1.21847e-05 1.95136e-06 -1.21325e-06 1.37701e-06 -6.60417e-07 1.28309e-06)
(1.14758e-05 -1.2332e-06 -1.01145e-06 -5.04905e-07 -1.14231e-06 -5.65382e-06)
(1.01884e-06 2.34045e-06 3.37507e-06 -1.02626e-06 3.35711e-06 -1.65654e-06)
(4.63222e-07 1.63293e-06 3.95555e-06 2.16352e-06 2.52123e-06 -1.65654e-06)
(1.8264e-06 4.9845e-06 6.11157e-06 3.50805e-06 5.7659e-06 -2.79286e-06)
(-5.69151e-06 5.58865e-06 2.19898e-06 3.671e-06 5.23247e-06 -1.4304e-06)
(-3.91854e-08 4.40592e-06 2.80417e-06 9.67797e-06 2.95107e-06 -8.15226e-06)
(-2.42784e-06 9.37736e-06 1.21121e-06 8.0636e-06 4.29307e-06 -8.76863e-06)
(-1.22735e-06 -7.84515e-07 -2.0683e-06 -1.09089e-06 7.36413e-06 -1.86112e-06)
(5.87256e-07 2.31905e-06 1.12996e-07 4.19932e-08 7.26093e-06 -2.75956e-06)
(-1.31092e-06 -1.2838e-06 -2.18606e-06 -1.65859e-06 5.43396e-06 -1.40415e-06)
(4.61819e-07 2.50664e-06 -3.26733e-08 9.07626e-09 6.70551e-06 -5.13949e-07)
(-3.95792e-06 5.69541e-06 4.68997e-07 8.5363e-06 6.41488e-06 -6.53752e-06)
(5.10205e-07 2.85879e-06 2.18945e-06 9.4938e-06 6.22016e-06 -6.83024e-06)
(2.93783e-06 -2.21795e-06 2.69251e-06 6.08442e-07 4.10757e-06 -2.57152e-06)
(-4.94456e-07 -9.60907e-08 2.81201e-06 2.11175e-06 5.41337e-06 -1.89949e-06)
(2.91058e-06 -2.17298e-06 2.8472e-06 2.2056e-06 5.06371e-06 -2.57152e-06)
(-2.29088e-06 2.60084e-06 2.05882e-06 -1.44275e-06 6.40246e-06 -2.17469e-06)
(2.01112e-06 -5.09314e-06 -1.20969e-06 4.70971e-07 3.11221e-06 -4.61875e-06)
(9.08929e-06 -2.60404e-06 3.24282e-06 -1.19973e-06 5.5297e-06 -2.10284e-06)
(8.51656e-08 9.2184e-07 9.28998e-07 2.2039e-06 4.54811e-06 -6.82067e-07)
(2.85019e-06 -5.92023e-07 1.83595e-07 -3.96077e-06 4.80896e-06 -4.8422e-07)
(1.76632e-06 4.32845e-06 3.96452e-06 1.03488e-06 3.9492e-06 -2.01182e-06)
(-1.10072e-06 -6.88268e-07 5.9982e-06 5.48996e-06 -4.83577e-07 -1.8258e-06)
(-4.4261e-07 -7.23719e-07 4.93735e-06 -5.9234e-07 3.17881e-06 -2.25207e-06)
(-6.42524e-07 1.61489e-06 4.3301e-06 -2.66042e-07 -1.49011e-06 -2.1552e-06)
(-5.12689e-08 -1.9374e-06 5.70895e-06 3.15923e-06 9.57239e-07 -3.08339e-06)
(1.72265e-06 2.1843e-06 6.05637e-06 -4.29444e-06 -1.53565e-06 -2.21245e-06)
(-4.8032e-07 1.19197e-06 2.86724e-06 8.28557e-07 1.99258e-06 -2.50452e-06)
(1.86223e-07 4.08361e-06 4.374e-06 -3.23499e-06 1.28152e-06 -8.9514e-07)
(-3.79705e-08 6.9483e-07 5.71926e-06 1.14111e-06 -6.00096e-07 -2.05443e-06)
(6.23506e-07 -5.77389e-07 4.00739e-06 2.07808e-07 -5.24036e-07 -2.95424e-06)
(1.96362e-07 -2.0146e-06 3.62997e-06 2.13776e-06 -2.47574e-06 -1.55873e-06)
(-3.7539e-08 7.08756e-07 5.38726e-06 1.05251e-06 4.05798e-07 -1.93118e-06)
(-5.38428e-07 -2.17693e-06 4.51226e-06 3.14762e-06 1.64311e-06 -2.75212e-06)
(7.47866e-08 -2.02986e-06 4.51868e-06 3.09694e-06 -1.85959e-06 -2.35691e-06)
(-6.47696e-07 -1.72128e-06 5.23581e-06 1.33816e-06 -6.57403e-07 -1.87562e-06)
(-5.76496e-08 5.94019e-07 3.52989e-06 1.09666e-06 -6.33007e-07 -1.75505e-06)
(-7.49364e-07 2.49268e-06 4.34246e-06 -2.95093e-07 -9.16752e-07 -8.1444e-08)
(4.50874e-08 -1.96877e-06 3.72095e-06 3.31398e-06 -2.95851e-06 -1.87925e-06)
(5.02932e-07 4.23057e-06 4.44718e-06 -3.57628e-06 -2.70499e-06 -7.29402e-07)
(-5.698e-07 -2.3002e-06 5.56267e-06 4.71004e-06 -6.72482e-07 -6.76647e-06)
(2.60679e-07 5.25387e-07 4.23749e-06 4.8697e-07 3.20819e-06 -2.03453e-07)
(5.57882e-07 4.21076e-06 3.15398e-06 -3.56928e-06 -2.30344e-06 -7.83632e-07)
(2.49174e-07 5.05628e-07 4.01201e-06 4.90682e-07 2.6365e-06 -3.71918e-06)
(-3.40185e-07 6.40583e-06 2.42734e-06 -8.26603e-06 4.3469e-07 1.30652e-08)
(-9.39848e-08 -1.61034e-06 4.10054e-06 5.13716e-06 -3.35609e-06 -2.82805e-06)
(9.21175e-07 -4.21266e-06 2.8142e-06 8.79956e-06 9.55747e-08 -2.98696e-06)
(8.17852e-07 4.2872e-06 2.34468e-06 -3.8315e-06 -1.56339e-06 -1.62396e-06)
(-2.16143e-07 -7.17737e-07 4.33501e-06 3.11828e-06 -1.95946e-06 -1.13048e-06)
(-7.77788e-07 -2.28488e-06 3.20011e-06 4.313e-06 -2.17867e-06 -1.35189e-06)
(-1.34423e-06 -2.14477e-08 1.99171e-06 5.5212e-06 3.94195e-07 -1.94758e-06)
(-3.20585e-07 -2.30791e-06 4.08308e-06 4.44722e-06 5.18593e-07 -2.96846e-06)
(-1.0122e-06 2.24764e-08 1.96558e-06 4.47542e-07 1.70225e-06 -1.93515e-06)
(1.25977e-06 6.55075e-07 2.08288e-06 5.07477e-07 2.2453e-06 -2.1512e-06)
(1.32746e-06 7.28847e-07 2.91786e-06 -1.75939e-06 4.7788e-07 -1.53565e-06)
(-1.44954e-06 4.11035e-06 4.48657e-06 9.45059e-07 -3.72031e-07 -4.24228e-06)
(1.03704e-06 3.01639e-06 5.42514e-06 -2.21825e-06 -6.51892e-07 -7.71055e-07)
(7.21241e-07 8.62897e-07 3.39163e-06 -3.13768e-07 -1.34666e-06 -1.66796e-06)
(-7.45222e-07 -2.35131e-06 3.44639e-06 5.8247e-06 9.46173e-07 -2.86099e-06)
(2.95689e-06 3.97822e-06 3.55145e-06 -6.67132e-06 2.46551e-07 -1.32522e-06)
(1.28844e-06 1.43119e-06 3.32198e-06 -4.61722e-06 1.3697e-07 -8.85499e-07)
(1.04744e-06 6.62372e-08 3.97109e-06 2.86666e-07 -8.41335e-07 -7.69553e-07)
(6.49224e-06 4.99795e-07 6.17276e-07 -1.56873e-05 -2.81107e-07 -2.79199e-07)
(-2.16696e-06 2.60403e-06 3.15994e-06 1.91304e-06 3.37605e-07 -5.28566e-06)
(-1.57283e-06 -2.69105e-06 2.03029e-06 5.02467e-06 -1.7828e-06 -2.30294e-06)
(1.67576e-06 3.05191e-07 2.57753e-06 -2.89525e-06 3.62496e-07 -1.65277e-06)
(1.46098e-06 2.78846e-07 3.10999e-06 -1.86073e-07 -1.0478e-06 -1.57827e-06)
(1.34439e-06 -1.97032e-06 4.73533e-07 4.96192e-07 3.5704e-06 -5.11681e-07)
(3.04995e-06 1.08242e-06 2.50434e-06 -9.60733e-06 -8.17755e-07 -1.19199e-06)
(9.35295e-08 6.36416e-07 4.27799e-06 -5.30258e-08 -3.29788e-06 -1.25042e-06)
(1.53275e-06 -1.16765e-06 3.25438e-06 1.15261e-06 4.63541e-06 -1.53995e-06)
(2.48116e-06 2.04517e-06 2.2898e-06 -4.31131e-06 -5.49128e-07 -2.35447e-06)
(-1.19275e-07 -4.27614e-06 2.15515e-06 9.83717e-06 -4.86472e-07 -4.02643e-06)
(1.39316e-06 -4.53103e-06 1.34059e-06 -1.62281e-06 3.26024e-06 -6.64224e-08)
(-1.89558e-06 -2.43258e-06 1.77662e-06 6.78893e-06 -5.17543e-07 -3.41762e-06)
(3.67428e-06 -7.15504e-06 2.29411e-06 5.03189e-07 5.49289e-06 -4.93746e-06)
(9.03008e-07 3.46787e-06 4.73987e-06 -3.73897e-06 1.64294e-06 -2.4855e-06)
(-1.30993e-06 6.477e-06 3.56879e-06 7.65989e-08 -4.71651e-07 -4.03906e-06)
(-7.1058e-07 8.8136e-07 4.88111e-06 1.00745e-06 1.70255e-06 -1.50667e-06)
(-2.07313e-06 -8.62514e-07 1.34858e-06 8.34134e-06 -1.8641e-06 -1.9086e-06)
(3.53887e-07 4.38562e-07 3.11932e-06 1.6593e-07 -1.6864e-07 -1.22923e-06)
(-3.08041e-06 6.38394e-06 4.75508e-06 -2.11053e-06 -4.0196e-09 5.4799e-07)
(-6.53764e-07 -6.0081e-07 3.02307e-06 4.08255e-06 4.69505e-07 -2.11665e-06)
(-9.48258e-07 -1.40741e-06 4.36972e-06 3.44137e-06 -3.14888e-07 -2.47613e-06)
(-9.09378e-07 -1.33847e-06 3.95668e-06 3.23872e-06 -8.511e-07 1.79337e-06)
(-1.12657e-06 -2.43653e-07 1.8181e-06 4.96932e-06 -5.04864e-07 -2.11665e-06)
(2.22993e-06 -1.76565e-06 2.70115e-06 1.7396e-07 4.48976e-07 -1.08141e-06)
(-2.32595e-06 2.27683e-06 2.49372e-06 1.36405e-06 -2.25914e-07 -2.83423e-06)
(2.80587e-06 1.54547e-07 2.29687e-06 -8.43994e-06 6.31589e-08 -7.7456e-07)
(-7.59774e-09 1.24401e-07 2.54987e-06 9.91533e-07 1.34312e-06 -8.48354e-07)
(2.18266e-07 3.89792e-07 3.92109e-06 5.80774e-08 2.24245e-06 -2.10829e-06)
(4.04772e-06 9.00947e-07 1.57512e-06 -1.05666e-05 -1.66891e-06 -1.37546e-06)
(8.81856e-07 2.5105e-07 2.86797e-06 2.19657e-07 -2.9564e-07 -4.74408e-06)
(5.41872e-07 5.59067e-06 2.21187e-06 -8.32189e-06 3.12455e-07 -7.52146e-07)
(2.39147e-06 1.73372e-06 3.49549e-06 -4.76104e-06 -3.23022e-08 -1.15998e-06)
(9.37042e-07 3.51199e-07 2.97866e-06 -2.37787e-06 4.61361e-07 -1.08725e-06)
(-7.86686e-07 -1.38913e-06 3.05063e-06 3.25713e-06 -3.11555e-07 -2.45877e-06)
(-2.56454e-06 -1.00988e-06 1.05266e-06 1.00353e-05 2.4486e-07 -3.00681e-06)
(-1.39153e-06 -3.57968e-06 1.90884e-06 9.33244e-06 -9.32685e-07 -3.57762e-06)
(3.39025e-06 4.42129e-06 1.89629e-06 -6.22154e-06 -1.61473e-06 -3.89729e-06)
(8.46577e-07 1.90115e-06 4.34437e-06 -3.34627e-06 -1.89936e-06 -2.1251e-06)
(1.67402e-06 8.48343e-07 2.02729e-06 -2.71307e-06 -8.16726e-07 -1.73163e-06)
(-8.93341e-07 4.94701e-06 1.88885e-06 3.10644e-06 3.19841e-06 -4.19879e-06)
(2.10209e-06 -1.25837e-06 2.14234e-06 -3.87423e-07 1.10543e-06 -1.84545e-06)
(1.64475e-06 3.19639e-07 3.03987e-06 -2.84346e-06 -4.77331e-07 -1.88368e-06)
(-2.56751e-06 -7.24227e-07 1.3707e-06 8.48731e-06 -4.40362e-07 -2.5722e-06)
(4.68615e-06 1.56988e-06 1.2052e-06 -9.98154e-06 8.42201e-07 -1.90412e-07)
(2.41368e-06 5.45478e-08 1.70338e-06 -4.05935e-06 -4.77966e-07 -1.65277e-06)
(-1.84089e-06 -1.36511e-06 1.48402e-06 4.67644e-06 -1.21931e-06 -1.36201e-06)
(1.03954e-07 6.20956e-07 4.05085e-06 -3.67181e-08 -3.15763e-06 -2.13853e-06)
(-5.74244e-07 -6.09676e-07 2.54244e-06 2.8101e-06 -3.47826e-07 -1.88266e-06)
(-7.39649e-07 1.77749e-06 7.92009e-07 2.60251e-07 3.6433e-06 -3.57999e-06)
(-1.11069e-06 -1.23832e-06 5.86191e-06 3.19931e-06 -2.13614e-06 -5.31888e-06)
(2.97005e-06 6.34312e-07 1.94551e-06 -6.47612e-06 5.13289e-07 -1.56818e-06)
(4.82548e-06 1.50769e-06 9.42269e-07 -1.34062e-05 -9.09497e-07 -7.06088e-07)
(8.99197e-07 3.53492e-06 4.89719e-06 -4.91076e-06 -1.39095e-06 -2.0382e-07)
(-1.71403e-06 -1.40144e-06 2.97191e-06 -7.87444e-08 1.82803e-06 -9.13414e-07)
(1.03792e-06 -1.12314e-07 3.19517e-06 -2.55256e-07 -6.0034e-07 -1.23979e-06)
(-1.88052e-06 -1.71266e-06 1.16187e-06 6.67474e-06 -2.58646e-07 -2.3945e-06)
(-1.9864e-06 -1.13261e-06 1.65051e-06 6.18971e-06 -1.36955e-06 -1.54537e-06)
(-1.05041e-06 -2.43896e-07 1.37313e-06 4.96932e-06 -1.06009e-07 -1.94758e-06)
(-3.12516e-06 3.34753e-06 4.12454e-06 -2.30126e-06 -1.36461e-06 2.16593e-06)
(8.61699e-07 1.52865e-07 2.54138e-06 -1.47934e-07 -8.75381e-07 -7.98794e-07)
(2.22886e-08 1.33338e-07 2.74189e-06 8.94133e-07 7.82143e-07 -3.43615e-06)
(-9.72591e-07 -1.05261e-06 2.55623e-06 2.97223e-07 -2.31286e-06 -1.00982e-06)
(5.9632e-07 1.07719e-07 2.2037e-06 7.99212e-07 -1.05881e-06 -1.95298e-06)
(-5.25116e-07 -6.31506e-07 2.20059e-06 2.81774e-06 -2.62547e-07 -1.66135e-06)
(-2.05926e-06 -8.69102e-07 8.94473e-07 8.28682e-06 -6.96281e-07 -2.76044e-06)
(2.03145e-06 -1.042e-06 1.99979e-06 2.41115e-07 -2.63183e-07 3.90712e-07)
(-5.88112e-07 -5.20583e-07 2.53674e-06 4.12832e-06 -5.3564e-07 -1.74339e-06)
(2.49409e-06 3.22292e-06 2.34627e-06 -6.14981e-06 -2.46728e-07 -9.67214e-07)
(2.39208e-06 4.45647e-08 1.86698e-06 -4.05935e-06 -5.32503e-07 -1.53565e-06)
(-5.85253e-07 -2.62868e-06 2.98139e-06 4.03833e-06 -3.18376e-06 -3.54251e-06)
(2.03762e-06 -2.73924e-07 3.04517e-06 -1.16968e-06 1.51917e-06 -2.94111e-06)
(1.24727e-07 4.93162e-06 5.38494e-06 9.62883e-07 -3.85758e-06 -4.36577e-06)
(-6.38405e-07 -3.55105e-06 5.18061e-06 1.75506e-06 -3.60141e-06 5.39893e-07)
(3.09802e-06 5.49411e-06 1.48605e-06 -1.00934e-05 4.04491e-07 -5.19292e-07)
(-7.59105e-07 -1.808e-06 3.41823e-06 5.04692e-06 -1.07994e-06 -2.44041e-06)
(3.81382e-06 1.07333e-06 1.91524e-06 -8.0945e-06 -9.39015e-07 -1.50011e-06)
(1.45211e-06 -2.85138e-06 4.49912e-06 1.31021e-07 -4.48118e-07 4.93237e-07)
(-6.28392e-08 -3.68898e-08 6.6603e-06 2.52051e-07 2.26345e-06 -1.24047e-06)
(1.19852e-06 2.31434e-07 4.30146e-06 -1.51427e-06 -2.15134e-06 -1.3182e-06)
(1.6137e-06 6.95525e-07 2.95462e-06 -9.78982e-08 5.51029e-07 -2.11768e-06)
(-2.53188e-06 -9.25059e-07 7.3679e-07 9.0979e-06 2.51236e-07 -3.48751e-06)
(-1.04868e-06 -1.35738e-06 2.79911e-06 4.65393e-06 -8.59659e-07 -1.74368e-06)
(-1.17635e-06 7.07268e-06 2.15422e-06 -2.5237e-06 5.53855e-07 7.09461e-07)
(-9.64034e-07 -1.3377e-06 2.28504e-06 4.58582e-06 -1.40485e-06 -1.11506e-06)
(1.95836e-06 -2.2311e-06 3.54264e-06 3.50415e-06 -1.09498e-06 -5.38253e-06)
(6.77532e-08 -2.72278e-07 4.05417e-06 -1.48117e-06 -2.10042e-06 -2.96668e-06)
(4.35353e-07 6.50247e-09 3.08025e-06 7.41147e-07 -6.6757e-07 -2.14197e-06)
(-5.693e-07 1.04243e-06 4.79319e-06 7.16244e-08 -3.76795e-06 -1.54202e-06)
(-1.07338e-06 6.23759e-07 3.41744e-06 1.3664e-06 1.874e-06 -1.14583e-06)
(-2.62649e-06 -1.75838e-06 1.11973e-06 7.65997e-06 -7.24069e-07 -2.66078e-06)
(-1.15529e-06 -6.43519e-07 2.24511e-06 3.9731e-06 -1.08315e-06 -2.36246e-06)
(1.90104e-06 1.36055e-06 3.5013e-06 8.65441e-07 1.66625e-06 -3.31054e-06)
(3.51553e-06 2.72515e-06 3.48876e-06 -4.35716e-06 8.94717e-07 -1.83693e-06)
(-2.07747e-06 -1.31398e-06 1.63631e-06 1.05671e-05 -4.86531e-07 -2.87364e-06)
(5.00119e-06 7.91439e-07 1.05088e-06 -1.25533e-05 -7.16739e-07 -8.3435e-07)
(6.81345e-08 8.61392e-07 4.77826e-06 -1.9782e-06 -2.55632e-06 1.29355e-06)
(1.72328e-06 7.82979e-08 2.2886e-06 -6.62605e-06 -9.0211e-07 -1.3483e-06)
(-2.36032e-06 -1.67827e-06 1.05706e-06 1.1196e-05 -3.93697e-07 -3.41899e-06)
(1.14046e-06 1.13587e-06 4.50029e-06 -1.90829e-06 -2.59412e-06 -1.83926e-06)
(1.60236e-06 8.73213e-07 3.06675e-06 -2.71724e-06 -1.42608e-06 -2.92859e-06)
(2.68374e-06 3.22746e-06 3.23008e-06 -4.37807e-06 -2.05061e-07 -2.06589e-06)
(-5.58417e-07 -7.22398e-07 2.62308e-06 2.11084e-07 -1.06605e-06 -1.47789e-06)
(-3.07202e-06 -3.85861e-06 1.89878e-06 2.69341e-06 1.42238e-06 -1.77863e-07)
(-6.03406e-07 -3.46301e-07 2.43982e-06 6.19514e-06 -2.21033e-07 -2.20362e-06)
(2.27017e-06 4.29471e-06 2.48591e-06 -4.94273e-06 -4.00214e-06 4.49567e-07)
(1.17623e-06 4.92072e-06 2.72657e-06 3.6222e-06 4.87019e-06 -4.0632e-06)
(-3.95763e-07 -4.39791e-06 2.43833e-06 -2.82274e-06 4.65793e-06 1.61911e-07)
(-1.92974e-06 -1.22952e-06 1.04579e-06 6.24689e-06 -1.17161e-06 -3.30657e-06)
(1.43644e-06 8.73246e-07 3.05159e-06 -2.08719e-06 2.68881e-07 -1.71649e-06)
(1.77264e-06 9.35678e-07 2.6588e-06 -2.37285e-06 -3.07413e-06 -2.51924e-06)
(1.32435e-06 1.18773e-06 3.65986e-06 -2.62688e-06 -1.91729e-06 4.21186e-07)
(3.73479e-06 1.78364e-06 2.16882e-06 -8.38366e-06 4.32257e-07 -1.24082e-06)
(2.58395e-07 1.335e-06 6.24923e-06 -5.88019e-08 -2.43324e-06 -1.85629e-06)
(7.07425e-08 5.81971e-07 4.57757e-06 2.83355e-07 3.47085e-08 -1.01728e-06)
(3.8534e-06 1.69362e-06 2.45757e-06 -9.64942e-06 -6.3775e-08 -5.95304e-07)
(-1.79453e-06 -1.28882e-06 9.20512e-07 6.86726e-06 -1.44268e-06 -1.71706e-06)
(6.22115e-06 -1.98274e-07 2.02608e-07 -1.39447e-05 -1.1566e-06 -9.03032e-07)
(2.04203e-06 1.20867e-06 3.05773e-06 -4.14542e-06 -1.30956e-06 -2.83149e-06)
(1.77391e-06 9.18471e-07 2.58807e-06 -2.50394e-06 -8.45525e-07 -3.03193e-06)
(8.50121e-08 5.91072e-07 4.75979e-06 2.77884e-07 3.42784e-07 -1.95473e-06)
(3.86377e-06 1.29374e-06 2.08957e-06 -8.41848e-06 2.80512e-07 -1.04792e-06)
(-1.92903e-06 -1.89843e-06 1.76447e-06 5.94698e-06 -2.55619e-06 -2.77352e-06)
(1.06566e-06 -3.90975e-06 3.73295e-06 7.56399e-06 -4.73325e-07 -4.63633e-06)
(2.80624e-06 6.74787e-07 2.92399e-06 -6.3309e-06 -6.85744e-07 -1.51009e-06)
(-3.71518e-06 4.20883e-06 3.10188e-06 -3.43224e-06 2.70011e-06 1.19671e-06)
(-2.3367e-06 5.59056e-06 5.63933e-06 -7.82947e-08 -2.13759e-06 -1.13583e-06)
(7.57945e-07 3.42952e-07 2.52993e-06 2.97753e-07 -3.47399e-07 -1.36084e-06)
(6.27556e-07 -5.04616e-07 3.3903e-06 2.81657e-06 -3.1742e-07 -1.98839e-06)
(-2.61323e-06 -1.90648e-06 6.20904e-07 1.26407e-05 -5.32741e-07 -3.62807e-06)
(-2.21441e-06 -2.08234e-06 1.77528e-06 6.45163e-06 -5.19748e-08 -2.40594e-06)
(3.16989e-06 -5.20543e-06 4.83735e-06 3.19319e-06 -1.88318e-08 -4.30572e-06)
(7.60891e-07 7.19322e-06 2.45054e-06 -1.98325e-06 3.8422e-06 -3.30314e-06)
(-7.11171e-07 4.69248e-06 3.81936e-06 -7.47442e-06 -1.73248e-07 8.10876e-07)
(-2.02685e-06 -1.7056e-06 6.69765e-07 7.19556e-06 -2.4316e-06 -2.08731e-06)
(3.56439e-07 2.93115e-07 5.87696e-06 2.95472e-07 3.68244e-06 -1.84024e-06)
(1.31473e-06 -5.17668e-06 3.59431e-06 1.22684e-06 -5.57577e-07 2.49231e-07)
(-9.23845e-07 -1.4535e-06 1.77456e-06 6.6869e-06 1.37016e-07 -2.91092e-06)
(4.05346e-06 -3.55613e-06 2.8867e-06 3.9016e-06 2.54058e-06 -5.06471e-06)
(-1.98633e-06 -1.15252e-06 1.65315e-06 6.128e-06 -1.53135e-08 -2.23603e-06)
(1.22328e-06 5.41014e-07 4.4412e-06 -1.07566e-06 1.07683e-06 -1.16806e-06)
(3.95096e-06 1.5629e-07 1.34878e-06 -7.68814e-06 7.98307e-08 -1.56818e-06)
(2.8878e-08 3.53109e-07 3.9342e-06 2.58351e-06 -4.03689e-06 -2.27857e-06)
(5.0415e-06 2.86675e-06 9.63876e-07 -1.43672e-05 -5.0076e-07 -4.99546e-08)
(-5.93335e-07 1.11587e-06 1.09864e-06 2.74283e-06 -2.31147e-06 -1.14605e-06)
(1.44564e-06 8.20191e-07 3.12342e-06 -2.24699e-06 -5.88852e-07 -1.5783e-06)
(2.89162e-06 2.32086e-06 2.93991e-06 -4.89614e-06 -2.48367e-06 -4.46966e-06)
(4.00836e-06 2.27584e-06 1.05902e-06 -7.67436e-06 -1.04403e-06 -1.18614e-06)
(-4.63608e-08 -6.34362e-06 2.21997e-06 2.53996e-06 3.64821e-06 -6.06864e-07)
(3.28813e-06 2.46417e-06 1.91276e-06 -7.32637e-06 -3.12315e-07 -1.13624e-06)
(-1.72608e-06 -2.47573e-06 1.41649e-06 1.11451e-05 -6.27904e-07 -3.56044e-06)
(9.6229e-07 4.13839e-07 2.41312e-06 5.28695e-07 -1.23446e-06 -2.18828e-06)
(-4.6906e-06 7.42129e-06 2.9142e-06 -2.76513e-06 9.84342e-07 1.29339e-06)
(1.22621e-06 5.5678e-07 4.39262e-06 -1.96197e-06 -6.4178e-07 -2.55007e-06)
(-1.92661e-06 -1.61164e-06 1.4743e-06 7.07896e-06 -2.16632e-06 -2.12207e-06)
(2.32233e-06 1.60919e-06 3.873e-06 -4.89052e-06 -3.66831e-07 -4.97726e-07)
(9.18552e-07 9.07337e-07 2.5456e-06 -2.67723e-06 -1.12401e-06 -1.4988e-06)