/*--------------------------------*- C++ -*----------------------------------*\
| =========                 |                                                 |
| \\      /  F ield         | OpenFOAM: The Open Source CFD Toolbox           |
|  \\    /   O peration     | Version:  v2012                                 |
|   \\  /    A nd           | Website:  www.openfoam.com                      |
|    \\/     M anipulation  |                                                 |
\*---------------------------------------------------------------------------*/
FoamFile
{
    version     2.0;
    format      ascii;
    class       volVectorField;
    location    "2";
    object      D_0;
}
// * * * * * * * * * * * * * * * * * * * * * * * * * * * * * * * * * * * * * //

dimensions      [0 1 0 0 0 0 0];


internalField   nonuniform List<vector> 
8000
(
(8.55889e-06 -0.000353723 0)
(1.67073e-05 -0.000355559 0)
(7.93688e-06 -0.000360056 0)
(1.58868e-05 -0.000361827 0)
(7.5015e-06 -0.000365799 0)
(1.51705e-05 -0.000367375 0)
(7.16988e-06 -0.000370911 0)
(1.45448e-05 -0.000372285 0)
(6.89261e-06 -0.000375482 0)
(1.39942e-05 -0.00037668 0)
(6.6499e-06 -0.000379609 0)
(1.35074e-05 -0.000380657 0)
(6.43517e-06 -0.000383367 0)
(1.30768e-05 -0.000384286 0)
(6.24536e-06 -0.000386811 0)
(1.26961e-05 -0.00038762 0)
(6.07774e-06 -0.000389991 0)
(1.23593e-05 -0.000390706 0)
(5.92964e-06 -0.000392947 0)
(1.20609e-05 -0.000393583 0)
(5.79856e-06 -0.000395716 0)
(1.17961e-05 -0.000396285 0)
(5.68223e-06 -0.000398329 0)
(1.15605e-05 -0.00039884 0)
(5.57868e-06 -0.000400811 0)
(1.13501e-05 -0.000401273 0)
(5.48604e-06 -0.000403184 0)
(1.11613e-05 -0.000403604 0)
(5.40248e-06 -0.000405468 0)
(1.09905e-05 -0.000405851 0)
(5.32587e-06 -0.000407679 0)
(1.08338e-05 -0.000408029 0)
(5.25368e-06 -0.000409829 0)
(1.06867e-05 -0.00041015 0)
(5.18385e-06 -0.000411928 0)
(1.05453e-05 -0.000412226 0)
(5.1185e-06 -0.00041398 0)
(1.0407e-05 -0.000414265 0)
(5.07255e-06 -0.000415984 0)
(1.02713e-05 -0.000416279 0)
(3.51007e-05 -0.000352578 0)
(4.27668e-05 -0.000354062 0)
(3.3111e-05 -0.000358886 0)
(4.05535e-05 -0.00036025 0)
(3.14464e-05 -0.00036458 0)
(3.8642e-05 -0.000365717 0)
(3.00333e-05 -0.000369634 0)
(3.69922e-05 -0.000370547 0)
(2.88135e-05 -0.000374147 0)
(3.55564e-05 -0.000374863 0)
(2.77491e-05 -0.000378218 0)
(3.42969e-05 -0.000378762 0)
(2.68142e-05 -0.000381924 0)
(3.31872e-05 -0.000382317 0)
(2.59902e-05 -0.00038532 0)
(3.22071e-05 -0.000385583 0)
(2.52623e-05 -0.000388456 0)
(3.13401e-05 -0.000388604 0)
(2.46185e-05 -0.000391371 0)
(3.05722e-05 -0.000391421 0)
(2.40479e-05 -0.000394101 0)
(2.98908e-05 -0.000394065 0)
(2.35411e-05 -0.000396676 0)
(2.92847e-05 -0.000396565 0)
(2.30898e-05 -0.00039912 0)
(2.87439e-05 -0.000398944 0)
(2.26861e-05 -0.000401457 0)
(2.82592e-05 -0.000401223 0)
(2.23233e-05 -0.000403703 0)
(2.78226e-05 -0.000403417 0)
(2.19953e-05 -0.000405873 0)
(2.74266e-05 -0.000405542 0)
(2.16969e-05 -0.000407981 0)
(2.70645e-05 -0.00040761 0)
(2.14244e-05 -0.000410036 0)
(2.67294e-05 -0.000409628 0)
(2.11772e-05 -0.000412048 0)
(2.64137e-05 -0.000411603 0)
(2.09601e-05 -0.000414019 0)
(2.61075e-05 -0.000413535 0)
(6.14719e-05 -0.000350575 0)
(6.86784e-05 -0.000351673 0)
(5.81919e-05 -0.000356637 0)
(6.52076e-05 -0.000357573 0)
(5.53658e-05 -0.000362119 0)
(6.2177e-05 -0.000362783 0)
(5.29119e-05 -0.000366992 0)
(5.95345e-05 -0.000367398 0)
(5.07692e-05 -0.000371347 0)
(5.72234e-05 -0.000371532 0)
(4.88913e-05 -0.000375279 0)
(5.51943e-05 -0.000375271 0)
(4.72407e-05 -0.000378858 0)
(5.34074e-05 -0.000378682 0)
(4.5786e-05 -0.00038214 0)
(5.18301e-05 -0.000381816 0)
(4.45014e-05 -0.000385169 0)
(5.04353e-05 -0.000384716 0)
(4.33648e-05 -0.000387986 0)
(4.91996e-05 -0.000387419 0)
(4.23572e-05 -0.000390624 0)
(4.8103e-05 -0.000389957 0)
(4.14621e-05 -0.000393111 0)
(4.71275e-05 -0.000392355 0)
(4.06647e-05 -0.000395473 0)
(4.62572e-05 -0.000394637 0)
(3.99518e-05 -0.000397729 0)
(4.54778e-05 -0.000396821 0)
(3.93117e-05 -0.000399897 0)
(4.47763e-05 -0.000398924 0)
(3.87334e-05 -0.000401991 0)
(4.41407e-05 -0.00040096 0)
(3.82077e-05 -0.000404026 0)
(4.35601e-05 -0.00040294 0)
(3.77268e-05 -0.00040601 0)
(4.3024e-05 -0.000404874 0)
(3.7287e-05 -0.000407951 0)
(4.25219e-05 -0.000406763 0)
(3.68891e-05 -0.000409853 0)
(4.20429e-05 -0.000408611 0)
(8.77405e-05 -0.000347683 0)
(9.44894e-05 -0.000348318 0)
(8.31878e-05 -0.000353364 0)
(8.97921e-05 -0.000353815 0)
(7.92404e-05 -0.000358508 0)
(8.56941e-05 -0.000358668 0)
(7.5794e-05 -0.000363087 0)
(8.21115e-05 -0.000362969 0)
(7.27711e-05 -0.000367185 0)
(7.89677e-05 -0.000366826 0)
(7.01126e-05 -0.00037089 0)
(7.62007e-05 -0.000370322 0)
(6.77706e-05 -0.000374265 0)
(7.37604e-05 -0.000373515 0)
(6.57041e-05 -0.000377362 0)
(7.16047e-05 -0.00037645 0)
(6.3878e-05 -0.000380223 0)
(6.96978e-05 -0.000379169 0)
(6.22618e-05 -0.000382884 0)
(6.80083e-05 -0.000381703 0)
(6.08289e-05 -0.000385377 0)
(6.65089e-05 -0.000384083 0)
(5.95558e-05 -0.000387727 0)
(6.51752e-05 -0.000386333 0)
(5.84219e-05 -0.000389959 0)
(6.39859e-05 -0.000388473 0)
(5.74087e-05 -0.00039209 0)
(6.29216e-05 -0.000390522 0)
(5.64996e-05 -0.000394138 0)
(6.1965e-05 -0.000392493 0)
(5.56797e-05 -0.000396116 0)
(6.11002e-05 -0.000394401 0)
(5.49358e-05 -0.000398035 0)
(6.03128e-05 -0.000396255 0)
(5.42571e-05 -0.000399906 0)
(5.95887e-05 -0.000398063 0)
(5.36356e-05 -0.000401735 0)
(5.89141e-05 -0.000399827 0)
(5.30682e-05 -0.000403525 0)
(5.82744e-05 -0.000401549 0)
(0.000113853 -0.000343898 0)
(0.000120152 -0.00034404 0)
(0.000108088 -0.000349083 0)
(0.000114292 -0.000349018 0)
(0.000103071 -0.000353786 0)
(0.000109182 -0.000353417 0)
(9.86809e-05 -0.000357973 0)
(0.000104711 -0.000357316 0)
(9.4824e-05 -0.000361725 0)
(0.000100783 -0.000360818 0)
(9.14265e-05 -0.000365122 0)
(9.73206e-05 -0.000363996 0)
(8.8429e-05 -0.000368221 0)
(9.42631e-05 -0.000366902 0)
(8.57809e-05 -0.000371069 0)
(9.15598e-05 -0.000369578 0)
(8.34389e-05 -0.000373701 0)
(8.91668e-05 -0.000372058 0)
(8.13648e-05 -0.000376152 0)
(8.70459e-05 -0.000374372 0)
(7.95254e-05 -0.000378449 0)
(8.51632e-05 -0.000376547 0)
(7.78911e-05 -0.000380615 0)
(8.3489e-05 -0.000378603 0)
(7.64359e-05 -0.000382672 0)
(8.19967e-05 -0.000380559 0)
(7.51363e-05 -0.000384637 0)
(8.06624e-05 -0.000382432 0)
(7.39715e-05 -0.000386524 0)
(7.94648e-05 -0.000384233 0)
(7.29226e-05 -0.000388346 0)
(7.83842e-05 -0.000385974 0)
(7.19729e-05 -0.000390113 0)
(7.74027e-05 -0.000387665 0)
(7.11081e-05 -0.000391833 0)
(7.65034e-05 -0.000389312 0)
(7.03172e-05 -0.000393513 0)
(7.56697e-05 -0.000390916 0)
(6.95931e-05 -0.000395154 0)
(7.48841e-05 -0.000392477 0)
(0.000139745 -0.000339252 0)
(0.000145611 -0.000338882 0)
(0.000132855 -0.000343834 0)
(0.000138678 -0.000343237 0)
(0.000126841 -0.000347999 0)
(0.000132629 -0.00034709 0)
(0.00012157 -0.000351709 0)
(0.000127333 -0.000350509 0)
(0.000116934 -0.000355038 0)
(0.000122675 -0.000353584 0)
(0.000112845 -0.000358056 0)
(0.000118566 -0.000356378 0)
(0.000109235 -0.000360815 0)
(0.000114934 -0.000358939 0)
(0.000106042 -0.000363353 0)
(0.00011172 -0.0003613 0)
(0.000103216 -0.000365703 0)
(0.000108874 -0.000363491 0)
(0.000100712 -0.000367894 0)
(0.000106349 -0.000365539 0)
(9.8491e-05 -0.000369949 0)
(0.000104108 -0.000367465 0)
(9.65171e-05 -0.000371889 0)
(0.000102116 -0.000369287 0)
(9.47599e-05 -0.000373731 0)
(0.00010034 -0.000371022 0)
(9.31916e-05 -0.000375492 0)
(9.87538e-05 -0.000372681 0)
(9.17874e-05 -0.000377182 0)
(9.73319e-05 -0.000374278 0)
(9.05249e-05 -0.000378813 0)
(9.60514e-05 -0.000375821 0)
(8.93842e-05 -0.000380394 0)
(9.48914e-05 -0.000377318 0)
(8.83479e-05 -0.000381931 0)
(9.38322e-05 -0.000378773 0)
(8.74019e-05 -0.00038343 0)
(9.28549e-05 -0.000380188 0)
(8.65359e-05 -0.000384893 0)
(9.19397e-05 -0.000381561 0)
(0.00016536 -0.000333793 0)
(0.000170817 -0.000332898 0)
(0.000157451 -0.000337673 0)
(0.000162915 -0.000336539 0)
(0.000150528 -0.000341214 0)
(0.000156016 -0.000339767 0)
(0.000144452 -0.000344372 0)
(0.00014997 -0.000342634 0)
(0.000139101 -0.000347208 0)
(0.000144646 -0.000345218 0)
(0.000134378 -0.000349785 0)
(0.000139946 -0.000347572 0)
(0.000130203 -0.000352147 0)
(0.000135788 -0.000349734 0)
(0.000126509 -0.000354325 0)
(0.000132106 -0.000351733 0)
(0.000123237 -0.000356346 0)
(0.000128843 -0.000353592 0)
(0.000120336 -0.000358233 0)
(0.000125949 -0.000355333 0)
(0.000117761 -0.000360006 0)
(0.000123378 -0.000356973 0)
(0.000115473 -0.000361682 0)
(0.000121092 -0.000358527 0)
(0.000113437 -0.000363275 0)
(0.000119057 -0.000360007 0)
(0.000111621 -0.000364798 0)
(0.000117239 -0.000361424 0)
(0.000109996 -0.00036626 0)
(0.000115613 -0.000362788 0)
(0.000108538 -0.000367671 0)
(0.00011415 -0.000364105 0)
(0.000107224 -0.000369037 0)
(0.00011283 -0.000365382 0)
(0.000106033 -0.000370365 0)
(0.000111628 -0.000366621 0)
(0.000104948 -0.000371657 0)
(0.000110525 -0.000367823 0)
(0.000103958 -0.000372916 0)
(0.000109498 -0.000368985 0)
(0.000190648 -0.000327573 0)
(0.000195723 -0.00032615 0)
(0.000181836 -0.00033067 0)
(0.000186969 -0.000329 0)
(0.000174107 -0.000333513 0)
(0.000179319 -0.000331534 0)
(0.000167312 -0.000336051 0)
(0.000172607 -0.00033379 0)
(0.000161321 -0.000338336 0)
(0.000166691 -0.000335829 0)
(0.000156027 -0.00034042 0)
(0.000161462 -0.000337694 0)
(0.000151343 -0.000342337 0)
(0.000156833 -0.000339415 0)
(0.000147195 -0.000344111 0)
(0.000152731 -0.000341011 0)
(0.000143519 -0.000345762 0)
(0.000149093 -0.000342501 0)
(0.000140258 -0.000347308 0)
(0.000145864 -0.000343901 0)
(0.000137362 -0.000348765 0)
(0.000142996 -0.000345224 0)
(0.00013479 -0.000350145 0)
(0.000140446 -0.00034648 0)
(0.0001325 -0.00035146 0)
(0.000138176 -0.00034768 0)
(0.000130459 -0.000352718 0)
(0.000136151 -0.00034883 0)
(0.000128636 -0.000353927 0)
(0.000134341 -0.000349938 0)
(0.000127002 -0.000355094 0)
(0.000132717 -0.000351008 0)
(0.000125533 -0.000356224 0)
(0.000131255 -0.000352044 0)
(0.000124205 -0.000357321 0)
(0.000129929 -0.000353049 0)
(0.000123001 -0.000358387 0)
(0.000128719 -0.000354021 0)
(0.000121904 -0.000359423 0)
(0.0001276 -0.000354956 0)
(0.000215558 -0.000320651 0)
(0.000220282 -0.000318703 0)
(0.000205972 -0.000322898 0)
(0.000210804 -0.000320701 0)
(0.000197547 -0.000324983 0)
(0.000202511 -0.000322488 0)
(0.000190128 -0.000326849 0)
(0.000195225 -0.000324084 0)
(0.000183578 -0.000328535 0)
(0.000188795 -0.000325535 0)
(0.000177784 -0.000330082 0)
(0.000183106 -0.000326872 0)
(0.000172652 -0.000331513 0)
(0.000178065 -0.000328115 0)
(0.000168104 -0.000332847 0)
(0.000173595 -0.000329276 0)
(0.00016407 -0.000334095 0)
(0.000169627 -0.000330367 0)
(0.00016049 -0.000335271 0)
(0.000166104 -0.000331399 0)
(0.00015731 -0.000336384 0)
(0.000162975 -0.00033238 0)
(0.000154484 -0.000337443 0)
(0.000160192 -0.000333317 0)
(0.000151969 -0.000338456 0)
(0.000157715 -0.000334215 0)
(0.00014973 -0.000339428 0)
(0.000155508 -0.00033508 0)
(0.000147731 -0.000340365 0)
(0.000153537 -0.000335915 0)
(0.000145943 -0.000341271 0)
(0.000151774 -0.000336723 0)
(0.000144339 -0.000342148 0)
(0.00015019 -0.000337506 0)
(0.000142894 -0.000342999 0)
(0.00014876 -0.000338264 0)
(0.000141589 -0.000343825 0)
(0.000147461 -0.000338995 0)
(0.000140404 -0.000344626 0)
(0.000146269 -0.000339694 0)
(0.000240043 -0.000313088 0)
(0.000244449 -0.000310625 0)
(0.00022982 -0.000314437 0)
(0.00023438 -0.000311729 0)
(0.000220815 -0.000315719 0)
(0.000225558 -0.00031273 0)
(0.000212874 -0.000316872 0)
(0.000217796 -0.00031363 0)
(0.000205852 -0.000317922 0)
(0.000210938 -0.00031446 0)
(0.000199634 -0.000318898 0)
(0.000204862 -0.00031524 0)
(0.00019412 -0.000319814 0)
(0.000199473 -0.000315977 0)
(0.000189229 -0.000320679 0)
(0.000194689 -0.000316678 0)
(0.000184887 -0.000321499 0)
(0.000190441 -0.000317349 0)
(0.000181031 -0.000322281 0)
(0.000186667 -0.000317993 0)
(0.000177606 -0.000323029 0)
(0.000183313 -0.000318614 0)
(0.000174561 -0.000323749 0)
(0.000180331 -0.000319215 0)
(0.000171852 -0.000324443 0)
(0.000177677 -0.000319798 0)
(0.000169441 -0.000325115 0)
(0.000175315 -0.000320364 0)
(0.000167291 -0.000325766 0)
(0.000173208 -0.000320915 0)
(0.000165372 -0.000326398 0)
(0.000171326 -0.000321451 0)
(0.000163654 -0.000327012 0)
(0.000169641 -0.000321973 0)
(0.000162112 -0.000327609 0)
(0.000168127 -0.000322478 0)
(0.000160724 -0.000328188 0)
(0.000166758 -0.000322963 0)
(0.00015947 -0.000328748 0)
(0.000165511 -0.000323423 0)
(0.000264058 -0.000304948 0)
(0.000268179 -0.000301988 0)
(0.000253338 -0.000305368 0)
(0.000257658 -0.000302172 0)
(0.000243876 -0.000305819 0)
(0.000248425 -0.000302361 0)
(0.000235517 -0.000306231 0)
(0.000240288 -0.000302543 0)
(0.000228116 -0.00030662 0)
(0.000233088 -0.000302731 0)
(0.000221552 -0.000307001 0)
(0.000226702 -0.000302932 0)
(0.000215726 -0.00030738 0)
(0.000221032 -0.000303146 0)
(0.000210552 -0.000307757 0)
(0.000215993 -0.000303372 0)
(0.000205956 -0.000308131 0)
(0.000211516 -0.000303606 0)
(0.000201871 -0.000308503 0)
(0.000207536 -0.000303849 0)
(0.00019824 -0.000308873 0)
(0.000203997 -0.000304099 0)
(0.000195013 -0.000309241 0)
(0.00020085 -0.000304354 0)
(0.000192142 -0.000309606 0)
(0.000198052 -0.000304613 0)
(0.000189588 -0.000309967 0)
(0.000195562 -0.000304875 0)
(0.000187313 -0.000310325 0)
(0.000193344 -0.000305137 0)
(0.000185286 -0.000310677 0)
(0.000191368 -0.000305397 0)
(0.000183476 -0.000311024 0)
(0.000189603 -0.000305655 0)
(0.000181857 -0.000311363 0)
(0.000188022 -0.000305906 0)
(0.000180405 -0.000311693 0)
(0.000186602 -0.000306146 0)
(0.000179099 -0.000312011 0)
(0.000185316 -0.000306368 0)
(0.000287562 -0.000296298 0)
(0.000291433 -0.000292863 0)
(0.000276486 -0.000295774 0)
(0.000280596 -0.000292117 0)
(0.000266691 -0.000295379 0)
(0.000271071 -0.000291484 0)
(0.000258022 -0.000295036 0)
(0.000262663 -0.000290937 0)
(0.000250334 -0.00029475 0)
(0.000255211 -0.000290473 0)
(0.000243507 -0.000294524 0)
(0.000248593 -0.000290087 0)
(0.00023744 -0.000294354 0)
(0.00024271 -0.000289768 0)
(0.000232046 -0.000294231 0)
(0.000237477 -0.000289509 0)
(0.000227249 -0.00029415 0)
(0.000232823 -0.0002893 0)
(0.000222984 -0.000294103 0)
(0.000228683 -0.000289136 0)
(0.000219191 -0.000294087 0)
(0.000225001 -0.000289009 0)
(0.000215818 -0.000294096 0)
(0.000221727 -0.000288915 0)
(0.000212819 -0.000294127 0)
(0.000218815 -0.000288847 0)
(0.000210152 -0.000294175 0)
(0.000216227 -0.000288802 0)
(0.00020778 -0.000294237 0)
(0.000213924 -0.000288775 0)
(0.000205668 -0.000294309 0)
(0.000211876 -0.000288761 0)
(0.000203787 -0.000294388 0)
(0.000210052 -0.000288757 0)
(0.00020211 -0.000294472 0)
(0.000208425 -0.000288759 0)
(0.000200612 -0.000294556 0)
(0.00020697 -0.000288758 0)
(0.000199271 -0.000294638 0)
(0.000205662 -0.000288749 0)
(0.000310514 -0.000287201 0)
(0.000314168 -0.000283319 0)
(0.000299223 -0.000285737 0)
(0.000303153 -0.000281649 0)
(0.000289218 -0.000284496 0)
(0.000293453 -0.000280199 0)
(0.000280347 -0.000283397 0)
(0.000284877 -0.000278925 0)
(0.000272466 -0.000282433 0)
(0.000277264 -0.000277809 0)
(0.000265458 -0.000281597 0)
(0.000270492 -0.000276835 0)
(0.000259222 -0.000280874 0)
(0.000264465 -0.000275984 0)
(0.000253671 -0.00028025 0)
(0.000259099 -0.000275239 0)
(0.000248731 -0.00027971 0)
(0.000254322 -0.000274587 0)
(0.000244335 -0.000279243 0)
(0.00025007 -0.000274015 0)
(0.000240424 -0.000278839 0)
(0.000246287 -0.000273513 0)
(0.000236945 -0.00027849 0)
(0.000242923 -0.00027307 0)
(0.000233851 -0.000278187 0)
(0.000239932 -0.000272679 0)
(0.000231102 -0.000277923 0)
(0.000237274 -0.000272331 0)
(0.000228658 -0.000277692 0)
(0.000234913 -0.000272019 0)
(0.000226487 -0.000277488 0)
(0.000232816 -0.000271737 0)
(0.000224558 -0.000277305 0)
(0.000230954 -0.000271479 0)
(0.000222843 -0.00027714 0)
(0.000229299 -0.000271238 0)
(0.000221316 -0.000276986 0)
(0.000227826 -0.000271007 0)
(0.000219955 -0.000276839 0)
(0.000226512 -0.000270777 0)
(0.000332879 -0.000277721 0)
(0.000336349 -0.000273423 0)
(0.000321509 -0.000275334 0)
(0.000325287 -0.000270851 0)
(0.000311414 -0.000273261 0)
(0.000315529 -0.000268601 0)
(0.000302446 -0.000271418 0)
(0.000306883 -0.000266613 0)
(0.000294467 -0.000269785 0)
(0.000299197 -0.000264856 0)
(0.000287359 -0.000268346 0)
(0.000292351 -0.000263303 0)
(0.000281026 -0.000267076 0)
(0.000286249 -0.000261927 0)
(0.000275383 -0.000265955 0)
(0.00028081 -0.000260705 0)
(0.000270356 -0.000264961 0)
(0.000275964 -0.000259616 0)
(0.000265878 -0.000264078 0)
(0.000271649 -0.000258644 0)
(0.000261893 -0.000263292 0)
(0.000267807 -0.000257772 0)
(0.000258347 -0.000262589 0)
(0.000264389 -0.000256988 0)
(0.000255194 -0.000261958 0)
(0.000261352 -0.00025628 0)
(0.000252393 -0.000261389 0)
(0.000258655 -0.000255637 0)
(0.000249906 -0.000260872 0)
(0.000256262 -0.00025505 0)
(0.0002477 -0.0002604 0)
(0.00025414 -0.000254509 0)
(0.000245744 -0.000259965 0)
(0.000252261 -0.000254006 0)
(0.000244009 -0.00025956 0)
(0.000250597 -0.000253535 0)
(0.000242471 -0.000259179 0)
(0.000249123 -0.000253086 0)
(0.000241105 -0.000258816 0)
(0.000247815 -0.000252648 0)
(0.000354624 -0.000267917 0)
(0.000357941 -0.000263237 0)
(0.000343306 -0.000264641 0)
(0.000346958 -0.000259799 0)
(0.000333236 -0.000261763 0)
(0.00033725 -0.000256779 0)
(0.000324273 -0.000259197 0)
(0.000328633 -0.000254101 0)
(0.000316285 -0.000256915 0)
(0.000320959 -0.000251725 0)
(0.000309158 -0.000254889 0)
(0.000314113 -0.000249611 0)
(0.000302799 -0.000253087 0)
(0.000308004 -0.000247726 0)
(0.000297126 -0.000251481 0)
(0.000302553 -0.00024604 0)
(0.000292067 -0.000250045 0)
(0.000297691 -0.000244528 0)
(0.000287557 -0.000248757 0)
(0.000293358 -0.000243167 0)
(0.000283542 -0.000247599 0)
(0.0002895 -0.000241939 0)
(0.000279968 -0.000246553 0)
(0.000286067 -0.000240825 0)
(0.000276791 -0.000245604 0)
(0.000283017 -0.000239812 0)
(0.00027397 -0.00024474 0)
(0.000280311 -0.000238886 0)
(0.000271468 -0.000243949 0)
(0.000277912 -0.000238035 0)
(0.000269251 -0.00024322 0)
(0.00027579 -0.000237248 0)
(0.00026729 -0.000242545 0)
(0.000273915 -0.000236516 0)
(0.000265556 -0.000241914 0)
(0.00027226 -0.000235828 0)
(0.000264023 -0.00024132 0)
(0.000270801 -0.000235175 0)
(0.000262666 -0.000240755 0)
(0.000269514 -0.000234545 0)
(0.000375717 -0.000257845 0)
(0.000378909 -0.000252822 0)
(0.000364574 -0.000253725 0)
(0.000368123 -0.000248566 0)
(0.000354639 -0.000250082 0)
(0.00035857 -0.000244815 0)
(0.000345779 -0.000246828 0)
(0.000350074 -0.000241483 0)
(0.000337867 -0.000243925 0)
(0.000342494 -0.000238516 0)
(0.000330798 -0.000241336 0)
(0.000335722 -0.000235868 0)
(0.000324481 -0.000239024 0)
(0.00032967 -0.000233498 0)
(0.000318838 -0.000236953 0)
(0.000324263 -0.000231369 0)
(0.000313801 -0.000235093 0)
(0.000319437 -0.000229452 0)
(0.000309309 -0.000233417 0)
(0.000315133 -0.000227721 0)
(0.000305306 -0.000231901 0)
(0.000311298 -0.000226152 0)
(0.000301743 -0.000230527 0)
(0.000307887 -0.000224726 0)
(0.000298576 -0.000229275 0)
(0.000304857 -0.000223424 0)
(0.000295766 -0.000228131 0)
(0.000302171 -0.00022223 0)
(0.000293276 -0.00022708 0)
(0.000299794 -0.00022113 0)
(0.000291074 -0.00022611 0)
(0.000297695 -0.000220113 0)
(0.00028913 -0.000225209 0)
(0.000295845 -0.000219165 0)
(0.000287416 -0.000224368 0)
(0.000294218 -0.000218277 0)
(0.000285906 -0.000223577 0)
(0.00029279 -0.000217437 0)
(0.000284573 -0.000222826 0)
(0.000291538 -0.000216631 0)
(0.000396133 -0.000247559 0)
(0.000399226 -0.000242231 0)
(0.000385276 -0.000242652 0)
(0.000388744 -0.000237215 0)
(0.000375578 -0.000238293 0)
(0.000379442 -0.000232784 0)
(0.000366911 -0.000234393 0)
(0.000371153 -0.000228841 0)
(0.000359158 -0.000230906 0)
(0.000363744 -0.000225323 0)
(0.000352218 -0.000227788 0)
(0.000357113 -0.000222174 0)
(0.000346008 -0.000224995 0)
(0.000351179 -0.000219348 0)
(0.000340454 -0.000222486 0)
(0.000345872 -0.000216804 0)
(0.000335491 -0.000220225 0)
(0.000341129 -0.000214508 0)
(0.000331061 -0.000218182 0)
(0.000336897 -0.000212429 0)
(0.000327111 -0.00021633 0)
(0.000333125 -0.000210541 0)
(0.000323595 -0.000214647 0)
(0.00032977 -0.000208822 0)
(0.000320472 -0.00021311 0)
(0.000326791 -0.000207249 0)
(0.000317703 -0.000211703 0)
(0.000324154 -0.000205806 0)
(0.000315253 -0.000210409 0)
(0.000321824 -0.000204476 0)
(0.000313091 -0.000209214 0)
(0.000319772 -0.000203245 0)
(0.000311188 -0.000208105 0)
(0.00031797 -0.0002021 0)
(0.000309515 -0.000207071 0)
(0.000316392 -0.000201029 0)
(0.000308045 -0.000206101 0)
(0.000315013 -0.000200018 0)
(0.00030675 -0.000205181 0)
(0.00031381 -0.000199054 0)
(0.000415845 -0.000237105 0)
(0.000418863 -0.000231512 0)
(0.000405379 -0.000231478 0)
(0.000408784 -0.000225805 0)
(0.00039601 -0.000226461 0)
(0.000399821 -0.000220752 0)
(0.000387621 -0.000221967 0)
(0.000391817 -0.000216251 0)
(0.000380101 -0.000217942 0)
(0.000384649 -0.000212226 0)
(0.000373358 -0.000214335 0)
(0.000378223 -0.000208617 0)
(0.000367315 -0.000211097 0)
(0.000372464 -0.000205372 0)
(0.000361903 -0.000208182 0)
(0.000367307 -0.000202446 0)
(0.000357061 -0.00020555 0)
(0.000362693 -0.0001998 0)
(0.000352736 -0.000203167 0)
(0.000358572 -0.000197401 0)
(0.000348877 -0.000201004 0)
(0.000354898 -0.00019522 0)
(0.000345443 -0.000199034 0)
(0.00035163 -0.000193231 0)
(0.000342393 -0.000197233 0)
(0.000348731 -0.00019141 0)
(0.000339692 -0.000195583 0)
(0.000346167 -0.000189739 0)
(0.000337307 -0.000194065 0)
(0.000343908 -0.000188198 0)
(0.000335209 -0.000192662 0)
(0.000341925 -0.000186772 0)
(0.000333369 -0.000191362 0)
(0.000340192 -0.000185446 0)
(0.000331759 -0.000190151 0)
(0.000338682 -0.000184209 0)
(0.000330352 -0.000189017 0)
(0.000337372 -0.000183046 0)
(0.000329118 -0.00018795 0)
(0.000336238 -0.000181942 0)
(0.000434834 -0.000226526 0)
(0.000437795 -0.000220708 0)
(0.000424848 -0.000220254 0)
(0.000428206 -0.000214385 0)
(0.000415893 -0.000214646 0)
(0.00041966 -0.000208778 0)
(0.000407856 -0.000209616 0)
(0.000412012 -0.000203776 0)
(0.000400638 -0.000205105 0)
(0.00040515 -0.000199296 0)
(0.000394154 -0.000201056 0)
(0.000398987 -0.000195274 0)
(0.000388334 -0.000197415 0)
(0.000393455 -0.000191652 0)
(0.000383114 -0.000194132 0)
(0.000388494 -0.000188382 0)
(0.000378438 -0.000191164 0)
(0.000384051 -0.000185423 0)
(0.000374255 -0.000188475 0)
(0.000380078 -0.000182737 0)
(0.000370522 -0.000186029 0)
(0.000376533 -0.000180292 0)
(0.000367197 -0.0001838 0)
(0.000373378 -0.000178061 0)
(0.000364244 -0.000181761 0)
(0.000370579 -0.000176019 0)
(0.000361632 -0.00017989 0)
(0.000368107 -0.000174144 0)
(0.000359331 -0.000178169 0)
(0.000365935 -0.000172416 0)
(0.000357315 -0.00017658 0)
(0.000364039 -0.000170819 0)
(0.000355556 -0.000175109 0)
(0.000362393 -0.000169334 0)
(0.000354023 -0.000173741 0)
(0.00036097 -0.000167944 0)
(0.000352686 -0.000172456 0)
(0.000359742 -0.000166635 0)
(0.000351514 -0.000171233 0)
(0.000358682 -0.000165397 0)
(0.000453078 -0.000215859 0)
(0.000456001 -0.000209856 0)
(0.000443654 -0.000209023 0)
(0.000446977 -0.000202999 0)
(0.000435185 -0.000202897 0)
(0.000438917 -0.00019691 0)
(0.000427569 -0.000197396 0)
(0.000431689 -0.00019147 0)
(0.000420714 -0.000192457 0)
(0.000425189 -0.000186594 0)
(0.000414545 -0.000188018 0)
(0.000419341 -0.000182211 0)
(0.000408997 -0.000184021 0)
(0.000414084 -0.000178259 0)
(0.000404015 -0.000180414 0)
(0.000409362 -0.000174689 0)
(0.000399546 -0.000177151 0)
(0.000405127 -0.000171455 0)
(0.000395543 -0.000174191 0)
(0.000401336 -0.000168519 0)
(0.000391966 -0.0001715 0)
(0.00039795 -0.000165846 0)
(0.000388777 -0.000169046 0)
(0.000394933 -0.000163407 0)
(0.000385941 -0.000166801 0)
(0.000392254 -0.000161174 0)
(0.00038343 -0.000164742 0)
(0.000389884 -0.000159125 0)
(0.000381218 -0.000162847 0)
(0.000387799 -0.000157241 0)
(0.000379284 -0.000161098 0)
(0.00038598 -0.000155506 0)
(0.000377611 -0.000159482 0)
(0.000384416 -0.000153907 0)
(0.000376183 -0.000157995 0)
(0.000383096 -0.000152432 0)
(0.000374971 -0.000156639 0)
(0.000382012 -0.000151057 0)
(0.000373917 -0.000155412 0)
(0.00038113 -0.000149731 0)
(0.000470562 -0.000205134 0)
(0.000473459 -0.000198987 0)
(0.000461767 -0.000197822 0)
(0.000465064 -0.000191682 0)
(0.000453848 -0.000191255 0)
(0.00045755 -0.000185187 0)
(0.000446711 -0.000185353 0)
(0.000450795 -0.00017938 0)
(0.000440273 -0.000180049 0)
(0.000444709 -0.000174169 0)
(0.000434468 -0.000175277 0)
(0.000439223 -0.000169479 0)
(0.00042924 -0.000170975 0)
(0.000434282 -0.000165249 0)
(0.000424537 -0.000167091 0)
(0.000429838 -0.000161424 0)
(0.000420312 -0.000163574 0)
(0.000425848 -0.000157959 0)
(0.000416525 -0.000160385 0)
(0.000422272 -0.000154813 0)
(0.000413136 -0.000157485 0)
(0.000419074 -0.00015195 0)
(0.000410113 -0.000154842 0)
(0.000416224 -0.000149339 0)
(0.000407423 -0.000152429 0)
(0.000413691 -0.000146952 0)
(0.000405037 -0.000150221 0)
(0.000411447 -0.000144766 0)
(0.00040293 -0.000148196 0)
(0.000409469 -0.000142759 0)
(0.000401075 -0.000146335 0)
(0.000407731 -0.000140912 0)
(0.000399455 -0.00014462 0)
(0.000406212 -0.000139212 0)
(0.000398059 -0.000143039 0)
(0.000404897 -0.000137654 0)
(0.000396895 -0.000141592 0)
(0.000403784 -0.00013625 0)
(0.000395978 -0.000140306 0)
(0.000402884 -0.000135046 0)
(0.00048727 -0.000194378 0)
(0.000490151 -0.000188125 0)
(0.00047916 -0.00018668 0)
(0.000482438 -0.000180463 0)
(0.000471844 -0.000179755 0)
(0.000475518 -0.000173643 0)
(0.000465235 -0.000173525 0)
(0.000469282 -0.00016754 0)
(0.000459261 -0.000167921 0)
(0.000463652 -0.000162058 0)
(0.000453864 -0.000162875 0)
(0.000458567 -0.000157121 0)
(0.000448994 -0.000158323 0)
(0.000453981 -0.000152664 0)
(0.000444607 -0.000154209 0)
(0.00044985 -0.000148633 0)
(0.000440662 -0.000150484 0)
(0.000446137 -0.000144979 0)
(0.000437122 -0.000147103 0)
(0.000442807 -0.000141661 0)
(0.000433953 -0.00014403 0)
(0.000439828 -0.000138642 0)
(0.000431125 -0.000141231 0)
(0.000437173 -0.00013589 0)
(0.00042861 -0.000138675 0)
(0.000434816 -0.000133376 0)
(0.000426383 -0.000136337 0)
(0.000432732 -0.000131075 0)
(0.000424421 -0.000134194 0)
(0.000430902 -0.000128965 0)
(0.000422702 -0.000132223 0)
(0.000429305 -0.000127023 0)
(0.00042121 -0.000130408 0)
(0.000427924 -0.000125228 0)
(0.000419933 -0.00012873 0)
(0.000426742 -0.000123558 0)
(0.000418871 -0.00012718 0)
(0.000425739 -0.000122004 0)
(0.000418031 -0.000125775 0)
(0.000424865 -0.000120602 0)
(0.000503185 -0.000183613 0)
(0.000506057 -0.000177292 0)
(0.000495806 -0.000175622 0)
(0.000499067 -0.000169366 0)
(0.000489136 -0.000168423 0)
(0.000492781 -0.000162303 0)
(0.000483095 -0.000161941 0)
(0.000487101 -0.000155977 0)
(0.000477622 -0.000156106 0)
(0.000481961 -0.000150292 0)
(0.000472668 -0.000150847 0)
(0.00047731 -0.000145167 0)
(0.00046819 -0.000146099 0)
(0.000473108 -0.000140537 0)
(0.000464151 -0.000141806 0)
(0.000469319 -0.000136347 0)
(0.000460515 -0.000137916 0)
(0.00046591 -0.000132548 0)
(0.00045725 -0.000134385 0)
(0.000462851 -0.000129097 0)
(0.000454326 -0.000131175 0)
(0.000460116 -0.000125956 0)
(0.000451718 -0.000128249 0)
(0.000457679 -0.000123092 0)
(0.0004494 -0.000125578 0)
(0.000455518 -0.000120475 0)
(0.00044735 -0.000123134 0)
(0.000453612 -0.000118078 0)
(0.000445549 -0.000120892 0)
(0.000451942 -0.000115878 0)
(0.000443977 -0.000118831 0)
(0.000450489 -0.000113853 0)
(0.00044262 -0.00011693 0)
(0.00044924 -0.000111981 0)
(0.000441473 -0.000115176 0)
(0.000448183 -0.000110243 0)
(0.000440534 -0.00011356 0)
(0.000447298 -0.000108626 0)
(0.000439799 -0.000112101 0)
(0.000446536 -0.000107156 0)
(0.000518295 -0.000172857 0)
(0.00052116 -0.000166506 0)
(0.000511679 -0.000164668 0)
(0.000514923 -0.000158408 0)
(0.000505687 -0.000157281 0)
(0.000509299 -0.000151187 0)
(0.000500245 -0.000150625 0)
(0.000504203 -0.000144715 0)
(0.000495302 -0.000144628 0)
(0.000499579 -0.000138893 0)
(0.000490818 -0.000139219 0)
(0.000495386 -0.000133641 0)
(0.000486758 -0.000134333 0)
(0.000491592 -0.000128894 0)
(0.00048309 -0.000129912 0)
(0.000488166 -0.000124595 0)
(0.000479785 -0.000125904 0)
(0.000485081 -0.000120695 0)
(0.000476816 -0.000122264 0)
(0.000482312 -0.000117151 0)
(0.000474157 -0.000118953 0)
(0.000479836 -0.000113925 0)
(0.000471785 -0.000115936 0)
(0.000477632 -0.000110982 0)
(0.00046968 -0.00011318 0)
(0.00047568 -0.000108293 0)
(0.000467823 -0.000110658 0)
(0.000473962 -0.00010583 0)
(0.000466195 -0.000108345 0)
(0.000472462 -0.000103569 0)
(0.00046478 -0.000106219 0)
(0.000471165 -0.00010149 0)
(0.000463568 -0.000104262 0)
(0.000470057 -9.95692e-05 0)
(0.000462553 -0.000102456 0)
(0.000469129 -9.77865e-05 0)
(0.000461735 -0.000100797 0)
(0.000468363 -9.6131e-05 0)
(0.000461113 -9.93072e-05 0)
(0.00046771 -9.46277e-05 0)
(0.000532583 -0.000162124 0)
(0.000535442 -0.00015578 0)
(0.000526753 -0.000153834 0)
(0.000529977 -0.000147605 0)
(0.000521461 -0.000146346 0)
(0.000525034 -0.00014031 0)
(0.000516639 -0.000139594 0)
(0.000520539 -0.000133768 0)
(0.000512247 -0.000133507 0)
(0.000516449 -0.000127878 0)
(0.000508253 -0.000128012 0)
(0.000512731 -0.000122561 0)
(0.000504629 -0.000123045 0)
(0.000509361 -0.000117753 0)
(0.00050135 -0.000118548 0)
(0.000506313 -0.000113396 0)
(0.000498393 -0.00011447 0)
(0.000503566 -0.000109442 0)
(0.000495734 -0.000110765 0)
(0.000501099 -0.000105848 0)
(0.000493353 -0.000107393 0)
(0.000498894 -0.000102575 0)
(0.000491231 -0.00010432 0)
(0.000496934 -9.95894e-05 0)
(0.000489351 -0.000101513 0)
(0.000495201 -9.6861e-05 0)
(0.000487695 -9.89446e-05 0)
(0.000493681 -9.43631e-05 0)
(0.00048625 -9.65902e-05 0)
(0.000492359 -9.20719e-05 0)
(0.000485001 -9.44279e-05 0)
(0.000491223 -8.99657e-05 0)
(0.00048394 -9.24389e-05 0)
(0.000490263 -8.80231e-05 0)
(0.000483062 -9.06081e-05 0)
(0.00048947 -8.6222e-05 0)
(0.000482371 -8.89307e-05 0)
(0.000488829 -8.455e-05 0)
(0.000481863 -8.7433e-05 0)
(0.000488288 -8.30305e-05 0)
(0.000546037 -0.000151427 0)
(0.000548886 -0.000145125 0)
(0.000541004 -0.000143131 0)
(0.000544202 -0.000136968 0)
(0.000536424 -0.000135629 0)
(0.000539948 -0.000129683 0)
(0.000532235 -0.000128861 0)
(0.000536064 -0.000123146 0)
(0.000528405 -0.000122754 0)
(0.000532517 -0.000117257 0)
(0.000524913 -0.000117238 0)
(0.000529285 -0.000111938 0)