/*--------------------------------*- C++ -*----------------------------------*\
| =========                 |                                                 |
| \\      /  F ield         | OpenFOAM: The Open Source CFD Toolbox           |
|  \\    /   O peration     | Version:  v2012                                 |
|   \\  /    A nd           | Website:  www.openfoam.com                      |
|    \\/     M anipulation  |                                                 |
\*---------------------------------------------------------------------------*/
FoamFile
{
    version     2.0;
    format      ascii;
    class       volScalarField;
    location    "9";
    object      epsilonEq;
}
// * * * * * * * * * * * * * * * * * * * * * * * * * * * * * * * * * * * * * //

dimensions      [0 0 0 0 0 0 0];


internalField   nonuniform List<scalar> 
500
(
0.00930206
0.00751009
0.00718881
0.00536159
0.00523892
0.00378104
0.0038034
0.00287037
0.00295457
0.0024651
0.00754589
0.00490459
0.00510133
0.00333327
0.00363152
0.00286668
0.00308574
0.0027017
0.00295143
0.00255038
0.00447386
0.00269763
0.00297196
0.00253724
0.00282774
0.00254448
0.00286254
0.00255216
0.0028535
0.00253059
0.00231244
0.00194806
0.00233962
0.00209619
0.00248062
0.00226699
0.00259672
0.00237505
0.00264656
0.00241707
0.0013935
0.00128062
0.00177882
0.00170157
0.00209298
0.00199149
0.00228752
0.00215746
0.00238692
0.00221146
0.000537371
0.00079836
0.00121838
0.00132826
0.00160349
0.00162878
0.00179115
0.00179599
0.00182527
0.00191619
0.000587306
0.000818967
0.000961687
0.00118552
0.00131469
0.00145237
0.00154463
0.00162772
0.00172706
0.00174398
0.00116705
0.00110622
0.000978852
0.00113484
0.0011094
0.00125889
0.00127176
0.00136454
0.00140118
0.00143742
0.00164471
0.00136469
0.00113816
0.00109789
0.000960269
0.00102364
0.000953422
0.00101903
0.00099862
0.00104139
0.0019398
0.00133388
0.00121698
0.000941366
0.000860653
0.000738465
0.000696143
0.00064249
0.000645146
0.000616122
0.00071109
0.000516917
0.00101303
0.000795994
0.00145123
0.00114509
0.00183934
0.00146539
0.00211104
0.00172172
0.000583981
0.000551664
0.000902368
0.000808456
0.00130607
0.00110862
0.00167656
0.00137863
0.0019598
0.00158536
0.000599296
0.000623659
0.000837276
0.000826517
0.0011676
0.00107596
0.00149626
0.00131218
0.00177596
0.00150514
0.000673227
0.000712861
0.000831061
0.000862314
0.00107929
0.00106082
0.00134949
0.00126271
0.00160176
0.00144255
0.000766034
0.000805102
0.000866678
0.00091147
0.00104245
0.00106345
0.00125056
0.00122945
0.00146066
0.00138943
0.00085767
0.000889567
0.000922009
0.000963911
0.00104221
0.00107671
0.00119426
0.00120785
0.00135768
0.00134252
0.000937073
0.000957676
0.000978903
0.00100856
0.00105949
0.00109006
0.00116614
0.00119007
0.00128627
0.0012979
0.000996398
0.00100112
0.00102329
0.00103391
0.00107595
0.00109155
0.00114853
0.0011667
0.00123358
0.00125054
0.00102806
0.00100833
0.00104139
0.00102529
0.00107361
0.00106979
0.00112468
0.00112958
0.00118614
0.00119728
0.00102242
0.000948757
0.00100876
0.000973834
0.00103808
0.00101722
0.0010829
0.00107662
0.00113716
0.00114514
0.00223375
0.00202135
0.00226626
0.00210699
0.00228352
0.00216208
0.00229079
0.00219828
0.00229165
0.00222423
0.00228996
0.0022479
0.00229107
0.00227769
0.00230269
0.00232287
0.00233539
0.00239341
0.00240254
0.00249775
0.00190655
0.00179281
0.00197553
0.00187157
0.00202706
0.0019385
0.00206722
0.00199646
0.00210142
0.00204998
0.002135
0.00210435
0.00217352
0.00216522
0.00222302
0.00223852
0.00228991
0.0023303
0.00238047
0.00244714
0.00174361
0.00165506
0.00180493
0.00172466
0.00185928
0.00178975
0.00190831
0.00185136
0.00195469
0.00191155
0.00200154
0.00197301
0.00205229
0.00203877
0.00211047
0.00211206
0.00217968
0.00219606
0.00226362
0.00229366
0.00162122
0.00155431
0.00167799
0.00161737
0.00173056
0.00167723
0.00177976
0.00173461
0.00182689
0.00179052
0.00187362
0.00184626
0.0019218
0.00190334
0.00197341
0.00196334
0.0020305
0.00202792
0.00209515
0.00209877
0.00151921
0.00147394
0.00157171
0.00152965
0.00162022
0.00158206
0.0016653
0.00163155
0.00170765
0.00167857
0.00174812
0.00172364
0.00178767
0.00176738
0.00182738
0.00181045
0.00186845
0.00185365
0.00191224
0.00189789
0.00143391
0.00140639
0.00148014
0.00145326
0.00152249
0.00149684
0.00156121
0.00153717
0.0015966
0.00157427
0.00162898
0.00160813
0.00165873
0.00163874
0.00168628
0.00166609
0.00171217
0.00169022
0.00173715
0.00171135
0.00136245
0.00134593
0.00140067
0.00138348
0.00143562
0.00141821
0.00146728
0.00144989
0.0014956
0.00147822
0.00152049
0.00150278
0.00154184
0.00152306
0.00155949
0.00153839
0.00157326
0.001548
0.00158314
0.00155115
0.00129957
0.00128746
0.00132976
0.00131721
0.00135774
0.00134493
0.00138327
0.00137013
0.00140603
0.00139231
0.0014256
0.00141085
0.0014415
0.0014249
0.00145302
0.0014333
0.00145925
0.00143442
0.00145906
0.00142619
0.00123993
0.00122996
0.001265
0.00125683
0.001289
0.00128166
0.00131118
0.00130408
0.00133113
0.00132371
0.00134841
0.00133998
0.00136242
0.00135204
0.00137221
0.00135862
0.00137636
0.00135778
0.00137277
0.0013465
0.00118554
0.00118787
0.00121415
0.00121901
0.00123955
0.00124758
0.0012626
0.00127323
0.00128332
0.00129531
0.00130135
0.00131304
0.00131615
0.00132557
0.00132694
0.00133203
0.00133269
0.0013315
0.00133193
0.00132319
0.00253498
0.0023728
0.00236973
0.00223555
0.00223057
0.00211007
0.00210843
0.0019898
0.00199541
0.00186848
0.00188413
0.0017398
0.00176723
0.00159705
0.00163689
0.00143314
0.0014843
0.00124159
0.0012992
0.00102203
0.00272688
0.00250765
0.00262102
0.00241917
0.00250904
0.002323
0.00239238
0.00221821
0.00227024
0.00210328
0.00214004
0.00197637
0.00199764
0.00183592
0.00183749
0.00168194
0.00165317
0.00151907
0.00143926
0.00136298
0.00275206
0.00251972
0.00270064
0.0024891
0.00262917
0.00244163
0.00254087
0.00237825
0.00243804
0.00229988
0.00232216
0.00220767
0.00219425
0.00210361
0.00205584
0.0019915
0.00191079
0.0018788
0.00176839
0.0017792
0.00264355
0.00242975
0.00263905
0.00245268
0.00260982
0.00245242
0.00255877
0.00243215
0.00248961
0.00239495
0.00240659
0.00234449
0.00231477
0.00228574
0.002221
0.00222574
0.00213551
0.00217482
0.00207413
0.00214795
0.00245255
0.00231667
0.00250234
0.00236931
0.00251573
0.00239556
0.00250023
0.00240304
0.00246337
0.00239669
0.00241289
0.00238147
0.0023574
0.00236401
0.00230761
0.00235401
0.00227826
0.00236632
0.00229134
0.00242462
)
;

boundaryField
{
    back
    {
        type            empty;
    }
    front
    {
        type            empty;
    }
    left
    {
        type            calculated;
        value           nonuniform List<scalar> 
15
(
0.00930206
0.00718881
0.00523892
0.0038034
0.00295457
0.00253498
0.00236973
0.00223057
0.00210843
0.00199541
0.00188413
0.00176723
0.00163689
0.0014843
0.0012992
)
;
    }
    hole
    {
        type            calculated;
        value           nonuniform List<scalar> 10(0.00930206 0.00754589 0.00447386 0.00231244 0.0013935 0.000537371 0.000587306 0.00116705 0.00164471 0.0019398);
    }
    down
    {
        type            calculated;
        value           nonuniform List<scalar> 
15
(
0.00133388
0.000941366
0.000738465
0.00064249
0.000616122
0.00071109
0.000583981
0.000599296
0.000673227
0.000766034
0.00085767
0.000937073
0.000996398
0.00102806
0.00102242
)
;
    }
    right
    {
        type            calculated;
        value           nonuniform List<scalar> 
15
(
0.000948757
0.000973834
0.00101722
0.00107662
0.00114514
0.00118787
0.00121901
0.00124758
0.00127323
0.00129531
0.00131304
0.00132557
0.00133203
0.0013315
0.00132319
)
;
    }
    up
    {
        type            calculated;
        value           nonuniform List<scalar> 
15
(
0.00249775
0.00244714
0.00229366
0.00209877
0.00189789
0.00171135
0.00155115
0.00142619
0.0013465
0.00132319
0.00102203
0.00136298
0.0017792
0.00214795
0.00242462
)
;
    }
}


// ************************************************************************* //
