/*--------------------------------*- C++ -*----------------------------------*\
| =========                 |                                                 |
| \\      /  F ield         | OpenFOAM: The Open Source CFD Toolbox           |
|  \\    /   O peration     | Version:  v2012                                 |
|   \\  /    A nd           | Website:  www.openfoam.com                      |
|    \\/     M anipulation  |                                                 |
\*---------------------------------------------------------------------------*/
FoamFile
{
    version     2.0;
    format      ascii;
    class       pointSymmTensorField;
    location    "9";
    object      pEpsilon;
}
// * * * * * * * * * * * * * * * * * * * * * * * * * * * * * * * * * * * * * //

dimensions      [0 0 0 0 0 0 0];


internalField   nonuniform List<symmTensor> 
572
(
(0.000553064 -0.000213848 0 -0.00215017 0 0)
(0.00137853 -3.6802e-05 0 -0.000151654 0 0)
(0.00156311 2.82071e-07 0 -0.000669958 -2.71051e-19 0)
(0.00122787 0.000420776 0 -0.000630543 0 0)
(0.00923971 -0.00107464 0 -0.00665823 1.73472e-17 0)
(0.000473984 -0.000228293 0 -0.000576471 0 0)
(0.00340526 0.000580588 0 -0.000906925 0 0)
(0.0020437 -0.00060807 0 -0.00130443 0 0)
(0.00288693 2.41245e-05 0 -0.00117608 0 0)
(0.00147804 -7.71342e-05 0 -0.000444598 0 0)
(0.000857791 -0.000643169 2.1684e-18 -0.000260568 0 0)
(0.000857791 -0.000643169 2.1684e-18 -0.000260568 0 0)
(0.0020437 -0.00060807 0 -0.00130443 0 0)
(0.00340526 0.000580588 0 -0.000906925 0 0)
(0.00923971 -0.00107464 0 -0.00665823 1.73472e-17 0)
(0.000553064 -0.000213848 0 -0.00215017 0 0)
(0.000473984 -0.000228293 0 -0.000576471 0 0)
(0.00137853 -3.6802e-05 0 -0.000151654 0 0)
(0.00147804 -7.71342e-05 0 -0.000444598 0 0)
(0.00156311 2.82071e-07 0 -0.000669958 -2.71051e-19 0)
(0.00288693 2.41245e-05 0 -0.00117608 0 0)
(0.00122787 0.000420776 0 -0.000630543 0 0)
(0.00314744 0.000249988 0 -0.0012411 0 0)
(0.00306459 0.000280154 0 -0.0013699 0 0)
(0.00289577 0.000132208 0 -0.00141665 0 0)
(0.00262811 -9.15558e-05 0 -0.00141532 0 0)
(0.00156216 -0.000811462 0 -0.0010279 0 0)
(0.00114777 -0.000788434 0 -0.000889372 0 0)
(0.000785367 -0.000611367 0 -0.000713862 0 0)
(0.000562599 -0.000299339 0 -0.000595443 0 0)
(0.00043935 -0.000261628 0 -0.00140222 0 0)
(0.000323348 -0.000252115 0 -0.000994038 0 0)
(0.000307459 -0.000242541 0 -0.000756452 0 0)
(0.000349175 -0.000231726 0 -0.000623717 0 0)
(0.000593804 -0.000189957 0 -0.000357442 0 0)
(0.000682779 -0.000159089 0 -0.000211588 0 0)
(0.000815716 -0.000121658 0 -0.000179095 0 0)
(0.000952246 -9.19433e-05 0 -0.000196919 0 0)
(0.00107787 -7.04234e-05 0 -0.000233955 0 0)
(0.00118654 -5.51742e-05 0 -0.000272216 0 0)
(0.00127477 -4.44693e-05 0 -0.000299062 0 0)
(0.00133922 -3.74115e-05 0 -0.000302878 0 0)
(0.00137545 -3.48372e-05 0 -0.000268332 0 0)
(0.00137714 -1.57182e-05 0 -0.00015805 -1.69407e-20 0)
(0.00139565 -3.26591e-05 0 -0.000208435 0 0)
(0.00142107 -5.40951e-05 0 -0.000280479 0 0)
(0.00145199 -7.25452e-05 0 -0.000369205 0 0)
(0.00150006 -7.33881e-05 0 -0.000496781 0 0)
(0.00151731 -7.12824e-05 0 -0.000536272 0 0)
(0.00153279 -6.56278e-05 0 -0.000572752 0 0)
(0.00154639 -5.7344e-05 0 -0.000605105 0 0)
(0.00155773 -4.70379e-05 0 -0.000632273 0 0)
(0.00156627 -3.53472e-05 0 -0.000653289 0 0)
(0.0015713 -2.31454e-05 0 -0.000667337 0 0)
(0.00157193 -1.17264e-05 0 -0.000673836 0 0)
(0.00156708 -3.00109e-06 0 -0.000672606 0 0)
(0.00157686 -7.80034e-07 0 -0.000683757 0 0)
(0.00163503 -1.4384e-05 0 -0.00071296 0 0)
(0.00175235 -2.6469e-05 0 -0.000761346 0 0)
(0.00191672 -3.69392e-05 0 -0.000826027 0 0)
(0.00211705 -4.60578e-05 0 -0.00090337 0 0)
(0.00234117 -5.31739e-05 0 -0.000988381 0 0)
(0.00257057 -5.62126e-05 0 -0.00107315 0 0)
(0.00277356 -5.11357e-05 0 -0.00114459 0 0)
(0.00289551 -3.06349e-05 0 -0.00118082 0 0)
(0.00269554 7.84927e-05 0 -0.00110562 0 0)
(0.00233857 8.87965e-05 5.42101e-19 -0.000990023 0 0)
(0.00188778 0.000100751 -2.71051e-19 -0.000836119 0 0)
(0.00142706 0.000108359 -6.77626e-20 -0.000682436 0 0)
(0.00151746 0.000433706 0 -0.000666338 0 0)
(0.00175546 0.000438288 0 -0.000722092 0 0)
(0.0019598 0.000446878 0 -0.000754412 0 0)
(0.00214249 0.000459581 0 -0.000770907 0 0)
(0.00231338 0.00047638 0 -0.000777673 0 0)
(0.00248126 0.000497126 0 -0.000780071 0 0)
(0.00265459 0.000521473 0 -0.000783299 0 0)
(0.00284218 0.000548746 0 -0.000792879 2.1684e-18 0)
(0.00305388 0.000577748 0 -0.000815187 0 0)
(0.00411562 0.000528477 0 -0.00127626 0 0)
(0.00521079 0.000309392 0 -0.0021871 -2.1684e-18 0)
(0.00664245 -0.000115826 0 -0.00369641 0 0)
(0.00821874 -0.000676176 0 -0.00560606 0 0)
(0.00194345 -0.000566447 0 -0.00101606 0 0)
(0.00178577 -0.000577043 0 -0.000843064 0 0)
(0.00168004 -0.000579842 0 -0.00072262 0 0)
(0.00161018 -0.000552799 0 -0.000641011 0 0)
(0.00156739 -0.000500706 0 -0.000589745 0 0)
(0.00154161 -0.000432655 0 -0.000557335 0 0)
(0.00152302 -0.000354406 0 -0.000531969 0 0)
(0.00150399 -0.000265886 0 -0.000504754 0 0)
(0.00148141 -0.000159263 0 -0.000473992 0 0)
(0.00225328 -0.000577119 0 -0.00169873 0 0)
(0.00240046 -0.000396079 0 -0.00165301 0 0)
(0.0024996 -0.000238876 0 -0.00159293 -5.42101e-19 0)
(0.00256532 -0.000107819 0 -0.00152331 0 0)
(0.00260892 -6.0624e-06 0 -0.00144871 0 0)
(0.00264115 6.34785e-05 0 -0.00137468 0 0)
(0.00267349 9.89089e-05 0 -0.00130815 0 0)
(0.00271912 0.000100264 0 -0.00125772 0 0)
(0.00279432 7.15046e-05 0 -0.00123425 0 0)
(0.00806654 -0.00202803 6.50521e-18 -0.00514532 -9.75782e-18 0)
(0.00539853 -0.00251064 -1.30104e-17 -0.00236157 6.50521e-18 0)
(0.00288888 -0.00180868 -3.25261e-18 -0.000600946 -2.1684e-18 0)
(0.00163763 -0.00118444 0 -0.000331118 0 0)
(0.000418715 -9.90412e-05 0 -0.000486295 0 0)
(0.000356821 0.000283149 0 -0.000983539 0 0)
(0.000495975 0.00042279 0 -0.00157156 0 0)
(0.000680706 0.000296372 0 -0.00206533 1.35525e-19 0)
(0.00122887 -0.000522994 0 -0.000539319 -5.42101e-19 0)
(0.00171253 -0.000500402 0 -0.000919682 0 0)
(0.00200574 -0.00044637 0 -0.00111023 0 0)
(0.00216603 -0.000376858 0 -0.00116439 0 0)
(0.00122887 -0.000522994 0 -0.000539319 -5.42101e-19 0)
(0.00171253 -0.000500402 0 -0.000919682 0 0)
(0.00200574 -0.00044637 0 -0.00111023 0 0)
(0.00216603 -0.000376858 0 -0.00116439 0 0)
(0.00262811 -9.15558e-05 0 -0.00141532 0 0)
(0.00289577 0.000132208 0 -0.00141665 0 0)
(0.00306459 0.000280154 0 -0.0013699 0 0)
(0.00314744 0.000249988 0 -0.0012411 0 0)
(0.00411562 0.000528477 0 -0.00127626 0 0)
(0.00521079 0.000309392 0 -0.0021871 -2.1684e-18 0)
(0.00664245 -0.000115826 0 -0.00369641 0 0)
(0.00821874 -0.000676176 0 -0.00560606 0 0)
(0.00806654 -0.00202803 6.50521e-18 -0.00514532 -9.75782e-18 0)
(0.00539853 -0.00251064 -1.30104e-17 -0.00236157 6.50521e-18 0)
(0.00288888 -0.00180868 -3.25261e-18 -0.000600946 -2.1684e-18 0)
(0.00163763 -0.00118444 0 -0.000331118 0 0)
(0.000418715 -9.90412e-05 0 -0.000486295 0 0)
(0.000356821 0.000283149 0 -0.000983539 0 0)
(0.000495975 0.00042279 0 -0.00157156 0 0)
(0.000680706 0.000296372 0 -0.00206533 1.35525e-19 0)
(0.00043935 -0.000261628 0 -0.00140222 0 0)
(0.000323348 -0.000252115 0 -0.000994038 0 0)
(0.000307459 -0.000242541 0 -0.000756452 0 0)
(0.000349175 -0.000231726 0 -0.000623717 0 0)
(0.000562599 -0.000299339 0 -0.000595443 0 0)
(0.000785367 -0.000611367 0 -0.000713862 0 0)
(0.00114777 -0.000788434 0 -0.000889372 0 0)
(0.00156216 -0.000811462 0 -0.0010279 0 0)
(0.000593804 -0.000189957 0 -0.000357442 0 0)
(0.000682779 -0.000159089 0 -0.000211588 0 0)
(0.000815716 -0.000121658 0 -0.000179095 0 0)
(0.000952246 -9.19433e-05 0 -0.000196919 0 0)
(0.00107787 -7.04234e-05 0 -0.000233955 0 0)
(0.00118654 -5.51742e-05 0 -0.000272216 0 0)
(0.00127477 -4.44693e-05 0 -0.000299062 0 0)
(0.00133922 -3.74115e-05 0 -0.000302878 0 0)
(0.00137545 -3.48372e-05 0 -0.000268332 0 0)
(0.00137714 -1.57182e-05 0 -0.00015805 -1.69407e-20 0)
(0.00139565 -3.26591e-05 0 -0.000208435 0 0)
(0.00142107 -5.40951e-05 0 -0.000280479 0 0)
(0.00145199 -7.25452e-05 0 -0.000369205 0 0)
(0.00148141 -0.000159263 0 -0.000473992 0 0)
(0.00150399 -0.000265886 0 -0.000504754 0 0)
(0.00152302 -0.000354406 0 -0.000531969 0 0)
(0.00154161 -0.000432655 0 -0.000557335 0 0)
(0.00156739 -0.000500706 0 -0.000589745 0 0)
(0.00161018 -0.000552799 0 -0.000641011 0 0)
(0.00168004 -0.000579842 0 -0.00072262 0 0)
(0.00178577 -0.000577043 0 -0.000843064 0 0)
(0.00194345 -0.000566447 0 -0.00101606 0 0)
(0.00150006 -7.33881e-05 0 -0.000496781 0 0)
(0.00151731 -7.12824e-05 0 -0.000536272 0 0)
(0.00153279 -6.56278e-05 0 -0.000572752 0 0)
(0.00154639 -5.7344e-05 0 -0.000605105 0 0)
(0.00155773 -4.70379e-05 0 -0.000632273 0 0)
(0.00156627 -3.53472e-05 0 -0.000653289 0 0)
(0.0015713 -2.31454e-05 0 -0.000667337 0 0)
(0.00157193 -1.17264e-05 0 -0.000673836 0 0)
(0.00156708 -3.00109e-06 0 -0.000672606 0 0)
(0.00157686 -7.80034e-07 0 -0.000683757 0 0)
(0.00163503 -1.4384e-05 0 -0.00071296 0 0)
(0.00175235 -2.6469e-05 0 -0.000761346 0 0)
(0.00191672 -3.69392e-05 0 -0.000826027 0 0)
(0.00211705 -4.60578e-05 0 -0.00090337 0 0)
(0.00234117 -5.31739e-05 0 -0.000988381 0 0)
(0.00257057 -5.62126e-05 0 -0.00107315 0 0)
(0.00277356 -5.11357e-05 0 -0.00114459 0 0)
(0.00289551 -3.06349e-05 0 -0.00118082 0 0)
(0.00279432 7.15046e-05 0 -0.00123425 0 0)
(0.00271912 0.000100264 0 -0.00125772 0 0)
(0.00267349 9.89089e-05 0 -0.00130815 0 0)
(0.00264115 6.34785e-05 0 -0.00137468 0 0)
(0.00260892 -6.0624e-06 0 -0.00144871 0 0)
(0.00256532 -0.000107819 0 -0.00152331 0 0)
(0.0024996 -0.000238876 0 -0.00159293 -5.42101e-19 0)
(0.00240046 -0.000396079 0 -0.00165301 0 0)
(0.00225328 -0.000577119 0 -0.00169873 0 0)
(0.00269554 7.84927e-05 0 -0.00110562 0 0)
(0.00233857 8.87965e-05 5.42101e-19 -0.000990023 0 0)
(0.00188778 0.000100751 -2.71051e-19 -0.000836119 0 0)
(0.00142706 0.000108359 -6.77626e-20 -0.000682436 0 0)
(0.00151746 0.000433706 0 -0.000666338 0 0)
(0.00175546 0.000438288 0 -0.000722092 0 0)
(0.0019598 0.000446878 0 -0.000754412 0 0)
(0.00214249 0.000459581 0 -0.000770907 0 0)
(0.00231338 0.00047638 0 -0.000777673 0 0)
(0.00248126 0.000497126 0 -0.000780071 0 0)
(0.00265459 0.000521473 0 -0.000783299 0 0)
(0.00284218 0.000548746 0 -0.000792879 2.1684e-18 0)
(0.00305388 0.000577748 0 -0.000815187 0 0)
(0.00647815 -0.00153564 6.50521e-18 -0.00390162 -6.50521e-18 0)
(0.00500649 -0.000854203 -8.67362e-18 -0.00237178 3.25261e-18 0)
(0.00404289 -0.000320978 -1.0842e-18 -0.00154559 2.1684e-18 0)
(0.00349224 6.45915e-05 -8.13152e-19 -0.00124882 0 0)
(0.00408622 -0.00156381 1.0842e-18 -0.00178288 0 0)
(0.00350759 -0.000759895 -2.1684e-18 -0.00130904 0 0)
(0.00335953 -0.000257686 1.0842e-18 -0.00133007 0 0)
(0.00324179 9.20932e-05 0 -0.00136067 0 0)
(0.00258606 -0.00115048 1.0842e-18 -0.00080757 0 0)
(0.00281557 -0.000653266 -1.0842e-18 -0.00112173 0 0)
(0.00293723 -0.000302634 0 -0.00130721 -1.0842e-18 0)
(0.00296365 -3.53303e-05 0 -0.00139572 0 0)
(0.00183686 -0.000874362 0 -0.000608506 0 0)
(0.00225473 -0.000597388 1.0842e-18 -0.00102534 0 0)
(0.00249604 -0.00038752 0 -0.00126107 0 0)
(0.002619 -0.000221911 0 -0.0013809 0 0)
(0.000820678 -0.000218103 0 -0.000676382 0 0)
(0.00120495 -0.0004508 0 -0.000910413 0 0)
(0.00144787 -0.000584434 0 -0.00102205 -5.42101e-19 0)
(0.00161065 -0.000687139 0 -0.00106586 -2.71051e-19 0)
(0.00069014 -4.54916e-06 0 -0.000991108 0 0)
(0.00090816 -0.000379838 0 -0.00100437 0 0)
(0.00107115 -0.000606002 0 -0.000995839 0 0)
(0.00120185 -0.000740146 0 -0.000986554 0 0)
(0.000690729 7.80552e-05 0 -0.00134704 0 0)
(0.000705276 -0.000289077 0 -0.00111271 0 0)
(0.000756648 -0.000503366 0 -0.000954935 0 0)
(0.000828626 -0.000624927 0 -0.00085428 -1.35525e-19 0)
(0.000683754 1.42658e-05 0 -0.00159851 0 0)
(0.000540405 -0.000191511 0 -0.00115341 0 0)
(0.000516079 -0.000302626 0 -0.000886759 6.77626e-20 0)
(0.000553208 -0.000369891 0 -0.000726176 0 0)
(0.000691866 -0.000288642 0 -0.000347196 3.38813e-20 0)
(0.000927857 -0.000520609 0 -0.000492068 0 0)
(0.00126325 -0.00064995 0 -0.00068591 0 0)
(0.00162996 -0.000654867 0 -0.000871202 0 0)
(0.000788057 -0.000269982 0 -0.000247821 -1.69407e-20 0)
(0.000976385 -0.000480224 0 -0.000383022 0 0)
(0.00124072 -0.000610769 0 -0.000561339 0 0)
(0.00153352 -0.000643725 0 -0.000741444 0 0)
(0.000898709 -0.000231408 0 -0.000222234 0 0)
(0.00103716 -0.0004206 0 -0.000328309 0 0)
(0.00123685 -0.000553083 0 -0.000473742 0 0)
(0.00146888 -0.000613843 0 -0.000632337 0 0)
(0.00101308 -0.000192728 0 -0.000235925 1.69407e-20 0)
(0.00111117 -0.000358722 0 -0.000314455 0 0)
(0.00125739 -0.000485263 0 -0.000426624 0 0)
(0.00143632 -0.000560396 0 -0.000557158 1.35525e-19 0)
(0.00112171 -0.000158616 0 -0.000265928 -1.69407e-20 0)
(0.00119 -0.000301065 0 -0.000323561 0 0)
(0.00129481 -0.000415323 0 -0.000408729 0 0)
(0.00142909 -0.000491992 0 -0.000512947 0 0)
(0.00121788 -0.000129131 0 -0.000296295 0 0)
(0.00126461 -0.000248806 0 -0.000339446 -6.77626e-20 0)
(0.00133815 -0.000347108 0 -0.000405 0 0)
(0.00143608 -0.00041657 0 -0.000488223 0 0)
(0.00129619 -0.000102979 0 -0.000314331 0 0)
(0.00132682 -0.000200389 0 -0.00034789 0 0)
(0.00137682 -0.000280496 0 -0.000400656 0 0)
(0.001446 -0.000337577 0 -0.000469454 0 0)
(0.0013505 -7.82862e-05 0 -0.000307105 0 0)
(0.00136784 -0.000151484 0 -0.000334666 0 0)
(0.00140122 -0.000210728 0 -0.000382312 6.77626e-20 0)
(0.00144952 -0.000252535 0 -0.000444786 0 0)
(0.00136828 -5.05839e-05 0 -0.000254493 1.69407e-20 0)
(0.00137661 -9.11045e-05 0 -0.000284808 0 0)
(0.00140339 -0.000125944 0 -0.000338835 0 0)
(0.00144061 -0.000150923 0 -0.000406666 0 0)
(0.0021053 -0.000524463 0 -0.00113651 0 0)
(0.00222568 -0.000442263 0 -0.00117368 0 0)
(0.00232271 -0.000354296 0 -0.00119164 0 0)
(0.00240211 -0.00027026 -2.1684e-18 -0.00119535 0 0)
(0.00247094 -0.000195632 -1.0842e-18 -0.00119048 0 0)
(0.00253717 -0.000133312 0 -0.00118328 0 0)
(0.00260952 -8.41695e-05 0 -0.00118042 0 0)
(0.00269712 -4.7133e-05 0 -0.00118892 0 0)
(0.00280861 -1.93023e-05 0 -0.0012155 -5.42101e-19 0)
(0.00191114 -0.000557444 0 -0.00093956 0 0)
(0.00202087 -0.00050913 0 -0.000978984 0 0)
(0.00212189 -0.000452933 0 -0.00101039 0 0)
(0.00221558 -0.000392512 0 -0.00103505 0 0)
(0.00230503 -0.000330618 0 -0.00105553 0 0)
(0.00239438 -0.000268714 0 -0.00107522 0 0)
(0.00248838 -0.000206863 0 -0.00109793 0 0)
(0.00259195 -0.000143672 0 -0.00112766 0 0)
(0.00271008 -7.61977e-05 0 -0.00116841 0 0)
(0.00178567 -0.000570562 0 -0.00080319 0 0)
(0.00188227 -0.000536685 0 -0.000844122 0 0)
(0.00197581 -0.000495017 0 -0.0008816 0 0)
(0.00206667 -0.000446382 0 -0.000916072 0 0)
(0.00215599 -0.000391428 0 -0.000948571 0 0)
(0.0022454 -0.000330302 0 -0.000980545 0 0)
(0.00233681 -0.000262463 0 -0.00101366 0 0)
(0.00243216 -0.000186588 0 -0.00104961 0 0)
(0.0025331 -0.000100573 0 -0.00108982 0 0)
(0.00169944 -0.000549952 0 -0.00070914 0 0)
(0.0017821 -0.000524752 0 -0.000750555 0 0)
(0.0018632 -0.00049135 0 -0.000789984 0 0)
(0.00194274 -0.000449765 0 -0.000827547 0 0)
(0.00202091 -0.000399893 0 -0.00086352 0 0)
(0.00209802 -0.000341391 0 -0.000898294 0 0)
(0.00217445 -0.00027359 0 -0.000932294 0 0)
(0.00225046 -0.000195457 0 -0.000965873 0 0)
(0.00232618 -0.000105585 0 -0.000999218 0 0)
(0.0016398 -0.000501033 0 -0.000646859 0 0)
(0.00170704 -0.000481794 0 -0.000686253 0 0)
(0.00177296 -0.000454273 0 -0.000724174 0 0)
(0.00183723 -0.000418354 0 -0.000760446 0 0)
(0.0018995 -0.000373808 0 -0.000794892 0 0)
(0.0019594 -0.000320268 0 -0.000827312 0 0)
(0.00201647 -0.00025719 0 -0.000857457 0 0)
(0.00207018 -0.000183832 0 -0.000884988 0 0)
(0.00211986 -9.92524e-05 0 -0.000909441 0 0)
(0.00159704 -0.000433381 0 -0.000604822 0 0)
(0.00164849 -0.000418099 0 -0.000640374 0 0)
(0.00169865 -0.0003951 0 -0.000674751 0 0)
(0.00174692 -0.000364337 0 -0.00070754 0 0)
(0.00179263 -0.000325691 0 -0.000738264 0 0)
(0.001835 -0.000278953 0 -0.000766372 0 0)
(0.00187312 -0.000223796 0 -0.000791216 0 0)
(0.00190597 -0.000159746 0 -0.00081204 0 0)
(0.00193237 -8.61606e-05 0 -0.000827974 0 0)
(0.00156281 -0.000353466 0 -0.000571858 0 0)
(0.00159987 -0.000340499 0 -0.000603384 0 0)
(0.00163577 -0.000320954 0 -0.000633998 0 0)
(0.00166977 -0.000294929 0 -0.000663121 0 0)
(0.001701 -0.000262497 0 -0.000690099 0 0)
(0.00172845 -0.000223694 0 -0.00071418 0 0)
(0.00175095 -0.000178494 0 -0.000734477 0 0)
(0.00176709 -0.000126756 0 -0.00074994 0 0)
(0.00177521 -6.81352e-05 0 -0.000759326 0 0)
(0.00153127 -0.000262038 0 -0.000540095 0 0)
(0.00155731 -0.000250492 0 -0.000569431 0 0)
(0.00158233 -0.000233995 0 -0.000597843 0 0)
(0.00160551 -0.000212698 0 -0.000624665 0 0)
(0.00162604 -0.000186827 0 -0.000649251 0 0)
(0.00164295 -0.00015671 0 -0.000670851 0 0)
(0.00165499 -0.00012276 0 -0.000688532 0 0)
(0.00166054 -8.54129e-05 0 -0.000701105 0 0)
(0.00165748 -4.50122e-05 0 -0.000707025 0 0)
(0.0015025 -0.000152349 0 -0.000509866 0 0)
(0.00152345 -0.000143669 0 -0.000541357 0 0)
(0.00154237 -0.000131985 0 -0.000570707 0 0)
(0.00155929 -0.000117207 0 -0.000597725 0 0)
(0.00157381 -9.96342e-05 0 -0.000621936 0 0)
(0.00158521 -7.98219e-05 0 -0.000642717 0 0)
(0.00159251 -5.85852e-05 0 -0.000659307 -2.71051e-19 0)
(0.00159432 -3.70782e-05 0 -0.000670755 0 0)
(0.00158872 -1.69527e-05 0 -0.000675786 0 0)
(0.0029636 0.000360941 0 -0.00115111 0 0)
(0.00279587 0.000397695 0 -0.00109749 2.1684e-18 0)
(0.00263401 0.000412873 0 -0.00104823 0 0)
(0.00247445 0.000410117 0 -0.00100121 0 0)
(0.00231275 0.000391308 0 -0.000953414 0 0)
(0.00214364 0.000356646 0 -0.000901027 0 0)
(0.00196097 0.00030447 1.35525e-19 -0.000839415 0 0)
(0.00175758 0.000230705 0 -0.00076303 0 0)
(0.00152502 0.000127666 0 -0.000665246 0 0)
(0.00297698 0.000402542 0 -0.00132584 0 0)
(0.00286654 0.000472962 0 -0.00127475 -1.0842e-18 0)
(0.00274669 0.000516236 0 -0.001218 0 0)
(0.00261973 0.000532751 0 -0.00115774 0 0)
(0.00248687 0.000522396 0 -0.00109512 1.0842e-18 0)
(0.00234861 0.000484171 0 -0.00103051 0 0)
(0.00220509 0.000415897 0 -0.00096389 0 0)
(0.00205675 0.000314111 0 -0.000895345 0 0)
(0.00190527 0.000174463 0 -0.000825871 0 0)
(0.00290306 0.000260408 0 -0.0014067 0 0)
(0.00286134 0.000356039 0 -0.00137395 0 0)
(0.00280035 0.000426972 0 -0.00132773 0 0)
(0.00272481 0.000470655 -5.42101e-19 -0.00127219 0 0)
(0.00263952 0.000484672 0 -0.00121128 0 0)
(0.00254933 0.000466517 0 -0.00114878 0 0)
(0.00245924 0.000413242 0 -0.00108843 0 0)
(0.00237462 0.000321142 0 -0.00103418 0 0)
(0.00230114 0.000185493 0 -0.000990269 0 0)
(0.00272763 3.21711e-05 0 -0.00143159 0 0)
(0.00276152 0.000139195 0 -0.00142057 0 0)
(0.00276526 0.00022963 0 -0.00138981 0 0)
(0.00274605 0.000298539 0 -0.00134464 0 0)
(0.00271178 0.000341156 1.0842e-18 -0.00129063 0 0)
(0.00267111 0.000353264 0 -0.0012338 0 0)
(0.00263346 0.000331111 0 -0.00118078 0 0)
(0.0026093 0.000270957 0 -0.00113896 0 0)
(0.00261073 0.00016787 0 -0.00111712 0 0)
(0.00647815 -0.00153564 6.50521e-18 -0.00390162 -6.50521e-18 0)
(0.00500649 -0.000854203 -8.67362e-18 -0.00237178 3.25261e-18 0)
(0.00404289 -0.000320978 -1.0842e-18 -0.00154559 2.1684e-18 0)
(0.00349224 6.45915e-05 -8.13152e-19 -0.00124882 0 0)
(0.00408622 -0.00156381 1.0842e-18 -0.00178288 0 0)
(0.00350759 -0.000759895 -2.1684e-18 -0.00130904 0 0)
(0.00335953 -0.000257686 1.0842e-18 -0.00133007 0 0)
(0.00324179 9.20932e-05 0 -0.00136067 0 0)
(0.00258606 -0.00115048 1.0842e-18 -0.00080757 0 0)
(0.00281557 -0.000653266 -1.0842e-18 -0.00112173 0 0)
(0.00293723 -0.000302634 0 -0.00130721 -1.0842e-18 0)
(0.00296365 -3.53303e-05 0 -0.00139572 0 0)
(0.00183686 -0.000874362 0 -0.000608506 0 0)
(0.00225473 -0.000597388 1.0842e-18 -0.00102534 0 0)
(0.00249604 -0.00038752 0 -0.00126107 0 0)
(0.002619 -0.000221911 0 -0.0013809 0 0)
(0.000820678 -0.000218103 0 -0.000676382 0 0)
(0.00120495 -0.0004508 0 -0.000910413 0 0)
(0.00144787 -0.000584434 0 -0.00102205 -5.42101e-19 0)
(0.00161065 -0.000687139 0 -0.00106586 -2.71051e-19 0)
(0.00069014 -4.54916e-06 0 -0.000991108 0 0)
(0.00090816 -0.000379838 0 -0.00100437 0 0)
(0.00107115 -0.000606002 0 -0.000995839 0 0)
(0.00120185 -0.000740146 0 -0.000986554 0 0)
(0.000690729 7.80552e-05 0 -0.00134704 0 0)
(0.000705276 -0.000289077 0 -0.00111271 0 0)
(0.000756648 -0.000503366 0 -0.000954935 0 0)
(0.000828626 -0.000624927 0 -0.00085428 -1.35525e-19 0)
(0.000683754 1.42658e-05 0 -0.00159851 0 0)
(0.000540405 -0.000191511 0 -0.00115341 0 0)
(0.000516079 -0.000302626 0 -0.000886759 6.77626e-20 0)
(0.000553208 -0.000369891 0 -0.000726176 0 0)
(0.000691866 -0.000288642 0 -0.000347196 3.38813e-20 0)
(0.000927857 -0.000520609 0 -0.000492068 0 0)
(0.00126325 -0.00064995 0 -0.00068591 0 0)
(0.00162996 -0.000654867 0 -0.000871202 0 0)
(0.000788057 -0.000269982 0 -0.000247821 -1.69407e-20 0)
(0.000976385 -0.000480224 0 -0.000383022 0 0)
(0.00124072 -0.000610769 0 -0.000561339 0 0)
(0.00153352 -0.000643725 0 -0.000741444 0 0)
(0.000898709 -0.000231408 0 -0.000222234 0 0)
(0.00103716 -0.0004206 0 -0.000328309 0 0)
(0.00123685 -0.000553083 0 -0.000473742 0 0)
(0.00146888 -0.000613843 0 -0.000632337 0 0)
(0.00101308 -0.000192728 0 -0.000235925 1.69407e-20 0)
(0.00111117 -0.000358722 0 -0.000314455 0 0)
(0.00125739 -0.000485263 0 -0.000426624 0 0)
(0.00143632 -0.000560396 0 -0.000557158 1.35525e-19 0)
(0.00112171 -0.000158616 0 -0.000265928 -1.69407e-20 0)
(0.00119 -0.000301065 0 -0.000323561 0 0)
(0.00129481 -0.000415323 0 -0.000408729 0 0)
(0.00142909 -0.000491992 0 -0.000512947 0 0)
(0.00121788 -0.000129131 0 -0.000296295 0 0)
(0.00126461 -0.000248806 0 -0.000339446 -6.77626e-20 0)
(0.00133815 -0.000347108 0 -0.000405 0 0)
(0.00143608 -0.00041657 0 -0.000488223 0 0)
(0.00129619 -0.000102979 0 -0.000314331 0 0)
(0.00132682 -0.000200389 0 -0.00034789 0 0)
(0.00137682 -0.000280496 0 -0.000400656 0 0)
(0.001446 -0.000337577 0 -0.000469454 0 0)
(0.0013505 -7.82862e-05 0 -0.000307105 0 0)
(0.00136784 -0.000151484 0 -0.000334666 0 0)
(0.00140122 -0.000210728 0 -0.000382312 6.77626e-20 0)
(0.00144952 -0.000252535 0 -0.000444786 0 0)
(0.00136828 -5.05839e-05 0 -0.000254493 1.69407e-20 0)
(0.00137661 -9.11045e-05 0 -0.000284808 0 0)
(0.00140339 -0.000125944 0 -0.000338835 0 0)
(0.00144061 -0.000150923 0 -0.000406666 0 0)
(0.0021053 -0.000524463 0 -0.00113651 0 0)
(0.00222568 -0.000442263 0 -0.00117368 0 0)
(0.00232271 -0.000354296 0 -0.00119164 0 0)
(0.00240211 -0.00027026 -2.1684e-18 -0.00119535 0 0)
(0.00247094 -0.000195632 -1.0842e-18 -0.00119048 0 0)
(0.00253717 -0.000133312 0 -0.00118328 0 0)
(0.00260952 -8.41695e-05 0 -0.00118042 0 0)
(0.00269712 -4.7133e-05 0 -0.00118892 0 0)
(0.00280861 -1.93023e-05 0 -0.0012155 -5.42101e-19 0)
(0.00191114 -0.000557444 0 -0.00093956 0 0)
(0.00202087 -0.00050913 0 -0.000978984 0 0)
(0.00212189 -0.000452933 0 -0.00101039 0 0)
(0.00221558 -0.000392512 0 -0.00103505 0 0)
(0.00230503 -0.000330618 0 -0.00105553 0 0)
(0.00239438 -0.000268714 0 -0.00107522 0 0)
(0.00248838 -0.000206863 0 -0.00109793 0 0)
(0.00259195 -0.000143672 0 -0.00112766 0 0)
(0.00271008 -7.61977e-05 0 -0.00116841 0 0)
(0.00178567 -0.000570562 0 -0.00080319 0 0)
(0.00188227 -0.000536685 0 -0.000844122 0 0)
(0.00197581 -0.000495017 0 -0.0008816 0 0)
(0.00206667 -0.000446382 0 -0.000916072 0 0)
(0.00215599 -0.000391428 0 -0.000948571 0 0)
(0.0022454 -0.000330302 0 -0.000980545 0 0)
(0.00233681 -0.000262463 0 -0.00101366 0 0)
(0.00243216 -0.000186588 0 -0.00104961 0 0)
(0.0025331 -0.000100573 0 -0.00108982 0 0)
(0.00169944 -0.000549952 0 -0.00070914 0 0)
(0.0017821 -0.000524752 0 -0.000750555 0 0)
(0.0018632 -0.00049135 0 -0.000789984 0 0)
(0.00194274 -0.000449765 0 -0.000827547 0 0)
(0.00202091 -0.000399893 0 -0.00086352 0 0)
(0.00209802 -0.000341391 0 -0.000898294 0 0)
(0.00217445 -0.00027359 0 -0.000932294 0 0)
(0.00225046 -0.000195457 0 -0.000965873 0 0)
(0.00232618 -0.000105585 0 -0.000999218 0 0)
(0.0016398 -0.000501033 0 -0.000646859 0 0)
(0.00170704 -0.000481794 0 -0.000686253 0 0)
(0.00177296 -0.000454273 0 -0.000724174 0 0)
(0.00183723 -0.000418354 0 -0.000760446 0 0)
(0.0018995 -0.000373808 0 -0.000794892 0 0)
(0.0019594 -0.000320268 0 -0.000827312 0 0)
(0.00201647 -0.00025719 0 -0.000857457 0 0)
(0.00207018 -0.000183832 0 -0.000884988 0 0)
(0.00211986 -9.92524e-05 0 -0.000909441 0 0)
(0.00159704 -0.000433381 0 -0.000604822 0 0)
(0.00164849 -0.000418099 0 -0.000640374 0 0)
(0.00169865 -0.0003951 0 -0.000674751 0 0)
(0.00174692 -0.000364337 0 -0.00070754 0 0)
(0.00179263 -0.000325691 0 -0.000738264 0 0)
(0.001835 -0.000278953 0 -0.000766372 0 0)
(0.00187312 -0.000223796 0 -0.000791216 0 0)
(0.00190597 -0.000159746 0 -0.00081204 0 0)
(0.00193237 -8.61606e-05 0 -0.000827974 0 0)
(0.00156281 -0.000353466 0 -0.000571858 0 0)
(0.00159987 -0.000340499 0 -0.000603384 0 0)
(0.00163577 -0.000320954 0 -0.000633998 0 0)
(0.00166977 -0.000294929 0 -0.000663121 0 0)
(0.001701 -0.000262497 0 -0.000690099 0 0)
(0.00172845 -0.000223694 0 -0.00071418 0 0)
(0.00175095 -0.000178494 0 -0.000734477 0 0)
(0.00176709 -0.000126756 0 -0.00074994 0 0)
(0.00177521 -6.81352e-05 0 -0.000759326 0 0)
(0.00153127 -0.000262038 0 -0.000540095 0 0)
(0.00155731 -0.000250492 0 -0.000569431 0 0)
(0.00158233 -0.000233995 0 -0.000597843 0 0)
(0.00160551 -0.000212698 0 -0.000624665 0 0)
(0.00162604 -0.000186827 0 -0.000649251 0 0)
(0.00164295 -0.00015671 0 -0.000670851 0 0)
(0.00165499 -0.00012276 0 -0.000688532 0 0)
(0.00166054 -8.54129e-05 0 -0.000701105 0 0)
(0.00165748 -4.50122e-05 0 -0.000707025 0 0)
(0.0015025 -0.000152349 0 -0.000509866 0 0)
(0.00152345 -0.000143669 0 -0.000541357 0 0)
(0.00154237 -0.000131985 0 -0.000570707 0 0)
(0.00155929 -0.000117207 0 -0.000597725 0 0)
(0.00157381 -9.96342e-05 0 -0.000621936 0 0)
(0.00158521 -7.98219e-05 0 -0.000642717 0 0)
(0.00159251 -5.85852e-05 0 -0.000659307 -2.71051e-19 0)
(0.00159432 -3.70782e-05 0 -0.000670755 0 0)
(0.00158872 -1.69527e-05 0 -0.000675786 0 0)
(0.0029636 0.000360941 0 -0.00115111 0 0)
(0.00279587 0.000397695 0 -0.00109749 2.1684e-18 0)
(0.00263401 0.000412873 0 -0.00104823 0 0)
(0.00247445 0.000410117 0 -0.00100121 0 0)
(0.00231275 0.000391308 0 -0.000953414 0 0)
(0.00214364 0.000356646 0 -0.000901027 0 0)
(0.00196097 0.00030447 1.35525e-19 -0.000839415 0 0)
(0.00175758 0.000230705 0 -0.00076303 0 0)
(0.00152502 0.000127666 0 -0.000665246 0 0)
(0.00297698 0.000402542 0 -0.00132584 0 0)
(0.00286654 0.000472962 0 -0.00127475 -1.0842e-18 0)
(0.00274669 0.000516236 0 -0.001218 0 0)
(0.00261973 0.000532751 0 -0.00115774 0 0)
(0.00248687 0.000522396 0 -0.00109512 1.0842e-18 0)
(0.00234861 0.000484171 0 -0.00103051 0 0)
(0.00220509 0.000415897 0 -0.00096389 0 0)
(0.00205675 0.000314111 0 -0.000895345 0 0)
(0.00190527 0.000174463 0 -0.000825871 0 0)
(0.00290306 0.000260408 0 -0.0014067 0 0)
(0.00286134 0.000356039 0 -0.00137395 0 0)
(0.00280035 0.000426972 0 -0.00132773 0 0)
(0.00272481 0.000470655 -5.42101e-19 -0.00127219 0 0)
(0.00263952 0.000484672 0 -0.00121128 0 0)
(0.00254933 0.000466517 0 -0.00114878 0 0)
(0.00245924 0.000413242 0 -0.00108843 0 0)
(0.00237462 0.000321142 0 -0.00103418 0 0)
(0.00230114 0.000185493 0 -0.000990269 0 0)
(0.00272763 3.21711e-05 0 -0.00143159 0 0)
(0.00276152 0.000139195 0 -0.00142057 0 0)
(0.00276526 0.00022963 0 -0.00138981 0 0)
(0.00274605 0.000298539 0 -0.00134464 0 0)
(0.00271178 0.000341156 1.0842e-18 -0.00129063 0 0)
(0.00267111 0.000353264 0 -0.0012338 0 0)
(0.00263346 0.000331111 0 -0.00118078 0 0)
(0.0026093 0.000270957 0 -0.00113896 0 0)
(0.00261073 0.00016787 0 -0.00111712 0 0)
)
;

boundaryField
{
    back
    {
        type            empty;
    }
    front
    {
        type            empty;
    }
    left
    {
        type            calculated;
    }
    hole
    {
        type            calculated;
    }
    down
    {
        type            calculated;
    }
    right
    {
        type            calculated;
    }
    up
    {
        type            calculated;
    }
}


// ************************************************************************* //
