/*--------------------------------*- C++ -*----------------------------------*\
| =========                 |                                                 |
| \\      /  F ield         | OpenFOAM: The Open Source CFD Toolbox           |
|  \\    /   O peration     | Version:  v2012                                 |
|   \\  /    A nd           | Website:  www.openfoam.com                      |
|    \\/     M anipulation  |                                                 |
\*---------------------------------------------------------------------------*/
FoamFile
{
    version     2.0;
    format      ascii;
    class       volScalarField;
    location    "20";
    object      sigmaEq;
}
// * * * * * * * * * * * * * * * * * * * * * * * * * * * * * * * * * * * * * //

dimensions      [1 -1 -2 0 0 0 0];


internalField   nonuniform List<scalar> 
1000
(
2.40424e+08
1.75399e+08
1.2739e+08
9.42802e+07
6.969e+07
5.17443e+07
3.86782e+07
3.42645e+07
3.94025e+07
4.98532e+07
2.28836e+08
1.67752e+08
1.23875e+08
9.72437e+07
7.71493e+07
6.29445e+07
4.91511e+07
4.06429e+07
3.69824e+07
4.34757e+07
2.06085e+08
1.52102e+08
1.14159e+08
9.39059e+07
7.4807e+07
6.31161e+07
4.89304e+07
4.08444e+07
3.57007e+07
3.9812e+07
1.71439e+08
1.27174e+08
9.63931e+07
7.67388e+07
5.75609e+07
4.96181e+07
4.15871e+07
4.1333e+07
3.86389e+07
4.06521e+07
1.25801e+08
9.12108e+07
7.28367e+07
5.50478e+07
4.51701e+07
3.95172e+07
3.86402e+07
3.94535e+07
3.68477e+07
3.79417e+07
7.66633e+07
7.34333e+07
5.64403e+07
4.54797e+07
4.26674e+07
3.55631e+07
3.38348e+07
3.00281e+07
2.93232e+07
2.99125e+07
6.43872e+07
5.53254e+07
4.39825e+07
4.04464e+07
3.37779e+07
2.87768e+07
2.57472e+07
2.18917e+07
2.16979e+07
2.08642e+07
5.38755e+07
4.94916e+07
3.95561e+07
3.43799e+07
2.71631e+07
2.30617e+07
2.01761e+07
1.74264e+07
1.74395e+07
1.57473e+07
4.6083e+07
3.97465e+07
3.29513e+07
2.9796e+07
2.46508e+07
2.221e+07
1.93148e+07
1.71158e+07
1.66246e+07
1.50105e+07
4.08794e+07
3.59412e+07
2.97929e+07
2.66501e+07
2.12844e+07
1.92346e+07
1.58942e+07
1.4207e+07
1.35629e+07
1.15546e+07
3.56059e+07
3.14158e+07
2.66431e+07
2.45737e+07
2.0765e+07
1.93891e+07
1.7064e+07
1.54159e+07
1.44729e+07
1.24002e+07
3.15365e+07
2.76792e+07
2.34254e+07
2.10294e+07
1.7616e+07
1.60142e+07
1.4167e+07
1.29975e+07
1.25293e+07
1.20143e+07
2.8398e+07
2.50985e+07
2.14235e+07
1.95494e+07
1.66388e+07
1.53107e+07
1.3431e+07
1.23318e+07
1.13908e+07
1.09551e+07
2.48593e+07
2.2117e+07
1.89064e+07
1.71448e+07
1.45427e+07
1.33178e+07
1.16882e+07
1.08246e+07
9.98234e+06
9.68532e+06
2.28646e+07
2.0216e+07
1.72911e+07
1.55006e+07
1.31995e+07
1.18543e+07
1.04465e+07
9.47399e+06
8.87041e+06
8.55622e+06
2.02151e+07
1.80741e+07
1.55093e+07
1.38798e+07
1.17199e+07
1.04211e+07
8.98296e+06
8.04344e+06
7.31657e+06
7.03493e+06
1.89425e+07
1.67366e+07
1.43275e+07
1.2509e+07
1.05067e+07
9.02212e+06
7.72719e+06
6.68507e+06
6.15351e+06
5.85205e+06
1.73496e+07
1.54352e+07
1.32341e+07
1.14945e+07
9.52508e+06
8.02202e+06
6.58927e+06
5.49478e+06
4.78327e+06
4.47926e+06
1.67143e+07
1.47414e+07
1.2607e+07
1.07271e+07
8.79714e+06
7.15168e+06
5.7136e+06
4.50588e+06
3.82901e+06
3.4987e+06
1.61874e+07
1.43033e+07
1.22326e+07
1.03703e+07
8.43525e+06
6.76607e+06
5.23266e+06
3.95791e+06
3.13445e+06
2.77262e+06
3.63951e+06
4.1838e+06
4.75243e+06
6.03947e+06
6.81545e+06
8.46116e+06
9.21671e+06
1.07548e+07
1.18938e+07
1.16156e+07
4.53775e+06
4.80947e+06
5.16588e+06
5.90493e+06
6.5588e+06
7.57628e+06
8.62805e+06
9.40766e+06
1.11716e+07
1.14008e+07
6.4945e+06
6.64884e+06
6.88146e+06
7.24453e+06
7.74997e+06
8.01567e+06
9.11848e+06
8.98022e+06
1.1092e+07
1.18918e+07
6.74364e+06
6.82158e+06
7.327e+06
7.46774e+06
8.49143e+06
8.41897e+06
9.81736e+06
9.37198e+06
1.0386e+07
1.09435e+07
7.59572e+06
7.54439e+06
7.86671e+06
7.70372e+06
8.46846e+06
8.3042e+06
9.51533e+06
9.79161e+06
1.07998e+07
1.19263e+07
7.62329e+06
7.62926e+06
8.15088e+06
8.09597e+06
8.91981e+06
8.73401e+06
9.43866e+06
9.40688e+06
9.66149e+06
1.04007e+07
7.4392e+06
7.38849e+06
7.71233e+06
7.66744e+06
8.28236e+06
8.51929e+06
9.16204e+06
9.81532e+06
1.01494e+07
1.09667e+07
7.48959e+06
7.51121e+06
7.82936e+06
7.87259e+06
8.24722e+06
8.35606e+06
8.52074e+06
8.86926e+06
8.90738e+06
9.53026e+06
6.68934e+06
6.73951e+06
6.95821e+06
7.19755e+06
7.52612e+06
8.06298e+06
8.29908e+06
8.99571e+06
9.0896e+06
9.70081e+06
6.77659e+06
6.84125e+06
6.94796e+06
7.13424e+06
7.19156e+06
7.51316e+06
7.45463e+06
7.90205e+06
7.87327e+06
8.3553e+06
5.76071e+06
5.8919e+06
6.00787e+06
6.40704e+06
6.54925e+06
7.14702e+06
7.21468e+06
7.8153e+06
7.81443e+06
8.29432e+06
5.85718e+06
5.94593e+06
5.93231e+06
6.18241e+06
6.10411e+06
6.47644e+06
6.35215e+06
6.76361e+06
6.68583e+06
7.04907e+06
4.89822e+06
5.05062e+06
5.10525e+06
5.51197e+06
5.56928e+06
6.08532e+06
6.09533e+06
6.54881e+06
6.50276e+06
6.85339e+06
5.00933e+06
5.08888e+06
5.03442e+06
5.25091e+06
5.15051e+06
5.44166e+06
5.33471e+06
5.60823e+06
5.51782e+06
5.73565e+06
4.27428e+06
4.39435e+06
4.40759e+06
4.71276e+06
4.71756e+06
5.07828e+06
5.04632e+06
5.34218e+06
5.24553e+06
5.44836e+06
4.4457e+06
4.49014e+06
4.40952e+06
4.53238e+06
4.39453e+06
4.56366e+06
4.39742e+06
4.56117e+06
4.37277e+06
4.49027e+06
4.05835e+06
4.1151e+06
4.06516e+06
4.21005e+06
4.11521e+06
4.28349e+06
4.15003e+06
4.26572e+06
4.10089e+06
4.1149e+06
4.37132e+06
4.36337e+06
4.23468e+06
4.21457e+06
3.98758e+06
3.96191e+06
3.68072e+06
3.64741e+06
3.34545e+06
3.29866e+06
4.46846e+06
4.45452e+06
4.31172e+06
4.27025e+06
4.00137e+06
3.93482e+06
3.569e+06
3.48327e+06
3.05631e+06
2.96124e+06
5.05051e+06
5.00071e+06
4.79576e+06
4.65357e+06
4.26769e+06
4.05423e+06
3.53101e+06
3.27897e+06
2.67666e+06
2.42639e+06
1.23137e+07
1.35248e+07
1.35108e+07
1.42334e+07
1.41327e+07
1.45847e+07
1.52177e+07
1.58936e+07
1.68706e+07
1.76965e+07
1.90051e+07
2.00295e+07
2.16546e+07
2.29467e+07
2.49365e+07
2.66403e+07
2.9131e+07
3.15271e+07
3.46927e+07
3.36692e+07
1.07564e+07
1.13744e+07
1.0324e+07
1.21866e+07
1.22464e+07
1.34229e+07
1.33726e+07
1.49933e+07
1.69268e+07
1.68438e+07
1.84916e+07
1.89833e+07
2.06448e+07
2.15089e+07
2.33493e+07
2.46274e+07
2.67342e+07
2.87001e+07
3.1101e+07
2.74553e+07
1.22962e+07
1.3385e+07
1.33083e+07
1.3503e+07
1.41272e+07
1.42695e+07
1.4876e+07
1.51783e+07
1.56705e+07
1.53935e+07
1.66707e+07
1.66441e+07
1.80558e+07
1.83939e+07
1.99267e+07
2.06975e+07
2.23601e+07
2.3619e+07
2.54712e+07
2.52621e+07
1.09168e+07
1.11706e+07
1.13961e+07
1.18655e+07
1.24652e+07
1.27401e+07
1.4032e+07
1.37874e+07
1.36182e+07
1.49944e+07
1.5481e+07
1.63525e+07
1.71495e+07
1.78609e+07
1.88016e+07
1.95166e+07
2.05345e+07
2.12686e+07
2.23768e+07
2.29423e+07
1.22232e+07
1.258e+07
1.26232e+07
1.29123e+07
1.29896e+07
1.31714e+07
1.32852e+07
1.34967e+07
1.35631e+07
1.36672e+07
1.39191e+07
1.40005e+07
1.4475e+07
1.46429e+07
1.53389e+07
1.56769e+07
1.65734e+07
1.70936e+07
1.81529e+07
1.87587e+07
1.07115e+07
1.07772e+07
1.09682e+07
1.11718e+07
1.13912e+07
1.16104e+07
1.18426e+07
1.20939e+07
1.22118e+07
1.26223e+07
1.28064e+07
1.32005e+07
1.35046e+07
1.38471e+07
1.42866e+07
1.46034e+07
1.51914e+07
1.55425e+07
1.6276e+07
1.67807e+07
1.11893e+07
1.13454e+07
1.13582e+07
1.15025e+07
1.14375e+07
1.15499e+07
1.14373e+07
1.15187e+07
1.13921e+07
1.14291e+07
1.13559e+07
1.13576e+07
1.14002e+07
1.14114e+07
1.16039e+07
1.17159e+07
1.20388e+07
1.24081e+07
1.27595e+07
1.31126e+07
9.70576e+06
9.73866e+06
9.82736e+06
9.89002e+06
9.94288e+06
1.00294e+07
1.0048e+07
1.01533e+07
1.01439e+07
1.02651e+07
1.02556e+07
1.03787e+07
1.0394e+07
1.05232e+07
1.05912e+07
1.07474e+07
1.09342e+07
1.112e+07
1.15168e+07
1.17351e+07
9.78386e+06
9.82701e+06
9.83304e+06
9.8247e+06
9.75565e+06
9.72866e+06
9.5904e+06
9.54149e+06
9.35762e+06
9.27595e+06
9.0871e+06
8.95554e+06
8.82024e+06
8.60717e+06
8.60975e+06
8.2461e+06
8.51482e+06
9.53356e+06
8.58082e+06
8.46135e+06
8.3869e+06
8.36907e+06
8.40514e+06
8.34689e+06
8.35483e+06
8.29367e+06
8.26472e+06
8.2032e+06
8.14354e+06
8.0765e+06
8.00845e+06
7.92648e+06
7.8833e+06
7.78222e+06
7.79708e+06
7.69184e+06
7.76967e+06
7.7199e+06
7.79963e+06
7.92058e+06
8.25267e+06
8.20715e+06
8.22856e+06
8.10995e+06
8.06515e+06
7.91984e+06
7.80837e+06
7.63656e+06
7.46743e+06
7.26848e+06
7.05717e+06
6.83688e+06
6.60343e+06
6.38615e+06
6.15036e+06
6.00289e+06
5.77349e+06
5.84115e+06
5.59347e+06
5.59528e+06
7.0357e+06
6.93551e+06
6.9318e+06
6.80671e+06
6.81947e+06
6.64895e+06
6.62849e+06
6.44797e+06
6.37994e+06
6.19899e+06
6.0875e+06
5.90641e+06
5.76414e+06
5.58645e+06
5.4293e+06
5.27135e+06
5.12233e+06
5.01817e+06
4.93496e+06
4.89716e+06
6.71407e+06
6.74573e+06
6.65436e+06
6.50276e+06
6.4528e+06
6.23992e+06
6.1623e+06
5.91002e+06
5.78688e+06
5.51087e+06
5.33012e+06
5.04743e+06
4.80966e+06
4.53533e+06
4.24955e+06
4.00624e+06
3.7001e+06
3.51655e+06
3.28252e+06
3.16207e+06
5.59871e+06
5.51244e+06
5.5668e+06
5.33947e+06
5.34573e+06
5.11826e+06
5.08458e+06
4.85458e+06
4.77548e+06
4.55063e+06
4.41863e+06
4.19645e+06
4.01879e+06
3.79623e+06
3.58862e+06
3.3465e+06
3.15695e+06
2.96868e+06
2.78546e+06
2.65122e+06
5.28163e+06
5.17382e+06
5.16036e+06
4.97007e+06
4.92288e+06
4.69908e+06
4.61742e+06
4.36294e+06
4.2632e+06
3.96676e+06
3.80168e+06
3.51433e+06
3.30978e+06
3.01038e+06
2.79233e+06
2.46458e+06
2.10381e+06
1.89882e+06
1.58954e+06
1.39384e+06
4.31714e+06
4.18728e+06
4.1726e+06
3.94687e+06
3.93123e+06
3.66352e+06
3.63436e+06
3.33808e+06
3.2961e+06
3.10934e+06
2.92468e+06
2.73707e+06
2.52406e+06
2.38046e+06
2.1023e+06
1.814e+06
1.6759e+06
1.56734e+06
1.26586e+06
1.11039e+06
3.95145e+06
3.81226e+06
3.78104e+06
3.55722e+06
3.51235e+06
3.2612e+06
3.17359e+06
2.92271e+06
2.73177e+06
2.5489e+06
2.37024e+06
2.14749e+06
1.92651e+06
1.72059e+06
1.43451e+06
1.27272e+06
1.10415e+06
797447
561051
281797
3.05307e+06
2.92474e+06
2.84865e+06
2.64849e+06
2.58053e+06
2.35086e+06
2.26014e+06
2.09744e+06
1.92242e+06
1.66946e+06
1.57564e+06
1.37425e+06
1.23374e+06
1.06086e+06
910512
738475
615995
477122
331510
179521
2.62834e+06
2.51552e+06
2.37875e+06
2.20761e+06
2.09246e+06
1.89852e+06
1.79369e+06
1.58918e+06
1.47899e+06
1.27273e+06
1.13314e+06
956546
800368
650329
496502
371968
253822
153552
111435
142451
1.98029e+06
1.86217e+06
1.63205e+06
1.49429e+06
1.31343e+06
1.07879e+06
919954
833997
651038
532486
413539
302810
222112
138479
95997.9
58294.1
79116
75565.4
87233
51074
5.16963e+07
4.62807e+07
4.07657e+07
3.76891e+07
3.41838e+07
3.2273e+07
2.92187e+07
2.73683e+07
2.43398e+07
2.24039e+07
1.93243e+07
1.715e+07
1.39123e+07
1.14015e+07
8.17926e+06
6.1449e+06
6.38477e+06
9.58118e+06
1.50153e+07
2.13377e+07
5.03871e+07
5.62043e+07
5.66069e+07
5.58071e+07
5.31019e+07
5.01267e+07
4.56487e+07
4.31962e+07
3.94204e+07
3.6911e+07
3.33645e+07
3.06229e+07
2.70044e+07
2.38834e+07
2.00116e+07
1.65161e+07
1.27172e+07
1.02102e+07
1.03283e+07
1.42923e+07
4.22671e+07
4.75208e+07
5.15244e+07
5.66139e+07
6.02672e+07
6.32426e+07
5.99733e+07
5.58548e+07
5.07965e+07
4.74899e+07
4.33871e+07
4.0287e+07
3.63659e+07
3.29682e+07
2.86891e+07
2.45949e+07
1.95358e+07
1.44369e+07
8.4679e+06
4.39274e+06
3.91726e+07
4.14564e+07
4.27517e+07
4.55433e+07
4.84009e+07
5.30692e+07
5.73051e+07
6.06909e+07
5.77705e+07
5.44778e+07
5.12063e+07
4.81905e+07
4.46208e+07
4.12931e+07
3.71272e+07
3.30573e+07
2.79861e+07
2.28041e+07
1.66225e+07
1.04346e+07
3.45663e+07
3.66861e+07
3.7041e+07
3.91079e+07
4.07153e+07
4.37715e+07
4.60192e+07
5.01603e+07
5.34632e+07
5.32453e+07
5.17615e+07
5.02151e+07
4.79364e+07
4.55368e+07
4.25739e+07
3.93676e+07
3.5833e+07
3.20468e+07
2.85862e+07
2.55062e+07
2.74931e+07
3.02771e+07
3.10008e+07
3.28052e+07
3.42027e+07
3.65732e+07
3.87647e+07
4.15267e+07
4.28668e+07
4.44075e+07
4.44835e+07
4.43565e+07
4.36079e+07
4.24744e+07
4.12269e+07
3.95972e+07
3.8304e+07
3.68833e+07
3.65505e+07
3.66915e+07
1.94248e+07
2.25081e+07
2.33153e+07
2.48853e+07
2.60247e+07
2.81854e+07
2.9746e+07
3.24396e+07
3.44304e+07
3.61936e+07
3.72257e+07
3.80584e+07
3.84338e+07
3.86484e+07
3.87099e+07
3.87106e+07
3.89941e+07
3.94538e+07
4.09028e+07
4.2911e+07
1.48379e+07
1.55244e+07
1.65784e+07
1.69511e+07
1.85035e+07
1.96306e+07
2.14941e+07
2.30581e+07
2.48948e+07
2.65031e+07
2.81224e+07
2.9508e+07
3.09373e+07
3.21287e+07
3.35657e+07
3.48291e+07
3.66747e+07
3.85084e+07
4.1381e+07
4.45055e+07
1.54746e+07
1.58152e+07
1.65967e+07
1.66214e+07
1.77005e+07
1.81662e+07
1.95015e+07
2.05151e+07
2.2038e+07
2.33021e+07
2.4884e+07
2.62418e+07
2.78471e+07
2.93105e+07
3.10277e+07
3.27341e+07
3.47959e+07
3.69308e+07
3.96932e+07
4.23197e+07
1.20344e+07
1.28091e+07
1.33485e+07
1.37254e+07
1.44857e+07
1.50575e+07
1.60625e+07
1.69273e+07
1.82705e+07
1.93224e+07
2.08733e+07
2.22318e+07
2.39807e+07
2.56781e+07
2.77015e+07
2.97927e+07
3.22666e+07
3.48113e+07
3.80313e+07
4.09259e+07
)
;

boundaryField
{
    back
    {
        type            empty;
    }
    left
    {
        type            symmetry;
    }
    hole
    {
        type            calculated;
        value           nonuniform List<scalar> 
20
(
2.43e+08
2.33748e+08
2.09956e+08
1.74722e+08
1.27422e+08
7.84539e+07
6.56152e+07
5.40514e+07
4.64334e+07
4.11373e+07
3.59294e+07
3.1817e+07
2.8707e+07
2.51477e+07
2.31521e+07
2.04917e+07
1.92073e+07
1.76095e+07
1.69654e+07
1.64375e+07
)
;
    }
    front
    {
        type            empty;
    }
    down
    {
        type            symmetry;
    }
    right
    {
        type            calculated;
        value           nonuniform List<scalar> 
30
(
5.03399e+06
4.98479e+06
4.78213e+06
4.64057e+06
4.2569e+06
4.04137e+06
3.51667e+06
3.25779e+06
2.64631e+06
2.38475e+06
1.9248e+06
1.81436e+06
1.55964e+06
1.43445e+06
1.21736e+06
1.0361e+06
859411
760750
580496
476181
345627
258688
163937
106351
40440.9
16043.9
25186.4
21805.5
39716.1
14400.2
)
;
    }
    up
    {
        type            calculated;
        value           nonuniform List<scalar> 
30
(
3.33282e+07
2.71675e+07
2.51551e+07
2.29364e+07
1.88041e+07
1.68094e+07
1.31664e+07
1.17785e+07
8.50912e+06
7.91071e+06
5.61356e+06
4.89541e+06
3.15702e+06
2.64167e+06
1.37215e+06
1.09568e+06
254286
168537
141144
51798.2
2.13071e+07
1.40602e+07
3.00324e+06
9.66501e+06
2.52567e+07
3.66522e+07
4.29232e+07
4.45605e+07
4.23058e+07
4.0874e+07
)
;
    }
}


// ************************************************************************* //
