/*--------------------------------*- C++ -*----------------------------------*\
| =========                 |                                                 |
| \\      /  F ield         | OpenFOAM: The Open Source CFD Toolbox           |
|  \\    /   O peration     | Version:  v2012                                 |
|   \\  /    A nd           | Website:  www.openfoam.com                      |
|    \\/     M anipulation  |                                                 |
\*---------------------------------------------------------------------------*/
FoamFile
{
    version     2.0;
    format      ascii;
    class       volSymmTensorField;
    location    "13";
    object      epsilon;
}
// * * * * * * * * * * * * * * * * * * * * * * * * * * * * * * * * * * * * * //

dimensions      [0 0 0 0 0 0 0];


internalField   nonuniform List<symmTensor> 
2000
(
(0.0181826 -0.00198027 4.90952e-18 -0.0174673 -4.95606e-19 1.04623e-33)
(0.0103602 -0.000777886 2.61111e-18 -0.0083239 -3.03228e-18 0)
(0.0133763 -0.00109504 -3.88677e-18 -0.0109523 -5.8943e-19 0)
(0.00975995 -0.000851428 -1.74973e-18 -0.00814287 1.60819e-18 0)
(0.0110395 -0.000727829 3.15312e-18 -0.00892493 3.76048e-19 0)
(0.0089923 -0.000792696 5.30701e-19 -0.00724896 -9.99371e-19 0)
(0.00941389 -0.000573619 -1.55541e-18 -0.00715902 5.8573e-19 0)
(0.00805487 -0.000674221 -3.28719e-18 -0.00606733 -1.29058e-18 0)
(0.00798833 -0.000500149 -5.39393e-18 -0.00554996 -1.18192e-18 0)
(0.00692523 -0.000508871 -7.09389e-19 -0.00473102 1.03989e-18 0)
(0.00661175 -0.000428039 0 -0.00402605 0 0)
(0.00572534 -0.000321689 0 -0.003358 0 0)
(0.00534123 -0.00032799 -7.98974e-19 -0.00269321 1.04724e-19 0)
(0.00464173 -0.000154604 -1.27974e-18 -0.00218589 -3.94765e-19 0)
(0.00428361 -0.000211369 -5.28326e-19 -0.00166296 -2.25175e-19 0)
(0.00379945 -2.6613e-05 7.63228e-19 -0.00134613 3.2652e-19 0)
(0.0034957 -9.72138e-05 0 -0.000944697 0 0)
(0.00323917 6.27774e-05 0 -0.000809797 0 0)
(0.00300466 7.74611e-06 0 -0.000541046 0 0)
(0.00289699 0.000130149 -2.6981e-19 -0.000537015 -1.21649e-19 0)
(0.00801778 -0.00183052 0 -0.00795747 0 0)
(0.0102061 -0.00231799 1.08025e-18 -0.00783741 7.79503e-19 0)
(0.00887046 -0.00186032 -9.17785e-20 -0.00728733 7.33931e-19 0)
(0.00931261 -0.00214492 1.08119e-18 -0.0072588 9.18257e-20 0)
(0.00840551 -0.00174496 4.18303e-19 -0.00659921 -8.78226e-19 0)
(0.00821038 -0.00184485 4.32725e-19 -0.0062539 -9.24677e-19 0)
(0.00739788 -0.00150309 -1.39747e-18 -0.00525666 9.34214e-19 0)
(0.00692281 -0.00142907 -2.74231e-18 -0.00489996 -7.53696e-19 0)
(0.00625673 -0.00120685 -5.17468e-18 -0.00386777 -1.69272e-18 0)
(0.00566607 -0.000985991 -3.29624e-18 -0.00357982 -4.47112e-19 0)
(0.00523512 -0.00089557 -9.23233e-19 -0.00276521 -5.08049e-19 0)
(0.00463769 -0.000591953 2.38314e-19 -0.00252263 1.83585e-19 0)
(0.00442789 -0.000599537 1.35909e-18 -0.00200015 7.4152e-19 0)
(0.00390746 -0.000274587 1.17472e-20 -0.0017994 7.02556e-20 0)
(0.00382724 -0.00033655 -1.46029e-18 -0.00150297 -9.22489e-19 0)
(0.00343921 -2.34602e-05 -8.40801e-19 -0.00136581 -7.65098e-19 0)
(0.00339554 -0.000109587 4.18453e-19 -0.00118582 3.28798e-19 0)
(0.00316242 0.000185475 7.61542e-19 -0.00112652 5.74334e-19 0)
(0.00305034 8.7846e-05 1.06044e-18 -0.000936999 7.04336e-19 0)
(0.00291509 0.000341622 8.81471e-19 -0.000937363 7.39778e-19 0)
(0.010067 -0.00414447 -1.74305e-18 -0.00976015 6.10478e-19 3.01356e-34)
(0.00877833 -0.00320363 -2.62178e-18 -0.00661306 7.33382e-19 0)
(0.00820277 -0.0030346 -9.89437e-20 -0.00633296 -6.4151e-19 0)
(0.00731543 -0.00267737 9.52842e-19 -0.00558321 5.6625e-19 0)
(0.00670011 -0.00235829 2.0549e-19 -0.00445714 4.12416e-19 0)
(0.00582037 -0.00200352 -2.02156e-18 -0.00422108 -1.38164e-18 0)
(0.00546226 -0.00175338 -2.43779e-18 -0.00290899 -6.08996e-19 0)
(0.0045742 -0.00136485 -1.86282e-18 -0.00296168 -3.13731e-19 0)
(0.00458808 -0.00125633 0 -0.00199094 0 0)
(0.0038112 -0.000887603 0 -0.00216103 0 0)
(0.00403715 -0.000866057 -5.66513e-19 -0.00161958 -3.53759e-19 0)
(0.00347271 -0.000537244 -1.94891e-18 -0.00176779 -1.08841e-18 0)
(0.00370224 -0.000545435 -1.97761e-18 -0.00153143 -1.18965e-18 0)
(0.00337987 -0.000249475 -1.20823e-19 -0.00161351 -4.58292e-19 0)
(0.00349059 -0.000268884 1.17987e-18 -0.0015374 9.76851e-19 0)
(0.00338141 9.41549e-06 9.32036e-19 -0.00156936 7.69073e-19 0)
(0.00332782 -3.13341e-05 5.21626e-19 -0.00154328 2.36865e-19 0)
(0.00337104 0.000242579 -2.1734e-19 -0.00152865 -1.12707e-19 0)
(0.00318325 0.000168607 -1.49305e-19 -0.00147656 2.9088e-20 0)
(0.00325183 0.000431579 1.27299e-18 -0.00142837 1.17277e-18 0)
(0.00672003 -0.00405725 2.47576e-18 -0.0059464 -1.09009e-18 8.78669e-34)
(0.0061626 -0.00313986 1.35915e-18 -0.00452435 -1.35388e-18 0)
(0.00524252 -0.00276029 2.25328e-19 -0.00310375 7.30955e-19 0)
(0.00439429 -0.00211364 -8.51316e-19 -0.00304872 -2.41057e-20 0)
(0.0040373 -0.00185487 -3.21205e-19 -0.00164148 -9.62853e-20 0)
(0.00310987 -0.0013066 2.62546e-19 -0.00188899 9.28728e-20 0)
(0.00332538 -0.00125489 1.37795e-18 -0.00102539 8.37143e-19 0)
(0.00254543 -0.000852583 1.10256e-18 -0.0013088 9.21981e-19 0)
(0.00307759 -0.00085612 1.66387e-18 -0.0010226 1.58837e-18 0)
(0.00249764 -0.000609945 8.78772e-19 -0.00119661 1.23454e-18 0)
(0.00308428 -0.000573322 2.14003e-18 -0.00119651 2.05492e-18 0)
(0.0026641 -0.00042535 7.76811e-19 -0.00129273 9.36294e-19 0)
(0.00316801 -0.000347996 1.10839e-18 -0.00139043 5.07772e-19 0)
(0.00286183 -0.000237004 1.1567e-18 -0.00144631 8.16335e-19 0)
(0.00324648 -0.000141891 7.47624e-19 -0.00156968 9.09628e-19 0)
(0.00301354 -3.93607e-05 1.07874e-18 -0.001596 1.25894e-18 0)
(0.00329523 4.7121e-05 6.18556e-19 -0.00170417 2.67238e-19 0)
(0.0031363 0.000150175 1.34251e-19 -0.00168489 5.09419e-20 0)
(0.00324674 0.000210858 -9.9711e-19 -0.00171862 -8.27749e-19 0)
(0.00312821 0.000307972 -3.72503e-19 -0.00163124 -3.50707e-19 0)
(0.00391307 -0.00298731 -8.96653e-19 -0.00239139 1.4821e-19 4.68217e-34)
(0.00315458 -0.00193199 1.14479e-18 -0.0019253 3.42359e-19 0)
(0.00258029 -0.0016743 3.17472e-19 -0.000810126 -1.81385e-19 0)
(0.00211374 -0.00113275 -8.20518e-19 -0.000901983 -8.85841e-19 0)
(0.00210739 -0.00108934 -2.95929e-19 -0.000545764 3.01823e-19 0)
(0.00193102 -0.000834051 2.26221e-19 -0.000760385 6.49571e-19 0)
(0.002118 -0.000808162 -2.73987e-19 -0.000789129 -6.47002e-19 0)
(0.00205283 -0.000644117 -5.56107e-19 -0.000836636 -6.09305e-19 0)
(0.0022573 -0.000601654 -1.24132e-18 -0.000900455 -6.83492e-19 0)
(0.00216742 -0.000477168 2.63535e-19 -0.000945655 -7.82766e-21 0)
(0.00238502 -0.000418981 -5.75044e-19 -0.000991013 -7.08e-19 0)
(0.00223482 -0.000325313 -1.34088e-18 -0.00107123 -7.04239e-19 0)
(0.00255033 -0.000249276 -1.34733e-18 -0.00117811 -1.00613e-18 0)
(0.00233168 -0.000207017 -3.54124e-19 -0.00116393 -5.88763e-19 0)
(0.00274816 -0.000106578 2.65977e-20 -0.0013406 2.44216e-19 0)
(0.00251383 -8.79104e-05 -5.95035e-19 -0.00134081 -1.47542e-19 0)
(0.00287137 2.89482e-05 -3.57244e-19 -0.00147992 -5.40831e-19 0)
(0.00264049 3.80892e-05 -2.50572e-19 -0.00145401 -7.11812e-19 0)
(0.00292062 0.000148847 6.73188e-19 -0.00154879 6.57728e-19 0)
(0.00269953 0.000159672 6.50948e-20 -0.00149956 2.31089e-19 0)
(0.00170091 -0.00133148 4.12207e-19 -0.000366501 -2.24719e-19 -5.48532e-35)
(0.00170671 -0.00109234 2.27322e-18 -0.000385017 3.29346e-21 0)
(0.00167307 -0.00104981 1.50776e-18 -0.000384628 7.57725e-19 0)
(0.00175418 -0.000899764 -3.05902e-20 -0.000538243 8.06401e-19 0)
(0.00181999 -0.000868174 -1.14198e-18 -0.000495256 -9.09625e-19 0)
(0.00183066 -0.000720164 -1.08976e-18 -0.000687198 -9.39823e-19 0)
(0.00195226 -0.000686868 -3.11837e-19 -0.000651161 8.58533e-20 0)
(0.0019125 -0.000555111 1.22916e-18 -0.000814307 6.18144e-19 0)
(0.00206571 -0.000526574 6.45169e-19 -0.000814065 5.98036e-19 0)
(0.00200837 -0.000405853 1.49277e-18 -0.000927193 1.28383e-18 0)
(0.00217742 -0.000389542 1.07694e-18 -0.000951603 9.34368e-19 0)
(0.00210344 -0.000275346 7.90989e-19 -0.00101927 9.55745e-19 0)
(0.00226723 -0.000263695 0 -0.00107647 0 0)
(0.00219361 -0.000160185 3.95731e-19 -0.00110936 3.19713e-19 0)
(0.00232782 -0.000142389 2.97888e-20 -0.00118473 2.64922e-19 0)
(0.00225757 -6.4929e-05 2.20728e-19 -0.00118892 2.94791e-19 0)
(0.0023629 -2.95312e-05 5.69183e-19 -0.00126646 3.467e-19 0)
(0.00229838 1.13953e-05 1.89803e-19 -0.00125321 3.78267e-20 0)
(0.00248855 6.99732e-05 1.4682e-18 -0.00137461 1.69986e-18 0)
(0.00239716 7.65258e-05 1.63004e-18 -0.00133398 1.85355e-18 0)
(0.00135768 -0.00122264 4.51663e-19 -0.000177975 -3.04791e-19 -8.68449e-35)
(0.00145171 -0.00100209 -9.01849e-19 -0.000292368 -1.10667e-18 0)
(0.00147845 -0.000954474 5.78747e-19 -0.00034407 3.4071e-19 0)
(0.00152423 -0.000788289 1.99424e-18 -0.000498866 8.46497e-19 0)
(0.00161483 -0.000736753 1.16701e-18 -0.000514847 9.40281e-19 0)
(0.00163358 -0.000600013 6.0304e-19 -0.000663397 1.17494e-18 0)
(0.00175413 -0.00056692 -2.86214e-19 -0.000685648 1.14266e-19 0)
(0.00174569 -0.000450759 -4.85036e-19 -0.000808566 -3.31374e-19 0)
(0.00187941 -0.000435142 -3.19877e-19 -0.000846453 -1.03749e-18 0)
(0.00185324 -0.000330443 -1.2081e-18 -0.000933533 -1.25844e-18 0)
(0.00198503 -0.000327221 -9.18776e-19 -0.000988575 -2.24735e-19 0)
(0.00195383 -0.00023007 0 -0.001038 0 0)
(0.0020747 -0.000234268 -4.35318e-19 -0.00110535 -9.34882e-19 0)
(0.0020469 -0.000141615 -4.24064e-19 -0.00112121 -9.49558e-19 0)
(0.00215179 -0.000152267 9.73099e-20 -0.00119662 5.75023e-19 0)
(0.00212746 -6.71094e-05 2.33313e-18 -0.0011871 2.13028e-18 0)
(0.00222552 -8.3563e-05 1.18812e-18 -0.00126107 8.9819e-19 0)
(0.002197 -9.65856e-06 7.76741e-19 -0.00123412 8.73244e-19 0)
(0.00227738 -2.16159e-05 -6.71978e-19 -0.00131629 -5.84147e-19 0)
(0.0022512 3.24392e-05 -3.36098e-19 -0.00126474 -2.83062e-19 0)
(0.00104019 -0.00112927 -4.44442e-19 7.87752e-05 1.13023e-19 8.81463e-35)
(0.00110428 -0.000850036 -1.45253e-18 -0.000240403 3.15325e-19 0)
(0.0012257 -0.000850159 -2.21765e-18 -0.000283452 -1.31827e-18 0)
(0.00127247 -0.000640235 -2.87524e-18 -0.000477882 -2.25147e-18 0)
(0.001413 -0.000634631 -1.31706e-18 -0.000536018 -1.22291e-18 0)
(0.00143823 -0.000476327 -2.09431e-19 -0.000659493 -1.24362e-18 0)
(0.00158065 -0.000482429 -4.9172e-19 -0.00073764 -3.38998e-19 0)
(0.00158549 -0.000358002 -7.02505e-19 -0.000809706 -2.14668e-19 0)
(0.00172045 -0.000374319 -2.07789e-19 -0.000902075 -2.75378e-19 0)
(0.00171315 -0.00027044 -1.07259e-18 -0.000931723 -9.50673e-19 0)
(0.00183342 -0.00029178 -1.09095e-18 -0.00103515 -9.30707e-19 0)
(0.00182292 -0.000200674 -4.29017e-19 -0.00102727 -6.79716e-19 0)
(0.00192306 -0.000224243 -4.09642e-20 -0.00114256 -3.30769e-19 0)
(0.0019147 -0.000140792 -1.788e-18 -0.00110043 -1.13857e-18 0)
(0.0019958 -0.000167465 -2.25375e-18 -0.00122943 -1.76313e-18 0)
(0.00198902 -8.81791e-05 -1.43018e-18 -0.00115926 -1.50086e-18 0)
(0.00206186 -0.000120836 -1.907e-19 -0.00129818 8.28776e-21 0)
(0.00204905 -4.48401e-05 6.86486e-19 -0.00121038 2.74614e-19 0)
(0.00213028 -8.6102e-05 1.14326e-18 -0.00134664 8.52197e-19 0)
(0.00210161 -1.52879e-05 4.37164e-19 -0.00124669 5.54696e-19 0)
(0.000685545 -0.000894843 8.45357e-19 0.00021118 -5.57858e-19 1.97598e-34)
(0.000766691 -0.000649103 -4.7525e-20 -0.00022679 -1.12079e-18 0)
(0.000974272 -0.00069198 1.01569e-18 -0.000223798 1.46345e-18 0)
(0.00101905 -0.000480804 -4.04362e-19 -0.000481416 1.09139e-18 0)
(0.00121286 -0.000530508 5.32483e-19 -0.000537627 3.25816e-19 0)
(0.00123645 -0.000360386 2.11316e-19 -0.000668238 -1.65174e-19 0)
(0.00140675 -0.000421083 1.16586e-18 -0.000769384 9.30716e-19 0)
(0.00141451 -0.000281354 1.42614e-19 -0.000815228 3.29003e-19 0)
(0.00156234 -0.000345002 6.80821e-19 -0.000940386 1.91265e-19 0)
(0.00155954 -0.000227989 0 -0.000931737 0 0)
(0.00168761 -0.000285589 4.63745e-19 -0.00106553 6.892e-19 0)
(0.00167856 -0.00019004 6.3277e-19 -0.00101985 6.07548e-19 0)
(0.00178549 -0.000233722 1.47556e-18 -0.00115812 1.19333e-18 0)
(0.00177812 -0.000162879 6.34316e-19 -0.00107616 5.93087e-19 0)
(0.00185714 -0.000187195 5.7153e-19 -0.00123103 2.45187e-19 0)
(0.00186718 -0.000144568 -3.81267e-19 -0.00109119 -2.71122e-19 0)
(0.00191249 -0.000151507 -8.26438e-19 -0.00129636 -8.86236e-19 0)
(0.00196201 -0.000134779 -6.34396e-19 -0.00104662 -5.51715e-19 0)
(0.00198848 -0.000141782 -5.14718e-19 -0.00135918 -2.62581e-19 0)
(0.00206773 -0.00012936 6.64008e-19 -0.000939834 2.96546e-19 0)
(0.000400575 -0.000588054 -4.28738e-19 0.000234723 4.95024e-19 -1.25551e-34)
(0.000486399 -0.000405355 1.66443e-18 -0.000258383 1.16982e-18 0)
(0.000751861 -0.000495567 -2.99681e-19 -0.00021469 -5.83311e-19 0)
(0.000795632 -0.000310891 -2.00229e-19 -0.000513532 2.21833e-19 0)
(0.00101592 -0.000416207 -1.2715e-18 -0.000548727 -3.68257e-19 0)
(0.00104159 -0.000252284 1.85877e-19 -0.000693976 -1.85282e-19 0)
(0.00121731 -0.000366765 -2.66805e-19 -0.000786374 -4.93731e-19 0)
(0.00123612 -0.000220749 -6.39968e-19 -0.000825394 -1.30766e-19 0)
(0.0013707 -0.000334085 -6.51836e-19 -0.000953995 -1.50031e-19 0)
(0.0013914 -0.000202296 0 -0.000924595 0 0)
(0.00149105 -0.000308066 -4.22242e-19 -0.001071 -2.90788e-19 0)
(0.00151537 -0.000189051 0 -0.00100795 0 0)
(0.00159094 -0.000282519 8.33001e-20 -0.00115272 3.52492e-19 0)
(0.00161616 -0.000178467 1.16498e-18 -0.00109302 7.46745e-19 0)
(0.00168464 -0.000251251 7.17387e-19 -0.00121517 1.38143e-19 0)
(0.00170978 -0.000172251 -1.47285e-19 -0.00119467 4.85583e-20 0)
(0.00179432 -0.000207208 -1.62332e-19 -0.00128185 4.76879e-20 0)
(0.00182051 -0.000182166 8.50936e-19 -0.00131572 4.75279e-19 0)
(0.00194519 -0.000144491 6.42022e-19 -0.00138379 5.32682e-19 0)
(0.00187857 -0.000216335 1.355e-19 -0.0015474 3.06285e-19 0)
(0.000208177 -0.000256936 3.57912e-19 0.000149012 -4.95574e-19 -1.26225e-34)
(0.00028001 -0.00014673 -3.18172e-19 -0.000347361 -8.9667e-19 0)
(0.000579226 -0.000286171 5.23469e-19 -0.000256535 2.61172e-19 0)
(0.000614549 -0.000138206 6.5795e-19 -0.000574588 1.97206e-20 0)
(0.000841461 -0.000299634 1.08963e-18 -0.00057252 1.34396e-18 0)
(0.000865624 -0.000147266 2.0985e-18 -0.000732934 1.70615e-18 0)
(0.00103895 -0.000315677 2.23788e-18 -0.000791468 1.62304e-18 0)
(0.00105913 -0.000165782 6.15137e-19 -0.000841983 1.06091e-18 0)
(0.00118953 -0.000326631 1.09555e-18 -0.000941198 7.9548e-19 0)
(0.00121408 -0.000184209 1.95425e-19 -0.000915137 3.07041e-19 0)
(0.00130477 -0.000327275 1.06708e-18 -0.00104494 7.76013e-19 0)
(0.00134556 -0.000194786 2.21427e-19 -0.00096416 2.93839e-19 0)
(0.00139316 -0.000311598 -3.24483e-19 -0.00112134 -7.11571e-19 0)
(0.00147097 -0.000185881 -2.40824e-19 -0.00101306 -2.81897e-19 0)
(0.00146408 -0.000266259 -1.53369e-19 -0.00119226 8.24917e-20 0)
(0.00159991 -0.000142802 -4.60106e-19 -0.0011258 -1.6125e-19 0)
(0.00150311 -0.000177476 -1.06655e-18 -0.00130221 -1.0604e-18 0)
(0.00165991 -8.20178e-05 -6.05549e-19 -0.0014356 -8.28116e-19 0)
(0.00137813 -9.05108e-05 1.20196e-19 -0.00154266 2.96594e-19 0)
(0.00184325 -0.000257567 7.51304e-19 -0.00122567 6.06626e-19 0)
(0.000115492 5.50762e-05 0 -3.60888e-05 0 0)
(0.000155678 9.88563e-05 0 -0.000494669 0 0)
(0.000463337 -8.43513e-05 0 -0.000352995 0 0)
(0.000482219 2.3235e-05 -5.74988e-19 -0.000665854 1.19456e-20 0)
(0.000691409 -0.000183962 -6.1286e-19 -0.000617296 1.56014e-20 0)
(0.000716521 -4.94583e-05 6.76897e-19 -0.000780999 -1.76915e-19 0)
(0.000861194 -0.000261243 3.04347e-19 -0.000796111 -4.16653e-19 0)
(0.000895041 -0.000112483 0 -0.000856977 0 0)
(0.000994943 -0.000315413 -3.4011e-19 -0.000913957 1.6915e-19 0)
(0.00103699 -0.000163001 1.35361e-18 -0.000914134 9.24521e-19 0)
(0.00110709 -0.000345821 7.20792e-19 -0.000994229 8.18602e-19 0)
(0.00115441 -0.000198593 2.02833e-19 -0.000973578 7.66083e-19 0)
(0.00120893 -0.000343673 2.50927e-19 -0.00105755 -1.1534e-19 0)
(0.00126057 -0.000208678 -8.12022e-19 -0.00105485 -7.55558e-19 0)
(0.0013024 -0.000291922 4.78172e-19 -0.0011269 5.39753e-19 0)
(0.00135318 -0.000176256 8.94837e-19 -0.00116451 6.68798e-19 0)
(0.00133702 -0.000204102 3.12234e-19 -0.00123626 -1.69086e-19 0)
(0.00135395 -0.000118287 -9.72936e-19 -0.00127727 -6.30944e-19 0)
(0.00116205 -0.000201188 -9.97166e-19 -0.00143393 -6.47804e-19 0)
(0.00159483 -0.000331791 -4.56374e-19 -0.000913269 -3.91038e-19 0)
(0.000114283 0.000314354 9.77286e-20 -0.000297288 -4.77981e-19 -2.14684e-34)
(0.000111467 0.0003079 -8.09813e-19 -0.000688949 -7.61646e-19 0)
(0.000407251 8.95436e-05 -9.45905e-19 -0.000493652 -6.71029e-19 0)
(0.000400487 0.000161657 -8.62586e-19 -0.000784723 -7.31842e-19 0)
(0.000580291 -7.88864e-05 -9.33835e-19 -0.000681229 -1.6692e-19 0)
(0.000596794 3.60736e-05 4.72604e-19 -0.000846052 -7.22881e-22 0)
(0.000710158 -0.000203819 9.68002e-19 -0.000806012 6.33543e-19 0)
(0.000746053 -6.33795e-05 -2.44175e-20 -0.000883265 6.1064e-19 0)
(0.00081803 -0.000288441 -1.04607e-18 -0.00088772 -9.88828e-19 0)
(0.000868885 -0.000137795 -1.89509e-19 -0.000911494 -7.96539e-19 0)
(0.000913583 -0.00033584 -2.48511e-19 -0.000946357 1.48259e-19 0)
(0.000977712 -0.000185719 8.70807e-19 -0.000944667 5.95106e-19 0)
(0.00100437 -0.000341543 5.76242e-19 -0.000996993 3.86694e-19 0)
(0.00108105 -0.000197804 4.43854e-20 -0.000993098 4.23904e-19 0)
(0.00108779 -0.000302127 -1.34084e-18 -0.00105159 -1.05969e-18 0)
(0.00115891 -0.000171613 -1.55793e-18 -0.00106179 -1.23115e-18 0)
(0.0011112 -0.000253528 -1.08598e-19 -0.00112986 8.58373e-20 0)
(0.0011223 -0.000160727 -2.80366e-19 -0.00117075 -1.75969e-19 0)
(0.000957498 -0.000288696 -4.09596e-19 -0.00128211 -4.62818e-19 0)
(0.00130512 -0.000403274 -2.00837e-19 -0.000832547 6.56909e-20 0)
(0.000185691 0.000499419 0 -0.000605651 0 0)
(0.000133713 0.000462394 0 -0.000914288 0 0)
(0.000401793 0.000223188 7.87996e-19 -0.000666481 1.4095e-18 0)
(0.000364341 0.000267434 1.11009e-18 -0.000921465 1.36463e-18 0)
(0.000504239 1.18282e-05 8.51093e-19 -0.000762634 5.74442e-19 0)
(0.000509993 0.000106897 7.79298e-19 -0.000917998 6.15148e-19 0)
(0.000582878 -0.000142377 4.30407e-19 -0.000823354 -2.03047e-20 0)
(0.00062274 -1.49952e-05 -6.57186e-20 -0.000907833 1.56459e-19 0)
(0.000656309 -0.00024635 -6.24646e-19 -0.000861164 -6.97447e-19 0)
(0.000719685 -0.000103478 -1.19913e-18 -0.000901363 -1.04959e-18 0)
(0.000728836 -0.000307642 -1.27652e-18 -0.000890226 -9.67925e-19 0)
(0.000807721 -0.000160668 -9.65079e-19 -0.000907937 -7.22899e-19 0)
(0.000804518 -0.000326919 -1.64457e-18 -0.000920548 -9.64713e-19 0)
(0.0008909 -0.000182345 -2.71244e-19 -0.000932997 -6.00038e-19 0)
(0.000879696 -0.000306493 9.85713e-19 -0.000959729 1.12032e-18 0)
(0.000952756 -0.000173862 1.61012e-18 -0.00098277 1.25479e-18 0)
(0.000904584 -0.000277449 1.26953e-18 -0.00102596 8.10679e-19 0)
(0.000916201 -0.000183408 1.17369e-18 -0.00108357 8.45588e-19 0)
(0.000752673 -0.000318357 1.10015e-18 -0.00116295 5.91187e-19 0)
(0.00106357 -0.000412774 6.88579e-19 -0.000745397 5.35713e-19 0)
(0.000304035 0.000598951 -6.79404e-20 -0.000930322 4.90074e-19 -1.67134e-34)
(0.000204548 0.000552208 2.55988e-19 -0.00114876 9.43785e-19 0)
(0.000433641 0.000307881 -1.05083e-18 -0.000853014 -1.17458e-18 0)
(0.000363989 0.000334423 -9.86607e-19 -0.00106415 -1.03357e-18 0)
(0.00045883 8.11235e-05 -1.05928e-18 -0.000852351 -4.45419e-19 0)
(0.000450968 0.000158615 -3.89791e-19 -0.000993859 -3.93132e-19 0)
(0.000481474 -8.36393e-05 -8.35059e-19 -0.000845584 -8.11597e-19 0)
(0.000521282 2.76323e-05 -4.67212e-19 -0.000935992 -8.61555e-19 0)
(0.000516792 -0.000195652 3.92372e-19 -0.000837282 4.43897e-19 0)
(0.000587402 -6.67867e-05 3.703e-19 -0.000894747 4.47507e-19 0)
(0.000563573 -0.000265315 9.37827e-19 -0.000834857 6.65739e-19 0)
(0.000651667 -0.000129776 6.62593e-19 -0.000874543 4.24309e-19 0)
(0.000623095 -0.000295876 8.50256e-19 -0.000843794 2.68579e-19 0)
(0.000716294 -0.00016101 -2.34319e-19 -0.00087912 -1.15074e-19 0)
(0.000691295 -0.000290096 1.33153e-19 -0.000869742 2.37336e-19 0)
(0.000766456 -0.000166804 6.33422e-19 -0.00091554 4.03517e-19 0)
(0.000715441 -0.00027356 4.39705e-19 -0.00092718 2.69431e-19 0)
(0.000726281 -0.000185273 1.32419e-19 -0.00100424 2.36401e-19 0)
(0.000559703 -0.000312283 2.26427e-19 -0.00104976 1.31824e-19 0)
(0.00083187 -0.000385684 -2.97554e-19 -0.000660002 -1.71024e-20 0)
(0.00044283 0.000611228 7.15719e-20 -0.00123989 -3.74285e-19 -9.86966e-35)
(0.000303779 0.00057456 -6.91874e-20 -0.00137107 -4.68731e-19 0)
(0.000487977 0.000339399 2.22676e-19 -0.00103614 1.53303e-19 0)
(0.000388128 0.000359546 -2.68012e-21 -0.00120103 1.68619e-19 0)
(0.000438396 0.00012386 -3.48882e-19 -0.000943081 -3.01158e-19 0)
(0.000415299 0.000187626 -5.18187e-19 -0.00106796 -6.18436e-19 0)
(0.000406944 -3.32901e-05 5.76066e-19 -0.000872352 5.45258e-19 0)
(0.000442664 6.0497e-05 5.44019e-19 -0.00096587 4.2279e-19 0)
(0.00040548 -0.000141931 -7.08514e-20 -0.00082097 -3.92298e-19 0)
(0.000477722 -3.17049e-05 -5.70979e-19 -0.000892658 -2.78493e-19 0)
(0.000427046 -0.000213068 -1.20935e-18 -0.000789513 -6.68165e-19 0)
(0.000518432 -9.56815e-05 -4.34569e-19 -0.00084815 -5.90147e-19 0)
(0.000469713 -0.0002502 7.85646e-19 -0.00077906 8.44195e-19 0)
(0.000565358 -0.000132429 7.80755e-19 -0.00083408 7.85618e-19 0)
(0.00052784 -0.000255293 -4.08777e-19 -0.0007924 -5.89219e-19 0)
(0.000603725 -0.000146669 -8.35276e-19 -0.000855735 -6.36921e-19 0)
(0.000546363 -0.000248209 -1.23297e-19 -0.000838657 1.71787e-19 0)
(0.000556873 -0.000167851 3.80807e-19 -0.000927134 1.87384e-19 0)
(0.000387066 -0.000281213 4.31197e-19 -0.000940615 1.64953e-19 0)
(0.000620614 -0.0003329 5.94434e-20 -0.000580616 1.15818e-20 0)
(0.000578904 0.000544293 6.28533e-20 -0.00150731 -7.70896e-19 -4.32315e-34)
(0.000410746 0.000533103 -6.25692e-19 -0.00156474 -1.1711e-18 0)
(0.000550211 0.000318645 -3.68323e-19 -0.00119958 -2.86693e-19 0)
(0.000425879 0.000343033 -1.20546e-19 -0.00131918 -4.78208e-19 0)
(0.000434416 0.000137508 -1.2217e-20 -0.00102863 -1.43972e-19 0)
(0.000397925 0.000192453 -2.88826e-19 -0.00113175 -1.02679e-20 0)
(0.00035533 4.57886e-06 -9.26831e-19 -0.000904706 -6.77253e-19 0)
(0.000386449 8.13267e-05 -8.23095e-19 -0.000992998 -8.30907e-19 0)
(0.000321853 -9.01831e-05 -1.56466e-20 -0.000817757 1.05988e-19 0)
(0.000393705 -7.76479e-07 0 -0.000894551 0 0)
(0.000321287 -0.000156179 4.50307e-19 -0.000761273 3.66361e-19 0)
(0.000412834 -6.05668e-05 2.67313e-19 -0.000830811 2.1325e-19 0)
(0.000348236 -0.000195402 1.30408e-19 -0.000732225 9.57596e-20 0)
(0.000442292 -9.86161e-05 4.28506e-19 -0.000800092 2.1628e-19 0)
(0.00039469 -0.000208409 9.26798e-19 -0.00073067 5.03005e-19 0)
(0.000466662 -0.00011699 6.83256e-19 -0.000804287 4.69108e-19 0)
(0.000404457 -0.000208704 5.984e-19 -0.00076031 3.49242e-19 0)
(0.000411226 -0.00013632 6.86919e-19 -0.000851596 4.80501e-19 0)
(0.000243432 -0.000232953 5.00805e-19 -0.000834437 2.10816e-19 0)
(0.000441213 -0.00026104 3.65716e-19 -0.00050532 2.74564e-19 0)
(0.000693152 0.000411574 -2.1166e-20 -0.00171479 8.44424e-19 -3.35445e-34)
(0.000504649 0.000437321 3.00646e-19 -0.00172573 8.74953e-19 0)
(0.000602275 0.000250552 4.89462e-19 -0.00133155 8.34399e-19 0)
(0.000465651 0.000288871 3.66765e-19 -0.00140832 6.71996e-19 0)
(0.000434324 0.000123163 2.5714e-19 -0.00110387 4.17149e-20 0)
(0.000391652 0.000174011 2.67996e-19 -0.00117896 2.63357e-19 0)
(0.000320385 2.82908e-05 2.01946e-19 -0.000942103 2.02662e-19 0)
(0.00035003 8.81236e-05 1.03471e-19 -0.00101562 2.76011e-19 0)
(0.00026311 -4.40834e-05 -5.44319e-19 -0.000828774 -5.18795e-19 0)
(0.000335437 2.17549e-05 -3.7297e-19 -0.000900429 -4.01702e-19 0)
(0.000244661 -9.889e-05 -5.89638e-19 -0.000751268 -3.15366e-19 0)
(0.000335742 -2.9944e-05 -1.89918e-19 -0.000823914 -1.81109e-19 0)
(0.000258041 -0.000135967 -4.44117e-20 -0.000703564 1.28347e-19 0)
(0.000347088 -6.6343e-05 2.93695e-19 -0.000781407 2.37573e-19 0)
(0.000293614 -0.00015459 -1.95492e-19 -0.000682545 -2.46848e-19 0)
(0.000353633 -8.63441e-05 -1.97781e-19 -0.000768597 -1.63621e-19 0)
(0.000295586 -0.000161458 -4.52294e-19 -0.000685789 -2.65752e-19 0)
(0.000287918 -0.000100804 -2.18936e-19 -0.000783717 -1.26069e-19 0)
(0.000141014 -0.000176493 1.41953e-20 -0.000718163 2.14743e-19 0)
(0.000293463 -0.000182732 -3.79386e-20 -0.000437977 -2.43259e-20 0)
(0.000768697 0.000226596 1.43938e-20 -0.00185558 -2.07287e-19 5.80363e-36)
(0.00059092 0.000312152 0 -0.00182221 0 0)
(0.000632169 0.00014867 -2.36729e-19 -0.00141883 -6.43931e-19 0)
(0.000497712 0.000212352 -1.29574e-19 -0.00148439 -6.83262e-19 0)
(0.000444991 8.95301e-05 7.85074e-20 -0.0011526 1.30812e-19 0)
(0.000394505 0.000130938 -1.30975e-20 -0.00123161 1.50502e-20 0)
(0.00031558 3.84909e-05 2.33724e-19 -0.000968745 3.16681e-19 0)
(0.00033117 6.69026e-05 2.38325e-19 -0.00104759 4.46324e-19 0)
(0.000239068 -6.77369e-06 2.84413e-19 -0.000841448 3.7094e-19 0)
(0.000295163 1.6756e-05 1.17014e-19 -0.000913149 1.78463e-19 0)
(0.000201388 -4.42144e-05 1.40345e-19 -0.000752163 9.61503e-20 0)
(0.00027686 -2.1693e-05 7.06397e-20 -0.000818513 1.02863e-19 0)
(0.000198487 -7.30091e-05 -3.37639e-19 -0.00069063 -3.53528e-19 0)
(0.000272493 -4.78452e-05 -2.53909e-19 -0.000758858 -3.17545e-19 0)
(0.000219931 -9.33152e-05 1.2266e-21 -0.000647945 3.17294e-20 0)
(0.000262965 -5.9993e-05 2.81735e-21 -0.000728077 2.4371e-20 0)
(0.000213477 -0.000107334 -6.50377e-20 -0.00061299 -5.77545e-20 0)
(0.000185797 -6.31281e-05 -6.07616e-20 -0.000718057 -1.02881e-19 0)
(8.01168e-05 -0.00011904 -2.67366e-19 -0.000582358 -2.28027e-19 0)
(0.000149898 -0.00010913 2.11258e-20 -0.000426741 1.80529e-20 0)
(0.00083598 8.60925e-06 -2.22445e-22 -0.00187529 -1.16326e-22 -3.50765e-40)
(0.000627324 0.000159174 -1.52113e-19 -0.00188202 3.28631e-19 0)
(0.000753 4.6015e-05 -7.72455e-20 -0.00138288 3.73997e-19 0)
(0.000461507 0.000101807 1.16377e-19 -0.00157882 1.9127e-19 0)
(0.000534442 4.37337e-05 4.32037e-20 -0.00112799 -2.16074e-19 0)
(0.000338244 5.35225e-05 2.88486e-20 -0.00130384 -2.11142e-19 0)
(0.000369319 2.93888e-05 -8.46605e-20 -0.000959558 -3.35354e-19 0)
(0.000265265 1.89551e-05 -1.30713e-19 -0.00108657 -4.24156e-19 0)
(0.000261492 1.45014e-05 -2.25532e-20 -0.000840634 -8.14047e-20 0)
(0.000219913 -5.90415e-06 -9.63304e-23 -0.000929187 -1.61283e-19 0)
(0.00019829 1.97974e-06 -9.83771e-20 -0.000754371 -2.61576e-19 0)
(0.000190931 -2.59458e-05 -9.27908e-20 -0.000825223 -2.9204e-19 0)
(0.000175055 -1.09867e-05 -3.57439e-20 -0.00068985 -7.02706e-20 0)
(0.000174121 -4.07164e-05 -4.24039e-20 -0.000760103 -2.76733e-19 0)
(0.00018095 -2.66681e-05 -1.27675e-19 -0.000631851 -2.70727e-19 0)
(0.000155606 -4.20425e-05 -8.31003e-20 -0.000705684 -3.6967e-19 0)
(0.000164373 -4.14602e-05 -1.31893e-19 -0.000558313 -2.35743e-19 0)
(9.51336e-05 -1.89259e-05 -9.10393e-20 -0.000622859 -3.19505e-19 0)
(4.31909e-05 -4.55085e-05 -1.08835e-19 -0.000451867 -1.5061e-19 0)
(4.30427e-05 -1.07204e-05 -3.62801e-20 -0.000372305 -1.13127e-19 0)
(-1.32841e-05 -2.35135e-05 -2.72787e-21 5.38559e-05 -5.20434e-21 0)
(5.80799e-05 -0.000101674 -2.20416e-20 4.7063e-05 3.60067e-21 0)
(9.13869e-05 -0.000160713 6.90816e-20 4.06567e-05 -5.81392e-22 0)
(0.000143851 -0.000214586 -1.45949e-20 5.39956e-05 -1.12598e-20 0)
(0.000180257 -0.000287852 -1.2272e-20 -3.3266e-05 -3.90188e-20 0)
(0.000269644 -0.00033098 3.77882e-20 2.97797e-05 -3.45884e-20 0)
(0.000350841 -0.000419029 -3.41777e-20 -0.00010453 -1.26264e-20 0)
(0.000417546 -0.000453991 1.59354e-19 -3.3676e-05 -5.02933e-21 0)
(0.000573621 -0.000532716 -6.09209e-20 -0.000197749 -2.9482e-21 0)
(0.000588677 -0.000570775 -3.1046e-19 -0.000130044 -2.73096e-20 0)
(0.000826097 -0.000615145 2.32956e-19 -0.000317056 -6.43147e-20 0)
(0.000789591 -0.000665986 2.0537e-19 -0.00024748 -1.3439e-19 0)
(0.00109624 -0.000658323 1.32768e-19 -0.000455751 -7.56171e-20 0)
(0.00102317 -0.000732597 8.59832e-20 -0.00037443 -1.56671e-19 0)
(0.00137268 -0.000654628 9.71509e-20 -0.000599691 4.31106e-20 0)
(0.00127299 -0.000760687 2.08006e-19 -0.000501702 -3.45261e-20 0)
(0.00163949 -0.000599355 -2.04446e-19 -0.00071595 5.9993e-20 0)
(0.00142332 -0.00069103 -7.28956e-20 -0.00069374 1.37131e-19 0)
(0.00185167 -0.000504529 4.06564e-19 -0.000780114 1.9869e-20 0)
(0.00166019 -0.000590987 1.92553e-19 -0.0010317 -1.60209e-19 0)
(-0.000100984 -1.79162e-05 -9.43522e-21 4.84067e-07 -5.19474e-22 0)
(3.99764e-05 -9.82461e-05 -4.29727e-20 1.10924e-05 8.26613e-21 0)
(1.81792e-06 -0.000163701 3.09508e-20 2.39817e-05 -2.38296e-21 0)
(0.000123858 -0.000221923 -2.35572e-20 -2.45498e-05 -6.01327e-21 0)
(0.000106851 -0.000301199 7.13738e-20 -2.26467e-05 3.207e-21 0)
(0.000233901 -0.000341975 -3.53229e-20 -8.47074e-05 -1.97497e-20 0)
(0.000251453 -0.000434504 -6.01028e-20 -8.89519e-05 -4.90211e-21 0)
(0.000367819 -0.000452448 0 -0.000168512 0 0)
(0.000441224 -0.000553827 8.74021e-20 -0.000168942 1.40906e-20 0)
(0.0005221 -0.000547263 9.78501e-20 -0.000276379 9.41127e-21 0)
(0.000663404 -0.000647332 -2.16696e-19 -0.000266636 -3.03516e-20 0)
(0.000691787 -0.000616997 -1.0743e-19 -0.000404215 1.47903e-20 0)
(0.000902563 -0.000708853 2.46251e-19 -0.000380238 6.83837e-20 0)
(0.000861875 -0.000650528 -3.23639e-20 -0.00055416 -7.20462e-21 0)
(0.00115028 -0.000737105 -1.418e-19 -0.000501005 -5.00247e-20 0)
(0.00102761 -0.000646686 -2.27227e-19 -0.000715544 -1.29977e-19 0)
(0.00140761 -0.000732381 -1.57645e-19 -0.00061731 -6.64982e-20 0)
(0.00125797 -0.000634789 1.46827e-19 -0.000814771 8.85586e-20 0)
(0.00160584 -0.00069385 2.87414e-19 -0.000761351 1.57802e-19 0)
(0.00149789 -0.00055977 2.147e-19 -0.00093326 1.43264e-19 0)
(3.44583e-05 -2.98649e-05 -4.93564e-21 -7.42045e-05 -9.31047e-21 0)
(0.000156918 -8.62752e-05 -2.69484e-21 -5.59419e-05 1.2944e-21 0)
(0.000114346 -0.000151763 -7.66251e-21 -7.584e-05 -6.40778e-21 0)
(0.000242413 -0.000203465 5.6646e-20 -0.000102488 1.29162e-20 0)
(0.000222152 -0.000270771 2.35343e-20 -0.000119711 -5.25895e-21 0)
(0.000346506 -0.000311407 -4.88688e-20 -0.000173453 -1.45561e-20 0)
(0.000356492 -0.000377905 -1.50333e-20 -0.000183873 1.14146e-20 0)
(0.00046941 -0.000402622 1.03265e-19 -0.000257264 3.01473e-20 0)
(0.000516144 -0.000466838 0 -0.00025856 0 0)
(0.000606279 -0.00047248 -8.4089e-20 -0.000355936 -2.57299e-20 0)
(0.000698525 -0.000532569 -1.59869e-19 -0.000340771 -3.80682e-20 0)