/*--------------------------------*- C++ -*----------------------------------*\
| =========                 |                                                 |
| \\      /  F ield         | OpenFOAM: The Open Source CFD Toolbox           |
|  \\    /   O peration     | Version:  v2012                                 |
|   \\  /    A nd           | Website:  www.openfoam.com                      |
|    \\/     M anipulation  |                                                 |
\*---------------------------------------------------------------------------*/
FoamFile
{
    version     2.0;
    format      ascii;
    class       volSymmTensorField;
    location    "10";
    object      epsilon;
}
// * * * * * * * * * * * * * * * * * * * * * * * * * * * * * * * * * * * * * //

dimensions      [0 0 0 0 0 0 0];


internalField   nonuniform List<symmTensor> 
32000
(
(0.0150802 -0.000349757 -9.59206e-18 -0.0128291 8.53233e-19 5.13606e-33)
(0.0135349 -0.00027625 -1.66589e-17 -0.0109712 3.9421e-18 0)
(0.0141749 -0.000248908 0 -0.0114975 0 0)
(0.0133083 -0.000307978 5.44616e-18 -0.0108799 5.37105e-18 0)
(0.0136955 -0.000201336 2.58575e-17 -0.0110621 -4.37892e-18 0)
(0.0131411 -0.000306432 1.79684e-17 -0.0106763 -2.72568e-18 0)
(0.0133607 -0.000181 2.08847e-17 -0.0106911 5.94015e-18 0)
(0.0129661 -0.000295132 9.56148e-18 -0.0104141 -4.90692e-18 0)
(0.0130849 -0.000173342 0 -0.0103776 0 0)
(0.0127751 -0.000282503 -5.98117e-19 -0.0101511 3.54324e-18 0)
(0.0128302 -0.00017116 1.46592e-17 -0.0100837 5.6224e-19 0)
(0.0125641 -0.000269677 3.44448e-18 -0.00987491 -5.7579e-18 0)
(0.0125781 -0.000171569 9.10221e-18 -0.00978694 -4.18774e-18 0)
(0.0123339 -0.000256506 8.05087e-18 -0.00958382 2.35211e-18 0)
(0.0123193 -0.000173005 1.02787e-17 -0.00948144 9.14514e-18 0)
(0.0120865 -0.000243486 -1.00474e-17 -0.00927833 -8.69795e-18 0)
(0.0120504 -0.000174607 -3.59131e-17 -0.00916615 2.5674e-18 0)
(0.0118252 -0.000230181 -3.00412e-17 -0.00895973 4.25186e-18 0)
(0.0117709 -0.000175878 -1.82441e-17 -0.00884151 -4.80709e-18 0)
(0.0115523 -0.000216816 -1.30516e-17 -0.0086316 -3.76385e-19 0)
(0.0114823 -0.000176526 -4.84106e-18 -0.00850801 -3.9982e-18 0)
(0.0112702 -0.000203255 -4.71666e-18 -0.00829615 -3.80125e-18 0)
(0.0111858 -0.000176526 -1.25624e-17 -0.0081677 -6.29566e-19 0)
(0.0109803 -0.000190429 -7.72351e-18 -0.00795449 3.18446e-18 0)
(0.0108828 -0.000176022 0 -0.00782321 0 0)
(0.0106856 -0.000177295 -9.04836e-18 -0.0076079 -4.34157e-18 0)
(0.0105754 -0.000175061 -1.91105e-17 -0.00747618 2.16683e-18 0)
(0.010387 -0.000164574 -1.44141e-17 -0.00726033 3.16317e-18 0)
(0.0102657 -0.000173354 -4.37745e-18 -0.00712731 -3.23875e-18 0)
(0.0100863 -0.000151971 0 -0.00691299 0 0)
(0.00995452 -0.000171263 6.78707e-18 -0.00677797 -2.43784e-18 0)
(0.00978331 -0.000139885 1.50406e-17 -0.00656451 5.54697e-18 0)
(0.009643 -0.000169048 1.89228e-17 -0.00643086 6.35686e-18 0)
(0.00948018 -0.000128129 2.3542e-18 -0.00621869 -6.97636e-18 0)
(0.00933242 -0.000166473 -8.01023e-18 -0.00608546 -5.39707e-18 0)
(0.0091781 -0.00011643 1.38512e-19 -0.00587663 1.89327e-18 0)
(0.00902274 -0.000163634 3.87984e-18 -0.00574198 2.52664e-18 0)
(0.00887624 -0.000104896 0 -0.0055357 0 0)
(0.00871433 -0.000160865 -5.78665e-18 -0.00540301 1.79246e-18 0)
(0.00857544 -9.34251e-05 -9.17942e-18 -0.00519922 1.13518e-18 0)
(0.00840773 -0.000157855 5.546e-18 -0.00506726 -1.64569e-18 0)
(0.00827657 -8.19306e-05 5.50588e-18 -0.00486789 -1.57457e-18 0)
(0.00810269 -0.000154576 -5.30868e-18 -0.00473482 1.50326e-18 0)
(0.00797917 -6.98729e-05 -1.20529e-17 -0.0045386 -2.4668e-18 0)
(0.00779929 -0.000151498 -1.69076e-17 -0.0044083 -1.03774e-18 0)
(0.00768337 -5.77835e-05 -1.66264e-17 -0.00421588 -1.04302e-18 0)
(0.00749746 -0.000148115 -1.13534e-17 -0.00408533 -2.24046e-18 0)
(0.0073897 -4.55799e-05 -4.82282e-18 -0.0038983 1.14269e-18 0)
(0.00719762 -0.00014432 0 -0.00376896 0 0)
(0.00709913 -3.23009e-05 2.92933e-19 -0.00358587 1.10594e-18 0)
(0.00690054 -0.000140236 1.18019e-17 -0.00346066 -5.21691e-19 0)
(0.00681182 -1.89104e-05 8.77863e-18 -0.00328335 -1.76454e-18 0)
(0.00660696 -0.000135351 -4.18144e-18 -0.00315882 8.75815e-19 0)
(0.00652848 -4.89556e-06 -9.43334e-18 -0.00298793 -9.02905e-19 0)
(0.00631822 -0.000130102 -1.07041e-17 -0.00286916 3.33568e-19 0)
(0.00625075 9.18819e-06 -3.26215e-18 -0.00270511 1.99758e-18 0)
(0.00603562 -0.000124089 7.53537e-18 -0.00259023 -1.33612e-18 0)
(0.00598009 2.34465e-05 5.66019e-18 -0.00243522 -6.73094e-19 0)
(0.00576092 -0.000117077 2.52395e-18 -0.00232635 9.76581e-19 0)
(0.00571821 3.81082e-05 3.26477e-19 -0.00217996 6.58438e-19 0)
(0.00549628 -0.000109209 5.79523e-18 -0.00208015 3.84479e-19 0)
(0.00546694 5.22039e-05 1.08655e-18 -0.00194413 -1.23169e-18 0)
(0.00524393 -0.000100054 -8.72001e-18 -0.00185121 4.56705e-20 0)
(0.00522803 6.63186e-05 -7.14679e-18 -0.00172577 -4.92371e-19 0)
(0.00500598 -9.04456e-05 -7.43017e-18 -0.00164453 -1.04833e-18 0)
(0.00500342 7.94222e-05 -9.67049e-19 -0.00153118 9.26171e-19 0)
(0.00478407 -7.98327e-05 7.88463e-18 -0.00145855 4.61718e-20 0)
(0.00479415 9.18375e-05 2.78768e-18 -0.00135774 -3.73468e-19 0)
(0.00457971 -6.86239e-05 4.75534e-18 -0.00129646 3.18462e-19 0)
(0.00460157 0.000103314 3.44254e-18 -0.00120907 6.3236e-19 0)
(0.00439285 -5.73076e-05 6.45083e-18 -0.00115685 8.05587e-19 0)
(0.0044256 0.000112923 7.66783e-18 -0.00108239 9.27791e-19 0)
(0.00422475 -4.52656e-05 9.39716e-18 -0.00104246 -3.55646e-20 0)
(0.00426807 0.000121833 1.1646e-17 -0.000975791 1.22134e-18 0)
(0.00407401 -3.43399e-05 5.26265e-18 -0.000943878 1.24307e-18 0)
(0.00412571 0.000131177 -2.97938e-19 -0.000890451 -2.71551e-19 0)
(0.00393972 -2.58618e-05 -1.68656e-18 -0.000883978 -3.84931e-19 0)
(0.00399602 0.000136893 1.36745e-18 -0.000835767 1.87681e-19 0)
(0.00382094 -2.45522e-05 -2.25874e-18 -0.000860925 1.34349e-19 0)
(0.00385959 0.000146922 -2.95401e-18 -0.00083965 -2.38058e-19 0)
(0.0129338 -0.00066052 3.40428e-18 -0.0109308 -1.92912e-18 1.23055e-32)
(0.0135285 -0.00078016 1.02001e-17 -0.0107895 -5.81215e-18 0)
(0.0131827 -0.000642632 9.93225e-18 -0.0107762 -5.58878e-18 0)
(0.0133912 -0.000781929 1.45913e-17 -0.0107608 3.27461e-18 0)
(0.0131493 -0.000634823 8.11987e-18 -0.010748 2.58794e-18 0)
(0.0132252 -0.000770294 9.82887e-18 -0.0105854 -5.46695e-18 0)
(0.0130101 -0.000626554 -9.57572e-18 -0.0105447 5.0786e-18 0)
(0.01304 -0.000750493 -9.61391e-18 -0.0103397 5.2048e-18 0)
(0.0128204 -0.00061933 3.40409e-18 -0.0102962 -6.05329e-18 0)
(0.0128374 -0.000728103 8.81377e-18 -0.0100808 -1.40046e-18 0)
(0.0125999 -0.000611811 1.77352e-17 -0.0100237 -5.54805e-18 0)
(0.0126161 -0.000704506 2.3114e-17 -0.00980486 -1.39214e-18 0)
(0.012358 -0.000603263 8.06339e-18 -0.00973112 2.64742e-18 0)
(0.0123777 -0.000680319 1.41304e-17 -0.00951244 -2.75188e-20 0)
(0.0121008 -0.000593543 5.16535e-18 -0.00942409 4.47017e-18 0)
(0.012125 -0.000655579 5.44804e-18 -0.00920732 1.06661e-18 0)
(0.0118314 -0.00058279 5.31128e-18 -0.00910562 1.06695e-18 0)
(0.0118598 -0.000630493 0 -0.00889069 0 0)
(0.0115518 -0.000571113 0 -0.00877807 0 0)
(0.0115841 -0.00060472 1.51288e-19 -0.00856518 -2.90969e-18 0)
(0.0112635 -0.000558236 -2.05539e-17 -0.00844298 2.8572e-18 0)
(0.0112993 -0.000578908 -1.56205e-17 -0.00823225 1.29405e-18 0)
(0.0109692 -0.00054439 -9.60357e-18 -0.00810205 -7.52602e-18 0)
(0.0110084 -0.000552778 4.76836e-18 -0.00789484 3.57811e-18 0)
(0.0106702 -0.000529665 7.35853e-18 -0.00775703 -2.79224e-19 0)
(0.0107121 -0.000526539 7.36968e-18 -0.00755306 -2.96187e-18 0)
(0.0103674 -0.000514466 -2.5685e-18 -0.0074098 3.61518e-18 0)
(0.0104114 -0.000499949 -7.20843e-18 -0.00720956 3.57738e-19 0)
(0.0100616 -0.000498527 9.07834e-18 -0.00706095 -8.32552e-18 0)
(0.0101072 -0.000473833 1.4e-17 -0.00686477 -5.48181e-19 0)
(0.00975512 -0.000482145 1.1094e-17 -0.0067118 2.98683e-18 0)
(0.00980221 -0.000448086 2.66784e-18 -0.00652045 -9.91314e-19 0)
(0.00944831 -0.0004655 8.20926e-18 -0.00636314 3.64543e-18 0)
(0.00949642 -0.000421587 -3.96116e-18 -0.00617723 -7.61529e-19 0)
(0.0091404 -0.000448462 -9.82757e-18 -0.00601615 1.26141e-18 0)
(0.00918832 -0.000395539 -2.56343e-18 -0.00583575 7.86204e-19 0)
(0.00883329 -0.000431054 -9.76186e-18 -0.00567038 -7.6481e-19 0)
(0.00888045 -0.000369708 -1.89521e-18 -0.00549652 4.21215e-18 0)
(0.00852744 -0.000413206 1.14199e-17 -0.00532664 -1.49915e-18 0)
(0.00857336 -0.000342666 1.12045e-17 -0.00515978 -3.1492e-18 0)
(0.00822185 -0.000394936 0 -0.00498692 0 0)
(0.00826537 -0.000315627 3.70163e-18 -0.00482732 2.17064e-18 0)
(0.00791753 -0.000376018 8.67423e-18 -0.00464924 8.02959e-19 0)
(0.00795806 -0.000287981 5.50705e-18 -0.00449793 1.81659e-19 0)
(0.00761483 -0.000356353 3.5029e-18 -0.00431592 1.96184e-18 0)
(0.00765193 -0.000258914 -4.05303e-19 -0.00417301 -1.30703e-18 0)
(0.00731429 -0.000335729 1.20836e-18 -0.00398938 -2.82021e-18 0)
(0.00734697 -0.000229226 5.50113e-18 -0.00385546 1.48922e-18 0)
(0.00701679 -0.000313626 1.68319e-17 -0.00366655 3.17563e-19 0)
(0.00704444 -0.000197814 8.20157e-18 -0.0035427 -2.29851e-18 0)
(0.00672307 -0.000290425 -1.01417e-18 -0.0033541 2.27706e-18 0)
(0.00674506 -0.000165622 -3.7624e-18 -0.00323971 1.62214e-18 0)
(0.00643471 -0.00026582 8.37716e-18 -0.00305086 -1.89074e-19 0)
(0.00645124 -0.000132506 7.99103e-18 -0.00294736 -9.63308e-19 0)
(0.00615319 -0.000239536 1.02821e-18 -0.00275938 1.36428e-18 0)
(0.00616463 -9.78519e-05 -3.33222e-18 -0.00266689 1.17739e-18 0)
(0.00588014 -0.000211946 5.33585e-18 -0.00248444 -3.36096e-19 0)
(0.00588691 -6.32922e-05 1.25883e-17 -0.00240284 2.00027e-18 0)
(0.00561826 -0.000182318 1.3241e-17 -0.00222399 1.1076e-18 0)
(0.00562083 -2.76468e-05 1.32649e-17 -0.00215393 1.4292e-18 0)
(0.00536875 -0.000151964 1.86528e-18 -0.00198493 2.21704e-18 0)
(0.00536797 7.1255e-06 -6.14822e-18 -0.00192539 -1.62979e-18 0)
(0.00513386 -0.000120426 -4.01591e-18 -0.00176519 -1.05452e-18 0)
(0.00513072 4.16273e-05 -4.98508e-18 -0.00171696 -4.97955e-19 0)
(0.00491472 -8.84473e-05 0 -0.00156856 0 0)
(0.00491028 7.47869e-05 8.58378e-19 -0.00153111 9.66831e-19 0)
(0.00471257 -5.64055e-05 7.4883e-18 -0.00139424 6.97635e-19 0)
(0.004708 0.000106217 9.24358e-18 -0.00136683 1.37901e-18 0)
(0.00452855 -2.45457e-05 8.86305e-19 -0.00124305 8.04544e-19 0)
(0.00452479 0.000136086 -4.47184e-18 -0.00122645 -1.9985e-18 0)
(0.00436311 6.09798e-06 -7.95462e-18 -0.00111583 -1.67006e-18 0)
(0.00436074 0.000163007 -7.1151e-18 -0.00110767 -1.23574e-18 0)
(0.0042162 3.55408e-05 -3.41835e-18 -0.00100978 -9.48504e-19 0)
(0.0042157 0.000188073 3.69677e-19 -0.00100789 3.31329e-19 0)
(0.00408601 6.31911e-05 5.66348e-18 -0.000917764 1.06082e-18 0)
(0.00408682 0.00021196 -4.42999e-19 -0.000928243 -4.46913e-19 0)
(0.00397016 8.99948e-05 -9.3099e-19 -0.000853994 1.04366e-19 0)
(0.00397154 0.000231978 -9.72268e-19 -0.000874881 6.95007e-20 0)
(0.00385932 0.00010682 3.58639e-18 -0.00082613 4.52568e-19 0)
(0.00384851 0.000249494 1.62596e-18 -0.000871702 2.62715e-19 0)
(0.0136701 -0.00121562 -9.87635e-18 -0.0115796 1.94975e-18 6.57116e-33)
(0.0133767 -0.00123511 -2.74479e-18 -0.0106703 3.27007e-18 0)
(0.0133205 -0.00112766 -2.17712e-17 -0.0108599 -5.22398e-19 0)
(0.0131887 -0.00123521 -9.0141e-18 -0.0105955 2.12576e-18 0)
(0.0130931 -0.00109877 -5.41185e-18 -0.010637 -5.0452e-18 0)
(0.0130085 -0.00121728 1.14537e-17 -0.0104087 5.74935e-18 0)
(0.01289 -0.00107764 2.43015e-17 -0.0103731 -5.67824e-18 0)
(0.012819 -0.00119047 2.35552e-17 -0.0101616 -2.58873e-18 0)
(0.0126826 -0.00105963 2.32383e-17 -0.0101076 -1.55025e-18 0)
(0.0126177 -0.00116031 2.37003e-17 -0.00990451 -5.75502e-18 0)
(0.0124613 -0.00104146 -4.42124e-19 -0.00983466 3.5786e-18 0)
(0.0124014 -0.00112774 -5.69585e-18 -0.00963266 -9.8042e-19 0)
(0.0122248 -0.00102198 0 -0.00954803 0 0)
(0.0121696 -0.0010934 5.54892e-18 -0.00934625 9.71993e-19 0)
(0.0119744 -0.00100097 -2.99332e-18 -0.00924789 5.17663e-18 0)
(0.0119242 -0.00105783 -3.05329e-18 -0.00904706 5.21304e-18 0)
(0.0117126 -0.000978297 8.18924e-18 -0.00893723 -3.90849e-18 0)
(0.0116674 -0.00102133 1.34363e-17 -0.00873794 -3.02139e-18 0)
(0.0114416 -0.000954226 -2.78366e-18 -0.00861759 4.60791e-18 0)
(0.0114012 -0.000984019 -2.79043e-18 -0.00841971 1.76118e-18 0)
(0.0111623 -0.000929244 -1.03731e-17 -0.00829105 4.81879e-18 0)
(0.0111265 -0.000945577 -1.04604e-17 -0.00809527 2.30248e-18 0)
(0.0108759 -0.000902825 -1.72434e-17 -0.00795877 -4.22328e-18 0)
(0.0108436 -0.000906744 -7.504e-18 -0.00776521 5.65677e-19 0)
(0.0105846 -0.000875263 -4.83015e-18 -0.00762214 -3.52505e-18 0)
(0.0105555 -0.000867908 -4.60491e-18 -0.00743183 -8.8037e-19 0)
(0.0102898 -0.000846783 -2.38262e-18 -0.00728174 3.5446e-18 0)
(0.0102642 -0.000828483 -1.15574e-17 -0.00709468 -5.25046e-19 0)
(0.00999149 -0.00081798 -1.32805e-17 -0.00694021 -4.88707e-18 0)
(0.00996906 -0.000788521 4.55213e-18 -0.00675684 3.05919e-18 0)
(0.00969021 -0.000788213 -1.01721e-17 -0.0065976 3.66144e-18 0)
(0.00966959 -0.000748188 1.54346e-18 -0.00641911 1.76951e-18 0)
(0.00938665 -0.000757596 -2.30679e-18 -0.00625204 -5.71675e-18 0)
(0.00936696 -0.000707863 -2.15713e-18 -0.00607903 -5.57652e-18 0)
(0.00908175 -0.000726612 3.40583e-18 -0.00590646 -1.2076e-18 0)
(0.009063 -0.000666313 4.61325e-18 -0.0057393 4.47559e-18 0)
(0.0087752 -0.000694762 1.39529e-17 -0.00556253 3.54426e-18 0)
(0.00875593 -0.000624054 9.29728e-18 -0.00540258 -8.34946e-19 0)
(0.00846753 -0.000661666 0 -0.00521782 0 0)
(0.00844678 -0.000581256 -3.50242e-18 -0.00506594 -7.43292e-19 0)
(0.00815933 -0.000627784 -1.02328e-17 -0.0048744 2.51318e-18 0)
(0.00813707 -0.000536532 -1.08008e-17 -0.00473114 9.00379e-19 0)
(0.00785091 -0.000592513 2.7025e-18 -0.00453562 -4.99919e-18 0)
(0.00782608 -0.00049076 1.03435e-17 -0.00440214 -6.32913e-19 0)
(0.00754356 -0.000555135 6.78102e-18 -0.00419876 2.70036e-18 0)
(0.00751564 -0.000443027 6.65565e-18 -0.00407594 2.68884e-18 0)
(0.00723725 -0.000516591 2.08192e-18 -0.00386857 -1.28896e-19 0)
(0.00720665 -0.000393506 7.91328e-18 -0.00375651 1.22573e-18 0)
(0.00693384 -0.000475811 -4.97494e-18 -0.00354772 -1.39924e-19 0)
(0.00690098 -0.000343455 5.53928e-18 -0.0034464 1.3769e-18 0)
(0.00663608 -0.000432687 1.29639e-18 -0.00323577 -1.03701e-18 0)
(0.00660204 -0.000290494 7.71892e-19 -0.00314542 -1.97388e-18 0)
(0.00634449 -0.000387985 5.66279e-19 -0.00293911 -1.82641e-18 0)
(0.00630993 -0.00023716 8.06408e-18 -0.0028599 3.19304e-18 0)
(0.00606204 -0.000340514 6.77947e-18 -0.00265599 3.78376e-18 0)
(0.006028 -0.000182429 -5.93249e-18 -0.00258783 -2.95742e-18 0)
(0.00579052 -0.000291809 -1.26112e-17 -0.00239351 -2.7315e-18 0)
(0.00575816 -0.000127993 -1.02301e-17 -0.00233486 -2.33642e-18 0)
(0.00553213 -0.00024147 -1.09764e-17 -0.00215012 -3.25904e-18 0)
(0.00550321 -7.36988e-05 -5.36177e-18 -0.00210103 -8.64637e-19 0)
(0.00528883 -0.000190426 -9.90171e-19 -0.00193031 3.8565e-19 0)
(0.00526461 -2.06093e-05 -1.04968e-18 -0.001889 3.36388e-19 0)
(0.00506196 -0.00013904 9.53336e-19 -0.00173263 -2.96952e-19 0)
(0.0050438 3.08848e-05 9.80006e-18 -0.00169867 3.3576e-18 0)
(0.00485306 -8.78403e-05 3.94839e-18 -0.00155861 1.35633e-18 0)
(0.00484162 8.03508e-05 2.80836e-18 -0.00153111 4.37565e-19 0)
(0.00466227 -3.78384e-05 -3.51199e-18 -0.00140681 -1.06205e-18 0)
(0.00465786 0.000127064 -5.09519e-19 -0.00138486 -4.58034e-19 0)
(0.00449072 1.11698e-05 -5.33704e-19 -0.00127676 -4.30928e-19 0)
(0.00449287 0.000171654 0 -0.00126122 0 0)
(0.00433654 5.75496e-05 2.47894e-18 -0.00116705 4.21564e-19 0)
(0.00434433 0.000213349 2.97842e-18 -0.00115826 9.18203e-19 0)
(0.00419947 0.000102248 5.28677e-18 -0.00107548 1.23547e-18 0)
(0.00421108 0.000253328 6.18993e-18 -0.00107257 2.17029e-18 0)
(0.00407816 0.000144093 5.14108e-18 -0.000997381 1.93361e-18 0)
(0.00409143 0.00028943 1.97643e-18 -0.000997356 1.8732e-19 0)
(0.00396164 0.000180221 -2.70038e-18 -0.000914277 -7.69198e-19 0)
(0.00397634 0.00032159 2.25126e-18 -0.000937692 1.2906e-18 0)
(0.00386177 0.000214212 3.49756e-18 -0.000888312 7.63906e-19 0)
(0.00386661 0.000341811 5.21574e-18 -0.000923579 1.43851e-18 0)
(0.0131513 -0.00164588 1.27756e-17 -0.0110905 -1.72371e-19 3.15892e-33)
(0.0131276 -0.00168214 -7.24373e-18 -0.0104437 3.10965e-18 0)
(0.0129992 -0.00156395 2.1251e-17 -0.0105396 -3.7661e-19 0)
(0.0129329 -0.00167207 3.58268e-18 -0.0103535 -6.99608e-18 0)
(0.0128173 -0.00153068 -1.29293e-17 -0.0103555 1.24256e-17 0)
(0.0127425 -0.00164487 -2.41955e-17 -0.0101568 7.36004e-18 0)
(0.0126229 -0.00149975 -1.98654e-18 -0.0100979 -1.09556e-17 0)
(0.0125458 -0.00160865 -8.37738e-18 -0.00990494 -7.99008e-18 0)
(0.0124185 -0.00147087 -9.00927e-18 -0.00983275 5.14823e-18 0)
(0.0123415 -0.00156989 -9.45916e-18 -0.00964809 8.72444e-18 0)
(0.0122023 -0.00144202 -3.91588e-19 -0.00956278 3.50935e-18 0)
(0.0121274 -0.00152906 -4.85992e-18 -0.00938056 -7.48271e-18 0)
(0.0119731 -0.0014122 3.5071e-18 -0.00928241 -1.2158e-17 0)
(0.011903 -0.00148572 2.47774e-18 -0.00910135 9.37194e-19 0)
(0.0117315 -0.0013807 2.40714e-17 -0.0089922 4.91042e-18 0)
(0.0116672 -0.00144042 2.8851e-18 -0.00881152 -5.15475e-18 0)
(0.0114791 -0.00134737 -1.06896e-17 -0.00869259 8.7468e-18 0)
(0.0114205 -0.00139343 -2.09648e-17 -0.00851268 1.26584e-18 0)
(0.0112176 -0.00131236 -7.7752e-18 -0.00838451 -2.29783e-18 0)
(0.0111643 -0.00134518 -1.27569e-17 -0.00820655 3.35259e-20 0)
(0.0109483 -0.00127566 2.30818e-18 -0.00806865 2.2901e-18 0)
(0.0109005 -0.0012962 2.32828e-18 -0.00789232 5.1333e-18 0)
(0.0106726 -0.00123787 4.78109e-18 -0.00774752 8.72604e-19 0)
(0.010631 -0.00124578 9.65318e-18 -0.00757291 4.26678e-18 0)
(0.0103903 -0.00119875 2.84697e-19 -0.00742153 2.56788e-18 0)
(0.0103542 -0.00119409 9.15681e-18 -0.00724959 1.71199e-18 0)
(0.0101027 -0.00115815 1.33099e-17 -0.00709162 -5.1855e-18 0)
(0.0100702 -0.0011417 9.24465e-18 -0.00692345 -3.76193e-18 0)
(0.00981107 -0.00111622 -1.67032e-18 -0.0067565 5.49577e-18 0)
(0.00978076 -0.00108841 -1.1455e-17 -0.00659254 -2.83069e-18 0)
(0.00951455 -0.00107349 -2.93626e-18 -0.00641699 -1.39711e-18 0)
(0.00948653 -0.00103339 -1.61209e-18 -0.00625797 4.98049e-18 0)
(0.00921317 -0.00102937 6.4141e-18 -0.00607545 1.59571e-19 0)
(0.00918635 -0.000976698 5.91196e-18 -0.00592316 -1.85891e-18 0)
(0.00890836 -0.000983144 1.79055e-18 -0.00573178 -2.46773e-18 0)
(0.00888084 -0.000919346 5.65858e-18 -0.00558651 -1.62285e-18 0)
(0.00860085 -0.000935548 -1.69306e-18 -0.00538529 2.23707e-18 0)
(0.00857234 -0.000859158 -1.18485e-18 -0.00524788 3.89446e-18 0)
(0.00828907 -0.000886624 1.09193e-17 -0.00503825 -7.73964e-19 0)
(0.00825905 -0.000796787 1.50248e-17 -0.00491122 1.61748e-18 0)
(0.00797544 -0.000834591 2.12995e-17 -0.00469282 3.43474e-18 0)
(0.00794244 -0.000733069 7.10686e-18 -0.0045759 -1.26119e-18 0)
(0.00766177 -0.000780304 5.36181e-18 -0.00434926 6.21347e-19 0)
(0.00762601 -0.000666044 1.46587e-18 -0.00424316 -1.55033e-18 0)
(0.00734824 -0.000724129 7.48147e-18 -0.00401256 1.87844e-19 0)
(0.00730962 -0.00059752 8.84635e-18 -0.00391863 2.77271e-18 0)
(0.00703864 -0.000664378 7.42212e-18 -0.00368351 3.94633e-18 0)
(0.00699698 -0.000526931 -3.60999e-18 -0.0036009 -1.9602e-18 0)
(0.0067343 -0.000602963 -5.86779e-18 -0.00336661 1.33383e-19 0)
(0.00669072 -0.000454415 -5.88207e-18 -0.00329595 5.39128e-20 0)
(0.00643763 -0.00053883 2.68866e-19 -0.00306544 -1.81902e-18 0)
(0.00639305 -0.000381691 7.09793e-18 -0.00300583 1.83322e-18 0)
(0.0061521 -0.000472548 -1.72875e-18 -0.00278206 1.19212e-19 0)
(0.00610835 -0.000307979 3.22172e-18 -0.00273218 1.69968e-18 0)
(0.00587959 -0.000405162 6.53561e-18 -0.00252107 1.83568e-18 0)
(0.00583873 -0.00023574 3.36191e-18 -0.00247992 3.51998e-19 0)
(0.00562361 -0.000336392 2.27984e-18 -0.00228283 7.71023e-19 0)
(0.00558764 -0.000163751 2.96343e-18 -0.00224879 1.55107e-18 0)
(0.00538447 -0.000268147 -2.25046e-18 -0.00206981 2.17661e-19 0)
(0.00535519 -9.45493e-05 -4.44756e-18 -0.00204165 -1.88141e-18 0)
(0.00516466 -0.000199799 -6.43231e-18 -0.00188111 -2.53455e-18 0)
(0.00514323 -2.7078e-05 -1.03713e-17 -0.00185725 -4.30295e-18 0)
(0.00496326 -0.000133521 -3.39204e-18 -0.00171627 -1.88241e-18 0)
(0.00495057 3.69135e-05 5.1789e-18 -0.00169573 2.71413e-18 0)
(0.004781 -6.86121e-05 7.76381e-18 -0.0015735 3.14325e-18 0)
(0.0047771 9.82097e-05 2.7045e-18 -0.00155559 7.48622e-19 0)
(0.00461606 -6.79062e-06 4.35517e-18 -0.00145026 1.37004e-18 0)
(0.00462046 0.000155845 3.21292e-18 -0.00143422 1.25677e-18 0)
(0.00446789 5.27008e-05 2.31114e-18 -0.0013446 1.14097e-18 0)
(0.00447951 0.000210778 0 -0.0013315 0 0)
(0.00433312 0.000108403 8.10962e-19 -0.00125257 3.47407e-20 0)
(0.00434988 0.000262252 3.53275e-18 -0.00124293 1.64632e-18 0)
(0.00421128 0.000161512 6.65244e-18 -0.00117459 2.2551e-18 0)
(0.00423098 0.00031106 7.76291e-18 -0.00116714 2.75461e-18 0)
(0.00409484 0.000209625 -1.15421e-18 -0.0010985 2.39107e-19 0)
(0.00411572 0.000355662 -9.07741e-18 -0.00109437 -4.03829e-18 0)
(0.00399019 0.000255432 -9.6562e-18 -0.00102466 -3.73084e-18 0)
(0.00400775 0.000399185 -7.36592e-18 -0.00103491 -2.67492e-18 0)
(0.00387783 0.000293981 -3.1978e-18 -0.000958184 -1.49083e-18 0)
(0.00388213 0.000417947 2.10758e-18 -0.000977132 1.08923e-18 0)
(0.0129588 -0.00210173 -1.261e-17 -0.0108743 4.45129e-19 2.97465e-33)
(0.0128232 -0.00210045 1.32099e-17 -0.0101556 -2.76415e-18 0)
(0.0127249 -0.00198953 -1.82023e-18 -0.010255 -1.14824e-17 0)
(0.0126075 -0.00208135 7.80774e-18 -0.0100423 1.11733e-18 0)
(0.0125126 -0.00194053 1.04403e-17 -0.0100363 8.97106e-18 0)
(0.0124045 -0.00204371 5.15483e-18 -0.00983438 4.226e-18 0)
(0.0123051 -0.00189593 -3.21898e-18 -0.00976464 -3.22861e-18 0)
(0.0122008 -0.0019974 8.95611e-18 -0.00957646 -5.72009e-18 0)
(0.0120959 -0.00185483 -5.68812e-18 -0.00949369 -6.90631e-19 0)
(0.0119942 -0.00194914 -5.16384e-18 -0.00931803 -4.01933e-18 0)
(0.0118807 -0.00181455 3.39208e-19 -0.00922361 -3.41903e-18 0)
(0.0117815 -0.00189869 -3.18054e-19 -0.0090546 3.2463e-18 0)
(0.0116576 -0.00177349 -1.10693e-17 -0.008948 1.80028e-18 0)
(0.011561 -0.00184659 2.00578e-19 -0.00878287 -3.11501e-18 0)
(0.0114263 -0.00173144 -1.04887e-17 -0.00866622 -4.67554e-18 0)
(0.011334 -0.00179284 0 -0.00850336 0 0)
(0.0111863 -0.00168821 -2.55802e-18 -0.0083779 4.70594e-18 0)
(0.0111004 -0.00173709 -1.27777e-17 -0.00821658 3.85625e-19 0)
(0.0109368 -0.0016434 -5.13342e-18 -0.00808242 -3.67944e-18 0)
(0.0108586 -0.00167931 -1.01253e-17 -0.00792233 -7.00647e-18 0)
(0.0106791 -0.00159665 -1.48119e-17 -0.00778066 1.14142e-18 0)
(0.0106077 -0.00161932 -1.93531e-17 -0.00762244 3.33966e-18 0)
(0.0104141 -0.00154786 -1.41684e-17 -0.00747177 3.44155e-18 0)
(0.0103475 -0.00155788 -1.90709e-17 -0.00731622 3.80405e-19 0)
(0.0101428 -0.00149743 -1.41204e-17 -0.00715589 5.32833e-19 0)
(0.0100799 -0.00149478 -8.80236e-18 -0.0070033 6.37063e-18 0)
(0.00986394 -0.00144541 3.97417e-18 -0.00683262 -6.62399e-18 0)
(0.00980498 -0.00142922 1.32531e-17 -0.00668409 -2.75557e-18 0)
(0.00957606 -0.00139136 1.52478e-17 -0.0065023 1.7056e-18 0)
(0.00952097 -0.00136061 2.42343e-18 -0.00635998 -9.66605e-19 0)
(0.00928116 -0.00133412 4.72332e-18 -0.00616706 2.93575e-18 0)
(0.00922734 -0.00128988 -4.07906e-18 -0.006031 -8.63336e-19 0)
(0.00898096 -0.00127434 0 -0.00582612 0 0)
(0.00892692 -0.00121636 -4.53876e-18 -0.00569697 -2.71692e-18 0)
(0.00867408 -0.00121248 -1.52947e-17 -0.00547996 1.59452e-19 0)
(0.00861971 -0.00113904 -1.14334e-17 -0.00536065 1.05751e-18 0)
(0.00836022 -0.00114749 -4.42784e-18 -0.00513067 -2.56686e-18 0)
(0.00830442 -0.0010587 0 -0.00502259 0 0)
(0.00804328 -0.00107822 -3.51421e-18 -0.00478088 -8.82098e-19 0)
(0.00798463 -0.000975465 4.2149e-18 -0.00468319 2.40235e-18 0)
(0.00772443 -0.00100637 1.1316e-17 -0.00443295 -1.48555e-18 0)
(0.00766361 -0.000888503 1.54124e-17 -0.00434772 9.07474e-19 0)
(0.00740504 -0.000931362 4.96651e-18 -0.00409132 3.55742e-18 0)
(0.00734205 -0.000799943 -8.1137e-19 -0.00401898 -1.25911e-18 0)
(0.00708982 -0.000852401 -1.5276e-17 -0.00375854 -2.6054e-18 0)
(0.00702557 -0.000708732 -1.21072e-17 -0.00369808 -1.86502e-18 0)
(0.00678027 -0.000771701 -3.84316e-18 -0.00344034 -2.03521e-18 0)
(0.00671682 -0.000616512 -3.72594e-18 -0.0033922 -2.04643e-18 0)
(0.00648125 -0.000687715 -5.50933e-18 -0.00314038 -4.40817e-19 0)
(0.00641991 -0.000524301 -1.18273e-17 -0.00310212 -3.50988e-18 0)
(0.00619595 -0.000602962 -1.41177e-17 -0.00286277 -4.44813e-18 0)
(0.00613915 -0.000432739 -5.23617e-18 -0.00283354 -8.01147e-19 0)
(0.00592739 -0.000517164 -3.45008e-18 -0.0026101 -1.79159e-18 0)
(0.00587708 -0.000343116 -2.4765e-18 -0.00258783 -1.01703e-18 0)
(0.00567793 -0.000431978 3.13095e-18 -0.00238473 6.35438e-19 0)
(0.00563588 -0.000256042 3.99947e-18 -0.00236774 1.49269e-18 0)
(0.0054489 -0.000347546 3.18012e-18 -0.0021859 1.65831e-18 0)
(0.00541659 -0.000172073 0 -0.00217253 0 0)
(0.00524068 -0.000265536 7.20346e-18 -0.00201394 2.68929e-18 0)
(0.00521882 -9.2362e-05 9.59782e-18 -0.00200209 4.85837e-18 0)
(0.0050536 -0.000185514 6.6684e-18 -0.00186515 3.70101e-18 0)
(0.0050425 -1.58139e-05 -4.37169e-18 -0.0018546 -2.79644e-18 0)
(0.00488474 -0.000109619 -1.63603e-17 -0.00173769 -7.19582e-18 0)
(0.00488398 5.59781e-05 -7.65874e-18 -0.00172701 -3.2135e-18 0)
(0.00473356 -3.64707e-05 -2.71459e-18 -0.00162796 -1.93407e-18 0)
(0.00474207 0.000124527 3.34444e-18 -0.00161706 1.57146e-18 0)
(0.00459604 3.19664e-05 7.23968e-19 -0.00153179 5.23051e-19 0)
(0.00461219 0.000188901 1.79822e-18 -0.00152088 9.14686e-19 0)
(0.00446985 9.66699e-05 0 -0.00144702 0 0)
(0.00449219 0.000249277 6.26051e-19 -0.00143609 4.89844e-19 0)
(0.00435235 0.000157004 3.81656e-18 -0.00136924 1.54077e-18 0)
(0.00437845 0.000306362 3.28516e-18 -0.00136007 1.1967e-18 0)
(0.00423938 0.000212715 -6.33197e-18 -0.00129838 -2.629e-18 0)
(0.00426855 0.000358784 -5.38808e-18 -0.00128982 -2.48099e-18 0)
(0.00413108 0.000264258 -7.51581e-18 -0.00122802 -3.17489e-18 0)
(0.00416055 0.000409062 -7.12015e-18 -0.00122177 -3.49732e-18 0)
(0.00401851 0.000309849 -6.77683e-18 -0.00115271 -3.60425e-18 0)
(0.00404765 0.000449314 -2.79274e-18 -0.00114408 -1.40425e-18 0)
(0.00391344 0.000351561 -1.90566e-18 -0.00107462 -1.09672e-18 0)
(0.00392817 0.000486045 2.17975e-18 -0.0010845 1.28675e-18 0)
(0.0125728 -0.0025047 -5.67666e-19 -0.0104767 4.00329e-18 6.15348e-32)
(0.0124561 -0.00248776 -2.58231e-17 -0.00980712 1.70973e-17 0)
(0.0123508 -0.00237919 2.49112e-18 -0.00987579 -2.93227e-18 0)
(0.0122231 -0.00245693 1.42098e-17 -0.00967092 -2.4925e-18 0)
(0.0121343 -0.00231804 5.10582e-18 -0.0096461 4.19671e-18 0)
(0.0120076 -0.00240825 0 -0.00945172 0 0)
(0.0119214 -0.00225989 8.7267e-18 -0.00936799 -5.66937e-18 0)
(0.011796 -0.00235078 1.92621e-17 -0.0091878 -1.50946e-18 0)
(0.0117094 -0.00220571 2.20514e-17 -0.00909338 -6.61477e-18 0)
(0.0115866 -0.00229233 1.59949e-17 -0.00892756 -4.26449e-18 0)
(0.011495 -0.0021533 2.12512e-17 -0.00882353 -2.67385e-18 0)
(0.011376 -0.00223297 2.13268e-17 -0.0086656 -6.40515e-18 0)
(0.0112763 -0.00210134 1.04263e-17 -0.0085527 4.37929e-18 0)
(0.0111625 -0.00217213 0 -0.00840028 0 0)
(0.0110523 -0.00204899 7.68436e-18 -0.00827877 -4.22242e-18 0)
(0.0109438 -0.00210925 1.26593e-17 -0.00813116 2.06245e-18 0)
(0.0108218 -0.00199548 2.50941e-17 -0.00799996 -6.10615e-19 0)
(0.0107178 -0.0020442 1.48239e-17 -0.00785664 -5.17385e-18 0)
(0.0105846 -0.00194046 -2.0688e-18 -0.00771533 7.03129e-18 0)
(0.0104841 -0.00197721 -7.30495e-18 -0.00757522 9.98465e-19 0)
(0.0103397 -0.00188396 1.84134e-18 -0.00742388 -6.60812e-18 0)
(0.0102431 -0.00190789 7.15086e-18 -0.00728631 -7.92327e-19 0)
(0.0100855 -0.00182546 9.67718e-18 -0.00712418 4.04662e-18 0)
(0.00999364 -0.00183541 0 -0.00699002 0 0)
(0.00982003 -0.00176415 -1.89317e-18 -0.00681485 3.41051e-18 0)
(0.00973318 -0.00175884 -1.12647e-17 -0.00668598 -4.00788e-19 0)
(0.00954318 -0.00169908 -9.29012e-18 -0.00649547 -3.88547e-18 0)
(0.00945965 -0.00167788 4.83766e-18 -0.00637312 2.9439e-18 0)
(0.00925717 -0.00162979 -3.57188e-18 -0.00616764 1.24548e-18 0)
(0.00917406 -0.00159366 4.15953e-18 -0.0060514 8.64244e-19 0)
(0.00896275 -0.00155719 7.14784e-18 -0.00583143 -4.28772e-18 0)
(0.00887954 -0.00150448 7.83327e-18 -0.00572365 -2.41883e-18 0)
(0.00865804 -0.00148077 4.70633e-18 -0.0054875 2.73429e-18 0)
(0.00857456 -0.00141014 0 -0.00539089 0 0)
(0.00834399 -0.0013994 -1.30499e-18 -0.00513761 2.04534e-18 0)
(0.00825922 -0.00131134 -5.84856e-18 -0.005053 -5.38037e-19 0)
(0.008025 -0.00131278 -9.32954e-18 -0.00478645 -1.7007e-18 0)
(0.007938 -0.00120861 -5.63398e-18 -0.00471317 -7.19964e-19 0)
(0.00770322 -0.00122246 1.27655e-19 -0.00443732 -2.97366e-18 0)
(0.00761527 -0.00110155 2.00767e-18 -0.00437735 -1.39223e-19 0)
(0.00738087 -0.00112811 -2.31842e-18 -0.00409475 3.07881e-19 0)
(0.00729276 -0.000992506 -4.18521e-18 -0.00404777 -2.333e-18 0)
(0.00706384 -0.00102962 -5.07432e-18 -0.00376393 -1.1919e-18 0)
(0.00697703 -0.000881203 3.55474e-20 -0.00372885 2.18787e-18 0)
(0.00675475 -0.000929418 7.88675e-18 -0.00345059 2.39109e-18 0)
(0.00667178 -0.000769672 3.80361e-18 -0.00342732 3.17754e-19 0)
(0.00645961 -0.000826485 0 -0.0031597 0 0)
(0.00638208 -0.00065948 2.83109e-18 -0.00314508 1.15699e-18 0)
(0.00618177 -0.000724036 -6.58428e-19 -0.00289557 4.78233e-19 0)
(0.00611271 -0.0005515 -1.0792e-17 -0.00288849 -4.86608e-18 0)
(0.00592478 -0.000621498 -2.13911e-18 -0.00266015 -1.69538e-18 0)
(0.00586604 -0.000446911 4.55399e-18 -0.00265792 2.83442e-18 0)
(0.00569006 -0.000521588 4.60569e-18 -0.00245543 2.69295e-18 0)
(0.00564328 -0.000347059 1.48624e-18 -0.00245611 4.24751e-19 0)
(0.0054797 -0.000423511 -5.79693e-18 -0.0022792 -2.97605e-18 0)
(0.00544591 -0.000251373 -2.35381e-18 -0.00228074 -1.18695e-18 0)
(0.00529142 -0.00032986 -2.84538e-18 -0.00212946 -1.09506e-18 0)
(0.00527102 -0.000161095 -1.54584e-18 -0.00213066 -6.92263e-19 0)
(0.00512443 -0.00023993 -5.32362e-18 -0.00200317 -2.85596e-18 0)
(0.00511659 -7.55795e-05 0 -0.00200251 0 0)
(0.00497577 -0.000154533 6.86136e-18 -0.00189523 3.34301e-18 0)
(0.00497955 5.55193e-06 2.72543e-18 -0.00189369 1.2712e-18 0)
(0.00484114 -7.44259e-05 6.01163e-18 -0.00180196 3.18253e-18 0)
(0.00485495 8.14171e-05 8.12479e-19 -0.00179814 5.8689e-19 0)
(0.00471909 1.85715e-06 8.32425e-19 -0.00171987 5.75935e-19 0)