/*--------------------------------*- C++ -*----------------------------------*\
| =========                 |                                                 |
| \\      /  F ield         | OpenFOAM: The Open Source CFD Toolbox           |
|  \\    /   O peration     | Version:  v2012                                 |
|   \\  /    A nd           | Website:  www.openfoam.com                      |
|    \\/     M anipulation  |                                                 |
\*---------------------------------------------------------------------------*/
FoamFile
{
    version     2.0;
    format      ascii;
    class       pointVectorField;
    location    "10";
    object      pointD;
}
// * * * * * * * * * * * * * * * * * * * * * * * * * * * * * * * * * * * * * //

dimensions      [0 1 0 0 0 0 0];


internalField   nonuniform List<vector> 
32562
(
(0.00408405 0 1.72143e-21)
(0.00550404 0 1.30383e-21)
(0.00507162 -0.000431632 0)
(0 -0.00308791 -1.2779e-22)
(0 -0.00155448 1.13493e-20)
(0.00420456 0 0)
(0 -0.00290199 0)
(0.00265265 -0.00083909 0)
(0.00123513 -0.00155867 7.17079e-22)
(0.0053128 -0.000108811 1.41024e-20)
(0.00315653 -0.0013128 2.65566e-21)
(0.00315653 -0.0013128 2.65566e-21)
(0.00265265 -0.00083909 0)
(0 -0.00290199 0)
(0 -0.00155448 1.13493e-20)
(0.00408405 0 1.72143e-21)
(0.00420456 0 0)
(0.00550404 0 1.30383e-21)
(0.0053128 -0.000108811 1.41024e-20)
(0.00507162 -0.000431632 0)
(0.00123513 -0.00155867 7.17079e-22)
(0 -0.00308791 -1.2779e-22)
(5.60175e-05 -0.00289867 0)
(0.000112728 -0.002888 0)
(0.000169863 -0.00287097 0)
(0.000227672 -0.00284801 0)
(0.00028642 -0.00281943 0)
(0.000346515 -0.00278532 0)
(0.000408414 -0.00274576 0)
(0.000472371 -0.00270092 0)
(0.000538466 -0.0026511 0)
(0.000606607 -0.00259675 0)
(0.000676616 -0.00253842 0)
(0.000748235 -0.00247674 0)
(0.000821093 -0.00241244 0)
(0.00089476 -0.00234628 0)
(0.000968768 -0.00227903 0)
(0.00104256 -0.00221151 0)
(0.00111545 -0.00214465 0)
(0.00118667 -0.00207938 0)
(0.00125566 -0.00201635 0)
(0.00132251 -0.00195538 0)
(0.00138795 -0.00189568 0)
(0.00145286 -0.00183637 0)
(0.00151793 -0.00177686 0)
(0.00158332 -0.00171716 0)
(0.00164895 -0.00165751 0)
(0.00171477 -0.00159811 0)
(0.00178079 -0.00153911 0)
(0.00184696 -0.00148064 0)
(0.00191327 -0.00142279 0)
(0.00197969 -0.00136567 0)
(0.00204619 -0.00130935 0)
(0.00211274 -0.0012539 0)
(0.00217928 -0.00119939 0)
(0.00224578 -0.00114589 0)
(0.00231222 -0.00109347 0)
(0.00237856 -0.00104216 0)
(0.00244459 -0.000991919 0)
(0.00250986 -0.000942678 0)
(0.00257473 -0.000895976 0)
(0.00273213 -0.000784792 0)
(0.00279568 -0.000741867 0)
(0.00285874 -0.000700409 0)
(0.00292119 -0.000660316 0)
(0.00298295 -0.000621607 0)
(0.00304392 -0.000584312 0)
(0.00310401 -0.000548444 0)
(0.00316317 -0.000514009 0)
(0.00322131 -0.000481007 0)
(0.00327835 -0.00044943 0)
(0.00333424 -0.000419268 0)
(0.00338891 -0.000390504 0)
(0.00344229 -0.000363118 0)
(0.00349431 -0.000337085 0)
(0.00354491 -0.000312378 0)
(0.00359404 -0.000288965 0)
(0.00364162 -0.000266813 0)
(0.00368761 -0.000245886 0)
(0.00373195 -0.000226143 0)
(0.00377458 -0.000207545 0)
(0.00381545 -0.000190047 0)
(0.00385451 -0.000173605 0)
(0.00389171 -0.00015817 0)
(0.003927 -0.000143694 0)
(0.00396034 -0.000130128 0)
(0.00399168 -0.000117418 0)
(0.00402099 -0.000105512 0)
(0.00404823 -9.43552e-05 0)
(0.00407336 -8.38928e-05 0)
(0.00409636 -7.40684e-05 0)
(0.00411719 -6.48251e-05 0)
(0.00413582 -5.61054e-05 0)
(0.00415225 -4.78519e-05 0)
(0.00416643 -4.00076e-05 0)
(0.00417836 -3.25178e-05 0)
(0.00418804 -2.533e-05 0)
(0.00419547 -1.83934e-05 0)
(0.00420071 -1.16573e-05 0)
(0.00420385 -5.04142e-06 0)
(0.00409071 0 0)
(0.00409826 0 0)
(0.00410516 0 0)
(0.00411151 0 0)
(0.00411737 0 0)
(0.00412281 0 0)
(0.00412786 0 0)
(0.00413255 0 0)
(0.00413691 0 0)
(0.00414097 0 0)
(0.00414475 0 0)
(0.00414829 0 0)
(0.00415159 0 0)
(0.00415468 0 0)
(0.00415758 0 0)
(0.00416032 0 0)
(0.00416289 0 0)
(0.00416532 0 0)
(0.00416763 0 0)
(0.00416982 0 0)
(0.00417191 0 0)
(0.00417391 0 0)
(0.00417584 0 0)
(0.00417769 0 0)
(0.00417948 0 0)
(0.00418122 0 0)
(0.00418292 0 0)
(0.00418459 0 0)
(0.00418623 0 0)
(0.00418784 0 0)
(0.00418944 0 0)
(0.00419104 0 0)
(0.00419264 0 0)
(0.00419424 0 0)
(0.00419587 0 0)
(0.00419753 0 0)
(0.00419925 0 0)
(0.00420101 0 0)
(0.00420275 0 0)
(0.00420754 0 0)
(0.00421162 0 0)
(0.00421595 0 0)
(0.0042207 0 0)
(0.00422583 0 0)
(0.00423133 0 0)
(0.00423719 0 0)
(0.00424342 0 0)
(0.00425002 0 0)
(0.004257 0 0)
(0.00426437 0 0)
(0.00427212 0 0)
(0.00428026 0 0)
(0.00428879 0 0)
(0.00429771 0 0)
(0.00430702 0 0)
(0.00431672 0 0)
(0.00432681 0 0)
(0.00433728 0 0)
(0.00434814 0 0)
(0.00435938 0 0)
(0.004371 0 0)
(0.00438299 0 0)
(0.00439536 0 0)
(0.00440809 0 0)
(0.00442119 0 0)
(0.00443466 0 0)
(0.00444848 0 0)
(0.00446265 0 0)
(0.00447717 0 0)
(0.00449204 0 0)
(0.00450725 0 0)
(0.00452279 0 0)
(0.00453867 0 0)
(0.00455487 0 0)
(0.00457139 0 0)
(0.00458823 0 0)
(0.00460538 0 0)
(0.00462283 0 0)
(0.00464058 0 0)
(0.00465863 0 0)
(0.00467696 0 0)
(0.00469558 0 0)
(0.00471447 0 0)
(0.00473362 0 0)
(0.00475304 0 0)
(0.00477271 0 0)
(0.00479263 0 0)
(0.00481279 0 0)
(0.00483318 0 0)
(0.0048538 0 0)
(0.00487463 0 0)
(0.00489567 0 0)
(0.00491692 0 0)
(0.00493835 0 0)
(0.00495998 0 0)
(0.00498178 0 0)
(0.00500375 0 0)
(0.00502588 0 0)
(0.00504816 0 0)
(0.00507058 0 0)
(0.00509314 0 0)
(0.00511582 0 0)
(0.00513861 0 0)
(0.00516151 0 0)
(0.0051845 0 0)
(0.00520757 0 0)
(0.0052307 0 0)
(0.00525389 0 0)
(0.00527712 0 0)
(0.00530037 0 0)
(0.00532364 0 0)
(0.0053469 0 0)
(0.00537013 0 0)
(0.00539332 0 0)
(0.00541645 0 0)
(0.00543949 0 0)
(0.00546241 0 0)
(0.00548516 0 0)
(0.00551147 -8.60874e-07 6.85939e-21)
(0.00551114 -1.49956e-06 8.39816e-21)
(0.00551046 -2.13898e-06 3.60229e-23)
(0.00550945 -2.81309e-06 -7.03276e-21)
(0.00550812 -3.53298e-06 -4.22836e-21)
(0.00550648 -4.30438e-06 -1.53415e-21)
(0.00550454 -5.13447e-06 -4.21797e-21)
(0.00550229 -6.03146e-06 -2.59014e-23)
(0.00549975 -7.00369e-06 2.42396e-23)
(0.00549691 -8.05938e-06 -5.24479e-21)
(0.00549379 -9.20658e-06 -4.34249e-21)
(0.00549038 -1.04533e-05 2.61113e-21)
(0.0054867 -1.18072e-05 -6.1997e-21)
(0.00548275 -1.32761e-05 -1.05422e-20)
(0.00547853 -1.48672e-05 -4.41639e-21)
(0.00547406 -1.65876e-05 -6.92827e-21)
(0.00546934 -1.84443e-05 -2.51189e-21)
(0.00546438 -2.04438e-05 -4.79354e-22)
(0.00545918 -2.25923e-05 -4.71043e-23)
(0.00545376 -2.48956e-05 -2.04906e-21)
(0.00544812 -2.73594e-05 -4.2721e-21)
(0.00544227 -2.99887e-05 8.14965e-23)
(0.00543621 -3.27884e-05 -3.42085e-22)
(0.00542997 -3.57628e-05 2.64577e-22)
(0.00542354 -3.8916e-05 7.06622e-21)
(0.00541694 -4.22517e-05 7.07501e-21)
(0.00541018 -4.57732e-05 2.48774e-21)
(0.00540326 -4.94837e-05 -7.32522e-21)
(0.00539619 -5.33862e-05 -9.83747e-21)
(0.00538898 -5.74833e-05 4.98896e-21)
(0.00538165 -6.17781e-05 7.50899e-21)
(0.00537419 -6.62736e-05 -7.65657e-21)
(0.00536662 -7.09731e-05 -5.05951e-21)
(0.00535894 -7.58805e-05 2.54152e-21)
(0.00535117 -8.10008e-05 -2.66073e-21)
(0.00534331 -8.63406e-05 -5.31651e-21)
(0.00533538 -9.19087e-05 -2.60191e-21)
(0.00532739 -9.77129e-05 5.57146e-21)
(0.00531937 -0.000103759 1.45893e-20)
(0.00530846 -0.000112208 1.4477e-20)
(0.00530483 -0.000115141 1.9018e-20)
(0.00530119 -0.000118159 2.35976e-20)
(0.00529756 -0.000121256 1.90997e-20)
(0.00529396 -0.000124425 1.46183e-20)
(0.00529039 -0.000127666 1.92086e-20)
(0.00528686 -0.000130978 1.92522e-20)
(0.00528337 -0.000134365 2.89544e-20)
(0.00527994 -0.000137828 2.39781e-20)
(0.00527658 -0.000141371 4.66075e-21)
(0.00527329 -0.000144993 5.00015e-21)
(0.0052701 -0.000148696 1.47427e-20)
(0.00526701 -0.000152473 1.45379e-20)
(0.00526404 -0.00015632 9.73785e-21)
(0.00526121 -0.000160226 1.96114e-20)
(0.00525853 -0.00016418 3.42247e-20)
(0.00525601 -0.000168164 2.94755e-20)
(0.00525367 -0.000172116 9.91968e-21)
(0.00525145 -0.000176301 -9.69838e-21)
(0.00524947 -0.000180429 -4.60856e-22)
(0.00524775 -0.00018415 1.93261e-20)
(0.00524608 -0.000187682 1.00886e-20)
(0.00524441 -0.000190927 4.48212e-21)
(0.00524263 -0.000193812 1.38046e-20)
(0.00524057 -0.000196317 1.3996e-20)
(0.00523808 -0.00019847 1.39608e-20)
(0.00523502 -0.000200382 1.42895e-20)
(0.00523128 -0.000202269 4.02817e-21)
(0.00522687 -0.000204412 -5.24723e-21)
(0.00522189 -0.000207062 3.35656e-23)
(0.00521654 -0.000210322 -1.02127e-20)
(0.00521104 -0.000214145 -3.05447e-20)
(0.00520558 -0.000218408 -1.48182e-20)
(0.00520028 -0.000222981 1.04554e-20)
(0.00519521 -0.000227755 1.01791e-20)
(0.00519041 -0.000232652 5.68528e-21)
(0.00518588 -0.000237618 4.75463e-21)
(0.00518161 -0.000242616 -1.02515e-20)
(0.00517761 -0.00024762 -4.92343e-21)
(0.00517384 -0.000252609 1.55181e-20)
(0.0051703 -0.000257566 2.53078e-20)
(0.00516696 -0.000262477 9.97105e-21)
(0.0051638 -0.000267328 -5.0501e-21)
(0.0051608 -0.000272114 1.01768e-20)
(0.00515792 -0.000276834 2.01407e-20)
(0.00515516 -0.000281493 1.50999e-20)
(0.00515248 -0.000286096 1.00244e-20)
(0.00514986 -0.000290649 5.06387e-21)
(0.00514729 -0.000295164 -9.93283e-21)
(0.00514477 -0.000299648 -2.01201e-20)
(0.00514227 -0.00030411 -1.01084e-20)
(0.00513979 -0.000308558 5.05822e-21)
(0.00513734 -0.000312995 5.05822e-21)
(0.0051349 -0.000317424 0)
(0.00513248 -0.000321849 -4.92712e-21)
(0.00513008 -0.000326271 -1.99852e-20)
(0.00512769 -0.000330693 -1.50581e-20)
(0.00512532 -0.000335115 0)
(0.00512296 -0.000339538 0)
(0.00512062 -0.000343962 0)
(0.00511829 -0.000348387 0)
(0.00511598 -0.000352813 5.08486e-21)
(0.00511369 -0.00035724 -4.89998e-21)
(0.00511141 -0.000361666 -1.50752e-20)
(0.00510914 -0.000366091 9.78056e-21)
(0.00510689 -0.000370514 1.48709e-20)
(0.00510465 -0.000374934 2.15641e-22)
(0.00510243 -0.000379352 -4.88286e-21)
(0.00510022 -0.000383766 -5.0985e-21)
(0.00509802 -0.000388176 -5.10061e-21)
(0.00509582 -0.00039258 8.69871e-26)
(0.00509364 -0.000396975 2.34718e-22)
(0.00509146 -0.000401363 -1.48302e-20)
(0.00508928 -0.000405745 -1.99268e-20)
(0.0050871 -0.000410122 -1.01959e-20)
(0.00508492 -0.000414494 9.72693e-21)
(0.00508274 -0.000418862 1.50548e-20)
(0.00508055 -0.000423227 -4.86493e-21)
(0.00507836 -0.000427592 -9.95949e-21)
(0.00504993 -0.000436965 1.38683e-22)
(0.00501803 -0.000443858 -2.66268e-22)
(0.0049862 -0.000450724 -4.04951e-22)
(0.00495443 -0.00045751 2.5471e-22)
(0.0049227 -0.000464166 1.36562e-22)
(0.00489098 -0.000470657 -3.6851e-22)
(0.00485924 -0.000476956 -2.50362e-22)
(0.00482746 -0.00048304 2.37294e-22)
(0.00479557 -0.000488892 2.37294e-22)
(0.00476349 -0.000494571 1.64388e-22)
(0.00473132 -0.000500164 1.64388e-22)
(0.00469911 -0.000505362 6.09207e-24)
(0.00466666 -0.000510075 -9.48765e-24)
(0.00463399 -0.000514629 3.83038e-22)
(0.00460116 -0.000519005 1.86803e-22)
(0.00456806 -0.000523117 -2.53991e-22)
(0.00453468 -0.000526962 -4.2176e-23)
(0.00450095 -0.000530548 -4.08276e-22)
(0.00446688 -0.000533897 -1.57769e-22)
(0.00443241 -0.000537048 3.51252e-22)
(0.00439757 -0.000539986 5.18961e-22)
(0.00436235 -0.000542739 5.45598e-22)
(0.00432667 -0.000545357 2.71682e-22)
(0.00429053 -0.000547831 -2.94907e-22)
(0.00425391 -0.000550196 -1.25908e-22)
(0.00421678 -0.000552491 2.91271e-22)
(0.00417915 -0.000554748 -3.30463e-22)
(0.004141 -0.000556965 -2.7412e-22)
(0.00410232 -0.00055916 3.43158e-23)
(0.00406307 -0.000561375 1.44194e-22)
(0.00402324 -0.000563638 -3.56324e-23)
(0.00398281 -0.000565982 -6.61568e-22)
(0.00394178 -0.000568446 -4.81742e-22)
(0.00390013 -0.000571047 0)
(0.00385784 -0.000573809 3.35079e-22)
(0.00381489 -0.000576773 6.7054e-22)
(0.00377128 -0.000579979 3.35461e-22)
(0.00372697 -0.000583464 3.33356e-22)
(0.00368196 -0.000587262 3.33356e-22)
(0.00363624 -0.000591405 -2.21797e-22)
(0.00358981 -0.000595927 3.3795e-22)
(0.00354264 -0.000600878 9.48775e-22)
(0.00349472 -0.00060633 6.1703e-22)
(0.00344607 -0.000612248 -5.28233e-23)
(0.00339666 -0.000618666 -2.80826e-22)
(0.00334644 -0.00062571 3.26773e-23)
(0.00329542 -0.000633418 -2.48489e-22)
(0.00324362 -0.000641816 -1.01674e-21)
(0.00319102 -0.000650945 -8.67507e-23)
(0.00313763 -0.00066086 7.17981e-22)
(0.00308346 -0.000671573 7.24452e-22)
(0.00302848 -0.000683167 1.80932e-22)
(0.0029727 -0.000695724 -2.79533e-22)
(0.00291614 -0.00070926 1.94833e-22)
(0.00285879 -0.000723796 -1.57544e-22)
(0.00280062 -0.000739415 -6.26995e-22)
(0.00274167 -0.000756192 1.70291e-22)
(0.00268198 -0.000774156 4.90128e-23)
(0.00262154 -0.000793364 6.53506e-23)
(0.00256036 -0.000813872 6.5608e-22)
(0.00249848 -0.000835741 -7.98289e-22)
(0.00243596 -0.000858937 3.9244e-23)
(0.00237274 -0.000883589 8.97886e-22)
(0.00230888 -0.000909796 1.52093e-22)
(0.00224445 -0.000937526 9.17406e-23)
(0.00217948 -0.000966826 -1.19517e-21)
(0.00211404 -0.000997721 1.16771e-21)
(0.00204821 -0.00103028 1.2322e-21)
(0.00198196 -0.00106456 -1.13067e-21)
(0.00191518 -0.00110066 3.07173e-22)
(0.00184784 -0.00113862 3.07173e-22)
(0.00177998 -0.00117843 -1.35638e-21)
(0.00171165 -0.00122003 -1.35638e-21)
(0.00164294 -0.00126345 1.00486e-21)
(0.00157405 -0.00130869 1.00486e-21)
(0.00150512 -0.00135564 0)
(0.00143628 -0.00140433 0)
(0.00136776 -0.00145473 6.53285e-22)
(0.00129965 -0.00150691 1.3732e-21)
(0.00118088 -0.00160413 3.86154e-21)
(0.00113325 -0.0016456 1.39118e-21)
(0.00108596 -0.00168801 -5.75978e-21)
(0.00103895 -0.00173127 -2.65124e-21)
(0.000992276 -0.00177537 -3.71422e-21)
(0.000946024 -0.00182029 1.48343e-21)
(0.00090026 -0.00186602 1.03852e-20)
(0.000855052 -0.00191252 -7.17638e-21)
(0.00081047 -0.00195975 -4.67884e-21)
(0.000766586 -0.00200765 1.1815e-20)
(0.000723476 -0.00205618 1.0851e-20)
(0.000681219 -0.00210526 1.57437e-21)
(0.000639898 -0.00215479 -6.72803e-21)
(0.000599596 -0.0022047 -4.91742e-21)
(0.000560397 -0.00225486 1.5801e-21)
(0.000522384 -0.00230513 2.18547e-21)
(0.000485633 -0.00235539 -2.09253e-21)
(0.000450216 -0.00240545 0)
(0.000416192 -0.00245514 0)
(0.000383609 -0.00250428 0)
(0.000352503 -0.00255267 4.39695e-21)
(0.000322894 -0.0026001 2.67991e-21)
(0.00029479 -0.00264638 -1.71704e-21)
(0.000268184 -0.00269131 -1.1749e-21)
(0.000243058 -0.00273469 1.4184e-21)
(0.000219382 -0.00277632 1.20726e-21)
(0.000197116 -0.00281603 -1.38604e-21)
(0.000176209 -0.00285364 0)
(0.000156605 -0.00288898 -1.10983e-21)
(0.000138236 -0.00292189 -9.59369e-23)
(0.000121028 -0.00295222 3.31757e-21)
(0.000104899 -0.00297982 5.86362e-23)
(8.97579e-05 -0.00300457 -2.24505e-21)
(7.55069e-05 -0.00302633 1.6671e-21)
(6.20389e-05 -0.00304501 -5.62962e-22)
(4.9239e-05 -0.0030605 -1.41159e-21)
(3.69952e-05 -0.00307272 3.53734e-22)
(2.52495e-05 -0.00308155 -1.21453e-23)
(1.37606e-05 -0.00308652 3.24272e-22)
(0 -0.00308725 0)
(0 -0.00308594 0)
(0 -0.00308458 0)
(0 -0.00308316 0)
(0 -0.00308169 0)
(0 -0.00308016 0)
(0 -0.00307856 0)
(0 -0.00307691 0)
(0 -0.0030752 0)
(0 -0.00307344 0)
(0 -0.00307162 0)
(0 -0.00306975 0)
(0 -0.00306783 0)
(0 -0.00306587 0)
(0 -0.00306386 0)
(0 -0.0030618 0)
(0 -0.00305971 0)
(0 -0.00305758 0)
(0 -0.00305541 0)
(0 -0.00305321 0)
(0 -0.00305097 0)
(0 -0.0030487 0)
(0 -0.00304641 0)
(0 -0.00304408 0)
(0 -0.00304173 0)
(0 -0.00303936 0)
(0 -0.00303696 0)
(0 -0.00303454 0)
(0 -0.0030321 0)
(0 -0.00302964 0)
(0 -0.00302717 0)
(0 -0.00302468 0)
(0 -0.00302217 0)
(0 -0.00301965 0)
(0 -0.00301712 0)
(0 -0.00301457 0)
(0 -0.00301202 0)
(0 -0.00300946 0)
(0 -0.00300689 0)
(0 -0.00300431 0)
(0 -0.00300173 0)
(0 -0.00299914 0)
(0 -0.00299654 0)
(0 -0.00299395 0)
(0 -0.00299135 0)
(0 -0.00298875 0)
(0 -0.00298614 0)
(0 -0.00298354 0)
(0 -0.00298094 0)
(0 -0.00297834 0)
(0 -0.00297574 0)
(0 -0.00297315 0)
(0 -0.00297055 0)
(0 -0.00296797 0)
(0 -0.00296538 0)
(0 -0.0029628 0)
(0 -0.00296023 0)
(0 -0.00295766 0)
(0 -0.0029551 0)
(0 -0.00295254 0)
(0 -0.00295 0)
(0 -0.00294746 0)
(0 -0.00294492 0)
(0 -0.0029424 0)
(0 -0.00293988 0)
(0 -0.00293737 0)
(0 -0.00293487 0)
(0 -0.00293237 0)
(0 -0.00292988 0)
(0 -0.0029274 0)
(0 -0.00292493 0)
(0 -0.00292246 0)
(0 -0.00291999 0)
(0 -0.00291753 0)
(0 -0.00291507 0)
(0 -0.00291261 0)
(0 -0.00291015 0)
(0 -0.0029077 0)
(0 -0.00290523 0)
(0 -0.00289749 0)
(0 -0.0028923 0)
(0 -0.00288668 0)
(0 -0.00288047 0)
(0 -0.00287353 0)
(0 -0.00286575 0)
(0 -0.00285695 0)
(0 -0.00284701 0)
(0 -0.00283578 0)
(0 -0.00282312 0)
(0 -0.00280892 0)
(0 -0.00279308 0)
(0 -0.0027755 0)
(0 -0.0027561 0)
(0 -0.00273482 0)
(0 -0.00271161 0)
(0 -0.00268642 0)
(0 -0.00265922 0)
(0 -0.00262997 0)
(0 -0.00259864 0)
(0 -0.00256522 0)
(0 -0.00252967 0)
(0 -0.00249197 0)
(0 -0.00245212 0)
(0 -0.00241007 0)
(0 -0.00236584 0)
(0 -0.00231943 0)
(0 -0.00227083 0)
(0 -0.00222006 0)
(0 -0.00216715 0)
(0 -0.00211215 0)
(0 -0.00205511 0)
(0 -0.00199609 0)
(0 -0.00193517 0)
(0 -0.00187243 0)
(0 -0.00180793 0)
(0 -0.00174163 0)
(0 -0.0016735 0)
(0 -0.00160359 0)
(0.00269686 -0.000792541 0)
(0.00274177 -0.000745654 0)
(0.00278603 -0.000701391 0)
(0.0028297 -0.000659638 0)
(0.00287266 -0.000620314 0)
(0.00291492 -0.000583296 0)
(0.00295652 -0.000548499 0)
(0.00299748 -0.000515841 0)
(0.00303779 -0.000485284 0)
(0.00307749 -0.000456735 0)
(0.00311659 -0.00043009 0)
(0.00315513 -0.000405318 0)
(0.0031931 -0.000382332 0)
(0.00323055 -0.000360999 0)
(0.0032675 -0.000341277 0)
(0.00330397 -0.000323087 0)
(0.00333997 -0.00030634 0)
(0.00337555 -0.000290971 0)
(0.00341072 -0.000276924 0)
(0.00344551 -0.000264137 0)
(0.00347994 -0.000252499 0)
(0.00351406 -0.000241953 0)
(0.00354786 -0.000232472 0)
(0.00358136 -0.00022397 0)
(0.00361459 -0.000216373 0)
(0.00364759 -0.000209639 0)
(0.00368036 -0.000203732 0)
(0.0037129 -0.000198582 0)
(0.00374525 -0.000194135 0)
(0.00377743 -0.000190345 0)
(0.00380944 -0.000187161 0)
(0.00384131 -0.000184534 0)
(0.00387305 -0.000182429 0)
(0.00390466 -0.000180807 0)
(0.00393616 -0.000179624 0)
(0.00396756 -0.000178831 0)
(0.00399888 -0.000178408 0)
(0.00403013 -0.000178329 0)
(0.0040613 -0.000178534 0)
(0.0040924 -0.000178989 0)
(0.00412344 -0.000179675 0)
(0.00415444 -0.000180559 0)
(0.00418538 -0.000181597 0)
(0.00421628 -0.000182763 0)
(0.00424713 -0.000184026 0)
(0.00427793 -0.000185358 0)
(0.00430867 -0.000186733 0)
(0.00433932 -0.000188129 0)
(0.00436984 -0.00018954 0)
(0.0044001 -0.000191041 0)
(0.00442988 -0.000192898 0)
(0.00445894 -0.000195542 0)
(0.00448842 -0.000198763 0)
(0.00452228 -0.000196078 0)
(0.00454453 -0.000176032 0)
(0.00458412 -0.000168683 0)
(0.00463858 -0.000187073 0)
(0.00466971 -0.000194782 0)
(0.00469661 -0.000196368 0)
(0.00472323 -0.000196864 0)
(0.00475073 -0.000197043 0)
(0.004779 -0.000196891 0)
(0.00480787 -0.000196357 0)
(0.00483713 -0.000195463 0)
(0.00486666 -0.000194174 0)
(0.00489634 -0.000192421 0)
(0.00492616 -0.000190195 0)
(0.00495607 -0.000187469 0)
(0.00498606 -0.000184207 0)
(0.00501609 -0.00018037 0)
(0.00504613 -0.000175918 0)
(0.00507613 -0.000170823 0)
(0.00510603 -0.000165085 0)
(0.00513576 -0.000158756 0)
(0.00516532 -0.000151925 0)
(0.00519479 -0.000144648 0)
(0.00522429 -0.000136844 0)
(0.00525395 -0.000128309 0)
(0.00528376 -0.000118774 0)
(0.00261624 -0.000857109 0)
(0.00259474 -0.000866651 0)
(0.00257356 -0.000876069 0)
(0.00255259 -0.000885445 0)
(0.00253177 -0.00089481 0)
(0.00251112 -0.000904176 0)
(0.00249062 -0.000913548 0)
(0.00247028 -0.000922927 0)
(0.00245009 -0.000932312 0)
(0.00243006 -0.000941701 0)
(0.00241018 -0.000951093 0)
(0.00239046 -0.000960487 0)
(0.00237088 -0.00096988 0)
(0.00235144 -0.000979272 0)
(0.00233215 -0.000988662 0)
(0.002313 -0.000998048 0)
(0.00229399 -0.00100743 0)
(0.00227512 -0.0010168 0)
(0.00225638 -0.00102617 0)
(0.00223777 -0.00103552 0)
(0.00221929 -0.00104487 0)
(0.00220094 -0.0010542 0)
(0.00218272 -0.00106351 0)
(0.00216462 -0.00107281 0)
(0.00214663 -0.00108209 0)
(0.00212876 -0.00109135 0)
(0.00211101 -0.0011006 0)
(0.00209337 -0.00110982 0)
(0.00207584 -0.00111902 0)
(0.00205841 -0.00112819 0)
(0.00204107 -0.00113734 0)
(0.00202381 -0.00114652 0)
(0.00200662 -0.0011557 0)
(0.00198954 -0.00116481 0)
(0.00197257 -0.00117385 0)
(0.0019557 -0.00118286 0)
(0.00193888 -0.00119186 0)
(0.00192213 -0.00120085 0)
(0.00190544 -0.00120981 0)
(0.00188882 -0.00121875 0)
(0.00187226 -0.00122766 0)
(0.00185575 -0.00123655 0)
(0.0018393 -0.00124542 0)
(0.0018229 -0.00125425 0)
(0.00180654 -0.00126307 0)
(0.00179023 -0.00127186 0)
(0.00177396 -0.00128062 0)
(0.00175771 -0.00128937 0)
(0.0017415 -0.00129809 0)
(0.00172531 -0.00130679 0)
(0.00170913 -0.00131547 0)
(0.00169296 -0.00132414 0)
(0.00167681 -0.00133279 0)
(0.00166065 -0.0013414 0)
(0.0016445 -0.00134998 0)
(0.00162835 -0.00135857 0)
(0.00161218 -0.00136715 0)
(0.001596 -0.00137572 0)
(0.0015798 -0.00138428 0)
(0.00156357 -0.00139284 0)
(0.00154731 -0.00140138 0)
(0.00153102 -0.00140993 0)
(0.00151469 -0.00141847 0)
(0.00149832 -0.00142701 0)
(0.00148189 -0.00143556 0)
(0.0014654 -0.00144411 0)
(0.00144883 -0.00145269 0)
(0.00143219 -0.0014613 0)
(0.00141547 -0.0014699 0)
(0.00139867 -0.00147853 0)
(0.00138177 -0.00148718 0)
(0.00136478 -0.00149586 0)
(0.00134768 -0.00150457 0)
(0.00133048 -0.00151332 0)
(0.00131314 -0.00152209 0)
(0.00129567 -0.0015309 0)
(0.00127808 -0.00153976 0)
(0.00126039 -0.00154867 0)
(0.00124269 -0.00155773 0)
(0.000115773 -0.00154686 -3.23169e-21)
(0.000247676 -0.00155641 -2.91652e-21)
(0.000381343 -0.00156756 1.73128e-20)
(0.000511551 -0.00158488 3.25643e-22)
(0.000639586 -0.00160637 2.59859e-20)
(0.00076427 -0.00163197 3.02645e-21)
(0.000885636 -0.00166076 -5.17815e-20)
(0.00100344 -0.00169211 -1.39128e-20)
(0.00111768 -0.00172528 -1.2525e-20)
(0.00122846 -0.00175953 7.73182e-21)
(0.00133584 -0.00179426 2.17535e-20)
(0.00143988 -0.00182882 -1.74093e-20)
(0.00154049 -0.00186255 -8.90911e-22)
(0.00163741 -0.00189462 1.10148e-21)
(0.00173016 -0.00192391 -9.94751e-21)
(0.0018182 -0.00194889 -6.80522e-21)
(0.00190091 -0.0019678 -1.55118e-20)
(0.00197797 -0.00197896 -1.93912e-20)
(0.00204928 -0.001981 -8.06599e-21)
(0.00211478 -0.00197271 4.84448e-22)
(0.00217472 -0.00195348 5.12042e-22)
(0.00223068 -0.00192515 5.91775e-21)
(0.00228531 -0.0018927 -1.30853e-21)
(0.00234007 -0.00185967 -1.32638e-20)
(0.00239484 -0.00182653 -1.3878e-21)
(0.00244949 -0.00179325 6.21737e-21)
(0.0025039 -0.00175978 -6.31803e-21)
(0.00255796 -0.00172611 -1.64406e-21)
(0.00261159 -0.00169227 6.23219e-21)
(0.00266471 -0.00165824 -2.02672e-21)
(0.00271726 -0.00162406 -8.28448e-21)
(0.00276918 -0.00158974 -5.06318e-24)
(0.00282041 -0.0015553 6.2527e-21)
(0.00287091 -0.00152077 -1.1046e-20)
(0.00292063 -0.00148616 1.27783e-21)
(0.00296955 -0.00145151 6.21117e-21)
(0.00301763 -0.00141683 -3.43824e-21)
(0.00306483 -0.00138214 1.14143e-20)
(0.00311114 -0.00134745 1.43645e-20)
(0.00320097 -0.00127819 -2.96779e-21)
(0.00324446 -0.00124363 -2.98306e-21)
(0.00328696 -0.00120914 -1.71466e-20)
(0.00332847 -0.00117473 -8.702e-21)
(0.00336897 -0.00114041 1.39193e-20)
(0.00340844 -0.00110619 3.22676e-21)
(0.00344688 -0.00107207 8.15942e-21)
(0.00348426 -0.00103806 2.34099e-22)
(0.00352058 -0.00100416 -1.151e-20)
(0.00355583 -0.000970392 1.28021e-20)
(0.00358999 -0.000936742 1.43783e-20)
(0.00362305 -0.000903218 -1.2083e-21)
(0.00365501 -0.000869822 -4.43199e-21)
(0.00368587 -0.000836554 -7.35089e-21)
(0.0037156 -0.000803416 -1.66833e-22)
(0.00374421 -0.000770405 1.7452e-22)
(0.00377168 -0.000737522 3.47881e-21)
(0.00379802 -0.000704763 2.02772e-20)
(0.00382322 -0.000672127 -9.74759e-21)
(0.00384727 -0.00063961 -1.32188e-20)
(0.00387016 -0.000607209 9.30267e-21)
(0.00389191 -0.000574919 5.98944e-21)
(0.00391249 -0.000542735 3.65626e-22)
(0.00393191 -0.000510653 5.63875e-21)
(0.00395016 -0.000478666 8.64015e-22)
(0.00396725 -0.000446769 -1.09107e-20)
(0.00398316 -0.000414955 -3.49712e-21)
(0.0039979 -0.000383218 7.07897e-21)
(0.00401147 -0.00035155 7.07579e-21)
(0.00402385 -0.000319944 -6.43998e-21)
(0.00403505 -0.000288392 -6.4401e-21)
(0.00404507 -0.000256885 -3.3782e-21)
(0.0040539 -0.000225415 1.34962e-21)
(0.00406153 -0.000193972 3.48104e-21)
(0.00406797 -0.000162544 -5.9191e-21)
(0.00407319 -0.000131118 -2.15831e-21)
(0.0040772 -9.96651e-05 4.83765e-22)
(0.00407992 -6.81294e-05 -6.6937e-22)
(0.00408113 -3.65111e-05 3.08805e-21)
(0.00313782 -0.00128381 0)
(0.00311261 -0.00126157 0)
(0.00308853 -0.0012404 0)
(0.0030655 -0.00122023 0)
(0.00304347 -0.001201 0)
(0.00302237 -0.00118264 0)
(0.00300216 -0.0011651 0)
(0.00298279 -0.00114834 0)
(0.00296422 -0.00113231 0)
(0.0029464 -0.00111697 0)
(0.00292931 -0.00110228 0)
(0.00291291 -0.0010882 0)
(0.00289716 -0.00107471 0)
(0.00288204 -0.00106176 0)
(0.00286752 -0.00104932 0)
(0.00285357 -0.00103738 0)
(0.00284017 -0.0010259 0)
(0.0028273 -0.00101486 0)
(0.00281493 -0.00100423 0)
(0.00280304 -0.000993994 0)
(0.00279162 -0.000984131 0)
(0.00278064 -0.000974619 0)
(0.00277009 -0.00096544 0)
(0.00275994 -0.000956578 0)
(0.0027502 -0.000948015 0)
(0.00274083 -0.000939736 0)
(0.00273182 -0.000931727 0)
(0.00272317 -0.000923974 0)
(0.00271485 -0.000916464 0)
(0.00270687 -0.000909186 0)
(0.00269919 -0.000902129 0)
(0.00269183 -0.000895284 0)
(0.00268475 -0.000888644 0)
(0.00267797 -0.000882205 0)
(0.00267147 -0.000875966 0)
(0.00266527 -0.000869933 0)
(0.00265936 -0.000864113 0)
(0.00265373 -0.000858515 0)
(0.00264836 -0.000853144 0)
(0.00313782 -0.00128381 0)
(0.00311261 -0.00126157 0)
(0.00308853 -0.0012404 0)
(0.0030655 -0.00122023 0)
(0.00304347 -0.001201 0)
(0.00302237 -0.00118264 0)
(0.00300216 -0.0011651 0)
(0.00298279 -0.00114834 0)
(0.00296422 -0.00113231 0)
(0.0029464 -0.00111697 0)
(0.00292931 -0.00110228 0)
(0.00291291 -0.0010882 0)
(0.00289716 -0.00107471 0)
(0.00288204 -0.00106176 0)
(0.00286752 -0.00104932 0)
(0.00285357 -0.00103738 0)
(0.00284017 -0.0010259 0)
(0.0028273 -0.00101486 0)
(0.00281493 -0.00100423 0)
(0.00280304 -0.000993994 0)
(0.00279162 -0.000984131 0)
(0.00278064 -0.000974619 0)
(0.00277009 -0.00096544 0)
(0.00275994 -0.000956578 0)
(0.0027502 -0.000948015 0)
(0.00274083 -0.000939736 0)
(0.00273182 -0.000931727 0)
(0.00272317 -0.000923974 0)
(0.00271485 -0.000916464 0)
(0.00270687 -0.000909186 0)
(0.00269919 -0.000902129 0)
(0.00269183 -0.000895284 0)
(0.00268475 -0.000888644 0)
(0.00267797 -0.000882205 0)
(0.00267147 -0.000875966 0)
(0.00266527 -0.000869933 0)
(0.00265936 -0.000864113 0)
(0.00265373 -0.000858515 0)
(0.00264836 -0.000853144 0)
(0.00257473 -0.000895976 0)
(0.00250986 -0.000942678 0)
(0.00244459 -0.000991919 0)
(0.00237856 -0.00104216 0)
(0.00231222 -0.00109347 0)
(0.00224578 -0.00114589 0)
(0.00217928 -0.00119939 0)
(0.00211274 -0.0012539 0)
(0.00204619 -0.00130935 0)
(0.00197969 -0.00136567 0)
(0.00191327 -0.00142279 0)
(0.00184696 -0.00148064 0)
(0.00178079 -0.00153911 0)
(0.00171477 -0.00159811 0)
(0.00164895 -0.00165751 0)
(0.00158332 -0.00171716 0)
(0.00151793 -0.00177686 0)
(0.00145286 -0.00183637 0)
(0.00138795 -0.00189568 0)
(0.00132251 -0.00195538 0)
(0.00125566 -0.00201635 0)
(0.00118667 -0.00207938 0)
(0.00111545 -0.00214465 0)
(0.00104256 -0.00221151 0)
(0.000968768 -0.00227903 0)
(0.00089476 -0.00234628 0)
(0.000821093 -0.00241244 0)
(0.000748235 -0.00247674 0)
(0.000676616 -0.00253842 0)
(0.000606607 -0.00259675 0)
(0.000538466 -0.0026511 0)
(0.000472371 -0.00270092 0)
(0.000408414 -0.00274576 0)
(0.000346515 -0.00278532 0)
(0.00028642 -0.00281943 0)
(0.000227672 -0.00284801 0)
(0.000169863 -0.00287097 0)
(0.000112728 -0.002888 0)
(5.60175e-05 -0.00289867 0)
(0 -0.00289749 0)
(0 -0.0028923 0)
(0 -0.00288668 0)
(0 -0.00288047 0)
(0 -0.00287353 0)
(0 -0.00286575 0)
(0 -0.00285695 0)
(0 -0.00284701 0)
(0 -0.00283578 0)
(0 -0.00282312 0)
(0 -0.00280892 0)
(0 -0.00279308 0)
(0 -0.0027755 0)
(0 -0.0027561 0)
(0 -0.00273482 0)
(0 -0.00271161 0)
(0 -0.00268642 0)
(0 -0.00265922 0)
(0 -0.00262997 0)
(0 -0.00259864 0)
(0 -0.00256522 0)
(0 -0.00252967 0)
(0 -0.00249197 0)
(0 -0.00245212 0)
(0 -0.00241007 0)
(0 -0.00236584 0)
(0 -0.00231943 0)
(0 -0.00227083 0)
(0 -0.00222006 0)
(0 -0.00216715 0)
(0 -0.00211215 0)
(0 -0.00205511 0)
(0 -0.00199609 0)
(0 -0.00193517 0)
(0 -0.00187243 0)
(0 -0.00180793 0)
(0 -0.00174163 0)
(0 -0.0016735 0)
(0 -0.00160359 0)
(0.000115773 -0.00154686 -3.23169e-21)
(0.000247676 -0.00155641 -2.91652e-21)
(0.000381343 -0.00156756 1.73128e-20)
(0.000511551 -0.00158488 3.25643e-22)
(0.000639586 -0.00160637 2.59859e-20)
(0.00076427 -0.00163197 3.02645e-21)
(0.000885636 -0.00166076 -5.17815e-20)
(0.00100344 -0.00169211 -1.39128e-20)
(0.00111768 -0.00172528 -1.2525e-20)
(0.00122846 -0.00175953 7.73182e-21)
(0.00133584 -0.00179426 2.17535e-20)
(0.00143988 -0.00182882 -1.74093e-20)
(0.00154049 -0.00186255 -8.90911e-22)
(0.00163741 -0.00189462 1.10148e-21)
(0.00173016 -0.00192391 -9.94751e-21)
(0.0018182 -0.00194889 -6.80522e-21)
(0.00190091 -0.0019678 -1.55118e-20)
(0.00197797 -0.00197896 -1.93912e-20)
(0.00204928 -0.001981 -8.06599e-21)
(0.00211478 -0.00197271 4.84448e-22)
(0.00217472 -0.00195348 5.12042e-22)
(0.00223068 -0.00192515 5.91775e-21)
(0.00228531 -0.0018927 -1.30853e-21)
(0.00234007 -0.00185967 -1.32638e-20)
(0.00239484 -0.00182653 -1.3878e-21)
(0.00244949 -0.00179325 6.21737e-21)
(0.0025039 -0.00175978 -6.31803e-21)
(0.00255796 -0.00172611 -1.64406e-21)
(0.00261159 -0.00169227 6.23219e-21)
(0.00266471 -0.00165824 -2.02672e-21)
(0.00271726 -0.00162406 -8.28448e-21)
(0.00276918 -0.00158974 -5.06318e-24)
(0.00282041 -0.0015553 6.2527e-21)
(0.00287091 -0.00152077 -1.1046e-20)
(0.00292063 -0.00148616 1.27783e-21)
(0.00296955 -0.00145151 6.21117e-21)
(0.00301763 -0.00141683 -3.43824e-21)
(0.00306483 -0.00138214 1.14143e-20)
(0.00311114 -0.00134745 1.43645e-20)
(0.00320097 -0.00127819 -2.96779e-21)
(0.00324446 -0.00124363 -2.98306e-21)
(0.00328696 -0.00120914 -1.71466e-20)
(0.00332847 -0.00117473 -8.702e-21)
(0.00336897 -0.00114041 1.39193e-20)
(0.00340844 -0.00110619 3.22676e-21)
(0.00344688 -0.00107207 8.15942e-21)
(0.00348426 -0.00103806 2.34099e-22)
(0.00352058 -0.00100416 -1.151e-20)
(0.00355583 -0.000970392 1.28021e-20)
(0.00358999 -0.000936742 1.43783e-20)
(0.00362305 -0.000903218 -1.2083e-21)
(0.00365501 -0.000869822 -4.43199e-21)
(0.00368587 -0.000836554 -7.35089e-21)
(0.0037156 -0.000803416 -1.66833e-22)
(0.00374421 -0.000770405 1.7452e-22)
(0.00377168 -0.000737522 3.47881e-21)
(0.00379802 -0.000704763 2.02772e-20)
(0.00382322 -0.000672127 -9.74759e-21)
(0.00384727 -0.00063961 -1.32188e-20)