/*--------------------------------*- C++ -*----------------------------------*\
| =========                 |                                                 |
| \\      /  F ield         | OpenFOAM: The Open Source CFD Toolbox           |
|  \\    /   O peration     | Version:  v2012                                 |
|   \\  /    A nd           | Website:  www.openfoam.com                      |
|    \\/     M anipulation  |                                                 |
\*---------------------------------------------------------------------------*/
FoamFile
{
    version     2.0;
    format      ascii;
    class       volScalarField;
    location    "10";
    object      sigmaEq;
}
// * * * * * * * * * * * * * * * * * * * * * * * * * * * * * * * * * * * * * //

dimensions      [1 -1 -2 0 0 0 0];


internalField   nonuniform List<scalar> 
32000
(
2.43e+08
2.43e+08
2.43e+08
2.43e+08
2.43e+08
2.43e+08
2.43e+08
2.43e+08
2.43e+08
2.43e+08
2.43e+08
2.43e+08
2.43e+08
2.43e+08
2.43e+08
2.43e+08
2.43e+08
2.43e+08
2.43e+08
2.43e+08
2.43e+08
2.43e+08
2.43e+08
2.43e+08
2.43e+08
2.43e+08
2.43e+08
2.43e+08
2.43e+08
2.43e+08
2.43e+08
2.43e+08
2.43e+08
2.43e+08
2.43e+08
2.43e+08
2.43e+08
2.43e+08
2.43e+08
2.43e+08
2.43e+08
2.43e+08
2.43e+08
2.43e+08
2.43e+08
2.43e+08
2.43e+08
2.43e+08
2.43e+08
2.43e+08
2.43e+08
2.43e+08
2.43e+08
2.43e+08
2.43e+08
2.43e+08
2.43e+08
2.43e+08
2.43e+08
2.43e+08
2.43e+08
2.43e+08
2.43e+08
2.43e+08
2.43e+08
2.43e+08
2.43e+08
2.43e+08
2.43e+08
2.43e+08
2.43e+08
2.43e+08
2.43e+08
2.43e+08
2.43e+08
2.43e+08
2.39524e+08
2.41184e+08
2.32427e+08
2.34134e+08
2.43e+08
2.43e+08
2.43e+08
2.43e+08
2.43e+08
2.43e+08
2.43e+08
2.43e+08
2.43e+08
2.43e+08
2.43e+08
2.43e+08
2.43e+08
2.43e+08
2.43e+08
2.43e+08
2.43e+08
2.43e+08
2.43e+08
2.43e+08
2.43e+08
2.43e+08
2.43e+08
2.43e+08
2.43e+08
2.43e+08
2.43e+08
2.43e+08
2.43e+08
2.43e+08
2.43e+08
2.43e+08
2.43e+08
2.43e+08
2.43e+08
2.43e+08
2.43e+08
2.43e+08
2.43e+08
2.43e+08
2.43e+08
2.43e+08
2.43e+08
2.43e+08
2.43e+08
2.43e+08
2.43e+08
2.43e+08
2.43e+08
2.43e+08
2.43e+08
2.43e+08
2.43e+08
2.43e+08
2.43e+08
2.43e+08
2.43e+08
2.43e+08
2.43e+08
2.43e+08
2.43e+08
2.43e+08
2.43e+08
2.43e+08
2.43e+08
2.43e+08
2.43e+08
2.43e+08
2.43e+08
2.43e+08
2.43e+08
2.43e+08
2.43e+08
2.43e+08
2.43e+08
2.43e+08
2.40242e+08
2.41856e+08
2.33467e+08
2.35403e+08
2.43e+08
2.43e+08
2.43e+08
2.43e+08
2.43e+08
2.43e+08
2.43e+08
2.43e+08
2.43e+08
2.43e+08
2.43e+08
2.43e+08
2.43e+08
2.43e+08
2.43e+08
2.43e+08
2.43e+08
2.43e+08
2.43e+08
2.43e+08
2.43e+08
2.43e+08
2.43e+08
2.43e+08
2.43e+08
2.43e+08
2.43e+08
2.43e+08
2.43e+08
2.43e+08
2.43e+08
2.43e+08
2.43e+08
2.43e+08
2.43e+08
2.43e+08
2.43e+08
2.43e+08
2.43e+08
2.43e+08
2.43e+08
2.43e+08
2.43e+08
2.43e+08
2.43e+08
2.43e+08
2.43e+08
2.43e+08
2.43e+08
2.43e+08
2.43e+08
2.43e+08
2.43e+08
2.43e+08
2.43e+08
2.43e+08
2.43e+08
2.43e+08
2.43e+08
2.43e+08
2.43e+08
2.43e+08
2.43e+08
2.43e+08
2.43e+08
2.43e+08
2.43e+08
2.43e+08
2.43e+08
2.43e+08
2.43e+08
2.43e+08
2.43e+08
2.43e+08
2.43e+08
2.43e+08
2.42308e+08
2.43e+08
2.36374e+08
2.39148e+08
2.43e+08
2.43e+08
2.43e+08
2.43e+08
2.43e+08
2.43e+08
2.43e+08
2.43e+08
2.43e+08
2.43e+08
2.43e+08
2.43e+08
2.43e+08
2.43e+08
2.43e+08
2.43e+08
2.43e+08
2.43e+08
2.43e+08
2.43e+08
2.43e+08
2.43e+08
2.43e+08
2.43e+08
2.43e+08
2.43e+08
2.43e+08
2.43e+08
2.43e+08
2.43e+08
2.43e+08
2.43e+08
2.43e+08
2.43e+08
2.43e+08
2.43e+08
2.43e+08
2.43e+08
2.43e+08
2.43e+08
2.43e+08
2.43e+08
2.43e+08
2.43e+08
2.43e+08
2.43e+08
2.43e+08
2.43e+08
2.43e+08
2.43e+08
2.43e+08
2.43e+08
2.43e+08
2.43e+08
2.43e+08
2.43e+08
2.43e+08
2.43e+08
2.43e+08
2.43e+08
2.43e+08
2.43e+08
2.43e+08
2.43e+08
2.43e+08
2.43e+08
2.43e+08
2.43e+08
2.43e+08
2.43e+08
2.43e+08
2.43e+08
2.43e+08
2.43e+08
2.43e+08
2.43e+08
2.43e+08
2.43e+08
2.40389e+08
2.42864e+08
2.43e+08
2.43e+08
2.43e+08
2.43e+08
2.43e+08
2.43e+08
2.43e+08
2.43e+08
2.43e+08
2.43e+08
2.43e+08
2.43e+08
2.43e+08
2.43e+08
2.43e+08
2.43e+08
2.43e+08
2.43e+08
2.43e+08
2.43e+08
2.43e+08
2.43e+08
2.43e+08
2.43e+08
2.43e+08
2.43e+08
2.43e+08
2.43e+08
2.43e+08
2.43e+08
2.43e+08
2.43e+08
2.43e+08
2.43e+08
2.43e+08
2.43e+08
2.43e+08
2.43e+08
2.43e+08
2.43e+08
2.43e+08
2.43e+08
2.43e+08
2.43e+08
2.43e+08
2.43e+08
2.43e+08
2.43e+08
2.43e+08
2.43e+08
2.43e+08
2.43e+08
2.43e+08
2.43e+08
2.43e+08
2.43e+08
2.43e+08
2.43e+08
2.43e+08
2.43e+08
2.43e+08
2.43e+08
2.43e+08
2.43e+08
2.43e+08
2.43e+08
2.43e+08
2.43e+08
2.43e+08
2.43e+08
2.43e+08
2.43e+08
2.43e+08
2.43e+08
2.43e+08
2.43e+08
2.43e+08
2.43e+08
2.43e+08
2.43e+08
2.43e+08
2.43e+08
2.43e+08
2.43e+08
2.43e+08
2.43e+08
2.43e+08
2.43e+08
2.43e+08
2.43e+08
2.43e+08
2.43e+08
2.43e+08
2.43e+08
2.43e+08
2.43e+08
2.43e+08
2.43e+08
2.43e+08
2.43e+08
2.43e+08
2.43e+08
2.43e+08
2.43e+08
2.43e+08
2.43e+08
2.43e+08
2.43e+08
2.43e+08
2.43e+08
2.43e+08
2.43e+08
2.43e+08
2.43e+08
2.43e+08
2.43e+08
2.43e+08
2.43e+08
2.43e+08
2.43e+08
2.43e+08
2.43e+08
2.43e+08
2.43e+08
2.43e+08
2.43e+08
2.43e+08
2.43e+08
2.43e+08
2.43e+08
2.43e+08
2.43e+08
2.43e+08
2.43e+08
2.43e+08
2.43e+08
2.43e+08
2.43e+08
2.43e+08
2.43e+08
2.43e+08
2.43e+08
2.43e+08
2.43e+08
2.43e+08
2.43e+08
2.43e+08
2.43e+08
2.43e+08
2.43e+08
2.43e+08
2.43e+08
2.43e+08
2.43e+08
2.43e+08
2.43e+08
2.43e+08
2.43e+08
2.43e+08
2.43e+08
2.43e+08
2.43e+08
2.43e+08
2.43e+08
2.43e+08
2.43e+08
2.43e+08
2.43e+08
2.43e+08
2.43e+08
2.43e+08
2.43e+08
2.43e+08
2.43e+08
2.43e+08
2.43e+08
2.43e+08
2.43e+08
2.43e+08
2.43e+08
2.43e+08
2.43e+08
2.43e+08
2.43e+08
2.43e+08
2.43e+08
2.43e+08
2.43e+08
2.43e+08
2.43e+08
2.43e+08
2.43e+08
2.43e+08
2.43e+08
2.43e+08
2.43e+08
2.43e+08
2.43e+08
2.43e+08
2.43e+08
2.43e+08
2.43e+08
2.43e+08
2.43e+08
2.43e+08
2.43e+08
2.43e+08
2.43e+08
2.43e+08
2.43e+08
2.43e+08
2.43e+08
2.43e+08
2.43e+08
2.43e+08
2.43e+08
2.43e+08
2.43e+08
2.43e+08
2.43e+08
2.43e+08
2.43e+08
2.43e+08
2.43e+08
2.43e+08
2.43e+08
2.43e+08
2.43e+08
2.43e+08
2.43e+08
2.43e+08
2.43e+08
2.43e+08
2.43e+08
2.43e+08
2.43e+08
2.43e+08
2.43e+08
2.43e+08
2.43e+08
2.43e+08
2.43e+08
2.43e+08
2.43e+08
2.43e+08
2.43e+08
2.43e+08
2.43e+08
2.43e+08
2.43e+08
2.43e+08
2.43e+08
2.43e+08
2.43e+08
2.43e+08
2.43e+08
2.43e+08
2.43e+08
2.43e+08
2.43e+08
2.43e+08
2.43e+08
2.43e+08
2.43e+08
2.43e+08
2.43e+08
2.43e+08
2.43e+08
2.43e+08
2.43e+08
2.43e+08
2.43e+08
2.43e+08
2.43e+08
2.43e+08
2.43e+08
2.43e+08
2.43e+08
2.43e+08
2.43e+08
2.43e+08
2.43e+08
2.43e+08
2.43e+08
2.43e+08
2.43e+08
2.43e+08
2.43e+08
2.43e+08
2.43e+08
2.43e+08
2.43e+08
2.43e+08
2.43e+08
2.43e+08
2.43e+08
2.43e+08
2.43e+08
2.43e+08
2.43e+08
2.43e+08
2.43e+08
2.43e+08
2.43e+08
2.43e+08
2.43e+08
2.43e+08
2.43e+08
2.43e+08
2.43e+08
2.43e+08
2.43e+08
2.43e+08
2.43e+08
2.43e+08
2.43e+08
2.43e+08
2.43e+08
2.43e+08
2.43e+08
2.43e+08
2.43e+08
2.43e+08
2.43e+08
2.43e+08
2.43e+08
2.43e+08
2.43e+08
2.43e+08
2.43e+08
2.43e+08
2.43e+08
2.43e+08
2.43e+08
2.43e+08
2.43e+08
2.43e+08
2.43e+08
2.43e+08
2.43e+08
2.43e+08
2.43e+08
2.43e+08
2.43e+08
2.43e+08
2.43e+08
2.43e+08
2.43e+08
2.43e+08
2.43e+08
2.43e+08
2.43e+08
2.43e+08
2.43e+08
2.43e+08
2.43e+08
2.43e+08
2.43e+08
2.43e+08
2.43e+08
2.43e+08
2.43e+08
2.43e+08
2.43e+08
2.43e+08
2.43e+08
2.43e+08
2.43e+08
2.43e+08
2.43e+08
2.43e+08
2.43e+08
2.43e+08
2.43e+08
2.43e+08
2.43e+08
2.43e+08
2.43e+08
2.43e+08
2.43e+08
2.43e+08
2.43e+08
2.43e+08
2.43e+08
2.43e+08
2.43e+08
2.43e+08
2.43e+08
2.43e+08
2.43e+08
2.43e+08
2.43e+08
2.43e+08
2.43e+08
2.43e+08
2.43e+08
2.43e+08
2.43e+08
2.43e+08
2.43e+08
2.43e+08
2.43e+08
2.43e+08
2.43e+08
2.43e+08
2.43e+08
2.43e+08
2.43e+08
2.43e+08
2.43e+08
2.43e+08
2.43e+08
2.43e+08
2.43e+08
2.43e+08
2.43e+08
2.43e+08
2.43e+08
2.43e+08
2.43e+08
2.43e+08
2.43e+08
2.43e+08
2.43e+08
2.43e+08
2.43e+08
2.43e+08
2.43e+08
2.43e+08
2.43e+08
2.43e+08
2.43e+08
2.43e+08
2.43e+08
2.43e+08
2.43e+08
2.43e+08
2.43e+08
2.43e+08
2.43e+08
2.43e+08
2.43e+08
2.43e+08
2.43e+08
2.43e+08
2.43e+08
2.43e+08
2.43e+08
2.43e+08
2.43e+08
2.43e+08
2.43e+08
2.43e+08
2.43e+08
2.43e+08
2.43e+08
2.43e+08
2.43e+08
2.43e+08
2.43e+08
2.43e+08
2.43e+08
2.43e+08
2.43e+08
2.43e+08
2.43e+08
2.43e+08
2.43e+08
2.43e+08
2.43e+08
2.43e+08
2.43e+08
2.43e+08
2.43e+08
2.43e+08
2.43e+08
2.43e+08
2.43e+08
2.43e+08
2.43e+08
2.43e+08
2.43e+08
2.43e+08
2.43e+08
2.43e+08
2.43e+08
2.43e+08
2.43e+08
2.43e+08
2.43e+08
2.43e+08
2.43e+08
2.43e+08
2.43e+08
2.43e+08
2.43e+08
2.43e+08
2.43e+08
2.43e+08
2.43e+08
2.43e+08
2.43e+08
2.43e+08
2.43e+08
2.43e+08
2.43e+08
2.43e+08
2.43e+08
2.43e+08
2.43e+08
2.43e+08
2.43e+08
2.43e+08
2.43e+08
2.43e+08
2.43e+08
2.43e+08
2.43e+08
2.43e+08
2.43e+08
2.43e+08
2.43e+08
2.43e+08
2.43e+08
2.43e+08
2.43e+08
2.43e+08
2.43e+08
2.43e+08
2.43e+08
2.43e+08
2.43e+08
2.43e+08
2.43e+08
2.43e+08
2.43e+08
2.43e+08
2.43e+08
2.43e+08
2.43e+08
2.43e+08
2.43e+08
2.43e+08
2.43e+08
2.43e+08
2.43e+08
2.43e+08
2.43e+08
2.43e+08
2.43e+08
2.43e+08
2.43e+08
2.43e+08
2.43e+08
2.43e+08
2.43e+08
2.43e+08
2.43e+08
2.43e+08
2.43e+08
2.43e+08
2.43e+08
2.43e+08
2.43e+08
2.43e+08
2.43e+08
2.43e+08
2.43e+08
2.43e+08
2.43e+08
2.43e+08
2.43e+08
2.43e+08
2.43e+08
2.43e+08
2.43e+08
2.43e+08
2.43e+08
2.43e+08
2.43e+08
2.43e+08
2.43e+08
2.43e+08
2.43e+08
2.43e+08
2.43e+08
2.43e+08
2.43e+08
2.43e+08
2.43e+08
2.43e+08
2.43e+08
2.43e+08
2.43e+08
2.43e+08
2.43e+08
2.43e+08
2.43e+08
2.43e+08
2.43e+08
2.43e+08
2.43e+08
2.43e+08
2.43e+08
2.43e+08
2.43e+08
2.43e+08
2.43e+08
2.43e+08
2.43e+08
2.43e+08
2.43e+08
2.43e+08
2.43e+08
2.43e+08
2.43e+08
2.43e+08
2.43e+08
2.43e+08
2.43e+08
2.43e+08
2.43e+08
2.43e+08
2.43e+08
2.43e+08
2.43e+08
2.43e+08
2.43e+08
2.43e+08
2.43e+08
2.43e+08
2.43e+08
2.43e+08
2.43e+08
2.43e+08
2.43e+08
2.43e+08
2.43e+08
2.43e+08
2.43e+08
2.43e+08
2.43e+08
2.43e+08
2.43e+08
2.43e+08
2.43e+08
2.43e+08
2.43e+08
2.43e+08
2.43e+08
2.43e+08
2.43e+08
2.43e+08
2.43e+08
2.43e+08
2.43e+08
2.43e+08
2.43e+08
2.43e+08
2.43e+08
2.43e+08
2.43e+08
2.43e+08
2.43e+08
2.43e+08
2.43e+08
2.43e+08
2.43e+08
2.43e+08
2.43e+08
2.43e+08
2.43e+08
2.43e+08
2.43e+08
2.43e+08
2.43e+08
2.43e+08
2.43e+08
2.43e+08
2.43e+08
2.43e+08
2.43e+08
2.43e+08
2.43e+08
2.43e+08
2.43e+08
2.43e+08
2.43e+08
2.43e+08
2.43e+08
2.43e+08
2.43e+08
2.43e+08
2.43e+08
2.43e+08
2.43e+08
2.43e+08
2.43e+08
2.43e+08
2.43e+08
2.43e+08
2.43e+08
2.43e+08
2.43e+08
2.43e+08
2.43e+08
2.43e+08
2.43e+08
2.43e+08
2.43e+08
2.43e+08
2.43e+08
2.43e+08
2.43e+08
2.43e+08
2.43e+08
2.43e+08
2.43e+08
2.43e+08
2.43e+08
2.43e+08
2.43e+08
2.43e+08
2.43e+08
2.43e+08
2.43e+08
2.43e+08
2.43e+08
2.43e+08
2.43e+08
2.43e+08
2.43e+08
2.43e+08
2.43e+08
2.43e+08
2.43e+08
2.43e+08
2.43e+08
2.43e+08
2.43e+08
2.43e+08
2.43e+08
2.43e+08
2.43e+08
2.43e+08
2.43e+08
2.43e+08
2.43e+08
2.43e+08
2.43e+08
2.43e+08
2.43e+08
2.43e+08
2.43e+08
2.43e+08
2.43e+08
2.43e+08
2.43e+08
2.43e+08
2.43e+08
2.43e+08
2.43e+08
2.43e+08
2.43e+08
2.43e+08
2.43e+08
2.43e+08
2.43e+08
2.43e+08
2.43e+08
2.43e+08
2.43e+08
2.43e+08
2.43e+08
2.43e+08
2.43e+08
2.43e+08
2.43e+08
2.43e+08
2.43e+08
2.43e+08
2.43e+08
2.43e+08
2.43e+08
2.43e+08
2.43e+08
2.43e+08
2.43e+08
2.43e+08
2.43e+08
2.43e+08
2.43e+08
2.43e+08
2.43e+08
2.43e+08
2.43e+08
2.43e+08
2.43e+08
2.43e+08
2.43e+08
2.43e+08
2.43e+08
2.43e+08
2.43e+08
2.43e+08
2.43e+08
2.43e+08
2.43e+08
2.43e+08
2.43e+08
2.43e+08
2.43e+08
2.43e+08
2.43e+08
2.43e+08
2.43e+08
2.43e+08
2.43e+08
2.43e+08
2.43e+08
2.43e+08
2.43e+08
2.43e+08
2.43e+08
2.43e+08
2.43e+08
2.43e+08
2.43e+08
2.43e+08
2.43e+08
2.43e+08
2.43e+08
2.43e+08
2.43e+08
2.43e+08
2.43e+08
2.43e+08
2.43e+08
2.43e+08
2.43e+08
2.43e+08
2.43e+08
2.43e+08
2.43e+08
2.43e+08
2.43e+08
2.43e+08
2.43e+08
2.43e+08
2.43e+08
2.43e+08
2.43e+08
2.43e+08
2.43e+08
2.43e+08
2.43e+08
2.43e+08
2.43e+08
2.43e+08
2.43e+08
2.43e+08
2.43e+08
2.43e+08
2.43e+08
2.43e+08
2.43e+08
2.43e+08
2.43e+08
2.43e+08
2.43e+08
2.43e+08
2.43e+08
2.43e+08
2.43e+08
2.43e+08
2.43e+08
2.43e+08
2.43e+08
2.43e+08
2.43e+08
2.43e+08
2.43e+08
2.43e+08
2.43e+08
2.43e+08
2.43e+08
2.43e+08
2.43e+08
2.43e+08
2.43e+08
2.43e+08
2.43e+08
2.43e+08
2.43e+08
2.43e+08
2.43e+08
2.43e+08
2.43e+08
2.43e+08
2.43e+08
2.43e+08
2.43e+08
2.43e+08
2.43e+08
2.43e+08
2.43e+08
2.43e+08
2.43e+08
2.43e+08
2.43e+08
2.43e+08
2.43e+08
2.43e+08
2.43e+08
2.43e+08
2.43e+08
2.43e+08
2.43e+08
2.43e+08
2.43e+08
2.43e+08
2.43e+08
2.43e+08
2.43e+08
2.43e+08
2.43e+08
2.43e+08
2.43e+08
2.43e+08
2.43e+08
2.43e+08
2.43e+08
2.43e+08
2.43e+08
2.43e+08
2.43e+08
2.43e+08
2.43e+08
2.43e+08
2.43e+08
2.43e+08
2.43e+08
2.43e+08
2.43e+08
2.43e+08
2.43e+08
2.43e+08
2.43e+08
2.43e+08
2.43e+08
2.43e+08
2.43e+08
2.43e+08
2.43e+08
2.43e+08
2.43e+08
2.43e+08
2.43e+08
2.43e+08
2.43e+08
2.43e+08
2.43e+08
2.43e+08
2.43e+08
2.43e+08
2.43e+08
2.43e+08
2.43e+08
2.43e+08
2.43e+08
2.43e+08
2.43e+08
2.43e+08
2.43e+08
2.43e+08
2.43e+08
2.43e+08
2.43e+08
2.43e+08
2.43e+08
2.43e+08
2.42162e+08
2.42171e+08
2.41305e+08
2.41635e+08
2.40926e+08
2.41433e+08
2.40756e+08
2.41469e+08
2.40768e+08
2.41727e+08
2.40928e+08
2.42225e+08
2.41219e+08
2.42893e+08
2.41704e+08
2.43e+08
2.42558e+08
2.43e+08
2.43e+08
2.43e+08
2.43e+08
2.43e+08
2.43e+08
2.43e+08
2.43e+08
2.43e+08
2.43e+08
2.43e+08
2.43e+08
2.43e+08
2.43e+08
2.43e+08
2.43e+08
2.43e+08
2.43e+08
2.43e+08
2.43e+08
2.43e+08
2.43e+08
2.43e+08
2.43e+08
2.43e+08
2.43e+08
2.43e+08
2.43e+08
2.43e+08
2.43e+08
2.43e+08
2.43e+08
2.43e+08
2.43e+08
2.43e+08
2.43e+08
2.43e+08
2.43e+08
2.43e+08
2.43e+08
2.43e+08
2.43e+08
2.43e+08
2.43e+08
2.43e+08
2.43e+08
2.43e+08
2.43e+08
2.43e+08
2.43e+08
2.43e+08
2.43e+08
2.43e+08
2.43e+08
2.43e+08
2.43e+08
2.43e+08
2.42521e+08
2.41293e+08
2.39815e+08
2.39725e+08
2.38622e+08
2.38879e+08
2.37812e+08
2.38248e+08
2.37163e+08
2.37816e+08
2.36784e+08
2.37572e+08
2.36676e+08
2.37493e+08
2.36778e+08
2.37557e+08
2.37038e+08
2.37763e+08
2.37432e+08
2.38163e+08
2.37992e+08
2.38767e+08
2.38719e+08
2.39562e+08
2.39525e+08
2.40496e+08
2.40286e+08
2.41594e+08
2.41017e+08
2.42717e+08
2.41882e+08
2.43e+08
2.43e+08
2.43e+08
2.43e+08
2.43e+08
2.43e+08
2.43e+08
2.43e+08
2.43e+08
2.43e+08
2.43e+08
2.43e+08
2.43e+08
2.43e+08
2.43e+08
2.43e+08
2.43e+08
2.43e+08
2.43e+08
2.43e+08
2.43e+08
2.43e+08
2.43e+08
2.43e+08
2.43e+08
2.43e+08
2.43e+08
2.43e+08
2.43e+08
2.43e+08
2.43e+08
2.43e+08
2.43e+08
2.43e+08
2.43e+08
2.43e+08
2.43e+08
2.43e+08
2.43e+08
2.43e+08
2.43e+08
2.43e+08
2.43e+08
2.43e+08
2.43e+08
2.41806e+08
2.3978e+08
2.37992e+08
2.3768e+08
2.36234e+08
2.36206e+08
2.3473e+08
2.35096e+08
2.33542e+08
2.34215e+08
2.32763e+08
2.33575e+08
2.32318e+08
2.33209e+08
2.32149e+08
2.33096e+08
2.32216e+08
2.33198e+08
2.32485e+08
2.33482e+08
2.32929e+08
2.33918e+08
2.33523e+08
2.34473e+08
2.34249e+08
2.35105e+08
2.35055e+08
2.35753e+08
2.3588e+08
2.36399e+08
2.36697e+08
2.37096e+08
2.37521e+08
2.37971e+08
2.38443e+08
2.39067e+08
2.39571e+08
2.40185e+08
2.40522e+08
2.41321e+08
2.41351e+08
2.42418e+08
2.42148e+08
2.43e+08
2.43e+08
2.43e+08
2.43e+08
2.43e+08
2.43e+08
2.43e+08
2.43e+08
2.43e+08
2.43e+08
2.43e+08
2.43e+08
2.43e+08
2.43e+08
2.43e+08
2.43e+08
2.43e+08
2.43e+08
2.43e+08
2.43e+08
2.43e+08
2.43e+08
2.43e+08
2.43e+08
2.43e+08
2.43e+08
2.43e+08
2.43e+08
2.43e+08
2.43e+08
2.43e+08
2.43e+08
2.43e+08
2.43e+08
2.39942e+08
2.37378e+08
2.36656e+08
2.34627e+08
2.34283e+08
2.32312e+08
2.32393e+08
2.30448e+08
2.30849e+08
2.29123e+08
2.29723e+08
2.28217e+08
2.28967e+08
2.27666e+08
2.28523e+08
2.2743e+08
2.28354e+08
2.27463e+08
2.28429e+08
2.27726e+08
2.28714e+08
2.28184e+08
2.29179e+08
2.28808e+08
2.29793e+08
2.29572e+08
2.30526e+08
2.30443e+08
2.31344e+08
2.31385e+08
2.32211e+08
2.32365e+08
2.33108e+08
2.33374e+08
2.34029e+08
2.34417e+08
2.34959e+08
2.35492e+08
2.35864e+08
2.36534e+08
2.36702e+08
2.37496e+08
2.37522e+08
2.38383e+08
2.38439e+08
2.39299e+08
2.39525e+08
2.40392e+08
2.40565e+08
2.41269e+08
2.41554e+08
2.41983e+08
2.42453e+08
2.42581e+08
2.43e+08
2.43e+08
2.43e+08
2.43e+08
2.43e+08
2.43e+08
2.43e+08
2.43e+08
2.43e+08
2.43e+08
2.43e+08
2.43e+08
2.43e+08
2.43e+08
2.43e+08
2.43e+08
2.43e+08
2.43e+08
2.43e+08
2.43e+08
2.43e+08
2.43e+08
2.43e+08
2.39189e+08
2.37504e+08
2.34917e+08
2.33734e+08
2.31343e+08
2.30745e+08
2.28402e+08
2.28332e+08
2.26222e+08
2.26489e+08
2.24618e+08
2.2513e+08
2.23511e+08
2.24197e+08
2.2283e+08
2.23644e+08
2.22509e+08
2.23418e+08
2.22496e+08
2.23471e+08
2.22746e+08
2.23761e+08
2.2322e+08
2.24251e+08
2.23881e+08
2.2491e+08
2.24697e+08
2.25705e+08
2.25637e+08
2.26607e+08
2.26673e+08
2.27586e+08
2.27775e+08
2.28618e+08
2.28921e+08
2.29687e+08
2.30099e+08
2.30783e+08
2.31297e+08
2.31891e+08
2.32498e+08
2.32982e+08
2.33664e+08
2.34033e+08
2.34787e+08
2.35037e+08
2.35875e+08
2.35996e+08
2.36941e+08
2.36888e+08
2.37938e+08
2.37695e+08
2.38822e+08
2.38458e+08
2.39605e+08
2.39263e+08
2.40389e+08
2.40133e+08
2.41242e+08
2.40916e+08
2.41906e+08
2.41624e+08
2.4242e+08
2.42273e+08
2.42797e+08
2.42831e+08
2.43e+08
2.43e+08
2.43e+08
2.43e+08
2.43e+08
2.43e+08
2.43e+08
2.43e+08
2.43e+08
2.43e+08
2.43e+08
2.41255e+08
2.37542e+08
2.36115e+08
2.32834e+08
2.31466e+08
2.28315e+08
2.27505e+08
2.24756e+08
2.24434e+08
2.22038e+08
2.22117e+08
2.20046e+08
2.20429e+08
2.18659e+08
2.19276e+08
2.17782e+08
2.18575e+08
2.17336e+08
2.18259e+08
2.17257e+08
2.18269e+08
2.17485e+08
2.18555e+08
2.17972e+08
2.19072e+08
2.18674e+08
2.19782e+08
2.19553e+08
2.20648e+08
2.20575e+08
2.21639e+08
2.21708e+08
2.22727e+08
2.22925e+08
2.23886e+08
2.24201e+08
2.25093e+08
2.25516e+08
2.26331e+08
2.26852e+08
2.27581e+08
2.28192e+08
2.28827e+08
2.2952e+08
2.30052e+08
2.30819e+08
2.31247e+08
2.32081e+08
2.32406e+08
2.33304e+08
2.33523e+08
2.34481e+08
2.3458e+08
2.35584e+08
2.35557e+08
2.36606e+08
2.36455e+08
2.37559e+08
2.37277e+08
2.38452e+08
2.38014e+08
2.39258e+08
2.38656e+08
2.39944e+08
2.39221e+08
2.4051e+08
2.39754e+08
2.41011e+08
2.40295e+08
2.41531e+08
2.40771e+08
2.41948e+08
2.41172e+08
2.42249e+08
2.41527e+08
2.42475e+08
2.41838e+08
2.42643e+08
2.41186e+08
2.37818e+08
2.35238e+08
2.31698e+08
2.29469e+08
2.26012e+08
2.24553e+08
2.21413e+08
2.20684e+08
2.17948e+08
2.17768e+08
2.15422e+08
2.15648e+08
2.13654e+08
2.14189e+08
2.12514e+08
2.13283e+08
2.119e+08
2.12841e+08
2.11725e+08
2.12787e+08
2.11916e+08
2.13058e+08
2.1241e+08
2.13599e+08
2.13154e+08
2.14361e+08
2.141e+08
2.15304e+08
2.15211e+08
2.16392e+08
2.16449e+08
2.17592e+08
2.17785e+08
2.18877e+08
2.19191e+08
2.20221e+08
2.20644e+08
2.21602e+08
2.22123e+08
2.23002e+08
2.2361e+08
2.24404e+08
2.25091e+08
2.25792e+08
2.26549e+08
2.27155e+08
2.27973e+08
2.28481e+08
2.29355e+08
2.29762e+08
2.30686e+08
2.30988e+08
2.31957e+08
2.32151e+08
2.33157e+08
2.33244e+08
2.34284e+08
2.34269e+08
2.35338e+08
2.35219e+08
2.36314e+08
2.36083e+08
2.37195e+08
2.36848e+08
2.37976e+08
2.37516e+08
2.38667e+08
2.38096e+08
2.39281e+08
2.38589e+08
2.39816e+08
2.38994e+08
2.4025e+08
2.39309e+08
2.40569e+08
2.3954e+08
2.40772e+08
2.39707e+08
2.40908e+08
2.3633e+08
2.31339e+08
2.29031e+08
2.24604e+08
2.22473e+08
2.18705e+08
2.17322e+08
2.14153e+08
2.13526e+08
2.10853e+08
2.10811e+08
2.08556e+08
2.08946e+08
2.07058e+08
2.07768e+08
2.06211e+08
2.07155e+08
2.05899e+08
2.0701e+08
2.06028e+08
2.0725e+08
2.06517e+08
2.07808e+08
2.07299e+08
2.08623e+08
2.08316e+08
2.09648e+08
2.09521e+08
2.10838e+08
2.10872e+08
2.12157e+08
2.12334e+08
2.13573e+08
2.13876e+08
2.15058e+08
2.15473e+08
2.16587e+08
2.17101e+08
2.1814e+08
2.18741e+08
2.19699e+08
2.20375e+08
2.21247e+08
2.21989e+08
2.22771e+08
2.23571e+08
2.2426e+08
2.25108e+08
2.25703e+08
2.26594e+08
2.27091e+08
2.28018e+08
2.28418e+08
2.29374e+08
2.29676e+08
2.30656e+08
2.30861e+08
2.31859e+08
2.31968e+08
2.3298e+08
2.32992e+08
2.34015e+08
2.33929e+08
2.34956e+08
2.34776e+08
2.35804e+08
2.35534e+08
2.36562e+08
2.36207e+08
2.3723e+08
2.36789e+08
2.37799e+08
2.37275e+08
2.38262e+08
2.37666e+08
2.38615e+08
2.37964e+08
2.38855e+08
2.3816e+08
2.38967e+08
2.2901e+08
2.23741e+08
2.21612e+08
2.1678e+08
2.149e+08
2.10891e+08
2.09779e+08
2.06516e+08
2.06144e+08
2.03475e+08
2.03673e+08
2.01479e+08
2.02099e+08
2.00307e+08
2.01237e+08
1.99797e+08
2.00951e+08
1.99825e+08
2.01131e+08
2.00286e+08
2.0169e+08
2.01095e+08
2.02553e+08
2.02181e+08
2.0366e+08
2.03484e+08
2.04957e+08
2.04956e+08
2.06402e+08
2.06554e+08
2.07957e+08
2.08243e+08
2.09591e+08
2.09993e+08
2.11276e+08
2.11779e+08
2.1299e+08
2.1358e+08
2.14711e+08
2.15375e+08
2.16422e+08
2.1715e+08
2.1811e+08
2.18891e+08
2.19761e+08
2.20587e+08
2.21365e+08
2.22227e+08
2.22913e+08
2.23803e+08
2.24396e+08
2.25309e+08
2.2581e+08
2.26738e+08
2.27147e+08
2.28086e+08
2.28404e+08
2.29347e+08
2.29576e+08
2.30519e+08
2.30659e+08
2.31598e+08
2.31652e+08
2.32581e+08
2.32552e+08
2.33467e+08
2.33357e+08
2.34254e+08
2.34065e+08
2.3494e+08
2.34676e+08
2.35521e+08
2.3519e+08
2.35993e+08
2.35611e+08
2.36356e+08
2.35945e+08
2.36605e+08
2.36188e+08
2.36715e+08
2.20628e+08
2.15121e+08
2.13367e+08
2.08276e+08
2.06789e+08
2.02611e+08
2.01892e+08
1.98542e+08
1.98539e+08
1.9585e+08
1.96386e+08
1.94226e+08
1.95155e+08
1.93435e+08
1.94647e+08
1.93306e+08
1.94716e+08
1.93706e+08
1.95246e+08
1.94525e+08
1.96141e+08
1.95673e+08
1.97324e+08
1.97076e+08
1.98731e+08
1.98675e+08
2.00308e+08
2.0042e+08
2.02012e+08
2.02267e+08
2.03805e+08
2.04184e+08
2.05656e+08
2.06142e+08
2.0754e+08
2.08114e+08
2.09433e+08
2.10082e+08
2.11316e+08
2.12029e+08
2.13175e+08
2.13938e+08
2.14994e+08
2.15799e+08
2.16764e+08
2.176e+08
2.18474e+08
2.19334e+08
2.20117e+08
2.20994e+08
2.21685e+08
2.22572e+08
2.23174e+08
2.24064e+08
2.24579e+08
2.25467e+08
2.25894e+08
2.26776e+08
2.27119e+08
2.27988e+08
2.28249e+08
2.29102e+08
2.29283e+08
2.30114e+08
2.30218e+08
2.31025e+08
2.31053e+08
2.31831e+08
2.31787e+08
2.32532e+08
2.3242e+08
2.33125e+08
2.32953e+08
2.33611e+08
2.33392e+08
2.33988e+08
2.33743e+08
2.34254e+08
2.34002e+08
2.3438e+08
2.11372e+08
2.05713e+08
2.04451e+08
1.99177e+08
1.98197e+08
1.93898e+08
1.93666e+08
1.90252e+08
1.90701e+08
1.87997e+08
1.88946e+08
1.86814e+08
1.88117e+08
1.86458e+08
1.88008e+08
1.86752e+08
1.88467e+08
1.87555e+08
1.8937e+08
1.88756e+08
1.90618e+08
1.9026e+08
1.92133e+08
1.91994e+08
1.93847e+08
1.93896e+08
1.95709e+08
1.95917e+08
1.97673e+08
1.98017e+08
1.99704e+08
2.00161e+08
2.01771e+08
2.02323e+08
2.03848e+08
2.04479e+08
2.05916e+08
2.0661e+08
2.07957e+08
2.08702e+08
2.09956e+08
2.1074e+08
2.119e+08
2.12714e+08
2.13781e+08
2.14615e+08
2.1559e+08
2.16436e+08
2.1732e+08
2.18172e+08
2.18965e+08
2.19816e+08
2.20521e+08
2.21365e+08
2.21985e+08
2.22816e+08
2.23353e+08
2.24167e+08
2.24622e+08
2.25415e+08
2.25792e+08
2.26559e+08
2.2686e+08
2.27598e+08
2.27826e+08
2.2853e+08
2.28688e+08
2.29356e+08
2.29447e+08
2.30074e+08
2.30104e+08
2.30685e+08
2.30662e+08
2.3119e+08
2.31129e+08
2.3159e+08
2.31511e+08
2.31884e+08
2.31809e+08
2.32045e+08
2.01409e+08
1.95669e+08
1.94954e+08
1.89574e+08
1.89164e+08
1.84799e+08
1.85114e+08
1.81671e+08
1.82629e+08
1.79931e+08
1.81348e+08
1.79251e+08
1.8098e+08
1.79382e+08
1.81317e+08
1.80138e+08
1.82199e+08
1.81377e+08
1.83501e+08
1.82982e+08
1.85121e+08
1.84859e+08
1.8698e+08
1.86934e+08
1.8901e+08
1.89147e+08
1.91159e+08
1.91448e+08
1.93385e+08
1.938e+08
1.95652e+08
1.96171e+08
1.97931e+08
1.98534e+08
2.00199e+08
2.00869e+08
2.02437e+08
2.03159e+08
2.04629e+08
2.05391e+08
2.06762e+08
2.07552e+08
2.08826e+08
2.09635e+08
2.10811e+08
2.1163e+08
2.12712e+08
2.13534e+08
2.14523e+08
2.1534e+08
2.1624e+08
2.17046e+08
2.17858e+08
2.18649e+08
2.19376e+08
2.20146e+08
2.20791e+08
2.21536e+08
2.22102e+08
2.22818e+08
2.23308e+08
2.23991e+08
2.24408e+08
2.25056e+08
2.25403e+08
2.26012e+08
2.26293e+08
2.26859e+08
2.27078e+08
2.27599e+08
2.27762e+08
2.28232e+08
2.28348e+08
2.2876e+08
2.28844e+08
2.29186e+08
2.2926e+08
2.2951e+08
2.29596e+08
2.2971e+08
1.90886e+08
1.85116e+08
1.84974e+08
1.79552e+08
1.79744e+08
1.75367e+08
1.76266e+08
1.72834e+08
1.74338e+08
1.71674e+08
1.73596e+08
1.71553e+08
1.73745e+08
1.72216e+08
1.7457e+08
1.73472e+08
1.75909e+08
1.75173e+08
1.77635e+08
1.77204e+08
1.79645e+08
1.79468e+08
1.81859e+08
1.81894e+08
1.84212e+08
1.84422e+08
1.86652e+08
1.87007e+08
1.8914e+08
1.89611e+08
1.91641e+08
1.92206e+08
1.9413e+08
1.94768e+08
1.96584e+08
1.97279e+08
1.98987e+08
1.99723e+08
2.01325e+08
2.0209e+08
2.03587e+08
2.0437e+08
2.05764e+08
2.06556e+08
2.07849e+08
2.08642e+08
2.09837e+08
2.10624e+08
2.11724e+08
2.12499e+08
2.13508e+08
2.14263e+08
2.15184e+08
2.15917e+08
2.16753e+08
2.17458e+08
2.18213e+08
2.18887e+08
2.19564e+08
2.20203e+08
2.20806e+08
2.21406e+08
2.21938e+08
2.22498e+08
2.22963e+08
2.2348e+08
2.23881e+08
2.24352e+08
2.24694e+08
2.25116e+08
2.25406e+08
2.25774e+08
2.26021e+08
2.26328e+08
2.26548e+08
2.26782e+08
2.26998e+08
2.27137e+08
2.27372e+08
2.27376e+08
1.79919e+08
1.74158e+08
1.746e+08
1.69186e+08
1.70001e+08
1.65658e+08
1.67162e+08
1.6378e+08
1.65855e+08
1.63255e+08
1.65708e+08
1.63741e+08
1.66419e+08
1.64974e+08
1.67771e+08
1.66761e+08
1.69597e+08
1.68949e+08
1.71768e+08
1.71422e+08
1.74184e+08
1.74087e+08
1.76763e+08
1.7687e+08
1.79445e+08
1.79718e+08
1.82179e+08
1.82587e+08
1.84929e+08
1.85442e+08
1.87663e+08
1.88259e+08
1.90357e+08
1.91016e+08
1.92993e+08
1.93698e+08
1.95556e+08
1.96293e+08
1.98035e+08
1.98791e+08
2.0042e+08
2.01185e+08
2.02705e+08
2.0347e+08
2.04886e+08
2.05643e+08
2.06957e+08
2.077e+08
2.08917e+08
2.09641e+08
2.10764e+08
2.11463e+08
2.12496e+08
2.13166e+08
2.14115e+08
2.14751e+08
2.15619e+08
2.16219e+08
2.17009e+08
2.1757e+08
2.18286e+08
2.18805e+08
2.19451e+08
2.19926e+08
2.20507e+08
2.20935e+08
2.21454e+08
2.21834e+08
2.22297e+08
2.22625e+08
2.23038e+08
2.2331e+08
2.23684e+08
2.23892e+08
2.24243e+08
2.24375e+08
2.24726e+08
2.2476e+08
2.25137e+08
2.25036e+08
1.686e+08
1.62881e+08
1.6391e+08
1.58549e+08
1.59996e+08
1.55728e+08
1.57851e+08
1.54556e+08
1.57217e+08
1.54711e+08
1.5771e+08
1.55842e+08
1.59023e+08
1.57679e+08
1.60933e+08
1.60021e+08
1.6327e+08
1.62715e+08
1.65905e+08
1.65643e+08
1.68737e+08
1.68715e+08
1.71689e+08
1.71862e+08
1.74703e+08
1.7503e+08
1.77732e+08
1.78182e+08
1.80742e+08
1.81287e+08
1.83705e+08
1.84321e+08
1.86601e+08
1.87269e+08
1.89415e+08
1.90118e+08
1.92133e+08
1.92858e+08
1.94747e+08
1.95482e+08
1.97251e+08
1.97987e+08
1.9964e+08
2.00368e+08
2.01911e+08
2.02624e+08
2.04061e+08
2.04754e+08
2.06091e+08
2.06757e+08
2.07999e+08
2.08635e+08
2.09786e+08
2.10388e+08
2.11452e+08
2.12018e+08
2.13e+08
2.13525e+08
2.14429e+08
2.14912e+08
2.15743e+08
2.16181e+08
2.16942e+08
2.17333e+08
2.18029e+08
2.18372e+08
2.19008e+08
2.193e+08
2.19881e+08
2.20119e+08
2.20653e+08
2.20833e+08
2.2133e+08
2.21445e+08
2.21922e+08
2.21958e+08
2.22438e+08
2.22374e+08
2.22885e+08
2.22686e+08
1.57011e+08
1.51361e+08
1.52975e+08
1.47705e+08
1.49787e+08
1.45635e+08
1.48382e+08
1.4521e+08
1.48463e+08
1.46083e+08
1.49635e+08
1.47892e+08
1.51583e+08
1.50357e+08
1.54075e+08
1.53274e+08
1.56941e+08
1.56486e+08
1.60051e+08
1.59878e+08
1.63308e+08
1.63361e+08
1.66637e+08
1.6687e+08
1.69983e+08
1.70358e+08
1.73306e+08
1.7379e+08
1.76572e+08
1.77139e+08
1.79761e+08
1.80387e+08
1.82854e+08
1.8352e+08
1.85838e+08
1.8653e+08
1.88706e+08
1.8941e+08
1.9145e+08
1.92155e+08
1.94068e+08
1.94765e+08
1.96555e+08
1.97237e+08
1.98912e+08
1.99573e+08
2.01138e+08
2.01773e+08
2.03234e+08
2.03838e+08
2.05201e+08
2.0577e+08
2.07041e+08
2.07571e+08
2.08754e+08
2.09245e+08
2.10345e+08
2.10793e+08
2.11814e+08
2.12217e+08
2.13165e+08
2.13522e+08
2.14399e+08
2.14708e+08
2.1552e+08
2.15779e+08
2.16531e+08
2.16739e+08
2.17436e+08
2.17588e+08
2.1824e+08
2.18332e+08
2.18949e+08
2.18974e+08
2.19574e+08
2.19518e+08
2.20125e+08
2.19968e+08
2.20607e+08
2.20319e+08
1.45221e+08
1.39665e+08
1.41857e+08
1.36715e+08
1.39432e+08
1.35432e+08
1.38806e+08
1.35791e+08
1.3964e+08
1.37416e+08
1.41523e+08
1.39929e+08
1.4413e+08
1.43042e+08
1.47223e+08
1.46545e+08
1.5063e+08
1.50283e+08
1.54223e+08
1.5414e+08
1.57906e+08
1.58034e+08
1.61611e+08
1.61903e+08
1.65288e+08
1.65705e+08
1.68898e+08
1.69411e+08
1.72417e+08
1.72997e+08
1.75824e+08
1.76452e+08
1.79107e+08
1.79763e+08
1.82256e+08
1.82927e+08
1.85267e+08
1.8594e+08
1.88135e+08
1.88801e+08
1.9086e+08
1.9151e+08
1.9344e+08
1.94069e+08
1.95879e+08
1.9648e+08
1.98176e+08
1.98745e+08
2.00334e+08
2.00868e+08
2.02357e+08
2.02852e+08
2.04246e+08
2.04701e+08
2.06006e+08
2.06417e+08
2.07639e+08
2.08005e+08
2.09148e+08
2.09468e+08
2.10536e+08
2.1081e+08
2.11808e+08
2.12033e+08
2.12965e+08
2.13139e+08
2.14011e+08
2.14133e+08
2.1495e+08
2.15016e+08
2.15787e+08
2.15791e+08
2.16529e+08
2.16462e+08
2.17186e+08
2.17034e+08
2.1777e+08
2.17511e+08
2.18286e+08
2.1789e+08
1.33289e+08
1.2785e+08
1.30614e+08
1.25634e+08
1.28985e+08
1.25174e+08
1.29174e+08
1.26353e+08
1.30795e+08
1.28759e+08
1.33416e+08
1.31997e+08
1.36701e+08
1.35772e+08
1.40408e+08
1.39868e+08
1.44362e+08
1.44131e+08
1.48438e+08
1.48451e+08
1.52546e+08
1.52749e+08
1.56622e+08
1.5697e+08
1.60621e+08
1.61078e+08
1.64512e+08
1.65048e+08
1.68274e+08
1.68864e+08
1.71892e+08
1.72515e+08
1.75357e+08
1.75997e+08
1.78663e+08
1.79307e+08
1.81808e+08
1.82445e+08
1.84793e+08
1.85413e+08
1.87618e+08
1.88215e+08
1.90285e+08
1.90854e+08
1.92798e+08
1.93333e+08
1.95161e+08
1.95659e+08
1.97377e+08
1.97836e+08
1.99451e+08
1.99868e+08
2.01388e+08
2.01761e+08
2.0319e+08
2.03518e+08
2.04863e+08
2.05144e+08
2.0641e+08
2.06644e+08
2.07837e+08
2.08022e+08
2.09146e+08
2.09281e+08
2.10341e+08
2.10426e+08
2.11426e+08
2.11457e+08
2.12404e+08
2.12378e+08
2.13279e+08
2.13189e+08
2.14058e+08
2.13892e+08
2.14748e+08
2.14488e+08
2.15362e+08
2.14977e+08
2.15908e+08
2.15355e+08
1.21268e+08
1.1597e+08
1.19298e+08
1.14516e+08
1.18496e+08
1.14916e+08
1.19538e+08
1.16949e+08
1.21978e+08
1.20163e+08
1.25361e+08
1.24144e+08
1.29339e+08
1.28588e+08
1.33665e+08
1.33277e+08
1.38165e+08
1.3806e+08
1.42719e+08
1.42833e+08
1.47244e+08
1.47524e+08
1.51681e+08
1.52086e+08
1.55993e+08
1.56487e+08
1.60155e+08
1.6071e+08
1.64149e+08
1.64742e+08
1.67966e+08
1.6858e+08
1.71603e+08
1.72221e+08
1.75056e+08
1.75667e+08
1.78328e+08
1.78921e+08
1.8142e+08
1.81989e+08
1.84336e+08
1.84875e+08
1.87082e+08
1.87585e+08
1.89663e+08
1.90127e+08
1.92085e+08
1.92506e+08
1.94352e+08
1.9473e+08
1.96472e+08
1.96805e+08
1.9845e+08
1.98737e+08
2.00291e+08
2.00532e+08
2.02e+08
2.02194e+08
2.03582e+08
2.03728e+08
2.05043e+08
2.0514e+08
2.06387e+08
2.06433e+08
2.07618e+08
2.07612e+08
2.08742e+08
2.08682e+08
2.09763e+08
2.09644e+08
2.10684e+08
2.10501e+08
2.1151e+08
2.11251e+08
2.12246e+08
2.11891e+08
2.12899e+08
2.12416e+08
2.13477e+08
2.12827e+08
1.09206e+08
1.04071e+08
1.07955e+08
1.03412e+08