/*--------------------------------*- C++ -*----------------------------------*\
| =========                 |                                                 |
| \\      /  F ield         | OpenFOAM: The Open Source CFD Toolbox           |
|  \\    /   O peration     | Version:  v2012                                 |
|   \\  /    A nd           | Website:  www.openfoam.com                      |
|    \\/     M anipulation  |                                                 |
\*---------------------------------------------------------------------------*/
FoamFile
{
    version     2.0;
    format      ascii;
    class       volSymmTensorField;
    location    "10";
    object      sigma;
}
// * * * * * * * * * * * * * * * * * * * * * * * * * * * * * * * * * * * * * //

dimensions      [1 -1 -2 0 0 0 0];


internalField   nonuniform List<symmTensor> 
32000
(
(2.81155e+08 -3.23631e+06 -8.72802e-08 638044 9.24192e-09 1.40558e+08)
(2.8322e+08 -3.62697e+06 -1.77947e-07 2.76366e+06 5.02564e-08 1.38782e+08)
(2.85991e+08 -2.37237e+06 0 5.47005e+06 0 1.4211e+08)
(2.86518e+08 -3.96666e+06 5.77751e-08 6.05447e+06 6.71838e-08 1.43662e+08)
(2.89261e+08 -1.82454e+06 2.71853e-07 8.71816e+06 -5.68447e-08 1.45684e+08)
(2.8988e+08 -3.96276e+06 1.95991e-07 9.41966e+06 -3.73758e-08 1.46726e+08)
(2.92514e+08 -1.6955e+06 2.24142e-07 1.19761e+07 7.4124e-08 1.48491e+08)
(2.93225e+08 -3.86379e+06 1.0642e-07 1.27671e+07 -6.55544e-08 1.49554e+08)
(2.95775e+08 -1.7337e+06 0 1.52443e+07 0 1.51406e+08)
(2.96542e+08 -3.7543e+06 -7.05016e-09 1.60861e+07 4.76643e-08 1.52453e+08)
(2.99018e+08 -1.83258e+06 1.65294e-07 1.84976e+07 6.7795e-09 1.54284e+08)
(2.99829e+08 -3.64194e+06 4.00054e-08 1.93756e+07 -7.95164e-08 1.55271e+08)
(3.02245e+08 -1.95928e+06 1.05376e-07 2.17374e+07 -5.82964e-08 1.57074e+08)
(3.03083e+08 -3.52497e+06 9.45865e-08 2.26361e+07 3.27431e-08 1.57996e+08)
(3.05445e+08 -2.09229e+06 1.21057e-07 2.4954e+07 1.29706e-07 1.59777e+08)
(3.06305e+08 -3.40477e+06 -1.20831e-07 2.58659e+07 -1.25887e-07 1.60624e+08)
(3.08611e+08 -2.22085e+06 -4.35882e-07 2.81398e+07 3.85845e-08 1.62379e+08)
(3.09489e+08 -3.28416e+06 -3.71835e-07 2.90632e+07 6.46209e-08 1.63147e+08)
(3.11739e+08 -2.34085e+06 -2.27592e-07 3.12905e+07 -7.22249e-08 1.64865e+08)
(3.12633e+08 -3.16525e+06 -1.66176e-07 3.22249e+07 -5.51217e-09 1.65544e+08)
(3.14824e+08 -2.45146e+06 -6.22566e-08 3.44044e+07 -6.23278e-08 1.6722e+08)
(3.15733e+08 -3.04946e+06 -6.19377e-08 3.53491e+07 -6.06126e-08 1.67803e+08)
(3.17864e+08 -2.55234e+06 -1.66713e-07 3.74796e+07 -9.9443e-09 1.6943e+08)
(3.18786e+08 -2.93809e+06 -1.04673e-07 3.84347e+07 5.27534e-08 1.69919e+08)
(3.20857e+08 -2.64454e+06 0 4.05155e+07 0 1.71489e+08)
(3.21791e+08 -2.83269e+06 -1.27024e-07 4.1482e+07 -7.42766e-08 1.71886e+08)
(3.238e+08 -2.72896e+06 -2.71748e-07 4.35119e+07 3.80282e-08 1.73377e+08)
(3.24745e+08 -2.73316e+06 -2.09562e-07 4.44904e+07 5.65494e-08 1.73675e+08)
(3.26692e+08 -2.8073e+06 -6.478e-08 4.64702e+07 -5.83446e-08 1.75083e+08)
(3.27645e+08 -2.63921e+06 0 4.74604e+07 0 1.7528e+08)
(3.29531e+08 -2.88036e+06 1.04167e-07 4.93913e+07 -4.59642e-08 1.76606e+08)
(3.30491e+08 -2.5508e+06 2.36605e-07 5.03941e+07 1.06177e-07 1.76698e+08)
(3.32314e+08 -2.94958e+06 3.03227e-07 5.22757e+07 1.23527e-07 1.77915e+08)
(3.33278e+08 -2.46625e+06 3.83706e-08 5.32923e+07 -1.39921e-07 1.77899e+08)
(3.35038e+08 -3.01815e+06 -1.3411e-07 5.51258e+07 -1.09525e-07 1.79002e+08)
(3.36003e+08 -2.38296e+06 2.42725e-09 5.6156e+07 3.95315e-08 1.78873e+08)
(3.377e+08 -3.08794e+06 6.79284e-08 5.79427e+07 5.3442e-08 1.79864e+08)
(3.38663e+08 -2.29726e+06 0 5.89866e+07 0 1.79612e+08)
(3.40289e+08 -3.16087e+06 -1.06108e-07 6.07251e+07 4.01111e-08 1.80461e+08)
(3.41246e+08 -2.20316e+06 -1.72493e-07 6.17822e+07 2.68808e-08 1.80077e+08)
(3.42797e+08 -3.24021e+06 1.06876e-07 6.34708e+07 -3.85388e-08 1.80774e+08)
(3.43741e+08 -2.09422e+06 1.08732e-07 6.45394e+07 -3.82113e-08 1.80249e+08)
(3.45211e+08 -3.32698e+06 -1.07736e-07 6.61741e+07 3.68929e-08 1.80804e+08)
(3.46134e+08 -1.96314e+06 -2.5081e-07 6.72525e+07 -5.93352e-08 1.80119e+08)
(3.47508e+08 -3.42151e+06 -3.62045e-07 6.88251e+07 -2.45677e-08 1.80491e+08)
(3.48399e+08 -1.79952e+06 -3.65229e-07 6.99099e+07 -2.39297e-08 1.79626e+08)
(3.49661e+08 -3.52404e+06 -2.57121e-07 7.14097e+07 -5.81691e-08 1.79815e+08)
(3.5051e+08 -1.59407e+06 -1.12083e-07 7.2496e+07 3.22193e-08 1.78751e+08)
(3.51642e+08 -3.63128e+06 0 7.39072e+07 0 1.78758e+08)
(3.52433e+08 -1.33748e+06 7.24127e-09 7.49898e+07 3.15571e-08 1.7748e+08)
(3.53407e+08 -3.73948e+06 3.01273e-07 7.62914e+07 -1.67501e-08 1.77271e+08)
(3.54123e+08 -1.02117e+06 2.29815e-07 7.73639e+07 -5.5122e-08 1.75755e+08)
(3.54919e+08 -3.84068e+06 -1.13672e-07 7.85285e+07 2.74169e-08 1.7536e+08)
(3.55541e+08 -638726 -2.62944e-07 7.95853e+07 -2.59733e-08 1.73583e+08)
(3.56127e+08 -3.92629e+06 -3.10293e-07 8.05822e+07 1.21174e-08 1.72978e+08)
(3.56632e+08 -182709 -9.67943e-08 8.16123e+07 6.6835e-08 1.70933e+08)
(3.56988e+08 -3.98715e+06 2.333e-07 8.24102e+07 -4.62085e-08 1.70133e+08)
(3.57351e+08 349549 1.79335e-07 8.34008e+07 -2.47303e-08 1.67819e+08)
(3.57456e+08 -4.00767e+06 8.35238e-08 8.39618e+07 3.45327e-08 1.66842e+08)
(3.57656e+08 958345 1.10939e-08 8.48993e+07 2.39182e-08 1.64277e+08)
(3.57493e+08 -3.97834e+06 2.04948e-07 8.51891e+07 1.38529e-08 1.63121e+08)
(3.57515e+08 1.62865e+06 3.90854e-08 8.60652e+07 -4.72824e-08 1.60332e+08)
(3.57082e+08 -3.88102e+06 -3.29258e-07 8.60378e+07 2.48553e-09 1.59068e+08)
(3.56915e+08 2.35374e+06 -2.74538e-07 8.68437e+07 -1.86611e-08 1.56087e+08)
(3.56211e+08 -3.71477e+06 -2.99132e-07 8.648e+07 -4.30763e-08 1.547e+08)
(3.55842e+08 3.11656e+06 -3.93994e-08 8.71913e+07 3.90748e-08 1.51589e+08)
(3.54886e+08 -3.46844e+06 3.37467e-07 8.64733e+07 1.69536e-09 1.5012e+08)
(3.5432e+08 3.89352e+06 1.20552e-07 8.70808e+07 -1.66879e-08 1.46939e+08)
(3.53126e+08 -3.14042e+06 2.15689e-07 8.59912e+07 1.44911e-08 1.45407e+08)
(3.52369e+08 4.67907e+06 1.57208e-07 8.64648e+07 2.90276e-08 1.42251e+08)
(3.50977e+08 -2.75444e+06 3.08873e-07 8.5042e+07 3.8659e-08 1.40646e+08)
(3.50061e+08 5.40947e+06 3.68157e-07 8.53926e+07 4.45861e-08 1.37576e+08)
(3.48471e+08 -2.27959e+06 4.72531e-07 8.3552e+07 -1.82099e-09 1.36031e+08)
(3.47429e+08 6.11598e+06 5.85213e-07 8.38648e+07 6.13708e-08 1.32959e+08)
(3.45562e+08 -1.80649e+06 2.76847e-07 8.15904e+07 6.53932e-08 1.31244e+08)
(3.44234e+08 6.8682e+06 -1.55995e-08 8.15966e+07 -1.42179e-08 1.28219e+08)
(3.39385e+08 -1.39256e+06 -9.08147e-08 7.96469e+07 -2.0727e-08 1.27246e+08)
(3.38803e+08 7.37119e+06 7.3632e-08 7.86294e+07 1.01059e-08 1.23632e+08)
(3.29591e+08 -1.32204e+06 -1.21625e-07 7.74909e+07 7.23418e-09 1.23848e+08)
(3.28697e+08 7.9112e+06 -1.59062e-07 7.56609e+07 -1.28185e-08 1.20873e+08)
(2.8072e+08 -7.51195e+06 3.87593e-08 533944 -2.45371e-08 1.39332e+08)
(2.82661e+08 -9.38195e+06 1.11533e-07 2.75018e+06 -7.68625e-08 1.37967e+08)
(2.84937e+08 -7.01534e+06 1.1032e-07 4.72396e+06 -7.32474e-08 1.41419e+08)
(2.86099e+08 -9.50161e+06 1.54289e-07 6.17882e+06 3.66241e-08 1.42704e+08)
(2.88335e+08 -6.96921e+06 8.71426e-08 8.1109e+06 3.12659e-08 1.45197e+08)
(2.89503e+08 -9.46699e+06 1.08372e-07 9.58051e+06 -7.33363e-08 1.45956e+08)
(2.91681e+08 -7.06633e+06 -1.0719e-07 1.14721e+07 6.78145e-08 1.48207e+08)
(2.92877e+08 -9.36434e+06 -1.07509e-07 1.29493e+07 7.08394e-08 1.48903e+08)
(2.94988e+08 -7.20917e+06 3.98857e-08 1.47987e+07 -8.08494e-08 1.51219e+08)
(2.96215e+08 -9.25249e+06 9.93158e-08 1.628e+07 -2.06306e-08 1.51837e+08)
(2.98245e+08 -7.35812e+06 2.03897e-07 1.80767e+07 -7.78844e-08 1.54159e+08)
(2.99508e+08 -9.14112e+06 2.65353e-07 1.95689e+07 -2.29917e-08 1.54659e+08)
(3.0146e+08 -7.50362e+06 9.37591e-08 2.13151e+07 3.60204e-08 1.56987e+08)
(3.02759e+08 -9.02948e+06 1.65864e-07 2.28187e+07 -2.23548e-09 1.57368e+08)
(3.04637e+08 -7.64034e+06 6.13361e-08 2.45171e+07 6.37031e-08 1.59708e+08)
(3.05971e+08 -8.91647e+06 6.5477e-08 2.60322e+07 1.4969e-08 1.59969e+08)
(3.07777e+08 -7.76595e+06 6.52207e-08 2.76843e+07 1.54265e-08 1.6232e+08)
(3.09143e+08 -8.80163e+06 0 2.92112e+07 0 1.62457e+08)
(3.10879e+08 -7.87968e+06 0 3.08165e+07 0 1.64809e+08)
(3.12276e+08 -8.68522e+06 1.95106e-09 3.23559e+07 -4.50227e-08 1.64819e+08)
(3.13942e+08 -7.98198e+06 -2.67787e-07 3.39132e+07 4.59172e-08 1.6716e+08)
(3.15368e+08 -8.56867e+06 -2.05029e-07 3.54662e+07 2.14345e-08 1.67044e+08)
(3.16964e+08 -8.07425e+06 -1.29702e-07 3.69747e+07 -1.22688e-07 1.69371e+08)
(3.18416e+08 -8.4533e+06 6.48688e-08 3.85416e+07 5.89998e-08 1.69128e+08)
(3.19945e+08 -8.15737e+06 1.02401e-07 4.00007e+07 -4.98479e-09 1.71437e+08)
(3.21418e+08 -8.3405e+06 1.03224e-07 4.15817e+07 -5.11071e-08 1.71062e+08)
(3.22879e+08 -8.23272e+06 -3.66395e-08 4.29903e+07 6.3714e-08 1.73329e+08)
(3.24372e+08 -8.2314e+06 -1.04905e-07 4.45864e+07 6.73998e-09 1.72823e+08)
(3.25766e+08 -8.30287e+06 1.34923e-07 4.59444e+07 -1.52755e-07 1.75035e+08)
(3.27274e+08 -8.12677e+06 2.11712e-07 4.75558e+07 -1.11081e-08 1.74401e+08)
(3.28604e+08 -8.36985e+06 1.73338e-07 4.88648e+07 5.60421e-08 1.76554e+08)
(3.3012e+08 -8.02568e+06 4.18924e-08 5.04895e+07 -1.93138e-08 1.75791e+08)
(3.3139e+08 -8.43497e+06 1.33901e-07 5.17525e+07 7.14853e-08 1.77865e+08)
(3.32908e+08 -7.92619e+06 -6.51351e-08 5.3387e+07 -1.47419e-08 1.76971e+08)
(3.34118e+08 -8.49992e+06 -1.66668e-07 5.46087e+07 2.7398e-08 1.78935e+08)
(3.35628e+08 -7.82384e+06 -4.39106e-08 5.62461e+07 1.68465e-08 1.77914e+08)
(3.36785e+08 -8.56516e+06 -1.73617e-07 5.74343e+07 -1.48473e-08 1.79757e+08)
(3.38272e+08 -7.71134e+06 -3.36427e-08 5.90628e+07 9.21683e-08 1.78612e+08)
(3.39381e+08 -8.62738e+06 2.12831e-07 6.02262e+07 -3.63121e-08 1.80311e+08)
(3.40829e+08 -7.57988e+06 2.11126e-07 6.1832e+07 -7.47304e-08 1.79039e+08)
(3.41892e+08 -8.68308e+06 0 6.29802e+07 0 1.80552e+08)
(3.43282e+08 -7.41692e+06 7.36775e-08 6.45443e+07 5.04384e-08 1.79156e+08)
(3.44304e+08 -8.72729e+06 1.79543e-07 6.56908e+07 1.72003e-08 1.80468e+08)
(3.45609e+08 -7.20602e+06 1.15333e-07 6.71862e+07 2.3837e-09 1.78945e+08)
(3.4659e+08 -8.74763e+06 7.67863e-08 6.83437e+07 4.96836e-08 1.80017e+08)
(3.47785e+08 -6.93051e+06 -9.06895e-09 6.97417e+07 -3.39607e-08 1.78368e+08)
(3.48723e+08 -8.73212e+06 2.77444e-08 7.09223e+07 -7.72672e-08 1.7916e+08)
(3.49776e+08 -6.57062e+06 1.29172e-07 7.21895e+07 3.80835e-08 1.77386e+08)
(3.50672e+08 -8.6649e+06 4.144e-07 7.34049e+07 1.89511e-09 1.77892e+08)
(3.51548e+08 -6.1058e+06 2.04141e-07 7.45046e+07 -7.05168e-08 1.75982e+08)
(3.52391e+08 -8.52387e+06 -2.6272e-08 7.57599e+07 6.89185e-08 1.7616e+08)
(3.53059e+08 -5.51647e+06 -9.95966e-08 7.66577e+07 5.11461e-08 1.7412e+08)
(3.53841e+08 -8.29253e+06 2.34053e-07 7.79572e+07 -9.80822e-09 1.73959e+08)
(3.54262e+08 -4.78111e+06 2.25791e-07 7.86115e+07 -3.51573e-08 1.71795e+08)
(3.54974e+08 -7.94643e+06 3.09599e-08 7.99549e+07 4.49093e-08 1.7128e+08)
(3.55116e+08 -3.88669e+06 -1.00333e-07 8.03301e+07 4.12145e-08 1.69008e+08)
(3.55742e+08 -7.46241e+06 1.70045e-07 8.17049e+07 -1.40046e-08 1.6813e+08)
(3.55582e+08 -2.82831e+06 4.05999e-07 8.17819e+07 6.36788e-08 1.65767e+08)
(3.56114e+08 -6.82275e+06 4.51349e-07 8.3162e+07 3.56198e-08 1.64572e+08)
(3.55636e+08 -1.60781e+06 4.56581e-07 8.29325e+07 4.65168e-08 1.62138e+08)
(3.56057e+08 -6.01606e+06 6.85063e-08 8.42838e+07 8.49987e-08 1.6063e+08)
(3.55256e+08 -240021 -2.25938e-07 8.37561e+07 -6.07608e-08 1.5815e+08)
(3.55562e+08 -5.04106e+06 -1.55962e-07 8.50346e+07 -4.17013e-08 1.56394e+08)
(3.5444e+08 1.26145e+06 -1.94774e-07 8.42199e+07 -1.86648e-08 1.53909e+08)
(3.54627e+08 -3.90299e+06 0 8.53865e+07 0 1.51921e+08)
(3.53199e+08 2.86391e+06 3.57787e-08 8.43086e+07 4.10556e-08 1.49489e+08)
(3.53269e+08 -2.62009e+06 3.27184e-07 8.53177e+07 3.00958e-08 1.47321e+08)
(3.51572e+08 4.52332e+06 4.05587e-07 8.40292e+07 6.0125e-08 1.44977e+08)
(3.5152e+08 -1.21586e+06 4.09603e-08 8.48198e+07 3.74212e-08 1.42686e+08)
(3.49589e+08 6.21915e+06 -2.06739e-07 8.33449e+07 -9.2839e-08 1.40515e+08)
(3.49433e+08 265165 -3.85263e-07 8.38998e+07 -8.0964e-08 1.3813e+08)
(3.47336e+08 7.87354e+06 -3.44561e-07 8.23234e+07 -5.98114e-08 1.36157e+08)
(3.47069e+08 1.79194e+06 -1.72972e-07 8.25876e+07 -4.80163e-08 1.33732e+08)
(3.44829e+08 9.49163e+06 1.86739e-08 8.09577e+07 1.67489e-08 1.31915e+08)
(3.44329e+08 3.32717e+06 2.98197e-07 8.08675e+07 5.58547e-08 1.2919e+08)
(3.41826e+08 1.11102e+07 -2.32204e-08 7.89544e+07 -2.34256e-08 1.2761e+08)
(3.38903e+08 4.84587e+06 -5.01302e-08 7.91413e+07 5.61973e-09 1.25126e+08)
(3.3715e+08 1.24911e+07 -5.23529e-08 7.61885e+07 3.74235e-09 1.23297e+08)
(3.29676e+08 5.75184e+06 1.93113e-07 7.73825e+07 2.43691e-08 1.21866e+08)
(3.27854e+08 1.34343e+07 8.75518e-08 7.36887e+07 1.41462e-08 1.20626e+08)
(2.80225e+08 -1.31752e+07 -1.04614e-07 874191 2.45042e-08 1.39865e+08)
(2.82244e+08 -1.47976e+07 -3.20565e-08 3.26566e+06 4.32643e-08 1.38228e+08)
(2.8465e+08 -1.24918e+07 -2.31743e-07 5.20167e+06 5.09635e-09 1.41385e+08)
(2.85607e+08 -1.49931e+07 -9.82203e-08 6.64785e+06 3.24093e-08 1.4284e+08)
(2.88095e+08 -1.24157e+07 -5.51734e-08 8.63111e+06 -6.24899e-08 1.44997e+08)
(2.88997e+08 -1.49821e+07 1.21313e-07 1.00371e+07 6.99502e-08 1.46076e+08)
(2.91446e+08 -1.24984e+07 2.72433e-07 1.20034e+07 -8.34067e-08 1.47971e+08)
(2.92364e+08 -1.48974e+07 2.6328e-07 1.33939e+07 -4.38466e-08 1.48991e+08)
(2.94747e+08 -1.26311e+07 2.63177e-07 1.53338e+07 -2.78163e-08 1.50951e+08)
(2.95698e+08 -1.47951e+07 2.714e-07 1.67152e+07 -8.63632e-08 1.51893e+08)
(2.97992e+08 -1.27735e+07 -6.51796e-09 1.86125e+07 4.94161e-08 1.53868e+08)
(2.98992e+08 -1.46885e+07 -6.57552e-08 1.99971e+07 -1.22387e-08 1.54689e+08)
(3.01193e+08 -1.29162e+07 0 2.18489e+07 0 1.56674e+08)
(3.02244e+08 -1.45801e+07 6.56899e-08 2.32399e+07 1.28043e-08 1.5737e+08)
(3.04355e+08 -1.3054e+07 -3.73142e-08 2.50475e+07 7.57612e-08 1.59371e+08)
(3.05455e+08 -1.44702e+07 -3.80781e-08 2.64453e+07 7.75352e-08 1.59941e+08)
(3.07478e+08 -1.31822e+07 1.02204e-07 2.82098e+07 -5.95696e-08 1.61956e+08)
(3.08626e+08 -1.4358e+07 1.68583e-07 2.96149e+07 -4.77319e-08 1.62398e+08)
(3.10564e+08 -1.32988e+07 -3.58268e-08 3.13372e+07 7.15071e-08 1.64425e+08)
(3.11758e+08 -1.4244e+07 -3.60287e-08 3.27507e+07 2.79286e-08 1.64737e+08)
(3.13613e+08 -1.34032e+07 -1.36455e-07 3.44302e+07 7.78281e-08 1.66761e+08)
(3.1485e+08 -1.41284e+07 -1.39008e-07 3.58531e+07 3.82421e-08 1.66937e+08)
(3.16623e+08 -1.34959e+07 -2.3442e-07 3.74889e+07 -6.85224e-08 1.68948e+08)
(3.179e+08 -1.40123e+07 -1.03034e-07 3.89227e+07 1.01076e-08 1.68989e+08)
(3.19593e+08 -1.35792e+07 -6.81999e-08 4.05146e+07 -6.00154e-08 1.70984e+08)
(3.20907e+08 -1.38969e+07 -6.55667e-08 4.19599e+07 -1.48759e-08 1.7089e+08)
(3.22522e+08 -1.3655e+07 -3.41676e-08 4.3508e+07 6.3253e-08 1.72862e+08)
(3.23868e+08 -1.37827e+07 -1.70414e-07 4.49646e+07 -8.20931e-09 1.72633e+08)
(3.25406e+08 -1.37252e+07 -2.01324e-07 4.64688e+07 -8.87567e-08 1.74555e+08)
(3.26778e+08 -1.36687e+07 7.01846e-08 4.79346e+07 5.66155e-08 1.74185e+08)
(3.28241e+08 -1.37928e+07 -1.59145e-07 4.93988e+07 7.19799e-08 1.76038e+08)
(3.2963e+08 -1.35525e+07 2.48984e-08 5.08677e+07 3.41532e-08 1.75533e+08)
(3.31026e+08 -1.38603e+07 -3.878e-08 5.22994e+07 -1.1412e-07 1.77305e+08)
(3.32419e+08 -1.34295e+07 -3.67814e-08 5.37595e+07 -1.12537e-07 1.76668e+08)
(3.33751e+08 -1.39246e+07 5.8077e-08 5.5167e+07 -2.61644e-08 1.78325e+08)
(3.35131e+08 -1.32911e+07 8.09067e-08 5.66021e+07 9.323e-08 1.77552e+08)
(3.36404e+08 -1.39807e+07 2.50695e-07 5.79956e+07 7.28429e-08 1.7906e+08)
(3.37751e+08 -1.31256e+07 1.69315e-07 5.93855e+07 -2.20435e-08 1.78155e+08)
(3.38974e+08 -1.40246e+07 0 6.07815e+07 0 1.79493e+08)
(3.40263e+08 -1.29181e+07 -6.71703e-08 6.20967e+07 -1.55149e-08 1.78461e+08)
(3.41442e+08 -1.40451e+07 -2.02594e-07 6.35136e+07 6.52485e-08 1.79586e+08)
(3.4264e+08 -1.26483e+07 -2.17816e-07 6.47167e+07 2.78653e-08 1.78421e+08)
(3.43779e+08 -1.40234e+07 5.59549e-08 6.61719e+07 -1.27221e-07 1.79294e+08)
(3.44856e+08 -1.22933e+07 2.20396e-07 6.72251e+07 -2.27654e-08 1.77996e+08)
(3.45961e+08 -1.39428e+07 1.50751e-07 6.87382e+07 6.696e-08 1.786e+08)
(3.46879e+08 -1.18281e+07 1.50549e-07 6.95972e+07 6.67947e-08 1.77164e+08)
(3.47948e+08 -1.37775e+07 4.89968e-08 7.11838e+07 -5.05931e-09 1.77458e+08)
(3.48669e+08 -1.12246e+07 1.89806e-07 7.18047e+07 2.79924e-08 1.75873e+08)
(3.49699e+08 -1.34985e+07 -1.24668e-07 7.3474e+07 -2.975e-10 1.75847e+08)
(3.50187e+08 -1.04546e+07 1.4146e-07 7.38172e+07 3.58517e-08 1.7411e+08)
(3.51176e+08 -1.30777e+07 3.43479e-08 7.55752e+07 -3.29145e-08 1.73767e+08)
(3.51393e+08 -9.49131e+06 2.05194e-08 7.55993e+07 -6.18992e-08 1.71875e+08)
(3.52331e+08 -1.24782e+07 1.55223e-08 7.74408e+07 -5.95157e-08 1.71203e+08)
(3.52243e+08 -8.31434e+06 2.34565e-07 7.71222e+07 9.70667e-08 1.6915e+08)
(3.53127e+08 -1.16704e+07 2.0801e-07 7.90282e+07 1.23496e-07 1.68193e+08)
(3.52709e+08 -6.91493e+06 -1.84497e-07 7.83635e+07 -9.6441e-08 1.65975e+08)
(3.53526e+08 -1.06282e+07 -4.11416e-07 8.02957e+07 -8.85239e-08 1.64767e+08)
(3.52769e+08 -5.29257e+06 -3.38384e-07 7.93037e+07 -7.6166e-08 1.62392e+08)
(3.53515e+08 -9.34181e+06 -3.82683e-07 8.12158e+07 -1.15225e-07 1.61001e+08)
(3.52411e+08 -3.45557e+06 -1.88803e-07 7.99288e+07 -2.89442e-08 1.5848e+08)
(3.53082e+08 -7.8062e+06 -3.63581e-08 8.17637e+07 1.57347e-08 1.56957e+08)
(3.51641e+08 -1.42683e+06 -3.90371e-08 8.0233e+07 1.39485e-08 1.54325e+08)
(3.52239e+08 -6.03576e+06 3.72759e-08 8.19323e+07 -1.26697e-08 1.52738e+08)
(3.50483e+08 756556 3.89935e-07 8.02253e+07 1.34467e-07 1.50024e+08)
(3.51008e+08 -4.05502e+06 1.65053e-07 8.17302e+07 5.71056e-08 1.48421e+08)
(3.48964e+08 3.05813e+06 1.17775e-07 7.99061e+07 1.79384e-08 1.45684e+08)
(3.49427e+08 -1.90406e+06 -1.54751e-07 8.11773e+07 -4.69264e-08 1.44099e+08)
(3.47137e+08 5.42134e+06 -2.26129e-08 7.93098e+07 -2.04893e-08 1.41374e+08)
(3.47536e+08 379187 -2.47644e-08 8.02939e+07 -2.00821e-08 1.39855e+08)
(3.45031e+08 7.8321e+06 0 7.84089e+07 0 1.37226e+08)
(3.45394e+08 2.72715e+06 1.19814e-07 7.91292e+07 2.03351e-08 1.35749e+08)
(3.42709e+08 1.02388e+07 1.43579e-07 7.72431e+07 4.42795e-08 1.33292e+08)
(3.43038e+08 5.12299e+06 2.65859e-07 7.76935e+07 6.21232e-08 1.31851e+08)
(3.40188e+08 1.2651e+07 3.09629e-07 7.58301e+07 1.08593e-07 1.29556e+08)
(3.40396e+08 7.50687e+06 2.67837e-07 7.59729e+07 1.00736e-07 1.27934e+08)
(3.37373e+08 1.49721e+07 1.0224e-07 7.41313e+07 9.68999e-09 1.25724e+08)
(3.36768e+08 9.70419e+06 -1.45405e-07 7.42185e+07 -4.14184e-08 1.23449e+08)
(3.33837e+08 1.71639e+07 1.20154e-07 7.15654e+07 6.88819e-08 1.21612e+08)
(3.28558e+08 1.15345e+07 1.8833e-07 7.2785e+07 4.11334e-08 1.20617e+08)
(3.26965e+08 1.84052e+07 2.80848e-07 6.90322e+07 7.74583e-08 1.18763e+08)
(2.7965e+08 -1.86545e+07 1.31574e-07 1.55167e+06 -3.24905e-09 1.3956e+08)
(2.81464e+08 -2.02895e+07 -8.12436e-08 3.87191e+06 4.68366e-08 1.38094e+08)
(2.8412e+08 -1.79183e+07 2.30168e-07 5.86269e+06 -2.07342e-08 1.41069e+08)
(2.84843e+08 -2.04914e+07 4.61714e-08 7.28599e+06 -9.48352e-08 1.42735e+08)
(2.876e+08 -1.78011e+07 -1.54623e-07 9.30926e+06 1.71376e-07 1.44706e+08)
(2.88245e+08 -2.04869e+07 -2.72846e-07 1.069e+07 1.14848e-07 1.45988e+08)
(2.90964e+08 -1.78548e+07 -1.28044e-08 1.26952e+07 -1.46028e-07 1.47656e+08)
(2.91618e+08 -2.04122e+07 -8.80491e-08 1.4049e+07 -1.0452e-07 1.48887e+08)
(2.94267e+08 -1.79677e+07 -1.07072e-07 1.6035e+07 7.47268e-08 1.50599e+08)
(2.94953e+08 -2.03214e+07 -1.14334e-07 1.73665e+07 1.26496e-07 1.51761e+08)
(2.97508e+08 -1.80983e+07 -6.66356e-09 1.93188e+07 4.95619e-08 1.53488e+08)
(2.98245e+08 -2.02257e+07 -5.34557e-08 2.06423e+07 -1.0532e-07 1.54532e+08)
(3.00699e+08 -1.82353e+07 4.77595e-08 2.25557e+07 -1.76759e-07 1.56274e+08)
(3.01495e+08 -2.01264e+07 2.95528e-08 2.38774e+07 1.29872e-08 1.57187e+08)
(3.03844e+08 -1.83708e+07 2.94756e-07 2.57491e+07 6.71292e-08 1.58951e+08)
(3.04702e+08 -2.00242e+07 3.71699e-08 2.70737e+07 -7.85733e-08 1.59723e+08)
(3.06946e+08 -1.84997e+07 -1.37286e-07 2.89024e+07 1.35876e-07 1.61511e+08)
(3.07869e+08 -1.99198e+07 -2.67358e-07 3.0234e+07 2.41332e-08 1.62137e+08)
(3.1001e+08 -1.86191e+07 -1.00828e-07 3.20193e+07 -3.49518e-08 1.63951e+08)
(3.10996e+08 -1.9813e+07 -1.67385e-07 3.33604e+07 2.85549e-09 1.64423e+08)
(3.13037e+08 -1.87276e+07 3.0804e-08 3.51023e+07 3.6964e-08 1.66266e+08)
(3.14086e+08 -1.9704e+07 3.14478e-08 3.64557e+07 8.4436e-08 1.66582e+08)
(3.16028e+08 -1.88253e+07 6.61299e-08 3.8153e+07 1.40205e-08 1.68442e+08)
(3.17135e+08 -1.95925e+07 1.35132e-07 3.95196e+07 7.13051e-08 1.68599e+08)
(3.18981e+08 -1.8913e+07 4.24458e-09 4.11725e+07 4.47927e-08 1.70458e+08)
(3.20141e+08 -1.94775e+07 1.32608e-07 4.25512e+07 2.86399e-08 1.70449e+08)
(3.21895e+08 -1.89933e+07 1.96577e-07 4.41623e+07 -9.63599e-08 1.72295e+08)
(3.23101e+08 -1.93575e+07 1.3814e-07 4.55493e+07 -7.09524e-08 1.72125e+08)
(3.24767e+08 -1.907e+07 -2.49429e-08 4.7125e+07 1.03903e-07 1.73945e+08)
(3.26008e+08 -1.92297e+07 -1.78953e-07 4.85101e+07 -5.09179e-08 1.73622e+08)
(3.27593e+08 -1.91431e+07 -4.7181e-08 5.00587e+07 -2.6576e-08 1.75382e+08)
(3.2885e+08 -1.90858e+07 -2.5363e-08 5.14239e+07 9.93131e-08 1.74899e+08)
(3.30359e+08 -1.92064e+07 1.07089e-07 5.2955e+07 9.53593e-10 1.76564e+08)
(3.31613e+08 -1.89147e+07 9.99026e-08 5.42792e+07 -4.0876e-08 1.75916e+08)
(3.33052e+08 -1.92551e+07 3.092e-08 5.58066e+07 -5.35963e-08 1.77462e+08)
(3.34283e+08 -1.87042e+07 1.00178e-07 5.7063e+07 -3.79258e-08 1.76665e+08)
(3.35662e+08 -1.92833e+07 -3.07173e-08 5.86071e+07 5.10457e-08 1.78053e+08)
(3.36836e+08 -1.84356e+07 -2.1545e-08 5.97543e+07 8.87443e-08 1.77109e+08)
(3.38162e+08 -1.92728e+07 2.10449e-07 6.13375e+07 -2.53731e-08 1.7828e+08)
(3.39241e+08 -1.80837e+07 2.94936e-07 6.23278e+07 2.7322e-08 1.77174e+08)
(3.40522e+08 -1.92001e+07 4.34027e-07 6.39714e+07 6.83793e-08 1.781e+08)
(3.41471e+08 -1.76243e+07 1.47088e-07 6.47593e+07 -3.73749e-08 1.76844e+08)
(3.42714e+08 -1.90437e+07 1.15649e-07 6.64868e+07 1.14243e-08 1.77491e+08)
(3.4349e+08 -1.7027e+07 3.19427e-08 6.70162e+07 -4.19735e-08 1.76083e+08)
(3.44698e+08 -1.87703e+07 1.71225e-07 6.88484e+07 -2.16459e-09 1.76406e+08)
(3.45257e+08 -1.62592e+07 2.06548e-07 6.90663e+07 6.70545e-08 1.74834e+08)
(3.46432e+08 -1.83439e+07 1.81732e-07 7.10151e+07 1.05891e-07 1.74833e+08)
(3.46734e+08 -1.52917e+07 -8.99219e-08 7.08782e+07 -5.28252e-08 1.73097e+08)
(3.47873e+08 -1.77274e+07 -1.52202e-07 7.29466e+07 1.0634e-08 1.72759e+08)
(3.47877e+08 -1.40936e+07 -1.55279e-07 7.24173e+07 8.62737e-09 1.70847e+08)
(3.48977e+08 -1.68785e+07 6.53718e-09 7.45932e+07 -5.85658e-08 1.70197e+08)
(3.48654e+08 -1.26452e+07 2.00643e-07 7.36614e+07 5.05635e-08 1.68102e+08)
(3.49708e+08 -1.5766e+07 -5.09766e-08 7.59159e+07 6.00531e-09 1.67189e+08)
(3.49041e+08 -1.0938e+07 9.76824e-08 7.45948e+07 5.38454e-08 1.64916e+08)
(3.50043e+08 -1.43666e+07 2.07295e-07 7.68805e+07 5.78084e-08 1.63797e+08)
(3.49023e+08 -8.97252e+06 1.07692e-07 7.5212e+07 8.74228e-09 1.61344e+08)
(3.49971e+08 -1.26722e+07 7.71554e-08 7.74687e+07 2.62941e-08 1.60107e+08)
(3.48606e+08 -6.76275e+06 1.01966e-07 7.55128e+07 5.48285e-08 1.575e+08)
(3.49495e+08 -1.06905e+07 -7.98949e-08 7.76773e+07 1.05232e-08 1.56206e+08)
(3.47804e+08 -4.33916e+06 -1.6188e-07 7.55178e+07 -6.92872e-08 1.53458e+08)
(3.48637e+08 -8.44431e+06 -2.45339e-07 7.75205e+07 -9.76104e-08 1.52194e+08)
(3.46651e+08 -1.73987e+06 -3.98706e-07 7.52468e+07 -1.66728e-07 1.49349e+08)
(3.47431e+08 -5.97924e+06 -1.37027e-07 7.70355e+07 -7.71257e-08 1.48152e+08)
(3.45185e+08 986614 2.09986e-07 7.47359e+07 1.11252e-07 1.45239e+08)
(3.45916e+08 -3.33843e+06 3.28157e-07 7.62602e+07 1.33545e-07 1.44158e+08)
(3.43447e+08 3.8025e+06 1.14291e-07 7.40024e+07 3.14159e-08 1.4123e+08)
(3.44139e+08 -581796 1.92276e-07 7.52491e+07 6.04422e-08 1.40256e+08)
(3.41482e+08 6.65273e+06 1.41983e-07 7.30954e+07 5.56351e-08 1.37342e+08)
(3.42136e+08 2.24969e+06 1.0654e-07 7.40383e+07 5.27609e-08 1.36487e+08)
(3.3931e+08 9.53514e+06 0 7.19946e+07 0 1.33658e+08)
(3.39958e+08 5.09523e+06 3.86955e-08 7.2695e+07 1.57681e-09 1.32848e+08)
(3.36986e+08 1.23865e+07 1.68047e-07 7.07677e+07 7.84066e-08 1.30156e+08)
(3.37624e+08 7.94721e+06 3.289e-07 7.12088e+07 1.11498e-07 1.29406e+08)
(3.34521e+08 1.52359e+07 3.81003e-07 6.94193e+07 1.35187e-07 1.26847e+08)
(3.35152e+08 1.0714e+07 -5.89923e-08 6.97178e+07 1.22209e-08 1.25862e+08)
(3.3188e+08 1.80031e+07 -4.59709e-07 6.79949e+07 -2.04522e-07 1.2345e+08)
(3.32282e+08 1.3463e+07 -5.08948e-07 6.7965e+07 -1.96641e-07 1.21972e+08)
(3.28758e+08 2.07952e+07 -3.83721e-07 6.60651e+07 -1.39348e-07 1.19978e+08)
(3.271e+08 1.58298e+07 -1.72189e-07 6.66998e+07 -8.02757e-08 1.18294e+08)
(3.25264e+08 2.25048e+07 1.13485e-07 6.36114e+07 5.86508e-08 1.16226e+08)
(2.78813e+08 -2.41628e+07 -1.29385e-07 2.41704e+06 7.1247e-09 1.39377e+08)
(2.80517e+08 -2.57203e+07 1.45981e-07 4.73283e+06 -5.2562e-08 1.37974e+08)
(2.83337e+08 -2.33699e+07 -1.99505e-09 6.70865e+06 -1.49673e-07 1.40779e+08)
(2.83859e+08 -2.59541e+07 8.31318e-08 8.13888e+06 6.83057e-09 1.42555e+08)
(2.86866e+08 -2.31957e+07 1.03719e-07 1.01778e+07 1.11843e-07 1.44341e+08)
(2.87269e+08 -2.59593e+07 5.19566e-08 1.15533e+07 5.34551e-08 1.45802e+08)
(2.90259e+08 -2.32011e+07 -3.28207e-08 1.3583e+07 -4.21515e-08 1.47255e+08)
(2.90653e+08 -2.58933e+07 1.08309e-07 1.49218e+07 -8.75512e-08 1.48687e+08)
(2.93579e+08 -2.32752e+07 -6.57125e-08 1.69381e+07 -6.18989e-09 1.50157e+08)
(2.93995e+08 -2.5812e+07 -5.67756e-08 1.82439e+07 -5.45096e-08 1.51536e+08)
(2.96828e+08 -2.33759e+07 6.95424e-09 2.02316e+07 -4.97215e-08 1.53002e+08)
(2.9729e+08 -2.57262e+07 -6.2004e-09 2.15189e+07 4.80945e-08 1.54267e+08)
(3.00016e+08 -2.34912e+07 -1.37098e-07 2.34716e+07 3.16137e-08 1.55745e+08)
(3.00537e+08 -2.56376e+07 4.27836e-09 2.47503e+07 -4.72444e-08 1.56876e+08)
(3.03151e+08 -2.36136e+07 -1.29606e-07 2.66639e+07 -6.76032e-08 1.58388e+08)
(3.03742e+08 -2.5547e+07 0 2.79423e+07 0 1.59373e+08)
(3.06239e+08 -2.37369e+07 -3.50223e-08 2.98134e+07 7.48087e-08 1.60924e+08)
(3.06905e+08 -2.54539e+07 -1.66671e-07 3.10971e+07 1.05289e-08 1.61748e+08)
(3.09284e+08 -2.38563e+07 -6.72789e-08 3.2924e+07 -5.8215e-08 1.63335e+08)
(3.10028e+08 -2.53571e+07 -1.34501e-07 3.42168e+07 -1.12219e-07 1.6399e+08)
(3.12291e+08 -2.39683e+07 -2.03418e-07 3.59995e+07 2.29632e-08 1.65608e+08)
(3.1311e+08 -2.52548e+07 -2.68395e-07 3.73025e+07 6.23993e-08 1.66082e+08)
(3.15261e+08 -2.40727e+07 -2.00983e-07 3.90443e+07 6.33014e-08 1.67729e+08)
(3.16151e+08 -2.51457e+07 -2.72954e-07 4.03557e+07 1.24683e-08 1.68025e+08)
(3.18196e+08 -2.4171e+07 -2.06731e-07 4.20628e+07 1.36296e-08 1.6969e+08)
(3.1915e+08 -2.50268e+07 -1.30339e-07 4.33746e+07 1.18672e-07 1.69815e+08)
(3.21095e+08 -2.42639e+07 6.03147e-08 4.50564e+07 -1.2468e-07 1.71468e+08)
(3.22095e+08 -2.48903e+07 2.03563e-07 4.63504e+07 -5.7082e-08 1.7142e+08)
(3.23949e+08 -2.4346e+07 2.40358e-07 4.80191e+07 2.69516e-08 1.73023e+08)
(3.24975e+08 -2.47241e+07 3.86729e-08 4.92701e+07 -2.00623e-08 1.72791e+08)
(3.26743e+08 -2.44098e+07 7.76767e-08 5.09395e+07 5.70334e-08 1.74315e+08)
(3.27775e+08 -2.45167e+07 -6.80873e-08 5.21212e+07 -1.5363e-08 1.73911e+08)
(3.29465e+08 -2.44503e+07 0 5.381e+07 0 1.75324e+08)
(3.30477e+08 -2.42532e+07 -7.93729e-08 5.48851e+07 -5.49436e-08 1.74764e+08)
(3.321e+08 -2.44564e+07 -2.75202e-07 5.66181e+07 1.43627e-08 1.76007e+08)
(3.33052e+08 -2.39078e+07 -2.09166e-07 5.75313e+07 3.266e-08 1.75277e+08)
(3.34616e+08 -2.44042e+07 -8.39773e-08 5.93352e+07 -5.59555e-08 1.76298e+08)
(3.35468e+08 -2.34539e+07 0 6.00312e+07 0 1.75393e+08)
(3.3698e+08 -2.42666e+07 -7.03103e-08 6.19284e+07 -1.81452e-08 1.76162e+08)
(3.37695e+08 -2.28663e+07 8.60183e-08 6.2356e+07 5.47823e-08 1.75093e+08)
(3.3916e+08 -2.40173e+07 2.39334e-07 6.43694e+07 -5.09175e-08 1.75567e+08)
(3.39691e+08 -2.21096e+07 3.32471e-07 6.44648e+07 5.12862e-09 1.7432e+08)
(3.41111e+08 -2.36167e+07 1.12337e-07 6.66143e+07 9.06717e-08 1.74462e+08)
(3.41413e+08 -2.11501e+07 -1.88278e-08 6.63222e+07 -3.34619e-08 1.73032e+08)
(3.4279e+08 -2.30226e+07 -3.6621e-07 6.86142e+07 -5.41373e-08 1.72845e+08)
(3.42823e+08 -1.99582e+07 -2.95619e-07 6.78949e+07 -3.67144e-08 1.7123e+08)
(3.44153e+08 -2.21927e+07 -9.89227e-08 7.03216e+07 -5.6262e-08 1.70715e+08)
(3.43879e+08 -1.85038e+07 -9.76246e-08 6.91501e+07 -5.69785e-08 1.68898e+08)
(3.45155e+08 -2.10825e+07 -1.49939e-07 7.16823e+07 -5.74829e-09 1.68106e+08)
(3.44554e+08 -1.67738e+07 -3.29148e-07 7.0073e+07 -9.48228e-08 1.66083e+08)
(3.4577e+08 -1.96648e+07 -4.12459e-07 7.26632e+07 -1.28476e-07 1.65076e+08)
(3.44831e+08 -1.47624e+07 -1.54604e-07 7.06533e+07 -1.89687e-08 1.62852e+08)
(3.45982e+08 -1.79224e+07 -1.0822e-07 7.32396e+07 -5.83279e-08 1.61714e+08)
(3.44707e+08 -1.24791e+07 -7.83827e-08 7.08981e+07 -3.24566e-08 1.59291e+08)
(3.4579e+08 -1.58555e+07 1.02924e-07 7.34072e+07 1.89683e-08 1.58114e+08)
(3.44198e+08 -9.94907e+06 1.34007e-07 7.0827e+07 4.97819e-08 1.5552e+08)
(3.45216e+08 -1.34905e+07 1.12319e-07 7.31906e+07 5.99002e-08 1.54388e+08)
(3.43336e+08 -7.21119e+06 0 7.04759e+07 0 1.51646e+08)
(3.4429e+08 -1.08653e+07 2.66183e-07 7.26303e+07 9.92225e-08 1.5062e+08)
(3.42162e+08 -4.31529e+06 3.59119e-07 6.98902e+07 1.83992e-07 1.47765e+08)
(3.43063e+08 -8.03694e+06 2.60871e-07 7.17882e+07 1.46855e-07 1.46906e+08)
(3.4072e+08 -1.30195e+06 -1.72155e-07 6.91039e+07 -1.11738e-07 1.43984e+08)
(3.41576e+08 -5.06651e+06 -6.64944e-07 7.07291e+07 -2.93802e-07 1.43278e+08)
(3.39058e+08 1.77356e+06 -3.11372e-07 6.81763e+07 -1.30785e-07 1.40317e+08)
(3.39874e+08 -2.00565e+06 -1.15934e-07 6.9506e+07 -8.33157e-08 1.39785e+08)
(3.37208e+08 4.88574e+06 1.41387e-07 6.71249e+07 6.6671e-08 1.3683e+08)
(3.37999e+08 1.08275e+06 3.19965e-08 6.81876e+07 2.3258e-08 1.36408e+08)
(3.35201e+08 7.99048e+06 7.87316e-08 6.59975e+07 4.01859e-08 1.33484e+08)
(3.3597e+08 4.17063e+06 0 6.67994e+07 0 1.33141e+08)
(3.33054e+08 1.10741e+07 2.84042e-08 6.48027e+07 2.23058e-08 1.30284e+08)
(3.33824e+08 7.21847e+06 1.78686e-07 6.53919e+07 7.21306e-08 1.29961e+08)
(3.30786e+08 1.41199e+07 1.52554e-07 6.35598e+07 5.54872e-08 1.27221e+08)
(3.31574e+08 1.02036e+07 -3.05691e-07 6.39655e+07 -1.269e-07 1.26875e+08)