/*--------------------------------*- C++ -*----------------------------------*\
| =========                 |                                                 |
| \\      /  F ield         | OpenFOAM: The Open Source CFD Toolbox           |
|  \\    /   O peration     | Version:  v2012                                 |
|   \\  /    A nd           | Website:  www.openfoam.com                      |
|    \\/     M anipulation  |                                                 |
\*---------------------------------------------------------------------------*/
FoamFile
{
    version     2.0;
    format      ascii;
    class       volSymmTensorField;
    location    "1";
    object      epsilonP;
}
// * * * * * * * * * * * * * * * * * * * * * * * * * * * * * * * * * * * * * //

dimensions      [0 0 0 0 0 0 0];


internalField   nonuniform List<symmTensor> 
47040
(
(-7.13613e-05 -4.22599e-05 7.49109e-06 2.78021e-05 3.27185e-06 4.35592e-05)
(-4.90937e-05 -3.58669e-05 1.13479e-05 2.45469e-05 -1.10506e-21 2.45469e-05)
(-4.90937e-05 -3.58669e-05 1.13479e-05 2.45469e-05 -1.73027e-21 2.45469e-05)
(-4.90937e-05 -3.58669e-05 1.13479e-05 2.45469e-05 -1.30524e-21 2.45469e-05)
(-5.28545e-05 -3.58491e-05 1.57951e-05 2.64272e-05 -7.88115e-22 2.64272e-05)
(-5.09297e-05 -3.46651e-05 9.71737e-06 2.2421e-05 -1.92163e-06 2.85087e-05)
(-5.28545e-05 -3.58491e-05 1.57951e-05 2.64272e-05 3.27937e-22 2.64272e-05)
(-5.18502e-05 -3.31794e-05 2.65072e-05 2.59251e-05 -1.17877e-21 2.59251e-05)
(-5.72063e-05 -3.66636e-05 1.65602e-05 2.00461e-05 -3.47615e-06 3.71602e-05)
(-5.18502e-05 -3.31794e-05 2.65072e-05 2.59251e-05 -5.87504e-22 2.59251e-05)
(-6.71601e-05 -3.48558e-05 3.90818e-05 3.35801e-05 -5.10345e-21 3.35801e-05)
(-5.69741e-05 -2.81607e-05 1.98536e-05 2.12259e-05 -6.06192e-06 3.57481e-05)
(-4.09946e-05 -1.44749e-05 3.73351e-06 2.27424e-05 2.38068e-06 1.82522e-05)
(-2.80601e-05 -1.21949e-05 6.38834e-06 1.99963e-05 -1.71257e-06 8.06387e-06)
(-5.02849e-05 -1.82368e-05 3.13329e-06 2.44967e-05 1.12576e-06 2.57882e-05)
(-2.97783e-05 -1.23165e-05 6.97355e-06 1.87572e-05 -9.53003e-07 1.10211e-05)
(-2.88849e-05 -9.56507e-06 8.15346e-06 1.83442e-05 -1.76594e-06 1.05407e-05)
(-2.73698e-05 -1.06378e-05 9.57803e-06 2.02178e-05 -1.10185e-07 7.15201e-06)
(-2.71168e-05 -9.52324e-06 9.52422e-06 1.99058e-05 -1.95658e-06 7.21101e-06)
(-3.36386e-05 -7.76452e-06 1.36178e-05 1.73902e-05 -3.56094e-06 1.62484e-05)
(-2.97979e-05 -6.83047e-06 1.22798e-05 1.93441e-05 -8.43968e-08 1.04539e-05)
(-2.87127e-05 -7.57348e-06 1.27607e-05 2.10605e-05 -5.09309e-06 7.65212e-06)
(-4.51936e-05 -4.63176e-06 1.74194e-05 2.59161e-05 -5.16418e-06 1.92775e-05)
(-4.93113e-05 -8.95502e-06 1.86833e-05 2.48199e-05 -6.01886e-06 2.44914e-05)
(-3.68351e-05 -2.43712e-05 3.77378e-06 1.37844e-05 2.40635e-06 2.30507e-05)
(-2.41986e-05 -1.91766e-05 6.41908e-06 1.20993e-05 2.97912e-22 1.20993e-05)
(-2.41986e-05 -1.91766e-05 6.41908e-06 1.20993e-05 9.07256e-22 1.20993e-05)
(-2.59747e-05 -1.94348e-05 7.03136e-06 1.08119e-05 7.83078e-07 1.51628e-05)
(-2.30151e-05 -1.79042e-05 9.57828e-06 1.15076e-05 4.44531e-22 1.15076e-05)
(-2.30151e-05 -1.79042e-05 9.57828e-06 1.15076e-05 8.47058e-22 1.15076e-05)
(-2.30151e-05 -1.79042e-05 9.57828e-06 1.15076e-05 3.18042e-22 1.15076e-05)
(-2.54684e-05 -1.52413e-05 1.22684e-05 1.07225e-05 1.9047e-06 1.47459e-05)
(-2.30151e-05 -1.79042e-05 9.57828e-06 1.15076e-05 4.70712e-23 1.15076e-05)
(-2.38844e-05 -1.50879e-05 1.25718e-05 1.19422e-05 1.07206e-21 1.19422e-05)
(-3.87925e-05 -1.40271e-05 1.7179e-05 1.40038e-05 1.5996e-06 2.47887e-05)
(-2.38844e-05 -1.50879e-05 1.25718e-05 1.19422e-05 -1.75617e-21 1.19422e-05)
(-2.03719e-05 -1.11911e-05 1.43691e-06 1.02092e-05 9.71116e-07 1.01627e-05)
(-1.39139e-05 -1.00073e-05 3.37285e-06 8.51793e-06 -9.51125e-07 5.396e-06)
(-2.63716e-05 -1.52888e-05 1.15407e-06 1.08401e-05 1.04995e-06 1.55315e-05)
(-1.55474e-05 -1.03106e-05 3.9144e-06 7.56448e-06 -3.25738e-07 7.98288e-06)
(-1.51573e-05 -1.01403e-05 5.02668e-06 7.87138e-06 -1.12304e-06 7.2859e-06)
(-1.36474e-05 -1.03658e-05 3.3855e-06 7.91253e-06 -2.28266e-06 5.73491e-06)
(-1.42274e-05 -1.00077e-05 5.07297e-06 8.50008e-06 -1.4874e-06 5.72734e-06)
(-1.47954e-05 -8.07003e-06 6.93258e-06 7.16635e-06 -6.96437e-07 7.62901e-06)
(-1.64391e-05 -7.81349e-06 7.39354e-06 7.92707e-06 9.80464e-08 8.51206e-06)
(-1.37213e-05 -7.93203e-06 6.82e-06 7.8649e-06 -1.76349e-06 5.85637e-06)
(-2.67286e-05 -7.46774e-06 1.00947e-05 9.43173e-06 -1.25234e-06 1.72968e-05)
(-2.6339e-05 -7.82089e-06 1.05653e-05 1.03003e-05 -1.0189e-06 1.60387e-05)
(-1.93734e-05 -1.59259e-05 1.48824e-06 7.12138e-06 1.00581e-06 1.2252e-05)
(-1.3401e-05 -1.31551e-05 3.51112e-06 6.70052e-06 1.62952e-22 6.70052e-06)
(-1.3401e-05 -1.31551e-05 3.51112e-06 6.70052e-06 6.22378e-22 6.70052e-06)
(-1.3401e-05 -1.31551e-05 3.51112e-06 6.70052e-06 1.2474e-22 6.70052e-06)
(-1.46417e-05 -1.28011e-05 5.17545e-06 6.17593e-06 3.95441e-07 8.46576e-06)
(-1.3401e-05 -1.31551e-05 3.51112e-06 6.70052e-06 1.72549e-23 6.70052e-06)
(-1.36856e-05 -1.26233e-05 5.21881e-06 6.84282e-06 2.24235e-22 6.84282e-06)
(-1.46301e-05 -1.09774e-05 7.18598e-06 6.01618e-06 1.13785e-06 8.61391e-06)
(-1.36856e-05 -1.26233e-05 5.21881e-06 6.84282e-06 2.56472e-23 6.84282e-06)
(-1.34953e-05 -1.0763e-05 7.05178e-06 6.74766e-06 7.64754e-22 6.74766e-06)
(-2.57713e-05 -1.08659e-05 1.06601e-05 8.78464e-06 1.08975e-06 1.69866e-05)
(-1.34953e-05 -1.0763e-05 7.05178e-06 6.74766e-06 -9.53754e-22 6.74766e-06)
(-9.68756e-06 -7.94472e-06 4.37173e-07 4.86078e-06 3.66445e-07 4.82677e-06)
(-7.25261e-06 -7.26697e-06 1.48507e-06 4.35967e-06 -5.95732e-07 2.89294e-06)
(-1.29483e-05 -1.02433e-05 -1.92503e-07 5.17965e-06 1.27946e-07 7.76866e-06)
(-7.25261e-06 -7.26697e-06 1.48507e-06 4.35967e-06 -5.95732e-07 2.89294e-06)
(-7.63854e-06 -6.96665e-06 2.45977e-06 3.85027e-06 -5.90621e-07 3.78827e-06)
(-8.28346e-06 -7.06545e-06 2.77875e-06 4.01351e-06 -3.10323e-07 4.26995e-06)
(-7.05489e-06 -6.80667e-06 2.38257e-06 4.17009e-06 -7.6181e-07 2.8848e-06)
(-6.65926e-06 -5.73149e-06 3.46737e-06 3.01952e-06 -4.92483e-07 3.63974e-06)
(-7.69286e-06 -5.52352e-06 3.821e-06 3.52225e-06 8.55849e-08 4.17061e-06)
(-5.97953e-06 -5.50688e-06 3.14625e-06 3.31996e-06 -9.04863e-07 2.65957e-06)
(-1.41111e-05 -4.79139e-06 5.60631e-06 5.35676e-06 -5.39722e-07 8.75435e-06)
(-1.74425e-05 -6.51817e-06 6.69567e-06 5.61731e-06 -3.54127e-07 1.18252e-05)
(-9.64572e-06 -1.06301e-05 4.70758e-07 3.66205e-06 3.94597e-07 5.98368e-06)
(-7.26981e-06 -9.20207e-06 1.59619e-06 3.6349e-06 2.85184e-22 3.6349e-06)
(-7.26981e-06 -9.20207e-06 1.59619e-06 3.6349e-06 -8.6421e-22 3.6349e-06)
(-7.26981e-06 -9.20207e-06 1.59619e-06 3.6349e-06 2.76878e-22 3.6349e-06)
(-7.77711e-06 -9.02453e-06 2.65691e-06 3.21157e-06 2.0425e-07 4.56553e-06)
(-7.26981e-06 -9.20207e-06 1.59619e-06 3.6349e-06 6.56099e-23 3.6349e-06)
(-7.17641e-06 -8.84052e-06 2.5803e-06 3.58821e-06 2.22407e-22 3.58821e-06)
(-7.15042e-06 -7.99024e-06 3.85576e-06 2.84821e-06 4.99613e-07 4.30222e-06)
(-7.17641e-06 -8.84052e-06 2.5803e-06 3.58821e-06 -7.00827e-24 3.58821e-06)
(-6.4485e-06 -7.72982e-06 3.52269e-06 3.22425e-06 1.37309e-22 3.22425e-06)
(-1.41342e-05 -7.4577e-06 5.81913e-06 4.53503e-06 1.3249e-06 9.59921e-06)
(-6.4485e-06 -7.72982e-06 3.52269e-06 3.22425e-06 9.61242e-22 3.22425e-06)
(-2.53945e-06 -3.6687e-06 5.80602e-08 1.45069e-06 6.55256e-08 1.08875e-06)
(-2.08909e-06 -3.53028e-06 3.46196e-07 1.35055e-06 -2.50284e-07 7.38533e-07)
(-3.93776e-06 -5.14313e-06 -3.65902e-07 1.62068e-06 -7.86523e-08 2.31709e-06)
(-2.08909e-06 -3.53028e-06 3.46196e-07 1.35055e-06 -2.50284e-07 7.38533e-07)
(-2.16565e-06 -3.30134e-06 6.22381e-07 1.01427e-06 -2.61336e-07 1.15138e-06)
(-2.04425e-06 -3.27949e-06 6.43687e-07 1.13599e-06 -1.66267e-07 9.08262e-07)
(-1.82685e-06 -3.11551e-06 5.76343e-07 1.17409e-06 -3.4479e-07 6.5276e-07)
(-2.22676e-06 -3.0576e-06 1.0996e-06 9.72348e-07 -1.91056e-07 1.25441e-06)
(-1.88669e-06 -2.55513e-06 8.19709e-07 9.56485e-07 -1.30108e-07 9.30207e-07)
(-1.80759e-06 -2.79792e-06 9.04443e-07 1.11982e-06 -4.11972e-07 6.87773e-07)
(-5.32076e-06 -2.945e-06 1.22319e-06 1.31243e-06 -3.20957e-07 4.00833e-06)
(-4.8824e-06 -3.20569e-06 1.63192e-06 1.94174e-06 -5.53815e-08 2.94066e-06)
(-3.05715e-06 -6.20551e-06 7.86358e-08 1.20032e-06 8.87468e-08 1.85682e-06)
(-2.52705e-06 -5.7236e-06 4.64093e-07 1.26352e-06 2.15387e-23 1.26352e-06)
(-2.52705e-06 -5.7236e-06 4.64093e-07 1.26352e-06 2.70787e-22 1.26352e-06)
(-2.52705e-06 -5.7236e-06 4.64093e-07 1.26352e-06 1.64879e-23 1.26352e-06)
(-2.31507e-06 -5.34406e-06 8.07148e-07 1.15753e-06 3.746e-23 1.15753e-06)
(-2.56198e-06 -5.37937e-06 8.74686e-07 1.11187e-06 2.84208e-07 1.4501e-06)
(-2.31507e-06 -5.34406e-06 8.07148e-07 1.15753e-06 9.49296e-23 1.15753e-06)
(-2.51833e-06 -4.64856e-06 1.19402e-06 9.33441e-07 2.66641e-07 1.58489e-06)
(-2.31507e-06 -5.34406e-06 8.07148e-07 1.15753e-06 3.96662e-24 1.15753e-06)
(-2.23102e-06 -4.50683e-06 1.21295e-06 1.11551e-06 3.2023e-22 1.11551e-06)
(-5.32572e-06 -4.56891e-06 1.85863e-06 1.7416e-06 6.09022e-07 3.58412e-06)
(-2.23102e-06 -4.50683e-06 1.21295e-06 1.11551e-06 -1.27892e-22 1.11551e-06)
(1.14516e-07 -1.37346e-06 -2.36699e-08 3.18542e-09 2.57551e-08 -1.17701e-07)
(5.609e-08 -1.33541e-06 -2.15754e-08 1.61934e-08 -8.15287e-08 -7.22834e-08)
(-6.51881e-08 -1.72264e-06 -1.76145e-07 -3.02122e-08 -7.02612e-08 9.54003e-08)
(5.48163e-08 -1.33075e-06 -2.90335e-08 1.50591e-08 -6.99549e-08 -6.98755e-08)
(5.28322e-08 -1.38322e-06 -1.98007e-08 3.66575e-09 -1.42508e-07 -5.6498e-08)
(-4.60207e-08 -1.82095e-06 -1.533e-07 -3.94986e-08 -1.39717e-07 8.55193e-08)
(4.67874e-08 -1.3426e-06 -1.90311e-08 -9.35294e-10 -7.73735e-08 -4.58521e-08)
(-2.65228e-09 -4.60732e-07 -1.05728e-08 -3.68897e-08 -4.68426e-08 3.9542e-08)
(9.76774e-09 -5.76891e-07 -4.20051e-09 2.966e-08 -6.14543e-08 -3.94277e-08)
(2.17035e-08 -3.92194e-07 -1.82159e-08 -7.4408e-09 -6.04946e-09 -1.42627e-08)
(0 0 0 0 0 0)
(0 0 0 0 0 0)
(3.80452e-07 -4.56072e-06 -6.21165e-08 -1.51502e-07 6.75886e-08 -2.28949e-07)
(2.17152e-07 -4.20288e-06 -5.47445e-08 -1.08576e-07 -2.54071e-24 -1.08576e-07)
(2.17152e-07 -4.20288e-06 -5.47445e-08 -1.08576e-07 1.98841e-22 -1.08576e-07)
(2.14446e-07 -4.20361e-06 -7.39393e-08 -1.1134e-07 2.87493e-08 -1.03106e-07)
(1.73916e-07 -4.04641e-06 -4.72469e-08 -8.69582e-08 -2.19275e-24 -8.69582e-08)
(1.73916e-07 -4.04641e-06 -4.72469e-08 -8.69582e-08 1.91438e-22 -8.69582e-08)
(1.63132e-07 -4.0529e-06 -4.68593e-08 -9.81616e-08 1.50075e-07 -6.497e-08)
(1.47636e-07 -3.227e-06 -1.89087e-08 -7.38181e-08 -3.44375e-22 -7.38181e-08)
(1.47636e-07 -3.227e-06 -1.89087e-08 -7.38181e-08 1.52672e-22 -7.38181e-08)
(1.56629e-07 -3.31907e-06 -1.22624e-07 -7.1144e-08 4.19892e-07 -8.54848e-08)
(-1.16601e-08 -5.75321e-07 -6.46163e-09 5.83004e-09 -6.14622e-23 5.83004e-09)
(-1.16601e-08 -5.75321e-07 -6.46163e-09 5.83004e-09 2.72188e-23 5.83004e-09)
(3.41746e-06 -4.16638e-06 -1.61359e-07 -1.44962e-06 5.97027e-08 -1.96783e-06)
(2.53649e-06 -3.69642e-06 -5.12141e-07 -1.38767e-06 -2.28094e-07 -1.14882e-06)
(2.89365e-06 -4.09497e-06 -5.56947e-07 -1.53546e-06 -1.75911e-07 -1.35819e-06)
(2.80437e-06 -3.85073e-06 -5.74884e-07 -1.28362e-06 -2.40849e-07 -1.52075e-06)
(2.55437e-06 -3.83792e-06 -8.90244e-07 -1.42569e-06 -4.19487e-07 -1.12868e-06)
(2.66799e-06 -3.99733e-06 -9.43903e-07 -1.49132e-06 -4.00559e-07 -1.17666e-06)
(2.81744e-06 -3.95716e-06 -8.97359e-07 -1.28626e-06 -2.64354e-07 -1.53118e-06)
(2.49192e-06 -3.43793e-06 -1.24035e-06 -1.38825e-06 -6.08505e-07 -1.10367e-06)
(2.72087e-06 -4.02979e-06 -1.38903e-06 -1.53554e-06 -4.96353e-07 -1.18533e-06)
(2.9392e-06 -3.59122e-06 -1.14671e-06 -1.11399e-06 -4.87757e-08 -1.82522e-06)
(2.2957e-06 -2.00098e-06 -1.64099e-06 -1.23049e-06 -8.05353e-07 -1.06521e-06)
(3.51606e-06 -3.69148e-06 -2.43107e-06 -1.86384e-06 -5.38953e-07 -1.65222e-06)
(4.30216e-06 -6.67929e-06 -2.08167e-07 -1.65686e-06 7.70214e-08 -2.6453e-06)
(3.29766e-06 -6.08631e-06 -6.87404e-07 -1.64883e-06 -3.19027e-23 -1.64883e-06)
(3.29766e-06 -6.08631e-06 -6.87404e-07 -1.64883e-06 2.87947e-22 -1.64883e-06)
(3.58033e-06 -6.2147e-06 -7.56322e-07 -1.4705e-06 -4.25354e-09 -2.10982e-06)
(3.21438e-06 -6.13706e-06 -1.16544e-06 -1.60719e-06 -5.40885e-23 -1.60719e-06)
(3.21438e-06 -6.13706e-06 -1.16544e-06 -1.60719e-06 2.90348e-22 -1.60719e-06)
(3.51975e-06 -6.26542e-06 -1.16319e-06 -1.40267e-06 2.17982e-07 -2.11708e-06)
(3.14895e-06 -5.60737e-06 -1.62942e-06 -1.57447e-06 -6.35283e-22 -1.57447e-06)
(3.14895e-06 -5.60737e-06 -1.62942e-06 -1.57447e-06 2.65288e-22 -1.57447e-06)
(3.74302e-06 -5.87631e-06 -1.51126e-06 -1.20695e-06 7.73433e-07 -2.53607e-06)
(3.1086e-06 -3.97029e-06 -2.2767e-06 -1.5543e-06 -4.73785e-22 -1.5543e-06)
(3.1086e-06 -3.97029e-06 -2.2767e-06 -1.5543e-06 1.87837e-22 -1.5543e-06)
(1.0844e-05 -7.89724e-06 -4.58779e-07 -4.59648e-06 5.63595e-08 -6.24751e-06)
(8.40869e-06 -7.38949e-06 -1.86709e-06 -4.7119e-06 -4.9232e-07 -3.69679e-06)
(9.74937e-06 -7.8937e-06 -1.29247e-06 -4.79001e-06 -4.20154e-07 -4.95936e-06)
(9.25096e-06 -7.62802e-06 -2.00845e-06 -4.29317e-06 -6.08029e-07 -4.9578e-06)
(8.56905e-06 -7.7892e-06 -3.21323e-06 -4.87947e-06 -8.39653e-07 -3.68959e-06)
(9.04761e-06 -7.83333e-06 -2.67925e-06 -4.70491e-06 -8.5087e-07 -4.3427e-06)
(9.464e-06 -7.99719e-06 -3.19961e-06 -4.34364e-06 -5.85651e-07 -5.12036e-06)
(9.02201e-06 -7.55053e-06 -4.80807e-06 -5.13224e-06 -1.25955e-06 -3.88977e-06)
(9.33813e-06 -8.04532e-06 -4.09309e-06 -4.81761e-06 -9.77822e-07 -4.52052e-06)
(1.04032e-05 -7.74087e-06 -4.11583e-06 -4.10785e-06 -2.52678e-07 -6.29535e-06)
(1.15075e-05 -6.10349e-06 -7.95303e-06 -6.44608e-06 -2.01256e-06 -5.06137e-06)
(1.15043e-05 -7.7371e-06 -6.17904e-06 -5.48108e-06 -8.83353e-07 -6.02319e-06)
(1.11793e-05 -1.02101e-05 -4.88419e-07 -4.16277e-06 6.00008e-08 -7.01648e-06)
(8.67933e-06 -9.49458e-06 -2.00799e-06 -4.33967e-06 -9.31914e-23 -4.33967e-06)
(8.67933e-06 -9.49458e-06 -2.00799e-06 -4.33967e-06 4.49194e-22 -4.33967e-06)
(9.50962e-06 -9.73575e-06 -2.14562e-06 -3.84007e-06 -1.06634e-07 -5.66955e-06)
(8.69956e-06 -9.8651e-06 -3.42049e-06 -4.34978e-06 2.28959e-22 -4.34978e-06)
(8.69956e-06 -9.8651e-06 -3.42049e-06 -4.34978e-06 -1.68096e-23 -4.34978e-06)
(9.61224e-06 -1.00984e-05 -3.39585e-06 -3.74565e-06 2.93376e-07 -5.86659e-06)
(9.06737e-06 -9.60646e-06 -5.06474e-06 -4.53369e-06 -1.14087e-21 -4.53369e-06)
(9.06737e-06 -9.60646e-06 -5.06474e-06 -4.53369e-06 4.54488e-22 -4.53369e-06)
(1.05491e-05 -9.88405e-06 -4.35114e-06 -3.44496e-06 1.098e-06 -7.10414e-06)
(1.13922e-05 -8.49269e-06 -8.20238e-06 -5.6961e-06 -1.08755e-21 -5.6961e-06)
(1.13922e-05 -8.49269e-06 -8.20238e-06 -5.6961e-06 4.01794e-22 -5.6961e-06)
(2.19214e-05 -1.19957e-05 -1.11223e-06 -9.35433e-06 -4.65316e-08 -1.25671e-05)
(1.69604e-05 -1.18339e-05 -4.04517e-06 -9.73575e-06 -8.12291e-07 -7.22465e-06)
(1.97652e-05 -1.23249e-05 -2.24796e-06 -9.51274e-06 -7.68709e-07 -1.02525e-05)
(1.83188e-05 -1.20565e-05 -4.25941e-06 -8.87952e-06 -1.0595e-06 -9.43924e-06)
(1.70685e-05 -1.24399e-05 -6.46482e-06 -9.89263e-06 -1.17604e-06 -7.17586e-06)
(1.80179e-05 -1.22554e-05 -4.92689e-06 -9.27101e-06 -1.30464e-06 -8.74686e-06)
(1.85989e-05 -1.26493e-05 -6.42475e-06 -8.81601e-06 -8.28005e-07 -9.78293e-06)
(1.77404e-05 -1.21458e-05 -9.42146e-06 -1.02458e-05 -1.65333e-06 -7.49464e-06)
(1.82603e-05 -1.26219e-05 -7.35405e-06 -9.23183e-06 -1.29565e-06 -9.02843e-06)
(2.00691e-05 -1.23255e-05 -8.06772e-06 -8.33123e-06 -4.3246e-07 -1.17379e-05)
(2.1996e-05 -1.05747e-05 -1.48694e-05 -1.25075e-05 -2.47818e-06 -9.48851e-06)
(2.07418e-05 -1.22542e-05 -1.00717e-05 -9.62336e-06 -1.07724e-06 -1.11184e-05)
(2.15509e-05 -1.49426e-05 -1.13606e-06 -7.87439e-06 -4.75285e-08 -1.36765e-05)
(1.64796e-05 -1.4265e-05 -4.13455e-06 -8.23981e-06 1.85747e-21 -8.23981e-06)
(1.64796e-05 -1.4265e-05 -4.13455e-06 -8.23981e-06 -2.20576e-22 -8.23981e-06)
(1.78311e-05 -1.45164e-05 -4.34846e-06 -7.32395e-06 -2.36783e-07 -1.05072e-05)
(1.64694e-05 -1.48548e-05 -6.5874e-06 -8.23469e-06 2.26016e-21 -8.23469e-06)
(1.64694e-05 -1.48548e-05 -6.5874e-06 -8.23469e-06 -6.75567e-23 -8.23469e-06)
(1.8015e-05 -1.51062e-05 -6.54717e-06 -7.10724e-06 3.74845e-07 -1.09077e-05)
(1.70714e-05 -1.45608e-05 -9.56034e-06 -8.53569e-06 -1.03461e-21 -8.53569e-06)
(1.70714e-05 -1.45608e-05 -9.56034e-06 -8.53569e-06 -1.78337e-21 -8.53569e-06)
(1.94702e-05 -1.4814e-05 -8.20756e-06 -6.58213e-06 1.26691e-06 -1.28881e-05)
(2.11292e-05 -1.33711e-05 -1.49682e-05 -1.05646e-05 -4.183e-22 -1.05646e-05)
(2.11292e-05 -1.33711e-05 -1.49682e-05 -1.05646e-05 -1.32906e-21 -1.05646e-05)
(3.72118e-05 -1.71132e-05 -2.84168e-06 -1.56697e-05 -3.85047e-07 -2.15421e-05)
(2.7073e-05 -1.8053e-05 -7.31316e-06 -1.58409e-05 -1.32889e-06 -1.12321e-05)
(3.23753e-05 -1.84336e-05 -3.97159e-06 -1.53682e-05 -1.4148e-06 -1.70071e-05)
(2.88234e-05 -1.82528e-05 -7.89713e-06 -1.45655e-05 -1.35132e-06 -1.4258e-05)
(2.60594e-05 -1.83972e-05 -1.05858e-05 -1.51522e-05 -1.62912e-06 -1.09072e-05)
(2.753e-05 -1.79883e-05 -8.08343e-06 -1.41188e-05 -1.89071e-06 -1.34112e-05)
(2.82049e-05 -1.86215e-05 -1.09738e-05 -1.35092e-05 -7.17296e-07 -1.46957e-05)
(2.54474e-05 -1.74388e-05 -1.47383e-05 -1.4474e-05 -2.1145e-06 -1.09734e-05)
(2.63832e-05 -1.79728e-05 -1.13807e-05 -1.28522e-05 -1.69398e-06 -1.35309e-05)
(2.83797e-05 -1.75963e-05 -1.30903e-05 -1.19021e-05 -6.28123e-07 -1.64776e-05)
(3.00374e-05 -1.56937e-05 -2.15699e-05 -1.67409e-05 -2.67242e-06 -1.32964e-05)
(2.81913e-05 -1.73374e-05 -1.41573e-05 -1.23289e-05 -1.21616e-06 -1.58623e-05)
(3.60966e-05 -2.12188e-05 -2.86746e-06 -1.29062e-05 -3.8854e-07 -2.31904e-05)
(2.56934e-05 -2.07977e-05 -7.35806e-06 -1.28467e-05 -3.4149e-22 -1.28467e-05)
(2.56934e-05 -2.07977e-05 -7.35806e-06 -1.28467e-05 9.83955e-22 -1.28467e-05)
(2.74494e-05 -2.1037e-05 -7.94903e-06 -1.15342e-05 -7.77229e-09 -1.59152e-05)
(2.47813e-05 -2.08842e-05 -1.06446e-05 -1.23906e-05 -4.9402e-22 -1.23906e-05)
(2.47813e-05 -2.08842e-05 -1.06446e-05 -1.23906e-05 9.88047e-22 -1.23906e-05)
(2.69475e-05 -2.11595e-05 -1.10455e-05 -1.07142e-05 9.37776e-07 -1.62333e-05)
(2.43807e-05 -1.95873e-05 -1.47991e-05 -1.21904e-05 -2.42952e-21 -1.21904e-05)
(2.43807e-05 -1.95873e-05 -1.47991e-05 -1.21904e-05 9.26689e-22 -1.21904e-05)
(2.73667e-05 -1.98019e-05 -1.31694e-05 -9.605e-06 1.51457e-06 -1.77617e-05)
(2.89322e-05 -1.79651e-05 -2.1602e-05 -1.44661e-05 -2.3951e-21 -1.44661e-05)
(2.89322e-05 -1.79651e-05 -2.1602e-05 -1.44661e-05 8.49942e-22 -1.44661e-05)
(7.40258e-05 -2.85073e-05 -3.18542e-06 -3.91488e-05 -4.31622e-07 -3.48771e-05)
(7.09121e-05 -3.33277e-05 -8.39814e-06 -4.63088e-05 9.26602e-08 -2.46033e-05)
(7.60994e-05 -2.67088e-05 -7.11529e-07 -4.33059e-05 -4.32939e-06 -3.27935e-05)
(7.27471e-05 -3.3397e-05 -9.00073e-06 -4.47174e-05 8.38707e-08 -2.80297e-05)
(6.82988e-05 -3.18534e-05 -1.63005e-05 -4.41388e-05 -1.97925e-06 -2.416e-05)
(7.41607e-05 -3.37224e-05 -9.37518e-06 -4.1817e-05 -8.78508e-07 -3.23437e-05)
(7.05902e-05 -3.19375e-05 -1.66426e-05 -4.21446e-05 -9.08476e-07 -2.84456e-05)
(6.96435e-05 -3.08619e-05 -2.38678e-05 -4.53336e-05 -3.35047e-06 -2.43099e-05)
(7.22179e-05 -3.15063e-05 -1.60288e-05 -4.16264e-05 -2.89689e-06 -3.05916e-05)
(7.29166e-05 -3.0927e-05 -2.18577e-05 -4.23029e-05 -1.61602e-06 -3.06138e-05)
(8.08599e-05 -2.94413e-05 -3.53367e-05 -5.23845e-05 -5.34874e-06 -2.84754e-05)
(7.55071e-05 -2.91535e-05 -1.94723e-05 -4.22899e-05 -5.15957e-06 -3.32172e-05)
(-5.94531e-05 -2.10819e-05 4.00136e-06 3.21327e-05 2.55147e-06 2.73204e-05)
(-6.75288e-05 -2.61494e-05 1.03864e-05 3.30846e-05 1.18502e-06 3.44441e-05)
(-6.35485e-05 -2.17572e-05 4.6697e-06 3.01595e-05 -1.74894e-06 3.3389e-05)
(-6.34974e-05 -2.59185e-05 3.62385e-06 3.62276e-05 -1.10349e-06 2.72698e-05)
(-5.99309e-05 -2.07756e-05 9.37129e-06 3.44916e-05 -2.04852e-06 2.54393e-05)
(-6.70503e-05 -2.57011e-05 3.13879e-06 3.10684e-05 -4.00459e-06 3.59819e-05)
(-5.95383e-05 -2.07698e-05 1.05126e-05 3.48575e-05 -9.66103e-08 2.46808e-05)
(-7.40551e-05 -2.05586e-05 1.21419e-05 3.76803e-05 -4.07152e-06 3.63748e-05)
(-6.25525e-05 -1.81809e-05 7.02057e-06 3.0977e-05 -3.01352e-06 3.15755e-05)
(-7.86036e-05 -2.07125e-05 1.30233e-05 3.3968e-05 1.19225e-06 4.46356e-05)
(-5.54643e-05 -7.60924e-06 1.40545e-05 3.11506e-05 -5.31854e-06 2.43137e-05)
(-5.55425e-05 -8.81086e-06 1.24365e-05 2.79373e-05 -6.08413e-06 2.76052e-05)
(-4.66088e-05 -1.37019e-05 4.85893e-06 2.37635e-05 1.73753e-06 2.28453e-05)
(-4.57138e-05 -1.44131e-05 8.4628e-06 2.16737e-05 3.72923e-07 2.40401e-05)
(-4.17041e-05 -1.37424e-05 7.74129e-06 2.34474e-05 4.38761e-06 1.82567e-05)
(-4.30028e-05 -1.42334e-05 6.31872e-06 2.35443e-05 1.09207e-06 1.94584e-05)
(-4.01671e-05 -1.01086e-05 9.10553e-06 2.02803e-05 -5.06519e-07 1.98868e-05)
(-3.68838e-05 -1.0336e-05 9.4583e-06 2.48857e-05 2.09638e-06 1.19981e-05)
(-3.79734e-05 -1.00069e-05 9.27417e-06 2.18663e-05 7.79284e-07 1.61071e-05)
(-3.7505e-05 -4.7931e-06 9.2467e-06 2.0486e-05 -1.2661e-06 1.7019e-05)
(-3.48971e-05 -7.17154e-06 1.24169e-05 2.40541e-05 1.36647e-06 1.0843e-05)
(-3.64684e-05 -4.77559e-06 9.99398e-06 2.13108e-05 1.84257e-06 1.51576e-05)
(-3.21175e-05 -1.48438e-06 8.06414e-06 1.85746e-05 -6.96776e-06 1.35428e-05)
(-5.20696e-05 -9.25867e-06 4.70159e-06 2.19892e-05 -2.61127e-06 3.00804e-05)
(-4.38127e-05 -2.33876e-05 4.90567e-06 1.75031e-05 1.75425e-06 2.63096e-05)
(-3.89424e-05 -2.58084e-05 7.87848e-06 1.68615e-05 1.16809e-06 2.20809e-05)
(-3.31272e-05 -2.16031e-05 8.05451e-06 1.65908e-05 1.13678e-06 1.65364e-05)
(-3.97957e-05 -2.58618e-05 6.42053e-06 1.61239e-05 1.12206e-06 2.36718e-05)
(-3.20185e-05 -2.32927e-05 8.87009e-06 1.6377e-05 -1.41082e-06 1.56415e-05)
(-3.2857e-05 -2.28275e-05 9.58731e-06 1.61653e-05 -4.0986e-07 1.66917e-05)
(-3.47816e-05 -2.35943e-05 9.4872e-06 1.42405e-05 1.59408e-06 2.05411e-05)
(-2.98901e-05 -2.05468e-05 1.29781e-05 1.46531e-05 -8.79018e-07 1.5237e-05)
(-3.06548e-05 -2.09563e-05 1.25806e-05 1.49664e-05 1.21002e-07 1.56884e-05)
(-3.2543e-05 -2.07164e-05 1.02054e-05 1.23677e-05 3.56169e-06 2.01753e-05)
(-2.73763e-05 -1.30437e-05 7.96026e-06 9.6805e-06 -1.27626e-06 1.76958e-05)
(-2.82932e-05 -1.29929e-05 9.75809e-06 1.11891e-05 -1.05027e-06 1.71041e-05)
(-2.86032e-05 -1.31548e-05 2.25003e-06 1.45828e-05 1.11522e-06 1.40203e-05)
(-2.55357e-05 -1.44845e-05 4.05208e-06 1.43742e-05 -6.39629e-07 1.11616e-05)
(-3.6265e-05 -1.63887e-05 1.03362e-06 1.56464e-05 -1.47433e-07 2.06186e-05)
(-2.62483e-05 -1.4553e-05 3.64547e-06 1.38504e-05 -4.35318e-07 1.23979e-05)
(-2.07807e-05 -1.34285e-05 5.54562e-06 1.26359e-05 -2.38534e-06 8.14483e-06)
(-2.99493e-05 -1.72249e-05 2.20319e-06 1.33191e-05 -8.34556e-07 1.66302e-05)
(-2.23423e-05 -1.36089e-05 5.90034e-06 1.15231e-05 -4.68235e-07 1.08192e-05)
(-2.00431e-05 -1.17706e-05 8.16793e-06 1.15417e-05 -2.42999e-06 8.50138e-06)
(-2.34668e-05 -1.50462e-05 4.35234e-06 1.03376e-05 -6.48373e-07 1.31292e-05)
(-2.1519e-05 -1.17679e-05 5.26373e-06 1.00585e-05 2.30604e-07 1.14605e-05)
(-1.85549e-05 -7.23316e-06 4.01021e-06 7.52003e-06 -3.10177e-06 1.10348e-05)
(-2.29939e-05 -1.43533e-05 4.36117e-06 8.8412e-06 7.86616e-07 1.41527e-05)
(-2.71233e-05 -1.94122e-05 2.30297e-06 1.06203e-05 1.14146e-06 1.65031e-05)
(-2.39291e-05 -1.97638e-05 4.14107e-06 1.03551e-05 1.59078e-07 1.35741e-05)
(-2.07097e-05 -1.75694e-05 4.82166e-06 1.03779e-05 4.97479e-07 1.03317e-05)
(-2.46493e-05 -1.9859e-05 3.72586e-06 9.80015e-06 3.71753e-07 1.48491e-05)
(-1.92506e-05 -1.76307e-05 5.81955e-06 9.67038e-06 -8.59125e-07 9.5802e-06)
(-1.96339e-05 -1.78161e-05 5.68131e-06 9.63457e-06 -4.41463e-07 9.99938e-06)
(-2.11299e-05 -1.79335e-05 6.04459e-06 8.28772e-06 1.28513e-06 1.28422e-05)
(-1.84583e-05 -1.54858e-05 8.6015e-06 8.75611e-06 -7.51237e-07 9.7022e-06)
(-1.91466e-05 -1.58157e-05 8.35555e-06 9.093e-06 1.26797e-07 1.00536e-05)
(-2.04161e-05 -1.56162e-05 5.39546e-06 7.02744e-06 2.5332e-06 1.33887e-05)
(-1.72983e-05 -9.61235e-06 4.83508e-06 6.77018e-06 -5.9697e-07 1.05281e-05)
(-1.79866e-05 -1.0397e-05 4.0888e-06 5.80363e-06 -3.63908e-07 1.2183e-05)
(-1.51463e-05 -1.07998e-05 8.34073e-07 7.99073e-06 6.17248e-07 7.15562e-06)
(-1.35205e-05 -1.11402e-05 1.83531e-06 7.81388e-06 -7.21077e-07 5.70657e-06)
(-1.98133e-05 -1.31937e-05 -4.65407e-07 8.39753e-06 -2.41755e-07 1.14158e-05)
(-1.41081e-05 -1.12459e-05 1.75229e-06 7.42875e-06 -5.75356e-07 6.67935e-06)
(-1.19019e-05 -1.07655e-05 3.00186e-06 7.0809e-06 -1.66978e-06 4.82104e-06)
(-1.66288e-05 -1.31368e-05 7.22768e-07 7.1792e-06 -9.51896e-07 9.44965e-06)
(-1.2953e-05 -1.09564e-05 3.21107e-06 6.36648e-06 -5.242e-07 6.5865e-06)
(-1.15659e-05 -9.34833e-06 4.86617e-06 6.34549e-06 -1.79518e-06 5.22045e-06)
(-1.32787e-05 -1.21417e-05 2.1635e-06 5.32406e-06 -4.12516e-07 7.95465e-06)
(-1.2422e-05 -9.31111e-06 2.8055e-06 5.41806e-06 4.54051e-09 7.00399e-06)
(-1.00008e-05 -6.35474e-06 1.7645e-06 3.4496e-06 -1.53775e-06 6.5512e-06)
(-1.1082e-05 -1.00862e-05 8.04903e-07 3.19721e-06 2.67974e-07 7.88478e-06)
(-1.47057e-05 -1.44587e-05 8.74532e-07 6.0276e-06 6.4719e-07 8.6781e-06)
(-1.29613e-05 -1.41532e-05 1.91293e-06 5.8824e-06 -1.35129e-07 7.07887e-06)
(-1.134e-05 -1.28879e-05 2.56708e-06 6.05353e-06 1.38867e-07 5.28648e-06)
(-1.35567e-05 -1.42809e-05 1.82555e-06 5.45697e-06 2.25952e-08 8.09975e-06)
(-1.14537e-05 -1.31637e-05 3.11238e-06 5.56873e-06 -6.02781e-07 5.88499e-06)
(-1.1396e-05 -1.31388e-05 3.74971e-06 5.96467e-06 -3.89374e-07 5.43136e-06)
(-1.25531e-05 -1.34243e-05 3.33605e-06 4.80629e-06 6.06219e-07 7.74685e-06)
(-1.1531e-05 -1.21152e-05 5.10905e-06 5.43776e-06 -4.43983e-07 6.09323e-06)
(-1.03435e-05 -1.13108e-05 5.00284e-06 5.20581e-06 -3.37122e-07 5.13772e-06)
(-1.25499e-05 -1.21811e-05 2.97339e-06 4.51119e-06 1.45345e-06 8.03867e-06)
(-1.04924e-05 -8.88853e-06 1.90307e-06 3.13286e-06 -5.03204e-07 7.35954e-06)
(-1.19771e-05 -9.32989e-06 4.37854e-06 5.14549e-06 -9.34798e-08 6.83157e-06)
(-5.39629e-06 -7.24015e-06 1.28446e-07 3.16808e-06 2.11633e-07 2.22822e-06)
(-4.98614e-06 -7.45586e-06 6.10775e-07 3.13255e-06 -5.41201e-07 1.85359e-06)
(-7.91477e-06 -9.25237e-06 -7.88486e-07 3.30137e-06 -2.24949e-07 4.61341e-06)
(-5.27298e-06 -7.53341e-06 5.88011e-07 2.93016e-06 -3.9901e-07 2.34282e-06)
(-4.90202e-06 -7.50916e-06 1.2296e-06 3.03198e-06 -1.05446e-06 1.87005e-06)
(-6.76563e-06 -8.7935e-06 -2.63307e-07 2.77115e-06 -8.29633e-07 3.99448e-06)
(-5.3131e-06 -7.59134e-06 1.21332e-06 2.70774e-06 -4.88197e-07 2.60537e-06)
(-4.3016e-06 -6.65985e-06 1.57705e-06 2.31642e-06 -1.26021e-06 1.98518e-06)
(-6.30515e-06 -8.94119e-06 2.80308e-07 2.14564e-06 -7.06181e-07 4.15952e-06)
(-4.50186e-06 -6.55631e-06 8.78956e-07 2.01327e-06 -1.92179e-07 2.48859e-06)
(-2.58303e-06 -3.42138e-06 1.9824e-07 8.43322e-07 -1.02169e-06 1.7397e-06)
(-3.64137e-06 -6.46385e-06 -8.16853e-07 5.94635e-07 -4.3061e-07 3.04673e-06)
(-5.45127e-06 -1.03489e-05 1.48367e-07 2.09556e-06 2.44454e-07 3.35571e-06)
(-5.03523e-06 -1.01932e-05 6.94949e-07 2.28811e-06 -2.56747e-07 2.74712e-06)
(-4.15457e-06 -9.72696e-06 1.19522e-06 2.33903e-06 1.11531e-07 1.81554e-06)
(-5.34655e-06 -1.0283e-05 6.67998e-07 2.04135e-06 -9.10823e-08 3.30521e-06)
(-4.92489e-06 -1.00126e-05 1.38063e-06 2.24592e-06 -4.83976e-07 2.67898e-06)
(-4.39672e-06 -9.53273e-06 1.73237e-06 2.38744e-06 -3.11456e-07 2.00929e-06)
(-5.39283e-06 -1.01461e-05 1.36557e-06 1.87359e-06 1.59877e-07 3.51925e-06)
(-4.44342e-06 -8.88646e-06 1.78256e-06 1.78083e-06 -5.40411e-07 2.6626e-06)
(-4.3829e-06 -8.77285e-06 2.53496e-06 2.28811e-06 -3.33006e-07 2.09479e-06)
(-4.76913e-06 -8.92198e-06 1.01322e-06 1.48e-06 6.66025e-07 3.28913e-06)
(-3.05302e-06 -5.00158e-06 2.44457e-07 7.75543e-07 -7.57683e-07 2.27748e-06)
(-5.2386e-06 -7.51448e-06 2.97782e-06 2.66402e-06 -7.93075e-08 2.57458e-06)
(1.30634e-07 -4.99071e-06 -1.04439e-07 2.03186e-07 1.27805e-07 -3.3382e-07)
(6.81676e-08 -5.20503e-06 -6.64212e-08 2.25681e-07 -3.55955e-07 -2.93848e-07)
(-6.8845e-07 -5.73405e-06 -8.24166e-07 5.51432e-09 -2.95542e-07 6.82936e-07)
(3.71214e-08 -5.19451e-06 -3.81003e-08 1.94316e-07 -3.1615e-07 -2.31437e-07)
(3.60715e-08 -5.12582e-06 -2.16967e-08 1.41918e-07 -7.90223e-07 -1.77989e-07)
(-4.96804e-07 -5.90448e-06 -8.21289e-07 -1.56272e-07 -7.08716e-07 6.53076e-07)
(1.81763e-08 -5.03625e-06 1.64082e-08 1.22173e-07 -4.20809e-07 -1.40349e-07)
(1.00733e-07 -4.292e-06 1.6207e-08 4.72099e-09 -9.62139e-07 -1.05454e-07)
(-3.72851e-07 -5.83501e-06 -9.19707e-07 -3.93763e-07 -8.25811e-07 7.66614e-07)
(1.35699e-07 -4.04429e-06 -4.12575e-08 4.52283e-08 -1.31354e-07 -1.80928e-07)
(7.50476e-08 -1.00036e-06 -5.18763e-08 -8.6602e-09 -3.29401e-07 -6.63874e-08)
(6.04106e-07 -3.66077e-06 -1.32919e-06 -7.51267e-07 -5.74649e-07 1.4716e-07)
(5.17228e-07 -8.81859e-06 -1.48307e-07 -3.74917e-07 1.81488e-07 -1.42311e-07)
(4.17302e-07 -8.77046e-06 -9.12917e-08 -3.37036e-07 -2.54795e-07 -8.02655e-08)
(9.77131e-07 -8.55324e-06 4.85432e-07 -1.31358e-07 8.23079e-08 -8.45773e-07)
(3.74631e-07 -8.76804e-06 -5.2458e-08 -3.79499e-07 -2.00911e-07 4.86824e-09)
(3.45095e-07 -8.47748e-06 -2.94298e-08 -3.99832e-07 -5.78671e-07 5.47378e-08)
(6.17023e-07 -8.27264e-06 4.8048e-07 -1.35955e-07 -3.50535e-07 -4.81068e-07)
(3.20356e-07 -8.45363e-06 2.25885e-08 -4.22475e-07 -8.74931e-08 1.0212e-07)
(3.47322e-07 -7.44966e-06 2.29044e-08 -4.03251e-07 -6.50803e-07 5.59286e-08)
(5.60683e-07 -7.52247e-06 6.45601e-07 -1.15043e-07 -3.5684e-07 -4.4564e-07)
(4.07662e-07 -7.43467e-06 -6.17537e-08 -3.41401e-07 5.10901e-07 -6.62613e-08)
(3.68259e-07 -4.3791e-06 -1.68768e-07 -2.7639e-07 -4.69955e-07 -9.1869e-08)
(2.06938e-07 -5.48209e-06 9.73715e-07 3.0457e-07 -5.59662e-08 -5.11508e-07)
(5.55193e-06 -7.33004e-06 -3.85448e-07 -2.12879e-06 1.71097e-07 -3.42314e-06)
(4.84747e-06 -7.1729e-06 -7.68422e-07 -2.1681e-06 -5.42021e-07 -2.67937e-06)
(4.39252e-06 -7.32303e-06 -1.39132e-06 -2.40512e-06 -4.47336e-07 -1.98741e-06)
(5.0471e-06 -7.24748e-06 -6.68324e-07 -2.04141e-06 -5.93085e-07 -3.00569e-06)
(4.71477e-06 -7.18966e-06 -1.1949e-06 -2.35297e-06 -1.19323e-06 -2.3618e-06)
(4.57573e-06 -7.6194e-06 -1.77607e-06 -2.65485e-06 -1.06341e-06 -1.92088e-06)
(5.01705e-06 -7.25195e-06 -1.12599e-06 -2.11192e-06 -7.47118e-07 -2.90513e-06)
(4.68172e-06 -6.76922e-06 -1.60229e-06 -2.36146e-06 -1.51214e-06 -2.32025e-06)