/*--------------------------------*- C++ -*----------------------------------*\
| =========                 |                                                 |
| \\      /  F ield         | OpenFOAM: The Open Source CFD Toolbox           |
|  \\    /   O peration     | Version:  v2012                                 |
|   \\  /    A nd           | Website:  www.openfoam.com                      |
|    \\/     M anipulation  |                                                 |
\*---------------------------------------------------------------------------*/
FoamFile
{
    version     2.0;
    format      ascii;
    class       pointSymmTensorField;
    location    "1";
    object      pEpsilon;
}
// * * * * * * * * * * * * * * * * * * * * * * * * * * * * * * * * * * * * * //

dimensions      [0 0 0 0 0 0 0];


internalField   nonuniform List<symmTensor> 
10435
(
(-4.30941e-06 -8.12061e-09 -2.14499e-09 1.42816e-05 5.32569e-09 -4.24464e-06)
(-5.55195e-06 7.48865e-08 3.70899e-09 1.47041e-05 2.37767e-08 -3.9411e-06)
(-5.16461e-05 -4.56713e-06 -4.71052e-08 9.71875e-06 9.45839e-07 1.4122e-05)
(0.000113571 -4.16513e-05 -4.84479e-07 -9.71759e-06 -1.53551e-06 -3.09947e-06)
(-0.000115938 -5.17883e-05 3.47878e-06 -7.55308e-07 7.68817e-07 3.56358e-06)
(4.28723e-06 -3.11224e-07 2.46109e-07 3.51154e-06 -6.30943e-07 -1.40544e-05)
(3.71003e-06 -2.82632e-07 1.19143e-07 1.7939e-06 -7.11823e-07 -1.01514e-05)
(8.81349e-06 1.00859e-06 -2.40872e-08 -4.74825e-07 -1.05026e-06 -1.23773e-05)
(-1.64716e-06 -4.59341e-07 -6.23612e-07 3.37399e-06 -9.65355e-07 -9.14246e-06)
(5.1685e-05 6.48456e-06 -1.39231e-06 -1.41281e-05 -8.01716e-07 -1.60947e-05)
(4.55646e-05 2.2643e-05 -6.78565e-07 2.35878e-07 -8.30495e-07 -1.77498e-05)
(6.06989e-05 -4.93988e-05 -3.27079e-07 4.06825e-05 1.23546e-06 -2.72273e-05)
(9.27136e-05 -0.000126027 -8.76535e-07 8.87521e-05 8.66737e-07 -2.81781e-05)
(-2.38353e-06 1.37376e-05 2.24782e-07 2.88516e-05 -2.15995e-07 -1.45838e-05)
(-1.19426e-05 -5.02219e-07 6.13827e-08 3.96152e-05 -1.37329e-06 -1.42538e-05)
(-2.7061e-05 -5.98752e-06 3.49077e-07 7.55152e-06 7.69127e-08 7.51015e-06)
(2.66018e-05 -8.09903e-06 -3.1864e-07 -6.58046e-06 -1.30688e-06 -6.48597e-06)
(-3.58387e-06 1.03425e-07 2.78306e-08 1.2168e-05 3.91893e-08 -3.82775e-06)
(-1.61524e-06 2.88366e-08 -6.39024e-09 1.34697e-05 -5.16515e-08 -5.14075e-06)
(-1.99203e-05 -2.68615e-05 9.11594e-07 0.0001281 1.9152e-07 -2.30831e-05)
(1.14951e-05 -4.07849e-05 1.92333e-06 5.79834e-05 -8.43341e-07 -2.29252e-05)
(1.8546e-05 -3.36732e-07 -3.35219e-08 -6.53477e-06 -3.99923e-07 -4.78313e-06)
(0.00016034 -2.96326e-05 -2.15052e-06 -2.35026e-05 2.35004e-07 -2.52315e-05)
(7.10129e-05 -3.63768e-05 -2.17399e-06 8.23116e-06 1.32918e-06 -2.36674e-05)
(-5.85669e-05 -1.10193e-06 1.18011e-07 2.00907e-05 3.69562e-07 1.57e-05)
(-0.000128018 -4.52387e-05 4.2438e-05 0 0 0)
(-2.69955e-05 -4.83158e-06 -1.30729e-06 7.30182e-06 -2.36933e-07 7.7607e-06)
(2.80203e-05 -9.11204e-06 1.42771e-06 -6.44281e-06 -2.60832e-07 -7.70417e-06)
(0.000133677 -4.13044e-05 -4.03442e-05 -1.19923e-05 -1.58504e-06 0)
(6.62531e-06 9.22894e-07 4.49943e-07 -2.04617e-06 -9.55323e-07 -4.81256e-06)
(4.92061e-05 2.14687e-06 -6.66951e-06 -1.94886e-05 -4.89622e-06 -1.31916e-05)
(-5.62721e-05 -1.12412e-06 1.07197e-06 1.78807e-05 7.11426e-07 1.54681e-05)
(6.09355e-05 -3.91364e-05 -8.22451e-06 8.01812e-06 6.20067e-06 -2.72044e-05)
(5.29525e-05 -3.88995e-05 5.95344e-06 2.96151e-05 3.22904e-06 -3.41651e-05)
(-5.24004e-05 -4.51403e-06 -3.85778e-07 1.01796e-05 1.26598e-06 1.59544e-05)
(2.0471e-05 -2.48801e-07 -2.30053e-07 -7.99743e-06 6.58607e-08 -5.14576e-06)
(1.19869e-05 -4.08317e-05 5.23635e-06 4.37517e-05 -1.04244e-05 -2.43086e-05)
(-1.77839e-06 4.66727e-08 -3.19585e-08 1.36188e-05 -6.22698e-08 -5.09917e-06)
(-1.46094e-05 -1.815e-06 -4.41304e-06 3.67772e-05 -5.97218e-06 -1.11278e-05)
(-3.62585e-06 2.50835e-07 -1.58599e-08 1.22251e-05 6.74839e-08 -3.73877e-06)
(-3.62283e-06 -2.99943e-07 -1.10794e-06 2.74227e-06 -3.92481e-07 -3.26597e-06)
(-5.49486e-06 6.83196e-08 1.52162e-08 1.46757e-05 -8.59284e-09 -3.94851e-06)
(-4.28715e-06 -3.42258e-09 1.42837e-11 1.42957e-05 4.12179e-09 -4.28363e-06)
(3.15482e-05 1.46146e-05 -1.18672e-05 -6.50028e-06 -1.07285e-05 -1.4547e-05)
(9.36251e-07 -9.4632e-07 7.33263e-07 4.75401e-07 -1.31768e-06 -4.69883e-06)
(0.0001378 -2.6904e-05 -1.70185e-05 -2.71022e-05 4.15759e-06 -3.36418e-05)
(7.07455e-05 -0.000109141 5.18901e-06 7.28237e-05 2.08799e-07 -4.0439e-05)
(-2.34718e-05 -1.91904e-05 7.81093e-07 0.000112627 -1.88357e-05 -2.71597e-05)
(-4.37846e-06 1.20206e-05 -1.09542e-05 2.26321e-05 -9.05411e-06 -1.01435e-05)
(1.27237e-06 -4.89313e-07 -4.68461e-07 -1.12783e-07 2.06866e-08 -3.12288e-06)
(-4.3309e-06 6.50696e-09 3.22664e-10 1.42975e-05 1.54207e-08 -4.23335e-06)
(-4.4314e-06 3.68205e-08 -4.9169e-09 1.43197e-05 1.44094e-08 -4.20802e-06)
(-4.59479e-06 6.09671e-08 1.56704e-08 1.43717e-05 9.20432e-09 -4.17419e-06)
(-4.77116e-06 6.12717e-08 -4.52058e-09 1.44192e-05 -2.48139e-09 -4.13653e-06)
(-4.99434e-06 5.94288e-08 1.41637e-08 1.44809e-05 1.5611e-09 -4.08666e-06)
(-5.16381e-06 5.71623e-08 1.13358e-08 1.45305e-05 -4.01614e-10 -4.0466e-06)
(-5.30951e-06 4.59858e-08 1.06775e-08 1.45757e-05 6.10532e-10 -4.00907e-06)
(-5.41402e-06 2.80135e-08 6.75639e-09 1.46055e-05 2.95001e-09 -3.97903e-06)
(-5.47779e-06 1.57894e-08 1.24919e-08 1.46195e-05 2.1659e-08 -3.96138e-06)
(-5.44199e-06 7.74938e-08 -5.9148e-09 1.46821e-05 2.32067e-08 -3.99249e-06)
(-5.30579e-06 8.28843e-08 -3.68363e-09 1.46416e-05 1.4094e-08 -4.03499e-06)
(-5.15779e-06 9.26282e-08 -5.00506e-09 1.4604e-05 9.51048e-09 -4.08105e-06)
(-5.02297e-06 9.8999e-08 -5.36536e-09 1.45808e-05 7.3151e-09 -4.12647e-06)
(-4.89928e-06 1.02594e-07 -5.33962e-09 1.45671e-05 4.9205e-09 -4.17153e-06)
(-4.78516e-06 1.03844e-07 -5.3588e-09 1.45653e-05 2.75906e-09 -4.21796e-06)
(-4.67472e-06 1.04677e-07 -5.66273e-09 1.45675e-05 3.91414e-09 -4.26588e-06)
(-4.56656e-06 1.04918e-07 -5.336e-09 1.45671e-05 3.96535e-09 -4.31163e-06)
(-4.45768e-06 1.03454e-07 -5.20615e-09 1.45712e-05 3.23742e-09 -4.36038e-06)
(-4.3417e-06 1.03073e-07 -5.68992e-09 1.4569e-05 5.62694e-09 -4.41166e-06)
(-4.21206e-06 1.01815e-07 -6.6459e-09 1.45546e-05 6.5435e-09 -4.46426e-06)
(-4.07465e-06 9.88526e-08 -6.67076e-09 1.45338e-05 5.79286e-09 -4.51649e-06)
(-3.92449e-06 9.47161e-08 -6.05505e-09 1.45094e-05 6.07664e-09 -4.57384e-06)
(-3.74777e-06 9.20203e-08 -6.63154e-09 1.44634e-05 8.75747e-09 -4.63468e-06)
(-3.54513e-06 9.01293e-08 -7.88718e-09 1.43987e-05 1.08756e-08 -4.69912e-06)
(-3.31795e-06 8.81989e-08 -7.94053e-09 1.43202e-05 1.2101e-08 -4.77073e-06)
(-3.05415e-06 8.68481e-08 -7.97457e-09 1.42206e-05 1.05081e-08 -4.85049e-06)
(-2.73923e-06 8.70716e-08 -8.89122e-09 1.40926e-05 5.72168e-09 -4.93951e-06)
(-2.34716e-06 8.91505e-08 -1.27343e-08 1.39122e-05 1.93589e-08 -5.00108e-06)
(-2.95081e-07 -2.4806e-08 2.50456e-08 1.28255e-05 -4.90768e-08 -5.41284e-06)
(1.12189e-06 -8.24505e-08 3.20247e-08 1.19001e-05 -5.52568e-08 -5.6344e-06)
(2.85064e-06 -1.25389e-07 3.57688e-08 1.06332e-05 -7.72272e-08 -5.84185e-06)
(4.98101e-06 -1.90069e-07 3.76234e-08 8.93453e-06 -1.10907e-07 -6.02263e-06)
(7.46864e-06 -2.60976e-07 3.84261e-08 6.78993e-06 -1.47682e-07 -6.14785e-06)
(1.02101e-05 -3.29182e-07 3.60343e-08 4.22409e-06 -1.84009e-07 -6.19121e-06)
(1.30035e-05 -3.81175e-07 2.93644e-08 1.34384e-06 -2.14951e-07 -6.11575e-06)
(1.55059e-05 -4.36418e-07 1.76788e-08 -1.56289e-06 -2.21412e-07 -5.90634e-06)
(1.73389e-05 -4.65479e-07 -4.0041e-08 -3.89871e-06 -6.04032e-08 -5.68156e-06)
(-5.29436e-05 3.36986e-07 -7.69433e-07 1.53256e-05 1.02329e-06 1.50447e-05)
(-5.33875e-05 1.11399e-06 -7.92841e-07 1.52047e-05 8.79571e-07 1.56194e-05)
(-5.5194e-05 1.18125e-06 -7.45937e-07 1.55533e-05 6.43321e-07 1.63077e-05)
(-5.74983e-05 1.27217e-06 -7.28394e-07 1.62221e-05 3.30738e-07 1.69189e-05)
(-5.9946e-05 1.09883e-06 -7.31205e-07 1.70549e-05 2.12748e-07 1.7398e-05)
(-6.18497e-05 7.85707e-07 -5.01746e-07 1.7896e-05 -8.72107e-08 1.76886e-05)
(-6.23895e-05 -2.35071e-08 -3.84267e-07 1.81222e-05 -1.6472e-07 1.75675e-05)
(-6.18214e-05 -6.99396e-07 -7.96566e-08 1.81456e-05 -4.16514e-07 1.71461e-05)
(-6.00739e-05 -6.89661e-07 2.49748e-07 1.66532e-05 -9.5601e-07 1.64981e-05)
(3.24959e-05 -4.5201e-06 -4.63936e-07 -8.04195e-06 -4.70357e-07 -8.23546e-06)
(3.6987e-05 -4.92387e-06 -5.69832e-07 -9.93347e-06 -5.26611e-07 -9.40087e-06)
(4.14078e-05 -5.08887e-06 -7.42188e-07 -1.14061e-05 -4.99642e-07 -1.06209e-05)
(4.5766e-05 -5.13678e-06 -8.9246e-07 -1.26912e-05 -4.87066e-07 -1.18686e-05)
(5.00739e-05 -5.11828e-06 -1.02474e-06 -1.38823e-05 -4.89668e-07 -1.31248e-05)
(5.43519e-05 -5.06899e-06 -1.14132e-06 -1.50322e-05 -5.02669e-07 -1.43894e-05)
(5.86195e-05 -5.00705e-06 -1.2426e-06 -1.61671e-05 -5.21135e-07 -1.56683e-05)
(6.28917e-05 -4.93885e-06 -1.32709e-06 -1.7301e-05 -5.40663e-07 -1.69639e-05)
(6.71731e-05 -4.87017e-06 -1.39179e-06 -1.84409e-05 -5.55758e-07 -1.82628e-05)
(7.14342e-05 -4.84713e-06 -1.43593e-06 -1.95757e-05 -5.47679e-07 -1.9507e-05)
(7.56647e-05 -4.94926e-06 -1.51484e-06 -2.08232e-05 -5.46477e-07 -2.04964e-05)
(7.97519e-05 -5.08981e-06 -1.56817e-06 -2.19148e-05 -6.49958e-07 -2.12598e-05)
(8.41275e-05 -5.25764e-06 -1.55753e-06 -2.31516e-05 -6.78675e-07 -2.19849e-05)
(8.86105e-05 -5.66913e-06 -1.52525e-06 -2.45145e-05 -7.14931e-07 -2.23994e-05)
(9.31807e-05 -6.45217e-06 -1.48494e-06 -2.59766e-05 -7.47154e-07 -2.2209e-05)
(9.78752e-05 -7.92432e-06 -1.44214e-06 -2.75355e-05 -7.76783e-07 -2.10231e-05)
(0.000102853 -1.08378e-05 -1.39555e-06 -2.91165e-05 -8.20387e-07 -1.83375e-05)
(0.000108638 -1.72397e-05 -1.33854e-06 -3.03225e-05 -9.11632e-07 -1.35673e-05)
(0.000113881 -2.89576e-05 -3.23826e-07 -2.73623e-05 -1.79195e-06 -9.38692e-06)
(6.87303e-05 -2.4066e-05 -1.68421e-06 -2.18188e-06 -2.98073e-07 -2.88401e-06)
(4.30503e-05 -1.79358e-05 -8.07882e-07 -7.01648e-07 -2.56068e-07 -1.90745e-06)
(2.66159e-05 -1.60672e-05 -4.76212e-07 -2.6919e-07 -1.26083e-07 -1.17587e-06)
(1.28865e-05 -1.53494e-05 -2.23736e-07 -8.70596e-08 -5.89766e-08 -5.3536e-07)
(8.23338e-08 -1.5131e-05 2.11293e-08 6.33197e-08 -2.07709e-08 5.54683e-08)
(-1.2961e-05 -1.53479e-05 3.14881e-07 3.21456e-07 1.48565e-08 6.44772e-07)
(-2.78834e-05 -1.6547e-05 7.67558e-07 8.99673e-07 1.13508e-07 1.3231e-06)
(-4.7164e-05 -1.98192e-05 1.74358e-06 2.67048e-06 4.70464e-07 2.23455e-06)
(-7.79415e-05 -2.90995e-05 2.54353e-06 7.02627e-06 4.03148e-07 4.06237e-06)
(-0.000108159 -3.5601e-05 7.07652e-06 1.63308e-05 4.86913e-06 1.289e-05)
(-9.9091e-05 -2.19104e-05 3.31341e-06 2.3863e-05 8.79232e-07 1.66875e-05)
(-9.77434e-05 -1.71483e-05 2.14058e-06 2.54956e-05 5.2811e-07 2.03733e-05)
(-9.46516e-05 -1.40302e-05 1.53344e-06 2.53416e-05 4.76981e-07 2.25183e-05)
(-9.06341e-05 -1.20219e-05 1.24005e-06 2.44596e-05 4.91674e-07 2.3345e-05)
(-8.61988e-05 -1.0709e-05 1.10564e-06 2.33254e-05 5.07908e-07 2.32501e-05)
(-8.1612e-05 -9.82663e-06 1.0442e-06 2.21262e-05 5.10592e-07 2.25687e-05)
(-7.70053e-05 -9.20569e-06 1.00826e-06 2.0927e-05 4.98707e-07 2.15392e-05)
(-7.24366e-05 -8.73251e-06 9.70418e-07 1.97416e-05 4.72907e-07 2.03173e-05)
(-6.79489e-05 -8.35336e-06 9.33502e-07 1.85654e-05 4.40596e-07 1.904e-05)
(-6.36327e-05 -8.0872e-06 9.24691e-07 1.74335e-05 4.24135e-07 1.7814e-05)
(-5.94043e-05 -7.85448e-06 8.87473e-07 1.63845e-05 4.121e-07 1.65765e-05)
(-5.5117e-05 -7.6308e-06 8.13591e-07 1.52828e-05 3.77075e-07 1.52789e-05)
(-5.08611e-05 -7.43046e-06 7.37329e-07 1.41574e-05 3.40541e-07 1.40005e-05)
(-4.66443e-05 -7.23499e-06 6.54958e-07 1.30374e-05 3.05725e-07 1.27485e-05)
(-4.24573e-05 -7.03896e-06 5.66058e-07 1.19216e-05 2.70511e-07 1.15232e-05)
(-3.82968e-05 -6.83893e-06 4.68935e-07 1.08063e-05 2.32525e-07 1.03323e-05)
(-3.41692e-05 -6.63477e-06 3.6066e-07 9.69126e-06 1.89008e-07 9.19897e-06)
(-3.0604e-05 -6.39917e-06 2.79164e-07 8.53343e-06 3.09906e-07 8.29464e-06)
(-2.37618e-05 -5.87115e-06 4.0294e-07 6.6626e-06 2.3603e-07 6.37327e-06)
(-2.12086e-05 -5.72815e-06 3.98563e-07 5.93173e-06 2.00486e-07 5.63639e-06)
(-1.85048e-05 -5.50278e-06 3.74608e-07 5.16041e-06 1.4758e-07 4.84745e-06)
(-1.58346e-05 -5.27128e-06 3.60712e-07 4.37502e-06 1.15261e-07 4.0888e-06)
(-1.31366e-05 -4.98091e-06 3.31507e-07 3.61253e-06 9.97502e-08 3.35072e-06)
(-1.04758e-05 -4.66878e-06 3.38031e-07 2.85171e-06 8.72516e-08 2.63984e-06)
(-7.86382e-06 -4.34595e-06 3.4015e-07 2.10407e-06 7.64942e-08 1.95497e-06)
(-5.30339e-06 -4.01148e-06 3.42019e-07 1.36921e-06 6.76626e-08 1.28825e-06)
(-2.80679e-06 -3.67507e-06 3.51148e-07 6.45794e-07 5.63449e-08 6.46749e-07)
(-4.18846e-07 -3.34444e-06 3.49035e-07 -6.39349e-08 4.88824e-08 5.11791e-08)
(1.93825e-06 -2.98897e-06 3.39513e-07 -7.18665e-07 5.55853e-08 -5.51263e-07)
(4.23339e-06 -2.63765e-06 3.67612e-07 -1.38151e-06 5.02066e-08 -1.1846e-06)
(6.40313e-06 -2.31212e-06 4.03418e-07 -2.01816e-06 4.81972e-08 -1.8027e-06)
(8.41159e-06 -1.99548e-06 4.29098e-07 -2.61654e-06 4.92058e-08 -2.40398e-06)
(1.03044e-05 -1.66428e-06 4.51308e-07 -3.15092e-06 5.78289e-08 -3.01255e-06)
(1.20259e-05 -1.33637e-06 5.01464e-07 -3.63366e-06 6.37792e-08 -3.67227e-06)
(1.35192e-05 -1.0188e-06 5.50162e-07 -4.03476e-06 7.20516e-08 -4.37288e-06)
(1.47255e-05 -7.04573e-07 5.96178e-07 -4.32813e-06 8.10365e-08 -5.13807e-06)
(1.55657e-05 -4.24308e-07 6.38537e-07 -4.48558e-06 8.24091e-08 -5.98693e-06)
(1.59695e-05 -1.8666e-07 6.55634e-07 -4.4218e-06 6.02312e-08 -6.95699e-06)
(1.58248e-05 1.43057e-07 6.17891e-07 -3.97028e-06 -1.22476e-09 -8.12982e-06)
(1.48035e-05 5.00379e-07 5.09052e-07 -3.32711e-06 -1.47171e-07 -9.53087e-06)
(1.27959e-05 1.07907e-06 6.07088e-07 -1.98004e-06 -2.43573e-07 -1.05593e-05)
(4.85397e-06 -7.48316e-07 3.05998e-07 1.80464e-06 -5.76441e-07 -1.33278e-05)
(3.1661e-06 -7.82608e-07 8.56804e-08 1.50962e-06 -6.18764e-07 -9.9786e-06)
(-6.7982e-07 5.60291e-07 -3.49257e-07 6.19769e-06 -7.78586e-07 -7.74599e-06)
(-1.69746e-06 4.63324e-07 -2.88043e-07 8.19244e-06 -6.55006e-07 -6.74165e-06)
(-2.34601e-06 3.01661e-07 -2.11728e-07 9.40277e-06 -5.23191e-07 -5.94872e-06)
(-2.76329e-06 1.05085e-07 -1.55599e-07 1.00519e-05 -4.2685e-07 -5.32166e-06)
(-3.10649e-06 1.82817e-08 -9.63873e-08 1.05397e-05 -3.37453e-07 -4.823e-06)
(-3.34399e-06 -5.1216e-08 -7.43349e-08 1.08835e-05 -2.63455e-07 -4.44794e-06)
(-3.43826e-06 -1.25177e-07 -7.06453e-08 1.10865e-05 -2.28962e-07 -4.18566e-06)
(-3.51328e-06 -2.00949e-07 -3.86208e-08 1.12015e-05 -1.94534e-07 -4.00533e-06)
(-3.59554e-06 -2.13517e-07 -2.73344e-08 1.12986e-05 -1.64901e-07 -3.8629e-06)
(-3.59566e-06 -2.34433e-07 -2.80159e-08 1.13546e-05 -1.51728e-07 -3.77625e-06)
(-3.63615e-06 -2.52472e-07 -2.0408e-08 1.14163e-05 -1.28443e-07 -3.72275e-06)
(-3.64944e-06 -2.49144e-07 -1.27035e-08 1.14699e-05 -1.13072e-07 -3.70839e-06)
(-3.65427e-06 -2.38061e-07 -1.02253e-08 1.15206e-05 -1.02181e-07 -3.70782e-06)
(-3.65436e-06 -2.21788e-07 -9.56778e-09 1.157e-05 -9.36644e-08 -3.71634e-06)
(-3.65398e-06 -2.01368e-07 -8.27873e-09 1.16209e-05 -8.60898e-08 -3.73049e-06)
(-3.65028e-06 -1.72782e-07 -1.17863e-08 1.16728e-05 -7.97861e-08 -3.74713e-06)
(-3.6469e-06 -1.47505e-07 -1.67057e-08 1.17284e-05 -7.3959e-08 -3.76438e-06)
(-3.65023e-06 -1.17871e-07 -1.61169e-08 1.17933e-05 -6.50725e-08 -3.7806e-06)
(-3.65013e-06 -9.12839e-08 -1.4233e-08 1.18522e-05 -5.42962e-08 -3.79273e-06)
(-3.66014e-06 -6.18329e-08 -1.59699e-08 1.19244e-05 -4.05987e-08 -3.80782e-06)
(-3.6685e-06 -2.00327e-08 -1.47287e-08 1.20129e-05 -2.49511e-08 -3.8284e-06)
(-3.66615e-06 3.50473e-08 -1.12524e-08 1.21067e-05 -4.61625e-09 -3.84602e-06)
(-3.64774e-06 1.02187e-07 2.22228e-08 1.21796e-05 8.47026e-09 -3.87552e-06)
(-3.68635e-06 8.75209e-08 -3.21706e-09 1.23629e-05 6.71396e-08 -3.8864e-06)
(-3.76052e-06 1.36275e-07 -1.46632e-08 1.24781e-05 6.17565e-08 -3.88891e-06)
(-3.80723e-06 1.70991e-07 -1.41296e-08 1.25725e-05 6.32962e-08 -3.89434e-06)
(-3.84212e-06 1.90812e-07 -1.21587e-08 1.26779e-05 6.31558e-08 -3.90501e-06)
(-3.87878e-06 2.03313e-07 -8.99564e-09 1.27936e-05 5.90846e-08 -3.91563e-06)
(-3.91665e-06 2.11504e-07 -6.88716e-09 1.29179e-05 5.62174e-08 -3.9336e-06)
(-3.95323e-06 2.11411e-07 -5.67733e-09 1.3055e-05 5.59354e-08 -3.96079e-06)
(-3.99477e-06 2.05726e-07 -4.13676e-09 1.32036e-05 5.32593e-08 -3.99123e-06)
(-4.03617e-06 2.00017e-07 -1.5271e-09 1.33476e-05 4.67808e-08 -4.02285e-06)
(-4.07412e-06 1.9211e-07 5.43734e-10 1.34897e-05 4.09217e-08 -4.05724e-06)
(-4.11303e-06 1.80227e-07 1.78229e-09 1.36291e-05 3.51731e-08 -4.09027e-06)
(-4.15157e-06 1.66222e-07 3.02797e-09 1.37588e-05 2.98087e-08 -4.11821e-06)
(-4.18498e-06 1.49182e-07 4.26064e-09 1.38777e-05 2.51668e-08 -4.14576e-06)
(-4.21733e-06 1.28701e-07 4.44192e-09 1.39874e-05 2.05474e-08 -4.17183e-06)
(-4.24633e-06 1.05696e-07 5.39833e-09 1.40815e-05 1.60851e-08 -4.19283e-06)
(-4.27053e-06 7.92555e-08 5.70244e-09 1.41588e-05 1.24142e-08 -4.21096e-06)
(-4.29049e-06 5.14281e-08 5.77658e-09 1.4218e-05 9.35526e-09 -4.22573e-06)
(-4.30497e-06 2.33513e-08 4.59871e-09 1.42572e-05 7.02836e-09 -4.23649e-06)
(-4.31247e-06 1.87848e-09 1.39865e-10 1.42754e-05 5.87625e-09 -4.24074e-06)
(-3.68509e-06 1.26351e-07 9.55485e-09 1.30128e-05 -1.18658e-09 -4.05298e-06)
(-3.83163e-06 6.96528e-08 -1.09477e-08 1.35332e-05 -1.8076e-08 -4.19459e-06)
(-3.79512e-06 -1.26562e-07 -1.46637e-08 1.39977e-05 -3.25072e-08 -4.36949e-06)
(-3.61909e-06 -3.96965e-07 -1.23883e-08 1.42862e-05 -3.98005e-08 -4.53562e-06)
(-3.30505e-06 -6.50247e-07 -4.94955e-09 1.43729e-05 -3.74722e-08 -4.68494e-06)
(-2.89507e-06 -8.13907e-07 2.9289e-09 1.42992e-05 -3.12734e-08 -4.82045e-06)
(-2.46372e-06 -8.52627e-07 6.1227e-09 1.41216e-05 -2.30523e-08 -4.92964e-06)
(-2.06836e-06 -7.46311e-07 2.92236e-09 1.39112e-05 -1.60851e-08 -5.01603e-06)
(-1.7875e-06 -4.80332e-07 -2.15539e-08 1.37481e-05 -2.49724e-10 -5.07136e-06)
(-2.09603e-05 -1.03151e-05 5.74958e-07 6.25954e-06 4.22681e-08 5.60966e-06)
(-1.50886e-05 -1.63027e-05 -4.64036e-07 4.48578e-06 -8.35362e-08 3.99552e-06)
(-8.77515e-06 -2.16024e-05 -6.52934e-07 2.69717e-06 -1.6272e-07 2.21864e-06)
(-2.60568e-06 -2.48211e-05 -6.57278e-07 9.75529e-07 -2.66703e-07 4.64162e-07)
(3.68251e-06 -2.59496e-05 -7.53865e-07 -7.04626e-07 -3.58645e-07 -1.29041e-06)
(9.90791e-06 -2.48786e-05 -6.18356e-07 -2.2683e-06 -4.74384e-07 -2.94517e-06)
(1.57772e-05 -2.1749e-05 -4.44569e-07 -3.79942e-06 -5.52844e-07 -4.33807e-06)
(2.11189e-05 -1.65129e-05 -8.83543e-08 -5.07571e-06 -6.68864e-07 -5.47515e-06)
(2.4445e-05 -1.06993e-05 -4.87132e-07 -5.85749e-06 -5.95709e-07 -6.07373e-06)
(4.74189e-05 -4.96232e-06 -1.08875e-06 -1.55743e-05 -4.32479e-07 -1.45894e-05)
(4.08155e-05 -1.22857e-05 -9.89582e-07 -1.33971e-05 -2.82493e-07 -1.25134e-05)
(3.44641e-05 -1.66742e-05 -8.64892e-07 -1.10385e-05 -2.05132e-07 -1.05039e-05)
(2.85539e-05 -1.96644e-05 -7.24923e-07 -8.85572e-06 -1.22682e-07 -8.62784e-06)
(2.31867e-05 -2.17141e-05 -6.41111e-07 -7.02282e-06 -7.74945e-08 -7.00588e-06)
(1.86305e-05 -2.33238e-05 -5.49439e-07 -5.56453e-06 -3.78767e-08 -5.60123e-06)
(1.47118e-05 -2.4538e-05 -4.45601e-07 -4.41038e-06 -7.67555e-09 -4.39638e-06)
(1.15087e-05 -2.54331e-05 -3.71463e-07 -3.49831e-06 -1.28743e-08 -3.43344e-06)
(8.90846e-06 -2.61066e-05 -3.15613e-07 -2.82496e-06 -7.26001e-09 -2.59938e-06)
(6.71801e-06 -2.65464e-05 -2.74098e-07 -2.28724e-06 -4.72347e-10 -1.9328e-06)
(4.94625e-06 -2.67701e-05 -2.40949e-07 -1.896e-06 1.2542e-08 -1.41239e-06)
(3.5718e-06 -2.67488e-05 -2.00333e-07 -1.62265e-06 1.40468e-08 -1.04042e-06)
(2.66038e-06 -2.64485e-05 -1.65349e-07 -1.49552e-06 -3.66128e-09 -8.31157e-07)
(2.20873e-06 -2.59068e-05 -1.34207e-07 -1.53641e-06 -1.38535e-08 -7.36414e-07)
(2.18841e-06 -2.51395e-05 -9.87497e-08 -1.70689e-06 -2.37966e-08 -7.84338e-07)
(2.62479e-06 -2.41349e-05 -6.0621e-08 -2.02324e-06 -3.74883e-08 -9.4754e-07)
(3.50847e-06 -2.2899e-05 -1.59831e-08 -2.47726e-06 -5.75055e-08 -1.23342e-06)
(4.8642e-06 -2.14561e-05 3.71884e-08 -3.05588e-06 -8.53193e-08 -1.64224e-06)
(6.73978e-06 -1.9823e-05 1.05204e-07 -3.75644e-06 -1.22256e-07 -2.16307e-06)
(9.07374e-06 -1.80502e-05 1.66089e-07 -4.55403e-06 -1.65632e-07 -2.8092e-06)
(1.19053e-05 -1.615e-05 2.12472e-07 -5.40231e-06 -2.42903e-07 -3.59034e-06)
(1.53943e-05 -1.41487e-05 2.66944e-07 -6.25694e-06 -3.65684e-07 -4.4936e-06)
(1.97487e-05 -1.20377e-05 3.2165e-07 -6.97865e-06 -3.0934e-07 -5.00509e-06)
(4.25701e-05 1.29817e-05 -1.60795e-06 -7.80159e-06 -1.33306e-06 -1.70579e-05)
(6.74783e-05 -7.63555e-05 -1.88511e-06 4.40081e-05 2.94083e-06 -2.78446e-05)
(4.73451e-05 -2.68801e-05 -1.19734e-07 3.04842e-05 9.19739e-07 -2.56889e-05)
(3.88208e-05 -1.50315e-05 -3.88072e-07 2.40829e-05 9.8516e-07 -2.33082e-05)
(3.16944e-05 -9.25334e-06 -4.39189e-07 1.96526e-05 8.9488e-07 -2.05419e-05)
(2.5696e-05 -6.27256e-06 -4.25253e-07 1.59741e-05 8.06024e-07 -1.76177e-05)
(2.06658e-05 -4.25427e-06 -4.22906e-07 1.29335e-05 7.01209e-07 -1.48437e-05)
(1.59914e-05 -2.82451e-06 -4.10678e-07 1.06131e-05 6.05319e-07 -1.2048e-05)
(1.15594e-05 -1.78678e-06 -3.63371e-07 8.76294e-06 5.47149e-07 -9.44273e-06)
(7.41417e-06 -9.07069e-07 -3.3156e-07 7.33557e-06 5.18986e-07 -7.03952e-06)
(3.4033e-06 -1.66878e-07 -2.94043e-07 6.24278e-06 5.17034e-07 -4.83182e-06)
(-5.06668e-07 4.15595e-07 -2.59651e-07 5.46154e-06 5.51532e-07 -2.75282e-06)
(-4.49169e-06 8.24024e-07 -2.11933e-07 5.02446e-06 5.90611e-07 -7.97418e-07)
(-8.48698e-06 1.16379e-06 -1.7375e-07 4.90454e-06 6.26424e-07 1.04429e-06)
(-1.24848e-05 1.42768e-06 -1.79385e-07 5.05153e-06 7.16971e-07 2.68145e-06)
(-1.6455e-05 1.61413e-06 -1.78114e-07 5.37277e-06 8.02789e-07 4.17853e-06)
(-2.05756e-05 1.73943e-06 -1.88986e-07 5.88215e-06 9.01931e-07 5.6394e-06)
(-2.46776e-05 1.70134e-06 -2.04901e-07 6.64543e-06 9.54721e-07 6.87839e-06)
(-2.83805e-05 1.35415e-06 -2.28489e-07 7.41484e-06 9.65744e-07 8.05755e-06)
(-3.19496e-05 8.91644e-07 -2.48532e-07 8.13766e-06 1.01678e-06 9.20462e-06)
(-3.56203e-05 4.08097e-07 -2.51117e-07 8.89029e-06 1.09352e-06 1.03192e-05)
(-3.93832e-05 -1.28218e-07 -2.719e-07 9.67682e-06 1.23991e-06 1.13516e-05)
(-4.29317e-05 -8.34418e-07 -2.85695e-07 1.02748e-05 1.31291e-06 1.21929e-05)
(-4.61022e-05 -1.78141e-06 -3.17777e-07 1.05372e-05 1.3518e-06 1.29762e-05)
(-4.89274e-05 -3.00747e-06 -8.80119e-08 1.04925e-05 1.31226e-06 1.33179e-05)
(-6.58266e-06 8.95365e-06 -2.38653e-08 3.21704e-05 -4.57473e-07 -1.4484e-05)
(-1.08527e-05 -5.25001e-06 6.41822e-08 3.8348e-05 -1.33595e-06 -1.28304e-05)
(-8.93904e-06 -8.71307e-06 2.07021e-07 3.45063e-05 -9.14443e-07 -1.16181e-05)
(-6.81063e-06 -1.03606e-05 2.25508e-07 3.00683e-05 -6.9315e-07 -1.04743e-05)
(-5.08041e-06 -1.10534e-05 1.99281e-07 2.62895e-05 -4.96558e-07 -9.55028e-06)
(-3.62687e-06 -1.1048e-05 2.26699e-07 2.33759e-05 -3.27436e-07 -8.81632e-06)
(-2.44392e-06 -1.07156e-05 2.21872e-07 2.07482e-05 -2.66479e-07 -8.18499e-06)
(-1.5247e-06 -1.01396e-05 2.17296e-07 1.86813e-05 -2.03024e-07 -7.66884e-06)
(-8.15336e-07 -9.43499e-06 2.20996e-07 1.70516e-05 -1.46805e-07 -7.24485e-06)
(-2.58271e-07 -8.68914e-06 2.06683e-07 1.5691e-05 -1.17047e-07 -6.90305e-06)
(1.57067e-07 -7.88325e-06 1.98336e-07 1.46628e-05 -8.95312e-08 -6.62562e-06)
(4.44089e-07 -7.06174e-06 1.99998e-07 1.38446e-05 -8.04388e-08 -6.39001e-06)
(6.53406e-07 -6.26023e-06 1.87439e-07 1.32142e-05 -6.64993e-08 -6.19893e-06)
(7.71746e-07 -5.4748e-06 1.73709e-07 1.27647e-05 -5.19183e-08 -6.04745e-06)
(8.09621e-07 -4.72109e-06 1.67828e-07 1.24548e-05 -4.28074e-08 -5.92014e-06)
(7.76051e-07 -4.00478e-06 1.57806e-07 1.22673e-05 -3.45265e-08 -5.81301e-06)
(6.78312e-07 -3.32477e-06 1.4398e-07 1.2184e-05 -2.48139e-08 -5.7194e-06)
(5.30277e-07 -2.69602e-06 1.29003e-07 1.21855e-05 -1.65228e-08 -5.63865e-06)
(3.38716e-07 -2.1167e-06 1.11947e-07 1.22581e-05 -1.01796e-08 -5.56613e-06)
(1.03741e-07 -1.59945e-06 9.32556e-08 1.23798e-05 -8.41593e-09 -5.49876e-06)
(-1.60158e-07 -1.14067e-06 6.85338e-08 1.2546e-05 -7.6129e-09 -5.43651e-06)
(-4.4081e-07 -7.32594e-07 4.28586e-08 1.27438e-05 -7.62132e-09 -5.37802e-06)
(-7.28507e-07 -3.88497e-07 1.1516e-08 1.29409e-05 -1.3987e-08 -5.31624e-06)
(-1.05355e-06 -1.30102e-07 -8.03481e-09 1.30958e-05 -4.73952e-09 -5.25472e-06)
(5.59485e-06 3.05128e-07 3.25394e-07 3.29702e-06 -6.09147e-07 -1.40464e-05)
(6.65808e-06 1.49595e-06 3.31153e-07 2.93959e-06 -6.05384e-07 -1.41715e-05)
(8.03612e-06 3.27266e-06 2.90278e-07 2.77511e-06 -6.18688e-07 -1.43905e-05)
(1.00083e-05 5.51162e-06 2.3052e-07 2.74474e-06 -6.45519e-07 -1.46907e-05)
(1.27472e-05 8.05654e-06 1.67497e-07 2.73824e-06 -6.79595e-07 -1.50682e-05)
(1.6338e-05 1.07648e-05 7.26661e-08 2.662e-06 -7.16775e-07 -1.55196e-05)
(2.08139e-05 1.34621e-05 -7.97479e-08 2.40115e-06 -7.48673e-07 -1.60423e-05)
(2.61721e-05 1.61502e-05 -2.63594e-07 1.78911e-06 -7.57242e-07 -1.66253e-05)
(3.41404e-05 1.97776e-05 -3.19992e-07 1.80381e-06 -7.04581e-07 -1.69238e-05)
(5.83647e-05 4.26891e-06 -1.97802e-06 -1.67255e-05 -7.85345e-07 -1.68561e-05)
(6.22076e-05 7.34199e-07 -2.32483e-06 -1.76533e-05 -7.95229e-07 -1.73853e-05)
(6.68391e-05 -3.21144e-06 -2.3252e-06 -1.77397e-05 -6.76933e-07 -1.81912e-05)
(7.11888e-05 -7.75855e-06 -2.34351e-06 -1.73823e-05 -5.10142e-07 -1.90169e-05)
(7.47935e-05 -1.27886e-05 -2.34461e-06 -1.61793e-05 -3.28358e-07 -1.98642e-05)
(7.75185e-05 -1.81704e-05 -2.30517e-06 -1.40364e-05 -1.30058e-07 -2.07044e-05)
(7.93356e-05 -2.37169e-05 -2.28585e-06 -1.09585e-05 1.58507e-07 -2.15353e-05)
(8.00452e-05 -2.92872e-05 -2.25555e-06 -6.77521e-06 5.01715e-07 -2.23364e-05)
(7.88862e-05 -3.3899e-05 -2.47556e-06 -1.32198e-06 1.04741e-06 -2.28917e-05)
(5.35731e-05 -4.44164e-05 -5.30849e-07 4.24758e-05 1.03877e-06 -2.68192e-05)
(4.81249e-05 -4.25853e-05 4.96942e-07 4.30051e-05 1.03817e-06 -2.67092e-05)
(4.57681e-05 -4.30574e-05 1.19037e-06 4.36983e-05 7.55066e-07 -2.65541e-05)
(4.24983e-05 -4.34665e-05 1.75612e-06 4.49596e-05 4.43369e-07 -2.62629e-05)
(3.8349e-05 -4.35416e-05 2.22803e-06 4.66378e-05 1.43468e-07 -2.58429e-05)
(3.36422e-05 -4.31918e-05 2.52812e-06 4.85425e-05 -1.59176e-07 -2.53737e-05)
(2.8576e-05 -4.24542e-05 2.67981e-06 5.05465e-05 -4.5131e-07 -2.48431e-05)
(2.29771e-05 -4.12641e-05 2.76186e-06 5.28442e-05 -7.0915e-07 -2.42294e-05)
(1.73511e-05 -4.10309e-05 2.96764e-06 5.54765e-05 -1.00276e-06 -2.36941e-05)
(-1.18004e-06 1.02491e-05 1.53243e-07 2.05654e-05 -2.69011e-07 -1.35436e-05)
(-1.81874e-07 8.44134e-06 1.3698e-07 1.57354e-05 -3.45293e-07 -1.28598e-05)
(5.42685e-07 6.49162e-06 1.29116e-07 1.1894e-05 -4.27753e-07 -1.22364e-05)
(1.05681e-06 4.57681e-06 1.22665e-07 8.97274e-06 -4.98291e-07 -1.16776e-05)
(1.4512e-06 2.79766e-06 1.18464e-07 6.82274e-06 -5.6113e-07 -1.11873e-05)
(1.83981e-06 1.30983e-06 1.18327e-07 5.27667e-06 -6.10956e-07 -1.07746e-05)
(2.3309e-06 2.23912e-07 1.2141e-07 4.08873e-06 -6.46911e-07 -1.04464e-05)
(2.94409e-06 -4.41457e-07 1.24743e-07 3.14134e-06 -6.73018e-07 -1.02075e-05)
(3.50117e-06 -4.81147e-07 1.33101e-07 2.36751e-06 -7.04835e-07 -1.01073e-05)
(1.0626e-05 2.37635e-06 -3.50179e-09 6.12487e-07 -1.21635e-06 -1.23026e-05)
(1.37606e-05 4.52054e-06 -3.0034e-07 -3.943e-07 -1.31622e-06 -1.25765e-05)
(1.71104e-05 6.04308e-06 -4.8256e-07 -1.8243e-06 -1.33719e-06 -1.27711e-05)
(2.09041e-05 7.26877e-06 -7.34743e-07 -3.5114e-06 -1.33846e-06 -1.30533e-05)
(2.51855e-05 8.0255e-06 -1.0117e-06 -5.4822e-06 -1.31396e-06 -1.34126e-05)
(2.98358e-05 8.19366e-06 -1.29942e-06 -7.62872e-06 -1.24514e-06 -1.38407e-05)
(3.47539e-05 7.73388e-06 -1.56272e-06 -9.8402e-06 -1.14082e-06 -1.4328e-05)
(3.97046e-05 6.68767e-06 -1.75733e-06 -1.1955e-05 -1.01594e-06 -1.48616e-05)
(4.57982e-05 6.057e-06 -1.75282e-06 -1.32271e-05 -9.6965e-07 -1.54756e-05)
(5.75491e-05 2.35649e-05 -8.97379e-07 -2.89823e-06 -7.91857e-07 -1.86164e-05)
(6.92838e-05 2.34325e-05 -1.01539e-06 -6.34347e-06 -7.83905e-07 -1.94064e-05)
(8.18549e-05 2.1958e-05 -1.21163e-06 -1.0107e-05 -6.95329e-07 -2.02232e-05)
(9.52236e-05 1.89722e-05 -1.38495e-06 -1.404e-05 -6.16066e-07 -2.10393e-05)
(0.000108611 1.42487e-05 -1.53788e-06 -1.77389e-05 -5.22567e-07 -2.18477e-05)
(0.000121859 7.78978e-06 -1.73848e-06 -2.10269e-05 -2.95477e-07 -2.26372e-05)
(0.000134387 -5.2153e-07 -1.97918e-06 -2.36041e-05 3.698e-08 -2.33984e-05)
(0.000145694 -1.055e-05 -2.19827e-06 -2.52997e-05 4.25056e-07 -2.41207e-05)
(0.000154251 -1.90226e-05 -1.90634e-06 -2.47243e-05 3.59535e-07 -2.45793e-05)
(7.00034e-05 -0.000116098 -3.35025e-07 0.00010069 7.81295e-07 -2.77338e-05)
(5.40389e-05 -0.000110767 6.95803e-08 0.00011247 7.04956e-07 -2.74089e-05)
(3.85388e-05 -0.000103245 4.9447e-07 0.000122677 6.66185e-07 -2.70367e-05)
(2.43961e-05 -9.38799e-05 8.44255e-07 0.000130734 6.06305e-07 -2.66073e-05)
(1.20373e-05 -8.31991e-05 1.07613e-06 0.000136498 5.21313e-07 -2.61106e-05)
(1.47642e-06 -7.1863e-05 1.19768e-06 0.000139857 4.4778e-07 -2.55489e-05)
(-7.09044e-06 -5.99785e-05 1.3356e-06 0.000140373 4.18314e-07 -2.49341e-05)
(-1.3557e-05 -4.80228e-05 1.43608e-06 0.000138413 4.21549e-07 -2.42728e-05)
(-1.70635e-05 -3.85249e-05 1.14997e-06 0.00013547 5.23074e-07 -2.36824e-05)
(-1.00548e-05 5.62294e-07 -2.06967e-07 3.3285e-05 -8.00125e-07 -1.30089e-05)
(-8.31351e-06 7.96512e-07 -3.35059e-07 2.72807e-05 -1.2737e-06 -1.25457e-05)
(-7.09175e-06 1.81752e-06 -4.12014e-07 2.3376e-05 -1.35092e-06 -1.18952e-05)
(-5.82423e-06 2.3494e-06 -4.84265e-07 1.97514e-05 -1.33575e-06 -1.12755e-05)
(-4.61476e-06 2.36846e-06 -5.46563e-07 1.64325e-05 -1.31139e-06 -1.07164e-05)
(-3.55629e-06 2.01674e-06 -6.08251e-07 1.34835e-05 -1.27105e-06 -1.02321e-05)
(-2.66944e-06 1.39999e-06 -6.55051e-07 1.08732e-05 -1.19835e-06 -9.82121e-06)
(-1.92524e-06 6.73587e-07 -6.86642e-07 8.48902e-06 -1.11345e-06 -9.48348e-06)
(-9.8001e-07 8.29333e-08 -8.22906e-07 6.06637e-06 -1.10405e-06 -9.2637e-06)
(-9.96411e-06 -3.50735e-05 4.53116e-07 8.54237e-05 5.95597e-07 -2.28854e-05)
(2.13498e-05 -3.77117e-05 1.62317e-06 3.99227e-05 -1.57369e-06 -2.16877e-05)
(2.56859e-05 -3.46119e-05 1.3424e-06 2.85694e-05 -1.02465e-06 -2.03551e-05)
(2.70898e-05 -3.09689e-05 1.14837e-06 2.09339e-05 -9.24142e-07 -1.89778e-05)
(2.73686e-05 -2.79697e-05 9.91108e-07 1.5722e-05 -7.22427e-07 -1.75786e-05)
(2.69415e-05 -2.49626e-05 8.68116e-07 1.17256e-05 -6.34419e-07 -1.62135e-05)
(2.63209e-05 -2.2443e-05 7.51073e-07 8.5428e-06 -5.56352e-07 -1.4927e-05)
(2.56676e-05 -2.03874e-05 6.65222e-07 5.9997e-06 -5.02015e-07 -1.36942e-05)