/*--------------------------------*- C++ -*----------------------------------*\
| =========                 |                                                 |
| \\      /  F ield         | OpenFOAM: The Open Source CFD Toolbox           |
|  \\    /   O peration     | Version:  v2012                                 |
|   \\  /    A nd           | Website:  www.openfoam.com                      |
|    \\/     M anipulation  |                                                 |
\*---------------------------------------------------------------------------*/
FoamFile
{
    version     2.0;
    format      ascii;
    class       volSymmTensorField;
    location    "1";
    object      sigma;
}
// * * * * * * * * * * * * * * * * * * * * * * * * * * * * * * * * * * * * * //

dimensions      [1 -1 -2 0 0 0 0];


internalField   nonuniform List<symmTensor> 
47040
(
(-6.09837e+06 -322207 57115.1 -5.34231e+06 24945.9 -5.22217e+06)
(-5.60631e+06 -364765 115408 -4.85739e+06 -1.12384e-11 -4.85739e+06)
(-5.60631e+06 -364765 115408 -4.85739e+06 -1.75968e-11 -4.85739e+06)
(-5.60631e+06 -364765 115408 -4.85739e+06 -1.32742e-11 -4.85739e+06)
(-5.95432e+06 -343537 151362 -5.19458e+06 -7.5524e-12 -5.19458e+06)
(-5.24867e+06 -350828 98344.6 -4.50632e+06 -19447.9 -4.44471e+06)
(-5.95432e+06 -343537 151362 -5.19458e+06 3.14258e-12 -5.19458e+06)
(-5.80833e+06 -309946 247617 -5.0818e+06 -1.10115e-11 -5.0818e+06)
(-5.17994e+06 -328263 148270 -4.48827e+06 -31123.3 -4.33504e+06)
(-5.80833e+06 -309946 247617 -5.0818e+06 -5.48817e-12 -5.0818e+06)
(-7.17704e+06 -257131 288307 -6.43388e+06 -3.76481e-11 -6.43388e+06)
(-4.78656e+06 -266886 188157 -4.04544e+06 -57450.3 -3.90781e+06)
(-2.643e+06 -216169 55756.7 -1.69115e+06 35553.2 -1.75821e+06)
(-2.50627e+06 -246086 128913 -1.53652e+06 -34558.6 -1.77731e+06)
(-3.00062e+06 -222440 38217.9 -2.08849e+06 13731.2 -2.07273e+06)
(-2.17654e+06 -239539 135626 -1.23259e+06 -18534.6 -1.38305e+06)
(-1.93836e+06 -194995 166217 -975536 -36000.6 -1.13462e+06)
(-2.27872e+06 -215876 194370 -1.31302e+06 -2236.02 -1.57816e+06)
(-2.30898e+06 -197247 197267 -1.33504e+06 -40524.9 -1.59798e+06)
(-1.42667e+06 -134710 236262 -541348 -61780.4 -561157)
(-2.10937e+06 -132700 238569 -1.15465e+06 -1639.64 -1.32737e+06)
(-2.36497e+06 -144997 244308 -1.41204e+06 -97509.2 -1.66875e+06)
(-2.41889e+06 -61439.4 231065 -1.47564e+06 -68501.9 -1.5637e+06)
(-2.73112e+06 -108059 225450 -1.83658e+06 -72629 -1.84055e+06)
(-3.5715e+06 -346075 53588.3 -2.8527e+06 34170.6 -2.72111e+06)
(-3.37667e+06 -380173 127257 -2.65707e+06 5.90606e-12 -2.65707e+06)
(-3.37667e+06 -380173 127257 -2.65707e+06 1.79862e-11 -2.65707e+06)
(-3.04382e+06 -366268 132513 -2.35054e+06 14757.9 -2.26855e+06)
(-3.23972e+06 -363300 194356 -2.53921e+06 9.02014e-12 -2.53921e+06)
(-3.23972e+06 -363300 194356 -2.53921e+06 1.7188e-11 -2.53921e+06)
(-3.23972e+06 -363300 194356 -2.53921e+06 6.4535e-12 -2.53921e+06)
(-3.05238e+06 -297146 239186 -2.34679e+06 37134.3 -2.26835e+06)
(-3.23972e+06 -363300 194356 -2.53921e+06 9.55138e-13 -2.53921e+06)
(-3.35898e+06 -305405 254477 -2.63378e+06 2.17004e-11 -2.63378e+06)
(-3.64814e+06 -199242 244011 -2.89822e+06 22720.9 -2.74503e+06)
(-3.35898e+06 -305405 254477 -2.63378e+06 -3.55481e-11 -2.63378e+06)
(-1.93884e+06 -308197 39571.6 -1.09666e+06 26744 -1.09794e+06)
(-2.07029e+06 -358276 120753 -1.2672e+06 -34051.7 -1.37897e+06)
(-2.27475e+06 -319501 24117.4 -1.49711e+06 21941.5 -1.39907e+06)
(-1.74513e+06 -341942 129817 -978646 -10802.7 -964770)
(-1.93639e+06 -337029 167070 -1.171e+06 -37326.1 -1.19046e+06)
(-2.14868e+06 -367640 120072 -1.38402e+06 -80958.2 -1.46125e+06)
(-2.13172e+06 -344170 174463 -1.3501e+06 -51152.7 -1.44546e+06)
(-1.98554e+06 -279492 240098 -1.22493e+06 -24119.9 -1.20891e+06)
(-1.95738e+06 -252775 239189 -1.16911e+06 3171.91 -1.15018e+06)
(-2.20968e+06 -286922 246697 -1.42885e+06 -63789.9 -1.5015e+06)
(-2.43825e+06 -161749 218648 -1.65502e+06 -27125.4 -1.48467e+06)
(-2.51799e+06 -170378 230165 -1.71981e+06 -22196.8 -1.5948e+06)
(-2.29781e+06 -393886 36807.7 -1.64253e+06 24876 -1.51564e+06)
(-2.30781e+06 -424529 113307 -1.65911e+06 5.25864e-12 -1.65911e+06)
(-2.30781e+06 -424529 113307 -1.65911e+06 2.00848e-11 -1.65911e+06)
(-2.30781e+06 -424529 113307 -1.65911e+06 4.02549e-12 -1.65911e+06)
(-2.14765e+06 -393422 159059 -1.50785e+06 12153.2 -1.43748e+06)
(-2.30781e+06 -424529 113307 -1.65911e+06 5.56834e-13 -1.65911e+06)
(-2.34438e+06 -402997 166609 -1.68902e+06 7.15866e-12 -1.68902e+06)
(-2.13004e+06 -345934 226454 -1.47941e+06 35857.6 -1.39755e+06)
(-2.34438e+06 -402997 166609 -1.68902e+06 8.1878e-13 -1.68902e+06)
(-2.35745e+06 -357480 234217 -1.6851e+06 2.54005e-11 -1.6851e+06)
(-2.68417e+06 -229406 225061 -1.95461e+06 23007.3 -1.78144e+06)
(-2.35745e+06 -357480 234217 -1.6851e+06 -3.16779e-11 -1.6851e+06)
(-1.38406e+06 -396497 21818 -657995 18288.2 -659692)
(-1.49095e+06 -429651 87802.9 -804389 -35222 -891108)
(-1.49585e+06 -387938 -7290.54 -809297 4845.6 -711245)
(-1.49095e+06 -429651 87802.9 -804389 -35222 -891108)
(-1.36626e+06 -404870 142951 -698582 -34324.2 -702185)
(-1.34209e+06 -390333 153513 -662736 -17143.9 -648569)
(-1.50294e+06 -413485 144734 -821061 -46277.7 -899138)
(-1.33616e+06 -373554 225988 -705342 -32097.9 -664919)
(-1.3051e+06 -336887 233048 -621079 5219.95 -581535)
(-1.48948e+06 -385648 220332 -838239 -63367.8 -884487)
(-1.75011e+06 -192315 225023 -968715 -21663.1 -832344)
(-1.85998e+06 -208665 214348 -1.12177e+06 -11336.6 -923034)
(-1.55673e+06 -451828 20009.5 -991082 16772.3 -892401)
(-1.6143e+06 -471690 81819.3 -1.05533e+06 1.46183e-11 -1.05533e+06)
(-1.6143e+06 -471690 81819.3 -1.05533e+06 -4.42986e-11 -1.05533e+06)
(-1.6143e+06 -471690 81819.3 -1.05533e+06 1.41925e-11 -1.05533e+06)
(-1.46926e+06 -449493 132335 -921939 10173.3 -854501)
(-1.6143e+06 -471690 81819.3 -1.05533e+06 3.3631e-12 -1.05533e+06)
(-1.60686e+06 -459401 134086 -1.04748e+06 1.15575e-11 -1.04748e+06)
(-1.37107e+06 -424973 205075 -839280 26572.7 -761946)
(-1.60686e+06 -459401 134086 -1.04748e+06 -3.64188e-13 -1.04748e+06)
(-1.52559e+06 -438995 200062 -976248 7.79813e-12 -976248)
(-1.85328e+06 -273700 213564 -1.16811e+06 48624.4 -982256)
(-1.52559e+06 -438995 200062 -976248 5.45914e-11 -976248)
(-712779 -494646 7828.2 -174793 8834.75 -223593)
(-776973 -509358 49949.9 -280694 -36111.6 -368997)
(-747791 -479541 -34116.4 -229526 -7333.47 -164593)
(-776973 -509358 49949.9 -280694 -36111.6 -368997)
(-629677 -494169 93162.8 -153682 -39118.7 -133158)
(-679144 -499927 98124.2 -194344 -25345.9 -229060)
(-753178 -504175 93268 -267545 -55796.4 -351910)
(-675027 -466281 167687 -187167 -29135.8 -144152)
(-719152 -469149 150507 -197114 -23889.3 -201939)
(-814318 -480264 155248 -311827 -70715.2 -385988)
(-1.04628e+06 -294550 122340 -382849 -32101.1 -113214)
(-1.18253e+06 -332037 169030 -475699 -5736.28 -372234)
(-804711 -530329 6720.28 -440864 7584.38 -384759)
(-844335 -537733 43601.6 -488210 2.02357e-12 -488210)
(-844335 -537733 43601.6 -488210 2.54405e-11 -488210)
(-844335 -537733 43601.6 -488210 1.54904e-12 -488210)
(-811216 -535235 80840 -463417 3.75181e-12 -463417)
(-725009 -526973 85685.8 -365113 27841.5 -331979)
(-811216 -535235 80840 -463417 9.50769e-12 -463417)
(-769468 -507485 130352 -392637 29109.4 -321518)
(-811216 -535235 80840 -463417 3.97278e-13 -463417)
(-864586 -515117 138636 -482088 3.66012e-11 -482088)
(-1.23172e+06 -385504 156823 -635414 51386.5 -479950)
(-864586 -515117 138636 -482088 -1.46177e-11 -482088)
(183399 -575112 -9911.35 136782 10784.5 86162.9)
(138064 -575509 -9298.14 120870 -35135.6 82739.8)
(155674 -573203 -58611.9 167312 -23379.2 209109)
(139312 -575760 -12561.6 122110 -30266.7 85362.7)
(107975 -573807 -8214.04 87579.1 -59117.5 62621.1)
(124475 -573172 -48253.7 126528 -43978.1 165880)
(113182 -575995 -8164.61 92708.7 -33194.3 73438.7)
(175296 -572288 -13132.8 132769 -58184.5 227707)
(143880 -573011 -4172.26 163639 -61041 95015.6)
(91904.7 -575979 -26752 49103.2 -8884.27 39084.4)
(176139 -368612 -144885 217947 -116714 449305)
(79834.1 -472152 -6830.95 247912 -105390 98323.9)
(136693 -575713 -7841.15 69543.3 8531.91 59767)
(97220.4 -576724 -7512.11 52523.5 -3.4864e-13 52523.5)
(97220.4 -576724 -7512.11 52523.5 2.72852e-11 52523.5)
(98545.8 -576685 -10143.6 53852 3944.06 54981.5)
(80307 -576911 -6736.17 43113.1 -3.12628e-13 43113.1)
(80307 -576911 -6736.17 43113.1 2.72941e-11 43113.1)
(85769.5 -576562 -6666.17 48598.2 21349.5 53320)
(82199.2 -576888 -3380.29 42610 -6.15636e-11 42610)
(82199.2 -576888 -3380.29 42610 2.72929e-11 42610)
(79282.4 -571930 -21130.1 40033.5 72354.1 37562.4)
(-31729.3 -577225 -6483.02 -14181.3 -6.16656e-11 -14181.3)
(-31729.3 -577225 -6483.02 -14181.3 2.73089e-11 -14181.3)
(1.03603e+06 -469814 -18195.4 487205 6732.26 428770)
(1.03556e+06 -491972 -68163 513281 -30358 545071)
(1.0646e+06 -488769 -66476.4 535947 -20996.5 557106)
(955738 -483663 -72207.1 442276 -30251.3 412492)
(988802 -488041 -113206 482687 -53343.2 520455)
(1.00311e+06 -487696 -115161 495648 -48870.4 534037)
(902070 -481621 -109217 402613 -32174.3 372805)
(1.0112e+06 -462659 -166921 489027 -81889.5 527326)
(1.00328e+06 -474935 -163706 501635 -58498.1 542909)
(850683 -454405 -145095 337825 -6171.68 247832)
(1.17508e+06 -343596 -281782 569580 -138291 597962)
(1.22944e+06 -395015 -260141 653753 -57671.7 676397)
(1.01938e+06 -502951 -15675 570665 5799.72 496235)
(1.02807e+06 -519960 -58725.8 605483 -2.72548e-12 605483)
(1.02807e+06 -519960 -58725.8 605483 2.45997e-11 605483)
(947444 -513047 -62437.3 530479 -351.146 477700)
(993583 -518098 -98387.8 586540 -4.56621e-12 586540)
(993583 -518098 -98387.8 586540 2.45115e-11 586540)
(904574 -511186 -94902.6 502961 17784.8 444674)
(1.01604e+06 -502336 -145971 592893 -5.69117e-11 592893)
(1.01604e+06 -502336 -145971 592893 2.37658e-11 592893)
(847618 -487854 -125466 436669 64210.8 326325)
(1.15927e+06 -431701 -247552 652259 -5.15159e-11 652259)
(1.15927e+06 -431701 -247552 652259 2.0424e-11 652259)
(1.6768e+06 -370486 -21522.9 952438 2644.02 874983)
(1.76301e+06 -403815 -102031 1.04601e+06 -26903.9 1.10148e+06)
(1.73622e+06 -391586 -64116.2 1.01496e+06 -20842.7 1.00656e+06)
(1.58267e+06 -390971 -102942 888469 -31164.2 854404)
(1.69848e+06 -398853 -164537 1.00984e+06 -42995.3 1.07077e+06)
(1.64628e+06 -395607 -135310 951737 -42971.5 970030)
(1.49694e+06 -387654 -155097 827631 -28388.7 789980)
(1.72611e+06 -364355 -232016 1.04309e+06 -60780 1.10304e+06)
(1.61758e+06 -381996 -194342 945463 -46427.5 959569)
(1.3932e+06 -354106 -188279 729392 -11558.8 629324)
(2.01486e+06 -246508 -321207 1.28976e+06 -81283.5 1.34568e+06)
(1.73755e+06 -317330 -253428 1.04091e+06 -36230 1.01867e+06)
(1.73655e+06 -416560 -19926.8 1.11061e+06 2447.95 994187)
(1.83104e+06 -446572 -94444.4 1.2187e+06 -4.3832e-12 1.2187e+06)
(1.83104e+06 -446572 -94444.4 1.2187e+06 2.11276e-11 1.2187e+06)
(1.65134e+06 -433586 -95556 1.05681e+06 -4748.98 975329)
(1.78521e+06 -442357 -153377 1.20007e+06 1.02666e-11 1.20007e+06)
(1.78521e+06 -442357 -153377 1.20007e+06 -7.5375e-13 1.20007e+06)
(1.58271e+06 -429796 -144531 1.01418e+06 12486.4 923911)
(1.81881e+06 -413858 -218195 1.23286e+06 -4.915e-11 1.23286e+06)
(1.81881e+06 -413858 -218195 1.23286e+06 1.95799e-11 1.23286e+06)
(1.48049e+06 -398911 -175608 915699 44314.2 768018)
(2.11894e+06 -318675 -307781 1.47773e+06 -4.08088e-11 1.47773e+06)
(2.11894e+06 -318675 -307781 1.47773e+06 1.50767e-11 1.47773e+06)
(2.33988e+06 -307240 -28487.1 1.53883e+06 -1191.79 1.45654e+06)
(2.47101e+06 -353109 -120703 1.67443e+06 -24237.8 1.74936e+06)
(2.36011e+06 -335188 -61135.5 1.56386e+06 -20905.8 1.54375e+06)
(2.20578e+06 -341124 -120515 1.43624e+06 -29977.4 1.4204e+06)
(2.39598e+06 -351176 -182501 1.63487e+06 -33199.7 1.71157e+06)
(2.25462e+06 -345371 -138845 1.48559e+06 -36766.2 1.50036e+06)
(2.0878e+06 -339901 -172641 1.35113e+06 -22249.5 1.32515e+06)
(2.42448e+06 -321091 -249069 1.68463e+06 -43707.9 1.75736e+06)
(2.18973e+06 -337880 -196863 1.45378e+06 -34683.7 1.45923e+06)
(1.93131e+06 -311414 -203837 1.21375e+06 -10926.4 1.12768e+06)
(2.80996e+06 -230069 -323504 2.05929e+06 -53916.4 2.12497e+06)
(2.19365e+06 -294793 -242290 1.46317e+06 -25914.6 1.42721e+06)
(2.50689e+06 -357813 -27204 1.80228e+06 -1138.11 1.66334e+06)
(2.65451e+06 -399844 -115890 1.96163e+06 5.20643e-11 1.96163e+06)
(2.65451e+06 -399844 -115890 1.96163e+06 -6.18268e-12 1.96163e+06)
(2.38965e+06 -386307 -115720 1.72022e+06 -6301.2 1.63551e+06)
(2.59548e+06 -396662 -175901 1.93582e+06 6.03522e-11 1.93582e+06)
(2.59548e+06 -396662 -175901 1.93582e+06 -1.80394e-12 1.93582e+06)
(2.28649e+06 -383124 -166049 1.64934e+06 9506.8 1.55295e+06)
(2.62616e+06 -367954 -241591 1.97907e+06 -2.61447e-11 1.97907e+06)
(2.62616e+06 -367954 -241591 1.97907e+06 -4.50659e-11 1.97907e+06)
(2.12921e+06 -354321 -196308 1.50609e+06 30301.9 1.35527e+06)
(3.02782e+06 -284235 -318184 2.3541e+06 -8.89197e-12 2.3541e+06)
(3.02782e+06 -284235 -318184 2.3541e+06 -2.82523e-11 2.3541e+06)
(3.15144e+06 -269083 -44681.8 2.31994e+06 -6054.36 2.22761e+06)
(3.16528e+06 -340650 -137996 2.35552e+06 -25075.4 2.44248e+06)
(3.00522e+06 -314607 -67783.1 2.19039e+06 -24146.4 2.16241e+06)
(2.83626e+06 -329889 -142728 2.05208e+06 -24422.8 2.05763e+06)
(3.05074e+06 -341569 -196540 2.28559e+06 -30246.9 2.3644e+06)
(2.83904e+06 -335010 -150544 2.06339e+06 -35212.2 2.07656e+06)
(2.64101e+06 -329491 -194171 1.90291e+06 -12691.9 1.88192e+06)
(3.02804e+06 -316098 -267148 2.30442e+06 -38327.7 2.36787e+06)
(2.68879e+06 -331879 -210152 1.96428e+06 -31280.3 1.95175e+06)
(2.43641e+06 -307619 -228845 1.7322e+06 -10980.9 1.65221e+06)
(3.45783e+06 -242303 -333027 2.7356e+06 -41260.8 2.78878e+06)
(2.56929e+06 -301576 -246259 1.86446e+06 -21154.5 1.803e+06)
(3.43686e+06 -320365 -43293.6 2.69701e+06 -5866.26 2.54174e+06)
(3.49091e+06 -383216 -135578 2.78078e+06 -6.29225e-12 2.78078e+06)
(3.49091e+06 -383216 -135578 2.78078e+06 1.81302e-11 2.78078e+06)
(3.1616e+06 -370331 -139933 2.47534e+06 -136.821 2.39822e+06)
(3.3501e+06 -379392 -193374 2.67482e+06 -8.97457e-12 2.67482e+06)
(3.3501e+06 -379392 -193374 2.67482e+06 1.79493e-11 2.67482e+06)
(2.93925e+06 -364572 -190310 2.29035e+06 16157.6 2.19526e+06)
(3.27444e+06 -349246 -263872 2.62237e+06 -4.33188e-11 2.62237e+06)
(3.27444e+06 -349246 -263872 2.62237e+06 1.65231e-11 2.62237e+06)
(2.67992e+06 -337691 -224584 2.04942e+06 25828.7 1.91032e+06)
(3.69633e+06 -275521 -331297 3.03075e+06 -3.67323e-11 3.03075e+06)
(3.69633e+06 -275521 -331297 3.03075e+06 1.30351e-11 3.03075e+06)
(5.33869e+06 -234231 -26173.1 4.40879e+06 -3546.44 4.44388e+06)
(5.52886e+06 -270223 -68092.5 4.57843e+06 751.293 4.75441e+06)
(4.96057e+06 -215852 -5750.35 3.99558e+06 -34988.7 4.08053e+06)
(5.19528e+06 -266492 -71821.5 4.25797e+06 669.248 4.39113e+06)
(5.4411e+06 -263190 -134684 4.51208e+06 -16353.7 4.67716e+06)
(4.93975e+06 -265609 -73842.1 4.02627e+06 -6919.43 4.10088e+06)
(5.02352e+06 -258658 -134786 4.11049e+06 -7357.62 4.22144e+06)
(5.43517e+06 -245179 -189615 4.52175e+06 -26617.4 4.68877e+06)
(4.72401e+06 -252253 -128334 3.81253e+06 -23193.7 3.90088e+06)
(4.8252e+06 -241677 -170806 3.92482e+06 -12628.3 4.01617e+06)
(6.16382e+06 -200452 -240590 5.25663e+06 -36417 5.41941e+06)
(4.33756e+06 -225888 -150876 3.42484e+06 -39977.6 3.49514e+06)
(-4.2632e+06 -217776 41334.1 -3.31712e+06 26356.7 -3.36683e+06)
(-4.47606e+06 -232580 92379.1 -3.58118e+06 10539.9 -3.56908e+06)
(-3.53884e+06 -211435 45379.7 -2.6282e+06 -16996 -2.59681e+06)
(-5.18237e+06 -245012 34256.9 -4.23965e+06 -10431.5 -4.32433e+06)
(-4.70534e+06 -210795 95083.6 -3.74731e+06 -20784.8 -3.83915e+06)
(-4.54493e+06 -232756 28425.6 -3.65635e+06 -36266.5 -3.61185e+06)
(-4.78059e+06 -211111 106854 -3.82112e+06 -981.982 -3.92456e+06)
(-5.0682e+06 -173131 102251 -4.12724e+06 -34287.6 -4.13823e+06)
(-4.20525e+06 -182075 70308.2 -3.26859e+06 -30179.2 -3.2626e+06)
(-4.26783e+06 -164847 103650 -3.3719e+06 9488.86 -3.28699e+06)
(-3.39163e+06 -86114.3 159056 -2.4114e+06 -60190.3 -2.48878e+06)
(-3.37063e+06 -100090 141276 -2.42231e+06 -69114.6 -2.42608e+06)
(-2.39274e+06 -184229 65330.3 -1.44656e+06 23361.8 -1.4589e+06)
(-1.89388e+06 -193563 113652 -988892 5008.22 -957113)
(-2.61363e+06 -199657 112470 -1.66707e+06 63745.6 -1.74248e+06)
(-2.36802e+06 -203242 90226.7 -1.41778e+06 15594 -1.47612e+06)
(-1.68175e+06 -156234 140731 -747504 -7828.54 -753585)
(-2.30467e+06 -167948 153685 -1.30099e+06 34063.5 -1.5104e+06)
(-2.08181e+06 -161706 149865 -1.11484e+06 12592.7 -1.2079e+06)
(-1.5717e+06 -80970 156205 -592051 -21388.3 -650618)
(-2.12516e+06 -121335 210082 -1.12776e+06 23119.4 -1.35128e+06)
(-1.77123e+06 -81912.5 171420 -780176 31604.4 -885718)
(-1.45338e+06 -28634.5 155561 -475508 -134412 -572573)
(-1.7999e+06 -114898 58345.9 -880843 -32405.5 -780432)
(-3.02986e+06 -299459 62813.1 -2.24476e+06 22461.7 -2.132e+06)
(-3.29151e+06 -344231 105083 -2.5472e+06 15580 -2.47758e+06)
(-2.94567e+06 -338718 126288 -2.16613e+06 17823.7 -2.16699e+06)
(-3.12902e+06 -341353 84745.1 -2.39093e+06 14810.2 -2.2913e+06)
(-3.38984e+06 -360414 137249 -2.641e+06 -21830 -2.65238e+06)
(-3.22633e+06 -349385 146739 -2.47602e+06 -6273.1 -2.46796e+06)
(-2.87944e+06 -344178 138393 -2.16434e+06 23253.4 -2.07243e+06)
(-3.23665e+06 -333993 210961 -2.51259e+06 -14288.6 -2.5031e+06)
(-3.09258e+06 -335264 201267 -2.36272e+06 1935.82 -2.35117e+06)
(-2.71737e+06 -324862 160035 -2.01311e+06 55852.3 -1.89068e+06)
(-2.43008e+06 -264069 161155 -1.67987e+06 -25837.7 -1.5176e+06)
(-2.63299e+06 -253701 190539 -1.86205e+06 -20507.8 -1.74655e+06)
(-1.8469e+06 -269696 46129.7 -961513 22864.1 -973046)
(-1.97457e+06 -312033 87292.1 -1.11481e+06 -13779.2 -1.18402e+06)
(-2.05641e+06 -266328 16797 -1.21282e+06 -2395.88 -1.13201e+06)
(-1.8363e+06 -308345 77239.1 -986703 -9223.38 -1.01748e+06)
(-1.96374e+06 -331890 137062 -1.13784e+06 -58954.5 -1.24884e+06)
(-1.90699e+06 -318046 40680.5 -1.10806e+06 -15409.6 -1.04692e+06)
(-1.65597e+06 -322179 139686 -854231 -11085.1 -870897)
(-1.98019e+06 -299523 207847 -1.17647e+06 -61835.3 -1.25383e+06)
(-1.58665e+06 -337954 97758.4 -827369 -14563.2 -764667)
(-1.63652e+06 -299669 134041 -832404 5872.31 -796703)
(-1.63856e+06 -226705 125690 -821311 -97217.2 -711149)
(-1.71276e+06 -330355 100376 -980046 18104.7 -857797)
(-2.27844e+06 -364807 43279 -1.56914e+06 21451.1 -1.45859e+06)
(-2.42083e+06 -393746 82500.6 -1.7378e+06 3169.24 -1.67367e+06)
(-2.30682e+06 -396696 108867 -1.60489e+06 11232.5 -1.60594e+06)
(-2.28214e+06 -388617 72910.5 -1.60801e+06 7274.76 -1.50921e+06)
(-2.38554e+06 -407690 134570 -1.71678e+06 -19866.3 -1.71886e+06)
(-2.31109e+06 -406901 129755 -1.64263e+06 -10082.5 -1.6343e+06)
(-2.02066e+06 -391386 131919 -1.37864e+06 28047 -1.27924e+06)
(-2.40087e+06 -374448 207985 -1.74282e+06 -18165 -1.71995e+06)
(-2.26512e+06 -374298 197745 -1.59679e+06 3000.82 -1.57406e+06)
(-1.98167e+06 -367427 126948 -1.33596e+06 59602.7 -1.18629e+06)
(-1.95554e+06 -299182 150491 -1.20642e+06 -18580.5 -1.08945e+06)
(-1.84435e+06 -308844 121458 -1.13766e+06 -10809.9 -948157)
(-1.3142e+06 -366182 28280.4 -529706 20928.7 -558022)
(-1.40637e+06 -394206 64944.5 -651436 -25516.1 -726005)
(-1.38451e+06 -350972 -12380.5 -634062 -6431.03 -553773)
(-1.28338e+06 -388513 60536.5 -539349 -19876.9 -565239)
(-1.42545e+06 -405267 113005 -710842 -62859 -795914)
(-1.30768e+06 -387713 21331.4 -605019 -28093.8 -538010)
(-1.19896e+06 -394988 115762 -502470 -18897.9 -494538)
(-1.53142e+06 -368143 191633 -826052 -70695.3 -870357)
(-1.12865e+06 -414334 73829 -493836 -14077 -404067)
(-1.29532e+06 -370148 111528 -586119 180.5 -523074)
(-1.28336e+06 -330442 91752.5 -583951 -79961.8 -422670)
(-1.0127e+06 -411714 32855.7 -429830 10938.6 -238486)
(-1.55926e+06 -431544 26101.8 -940443 19316.4 -861335)
(-1.65434e+06 -449583 60765.2 -1.05576e+06 -4292.44 -1.01775e+06)
(-1.63133e+06 -453422 90314.9 -1.01939e+06 4885.6 -1.04638e+06)
(-1.53093e+06 -442707 56591.9 -941502 700.45 -859576)
(-1.62559e+06 -452779 107054 -1.04008e+06 -20733.2 -1.0292e+06)
(-1.70369e+06 -449880 128392 -1.10925e+06 -13332.4 -1.12751e+06)
(-1.39648e+06 -438747 109033 -829124 19813.1 -733017)
(-1.65561e+06 -423411 178555 -1.06258e+06 -15516.6 -1.03967e+06)
(-1.57605e+06 -427522 189095 -988324 -12742.4 -990897)
(-1.41076e+06 -419862 102488 -822689 50098 -701103)
(-1.32177e+06 -393689 84290.6 -718284 -22287.8 -531077)
(-1.71514e+06 -367770 172596 -1.04019e+06 -3684.83 -973730)
(-666701 -484158 8589.36 -93991.5 14152.1 -156841)
(-759654 -496030 40634.2 -219527 -36005.5 -304614)
(-711118 -461998 -39371.4 -151063 -11232.4 -85549.2)
(-681224 -491855 38391.1 -145643 -26051.3 -183991)
(-806521 -492880 80707.3 -285756 -69211.7 -362021)
(-649752 -478047 -14314.3 -131298 -45101.9 -64793.4)
(-689337 -488454 78069.3 -173247 -31412.3 -179834)
(-788632 -487013 115325 -304677 -92155.5 -328900)
(-620160 -489198 15336.5 -157793 -38637.2 -47607.6)
(-700325 -492589 66037.7 -210830 -14438.8 -175118)
(-597862 -465670 26981.7 -131516 -139058 -9513.01)
(-267336 -507463 -64129.4 65224.1 -33806.3 257733)
(-847606 -524308 7516.72 -465260 12384.8 -401418)
(-908898 -529523 36101.7 -528459 -13337.7 -504614)
(-918917 -537733 66074.9 -559933 6165.76 -588873)
(-829149 -524684 34084.2 -452186 -4647.42 -387698)
(-943975 -526330 72575 -567029 -25441 -544265)
(-952149 -528362 96018.4 -576130 -17262.8 -597089)
(-823729 -519141 69871.3 -451931 8180.35 -367728)
(-886830 -519753 104259 -522784 -31607.7 -471211)
(-998384 -511861 147905 -609157 -19429.5 -620436)
(-791768 -517840 58808.1 -429063 38656.7 -324059)
(-618371 -501129 24493.1 -234771 -75915.4 -84286.6)
(-1.30853e+06 -468034 185471 -816324 -4939.61 -821895)
(154564 -576055 -12055 162938 14752 100954)
(119168 -575209 -7340.22 136575 -39336.7 79162)
(161397 -566788 -81465.7 229993 -29213.2 296953)
(132293 -575776 -4223.16 149717 -35043.1 102525)
(104636 -570323 -2414.07 116413 -87924 80818.8)
(205185 -565117 -78605.6 237778 -67831.3 315240)
(112128 -575146 1873.83 124004 -48056.9 94024)
(97801 -563210 2126.73 85202 -126255 70744.5)
(243575 -561349 -88479 241564 -79445.9 353196)
(77897.3 -576548 -5881.6 64999.9 -18725.6 32759.4)
(159940 -546480 -28339.3 114212 -179947 82676.5)
(673498 -528821 -192010 477706 -83011.8 607489)
(44777 -576354 -9692.86 -13530.7 11861.4 1671.67)
(13299.3 -576525 -6001.04 -36287 -16748.9 -19408.2)
(-17208 -573112 32526.5 -91482.5 5515.06 -139352)
(27050.1 -576656 -3450.06 -22547.4 -13213.5 2731.61)
(6881.91 -575445 -1997.67 -43683.1 -39279.7 -12827.3)
(-47784.3 -574549 33370.2 -100080 -24345.2 -124049)
(14742 -576729 1541.05 -35935.9 -5969.02 -146.664)
(24132.3 -574422 1766.09 -33742.2 -50181.6 1663.79)
(-83364.6 -573276 49200.2 -134861 -27194.2 -160055)
(2862.26 -575229 -4777.96 -55093.6 39529 -33805.7)
(92640.3 -572012 -22045.1 8433.97 -61387.1 32536.8)
(-308491 -566612 100640 -298400 -5784.5 -382748)
(985759 -480896 -25287.8 481855 11225 396938)
(989273 -494894 -53017.2 505235 -37396.7 469959)
(1.05099e+06 -504340 -95820.5 582834 -30808.3 611602)
(937702 -490878 -45266.1 457592 -40170.1 392281)
(977616 -491885 -81750 494072 -81635.7 493468)
(1.04689e+06 -497528 -115973 574746 -69438 622672)
(890040 -488531 -75852.5 409794 -50329.9 356359)
(952958 -477053 -112920 456598 -106566 459502)
(1.03953e+06 -485822 -152184 562796 -82636.6 623667)
(829950 -478750 -80318.6 331824 -19917.8 255689)
(1.06231e+06 -412742 -132819 461318 -118812 411428)
(1.32439e+06 -424273 -203781 734686 -63510.2 779578)
(896918 -505470 -21734.9 444608 9647.95 390824)
(900094 -515590 -45503.9 462819 -20953.6 454374)
(852185 -499609 -3291.81 395420 2705.57 316161)
(848170 -512688 -38948.7 413356 -23483.2 378868)
(898519 -514995 -70786.4 460988 -43020.8 479302)
(834098 -512078 -37948.8 398182 -31249.8 364023)
(808814 -511450 -65675.4 374295 -16101 346737)
(889123 -506570 -98919 441903 -49201.7 456851)
(764756 -509185 -55658.8 327302 -29821.4 287751)
(759428 -503101 -69630.4 315269 26581.9 261585)
(982562 -463759 -116021 441587 -44950.3 414001)
(609005 -489957 -21759.9 151167 -13676.6 32764.6)
(1.64574e+06 -363308 -33863.2 922343 7175.82 828027)
(1.67304e+06 -388791 -73908.6 959950 -33303.4 935125)
(1.71935e+06 -395351 -89035.6 1.01059e+06 -27246 1.00675e+06)
(1.56833e+06 -382906 -64336.7 866041 -40340.2 801326)
(1.6671e+06 -393626 -116437 963205 -68246.1 985114)
(1.67956e+06 -396791 -116204 979590 -61395.1 1.00036e+06)
(1.47612e+06 -384986 -110613 787679 -43343.8 734978)
(1.59345e+06 -380874 -158147 900182 -80669.3 915474)
(1.63598e+06 -387310 -163995 949794 -68460.5 973367)
(1.38248e+06 -379147 -109630 692360 -23063.1 620423)
(1.64739e+06 -319321 -153837 887893 -78972.4 853200)
(1.79894e+06 -345067 -182773 1.0623e+06 -44624.8 1.0706e+06)
(1.61951e+06 -399486 -31516.9 949647 6678.62 858452)
(1.63349e+06 -422542 -68182.2 974858 -22972.7 952752)
(1.62621e+06 -393672 -32595.9 946888 -1323 855542)
(1.5294e+06 -417153 -59495.6 879172 -29653.1 820112)
(1.6456e+06 -427610 -108152 996193 -39707.3 1.01215e+06)
(1.59797e+06 -423812 -88380.1 947483 -32425 930353)
(1.45421e+06 -418777 -102878 818209 -17119.5 764887)
(1.58521e+06 -417615 -148008 944583 -38967.8 950700)
(1.48322e+06 -418921 -120303 843868 -24934.5 814750)
(1.37002e+06 -413407 -102030 735849 14697.2 660787)
(1.64356e+06 -369820 -144287 942275 -31415.1 898676)
(1.37235e+06 -385286 -91347.2 701920 -13072.3 598945)
(2.21428e+06 -296100 -40725 1.40301e+06 1094.86 1.3204e+06)
(2.23949e+06 -323674 -80406.9 1.42837e+06 -28368.4 1.42106e+06)
(2.23471e+06 -329981 -79157.1 1.43071e+06 -21743 1.42246e+06)
(2.13456e+06 -320392 -70134.1 1.33167e+06 -31757.7 1.29632e+06)
(2.27749e+06 -338833 -124936 1.4786e+06 -53273.1 1.52939e+06)
(2.20557e+06 -335750 -101778 1.40806e+06 -50814.7 1.42473e+06)
(1.99272e+06 -329457 -124107 1.21594e+06 -27013.7 1.18788e+06)
(2.14316e+06 -330849 -170372 1.37062e+06 -57320 1.40041e+06)
(2.11323e+06 -333672 -155994 1.34354e+06 -50601.7 1.35289e+06)
(1.85699e+06 -327905 -124230 1.09133e+06 -13862 1.03726e+06)
(2.1356e+06 -286105 -158881 1.33134e+06 -54489.3 1.30374e+06)
(2.14516e+06 -313887 -167262 1.36353e+06 -32364.6 1.35543e+06)
(2.29853e+06 -330376 -39422.3 1.53977e+06 1059.84 1.43325e+06)
(2.30352e+06 -363259 -76591.6 1.55523e+06 -27026.1 1.52392e+06)
(2.462e+06 -312610 -50850.8 1.68265e+06 -6797.73 1.57898e+06)
(2.1988e+06 -359796 -66847.2 1.45765e+06 -30273.1 1.39985e+06)
(2.37644e+06 -379377 -119350 1.64752e+06 -38115.4 1.66179e+06)
(2.37545e+06 -373069 -111736 1.63564e+06 -26408.5 1.64165e+06)
(2.09161e+06 -368979 -118590 1.38267e+06 -13387.2 1.32254e+06)
(2.26945e+06 -375033 -162922 1.57304e+06 -34579.5 1.55918e+06)
(2.2229e+06 -370434 -146764 1.51145e+06 -13966.3 1.48835e+06)
(1.98073e+06 -370442 -118398 1.29284e+06 6775.49 1.19948e+06)
(2.26925e+06 -338063 -152442 1.54173e+06 -24309.1 1.4711e+06)
(2.13377e+06 -342798 -131103 1.41186e+06 -12538.8 1.32052e+06)
(2.99815e+06 -247928 -50361.1 2.1325e+06 -7372.38 2.06953e+06)
(3.04269e+06 -279300 -89658.1 2.17476e+06 -30932.3 2.19158e+06)
(2.8847e+06 -293033 -81985.2 2.02791e+06 -25516.7 2.04434e+06)
(3.02851e+06 -279921 -78827.5 2.15865e+06 -23116.3 2.17264e+06)
(3.15521e+06 -307029 -125652 2.29916e+06 -40870.3 2.38777e+06)
(2.9732e+06 -298458 -91998.6 2.11637e+06 -43636.6 2.15614e+06)
(2.75983e+06 -298207 -130995 1.92838e+06 -16118.5 1.94102e+06)
(2.93201e+06 -306571 -170201 2.11304e+06 -39967.7 2.17135e+06)
(2.79936e+06 -306556 -149054 1.98065e+06 -39513.2 2.0105e+06)
(2.67346e+06 -306265 -132751 1.85531e+06 -18457.7 1.86103e+06)
(2.85912e+06 -285690 -149821 2.02157e+06 -35977 2.04311e+06)
(2.71562e+06 -308354 -141434 1.89759e+06 -21870.3 1.91748e+06)
(2.74213e+06 -236225 -49752.7 1.84321e+06 -7283.31 1.82473e+06)
(2.49516e+06 -228701 -60047.2 1.53214e+06 -50316.4 1.65432e+06)
(2.8673e+06 -254419 -90333.3 1.95922e+06 -5109.49 2.00979e+06)
(2.46287e+06 -228243 -77813.9 1.50177e+06 3841.35 1.618e+06)
(2.29541e+06 -240096 -127276 1.36111e+06 -10739.2 1.47692e+06)
(2.54693e+06 -240194 -124644 1.57837e+06 1041.7 1.78564e+06)
(2.26262e+06 -239204 -131408 1.3318e+06 -713.946 1.44124e+06)
(2.06379e+06 -225468 -160114 1.12691e+06 -36604.7 1.26634e+06)
(2.35874e+06 -234907 -170644 1.42022e+06 -11664.7 1.59611e+06)
(2.04064e+06 -228335 -132978 1.09184e+06 -7534.84 1.22682e+06)
(1.74877e+06 -180295 -116617 776129 -63838.5 888384)
(2.23218e+06 -206703 -149352 1.27104e+06 -20416.6 1.41872e+06)
(4.38098e+06 -168774 -36633.2 3.40508e+06 -5362.75 3.45015e+06)
(3.86293e+06 -137578 -60415.9 2.86554e+06 -23060.9 2.9346e+06)
(4.42037e+06 -146814 -5881.41 3.39012e+06 -17373.4 3.5334e+06)
(4.26158e+06 -140615 -61826.2 3.24217e+06 1114.18 3.36481e+06)
(3.79385e+06 -133719 -106571 2.8112e+06 1128.39 2.86884e+06)
(4.42589e+06 -134139 -51221.9 3.40203e+06 12456 3.52476e+06)
(4.16326e+06 -136982 -98025.9 3.15663e+06 -241.176 3.26636e+06)
(3.73674e+06 -104434 -132273 2.75125e+06 -8669.8 2.81251e+06)
(4.09398e+06 -125683 -82891 3.06619e+06 -9923.45 3.20667e+06)
(4.07374e+06 -107695 -104394 3.05748e+06 -7893.19 3.16845e+06)
(3.53135e+06 -39439.6 -125904 2.55368e+06 -21948.1 2.5635e+06)
(3.54742e+06 -91613.4 -84135.9 2.52478e+06 -46218.9 2.63258e+06)
(-3.83195e+06 -188637 50968.5 -2.88672e+06 18226.1 -2.89635e+06)
(-3.76493e+06 -182322 76777.7 -2.83752e+06 3723.15 -2.8139e+06)
(-3.21764e+06 -171975 35772.3 -2.29802e+06 -16934 -2.23601e+06)
(-4.23862e+06 -188752 58149.4 -3.2785e+06 11430 -3.32127e+06)
(-3.69313e+06 -154550 72721.9 -2.73579e+06 -5572.09 -2.74011e+06)
(-3.75954e+06 -175520 45562.5 -2.84343e+06 -8471.12 -2.78024e+06)
(-4.09705e+06 -158702 77644.2 -3.11399e+06 8892.37 -3.17971e+06)
(-3.32452e+06 -97666.4 72155.5 -2.32651e+06 -15670.1 -2.36942e+06)
(-3.66854e+06 -138511 53113.9 -2.72278e+06 -9822.48 -2.68297e+06)
(-3.52879e+06 -98867 82864 -2.51852e+06 23169.9 -2.5959e+06)
(-3.50579e+06 -106602 54355 -2.56951e+06 -25006 -2.49203e+06)
(-3.19163e+06 -97786.2 82616 -2.2224e+06 7092.25 -2.2109e+06)
(-2.2725e+06 -151380 69904.2 -1.3216e+06 18477.9 -1.30979e+06)
(-1.79466e+06 -137417 79648.9 -863541 -3310.3 -805611)
(-2.40501e+06 -156039 100221 -1.44526e+06 41077 -1.4769e+06)
(-2.28926e+06 -143101 90368.3 -1.31963e+06 18536.6 -1.34849e+06)
(-1.66246e+06 -111012 98469.4 -720146 6171.85 -673745)