/*--------------------------------*- C++ -*----------------------------------*\
| =========                 |                                                 |
| \\      /  F ield         | OpenFOAM: The Open Source CFD Toolbox           |
|  \\    /   O peration     | Version:  v2012                                 |
|   \\  /    A nd           | Website:  www.openfoam.com                      |
|    \\/     M anipulation  |                                                 |
\*---------------------------------------------------------------------------*/
FoamFile
{
    version     2.0;
    format      ascii;
    class       volScalarField;
    location    "1";
    object      sigmaHyd;
}
// * * * * * * * * * * * * * * * * * * * * * * * * * * * * * * * * * * * * * //

dimensions      [1 -1 -2 0 0 0 0];


internalField   nonuniform List<scalar> 
47040
(
-6.26889e+06
-5.78193e+06
-5.78193e+06
-5.78193e+06
-6.06976e+06
-5.28885e+06
-6.06976e+06
-6.05299e+06
-5.23096e+06
-6.05299e+06
-7.46773e+06
-4.80647e+06
-2.5672e+06
-2.49658e+06
-2.98353e+06
-2.07085e+06
-1.86768e+06
-2.36076e+06
-2.29708e+06
-1.58462e+06
-1.96362e+06
-2.51709e+06
-2.22735e+06
-2.67968e+06
-3.83275e+06
-3.59985e+06
-3.59985e+06
-3.17412e+06
-3.50988e+06
-3.50988e+06
-3.50988e+06
-3.17642e+06
-3.50988e+06
-3.74563e+06
-3.65143e+06
-3.74563e+06
-1.65699e+06
-1.86527e+06
-2.09816e+06
-1.43954e+06
-1.65333e+06
-1.91112e+06
-1.97209e+06
-1.66153e+06
-1.63864e+06
-2.12141e+06
-2.04265e+06
-2.26093e+06
-2.22828e+06
-2.2999e+06
-2.2999e+06
-2.2999e+06
-2.06728e+06
-2.2999e+06
-2.38605e+06
-2.05621e+06
-2.38605e+06
-2.51609e+06
-2.6556e+06
-2.51609e+06
-1.10251e+06
-1.3043e+06
-1.23267e+06
-1.3043e+06
-1.10591e+06
-1.07168e+06
-1.30725e+06
-1.04859e+06
-977408
-1.3576e+06
-1.29806e+06
-1.49711e+06
-1.29869e+06
-1.44525e+06
-1.44525e+06
-1.44525e+06
-1.25635e+06
-1.44525e+06
-1.45769e+06
-1.18578e+06
-1.45769e+06
-1.49479e+06
-1.55869e+06
-1.49479e+06
-482491
-581382
-434823
-581382
-358149
-472185
-559486
-372173
-516332
-681182
-575982
-810618
-547872
-639545
-639545
-639545
-622749
-490591
-622749
-579595
-622749
-748768
-878204
-748768
121133
96989.2
188662
95878.3
84029.7
159634
87855
212615
124644
30310.1
305732
165641
108583
86907.4
86907.4
85796.6
78319.1
78319.1
82144.4
48089.1
48089.1
34956.6
-1153.72
-1153.72
742458
809739
831415
699664
798751
806229
656344
816335
850390
564305
942191
978301
759259
829896
829896
719821
824047
824047
681639
836787
836787
584758
945691
945691
1.41387e+06
1.57392e+06
1.50328e+06
1.34649e+06
1.5633e+06
1.45908e+06
1.26415e+06
1.60698e+06
1.45183e+06
1.11064e+06
1.84975e+06
1.48881e+06
1.4636e+06
1.63398e+06
1.63398e+06
1.40655e+06
1.63168e+06
1.63168e+06
1.33253e+06
1.68075e+06
1.68075e+06
1.18441e+06
1.92999e+06
1.92999e+06
2.20234e+06
2.43108e+06
2.2607e+06
2.08217e+06
2.40724e+06
2.18211e+06
1.94574e+06
2.46525e+06
2.11702e+06
1.71551e+06
2.7783e+06
2.03272e+06
2.33153e+06
2.58373e+06
2.58373e+06
2.23483e+06
2.57101e+06
2.57101e+06
2.10951e+06
2.63904e+06
2.63904e+06
1.88931e+06
2.96736e+06
2.96736e+06
3.36027e+06
3.46641e+06
3.2142e+06
3.00398e+06
3.36474e+06
3.02855e+06
2.74144e+06
3.37285e+06
2.84331e+06
2.38941e+06
3.63155e+06
2.5535e+06
3.80646e+06
3.8808e+06
3.8808e+06
3.41838e+06
3.75724e+06
3.75724e+06
3.13394e+06
3.74504e+06
3.74504e+06
2.76161e+06
3.96976e+06
3.96976e+06
5.17654e+06
5.60037e+06
4.92835e+06
5.13794e+06
5.58285e+06
4.97353e+06
4.95955e+06
5.70323e+06
4.76848e+06
4.7198e+06
6.47429e+06
4.23329e+06
-4.08143e+06
-4.64338e+06
-3.57324e+06
-4.90437e+06
-4.61699e+06
-4.34272e+06
-4.47718e+06
-4.82398e+06
-3.98887e+06
-4.06675e+06
-3.10326e+06
-3.22684e+06
-2.22405e+06
-2.03575e+06
-2.54394e+06
-2.14715e+06
-1.76958e+06
-2.33123e+06
-1.86659e+06
-1.53765e+06
-2.02596e+06
-1.52592e+06
-1.07952e+06
-1.51873e+06
-3.12084e+06
-3.52905e+06
-3.08787e+06
-3.19109e+06
-3.59471e+06
-3.46707e+06
-2.96042e+06
-3.35784e+06
-3.22924e+06
-2.61817e+06
-2.18585e+06
-2.4949e+06
-1.51291e+06
-1.79859e+06
-1.83155e+06
-1.49055e+06
-1.75469e+06
-1.54785e+06
-1.34484e+06
-1.74608e+06
-1.26224e+06
-1.33542e+06
-1.15815e+06
-1.28143e+06
-2.15418e+06
-2.4237e+06
-2.29353e+06
-2.11565e+06
-2.44835e+06
-2.34042e+06
-1.92108e+06
-2.44447e+06
-2.28034e+06
-1.88294e+06
-1.71947e+06
-1.58032e+06
-979891
-1.16915e+06
-1.0298e+06
-952477
-1.19975e+06
-783847
-914354
-1.23562e+06
-632537
-972321
-784370
-486181
-1.30157e+06
-1.45228e+06
-1.49995e+06
-1.23561e+06
-1.45601e+06
-1.59928e+06
-1.17062e+06
-1.47589e+06
-1.53113e+06
-1.2126e+06
-1.03851e+06
-1.4928e+06
-445685
-554430
-356050
-436653
-601013
-237338
-449263
-527047
-166533
-437080
-221775
58428.7
-593592
-686253
-753781
-568476
-732181
-795937
-580431
-658477
-909257
-568510
-324579
-1.03735e+06
113290
96291
256480
107281
86649.3
314110
84793.6
83992.3
412819
42041.9
121867
590706
53157.7
41616.1
-47340.5
52606.3
31574.4
-74991.1
29718.7
39491.7
-154555
-2458.79
99513.5
-314482
697746
762685
863183
670504
756437
884034
622897
748308
932581
561904
734360
1.04638e+06
683393
747165
657752
654984
738700
626114
605160
728827
541142
542423
710897
332724
1.34148e+06
1.47332e+06
1.49896e+06
1.28346e+06
1.46434e+06
1.49321e+06
1.20351e+06
1.43346e+06
1.49748e+06
1.10993e+06
1.33087e+06
1.54057e+06
1.3414e+06
1.46452e+06
1.40616e+06
1.27466e+06
1.45301e+06
1.35308e+06
1.19218e+06
1.42083e+06
1.24955e+06
1.0973e+06
1.31651e+06
999293
2.11089e+06
2.26361e+06
2.19885e+06
1.99093e+06
2.25083e+06
2.17241e+06
1.8663e+06
2.17768e+06
2.12031e+06
1.72331e+06
1.95123e+06
2.04924e+06
1.98805e+06
2.18117e+06
2.32725e+06
1.90849e+06
2.19676e+06
2.17219e+06
1.81224e+06
2.15186e+06
2.04999e+06
1.6975e+06
1.98074e+06
1.81666e+06
3.12717e+06
3.3317e+06
2.9925e+06
3.03882e+06
3.32388e+06
3.06018e+06
2.83706e+06
3.1739e+06
2.93615e+06
2.61511e+06
2.78369e+06
2.66453e+06
2.69906e+06
2.64116e+06
2.88934e+06
2.33568e+06
2.44319e+06
2.6076e+06
2.11682e+06
2.24041e+06
2.43148e+06
1.8888e+06
1.55609e+06
2.0426e+06
4.15848e+06
3.87164e+06
4.23504e+06
3.97647e+06
3.78115e+06
4.13036e+06
3.84291e+06
3.68602e+06
3.90711e+06
3.73088e+06
3.31993e+06
3.34788e+06
-3.59711e+06
-3.72937e+06
-3.13398e+06
-3.84077e+06
-3.52319e+06
-3.44641e+06
-3.6202e+06
-3.12195e+06
-3.3266e+06
-3.11022e+06
-3.0735e+06
-2.91393e+06
-2.00458e+06
-1.78966e+06
-2.25279e+06
-1.95683e+06
-1.64081e+06
-2.03517e+06
-1.84043e+06
-1.47448e+06
-1.76808e+06
-1.68488e+06
-1.04655e+06
-1.24284e+06
-2.68551e+06
-2.98449e+06
-2.66584e+06
-2.73104e+06
-2.90315e+06
-2.84584e+06
-2.63717e+06
-2.70217e+06
-2.78478e+06
-2.45189e+06
-2.19719e+06
-2.25119e+06
-1.39631e+06
-1.57248e+06
-1.59215e+06
-1.36649e+06
-1.49689e+06
-1.38208e+06
-1.28356e+06
-1.35972e+06
-1.21212e+06
-1.21171e+06
-918485
-1.11919e+06
-1.97524e+06
-2.15527e+06
-2.10536e+06
-1.94928e+06
-2.06321e+06
-2.23184e+06
-1.84988e+06
-1.891e+06
-2.17282e+06
-1.74299e+06
-1.40495e+06
-1.89109e+06
-894071
-1.01671e+06
-886583
-872121
-995110
-712553
-844342
-905860
-582919
-826380
-627308
-479202
-1.25497e+06
-1.35914e+06
-1.44877e+06
-1.21455e+06
-1.31325e+06
-1.51256e+06
-1.16248e+06
-1.2051e+06
-1.48783e+06
-1.12562e+06
-908838
-1.40435e+06
-399502
-461022
-267223
-388824
-453468
-155458
-386720
-388967
-63614.2
-376770
-230886
47840.9
-601179
-649652
-792842
-577453
-631493
-838322
-564745
-556422
-884447
-544225
-380538
-929203
119991
122100
313763
118322
122417
383285
103705
136452
456155
90680.8
163072
548049
10774.9
17173.5
-148264
13394.9
20812.2
-192718
2100.35
40768.1
-268917
-5003.16
77050
-407429
673903
730309
889347
654145
721284
927397
618959
695709
966726
588139
618997
1.02142e+06
602888
656499
499026
580335
647324
437576
545000
621606
327636
514036
542914
112274
1.29057e+06
1.38291e+06
1.48677e+06
1.24241e+06
1.3615e+06
1.50426e+06
1.18028e+06
1.28725e+06
1.50461e+06
1.12289e+06
1.09398e+06
1.49574e+06
1.18322e+06
1.27893e+06
1.19097e+06
1.13844e+06
1.26026e+06
1.07878e+06
1.07903e+06
1.18851e+06
934501
1.02415e+06
991780
665851
2.02984e+06
2.13546e+06
2.1277e+06
1.94741e+06
2.08805e+06
2.14771e+06
1.84014e+06
1.9492e+06
2.09373e+06
1.73683e+06
1.61665e+06
1.97495e+06
1.68727e+06
1.80956e+06
1.94423e+06
1.62151e+06
1.77699e+06
1.75563e+06
1.52908e+06
1.66372e+06
1.56462e+06
1.45135e+06
1.3614e+06
1.31199e+06
2.80917e+06
2.94853e+06
2.69157e+06
2.76539e+06
2.91182e+06
2.7777e+06
2.61196e+06
2.71034e+06
2.6748e+06
2.43408e+06
2.25984e+06
2.3992e+06
2.1633e+06
2.12052e+06
2.30415e+06
2.01454e+06
1.98444e+06
2.1519e+06
1.88876e+06
1.77356e+06
1.9677e+06
1.775e+06
1.28285e+06
1.59807e+06
3.53898e+06
3.28312e+06
3.54149e+06
3.4308e+06
3.20895e+06
3.44343e+06
3.34768e+06
3.08766e+06
3.25256e+06
3.25729e+06
2.68271e+06
2.91025e+06
-3.21003e+06
-3.10947e+06
-2.81441e+06
-3.27664e+06
-2.94716e+06
-2.95348e+06
-3.14677e+06
-2.6909e+06
-2.90448e+06
-2.90131e+06
-2.5138e+06
-2.69865e+06
-1.84735e+06
-1.60188e+06
-1.99751e+06
-1.83207e+06
-1.51477e+06
-1.83793e+06
-1.77012e+06
-1.38766e+06
-1.62994e+06
-1.66667e+06
-1.09353e+06
-1.29619e+06
-2.37435e+06
-2.55818e+06
-2.36235e+06
-2.41154e+06
-2.49113e+06
-2.47554e+06
-2.35884e+06
-2.32386e+06
-2.3953e+06
-2.23873e+06
-1.97797e+06
-2.07049e+06
-1.30419e+06
-1.40068e+06
-1.41269e+06
-1.28619e+06
-1.3288e+06
-1.26481e+06
-1.23143e+06
-1.18627e+06
-1.14981e+06
-1.15139e+06
-903333
-1.07157e+06
-1.80162e+06
-1.90689e+06
-1.91438e+06
-1.79239e+06
-1.83017e+06
-1.98974e+06
-1.7328e+06
-1.67183e+06
-1.93325e+06
-1.63695e+06
-1.37597e+06
-1.72315e+06
-825009
-885569
-772817
-811429
-847152
-649803
-785177
-752342
-551894
-742787
-571472
-485266
-1.1833e+06
-1.23522e+06
-1.3675e+06
-1.16108e+06
-1.18157e+06
-1.41494e+06
-1.11959e+06
-1.07026e+06
-1.39337e+06
-1.0607e+06
-876091
-1.3007e+06
-355941
-378111
-193909
-348923
-359619
-105768
-340388
-306066
-32294.2
-317978
-216680
23317
-588116
-601685
-795457
-572497
-572588
-837551
-553356
-508233
-860683
-520145
-408850
-866218
134105
148055
355395
132517
150525
415580
126167
158787
466114
129160
153911
499984
-19517.4
-2199.07
-217643
-17736.2
4993.16
-268259
-19364.8
18047.4
-329720
-11579.6
16785
-416499
660647
701385
899511
644849
687741
938264
621157
650268
960623
603802
552437
957357
527337
568418
372216
511883
556139
294289
489554
519654
195321
473187
418938
46083.3
1.24873e+06
1.30013e+06
1.45525e+06
1.21026e+06
1.26424e+06
1.48183e+06
1.16137e+06
1.17459e+06
1.46882e+06
1.11464e+06
977285
1.40439e+06
1.03914e+06
1.09693e+06
999061
1.00706e+06
1.06757e+06
867265
964700
984841
731248
924891
789826
551704
1.90496e+06
1.9612e+06
2.00128e+06
1.85185e+06
1.89869e+06
2.03848e+06
1.76811e+06
1.75145e+06
1.9849e+06
1.6765e+06
1.458e+06
1.83118e+06
1.49276e+06
1.55118e+06
1.66878e+06
1.44184e+06
1.4982e+06
1.48589e+06
1.36762e+06
1.37255e+06
1.30972e+06
1.2976e+06
1.09755e+06
1.13244e+06
2.52599e+06
2.60193e+06
2.42591e+06
2.50003e+06
2.54761e+06
2.50356e+06
2.39453e+06
2.36411e+06
2.42201e+06
2.24803e+06
2.00334e+06
2.1685e+06
1.90201e+06
1.80622e+06
1.9907e+06
1.84891e+06
1.70749e+06
1.89396e+06
1.78219e+06
1.5346e+06
1.74106e+06
1.70697e+06
1.25333e+06
1.47427e+06
3.18116e+06
2.94068e+06
3.09382e+06
3.11792e+06
2.86919e+06
3.01302e+06
3.05736e+06
2.74277e+06
2.87643e+06
2.96386e+06
2.43777e+06
2.70013e+06
-2.91013e+06
-2.6891e+06
-2.56921e+06
-2.91928e+06
-2.58436e+06
-2.63928e+06
-2.83971e+06
-2.41566e+06
-2.61745e+06
-2.69467e+06
-2.22824e+06
-2.49888e+06
-1.72264e+06
-1.45632e+06
-1.79724e+06
-1.72701e+06
-1.40697e+06
-1.68698e+06
-1.68996e+06
-1.31143e+06
-1.53369e+06
-1.60521e+06
-1.12881e+06
-1.3246e+06
-2.14052e+06
-2.23937e+06
-2.13088e+06
-2.17434e+06
-2.18935e+06
-2.21073e+06
-2.1443e+06
-2.06243e+06
-2.14405e+06
-2.05652e+06
-1.83912e+06
-1.91894e+06
-1.22472e+06
-1.26519e+06
-1.27483e+06
-1.21679e+06
-1.2045e+06
-1.16811e+06
-1.17846e+06
-1.09151e+06
-1.09176e+06
-1.10723e+06
-913123
-1.0507e+06
-1.64937e+06
-1.69872e+06
-1.75091e+06
-1.65032e+06
-1.63855e+06
-1.80018e+06
-1.61251e+06
-1.5195e+06
-1.75278e+06
-1.53521e+06
-1.33819e+06
-1.59571e+06
-766043
-784367
-682828
-759220
-746774
-596915
-736234
-671073
-530802
-689823
-559289
-498789
-1.10587e+06
-1.12053e+06
-1.28256e+06
-1.09538e+06
-1.07421e+06
-1.31736e+06
-1.06367e+06
-988126
-1.29622e+06
-1.00688e+06
-869480
-1.21078e+06
-316756
-315462
-138772
-313512
-297536
-75558
-303104
-259669
-27117.6
-276610
-214264
-10365.4
-564740
-558012
-779303
-556063
-532111
-815173
-537678
-486302
-826249
-503244
-435862
-806686
149417
165515
380078
146797
166005
425115
145147
164767
453338
152325
141918
445361
-40177.5
-21191.9
-260055
-39910.3
-16526.8
-309941
-37384.5
-14097.5
-353564
-26539.6
-36216
-389771
649490
671235
891113
636070
653369
923400
619278
611126
927305
604282
518794
882025
461211
485407
278891
450242
470377
198805
436285
430256
122801
423412
335966
46215.6
1.1953e+06
1.21357e+06
1.39589e+06
1.16786e+06
1.17278e+06
1.42422e+06
1.12951e+06
1.08616e+06
1.39964e+06
1.08499e+06
925287
1.30248e+06
926534
948875
852557
903169
915048
728418
871779
836423
619638
835257
677988
523308
1.77076e+06
1.78763e+06
1.86161e+06
1.73863e+06
1.72676e+06
1.90151e+06
1.67725e+06
1.59832e+06
1.85046e+06
1.59529e+06
1.37904e+06
1.69099e+06
1.35925e+06
1.37086e+06
1.47094e+06
1.32186e+06
1.31512e+06
1.31159e+06
1.26561e+06
1.20209e+06
1.17461e+06
1.19906e+06
991320
1.07085e+06
2.30495e+06
2.32805e+06
2.21636e+06
2.28688e+06
2.27257e+06
2.28284e+06
2.21357e+06
2.12442e+06
2.21542e+06
2.09285e+06
1.86692e+06
1.99514e+06
1.73381e+06
1.58617e+06
1.77559e+06
1.72685e+06
1.51628e+06
1.71679e+06
1.69353e+06
1.39432e+06
1.60364e+06
1.6359e+06
1.23869e+06
1.43573e+06
2.93612e+06
2.70839e+06
2.78082e+06
2.90069e+06
2.64215e+06
2.72125e+06
2.85395e+06
2.53375e+06
2.634e+06
2.76733e+06
2.32239e+06
2.5369e+06
-2.67166e+06
-2.39397e+06
-2.37233e+06
-2.66467e+06
-2.33206e+06
-2.413e+06
-2.61506e+06
-2.22539e+06
-2.40393e+06
-2.51918e+06
-2.08318e+06
-2.32711e+06
-1.61567e+06
-1.34015e+06
-1.63948e+06
-1.62973e+06
-1.31414e+06
-1.5658e+06
-1.60505e+06
-1.24854e+06
-1.45967e+06
-1.53477e+06
-1.14514e+06
-1.3372e+06
-1.95698e+06
-1.99906e+06
-1.94895e+06
-1.98864e+06
-1.96428e+06
-2.01296e+06
-1.97274e+06
-1.87672e+06
-1.96341e+06
-1.90784e+06
-1.74278e+06
-1.7993e+06
-1.15252e+06
-1.15717e+06
-1.1652e+06
-1.15107e+06
-1.1102e+06
-1.08588e+06
-1.12435e+06
-1.03048e+06
-1.03981e+06
-1.06711e+06
-925009
-1.03354e+06
-1.51837e+06
-1.53078e+06
-1.61399e+06
-1.52467e+06
-1.48647e+06
-1.64878e+06
-1.50062e+06
-1.40531e+06
-1.61074e+06
-1.44194e+06
-1.30045e+06
-1.49149e+06
-713794
-707652
-612029
-711731
-677244
-553136
-693268
-624533
-514418
-652667
-560699
-511148
-1.03128e+06
-1.02372e+06
-1.2017e+06
-1.02779e+06
-988544
-1.2265e+06
-1.00457e+06
-930276
-1.20626e+06
-958410
-864017
-1.13026e+06
-281886
-270220
-99800.9
-282033
-257201
-58497.5
-272621
-234813
-33119.4
-249562
-215632
-43780.2
-536974
-521627
-752288
-533439
-503005
-781324
-518425
-475581
-783771
-490330
-454683
-747719
162382
173962
389277
158330
170911
418795
158097
162352
427698
162861
135554
392942
-53766.4
-39516.6
-281139
-55148.9
-39229.4
-326559
-52043.1
-45384.4
-353412
-44875.5
-73124.8
-350868
632992
637929
865302
622440
618444
889854
609898
578156
879524
593473
505524
811516
407571
414799
214203
399310
398140
141786
389594
359891
89759.9
375208
284809
67319.4
1.13323e+06
1.12793e+06
1.32129e+06
1.11528e+06
1.09002e+06
1.34755e+06
1.08708e+06
1.01695e+06
1.31679e+06
1.04461e+06
902318
1.21021e+06
840139
835450
744603
822803
802295
639418
799347
735267
562056
762927
619823
524125
1.64618e+06
1.63371e+06
1.72924e+06
1.62574e+06
1.58297e+06
1.76635e+06
1.58363e+06
1.48219e+06
1.71948e+06
1.51293e+06
1.33378e+06
1.57258e+06
1.25687e+06
1.23642e+06
1.32501e+06
1.22846e+06
1.18758e+06
1.19162e+06
1.18824e+06
1.09648e+06
1.09463e+06
1.12722e+06
948589
1.04631e+06
2.13012e+06
2.11482e+06
2.04668e+06
2.11427e+06
2.06789e+06
2.10473e+06
2.06432e+06
1.95587e+06
2.04948e+06
1.96495e+06
1.78197e+06
1.86288e+06
1.60701e+06
1.42271e+06
1.61278e+06
1.62031e+06
1.37705e+06
1.584e+06
1.60772e+06
1.2975e+06
1.50746e+06
1.56081e+06
1.21997e+06
1.41377e+06
2.74672e+06
2.53242e+06
2.54875e+06
2.72849e+06
2.47451e+06
2.50724e+06
2.6929e+06
2.38984e+06
2.45513e+06
2.6172e+06
2.24969e+06
2.39695e+06
-2.47498e+06
-2.17622e+06
-2.20731e+06
-2.4658e+06
-2.14389e+06
-2.23404e+06
-2.43479e+06
-2.08097e+06
-2.23153e+06
-2.3672e+06
-1.99086e+06
-2.17877e+06
-1.51927e+06
-1.24461e+06
-1.51228e+06
-1.5373e+06
-1.2341e+06
-1.46586e+06
-1.52e+06
-1.19398e+06
-1.39724e+06
-1.46327e+06
-1.14419e+06
-1.33262e+06
-1.80634e+06
-1.81343e+06
-1.80074e+06
-1.83609e+06
-1.792e+06
-1.85719e+06
-1.82988e+06
-1.73742e+06
-1.82195e+06
-1.78334e+06
-1.66463e+06
-1.6982e+06
-1.08582e+06
-1.06932e+06
-1.07491e+06
-1.08778e+06
-1.03503e+06
-1.01393e+06
-1.06936e+06
-983791
-991722
-1.02665e+06
-927298
-1.01244e+06
-1.40527e+06
-1.39553e+06
-1.49729e+06
-1.41398e+06
-1.36484e+06
-1.52343e+06
-1.39917e+06
-1.31416e+06
-1.49301e+06
-1.35702e+06
-1.25922e+06
-1.40074e+06
-666455
-648236
-556215
-667754
-626216
-516765
-653788
-594129
-500288
-622858
-561708
-517994
-962652
-943703
-1.12579e+06
-963220
-918814
-1.14235e+06
-946386
-883843
-1.12334e+06
-912572
-851333
-1.05712e+06
-250610
-237012
-73876.1
-254135
-230421
-51292.2
-247421
-221576
-44617.2
-231623
-216461
-71917.5
-507671
-491091
-717985
-508214
-479938
-740403
-496938
-467850
-737451
-477898
-463196
-693277
171976
176046
386360
166175
168799
400989
165064
155502
396015
164602
133157
348537
-60954.4
-54317.6
-286627
-64188.9
-58903.1
-326317
-62638.3
-71096.7
-340723
-61996.5
-96228.6
-314272
611106
602442
828115
602645
583198
845325
593801
549686
827771
574766
501960
754236
366054
358622
170556
358825
340613
108345
351217
307537
77829.5
332617
255373
89775.6
1.06774e+06
1.04681e+06
1.2423e+06
1.05544e+06
1.01661e+06
1.26709e+06
1.0392e+06
960387
1.23377e+06
998300
890779
1.13362e+06
770901
747790
664730
756426
719001
578389
741584
665376
529527
703290
591499
531845
1.53526e+06
1.50031e+06
1.60648e+06
1.51746e+06
1.46449e+06
1.64253e+06
1.49369e+06
1.39071e+06
1.60277e+06
1.43326e+06
1.3019e+06
1.47334e+06
1.17255e+06
1.12863e+06
1.21208e+06
1.14578e+06
1.09232e+06
1.10187e+06
1.12152e+06
1.02325e+06
1.03809e+06
1.0658e+06
929631
1.0317e+06
1.98548e+06
1.94361e+06
1.90408e+06
1.96684e+06
1.91159e+06
1.9555e+06
1.93776e+06
1.83033e+06
1.91375e+06
1.85562e+06
1.71977e+06
1.75387e+06
1.50245e+06
1.29454e+06
1.48175e+06
1.52005e+06
1.2703e+06
1.47879e+06
1.52372e+06
1.22228e+06
1.4315e+06
1.48473e+06
1.19643e+06
1.39072e+06
2.58747e+06
2.38677e+06
2.36616e+06
2.57982e+06
2.33798e+06
2.33717e+06
2.55359e+06
2.27605e+06
2.30868e+06
2.48879e+06
2.18481e+06
2.27108e+06
-2.30627e+06
-2.00597e+06
-2.06322e+06
-2.29865e+06
-1.99351e+06
-2.08179e+06
-2.27941e+06
-1.96055e+06
-2.08331e+06
-2.22985e+06
-1.91189e+06
-2.04678e+06
-1.42946e+06
-1.16325e+06
-1.4063e+06
-1.44849e+06
-1.16394e+06
-1.3808e+06
-1.43719e+06
-1.14339e+06
-1.3395e+06
-1.3925e+06
-1.12888e+06
-1.31195e+06
-1.67682e+06
-1.66455e+06
-1.67545e+06
-1.70481e+06
-1.65499e+06
-1.72883e+06
-1.70643e+06
-1.62526e+06
-1.7029e+06
-1.67465e+06
-1.59222e+06
-1.60644e+06
-1.02529e+06
-996115
-997486
-1.02786e+06
-970941
-946914
-1.01387e+06
-941692
-945219
-983791
-917065
-985277
-1.30716e+06
-1.28456e+06
-1.3948e+06
-1.31631e+06
-1.26414e+06
-1.41513e+06
-1.30707e+06
-1.23619e+06
-1.38969e+06
-1.27829e+06
-1.21282e+06
-1.31768e+06
-622634
-600668
-513021
-627152
-584787
-485970
-616171
-569757
-487128
-594994
-558016
-518628
-900218
-877433
-1.05417e+06
-903917
-858925
-1.06177e+06
-890309
-841953
-1.04476e+06
-867190
-830669
-990375
-222889
-210632
-56684
-228785
-209701
-51849.6
-225807
-214092
-59644.8
-218046
-217679
-94494.4
-478036
-463657
-678041
-481810
-457944
-692758
-474049
-459210
-690160
-463164
-464265
-648199
180302
176129
376134
172725
163236
374183
167049
144881
360992
159649
130087
315122
-62457.9
-62812.4
-279822
-66216.5
-72908.7
-315589
-69096.1
-90711.8
-324682
-75943.6
-110813
-290283
587303
569871
787235
577109
545766
795138
572606
520014
775599
544752
505407
719746
335255
318205
143640
325442
293974
82320
320814
265802
71225.9
290540
243371
108050
1.00495e+06
966859
1.15847e+06
987544
953190
1.19631e+06
989883
908960
1.15855e+06
944927
885712
1.0682e+06
714586
673488
602270
694172
657207
532133
693900
611316
502235
647282
582601
542514
1.43813e+06
1.38103e+06
1.49335e+06
1.41023e+06
1.36383e+06
1.52587e+06
1.40718e+06
1.31321e+06
1.50488e+06
1.35603e+06
1.27626e+06
1.38103e+06
1.10385e+06
1.03543e+06
1.11683e+06
1.06463e+06
1.01489e+06
1.02622e+06
1.05824e+06
965976
989982
1.0088e+06
918519
1.02027e+06
1.85732e+06
1.79705e+06
1.78406e+06
1.83089e+06
1.78657e+06
1.82497e+06
1.82672e+06
1.73133e+06
1.79959e+06
1.76133e+06
1.66768e+06
1.65621e+06
1.40755e+06
1.18611e+06
1.36945e+06
1.42059e+06
1.18414e+06
1.39167e+06
1.44317e+06
1.15881e+06
1.36521e+06
1.41128e+06
1.16903e+06
1.36161e+06
2.44321e+06
2.25612e+06
2.21304e+06
2.44418e+06
2.21781e+06
2.19212e+06
2.42642e+06
2.1764e+06
2.17945e+06
2.37264e+06
2.11512e+06
2.1539e+06
-2.15632e+06
-1.8648e+06
-1.93286e+06
-2.15004e+06
-1.86503e+06
-1.94471e+06
-2.13828e+06
-1.85171e+06
-1.94989e+06
-2.10082e+06
-1.83133e+06
-1.92536e+06
-1.34211e+06
-1.08999e+06
-1.31346e+06
-1.36105e+06
-1.10187e+06
-1.3072e+06
-1.35812e+06
-1.09407e+06
-1.28245e+06
-1.32264e+06
-1.1023e+06
-1.27776e+06
-1.55899e+06
-1.5384e+06
-1.56621e+06
-1.58582e+06
-1.54184e+06
-1.62279e+06
-1.59656e+06
-1.5282e+06
-1.59685e+06
-1.57583e+06
-1.51999e+06
-1.5185e+06
-974680
-936359
-929148
-975951
-910579
-873610
-956312
-898742
-898451
-936845
-895377
-952710
-1.22398e+06
-1.19283e+06
-1.30244e+06
-1.23242e+06
-1.17493e+06
-1.31611e+06
-1.22066e+06
-1.16474e+06
-1.29378e+06
-1.20284e+06
-1.16152e+06
-1.23789e+06
-577831
-563179
-484714
-589070
-547283
-463595
-579210
-544664
-471542
-564381
-550482
-515434
-838107
-823746
-989950
-849636
-803858
-980794
-835786
-800441
-966602
-820157
-804729
-928281
-204913
-189834
-37990.2
-202021
-186975
-55816.5
-206776
-205137
-74320.1
-201230
-227182
-119058
-455225
-438069
-633901
-450257
-432259
-633717
-452060
-445470
-639413
-441563
-466266
-621739
188473
184538
363215
185417
154672
338132
167109
134495
321848
147129
115116
295292
-58684.3
-59665.5
-259598
-58786.6
-82708.3
-300738
-70271.5
-102542
-305535
-89908.7
-124222
-299216
562588
542866
743780
558917
522717
764668
546049
454448
689712
465009
535039
744346
308865
288396
134871
304448
269884
61115.9
293216
205184
36518.9
215746
262522
139247
975166
876750
1.05074e+06
899904
892337
1.13567e+06
926544
864066
1.12076e+06
894076
887315
963814
690317
595097
539880
618251
606198
490555
640406
573584
475890
603594
584477
559484
1.3494e+06
1.26319e+06
1.41363e+06
1.29016e+06
1.27693e+06
1.40462e+06
1.32045e+06
1.24073e+06
1.40524e+06
1.29097e+06
1.25321e+06
1.29732e+06
1.04438e+06
951452
1.02471e+06
978414
953709
959628
997235
908226
935359
958467
906859
1.01198e+06
1.72334e+06
1.66735e+06
1.68702e+06
1.6986e+06
1.67784e+06
1.69662e+06
1.72581e+06
1.64943e+06
1.7113e+06
1.69154e+06
1.62007e+06
1.56656e+06
1.30714e+06
1.08862e+06
1.26823e+06
1.31844e+06
1.10806e+06
1.31094e+06
1.36591e+06
1.10175e+06
1.30228e+06
1.35354e+06
1.14248e+06
1.32887e+06
2.3011e+06
2.12712e+06
2.0745e+06
2.3122e+06
2.10986e+06
2.06251e+06
2.30788e+06
2.08307e+06
2.05794e+06
2.27906e+06
2.05792e+06
2.04576e+06
-2.01975e+06
-1.7416e+06
-1.81168e+06
-2.01266e+06
-1.74852e+06
-1.81607e+06
-2.00477e+06
-1.74738e+06
-1.82588e+06
-1.97595e+06
-1.74447e+06
-1.81058e+06
-1.25072e+06
-1.01075e+06
-1.21882e+06
-1.26984e+06
-1.05267e+06
-1.24926e+06
-1.28618e+06
-1.04559e+06
-1.22449e+06
-1.25437e+06
-1.06707e+06
-1.23244e+06
-1.445e+06
-1.41789e+06
-1.46342e+06
-1.47154e+06
-1.4505e+06
-1.55284e+06
-1.49801e+06
-1.43861e+06
-1.49647e+06
-1.4833e+06
-1.44546e+06
-1.42959e+06
-918074
-919990
-901567
-948749
-834575
-753275
-881666
-853209
-854750
-885540
-864147
-917854
-1.14109e+06
-1.14507e+06
-1.23819e+06
-1.17383e+06
-1.07562e+06
-1.2011e+06
-1.12272e+06
-1.09585e+06
-1.20351e+06
-1.12818e+06
-1.10643e+06
-1.15538e+06
-556734
-521036
-423936
-544180
-520073
-492806
-545835
-511600
-430803
-527969
-540200
-512996
-791257
-761990
-928913
-785134
-762077
-908282
-787839
-756156
-888612
-772526
-777508
-859680
-198492
-168517
-30861.1
-178414
-180380
-57232.6
-180555
-152058
-51284.6
-160678
-276648
-189494
-438740
-413148
-587890
-423045
-419261
-571976
-419436
-387983
-542722
-396603
-501825
-649988
174793
220505
369655
224223
149938
298870
166730
95914.8
219201
334437
132899
139749
-70891.6
-26157.2
-207349
-22438.9
-84902.1
-290653
-68110.9
-124383
-268046
-382296
-136514
-117232
524911
514355
650813
778160
518448
520202
779223
579020
522426
591773
518395
335470
275597
271018
195441
15720.8
269803
269682
7887.15
307491
250132
67317.8
44963.2
301267
914200
991266
1.07142e+06
994793
1.13162e+06
893339
869702
1.05824e+06
846213
818064
832890
627537
634592
704152
639922
462171
602299
703754
346180
558939
582428
310030
327182
517709
1.29974e+06
1.35232e+06
1.34699e+06
1.34758e+06
1.47851e+06
1.25843e+06
1.22239e+06
1.41964e+06
1.2053e+06
1.17074e+06
1.21235e+06
991212
1.00367e+06
1.05683e+06
1.09314e+06
840649
949671
1.03882e+06
701218
893425
910518
625721
648309
827833
1.66535e+06
1.66047e+06
1.57099e+06
1.64241e+06
1.79398e+06
1.58988e+06
1.54552e+06
1.75443e+06
1.5536e+06
1.48672e+06
1.63408e+06
1.41414e+06
1.27057e+06
1.11421e+06
1.29185e+06
1.29928e+06
1.02055e+06
1.2433e+06
1.21857e+06
988522
1.21308e+06
1.18451e+06
879977
1.09817e+06
2.16277e+06
2.01875e+06
1.95821e+06
2.18294e+06
1.99499e+06
1.96019e+06
2.17768e+06
1.96865e+06
1.95312e+06
2.16879e+06
1.9438e+06
1.95059e+06
-1.89155e+06
-1.62645e+06
-1.69661e+06
-1.88554e+06
-1.6386e+06
-1.69895e+06
-1.87211e+06
-1.64391e+06
-1.70781e+06
-1.85268e+06
-1.65049e+06
-1.69994e+06
-1.18937e+06
-937836
-1.13277e+06
-1.12186e+06
-994686
-1.22216e+06
-1.21962e+06
-998929
-1.16323e+06
-1.19161e+06
-1.02381e+06
-1.17655e+06
-1.36706e+06
-1.31303e+06
-1.32954e+06
-1.52448e+06
-1.40946e+06
-1.30916e+06
-1.41122e+06
-1.3467e+06
-1.37362e+06
-1.39689e+06
-1.36564e+06
-1.33332e+06
-836810
-784436
-821953
-819868
-688555
-862990
-896284
-825006
-862603
-849517
-823085
-886649
-1.04497e+06
-995258
-1.12806e+06
-1.03069e+06
-1.06986e+06
-1.12123e+06
-1.10522e+06
-1.04075e+06
-1.15578e+06
-1.06526e+06
-1.04814e+06
-1.06312e+06
-512873
-492926
-409835
-511548
-503007
-412466
-518731
-495613
-445055
-514216
-497143
-499284
-728376
-705666
-873296
-724287
-727125
-848306
-742849
-721022
-850292
-739624
-738508
-709693
-172729
-177232
-32311.9
-177191
-188611
-64591.6
-182131
-193330
-85886.9
-190381
-108453
-138385
-394008
-396647
-591509
-396607
-419260
-493907
-412781
-441471
-493943
-438522
-508272
-345711
150411
107554
305055
130930
153104
250405
171395
182360
263522
182350
152147
254047
-85503.7
-138866
-264768
-115490
-321332
-79018.4
-61579.8
-293387
-34319
-24026.2
-103723
-31293.1
508715
476559
655824
500419
463454
660278
494492
407087
640131
463917
519831
527098
265984
236863
79641.4
260723
220984
112408
252023
154569
97167.8
211399
262440
182999
851906
785310
971653
828287
793611
941927
845364
766573
921428
825510
836214
864614
589474
515584
468326
558561
524300
434814
576052
495509
440501
554446
564670
527316
1.20336e+06
1.12759e+06
1.24874e+06
1.18028e+06
1.1282e+06
1.25195e+06
1.18901e+06
1.09511e+06
1.23066e+06
1.16092e+06
1.13579e+06
1.16292e+06
915418
827533
921894
880216
838550
801941
899357
811357
816940
877166
854903
854849
1.56161e+06
1.49561e+06
1.48913e+06
1.55734e+06
1.46792e+06
1.54619e+06
1.53407e+06
1.43136e+06
1.51378e+06
1.49005e+06
1.3929e+06
1.41522e+06
1.18732e+06
1.00035e+06
1.14246e+06
1.2306e+06
980202
1.15575e+06
1.22374e+06
961089
1.13905e+06
1.20037e+06
947705
1.14159e+06
2.04986e+06
1.90995e+06
1.83268e+06
2.06302e+06
1.88789e+06
1.83882e+06
2.05834e+06
1.86885e+06
1.84079e+06
2.03936e+06
1.84942e+06
1.84121e+06
-1.76293e+06
-1.51982e+06
-1.58604e+06
-1.7525e+06
-1.52825e+06
-1.59696e+06
-1.75318e+06
-1.54086e+06
-1.59211e+06
-1.73355e+06
-1.55105e+06
-1.58999e+06
-1.11438e+06
-927225
-1.10411e+06
-1.15288e+06
-901623
-1.05716e+06
-1.10352e+06
-935818
-1.09689e+06
-1.11075e+06
-968404
-1.11196e+06
-1.27859e+06
-1.26982e+06
-1.28468e+06
-1.31577e+06
-1.21896e+06
-1.38207e+06
-1.27866e+06
-1.25979e+06
-1.29347e+06
-1.29561e+06
-1.27622e+06
-1.23909e+06
-789318
-766109
-760018
-792662
-775366
-709062
-801492
-772239
-757430
-813714
-779201
-835723
-979772
-959593
-1.06263e+06
-986146
-968344
-1.06742e+06
-994470
-968463
-1.04214e+06
-1.00994e+06
-976379
-991311
-477518
-467307
-384449
-482133
-467061
-385782
-484483
-464067
-416398
-487824
-448455
-467081
-680390
-670479
-810896
-685305
-671870
-784470
-689293
-672100
-768344
-695857
-660553
-712549
-164396
-168320
-37813.6
-169731
-158256
-59091.8
-165024
-158791
-79739.9
-171479
-138963
-122271
-372891
-376925
-531569
-378336
-372336
-491811
-379104
-380126
-472253
-392813
-357141
-428838
148901
131546
290225
139913
147606
261081
146723
143235
236384
153567
166608
202632
-73034.2
-93276.9
-240386
-84910.5
-75812
-235671
-76695.1
-75468.7
-221107
-65137.2
-58134.5
-121316
476753
443669
611021
469445
444794
595554
470842
427582
571994
455532
456742
512921
244100
209543
89796.5
235319
210631
96991.3
236679
190445
114381
218395
210008
170904
797894
748068
902372
788547
749783
888111
789749
735919
858217
779849
757672
805163
550433
496753
451376
537231
496472
424798
536438
478201
436551
522131
489254
487255
1.12736e+06
1.06887e+06
1.16793e+06
1.1193e+06
1.06112e+06
1.17355e+06
1.11182e+06
1.04252e+06
1.14241e+06
1.09746e+06
1.04309e+06
1.07797e+06
859290
793492
865968
843919
785760
796903
836464
769169
789456
824114
762734
837568
1.46344e+06
1.40232e+06
1.39564e+06
1.45973e+06
1.38621e+06
1.43322e+06
1.44462e+06
1.36142e+06
1.40843e+06
1.40962e+06
1.32766e+06
1.31421e+06
1.10735e+06
923442
1.06653e+06
1.14093e+06
917151
1.08438e+06
1.14592e+06
911541
1.08393e+06
1.13242e+06
920803
1.09031e+06
1.93205e+06
1.80518e+06
1.72152e+06
1.94393e+06
1.78612e+06
1.72314e+06
1.93922e+06
1.77074e+06
1.72759e+06
1.922e+06
1.75737e+06