/*--------------------------------*- C++ -*----------------------------------*\
| =========                 |                                                 |
| \\      /  F ield         | OpenFOAM: The Open Source CFD Toolbox           |
|  \\    /   O peration     | Version:  v2012                                 |
|   \\  /    A nd           | Website:  www.openfoam.com                      |
|    \\/     M anipulation  |                                                 |
\*---------------------------------------------------------------------------*/
FoamFile
{
    version     2.0;
    format      ascii;
    class       volVectorField;
    location    "1";
    object      D;
}
// * * * * * * * * * * * * * * * * * * * * * * * * * * * * * * * * * * * * * //

dimensions      [0 1 0 0 0 0 0];


internalField   nonuniform List<vector> 
7666
(
(0.000371282 -1.16133e-06 0)
(0.00039111 -9.97181e-06 0)
(9.59518e-05 -0.00018424 0)
(0.000362133 -1.82852e-05 0)
(0.00023684 -5.96736e-05 0)
(0.000177633 -9.86579e-05 0)
(0.000477167 -1.79255e-05 0)
(0.000370481 -2.19335e-05 0)
(0.000129355 -0.000131602 0)
(0.000470762 -1.44568e-05 0)
(0.000367831 -7.78304e-06 0)
(0.000422701 -3.60662e-05 0)
(0.000370659 -2.01774e-05 0)
(0.000397689 -1.51974e-05 0)
(0.000485411 -1.28392e-05 0)
(0.000193236 -0.00011153 0)
(0.000371688 -2.12509e-05 0)
(0.000218166 -8.13288e-05 0)
(0.000392598 -3.54768e-05 0)
(0.000425925 -9.93104e-06 0)
(0.000411084 -2.30824e-06 0)
(0.000305317 -4.44048e-05 0)
(0.000395763 -1.76163e-05 0)
(0.000348826 -1.56202e-05 0)
(0.000166039 -0.000109108 0)
(0.000485259 -1.24717e-05 0)
(0.000162339 -0.00011227 0)
(0.00035663 -6.89787e-06 0)
(0.0003718 -2.05229e-05 0)
(0.000449458 -4.33019e-05 0)
(0.00042585 -5.08316e-05 0)
(0.000219905 -7.97202e-05 0)
(0.000357082 -6.36308e-06 0)
(0.00045536 -3.29044e-05 0)
(0.000352781 -1.08392e-05 0)
(0.000409218 -7.86084e-06 0)
(0.000410476 -7.21453e-06 0)
(0.000437397 -4.30799e-05 0)
(0.000221611 -7.31476e-05 0)
(0.000460316 -1.58216e-05 0)
(0.000283149 -4.49764e-05 0)
(5.40075e-05 -0.000207514 0)
(1.07268e-05 -0.000227051 0)
(0.000345217 -1.07105e-05 0)
(2.84504e-05 -0.000226728 0)
(0.00048034 -1.60811e-05 0)
(0.000163801 -0.000108071 0)
(0.000283739 -4.30772e-05 0)
(0.000268483 -4.45831e-05 0)
(0.000387334 -1.43628e-06 0)
(0.000356715 -6.72926e-06 0)
(0.000328905 -5.03688e-05 0)
(0.000479417 -1.89616e-05 0)
(0.0001336 -0.000128559 0)
(0.000402035 -9.81546e-07 0)
(0.000194079 -0.000113211 0)
(0.000386004 -2.02481e-06 0)
(0.000387245 -1.73472e-06 0)
(0.000168242 -0.000111927 0)
(0.000176228 -9.95789e-05 0)
(0.000388906 -4.05864e-06 0)
(0.000438332 -4.36109e-05 0)
(0.000378758 -1.73152e-05 0)
(0.000377541 -1.79271e-05 0)
(0.000382138 -2.52594e-06 0)
(0.00026968 -4.26653e-05 0)
(0.000464044 -8.66196e-06 0)
(0.000383475 -2.45635e-06 0)
(0.000171183 -0.000119509 0)
(0.000169457 -0.000110182 0)
(0.000164908 -0.000123621 0)
(0.000495077 -2.78582e-06 0)
(0.000494163 -2.63239e-06 0)
(0.000459845 -3.99521e-05 0)
(0.000458204 -4.09254e-05 0)
(0.000484906 -1.67255e-05 0)
(2.22066e-05 -0.00023468 0)
(0.000389612 -1.46969e-05 0)
(0.000388467 -1.53522e-05 0)
(0.00038924 -4.43352e-06 0)
(0.000458532 -2.30934e-05 0)
(0.000485309 -5.66767e-06 0)
(0.000323274 -1.80374e-05 0)
(1.44248e-05 -0.000227117 0)
(0.000407422 -4.40293e-05 0)
(0.000351572 -5.70447e-05 0)
(0.000350746 -5.59912e-05 0)
(0.000312532 -4.86705e-05 0)
(0.000276168 -4.17298e-05 0)
(0.000436888 -4.63219e-05 0)
(0.000422873 -2.09951e-05 0)
(0.000424668 -2.12059e-05 0)
(0.000330289 -6.0833e-05 0)
(0.000134029 -0.000143945 0)
(8.92195e-05 -0.000164214 0)
(0.000227165 -7.64709e-05 0)
(0.00035622 -1.08199e-05 0)
(0.000101842 -0.000182217 0)
(0.000392789 -3.64626e-05 0)
(0.000427728 -9.40691e-06 0)
(0.000328135 -6.03883e-05 0)
(0.000451499 -4.31636e-05 0)
(0.000353706 -7.27175e-06 0)
(7.88789e-05 -0.000190678 0)
(0.000327919 -1.82594e-05 0)
(0.000235826 -6.70651e-05 0)
(3.58205e-05 -0.000219466 0)
(0.000248209 -5.45327e-05 0)
(0.000479103 -1.74562e-05 0)
(0.000331139 -5.33169e-05 0)
(0.000374774 -1.4337e-05 0)
(0.000271986 -4.33362e-05 0)
(0.000374235 -9.33098e-06 0)
(0.000390573 -3.73411e-06 0)
(0.000366421 -7.10602e-06 0)
(0.000222728 -6.83303e-05 0)
(0.00035938 -6.68161e-06 0)
(0.000348045 -1.70118e-05 0)
(0.000427804 -4.34184e-05 0)
(0.000428013 -4.2429e-05 0)
(0.000171182 -0.000103351 0)
(0.000472053 -3.22453e-05 0)
(0.000432006 -3.01696e-05 0)
(0.000482198 -1.27476e-05 0)
(0.0003511 -1.48139e-05 0)
(0.000388751 -1.80705e-07 0)
(0.000251071 -5.32892e-05 0)
(0.000297067 -3.6241e-05 0)
(0.00032582 -2.13283e-05 0)
(0.000400939 -2.24017e-05 0)
(0.000188805 -0.000118642 0)
(0.000374622 -4.57656e-05 0)
(0.000425412 -4.81599e-06 0)
(8.05432e-06 -0.000239998 0)
(0.000431509 -3.09679e-05 0)
(0.000239275 -6.61214e-05 0)
(0.000460345 -2.23843e-05 0)
(0.000460547 -1.62619e-05 0)
(0.00041249 -1.69216e-05 0)
(0.000359613 -1.39146e-05 0)
(0.000322119 -2.25105e-05 0)
(0.000488582 -5.71336e-06 0)
(0.00046753 -1.90407e-06 0)
(0.000469647 -1.64988e-06 0)
(0.000462326 -9.12819e-06 0)
(0.000438619 -1.41743e-05 0)
(0.000476095 -1.76298e-05 0)
(0.000491759 -5.92857e-06 0)
(0.000369493 -2.13688e-06 0)
(0.00038474 -2.74029e-05 0)
(0.000472621 -1.43404e-05 0)
(0.000264426 -5.09595e-05 0)
(0.00038738 -4.85042e-06 0)
(0.000294636 -3.73455e-05 0)
(0.000447444 -6.91591e-06 0)
(0.000449569 -6.60351e-06 0)
(0.000289436 -3.9314e-05 0)
(0.000308301 -2.69466e-05 0)
(0.000348764 -1.73085e-05 0)
(0.000466321 -2.69524e-05 0)
(8.5049e-05 -0.000185287 0)
(4.59287e-05 -0.000209768 0)
(0.000308765 -4.29219e-05 0)
(3.72386e-05 -0.000218086 0)
(8.05357e-05 -0.000190089 0)
(8.28244e-05 -0.000188612 0)
(0.000346297 -1.8053e-05 0)
(0.000384006 -1.79313e-06 0)
(0.000384622 -2.06095e-06 0)
(8.22893e-05 -0.000187255 0)
(0.000383354 -9.53562e-06 0)
(0.000368175 -6.5475e-06 0)
(0.000330066 -3.99852e-05 0)
(0.000369341 -4.91238e-05 0)
(0.000265543 -5.14824e-05 0)
(0.000400621 -1.02529e-06 0)
(0.000275547 -4.37051e-05 0)
(7.53973e-05 -0.000177656 0)
(0.000412877 -5.03319e-05 0)
(0.000359888 -1.8967e-05 0)
(0.000309409 -4.01388e-05 0)
(0.000360182 -6.34797e-06 0)
(0.000346444 -4.09815e-05 0)
(0.000354015 -1.25109e-05 0)
(0.000273873 -4.03828e-05 0)
(0.000222785 -7.85079e-05 0)
(0.000492142 -8.03876e-07 0)
(0.000451964 -4.74971e-05 0)
(0.000175295 -0.000105426 0)
(0.000456424 -2.90637e-05 0)
(0.000381623 -1.01334e-05 0)
(0.000444325 -1.70002e-05 0)
(0.000444874 -1.63893e-05 0)
(0.00041784 -1.64971e-05 0)
(0.000252441 -5.14968e-05 0)
(9.66155e-05 -0.000167545 0)
(0.000389032 -1.24353e-05 0)
(0.000482638 -1.79563e-05 0)
(0.000477339 -1.68776e-05 0)
(0.000339927 -3.70212e-05 0)
(0.000274902 -4.45654e-05 0)
(0.000361511 -6.08641e-06 0)
(0.000414849 -4.95247e-05 0)
(0.000231372 -6.92905e-05 0)
(0.000428799 -3.37669e-06 0)
(7.03716e-05 -0.000196857 0)
(0.000450683 -8.46131e-06 0)
(0.000306286 -3.54754e-05 0)
(0.000366219 -5.4149e-06 0)
(0.000350676 -1.16202e-05 0)
(0.000124892 -0.000144353 0)
(0.000367961 -5.16494e-06 0)
(0.000465997 -1.702e-06 0)
(0.000481656 -5.63145e-06 0)
(0.00049044 -5.44895e-06 0)
(0.000376098 -5.64885e-06 0)
(0.000377303 -1.3192e-05 0)
(0.000167319 -0.000105661 0)
(0.000378464 -5.16495e-06 0)
(0.000312583 -6.00216e-05 0)
(5.64033e-05 -0.000208957 0)
(6.21038e-05 -0.000202623 0)
(0.000426421 -5.15443e-05 0)
(0.000470127 -1.16956e-06 0)
(0.000359088 -4.7784e-05 0)
(0.000313455 -2.78876e-05 0)
(4.62364e-05 -0.000215468 0)
(1.60298e-05 -0.000236733 0)
(0.00041381 -3.57376e-07 0)
(0.000348984 -1.89097e-05 0)
(0.000351594 -1.80673e-05 0)
(0.000448896 -3.26051e-05 0)
(0.00027925 -4.05022e-05 0)
(0.000233858 -7.51559e-05 0)
(0.000495772 -4.23131e-07 0)
(0.000455624 -4.76811e-05 0)
(3.10493e-05 -0.000224703 0)
(0.000329335 -5.12954e-05 0)
(0.000349691 -1.65329e-05 0)
(0.000452735 -3.36773e-05 0)
(0.000461536 -4.66665e-06 0)
(0.000340602 -3.24108e-05 0)
(0.000374937 -1.65788e-05 0)
(0.000376134 -3.57713e-06 0)
(0.000373639 -9.84299e-06 0)
(0.000383107 -8.00737e-06 0)
(0.000354367 -1.62607e-05 0)
(0.00037645 -8.81888e-06 0)
(9.27246e-05 -0.000180365 0)
(0.000266212 -4.66214e-05 0)
(0.000270114 -4.46704e-05 0)
(0.000385727 -5.73337e-06 0)
(0.000218236 -7.11875e-05 0)
(0.000371723 -4.81004e-05 0)
(0.000487999 -8.93993e-07 0)
(0.000447254 -4.83272e-05 0)
(9.9892e-06 -0.000238738 0)
(0.000311677 -4.5203e-05 0)
(0.000252379 -5.18433e-05 0)
(0.000312552 -4.16643e-05 0)
(0.000295033 -2.93089e-05 0)
(0.000182907 -9.6137e-05 0)
(0.000224589 -7.13115e-05 0)
(0.000311031 -4.80253e-05 0)
(0.000478397 -1.45748e-05 0)
(0.000355833 -1.3044e-05 0)
(0.000372744 -1.44178e-05 0)
(0.000210763 -7.67115e-05 0)
(2.93678e-06 -0.000224626 0)
(0.000366113 -2.18876e-06 0)
(0.000484538 -1.63621e-05 0)
(0.000481545 -1.53659e-05 0)
(0.00044499 -3.43998e-05 0)
(0.0003322 -5.17052e-05 0)
(0.000365192 -2.69828e-06 0)
(0.000378089 -8.89604e-06 0)
(4.47251e-05 -0.000219431 0)
(5.89535e-05 -0.000205434 0)
(0.000299828 -2.97848e-05 0)
(0.00029996 -3.0187e-05 0)
(0.000477801 -1.98942e-05 0)
(0.000254638 -6.68948e-05 0)
(0.000359896 -1.19737e-05 0)
(0.000447433 -4.02667e-05 0)
(0.000342905 -1.07091e-05 0)
(0.000321223 -2.05181e-05 0)
(0.000309802 -4.47736e-05 0)
(0.000183822 -0.000102527 0)
(0.000325633 -1.87469e-05 0)
(0.000480529 -6.21196e-06 0)
(0.000476157 -6.43188e-06 0)
(9.43391e-05 -0.000176352 0)
(0.000158474 -0.000112353 0)
(0.000342996 -1.12487e-05 0)
(0.000377268 -1.3718e-05 0)
(9.66622e-05 -0.00017704 0)
(0.000480347 -5.36353e-06 0)
(0.000372084 -2.57123e-06 0)
(0.000373128 -2.59312e-06 0)
(0.00039465 -3.97978e-05 0)
(0.00043382 -7.69727e-06 0)
(0.000384484 -8.04251e-06 0)
(0.000438231 -1.36836e-05 0)
(0.000500043 -1.43132e-06 0)
(0.000462978 -4.24473e-05 0)
(0.000376231 -4.64255e-06 0)
(0.000415296 -2.19328e-07 0)
(0.000260311 -5.65081e-05 0)
(0.000334006 -1.75242e-05 0)
(0.000396468 -3.23891e-06 0)
(0.000360157 -5.06924e-06 0)
(0.000384665 -1.49402e-06 0)
(0.000378841 -1.86141e-06 0)
(0.000378978 -1.55486e-06 0)
(0.000387842 -7.36008e-06 0)
(0.000393579 -4.18194e-05 0)
(0.000435403 -6.74025e-06 0)
(0.000325403 -1.71271e-05 0)
(0.000392706 -3.95695e-05 0)
(0.000432042 -7.79086e-06 0)
(0.000329402 -2.54326e-05 0)
(0.000327509 -2.64998e-05 0)
(8.09745e-05 -0.00017314 0)
(0.000371078 -3.48424e-05 0)
(0.000468516 -2.6184e-05 0)
(0.000386186 -7.4715e-06 0)
(0.000380723 -1.70704e-07 0)
(0.000423557 -3.67769e-05 0)
(0.000383786 -2.83117e-06 0)
(0.000337035 -1.27457e-05 0)
(0.000339318 -1.19425e-05 0)
(0.000311418 -4.25415e-05 0)
(8.31197e-05 -0.000188741 0)
(0.000457224 -2.94687e-05 0)
(0.000139451 -0.00012489 0)
(0.000139437 -0.000124701 0)
(0.000220825 -7.10377e-05 0)
(0.000356729 -6.30646e-06 0)
(0.000492487 -1.07755e-06 0)
(0.000452852 -4.65385e-05 0)
(0.000347675 -1.11736e-05 0)
(0.000228659 -7.02503e-05 0)
(0.000358829 -5.68471e-06 0)
(0.00024189 -9.62878e-05 0)
(0.000327875 -3.99513e-05 0)
(0.000386404 -4.34171e-05 0)
(0.000431628 -5.94909e-06 0)
(0.000220342 -7.09865e-05 0)
(0.000345472 -1.36239e-05 0)
(0.000498328 -1.65404e-06 0)
(0.0004613 -4.23891e-05 0)
(6.23905e-05 -0.000203792 0)
(0.000186772 -9.96729e-05 0)
(0.000410983 -1.95744e-06 0)
(0.000163926 -0.000115637 0)
(3.58539e-05 -0.000225443 0)
(0.000348156 -1.63247e-05 0)
(0.000459646 -4.95495e-06 0)
(0.000206842 -7.90695e-05 0)
(0.000361048 -4.62189e-06 0)
(0.00038206 -3.10561e-05 0)
(3.45089e-05 -0.000226823 0)
(0.000335844 -5.10293e-05 0)
(5.56017e-05 -0.00021009 0)
(0.000478968 -4.52766e-06 0)
(0.000159659 -0.00011089 0)
(0.000221667 -6.96598e-05 0)
(0.000237612 -6.33676e-05 0)
(0.000466915 -1.79417e-05 0)
(9.24275e-05 -0.000171218 0)
(0.00041995 -3.63778e-05 0)
(0.000370162 -3.57587e-05 0)
(0.000358399 -7.84007e-06 0)
(0.000384577 -3.09463e-05 0)
(0.000491555 -1.07397e-05 0)
(0.000359416 -6.50687e-06 0)
(0.000342706 -3.1216e-05 0)
(8.43661e-05 -0.000188814 0)
(0.000358151 -5.82668e-06 0)
(6.62407e-05 -0.000200535 0)
(0.000127978 -0.000141342 0)
(0.000336938 -2.11809e-05 0)
(0.000372115 -4.34463e-07 0)
(0.000264174 -5.50929e-05 0)
(0.000243366 -6.16542e-05 0)
(0.000375421 -3.60712e-05 0)
(0.000234215 -7.67894e-05 0)
(9.04635e-05 -0.000174504 0)
(9.03826e-05 -0.000183985 0)
(0.00044628 -4.28625e-05 0)
(0.000448876 -4.23129e-05 0)
(0.000369301 -3.35886e-06 0)
(0.000370435 -2.92036e-06 0)
(1.59812e-05 -0.000235856 0)
(8.92319e-05 -0.000174883 0)
(4.39299e-05 -0.0002102 0)
(0.000391031 -1.18135e-05 0)
(0.000469794 -3.27246e-05 0)
(0.00036868 -7.95158e-06 0)
(0.000348534 -1.56216e-05 0)
(0.00023171 -7.10079e-05 0)
(0.00031124 -2.48412e-05 0)
(0.000372526 -7.34446e-06 0)
(0.000356976 -6.29801e-06 0)
(3.69881e-05 -0.000205956 0)
(0.000358594 -3.00675e-05 0)
(0.000358097 -3.09554e-05 0)
(0.000225036 -6.77443e-05 0)
(0.000201385 -8.22462e-05 0)
(0.0001316 -0.000134629 0)
(0.000123265 -0.000147898 0)
(0.000449513 -3.99346e-05 0)
(0.000347651 -1.23109e-05 0)
(0.000201726 -8.20451e-05 0)
(0.000127487 -0.000143835 0)
(0.000286738 -4.56508e-05 0)
(0.000290644 -4.44823e-05 0)
(0.000440362 -1.3078e-05 0)
(0.000470643 -6.69194e-06 0)
(4.65031e-05 -0.000214767 0)
(0.000340912 -1.52814e-05 0)
(0.000415927 -1.92867e-05 0)
(0.000475358 -2.42239e-05 0)
(0.000402739 -2.0888e-05 0)
(0.000383913 -5.82151e-06 0)
(0.000422499 -2.03896e-05 0)
(0.000341868 -1.10919e-05 0)
(0.000271333 -6.03274e-05 0)
(0.000404293 -4.43805e-05 0)
(0.000155482 -0.000132394 0)
(0.000243173 -9.99248e-05 0)
(7.54821e-05 -0.000191857 0)
(0.00034965 -1.63619e-05 0)
(0.000466489 -4.24564e-05 0)
(0.000503519 -1.02768e-06 0)
(0.000476409 -6.01242e-06 0)
(0.00034436 -1.02897e-05 0)
(0.000396127 -1.48292e-05 0)
(0.000398428 -2.32954e-05 0)
(0.000389618 -2.45468e-05 0)
(0.000211342 -9.31745e-05 0)
(0.000367272 -2.96779e-06 0)
(0.000400846 -1.45478e-05 0)
(0.000402765 -1.48112e-05 0)
(0.000482187 -9.34329e-06 0)
(0.000372638 -1.71199e-05 0)
(0.000332833 -4.08069e-05 0)
(0.000427357 -1.61912e-05 0)
(0.000425486 -1.68336e-05 0)
(0.000480709 -1.39183e-05 0)
(0.000369941 -1.82434e-06 0)
(0.00035607 -9.68923e-06 0)
(0.00030961 -2.51585e-05 0)
(4.71243e-05 -0.000217331 0)
(0.000373134 -6.84664e-06 0)
(0.000296091 -3.93698e-05 0)
(0.000464326 -1.8413e-05 0)
(0.000337769 -1.48336e-05 0)
(0.00040761 -1.49468e-05 0)
(0.000310965 -3.23105e-05 0)
(1.90415e-05 -0.00023409 0)
(0.000335512 -1.57729e-05 0)
(2.74687e-05 -0.000212969 0)
(7.03738e-05 -0.00019698 0)
(0.000350312 -1.01097e-05 0)
(0.000458829 -1.5078e-05 0)
(0.000458238 -1.46927e-05 0)
(0.000278634 -4.2344e-05 0)
(0.000314138 -4.0258e-05 0)
(0.000348653 -9.13048e-06 0)
(0.000318002 -3.38977e-05 0)
(0.000473163 -1.91524e-05 0)
(0.000471131 -1.98438e-05 0)
(0.000187808 -9.3132e-05 0)
(0.000184084 -9.42216e-05 0)
(0.000298013 -3.92452e-05 0)
(0.000484222 -5.36107e-06 0)
(0.000344498 -4.05237e-05 0)
(0.00044817 -3.78226e-06 0)
(0.000255712 -8.37351e-05 0)
(0.000349609 -1.07866e-05 0)
(0.000224224 -7.38745e-05 0)
(0.000406057 -5.2681e-05 0)
(0.000453188 -1.60972e-06 0)
(0.000408767 -5.20462e-05 0)
(0.00045514 -1.78056e-06 0)
(0.000260757 -7.95366e-05 0)
(0.00034077 -1.91203e-05 0)
(9.13759e-05 -0.000179618 0)
(0.000419093 -2.93482e-05 0)
(0.000444609 -2.71224e-05 0)
(0.000361477 -1.39115e-05 0)
(0.000467867 -4.25622e-05 0)
(0.000504915 -8.58401e-07 0)
(0.000417363 -1.14417e-05 0)
(0.000137395 -0.000140556 0)
(8.5682e-05 -0.000184325 0)
(7.66802e-05 -0.000191686 0)
(0.000440126 -1.25676e-05 0)
(0.000277576 -8.18944e-05 0)
(0.000385488 -9.23155e-06 0)
(0.000362015 -1.00286e-05 0)
(6.102e-05 -0.000205182 0)
(0.000282012 -7.65133e-05 0)
(0.000360841 -1.06341e-05 0)
(0.000395174 -3.20145e-06 0)
(0.000489878 -6.3871e-06 0)
(4.86902e-05 -0.000204454 0)
(0.000365467 -1.87677e-06 0)
(0.000440282 -6.73067e-06 0)
(0.000400487 -6.08652e-06 0)
(0.000239069 -6.48002e-05 0)
(0.000238747 -6.70783e-05 0)
(0.000487258 -1.27773e-06 0)
(0.000484941 -1.52694e-06 0)
(0.000444569 -4.74056e-05 0)
(0.000446946 -4.74343e-05 0)
(0.000409382 -2.51697e-05 0)
(0.000298697 -2.76947e-05 0)
(0.00038452 -3.39889e-06 0)
(0.000385338 -3.59306e-06 0)
(5.13665e-06 -0.000223269 0)
(0.000221653 -6.92463e-05 0)
(0.000313046 -2.9622e-05 0)
(0.000399602 -4.18699e-05 0)
(0.000341123 -3.31452e-05 0)
(0.000480789 -4.53136e-06 0)
(3.33135e-05 -0.000208485 0)
(0.000412272 -2.48844e-06 0)
(0.000493824 -4.26668e-07 0)
(0.000453357 -4.81989e-05 0)
(0.000161897 -0.000124124 0)
(0.000238423 -6.34187e-05 0)
(0.000385544 -4.80677e-06 0)
(0.000159845 -0.00011116 0)
(0.000342227 -1.63733e-05 0)
(2.84999e-05 -0.000232317 0)
(0.00026618 -5.1261e-05 0)
(0.000426912 -2.65694e-05 0)
(0.000427865 -2.58027e-05 0)
(6.35572e-05 -0.000202967 0)
(0.000166938 -0.000118921 0)
(4.30717e-05 -0.000218595 0)
(0.000366306 -2.91478e-05 0)
(0.000268365 -4.97957e-05 0)
(0.000179217 -9.75962e-05 0)
(0.000178218 -9.92276e-05 0)
(0.000142435 -0.000122408 0)
(0.000359407 -4.67466e-05 0)
(0.000475336 -1.06468e-05 0)
(0.000220557 -7.08402e-05 0)
(0.000313255 -4.42698e-05 0)
(0.000243468 -5.58205e-05 0)
(4.59361e-05 -0.000216827 0)
(0.000361307 -2.47934e-05 0)
(0.00035235 -1.4483e-05 0)
(0.000396886 -1.60185e-05 0)
(0.000372053 -8.51174e-07 0)
(2.70894e-05 -0.000233628 0)
(0.000310633 -3.0158e-05 0)
(0.000233716 -6.15595e-05 0)
(1.34901e-05 -0.000238092 0)
(0.000394775 -1.83845e-05 0)
(0.000325186 -1.7572e-05 0)
(0.000304263 -3.77771e-05 0)
(0.000367386 -3.0668e-06 0)
(0.00039875 -6.48732e-06 0)
(0.000496177 -5.10102e-06 0)
(5.60308e-05 -0.000201886 0)
(0.000393706 -1.50709e-05 0)
(0.000394912 -3.65817e-05 0)
(0.000429546 -9.37776e-06 0)
(0.000346915 -5.59548e-05 0)
(0.000491264 -7.69271e-06 0)
(0.000271289 -4.26066e-05 0)
(0.000361047 -4.79699e-06 0)
(0.000181717 -9.60898e-05 0)
(0.000128984 -0.000147987 0)
(0.000186754 -9.29086e-05 0)
(0.00018391 -9.58927e-05 0)
(7.70258e-05 -0.000178983 0)
(0.000359348 -8.46155e-06 0)
(0.000446619 -3.59596e-06 0)
(0.000340567 -1.91395e-05 0)
(0.000346799 -4.516e-05 0)
(0.000112952 -0.000152831 0)
(0.000153395 -0.000122271 0)
(0.000478178 -6.5859e-06 0)
(0.000473328 -2.50277e-05 0)
(0.000200354 -8.55354e-05 0)
(0.000444874 -4.25541e-05 0)
(0.000163097 -0.000110301 0)
(0.000340575 -3.33154e-05 0)
(0.000353858 -8.13771e-06 0)
(0.000410501 -8.30203e-06 0)
(0.000350174 -1.12751e-05 0)
(0.000419735 -2.99876e-05 0)
(0.000483274 -1.40669e-06 0)
(0.00044241 -4.81963e-05 0)
(0.000437593 -2.61264e-05 0)
(0.000320004 -3.52578e-05 0)
(0.000125374 -0.00013683 0)
(0.000291408 -5.70075e-05 0)
(0.000288643 -5.86082e-05 0)
(0.000397028 -3.36064e-07 0)
(0.000387078 -9.99118e-06 0)
(0.000342847 -3.34289e-05 0)
(0.000399993 -5.66454e-06 0)
(0.000206639 -9.49749e-05 0)
(4.27451e-05 -0.000218194 0)
(0.000150103 -0.000124702 0)
(0.000140573 -0.000123701 0)
(0.000374419 -9.83543e-07 0)
(0.000322721 -3.16441e-05 0)
(0.000409653 -8.9717e-06 0)
(0.000457754 -2.81116e-05 0)
(0.000494069 -3.22292e-06 0)
(0.000491737 -3.59054e-06 0)
(0.000457312 -3.90111e-05 0)
(0.000459609 -3.90116e-05 0)
(0.000467965 -1.73053e-05 0)
(0.000374298 -1.21606e-06 0)
(4.52049e-05 -0.000218134 0)
(0.000342912 -1.88039e-05 0)
(0.000468479 -1.51627e-05 0)
(0.000333465 -1.52637e-05 0)
(0.000337022 -1.46114e-05 0)
(0.000364809 -1.88377e-06 0)
(0.000358448 -2.5381e-05 0)
(0.000154811 -0.000115092 0)
(0.000439922 -3.40272e-05 0)
(2.40204e-05 -0.00022054 0)
(0.000337044 -1.3692e-05 0)
(4.14306e-05 -0.000220981 0)
(0.000334142 -4.27312e-05 0)
(0.000374371 -5.69447e-06 0)
(0.00040365 -4.33445e-05 0)
(0.000322902 -3.65925e-05 0)
(0.000385037 -4.44571e-05 0)
(0.000431636 -5.48382e-06 0)
(0.000288555 -3.98539e-05 0)
(0.000405723 -1.31448e-05 0)
(0.000368922 -1.39768e-06 0)
(0.000345981 -1.66311e-05 0)
(0.000354813 -6.9076e-06 0)
(0.000450534 -4.14006e-05 0)
(0.000357772 -6.20631e-06 0)
(0.000368646 -1.31135e-06 0)
(2.40749e-05 -0.000232869 0)
(0.000359216 -5.70879e-06 0)
(0.000238568 -6.44141e-05 0)
(2.41387e-05 -0.000234426 0)
(0.000367137 -2.69544e-05 0)
(0.000369628 -2.67019e-05 0)
(0.000117336 -0.000153114 0)
(0.000176718 -0.000103804 0)
(0.00024915 -5.63232e-05 0)
(0.000249902 -5.65035e-05 0)
(0.000494308 -5.9376e-06 0)
(0.000494079 -5.70499e-06 0)
(0.000354563 -9.56343e-06 0)
(0.00016919 -0.00010766 0)
(0.000296922 -3.15264e-05 0)
(5.89394e-05 -0.000206942 0)
(0.000407402 -9.27679e-06 0)
(0.000300605 -2.96285e-05 0)
(0.000371422 -4.33766e-07 0)
(2.29504e-05 -0.000219857 0)
(0.000116326 -0.000153561 0)
(0.000401418 -4.33274e-05 0)
(0.000422038 -2.85378e-06 0)
(0.000367774 -2.22435e-06 0)
(0.000372043 -8.50011e-06 0)
(0.000374637 -5.02346e-06 0)
(0.000306667 -4.04137e-05 0)
(0.000141796 -0.000142853 0)
(0.000426215 -3.64282e-05 0)
(0.000491085 -1.05317e-05 0)
(0.000152368 -0.000126703 0)
(0.000371878 -8.15055e-06 0)
(0.00014973 -0.000128146 0)
(0.000280265 -5.30116e-05 0)
(0.000159491 -0.000111133 0)
(0.000425522 -4.4324e-05 0)
(0.000376531 -3.47332e-05 0)
(0.000279418 -3.67906e-05 0)
(0.000419793 -9.50428e-07 0)
(0.000278062 -3.83152e-05 0)
(0.00016322 -0.00010873 0)
(0.000166106 -0.000106576 0)
(0.000160683 -0.000110173 0)
(0.000415444 -1.18882e-05 0)
(0.000390469 -3.47679e-06 0)
(0.000377258 -3.22089e-05 0)
(0.000461685 -1.52711e-05 0)
(0.00019317 -8.83841e-05 0)
(0.000200227 -8.31412e-05 0)
(0.000165726 -0.000118352 0)
(0.000199343 -8.38412e-05 0)
(0.000176896 -9.97565e-05 0)
(0.000458917 -8.80129e-06 0)
(1.82773e-05 -0.00023827 0)
(0.000160018 -0.000122251 0)
(0.000309181 -5.40053e-05 0)
(0.000337772 -1.97e-05 0)
(0.000294747 -5.60518e-05 0)
(7.20577e-06 -0.000217566 0)
(0.000363513 -3.52271e-06 0)
(0.000393608 -2.28625e-05 0)
(0.000228551 -7.20028e-05 0)
(0.000355418 -6.84986e-06 0)
(0.000266488 -4.42704e-05 0)
(5.71665e-05 -0.000202288 0)
(0.000312352 -5.68747e-05 0)
(0.000369463 -4.50383e-05 0)
(0.000421323 -5.07631e-06 0)
(0.00040468 -5.18099e-05 0)
(0.000451676 -2.0435e-06 0)
(0.000334639 -1.52134e-05 0)
(0.000301928 -5.6737e-05 0)
(2.23935e-05 -0.000232823 0)
(0.000274978 -3.89954e-05 0)
(0.000503292 -2.21946e-06 0)
(0.000470344 -3.66415e-05 0)
(0.000383178 -4.27576e-06 0)
(8.60449e-05 -0.000183292 0)
(0.000482453 -3.55405e-06 0)
(9.0716e-05 -0.000168386 0)
(0.000125297 -0.000152401 0)
(0.000463053 -3.8432e-06 0)
(0.000256537 -6.73139e-05 0)
(0.000402613 -5.18812e-05 0)
(0.000450045 -2.0842e-06 0)
(0.000359024 -5.12735e-05 0)
(0.000361236 -5.1729e-05 0)
(8.62038e-05 -0.000182128 0)
(0.000307895 -4.15211e-05 0)
(0.000436843 -2.68959e-05 0)
(5.08518e-05 -0.000205586 0)
(0.000271937 -4.05992e-05 0)
(8.26774e-05 -0.000186185 0)
(5.24744e-05 -0.000193333 0)
(7.38388e-05 -0.000182397 0)
(8.74124e-05 -0.000180716 0)
(0.000401942 -2.03229e-05 0)
(0.000255425 -6.60748e-05 0)
(0.000483305 -3.82569e-06 0)
(0.000231736 -6.38519e-05 0)
(4.30975e-05 -0.000211407 0)
(0.000415839 -1.86769e-05 0)
(0.000348605 -1.01541e-05 0)
(0.000425679 -2.79751e-05 0)
(0.000426122 -2.85164e-05 0)
(0.000349866 -1.00837e-05 0)
(0.000383443 -4.53757e-06 0)
(0.000456769 -3.18221e-05 0)
(0.00021952 -7.17242e-05 0)
(0.000231287 -6.7634e-05 0)
(0.000235273 -6.56374e-05 0)
(0.000379246 -4.68746e-06 0)
(0.000235522 -6.91591e-05 0)
(0.00045066 -8.96695e-06 0)
(0.000297565 -5.75981e-05 0)
(0.000364298 -5.08762e-05 0)
(0.000135843 -0.000136843 0)
(0.000427743 -3.01673e-06 0)
(0.000411551 -3.26041e-06 0)
(0.000190562 -9.03831e-05 0)
(0.000477888 -1.39383e-05 0)
(0.000179136 -0.000109375 0)
(2.65604e-05 -0.000231605 0)
(0.000133018 -0.000138971 0)
(0.000437733 -4.52774e-05 0)
(0.000478905 -3.2866e-06 0)
(0.000461596 -4.12491e-06 0)
(0.000388251 -7.73216e-06 0)
(0.000180607 -0.000123722 0)
(0.000349734 -1.08286e-05 0)
(0.00047291 -1.25308e-05 0)
(0.000472536 -1.22191e-05 0)
(0.000473896 -1.12201e-05 0)
(2.18594e-05 -0.00023639 0)
(0.00041241 -7.06517e-06 0)
(0.000426218 -4.22085e-05 0)
(0.000419267 -1.67328e-05 0)
(0.000418641 -1.587e-05 0)
(0.000328338 -2.555e-05 0)
(0.000256807 -6.53334e-05 0)
(0.00017525 -0.000124604 0)
(2.73044e-05 -0.000214574 0)
(5.4582e-05 -0.000205628 0)
(0.000392047 -1.42251e-05 0)
(0.000451851 -3.8547e-05 0)
(0.000453662 -3.85952e-05 0)
(0.000124229 -0.000152544 0)
(0.000410004 -2.57217e-05 0)
(5.59067e-05 -0.000203294 0)
(0.000413601 -2.36367e-06 0)
(0.000411494 -4.2056e-06 0)
(0.000413099 -4.03485e-06 0)
(0.000404029 -3.35985e-06 0)
(2.87774e-06 -0.000245942 0)
(0.000374328 -3.41937e-05 0)
(6.08934e-05 -0.000205421 0)
(0.00036713 -4.34006e-06 0)
(0.000274182 -6.00098e-05 0)
(0.000412759 -1.6203e-05 0)
(0.000322787 -4.74893e-05 0)
(0.000390814 -6.13603e-06 0)
(0.000463569 -1.34022e-05 0)
(0.000396913 -3.53948e-06 0)
(0.000246179 -5.42844e-05 0)
(0.000311601 -2.57051e-05 0)
(9.83352e-05 -0.000170919 0)
(0.000477091 -1.4635e-05 0)
(0.000301126 -3.49071e-05 0)
(0.000492968 -7.36074e-06 0)
(0.000446437 -2.95658e-06 0)
(0.000402504 -2.2901e-06 0)
(0.000403834 -2.28798e-06 0)
(4.31867e-05 -0.000216621 0)
(0.000487843 -2.49095e-06 0)
(0.000197297 -8.80376e-05 0)
(0.000381595 -2.27988e-06 0)
(0.000458535 -3.42868e-05 0)
(0.000379851 -3.21654e-05 0)
(0.000440737 -3.97389e-05 0)
(0.000364584 -1.71423e-06 0)
(0.000403907 -3.70112e-06 0)
(0.000171714 -0.000104258 0)
(0.000209448 -0.000139904 0)
(0.000379568 -1.47136e-05 0)
(0.000345172 -4.2325e-05 0)
(0.000363491 -3.8217e-06 0)
(0.000351709 -7.90111e-06 0)
(0.000315839 -3.91188e-05 0)
(0.000491832 -5.56e-06 0)
(0.000442851 -2.854e-05 0)
(0.000444365 -2.87342e-05 0)
(0.000335996 -4.23561e-05 0)
(0.000426952 -4.98299e-05 0)
(0.000307974 -3.29683e-05 0)
(2.36154e-05 -0.000213332 0)
(0.00036826 -2.22697e-05 0)
(0.000277844 -5.45194e-05 0)
(0.000273035 -5.1076e-05 0)
(0.000269531 -4.41116e-05 0)
(0.000378407 -1.44262e-05 0)
(0.000432462 -1.83511e-05 0)
(0.000264564 -6.786e-05 0)
(0.000360233 -6.45495e-06 0)
(0.000389609 -9.72448e-06 0)
(0.000238537 -7.52164e-05 0)
(0.000343411 -1.81851e-05 0)
(0.000359974 -6.79251e-06 0)
(0.000353229 -1.73222e-05 0)
(0.000365954 -5.14507e-05 0)
(8.5106e-05 -0.000186648 0)
(0.000451402 -3.33759e-05 0)
(0.000453829 -2.84176e-05 0)
(0.000431839 -2.0015e-05 0)
(0.000411918 -2.67503e-05 0)
(0.000341575 -5.99542e-05 0)
(0.000286116 -3.40522e-05 0)
(0.000283056 -3.55283e-05 0)
(0.000173913 -0.000114316 0)
(5.00428e-05 -0.000206021 0)
(0.000458319 -3.59143e-05 0)
(0.000244255 -6.34415e-05 0)
(0.000188572 -9.12732e-05 0)
(0.000247078 -6.0896e-05 0)
(0.00030051 -4.61879e-05 0)
(0.000412829 -7.98777e-06 0)
(0.0004143 -8.29779e-06 0)
(0.000295936 -4.82457e-05 0)
(0.00036919 -1.0421e-05 0)
(0.00036935 -9.93885e-06 0)
(0.000422752 -1.699e-05 0)
(0.000421903 -1.6449e-05 0)
(0.000383634 -7.94992e-07 0)
(0.000384849 -8.01716e-07 0)
(0.000326327 -4.13074e-05 0)
(0.000357112 -8.90806e-06 0)
(0.000463232 -1.91337e-05 0)
(0.000369466 -1.72888e-06 0)
(0.000343437 -1.4089e-05 0)
(0.000342057 -1.11207e-05 0)
(0.000367839 -4.32832e-06 0)
(0.000450202 -6.05719e-06 0)
(0.00032948 -2.89374e-05 0)
(0.000332943 -2.84674e-05 0)
(0.000385719 -1.05594e-05 0)
(0.000366191 -4.30186e-05 0)
(0.000416921 -5.82161e-06 0)
(0.000333562 -1.81176e-05 0)
(0.000350483 -9.02295e-06 0)
(0.000339992 -1.78245e-05 0)
(0.000361874 -2.64573e-05 0)
(0.000343097 -1.71727e-05 0)
(0.000359228 -2.71288e-05 0)
(6.32081e-05 -0.000203011 0)
(0.000371464 -4.68451e-05 0)
(0.000424401 -4.38186e-06 0)
(9.24336e-05 -0.000168917 0)
(0.000349913 -4.45025e-05 0)
(0.000423577 -1.9716e-05 0)
(0.000448964 -5.6076e-06 0)
(0.000395819 -1.90525e-07 0)
(0.000456641 -9.09114e-06 0)
(0.000303736 -5.41305e-05 0)
(0.000304743 -5.49165e-05 0)
(0.000239073 -5.88126e-05 0)
(0.000309282 -6.08111e-05 0)
(0.000318534 -2.21196e-05 0)
(0.000327987 -2.11566e-05 0)
(0.000369983 -4.80148e-07 0)
(0.000438057 -9.59529e-06 0)
(0.000220931 -8.5135e-05 0)
(2.5396e-05 -0.000201113 0)
(0.000267046 -6.43776e-05 0)
(0.000479934 -2.84538e-06 0)
(0.00024324 -5.65489e-05 0)
(0.000238183 -7.17131e-05 0)
(0.000455742 -9.79328e-06 0)
(0.000457834 -3.38378e-05 0)
(0.000278022 -4.88791e-05 0)
(0.000381502 -3.02611e-05 0)
(5.40972e-05 -0.000211273 0)
(0.000144572 -0.000139504 0)
(0.000356159 -9.01688e-06 0)
(0.000437423 -1.47689e-05 0)
(0.000274615 -5.55325e-05 0)
(5.87176e-05 -0.000206694 0)
(0.000239925 -0.000118091 0)
(0.000413406 -6.91333e-07 0)
(0.000323792 -4.82668e-05 0)
(0.000219036 -0.000120026 0)
(0.000295273 -3.74406e-05 0)
(3.5532e-06 -0.000219339 0)
(0.000360328 -1.30604e-05 0)
(0.000381167 -3.30357e-05 0)
(0.000193946 -9.04586e-05 0)
(0.000198561 -9.0024e-05 0)
(0.000202942 -8.77942e-05 0)
(0.000476088 -1.41076e-05 0)
(0.000377318 -1.64341e-05 0)
(0.000339068 -1.75994e-05 0)
(0.000221625 -0.000114914 0)
(0.000370719 -2.17144e-06 0)
(0.000434334 -4.71978e-05 0)
(0.000218277 -7.15483e-05 0)
(0.000427475 -4.70849e-06 0)
(0.00037721 -4.60885e-05 0)
(0.000347496 -3.08831e-05 0)
(0.000439445 -3.48052e-05 0)
(3.2782e-05 -0.00019933 0)
(0.000300514 -5.98191e-05 0)
(0.000311105 -5.25931e-05 0)
(0.000252978 -6.1974e-05 0)
(0.000254726 -6.22053e-05 0)
(5.00318e-05 -0.000214611 0)
(0.000440935 -3.75581e-05 0)
(3.80124e-05 -0.000221256 0)
(0.000352187 -7.9598e-06 0)
(0.000430572 -1.65145e-05 0)
(0.00034908 -2.06713e-05 0)
(0.000487915 -2.79092e-06 0)
(0.000354587 -7.21543e-06 0)
(0.000322397 -2.34018e-05 0)
(0.000348875 -1.3351e-05 0)
(0.000319918 -2.4435e-05 0)
(0.000394393 -1.05527e-05 0)
(0.000274016 -4.03215e-05 0)
(0.000441271 -1.0829e-05 0)
(0.000439461 -1.05608e-05 0)
(1.93452e-06 -0.00024834 0)
(0.000351135 -8.27897e-06 0)
(0.000304002 -5.73313e-05 0)
(0.000209943 -7.86248e-05 0)
(0.00021593 -7.46499e-05 0)
(0.000169883 -0.000104052 0)
(0.000337775 -1.62395e-05 0)
(0.000313458 -3.39573e-05 0)
(0.000324501 -1.88445e-05 0)
(0.00032764 -2.94698e-05 0)
(0.000310219 -5.00855e-05 0)
(0.000313686 -2.14494e-05 0)
(6.13337e-05 -0.000199165 0)
(0.000151527 -0.000134105 0)
(0.00027684 -5.29635e-05 0)
(0.000344505 -5.93294e-05 0)
(0.00011171 -0.000164033 0)
(5.40243e-05 -0.000211523 0)
(0.000175494 -0.000101454 0)
(0.00027559 -4.13537e-05 0)
(0.000244191 -6.27381e-05 0)
(0.000368363 -2.10815e-06 0)
(9.40151e-05 -0.00017636 0)
(0.00020333 -8.82181e-05 0)
(0.00033713 -1.29517e-05 0)
(0.000145724 -0.000147574 0)
(0.000320122 -2.26044e-05 0)
(0.000405122 -5.37826e-05 0)
(0.000452828 -1.15697e-06 0)
(0.0001412 -0.00015123 0)
(0.000288637 -4.64222e-05 0)
(0.000168396 -0.000107892 0)
(0.000370646 -2.32951e-05 0)
(0.000371356 -2.38174e-05 0)
(2.31521e-05 -0.000228121 0)
(0.000484137 -9.12511e-06 0)
(0.000344408 -5.70686e-05 0)