/*--------------------------------*- C++ -*----------------------------------*\
| =========                 |                                                 |
| \\      /  F ield         | OpenFOAM: The Open Source CFD Toolbox           |
|  \\    /   O peration     | Version:  v2012                                 |
|   \\  /    A nd           | Website:  www.openfoam.com                      |
|    \\/     M anipulation  |                                                 |
\*---------------------------------------------------------------------------*/
FoamFile
{
    version     2.0;
    format      ascii;
    class       volSymmTensorField;
    location    "1";
    object      sigma;
}
// * * * * * * * * * * * * * * * * * * * * * * * * * * * * * * * * * * * * * //

dimensions      [1 -1 -2 0 0 0 0];


internalField   nonuniform List<symmTensor> 
7666
(
(3.92864e+06 -873040 -6.38249e-10 -199655 -5.9034e-11 1.20281e+06)
(1.11438e+07 -2.57426e+06 2.24182e-09 1.49786e+06 3.97356e-10 3.86397e+06)
(3.82792e+07 -7.14155e+06 -7.86145e-09 4.23062e+06 -3.06633e-09 1.25211e+07)
(1.29166e+07 -3.32931e+06 -9.05297e-10 707404 -1.855e-09 4.09014e+06)
(1.81958e+07 -2.15318e+06 8.0504e-11 -2.68963e+06 4.7944e-11 4.63586e+06)
(2.13932e+07 341325 1.61854e-09 -1.15619e+06 1.34538e-09 5.98578e+06)
(1.33773e+07 -440448 6.64375e-09 1.68755e+06 2.00912e-09 4.52348e+06)
(1.36243e+07 -3.04432e+06 -3.3202e-10 803221 2.46499e-10 4.27545e+06)
(2.37708e+07 114084 -4.03267e-09 -27704 -2.98188e-09 7.05361e+06)
(1.33032e+07 -896357 -3.62586e-10 2.23219e+06 -1.45492e-10 4.64243e+06)
(9.58659e+06 -3.09759e+06 0 759809 0 3.06666e+06)
(1.4075e+07 -1.28675e+06 -1.7262e-09 580966 1.37047e-09 4.37449e+06)
(1.33345e+07 -3.07997e+06 -1.7318e-09 853026 5.02242e-10 4.19474e+06)
(1.242e+07 -2.6069e+06 -1.2127e-09 1.40197e+06 -4.02734e-10 4.18204e+06)
(1.33677e+07 -309551 0 2.33464e+06 0 4.68862e+06)
(2.00044e+07 -2.97403e+06 9.79224e-09 -2.35649e+06 5.26303e-09 5.60429e+06)
(1.34176e+07 -3.0545e+06 4.2757e-09 831500 4.78561e-10 4.32831e+06)
(2.30419e+07 -420330 -2.30109e-10 -111238 -1.91503e-09 6.83637e+06)
(1.46377e+07 -1.91969e+06 2.35853e-09 523257 9.11561e-10 4.52399e+06)
(1.20377e+07 -1.72451e+06 -1.4029e-09 1.97686e+06 1.9239e-10 4.24845e+06)
(1.01233e+07 -720046 2.68003e-09 2.14574e+06 -1.7051e-10 3.65862e+06)
(1.7565e+07 -2.23932e+06 4.09539e-09 -20230 -1.28163e-09 5.22144e+06)
(1.28126e+07 -2.64667e+06 -1.05949e-09 1.27364e+06 4.11509e-10 4.26316e+06)
(1.20174e+07 -3.62483e+06 2.54608e-09 323513 3.6892e-10 3.65709e+06)
(2.15615e+07 951257 2.82813e-10 -2.1706e+06 5.83896e-10 5.76178e+06)
(1.33479e+07 -391767 -3.24733e-09 2.4064e+06 -1.52996e-09 4.73416e+06)
(2.15499e+07 1.02172e+06 -1.23551e-09 -2.14066e+06 -6.64185e-10 5.87789e+06)
(7.08987e+06 -3.47565e+06 2.38749e-10 -343444 -9.53858e-11 2.04398e+06)
(1.33015e+07 -3.04713e+06 6.25766e-10 863431 1.75671e-10 4.28767e+06)
(1.35076e+07 -160982 -6.64062e-10 142881 1.32545e-09 4.08801e+06)
(1.38115e+07 -210939 -2.69033e-10 37029.8 -3.26175e-11 4.12949e+06)
(2.25594e+07 -478216 -4.93504e-09 -30479.2 -2.58663e-09 6.80358e+06)
(3.62339e+06 -2.78072e+06 -6.56231e-10 -2.46737e+06 -4.98606e-10 323840)
(1.35368e+07 -543736 -5.13412e-09 599688 -1.30003e-09 4.21629e+06)
(1.26025e+06 -2.42405e+06 4.84878e-09 -5.43465e+06 2.17644e-09 -1.18335e+06)
(1.12304e+07 -1.8889e+06 9.67031e-10 1.89325e+06 4.33525e-10 3.90141e+06)
(1.10878e+07 -1.80015e+06 -2.06244e-09 1.94825e+06 -1.55562e-10 3.92364e+06)
(1.37819e+07 -454786 6.04786e-09 219668 3.64987e-09 4.17033e+06)
(2.09775e+07 -922778 -9.79194e-09 -502636 -6.10438e-09 6.06828e+06)
(1.32238e+07 -1.20611e+06 1.38779e-09 2.04428e+06 3.73203e-10 4.5831e+06)
(1.08444e+07 -4.33315e+06 4.07093e-09 -5.43543e+06 4.29635e-09 1.6019e+06)
(2.7329e+07 2.12204e+06 2.48304e-09 2.69939e+06 1.15178e-09 8.88316e+06)
(2.57155e+07 626617 -3.58788e-09 4.09049e+06 -1.513e-09 8.96067e+06)
(8.96372e+06 -3.91273e+06 -5.53819e-09 -647206 -1.67913e-09 2.45944e+06)
(2.23122e+07 1.62362e+06 -2.06676e-10 2.23516e+06 8.50982e-10 7.42381e+06)
(1.33682e+07 -406239 3.25839e-09 1.93486e+06 5.84082e-10 4.54606e+06)
(2.23795e+07 429800 -8.38362e-09 -526528 -5.9413e-09 6.59709e+06)
(1.07657e+07 -4.3124e+06 1.61297e-09 -5.05041e+06 7.59831e-10 1.804e+06)
(1.42691e+07 -4.11704e+06 -2.22563e-09 -4.35159e+06 -1.64276e-09 3.07024e+06)
(7.55665e+06 -904639 -1.25672e-10 1.63436e+06 -5.66073e-10 2.8345e+06)
(6.94379e+06 -3.29549e+06 1.45287e-09 -536755 4.92997e-10 1.89569e+06)
(1.75422e+07 -1.35366e+06 -3.13693e-10 83990.1 -1.16251e-09 5.23277e+06)
(1.33721e+07 -259683 -6.86271e-10 1.41126e+06 1.67589e-10 4.45978e+06)
(2.3792e+07 249953 -4.92094e-09 -17114 -3.63618e-09 7.16687e+06)
(9.12542e+06 -394355 7.85823e-10 2.07888e+06 3.07803e-10 3.41103e+06)
(2.04386e+07 -3.36622e+06 9.68761e-10 -2.13045e+06 1.73878e-09 5.29571e+06)
(7.69176e+06 -1.20411e+06 5.65133e-10 1.58635e+06 4.32446e-10 2.83054e+06)
(7.84227e+06 -1.02229e+06 -6.60303e-10 1.60448e+06 -5.27276e-11 2.7517e+06)
(2.21198e+07 319452 4.3673e-09 -3.26654e+06 2.88165e-09 5.65704e+06)
(2.15211e+07 271586 -1.65975e-09 -1.13688e+06 -1.21528e-09 6.15859e+06)
(8.96728e+06 -1.8053e+06 -1.67929e-09 1.6634e+06 1.12831e-11 3.21396e+06)
(1.37102e+07 -387622 -2.33694e-09 189369 1.31981e-09 4.19275e+06)
(1.27273e+07 -3.02278e+06 -2.0262e-10 1.04931e+06 7.27089e-10 4.16171e+06)
(1.28978e+07 -3.01207e+06 1.17738e-09 1.02705e+06 -3.71802e-10 4.12913e+06)
(7.60111e+06 -1.62006e+06 -1.47964e-09 1.34493e+06 -9.00926e-11 2.6474e+06)
(1.45496e+07 -3.89316e+06 -3.66089e-09 -3.79648e+06 -1.84593e-09 3.21834e+06)
(1.29658e+07 -941587 -3.61965e-09 2.56579e+06 -9.39118e-10 4.62353e+06)
(7.63955e+06 -1.44058e+06 -3.05723e-10 1.45206e+06 -2.31758e-10 2.76705e+06)
(2.23852e+07 -1.3311e+06 -5.54766e-09 -2.58819e+06 -3.61841e-09 6.01903e+06)
(2.18472e+07 502605 0 -3.1028e+06 0 5.60479e+06)
(2.31603e+07 -794888 1.98061e-09 -2.60733e+06 2.53239e-10 6.11593e+06)
(1.33369e+07 -183573 -3.4594e-10 3.81441e+06 -8.4512e-10 5.16554e+06)
(1.3282e+07 -180153 -3.31831e-09 3.84194e+06 -5.95315e-10 5.12724e+06)
(1.34143e+07 -89046 -1.57972e-10 125885 -3.16555e-10 4.06071e+06)
(1.34423e+07 -97835.8 -1.39247e-10 102229 -2.86874e-10 4.05926e+06)
(1.33636e+07 -37369.7 -1.07565e-10 1.55151e+06 3.11585e-10 4.47378e+06)
(1.83167e+07 1.34679e+06 6.14071e-09 1.26084e+06 3.15188e-09 5.91507e+06)
(1.22533e+07 -2.76995e+06 -3.79131e-09 1.30529e+06 -2.35619e-10 4.1121e+06)
(1.24478e+07 -2.78104e+06 0 1.2586e+06 0 4.07265e+06)
(9.24732e+06 -1.95121e+06 1.16641e-09 1.62764e+06 4.9629e-11 3.23637e+06)
(1.34424e+07 -1.00434e+06 -2.4566e-09 1.37197e+06 -2.45165e-10 4.4635e+06)
(1.32715e+07 -456406 2.94023e-09 3.23046e+06 3.49954e-10 4.95108e+06)
(1.1079e+07 -4.40692e+06 1.00646e-09 -1.61217e+06 3.67623e-10 2.83836e+06)
(2.5646e+07 891335 4.23927e-09 3.46311e+06 1.29268e-09 8.72321e+06)
(1.45332e+07 -1.03562e+06 -2.93774e-09 246955 4.02856e-10 4.3843e+06)
(1.68759e+07 -418410 2.46795e-09 -25983.6 -1.13342e-09 5.11677e+06)
(1.69388e+07 -478766 -1.71877e-09 32644.8 -3.33226e-09 5.01691e+06)
(1.78395e+07 -1.79474e+06 -5.00863e-09 48733.1 -8.22638e-10 5.42272e+06)
(1.3295e+07 -4.24457e+06 4.91236e-09 -4.53407e+06 1.95275e-09 2.50211e+06)
(1.36902e+07 -283780 -1.72362e-09 116934 1.62203e-10 4.1272e+06)
(1.33204e+07 -2.02808e+06 -3.54317e-10 1.37941e+06 -1.07317e-10 4.40568e+06)
(1.332e+07 -1.9868e+06 1.17668e-09 1.38866e+06 -9.01507e-10 4.43118e+06)
(1.81126e+07 -49652.8 -5.80441e-09 32395.6 -4.74681e-10 5.44203e+06)
(2.42231e+07 1.15739e+06 -1.67481e-08 -1.69265e+06 -1.42227e-08 6.84583e+06)
(2.15971e+07 82332.2 6.19539e-09 -17103.7 1.87088e-09 6.43924e+06)
(1.71692e+07 -2.90973e+06 -5.67371e-09 -4.53034e+06 -4.0245e-09 3.8803e+06)
(-256776 -1.48772e+06 -1.55232e-09 -8.12792e+06 -1.53696e-09 -2.57611e+06)
(3.97732e+07 -7.92961e+06 -6.27476e-09 3.7055e+06 -2.33977e-09 1.31059e+07)
(1.46551e+07 -1.859e+06 2.49026e-09 494644 7.15011e-10 4.54835e+06)
(1.20677e+07 -1.6416e+06 -1.19474e-09 2.01606e+06 -8.73696e-10 4.21144e+06)
(1.82768e+07 -226279 1.6281e-09 14044.1 -2.09279e-09 5.44318e+06)
(1.35029e+07 -137232 -2.29244e-09 107269 -1.56633e-10 4.0749e+06)
(5.02593e+06 -3.37099e+06 -3.15691e-10 -1.58708e+06 -1.28923e-10 1.11629e+06)
(2.96889e+07 776601 -4.88737e-09 2.18686e+06 -3.2299e-09 9.58397e+06)
(6.73999e+06 -4.24824e+06 -5.4825e-09 -3.77813e+06 -1.89441e-09 859380)
(2.06376e+07 -1.28352e+06 2.10162e-09 -479716 5.93507e-10 6.05412e+06)
(2.5069e+07 1.82944e+06 -5.63532e-09 3.14198e+06 -4.23201e-09 8.57557e+06)
(1.82536e+07 -2.26562e+06 -1.03107e-09 -1.63703e+06 -6.4691e-10 5.06948e+06)
(1.33644e+07 -415273 2.44876e-09 1.70762e+06 4.84485e-10 4.52836e+06)
(1.77319e+07 -1.05076e+06 -1.73997e-09 40808.6 1.73896e-09 5.25575e+06)
(1.20811e+07 -3.08225e+06 1.15493e-09 1.05457e+06 1.22408e-09 3.92507e+06)
(1.70013e+07 -2.83543e+06 6.17624e-10 -1.21076e+06 3.98075e-10 4.68878e+06)
(1.0457e+07 -3.00849e+06 1.42353e-09 1.11274e+06 -1.46143e-10 3.51697e+06)
(9.03159e+06 -1.70741e+06 -4.63497e-10 1.71562e+06 5.61135e-10 3.15736e+06)
(9.03452e+06 -3.06835e+06 3.71668e-09 691658 5.63058e-10 2.8448e+06)
(1.93021e+07 -1.47713e+06 -4.49733e-09 -2.51909e+06 -2.83135e-09 4.98703e+06)
(7.61226e+06 -3.22797e+06 -4.28316e-10 30083.8 -2.82645e-10 2.29309e+06)
(1.00568e+06 -1.98206e+06 -1.46191e-10 -8.06556e+06 -9.22929e-11 -2.14571e+06)
(1.39634e+07 -650396 3.58582e-10 252231 -2.81305e-11 4.26256e+06)
(1.39959e+07 -703017 2.02513e-10 262280 9.47302e-10 4.28033e+06)
(2.28782e+07 24340.6 1.94308e-09 -163344 1.11411e-09 6.80885e+06)
(1.33801e+07 -65969.8 -3.21091e-09 140263 -1.39472e-09 4.07016e+06)
(1.37877e+07 -1.42214e+06 7.51719e-10 887534 -1.38438e-09 4.42518e+06)
(1.33402e+07 -537000 3.90327e-09 2.41387e+06 7.91674e-10 4.73378e+06)
(1.1786e+07 -3.68157e+06 -4.88894e-10 337697 -9.699e-11 3.67492e+06)
(7.56017e+06 -70575.1 -1.04206e-09 1.66194e+06 -1.07572e-10 2.76961e+06)
(1.82507e+07 -2.24042e+06 3.31824e-09 -1.4925e+06 1.43606e-09 4.939e+06)
(1.62283e+07 -3.10543e+06 -3.25344e-09 -499018 -1.09054e-09 4.73421e+06)
(1.32176e+07 -3.89698e+06 -3.36155e-09 -521539 -2.09638e-09 3.81331e+06)
(1.34635e+07 -2.45754e+06 0 1.12668e+06 0 4.38847e+06)
(2.03137e+07 -3.73614e+06 -3.983e-09 -979509 -4.22098e-09 5.78529e+06)
(1.55427e+07 -1.38404e+06 -1.899e-10 161307 9.47643e-10 4.73289e+06)
(1.13125e+07 -1.10623e+06 -7.61852e-10 2.20296e+06 3.29702e-10 4.03473e+06)
(1.7871e+07 416965 -4.5379e-09 1.25256e+06 -1.84518e-09 5.75948e+06)
(1.38145e+07 -1.38311e+06 -1.13471e-09 874891 -1.32641e-10 4.38759e+06)
(2.05122e+07 -1.1876e+06 -2.86785e-09 -306871 -5.87261e-10 6.07953e+06)
(1.34252e+07 -963347 -3.36737e-10 1.44804e+06 -6.25001e-10 4.45473e+06)
(1.32795e+07 -1.18048e+06 1.7675e-09 1.99319e+06 5.34737e-10 4.56722e+06)
(1.28562e+07 -2.28455e+06 2.30587e-09 1.49625e+06 7.71774e-10 4.28466e+06)
(1.17562e+07 -3.49563e+06 -1.95437e-09 623968 2.16395e-10 3.70604e+06)
(1.33296e+07 -3.82641e+06 -3.02846e-09 -513109 -1.11767e-09 3.87678e+06)
(1.33044e+07 -390567 1.82457e-09 3.34194e+06 4.96833e-10 4.99617e+06)
(1.27474e+07 -268639 1.33023e-09 2.85256e+06 -2.14649e-10 4.68136e+06)
(1.27828e+07 -188613 1.68999e-09 2.92473e+06 2.00137e-10 4.7183e+06)
(1.28975e+07 -1.01096e+06 1.38671e-09 2.51593e+06 8.41361e-10 4.64704e+06)
(1.28511e+07 -1.6909e+06 8.42947e-10 1.9009e+06 1.26031e-09 4.4241e+06)
(1.33588e+07 -558802 -2.27575e-09 1.80506e+06 -6.55217e-10 4.52432e+06)
(1.33402e+07 -309751 1.20187e-10 3.45241e+06 3.85832e-10 5.0113e+06)
(4.44453e+06 -1.51348e+06 7.96538e-10 -372286 1.2317e-10 1.16122e+06)
(1.41621e+07 -2.54116e+06 -9.23815e-10 807970 8.19334e-10 4.43844e+06)
(1.33104e+07 -868870 -5.41626e-09 2.21913e+06 -3.70606e-10 4.68662e+06)
(1.35249e+07 -4.14458e+06 1.8272e-09 -4.81621e+06 -3.87356e-10 2.75709e+06)
(9.20297e+06 -2.04399e+06 -1.32183e-09 1.59809e+06 -2.95325e-10 3.29186e+06)
(9.40173e+06 -4.47417e+06 3.63559e-09 -5.04336e+06 3.84349e-09 1.4068e+06)
(1.23444e+07 -1.0549e+06 -1.80947e-09 2.3724e+06 -2.607e-10 4.43453e+06)
(1.24119e+07 -959601 1.3891e-09 2.41169e+06 -3.92766e-10 4.43794e+06)
(1.06307e+07 -4.38531e+06 -3.34145e-09 -5.20693e+06 -2.16683e-09 1.51782e+06)
(1.41304e+07 -3.75048e+06 -1.57547e-09 -924313 -9.7428e-11 3.99773e+06)
(1.25199e+07 -3.64197e+06 -5.76795e-10 304760 -6.02546e-10 3.90055e+06)
(1.34247e+07 -446706 -2.62231e-09 824296 -9.17149e-10 4.30852e+06)
(2.66705e+07 2.23341e+06 -3.61084e-10 1.02733e+06 -2.89078e-10 8.25606e+06)
(1.6446e+07 140609 0 -130854 0 4.88335e+06)
(1.72752e+07 -2.41847e+06 -1.87066e-09 -30923.4 -3.86025e-10 5.22683e+06)
(2.61697e+07 1.86746e+06 -2.0714e-09 3.04626e+06 -2.41303e-10 8.59867e+06)
(3.13194e+07 -830032 -1.39964e-08 3.03851e+06 -8.31418e-09 1.05923e+07)
(3.10584e+07 -111232 -9.65525e-09 2.56576e+06 -6.00859e-09 9.98527e+06)
(1.267e+07 -3.57617e+06 4.02984e-09 323133 8.6556e-10 3.88547e+06)
(7.33398e+06 -1.07533e+06 -1.74591e-09 1.45393e+06 -3.97242e-10 2.66317e+06)
(7.66319e+06 -1.31724e+06 -6.51574e-10 1.47959e+06 1.90377e-10 2.67862e+06)
(2.57699e+07 2.33442e+06 1.08631e-08 1.10159e+06 8.76795e-09 8.16121e+06)
(1.08486e+07 -2.78211e+06 0 1.33361e+06 0 3.70208e+06)
(8.72785e+06 -3.04924e+06 -2.14587e-09 726091 -5.02288e-11 2.90522e+06)
(1.65277e+07 -2.35896e+06 3.11942e-09 175358 -5.86132e-11 4.9858e+06)
(1.58869e+07 -1.10186e+06 2.12544e-10 96621.7 1.98185e-09 4.75372e+06)
(1.35926e+07 -3.99422e+06 1.1176e-08 -5.07353e+06 4.79776e-09 2.45502e+06)
(9.08416e+06 -490770 -1.73266e-09 2.01301e+06 -1.73145e-10 3.31114e+06)
(1.73081e+07 -2.70992e+06 1.0195e-09 -823286 -9.69576e-10 4.86874e+06)
(2.01945e+07 120836 2.81249e-09 7063.34 1.80107e-09 6.06841e+06)
(1.42662e+07 -427438 2.02206e-09 49527.8 -2.11314e-10 4.28137e+06)
(1.30325e+07 -3.30173e+06 -1.38226e-09 680427 -1.69977e-09 4.12127e+06)
(1.69469e+07 -2.58587e+06 2.85375e-09 -16526.8 -3.93577e-10 5.03468e+06)
(-1.25666e+06 -307541 2.32532e-09 -1.02211e+07 4.03493e-09 -3.53191e+06)
(1.61582e+07 -2.10511e+06 -2.58048e-09 218244 6.86086e-10 4.93335e+06)
(206929 -1.33855e+06 4.17962e-09 -8.12813e+06 4.40376e-09 -2.29403e+06)
(1.44004e+07 -4.01659e+06 5.01908e-09 -3.89445e+06 2.71164e-09 3.10485e+06)
(1.8061e+07 -2.79882e+06 -5.6184e-09 -4.68199e+06 -2.61418e-09 3.92655e+06)
(1.32403e+07 -92774.4 -2.41108e-09 3.78752e+06 -4.84912e-10 5.10605e+06)
(1.33681e+07 -22286.8 -1.96053e-09 16569.5 -8.44733e-10 4.01429e+06)
(2.16149e+07 92497.5 3.33046e-09 -3.37813e+06 2.12891e-09 5.54039e+06)
(1.35205e+07 -734232 2.49323e-10 889583 1.45954e-09 4.29466e+06)
(1.10091e+07 -2.80944e+06 0 1.30713e+06 0 3.6904e+06)
(1.3154e+07 -1.58144e+06 -1.32953e-09 1.81995e+06 8.22055e-10 4.46184e+06)
(1.30982e+07 -1.5956e+06 1.62733e-09 1.82753e+06 -2.15713e-10 4.51005e+06)
(1.28377e+07 -2.15444e+06 -2.6813e-09 1.59345e+06 -1.08162e-09 4.28999e+06)
(1.78523e+07 -2.42734e+06 -3.40762e-09 -1.97528e+06 -1.91935e-09 4.65674e+06)
(2.08273e+07 2.44106e+06 -9.5288e-09 -392674 -8.37066e-09 6.1432e+06)
(1.1791e+07 -2.71519e+06 -2.08493e-09 1.38243e+06 1.48255e-10 3.95146e+06)
(1.33647e+07 -167932 0 1.44974e+06 0 4.43706e+06)
(1.33803e+07 -510376 1.78459e-09 1.82826e+06 4.70098e-10 4.58336e+06)
(-492555 1.88664e+06 -1.9127e-09 -1.32218e+07 -2.94809e-10 -4.19077e+06)
(1.7522e+07 -2.73304e+06 3.28149e-09 -856477 1.23252e-09 5.01157e+06)
(7.51878e+06 -3.22145e+06 0 36605.9 0 2.24666e+06)
(1.41988e+07 -474088 0 81589.4 0 4.28521e+06)
(2.07597e+07 -1.11531e+06 -2.14781e-10 -333032 8.63502e-10 6.10865e+06)
(1.13167e+07 -770454 0 2.28201e+06 0 4.05032e+06)
(2.39333e+07 2.94047e+06 -2.13941e-09 1.02267e+06 -1.74296e-09 7.53604e+06)
(1.25667e+07 -1.16882e+06 -5.19864e-11 2.33991e+06 1.15272e-10 4.49979e+06)
(7.20766e+06 -3.82431e+06 -4.31786e-10 -5.72675e+06 4.40439e-09 432492)
(7.60332e+06 -2.962e+06 -1.10925e-09 461904 -3.49855e-10 2.45254e+06)
(2.03733e+06 -2.61953e+06 -4.39897e-09 -5.45718e+06 -1.73278e-09 -992211)
(2.18998e+07 2.40944e+06 4.96372e-09 -1.27518e+06 3.78491e-09 6.23792e+06)
(7.7023e+06 -2.72243e+06 1.72998e-09 586948 -2.3869e-12 2.45955e+06)
(1.27009e+07 -205702 1.0881e-09 2.81461e+06 1.12614e-09 4.65729e+06)
(1.32035e+07 -519694 6.36473e-10 3.12083e+06 4.07549e-10 4.90324e+06)
(1.32885e+07 -351779 1.49615e-09 3.47403e+06 4.24028e-10 5.01527e+06)
(8.86418e+06 -2.57137e+06 -1.54947e-09 1.15826e+06 -1.93736e-11 3.01771e+06)
(1.17935e+07 -3.00904e+06 -2.06552e-09 1.13554e+06 -1.43103e-09 3.88631e+06)
(2.21044e+07 365294 7.07541e-09 -510207 5.06117e-09 6.41966e+06)
(8.86978e+06 -2.45152e+06 1.15793e-09 1.23862e+06 6.9963e-10 2.93275e+06)
(1.90638e+07 -493401 -1.63036e-09 -42197.8 -1.46022e-09 5.64033e+06)
(2.1951e+07 2.96623e+06 -8.55793e-10 1.19788e+06 -1.1302e-09 6.94513e+06)
(2.58996e+07 2.46816e+06 -5.62475e-09 2.17628e+06 -4.19377e-09 8.49137e+06)
(1.37123e+07 -147207 -3.31334e-09 24226.5 -1.15751e-09 4.14269e+06)
(1.2825e+07 -165279 -1.7115e-09 2.92463e+06 -1.11706e-10 4.70925e+06)
(1.61842e+07 -1.36471e+06 -8.92933e-09 119647 -9.1633e-10 4.90047e+06)
(1.47262e+07 -3.57866e+06 -2.52722e-09 -513595 -1.74415e-09 4.2317e+06)
(2.32115e+07 2.68129e+06 6.60959e-09 2.11115e+06 5.625e-09 7.51199e+06)
(1.84876e+07 1.15407e+06 1.49344e-09 1.55123e+06 1.59598e-09 6.09018e+06)
(1.01443e+07 -149595 2.0785e-09 2.20193e+06 5.70754e-10 3.69896e+06)
(1.29911e+07 -3.49902e+06 -2.83155e-11 414605 5.38924e-10 3.97957e+06)
(1.27906e+07 -3.55608e+06 1.83316e-09 444791 6.61225e-11 3.97066e+06)
(1.3605e+07 -760891 4.1368e-10 683743 1.68128e-09 4.31334e+06)
(1.2583e+07 -4.28475e+06 5.41317e-09 -4.46002e+06 2.94255e-09 2.4816e+06)
(1.59788e+07 -3.34368e+06 -4.27691e-09 -4.44378e+06 -3.97571e-09 3.61011e+06)
(1.32895e+07 -47301 2.50316e-09 3.98543e+06 4.75787e-10 5.17354e+06)
(1.33374e+07 -1708.5 1.49496e-09 5826.67 1.06059e-09 4.00558e+06)
(2.29908e+07 2.12244e+06 2.88517e-09 2.42901e+06 1.7267e-09 7.54469e+06)
(1.75649e+07 -1.32226e+06 0 60451.6 0 5.30173e+06)
(196167 -1.33327e+06 -7.05316e-09 -8.30186e+06 -5.58793e-09 -2.31332e+06)
(1.35613e+07 -567260 2.83652e-09 559669 -6.35105e-10 4.25689e+06)
(1.2667e+07 -605857 -3.60468e-10 2.66502e+06 3.04887e-10 4.59134e+06)
(1.54705e+07 -2.84752e+06 3.22273e-09 275457 3.2012e-09 4.67758e+06)
(1.25796e+07 -3.11085e+06 5.29418e-09 980269 8.0327e-10 4.09623e+06)
(7.437e+06 -2.10256e+06 -1.71481e-09 1.0352e+06 -3.71136e-10 2.60651e+06)
(1.07255e+07 -3.06621e+06 1.67535e-09 1.07354e+06 -1.66253e-10 3.49242e+06)
(1.03445e+07 -2.67833e+06 2.29255e-09 1.3674e+06 -4.35602e-11 3.52481e+06)
(-1.07182e+06 1.36009e+06 -8.70827e-11 -1.55114e+07 -1.74721e-10 -5.024e+06)
(1.0436e+07 -2.94792e+06 2.14976e-09 1.13301e+06 4.87919e-10 3.46749e+06)
(2.7552e+07 1.08661e+06 5.74899e-09 1.37296e+06 4.67407e-09 8.70457e+06)
(1.75934e+07 -2.59304e+06 -3.72767e-09 -1.19666e+06 -1.89841e-09 4.84633e+06)
(1.7237e+07 -2.83568e+06 -3.72772e-09 -1.25016e+06 -1.92024e-09 4.88769e+06)
(9.54235e+06 -2.25928e+06 -2.51503e-09 1.54266e+06 1.84725e-10 3.31448e+06)
(1.94205e+07 -1.34171e+06 1.71996e-10 -2.45429e+06 1.09641e-10 5.07136e+06)
(1.57045e+07 -1.19564e+06 -5.86537e-09 101403 -2.58679e-09 4.78562e+06)
(1.32198e+07 -101192 4.00188e-09 3.54202e+06 -6.68438e-10 5.03577e+06)
(1.33921e+07 -28444.7 -5.12869e-10 23156.6 -1.82596e-10 4.02513e+06)
(1.83921e+07 864018 -3.84966e-09 1.43232e+06 -8.86144e-10 6.01064e+06)
(1.74621e+07 -2.11391e+06 -5.20132e-09 44333.2 -5.4805e-10 5.30055e+06)
(1.77796e+07 -2.47864e+06 -4.68156e-11 -1.78757e+06 -2.78255e-10 4.87914e+06)
(4.21897e+06 -2.7594e+06 5.03773e-09 -6.52549e+06 1.68326e-09 -848279)
(1.30874e+07 -4.22895e+06 -1.82046e-09 -2.49623e+06 -8.20551e-10 3.25297e+06)
(2.1023e+07 189178 3.11455e-09 -2.57677e+06 2.15991e-09 5.57964e+06)
(2.0683e+07 -1.14065e+06 -4.02844e-09 -554430 -3.0393e-09 6.07368e+06)
(1.79217e+07 -1.85197e+06 2.15261e-09 1605.64 3.31903e-09 5.3415e+06)
(1.33452e+07 -616251 1.78471e-09 2.15435e+06 8.58344e-11 4.68851e+06)
(-1.0429e+06 549239 1.24259e-09 -1.57702e+07 1.14108e-09 -5.20273e+06)
(1.20679e+07 -3.16592e+06 2.62847e-09 988745 1.2165e-10 3.93596e+06)
(2.05109e+07 -757756 -8.58304e-10 -1.26804e+06 -4.53258e-10 5.71972e+06)
(2.8297e+07 -162099 -2.15518e-09 4.47493e+06 -1.25069e-09 9.87528e+06)
(2.37299e+06 -1.08371e+06 1.14513e-09 -2.18902e+06 1.06974e-09 3528.15)
(1.3371e+07 -158188 -1.97608e-09 1.62614e+06 -5.01166e-10 4.52101e+06)
(1.33807e+07 -384651 -8.51167e-10 1.94886e+06 1.77204e-10 4.61882e+06)
(1.3663e+07 -773446 -2.33256e-09 597139 -6.62644e-10 4.30807e+06)
(1.74529e+07 -1.18954e+06 -7.36384e-10 73403.1 -1.10176e-09 5.29832e+06)
(1.99303e+06 -1.40872e+06 0 -2.20831e+06 0 -19957.3)
(1.04332e+07 -2.84045e+06 2.4126e-09 1.24998e+06 9.70913e-10 3.5335e+06)
(1.92567e+07 2.47898e+06 2.82608e-09 678252 2.47962e-09 6.08181e+06)
(1.85391e+07 2.43038e+06 4.52099e-09 134642 5.14373e-09 5.7301e+06)
(1.47643e+07 -3.65592e+06 3.90583e-10 -1.24291e+06 5.93409e-10 3.97166e+06)
(1.47261e+07 -3.7039e+06 5.85993e-11 -1.11546e+06 5.18597e-10 4.17153e+06)
(1.3374e+07 -322941 -2.53019e-09 1.37496e+06 -8.95825e-10 4.39869e+06)
(2.1273e+07 -841128 1.37959e-09 -76431.8 2.57389e-09 6.28901e+06)
(1.09874e+07 -3.48559e+06 -6.60587e-09 590249 -1.64063e-09 3.54187e+06)
(1.35781e+07 -345832 4.55539e-10 269628 1.39276e-09 4.17257e+06)
(7.7375e+06 -4.1305e+06 3.89146e-09 -1.46609e+06 1.24109e-09 1.89726e+06)
(7.92006e+06 -4.41642e+06 1.87877e-09 -3.72595e+06 8.44638e-10 1.1799e+06)
(1.75933e+07 -2.20578e+06 3.82869e-09 -23040.8 -5.4822e-10 5.20856e+06)
(2.11992e+07 -794341 5.02792e-09 -3.63069e+06 3.79492e-09 5.30054e+06)
(7.31139e+06 -4.61832e+06 4.31247e-09 -3.67173e+06 1.96689e-09 1.1326e+06)
(1.31692e+07 -542214 -4.07485e-10 3.10606e+06 4.64644e-10 4.86079e+06)
(1.30983e+07 -606785 -3.15762e-09 2.96212e+06 -2.30337e-10 4.795e+06)
(2.45553e+07 2.81568e+06 1.65457e-08 -148333 1.44165e-08 7.25653e+06)
(2.20075e+07 746274 8.92555e-10 -782080 4.68062e-10 6.4044e+06)
(8.93734e+06 -4.11899e+06 1.24967e-09 -818961 2.39199e-10 2.4562e+06)
(1.19603e+07 -3.08146e+06 -2.0069e-09 1.11723e+06 -1.35865e-09 3.90035e+06)
(2.74874e+07 1.41769e+06 -5.84024e-10 713809 5.41643e-11 8.32796e+06)
(1.31201e+07 -503745 9.72178e-10 3.15275e+06 -1.98928e-10 4.87589e+06)
(5.90606e+06 -1.80285e+06 2.01378e-09 390754 7.81616e-10 1.8081e+06)
(5.9403e+06 -1.82231e+06 0 633724 0 2.06474e+06)
(1.4767e+07 -1.56855e+06 -1.10547e-09 360802 -1.64766e-09 4.54186e+06)
(1.1993e+07 -1.33777e+06 -2.72368e-09 2.18476e+06 -1.02366e-09 4.25512e+06)
(1.03849e+07 -2.59901e+06 9.35678e-10 1.41455e+06 -5.36623e-11 3.56603e+06)
(1.27732e+07 -1.67808e+06 7.05607e-11 1.93646e+06 9.8552e-11 4.42542e+06)
(1.33471e+07 -36466.1 -3.85259e-10 4.21921e+06 -3.26904e-10 5.26922e+06)
(1.33781e+07 5715.43 -3.37856e-10 6085.18 -1.14728e-09 4.01348e+06)
(8.29455e+06 -2.45344e+06 3.91787e-09 1.09438e+06 3.45632e-10 2.8006e+06)
(1.02323e+07 -37037.1 2.53961e-10 2.23955e+06 2.84831e-10 3.73475e+06)
(1.38026e+07 -4.04303e+06 -2.52843e-09 -5.06271e+06 -2.8053e-09 2.50833e+06)
(1.2178e+07 -3.88593e+06 4.55441e-10 -360963 5.84188e-10 3.49093e+06)
(9.19068e+06 -1.34838e+06 8.83506e-10 1.89159e+06 -3.13438e-10 3.37186e+06)
(4.38317e+06 -2.79171e+06 -6.68003e-10 -1.46889e+06 -2.31915e-10 812937)
(7.33559e+06 -1.03146e+06 -1.20268e-09 1.46333e+06 -1.06338e-10 2.62447e+06)
(6.67235e+06 -1.27613e+06 9.23358e-10 1.01383e+06 1.94049e-10 2.25433e+06)
(6.30183e+06 -1.12248e+06 1.08745e-09 1.0698e+06 2.31366e-10 2.30406e+06)
(1.03241e+07 -2.41978e+06 1.41817e-09 1.52717e+06 3.86419e-10 3.52145e+06)
(1.48891e+07 -1.44222e+06 3.43431e-09 316254 2.02075e-09 4.49853e+06)
(1.19021e+07 -1.21149e+06 1.53475e-09 2.21798e+06 3.72301e-10 4.29513e+06)
(1.05027e+07 -4.27074e+06 -1.34644e-09 -1.50065e+06 -5.6481e-10 2.68716e+06)
(1.47989e+07 -1.62853e+06 5.11702e-09 377359 -5.92994e-10 4.55102e+06)
(1.19693e+07 -1.39425e+06 -3.9324e-10 2.14285e+06 -1.07978e-09 4.23124e+06)
(1.42854e+07 -3.48048e+06 1.61367e-09 24817.7 1.19198e-09 4.3185e+06)
(1.46158e+07 -3.44982e+06 9.10377e-09 -44863.6 4.16592e-09 4.32237e+06)
(2.05902e+07 570855 -4.2988e-09 -32192.8 -3.70712e-09 6.19434e+06)
(1.5029e+07 -2.28251e+06 -1.88412e-09 446211 3.70782e-10 4.67377e+06)
(1.34081e+07 -422715 -7.18739e-10 891197 -8.23828e-10 4.26092e+06)
(1.02639e+07 -2.53843e+06 -1.30551e-09 1.47511e+06 -4.12018e-11 3.53418e+06)
(6.2043e+06 -65661.7 -1.00921e-11 1.1443e+06 2.43042e-10 2.20888e+06)
(1.40465e+07 -1.1993e+06 -2.31769e-09 532093 -4.22945e-10 4.39963e+06)
(7.9282e+06 -1.67441e+06 -2.83095e-09 1.44774e+06 -1.0322e-10 2.82043e+06)
(8.6356e+06 -4.26485e+06 2.88014e-09 -1.65338e+06 9.62478e-10 2.01623e+06)
(7.96839e+06 -4.16403e+06 -6.04665e-10 -1.56858e+06 -1.76488e-10 1.99847e+06)
(1.72521e+07 -2.32983e+06 -3.62335e-09 -16541.4 -4.73406e-10 5.15611e+06)
(4.11073e+07 -6.90347e+06 -4.72023e-09 3.56853e+06 -2.6162e-09 1.42968e+07)
(1.34925e+07 -657428 3.19401e-09 830493 5.51015e-10 4.30606e+06)
(2.32628e+07 459715 5.23406e-10 -109475 3.56694e-10 7.02775e+06)
(2.365e+07 210622 9.31815e-12 -51212.5 2.99483e-11 7.00851e+06)
(1.89836e+07 -1.74556e+06 1.43417e-11 -3.77802e+06 5.24309e-10 4.4642e+06)
(5.5893e+06 -3.31522e+06 3.71129e-09 -1.11622e+06 1.10869e-09 1.38395e+06)
(1.32916e+07 -67797.6 2.01334e-10 3.76102e+06 -1.26385e-10 5.10877e+06)
(1.33976e+07 -9376.39 1.375e-09 14184.5 -1.96663e-09 4.02781e+06)
(9.77788e+06 -3.914e+06 -5.45504e-11 -202945 -4.26425e-13 2.92499e+06)
(1.79198e+07 -2.55169e+06 5.93563e-11 -4.54742e+06 2.33264e-10 3.83394e+06)
(5.69663e+06 -2.96428e+06 -3.79316e-09 -833496 -1.125e-09 1.3729e+06)
(1.14089e+07 -3.96934e+06 1.14742e-08 -1.29812e+06 4.645e-09 3.55483e+06)
(1.65622e+07 -2.44907e+06 5.19527e-09 152392 2.06042e-09 5.01416e+06)
(1.50661e+07 -1.4041e+06 2.03021e-09 238744 -1.84361e-09 4.63624e+06)
(1.17431e+07 -1.14814e+06 0 2.22051e+06 0 4.15071e+06)
(1.88447e+07 -1.84263e+06 -4.41215e-09 -3.61346e+06 -2.4622e-09 4.69753e+06)
(2.69237e+06 -3.17364e+06 -3.68158e-09 -4.80163e+06 -5.43657e-10 -594211)
(1.33405e+07 -113540 -1.46274e-09 4.08023e+06 1.38697e-11 5.23819e+06)
(1.33851e+07 -14182.6 4.38099e-09 33215.6 1.98453e-10 4.02338e+06)
(2.03226e+07 3.06742e+06 7.36016e-09 192676 6.61192e-09 6.05707e+06)
(2.11842e+07 -705084 7.77837e-09 -3.82158e+06 5.01285e-09 5.12285e+06)
(1.0024e+07 -645657 3.59529e-10 2.14333e+06 -9.19565e-10 3.69564e+06)
(2.21472e+07 571198 -4.30609e-09 -2.93124e+06 -3.06043e-09 5.74639e+06)
(2.01626e+07 2.34734e+06 -4.68674e-09 1.07327e+06 -4.00594e-09 6.39978e+06)
(1.2273e+07 -3.67451e+06 5.49996e-10 267944 6.05772e-10 3.74447e+06)
(1.26096e+07 -693632 -5.09116e-10 2.62522e+06 -1.04592e-09 4.57645e+06)
(2.04584e+07 -744632 -3.28083e-09 -1.23645e+06 -2.13569e-09 5.84391e+06)
(-1.02044e+06 -428538 -9.92025e-10 -1.03932e+07 -2.03877e-09 -3.37637e+06)
(1.44782e+07 -2.3996e+06 2.16846e-09 645936 -2.39425e-11 4.56461e+06)
(1.93237e+07 2.17655e+06 -1.5757e-09 1.26817e+06 -1.17699e-09 6.16506e+06)
(1.73585e+07 -1.26175e+06 1.00603e-09 55640.5 1.17453e-09 5.16497e+06)
(2.00641e+07 2.96217e+06 2.39535e-09 403417 2.25158e-09 6.07625e+06)
(1.31167e+07 -437003 -2.34779e-10 3.09898e+06 -4.05339e-12 4.84868e+06)
(2.33109e+07 146773 2.24106e-09 -198818 1.5542e-09 6.92754e+06)
(1.96586e+07 -1.28406e+06 -4.58002e-09 -1.54287e+06 -2.73941e-09 5.4893e+06)
(1.9836e+07 -1.48246e+06 -2.48718e-09 -815666 -1.50244e-09 5.69237e+06)
(1.33523e+07 -938726 0 1.88738e+06 0 4.5356e+06)
(2.06706e+07 2.33189e+06 -2.31206e-09 -311909 -2.72132e-09 6.03635e+06)
(1.4098e+07 -1.31745e+06 4.2835e-09 556954 3.98376e-10 4.42921e+06)
(1.51549e+07 -2.24887e+06 -6.33499e-09 428351 -1.16515e-09 4.64748e+06)
(-1.18899e+06 -69609.4 2.90256e-10 -1.43175e+07 -7.4009e-10 -4.77433e+06)
(1.44884e+07 -2.33614e+06 -2.62925e-09 649171 3.34839e-10 4.5129e+06)
(1.3385e+07 -35499.9 1.06628e-10 2.50547e+06 -1.39579e-10 4.76513e+06)
(-1.40981e+06 170661 9.06717e-10 -1.25051e+07 1.32007e-09 -4.40398e+06)
(1.5181e+07 -2.9159e+06 1.28214e-09 326032 -4.49742e-10 4.70583e+06)
(3.64557e+07 -3.52013e+06 -1.23815e-08 3.47538e+06 -5.62458e-09 1.18388e+07)
(3.89798e+06 -2.71613e+06 2.35559e-09 -1.8639e+06 8.98686e-10 585321)
(2.2937e+07 3.15621e+06 1.57347e-09 739112 1.15245e-09 7.02703e+06)
(2.19568e+07 2.31867e+06 -1.8994e-09 -1.31297e+06 -3.02758e-09 6.13918e+06)
(2.77797e+06 -2.7908e+06 6.33151e-09 -6.42275e+06 3.33927e-09 -1.04325e+06)
(3.85422e+06 -395492 4.97544e-11 -102928 2.07571e-10 1.21658e+06)
(1.29111e+07 -3.94919e+06 1.1298e-08 -5.01053e+06 2.39048e-09 2.49561e+06)
(1.96893e+07 -1.67181e+06 2.85602e-09 -538172 1.60719e-09 5.78418e+06)
(1.50635e+07 -2.1521e+06 -1.08747e-09 433993 1.55806e-09 4.62973e+06)
(1.6262e+07 -3.50869e+06 -6.45663e-09 -4.58027e+06 -4.58156e-09 3.3568e+06)
(2.07069e+07 2.60839e+06 -1.09687e-09 -383646 -2.82843e-11 6.11684e+06)
(3.06722e+07 -755744 5.56805e-09 2.4361e+06 3.41855e-09 9.79187e+06)
(1.35675e+07 -242692 5.32805e-09 150610 1.83253e-09 4.14489e+06)
(1.35594e+07 -227735 -1.33633e-10 152214 -8.16452e-10 4.10732e+06)
(6.00653e+06 -2.13402e+06 -2.47213e-09 252416 -4.59056e-10 1.83646e+06)
(5.65263e+06 -2.04642e+06 -6.03885e-10 329455 1.9232e-11 1.87394e+06)
(1.95416e+07 1.05544e+06 0 1.46475e+06 0 6.22562e+06)
(2.05459e+07 2.56026e+06 4.55061e-09 -278197 5.93181e-09 6.01947e+06)
(3.16554e+07 594685 7.86174e-10 3.86167e+06 1.15732e-09 1.04109e+07)
(1.16681e+07 -2.69329e+06 -1.73327e-09 1.43911e+06 -5.32644e-10 3.9424e+06)
(1.33684e+07 -88120 3.15842e-09 231248 -9.03974e-10 4.06367e+06)
(9.60041e+06 -3.13841e+06 -1.64418e-09 868991 -6.31872e-10 3.18911e+06)
(866763 -2.11481e+06 -2.5495e-09 -7.04291e+06 -2.18843e-09 -1.84401e+06)
(2.12313e+07 -953499 -1.22731e-08 -168853 -5.18389e-09 6.28308e+06)
(1.35725e+07 -3.92636e+06 8.22464e-10 -1.01427e+06 -4.1841e-10 3.74366e+06)
(9.61842e+06 -2.95807e+06 1.51933e-09 1.00219e+06 6.67682e-10 3.13493e+06)
(3.80774e+06 -3.00896e+06 1.54657e-09 -2.08878e+06 6.71477e-10 472179)
(3.98615e+07 -1.42025e+06 0 4.27585e+06 0 1.33588e+07)
(1.48213e+07 -2.77398e+06 0 518741 0 4.57887e+06)
(1.49609e+07 -2.75819e+06 0 462143 0 4.61233e+06)
(1.96573e+07 -1.34637e+06 -1.47678e-09 -1.55996e+06 -6.70136e-10 5.40756e+06)
(2.05224e+07 -492159 -2.05651e-08 -1.84433e+06 -1.37629e-08 5.52303e+06)
(2.176e+07 1.60656e+06 -5.25916e-09 -737589 -4.45648e-09 6.3586e+06)
(2.25714e+07 2.53427e+06 0 -1.47388e+06 0 6.39275e+06)