/*--------------------------------*- C++ -*----------------------------------*\
| =========                 |                                                 |
| \\      /  F ield         | OpenFOAM: The Open Source CFD Toolbox           |
|  \\    /   O peration     | Version:  v2012                                 |
|   \\  /    A nd           | Website:  www.openfoam.com                      |
|    \\/     M anipulation  |                                                 |
\*---------------------------------------------------------------------------*/
FoamFile
{
    version     2.0;
    format      ascii;
    class       pointScalarField;
    location    "11";
    object      pEpsilonEq;
}
// * * * * * * * * * * * * * * * * * * * * * * * * * * * * * * * * * * * * * //

dimensions      [0 0 0 0 0 0 0];


internalField   nonuniform List<scalar> 
2014
(
0.00201805
0.000900721
0.00132322
0.000826218
0.0106286
0.00201805
0.000900721
0.00132322
0.000826218
0.0106286
0.00144408
0.001004
0.000718088
0.000518094
0.000427662
0.000378039
0.00035982
0.000361363
0.000403809
0.000436562
0.000471092
0.000520216
0.000561331
0.000614068
0.000654402
0.000701364
0.000745891
0.000785409
0.00082217
0.000862676
0.000896812
0.000923076
0.000943608
0.000960526
0.00097265
0.000978802
0.000969923
0.000951288
0.000928107
0.000907609
0.000917566
0.000928302
0.000942128
0.00097141
0.00099231
0.00101519
0.00105359
0.0010907
0.00112901
0.00116203
0.00119313
0.00123281
0.00125999
0.00128404
0.00130903
0.00131873
0.0013259
0.0013255
0.00132024
0.00132014
0.00132778
0.00133708
0.00136307
0.00139555
0.00142567
0.00147792
0.00152187
0.00157767
0.00164597
0.00170305
0.00176751
0.00185079
0.00192622
0.0019997
0.00209695
0.00217048
0.00226025
0.00230604
0.00244203
0.00249806
0.00258504
0.00262918
0.00270183
0.00275502
0.00275608
0.00276368
0.00272652
0.00265347
0.00258602
0.00244331
0.00225259
0.00208212
0.00184129
0.00150142
0.00130325
0.00105488
0.00094458
0.00134934
0.00176137
0.00198704
0.00230559
0.00269931
0.00362739
0.00617773
0.00882727
0.00958451
0.0120396
0.0115287
0.00671226
0.00345093
0.00252819
0.0018483
0.00129349
0.000751343
0.000442878
0.000683131
0.00110587
0.00137705
0.00170968
0.00197141
0.00212261
0.00144408
0.001004
0.000718088
0.000518094
0.000427662
0.000378039
0.00035982
0.000361363
0.000403809
0.000436562
0.000471092
0.000520216
0.000561331
0.000614068
0.000654402
0.000701364
0.000745891
0.000785409
0.00082217
0.000862676
0.000896812
0.000923076
0.000943608
0.000960526
0.00097265
0.000978802
0.000969923
0.000951288
0.000928107
0.000907609
0.000917566
0.000928302
0.000942128
0.00097141
0.00099231
0.00101519
0.00105359
0.0010907
0.00112901
0.00116203
0.00119313
0.00123281
0.00125999
0.00128404
0.00130903
0.00131873
0.0013259
0.0013255
0.00132024
0.00132014
0.00132778
0.00133708
0.00136307
0.00139555
0.00142567
0.00147792
0.00152187
0.00157767
0.00164597
0.00170305
0.00176751
0.00185079
0.00192622
0.0019997
0.00209695
0.00217048
0.00226025
0.00230604
0.00244203
0.00249806
0.00258504
0.00262918
0.00270183
0.00275502
0.00275608
0.00276368
0.00272652
0.00265347
0.00258602
0.00244331
0.00225259
0.00208212
0.00184129
0.00150142
0.00130325
0.00105488
0.00094458
0.00134934
0.00176137
0.00198704
0.00230559
0.00269931
0.00362739
0.00617773
0.00882727
0.00958451
0.0120396
0.0115287
0.00671226
0.00345093
0.00252819
0.0018483
0.00129349
0.000751343
0.000442878
0.000683131
0.00110587
0.00137705
0.00170968
0.00197141
0.00212261
0.00169277
0.00130095
0.0023391
0.00165571
0.00109222
0.00134782
0.00108065
0.0029829
0.00120165
0.00214823
0.00156992
0.00100285
0.000946474
0.0018448
0.00119286
0.00198097
0.00150202
0.00135916
0.00255455
0.00237405
0.00177686
0.0014839
0.00240681
0.00199057
0.00100406
0.00133089
0.000971829
0.000813473
0.0014096
0.00252305
0.00119539
0.0017767
0.000725821
0.00362454
0.000741377
0.00108312
0.0012489
0.0013596
0.000896631
0.00109259
0.00127473
0.00152836
0.00168194
0.00118151
0.00222982
0.00257459
0.00121971
0.00197046
0.00141082
0.00184586
0.000990382
0.00129165
0.00168564
0.000835208
0.00220079
0.00194889
0.00239663
0.00255827
0.00103896
0.00249625
0.000626699
0.00141861
0.00149955
0.00220584
0.00198961
0.00251427
0.00145887
0.00179907
0.00158066
0.00327951
0.00113529
0.00145546
0.0021919
0.00088938
0.00115153
0.00100967
0.00128231
0.00241208
0.00131596
0.000636574
0.00180496
0.00120997
0.000675707
0.000966032
0.000958283
0.00132518
0.00164019
0.00126317
0.0011763
0.00163577
0.0013616
0.00118637
0.00108348
0.00148834
0.00248766
0.00162327
0.00105041
0.00130893
0.0014165
0.00131949
0.00188544
0.0022703
0.000929088
0.00170209
0.00190908
0.00269249
0.00264911
0.00180118
0.00205715
0.00123911
0.00147043
0.00238001
0.0013701
0.00160083
0.00053471
0.0010144
0.00107946
0.000985168
0.000947436
0.00101242
0.00253213
0.000746143
0.00227993
0.00280917
0.00766752
0.00111688
0.00181057
0.00216321
0.00322519
0.00091108
0.00180707
0.00154136
0.00136793
0.00116332
0.0012214
0.00110225
0.000882374
0.000536046
0.00142276
0.00158406
0.00123406
0.00236698
0.00350641
0.00245111
0.00102157
0.0016874
0.000974522
0.00130659
0.00109414
0.000784979
0.00156628
0.000846197
0.00246257
0.00303949
0.00190632
0.00213943
0.00107306
0.00091508
0.0043006
0.00190765
0.00135352
0.00207221
0.00232631
0.00123569
0.00183053
0.00142294
0.00103702
0.00147537
0.00047533
0.00223775
0.0011389
0.00208432
0.00071638
0.0012222
0.00152275
0.00107244
0.00218507
0.00134268
0.00106719
0.00110138
0.00110609
0.00234625
0.00169578
0.00126668
0.00146757
0.00106162
0.00165896
0.0014503
0.00126618
0.001561
0.00202577
0.000826845
0.00215945
0.00152936
0.00125707
0.00254594
0.00203771
0.00233398
0.00185598
0.0025801
0.00205195
0.00136831
0.00200532
0.00118594
0.000903511
0.00138026
0.00128922
0.00141859
0.00185765
0.00126098
0.00103137
0.00211411
0.00101191
0.00115816
0.00193
0.00097371
0.00248469
0.00189112
0.00114743
0.00130279
0.00252949
0.000591279
0.0019033
0.00212224
0.00261088
0.00136623
0.00075891
0.00136575
0.000768727
0.00133773
0.00229218
0.00223228
0.00161959
0.000980796
0.00237358
0.0023106
0.00294807
0.0017495
0.000669691
0.000975623
0.00145172
0.00177788
0.00255432
0.000941531
0.00182795
0.0016206
0.00114828
0.00146587
0.00252913
0.00272114
0.00165886
0.00128996
0.00149044
0.000424017
0.00143859
0.00157444
0.000928815
0.000948961
0.00107591
0.00116679
0.00162015
0.00252144
0.00136014
0.00120677
0.00145484
0.00254144
0.000824528
0.00133564
0.00119957
0.000832881
0.000710797
0.00169294
0.000944036
0.00132314
0.00100203
0.00227402
0.00177041
0.00153668
0.00134292
0.00280629
0.00178802
0.000877033
0.00115757
0.00163959
0.00216352
0.00105697
0.00127247
0.00248279
0.00114182
0.00332519
0.00102775
0.00130504
0.00151436
0.000887368
0.00125363
0.000480997
0.00138779
0.00160768
0.00109506
0.00189685
0.00118082
0.00143937
0.000956732
0.00260598
0.00138405
0.000974846
0.00129216
0.00241936
0.0013357
0.00100126
0.00206363
0.000720628
0.001123
0.000762003
0.00344184
0.00143856
0.00100549
0.00133188
0.00175826
0.00189275
0.00163363
0.00146435
0.00210979
0.000945196
0.00131769
0.0022321
0.00098687
0.00192544
0.000849379
0.0013331
0.00111457
0.00111987
0.00231375
0.00132912
0.00131998
0.000413571
0.000921892
0.00105524
0.00327189
0.00238452
0.00205469
0.00124642
0.00307368
0.00106128
0.00714179
0.00248948
0.00155197
0.000503831
0.00255225
0.00236783
0.00157228
0.00176593
0.00212267
0.0015044
0.000709333
0.000926564
0.00204273
0.00129546
0.000861301
0.00130459
0.0019896
0.00156869
0.000683518
0.000903129
0.00174142
0.000741481
0.00659937
0.000990611
0.00200904
0.00246735
0.00158864
0.000602378
0.00126572
0.00257645
0.00170298
0.000655913
0.00208199
0.00207643
0.00188476
0.00123791
0.00134116
0.00122349
0.00111396
0.00244109
0.00112528
0.00122578
0.00218272
0.00128298
0.00248251
0.000944262
0.0017541
0.00159576
0.00125512
0.00166365
0.00146394
0.000580419
0.00290474
0.00141906
0.0015338
0.00233003
0.00138554
0.0024874
0.00118921
0.00133698
0.00183151
0.000863372
0.00435997
0.00172061
0.00169931
0.00102874
0.00189257
0.00234354
0.00084182
0.00249971
0.00149282
0.00106785
0.00162905
0.00132711
0.00106471
0.00172449
0.00185863
0.00232224
0.00247283
0.00239373
0.00137346
0.000974516
0.00144871
0.00100748
0.00123215
0.00117268
0.000988861
0.00268379
0.00183117
0.000956129
0.001319
0.0026509
0.00106884
0.00108521
0.00134403
0.00119342
0.00170786
0.000977036
0.00193805
0.00159243
0.0024656
0.00115298
0.00145441
0.00260503
0.00334324
0.0101505
0.000996379
0.000922239
0.00123312
0.00125432
0.00105796
0.00271961
0.0010061
0.00239802
0.00226367
0.00233081
0.00196078
0.00199218
0.00217848
0.00318839
0.00120971
0.00149882
0.00114834
0.000687101
0.00262963
0.00157569
0.00114138
0.00111425
0.00104961
0.00129758
0.00099713
0.00140374
0.00109762
0.00158941
0.00138894
0.000405139
0.0013559
0.0019074
0.00441917
0.00145029
0.00150851
0.00163241
0.00268816
0.00215635
0.00286868
0.00100609
0.00130094
0.000409843
0.00110831
0.00115599
0.00220593
0.00190283
0.00129765
0.00158948
0.000969296
0.0024449
0.00242643
0.00220253
0.00215196
0.0021329
0.00128182
0.000845279
0.00129512
0.00117754
0.00112283
0.00135174
0.00203327
0.00099319
0.00280111
0.000950096
0.00180778
0.000521954
0.000998548
0.00253642
0.002665
0.00125756
0.00143944
0.00142759
0.00103372
0.00144584
0.0013182
0.00233028
0.00400387
0.000789794
0.00122606
0.00140505
0.00152771
0.00103946
0.00226091
0.00147209
0.00226388
0.000776547
0.00116037
0.00146621
0.00139724
0.00173777
0.00165919
0.000981122
0.00069364
0.000882658
0.00109145
0.00203986
0.000942421
0.00219503
0.0015243
0.00271648
0.00109887
0.00244998
0.00137126
0.000957079
0.000846479
0.00104176
0.0016326
0.00108243
0.0010656
0.000947578
0.00130956
0.00466209
0.000853482
0.000867232
0.00196702
0.000610805
0.0015431
0.00124664
0.000724149
0.00211764
0.00209331
0.00198633
0.00104207
0.00221649
0.00151439
0.00246504
0.00153573
0.00125497
0.00121566
0.001597
0.000635114
0.00181958
0.00122543
0.00137046
0.00171283
0.00255621
0.000765466
0.00185183
0.00119332
0.00126293
0.00196084
0.000880527
0.00140791
0.00183341
0.00214568
0.000575708
0.00201977
0.00131767
0.00199571
0.000806023
0.00142297
0.0015038
0.00143654
0.00142016
0.00124602
0.00239305
0.00182555
0.00205831
0.00326631
0.00104052
0.00178183
0.00155844
0.00225547
0.0011187
0.000789531
0.00197418
0.00130716
0.00125321
0.00171176
0.00277782
0.00251816
0.00207189
0.00215861
0.00213264
0.00112172
0.000767793
0.00131393
0.00265483
0.00038723
0.00127429
0.00119253
0.00243473
0.000882124
0.00223493
0.00116154
0.0010803
0.0012242
0.00192617
0.00141466
0.00138428
0.00147064
0.0015491
0.00157913
0.000908586
0.00166616
0.000968688
0.00183023
0.00106954
0.00101083
0.0022533
0.00244897
0.000960077
0.00371187
0.0023787
0.00208311
0.00119915
0.00224489
0.00141992
0.00166101
0.00206886
0.00122063
0.00158462
0.00214351
0.0110456
0.00260844
0.000994317
0.00113759
0.0011029
0.00108247
0.000541173
0.00106596
0.00251331
0.00184709
0.00149682
0.0013681
0.0020809
0.000624828
0.00100561
0.00227399
0.00137586
0.00138937
0.00253804
0.00186602
0.0024028
0.000639237
0.00219605
0.00131775
0.000978616
0.00113573
0.00125882
0.00101072
0.000808149
0.00231246
0.00106836
0.000973627
0.000926199
0.00132394
0.00133719
0.00155443
0.0016898
0.00157879
0.00120046
0.00381155
0.000939655
0.00129263
0.00105684
0.00102043
0.00112008
0.000432694
0.00159488
0.00152314
0.00147884
0.00204402
0.00242049
0.00227573
0.00100178
0.00247605
0.00146469
0.00274419
0.00160381
0.00123306
0.00133717
0.00278568
0.00158386
0.00102953
0.00162782
0.00186949
0.00170373
0.00139264
0.00907443
0.0017793
0.00128709
0.0025825
0.00172798
0.0011491
0.0016754
0.00185607
0.00156634
0.00234527
0.000958876
0.00149774
0.000883894
0.00186839
0.00252909
0.00152957
0.000927984
0.00221575
0.00225125
0.00221843
0.00190687
0.00129601
0.00197046
0.00180108
0.00210303
0.0011819
0.00141227
0.00168541
0.00124177
0.00116024
0.00238481
0.00139145
0.00141635
0.000991435
0.000632907
0.00122031
0.00127055
0.0024964
0.00113436
0.00103295
0.00113247
0.00252426
0.00111576
0.00250469
0.00256191
0.00113494
0.000971781
0.00231559
0.000813085
0.00260175
0.00142889
0.000814138
0.00213633
0.00184102
0.00194013
0.00117178
0.00132257
0.00131261
0.00148335
0.00204167
0.00116587
0.00136279
0.00253101
0.00181609
0.00134955
0.00128491
0.00168299
0.00101113
0.00124509
0.00144184
0.00312705
0.00177875
0.00112769
0.00107542
0.00148202
0.00295638
0.000922684
0.00132284
0.00085881
0.000549369
0.00257708
0.00193089
0.00104727
0.00138495
0.00184709
0.00180833
0.00218657
0.00103283
0.00140955
0.00142417
0.00196309
0.0014969
0.00128272
0.000497414
0.00105788
0.000746055
0.00151514
0.00267297
0.000974048
0.0017555
0.00162473
0.000784468
0.00085425
0.000982341
0.00186245
0.0023509
0.000519042
0.00115813
0.00144399
0.000812249
0.000905992
0.00112406
0.00190792
0.00087612
0.00105838
0.00118633
0.000942596
0.00132187
0.00121593
0.00170738
0.000716581
0.00215149
0.00113047
0.00137158
0.00171155
0.000373014
0.00207208
0.00109083
0.00145267
0.00164464
0.00160425
0.00106079
0.000478168
0.00233062
0.00134205
0.00137291
0.00152887
0.00244026
0.00168411
0.00117145
0.00104078
0.00164602
0.00164135
0.000586277
0.00173743
0.00156236
0.00254689
0.00132039
0.00245385
0.000775217
0.00235454
0.000937361
0.0010672
0.00152668
0.000988757
0.00102935
0.00129053
0.00135747
0.00134489
0.000714248
0.00241815
0.000960188
0.00169277
0.00130095
0.0023391
0.00165571
0.00109222
0.00134782
0.00108065
0.0029829
0.00120165
0.00214823
0.00156992
0.00100285
0.000946474
0.0018448
0.00119286
0.00198097
0.00150202
0.00135916
0.00255455
0.00237405
0.00177686
0.0014839
0.00240681
0.00199057
0.00100406
0.00133089
0.000971829
0.000813473
0.0014096
0.00252305
0.00119539
0.0017767
0.000725821
0.00362454
0.000741377
0.00108312
0.0012489
0.0013596
0.000896631
0.00109259
0.00127473
0.00152836
0.00168194
0.00118151
0.00222982
0.00257459
0.00121971
0.00197046
0.00141082
0.00184586
0.000990382
0.00129165
0.00168564
0.000835208
0.00220079
0.00194889
0.00239663
0.00255827
0.00103896
0.00249625
0.000626699
0.00141861
0.00149955
0.00220584
0.00198961
0.00251427
0.00145887
0.00179907
0.00158066
0.00327951
0.00113529
0.00145546
0.0021919
0.00088938
0.00115153
0.00100967
0.00128231
0.00241208
0.00131596
0.000636574
0.00180496
0.00120997
0.000675707
0.000966032
0.000958283
0.00132518
0.00164019
0.00126317
0.0011763
0.00163577
0.0013616
0.00118637
0.00108348
0.00148834
0.00248766
0.00162327
0.00105041
0.00130893
0.0014165
0.00131949
0.00188544
0.0022703
0.000929088
0.00170209
0.00190908
0.00269249
0.00264911
0.00180118
0.00205715
0.00123911
0.00147043
0.00238001
0.0013701
0.00160083
0.00053471
0.0010144
0.00107946
0.000985168
0.000947436
0.00101242
0.00253213
0.000746143
0.00227993
0.00280917
0.00766752
0.00111688
0.00181057
0.00216321
0.00322519
0.00091108
0.00180707
0.00154136
0.00136793
0.00116332
0.0012214
0.00110225
0.000882374
0.000536046
0.00142276
0.00158406
0.00123406
0.00236698
0.00350641
0.00245111
0.00102157
0.0016874
0.000974522
0.00130659
0.00109414
0.000784979
0.00156628
0.000846197
0.00246257
0.00303949
0.00190632
0.00213943
0.00107306
0.00091508
0.0043006
0.00190765
0.00135352
0.00207221
0.00232631
0.00123569
0.00183053
0.00142294
0.00103702
0.00147537
0.00047533
0.00223775
0.0011389
0.00208432
0.00071638
0.0012222
0.00152275
0.00107244
0.00218507
0.00134268
0.00106719
0.00110138
0.00110609
0.00234625
0.00169578
0.00126668
0.00146757
0.00106162
0.00165896
0.0014503
0.00126618
0.001561
0.00202577
0.000826845
0.00215945
0.00152936
0.00125707
0.00254594
0.00203771
0.00233398
0.00185598
0.0025801
0.00205195
0.00136831
0.00200532
0.00118594
0.000903511
0.00138026
0.00128922
0.00141859
0.00185765
0.00126098
0.00103137
0.00211411
0.00101191
0.00115816
0.00193
0.00097371
0.00248469
0.00189112
0.00114743
0.00130279
0.00252949
0.000591279
0.0019033
0.00212224
0.00261088
0.00136623
0.00075891
0.00136575
0.000768727
0.00133773
0.00229218
0.00223228
0.00161959
0.000980796
0.00237358
0.0023106
0.00294807
0.0017495
0.000669691
0.000975623
0.00145172
0.00177788
0.00255432
0.000941531
0.00182795
0.0016206
0.00114828
0.00146587
0.00252913
0.00272114
0.00165886
0.00128996
0.00149044
0.000424017
0.00143859
0.00157444
0.000928815
0.000948961
0.00107591
0.00116679
0.00162015
0.00252144
0.00136014
0.00120677
0.00145484
0.00254144
0.000824528
0.00133564
0.00119957
0.000832881
0.000710797
0.00169294
0.000944036
0.00132314
0.00100203
0.00227402
0.00177041
0.00153668
0.00134292
0.00280629
0.00178802
0.000877033
0.00115757
0.00163959
0.00216352
0.00105697
0.00127247
0.00248279
0.00114182
0.00332519
0.00102775
0.00130504
0.00151436
0.000887368
0.00125363
0.000480997
0.00138779
0.00160768
0.00109506
0.00189685
0.00118082
0.00143937
0.000956732
0.00260598
0.00138405
0.000974846
0.00129216
0.00241936
0.0013357
0.00100126
0.00206363
0.000720628
0.001123
0.000762003
0.00344184
0.00143856
0.00100549
0.00133188
0.00175826
0.00189275
0.00163363
0.00146435
0.00210979
0.000945196
0.00131769
0.0022321
0.00098687
0.00192544
0.000849379
0.0013331
0.00111457
0.00111987
0.00231375
0.00132912
0.00131998
0.000413571
0.000921892
0.00105524
0.00327189
0.00238452
0.00205469
0.00124642
0.00307368
0.00106128
0.00714179
0.00248948
0.00155197
0.000503831
0.00255225
0.00236783
0.00157228
0.00176593
0.00212267
0.0015044
0.000709333
0.000926564
0.00204273
0.00129546
0.000861301
0.00130459
0.0019896
0.00156869
0.000683518
0.000903129
0.00174142
0.000741481
0.00659937
0.000990611
0.00200904
0.00246735
0.00158864
0.000602378
0.00126572
0.00257645
0.00170298
0.000655913
0.00208199
0.00207643
0.00188476
0.00123791
0.00134116
0.00122349
0.00111396
0.00244109
0.00112528
0.00122578
0.00218272
0.00128298
0.00248251
0.000944262
0.0017541
0.00159576
0.00125512
0.00166365
0.00146394
0.000580419
0.00290474
0.00141906
0.0015338
0.00233003
0.00138554
0.0024874
0.00118921
0.00133698
0.00183151
0.000863372
0.00435997
0.00172061
0.00169931
0.00102874
0.00189257
0.00234354
0.00084182
0.00249971
0.00149282
0.00106785
0.00162905
0.00132711
0.00106471
0.00172449
0.00185863
0.00232224
0.00247283
0.00239373
0.00137346
0.000974516
0.00144871
0.00100748
0.00123215
0.00117268
0.000988861
0.00268379
0.00183117
0.000956129
0.001319
0.0026509
0.00106884
0.00108521
0.00134403
0.00119342
0.00170786
0.000977036
0.00193805
0.00159243
0.0024656
0.00115298
0.00145441
0.00260503
0.00334324
0.0101505
0.000996379
0.000922239
0.00123312
0.00125432
0.00105796
0.00271961
0.0010061
0.00239802
0.00226367
0.00233081
0.00196078
0.00199218
0.00217848
0.00318839
0.00120971
0.00149882
0.00114834
0.000687101
0.00262963
0.00157569
0.00114138
0.00111425
0.00104961
0.00129758
0.00099713
0.00140374
0.00109762
0.00158941
0.00138894
0.000405139
0.0013559
0.0019074
0.00441917
0.00145029
0.00150851
0.00163241
0.00268816
0.00215635
0.00286868
0.00100609
0.00130094
0.000409843
0.00110831
0.00115599
0.00220593
0.00190283
0.00129765
0.00158948
0.000969296
0.0024449
0.00242643
0.00220253
0.00215196
0.0021329
0.00128182
0.000845279
0.00129512
0.00117754
0.00112283
0.00135174
0.00203327
0.00099319
0.00280111
0.000950096
0.00180778
0.000521954
0.000998548
0.00253642
0.002665
0.00125756
0.00143944
0.00142759
0.00103372
0.00144584
0.0013182
0.00233028
0.00400387
0.000789794
0.00122606
0.00140505
0.00152771
0.00103946
0.00226091
0.00147209
0.00226388
0.000776547
0.00116037
0.00146621
0.00139724
0.00173777
0.00165919
0.000981122
0.00069364
0.000882658
0.00109145
0.00203986
0.000942421
0.00219503
0.0015243
0.00271648
0.00109887
0.00244998
0.00137126
0.000957079
0.000846479
0.00104176
0.0016326
0.00108243
0.0010656
0.000947578
0.00130956
0.00466209
0.000853482
0.000867232
0.00196702
0.000610805
0.0015431
0.00124664
0.000724149
0.00211764
0.00209331
0.00198633
0.00104207
0.00221649
0.00151439
0.00246504
0.00153573
0.00125497
0.00121566
0.001597
0.000635114
0.00181958
0.00122543
0.00137046
0.00171283
0.00255621
0.000765466
0.00185183
0.00119332
0.00126293
0.00196084
0.000880527
0.00140791
0.00183341
0.00214568
0.000575708
0.00201977
0.00131767
0.00199571
0.000806023
0.00142297
0.0015038
0.00143654
0.00142016
0.00124602
0.00239305
0.00182555
0.00205831
0.00326631
0.00104052
0.00178183
0.00155844
0.00225547
0.0011187
0.000789531
0.00197418
0.00130716
0.00125321
0.00171176
0.00277782
0.00251816
0.00207189
0.00215861
0.00213264
0.00112172
0.000767793
0.00131393
0.00265483
0.00038723
0.00127429
0.00119253
0.00243473
0.000882124
0.00223493
0.00116154
0.0010803
0.0012242
0.00192617
0.00141466
0.00138428
0.00147064
0.0015491
0.00157913
0.000908586
0.00166616
0.000968688
0.00183023
0.00106954
0.00101083
0.0022533
0.00244897
0.000960077
0.00371187
0.0023787
0.00208311
0.00119915
0.00224489
0.00141992
0.00166101
0.00206886
0.00122063
0.00158462
0.00214351
0.0110456
0.00260844
0.000994317
0.00113759
0.0011029
0.00108247
0.000541173
0.00106596
0.00251331
0.00184709
0.00149682
0.0013681
0.0020809
0.000624828
0.00100561
0.00227399
0.00137586
0.00138937
0.00253804
0.00186602
0.0024028
0.000639237
0.00219605
0.00131775
0.000978616
0.00113573
0.00125882
0.00101072
0.000808149
0.00231246
0.00106836
0.000973627
0.000926199
0.00132394
0.00133719
0.00155443
0.0016898
0.00157879
0.00120046
0.00381155
0.000939655
0.00129263
0.00105684
0.00102043
0.00112008
0.000432694
0.00159488
0.00152314
0.00147884
0.00204402
0.00242049
0.00227573
0.00100178
0.00247605
0.00146469
0.00274419
0.00160381
0.00123306
0.00133717
0.00278568
0.00158386
0.00102953
0.00162782
0.00186949
0.00170373
0.00139264
0.00907443
0.0017793
0.00128709
0.0025825
0.00172798
0.0011491
0.0016754
0.00185607
0.00156634
0.00234527
0.000958876
0.00149774
0.000883894
0.00186839
0.00252909
0.00152957
0.000927984
0.00221575
0.00225125
0.00221843
0.00190687
0.00129601
0.00197046
0.00180108
0.00210303
0.0011819
0.00141227
0.00168541
0.00124177
0.00116024
0.00238481
0.00139145
0.00141635
0.000991435
0.000632907
0.00122031
0.00127055
0.0024964
0.00113436
0.00103295
0.00113247
0.00252426
0.00111576
0.00250469
0.00256191
0.00113494
0.000971781
0.00231559
0.000813085
0.00260175
0.00142889
0.000814138
0.00213633
0.00184102
0.00194013
0.00117178
0.00132257
0.00131261
0.00148335
0.00204167
0.00116587
0.00136279
0.00253101
0.00181609
0.00134955
0.00128491
0.00168299
0.00101113
0.00124509
0.00144184
0.00312705
0.00177875
0.00112769
0.00107542
0.00148202
0.00295638
0.000922684
0.00132284
0.00085881
0.000549369
0.00257708
0.00193089
0.00104727
0.00138495
0.00184709
0.00180833
0.00218657
0.00103283
0.00140955
0.00142417
0.00196309
0.0014969
0.00128272
0.000497414
0.00105788
0.000746055
0.00151514
0.00267297
0.000974048
0.0017555
0.00162473
0.000784468
0.00085425
0.000982341
0.00186245
0.0023509
0.000519042
0.00115813
0.00144399
0.000812249
0.000905992
0.00112406
0.00190792
0.00087612
0.00105838
0.00118633
0.000942596
0.00132187
0.00121593
0.00170738
0.000716581
0.00215149
0.00113047
0.00137158
0.00171155
0.000373014
0.00207208
0.00109083
0.00145267
0.00164464
0.00160425
0.00106079
0.000478168
0.00233062
0.00134205
0.00137291
0.00152887
0.00244026
0.00168411
0.00117145
0.00104078
0.00164602
0.00164135
0.000586277
0.00173743
0.00156236
0.00254689
0.00132039
0.00245385
0.000775217
0.00235454
0.000937361
0.0010672
0.00152668
0.000988757
0.00102935
0.00129053
0.00135747
0.00134489
0.000714248
0.00241815
0.000960188
)
;

boundaryField
{
    back
    {
        type            empty;
    }
    front
    {
        type            empty;
    }
    down
    {
        type            calculated;
    }
    right
    {
        type            calculated;
    }
    up
    {
        type            calculated;
    }
    left
    {
        type            calculated;
    }
    hole
    {
        type            calculated;
    }
}


// ************************************************************************* //
