/*--------------------------------*- C++ -*----------------------------------*\
| =========                 |                                                 |
| \\      /  F ield         | OpenFOAM: The Open Source CFD Toolbox           |
|  \\    /   O peration     | Version:  v2012                                 |
|   \\  /    A nd           | Website:  www.openfoam.com                      |
|    \\/     M anipulation  |                                                 |
\*---------------------------------------------------------------------------*/
FoamFile
{
    version     2.0;
    format      ascii;
    class       pointVectorField;
    location    "11";
    object      pointD;
}
// * * * * * * * * * * * * * * * * * * * * * * * * * * * * * * * * * * * * * //

dimensions      [0 1 0 0 0 0 0];


internalField   nonuniform List<vector> 
2014
(
(0.00365952 0 0)
(0.00495052 0 0)
(0.0045613 -0.0003888 0)
(0 -0.00276406 0)
(0 -0.00144333 0)
(0.00365952 0 0)
(0.00495052 0 0)
(0.0045613 -0.0003888 0)
(0 -0.00276406 0)
(0 -0.00144333 0)
(0.00369548 0 0)
(0.00372232 0 0)
(0.00373996 0 0)
(0.00375271 0 0)
(0.00376516 0 0)
(0.00377902 0 0)
(0.00379637 0 0)
(0.00381479 0 0)
(0.00383839 0 0)
(0.003865 0 0)
(0.00389424 0 0)
(0.00392761 0 0)
(0.00396437 0 0)
(0.00400447 0 0)
(0.00404789 0 0)
(0.00409404 0 0)
(0.00414346 0 0)
(0.00419489 0 0)
(0.00424897 0 0)
(0.00430566 0 0)
(0.00436468 0 0)
(0.00442592 0 0)
(0.00448862 0 0)
(0.00455239 0 0)
(0.00461769 0 0)
(0.00468419 0 0)
(0.00475139 0 0)
(0.0048179 0 0)
(0.00488443 0 0)
(0.00494833 -2.6935e-06 0)
(0.00494257 -6.08237e-06 0)
(0.00493322 -1.06423e-05 0)
(0.00491998 -1.56989e-05 0)
(0.00490397 -2.28298e-05 0)
(0.00488486 -3.18423e-05 0)
(0.00486317 -4.25065e-05 0)
(0.00483988 -5.58922e-05 0)
(0.00481443 -7.20105e-05 0)
(0.0047881 -9.05232e-05 0)
(0.00476095 -0.000111999 0)
(0.00473379 -0.000136165 0)
(0.00470782 -0.0001624 0)
(0.00468231 -0.000191224 0)
(0.00465821 -0.000221847 0)
(0.00463605 -0.000254015 0)
(0.00461516 -0.000287452 0)
(0.00459633 -0.000321233 0)
(0.00457859 -0.000355156 0)
(0.00448326 -0.000406198 0)
(0.00440555 -0.000423093 0)
(0.00432776 -0.000438711 0)
(0.0042496 -0.000452606 0)
(0.00417015 -0.000464436 0)
(0.00408913 -0.000474916 0)
(0.00400631 -0.00048314 0)
(0.00392088 -0.000490407 0)
(0.0038328 -0.000496183 0)
(0.00374128 -0.000501755 0)
(0.00364618 -0.00050748 0)
(0.00354712 -0.000512916 0)
(0.00344392 -0.000519228 0)
(0.00333697 -0.00052721 0)
(0.00322442 -0.000537727 0)
(0.00310816 -0.000550084 0)
(0.00298647 -0.000567138 0)
(0.00285851 -0.000587849 0)
(0.00272678 -0.000614825 0)
(0.00258875 -0.000645147 0)
(0.00244663 -0.000686079 0)
(0.00229813 -0.000732396 0)
(0.00214618 -0.000789146 0)
(0.00198875 -0.000854351 0)
(0.00182925 -0.000931866 0)
(0.0016644 -0.00101995 0)
(0.00149808 -0.00112001 0)
(0.00133238 -0.00123228 0)
(0.00116536 -0.00135688 0)
(0.00100507 -0.00149296 0)
(0.000846833 -0.00164101 0)
(0.00069681 -0.0017983 0)
(0.000556881 -0.00196092 0)
(0.000430219 -0.00212942 0)
(0.000318012 -0.00229127 0)
(0.000222896 -0.00244103 0)
(0.000148706 -0.00257432 0)
(8.69595e-05 -0.00267421 0)
(3.97438e-05 -0.00273733 0)
(0 -0.00274009 0)
(0 -0.00270264 0)
(0 -0.0026651 0)
(0 -0.00262753 0)
(0 -0.00258989 0)
(0 -0.00254258 0)
(0 -0.00242491 0)
(0 -0.00215918 0)
(0 -0.00179811 0)
(0.000554928 -0.00141335 0)
(0.00114795 -0.00149491 0)
(0.00159063 -0.0017357 0)
(0.00189912 -0.00173064 0)
(0.00215394 -0.00160834 0)
(0.0023879 -0.00146371 0)
(0.00261286 -0.00131076 0)
(0.00282539 -0.00115669 0)
(0.00301478 -0.00100477 0)
(0.0031802 -0.000855393 0)
(0.00332195 -0.000706996 0)
(0.00344119 -0.000556197 0)
(0.00353212 -0.000412658 0)
(0.00359775 -0.000279405 0)
(0.00363846 -0.000136853 0)
(0.00369548 0 0)
(0.00372232 0 0)
(0.00373996 0 0)
(0.00375271 0 0)
(0.00376516 0 0)
(0.00377902 0 0)
(0.00379637 0 0)
(0.00381479 0 0)
(0.00383839 0 0)
(0.003865 0 0)
(0.00389424 0 0)
(0.00392761 0 0)
(0.00396437 0 0)
(0.00400447 0 0)
(0.00404789 0 0)
(0.00409404 0 0)
(0.00414346 0 0)
(0.00419489 0 0)
(0.00424897 0 0)
(0.00430566 0 0)
(0.00436468 0 0)
(0.00442592 0 0)
(0.00448862 0 0)
(0.00455239 0 0)
(0.00461769 0 0)
(0.00468419 0 0)
(0.00475139 0 0)
(0.0048179 0 0)
(0.00488443 0 0)
(0.00494833 -2.6935e-06 0)
(0.00494257 -6.08237e-06 0)
(0.00493322 -1.06423e-05 0)
(0.00491998 -1.56989e-05 0)
(0.00490397 -2.28298e-05 0)
(0.00488486 -3.18423e-05 0)
(0.00486317 -4.25065e-05 0)
(0.00483988 -5.58922e-05 0)
(0.00481443 -7.20105e-05 0)
(0.0047881 -9.05232e-05 0)
(0.00476095 -0.000111999 0)
(0.00473379 -0.000136165 0)
(0.00470782 -0.0001624 0)
(0.00468231 -0.000191224 0)
(0.00465821 -0.000221847 0)
(0.00463605 -0.000254015 0)
(0.00461516 -0.000287452 0)
(0.00459633 -0.000321233 0)
(0.00457859 -0.000355156 0)
(0.00448326 -0.000406198 0)
(0.00440555 -0.000423093 0)
(0.00432776 -0.000438711 0)
(0.0042496 -0.000452606 0)
(0.00417015 -0.000464436 0)
(0.00408913 -0.000474916 0)
(0.00400631 -0.00048314 0)
(0.00392088 -0.000490407 0)
(0.0038328 -0.000496183 0)
(0.00374128 -0.000501755 0)
(0.00364618 -0.00050748 0)
(0.00354712 -0.000512916 0)
(0.00344392 -0.000519228 0)
(0.00333697 -0.00052721 0)
(0.00322442 -0.000537727 0)
(0.00310816 -0.000550084 0)
(0.00298647 -0.000567138 0)
(0.00285851 -0.000587849 0)
(0.00272678 -0.000614825 0)
(0.00258875 -0.000645147 0)
(0.00244663 -0.000686079 0)
(0.00229813 -0.000732396 0)
(0.00214618 -0.000789146 0)
(0.00198875 -0.000854351 0)
(0.00182925 -0.000931866 0)
(0.0016644 -0.00101995 0)
(0.00149808 -0.00112001 0)
(0.00133238 -0.00123228 0)
(0.00116536 -0.00135688 0)
(0.00100507 -0.00149296 0)
(0.000846833 -0.00164101 0)
(0.00069681 -0.0017983 0)
(0.000556881 -0.00196092 0)
(0.000430219 -0.00212942 0)
(0.000318012 -0.00229127 0)
(0.000222896 -0.00244103 0)
(0.000148706 -0.00257432 0)
(8.69595e-05 -0.00267421 0)
(3.97438e-05 -0.00273733 0)
(0 -0.00274009 0)
(0 -0.00270264 0)
(0 -0.0026651 0)
(0 -0.00262753 0)
(0 -0.00258989 0)
(0 -0.00254258 0)
(0 -0.00242491 0)
(0 -0.00215918 0)
(0 -0.00179811 0)
(0.000554928 -0.00141335 0)
(0.00114795 -0.00149491 0)
(0.00159063 -0.0017357 0)
(0.00189912 -0.00173064 0)
(0.00215394 -0.00160834 0)
(0.0023879 -0.00146371 0)
(0.00261286 -0.00131076 0)
(0.00282539 -0.00115669 0)
(0.00301478 -0.00100477 0)
(0.0031802 -0.000855393 0)
(0.00332195 -0.000706996 0)
(0.00344119 -0.000556197 0)
(0.00353212 -0.000412658 0)
(0.00359775 -0.000279405 0)
(0.00363846 -0.000136853 0)
(0.00309628 -0.000236502 0)
(0.00401746 -0.000161714 0)
(0.00204565 -0.000884427 0)
(0.00336866 -0.000249847 0)
(0.0037906 -6.87376e-05 0)
(0.00421493 -0.000276683 0)
(0.00446968 -8.62432e-05 0)
(0.0010834 -0.0018164 0)
(0.00344459 -0.000153103 0)
(0.00240934 -0.000560392 0)
(0.00369463 -0.000308628 0)
(0.00413045 -6.08732e-05 0)
(0.00368132 -4.96398e-05 0)
(0.00278779 -0.000530493 0)
(0.00446801 -0.000158028 0)
(0.00283 -0.000412628 0)
(0.00340327 -0.000156526 0)
(0.00373509 -0.000145721 0)
(0.00134507 -0.00139804 0)
(0.00185214 -0.00125717 0)
(0.00332177 -0.000371975 0)
(0.0039301 -0.000361602 0)
(0.00181965 -0.000935141 0)
(0.00267134 -0.00046057 0)
(0.00469066 -4.125e-05 0)
(0.00435627 -0.00032677 0)
(0.00436253 -4.59977e-05 0)
(0.00400674 -2.9818e-05 0)
(0.00399526 -0.000251824 0)
(0.000444443 -0.00239683 0)
(0.00429143 -0.000141605 0)
(0.00304588 -0.000274726 0)
(0.0038691 -2.30272e-05 0)
(0.00087248 -0.0021161 0)
(0.0036914 -4.67557e-05 0)
(0.00464407 -9.11121e-05 0)
(0.00447645 -0.000216394 0)
(0.00339839 -0.000130549 0)
(0.00361174 -0.000141327 0)
(0.0042601 -9.11211e-05 0)
(0.00327723 -0.000340491 0)
(0.0036318 -0.000230093 0)
(0.00306975 -0.000278229 0)
(0.00397894 -0.000105891 0)
(0.00242707 -0.000582984 0)
(0.000842708 -0.00190367 0)
(0.00359893 -8.40407e-05 0)
(0.0029971 -0.000438558 0)
(0.00411701 -0.000382777 0)
(0.00248002 -0.000897014 0)
(0.00453584 -3.4967e-05 0)
(0.00422445 -0.000205973 0)
(0.00352946 -0.000404554 0)
(0.00415198 -2.64772e-05 0)
(0.00227752 -0.000660589 0)
(0.00274189 -0.0003912 0)
(0.00204858 -0.000770403 0)
(0.00153824 -0.0013579 0)
(0.00395918 -6.50529e-05 0)
(0.00153915 -0.00165618 0)
(0.00381541 -1.8017e-05 0)
(0.00385848 -0.000211911 0)
(0.00350549 -0.000170184 0)
(0.00232969 -0.000778315 0)
(0.00272425 -0.000414047 0)
(0.00140121 -0.0012486 0)
(0.00337105 -0.000142447 0)
(0.00310396 -0.000299286 0)
(0.00373823 -0.0004154 0)
(0.000429107 -0.00241202 0)
(0.00463892 -0.000121743 0)
(0.0029392 -0.000635703 0)
(0.00263541 -0.000538619 0)
(0.00427781 -2.67984e-05 0)
(0.00443507 -0.000125131 0)
(0.00477755 -4.93744e-05 0)
(0.00448926 -0.000258793 0)
(0.00176678 -0.00103711 0)
(0.00363362 -0.000112957 0)
(0.00370582 -5.35222e-05 0)
(0.00319862 -0.000336013 0)
(0.00380297 -9.57749e-05 0)
(0.00397041 -1.51179e-05 0)
(0.00377461 -4.78864e-05 0)
(0.00481683 -1.64984e-05 0)
(0.00444474 -0.000358306 0)
(0.00352291 -0.000301218 0)
(0.00435014 -0.000209716 0)
(0.00410536 -0.0001161 0)
(0.00329896 -0.000213643 0)
(0.00384667 -0.000166434 0)
(0.00460755 -0.000160062 0)
(0.0035464 -8.99514e-05 0)
(0.00387144 -0.000308475 0)
(0.000987367 -0.00165736 0)
(0.0030953 -0.000338642 0)
(0.00461778 -7.02746e-05 0)
(0.00434836 -0.000277427 0)
(0.00404614 -0.000297957 0)
(0.00409707 -0.000192889 0)
(0.00219024 -0.00123092 0)
(0.000534097 -0.00223268 0)
(0.00387731 -4.25073e-05 0)
(0.000168103 -0.00264498 0)
(0.00317258 -0.000462345 0)
(0.0011782 -0.00163164 0)
(0.00145903 -0.00154941 0)
(0.00294934 -0.000309127 0)
(0.00259404 -0.000557643 0)
(0.00352691 -9.12123e-05 0)
(0.00396402 -0.000418139 0)
(0.00195643 -0.00104888 0)
(0.00423758 -0.000395237 0)
(0.00324164 -0.000193957 0)
(0.00378255 -1.83199e-05 0)
(0.00446617 -5.58187e-05 0)
(0.00347713 -0.000305909 0)
(0.00464964 -2.21315e-05 0)
(0.00444134 -2.35745e-05 0)
(0.00424077 -6.38352e-05 0)
(0.00174231 -0.000961456 0)
(0.00408235 -1.61255e-05 0)
(0.00213965 -0.000721414 0)
(0.000766518 -0.00206731 0)
(0.000773008 -0.00212366 0)
(0.00434754 -0.000103145 0)
(0.00334382 -0.000453406 0)
(0.00236017 -0.000651777 0)
(0.000796049 -0.00211083 0)
(0.00407271 -4.32349e-05 0)
(0.00298161 -0.000285755 0)
(0.00354299 -0.000207177 0)
(0.00420938 -0.000321812 0)
(0.00367639 -0.000120426 0)
(0.00434272 -0.000167156 0)
(0.00347138 -0.000194727 0)
(0.00361167 -8.61153e-05 0)
(0.00388471 -9.80257e-06 0)
(0.00331696 -0.000175346 0)
(0.00319377 -0.000204744 0)
(0.00415441 -0.000145068 0)
(0.000240121 -0.00256427 0)
(0.00136244 -0.00189085 0)
(0.00214738 -0.000735967 0)
(0.00456938 -5.4284e-05 0)
(0.00338466 -0.000291787 0)
(0.00481734 -3.08628e-05 0)
(0.00450307 -0.000296529 0)
(0.00414576 -8.73269e-05 0)
(0.00371619 -3.76899e-05 0)
(0.00374275 -0.000354511 0)
(0.00377438 -3.58076e-05 0)
(0.00175938 -0.00111671 0)
(0.0011915 -0.00182402 0)
(0.00291101 -0.000349514 0)
(0.00280122 -0.000521652 0)
(0.00473581 -8.27423e-05 0)
(0.00420436 -4.15272e-05 0)
(0.000435026 -0.00237884 0)
(0.00301006 -0.000378253 0)
(0.0041282 -0.000244249 0)
(0.0025324 -0.000508921 0)
(0.00199708 -0.000839471 0)
(0.00459179 -0.000199431 0)
(0.0028851 -0.000407221 0)
(0.0040724 -0.000341166 0)
(0.00434973 -7.04964e-05 0)
(0.00383873 -0.000263463 0)
(0.00375655 -2.34384e-05 0)
(0.00229986 -0.000625998 0)
(0.0045497 -0.000123128 0)
(0.00263461 -0.000475213 0)
(0.00370454 -6.75164e-05 0)
(0.00447868 -0.000187251 0)
(0.00371037 -0.000256587 0)
(0.00403392 -7.64299e-05 0)
(0.0022088 -0.00096984 0)
(0.00354489 -0.000112134 0)
(0.00322749 -0.000516075 0)
(0.00454986 -9.79258e-05 0)
(0.00356833 -7.74713e-05 0)
(0.00240494 -0.000633475 0)
(0.00347802 -0.000359123 0)
(0.00396442 -0.000138107 0)
(0.00332748 -0.000151954 0)
(0.00366622 -6.00948e-05 0)
(0.00359889 -0.000451509 0)
(0.00369199 -0.000184829 0)
(0.00275149 -0.000886185 0)
(0.00301729 -0.000462764 0)
(0.00262803 -0.000447171 0)
(0.00421751 -1.5346e-05 0)
(0.00190257 -0.00153469 0)
(0.00383412 -0.000441067 0)
(0.00386459 -0.00012028 0)
(0.00111565 -0.0014752 0)
(0.00283952 -0.000456 0)
(0.000693716 -0.00196756 0)
(0.000309847 -0.00248747 0)
(0.00149833 -0.00113807 0)
(0.00296482 -0.000505396 0)
(0.0036553 -0.000134127 0)
(0.00255176 -0.000718975 0)
(0.00368073 -7.97283e-05 0)
(0.00436028 -1.76285e-05 0)
(0.00397171 -0.000212855 0)
(0.00434399 -0.000242881 0)
(0.00406835 -0.000431193 0)
(0.00316753 -0.000391927 0)
(0.0042148 -0.000175755 0)
(0.00478016 -6.04456e-05 0)
(0.00251783 -0.00051137 0)
(0.00389143 -5.76497e-05 0)
(0.00423813 -0.000118335 0)
(0.00277243 -0.000385201 0)
(0.00457429 -1.70279e-05 0)
(0.00151982 -0.00120377 0)
(0.0028648 -0.000343051 0)
(0.00392965 -8.90154e-05 0)
(0.00426669 -0.000230311 0)
(0.00188804 -0.000870228 0)
(0.00393863 -8.2942e-06 0)
(0.00281715 -0.000396351 0)
(0.00242072 -0.000557956 0)
(0.00112788 -0.00161279 0)
(0.00423909 -0.000353344 0)
(0.00392681 -2.47581e-05 0)
(0.00330189 -0.000248714 0)
(0.00414341 -1.23799e-05 0)
(0.00433605 -0.0003967 0)
(0.00210472 -0.000803535 0)
(0.00228253 -0.000748583 0)
(0.00362963 -0.000347738 0)
(0.00444065 -4.08504e-05 0)
(0.00195948 -0.00082692 0)
(0.00180049 -0.00140864 0)
(0.000515389 -0.00234065 0)
(0.00345608 -0.000461934 0)
(0.00402631 -1.03349e-05 0)
(0.0047462 -1.4023e-05 0)
(0.00375796 -0.000207273 0)
(0.00319611 -0.000304926 0)
(0.00146611 -0.00133638 0)
(0.00429572 -4.16457e-05 0)
(0.00292026 -0.000310126 0)
(0.0034881 -0.000253387 0)
(0.00468608 -0.000124685 0)
(0.00246564 -0.00112861 0)
(0.00165991 -0.00134762 0)
(0.0013367 -0.00157571 0)
(0.00322845 -0.000216189 0)
(0.00358878 -0.000251081 0)
(0.00323193 -0.000235775 0)
(0.00382997 -7.69358e-06 0)
(0.00353219 -0.000144903 0)
(0.00342493 -0.000201519 0)
(0.00397794 -4.56884e-05 0)
(0.00357753 -0.000125988 0)
(0.00436836 -8.52165e-05 0)
(0.00456517 -0.000147419 0)
(0.00321217 -0.000196096 0)
(0.00126877 -0.00139932 0)
(0.00391614 -0.000182929 0)
(0.00374252 -8.90804e-05 0)
(0.00361719 -0.000168057 0)
(0.00168527 -0.00169971 0)
(0.0040787 -2.88695e-05 0)
(0.00349488 -0.000113231 0)
(0.00463963 -0.00016656 0)
(0.0037446 -3.60458e-05 0)
(0.00383204 -2.15355e-05 0)
(0.00326626 -0.000250985 0)
(0.00485441 -8.75168e-06 0)
(0.00447629 -0.000372197 0)
(0.00462354 -3.81466e-05 0)
(0.00218533 -0.000687033 0)
(0.00311305 -0.000274235 0)
(0.00381316 -0.000375452 0)
(0.0040979 -0.000222598 0)
(0.000984127 -0.00184354 0)
(0.0027705 -0.000625858 0)
(0.00384871 -3.5893e-05 0)
(0.00436899 -0.000125629 0)
(0.00361947 -0.00039939 0)
(0.00260079 -0.000523207 0)
(0.00467435 -7.45868e-05 0)
(0.00445749 -0.000244895 0)
(0.00160938 -0.00107897 0)
(0.00407181 -9.96171e-05 0)
(0.000220455 -0.00252847 0)
(0.00468146 -5.41643e-05 0)
(0.00439826 -0.000289571 0)
(0.00335603 -0.000159147 0)
(0.00364917 -5.66278e-05 0)
(0.00432185 -0.000192984 0)
(0.00386188 -7.76436e-06 0)
(0.00414184 -0.000432411 0)
(0.00369373 -0.000461224 0)
(0.00473829 -9.35704e-05 0)
(0.00298036 -0.000355213 0)
(0.00443212 -0.000145784 0)
(0.00397008 -0.000287245 0)
(0.00450137 -1.48432e-05 0)
(0.00122245 -0.00135473 0)
(0.00413279 -0.000298885 0)
(0.00484303 -3.33394e-05 0)
(0.00455812 -0.000261822 0)
(0.0017184 -0.00103307 0)
(0.00430076 -0.000312544 0)
(0.00403718 -5.98357e-05 0)
(0.00252782 -0.000655917 0)
(0.00401187 -1.89956e-05 0)
(0.00382911 -7.65842e-05 0)
(0.00302128 -0.000787581 0)
(0.000662531 -0.00224035 0)
(0.0040436 -0.000377235 0)
(0.00381381 -5.30434e-05 0)
(0.00347317 -0.000109752 0)
(0.00329587 -0.000337576 0)
(0.0032289 -0.000484646 0)
(0.00357227 -0.00032686 0)
(0.00394678 -0.000322141 0)
(0.000516414 -0.00215708 0)
(0.00486982 -1.76586e-05 0)
(0.00452957 -0.000317455 0)
(0.00264737 -0.000577519 0)
(0.0047445 -2.61692e-05 0)
(0.000123493 -0.00265402 0)
(0.0042704 -9.83081e-06 0)
(0.00436558 -0.000357002 0)
(0.00463105 -0.000108386 0)
(0.00444182 -0.000105317 0)
(0.00212796 -0.000898474 0)
(8.85358e-05 -0.00270364 0)
(0.00382923 -0.000140793 0)
(0.00378554 -1.27577e-05 0)
(0.00434305 -2.97535e-05 0)
(0.00454442 -7.18423e-05 0)
(0.00119416 -0.00190409 0)
(0.000762888 -0.00183457 0)
(0.00224726 -0.00104403 0)
(0.00344375 -0.00013285 0)
(0.000837509 -0.00204384 0)
(0.00338569 -0.000444148 0)
(0.00124599 -0.00193806 0)
(0.00156505 -0.00120976 0)
(0.00340692 -0.000184432 0)
(0.0037476 -2.51197e-05 0)
(0.000696004 -0.00208859 0)
(0.00193231 -0.000936813 0)
(0.00319758 -0.000214605 0)
(0.00337354 -0.000400044 0)
(0.00243249 -0.000577633 0)
(0.00389594 -0.00040205 0)
(0.00368663 -5.64692e-05 0)
(0.00413649 -4.49826e-05 0)
(0.00259452 -0.000463655 0)
(0.00407923 -0.000171853 0)
(0.00421308 -2.71699e-05 0)
(0.00375209 -0.000120805 0)
(0.00277396 -0.000408681 0)
(0.00360524 -0.000265054 0)
(0.00392177 -1.68196e-05 0)
(0.00361565 -7.33709e-05 0)
(0.00307171 -0.000254721 0)
(0.00366257 -8.81693e-05 0)
(0.000391121 -0.0023177 0)
(0.00351477 -0.000212343 0)
(0.00306549 -0.000509326 0)
(0.00225175 -0.000709271 0)
(0.00332965 -0.000190503 0)
(0.00398349 -5.69265e-06 0)
(0.00459305 -0.000223063 0)
(0.00197163 -0.000836061 0)
(0.00340696 -0.000327284 0)
(0.00377081 -2.47721e-05 0)
(0.00274294 -0.00047032 0)
(0.00254428 -0.00055106 0)
(0.00308993 -0.000385447 0)
(0.00404607 -0.00013653 0)
(0.00426431 -0.000293185 0)
(0.00455473 -0.000193858 0)
(0.00368854 -6.64117e-05 0)
(0.000141103 -0.0025899 0)
(0.00417908 -0.000100156 0)
(0.00441146 -0.000181426 0)
(0.000281314 -0.00254874 0)
(0.00343597 -0.000122678 0)
(0.000542666 -0.00227844 0)
(0.00365104 -5.46424e-05 0)
(0.00292306 -0.000425362 0)
(0.0027092 -0.000777579 0)
(0.00441377 -0.000215022 0)
(0.00307471 -0.000307065 0)
(0.000193763 -0.00260331 0)
(0.00375112 -2.6826e-05 0)
(0.0012356 -0.00172695 0)
(0.00394088 -0.000240833 0)
(0.00377632 -0.000316735 0)
(0.00201094 -0.00108168 0)
(0.00309632 -0.000498607 0)
(0.000879414 -0.00180682 0)
(0.00436361 -0.000144748 0)
(0.00343424 -0.000116505 0)
(0.00326575 -0.000418435 0)
(0.00371942 -5.04326e-05 0)
(0.00102873 -0.00205819 0)
(0.00306089 -0.000254271 0)
(0.00307081 -0.000260327 0)
(0.00463325 -5.45518e-05 0)
(0.00283713 -0.000347578 0)
(0.00219226 -0.000693817 0)
(0.00394008 -3.32386e-05 0)
(0.000932262 -0.00163612 0)
(0.00390773 -0.000449784 0)
(0.00353655 -0.000106265 0)
(0.00233754 -0.00130289 0)
(0.0043914 -0.00040218 0)
(0.00421736 -7.97455e-05 0)
(0.00329922 -0.000291695 0)
(0.000364984 -0.00237339 0)
(0.00251656 -0.000615676 0)
(0.00174991 -0.00117835 0)
(0.00195178 -0.000992213 0)
(0.00412715 -0.000273217 0)
(0.00419326 -5.52659e-05 0)
(0.00320226 -0.000317401 0)
(0.00451992 -4.88111e-05 0)
(0.00368453 -9.17347e-05 0)
(0.00469015 -0.000137424 0)
(0.00475981 -3.33521e-05 0)
(0.00140507 -0.00166079 0)
(0.00309598 -0.000327188 0)
(0.00480638 -7.88451e-06 0)
(0.00442255 -0.000323582 0)
(0.00153392 -0.00109987 0)
(0.00409538 -7.83307e-05 0)
(0.00362369 -6.52672e-05 0)
(0.00399035 -0.000188537 0)
(0.00358279 -8.08849e-05 0)
(0.00309148 -0.000240208 0)
(0.00463619 -9.2276e-06 0)
(0.00273167 -0.000516789 0)
(0.00320507 -0.000194784 0)
(0.00167203 -0.00141596 0)
(0.00333478 -0.000379054 0)
(0.00390776 -0.000273666 0)
(0.00129751 -0.00148673 0)
(0.000943388 -0.00202802 0)
(0.00045403 -0.00183877 0)
(0.00431147 -5.73637e-05 0)
(0.00441361 -1.24772e-05 0)
(0.00422124 -0.000155598 0)
(0.00391818 -0.00012498 0)
(0.0047133 -7.51319e-05 0)
(0.000365597 -0.00246431 0)
(0.00439343 -5.68337e-05 0)
(0.000664121 -0.00206296 0)
(0.00213849 -0.000737046 0)
(0.00198363 -0.00083054 0)
(0.00305718 -0.00045867 0)
(0.00267585 -0.00048338 0)
(0.00201272 -0.00123952 0)
(0.0010072 -0.00192203 0)
(0.0040241 -0.00011928 0)
(0.00387259 -0.000340423 0)
(0.00456825 -0.000131862 0)
(0.00406329 -7.22183e-06 0)
(0.00136941 -0.0014707 0)
(0.0036418 -0.000288357 0)
(0.0033969 -0.000277691 0)
(0.00348956 -0.000156112 0)
(0.00447385 -7.10218e-05 0)
(0.00417055 -0.000196869 0)
(0.00362374 -0.000166503 0)
(0.00412656 -0.000351086 0)
(0.00431503 -9.36376e-05 0)
(0.00368286 -8.71823e-05 0)
(0.00417282 -0.00039387 0)
(0.0038115 -8.06679e-06 0)
(0.00424818 -0.000422182 0)
(0.00285176 -0.000358609 0)
(0.000707325 -0.00222147 0)
(0.00399233 -0.000449967 0)
(0.00362151 -0.000205821 0)
(0.0034899 -0.00027962 0)
(0.000992365 -0.00178483 0)
(0.00249903 -0.00053346 0)
(0.000631153 -0.00222439 0)
(0.00475642 -4.40876e-05 0)
(0.00445726 -0.000291371 0)
(0.00376456 -1.50814e-05 0)
(0.00457428 -0.00010545 0)
(0.0043075 -0.00012054 0)
(0.00228713 -0.000630353 0)
(0.0028154 -0.000374626 0)
(0.00349326 -0.000383336 0)
(0.00344741 -0.000217958 0)
(0.004493 -2.79805e-05 0)
(0.00179953 -0.000932736 0)
(0.0019082 -0.000855528 0)
(0.000356473 -0.00247051 0)
(0.00285067 -0.000544737 0)
(0.00243299 -0.000673263 0)
(0.00439399 -0.000248015 0)
(0.00382045 -3.25652e-05 0)
(0.00370336 -0.000112211 0)
(0.0041764 -0.000121569 0)
(0.00389645 -7.98713e-05 0)
(0.00429063 -0.000361341 0)
(0.00240575 -0.000859475 0)
(0.00458829 -2.89707e-05 0)
(0.00115016 -0.00170809 0)
(0.00439688 -3.32873e-05 0)
(0.00337058 -0.000489546 0)
(0.00391145 -4.93385e-06 0)
(0.00482595 -4.45068e-05 0)
(0.00117536 -0.00151415 0)
(0.00168933 -0.000995369 0)
(0.00426721 -0.000182762 0)
(0.00331205 -0.000164957 0)
(0.00345795 -0.000132476 0)
(0.00417123 -7.05583e-05 0)
(0.00400309 -0.000336638 0)
(0.00392851 -0.000160208 0)
(0.0023135 -0.000648289 0)
(0.0015985 -0.00182535 0)
(0.00411568 -2.02873e-05 0)
(0.00428723 -0.000161278 0)
(0.00351882 -0.000130113 0)
(0.0032847 -0.000167757 0)
(0.00479759 -6.26646e-05 0)
(0.00217225 -0.000923223 0)
(0.00380555 -0.000242698 0)
(0.00220037 -0.000766887 0)
(0.00365256 -7.99567e-05 0)
(0.00462058 -0.000141361 0)
(0.00330553 -0.000160518 0)
(0.00405587 -0.000269405 0)
(0.0034452 -0.000422035 0)
(0.00340362 -0.000262414 0)
(0.00372987 -4.90459e-05 0)
(0.00372729 -3.44685e-05 0)
(0.00402443 -3.87579e-05 0)
(0.00451338 -9.20304e-05 0)
(0.00287849 -0.000469317 0)
(0.0039235 -4.61242e-05 0)
(9.97854e-05 -0.00263002 0)
(0.0037428 -0.000275147 0)
(0.000844205 -0.00195449 0)
(0.00440903 -9.51884e-05 0)
(0.00205041 -0.000778139 0)
(0.00334257 -0.000181477 0)
(0.00371197 -4.61998e-05 0)
(0.0031713 -0.00067644 0)
(0.00428209 -7.39989e-05 0)
(0.0036423 -0.000180958 0)
(0.00461275 -8.6484e-05 0)
(0.00375388 -6.15249e-05 0)
(0.00487823 -2.14967e-05 0)
(0.00456823 -0.000285147 0)
(0.000194378 -0.00248049 0)
(0.00367764 -0.000103229 0)
(0.00411843 -3.51066e-05 0)
(0.00295178 -0.000422256 0)
(0.00373735 -2.93418e-05 0)
(0.00381151 -0.000412798 0)
(0.00452314 -0.000217556 0)
(0.00410634 -6.98414e-06 0)
(0.00275119 -0.000506702 0)
(0.00251517 -0.000506134 0)
(0.0028921 -0.000413124 0)
(0.00441567 -6.9886e-05 0)
(0.00225968 -0.000693758 0)
(0.00353519 -0.0001858 0)
(0.00156656 -0.00113923 0)
(0.0032052 -0.000226047 0)
(0.00408059 -0.00014904 0)
(0.00440441 -0.000165886 0)
(0.00328806 -0.000188688 0)
(0.00388438 -1.59384e-05 0)
(0.00293228 -0.000353929 0)
(0.00348629 -0.000101372 0)
(0.00402985 -0.00022175 0)
(0.00352701 -0.000479297 0)
(0.00210009 -0.000782256 0)
(0.00397188 -2.41511e-05 0)
(0.00299893 -0.000324787 0)
(0.0042302 -0.000134462 0)
(0.00333898 -0.000263831 0)
(0.00274595 -0.000394316 0)
(0.00433138 -9.21922e-06 0)
(0.00383303 -0.000191392 0)
(0.00290454 -0.000321349 0)
(0.00244224 -0.00063394 0)
(0.00385186 -1.41534e-05 0)
(0.00263274 -0.000463727 0)
(0.00420565 -0.000226994 0)
(0.00265486 -0.000438256 0)
(0.00372711 -3.65179e-05 0)
(0.00368216 -0.000166016 0)
(0.00370299 -0.000232546 0)
(0.004043 -0.000409285 0)
(0.00358037 -0.000145921 0)
(0.00464771 -0.000189477 0)
(0.00184492 -0.000954558 0)
(0.00297493 -0.000294805 0)
(0.00263127 -0.000462842 0)
(0.000612008 -0.00226063 0)
(0.00358894 -7.32311e-05 0)
(0.00240343 -0.00103308 0)
(0.00377914 -0.000468798 0)
(0.00206642 -0.0011176 0)
(0.00474466 -0.000100384 0)
(0.00418528 -8.46213e-06 0)
(0.00211774 -0.0014455 0)
(0.00389751 -0.000145947 0)
(0.00360505 -9.15294e-05 0)
(0.00321527 -0.000252024 0)
(0.00143829 -0.00178688 0)
(0.00163508 -0.00104393 0)
(0.00195672 -0.00139503 0)
(0.00240065 -0.000568343 0)
(0.00240834 -0.000575453 0)
(0.00403162 -9.04031e-05 0)
(0.00404704 -2.19874e-05 0)
(0.0042766 -0.000249974 0)
(0.00135058 -0.00123453 0)
(0.0037785 -1.0052e-05 0)
(0.00415212 -0.000172949 0)
(0.00454543 -0.000166469 0)
(0.00175708 -0.0010802 0)
(0.00416671 -3.5053e-05 0)
(0.00272918 -0.000575603 0)
(0.00450195 -0.000139179 0)
(0.0039775 -7.57313e-05 0)
(0.00450248 -0.000194365 0)
(0.00289621 -0.000371317 0)
(0.00339342 -0.000131401 0)
(0.00392781 -0.000203877 0)
(0.00396558 -0.000381369 0)
(8.37133e-05 -0.00268858 0)
(0.00370284 -0.000338334 0)
(0.00424937 -3.62429e-05 0)
(0.00354347 -0.000367741 0)
(0.00409355 -5.37609e-05 0)
(0.00299543 -0.000306592 0)
(0.00478328 -7.40271e-05 0)
(0.00385734 -5.49204e-05 0)
(0.00234856 -0.000610695 0)
(0.00181298 -0.00119605 0)
(0.00400325 -5.08912e-05 0)
(0.00046656 -0.00237242 0)
(0.0019412 -0.00161289 0)
(0.00251921 -0.000501912 0)
(0.00392204 -0.000104589 0)
(0.00246488 -0.000582546 0)
(0.00376366 -0.000185488 0)
(0.00360536 -0.000481727 0)
(0.00270682 -0.000458621 0)
(0.00385242 -0.000104424 0)
(0.00372065 -0.000386453 0)
(0.000423678 -0.00237243 0)
(0.00083675 -0.00178476 0)
(0.00150586 -0.00145523 0)
(0.00468042 -3.03388e-05 0)
(0.0045086 -0.000120024 0)
(0.00468726 -0.000101931 0)
(0.00469049 -8.93735e-05 0)
(0.00373791 -3.29254e-05 0)
(0.00269141 -0.00104245 0)
(0.00111992 -0.00151475 0)
(0.00311096 -0.000349303 0)
(0.00383267 -0.000291049 0)
(0.00419184 -0.00030335 0)
(0.00252426 -0.000539828 0)
(0.00371844 -4.94638e-05 0)
(0.00456798 -4.21043e-05 0)
(0.00213141 -0.000760891 0)
(0.00406465 -0.000244944 0)
(0.00375827 -0.000164222 0)
(0.0015832 -0.00127442 0)
(0.00318819 -0.000411616 0)
(0.00189655 -0.000993892 0)
(0.00372006 -3.93208e-05 0)
(0.0022779 -0.000644584 0)
(0.00446687 -0.000326806 0)
(0.00470093 -9.20404e-06 0)
(0.00306588 -0.000627046 0)
(0.00453228 -0.00022989 0)
(0.00355932 -0.000218448 0)
(0.00417396 -1.83326e-05 0)
(0.00216696 -0.000700343 0)
(0.00431323 -8.23974e-05 0)
(0.00481105 -2.48835e-05 0)
(0.00489087 -9.63576e-06 0)
(0.00452805 -0.000345114 0)
(0.00420298 -0.000250444 0)
(0.000250362 -0.00250199 0)
(0.00354666 -0.000433968 0)
(0.00356101 -0.000252139 0)
(0.00448942 -0.000168935 0)
(0.000645701 -0.00225473 0)
(0.00445969 -9.12893e-06 0)
(0.00361291 -0.000102608 0)
(0.00361646 -6.47746e-05 0)
(0.0040775 -6.60221e-05 0)
(0.00448951 -0.00010785 0)
(0.00384867 -4.63415e-06 0)
(0.00303599 -0.000402195 0)
(0.00330858 -0.000165956 0)
(0.00369479 -0.000206984 0)
(0.00292988 -0.00048438 0)
(0.00238694 -0.000670986 0)
(0.00175165 -0.00153302 0)
(0.00354581 -0.000167252 0)
(0.0016034 -0.00152867 0)
(0.00377705 -0.000226241 0)
(0.000280204 -0.00252204 0)
(0.00347291 -0.000234034 0)
(0.00442671 -0.000193323 0)
(0.00429763 -0.000425447 0)
(0.00135306 -0.00175756 0)
(0.0029381 -0.000549125 0)
(0.00331595 -0.000575739 0)
(0.0036572 -0.000423403 0)
(0.00258266 -0.000771783 0)
(0.00291237 -0.00049346 0)
(0.00413452 -0.000323204 0)
(0.000341695 -0.00205052 0)
(0.00300317 -0.000275184 0)
(0.00426793 -0.000212721 0)
(0.0010176 -0.00152148 0)
(0.00340689 -0.000356271 0)
(0.0047303 -0.000115453 0)
(0.00314763 -0.000223636 0)
(0.00288878 -0.000323346 0)
(0.00377084 -0.000439485 0)
(0.00196312 -0.000885484 0)
(0.00424815 -5.02236e-05 0)
(0.00343867 -0.000160018 0)
(0.0043107 -1.85494e-05 0)
(0.00328955 -0.000500762 0)
(0.00125789 -0.00137367 0)
(0.00257918 -0.0009455 0)
(0.00439082 -2.36351e-05 0)
(0.000587145 -0.00201133 0)
(0.00252318 -0.000577126 0)
(0.00231571 -0.000612973 0)
(0.00280592 -0.000362775 0)
(0.00380268 -0.000126624 0)
(0.00271297 -0.000404821 0)
(0.0029443 -0.000324268 0)
(0.00293843 -0.000545503 0)
(0.00370828 -4.7574e-05 0)
(0.00407132 -0.00031821 0)
(0.003479 -0.000332199 0)
(0.00322298 -0.000427758 0)
(0.00352402 -9.20695e-05 0)
(0.00184419 -0.000934283 0)
(0.00367432 -0.000146898 0)
(0.0040569 -0.000456641 0)
(0.00394191 -5.50781e-05 0)
(0.00402399 -4.46168e-06 0)
(0.00466386 -0.000170726 0)
(0.00353047 -9.8875e-05 0)
(0.0016259 -0.0012021 0)
(0.00422786 -0.000106961 0)
(0.00451507 -6.04008e-05 0)
(0.0039797 -8.97542e-05 0)
(0.0013848 -0.0013269 0)
(0.00365477 -6.7157e-05 0)
(0.00140025 -0.00127982 0)
(0.00140092 -0.00122283 0)
(0.00412492 -0.000101327 0)
(0.00458413 -6.96853e-06 0)
(0.00212765 -0.000855297 0)
(0.00287644 -0.000921257 0)
(0.000971236 -0.00175749 0)
(0.00314368 -0.000400698 0)
(0.00422381 -6.60461e-06 0)
(0.00237772 -0.000805088 0)
(0.00326728 -0.000449285 0)
(0.0026458 -0.000620625 0)
(0.00355015 -8.2575e-05 0)
(0.00416402 -0.000218988 0)
(0.00431039 -0.000265713 0)
(0.00320965 -0.000271118 0)
(0.00262662 -0.000453985 0)
(0.00289354 -0.000766236 0)
(0.00332989 -0.000208603 0)
(0.00165237 -0.00130584 0)
(0.00320776 -0.000359393 0)
(0.00429916 -0.000385669 0)
(0.00432849 -0.000230098 0)
(0.00316336 -0.000227939 0)
(0.00483077 -4.86977e-05 0)
(0.00339803 -0.000200382 0)
(0.00359295 -0.000157238 0)
(0.000677078 -0.00219891 0)
(0.00300672 -0.000272905 0)
(0.0042828 -0.000105494 0)
(0.00457608 -8.31908e-05 0)
(0.00361572 -0.000186124 0)
(0.000947251 -0.00191549 0)
(0.00490271 -3.70252e-06 0)
(0.00451544 -0.000377652 0)
(0.00425304 -1.92493e-05 0)
(0.0039436 -3.40768e-06 0)
(0.000365424 -0.00247098 0)
(0.00275988 -0.000459053 0)
(0.0035351 -0.000122782 0)
(0.00418227 -0.00035863 0)
(0.00294291 -0.000316527 0)
(0.00324067 -0.000373523 0)
(0.00241268 -0.000568593 0)
(0.00474783 -6.1339e-05 0)
(0.00411082 -0.000408315 0)
(0.00389042 -0.00022878 0)
(0.00314618 -0.000512211 0)
(0.00390008 -0.0004275 0)
(0.00399098 -0.000149289 0)
(0.00383695 -1.12146e-05 0)
(0.00474406 -7.40205e-05 0)
(0.00379032 -2.69541e-05 0)
(0.00384615 -0.000468328 0)
(0.00180822 -0.000927736 0)
(0.00453888 -2.48152e-05 0)
(0.00319185 -0.000281993 0)
(0.00319306 -0.0001999 0)
(0.00388331 -2.77953e-05 0)
(0.00388907 -3.35328e-05 0)
(0.00470427 -2.1335e-05 0)
(0.000264257 -0.0025562 0)
(0.00206005 -0.000762261 0)
(0.00380767 -1.48307e-05 0)
(0.00372924 -7.66258e-05 0)
(0.00340979 -0.000136033 0)
(0.00366363 -0.000100117 0)
(0.00437956 -7.92635e-06 0)
(0.00469164 -0.000112655 0)
(0.00308804 -0.000420033 0)
(0.00397235 -3.82262e-05 0)
(0.00389352 -6.60069e-05 0)
(0.000110994 -0.00268517 0)
(0.00485062 -4.01783e-06 0)
(0.0044533 -0.000396971 0)
(0.00410786 -0.000131876 0)
(0.00327615 -0.000268191 0)
(0.00404384 -1.49978e-05 0)
(0.00255113 -0.000524002 0)
(0.00437836 -0.000110347 0)