/*--------------------------------*- C++ -*----------------------------------*\
| =========                 |                                                 |
| \\      /  F ield         | OpenFOAM: The Open Source CFD Toolbox           |
|  \\    /   O peration     | Version:  v2012                                 |
|   \\  /    A nd           | Website:  www.openfoam.com                      |
|    \\/     M anipulation  |                                                 |
\*---------------------------------------------------------------------------*/
FoamFile
{
    version     2.0;
    format      ascii;
    class       volScalarField;
    location    "7";
    object      epsilonEq;
}
// * * * * * * * * * * * * * * * * * * * * * * * * * * * * * * * * * * * * * //

dimensions      [0 0 0 0 0 0 0];


internalField   nonuniform List<scalar> 
1000
(
0.00587813
0.00491035
0.00380364
0.00300471
0.00255973
0.00228876
0.00206059
0.00191473
0.00178217
0.00168945
0.00528566
0.00423877
0.00333433
0.00286825
0.00252821
0.00231286
0.00211921
0.00199097
0.0018669
0.0017808
0.00428331
0.00339595
0.00290615
0.00270627
0.00247579
0.00232993
0.0021747
0.00207597
0.00196768
0.0018956
0.00337107
0.0028829
0.00267705
0.00254124
0.00238889
0.00228913
0.00218217
0.00211328
0.0020332
0.00197936
0.00287228
0.00261742
0.0024662
0.00235407
0.00226434
0.00220746
0.00214726
0.00210984
0.0020593
0.00202476
0.00255093
0.0023443
0.00222274
0.00216411
0.00212534
0.00211227
0.00208821
0.00208001
0.00205288
0.00203613
0.00218616
0.00204558
0.00198538
0.00198809
0.00199243
0.00201748
0.0020208
0.00203497
0.0020253
0.00202078
0.00177422
0.00172346
0.00173846
0.00179965
0.00184766
0.00190354
0.00193196
0.00196298
0.00196821
0.0019749
0.00136629
0.00141213
0.00150785
0.00162512
0.00171181
0.00179405
0.0018417
0.00188573
0.00190282
0.00191377
0.000949587
0.00110331
0.00127885
0.00144062
0.00156346
0.00165776
0.00172996
0.00177165
0.00181579
0.00181973
0.00057874
0.000841878
0.00108381
0.001277
0.00142275
0.0015287
0.00161037
0.00166217
0.00170628
0.00173609
0.000277963
0.000654578
0.00092897
0.00114261
0.00129206
0.00141201
0.00148667
0.00155591
0.00157883
0.00163065
0.000312567
0.0005768
0.000814373
0.00101473
0.00115232
0.00126951
0.00133682
0.00140808
0.00142383
0.0014782
0.000573697
0.000630777
0.000765456
0.000923606
0.00103094
0.00113755
0.00118993
0.00126015
0.00126864
0.00132382
0.000835324
0.000751062
0.000766025
0.000854815
0.00091941
0.00100312
0.00103877
0.00110101
0.00110346
0.00115392
0.00106429
0.000889617
0.000805456
0.000815894
0.000829042
0.000879114
0.000895208
0.000942534
0.000940856
0.000981728
0.00125334
0.00101598
0.000858496
0.000795368
0.000754733
0.000762263
0.00075443
0.000779998
0.000771552
0.000798805
0.0013972
0.00111807
0.000910976
0.000789902
0.000701551
0.000663529
0.000629574
0.00062716
0.000610962
0.000620184
0.00149474
0.00118874
0.000950465
0.000789665
0.000665264
0.000586558
0.000526054
0.000491955
0.000464765
0.000451809
0.00154368
0.0012249
0.000971845
0.000791369
0.000648019
0.000544936
0.00046658
0.000407653
0.000370487
0.00033636
0.000321347
0.000439849
0.000610103
0.000786162
0.000965549
0.0011278
0.00129014
0.00143129
0.00158084
0.00171833
0.000319812
0.000425779
0.000582952
0.000747826
0.000919333
0.00107377
0.0012253
0.00134869
0.00146347
0.00156793
0.000333911
0.00042165
0.000556978
0.000703135
0.000857113
0.00100394
0.00115023
0.00129006
0.00140887
0.00151858
0.000376993
0.000448466
0.000563453
0.000693204
0.000827326
0.000956526
0.00107494
0.00119391
0.00129315
0.00140501
0.000407358
0.000463845
0.000557664
0.000672045
0.000791803
0.000917891
0.00103186
0.00115154
0.00124309
0.00133807
0.000455721
0.000500877
0.000576628
0.000673164
0.000772131
0.00087971
0.00097486
0.00108117
0.00116736
0.00126064
0.000495138
0.000531372
0.000593302
0.000677417
0.00076531
0.000864878
0.000952928
0.00104945
0.00112688
0.00120817
0.000539042
0.00056775
0.000617062
0.000686086
0.000758775
0.000843372
0.000920372
0.0010068
0.00107988
0.00115589
0.000580838
0.000604281
0.000645299
0.000704151
0.000767767
0.000841964
0.000910945
0.000986367
0.001052
0.00111921
0.000619042
0.000637659
0.000670725
0.000718742
0.000772131
0.000835116
0.000896024
0.00096289
0.00102305
0.0010843
0.000657783
0.000673088
0.000700808
0.000741058
0.000787006
0.000840641
0.000894063
0.000951458
0.00100524
0.00105904
0.000689653
0.000701952
0.000724689
0.000757703
0.000796607
0.000842005
0.000888847
0.000938935
0.000986883
0.00103512
0.000721341
0.000731477
0.000750491
0.000777965
0.000810937
0.000849178
0.000889503
0.000932084
0.000974581
0.0010149
0.000745115
0.000753393
0.00076912
0.000791907
0.000819719
0.000852182
0.000886951
0.000923876
0.000961312
0.000997348
0.000766209
0.000773062
0.000786252
0.000805226
0.000828758
0.000856039
0.00088578
0.000917188
0.000949343
0.000981036
0.000778847
0.000784546
0.000795605
0.000811544
0.000831551
0.000854796
0.000880513
0.0009075
0.000935791
0.000962866
0.000784906
0.000789762
0.000799286
0.000812958
0.000830316
0.000850497
0.00087296
0.000896777
0.000921432
0.000945895
0.000781593
0.000785841
0.000794236
0.000806307
0.000821794
0.000839867
0.000860205
0.000881806
0.000904424
0.000926746
0.000765908
0.000769913
0.000777927
0.000789436
0.000804493
0.000822053
0.000842357
0.000863747
0.000886966
0.000909319
0.000739205
0.00074328
0.000751485
0.000763344
0.000779063
0.000797542
0.000819305
0.000842352
0.000867878
0.0008926
0.00178287
0.00176253
0.00178986
0.00178974
0.00180717
0.0018085
0.00181315
0.00181129
0.00180838
0.0018024
0.00179635
0.00178889
0.00178312
0.00177779
0.00177668
0.00177821
0.00178739
0.00180191
0.00182869
0.00186391
0.00165325
0.00167652
0.0017006
0.00171186
0.00172125
0.0017309
0.00173399
0.00174042
0.00174445
0.00174537
0.00174787
0.00175079
0.00175555
0.00176261
0.00177337
0.00178794
0.00180903
0.00183548
0.00187216
0.00191584
0.00156686
0.00158245
0.00160265
0.00161841
0.00163005
0.00164023
0.00165145
0.00166132
0.00166991
0.00167782
0.00168886
0.00169875
0.00171259
0.00172693
0.00174665
0.00176849
0.00179773
0.0018306
0.00187347
0.00192133
0.00146627
0.00149193
0.00151722
0.00153366
0.00155431
0.00156729
0.00158591
0.00159599
0.00160972
0.00162363
0.00163947
0.00165434
0.00167355
0.00169244
0.00171715
0.00174271
0.00177555
0.00181046
0.00185439
0.00190153
0.00139009
0.00141595
0.00143827
0.00145818
0.00147778
0.00149469
0.00151304
0.00152868
0.00154684
0.0015628
0.00158214
0.00160011
0.0016222
0.0016439
0.00167057
0.00169784
0.00173115
0.00176596
0.00180812
0.00185263
0.00131495
0.00134249
0.00136759
0.0013898
0.00141281
0.00143206
0.00145342
0.00147128
0.00149141
0.00150986
0.00153054
0.00155043
0.00157314
0.00159579
0.001622
0.00164885
0.00168015
0.0017127
0.0017509
0.0017906
0.00125901
0.00128532
0.0013094
0.00133232
0.00135445
0.00137508
0.00139597
0.00141534
0.00143574
0.0014549
0.00147573
0.0014957
0.00151796
0.00153979
0.0015646
0.00158933
0.00161787
0.00164657
0.0016801
0.0017143
0.00120629
0.00123155
0.00125633
0.00127957
0.0013024
0.0013235
0.00134486
0.00136456
0.00138503
0.00140411
0.00142442
0.00144367
0.00146456
0.00148482
0.00150696
0.00152924
0.0015531
0.00157871
0.00160693
0.00163504
0.00116613
0.00118956
0.00121303
0.00123539
0.00125687
0.00127742
0.00129742
0.00131659
0.00133558
0.00135392
0.00137236
0.00139047
0.00140885
0.0014274
0.00144621
0.00146591
0.0014857
0.00150513
0.00152873
0.00155207
0.00112894
0.00115033
0.00117318
0.00119428
0.00121509
0.00123458
0.00125369
0.0012718
0.00128957
0.00130657
0.00132338
0.00133958
0.00135588
0.00137159
0.00138792
0.00140339
0.00142059
0.00143583
0.00145262
0.00146998
0.00109953
0.00111974
0.00113989
0.00115949
0.00117832
0.00119625
0.00121365
0.00123012
0.00124618
0.00126133
0.00127622
0.00129023
0.00130414
0.00131719
0.00133036
0.00134263
0.00135535
0.00136708
0.0013797
0.00139163
0.0010714
0.00108918
0.00110939
0.00112623
0.001144
0.00116008
0.00117598
0.00119084
0.00120518
0.00121864
0.00123159
0.00124362
0.00125527
0.00126589
0.00127632
0.00128559
0.00129483
0.00130296
0.00131092
0.00131836
0.00104933
0.00107034
0.00108141
0.00109584
0.00111257
0.00112658
0.0011411
0.00115408
0.00116682
0.00117845
0.00118959
0.00119969
0.00120925
0.00121767
0.00122555
0.00123224
0.00123822
0.0012433
0.00124747
0.00125088
0.00102722
0.00103987
0.00105466
0.00106895
0.00108267
0.00109565
0.00110803
0.00111969
0.00113064
0.00114071
0.00115024
0.0011587
0.00116651
0.00117311
0.00117897
0.00118327
0.00118709
0.00118938
0.00119038
0.00119032
0.00100588
0.00101843
0.00103089
0.00104307
0.00105494
0.00106612
0.00107701
0.00108709
0.00109666
0.00110554
0.00111372
0.00112098
0.00112754
0.00113279
0.00113757
0.00114013
0.00114136
0.00114205
0.00114051
0.00113756
0.000984789
0.000994776
0.00100666
0.00101702
0.00102786
0.00103777
0.00104752
0.00105699
0.00106514
0.00107246
0.0010803
0.00108669
0.00109236
0.0010972
0.00110034
0.00110025
0.00110292
0.00110206
0.00109845
0.00109326
0.00096452
0.000973836
0.000983925
0.000993519
0.00100282
0.00101195
0.00102098
0.00102902
0.00103598
0.00104413
0.00105075
0.00105675
0.00106164
0.00106617
0.0010686
0.00107119
0.00107155
0.00106995
0.00106573
0.0010598
0.000943732
0.000952489
0.000961885
0.000970909
0.000979606
0.000988129
0.000996779
0.00100405
0.00101214
0.00101967
0.00102562
0.00103164
0.00103666
0.00104096
0.0010443
0.00104611
0.00104696
0.0010458
0.00104204
0.001036
0.000926644
0.000935682
0.000945312
0.000954573
0.000962132
0.000971955
0.000982922
0.000989192
0.000996826
0.00100387
0.00101006
0.00101618
0.00102102
0.00102571
0.00102894
0.00103174
0.00103292
0.00103302
0.00103102
0.00102721
0.000911566
0.000922066
0.000932931
0.000943375
0.000952282
0.000965419
0.000976119
0.000982036
0.000991665
0.000998194
0.00100552
0.00101108
0.00101652
0.00102055
0.00102418
0.0010265
0.00102833
0.00102894
0.00102894
0.00102764
0.00162188
0.00158205
0.00154195
0.00150602
0.00146838
0.0014339
0.00139673
0.00136162
0.00132308
0.00128546
0.00124368
0.00120172
0.00115471
0.0011065
0.00105207
0.000995551
0.000931165
0.000863975
0.000786618
0.000706014
0.00171197
0.00167009
0.00162705
0.00158813
0.00154715
0.00150952
0.00146899
0.00143083
0.00138912
0.00134869
0.00130411
0.00125966
0.00121036
0.00116012
0.00110407
0.00104616
0.000981112
0.000913614
0.000837223
0.000758118
0.00182957
0.00178975
0.00174548
0.00170581
0.0016625
0.0016231
0.00157969
0.00153927
0.00149462
0.00145177
0.00140454
0.00135782
0.00130648
0.00125445
0.00119736
0.00113868
0.00107426
0.00100798
0.000935166
0.000860538
0.00192391
0.00189264
0.00185106
0.00181548
0.00177275
0.00173526
0.00169117
0.00165111
0.00160527
0.00156189
0.00151359
0.0014661
0.00141434
0.00136201
0.00130567
0.0012479
0.00118615
0.00112302
0.00105606
0.000987991
0.0019827
0.0019643
0.00192773
0.00190067
0.0018615
0.00183011
0.0017889
0.00175302
0.00170977
0.00166916
0.00162335
0.00157788
0.00152879
0.0014785
0.00142565
0.00137103
0.0013147
0.00125741
0.00119969
0.00114192
0.00200544
0.00200185
0.00197007
0.00195259
0.00191722
0.00189199
0.00185429
0.00182224
0.00178276
0.0017451
0.00170374
0.00166158
0.00161801
0.00157235
0.00152656
0.00147866
0.0014316
0.00138387
0.00133843
0.00129365
0.00199985
0.00201089
0.00198605
0.00197949
0.00195266
0.00193557
0.00190692
0.00188077
0.00184952
0.00181628
0.00178189
0.00174362
0.00170623
0.00166498
0.00162568
0.00158382
0.00154505
0.00150635
0.00147293
0.00144211
0.00196068
0.00198306
0.00196464
0.00196228
0.00194304
0.00192749
0.00190757
0.00188406
0.00186221
0.00183412
0.00180947
0.00177869
0.00175144
0.00171963
0.00169145
0.00166115
0.00163553
0.00161117
0.00159398
0.00158121
0.0019111
0.0019427
0.00194574
0.00194785
0.00194664
0.00193329
0.00192395
0.00190222
0.00188548
0.00185966
0.0018384
0.00181148
0.00178859
0.00176294
0.00174149
0.00171992
0.0017039
0.0016908
0.00168611
0.00168771
0.00182635
0.00184551
0.0018694
0.00187579
0.00189206
0.00189055
0.00189482
0.0018863
0.00188014
0.00186538
0.00185194
0.00183362
0.00181705
0.00179876
0.001784
0.00177058
0.00176388
0.00176215
0.00177199
0.00179121
)
;

boundaryField
{
    back
    {
        type            empty;
    }
    left
    {
        type            symmetry;
    }
    hole
    {
        type            calculated;
        value           nonuniform List<scalar> 
20
(
0.0059525
0.00536544
0.00436985
0.00343459
0.00290009
0.00257331
0.00219902
0.00177629
0.0013543
0.000921153
0.00052166
0.000129913
0.000225462
0.00054845
0.000831841
0.00107189
0.00126792
0.00141615
0.0015164
0.00156661
)
;
    }
    front
    {
        type            empty;
    }
    down
    {
        type            symmetry;
    }
    right
    {
        type            calculated;
        value           nonuniform List<scalar> 
30
(
0.000739118
0.000743152
0.000751245
0.000763005
0.000778539
0.000796921
0.000818492
0.000841515
0.000866911
0.000891763
0.000910712
0.0009214
0.000932548
0.000942957
0.000953084
0.000963909
0.000974422
0.000981799
0.000991059
0.000997942
0.00100529
0.0010109
0.0010164
0.00102041
0.00102408
0.00102639
0.00102828
0.00102902
0.00102937
0.00102878
)
;
    }
    up
    {
        type            calculated;
        value           nonuniform List<scalar> 
30
(
0.00186422
0.00191617
0.00192184
0.00190203
0.00185305
0.00179091
0.00171452
0.00163502
0.00155194
0.00147008
0.00139156
0.00131825
0.00125077
0.00119018
0.0011375
0.00109322
0.00105962
0.00103595
0.00102717
0.00102766
0.000705298
0.000757273
0.000859592
0.000986989
0.00114101
0.00129285
0.00144147
0.0015807
0.00168743
0.00179106
)
;
    }
}


// ************************************************************************* //
