/*--------------------------------*- C++ -*----------------------------------*\
| =========                 |                                                 |
| \\      /  F ield         | OpenFOAM: The Open Source CFD Toolbox           |
|  \\    /   O peration     | Version:  v2012                                 |
|   \\  /    A nd           | Website:  www.openfoam.com                      |
|    \\/     M anipulation  |                                                 |
\*---------------------------------------------------------------------------*/
FoamFile
{
    version     2.0;
    format      ascii;
    class       volVectorField;
    location    "2";
    object      D;
}
// * * * * * * * * * * * * * * * * * * * * * * * * * * * * * * * * * * * * * //

dimensions      [0 1 0 0 0 0 0];


internalField   nonuniform List<vector> 
1000
(
(2.82044e-05 -0.000396382 0)
(2.56418e-05 -0.000409488 0)
(2.36001e-05 -0.0004189 0)
(2.20452e-05 -0.000427525 0)
(2.08116e-05 -0.000434197 0)
(1.98468e-05 -0.000440509 0)
(1.90813e-05 -0.000445818 0)
(1.8458e-05 -0.00045096 0)
(1.79572e-05 -0.000455625 0)
(1.75065e-05 -0.000460202 0)
(8.44383e-05 -0.000391533 0)
(7.6916e-05 -0.0004036 0)
(7.09156e-05 -0.000412203 0)
(6.63422e-05 -0.000420165 0)
(6.2712e-05 -0.000426292 0)
(5.98745e-05 -0.000432123 0)
(5.76246e-05 -0.000437011 0)
(5.57996e-05 -0.00044175 0)
(5.43367e-05 -0.000446044 0)
(5.30352e-05 -0.000450234 0)
(0.000140173 -0.000382089 0)
(0.000128158 -0.000392164 0)
(0.00011855 -0.000399218 0)
(0.000111208 -0.000405907 0)
(0.00010537 -0.000410991 0)
(0.000100805 -0.000415899 0)
(9.71848e-05 -0.000419985 0)
(9.42619e-05 -0.000423957 0)
(9.19233e-05 -0.000427554 0)
(8.98817e-05 -0.000431021 0)
(0.000195034 -0.000368514 0)
(0.000179261 -0.000375825 0)
(0.0001666 -0.000380722 0)
(0.000156896 -0.000385634 0)
(0.000149161 -0.000389264 0)
(0.000143113 -0.000392892 0)
(0.000138315 -0.000395873 0)
(0.000134472 -0.000398797 0)
(0.000131405 -0.000401452 0)
(0.000128804 -0.000403953 0)
(0.000248705 -0.000351457 0)
(0.000230079 -0.000355446 0)
(0.000215058 -0.000357747 0)
(0.000203496 -0.000360508 0)
(0.00019425 -0.000362384 0)
(0.000187016 -0.000364469 0)
(0.000181269 -0.000366134 0)
(0.000176703 -0.000367821 0)
(0.000173063 -0.00036938 0)
(0.000170074 -0.000370777 0)
(0.000300769 -0.00033157 0)
(0.000280323 -0.000331951 0)
(0.000263734 -0.000331419 0)
(0.000250911 -0.000331822 0)
(0.000240607 -0.00033178 0)
(0.000232551 -0.000332189 0)
(0.000226132 -0.000332437 0)
(0.000221092 -0.000332815 0)
(0.000217071 -0.000333231 0)
(0.000213901 -0.000333504 0)
(0.000350932 -0.000309707 0)
(0.000329685 -0.000306424 0)
(0.000312328 -0.000303013 0)
(0.00029885 -0.000301003 0)
(0.000287963 -0.000299002 0)
(0.000279445 -0.000297704 0)
(0.000272635 -0.000296521 0)
(0.000267333 -0.000295594 0)
(0.000263096 -0.000294891 0)
(0.000259872 -0.000294088 0)
(0.00039883 -0.000286292 0)
(0.000377794 -0.000279558 0)
(0.000360461 -0.00027341 0)
(0.000346947 -0.000269091 0)
(0.000335951 -0.000265215 0)
(0.000327369 -0.000262302 0)
(0.000320459 -0.000259772 0)
(0.00031517 -0.00025766 0)
(0.000310907 -0.000255948 0)
(0.000307833 -0.000254231 0)
(0.000444102 -0.000262312 0)
(0.000424126 -0.000252496 0)
(0.000407516 -0.000243913 0)
(0.000394509 -0.000237536 0)
(0.000383859 -0.000231986 0)
(0.000375528 -0.000227656 0)
(0.000368809 -0.000223933 0)
(0.000363675 -0.000220812 0)
(0.00035956 -0.000218229 0)
(0.000356642 -0.000215764 0)
(0.000486702 -0.000237662 0)
(0.000468543 -0.000225319 0)
(0.000453273 -0.000214708 0)
(0.000441288 -0.000206595 0)
(0.000431384 -0.000199612 0)
(0.000423674 -0.000194092 0)
(0.000417398 -0.000189322 0)
(0.000412721 -0.000185429 0)
(0.000408936 -0.000182052 0)
(0.000406468 -0.00017923 0)
(0.000525953 -0.000213366 0)
(0.000510157 -0.00019914 0)
(0.000496695 -0.000187045 0)
(0.00048606 -0.00017768 0)
(0.000477243 -0.000169662 0)
(0.000470242 -0.000163362 0)
(0.000464711 -0.00015786 0)
(0.000460251 -0.000153561 0)
(0.000457221 -0.00014965 0)
(0.000454401 -0.00014669 0)
(0.000562335 -0.000189 0)
(0.0005493 -0.00017358 0)
(0.000538026 -0.00016056 0)
(0.000529104 -0.000150346 0)
(0.000521687 -0.00014167 0)
(0.000515749 -0.000134747 0)
(0.000511178 -0.000128787 0)
(0.000507342 -0.00012396 0)
(0.000505035 -0.000119757 0)
(0.000502476 -0.000116155 0)
(0.000594936 -0.000165125 0)
(0.000584905 -0.000149273 0)
(0.000576005 -0.000135937 0)
(0.000568957 -0.000125375 0)
(0.000563059 -0.000116436 0)
(0.000558297 -0.000109243 0)
(0.000554744 -0.000103086 0)
(0.000551646 -9.80383e-05 0)
(0.000550063 -9.37326e-05 0)
(0.000547976 -8.99064e-05 0)
(0.000624106 -0.000141681 0)
(0.000617115 -0.000126117 0)
(0.000610647 -0.000113073 0)
(0.000605547 -0.000102656 0)
(0.000601214 -9.38957e-05 0)
(0.000597708 -8.67684e-05 0)
(0.000595173 -8.07544e-05 0)
(0.000592895 -7.57252e-05 0)
(0.000591961 -7.15855e-05 0)
(0.00059047 -6.77685e-05 0)
(0.000649278 -0.000118747 0)
(0.000645244 -0.000104206 0)
(0.000641132 -9.20461e-05 0)
(0.000637949 -8.22732e-05 0)
(0.000635138 -7.40923e-05 0)
(0.000632896 -6.7385e-05 0)
(0.000631338 -6.17922e-05 0)
(0.000629928 -5.7049e-05 0)
(0.000629585 -5.32639e-05 0)
(0.000628768 -4.96611e-05 0)
(0.000670573 -9.63555e-05 0)
(0.000669232 -8.34728e-05 0)
(0.00066728 -7.27239e-05 0)
(0.00066587 -6.40425e-05 0)
(0.00066446 -5.68091e-05 0)
(0.000663406 -5.084e-05 0)
(0.000662748 -4.59168e-05 0)
(0.000662175 -4.1693e-05 0)
(0.000662368 -3.8408e-05 0)
(0.000662225 -3.52079e-05 0)
(0.000687704 -7.43971e-05 0)
(0.000688689 -6.3754e-05 0)
(0.0006886 -5.48852e-05 0)
(0.000688732 -4.76968e-05 0)
(0.000688537 -4.17271e-05 0)
(0.00068853 -3.67776e-05 0)
(0.00068865 -3.27289e-05 0)
(0.000688826 -2.92241e-05 0)
(0.000689478 -2.65526e-05 0)
(0.000689946 -2.38966e-05 0)
(0.000700677 -5.2859e-05 0)
(0.000703498 -4.49085e-05 0)
(0.000704885 -3.82922e-05 0)
(0.000706245 -3.29161e-05 0)
(0.000707017 -2.84636e-05 0)
(0.000707851 -2.47596e-05 0)
(0.000708594 -2.17486e-05 0)
(0.00070938 -1.91262e-05 0)
(0.0007104 -1.7156e-05 0)
(0.000711373 -1.51705e-05 0)
(0.000709352 -3.15852e-05 0)
(0.000713447 -2.6677e-05 0)
(0.000715858 -2.25945e-05 0)
(0.000718072 -1.92721e-05 0)
(0.000719516 -1.65245e-05 0)
(0.000720938 -1.42339e-05 0)
(0.000722115 -1.23788e-05 0)
(0.000723329 -1.07561e-05 0)
(0.000724605 -9.54814e-06 0)
(0.000725932 -8.31846e-06 0)
(0.000713711 -1.05156e-05 0)
(0.000718456 -8.85429e-06 0)
(0.00072139 -7.47359e-06 0)
(0.000724042 -6.34914e-06 0)
(0.00072583 -5.42036e-06 0)
(0.000727555 -4.64536e-06 0)
(0.000728955 -4.01918e-06 0)
(0.000730391 -3.47061e-06 0)
(0.000731799 -3.06435e-06 0)
(0.000733311 -2.64923e-06 0)
(0.000736178 -2.14777e-06 0)
(0.00072934 -6.7659e-06 0)
(0.000715844 -1.24414e-05 0)
(0.000695959 -1.97783e-05 0)
(0.000670205 -2.94213e-05 0)
(0.000639035 -4.18822e-05 0)
(0.000603255 -5.76321e-05 0)
(0.000563281 -7.71607e-05 0)
(0.000520113 -0.000100681 0)
(0.000473841 -0.000128593 0)
(0.000741532 -1.60811e-06 0)
(0.000735467 -5.07539e-06 0)
(0.000723492 -9.45441e-06 0)
(0.000705787 -1.52001e-05 0)
(0.000682822 -2.29296e-05 0)
(0.000654889 -3.29318e-05 0)
(0.00062284 -4.57655e-05 0)
(0.000586945 -6.1323e-05 0)
(0.000548496 -8.04471e-05 0)
(0.000507626 -0.000102008 0)
(0.000748042 -1.29816e-06 0)
(0.000742794 -4.05816e-06 0)
(0.000732432 -7.54353e-06 0)
(0.000717086 -1.20374e-05 0)
(0.000697146 -1.81498e-05 0)
(0.000672778 -2.5994e-05 0)
(0.000644615 -3.63703e-05 0)
(0.000612738 -4.8866e-05 0)
(0.000577992 -6.48668e-05 0)
(0.000540621 -8.24811e-05 0)
(0.000755798 -1.20399e-06 0)
(0.000751099 -3.71121e-06 0)
(0.000741817 -6.82816e-06 0)
(0.000728065 -1.06817e-05 0)
(0.000710192 -1.58569e-05 0)
(0.000688387 -2.22257e-05 0)
(0.000663217 -3.06603e-05 0)
(0.000634905 -4.04539e-05 0)
(0.000604005 -5.3288e-05 0)
(0.000570897 -6.72489e-05 0)
(0.00076493 -1.12311e-06 0)
(0.000760807 -3.41831e-06 0)
(0.000752648 -6.22986e-06 0)
(0.000740551 -9.58572e-06 0)
(0.000724761 -1.40718e-05 0)
(0.000705445 -1.94523e-05 0)
(0.000682951 -2.66293e-05 0)
(0.00065757 -3.47592e-05 0)
(0.000629596 -4.54148e-05 0)
(0.000599671 -5.67372e-05 0)
(0.000775058 -1.18003e-06 0)
(0.000771339 -3.54823e-06 0)
(0.000763975 -6.3386e-06 0)
(0.000753083 -9.4931e-06 0)
(0.000738865 -1.35459e-05 0)
(0.000721552 -1.81924e-05 0)
(0.00070138 -2.42812e-05 0)
(0.000678735 -3.10262e-05 0)
(0.000653663 -3.98388e-05 0)
(0.000626876 -4.9174e-05 0)
(0.000786552 -1.22387e-06 0)
(0.000783235 -3.66117e-06 0)
(0.000776653 -6.46159e-06 0)
(0.000766918 -9.53677e-06 0)
(0.000754157 -1.33678e-05 0)
(0.000738612 -1.76437e-05 0)
(0.000720406 -2.30912e-05 0)
(0.000699984 -2.89988e-05 0)
(0.000677293 -3.65073e-05 0)
(0.00065312 -4.43782e-05 0)
(0.000798893 -1.33048e-06 0)
(0.000795886 -3.96555e-06 0)
(0.000789915 -6.89434e-06 0)
(0.000781108 -1.00087e-05 0)
(0.000769563 -1.37219e-05 0)
(0.000755548 -1.77517e-05 0)
(0.000739124 -2.27111e-05 0)
(0.000720748 -2.80231e-05 0)
(0.000700282 -3.45875e-05 0)
(0.000678509 -4.14493e-05 0)
(0.000812436 -1.42906e-06 0)
(0.000809719 -4.26088e-06 0)
(0.000804317 -7.34141e-06 0)
(0.000796351 -1.05711e-05 0)
(0.000785888 -1.42922e-05 0)
(0.000773194 -1.82656e-05 0)
(0.000758296 -2.29704e-05 0)
(0.000741649 -2.79526e-05 0)
(0.000723109 -3.38856e-05 0)
(0.000703421 -4.00655e-05 0)
(0.000826747 -1.54489e-06 0)
(0.000824274 -4.60802e-06 0)
(0.000819354 -7.87469e-06 0)
(0.000812112 -1.12559e-05 0)
(0.000802605 -1.50343e-05 0)
(0.000791091 -1.9017e-05 0)
(0.000777584 -2.3586e-05 0)
(0.000762515 -2.83898e-05 0)
(0.000745733 -3.39375e-05 0)
(0.000727946 -3.96987e-05 0)
(0.000842057 -1.64988e-06 0)
(0.000839805 -4.92988e-06 0)
(0.000835322 -8.38161e-06 0)
(0.000828726 -1.19379e-05 0)
(0.000820065 -1.58226e-05 0)
(0.000809584 -1.98919e-05 0)
(0.000797299 -2.4429e-05 0)
(0.000783607 -2.91844e-05 0)
(0.000768392 -3.45116e-05 0)
(0.000752282 -4.00542e-05 0)
(0.000858052 -1.74646e-06 0)
(0.000855994 -5.2248e-06 0)
(0.0008519 -8.84952e-06 0)
(0.000845882 -1.25703e-05 0)
(0.000837988 -1.65713e-05 0)
(0.000828444 -2.07434e-05 0)
(0.000817275 -2.5311e-05 0)
(0.000804842 -3.00826e-05 0)
(0.000791052 -3.53296e-05 0)
(0.000776493 -4.07729e-05 0)
(0.000874852 -1.82118e-06 0)
(0.00087297 -5.45722e-06 0)
(0.000869229 -9.22144e-06 0)
(0.000863729 -1.30849e-05 0)
(0.000856523 -1.71941e-05 0)
(0.000847815 -2.14762e-05 0)
(0.000837646 -2.60983e-05 0)
(0.000826336 -3.09302e-05 0)
(0.000813832 -3.61588e-05 0)
(0.000800642 -4.16037e-05 0)
(0.000892211 -1.86936e-06 0)
(0.000890489 -5.60778e-06 0)
(0.000887069 -9.46369e-06 0)
(0.000882043 -1.34226e-05 0)
(0.000875468 -1.76102e-05 0)
(0.000867527 -2.19735e-05 0)
(0.000858275 -2.6654e-05 0)
(0.000847992 -3.15438e-05 0)
(0.000836671 -3.68066e-05 0)
(0.000824718 -4.22766e-05 0)
(0.000910193 -1.87907e-06 0)
(0.000908618 -5.64471e-06 0)
(0.000905492 -9.52121e-06 0)
(0.000900899 -1.35123e-05 0)
(0.000894897 -1.77224e-05 0)
(0.000887655 -2.21249e-05 0)
(0.000879234 -2.68271e-05 0)
(0.000869893 -3.17628e-05 0)
(0.000859639 -3.7042e-05 0)
(0.000848857 -4.25628e-05 0)
(0.000928549 -1.8448e-06 0)
(0.000927111 -5.54806e-06 0)
(0.000924259 -9.3617e-06 0)
(0.000920069 -1.33025e-05 0)
(0.000914602 -1.74658e-05 0)
(0.000908007 -2.18392e-05 0)
(0.000900358 -2.65178e-05 0)
(0.000891879 -3.1449e-05 0)
(0.00088261 -3.67304e-05 0)
(0.000872874 -4.22689e-05 0)
(0.000947341 -1.74712e-06 0)
(0.000946032 -5.26222e-06 0)
(0.000943435 -8.89076e-06 0)
(0.000939621 -1.2665e-05 0)
(0.000934649 -1.66723e-05 0)
(0.000928657 -2.09187e-05 0)
(0.000921719 -2.54847e-05 0)
(0.000914043 -3.03395e-05 0)
(0.000905675 -3.55593e-05 0)
(0.000896915 -4.10732e-05 0)
(0.000966229 -1.58532e-06 0)
(0.000965044 -4.7833e-06 0)
(0.000962694 -8.10206e-06 0)
(0.000959244 -1.15873e-05 0)
(0.000954749 -1.53248e-05 0)
(0.000949334 -1.93354e-05 0)
(0.000943074 -2.36929e-05 0)
(0.000936156 -2.83827e-05 0)
(0.000928634 -3.3467e-05 0)
(0.000920779 -3.88941e-05 0)
(0.000985341 -1.31763e-06 0)
(0.000984276 -3.98691e-06 0)
(0.000982163 -6.78874e-06 0)
(0.000979063 -9.78311e-06 0)
(0.000975024 -1.3059e-05 0)
(0.000970164 -1.66543e-05 0)
(0.000964548 -2.06404e-05 0)
(0.000958353 -2.50259e-05 0)
(0.000951632 -2.98558e-05 0)
(0.000944629 -3.51161e-05 0)
(0.0010041 -9.61565e-07 0)
(0.00100316 -2.92432e-06 0)
(0.00100129 -5.03479e-06 0)
(0.000998553 -7.36499e-06 0)
(0.000994987 -1.0013e-05 0)
(0.000990698 -1.30312e-05 0)
(0.000985749 -1.64965e-05 0)
(0.000980295 -2.04365e-05 0)
(0.000974392 -2.48908e-05 0)
(0.000968252 -2.98732e-05 0)
(0.000442407 -0.000148227 0)
(0.000428495 -0.000155471 0)
(0.000415365 -0.000163008 0)
(0.000402729 -0.000170351 0)
(0.000390762 -0.000177733 0)
(0.000379249 -0.000185014 0)
(0.00036825 -0.000192218 0)
(0.000357654 -0.00019931 0)
(0.000347448 -0.000206276 0)
(0.000337514 -0.000213113 0)
(0.000327851 -0.000219803 0)
(0.000318352 -0.000226365 0)
(0.000308981 -0.000232779 0)
(0.000299658 -0.000239087 0)
(0.000290314 -0.000245267 0)
(0.000280894 -0.000251388 0)
(0.000271294 -0.000257418 0)
(0.000261497 -0.000263471 0)
(0.000251345 -0.000269484 0)
(0.000240883 -0.000275649 0)
(0.000480122 -0.000118562 0)
(0.000467439 -0.000125382 0)
(0.000455089 -0.000132477 0)
(0.000442971 -0.000139551 0)
(0.000431689 -0.000146437 0)
(0.000420523 -0.000153418 0)
(0.000409851 -0.000160228 0)
(0.000399433 -0.000167049 0)
(0.000389369 -0.000173723 0)
(0.000379545 -0.000180365 0)
(0.000369977 -0.000186852 0)
(0.000360589 -0.000193296 0)
(0.000351359 -0.000199604 0)
(0.000342229 -0.000205877 0)
(0.000333155 -0.000212044 0)
(0.000324096 -0.000218213 0)
(0.000314988 -0.000224313 0)
(0.000305812 -0.00023049 0)
(0.000296485 -0.000236639 0)
(0.000287022 -0.00024299 0)
(0.000515307 -9.65308e-05 0)
(0.000503359 -0.000102668 0)
(0.000491892 -0.000109151 0)
(0.000480706 -0.000115425 0)
(0.000469814 -0.00012193 0)
(0.000459313 -0.000128219 0)
(0.00044896 -0.000134686 0)
(0.000439141 -0.000140925 0)
(0.000429574 -0.000147184 0)
(0.00042004 -0.000153465 0)
(0.000410855 -0.000159639 0)
(0.000401813 -0.000165815 0)
(0.000392972 -0.000171903 0)
(0.000384272 -0.000178 0)
(0.000375693 -0.000184033 0)
(0.000367216 -0.000190113 0)
(0.000358805 -0.000196156 0)
(0.000350453 -0.00020232 0)
(0.000342127 -0.000208475 0)
(0.000333826 -0.000214867 0)
(0.000548076 -7.89892e-05 0)
(0.000537207 -8.44749e-05 0)
(0.000526703 -9.03243e-05 0)
(0.000516312 -9.60238e-05 0)
(0.000506234 -0.000101936 0)
(0.00049635 -0.000107748 0)
(0.000486725 -0.000113683 0)
(0.000477338 -0.000119548 0)
(0.000468176 -0.000125462 0)
(0.000459255 -0.000131323 0)
(0.000450539 -0.000137218 0)
(0.000442046 -0.000143077 0)
(0.000433743 -0.000148949 0)
(0.000425639 -0.000154824 0)
(0.00041771 -0.000160703 0)
(0.000409957 -0.00016664 0)
(0.000402372 -0.000172584 0)
(0.000394948 -0.000178661 0)
(0.000387698 -0.000184754 0)
(0.000380601 -0.000191089 0)
(0.000578979 -6.64738e-05 0)
(0.000569069 -7.13686e-05 0)
(0.000559446 -7.6599e-05 0)
(0.000549907 -8.1736e-05 0)
(0.000540586 -8.7084e-05 0)
(0.000531448 -9.23866e-05 0)
(0.000522508 -9.78175e-05 0)
(0.000513791 -0.000103233 0)
(0.00050529 -0.00010872 0)
(0.000496983 -0.000114215 0)
(0.000488911 -0.000119749 0)
(0.000481043 -0.000125311 0)
(0.000473408 -0.000130896 0)
(0.000465989 -0.000136535 0)
(0.000458805 -0.000142195 0)
(0.000451848 -0.000147947 0)
(0.000445144 -0.000153721 0)
(0.000438678 -0.000159648 0)
(0.000432505 -0.000165598 0)
(0.000426582 -0.000171789 0)
(0.000608176 -5.73349e-05 0)
(0.000599261 -6.17283e-05 0)
(0.000590532 -6.64354e-05 0)
(0.000581855 -7.10927e-05 0)
(0.000573355 -7.59599e-05 0)
(0.000564981 -8.08236e-05 0)
(0.000556791 -8.58233e-05 0)
(0.000548775 -9.08477e-05 0)
(0.000540958 -9.59586e-05 0)
(0.000533344 -0.00010111 0)
(0.000525948 -0.000106325 0)
(0.000518779 -0.000111593 0)
(0.00051185 -0.000116912 0)
(0.000505168 -0.000122303 0)
(0.000498755 -0.00012774 0)
(0.000492612 -0.000133281 0)
(0.000486779 -0.000138863 0)
(0.000481241 -0.000144596 0)
(0.000476077 -0.000150364 0)
(0.000471231 -0.000156354 0)
(0.000636205 -5.13006e-05 0)
(0.000628194 -5.52898e-05 0)
(0.000620294 -5.95515e-05 0)
(0.000612443 -6.3808e-05 0)
(0.000604727 -6.82591e-05 0)
(0.000597121 -7.27398e-05 0)
(0.000589674 -7.73606e-05 0)
(0.000582384 -8.20308e-05 0)
(0.000575283 -8.68052e-05 0)
(0.000568375 -9.16408e-05 0)
(0.000561686 -9.65588e-05 0)
(0.000555225 -0.000101548 0)
(0.000549015 -0.000106607 0)
(0.000543071 -0.000111752 0)
(0.000537416 -0.000116958 0)
(0.000532066 -0.000122272 0)
(0.000527056 -0.000127639 0)
(0.000522389 -0.000133151 0)
(0.000518146 -0.000138701 0)
(0.000514261 -0.00014445 0)
(0.000663234 -4.74585e-05 0)
(0.000656073 -5.11357e-05 0)
(0.000648961 -5.5046e-05 0)
(0.0006419 -5.89873e-05 0)
(0.00063494 -6.31053e-05 0)
(0.000628077 -6.72794e-05 0)
(0.000621355 -7.1589e-05 0)
(0.000614776 -7.59692e-05 0)
(0.000608374 -8.04566e-05 0)
(0.000602158 -8.50233e-05 0)
(0.000596158 -8.96779e-05 0)
(0.000590385 -9.44203e-05 0)
(0.000584871 -9.92358e-05 0)
(0.000579623 -0.000104152 0)
(0.000574687 -0.000109127 0)
(0.000570055 -0.000114221 0)
(0.0005658 -0.00011936 0)
(0.000561884 -0.000124641 0)
(0.000558436 -0.000129957 0)
(0.00055536 -0.000135449 0)
(0.000689625 -4.54187e-05 0)
(0.000683222 -4.88582e-05 0)
(0.000676829 -5.24945e-05 0)
(0.00067049 -5.61867e-05 0)
(0.000664229 -6.00377e-05 0)
(0.00065806 -6.39607e-05 0)
(0.000652015 -6.80143e-05 0)
(0.000646105 -7.21477e-05 0)
(0.000640362 -7.63926e-05 0)
(0.000634799 -8.07199e-05 0)
(0.000629445 -8.51463e-05 0)
(0.000624316 -8.96549e-05 0)
(0.000619441 -9.42561e-05 0)
(0.000614841 -9.89371e-05 0)
(0.000610535 -0.00010371 0)
(0.000606571 -0.000108557 0)
(0.000602926 -0.000113502 0)
(0.000599732 -0.000118511 0)
(0.000596984 -0.000123573 0)
(0.000594561 -0.0001288 0)
(0.000715492 -4.46112e-05 0)
(0.000709774 -4.7875e-05 0)
(0.00070403 -5.13044e-05 0)
(0.00069835 -5.48076e-05 0)
(0.000692726 -5.84506e-05 0)
(0.000687192 -6.21773e-05 0)
(0.000681767 -6.60242e-05 0)
(0.000676472 -6.99589e-05 0)
(0.000671332 -7.39993e-05 0)
(0.000666367 -7.81277e-05 0)
(0.000661601 -8.23511e-05 0)
(0.000657056 -8.66608e-05 0)
(0.000652756 -9.10571e-05 0)
(0.000648726 -9.55372e-05 0)
(0.000644992 -0.000100096 0)
(0.000641579 -0.000104739 0)
(0.000638519 -0.000109448 0)
(0.000635831 -0.00011425 0)
(0.000633572 -0.00011909 0)
(0.000631712 -0.000124037 0)
(0.000741046 -4.46786e-05 0)
(0.000735918 -4.78159e-05 0)
(0.000730756 -5.10928e-05 0)
(0.000725654 -5.44481e-05 0)
(0.000720601 -5.79318e-05 0)
(0.00071563 -6.1499e-05 0)
(0.00071076 -6.51809e-05 0)
(0.000706012 -6.89491e-05 0)
(0.000701409 -7.28197e-05 0)
(0.000696972 -7.67767e-05 0)
(0.000692724 -8.08252e-05 0)
(0.000688686 -8.49581e-05 0)
(0.000684884 -8.91721e-05 0)
(0.000681339 -9.34677e-05 0)
(0.000678079 -9.78328e-05 0)
(0.000675126 -0.000102277 0)
(0.000672516 -0.000106776 0)
(0.000670255 -0.000111354 0)
(0.000668421 -0.000115965 0)
(0.00066695 -0.00012066 0)
(0.000766339 -4.52404e-05 0)
(0.000761766 -4.82779e-05 0)
(0.000757074 -5.14338e-05 0)
(0.000752491 -5.46784e-05 0)
(0.000747925 -5.8031e-05 0)
(0.000743451 -6.14741e-05 0)
(0.000739064 -6.50174e-05 0)
(0.000734794 -6.86495e-05 0)
(0.000730659 -7.23741e-05 0)
(0.00072668 -7.61841e-05 0)
(0.000722877 -8.00784e-05 0)
(0.000719273 -8.40534e-05 0)
(0.00071589 -8.81032e-05 0)
(0.000712747 -9.22281e-05 0)
(0.000709875 -9.64158e-05 0)
(0.000707285 -0.000100673 0)
(0.000705021 -0.000104977 0)
(0.000703078 -0.000109346 0)
(0.000701532 -0.000113741 0)
(0.000700331 -0.000118194 0)
(0.000791477 -4.5965e-05 0)
(0.000787312 -4.89376e-05 0)
(0.000783096 -5.20136e-05 0)
(0.000778933 -5.51518e-05 0)
(0.000774806 -5.8405e-05 0)
(0.000770753 -6.17357e-05 0)
(0.000766784 -6.51658e-05 0)
(0.000762921 -6.86763e-05 0)
(0.000759182 -7.22764e-05 0)
(0.000755586 -7.59546e-05 0)
(0.000752156 -7.97133e-05 0)
(0.000748906 -8.35452e-05 0)
(0.000745863 -8.74474e-05 0)
(0.000743039 -9.1416e-05 0)
(0.000740467 -9.54422e-05 0)
(0.000738151 -9.95265e-05 0)
(0.00073614 -0.000103652 0)
(0.000734418 -0.000107826 0)
(0.000733062 -0.000112022 0)
(0.000732019 -0.000116253 0)
(0.000816465 -4.66214e-05 0)
(0.00081262 -4.95122e-05 0)
(0.000808806 -5.25009e-05 0)
(0.000805003 -5.55687e-05 0)
(0.000801251 -5.87289e-05 0)
(0.000797554 -6.19694e-05 0)
(0.00079394 -6.52969e-05 0)
(0.000790419 -6.87029e-05 0)
(0.000787014 -7.21903e-05 0)
(0.000783738 -7.5751e-05 0)
(0.000780613 -7.93861e-05 0)
(0.000777651 -8.30885e-05 0)
(0.000774878 -8.68563e-05 0)
(0.000772301 -9.06819e-05 0)
(0.000769951 -9.45616e-05 0)
(0.00076783 -9.84871e-05 0)
(0.000765977 -0.00010245 0)
(0.000764389 -0.000106448 0)
(0.000763122 -0.000110465 0)
(0.000762137 -0.000114497 0)
(0.000841381 -4.68795e-05 0)
(0.000837877 -4.97105e-05 0)
(0.000834333 -5.2629e-05 0)
(0.000830842 -5.56189e-05 0)
(0.000827376 -5.86975e-05 0)
(0.000823978 -6.18477e-05 0)
(0.000820643 -6.50822e-05 0)
(0.000817403 -6.83877e-05 0)
(0.00081426 -7.17713e-05 0)
(0.000811236 -7.52219e-05 0)
(0.000808351 -7.87447e-05 0)
(0.00080561 -8.2327e-05 0)
(0.000803039 -8.59736e-05 0)
(0.000800638 -8.96687e-05 0)
(0.000798445 -9.34182e-05 0)
(0.000796433 -9.72031e-05 0)
(0.000794691 -0.000101025 0)
(0.000793155 -0.000104865 0)
(0.000791906 -0.000108727 0)
(0.000790893 -0.000112583 0)
(0.000866109 -4.6563e-05 0)
(0.000862848 -4.93242e-05 0)
(0.000859559 -5.21651e-05 0)
(0.000856313 -5.50823e-05 0)
(0.000853097 -5.80735e-05 0)
(0.000849936 -6.11443e-05 0)
(0.000846843 -6.4283e-05 0)
(0.000843827 -6.75025e-05 0)
(0.000840904 -7.07846e-05 0)
(0.000838092 -7.41405e-05 0)
(0.000835401 -7.75513e-05 0)
(0.000832837 -8.10349e-05 0)
(0.000830426 -8.45627e-05 0)
(0.000828155 -8.81535e-05 0)
(0.00082608 -9.17777e-05 0)
(0.000824135 -9.545e-05 0)
(0.000822388 -9.91519e-05 0)
(0.000820869 -0.00010286 0)
(0.000819556 -0.000106591 0)
(0.000818447 -0.000110301 0)
(0.000890778 -4.53263e-05 0)
(0.000887717 -4.8016e-05 0)
(0.000884626 -5.07887e-05 0)
(0.000881583 -5.36267e-05 0)
(0.000878559 -5.65488e-05 0)
(0.000875601 -5.953e-05 0)
(0.000872684 -6.2601e-05 0)
(0.000869877 -6.57218e-05 0)
(0.000867097 -6.89342e-05 0)
(0.000864413 -7.22132e-05 0)
(0.000861892 -7.55268e-05 0)
(0.000859454 -7.89205e-05 0)
(0.000857156 -8.23496e-05 0)
(0.000854985 -8.58417e-05 0)
(0.000852951 -8.93646e-05 0)
(0.000851079 -9.293e-05 0)
(0.000849328 -9.65209e-05 0)
(0.000847747 -0.000100129 0)
(0.000846332 -0.000103747 0)
(0.000845069 -0.000107348 0)
(0.000915211 -4.30729e-05 0)
(0.000912309 -4.56902e-05 0)
(0.000909377 -4.83879e-05 0)
(0.000906495 -5.11562e-05 0)
(0.000903627 -5.40043e-05 0)
(0.000900824 -5.69171e-05 0)
(0.00089808 -5.99138e-05 0)
(0.000895387 -6.29666e-05 0)
(0.000892786 -6.60972e-05 0)
(0.000890254 -6.92831e-05 0)
(0.000887828 -7.25404e-05 0)
(0.000885499 -7.58417e-05 0)
(0.000883282 -7.92074e-05 0)
(0.000881176 -8.26092e-05 0)
(0.000879189 -8.60633e-05 0)
(0.000877317 -8.95422e-05 0)
(0.000875562 -9.30567e-05 0)
(0.000873925 -9.65823e-05 0)
(0.000872399 -0.000100125 0)
(0.000870974 -0.000103647 0)
(0.000939585 -3.91912e-05 0)
(0.000936813 -4.17548e-05 0)
(0.000934014 -4.43906e-05 0)
(0.000931264 -4.7124e-05 0)
(0.00092852 -4.99186e-05 0)
(0.000925851 -5.28045e-05 0)
(0.000923218 -5.57589e-05 0)
(0.00092065 -5.88031e-05 0)
(0.000918147 -6.18944e-05 0)
(0.000915726 -6.50673e-05 0)
(0.000913393 -6.82883e-05 0)
(0.000911153 -7.15736e-05 0)
(0.000909008 -7.4904e-05 0)
(0.000906961 -7.82823e-05 0)
(0.000905008 -8.16986e-05 0)
(0.000903152 -8.51459e-05 0)
(0.000901377 -8.86214e-05 0)
(0.000899684 -9.21091e-05 0)
(0.00089805 -9.56117e-05 0)
(0.000896466 -9.91023e-05 0)
(0.000963729 -3.38064e-05 0)
(0.000961077 -3.63174e-05 0)
(0.000958397 -3.89073e-05 0)
(0.00095577 -4.16173e-05 0)
(0.000953077 -4.43891e-05 0)
(0.00095058 -4.72827e-05 0)
(0.000948183 -5.03056e-05 0)
(0.000945635 -5.3321e-05 0)
(0.000943249 -5.64721e-05 0)
(0.000940905 -5.96493e-05 0)
(0.000938653 -6.2921e-05 0)
(0.000936483 -6.62252e-05 0)
(0.000934399 -6.95956e-05 0)
(0.000932404 -7.29938e-05 0)
(0.000930493 -7.64356e-05 0)
(0.000928665 -7.98949e-05 0)
(0.000926908 -8.3379e-05 0)
(0.000925215 -8.68685e-05 0)
(0.000923562 -9.03677e-05 0)
(0.000921926 -9.38603e-05 0)
(1.70644e-05 -0.000463503 0)
(1.65039e-05 -0.000465759 0)
(1.59793e-05 -0.00046797 0)
(1.54626e-05 -0.000470181 0)
(1.49621e-05 -0.000472362 0)
(1.44683e-05 -0.000474536 0)
(1.39798e-05 -0.000476688 0)
(1.34931e-05 -0.000478825 0)
(1.30041e-05 -0.000480942 0)
(1.25108e-05 -0.000483033 0)
(1.20089e-05 -0.000485101 0)
(1.14964e-05 -0.000487128 0)
(1.09692e-05 -0.000489128 0)
(1.04252e-05 -0.000491064 0)
(9.85962e-06 -0.000492967 0)
(9.27121e-06 -0.000494774 0)
(8.65309e-06 -0.000496546 0)
(8.00707e-06 -0.000498174 0)
(7.31981e-06 -0.000499771 0)
(6.60264e-06 -0.000501155 0)
(5.17205e-05 -0.000453466 0)
(5.00299e-05 -0.000455967 0)
(4.84418e-05 -0.000458427 0)
(4.68855e-05 -0.00046087 0)
(4.53767e-05 -0.000463282 0)
(4.38931e-05 -0.000465674 0)
(4.24255e-05 -0.000468042 0)
(4.09663e-05 -0.000470384 0)
(3.95013e-05 -0.000472703 0)
(3.80252e-05 -0.000474988 0)
(3.65242e-05 -0.000477247 0)
(3.49926e-05 -0.000479458 0)
(3.34172e-05 -0.000481639 0)
(3.17921e-05 -0.000483752 0)
(3.01025e-05 -0.00048583 0)
(2.83445e-05 -0.000487808 0)
(2.6497e-05 -0.000489752 0)
(2.45655e-05 -0.000491548 0)
(2.25093e-05 -0.000493315 0)
(2.03622e-05 -0.000494867 0)
(8.77017e-05 -0.00043413 0)
(8.48365e-05 -0.000437095 0)
(8.21242e-05 -0.000440027 0)
(7.94907e-05 -0.000442908 0)
(7.69305e-05 -0.000445761 0)
(7.44282e-05 -0.000448567 0)
(7.19525e-05 -0.000451345 0)
(6.95011e-05 -0.000454078 0)
(6.70421e-05 -0.000456782 0)
(6.45719e-05 -0.000459437 0)
(6.20629e-05 -0.00046206 0)
(5.95079e-05 -0.000464624 0)
(5.68821e-05 -0.000467152 0)
(5.41762e-05 -0.000469604 0)
(5.1364e-05 -0.000472017 0)
(4.84388e-05 -0.000474325 0)
(4.53638e-05 -0.000476596 0)
(4.21475e-05 -0.000478717 0)
(3.87212e-05 -0.000480809 0)
(3.51388e-05 -0.000482688 0)
(0.000125782 -0.000406914 0)
(0.000121689 -0.000410509 0)
(0.000117773 -0.000414091 0)
(0.000114022 -0.000417572 0)
(0.000110362 -0.00042103 0)
(0.000106818 -0.0004244 0)
(0.00010331 -0.000427743 0)
(9.98585e-05 -0.000431007 0)
(9.64008e-05 -0.000434237 0)
(9.29417e-05 -0.000437393 0)
(8.94338e-05 -0.00044051 0)
(8.58707e-05 -0.00044355 0)
(8.22132e-05 -0.000446547 0)
(7.84495e-05 -0.000449456 0)
(7.454e-05 -0.00045232 0)
(7.04753e-05 -0.000455074 0)
(6.6202e-05 -0.000457786 0)
(6.17308e-05 -0.000460349 0)
(5.69649e-05 -0.000462882 0)
(5.19759e-05 -0.000465208 0)
(0.000166205 -0.000373585 0)
(0.0001608 -0.000377915 0)
(0.000155553 -0.000382267 0)
(0.00015061 -0.000386449 0)
(0.000145759 -0.000390631 0)
(0.000141111 -0.000394671 0)
(0.000136512 -0.000398691 0)
(0.00013202 -0.000402589 0)
(0.000127532 -0.000406454 0)
(0.000123068 -0.000410213 0)
(0.000118555 -0.000413927 0)
(0.00011399 -0.00041754 0)
(0.000109317 -0.000421103 0)
(0.00010452 -0.000424563 0)
(9.95449e-05 -0.00042797 0)
(9.43775e-05 -0.000431259 0)
(8.89452e-05 -0.000434503 0)
(8.32583e-05 -0.000437598 0)
(7.71904e-05 -0.000440663 0)
(7.08248e-05 -0.000443534 0)
(0.000209203 -0.000336184 0)
(0.000202424 -0.000341284 0)
(0.000195742 -0.000346456 0)
(0.000189562 -0.00035138 0)
(0.000183464 -0.000356336 0)
(0.000177694 -0.000361079 0)
(0.000171985 -0.000365817 0)
(0.000166457 -0.000370379 0)
(0.000160947 -0.000374908 0)
(0.000155496 -0.000379292 0)
(0.000150005 -0.000383624 0)
(0.000144471 -0.00038783 0)
(0.000138822 -0.000391978 0)
(0.000133039 -0.000396007 0)
(0.000127054 -0.000399978 0)
(0.000120847 -0.000403827 0)
(0.00011433 -0.000407626 0)
(0.000107513 -0.000411287 0)
(0.000100244 -0.000414916 0)
(9.2615e-05 -0.000418376 0)
(0.000254313 -0.000296665 0)
(0.000246048 -0.000302502 0)
(0.000237769 -0.000308488 0)
(0.000230225 -0.000314145 0)
(0.000222748 -0.00031989 0)
(0.000215741 -0.000325355 0)
(0.000208832 -0.000330844 0)
(0.000202192 -0.000336106 0)
(0.000195622 -0.000341338 0)
(0.000189168 -0.000346387 0)
(0.000182714 -0.000351373 0)
(0.00017625 -0.000356207 0)
(0.000169691 -0.000360965 0)
(0.000163005 -0.000365589 0)
(0.000156111 -0.000370139 0)
(0.00014898 -0.000374562 0)
(0.000141503 -0.000378926 0)
(0.000133685 -0.000383163 0)
(0.000125346 -0.000387366 0)
(0.000116578 -0.000391436 0)
(0.000301464 -0.000256747 0)
(0.000291712 -0.000263217 0)
(0.000281837 -0.000269923 0)
(0.000272934 -0.000276216 0)
(0.000264125 -0.000282651 0)
(0.000255896 -0.000288743 0)
(0.00024783 -0.000294875 0)
(0.000240088 -0.000300747 0)
(0.000232478 -0.000306586 0)
(0.000225021 -0.000312226 0)
(0.000217613 -0.000317791 0)
(0.000210222 -0.000323196 0)
(0.000202768 -0.00032851 0)
(0.000195205 -0.000333688 0)
(0.000187447 -0.000338777 0)
(0.000179456 -0.000343748 0)
(0.000171113 -0.000348646 0)
(0.000162415 -0.000353444 0)
(0.000153171 -0.0003582 0)
(0.000143467 -0.000362877 0)
(0.000349441 -0.000218244 0)
(0.000337931 -0.000225248 0)
(0.000326307 -0.000232611 0)
(0.000315746 -0.000239534 0)
(0.000305459 -0.000246637 0)
(0.000295821 -0.000253392 0)
(0.000286537 -0.000260159 0)
(0.00027765 -0.000266662 0)
(0.000269042 -0.00027308 0)
(0.000260654 -0.000279288 0)
(0.000252412 -0.000285374 0)
(0.000244238 -0.00029129 0)
(0.000236061 -0.000297079 0)
(0.000227808 -0.000302731 0)
(0.000219392 -0.000308272 0)
(0.000210759 -0.000313708 0)
(0.000201783 -0.000319062 0)
(0.000192452 -0.00032435 0)
(0.000182562 -0.000329595 0)
(0.000172192 -0.000334825 0)
(0.000398773 -0.00018152 0)
(0.000385822 -0.000188654 0)
(0.000372915 -0.000196164 0)
(0.000360796 -0.000203397 0)
(0.000349187 -0.000210792 0)
(0.000338086 -0.00021801 0)
(0.000327502 -0.000225217 0)
(0.000317325 -0.000232275 0)
(0.000307546 -0.000239231 0)
(0.000298063 -0.000246032 0)
(0.000288835 -0.000252685 0)
(0.000279765 -0.000259181 0)
(0.000270784 -0.000265517 0)
(0.000261808 -0.00027171 0)
(0.000252738 -0.000277755 0)
(0.00024351 -0.000283692 0)
(0.000233988 -0.000289517 0)
(0.000224149 -0.000295296 0)
(0.000213785 -0.000301015 0)
(0.00020296 -0.000306792 0)
)
;

boundaryField
{
    back
    {
        type            empty;
    }
    left
    {
        type            symmetry;
    }
    hole
    {
        type            calculated;
        value           nonuniform List<vector> 
20
(
(2.99513e-05 -0.0003889 -1.96808e-21)
(8.95584e-05 -0.000384735 0)
(0.00014832 -0.000376591 -2.42256e-21)