/*--------------------------------*- C++ -*----------------------------------*\
| =========                 |                                                 |
| \\      /  F ield         | OpenFOAM: The Open Source CFD Toolbox           |
|  \\    /   O peration     | Version:  v2012                                 |
|   \\  /    A nd           | Website:  www.openfoam.com                      |
|    \\/     M anipulation  |                                                 |
\*---------------------------------------------------------------------------*/
FoamFile
{
    version     2.0;
    format      ascii;
    class       pointVectorField;
    location    "2";
    object      pointD;
}
// * * * * * * * * * * * * * * * * * * * * * * * * * * * * * * * * * * * * * //

dimensions      [0 1 0 0 0 0 0];


internalField   nonuniform List<vector> 
2142
(
(0.000712353 0 -7.16822e-22)
(0.00100888 0 1.11909e-21)
(0.000928533 -9.32396e-05 7.37502e-22)
(0 -0.000501476 -1.79426e-22)
(0 -0.000392718 -9.63693e-22)
(0.000734648 0 0)
(0 -0.000461871 0)
(0.000433473 -0.000158163 0)
(0.000215425 -0.000294888 1.11873e-21)
(0.000977809 -2.78135e-05 -1.32088e-21)
(0.000517298 -0.000234456 1.19659e-21)
(0.000517298 -0.000234456 1.19659e-21)
(0.000433473 -0.000158163 0)
(0 -0.000461871 0)
(0 -0.000392718 -9.63693e-22)
(0.000712353 0 -7.16822e-22)
(0.000734648 0 0)
(0.00100888 0 1.11909e-21)
(0.000977809 -2.78135e-05 -1.32088e-21)
(0.000928533 -9.32396e-05 7.37502e-22)
(0.000215425 -0.000294888 1.11873e-21)
(0 -0.000501476 -1.79426e-22)
(3.48692e-05 -0.000456855 0)
(7.06642e-05 -0.000442181 0)
(0.000108172 -0.000418917 0)
(0.000147907 -0.00038865 0)
(0.000190111 -0.000353278 0)
(0.000234671 -0.000314797 0)
(0.000281317 -0.000275044 0)
(0.00032939 -0.000235797 0)
(0.000378495 -0.000198183 0)
(0.000485614 -0.000124427 0)
(0.000531687 -9.70655e-05 0)
(0.000574782 -7.39413e-05 0)
(0.000614235 -5.48336e-05 0)
(0.000649203 -3.94597e-05 0)
(0.000678994 -2.73529e-05 0)
(0.000702909 -1.79944e-05 0)
(0.000720416 -1.07723e-05 0)
(0.000731087 -5.01411e-06 0)
(0.000716084 0 0)
(0.000719923 0 0)
(0.000722716 0 0)
(0.000724936 0 0)
(0.000726693 0 0)
(0.000728255 0 0)
(0.000729673 0 0)
(0.000731095 0 0)
(0.000732555 0 0)
(0.000738855 0 0)
(0.000744787 0 0)
(0.00075192 0 0)
(0.000760364 0 0)
(0.000769994 0 0)
(0.000780805 0 0)
(0.000792722 0 0)
(0.000805664 0 0)
(0.000819591 0 0)
(0.000834402 0 0)
(0.000850055 0 0)
(0.000866452 0 0)
(0.000883531 0 0)
(0.000901202 0 0)
(0.000919371 0 0)
(0.000937945 0 0)
(0.000956785 0 0)
(0.000975785 0 0)
(0.000994721 0 0)
(0.00101303 -1.40966e-06 6.25771e-22)
(0.00101171 -2.91968e-06 -5.58317e-22)
(0.00100955 -4.62671e-06 -8.66622e-22)
(0.00100659 -6.62331e-06 2.92435e-22)
(0.00100291 -8.99165e-06 5.27731e-22)
(0.000998595 -1.18053e-05 -2.10416e-22)
(0.000993742 -1.51236e-05 1.36754e-21)
(0.000988458 -1.899e-05 1.03408e-21)
(0.000982871 -2.34377e-05 -9.50964e-22)
(0.000974503 -3.08902e-05 -1.01298e-21)
(0.000971903 -3.34514e-05 -7.78979e-23)
(0.000969313 -3.61059e-05 2.34664e-21)
(0.000966715 -3.88925e-05 1.82741e-21)
(0.000964182 -4.18874e-05 -1.11475e-21)
(0.000961797 -4.49411e-05 2.62998e-23)
(0.000959377 -4.79492e-05 1.14051e-21)
(0.000956959 -5.11169e-05 -1.11288e-21)
(0.000954641 -5.44128e-05 -1.03025e-21)
(0.000952385 -5.77575e-05 2.87396e-21)
(0.000950211 -6.11794e-05 2.70475e-21)
(0.000948117 -6.4651e-05 -5.77606e-22)
(0.000946105 -6.81714e-05 -4.71423e-22)
(0.000944174 -7.17245e-05 -4.32094e-22)
(0.000942322 -7.53009e-05 1.70043e-22)
(0.000940542 -7.88856e-05 1.20472e-21)
(0.000938825 -8.24654e-05 1.2053e-21)
(0.000937155 -8.60226e-05 6.02712e-22)
(0.000935509 -8.95377e-05 8.22559e-22)
(0.00090839 -9.82265e-05 7.83083e-23)
(0.000883 -0.000103127 -2.93477e-22)
(0.000857426 -0.000107276 -2.35225e-22)
(0.000831283 -0.000110651 6.09873e-22)
(0.000804293 -0.000113333 2.9382e-22)
(0.000776201 -0.000115512 2.70137e-22)
(0.000746784 -0.000117441 2.56192e-22)
(0.000715852 -0.000119396 -1.39448e-23)
(0.000683231 -0.000121716 -3.24926e-22)
(0.000648772 -0.000124762 -2.63515e-22)
(0.000612355 -0.000128965 7.90741e-22)
(0.000573879 -0.000134806 7.88363e-22)
(0.00053335 -0.000142765 5.90335e-23)
(0.000490819 -0.000153343 -2.0625e-22)
(0.000446427 -0.000167124 -2.0625e-22)
(0.000400483 -0.000184578 1.62496e-22)
(0.000353419 -0.000206168 1.62496e-22)
(0.000305923 -0.000232122 -4.69647e-22)
(0.000258769 -0.000262456 7.02967e-22)
(0.000182005 -0.000323441 -2.74962e-22)
(0.000152622 -0.000351114 -2.76326e-22)
(0.000125268 -0.000379075 -2.14231e-25)
(0.000100392 -0.000406509 -7.46243e-22)
(7.81372e-05 -0.000432283 -7.72449e-22)
(5.84896e-05 -0.000455469 1.42554e-22)
(4.13559e-05 -0.000474864 -7.31146e-23)
(2.62751e-05 -0.000489563 -5.9519e-22)
(1.27435e-05 -0.000498718 -5.44942e-22)
(0 -0.000500463 0)
(0 -0.000498972 0)
(0 -0.00049736 0)
(0 -0.00049566 0)
(0 -0.000493871 0)
(0 -0.000492016 0)
(0 -0.000490096 0)
(0 -0.000488128 0)
(0 -0.000486115 0)
(0 -0.000484067 0)
(0 -0.000481987 0)
(0 -0.000479884 0)
(0 -0.000477757 0)
(0 -0.000475612 0)
(0 -0.000473449 0)
(0 -0.000471272 0)
(0 -0.000469076 0)
(0 -0.000466864 0)
(0 -0.000464631 0)
(0 -0.000457914 0)
(0 -0.000453293 0)
(0 -0.000448389 0)
(0 -0.000443164 0)
(0 -0.000437353 0)
(0 -0.000430861 0)
(0 -0.000423213 0)
(0 -0.000414194 0)
(0 -0.000402935 0)
(0.000474437 -0.000125524 0)
(0.000509475 -0.000100747 0)
(0.000542454 -8.19604e-05 0)
(0.00057326 -6.78112e-05 0)
(0.000602399 -5.77536e-05 0)
(0.000630164 -5.07651e-05 0)
(0.000656926 -4.62966e-05 0)
(0.000682931 -4.36976e-05 0)
(0.000708425 -4.2518e-05 0)
(0.00073356 -4.23118e-05 0)
(0.00075847 -4.27304e-05 0)
(0.000783227 -4.34386e-05 0)
(0.000807873 -4.41641e-05 0)
(0.000832458 -4.46395e-05 0)
(0.000856965 -4.46305e-05 0)
(0.000881383 -4.38775e-05 0)
(0.00090569 -4.21655e-05 0)
(0.000929873 -3.9145e-05 0)
(0.000953924 -3.45686e-05 0)
(0.000413218 -0.000169019 0)
(0.000399962 -0.000176399 0)
(0.00038722 -0.000183837 0)
(0.000375104 -0.000191199 0)
(0.000363525 -0.000198545 0)
(0.000352449 -0.000205795 0)
(0.000341838 -0.000212957 0)
(0.00033163 -0.000219993 0)
(0.000321767 -0.000226901 0)
(0.00031218 -0.00023366 0)
(0.00030281 -0.000240272 0)
(0.000293578 -0.000246733 0)
(0.000284415 -0.000253051 0)
(0.000275238 -0.000259234 0)
(0.000265975 -0.000265303 0)
(0.000256536 -0.000271277 0)
(0.000246848 -0.00027719 0)
(0.000236811 -0.00028307 0)
(0.000226359 -0.000288973 0)
(5.97548e-05 -0.000386818 -9.84041e-22)
(0.000118939 -0.000380663 -1.21128e-21)
(0.000176997 -0.000370699 -1.25253e-21)
(0.00023343 -0.000357343 1.5845e-22)
(0.000287778 -0.000341073 7.98128e-22)
(0.000339666 -0.000322476 -2.3363e-21)
(0.000388788 -0.000302028 -3.38483e-21)
(0.000434862 -0.000280307 1.72435e-21)
(0.000477782 -0.000257655 3.3748e-21)
(0.000553441 -0.000210992 8.16815e-23)
(0.000586077 -0.000187283 -9.64221e-22)
(0.000615035 -0.000163572 -1.06278e-22)
(0.000640311 -0.000139889 -2.46985e-22)
(0.000661772 -0.000116315 -9.48444e-22)
(0.000679419 -9.28643e-05 -2.38968e-23)
(0.000693178 -6.95298e-05 -1.01994e-21)
(0.000703037 -4.62963e-05 -1.48783e-22)
(0.000708959 -2.31299e-05 -1.26611e-22)
(0.000497842 -0.000218875 0)
(0.00048217 -0.000206555 0)
(0.000469331 -0.000196509 0)
(0.000458995 -0.000188389 0)
(0.000450637 -0.000181683 0)
(0.000444007 -0.00017616 0)
(0.000438771 -0.000171544 0)
(0.000434783 -0.000167674 0)
(0.000431757 -0.000164406 0)
(0.000497842 -0.000218875 0)
(0.00048217 -0.000206555 0)
(0.000469331 -0.000196509 0)
(0.000458995 -0.000188389 0)
(0.000450637 -0.000181683 0)
(0.000444007 -0.00017616 0)
(0.000438771 -0.000171544 0)
(0.000434783 -0.000167674 0)
(0.000431757 -0.000164406 0)
(0.000378495 -0.000198183 0)
(0.00032939 -0.000235797 0)
(0.000281317 -0.000275044 0)
(0.000234671 -0.000314797 0)
(0.000190111 -0.000353278 0)
(0.000147907 -0.00038865 0)
(0.000108172 -0.000418917 0)
(7.06642e-05 -0.000442181 0)
(3.48692e-05 -0.000456855 0)
(0 -0.000457914 0)
(0 -0.000453293 0)
(0 -0.000448389 0)
(0 -0.000443164 0)
(0 -0.000437353 0)
(0 -0.000430861 0)
(0 -0.000423213 0)
(0 -0.000414194 0)
(0 -0.000402935 0)
(5.97548e-05 -0.000386818 -9.84041e-22)
(0.000118939 -0.000380663 -1.21128e-21)
(0.000176997 -0.000370699 -1.25253e-21)
(0.00023343 -0.000357343 1.5845e-22)
(0.000287778 -0.000341073 7.98128e-22)
(0.000339666 -0.000322476 -2.3363e-21)
(0.000388788 -0.000302028 -3.38483e-21)
(0.000434862 -0.000280307 1.72435e-21)
(0.000477782 -0.000257655 3.3748e-21)
(0.000553441 -0.000210992 8.16815e-23)
(0.000586077 -0.000187283 -9.64221e-22)
(0.000615035 -0.000163572 -1.06278e-22)
(0.000640311 -0.000139889 -2.46985e-22)
(0.000661772 -0.000116315 -9.48444e-22)
(0.000679419 -9.28643e-05 -2.38968e-23)
(0.000693178 -6.95298e-05 -1.01994e-21)
(0.000703037 -4.62963e-05 -1.48783e-22)
(0.000708959 -2.31299e-05 -1.26611e-22)
(0.000716084 0 0)
(0.000719923 0 0)
(0.000722716 0 0)
(0.000724936 0 0)
(0.000726693 0 0)
(0.000728255 0 0)
(0.000729673 0 0)
(0.000731095 0 0)
(0.000732555 0 0)
(0.000731087 -5.01411e-06 0)
(0.000720416 -1.07723e-05 0)
(0.000702909 -1.79944e-05 0)
(0.000678994 -2.73529e-05 0)
(0.000649203 -3.94597e-05 0)
(0.000614235 -5.48336e-05 0)
(0.000574782 -7.39413e-05 0)
(0.000531687 -9.70655e-05 0)
(0.000485614 -0.000124427 0)
(0.000738855 0 0)
(0.000744787 0 0)
(0.00075192 0 0)
(0.000760364 0 0)
(0.000769994 0 0)
(0.000780805 0 0)
(0.000792722 0 0)
(0.000805664 0 0)
(0.000819591 0 0)
(0.000834402 0 0)
(0.000850055 0 0)
(0.000866452 0 0)
(0.000883531 0 0)
(0.000901202 0 0)
(0.000919371 0 0)
(0.000937945 0 0)
(0.000956785 0 0)
(0.000975785 0 0)
(0.000994721 0 0)
(0.00101303 -1.40966e-06 6.25771e-22)
(0.00101171 -2.91968e-06 -5.58317e-22)
(0.00100955 -4.62671e-06 -8.66622e-22)
(0.00100659 -6.62331e-06 2.92435e-22)
(0.00100291 -8.99165e-06 5.27731e-22)
(0.000998595 -1.18053e-05 -2.10416e-22)
(0.000993742 -1.51236e-05 1.36754e-21)
(0.000988458 -1.899e-05 1.03408e-21)
(0.000982871 -2.34377e-05 -9.50964e-22)
(0.000953924 -3.45686e-05 0)
(0.000929873 -3.9145e-05 0)
(0.00090569 -4.21655e-05 0)
(0.000881383 -4.38775e-05 0)
(0.000856965 -4.46305e-05 0)
(0.000832458 -4.46395e-05 0)
(0.000807873 -4.41641e-05 0)
(0.000783227 -4.34386e-05 0)
(0.00075847 -4.27304e-05 0)
(0.00073356 -4.23118e-05 0)
(0.000708425 -4.2518e-05 0)
(0.000682931 -4.36976e-05 0)
(0.000656926 -4.62966e-05 0)
(0.000630164 -5.07651e-05 0)
(0.000602399 -5.77536e-05 0)
(0.00057326 -6.78112e-05 0)
(0.000542454 -8.19604e-05 0)
(0.000509475 -0.000100747 0)
(0.000474437 -0.000125524 0)
(0.000974503 -3.08902e-05 -1.01298e-21)
(0.000971903 -3.34514e-05 -7.78979e-23)
(0.000969313 -3.61059e-05 2.34664e-21)
(0.000966715 -3.88925e-05 1.82741e-21)
(0.000964182 -4.18874e-05 -1.11475e-21)
(0.000961797 -4.49411e-05 2.62998e-23)
(0.000959377 -4.79492e-05 1.14051e-21)
(0.000956959 -5.11169e-05 -1.11288e-21)
(0.000954641 -5.44128e-05 -1.03025e-21)
(0.000952385 -5.77575e-05 2.87396e-21)
(0.000950211 -6.11794e-05 2.70475e-21)
(0.000948117 -6.4651e-05 -5.77606e-22)
(0.000946105 -6.81714e-05 -4.71423e-22)
(0.000944174 -7.17245e-05 -4.32094e-22)
(0.000942322 -7.53009e-05 1.70043e-22)
(0.000940542 -7.88856e-05 1.20472e-21)
(0.000938825 -8.24654e-05 1.2053e-21)
(0.000937155 -8.60226e-05 6.02712e-22)
(0.000935509 -8.95377e-05 8.22559e-22)
(0.00090839 -9.82265e-05 7.83083e-23)
(0.000883 -0.000103127 -2.93477e-22)
(0.000857426 -0.000107276 -2.35225e-22)
(0.000831283 -0.000110651 6.09873e-22)
(0.000804293 -0.000113333 2.9382e-22)
(0.000776201 -0.000115512 2.70137e-22)
(0.000746784 -0.000117441 2.56192e-22)
(0.000715852 -0.000119396 -1.39448e-23)
(0.000683231 -0.000121716 -3.24926e-22)
(0.000648772 -0.000124762 -2.63515e-22)
(0.000612355 -0.000128965 7.90741e-22)
(0.000573879 -0.000134806 7.88363e-22)
(0.00053335 -0.000142765 5.90335e-23)
(0.000490819 -0.000153343 -2.0625e-22)
(0.000446427 -0.000167124 -2.0625e-22)
(0.000400483 -0.000184578 1.62496e-22)
(0.000353419 -0.000206168 1.62496e-22)
(0.000305923 -0.000232122 -4.69647e-22)
(0.000258769 -0.000262456 7.02967e-22)
(0.000226359 -0.000288973 0)
(0.000236811 -0.00028307 0)
(0.000246848 -0.00027719 0)
(0.000256536 -0.000271277 0)
(0.000265975 -0.000265303 0)
(0.000275238 -0.000259234 0)
(0.000284415 -0.000253051 0)
(0.000293578 -0.000246733 0)
(0.00030281 -0.000240272 0)
(0.00031218 -0.00023366 0)
(0.000321767 -0.000226901 0)
(0.00033163 -0.000219993 0)
(0.000341838 -0.000212957 0)
(0.000352449 -0.000205795 0)
(0.000363525 -0.000198545 0)
(0.000375104 -0.000191199 0)
(0.00038722 -0.000183837 0)
(0.000399962 -0.000176399 0)
(0.000413218 -0.000169019 0)
(0.000182005 -0.000323441 -2.74962e-22)
(0.000152622 -0.000351114 -2.76326e-22)
(0.000125268 -0.000379075 -2.14231e-25)
(0.000100392 -0.000406509 -7.46243e-22)
(7.81372e-05 -0.000432283 -7.72449e-22)
(5.84896e-05 -0.000455469 1.42554e-22)
(4.13559e-05 -0.000474864 -7.31146e-23)
(2.62751e-05 -0.000489563 -5.9519e-22)
(1.27435e-05 -0.000498718 -5.44942e-22)
(0 -0.000500463 0)
(0 -0.000498972 0)
(0 -0.00049736 0)
(0 -0.00049566 0)
(0 -0.000493871 0)
(0 -0.000492016 0)
(0 -0.000490096 0)
(0 -0.000488128 0)
(0 -0.000486115 0)
(0 -0.000484067 0)
(0 -0.000481987 0)
(0 -0.000479884 0)
(0 -0.000477757 0)
(0 -0.000475612 0)
(0 -0.000473449 0)
(0 -0.000471272 0)
(0 -0.000469076 0)
(0 -0.000466864 0)
(0 -0.000464631 0)
(5.38011e-05 -0.000400248 0)
(4.92691e-05 -0.000411046 0)
(4.57263e-05 -0.000419697 0)
(4.29781e-05 -0.000427044 0)
(4.08115e-05 -0.00043328 0)
(3.9107e-05 -0.000438865 0)
(3.77411e-05 -0.000443884 0)
(3.6638e-05 -0.000448594 0)
(3.5709e-05 -0.000453026 0)
(0.000107423 -0.000392344 0)
(9.86362e-05 -0.000401795 0)
(9.17548e-05 -0.000409372 0)
(8.64088e-05 -0.000415838 0)
(8.21911e-05 -0.000421326 0)
(7.88728e-05 -0.000426254 0)
(7.62181e-05 -0.000430675 0)
(7.40807e-05 -0.000434825 0)
(7.22944e-05 -0.000438713 0)
(0.000160659 -0.000379646 0)
(0.000148144 -0.000386981 0)
(0.000138315 -0.000392869 0)
(0.00013066 -0.000397948 0)
(0.000124613 -0.000402261 0)
(0.000119855 -0.000406162 0)
(0.000116059 -0.000409652 0)
(0.000113016 -0.000412939 0)
(0.000110504 -0.000415995 0)
(0.000213273 -0.000362809 0)
(0.000197752 -0.000367434 0)
(0.000185514 -0.000371152 0)
(0.000175952 -0.000374447 0)
(0.000168386 -0.000377252 0)
(0.000162429 -0.000379842 0)
(0.00015769 -0.000382156 0)
(0.000153911 -0.000384362 0)
(0.000150837 -0.00038639 0)
(0.000264973 -0.000342606 0)
(0.000247301 -0.00034414 0)
(0.000233302 -0.000345374 0)
(0.000222318 -0.000346624 0)
(0.000213607 -0.000347706 0)
(0.000206743 -0.000348807 0)
(0.0002013 -0.000349802 0)
(0.000196983 -0.000350812 0)
(0.000193528 -0.000351723 0)
(0.000315431 -0.000319913 0)
(0.000296521 -0.000318202 0)
(0.000281458 -0.000316814 0)
(0.000269584 -0.000315902 0)
(0.000260143 -0.000315169 0)
(0.000252692 -0.000314713 0)
(0.000246799 -0.000314342 0)
(0.000242148 -0.000314133 0)
(0.000238485 -0.000313929 0)
(0.000364314 -0.000295497 0)
(0.00034507 -0.000290602 0)
(0.000329649 -0.00028663 0)
(0.00031743 -0.000283578 0)
(0.000307683 -0.000281056 0)
(0.000299978 -0.000279075 0)
(0.0002939 -0.000277387 0)
(0.000289127 -0.000276023 0)
(0.000285427 -0.00027479 0)
(0.000411217 -0.000270166 0)
(0.000392477 -0.000262346 0)
(0.000377361 -0.000255988 0)
(0.000365319 -0.000250958 0)
(0.000355678 -0.00024679 0)
(0.000348042 -0.000243416 0)
(0.000342029 -0.000240545 0)
(0.000337329 -0.000238162 0)
(0.000333736 -0.000236043 0)
(0.000455872 -0.00024445 0)
(0.000438368 -0.000234111 0)
(0.000424149 -0.000225689 0)
(0.000412762 -0.000218933 0)
(0.000403613 -0.000213337 0)
(0.000396353 -0.000208751 0)
(0.000390652 -0.000204875 0)
(0.000386224 -0.000201631 0)
(0.000382902 -0.000198819 0)
(0.000536939 -0.000193775 0)
(0.000523547 -0.000180084 0)
(0.000512473 -0.000168909 0)
(0.000503525 -0.000159841 0)
(0.000496232 -0.000152362 0)
(0.000490471 -0.00014619 0)
(0.000485871 -0.000141042 0)
(0.000482462 -0.000136733 0)
(0.000479783 -0.000133063 0)
(0.000572871 -0.000169248 0)
(0.000562061 -0.00015484 0)
(0.000553024 -0.000143056 0)
(0.000545703 -0.000133458 0)
(0.000539699 -0.000125525 0)
(0.000534992 -0.000118966 0)
(0.000531228 -0.000113468 0)
(0.000528521 -0.000108873 0)
(0.000526388 -0.000104888 0)
(0.000605267 -0.000145552 0)
(0.000597169 -0.000131102 0)
(0.00059029 -0.000119262 0)
(0.000584695 -0.000109592 0)
(0.00058007 -0.000101587 0)
(0.000576481 -9.49638e-05 0)
(0.000573614 -8.94016e-05 0)
(0.000571641 -8.4771e-05 0)
(0.000570118 -8.07487e-05 0)
(0.000633937 -0.000122691 0)
(0.000628535 -0.000108863 0)
(0.00062382 -9.75139e-05 0)
(0.000619963 -8.82308e-05 0)
(0.000616739 -8.05365e-05 0)
(0.000614279 -7.41759e-05 0)
(0.000612333 -6.88309e-05 0)
(0.000611092 -6.44064e-05 0)
(0.000610196 -6.05702e-05 0)
(0.000658582 -0.000100698 0)
(0.000655723 -8.81144e-05 0)
(0.000653058 -7.77731e-05 0)
(0.000650855 -6.93056e-05 0)
(0.000648975 -6.22826e-05 0)
(0.000647597 -5.64843e-05 0)
(0.000646547 -5.16134e-05 0)
(0.000646014 -4.7604e-05 0)
(0.000645736 -4.41357e-05 0)
(0.00067905 -7.94972e-05 0)
(0.00067845 -6.87108e-05 0)
(0.000677621 -5.98385e-05 0)
(0.0006769 -5.257e-05 0)
(0.000676233 -4.65393e-05 0)
(0.000675834 -4.15665e-05 0)
(0.0006756 -3.73912e-05 0)
(0.000675711 -3.39698e-05 0)
(0.000676004 -3.10167e-05 0)
(0.000695142 -5.89815e-05 0)
(0.000696418 -5.04614e-05 0)
(0.000697115 -4.34487e-05 0)
(0.000697633 -3.77018e-05 0)
(0.000697983 -3.29327e-05 0)
(0.000698406 -2.90042e-05 0)
(0.000698862 -2.57074e-05 0)
(0.000699521 -2.3015e-05 0)
(0.000700299 -2.06942e-05 0)
(0.000706743 -3.90088e-05 0)
(0.000709422 -3.31191e-05 0)
(0.000711265 -2.82695e-05 0)
(0.000712712 -2.42947e-05 0)
(0.00071383 -2.09959e-05 0)
(0.000714874 -1.82806e-05 0)
(0.000715854 -1.60027e-05 0)
(0.000716928 -1.41468e-05 0)
(0.000718077 -1.25485e-05 0)
(0.000713741 -1.94087e-05 0)
(0.000717287 -1.64004e-05 0)
(0.00071984 -1.39227e-05 0)
(0.000721865 -1.18918e-05 0)
(0.00072346 -1.02063e-05 0)
(0.000724891 -8.81949e-06 0)
(0.000726197 -7.65632e-06 0)
(0.000727531 -6.70991e-06 0)
(0.000728912 -5.89515e-06 0)
(0.000735657 -3.8895e-06 0)
(0.000726079 -8.41298e-06 0)
(0.000710337 -1.41817e-05 0)
(0.000688791 -2.17757e-05 0)
(0.00066187 -3.17059e-05 0)
(0.000630178 -4.44349e-05 0)
(0.000594295 -6.02963e-05 0)
(0.000554977 -7.96833e-05 0)
(0.000512848 -0.000102606 0)
(0.000741991 -3.00425e-06 0)
(0.000733594 -6.51938e-06 0)
(0.000719771 -1.10329e-05 0)
(0.000700813 -1.70363e-05 0)
(0.000677049 -2.49334e-05 0)
(0.000648958 -3.51725e-05 0)
(0.000616996 -4.79516e-05 0)
(0.000581773 -6.37208e-05 0)
(0.000543933 -8.22441e-05 0)
(0.000749467 -2.56591e-06 0)
(0.000742079 -5.53003e-06 0)
(0.00072991 -9.26073e-06 0)
(0.000713203 -1.41591e-05 0)
(0.000692234 -2.05156e-05 0)
(0.000667388 -2.87485e-05 0)
(0.000639046 -3.89879e-05 0)
(0.000607621 -5.17345e-05 0)
(0.00057363 -6.67991e-05 0)
(0.000758196 -2.36254e-06 0)
(0.00075164 -5.04266e-06 0)
(0.000740833 -8.32221e-06 0)
(0.000725975 -1.25328e-05 0)
(0.000707303 -1.78741e-05 0)
(0.00068513 -2.47004e-05 0)
(0.000659816 -3.30643e-05 0)
(0.000631694 -4.33901e-05 0)
(0.000601244 -5.55545e-05 0)
(0.000768071 -2.31781e-06 0)
(0.000762237 -4.88359e-06 0)
(0.00075262 -7.90905e-06 0)
(0.000739385 -1.16659e-05 0)
(0.000722746 -1.62984e-05 0)
(0.000702944 -2.21082e-05 0)
(0.000680297 -2.91284e-05 0)
(0.000655051 -3.76914e-05 0)
(0.000627636 -4.77072e-05 0)
(0.000779086 -2.40359e-06 0)
(0.000773847 -5.00235e-06 0)
(0.000765214 -7.95621e-06 0)
(0.000753325 -1.14815e-05 0)
(0.000738381 -1.56785e-05 0)
(0.000720589 -2.07844e-05 0)
(0.000700246 -2.68225e-05 0)
(0.000677556 -3.40474e-05 0)
(0.000652895 -4.24169e-05 0)
(0.000791181 -2.54624e-06 0)
(0.000786467 -5.24699e-06 0)
(0.000778701 -8.22615e-06 0)
(0.000767999 -1.16571e-05 0)
(0.000754546 -1.56163e-05 0)
(0.000738514 -2.02874e-05 0)
(0.000720173 -2.56882e-05 0)
(0.0006997 -3.19981e-05 0)
(0.00067744 -3.91923e-05 0)
(0.000804274 -2.74731e-06 0)
(0.000800004 -5.61679e-06 0)
(0.000792974 -8.70521e-06 0)
(0.000783287 -1.21485e-05 0)
(0.000771119 -1.60063e-05 0)
(0.000756623 -2.04183e-05 0)
(0.000740049 -2.54043e-05 0)
(0.000721556 -3.10922e-05 0)
(0.000701451 -3.74719e-05 0)
(0.000818333 -2.96157e-06 0)
(0.000814459 -6.0226e-06 0)
(0.000808082 -9.2623e-06 0)
(0.000799295 -1.27889e-05 0)
(0.000788259 -1.66518e-05 0)
(0.000775116 -2.09559e-05 0)
(0.000760096 -2.57185e-05 0)
(0.000743348 -3.10286e-05 0)
(0.000725159 -3.68806e-05 0)
(0.000833259 -3.18379e-06 0)
(0.00082973 -6.44954e-06 0)
(0.000823924 -9.86378e-06 0)
(0.000815929 -1.35133e-05 0)
(0.000805895 -1.74416e-05 0)
(0.000793957 -2.17287e-05 0)
(0.000780327 -2.63936e-05 0)
(0.000765147 -3.14972e-05 0)
(0.000748681 -3.70398e-05 0)
(0.000849014 -3.38814e-06 0)
(0.000845794 -6.84702e-06 0)
(0.0008405 -1.04355e-05 0)
(0.000833213 -1.42257e-05 0)
(0.000824074 -1.8257e-05 0)
(0.000813211 -2.25919e-05 0)
(0.000800823 -2.72486e-05 0)
(0.000787048 -3.22708e-05 0)
(0.000772136 -3.76589e-05 0)
(0.000865502 -3.56248e-06 0)
(0.00086256 -7.18824e-06 0)
(0.000857725 -1.09315e-05 0)
(0.000851075 -1.48545e-05 0)
(0.000842741 -1.89952e-05 0)
(0.000832849 -2.34048e-05 0)
(0.000821584 -2.81022e-05 0)
(0.000809081 -3.31195e-05 0)
(0.000795574 -3.84594e-05 0)
(0.000882663 -3.68862e-06 0)
(0.000879973 -7.43692e-06 0)
(0.000875554 -1.12972e-05 0)
(0.000869481 -1.53263e-05 0)
(0.000861877 -1.95612e-05 0)
(0.000852864 -2.40471e-05 0)
(0.000842614 -2.88022e-05 0)
(0.000831265 -3.38538e-05 0)
(0.000819025 -3.92039e-05 0)
(0.000900407 -3.74963e-06 0)
(0.000897948 -7.55808e-06 0)
(0.000893909 -1.1478e-05 0)
(0.000888362 -1.55641e-05 0)
(0.000881425 -1.98542e-05 0)
(0.000873215 -2.43901e-05 0)
(0.000863894 -2.91913e-05 0)
(0.000853597 -3.42815e-05 0)
(0.000842521 -3.96637e-05 0)
(0.000918644 -3.72826e-06 0)
(0.000916397 -7.51709e-06 0)
(0.000912709 -1.14217e-05 0)
(0.000907648 -1.54969e-05 0)
(0.000901323 -1.97833e-05 0)
(0.000893849 -2.43213e-05 0)
(0.000885379 -2.91322e-05 0)
(0.000876045 -3.42376e-05 0)
(0.000866035 -3.96414e-05 0)
(0.000937281 -3.59937e-06 0)
(0.000935233 -7.2633e-06 0)
(0.000931871 -1.10514e-05 0)
(0.000927262 -1.50216e-05 0)
(0.000921507 -1.92181e-05 0)
(0.000914715 -2.36829e-05 0)
(0.000907031 -2.84394e-05 0)
(0.000898584 -3.35099e-05 0)
(0.00088955 -3.88972e-05 0)
(0.00095618 -3.34315e-06 0)
(0.000954321 -6.75691e-06 0)
(0.000951269 -1.03073e-05 0)
(0.000947087 -1.4057e-05 0)
(0.00094187 -1.80562e-05 0)
(0.00093572 -2.23501e-05 0)
(0.000928773 -2.69659e-05 0)
(0.000921152 -3.19268e-05 0)
(0.000913024 -3.7237e-05 0)
(0.000975237 -2.91684e-06 0)
(0.00097356 -5.91236e-06 0)
(0.000970807 -9.06102e-06 0)
(0.000967037 -1.24329e-05 0)
(0.000962335 -1.60865e-05 0)
(0.000956798 -2.00726e-05 0)
(0.000950551 -2.44262e-05 0)
(0.000943712 -2.91725e-05 0)
(0.000936435 -3.4322e-05 0)
(0.00099423 -2.29632e-06 0)
(0.000992734 -4.68114e-06 0)
(0.000990279 -7.23912e-06 0)
(0.000986919 -1.005e-05 0)
(0.000982731 -1.31833e-05 0)
(0.000977802 -1.66984e-05 0)
(0.000972248 -2.06416e-05 0)
(0.000966179 -2.50431e-05 0)
(0.000959735 -2.99239e-05 0)
(0.000454616 -0.000136911 0)
(0.000441597 -0.000144085 0)
(0.000429039 -0.000151347 0)
(0.000417038 -0.000158518 0)
(0.000405556 -0.000165651 0)
(0.000394468 -0.00017272 0)
(0.000383797 -0.000179701 0)
(0.000373476 -0.000186589 0)
(0.000363469 -0.000193369 0)
(0.000353721 -0.000200033 0)
(0.000344192 -0.000206579 0)
(0.00033482 -0.000213011 0)
(0.000325557 -0.000219337 0)
(0.000316339 -0.000225568 0)
(0.000307115 -0.000231728 0)
(0.000297818 -0.000237833 0)
(0.000288398 -0.000243923 0)
(0.000278785 -0.000250021 0)
(0.000268934 -0.00025619 0)
(0.000491557 -0.000110786 0)
(0.000479445 -0.000117419 0)
(0.000467665 -0.000124151 0)
(0.000456295 -0.000130836 0)
(0.000445334 -0.000137501 0)
(0.000434661 -0.000144138 0)
(0.000424346 -0.000150722 0)
(0.000414379 -0.00015722 0)
(0.000404632 -0.000163684 0)
(0.000395104 -0.00017008 0)
(0.000385808 -0.0001764 0)
(0.000376683 -0.000182655 0)
(0.000367708 -0.000188846 0)
(0.000358837 -0.000194989 0)
(0.00035004 -0.000201101 0)
(0.000341276 -0.000207199 0)
(0.000332515 -0.00021332 0)
(0.000323719 -0.000219481 0)
(0.000314865 -0.000225743 0)
(0.000525987 -9.06658e-05 0)
(0.00051479 -9.66545e-05 0)
(0.000503903 -0.000102731 0)
(0.000493266 -0.000108829 0)
(0.000482928 -0.000114958 0)
(0.000472837 -0.000121084 0)
(0.000463041 -0.00012721 0)
(0.000453557 -0.00013328 0)
(0.000444261 -0.000139358 0)
(0.000435172 -0.000145411 0)
(0.000426313 -0.000151437 0)
(0.000417644 -0.000157436 0)
(0.000409157 -0.000163419 0)
(0.000400829 -0.00016939 0)
(0.000392644 -0.000175372 0)
(0.000384588 -0.000181373 0)
(0.000376644 -0.00018743 0)
(0.000368806 -0.000193552 0)
(0.000361063 -0.000199796 0)
(0.000558332 -7.53266e-05 0)
(0.000548106 -8.06917e-05 0)
(0.000538092 -8.61708e-05 0)
(0.00052826 -9.16949e-05 0)
(0.000518654 -9.72886e-05 0)
(0.000509258 -0.000102909 0)
(0.00050009 -0.00010857 0)
(0.000491149 -0.000114241 0)
(0.000482426 -0.00011993 0)
(0.000473922 -0.000125626 0)
(0.000465635 -0.000131339 0)
(0.00045756 -0.000137058 0)
(0.000449695 -0.000142801 0)
(0.000442036 -0.000148564 0)
(0.00043458 -0.000154371 0)
(0.000427331 -0.000160223 0)
(0.000420285 -0.000166153 0)
(0.000413457 -0.000172165 0)
(0.000406846 -0.000178307 0)
(0.000588871 -6.42264e-05 0)
(0.000579577 -6.90328e-05 0)
(0.000570435 -7.39658e-05 0)
(0.000561426 -7.89682e-05 0)
(0.000552592 -8.40635e-05 0)
(0.000543932 -8.92128e-05 0)
(0.000535466 -9.44303e-05 0)
(0.000527203 -9.96897e-05 0)
(0.000519144 -0.000105001 0)
(0.000511297 -0.00011035 0)
(0.00050367 -0.000115744 0)
(0.00049627 -0.000121178 0)
(0.000489104 -0.000126662 0)
(0.000482179 -0.000132193 0)
(0.000475505 -0.000137791 0)
(0.000469096 -0.000143453 0)
(0.00046296 -0.000149207 0)
(0.000457125 -0.000155052 0)
(0.000451599 -0.000161026 0)
(0.000617959 -5.64134e-05 0)
(0.00060957 -6.07513e-05 0)
(0.000601281 -6.52219e-05 0)
(0.000593095 -6.97799e-05 0)
(0.000585046 -7.44456e-05 0)
(0.000577142 -7.91868e-05 0)
(0.000569406 -8.40156e-05 0)
(0.00056185 -8.89106e-05 0)
(0.00055449 -9.38787e-05 0)
(0.000547338 -9.89086e-05 0)
(0.000540409 -0.000104006 0)
(0.000533717 -0.000109165 0)
(0.000527276 -0.000114394 0)
(0.000521102 -0.000119688 0)
(0.000515212 -0.000125063 0)
(0.000509628 -0.000130514 0)
(0.000504366 -0.000136062 0)
(0.000499463 -0.000141703 0)
(0.000494929 -0.000147467 0)
(0.000645926 -5.12962e-05 0)
(0.000638381 -5.52558e-05 0)
(0.0006309 -5.93482e-05 0)
(0.000623503 -6.35399e-05 0)
(0.000616216 -6.78459e-05 0)
(0.000609057 -7.22422e-05 0)
(0.000602047 -7.67374e-05 0)
(0.000595204 -8.13155e-05 0)
(0.000588547 -8.59815e-05 0)
(0.000582094 -9.07252e-05 0)
(0.000575863 -9.55513e-05 0)
(0.000569874 -0.000100453 0)
(0.000564145 -0.000105437 0)
(0.000558699 -0.000110497 0)
(0.000553556 -0.000115644 0)
(0.000548744 -0.000120873 0)
(0.000544282 -0.000126198 0)
(0.000540214 -0.000131613 0)
(0.000536551 -0.000137139 0)
(0.000673038 -4.82178e-05 0)
(0.000666271 -5.18836e-05 0)
(0.000659545 -5.56786e-05 0)
(0.00065289 -5.95793e-05 0)
(0.000646327 -6.35958e-05 0)
(0.000639877 -6.77108e-05 0)
(0.000633562 -7.19301e-05 0)
(0.000627404 -7.62415e-05 0)
(0.000621423 -8.06481e-05 0)
(0.00061564 -8.51419e-05 0)
(0.000610076 -8.97249e-05 0)
(0.000604753 -9.43918e-05 0)
(0.000599694 -9.91452e-05 0)
(0.000594922 -0.000103981 0)
(0.000590462 -0.000108904 0)
(0.000586338 -0.00011391 0)
(0.000582586 -0.000119003 0)
(0.000579259 -0.000124171 0)
(0.000576335 -0.000129445 0)
(0.000699528 -4.66908e-05 0)
(0.000693464 -5.0133e-05 0)
(0.000687425 -5.36983e-05 0)
(0.000681449 -5.73707e-05 0)
(0.000675552 -6.11566e-05 0)
(0.000669758 -6.50441e-05 0)
(0.00066409 -6.90363e-05 0)
(0.000658568 -7.31246e-05 0)
(0.000653215 -7.73099e-05 0)
(0.000648053 -8.15863e-05 0)
(0.000643104 -8.59533e-05 0)
(0.000638392 -9.04072e-05 0)
(0.000633941 -9.49469e-05 0)
(0.000629774 -9.95701e-05 0)
(0.000625919 -0.000104275 0)
(0.000622399 -0.000109061 0)
(0.000619252 -0.000113928 0)
(0.00061653 -0.000118856 0)
(0.000614207 -0.000123875 0)
(0.000725557 -4.62452e-05 0)
(0.000720119 -4.9522e-05 0)
(0.000714697 -5.29132e-05 0)
(0.000709333 -5.64095e-05 0)
(0.000704037 -6.00147e-05 0)
(0.000698837 -6.37203e-05 0)
(0.000693753 -6.75283e-05 0)
(0.000688806 -7.14318e-05 0)
(0.00068402 -7.54309e-05 0)
(0.000679416 -7.95202e-05 0)
(0.000675016 -8.36988e-05 0)
(0.000670845 -8.7962e-05 0)
(0.000666926 -9.23085e-05 0)
(0.000663284 -9.67335e-05 0)
(0.000659944 -0.000101236 0)
(0.000656935 -0.00010581 0)
(0.00065428 -0.000110457 0)
(0.00065202 -0.000115165 0)
(0.000650164 -0.000119938 0)
(0.000751267 -4.65032e-05 0)
(0.000746379 -4.96551e-05 0)
(0.000741494 -5.29133e-05 0)
(0.000736668 -5.62723e-05 0)
(0.000731902 -5.9734e-05 0)
(0.000727226 -6.32928e-05 0)
(0.000722658 -6.69492e-05 0)
(0.000718219 -7.06981e-05 0)
(0.00071393 -7.45386e-05 0)
(0.000709813 -7.84661e-05 0)
(0.00070589 -8.24788e-05 0)
(0.000702183 -8.65717e-05 0)
(0.000698715 -9.07428e-05 0)
(0.00069551 -9.49861e-05 0)
(0.000692591 -9.92997e-05 0)
(0.000689987 -0.000103676 0)
(0.000687718 -0.000108113 0)
(0.000685822 -0.000112601 0)
(0.000684309 -0.00011714 0)
(0.000776724 -4.71052e-05 0)
(0.000772312 -5.01658e-05 0)
(0.000767898 -5.33194e-05 0)
(0.000763539 -5.65666e-05 0)
(0.000759234 -5.99115e-05 0)
(0.000755013 -6.33483e-05 0)
(0.000750891 -6.68773e-05 0)
(0.000746889 -7.04941e-05 0)
(0.000743027 -7.41973e-05 0)
(0.000739325 -7.79826e-05 0)
(0.000735803 -8.18476e-05 0)
(0.000732483 -8.57873e-05 0)
(0.000729385 -8.97986e-05 0)
(0.000726532 -9.38755e-05 0)
(0.000723944 -9.80144e-05 0)
(0.000721649 -0.000102207 0)
(0.000719664 -0.00010645 0)
(0.000718023 -0.000110734 0)
(0.000716736 -0.000115053 0)
(0.000801969 -4.77591e-05 0)
(0.000797958 -5.07411e-05 0)
(0.000793959 -5.38087e-05 0)
(0.000789998 -5.69636e-05 0)
(0.000786091 -6.02097e-05 0)
(0.000782258 -6.3542e-05 0)
(0.000778516 -6.69605e-05 0)
(0.000774884 -7.04615e-05 0)
(0.00077138 -7.40431e-05 0)
(0.000768023 -7.77012e-05 0)
(0.000764831 -8.14333e-05 0)
(0.000761824 -8.52343e-05 0)
(0.00075902 -8.91004e-05 0)
(0.000756439 -9.30254e-05 0)
(0.0007541 -9.70043e-05 0)
(0.000752025 -0.000101029 0)
(0.000750231 -0.000105094 0)
(0.000748748 -0.00010919 0)
(0.000747585 -0.00011331 0)
(0.000827086 -4.81809e-05 0)
(0.000823409 -5.10881e-05 0)
(0.000819746 -5.40793e-05 0)
(0.000816118 -5.71535e-05 0)
(0.00081254 -6.03109e-05 0)