/*--------------------------------*- C++ -*----------------------------------*\
| =========                 |                                                 |
| \\      /  F ield         | OpenFOAM: The Open Source CFD Toolbox           |
|  \\    /   O peration     | Version:  v2012                                 |
|   \\  /    A nd           | Website:  www.openfoam.com                      |
|    \\/     M anipulation  |                                                 |
\*---------------------------------------------------------------------------*/
FoamFile
{
    version     2.0;
    format      ascii;
    class       volVectorField;
    location    "1";
    object      D;
}
// * * * * * * * * * * * * * * * * * * * * * * * * * * * * * * * * * * * * * //

dimensions      [0 1 0 0 0 0 0];


internalField   nonuniform List<vector> 
26460
(
(-4.92869e-07 -4.77912e-07 1.48509e-08)
(-4.91441e-07 -4.83874e-07 6.46757e-08)
(-4.93177e-07 -4.82227e-07 1.22568e-07)
(-5.18415e-07 -4.74852e-07 2.01657e-07)
(-6.06689e-07 -4.53521e-07 3.149e-07)
(-8.42495e-07 -4.24457e-07 5.28926e-07)
(-1.39484e-07 -1.7362e-07 1.2055e-08)
(-1.44958e-07 -1.70373e-07 3.44263e-08)
(-1.53232e-07 -1.69737e-07 6.31562e-08)
(-1.87812e-07 -1.75458e-07 1.1223e-07)
(-2.85082e-07 -1.8916e-07 2.0159e-07)
(-5.11311e-07 -1.96792e-07 4.01435e-07)
(-3.8785e-08 -6.24558e-08 7.33363e-09)
(-4.01755e-08 -5.99238e-08 1.52459e-08)
(-4.14641e-08 -5.91034e-08 2.80297e-08)
(-6.88701e-08 -7.14123e-08 6.0372e-08)
(-1.55029e-07 -9.40425e-08 1.33796e-07)
(-3.50502e-07 -9.57353e-08 2.96805e-07)
(-4.0689e-08 -4.63759e-08 5.39525e-09)
(-4.14065e-08 -4.44629e-08 1.36074e-08)
(-4.22394e-08 -4.24583e-08 2.38663e-08)
(-4.69766e-08 -4.06025e-08 3.96335e-08)
(-1.05009e-07 -5.44759e-08 8.79448e-08)
(-2.55577e-07 -4.32813e-08 1.9287e-07)
(-3.84477e-08 -4.30318e-08 4.30159e-09)
(-3.93899e-08 -4.21977e-08 1.20112e-08)
(-4.04844e-08 -4.13722e-08 2.13387e-08)
(-4.53959e-08 -4.01977e-08 3.279e-08)
(-7.04415e-08 -4.20746e-08 5.4247e-08)
(-1.64496e-07 -2.79448e-08 1.06265e-07)
(-2.67803e-08 -3.96888e-08 2.85195e-09)
(-2.72485e-08 -3.91851e-08 8.09338e-09)
(-2.7841e-08 -3.93348e-08 1.39263e-08)
(-2.9202e-08 -3.89272e-08 2.13792e-08)
(-3.42434e-08 -3.59805e-08 3.07389e-08)
(-5.3324e-08 -2.55016e-08 4.47702e-08)
(-1.23256e-08 -3.68915e-08 1.30264e-09)
(-1.24653e-08 -3.62593e-08 3.90529e-09)
(-1.26266e-08 -3.62724e-08 6.59845e-09)
(-1.30502e-08 -3.54e-08 9.92397e-09)
(-1.49541e-08 -3.2588e-08 1.43984e-08)
(-2.3631e-08 -2.48748e-08 2.21363e-08)
(7.21748e-10 -3.64029e-08 -7.78115e-11)
(7.28242e-10 -3.57839e-08 -2.26703e-10)
(7.32353e-10 -3.5711e-08 -3.77123e-10)
(7.51188e-10 -3.46189e-08 -5.57613e-10)
(8.50688e-10 -3.15286e-08 -8.20218e-10)
(1.35744e-09 -2.33981e-08 -1.32352e-09)
(1.38163e-08 -3.69954e-08 -1.45579e-09)
(1.39739e-08 -3.63727e-08 -4.36175e-09)
(1.41504e-08 -3.64036e-08 -7.37719e-09)
(1.46393e-08 -3.55486e-08 -1.10971e-08)
(1.67987e-08 -3.27546e-08 -1.60982e-08)
(2.65307e-08 -2.51067e-08 -2.47026e-08)
(2.83667e-08 -3.98674e-08 -3.02336e-09)
(2.89409e-08 -3.93724e-08 -8.57072e-09)
(2.96262e-08 -3.95757e-08 -1.4788e-08)
(3.12387e-08 -3.91001e-08 -2.26953e-08)
(3.66479e-08 -3.61429e-08 -3.2601e-08)
(5.68137e-08 -2.52251e-08 -4.71024e-08)
(3.91653e-08 -4.29809e-08 -4.36763e-09)
(3.9793e-08 -4.18513e-08 -1.23047e-08)
(4.09925e-08 -4.09804e-08 -2.18678e-08)
(4.59026e-08 -3.96211e-08 -3.36584e-08)
(7.50336e-08 -4.27681e-08 -5.81392e-08)
(1.76795e-07 -2.76657e-08 -1.14653e-07)
(4.03004e-08 -4.65719e-08 -5.50549e-09)
(4.0945e-08 -4.46525e-08 -1.38832e-08)
(4.177e-08 -4.2609e-08 -2.44497e-08)
(4.65075e-08 -4.09013e-08 -4.08249e-08)
(1.07808e-07 -5.60933e-08 -9.21459e-08)
(2.64096e-07 -4.56554e-08 -2.02532e-07)
(3.81775e-08 -6.33588e-08 -7.48947e-09)
(3.96445e-08 -6.08654e-08 -1.55502e-08)
(4.18116e-08 -6.0697e-08 -2.90079e-08)
(7.00923e-08 -7.35688e-08 -6.26212e-08)
(1.58376e-07 -9.69995e-08 -1.38567e-07)
(3.58524e-07 -9.97942e-08 -3.0679e-07)
(1.41185e-07 -1.77756e-07 -1.22799e-08)
(1.46841e-07 -1.7455e-07 -3.52828e-08)
(1.55479e-07 -1.74039e-07 -6.48542e-08)
(1.90849e-07 -1.79958e-07 -1.15247e-07)
(2.89858e-07 -1.94001e-07 -2.06647e-07)
(5.20218e-07 -2.02438e-07 -4.11333e-07)
(4.99364e-07 -4.86962e-07 -1.51673e-08)
(4.98174e-07 -4.9334e-07 -6.58505e-08)
(5.00212e-07 -4.92211e-07 -1.24794e-07)
(5.26107e-07 -4.85318e-07 -2.05339e-07)
(6.159e-07 -4.63879e-07 -3.20642e-07)
(8.5551e-07 -4.34333e-07 -5.38874e-07)
(-7.98337e-07 -8.59848e-07 3.46452e-08)
(-8.04613e-07 -8.59735e-07 1.28677e-07)
(-8.19885e-07 -8.4675e-07 2.41966e-07)
(-8.69599e-07 -8.15634e-07 3.83638e-07)
(-9.86509e-07 -7.6073e-07 5.60632e-07)
(-1.15465e-06 -6.95541e-07 7.77651e-07)
(-4.14622e-07 -4.93069e-07 3.17223e-08)
(-4.29665e-07 -4.85533e-07 9.40335e-08)
(-4.55545e-07 -4.79044e-07 1.71823e-07)
(-5.18316e-07 -4.7203e-07 2.78724e-07)
(-6.47694e-07 -4.61484e-07 4.28806e-07)
(-8.13029e-07 -4.30123e-07 6.34323e-07)
(-2.10803e-07 -2.63289e-07 2.16339e-08)
(-2.18899e-07 -2.59353e-07 6.13884e-08)
(-2.39185e-07 -2.61521e-07 1.14227e-07)
(-2.92746e-07 -2.71195e-07 1.95538e-07)
(-4.07188e-07 -2.80431e-07 3.1993e-07)
(-5.58671e-07 -2.51531e-07 4.97232e-07)
(-1.4734e-07 -1.58704e-07 1.40628e-08)
(-1.53019e-07 -1.57361e-07 4.19599e-08)
(-1.66736e-07 -1.61774e-07 7.8038e-08)
(-1.98936e-07 -1.70751e-07 1.3312e-07)
(-2.7893e-07 -1.81627e-07 2.20964e-07)
(-3.96332e-07 -1.45845e-07 3.4242e-07)
(-1.23529e-07 -1.38538e-07 1.08236e-08)
(-1.26167e-07 -1.36822e-07 3.15369e-08)
(-1.31396e-07 -1.3678e-07 5.52915e-08)
(-1.43321e-07 -1.37232e-07 8.79224e-08)
(-1.84121e-07 -1.4145e-07 1.35867e-07)
(-2.57852e-07 -1.09772e-07 2.02635e-07)
(-8.75258e-08 -1.4051e-07 7.63311e-09)
(-8.90116e-08 -1.39963e-07 2.22735e-08)
(-9.13481e-08 -1.39302e-07 3.78438e-08)
(-9.5364e-08 -1.35922e-07 5.59704e-08)
(-1.03086e-07 -1.2725e-07 7.63983e-08)
(-1.26133e-07 -9.99635e-08 1.11248e-07)
(-3.90446e-08 -1.32969e-07 3.33009e-09)
(-3.94047e-08 -1.32186e-07 1.07196e-08)
(-3.99851e-08 -1.3159e-07 1.80945e-08)
(-4.14352e-08 -1.28148e-07 2.67016e-08)
(-4.5661e-08 -1.18623e-07 3.62824e-08)
(-5.8018e-08 -9.39553e-08 5.40996e-08)
(2.2892e-09 -1.32204e-07 -2.10231e-10)
(2.31069e-09 -1.31441e-07 -6.46356e-10)
(2.32996e-09 -1.30525e-07 -1.06178e-09)
(2.39292e-09 -1.26587e-07 -1.53134e-09)
(2.60942e-09 -1.16694e-07 -2.09541e-09)
(3.34692e-09 -9.12372e-08 -3.24521e-09)
(4.37016e-08 -1.33141e-07 -3.76116e-09)
(4.40867e-08 -1.32376e-07 -1.20185e-08)
(4.47115e-08 -1.31829e-07 -2.02956e-08)
(4.6369e-08 -1.28393e-07 -2.99402e-08)
(5.11789e-08 -1.18828e-07 -4.0652e-08)
(6.51413e-08 -9.42831e-08 -6.04558e-08)
(9.28978e-08 -1.40657e-07 -8.11317e-09)
(9.49679e-08 -1.40024e-07 -2.36158e-08)
(9.76495e-08 -1.39494e-07 -4.01607e-08)
(1.02021e-07 -1.36172e-07 -5.93342e-08)
(1.10229e-07 -1.27577e-07 -8.09041e-08)
(1.34365e-07 -9.97611e-08 -1.1735e-07)
(1.25592e-07 -1.37622e-07 -1.07824e-08)
(1.28538e-07 -1.35928e-07 -3.22191e-08)
(1.34201e-07 -1.36068e-07 -5.74187e-08)
(1.48155e-07 -1.37715e-07 -9.25304e-08)
(1.93144e-07 -1.43166e-07 -1.45558e-07)
(2.73051e-07 -1.10008e-07 -2.1605e-07)
(1.48497e-07 -1.61015e-07 -1.44951e-08)
(1.54019e-07 -1.59954e-07 -4.34924e-08)
(1.68264e-07 -1.64657e-07 -8.12439e-08)
(2.01998e-07 -1.74227e-07 -1.39033e-07)
(2.86087e-07 -1.85818e-07 -2.31381e-07)
(4.09106e-07 -1.49978e-07 -3.58518e-07)
(2.12312e-07 -2.69238e-07 -2.22747e-08)
(2.20678e-07 -2.65372e-07 -6.33791e-08)
(2.41899e-07 -2.67867e-07 -1.18202e-07)
(2.97268e-07 -2.77933e-07 -2.02433e-07)
(4.15214e-07 -2.87616e-07 -3.30894e-07)
(5.71439e-07 -2.59505e-07 -5.13351e-07)
(4.1915e-07 -5.03879e-07 -3.24867e-08)
(4.34648e-07 -4.96338e-07 -9.65564e-08)
(4.61432e-07 -4.89792e-07 -1.76509e-07)
(5.25998e-07 -4.82679e-07 -2.86204e-07)
(6.58539e-07 -4.72113e-07 -4.39709e-07)
(8.28076e-07 -4.4122e-07 -6.49505e-07)
(8.08348e-07 -8.75467e-07 -3.55012e-08)
(8.15081e-07 -8.75646e-07 -1.31432e-07)
(8.31085e-07 -8.62928e-07 -2.47029e-07)
(8.823e-07 -8.31825e-07 -3.91546e-07)
(1.00198e-06 -7.76375e-07 -5.71821e-07)
(1.1741e-06 -7.10529e-07 -7.92481e-07)
(-1.03289e-06 -1.10396e-06 5.51608e-08)
(-1.04626e-06 -1.09364e-06 1.74525e-07)
(-1.07292e-06 -1.06432e-06 3.16199e-07)
(-1.12655e-06 -1.0085e-06 4.82129e-07)
(-1.21238e-06 -9.2671e-07 6.60966e-07)
(-1.29095e-06 -8.34489e-07 8.24454e-07)
(-6.72587e-07 -7.65368e-07 4.58022e-08)
(-6.90856e-07 -7.55074e-07 1.4013e-07)
(-7.26943e-07 -7.38609e-07 2.50131e-07)
(-7.92764e-07 -7.12334e-07 3.84928e-07)
(-8.9159e-07 -6.72664e-07 5.42539e-07)
(-9.81061e-07 -6.1355e-07 7.10313e-07)
(-4.2879e-07 -4.91018e-07 3.43326e-08)
(-4.42485e-07 -4.87405e-07 1.04315e-07)
(-4.73409e-07 -4.85623e-07 1.88103e-07)
(-5.31093e-07 -4.82616e-07 2.96576e-07)
(-6.19609e-07 -4.67741e-07 4.30369e-07)
(-7.07806e-07 -4.157e-07 5.82718e-07)
(-3.03115e-07 -3.27409e-07 2.40197e-08)
(-3.12716e-07 -3.27411e-07 7.36676e-08)
(-3.34866e-07 -3.32784e-07 1.33088e-07)
(-3.74674e-07 -3.39147e-07 2.11557e-07)
(-4.38387e-07 -3.34864e-07 3.10362e-07)
(-5.09353e-07 -2.82531e-07 4.21068e-07)
(-2.26474e-07 -2.69206e-07 1.68952e-08)
(-2.30843e-07 -2.6861e-07 5.02554e-08)
(-2.42398e-07 -2.72739e-07 8.86868e-08)
(-2.6206e-07 -2.76896e-07 1.38223e-07)
(-2.95753e-07 -2.74769e-07 1.98119e-07)
(-3.44805e-07 -2.34452e-07 2.60883e-07)
(-1.56991e-07 -2.74268e-07 1.1281e-08)
(-1.58655e-07 -2.73396e-07 3.35355e-08)
(-1.61696e-07 -2.72282e-07 5.66946e-08)
(-1.66771e-07 -2.67196e-07 8.28914e-08)
(-1.75249e-07 -2.54842e-07 1.12308e-07)
(-1.94572e-07 -2.19986e-07 1.52707e-07)
(-6.81015e-08 -2.66569e-07 5.13694e-09)
(-6.83683e-08 -2.65378e-07 1.63144e-08)
(-6.95898e-08 -2.63665e-07 2.74423e-08)
(-7.2058e-08 -2.57311e-07 3.98713e-08)
(-7.71405e-08 -2.42107e-07 5.32706e-08)
(-8.79672e-08 -2.06639e-07 7.39296e-08)
(3.9477e-09 -2.6431e-07 -3.28441e-10)
(3.96507e-09 -2.62941e-07 -1.01561e-09)
(4.00428e-09 -2.6074e-07 -1.6537e-09)
(4.11354e-09 -2.53817e-07 -2.34935e-09)
(4.3831e-09 -2.38278e-07 -3.16158e-09)
(5.07482e-09 -2.02128e-07 -4.52795e-09)
(7.63409e-08 -2.6674e-07 -5.85391e-09)
(7.65678e-08 -2.6562e-07 -1.839e-08)
(7.7829e-08 -2.64e-07 -3.08957e-08)
(8.05954e-08 -2.57665e-07 -4.48319e-08)
(8.63615e-08 -2.4241e-07 -5.98299e-08)
(9.86848e-08 -2.07068e-07 -8.27921e-08)
(1.6648e-07 -2.73656e-07 -1.20345e-08)
(1.68708e-07 -2.72979e-07 -3.57375e-08)
(1.72307e-07 -2.72235e-07 -6.03392e-08)
(1.77869e-07 -2.67327e-07 -8.80952e-08)
(1.87132e-07 -2.55137e-07 -1.19179e-07)
(2.07594e-07 -2.19841e-07 -1.61494e-07)
(2.32237e-07 -2.68539e-07 -1.74941e-08)
(2.38215e-07 -2.68747e-07 -5.24596e-08)
(2.51009e-07 -2.73317e-07 -9.31646e-08)
(2.72347e-07 -2.78198e-07 -1.45971e-07)
(3.08142e-07 -2.76427e-07 -2.10812e-07)
(3.58283e-07 -2.33393e-07 -2.77038e-07)
(3.07237e-07 -3.32233e-07 -2.49106e-08)
(3.17296e-07 -3.32522e-07 -7.67536e-08)
(3.40472e-07 -3.38177e-07 -1.39037e-07)
(3.82156e-07 -3.44871e-07 -2.21315e-07)
(4.49027e-07 -3.40548e-07 -3.24858e-07)
(5.24137e-07 -2.87318e-07 -4.40673e-07)
(4.33518e-07 -5.01384e-07 -3.54827e-08)
(4.47714e-07 -4.97794e-07 -1.07998e-07)
(4.79775e-07 -4.95995e-07 -1.94908e-07)
(5.39568e-07 -4.92862e-07 -3.0723e-07)
(6.31382e-07 -4.77743e-07 -4.45327e-07)
(7.23451e-07 -4.25919e-07 -6.01705e-07)
(6.8018e-07 -7.81179e-07 -4.70761e-08)
(6.9907e-07 -7.7071e-07 -1.44168e-07)
(7.36399e-07 -7.53848e-07 -2.57322e-07)
(8.04415e-07 -7.26943e-07 -3.95687e-07)
(9.06477e-07 -6.86634e-07 -5.56874e-07)
(9.99546e-07 -6.27525e-07 -7.27474e-07)
(1.04529e-06 -1.12362e-06 -5.65457e-08)
(1.05926e-06 -1.11319e-06 -1.78723e-07)
(1.08703e-06 -1.08352e-06 -3.23634e-07)
(1.14262e-06 -1.02688e-06 -4.93098e-07)
(1.23137e-06 -9.43929e-07 -6.75195e-07)
(1.31328e-06 -8.50932e-07 -8.40814e-07)
(-1.3022e-06 -1.30597e-06 6.80278e-08)
(-1.31964e-06 -1.28747e-06 2.07114e-07)
(-1.35243e-06 -1.2453e-06 3.64033e-07)
(-1.40138e-06 -1.17252e-06 5.35293e-07)
(-1.45719e-06 -1.07373e-06 7.01346e-07)
(-1.49014e-06 -9.69859e-07 8.28562e-07)
(-9.55329e-07 -9.98857e-07 5.66139e-08)
(-9.75145e-07 -9.84566e-07 1.71942e-07)
(-1.01302e-06 -9.58436e-07 2.98968e-07)
(-1.06909e-06 -9.16882e-07 4.40993e-07)
(-1.13303e-06 -8.58899e-07 5.88273e-07)
(-1.17124e-06 -7.8715e-07 7.24059e-07)
(-6.81345e-07 -7.22439e-07 4.46622e-08)
(-6.9776e-07 -7.16542e-07 1.35581e-07)
(-7.31106e-07 -7.07712e-07 2.36664e-07)
(-7.81406e-07 -6.91229e-07 3.53029e-07)
(-8.40101e-07 -6.57989e-07 4.78735e-07)
(-8.77982e-07 -5.92528e-07 6.04162e-07)
(-4.95445e-07 -5.342e-07 3.26267e-08)
(-5.07438e-07 -5.33371e-07 9.91825e-08)
(-5.32151e-07 -5.35039e-07 1.73136e-07)
(-5.68641e-07 -5.32626e-07 2.5937e-07)
(-6.11691e-07 -5.13341e-07 3.53692e-07)
(-6.41729e-07 -4.48686e-07 4.4634e-07)
(-3.56767e-07 -4.48847e-07 2.24992e-08)
(-3.63101e-07 -4.48977e-07 6.69532e-08)
(-3.76318e-07 -4.52878e-07 1.15605e-07)
(-3.94681e-07 -4.53607e-07 1.72009e-07)
(-4.15628e-07 -4.41548e-07 2.32456e-07)
(-4.34278e-07 -3.89617e-07 2.85185e-07)
(-2.28035e-07 -4.39189e-07 1.37148e-08)
(-2.29624e-07 -4.37761e-07 4.16154e-08)
(-2.32959e-07 -4.35825e-07 6.98717e-08)
(-2.37862e-07 -4.28521e-07 1.00478e-07)
(-2.44323e-07 -4.11795e-07 1.3327e-07)
(-2.53843e-07 -3.70996e-07 1.72341e-07)
(-9.85695e-08 -4.31184e-07 6.61405e-09)
(-9.89858e-08 -4.29338e-07 2.04034e-08)
(-1.0094e-07 -4.26004e-07 3.40544e-08)
(-1.04008e-07 -4.16389e-07 4.85355e-08)
(-1.08596e-07 -3.95914e-07 6.3616e-08)
(-1.15182e-07 -3.53188e-07 8.36865e-08)
(5.594e-09 -4.26323e-07 -4.28054e-10)
(5.61909e-09 -4.24101e-07 -1.30371e-09)
(5.69458e-09 -4.20327e-07 -2.10748e-09)
(5.84092e-09 -4.10359e-07 -2.9537e-09)
(6.0993e-09 -3.89943e-07 -3.90384e-09)
(6.58257e-09 -3.47016e-07 -5.27128e-09)
(1.10545e-07 -4.31349e-07 -7.56524e-09)
(1.10876e-07 -4.29632e-07 -2.3087e-08)
(1.12852e-07 -4.26459e-07 -3.84582e-08)
(1.16231e-07 -4.16887e-07 -5.4741e-08)
(1.21391e-07 -3.96384e-07 -7.16818e-08)
(1.29014e-07 -3.53753e-07 -9.40173e-08)
(2.40635e-07 -4.36971e-07 -1.47707e-08)
(2.43213e-07 -4.36313e-07 -4.46082e-08)
(2.47816e-07 -4.35524e-07 -7.4622e-08)
(2.53277e-07 -4.28484e-07 -1.07064e-07)
(2.60559e-07 -4.11832e-07 -1.41696e-07)
(2.71176e-07 -3.70268e-07 -1.82504e-07)
(3.68544e-07 -4.49167e-07 -2.35841e-08)
(3.76136e-07 -4.49669e-07 -7.03719e-08)
(3.90879e-07 -4.53943e-07 -1.21776e-07)
(4.10712e-07 -4.55063e-07 -1.81575e-07)
(4.32901e-07 -4.4287e-07 -2.46019e-07)
(4.51079e-07 -3.8834e-07 -3.02839e-07)
(5.04529e-07 -5.41001e-07 -3.39968e-08)
(5.17232e-07 -5.40331e-07 -1.03623e-07)
(5.43213e-07 -5.4208e-07 -1.81164e-07)
(5.81505e-07 -5.39663e-07 -2.71595e-07)
(6.26815e-07 -5.19961e-07 -3.70507e-07)
(6.59368e-07 -4.54357e-07 -4.68077e-07)
(6.9066e-07 -7.36088e-07 -4.62913e-08)
(7.07736e-07 -7.30083e-07 -1.40679e-07)
(7.42367e-07 -7.20931e-07 -2.45659e-07)
(7.94712e-07 -7.0389e-07 -3.66321e-07)
(8.56111e-07 -6.69949e-07 -4.9629e-07)
(8.97043e-07 -6.04398e-07 -6.25374e-07)
(9.67037e-07 -1.01843e-06 -5.83543e-08)
(9.87564e-07 -1.00378e-06 -1.77308e-07)
(1.0268e-06 -9.76905e-07 -3.08212e-07)
(1.08501e-06 -9.34247e-07 -4.54217e-07)
(1.15174e-06 -8.75148e-07 -6.0501e-07)
(1.19304e-06 -8.03131e-07 -7.431e-07)
(1.31815e-06 -1.32933e-06 -6.9917e-08)
(1.33632e-06 -1.31044e-06 -2.12689e-07)
(1.37036e-06 -1.2674e-06 -3.73575e-07)
(1.42124e-06 -1.19311e-06 -5.48743e-07)
(1.47959e-06 -1.09259e-06 -7.17874e-07)
(1.51538e-06 -9.87682e-07 -8.46544e-07)
(-1.59114e-06 -1.48412e-06 7.55545e-08)
(-1.60824e-06 -1.46081e-06 2.24782e-07)
(-1.6403e-06 -1.41181e-06 3.84763e-07)
(-1.67962e-06 -1.33253e-06 5.49786e-07)
(-1.71116e-06 -1.22957e-06 7.01039e-07)
(-1.71417e-06 -1.124e-06 8.13838e-07)
(-1.25048e-06 -1.20317e-06 6.24741e-08)
(-1.26903e-06 -1.18603e-06 1.87802e-07)
(-1.30235e-06 -1.15395e-06 3.19354e-07)
(-1.34334e-06 -1.10437e-06 4.56781e-07)
(-1.37689e-06 -1.0382e-06 5.90281e-07)
(-1.37857e-06 -9.60605e-07 7.07932e-07)
(-9.4574e-07 -9.45997e-07 5.03023e-08)
(-9.61776e-07 -9.37539e-07 1.51372e-07)
(-9.91635e-07 -9.22597e-07 2.57554e-07)
(-1.02932e-06 -8.96497e-07 3.70192e-07)
(-1.06131e-06 -8.52554e-07 4.83002e-07)
(-1.0621e-06 -7.80906e-07 5.89551e-07)
(-7.0096e-07 -7.60647e-07 3.76385e-08)
(-7.12908e-07 -7.57805e-07 1.13068e-07)
(-7.35322e-07 -7.5419e-07 1.92043e-07)
(-7.62937e-07 -7.42672e-07 2.762e-07)
(-7.85664e-07 -7.12433e-07 3.60863e-07)
(-7.83967e-07 -6.42514e-07 4.39546e-07)
(-4.95169e-07 -6.65277e-07 2.58408e-08)
(-5.01238e-07 -6.6449e-07 7.70233e-08)
(-5.12513e-07 -6.65163e-07 1.3011e-07)
(-5.24934e-07 -6.59208e-07 1.86476e-07)
(-5.31983e-07 -6.36906e-07 2.41799e-07)
(-5.26074e-07 -5.76948e-07 2.87738e-07)
(-2.98814e-07 -6.35372e-07 1.52144e-08)
(-2.99898e-07 -6.33056e-07 4.64608e-08)
(-3.03145e-07 -6.29664e-07 7.74591e-08)
(-3.07085e-07 -6.19371e-07 1.09649e-07)
(-3.10875e-07 -5.97924e-07 1.42274e-07)
(-3.12584e-07 -5.52787e-07 1.77051e-07)
(-1.30986e-07 -6.24406e-07 7.58389e-09)
(-1.31512e-07 -6.21545e-07 2.27045e-08)
(-1.3381e-07 -6.16072e-07 3.76014e-08)
(-1.36773e-07 -6.03018e-07 5.27715e-08)
(-1.40087e-07 -5.78106e-07 6.80011e-08)
(-1.42516e-07 -5.31277e-07 8.60073e-08)
(7.25426e-09 -6.16805e-07 -4.9656e-10)
(7.28924e-09 -6.1351e-07 -1.4778e-09)
(7.39374e-09 -6.07813e-07 -2.39647e-09)
(7.55129e-09 -5.94772e-07 -3.33289e-09)
(7.75487e-09 -5.70318e-07 -4.33025e-09)
(8.00927e-09 -5.2363e-07 -5.60583e-09)
(1.47107e-07 -6.24457e-07 -8.6215e-09)
(1.47351e-07 -6.2185e-07 -2.57438e-08)
(1.49395e-07 -6.1669e-07 -4.26182e-08)
(1.52655e-07 -6.03716e-07 -5.97586e-08)
(1.56382e-07 -5.78803e-07 -7.69463e-08)
(1.59384e-07 -5.32022e-07 -9.70331e-08)
(3.16444e-07 -6.33698e-07 -1.67207e-08)
(3.18437e-07 -6.32285e-07 -5.04445e-08)
(3.22258e-07 -6.29497e-07 -8.32044e-08)
(3.26633e-07 -6.19389e-07 -1.17124e-07)
(3.30965e-07 -5.9791e-07 -1.51685e-07)
(3.33396e-07 -5.51927e-07 -1.88219e-07)
(5.12822e-07 -6.66276e-07 -2.73138e-08)
(5.20259e-07 -6.65573e-07 -8.13198e-08)
(5.33395e-07 -6.66391e-07 -1.37288e-07)
(5.47286e-07 -6.60784e-07 -1.96946e-07)
(5.55767e-07 -6.38618e-07 -2.55824e-07)
(5.50157e-07 -5.77271e-07 -3.05461e-07)
(7.16216e-07 -7.68434e-07 -3.9366e-08)
(7.28991e-07 -7.65599e-07 -1.18416e-07)
(7.52814e-07 -7.61888e-07 -2.0126e-07)
(7.82205e-07 -7.50206e-07 -2.89614e-07)
(8.06812e-07 -7.19468e-07 -3.78606e-07)
(8.06619e-07 -6.4858e-07 -4.61875e-07)
(9.60871e-07 -9.61518e-07 -5.2288e-08)
(9.7763e-07 -9.52831e-07 -1.5745e-07)
(1.0088e-06 -9.37371e-07 -2.6793e-07)
(1.04831e-06 -9.10492e-07 -3.85006e-07)
(1.08238e-06 -8.65633e-07 -5.0202e-07)
(1.08528e-06 -7.93632e-07 -6.12257e-07)
(1.26745e-06 -1.22528e-06 -6.45879e-08)
(1.28668e-06 -1.20762e-06 -1.94197e-07)
(1.32124e-06 -1.17454e-06 -3.301e-07)
(1.36401e-06 -1.12354e-06 -4.71732e-07)
(1.39963e-06 -1.05596e-06 -6.08748e-07)
(1.40366e-06 -9.77895e-07 -7.28712e-07)
(1.61159e-06 -1.51051e-06 -7.78749e-08)
(1.62933e-06 -1.48659e-06 -2.31531e-07)
(1.66246e-06 -1.43629e-06 -3.96034e-07)
(1.70329e-06 -1.35502e-06 -5.65216e-07)
(1.73667e-06 -1.24992e-06 -7.19493e-07)
(1.74187e-06 -1.14309e-06 -8.33587e-07)
(-1.87688e-06 -1.64425e-06 7.68409e-08)
(-1.89082e-06 -1.61933e-06 2.26753e-07)
(-1.91656e-06 -1.5699e-06 3.81098e-07)
(-1.94187e-06 -1.49358e-06 5.34581e-07)
(-1.95044e-06 -1.39684e-06 6.73611e-07)
(-1.92719e-06 -1.2968e-06 7.84151e-07)
(-1.53469e-06 -1.38981e-06 6.33819e-08)
(-1.54935e-06 -1.37178e-06 1.8893e-07)
(-1.57353e-06 -1.33808e-06 3.16214e-07)
(-1.59677e-06 -1.28716e-06 4.43571e-07)
(-1.60374e-06 -1.22041e-06 5.64171e-07)
(-1.5763e-06 -1.14148e-06 6.71462e-07)
(-1.19869e-06 -1.16295e-06 5.13315e-08)
(-1.21169e-06 -1.15274e-06 1.53074e-07)
(-1.2338e-06 -1.13407e-06 2.55824e-07)
(-1.25616e-06 -1.1029e-06 3.59163e-07)
(-1.26481e-06 -1.05457e-06 4.58534e-07)
(-1.23779e-06 -9.81585e-07 5.50304e-07)
(-8.98534e-07 -9.97564e-07 3.88943e-08)
(-9.08095e-07 -9.92543e-07 1.15586e-07)
(-9.2438e-07 -9.8413e-07 1.9257e-07)
(-9.40049e-07 -9.65617e-07 2.69805e-07)
(-9.44371e-07 -9.29064e-07 3.43584e-07)
(-9.19715e-07 -8.59229e-07 4.10215e-07)
(-6.26056e-07 -9.059e-07 2.66941e-08)
(-6.30106e-07 -9.03248e-07 7.98345e-08)
(-6.36718e-07 -8.99131e-07 1.32604e-07)
(-6.40975e-07 -8.8572e-07 1.85244e-07)
(-6.35861e-07 -8.54895e-07 2.33876e-07)
(-6.15565e-07 -7.9199e-07 2.74101e-07)
(-3.67828e-07 -8.59125e-07 1.59533e-08)
(-3.68344e-07 -8.5562e-07 4.82301e-08)
(-3.71265e-07 -8.49862e-07 7.97874e-08)
(-3.73892e-07 -8.35813e-07 1.11382e-07)
(-3.74727e-07 -8.09494e-07 1.4186e-07)
(-3.70439e-07 -7.61341e-07 1.72055e-07)
(-1.64451e-07 -8.41644e-07 7.95813e-09)
(-1.64968e-07 -8.37499e-07 2.3339e-08)
(-1.67175e-07 -8.29594e-07 3.83989e-08)
(-1.69492e-07 -8.13186e-07 5.3258e-08)
(-1.71132e-07 -7.84714e-07 6.77645e-08)
(-1.70135e-07 -7.36159e-07 8.36008e-08)
(9.00518e-09 -8.31936e-07 -5.23985e-10)
(9.02573e-09 -8.27493e-07 -1.54505e-09)
(9.12374e-09 -8.19661e-07 -2.52499e-09)
(9.24453e-09 -8.03623e-07 -3.4981e-09)
(9.36505e-09 -7.7585e-07 -4.48295e-09)
(9.40562e-09 -7.27569e-07 -5.63221e-09)
(1.84033e-07 -8.42047e-07 -9.02762e-09)
(1.84222e-07 -8.38171e-07 -2.65895e-08)
(1.86389e-07 -8.3049e-07 -4.37132e-08)
(1.88973e-07 -8.14158e-07 -6.05833e-08)
(1.90865e-07 -7.85659e-07 -7.70064e-08)
(1.90021e-07 -7.37052e-07 -9.4744e-08)
(3.92083e-07 -8.60309e-07 -1.75245e-08)
(3.92161e-07 -8.5646e-07 -5.23197e-08)
(3.94364e-07 -8.50204e-07 -8.57142e-08)
(3.97208e-07 -8.36313e-07 -1.19253e-07)
(3.98291e-07 -8.10008e-07 -1.51722e-07)
(3.94161e-07 -7.61156e-07 -1.83799e-07)
(6.50866e-07 -9.0742e-07 -2.83905e-08)
(6.56231e-07 -9.04753e-07 -8.45261e-08)
(6.64591e-07 -9.01002e-07 -1.40168e-07)
(6.70149e-07 -8.8805e-07 -1.95922e-07)
(6.66632e-07 -8.57831e-07 -2.47754e-07)
(6.46224e-07 -7.94274e-07 -2.9108e-07)
(9.20813e-07 -1.00541e-06 -4.08125e-08)
(9.31294e-07 -1.0003e-06 -1.21336e-07)
(9.49128e-07 -9.91703e-07 -2.02153e-07)
(9.66607e-07 -9.72983e-07 -2.83346e-07)
(9.7254e-07 -9.35874e-07 -3.61114e-07)
(9.48376e-07 -8.64893e-07 -4.31823e-07)
(1.2205e-06 -1.17892e-06 -5.35044e-08)
(1.23421e-06 -1.16842e-06 -1.59626e-07)
(1.25754e-06 -1.14916e-06 -2.66758e-07)
(1.28143e-06 -1.11715e-06 -3.74465e-07)
(1.29148e-06 -1.06778e-06 -4.77972e-07)
(1.26551e-06 -9.94107e-07 -5.73602e-07)
(1.55771e-06 -1.41309e-06 -6.57241e-08)
(1.5729e-06 -1.39444e-06 -1.95933e-07)
(1.59802e-06 -1.35961e-06 -3.27796e-07)
(1.62247e-06 -1.30712e-06 -4.59454e-07)
(1.63065e-06 -1.2388e-06 -5.83659e-07)
(1.6046e-06 -1.15919e-06 -6.93568e-07)
(1.90239e-06 -1.67266e-06 -7.94579e-08)
(1.91673e-06 -1.64698e-06 -2.34285e-07)
(1.94313e-06 -1.59598e-06 -3.93498e-07)
(1.96928e-06 -1.51738e-06 -5.51325e-07)
(1.97879e-06 -1.41822e-06 -6.93488e-07)
(1.9569e-06 -1.3167e-06 -8.05488e-07)
(-2.14527e-06 -1.79551e-06 7.32149e-08)
(-2.15468e-06 -1.77183e-06 2.15783e-07)
(-2.17126e-06 -1.72694e-06 3.58661e-07)
(-2.18136e-06 -1.65977e-06 4.98167e-07)
(-2.16962e-06 -1.57504e-06 6.2639e-07)
(-2.12357e-06 -1.48385e-06 7.37086e-07)
(-1.79327e-06 -1.57108e-06 6.03814e-08)
(-1.80265e-06 -1.55384e-06 1.7894e-07)
(-1.81572e-06 -1.52188e-06 2.96578e-07)
(-1.82157e-06 -1.47411e-06 4.11547e-07)
(-1.80677e-06 -1.41131e-06 5.20093e-07)
(-1.75667e-06 -1.33395e-06 6.19163e-07)
(-1.42541e-06 -1.38006e-06 4.88917e-08)
(-1.43371e-06 -1.36909e-06 1.44723e-07)
(-1.44586e-06 -1.34895e-06 2.39133e-07)
(-1.45262e-06 -1.3162e-06 3.31052e-07)
(-1.44209e-06 -1.26755e-06 4.17565e-07)
(-1.39565e-06 -1.19632e-06 4.96286e-07)
(-1.07373e-06 -1.24278e-06 3.71942e-08)
(-1.07925e-06 -1.23602e-06 1.09937e-07)
(-1.08708e-06 -1.22399e-06 1.80945e-07)
(-1.08977e-06 -1.20078e-06 2.49605e-07)
(-1.079e-06 -1.16132e-06 3.13098e-07)
(-1.04073e-06 -1.09496e-06 3.69247e-07)
(-7.39762e-07 -1.16074e-06 2.55686e-08)
(-7.40603e-07 -1.15574e-06 7.69647e-08)
(-7.40642e-07 -1.14589e-06 1.26508e-07)
(-7.36298e-07 -1.12519e-06 1.74032e-07)
(-7.23924e-07 -1.08889e-06 2.16438e-07)
(-7.00412e-07 -1.02877e-06 2.52649e-07)
(-4.34845e-07 -1.10396e-06 1.59376e-08)
(-4.34874e-07 -1.09906e-06 4.73695e-08)
(-4.37136e-07 -1.09027e-06 7.78493e-08)
(-4.38182e-07 -1.07217e-06 1.07441e-07)
(-4.36353e-07 -1.04152e-06 1.35111e-07)
(-4.28251e-07 -9.91998e-07 1.61364e-07)
(-1.98134e-07 -1.0785e-06 7.80014e-09)
(-1.98484e-07 -1.07303e-06 2.26706e-08)
(-2.00199e-07 -1.06278e-06 3.71533e-08)
(-2.01525e-07 -1.04353e-06 5.11466e-08)
(-2.01513e-07 -1.01259e-06 6.45967e-08)
(-1.98108e-07 -9.64129e-07 7.8465e-08)
(1.0831e-08 -1.06776e-06 -5.14145e-10)
(1.08177e-08 -1.06219e-06 -1.5286e-09)
(1.08668e-08 -1.05219e-06 -2.5195e-09)
(1.09331e-08 -1.03343e-06 -3.48059e-09)
(1.09705e-08 -1.00316e-06 -4.4177e-09)
(1.08385e-08 -9.549e-07 -5.42656e-09)
(2.21024e-07 -1.07952e-06 -8.87907e-09)
(2.21271e-07 -1.07415e-06 -2.59133e-08)
(2.23061e-07 -1.06402e-06 -4.24539e-08)
(2.2456e-07 -1.04477e-06 -5.84028e-08)
(2.24623e-07 -1.01377e-06 -7.36666e-08)
(2.20987e-07 -9.65186e-07 -8.92795e-08)
(4.62857e-07 -1.10591e-06 -1.71784e-08)
(4.62061e-07 -1.10041e-06 -5.10968e-08)
(4.63868e-07 -1.09158e-06 -8.36946e-08)
(4.65002e-07 -1.07368e-06 -1.15333e-07)
(4.63049e-07 -1.04317e-06 -1.44957e-07)
(4.54423e-07 -9.9318e-07 -1.72987e-07)
(7.71939e-07 -1.16306e-06 -2.729e-08)
(7.73924e-07 -1.15837e-06 -8.17482e-08)
(7.76267e-07 -1.14967e-06 -1.33951e-07)
(7.72269e-07 -1.12937e-06 -1.84332e-07)
(7.5951e-07 -1.09303e-06 -2.29635e-07)
(7.33957e-07 -1.03151e-06 -2.67775e-07)
(1.10382e-06 -1.25007e-06 -3.91707e-08)
(1.1103e-06 -1.24318e-06 -1.1566e-07)
(1.11983e-06 -1.23093e-06 -1.90246e-07)
(1.12442e-06 -1.20763e-06 -2.62398e-07)
(1.11469e-06 -1.16751e-06 -3.29361e-07)
(1.07548e-06 -1.09964e-06 -3.88936e-07)
(1.4546e-06 -1.39528e-06 -5.10887e-08)
(1.46351e-06 -1.38399e-06 -1.51268e-07)
(1.47672e-06 -1.36322e-06 -2.49891e-07)
(1.48468e-06 -1.32962e-06 -3.45911e-07)
(1.47482e-06 -1.27988e-06 -4.36384e-07)
(1.4282e-06 -1.20759e-06 -5.19009e-07)
(1.8229e-06 -1.59408e-06 -6.27799e-08)
(1.83258e-06 -1.57623e-06 -1.86068e-07)
(1.8462e-06 -1.54311e-06 -3.08276e-07)
(1.8526e-06 -1.49379e-06 -4.27516e-07)
(1.83812e-06 -1.42938e-06 -5.39775e-07)
(1.78832e-06 -1.35109e-06 -6.41877e-07)
(2.17611e-06 -1.82458e-06 -7.59347e-08)
(2.18563e-06 -1.80009e-06 -2.23581e-07)
(2.2024e-06 -1.75356e-06 -3.71442e-07)
(2.21262e-06 -1.68403e-06 -5.15409e-07)
(2.2009e-06 -1.59678e-06 -6.46996e-07)
(2.15527e-06 -1.5039e-06 -7.59552e-07)
(-2.39164e-06 -1.94925e-06 6.63766e-08)
(-2.39659e-06 -1.92861e-06 1.96118e-07)
(-2.404e-06 -1.89098e-06 3.24026e-07)
(-2.40103e-06 -1.83568e-06 4.48187e-07)
(-2.37425e-06 -1.7651e-06 5.65367e-07)
(-2.31184e-06 -1.68429e-06 6.74367e-07)
(-2.0201e-06 -1.75854e-06 5.48944e-08)
(-2.02419e-06 -1.7431e-06 1.62125e-07)
(-2.02686e-06 -1.71463e-06 2.67281e-07)
(-2.01858e-06 -1.67209e-06 3.68929e-07)
(-1.98857e-06 -1.6153e-06 4.65535e-07)
(-1.92403e-06 -1.54168e-06 5.5593e-07)
(-1.61793e-06 -1.60508e-06 4.43338e-08)
(-1.62113e-06 -1.59411e-06 1.30808e-07)
(-1.62343e-06 -1.57398e-06 2.14747e-07)
(-1.61696e-06 -1.54172e-06 2.94967e-07)
(-1.59299e-06 -1.49484e-06 3.69485e-07)
(-1.53654e-06 -1.42729e-06 4.3616e-07)
(-1.21696e-06 -1.49619e-06 3.36701e-08)
(-1.21797e-06 -1.48836e-06 1.00001e-07)
(-1.21731e-06 -1.47405e-06 1.6347e-07)
(-1.20824e-06 -1.44796e-06 2.23729e-07)
(-1.18753e-06 -1.40722e-06 2.78374e-07)
(-1.14679e-06 -1.34558e-06 3.25438e-07)
(-8.3027e-07 -1.4203e-06 2.35078e-08)
(-8.28479e-07 -1.41329e-06 7.05704e-08)
(-8.25888e-07 -1.39993e-06 1.15282e-07)
(-8.1873e-07 -1.37559e-06 1.57918e-07)
(-8.05371e-07 -1.33801e-06 1.96229e-07)
(-7.83219e-07 -1.28308e-06 2.29051e-07)
(-4.99586e-07 -1.36291e-06 1.52266e-08)
(-4.99205e-07 -1.35654e-06 4.45108e-08)
(-5.00686e-07 -1.34447e-06 7.27847e-08)
(-5.00255e-07 -1.32262e-06 9.96821e-08)
(-4.96113e-07 -1.28915e-06 1.24729e-07)
(-4.85152e-07 -1.24067e-06 1.48115e-07)
(-2.31036e-07 -1.33114e-06 7.28857e-09)
(-2.31094e-07 -1.32453e-06 2.11793e-08)
(-2.3209e-07 -1.31231e-06 3.46532e-08)
(-2.32329e-07 -1.2909e-06 4.75262e-08)
(-2.30911e-07 -1.25851e-06 5.98518e-08)
(-2.26053e-07 -1.21135e-06 7.21034e-08)
(1.26152e-08 -1.32011e-06 -4.88577e-10)
(1.25877e-08 -1.31354e-06 -1.46524e-09)
(1.2615e-08 -1.30158e-06 -2.41694e-09)
(1.26374e-08 -1.28061e-06 -3.32376e-09)
(1.25932e-08 -1.24873e-06 -4.19247e-09)
(1.23335e-08 -1.20166e-06 -5.07178e-09)
(2.57511e-07 -1.33267e-06 -8.32574e-09)
(2.57506e-07 -1.32608e-06 -2.42437e-08)
(2.58553e-07 -1.31387e-06 -3.96888e-08)
(2.58839e-07 -1.29241e-06 -5.44035e-08)
(2.57295e-07 -1.25993e-06 -6.84136e-08)
(2.51895e-07 -1.21263e-06 -8.22637e-08)
(5.30338e-07 -1.36524e-06 -1.63346e-08)
(5.2959e-07 -1.35889e-06 -4.79689e-08)
(5.3057e-07 -1.34728e-06 -7.83997e-08)
(5.30162e-07 -1.32548e-06 -1.07252e-07)
(5.25824e-07 -1.29188e-06 -1.34036e-07)
(5.14138e-07 -1.24282e-06 -1.58909e-07)
(8.693e-07 -1.42476e-06 -2.50865e-08)
(8.67764e-07 -1.4179e-06 -7.54173e-08)
(8.65067e-07 -1.40472e-06 -1.22469e-07)
(8.57442e-07 -1.38054e-06 -1.67016e-07)
(8.42496e-07 -1.34234e-06 -2.07641e-07)
(8.17607e-07 -1.28564e-06 -2.42212e-07)
(1.25572e-06 -1.50299e-06 -3.55668e-08)
(1.25744e-06 -1.49491e-06 -1.0529e-07)
(1.25829e-06 -1.48016e-06 -1.72025e-07)
(1.25158e-06 -1.45446e-06 -2.3513e-07)
(1.23086e-06 -1.4134e-06 -2.92499e-07)
(1.18682e-06 -1.35013e-06 -3.424e-07)
(1.65528e-06 -1.61862e-06 -4.64154e-08)
(1.65891e-06 -1.60733e-06 -1.36883e-07)
(1.66197e-06 -1.58657e-06 -2.24679e-07)
(1.65626e-06 -1.55343e-06 -3.0856e-07)
(1.6322e-06 -1.5055e-06 -3.8669e-07)
(1.57418e-06 -1.43665e-06 -4.57079e-07)
(2.05682e-06 -1.77992e-06 -5.71736e-08)
(2.06099e-06 -1.76392e-06 -1.68877e-07)
(2.06379e-06 -1.73441e-06 -2.78375e-07)
(2.0554e-06 -1.69046e-06 -3.84124e-07)
(2.02481e-06 -1.63214e-06 -4.8449e-07)
(1.95944e-06 -1.55735e-06 -5.78322e-07)
(2.42796e-06 -1.97744e-06 -6.89847e-08)
(2.43276e-06 -1.95605e-06 -2.03628e-07)
(2.43996e-06 -1.9169e-06 -3.36385e-07)
(2.4365e-06 -1.85942e-06 -4.65016e-07)
(2.40893e-06 -1.78644e-06 -5.85843e-07)
(2.34598e-06 -1.70379e-06 -6.97313e-07)
(-2.6142e-06 -2.11692e-06 5.80426e-08)
(-2.61563e-06 -2.09994e-06 1.72282e-07)
(-2.61558e-06 -2.07006e-06 2.83786e-07)
(-2.60345e-06 -2.02653e-06 3.92055e-07)
(-2.56808e-06 -1.96974e-06 4.97237e-07)
(-2.49726e-06 -1.89997e-06 6.01407e-07)
(-2.21261e-06 -1.96172e-06 4.82751e-08)
(-2.21242e-06 -1.94835e-06 1.42537e-07)
(-2.20718e-06 -1.92377e-06 2.34389e-07)
(-2.18972e-06 -1.88671e-06 3.22759e-07)
(-2.15189e-06 -1.8363e-06 4.07426e-07)
(-2.08201e-06 -1.7681e-06 4.88234e-07)
(-1.77178e-06 -1.84383e-06 3.88565e-08)
(-1.77053e-06 -1.83332e-06 1.15215e-07)
(-1.76504e-06 -1.81383e-06 1.88574e-07)