/*--------------------------------*- C++ -*----------------------------------*\
| =========                 |                                                 |
| \\      /  F ield         | OpenFOAM: The Open Source CFD Toolbox           |
|  \\    /   O peration     | Version:  v2012                                 |
|   \\  /    A nd           | Website:  www.openfoam.com                      |
|    \\/     M anipulation  |                                                 |
\*---------------------------------------------------------------------------*/
FoamFile
{
    version     2.0;
    format      ascii;
    class       volScalarField;
    location    "1";
    object      epsilonEq;
}
// * * * * * * * * * * * * * * * * * * * * * * * * * * * * * * * * * * * * * //

dimensions      [0 0 0 0 0 0 0];


internalField   nonuniform List<scalar> 
26460
(
0.000290547
0.000300204
0.000308386
0.000323522
0.000345949
0.00037275
0.00016862
0.000171728
0.00018087
0.000201117
0.000239764
0.000287337
9.45311e-05
9.32099e-05
0.000100899
0.000119662
0.000155551
0.000203469
5.97206e-05
6.04238e-05
6.59146e-05
7.82967e-05
0.00010337
0.000134252
4.61851e-05
4.68744e-05
4.95531e-05
5.54102e-05
6.72456e-05
8.06725e-05
3.76115e-05
3.77419e-05
3.86596e-05
4.01425e-05
4.22723e-05
4.62459e-05
2.99404e-05
2.97441e-05
2.97223e-05
2.92855e-05
2.7803e-05
2.54448e-05
2.75219e-05
2.71937e-05
2.68325e-05
2.56742e-05
2.24279e-05
1.54474e-05
3.0481e-05
3.03152e-05
3.03685e-05
3.00808e-05
2.89508e-05
2.73585e-05
3.85221e-05
3.87348e-05
3.98319e-05
4.16165e-05
4.42338e-05
4.88563e-05
4.68648e-05
4.76349e-05
5.06015e-05
5.71404e-05
7.02862e-05
8.50355e-05
6.05947e-05
6.12958e-05
6.70969e-05
8.02035e-05
0.00010671
0.000139506
9.60398e-05
9.46979e-05
0.000102744
0.000122197
0.000159306
0.000208874
0.0001712
0.000174489
0.000183962
0.000204806
0.000244445
0.000293383
0.000294427
0.000304385
0.000313041
0.00032889
0.000352048
0.000379585
0.00016729
0.000172622
0.000178791
0.000181393
0.000169316
0.00014093
0.000150567
0.000153389
0.000158948
0.000163362
0.000159044
0.000138226
0.000114127
0.000116817
0.000122624
0.000128292
0.000127022
0.000113636
7.78335e-05
8.03035e-05
8.55522e-05
9.17378e-05
9.13513e-05
7.92887e-05
5.4945e-05
5.61716e-05
5.90997e-05
6.24161e-05
6.15836e-05
5.11949e-05
4.27414e-05
4.29745e-05
4.3652e-05
4.40685e-05
4.24472e-05
3.66761e-05
3.43937e-05
3.4338e-05
3.41094e-05
3.32872e-05
3.09537e-05
2.57006e-05
3.2266e-05
3.21084e-05
3.16051e-05
3.02099e-05
2.67678e-05
2.01998e-05
3.49063e-05
3.48684e-05
3.4696e-05
3.39804e-05
3.18519e-05
2.68275e-05
4.38273e-05
4.41629e-05
4.50167e-05
4.5606e-05
4.40518e-05
3.80844e-05
5.62687e-05
5.78119e-05
6.11082e-05
6.4789e-05
6.37974e-05
5.27012e-05
7.95381e-05
8.22e-05
8.77766e-05
9.43246e-05
9.39917e-05
8.17958e-05
0.000116219
0.000119
0.000124971
0.000130888
0.000129804
0.000116378
0.000152768
0.000155688
0.000161441
0.000166099
0.000161945
0.000141033
0.000169049
0.000174488
0.000181044
0.000184072
0.000172102
0.000143427
0.000155795
0.000159895
0.000163941
0.000160349
0.000142342
0.000116046
0.000153197
0.000154235
0.000155473
0.000151414
0.000136831
0.000114455
0.000132288
0.000133228
0.00013457
0.000131896
0.00012049
0.000102363
9.94679e-05
0.000100706
0.000102655
0.000101921
9.34254e-05
7.7565e-05
6.89503e-05
6.98186e-05
7.14108e-05
7.15192e-05
6.58606e-05
5.33266e-05
4.94661e-05
4.95367e-05
4.97316e-05
4.92143e-05
4.64813e-05
4.01811e-05
4.02323e-05
4.00494e-05
3.96171e-05
3.85555e-05
3.62165e-05
3.18276e-05
3.8569e-05
3.83204e-05
3.76579e-05
3.61484e-05
3.31373e-05
2.83869e-05
4.06701e-05
4.04993e-05
4.01115e-05
3.9116e-05
3.68649e-05
3.25006e-05
5.05641e-05
5.0755e-05
5.11132e-05
5.06894e-05
4.79127e-05
4.13011e-05
7.11581e-05
7.22267e-05
7.4054e-05
7.41925e-05
6.80911e-05
5.46771e-05
0.000102079
0.000103485
0.000105609
0.00010489
9.60515e-05
7.97544e-05
0.000134917
0.000135927
0.000137346
0.00013466
0.000123059
0.000104647
0.00015556
0.000156659
0.000157984
0.00015393
0.000139168
0.000116495
0.000157677
0.000161882
0.000166149
0.000162653
0.000144442
0.000117774
0.00016122
0.000161865
0.00016274
0.000156867
0.000140571
0.000120545
0.000159625
0.000159165
0.000157369
0.000150212
0.000135305
0.000116883
0.000141734
0.000141134
0.000139396
0.000133416
0.00012099
0.000105094
0.000111133
0.000110937
0.000109997
0.000105773
9.56054e-05
8.11445e-05
7.85417e-05
7.84463e-05
7.79457e-05
7.53049e-05
6.79163e-05
5.58649e-05
5.38221e-05
5.36647e-05
5.31936e-05
5.18619e-05
4.86147e-05
4.30799e-05
4.44442e-05
4.41636e-05
4.35465e-05
4.23116e-05
4.01663e-05
3.71087e-05
4.31019e-05
4.27662e-05
4.19597e-05
4.04122e-05
3.79443e-05
3.49538e-05
4.48846e-05
4.45979e-05
4.39876e-05
4.27686e-05
4.06244e-05
3.74812e-05
5.51464e-05
5.4999e-05
5.45252e-05
5.32063e-05
4.99185e-05
4.40896e-05
8.12724e-05
8.11716e-05
8.07494e-05
7.81378e-05
7.06252e-05
5.82656e-05
0.000114419
0.000114286
0.000113411
0.000109147
9.87473e-05
8.39657e-05
0.000144945
0.00014437
0.000142631
0.000136531
0.000123814
0.00010757
0.000162468
0.000162018
0.000160198
0.00015288
0.000137628
0.000118802
0.000163601
0.000164245
0.000165155
0.000159126
0.00014242
0.000121959
0.000162407
0.000161354
0.00015926
0.000151342
0.000135665
0.000118546
0.000157667
0.000155879
0.000151913
0.000143265
0.000129227
0.000114288
0.000139672
0.000137918
0.000134253
0.000126876
0.00011522
0.000102801
0.00011086
0.000109499
0.000106641
0.000100814
9.11524e-05
8.01695e-05
7.95409e-05
7.85476e-05
7.65526e-05
7.25501e-05
6.55523e-05
5.68519e-05
5.55672e-05
5.5152e-05
5.42238e-05
5.25228e-05
4.96868e-05
4.61718e-05
4.7597e-05
4.72175e-05
4.64356e-05
4.51382e-05
4.34312e-05
4.17981e-05
4.63707e-05
4.59461e-05
4.50275e-05
4.35461e-05
4.17265e-05
4.027e-05
4.81054e-05
4.7679e-05
4.68485e-05
4.55276e-05
4.37812e-05
4.2029e-05
5.74447e-05
5.67382e-05
5.55149e-05
5.37154e-05
5.08005e-05
4.70045e-05
8.2623e-05
8.15532e-05
7.95204e-05
7.55135e-05
6.85061e-05
5.96798e-05
0.000114565
0.000113235
0.000110408
0.000104545
9.47224e-05
8.34728e-05
0.000143367
0.000141599
0.000137875
0.000130327
0.000118349
0.000105554
0.000160986
0.000159146
0.000155051
0.00014612
0.000131634
0.000116212
0.00016523
0.000164072
0.000161854
0.000153595
0.000137361
0.000119739
0.000155694
0.000153765
0.0001497
0.000140804
0.000126461
0.000112099
0.000147343
0.000144721
0.000139541
0.000130556
0.000118087
0.000106018
0.000128589
0.000126123
0.000121422
0.000113749
0.00010355
9.40776e-05
0.000101772
9.96828e-05
9.57679e-05
8.95521e-05
8.14919e-05
7.41238e-05
7.42097e-05
7.27019e-05
6.985e-05
6.55526e-05
6.03018e-05
5.57767e-05
5.52744e-05
5.46879e-05
5.3539e-05
5.18308e-05
4.98188e-05
4.83123e-05
4.92864e-05
4.88525e-05
4.79985e-05
4.67762e-05
4.55831e-05
4.51216e-05
4.80674e-05
4.75984e-05
4.66676e-05
4.53826e-05
4.42284e-05
4.39791e-05
4.97084e-05
4.92486e-05
4.83733e-05
4.7136e-05
4.58928e-05
4.53184e-05
5.68997e-05
5.60252e-05
5.46627e-05
5.28468e-05
5.06664e-05
4.88689e-05
7.73804e-05
7.57849e-05
7.29016e-05
6.84604e-05
6.28603e-05
5.78377e-05
0.000105764
0.000103684
9.97724e-05
9.34659e-05
8.51013e-05
7.73001e-05
0.000132646
0.000130136
0.000125336
0.000117457
0.0001069
9.70049e-05
0.000151037
0.000148314
0.000142932
0.000133595
0.000120628
0.000108036
0.000158845
0.000156743
0.000152456
0.000143124
0.000128159
0.000113258
0.000144121
0.00014221
0.000137575
0.0001294
0.000117917
0.000107004
0.00013201
0.000129205
0.000123975
0.000116032
0.000106224
9.75158e-05
0.000112263
0.000109603
0.000104798
9.79089e-05
8.99768e-05
8.36849e-05
8.74944e-05
8.52533e-05
8.1286e-05
7.58275e-05
7.01559e-05
6.65181e-05
6.50707e-05
6.36431e-05
6.11245e-05
5.79596e-05
5.52421e-05
5.4345e-05
5.35512e-05
5.29346e-05
5.18929e-05
5.05925e-05
4.95814e-05
4.9653e-05
4.9545e-05
4.91107e-05
4.82956e-05
4.72929e-05
4.66746e-05
4.71366e-05
4.8335e-05
4.78918e-05
4.70726e-05
4.61075e-05
4.56019e-05
4.62439e-05
4.9852e-05
4.94477e-05
4.86626e-05
4.76514e-05
4.69761e-05
4.73492e-05
5.44742e-05
5.38266e-05
5.27452e-05
5.13388e-05
5.01396e-05
4.99971e-05
6.79858e-05
6.63705e-05
6.35966e-05
6.01075e-05
5.68328e-05
5.53143e-05
9.16241e-05
8.92835e-05
8.52061e-05
7.95904e-05
7.34692e-05
6.92138e-05
0.000116597
0.000113859
0.000108922
0.0001018
9.34664e-05
8.66872e-05
0.000135991
0.000133062
0.000127601
0.00011929
0.000108985
9.97485e-05
0.00014751
0.000145404
0.000140526
0.000131912
0.000119824
0.000108378
0.000130091
0.00012881
0.00012474
0.000118567
0.000110979
0.000104075
0.000114299
0.000111865
0.000107541
0.000101688
9.53381e-05
9.05124e-05
9.34474e-05
9.10855e-05
8.70683e-05
8.19914e-05
7.70535e-05
7.41945e-05
7.14708e-05
6.96453e-05
6.66265e-05
6.31334e-05
6.03013e-05
5.97441e-05
5.63822e-05
5.55161e-05
5.42334e-05
5.29126e-05
5.22485e-05
5.31891e-05
5.12618e-05
5.07785e-05
5.00798e-05
4.93547e-05
4.91455e-05
5.0116e-05
4.85372e-05
4.81675e-05
4.75182e-05
4.6863e-05
4.6813e-05
4.79284e-05
4.74388e-05
4.70911e-05
4.64874e-05
4.59158e-05
4.59842e-05
4.72192e-05
4.88827e-05
4.85353e-05
4.78958e-05
4.72118e-05
4.71046e-05
4.81618e-05
5.19325e-05
5.14442e-05
5.06768e-05
4.98568e-05
4.95543e-05
5.04541e-05
5.85437e-05
5.7376e-05
5.55663e-05
5.39024e-05
5.29752e-05
5.37221e-05
7.54348e-05
7.33632e-05
6.99536e-05
6.59844e-05
6.269e-05
6.17474e-05
9.79529e-05
9.5461e-05
9.12055e-05
8.57848e-05
8.04146e-05
7.71027e-05
0.000118483
0.000115927
0.000111381
0.000105182
9.83734e-05
9.30502e-05
0.000133646
0.000132196
0.000127924
0.000121385
0.000113272
0.000105881
0.000114614
0.000114173
0.000111208
0.000107477
0.000103856
0.000100863
9.57712e-05
9.39989e-05
9.10464e-05
8.76775e-05
8.49004e-05
8.39058e-05
7.49036e-05
7.32295e-05
7.0535e-05
6.77214e-05
6.58605e-05
6.61594e-05
5.87429e-05
5.76563e-05
5.5995e-05
5.45891e-05
5.40054e-05
5.52401e-05
5.16867e-05
5.12415e-05
5.06732e-05
5.02597e-05
5.04496e-05
5.1997e-05
4.90538e-05
4.87273e-05
4.82762e-05
4.79317e-05
4.82226e-05
4.96605e-05
4.66905e-05
4.6441e-05
4.60477e-05
4.58014e-05
4.62506e-05
4.77698e-05
4.57811e-05
4.55697e-05
4.52363e-05
4.50729e-05
4.56106e-05
4.71918e-05
4.70684e-05
4.6818e-05
4.64103e-05
4.61266e-05
4.65271e-05
4.80159e-05
4.96152e-05
4.92788e-05
4.8801e-05
4.84083e-05
4.8648e-05
5.008e-05
5.26761e-05
5.21393e-05
5.13641e-05
5.07566e-05
5.0873e-05
5.24925e-05
6.15151e-05
6.02602e-05
5.81946e-05
5.61638e-05
5.52235e-05
5.64114e-05
7.91089e-05
7.72961e-05
7.43206e-05
7.11063e-05
6.88489e-05
6.87942e-05
9.99736e-05
9.8115e-05
9.49845e-05
9.13206e-05
8.8154e-05
8.67225e-05
0.000118247
0.000117701
0.000114617
0.000110634
0.000106613
0.000103213
9.83717e-05
9.8635e-05
9.68127e-05
9.52799e-05
9.49708e-05
9.52277e-05
7.83442e-05
7.73215e-05
7.57559e-05
7.46055e-05
7.47115e-05
7.6709e-05
6.06542e-05
5.98576e-05
5.85628e-05
5.75639e-05
5.7667e-05
5.96947e-05
5.21075e-05
5.16873e-05
5.10822e-05
5.06941e-05
5.10263e-05
5.29569e-05
4.9095e-05
4.884e-05
4.8492e-05
4.83312e-05
4.88741e-05
5.07149e-05
4.66099e-05
4.64168e-05
4.61742e-05
4.61507e-05
4.68358e-05
4.85476e-05
4.44693e-05
4.43669e-05
4.42568e-05
4.44012e-05
4.52327e-05
4.69485e-05
4.37569e-05
4.36921e-05
4.36349e-05
4.3843e-05
4.47312e-05
4.64714e-05
4.48328e-05
4.47216e-05
4.459e-05
4.46988e-05
4.54955e-05
4.72008e-05
4.71577e-05
4.69698e-05
4.67212e-05
4.66527e-05
4.72792e-05
4.899e-05
4.95926e-05
4.93698e-05
4.90755e-05
4.88555e-05
4.93287e-05
5.11939e-05
5.32221e-05
5.27857e-05
5.20781e-05
5.15152e-05
5.17252e-05
5.36432e-05
6.34349e-05
6.25761e-05
6.11492e-05
5.99471e-05
5.98731e-05
6.17966e-05
8.20657e-05
8.10131e-05
7.93669e-05
7.80198e-05
7.78808e-05
7.95887e-05
0.000101958
0.000102211
0.000100366
9.87163e-05
9.81582e-05
9.81209e-05
8.2479e-05
8.31128e-05
8.21852e-05
8.22153e-05
8.41521e-05
8.66532e-05
6.41021e-05
6.37377e-05
6.31831e-05
6.33937e-05
6.52312e-05
6.90462e-05
5.2811e-05
5.26013e-05
5.22725e-05
5.22412e-05
5.30132e-05
5.52883e-05
4.89282e-05
4.87876e-05
4.86406e-05
4.86304e-05
4.92607e-05
5.12964e-05
4.63404e-05
4.62238e-05
4.61274e-05
4.62969e-05
4.71726e-05
4.91107e-05
4.39615e-05
4.39131e-05
4.39388e-05
4.42724e-05
4.52727e-05
4.70745e-05
4.22257e-05
4.22645e-05
4.24104e-05
4.28743e-05
4.39631e-05
4.57286e-05
4.16804e-05
4.17508e-05
4.19395e-05
4.24497e-05
4.35728e-05
4.5344e-05
4.25576e-05
4.25859e-05
4.27116e-05
4.31479e-05
4.42149e-05
4.59808e-05
4.4525e-05
4.44593e-05
4.4452e-05
4.4738e-05
4.57043e-05
4.75234e-05
4.6949e-05
4.68107e-05
4.67046e-05
4.68481e-05
4.76959e-05
4.96581e-05
4.94519e-05
4.92971e-05
4.91489e-05
4.91933e-05
4.98242e-05
5.187e-05
5.39353e-05
5.37281e-05
5.33953e-05
5.33711e-05
5.41815e-05
5.65901e-05
6.67193e-05
6.63607e-05
6.58614e-05
6.61694e-05
6.80473e-05
7.17538e-05
8.57938e-05
8.65144e-05
8.56613e-05
8.57473e-05
8.76258e-05
8.99833e-05
6.8712e-05
6.93297e-05
6.89665e-05
6.97893e-05
7.26515e-05
7.60769e-05
5.51136e-05
5.50717e-05
5.49741e-05
5.55355e-05
5.75957e-05
6.1507e-05
4.91885e-05
4.91292e-05
4.91354e-05
4.94428e-05
5.04244e-05
5.26801e-05
4.62748e-05
4.62246e-05
4.62578e-05
4.65839e-05
4.75545e-05
4.95745e-05
4.36065e-05
4.36088e-05
4.37356e-05
4.42099e-05
4.53462e-05
4.72566e-05
4.15295e-05
4.16163e-05
4.18721e-05
4.24785e-05
4.36729e-05
4.54434e-05
4.01516e-05
4.03083e-05
4.06595e-05
4.13582e-05
4.25976e-05
4.43226e-05
3.97531e-05
3.99338e-05
4.03171e-05
4.10467e-05
4.23039e-05
4.40262e-05
4.0446e-05
4.05939e-05
4.09299e-05
4.161e-05
4.28376e-05
4.4568e-05
4.20347e-05
4.21093e-05
4.23424e-05
4.29181e-05
4.40948e-05
4.58873e-05
4.42273e-05
4.42164e-05
4.4322e-05
4.47628e-05
4.58796e-05
4.78314e-05
4.6909e-05
4.68348e-05
4.68365e-05
4.71348e-05
4.80749e-05
5.01378e-05
4.97918e-05
4.97273e-05
4.97408e-05
5.00851e-05
5.11306e-05
5.34908e-05
5.65803e-05
5.65557e-05
5.65628e-05
5.74068e-05
5.97552e-05
6.39347e-05
7.15619e-05
7.23211e-05
7.20723e-05
7.30643e-05
7.60559e-05
7.9587e-05
5.90905e-05
5.94319e-05
5.93224e-05
6.00729e-05
6.23743e-05
6.54989e-05
5.11507e-05
5.11371e-05
5.11858e-05
5.16502e-05
5.29656e-05
5.56732e-05
4.68086e-05
4.68293e-05
4.69766e-05
4.74455e-05
4.85221e-05
5.06421e-05
4.36444e-05
4.37169e-05
4.39577e-05
4.45635e-05
4.57838e-05
4.77265e-05
4.11261e-05
4.1257e-05
4.15994e-05
4.23167e-05
4.3595e-05
4.53803e-05
3.93882e-05
3.95835e-05
4.00194e-05
4.08203e-05
4.21138e-05
4.37872e-05
3.83466e-05
3.85905e-05
3.90891e-05
3.99401e-05
4.12446e-05
4.28779e-05
3.80776e-05
3.83377e-05
3.88563e-05
3.97232e-05
4.10333e-05
4.26619e-05
3.86054e-05
3.88427e-05
3.93311e-05
4.01717e-05
4.14724e-05
4.31131e-05
3.98471e-05
4.00314e-05
4.04505e-05
4.12344e-05
4.25246e-05
4.42208e-05
4.16984e-05
4.18159e-05
4.21415e-05
4.2844e-05
4.41245e-05
4.5954e-05
4.42874e-05
4.43458e-05
4.45676e-05
4.51617e-05
4.63669e-05
4.83439e-05
4.74475e-05
4.74506e-05
4.7583e-05
4.80411e-05
4.91422e-05
5.134e-05
5.19558e-05
5.1955e-05
5.2025e-05
5.25876e-05
5.41841e-05
5.74524e-05
6.09678e-05
6.14097e-05
6.13451e-05
6.23227e-05
6.51519e-05
6.87465e-05
5.41216e-05
5.42596e-05
5.42338e-05
5.4572e-05
5.57178e-05
5.78292e-05
4.88298e-05
4.88341e-05
4.89903e-05
4.9469e-05
5.04729e-05
5.25388e-05
4.45005e-05
4.46276e-05
4.49438e-05
4.5612e-05
4.68015e-05
4.86962e-05
4.12568e-05
4.14293e-05
4.18422e-05
4.26438e-05
4.39658e-05
4.57324e-05
3.9009e-05
3.92337e-05
3.9728e-05
4.05998e-05
4.19278e-05
4.35535e-05
3.75929e-05
3.78628e-05
3.84175e-05
3.933e-05
4.06453e-05
4.21915e-05
3.68425e-05
3.71425e-05
3.77314e-05
3.86614e-05
3.99668e-05
4.14837e-05
3.6679e-05
3.69884e-05
3.75873e-05
3.85223e-05
3.98263e-05
4.13397e-05
3.70706e-05
3.73671e-05
3.79513e-05
3.88779e-05
4.01847e-05
4.17088e-05
3.80058e-05
3.82697e-05
3.88165e-05
3.9724e-05
4.10449e-05
4.26114e-05
3.9543e-05
3.97595e-05
4.02438e-05
4.11107e-05
4.24507e-05
4.41161e-05
4.18676e-05
4.20304e-05
4.24308e-05
4.32287e-05
4.45618e-05
4.63813e-05
4.51295e-05
4.52481e-05
4.55453e-05
4.61863e-05
4.73719e-05
4.93421e-05
4.94446e-05
4.94468e-05
4.95765e-05
5.00374e-05
5.11636e-05
5.34765e-05
5.48967e-05
5.50587e-05
5.50105e-05
5.55445e-05
5.73419e-05
5.99577e-05
5.17513e-05
5.18943e-05
5.19623e-05
5.22785e-05
5.2971e-05
5.41406e-05
4.65286e-05
4.66005e-05
4.68643e-05
4.7467e-05
4.85765e-05
5.0466e-05
4.22912e-05
4.24854e-05
4.29136e-05
4.37135e-05
4.49986e-05
4.67351e-05
3.92189e-05
3.94636e-05
3.99891e-05
4.08922e-05
4.22147e-05
4.37786e-05
3.72435e-05
3.75301e-05
3.81178e-05
3.90644e-05
4.03716e-05
4.18293e-05
3.61271e-05
3.6441e-05
3.70602e-05
3.80163e-05
3.92979e-05
4.07069e-05
3.56194e-05
3.59485e-05
3.658e-05
3.75321e-05
3.8795e-05
4.01877e-05
3.55417e-05
3.58752e-05
3.65096e-05
3.746e-05
3.87181e-05
4.01093e-05
3.58265e-05
3.61545e-05
3.67854e-05
3.77391e-05
3.90063e-05
4.04049e-05
3.65054e-05
3.68174e-05
3.74358e-05
3.83957e-05
3.9688e-05
4.1113e-05
3.77419e-05
3.80256e-05
3.86118e-05
3.95639e-05
4.0889e-05
4.2377e-05
3.9802e-05
4.00421e-05
4.05632e-05
4.14722e-05
4.28153e-05
4.44227e-05
4.29311e-05
4.31207e-05
4.35417e-05
4.43398e-05
4.5624e-05
4.73909e-05
4.7183e-05
4.72484e-05
4.74991e-05
4.80947e-05
4.92114e-05
5.10884e-05
5.23199e-05
5.24564e-05
5.24996e-05
5.28439e-05
5.36693e-05
5.49745e-05
4.96443e-05
4.98472e-05
5.00085e-05
5.04809e-05
5.12501e-05
5.20797e-05
4.4424e-05
4.45453e-05
4.48858e-05
4.55706e-05
4.66778e-05
4.8277e-05
4.03403e-05
4.05787e-05
4.10741e-05
4.19217e-05
4.31671e-05
4.46773e-05
3.74871e-05
3.77742e-05
3.83589e-05
3.92928e-05
4.05542e-05
4.1921e-05
3.57925e-05
3.61101e-05
3.67375e-05
3.76948e-05
3.89357e-05
4.02344e-05
3.4947e-05
3.52789e-05
3.59183e-05
3.68675e-05
3.80812e-05
3.93569e-05
3.46386e-05
3.4976e-05
3.56141e-05
3.65485e-05
3.77427e-05
3.90133e-05
3.4631e-05
3.49697e-05
3.56067e-05
3.65362e-05
3.7725e-05
3.89959e-05
3.48341e-05
3.51722e-05
3.58126e-05
3.67515e-05
3.79513e-05
3.92263e-05
3.53055e-05
3.56387e-05
3.62824e-05
3.72405e-05
3.84667e-05
3.97534e-05
3.6268e-05
3.65867e-05
3.7219e-05
3.81882e-05
3.94482e-05
4.0768e-05
3.80464e-05
3.83332e-05
3.89199e-05
3.98648e-05
4.11489e-05
4.2549e-05
4.09621e-05
4.11984e-05
4.16906e-05
4.25408e-05
4.38043e-05
4.53594e-05
4.51104e-05
4.52277e-05
4.55608e-05
4.62272e-05
4.73291e-05
4.8971e-05
5.03842e-05
5.05858e-05
5.07355e-05
5.11679e-05
5.18283e-05
5.26734e-05
4.74102e-05
4.7638e-05
4.78522e-05
4.83581e-05
4.91474e-05
4.99292e-05
4.24295e-05
4.25799e-05
4.29586e-05
4.36588e-05
4.47259e-05
4.61095e-05
3.86012e-05
3.88605e-05
3.93821e-05
4.02279e-05
4.13987e-05
4.27065e-05
3.60147e-05
3.63179e-05
3.69165e-05
3.78291e-05
3.89976e-05
4.01904e-05
3.45996e-05
3.49247e-05
3.55523e-05
3.64766e-05
3.76264e-05
3.8782e-05
3.39965e-05
3.4328e-05
3.49565e-05
3.58662e-05
3.69949e-05
3.81478e-05
3.38555e-05
3.41868e-05
3.48074e-05
3.56995e-05
3.68123e-05
3.79689e-05
3.39073e-05
3.42382e-05
3.48561e-05
3.57426e-05
3.68512e-05
3.80098e-05
3.40484e-05
3.43815e-05
3.50062e-05
3.59041e-05
3.70228e-05
3.81824e-05
3.43499e-05
3.46847e-05
3.53207e-05
3.62418e-05
3.73824e-05
3.85419e-05
3.50671e-05
3.53961e-05
3.60326e-05
3.69718e-05
3.81391e-05
3.93068e-05
3.65633e-05
3.68692e-05
3.74744e-05
3.84013e-05
3.95897e-05
4.08023e-05
3.92159e-05
3.94756e-05
3.99986e-05
4.0851e-05
4.20365e-05
4.33738e-05
4.31152e-05
4.32615e-05
4.36353e-05
4.43328e-05
4.54085e-05
4.68338e-05
4.81648e-05
4.83897e-05
4.85932e-05
4.90922e-05
4.98722e-05
5.06898e-05
4.5287e-05
4.55237e-05
4.57668e-05
4.62822e-05
4.70285e-05
4.76616e-05
4.05874e-05
4.07516e-05
4.11421e-05
4.18244e-05
4.2804e-05
4.39728e-05
3.70421e-05
3.73044e-05
3.78206e-05
3.86258e-05
3.96923e-05
4.08215e-05
3.47426e-05
3.50432e-05
3.56247e-05
3.64832e-05
3.75441e-05
3.85891e-05
3.36031e-05
3.39198e-05
3.45218e-05
3.53882e-05
3.64387e-05
3.74711e-05
3.32234e-05
3.35422e-05
3.41408e-05
3.49932e-05
3.60319e-05
3.70762e-05
3.32288e-05
3.35451e-05
3.41342e-05
3.49709e-05
3.59997e-05
3.70541e-05
3.33335e-05
3.3649e-05
3.42352e-05
3.50673e-05
3.60937e-05
3.71515e-05
3.34271e-05
3.37459e-05
3.43399e-05
3.5183e-05
3.62173e-05
3.72735e-05
3.35857e-05
3.3909e-05
3.45165e-05
3.5381e-05
3.64303e-05
3.74777e-05
3.40789e-05
3.4401e-05
3.50138e-05
3.58957e-05
3.69606e-05
3.79975e-05
3.52941e-05
3.55991e-05
3.61894e-05
3.70626e-05
3.81395e-05
3.9193e-05
3.76583e-05
3.79225e-05
3.84421e-05
3.92548e-05
4.03341e-05
4.14808e-05
4.12884e-05
4.14499e-05
4.18362e-05
4.25147e-05
4.34984e-05
4.46964e-05
4.60792e-05
4.63161e-05
4.65503e-05
4.70547e-05
4.77885e-05
4.84415e-05
4.32281e-05
4.34577e-05
4.3701e-05
4.41885e-05
4.48691e-05
4.53838e-05
3.88297e-05
3.89936e-05
3.93716e-05
4.00073e-05
4.08873e-05
4.18855e-05
3.56031e-05
3.58555e-05
3.63449e-05
3.7088e-05
3.80452e-05
3.90284e-05
3.36126e-05
3.38988e-05
3.44446e-05
3.52333e-05
3.61871e-05
3.71104e-05
3.27503e-05
3.30492e-05
3.36115e-05
3.44089e-05
3.53625e-05
3.62914e-05
3.25834e-05
3.28831e-05
3.3442e-05
3.42302e-05
3.51819e-05
3.6133e-05
3.27234e-05
3.30203e-05
3.35711e-05
3.43482e-05
3.52966e-05
3.62624e-05
3.2878e-05
3.31743e-05
3.3723e-05
3.44972e-05
3.54453e-05
3.64159e-05
3.29342e-05
3.32338e-05
3.37898e-05
3.45733e-05
3.55269e-05
3.6494e-05
3.29674e-05
3.32722e-05
3.38405e-05
3.46405e-05
3.56015e-05
3.65535e-05
3.32502e-05
3.35552e-05
3.4129e-05
3.49412e-05
3.5906e-05
3.6834e-05
3.41827e-05
3.44741e-05
3.50296e-05
3.58318e-05
3.67967e-05
3.7719e-05
3.62317e-05
3.64867e-05
3.69805e-05
3.77311e-05
3.86971e-05
3.9685e-05
3.95459e-05
3.97073e-05
4.00823e-05
4.07177e-05
4.16031e-05
4.26163e-05
4.40484e-05
4.4279e-05
4.45154e-05
4.49989e-05
4.56778e-05
4.61994e-05
4.12157e-05
4.14288e-05
4.16553e-05
4.20955e-05
4.2694e-05
4.31038e-05
3.71243e-05
3.72791e-05
3.763e-05
3.82042e-05
3.89797e-05
3.98367e-05
3.42409e-05
3.44757e-05
3.49264e-05
3.55981e-05
3.64494e-05
3.73138e-05
3.25786e-05
3.28442e-05
3.33455e-05
3.40598e-05
3.49145e-05
3.57396e-05
3.19996e-05
3.22763e-05
3.27933e-05
3.35203e-05
3.43855e-05
3.52296e-05
3.20422e-05
3.23202e-05
3.28362e-05
3.35607e-05
3.44333e-05
3.53066e-05
3.23112e-05
3.25873e-05
3.30982e-05
3.38169e-05
3.46924e-05
3.55838e-05
3.25152e-05
3.27911e-05
3.33011e-05
3.40191e-05
3.48964e-05
3.57936e-05
3.25408e-05
3.28197e-05
3.33358e-05
3.40609e-05
3.49414e-05
3.58341e-05
3.24596e-05
3.27427e-05
3.32683e-05
3.40041e-05
3.48852e-05
3.57587e-05
3.25386e-05
3.28217e-05
3.33501e-05
3.4091e-05
3.49651e-05
3.58053e-05
3.3182e-05
3.3453e-05
3.3964e-05
3.46905e-05
3.55523e-05
3.63698e-05
3.48923e-05
3.513e-05
3.55851e-05
3.6263e-05
3.71186e-05
3.79781e-05
3.78614e-05
3.80138e-05
3.83616e-05
3.89347e-05
3.97119e-05
4.05727e-05
4.20701e-05
4.22855e-05
4.25054e-05
4.29417e-05
4.35377e-05
4.39435e-05
3.92149e-05
3.94049e-05
3.96034e-05
3.99863e-05
4.05004e-05
4.0826e-05
3.54375e-05
3.55779e-05
3.58934e-05
3.64008e-05
3.70779e-05
3.78213e-05
3.29218e-05
3.31353e-05
3.35425e-05
3.41424e-05
3.48985e-05
3.56679e-05
3.16079e-05
3.18505e-05
3.23054e-05
3.29485e-05
3.37164e-05
3.44635e-05
3.13213e-05
3.15749e-05
3.20465e-05
3.27077e-05
3.3496e-05
3.42721e-05
3.15742e-05
3.18303e-05
3.23047e-05
3.29701e-05
3.37739e-05
3.45839e-05
3.19706e-05
3.22262e-05
3.26989e-05
3.33638e-05
3.41758e-05
3.50062e-05
3.22245e-05
3.24806e-05
3.29537e-05
3.36199e-05
3.44356e-05
3.5273e-05
3.22243e-05
3.24829e-05
3.29608e-05
3.36321e-05
3.44493e-05
3.52817e-05
3.20356e-05
3.2297e-05
3.27809e-05
3.34575e-05
3.42698e-05
3.50807e-05
3.19139e-05
3.21739e-05
3.26571e-05
3.33315e-05
3.41277e-05
3.48994e-05
3.22592e-05
3.25074e-05
3.29719e-05
3.3626e-05
3.43984e-05
3.51344e-05
3.36048e-05
3.38213e-05
3.42328e-05
3.48376e-05
3.55942e-05
3.63524e-05
3.61954e-05
3.6333e-05
3.6645e-05
3.71501e-05
3.78252e-05
3.85643e-05
4.01019e-05
4.02951e-05
4.04869e-05
4.08657e-05
4.13758e-05
4.16884e-05
3.7205e-05
3.73687e-05
3.75351e-05
3.78588e-05
3.82924e-05
3.85498e-05
3.37525e-05
3.38764e-05
3.41543e-05
3.45966e-05
3.51852e-05
3.58353e-05
3.16269e-05
3.18183e-05
3.21822e-05
3.27156e-05
3.33895e-05
3.40832e-05
3.068e-05
3.09001e-05
3.13109e-05
3.189e-05
3.25849e-05
3.32712e-05
3.06952e-05
3.09268e-05
3.13566e-05
3.19592e-05
3.26832e-05
3.34062e-05
3.11609e-05
3.13967e-05
3.1833e-05
3.24461e-05
3.31919e-05
3.39517e-05
3.16845e-05
3.19214e-05
3.23593e-05
3.29766e-05
3.37347e-05
3.45166e-05
3.19895e-05
3.22275e-05
3.26671e-05
3.32875e-05
3.40511e-05
3.48409e-05
3.19673e-05
3.22072e-05
3.26505e-05
3.32744e-05
3.40384e-05
3.48237e-05
3.16761e-05
3.19174e-05
3.23634e-05
3.29881e-05
3.37434e-05
3.45064e-05
3.13556e-05
3.15939e-05
3.20354e-05
3.26517e-05
3.33842e-05
3.41045e-05
3.13941e-05
3.16201e-05
3.20409e-05
3.26308e-05
3.33296e-05
3.40042e-05
3.23506e-05
3.25453e-05
3.29136e-05
3.34511e-05
3.41232e-05
3.48023e-05
3.45287e-05
3.46498e-05
3.49235e-05
3.53617e-05
3.59444e-05
3.65848e-05
3.81184e-05
3.82863e-05
3.84454e-05
3.87639e-05
3.91907e-05
3.94283e-05
3.51756e-05
3.53117e-05
3.5446e-05
3.57137e-05
3.60749e-05
3.62787e-05
3.20609e-05
3.21684e-05
3.24101e-05
3.27931e-05
3.33055e-05
3.3879e-05
3.03467e-05
3.05172e-05
3.08412e-05
3.13162e-05
3.19216e-05
3.25556e-05
2.97834e-05
2.99828e-05
3.03544e-05
3.08785e-05
3.15141e-05
3.21542e-05
3.01086e-05
3.03204e-05
3.07133e-05
3.12662e-05
3.19378e-05
3.26205e-05
3.0789e-05
3.10068e-05
3.14097e-05
3.19781e-05
3.26763e-05
3.33972e-05
3.14402e-05
3.16604e-05
3.20678e-05
3.26442e-05
3.33578e-05
3.41016e-05
3.17972e-05
3.20191e-05
3.24294e-05
3.30105e-05
3.3731e-05
3.44838e-05
3.17561e-05
3.19795e-05
3.23925e-05
3.29761e-05
3.36967e-05
3.44459e-05
3.13669e-05
3.15904e-05
3.20036e-05
3.25847e-05
3.32944e-05
3.40223e-05
3.08507e-05
3.10698e-05
3.14753e-05
3.20431e-05
3.27258e-05
3.34099e-05
3.05766e-05
3.07825e-05
3.1165e-05
3.17015e-05
3.23427e-05
3.29738e-05
3.11208e-05
3.12952e-05
3.16247e-05
3.21047e-05
3.27087e-05
3.33276e-05
3.28491e-05
3.29544e-05
3.31921e-05
3.35705e-05
3.40745e-05
3.46342e-05
3.61014e-05
3.62439e-05
3.63715e-05
3.6634e-05
3.69864e-05
3.71638e-05
3.31241e-05
3.32331e-05
3.33381e-05
3.35558e-05
3.38543e-05
3.40176e-05
3.03609e-05
3.04538e-05
3.06629e-05
3.09944e-05
3.14429e-05
3.1954e-05
2.90781e-05
2.92299e-05
2.95192e-05
2.99448e-05
3.04949e-05
3.10828e-05
2.89125e-05
2.90939e-05
2.94319e-05
2.99105e-05
3.04992e-05
3.11055e-05
2.95532e-05
2.9748e-05
3.01095e-05
3.06212e-05
3.12514e-05
3.19044e-05
3.04492e-05
3.06514e-05
3.10258e-05
3.1557e-05
3.22169e-05
3.29084e-05
3.12273e-05
3.14333e-05
3.18145e-05
3.23567e-05
3.30341e-05
3.37486e-05
3.16369e-05
3.18451e-05
3.22304e-05
3.27785e-05
3.34641e-05
3.41884e-05
3.15794e-05
3.17887e-05
3.21762e-05
3.27263e-05
3.34123e-05
3.41347e-05
3.1097e-05
3.13055e-05
3.16913e-05
3.22368e-05
3.29112e-05
3.36146e-05
3.03907e-05
3.05935e-05
3.09692e-05
3.14983e-05
3.21438e-05
3.28049e-05
2.9803e-05
2.99919e-05
3.03429e-05
3.08371e-05
3.14361e-05
3.20393e-05
2.99167e-05
3.00738e-05
3.0371e-05
3.08051e-05
3.13573e-05
3.19325e-05
3.11534e-05
3.12455e-05
3.14526e-05
3.17815e-05
3.22219e-05
3.27146e-05
3.40366e-05
3.41547e-05
3.4255e-05
3.44702e-05
3.47609e-05
3.48915e-05
3.10529e-05
3.11363e-05
3.12162e-05
3.13911e-05
3.1637e-05
3.17714e-05
2.86552e-05
2.87357e-05
2.89173e-05
2.92057e-05
2.96015e-05
3.00624e-05
2.78228e-05
2.79586e-05
2.82186e-05
2.8604e-05
2.91103e-05
2.96635e-05
2.80658e-05
2.82321e-05
2.85422e-05
2.89842e-05
2.95368e-05
3.01193e-05
2.90244e-05
2.9205e-05
2.95405e-05
3.00189e-05
3.06171e-05
3.12489e-05
3.01346e-05
3.03237e-05
3.06745e-05
3.11753e-05
3.18049e-05
3.24745e-05
3.10383e-05
3.12322e-05
3.15916e-05
3.21055e-05
3.27539e-05
3.3446e-05
3.15002e-05
3.16968e-05
3.20612e-05
3.25822e-05
3.32398e-05
3.39425e-05
3.14281e-05
3.16258e-05
3.19921e-05
3.25151e-05
3.31739e-05
3.38767e-05
3.08573e-05
3.10535e-05
3.1417e-05
3.19343e-05
3.25822e-05
3.32698e-05
2.99692e-05
3.01589e-05
3.05109e-05
3.10102e-05
3.16295e-05
3.22789e-05
2.90736e-05
2.92489e-05
2.95751e-05
3.00376e-05
3.06083e-05
3.11987e-05
2.87431e-05
2.8886e-05
2.91578e-05
2.95577e-05
3.00749e-05
3.06235e-05
2.94381e-05
2.95209e-05
2.97042e-05
2.99954e-05
3.03879e-05
3.08239e-05
3.19195e-05
3.2021e-05
3.21023e-05
3.22809e-05
3.25208e-05
3.26061e-05
2.89662e-05
2.90258e-05
2.90856e-05
2.92252e-05
2.94278e-05
2.95438e-05
2.69471e-05
2.7018e-05
2.71773e-05
2.74304e-05
2.77838e-05
2.8205e-05
2.6583e-05
2.67057e-05
2.69419e-05
2.72953e-05
2.77679e-05
2.82961e-05
2.72428e-05
2.73968e-05
2.76843e-05
2.80974e-05
2.86231e-05
2.91903e-05
2.85191e-05
2.86879e-05
2.90023e-05
2.94542e-05
3.00281e-05
3.0646e-05
2.98404e-05
3.00187e-05
3.035e-05
3.08262e-05
3.14322e-05
3.2086e-05
3.08671e-05
3.1051e-05
3.13923e-05
3.18832e-05
3.25085e-05
3.31838e-05
3.13802e-05
3.15673e-05
3.19145e-05
3.24135e-05
3.30489e-05
3.37352e-05
3.12944e-05
3.14827e-05
3.1832e-05
3.23333e-05
3.2971e-05
3.36595e-05
3.06395e-05
3.0826e-05
3.1172e-05
3.16676e-05
3.22961e-05
3.29737e-05
2.95803e-05
2.97599e-05
3.00937e-05
3.0571e-05
3.11733e-05
3.18195e-05
2.83904e-05
2.85553e-05
2.88628e-05
2.93029e-05
2.98579e-05
3.04488e-05
2.76201e-05
2.77532e-05
2.80071e-05
2.83833e-05
2.88802e-05
2.94183e-05
2.77247e-05
2.78031e-05
2.79706e-05
2.82359e-05
2.85951e-05
2.8982e-05
2.97323e-05
2.98179e-05
2.98857e-05
3.00393e-05
3.02433e-05
3.02937e-05
2.68694e-05
2.69076e-05
2.69527e-05
2.70641e-05
2.72317e-05
2.73383e-05
2.52456e-05
2.53098e-05
2.5452e-05
2.56774e-05
2.59972e-05
2.63866e-05
2.53671e-05
2.54793e-05
2.56968e-05
2.60255e-05
2.6473e-05
2.69829e-05
2.64481e-05
2.65922e-05
2.68619e-05
2.72527e-05
2.77589e-05
2.83165e-05
2.80377e-05
2.81971e-05
2.84946e-05
2.89257e-05
2.94815e-05
3.009e-05
2.95643e-05
2.97338e-05
3.00493e-05
3.05058e-05
3.10935e-05
3.17356e-05
3.07097e-05
3.08854e-05
3.12121e-05
3.16843e-05
3.22914e-05
3.29535e-05
3.12716e-05
3.1451e-05
3.17844e-05
3.22657e-05
3.28836e-05
3.35571e-05
3.11715e-05
3.13524e-05
3.16882e-05
3.21727e-05
3.27941e-05
3.34719e-05
3.04347e-05
3.06138e-05
3.09464e-05
3.14258e-05
3.20404e-05
3.27124e-05
2.9215e-05
2.93873e-05
2.97077e-05
3.01694e-05
3.07617e-05
3.14123e-05
2.77527e-05
2.79101e-05
2.82045e-05
2.86293e-05
2.91789e-05
2.97852e-05
2.65574e-05
2.66827e-05
2.69243e-05
2.72846e-05
2.77754e-05
2.83301e-05
2.59984e-05
2.60742e-05
2.62296e-05
2.64767e-05
2.68169e-05
2.71708e-05
2.75216e-05
2.76292e-05
2.76955e-05
2.78307e-05
2.79957e-05
2.79705e-05
2.47641e-05
2.47822e-05
2.48177e-05
2.49073e-05
2.5047e-05
2.51519e-05
2.3548e-05
2.36081e-05
2.37383e-05
2.39425e-05
2.42358e-05
2.46008e-05
2.41738e-05
2.42776e-05
2.44808e-05
2.47909e-05
2.52202e-05
2.57197e-05
2.56794e-05
2.58155e-05