/*--------------------------------*- C++ -*----------------------------------*\
| =========                 |                                                 |
| \\      /  F ield         | OpenFOAM: The Open Source CFD Toolbox           |
|  \\    /   O peration     | Version:  v2012                                 |
|   \\  /    A nd           | Website:  www.openfoam.com                      |
|    \\/     M anipulation  |                                                 |
\*---------------------------------------------------------------------------*/
FoamFile
{
    version     2.0;
    format      ascii;
    class       volScalarField;
    location    "1";
    object      sigmaEq;
}
// * * * * * * * * * * * * * * * * * * * * * * * * * * * * * * * * * * * * * //

dimensions      [1 -1 -2 0 0 0 0];


internalField   nonuniform List<scalar> 
26460
(
4.5e+06
4.5e+06
4.5e+06
4.5e+06
4.5e+06
4.5e+06
4.5e+06
4.5e+06
4.5e+06
4.5e+06
4.5e+06
4.5e+06
4.5e+06
4.5e+06
4.5e+06
4.5e+06
4.5e+06
4.5e+06
4.5e+06
4.5e+06
4.5e+06
4.5e+06
4.5e+06
4.5e+06
3.73034e+06
3.78601e+06
4.00237e+06
4.47544e+06
4.5e+06
4.5e+06
3.03785e+06
3.04839e+06
3.1225e+06
3.24228e+06
3.4143e+06
3.73525e+06
2.41826e+06
2.40241e+06
2.40065e+06
2.36537e+06
2.24563e+06
2.05516e+06
2.22292e+06
2.19641e+06
2.16724e+06
2.07369e+06
1.81148e+06
1.24767e+06
2.46193e+06
2.44854e+06
2.45284e+06
2.4296e+06
2.33833e+06
2.20972e+06
3.1114e+06
3.12858e+06
3.21719e+06
3.36133e+06
3.57273e+06
3.94609e+06
3.78523e+06
3.84744e+06
4.08705e+06
4.5e+06
4.5e+06
4.5e+06
4.5e+06
4.5e+06
4.5e+06
4.5e+06
4.5e+06
4.5e+06
4.5e+06
4.5e+06
4.5e+06
4.5e+06
4.5e+06
4.5e+06
4.5e+06
4.5e+06
4.5e+06
4.5e+06
4.5e+06
4.5e+06
4.5e+06
4.5e+06
4.5e+06
4.5e+06
4.5e+06
4.5e+06
4.5e+06
4.5e+06
4.5e+06
4.5e+06
4.5e+06
4.5e+06
4.5e+06
4.5e+06
4.5e+06
4.5e+06
4.5e+06
4.5e+06
4.5e+06
4.5e+06
4.5e+06
4.5e+06
4.5e+06
4.5e+06
4.5e+06
4.5e+06
4.5e+06
4.5e+06
4.5e+06
4.5e+06
4.43786e+06
4.5e+06
4.5e+06
4.5e+06
4.5e+06
4.13497e+06
3.45219e+06
3.47102e+06
3.52574e+06
3.55938e+06
3.42842e+06
2.9623e+06
2.77796e+06
2.77345e+06
2.75499e+06
2.68858e+06
2.50011e+06
2.07582e+06
2.6061e+06
2.59337e+06
2.55272e+06
2.44003e+06
2.16201e+06
1.63153e+06
2.81936e+06
2.81629e+06
2.80237e+06
2.74457e+06
2.57266e+06
2.16684e+06
3.5399e+06
3.567e+06
3.63597e+06
3.68356e+06
3.55803e+06
3.07605e+06
4.5e+06
4.5e+06
4.5e+06
4.5e+06
4.5e+06
4.25663e+06
4.5e+06
4.5e+06
4.5e+06
4.5e+06
4.5e+06
4.5e+06
4.5e+06
4.5e+06
4.5e+06
4.5e+06
4.5e+06
4.5e+06
4.5e+06
4.5e+06
4.5e+06
4.5e+06
4.5e+06
4.5e+06
4.5e+06
4.5e+06
4.5e+06
4.5e+06
4.5e+06
4.5e+06
4.5e+06
4.5e+06
4.5e+06
4.5e+06
4.5e+06
4.5e+06
4.5e+06
4.5e+06
4.5e+06
4.5e+06
4.5e+06
4.5e+06
4.5e+06
4.5e+06
4.5e+06
4.5e+06
4.5e+06
4.5e+06
4.5e+06
4.5e+06
4.5e+06
4.5e+06
4.5e+06
4.5e+06
4.5e+06
4.5e+06
4.5e+06
4.5e+06
4.5e+06
4.30715e+06
3.99534e+06
4.00104e+06
4.01679e+06
3.975e+06
3.75426e+06
3.24539e+06
3.24953e+06
3.23476e+06
3.19984e+06
3.1141e+06
2.92518e+06
2.57069e+06
3.11519e+06
3.09511e+06
3.0416e+06
2.91968e+06
2.67648e+06
2.29279e+06
3.28489e+06
3.2711e+06
3.23977e+06
3.15937e+06
2.97755e+06
2.62505e+06
4.08402e+06
4.09944e+06
4.12837e+06
4.09414e+06
3.86988e+06
3.33586e+06
4.5e+06
4.5e+06
4.5e+06
4.5e+06
4.5e+06
4.41623e+06
4.5e+06
4.5e+06
4.5e+06
4.5e+06
4.5e+06
4.5e+06
4.5e+06
4.5e+06
4.5e+06
4.5e+06
4.5e+06
4.5e+06
4.5e+06
4.5e+06
4.5e+06
4.5e+06
4.5e+06
4.5e+06
4.5e+06
4.5e+06
4.5e+06
4.5e+06
4.5e+06
4.5e+06
4.5e+06
4.5e+06
4.5e+06
4.5e+06
4.5e+06
4.5e+06
4.5e+06
4.5e+06
4.5e+06
4.5e+06
4.5e+06
4.5e+06
4.5e+06
4.5e+06
4.5e+06
4.5e+06
4.5e+06
4.5e+06
4.5e+06
4.5e+06
4.5e+06
4.5e+06
4.5e+06
4.5e+06
4.5e+06
4.5e+06
4.5e+06
4.5e+06
4.5e+06
4.5e+06
4.34717e+06
4.33446e+06
4.2964e+06
4.18885e+06
3.92657e+06
3.47953e+06
3.58972e+06
3.56706e+06
3.51722e+06
3.41748e+06
3.2442e+06
2.99724e+06
3.48131e+06
3.45419e+06
3.38905e+06
3.26406e+06
3.06473e+06
2.82319e+06
3.6253e+06
3.60214e+06
3.55284e+06
3.45439e+06
3.2812e+06
3.02733e+06
4.45413e+06
4.44222e+06
4.40396e+06
4.29743e+06
4.03188e+06
3.56108e+06
4.5e+06
4.5e+06
4.5e+06
4.5e+06
4.5e+06
4.5e+06
4.5e+06
4.5e+06
4.5e+06
4.5e+06
4.5e+06
4.5e+06
4.5e+06
4.5e+06
4.5e+06
4.5e+06
4.5e+06
4.5e+06
4.5e+06
4.5e+06
4.5e+06
4.5e+06
4.5e+06
4.5e+06
4.5e+06
4.5e+06
4.5e+06
4.5e+06
4.5e+06
4.5e+06
4.5e+06
4.5e+06
4.5e+06
4.5e+06
4.5e+06
4.5e+06
4.5e+06
4.5e+06
4.5e+06
4.5e+06
4.5e+06
4.5e+06
4.5e+06
4.5e+06
4.5e+06
4.5e+06
4.5e+06
4.5e+06
4.5e+06
4.5e+06
4.5e+06
4.5e+06
4.5e+06
4.5e+06
4.5e+06
4.5e+06
4.5e+06
4.5e+06
4.5e+06
4.5e+06
4.48812e+06
4.45458e+06
4.37962e+06
4.24223e+06
4.01316e+06
3.72926e+06
3.84438e+06
3.81372e+06
3.75057e+06
3.64578e+06
3.5079e+06
3.376e+06
3.74533e+06
3.71103e+06
3.63683e+06
3.51719e+06
3.37022e+06
3.25258e+06
3.88544e+06
3.85099e+06
3.78392e+06
3.67723e+06
3.53618e+06
3.39465e+06
4.5e+06
4.5e+06
4.48389e+06
4.33855e+06
4.10312e+06
3.79651e+06
4.5e+06
4.5e+06
4.5e+06
4.5e+06
4.5e+06
4.5e+06
4.5e+06
4.5e+06
4.5e+06
4.5e+06
4.5e+06
4.5e+06
4.5e+06
4.5e+06
4.5e+06
4.5e+06
4.5e+06
4.5e+06
4.5e+06
4.5e+06
4.5e+06
4.5e+06
4.5e+06
4.5e+06
4.5e+06
4.5e+06
4.5e+06
4.5e+06
4.5e+06
4.5e+06
4.5e+06
4.5e+06
4.5e+06
4.5e+06
4.5e+06
4.5e+06
4.5e+06
4.5e+06
4.5e+06
4.5e+06
4.5e+06
4.5e+06
4.5e+06
4.5e+06
4.5e+06
4.5e+06
4.5e+06
4.5e+06
4.5e+06
4.5e+06
4.5e+06
4.5e+06
4.5e+06
4.5e+06
4.5e+06
4.5e+06
4.5e+06
4.5e+06
4.5e+06
4.5e+06
4.46447e+06
4.4171e+06
4.3243e+06
4.18633e+06
4.02383e+06
3.90215e+06
3.98082e+06
3.94578e+06
3.8768e+06
3.77808e+06
3.68171e+06
3.64443e+06
3.88237e+06
3.84449e+06
3.76931e+06
3.66552e+06
3.57229e+06
3.55215e+06
4.01491e+06
3.97777e+06
3.90708e+06
3.80714e+06
3.70672e+06
3.66033e+06
4.5e+06
4.5e+06
4.41506e+06
4.26839e+06
4.09229e+06
3.9471e+06
4.5e+06
4.5e+06
4.5e+06
4.5e+06
4.5e+06
4.5e+06
4.5e+06
4.5e+06
4.5e+06
4.5e+06
4.5e+06
4.5e+06
4.5e+06
4.5e+06
4.5e+06
4.5e+06
4.5e+06
4.5e+06
4.5e+06
4.5e+06
4.5e+06
4.5e+06
4.5e+06
4.5e+06
4.5e+06
4.5e+06
4.5e+06
4.5e+06
4.5e+06
4.5e+06
4.5e+06
4.5e+06
4.5e+06
4.5e+06
4.5e+06
4.5e+06
4.5e+06
4.5e+06
4.5e+06
4.5e+06
4.5e+06
4.5e+06
4.5e+06
4.5e+06
4.5e+06
4.5e+06
4.5e+06
4.5e+06
4.5e+06
4.5e+06
4.5e+06
4.5e+06
4.5e+06
4.5e+06
4.5e+06
4.5e+06
4.5e+06
4.5e+06
4.46186e+06
4.3894e+06
4.32529e+06
4.27548e+06
4.19135e+06
4.08632e+06
4.00465e+06
4.01044e+06
4.00171e+06
3.96664e+06
3.9008e+06
3.81981e+06
3.76987e+06
3.80719e+06
3.90398e+06
3.86818e+06
3.80202e+06
3.72407e+06
3.68323e+06
3.73508e+06
4.02651e+06
3.99385e+06
3.93044e+06
3.84877e+06
3.79422e+06
3.82436e+06
4.39984e+06
4.34753e+06
4.26019e+06
4.1466e+06
4.04974e+06
4.03822e+06
4.5e+06
4.5e+06
4.5e+06
4.5e+06
4.5e+06
4.46769e+06
4.5e+06
4.5e+06
4.5e+06
4.5e+06
4.5e+06
4.5e+06
4.5e+06
4.5e+06
4.5e+06
4.5e+06
4.5e+06
4.5e+06
4.5e+06
4.5e+06
4.5e+06
4.5e+06
4.5e+06
4.5e+06
4.5e+06
4.5e+06
4.5e+06
4.5e+06
4.5e+06
4.5e+06
4.5e+06
4.5e+06
4.5e+06
4.5e+06
4.5e+06
4.5e+06
4.5e+06
4.5e+06
4.5e+06
4.5e+06
4.5e+06
4.5e+06
4.5e+06
4.5e+06
4.5e+06
4.5e+06
4.5e+06
4.5e+06
4.5e+06
4.5e+06
4.5e+06
4.5e+06
4.5e+06
4.5e+06
4.5e+06
4.48399e+06
4.38039e+06
4.27371e+06
4.22007e+06
4.29604e+06
4.14037e+06
4.10134e+06
4.0449e+06
3.98634e+06
3.96944e+06
4.04783e+06
3.92031e+06
3.89045e+06
3.83801e+06
3.78509e+06
3.78105e+06
3.87114e+06
3.8316e+06
3.80351e+06
3.75475e+06
3.70859e+06
3.71411e+06
3.81386e+06
3.94822e+06
3.92016e+06
3.86851e+06
3.81326e+06
3.8046e+06
3.88999e+06
4.19455e+06
4.15511e+06
4.09313e+06
4.0269e+06
4.00247e+06
4.07514e+06
4.5e+06
4.5e+06
4.48804e+06
4.35365e+06
4.27876e+06
4.33909e+06
4.5e+06
4.5e+06
4.5e+06
4.5e+06
4.5e+06
4.5e+06
4.5e+06
4.5e+06
4.5e+06
4.5e+06
4.5e+06
4.5e+06
4.5e+06
4.5e+06
4.5e+06
4.5e+06
4.5e+06
4.5e+06
4.5e+06
4.5e+06
4.5e+06
4.5e+06
4.5e+06
4.5e+06
4.5e+06
4.5e+06
4.5e+06
4.5e+06
4.5e+06
4.5e+06
4.5e+06
4.5e+06
4.5e+06
4.5e+06
4.5e+06
4.5e+06
4.5e+06
4.5e+06
4.5e+06
4.5e+06
4.5e+06
4.5e+06
4.5e+06
4.5e+06
4.5e+06
4.40912e+06
4.36198e+06
4.4617e+06
4.1747e+06
4.13874e+06
4.09284e+06
4.05944e+06
4.07478e+06
4.19975e+06
3.96203e+06
3.93567e+06
3.89923e+06
3.87141e+06
3.8949e+06
4.01104e+06
3.77116e+06
3.751e+06
3.71924e+06
3.69935e+06
3.73563e+06
3.85833e+06
3.6977e+06
3.68063e+06
3.6537e+06
3.6405e+06
3.68393e+06
3.81164e+06
3.80168e+06
3.78146e+06
3.74852e+06
3.72561e+06
3.75796e+06
3.8782e+06
4.00738e+06
3.98021e+06
3.94162e+06
3.9099e+06
3.92926e+06
4.04492e+06
4.25461e+06
4.21125e+06
4.14864e+06
4.09957e+06
4.10897e+06
4.23978e+06
4.5e+06
4.5e+06
4.5e+06
4.5e+06
4.46036e+06
4.5e+06
4.5e+06
4.5e+06
4.5e+06
4.5e+06
4.5e+06
4.5e+06
4.5e+06
4.5e+06
4.5e+06
4.5e+06
4.5e+06
4.5e+06
4.5e+06
4.5e+06
4.5e+06
4.5e+06
4.5e+06
4.5e+06
4.5e+06
4.5e+06
4.5e+06
4.5e+06
4.5e+06
4.5e+06
4.5e+06
4.5e+06
4.5e+06
4.5e+06
4.5e+06
4.5e+06
4.5e+06
4.5e+06
4.5e+06
4.5e+06
4.5e+06
4.5e+06
4.20869e+06
4.17474e+06
4.12587e+06
4.09453e+06
4.12135e+06
4.27729e+06
3.96536e+06
3.94477e+06
3.91666e+06
3.90367e+06
3.94752e+06
4.0962e+06
3.76465e+06
3.74905e+06
3.72945e+06
3.72755e+06
3.78289e+06
3.92115e+06
3.59175e+06
3.58348e+06
3.57459e+06
3.58625e+06
3.65341e+06
3.79199e+06
3.53421e+06
3.52898e+06
3.52436e+06
3.54117e+06
3.6129e+06
3.75346e+06
3.62111e+06
3.61213e+06
3.6015e+06
3.61029e+06
3.67463e+06
3.81237e+06
3.80889e+06
3.79371e+06
3.77364e+06
3.7681e+06
3.81871e+06
3.95689e+06
4.00556e+06
3.98756e+06
3.96379e+06
3.94602e+06
3.98424e+06
4.13489e+06
4.29871e+06
4.26346e+06
4.20631e+06
4.16084e+06
4.17781e+06
4.33272e+06
4.5e+06
4.5e+06
4.5e+06
4.5e+06
4.5e+06
4.5e+06
4.5e+06
4.5e+06
4.5e+06
4.5e+06
4.5e+06
4.5e+06
4.5e+06
4.5e+06
4.5e+06
4.5e+06
4.5e+06
4.5e+06
4.5e+06
4.5e+06
4.5e+06
4.5e+06
4.5e+06
4.5e+06
4.5e+06
4.5e+06
4.5e+06
4.5e+06
4.5e+06
4.5e+06
4.2655e+06
4.24856e+06
4.22201e+06
4.21949e+06
4.28184e+06
4.46559e+06
3.95189e+06
3.94053e+06
3.92867e+06
3.92784e+06
3.97875e+06
4.14317e+06
3.74288e+06
3.73346e+06
3.72567e+06
3.73936e+06
3.81009e+06
3.96663e+06
3.55074e+06
3.54682e+06
3.54891e+06
3.57585e+06
3.65664e+06
3.80217e+06
3.41054e+06
3.41367e+06
3.42545e+06
3.46292e+06
3.55086e+06
3.69347e+06
3.3665e+06
3.37218e+06
3.38742e+06
3.42863e+06
3.51934e+06
3.6624e+06
3.43734e+06
3.43963e+06
3.44979e+06
3.48503e+06
3.5712e+06
3.71384e+06
3.59625e+06
3.59094e+06
3.59035e+06
3.61346e+06
3.6915e+06
3.83843e+06
3.79204e+06
3.78087e+06
3.77229e+06
3.78389e+06
3.85236e+06
4.01085e+06
3.99419e+06
3.98169e+06
3.96972e+06
3.9733e+06
4.02426e+06
4.1895e+06
4.35631e+06
4.33957e+06
4.3127e+06
4.31074e+06
4.3762e+06
4.5e+06
4.5e+06
4.5e+06
4.5e+06
4.5e+06
4.5e+06
4.5e+06
4.5e+06
4.5e+06
4.5e+06
4.5e+06
4.5e+06
4.5e+06
4.5e+06
4.5e+06
4.5e+06
4.5e+06
4.5e+06
4.5e+06
4.45148e+06
4.4481e+06
4.44021e+06
4.48556e+06
4.5e+06
4.5e+06
3.97291e+06
3.96813e+06
3.96863e+06
3.99346e+06
4.07274e+06
4.25493e+06
3.73758e+06
3.73353e+06
3.73621e+06
3.76255e+06
3.84094e+06
4.00409e+06
3.52206e+06
3.52225e+06
3.53249e+06
3.5708e+06
3.66257e+06
3.81688e+06
3.3543e+06
3.36132e+06
3.38197e+06
3.43096e+06
3.52743e+06
3.67043e+06
3.24302e+06
3.25567e+06
3.28404e+06
3.34047e+06
3.44058e+06
3.5799e+06
3.21083e+06
3.22542e+06
3.25638e+06
3.31531e+06
3.41685e+06
3.55596e+06
3.26679e+06
3.27874e+06
3.30588e+06
3.36081e+06
3.45996e+06
3.59972e+06
3.39511e+06
3.40113e+06
3.41997e+06
3.46646e+06
3.5615e+06
3.70628e+06
3.57221e+06
3.57133e+06
3.57985e+06
3.61545e+06
3.70566e+06
3.86331e+06
3.7888e+06
3.78281e+06
3.78295e+06
3.80704e+06
3.88297e+06
4.04959e+06
4.02165e+06
4.01644e+06
4.01752e+06
4.04533e+06
4.12978e+06
4.32041e+06
4.5e+06
4.5e+06
4.5e+06
4.5e+06
4.5e+06
4.5e+06
4.5e+06
4.5e+06
4.5e+06
4.5e+06
4.5e+06
4.5e+06
4.5e+06
4.5e+06
4.5e+06
4.5e+06
4.5e+06
4.5e+06
4.13141e+06
4.13031e+06
4.13424e+06
4.17175e+06
4.27799e+06
4.49668e+06
3.7807e+06
3.78237e+06
3.79427e+06
3.83213e+06
3.9191e+06
4.09032e+06
3.52512e+06
3.53098e+06
3.55043e+06
3.59936e+06
3.69792e+06
3.85483e+06
3.32172e+06
3.3323e+06
3.35995e+06
3.41788e+06
3.52113e+06
3.66533e+06
3.18136e+06
3.19713e+06
3.23234e+06
3.29702e+06
3.4015e+06
3.53666e+06
3.09722e+06
3.11692e+06
3.15719e+06
3.22593e+06
3.3313e+06
3.46321e+06
3.0755e+06
3.09651e+06
3.13839e+06
3.20841e+06
3.31423e+06
3.44577e+06
3.11813e+06
3.1373e+06
3.17674e+06
3.24464e+06
3.34969e+06
3.48221e+06
3.21842e+06
3.2333e+06
3.26716e+06
3.33047e+06
3.43468e+06
3.57168e+06
3.36795e+06
3.37744e+06
3.40374e+06
3.46048e+06
3.5639e+06
3.71167e+06
3.57706e+06
3.58178e+06
3.59969e+06
3.64768e+06
3.74502e+06
3.9047e+06
3.8323e+06
3.83255e+06
3.84324e+06
3.88024e+06
3.96918e+06
4.1467e+06
4.19643e+06
4.19636e+06
4.20202e+06
4.24746e+06
4.37641e+06
4.5e+06
4.5e+06
4.5e+06
4.5e+06
4.5e+06
4.5e+06
4.5e+06
4.37136e+06
4.38251e+06
4.38042e+06
4.40774e+06
4.5e+06
4.5e+06
3.94394e+06
3.94429e+06
3.95691e+06
3.99557e+06
4.07666e+06
4.24352e+06
3.59427e+06
3.60453e+06
3.63008e+06
3.68405e+06
3.78012e+06
3.93315e+06
3.33228e+06
3.34622e+06
3.37956e+06
3.44431e+06
3.55108e+06
3.69377e+06
3.15073e+06
3.16887e+06
3.2088e+06
3.27921e+06
3.38648e+06
3.51778e+06
3.03635e+06
3.05815e+06
3.10295e+06
3.17666e+06
3.28289e+06
3.40777e+06
2.97574e+06
2.99997e+06
3.04754e+06
3.12265e+06
3.22809e+06
3.35061e+06
2.96253e+06
2.98753e+06
3.0359e+06
3.11142e+06
3.21674e+06
3.33898e+06
2.99416e+06
3.01811e+06
3.0653e+06
3.14014e+06
3.24569e+06
3.36879e+06
3.0697e+06
3.09102e+06
3.13518e+06
3.20848e+06
3.31517e+06
3.44169e+06
3.19386e+06
3.21134e+06
3.25046e+06
3.32048e+06
3.42871e+06
3.56322e+06
3.38161e+06
3.39476e+06
3.4271e+06
3.49155e+06
3.59922e+06
3.74618e+06
3.64508e+06
3.65466e+06
3.67866e+06
3.73044e+06
3.82619e+06
3.98532e+06
3.9936e+06
3.99378e+06
4.00425e+06
4.04149e+06
4.13245e+06
4.31925e+06
4.43397e+06
4.44705e+06
4.44316e+06
4.48629e+06
4.5e+06
4.5e+06
4.17992e+06
4.19146e+06
4.19695e+06
4.22249e+06
4.27843e+06
4.3729e+06
3.75808e+06
3.76388e+06
3.7852e+06
3.83387e+06
3.92349e+06
4.0761e+06
3.41582e+06
3.43151e+06
3.4661e+06
3.5307e+06
3.63451e+06
3.77476e+06
3.16768e+06
3.18744e+06
3.22989e+06
3.30283e+06
3.40965e+06
3.53596e+06
3.00813e+06
3.03128e+06
3.07875e+06
3.1552e+06
3.26078e+06
3.37852e+06
2.91796e+06
2.94331e+06
2.99333e+06
3.07055e+06
3.17406e+06
3.28786e+06
2.87695e+06
2.90353e+06
2.95454e+06
3.03144e+06
3.13344e+06
3.24593e+06
2.87067e+06
2.89761e+06
2.94885e+06
3.02561e+06
3.12723e+06
3.23959e+06
2.89368e+06
2.92017e+06
2.97113e+06
3.04816e+06
3.15051e+06
3.26347e+06
2.94852e+06
2.97371e+06
3.02366e+06
3.10119e+06
3.20557e+06
3.32067e+06
3.04838e+06
3.0713e+06
3.11864e+06
3.19555e+06
3.30257e+06
3.42276e+06
3.21478e+06
3.23417e+06
3.27626e+06
3.34968e+06
3.45816e+06
3.58799e+06
3.46751e+06
3.48282e+06
3.51683e+06
3.58129e+06
3.68501e+06
3.82773e+06
3.81093e+06
3.81622e+06
3.83647e+06
3.88457e+06
3.97477e+06
4.12637e+06
4.22583e+06
4.23686e+06
4.24035e+06
4.26816e+06
4.33483e+06
4.44025e+06
4.00973e+06
4.02612e+06
4.03915e+06
4.0773e+06
4.13943e+06
4.20644e+06
3.5881e+06
3.59789e+06
3.62539e+06
3.6807e+06
3.77013e+06
3.89929e+06
3.25826e+06
3.27751e+06
3.31752e+06
3.38598e+06
3.48658e+06
3.60855e+06
3.0278e+06
3.05099e+06
3.09822e+06
3.17365e+06
3.27553e+06
3.38593e+06
2.89093e+06
2.91658e+06
2.96726e+06
3.04458e+06
3.14481e+06
3.24971e+06
2.82264e+06
2.84945e+06
2.90109e+06
2.97776e+06
3.07579e+06
3.17883e+06
2.79773e+06
2.82498e+06
2.87652e+06
2.952e+06
3.04845e+06
3.15107e+06
2.79712e+06
2.82447e+06
2.87592e+06
2.951e+06
3.04702e+06
3.14967e+06
2.81352e+06
2.84083e+06
2.89256e+06
2.96839e+06
3.0653e+06
3.16828e+06
2.8516e+06
2.87851e+06
2.9305e+06
3.00789e+06
3.10692e+06
3.21085e+06
2.92934e+06
2.95508e+06
3.00615e+06
3.08443e+06
3.1862e+06
3.2928e+06
3.07298e+06
3.09614e+06
3.14353e+06
3.21985e+06
3.32356e+06
3.43665e+06
3.30848e+06
3.32756e+06
3.36732e+06
3.43599e+06
3.53804e+06
3.66364e+06
3.64353e+06
3.65301e+06
3.67991e+06
3.73373e+06
3.82274e+06
3.95535e+06
4.06949e+06
4.08577e+06
4.09787e+06
4.13279e+06
4.18613e+06
4.25439e+06
3.82929e+06
3.84768e+06
3.86499e+06
3.90584e+06
3.9696e+06
4.03275e+06
3.427e+06
3.43915e+06
3.46973e+06
3.52629e+06
3.61248e+06
3.72423e+06
3.11779e+06
3.13874e+06
3.18086e+06
3.24918e+06
3.34374e+06
3.44937e+06
2.90888e+06
2.93337e+06
2.98172e+06
3.05543e+06
3.14981e+06
3.24615e+06
2.79458e+06
2.82084e+06
2.87153e+06
2.94619e+06
3.03906e+06
3.13239e+06
2.74587e+06
2.77264e+06
2.82341e+06
2.89689e+06
2.98805e+06
3.08116e+06
2.73448e+06
2.76124e+06
2.81137e+06
2.88342e+06
2.9733e+06
3.06672e+06
2.73866e+06
2.7654e+06
2.8153e+06
2.8869e+06
2.97644e+06
3.07002e+06
2.75007e+06
2.77697e+06
2.82742e+06
2.89995e+06
2.99031e+06
3.08396e+06
2.77442e+06
2.80146e+06
2.85282e+06
2.92722e+06
3.01935e+06
3.113e+06
2.83235e+06
2.85892e+06
2.91032e+06
2.98619e+06
3.08047e+06
3.17478e+06
2.95319e+06
2.97789e+06
3.02678e+06
3.10164e+06
3.19763e+06
3.29557e+06
3.16744e+06
3.18841e+06
3.23065e+06
3.2995e+06
3.39525e+06
3.50327e+06
3.48238e+06
3.4942e+06
3.52439e+06
3.58072e+06
3.66761e+06
3.78273e+06
3.89023e+06
3.9084e+06
3.92483e+06
3.96514e+06
4.02814e+06
4.09417e+06
3.6578e+06
3.67692e+06
3.69655e+06
3.73818e+06
3.79846e+06
3.84959e+06
3.27821e+06
3.29148e+06
3.32301e+06
3.37813e+06
3.45725e+06
3.55165e+06
2.99186e+06
3.01305e+06
3.05474e+06
3.11978e+06
3.20592e+06
3.29712e+06
2.80613e+06
2.83041e+06
2.87738e+06
2.94672e+06
3.03241e+06
3.11681e+06
2.71409e+06
2.73967e+06
2.7883e+06
2.85828e+06
2.94313e+06
3.02651e+06
2.68343e+06
2.70918e+06
2.75753e+06
2.82638e+06
2.91027e+06
2.99461e+06
2.68386e+06
2.70941e+06
2.75699e+06
2.82457e+06
2.90767e+06
2.99283e+06
2.69232e+06
2.7178e+06
2.76515e+06
2.83236e+06
2.91526e+06
3.0007e+06
2.69988e+06
2.72563e+06
2.7736e+06
2.8417e+06
2.92524e+06
3.01056e+06
2.71269e+06
2.73881e+06
2.78787e+06
2.8577e+06
2.94244e+06
3.02705e+06
2.75253e+06
2.77854e+06
2.82804e+06
2.89927e+06
2.98528e+06
3.06903e+06
2.85068e+06
2.87531e+06
2.92299e+06
2.99352e+06
3.0805e+06
3.16559e+06
3.04163e+06
3.06298e+06
3.10494e+06
3.17058e+06
3.25776e+06
3.35038e+06
3.33483e+06
3.34787e+06
3.37908e+06
3.43388e+06
3.51333e+06
3.61009e+06
3.72178e+06
3.74092e+06
3.75983e+06
3.80057e+06
3.85984e+06
3.91258e+06
3.4915e+06
3.51004e+06
3.5297e+06
3.56907e+06
3.62405e+06
3.66562e+06
3.13625e+06
3.14948e+06
3.18001e+06
3.23136e+06
3.30243e+06
3.38306e+06
2.87564e+06
2.89602e+06
2.93555e+06
2.99557e+06
3.07288e+06
3.15229e+06
2.71486e+06
2.73798e+06
2.78206e+06
2.84576e+06
2.9228e+06
2.99738e+06
2.64522e+06
2.66936e+06
2.71478e+06
2.77918e+06
2.8562e+06
2.93123e+06
2.63174e+06
2.65595e+06
2.70108e+06
2.76475e+06
2.84162e+06
2.91844e+06
2.64304e+06
2.66702e+06
2.71151e+06
2.77427e+06
2.85088e+06
2.92888e+06
2.65553e+06
2.67946e+06
2.72378e+06
2.78632e+06
2.86289e+06
2.94128e+06
2.66007e+06
2.68427e+06
2.72918e+06
2.79246e+06
2.86948e+06
2.94759e+06
2.66275e+06
2.68737e+06
2.73327e+06
2.79789e+06
2.8755e+06
2.9524e+06
2.68559e+06
2.71022e+06
2.75657e+06
2.82217e+06
2.9001e+06
2.97506e+06
2.76091e+06
2.78445e+06
2.82931e+06
2.89411e+06
2.97204e+06
3.04653e+06
2.92641e+06
2.947e+06
2.98689e+06
3.04752e+06
3.12554e+06
3.20532e+06
3.1941e+06
3.20713e+06
3.23741e+06
3.28874e+06
3.36025e+06
3.44209e+06
3.55776e+06
3.57638e+06
3.59547e+06
3.63452e+06
3.68936e+06
3.73149e+06
3.32896e+06
3.34618e+06
3.36446e+06
3.40003e+06
3.44836e+06
3.48146e+06
2.9985e+06
3.011e+06
3.03934e+06
3.08573e+06
3.14836e+06
3.21758e+06
2.76561e+06
2.78458e+06
2.82098e+06
2.87523e+06
2.94399e+06
3.0138e+06
2.63135e+06
2.6528e+06
2.69329e+06
2.75098e+06
2.82002e+06
2.88666e+06
2.58458e+06
2.60693e+06
2.64869e+06
2.70741e+06
2.77729e+06
2.84547e+06
2.58802e+06
2.61047e+06
2.65216e+06
2.71067e+06
2.78115e+06
2.85169e+06
2.60975e+06
2.63205e+06
2.67331e+06
2.73137e+06
2.80208e+06
2.87408e+06
2.62623e+06
2.64851e+06
2.6897e+06
2.74769e+06
2.81855e+06
2.89102e+06
2.62829e+06
2.65082e+06
2.69251e+06
2.75107e+06
2.82219e+06
2.89429e+06
2.62173e+06
2.6446e+06
2.68705e+06
2.74649e+06
2.81765e+06
2.8882e+06
2.62812e+06
2.65098e+06
2.69366e+06
2.75351e+06
2.82411e+06
2.89197e+06
2.68009e+06
2.70198e+06
2.74325e+06
2.80192e+06
2.87153e+06
2.93756e+06
2.81822e+06
2.83742e+06
2.87418e+06
2.92894e+06
2.99804e+06
3.06747e+06
3.05804e+06
3.07034e+06
3.09844e+06
3.14473e+06
3.2075e+06
3.27703e+06
3.39797e+06
3.41537e+06
3.43313e+06
3.46837e+06
3.51651e+06
3.54929e+06
3.16735e+06
3.1827e+06
3.19874e+06
3.22966e+06
3.27119e+06
3.29748e+06
2.86226e+06
2.8736e+06
2.89908e+06
2.94007e+06
2.99476e+06
3.0548e+06
2.65907e+06
2.67631e+06
2.7092e+06
2.75765e+06
2.81872e+06
2.88087e+06
2.55295e+06
2.57254e+06
2.60929e+06
2.66122e+06
2.72325e+06
2.78359e+06
2.5298e+06
2.55028e+06
2.58837e+06
2.64177e+06
2.70544e+06
2.76813e+06
2.55022e+06
2.57091e+06
2.60923e+06
2.66297e+06
2.72789e+06
2.79332e+06
2.58224e+06
2.60289e+06
2.64106e+06
2.69477e+06
2.76035e+06
2.82743e+06
2.60275e+06
2.62343e+06
2.66165e+06
2.71545e+06
2.78133e+06
2.84897e+06
2.60273e+06
2.62362e+06
2.66222e+06
2.71644e+06
2.78244e+06
2.84968e+06
2.58749e+06
2.60861e+06
2.64769e+06
2.70234e+06
2.76794e+06
2.83344e+06
2.57766e+06
2.59866e+06
2.63769e+06
2.69216e+06
2.75647e+06
2.8188e+06
2.60555e+06
2.6256e+06
2.66312e+06
2.71595e+06
2.77834e+06
2.83778e+06
2.71424e+06
2.73172e+06
2.76495e+06
2.8138e+06
2.87491e+06
2.93615e+06
2.92347e+06
2.93459e+06
2.95979e+06
3.00059e+06
3.05511e+06
3.11481e+06
3.239e+06
3.25461e+06
3.27009e+06
3.30069e+06
3.34189e+06
3.36714e+06
3.00502e+06
3.01824e+06
3.03168e+06
3.05783e+06
3.09285e+06
3.11363e+06
2.72617e+06
2.73617e+06
2.75861e+06
2.79434e+06
2.84188e+06
2.89439e+06
2.55448e+06
2.56994e+06
2.59934e+06
2.64242e+06
2.69684e+06
2.75287e+06
2.478e+06
2.49577e+06
2.52896e+06
2.57573e+06
2.63186e+06
2.68729e+06
2.47923e+06
2.49794e+06
2.53265e+06
2.58132e+06
2.6398e+06
2.6982e+06
2.51684e+06
2.53589e+06
2.57113e+06
2.62065e+06
2.68089e+06
2.74225e+06
2.55914e+06
2.57827e+06
2.61364e+06
2.6635e+06
2.72473e+06
2.78788e+06
2.58377e+06
2.60299e+06
2.6385e+06
2.68861e+06
2.75028e+06
2.81407e+06
2.58198e+06
2.60135e+06
2.63715e+06
2.68755e+06
2.74926e+06
2.81268e+06
2.55845e+06
2.57794e+06
2.61397e+06
2.66443e+06
2.72543e+06
2.78706e+06
2.53257e+06
2.55182e+06
2.58748e+06
2.63725e+06
2.69642e+06
2.7546e+06
2.53568e+06
2.55393e+06
2.58792e+06
2.63557e+06
2.69201e+06
2.7465e+06
2.61293e+06
2.62866e+06
2.65841e+06
2.70182e+06
2.75611e+06
2.81095e+06
2.78886e+06
2.79864e+06
2.82075e+06
2.85614e+06
2.9032e+06
2.95493e+06
3.07879e+06
3.09236e+06
3.10521e+06
3.13093e+06
3.16541e+06
3.1846e+06
2.84111e+06
2.8521e+06
2.86295e+06
2.88457e+06
2.91374e+06
2.9302e+06
2.58953e+06
2.59822e+06
2.61774e+06
2.64867e+06
2.69006e+06
2.73638e+06
2.45108e+06
2.46485e+06
2.49102e+06
2.52939e+06
2.57829e+06
2.62949e+06
2.40558e+06
2.42169e+06
2.4517e+06
2.49403e+06
2.54537e+06
2.59707e+06
2.43185e+06
2.44896e+06
2.48069e+06
2.52534e+06
2.57959e+06
2.63473e+06
2.48681e+06
2.5044e+06
2.53694e+06
2.58285e+06
2.63924e+06
2.69747e+06
2.5394e+06
2.55719e+06
2.59009e+06
2.63665e+06
2.69428e+06
2.75436e+06
2.56823e+06
2.58616e+06
2.6193e+06
2.66623e+06
2.72443e+06
2.78523e+06
2.56491e+06
2.58296e+06
2.61631e+06
2.66345e+06
2.72166e+06
2.78217e+06
2.53348e+06
2.55153e+06
2.58491e+06
2.63184e+06
2.68916e+06
2.74795e+06
2.49179e+06
2.50948e+06
2.54223e+06
2.58809e+06
2.64323e+06
2.69849e+06
2.46965e+06
2.48628e+06
2.51718e+06
2.56051e+06
2.6123e+06
2.66327e+06
2.5136e+06
2.52769e+06
2.5543e+06
2.59307e+06
2.64185e+06
2.69184e+06
2.6532e+06
2.6617e+06
2.6809e+06
2.71146e+06
2.75217e+06
2.79738e+06
2.91588e+06
2.92739e+06
2.9377e+06
2.9589e+06
2.98737e+06
3.00169e+06
2.67541e+06
2.68422e+06
2.69269e+06
2.71028e+06
2.73439e+06
2.74757e+06
2.45223e+06
2.45973e+06
2.47662e+06
2.5034e+06
2.53962e+06
2.5809e+06
2.34862e+06
2.36088e+06
2.38424e+06
2.41862e+06
2.46305e+06
2.51054e+06
2.33524e+06
2.3499e+06
2.37719e+06
2.41585e+06
2.46339e+06
2.51237e+06
2.38699e+06
2.40272e+06
2.43192e+06
2.47325e+06
2.52415e+06
2.57689e+06
2.45936e+06
2.47569e+06
2.50593e+06
2.54883e+06
2.60213e+06
2.65799e+06
2.52221e+06
2.53884e+06
2.56963e+06
2.61343e+06
2.66814e+06
2.72585e+06
2.55529e+06
2.5721e+06
2.60322e+06
2.64749e+06
2.70287e+06
2.76137e+06
2.55064e+06
2.56755e+06
2.59884e+06
2.64328e+06
2.69869e+06
2.75703e+06
2.51168e+06
2.52852e+06
2.55968e+06
2.60374e+06
2.65821e+06
2.71503e+06
2.45463e+06
2.47102e+06
2.50136e+06
2.54409e+06
2.59623e+06
2.64963e+06
2.40716e+06
2.42243e+06
2.45078e+06
2.49069e+06
2.53907e+06
2.58779e+06
2.41635e+06
2.42904e+06
2.45304e+06
2.4881e+06
2.53271e+06
2.57916e+06
2.51624e+06
2.52367e+06
2.5404e+06
2.56697e+06
2.60254e+06
2.64233e+06
2.74911e+06
2.75865e+06
2.76675e+06
2.78413e+06
2.80761e+06
2.81816e+06
2.50812e+06
2.51485e+06
2.52131e+06
2.53544e+06
2.5553e+06
2.56615e+06
2.31446e+06
2.32096e+06
2.33563e+06
2.35892e+06
2.39089e+06
2.42811e+06
2.24722e+06
2.2582e+06
2.27919e+06
2.31032e+06
2.35122e+06
2.3959e+06
2.26685e+06
2.28028e+06
2.30533e+06
2.34103e+06
2.38566e+06
2.43271e+06
2.34428e+06
2.35886e+06
2.38596e+06
2.4246e+06
2.47292e+06
2.52395e+06
2.43395e+06
2.44923e+06
2.47756e+06
2.518e+06
2.56886e+06
2.62294e+06
2.50694e+06
2.5226e+06
2.55163e+06
2.59314e+06
2.64551e+06
2.7014e+06
2.54425e+06
2.56013e+06
2.58956e+06
2.63164e+06
2.68475e+06
2.74151e+06
2.53842e+06
2.55439e+06
2.58398e+06
2.62622e+06
2.67943e+06
2.7362e+06
2.49232e+06
2.50816e+06
2.53753e+06
2.57931e+06
2.63164e+06
2.68717e+06
2.42059e+06
2.43592e+06
2.46434e+06
2.50467e+06
2.55469e+06
2.60714e+06
2.34825e+06
2.36241e+06
2.38876e+06
2.42611e+06
2.47221e+06
2.51989e+06
2.32156e+06
2.3331e+06
2.35506e+06
2.38735e+06
2.42912e+06
2.47344e+06
2.3777e+06
2.38438e+06
2.39919e+06
2.42271e+06
2.45441e+06
2.48962e+06
2.57811e+06
2.58631e+06
2.59288e+06
2.6073e+06
2.62668e+06
2.63357e+06
2.33958e+06
2.34439e+06
2.34922e+06
2.3605e+06
2.37686e+06
2.38623e+06
2.1765e+06
2.18222e+06
2.19509e+06
2.21553e+06
2.24407e+06
2.27809e+06
2.14709e+06
2.157e+06
2.17607e+06
2.20462e+06
2.24279e+06
2.28545e+06
2.20038e+06
2.21281e+06
2.23604e+06
2.26941e+06
2.31187e+06
2.35768e+06
2.30346e+06
2.3171e+06
2.3425e+06
2.379e+06
2.42535e+06
2.47525e+06
2.41019e+06
2.42459e+06
2.45135e+06
2.48981e+06
2.53875e+06
2.59156e+06
2.49311e+06
2.50796e+06
2.53553e+06
2.57518e+06
2.62569e+06
2.68023e+06
2.53456e+06
2.54967e+06
2.57771e+06
2.61801e+06
2.66934e+06
2.72476e+06
2.52763e+06
2.54283e+06
2.57104e+06
2.61154e+06
2.66304e+06
2.71865e+06
2.47473e+06
2.48979e+06
2.51774e+06
2.55777e+06
2.60853e+06
2.66326e+06
2.38918e+06
2.40369e+06
2.43064e+06
2.4692e+06
2.51784e+06
2.57004e+06
2.29307e+06
2.30639e+06
2.33123e+06
2.36677e+06
2.4116e+06
2.45933e+06
2.23086e+06
2.24161e+06
2.26211e+06
2.2925e+06
2.33263e+06
2.37609e+06
2.2393e+06
2.24563e+06
2.25916e+06
2.28059e+06
2.30961e+06
2.34085e+06
2.40145e+06
2.40836e+06
2.41384e+06
2.42625e+06
2.44273e+06
2.4468e+06
2.17022e+06
2.17331e+06
2.17695e+06
2.18595e+06
2.19948e+06
2.20809e+06
2.03907e+06
2.04425e+06
2.05574e+06
2.07395e+06
2.09977e+06
2.13122e+06
2.04888e+06
2.05794e+06
2.07551e+06
2.10206e+06
2.1382e+06
2.17939e+06
2.13619e+06
2.14783e+06
2.16961e+06
2.20118e+06
2.24207e+06
2.2871e+06
2.26459e+06
2.27746e+06
2.30149e+06
2.33631e+06
2.3812e+06
2.43035e+06
2.38789e+06
2.40158e+06
2.42706e+06
2.46393e+06
2.5114e+06
2.56326e+06
2.4804e+06
2.49459e+06
2.52098e+06
2.55912e+06
2.60815e+06
2.66163e+06
2.52579e+06
2.54028e+06
2.5672e+06
2.60607e+06
2.65598e+06
2.71038e+06
2.5177e+06
2.53231e+06
2.55944e+06
2.59856e+06
2.64875e+06
2.7035e+06
2.45819e+06
2.47266e+06
2.49952e+06
2.53823e+06
2.58788e+06
2.64216e+06
2.35967e+06
2.37359e+06
2.39947e+06
2.43676e+06
2.4846e+06
2.53715e+06
2.24157e+06
2.25428e+06
2.27805e+06
2.31237e+06
2.35675e+06
2.40573e+06
2.14502e+06
2.15514e+06
2.17466e+06
2.20376e+06
2.2434e+06
2.2882e+06
2.09987e+06
2.10599e+06
2.11854e+06
2.1385e+06
2.16598e+06
2.19457e+06
2.2229e+06
2.23159e+06
2.23695e+06
2.24787e+06
2.26119e+06
2.25916e+06
2.00017e+06
2.00164e+06
2.0045e+06
2.01174e+06
2.02302e+06
2.0315e+06
1.90195e+06
1.9068e+06
1.91732e+06
1.93382e+06
1.95751e+06
1.98699e+06
1.9525e+06
1.96088e+06
1.97729e+06
2.00234e+06
2.03701e+06
2.07736e+06
2.0741e+06
2.0851e+06
2.10576e+06
2.13596e+06
2.17573e+06
2.22056e+06
2.22742e+06
2.23967e+06
2.26261e+06
2.29611e+06
2.33992e+06
2.38878e+06
2.36682e+06
2.37993e+06
2.40438e+06
2.43998e+06
2.4863e+06
2.53759e+06
2.46858e+06
2.48224e+06
2.50766e+06
2.5446e+06
2.59248e+06
2.64521e+06
2.51767e+06
2.53168e+06
2.5577e+06
2.59545e+06
2.64426e+06
2.69787e+06
2.50824e+06
2.52242e+06
2.54871e+06
2.58679e+06
2.63599e+06
2.69001e+06
2.44205e+06
2.4561e+06
2.48217e+06
2.51994e+06
2.56881e+06
2.62267e+06
2.33123e+06
2.34478e+06
2.36991e+06
2.40636e+06
2.45384e+06
2.50682e+06
2.19298e+06
2.20528e+06
2.22829e+06
2.26181e+06
2.30645e+06
2.35746e+06
2.06745e+06
2.07755e+06
2.09662e+06
2.12484e+06
2.16466e+06
2.21217e+06
1.97251e+06
1.98004e+06
1.99304e+06
2.01218e+06
2.03797e+06
2.06328e+06
2.04189e+06
2.05164e+06
2.05718e+06
2.06776e+06
2.07931e+06
2.07402e+06
1.82983e+06
1.83012e+06
1.8326e+06
1.83855e+06
1.84812e+06
1.85659e+06
1.76778e+06
1.77259e+06
1.78244e+06
1.7977e+06
1.81987e+06
1.84771e+06
1.86007e+06
1.868e+06
1.88352e+06
1.90747e+06
1.94117e+06
1.98093e+06
2.01534e+06
2.0259e+06
2.04568e+06
2.07481e+06
2.11384e+06
2.15853e+06
2.19233e+06
2.20414e+06
2.22619e+06
2.25864e+06
2.30164e+06
2.35017e+06
2.34681e+06
2.3595e+06
2.38311e+06
2.41767e+06
2.46307e+06
2.51376e+06
2.45725e+06
2.47052e+06
2.49516e+06
2.53112e+06
2.57807e+06
2.63007e+06
2.50983e+06
2.52348e+06
2.54879e+06
2.58564e+06
2.63359e+06
2.68648e+06
2.49896e+06
2.51282e+06
2.53846e+06
2.57576e+06
2.62422e+06
2.67761e+06
2.4259e+06
2.43966e+06
2.46516e+06
2.50228e+06
2.55063e+06
2.60415e+06
2.30257e+06
2.3159e+06
2.34055e+06
2.37653e+06
2.42392e+06
2.47743e+06
2.14479e+06
2.1568e+06
2.17931e+06
2.21241e+06
2.25775e+06
2.3116e+06
1.99609e+06
2.00659e+06
2.02584e+06
2.05349e+06
2.09381e+06
2.14597e+06
1.84111e+06
1.84683e+06
1.86017e+06
1.87836e+06
1.90294e+06
1.93103e+06
1.87016e+06
1.89198e+06
1.89829e+06
1.90657e+06
1.91196e+06
1.89223e+06
1.65972e+06
1.65651e+06
1.65984e+06
1.66485e+06
1.67228e+06
1.68298e+06
1.63143e+06
1.63596e+06
1.64587e+06
1.66032e+06
1.68129e+06
1.70777e+06
1.76938e+06
1.77649e+06
1.7916e+06
1.81486e+06
1.8481e+06
1.88777e+06
1.95953e+06
1.96942e+06
1.98875e+06
2.01718e+06
2.05579e+06
2.10072e+06
2.16046e+06
2.17167e+06
2.1932e+06
2.22488e+06
2.26733e+06
2.31584e+06
2.3297e+06
2.34188e+06
2.36494e+06
2.39872e+06
2.44346e+06
2.49385e+06
2.44793e+06
2.4608e+06