/*--------------------------------*- C++ -*----------------------------------*\
| =========                 |                                                 |
| \\      /  F ield         | OpenFOAM: The Open Source CFD Toolbox           |
|  \\    /   O peration     | Version:  v2012                                 |
|   \\  /    A nd           | Website:  www.openfoam.com                      |
|    \\/     M anipulation  |                                                 |
\*---------------------------------------------------------------------------*/
FoamFile
{
    version     2.0;
    format      ascii;
    class       volVectorField;
    location    "3";
    object      D;
}
// * * * * * * * * * * * * * * * * * * * * * * * * * * * * * * * * * * * * * //

dimensions      [0 1 0 0 0 0 0];


internalField   nonuniform List<vector> 
32000
(
(7.27153e-06 -0.000583141 0)
(1.43754e-05 -0.000584909 0)
(6.98254e-06 -0.000588822 0)
(1.39989e-05 -0.000590555 0)
(6.76424e-06 -0.000594215 0)
(1.36483e-05 -0.000595858 0)
(6.58623e-06 -0.000599286 0)
(1.33198e-05 -0.000600829 0)
(6.42857e-06 -0.000604059 0)
(1.30102e-05 -0.000605507 0)
(6.28312e-06 -0.000608563 0)
(1.27185e-05 -0.000609922 0)
(6.14742e-06 -0.000612822 0)
(1.24444e-05 -0.000614098 0)
(6.02056e-06 -0.000616854 0)
(1.21874e-05 -0.000618054 0)
(5.90189e-06 -0.000620677 0)
(1.19465e-05 -0.000621807 0)
(5.79073e-06 -0.000624308 0)
(1.17207e-05 -0.000625374 0)
(5.68652e-06 -0.000627764 0)
(1.15089e-05 -0.000628771 0)
(5.58876e-06 -0.000631058 0)
(1.131e-05 -0.00063201 0)
(5.497e-06 -0.000634203 0)
(1.11233e-05 -0.000635105 0)
(5.41086e-06 -0.000637212 0)
(1.0948e-05 -0.000638068 0)
(5.32996e-06 -0.000640096 0)
(1.07833e-05 -0.00064091 0)
(5.25396e-06 -0.000642866 0)
(1.06285e-05 -0.00064364 0)
(5.18254e-06 -0.000645529 0)
(1.04829e-05 -0.000646268 0)
(5.1154e-06 -0.000648097 0)
(1.03461e-05 -0.000648803 0)
(5.05225e-06 -0.000650575 0)
(1.02173e-05 -0.000651251 0)
(4.99282e-06 -0.000652973 0)
(1.0096e-05 -0.000653621 0)
(4.93688e-06 -0.000655296 0)
(9.98182e-06 -0.000655918 0)
(4.88417e-06 -0.000657551 0)
(9.87421e-06 -0.00065815 0)
(4.83449e-06 -0.000659744 0)
(9.77274e-06 -0.000660321 0)
(4.78762e-06 -0.000661881 0)
(9.67699e-06 -0.000662438 0)
(4.74337e-06 -0.000663965 0)
(9.58655e-06 -0.000664504 0)
(4.70155e-06 -0.000666002 0)
(9.50106e-06 -0.000666525 0)
(4.66198e-06 -0.000667997 0)
(9.42014e-06 -0.000668504 0)
(4.62449e-06 -0.000669952 0)
(9.34347e-06 -0.000670445 0)
(4.58893e-06 -0.000671871 0)
(9.27071e-06 -0.000672351 0)
(4.55513e-06 -0.000673759 0)
(9.20154e-06 -0.000674227 0)
(4.52295e-06 -0.000675617 0)
(9.13568e-06 -0.000676074 0)
(4.49227e-06 -0.000677449 0)
(9.07282e-06 -0.000677896 0)
(4.46294e-06 -0.000679257 0)
(9.01265e-06 -0.000679695 0)
(4.43479e-06 -0.000681044 0)
(8.95479e-06 -0.000681474 0)
(4.40753e-06 -0.000682812 0)
(8.89865e-06 -0.000683233 0)
(4.38072e-06 -0.000684562 0)
(8.84344e-06 -0.000684975 0)
(4.35377e-06 -0.000686297 0)
(8.78812e-06 -0.000686703 0)
(4.32655e-06 -0.000688016 0)
(8.73192e-06 -0.000688417 0)
(4.30115e-06 -0.00068972 0)
(8.67491e-06 -0.000690119 0)
(4.28525e-06 -0.000691404 0)
(8.61847e-06 -0.000691812 0)
(2.94737e-05 -0.000582694 0)
(3.63669e-05 -0.000584338 0)
(2.85914e-05 -0.000588394 0)
(3.53683e-05 -0.000589983 0)
(2.77978e-05 -0.000593791 0)
(3.44405e-05 -0.000595279 0)
(2.70778e-05 -0.000598855 0)
(3.35826e-05 -0.00060024 0)
(2.64173e-05 -0.000603615 0)
(3.27863e-05 -0.000604901 0)
(2.58059e-05 -0.000608103 0)
(3.20435e-05 -0.000609296 0)
(2.52363e-05 -0.000612345 0)
(3.13487e-05 -0.00061345 0)
(2.47037e-05 -0.000616362 0)
(3.06978e-05 -0.000617384 0)
(2.42048e-05 -0.00062017 0)
(3.00877e-05 -0.000621116 0)
(2.37371e-05 -0.000623788 0)
(2.95154e-05 -0.000624663 0)
(2.32984e-05 -0.000627231 0)
(2.89786e-05 -0.00062804 0)
(2.28867e-05 -0.000630512 0)
(2.84747e-05 -0.000631261 0)
(2.25004e-05 -0.000633645 0)
(2.80016e-05 -0.000634339 0)
(2.21376e-05 -0.000636643 0)
(2.75574e-05 -0.000637285 0)
(2.17969e-05 -0.000639516 0)
(2.714e-05 -0.000640111 0)
(2.14768e-05 -0.000642274 0)
(2.67478e-05 -0.000642826 0)
(2.1176e-05 -0.000644928 0)
(2.6379e-05 -0.000645439 0)
(2.08931e-05 -0.000647485 0)
(2.60322e-05 -0.000647959 0)
(2.0627e-05 -0.000649954 0)
(2.5706e-05 -0.000650393 0)
(2.03767e-05 -0.000652342 0)
(2.53988e-05 -0.000652749 0)
(2.0141e-05 -0.000654656 0)
(2.51096e-05 -0.000655034 0)
(1.99189e-05 -0.000656903 0)
(2.48371e-05 -0.000657253 0)
(1.97097e-05 -0.000659087 0)
(2.45801e-05 -0.000659412 0)
(1.95123e-05 -0.000661215 0)
(2.43377e-05 -0.000661516 0)
(1.9326e-05 -0.000663291 0)
(2.41088e-05 -0.000663571 0)
(1.915e-05 -0.00066532 0)
(2.38924e-05 -0.000665579 0)
(1.89835e-05 -0.000667306 0)
(2.36877e-05 -0.000667547 0)
(1.88259e-05 -0.000669253 0)
(2.34938e-05 -0.000669476 0)
(1.86765e-05 -0.000671164 0)
(2.33098e-05 -0.000671371 0)
(1.85346e-05 -0.000673044 0)
(2.31349e-05 -0.000673235 0)
(1.83995e-05 -0.000674894 0)
(2.29684e-05 -0.000675071 0)
(1.82707e-05 -0.000676717 0)
(2.28095e-05 -0.000676881 0)
(1.81475e-05 -0.000678517 0)
(2.26573e-05 -0.000678668 0)
(1.80292e-05 -0.000680295 0)
(2.25112e-05 -0.000680434 0)
(1.79154e-05 -0.000682052 0)
(2.23703e-05 -0.000682181 0)
(1.78057e-05 -0.000683791 0)
(2.22341e-05 -0.00068391 0)
(1.77002e-05 -0.000685514 0)
(2.2102e-05 -0.000685623 0)
(1.75995e-05 -0.00068722 0)
(2.19734e-05 -0.000687322 0)
(1.75055e-05 -0.000688912 0)
(2.18473e-05 -0.000689004 0)
(1.74219e-05 -0.000690588 0)
(2.17222e-05 -0.000690669 0)
(5.1624e-05 -0.000581898 0)
(5.83162e-05 -0.000583407 0)
(5.0164e-05 -0.000587539 0)
(5.67416e-05 -0.000588984 0)
(4.88189e-05 -0.000592884 0)
(5.52657e-05 -0.000594214 0)
(4.75727e-05 -0.000597904 0)
(5.38896e-05 -0.000599117 0)
(4.64152e-05 -0.000602623 0)
(5.26074e-05 -0.000603729 0)
(4.53381e-05 -0.000607073 0)
(5.14112e-05 -0.000608078 0)
(4.43334e-05 -0.000611279 0)
(5.02933e-05 -0.00061219 0)
(4.33942e-05 -0.000615261 0)
(4.92468e-05 -0.000616083 0)
(4.25147e-05 -0.000619036 0)
(4.82663e-05 -0.000619777 0)
(4.16904e-05 -0.000622623 0)
(4.73467e-05 -0.000623287 0)
(4.09172e-05 -0.000626036 0)
(4.64841e-05 -0.00062663 0)
(4.01917e-05 -0.000629289 0)
(4.56744e-05 -0.000629818 0)
(3.95108e-05 -0.000632396 0)
(4.49142e-05 -0.000632865 0)
(3.88713e-05 -0.000635369 0)
(4.42002e-05 -0.000635781 0)
(3.82707e-05 -0.000638217 0)
(4.35294e-05 -0.000638578 0)
(3.77064e-05 -0.000640953 0)
(4.2899e-05 -0.000641265 0)
(3.71759e-05 -0.000643584 0)
(4.23063e-05 -0.000643852 0)
(3.66771e-05 -0.00064612 0)
(4.17488e-05 -0.000646347 0)
(3.62079e-05 -0.000648568 0)
(4.12243e-05 -0.000648757 0)
(3.57664e-05 -0.000650936 0)
(4.07306e-05 -0.000651089 0)
(3.53506e-05 -0.00065323 0)
(4.02656e-05 -0.00065335 0)
(3.4959e-05 -0.000655458 0)
(3.98275e-05 -0.000655547 0)
(3.45898e-05 -0.000657624 0)
(3.94144e-05 -0.000657684 0)
(3.42416e-05 -0.000659733 0)
(3.90246e-05 -0.000659767 0)
(3.39129e-05 -0.000661791 0)
(3.86565e-05 -0.0006618 0)
(3.36024e-05 -0.000663803 0)
(3.83086e-05 -0.000663788 0)
(3.33086e-05 -0.000665771 0)
(3.79794e-05 -0.000665734 0)
(3.30305e-05 -0.000667701 0)
(3.76675e-05 -0.000667644 0)
(3.27667e-05 -0.000669596 0)
(3.73716e-05 -0.000669519 0)
(3.25161e-05 -0.000671458 0)
(3.70904e-05 -0.000671362 0)
(3.22777e-05 -0.000673291 0)
(3.68225e-05 -0.000673178 0)
(3.20504e-05 -0.000675098 0)
(3.6567e-05 -0.000674968 0)
(3.18331e-05 -0.00067688 0)
(3.63224e-05 -0.000676735 0)
(3.16248e-05 -0.000678641 0)
(3.60878e-05 -0.000678481 0)
(3.14248e-05 -0.000680382 0)
(3.58621e-05 -0.000680208 0)
(3.12323e-05 -0.000682105 0)
(3.56441e-05 -0.000681918 0)
(3.10469e-05 -0.000683811 0)
(3.54329e-05 -0.000683612 0)
(3.0869e-05 -0.000685503 0)
(3.52275e-05 -0.000685291 0)
(3.07001e-05 -0.00068718 0)
(3.50269e-05 -0.000686955 0)
(3.05431e-05 -0.000688842 0)
(3.48301e-05 -0.000688603 0)
(7.37616e-05 -0.000580726 0)
(8.02493e-05 -0.00058207 0)
(7.17119e-05 -0.000586277 0)
(7.8094e-05 -0.000587554 0)
(6.98175e-05 -0.000591538 0)
(7.60795e-05 -0.000592694 0)
(6.80553e-05 -0.00059648 0)
(7.41983e-05 -0.000597512 0)
(6.64117e-05 -0.000601129 0)
(7.2441e-05 -0.000602046 0)
(6.48767e-05 -0.000605515 0)
(7.0798e-05 -0.000606324 0)
(6.34418e-05 -0.000609662 0)
(6.92608e-05 -0.00061037 0)
(6.2099e-05 -0.000613588 0)
(6.78214e-05 -0.000614202 0)
(6.08413e-05 -0.000617311 0)
(6.64724e-05 -0.000617838 0)
(5.96625e-05 -0.000620848 0)
(6.52076e-05 -0.000621294 0)
(5.85568e-05 -0.000624214 0)
(6.40209e-05 -0.000624585 0)
(5.75193e-05 -0.000627423 0)
(6.29072e-05 -0.000627724 0)
(5.65454e-05 -0.000630487 0)
(6.18614e-05 -0.000630724 0)
(5.56309e-05 -0.00063342 0)
(6.08792e-05 -0.000633596 0)
(5.47719e-05 -0.00063623 0)
(5.99563e-05 -0.000636351 0)
(5.39646e-05 -0.000638928 0)
(5.9089e-05 -0.000638998 0)
(5.32058e-05 -0.000641524 0)
(5.82735e-05 -0.000641545 0)
(5.24922e-05 -0.000644026 0)
(5.75064e-05 -0.000644002 0)
(5.18209e-05 -0.000646442 0)
(5.67847e-05 -0.000646376 0)
(5.11891e-05 -0.000648778 0)
(5.61053e-05 -0.000648673 0)
(5.05942e-05 -0.000651042 0)
(5.54654e-05 -0.000650901 0)
(5.00338e-05 -0.00065324 0)
(5.48625e-05 -0.000653064 0)
(4.95056e-05 -0.000655376 0)
(5.42939e-05 -0.000655169 0)
(4.90073e-05 -0.000657458 0)
(5.37575e-05 -0.00065722 0)
(4.85369e-05 -0.000659488 0)
(5.3251e-05 -0.000659223 0)
(4.80924e-05 -0.000661472 0)
(5.27722e-05 -0.00066118 0)
(4.7672e-05 -0.000663414 0)
(5.23191e-05 -0.000663097 0)
(4.7274e-05 -0.000665318 0)
(5.18899e-05 -0.000664977 0)
(4.68965e-05 -0.000667186 0)
(5.14827e-05 -0.000666823 0)
(4.6538e-05 -0.000669022 0)
(5.10958e-05 -0.000668638 0)
(4.6197e-05 -0.00067083 0)
(5.07275e-05 -0.000670425 0)
(4.58719e-05 -0.000672611 0)
(5.03761e-05 -0.000672187 0)
(4.55613e-05 -0.000674368 0)
(5.00401e-05 -0.000673926 0)
(4.52639e-05 -0.000676104 0)
(4.97181e-05 -0.000675644 0)
(4.49785e-05 -0.00067782 0)
(4.94087e-05 -0.000677344 0)
(4.47041e-05 -0.000679518 0)
(4.91104e-05 -0.000679026 0)
(4.44401e-05 -0.000681201 0)
(4.8822e-05 -0.000680693 0)
(4.41863e-05 -0.000682868 0)
(4.85419e-05 -0.000682345 0)
(4.39436e-05 -0.00068452 0)
(4.82686e-05 -0.000683981 0)
(4.37143e-05 -0.000686158 0)
(4.80006e-05 -0.0006856 0)
(9.58706e-05 -0.000579168 0)
(0.000102151 -0.000580339 0)
(9.32354e-05 -0.000584604 0)
(9.94206e-05 -0.0005857 0)
(9.07941e-05 -0.000589756 0)
(9.68719e-05 -0.000590726 0)
(8.85207e-05 -0.000594595 0)
(9.44924e-05 -0.000595436 0)
(8.63979e-05 -0.000599149 0)
(9.22681e-05 -0.000599869 0)
(8.44129e-05 -0.000603446 0)
(9.01867e-05 -0.000604053 0)
(8.2555e-05 -0.00060751 0)
(8.82375e-05 -0.00060801 0)
(8.08149e-05 -0.000611358 0)
(8.64111e-05 -0.00061176 0)
(7.91842e-05 -0.000615009 0)
(8.4699e-05 -0.000615318 0)
(7.76552e-05 -0.000618478 0)
(8.30932e-05 -0.000618702 0)
(7.62209e-05 -0.000621779 0)
(8.15865e-05 -0.000621924 0)
(7.48749e-05 -0.000624927 0)
(8.01723e-05 -0.000624998 0)
(7.36113e-05 -0.000627934 0)
(7.88443e-05 -0.000627936 0)
(7.24246e-05 -0.000630811 0)
(7.75969e-05 -0.000630749 0)
(7.13098e-05 -0.000633568 0)
(7.64248e-05 -0.000633447 0)
(7.02622e-05 -0.000636216 0)
(7.53231e-05 -0.00063604 0)
(6.92773e-05 -0.000638764 0)
(7.42872e-05 -0.000638536 0)
(6.83511e-05 -0.00064122 0)
(7.33129e-05 -0.000640944 0)
(6.74797e-05 -0.00064359 0)
(7.2396e-05 -0.000643269 0)
(6.66597e-05 -0.000645884 0)
(7.15329e-05 -0.00064552 0)
(6.58874e-05 -0.000648106 0)
(7.072e-05 -0.000647703 0)
(6.51599e-05 -0.000650262 0)
(6.9954e-05 -0.000649822 0)
(6.44742e-05 -0.00065236 0)
(6.92318e-05 -0.000651885 0)
(6.38273e-05 -0.000654402 0)
(6.85503e-05 -0.000653894 0)
(6.32166e-05 -0.000656395 0)
(6.79068e-05 -0.000655856 0)
(6.26397e-05 -0.000658342 0)
(6.72986e-05 -0.000657774 0)
(6.20941e-05 -0.000660248 0)
(6.67232e-05 -0.000659651 0)
(6.15774e-05 -0.000662115 0)
(6.61782e-05 -0.000661493 0)
(6.10876e-05 -0.000663949 0)
(6.56612e-05 -0.0006633 0)
(6.06226e-05 -0.00066575 0)
(6.51701e-05 -0.000665078 0)
(6.01803e-05 -0.000667523 0)
(6.47028e-05 -0.000666828 0)
(5.97589e-05 -0.00066927 0)
(6.42572e-05 -0.000668553 0)
(5.93565e-05 -0.000670994 0)
(6.38315e-05 -0.000670256 0)
(5.89714e-05 -0.000672696 0)
(6.34237e-05 -0.000671938 0)
(5.86021e-05 -0.000674378 0)
(6.30322e-05 -0.000673601 0)
(5.82473e-05 -0.000676043 0)
(6.26551e-05 -0.000675247 0)
(5.79058e-05 -0.000677692 0)
(6.22907e-05 -0.000676878 0)
(5.75774e-05 -0.000679326 0)
(6.19373e-05 -0.000678493 0)
(5.72624e-05 -0.000680945 0)
(6.1593e-05 -0.000680093 0)
(5.69625e-05 -0.000682549 0)
(6.12557e-05 -0.000681675 0)
(0.000117932 -0.00057723 0)
(0.000124006 -0.000578219 0)
(0.000114722 -0.000582523 0)
(0.00012071 -0.000583431 0)
(0.000111742 -0.00058754 0)
(0.000117636 -0.000588316 0)
(0.000108965 -0.000592252 0)
(0.000114766 -0.000592894 0)
(0.00010637 -0.000596687 0)
(0.000112083 -0.000597203 0)
(0.000103942 -0.000600872 0)
(0.000109571 -0.000601271 0)
(0.000101669 -0.000604832 0)
(0.000107218 -0.00060512 0)
(9.95389e-05 -0.000608583 0)
(0.000105012 -0.000608767 0)
(9.75417e-05 -0.000612141 0)
(0.000102943 -0.00061223 0)
(9.56686e-05 -0.000615524 0)
(0.000101003 -0.000615523 0)
(9.39111e-05 -0.000618743 0)
(9.91817e-05 -0.000618659 0)
(9.22615e-05 -0.000621814 0)
(9.7472e-05 -0.000621652 0)
(9.07126e-05 -0.000624747 0)
(9.58664e-05 -0.000624513 0)
(8.92579e-05 -0.000627553 0)
(9.4358e-05 -0.000627253 0)
(8.78912e-05 -0.000630244 0)
(9.29407e-05 -0.000629881 0)
(8.66066e-05 -0.000632829 0)
(9.16083e-05 -0.000632407 0)
(8.5399e-05 -0.000635315 0)
(9.03554e-05 -0.000634839 0)
(8.42632e-05 -0.000637712 0)
(8.91769e-05 -0.000637184 0)
(8.31946e-05 -0.000640026 0)
(8.80679e-05 -0.00063945 0)
(8.21888e-05 -0.000642265 0)
(8.70238e-05 -0.000641643 0)
(8.12417e-05 -0.000644434 0)
(8.60405e-05 -0.00064377 0)
(8.03494e-05 -0.000646539 0)
(8.51139e-05 -0.000645836 0)
(7.95083e-05 -0.000648587 0)
(8.42402e-05 -0.000647845 0)
(7.8715e-05 -0.000650581 0)
(8.34159e-05 -0.000649803 0)
(7.79661e-05 -0.000652526 0)
(8.26376e-05 -0.000651715 0)
(7.72586e-05 -0.000654427 0)
(8.19021e-05 -0.000653583 0)
(7.65896e-05 -0.000656286 0)
(8.12063e-05 -0.000655413 0)
(7.59562e-05 -0.000658109 0)
(8.05474e-05 -0.000657206 0)
(7.53559e-05 -0.000659898 0)
(7.99226e-05 -0.000658968 0)
(7.4786e-05 -0.000661656 0)
(7.93292e-05 -0.000660699 0)
(7.42443e-05 -0.000663386 0)
(7.87648e-05 -0.000662403 0)
(7.37282e-05 -0.00066509 0)
(7.82269e-05 -0.000664083 0)
(7.32358e-05 -0.000666772 0)
(7.77132e-05 -0.000665741 0)
(7.27648e-05 -0.000668431 0)
(7.72215e-05 -0.000667378 0)
(7.23134e-05 -0.000670072 0)
(7.67496e-05 -0.000668996 0)
(7.18798e-05 -0.000671695 0)
(7.62955e-05 -0.000670598 0)
(7.14627e-05 -0.000673302 0)
(7.58571e-05 -0.000672184 0)
(7.10613e-05 -0.000674895 0)
(7.54323e-05 -0.000673755 0)
(7.06756e-05 -0.000676472 0)
(7.50187e-05 -0.00067531 0)
(7.03067e-05 -0.000678034 0)
(7.46142e-05 -0.000676848 0)
(0.000139933 -0.000574917 0)
(0.0001458 -0.000575718 0)
(0.00013616 -0.000580039 0)
(0.000141953 -0.000580752 0)
(0.000132652 -0.000584894 0)
(0.000138365 -0.00058547 0)
(0.000129381 -0.000589456 0)
(0.000135014 -0.000589894 0)
(0.000126324 -0.000593749 0)
(0.000131882 -0.000594057 0)
(0.000123463 -0.000597801 0)
(0.000128949 -0.000597988 0)
(0.000120783 -0.000601636 0)
(0.0001262 -0.000601708 0)
(0.000118271 -0.000605269 0)
(0.000123624 -0.000605235 0)
(0.000115915 -0.000608717 0)
(0.000121207 -0.000608583 0)
(0.000113705 -0.000611995 0)
(0.000118939 -0.000611768 0)
(0.00011163 -0.000615116 0)
(0.00011681 -0.000614803 0)
(0.000109683 -0.000618093 0)
(0.000114811 -0.000617699 0)
(0.000107855 -0.000620938 0)
(0.000112933 -0.000620469 0)
(0.000106137 -0.00062366 0)
(0.000111169 -0.000623121 0)
(0.000104523 -0.000626271 0)
(0.000109511 -0.000625666 0)
(0.000103006 -0.000628778 0)
(0.000107953 -0.000628112 0)
(0.000101579 -0.000631191 0)
(0.000106487 -0.000630467 0)
(0.000100238 -0.000633517 0)
(0.000105108 -0.000632739 0)
(9.89755e-05 -0.000635763 0)
(0.00010381 -0.000634934 0)
(9.77873e-05 -0.000637936 0)
(0.000102589 -0.000637059 0)
(9.66684e-05 -0.000640042 0)
(0.000101438 -0.000639119 0)
(9.56142e-05 -0.000642085 0)
(0.000100354 -0.000641121 0)
(9.46206e-05 -0.000644073 0)
(9.93319e-05 -0.000643068 0)
(9.36833e-05 -0.000646009 0)
(9.83675e-05 -0.000644965 0)
(9.27987e-05 -0.000647897 0)
(9.7457e-05 -0.000646817 0)
(9.1963e-05 -0.000649742 0)
(9.65966e-05 -0.000648627 0)
(9.11729e-05 -0.000651547 0)
(9.57828e-05 -0.000650399 0)
(9.0425e-05 -0.000653316 0)
(9.50124e-05 -0.000652137 0)
(8.97163e-05 -0.000655052 0)
(9.4282e-05 -0.000653843 0)
(8.90438e-05 -0.000656758 0)
(9.35886e-05 -0.000655519 0)
(8.84047e-05 -0.000658436 0)
(9.29292e-05 -0.00065717 0)
(8.77962e-05 -0.00066009 0)
(9.23012e-05 -0.000658796 0)
(8.72157e-05 -0.00066172 0)
(9.17017e-05 -0.0006604 0)
(8.66609e-05 -0.00066333 0)
(9.11282e-05 -0.000661985 0)
(8.61294e-05 -0.00066492 0)
(9.05783e-05 -0.000663551 0)
(8.56191e-05 -0.000666494 0)
(9.00494e-05 -0.0006651 0)
(8.51285e-05 -0.000668051 0)
(8.95392e-05 -0.000666634 0)
(8.46562e-05 -0.000669594 0)
(8.90452e-05 -0.000668152 0)
(8.4202e-05 -0.000671121 0)
(8.85649e-05 -0.000669655 0)
(8.37665e-05 -0.000672634 0)
(8.80957e-05 -0.00067114 0)
(0.00016186 -0.000572236 0)
(0.000167523 -0.000572842 0)
(0.000157539 -0.000577159 0)
(0.000163139 -0.000577671 0)
(0.000153518 -0.000581828 0)
(0.000159051 -0.000582198 0)
(0.000149765 -0.000586214 0)
(0.000155233 -0.000586443 0)
(0.000146257 -0.000590343 0)
(0.000151663 -0.000590439 0)
(0.000142973 -0.000594242 0)
(0.000148319 -0.000594213 0)
(0.000139896 -0.000597931 0)
(0.000145186 -0.000597785 0)
(0.000137011 -0.000601429 0)
(0.000142247 -0.000601173 0)
(0.000134305 -0.000604749 0)
(0.00013949 -0.00060439 0)
(0.000131766 -0.000607906 0)
(0.000136903 -0.000607451 0)
(0.000129382 -0.000610912 0)
(0.000134474 -0.000610369 0)
(0.000127145 -0.000613781 0)
(0.000132193 -0.000613154 0)
(0.000125043 -0.000616522 0)
(0.00013005 -0.000615817 0)
(0.000123068 -0.000619146 0)
(0.000128036 -0.000618369 0)
(0.000121212 -0.000621663 0)
(0.000126144 -0.000620817 0)
(0.000119468 -0.000624081 0)
(0.000124364 -0.000623171 0)
(0.000117827 -0.000626408 0)
(0.00012269 -0.000625438 0)
(0.000116284 -0.000628652 0)
(0.000121116 -0.000627625 0)
(0.000114833 -0.000630819 0)
(0.000119634 -0.000629739 0)
(0.000113466 -0.000632915 0)
(0.000118239 -0.000631785 0)
(0.000112179 -0.000634947 0)
(0.000116925 -0.000633769 0)
(0.000110966 -0.000636919 0)
(0.000115686 -0.000635696 0)
(0.000109823 -0.000638837 0)
(0.000114519 -0.000637571 0)
(0.000108745 -0.000640705 0)
(0.000113418 -0.000639399 0)
(0.000107728 -0.000642527 0)
(0.000112378 -0.000641182 0)
(0.000106767 -0.000644307 0)
(0.000111396 -0.000642926 0)
(0.000105858 -0.000646049 0)
(0.000110467 -0.000644632 0)
(0.000104998 -0.000647756 0)
(0.000109587 -0.000646305 0)
(0.000104184 -0.000649431 0)
(0.000108754 -0.000647947 0)
(0.000103411 -0.000651077 0)
(0.000107963 -0.000649561 0)
(0.000102677 -0.000652695 0)
(0.000107211 -0.00065115 0)
(0.000101978 -0.00065429 0)
(0.000106496 -0.000652715 0)
(0.000101312 -0.000655861 0)
(0.000105813 -0.000654258 0)
(0.000100676 -0.000657413 0)
(0.00010516 -0.000655782 0)
(0.000100067 -0.000658946 0)
(0.000104535 -0.000657288 0)
(9.94825e-05 -0.000660462 0)
(0.000103934 -0.000658777 0)
(9.89208e-05 -0.000661961 0)
(0.000103354 -0.000660251 0)
(9.83802e-05 -0.000663447 0)
(0.000102794 -0.00066171 0)
(9.78601e-05 -0.000664917 0)
(0.00010225 -0.000663153 0)
(9.73609e-05 -0.000666373 0)
(0.000101719 -0.000664578 0)
(0.000183702 -0.000569193 0)
(0.000189163 -0.000569597 0)
(0.00017885 -0.000573891 0)
(0.00018426 -0.000574196 0)
(0.00017433 -0.000578348 0)
(0.000179687 -0.000578508 0)
(0.000170111 -0.000582537 0)
(0.000175416 -0.000582552 0)
(0.000166165 -0.00058648 0)
(0.000171421 -0.00058636 0)
(0.00016247 -0.000590205 0)
(0.00016768 -0.000589958 0)
(0.000159007 -0.000593731 0)
(0.000164173 -0.000593365 0)
(0.00015576 -0.000597074 0)
(0.000160883 -0.000596596 0)
(0.000152714 -0.000600249 0)
(0.000157797 -0.000599666 0)
(0.000149855 -0.000603269 0)
(0.000154899 -0.000602587 0)
(0.000147171 -0.000606145 0)
(0.000152179 -0.000605372 0)
(0.00014465 -0.000608891 0)
(0.000149623 -0.000608032 0)
(0.000142282 -0.000611515 0)
(0.000147222 -0.000610576 0)
(0.000140057 -0.000614028 0)
(0.000144966 -0.000613014 0)
(0.000137966 -0.000616439 0)
(0.000142845 -0.000615354 0)
(0.000136 -0.000618755 0)
(0.00014085 -0.000617605 0)
(0.000134151 -0.000620985 0)
(0.000138974 -0.000619772 0)
(0.000132412 -0.000623135 0)
(0.000137209 -0.000621864 0)
(0.000130775 -0.000625212 0)
(0.000135548 -0.000623885 0)
(0.000129234 -0.000627222 0)
(0.000133983 -0.000625842 0)
(0.000127783 -0.00062917 0)
(0.00013251 -0.00062774 0)
(0.000126416 -0.000631061 0)
(0.000131122 -0.000629584 0)
(0.000125128 -0.0006329 0)
(0.000129813 -0.000631379 0)
(0.000123912 -0.000634691 0)
(0.000128578 -0.000633127 0)
(0.000122765 -0.000636439 0)
(0.000127413 -0.000634834 0)
(0.000121682 -0.000638146 0)
(0.000126312 -0.000636502 0)
(0.000120658 -0.000639816 0)
(0.000125271 -0.000638135 0)
(0.00011969 -0.000641453 0)
(0.000124286 -0.000639735 0)
(0.000118772 -0.000643058 0)
(0.000123352 -0.000641306 0)
(0.000117902 -0.000644636 0)
(0.000122467 -0.00064285 0)
(0.000117076 -0.000646187 0)
(0.000121626 -0.000644369 0)
(0.00011629 -0.000647715 0)
(0.000120825 -0.000645865 0)
(0.000115541 -0.000649221 0)
(0.000120062 -0.00064734 0)
(0.000114826 -0.000650707 0)
(0.000119333 -0.000648797 0)
(0.000114142 -0.000652174 0)
(0.000118635 -0.000650235 0)
(0.000113486 -0.000653625 0)
(0.000117964 -0.000651658 0)
(0.000112856 -0.000655061 0)
(0.000117319 -0.000653065 0)
(0.00011225 -0.000656482 0)
(0.000116695 -0.000654457 0)
(0.000111667 -0.000657888 0)
(0.00011609 -0.000655833 0)
(0.000111107 -0.000659279 0)
(0.0001155 -0.000657192 0)
(0.000205446 -0.000565795 0)
(0.000210708 -0.000565993 0)
(0.000200082 -0.000570243 0)
(0.000205305 -0.000570337 0)
(0.000195082 -0.000574466 0)
(0.000200265 -0.000574412 0)
(0.000190412 -0.000578435 0)
(0.000195558 -0.000578234 0)
(0.000186043 -0.000582172 0)
(0.000191154 -0.000581835 0)
(0.000181951 -0.000585704 0)
(0.000187028 -0.000585237 0)
(0.000178115 -0.000589048 0)
(0.00018316 -0.00058846 0)
(0.000174518 -0.00059222 0)
(0.000179532 -0.000591519 0)
(0.000171142 -0.000595233 0)
(0.000176126 -0.000594425 0)
(0.000167973 -0.0005981 0)
(0.000172929 -0.000597192 0)
(0.000164998 -0.000600833 0)
(0.000169926 -0.000599831 0)
(0.000162203 -0.000603441 0)
(0.000167105 -0.000602352 0)
(0.000159578 -0.000605935 0)
(0.000164455 -0.000604765 0)
(0.00015711 -0.000608324 0)
(0.000161963 -0.000607077 0)
(0.000154791 -0.000610617 0)
(0.000159621 -0.000609297 0)
(0.00015261 -0.00061282 0)
(0.000157418 -0.000611432 0)
(0.000150558 -0.000614942 0)
(0.000155345 -0.00061349 0)
(0.000148628 -0.000616988 0)
(0.000153395 -0.000615475 0)
(0.000146812 -0.000618965 0)
(0.00015156 -0.000617395 0)
(0.000145102 -0.000620878 0)
(0.000149832 -0.000619254 0)
(0.000143492 -0.000622733 0)
(0.000148204 -0.000621057 0)
(0.000141975 -0.000624534 0)
(0.00014667 -0.000622809 0)
(0.000140545 -0.000626285 0)
(0.000145224 -0.000624514 0)
(0.000139196 -0.000627991 0)
(0.00014386 -0.000626175 0)
(0.000137923 -0.000629655 0)
(0.000142573 -0.000627797 0)
(0.000136722 -0.000631281 0)
(0.000141357 -0.000629382 0)
(0.000135586 -0.000632872 0)
(0.000140207 -0.000630933 0)
(0.000134512 -0.000634431 0)
(0.00013912 -0.000632454 0)
(0.000133495 -0.00063596 0)
(0.00013809 -0.000633946 0)
(0.00013253 -0.000637462 0)
(0.000137113 -0.000635413 0)
(0.000131615 -0.000638939 0)
(0.000136186 -0.000636855 0)
(0.000130745 -0.000640393 0)
(0.000135303 -0.000638276 0)
(0.000129916 -0.000641826 0)
(0.000134463 -0.000639676 0)
(0.000129125 -0.000643239 0)
(0.00013366 -0.000641058 0)
(0.000128369 -0.000644635 0)
(0.000132892 -0.000642423 0)
(0.000127645 -0.000646015 0)
(0.000132156 -0.000643772 0)
(0.00012695 -0.000647379 0)
(0.000131447 -0.000645106 0)
(0.000126281 -0.000648729 0)
(0.000130763 -0.000646425 0)
(0.000125639 -0.000650064 0)
(0.000130101 -0.000647728 0)
(0.000125021 -0.000651385 0)
(0.000129456 -0.000649014 0)
(0.00022708 -0.000562052 0)
(0.000232147 -0.000562039 0)
(0.000221226 -0.000566226 0)
(0.000226266 -0.000566105 0)
(0.000215765 -0.000570192 0)
(0.000220779 -0.000569922 0)
(0.000210662 -0.000573921 0)
(0.000215653 -0.000573502 0)
(0.000205887 -0.000577433 0)
(0.000210856 -0.000576876 0)
(0.000201413 -0.000580753 0)
(0.000206362 -0.000580066 0)
(0.000197218 -0.000583898 0)
(0.000202147 -0.000583089 0)
(0.000193283 -0.000586883 0)
(0.000198192 -0.000585959 0)
(0.00018959 -0.000589719 0)
(0.00019448 -0.000588687 0)
(0.000186123 -0.000592419 0)
(0.000190994 -0.000591286 0)
(0.000182867 -0.000594993 0)
(0.000187719 -0.000593766 0)
(0.000179808 -0.000597451 0)
(0.000184643 -0.000596135 0)
(0.000176933 -0.000599803 0)
(0.000181751 -0.000598403 0)
(0.000174231 -0.000602056 0)
(0.000179033 -0.000600578 0)
(0.000171691 -0.000604219 0)
(0.000176477 -0.000602667 0)
(0.000169302 -0.000606299 0)
(0.000174073 -0.000604677 0)
(0.000167055 -0.000608301 0)
(0.000171811 -0.000606615 0)
(0.000164941 -0.000610234 0)
(0.000169682 -0.000608485 0)
(0.000162951 -0.000612101 0)
(0.000167679 -0.000610293 0)
(0.000161077 -0.000613909 0)
(0.000165792 -0.000612045 0)
(0.000159313 -0.000615661 0)
(0.000164015 -0.000613744 0)
(0.000157651 -0.000617363 0)
(0.000162341 -0.000615396 0)
(0.000156084 -0.000619019 0)
(0.000160762 -0.000617003 0)
(0.000154606 -0.000620631 0)
(0.000159273 -0.00061857 0)
(0.000153212 -0.000622205 0)
(0.000157868 -0.000620099 0)
(0.000151896 -0.000623742 0)
(0.000156541 -0.000621593 0)
(0.000150652 -0.000625246 0)
(0.000155287 -0.000623056 0)
(0.000149476 -0.000626719 0)
(0.000154101 -0.00062449 0)
(0.000148362 -0.000628165 0)
(0.000152978 -0.000625897 0)
(0.000147307 -0.000629584 0)
(0.000151913 -0.00062728 0)
(0.000146306 -0.00063098 0)
(0.000150903 -0.000628639 0)
(0.000145355 -0.000632354 0)
(0.000149942 -0.000629978 0)
(0.00014445 -0.000633708 0)
(0.000149027 -0.000631297 0)
(0.000143586 -0.000635043 0)
(0.000148155 -0.000632599 0)
(0.000142762 -0.00063636 0)
(0.000147321 -0.000633884 0)
(0.000141972 -0.000637662 0)
(0.000146521 -0.000635153 0)
(0.000141215 -0.000638949 0)
(0.000145753 -0.000636408 0)
(0.000140488 -0.000640222 0)
(0.000145012 -0.000637649 0)
(0.000139789 -0.000641481 0)
(0.000144296 -0.000638874 0)
(0.000139118 -0.000642725 0)
(0.0001436 -0.000640081 0)
(0.000248594 -0.000557971 0)
(0.00025347 -0.000557744 0)
(0.000242272 -0.00056185 0)
(0.000247134 -0.000561512 0)
(0.000236371 -0.000565539 0)
(0.000241221 -0.000565049 0)
(0.000230855 -0.000569007 0)
(0.000235695 -0.000568369 0)
(0.000225691 -0.000572276 0)
(0.000230524 -0.000571499 0)
(0.000220852 -0.000575367 0)
(0.000225676 -0.00057446 0)
(0.000216313 -0.000578298 0)
(0.00022113 -0.000577268 0)
(0.000212055 -0.00058108 0)
(0.000216863 -0.000579934 0)
(0.000208058 -0.000583725 0)
(0.000212857 -0.000582471 0)
(0.000204304 -0.000586244 0)
(0.000209095 -0.000584889 0)
(0.000200778 -0.000588647 0)
(0.00020556 -0.000587196 0)
(0.000197465 -0.000590942 0)
(0.000202238 -0.000589402 0)
(0.000194351 -0.00059314 0)
(0.000199115 -0.000591515 0)
(0.000191424 -0.000595246 0)
(0.000196179 -0.000593542 0)
(0.000188672 -0.000597268 0)
(0.000193417 -0.00059549 0)
(0.000186083 -0.000599214 0)
(0.00019082 -0.000597365 0)
(0.000183648 -0.000601088 0)
(0.000188376 -0.000599172 0)
(0.000181356 -0.000602897 0)
(0.000186076 -0.000600918 0)
(0.000179199 -0.000604646 0)
(0.000183911 -0.000602606 0)
(0.000177168 -0.000606339 0)
(0.000181872 -0.000604243 0)
(0.000175255 -0.000607981 0)
(0.000179951 -0.00060583 0)
(0.000173452 -0.000609576 0)
(0.000178141 -0.000607374 0)
(0.000171754 -0.000611128 0)
(0.000176435 -0.000608876 0)
(0.000170152 -0.00061264 0)
(0.000174826 -0.00061034 0)
(0.000168641 -0.000614115 0)
(0.000173308 -0.00061177 0)
(0.000167214 -0.000615557 0)
(0.000171874 -0.000613167 0)
(0.000165866 -0.000616967 0)
(0.000170519 -0.000614535 0)
(0.000164592 -0.000618349 0)
(0.000169238 -0.000615876 0)
(0.000163386 -0.000619704 0)
(0.000168026 -0.000617192 0)
(0.000162244 -0.000621035 0)
(0.000166877 -0.000618484 0)
(0.000161161 -0.000622343 0)
(0.000165788 -0.000619755 0)
(0.000160132 -0.000623631 0)
(0.000164752 -0.000621006 0)
(0.000159154 -0.000624899 0)
(0.000163767 -0.000622239 0)
(0.000158221 -0.00062615 0)
(0.000162828 -0.000623454 0)
(0.000157331 -0.000627384 0)
(0.000161931 -0.000624654 0)
(0.00015648 -0.000628603 0)
(0.000161072 -0.000625839 0)
(0.000155665 -0.000629807 0)
(0.000160248 -0.000627009 0)
(0.000154882 -0.000630998 0)
(0.000159454 -0.000628166 0)
(0.000154131 -0.000632175 0)
(0.000158688 -0.000629307 0)
(0.000153409 -0.000633338 0)
(0.000157945 -0.000630432 0)
(0.000269974 -0.000553564 0)
(0.000274665 -0.000553119 0)
(0.00026321 -0.000557127 0)
(0.000267898 -0.000556569 0)
(0.000256891 -0.000560519 0)
(0.000261582 -0.000559809 0)
(0.000250983 -0.00056371 0)
(0.000255678 -0.000562852 0)
(0.00024545 -0.000566718 0)
(0.000250151 -0.000565722 0)
(0.000240263 -0.000569565 0)
(0.000244969 -0.000568439 0)
(0.000235398 -0.000572265 0)
(0.000240107 -0.000571016 0)
(0.000230831 -0.00057483 0)
(0.000235543 -0.000573466 0)
(0.000226544 -0.000577271 0)
(0.000231257 -0.000575798 0)
(0.000222517 -0.000579596 0)
(0.000227231 -0.000578022 0)
(0.000218733 -0.000581815 0)
(0.000223447 -0.000580145 0)
(0.000215177 -0.000583937 0)
(0.000219891 -0.000582177 0)
(0.000211835 -0.000585969 0)
(0.000216548 -0.000584124 0)
(0.000208692 -0.000587918 0)
(0.000213403 -0.000585993 0)
(0.000205736 -0.00058979 0)
(0.000210446 -0.00058779 0)
(0.000202956 -0.000591592 0)
(0.000207664 -0.00058952 0)
(0.00020034 -0.000593328 0)
(0.000205045 -0.000591189 0)
(0.000197878 -0.000595005 0)
(0.000202581 -0.000592802 0)
(0.000195561 -0.000596627 0)
(0.000200261 -0.000594363 0)
(0.000193378 -0.000598198 0)
(0.000198076 -0.000595876 0)
(0.000191323 -0.000599722 0)
(0.000196018 -0.000597344 0)
(0.000189387 -0.000601203 0)
(0.000194078 -0.000598772 0)
(0.000187561 -0.000602644 0)
(0.00019225 -0.000600162 0)
(0.00018584 -0.000604048 0)
(0.000190526 -0.000601518 0)
(0.000184217 -0.000605418 0)
(0.000188899 -0.000602842 0)
(0.000182685 -0.000606758 0)
(0.000187363 -0.000604136 0)