/*--------------------------------*- C++ -*----------------------------------*\
| =========                 |                                                 |
| \\      /  F ield         | OpenFOAM: The Open Source CFD Toolbox           |
|  \\    /   O peration     | Version:  v2012                                 |
|   \\  /    A nd           | Website:  www.openfoam.com                      |
|    \\/     M anipulation  |                                                 |
\*---------------------------------------------------------------------------*/
FoamFile
{
    version     2.0;
    format      ascii;
    class       pointVectorField;
    location    "3";
    object      pointD;
}
// * * * * * * * * * * * * * * * * * * * * * * * * * * * * * * * * * * * * * //

dimensions      [0 1 0 0 0 0 0];


internalField   nonuniform List<vector> 
32562
(
(0.00106611 0 4.8327e-22)
(0.00151683 0 4.03364e-22)
(0.00139995 -0.000139807 0)
(0 -0.000750682 -1.19369e-23)
(0 -0.000582143 8.549e-22)
(0.00110162 0 0)
(0 -0.000692091 0)
(0.000648074 -0.000238082 0)
(0.000323084 -0.000442298 1.78406e-22)
(0.00146543 -4.31737e-05 4.26821e-21)
(0.000774366 -0.000352413 4.38603e-22)
(0.000774366 -0.000352413 4.38603e-22)
(0.000648074 -0.000238082 0)
(0 -0.000692091 0)
(0 -0.000582143 8.549e-22)
(0.00106611 0 4.8327e-22)
(0.00110162 0 0)
(0.00151683 0 4.03364e-22)
(0.00146543 -4.31737e-05 4.26821e-21)
(0.00139995 -0.000139807 0)
(0.000323084 -0.000442298 1.78406e-22)
(0 -0.000750682 -1.19369e-23)
(1.30054e-05 -0.000691788 0)
(2.60757e-05 -0.000690342 0)
(3.91745e-05 -0.000687965 0)
(5.23422e-05 -0.000684656 0)
(6.56005e-05 -0.000680432 0)
(7.89686e-05 -0.000675313 0)
(9.24659e-05 -0.000669324 0)
(0.00010611 -0.00066249 0)
(0.000119918 -0.000654843 0)
(0.000133905 -0.000646417 0)
(0.000148084 -0.000637249 0)
(0.000162467 -0.000627378 0)
(0.000177063 -0.000616846 0)
(0.000191881 -0.000605695 0)
(0.000206928 -0.000593972 0)
(0.000222208 -0.000581721 0)
(0.000237723 -0.000568989 0)
(0.000253474 -0.000555823 0)
(0.000269462 -0.000542269 0)
(0.000285684 -0.000528375 0)
(0.000302135 -0.000514188 0)
(0.000318811 -0.000499751 0)
(0.000335705 -0.000485112 0)
(0.000352808 -0.000470312 0)
(0.00037011 -0.000455394 0)
(0.000387603 -0.0004404 0)
(0.000405273 -0.000425368 0)
(0.000423107 -0.000410336 0)
(0.000441093 -0.00039534 0)
(0.000459215 -0.000380414 0)
(0.000477457 -0.00036559 0)
(0.000495804 -0.000350897 0)
(0.000514238 -0.000336365 0)
(0.000532741 -0.00032202 0)
(0.000551296 -0.000307885 0)
(0.000569883 -0.000293985 0)
(0.000588482 -0.000280338 0)
(0.000607037 -0.00026695 0)
(0.000625534 -0.000253972 0)
(0.000670702 -0.00022298 0)
(0.000688925 -0.000211042 0)
(0.000707028 -0.000199467 0)
(0.000724984 -0.000188248 0)
(0.000742769 -0.000177393 0)
(0.000760358 -0.000166911 0)
(0.000777728 -0.000156809 0)
(0.000794856 -0.00014709 0)
(0.000811719 -0.000137755 0)
(0.000828296 -0.000128805 0)
(0.000844566 -0.000120238 0)
(0.000860506 -0.000112053 0)
(0.000876096 -0.000104245 0)
(0.000891315 -9.68098e-05 0)
(0.000906142 -8.97411e-05 0)
(0.000920559 -8.30323e-05 0)
(0.000934544 -7.66757e-05 0)
(0.00094808 -7.06627e-05 0)
(0.000961147 -6.49838e-05 0)
(0.000973728 -5.96289e-05 0)
(0.000985805 -5.45869e-05 0)
(0.000997361 -4.98462e-05 0)
(0.00100838 -4.53944e-05 0)
(0.00101885 -4.12187e-05 0)
(0.00102874 -3.73055e-05 0)
(0.00103806 -3.36406e-05 0)
(0.00104678 -3.02095e-05 0)
(0.0010549 -2.69971e-05 0)
(0.00106239 -2.39878e-05 0)
(0.00106925 -2.11657e-05 0)
(0.00107548 -1.85145e-05 0)
(0.00108106 -1.60175e-05 0)
(0.00108598 -1.3658e-05 0)
(0.00109023 -1.14187e-05 0)
(0.00109382 -9.28239e-06 0)
(0.00109673 -7.23201e-06 0)
(0.00109897 -5.25105e-06 0)
(0.00110053 -3.32548e-06 0)
(0.00110143 -1.43925e-06 0)
(0.00106796 0 0)
(0.00107004 0 0)
(0.00107196 0 0)
(0.00107372 0 0)
(0.00107534 0 0)
(0.00107685 0 0)
(0.00107825 0 0)
(0.00107954 0 0)
(0.00108075 0 0)
(0.00108187 0 0)
(0.00108292 0 0)
(0.0010839 0 0)
(0.00108482 0 0)
(0.00108569 0 0)
(0.00108651 0 0)
(0.00108729 0 0)
(0.00108802 0 0)
(0.00108872 0 0)
(0.0010894 0 0)
(0.00109004 0 0)
(0.00109067 0 0)
(0.00109127 0 0)
(0.00109186 0 0)
(0.00109244 0 0)
(0.001093 0 0)
(0.00109356 0 0)
(0.00109411 0 0)
(0.00109466 0 0)
(0.00109521 0 0)
(0.00109575 0 0)
(0.0010963 0 0)
(0.00109686 0 0)
(0.00109741 0 0)
(0.00109798 0 0)
(0.00109855 0 0)
(0.00109913 0 0)
(0.00109973 0 0)
(0.00110034 0 0)
(0.00110096 0 0)
(0.00110278 0 0)
(0.00110442 0 0)
(0.00110615 0 0)
(0.00110801 0 0)
(0.00110999 0 0)
(0.00111209 0 0)
(0.0011143 0 0)
(0.00111664 0 0)
(0.00111909 0 0)
(0.00112166 0 0)
(0.00112436 0 0)
(0.00112717 0 0)
(0.00113011 0 0)
(0.00113317 0 0)
(0.00113634 0 0)
(0.00113963 0 0)
(0.00114304 0 0)
(0.00114656 0 0)
(0.0011502 0 0)
(0.00115395 0 0)
(0.00115781 0 0)
(0.00116178 0 0)
(0.00116585 0 0)
(0.00117004 0 0)
(0.00117432 0 0)
(0.00117871 0 0)
(0.0011832 0 0)
(0.00118779 0 0)
(0.00119248 0 0)
(0.00119726 0 0)
(0.00120214 0 0)
(0.00120711 0 0)
(0.00121217 0 0)
(0.00121732 0 0)
(0.00122256 0 0)
(0.00122789 0 0)
(0.0012333 0 0)
(0.00123879 0 0)
(0.00124436 0 0)
(0.00125002 0 0)
(0.00125575 0 0)
(0.00126156 0 0)
(0.00126744 0 0)
(0.0012734 0 0)
(0.00127942 0 0)
(0.00128552 0 0)
(0.00129168 0 0)
(0.00129791 0 0)
(0.00130421 0 0)
(0.00131056 0 0)
(0.00131698 0 0)
(0.00132345 0 0)
(0.00132998 0 0)
(0.00133657 0 0)
(0.0013432 0 0)
(0.00134989 0 0)
(0.00135662 0 0)
(0.0013634 0 0)
(0.00137022 0 0)
(0.00137708 0 0)
(0.00138399 0 0)
(0.00139092 0 0)
(0.00139789 0 0)
(0.00140489 0 0)
(0.00141191 0 0)
(0.00141896 0 0)
(0.00142603 0 0)
(0.00143312 0 0)
(0.00144022 0 0)
(0.00144733 0 0)
(0.00145445 0 0)
(0.00146157 0 0)
(0.00146868 0 0)
(0.00147579 0 0)
(0.00148289 0 0)
(0.00148997 0 0)
(0.00149702 0 0)
(0.00150405 0 0)
(0.00151103 0 0)
(0.0015191 -6.28312e-07 2.1115e-21)
(0.00151899 -1.16033e-06 2.58263e-21)
(0.00151878 -1.69371e-06 9.00137e-24)
(0.00151849 -2.23662e-06 -2.16464e-21)
(0.00151812 -2.79124e-06 -1.29982e-21)
(0.00151767 -3.35885e-06 -4.63623e-22)
(0.00151713 -3.94127e-06 -1.29809e-21)
(0.00151652 -4.54065e-06 -6.54407e-24)
(0.00151582 -5.15918e-06 6.11693e-24)
(0.00151505 -5.79903e-06 -1.63792e-21)
(0.00151421 -6.46233e-06 -1.33263e-21)
(0.00151329 -7.1512e-06 8.1695e-22)
(0.00151229 -7.86772e-06 -1.88498e-21)
(0.00151123 -8.61391e-06 -3.21844e-21)
(0.00151009 -9.39176e-06 -1.35485e-21)
(0.00150888 -1.02032e-05 -2.14637e-21)
(0.00150761 -1.10502e-05 -7.91518e-22)
(0.00150627 -1.19344e-05 -1.93193e-22)
(0.00150487 -1.28578e-05 -1.27281e-23)
(0.0015034 -1.38219e-05 -6.04055e-22)
(0.00150188 -1.48284e-05 -1.25566e-21)
(0.0015003 -1.58789e-05 2.25384e-23)
(0.00149866 -1.69748e-05 -1.5633e-22)
(0.00149697 -1.81176e-05 1.35176e-22)
(0.00149524 -1.93085e-05 2.12994e-21)
(0.00149345 -2.05488e-05 2.13311e-21)
(0.00149162 -2.18397e-05 7.88355e-22)
(0.00148975 -2.31822e-05 -2.20457e-21)
(0.00148784 -2.45773e-05 -3.00111e-21)
(0.00148589 -2.60258e-05 1.45847e-21)
(0.00148391 -2.75285e-05 2.32101e-21)
(0.00148189 -2.9086e-05 -2.30027e-21)
(0.00147985 -3.06989e-05 -1.60676e-21)
(0.00147778 -3.23677e-05 8.08346e-22)
(0.00147569 -3.40927e-05 -7.75646e-22)
(0.00147358 -3.58743e-05 -1.61484e-21)
(0.00147146 -3.77126e-05 -8.27295e-22)
(0.00146933 -3.96063e-05 1.6172e-21)
(0.00146718 -4.15548e-05 4.45597e-21)
(0.00146427 -4.42547e-05 4.32766e-21)
(0.00146331 -4.51716e-05 5.71822e-21)
(0.00146234 -4.61031e-05 7.11569e-21)
(0.00146138 -4.70472e-05 5.73367e-21)
(0.00146041 -4.80022e-05 4.35406e-21)
(0.00145945 -4.89676e-05 5.75296e-21)
(0.00145849 -4.9943e-05 5.76092e-21)
(0.00145753 -5.09283e-05 8.6552e-21)
(0.00145658 -5.19238e-05 7.17685e-21)
(0.00145562 -5.29295e-05 1.4041e-21)
(0.00145467 -5.39454e-05 1.48864e-21)
(0.00145372 -5.49716e-05 4.39043e-21)
(0.00145277 -5.60081e-05 4.31655e-21)
(0.00145182 -5.70547e-05 2.90644e-21)
(0.00145088 -5.81114e-05 5.82472e-21)
(0.00144994 -5.9178e-05 1.02358e-20)
(0.001449 -6.02548e-05 8.7543e-21)
(0.00144807 -6.13428e-05 2.85155e-21)
(0.00144714 -6.2431e-05 -2.92825e-21)
(0.00144622 -6.35282e-05 6.51638e-23)
(0.00144529 -6.46447e-05 5.86698e-21)
(0.00144437 -6.57697e-05 2.87356e-21)
(0.00144346 -6.69029e-05 1.49705e-21)
(0.00144255 -6.80443e-05 4.43938e-21)
(0.00144165 -6.91938e-05 4.39015e-21)
(0.00144075 -7.03516e-05 4.39573e-21)
(0.00143985 -7.15174e-05 4.44552e-21)
(0.00143896 -7.26912e-05 1.45559e-21)
(0.00143808 -7.38731e-05 -1.50047e-21)
(0.0014372 -7.50632e-05 2.75827e-24)
(0.00143632 -7.62618e-05 -2.96454e-21)
(0.00143545 -7.74687e-05 -8.88738e-21)
(0.00143459 -7.86836e-05 -4.43435e-21)
(0.00143373 -7.99062e-05 2.97219e-21)
(0.00143288 -8.11362e-05 2.96535e-21)
(0.00143203 -8.23732e-05 1.49842e-21)
(0.0014312 -8.3617e-05 1.47798e-21)
(0.00143037 -8.48672e-05 -2.97661e-21)
(0.00142955 -8.61236e-05 -1.48428e-21)
(0.00142873 -8.73859e-05 4.47227e-21)
(0.00142792 -8.86541e-05 7.45259e-21)
(0.00142712 -8.99278e-05 2.98343e-21)
(0.00142633 -9.12067e-05 -1.49731e-21)
(0.00142554 -9.24907e-05 2.97736e-21)
(0.00142476 -9.37793e-05 5.97206e-21)
(0.00142399 -9.50725e-05 4.48988e-21)
(0.00142323 -9.63699e-05 2.98635e-21)
(0.00142247 -9.76714e-05 1.50913e-21)
(0.00142172 -9.89765e-05 -2.96422e-21)
(0.00142098 -0.000100285 -6.01417e-21)
(0.00142025 -0.000101597 -3.0239e-21)
(0.00141952 -0.000102912 1.51595e-21)
(0.0014188 -0.00010423 1.51595e-21)
(0.00141809 -0.00010555 0)
(0.00141738 -0.000106872 -1.47163e-21)
(0.00141668 -0.000108196 -5.98786e-21)
(0.00141599 -0.000109522 -4.51622e-21)
(0.00141531 -0.00011085 0)
(0.00141463 -0.000112178 0)
(0.00141396 -0.000113507 0)
(0.00141329 -0.000114837 0)
(0.00141263 -0.000116167 1.53115e-21)
(0.00141198 -0.000117497 -1.46069e-21)
(0.00141133 -0.000118827 -4.5249e-21)
(0.00141068 -0.000120156 2.91482e-21)
(0.00141004 -0.000121484 4.44788e-21)
(0.00140941 -0.000122811 8.04941e-23)
(0.00140878 -0.000124138 -1.45507e-21)
(0.00140815 -0.000125463 -1.53556e-21)
(0.00140752 -0.000126786 -1.53616e-21)
(0.0014069 -0.000128108 5.5248e-26)
(0.00140628 -0.000129427 8.60239e-23)
(0.00140566 -0.000130744 -4.43594e-21)
(0.00140505 -0.000132059 -5.97098e-21)
(0.00140443 -0.000133373 -3.07093e-21)
(0.00140381 -0.000134684 2.89887e-21)
(0.00140319 -0.000135994 4.51896e-21)
(0.00140257 -0.000137304 -1.45005e-21)
(0.00140195 -0.000138613 -2.98446e-21)
(0.00139345 -0.000141333 3.55043e-23)
(0.00138388 -0.000143289 -7.65638e-23)
(0.00137433 -0.000145237 -1.12068e-22)
(0.0013648 -0.000147165 6.49117e-23)
(0.00135528 -0.000149057 3.49726e-23)
(0.00134576 -0.000150903 -1.02109e-22)
(0.00133625 -0.000152694 -7.21701e-23)
(0.00132672 -0.000154423 6.83607e-23)
(0.00131718 -0.000156083 6.83607e-23)
(0.00130761 -0.000157674 5.31591e-23)
(0.001298 -0.000159195 5.31591e-23)
(0.00128836 -0.000160636 1.64469e-24)
(0.00127866 -0.000161996 7.15626e-24)
(0.00126891 -0.000163287 1.24209e-22)
(0.00125909 -0.00016451 5.35229e-23)
(0.0012492 -0.000165663 -8.10039e-23)
(0.00123924 -0.000166749 -1.58292e-23)
(0.00122918 -0.00016777 -1.21312e-22)
(0.00121904 -0.000168732 -4.63397e-23)
(0.00120879 -0.000169642 1.05816e-22)
(0.00119845 -0.000170499 1.54829e-22)
(0.001188 -0.000171311 1.61363e-22)
(0.00117743 -0.000172089 8.04406e-23)
(0.00116674 -0.000172832 -8.49389e-23)
(0.00115593 -0.000173548 -3.83954e-23)
(0.00114499 -0.000174246 8.54068e-23)
(0.00113391 -0.000174935 -9.4094e-23)
(0.0011227 -0.000175616 -8.30537e-23)
(0.00111134 -0.000176295 6.84083e-24)
(0.00109984 -0.000176983 4.35074e-23)
(0.00108819 -0.000177685 -6.52126e-24)
(0.00107638 -0.000178412 -1.90833e-22)
(0.00106441 -0.000179173 -1.40805e-22)
(0.00105227 -0.000179974 0)
(0.00103997 -0.000180822 9.60783e-23)
(0.0010275 -0.000181731 1.92029e-22)
(0.00101486 -0.000182709 9.59502e-23)
(0.00100204 -0.000183765 9.51336e-23)
(0.000989034 -0.000184908 9.51336e-23)
(0.00097585 -0.000186148 -6.53594e-23)
(0.000962479 -0.000187495 9.59389e-23)
(0.000948922 -0.00018896 2.69385e-22)
(0.000935175 -0.000190563 1.76142e-22)
(0.00092124 -0.000192297 -1.38865e-23)
(0.000907112 -0.000194173 -8.19425e-23)
(0.000892782 -0.000196222 1.14207e-23)
(0.000878257 -0.00019845 -6.77499e-23)
(0.000863538 -0.000200863 -2.89624e-22)
(0.000848623 -0.000203474 -2.63646e-23)
(0.000833514 -0.000206298 2.02421e-22)
(0.000818212 -0.000209339 2.0495e-22)
(0.000802718 -0.000212619 5.27326e-23)
(0.000787032 -0.000216156 -7.91168e-23)
(0.000771163 -0.000219955 5.47679e-23)
(0.00075511 -0.000224022 -4.42734e-23)
(0.000738868 -0.000228375 -1.74567e-22)
(0.000722449 -0.000233035 4.72488e-23)
(0.000705863 -0.000238005 1.48961e-23)
(0.000689115 -0.000243302 1.73328e-23)
(0.000672209 -0.000248938 1.79979e-22)
(0.000655158 -0.000254926 -2.17004e-22)
(0.000637978 -0.00026126 1.19482e-23)
(0.000620662 -0.000267966 2.4382e-22)
(0.000603229 -0.000275063 3.80684e-23)
(0.000585696 -0.000282548 2.32008e-23)
(0.000568066 -0.000290425 -3.19116e-22)
(0.000550365 -0.000298701 3.11372e-22)
(0.000532606 -0.000307386 3.2896e-22)
(0.000514804 -0.000316485 -3.01529e-22)
(0.000496979 -0.000326002 8.32582e-23)
(0.000479153 -0.000335935 8.32582e-23)
(0.000461349 -0.000346277 -3.50271e-22)
(0.000443584 -0.000357016 -3.50271e-22)
(0.000425879 -0.000368166 2.47787e-22)
(0.000408262 -0.000379722 2.47787e-22)
(0.000390754 -0.000391653 0)
(0.000373381 -0.000403957 0)
(0.000356177 -0.0004166 1.67319e-22)
(0.000339152 -0.000429576 3.46431e-22)
(0.000309601 -0.000453329 9.0821e-22)
(0.000297784 -0.000463263 3.18974e-22)
(0.000286114 -0.000473316 -1.35534e-21)
(0.000274599 -0.000483476 -5.92954e-22)
(0.000263251 -0.000493732 -8.10337e-22)
(0.000252079 -0.000504067 3.40138e-22)
(0.000241093 -0.000514467 2.32566e-21)
(0.000230301 -0.000524912 -1.58945e-21)
(0.000219713 -0.000535387 -1.06805e-21)
(0.000209336 -0.00054587 2.52807e-21)
(0.000199177 -0.000556342 2.25754e-21)
(0.000189243 -0.000566782 2.98831e-22)
(0.000179541 -0.000577167 -1.41709e-21)
(0.000170076 -0.000587477 -9.76693e-22)
(0.000160852 -0.000597686 3.53688e-22)
(0.000151873 -0.000607772 4.48922e-22)
(0.000143142 -0.00061771 -4.18451e-22)
(0.00013466 -0.000627475 0)
(0.000126428 -0.000637043 0)
(0.000118447 -0.000646388 0)
(0.000110713 -0.000655484 7.79072e-22)
(0.000103226 -0.000664307 4.58312e-22)
(9.5981e-05 -0.000672831 -3.2076e-22)
(8.89733e-05 -0.000681031 -1.90665e-22)
(8.2197e-05 -0.000688882 2.57598e-22)
(7.56449e-05 -0.000696362 1.96651e-22)
(6.93084e-05 -0.000703445 -2.51612e-22)
(6.31782e-05 -0.000710111 0)
(5.72436e-05 -0.000716337 -1.98689e-22)
(5.14928e-05 -0.000722103 -1.77508e-23)
(4.5913e-05 -0.000727389 5.41858e-22)
(4.04905e-05 -0.000732178 -1.38637e-23)
(3.52106e-05 -0.000736453 -3.74783e-22)
(3.00578e-05 -0.000740199 2.73038e-22)
(2.50158e-05 -0.000743403 -7.86478e-23)
(2.00672e-05 -0.000746051 -2.03762e-22)
(1.51952e-05 -0.000748137 8.54848e-23)
(1.03907e-05 -0.000749646 2.56926e-24)
(5.61526e-06 -0.00075052 5.30224e-23)
(0 -0.00075033 0)
(0 -0.000749826 0)
(0 -0.000749313 0)
(0 -0.00074879 0)
(0 -0.000748257 0)
(0 -0.000747713 0)
(0 -0.000747158 0)
(0 -0.000746592 0)
(0 -0.000746016 0)
(0 -0.000745429 0)
(0 -0.000744832 0)
(0 -0.000744225 0)
(0 -0.000743609 0)
(0 -0.000742985 0)
(0 -0.000742351 0)
(0 -0.000741709 0)
(0 -0.000741059 0)
(0 -0.000740402 0)
(0 -0.000739737 0)
(0 -0.000739065 0)
(0 -0.000738386 0)
(0 -0.0007377 0)
(0 -0.000737009 0)
(0 -0.000736311 0)
(0 -0.000735607 0)
(0 -0.000734898 0)
(0 -0.000734184 0)
(0 -0.000733465 0)
(0 -0.00073274 0)
(0 -0.000732011 0)
(0 -0.000731278 0)
(0 -0.00073054 0)
(0 -0.000729798 0)
(0 -0.000729052 0)
(0 -0.000728303 0)
(0 -0.00072755 0)
(0 -0.000726793 0)
(0 -0.000726033 0)
(0 -0.000725271 0)
(0 -0.000724505 0)
(0 -0.000723736 0)
(0 -0.000722965 0)
(0 -0.000722191 0)
(0 -0.000721414 0)
(0 -0.000720636 0)
(0 -0.000719855 0)
(0 -0.000719072 0)
(0 -0.000718286 0)
(0 -0.000717499 0)
(0 -0.00071671 0)
(0 -0.000715919 0)
(0 -0.000715127 0)
(0 -0.000714333 0)
(0 -0.000713537 0)
(0 -0.000712739 0)
(0 -0.000711941 0)
(0 -0.00071114 0)
(0 -0.000710339 0)
(0 -0.000709536 0)
(0 -0.000708731 0)
(0 -0.000707926 0)
(0 -0.000707119 0)
(0 -0.00070631 0)
(0 -0.000705501 0)
(0 -0.00070469 0)
(0 -0.000703878 0)
(0 -0.000703065 0)
(0 -0.000702251 0)
(0 -0.000701436 0)
(0 -0.000700619 0)
(0 -0.000699801 0)
(0 -0.000698981 0)
(0 -0.00069816 0)
(0 -0.000697337 0)
(0 -0.000696512 0)
(0 -0.000695685 0)
(0 -0.000694856 0)
(0 -0.000694026 0)
(0 -0.000693194 0)
(0 -0.000690562 0)
(0 -0.000688868 0)
(0 -0.000687157 0)
(0 -0.00068543 0)
(0 -0.000683687 0)
(0 -0.000681928 0)
(0 -0.000680151 0)
(0 -0.000678353 0)
(0 -0.000676533 0)
(0 -0.000674688 0)
(0 -0.000672815 0)
(0 -0.000670912 0)
(0 -0.000668974 0)
(0 -0.000666999 0)
(0 -0.000664984 0)
(0 -0.000662923 0)
(0 -0.000660812 0)
(0 -0.000658648 0)
(0 -0.000656424 0)
(0 -0.000654134 0)
(0 -0.000651774 0)
(0 -0.000649336 0)
(0 -0.000646813 0)
(0 -0.000644198 0)
(0 -0.000641481 0)
(0 -0.000638654 0)
(0 -0.000635708 0)
(0 -0.000632631 0)
(0 -0.000629411 0)
(0 -0.000626036 0)
(0 -0.000622493 0)
(0 -0.000618765 0)
(0 -0.000614838 0)
(0 -0.000610693 0)
(0 -0.000606311 0)
(0 -0.000601673 0)
(0 -0.00059675 0)
(0 -0.000591518 0)
(0 -0.000585981 0)
(0.000662353 -0.000225817 0)
(0.00067683 -0.000213642 0)
(0.00069106 -0.000202148 0)
(0.000705048 -0.000191297 0)
(0.000718781 -0.000181067 0)
(0.000732268 -0.000171425 0)
(0.000745524 -0.000162353 0)
(0.000758549 -0.000153832 0)
(0.000771345 -0.000145851 0)
(0.000783921 -0.000138387 0)
(0.000796281 -0.000131415 0)
(0.000808441 -0.000124926 0)
(0.000820398 -0.000118899 0)
(0.000832164 -0.000113293 0)
(0.000843752 -0.000108102 0)
(0.000855165 -0.000103306 0)
(0.000866414 -9.88837e-05 0)
(0.000877505 -9.4816e-05 0)
(0.00088845 -9.10892e-05 0)
(0.000899256 -8.7686e-05 0)
(0.000909933 -8.45782e-05 0)
(0.000920491 -8.17519e-05 0)
(0.000930936 -7.91998e-05 0)
(0.000941273 -7.69011e-05 0)
(0.000951511 -7.48368e-05 0)
(0.000961662 -7.2995e-05 0)
(0.000971729 -7.13663e-05 0)
(0.000981715 -6.99336e-05 0)
(0.000991629 -6.86839e-05 0)
(0.00100148 -6.76031e-05 0)
(0.00101127 -6.66827e-05 0)
(0.001021 -6.59093e-05 0)
(0.00103069 -6.527e-05 0)
(0.00104033 -6.47568e-05 0)
(0.00104993 -6.43587e-05 0)
(0.00105949 -6.40621e-05 0)
(0.00106901 -6.3865e-05 0)
(0.00107851 -6.37582e-05 0)
(0.00108798 -6.37257e-05 0)
(0.00109742 -6.3761e-05 0)
(0.00110685 -6.38578e-05 0)
(0.00111625 -6.4008e-05 0)
(0.00112563 -6.42018e-05 0)
(0.001135 -6.44324e-05 0)
(0.00114436 -6.46928e-05 0)
(0.0011537 -6.49759e-05 0)
(0.00116303 -6.52748e-05 0)
(0.00117235 -6.55833e-05 0)
(0.00118165 -6.58944e-05 0)
(0.00119095 -6.62013e-05 0)
(0.00120025 -6.64967e-05 0)
(0.00120953 -6.67771e-05 0)
(0.0012188 -6.70438e-05 0)
(0.00122807 -6.72802e-05 0)
(0.00123729 -6.74186e-05 0)
(0.00124656 -6.7554e-05 0)
(0.00125587 -6.77388e-05 0)
(0.0012651 -6.77889e-05 0)
(0.00127432 -6.77847e-05 0)
(0.00128353 -6.77202e-05 0)
(0.00129274 -6.75893e-05 0)
(0.00130194 -6.73842e-05 0)
(0.00131113 -6.70976e-05 0)
(0.00132031 -6.6727e-05 0)
(0.00132948 -6.62661e-05 0)
(0.00133864 -6.57052e-05 0)
(0.00134778 -6.50392e-05 0)
(0.00135692 -6.42614e-05 0)
(0.00136604 -6.33647e-05 0)
(0.00137515 -6.23413e-05 0)
(0.00138424 -6.11827e-05 0)
(0.00139333 -5.98799e-05 0)
(0.0014024 -5.84242e-05 0)
(0.00141146 -5.68057e-05 0)
(0.00142051 -5.50126e-05 0)
(0.00142956 -5.30349e-05 0)
(0.00143859 -5.08575e-05 0)
(0.00144761 -4.84633e-05 0)
(0.00145663 -4.5832e-05 0)
(0.000638568 -0.000243339 0)
(0.000633052 -0.000246228 0)
(0.000627626 -0.00024911 0)
(0.000622275 -0.000251991 0)
(0.000616994 -0.000254873 0)
(0.00061178 -0.000257755 0)
(0.000606632 -0.000260637 0)
(0.000601549 -0.00026352 0)
(0.000596529 -0.000266402 0)
(0.000591574 -0.000269282 0)
(0.00058668 -0.000272161 0)
(0.000581849 -0.000275036 0)
(0.00057708 -0.000277907 0)
(0.00057237 -0.000280773 0)
(0.00056772 -0.000283633 0)
(0.000563129 -0.000286487 0)
(0.000558595 -0.000289335 0)
(0.000554117 -0.000292174 0)
(0.000549694 -0.000295005 0)
(0.000545325 -0.000297828 0)
(0.000541009 -0.00030064 0)
(0.000536745 -0.000303441 0)
(0.000532532 -0.000306232 0)
(0.000528366 -0.000309012 0)
(0.000524248 -0.000311779 0)
(0.000520175 -0.000314534 0)
(0.000516147 -0.000317277 0)
(0.000512163 -0.000320005 0)
(0.000508222 -0.00032272 0)
(0.000504321 -0.000325421 0)
(0.000500456 -0.000328107 0)
(0.00049663 -0.000330785 0)
(0.000492837 -0.000333452 0)
(0.000489076 -0.000336097 0)
(0.000485352 -0.000338721 0)
(0.000481663 -0.000341326 0)
(0.000477998 -0.000343922 0)
(0.000474357 -0.000346503 0)
(0.000470742 -0.000349068 0)
(0.00046715 -0.000351618 0)
(0.000463579 -0.000354153 0)
(0.000460029 -0.000356672 0)
(0.000456497 -0.000359175 0)
(0.00045298 -0.000361663 0)
(0.000449479 -0.000364136 0)
(0.000445989 -0.000366594 0)
(0.000442511 -0.000369037 0)
(0.000439041 -0.000371465 0)
(0.000435577 -0.000373879 0)
(0.000432119 -0.000376279 0)
(0.000428662 -0.000378665 0)
(0.000425207 -0.000381038 0)
(0.000421749 -0.000383399 0)
(0.000418291 -0.000385742 0)
(0.000414829 -0.000388071 0)
(0.000411359 -0.000390393 0)
(0.000407878 -0.000392703 0)
(0.000404387 -0.000395003 0)
(0.000400882 -0.000397293 0)
(0.000397363 -0.000399572 0)
(0.000393826 -0.000401842 0)
(0.000390271 -0.000404104 0)
(0.000386695 -0.000406357 0)
(0.000383096 -0.000408603 0)
(0.000379472 -0.000410843 0)
(0.00037582 -0.000413076 0)
(0.000372137 -0.000415307 0)
(0.000368421 -0.000417535 0)
(0.000364673 -0.000419758 0)
(0.000360888 -0.000421979 0)
(0.000357066 -0.000424199 0)
(0.000353202 -0.00042642 0)
(0.000349296 -0.000428641 0)
(0.000345344 -0.000430866 0)
(0.000341344 -0.000433091 0)
(0.000337295 -0.00043532 0)
(0.000333196 -0.000437558 0)
(0.000329041 -0.000439805 0)
(0.00032483 -0.000442063 0)
(1.86065e-05 -0.000580923 -2.91203e-22)
(4.09891e-05 -0.000580314 -5.47208e-22)
(6.33417e-05 -0.000579353 1.76996e-21)
(8.56754e-05 -0.000578026 -1.60361e-22)
(0.000107967 -0.000576325 1.294e-21)
(0.000130199 -0.000574257 8.58164e-22)
(0.00015236 -0.000571827 -1.62005e-21)
(0.000174435 -0.000569042 -1.02937e-21)
(0.000196411 -0.000565908 -5.08818e-22)
(0.000218276 -0.000562431 -1.83467e-21)
(0.000240018 -0.000558621 -7.35916e-22)
(0.000261625 -0.000554487 2.47478e-21)
(0.000283084 -0.000550038 -1.22488e-22)
(0.000304385 -0.000545284 1.16969e-22)
(0.000325517 -0.000540236 -4.60297e-22)
(0.000346468 -0.000534906 -2.37103e-22)
(0.000367228 -0.000529304 7.08667e-22)
(0.000387789 -0.000523444 -2.19145e-21)
(0.000408139 -0.000517336 -1.73176e-21)
(0.000428271 -0.000510993 5.82148e-23)
(0.000448176 -0.000504427 6.54903e-23)
(0.000467844 -0.000497651 1.69977e-21)
(0.000487269 -0.000490677 -1.24852e-22)
(0.000506443 -0.000483516 -3.56816e-21)
(0.000525358 -0.000476181 -1.77158e-22)
(0.000544009 -0.000468683 1.8122e-21)
(0.000562388 -0.000461035 -1.84447e-21)
(0.000580491 -0.000453246 -2.77882e-22)
(0.00059831 -0.000445328 1.8089e-21)
(0.000615841 -0.000437292 -4.21765e-22)
(0.000633079 -0.000429147 -2.24207e-21)
(0.00065002 -0.000420903 7.56118e-25)
(0.000666658 -0.00041257 1.82106e-21)
(0.000682991 -0.000404156 -2.94309e-21)
(0.000699013 -0.00039567 6.56524e-22)
(0.000714723 -0.000387119 1.81244e-21)
(0.000730116 -0.000378511 -1.12759e-21)
(0.000745189 -0.000369853 3.1024e-21)
(0.00075994 -0.000361152 3.86429e-21)
(0.000788464 -0.000343641 -9.82122e-22)
(0.000802232 -0.000334843 -7.75682e-22)
(0.000815668 -0.000326023 -4.85437e-21)
(0.000828769 -0.000317184 -2.46547e-21)
(0.000841534 -0.000308332 4.0213e-21)
(0.000853961 -0.000299469 8.59556e-22)
(0.000866047 -0.000290598 2.33303e-21)
(0.00087779 -0.000281724 6.12075e-23)
(0.00088919 -0.000272847 -3.25012e-21)
(0.000900245 -0.000263971 3.73125e-21)
(0.000910952 -0.000255098 4.04382e-21)
(0.00092131 -0.000246229 -4.38615e-22)
(0.000931318 -0.000237367 -1.32216e-21)
(0.000940975 -0.000228511 -2.12734e-21)
(0.000950279 -0.000219665 -4.53308e-23)
(0.000959229 -0.000210827 4.78523e-23)
(0.000967824 -0.000202 1.04905e-21)
(0.000976063 -0.000193183 5.89608e-21)
(0.000983944 -0.000184378 -2.94336e-21)
(0.000991467 -0.000175584 -3.85029e-21)
(0.000998631 -0.000166801 2.80802e-21)
(0.00100544 -0.000158029 1.74934e-21)
(0.00101188 -0.000149269 4.7169e-23)
(0.00101796 -0.000140519 1.59201e-21)
(0.00102368 -0.00013178 1.96235e-22)
(0.00102903 -0.000123052 -3.14013e-21)
(0.00103402 -0.000114332 -9.44265e-22)
(0.00103865 -0.000105622 2.04707e-21)
(0.00104291 -9.69193e-05 2.04621e-21)
(0.00104681 -8.82244e-05 -1.86037e-21)
(0.00105034 -7.95361e-05 -1.86041e-21)
(0.0010535 -7.08534e-05 -9.86513e-22)
(0.00105629 -6.21755e-05 4.33822e-22)
(0.00105872 -5.35013e-05 1.01763e-21)
(0.00106077 -4.48297e-05 -1.74259e-21)
(0.00106246 -3.61591e-05 -5.91915e-22)
(0.00106377 -2.74854e-05 1.41676e-22)
(0.0010647 -1.87977e-05 -1.74433e-22)
(0.0010652 -1.00994e-05 9.16715e-22)
(0.000768866 -0.000344597 0)
(0.00076135 -0.000338558 0)
(0.000754229 -0.000332858 0)
(0.000747476 -0.000327473 0)
(0.000741067 -0.000322382 0)
(0.000734983 -0.000317566 0)
(0.000729208 -0.000313008 0)
(0.000723726 -0.000308691 0)
(0.000718523 -0.000304601 0)
(0.000713586 -0.000300724 0)
(0.000708902 -0.000297046 0)
(0.00070446 -0.000293555 0)
(0.000700249 -0.00029024 0)
(0.000696257 -0.000287091 0)
(0.000692476 -0.000284097 0)
(0.000688895 -0.000281249 0)
(0.000685506 -0.000278539 0)
(0.000682299 -0.000275958 0)
(0.000679267 -0.000273499 0)
(0.000676401 -0.000271154 0)
(0.000673695 -0.000268917 0)
(0.000671142 -0.000266782 0)
(0.000668734 -0.000264742 0)
(0.000666465 -0.000262793 0)
(0.00066433 -0.000260928 0)
(0.000662322 -0.000259143 0)
(0.000660436 -0.000257433 0)
(0.000658667 -0.000255794 0)
(0.000657009 -0.000254222 0)
(0.000655459 -0.000252714 0)
(0.000654011 -0.000251265 0)
(0.000652661 -0.000249872 0)
(0.000651406 -0.000248533 0)
(0.000650241 -0.000247245 0)
(0.000649165 -0.000246007 0)
(0.000648175 -0.000244816 0)
(0.000647272 -0.000243673 0)
(0.000646454 -0.000242578 0)
(0.000645717 -0.00024153 0)
(0.000768866 -0.000344597 0)
(0.00076135 -0.000338558 0)
(0.000754229 -0.000332858 0)
(0.000747476 -0.000327473 0)
(0.000741067 -0.000322382 0)
(0.000734983 -0.000317566 0)
(0.000729208 -0.000313008 0)
(0.000723726 -0.000308691 0)
(0.000718523 -0.000304601 0)
(0.000713586 -0.000300724 0)
(0.000708902 -0.000297046 0)
(0.00070446 -0.000293555 0)
(0.000700249 -0.00029024 0)
(0.000696257 -0.000287091 0)
(0.000692476 -0.000284097 0)
(0.000688895 -0.000281249 0)
(0.000685506 -0.000278539 0)
(0.000682299 -0.000275958 0)
(0.000679267 -0.000273499 0)
(0.000676401 -0.000271154 0)
(0.000673695 -0.000268917 0)
(0.000671142 -0.000266782 0)
(0.000668734 -0.000264742 0)
(0.000666465 -0.000262793 0)
(0.00066433 -0.000260928 0)
(0.000662322 -0.000259143 0)
(0.000660436 -0.000257433 0)
(0.000658667 -0.000255794 0)
(0.000657009 -0.000254222 0)
(0.000655459 -0.000252714 0)
(0.000654011 -0.000251265 0)
(0.000652661 -0.000249872 0)
(0.000651406 -0.000248533 0)
(0.000650241 -0.000247245 0)
(0.000649165 -0.000246007 0)
(0.000648175 -0.000244816 0)
(0.000647272 -0.000243673 0)
(0.000646454 -0.000242578 0)
(0.000645717 -0.00024153 0)
(0.000625534 -0.000253972 0)
(0.000607037 -0.00026695 0)
(0.000588482 -0.000280338 0)
(0.000569883 -0.000293985 0)
(0.000551296 -0.000307885 0)
(0.000532741 -0.00032202 0)
(0.000514238 -0.000336365 0)
(0.000495804 -0.000350897 0)
(0.000477457 -0.00036559 0)
(0.000459215 -0.000380414 0)
(0.000441093 -0.00039534 0)
(0.000423107 -0.000410336 0)
(0.000405273 -0.000425368 0)
(0.000387603 -0.0004404 0)
(0.00037011 -0.000455394 0)
(0.000352808 -0.000470312 0)
(0.000335705 -0.000485112 0)
(0.000318811 -0.000499751 0)
(0.000302135 -0.000514188 0)
(0.000285684 -0.000528375 0)
(0.000269462 -0.000542269 0)
(0.000253474 -0.000555823 0)
(0.000237723 -0.000568989 0)
(0.000222208 -0.000581721 0)
(0.000206928 -0.000593972 0)
(0.000191881 -0.000605695 0)
(0.000177063 -0.000616846 0)
(0.000162467 -0.000627378 0)
(0.000148084 -0.000637249 0)
(0.000133905 -0.000646417 0)
(0.000119918 -0.000654843 0)
(0.00010611 -0.00066249 0)
(9.24659e-05 -0.000669324 0)
(7.89686e-05 -0.000675313 0)
(6.56005e-05 -0.000680432 0)
(5.23422e-05 -0.000684656 0)
(3.91745e-05 -0.000687965 0)
(2.60757e-05 -0.000690342 0)
(1.30054e-05 -0.000691788 0)
(0 -0.000690562 0)
(0 -0.000688868 0)
(0 -0.000687157 0)
(0 -0.00068543 0)
(0 -0.000683687 0)
(0 -0.000681928 0)
(0 -0.000680151 0)
(0 -0.000678353 0)
(0 -0.000676533 0)
(0 -0.000674688 0)
(0 -0.000672815 0)
(0 -0.000670912 0)
(0 -0.000668974 0)
(0 -0.000666999 0)
(0 -0.000664984 0)
(0 -0.000662923 0)
(0 -0.000660812 0)
(0 -0.000658648 0)
(0 -0.000656424 0)
(0 -0.000654134 0)
(0 -0.000651774 0)
(0 -0.000649336 0)
(0 -0.000646813 0)
(0 -0.000644198 0)
(0 -0.000641481 0)
(0 -0.000638654 0)
(0 -0.000635708 0)
(0 -0.000632631 0)
(0 -0.000629411 0)
(0 -0.000626036 0)
(0 -0.000622493 0)
(0 -0.000618765 0)
(0 -0.000614838 0)
(0 -0.000610693 0)
(0 -0.000606311 0)
(0 -0.000601673 0)
(0 -0.00059675 0)
(0 -0.000591518 0)
(0 -0.000585981 0)
(1.86065e-05 -0.000580923 -2.91203e-22)
(4.09891e-05 -0.000580314 -5.47208e-22)
(6.33417e-05 -0.000579353 1.76996e-21)
(8.56754e-05 -0.000578026 -1.60361e-22)
(0.000107967 -0.000576325 1.294e-21)
(0.000130199 -0.000574257 8.58164e-22)
(0.00015236 -0.000571827 -1.62005e-21)
(0.000174435 -0.000569042 -1.02937e-21)
(0.000196411 -0.000565908 -5.08818e-22)
(0.000218276 -0.000562431 -1.83467e-21)
(0.000240018 -0.000558621 -7.35916e-22)
(0.000261625 -0.000554487 2.47478e-21)
(0.000283084 -0.000550038 -1.22488e-22)
(0.000304385 -0.000545284 1.16969e-22)
(0.000325517 -0.000540236 -4.60297e-22)
(0.000346468 -0.000534906 -2.37103e-22)
(0.000367228 -0.000529304 7.08667e-22)
(0.000387789 -0.000523444 -2.19145e-21)
(0.000408139 -0.000517336 -1.73176e-21)
(0.000428271 -0.000510993 5.82148e-23)
(0.000448176 -0.000504427 6.54903e-23)
(0.000467844 -0.000497651 1.69977e-21)
(0.000487269 -0.000490677 -1.24852e-22)
(0.000506443 -0.000483516 -3.56816e-21)
(0.000525358 -0.000476181 -1.77158e-22)
(0.000544009 -0.000468683 1.8122e-21)
(0.000562388 -0.000461035 -1.84447e-21)
(0.000580491 -0.000453246 -2.77882e-22)
(0.00059831 -0.000445328 1.8089e-21)
(0.000615841 -0.000437292 -4.21765e-22)
(0.000633079 -0.000429147 -2.24207e-21)
(0.00065002 -0.000420903 7.56118e-25)
(0.000666658 -0.00041257 1.82106e-21)
(0.000682991 -0.000404156 -2.94309e-21)
(0.000699013 -0.00039567 6.56524e-22)
(0.000714723 -0.000387119 1.81244e-21)