/*--------------------------------*- C++ -*----------------------------------*\
| =========                 |                                                 |
| \\      /  F ield         | OpenFOAM: The Open Source CFD Toolbox           |
|  \\    /   O peration     | Version:  v2012                                 |
|   \\  /    A nd           | Website:  www.openfoam.com                      |
|    \\/     M anipulation  |                                                 |
\*---------------------------------------------------------------------------*/
FoamFile
{
    version     2.0;
    format      ascii;
    class       volScalarField;
    location    "3";
    object      sigmaHyd;
}
// * * * * * * * * * * * * * * * * * * * * * * * * * * * * * * * * * * * * * //

dimensions      [1 -1 -2 0 0 0 0];


internalField   nonuniform List<scalar> 
32000
(
7.42017e+07
7.40882e+07
7.34175e+07
7.29933e+07
7.19389e+07
7.14243e+07
7.03416e+07
6.98459e+07
6.88213e+07
6.83524e+07
6.73734e+07
6.69222e+07
6.59753e+07
6.55386e+07
6.46211e+07
6.41986e+07
6.33107e+07
6.29024e+07
6.20435e+07
6.16486e+07
6.08173e+07
6.04351e+07
5.96298e+07
5.92598e+07
5.84791e+07
5.81205e+07
5.73632e+07
5.70154e+07
5.62803e+07
5.59429e+07
5.52286e+07
5.49011e+07
5.42068e+07
5.38887e+07
5.32132e+07
5.2904e+07
5.22464e+07
5.19457e+07
5.1305e+07
5.10125e+07
5.03878e+07
5.01031e+07
4.94936e+07
4.92162e+07
4.86211e+07
4.83508e+07
4.77693e+07
4.75057e+07
4.69371e+07
4.66799e+07
4.61235e+07
4.58724e+07
4.53275e+07
4.50822e+07
4.45482e+07
4.43085e+07
4.37846e+07
4.35502e+07
4.30359e+07
4.28066e+07
4.23013e+07
4.20767e+07
4.15798e+07
4.13598e+07
4.08705e+07
4.06549e+07
4.01726e+07
3.99611e+07
3.94848e+07
3.92774e+07
3.88062e+07
3.86027e+07
3.81354e+07
3.79357e+07
3.74695e+07
3.72714e+07
3.67994e+07
3.65979e+07
3.61117e+07
3.59067e+07
7.42372e+07
7.40699e+07
7.33868e+07
7.28888e+07
7.18825e+07
7.13102e+07
7.02962e+07
6.97458e+07
6.87867e+07
6.82636e+07
6.73456e+07
6.68416e+07
6.59529e+07
6.54653e+07
6.46036e+07
6.41322e+07
6.32975e+07
6.28422e+07
6.2034e+07
6.15941e+07
6.08113e+07
6.03859e+07
5.9627e+07
5.92155e+07
5.84794e+07
5.8081e+07
5.73664e+07
5.69806e+07
5.62863e+07
5.59124e+07
5.52374e+07
5.48749e+07
5.42182e+07
5.38666e+07
5.32272e+07
5.28859e+07
5.2263e+07
5.19315e+07
5.13241e+07
5.1002e+07
5.04094e+07
5.00963e+07
4.95176e+07
4.9213e+07
4.86476e+07
4.83512e+07
4.77982e+07
4.75097e+07
4.69685e+07
4.66874e+07
4.61573e+07
4.58834e+07
4.53638e+07
4.50968e+07
4.4587e+07
4.43266e+07
4.38261e+07
4.3572e+07
4.30801e+07
4.28322e+07
4.23483e+07
4.21064e+07
4.163e+07
4.13938e+07
4.09243e+07
4.06938e+07
4.02304e+07
4.00057e+07
3.95478e+07
3.93288e+07
3.88755e+07
3.8662e+07
3.82121e+07
3.80029e+07
3.7553e+07
3.73439e+07
3.68864e+07
3.66711e+07
3.62005e+07
3.59839e+07
7.40883e+07
7.3851e+07
7.31888e+07
7.26337e+07
7.16647e+07
7.10444e+07
7.00811e+07
6.94845e+07
6.85798e+07
6.80118e+07
6.71481e+07
6.66007e+07
6.57654e+07
6.52354e+07
6.44257e+07
6.39128e+07
6.31288e+07
6.26327e+07
6.18738e+07
6.1394e+07
6.06589e+07
6.01947e+07
5.94823e+07
5.90328e+07
5.83419e+07
5.79065e+07
5.72358e+07
5.68138e+07
5.61624e+07
5.57532e+07
5.51199e+07
5.4723e+07
5.41069e+07
5.37216e+07
5.31218e+07
5.27477e+07
5.21634e+07
5.17998e+07
5.12301e+07
5.08767e+07
5.03208e+07
4.99772e+07
4.94344e+07
4.91e+07
4.85695e+07
4.8244e+07
4.77252e+07
4.74083e+07
4.69005e+07
4.65917e+07
4.60943e+07
4.57933e+07
4.53057e+07
4.50123e+07
4.45338e+07
4.42476e+07
4.37778e+07
4.34986e+07
4.30368e+07
4.27644e+07
4.23102e+07
4.20444e+07
4.15972e+07
4.13377e+07
4.0897e+07
4.06436e+07
4.02091e+07
3.99615e+07
3.95325e+07
3.92903e+07
3.88662e+07
3.86286e+07
3.82078e+07
3.7973e+07
3.75514e+07
3.73153e+07
3.68844e+07
3.66426e+07
3.61986e+07
3.5955e+07
7.3785e+07
7.35023e+07
7.28651e+07
7.22699e+07
7.133e+07
7.06757e+07
6.97483e+07
6.91213e+07
6.82556e+07
6.76589e+07
6.68351e+07
6.62602e+07
6.54643e+07
6.49077e+07
6.41365e+07
6.35978e+07
6.28511e+07
6.23299e+07
6.16071e+07
6.11029e+07
6.04029e+07
5.99149e+07
5.92364e+07
5.87639e+07
5.81057e+07
5.7648e+07
5.70091e+07
5.65655e+07
5.59448e+07
5.55146e+07
5.49111e+07
5.44939e+07
5.39066e+07
5.35017e+07
5.29298e+07
5.25367e+07
5.19794e+07
5.15975e+07
5.10539e+07
5.06829e+07
5.01523e+07
4.97916e+07
4.92732e+07
4.89225e+07
4.84156e+07
4.80744e+07
4.75785e+07
4.72464e+07
4.67607e+07
4.64374e+07
4.59614e+07
4.56466e+07
4.51796e+07
4.48729e+07
4.44145e+07
4.41156e+07
4.36651e+07
4.33738e+07
4.29309e+07
4.26468e+07
4.22108e+07
4.19338e+07
4.15044e+07
4.12341e+07
4.08107e+07
4.05469e+07
4.01291e+07
3.98714e+07
3.94586e+07
3.92065e+07
3.87979e+07
3.85508e+07
3.81444e+07
3.79006e+07
3.74919e+07
3.72478e+07
3.68282e+07
3.65796e+07
3.61455e+07
3.58989e+07
7.33626e+07
7.30381e+07
7.24348e+07
7.18017e+07
7.08974e+07
7.02113e+07
6.93222e+07
6.86671e+07
6.7841e+07
6.72183e+07
6.64339e+07
6.58343e+07
6.50773e+07
6.4497e+07
6.37637e+07
6.32022e+07
6.24922e+07
6.1949e+07
6.12617e+07
6.07363e+07
6.00704e+07
5.95621e+07
5.89165e+07
5.84244e+07
5.7798e+07
5.73214e+07
5.67132e+07
5.62514e+07
5.56602e+07
5.52126e+07
5.46376e+07
5.42036e+07
5.36439e+07
5.32229e+07
5.26776e+07
5.2269e+07
5.17373e+07
5.13407e+07
5.08218e+07
5.04366e+07
4.99298e+07
4.95557e+07
4.90602e+07
4.86967e+07
4.82119e+07
4.78586e+07
4.73839e+07
4.70403e+07
4.65751e+07
4.62409e+07
4.57846e+07
4.54595e+07
4.50115e+07
4.46951e+07
4.4255e+07
4.3947e+07
4.35141e+07
4.32143e+07
4.27882e+07
4.24963e+07
4.20765e+07
4.17922e+07
4.13782e+07
4.11012e+07
4.06926e+07
4.04226e+07
4.00189e+07
3.97556e+07
3.93561e+07
3.90992e+07
3.8703e+07
3.84518e+07
3.8057e+07
3.78098e+07
3.74117e+07
3.71652e+07
3.67552e+07
3.65057e+07
3.60812e+07
3.58353e+07
7.28206e+07
7.24555e+07
7.18925e+07
7.1223e+07
7.03617e+07
6.96441e+07
6.87994e+07
6.81161e+07
6.7334e+07
6.66852e+07
6.59439e+07
6.53195e+07
6.46044e+07
6.40004e+07
6.33078e+07
6.27235e+07
6.20529e+07
6.14879e+07
6.08386e+07
6.02922e+07
5.96631e+07
5.91345e+07
5.85244e+07
5.80129e+07
5.74207e+07
5.69254e+07
5.63501e+07
5.58704e+07
5.5311e+07
5.48462e+07
5.43019e+07
5.38514e+07
5.33213e+07
5.28844e+07
5.23677e+07
5.1944e+07
5.14398e+07
5.10287e+07
5.05364e+07
5.01375e+07
4.96563e+07
4.9269e+07
4.87983e+07
4.84223e+07
4.79614e+07
4.75961e+07
4.71445e+07
4.67897e+07
4.63467e+07
4.60019e+07
4.5567e+07
4.52319e+07
4.48046e+07
4.44788e+07
4.40585e+07
4.37417e+07
4.33281e+07
4.302e+07
4.26124e+07
4.23129e+07
4.19109e+07
4.16195e+07
4.12227e+07
4.09392e+07
4.0547e+07
4.02712e+07
3.98832e+07
3.96147e+07
3.92303e+07
3.89688e+07
3.85869e+07
3.83318e+07
3.79506e+07
3.77003e+07
3.73151e+07
3.70663e+07
3.66688e+07
3.64179e+07
3.60057e+07
3.5759e+07
7.21605e+07
7.17571e+07
7.12373e+07
7.0534e+07
6.97195e+07
6.89724e+07
6.81757e+07
6.74655e+07
6.67309e+07
6.60568e+07
6.53616e+07
6.47133e+07
6.40427e+07
6.3416e+07
6.27664e+07
6.21602e+07
6.15312e+07
6.09452e+07
6.0336e+07
5.97694e+07
5.91791e+07
5.86311e+07
5.80583e+07
5.75281e+07
5.6972e+07
5.64588e+07
5.59183e+07
5.54213e+07
5.48956e+07
5.44142e+07
5.39024e+07
5.3436e+07
5.29372e+07
5.24851e+07
5.19987e+07
5.15604e+07
5.10855e+07
5.06605e+07
5.01964e+07
4.97841e+07
4.93303e+07
4.89303e+07
4.8486e+07
4.80978e+07
4.76625e+07
4.72858e+07
4.68588e+07
4.64931e+07
4.6074e+07
4.57188e+07
4.53071e+07
4.49621e+07
4.45572e+07
4.42222e+07
4.38235e+07
4.34982e+07
4.31054e+07
4.27893e+07
4.24019e+07
4.20949e+07
4.17123e+07
4.14141e+07
4.1036e+07
4.07463e+07
4.03723e+07
4.00908e+07
3.97202e+07
3.94467e+07
3.9079e+07
3.8813e+07
3.84474e+07
3.81884e+07
3.78228e+07
3.75693e+07
3.71992e+07
3.69479e+07
3.65651e+07
3.63125e+07
3.59146e+07
3.56669e+07
7.13867e+07
7.0947e+07
7.04719e+07
6.97376e+07
6.89724e+07
6.8198e+07
6.74518e+07
6.67167e+07
6.60317e+07
6.53342e+07
6.46872e+07
6.40167e+07
6.33925e+07
6.27445e+07
6.21398e+07
6.15132e+07
6.09274e+07
6.03218e+07
5.97542e+07
5.91688e+07
5.86186e+07
5.80525e+07
5.75186e+07
5.69709e+07
5.64522e+07
5.59223e+07
5.54179e+07
5.49049e+07
5.44141e+07
5.39173e+07
5.34391e+07
5.29579e+07
5.24917e+07
5.20255e+07
5.15705e+07
5.11186e+07
5.06742e+07
5.02362e+07
4.98016e+07
4.93769e+07
4.89515e+07
4.85397e+07
4.8123e+07
4.77236e+07
4.7315e+07
4.69275e+07
4.65264e+07
4.61505e+07
4.57565e+07
4.53917e+07
4.50042e+07
4.46502e+07
4.42688e+07
4.39253e+07
4.35494e+07
4.3216e+07
4.28453e+07
4.25218e+07
4.21557e+07
4.18418e+07
4.148e+07
4.11754e+07
4.08174e+07
4.05219e+07
4.01673e+07
3.98805e+07
3.95288e+07
3.92506e+07
3.89012e+07
3.86311e+07
3.82831e+07
3.80205e+07
3.76721e+07
3.74156e+07
3.70622e+07
3.68086e+07
3.64422e+07
3.61881e+07
3.58062e+07
3.55577e+07
7.05031e+07
7.00291e+07
6.95998e+07
6.8837e+07
6.8123e+07
6.7324e+07
6.663e+07
6.58723e+07
6.52385e+07
6.45199e+07
6.39225e+07
6.32317e+07
6.26555e+07
6.19881e+07
6.14295e+07
6.07844e+07
6.0243e+07
5.96195e+07
5.90948e+07
5.84922e+07
5.79833e+07
5.74006e+07
5.69065e+07
5.6343e+07
5.58628e+07
5.53175e+07
5.48503e+07
5.43225e+07
5.38676e+07
5.33567e+07
5.29133e+07
5.24185e+07
5.19859e+07
5.15066e+07
5.10841e+07
5.06198e+07
5.02068e+07
4.97568e+07
4.93527e+07
4.89166e+07
4.85208e+07
4.8098e+07
4.771e+07
4.73001e+07
4.69193e+07
4.65219e+07
4.61478e+07
4.57624e+07
4.53945e+07
4.50209e+07
4.46587e+07
4.42964e+07
4.39395e+07
4.35881e+07
4.32361e+07
4.28954e+07
4.25478e+07
4.22175e+07
4.1874e+07
4.15537e+07
4.12138e+07
4.09033e+07
4.05666e+07
4.02657e+07
3.99318e+07
3.96402e+07
3.93086e+07
3.9026e+07
3.86961e+07
3.84222e+07
3.80932e+07
3.78274e+07
3.74975e+07
3.72384e+07
3.6903e+07
3.66475e+07
3.62989e+07
3.60436e+07
3.56793e+07
3.54302e+07
6.95138e+07
6.90072e+07
6.86247e+07
6.7836e+07
6.71748e+07
6.63537e+07
6.57134e+07
6.49355e+07
6.43543e+07
6.36165e+07
6.30701e+07
6.2361e+07
6.1834e+07
6.11491e+07
6.06379e+07
5.99758e+07
5.94801e+07
5.88404e+07
5.83597e+07
5.77414e+07
5.72749e+07
5.66772e+07
5.6224e+07
5.56459e+07
5.52052e+07
5.4646e+07
5.4217e+07
5.36758e+07
5.32578e+07
5.27339e+07
5.23262e+07
5.1819e+07
5.14209e+07
5.09297e+07
5.05407e+07
5.00649e+07
4.96844e+07
4.92234e+07
4.88508e+07
4.84042e+07
4.80388e+07
4.76061e+07
4.72476e+07
4.68282e+07
4.64761e+07
4.60697e+07
4.57234e+07
4.53295e+07
4.49886e+07
4.46069e+07
4.4271e+07
4.3901e+07
4.35697e+07
4.32112e+07
4.2884e+07
4.25366e+07
4.22132e+07
4.18766e+07
4.15566e+07
4.12306e+07
4.09135e+07
4.05978e+07
4.02833e+07
3.99776e+07
3.96654e+07
3.93695e+07
3.9059e+07
3.87726e+07
3.84633e+07
3.8186e+07
3.78772e+07
3.76085e+07
3.72983e+07
3.70368e+07
3.67208e+07
3.64636e+07
3.61342e+07
3.58778e+07
3.55327e+07
3.52832e+07
6.84227e+07
6.78854e+07
6.75504e+07
6.67383e+07
6.61314e+07
6.52906e+07
6.47053e+07
6.39094e+07
6.3382e+07
6.26272e+07
6.21328e+07
6.14074e+07
6.09307e+07
6.02301e+07
5.97673e+07
5.90901e+07
5.86411e+07
5.79867e+07
5.7551e+07
5.69186e+07
5.64955e+07
5.58842e+07
5.54729e+07
5.48817e+07
5.44814e+07
5.39095e+07
5.35196e+07
5.29663e+07
5.2586e+07
5.20505e+07
5.16793e+07
5.11609e+07
5.07982e+07
5.02962e+07
4.99415e+07
4.94554e+07
4.91081e+07
4.86372e+07
4.82968e+07
4.78407e+07
4.75067e+07
4.70649e+07
4.67368e+07
4.63088e+07
4.59862e+07
4.55716e+07
4.5254e+07
4.48523e+07
4.45394e+07
4.41503e+07
4.38415e+07
4.34646e+07
4.31598e+07
4.27947e+07
4.24933e+07
4.21398e+07
4.18415e+07
4.14992e+07
4.12036e+07
4.08724e+07
4.05792e+07
4.02586e+07
3.99675e+07
3.96573e+07
3.93679e+07
3.90679e+07
3.87797e+07
3.84897e+07
3.82022e+07
3.79218e+07
3.76342e+07
3.73629e+07
3.70736e+07
3.68099e+07
3.65146e+07
3.62557e+07
3.59469e+07
3.56896e+07
3.5365e+07
3.51151e+07
6.72342e+07
6.66681e+07
6.6381e+07
6.55481e+07
6.49965e+07
6.41387e+07
6.36094e+07
6.27979e+07
6.23251e+07
6.15554e+07
6.11138e+07
6.03742e+07
5.99484e+07
5.9234e+07
5.88204e+07
5.813e+07
5.77284e+07
5.70612e+07
5.66711e+07
5.60264e+07
5.56473e+07
5.5024e+07
5.46553e+07
5.40524e+07
5.36933e+07
5.31102e+07
5.27601e+07
5.21959e+07
5.18542e+07
5.13081e+07
5.09743e+07
5.04458e+07
5.01192e+07
4.96076e+07
4.92879e+07
4.87925e+07
4.84791e+07
4.79994e+07
4.7692e+07
4.72274e+07
4.69254e+07
4.64755e+07
4.61785e+07
4.57427e+07
4.54504e+07
4.50284e+07
4.47403e+07
4.43316e+07
4.40473e+07
4.36516e+07
4.33708e+07
4.29876e+07
4.271e+07
4.2339e+07
4.20642e+07
4.17052e+07
4.14328e+07
4.10854e+07
4.08152e+07
4.04791e+07
4.02107e+07
3.98857e+07
3.96188e+07
3.93046e+07
3.90388e+07
3.87352e+07
3.84702e+07
3.81769e+07
3.79122e+07
3.76289e+07
3.73637e+07
3.70898e+07
3.68225e+07
3.65568e+07
3.62832e+07
3.60228e+07
3.57358e+07
3.54776e+07
3.51749e+07
3.49246e+07
6.59527e+07
6.53599e+07
6.5121e+07
6.42699e+07
6.37744e+07
6.2902e+07
6.24294e+07
6.16046e+07
6.1187e+07
6.04046e+07
6.00164e+07
5.92646e+07
5.88904e+07
5.81642e+07
5.78003e+07
5.70985e+07
5.67448e+07
5.60665e+07
5.57227e+07
5.50671e+07
5.47328e+07
5.4099e+07
5.37734e+07
5.31604e+07
5.2843e+07
5.22501e+07
5.19403e+07
5.13666e+07
5.1064e+07
5.05088e+07
5.02128e+07
4.96754e+07
4.93856e+07
4.88654e+07
4.85813e+07
4.80777e+07
4.7799e+07
4.73114e+07
4.70375e+07
4.65654e+07
4.6296e+07
4.58389e+07
4.55737e+07
4.5131e+07
4.48696e+07
4.4441e+07
4.4183e+07
4.3768e+07
4.35131e+07
4.31114e+07
4.28593e+07
4.24705e+07
4.22208e+07
4.18446e+07
4.15971e+07
4.1233e+07
4.09874e+07
4.06353e+07
4.03912e+07
4.00508e+07
3.98079e+07
3.94789e+07
3.92371e+07
3.89192e+07
3.8678e+07
3.8371e+07
3.81301e+07
3.78338e+07
3.75927e+07
3.73067e+07
3.70648e+07
3.67885e+07
3.65442e+07
3.62765e+07
3.60258e+07
3.57639e+07
3.54998e+07
3.52408e+07
3.49611e+07
3.47104e+07
6.45832e+07
6.39657e+07
6.37749e+07
6.29083e+07
6.24694e+07
6.1585e+07
6.11696e+07
6.03338e+07
5.99717e+07
5.91788e+07
5.88443e+07
5.80823e+07
5.776e+07
5.70239e+07
5.67101e+07
5.59986e+07
5.56933e+07
5.50056e+07
5.47085e+07
5.40438e+07
5.37545e+07
5.31118e+07
5.28297e+07
5.22081e+07
5.19328e+07
5.13315e+07
5.10625e+07
5.04807e+07
5.02175e+07
4.96544e+07
4.93967e+07
4.88517e+07
4.8599e+07
4.80715e+07
4.78235e+07
4.73127e+07
4.7069e+07
4.65746e+07
4.63348e+07
4.5856e+07
4.56199e+07
4.51564e+07
4.49235e+07
4.44747e+07
4.42448e+07
4.38104e+07
4.35831e+07
4.31626e+07
4.29376e+07
4.25307e+07
4.23078e+07
4.1914e+07
4.16929e+07
4.13119e+07
4.10923e+07
4.07238e+07
4.05055e+07
4.01493e+07
3.99319e+07
3.95876e+07
3.9371e+07
3.90384e+07
3.88222e+07
3.8501e+07
3.82851e+07
3.79751e+07
3.7759e+07
3.74599e+07
3.72433e+07
3.69547e+07
3.67369e+07
3.64585e+07
3.6238e+07
3.59684e+07
3.57414e+07
3.54781e+07
3.52378e+07
3.49779e+07
3.47224e+07
3.44713e+07
6.31307e+07
6.24905e+07
6.23477e+07
6.14681e+07
6.10862e+07
6.01922e+07
5.98342e+07
5.89897e+07
5.86833e+07
5.7882e+07
5.76013e+07
5.68311e+07
5.65608e+07
5.58167e+07
5.55533e+07
5.4834e+07
5.45771e+07
5.38818e+07
5.36315e+07
5.29593e+07
5.27153e+07
5.20652e+07
5.1827e+07
5.11982e+07
5.09652e+07
5.03569e+07
5.01289e+07
4.95403e+07
4.93169e+07
4.87472e+07
4.85281e+07
4.79766e+07
4.77614e+07
4.72276e+07
4.7016e+07
4.64992e+07
4.62909e+07
4.57906e+07
4.55852e+07
4.51009e+07
4.48982e+07
4.44293e+07
4.42291e+07
4.37751e+07
4.3577e+07
4.31376e+07
4.29414e+07
4.25162e+07
4.23216e+07
4.191e+07
4.17168e+07
4.13187e+07
4.11266e+07
4.07415e+07
4.05504e+07
4.0178e+07
3.99875e+07
3.96276e+07
3.94376e+07
3.90898e+07
3.89e+07
3.85641e+07
3.83743e+07
3.80501e+07
3.78601e+07
3.75472e+07
3.73566e+07
3.70549e+07
3.68634e+07
3.65725e+07
3.63795e+07
3.6099e+07
3.5903e+07
3.56316e+07
3.54291e+07
3.51644e+07
3.49489e+07
3.46881e+07
3.44575e+07
3.42059e+07
6.16004e+07
6.09397e+07
6.08445e+07
5.99543e+07
5.96294e+07
5.87283e+07
5.84277e+07
5.75768e+07
5.7326e+07
5.65184e+07
5.62913e+07
5.5515e+07
5.52966e+07
5.45465e+07
5.43332e+07
5.36079e+07
5.33996e+07
5.26983e+07
5.24949e+07
5.18168e+07
5.16181e+07
5.09622e+07
5.07678e+07
5.01333e+07
4.99429e+07
4.93289e+07
4.91421e+07
4.8548e+07
4.83645e+07
4.77894e+07
4.7609e+07
4.70523e+07
4.68748e+07
4.63358e+07
4.61608e+07
4.56391e+07
4.54663e+07
4.49612e+07
4.47905e+07
4.43015e+07
4.41326e+07
4.36591e+07
4.34919e+07
4.30335e+07
4.28676e+07
4.2424e+07
4.22592e+07
4.18299e+07
4.1666e+07
4.12505e+07
4.10874e+07
4.06855e+07
4.05229e+07
4.01342e+07
3.99719e+07
3.95961e+07
3.94339e+07
3.90707e+07
3.89085e+07
3.85576e+07
3.83951e+07
3.80563e+07
3.78934e+07
3.75664e+07
3.74028e+07
3.70874e+07
3.69228e+07
3.66187e+07
3.64529e+07
3.61598e+07
3.59922e+07
3.57096e+07
3.55388e+07
3.52657e+07
3.50883e+07
3.48222e+07
3.46321e+07
3.43704e+07
3.41656e+07
3.39134e+07
5.99976e+07
5.93184e+07
5.92702e+07
5.8372e+07
5.81041e+07
5.71982e+07
5.69548e+07
5.60996e+07
5.59041e+07
5.50922e+07
5.49186e+07
5.4138e+07
5.39713e+07
5.3217e+07
5.30537e+07
5.23241e+07
5.21641e+07
5.14586e+07
5.13019e+07
5.06195e+07
5.0466e+07
4.98059e+07
4.96552e+07
4.90165e+07
4.88684e+07
4.82502e+07
4.81046e+07
4.75062e+07
4.73627e+07
4.67834e+07
4.66418e+07
4.6081e+07
4.59412e+07
4.53982e+07
4.52599e+07
4.47342e+07
4.45972e+07
4.40882e+07
4.39523e+07
4.34595e+07
4.33245e+07
4.28474e+07
4.27132e+07
4.22514e+07
4.21178e+07
4.16707e+07
4.15375e+07
4.11048e+07
4.09719e+07
4.05532e+07
4.04203e+07
4.00153e+07
3.98824e+07
3.94907e+07
3.93575e+07
3.89788e+07
3.88452e+07
3.84792e+07
3.83451e+07
3.79916e+07
3.78567e+07
3.75153e+07
3.73796e+07
3.70502e+07
3.69133e+07
3.65956e+07
3.64575e+07
3.61512e+07
3.60115e+07
3.57164e+07
3.55746e+07
3.52901e+07
3.51449e+07
3.48701e+07
3.47184e+07
3.44509e+07
3.42867e+07
3.40241e+07
3.38457e+07
3.35928e+07
5.83277e+07
5.76322e+07
5.76303e+07
5.67265e+07
5.6515e+07
5.56067e+07
5.54201e+07
5.45627e+07
5.4422e+07
5.36079e+07
5.34873e+07
5.27043e+07
5.25889e+07
5.18321e+07
5.17185e+07
5.09863e+07
5.08744e+07
5.01661e+07
5.00559e+07
4.93708e+07
4.92623e+07
4.85993e+07
4.84922e+07
4.78506e+07
4.77447e+07
4.71236e+07
4.70189e+07
4.64176e+07
4.63139e+07
4.57317e+07
4.56288e+07
4.50651e+07
4.49628e+07
4.4417e+07
4.43152e+07
4.37866e+07
4.36853e+07
4.31734e+07
4.30723e+07
4.25767e+07
4.24757e+07
4.19957e+07
4.18947e+07
4.14301e+07
4.13289e+07
4.08791e+07
4.07776e+07
4.03423e+07
4.02404e+07
3.98191e+07
3.97167e+07
3.93092e+07
3.9206e+07
3.88119e+07
3.87079e+07
3.83269e+07
3.8222e+07
3.78538e+07
3.77479e+07
3.73921e+07
3.7285e+07
3.69415e+07
3.68332e+07
3.65017e+07
3.63919e+07
3.60721e+07
3.59607e+07
3.56525e+07
3.55391e+07
3.52421e+07
3.51264e+07
3.48402e+07
3.4721e+07
3.44445e+07
3.43188e+07
3.40499e+07
3.39121e+07
3.36487e+07
3.3497e+07
3.32433e+07
5.65962e+07
5.58864e+07
5.593e+07
5.50229e+07
5.48674e+07
5.39588e+07
5.38283e+07
5.29709e+07
5.28844e+07
5.20699e+07
5.20016e+07
5.1218e+07
5.11534e+07
5.03958e+07
5.03313e+07
4.95983e+07
4.95338e+07
4.88246e+07
4.87604e+07
4.8074e+07
4.801e+07
4.73457e+07
4.72818e+07
4.66386e+07
4.65747e+07
4.5952e+07
4.5888e+07
4.5285e+07
4.52208e+07
4.46369e+07
4.45724e+07
4.40069e+07
4.3942e+07
4.33943e+07
4.3329e+07
4.27985e+07
4.27327e+07
4.22189e+07
4.21525e+07
4.16549e+07
4.15878e+07
4.11059e+07
4.10379e+07
4.05713e+07
4.05025e+07
4.00508e+07
3.9981e+07
3.95437e+07
3.94728e+07
3.90496e+07
3.89776e+07
3.85681e+07
3.84948e+07
3.80988e+07
3.80242e+07
3.76413e+07
3.75652e+07
3.71951e+07
3.71175e+07
3.676e+07
3.66808e+07
3.63355e+07
3.62547e+07
3.59214e+07
3.58388e+07
3.55172e+07
3.54326e+07
3.51227e+07
3.50359e+07
3.47371e+07
3.46478e+07
3.43598e+07
3.42668e+07
3.39888e+07
3.38893e+07
3.36192e+07
3.3508e+07
3.32436e+07
3.31191e+07
3.28646e+07
5.48086e+07
5.40866e+07
5.41747e+07
5.32665e+07
5.31662e+07
5.22595e+07
5.21844e+07
5.13289e+07
5.12957e+07
5.04827e+07
5.04659e+07
4.96836e+07
4.96689e+07
4.89123e+07
4.88962e+07
4.81639e+07
4.81463e+07
4.74375e+07
4.74187e+07
4.67326e+07
4.67126e+07
4.60483e+07
4.60271e+07
4.53838e+07
4.53614e+07
4.47383e+07
4.47146e+07
4.41111e+07
4.40861e+07
4.35015e+07
4.34752e+07
4.29089e+07
4.28812e+07
4.23326e+07
4.23035e+07
4.17721e+07
4.17416e+07
4.12268e+07
4.11948e+07
4.06961e+07
4.06626e+07
4.01796e+07
4.01446e+07
3.96768e+07
3.96402e+07
3.91872e+07
3.9149e+07
3.87104e+07
3.86704e+07
3.8246e+07
3.82042e+07
3.77935e+07
3.775e+07
3.73526e+07
3.73072e+07
3.69229e+07
3.68756e+07
3.65041e+07
3.64549e+07
3.60959e+07
3.60446e+07
3.56979e+07
3.56446e+07
3.53098e+07
3.52544e+07
3.49314e+07
3.48736e+07
3.45621e+07
3.4502e+07
3.42017e+07
3.41387e+07
3.38492e+07
3.37825e+07
3.3503e+07
3.34299e+07
3.31585e+07
3.30741e+07
3.28088e+07
3.27116e+07
3.24561e+07
5.29704e+07
5.22382e+07
5.23695e+07
5.14625e+07
5.14165e+07
5.05138e+07
5.0493e+07
4.96413e+07
4.96604e+07
4.88508e+07
4.88845e+07
4.81052e+07
4.81395e+07
4.73855e+07
4.7417e+07
4.66869e+07
4.67155e+07
4.60086e+07
4.60346e+07
4.53501e+07
4.53735e+07
4.47105e+07
4.47314e+07
4.40892e+07
4.41077e+07
4.34855e+07
4.35015e+07
4.28988e+07
4.29124e+07
4.23283e+07
4.23396e+07
4.17737e+07
4.17827e+07
4.12343e+07
4.1241e+07
4.07096e+07
4.0714e+07
4.01991e+07
4.02012e+07
3.97024e+07
3.97022e+07
3.92189e+07
3.92165e+07
3.87483e+07
3.87436e+07
3.82901e+07
3.82832e+07
3.7844e+07
3.78348e+07
3.74096e+07
3.7398e+07
3.69865e+07
3.69726e+07
3.65744e+07
3.65581e+07
3.61729e+07
3.61543e+07
3.57818e+07
3.57608e+07
3.54007e+07
3.53773e+07
3.50294e+07
3.50036e+07
3.46677e+07
3.46393e+07
3.43151e+07
3.42842e+07
3.39714e+07
3.39378e+07
3.36361e+07
3.35995e+07
3.33087e+07
3.32682e+07
3.29873e+07
3.29405e+07
3.26679e+07
3.26104e+07
3.23441e+07
3.22742e+07
3.20179e+07
5.1087e+07
5.03465e+07
5.05199e+07
4.96161e+07
4.96233e+07
4.87265e+07
4.8759e+07
4.79129e+07
4.79833e+07
4.71786e+07
4.72618e+07
4.6487e+07
4.65694e+07
4.58196e+07
4.58976e+07
4.51714e+07
4.52451e+07
4.45416e+07
4.46114e+07
4.39299e+07
4.39959e+07
4.33356e+07
4.33979e+07
4.27581e+07
4.28167e+07
4.21967e+07
4.22518e+07
4.16508e+07
4.17025e+07
4.11201e+07
4.11685e+07
4.06039e+07
4.0649e+07
4.01018e+07
4.01438e+07
3.96134e+07
3.96522e+07
3.91381e+07
3.91739e+07
3.86757e+07
3.87085e+07
3.82257e+07
3.82555e+07
3.77876e+07
3.78145e+07
3.73613e+07
3.73852e+07
3.69462e+07
3.69673e+07
3.65421e+07
3.65603e+07
3.61486e+07
3.6164e+07
3.57655e+07
3.57781e+07
3.53925e+07
3.54022e+07
3.50293e+07
3.50362e+07
3.46756e+07
3.46797e+07
3.43312e+07
3.43325e+07
3.39958e+07
3.39944e+07
3.36692e+07
3.36649e+07
3.33511e+07
3.33438e+07
3.30411e+07
3.30306e+07
3.27386e+07
3.27241e+07
3.2442e+07
3.24215e+07
3.21478e+07
3.21169e+07
3.18499e+07
3.18072e+07
3.15501e+07
4.91638e+07
4.84169e+07
4.86311e+07
4.77324e+07
4.77915e+07
4.69026e+07
4.69871e+07
4.61483e+07
4.62686e+07
4.54706e+07
4.56021e+07
4.48334e+07
4.49626e+07
4.42184e+07
4.4342e+07
4.36209e+07
4.37389e+07
4.30402e+07
4.31529e+07
4.24757e+07
4.25834e+07
4.1927e+07
4.20298e+07
4.13935e+07
4.14916e+07
4.08748e+07
4.09682e+07
4.03702e+07
4.04593e+07
3.98795e+07
3.99643e+07
3.94021e+07
3.94828e+07
3.89377e+07
3.90143e+07
3.84858e+07
3.85585e+07
3.80461e+07
3.81151e+07
3.76183e+07
3.76835e+07
3.72019e+07
3.72635e+07
3.67967e+07
3.68547e+07
3.64024e+07
3.64569e+07
3.60185e+07
3.60696e+07
3.5645e+07
3.56926e+07
3.52813e+07
3.53257e+07
3.49274e+07
3.49685e+07
3.4583e+07
3.46208e+07
3.42478e+07
3.42824e+07
3.39215e+07
3.3953e+07
3.36041e+07
3.36324e+07
3.32952e+07
3.33203e+07
3.29946e+07
3.30166e+07
3.2702e+07
3.27208e+07
3.24172e+07
3.24326e+07
3.21396e+07
3.2151e+07
3.18678e+07
3.18732e+07
3.15986e+07
3.15942e+07
3.13264e+07
3.13107e+07
3.10528e+07
4.7206e+07
4.64546e+07
4.67081e+07
4.58163e+07
4.59262e+07
4.50467e+07
4.51819e+07
4.43521e+07
4.4521e+07
4.37311e+07
4.39095e+07
4.31484e+07
4.33232e+07
4.25861e+07
4.27541e+07
4.20395e+07
4.22006e+07
4.15079e+07
4.16625e+07
4.09909e+07
4.11392e+07
4.0488e+07
4.06303e+07
3.99988e+07
4.01354e+07
3.95229e+07
3.96539e+07
3.90599e+07
3.91855e+07
3.86093e+07
3.87298e+07
3.81709e+07
3.82864e+07
3.77444e+07
3.7855e+07
3.73293e+07
3.74353e+07
3.69253e+07
3.70268e+07
3.65323e+07
3.66293e+07
3.61498e+07
3.62425e+07
3.57776e+07
3.58662e+07
3.54154e+07
3.54999e+07
3.50629e+07
3.51434e+07
3.472e+07
3.47966e+07
3.43863e+07
3.44591e+07
3.40617e+07
3.41307e+07
3.37458e+07
3.38113e+07
3.34386e+07
3.35005e+07
3.31399e+07
3.31982e+07
3.28493e+07
3.29042e+07
3.25668e+07
3.26182e+07
3.22922e+07
3.23401e+07
3.20251e+07
3.20696e+07
3.17654e+07
3.18063e+07
3.15125e+07
3.15493e+07
3.12654e+07
3.12964e+07
3.1021e+07
3.10427e+07
3.07744e+07
3.07853e+07
3.05266e+07
4.52188e+07
4.44645e+07
4.47559e+07
4.38729e+07
4.4032e+07
4.31637e+07
4.3348e+07
4.25286e+07
4.27447e+07
4.19643e+07
4.21884e+07
4.14361e+07
4.16553e+07
4.09266e+07
4.11376e+07
4.04309e+07
4.06338e+07
3.99484e+07
4.01437e+07
3.94789e+07
3.96668e+07
3.90219e+07
3.92028e+07
3.85771e+07
3.87512e+07
3.81441e+07
3.83117e+07
3.77226e+07
3.78839e+07
3.73124e+07
3.74677e+07
3.69131e+07
3.70626e+07
3.65245e+07
3.66684e+07
3.61463e+07
3.62848e+07
3.57782e+07
3.59114e+07
3.54199e+07
3.55482e+07
3.50714e+07
3.51947e+07
3.47322e+07
3.48507e+07
3.44022e+07
3.45161e+07
3.40812e+07
3.41906e+07
3.37689e+07
3.38739e+07
3.34651e+07
3.35659e+07
3.31697e+07
3.32663e+07
3.28825e+07
3.29751e+07
3.26033e+07
3.26919e+07
3.2332e+07
3.24166e+07
3.20683e+07
3.21491e+07
3.18121e+07
3.18892e+07
3.15632e+07
3.16366e+07
3.13215e+07
3.13912e+07
3.10867e+07
3.11526e+07
3.08584e+07
3.09201e+07
3.06356e+07
3.06917e+07
3.04158e+07
3.04631e+07
3.01944e+07
3.02315e+07
2.99723e+07
4.32072e+07
4.24517e+07
4.27794e+07
4.19068e+07
4.21136e+07
4.12579e+07
4.14898e+07
4.06823e+07
4.0944e+07
4.01746e+07
4.04427e+07
3.97007e+07
3.99628e+07
3.92436e+07
3.94964e+07
3.87987e+07
3.90423e+07
3.83653e+07
3.86001e+07
3.79431e+07
3.81695e+07
3.75319e+07
3.77503e+07
3.71314e+07
3.7342e+07
3.67413e+07
3.69445e+07
3.63614e+07
3.65575e+07
3.59915e+07
3.61807e+07
3.56313e+07
3.58139e+07
3.52806e+07
3.54569e+07
3.49392e+07
3.51094e+07
3.46069e+07
3.47712e+07
3.42835e+07
3.44422e+07
3.39688e+07
3.4122e+07
3.36627e+07
3.38105e+07
3.33648e+07
3.35075e+07
3.30752e+07
3.32128e+07
3.27935e+07
3.29263e+07
3.25196e+07
3.26477e+07
3.22534e+07
3.23769e+07
3.19947e+07
3.21137e+07
3.17434e+07
3.1858e+07
3.14993e+07
3.16097e+07
3.12623e+07
3.13686e+07
3.10322e+07
3.11345e+07
3.0809e+07
3.09073e+07
3.05924e+07
3.06868e+07
3.03822e+07
3.04727e+07
3.01782e+07
3.02644e+07
2.99796e+07
3.00603e+07
2.9784e+07
2.98565e+07
2.95876e+07
2.96503e+07
2.93907e+07
4.11759e+07
4.04209e+07
4.07833e+07
3.99227e+07
4.01755e+07
3.93338e+07
3.96117e+07
3.88175e+07
3.91231e+07
3.83659e+07
3.86765e+07
3.79459e+07
3.82494e+07
3.7541e+07
3.78342e+07
3.71466e+07
3.74295e+07
3.6762e+07
3.7035e+07
3.6387e+07
3.66506e+07
3.60214e+07
3.6276e+07
3.5665e+07
3.5911e+07
3.53177e+07
3.55554e+07
3.49792e+07
3.52089e+07
3.46494e+07
3.48715e+07
3.43281e+07
3.45429e+07
3.40152e+07
3.4223e+07
3.37105e+07
3.39116e+07
3.34139e+07
3.36085e+07
3.31253e+07
3.33135e+07
3.28444e+07
3.30266e+07
3.25711e+07
3.27474e+07
3.23053e+07
3.2476e+07
3.20469e+07
3.22121e+07
3.17957e+07
3.19555e+07
3.15515e+07
3.17062e+07
3.13144e+07
3.14641e+07
3.1084e+07
3.12289e+07
3.08604e+07
3.10005e+07
3.06434e+07
3.0779e+07
3.04328e+07
3.0564e+07
3.02287e+07
3.03555e+07
3.00308e+07
3.01534e+07
2.98391e+07
2.99575e+07
2.96533e+07
2.97676e+07
2.94733e+07
2.95833e+07
2.92985e+07
2.94031e+07
2.91269e+07
2.92238e+07
2.8955e+07
2.90426e+07
2.87829e+07
3.91297e+07
3.83767e+07
3.87722e+07
3.79249e+07
3.8222e+07
3.73958e+07
3.77179e+07
3.6938e+07
3.7286e+07
3.65421e+07
3.68937e+07
3.61757e+07
3.6519e+07
3.58225e+07
3.61545e+07
3.54781e+07
3.57989e+07
3.51419e+07
3.54519e+07
3.48137e+07
3.51134e+07
3.44934e+07
3.47832e+07
3.41809e+07
3.44611e+07
3.3876e+07
3.41471e+07
3.35786e+07
3.38411e+07
3.32887e+07
3.35428e+07
3.30062e+07
3.32523e+07
3.27309e+07
3.29693e+07
3.24628e+07
3.26938e+07
3.22017e+07
3.24255e+07
3.19475e+07
3.21645e+07
3.17002e+07
3.19106e+07
3.14597e+07
3.16637e+07
3.12257e+07
3.14236e+07
3.09983e+07
3.11903e+07
3.07774e+07
3.09636e+07
3.05628e+07
3.07434e+07
3.03544e+07
3.05296e+07
3.01522e+07
3.03222e+07
2.9956e+07
3.0121e+07
2.97659e+07
2.99259e+07
2.95816e+07
2.97369e+07
2.94031e+07
2.95538e+07
2.92303e+07
2.93765e+07
2.90631e+07
2.92049e+07
2.89015e+07
2.9039e+07
2.87451e+07
2.88782e+07
2.85937e+07
2.87216e+07
2.84457e+07
2.85664e+07
2.8298e+07
2.84098e+07
2.81502e+07
3.70731e+07
3.63234e+07
3.67503e+07
3.59177e+07
3.62575e+07
3.54477e+07
3.58125e+07
3.50481e+07
3.54367e+07
3.47072e+07
3.5098e+07
3.43935e+07
3.47752e+07
3.40915e+07
3.44609e+07
3.37967e+07
3.41539e+07
3.35084e+07
3.38539e+07
3.32266e+07
3.35609e+07
3.29511e+07
3.32747e+07
3.2682e+07
3.29953e+07
3.24192e+07
3.27226e+07
3.21627e+07
3.24566e+07
3.19124e+07
3.21973e+07
3.16682e+07
3.19445e+07
3.14302e+07
3.16981e+07
3.11983e+07
3.14582e+07
3.09724e+07
3.12247e+07
3.07525e+07
3.09974e+07
3.05385e+07
3.07763e+07
3.03304e+07
3.05613e+07
3.01281e+07
3.03524e+07
2.99315e+07
3.01494e+07
2.97406e+07
2.99522e+07
2.95552e+07
2.97609e+07
2.93754e+07
2.95754e+07
2.92011e+07
2.93954e+07
2.90321e+07
2.92211e+07
2.88685e+07
2.90523e+07
2.87102e+07
2.88889e+07
2.8557e+07
2.87308e+07
2.8409e+07
2.85781e+07
2.82661e+07
2.84305e+07
2.81282e+07
2.82881e+07
2.79951e+07
2.81506e+07
2.78668e+07
2.80172e+07
2.77419e+07
2.78856e+07
2.76179e+07
2.77532e+07
2.7494e+07
3.50102e+07
3.42653e+07
3.4722e+07
3.39051e+07
3.42858e+07
3.34937e+07
3.38992e+07
3.31513e+07
3.35788e+07
3.28646e+07
3.32931e+07
3.26031e+07
3.30214e+07
3.23516e+07
3.27568e+07
3.21056e+07
3.24978e+07
3.18647e+07
3.22443e+07
3.16286e+07
3.19962e+07
3.13975e+07
3.17536e+07
3.11714e+07
3.15164e+07
3.09502e+07
3.12846e+07
3.0734e+07
3.10583e+07
3.05228e+07
3.08375e+07
3.03167e+07
3.06221e+07
3.01156e+07
3.04121e+07
2.99196e+07
3.02075e+07
2.97286e+07
3.00082e+07
2.95426e+07
2.98143e+07
2.93616e+07
2.96257e+07
2.91856e+07
2.94424e+07
2.90145e+07
2.92643e+07
2.88484e+07
2.90913e+07
2.86872e+07
2.89235e+07
2.85308e+07
2.87608e+07
2.83792e+07
2.86031e+07
2.82324e+07
2.84504e+07
2.80904e+07
2.83026e+07
2.7953e+07
2.81597e+07
2.78203e+07
2.80217e+07
2.76922e+07
2.78884e+07
2.75687e+07
2.77598e+07
2.74497e+07
2.76359e+07
2.73351e+07
2.75167e+07
2.7225e+07
2.7402e+07
2.71193e+07
2.72915e+07
2.70173e+07
2.71831e+07
2.69166e+07
2.70744e+07
2.6816e+07
3.29452e+07
3.22063e+07
3.26911e+07
3.18911e+07
3.23109e+07
3.15373e+07
3.19818e+07
3.12513e+07
3.17159e+07
3.10181e+07
3.14824e+07
3.08078e+07
3.12612e+07
3.06059e+07
3.10454e+07
3.04081e+07
3.08338e+07
3.02138e+07
3.06261e+07
3.00229e+07
3.04224e+07
2.98356e+07
3.02228e+07
2.96518e+07
3.00272e+07
2.94717e+07
2.98359e+07
2.92953e+07
2.96488e+07
2.91228e+07
2.9466e+07
2.89542e+07
2.92875e+07
2.87896e+07
2.91134e+07
2.8629e+07
2.89437e+07
2.84724e+07
2.87785e+07
2.83199e+07
2.86176e+07
2.81715e+07
2.84611e+07
2.80272e+07
2.83091e+07
2.78871e+07
2.81614e+07
2.77511e+07
2.80182e+07