/*--------------------------------*- C++ -*----------------------------------*\
| =========                 |                                                 |
| \\      /  F ield         | OpenFOAM: The Open Source CFD Toolbox           |
|  \\    /   O peration     | Version:  v2012                                 |
|   \\  /    A nd           | Website:  www.openfoam.com                      |
|    \\/     M anipulation  |                                                 |
\*---------------------------------------------------------------------------*/
FoamFile
{
    version     2.0;
    format      ascii;
    class       pointVectorField;
    location    "14";
    object      pointD;
}
// * * * * * * * * * * * * * * * * * * * * * * * * * * * * * * * * * * * * * //

dimensions      [0 1 0 0 0 0 0];


internalField   nonuniform List<vector> 
32562
(
(0.00265261 0 1.50812e-21)
(0.0034801 0 1.50316e-21)
(0.00319926 -0.000244297 -2.12681e-21)
(0 -0.00208729 2.68777e-22)
(0 -0.000773625 3.51605e-20)
(0.0027277 0 0)
(0 -0.00197662 0)
(0.00178127 -0.000525446 0)
(0.000798018 -0.000975763 2.90331e-21)
(0.00335529 -5.39575e-05 -1.02748e-20)
(0.00211733 -0.000837548 2.50896e-22)
(0.00211733 -0.000837548 2.50896e-22)
(0.00178127 -0.000525446 0)
(0 -0.00197662 0)
(0 -0.000773625 3.51605e-20)
(0.00265261 0 1.50812e-21)
(0.0027277 0 0)
(0.0034801 0 1.50316e-21)
(0.00335529 -5.39575e-05 -1.02748e-20)
(0.00319926 -0.000244297 -2.12681e-21)
(0.000798018 -0.000975763 2.90331e-21)
(0 -0.00208729 2.68777e-22)
(3.90621e-05 -0.00197369 0)
(7.83046e-05 -0.00196507 0)
(0.000117866 -0.00195123 0)
(0.000157947 -0.00193268 0)
(0.000198978 -0.00190971 0)
(0.000241372 -0.00188239 0)
(0.000285409 -0.0018508 0)
(0.000331266 -0.0018151 0)
(0.000378988 -0.00177555 0)
(0.000428485 -0.00173252 0)
(0.000479581 -0.0016865 0)
(0.000532002 -0.00163806 0)
(0.000585422 -0.00158781 0)
(0.00063946 -0.00153642 0)
(0.000693649 -0.0014846 0)
(0.000747401 -0.00143311 0)
(0.000799909 -0.00138299 0)
(0.000850272 -0.00133526 0)
(0.000897893 -0.00129045 0)
(0.000942909 -0.00124828 0)
(0.000986093 -0.00120787 0)
(0.00102845 -0.00116816 0)
(0.00107079 -0.00112843 0)
(0.00111322 -0.00108863 0)
(0.00115554 -0.00104909 0)
(0.0011978 -0.00100994 0)
(0.00124 -0.00097123 0)
(0.00128209 -0.000933085 0)
(0.00132411 -0.000895528 0)
(0.001366 -0.000858632 0)
(0.00140779 -0.00082242 0)
(0.00144943 -0.00078695 0)
(0.00149094 -0.000752221 0)
(0.00153226 -0.000718309 0)
(0.00157343 -0.00068517 0)
(0.00161434 -0.000652921 0)
(0.00165509 -0.000621456 0)
(0.0016955 -0.000590951 0)
(0.00173579 -0.000561234 0)
(0.00182497 -0.000495151 0)
(0.00186408 -0.000468201 0)
(0.00190274 -0.000442233 0)
(0.00194091 -0.000417213 0)
(0.00197856 -0.000393154 0)
(0.0020157 -0.00037001 0)
(0.00205227 -0.000347786 0)
(0.00208825 -0.000326453 0)
(0.00212359 -0.000306011 0)
(0.00215827 -0.000286439 0)
(0.00219224 -0.00026773 0)
(0.00222548 -0.000249867 0)
(0.00225794 -0.000232836 0)
(0.0022896 -0.000216622 0)
(0.00232041 -0.000201202 0)
(0.00235033 -0.000186561 0)
(0.00237934 -0.000172682 0)
(0.0024074 -0.000159541 0)
(0.00243447 -0.000147112 0)
(0.00246053 -0.000135374 0)
(0.00248554 -0.000124299 0)
(0.00250946 -0.000113865 0)
(0.00253228 -0.00010404 0)
(0.00255396 -9.47986e-05 0)
(0.00257446 -8.61101e-05 0)
(0.00259378 -7.79456e-05 0)
(0.00261188 -7.02727e-05 0)
(0.00262873 -6.30606e-05 0)
(0.00264432 -5.6276e-05 0)
(0.00265863 -4.98862e-05 0)
(0.00267163 -4.38568e-05 0)
(0.00268331 -3.8154e-05 0)
(0.00269366 -3.27422e-05 0)
(0.00270265 -2.75866e-05 0)
(0.00271028 -2.26509e-05 0)
(0.00271654 -1.78993e-05 0)
(0.00272142 -1.3295e-05 0)
(0.0027249 -8.80173e-06 0)
(0.002727 -4.38233e-06 0)
(0.00265648 0 0)
(0.00266127 0 0)
(0.00266571 0 0)
(0.00266984 0 0)
(0.00267365 0 0)
(0.0026772 0 0)
(0.00268049 0 0)
(0.00268355 0 0)
(0.00268639 0 0)
(0.00268904 0 0)
(0.00269149 0 0)
(0.00269379 0 0)
(0.00269593 0 0)
(0.00269793 0 0)
(0.0026998 0 0)
(0.00270156 0 0)
(0.0027032 0 0)
(0.00270475 0 0)
(0.00270621 0 0)
(0.00270759 0 0)
(0.00270889 0 0)
(0.00271014 0 0)
(0.00271132 0 0)
(0.00271245 0 0)
(0.00271354 0 0)
(0.00271459 0 0)
(0.00271559 0 0)
(0.00271658 0 0)
(0.00271753 0 0)
(0.00271846 0 0)
(0.00271938 0 0)
(0.00272028 0 0)
(0.00272117 0 0)
(0.00272205 0 0)
(0.00272293 0 0)
(0.00272381 0 0)
(0.00272469 0 0)
(0.00272557 0 0)
(0.00272646 0 0)
(0.00272967 0 0)
(0.00273206 0 0)
(0.00273457 0 0)
(0.00273722 0 0)
(0.00274002 0 0)
(0.002743 0 0)
(0.00274615 0 0)
(0.0027495 0 0)
(0.00275304 0 0)
(0.0027568 0 0)
(0.00276076 0 0)
(0.00276495 0 0)
(0.00276935 0 0)
(0.00277398 0 0)
(0.00277883 0 0)
(0.00278392 0 0)
(0.00278923 0 0)
(0.00279477 0 0)
(0.00280055 0 0)
(0.00280655 0 0)
(0.00281279 0 0)
(0.00281925 0 0)
(0.00282594 0 0)
(0.00283286 0 0)
(0.00284001 0 0)
(0.00284737 0 0)
(0.00285496 0 0)
(0.00286277 0 0)
(0.00287081 0 0)
(0.00287905 0 0)
(0.00288751 0 0)
(0.00289618 0 0)
(0.00290506 0 0)
(0.00291414 0 0)
(0.00292343 0 0)
(0.00293292 0 0)
(0.00294261 0 0)
(0.00295248 0 0)
(0.00296256 0 0)
(0.00297281 0 0)
(0.00298326 0 0)
(0.00299388 0 0)
(0.00300468 0 0)
(0.00301565 0 0)
(0.00302679 0 0)
(0.0030381 0 0)
(0.00304957 0 0)
(0.0030612 0 0)
(0.00307299 0 0)
(0.00308492 0 0)
(0.00309699 0 0)
(0.00310921 0 0)
(0.00312156 0 0)
(0.00313405 0 0)
(0.00314666 0 0)
(0.00315939 0 0)
(0.00317223 0 0)
(0.00318519 0 0)
(0.00319825 0 0)
(0.00321141 0 0)
(0.00322466 0 0)
(0.00323799 0 0)
(0.00325141 0 0)
(0.0032649 0 0)
(0.00327845 0 0)
(0.00329206 0 0)
(0.00330572 0 0)
(0.00331942 0 0)
(0.00333316 0 0)
(0.00334692 0 0)
(0.00336069 0 0)
(0.00337447 0 0)
(0.00338824 0 0)
(0.003402 0 0)
(0.00341572 0 0)
(0.0034294 0 0)
(0.00344303 0 0)
(0.00345659 0 0)
(0.00347006 0 0)
(0.00348334 -3.61374e-08 1.5466e-21)
(0.00348304 -7.79596e-08 1.45536e-21)
(0.00348255 -1.31114e-07 2.897e-21)
(0.00348187 -2.01286e-07 -1.62826e-21)
(0.00348099 -2.94048e-07 1.35644e-21)
(0.00347992 -4.15054e-07 1.48631e-21)
(0.00347865 -5.6976e-07 4.98695e-24)
(0.0034772 -7.63757e-07 3.24937e-21)
(0.00347556 -1.00234e-06 5.47327e-22)
(0.00347373 -1.29102e-06 -2.40268e-21)
(0.00347172 -1.63488e-06 -4.54735e-21)
(0.00346953 -2.0393e-06 -3.74482e-21)
(0.00346717 -2.50914e-06 2.6617e-21)
(0.00346463 -3.04965e-06 4.98423e-21)
(0.00346193 -3.66535e-06 -1.69252e-22)
(0.00345906 -4.36136e-06 -6.7288e-21)
(0.00345603 -5.14186e-06 -7.15901e-21)
(0.00345284 -6.01179e-06 -3.11868e-21)
(0.0034495 -6.97492e-06 -2.08549e-21)
(0.00344601 -8.03602e-06 -2.77965e-27)
(0.00344239 -9.1984e-06 9.3891e-22)
(0.00343862 -1.04666e-05 2.50532e-21)
(0.00343473 -1.18435e-05 1.56614e-21)
(0.0034307 -1.33335e-05 2.27231e-21)
(0.00342657 -1.49387e-05 6.15938e-21)
(0.00342231 -1.66634e-05 3.88706e-21)
(0.00341795 -1.85093e-05 -1.5988e-21)
(0.00341349 -2.048e-05 -8.18354e-22)
(0.00340894 -2.2577e-05 -3.24494e-21)
(0.00340429 -2.48035e-05 -3.2251e-21)
(0.00339957 -2.71605e-05 2.42579e-21)
(0.00339477 -2.96504e-05 3.25832e-21)
(0.00338991 -3.22742e-05 1.63252e-21)
(0.00338498 -3.50333e-05 -1.01344e-21)
(0.00338001 -3.79289e-05 7.24973e-21)
(0.00337498 -4.09607e-05 1.00906e-20)
(0.00336992 -4.41309e-05 7.01196e-21)
(0.00336483 -4.74369e-05 5.38753e-21)
(0.00335971 -5.08823e-05 -7.45175e-21)
(0.0033523 -5.60918e-05 -5.12646e-22)
(0.00335002 -5.77507e-05 2.56128e-21)
(0.00334774 -5.94363e-05 -3.38176e-21)
(0.00334546 -6.11486e-05 -3.8184e-21)
(0.00334317 -6.28872e-05 4.67224e-21)
(0.00334089 -6.46524e-05 -4.35741e-22)
(0.00333862 -6.64435e-05 -1.31742e-20)
(0.00333634 -6.8261e-05 -8.06621e-21)
(0.00333407 -7.01041e-05 2.11408e-21)
(0.0033318 -7.19732e-05 -1.71168e-21)
(0.00332953 -7.38677e-05 -3.82576e-21)
(0.00332727 -7.57877e-05 4.58159e-21)
(0.00332501 -7.77328e-05 -5.91818e-22)
(0.00332276 -7.97029e-05 -1.31689e-20)
(0.00332052 -8.16976e-05 -7.99552e-21)
(0.00331828 -8.37168e-05 3.42198e-22)
(0.00331605 -8.57602e-05 -1.7257e-21)
(0.00331383 -8.78277e-05 -2.06789e-21)
(0.00331162 -8.99187e-05 -1.74208e-21)
(0.00330941 -9.20331e-05 -1.74208e-21)
(0.00330722 -9.41705e-05 -1.74767e-21)
(0.00330504 -9.63308e-05 -3.76993e-21)
(0.00330286 -9.85134e-05 -1.76367e-21)
(0.0033007 -0.000100718 4.50489e-21)
(0.00329855 -0.000102944 -1.02877e-21)
(0.00329642 -0.000105192 -1.09906e-20)
(0.00329429 -0.000107461 -3.54894e-21)
(0.00329218 -0.00010975 -3.31745e-21)
(0.00329008 -0.00011206 -9.36241e-21)
(0.00328799 -0.000114389 -5.64903e-21)
(0.00328592 -0.000116737 2.31523e-24)
(0.00328387 -0.000119104 -1.2461e-22)
(0.00328183 -0.00012149 -1.20157e-22)
(0.0032798 -0.000123894 3.73421e-21)
(0.00327779 -0.000126315 -1.6779e-21)
(0.0032758 -0.000128753 -3.68856e-21)
(0.00327382 -0.000131207 -1.76632e-23)
(0.00327186 -0.000133677 -1.75131e-21)
(0.00326992 -0.000136163 -1.78753e-21)
(0.00326799 -0.000138664 1.77331e-21)
(0.00326609 -0.000141179 -1.77627e-21)
(0.00326419 -0.000143707 -5.34403e-21)
(0.00326232 -0.000146249 1.579e-21)
(0.00326047 -0.000148803 -1.92776e-21)
(0.00325863 -0.000151369 -1.03687e-20)
(0.00325681 -0.000153946 -5.12569e-23)
(0.00325501 -0.000156535 3.06801e-21)
(0.00325322 -0.000159133 -7.02661e-21)
(0.00325146 -0.00016174 -8.50305e-21)
(0.00324971 -0.000164357 -3.42463e-21)
(0.00324798 -0.000166981 -2.19078e-22)
(0.00324627 -0.000169614 -2.02588e-21)
(0.00324458 -0.000172252 -5.16794e-21)
(0.0032429 -0.000174898 -4.89832e-21)
(0.00324124 -0.000177548 1.7929e-21)
(0.0032396 -0.000180203 1.52045e-21)
(0.00323798 -0.000182863 -3.29941e-21)
(0.00323637 -0.000185526 2.93448e-21)
(0.00323477 -0.000188192 -1.00871e-21)
(0.0032332 -0.000190859 -7.95952e-21)
(0.00323163 -0.000193529 -2.90574e-21)
(0.00323009 -0.000196199 1.04008e-21)
(0.00322855 -0.000198869 1.82401e-21)
(0.00322703 -0.000201539 4.04754e-22)
(0.00322552 -0.000204207 -1.81169e-21)
(0.00322402 -0.000206874 -4.09615e-26)
(0.00322254 -0.000209539 1.87494e-25)
(0.00322106 -0.000212201 -3.16856e-21)
(0.00321959 -0.00021486 -8.9602e-22)
(0.00321813 -0.000217515 2.2719e-21)
(0.00321667 -0.000220166 6.29931e-21)
(0.00321522 -0.000222812 4.01344e-21)
(0.00321378 -0.000225454 -3.61779e-21)
(0.00321233 -0.000228092 -1.33318e-21)
(0.00321089 -0.000230724 1.33234e-21)
(0.00320945 -0.000233351 -3.62013e-21)
(0.00320801 -0.000235974 -3.14291e-21)
(0.00320656 -0.000238593 -1.13844e-29)
(0.00320511 -0.000241207 -1.34759e-21)
(0.0031845 -0.000248394 -1.54879e-21)
(0.00316538 -0.00025296 -2.31881e-21)
(0.0031463 -0.000257506 -2.31613e-21)
(0.00312725 -0.000261997 -2.31133e-21)
(0.00310824 -0.000266397 -2.95044e-21)
(0.00308924 -0.000270679 -5.15173e-22)
(0.00307024 -0.000274822 8.95082e-22)
(0.0030512 -0.000278808 0)
(0.00303213 -0.000282625 6.66105e-22)
(0.00301299 -0.000286265 -9.96547e-22)
(0.00299376 -0.000289721 -2.54464e-21)
(0.00297443 -0.000292993 -1.67056e-21)
(0.00295498 -0.000296077 -2.28997e-21)
(0.00293538 -0.000298979 -2.30208e-21)
(0.00291562 -0.000301702 -2.41639e-21)
(0.00289569 -0.000304251 -1.61571e-21)
(0.00287556 -0.000306634 -1.71473e-21)
(0.00285522 -0.000308858 -3.38082e-21)
(0.00283466 -0.000310935 -2.33483e-21)
(0.00281386 -0.000312873 1.14524e-21)
(0.00279281 -0.000314684 2.52565e-21)
(0.00277148 -0.000316382 -2.10315e-21)
(0.00274988 -0.000317978 -4.54354e-21)
(0.00272798 -0.000319484 -2.54257e-21)
(0.00270577 -0.00032092 -1.68488e-21)
(0.00268325 -0.000322298 -1.79638e-21)
(0.00266039 -0.000323634 -1.90327e-21)
(0.00263718 -0.000324945 -1.93133e-21)
(0.00261362 -0.000326248 -2.41809e-23)
(0.0025897 -0.000327561 -9.97687e-22)
(0.0025654 -0.000328902 -1.88585e-21)
(0.0025407 -0.00033029 -2.03194e-21)
(0.00251561 -0.000331743 -2.11865e-21)
(0.00249011 -0.000333284 -1.09402e-21)
(0.00246418 -0.000334933 -2.06145e-21)
(0.00243782 -0.00033671 -1.07044e-21)
(0.00241102 -0.000338641 -1.15879e-21)
(0.00238378 -0.000340743 -8.96444e-22)
(0.00235608 -0.000343038 1.34379e-21)
(0.0023279 -0.000345559 -1.84029e-22)
(0.00229924 -0.000348324 -1.41355e-21)
(0.0022701 -0.000351364 -2.38588e-21)
(0.00224045 -0.000354699 -2.29518e-21)
(0.00221031 -0.000358367 -3.83581e-21)
(0.00217966 -0.000362386 -5.22581e-21)
(0.00214849 -0.000366776 -3.66102e-21)
(0.0021168 -0.000371585 8.03053e-22)
(0.00208458 -0.000376838 4.05288e-21)
(0.00205183 -0.000382563 -1.7799e-22)
(0.00201854 -0.000388792 1.57381e-21)
(0.00198472 -0.000395556 3.67722e-21)
(0.00195035 -0.00040289 -4.62214e-22)
(0.00191544 -0.000410823 -2.32454e-21)
(0.00187998 -0.000419394 -9.15736e-22)
(0.00184398 -0.000428634 -5.98267e-22)
(0.00180744 -0.000438583 -2.94704e-21)
(0.00177036 -0.000449271 -2.00405e-21)
(0.00173277 -0.00046073 1.1425e-21)
(0.00169464 -0.000473019 4.02508e-22)
(0.001656 -0.000486152 2.62616e-23)
(0.00161685 -0.000500155 2.46932e-21)
(0.00157721 -0.000515084 2.52619e-21)
(0.00153709 -0.000530969 9.8673e-22)
(0.00149653 -0.000547843 1.62112e-21)
(0.00145554 -0.000565739 5.41769e-22)
(0.00141417 -0.000584686 3.23566e-23)
(0.00137247 -0.000604708 2.93947e-21)
(0.00133042 -0.000625847 9.92653e-22)
(0.00128789 -0.00064818 -6.33735e-21)
(0.0012448 -0.00067178 -6.08065e-21)
(0.0012011 -0.000696683 -1.08674e-21)
(0.00115683 -0.000722916 -4.40395e-30)
(0.00111203 -0.000750435 3.6813e-21)
(0.00106689 -0.00077918 4.5849e-21)
(0.00102147 -0.000809144 1.93504e-21)
(0.000975903 -0.000840344 5.12231e-23)
(0.000930271 -0.000872805 3.96596e-23)
(0.000884788 -0.000906546 5.89111e-21)
(0.000839678 -0.000941708 7.29379e-21)
(0.000763142 -0.00100573 -2.90575e-21)
(0.000731495 -0.00103394 -2.02379e-21)
(0.000699916 -0.00106291 8.2364e-21)
(0.000668418 -0.00109258 3.91882e-21)
(0.000637042 -0.00112297 -8.27546e-21)
(0.000605862 -0.00115408 -2.12437e-21)
(0.000574917 -0.00118591 6.96067e-21)
(0.000544272 -0.00121845 8.39119e-22)
(0.000513978 -0.00125167 -9.869e-21)
(0.000484099 -0.00128557 -1.09787e-20)
(0.000454702 -0.0013201 -4.3051e-21)
(0.000425854 -0.00135523 -2.77673e-22)
(0.000397636 -0.00139088 -2.61704e-22)
(0.000370119 -0.00142702 -5.10917e-22)
(0.000343392 -0.00146353 -1.52487e-23)
(0.000317521 -0.00150033 -3.41685e-21)
(0.000292596 -0.00153728 -6.59672e-21)
(0.000268667 -0.00157427 -1.19329e-20)
(0.00024581 -0.00161113 -1.08452e-20)
(0.000224055 -0.00164772 8.60677e-22)
(0.000203452 -0.00168386 -1.53463e-21)
(0.000184005 -0.00171938 -1.81187e-21)
(0.000165741 -0.00175412 8.59506e-21)
(0.000148639 -0.00178791 6.22803e-21)
(0.000132701 -0.00182058 -1.01279e-21)
(0.00011789 -0.00185199 9.58872e-22)
(0.000104188 -0.00188197 1.1041e-21)
(9.15443e-05 -0.00191039 1.69508e-21)
(7.99249e-05 -0.00193711 2.6037e-21)
(6.92678e-05 -0.00196199 -1.52339e-21)
(5.95242e-05 -0.00198492 -2.7638e-21)
(5.0622e-05 -0.00200579 -1.24859e-21)
(4.24969e-05 -0.00202447 2.54325e-23)
(3.50661e-05 -0.00204088 0)
(2.82498e-05 -0.00205493 3.16485e-22)
(2.19544e-05 -0.00206654 5.99361e-22)
(1.60859e-05 -0.00207563 1.44258e-21)
(1.05412e-05 -0.00208217 1.03798e-21)
(5.21564e-06 -0.00208611 1.48165e-22)
(0 -0.00208687 0)
(0 -0.00208625 0)
(0 -0.00208557 0)
(0 -0.00208484 0)
(0 -0.00208406 0)
(0 -0.00208323 0)
(0 -0.00208234 0)
(0 -0.00208142 0)
(0 -0.00208044 0)
(0 -0.00207943 0)
(0 -0.00207838 0)
(0 -0.00207729 0)
(0 -0.00207616 0)
(0 -0.002075 0)
(0 -0.00207381 0)
(0 -0.00207259 0)
(0 -0.00207133 0)
(0 -0.00207005 0)
(0 -0.00206874 0)
(0 -0.00206741 0)
(0 -0.00206606 0)
(0 -0.00206468 0)
(0 -0.00206328 0)
(0 -0.00206186 0)
(0 -0.00206043 0)
(0 -0.00205898 0)
(0 -0.00205751 0)
(0 -0.00205602 0)
(0 -0.00205453 0)
(0 -0.00205302 0)
(0 -0.0020515 0)
(0 -0.00204997 0)
(0 -0.00204843 0)
(0 -0.00204688 0)
(0 -0.00204532 0)
(0 -0.00204376 0)
(0 -0.00204219 0)
(0 -0.00204062 0)
(0 -0.00203904 0)
(0 -0.00203746 0)
(0 -0.00203587 0)
(0 -0.00203429 0)
(0 -0.0020327 0)
(0 -0.00203111 0)
(0 -0.00202953 0)
(0 -0.00202794 0)
(0 -0.00202635 0)
(0 -0.00202477 0)
(0 -0.00202319 0)
(0 -0.00202161 0)
(0 -0.00202004 0)
(0 -0.00201847 0)
(0 -0.00201691 0)
(0 -0.00201535 0)
(0 -0.00201379 0)
(0 -0.00201225 0)
(0 -0.0020107 0)
(0 -0.00200917 0)
(0 -0.00200764 0)
(0 -0.00200612 0)
(0 -0.00200461 0)
(0 -0.00200311 0)
(0 -0.00200161 0)
(0 -0.00200012 0)
(0 -0.00199864 0)
(0 -0.00199716 0)
(0 -0.0019957 0)
(0 -0.00199424 0)
(0 -0.00199279 0)
(0 -0.00199134 0)
(0 -0.0019899 0)
(0 -0.00198847 0)
(0 -0.00198704 0)
(0 -0.00198561 0)
(0 -0.00198418 0)
(0 -0.00198275 0)
(0 -0.00198132 0)
(0 -0.00197988 0)
(0 -0.00197844 0)
(0 -0.00197404 0)
(0 -0.001971 0)
(0 -0.00196762 0)
(0 -0.00196366 0)
(0 -0.001959 0)
(0 -0.00195349 0)
(0 -0.00194698 0)
(0 -0.00193935 0)
(0 -0.00193045 0)
(0 -0.00192018 0)
(0 -0.00190842 0)
(0 -0.00189508 0)
(0 -0.00188009 0)
(0 -0.00186335 0)
(0 -0.00184483 0)
(0 -0.00182446 0)
(0 -0.0018022 0)
(0 -0.00177805 0)
(0 -0.00175193 0)
(0 -0.00172386 0)
(0 -0.0016938 0)
(0 -0.00166173 0)
(0 -0.00162766 0)
(0 -0.00159157 0)
(0 -0.00155344 0)
(0 -0.00151331 0)
(0 -0.00147113 0)
(0 -0.00142695 0)
(0 -0.00138077 0)
(0 -0.00133262 0)
(0 -0.00128252 0)
(0 -0.00123054 0)
(0 -0.00117672 0)
(0 -0.00112116 0)
(0 -0.00106393 0)
(0 -0.00100518 0)
(0 -0.000945013 0)
(0 -0.000883608 0)
(0 -0.000821112 0)
(0.00181035 -0.000492122 0)
(0.00183608 -0.000461649 0)
(0.00186157 -0.000432673 0)
(0.00188667 -0.000405369 0)
(0.00191147 -0.000379649 0)
(0.00193592 -0.000355432 0)
(0.00196005 -0.000332753 0)
(0.00198384 -0.000311466 0)
(0.0020073 -0.000291622 0)
(0.00203043 -0.000273061 0)
(0.00205324 -0.000255827 0)
(0.00207575 -0.000239773 0)
(0.00209795 -0.000224926 0)
(0.00211987 -0.000211159 0)
(0.0021415 -0.000198477 0)
(0.00216288 -0.000186784 0)
(0.002184 -0.000176061 0)
(0.00220489 -0.000166229 0)
(0.00222556 -0.000157263 0)
(0.00224601 -0.000149096 0)
(0.00226627 -0.000141699 0)
(0.00228634 -0.000135013 0)
(0.00230625 -0.000129011 0)
(0.00232599 -0.000123637 0)
(0.00234559 -0.000118864 0)
(0.00236506 -0.000114646 0)
(0.0023844 -0.000110953 0)
(0.00240363 -0.000107746 0)
(0.00242275 -0.000104996 0)
(0.00244178 -0.000102667 0)
(0.00246073 -0.000100735 0)
(0.0024796 -9.91591e-05 0)
(0.0024984 -9.79192e-05 0)
(0.00251713 -9.69847e-05 0)
(0.00253582 -9.63312e-05 0)
(0.00255446 -9.59332e-05 0)
(0.00257305 -9.57664e-05 0)
(0.00259161 -9.58076e-05 0)
(0.00261013 -9.60346e-05 0)
(0.00262862 -9.64257e-05 0)
(0.00264709 -9.69594e-05 0)
(0.00266554 -9.76179e-05 0)
(0.00268396 -9.83789e-05 0)
(0.00270238 -9.92248e-05 0)
(0.00272077 -0.000100137 0)
(0.00273916 -0.000101097 0)
(0.00275753 -0.000102091 0)
(0.00277589 -0.0001031 0)
(0.00279425 -0.000104109 0)
(0.00281259 -0.000105101 0)
(0.00283093 -0.000106062 0)
(0.00284926 -0.000106976 0)
(0.00286758 -0.00010783 0)
(0.00288589 -0.000108608 0)
(0.00290419 -0.000109297 0)
(0.00292248 -0.000109883 0)
(0.00294076 -0.000110353 0)
(0.00295902 -0.000110691 0)
(0.00297727 -0.000110886 0)
(0.00299551 -0.000110923 0)
(0.00301373 -0.000110789 0)
(0.00303193 -0.00011047 0)
(0.00305011 -0.000109952 0)
(0.00306827 -0.000109221 0)
(0.0030864 -0.000108262 0)
(0.00310451 -0.00010706 0)
(0.00312259 -0.000105601 0)
(0.00314065 -0.000103865 0)
(0.00315868 -0.000101838 0)
(0.00317668 -9.94953e-05 0)
(0.00319466 -9.68307e-05 0)
(0.0032126 -9.38118e-05 0)
(0.00323052 -9.04233e-05 0)
(0.00324841 -8.66338e-05 0)
(0.00326628 -8.24264e-05 0)
(0.00328412 -7.77633e-05 0)
(0.00330194 -7.26236e-05 0)
(0.00331974 -6.69646e-05 0)
(0.00333753 -6.07575e-05 0)
(0.0017609 -0.000534144 0)
(0.00174713 -0.000539483 0)
(0.00173339 -0.000544864 0)
(0.00171973 -0.000550248 0)
(0.00170611 -0.000555666 0)
(0.00169255 -0.000561093 0)
(0.00167905 -0.000566549 0)
(0.0016656 -0.000572017 0)
(0.00165222 -0.000577508 0)
(0.00163889 -0.000583012 0)
(0.00162563 -0.000588536 0)
(0.00161241 -0.000594072 0)
(0.00159928 -0.000599626 0)
(0.00158618 -0.00060519 0)
(0.00157314 -0.000610759 0)
(0.00156017 -0.000616344 0)
(0.00154725 -0.000621932 0)
(0.00153441 -0.000627527 0)
(0.00152163 -0.000633127 0)
(0.00150891 -0.000638729 0)
(0.00149624 -0.000644336 0)
(0.00148364 -0.000649944 0)
(0.00147109 -0.000655556 0)
(0.0014586 -0.000661167 0)
(0.00144617 -0.000666783 0)
(0.00143377 -0.000672395 0)
(0.00142143 -0.000678002 0)
(0.00140914 -0.000683609 0)
(0.0013969 -0.000689214 0)
(0.00138472 -0.000694814 0)
(0.00137258 -0.000700413 0)
(0.00136049 -0.000706005 0)
(0.00134844 -0.000711595 0)
(0.00133643 -0.000717177 0)
(0.00132447 -0.000722758 0)
(0.00131254 -0.000728331 0)
(0.00130066 -0.000733901 0)
(0.00128881 -0.000739464 0)
(0.00127699 -0.000745024 0)
(0.00126521 -0.000750576 0)
(0.00125345 -0.000756127 0)
(0.00124173 -0.00076167 0)
(0.00123004 -0.000767212 0)
(0.00121837 -0.000772749 0)
(0.00120672 -0.000778283 0)
(0.00119509 -0.000783808 0)
(0.00118349 -0.000789333 0)
(0.00117191 -0.000794854 0)
(0.00116035 -0.000800372 0)
(0.0011488 -0.000805888 0)
(0.00113727 -0.000811402 0)
(0.00112575 -0.000816915 0)
(0.00111424 -0.000822426 0)
(0.00110274 -0.000827938 0)
(0.00109124 -0.00083345 0)
(0.00107975 -0.000838964 0)
(0.00106826 -0.00084448 0)
(0.00105677 -0.00085 0)
(0.00104527 -0.000855525 0)
(0.00103377 -0.000861055 0)
(0.00102226 -0.000866593 0)
(0.00101073 -0.00087214 0)
(0.000999195 -0.000877698 0)
(0.000987639 -0.000883267 0)
(0.000976061 -0.000888851 0)
(0.000964459 -0.00089445 0)
(0.000952829 -0.000900067 0)
(0.000941168 -0.000905704 0)
(0.000929472 -0.000911364 0)
(0.000917739 -0.000917046 0)
(0.000905962 -0.000922756 0)
(0.000894141 -0.000928491 0)
(0.000882268 -0.000934259 0)
(0.000870341 -0.000940052 0)
(0.000858357 -0.000945882 0)
(0.000846303 -0.000951734 0)
(0.000834201 -0.00095762 0)
(0.000822059 -0.00096355 0)
(0.000809971 -0.000969592 0)
(0.000106423 -0.000760739 5.31802e-20)
(0.000211865 -0.000769738 -1.52708e-20)
(0.000315426 -0.000784546 -5.00317e-20)
(0.000416334 -0.000804833 -1.84263e-20)
(0.000514006 -0.00083013 1.19834e-20)
(0.000608124 -0.000859833 -3.82257e-21)
(0.000698624 -0.000893137 -1.52302e-20)
(0.000785629 -0.000929244 2.56375e-21)
(0.000869384 -0.000967387 2.74693e-20)
(0.000950151 -0.00100688 1.65846e-20)
(0.00102803 -0.0010472 1.25497e-20)
(0.00110296 -0.00108783 2.30529e-20)
(0.00117468 -0.00112817 -2.85738e-23)
(0.00124273 -0.00116732 1.06638e-20)
(0.00130659 -0.00120384 2.254e-21)
(0.00136575 -0.00123613 -1.61207e-20)
(0.00141988 -0.00126275 -2.16218e-20)
(0.00146857 -0.00128181 -2.21266e-20)
(0.00151121 -0.00129065 3.11946e-21)
(0.00154773 -0.00128743 2.08771e-20)
(0.00157939 -0.00127346 8.80868e-21)
(0.00160842 -0.00125299 -1.18035e-20)
(0.00163685 -0.00123025 -1.33556e-20)
(0.00166569 -0.00120721 -4.99533e-21)
(0.00169485 -0.00118416 -9.78123e-21)
(0.00172418 -0.00116112 5.63832e-21)
(0.00175361 -0.00113805 1.46616e-20)
(0.00178303 -0.00111496 1.13031e-22)
(0.00181239 -0.00109183 -9.88996e-22)
(0.00184162 -0.00106868 -7.12862e-21)
(0.00187067 -0.0010455 -7.23125e-21)
(0.00189949 -0.00102231 4.7575e-21)
(0.00192803 -0.000999111 8.61713e-21)
(0.00195625 -0.000975921 9.14276e-21)
(0.00198413 -0.000952749 1.38933e-20)
(0.00201163 -0.000929606 6.18339e-21)
(0.00203872 -0.000906505 -1.10359e-20)
(0.00206538 -0.000883454 -3.70484e-21)
(0.00209159 -0.000860467 4.51797e-21)
(0.00214257 -0.000814713 1.38011e-23)
(0.00216731 -0.000791962 -3.57727e-21)
(0.00219152 -0.00076931 -1.22922e-22)
(0.00221521 -0.000746752 -3.9717e-21)
(0.00223834 -0.000724305 -1.42067e-20)
(0.00226092 -0.000701963 3.16986e-22)
(0.00228292 -0.000679735 3.92217e-21)
(0.00230434 -0.000657624 -2.64267e-21)
(0.00232518 -0.000635632 4.1647e-21)
(0.00234542 -0.000613757 3.74908e-21)
(0.00236506 -0.000592001 3.09949e-21)
(0.00238409 -0.000570363 5.47261e-21)
(0.00240251 -0.000548843 1.67167e-21)
(0.0024203 -0.000527438 -8.46117e-21)
(0.00243747 -0.000506147 -6.17347e-21)
(0.002454 -0.000484969 1.04189e-20)
(0.00246989 -0.000463899 1.13942e-20)
(0.00248515 -0.000442935 6.76707e-22)
(0.00249975 -0.000422074 -4.24351e-21)
(0.00251371 -0.000401313 -5.64206e-21)
(0.00252701 -0.000380645 -2.21727e-21)
(0.00253965 -0.000360071 -3.80364e-23)
(0.00255163 -0.000339581 -1.11344e-21)
(0.00256294 -0.000319175 6.36169e-22)
(0.00257358 -0.000298846 -2.26409e-21)
(0.00258355 -0.00027859 -7.72104e-21)
(0.00259285 -0.000258403 4.6059e-22)
(0.00260146 -0.000238278 6.74478e-21)
(0.0026094 -0.000218214 2.71394e-21)
(0.00261665 -0.000198203 2.60333e-21)
(0.00262322 -0.000178242 -1.71263e-21)
(0.00262911 -0.000158327 -1.2414e-21)
(0.0026343 -0.000138449 5.57188e-21)
(0.00263881 -0.000118608 3.6882e-21)
(0.00264262 -9.87941e-05 -1.4754e-21)
(0.00264574 -7.90063e-05 -4.68863e-21)
(0.00264817 -5.92372e-05 -5.31108e-21)
(0.00264991 -3.94835e-05 -2.05834e-21)
(0.00265095 -1.97392e-05 1.49283e-21)
(0.00210188 -0.000822849 0)
(0.00208705 -0.000808815 0)
(0.00207278 -0.000795396 0)
(0.00205906 -0.000782552 0)
(0.00204585 -0.000770248 0)
(0.00203312 -0.000758456 0)
(0.00202085 -0.000747141 0)
(0.00200901 -0.000736282 0)
(0.00199759 -0.000725848 0)
(0.00198656 -0.000715821 0)
(0.00197591 -0.000706174 0)
(0.00196561 -0.000696892 0)
(0.00195566 -0.000687951 0)
(0.00194603 -0.000679337 0)
(0.00193672 -0.000671031 0)
(0.00192771 -0.000663019 0)
(0.00191899 -0.000655283 0)
(0.00191054 -0.000647813 0)
(0.00190236 -0.000640595 0)
(0.00189443 -0.000633615 0)
(0.00188676 -0.000626864 0)
(0.00187932 -0.000620328 0)
(0.0018721 -0.000614 0)
(0.00186511 -0.000607865 0)
(0.00185834 -0.000601919 0)
(0.00185176 -0.000596149 0)
(0.00184539 -0.00059055 0)
(0.00183921 -0.00058511 0)
(0.00183322 -0.000579826 0)
(0.0018274 -0.000574686 0)
(0.00182176 -0.000569688 0)
(0.00181629 -0.000564822 0)
(0.00181098 -0.000560084 0)
(0.00180584 -0.000555469 0)
(0.00180084 -0.00055097 0)
(0.00179601 -0.000546586 0)
(0.00179131 -0.00054231 0)
(0.00178678 -0.000538143 0)
(0.00178236 -0.000534082 0)
(0.00210188 -0.000822849 0)
(0.00208705 -0.000808815 0)
(0.00207278 -0.000795396 0)
(0.00205906 -0.000782552 0)
(0.00204585 -0.000770248 0)
(0.00203312 -0.000758456 0)
(0.00202085 -0.000747141 0)
(0.00200901 -0.000736282 0)
(0.00199759 -0.000725848 0)
(0.00198656 -0.000715821 0)
(0.00197591 -0.000706174 0)
(0.00196561 -0.000696892 0)
(0.00195566 -0.000687951 0)
(0.00194603 -0.000679337 0)
(0.00193672 -0.000671031 0)
(0.00192771 -0.000663019 0)
(0.00191899 -0.000655283 0)
(0.00191054 -0.000647813 0)
(0.00190236 -0.000640595 0)
(0.00189443 -0.000633615 0)
(0.00188676 -0.000626864 0)
(0.00187932 -0.000620328 0)
(0.0018721 -0.000614 0)
(0.00186511 -0.000607865 0)
(0.00185834 -0.000601919 0)
(0.00185176 -0.000596149 0)
(0.00184539 -0.00059055 0)
(0.00183921 -0.00058511 0)
(0.00183322 -0.000579826 0)
(0.0018274 -0.000574686 0)
(0.00182176 -0.000569688 0)
(0.00181629 -0.000564822 0)
(0.00181098 -0.000560084 0)
(0.00180584 -0.000555469 0)
(0.00180084 -0.00055097 0)
(0.00179601 -0.000546586 0)
(0.00179131 -0.00054231 0)
(0.00178678 -0.000538143 0)
(0.00178236 -0.000534082 0)
(0.00173579 -0.000561234 0)
(0.0016955 -0.000590951 0)
(0.00165509 -0.000621456 0)
(0.00161434 -0.000652921 0)
(0.00157343 -0.00068517 0)
(0.00153226 -0.000718309 0)
(0.00149094 -0.000752221 0)
(0.00144943 -0.00078695 0)
(0.00140779 -0.00082242 0)
(0.001366 -0.000858632 0)
(0.00132411 -0.000895528 0)
(0.00128209 -0.000933085 0)
(0.00124 -0.00097123 0)
(0.0011978 -0.00100994 0)
(0.00115554 -0.00104909 0)
(0.00111322 -0.00108863 0)
(0.00107079 -0.00112843 0)
(0.00102845 -0.00116816 0)
(0.000986093 -0.00120787 0)
(0.000942909 -0.00124828 0)
(0.000897893 -0.00129045 0)
(0.000850272 -0.00133526 0)
(0.000799909 -0.00138299 0)
(0.000747401 -0.00143311 0)
(0.000693649 -0.0014846 0)
(0.00063946 -0.00153642 0)
(0.000585422 -0.00158781 0)
(0.000532002 -0.00163806 0)
(0.000479581 -0.0016865 0)
(0.000428485 -0.00173252 0)
(0.000378988 -0.00177555 0)
(0.000331266 -0.0018151 0)
(0.000285409 -0.0018508 0)
(0.000241372 -0.00188239 0)
(0.000198978 -0.00190971 0)
(0.000157947 -0.00193268 0)
(0.000117866 -0.00195123 0)
(7.83046e-05 -0.00196507 0)
(3.90621e-05 -0.00197369 0)
(0 -0.00197404 0)
(0 -0.001971 0)
(0 -0.00196762 0)
(0 -0.00196366 0)
(0 -0.001959 0)
(0 -0.00195349 0)
(0 -0.00194698 0)
(0 -0.00193935 0)
(0 -0.00193045 0)
(0 -0.00192018 0)
(0 -0.00190842 0)
(0 -0.00189508 0)
(0 -0.00188009 0)
(0 -0.00186335 0)
(0 -0.00184483 0)
(0 -0.00182446 0)
(0 -0.0018022 0)
(0 -0.00177805 0)
(0 -0.00175193 0)
(0 -0.00172386 0)
(0 -0.0016938 0)
(0 -0.00166173 0)
(0 -0.00162766 0)
(0 -0.00159157 0)
(0 -0.00155344 0)
(0 -0.00151331 0)
(0 -0.00147113 0)
(0 -0.00142695 0)
(0 -0.00138077 0)
(0 -0.00133262 0)
(0 -0.00128252 0)
(0 -0.00123054 0)
(0 -0.00117672 0)
(0 -0.00112116 0)
(0 -0.00106393 0)
(0 -0.00100518 0)
(0 -0.000945013 0)
(0 -0.000883608 0)
(0 -0.000821112 0)
(0.000106423 -0.000760739 5.31802e-20)
(0.000211865 -0.000769738 -1.52708e-20)
(0.000315426 -0.000784546 -5.00317e-20)
(0.000416334 -0.000804833 -1.84263e-20)
(0.000514006 -0.00083013 1.19834e-20)
(0.000608124 -0.000859833 -3.82257e-21)
(0.000698624 -0.000893137 -1.52302e-20)
(0.000785629 -0.000929244 2.56375e-21)
(0.000869384 -0.000967387 2.74693e-20)
(0.000950151 -0.00100688 1.65846e-20)
(0.00102803 -0.0010472 1.25497e-20)
(0.00110296 -0.00108783 2.30529e-20)
(0.00117468 -0.00112817 -2.85738e-23)
(0.00124273 -0.00116732 1.06638e-20)
(0.00130659 -0.00120384 2.254e-21)
(0.00136575 -0.00123613 -1.61207e-20)
(0.00141988 -0.00126275 -2.16218e-20)
(0.00146857 -0.00128181 -2.21266e-20)
(0.00151121 -0.00129065 3.11946e-21)
(0.00154773 -0.00128743 2.08771e-20)
(0.00157939 -0.00127346 8.80868e-21)
(0.00160842 -0.00125299 -1.18035e-20)
(0.00163685 -0.00123025 -1.33556e-20)
(0.00166569 -0.00120721 -4.99533e-21)
(0.00169485 -0.00118416 -9.78123e-21)
(0.00172418 -0.00116112 5.63832e-21)
(0.00175361 -0.00113805 1.46616e-20)
(0.00178303 -0.00111496 1.13031e-22)
(0.00181239 -0.00109183 -9.88996e-22)
(0.00184162 -0.00106868 -7.12862e-21)
(0.00187067 -0.0010455 -7.23125e-21)
(0.00189949 -0.00102231 4.7575e-21)
(0.00192803 -0.000999111 8.61713e-21)
(0.00195625 -0.000975921 9.14276e-21)
(0.00198413 -0.000952749 1.38933e-20)
(0.00201163 -0.000929606 6.18339e-21)
(0.00203872 -0.000906505 -1.10359e-20)
(0.00206538 -0.000883454 -3.70484e-21)
(0.00209159 -0.000860467 4.51797e-21)
(0.00214257 -0.000814713 1.38011e-23)
(0.00216731 -0.000791962 -3.57727e-21)
(0.00219152 -0.00076931 -1.22922e-22)
(0.00221521 -0.000746752 -3.9717e-21)
(0.00223834 -0.000724305 -1.42067e-20)
(0.00226092 -0.000701963 3.16986e-22)
(0.00228292 -0.000679735 3.92217e-21)
(0.00230434 -0.000657624 -2.64267e-21)
(0.00232518 -0.000635632 4.1647e-21)
(0.00234542 -0.000613757 3.74908e-21)