/*--------------------------------*- C++ -*----------------------------------*\
| =========                 |                                                 |
| \\      /  F ield         | OpenFOAM: The Open Source CFD Toolbox           |
|  \\    /   O peration     | Version:  v2012                                 |
|   \\  /    A nd           | Website:  www.openfoam.com                      |
|    \\/     M anipulation  |                                                 |
\*---------------------------------------------------------------------------*/
FoamFile
{
    version     2.0;
    format      ascii;
    class       pointVectorField;
    location    "12";
    object      pointD;
}
// * * * * * * * * * * * * * * * * * * * * * * * * * * * * * * * * * * * * * //

dimensions      [0 1 0 0 0 0 0];


internalField   nonuniform List<vector> 
2014
(
(0.00330694 0 0)
(0.0044463 0 0)
(0.0040956 -0.000341802 0)
(0 -0.00251721 0)
(0 -0.0012524 0)
(0.00330694 0 0)
(0.0044463 0 0)
(0.0040956 -0.000341802 0)
(0 -0.00251721 0)
(0 -0.0012524 0)
(0.0033393 0 0)
(0.00336341 0 0)
(0.00337915 0 0)
(0.00339037 0 0)
(0.00340119 0 0)
(0.00341314 0 0)
(0.00342814 0 0)
(0.00344404 0 0)
(0.00346451 0 0)
(0.00348764 0 0)
(0.0035131 0 0)
(0.00354224 0 0)
(0.00357442 0 0)
(0.00360958 0 0)
(0.00364771 0 0)
(0.00368832 0 0)
(0.00373185 0 0)
(0.0037772 0 0)
(0.00382493 0 0)
(0.00387502 0 0)
(0.00392721 0 0)
(0.0039814 0 0)
(0.00403691 0 0)
(0.00409339 0 0)
(0.00415126 0 0)
(0.0042102 0 0)
(0.00426978 0 0)
(0.00432874 0 0)
(0.00438772 0 0)
(0.00444432 -1.97478e-06 0)
(0.00443913 -4.57687e-06 0)
(0.0044307 -8.23554e-06 0)
(0.00441876 -1.23433e-05 0)
(0.00440432 -1.83225e-05 0)
(0.00438709 -2.60001e-05 0)
(0.00436753 -3.51696e-05 0)
(0.00434654 -4.67949e-05 0)
(0.00432359 -6.0887e-05 0)
(0.00429986 -7.71409e-05 0)
(0.00427539 -9.60698e-05 0)
(0.00425091 -0.000117427 0)
(0.00422751 -0.000140652 0)
(0.00420453 -0.000166214 0)
(0.00418282 -0.000193399 0)
(0.00416286 -0.000221977 0)
(0.00414406 -0.000251701 0)
(0.00412711 -0.000281735 0)
(0.00411115 -0.000311895 0)
(0.00402624 -0.000357456 0)
(0.00395717 -0.000372655 0)
(0.00388802 -0.000386702 0)
(0.00381855 -0.000399193 0)
(0.00374792 -0.000409817 0)
(0.00367587 -0.000419219 0)
(0.00360219 -0.000426581 0)
(0.00352616 -0.000433074 0)
(0.00344773 -0.000438214 0)
(0.0033662 -0.000443162 0)
(0.00328144 -0.000448239 0)
(0.00319309 -0.000453046 0)
(0.003101 -0.000458632 0)
(0.0030055 -0.000465712 0)
(0.00290495 -0.000475073 0)
(0.00280103 -0.000486072 0)
(0.00269217 -0.000501304 0)
(0.00257762 -0.000519821 0)
(0.00245964 -0.000543992 0)
(0.0023359 -0.000571157 0)
(0.00220841 -0.000607924 0)
(0.00207507 -0.000649533 0)
(0.00193852 -0.000700607 0)
(0.0017969 -0.000759309 0)
(0.00165329 -0.000829266 0)
(0.00150451 -0.000908828 0)
(0.00135414 -0.000999339 0)
(0.00120414 -0.00110117 0)
(0.00105256 -0.00121442 0)
(0.000907075 -0.00133852 0)
(0.000763038 -0.0014739 0)
(0.000626339 -0.00161834 0)
(0.000498722 -0.00176829 0)
(0.000383157 -0.00192431 0)
(0.000281121 -0.00207481 0)
(0.000195129 -0.00221451 0)
(0.00012877 -0.0023392 0)
(7.42985e-05 -0.00243284 0)
(3.36001e-05 -0.00249209 0)
(0 -0.00249633 0)
(0 -0.00246291 0)
(0 -0.00242951 0)
(0 -0.0023962 0)
(0 -0.00236289 0)
(0 -0.0023203 0)
(0 -0.00220795 0)
(0 -0.0019486 0)
(0 -0.00159645 0)
(0.000519313 -0.0012259 0)
(0.00107492 -0.00131161 0)
(0.00148366 -0.00155917 0)
(0.00175854 -0.00156395 0)
(0.00198056 -0.00145317 0)
(0.00218516 -0.00132156 0)
(0.00238287 -0.00118239 0)
(0.00257003 -0.00104256 0)
(0.00273707 -0.000904844 0)
(0.00288315 -0.00076975 0)
(0.00300841 -0.000635841 0)
(0.00311381 -0.000500039 0)
(0.00319416 -0.000370862 0)
(0.00325222 -0.000251026 0)
(0.00328824 -0.000122942 0)
(0.0033393 0 0)
(0.00336341 0 0)
(0.00337915 0 0)
(0.00339037 0 0)
(0.00340119 0 0)
(0.00341314 0 0)
(0.00342814 0 0)
(0.00344404 0 0)
(0.00346451 0 0)
(0.00348764 0 0)
(0.0035131 0 0)
(0.00354224 0 0)
(0.00357442 0 0)
(0.00360958 0 0)
(0.00364771 0 0)
(0.00368832 0 0)
(0.00373185 0 0)
(0.0037772 0 0)
(0.00382493 0 0)
(0.00387502 0 0)
(0.00392721 0 0)
(0.0039814 0 0)
(0.00403691 0 0)
(0.00409339 0 0)
(0.00415126 0 0)
(0.0042102 0 0)
(0.00426978 0 0)
(0.00432874 0 0)
(0.00438772 0 0)
(0.00444432 -1.97478e-06 0)
(0.00443913 -4.57687e-06 0)
(0.0044307 -8.23554e-06 0)
(0.00441876 -1.23433e-05 0)
(0.00440432 -1.83225e-05 0)
(0.00438709 -2.60001e-05 0)
(0.00436753 -3.51696e-05 0)
(0.00434654 -4.67949e-05 0)
(0.00432359 -6.0887e-05 0)
(0.00429986 -7.71409e-05 0)
(0.00427539 -9.60698e-05 0)
(0.00425091 -0.000117427 0)
(0.00422751 -0.000140652 0)
(0.00420453 -0.000166214 0)
(0.00418282 -0.000193399 0)
(0.00416286 -0.000221977 0)
(0.00414406 -0.000251701 0)
(0.00412711 -0.000281735 0)
(0.00411115 -0.000311895 0)
(0.00402624 -0.000357456 0)
(0.00395717 -0.000372655 0)
(0.00388802 -0.000386702 0)
(0.00381855 -0.000399193 0)
(0.00374792 -0.000409817 0)
(0.00367587 -0.000419219 0)
(0.00360219 -0.000426581 0)
(0.00352616 -0.000433074 0)
(0.00344773 -0.000438214 0)
(0.0033662 -0.000443162 0)
(0.00328144 -0.000448239 0)
(0.00319309 -0.000453046 0)
(0.003101 -0.000458632 0)
(0.0030055 -0.000465712 0)
(0.00290495 -0.000475073 0)
(0.00280103 -0.000486072 0)
(0.00269217 -0.000501304 0)
(0.00257762 -0.000519821 0)
(0.00245964 -0.000543992 0)
(0.0023359 -0.000571157 0)
(0.00220841 -0.000607924 0)
(0.00207507 -0.000649533 0)
(0.00193852 -0.000700607 0)
(0.0017969 -0.000759309 0)
(0.00165329 -0.000829266 0)
(0.00150451 -0.000908828 0)
(0.00135414 -0.000999339 0)
(0.00120414 -0.00110117 0)
(0.00105256 -0.00121442 0)
(0.000907075 -0.00133852 0)
(0.000763038 -0.0014739 0)
(0.000626339 -0.00161834 0)
(0.000498722 -0.00176829 0)
(0.000383157 -0.00192431 0)
(0.000281121 -0.00207481 0)
(0.000195129 -0.00221451 0)
(0.00012877 -0.0023392 0)
(7.42985e-05 -0.00243284 0)
(3.36001e-05 -0.00249209 0)
(0 -0.00249633 0)
(0 -0.00246291 0)
(0 -0.00242951 0)
(0 -0.0023962 0)
(0 -0.00236289 0)
(0 -0.0023203 0)
(0 -0.00220795 0)
(0 -0.0019486 0)
(0 -0.00159645 0)
(0.000519313 -0.0012259 0)
(0.00107492 -0.00131161 0)
(0.00148366 -0.00155917 0)
(0.00175854 -0.00156395 0)
(0.00198056 -0.00145317 0)
(0.00218516 -0.00132156 0)
(0.00238287 -0.00118239 0)
(0.00257003 -0.00104256 0)
(0.00273707 -0.000904844 0)
(0.00288315 -0.00076975 0)
(0.00300841 -0.000635841 0)
(0.00311381 -0.000500039 0)
(0.00319416 -0.000370862 0)
(0.00325222 -0.000251026 0)
(0.00328824 -0.000122942 0)
(0.0027994 -0.000207941 0)
(0.00361563 -0.000140967 0)
(0.00186082 -0.000789936 0)
(0.00303667 -0.000218275 0)
(0.00341753 -5.87643e-05 0)
(0.00378909 -0.000243003 0)
(0.00401881 -7.49719e-05 0)
(0.000995281 -0.00163779 0)
(0.00311552 -0.000137 0)
(0.00217969 -0.000495969 0)
(0.00332575 -0.000271003 0)
(0.00371877 -5.2432e-05 0)
(0.0033236 -4.28943e-05 0)
(0.00253131 -0.000475699 0)
(0.00401567 -0.000137926 0)
(0.00255408 -0.000363089 0)
(0.00307111 -0.000135876 0)
(0.00336515 -0.000126358 0)
(0.00122324 -0.00125352 0)
(0.00169746 -0.00112953 0)
(0.00299268 -0.00032705 0)
(0.00353491 -0.000318404 0)
(0.00164856 -0.000832963 0)
(0.00242165 -0.000409395 0)
(0.00421553 -3.55893e-05 0)
(0.00391406 -0.000287274 0)
(0.00392475 -3.98199e-05 0)
(0.0036105 -2.52637e-05 0)
(0.00359416 -0.000220837 0)
(0.000404182 -0.00217768 0)
(0.00385943 -0.000123536 0)
(0.00275065 -0.000240667 0)
(0.00348971 -1.93586e-05 0)
(0.000813866 -0.00191637 0)
(0.00333462 -4.14424e-05 0)
(0.0041731 -7.89133e-05 0)
(0.004022 -0.00018932 0)
(0.00307165 -0.000114888 0)
(0.00326532 -0.000127457 0)
(0.00383286 -7.91114e-05 0)
(0.00296818 -0.000306518 0)
(0.00327112 -0.000201023 0)
(0.00277948 -0.000247403 0)
(0.00358293 -9.16133e-05 0)
(0.00219226 -0.000515532 0)
(0.00076546 -0.00171757 0)
(0.0032479 -7.23659e-05 0)
(0.00270232 -0.000386274 0)
(0.00370105 -0.000337265 0)
(0.00226036 -0.00080687 0)
(0.00407847 -3.03028e-05 0)
(0.00379864 -0.000180353 0)
(0.00317763 -0.000356341 0)
(0.00373891 -2.26385e-05 0)
(0.00206489 -0.000587046 0)
(0.00248063 -0.000345358 0)
(0.0018524 -0.00068398 0)
(0.00140639 -0.0012185 0)
(0.00356686 -5.57461e-05 0)
(0.00142443 -0.00149192 0)
(0.00344339 -1.53568e-05 0)
(0.00347318 -0.000185213 0)
(0.00316064 -0.000147763 0)
(0.00212066 -0.000696856 0)
(0.00246121 -0.000364665 0)
(0.00126929 -0.00111659 0)
(0.00304453 -0.000124085 0)
(0.00280036 -0.000262137 0)
(0.00336368 -0.000366198 0)
(0.000394463 -0.00219456 0)
(0.0041677 -0.000105592 0)
(0.00266872 -0.000572311 0)
(0.00237834 -0.000475699 0)
(0.00385014 -2.30934e-05 0)
(0.00398722 -0.000109058 0)
(0.00429217 -4.21863e-05 0)
(0.00403274 -0.000226742 0)
(0.00160532 -0.000926242 0)
(0.00327652 -9.74018e-05 0)
(0.00334849 -4.81232e-05 0)
(0.00288349 -0.000294851 0)
(0.00342719 -8.24254e-05 0)
(0.00357923 -1.26656e-05 0)
(0.00340483 -4.0744e-05 0)
(0.00432768 -1.40133e-05 0)
(0.00399235 -0.000315057 0)
(0.00317289 -0.000264173 0)
(0.00391014 -0.000183639 0)
(0.00369487 -0.000100837 0)
(0.00297618 -0.000186206 0)
(0.00346371 -0.000144863 0)
(0.00413906 -0.000139256 0)
(0.00320501 -7.9623e-05 0)
(0.00348321 -0.000271074 0)
(0.000894282 -0.0014899 0)
(0.00280489 -0.000303502 0)
(0.00415039 -6.08984e-05 0)
(0.00390755 -0.000243551 0)
(0.00363879 -0.000261862 0)
(0.00368571 -0.000168669 0)
(0.00200546 -0.00110874 0)
(0.000482874 -0.00202247 0)
(0.00349558 -3.60451e-05 0)
(0.00015116 -0.00240815 0)
(0.0028588 -0.000407659 0)
(0.00107556 -0.00146759 0)
(0.00134213 -0.00139342 0)
(0.00266978 -0.000273673 0)
(0.00235536 -0.000497954 0)
(0.00318506 -7.92496e-05 0)
(0.00356474 -0.000368739 0)
(0.00178563 -0.000939876 0)
(0.00380815 -0.000348241 0)
(0.0029273 -0.000169252 0)
(0.00341527 -1.59989e-05 0)
(0.00401638 -4.84311e-05 0)
(0.00314601 -0.000275701 0)
(0.00417946 -1.91268e-05 0)
(0.00399491 -2.04076e-05 0)
(0.00381645 -5.52067e-05 0)
(0.0015759 -0.000856094 0)
(0.00367775 -1.36731e-05 0)
(0.00193762 -0.000640619 0)
(0.000699624 -0.00187023 0)
(0.000732445 -0.00192082 0)
(0.00391012 -8.97485e-05 0)
(0.00301174 -0.000399796 0)
(0.0021428 -0.000580681 0)
(0.000733879 -0.00191126 0)
(0.00366826 -3.69754e-05 0)
(0.00269482 -0.000251025 0)
(0.0031927 -0.000180547 0)
(0.00378365 -0.000283054 0)
(0.00332265 -0.000108583 0)
(0.00390438 -0.00014607 0)
(0.00314038 -0.000175262 0)
(0.00326432 -7.70712e-05 0)
(0.00350441 -8.21309e-06 0)
(0.00300046 -0.0001558 0)
(0.00288862 -0.000180748 0)
(0.0037377 -0.000126452 0)
(0.000218518 -0.00233595 0)
(0.00127451 -0.00170724 0)
(0.00194016 -0.000652832 0)
(0.00410786 -4.70607e-05 0)
(0.00304994 -0.000255608 0)
(0.00432784 -2.61744e-05 0)
(0.00404458 -0.000260109 0)
(0.00373153 -7.56088e-05 0)
(0.00335573 -3.28626e-05 0)
(0.00336813 -0.000311937 0)
(0.00340576 -3.04918e-05 0)
(0.0016032 -0.000999405 0)
(0.00110265 -0.00164429 0)
(0.00262809 -0.000306948 0)
(0.0025266 -0.000460526 0)
(0.00425428 -7.11085e-05 0)
(0.00378482 -3.57387e-05 0)
(0.000407203 -0.00216404 0)
(0.00271483 -0.00033242 0)
(0.00371247 -0.00021422 0)
(0.00229415 -0.00045126 0)
(0.00181143 -0.00074751 0)
(0.00412436 -0.000173935 0)
(0.00261616 -0.00036383 0)
(0.00366169 -0.000300275 0)
(0.00391286 -6.11587e-05 0)
(0.0034547 -0.000230991 0)
(0.00339304 -2.08813e-05 0)
(0.00207912 -0.000554306 0)
(0.00408881 -0.000107142 0)
(0.00237932 -0.000419088 0)
(0.0033477 -6.09244e-05 0)
(0.0040245 -0.000163618 0)
(0.00334055 -0.000224697 0)
(0.00363268 -6.58432e-05 0)
(0.00201604 -0.00087073 0)
(0.00319838 -9.68149e-05 0)
(0.00292475 -0.000464857 0)
(0.00408958 -8.51074e-05 0)
(0.00322338 -6.7776e-05 0)
(0.0021714 -0.000560729 0)
(0.00313215 -0.000315755 0)
(0.0035691 -0.000120009 0)
(0.0030069 -0.000133111 0)
(0.00330902 -5.16509e-05 0)
(0.00323935 -0.000398296 0)
(0.00332573 -0.00016092 0)
(0.00250311 -0.000798229 0)
(0.00273681 -0.000415965 0)
(0.00237645 -0.000394694 0)
(0.00379703 -1.31661e-05 0)
(0.00175351 -0.00138407 0)
(0.003449 -0.000389124 0)
(0.00348096 -0.000104094 0)
(0.00100927 -0.00132278 0)
(0.00256157 -0.000401816 0)
(0.000626503 -0.00177556 0)
(0.000278423 -0.00225992 0)
(0.00135565 -0.00101595 0)
(0.00267296 -0.000446043 0)
(0.00329478 -0.000116032 0)
(0.00232181 -0.000645312 0)
(0.00331995 -6.8372e-05 0)
(0.00392322 -1.5229e-05 0)
(0.00357388 -0.000186217 0)
(0.00390415 -0.000212972 0)
(0.00365752 -0.000380341 0)
(0.0028549 -0.000344723 0)
(0.00379066 -0.000153625 0)
(0.00429409 -5.15906e-05 0)
(0.00227552 -0.000451641 0)
(0.00350725 -4.9199e-05 0)
(0.00381267 -0.000102995 0)
(0.00251007 -0.000340921 0)
(0.00411273 -1.47423e-05 0)
(0.00137959 -0.00107652 0)
(0.00258855 -0.000301597 0)
(0.00353976 -7.66809e-05 0)
(0.00383573 -0.000201892 0)
(0.00170695 -0.000773737 0)
(0.00355166 -6.90911e-06 0)
(0.00255322 -0.00035258 0)
(0.00219154 -0.000494279 0)
(0.00102597 -0.00144976 0)
(0.00380977 -0.000311025 0)
(0.00354029 -2.08212e-05 0)
(0.00298915 -0.000223246 0)
(0.00373167 -1.05435e-05 0)
(0.00389561 -0.000349381 0)
(0.00191156 -0.000716262 0)
(0.00207565 -0.000668767 0)
(0.00326741 -0.000305775 0)
(0.00399405 -3.53985e-05 0)
(0.00177337 -0.000735089 0)
(0.00165566 -0.00126752 0)
(0.000471377 -0.00212637 0)
(0.0031119 -0.000407494 0)
(0.00362857 -8.69323e-06 0)
(0.00426512 -1.20442e-05 0)
(0.00338386 -0.000180937 0)
(0.00288191 -0.000267152 0)
(0.00133586 -0.001198 0)
(0.00386568 -3.59701e-05 0)
(0.00264143 -0.000273395 0)
(0.00314278 -0.000221541 0)
(0.00420919 -0.000107827 0)
(0.00225058 -0.00101719 0)
(0.00152153 -0.00121036 0)
(0.00122595 -0.00141697 0)
(0.00291404 -0.000188613 0)
(0.00324488 -0.000226156 0)
(0.00292566 -0.000210617 0)
(0.00345695 -6.60199e-06 0)
(0.00318535 -0.000125475 0)
(0.0030881 -0.000175439 0)
(0.00358431 -3.89144e-05 0)
(0.00323455 -0.000113362 0)
(0.00392902 -7.40463e-05 0)
(0.0041019 -0.000128361 0)
(0.00290196 -0.00017151 0)
(0.00115061 -0.00125411 0)
(0.00352507 -0.000159594 0)
(0.00337397 -7.65022e-05 0)
(0.00325977 -0.000145964 0)
(0.00156322 -0.00153352 0)
(0.00367411 -2.45835e-05 0)
(0.00315455 -9.79875e-05 0)
(0.00416725 -0.000144775 0)
(0.00337987 -3.08984e-05 0)
(0.00345744 -1.8192e-05 0)
(0.00294579 -0.000219252 0)
(0.00436106 -7.34829e-06 0)
(0.00402025 -0.000327299 0)
(0.00415613 -3.30105e-05 0)
(0.0019771 -0.000609314 0)
(0.00280943 -0.000239956 0)
(0.00343068 -0.000330655 0)
(0.0036859 -0.000194997 0)
(0.000899294 -0.00166279 0)
(0.00251758 -0.000562464 0)
(0.00347085 -3.03668e-05 0)
(0.00392861 -0.000109504 0)
(0.00325792 -0.000351822 0)
(0.00234779 -0.000461913 0)
(0.00420031 -6.44607e-05 0)
(0.00400476 -0.000214542 0)
(0.00145767 -0.000962738 0)
(0.00366555 -8.62684e-05 0)
(0.000202353 -0.00230612 0)
(0.00420711 -4.67626e-05 0)
(0.00395169 -0.000254217 0)
(0.00302965 -0.000138386 0)
(0.00329646 -4.98844e-05 0)
(0.00388535 -0.000168869 0)
(0.00348467 -6.56561e-06 0)
(0.00372286 -0.000381382 0)
(0.00332386 -0.000407018 0)
(0.00425609 -8.04107e-05 0)
(0.00268904 -0.000311882 0)
(0.00398413 -0.000127203 0)
(0.00357125 -0.000252288 0)
(0.00404815 -1.28553e-05 0)
(0.00110547 -0.00121276 0)
(0.00371582 -0.000262712 0)
(0.00435043 -2.80465e-05 0)
(0.00409373 -0.000229191 0)
(0.00155874 -0.000921869 0)
(0.00386491 -0.000274745 0)
(0.00363617 -5.13385e-05 0)
(0.00229828 -0.00058735 0)
(0.00361554 -1.60104e-05 0)
(0.00345118 -6.56406e-05 0)
(0.00274241 -0.000709308 0)
(0.000614251 -0.00203272 0)
(0.00363579 -0.000332351 0)
(0.00343894 -4.51493e-05 0)
(0.00313623 -9.529e-05 0)
(0.00297005 -0.00029633 0)
(0.00290902 -0.000427625 0)
(0.00321652 -0.000287091 0)
(0.00355011 -0.000283302 0)
(0.000464328 -0.00195097 0)
(0.00437455 -1.47117e-05 0)
(0.00406791 -0.00027858 0)
(0.00238863 -0.000510544 0)
(0.00426347 -2.24731e-05 0)
(0.000111751 -0.00241841 0)
(0.00384382 -8.45289e-06 0)
(0.00392209 -0.000314082 0)
(0.00416113 -9.39959e-05 0)
(0.00399367 -9.16714e-05 0)
(0.0019388 -0.000804228 0)
(7.89915e-05 -0.0024623 0)
(0.00344891 -0.000122142 0)
(0.00341843 -1.12593e-05 0)
(0.00390781 -2.57065e-05 0)
(0.00408538 -6.23619e-05 0)
(0.00111163 -0.00171872 0)
(0.000688321 -0.00165235 0)
(0.00205301 -0.000938863 0)
(0.00311392 -0.000118186 0)
(0.000768511 -0.00184884 0)
(0.00306497 -0.000400029 0)
(0.00117446 -0.00174801 0)
(0.00142323 -0.00108251 0)
(0.00307284 -0.000160346 0)
(0.00338571 -2.26112e-05 0)
(0.000632268 -0.00188915 0)
(0.00175663 -0.000836358 0)
(0.00289322 -0.000190318 0)
(0.00303859 -0.000352166 0)
(0.00220552 -0.000513221 0)
(0.00350422 -0.0003544 0)
(0.00333107 -5.05486e-05 0)
(0.00372463 -3.8605e-05 0)
(0.00234778 -0.000409892 0)
(0.0036703 -0.000150027 0)
(0.0037929 -2.3333e-05 0)
(0.00338109 -0.000104384 0)
(0.00250477 -0.000359669 0)
(0.0032468 -0.000232078 0)
(0.00353642 -1.40972e-05 0)
(0.00326725 -6.52373e-05 0)
(0.00277485 -0.000223167 0)
(0.00331026 -7.94375e-05 0)
(0.00037158 -0.00210493 0)
(0.00317921 -0.000191402 0)
(0.00276292 -0.000449597 0)
(0.00203361 -0.000628798 0)
(0.00300441 -0.000165798 0)
(0.0035911 -4.75203e-06 0)
(0.00412512 -0.000194776 0)
(0.00178174 -0.000742908 0)
(0.00306919 -0.000287271 0)
(0.00340426 -2.14398e-05 0)
(0.0024753 -0.000414592 0)
(0.00230885 -0.000490934 0)
(0.00278581 -0.000338879 0)
(0.00364167 -0.000118753 0)
(0.00383275 -0.00025761 0)
(0.00409169 -0.000169194 0)
(0.00332779 -5.68567e-05 0)
(0.000128859 -0.00236157 0)
(0.00376074 -8.69242e-05 0)
(0.00396506 -0.000158613 0)
(0.000254922 -0.00231954 0)
(0.00310601 -0.000108397 0)
(0.000492822 -0.00206625 0)
(0.00329731 -4.76549e-05 0)
(0.00265128 -0.00038103 0)
(0.00246448 -0.000699787 0)
(0.00396648 -0.000188249 0)
(0.00278541 -0.000274281 0)
(0.000172591 -0.00236772 0)
(0.00338777 -2.37079e-05 0)
(0.00113831 -0.00155526 0)
(0.00354596 -0.000211012 0)
(0.00339842 -0.000278323 0)
(0.00183778 -0.000970696 0)
(0.00280792 -0.000448869 0)
(0.000796947 -0.0016276 0)
(0.00392341 -0.000126326 0)
(0.00310273 -0.000101862 0)
(0.00294227 -0.000368497 0)
(0.00336093 -4.55129e-05 0)
(0.000965501 -0.00186236 0)
(0.00276896 -0.000224394 0)
(0.00277915 -0.000230575 0)
(0.00416443 -4.72177e-05 0)
(0.00256488 -0.000305989 0)
(0.00198132 -0.000615045 0)
(0.00355152 -2.81113e-05 0)
(0.000842157 -0.00146985 0)
(0.00351452 -0.000396905 0)
(0.00319705 -9.47896e-05 0)
(0.00213842 -0.00117504 0)
(0.00394472 -0.000354127 0)
(0.00379526 -6.90823e-05 0)
(0.00297389 -0.000255438 0)
(0.000327054 -0.00215257 0)
(0.00227134 -0.000544753 0)
(0.00159782 -0.001056 0)
(0.00177843 -0.000887712 0)
(0.00371112 -0.000239923 0)
(0.00377459 -4.76569e-05 0)
(0.0029008 -0.000285099 0)
(0.00406414 -4.23302e-05 0)
(0.00332261 -7.88385e-05 0)
(0.00421245 -0.000118908 0)
(0.0042769 -2.85911e-05 0)
(0.00129753 -0.00149506 0)
(0.0027924 -0.000286939 0)
(0.00431851 -6.71345e-06 0)
(0.00397291 -0.00028431 0)
(0.00138709 -0.000981176 0)
(0.00368713 -6.76289e-05 0)
(0.00327167 -5.64282e-05 0)
(0.00359093 -0.000164681 0)
(0.00323428 -6.98498e-05 0)
(0.00279384 -0.000210698 0)
(0.00416763 -7.97976e-06 0)
(0.00248 -0.000462461 0)
(0.00289742 -0.000171158 0)
(0.00153639 -0.00127301 0)
(0.00301969 -0.000341512 0)
(0.00351598 -0.000240153 0)
(0.00118244 -0.00133484 0)
(0.000874355 -0.00183399 0)
(0.000426426 -0.00163834 0)
(0.00387927 -4.96636e-05 0)
(0.00397046 -1.07922e-05 0)
(0.00379681 -0.000135823 0)
(0.00352839 -0.000108331 0)
(0.0042347 -6.47272e-05 0)
(0.000333815 -0.00224268 0)
(0.0039519 -4.92775e-05 0)
(0.000601054 -0.00186455 0)
(0.00193833 -0.000655206 0)
(0.00179763 -0.000738975 0)
(0.00275575 -0.000404289 0)
(0.00242725 -0.000430699 0)
(0.00184474 -0.00111509 0)
(0.000928345 -0.00173536 0)
(0.00362263 -0.000103498 0)
(0.0034839 -0.000299511 0)
(0.004105 -0.000114733 0)
(0.00366117 -6.08659e-06 0)
(0.0012509 -0.0013206 0)
(0.00327898 -0.000252877 0)
(0.00307455 -0.000250142 0)
(0.00315608 -0.000140181 0)
(0.00402287 -6.16843e-05 0)
(0.00375093 -0.000172266 0)
(0.003276 -0.000150155 0)
(0.00370978 -0.00030909 0)
(0.00388151 -8.1378e-05 0)
(0.00332811 -7.84861e-05 0)
(0.0037506 -0.000347094 0)
(0.003441 -7.01072e-06 0)
(0.00381742 -0.000372168 0)
(0.00257575 -0.000315201 0)
(0.000665295 -0.00201496 0)
(0.00358982 -0.000397069 0)
(0.00326253 -0.000179446 0)
(0.00314385 -0.000244897 0)
(0.000904049 -0.00160823 0)
(0.00225763 -0.000471233 0)
(0.000576656 -0.00201701 0)
(0.00427367 -3.78147e-05 0)
(0.004004 -0.000255674 0)
(0.00340046 -1.35034e-05 0)
(0.00411101 -9.16279e-05 0)
(0.00387418 -0.000105 0)
(0.00207012 -0.000558795 0)
(0.00254995 -0.000332158 0)
(0.00316017 -0.000345072 0)
(0.00310751 -0.00019002 0)
(0.00404061 -2.42349e-05 0)
(0.00162889 -0.000830447 0)
(0.00172612 -0.000760652 0)
(0.000322499 -0.00224539 0)
(0.0025707 -0.000481218 0)
(0.00221173 -0.000601876 0)
(0.00394843 -0.00021744 0)
(0.00344628 -2.75504e-05 0)
(0.00333826 -9.67738e-05 0)
(0.00375779 -0.000105762 0)
(0.00351068 -6.8606e-05 0)
(0.0038555 -0.000318065 0)
(0.00219256 -0.000772053 0)
(0.00412502 -2.50879e-05 0)
(0.00105312 -0.00153807 0)
(0.0039554 -2.8797e-05 0)
(0.00303555 -0.000432088 0)
(0.00352802 -4.11093e-06 0)
(0.00433496 -3.75852e-05 0)
(0.00106686 -0.00135911 0)
(0.0015273 -0.000886594 0)
(0.00383705 -0.000159841 0)
(0.00299504 -0.000145804 0)
(0.00312071 -0.00011477 0)
(0.00375461 -6.09648e-05 0)
(0.00360008 -0.000296231 0)
(0.00353661 -0.000139493 0)
(0.00208972 -0.000574067 0)
(0.00149151 -0.00164866 0)
(0.00370702 -1.72587e-05 0)
(0.00385527 -0.00014088 0)
(0.00317431 -0.000112521 0)
(0.00296772 -0.000146697 0)
(0.0043093 -5.32608e-05 0)
(0.0019809 -0.000827582 0)
(0.00342551 -0.000212482 0)
(0.00199966 -0.00068418 0)
(0.00330108 -7.18521e-05 0)
(0.004151 -0.000122814 0)
(0.00298822 -0.00014124 0)
(0.0036478 -0.000236501 0)
(0.00310238 -0.000371864 0)
(0.00306742 -0.000229476 0)
(0.00336551 -4.18662e-05 0)
(0.00336617 -3.02891e-05 0)
(0.00362573 -3.30003e-05 0)
(0.00405741 -8.00033e-05 0)
(0.00259611 -0.000413725 0)
(0.00353617 -3.92219e-05 0)
(9.07145e-05 -0.00239761 0)
(0.00336912 -0.000241257 0)
(0.000769159 -0.00176524 0)
(0.00396484 -8.27979e-05 0)
(0.00185323 -0.000690825 0)
(0.00302411 -0.000161913 0)
(0.0033503 -3.96114e-05 0)
(0.00287517 -0.000609094 0)
(0.00385281 -6.41493e-05 0)
(0.00329213 -0.000162864 0)
(0.00414553 -7.49964e-05 0)
(0.00338558 -5.25163e-05 0)
(0.00438186 -1.77958e-05 0)
(0.00410246 -0.000249814 0)
(0.000181499 -0.00226174 0)
(0.00332383 -9.3142e-05 0)
(0.00370897 -3.00134e-05 0)
(0.00266213 -0.000371682 0)
(0.0033768 -2.6477e-05 0)
(0.00342897 -0.000363923 0)
(0.00406333 -0.000190198 0)
(0.00369908 -5.91521e-06 0)
(0.00248206 -0.000447137 0)
(0.00227423 -0.000447222 0)
(0.00260919 -0.000363515 0)
(0.00397132 -6.06732e-05 0)
(0.00205075 -0.000617567 0)
(0.00318642 -0.000161591 0)
(0.00142047 -0.00101769 0)
(0.00290094 -0.0002012 0)
(0.00367202 -0.000129858 0)
(0.00395913 -0.000144922 0)
(0.00296804 -0.000164352 0)
(0.00350368 -1.33607e-05 0)
(0.00265714 -0.000315337 0)
(0.00315005 -8.8915e-05 0)
(0.00362541 -0.000194179 0)
(0.00317516 -0.000423042 0)
(0.00189721 -0.000694435 0)
(0.00358005 -2.03634e-05 0)
(0.00270658 -0.000284863 0)
(0.00380524 -0.000117186 0)
(0.00302264 -0.000237271 0)
(0.0024818 -0.000347315 0)
(0.00389773 -7.95537e-06 0)
(0.00345098 -0.000166967 0)
(0.00262854 -0.000283957 0)
(0.00221844 -0.00056575 0)
(0.00347544 -1.19396e-05 0)
(0.00238543 -0.000411361 0)
(0.00378157 -0.000198957 0)
(0.00240354 -0.000387809 0)
(0.00336493 -3.15771e-05 0)
(0.00331753 -0.000144237 0)
(0.00333443 -0.000203304 0)
(0.00363506 -0.00036086 0)
(0.00322794 -0.000126382 0)
(0.00417396 -0.000164869 0)
(0.00167439 -0.00085131 0)
(0.0026877 -0.000258718 0)
(0.00237708 -0.000408148 0)
(0.00056345 -0.00205144 0)
(0.00324236 -6.43755e-05 0)
(0.00219364 -0.000930153 0)
(0.00339996 -0.000413809 0)
(0.00189011 -0.00100417 0)
(0.00426144 -8.6196e-05 0)
(0.00376866 -7.22775e-06 0)
(0.00194477 -0.001304 0)
(0.00350944 -0.000126826 0)
(0.00325262 -7.87686e-05 0)
(0.00290059 -0.000220183 0)
(0.00133766 -0.00161152 0)
(0.00147977 -0.000930808 0)
(0.00179833 -0.00125668 0)
(0.00217054 -0.000502764 0)
(0.00218202 -0.000510541 0)
(0.00363017 -7.80935e-05 0)
(0.00364639 -1.86005e-05 0)
(0.00384423 -0.000219304 0)
(0.00122116 -0.00110327 0)
(0.00341253 -8.94418e-06 0)
(0.00373503 -0.000151083 0)
(0.00408402 -0.000145146 0)
(0.00159878 -0.000965767 0)
(0.00375168 -3.00571e-05 0)
(0.00246186 -0.000508843 0)
(0.00404616 -0.000121315 0)
(0.00358268 -6.51188e-05 0)
(0.00404544 -0.000169824 0)
(0.00261408 -0.000326297 0)
(0.00306536 -0.000114642 0)
(0.003535 -0.000178187 0)
(0.00356634 -0.000336011 0)
(7.53692e-05 -0.00244949 0)
(0.00333273 -0.000297477 0)
(0.00382477 -3.12224e-05 0)
(0.00319041 -0.000323514 0)
(0.00368631 -4.61516e-05 0)
(0.00270441 -0.000268803 0)
(0.00429629 -6.31047e-05 0)
(0.00347725 -4.67858e-05 0)
(0.00212211 -0.000540423 0)
(0.00165815 -0.00107308 0)
(0.00360647 -4.348e-05 0)
(0.000432658 -0.00215745 0)
(0.00179078 -0.00145608 0)
(0.00227901 -0.00044377 0)
(0.00353246 -9.03656e-05 0)
(0.00222569 -0.000515077 0)
(0.00338943 -0.000161613 0)
(0.00324504 -0.00042525 0)
(0.00244359 -0.000404182 0)
(0.0034707 -9.00999e-05 0)
(0.00334818 -0.000340381 0)
(0.000382607 -0.00215293 0)
(0.000786406 -0.00159058 0)
(0.00138106 -0.0013076 0)
(0.00420664 -2.61931e-05 0)
(0.0040525 -0.000104504 0)
(0.00421091 -8.80724e-05 0)
(0.00421414 -7.71728e-05 0)
(0.00337682 -2.9525e-05 0)
(0.0024507 -0.000939463 0)
(0.00101449 -0.00135925 0)
(0.0028052 -0.000306645 0)
(0.00344891 -0.000255523 0)
(0.00376825 -0.000266672 0)
(0.00228932 -0.00048007 0)
(0.0033599 -4.45762e-05 0)
(0.00410684 -3.649e-05 0)
(0.00193375 -0.000677251 0)
(0.00365597 -0.000214792 0)
(0.0033852 -0.00014276 0)
(0.00144448 -0.00114226 0)
(0.0028731 -0.000362325 0)
(0.00172617 -0.000888388 0)
(0.00336051 -3.50293e-05 0)
(0.00206344 -0.000572056 0)
(0.00401221 -0.000287055 0)
(0.00422501 -7.93181e-06 0)
(0.00278148 -0.000564747 0)
(0.00407124 -0.000201053 0)
(0.00321887 -0.000196966 0)
(0.00375851 -1.56704e-05 0)
(0.00195945 -0.000621053 0)
(0.0038802 -7.15265e-05 0)
(0.00432242 -2.11503e-05 0)
(0.00439334 -7.93404e-06 0)
(0.00406637 -0.000303124 0)
(0.00377883 -0.000219736 0)
(0.000222559 -0.0022724 0)
(0.00319282 -0.000382605 0)
(0.00320769 -0.000220529 0)
(0.00403438 -0.000147475 0)
(0.000602604 -0.00204624 0)
(0.00401127 -7.89719e-06 0)
(0.00325881 -8.83665e-05 0)
(0.00326583 -5.62869e-05 0)
(0.00367167 -5.68187e-05 0)
(0.00403587 -9.38625e-05 0)
(0.00347331 -3.94053e-06 0)
(0.00275274 -0.000361018 0)
(0.002988 -0.000144673 0)
(0.00332768 -0.000180582 0)
(0.00264185 -0.000427223 0)
(0.00215494 -0.000594387 0)
(0.00161574 -0.00138091 0)
(0.00320661 -0.000150647 0)
(0.00147769 -0.00137551 0)
(0.00340045 -0.000197816 0)
(0.000256181 -0.00229813 0)
(0.00312972 -0.000204315 0)
(0.00397833 -0.000169075 0)
(0.00386133 -0.000374985 0)
(0.00125417 -0.00158378 0)
(0.00266686 -0.000493833 0)
(0.0030032 -0.000518256 0)
(0.00329143 -0.00037327 0)
(0.00235074 -0.00069374 0)
(0.00264305 -0.000443127 0)
(0.0037171 -0.000284313 0)
(0.000324385 -0.00184339 0)
(0.00271635 -0.000242561 0)
(0.00383712 -0.000186327 0)
(0.000919123 -0.00136477 0)
(0.00306876 -0.00031313 0)
(0.00424837 -9.94039e-05 0)
(0.00284341 -0.000195707 0)
(0.00261229 -0.00028479 0)
(0.00339264 -0.000387679 0)
(0.00178247 -0.000789465 0)
(0.00382335 -4.33557e-05 0)
(0.00310206 -0.000138851 0)
(0.00387935 -1.59959e-05 0)
(0.00296317 -0.000442067 0)
(0.00113932 -0.00123039 0)
(0.00234997 -0.000851492 0)
(0.00395018 -2.04365e-05 0)
(0.00052765 -0.00181539 0)
(0.00227769 -0.0005102 0)
(0.00209462 -0.000542882 0)
(0.00253902 -0.000320388 0)
(0.0034258 -0.000109592 0)
(0.00245349 -0.000357104 0)
(0.00266645 -0.00028789 0)
(0.00264921 -0.000481926 0)
(0.00335089 -4.28968e-05 0)
(0.00366095 -0.000279867 0)
(0.00313333 -0.000291743 0)
(0.00292036 -0.000385228 0)
(0.00318432 -8.10373e-05 0)
(0.00167217 -0.000832576 0)
(0.00331118 -0.000127317 0)
(0.00364725 -0.000402985 0)
(0.00355199 -4.70123e-05 0)
(0.00362667 -3.75582e-06 0)
(0.00418855 -0.000148265 0)
(0.00318696 -8.55277e-05 0)
(0.00148092 -0.00107622 0)
(0.00380385 -9.29782e-05 0)
(0.00405961 -5.24142e-05 0)
(0.00358413 -7.74216e-05 0)
(0.0012575 -0.00118842 0)
(0.00329826 -5.76724e-05 0)
(0.00126985 -0.00114526 0)
(0.00126788 -0.00109292 0)
(0.00371265 -8.7879e-05 0)
(0.0041215 -6.02957e-06 0)
(0.0019363 -0.000764455 0)
(0.00261436 -0.000829933 0)
(0.000882454 -0.0015826 0)
(0.00284935 -0.000360401 0)
(0.00380269 -5.65822e-06 0)
(0.00216563 -0.000722037 0)
(0.00294344 -0.00039606 0)
(0.00240478 -0.000556511 0)
(0.00320654 -7.19599e-05 0)
(0.00374472 -0.00019185 0)
(0.003874 -0.00023322 0)
(0.00290654 -0.000242867 0)
(0.00237396 -0.000400452 0)
(0.00262888 -0.000690082 0)
(0.0030135 -0.000186789 0)
(0.00151218 -0.00117196 0)
(0.00289121 -0.00031571 0)
(0.00386292 -0.000339651 0)
(0.00389059 -0.000201677 0)
(0.00285638 -0.000199182 0)
(0.00433898 -4.09961e-05 0)
(0.0030747 -0.0001799 0)
(0.00323864 -0.000136377 0)
(0.000621534 -0.00199351 0)
(0.0027185 -0.000240051 0)
(0.00385263 -9.17513e-05 0)
(0.00411315 -7.2209e-05 0)
(0.00325792 -0.000161964 0)
(0.000867861 -0.00172955 0)
(0.00440391 -3.02451e-06 0)
(0.00405497 -0.000332034 0)
(0.00382836 -1.65478e-05 0)
(0.00355618 -2.83145e-06 0)
(0.000332742 -0.00224794 0)
(0.00250358 -0.000409679 0)
(0.0031963 -0.000110046 0)
(0.00375923 -0.00031577 0)
(0.00265809 -0.000277829 0)
(0.00292036 -0.000328363 0)
(0.00218053 -0.000502811 0)
(0.00426558 -5.26371e-05 0)
(0.00369539 -0.000359975 0)
(0.00350128 -0.000200238 0)
(0.00283504 -0.000452229 0)
(0.00350778 -0.000377057 0)
(0.0035924 -0.00012993 0)
(0.00346275 -9.54709e-06 0)
(0.00426184 -6.35415e-05 0)
(0.00342063 -2.2992e-05 0)
(0.00345965 -0.000413409 0)
(0.00163444 -0.000825536 0)
(0.00408129 -2.14961e-05 0)
(0.00287879 -0.000246766 0)
(0.00288574 -0.000175266 0)
(0.00350186 -2.34223e-05 0)
(0.00350652 -2.83217e-05 0)
(0.00422789 -1.83906e-05 0)
(0.000238108 -0.00232499 0)
(0.00186362 -0.000676814 0)
(0.00343714 -1.27914e-05 0)
(0.00336292 -6.56453e-05 0)
(0.00307849 -0.000118154 0)
(0.00331134 -9.03258e-05 0)
(0.00394035 -6.85091e-06 0)
(0.00421445 -9.73341e-05 0)
(0.00278365 -0.000369776 0)
(0.00357973 -3.24483e-05 0)
(0.00350868 -5.64739e-05 0)
(9.80918e-05 -0.0024442 0)
(0.00435774 -3.38072e-06 0)
(0.00399971 -0.000349347 0)
(0.00369667 -0.000114745 0)
(0.002954 -0.000234518 0)
(0.00364385 -1.26548e-05 0)
(0.00230381 -0.000462682 0)
(0.00393728 -9.60839e-05 0)