/*--------------------------------*- C++ -*----------------------------------*\
| =========                 |                                                 |
| \\      /  F ield         | OpenFOAM: The Open Source CFD Toolbox           |
|  \\    /   O peration     | Version:  v2012                                 |
|   \\  /    A nd           | Website:  www.openfoam.com                      |
|    \\/     M anipulation  |                                                 |
\*---------------------------------------------------------------------------*/
FoamFile
{
    version     2.0;
    format      ascii;
    class       volSymmTensorField;
    location    "19";
    object      epsilon;
}
// * * * * * * * * * * * * * * * * * * * * * * * * * * * * * * * * * * * * * //

dimensions      [0 0 0 0 0 0 0];


internalField   nonuniform List<symmTensor> 
2000
(
(0.00565765 -0.000913459 4.49044e-15 -0.00702978 3.93563e-14 0)
(0.00588875 -0.000677973 -1.54813e-15 -0.00683855 2.90779e-14 0)
(0.00587533 -0.000845346 -5.45755e-15 -0.00666432 1.6708e-14 0)
(0.00578346 -0.000787808 -1.66075e-14 -0.00626624 1.75906e-14 0)
(0.00578904 -0.000712196 -8.53923e-15 -0.00603586 6.93656e-15 0)
(0.00544827 -0.000828136 -1.42123e-14 -0.00552025 1.66529e-14 0)
(0.00546991 -0.000547075 -3.53043e-15 -0.00523342 6.64323e-15 0)
(0.00492161 -0.000826947 -3.16836e-15 -0.00461973 1.58225e-14 0)
(0.00495791 -0.000358816 7.6691e-16 -0.00430593 1.38774e-14 0)
(0.00424811 -0.000785349 9.83865e-15 -0.00361961 1.34565e-14 0)
(0.004297 -0.00015702 6.98031e-15 -0.00331035 1.574e-14 0)
(0.00351319 -0.000688819 6.91461e-15 -0.00264777 3.27364e-15 0)
(0.00356927 3.08025e-05 -1.18075e-15 -0.00234709 1.23343e-14 0)
(0.00280668 -0.000548811 -1.81788e-15 -0.00181643 6.62664e-15 0)
(0.00286326 0.000177181 -2.76173e-16 -0.00151668 1.64949e-14 0)
(0.00219225 -0.000391141 1.75727e-15 -0.00117326 7.05208e-15 0)
(0.00224381 0.000270839 1.56743e-15 -0.000875187 9.63162e-15 0)
(0.00169931 -0.000239152 1.97113e-15 -0.000711036 1.77202e-15 0)
(0.00174257 0.000316965 -1.80791e-17 -0.000429028 4.10067e-15 0)
(0.00132913 -0.000106915 -8.12013e-16 -0.000396133 2.00512e-15 0)
(0.00529901 -0.00165607 -1.27984e-14 -0.00668094 3.30128e-14 0)
(0.00531956 -0.00141474 -3.03451e-14 -0.00610818 9.1543e-15 0)
(0.00525865 -0.00167297 -2.57567e-14 -0.00612366 8.41043e-15 0)
(0.00499848 -0.00150631 -3.13763e-14 -0.00524124 -9.26689e-15 0)
(0.00498981 -0.00155254 -2.4497e-14 -0.00540339 1.18816e-14 0)
(0.00446916 -0.00148124 -2.29317e-14 -0.00423987 -6.80478e-15 0)
(0.00450864 -0.00133205 -9.97629e-15 -0.00453767 9.33498e-15 0)
(0.00378724 -0.0013623 -7.30893e-15 -0.00317235 -7.58421e-15 0)
(0.00387007 -0.00103638 8.84622e-15 -0.00357776 2.60241e-15 0)
(0.00309451 -0.00115387 3.71318e-15 -0.00224411 -3.29164e-15 0)
(0.00320726 -0.00070119 5.4221e-15 -0.00264393 -7.32921e-16 0)
(0.00249671 -0.000892645 -4.77613e-15 -0.00157716 -2.73284e-15 0)
(0.00262223 -0.000378053 -2.61179e-15 -0.00184217 -1.39244e-15 0)
(0.00202772 -0.000626233 -1.40166e-15 -0.00114825 -2.63461e-15 0)
(0.00215239 -0.000103707 1.40583e-15 -0.00121826 9.81203e-17 0)
(0.00167815 -0.000385295 3.44462e-15 -0.000879591 -2.42796e-15 0)
(0.00179319 0.000107396 3.67084e-15 -0.000766166 -3.32308e-16 0)
(0.00142673 -0.000181839 3.68894e-15 -0.000705833 -3.21596e-15 0)
(0.00152662 0.000255016 5.01335e-16 -0.000454326 -1.39287e-15 0)
(0.00126281 -1.30373e-05 1.11147e-15 -0.000593682 -1.74903e-15 0)
(0.00455418 -0.00223025 -2.64507e-14 -0.00583065 3.02064e-15 0)
(0.00421718 -0.00189502 -2.65512e-14 -0.00472834 -1.01775e-14 0)
(0.00412223 -0.00216186 -3.55399e-14 -0.0050116 -1.76155e-14 0)
(0.00354303 -0.00179675 -2.94263e-14 -0.00347602 -1.58253e-14 0)
(0.00351806 -0.0019193 -2.36504e-14 -0.00407725 -2.17239e-14 0)
(0.00276554 -0.00156947 -1.24347e-14 -0.00225092 -1.77026e-14 0)
(0.00280319 -0.00155786 -9.64289e-15 -0.00308572 -1.52958e-14 0)
(0.00211007 -0.00126552 -9.10296e-16 -0.00137456 -8.49657e-15 0)
(0.00218602 -0.00115866 -2.54419e-15 -0.0022198 -5.16243e-15 0)
(0.00169096 -0.000958574 -2.49323e-15 -0.000948885 -3.15275e-15 0)
(0.00178188 -0.000793841 -4.49499e-15 -0.00159052 -2.90696e-15 0)
(0.0014675 -0.000693924 -2.05185e-15 -0.000809066 -3.91831e-15 0)
(0.00156489 -0.000486124 -1.45999e-15 -0.00118102 -4.40804e-15 0)
(0.00135875 -0.000475517 -5.77229e-16 -0.000787126 -5.20081e-15 0)
(0.00146168 -0.000230317 1.67932e-15 -0.000923253 -4.78198e-15 0)
(0.00130574 -0.000291537 4.00602e-15 -0.000797642 -6.88815e-15 0)
(0.00141303 -1.78542e-05 5.56451e-15 -0.000757435 -5.83062e-15 0)
(0.00127247 -0.000132767 3.20512e-15 -0.000801757 -5.61443e-15 0)
(0.00138495 0.000164762 1.49387e-15 -0.000653068 -2.48835e-15 0)
(0.00121335 2.02563e-06 -2.50266e-15 -0.00076413 -2.7761e-15 0)
(0.00328462 -0.00237308 -1.27225e-14 -0.00444504 -8.00721e-15 0)
(0.00249974 -0.00177478 -1.26555e-14 -0.00269634 -1.17285e-14 0)
(0.00239943 -0.002037 -2.3036e-14 -0.00329474 -1.25992e-14 0)
(0.00153826 -0.00137095 -9.15804e-15 -0.00124241 -1.14416e-14 0)
(0.0014965 -0.00157642 -7.72212e-15 -0.00217444 -1.21797e-14 0)
(0.000904883 -0.000986961 -5.56413e-15 -0.00042375 -7.71854e-15 0)
(0.000885154 -0.00115364 -2.82988e-15 -0.00135768 -8.17131e-15 0)
(0.000691402 -0.000720709 -2.20613e-15 -0.000261819 -3.756e-15 0)
(0.000667391 -0.000858612 -3.49005e-16 -0.000937886 -2.70042e-15 0)
(0.000719275 -0.000558216 -5.80048e-16 -0.000356915 -2.43306e-15 0)
(0.000700794 -0.00065139 -1.03238e-15 -0.000785298 -3.91668e-15 0)
(0.000825463 -0.000450636 1.08127e-15 -0.000494479 -5.02322e-15 0)
(0.000831236 -0.000477263 3.27321e-16 -0.000755883 -5.58548e-15 0)
(0.000941229 -0.000357021 2.28767e-16 -0.000624622 -4.835e-15 0)
(0.000978106 -0.000311993 1.76118e-15 -0.000768936 -6.4458e-15 0)
(0.00103109 -0.000261263 -2.04806e-16 -0.000722698 -4.64971e-15 0)
(0.00109934 -0.000148915 1.05786e-15 -0.000784024 -5.22065e-15 0)
(0.0010673 -0.000161609 -3.70537e-15 -0.000768366 -2.4362e-15 0)
(0.00115936 2.59722e-06 -3.92113e-15 -0.000761293 -3.28264e-15 0)
(0.00106372 -6.37104e-05 -4.72853e-15 -0.000779599 -8.44377e-16 0)
(0.00156896 -0.00178269 -4.16702e-15 -0.00259294 -7.03929e-15 0)
(0.000504735 -0.000858839 -1.12087e-14 -0.000507719 -1.46411e-15 0)
(0.000401243 -0.00114015 -7.54366e-15 -0.00127236 -6.55519e-15 0)
(-0.000137192 -0.000443962 -6.93304e-15 0.000216688 -1.91774e-15 0)
(-0.000245091 -0.000718159 -6.6776e-15 -0.000477022 -4.14154e-15 0)
(-0.000162895 -0.000330607 -6.30745e-15 0.000120395 -2.20288e-15 0)
(-0.000306185 -0.000591386 -4.19001e-15 -0.00024054 -2.55622e-15 0)
(9.48681e-06 -0.000337254 -1.17593e-15 -3.76743e-05 -9.92912e-16 0)
(-0.000122564 -0.000558664 5.02311e-16 -0.000267749 -2.28864e-15 0)
(0.000207508 -0.000353316 1.79175e-15 -0.000167345 -2.50939e-15 0)
(0.000108188 -0.000525345 2.15604e-15 -0.000370205 -3.8783e-15 0)
(0.000402058 -0.000347668 2.50581e-15 -0.000295834 -1.94614e-15 0)
(0.000339835 -0.000467671 9.53447e-16 -0.000489226 -3.11795e-15 0)
(0.000563202 -0.000318706 -2.89265e-16 -0.000410267 2.74737e-16 0)
(0.000541058 -0.000382297 -2.38579e-15 -0.000592311 -1.18807e-15 0)
(0.000667114 -0.000270831 -1.9636e-15 -0.000495352 2.03548e-15 0)
(0.000683147 -0.000278026 -3.66146e-15 -0.000652158 -4.20562e-16 0)
(0.000752967 -0.000207557 -2.09403e-15 -0.000581051 2.89254e-15 0)
(0.000790293 -0.000174936 -3.35604e-15 -0.000678453 1.6855e-15 0)
(0.000775665 -0.000148313 -1.64181e-15 -0.000606363 2.51502e-15 0)
(-0.000138012 -0.000478389 -7.02324e-15 -0.000712616 2.23682e-15 0)
(-0.000525725 0.000140469 -3.99854e-16 0.000272914 -8.69096e-16 0)
(-0.000745597 -0.00014415 -5.16839e-15 7.27014e-05 -6.33174e-16 0)
(-0.000419032 3.62462e-05 -2.24256e-15 0.000166117 -3.14527e-16 0)
(-0.000649083 -0.000224782 -4.35329e-15 0.000116143 -2.61401e-16 0)
(-0.000274248 -0.00010129 -1.86895e-15 9.9628e-05 1.1601e-16 0)
(-0.000454139 -0.000314126 -1.47473e-15 2.27109e-05 -7.35414e-16 0)
(-0.000124142 -0.00019451 -3.88144e-17 1.69045e-05 -2.28767e-17 0)
(-0.000263198 -0.000366639 1.4357e-15 -7.55475e-05 -8.48822e-16 0)
(2.30808e-05 -0.000252432 8.89696e-16 -7.06301e-05 2.17274e-16 0)
(-7.48733e-05 -0.000384657 1.79566e-15 -0.000183363 -3.41578e-16 0)
(0.000156716 -0.000275461 9.57134e-16 -0.000157166 7.49726e-16 0)
(9.2026e-05 -0.000374647 5.59882e-16 -0.000283083 1.58841e-15 0)
(0.000272259 -0.000271442 -4.50378e-16 -0.00023567 2.46244e-15 0)
(0.000227729 -0.000347566 -1.18579e-15 -0.000356396 3.43313e-15 0)
(0.000375044 -0.000253566 -5.60099e-16 -0.000303131 2.63331e-15 0)
(0.000361134 -0.000299635 -5.14562e-16 -0.000437543 3.78332e-15 0)
(0.000444282 -0.000217437 2.95337e-16 -0.000357355 2.17296e-15 0)
(0.00043964 -0.000247616 -4.83771e-16 -0.000466445 2.05207e-15 0)
(0.000497838 -0.000181517 1.17018e-15 -0.000394668 1.32381e-16 0)
(-0.000636731 0.000279034 2.12113e-15 0.000160528 -6.0054e-16 0)
(-0.000370822 0.000270532 4.16984e-16 6.99733e-05 1.87567e-17 0)
(-0.000579717 0.000103453 1.56776e-16 0.000139347 -5.87638e-17 0)
(-0.000312168 0.000130625 -3.85976e-17 8.07727e-05 4.14165e-16 0)
(-0.000506892 -3.88523e-05 -6.09538e-16 9.63994e-05 3.98932e-16 0)
(-0.000225345 1.33979e-05 -5.67471e-16 5.60951e-05 5.6617e-16 0)
(-0.000391389 -0.000141516 -6.06069e-16 3.22826e-05 7.66585e-16 0)
(-0.000125891 -7.54275e-05 3.90746e-16 9.67102e-06 8.2627e-16 0)
(-0.000259979 -0.000209346 5.31042e-16 -4.10501e-05 7.88594e-16 0)
(-2.48842e-05 -0.000136597 6.80445e-16 -4.69226e-05 6.36318e-16 0)
(-0.000126353 -0.000245913 4.22622e-16 -0.000113788 9.3957e-16 0)
(6.9916e-05 -0.000173016 3.01842e-16 -0.000105442 1.28554e-15 0)
(-2.36154e-06 -0.000257909 -5.5728e-17 -0.000178164 1.93731e-15 0)
(0.000154386 -0.000189869 -7.53521e-16 -0.000159947 2.32529e-15 0)
(0.000106984 -0.000252968 -5.96853e-16 -0.000234148 2.27829e-15 0)
(0.000225693 -0.000191245 -2.7452e-16 -0.000207013 2.05044e-15 0)
(0.000195802 -0.00023652 4.47125e-16 -0.000273399 1.25534e-15 0)
(0.000284787 -0.000183787 1.18503e-15 -0.000244216 1.01302e-15 0)
(0.000266412 -0.000215734 2.18532e-15 -0.000299718 3.71393e-16 0)
(0.000333672 -0.000171756 2.0782e-15 -0.000271794 1.32728e-15 0)
(-0.00040217 0.000300945 -1.83447e-16 4.44699e-05 7.16332e-16 0)
(-0.000252318 0.000282075 -2.39826e-16 -3.55494e-06 8.45678e-16 0)
(-0.000414287 0.000181164 2.20744e-16 5.71796e-05 4.88325e-16 0)
(-0.000220166 0.000181071 3.40873e-16 1.24139e-05 6.53882e-16 0)
(-0.000379303 7.19304e-05 4.98733e-18 4.21727e-05 6.95624e-16 0)
(-0.000167932 8.86982e-05 -8.60857e-17 5.34493e-06 9.02056e-16 0)
(-0.000311918 -1.78419e-05 2.09468e-16 8.95165e-06 7.96563e-16 0)
(-0.000104344 1.17716e-05 3.5345e-16 -1.75708e-05 3.40982e-16 0)
(-0.000227507 -8.56412e-05 6.83047e-16 -3.32838e-05 3.23092e-16 0)
(-3.64715e-05 -4.79328e-05 -9.88792e-17 -4.95646e-05 2.40964e-16 0)
(-0.000136813 -0.000132387 -8.1532e-17 -7.7605e-05 9.87437e-16 0)
(3.03714e-05 -9.12393e-05 -4.16767e-16 -8.51286e-05 1.04181e-15 0)
(-4.78779e-05 -0.000161166 -6.01082e-16 -0.00011917 1.84352e-15 0)
(9.24757e-05 -0.000120399 -8.39172e-16 -0.000120038 1.27589e-15 0)
(3.37057e-05 -0.000175709 -6.30789e-16 -0.000153957 1.75809e-15 0)
(0.000147816 -0.000138644 -3.49547e-16 -0.000151251 9.8554e-16 0)
(0.000104917 -0.000180559 8.27246e-16 -0.000180626 1.15104e-15 0)
(0.000195778 -0.000149185 7.91034e-16 -0.00017713 5.72676e-16 0)
(0.000165308 -0.000179371 1.33259e-15 -0.000199236 1.32045e-15 0)
(0.000237006 -0.000154695 1.30863e-15 -0.000197331 6.01949e-16 0)
(-0.00027869 0.00030976 -4.80302e-16 -2.98626e-05 4.21863e-16 0)
(-0.000167055 0.000284014 -3.84024e-16 -6.31809e-05 -4.37205e-16 0)
(-0.000291102 0.000224831 1.99493e-17 -1.37281e-05 2.89048e-16 0)
(-0.000146505 0.000207182 -2.57606e-16 -4.89625e-05 -1.99764e-16 0)
(-0.000274109 0.000140232 2.36356e-17 -1.34907e-05 4.88758e-16 0)
(-0.000114504 0.000133328 -2.40693e-16 -4.58758e-05 -3.95734e-18 0)
(-0.000235338 6.4755e-05 -1.40946e-16 -2.5413e-05 1.191e-16 0)
(-7.42109e-05 6.77622e-05 -9.86624e-17 -5.27444e-05 -1.05005e-16 0)
(-0.000182724 2.01427e-06 -2.23779e-16 -4.49405e-05 1.1666e-16 0)
(-2.91914e-05 1.26096e-05 -4.40186e-16 -6.66769e-05 5.01281e-16 0)
(-0.000122931 -4.73553e-05 -5.5728e-16 -6.79731e-05 7.2544e-16 0)
(1.73926e-05 -3.19643e-05 -4.66207e-16 -8.46214e-05 6.91938e-16 0)
(-6.13294e-05 -8.44449e-05 -5.76037e-16 -9.10944e-05 6.73452e-16 0)
(6.30504e-05 -6.70408e-05 -6.43366e-16 -0.00010389 4.74176e-16 0)
(-1.78309e-06 -0.000111341 -6.36969e-16 -0.000111957 5.99726e-16 0)
(0.000105903 -9.42913e-05 -2.05998e-16 -0.000122403 -3.19298e-17 0)
(5.32347e-05 -0.00013038 2.18358e-16 -0.000129212 8.11796e-17 0)
(0.0001444 -0.000115452 3.92048e-16 -0.000138648 -4.57804e-16 0)
(0.000102641 -0.000143515 1.12356e-15 -0.00014265 -2.39582e-16 0)
(0.000176837 -0.000131694 1.22471e-15 -0.000151578 -4.89029e-16 0)
(-0.000204222 0.000314868 -7.35523e-16 -8.87718e-05 -8.99725e-16 0)
(-0.000104412 0.000281911 -8.25512e-16 -0.000114543 -6.95733e-16 0)
(-0.000206018 0.000246381 -6.39679e-16 -7.25087e-05 -5.98967e-16 0)
(-9.08647e-05 0.000217485 -6.37077e-16 -0.00010004 -3.73074e-16 0)
(-0.000195186 0.000178014 -4.2479e-16 -6.33535e-05 -3.47975e-16 0)
(-7.13176e-05 0.000155865 -6.35126e-16 -9.02443e-05 -2.0383e-16 0)
(-0.00017199 0.000114674 -3.36103e-16 -6.15508e-05 -3.63208e-17 0)
(-4.61099e-05 9.98285e-05 -4.82036e-16 -8.62765e-05 2.72297e-16 0)
(-0.00013923 5.89962e-05 -4.00938e-16 -6.56449e-05 5.18899e-16 0)
(-1.64441e-05 5.08838e-05 -4.58401e-16 -8.74045e-05 5.13641e-16 0)
(-0.00010017 1.18934e-05 -4.24574e-16 -7.37807e-05 4.96727e-16 0)
(1.63974e-05 9.49682e-06 -2.10552e-16 -9.22886e-05 1.01427e-16 0)
(-5.77834e-05 -2.69234e-05 -3.90746e-16 -8.42747e-05 2.3164e-16 0)
(5.13925e-05 -2.45902e-05 -1.19154e-16 -9.95393e-05 1.2696e-16 0)
(-1.44361e-05 -5.84715e-05 -8.00141e-17 -9.58066e-05 -1.27719e-16 0)
(8.7826e-05 -5.20546e-05 5.73109e-16 -0.000107915 -3.65376e-16 0)
(2.81023e-05 -8.4104e-05 4.98516e-16 -0.000107363 -6.68411e-16 0)
(0.000124964 -7.36942e-05 5.72459e-16 -0.000116218 -2.81594e-16 0)
(6.84821e-05 -0.000105074 6.6917e-16 -0.000118011 -3.19243e-16 0)
(0.000160797 -8.99171e-05 6.58219e-16 -0.000122723 -1.70952e-16 0)
(-0.00014892 0.000317362 -7.01696e-16 -0.000140938 -2.81893e-16 0)
(-5.58624e-05 0.000275895 -5.22585e-16 -0.000160401 1.05493e-16 0)
(-0.000145754 0.00025553 -6.67001e-16 -0.000121239 -1.94885e-16 0)
(-5.01156e-05 0.000216927 -4.93312e-16 -0.000142248 4.01697e-17 0)
(-0.000138367 0.000196536 -6.61146e-16 -0.000104537 -6.31006e-17 0)
(-4.14886e-05 0.000161799 -4.27609e-16 -0.000126284 3.25152e-16 0)
(-0.000124901 0.000141944 -5.39065e-16 -9.17158e-05 3.99908e-16 0)
(-2.98731e-05 0.000111298 -1.67618e-16 -0.00011354 4.74013e-16 0)
(-0.000105811 9.30547e-05 -2.20527e-16 -8.2379e-05 3.43042e-16 0)
(-1.58394e-05 6.59499e-05 2.23346e-17 -0.000103946 3.56323e-16 0)
(-8.2462e-05 5.05376e-05 -9.95298e-17 -7.55107e-05 1.80005e-16 0)
(-2.40933e-07 2.58312e-05 2.28983e-16 -9.68587e-05 1.08474e-16 0)
(-5.64576e-05 1.44742e-05 2.4568e-16 -6.98181e-05 -4.10642e-17 0)
(1.60657e-05 -9.46788e-06 3.33501e-16 -9.14107e-05 1.07173e-16 0)
(-2.93652e-05 -1.55236e-05 4.96998e-16 -6.37858e-05 1.38236e-18 0)
(3.25033e-05 -4.09585e-05 4.35199e-16 -8.67009e-05 -1.02105e-16 0)
(-2.75523e-06 -4.02823e-05 5.94143e-16 -5.53225e-05 -2.09522e-16 0)
(4.93914e-05 -7.07871e-05 2.76688e-16 -8.19255e-05 -1.80547e-16 0)
(2.12704e-05 -6.1319e-05 3.45102e-16 -4.03917e-05 -1.45202e-16 0)
(6.99564e-05 -0.00010413 1.49186e-16 -7.66181e-05 -1.47777e-16 0)
(-9.77289e-05 0.000314412 -3.2808e-16 -0.000193203 3.32742e-16 0)
(-1.12332e-05 0.000265269 -1.14492e-16 -0.000205356 3.11437e-16 0)
(-9.63798e-05 0.000255166 -2.15973e-16 -0.000168369 2.52456e-16 0)
(-1.24236e-05 0.000209207 -3.70797e-17 -0.000182186 2.04101e-16 0)
(-9.31699e-05 0.000200416 -1.79761e-16 -0.000145865 3.25152e-16 0)
(-1.13248e-05 0.000157791 -1.94072e-16 -0.00016094 3.04336e-16 0)
(-8.67115e-05 0.000150031 -1.38778e-16 -0.000126323 3.85976e-16 0)
(-7.75033e-06 0.00011076 6.37511e-17 -0.000142271 1.87838e-16 0)
(-7.67884e-05 0.000104135 2.06866e-16 -0.00010981 3.23201e-16 0)
(-1.823e-06 6.79415e-05 2.46981e-16 -0.00012635 1.6282e-16 0)
(-6.38212e-05 6.2713e-05 3.10732e-16 -9.60633e-05 1.41407e-16 0)
(6.19688e-06 2.90676e-05 1.3314e-16 -0.000113051 5.10388e-17 0)
(-4.84591e-05 2.54668e-05 1.61546e-16 -8.47611e-05 1.47153e-16 0)
(1.60873e-05 -6.27452e-06 -9.54098e-17 -0.000102174 1.80899e-16 0)
(-3.12521e-05 -8.25623e-06 1.40729e-16 -7.58783e-05 9.89334e-18 0)
(2.78134e-05 -3.85497e-05 5.44269e-17 -9.36927e-05 -2.17193e-16 0)
(-1.22172e-05 -3.96069e-05 1.61112e-16 -7.04816e-05 -2.85796e-16 0)
(4.15391e-05 -6.7785e-05 7.09068e-17 -8.81656e-05 -4.15114e-16 0)
(1.02567e-05 -7.06336e-05 6.61363e-17 -7.32157e-05 -2.49177e-16 0)
(5.68693e-05 -9.15397e-05 1.58077e-16 -8.76603e-05 -4.10642e-16 0)
(-4.84245e-05 0.000305559 -3.42608e-17 -0.00024581 2.4362e-16 0)
(3.0556e-05 0.000249728 -1.61546e-16 -0.00024964 -6.50521e-19 0)
(-5.20394e-05 0.000248281 -7.24247e-17 -0.000214698 6.38053e-17 0)
(2.22782e-05 0.000196336 -1.10372e-16 -0.000220599 -2.12314e-16 0)
(-5.39661e-05 0.000196408 -9.38919e-17 -0.000186463 -1.15468e-17 0)
(1.66145e-05 0.00014815 -1.36609e-16 -0.000194039 -1.56234e-16 0)
(-5.34508e-05 0.000149161 -4.4886e-17 -0.000161406 5.33427e-17 0)
(1.36149e-05 0.000104468 -2.40693e-17 -0.000170299 -1.9269e-16 0)
(-5.02177e-05 0.000106077 1.52439e-16 -0.000139649 -1.19018e-16 0)
(1.32071e-05 6.48061e-05 8.97719e-17 -0.000149538 -3.88497e-16 0)
(-4.43121e-05 6.679e-05 5.55112e-17 -0.000121206 -9.2374e-17 0)
(1.52496e-05 2.88125e-05 -8.65193e-17 -0.000131798 -2.41533e-16 0)
(-3.59018e-05 3.09376e-05 -1.97758e-16 -0.000106121 6.04443e-18 0)
(1.95799e-05 -3.73644e-06 -2.27466e-16 -0.000117112 -2.68448e-16 0)
(-2.50989e-05 -1.80986e-06 -1.38995e-16 -9.45903e-05 -2.37901e-16 0)
(2.60096e-05 -3.28439e-05 -1.45283e-16 -0.000105587 -3.85542e-16 0)
(-1.1866e-05 -3.14991e-05 2.25514e-17 -8.68801e-05 -4.5668e-16 0)
(3.42189e-05 -5.82006e-05 6.80879e-17 -9.73404e-05 -4.88054e-16 0)
(3.67793e-06 -5.69688e-05 1.98409e-16 -8.20588e-05 -5.4595e-16 0)
(4.364e-05 -7.97519e-05 1.9494e-16 -9.17846e-05 -2.74073e-16 0)
(-8.37567e-07 0.000290208 6.59195e-17 -0.000298157 -2.64843e-16 0)
(6.96523e-05 0.000228765 2.58691e-16 -0.000292761 -3.47514e-16 0)
(-1.08659e-05 0.000235456 -4.98733e-17 -0.000260013 -2.92599e-16 0)
(5.41066e-05 0.000178766 -4.70544e-17 -0.000257337 -1.89437e-16 0)
(-1.86175e-05 0.00018661 -1.52656e-16 -0.000225743 -2.29146e-16 0)
(4.19238e-05 0.000134308 -1.45283e-16 -0.000225301 -7.34818e-17 0)
(-2.3779e-05 0.000142653 -9.62772e-17 -0.000195348 -2.22776e-16 0)
(3.29275e-05 9.44881e-05 -1.26418e-16 -0.000196727 -1.37206e-16 0)
(-2.62248e-05 0.000102876 -6.96058e-17 -0.00016878 -3.59982e-16 0)
(2.69059e-05 5.8688e-05 -2.94903e-17 -0.000171613 -2.29173e-16 0)
(-2.59795e-05 6.67893e-05 8.0231e-18 -0.000145952 -3.82764e-16 0)
(2.36186e-05 2.65003e-05 1.77809e-16 -0.000149905 -1.69081e-16 0)
(-2.31528e-05 3.40816e-05 -1.66967e-17 -0.000126745 -2.67581e-16 0)
(2.27942e-05 -2.31344e-06 1.60462e-16 -0.000131504 -2.35855e-16 0)
(-1.79062e-05 4.63375e-06 -1.2013e-16 -0.000110958 -3.76164e-16 0)
(2.41127e-05 -2.78746e-05 1.17311e-16 -0.000116232 -3.5944e-16 0)
(-1.0496e-05 -2.14566e-05 1.03433e-16 -9.81887e-05 -4.17675e-16 0)
(2.71912e-05 -5.02996e-05 1.92988e-16 -0.000103737 -2.43674e-16 0)
(-1.37313e-06 -4.42004e-05 1.51355e-16 -8.79472e-05 -1.33181e-16 0)
(3.16322e-05 -6.97421e-05 6.02816e-17 -9.35943e-05 -3.79877e-17 0)
(4.43152e-05 0.000267945 3.80772e-16 -0.000348958 -1.14004e-16 0)
(0.000105374 0.000202021 8.89046e-17 -0.000333522 5.24212e-17 0)
(2.72231e-05 0.000216843 -2.49366e-17 -0.000303246 -1.30755e-16 0)
(8.25611e-05 0.000156624 -7.50268e-17 -0.000291446 -2.59124e-17 0)
(1.33217e-05 0.000171891 -9.45424e-17 -0.000262654 2.9409e-17 0)
(6.40952e-05 0.000116799 2.10118e-16 -0.000253863 -5.90077e-17 0)
(2.58256e-06 0.000131936 7.45931e-17 -0.000226834 -9.75782e-17 0)
(4.95042e-05 8.15473e-05 4.30862e-16 -0.000220535 -1.03243e-16 0)
(-5.09984e-06 9.61682e-05 1.77159e-16 -0.00019545 -5.76796e-17 0)
(3.83647e-05 5.01785e-05 5.31476e-16 -0.000191211 1.11063e-16 0)
(-9.89413e-06 6.40407e-05 3.81856e-16 -0.000168174 5.15267e-17 0)
(3.02835e-05 2.2221e-05 3.90096e-16 -0.000165625 1.73581e-16 0)
(-1.20218e-05 3.52041e-05 2.8276e-16 -0.000144663 -9.83371e-17 0)
(2.48785e-05 -2.65374e-06 2.15973e-16 -0.000143481 -1.46137e-16 0)
(-1.1761e-05 9.44501e-06 2.58691e-16 -0.000124539 -3.05393e-16 0)
(2.17662e-05 -2.46967e-05 3.18539e-16 -0.000124441 -4.7732e-17 0)
(-9.45588e-06 -1.34058e-05 2.15323e-16 -0.000107395 -2.6956e-17 0)
(2.05705e-05 -4.41213e-05 2.36573e-16 -0.000108137 1.43426e-16 0)
(-5.48632e-06 -3.35147e-05 1.11022e-16 -9.28201e-05 -5.14386e-17 0)
(2.09407e-05 -6.11288e-05 1.17744e-16 -9.42008e-05 -1.27529e-17 0)
(8.59547e-05 0.000238493 -2.20744e-16 -0.000396441 -1.2303e-16 0)
(0.000136616 0.00016946 -1.65666e-16 -0.000370275 -6.26398e-16 0)
(6.16216e-05 0.000192579 1.07553e-16 -0.00034301 -2.70319e-16 0)
(0.000106923 0.000130111 2.57823e-16 -0.000321662 -1.30592e-16 0)
(4.16049e-05 0.000152696 3.07913e-16 -0.000296108 3.95192e-17 0)
(8.26259e-05 9.59437e-05 1.93639e-16 -0.000278724 4.30564e-17 0)
(2.55085e-05 0.000117639 4.18285e-16 -0.000254943 -7.78186e-17 0)
(6.29295e-05 6.59829e-05 2.34188e-16 -0.000240854 2.1043e-16 0)
(1.29595e-05 8.6572e-05 5.77229e-16 -0.000218862 2.85294e-16 0)
(4.72088e-05 3.95569e-05 2.81893e-16 -0.000207532 1.89627e-16 0)
(3.60343e-06 5.89182e-05 2.76688e-16 -0.000187312 1.13773e-16 0)
(3.49494e-05 1.61847e-05 2.60209e-17 -0.000178298 -1.31595e-16 0)
(-2.90833e-06 3.42682e-05 1.35959e-16 -0.000159803 -9.55047e-17 0)
(2.56776e-05 -4.51467e-06 -1.30104e-18 -0.000152724 -2.47157e-16 0)
(-6.93424e-06 1.23145e-05 1.8735e-16 -0.000135869 -5.84792e-17 0)
(1.89479e-05 -2.28428e-05 -1.79978e-17 -0.000130399 -2.3988e-17 0)
(-8.83725e-06 -7.18789e-06 1.88651e-16 -0.000115066 1.41475e-16 0)
(1.4346e-05 -3.90356e-05 4.01155e-17 -0.000110925 2.19348e-17 0)
(-8.9696e-06 -2.44466e-05 1.17961e-16 -9.69879e-05 5.22585e-17 0)
(1.1499e-05 -5.32777e-05 2.86229e-17 -9.394e-05 7.6504e-18 0)
(0.000122771 0.000201851 2.13154e-16 -0.000438505 -4.87078e-17 0)
(0.000162125 0.000131543 8.66711e-16 -0.000401239 9.11855e-16 0)
(9.15473e-05 0.000162913 5.06539e-16 -0.000377931 2.8421e-16 0)
(0.000126473 9.96275e-05 6.89986e-16 -0.000346784 8.70425e-16 0)
(6.58229e-05 0.00012935 2.7929e-16 -0.000325195 3.26182e-16 0)
(9.701e-05 7.20348e-05 8.37004e-17 -0.000299026 7.03837e-16 0)
(4.47937e-05 0.000100095 -1.15793e-16 -0.000279045 5.65127e-16 0)
(7.2753e-05 4.80404e-05 1.4962e-17 -0.000257025 7.39087e-16 0)
(2.78386e-05 7.44085e-05 1.59378e-16 -0.00023858 2.2134e-16 0)
(5.30926e-05 2.71565e-05 1.68485e-16 -0.000220094 2.74561e-16 0)
(1.44711e-05 5.17363e-05 7.15573e-17 -0.000203158 -1.17568e-17 0)
(3.74041e-05 8.8584e-06 4.70544e-17 -0.000187673 1.31636e-16 0)
(4.2398e-06 3.16366e-05 -1.09504e-16 -0.000172187 -1.75309e-16 0)
(2.50982e-05 -7.28724e-06 -1.06252e-17 -0.000159234 -3.09201e-17 0)
(-3.28883e-06 1.37647e-05 -6.31006e-17 -0.000145102 -8.41476e-17 0)
(1.56391e-05 -2.16089e-05 8.97719e-17 -0.000134275 7.09136e-17 0)
(-8.52566e-06 -2.14248e-06 5.42101e-18 -0.000121373 2.35678e-17 0)
(8.53802e-06 -3.43374e-05 4.83554e-17 -0.00011233 6.89553e-17 0)
(-1.18478e-05 -1.62811e-05 1.10589e-17 -0.000100524 1.94885e-17 0)
(3.34121e-06 -4.55971e-05 4.66207e-17 -9.29862e-05 -7.2506e-18 0)
(0.000153351 0.000158433 7.8583e-16 -0.000473028 4.34968e-16 0)
(0.000180822 8.92576e-05 -4.57533e-17 -0.000424951 -3.23119e-16 0)
(0.000116254 0.00012813 3.1572e-16 -0.000406932 8.03888e-16 0)
(0.000140444 6.55133e-05 -1.82796e-16 -0.000365891 4.18909e-16 0)
(8.55183e-05 0.000101992 9.21572e-17 -0.000349206 8.50177e-16 0)
(0.00010607 4.50256e-05 -2.96855e-16 -0.000313887 7.50553e-16 0)
(6.00392e-05 7.94806e-05 -1.34007e-16 -0.000298359 7.47313e-16 0)
(7.80423e-05 2.80071e-05 4.03323e-17 -0.00026824 2.37501e-16 0)
(3.92706e-05 6.00099e-05 2.04047e-16 -0.000253974 3.09709e-16 0)
(5.54266e-05 1.35359e-05 1.97108e-16 -0.000228336 3.40304e-17 0)
(2.26134e-05 4.29816e-05 1.20997e-16 -0.000215324 1.4178e-16 0)
(3.73159e-05 9.59265e-07 6.41848e-17 -0.000193473 -8.86877e-17 0)
(9.48078e-06 2.79282e-05 6.00648e-17 -0.000181642 3.57719e-17 0)
(2.29661e-05 -1.01595e-05 -2.90566e-17 -0.000162971 2.62174e-17 0)
(-6.66875e-07 1.45053e-05 4.35849e-17 -0.000152224 8.43103e-17 0)
(1.17647e-05 -2.01417e-05 -1.15793e-16 -0.000136208 3.2045e-17 0)
(-8.32232e-06 2.46791e-06 3.46945e-18 -0.000126418 6.24297e-17 0)
(3.1729e-06 -2.92361e-05 -1.03433e-16 -0.000112593 3.06287e-17 0)
(-1.39402e-05 -8.33198e-06 5.63785e-18 -0.0001036 1.18856e-17 0)
(-3.35256e-06 -3.75713e-05 6.28837e-18 -9.15649e-05 2.85416e-17 0)
(0.000176483 0.0001088 -9.2309e-16 -0.00049873 -1.0814e-15 0)
(0.000192445 4.34438e-05 -1.54694e-15 -0.000441049 -2.37413e-16 0)
(0.000134984 8.78081e-05 -9.01839e-16 -0.000429743 2.10806e-16 0)
(0.00014434 2.63469e-05 -5.45571e-16 -0.000377177 1.85331e-16 0)
(9.93061e-05 7.05124e-05 -1.40946e-16 -0.000366091 3.7799e-16 0)
(0.000107229 1.55429e-05 -4.6187e-17 -0.0003214 1.96413e-16 0)
(7.01671e-05 5.62733e-05 -5.63785e-17 -0.000311239 1.76752e-16 0)
(7.76013e-05 7.04747e-06 6.35342e-17 -0.000273263 3.08388e-17 0)
(4.66353e-05 4.41173e-05 1.64799e-16 -0.000264054 -1.14902e-16 0)
(5.36956e-05 -1.70573e-07 7.24247e-17 -0.000231595 -4.54789e-17 0)
(2.77637e-05 3.34739e-05 6.61363e-17 -0.000223267 -8.62347e-17 0)
(3.44228e-05 -6.49496e-06 9.17235e-17 -0.000195393 9.0497e-18 0)
(1.27735e-05 2.39894e-05 1.51788e-18 -0.000187874 -3.998e-18 0)
(1.90325e-05 -1.21537e-05 1.21214e-16 -0.000163857 -8.68819e-17 0)
(1.02871e-06 1.54034e-05 -7.95804e-17 -0.000157081 -6.93822e-17 0)
(6.97922e-06 -1.73756e-05 5.24754e-17 -0.00013631 -1.53144e-16 0)
(-8.02099e-06 7.49687e-06 -1.01481e-16 -0.000130212 -3.50536e-17 0)
(-2.15353e-06 -2.25129e-05 -2.25514e-17 -0.000112074 -1.11268e-16 0)
(-1.49157e-05 1.17941e-07 -2.36356e-17 -0.000106539 -4.25211e-19 0)
(-8.74285e-06 -2.8274e-05 1.6263e-17 -9.01747e-05 -3.14046e-17 0)
(0.000192063 4.90175e-05 -1.64539e-15 -0.000521018 -2.56207e-16 0)
(0.000171299 -1.47438e-05 -1.4537e-15 -0.00044194 6.83047e-18 0)
(0.000142259 4.19388e-05 -9.81203e-16 -0.000437441 5.19739e-18 0)
(0.000132646 -1.27184e-05 -1.14578e-15 -0.000375602 -2.71051e-18 0)
(0.000104147 3.7102e-05 -5.00685e-16 -0.000371643 5.31395e-17 0)
(9.98656e-05 -1.21762e-05 -8.82107e-16 -0.000319766 4.93956e-17 0)
(7.38481e-05 3.25819e-05 -1.88434e-16 -0.000316208 7.30244e-17 0)
(7.20899e-05 -1.2255e-05 -3.61256e-16 -0.000271684 9.84252e-18 0)
(4.9446e-05 2.82786e-05 -1.11456e-16 -0.000268464 1.86754e-17 0)
(4.87066e-05 -1.25259e-05 -3.55185e-16 -0.000229901 5.25838e-18 0)
(2.97744e-05 2.42798e-05 -6.59195e-17 -0.000226979 1.65171e-17 0)
(2.91498e-05 -1.2757e-05 -2.33103e-16 -0.000193451 8.12305e-18 0)
(1.40383e-05 2.06352e-05 8.58688e-17 -0.000190804 -7.79694e-17 0)
(1.29046e-05 -1.28086e-05 -2.34838e-16 -0.000161645 -7.26094e-17 0)
(1.66058e-06 1.73173e-05 -2.90566e-17 -0.00015926 -1.58659e-16 0)
(-4.54332e-07 -1.25896e-05 -3.39789e-16 -0.000134017 -5.00647e-17 0)
(-7.80233e-06 1.41549e-05 -1.19913e-16 -0.000131904 -1.19274e-16 0)
(-1.11903e-05 -1.20561e-05 -2.7929e-16 -0.000110382 -4.09151e-17 0)
(-1.47509e-05 1.06207e-05 -8.21825e-17 -0.000108595 -5.81912e-17 0)
(-1.92191e-05 -1.12646e-05 -1.60028e-16 -9.10542e-05 -1.5416e-18 0)
(-9.76448e-06 -1.10789e-05 -8.93383e-17 -9.10542e-05 -1.69237e-18 0)
(-1.88716e-05 7.05244e-06 -2.38524e-17 -4.0066e-05 1.52034e-17 0)
(-1.91947e-05 -2.78834e-05 3.18755e-17 -8.99358e-05 3.42633e-17 0)
(-1.73421e-05 -4.21716e-06 -5.63785e-18 -3.65269e-05 -9.18523e-18 0)
(-1.80131e-05 -4.19883e-05 2.4503e-17 -9.2742e-05 -6.02495e-18 0)
(-1.21924e-05 -1.52296e-05 7.37257e-18 -3.39094e-05 -3.26785e-17 0)
(-1.31848e-05 -5.50718e-05 4.98733e-17 -9.7016e-05 -2.41066e-17 0)
(-4.75613e-06 -2.54853e-05 3.98986e-17 -3.1283e-05 -3.81097e-17 0)
(-6.02696e-06 -6.76749e-05 6.41848e-17 -0.000102177 -3.13978e-17 0)
(4.57119e-06 -3.51717e-05 -2.1684e-19 -2.82951e-05 -6.09864e-19 0)
(3.08627e-06 -8.02579e-05 6.07153e-18 -0.000108044 -3.27531e-17 0)
(1.57086e-05 -4.46524e-05 -1.55258e-16 -2.4929e-05 1.01793e-16 0)
(1.4103e-05 -9.33558e-05 -5.2367e-17 -0.000114545 2.22804e-17 0)
(2.87576e-05 -5.44166e-05 3.23092e-16 -2.14326e-05 2.44664e-16 0)
(2.71692e-05 -0.000107518 3.15394e-16 -0.000121536 -1.46977e-17 0)
(4.39068e-05 -6.50392e-05 3.88361e-16 -1.83056e-05 3.74754e-16 0)
(4.25438e-05 -0.000122979 2.12829e-16 -0.000128327 -8.58824e-17 0)
(6.11698e-05 -7.71237e-05 2.81893e-18 -1.62385e-05 2.56604e-16 0)
(6.03351e-05 -0.000138471 9.68193e-17 -0.000131885 -3.04119e-17 0)
(7.95227e-05 -9.12483e-05 -1.1872e-16 -1.58109e-05 3.05975e-16 0)
(-2.5258e-05 -1.6214e-05 -5.89806e-17 -4.18025e-05 1.22134e-17 0)
(-2.68858e-05 -1.00887e-06 2.1684e-19 -6.21477e-06 5.48708e-18 0)
(-2.71945e-05 -3.43563e-05 -6.28837e-18 -4.32106e-05 -1.84253e-17 0)
(-2.35752e-05 -1.62035e-05 -9.54098e-18 -5.33276e-06 -5.55531e-17 0)
(-2.42285e-05 -5.29236e-05 -1.92988e-17 -4.77804e-05 -5.26141e-17 0)
(-1.64658e-05 -3.13374e-05 3.85976e-17 -5.42823e-06 -5.81979e-17 0)
(-1.74499e-05 -7.07627e-05 3.79471e-17 -5.47063e-05 -4.31474e-17 0)
(-6.27333e-06 -4.54357e-05 7.69784e-17 -6.20855e-06 -3.06609e-17 0)
(-7.54772e-06 -8.76391e-05 2.51535e-17 -6.36513e-05 -1.26581e-17 0)
(6.62607e-06 -5.8195e-05 4.92228e-17 -7.35166e-06 -1.72625e-17 0)
(5.12946e-06 -0.000103526 -8.08815e-17 -7.44875e-05 7.42492e-17 0)
(2.20007e-05 -6.95617e-05 9.54098e-18 -8.62389e-06 -2.71369e-16 0)
(2.03843e-05 -0.000118496 9.90961e-17 -8.71449e-05 4.11251e-17 0)
(3.9666e-05 -7.96465e-05 2.94252e-16 -9.87459e-06 -2.21943e-16 0)
(3.80783e-05 -0.000132661 4.76724e-16 -0.00010147 3.15815e-16 0)
(5.93973e-05 -8.87093e-05 3.76652e-16 -1.10218e-05 1.91172e-16 0)
(5.80493e-05 -0.000145993 2.21503e-16 -0.000116918 4.80315e-16 0)
(8.07656e-05 -9.71625e-05 -2.28333e-16 -1.20089e-05 -8.10604e-16 0)
(7.9942e-05 -0.000157715 -3.16804e-16 -0.000131558 -1.96756e-16 0)
(0.000102651 -0.000105586 -3.45752e-16 -1.26329e-05 -4.54247e-16 0)