/*--------------------------------*- C++ -*----------------------------------*\
| =========                 |                                                 |
| \\      /  F ield         | OpenFOAM: The Open Source CFD Toolbox           |
|  \\    /   O peration     | Version:  v2012                                 |
|   \\  /    A nd           | Website:  www.openfoam.com                      |
|    \\/     M anipulation  |                                                 |
\*---------------------------------------------------------------------------*/
FoamFile
{
    version     2.0;
    format      ascii;
    class       pointSymmTensorField;
    location    "19";
    object      pEpsilon;
}
// * * * * * * * * * * * * * * * * * * * * * * * * * * * * * * * * * * * * * //

dimensions      [0 0 0 0 0 0 0];


internalField   nonuniform List<symmTensor> 
2142
(
(0.00017414 -9.11411e-06 -1.15901e-15 -0.000494287 0 0)
(0.00012279 -4.72095e-06 -2.59666e-16 5.80932e-05 0 0)
(0.000172503 5.92876e-07 7.51894e-16 -7.40382e-05 -7.50785e-16 0)
(-0.000148863 0.000148112 0 2.29826e-05 -1.26797e-15 0)
(0.00565765 -0.000913459 0 -0.00702978 5.25694e-14 0)
(-1.44918e-05 -1.11718e-05 -1.68593e-16 -9.10542e-05 0 0)
(0.00152497 0.000321548 0 -0.00027251 8.2871e-15 0)
(7.99681e-05 -0.000136869 4.18502e-16 -0.000110658 -2.03423e-16 0)
(0.000810267 -1.21991e-05 -5.48064e-16 -0.000329243 -6.48001e-15 0)
(0.000151656 -1.04207e-05 -3.57787e-17 -2.04164e-05 -5.6348e-16 0)
(-0.000147025 0.000308746 -9.90419e-16 -0.000129991 -7.65176e-16 0)
(-0.000147025 0.000308746 -9.90419e-16 -0.000129991 -7.65176e-16 0)
(7.99681e-05 -0.000136869 4.18502e-16 -0.000110658 -2.03423e-16 0)
(0.00152497 0.000321548 0 -0.00027251 8.2871e-15 0)
(0.00565765 -0.000913459 0 -0.00702978 5.25694e-14 0)
(0.00017414 -9.11411e-06 -1.15901e-15 -0.000494287 0 0)
(-1.44918e-05 -1.11718e-05 -1.68593e-16 -9.10542e-05 0 0)
(0.00012279 -4.72095e-06 -2.59666e-16 5.80932e-05 0 0)
(0.000151656 -1.04207e-05 -3.57787e-17 -2.04164e-05 -5.6348e-16 0)
(0.000172503 5.92876e-07 7.51894e-16 -7.40382e-05 -7.50785e-16 0)
(0.000810267 -1.21991e-05 -5.48064e-16 -0.000329243 -6.48001e-15 0)
(-0.000148863 0.000148112 0 2.29826e-05 -1.26797e-15 0)
(0.0013344 8.60078e-05 -2.10749e-15 -0.00042293 -1.22515e-15 0)
(0.00127434 0.000103323 1.36474e-16 -0.000618936 3.36645e-16 0)
(0.00117247 4.61713e-05 -5.7563e-15 -0.000743477 -4.3444e-15 0)
(0.000947791 -6.13703e-05 -3.25505e-15 -0.000700387 2.42644e-15 0)
(0.000653052 -0.000145496 -1.52764e-15 -0.000523893 -5.93601e-17 0)
(0.000422766 -0.000169576 3.38108e-15 -0.000347012 1.63715e-16 0)
(0.000285535 -0.000160386 7.99057e-16 -0.000237988 2.66226e-15 0)
(0.000201895 -0.000142279 2.44813e-15 -0.000172717 -6.23687e-16 0)
(0.000151672 -0.00011829 1.20889e-15 -0.000137432 -3.64292e-16 0)
(4.94042e-05 -0.000100523 4.71628e-17 -7.35247e-05 2.50722e-17 0)
(3.57989e-05 -8.58254e-05 2.80266e-16 -8.00919e-05 -5.99496e-16 0)
(2.36323e-05 -7.26045e-05 1.17094e-16 -8.28725e-05 1.55312e-16 0)
(1.30398e-05 -6.10555e-05 -2.98156e-17 -8.44707e-05 -1.91429e-16 0)
(3.9038e-06 -5.0597e-05 6.23416e-17 -8.54712e-05 2.01594e-17 0)
(-3.7961e-06 -4.05685e-05 7.91468e-17 -8.60785e-05 -3.35256e-17 0)
(-9.88743e-06 -3.03944e-05 5.96311e-17 -8.65122e-05 -4.86028e-17 0)
(-1.38763e-05 -1.95148e-05 3.90313e-17 -8.71875e-05 8.58976e-17 0)
(-1.43951e-05 -6.59952e-06 5.25838e-17 -8.88706e-05 -5.67512e-18 0)
(0.00015131 -1.23774e-05 -1.6263e-15 -0.000414636 0 0)
(0.000115487 -1.12477e-05 -1.83935e-15 -0.000352244 0 0)
(8.52604e-05 -1.11388e-05 -5.91432e-16 -0.000299359 0 0)
(5.97933e-05 -1.14216e-05 -5.1337e-16 -0.000253721 0 0)
(3.84551e-05 -1.17725e-05 -4.87349e-16 -0.000214049 0 0)
(2.06887e-05 -1.20096e-05 -3.38813e-16 -0.000179474 0 0)
(6.01757e-06 -1.20205e-05 -5.39391e-16 -0.00014939 0 0)
(-5.90698e-06 -1.17398e-05 -4.29886e-16 -0.000123445 0 0)
(-1.51864e-05 -1.11752e-05 -3.13877e-16 -0.00010167 0 0)
(-1.77149e-05 -1.24157e-05 -1.21973e-16 -5.45888e-05 0 0)
(-2.70719e-05 -1.47211e-05 -2.54788e-17 -1.62809e-05 0 0)
(-2.7273e-05 -1.47832e-05 2.92735e-17 9.95937e-06 0 0)
(-2.16234e-05 -1.39966e-05 5.31259e-17 2.7139e-05 0 0)
(-1.21889e-05 -1.29236e-05 3.52366e-17 3.75118e-05 0 0)
(-3.54168e-07 -1.17935e-05 -1.1601e-16 4.2806e-05 0 0)
(1.29045e-05 -1.07001e-05 -1.26852e-16 4.43716e-05 0 0)
(2.68732e-05 -9.6812e-06 -9.6494e-17 4.32817e-05 0 0)
(4.10149e-05 -8.7501e-06 -8.67362e-17 4.0405e-05 0 0)
(5.49152e-05 -7.90953e-06 9.70361e-17 3.64579e-05 0 0)
(6.82448e-05 -7.15707e-06 5.80048e-17 3.20456e-05 0 0)
(8.0732e-05 -6.4876e-06 3.78929e-16 2.76943e-05 0 0)
(9.21397e-05 -5.89444e-06 -1.69678e-16 2.38792e-05 0 0)
(0.000102246 -5.37025e-06 4.29344e-16 2.10513e-05 0 0)
(0.000110823 -4.90871e-06 1.09017e-15 1.96644e-05 0 0)
(0.000117628 -4.50885e-06 -5.47522e-16 2.02052e-05 0 0)
(0.000122388 -4.18762e-06 6.50521e-18 2.3229e-05 0 0)
(0.000124824 -4.01711e-06 -6.09322e-16 2.94165e-05 0 0)
(0.00012472 -4.2483e-06 8.9284e-16 3.97624e-05 0 0)
(0.000121702 -5.08874e-07 2.86771e-16 5.84825e-05 -5.24631e-16 0)
(0.000123285 -9.18825e-07 7.20994e-17 5.47852e-05 1.30612e-17 0)
(0.000125385 -2.24277e-06 7.75205e-17 4.96744e-05 -1.4547e-15 0)
(0.000128086 -3.71633e-06 2.33103e-16 4.2849e-05 1.44546e-16 0)
(0.000131345 -5.20106e-06 1.79978e-16 3.44094e-05 9.73588e-16 0)
(0.000135086 -6.63911e-06 8.07731e-17 2.45624e-05 9.47322e-17 0)
(0.000139212 -7.98237e-06 1.20346e-16 1.35713e-05 3.98783e-16 0)
(0.000143604 -9.18337e-06 8.88504e-16 1.74718e-06 7.13761e-16 0)
(0.000148056 -1.02317e-05 1.09667e-15 -1.05086e-05 -1.27766e-16 0)
(0.000154387 -1.01238e-05 5.54027e-16 -2.72818e-05 -6.3436e-16 0)
(0.000156618 -1.02346e-05 -4.41812e-16 -3.26413e-05 -3.70264e-16 0)
(0.000158732 -1.01081e-05 2.05998e-17 -3.78784e-05 -4.26608e-16 0)
(0.000160754 -9.8274e-06 6.93889e-17 -4.29458e-05 -6.03333e-16 0)
(0.000162686 -9.42699e-06 8.78204e-17 -4.77977e-05 -5.79125e-16 0)
(0.000164519 -8.92217e-06 4.01155e-17 -5.23907e-05 -2.70949e-16 0)
(0.00016624 -8.32094e-06 -5.2638e-16 -5.66825e-05 3.14325e-16 0)
(0.000167838 -7.62901e-06 -5.63243e-16 -6.0633e-05 -1.11402e-16 0)
(0.000169298 -6.85226e-06 -6.25585e-16 -6.42035e-05 -5.31272e-16 0)
(0.000170605 -5.99834e-06 -7.87673e-16 -6.73584e-05 -5.5468e-16 0)
(0.000171745 -5.07809e-06 -3.19298e-16 -7.00652e-05 -6.76318e-16 0)
(0.000172704 -4.10697e-06 5.30717e-16 -7.22963e-05 -3.17083e-16 0)
(0.000173466 -3.10695e-06 2.79182e-16 -7.40308e-05 -7.51915e-16 0)
(0.000174017 -2.10884e-06 4.48318e-16 -7.52564e-05 -6.57137e-16 0)
(0.00017434 -1.15533e-06 5.04696e-16 -7.59731e-05 4.86959e-17 0)
(0.000174419 -3.04818e-07 2.77556e-16 -7.61974e-05 -3.04229e-16 0)
(0.000174234 3.64183e-07 1.27394e-16 -7.5969e-05 5.80844e-16 0)
(0.000173775 7.49071e-07 8.78204e-17 -7.53609e-05 1.98553e-16 0)
(0.000173047 7.2349e-07 -7.58942e-17 -7.4498e-05 -5.05306e-16 0)
(0.000172392 6.58992e-07 -3.11708e-16 -7.44101e-05 -2.72914e-16 0)
(0.000173235 -5.26803e-09 -5.54569e-16 -7.5514e-05 -4.21992e-17 0)
(0.000178467 -8.6934e-07 3.24176e-16 -7.82039e-05 -7.74883e-16 0)
(0.000188349 -1.74167e-06 -7.71952e-16 -8.25889e-05 7.62465e-16 0)
(0.000202553 -2.57552e-06 2.15756e-16 -8.86136e-05 6.77626e-20 0)
(0.000220712 -3.38006e-06 1.84314e-16 -9.61878e-05 2.04223e-15 0)
(0.000242561 -4.17783e-06 5.83843e-16 -0.000105237 5.51012e-16 0)
(0.000267957 -4.99188e-06 1.98951e-16 -0.000115718 2.64782e-16 0)
(0.000296863 -5.84229e-06 8.70072e-16 -0.000127618 -4.6065e-16 0)
(0.00032932 -6.7453e-06 -3.78929e-16 -0.000140947 -1.78148e-15 0)
(0.000365414 -7.71304e-06 -1.07011e-15 -0.000155729 2.11047e-16 0)
(0.000405244 -8.75276e-06 1.45663e-15 -0.000171983 -1.34065e-15 0)
(0.000448878 -9.8647e-06 1.22515e-15 -0.000189712 -4.13261e-15 0)
(0.000496296 -1.10369e-05 -1.55529e-15 -0.00020887 4.63544e-15 0)
(0.000547282 -1.22344e-05 1.60462e-15 -0.000229317 -2.86358e-15 0)
(0.000601233 -1.33753e-05 3.2274e-15 -0.00025073 2.33192e-15 0)
(0.000656388 -1.41798e-05 -1.25198e-15 -0.000272111 4.00857e-15 0)
(0.000716908 -9.01379e-06 1.26499e-15 -0.000305848 3.78888e-15 0)
(0.000770259 -1.78535e-05 2.48228e-15 -0.000316272 -1.55827e-15 0)
(0.00083968 -1.13184e-06 2.59016e-15 -0.000337828 -2.32887e-15 0)
(0.000840359 1.92736e-06 3.34937e-15 -0.000338844 -4.49808e-15 0)
(0.000812514 7.61645e-06 1.89871e-16 -0.000327853 1.73418e-15 0)
(0.000744222 1.56343e-05 -1.46015e-15 -0.000300863 -2.5579e-15 0)
(0.000625898 2.54461e-05 -3.39762e-16 -0.000255019 -8.80914e-16 0)
(0.000458568 3.5103e-05 -2.08245e-15 -0.000191818 2.04535e-15 0)
(0.000260358 4.17687e-05 -8.92849e-16 -0.000118591 -9.93671e-16 0)
(6.38521e-05 4.3797e-05 -3.44302e-16 -4.77463e-05 1.35525e-16 0)
(-9.48949e-05 4.05747e-05 -4.47496e-16 7.8107e-06 -6.40763e-16 0)
(-3.54748e-05 0.000151614 0 5.83106e-06 -1.23924e-15 0)
(6.19498e-05 0.000151471 0 -2.29683e-05 -1.22135e-15 0)
(0.000147607 0.000152249 0 -4.37027e-05 -1.39428e-15 0)
(0.000224061 0.000153914 0 -5.79506e-05 -1.719e-15 0)
(0.000293335 0.000156452 0 -6.69214e-05 -2.28658e-15 0)
(0.0003571 0.00015987 0 -7.15839e-05 -2.65142e-15 0)
(0.000416787 0.000164194 0 -7.27419e-05 -2.543e-15 0)
(0.000473668 0.000169475 0 -7.1084e-05 -2.82923e-15 0)
(0.00052891 0.000175785 0 -6.72172e-05 -2.06541e-15 0)
(0.000583621 0.000183217 0 -6.16941e-05 -1.86808e-15 0)
(0.00063889 0.000191883 0 -5.50375e-05 -2.41181e-15 0)
(0.000695837 0.000201908 0 -4.77699e-05 8.50557e-16 0)
(0.000755656 0.000213428 0 -4.04397e-05 1.24737e-15 0)
(0.00081959 0.000226594 0 -3.36098e-05 2.2714e-16 0)
(0.00088919 0.000241495 0 -2.80153e-05 -5.45896e-16 0)
(0.000967171 0.000257923 0 -2.51899e-05 -6.38378e-15 0)
(0.00105774 0.00027558 0 -2.78509e-05 -5.42535e-15 0)
(0.00116206 0.000295975 0 -3.68922e-05 -1.88109e-15 0)
(0.00128828 0.000318043 0 -7.51872e-05 4.38018e-16 0)
(0.00195432 0.000293972 0 -0.000654706 2.77393e-15 0)
(0.00250268 0.000231514 0 -0.00119487 2.13935e-14 0)
(0.0031548 0.00012132 0 -0.00192611 2.37359e-14 0)
(0.00386584 -3.55794e-05 0 -0.00281905 1.19392e-14 0)
(0.00456243 -0.000222459 0 -0.00379737 3.08781e-14 0)
(0.00516021 -0.000412632 0 -0.00476049 -6.89553e-16 0)
(0.00559373 -0.000585924 0 -0.00562712 -7.93473e-15 0)
(0.00582185 -0.000733072 0 -0.00634416 1.00041e-14 0)
(0.00579447 -0.000836915 0 -0.0068464 1.88494e-14 0)
(8.65015e-05 -0.000137733 -3.4315e-16 -7.45728e-05 6.63261e-16 0)
(0.000106325 -0.000143792 -1.76183e-16 -6.17349e-05 -3.49113e-16 0)
(0.000120499 -0.00015348 -8.63567e-16 -5.39546e-05 -5.32818e-16 0)
(0.000129949 -0.000160902 -6.61363e-16 -4.75386e-05 5.5379e-16 0)
(0.000136431 -0.000164474 5.74627e-16 -4.22447e-05 5.13243e-16 0)
(0.000141174 -0.000164159 -4.8518e-16 -3.82068e-05 3.59045e-16 0)
(0.00014491 -0.000160508 6.59195e-16 -3.54408e-05 8.8858e-16 0)
(0.000148028 -0.000154236 8.29957e-16 -3.38143e-05 -5.48725e-16 0)
(0.00015071 -0.000146037 5.42643e-16 -3.30942e-05 6.9062e-16 0)
(0.000153013 -0.000136501 9.54098e-17 -3.29956e-05 2.09725e-17 0)
(0.000154921 -0.000126085 -3.83265e-16 -3.32163e-05 -5.36172e-18 0)
(0.000156381 -0.000115111 -2.50451e-16 -3.34627e-05 3.92473e-17 0)
(0.000157324 -0.000103779 -7.45389e-16 -3.34681e-05 5.23848e-16 0)
(0.000157684 -9.21669e-05 6.72205e-17 -3.30127e-05 -1.23989e-16 0)
(0.000157414 -8.0236e-05 -9.29161e-16 -3.19461e-05 6.41865e-16 0)
(0.000156516 -6.78104e-05 3.21466e-16 -3.02185e-05 6.26084e-16 0)
(0.000155068 -5.45367e-05 5.52943e-17 -2.7919e-05 -5.01643e-16 0)
(0.000153248 -3.98081e-05 -8.2562e-16 -2.53232e-05 -5.79832e-16 0)
(0.000151378 -2.26567e-05 3.3285e-16 -2.29755e-05 -3.10802e-16 0)
(0.000126086 -0.000185422 -2.64871e-15 -0.000182661 5.41288e-16 0)
(0.000165194 -0.000185982 7.42136e-16 -0.000188681 2.0898e-16 0)
(0.000201754 -0.000186792 -3.83808e-16 -0.000195948 9.94891e-16 0)
(0.000237662 -0.000186725 -1.81495e-15 -0.00020475 -1.85534e-16 0)
(0.00027364 -0.00018506 -1.28207e-15 -0.000214844 2.15892e-16 0)
(0.00030985 -0.000181347 1.04083e-15 -0.000225774 -1.13218e-15 0)
(0.000346166 -0.00017536 -1.78893e-16 -0.000237012 4.34087e-16 0)
(0.00038233 -0.000167087 -6.41848e-16 -0.000248035 1.81401e-15 0)
(0.000418059 -0.000156724 -1.13516e-15 -0.00025839 2.4713e-15 0)
(0.000453134 -0.000144639 -4.6168e-15 -0.000267749 7.09204e-16 0)
(0.000487464 -0.000131324 -1.15549e-15 -0.000275955 -8.55707e-16 0)
(0.000521137 -0.000117315 -5.32289e-15 -0.000283047 -4.70408e-16 0)
(0.00055443 -0.000103114 7.42136e-16 -0.000289267 -2.30637e-15 0)
(0.00058781 -8.9118e-05 -1.22786e-15 -0.000295044 -2.09441e-15 0)
(0.000621908 -7.5547e-05 7.86318e-16 -0.000300957 -1.37165e-15 0)
(0.00065748 -6.23795e-05 -1.2799e-15 -0.000307693 -2.36614e-15 0)
(0.000695364 -4.92772e-05 -2.94063e-15 -0.000315989 -1.70735e-15 0)
(0.000736459 -3.54523e-05 -1.28993e-15 -0.000326582 -2.93317e-15 0)
(0.000781782 -1.93123e-05 6.33716e-16 -0.0003402 -4.6763e-15 0)
(0.00557411 -0.00112362 1.48202e-14 -0.006993 4.61528e-14 0)
(0.00501113 -0.00185458 -3.99065e-14 -0.00621583 2.98523e-14 0)
(0.00395094 -0.00229243 -4.73363e-15 -0.00479346 -2.9493e-15 0)
(0.00235396 -0.00210606 1.09521e-14 -0.00273943 -1.38973e-14 0)
(0.000536002 -0.00111315 -1.63509e-14 -0.000543505 7.3948e-15 0)
(-0.000470033 -9.50266e-06 4.98679e-15 0.000279715 -1.04138e-15 0)
(-0.000451514 0.000307351 2.28225e-16 5.83038e-05 4.86265e-16 0)
(-0.00029991 0.00030926 -1.24792e-15 -1.57295e-05 1.20617e-15 0)
(-0.000209474 0.000309467 -3.37729e-16 -7.64341e-05 -9.10459e-16 0)
(-9.54311e-05 0.000304959 -4.93312e-16 -0.000180235 3.91397e-16 0)
(-4.69751e-05 0.000296033 6.17995e-17 -0.000230205 3.72423e-16 0)
(-7.09459e-07 0.00028136 -2.35814e-16 -0.000279828 5.01444e-18 0)
(4.31156e-05 0.000260379 7.95262e-16 -0.000328324 -5.7788e-16 0)
(8.3621e-05 0.000232712 9.26993e-17 -0.000374274 5.28142e-16 0)
(0.000119611 0.000198267 -8.39172e-16 -0.000415781 -8.29889e-16 0)
(0.000149768 0.000157408 1.34658e-15 -0.000450758 1.71711e-15 0)
(0.000173009 0.000110926 2.6563e-17 -0.000477517 -2.3743e-15 0)
(0.000190006 5.82284e-05 -2.11311e-15 -0.000497539 -7.27025e-16 0)
(-0.00012036 0.000267034 -5.7788e-16 -0.000118938 -3.67545e-16 0)
(-0.000109258 0.000205402 -9.10188e-16 -0.000103869 -3.895e-16 0)
(-9.23203e-05 0.000147784 -8.48388e-16 -9.3129e-05 4.8247e-17 0)
(-6.98743e-05 9.5962e-05 -3.62666e-16 -8.69061e-05 5.60397e-16 0)
(-4.31236e-05 5.08834e-05 -3.95192e-16 -8.43256e-05 1.99493e-16 0)
(-1.34255e-05 1.27495e-05 -4.39102e-17 -8.41366e-05 -1.88109e-16 0)
(1.80082e-05 -1.87781e-05 3.89771e-16 -8.49935e-05 1.83501e-16 0)
(5.00956e-05 -4.43924e-05 8.70072e-16 -8.5407e-05 -4.07931e-16 0)
(8.13854e-05 -6.50105e-05 4.90059e-16 -8.31654e-05 1.16552e-17 0)
(-0.00012036 0.000267034 -5.7788e-16 -0.000118938 -3.67545e-16 0)
(-0.000109258 0.000205402 -9.10188e-16 -0.000103869 -3.895e-16 0)
(-9.23203e-05 0.000147784 -8.48388e-16 -9.3129e-05 4.8247e-17 0)
(-6.98743e-05 9.5962e-05 -3.62666e-16 -8.69061e-05 5.60397e-16 0)
(-4.31236e-05 5.08834e-05 -3.95192e-16 -8.43256e-05 1.99493e-16 0)
(-1.34255e-05 1.27495e-05 -4.39102e-17 -8.41366e-05 -1.88109e-16 0)
(1.80082e-05 -1.87781e-05 3.89771e-16 -8.49935e-05 1.83501e-16 0)
(5.00956e-05 -4.43924e-05 8.70072e-16 -8.5407e-05 -4.07931e-16 0)
(8.13854e-05 -6.50105e-05 4.90059e-16 -8.31654e-05 1.16552e-17 0)
(0.000151672 -0.00011829 1.20889e-15 -0.000137432 -3.64292e-16 0)
(0.000201895 -0.000142279 2.44813e-15 -0.000172717 -6.23687e-16 0)
(0.000285535 -0.000160386 7.99057e-16 -0.000237988 2.66226e-15 0)
(0.000422766 -0.000169576 3.38108e-15 -0.000347012 1.63715e-16 0)
(0.000653052 -0.000145496 -1.52764e-15 -0.000523893 -5.93601e-17 0)
(0.000947791 -6.13703e-05 -3.25505e-15 -0.000700387 2.42644e-15 0)
(0.00117247 4.61713e-05 -5.7563e-15 -0.000743477 -4.3444e-15 0)
(0.00127434 0.000103323 1.36474e-16 -0.000618936 3.36645e-16 0)
(0.0013344 8.60078e-05 -2.10749e-15 -0.00042293 -1.22515e-15 0)
(0.00195432 0.000293972 0 -0.000654706 2.77393e-15 0)
(0.00250268 0.000231514 0 -0.00119487 2.13935e-14 0)
(0.0031548 0.00012132 0 -0.00192611 2.37359e-14 0)
(0.00386584 -3.55794e-05 0 -0.00281905 1.19392e-14 0)
(0.00456243 -0.000222459 0 -0.00379737 3.08781e-14 0)
(0.00516021 -0.000412632 0 -0.00476049 -6.89553e-16 0)
(0.00559373 -0.000585924 0 -0.00562712 -7.93473e-15 0)
(0.00582185 -0.000733072 0 -0.00634416 1.00041e-14 0)
(0.00579447 -0.000836915 0 -0.0068464 1.88494e-14 0)
(0.00557411 -0.00112362 1.48202e-14 -0.006993 4.61528e-14 0)
(0.00501113 -0.00185458 -3.99065e-14 -0.00621583 2.98523e-14 0)
(0.00395094 -0.00229243 -4.73363e-15 -0.00479346 -2.9493e-15 0)
(0.00235396 -0.00210606 1.09521e-14 -0.00273943 -1.38973e-14 0)
(0.000536002 -0.00111315 -1.63509e-14 -0.000543505 7.3948e-15 0)
(-0.000470033 -9.50266e-06 4.98679e-15 0.000279715 -1.04138e-15 0)
(-0.000451514 0.000307351 2.28225e-16 5.83038e-05 4.86265e-16 0)
(-0.00029991 0.00030926 -1.24792e-15 -1.57295e-05 1.20617e-15 0)
(-0.000209474 0.000309467 -3.37729e-16 -7.64341e-05 -9.10459e-16 0)
(-9.54311e-05 0.000304959 -4.93312e-16 -0.000180235 3.91397e-16 0)
(-4.69751e-05 0.000296033 6.17995e-17 -0.000230205 3.72423e-16 0)
(-7.09459e-07 0.00028136 -2.35814e-16 -0.000279828 5.01444e-18 0)
(4.31156e-05 0.000260379 7.95262e-16 -0.000328324 -5.7788e-16 0)
(8.3621e-05 0.000232712 9.26993e-17 -0.000374274 5.28142e-16 0)
(0.000119611 0.000198267 -8.39172e-16 -0.000415781 -8.29889e-16 0)
(0.000149768 0.000157408 1.34658e-15 -0.000450758 1.71711e-15 0)
(0.000173009 0.000110926 2.6563e-17 -0.000477517 -2.3743e-15 0)
(0.000190006 5.82284e-05 -2.11311e-15 -0.000497539 -7.27025e-16 0)
(0.00015131 -1.23774e-05 -1.6263e-15 -0.000414636 0 0)
(0.000115487 -1.12477e-05 -1.83935e-15 -0.000352244 0 0)
(8.52604e-05 -1.11388e-05 -5.91432e-16 -0.000299359 0 0)
(5.97933e-05 -1.14216e-05 -5.1337e-16 -0.000253721 0 0)
(3.84551e-05 -1.17725e-05 -4.87349e-16 -0.000214049 0 0)
(2.06887e-05 -1.20096e-05 -3.38813e-16 -0.000179474 0 0)
(6.01757e-06 -1.20205e-05 -5.39391e-16 -0.00014939 0 0)
(-5.90698e-06 -1.17398e-05 -4.29886e-16 -0.000123445 0 0)
(-1.51864e-05 -1.11752e-05 -3.13877e-16 -0.00010167 0 0)
(-1.43951e-05 -6.59952e-06 5.25838e-17 -8.88706e-05 -5.67512e-18 0)
(-1.38763e-05 -1.95148e-05 3.90313e-17 -8.71875e-05 8.58976e-17 0)
(-9.88743e-06 -3.03944e-05 5.96311e-17 -8.65122e-05 -4.86028e-17 0)
(-3.7961e-06 -4.05685e-05 7.91468e-17 -8.60785e-05 -3.35256e-17 0)
(3.9038e-06 -5.0597e-05 6.23416e-17 -8.54712e-05 2.01594e-17 0)
(1.30398e-05 -6.10555e-05 -2.98156e-17 -8.44707e-05 -1.91429e-16 0)
(2.36323e-05 -7.26045e-05 1.17094e-16 -8.28725e-05 1.55312e-16 0)
(3.57989e-05 -8.58254e-05 2.80266e-16 -8.00919e-05 -5.99496e-16 0)
(4.94042e-05 -0.000100523 4.71628e-17 -7.35247e-05 2.50722e-17 0)
(-1.77149e-05 -1.24157e-05 -1.21973e-16 -5.45888e-05 0 0)
(-2.70719e-05 -1.47211e-05 -2.54788e-17 -1.62809e-05 0 0)
(-2.7273e-05 -1.47832e-05 2.92735e-17 9.95937e-06 0 0)
(-2.16234e-05 -1.39966e-05 5.31259e-17 2.7139e-05 0 0)
(-1.21889e-05 -1.29236e-05 3.52366e-17 3.75118e-05 0 0)
(-3.54168e-07 -1.17935e-05 -1.1601e-16 4.2806e-05 0 0)
(1.29045e-05 -1.07001e-05 -1.26852e-16 4.43716e-05 0 0)
(2.68732e-05 -9.6812e-06 -9.6494e-17 4.32817e-05 0 0)
(4.10149e-05 -8.7501e-06 -8.67362e-17 4.0405e-05 0 0)
(5.49152e-05 -7.90953e-06 9.70361e-17 3.64579e-05 0 0)
(6.82448e-05 -7.15707e-06 5.80048e-17 3.20456e-05 0 0)
(8.0732e-05 -6.4876e-06 3.78929e-16 2.76943e-05 0 0)
(9.21397e-05 -5.89444e-06 -1.69678e-16 2.38792e-05 0 0)
(0.000102246 -5.37025e-06 4.29344e-16 2.10513e-05 0 0)
(0.000110823 -4.90871e-06 1.09017e-15 1.96644e-05 0 0)
(0.000117628 -4.50885e-06 -5.47522e-16 2.02052e-05 0 0)
(0.000122388 -4.18762e-06 6.50521e-18 2.3229e-05 0 0)
(0.000124824 -4.01711e-06 -6.09322e-16 2.94165e-05 0 0)
(0.00012472 -4.2483e-06 8.9284e-16 3.97624e-05 0 0)
(0.000121702 -5.08874e-07 2.86771e-16 5.84825e-05 -5.24631e-16 0)
(0.000123285 -9.18825e-07 7.20994e-17 5.47852e-05 1.30612e-17 0)
(0.000125385 -2.24277e-06 7.75205e-17 4.96744e-05 -1.4547e-15 0)
(0.000128086 -3.71633e-06 2.33103e-16 4.2849e-05 1.44546e-16 0)
(0.000131345 -5.20106e-06 1.79978e-16 3.44094e-05 9.73588e-16 0)
(0.000135086 -6.63911e-06 8.07731e-17 2.45624e-05 9.47322e-17 0)
(0.000139212 -7.98237e-06 1.20346e-16 1.35713e-05 3.98783e-16 0)
(0.000143604 -9.18337e-06 8.88504e-16 1.74718e-06 7.13761e-16 0)
(0.000148056 -1.02317e-05 1.09667e-15 -1.05086e-05 -1.27766e-16 0)
(0.000151378 -2.26567e-05 3.3285e-16 -2.29755e-05 -3.10802e-16 0)
(0.000153248 -3.98081e-05 -8.2562e-16 -2.53232e-05 -5.79832e-16 0)
(0.000155068 -5.45367e-05 5.52943e-17 -2.7919e-05 -5.01643e-16 0)
(0.000156516 -6.78104e-05 3.21466e-16 -3.02185e-05 6.26084e-16 0)
(0.000157414 -8.0236e-05 -9.29161e-16 -3.19461e-05 6.41865e-16 0)
(0.000157684 -9.21669e-05 6.72205e-17 -3.30127e-05 -1.23989e-16 0)
(0.000157324 -0.000103779 -7.45389e-16 -3.34681e-05 5.23848e-16 0)
(0.000156381 -0.000115111 -2.50451e-16 -3.34627e-05 3.92473e-17 0)
(0.000154921 -0.000126085 -3.83265e-16 -3.32163e-05 -5.36172e-18 0)
(0.000153013 -0.000136501 9.54098e-17 -3.29956e-05 2.09725e-17 0)
(0.00015071 -0.000146037 5.42643e-16 -3.30942e-05 6.9062e-16 0)
(0.000148028 -0.000154236 8.29957e-16 -3.38143e-05 -5.48725e-16 0)
(0.00014491 -0.000160508 6.59195e-16 -3.54408e-05 8.8858e-16 0)
(0.000141174 -0.000164159 -4.8518e-16 -3.82068e-05 3.59045e-16 0)
(0.000136431 -0.000164474 5.74627e-16 -4.22447e-05 5.13243e-16 0)
(0.000129949 -0.000160902 -6.61363e-16 -4.75386e-05 5.5379e-16 0)
(0.000120499 -0.00015348 -8.63567e-16 -5.39546e-05 -5.32818e-16 0)
(0.000106325 -0.000143792 -1.76183e-16 -6.17349e-05 -3.49113e-16 0)
(8.65015e-05 -0.000137733 -3.4315e-16 -7.45728e-05 6.63261e-16 0)
(0.000154387 -1.01238e-05 5.54027e-16 -2.72818e-05 -6.3436e-16 0)
(0.000156618 -1.02346e-05 -4.41812e-16 -3.26413e-05 -3.70264e-16 0)
(0.000158732 -1.01081e-05 2.05998e-17 -3.78784e-05 -4.26608e-16 0)
(0.000160754 -9.8274e-06 6.93889e-17 -4.29458e-05 -6.03333e-16 0)
(0.000162686 -9.42699e-06 8.78204e-17 -4.77977e-05 -5.79125e-16 0)
(0.000164519 -8.92217e-06 4.01155e-17 -5.23907e-05 -2.70949e-16 0)
(0.00016624 -8.32094e-06 -5.2638e-16 -5.66825e-05 3.14325e-16 0)
(0.000167838 -7.62901e-06 -5.63243e-16 -6.0633e-05 -1.11402e-16 0)
(0.000169298 -6.85226e-06 -6.25585e-16 -6.42035e-05 -5.31272e-16 0)
(0.000170605 -5.99834e-06 -7.87673e-16 -6.73584e-05 -5.5468e-16 0)
(0.000171745 -5.07809e-06 -3.19298e-16 -7.00652e-05 -6.76318e-16 0)
(0.000172704 -4.10697e-06 5.30717e-16 -7.22963e-05 -3.17083e-16 0)
(0.000173466 -3.10695e-06 2.79182e-16 -7.40308e-05 -7.51915e-16 0)
(0.000174017 -2.10884e-06 4.48318e-16 -7.52564e-05 -6.57137e-16 0)
(0.00017434 -1.15533e-06 5.04696e-16 -7.59731e-05 4.86959e-17 0)
(0.000174419 -3.04818e-07 2.77556e-16 -7.61974e-05 -3.04229e-16 0)
(0.000174234 3.64183e-07 1.27394e-16 -7.5969e-05 5.80844e-16 0)
(0.000173775 7.49071e-07 8.78204e-17 -7.53609e-05 1.98553e-16 0)
(0.000173047 7.2349e-07 -7.58942e-17 -7.4498e-05 -5.05306e-16 0)
(0.000172392 6.58992e-07 -3.11708e-16 -7.44101e-05 -2.72914e-16 0)
(0.000173235 -5.26804e-09 -5.54569e-16 -7.5514e-05 -4.21992e-17 0)
(0.000178467 -8.6934e-07 3.24176e-16 -7.82039e-05 -7.74883e-16 0)
(0.000188349 -1.74167e-06 -7.71952e-16 -8.25889e-05 7.62465e-16 0)
(0.000202553 -2.57552e-06 2.15756e-16 -8.86136e-05 6.77626e-20 0)
(0.000220712 -3.38006e-06 1.84314e-16 -9.61878e-05 2.04223e-15 0)
(0.000242561 -4.17783e-06 5.83843e-16 -0.000105237 5.51012e-16 0)
(0.000267957 -4.99188e-06 1.98951e-16 -0.000115718 2.64782e-16 0)
(0.000296863 -5.84229e-06 8.70072e-16 -0.000127618 -4.6065e-16 0)
(0.00032932 -6.7453e-06 -3.78929e-16 -0.000140947 -1.78148e-15 0)
(0.000365414 -7.71304e-06 -1.07011e-15 -0.000155729 2.11047e-16 0)
(0.000405244 -8.75276e-06 1.45663e-15 -0.000171983 -1.34065e-15 0)
(0.000448878 -9.8647e-06 1.22515e-15 -0.000189712 -4.13261e-15 0)
(0.000496296 -1.10369e-05 -1.55529e-15 -0.00020887 4.63544e-15 0)
(0.000547282 -1.22344e-05 1.60462e-15 -0.000229317 -2.86358e-15 0)
(0.000601233 -1.33753e-05 3.2274e-15 -0.00025073 2.33192e-15 0)
(0.000656388 -1.41798e-05 -1.25198e-15 -0.000272111 4.00857e-15 0)
(0.000716908 -9.01379e-06 1.26499e-15 -0.000305848 3.78888e-15 0)
(0.000770259 -1.78535e-05 2.48228e-15 -0.000316272 -1.55827e-15 0)
(0.000781782 -1.93123e-05 6.33716e-16 -0.0003402 -4.6763e-15 0)
(0.000736459 -3.54523e-05 -1.28993e-15 -0.000326582 -2.93317e-15 0)
(0.000695364 -4.92772e-05 -2.94063e-15 -0.000315989 -1.70735e-15 0)
(0.00065748 -6.23795e-05 -1.2799e-15 -0.000307693 -2.36614e-15 0)
(0.000621908 -7.5547e-05 7.86318e-16 -0.000300957 -1.37165e-15 0)
(0.00058781 -8.9118e-05 -1.22786e-15 -0.000295044 -2.09441e-15 0)
(0.00055443 -0.000103114 7.42136e-16 -0.000289267 -2.30637e-15 0)
(0.000521137 -0.000117315 -5.32289e-15 -0.000283047 -4.70408e-16 0)
(0.000487464 -0.000131324 -1.15549e-15 -0.000275955 -8.55707e-16 0)
(0.000453134 -0.000144639 -4.6168e-15 -0.000267749 7.09204e-16 0)
(0.000418059 -0.000156724 -1.13516e-15 -0.00025839 2.4713e-15 0)
(0.00038233 -0.000167087 -6.41848e-16 -0.000248035 1.81401e-15 0)
(0.000346166 -0.00017536 -1.78893e-16 -0.000237012 4.34087e-16 0)
(0.00030985 -0.000181347 1.04083e-15 -0.000225774 -1.13218e-15 0)
(0.00027364 -0.00018506 -1.28207e-15 -0.000214844 2.15892e-16 0)
(0.000237662 -0.000186725 -1.81495e-15 -0.00020475 -1.85534e-16 0)
(0.000201754 -0.000186792 -3.83808e-16 -0.000195948 9.94891e-16 0)
(0.000165194 -0.000185982 7.42136e-16 -0.000188681 2.0898e-16 0)
(0.000126086 -0.000185422 -2.64871e-15 -0.000182661 5.41288e-16 0)
(0.00083968 -1.13184e-06 2.59016e-15 -0.000337828 -2.32887e-15 0)
(0.000840359 1.92736e-06 3.34937e-15 -0.000338844 -4.49808e-15 0)
(0.000812514 7.61645e-06 1.89871e-16 -0.000327853 1.73418e-15 0)
(0.000744222 1.56343e-05 -1.46015e-15 -0.000300863 -2.5579e-15 0)
(0.000625898 2.54461e-05 -3.39762e-16 -0.000255019 -8.80914e-16 0)
(0.000458568 3.5103e-05 -2.08245e-15 -0.000191818 2.04535e-15 0)
(0.000260358 4.17687e-05 -8.92849e-16 -0.000118591 -9.93671e-16 0)
(6.38521e-05 4.3797e-05 -3.44302e-16 -4.77463e-05 1.35525e-16 0)
(-9.48949e-05 4.05747e-05 -4.47496e-16 7.8107e-06 -6.40763e-16 0)
(-3.54748e-05 0.000151614 0 5.83106e-06 -1.23924e-15 0)
(6.19498e-05 0.000151471 0 -2.29683e-05 -1.22135e-15 0)
(0.000147607 0.000152249 0 -4.37027e-05 -1.39428e-15 0)
(0.000224061 0.000153914 0 -5.79506e-05 -1.719e-15 0)
(0.000293335 0.000156452 0 -6.69214e-05 -2.28658e-15 0)
(0.0003571 0.00015987 0 -7.15839e-05 -2.65142e-15 0)
(0.000416787 0.000164194 0 -7.27419e-05 -2.543e-15 0)
(0.000473668 0.000169475 0 -7.1084e-05 -2.82923e-15 0)
(0.00052891 0.000175785 0 -6.72172e-05 -2.06541e-15 0)
(0.000583621 0.000183217 0 -6.16941e-05 -1.86808e-15 0)
(0.00063889 0.000191883 0 -5.50375e-05 -2.41181e-15 0)
(0.000695837 0.000201908 0 -4.77699e-05 8.50557e-16 0)
(0.000755656 0.000213428 0 -4.04397e-05 1.24737e-15 0)
(0.00081959 0.000226594 0 -3.36098e-05 2.2714e-16 0)
(0.00088919 0.000241495 0 -2.80153e-05 -5.45896e-16 0)
(0.000967171 0.000257923 0 -2.51899e-05 -6.38378e-15 0)
(0.00105774 0.00027558 0 -2.78509e-05 -5.42535e-15 0)
(0.00116206 0.000295975 0 -3.68922e-05 -1.88109e-15 0)
(0.00128828 0.000318043 0 -7.51872e-05 4.38018e-16 0)
(0.00558066 -0.00115405 -1.82052e-14 -0.00641279 2.16128e-14 0)
(0.00538748 -0.00116619 -2.87983e-14 -0.00576027 2.00671e-14 0)
(0.00497863 -0.00109437 -1.20393e-14 -0.0049549 3.34064e-14 0)
(0.00439457 -0.000960265 2.64532e-15 -0.00403333 1.24778e-14 0)
(0.00371617 -0.000775348 2.43558e-14 -0.00308507 6.66784e-16 0)
(0.00304333 -0.00056062 -4.16835e-15 -0.00222208 -9.82829e-16 0)
(0.0024474 -0.000346357 -9.86624e-16 -0.00151623 7.60568e-16 0)
(0.00196016 -0.000156177 5.66645e-15 -0.000984663 2.234e-15 0)
(0.00158483 -2.05395e-06 -6.61363e-17 -0.000607865 5.96311e-16 0)
(0.00476945 -0.00178203 -3.15313e-14 -0.00549341 -2.06967e-14 0)
(0.00429968 -0.00171824 -3.33563e-14 -0.00458898 -2.27138e-14 0)
(0.00366854 -0.00153307 -2.19762e-14 -0.00359918 -2.44965e-14 0)
(0.00299577 -0.00126735 -1.46638e-15 -0.00265392 -7.71085e-15 0)
(0.00241944 -0.000967829 -7.65474e-15 -0.00189964 -2.24755e-15 0)
(0.00199355 -0.000677158 -2.53432e-15 -0.0013768 -4.54443e-15 0)
(0.00170121 -0.000418215 -6.49708e-16 -0.00103982 -3.42283e-15 0)
(0.00150463 -0.000197809 5.64395e-15 -0.000824764 -4.98787e-15 0)
(0.00137393 -1.26956e-05 4.61409e-15 -0.00068621 -4.35741e-15 0)
(0.00338345 -0.00197975 -4.28591e-14 -0.00395359 -8.15862e-15 0)
(0.00258305 -0.00169904 -1.35699e-14 -0.0027767 -1.73472e-14 0)
(0.00185728 -0.00135233 -3.62124e-15 -0.00178552 -1.25204e-14 0)
(0.001386 -0.00102884 2.08438e-15 -0.00116388 -5.33888e-15 0)
(0.00117371 -0.00076642 -2.74141e-15 -0.000878283 -1.80682e-15 0)
(0.0011212 -0.00055497 -1.02864e-15 -0.000785407 -5.42372e-15 0)
(0.00113994 -0.000373957 -9.54098e-17 -0.000772999 -6.34638e-15 0)
(0.00117684 -0.000210598 6.64887e-15 -0.000781162 -8.82432e-15 0)
(0.00119304 -6.23974e-05 -1.08962e-15 -0.000771697 -3.50848e-15 0)
(0.00152846 -0.00148365 -9.53502e-15 -0.00195494 -1.26806e-14 0)
(0.000692989 -0.00103293 -5.16568e-15 -0.000877733 -5.41017e-15 0)
(0.000311901 -0.000742 -7.51623e-15 -0.000381215 -5.9894e-15 0)
(0.000287943 -0.000593757 -6.41306e-16 -0.000296378 -3.87602e-16 0)
(0.000415949 -0.000506818 1.17799e-15 -0.000371454 -4.85262e-15 0)
(0.000581035 -0.000432222 2.6254e-15 -0.000484708 -4.87512e-15 0)
(0.000735668 -0.000349232 -1.7846e-15 -0.000592913 -3.64536e-15 0)
(0.000848644 -0.00025434 -3.85407e-15 -0.00066872 -2.46629e-15 0)
(0.000915825 -0.000155275 -5.49636e-15 -0.000705863 -1.61546e-15 0)
(-9.13794e-05 -0.000485368 -7.78457e-15 -0.000281123 -3.91668e-16 0)
(-0.000387469 -0.000293447 -7.59104e-15 9.67158e-05 -4.7217e-16 0)
(-0.00029348 -0.000300914 -4.1178e-15 4.56632e-05 -7.55418e-16 0)
(-0.000108927 -0.000337592 1.16606e-15 -6.44299e-05 -1.70003e-15 0)
(8.30656e-05 -0.000355527 2.86392e-15 -0.000176485 -1.42789e-15 0)
(0.000261025 -0.000347028 2.07462e-15 -0.000286899 -1.64799e-16 0)
(0.000404056 -0.000316883 -1.37911e-15 -0.000378948 3.6787e-15 0)
(0.000517892 -0.000269373 -1.09694e-15 -0.000458061 3.86166e-15 0)
(0.000597045 -0.000213283 -5.24483e-16 -0.000512507 5.30527e-15 0)
(-0.000536358 0.000127709 7.25331e-16 0.000170216 -1.10724e-15 0)
(-0.000441955 -3.11456e-06 -6.23416e-16 0.000122583 5.60261e-16 0)
(-0.000316338 -0.000118826 -1.21214e-15 6.02251e-05 4.05221e-16 0)
(-0.000178441 -0.000197238 1.00831e-16 -1.53613e-05 9.1588e-16 0)