/*--------------------------------*- C++ -*----------------------------------*\
| =========                 |                                                 |
| \\      /  F ield         | OpenFOAM: The Open Source CFD Toolbox           |
|  \\    /   O peration     | Version:  v2012                                 |
|   \\  /    A nd           | Website:  www.openfoam.com                      |
|    \\/     M anipulation  |                                                 |
\*---------------------------------------------------------------------------*/
FoamFile
{
    version     2.0;
    format      ascii;
    class       volSymmTensorField;
    location    "16";
    object      sigma;
}
// * * * * * * * * * * * * * * * * * * * * * * * * * * * * * * * * * * * * * //

dimensions      [1 -1 -2 0 0 0 0];


internalField   nonuniform List<symmTensor> 
470
(
(2.24499e+07 -8.85534e+06 -3.02114e-09 4.14337e+06 1.10818e-11 4.92044e+06)
(2.31641e+07 -5.32407e+06 2.36465e-11 7.46203e+06 2.19158e-10 9.87265e+06)
(6.41659e+07 -7.94941e+06 -8.65521e-10 1.08208e+06 4.04814e-10 1.89711e+07)
(4.88757e+07 -1.75802e+06 -2.64561e-09 1.4885e+07 -2.66917e-10 1.99198e+07)
(3.26635e+07 -2.09869e+07 4.39137e-09 -1.562e+06 1.0565e-09 1.02848e+07)
(5.75582e+07 -2.51172e+06 -7.62413e-09 1.05045e+06 -1.05328e-09 1.62645e+07)
(4.73571e+07 -1.55155e+07 2.00158e-09 8.4392e+06 4.75341e-11 1.51083e+07)
(3.06889e+07 -1.80214e+07 -3.79569e-09 -5.33388e+06 -6.22436e-10 7.55831e+06)
(9.11933e+07 -1.18135e+07 -7.22593e-10 -1.7894e+06 -3.54862e-10 2.57967e+07)
(6.00856e+07 -1.3807e+07 -5.44035e-09 3.14488e+06 -9.79544e-10 2.02507e+07)
(8.30437e+07 -1.71025e+07 3.99727e-09 -2.66549e+06 1.99361e-09 2.56416e+07)
(1.09347e+08 -1.40023e+06 -9.31036e-09 -9.24047e+06 -4.96453e-09 3.31204e+07)
(1.06529e+08 -1.05739e+06 -6.74685e-09 -3.45778e+06 -4.24529e-09 3.16276e+07)
(4.64051e+07 -4.64252e+06 1.70099e-09 1.38048e+07 6.06789e-10 1.91039e+07)
(1.20263e+08 -1.44776e+06 4.58034e-09 -82065.8 2.78342e-09 3.35807e+07)
(7.8174e+07 -1.2066e+07 1.75567e-09 1.36021e+06 -1.79494e-09 2.32558e+07)
(6.01872e+07 -1.47246e+07 1.92402e-09 4.96781e+06 1.56311e-09 1.81274e+07)
(4.41222e+07 -5.06702e+06 -2.52021e-10 1.32816e+07 -3.27921e-10 1.63457e+07)
(3.78761e+07 -2.61618e+06 -2.21625e-09 1.29495e+07 4.57536e-11 1.54265e+07)
(2.19393e+07 -9.30224e+06 -2.1218e-09 6.32723e+06 5.55596e-11 9.58217e+06)
(8.12082e+07 -1.06107e+07 3.38334e-09 127279 2.56865e-09 2.47615e+07)
(5.34613e+07 -4.77537e+06 3.54099e-10 9.60049e+06 3.55629e-10 1.93898e+07)
(6.33549e+07 -6.51216e+06 -2.03e-09 586141 -8.3203e-10 1.97775e+07)
(4.88572e+07 -5.09857e+06 2.50319e-09 1.39307e+07 3.36621e-10 1.7521e+07)
(7.35765e+07 -1.18693e+07 -6.52328e-09 -1.11198e+07 -2.74954e-09 2.11872e+07)
(4.36397e+07 -1.64232e+07 1.95712e-09 7.7011e+06 -4.27692e-10 1.7065e+07)
(7.25006e+07 -1.53743e+07 -1.39654e-09 -1.46284e+07 -7.64838e-10 1.78187e+07)
(7.21536e+07 -4.43262e+06 6.30109e-09 -540473 2.36411e-09 2.11862e+07)
(5.70883e+07 -4.00672e+06 2.95002e-09 1.5399e+06 -7.77059e-10 1.74563e+07)
(4.88968e+07 -1.96401e+06 -9.96239e-10 1.36566e+07 -1.78175e-10 1.8541e+07)
(2.41975e+07 -5.83094e+06 1.10813e-10 8.40035e+06 -2.13895e-10 9.23184e+06)
(1.17229e+08 -1.91005e+06 0 1.1013e+06 0 3.6098e+07)
(6.32225e+07 -1.38243e+07 -3.57983e-09 2.76924e+06 -1.2271e-09 1.96091e+07)
(5.56113e+07 -1.50536e+07 -3.76709e-10 -1.15865e+07 -4.96535e-09 2.81162e+07)
(5.76467e+07 -1.85656e+06 -5.0669e-09 -409714 -4.36869e-10 1.89798e+07)
(5.62738e+07 -3.13246e+06 1.305e-10 1.33006e+06 1.10463e-09 1.69358e+07)
(1.26952e+08 -2.91664e+06 6.06501e-10 -2.69626e+06 3.17779e-10 3.64421e+07)
(2.97964e+07 -8.92039e+06 -1.52216e-09 7.4182e+06 -2.00316e-10 9.70982e+06)
(2.78006e+07 -8.54271e+06 -3.63031e-09 8.98349e+06 -1.33887e-09 1.49617e+07)
(1.74788e+07 -1.08821e+07 1.67896e-09 3.05402e+06 4.53627e-10 8.55725e+06)
(5.83574e+07 -2.07952e+07 -2.03028e-09 -8.70958e+06 2.11369e-10 1.62428e+07)
(3.61686e+07 -866967 -1.58877e-09 1.25011e+07 3.35881e-10 1.39282e+07)
(1.17376e+08 8.93898e+06 9.6355e-09 -1.1866e+07 9.22933e-09 2.74937e+07)
(5.8499e+07 -2.01755e+07 3.77855e-09 -7.75341e+06 1.98374e-09 1.40443e+07)
(7.38026e+07 -609812 0 723848 0 2.27389e+07)
(1.14203e+08 8.87979e+06 1.62311e-08 -1.09122e+07 1.86144e-08 3.30421e+07)
(3.41716e+07 -1.6111e+07 -5.04485e-09 7.28896e+06 -7.15019e-10 1.11964e+07)
(7.00398e+07 -1.50566e+07 1.5074e-09 -5.96383e+06 1.8355e-09 1.76762e+07)
(7.02353e+07 -1.7718e+07 -5.23635e-09 -9.3109e+06 -2.73761e-09 1.57666e+07)
(7.9043e+07 -1.76005e+07 6.83092e-09 -7.46962e+06 3.34075e-09 2.38601e+07)
(1.26366e+08 -1.49441e+06 1.76436e-08 1.60322e+06 4.748e-09 3.73477e+07)
(5.88712e+07 -9.69322e+06 0 -5.36621e+06 0 3.01398e+06)
(4.23793e+07 -6.44491e+06 1.26511e-09 1.23736e+07 -5.28561e-11 1.76126e+07)
(3.98741e+07 -3.77794e+06 -4.09128e-09 1.31392e+07 -2.49659e-10 1.45941e+07)
(5.28453e+07 -4.9367e+06 0 1.18741e+07 0 2.03524e+07)
(5.30376e+07 -6.06789e+06 1.70035e-09 1.12576e+07 1.72491e-10 1.89683e+07)
(5.40484e+07 1.19484e+06 -2.1075e-09 8.40753e+06 -1.50116e-09 3.19465e+07)
(6.76389e+07 6.55525e+06 4.04194e-09 -1.63988e+06 2.69568e-09 1.87282e+07)
(5.88717e+07 -1.97929e+07 6.46192e-10 1.1734e+06 2.14677e-10 1.79309e+07)
(6.82854e+07 -5.78892e+06 2.20201e-10 -495031 3.80393e-11 2.21554e+07)
(4.92652e+07 -1.46513e+07 4.30796e-09 7.81667e+06 5.72726e-10 1.73874e+07)
(8.8696e+07 -9.9936e+06 6.96684e-09 -1.11155e+07 4.75723e-09 2.07073e+07)
(1.02152e+08 -9.4435e+06 1.55351e-08 -2.2034e+06 7.6505e-09 3.19814e+07)
(1.02953e+08 -1.36383e+06 -8.4595e-09 -1.84296e+07 -7.43668e-09 2.26226e+07)
(2.50214e+07 274065 -2.54643e-09 -1.86838e+07 1.39023e-08 3.80308e+06)
(1.33996e+08 5.47154e+06 -8.67539e-09 7.31179e+06 -1.33676e-08 7.2485e+07)
(2.85534e+07 -1.28146e+07 3.09595e-09 5.71078e+06 7.15026e-10 1.0769e+07)
(5.39786e+07 -6.04994e+06 -2.0666e-10 8.42474e+06 3.19627e-10 1.83804e+07)
(1.7191e+07 -1.22388e+07 6.9917e-10 -2.39326e+07 3.44283e-09 -2.55149e+06)
(7.00159e+07 -1.74424e+07 -4.2868e-09 755048 -1.5223e-09 2.25022e+07)
(1.28736e+07 -1.97194e+06 -8.96089e-10 1.5316e+06 4.19847e-10 4.77777e+06)
(5.6559e+07 -1.61871e+07 -2.52182e-09 4.38006e+06 -4.44653e-10 1.95664e+07)
(8.11366e+07 -9.0183e+06 1.41332e-08 -1.57671e+07 1.3887e-08 2.31916e+07)
(5.16201e+07 -2.0377e+07 0 3.49607e+06 0 1.61565e+07)
(9.51133e+07 2.18168e+06 -2.77333e-09 -1.84156e+07 3.41279e-09 2.69928e+07)
(5.33216e+07 -744973 5.64979e-10 1.27868e+07 7.07989e-10 1.97452e+07)
(5.73118e+07 -1.3007e+07 -1.40277e-10 5.00975e+06 -1.13222e-09 1.84383e+07)
(5.46268e+07 -1.37528e+07 -4.76647e-10 5.83434e+06 -7.04617e-10 1.87896e+07)
(5.60136e+07 -2.1269e+07 4.26985e-09 597082 1.1672e-09 1.63166e+07)
(1.81695e+08 -1.16068e+07 2.51153e-09 4.456e+07 -4.77243e-10 6.00569e+07)
(5.69385e+07 -2.11202e+07 -3.76348e-09 -2.37274e+06 -1.54908e-09 1.6605e+07)
(1.25532e+08 -1.27697e+07 -6.13218e-10 1.22249e+06 -4.57777e-09 4.4059e+07)
(6.44693e+07 -9.34301e+06 -3.13197e-09 1.27455e+06 2.30824e-09 2.07455e+07)
(1.51869e+07 -1.32936e+07 -5.07094e-09 -2.87527e+07 -3.01506e-09 -4.68567e+06)
(8.77268e+07 -1.25647e+07 2.35284e-09 -5.09213e+06 9.73741e-10 2.36014e+07)
(5.36524e+07 -3.3025e+06 5.87213e-11 1.0721e+07 1.89449e-10 1.88922e+07)
(9.89791e+07 3.94557e+06 -1.8926e-08 -1.46069e+07 -1.65295e-08 3.0143e+07)
(9.41306e+06 -9.91849e+06 -6.88983e-09 3.07655e+06 5.61232e-09 9.22586e+06)
(1.15849e+08 1.29246e+07 5.3995e-09 -1.33411e+07 8.01377e-10 2.98075e+07)
(8.48497e+07 -3.97986e+06 1.00183e-08 -1.93254e+07 1.97067e-09 1.70897e+07)
(1.06023e+08 4.08186e+06 -1.14648e-08 -2.20041e+07 -6.05214e-09 2.78139e+07)
(1.14295e+08 -6.15948e+06 -2.0623e-08 -78646.7 -1.31491e-08 3.39442e+07)
(5.04801e+07 -1.81472e+07 -1.56733e-09 5.24636e+06 3.21707e-11 1.73022e+07)
(5.52414e+07 -1.47558e+07 -6.79929e-09 5.51227e+06 -5.36254e-10 1.78476e+07)
(1.14531e+08 -2.45706e+06 1.14556e-08 -1.30659e+06 6.16242e-09 3.20489e+07)
(1.20304e+08 -5.61489e+06 -3.85691e-09 -620207 -1.33374e-09 3.66683e+07)
(3.59139e+07 -1.68628e+07 -5.01568e-09 5.75386e+06 -3.55327e-10 1.32711e+07)
(5.09811e+07 -1.55197e+07 2.56663e-09 7.73833e+06 5.76111e-10 1.69994e+07)
(4.19212e+07 -2.12194e+07 -7.37275e-10 -2.53155e+06 -8.84851e-10 1.0271e+07)
(5.9795e+07 -5.61637e+06 5.99201e-09 1.07733e+06 2.25385e-09 1.8655e+07)
(5.13882e+07 -7.34446e+06 1.10271e-09 1.16902e+07 -5.66897e-10 1.91161e+07)
(7.783e+07 -1.51677e+07 -5.40862e-09 -6.40482e+06 -2.47742e-09 2.23395e+07)
(9.15832e+07 -1.40774e+07 0 -1.2981e+07 0 8.60602e+06)
(5.26964e+07 -4.02713e+06 2.125e-09 1.55697e+07 4.02616e-10 2.00109e+07)
(5.21539e+07 -4.18627e+06 -1.92578e-09 1.57392e+07 -3.04063e-10 2.15959e+07)
(5.52367e+07 -3.12495e+06 -1.46615e-09 3.21154e+06 7.14484e-11 1.64433e+07)
(5.43779e+07 -4.28094e+06 1.37387e-09 4.02891e+06 -1.2725e-10 1.78552e+07)
(3.68278e+07 -1.95381e+07 3.16207e-09 2.27602e+06 6.26299e-10 1.19024e+07)
(-4.35659e+06 9.42821e+06 -1.53867e-10 -7.1372e+07 -1.79395e-09 -1.48649e+07)
(8.75617e+07 -2.06676e+07 8.77521e-10 7.49144e+06 5.59071e-09 3.29531e+07)
(1.20507e+08 1.6329e+07 5.80644e-09 -2.27459e+07 1.78676e-09 3.73649e+07)
(1.03114e+08 -2.26678e+07 9.0963e-09 -1.0915e+07 4.06467e-09 4.09372e+07)
(5.31769e+07 -2.72977e+06 3.68458e-10 1.42043e+07 1.44048e-10 2.02712e+07)
(5.59259e+07 -369499 1.20108e-09 276046 -2.94348e-10 1.71907e+07)
(1.93536e+07 -1.8022e+07 6.69544e-10 -1.56648e+07 2.21837e-09 3.52439e+06)
(6.02248e+07 -1.96151e+07 -1.01759e-10 2.09487e+06 -7.91646e-11 1.92967e+07)
(5.02752e+07 -761084 1.6285e-09 1.57491e+07 -7.0301e-10 1.98532e+07)
(1.0093e+08 -5.55082e+06 -2.9431e-09 10983.3 -2.10328e-09 3.22329e+07)
(4.25386e+07 -1.8429e+07 -9.29937e-10 6.23623e+06 -1.5e-12 1.31792e+07)
(2.58584e+07 -540618 3.46354e-12 1.01323e+07 7.10305e-12 1.03302e+07)
(4.56563e+07 -1.95509e+07 -5.23223e-10 4.31054e+06 -4.95054e-10 1.51851e+07)
(5.08811e+07 -5.88447e+06 9.46191e-10 1.30891e+07 -1.60827e-10 2.02163e+07)
(4.56111e+07 -3.16534e+06 2.52116e-09 1.37538e+07 1.41708e-11 1.7383e+07)
(5.36008e+07 -484659 -6.54445e-10 1.88385e+07 -8.08114e-10 2.16048e+07)
(5.37702e+07 -534606 7.94354e-10 2.75498e+06 9.89808e-10 1.68131e+07)
(6.51997e+07 -1.80864e+07 -3.41764e-09 2.34207e+06 -9.9072e-10 1.9679e+07)
(6.59064e+07 -1.99155e+07 -1.32056e-09 -300635 -7.50261e-10 2.02371e+07)
(5.3112e+07 -7.24458e+06 3.39294e-09 1.06388e+07 1.10134e-09 1.83908e+07)
(1.06476e+08 -1.66877e+06 -9.78267e-09 460207 -2.95095e-09 3.02209e+07)
(5.0565e+07 -5.75502e+06 -2.71944e-09 1.33735e+07 2.70023e-10 1.87152e+07)
(2.46447e+07 -1.63193e+07 2.50619e-09 1.2502e+06 6.94544e-10 1.03347e+07)
(3.28625e+07 -1.75803e+07 5.66153e-10 1.02475e+06 1.20529e-10 9.07534e+06)
(4.72769e+07 -1.92584e+07 -6.38667e-10 6.40201e+06 -5.01777e-10 1.5874e+07)
(5.13811e+07 -8.74459e+06 -5.86928e-09 1.08452e+07 -1.45162e-09 1.84778e+07)
(5.37114e+07 -756459 -6.37553e-10 8.47544e+06 -1.07883e-09 1.88157e+07)
(6.18908e+07 -4.79697e+06 3.52987e-09 436781 1.75757e-11 1.85236e+07)
(5.52905e+07 -1.85788e+07 -1.8268e-09 4.76559e+06 -8.89987e-11 1.76538e+07)
(2.41039e+07 -6.09613e+06 -1.06615e-08 -1.47813e+07 -2.24039e-09 8.57524e+06)
(1.21195e+08 4.51495e+06 6.47136e-09 -3.83757e+06 3.64918e-09 3.06157e+07)
(5.49373e+07 -1.81227e+06 3.43308e-09 817153 7.23079e-10 1.60428e+07)
(5.47166e+07 -1.92331e+06 -1.22099e-09 87884.9 -1.38942e-10 1.77459e+07)
(7.35844e+07 -1.05516e+07 0 -1.76483e+07 0 1.86036e+07)
(5.27859e+07 -7.81238e+06 -3.50012e-09 9.02143e+06 -1.1429e-09 1.91969e+07)
(5.35442e+07 -1.28149e+07 1.66384e-09 7.60519e+06 2.88592e-10 1.74432e+07)
(5.3215e+07 -1.1926e+07 3.42412e-10 7.28933e+06 -5.7478e-10 1.86656e+07)
(2.65625e+07 -1.17452e+07 2.67288e-09 6.80368e+06 6.75768e-11 1.06757e+07)
(5.24047e+07 -2.2544e+06 -2.61681e-09 1.86187e+07 7.5369e-12 2.1415e+07)
(8.90606e+07 -5.71292e+06 4.05701e-09 -8.0307e+06 1.18388e-09 2.46371e+07)
(5.07083e+07 -1.09167e+07 3.41196e-09 9.94153e+06 -8.38207e-10 1.74222e+07)
(9.41792e+07 -263690 2.68788e-09 -8.76009e+06 4.11153e-09 2.90526e+07)
(3.75659e+07 -5.21315e+06 -2.30672e-09 1.20023e+07 4.07959e-10 1.64286e+07)
(5.15763e+07 -1.99018e+06 -1.12989e-09 1.75328e+07 -6.64483e-12 2.08273e+07)
(3.46025e+07 -1.98084e+07 -2.48492e-10 -1.72265e+07 -1.21784e-09 3.05126e+06)
(5.36781e+07 -3.32067e+06 -3.57573e-09 1.41202e+07 -7.64525e-10 1.93907e+07)
(4.4859e+07 -2.29528e+07 -4.39319e-09 1.00578e+07 5.90473e-09 1.17339e+07)
(7.63141e+07 -1.50176e+07 -3.54053e-09 1.69964e+06 -4.31781e-10 2.15293e+07)
(-5.80867e+06 1.57521e+07 5.45253e-10 -5.78976e+07 1.12263e-09 -2.24934e+07)
(4.55716e+07 -1.39651e+07 -2.58629e-09 8.05778e+06 -1.03031e-09 1.59421e+07)
(4.57127e+07 -1.38928e+07 -4.48608e-09 9.21061e+06 -1.85398e-10 1.67763e+07)
(5.9459e+07 -1.25268e+07 5.34697e-09 4.37685e+06 7.41191e-10 1.85174e+07)
(5.58702e+07 -2.38283e+07 -2.41588e-09 7.6901e+06 2.29204e-09 1.9142e+07)
(1.02022e+08 -7.42716e+06 -9.02485e-09 -2.60424e+06 -5.59144e-09 3.01873e+07)
(9.74389e+07 1.52937e+06 8.43179e-09 445694 4.9893e-10 2.73707e+07)
(1.15345e+08 55713.4 0 -496389 0 3.20609e+07)
(1.44857e+08 2.13042e+07 4.46187e-09 3.21756e+07 4.31243e-09 6.4927e+07)
(3.86487e+07 -1.84095e+07 1.29009e-09 -2.09429e+07 1.79098e-09 4.08055e+06)
(3.64974e+07 -1.71032e+07 3.83828e-09 -1.54411e+07 4.52242e-09 5.76983e+06)
(1.10529e+08 -5.61809e+06 1.87296e-09 -3.04593e+06 2.14514e-09 3.34011e+07)
(5.53139e+07 -1.97253e+07 9.48817e-10 2.92059e+06 5.58137e-10 1.72132e+07)
(5.22102e+07 -1.80734e+07 6.02931e-09 -1.27838e+07 2.53128e-09 1.26361e+07)
(4.50101e+07 -2.10665e+07 4.61338e-09 -1.31229e+07 -4.36796e-11 1.01669e+07)
(5.49302e+07 -9.46991e+06 -3.00973e-09 6.25988e+06 -2.06717e-10 1.8368e+07)
(5.52857e+07 -8.68589e+06 -1.76442e-09 5.59291e+06 5.30494e-10 1.83091e+07)
(5.61804e+07 -1.155e+07 6.63269e-10 5.11445e+06 8.20018e-10 1.88419e+07)
(5.53606e+07 -1.13216e+07 3.75361e-09 6.19068e+06 -6.41126e-10 1.81218e+07)
(5.06097e+07 -1.35669e+07 -7.31151e-09 8.27886e+06 -5.62635e-10 1.69085e+07)
(4.09609e+07 -3.0105e+06 1.02537e-09 1.34047e+07 8.30148e-11 1.68253e+07)
(-4.29709e+06 -4.59062e+06 0 -1.60131e+07 0 -8.94076e+06)
(7.10441e+07 -9.42038e+06 1.21348e-08 -1.73212e+07 8.50856e-09 1.79942e+07)
(4.4233e+07 -1.8675e+07 6.11745e-10 -1.08489e+07 2.5337e-10 9.60123e+06)
(4.48415e+07 -2.21092e+07 2.47104e-09 -5.17475e+06 2.19556e-09 1.2764e+07)
(1.17642e+08 2.47439e+06 8.99836e-09 -4.25902e+06 3.31499e-09 3.25196e+07)
(5.5332e+07 -1.71907e+07 2.46274e-09 4.07057e+06 -6.25938e-10 1.88421e+07)
(6.89432e+07 -1.57578e+07 -5.26227e-10 2.58687e+06 -8.88101e-10 2.04211e+07)
(7.21601e+07 -1.43653e+07 2.73708e-09 601720 -5.49765e-11 2.31215e+07)
(9.54742e+07 -1.40912e+07 4.88795e-09 -1.21205e+06 2.63446e-09 2.83853e+07)
(5.71428e+07 -7.30039e+06 -2.77385e-09 2.82108e+06 2.34863e-10 1.88262e+07)
(1.41426e+06 -604793 0 -1.72569e+07 0 -5.58877e+06)
(1.07239e+08 1.57285e+07 8.67824e-10 -5.05111e+06 1.09545e-08 3.33932e+07)
(4.77109e+07 -6.48102e+06 -4.34994e-09 1.29948e+07 -6.78132e-10 1.81329e+07)
(5.54427e+07 -4.5242e+06 7.49676e-10 2.55437e+06 -4.51677e-10 1.80338e+07)
(4.03145e+07 -1.38472e+07 -1.51704e-09 9.16653e+06 3.62151e-10 1.51043e+07)
(6.35056e+07 -1.73689e+07 0 2.19561e+06 0 2.09883e+07)
(6.25314e+07 -1.58459e+07 -9.45353e-10 3.8123e+06 5.75239e-10 1.85745e+07)
(1.87628e+07 -1.10958e+07 0 -1.59865e+06 0 4.50198e+06)
(4.15622e+07 -8.03575e+06 -1.28484e-09 1.17224e+07 1.82952e-10 1.55088e+07)
(6.6426e+07 -4.53578e+06 -5.02491e-09 434471 2.71701e-10 1.95155e+07)
(5.98342e+07 -1.03914e+07 -1.34869e-10 2.75868e+06 -9.20494e-10 1.92482e+07)
(6.12559e+07 -8.61851e+06 4.82465e-09 2.50893e+06 1.25331e-09 1.82251e+07)
(2.07179e+07 -1.75177e+06 1.24101e-08 -862749 -4.78286e-09 6.75154e+07)
(1.63213e+07 -5.0807e+06 8.16852e-10 4.10012e+06 2.39966e-10 6.68549e+06)
(1.03348e+07 -4.7613e+06 -9.34061e-10 -709526 -2.71279e-10 2.78835e+06)
(3.66521e+07 -3.00912e+06 5.01891e-09 1.39644e+07 -1.42785e-09 7.56628e+07)
(3.72181e+07 -8.79989e+06 1.04572e-08 -2.65271e+07 4.01586e-09 3.78682e+06)
(7.12049e+07 -1.22756e+07 -3.58371e-09 905348 7.034e-10 2.19886e+07)
(7.75939e+07 -7.75746e+06 2.62269e-10 1.94507e+06 -1.00702e-09 2.12433e+07)
(3.17427e+07 -5.50482e+06 2.06556e-09 1.21758e+07 -1.05343e-09 1.43847e+07)
(3.66099e+07 -8.33274e+06 1.65116e-09 1.16005e+07 -7.63595e-12 1.39683e+07)
(3.41548e+07 -8.37177e+06 1.31697e-09 -1.70117e+07 3.16094e-10 -566393)
(-462589 7.30466e+06 -5.91791e-10 -7.44058e+07 -3.47853e-09 -2.7398e+07)
(5.22973e+07 -7.49611e+06 6.12512e-10 1.07447e+07 1.11904e-11 1.95087e+07)
(6.47328e+07 -1.05955e+07 3.6024e-10 1.95634e+06 -1.03653e-09 1.97792e+07)
(-6.18499e+06 2.99196e+06 -9.05458e-10 -7.55058e+07 -4.12112e-09 -1.761e+07)
(4.48969e+07 -6.77329e+06 1.17233e-09 1.1647e+07 -2.57286e-10 1.7164e+07)
(9.43467e+07 -9.87312e+06 -3.44543e-09 -296069 -1.35521e-09 2.84365e+07)
(9.03216e+07 -1.21492e+07 5.77242e-09 -1.46823e+06 2.57614e-09 2.66862e+07)
(5.12874e+07 -1.09492e+07 3.44994e-09 8.9998e+06 1.28593e-09 1.86204e+07)
(4.05561e+07 -1.41648e+07 -2.75814e-14 1.05353e+07 6.24393e-10 1.35491e+07)
(4.71929e+07 -9.14927e+06 1.04902e-09 1.13635e+07 7.4197e-10 1.77622e+07)
(5.31744e+07 -1.86125e+07 -4.89682e-09 -1.68584e+07 -3.97024e-09 1.21255e+07)
(-9.18925e+06 -1.72813e+06 -4.08284e-09 -4.58222e+07 -3.0886e-09 -1.74117e+07)
(2.70998e+07 -1.4987e+07 -2.04893e-09 2.62635e+06 -4.15931e-11 7.70582e+06)
(5.89733e+07 -7.31995e+06 -5.62863e-09 2.70492e+06 -3.8395e-10 1.74191e+07)
(4.68503e+07 -8.25242e+06 -8.8436e-10 1.18458e+07 -2.62253e-10 1.76127e+07)
(6.00503e+07 -1.29589e+07 -6.81782e-09 -1.38272e+07 -7.28286e-09 1.31546e+07)
(6.00483e+07 -4.42894e+06 -3.89607e-09 699661 -3.70959e-09 1.71701e+07)
(7.8507e+07 -1.54923e+07 -6.08182e-09 -3.70635e+06 -2.97097e-09 2.32394e+07)
(4.53628e+06 -7.91016e+06 2.3381e-09 -2.87531e+07 1.5856e-09 -9.60346e+06)
(1.42777e+08 1.83824e+07 7.0192e-09 5.33592e+06 7.89232e-09 5.21057e+07)
(1.29364e+08 -665621 -5.50231e-09 -4.63996e+06 -5.6887e-09 3.60945e+07)
(7.0971e+07 -1.91081e+07 -8.77018e-09 -4.73344e+06 -4.8145e-09 1.86776e+07)
(251904 -9.89506e+06 -3.42352e-09 -2.62384e+07 -3.52306e-09 -7.89961e+06)
(5.25078e+07 -332411 -4.58226e-10 2.13992e+07 -5.7632e-11 2.20045e+07)
(5.40528e+07 -483736 2.62628e-09 479855 1.32704e-09 1.64435e+07)
(7.18006e+07 -8.85444e+06 -7.18259e-10 1.13643e+06 1.72538e-09 2.34526e+07)
(5.11696e+07 -1.71361e+07 -1.83352e-09 4.49417e+06 4.63494e-11 1.88295e+07)
(943496 1.13118e+07 5.7296e-09 -2.33185e+07 9.63895e-09 2.14681e+06)
(5.39554e+07 -3.08043e+06 0 4.926e+06 0 1.74183e+07)
(5.41305e+07 -2.0206e+06 -1.81587e-09 3.63044e+06 -1.54356e-09 1.74088e+07)
(5.26663e+07 -2.0157e+06 -1.54913e-09 1.79562e+07 -3.95922e-10 2.10376e+07)
(5.2988e+07 -3.6083e+06 0 1.53572e+07 0 2.10191e+07)
(5.35667e+07 -1.66974e+06 4.03969e-10 1.80356e+07 9.76518e-11 2.10033e+07)
(5.37039e+07 -2.00991e+06 -1.77173e-10 1.67206e+06 -3.34084e-10 1.76027e+07)
(1.58041e+08 -2.41968e+07 1.09894e-09 3.53372e+07 5.89979e-09 5.46741e+07)
(1.58132e+08 -8.90485e+06 5.78662e-09 3.22005e+07 -4.23379e-10 8.89131e+07)
(1.48134e+08 2.10135e+07 -8.44814e-09 1.14207e+07 -6.86726e-09 4.58037e+07)
(1.22381e+08 -2.58657e+06 8.37696e-09 2.41863e+07 3.98055e-09 4.45897e+07)
(5.40988e+07 -4.70328e+06 1.85808e-09 7.33853e+06 2.02864e-10 1.78151e+07)
(3.36915e+07 -3.382e+06 2.9519e-09 1.04402e+07 4.19739e-10 1.47272e+07)
(5.746e+07 -1.01107e+07 -1.37404e-10 4.05225e+06 -6.82273e-10 1.88035e+07)
(5.72942e+07 -8.95054e+06 -5.07868e-10 4.19137e+06 6.47147e-10 1.79945e+07)
(6.90389e+07 -7.55253e+06 6.09242e-09 642440 -2.91762e-09 2.04636e+07)
(5.31276e+07 -372800 -6.27973e-10 2.04266e+07 -2.34431e-10 2.23865e+07)
(5.3724e+07 -193813 1.47094e-09 1.38865e+06 7.98623e-10 1.62154e+07)
(7.6915e+07 -1.56673e+07 4.9019e-09 898190 1.32605e-09 2.45287e+07)
(3.11113e+07 -6.12371e+06 -6.31128e-10 1.2347e+07 1.10954e-10 1.0366e+07)
(3.81298e+07 -9.78507e+06 1.37562e-09 1.13119e+07 1.14485e-10 1.39022e+07)
(5.33779e+07 -1.60784e+06 1.13322e-09 2.00999e+07 1.55186e-10 2.09682e+07)
(5.36093e+07 -1.38079e+06 4.77118e-09 1.61105e+06 1.58545e-09 1.72569e+07)
(1.83204e+07 -481026 2.81392e-10 6.63881e+06 2.49624e-10 8.03124e+06)
(5.98234e+07 -1.82437e+07 -4.56342e-10 3.96153e+06 -7.34958e-10 1.83305e+07)
(1.14664e+08 2.11818e+06 -9.31946e-09 -1.0748e+07 -6.13784e-09 4.26161e+07)
(7.37953e+06 39759.3 3.21489e-10 -4.79349e+06 -7.4572e-11 -619539)
(6.59736e+06 4.60566e+06 1.72026e-09 -3.31138e+07 -9.29873e-09 -1.14892e+07)
(3.5248e+07 -1.08396e+07 1.6433e-09 9.83386e+06 4.52686e-11 1.16664e+07)
(5.31051e+07 -2.23549e+06 2.43631e-09 1.92073e+07 3.86336e-10 2.116e+07)
(5.39768e+07 -1.55026e+06 -9.38765e-10 1.2996e+06 -1.06601e-09 1.66838e+07)
(4.36091e+07 -485351 1.61469e-09 1.37345e+07 -2.1365e-10 1.74945e+07)
(3.66846e+07 -1.16747e+07 0 1.01418e+07 0 1.44842e+07)
(7.72909e+07 -4.95631e+06 -2.64811e-09 447023 -2.03026e-09 2.31162e+07)
(6.35971e+07 -920689 2.76531e-09 210517 4.92613e-10 1.91101e+07)
(5.79506e+06 1.35559e+06 3.03738e-09 -3.59794e+07 -1.66359e-09 -4.85717e+06)
(1.24381e+08 -863388 -3.51474e-09 -710572 -1.58766e-09 3.79071e+07)
(2.6777e+07 -1.32242e+07 0 -2.78279e+07 0 1.80112e+06)
(1.14643e+08 2.21275e+07 7.77109e-09 7.69236e+06 6.63247e-09 2.86747e+07)
(4.79036e+07 -1.22758e+07 7.32025e-09 -1.67242e+07 -1.74739e-09 5.32601e+06)
(5.53874e+07 -6.89518e+06 4.04708e-09 -1.79716e+07 6.99585e-09 1.5602e+07)
(6.62905e+07 -1.42536e+07 -4.84419e-09 3.28735e+06 -1.85684e-09 2.02393e+07)
(9.19812e+07 -1.46289e+07 -4.31914e-10 -3.14054e+06 1.59136e-10 2.79471e+07)
(5.43166e+07 -7.98476e+06 -8.70339e-10 8.52183e+06 -5.51678e-10 1.75909e+07)
(5.66925e+07 -1.58886e+07 2.75151e-09 5.60725e+06 -3.6339e-10 1.7495e+07)
(7.76687e+07 -1.6471e+07 1.44756e-09 -188211 9.08639e-11 2.22683e+07)
(4.23262e+07 -1.70526e+07 4.71471e-09 6.38388e+06 9.47223e-10 1.55597e+07)
(6.96862e+07 -1.82436e+07 1.90056e-09 477455 3.22468e-10 2.15296e+07)
(5.05665e+07 -3.26918e+06 -1.08056e-09 1.50079e+07 -2.08419e-10 1.91932e+07)
(5.11184e+07 -3.67531e+06 3.4568e-09 1.58531e+07 2.23299e-10 2.05392e+07)
(7.75906e+07 -8.08769e+06 -9.43691e-09 2.14464e+06 1.64803e-10 2.48566e+07)
(1.15809e+08 1.65039e+07 1.07472e-09 -471283 2.23023e-09 2.64561e+07)
(4.9346e+07 -9.87776e+06 -5.5969e-09 1.03636e+07 -5.30392e-10 1.83661e+07)
(1.18747e+07 -1.55494e+07 -2.30311e-09 -6.3306e+06 -9.25962e-10 3.29601e+06)
(3.42847e+07 -5.06342e+06 4.74986e-09 -3.32443e+07 -9.47535e-09 2.15553e+06)
(1.70115e+07 -1.17326e+07 -4.88172e-09 -2.86665e+07 2.29112e-09 -6.80273e+06)
(1.56332e+07 -1.18045e+07 -2.16473e-09 -5.16939e+06 -1.51652e-10 1.69782e+06)
(1.00948e+08 -5.31338e+06 1.01372e-08 554506 2.77529e-09 2.75651e+07)
(8.09535e+07 -1.55158e+07 -1.65358e-09 -841349 1.53773e-10 2.57147e+07)
(4.82991e+07 -1.13702e+07 4.70003e-09 1.01536e+07 5.33027e-10 1.7056e+07)
(4.98823e+07 -8.2824e+06 3.37963e-09 1.19616e+07 4.21898e-10 1.8092e+07)
(5.8907e+07 -885071 3.28044e-09 750353 1.44784e-09 1.76207e+07)
(8.23786e+07 -1.60054e+07 -1.64042e-09 -2.27234e+06 -7.13186e-10 2.27711e+07)
(4.66237e+07 -466488 -1.4943e-09 1.4408e+07 -1.31283e-10 1.85454e+07)
(5.37816e+07 -7.42461e+06 -3.33541e-09 6.96081e+06 -6.45098e-11 1.93742e+07)
(5.04324e+06 3.85462e+06 -2.24716e-09 -3.02968e+06 7.97052e-09 -1.12781e+07)
(5.31841e+07 -3.66848e+06 1.76533e-09 6.27133e+06 2.09898e-10 1.87758e+07)
(5.34351e+07 -2.53537e+06 -2.36155e-09 7.21218e+06 -7.67297e-10 1.81444e+07)
(1.24141e+08 4.84595e+06 -1.28191e-08 -1.64745e+07 -6.4514e-09 4.2481e+07)
(4.44796e+07 -2.06011e+07 -2.0333e-09 -2.77808e+06 -1.29678e-09 1.18534e+07)
(5.54851e+07 -7.50273e+06 -6.80592e-11 4.91088e+06 7.15023e-10 1.8386e+07)
(5.37055e+07 -9.59305e+06 -2.75307e-09 7.52474e+06 -1.26845e-09 1.86324e+07)
(2.20113e+07 -1.61227e+07 -3.80754e-09 -1.60589e+07 -3.79213e-09 1.88336e+06)
(2.09086e+07 -1.75481e+07 3.84358e-09 -7.63934e+06 5.59128e-10 3.63937e+06)
(9.15077e+07 -7.98686e+06 7.98027e-10 -1.20014e+07 -1.16979e-10 2.20626e+07)
(6.68038e+07 -5.12839e+06 -3.80293e-11 -1.97811e+07 -7.40161e-09 1.5848e+07)
(3.72338e+07 -9.48906e+06 -2.4837e-09 -1.31945e+07 -1.54539e-09 5.41947e+07)
(5.1026e+07 -1.33337e+07 -3.63522e-09 8.04635e+06 2.78346e-10 1.82245e+07)
(2.09763e+07 -7.70924e+06 -6.04988e-09 -2.58804e+07 -3.72457e-09 -3.85098e+06)
(9.98529e+07 -8.23298e+06 1.85564e-09 -8.92103e+06 4.45504e-09 2.97101e+07)
(3.20992e+07 -1.18806e+07 6.14961e-09 -2.78826e+07 -2.92198e-09 2.44868e+06)
(1.12204e+06 -9.54858e+06 -1.81341e-09 -1.54239e+07 5.91004e-10 -2.7503e+06)
(1.02752e+08 -7.08263e+06 -1.06065e-08 -2.16939e+06 -4.18984e-09 2.93109e+07)
(4.13929e+07 -1.25434e+07 -5.64898e-09 1.05825e+07 -5.71028e-10 1.55856e+07)
(8.99748e+07 -884652 -9.57943e-10 650312 -9.12504e-10 2.58856e+07)
(4.20171e+07 -1.13019e+07 3.7332e-09 1.07502e+07 4.97439e-10 1.56511e+07)
(4.77557e+07 -1.28799e+07 -2.27147e-09 9.68878e+06 -9.08363e-10 1.70695e+07)
(4.95222e+07 -7.49505e+06 -7.64002e-10 1.23646e+07 1.20869e-10 1.87349e+07)
(8.85039e+07 -1.09491e+07 0 505346 0 2.69105e+07)
(4.20998e+07 -1.97329e+06 2.10465e-09 1.32419e+07 4.47182e-10 1.67145e+07)
(6.58504e+07 -2.80747e+06 -5.46642e-09 352650 -4.0305e-10 1.99136e+07)
(3.21626e+07 -2.03873e+07 4.09799e-09 -8.69049e+06 1.00291e-09 7.93668e+06)
(2.98587e+07 -2.06225e+07 -2.87767e-09 -8.57226e+06 -5.74298e-10 7.18634e+06)
(5.74452e+06 -2.87841e+06 4.14955e-09 -3.87174e+07 -2.06757e-09 -1.2277e+07)
(4.04577e+07 -1.689e+07 -1.40869e-09 7.03008e+06 -2.16253e-11 1.44716e+07)
(1.91483e+06 -4.87636e+06 1.04892e-10 -4.08611e+07 -1.84004e-10 -1.35058e+07)
(5.7532e+07 -2.01191e+07 -1.02212e-08 -2.3e+06 -3.11126e-09 1.40879e+07)
(6.01308e+07 -2.16018e+07 -3.42556e-09 -1.7815e+06 -1.19077e-09 1.81173e+07)
(1.18466e+07 -1.44804e+07 6.00419e-10 -2.31277e+07 1.30647e-09 -5.84558e+06)
(4.86155e+07 -1.99861e+07 -2.53663e-09 1.07601e+06 -8.39191e-10 1.5912e+07)
(2.83825e+07 -3.65422e+06 3.73624e-10 1.19208e+07 -3.83691e-11 1.13529e+07)
(4.66953e+07 -1.08809e+07 4.58993e-09 1.07696e+07 1.14975e-10 1.72238e+07)
(1.24913e+08 710161 -1.64651e-08 473573 -4.08344e-09 3.61635e+07)
(5.67091e+07 -6.46734e+06 7.73042e-10 3.69032e+06 -4.70441e-10 1.72819e+07)
(4.10958e+07 -8.51486e+06 -1.73632e-09 1.23405e+07 -1.94546e-10 1.56213e+07)
(1.39864e+08 -4.36012e+06 3.59229e-09 2.49543e+07 6.67163e-11 9.1379e+07)
(9.714e+07 -466264 -4.82981e-09 -241270 -6.42461e-10 2.94167e+07)
(-9.49458e+06 -3.07948e+06 1.11514e-09 -2.9284e+07 1.51019e-09 -9.74827e+06)
(5.29427e+07 -1.07486e+07 4.04611e-09 8.58758e+06 1.035e-09 1.77797e+07)
(8.54377e+07 -4.38295e+06 3.28081e-10 575262 -1.2318e-09 2.64699e+07)
(1.24193e+08 4.89059e+06 -7.46226e-09 -4.2274e+06 -4.89722e-09 3.52531e+07)
(4.98774e+07 -1.17152e+07 8.38917e-09 8.85395e+06 1.05806e-10 1.83889e+07)
(5.27171e+07 -843597 -6.76739e-10 2.1486e+07 -1.00059e-10 2.24616e+07)
(5.37138e+07 -385686 1.28854e-09 390567 -3.61182e-10 1.62816e+07)
(3.08003e+07 -241760 1.55274e-10 1.15982e+07 7.06757e-11 1.26427e+07)
(4.18019e+07 -1.92569e+07 7.80679e-09 1.2425e+06 1.97748e-09 1.28591e+07)
(7.93852e+07 -1.38551e+07 -4.19549e-09 1.42016e+06 -4.33546e-10 2.3782e+07)
(8.12607e+07 -718592 -5.63827e-11 -459166 -8.01212e-10 2.47219e+07)
(1.11712e+08 1.43038e+06 8.81557e-11 -4.26713e+06 2.3588e-09 3.63035e+07)
(-3.98331e+06 -7.09575e+06 0 -3.4203e+07 0 -8.23441e+06)
(1.04623e+08 1.43568e+07 -1.23497e-08 -2.15333e+06 -1.45333e-08 3.29065e+07)
(5.39364e+07 -1.69209e+07 2.60466e-09 6.6782e+06 -6.18124e-10 1.66646e+07)
(5.29644e+07 -1.46006e+06 5.18354e-10 2.06963e+07 -5.41717e-12 2.16366e+07)
(3.00128e+06 -6.31736e+06 8.77229e-10 -9.08245e+06 5.76303e-10 -339216)
(5.25592e+07 -29892.9 4.73669e-10 2.06004e+07 1.21339e-10 2.16698e+07)
(5.35159e+07 -305619 1.39771e-09 1.59162e+07 1.23803e-09 2.06263e+07)
(5.34726e+07 -231531 -1.05426e-09 5.36824e+06 -1.01268e-09 1.79188e+07)
(6.30775e+07 -1.57319e+07 2.68362e-09 2.12429e+06 5.38391e-10 2.09657e+07)
(3.31024e+07 -1.85537e+07 0 719058 0 1.58299e+07)
(5.39206e+07 -531554 6.64718e-10 -30225.9 7.93601e-10 1.64815e+07)
(4.06075e+07 -1.03563e+07 2.69624e-09 1.08708e+07 7.05546e-10 1.55388e+07)
(1.21639e+08 4.27182e+06 -1.03036e-08 -2.69783e+06 -7.05494e-09 3.06751e+07)
(5.71128e+06 -8.64585e+06 -9.02457e-10 -1.71829e+07 -4.94268e-10 -3.46579e+06)
(5.41377e+07 -367975 0 154128 0 1.6426e+07)
(3.51928e+07 -1.44394e+07 1.65115e-09 8.9263e+06 -6.25728e-10 1.31279e+07)
(4.56695e+07 -2.11443e+07 -1.38832e-11 2.52858e+06 3.58806e-12 1.41419e+07)
(9.84392e+07 2.8425e+07 -9.34052e-09 5.65664e+06 -1.24521e-08 3.34596e+07)
(5.18246e+07 -3.59709e+06 1.52496e-09 1.58717e+07 2.17229e-10 1.94477e+07)
(-2.14104e+06 1.23146e+07 -8.07958e-09 -5.75003e+07 -1.02409e-08 -1.03554e+07)
(-8.069e+06 1.64397e+07 3.03886e-09 -3.66896e+07 -1.63193e-08 -1.27156e+07)
(-3.37772e+06 990383 0 -4.33129e+07 0 -1.60204e+07)
(5.52807e+07 -5.50273e+06 1.39618e-09 5.01648e+06 -1.32591e-10 1.74074e+07)
(9.19478e+07 -4.42888e+07 1.14417e-08 8.78771e+06 8.55457e-10 6.08023e+07)
(4.01218e+06 -2.189e+06 -6.72075e-10 -4.67942e+07 1.09869e-10 -1.10368e+07)
(4.95775e+07 -2.20023e+07 2.21321e-09 -2.52032e+06 4.32606e-10 1.54934e+07)
(9.06545e+07 -1.18637e+07 3.80492e-09 -1.19272e+07 -4.51196e-09 3.07903e+07)
(7.88688e+07 2.80603e+06 3.6494e-09 37050 -3.75727e-09 2.55901e+07)
(5.23448e+07 -5.54751e+06 -7.41699e-10 1.34723e+07 -2.01079e-10 1.97965e+07)
(5.09576e+07 -9.55805e+06 -1.43139e-09 1.00589e+07 1.37281e-10 1.88615e+07)
(3.69167e+07 -1.90403e+07 3.19526e-09 2.88944e+07 -1.12964e-09 4.58496e+07)
(1.18232e+08 1.93084e+07 7.88736e-09 -6.81245e+06 5.8348e-09 3.20885e+07)
(1.16779e+08 3.2504e+07 2.13919e-09 -783726 7.48349e-10 3.36043e+07)
(8.42823e+07 -3.65938e+06 5.73656e-09 -627281 -1.6938e-09 2.46176e+07)
(4.45021e+07 -9.90542e+06 2.31871e-09 1.10914e+07 1.53725e-10 1.66981e+07)
(6.90093e+07 -7.76929e+06 -1.20577e-08 -1.34631e+07 -1.06499e-08 1.15438e+07)
(4.56531e+07 -2.30538e+06 1.13671e-09 1.41605e+07 1.22234e-10 1.72329e+07)
(6.14268e+07 -2.43076e+06 3.73826e-09 112492 -2.02035e-10 1.86315e+07)
(1.05849e+08 -7.45488e+06 7.44495e-09 -2.2025e+07 2.66716e-09 3.53087e+07)
(5.50834e+07 -6.86784e+06 -3.77981e-11 4.26587e+06 7.20321e-10 1.85819e+07)
(4.37505e+07 -9.73791e+06 1.4982e-09 1.12576e+07 4.38999e-10 1.66043e+07)