/*--------------------------------*- C++ -*----------------------------------*\
| =========                 |                                                 |
| \\      /  F ield         | OpenFOAM: The Open Source CFD Toolbox           |
|  \\    /   O peration     | Version:  v2012                                 |
|   \\  /    A nd           | Website:  www.openfoam.com                      |
|    \\/     M anipulation  |                                                 |
\*---------------------------------------------------------------------------*/
FoamFile
{
    version     2.0;
    format      ascii;
    class       volScalarField;
    location    "16";
    object      sigmaHyd;
}
// * * * * * * * * * * * * * * * * * * * * * * * * * * * * * * * * * * * * * //

dimensions      [1 -1 -2 0 0 0 0];


internalField   nonuniform List<scalar> 
470
(
1.05046e+07
1.34996e+07
2.8073e+07
2.78935e+07
1.37954e+07
2.49577e+07
2.36349e+07
1.09711e+07
3.84002e+07
2.78271e+07
3.53399e+07
4.4409e+07
4.48998e+07
2.64379e+07
5.12539e+07
3.42633e+07
2.77608e+07
2.45832e+07
2.2084e+07
1.26162e+07
3.53657e+07
2.74839e+07
2.79062e+07
2.67697e+07
2.78813e+07
2.28019e+07
2.52303e+07
3.09331e+07
2.53615e+07
2.70315e+07
1.39432e+07
5.14762e+07
2.85336e+07
2.4047e+07
2.54056e+07
2.48465e+07
5.3566e+07
1.56415e+07
1.72486e+07
9.69667e+06
2.19635e+07
2.0866e+07
4.43346e+07
2.15966e+07
3.24218e+07
4.54442e+07
1.75523e+07
2.72507e+07
2.55637e+07
3.18112e+07
5.51057e+07
1.88397e+07
2.41218e+07
2.25358e+07
2.83573e+07
2.77545e+07
3.14675e+07
2.82424e+07
2.5992e+07
2.99819e+07
2.48231e+07
3.27626e+07
4.39765e+07
3.57153e+07
3.38021e+06
7.12642e+07
1.5011e+07
2.69279e+07
-3.09769e+06
3.10911e+07
6.39432e+06
2.68351e+07
2.95204e+07
2.37575e+07
3.45635e+07
2.86179e+07
2.69199e+07
2.64169e+07
2.43091e+07
9.54372e+07
2.37236e+07
5.69377e+07
2.88298e+07
-6.08382e+06
3.5412e+07
2.77552e+07
3.81718e+07
7.23849e+06
4.41051e+07
2.7538e+07
3.72775e+07
4.93867e+07
2.43429e+07
2.62004e+07
4.84243e+07
5.21174e+07
1.8313e+07
2.52396e+07
1.65536e+07
2.65091e+07
2.73982e+07
3.12549e+07
2.90694e+07
2.94257e+07
2.98297e+07
2.49639e+07
2.54207e+07
1.70021e+07
-3.01978e+07
4.26688e+07
4.50419e+07
4.43787e+07
2.92175e+07
2.44642e+07
2.40438e+06
2.72055e+07
2.86258e+07
4.43915e+07
2.06513e+07
1.54403e+07
2.17173e+07
2.80621e+07
2.55826e+07
3.13481e+07
2.44461e+07
2.90736e+07
2.86143e+07
2.73806e+07
4.57191e+07
2.75513e+07
1.20765e+07
1.43209e+07
2.31843e+07
2.69014e+07
2.70008e+07
2.69504e+07
2.59033e+07
5.96592e+06
4.93243e+07
2.39324e+07
2.41835e+07
2.48466e+07
2.70014e+07
2.61975e+07
2.639e+07
1.46806e+07
3.08128e+07
3.52223e+07
2.6024e+07
3.81572e+07
2.19989e+07
2.99788e+07
6.80905e+06
2.9063e+07
2.22169e+07
3.3181e+07
-2.87332e+07
2.31905e+07
2.38999e+07
2.74511e+07
2.75674e+07
4.32015e+07
4.17518e+07
4.897e+07
8.06533e+07
7.2621e+06
8.94206e+06
4.69613e+07
2.51492e+07
1.73542e+07
1.4018e+07
2.65194e+07
2.63959e+07
2.67123e+07
2.65577e+07
2.52657e+07
2.37303e+07
-9.7503e+06
2.39057e+07
1.43285e+07
1.74769e+07
4.86342e+07
2.60816e+07
3.06504e+07
3.19611e+07
4.08825e+07
2.62634e+07
-7.1438e+06
4.51937e+07
2.62795e+07
2.53436e+07
2.15284e+07
2.88965e+07
2.8306e+07
7.22204e+06
2.29312e+07
2.8792e+07
2.72804e+07
2.733e+07
2.91235e+07
9.03565e+06
4.13789e+06
4.20931e+07
4.82594e+06
3.13663e+07
3.35941e+07
1.94344e+07
2.07263e+07
5.52557e+06
-3.40888e+07
2.75169e+07
2.88228e+07
-3.31003e+07
2.45693e+07
4.0829e+07
3.85132e+07
2.63025e+07
2.15469e+07
2.54395e+07
1.61472e+07
-2.4141e+07
1.24773e+07
2.63658e+07
2.54363e+07
1.97926e+07
2.59727e+07
3.268e+07
-1.12734e+07
6.67396e+07
5.36063e+07
2.8305e+07
-1.12954e+07
3.19705e+07
2.36587e+07
3.21299e+07
2.48311e+07
-6.74275e+06
2.54332e+07
2.50566e+07
3.05534e+07
2.97881e+07
3.08685e+07
2.43262e+07
8.2684e+07
9.30819e+07
6.84527e+07
6.37191e+07
2.64175e+07
1.96196e+07
2.67719e+07
2.64934e+07
3.00483e+07
3.19802e+07
2.3776e+07
3.41139e+07
1.79414e+07
2.11146e+07
3.1482e+07
2.41591e+07
1.09968e+07
2.73718e+07
4.8844e+07
655502
-1.26685e+07
1.89161e+07
3.11574e+07
2.39867e+07
2.4946e+07
2.04369e+07
3.3618e+07
2.76393e+07
-1.16805e+07
5.38591e+07
250075
5.03366e+07
1.21685e+07
1.76726e+07
2.99391e+07
3.89293e+07
2.68098e+07
2.65982e+07
3.32496e+07
2.14233e+07
3.05644e+07
2.82559e+07
2.91702e+07
3.4864e+07
4.72645e+07
2.60252e+07
2.94669e+06
1.06529e+06
-6.15258e+06
4.05387e+06
4.30224e+07
3.52756e+07
2.51696e+07
2.66453e+07
2.57594e+07
3.42924e+07
2.65257e+07
2.67055e+07
-3.0882e+06
2.60771e+07
2.62639e+07
5.00491e+07
1.78516e+07
2.62607e+07
2.66209e+07
2.61191e+06
5.63622e+06
3.38563e+07
2.09569e+07
2.6078e+07
2.57656e+07
-2.91836e+06
4.0214e+07
2.22178e+06
-5.68407e+06
4.32977e+07
2.25204e+07
3.88369e+07
2.28061e+07
2.4838e+07
2.68739e+07
3.86399e+07
2.40187e+07
2.87055e+07
1.04696e+07
9.49094e+06
-1.50833e+07
2.06531e+07
-1.7484e+07
2.31066e+07
2.54889e+07
-5.7089e+06
2.18678e+07
1.72187e+07
2.48962e+07
5.38499e+07
2.58938e+07
2.30192e+07
8.53991e+07
4.21051e+07
-1.61756e+07
2.64367e+07
3.74943e+07
5.17394e+07
2.57067e+07
3.22216e+07
2.3462e+07
1.83471e+07
1.86345e+07
3.48625e+07
3.51745e+07
4.79163e+07
-1.54736e+07
4.51253e+07
2.57597e+07
3.17658e+07
-2.14013e+06
3.16098e+07
3.00195e+07
2.55866e+07
2.87225e+07
1.65505e+07
2.34573e+07
2.2339e+07
4.98722e+07
-4.97913e+06
2.35726e+07
1.90823e+07
2.078e+07
4.58518e+07
2.9048e+07
-2.33322e+07
-1.91581e+07
-2.09037e+07
2.59015e+07
5.38459e+07
-1.79396e+07
2.08502e+07
3.65059e+07
3.4832e+07
2.85378e+07
2.6626e+07
3.72203e+07
4.78361e+07
4.98666e+07
3.60909e+07
2.40972e+07
2.23633e+07
2.56822e+07
2.67236e+07
3.97108e+07
2.59771e+07
2.38708e+07
3.08654e+07
2.36873e+07
4.6428e+07
3.08511e+07
4.45976e+07
6.83762e+07
2.77319e+07
-1.37911e+06
3.04248e+07
5.51989e+07
2.94234e+07
2.67208e+07
3.24934e+07
3.26073e+07
2.32705e+07
2.32874e+07
2.31441e+07
2.98853e+07
3.46714e+07
1.37509e+07
2.81559e+07
-1.42094e+06
4.77594e+07
2.20927e+06
2.05536e+07
4.73895e+06
2.94609e+07
2.79566e+07
2.83146e+07
7.24163e+07
5.69357e+07
1.14424e+07
3.5964e+07
3.99223e+07
4.03016e+07
1.93899e+07
2.98465e+07
3.16598e+07
-2.25116e+07
-2.60985e+07
2.97748e+07
2.40422e+07
2.62527e+07
2.67692e+07
1.53842e+07
4.51983e+07
2.76206e+07
1.21706e+07
3.72118e+07
1.59326e+07
1.08941e+07
2.59659e+07
-1.102e+06
2.64283e+07
2.97884e+07
4.03766e+07
3.85227e+07
2.65759e+07
2.67268e+07
5.89378e+06
2.85393e+07
4.01162e+07
8.85991e+06
9.35478e+06
2.70591e+07
1.84076e+07
7.26985e+06
3.8527e+07
3.65388e+07
3.66759e+07
2.40922e+07
2.36415e+07
2.75018e+07
3.08953e+07
)
;

boundaryField
{
    back
    {
        type            empty;
    }
    front
    {
        type            empty;
    }
    down
    {
        type            symmetry;
    }
    right
    {
        type            zeroGradient;
    }
    up
    {
        type            zeroGradient;
    }
    left
    {
        type            symmetry;
    }
    hole
    {
        type            zeroGradient;
    }
}


// ************************************************************************* //
