/*--------------------------------*- C++ -*----------------------------------*\
| =========                 |                                                 |
| \\      /  F ield         | OpenFOAM: The Open Source CFD Toolbox           |
|  \\    /   O peration     | Version:  v2012                                 |
|   \\  /    A nd           | Website:  www.openfoam.com                      |
|    \\/     M anipulation  |                                                 |
\*---------------------------------------------------------------------------*/
FoamFile
{
    version     2.0;
    format      ascii;
    class       volScalarField;
    location    "4";
    object      epsilonEq;
}
// * * * * * * * * * * * * * * * * * * * * * * * * * * * * * * * * * * * * * //

dimensions      [0 0 0 0 0 0 0];


internalField   nonuniform List<scalar> 
2000
(
0.0025364
0.00220937
0.00213648
0.00189043
0.00183691
0.00164861
0.00161106
0.00146381
0.00143879
0.00132117
0.00130567
0.00120974
0.00120142
0.00112145
0.00111858
0.0010502
0.0010516
0.000991292
0.000996237
0.000940843
0.00241549
0.00212359
0.00205431
0.00182109
0.00178609
0.00159632
0.00158341
0.00142695
0.00142827
0.00129761
0.00130796
0.00119736
0.0012133
0.00111824
0.00113752
0.00105445
0.00107555
0.0010017
0.00102345
0.000957039
0.00229453
0.00200793
0.00196261
0.00172975
0.00172137
0.00152843
0.00154302
0.00138085
0.00140894
0.001271
0.0013063
0.00118767
0.00122611
0.00112291
0.00116195
0.00107111
0.00110926
0.00102826
0.0010648
0.000991404
0.00212528
0.00185341
0.00183739
0.00161184
0.00163349
0.00144353
0.00148697
0.00132516
0.00137957
0.00124042
0.00129882
0.00117811
0.00123622
0.00113061
0.00118597
0.00109277
0.0011441
0.0010611
0.0011078
0.00103324
0.00191422
0.00166605
0.00167989
0.00147046
0.00152173
0.00134286
0.00141337
0.00125923
0.00133698
0.00120314
0.00128083
0.00116378
0.00123738
0.00113434
0.00120181
0.00111058
0.00117103
0.00108992
0.00114304
0.00107076
0.00167209
0.00145483
0.00149701
0.00131163
0.00138977
0.00122969
0.00132318
0.00118368
0.0012798
0.00115728
0.00124908
0.00114071
0.00122486
0.00112848
0.00120367
0.00111766
0.00118361
0.00110681
0.00116364
0.0010953
0.00141006
0.00122907
0.0012971
0.00114231
0.00124321
0.00110837
0.00121937
0.00110026
0.00120877
0.00110242
0.00120259
0.0011069
0.00119653
0.00110999
0.00118873
0.00111029
0.00117859
0.0011076
0.00116609
0.00110235
0.00113857
0.000997682
0.00108873
0.000969592
0.00108838
0.000983587
0.00110594
0.0010113
0.00112603
0.00103929
0.00114227
0.00106217
0.00115258
0.00107831
0.00115678
0.00108777
0.00115552
0.00109144
0.00114982
0.00109088
0.000866969
0.000769116
0.000880201
0.000800541
0.000931593
0.000859833
0.000987069
0.000919135
0.00103423
0.000968933
0.00106995
0.00100715
0.00109452
0.00103428
0.00110932
0.00105145
0.00111606
0.00105992
0.00111673
0.00106184
0.000603857
0.000552099
0.000679905
0.000642565
0.000778942
0.00074141
0.000866461
0.000825549
0.000935376
0.000891485
0.000986586
0.000940981
0.00102287
0.000976774
0.00104709
0.00100105
0.00106182
0.00101402
0.00107004
0.0010102
0.000358218
0.000358353
0.000498467
0.000505864
0.000637462
0.000634006
0.000747383
0.000732775
0.000828964
0.000805595
0.000886824
0.000857244
0.000925231
0.000891938
0.000947053
0.000913325
0.000952693
0.000925647
0.000936663
0.000938488
0.000148211
0.000219171
0.000358174
0.000408646
0.000523543
0.000551478
0.00064631
0.000657327
0.000735878
0.000734889
0.000799944
0.000791014
0.000844523
0.000831204
0.000874651
0.000860188
0.000895964
0.000882292
0.000919642
0.000900117
0.0001338
0.000210422
0.000290294
0.000364613
0.000445519
0.000495365
0.000564991
0.00059567
0.00065435
0.000670999
0.000720447
0.000727087
0.000769195
0.000768752
0.000805685
0.000799809
0.000834235
0.00082294
0.000856279
0.00083964
0.000301882
0.000313553
0.000315163
0.000375681
0.000410036
0.000466039
0.00050504
0.000546699
0.000583242
0.00061148
0.000644418
0.000661657
0.000691507
0.000699847
0.000727584
0.000728495
0.000754956
0.000749513
0.000775318
0.000764363
0.000466713
0.000437388
0.000395878
0.000422793
0.000414359
0.000459567
0.000466691
0.000509137
0.000522119
0.000555561
0.000570587
0.000594317
0.000610133
0.000624995
0.00064129
0.000648435
0.000665203
0.000665736
0.000683033
0.000677941
0.000611605
0.000551529
0.000489825
0.000482626
0.000445243
0.00046829
0.000448135
0.000481163
0.000471691
0.00050334
0.000500361
0.000526097
0.000527368
0.00054601
0.000550352
0.000562095
0.000568833
0.000574357
0.000583058
0.000583143
0.000731959
0.000646763
0.000577015
0.000539834
0.00048732
0.000483617
0.000445189
0.00046022
0.000432954
0.00045507
0.000436438
0.000458456
0.000446518
0.000464957
0.000458274
0.000471889
0.00046936
0.000478028
0.000478777
0.000482811
0.000824608
0.000719157
0.000649081
0.000585988
0.000529128
0.000497184
0.00045139
0.000442254
0.000405699
0.000410399
0.000382041
0.000393134
0.000372083
0.00038458
0.000369881
0.000381037
0.000371632
0.000380308
0.000375008
0.000380985
0.000887916
0.000768335
0.00070264
0.000609444
0.000559593
0.00049856
0.000457846
0.000421607
0.000387768
0.000368933
0.000341187
0.000333573
0.000311699
0.000310478
0.000294327
0.000296112
0.000285292
0.000288151
0.000281676
0.000285235
0.000931596
0.000746068
0.000714312
0.000593045
0.000565621
0.000480637
0.000457917
0.000397046
0.000378809
0.000334976
0.000320939
0.000289293
0.000279355
0.00025627
0.000250548
0.000233245
0.000232012
0.000218527
0.000222095
0.00021161
0.000234794
0.000191419
0.000286366
0.000243642
0.000382168
0.000326535
0.000489689
0.000418838
0.00059757
0.000511994
0.000700644
0.000602188
0.000795643
0.000687259
0.000879772
0.000765679
0.000949988
0.000836307
0.00100181
0.000898637
0.000211282
0.000193461
0.000268373
0.000246288
0.00035917
0.000324319
0.000460633
0.000410328
0.000562904
0.000496626
0.000661288
0.000579545
0.000752852
0.000656973
0.000835183
0.000727378
0.00090573
0.000789313
0.000960903
0.000840928
0.000212185
0.000206997
0.00026245
0.000254179
0.000342438
0.00032362
0.000433813
0.000401219
0.00052744
0.000479794
0.000618762
0.00055568
0.000705029
0.000626759
0.000784146
0.00069158
0.000854049
0.00074886
0.000912053
0.000797048
0.000225612
0.000226654
0.000266052
0.00026637
0.000333372
0.000326079
0.000413034
0.00039449
0.000496599
0.000464983
0.000579542
0.000533884
0.000659176
0.00059904
0.000733612
0.000659036
0.000801168
0.000712748
0.000859861
0.000758968
0.000245319
0.000249396
0.0002766
0.000281897
0.000331639
0.000332135
0.000399445
0.000391401
0.000472559
0.000453824
0.000546584
0.000515839
0.000618864
0.00057527
0.000687625
0.000630719
0.000751459
0.000681173
0.000808901
0.000725694
0.000267916
0.000273444
0.000291803
0.000299739
0.000336052
0.000341472
0.000392767
0.000392151
0.000455722
0.000446811
0.000520834
0.000502137
0.00058552
0.000555996
0.000648084
0.000607008
0.000707297
0.000654236
0.000762053
0.000696932
0.000291562
0.000297731
0.000309824
0.000318956
0.000345135
0.000353402
0.00039202
0.000396352
0.000445549
0.000443771
0.000502125
0.000492716
0.000559322
0.000541172
0.000615524
0.000587805
0.000669619
0.000631731
0.000720738
0.00067233
0.000315227
0.000321578
0.000329302
0.000338753
0.000357452
0.000367128
0.000395948
0.000403321
0.000441039
0.00044416
0.000489704
0.000487129
0.000539755
0.000530401
0.000589684
0.000572718
0.000638466
0.000613244
0.000685378
0.000651436
0.000338282
0.000344519
0.000349255
0.00035848
0.000371764
0.000381867
0.00040328
0.000412271
0.000441019
0.000447248
0.00048254
0.00048472
0.000525946
0.000523082
0.000569867
0.00056118
0.000613359
0.000598233
0.000655789
0.000633744
0.0003603
0.000366192
0.00036896
0.000377596
0.000387051
0.000396909
0.000412846
0.00042241
0.000444304
0.000452245
0.000479505
0.000484733
0.000516858
0.000518506
0.000555155
0.000552534
0.000593536
0.000586093
0.000631426
0.000618721
0.000380937
0.000386281
0.000387858
0.000395637
0.000402485
0.000411617
0.000423623
0.00043299
0.000449783
0.000458358
0.000479479
0.000486383
0.000511411
0.000515922
0.000544541
0.000546074
0.000578098
0.000576184
0.000611554
0.000605813
0.000399879
0.000404473
0.000405478
0.000412173
0.000417374
0.000425416
0.000434727
0.000443319
0.00045645
0.000464829
0.000481405
0.000488894
0.000508547
0.000514573
0.000537002
0.00054109
0.000566093
0.000567857
0.000595334
0.00059446
0.000416804
0.000420439
0.000421388
0.000426783
0.000431113
0.000437765
0.000445383
0.000452748
0.000463403
0.000470943
0.000484306
0.000491525
0.000507262
0.000513725
0.000531547
0.000536882
0.000556573
0.000560472
0.000581899
0.000584108
0.000431361
0.000433805
0.000435155
0.000439028
0.000443137
0.000448127
0.000454886
0.000460653
0.000469822
0.000476015
0.000487287
0.000493567
0.000506626
0.00051268
0.000527243
0.000532789
0.000548632
0.000553428
0.000570397
0.000574237
0.000443144
0.000444134
0.000446311
0.00044841
0.000452875
0.000455932
0.000462554
0.000466399
0.000474933
0.000479373
0.000489514
0.000494342
0.000505777
0.000510781
0.00052323
0.000528201
0.000541438
0.000546186
0.000560046
0.000564397
0.000451676
0.000450894
0.000454316
0.000454336
0.000459702
0.00046053
0.000467679
0.000469304
0.000477968
0.000480334
0.000490192
0.000493192
0.000503924
0.000507421
0.000518741
0.000522586
0.000534267
0.000538306
0.000550182
0.000554263
0.000456393
0.000453421
0.000458508
0.000456048
0.000462863
0.000461122
0.000469455
0.000468598
0.000478123
0.000478193
0.00048855
0.000489486
0.000500342
0.000502058
0.00051312
0.000515514
0.000526543
0.000529497
0.000540326
0.000543706
0.000456643
0.000450844
0.00045802
0.000452483
0.000461365
0.000456699
0.000466917
0.000463471
0.000474557
0.000472251
0.000483846
0.00048263
0.000494395
0.000494239
0.000505854
0.000506712
0.000517909
0.0005197
0.000530286
0.000532906
0.00045175
0.000441788
0.000451542
0.00044195
0.000453755
0.000446416
0.000459085
0.000453192
0.000466453
0.000461849
0.000475387
0.000472105
0.000485555
0.000483658
0.000496644
0.000496167
0.000508337
0.000509251
0.000520326
0.000522535
0.000441119
0.000421601
0.000435862
0.000424813
0.000439317
0.000429924
0.000445229
0.000437142
0.000453046
0.000446404
0.000462545
0.000457537
0.000473474
0.000470292
0.000485535
0.000484352
0.000498375
0.000499296
0.000511565
0.000514267
0.00102705
0.000982583
0.00103431
0.000998873
0.00103822
0.00100962
0.00103987
0.00101628
0.00103971
0.00101975
0.00103799
0.0010207
0.00103487
0.00101966
0.00103056
0.00101709
0.00102525
0.00101343
0.0010192
0.00100909
0.0010127
0.0010045
0.00100609
0.0010001
0.000999766
0.000996371
0.000994199
0.000993833
0.000989949
0.000993073
0.000987682
0.000994754
0.000988188
0.000999619
0.000992397
0.00100847
0.00100138
0.00102208
0.00101628
0.0010408
0.000940095
0.000913486
0.000954624
0.000928956
0.000965668
0.000941561
0.000973656
0.000951371
0.000979093
0.000958714
0.000982449
0.000963994
0.00098415
0.00096763
0.000984582
0.000970035
0.00098411
0.000971619
0.000983097
0.000972792
0.000981909
0.000973972
0.000980939
0.000975593
0.000980609
0.000978114
0.000981387
0.000982025
0.000983796
0.000987859
0.000988421
0.000996191
0.000995917
0.00100765
0.001007
0.00102293
0.00102245
0.00104284
0.00104306
0.00106847
0.000886287
0.000859478
0.000898909
0.000873479
0.000909758
0.000885864
0.000918802
0.000896595
0.000926182
0.000905781
0.000932125
0.000913624
0.000936901
0.000920383
0.000940803
0.000926353
0.000944139
0.000931855
0.00094723
0.000937227
0.000950413
0.000942825
0.000954046
0.000949025
0.000958509
0.000956222
0.000964213
0.000964835
0.000971603
0.000975308
0.000981157
0.000988114
0.000993395
0.00100376
0.00100888
0.00102278
0.00102823
0.00104575
0.00105214
0.0010732
0.000839626
0.00081234
0.000851554
0.000826042
0.000862318
0.000838582
0.000871936
0.000850015
0.000880494
0.000860441
0.000888136
0.000870008
0.000895046
0.000878901
0.000901439
0.000887339
0.000907555
0.000895569
0.000913655
0.000903857
0.000920016
0.000912489
0.000926936
0.000921768
0.000934728
0.000932011
0.000943726
0.000943553
0.00095428
0.000956742
0.000966763
0.000971942
0.000981565
0.000989527
0.000999092
0.00100988
0.00101976
0.00103338
0.00104399
0.00106042
0.000797201
0.000771097
0.000809342
0.000784983
0.000820545
0.000797928
0.00083089
0.000810031
0.000840477
0.000821403
0.000849433
0.000832176
0.000857906
0.000842502
0.000866068
0.000852555
0.00087411
0.000862528
0.000882238
0.000872629
0.000890675
0.00088308
0.000899656
0.000894118
0.000909426
0.000905987
0.000920245
0.000918944
0.00093238
0.000933253
0.000946108
0.000949181
0.000961713
0.000967004
0.000979485
0.000986997
0.000999714
0.00100944
0.00102269
0.00103461
0.000759047
0.000735491
0.000771663
0.000749586
0.000783454
0.000762882
0.000794518
0.000775479
0.00080496
0.000787482
0.000814899
0.000799008
0.000824461
0.000810187
0.00083379
0.000821156
0.000843038
0.000832068
0.00085237
0.000843085
0.00086196
0.000854378
0.000871989
0.000866125
0.000882648
0.000878514
0.000894132
0.000891735
0.000906644
0.000905984
0.000920388
0.000921461
0.000935573
0.000938366
0.000952411
0.000956902
0.000971114
0.000977271
0.000991898
0.000999676
0.000725308
0.000705087
0.000738295
0.000719201
0.000750531
0.000732617
0.000762109
0.000745419
0.000773125
0.000757696
0.000783681
0.000769546
0.000793885
0.00078107
0.000803853
0.00079238
0.000813707
0.000803593
0.000823576
0.000814832
0.000833595
0.000826225
0.000843903
0.000837909
0.000854646
0.00085002
0.00086597
0.0008627
0.000878028
0.000876095
0.000890973
0.000890349
0.000904962
0.000905612
0.000920153
0.000922032
0.000936706
0.000939758
0.000954785
0.00095894
0.000695891
0.000679286
0.000708977
0.000693149
0.000721374
0.000706391
0.000733159
0.000719075
0.000744408
0.000731271
0.000755204
0.000743051
0.000765633
0.000754495
0.000775787
0.000765685
0.000785761
0.000776708
0.000795652
0.000787657
0.000805564
0.000798624
0.000815602
0.000809708
0.000825874
0.00082101
0.000836492
0.000832632
0.00084757
0.000844679
0.000859222
0.000857258
0.000871568
0.000870476
0.000884729
0.000884445
0.000898829
0.000899274
0.000913994
0.000915077
0.000670511
0.00065743
0.000683374
0.000670765
0.000695609
0.000683542
0.000707269
0.000695806
0.000718412
0.000707603
0.000729099
0.000718985
0.000739394
0.000730007
0.000749364
0.000740727
0.000759081
0.000751206
0.000768615
0.000761507
0.000778043
0.000771696
0.000787442
0.00078184
0.00079689
0.00079201
0.00080647
0.000802276
0.000816266
0.000812712
0.000826364
0.000823394
0.000836854
0.0008344
0.00084783
0.000845809
0.000859389
0.000857705
0.000871632
0.000870175
0.000648756
0.000638852
0.000661094
0.000651416
0.000672863
0.000663481
0.000684098
0.000675072
0.000694837
0.000686216
0.00070512
0.000696945
0.00071499
0.000707293
0.000724494
0.000717296
0.00073368
0.000726992
0.000742596
0.00073642
0.000751294
0.000745621
0.000759828
0.000754637
0.000768251
0.000763512
0.000776622
0.000772292
0.000785
0.000781023
0.000793446
0.000789754
0.000802028
0.00079854
0.000810816
0.000807437
0.000819886
0.000816504
0.000829322
0.00082581
0.000630128
0.000622898
0.000641689
0.000634504
0.000652746
0.000645668
0.000663313
0.000656397
0.000673412
0.000666705
0.000683066
0.000676605
0.000692299
0.000686113
0.000701138
0.000695246
0.000709612
0.000704021
0.000717749
0.000712459
0.00072558
0.000720579
0.000733137
0.000728399
0.000740453
0.000735941
0.000747563
0.000743227
0.000754505
0.000750281
0.000761318
0.000757129
0.000768049
0.000763802
0.000774747
0.000770333
0.000781471
0.000776766
0.000788286
0.000783149
0.00061407
0.000608932
0.000624673
0.000619458
0.000634836
0.000629598
0.000644562
0.000639348
0.000653858
0.000648708
0.000662731
0.000657677
0.00067119
0.000666257
0.000679247
0.00067445
0.000686912
0.000682257
0.000694196
0.000689678
0.000701113
0.000696715
0.000707674
0.000703367
0.000713893
0.000709634
0.000719783
0.000715516
0.00072536
0.000721015
0.000730645
0.000726133
0.000735661
0.000730879
0.000740437
0.000735264
0.000745012
0.00073931
0.000749434
0.000743048
0.000599987
0.000596348
0.000609522
0.000605738
0.000618686
0.000614799
0.000627471
0.000623519
0.000635871
0.000631888
0.000643884
0.000639896
0.000651507
0.000647533
0.000658736
0.000654788
0.00066557
0.000661649
0.000672004
0.000668102
0.000678035
0.000674132
0.000683657
0.000679721
0.000688863
0.000684847
0.000693648
0.000689491
0.000698007
0.00069363
0.000701935
0.000697242
0.000705433
0.000700311
0.000708508
0.000702822
0.000711174
0.00070477
0.000713457
0.000706163
0.000587283
0.000584593
0.000595716
0.000592857
0.000603846
0.000600849
0.000611658
0.000608554
0.00061914
0.000615953
0.000626282
0.000623032
0.000633071
0.000629772
0.000639495
0.000636154
0.000645541
0.000642155
0.000651191
0.00064775
0.000656428
0.000652909
0.00066123
0.000657598
0.000665573
0.00066178
0.000669431
0.000665411
0.000672776
0.000668446
0.000675579
0.000670836
0.000677814
0.000672533
0.000679457
0.000673491
0.000680494
0.000673671
0.00068092
0.000673045
0.000575409
0.000573211
0.000582775
0.000580425
0.000589905
0.000587425
0.000596782
0.000594192
0.00060339
0.000600706
0.000609712
0.000606946
0.000615731
0.000612891
0.000621429
0.000618514
0.000626782
0.000623788
0.000631766
0.000628679
0.000636352
0.000633146
0.000640504
0.000637144
0.000644182
0.000640619
0.000647342
0.000643509
0.000649932
0.000645744
0.000651896
0.000647246
0.000653175
0.000647931
0.000653711
0.000647714
0.000653447
0.000646507
0.000652338
0.000644231
0.000563923
0.000561902
0.000570332
0.00056822
0.00057657
0.000574377
0.000582619
0.000580354
0.00058846
0.000586129
0.000594074
0.000591678
0.000599441
0.000596977
0.000604537
0.000602
0.000609338
0.000606713
0.000613811
0.000611081
0.00061792
0.000615059
0.000621622
0.000618593
0.000624865
0.000621619
0.000627587
0.00062406
0.000629716
0.000625826
0.000631169
0.00062681
0.000631853
0.000626892
0.000631666
0.000625937
0.000630501
0.0006238
0.00062825
0.000620329
0.000552577
0.000550615
0.000558228
0.00055629
0.000563769
0.000561853
0.000569178
0.000567276
0.000574433
0.000572535
0.000579514
0.000577603
0.000584397
0.000582457
0.000589058
0.000587069
0.000593472
0.000591412
0.000597606
0.000595448
0.000601424
0.000599136
0.000604878
0.000602422
0.000607912
0.000605239
0.000610455
0.000607504
0.000612421
0.000609116
0.000613707
0.00060995
0.000614188
0.000609857
0.00061372
0.000608656
0.000612137
0.000606138
0.000609254
0.000602061
0.000541428
0.000539674
0.000546653
0.000545123
0.000551816
0.000550487
0.000556886
0.000555715
0.000561831
0.000560777
0.000566624
0.000565652
0.000571243
0.000570318
0.00057567
0.000574755
0.00057988
0.000578936
0.000583848
0.000582832
0.00058754
0.000586406
0.000590915
0.000589612
0.000593919
0.00059239
0.000596484
0.000594667
0.000598525
0.000596348
0.000599933
0.000597312
0.000600573
0.000597407
0.000600273
0.000596437
0.000598824
0.000594154
0.000595968
0.000590241
0.000530997
0.000529999
0.000536362
0.000535945
0.000541681
0.000541672
0.000546857
0.000547189
0.000551867
0.000552498
0.000556701
0.000557586
0.000561347
0.000562435
0.00056579
0.00056702
0.000570012
0.000571313
0.000573989
0.000575284
0.000577694
0.0005789
0.000581092
0.000582123
0.000584143
0.00058491
0.000586794
0.000587209
0.00058898
0.000588956
0.000590616
0.000590071
0.000591591
0.000590447
0.000591759
0.000589947
0.000590928
0.00058838
0.000588839
0.000585484
0.000522566
0.000523836
0.0005292
0.000530831
0.000535299
0.00053757
0.000541104
0.000544088
0.000546682
0.000550366
0.000552041
0.000556364
0.000557161
0.000562035
0.000562014
0.000567329
0.00056657
0.000572197
0.000570796
0.00057659
0.000574659
0.000580461
0.000578129
0.000583764
0.000581172
0.000586459
0.000583758
0.00058851
0.000585853
0.000589887
0.000587422
0.00059057
0.000588423
0.00059055
0.000588807
0.000589843
0.000588517
0.000588501
0.000587488
0.00058667
0.000944456
0.000923119
0.000921066
0.000900863
0.00089911
0.000879674
0.00087823
0.000859266
0.00085811
0.000839368
0.000838471
0.000819729
0.00081905
0.000800106
0.000799602
0.000780264
0.000779891
0.000759971
0.000759686
0.000738996
0.000738755
0.000717104
0.000716867
0.00069405
0.000693783
0.000669582
0.000669254
0.000643427
0.000643013
0.00061529
0.000614774
0.000584845
0.000584211
0.000551721
0.000550946
0.000515491
0.00051451
0.000475651
0.000474286
0.000431622
0.000973704
0.000945256
0.000951149
0.000924185
0.000929431
0.000903702
0.000908391
0.000883624
0.000887845
0.000863764
0.000867591
0.000843933
0.000847422
0.000823939
0.000827124
0.000803591
0.000806479
0.000782693
0.000785262
0.000761048
0.000763243
0.000738453
0.000740179
0.000714704
0.000715818
0.000689594
0.000689889
0.000662917
0.000662105
0.000634478
0.000632158
0.000604109
0.000599716
0.000571702
0.000564436
0.000537271
0.00052598
0.000501062
0.000484094
0.00046376
0.00101676
0.000982029
0.000995041
0.000962549
0.00097385
0.000943254
0.000953024
0.000924004
0.000932407
0.000904659
0.000911843
0.000885083
0.000891171
0.000865135
0.000870222
0.000844673
0.00084882
0.000823551
0.000826779
0.000801622
0.000803906
0.000778737
0.000779998
0.000754748
0.000754842
0.000729513
0.000728221
0.000702903
0.000699913
0.000674811
0.000669701
0.000645169
0.000637387
0.000613964
0.000602815
0.000581263
0.0005659
0.000547222
0.000526672
0.000512069
0.00106563
0.00102392
0.00104519
0.00100675
0.00102484
0.000989292
0.0010045
0.00097148
0.000984072
0.000953241
0.000963467
0.000934495
0.000942574
0.000915159
0.000921277
0.000895142
0.000899452
0.000874352
0.000876963
0.000852694
0.000853666
0.00083007
0.000829413
0.000806389
0.000804047
0.000781566
0.000777415
0.000755532
0.000749367
0.000728247
0.000719765
0.00069971
0.000688495
0.000669985
0.000655476
0.000639226
0.000620671
0.00060773
0.000584102
0.000576024
0.00110959
0.00106061
0.00109132
0.00104665
0.00107259
0.00103188
0.00105341
0.00101633
0.0010338
0.000999978
0.00101374
0.000982824
0.000993183
0.000964842
0.000972094
0.000946002
0.000950406
0.000926268
0.000928045
0.0009056
0.00090493
0.000883959
0.000880972
0.00086131
0.000856085
0.000837628
0.000830184
0.000812913
0.000803198
0.000787196
0.000775083
0.000760565
0.00074583
0.000733189
0.000715493
0.000705361
0.000684224
0.000677554
0.000652331
0.000650501
0.00114035
0.00108467
0.00112537
0.00107483
0.0011093
0.00106366
0.00109225
0.00105122
0.00107434
0.00103759
0.00105564
0.00102284
0.0010362
0.00100699
0.00101606
0.000990098
0.000995228
0.000972183
0.000973705
0.000953272
0.000951485
0.000933391
0.000928557
0.000912572
0.000904915
0.000890864
0.000880565
0.000868343
0.000855538
0.000845131
0.000829906
0.000821415
0.000803808
0.000797484
0.000777475
0.000773768
0.000751282
0.000750895
0.000725805
0.000729766
0.00115324
0.00109233
0.00114272
0.00108751
0.00113042
0.00108074
0.00111656
0.0010722
0.00110133
0.00106202
0.0010849
0.00105036
0.00106741
0.00103732
0.001049
0.00102303
0.00102976
0.00100758
0.00100979
0.000991071
0.000989164
0.000973614
0.000967969
0.000955318
0.000946295
0.000936317
0.000924258
0.000916781
0.00090201
0.000896933
0.000879767
0.000877075
0.000857829
0.00085762
0.000836626
0.000839132
0.00081675
0.00082238
0.000799018
0.00080839
0.00114697
0.00108307
0.00114199
0.00108414
0.00113452
0.00108247
0.00112484
0.0010784
0.0011132
0.00107218
0.00109987
0.00106407
0.0010851
0.00105427
0.00106911
0.001043
0.00105211
0.00103044
0.00103428
0.00101677
0.00101582
0.00100218
0.000996919
0.000986878
0.000977771
0.000971088
0.000958616
0.000955085
0.000939744
0.000939206
0.000921521
0.000923883
0.00090443
0.000909668
0.000889097
0.000897272
0.000876342
0.000887598
0.000867204
0.000881771
0.00112295
0.00106036
0.00112471
0.00106789
0.00112305
0.00107142
0.00111832
0.00107175
0.00111091
0.00106942
0.00110123
0.00106483
0.00108965
0.00105832
0.00107653
0.00105018
0.00106217
0.00104066
0.0010469
0.00103002
0.00103099
0.00101854
0.00101474
0.00100648
0.000998473
0.000994177
0.000982539
0.000981998
0.000967365
0.000970399
0.000953471
0.000959942
0.000941512
0.000951335
0.000932319
0.000945468
0.000926948
0.000943445
0.000926719
0.000946563
0.00108457
0.00104476
0.00109661
0.00105253
0.00110186
0.00105671
0.00110209
0.00105832
0.00109854
0.0010578
0.0010921
0.00105543
0.00108341
0.00105143
0.00107299
0.00104599
0.00106126
0.00103933
0.0010486
0.00103169
0.00103538
0.00102337
0.00102197
0.00101469
0.00100877
0.00100603
0.000996232
0.000997851
0.000984893
0.000990712
0.000975402
0.00098529
0.000968555
0.00098243
0.000965353
0.000983203
0.000967069
0.00098905
0.000975416
0.00100215
)
;

boundaryField
{
    back
    {
        type            empty;
    }
    front
    {
        type            empty;
    }
    left
    {
        type            calculated;
        value           nonuniform List<scalar> 
30
(
0.0025364
0.00213648
0.00183691
0.00161106
0.00143879
0.00130567
0.00120142
0.00111858
0.0010516
0.000996237
0.000944456
0.000921066
0.00089911
0.00087823
0.00085811
0.000838471
0.00081905
0.000799602
0.000779891
0.000759686
0.000738755
0.000716867
0.000693783
0.000669254
0.000643013
0.000614774
0.000584211
0.000550946
0.00051451
0.000474286
)
;
    }
    hole
    {
        type            calculated;
        value           nonuniform List<scalar> 
20
(
0.0025364
0.00241549
0.00229453
0.00212528
0.00191422
0.00167209
0.00141006
0.00113857
0.000866969
0.000603857
0.000358218
0.000148211
0.0001338
0.000301882
0.000466713
0.000611605
0.000731959
0.000824608
0.000887916
0.000931596
)
;
    }
    down
    {
        type            calculated;
        value           nonuniform List<scalar> 
30
(
0.000746068
0.000593045
0.000480637
0.000397046
0.000334976
0.000289293
0.00025627
0.000233245
0.000218527
0.00021161
0.000234794
0.000211282
0.000212185
0.000225612
0.000245319
0.000267916
0.000291562
0.000315227
0.000338282
0.0003603
0.000380937
0.000399879
0.000416804
0.000431361
0.000443144
0.000451676
0.000456393
0.000456643
0.00045175
0.000441119
)
;
    }
    right
    {
        type            calculated;
        value           nonuniform List<scalar> 
30
(
0.000421601
0.000424813
0.000429924
0.000437142
0.000446404
0.000457537
0.000470292
0.000484352
0.000499296
0.000514267
0.000523836
0.000530831
0.00053757
0.000544088
0.000550366
0.000556364
0.000562035
0.000567329
0.000572197
0.00057659
0.000580461
0.000583764
0.000586459
0.00058851
0.000589887
0.00059057
0.00059055
0.000589843
0.000588501
0.00058667
)
;
    }
    up
    {
        type            calculated;
        value           nonuniform List<scalar> 
30
(
0.0010408
0.00106847
0.0010732
0.00106042
0.00103461
0.000999676
0.00095894
0.000915077
0.000870175
0.00082581
0.000783149
0.000743048
0.000706163
0.000673045
0.000644231
0.000620329
0.000602061
0.000590241
0.000585484
0.00058667
0.000431622
0.00046376
0.000512069
0.000576024
0.000650501
0.000729766
0.00080839
0.000881771
0.000946563
0.00100215
)
;
    }
}


// ************************************************************************* //
