/*--------------------------------*- C++ -*----------------------------------*\
| =========                 |                                                 |
| \\      /  F ield         | OpenFOAM: The Open Source CFD Toolbox           |
|  \\    /   O peration     | Version:  v2012                                 |
|   \\  /    A nd           | Website:  www.openfoam.com                      |
|    \\/     M anipulation  |                                                 |
\*---------------------------------------------------------------------------*/
FoamFile
{
    version     2.0;
    format      ascii;
    class       volSymmTensorField;
    location    "16";
    object      epsilon;
}
// * * * * * * * * * * * * * * * * * * * * * * * * * * * * * * * * * * * * * //

dimensions      [0 0 0 0 0 0 0];


internalField   nonuniform List<symmTensor> 
500
(
(0.0243888 -0.00568099 -1.37913e-18 -0.0263609 1.6325e-19 5.23675e-35)
(0.00707222 -0.00107995 -5.16867e-19 -0.00545022 1.42257e-19 0)
(0.0126215 -0.00241331 0 -0.00983295 0 0)
(0.00554731 -0.000940453 4.6266e-19 -0.00463393 3.44222e-19 0)
(0.00716634 -0.00114934 1.06723e-18 -0.00478602 3.82781e-19 0)
(0.00337523 -0.000427713 1.63398e-19 -0.00202845 1.70915e-19 0)
(0.00397146 -0.000417974 0 -0.00190957 0 0)
(0.00212661 -0.000173432 7.11555e-19 -0.000556485 5.00445e-19 0)
(0.00241799 -1.45778e-05 6.7487e-19 -0.000614182 3.42437e-19 0)
(0.00178423 1.67626e-05 1.41488e-19 -0.000151153 4.02731e-19 0)
(0.0033315 -0.00203666 -7.06626e-19 -0.00416738 3.22267e-19 2.37558e-34)
(0.00427961 -0.00201695 -7.81515e-19 -0.00366151 1.67665e-19 0)
(0.00352846 -0.00155472 -9.11463e-19 -0.00140242 -3.10225e-19 0)
(0.00216649 -0.00102789 4.65e-19 -0.0019296 3.26462e-19 0)
(0.00296238 -0.00104071 1.49985e-19 -0.000782046 3.04255e-19 0)
(0.00141298 -0.000515488 -1.58566e-19 -0.00103567 1.20573e-19 0)
(0.00255841 -0.000517533 -2.02834e-19 -0.000876668 -7.68156e-19 0)
(0.0014791 -0.000167785 -5.93077e-19 -0.000935913 -1.15074e-18 0)
(0.00224837 -4.9252e-05 -4.78296e-19 -0.00101648 -1.20394e-19 0)
(0.00165984 0.000166476 2.05865e-19 -0.000925269 3.56558e-19 0)
(0.00174491 -0.00173583 5.22558e-19 -0.000978354 -2.30675e-20 -1.87466e-36)
(0.000824375 -0.000565744 -3.59506e-19 -0.000182702 2.74366e-19 0)
(0.00109834 -0.000726621 -4.71514e-20 -0.000140954 -1.22371e-19 0)
(0.000817047 -0.000467226 5.21888e-19 -0.000457045 -6.20172e-20 0)
(0.0012245 -0.000492162 1.8716e-19 -0.0006232 -3.60726e-20 0)
(0.00100658 -0.000274594 -5.2855e-20 -0.000686558 -1.7695e-19 0)
(0.0014022 -0.000228919 5.91908e-19 -0.000834463 6.68517e-19 0)
(0.001128 -5.72922e-05 -7.11445e-20 -0.000869242 1.56287e-19 0)
(0.0017252 5.95083e-05 -1.44901e-19 -0.00113646 -1.64055e-19 0)
(0.0013986 0.000146875 0 -0.00104098 0 0)
(0.000415441 -0.000411979 4.53143e-20 -0.00015105 -1.17806e-19 -4.2357e-35)
(0.000662464 -0.000377759 -7.94649e-19 -0.000182707 -5.31701e-19 0)
(0.000859198 -0.000371098 -8.27747e-19 -0.000104467 -1.06629e-18 0)
(0.000819993 -0.000303682 2.31726e-19 -0.000436315 -8.6241e-19 0)
(0.00106015 -0.000295318 2.25969e-19 -0.000365285 4.76772e-19 0)
(0.000980946 -0.000188241 5.42045e-19 -0.00054941 7.86411e-19 0)
(0.0011707 -0.000175232 2.81963e-19 -0.000648152 2.89147e-19 0)
(0.0011465 -4.63018e-05 -3.1324e-20 -0.000523882 1.88297e-19 0)
(0.00122807 -3.03321e-05 -1.43198e-19 -0.000950474 -3.0542e-19 0)
(0.00128884 0.000102219 2.07559e-21 -0.000449815 -1.71367e-19 0)
(0.00037113 -0.00033599 8.02845e-20 0.000148116 -1.94086e-19 -6.73067e-35)
(0.000347405 -6.85994e-05 -2.07648e-19 -0.000396591 -3.35439e-19 0)
(0.000674602 -0.0002712 -4.53028e-19 -0.000400085 -6.79975e-19 0)
(0.000731018 -7.64328e-05 -6.96064e-19 -0.000601723 -7.5985e-19 0)
(0.000852703 -0.000199985 -6.40217e-19 -0.00069123 -1.33463e-19 0)
(0.000942375 -5.9477e-05 8.78015e-20 -0.000818628 -4.91187e-20 0)
(0.000969819 -8.36609e-05 1.18066e-19 -0.000932043 -5.89548e-20 0)
(0.00112274 5.81821e-06 -8.49952e-20 -0.0010369 2.92512e-20 0)
(0.00110903 9.8491e-05 -1.05547e-19 -0.00128424 3.23955e-20 0)
(0.00109466 0.000107336 -2.44414e-19 -0.00155444 -1.80224e-19 0)
(0.000157851 3.25709e-05 1.05843e-19 -7.66714e-05 -4.24577e-20 2.08171e-35)
(9.58365e-05 0.000207032 4.23108e-19 -0.000527458 1.00354e-19 0)
(0.000561542 -0.000134147 6.99562e-19 -0.000441894 4.76072e-19 0)
(0.000612484 0.0001394 2.23557e-19 -0.00049351 2.55092e-19 0)
(0.000787952 -9.8245e-05 2.97332e-19 -0.000739048 2.39695e-19 0)
(0.000943748 0.000198325 1.85808e-19 -0.000676277 3.08e-19 0)
(0.000860074 0.000137829 1.66467e-19 -0.00110762 1.41984e-19 0)
(0.000983516 0.000383056 0 -0.00142609 0 0)
(0.000335421 0.000485029 0 -0.00191242 0 0)
(0.00123352 0.000108767 -1.39327e-19 -0.000802043 -1.51345e-19 0)
(0.000114159 0.000341174 6.05841e-20 -0.000461568 -1.45719e-19 -1.76196e-35)
(-1.28902e-05 0.000332342 4.69553e-20 -0.000730627 -2.73592e-19 0)
(0.00038266 7.04002e-05 4.31586e-20 -0.000412412 -1.09838e-19 0)
(0.00032034 0.000194911 -2.85884e-20 -0.000738108 6.26976e-20 0)
(0.000565143 2.19969e-05 -9.90308e-21 -0.000606752 2.71858e-19 0)
(0.000525958 0.000212467 1.88089e-19 -0.000934031 2.08788e-19 0)
(0.000641684 0.000151044 3.9031e-19 -0.000940592 3.01338e-19 0)
(0.000474213 0.000411794 3.81639e-19 -0.00118183 2.91272e-19 0)
(0.000180851 0.000201931 6.45988e-19 -0.00142692 6.17637e-19 0)
(0.000887003 0.000121318 1.15992e-19 -0.000276153 2.10941e-19 0)
(0.000267713 0.000420789 0 -0.000738117 0 0)
(4.7893e-05 0.000331643 0 -0.000845819 0 0)
(0.000331557 0.0002365 -3.33182e-20 -0.00047995 -1.24444e-19 0)
(0.000212064 0.000223584 -1.59651e-19 -0.000819925 -1.83984e-19 0)
(0.000392538 0.000153084 -3.20399e-19 -0.000534501 -1.99404e-19 0)
(0.000319289 0.000239539 -2.0324e-19 -0.000928651 -2.06842e-19 0)
(0.000389133 0.000136165 -5.04066e-19 -0.000694729 -4.21355e-19 0)
(0.000173032 0.000308866 -1.898e-19 -0.00109373 -3.51199e-19 0)
(1.61436e-05 5.91283e-05 -2.3149e-19 -0.000924075 7.02495e-20 0)
(0.00038825 4.69914e-05 8.09805e-20 -0.000298982 2.10723e-20 0)
(0.000404015 0.000316103 1.29109e-20 -0.00088533 -1.01458e-19 -9.39323e-36)
(0.00016401 0.000225164 -6.50127e-21 -0.00090138 -2.08524e-20 0)
(0.000349224 0.000268792 0 -0.000611665 0 0)
(0.000187115 0.000160057 0 -0.000867931 0 0)
(0.000323733 0.000196677 1.41525e-19 -0.000565113 2.1642e-19 0)
(0.000195411 0.00016019 1.40964e-19 -0.000934083 2.45359e-19 0)
(0.000274186 0.000118256 2.33406e-19 -0.000579668 1.64296e-19 0)
(2.28522e-05 0.000182205 4.21977e-20 -0.00102438 8.05938e-20 0)
(-4.17366e-05 1.19383e-05 -3.85387e-21 -0.0005869 -1.23513e-19 0)
(4.5515e-05 2.01131e-05 -2.46343e-20 -0.000408426 -6.47844e-20 0)
(0.000440326 0.000130506 -1.08715e-20 -0.000897046 2.58611e-20 -9.68441e-36)
(0.0003008 4.56529e-05 -3.47233e-20 -0.00089269 -3.56123e-20 0)
(0.000368544 0.000170203 1.6204e-20 -0.000748517 1.86133e-19 0)
(0.000212822 -5.10975e-06 2.64386e-20 -0.000906154 2.06776e-19 0)
(0.000326727 0.000143142 -1.45371e-20 -0.000677401 -1.54342e-20 0)
(0.000138055 -1.76934e-05 3.35969e-21 -0.000930379 4.55935e-20 0)
(0.00024505 7.57888e-05 -1.98575e-20 -0.000574088 -3.89519e-20 0)
(-3.82233e-05 3.06329e-05 -1.86906e-20 -0.000846173 -3.11404e-20 0)
(-4.13811e-05 7.85679e-06 -6.02558e-21 -0.000343704 1.33203e-20 0)
(-0.000158927 2.65677e-05 9.45238e-21 -0.000350001 -1.80693e-20 0)
(-0.00023163 -2.31686e-05 6.1332e-21 0.000481515 2.30547e-20 0)
(-4.34378e-05 -0.00015218 -6.90737e-21 0.000498413 5.64463e-21 0)
(-0.000112503 -0.000231377 8.29884e-21 0.000433821 -1.54114e-20 0)
(0.000163774 -0.0002819 0 0.000511251 0 0)
(0.000163999 -0.000446483 -7.17536e-21 0.000256967 1.92102e-20 0)
(0.000491502 -0.000393614 1.50699e-20 0.000486921 -5.79059e-21 0)
(0.000758965 -0.000592492 -3.63896e-20 0.000113933 3.12528e-20 0)
(0.000643743 -0.000354388 7.49932e-20 0.000204459 -2.99623e-20 0)
(0.00141082 -0.000591078 -1.36462e-19 6.73064e-05 3.29503e-20 0)
(0.0010493 -0.000378137 -1.03236e-19 -0.000400165 2.22778e-19 0)
(-0.000369321 -2.3769e-05 0 0.00025638 0 0)
(-0.000111615 -9.91159e-05 1.02221e-20 0.00028648 -4.34811e-21 0)
(-0.000210374 -0.000198323 -2.047e-20 0.000299507 9.09796e-22 0)
(5.04966e-06 -0.000196726 -5.78245e-20 0.000128407 1.33888e-20 0)
(-2.66917e-05 -0.000386561 1.84538e-20 0.000178711 -5.35288e-21 0)
(0.000169585 -0.00024395 3.62661e-20 -9.44709e-05 -9.86631e-21 0)
(0.000311851 -0.000576949 8.90501e-20 1.6005e-05 1.69479e-20 0)
(0.000499454 -0.000304781 1.05674e-19 -0.00018482 -1.61583e-20 0)
(0.000677867 -0.000720515 -6.55298e-20 -0.000184572 1.28686e-20 0)
(0.000800835 -0.00024112 8.70313e-20 -0.000394262 5.73053e-20 0)
(-0.000118616 -4.64921e-05 0 4.19839e-06 0 0)
(3.8853e-05 -2.79849e-05 7.60194e-21 3.43912e-05 1.167e-20 0)
(3.26624e-05 -0.000112585 1.19047e-20 -9.75808e-06 -1.89543e-21 0)
(0.000171906 -9.50966e-05 -6.70837e-21 -8.63405e-05 -2.14939e-20 0)
(0.000208031 -0.000189777 -2.06737e-20 -0.000114362 -3.28744e-21 0)
(0.000431999 -0.000177456 -8.04771e-21 -0.000181931 -2.86452e-20 0)
(0.000390842 -0.000263731 3.02779e-20 -0.00027934 1.12359e-20 0)
(0.000784352 -0.000247461 8.63954e-21 -0.000226197 -1.36303e-20 0)
(0.000685024 -0.000338622 4.26491e-20 -0.000306946 -1.28762e-20 0)
(0.000934011 -0.000223326 4.69197e-20 -0.000313594 -3.10726e-21 0)
(4.60557e-05 -7.33086e-06 1.45631e-21 -0.00013397 1.21558e-20 0)
(0.000165204 -3.91685e-05 1.83889e-20 -7.47273e-05 -2.42409e-20 0)
(0.000165162 -3.66178e-05 -1.03736e-20 -0.000170275 2.24244e-21 0)
(0.000371863 -0.000124005 3.50171e-20 -9.90795e-05 3.97814e-20 0)
(0.000295688 -0.000116286 2.03902e-20 -0.000256209 1.28903e-20 0)
(0.000636594 -0.000218605 -6.39189e-21 -0.000176866 6.93676e-23 0)
(0.000550187 -0.00022138 -9.13774e-21 -0.000320207 -3.35966e-21 0)
(0.00085233 -0.000257174 -2.77441e-20 -0.000295901 -1.07316e-20 0)
(0.000858623 -0.00029168 8.24958e-20 -0.000326363 2.77943e-20 0)
(0.000949027 -0.000243018 -4.59631e-20 -0.000360524 -1.62182e-20 0)
(7.35064e-05 1.88638e-05 2.27528e-21 -0.00016176 3.22826e-21 0)
(0.000243506 -9.61149e-05 -3.94541e-20 -8.77063e-05 -1.65843e-20 0)
(0.000244638 -5.92844e-05 -1.08418e-20 -0.000188345 -1.7609e-20 0)
(0.000470948 -0.000200722 -3.78214e-20 -0.000106492 -3.67085e-20 0)
(0.000415599 -0.000162751 9.51669e-21 -0.000261527 -2.32183e-21 0)
(0.00068974 -0.000275543 7.26082e-20 -0.000205425 1.68788e-20 0)
(0.000665197 -0.000258297 -6.58836e-20 -0.00030255 -2.60449e-20 0)
(0.000842804 -0.000283725 -6.1211e-20 -0.000315849 -2.97713e-20 0)
(0.000861936 -0.000291335 5.87633e-20 -0.000333489 2.6269e-20 0)
(0.000916812 -0.00025495 -4.06825e-20 -0.000375039 4.15906e-21 0)
(9.75661e-05 2.16273e-05 6.53874e-21 -0.000144004 -6.28154e-21 0)
(0.000313052 -0.00014377 3.74075e-20 -8.929e-05 1.20536e-20 0)
(0.000316354 -0.000116351 1.973e-20 -0.000152707 7.66948e-21 0)
(0.000518016 -0.000253746 -6.12266e-20 -0.000139619 -1.24871e-20 0)
(0.000514144 -0.000225 5.41723e-20 -0.000223595 2.09392e-20 0)
(0.000693243 -0.000306358 1.89159e-21 -0.000237393 8.77573e-21 0)
(0.000708321 -0.000286717 -5.81664e-20 -0.000275377 -2.51802e-20 0)
(0.00081049 -0.000295913 -4.85561e-20 -0.000317233 -2.75836e-20 0)
(0.000838047 -0.00029028 8.03434e-20 -0.000313321 1.76275e-20 0)
(0.000869796 -0.000255985 -1.90248e-21 -0.000361639 -8.42302e-21 0)
(0.00018126 1.28195e-05 -2.07779e-20 -0.000107972 1.0785e-20 0)
(0.000393803 -0.000164532 9.4553e-21 -9.2703e-05 9.05467e-21 0)
(0.000379899 -0.000151807 -3.04376e-20 -0.000110803 -8.40204e-21 0)
(0.000556833 -0.000271902 5.25966e-21 -0.000160203 -2.76894e-21 0)
(0.000559688 -0.000253081 3.10215e-20 -0.000177144 7.26886e-21 0)
(0.000688323 -0.000311611 1.00094e-19 -0.000243778 2.00837e-20 0)
(0.000705476 -0.000292111 -4.36482e-20 -0.000233534 -1.8072e-20 0)
(0.000770971 -0.000294213 5.3277e-20 -0.000300065 -3.82005e-21 0)
(0.000796424 -0.000280699 -1.22777e-20 -0.000276005 -6.91125e-21 0)
(0.000814399 -0.000249709 1.24982e-20 -0.00033 -5.74085e-21 0)
(0.000295006 2.25887e-06 2.45598e-20 -4.68837e-05 -1.9002e-21 0)
(0.00046634 -0.000160578 8.99295e-21 -8.08126e-05 -1.23493e-21 0)
(0.000423243 -0.000157492 3.54364e-20 -5.72358e-05 -2.92583e-21 0)
(0.000582869 -0.000261565 -1.71132e-20 -0.000148285 -1.39641e-20 0)
(0.00056205 -0.00024718 4.70243e-20 -0.00011842 9.097e-21 0)
(0.000670405 -0.000292492 -3.54437e-20 -0.000214371 -1.24075e-22 0)
(0.00067215 -0.000274143 0 -0.000173062 0 0)
(0.000720381 -0.00027086 6.27757e-20 -0.000256988 1.57551e-20 0)
(0.000741806 -0.000256173 8.75541e-21 -0.000218072 3.54126e-22 0)
(0.000747111 -0.000223054 -4.9655e-20 -0.000281998 -2.00177e-20 0)
(0.000398524 -3.34458e-06 2.4331e-20 6.41036e-05 1.20467e-20 0)
(0.000490926 -0.000129068 3.85476e-20 -3.41488e-05 -6.73577e-21 0)
(0.00044323 -0.00013376 2.11625e-20 2.95042e-05 -1.27197e-21 0)
(0.000577173 -0.000207831 3.01798e-21 -9.91374e-05 6.6679e-22 0)
(0.000542461 -0.000207306 5.21412e-21 -3.51724e-05 -6.63528e-22 0)
(0.000629783 -0.000222901 -7.81281e-20 -0.0001618 -2.13253e-20 0)
(0.000628477 -0.000225008 -6.08084e-20 -9.39413e-05 -2.0624e-20 0)
(0.000662207 -0.000197504 2.82975e-20 -0.000206803 4.2011e-22 0)
(0.000681938 -0.000208524 -1.89241e-20 -0.000150544 -8.58911e-21 0)
(0.000681534 -0.000151802 -9.18193e-20 -0.000239249 -4.11614e-20 0)
(0.000496863 1.344e-05 -8.05749e-20 0.000246066 -2.43058e-20 0)
(0.000537754 -7.78689e-05 -2.61388e-20 0.000162308 -7.10184e-21 -1.43878e-35)
(0.000500444 -6.15273e-05 -4.19848e-20 0.000192262 9.01454e-22 0)
(0.000560632 -8.38816e-05 -1.35712e-20 5.4326e-05 -5.6238e-21 -1.44727e-36)
(0.000563858 -0.000113956 -4.92058e-21 0.00010284 5.79068e-21 0)
(0.00059358 -6.55556e-05 0 -6.40735e-05 0 0)
(0.000610406 -0.000125085 -1.40277e-20 -1.27384e-05 -5.82382e-20 0)
(0.000631226 -4.28052e-05 -4.22184e-20 -0.000157485 -1.15187e-19 -3.40974e-35)
(0.000638779 -0.000116857 -6.34036e-20 -0.000114767 6.84137e-21 0)
(0.000650789 -1.73211e-05 3.14886e-20 -0.000229982 7.49511e-20 -1.46764e-35)
(0.00162528 -0.000438146 6.18206e-20 -2.42415e-05 1.62745e-19 0)
(0.000969413 -0.000415354 -4.24666e-20 -0.000348892 4.75614e-20 0)
(0.00141548 -0.000427108 3.79701e-20 -0.000139932 1.08039e-19 0)
(0.00103455 -0.000388456 1.71582e-19 -0.000396991 1.50908e-19 0)
(0.00137116 -0.000448448 1.96469e-19 -0.000152994 9.22262e-20 0)
(0.00106179 -0.00036839 0 -0.000426607 0 0)
(0.00135739 -0.00045657 -3.69071e-20 -0.000169356 2.62656e-20 0)
(0.00106439 -0.00034992 -1.63945e-20 -0.000436369 2.26434e-20 0)
(0.00134871 -0.000449164 4.40852e-20 -0.00021978 7.10027e-20 0)
(0.00106343 -0.000325579 -1.47217e-20 -0.000437651 2.2116e-20 0)
(0.00135822 -0.000414838 -4.59944e-20 -0.000303124 -6.96408e-20 0)
(0.0011026 -0.000299233 -1.93772e-19 -0.000439216 -1.74411e-19 0)
(0.00140172 -0.000355723 -1.07286e-19 -0.000404071 -8.92022e-20 0)
(0.0011757 -0.000274048 1.33287e-19 -0.000460127 3.84475e-20 0)
(0.00148593 -0.000284358 2.45228e-19 -0.000499148 1.62354e-19 0)
(0.00120951 -0.000228828 4.803e-20 -0.000506926 2.48717e-20 0)
(0.00155245 -0.000189421 -5.37974e-20 -0.000573646 -1.54758e-20 0)
(0.00125942 -0.000143212 1.60344e-19 -0.000584841 1.08061e-19 0)
(0.00171553 -7.62534e-05 1.7257e-19 -0.000727188 1.05056e-19 0)
(0.00138447 -3.71748e-05 0 -0.000625921 0 0)
(0.00124579 -0.000695772 7.41754e-20 -0.000138367 3.84349e-20 0)
(0.000867613 -0.000377976 8.00915e-20 -0.000403147 8.23323e-20 0)
(0.0012916 -0.000598074 2.03145e-20 -0.000296295 -1.09437e-20 0)
(0.000904261 -0.000346801 0 -0.000414415 0 0)
(0.00123917 -0.000490521 3.8182e-20 -0.00040631 5.83048e-20 0)
(0.000957629 -0.000310235 8.6968e-20 -0.000392081 8.88217e-20 0)
(0.00120365 -0.000394973 6.8106e-20 -0.000452207 2.86762e-20 0)
(0.0010321 -0.000280605 -1.04031e-19 -0.000356055 -6.47951e-20 0)
(0.00112545 -0.000313739 -3.72174e-20 -0.000489181 -6.54332e-20 0)
(0.000981927 -0.000243263 9.60054e-20 -0.000397308 6.1267e-20 0)
(0.0010845 -0.000262666 5.52083e-20 -0.000511046 2.78891e-20 0)
(0.00104814 -0.000210293 4.35559e-20 -0.000404155 3.37982e-20 0)
(0.00115185 -0.000223139 4.70684e-20 -0.000511024 5.76963e-20 0)
(0.00109865 -0.000169632 2.79751e-19 -0.000445883 2.09796e-19 0)
(0.00121791 -0.000171778 1.99125e-19 -0.000519847 1.18791e-19 0)
(0.0011402 -0.000128188 4.5463e-20 -0.000495033 3.2012e-20 0)
(0.00126264 -0.000109479 -3.92417e-20 -0.000543419 -2.11493e-20 0)
(0.00119116 -8.23627e-05 1.01417e-19 -0.000533394 7.0437e-20 0)
(0.00130683 -4.15034e-05 2.25379e-19 -0.000570585 1.45737e-19 0)
(0.00128454 -2.65325e-05 3.19002e-20 -0.000527 2.11854e-21 -3.75592e-36)
(0.000799352 -0.000368731 -6.62712e-21 -0.000360935 3.35291e-21 0)
(0.00102919 -0.000269594 1.7142e-19 -0.00034955 8.23573e-20 0)
(0.000919138 -0.000377661 1.53729e-19 -0.000352986 7.41558e-20 0)
(0.00100896 -0.000262168 2.1457e-19 -0.000401943 1.06156e-19 0)
(0.000982287 -0.000364641 2.12361e-19 -0.000358595 9.83024e-20 0)
(0.000987185 -0.000247886 1.70441e-19 -0.000425068 8.98494e-20 0)
(0.00102504 -0.000335326 2.21216e-19 -0.000371149 1.02661e-19 0)
(0.000971071 -0.000225223 2.57626e-21 -0.000442732 5.07806e-21 0)
(0.00109477 -0.000296093 4.57496e-20 -0.000374416 3.12316e-20 0)
(0.000960136 -0.000211374 4.42484e-20 -0.000451354 2.75784e-20 0)
(0.0010999 -0.000244179 1.36509e-19 -0.000408139 7.13127e-20 0)
(0.000974584 -0.000186606 -8.13703e-20 -0.000452437 -4.64161e-20 0)
(0.00111447 -0.000192194 -9.06998e-20 -0.000437688 -4.89727e-20 0)
(0.00100441 -0.000152358 1.40055e-21 -0.000455009 -2.70465e-21 0)
(0.001134 -0.000138661 1.8603e-19 -0.000462222 1.14484e-19 0)
(0.00104201 -0.000113729 1.29068e-19 -0.000464205 7.91435e-20 0)
(0.00115547 -8.37881e-05 2.40643e-19 -0.000488637 1.50365e-19 0)
(0.00108444 -7.21503e-05 2.25461e-19 -0.000482852 1.39802e-19 0)
(0.00118195 -2.68636e-05 1.98791e-19 -0.000512465 1.24607e-19 0)
(0.00117536 -2.99215e-05 7.91523e-20 -0.000466343 4.01329e-21 -5.92922e-36)
(0.00089973 -0.000281081 -1.14113e-19 -0.000400769 -5.03365e-20 0)
(0.00103968 -0.000245207 -4.97747e-20 -0.00036235 -1.43456e-20 0)
(0.00093513 -0.000270962 -3.74148e-20 -0.000396462 -1.55539e-20 0)
(0.00101149 -0.000231377 3.71121e-20 -0.000386008 1.55188e-20 0)
(0.000937215 -0.000255769 4.31367e-20 -0.000392318 1.79485e-20 0)
(0.000985046 -0.000216663 1.21773e-19 -0.000394152 4.32694e-20 0)
(0.000943889 -0.000237349 8.08405e-20 -0.000388824 3.43429e-20 0)
(0.00096323 -0.000200427 1.19024e-19 -0.000398566 4.45664e-20 0)
(0.000958653 -0.000215826 -2.12394e-22 -0.000388803 4.81509e-22 0)
(0.000949157 -0.000184206 -7.1226e-20 -0.000406406 -3.1307e-20 0)
(0.000979168 -0.00019029 -1.21559e-19 -0.000393208 -5.38388e-20 0)
(0.000943844 -0.000164862 -4.60729e-20 -0.000415094 -1.59019e-20 0)
(0.00100328 -0.000159951 -2.92326e-20 -0.000402089 -1.48706e-20 0)
(0.000946945 -0.000139884 1.16345e-19 -0.00042365 5.06928e-20 0)
(0.0010293 -0.00012412 4.72253e-20 -0.000415965 2.19436e-20 0)
(0.000959324 -0.000108601 1.196e-20 -0.000433474 1.14696e-21 0)
(0.00105716 -8.18866e-05 -4.01639e-20 -0.00043355 -1.96508e-20 0)
(0.000977566 -6.96106e-05 -3.69253e-20 -0.000446895 -1.75036e-20 0)
(0.00108634 -3.20632e-05 -9.84827e-20 -0.000445702 -4.50791e-20 0)
(0.00103321 -2.27703e-05 -1.78941e-20 -0.000438614 -1.94743e-22 -1.72628e-37)
(0.000900577 -0.000267321 -5.41561e-20 -0.000390107 -2.10719e-20 0)
(0.000989982 -0.000239446 7.27244e-20 -0.000363235 2.34972e-20 0)
(0.000924313 -0.000249088 3.55061e-20 -0.000387376 1.48594e-20 0)
(0.000963567 -0.000220533 -3.31476e-20 -0.000376188 -1.36997e-20 0)
(0.000917181 -0.000228217 -7.01448e-20 -0.000383808 -2.69788e-20 0)
(0.000939388 -0.000202696 -3.59862e-20 -0.000376585 -1.02985e-20 0)
(0.000914575 -0.000207062 -4.4178e-20 -0.000378202 -1.12804e-20 0)
(0.00091894 -0.000185355 -4.64107e-20 -0.000376349 -7.99938e-21 0)
(0.000916218 -0.000185533 4.50148e-20 -0.000375166 1.18212e-20 0)
(0.00090254 -0.000166847 7.57882e-20 -0.000378923 2.26298e-20 0)
(0.000921934 -0.000163254 1.59123e-19 -0.00037591 5.26612e-20 0)
(0.00090141 -0.000147306 1.56174e-19 -0.000378763 4.39116e-20 0)
(0.000931079 -0.000136086 -2.54835e-20 -0.000381264 -1.24997e-20 0)
(0.000892426 -0.000123158 5.40931e-20 -0.000387501 2.48275e-20 0)
(0.000943565 -0.000108355 -3.55542e-20 -0.000387295 -1.32661e-20 0)
(0.000892216 -9.34399e-05 0 -0.000395994 0 0)
(0.000961196 -7.56899e-05 -3.5882e-20 -0.000393232 -1.37959e-20 0)
(0.000893255 -5.67742e-05 -2.48272e-20 -0.000405037 -1.53585e-20 0)
(0.000977358 -3.51372e-05 -2.67209e-20 -0.000395365 -1.61194e-20 0)
(0.000912265 -1.15135e-05 0 -0.000402785 0 0)
(0.000868187 -0.00025757 5.18904e-20 -0.000363993 1.86846e-20 0)
(0.000926331 -0.000232558 0 -0.000349016 0 0)
(0.000886783 -0.000235391 3.44998e-20 -0.000363178 1.00313e-20 0)
(0.000905799 -0.000210861 6.53962e-20 -0.000360034 2.1426e-20 0)
(0.000879259 -0.000212224 7.43743e-20 -0.000362054 2.11682e-20 0)
(0.000888409 -0.000191868 1.0857e-19 -0.000359774 2.74747e-20 0)
(0.000875343 -0.000190792 6.405e-20 -0.000358585 2.36872e-20 0)
(0.000876237 -0.000174649 3.33495e-20 -0.000355047 9.26124e-21 0)
(0.000877966 -0.000167861 1.09452e-20 -0.000355322 -1.94266e-21 0)
(0.00085599 -0.000155852 -1.58799e-20 -0.000353999 -1.56137e-20 0)
(0.000864573 -0.000143403 -1.05226e-19 -0.000361445 -3.25403e-20 0)
(0.000838851 -0.000130877 -1.27702e-19 -0.000356896 -4.22866e-20 0)
(0.000874654 -0.000121672 -1.5905e-19 -0.000359404 -4.33481e-20 0)
(0.000835362 -0.000105312 -4.04189e-20 -0.000358628 7.91861e-21 0)
(0.000878577 -9.72717e-05 0 -0.000361892 0 0)
(0.000829831 -7.647e-05 -2.32992e-20 -0.000361462 -1.32651e-20 0)
(0.000880312 -6.9272e-05 -2.46557e-20 -0.000362572 -1.38536e-20 0)
(0.00082177 -4.25295e-05 -3.0161e-20 -0.000362008 -1.02388e-20 0)
(0.00087895 -3.60351e-05 -4.93396e-20 -0.000359595 -1.03277e-20 0)
(0.000813432 -1.77929e-06 -1.74857e-20 -0.000362028 1.99368e-22 1.76728e-37)
(0.000821273 -0.00024416 -3.83934e-20 -0.000326992 -6.90437e-21 0)
(0.000855496 -0.000221832 -3.92685e-20 -0.000318915 -8.84082e-21 0)
(0.000839006 -0.000218719 -6.31668e-20 -0.000331225 -2.14763e-20 0)
(0.00084162 -0.000197827 -3.23239e-20 -0.000328448 -8.57632e-21 0)
(0.000838971 -0.000192349 4.1511e-20 -0.000333412 7.23412e-21 0)
(0.000832027 -0.000175705 6.99365e-20 -0.000327668 1.81408e-20 0)
(0.000829132 -0.000165694 9.13832e-20 -0.000333983 3.19161e-20 0)
(0.000807368 -0.000151203 0 -0.000332989 0 0)
(0.000821259 -0.000144139 -4.19791e-20 -0.000334292 -8.38596e-21 0)
(0.000800122 -0.000128803 -1.52844e-19 -0.00033255 -5.11014e-20 0)
(0.000820916 -0.000124658 -1.68391e-19 -0.000334094 -5.29099e-20 0)
(0.000791744 -0.000107977 -1.8615e-19 -0.000333698 -6.26204e-20 0)
(0.000820437 -0.000105182 -2.05237e-19 -0.000336244 -6.48912e-20 0)
(0.000783233 -8.49778e-05 -1.78522e-19 -0.000334333 -4.65528e-20 0)
(0.000817751 -8.43947e-05 -2.39681e-20 -0.000337531 -1.28868e-20 0)
(0.00077273 -5.88707e-05 2.158e-20 -0.000332154 1.25543e-20 0)
(0.000811004 -6.15018e-05 2.27282e-20 -0.000334858 1.28661e-20 0)
(0.000757935 -2.86301e-05 -4.76251e-20 -0.000325338 -2.24642e-20 0)
(0.000798343 -3.5788e-05 2.33841e-20 -0.000329456 -3.22687e-21 0)
(0.000724072 7.72125e-06 1.56317e-20 -0.000329971 -1.48437e-22 1.3158e-37)
(0.00076545 -0.000215807 -1.0446e-20 -0.000268395 -3.67693e-22 0)
(0.000776807 -0.000192659 -1.2987e-20 -0.000273568 -7.21801e-22 0)
(0.000781628 -0.000189404 6.67712e-21 -0.000278456 3.81148e-22 0)
(0.000767393 -0.000165913 7.39116e-21 -0.000287139 2.53976e-22 0)
(0.000779463 -0.000164545 -3.01858e-20 -0.000287549 -1.06996e-20 0)
(0.0007584 -0.000140038 -2.92143e-20 -0.000295414 -1.09066e-20 0)
(0.000784249 -0.000142156 0 -0.000289403 0 0)
(0.000751304 -0.000117651 2.55017e-20 -0.000299723 1.23595e-20 0)
(0.000782015 -0.00012095 1.35202e-19 -0.000294869 4.65834e-20 0)
(0.000746167 -9.60065e-05 7.62653e-20 -0.000303308 2.42902e-20 0)
(0.000779133 -0.000101383 5.91332e-20 -0.000301111 2.26643e-20 0)
(0.000741729 -7.48257e-05 4.68505e-20 -0.000306931 2.55222e-20 0)
(0.000774505 -8.27976e-05 1.87833e-19 -0.000307229 7.19769e-20 0)
(0.000736329 -5.35717e-05 1.22716e-19 -0.000308886 5.08966e-20 0)
(0.000766734 -6.47387e-05 7.49504e-20 -0.000311227 3.70696e-20 0)
(0.000727807 -3.18402e-05 0 -0.000306736 0 0)
(0.000753986 -4.71567e-05 4.06746e-20 -0.000310363 1.18964e-20 0)
(0.000713244 -9.39358e-06 6.57689e-20 -0.000298952 2.4508e-20 0)
(0.000733811 -3.08903e-05 -2.72309e-20 -0.000307989 -1.14143e-20 0)
(0.000663013 1.61544e-05 -2.50069e-20 -0.000309369 -1.11554e-21 3.29619e-37)
(0.000704554 -0.000168698 -1.00409e-19 -0.000216858 -4.50971e-20 0)
(0.000716242 -0.000134179 -3.62251e-20 -0.000230342 -2.67742e-20 0)
(0.000726806 -0.000145639 -2.85955e-20 -0.000235787 -1.31455e-20 0)
(0.000715111 -0.000111163 0 -0.00024707 0 0)
(0.000732528 -0.000123016 -6.35102e-20 -0.000250122 -3.01808e-20 0)
(0.000713569 -8.91947e-05 -3.27749e-20 -0.000258044 -1.77724e-20 0)
(0.000735913 -0.000101859 -1.19066e-19 -0.000260134 -5.56373e-20 0)
(0.000712496 -6.83226e-05 -1.37738e-19 -0.000267497 -7.32554e-20 0)
(0.000737656 -8.21903e-05 -2.34169e-19 -0.000269082 -1.10814e-19 0)
(0.000711988 -4.85383e-05 -7.19514e-20 -0.000276739 -3.73362e-20 0)
(0.000737052 -6.40536e-05 1.92338e-20 -0.000277644 5.97723e-21 0)
(0.000711672 -2.99728e-05 1.73147e-19 -0.000285368 9.27912e-20 0)
(0.000733084 -4.77167e-05 4.65282e-20 -0.000285413 2.6055e-20 0)
(0.000710795 -1.31733e-05 2.67545e-20 -0.000292106 1.45422e-20 0)
(0.000724655 -3.37224e-05 0 -0.000291637 0 0)
(0.000708582 6.48974e-07 -9.51721e-20 -0.000294942 -5.65063e-20 0)
(0.00071117 -2.29272e-05 -1.45262e-19 -0.000295775 -7.22617e-20 0)
(0.00070473 9.54402e-06 -7.61065e-20 -0.000291384 -3.57431e-20 0)
(0.000691955 -1.62853e-05 -7.78547e-21 -0.000298526 1.5041e-20 0)
(0.000675352 1.41364e-05 1.43701e-20 -0.000290355 1.06125e-21 1.25431e-36)
(0.000641327 -8.77408e-05 9.87468e-20 -0.000215825 6.9768e-20 0)
(0.000684856 -3.11177e-05 8.82729e-20 -0.000234329 9.78478e-20 -3.33417e-35)
(0.000665344 -8.05409e-05 1.67836e-19 -0.00024441 1.21011e-19 0)
(0.000703941 -2.10466e-05 7.27085e-20 -0.000254049 9.33751e-20 -3.43286e-35)
(0.000669592 -6.59655e-05 1.06589e-19 -0.000274399 6.98552e-20 0)
(0.000716004 -1.34183e-05 0 -0.00026856 0 0)
(0.000671517 -5.0452e-05 8.41727e-20 -0.000295763 5.88278e-20 0)
(0.000724179 -7.57242e-06 8.76729e-20 -0.000279175 7.95912e-20 -3.31151e-35)
(0.000673474 -3.61086e-05 1.33225e-19 -0.000309907 8.53954e-20 0)
(0.000728613 -2.881e-06 -1.01854e-20 -0.000287352 -5.24551e-21 9.61785e-37)
(0.000675747 -2.33922e-05 -8.26978e-20 -0.000317937 -5.06405e-20 0)
(0.000729355 1.10046e-06 -2.27806e-20 -0.00029322 -1.71147e-20 -4.30224e-36)
(0.000677933 -1.25313e-05 9.5886e-20 -0.000320515 5.16927e-20 0)
(0.000726666 4.43452e-06 1.36978e-19 -0.000296596 9.46293e-20 -9.05416e-35)
(0.000679367 -3.9899e-06 1.74705e-19 -0.000318274 1.03434e-19 0)
(0.000721225 6.70704e-06 5.2769e-20 -0.000297189 3.2514e-20 -1.49486e-35)
(0.000679313 1.42828e-06 1.18306e-19 -0.000312174 6.08234e-20 0)
(0.000714267 7.23254e-06 7.57134e-20 -0.000294671 4.02337e-20 -3.57473e-35)
(0.000677456 2.57816e-06 1.3215e-19 -0.000304095 7.08616e-20 0)
(0.00070786 8.06662e-07 1.97931e-20 -0.00028799 6.3254e-21 -5.60707e-36)
(0.00169153 0.00022738 0 -0.000375311 0 0)
(0.00154873 0.000170695 -1.72162e-19 -0.000195324 -1.55251e-19 0)
(0.00136086 0.00032822 -2.17998e-19 -0.000290276 -1.21782e-19 0)
(0.00137564 0.000219678 -1.76267e-19 -0.000225085 -2.4017e-19 0)
(0.00117159 0.00035708 0 -0.000170299 0 0)
(0.00124408 0.000242446 6.59048e-20 -0.000275362 5.4732e-20 0)
(0.00104536 0.000345504 1.65065e-19 -9.80561e-05 8.02175e-20 0)
(0.00114649 0.000247691 1.47507e-19 -0.000339106 1.95232e-19 0)
(0.000955358 0.000306558 -8.91359e-20 -6.96742e-05 -3.78128e-20 0)
(0.00107451 0.000243495 -1.3835e-19 -0.000397359 -1.83863e-19 0)
(0.000886725 0.000249743 1.63017e-19 -7.57611e-05 7.73675e-20 0)
(0.0010272 0.000234202 2.6531e-19 -0.000440309 3.4965e-19 0)
(0.000835269 0.000177421 -4.80061e-21 -0.000116047 -1.83213e-21 0)
(0.0010158 0.00022064 -2.07635e-20 -0.00046451 -5.08449e-20 0)
(0.000805897 8.86371e-05 1.30045e-19 -0.00019394 1.09481e-19 0)
(0.00105954 0.000203375 3.38131e-19 -0.000461485 4.4078e-19 0)
(0.0008118 -1.54481e-05 2.44804e-19 -0.0002933 2.12711e-19 0)
(0.00118105 0.000187562 2.04071e-20 -0.00039462 5.99783e-20 0)
(0.000868942 -0.000129801 -5.39063e-20 -0.000346129 -8.23056e-20 0)
(0.000915429 0.000236532 -9.88087e-21 -0.00048193 -3.86371e-21 -6.1359e-36)
(0.00191274 0.000300274 6.56474e-20 -0.000998393 -8.31639e-20 0)
(0.00145755 0.000297294 -2.73797e-20 -0.000738027 -1.69281e-19 0)
(0.00162447 0.00045141 1.95579e-19 -0.000780936 4.29367e-19 0)
(0.0013419 0.000365723 5.12102e-19 -0.000737767 9.14691e-19 0)
(0.00147929 0.000584378 5.00474e-19 -0.000685465 8.08095e-19 0)
(0.00129641 0.000400949 1.30653e-19 -0.00074483 4.18291e-19 0)
(0.00136027 0.000642031 -1.6035e-19 -0.000570977 -3.67546e-19 0)
(0.00127378 0.000407556 1.25017e-19 -0.0007491 -4.33419e-20 0)
(0.00125481 0.000632656 3.81186e-19 -0.000455753 7.6462e-19 0)
(0.00124549 0.000398057 2.90765e-19 -0.000753262 7.49488e-19 0)
(0.00116942 0.000582189 0 -0.000369096 0 0)
(0.00124358 0.000369332 8.5802e-20 -0.000748099 8.85743e-20 0)
(0.00110532 0.000504641 1.93793e-19 -0.000328157 2.90069e-19 0)
(0.00128662 0.000319141 8.15787e-20 -0.000732446 1.31081e-19 0)
(0.00105589 0.000402678 -6.09833e-20 -0.000338509 -1.12152e-19 0)
(0.00137766 0.000252011 3.61389e-19 -0.000703852 4.97447e-19 0)
(0.00100308 0.000277745 1.98324e-19 -0.000396503 4.90414e-19 0)
(0.00150327 0.000174766 2.96779e-19 -0.000660969 5.95972e-19 0)
(0.000912584 0.000123966 2.00861e-19 -0.000497812 2.9442e-19 0)
(0.00153345 5.9564e-05 0 -0.000604974 0 0)
(0.00191327 0.000234364 3.38542e-19 -0.00132941 4.86924e-19 0)
(0.0015562 0.000258853 1.52797e-19 -0.0010561 2.63861e-19 0)
(0.00195725 0.000325151 9.37576e-20 -0.00127429 7.08686e-20 0)
(0.00171327 0.000303937 -1.1268e-19 -0.00111326 -1.31138e-19 0)
(0.00192362 0.000410173 -3.06654e-19 -0.00123184 -4.35358e-19 0)
(0.00167149 0.000306279 -4.40542e-19 -0.00105951 -5.44428e-19 0)
(0.00168727 0.000397269 -6.67587e-19 -0.000924514 -1.01199e-18 0)
(0.00142543 0.000253211 -6.61366e-19 -0.000862165 -1.02611e-18 0)
(0.00154376 0.000431312 -8.29772e-19 -0.00078518 -1.18892e-18 0)