# PointID PointCoord Dx Dy Dz magD
2 (0 1 0) 0 1.92254e-05 -0.000136563 0.00013791
2 (0 1 0) 0 1.92254e-05 -0.000136563 0.00013791
