/*--------------------------------*- C++ -*----------------------------------*\
| =========                 |                                                 |
| \\      /  F ield         | OpenFOAM: The Open Source CFD Toolbox           |
|  \\    /   O peration     | Version:  v2012                                 |
|   \\  /    A nd           | Website:  www.openfoam.com                      |
|    \\/     M anipulation  |                                                 |
\*---------------------------------------------------------------------------*/
FoamFile
{
    version     2.0;
    format      ascii;
    class       volVectorField;
    location    "17";
    object      D;
}
// * * * * * * * * * * * * * * * * * * * * * * * * * * * * * * * * * * * * * //

dimensions      [0 1 0 0 0 0 0];


internalField   nonuniform List<vector> 
470
(
(0.00163527 4.68134e-06 0)
(0.00166466 -5.38325e-06 0)
(0.00155372 -9.82034e-05 0)
(0.00185188 -4.43445e-06 0)
(0.00149684 -2.55617e-05 0)
(0.00166599 -0.000116079 0)
(0.00158128 -1.76964e-05 0)
(0.0014995 -2.96867e-05 0)
(0.00105399 -0.000171006 0)
(0.00154264 -6.02701e-05 0)
(0.00111348 -0.000145313 0)
(0.00069106 -0.000467715 0)
(0.000749544 -0.000392037 0)
(0.00180804 -7.53581e-06 0)
(0.000835074 -0.00028072 0)
(0.00132595 -0.000100935 0)
(0.00152619 -5.4223e-05 0)
(0.00176521 -4.00705e-06 0)
(0.00173548 -1.57482e-06 0)
(0.00164321 -1.20148e-06 0)
(0.00131875 -0.000116465 0)
(0.00183041 -2.79176e-05 0)
(0.00155466 -0.000112723 0)
(0.00180557 -8.67483e-06 0)
(0.00102844 -0.000262926 0)
(0.00161063 -1.52239e-05 0)
(0.00111002 -0.000201993 0)
(0.00146249 -0.000137565 0)
(0.00169272 -9.25847e-05 0)
(0.00182944 -2.35346e-06 0)
(0.00165553 2.21186e-06 0)
(0.000839464 -0.000289113 0)
(0.00152169 -7.17222e-05 0)
(0.000936639 -0.000658683 0)
(0.00163959 -0.000123588 0)
(0.00170055 -0.000103886 0)
(0.000639581 -0.000423718 0)
(0.00165658 -4.85585e-06 0)
(0.0016627 1.66088e-06 0)
(0.00161818 -3.41957e-06 0)
(0.00124406 -0.000116911 0)
(0.00172175 4.21195e-07 0)
(0.000548119 -0.000654657 0)
(0.00130082 -8.71269e-05 0)
(0.00142518 -0.000141508 0)
(0.000452061 -0.000740189 0)
(0.00159554 -7.55317e-07 0)
(0.00112082 -0.000170948 0)
(0.00118769 -0.000140894 0)
(0.00107965 -0.000183007 0)
(0.000536813 -0.00049478 0)
(0.00107615 -0.000562416 0)
(0.00174781 -4.52879e-06 0)
(0.00173607 -1.51683e-06 0)
(0.00184846 -1.92615e-05 0)
(0.00182867 -2.56926e-05 0)
(2.1954e-06 -0.00139983 0)
(4.2049e-06 -0.00137145 0)
(0.00135684 -5.24103e-05 0)
(0.00148554 -0.000119873 0)
(0.00163647 -2.21299e-05 0)
(0.000963892 -0.000281473 0)
(0.000877061 -0.000278495 0)
(0.000749249 -0.00051332 0)
(0.00127938 -0.000456766 0)
(0.000357191 -0.00107376 0)
(0.00161678 -7.67997e-06 0)
(0.00180415 -3.78938e-05 0)
(0.00149779 -8.53343e-05 0)
(0.00134631 -7.27926e-05 0)
(0.00164815 1.5475e-06 0)
(0.00155181 -4.65848e-05 0)
(0.000830795 -0.00060304 0)
(0.00148165 -2.6239e-05 0)
(0.000689426 -0.00067646 0)
(0.00189489 -7.50859e-06 0)
(0.00161166 -5.29858e-05 0)
(0.00162034 -4.42472e-05 0)
(0.00140651 -3.94701e-05 0)
(9.48613e-05 -0.00131604 0)
(0.0012957 -7.87051e-05 0)
(0.000536932 -0.000916047 0)
(0.0015213 -9.67087e-05 0)
(0.00147619 -0.000116278 0)
(0.00101267 -0.000209342 0)
(0.00186575 -1.84168e-05 0)
(0.000627993 -0.000611992 0)
(0.00125546 -0.000564368 0)
(0.000504691 -0.000801456 0)
(0.000882246 -0.000494321 0)
(0.000662119 -0.000692395 0)
(0.000721959 -0.000381268 0)
(0.00151102 -2.25391e-05 0)
(0.00159274 -3.50682e-05 0)
(0.00080198 -0.000319555 0)
(0.000767704 -0.000326591 0)
(0.00156213 -9.71794e-06 0)
(0.00160535 -2.95264e-05 0)
(0.0014567 -3.41122e-05 0)
(0.00161276 -0.000109576 0)
(0.00180293 -2.08845e-05 0)
(0.00112053 -0.000149051 0)
(0.000879683 -0.0006589 0)
(0.0018735 -1.09127e-05 0)
(0.00188485 -7.56593e-06 0)
(0.00175355 -7.15131e-05 0)
(0.00177438 -6.14565e-05 0)
(0.001535 -7.05461e-06 0)
(0.0015952 -9.81992e-05 0)
(0.000817798 -0.000840759 0)
(0.000456238 -0.000826008 0)
(0.00075219 -0.000818849 0)
(0.00189605 -7.21315e-06 0)
(0.00168098 -0.000124319 0)
(0.00147267 -7.8041e-05 0)
(0.00141457 -4.71956e-05 0)
(0.00186602 1.53098e-06 0)
(0.00107705 -0.000187393 0)
(0.00154619 -1.14447e-05 0)
(0.00167753 5.72456e-06 0)
(0.00150119 -1.75168e-05 0)
(0.00183587 -1.31835e-05 0)
(0.00178896 -2.93611e-06 0)
(0.00193542 2.92867e-06 0)
(0.00182688 -5.05457e-05 0)
(0.00136146 -5.93955e-05 0)
(0.00133012 -6.26797e-05 0)
(0.00179796 -2.85599e-05 0)
(0.00103117 -0.000213374 0)
(0.00181956 -1.19612e-05 0)
(0.00157276 -8.40392e-06 0)
(0.0015353 -1.38423e-05 0)
(0.00154908 -2.01023e-05 0)
(0.00177922 -2.16461e-05 0)
(0.00186985 -1.85061e-05 0)
(0.00158491 -0.000116445 0)
(0.00149256 -3.8204e-05 0)
(0.00123407 -0.000425753 0)
(0.000581111 -0.000533808 0)
(0.00174157 -9.80018e-05 0)
(0.00171857 -0.000100659 0)
(0.00100605 -0.00035527 0)
(0.00177555 -3.3931e-05 0)
(0.00165749 -3.46497e-05 0)
(0.0016848 -3.90753e-05 0)
(0.00163161 1.19845e-06 0)
(0.00190434 -4.04167e-06 0)
(0.000890331 -0.000332149 0)
(0.00172411 -2.51001e-05 0)
(0.000751288 -0.000450846 0)
(0.00172007 -1.77476e-06 0)
(0.00188756 -9.66722e-07 0)
(0.00142946 -8.58083e-05 0)
(0.00187493 -1.24329e-05 0)
(0.00105172 -0.000793276 0)
(0.00129954 -8.85817e-05 0)
(0.00156466 -0.000156692 0)
(0.00163701 -1.20284e-05 0)
(0.00164853 -1.65674e-05 0)
(0.00157958 -6.2262e-05 0)
(0.00100541 -0.000739981 0)
(0.000933349 -0.000236071 0)
(0.000119732 -0.00104717 0)
(0.00092171 -0.000258916 0)
(0.000108988 -0.00130802 0)
(0.00134854 -0.000150849 0)
(0.00136819 -0.000116 0)
(0.000974602 -0.000230059 0)
(0.00143358 -3.43872e-05 0)
(0.00127298 -0.000131902 0)
(0.00133541 -0.000106373 0)
(0.00170916 -4.93923e-05 0)
(0.00170419 -6.0351e-05 0)
(0.00164639 -5.54549e-05 0)
(0.00167451 -4.97203e-05 0)
(0.00165972 -2.36325e-05 0)
(0.00175652 -2.42283e-06 0)
(0.00162905 -1.21006e-05 0)
(0.00105494 -0.000286387 0)
(0.00138168 -7.48042e-05 0)
(0.00137358 -6.37127e-05 0)
(0.000508434 -0.000610031 0)
(0.00151259 -3.23119e-05 0)
(0.00138419 -6.80578e-05 0)
(0.00137812 -8.67011e-05 0)
(0.00104587 -0.000176893 0)
(0.00167377 -7.9438e-05 0)
(0.00163931 -5.1214e-06 0)
(0.000216082 -0.000934281 0)
(0.00178457 -1.10542e-05 0)
(0.00172 -8.39989e-05 0)
(0.0016189 -4.29491e-06 0)
(0.00143114 -6.00136e-05 0)
(0.00146686 -4.96604e-05 0)
(0.00161473 -3.88795e-06 0)
(0.00172588 -5.16295e-06 0)
(0.00152284 -0.000122859 0)
(0.00160484 -7.62368e-05 0)
(0.00159616 -8.99637e-05 0)
(0.000439951 -0.000626354 0)
(0.00165236 -6.60641e-06 0)
(0.00164444 -6.6415e-07 0)
(0.000153814 -0.000866481 0)
(0.00128885 -0.000257811 0)
(0.00141109 -8.66939e-05 0)
(0.00138862 -0.00011936 0)
(0.00169716 -2.85546e-06 0)
(0.00170229 -2.49273e-06 0)
(0.00126842 -0.000307688 0)
(0.00159973 -6.20569e-05 0)
(0.00180966 -2.43678e-05 0)
(0.00152023 -8.66025e-05 0)
(0.00162118 -2.37821e-05 0)
(0.00174699 -8.89815e-06 0)
(0.00108416 -0.000163528 0)
(0.00114236 -0.000137837 0)
(0.00173003 -2.87904e-05 0)
(0.00164057 -6.81747e-06 0)
(0.00174234 -1.48093e-05 0)
(0.00124293 -0.00016833 0)
(0.001584 -7.85828e-05 0)
(0.00158981 -1.00349e-06 0)
(0.0016527 -8.83629e-05 0)
(0.00176029 -1.04017e-05 0)
(0.00117754 -0.000201843 0)
(0.00163593 -0.000106414 0)
(0.00113418 -0.000138419 0)
(0.00160294 -3.66514e-05 0)
(0.000270141 -0.00117378 0)
(0.000510752 -0.000538419 0)
(0.00117925 -0.000127465 0)
(0.00157073 -6.15039e-05 0)
(0.00193859 9.46722e-07 0)
(0.00179112 -8.05889e-05 0)
(0.00141659 -0.000106987 0)
(0.00157392 -2.39406e-05 0)
(0.0014047 -0.000320522 0)
(0.00180279 -4.96464e-05 0)
(0.00182638 -4.53787e-05 0)
(0.00191522 -1.67161e-06 0)
(0.00189049 -8.16066e-06 0)
(0.00190589 -3.23247e-06 0)
(0.00177419 -7.44403e-05 0)
(0.000399597 -0.00114218 0)
(0.000167082 -0.00128181 0)
(0.000160295 -0.00124192 0)
(3.24156e-05 -0.0013738 0)
(0.00180097 -4.20569e-05 0)
(0.0017064 1.43962e-07 0)
(0.00164188 -6.86273e-05 0)
(0.00167067 -6.75495e-05 0)
(0.0014818 -0.000109585 0)
(0.00195018 2.94937e-06 0)
(0.00181351 -6.97883e-05 0)
(0.00125496 -9.42162e-05 0)
(0.00168476 6.55009e-06 0)
(0.00167685 -4.06915e-06 0)
(0.00193186 1.85402e-07 0)
(0.00180357 -6.3262e-05 0)
(0.00166044 5.43817e-06 0)
(0.0014434 -4.12101e-05 0)
(0.000550987 -0.000855115 0)
(0.00164133 -2.81101e-06 0)
(0.00143563 -0.000277564 0)
(0.00164129 -3.40393e-06 0)
(0.00191338 -2.12699e-06 0)
(0.00176222 -8.48751e-05 0)
(0.00178377 -6.69618e-07 0)
(0.00165938 -2.22401e-06 0)
(0.00139199 -0.000133989 0)
(0.00155705 -0.000139273 0)
(0.00145353 -0.000218548 0)
(0.0006689 -0.000392872 0)
(0.00135652 -0.000215526 0)
(4.51951e-05 -0.00134058 0)
(0.00115512 -0.000422766 0)
(0.00106055 -0.000478002 0)
(0.00145585 -7.56735e-05 0)
(0.0010007 -0.000202719 0)
(0.00176426 -4.071e-05 0)
(0.00153498 -3.80253e-05 0)
(0.00124244 -9.46672e-05 0)
(0.00156858 -8.8909e-06 0)
(0.00127894 -8.01814e-05 0)
(0.00185033 -5.08616e-06 0)
(0.00187133 -7.47077e-06 0)
(0.00134364 -0.00011998 0)
(0.000287623 -0.00090023 0)
(0.00174818 -1.87311e-05 0)
(0.00157768 -2.10029e-05 0)
(0.00128958 -0.00034919 0)
(0.00140979 -0.000201025 0)
(0.00159491 -1.26761e-05 0)
(0.00112536 -0.00016524 0)
(0.00118009 -0.00011713 0)
(0.00170134 -1.83466e-05 0)
(0.00177442 -1.83862e-05 0)
(0.00161584 -0.000134773 0)
(0.00116859 -0.000115907 0)
(0.00182038 -1.45365e-06 0)
(0.00177234 -4.12665e-05 0)
(0.00139278 -0.000425765 0)
(0.00181727 -4.03111e-05 0)
(0.00184498 -2.98273e-05 0)
(0.000478258 -0.000923857 0)
(0.00141019 -4.606e-05 0)
(0.00172851 -5.60679e-05 0)
(0.00172979 -4.4654e-05 0)
(0.00151486 -4.71835e-05 0)
(0.00151455 -3.7899e-05 0)
(0.00087021 -0.000379387 0)
(0.00104507 -0.000373447 0)
(0.00105552 -0.000788731 0)
(0.00167443 -3.0442e-05 0)
(0.00143581 -0.000145903 0)
(0.000843524 -0.000339696 0)
(0.00136681 -0.000165701 0)
(0.00160348 -2.78436e-05 0)
(0.00105644 -0.000181532 0)
(0.00165632 -8.29197e-06 0)
(0.00124882 -0.000162223 0)
(0.00167541 -8.10273e-06 0)
(0.00168024 -1.85413e-05 0)
(0.00179429 -1.43257e-05 0)
(0.00116995 -0.000129247 0)
(0.00176608 -1.13303e-06 0)
(0.00152808 -0.000134759 0)
(0.0014359 -6.02485e-05 0)
(0.00148144 -4.1854e-05 0)
(0.0015288 -0.000118897 0)
(0.00160091 -6.49788e-06 0)
(0.00156722 -8.28639e-05 0)
(0.00134688 -6.11086e-05 0)
(0.00132931 -6.05649e-05 0)
(0.0015445 -5.9916e-05 0)
(0.00143409 -3.19312e-05 0)
(0.00168476 -2.88869e-06 0)
(0.00171863 -1.41744e-05 0)
(0.000385832 -0.000638556 0)
(0.00170734 -7.32072e-05 0)
(0.00170975 -5.54134e-06 0)
(0.000134093 -0.00116677 0)
(0.0011632 -0.000176793 0)
(0.00161193 -3.70306e-05 0)
(0.00171069 -3.59705e-05 0)
(0.001283 -0.00014701 0)
(0.000396068 -0.000677322 0)
(0.00170145 -2.27523e-05 0)
(0.00194326 7.41456e-07 0)
(0.00178867 -8.93561e-05 0)
(0.00169821 1.58228e-06 0)
(0.00149635 -1.91115e-05 0)
(0.00128954 -9.92643e-05 0)
(0.00134687 -0.000149737 0)
(0.000218424 -0.000847149 0)
(0.00162929 -1.3495e-05 0)
(0.000178474 -0.00113265 0)
(0.00154459 -3.59513e-05 0)
(0.00192396 -1.59942e-06 0)
(0.00163683 -2.85234e-06 0)
(0.00192199 -2.53013e-07 0)
(0.00192131 1.15806e-06 0)
(0.00185267 -3.08677e-05 0)
(0.0014773 -6.28891e-05 0)
(0.00112811 -0.000714939 0)
(0.00175353 -0.000107837 0)
(0.00169066 -5.40296e-06 0)
(0.000326444 -0.00075128 0)
(0.00162355 -1.19027e-05 0)
(0.00175881 -9.92522e-05 0)
(0.00162397 8.91683e-07 0)
(0.00148144 -1.92417e-05 0)
(0.000127146 -0.00124176 0)
(0.00186256 -6.75568e-06 0)
(0.00153023 -0.000187024 0)
(0.00149269 -0.00027086 0)
(0.00163665 -9.8108e-06 0)
(0.0017576 -5.83285e-05 0)
(0.000781356 -0.000933566 0)
(0.00150106 -0.000166881 0)
(0.00139126 -4.76691e-05 0)
(0.000758344 -0.000722245 0)
(3.36406e-05 -0.00124688 0)
(0.00184685 -1.53069e-05 0)
(0.00175523 -2.74049e-05 0)
(0.000978485 -0.000968011 0)
(0.000319058 -0.000944964 0)
(0.000272954 -0.00106674 0)
(0.00132019 -0.000140209 0)
(0.00170945 -1.09491e-05 0)
(0.00100675 -0.000460992 0)
(0.00179742 -2.7388e-06 0)
(0.0015876 -0.000132324 0)
(0.000683948 -0.000753479 0)
(0.00172783 -6.68121e-05 0)
(0.00172176 -8.12752e-06 0)
(0.00190365 1.3218e-06 0)
(0.00172556 -0.000118022 0)
(0.00092731 -0.00023684 0)
(0.00145577 -0.000100736 0)
(0.000981353 -0.000206782 0)
(0.000217497 -0.00103274 0)
(0.00157617 -7.13422e-05 0)
(0.00157927 -2.68757e-05 0)
(0.000851866 -0.000478257 0)
(0.000145188 -0.00127515 0)
(0.000916187 -0.00039317 0)
(0.00162207 -9.06924e-05 0)
(0.0019473 2.84855e-07 0)
(0.0019596 1.64219e-06 0)
(0.00177825 -0.000104148 0)
(0.0018008 -9.17538e-05 0)
(0.00175234 -1.71037e-07 0)
(0.00149431 -0.000143276 0)
(5.42261e-05 -0.00129819 0)
(0.00114013 -0.000641414 0)
(0.00183667 -1.8837e-05 0)
(0.00155098 -4.48476e-05 0)
(0.000372763 -0.00079687 0)
(0.00162137 -1.00587e-05 0)
(0.00142711 -3.42562e-05 0)
(0.00162902 -4.21783e-06 0)
(0.00148382 -7.71746e-05 0)
(0.00182596 -1.67101e-05 0)
(0.00154121 -7.712e-05 0)
(0.000525438 -0.0011446 0)
(0.000292785 -0.00104608 0)
(0.00127269 -0.000184156 0)
(0.000964128 -0.000255656 0)
(0.00011679 -0.00114948 0)
(0.000889904 -0.000287512 0)
(0.00113929 -0.000254568 0)
(0.00125456 -8.4539e-05 0)
(0.00120915 -0.000103774 0)
(0.00161762 -4.14388e-05 0)
(0.00161689 -2.87049e-05 0)
(0.00188588 -3.92298e-06 0)
(0.00170799 -0.000117337 0)
(0.00177187 -5.16612e-05 0)
(0.00125475 -9.20702e-05 0)
(0.00117045 -0.000271364 0)
(0.000993968 -0.000210383 0)
(0.0018307 -8.85832e-06 0)
(0.00116716 -0.000351807 0)
(0.00127231 -0.000132591 0)
(0.0011364 -0.000334405 0)
(0.00124862 -0.00023691 0)
(0.00166395 -9.77414e-05 0)
(0.00162566 -1.32506e-05 0)
(0.00175565 -5.1453e-05 0)
(0.00148288 -8.89591e-05 0)
(0.00116628 -0.000147713 0)
(0.00121523 -0.000131659 0)
(0.00173145 -3.74225e-05 0)
(0.00175515 -3.2274e-05 0)
(0.00154545 -2.60446e-05 0)
(0.00121089 -0.00010937 0)
(0.00120826 -0.00016147 0)
(0.00154299 -1.94048e-05 0)
(0.00156406 -1.14025e-05 0)
(0.00150175 -4.58486e-05 0)
(0.00146591 -2.41866e-05 0)
(0.00159347 -1.03804e-05 0)
(0.00123188 -0.000138952 0)
(0.00122096 -0.000114378 0)
(0.0012444 -0.000115243 0)
(0.00167439 -1.49421e-05 0)
(0.00168838 -1.08618e-05 0)
(0.00127722 -8.01516e-05 0)
(0.00118801 -0.000112867 0)
)
;

boundaryField
{
    back
    {
        type            empty;
    }
    front
    {
        type            empty;
    }
    down
    {
        type            symmetry;
    }
    right
    {
        type            calculated;
        value           nonuniform List<vector> 10((0.0019117 1.20639e-06 -1.61979e-21) (0.0019498 9.19965e-06 1.84165e-21) (0.00184373 -4.24612e-05 -2.32551e-21) (0.00188678 -9.21935e-06 1.9617e-21) (0.00196105 5.28618e-06 9.39456e-22) (0.00182662 -6.61151e-05 -2.29799e-21) (0.00193221 5.62671e-06 -2.35493e-21) (0.00186431 -2.588e-05 1.67324e-21) (0.0019674 2.52211e-06 -7.1355e-22) (0.00181042 -8.89067e-05 -3.23008e-21));
    }
    up
    {
        type            calculated;
        value           nonuniform List<vector> 
20
(
(0.00082695 -0.000303813 0)
(0.00142605 -0.000152656 0)
(0.000492427 -0.000515862 -1.63573e-20)
(-3.36964e-05 -0.00137966 -7.6023e-21)
(0.00167928 -0.000131893 5.94878e-22)
(0.00102046 -0.000224266 4.4225e-21)
(5.13769e-05 -0.00105931 -1.60196e-21)
(0.000909016 -0.000271392 0)
(0.00155679 -0.000146107 -1.25743e-21)
(0.000641745 -0.000408214 2.94739e-21)
(0.00161451 -0.000141221 -2.2862e-21)
(0.00124546 -0.000170499 1.37155e-21)
(0.000345922 -0.000651861 6.52472e-21)
(0.00115988 -0.000187404 1.16312e-21)
(0.00134547 -0.000158035 1.3026e-21)
(0.000171761 -0.000858754 -3.98116e-21)
(-4.98861e-06 -0.0012553 6.86624e-21)
(0.00172287 -0.000122514 -6.08655e-22)
(0.00177548 -0.00010829 -1.28853e-21)
(0.00149326 -0.000149065 7.28757e-22)
)
;
    }
    left
    {
        type            symmetry;
    }
    hole
    {
        type            calculated;
        value           nonuniform List<vector> 8((0.00131212 -0.000610153 8.49896e-23) (0.00156203 -0.000184387 2.64332e-21) (0.000423507 -0.000194204 -1.02861e-19) (0.00158924 -7.1728e-05 -2.00435e-21) (0.00142061 -0.000465841 4.99814e-21) (0.00110036 -0.000783753 -1.19886e-20) (0.00116181 -0.000731912 0) (0.00150245 -0.000299692 -8.23156e-21));
    }
}


// ************************************************************************* //
