/*--------------------------------*- C++ -*----------------------------------*\
| =========                 |                                                 |
| \\      /  F ield         | OpenFOAM: The Open Source CFD Toolbox           |
|  \\    /   O peration     | Version:  v2012                                 |
|   \\  /    A nd           | Website:  www.openfoam.com                      |
|    \\/     M anipulation  |                                                 |
\*---------------------------------------------------------------------------*/
FoamFile
{
    version     2.0;
    format      ascii;
    class       volSymmTensorField;
    location    "17";
    object      epsilon;
}
// * * * * * * * * * * * * * * * * * * * * * * * * * * * * * * * * * * * * * //

dimensions      [0 0 0 0 0 0 0];


internalField   nonuniform List<symmTensor> 
470
(
(0.000223324 -0.000128854 -3.96028e-20 3.78748e-06 6.18807e-22 0)
(0.000162161 -7.79765e-05 3.44662e-21 -1.73256e-05 1.083e-21 0)
(0.00063868 -0.000120619 -1.20043e-20 -0.000251306 5.83475e-21 0)
(0.00039315 -2.61134e-05 -3.61246e-20 -5.83556e-05 -3.21876e-21 0)
(0.000285654 -0.00030617 6.47729e-20 -0.000148007 1.34942e-20 0)
(0.000579914 -3.81448e-05 -1.0705e-19 -0.000209473 -1.54723e-20 0)
(0.000441828 -0.000233345 2.76826e-20 -7.60005e-05 5.41884e-22 0)
(0.000291447 -0.000259801 -5.83488e-20 -0.000166644 -6.28293e-21 0)
(0.000944483 -0.000194435 -1.35824e-20 -0.000396147 -4.73011e-21 0)
(0.000556804 -0.000209919 -7.78782e-20 -0.000238618 -1.28583e-20 0)
(0.000819641 -0.000277305 5.784e-20 -0.000397933 2.93484e-20 0)
(0.00112011 -5.86901e-05 -1.50628e-19 -0.000647052 -7.59227e-20 0)
(0.00110019 -4.22063e-05 -1.04865e-19 -0.000509569 -6.34231e-20 0)
(0.000367907 -6.96746e-05 2.43287e-20 -6.11127e-05 6.83546e-21 0)
(0.00130038 -2.98345e-05 6.95428e-20 -0.00049285 4.12603e-20 0)
(0.000786523 -0.000186771 2.33937e-20 -0.000310458 -2.60811e-20 0)
(0.000590716 -0.00022359 3.05846e-20 -0.000176117 2.10528e-20 0)
(0.000376041 -7.62243e-05 -4.99277e-21 -2.58857e-05 -2.79295e-21 0)
(0.000295497 -3.8585e-05 -2.91655e-20 -1.76066e-05 6.69956e-22 0)
(0.000145814 -0.000135442 -2.66909e-20 -3.04527e-05 1.06752e-21 0)
(0.000810933 -0.00016409 5.0824e-20 -0.000352526 3.67493e-20 0)
(0.000470062 -7.1758e-05 5.97249e-21 -0.000129565 4.46509e-21 0)
(0.000614021 -9.87337e-05 -2.90876e-20 -0.000271026 -1.16802e-20 0)
(0.000429709 -7.693e-05 3.55183e-20 -3.42501e-05 3.31594e-21 0)
(0.000701054 -0.00020654 -1.01792e-19 -0.000453103 -3.90272e-20 0)
(0.000352994 -0.00024659 2.50256e-20 -0.000120154 -6.12943e-21 0)
(0.000755853 -0.000245911 -2.10108e-20 -0.000448787 -1.11164e-20 0)
(0.0007259 -6.76554e-05 9.04054e-20 -0.000309558 3.3453e-20 0)
(0.000554317 -6.04417e-05 4.07154e-20 -0.000221784 -1.08684e-20 0)
(0.000414543 -2.98709e-05 -1.37816e-20 -5.42922e-05 -1.94497e-21 0)
(0.000184678 -8.54748e-05 -6.0134e-22 5.03966e-06 -1.63204e-21 0)
(0.0011966 -3.07365e-05 0 -0.000524428 0 0)
(0.000614054 -0.000210279 -5.22825e-20 -0.000233894 -1.67809e-20 0)
(0.000147758 -0.000241244 9.15082e-21 -0.000587224 -7.83893e-20 0)
(0.000539253 -2.75969e-05 -7.05881e-20 -0.000275251 -6.47515e-21 0)
(0.000550764 -4.72769e-05 2.72922e-21 -0.000216665 1.52203e-20 0)
(0.00143363 -6.72179e-05 9.93007e-21 -0.000610144 4.95206e-21 0)
(0.000260561 -0.000132389 -2.2404e-20 -1.47023e-05 -1.28233e-21 0)
(0.000149283 -0.000125265 -4.94295e-20 -7.00131e-05 -2.04567e-20 0)
(9.4158e-05 -0.000156121 2.34863e-20 -6.47908e-05 6.16177e-21 0)
(0.000566089 -0.000321476 -3.46474e-20 -0.000332096 5.58497e-21 0)
(0.000292439 -1.33901e-05 -2.07013e-20 -1.65265e-06 1.67419e-21 0)
(0.00139203 0.000112423 1.52606e-19 -0.000599498 1.45633e-19 0)
(0.000607229 -0.000307141 5.34584e-20 -0.000285632 2.87028e-20 0)
(0.000727308 -9.17622e-06 0 -0.000313818 0 0)
(0.00121797 0.000110492 2.52497e-19 -0.000695531 2.99737e-19 0)
(0.000302835 -0.000238537 -7.37223e-20 -3.28693e-05 -8.49115e-21 0)
(0.000714811 -0.000242988 1.74176e-20 -0.000317386 2.82791e-20 0)
(0.000751141 -0.00027745 -7.53759e-20 -0.000337565 -3.95064e-20 0)
(0.000775303 -0.000289969 1.0461e-19 -0.000434503 4.76129e-20 0)
(0.00135413 -2.90148e-05 2.68946e-19 -0.000543673 7.25695e-20 1.75675e-35)
(0.00074249 -0.000120248 0 -2.9372e-05 0 0)
(0.000329348 -9.72821e-05 1.68573e-20 -5.99214e-05 -8.70133e-22 0)
(0.000337837 -5.68412e-05 -5.71433e-20 -2.39972e-06 3.74363e-22 0)
(0.000446697 -7.42056e-05 0 -0.000109245 0 0)
(0.000470851 -9.14011e-05 2.33639e-20 -9.74874e-05 2.69898e-21 0)
(0.000259805 2.43521e-05 -3.8987e-20 -0.000361016 -2.1398e-20 0)
(0.000723318 0.000112738 5.71365e-20 -0.000301924 4.65103e-20 -5.23911e-36)
(0.000562679 -0.000303319 9.74369e-21 -0.000224982 2.89484e-21 0)
(0.000652449 -8.76855e-05 3.12647e-21 -0.000323869 5.36156e-22 0)
(0.000435446 -0.000220941 6.14189e-20 -0.000123841 7.14104e-21 0)
(0.000970756 -0.000182757 1.03663e-19 -0.000433032 6.91652e-20 0)
(0.00102209 -0.000171232 2.44791e-19 -0.000498403 1.11845e-19 0)
(0.00120206 -6.62188e-05 -1.33096e-19 -0.000588168 -1.15208e-19 0)
(0.000202727 8.45038e-05 -4.73672e-20 -0.000333052 2.14266e-19 0)
(0.00165951 0.000165766 -2.29669e-19 -0.00153971 -3.29402e-19 0)
(0.000221894 -0.000188569 5.02602e-20 -5.77206e-05 7.11128e-21 0)
(0.000494501 -9.11982e-05 -2.13068e-21 -0.000131092 4.0566e-21 0)
(0.000243086 -0.000157975 5.02404e-21 -0.000302006 5.449e-20 0)
(0.000670993 -0.000269348 -6.32339e-20 -0.000305121 -2.14537e-20 0)
(8.62696e-05 -2.97545e-05 -9.5434e-21 -3.62154e-05 6.66564e-21 0)
(0.000511751 -0.000245788 -3.62503e-20 -0.000209475 -5.81299e-21 0)
(0.000784926 -0.000193731 2.17318e-19 -0.000554261 2.15865e-19 0)
(0.000486697 -0.000307731 0 -0.000163023 0 0)
(0.000941877 -6.8667e-06 -5.84142e-20 -0.000703153 5.37557e-20 0)
(0.00046272 -1.13007e-05 7.36863e-21 -8.69323e-05 1.18085e-20 -5.24508e-36)
(0.000543404 -0.000196925 -4.46014e-21 -0.000181478 -1.53506e-20 0)
(0.000495323 -0.00020835 -7.81659e-21 -0.00017615 -9.79658e-21 0)
(0.000548299 -0.000323283 6.25806e-20 -0.000206091 1.5774e-20 0)
(0.00244571 -0.000247415 4.78844e-20 -0.000294192 -7.96263e-21 0)
(0.000545732 -0.000325091 -5.35385e-20 -0.000250397 -2.24709e-20 0)
(0.00232581 -0.000276291 -3.03308e-20 -0.00117396 -1.25518e-19 0)
(0.000616084 -0.000141826 -4.20616e-20 -0.000275096 3.30405e-20 0)
(0.000249362 -0.000163109 -6.96155e-20 -0.00033537 -4.35382e-20 0)
(0.000908366 -0.000212059 3.63873e-20 -0.000403322 1.37972e-20 0)
(0.000482147 -4.98274e-05 1.59646e-21 -0.000104603 2.05716e-21 0)
(0.000965504 1.66514e-05 -2.97811e-19 -0.000693105 -2.60238e-19 0)
(-5.52593e-05 -3.72107e-05 -9.93046e-20 -0.000118835 8.19353e-20 -2.33019e-37)
(0.00141883 0.000204196 9.90368e-20 -0.000736305 1.273e-20 0)
(0.000906988 -8.78171e-05 1.59761e-19 -0.00051439 2.61108e-20 0)
(0.00115232 1.79976e-05 -1.90906e-19 -0.000790038 -9.59612e-20 0)
(0.00119088 -0.000122295 -3.16884e-19 -0.000511712 -1.9948e-19 0)
(0.000450985 -0.000274507 -2.13786e-20 -0.000160303 7.42973e-22 0)
(0.000520224 -0.000223217 -9.65789e-20 -0.000165391 -6.34918e-21 0)
(0.00122537 -5.89492e-05 1.78405e-19 -0.000492308 9.14979e-20 0)
(0.00124269 -9.89796e-05 -6.28493e-20 -0.000561218 -1.96107e-20 0)
(0.000289294 -0.000249706 -6.81289e-20 -9.24091e-05 -4.34457e-21 0)
(0.000468163 -0.000235113 3.781e-20 -0.000117512 7.10531e-21 0)
(0.000420034 -0.000313655 -6.09562e-21 -0.000160156 -1.45797e-20 0)
(0.000577052 -8.49559e-05 8.56112e-20 -0.000246285 3.19363e-20 0)
(0.000442868 -0.000110528 1.39122e-20 -9.36552e-05 -7.36081e-21 0)
(0.000782049 -0.000245966 -8.24848e-20 -0.000397042 -3.46636e-20 0)
(0.00118101 -0.000268581 0 -0.000256963 0 0)
(0.000449618 -6.08786e-05 2.97866e-20 -4.82395e-05 5.39192e-21 0)
(0.000417608 -6.35258e-05 -2.67302e-20 -7.0095e-05 -3.77414e-21 0)
(0.000542159 -4.6502e-05 -2.00169e-20 -0.00018105 4.7781e-22 0)
(0.00050817 -6.47449e-05 1.85262e-20 -0.000189544 -1.35226e-21 0)
(0.000329653 -0.000290092 4.41418e-20 -0.0001173 8.43441e-21 0)
(0.000145439 0.000156013 -2.37273e-21 -0.000840276 -2.60684e-20 0)
(0.00100926 -0.000422037 1.04154e-20 -0.00050592 1.13864e-19 0)
(0.00127744 0.000233846 1.02167e-19 -0.000997684 2.99931e-20 0)
(0.000825201 -0.000453298 1.54547e-19 -0.000834957 6.5852e-20 0)
(0.000453146 -4.11806e-05 5.41746e-21 -7.31912e-05 1.80146e-21 0)
(0.000540995 -5.48896e-06 1.67537e-20 -0.000236468 -4.12003e-21 9.78262e-37)
(0.000187835 -0.000244815 5.958e-21 -0.000251489 3.56976e-20 0)
(0.000569217 -0.000299447 -1.7504e-21 -0.00023354 -1.05461e-21 0)
(0.000414794 -1.18317e-05 2.25908e-20 -4.37663e-05 -8.08442e-21 0)
(0.00100136 -8.77905e-05 -4.41365e-20 -0.000470922 -3.08381e-20 0)
(0.000397287 -0.000275281 -1.00837e-20 -7.67235e-05 -1.25092e-21 0)
(0.000192007 -7.28637e-06 4.61361e-22 1.59754e-05 -9.50713e-22 0)
(0.00040764 -0.000294491 -1.01355e-20 -0.000138464 -6.32782e-21 0)
(0.000418675 -8.82946e-05 1.23399e-20 -8.94857e-05 -1.85656e-21 0)
(0.00038239 -4.76547e-05 3.4415e-20 -3.54094e-05 -8.89813e-22 0)
(0.00043867 -7.41343e-06 -8.9438e-21 -2.38059e-05 -1.21876e-20 -5.00153e-36)
(0.000515165 -8.23936e-06 1.1099e-20 -0.000193165 1.48281e-20 -6.2628e-36)
(0.000638436 -0.000278701 -5.01418e-20 -0.000237021 -1.3465e-20 0)
(0.000639489 -0.000307221 -2.13861e-20 -0.000282184 -1.01618e-20 0)
(0.000480619 -0.000109192 4.96993e-20 -9.77313e-05 1.41564e-20 0)
(0.0011233 -2.70786e-05 -1.45574e-19 -0.000431177 -4.32027e-20 2.45871e-35)
(0.000437685 -8.71724e-05 -3.6491e-20 -6.07591e-05 3.10183e-21 0)
(0.000169244 -0.000236865 3.50666e-20 -0.000114923 9.8261e-21 0)
(0.000307806 -0.000258193 8.27047e-21 -9.44488e-05 1.54435e-21 0)
(0.000426781 -0.000290558 -1.1183e-20 -0.000116601 -6.41129e-21 0)
(0.000453617 -0.000131858 -8.48486e-20 -9.49352e-05 -1.80451e-20 0)
(0.000483214 -1.15367e-05 -9.2165e-21 -0.000137282 -1.51395e-20 -2.19458e-36)
(0.000610962 -7.28724e-05 4.97359e-20 -0.000254122 -8.4169e-23 0)
(0.000520237 -0.000281777 -2.50668e-20 -0.000168854 -1.34956e-21 0)
(0.000147823 -3.58523e-05 -1.54804e-19 -0.000291345 -2.78059e-20 0)
(0.00139454 4.57658e-05 1.03588e-19 -0.000506438 5.53654e-20 0)
(0.000543617 -2.73516e-05 4.80623e-20 -0.000211476 1.04173e-20 0)
(0.000513785 -2.91307e-05 -1.68871e-20 -0.000248607 -2.15242e-21 0)
(0.000738059 -0.000188334 0 -0.000501056 0 0)
(0.000463107 -0.000117308 -5.01451e-20 -0.000134814 -1.50909e-20 0)
(0.000500961 -0.000193408 2.39815e-20 -0.00012804 3.73027e-21 0)
(0.000477803 -0.000180525 3.77275e-21 -0.000151679 -7.98851e-21 0)
(0.000196745 -0.000171776 3.48233e-20 -3.74586e-05 3.41628e-22 0)
(0.000424846 -3.45562e-05 -3.58364e-20 -2.37857e-05 2.27722e-22 0)
(0.000902985 -0.00011697 6.56309e-20 -0.00046347 1.61154e-20 0)
(0.000458981 -0.000164962 4.58162e-20 -9.26148e-05 -1.18855e-20 0)
(0.000916276 -4.69655e-05 3.69817e-20 -0.000551358 6.25933e-20 0)
(0.000274175 -7.76133e-05 -2.91372e-20 -4.72455e-05 5.23003e-21 0)
(0.000419751 -3.02825e-05 -1.5429e-20 -3.09441e-05 2.41861e-23 0)
(0.000406645 -0.000274307 -1.10284e-21 -0.000274516 -1.92563e-20 0)
(0.000473921 -5.01005e-05 -4.87372e-20 -6.13295e-05 -1.2095e-20 0)
(0.000132111 -0.000302624 -9.26814e-20 3.49037e-05 8.84275e-20 0)
(0.000782098 -0.000233408 -5.05319e-20 -0.000276716 -5.76242e-21 0)
(0.000257847 0.000245633 6.25527e-21 -0.000545897 1.91533e-20 3.34511e-36)
(0.000401933 -0.000210634 -4.01957e-20 -9.74514e-05 -1.28297e-20 0)
(0.000391645 -0.00020886 -6.31201e-20 -9.22703e-05 -1.24909e-21 0)
(0.000573457 -0.000189607 7.64148e-20 -0.000193811 9.53208e-21 0)
(0.000355435 -0.00036652 -4.30345e-20 -6.61961e-05 3.87447e-20 0)
(0.00105132 -0.000133268 -1.34655e-19 -0.000473556 -8.24349e-20 0)
(0.00108649 2.41726e-05 1.41355e-19 -0.00040665 7.62829e-21 4.86352e-36)
(0.00123513 -5.32933e-07 0 -0.000483828 0 0)
(0.00122433 0.000355424 7.27202e-20 -0.000507526 7.16773e-20 0)
(0.000451285 -0.000254754 1.66931e-20 -0.000330826 2.73956e-20 0)
(0.000381363 -0.000240234 4.84789e-20 -0.000278749 6.94347e-20 0)
(0.00113388 -9.23661e-05 2.96899e-20 -0.000540688 3.17307e-20 0)
(0.000522768 -0.000300646 1.57529e-20 -0.000190736 7.43292e-21 0)
(0.000510306 -0.000269627 8.89643e-20 -0.00034398 3.55505e-20 0)
(0.000458026 -0.000307616 7.27414e-20 -0.000306421 -5.18479e-21 0)
(0.000507708 -0.000142642 -4.21737e-20 -0.000164127 -2.46944e-21 0)
(0.00051384 -0.000131091 -2.29556e-20 -0.000172304 6.80145e-21 0)
(0.000518294 -0.000174798 1.04415e-20 -0.000188573 1.137e-20 0)
(0.00051848 -0.000170941 5.09527e-20 -0.000160117 -8.91916e-21 0)
(0.000464846 -0.000205217 -1.04253e-19 -0.000109668 -5.36191e-21 0)
(0.00032015 -4.51545e-05 1.38848e-20 -3.22553e-05 6.055e-22 0)
(5.53276e-05 -6.25318e-05 0 -0.00010006 0 0)
(0.000698782 -0.000152933 1.78706e-19 -0.000480695 1.24545e-19 0)
(0.000450192 -0.000272162 8.798e-21 -0.000270717 3.5273e-21 0)
(0.000422805 -0.000329512 3.01743e-20 -0.00022997 3.46931e-20 0)
(0.001291 5.44799e-06 1.48157e-19 -0.000555591 5.00715e-20 0)
(0.000503649 -0.000260905 3.2611e-20 -0.00020202 -9.01146e-21 0)
(0.000687374 -0.000242227 -9.03966e-21 -0.000246927 -1.24694e-20 0)
(0.00069594 -0.000220881 3.85539e-20 -0.000321258 -1.13116e-21 0)
(0.000978807 -0.000231051 7.57376e-20 -0.000425082 3.78261e-20 0)
(0.000534525 -0.000110172 -3.80637e-20 -0.000222815 3.08047e-21 0)
(8.24447e-05 -5.96114e-06 0 -0.000174116 0 0)
(0.0011535 0.000257096 6.51718e-21 -0.000615845 1.8288e-19 0)
(0.000402748 -9.72996e-05 -6.15577e-20 -5.84558e-05 -7.17124e-21 0)
(0.000520419 -6.85391e-05 9.82984e-21 -0.000215196 -6.16096e-21 0)
(0.000334592 -0.000206853 -1.94215e-20 -6.83043e-05 5.22438e-21 0)
(0.000595641 -0.000265532 0 -0.000261435 0 0)
(0.000617913 -0.000241149 -1.19108e-20 -0.00020084 8.01793e-21 0)
(0.000175382 -0.00015843 0 -7.48045e-05 0 0)
(0.000350315 -0.000120892 -1.6591e-20 -3.75026e-05 2.17063e-21 0)
(0.000664551 -6.90643e-05 -7.11101e-20 -0.000269285 4.35426e-21 0)
(0.000568635 -0.000157537 -2.75166e-21 -0.000229911 -1.29901e-20 0)
(0.000606802 -0.000130268 6.91956e-20 -0.000217277 1.73299e-20 0)
(0.00922174 -0.00217114 4.45343e-19 -0.013114 -6.98406e-19 6.46862e-34)
(0.000110112 -7.16349e-05 8.63882e-21 -2.21067e-05 4.32991e-21 0)
(8.08227e-05 -6.60064e-05 -1.30704e-20 -4.12037e-05 -3.34234e-21 0)
(0.0059905 -0.000464848 -8.07974e-19 -0.0045326 -3.29259e-19 0)
(0.000415486 -0.000101133 1.53127e-19 -0.000417875 5.63867e-20 0)
(0.000698795 -0.000187752 -4.99491e-20 -0.000299791 1.02935e-20 0)
(0.000808712 -0.000119375 3.32402e-21 -0.000271802 -1.43368e-20 0)
(0.000215726 -8.15368e-05 2.48082e-20 -1.44067e-05 -1.44055e-20 0)
(0.0002987 -0.0001255 2.03098e-20 -1.52019e-05 9.61069e-22 0)
(0.000431189 -9.30705e-05 1.90904e-20 -0.000217581 4.40232e-21 0)
(0.000403816 0.000109782 -8.41834e-21 -0.000709154 -5.10133e-20 -3.87093e-36)
(0.000450805 -0.000112756 8.27584e-21 -0.000113911 2.84297e-22 0)
(0.000634518 -0.000161044 4.10181e-21 -0.000249974 -1.47314e-20 0)
(0.000166188 4.67587e-05 -1.28594e-20 -0.000860468 -6.12699e-20 0)
(0.000374001 -0.000101273 1.53156e-20 -6.39145e-05 -3.34662e-21 0)
(0.000954132 -0.000159977 -5.00082e-20 -0.00041788 -2.00432e-20 0)
(0.000921874 -0.000193933 8.52574e-20 -0.000402664 3.75766e-20 0)
(0.000449004 -0.000165397 5.1425e-20 -0.000125471 1.67791e-20 0)
(0.000361969 -0.000212206 3.55474e-21 -2.2299e-05 7.33728e-21 0)
(0.000399604 -0.000137854 1.67607e-20 -7.70094e-05 9.10278e-21 0)
(0.000540894 -0.000277131 -6.80842e-20 -0.000383409 -5.88622e-20 0)
(0.000122171 -4.84955e-06 -5.6959e-20 -0.000418194 -4.55392e-20 0)
(0.000249316 -0.000218786 -2.63253e-20 -5.29824e-05 -7.40632e-22 0)
(0.000584042 -0.000110863 -7.94375e-20 -0.000202792 -4.41548e-21 0)
(0.000397903 -0.000124297 -1.30564e-20 -6.71419e-05 -3.0348e-21 0)
(0.000612513 -0.000196695 -9.22812e-20 -0.000359659 -1.109e-19 0)
(0.000604603 -6.71751e-05 -5.74561e-20 -0.000228879 -5.16186e-20 0)
(0.000776239 -0.00025078 -8.93103e-20 -0.000382922 -4.28084e-20 0)
(0.000183356 -9.78922e-05 3.22339e-20 -0.000282882 2.36692e-20 0)
(0.00141028 0.000290634 1.13203e-19 -0.000786324 1.33739e-19 0)
(0.00143397 -3.31735e-05 -8.44651e-20 -0.000629839 -8.91134e-20 0)
(0.000731467 -0.000304217 -1.25392e-19 -0.000309058 -7.0431e-20 0)
(9.66096e-05 -0.000124753 -4.69455e-20 -0.000261689 -5.28944e-20 0)
(0.000416707 -5.06553e-06 -6.30598e-21 9.14117e-06 -6.49865e-22 0)
(0.000524238 -7.14698e-06 3.70205e-20 -0.000222097 1.88852e-20 0)
(0.000686631 -0.000134825 -8.8495e-21 -0.000317765 2.46946e-20 0)
(0.000441248 -0.000259449 -2.51592e-20 -0.000196609 8.76445e-22 0)
(-5.37304e-05 0.000219784 7.79153e-20 -0.000374034 1.43871e-19 0)
(0.000507612 -4.61803e-05 0 -0.000170222 0 0)
(0.000511057 -3.05501e-05 -2.67421e-20 -0.000189535 -2.13169e-20 0)
(0.000433494 -3.02411e-05 -2.20622e-20 -2.84566e-05 -4.90859e-21 0)
(0.0004388 -5.4272e-05 0 -6.72359e-05 0 0)
(0.000447909 -2.51701e-05 5.77e-21 -2.73164e-05 1.09054e-21 0)
(0.000501355 -3.05628e-05 -2.72445e-21 -0.000221912 -4.63739e-21 0)
(0.00239142 -0.000524613 2.98576e-20 -0.000472163 1.32446e-19 0)
(0.00335723 -9.97116e-05 2.9062e-19 -0.00181585 2.46984e-20 0)
(0.00161176 0.000351793 -1.35498e-19 -0.000537467 -1.1393e-19 0)
(0.00121231 -4.35624e-05 1.37124e-19 -0.000301881 6.4366e-20 0)
(0.000504022 -7.08756e-05 2.52099e-20 -0.000139761 3.53637e-21 0)
(0.00024215 -5.05542e-05 3.92346e-20 -4.70877e-05 4.37039e-21 0)
(0.000539172 -0.000152832 -2.99771e-21 -0.000203788 -9.44388e-21 0)
(0.000549634 -0.000135282 -6.28637e-21 -0.000188953 8.96091e-21 0)
(0.000690622 -0.000114973 8.54895e-20 -0.000280056 -4.23632e-20 0)
(0.00042063 -5.78355e-06 -8.44908e-21 -1.14321e-05 -4.23161e-21 -2.12572e-36)
(0.00052247 -2.87989e-06 2.05019e-20 -0.000205387 1.16912e-20 -8.45706e-36)
(0.000744933 -0.000244146 7.08797e-20 -0.000336101 1.87801e-20 0)
(0.00026912 -9.09001e-05 -8.6246e-21 5.12352e-05 2.39043e-21 0)
(0.000322409 -0.000146786 2.00503e-20 -1.89286e-05 6.04328e-22 0)
(0.000447447 -2.41395e-05 1.61166e-20 5.81048e-06 1.40913e-21 0)
(0.000504418 -2.05988e-05 6.65256e-20 -0.000218214 2.32565e-20 0)
(0.000115229 -7.7308e-06 4.3165e-21 -6.31473e-06 1.11879e-21 0)
(0.000578987 -0.000278785 -8.58076e-21 -0.000192258 -1.00447e-20 0)
(0.00179136 7.12469e-05 -2.22623e-19 -0.00124902 -1.42453e-19 0)
(9.34963e-05 2.10449e-06 3.66788e-21 -5.19539e-05 -7.00491e-22 0)
(0.000230134 0.000124705 2.44479e-20 -0.000350417 -1.37838e-19 0)
(0.000312098 -0.000159793 2.31175e-20 -7.65458e-06 -3.45624e-22 0)
(0.000438477 -3.36496e-05 3.45208e-20 -1.08283e-05 4.14773e-21 0)
(0.00051921 -2.3007e-05 -1.39626e-20 -0.000213271 -1.47878e-20 0)
(0.000350019 -7.37784e-06 2.16572e-20 -3.71921e-05 -2.45236e-21 0)
(0.000293736 -0.000174329 0 -4.35338e-05 0 0)
(0.000774904 -7.57968e-05 -3.84798e-20 -0.000323807 -2.89295e-20 0)
(0.000627544 -1.42683e-05 3.89641e-20 -0.000266437 6.8947e-21 6.38762e-36)
(9.73422e-05 6.01242e-05 4.46752e-20 -0.000451556 -2.59178e-20 0)
(0.00130818 -1.61125e-05 -5.26449e-20 -0.000577611 -2.429e-20 -7.80971e-36)
(0.000290759 -0.000161878 0 -0.00041553 0 0)
(0.00135082 0.000380634 1.21838e-19 -0.000304821 1.14231e-19 0)
(0.000533785 -0.000146512 1.08702e-19 -0.000277001 -3.02007e-20 0)
(0.000435751 -9.30403e-05 4.99937e-20 -0.000464404 1.06043e-19 0)
(0.000651924 -0.000217569 -7.15487e-20 -0.000232766 -2.53975e-20 0)
(0.000923518 -0.000247794 -9.65038e-21 -0.000442348 2.98345e-21 0)
(0.000511398 -0.000120642 -1.36266e-20 -0.000117379 -7.05215e-21 0)
(0.000547034 -0.000240838 3.72536e-20 -0.000156436 -5.02588e-21 0)
(0.000790809 -0.000257401 1.85878e-20 -0.000314316 1.8463e-21 0)
(0.000355426 -0.000256207 6.87363e-20 -0.000116715 1.19172e-20 0)
(0.000674698 -0.000284004 2.54774e-20 -0.00029273 4.7878e-21 0)
(0.00043027 -4.94943e-05 -1.51853e-20 -4.40192e-05 -2.117e-21 0)
(0.000418367 -5.5829e-05 4.76702e-20 -5.25668e-05 2.58497e-21 0)
(0.000752148 -0.000124162 -1.34132e-19 -0.000324743 3.03491e-21 0)
(0.00139706 0.000259317 1.61905e-20 -0.00040695 3.67321e-20 0)
(0.000422688 -0.000148677 -7.83426e-20 -0.00010209 -6.41391e-21 0)
(9.18349e-05 -0.0002194 -3.17096e-20 -0.000123695 -1.32278e-20 0)
(0.000392034 -2.24783e-05 7.55421e-20 -0.000508619 -1.46578e-19 0)
(0.000311288 -0.000131483 -7.04401e-20 -0.000296661 3.69721e-20 0)
(0.00016999 -0.000164025 -3.34299e-20 -8.95704e-05 -3.24825e-22 0)
(0.0010741 -8.5101e-05 1.48394e-19 -0.000389137 4.09274e-20 0)
(0.000786889 -0.000246495 -2.13676e-20 -0.00038015 2.39626e-21 0)
(0.000427404 -0.000171231 6.70686e-20 -8.38041e-05 6.03798e-21 0)
(0.000436337 -0.000125052 4.79256e-20 -7.22737e-05 4.79505e-21 0)
(0.000579177 -1.37657e-05 4.67077e-20 -0.000235126 2.02181e-20 1.7027e-35)
(0.000856008 -0.000254622 -2.47431e-20 -0.000351085 -1.01101e-20 0)
(0.00037991 -6.74915e-06 -2.02883e-20 -4.30527e-05 -1.60438e-21 0)
(0.00047514 -0.000112051 -4.51572e-20 -0.000169048 -1.53616e-21 0)
(0.000207118 0.000136126 -3.46726e-20 6.36259e-05 1.18672e-19 -1.31539e-35)
(0.000475732 -5.55075e-05 2.38256e-20 -0.000169758 3.59744e-21 0)
(0.000488588 -3.82209e-05 -3.28578e-20 -0.00014699 -1.12897e-20 0)
(0.00170322 9.71239e-05 -2.72259e-19 -0.00124322 -1.36013e-19 0)
(0.000428337 -0.00030491 -2.14466e-20 -0.000189389 -2.21094e-20 0)
(0.000516438 -0.000112887 1.30569e-22 -0.000185204 9.77204e-21 0)
(0.000485083 -0.000144914 -4.05571e-20 -0.000148061 -1.68762e-20 0)
(0.000253845 -0.000223163 -4.99753e-20 -0.000240536 -5.74037e-20 0)
(0.000209056 -0.000247759 5.73542e-20 -0.000142857 5.8219e-21 0)
(0.000998179 -0.000163119 1.37171e-20 -0.000472493 -2.42266e-21 0)
(0.000654301 -8.24336e-05 1.25207e-20 -0.000483916 -1.15998e-19 0)
(-5.49274e-06 -0.000391932 -1.23077e-19 -0.0016935 -2.7604e-20 5.96412e-35)
(0.000450526 -0.000201508 -4.99631e-20 -0.000133476 4.25844e-21 0)
(0.000322 -8.47261e-05 -8.55315e-20 -0.000302386 -5.43607e-20 0)
(0.00101295 -0.00016348 1.79025e-20 -0.000567528 6.87421e-20 0)
(0.000360644 -0.000152333 9.64259e-20 -0.00042133 -4.86323e-20 0)
(3.20849e-05 -0.000127824 -2.82333e-20 -0.000178577 1.04825e-20 0)
(0.00107258 -0.000114286 -1.55268e-19 -0.000462335 -6.19853e-20 0)
(0.000345323 -0.000187287 -8.0693e-20 -5.3707e-05 -5.51683e-21 0)
(0.000928901 -1.35841e-05 -1.39871e-20 -0.000362598 -1.31114e-20 6.31518e-36)
(0.000352072 -0.0001693 5.39091e-20 -5.3972e-05 5.06891e-21 0)
(0.000418477 -0.000194089 -3.49511e-20 -9.11579e-05 -1.13265e-20 0)
(0.000420382 -0.000112592 -1.00111e-20 -7.70288e-05 1.42562e-21 0)
(0.000888411 -0.000173101 0 -0.00038013 0 0)
(0.000338998 -2.96756e-05 2.89692e-20 -3.25584e-05 4.1212e-21 0)
(0.000649598 -4.23646e-05 -7.73257e-20 -0.000276418 -5.43596e-21 0)
(0.000303471 -0.000294461 6.07407e-20 -0.000218877 1.31163e-20 0)
(0.000290218 -0.000295179 -4.317e-20 -0.000204981 -6.52852e-21 0)
(0.000231828 -1.61818e-05 6.04627e-20 -0.000386666 -3.18973e-20 0)
(0.000345506 -0.000253627 -1.85887e-20 -9.03197e-05 -4.16234e-22 0)
(0.000199717 -4.34525e-05 1.54557e-21 -0.000410533 -2.77529e-21 0)
(0.000592608 -0.000305215 -1.51823e-19 -0.000215211 -4.21542e-20 0)
(0.000578989 -0.000331581 -5.0814e-20 -0.000268705 -1.64937e-20 0)
(0.000219841 -0.00018715 6.74192e-21 -0.000248221 2.02678e-20 0)
(0.000437905 -0.00030239 -4.01962e-20 -0.000195343 -1.05611e-20 0)
(0.00021537 -5.38722e-05 5.73488e-21 2.89934e-05 -3.0027e-21 0)
(0.000400767 -0.000163972 6.38713e-20 -7.71222e-05 5.57596e-22 0)
(0.00136858 8.22723e-06 -2.59621e-19 -0.000550942 -6.3827e-20 3.56724e-35)
(0.000552034 -9.75275e-05 1.0266e-20 -0.000186126 -6.43218e-21 0)
(0.000340441 -0.000127996 -2.50734e-20 -2.8855e-05 -1.43251e-21 0)
(0.00438828 -0.000240258 3.30492e-19 -0.00285086 4.32781e-20 0)
(0.0009847 -7.08845e-06 -6.99664e-20 -0.000433215 -9.17001e-21 2.16611e-36)
(-1.00059e-05 -3.02446e-05 1.5026e-20 -0.000288816 2.26875e-20 0)
(0.000486418 -0.000162066 5.87677e-20 -0.000119082 1.33009e-20 0)
(0.000848392 -6.74153e-05 4.30144e-21 -0.000373063 -1.7777e-20 0)
(0.00139458 6.58102e-05 -1.19569e-19 -0.000610596 -7.70182e-20 0)
(0.000430502 -0.000176627 1.1629e-19 -0.000123801 -2.89689e-22 0)
(0.000413355 -1.26049e-05 -9.52216e-21 3.58518e-06 1.12627e-25 0)
(0.000521466 -5.79754e-06 1.74733e-20 -0.000221061 -4.60584e-21 0)
(0.000232708 -3.60972e-06 2.52147e-21 3.80083e-06 -2.96083e-22 0)
(0.000382046 -0.000286182 1.14816e-19 -0.000149293 2.60986e-20 0)
(0.000796673 -0.00021424 -5.98106e-20 -0.000315938 -6.02294e-21 0)
(0.000811806 -1.09409e-05 -6.34668e-22 -0.000362167 -1.15347e-20 4.96424e-36)
(0.00116452 2.10019e-05 -2.55583e-21 -0.000638184 3.91204e-20 -6.47802e-36)
(4.40108e-05 -9.68904e-05 0 -0.000388111 0 0)
(0.00111714 0.000241075 -1.98416e-19 -0.000542057 -2.43077e-19 0)
(0.000515137 -0.000256167 3.48362e-20 -0.000127714 -9.03761e-21 0)
(0.000429761 -2.24299e-05 7.13274e-21 4.78005e-06 -2.53148e-22 0)
(2.31352e-05 -9.10429e-05 1.27977e-20 -0.00012408 8.17658e-21 0)
(0.000422507 -1.40154e-07 6.87048e-21 2.82619e-06 -3.48373e-23 0)
(0.000453389 -4.59738e-06 1.97965e-20 -5.23864e-05 1.68276e-20 -7.99148e-36)
(0.000492716 -3.42716e-06 -1.46222e-20 -0.000171503 -1.50292e-20 -5.90944e-36)
(0.000589419 -0.00024013 3.86032e-20 -0.000265759 7.18336e-21 0)
(0.000113466 -0.000113971 0 -0.000204183 0 0)
(0.000521422 -7.99093e-06 9.70402e-21 -0.000230918 1.11413e-20 0)
(0.000335655 -0.00015492 4.08465e-20 -4.96032e-05 7.52966e-21 0)
(0.00141978 5.31164e-05 -1.67054e-19 -0.000513034 -1.13141e-19 0)
(0.000109904 -0.000115795 -1.13268e-20 -0.000199655 -7.79444e-21 0)
(0.000525591 -5.4538e-06 0 -0.000226717 0 0)
(0.000287207 -0.000215994 1.89562e-20 -4.0769e-05 -8.62654e-21 0)
(0.00042466 -0.000317545 1.8762e-22 -0.000147805 -7.01529e-23 0)
(0.000989582 0.000483581 -1.48382e-19 -0.000429577 -2.09414e-19 0)
(0.000445762 -5.40718e-05 2.14024e-20 -3.40345e-05 2.5339e-21 0)
(0.00010496 0.000214213 -1.10256e-19 -0.000706363 -1.52614e-19 0)
(8.52316e-05 0.000280857 4.47802e-20 -0.000378972 -2.38071e-19 -6.16172e-35)
(0.000180496 1.67328e-05 0 -0.000410337 0 0)
(0.000528716 -8.2908e-05 1.88733e-20 -0.000168268 -1.42009e-21 0)
(0.0012126 -0.00109762 2.88909e-19 -0.00136582 2.03348e-20 0)
(0.000196103 6.16423e-06 -9.28938e-21 -0.000533561 1.60438e-21 0)
(0.000454742 -0.000332967 3.82112e-20 -0.000237062 3.64716e-21 0)
(0.000743082 -0.000232968 8.16238e-20 -0.000636883 -7.33024e-20 0)
(0.000803382 4.84882e-05 7.28181e-20 -0.000388493 -6.56138e-20 -3.47433e-35)
(0.000448266 -8.34743e-05 -1.0655e-20 -7.6548e-05 -2.52351e-21 0)
(0.000439482 -0.00014445 -1.91985e-20 -0.000114133 1.86341e-21 0)
(0.00569932 -0.00189444 -1.13001e-19 -0.00215896 -1.36873e-19 0)
(0.00134609 0.000309253 1.31085e-19 -0.000608927 9.55556e-20 0)
(0.00129019 0.000544891 3.6476e-20 -0.000550108 1.13663e-20 0)
(0.000858409 -5.62504e-05 8.19557e-20 -0.000364034 -2.46372e-20 0)
(0.000374595 -0.000148876 3.25101e-20 -6.5103e-05 1.40737e-21 0)
(0.000763326 -0.000144995 -1.76255e-19 -0.000307064 -1.58584e-19 0)
(0.000385505 -3.49951e-05 1.56626e-20 -2.62266e-05 8.38636e-22 0)
(0.000602018 -3.64546e-05 5.24855e-20 -0.000261141 -2.89466e-21 0)
(0.00103989 -0.000176076 1.31399e-19 -0.00098302 4.6507e-20 0)
(0.000506197 -0.000104192 6.45483e-22 -0.000197793 9.88825e-21 0)
(0.000366754 -0.000146467 2.23921e-20 -6.0538e-05 4.95271e-21 0)
(0.00042226 8.33556e-06 3.03586e-20 -6.99313e-06 6.65051e-22 0)
(0.000531846 1.76994e-06 1.45894e-20 -0.000219434 5.07552e-21 2.77856e-36)
(0.00108032 -0.000188096 -1.0249e-19 -0.000440142 -5.43969e-20 0)
(0.000718103 -0.000152917 7.03536e-20 -0.000274324 1.03719e-20 0)
(0.00109619 -0.000141829 3.82015e-20 -0.000482175 1.63316e-20 0)
(0.00501999 -0.00035491 3.96231e-20 -0.00340757 3.79648e-19 0)
(0.000598827 -0.000174096 3.05725e-20 -0.000194148 -3.61473e-21 0)
(0.000171757 -0.000166984 1.17411e-20 -0.000186545 5.56346e-21 0)
(0.000862305 -0.000115169 6.19324e-20 -0.000604517 -5.28215e-20 0)
(0.00122636 0.000259992 1.21685e-19 -0.000317128 1.3643e-19 0)
(0.000910612 -7.41803e-05 -5.61921e-20 -0.000433696 1.98541e-20 0)
(0.000554479 -9.91956e-05 -3.87401e-20 -0.000261618 -6.70767e-21 0)
(0.0004156 8.50925e-06 -2.77972e-20 1.11452e-05 -1.1952e-21 0)
(0.000420334 -3.66108e-06 9.69329e-21 7.551e-06 2.5002e-21 -2.01782e-36)
(0.000522577 -7.30825e-07 4.05685e-20 -0.000223559 1.3086e-20 1.0464e-35)
(0.000522328 5.44797e-07 4.32373e-20 -0.0002149 3.50792e-20 -2.71191e-35)
(0.000321617 -7.04812e-07 3.29372e-20 -2.05205e-05 1.43695e-21 0)
(0.000695095 -2.98049e-06 -1.10924e-20 -0.000273026 -6.44505e-21 3.05118e-36)
(0.00046358 0.000144232 3.92051e-20 -0.000291445 -9.39121e-20 0)
(0.00046708 -3.76096e-05 -1.17749e-19 -3.34202e-05 -5.8396e-20 0)
(0.000440669 -8.37208e-05 -4.96283e-20 -8.67058e-05 -1.27392e-20 0)
(0.000145329 -0.000188493 2.01559e-21 -0.000171416 2.01551e-20 0)
(0.00134931 0.000254525 6.07563e-20 -0.000620317 1.84994e-19 0)
(0.000106198 -0.000143471 6.97671e-21 -4.42079e-05 1.5764e-20 0)
(0.000456407 -0.000315539 6.20722e-20 -0.000227622 2.29322e-20 0)
(5.23557e-05 -9.6285e-05 2.08491e-20 -5.69521e-05 1.73385e-20 0)
(0.00064398 -0.000187392 4.77248e-20 -0.000255249 9.93222e-21 0)
(0.00045557 -9.56357e-05 -1.03207e-20 -6.90116e-05 -8.47612e-22 0)
(0.000585914 -0.00017563 -1.10996e-19 -0.00023881 -2.87339e-20 0)
(0.00607088 -0.000973949 -1.01315e-19 -0.00221426 -1.3552e-19 0)
(0.00208871 0.000438272 1.94912e-19 -0.000791124 1.30582e-19 0)
(0.0004714 -0.000186452 -7.15093e-20 -0.000390108 9.9923e-21 0)
(0.000906751 -0.000207848 -1.60466e-19 -0.000417063 -9.70335e-20 0)
(0.000806744 0.000310417 -8.67359e-21 -0.000520562 -1.11482e-19 0)
(0.00102326 -0.000130229 4.91878e-21 -0.000466001 8.69876e-20 0)
(0.000697917 -0.000232992 6.40702e-20 -0.000363668 5.94766e-20 0)
(0.000709408 -0.000297094 -3.60306e-20 -0.000313035 -1.32279e-20 0)
(0.000732959 -0.000264404 -1.24557e-19 -0.000291429 -4.15468e-20 0)
(0.000195807 -1.81509e-05 2.78245e-20 -0.000513617 4.25796e-20 0)
(0.000186983 -2.99219e-05 1.48018e-20 -0.000375937 2.00218e-20 0)
(0.000418082 -2.24382e-05 2.95696e-20 -3.47184e-05 -5.48922e-21 0)
(0.000527614 -1.58658e-05 -3.43537e-20 -0.000241432 -1.12299e-20 0)
(0.000508026 -8.46235e-05 -2.32639e-20 -0.000157005 -7.84636e-22 0)
(0.000651318 -0.000324714 2.18795e-19 -0.000335959 8.56713e-20 0)
(0.000590438 -0.000147878 -2.75883e-19 -0.00043812 -8.91657e-20 0)
(0.00103683 -0.000126397 -2.99167e-21 -0.000538959 -1.36689e-20 0)