/*--------------------------------*- C++ -*----------------------------------*\
| =========                 |                                                 |
| \\      /  F ield         | OpenFOAM: The Open Source CFD Toolbox           |
|  \\    /   O peration     | Version:  v2012                                 |
|   \\  /    A nd           | Website:  www.openfoam.com                      |
|    \\/     M anipulation  |                                                 |
\*---------------------------------------------------------------------------*/
FoamFile
{
    version     2.0;
    format      ascii;
    class       volScalarField;
    location    "8";
    object      epsilonEq;
}
// * * * * * * * * * * * * * * * * * * * * * * * * * * * * * * * * * * * * * //

dimensions      [0 0 0 0 0 0 0];


internalField   nonuniform List<scalar> 
32000
(
0.00810858
0.0079687
0.00788889
0.00774037
0.00764985
0.00750479
0.00740517
0.00726534
0.00715955
0.00702439
0.0069149
0.00678333
0.00667204
0.00654309
0.00643137
0.00630418
0.00619298
0.00606675
0.00595681
0.00583073
0.0057224
0.00559601
0.00548962
0.00536246
0.00525833
0.00512985
0.00502831
0.00489819
0.00479927
0.00466752
0.00457159
0.00443783
0.00434547
0.00420935
0.00412071
0.00398252
0.00389824
0.00375749
0.00367864
0.00353437
0.00346159
0.00331307
0.00324771
0.00309176
0.00303538
0.00290081
0.00286846
0.00276486
0.00273775
0.00265113
0.00262891
0.00255424
0.00253614
0.00247042
0.0024557
0.00239696
0.00238501
0.00233187
0.00232219
0.00227363
0.00226583
0.00222109
0.00221485
0.00217334
0.00216842
0.00212965
0.00212585
0.00208944
0.00208661
0.0020522
0.00205024
0.00201754
0.00201637
0.00198509
0.00198467
0.00195452
0.00195485
0.00192547
0.0019266
0.00189748
0.00803852
0.00790256
0.0078092
0.00766969
0.00757897
0.00743723
0.00734564
0.0072035
0.0071101
0.00696845
0.00687342
0.00673264
0.00663653
0.00649642
0.00640001
0.00626016
0.00616418
0.00602395
0.00592913
0.00578791
0.00569489
0.00555207
0.00546138
0.00531646
0.00522847
0.00508108
0.00499626
0.00484607
0.00476483
0.00461142
0.004534
0.00437737
0.00430411
0.00414416
0.00407555
0.00391223
0.00384836
0.00368208
0.00362298
0.00345446
0.00339997
0.00323166
0.00317977
0.00301947
0.00298639
0.00287407
0.00285271
0.00275515
0.00273617
0.00265158
0.00263498
0.00256084
0.00254655
0.00248074
0.00246859
0.00240948
0.00239929
0.00234564
0.0023372
0.00228805
0.00228115
0.00223576
0.00223024
0.00218801
0.00218369
0.00214415
0.0021409
0.00210365
0.00210135
0.00206605
0.00206459
0.00203097
0.00203025
0.00199807
0.00199799
0.00196707
0.00196751
0.0019378
0.00193853
0.00191031
0.00798914
0.00784486
0.00774619
0.00760159
0.00751011
0.00736354
0.00727601
0.0071276
0.00704208
0.00689227
0.00680785
0.00665682
0.00657321
0.00642093
0.00633824
0.00618414
0.00610274
0.00594638
0.0058668
0.00570765
0.00563048
0.00546812
0.00539391
0.00522791
0.00515709
0.00498709
0.00492013
0.00474584
0.00468322
0.00450477
0.00444676
0.00426435
0.00421097
0.0040255
0.00397678
0.00378922
0.00374506
0.00355769
0.00351712
0.00333359
0.00329578
0.00311989
0.00308504
0.00295297
0.00294065
0.00284184
0.00282917
0.0027415
0.00272939
0.0026509
0.00263979
0.00256907
0.00255917
0.00249506
0.00248645
0.00242792
0.0024206
0.00236682
0.00236075
0.00231101
0.00230612
0.00225982
0.00225602
0.00221269
0.0022099
0.00216912
0.00216724
0.00212867
0.00212763
0.00209097
0.00209068
0.00205569
0.00205607
0.00202255
0.00202352
0.00199132
0.00199281
0.00196182
0.00196384
0.00193384
0.00793311
0.00777815
0.00768002
0.00752547
0.00743524
0.00727925
0.00719513
0.00703689
0.00695736
0.00679659
0.00672056
0.0065569
0.00648377
0.00631653
0.00624615
0.00607488
0.00600734
0.00583165
0.0057672
0.00558679
0.00552576
0.00534034
0.00528315
0.00509236
0.0050395
0.00484343
0.00479511
0.00459432
0.00455068
0.00434598
0.00430704
0.00409969
0.00406542
0.00385743
0.00382718
0.00362169
0.0035949
0.00339498
0.00337133
0.00318106
0.00315968
0.00299355
0.00298698
0.00290255
0.00289541
0.0028141
0.00280688
0.0027304
0.00272352
0.00265218
0.00264589
0.00257953
0.00257399
0.00251227
0.00250758
0.00245009
0.00244627
0.00239257
0.00238964
0.00233933
0.00233726
0.00228994
0.0022887
0.00224404
0.00224358
0.00220126
0.00220154
0.0021613
0.00216225
0.00212385
0.00212543
0.00208865
0.00209081
0.00205547
0.00205817
0.00202411
0.00202731
0.00199436
0.00199804
0.00196603
0.00786119
0.00769453
0.00760082
0.00743385
0.00734751
0.00717872
0.00709922
0.00692764
0.00685418
0.00667869
0.00661059
0.00643003
0.0063668
0.00618047
0.00612189
0.00592941
0.00587538
0.00567648
0.00562709
0.00542157
0.00537697
0.00516476
0.00512505
0.00490675
0.00487203
0.00464857
0.00461882
0.00439149
0.00436665
0.0041374
0.00411705
0.00388851
0.00387224
0.00364728
0.00363479
0.00341631
0.00340726
0.00320002
0.00319356
0.00301019
0.00300658
0.00293811
0.00293531
0.00286528
0.00286268
0.00279292
0.00279057
0.00272252
0.00272053
0.00265501
0.00265347
0.00259088
0.00258987
0.00253032
0.00252989
0.00247336
0.00247353
0.0024199
0.00242068
0.00236976
0.00237114
0.00232273
0.00232471
0.00227861
0.00228114
0.00223715
0.00224022
0.00219813
0.00220171
0.00216134
0.0021654
0.00212658
0.0021311
0.00209366
0.0020986
0.0020624
0.00206775
0.00203263
0.00203836
0.0020042
0.00776928
0.00758933
0.00750251
0.00732068
0.0072407
0.00705599
0.00698305
0.00679384
0.00672783
0.00653251
0.00647324
0.00627071
0.00621798
0.00600776
0.00596137
0.00574318
0.00570298
0.00547672
0.00544259
0.00520848
0.00518033
0.00493926
0.00491692
0.00467032
0.00465359
0.00440337
0.00439184
0.00414049
0.00413371
0.00388388
0.00388148
0.00363604
0.00363765
0.00340056
0.00340532
0.00318431
0.00319029
0.00301216
0.00301086
0.00295587
0.0029557
0.00289754
0.00289824
0.0028374
0.00283881
0.00277675
0.00277876
0.00271673
0.00271925
0.00265813
0.00266115
0.00260153
0.00260501
0.00254725
0.00255118
0.00249547
0.00249984
0.00244624
0.00245103
0.00239955
0.00240475
0.00235532
0.0023609
0.00231342
0.00231938
0.00227374
0.00228005
0.00223613
0.00224278
0.00220043
0.0022074
0.00216651
0.00217378
0.00213421
0.00214177
0.0021034
0.00211122
0.00207393
0.00208202
0.00204567
0.00765434
0.00745841
0.00738013
0.00718049
0.00710899
0.00690403
0.00683982
0.00662774
0.00657116
0.00635062
0.00630184
0.00607229
0.00603134
0.00579251
0.00575926
0.00551115
0.0054854
0.00522844
0.00520991
0.00494538
0.00493371
0.00466359
0.00465832
0.00438498
0.00438552
0.00411169
0.00411754
0.00384591
0.00385663
0.00359095
0.0036057
0.00335262
0.0033694
0.00314249
0.00315718
0.00300411
0.00300406
0.00296159
0.00296284
0.00291541
0.0029183
0.00286617
0.00287039
0.00281511
0.00282038
0.00276322
0.00276935
0.00271134
0.00271816
0.00266014
0.00266751
0.00261009
0.00261794
0.00256155
0.0025698
0.00251474
0.00252332
0.00246977
0.00247865
0.0024267
0.00243584
0.00238553
0.00239491
0.00234623
0.00235581
0.00230871
0.00231848
0.0022729
0.00228285
0.0022387
0.0022488
0.00220601
0.00221625
0.00217471
0.00218509
0.0021447
0.00215521
0.00211588
0.00212651
0.00208813
0.00751275
0.00729732
0.00722888
0.00700678
0.00694559
0.00671496
0.00666164
0.00642112
0.00637617
0.0061253
0.00608906
0.00582778
0.00580029
0.00552882
0.00550994
0.00522896
0.0052184
0.00492959
0.00492688
0.00463271
0.00463722
0.00434046
0.0043515
0.00405491
0.0040719
0.00377852
0.0038008
0.00351635
0.00354249
0.00327885
0.00330518
0.00308673
0.00310502
0.00299277
0.00299252
0.0029599
0.00296215
0.00292266
0.00292713
0.00288222
0.00288858
0.00283946
0.00284736
0.00279518
0.00280434
0.0027501
0.00276025
0.00270481
0.00271576
0.00265983
0.00267139
0.00261553
0.00262757
0.00257221
0.00258462
0.00253008
0.00254277
0.00248929
0.00250218
0.00244991
0.00246295
0.00241198
0.00242513
0.00237549
0.00238872
0.00234043
0.0023537
0.00230675
0.00232004
0.00227438
0.00228769
0.00224326
0.00225656
0.00221331
0.0022266
0.00218445
0.00219772
0.0021566
0.00216984
0.00212968
0.0073401
0.0071
0.00704257
0.00679222
0.00674297
0.00648106
0.00644049
0.00616671
0.00613531
0.00584995
0.00582795
0.00553159
0.00551896
0.00521266
0.00520914
0.00489505
0.00490014
0.00458127
0.00459424
0.00427366
0.00429377
0.00397431
0.0040009
0.00368644
0.00371852
0.00341829
0.00345321
0.00318766
0.00321936
0.0030321
0.00304664
0.00298016
0.00298002
0.00295275
0.00295595
0.00292178
0.00292772
0.00288794
0.00289617
0.00285186
0.00286202
0.00281413
0.00282588
0.00277527
0.00278833
0.00273576
0.00274986
0.00269602
0.00271094
0.0026564
0.00267195
0.00261721
0.00263322
0.00257867
0.00259501
0.00254095
0.00255753
0.0025042
0.00252091
0.00246848
0.00248525
0.00243386
0.00245063
0.00240034
0.00241708
0.00236793
0.00238459
0.00233661
0.00235316
0.00230634
0.00232277
0.00227707
0.00229336
0.00224876
0.00226489
0.00222134
0.00223731
0.00219475
0.00221055
0.00216893
0.0071302
0.00685919
0.00681392
0.00652961
0.00649363
0.00619572
0.00616945
0.00585862
0.00584228
0.00551964
0.00551323
0.0051804
0.00518361
0.00484332
0.00485561
0.00451146
0.00453209
0.0041875
0.00421561
0.0038734
0.00390825
0.00357392
0.00361411
0.00330392
0.00334498
0.00309485
0.003125
0.00299567
0.00300024
0.00296704
0.0029683
0.00294154
0.0029462
0.00291428
0.00292186
0.00288508
0.00289517
0.00285414
0.00286639
0.00282177
0.00283584
0.00278829
0.00280389
0.00275403
0.00277089
0.0027193
0.00273717
0.00268438
0.00270305
0.00264952
0.00266879
0.00261492
0.00263464
0.00258078
0.00260078
0.00254721
0.00256739
0.00251432
0.00253457
0.0024822
0.00250244
0.00245088
0.00247103
0.00242039
0.00244041
0.00239074
0.00241058
0.00236193
0.00238155
0.00233393
0.0023533
0.00230672
0.00232582
0.00228026
0.00229908
0.00225451
0.00227303
0.00222942
0.00224764
0.00220495
0.00687563
0.00656794
0.0065359
0.00621277
0.00619127
0.0058539
0.00584304
0.00549311
0.00549274
0.00513261
0.0051423
0.00477537
0.0047944
0.00442496
0.00445243
0.00408431
0.00411934
0.00375545
0.00379728
0.0034464
0.00349234
0.00318318
0.00322491
0.00302324
0.00304105
0.00297499
0.00297525
0.0029518
0.00295498
0.00292717
0.0029334
0.00290181
0.00291094
0.00287553
0.00288729
0.00284825
0.00286231
0.00282
0.00283607
0.00279091
0.0028087
0.00276116
0.0027804
0.00273094
0.00275137
0.00270042
0.00272181
0.00266978
0.00269192
0.00263919
0.0026619
0.00260879
0.00263189
0.0025787
0.00260204
0.00254901
0.00257247
0.00251981
0.00254328
0.00249116
0.00251454
0.00246308
0.00248631
0.00243561
0.00245862
0.00240877
0.0024315
0.00238254
0.00240495
0.00235692
0.00237898
0.00233189
0.00235358
0.00230743
0.00232872
0.00228351
0.00230438
0.0022601
0.00228054
0.00223715
0.0065693
0.00622012
0.0062023
0.00583748
0.00583124
0.00545328
0.00545826
0.00507044
0.00508597
0.00469257
0.00471764
0.00432379
0.00435716
0.00396719
0.00400761
0.00362431
0.00367102
0.00331089
0.00335954
0.00307669
0.00311043
0.00298534
0.00298885
0.00295771
0.00295924
0.00293331
0.00293812
0.00290934
0.00291722
0.00288511
0.00289582
0.00286063
0.00287395
0.0028358
0.0028515
0.00281056
0.00282837
0.0027849
0.00280456
0.00275885
0.00278011
0.00273248
0.00275508
0.00270588
0.00272959
0.00267915
0.00270375
0.00265238
0.00267767
0.00262567
0.00265147
0.00259911
0.00262524
0.00257277
0.0025991
0.00254672
0.0025731
0.002521
0.00254734
0.00249566
0.00252185
0.00247073
0.00249669
0.00244623
0.00247189
0.00242216
0.00244746
0.00239853
0.00242342
0.00237533
0.00239978
0.00235255
0.00237653
0.00233018
0.00235365
0.00230819
0.00233114
0.00228656
0.00230897
0.00226527
0.00620515
0.00581216
0.0058092
0.00540276
0.00541185
0.00499633
0.00501647
0.0045974
0.00462724
0.00421082
0.00424871
0.00384012
0.00388435
0.00348611
0.00353517
0.00317767
0.00322283
0.00300574
0.00302028
0.00296325
0.00296349
0.00293773
0.00294116
0.00291263
0.00291911
0.00288826
0.00289769
0.00286451
0.00287674
0.0028411
0.00285593
0.0028179
0.00283512
0.0027948
0.00281418
0.00277172
0.00279303
0.0027486
0.00277161
0.00272542
0.00274989
0.00270218
0.00272788
0.00267892
0.00270563
0.00265565
0.00268317
0.00263243
0.00266055
0.00260928
0.00263784
0.00258626
0.00261509
0.00256341
0.00259237
0.00254075
0.00256971
0.00251832
0.00254716
0.00249613
0.00252477
0.00247422
0.00250255
0.00245258
0.00248055
0.00243123
0.00245876
0.00241015
0.0024372
0.00238937
0.00241589
0.00236885
0.00239481
0.00234859
0.00237396
0.00232858
0.00235333
0.0023088
0.00233291
0.00228923
0.00577981
0.00534465
0.0053564
0.00491378
0.00493696
0.00449405
0.00452667
0.0040912
0.00413098
0.00370899
0.00375375
0.00334854
0.00339655
0.00307039
0.00310324
0.00297487
0.0029753
0.00294478
0.0029464
0.00291595
0.00292068
0.00288951
0.00289738
0.00286446
0.00287527
0.00284053
0.00285413
0.00281756
0.00283377
0.00279534
0.00281395
0.00277369
0.00279451
0.0027525
0.0027753
0.00273165
0.00275621
0.00271105
0.00273715
0.00269063
0.00271806
0.00267037
0.0026989
0.00265022
0.00267965
0.00263017
0.00266031
0.00261023
0.00264088
0.00259038
0.00262139
0.00257065
0.00260186
0.00255104
0.0025823
0.00253156
0.00256275
0.00251222
0.00254323
0.00249302
0.00252375
0.00247397
0.00250434
0.00245508
0.00248501
0.00243634
0.00246578
0.00241776
0.00244664
0.00239933
0.00242761
0.00238105
0.00240868
0.00236289
0.00238985
0.00234487
0.00237112
0.00232696
0.00235248
0.00230914
0.00529471
0.00482602
0.00485074
0.00438684
0.0044204
0.0039711
0.00401025
0.0035829
0.00362433
0.00322183
0.00326285
0.00300395
0.00301562
0.00295467
0.00295375
0.00292282
0.0029256
0.00289285
0.00289877
0.00286455
0.00287354
0.00283826
0.00285023
0.00281368
0.00282848
0.00279058
0.00280802
0.00276875
0.00278864
0.00274799
0.00277012
0.00272812
0.00275228
0.00270897
0.00273495
0.00269041
0.00271799
0.00267233
0.00270129
0.00265461
0.00268475
0.00263718
0.00266829
0.00261999
0.00265187
0.00260297
0.00263545
0.0025861
0.002619
0.00256934
0.0026025
0.00255268
0.00258595
0.0025361
0.00256935
0.00251959
0.0025527
0.00250315
0.00253601
0.00248677
0.00251928
0.00247044
0.00250252
0.00245416
0.00248574
0.00243793
0.00246894
0.00242174
0.00245213
0.00240559
0.00243531
0.00238947
0.00241847
0.00237338
0.00240163
0.00235731
0.00238478
0.00234124
0.00236791
0.00232518
0.00476038
0.00427966
0.00431212
0.00385639
0.00389211
0.00347108
0.00350544
0.00312484
0.00315279
0.00297775
0.00297572
0.00293859
0.00293807
0.00290166
0.00290461
0.00286853
0.00287501
0.00283816
0.00284792
0.00281015
0.00282301
0.00278438
0.00280017
0.00276064
0.00277915
0.00273868
0.00275971
0.00271829
0.00274162
0.00269923
0.00272465
0.00268131
0.00270859
0.00266433
0.00269326
0.00264813
0.0026785
0.00263256
0.00266416
0.0026175
0.00265012
0.00260283
0.00263628
0.00258846
0.00262256
0.00257433
0.00260889
0.00256036
0.00259523
0.0025465
0.00258154
0.00253273
0.00256778
0.00251899
0.00255394
0.00250527
0.00254
0.00249155
0.00252596
0.00247782
0.0025118
0.00246405
0.00249754
0.00245025
0.00248317
0.00243639
0.00246868
0.00242248
0.00245408
0.00240852
0.00243938
0.00239448
0.00242457
0.00238038
0.00240965
0.0023662
0.00239463
0.00235194
0.0023795
0.00233759
0.0042052
0.00375233
0.0037818
0.00337984
0.00340365
0.0030599
0.00307278
0.00296405
0.00295833
0.00292202
0.00292051
0.00288216
0.00288454
0.00284503
0.00285125
0.00281131
0.00282123
0.00278079
0.00279414
0.00275316
0.00276966
0.00272818
0.00274758
0.00270556
0.00272761
0.00268504
0.00270948
0.00266635
0.00269294
0.00264922
0.00267773
0.00263342
0.00266363
0.00261873
0.00265041
0.00260496
0.00263791
0.00259193
0.00262594
0.0025795
0.00261438
0.00256753
0.00260308
0.0025559
0.00259196
0.00254452
0.00258093
0.00253331
0.00256991
0.0025222
0.00255885
0.00251114
0.00254771
0.00250008
0.00253645
0.00248899
0.00252505
0.00247782
0.00251349
0.00246657
0.00250175
0.00245522
0.00248983
0.00244374
0.00247772
0.00243213
0.00246541
0.00242038
0.00245292
0.00240848
0.00244022
0.00239643
0.00242734
0.00238422
0.00241426
0.00237186
0.002401
0.00235933
0.00238754
0.00234664
0.00368353
0.00331155
0.0033241
0.00302629
0.00302454
0.0029572
0.00294912
0.00290862
0.00290561
0.00286344
0.00286514
0.00282192
0.00282793
0.00278419
0.00279422
0.00275035
0.00276409
0.00272019
0.00273732
0.00269339
0.0027136
0.00266961
0.00269261
0.00264851
0.00267401
0.00262977
0.00265751
0.00261307
0.00264278
0.0025981
0.00262956
0.00258461
0.00261758
0.00257235
0.0026066
0.00256109
0.00259643
0.00255064
0.00258686
0.00254083
0.00257775
0.00253151
0.00256895
0.00252254
0.00256035
0.00251382
0.00255184
0.00250525
0.00254333
0.00249675
0.00253477
0.00248826
0.0025261
0.00247972
0.00251726
0.00247108
0.00250824
0.00246232
0.00249899
0.0024534
0.00248951
0.0024443
0.00247978
0.002435
0.00246979
0.0024255
0.00245953
0.00241577
0.002449
0.00240582
0.00243821
0.00239565
0.00242714
0.00238524
0.00241581
0.00237459
0.00240422
0.00236372
0.00239237
0.00235261
0.00326808
0.00302321
0.00300751
0.00295659
0.00294611
0.00289949
0.0028948
0.0028468
0.00284756
0.00279913
0.00280484
0.00275649
0.00276664
0.00271865
0.00273281
0.00268535
0.00270313
0.00265622
0.00267726
0.00263084
0.0026548
0.00260878
0.00263536
0.00258966
0.00261854
0.00257307
0.00260399
0.00255867
0.00259137
0.00254612
0.00258036
0.00253513
0.00257067
0.00252542
0.00256205
0.00251676
0.00255428
0.00250892
0.00254715
0.00250173
0.00254049
0.00249502
0.00253414
0.00248865
0.00252798
0.00248249
0.00252189
0.00247645
0.00251579
0.00247043
0.0025096
0.00246437
0.00250324
0.0024582
0.00249669
0.00245188
0.00248989
0.00244536
0.00248281
0.00243862
0.00247544
0.00243163
0.00246775
0.00242437
0.00245973
0.00241683
0.00245138
0.002409
0.0024427
0.00240087
0.00243368
0.00239245
0.00242432
0.00238373
0.00241463
0.0023747
0.00240462
0.00236539
0.00239428
0.00235578
0.00302289
0.00296615
0.00295106
0.00289615
0.00288924
0.0028332
0.00283283
0.00277744
0.00278268
0.00272847
0.00273863
0.00268573
0.00270025
0.00264865
0.00266704
0.00261669
0.00263853
0.00258929
0.0026142
0.00256593
0.00259357
0.00254612
0.00257616
0.0025294
0.00256153
0.00251533
0.00254928
0.00250352
0.00253903
0.00249361
0.00253043
0.00248528
0.0025232
0.00247824
0.00251705
0.00247224
0.00251174
0.00246705
0.00250707
0.00246247
0.00250284
0.00245832
0.0024989
0.00245448
0.00249511
0.00245079
0.00249136
0.00244717
0.00248755
0.00244351
0.0024836
0.00243974
0.00247944
0.00243581
0.00247502
0.00243165
0.00247029
0.00242723
0.00246524
0.00242252
0.00245982
0.00241749
0.00245403
0.00241212
0.00244785
0.00240641
0.00244128
0.00240034
0.00243431
0.00239391
0.00242694
0.00238712
0.00241918
0.00237996
0.00241102
0.00237245
0.00240248
0.00236459
0.00239357
0.00235638
0.00297674
0.00290438
0.00289321
0.00282572
0.00282292
0.00275886
0.00276273
0.00270162
0.0027111
0.00265262
0.00266696
0.00261081
0.00262941
0.0025753
0.00259765
0.00254536
0.00257101
0.00252028
0.00254882
0.00249946
0.00253053
0.00248232
0.00251558
0.00246835
0.00250349
0.00245708
0.00249383
0.00244809
0.00248617
0.00244098
0.00248017
0.00243544
0.00247551
0.00243114
0.00247191
0.00242784
0.0024691
0.00242528
0.00246688
0.00242328
0.00246506
0.00242166
0.00246348
0.00242025
0.00246199
0.00241895
0.00246048
0.00241763
0.00245884
0.00241621
0.00245701
0.0024146
0.00245491
0.00241276
0.0024525
0.00241062
0.00244971
0.00240816
0.00244654
0.00240533
0.00244294
0.00240211
0.00243891
0.0023985
0.00243443
0.00239448
0.00242949
0.00239003
0.00242411
0.00238517
0.00241827
0.00237989
0.00241198
0.00237419
0.00240525
0.00236808
0.00239808
0.00236157
0.00239049
0.00235466
0.0029132
0.00283137
0.00282235
0.00274844
0.00274813
0.0026796
0.00268637
0.002622
0.0026347
0.00257377
0.00259151
0.00253351
0.00255559
0.00250012
0.00252592
0.00247264
0.00250167
0.00245028
0.00248209
0.00243233
0.00246651
0.00241815
0.00245434
0.00240717
0.00244505
0.00239889
0.00243817
0.00239285
0.00243326
0.00238866
0.00242997
0.00238596
0.00242796
0.00238444
0.00242693
0.00238383
0.00242663
0.00238389
0.00242685
0.00238442
0.00242739
0.00238523
0.00242809
0.00238619
0.00242881
0.00238715
0.00242944
0.00238802
0.00242988
0.00238871
0.00243005
0.00238913
0.00242988
0.00238924
0.00242933
0.00238899
0.00242835
0.00238833
0.00242691
0.00238725
0.002425
0.00238571
0.00242258
0.00238371
0.00241967
0.00238124
0.00241625
0.00237829
0.00241232
0.00237487
0.00240788
0.00237097
0.00240295
0.00236661
0.00239753
0.00236179
0.00239164
0.00235652
0.00238527
0.00235082
0.00283391
0.00274871
0.00274224
0.00266515
0.00266735
0.00259634
0.00260582
0.00253962
0.00255521
0.00249298
0.00251376
0.00245487
0.00248006
0.00242403
0.00245295
0.00239939
0.00243149
0.00238005
0.00241482
0.00236522
0.00240222
0.0023542
0.00239304
0.00234637
0.00238672
0.00234119
0.00238275
0.0023382
0.0023807
0.00233697
0.00238017
0.00233714
0.00238083
0.00233839
0.00238238
0.00234045
0.00238457
0.00234306
0.00238717
0.00234604
0.00239001
0.00234921
0.00239291
0.00235242
0.00239575
0.00235555
0.00239841
0.00235848
0.00240081
0.00236115
0.00240285
0.00236347
0.00240449
0.0023654
0.00240567
0.00236689
0.00240636
0.0023679
0.00240653
0.00236842
0.00240616
0.00236842
0.00240524
0.0023679
0.00240376
0.00236685
0.00240172
0.00236527
0.00239913
0.00236316
0.00239598
0.00236053
0.0023923
0.00235739
0.00238808
0.00235375
0.00238335
0.00234963
0.00237811
0.00234503
0.00274339
0.00265762
0.00265421
0.00257603
0.00258115
0.00250913
0.00252153
0.00245457
0.00247315
0.00241045
0.00243425
0.00237516
0.00240337
0.00234739
0.00237929
0.00232598
0.00236097
0.00230996
0.0023475
0.00229848
0.0023381
0.00229078
0.00233209
0.00228624
0.00232886
0.00228426
0.0023279
0.00228437
0.00232874
0.00228612
0.002331
0.00228915
0.00233433
0.00229314
0.00233844
0.00229781
0.00234306
0.00230292
0.00234799
0.00230827
0.00235304
0.00231369
0.00235806
0.00231905
0.00236292
0.00232422
0.0023675
0.0023291
0.00237173
0.00233362
0.00237553
0.00233771
0.00237885
0.00234132
0.00238164
0.00234442
0.00238387
0.00234697
0.00238551
0.00234895
0.00238656
0.00235037
0.002387
0.00235119
0.00238684
0.00235144
0.00238606
0.0023511
0.00238469
0.00235019
0.00238272
0.00234871
0.00238016
0.00234668
0.00237704
0.00234412
0.00237337
0.00234103
0.00236917
0.00233743
0.00264413
0.00255939
0.00255929
0.00248149
0.00248984
0.00241799
0.00243358
0.0023668
0.00238854
0.00232612
0.00235304
0.00229437
0.00232564
0.00227021
0.00230508
0.00225245
0.00229028
0.00224008
0.0022803
0.00223219
0.00227432
0.00222802
0.00227163
0.00222688
0.00227161
0.00222818
0.00227372
0.00223143
0.00227751
0.00223618
0.00228256
0.00224206
0.00228855
0.00224875
0.00229517
0.00225597
0.00230217
0.00226349
0.00230936
0.00227112
0.00231654
0.00227871
0.00232358
0.0022861
0.00233035
0.00229319
0.00233675
0.0022999
0.0023427
0.00230615
0.00234813
0.00231188
0.00235301
0.00231704
0.00235728
0.00232162
0.00236093
0.00232558
0.00236393
0.00232891
0.00236628
0.0023316
0.00236796
0.00233366
0.00236899
0.00233508
0.00236937
0.00233587
0.0023691
0.00233604
0.00236819
0.00233561
0.00236667
0.00233459
0.00236455
0.00233299
0.00236185
0.00233084
0.00235858
0.00232816
0.00253791
0.00245521
0.0024585
0.00238216
0.00239388
0.00232317
0.00234211
0.00227634
0.00230138
0.00223993
0.00227008
0.00221241
0.0022468
0.00219242
0.00223026
0.00217875
0.00221939
0.00217036
0.0022132
0.00216633
0.00221087
0.00216586
0.00221167
0.00216826
0.00221498
0.00217293
0.00222024
0.00217936
0.002227
0.00218712
0.00223485
0.00219582
0.00224347
0.00220517
0.00225257
0.00221488
0.0022619
0.00222475
0.00227126
0.00223458
0.00228049
0.00224422
0.00228946
0.00225354
0.00229804
0.00226245
0.00230615
0.00227087
0.00231371
0.00227873
0.00232067
0.00228597
0.00232699
0.00229258
0.00233263
0.00229851
0.00233758
0.00230376
0.00234183
0.00230832
0.00234536
0.00231218
0.00234818
0.00231534
0.00235029
0.00231783
0.0023517
0.00231964
0.00235244
0.00232079
0.0023525
0.0023213
0.00235191
0.00232118
0.0023507
0.00232047
0.00234887
0.00231917
0.00234646
0.00231731
0.00242608
0.00234614
0.00235278
0.00227871
0.00229385
0.00222506
0.00224742
0.00218337
0.00221179
0.00215195
0.00218539
0.00212926
0.0021668
0.00211395
0.00215478
0.00210479
0.00214821
0.00210072
0.00214612
0.0021008
0.00214767
0.00210422
0.00215213
0.00211029
0.00215888
0.00211841
0.00216736
0.00212807
0.00217712
0.00213884
0.00218779
0.00215036
0.00219902
0.00216232
0.00221055
0.00217447
0.00222215
0.0021866
0.00223363
0.00219854
0.00224483
0.00221015
0.00225564
0.00222131
0.00226594
0.00223194
0.00227566
0.00224195
0.00228473
0.00225131
0.00229311
0.00225997
0.00230077
0.00226789
0.00230768
0.00227508
0.00231382
0.0022815
0.0023192
0.00228717
0.00232381
0.00229209
0.00232766
0.00229627
0.00233076
0.00229971
0.00233312
0.00230244
0.00233475
0.00230447
0.00233569
0.00230583
0.00233595
0.00230653
0.00233555
0.0023066
0.00233452
0.00230607
0.00233288
0.00230495
0.00230977
0.00223309
0.00224302
0.00217181
0.00219034
0.00212411
0.00214989
0.00208818
0.00211998
0.00206232
0.00209905
0.00204499
0.00208567
0.00203481
0.00207858
0.00203053
0.00207667
0.00203107
0.00207897
0.0020355
0.00208462
0.00204299
0.0020929
0.00205285
0.00210319
0.0020645
0.00211496
0.00207743
0.00212777
0.00209122
0.00214125
0.00210554
0.00215508
0.00212008
0.00216901
0.00213461
0.00218283
0.00214895
0.00219636
0.00216292
0.00220946
0.00217641
0.00222202
0.00218931
0.00223396
0.00220155
0.0022452
0.00221307
0.00225569
0.00222383
0.0022654
0.00223379
0.00227429
0.00224294
0.00228237
0.00225127
0.00228962
0.00225877
0.00229603
0.00226546
0.00230163
0.00227134
0.00230641
0.00227642
0.0023104
0.00228073
0.00231362
0.00228429
0.00231608
0.00228711
0.00231781
0.00228923
0.00231883
0.00229067
0.00231917
0.00229145
0.00231885
0.0022916
0.00231791
0.00229115
0.00218986
0.00211684
0.00212997
0.00206209
0.00208395
0.0020208
0.00204996
0.0019911
0.00202626
0.00197128
0.00201126
0.00195974
0.00200351
0.00195506
0.00200172
0.00195598
0.00200478
0.00196141
0.00201169
0.00197038
0.00202163
0.00198209
0.00203387
0.00199585
0.00204781
0.00201108
0.00206293
0.00202731
0.00207882
0.00204413
0.00209511
0.00206122
0.00211152
0.00207831
0.00212782
0.00209517
0.0021438
0.00211164
0.00215932
0.00212758
0.00217426
0.00214287
0.0021885
0.00215743
0.00220199
0.0021712
0.00221467
0.00218413
0.0022265
0.0021962
0.00223745
0.00220737
0.0022475
0.00221765
0.00225666
0.00222703
0.00226492
0.00223553
0.00227229
0.00224314
0.00227878
0.00224989
0.00228442
0.0022558
0.00228922
0.00226089
0.00229321
0.00226519
0.00229641
0.00226872
0.00229886
0.00227152
0.00230057
0.00227362
0.00230158
0.00227503
0.00230191
0.00227581
0.0023016
0.00227596
0.00206714
0.00199807
0.0020143
0.00195013
0.00197526
0.00191559
0.00194809
0.00189252
0.00193098
0.00187911
0.00192227
0.00187371
0.00192048
0.00187486
0.0019243
0.00188124
0.00193257
0.00189175
0.00194431
0.00190543
0.00195868
0.00192148
0.00197499
0.00193921
0.00199265
0.00195808
0.00201116
0.00197762
0.00203013
0.00199746
0.00204924
0.0020173
0.00206821
0.00203688
0.00208683
0.00205602
0.00210494
0.00207456
0.0021224
0.00209239
0.0021391
0.00210941
0.00215496
0.00212555
0.00216994
0.00214077
0.00218398
0.00215503
0.00219707
0.00216832
0.00220918
0.00218063
0.00222031
0.00219196
0.00223047
0.00220231
0.00223967
0.00221171
0.00224792
0.00222017
0.00225524
0.00222771
0.00226166
0.00223436
0.0022672
0.00224016
0.00227189
0.00224513
0.00227576
0.0022493
0.00227885
0.00225271
0.00228118
0.00225539
0.0022828
0.00225738
0.00228372
0.00225871
0.00228399
0.00225941
0.00194227
0.00187737
0.00189661
0.00183646
0.00186477
0.00180895
0.0018447
0.00179282
0.00183449
0.00178613
0.00183238
0.00178716
0.00183683
0.00179437
0.00184647
0.00180643
0.00186014
0.00182219
0.00187686
0.0018407
0.00189578
0.00186116
0.00191624
0.00188291
0.00193766
0.00190543
0.00195958
0.00192828
0.00198164
0.00195111
0.00200354
0.00197365
0.00202504
0.00199569
0.00204595
0.00201704
0.00206612
0.00203759
0.00208546
0.00205724
0.00210387
0.00207591
0.00212129
0.00209356
0.00213768
0.00211016
0.00215303
0.00212568
0.0021673
0.00214012
0.00218051
0.00215349
0.00219266
0.00216579
0.00220375
0.00217704
0.00221382
0.00218727
0.00222288
0.00219651
0.00223096
0.00220477
0.00223809
0.0022121
0.0022443
0.00221853
0.00224963
0.0022241
0.00225412
0.00222884
0.00225779
0.0022328
0.00226068
0.00223601
0.00226284
0.00223851
0.0022643
0.00224034
0.00226509
0.00224153
0.00181582
0.00175528
0.00177744
0.00172155
0.00175298
0.00170131
0.00174025
0.00169237
0.00173717
0.00169267
0.0017419
0.00170036
0.0017528
0.00171384
0.00176845
0.00173172
0.00178766
0.00175285
0.00180945
0.00177626
0.00183299
0.00180117
0.00185763
0.00182696
0.00188283
0.00185312
0.00190816
0.00187924
0.00193328
0.00190502
0.00195794
0.00193022
0.00198192
0.00195464
0.00200506
0.00197814
0.00202726
0.00200063
0.00204841
0.00202203
0.00206846
0.00204228
0.00208738
0.00206137
0.00210513
0.00207927
0.00212171
0.00209598
0.00213711
0.0021115
0.00215136
0.00212586
0.00216446
0.00213908
0.00217643
0.00215117
0.00218731
0.00216217
0.00219712
0.00217212
0.00220591
0.00218104
0.00221369
0.00218899
0.00222052
0.00219599
0.00222643
0.0022021
0.00223147
0.00220735
0.00223567
0.0022118
0.00223907
0.00221547
0.00224173
0.00221843
0.00224367
0.00222071
0.00224493
0.00222234
0.0016883
0.00163225
0.00165726
0.00160585
0.00164035
0.00159309
0.00163514
0.00159157
0.00163942
0.00159908
0.00165118
0.00161363
0.00166868
0.00163352
0.00169046
0.00165734
0.00171531
0.00168389
0.00174222
0.00171223
0.00177041
0.0017416
0.00179923
0.00177139
0.00182818
0.00180115
0.00185688
0.00183049
0.00188503
0.00185916
0.00191239
0.00188693
0.00193879
0.00191366
0.00196411
0.00193924
0.00198825
0.00196359
0.00201116
0.00198667
0.0020328
0.00200843
0.00205314
0.00202888
0.00207219
0.00204802
0.00208995
0.00206585
0.00210643
0.0020824
0.00212165
0.00209769
0.00213565
0.00211176
0.00214845
0.00212463
0.00216009
0.00213636
0.00217061
0.00214697
0.00218004
0.0021565
0.00218844
0.00216501
0.00219583
0.00217254
0.00220228
0.00217913
0.00220782
0.00218484
0.00221249
0.00218971
0.00221636
0.0021938
0.00221946
0.00219716
0.00222184
0.00219983
0.00222354
0.00220186
0.00156017
0.00150872
0.00153652
0.00148976
0.00152728
0.00148468
0.0015298
0.0014908
0.00154161
0.00150571
0.00156056
0.00152727
0.00158479
0.0015537
0.00161279
0.00158351
0.0016433
0.00161551
0.00167535
0.00164877
0.00170816
0.00168255
0.00174112
0.00171629
0.00177378
0.00174956
0.00180579
0.00178205
0.00183688
0.00181351
0.00186687
0.00184377
0.00189562
0.00187273