/*--------------------------------*- C++ -*----------------------------------*\
| =========                 |                                                 |
| \\      /  F ield         | OpenFOAM: The Open Source CFD Toolbox           |
|  \\    /   O peration     | Version:  v2012                                 |
|   \\  /    A nd           | Website:  www.openfoam.com                      |
|    \\/     M anipulation  |                                                 |
\*---------------------------------------------------------------------------*/
FoamFile
{
    version     2.0;
    format      ascii;
    class       volSymmTensorField;
    location    "8";
    object      sigma;
}
// * * * * * * * * * * * * * * * * * * * * * * * * * * * * * * * * * * * * * //

dimensions      [1 -1 -2 0 0 0 0];


internalField   nonuniform List<symmTensor> 
32000
(
(2.82288e+08 -3.49626e+06 2.67354e-08 2.26026e+06 -8.59337e-07 1.28111e+08)
(2.78158e+08 -4.59396e+06 7.24677e-08 -1.79607e+06 -9.1243e-07 1.23865e+08)
(2.87025e+08 -3.14994e+06 4.50838e-08 7.07602e+06 -9.18395e-07 1.31534e+08)
(2.81258e+08 -4.5823e+06 9.69086e-08 1.39401e+06 -9.15106e-07 1.25736e+08)
(2.91413e+08 -2.76709e+06 5.19188e-08 1.15678e+07 -9.81151e-07 1.34428e+08)
(2.8414e+08 -4.49626e+06 1.36319e-07 4.37639e+06 -1.02983e-06 1.27294e+08)
(2.95437e+08 -2.42162e+06 8.56908e-08 1.57227e+07 -1.04643e-06 1.36831e+08)
(2.87024e+08 -4.43e+06 1.18173e-07 7.38409e+06 -1.09046e-06 1.28733e+08)
(2.99149e+08 -2.12484e+06 3.50259e-08 1.95948e+07 -1.11292e-06 1.38812e+08)
(2.89936e+08 -4.40093e+06 1.31721e-07 1.04458e+07 -1.06353e-06 1.30072e+08)
(3.02609e+08 -1.87571e+06 9.85883e-08 2.32455e+07 -1.02886e-06 1.40447e+08)
(2.92856e+08 -4.40931e+06 2.49329e-07 1.35467e+07 -1.13031e-06 1.31285e+08)
(3.05864e+08 -1.6601e+06 1.42696e-07 2.67248e+07 -1.01464e-06 1.41769e+08)
(2.9576e+08 -4.4502e+06 3.08549e-07 1.66666e+07 -1.08908e-06 1.32348e+08)
(3.08948e+08 -1.4669e+06 1.5771e-07 3.00711e+07 -9.00527e-07 1.42802e+08)
(2.98626e+08 -4.51898e+06 4.1869e-07 1.97869e+07 -1.11108e-06 1.33237e+08)
(3.11882e+08 -1.28609e+06 2.59417e-07 3.33119e+07 -9.07819e-07 1.43563e+08)
(3.01428e+08 -4.60983e+06 6.69042e-07 2.28856e+07 -1.27305e-06 1.33949e+08)
(3.14677e+08 -1.10634e+06 3.99259e-07 3.6464e+07 -1.02004e-06 1.44054e+08)
(3.04153e+08 -4.72294e+06 5.80435e-07 2.59562e+07 -1.50089e-06 1.34441e+08)
(3.17347e+08 -927602 1.74569e-07 3.9543e+07 -1.37991e-06 1.44314e+08)
(3.06782e+08 -4.85571e+06 7.87587e-08 2.89909e+07 -1.83574e-06 1.34685e+08)
(3.19883e+08 -734146 -9.66709e-08 4.25535e+07 -1.38469e-06 1.44293e+08)
(3.09302e+08 -5.00561e+06 1.37488e-07 3.19834e+07 -1.86074e-06 1.34663e+08)
(3.22275e+08 -519718 2.33894e-07 4.54951e+07 -1.69938e-06 1.43975e+08)
(3.11688e+08 -5.16564e+06 1.92794e-07 3.49071e+07 -2.15297e-06 1.34398e+08)
(3.24507e+08 -278123 -4.77377e-08 4.83598e+07 -1.83533e-06 1.43352e+08)
(3.13919e+08 -5.33716e+06 -1.1374e-07 3.77614e+07 -1.61946e-06 1.33813e+08)
(3.26568e+08 -10338.1 -6.57592e-08 5.11413e+07 -1.46447e-06 1.42442e+08)
(3.15982e+08 -5.51498e+06 -5.72052e-09 4.05471e+07 -1.14942e-06 1.32885e+08)
(3.2842e+08 298095 5.98218e-08 5.38231e+07 -9.94539e-07 1.41162e+08)
(3.17856e+08 -5.69195e+06 -1.59561e-07 4.32409e+07 -6.46908e-07 1.31644e+08)
(3.30025e+08 658262 -2.15576e-07 5.63792e+07 -6.05319e-07 1.39479e+08)
(3.19506e+08 -5.86197e+06 -3.97789e-07 4.58212e+07 -4.37886e-07 1.30048e+08)
(3.31376e+08 1.05659e+06 -1.76607e-07 5.8789e+07 -1.00047e-07 1.37482e+08)
(3.20912e+08 -6.01825e+06 -3.03956e-07 4.82957e+07 1.08727e-07 1.28031e+08)
(3.32399e+08 1.52087e+06 -1.22847e-07 6.1014e+07 4.73495e-07 1.35025e+08)
(3.22057e+08 -6.14739e+06 -9.56336e-08 5.06395e+07 3.594e-07 1.25645e+08)
(3.33031e+08 2.0706e+06 2.69747e-08 6.30004e+07 5.17714e-07 1.32072e+08)
(3.22895e+08 -6.23981e+06 3.41569e-08 5.28134e+07 3.25555e-07 1.22861e+08)
(3.33259e+08 2.69772e+06 7.78833e-09 6.46956e+07 3.14287e-07 1.28748e+08)
(3.23389e+08 -6.29867e+06 -1.92178e-08 5.48285e+07 1.69646e-07 1.19565e+08)
(3.32955e+08 3.45949e+06 -2.50127e-08 6.60213e+07 1.51428e-07 1.24835e+08)
(3.23461e+08 -6.35265e+06 -4.33171e-08 5.65832e+07 1.36342e-07 1.15792e+08)
(3.32025e+08 4.40884e+06 -1.59127e-08 6.68891e+07 1.85166e-07 1.20286e+08)
(3.15772e+08 -5.62762e+06 -1.24058e-08 5.97545e+07 1.63464e-07 1.12658e+08)
(3.19282e+08 4.71537e+06 2.18925e-09 6.7267e+07 1.63464e-07 1.15965e+08)
(3.03907e+08 -3.94631e+06 2.11628e-08 6.02726e+07 1.63464e-07 1.09254e+08)
(3.06966e+08 4.66196e+06 1.7514e-08 6.6849e+07 1.86816e-07 1.12144e+08)
(2.93659e+08 -2.85306e+06 4.23256e-08 6.03829e+07 1.63464e-07 1.06213e+08)
(2.9626e+08 4.54389e+06 2.26223e-08 6.59677e+07 1.63464e-07 1.08668e+08)
(2.84585e+08 -2.08367e+06 4.01363e-08 6.00966e+07 1.1676e-07 1.03404e+08)
(2.86781e+08 4.40654e+06 1.67843e-08 6.47969e+07 1.86816e-07 1.05473e+08)
(2.76418e+08 -1.51533e+06 2.26223e-08 5.94896e+07 9.34082e-08 1.00772e+08)
(2.78272e+08 4.26871e+06 5.83801e-09 6.34375e+07 1.1676e-07 1.02513e+08)
(2.68982e+08 -1.08099e+06 1.09463e-08 5.86349e+07 1.86816e-07 9.82851e+07)
(2.7055e+08 4.13819e+06 6.56776e-09 6.1952e+07 1.40112e-07 9.97506e+07)
(2.62147e+08 -740309 5.10826e-09 5.75912e+07 1.86816e-07 9.59214e+07)
(2.63476e+08 4.01787e+06 -7.29751e-10 6.03812e+07 9.34082e-08 9.71571e+07)
(2.55815e+08 -467471 -2.18925e-09 5.64043e+07 7.00561e-08 9.36658e+07)
(2.56944e+08 3.90841e+06 -1.4595e-09 5.87525e+07 9.34082e-08 9.4709e+07)
(2.49912e+08 -245161 -4.37851e-09 5.51089e+07 9.34082e-08 9.15062e+07)
(2.50872e+08 3.80955e+06 -7.29751e-10 5.70847e+07 9.34082e-08 9.23871e+07)
(2.44377e+08 -61336.4 -2.91901e-09 5.37318e+07 7.00561e-08 8.94326e+07)
(2.45194e+08 3.72066e+06 -7.29751e-10 5.53912e+07 1.1676e-07 9.01756e+07)
(2.39162e+08 92672.9 7.29751e-10 5.22936e+07 9.34082e-08 8.74365e+07)
(2.39856e+08 3.64112e+06 7.29751e-10 5.36813e+07 9.34082e-08 8.80611e+07)
(2.34225e+08 223328 0 5.08103e+07 2.10168e-07 8.55106e+07)
(2.34812e+08 3.5704e+06 7.29751e-10 5.19616e+07 1.63464e-07 8.60322e+07)
(2.29534e+08 335614 2.91901e-09 4.92948e+07 2.3352e-08 8.36486e+07)
(2.30026e+08 3.50826e+06 2.91901e-09 5.02363e+07 7.00561e-08 8.40787e+07)
(2.25058e+08 433501 2.91901e-09 4.77573e+07 1.40112e-07 8.18447e+07)
(2.25465e+08 3.45479e+06 7.29751e-10 4.85079e+07 1.63464e-07 8.21918e+07)
(2.20773e+08 520156 3.64876e-09 4.62062e+07 4.67041e-08 8.00938e+07)
(2.21099e+08 3.41055e+06 7.29751e-10 4.67773e+07 1.40112e-07 8.03629e+07)
(2.16654e+08 597751 1.4595e-09 4.46491e+07 4.67041e-08 7.83908e+07)
(2.16901e+08 3.37678e+06 1.4595e-09 4.50438e+07 2.3352e-08 7.85834e+07)
(2.12673e+08 666259 7.29751e-10 4.3092e+07 9.34082e-08 7.67294e+07)
(2.1284e+08 3.35567e+06 7.29751e-10 4.3306e+07 2.3352e-08 7.68437e+07)
(2.0879e+08 719105 1.4595e-09 4.15389e+07 -4.67041e-08 7.50988e+07)
(2.84722e+08 -8.1177e+06 1.09178e-07 5.1104e+06 -9.5352e-07 1.30275e+08)
(2.77179e+08 -9.56402e+06 1.65187e-07 -2.26352e+06 -9.97031e-07 1.23015e+08)
(2.8771e+08 -8.18888e+06 1.73115e-07 8.20289e+06 -1.00379e-06 1.32003e+08)
(2.80819e+08 -9.72827e+06 2.21314e-07 1.49953e+06 -1.07907e-06 1.25324e+08)
(2.91126e+08 -8.07951e+06 2.22456e-07 1.17214e+07 -1.05441e-06 1.34018e+08)
(2.84132e+08 -9.78807e+06 2.62685e-07 4.93631e+06 -1.1362e-06 1.27241e+08)
(2.94626e+08 -7.90237e+06 2.06569e-07 1.53391e+07 -1.22884e-06 1.35984e+08)
(2.8728e+08 -9.80931e+06 2.6375e-07 8.22237e+06 -1.26681e-06 1.28903e+08)
(2.98083e+08 -7.69883e+06 2.58994e-07 1.89387e+07 -1.35402e-06 1.37777e+08)
(2.90336e+08 -9.82171e+06 4.25412e-07 1.14372e+07 -1.42125e-06 1.30361e+08)
(3.01442e+08 -7.48456e+06 4.22812e-07 2.24686e+07 -1.32205e-06 1.3934e+08)
(2.93329e+08 -9.83818e+06 5.50044e-07 1.4618e+07 -1.29184e-06 1.31636e+08)
(3.04676e+08 -7.26842e+06 5.32713e-07 2.59075e+07 -1.2235e-06 1.40665e+08)
(2.96264e+08 -9.86484e+06 7.95173e-07 1.77766e+07 -1.28437e-06 1.3272e+08)
(3.07772e+08 -7.04826e+06 8.35614e-07 2.92464e+07 -1.37473e-06 1.41724e+08)
(2.99145e+08 -9.90477e+06 8.67919e-07 2.09204e+07 -1.55777e-06 1.33609e+08)
(3.10732e+08 -6.82654e+06 8.4941e-07 3.24933e+07 -1.69057e-06 1.42514e+08)
(3.01963e+08 -9.96016e+06 7.10206e-07 2.4048e+07 -2.12779e-06 1.343e+08)
(3.1355e+08 -6.60184e+06 7.00405e-07 3.56512e+07 -2.13238e-06 1.43021e+08)
(3.04703e+08 -1.00274e+07 3.05259e-07 2.71498e+07 -2.27616e-06 1.34773e+08)
(3.16219e+08 -6.36221e+06 8.82226e-08 3.87148e+07 -2.13046e-06 1.43248e+08)
(3.07348e+08 -1.01032e+07 -8.62105e-08 3.02176e+07 -1.97521e-06 1.34991e+08)
(3.18729e+08 -6.09415e+06 1.33541e-07 4.16788e+07 -2.13557e-06 1.43188e+08)
(3.09881e+08 -1.0182e+07 7.944e-08 3.32438e+07 -2.01759e-06 1.34929e+08)
(3.21081e+08 -5.79581e+06 4.10779e-08 4.45604e+07 -2.11267e-06 1.42816e+08)
(3.12281e+08 -1.0259e+07 -5.79982e-07 3.62131e+07 -1.70016e-06 1.34582e+08)
(3.23255e+08 -5.45537e+06 -4.89468e-07 4.73488e+07 -1.45664e-06 1.421e+08)
(3.14524e+08 -1.03241e+07 -6.10793e-07 3.91082e+07 -1.02133e-06 1.33934e+08)
(3.25224e+08 -5.05681e+06 -1.65927e-07 5.00157e+07 -7.91132e-07 1.41062e+08)
(3.16577e+08 -1.03746e+07 -3.52025e-07 4.19147e+07 -4.61256e-07 1.32914e+08)
(3.26969e+08 -4.58714e+06 -3.98269e-07 5.25605e+07 -5.1959e-07 1.39657e+08)
(3.18424e+08 -1.03976e+07 -6.15816e-07 4.46285e+07 -4.75795e-07 1.31507e+08)
(3.28471e+08 -4.04618e+06 -5.44548e-07 5.49846e+07 -4.07837e-07 1.37843e+08)
(3.20024e+08 -1.03811e+07 -5.02438e-07 4.71983e+07 -1.02077e-07 1.29756e+08)
(3.29678e+08 -3.40567e+06 -4.68955e-07 5.72337e+07 3.31251e-08 1.35622e+08)
(3.2133e+08 -1.03206e+07 -4.44315e-07 4.96091e+07 2.02702e-07 1.27547e+08)
(3.30573e+08 -2.66263e+06 -2.51129e-07 5.93023e+07 2.75892e-07 1.32997e+08)
(3.2232e+08 -1.02108e+07 -1.91449e-07 5.18557e+07 3.07689e-07 1.24854e+08)
(3.31152e+08 -1.83799e+06 -2.34272e-08 6.1227e+07 1.68482e-07 1.29902e+08)
(3.22947e+08 -1.00454e+07 -7.21161e-08 5.38572e+07 3.03361e-07 1.21775e+08)
(3.31406e+08 -941837 -3.31104e-08 6.29949e+07 1.95187e-07 1.26399e+08)
(3.23158e+08 -9.82495e+06 -5.70674e-08 5.55924e+07 2.8262e-07 1.18199e+08)
(3.31496e+08 -100940 -5.10941e-08 6.48037e+07 1.54663e-07 1.22615e+08)
(3.23034e+08 -9.50909e+06 -4.3627e-08 5.71183e+07 2.32677e-07 1.14284e+08)
(3.27885e+08 1.58299e+06 -2.18925e-08 6.45373e+07 0 1.17727e+08)
(3.12558e+08 -6.70959e+06 -1.02165e-08 5.8967e+07 1.86816e-07 1.11457e+08)
(3.1602e+08 3.54912e+06 2.48115e-08 6.50396e+07 2.10168e-07 1.14318e+08)
(3.01818e+08 -4.11096e+06 2.48115e-08 5.88761e+07 2.80225e-07 1.08208e+08)
(3.05131e+08 4.79414e+06 4.81636e-08 6.48668e+07 1.86816e-07 1.10999e+08)
(2.92186e+08 -2.18301e+06 3.94066e-08 5.85721e+07 2.10168e-07 1.05228e+08)
(2.95268e+08 5.61062e+06 5.25421e-08 6.42399e+07 1.63464e-07 1.07852e+08)
(2.83497e+08 -741815 1.89735e-08 5.80687e+07 1.1676e-07 1.0247e+08)
(2.86314e+08 6.15575e+06 1.89735e-08 6.32972e+07 9.34082e-08 1.04884e+08)
(2.75591e+08 352172 -1.4595e-09 5.73804e+07 9.34082e-08 9.98914e+07)
(2.78143e+08 6.52264e+06 7.29751e-09 6.21316e+07 1.40112e-07 1.02082e+08)
(2.6834e+08 1.1959e+06 -1.4595e-09 5.6529e+07 7.00561e-08 9.74608e+07)
(2.7064e+08 6.76961e+06 0 6.08072e+07 1.86816e-07 9.94342e+07)
(2.61643e+08 1.85625e+06 -7.29751e-09 5.55392e+07 2.10168e-07 9.51545e+07)
(2.63709e+08 6.93445e+06 -1.4595e-09 5.93696e+07 2.3352e-07 9.69236e+07)
(2.55416e+08 2.37991e+06 0 5.44345e+07 1.40112e-07 9.29552e+07)
(2.57271e+08 7.04229e+06 -4.37851e-09 5.78514e+07 2.10168e-07 9.45367e+07)
(2.49595e+08 2.8e+06 -2.91901e-09 5.3236e+07 7.00561e-08 9.08494e+07)
(2.51259e+08 7.11014e+06 -2.91901e-09 5.62766e+07 7.00561e-08 9.22607e+07)
(2.44125e+08 3.14037e+06 -2.91901e-09 5.19621e+07 1.40112e-07 8.88262e+07)
(2.45619e+08 7.14974e+06 -5.83801e-09 5.46628e+07 7.00561e-08 9.00844e+07)
(2.38962e+08 3.41846e+06 -1.4595e-09 5.06282e+07 -4.67041e-08 8.68771e+07)
(2.40303e+08 7.16924e+06 -2.91901e-09 5.30233e+07 2.10168e-07 8.79978e+07)
(2.34067e+08 3.64717e+06 -1.4595e-09 4.92474e+07 1.1676e-07 8.49944e+07)
(2.35272e+08 7.17438e+06 7.29751e-09 5.13684e+07 2.3352e-08 8.59921e+07)
(2.29409e+08 3.83606e+06 8.75702e-09 4.78305e+07 7.00561e-08 8.31718e+07)
(2.30492e+08 7.16905e+06 1.02165e-08 4.97063e+07 4.67041e-08 8.40595e+07)
(2.24959e+08 3.99217e+06 4.37851e-09 4.63867e+07 1.86816e-07 8.14037e+07)
(2.25934e+08 7.1556e+06 5.83801e-09 4.80443e+07 1.1676e-07 8.21936e+07)
(2.20693e+08 4.12046e+06 4.37851e-09 4.49236e+07 1.1676e-07 7.96851e+07)
(2.21574e+08 7.13439e+06 4.37851e-09 4.63896e+07 -4.67041e-08 8.03892e+07)
(2.16592e+08 4.22402e+06 2.91901e-09 4.34476e+07 9.34082e-08 7.80119e+07)
(2.17392e+08 7.10218e+06 5.83801e-09 4.47522e+07 -7.00561e-08 7.86434e+07)
(2.12642e+08 4.3044e+06 7.29751e-09 4.1964e+07 -7.00561e-08 7.63819e+07)
(2.1338e+08 7.04661e+06 2.18925e-09 4.31496e+07 4.67041e-08 7.6959e+07)
(2.08854e+08 4.3636e+06 4.37851e-09 4.04779e+07 0 7.47996e+07)
(2.85328e+08 -1.31082e+07 2.68814e-07 6.4972e+06 -1.0335e-06 1.30963e+08)
(2.76687e+08 -1.47843e+07 4.28117e-07 -1.83068e+06 -1.11461e-06 1.22798e+08)
(2.87944e+08 -1.32764e+07 3.53197e-07 9.24437e+06 -1.12667e-06 1.32306e+08)
(2.80379e+08 -1.4951e+07 4.8412e-07 2.00513e+06 -1.16827e-06 1.2509e+08)
(2.90893e+08 -1.32975e+07 3.86453e-07 1.23163e+07 -1.21424e-06 1.33856e+08)
(2.8386e+08 -1.50603e+07 6.15762e-07 5.63388e+06 -1.43488e-06 1.27105e+08)
(2.94008e+08 -1.32319e+07 5.3598e-07 1.55606e+07 -1.44354e-06 1.35448e+08)
(2.87173e+08 -1.51315e+07 5.53787e-07 9.10699e+06 -1.71707e-06 1.28863e+08)
(2.97184e+08 -1.31094e+07 4.12248e-07 1.88795e+07 -1.6077e-06 1.36972e+08)
(2.90359e+08 -1.51795e+07 2.61377e-07 1.24727e+07 -1.79399e-06 1.30393e+08)
(3.00348e+08 -1.29478e+07 4.0874e-07 2.22099e+07 -1.44345e-06 1.38351e+08)
(2.93444e+08 -1.52142e+07 6.91452e-07 1.5762e+07 -1.42908e-06 1.31708e+08)
(3.03454e+08 -1.27536e+07 1.10212e-06 2.55119e+07 -1.31329e-06 1.39537e+08)
(2.96447e+08 -1.52439e+07 1.49702e-06 1.90032e+07 -1.27872e-06 1.32813e+08)
(3.06471e+08 -1.2537e+07 1.22626e-06 2.87595e+07 -1.55507e-06 1.40508e+08)
(2.99373e+08 -1.52749e+07 1.60559e-06 2.22098e+07 -1.7986e-06 1.33693e+08)
(3.09373e+08 -1.22954e+07 1.10596e-06 3.1934e+07 -2.30026e-06 1.41221e+08)
(3.02222e+08 -1.5307e+07 7.89209e-07 2.53882e+07 -2.41568e-06 1.34338e+08)
(3.1214e+08 -1.20255e+07 1.23666e-08 3.50227e+07 -2.36565e-06 1.41651e+08)
(3.0498e+08 -1.53374e+07 -3.53321e-07 2.85316e+07 -1.53197e-06 1.34736e+08)
(3.14755e+08 -1.17193e+07 -2.35388e-07 3.80152e+07 -1.44806e-06 1.41771e+08)
(3.07635e+08 -1.53576e+07 1.21633e-07 3.16311e+07 -2.7246e-07 1.34877e+08)
(3.17206e+08 -1.13723e+07 2.12788e-07 4.09042e+07 -7.52733e-07 1.41586e+08)
(3.10163e+08 -1.53631e+07 3.93977e-08 3.46779e+07 -1.22842e-08 1.3471e+08)
(3.19477e+08 -1.09664e+07 -7.22197e-07 4.36817e+07 -8.34284e-07 1.41073e+08)
(3.12543e+08 -1.53464e+07 -7.99741e-07 3.76622e+07 -1.32517e-07 1.34204e+08)
(3.21549e+08 -1.04915e+07 -7.78213e-07 4.63418e+07 -4.24039e-07 1.40192e+08)
(3.14751e+08 -1.52964e+07 -6.3303e-07 4.05623e+07 2.72344e-08 1.33355e+08)
(3.234e+08 -9.9313e+06 -6.30358e-07 4.88751e+07 -2.5975e-07 1.38913e+08)
(3.1675e+08 -1.51973e+07 -7.25198e-07 4.33482e+07 8.32386e-08 1.32145e+08)
(3.25009e+08 -9.27851e+06 -6.49601e-07 5.12579e+07 -1.3251e-07 1.3728e+08)
(3.18498e+08 -1.50403e+07 -7.04084e-07 4.59981e+07 5.57682e-08 1.30496e+08)
(3.26367e+08 -8.51584e+06 -6.14281e-07 5.35079e+07 7.50111e-08 1.35234e+08)
(3.19967e+08 -1.4813e+07 -6.1271e-07 4.84952e+07 3.54117e-07 1.28391e+08)
(3.27449e+08 -7.64073e+06 -4.75418e-07 5.56226e+07 2.38506e-07 1.32744e+08)
(3.21121e+08 -1.45014e+07 -3.82249e-07 5.07805e+07 3.49819e-07 1.2591e+08)
(3.28247e+08 -6.66165e+06 -2.93908e-07 5.75904e+07 2.46235e-07 1.29875e+08)
(3.21905e+08 -1.40928e+07 -1.96467e-07 5.28243e+07 3.93918e-07 1.22945e+08)
(3.28795e+08 -5.59259e+06 -1.26401e-07 5.94695e+07 1.86805e-07 1.26655e+08)
(3.22304e+08 -1.35765e+07 -1.08011e-07 5.46107e+07 1.47527e-07 1.19528e+08)
(3.29069e+08 -4.44667e+06 -6.39511e-08 6.12597e+07 1.91853e-07 1.23064e+08)
(3.22312e+08 -1.293e+07 -8.72604e-08 5.60505e+07 2.70226e-07 1.1586e+08)
(3.28951e+08 -3.15662e+06 -5.6933e-08 6.27597e+07 9.10928e-08 1.19202e+08)
(3.18206e+08 -1.09892e+07 -6.42181e-08 5.77708e+07 1.63464e-07 1.12793e+08)
(3.21608e+08 206822 -2.48115e-08 6.20571e+07 9.34082e-08 1.15099e+08)
(3.0785e+08 -6.87213e+06 -7.29751e-09 5.69279e+07 7.00561e-08 1.09433e+08)
(3.11488e+08 2.97957e+06 8.75702e-09 6.22118e+07 7.00561e-08 1.1211e+08)
(2.98384e+08 -3.74827e+06 -1.02165e-08 5.62903e+07 9.34082e-08 1.06402e+08)
(3.02039e+08 5.00688e+06 -4.37851e-09 6.19746e+07 1.40112e-07 1.09204e+08)
(2.89681e+08 -1.33651e+06 -2.62711e-08 5.56809e+07 1.40112e-07 1.03609e+08)
(2.93227e+08 6.48998e+06 -1.31355e-08 6.14143e+07 1.40112e-07 1.06392e+08)
(2.81658e+08 543817 -3.94066e-08 5.50249e+07 9.34082e-08 1.01005e+08)
(2.85025e+08 7.58204e+06 -1.1676e-08 6.05997e+07 7.00561e-08 1.03688e+08)
(2.74236e+08 2.02304e+06 -3.64876e-08 5.42891e+07 1.86816e-07 9.85574e+07)
(2.77391e+08 8.39178e+06 -2.77306e-08 5.95882e+07 1.40112e-07 1.01094e+08)
(2.67342e+08 3.19707e+06 -2.18925e-08 5.34617e+07 1.63464e-07 9.6241e+07)
(2.70274e+08 8.99573e+06 0 5.84254e+07 2.3352e-08 9.86098e+07)
(2.60911e+08 4.13685e+06 -2.91901e-09 5.25429e+07 3.03577e-07 9.40363e+07)
(2.63622e+08 9.44803e+06 0 5.71468e+07 9.34082e-08 9.62305e+07)
(2.54889e+08 4.89508e+06 7.29751e-09 5.15389e+07 2.3352e-08 9.19284e+07)
(2.57386e+08 9.78741e+06 1.4595e-09 5.57802e+07 1.1676e-07 9.39499e+07)
(2.49227e+08 5.51117e+06 2.91901e-09 5.04587e+07 2.3352e-08 8.99056e+07)
(2.51522e+08 1.00418e+07 -4.37851e-09 5.43476e+07 -2.3352e-08 9.17609e+07)
(2.43882e+08 6.0148e+06 -1.4595e-08 4.93123e+07 9.34082e-08 8.79581e+07)
(2.4599e+08 1.02317e+07 -1.02165e-08 5.28661e+07 1.1676e-07 8.96568e+07)
(2.38818e+08 6.42848e+06 -1.02165e-08 4.81093e+07 1.86816e-07 8.60782e+07)
(2.40754e+08 1.03718e+07 1.4595e-09 5.13494e+07 4.67041e-08 8.76311e+07)
(2.34004e+08 6.76935e+06 -5.83801e-09 4.68592e+07 1.1676e-07 8.4259e+07)
(2.35783e+08 1.04732e+07 0 4.98086e+07 7.00561e-08 8.56774e+07)
(2.29413e+08 7.05051e+06 0 4.55702e+07 4.67041e-08 8.2495e+07)
(2.31048e+08 1.05436e+07 2.91901e-09 4.82528e+07 2.10168e-07 8.37904e+07)
(2.25021e+08 7.28198e+06 4.37851e-09 4.42499e+07 0 8.07813e+07)
(2.26526e+08 1.05887e+07 5.83801e-09 4.66896e+07 1.1676e-07 8.19648e+07)
(2.20808e+08 7.47145e+06 8.75702e-09 4.29048e+07 0 7.91138e+07)
(2.22196e+08 1.06119e+07 5.83801e-09 4.51248e+07 4.67041e-08 8.01963e+07)
(2.16757e+08 7.62501e+06 0 4.15405e+07 2.3352e-07 7.74892e+07)
(2.18039e+08 1.06163e+07 8.75702e-09 4.35612e+07 2.3352e-08 7.84801e+07)
(2.12855e+08 7.74802e+06 8.75702e-09 4.01618e+07 4.67041e-08 7.59051e+07)
(2.14037e+08 1.06083e+07 8.75702e-09 4.19913e+07 0 7.68086e+07)
(2.09085e+08 7.84621e+06 0 3.87724e+07 7.00561e-08 7.43573e+07)
(2.8491e+08 -1.83205e+07 5.77261e-07 7.27588e+06 -1.17974e-06 1.30871e+08)
(2.7628e+08 -2.01119e+07 6.78557e-07 -880203 -1.27331e-06 1.22793e+08)
(2.87606e+08 -1.84458e+07 6.62132e-07 1.01126e+07 -1.22758e-06 1.32238e+08)
(2.79912e+08 -2.02355e+07 8.27121e-07 2.90312e+06 -1.35735e-06 1.24969e+08)
(2.90412e+08 -1.84986e+07 8.81969e-07 1.30588e+07 -1.41073e-06 1.33607e+08)
(2.8343e+08 -2.03432e+07 1.36494e-06 6.58722e+06 -1.58319e-06 1.26949e+08)
(2.93315e+08 -1.84834e+07 1.09081e-06 1.61057e+07 -1.7897e-06 1.34954e+08)
(2.86823e+08 -2.04288e+07 5.88651e-07 1.01624e+07 -1.82676e-06 1.2871e+08)
(2.96272e+08 -1.84093e+07 -6.35575e-08 1.9217e+07 -1.82506e-06 1.36233e+08)
(2.90096e+08 -2.04926e+07 -4.7001e-07 1.36388e+07 -1.7658e-06 1.30243e+08)
(2.99241e+08 -1.82835e+07 1.62926e-07 2.23583e+07 -1.67737e-06 1.37392e+08)
(2.93266e+08 -2.05407e+07 2.15681e-07 1.7039e+07 -1.67818e-06 1.31546e+08)
(3.02182e+08 -1.81134e+07 1.16087e-06 2.54951e+07 -1.43555e-06 1.3838e+08)
(2.96339e+08 -2.05782e+07 1.43894e-06 2.03771e+07 -1.92214e-06 1.32621e+08)
(3.05055e+08 -1.78977e+07 2.1689e-06 2.85961e+07 -1.99649e-06 1.3915e+08)
(2.9932e+08 -2.06047e+07 2.03825e-06 2.36652e+07 -2.62885e-06 1.33453e+08)
(3.07829e+08 -1.76354e+07 1.16341e-06 3.16341e+07 -2.50645e-06 1.39678e+08)
(3.02201e+08 -2.06159e+07 3.62451e-09 2.69035e+07 -2.03081e-06 1.34018e+08)
(3.10481e+08 -1.73187e+07 -7.2929e-07 3.4592e+07 -1.26088e-06 1.39928e+08)
(3.04971e+08 -2.06064e+07 -7.56836e-07 3.0089e+07 -5.09053e-07 1.34289e+08)
(3.12987e+08 -1.69433e+07 -2.26402e-08 3.74577e+07 3.02527e-07 1.39862e+08)
(3.07617e+08 -2.05689e+07 -4.2165e-07 3.3218e+07 9.88148e-07 1.34241e+08)
(3.15324e+08 -1.64958e+07 -4.38822e-07 4.02145e+07 1.24272e-06 1.39446e+08)
(3.10114e+08 -2.04948e+07 -1.11261e-06 3.62691e+07 1.2459e-06 1.33879e+08)
(3.17468e+08 -1.59631e+07 -7.19598e-07 4.28464e+07 7.38561e-07 1.38665e+08)
(3.12433e+08 -2.03715e+07 -8.99716e-07 3.92248e+07 7.71824e-07 1.33142e+08)
(3.19406e+08 -1.53337e+07 -8.19928e-07 4.53454e+07 5.20864e-07 1.37524e+08)
(3.14539e+08 -2.0185e+07 -8.67602e-07 4.20635e+07 5.69519e-07 1.31991e+08)
(3.21121e+08 -1.45999e+07 -7.60397e-07 4.77167e+07 4.34236e-07 1.35974e+08)
(3.16396e+08 -1.992e+07 -7.80794e-07 4.47586e+07 4.20848e-07 1.30392e+08)
(3.22592e+08 -1.37437e+07 -7.8848e-07 4.99529e+07 3.69563e-07 1.33992e+08)
(3.17974e+08 -1.95573e+07 -7.78674e-07 4.72657e+07 4.08943e-07 1.28404e+08)
(3.23802e+08 -1.27565e+07 -6.94054e-07 5.204e+07 3.66333e-07 1.31621e+08)
(3.19227e+08 -1.90781e+07 -5.50003e-07 4.95543e+07 3.70806e-07 1.25957e+08)
(3.24769e+08 -1.16454e+07 -3.92647e-07 5.40115e+07 3.38311e-07 1.28892e+08)
(3.20119e+08 -1.84592e+07 -2.41576e-07 5.15904e+07 2.04713e-07 1.23038e+08)
(3.25455e+08 -1.0397e+07 -1.33305e-07 5.58546e+07 1.45242e-07 1.25761e+08)
(3.2065e+08 -1.76705e+07 -1.27067e-07 5.33333e+07 2.66956e-08 1.19771e+08)
(3.25832e+08 -8.99313e+06 -1.75287e-07 5.75151e+07 1.71929e-07 1.22313e+08)
(3.20777e+08 -1.66567e+07 -1.84968e-07 5.46978e+07 1.98772e-07 1.16197e+08)
(3.25923e+08 -7.44007e+06 -1.47309e-07 5.89875e+07 2.66823e-07 1.18684e+08)
(3.19456e+08 -1.50757e+07 -1.51788e-07 5.57713e+07 1.1676e-07 1.12568e+08)
(3.22746e+08 -4.49088e+06 -9.63272e-08 5.8607e+07 2.56873e-07 1.14406e+08)
(3.10841e+08 -1.02901e+07 -8.75702e-08 5.44415e+07 1.1676e-07 1.09585e+08)
(3.14611e+08 -352630 -4.08661e-08 5.8706e+07 7.00561e-08 1.11995e+08)
(3.02368e+08 -6.32314e+06 -5.54611e-08 5.3428e+07 1.86816e-07 1.06739e+08)
(3.06356e+08 2.8224e+06 -3.50281e-08 5.85755e+07 1.63464e-07 1.09479e+08)
(2.94255e+08 -3.09013e+06 -6.12991e-08 5.26127e+07 7.00561e-08 1.0406e+08)
(2.9829e+08 5.28029e+06 -4.67041e-08 5.82292e+07 4.67041e-08 1.06956e+08)
(2.86566e+08 -462484 -4.96231e-08 5.18885e+07 1.40112e-07 1.01536e+08)
(2.90534e+08 7.19001e+06 -3.79471e-08 5.76822e+07 4.67041e-08 1.04465e+08)
(2.7931e+08 1.67545e+06 -3.79471e-08 5.11849e+07 2.10168e-07 9.91484e+07)
(2.83142e+08 8.6791e+06 -3.79471e-08 5.69574e+07 1.63464e-07 1.0203e+08)
(2.72473e+08 3.41989e+06 -4.08661e-08 5.04591e+07 1.86816e-07 9.68797e+07)
(2.76127e+08 9.8446e+06 -2.3352e-08 5.608e+07 9.34082e-08 9.9662e+07)
(2.66031e+08 4.84862e+06 5.83801e-09 4.96871e+07 4.67041e-08 9.47153e+07)
(2.69484e+08 1.07602e+07 0 5.50747e+07 7.00561e-08 9.73676e+07)
(2.59952e+08 6.02368e+06 5.83801e-09 4.88572e+07 1.63464e-07 9.26428e+07)
(2.63196e+08 1.14818e+07 -2.91901e-09 5.39641e+07 1.86816e-07 9.51482e+07)
(2.54206e+08 6.99417e+06 -2.91901e-09 4.79658e+07 1.1676e-07 9.06516e+07)
(2.57242e+08 1.20517e+07 -5.83801e-09 5.27675e+07 4.67041e-08 9.30029e+07)
(2.48763e+08 7.79886e+06 -2.91901e-09 4.70137e+07 4.67041e-08 8.87331e+07)
(2.51596e+08 1.25024e+07 -8.75702e-09 5.15019e+07 7.00561e-08 9.09294e+07)
(2.43595e+08 8.46834e+06 5.83801e-09 4.60045e+07 4.67041e-08 8.68798e+07)
(2.46234e+08 1.28586e+07 -8.75702e-09 5.01814e+07 1.86816e-07 8.89246e+07)
(2.38675e+08 9.02677e+06 8.75702e-09 4.49436e+07 7.00561e-08 8.50855e+07)
(2.41131e+08 1.31391e+07 2.91901e-09 4.88183e+07 0 8.69847e+07)
(2.3398e+08 9.49329e+06 -5.83801e-09 4.38367e+07 1.40112e-07 8.33449e+07)
(2.36264e+08 1.33585e+07 5.83801e-09 4.74225e+07 -4.67041e-08 8.5106e+07)
(2.29488e+08 9.8831e+06 5.83801e-09 4.26898e+07 7.00561e-08 8.16534e+07)
(2.31613e+08 1.3528e+07 2.91901e-09 4.60024e+07 4.67041e-08 8.32847e+07)
(2.25181e+08 1.02083e+07 8.75702e-09 4.15087e+07 4.67041e-08 8.00069e+07)
(2.27158e+08 1.36564e+07 1.4595e-08 4.45647e+07 4.67041e-08 8.1517e+07)
(2.21041e+08 1.04788e+07 1.1676e-08 4.02986e+07 4.67041e-08 7.8402e+07)
(2.22882e+08 1.37508e+07 5.83801e-09 4.31144e+07 1.1676e-07 7.97989e+07)
(2.17054e+08 1.07026e+07 2.91901e-09 3.90646e+07 2.3352e-08 7.68355e+07)
(2.18767e+08 1.38173e+07 5.83801e-09 4.16547e+07 0 7.81267e+07)
(2.13203e+08 1.08865e+07 8.75702e-09 3.78111e+07 4.67041e-08 7.53042e+07)
(2.148e+08 1.38609e+07 5.83801e-09 4.01902e+07 4.67041e-08 7.64969e+07)
(2.09476e+08 1.10362e+07 2.91901e-09 3.65422e+07 -2.3352e-08 7.38054e+07)
(2.83882e+08 -2.3633e+07 9.19647e-07 7.88046e+06 -1.2412e-06 1.3036e+08)
(2.75783e+08 -2.54727e+07 1.03158e-06 419191 -1.25802e-06 1.22816e+08)
(2.8674e+08 -2.36827e+07 9.72871e-07 1.08718e+07 -1.41122e-06 1.31812e+08)
(2.7936e+08 -2.55531e+07 1.08218e-06 4.15112e+06 -1.50036e-06 1.24875e+08)
(2.89555e+08 -2.37097e+07 1.4231e-06 1.38314e+07 -1.65402e-06 1.33121e+08)
(2.82874e+08 -2.56384e+07 1.35574e-06 7.84287e+06 -1.45622e-06 1.26769e+08)
(2.92369e+08 -2.36952e+07 8.17057e-07 1.68e+07 -1.46507e-06 1.34315e+08)
(2.86298e+08 -2.57144e+07 1.15641e-07 1.14681e+07 -1.04501e-06 1.28465e+08)
(2.9519e+08 -2.36311e+07 -4.93753e-07 1.9786e+07 -1.4913e-06 1.35394e+08)
(2.89626e+08 -2.57778e+07 5.15718e-08 1.50241e+07 -1.51413e-06 1.29943e+08)
(2.97998e+08 -2.35137e+07 1.51852e-07 2.27738e+07 -1.87116e-06 1.36325e+08)
(2.92855e+08 -2.583e+07 7.45702e-07 1.85151e+07 -2.2998e-06 1.31181e+08)
(3.00769e+08 -2.3342e+07 1.10348e-06 2.57445e+07 -2.60143e-06 1.37072e+08)
(2.95984e+08 -2.58673e+07 1.48808e-06 2.19444e+07 -3.07304e-06 1.32159e+08)
(3.03472e+08 -2.31119e+07 1.72346e-06 2.86742e+07 -2.94142e-06 1.37591e+08)
(2.99003e+08 -2.58801e+07 5.17477e-08 2.531e+07 -2.47218e-06 1.32854e+08)
(3.06082e+08 -2.28145e+07 -7.84219e-07 3.15437e+07 -1.7636e-06 1.37843e+08)
(3.01902e+08 -2.58601e+07 -1.47318e-06 2.86043e+07 -1.25115e-06 1.33251e+08)
(3.08573e+08 -2.24377e+07 -7.48807e-07 3.43339e+07 -8.07887e-07 1.37791e+08)
(3.04665e+08 -2.57987e+07 -1.69023e-06 3.18212e+07 -1.36653e-07 1.33325e+08)
(3.10918e+08 -2.19704e+07 -2.07663e-06 3.70196e+07 8.66551e-07 1.37421e+08)
(3.07271e+08 -2.56884e+07 -2.63568e-06 3.49486e+07 1.13701e-06 1.33034e+08)
(3.13098e+08 -2.14049e+07 -1.62404e-06 3.95956e+07 1.22255e-06 1.36698e+08)
(3.09691e+08 -2.55153e+07 -1.29288e-06 3.7969e+07 7.47482e-07 1.32342e+08)
(3.15089e+08 -2.07334e+07 -9.52444e-07 4.20533e+07 7.34911e-07 1.3558e+08)
(3.11887e+08 -2.52606e+07 -9.651e-07 4.08506e+07 6.32761e-07 1.31211e+08)
(3.16867e+08 -1.99371e+07 -9.40537e-07 4.43802e+07 6.57899e-07 1.34042e+08)
(3.13828e+08 -2.49027e+07 -9.35559e-07 4.3558e+07 7.11657e-07 1.29661e+08)
(3.1841e+08 -1.89959e+07 -8.68815e-07 4.65579e+07 6.30544e-07 1.32096e+08)
(3.15476e+08 -2.4422e+07 -7.46941e-07 4.60579e+07 7.2633e-07 1.27661e+08)
(3.19717e+08 -1.79086e+07 -6.59249e-07 4.85959e+07 5.23127e-07 1.29778e+08)
(3.16795e+08 -2.3793e+07 -5.90741e-07 4.83192e+07 5.56933e-07 1.25187e+08)
(3.20755e+08 -1.66579e+07 -5.86083e-07 5.04814e+07 3.53762e-07 1.27047e+08)
(3.1775e+08 -2.29812e+07 -4.05319e-07 5.02968e+07 3.38105e-07 1.22249e+08)
(3.2148e+08 -1.52022e+07 -2.22346e-07 5.21674e+07 2.44182e-07 1.23907e+08)
(3.18323e+08 -2.19462e+07 -1.89189e-07 5.19172e+07 6.6996e-08 1.18976e+08)
(3.21881e+08 -1.3536e+07 -2.10992e-07 5.36098e+07 1.10297e-07 1.20497e+08)
(3.18414e+08 -2.06137e+07 -3.12859e-07 5.30416e+07 1.53685e-07 1.1532e+08)
(3.21922e+08 -1.16188e+07 -2.41993e-07 5.47694e+07 1.31996e-07 1.16819e+08)
(3.17739e+08 -1.87841e+07 -2.21725e-07 5.31836e+07 1.63376e-07 1.11312e+08)
(3.21116e+08 -9.19166e+06 -1.7514e-07 5.5148e+07 7.00561e-08 1.12879e+08)
(3.11014e+08 -1.38393e+07 -1.40112e-07 5.1573e+07 7.00561e-08 1.08776e+08)
(3.14749e+08 -4.47005e+06 -9.34082e-08 5.47843e+07 7.00561e-08 1.1086e+08)
(3.03959e+08 -9.46284e+06 -1.08003e-07 5.02646e+07 1.1676e-07 1.06267e+08)
(3.08029e+08 -499879 -8.75702e-08 5.45125e+07 9.34082e-08 1.08762e+08)
(2.96874e+08 -5.6884e+06 -9.04892e-08 4.92212e+07 7.00561e-08 1.03829e+08)
(3.01124e+08 2.76924e+06 -7.88132e-08 5.42006e+07 2.10168e-07 1.06597e+08)
(2.89907e+08 -2.47368e+06 -7.29751e-08 4.83596e+07 1.63464e-07 1.0148e+08)
(2.94213e+08 5.44232e+06 -4.08661e-08 5.37956e+07 1.1676e-07 1.04402e+08)
(2.83147e+08 245845 -6.42181e-08 4.7606e+07 2.10168e-07 9.9226e+07)
(2.87415e+08 7.62224e+06 -4.37851e-08 5.32764e+07 2.3352e-07 1.02207e+08)
(2.76641e+08 2.53922e+06 -3.50281e-08 4.69033e+07 2.3352e-08 9.70632e+07)
(2.80804e+08 9.39906e+06 -2.3352e-08 5.26391e+07 4.67041e-08 1.00033e+08)
(2.70408e+08 4.47143e+06 -2.0433e-08 4.6211e+07 9.34082e-08 9.49856e+07)
(2.74424e+08 1.08483e+07 -5.83801e-09 5.18889e+07 2.56873e-07 9.78938e+07)
(2.64452e+08 6.1001e+06 5.83801e-09 4.55023e+07 -4.67041e-08 9.29862e+07)
(2.68294e+08 1.20319e+07 -2.91901e-09 5.10354e+07 1.40112e-07 9.57988e+07)
(2.58767e+08 7.47464e+06 -8.75702e-09 4.47605e+07 4.67041e-08 9.10583e+07)
(2.6242e+08 1.3e+07 -2.91901e-09 5.00904e+07 0 9.37532e+07)
(2.53342e+08 8.63661e+06 -8.75702e-09 4.39764e+07 4.67041e-08 8.91956e+07)
(2.568e+08 1.37928e+07 -2.91901e-09 4.90659e+07 1.40112e-07 9.17598e+07)
(2.48162e+08 9.6206e+06 2.91901e-09 4.31459e+07 9.34082e-08 8.73924e+07)
(2.51425e+08 1.44425e+07 2.91901e-09 4.79735e+07 4.67041e-08 8.98195e+07)
(2.4321e+08 1.04552e+07 5.83801e-09 4.22681e+07 -2.3352e-08 8.56436e+07)
(2.46282e+08 1.4975e+07 1.1676e-08 4.6824e+07 1.40112e-07 8.79317e+07)
(2.38471e+08 1.11639e+07 1.1676e-08 4.13448e+07 2.3352e-08 8.39448e+07)
(2.41357e+08 1.54107e+07 5.83801e-09 4.5627e+07 4.67041e-08 8.60953e+07)
(2.33928e+08 1.1766e+07 5.83801e-09 4.03788e+07 1.1676e-07 8.22919e+07)
(2.36637e+08 1.57662e+07 1.7514e-08 4.4391e+07 0 8.43085e+07)
(2.29564e+08 1.22774e+07 5.83801e-09 3.93738e+07 0 8.06815e+07)
(2.32107e+08 1.60549e+07 8.75702e-09 4.31235e+07 1.1676e-07 8.25691e+07)
(2.25367e+08 1.27114e+07 8.75702e-09 3.83339e+07 2.3352e-08 7.91103e+07)
(2.27752e+08 1.62874e+07 -8.75702e-09 4.18307e+07 2.3352e-07 8.08747e+07)
(2.21322e+08 1.30786e+07 2.91901e-09 3.72633e+07 1.1676e-07 7.75756e+07)