/*--------------------------------*- C++ -*----------------------------------*\
| =========                 |                                                 |
| \\      /  F ield         | OpenFOAM: The Open Source CFD Toolbox           |
|  \\    /   O peration     | Version:  v2012                                 |
|   \\  /    A nd           | Website:  www.openfoam.com                      |
|    \\/     M anipulation  |                                                 |
\*---------------------------------------------------------------------------*/
FoamFile
{
    version     2.0;
    format      ascii;
    class       volSymmTensorField;
    location    "5";
    object      epsilon;
}
// * * * * * * * * * * * * * * * * * * * * * * * * * * * * * * * * * * * * * //

dimensions      [0 0 0 0 0 0 0];


internalField   nonuniform List<symmTensor> 
16000
(
(0.0037707 -5.437e-05 8.64786e-20 -0.00167388 9.28832e-19 4.12787e-33)
(0.00361615 -5.01465e-05 1.30387e-18 -0.00152019 8.62133e-19 0)
(0.00346572 -4.4223e-05 -4.58638e-20 -0.00139196 -7.72546e-19 0)
(0.00333113 -3.80822e-05 2.17523e-18 -0.00131357 -1.42025e-18 0)
(0.00320789 -3.31976e-05 -1.07378e-18 -0.00123105 -1.88804e-20 0)
(0.0030939 -2.92192e-05 2.94264e-27 -0.00116459 3.44506e-25 0)
(0.00298834 -2.5642e-05 -1.04076e-18 -0.00109808 -1.23734e-18 0)
(0.00288998 -2.24903e-05 5.9169e-20 -0.00104201 1.15648e-18 0)
(0.00279829 -1.96105e-05 -8.66705e-19 -0.000987105 5.29447e-19 0)
(0.00271247 -1.69942e-05 -1.74007e-18 -0.000939795 -5.57797e-19 0)
(0.00263213 -1.45812e-05 -7.9849e-19 -0.000894027 4.78075e-19 0)
(0.0025567 -1.23671e-05 7.90256e-19 -0.000854077 1.78415e-20 0)
(0.00248587 -1.03129e-05 -1.11337e-26 -0.000815773 -9.54605e-26 0)
(0.00241919 -8.42043e-06 3.9614e-20 -0.000782029 8.6777e-19 0)
(0.00235642 -6.65782e-06 2.09704e-18 -0.000749925 -3.63994e-19 0)
(0.00229719 -5.03094e-06 -3.48942e-20 -0.000721439 -8.00487e-19 0)
(0.00224129 -3.51114e-06 1.63858e-20 -0.000694532 3.85304e-19 0)
(0.00218843 -2.10765e-06 -3.43343e-27 -0.000670516 6.67484e-26 0)
(0.00213844 -7.9296e-07 -8.6492e-27 -0.000647985 -6.28442e-26 0)
(0.00209106 4.20155e-07 -1.17501e-18 -0.00062778 3.15147e-19 0)
(0.00204615 1.55927e-06 -1.28234e-20 -0.000608945 -3.37783e-19 0)
(0.0020035 2.60868e-06 -5.82365e-19 -0.000591995 -6.72974e-19 0)
(0.00196296 3.59473e-06 -5.41566e-19 -0.000576284 -1.6076e-20 0)
(0.00192439 4.50286e-06 -5.15047e-19 -0.000562117 2.95861e-19 0)
(0.00188763 5.35204e-06 1.01493e-20 -0.000549045 3.04525e-19 0)
(0.0018526 6.13881e-06 4.8698e-19 -0.000537258 -2.82359e-19 0)
(0.0018191 6.86247e-06 -9.66024e-19 -0.000526411 -3.09474e-20 0)
(0.00178713 7.54633e-06 4.8733e-19 -0.000516659 5.88416e-19 0)
(0.00175643 8.1559e-06 9.07346e-19 -0.000507687 -2.51191e-19 0)
(0.0017271 8.75254e-06 -8.99809e-19 -0.000499672 -3.07206e-19 0)
(0.00169884 9.26918e-06 0 -0.000492289 0 0)
(0.00167179 9.78679e-06 -7.08201e-21 -0.000485739 -2.69376e-19 0)
(0.00164567 1.02469e-05 -4.13646e-19 -0.000479726 -1.46472e-20 0)
(0.00162052 1.06825e-05 -3.97236e-19 -0.000474382 2.48551e-19 0)
(0.00159625 1.10857e-05 -3.94213e-19 -0.000469514 -1.43986e-20 0)
(0.00157271 1.14533e-05 -7.7609e-19 -0.000465164 -2.86502e-19 0)
(0.00155001 1.17901e-05 -7.52439e-19 -0.000461243 -2.83221e-20 0)
(0.0015278 1.21066e-05 1.69495e-20 -0.000457692 7.61408e-19 0)
(0.00150645 1.23694e-05 3.53947e-19 -0.000454559 -2.38129e-19 0)
(0.00148531 1.265e-05 -3.67602e-19 -0.000451618 -7.65113e-19 0)
(0.0037483 -0.000160545 -1.19013e-18 -0.00165257 4.56299e-19 9.28999e-34)
(0.00359457 -0.000147955 3.89437e-18 -0.00150344 9.55078e-19 0)
(0.00345267 -0.000131367 9.174e-19 -0.0013851 -1.48784e-18 0)
(0.0033218 -0.000114281 -1.24136e-19 -0.00131058 -7.43195e-19 0)
(0.00320051 -9.99127e-05 -8.50068e-19 -0.00122838 1.32032e-18 0)
(0.00308786 -8.80792e-05 3.50958e-26 -0.00116284 1.71947e-25 0)
(0.00298314 -7.72726e-05 -1.89464e-19 -0.00109661 -1.20658e-18 0)
(0.00288546 -6.77704e-05 -7.57422e-19 -0.00104089 1.10314e-18 0)
(0.00279429 -5.90601e-05 2.0387e-18 -0.000986237 1.73939e-18 0)
(0.00270893 -5.11691e-05 -1.79109e-18 -0.000939167 -6.04538e-19 0)
(0.002629 -4.38961e-05 -1.43583e-19 -0.00089362 -9.82373e-19 0)
(0.00255393 -3.7231e-05 1.51355e-18 -0.000853872 -3.80558e-19 0)
(0.00248344 -3.10594e-05 -6.97413e-19 -0.000815761 4.02604e-19 0)
(0.00241706 -2.53719e-05 6.73053e-19 -0.00078219 -3.84149e-19 0)
(0.00235456 -2.00907e-05 2.76613e-18 -0.000750251 -2.37116e-19 0)
(0.00229559 -1.5206e-05 5.23198e-20 -0.000721911 3.9844e-19 0)
(0.00223992 -1.06644e-05 4.915e-20 -0.000695143 3.83558e-19 0)
(0.00218729 -6.45273e-06 1.27093e-18 -0.000671249 9.33997e-20 0)
(0.00213749 -2.53464e-06 7.01561e-19 -0.000648834 7.62003e-19 0)
(0.0020903 1.10398e-06 1.23175e-18 -0.00062873 4.45703e-19 0)
(0.00204556 4.49237e-06 -7.70049e-20 -0.00060999 -6.72437e-19 0)
(0.00200308 7.63602e-06 -3.59264e-20 -0.000593125 -3.23623e-19 0)
(0.00196269 1.05741e-05 -5.41923e-19 -0.000577491 -4.19067e-20 0)
(0.00192428 1.32842e-05 5.26796e-19 -0.000563398 4.76516e-20 0)
(0.00188764 1.58417e-05 -3.04842e-20 -0.000550387 -3.03086e-19 0)
(0.00185276 1.81688e-05 5.25834e-19 -0.000538667 3.37695e-19 0)
(0.00181936 2.04056e-05 -9.66877e-19 -0.000527867 -8.17096e-20 0)
(0.00178752 2.24016e-05 -5.19868e-20 -0.000518174 -5.73013e-19 0)
(0.00175692 2.43585e-05 5.07023e-19 -0.000509236 5.98131e-19 0)
(0.00172769 2.60943e-05 2.3738e-20 -0.000501257 2.80813e-19 0)
(0.00169953 2.77732e-05 -9.15178e-19 -0.000493903 -6.27732e-19 0)
(0.00167249 2.9339e-05 0 -0.00048734 0 0)
(0.00164649 3.06989e-05 -3.93915e-19 -0.00048136 2.2557e-19 0)
(0.00162136 3.20609e-05 4.23879e-19 -0.000476008 3.0522e-19 0)
(0.00159719 3.31785e-05 -3.76068e-19 -0.000471155 2.20465e-19 0)
(0.00157369 3.43412e-05 -3.85372e-19 -0.000466812 -3.60808e-20 0)
(0.00155107 3.52556e-05 -4.114e-19 -0.000462885 -5.44717e-19 0)
(0.00152892 3.62521e-05 -3.68323e-19 -0.000459352 -3.98985e-20 0)
(0.00150763 3.69669e-05 1.08024e-18 -0.000456197 1.16649e-19 0)
(0.00148656 3.78436e-05 -6.50082e-19 -0.000453275 3.41991e-19 0)
(0.00371699 -0.000264238 -1.7447e-18 -0.00162353 -8.82593e-19 4.28106e-33)
(0.00356342 -0.000241382 1.00728e-18 -0.00147921 -7.67868e-19 0)
(0.00342997 -0.000214559 4.30779e-19 -0.0013721 1.50532e-18 0)
(0.00330379 -0.00018919 -1.12234e-18 -0.00130287 -5.69239e-20 0)
(0.00318533 -0.000166701 -4.73045e-26 -0.00122144 -1.88486e-25 0)
(0.00307515 -0.000147084 8.53806e-19 -0.00115795 -5.60936e-19 0)
(0.00297211 -0.000129297 8.18064e-19 -0.00109256 -5.30672e-19 0)
(0.0028759 -0.000113384 -1.86911e-18 -0.00103786 -1.49197e-19 0)
(0.00278591 -9.88543e-05 2.06158e-18 -0.000983895 1.21885e-18 0)
(0.00270157 -8.56514e-05 1.84582e-18 -0.000937484 6.71118e-19 0)
(0.00262253 -7.35023e-05 -2.01001e-18 -0.000892485 -1.63035e-18 0)
(0.00254824 -6.23716e-05 -6.80799e-19 -0.000853231 3.84248e-19 0)
(0.00247845 -5.20695e-05 -6.55365e-19 -0.000815557 3.73358e-19 0)
(0.0024127 -4.25849e-05 -2.97429e-19 -0.000782383 -1.28873e-18 0)
(0.00235079 -3.37733e-05 -7.08064e-19 -0.000750801 -8.18141e-20 0)
(0.00229234 -2.56359e-05 1.74069e-19 -0.000722786 7.8964e-19 0)
(0.00223717 -1.80571e-05 -7.40513e-19 -0.000696311 -4.56776e-19 0)
(0.00218497 -1.10461e-05 5.58276e-19 -0.000672686 -2.98134e-19 0)
(0.0021356 -4.5026e-06 -6.16641e-19 -0.000650515 -7.94152e-20 0)
(0.00208878 1.55156e-06 1.92208e-18 -0.00063063 8.99064e-19 0)
(0.00204441 7.21736e-06 6.40071e-20 -0.000612096 3.33118e-19 0)
(0.00200224 1.24477e-05 4.99251e-19 -0.000595401 -2.52718e-19 0)
(0.00196218 1.73639e-05 1.03022e-18 -0.000579946 -1.67697e-19 0)
(0.00192401 2.18774e-05 5.26712e-19 -0.00056597 6.7255e-20 0)
(0.00188767 2.61459e-05 5.0643e-20 -0.000553116 3.0025e-19 0)
(0.00185298 3.00343e-05 -4.50625e-19 -0.000541461 2.21681e-19 0)
(0.00181983 3.37279e-05 4.53178e-20 -0.000530788 2.87809e-19 0)
(0.00178816 3.70819e-05 -5.14602e-19 -0.000521127 -3.50747e-19 0)
(0.0017577 4.02395e-05 -1.41947e-18 -0.000512247 -4.86106e-19 0)
(0.00172872 4.31653e-05 1.42061e-18 -0.000504335 7.50621e-19 0)
(0.00170053 4.58141e-05 6.69533e-22 -0.000496918 4.86768e-21 0)
(0.00167393 4.84154e-05 7.81422e-19 -0.00049055 -3.93352e-19 0)
(0.00164798 5.07332e-05 7.97398e-19 -0.000484567 -1.25695e-19 0)
(0.00162313 5.29197e-05 3.16654e-20 -0.000479293 2.54551e-19 0)
(0.00159907 5.49e-05 6.20241e-20 -0.000474468 5.12851e-19 0)
(0.00157574 5.67513e-05 3.56838e-19 -0.000470126 -1.89621e-19 0)
(0.00155324 5.83779e-05 3.77888e-19 -0.000466223 6.39154e-20 0)
(0.00153122 5.99775e-05 3.41819e-19 -0.000462666 -1.82146e-19 0)
(0.00151004 6.12379e-05 3.60933e-19 -0.000459513 6.0889e-20 0)
(0.00148907 6.26606e-05 1.70201e-19 -0.000456567 1.16026e-18 0)
(0.00368102 -0.000366213 -3.0517e-19 -0.00159243 -4.29142e-19 9.97037e-34)
(0.00353124 -0.000332482 -2.4834e-18 -0.00145752 -1.79632e-19 0)
(0.00340057 -0.00029499 3.58656e-21 -0.00135593 9.02015e-21 0)
(0.00327802 -0.000261746 -1.40316e-18 -0.00128847 -8.15352e-19 0)
(0.00316291 -0.000232109 -1.0728e-18 -0.0012104 -1.02795e-19 0)
(0.00305574 -0.000205058 -2.39056e-19 -0.00114895 -6.35021e-19 0)
(0.00295521 -0.000180795 2.20017e-19 -0.0010856 5.92127e-19 0)
(0.00286116 -0.000158701 -7.28604e-19 -0.00103239 4.62024e-19 0)
(0.00277298 -0.000138575 -1.08594e-18 -0.000979761 -6.33912e-19 0)
(0.00269022 -0.000120182 2.25264e-18 -0.000934419 1.72567e-18 0)
(0.00261255 -0.000103259 9.98533e-19 -0.000890371 6.06303e-19 0)
(0.00253948 -8.77234e-05 -1.89705e-18 -0.000851919 -1.12742e-18 0)
(0.00247076 -7.33469e-05 7.63319e-19 -0.00081497 1.07553e-19 0)
(0.00240599 -6.0096e-05 5.98714e-19 -0.00078242 -3.10284e-19 0)
(0.00234496 -4.77964e-05 -2.25273e-18 -0.000751412 -7.17042e-19 0)
(0.00228731 -3.6421e-05 -5.62324e-19 -0.000723895 2.82793e-19 0)
(0.00223287 -2.58499e-05 -1.31972e-18 -0.000697883 -2.08183e-19 0)
(0.00218135 -1.60424e-05 -1.27575e-18 -0.000674656 -2.07263e-19 0)
(0.00213259 -6.93044e-06 -6.15607e-19 -0.000652862 -9.77809e-20 0)
(0.00208636 1.54824e-06 9.54299e-22 -0.000633295 3.40301e-21 0)
(0.00204251 9.41624e-06 5.79504e-19 -0.000615066 1.03561e-19 0)
(0.00200084 1.67527e-05 3.09251e-19 -0.000598625 -8.54771e-19 0)
(0.00196122 2.35562e-05 1.08912e-18 -0.000583415 1.98202e-19 0)
(0.00192353 2.98909e-05 -9.08511e-19 -0.000569651 4.06138e-19 0)
(0.00188756 3.57906e-05 -4.43827e-19 -0.00055699 1.95292e-19 0)
(0.00185332 4.12192e-05 -9.33145e-19 -0.000545529 9.25097e-20 0)
(0.00182048 4.63732e-05 0 -0.000535006 0 0)
(0.00178926 5.09621e-05 5.34029e-19 -0.00052554 3.76661e-19 0)
(0.00175909 5.55257e-05 3.4882e-19 -0.000516781 -4.44297e-19 0)
(0.00173045 5.94108e-05 -5.58765e-19 -0.000509023 -6.37437e-19 0)
(0.0017026 6.34411e-05 1.26317e-18 -0.000501731 1.82221e-20 0)
(0.00167584 6.72326e-05 -9.85003e-20 -0.000495218 -5.27458e-19 0)
(0.00165037 7.02377e-05 -2.77647e-19 -0.000489379 6.75275e-19 0)
(0.00162553 7.3446e-05 1.34921e-19 -0.000484096 7.69992e-19 0)
(0.0016018 7.59997e-05 7.95909e-19 -0.000479286 1.86056e-19 0)
(0.00157861 7.86773e-05 -4.14632e-20 -0.000475022 -2.50087e-19 0)
(0.00155633 8.08358e-05 -8.05512e-20 -0.000471057 -4.95735e-19 0)
(0.00153451 8.31135e-05 -6.62749e-22 -0.000467598 -4.18597e-21 0)
(0.00151349 8.48322e-05 3.84805e-20 -0.000464351 2.46167e-19 0)
(0.00149272 8.68365e-05 3.54923e-19 -0.000461488 8.75221e-20 0)
(0.00363368 -0.00046455 1.29793e-18 -0.00155216 -1.23108e-21 1.67035e-36)
(0.00349086 -0.000420771 -1.64492e-18 -0.00143084 -8.91769e-19 0)
(0.0033636 -0.00037323 2.73042e-18 -0.00133619 9.65281e-19 0)
(0.0032453 -0.000331732 3.56171e-19 -0.00127031 7.06589e-19 0)
(0.00313422 -0.000295227 -1.39142e-18 -0.00119636 -7.70348e-19 0)
(0.00303049 -0.000261506 4.25677e-19 -0.00113708 -1.08997e-18 0)
(0.00293301 -0.000231214 -1.95726e-18 -0.00107623 -2.67114e-19 0)
(0.00284158 -0.000203395 3.07188e-18 -0.00102481 9.55504e-19 0)
(0.00275569 -0.000177959 -1.14225e-18 -0.00097389 -6.57948e-19 0)
(0.00267495 -0.000154608 6.32273e-19 -0.000929939 -3.61329e-19 0)
(0.00259906 -0.000133069 4.33966e-18 -0.000887156 1.13474e-18 0)
(0.00252759 -0.000113254 9.95763e-19 -0.000849796 5.88829e-19 0)
(0.00246032 -9.489e-05 -1.14352e-18 -0.000813829 -1.0051e-18 0)
(0.00239686 -7.79539e-05 1.72769e-19 -0.000782157 4.05254e-19 0)
(0.00233701 -6.22149e-05 -3.77553e-19 -0.000751929 6.62492e-19 0)
(0.00228045 -4.76664e-05 -1.21459e-18 -0.00072513 1.15199e-19 0)
(0.00222701 -3.41246e-05 1.32671e-18 -0.000699744 2.73415e-19 0)
(0.00217641 -2.15843e-05 -2.73446e-19 -0.000677113 -7.06207e-19 0)
(0.00212851 -9.89671e-06 9.80023e-19 -0.000655818 -4.2252e-19 0)
(0.00208305 9.35041e-07 -1.80218e-18 -0.00063675 -4.0125e-19 0)
(0.00203994 1.10506e-05 1.74431e-18 -0.000618922 3.92209e-19 0)
(0.00199893 2.04108e-05 3.47512e-19 -0.000602893 -4.98464e-19 0)
(0.00195998 2.91942e-05 -1.98752e-18 -0.000588017 8.94236e-20 0)
(0.0019228 3.72671e-05 2.88677e-19 -0.000574569 8.94564e-19 0)
(0.00188748 4.49274e-05 -4.25636e-19 -0.000562221 1.64881e-19 0)
(0.00185359 5.18524e-05 1.00628e-18 -0.000550941 2.57106e-19 0)
(0.0018214 5.85611e-05 8.16668e-19 -0.000540759 -3.03868e-19 0)
(0.00179035 6.44545e-05 -1.54174e-19 -0.000531289 -5.48356e-19 0)
(0.00176067 7.02824e-05 1.46257e-18 -0.000522844 6.3388e-19 0)
(0.00173227 7.53226e-05 -4.5091e-19 -0.000514987 -1.18503e-19 0)
(0.00170385 8.00018e-05 -6.69773e-20 -0.000507374 -2.61802e-19 0)
(0.00167869 8.47212e-05 -3.03514e-19 -0.00050155 3.95612e-19 0)
(0.00165336 8.90561e-05 -1.73755e-18 -0.000495849 -7.28302e-19 0)
(0.00162898 9.27893e-05 -1.158e-19 -0.000490528 -5.04417e-19 0)
(0.00160553 9.6448e-05 1.0923e-19 -0.000485869 4.90431e-19 0)
(0.00158255 9.96486e-05 5.30712e-20 -0.000481476 2.44913e-19 0)
(0.00156054 0.000102609 3.82399e-19 -0.000477589 1.16745e-19 0)
(0.0015389 0.000105427 -4.22711e-19 -0.000474045 -3.52472e-19 0)
(0.00151811 0.000107708 3.16643e-19 -0.000470802 -1.25945e-19 0)
(0.00149753 0.000110245 4.72295e-20 -0.000467901 2.37254e-19 0)
(0.0035659 -0.000555994 1.74738e-18 -0.00149636 3.77729e-19 1.24409e-33)
(0.00343762 -0.000504572 1.97943e-18 -0.0013973 -4.65957e-19 0)
(0.00331879 -0.000448753 -1.63369e-18 -0.00131405 -8.65304e-19 0)
(0.00320621 -0.000399691 1.95007e-18 -0.00124943 1.47937e-18 0)
(0.00309991 -0.000356858 6.80865e-19 -0.00118012 -4.75783e-19 0)
(0.00299999 -0.000316866 -8.50202e-21 -0.00112285 -1.40062e-20 0)
(0.00290589 -0.000280847 -2.28953e-18 -0.00106471 -8.73471e-19 0)
(0.0028174 -0.000247548 -1.88583e-18 -0.00101522 -3.42603e-19 0)
(0.00273416 -0.000217001 1.19879e-18 -0.000966273 6.78304e-19 0)
(0.0026558 -0.000188858 -8.36279e-19 -0.000923963 -1.46104e-18 0)
(0.00258206 -0.000162841 -1.40003e-18 -0.000882735 1.27691e-19 0)
(0.00251254 -0.000138862 1.76971e-18 -0.000846726 1.92467e-18 0)
(0.00244705 -0.000116614 2.3364e-19 -0.000812015 4.30559e-19 0)
(0.0023852 -9.60726e-05 -9.49276e-19 -0.000781444 -5.59892e-19 0)
(0.00232684 -7.69792e-05 1.62753e-18 -0.00075224 7.15664e-19 0)
(0.00227164 -5.93092e-05 -3.76447e-19 -0.000726332 -7.41532e-19 0)
(0.00221945 -4.28766e-05 9.69182e-19 -0.000701784 -4.02812e-19 0)
(0.00217 -2.7624e-05 1.28476e-18 -0.000679864 3.20878e-19 0)
(0.00212315 -1.3455e-05 -7.75172e-19 -0.000659256 6.77803e-19 0)
(0.00207866 -2.46685e-07 -7.44997e-19 -0.000640741 -4.71584e-19 0)
(0.00203644 1.19771e-05 -5.59804e-19 -0.000623475 -1.2637e-18 0)
(0.00199626 2.34544e-05 5.2467e-19 -0.000607858 1.22202e-18 0)
(0.00195806 3.39849e-05 -9.7252e-19 -0.000593437 -5.81872e-21 0)
(0.0019216 4.39929e-05 4.16993e-19 -0.000580274 -1.36337e-19 0)
(0.00188689 5.30313e-05 -1.10146e-19 -0.000568289 -2.83116e-19 0)
(0.00185369 6.17563e-05 2.94377e-19 -0.000557194 -4.07382e-19 0)
(0.00182197 6.94961e-05 1.67132e-18 -0.000547303 9.95922e-19 0)
(0.00179173 7.6927e-05 -4.78348e-19 -0.000537981 -1.49375e-19 0)
(0.00176249 8.37019e-05 -1.02219e-18 -0.000529852 -5.62352e-19 0)
(0.00173527 8.92186e-05 8.4607e-20 -0.000522239 2.5469e-19 0)
(0.00170766 9.59799e-05 -9.66853e-19 -0.000515371 -5.4714e-19 0)
(0.00168108 0.000102423 -2.84044e-19 -0.000509224 3.50589e-19 0)
(0.0016569 0.000106565 5.68775e-19 -0.000503394 6.4085e-19 0)
(0.00163273 0.000111275 -8.9351e-19 -0.000498535 -5.28368e-19 0)
(0.00160963 0.000115535 -8.05409e-19 -0.00049353 -2.82772e-19 0)
(0.00158715 0.00011944 2.65619e-19 -0.000489549 -3.34977e-19 0)
(0.00156533 0.000123098 -6.28103e-20 -0.000485395 -2.38285e-19 0)
(0.00154417 0.0001265 -5.12347e-22 -0.000482108 -1.99483e-21 0)
(0.00152356 0.000129377 -3.68612e-19 -0.000478672 -1.39132e-19 0)
(0.00150337 0.000132431 1.84101e-19 -0.00047591 5.56933e-19 0)
(0.00349108 -0.000636133 7.27136e-19 -0.00143535 -3.56155e-19 5.75216e-34)
(0.00337811 -0.000580554 3.00996e-18 -0.00136012 1.04283e-18 0)
(0.00326744 -0.000520873 -1.15939e-19 -0.00128826 1.21796e-18 0)
(0.0031606 -0.0004663 -2.72092e-18 -0.00122457 -9.94536e-19 0)
(0.00305951 -0.000417296 1.0645e-18 -0.0011603 1.7312e-19 0)
(0.00296372 -0.000371505 4.34353e-19 -0.00110528 5.93326e-19 0)
(0.00287345 -0.000329783 2.75211e-18 -0.00105026 1.46835e-18 0)
(0.00278832 -0.000291184 -4.47391e-18 -0.00100306 -1.76466e-18 0)
(0.00270817 -0.000255628 -1.50723e-19 -0.000956459 -1.30221e-18 0)
(0.00263259 -0.000222837 6.54763e-19 -0.000916142 9.45848e-19 0)
(0.00256139 -0.000192472 1.01144e-20 -0.000876795 1.48376e-20 0)
(0.0024942 -0.000164466 -1.0851e-18 -0.00084245 -6.19788e-19 0)
(0.00243082 -0.000138457 1.53313e-18 -0.000809262 3.75331e-19 0)
(0.00237093 -0.000114436 4.87111e-19 -0.000780066 -2.04117e-19 0)
(0.00231435 -9.20932e-05 1.66289e-18 -0.00075209 7.50992e-19 0)
(0.0022608 -7.14212e-05 1.60217e-18 -0.00072732 7.39857e-19 0)
(0.0022101 -5.21791e-05 -4.15459e-19 -0.000703745 -6.92474e-19 0)
(0.00216206 -3.43411e-05 1.03687e-18 -0.000682782 8.58093e-19 0)
(0.00211645 -1.77362e-05 -1.06101e-18 -0.000662914 -4.25812e-20 0)
(0.0020732 -2.31171e-06 1.46581e-18 -0.000645234 -7.59283e-20 0)
(0.00203199 1.20379e-05 -1.60326e-19 -0.000628474 -2.9887e-19 0)
(0.00199292 2.5394e-05 -3.10291e-26 -0.000613642 -4.9325e-26 0)
(0.00195552 3.78085e-05 1.24992e-18 -0.000599467 6.50636e-19 0)
(0.0019201 4.93777e-05 1.3701e-19 -0.000587127 2.81318e-19 0)
(0.00188603 6.01405e-05 -3.93919e-19 -0.000575089 9.31658e-20 0)
(0.00185377 7.01384e-05 -1.38225e-18 -0.000564946 -1.16102e-18 0)
(0.00182273 7.95474e-05 -1.08198e-21 -0.000554725 -2.46854e-21 0)
(0.00179309 8.80874e-05 8.10908e-19 -0.000546464 9.51758e-19 0)
(0.00176529 9.65848e-05 1.89477e-21 -0.000538098 4.67172e-21 0)
(0.00173728 0.000103543 9.00303e-22 -0.000531108 2.27766e-21 0)
(0.00170736 0.000113269 -5.40518e-19 -0.000522821 -2.47312e-19 0)
(0.00168558 0.000116944 -5.24264e-19 -0.000518266 -4.0959e-19 0)
(0.00166179 0.000123403 4.24813e-19 -0.000512308 1.66033e-19 0)
(0.00163746 0.000128538 -3.34752e-19 -0.000507537 6.68501e-20 0)
(0.00161459 0.000133655 3.28775e-19 -0.000502289 -6.53588e-20 0)
(0.00159248 0.000138371 -7.58694e-20 -0.000498653 -2.32925e-19 0)
(0.00157089 0.000142492 -3.15436e-19 -0.000494281 6.52835e-20 0)
(0.00155019 0.000146659 5.98068e-22 -0.0004913 1.92956e-21 0)
(0.00152982 0.000149885 -1.1842e-18 -0.000487673 -7.10697e-19 0)
(0.00151006 0.000153592 -1.49149e-19 -0.000485131 -3.22758e-19 0)
(0.00342778 -0.00071522 -1.26445e-18 -0.00139067 -2.47354e-21 7.58801e-36)
(0.0033178 -0.000652709 -1.8214e-18 -0.00132305 3.26609e-19 0)
(0.00321097 -0.000589229 2.93264e-18 -0.00125462 2.16118e-18 0)
(0.00310903 -0.00053013 6.61143e-21 -0.001195 7.46279e-21 0)
(0.00301274 -0.000475197 -2.6183e-18 -0.00113496 -1.9668e-18 0)
(0.00292153 -0.000424155 1.54964e-18 -0.00108357 -1.54145e-19 0)
(0.00283549 -0.000377047 2.32621e-18 -0.00103207 1.77933e-18 0)
(0.00275424 -0.000333506 4.1735e-18 -0.000987901 1.34981e-18 0)
(0.00267763 -0.000293223 -2.98828e-18 -0.000944133 -1.85076e-18 0)
(0.00260529 -0.000256055 -7.48345e-19 -0.000906291 -9.10491e-19 0)
(0.00253706 -0.000221572 2.35081e-18 -0.000869227 1.28357e-18 0)
(0.00247257 -0.00018975 1.45933e-18 -0.000836896 1.04709e-18 0)
(0.00241168 -0.000160164 -3.07139e-19 -0.000805562 -3.93755e-19 0)
(0.00235405 -0.000132834 -1.0328e-18 -0.000778002 -5.96234e-19 0)
(0.00229956 -0.000107383 -1.43714e-18 -0.00075154 -4.36472e-19 0)
(0.00224792 -8.38484e-05 6.9155e-19 -0.000728096 2.14031e-19 0)
(0.00219899 -6.18998e-05 -2.41613e-19 -0.000705769 -3.39082e-19 0)
(0.00215256 -4.15948e-05 -1.99831e-19 -0.000685871 4.32066e-19 0)
(0.00210848 -2.26205e-05 1.46755e-18 -0.000667048 7.39933e-19 0)
(0.00206658 -5.08628e-06 -1.20694e-18 -0.000650205 -1.12396e-18 0)
(0.00202672 1.13581e-05 9.9167e-19 -0.000634346 1.25107e-19 0)
(0.00198876 2.64922e-05 -2.20899e-19 -0.000620139 3.60783e-19 0)
(0.00195255 4.07853e-05 1.66375e-19 -0.000606777 2.78286e-19 0)
(0.00191804 5.38251e-05 -2.27963e-19 -0.000594852 3.34508e-19 0)
(0.00188501 6.62875e-05 1.20346e-18 -0.00058358 6.81289e-19 0)
(0.00185345 7.75238e-05 -4.1961e-19 -0.000573636 -7.77691e-19 0)
(0.00182321 8.83898e-05 -1.62891e-18 -0.000564096 -8.62887e-19 0)
(0.00179412 9.82459e-05 9.71562e-19 -0.00055585 4.01908e-19 0)
(0.00176641 0.000107523 -4.76305e-19 -0.000547764 -2.05235e-19 0)
(0.00173908 0.000116996 7.94749e-19 -0.000540824 9.18004e-19 0)
(0.00171399 0.000123978 9.69804e-22 -0.000534121 2.14031e-21 0)
(0.00168992 0.000130469 3.36276e-19 -0.000528132 -3.88185e-20 0)
(0.00166535 0.000138141 -2.34278e-19 -0.000522744 2.67482e-19 0)
(0.00164243 0.000144574 3.27558e-19 -0.000517648 -3.18471e-20 0)
(0.00161996 0.00015027 -9.01938e-20 -0.000513239 -2.2648e-19 0)
(0.00159834 0.000155961 -4.00766e-19 -0.000509045 -1.8812e-19 0)
(0.00157734 0.000160509 -8.29791e-20 -0.000505287 -2.19953e-19 0)
(0.00155695 0.000165421 5.43552e-19 -0.00050187 6.21108e-19 0)
(0.0015371 0.000169015 -3.74725e-19 -0.000498594 -1.81868e-19 0)
(0.00151763 0.00017333 2.16849e-19 -0.000495764 -2.44757e-19 0)
(0.00336216 -0.000795714 1.68155e-20 -0.0013466 7.49961e-21 5.61994e-37)
(0.00325256 -0.000723759 -3.1273e-18 -0.00128201 -1.06592e-18 0)
(0.00314914 -0.000654463 1.16665e-18 -0.00121674 2.15405e-19 0)
(0.00305215 -0.00058988 5.06742e-18 -0.0011618 1.4744e-18 0)
(0.0029606 -0.000529661 -3.27939e-18 -0.001106 -1.56815e-18 0)
(0.00287424 -0.000473702 -1.56126e-18 -0.00105871 -7.63234e-19 0)
(0.00279268 -0.000421817 -2.93041e-18 -0.00101101 -7.00822e-19 0)
(0.00271566 -0.000373789 3.27519e-18 -0.000970254 1.17702e-18 0)
(0.00264293 -0.000329229 4.4978e-19 -0.000929637 4.58776e-19 0)
(0.00257418 -0.000288052 -1.69644e-18 -0.000894596 -1.10269e-18 0)
(0.00250923 -0.000249785 -2.88948e-18 -0.000860103 -1.13774e-18 0)
(0.00244776 -0.000214425 -4.44212e-19 -0.000830061 1.41322e-19 0)
(0.00238964 -0.000181517 -8.5956e-19 -0.00080082 2.64547e-19 0)
(0.00233456 -0.000151084 -4.20087e-19 -0.000775127 1.2088e-19 0)
(0.00228241 -0.000122732 -1.74101e-18 -0.000750368 -8.27443e-19 0)
(0.00223293 -9.64803e-05 -9.8331e-19 -0.000728446 -5.77189e-19 0)
(0.002186 -7.20049e-05 -6.71952e-19 -0.000707504 -2.39325e-19 0)
(0.0021414 -4.93169e-05 -1.30383e-18 -0.00068884 -4.80179e-19 0)
(0.00209902 -2.8148e-05 1.50096e-18 -0.000671147 7.77992e-19 0)
(0.00205868 -8.51443e-06 -4.45096e-19 -0.000655292 -5.78343e-19 0)
(0.00202029 9.82846e-06 -1.4013e-18 -0.000640369 -7.57679e-19 0)
(0.00198365 2.68255e-05 -1.79331e-19 -0.000626924 3.14296e-19 0)
(0.00194876 4.2752e-05 7.48585e-19 -0.000614373 5.01553e-19 0)
(0.00191533 5.74521e-05 -7.20684e-19 -0.00060298 -4.90772e-19 0)
(0.00188351 7.1315e-05 1.58885e-18 -0.000592472 6.87582e-19 0)
(0.00185286 8.39942e-05 3.14459e-19 -0.000582802 4.96553e-19 0)
(0.00182369 9.60879e-05 -7.97917e-19 -0.00057405 -7.09997e-19 0)
(0.00179545 0.000106987 1.39394e-19 -0.000565812 2.36193e-19 0)
(0.00176839 0.0001175 1.36993e-19 -0.000558444 2.40577e-19 0)
(0.00174245 0.000126897 3.40202e-19 -0.000551511 -7.22528e-21 0)
(0.00171625 0.000135738 9.09342e-19 -0.000544625 4.40457e-19 0)
(0.00169334 0.000144142 -4.44728e-19 -0.000539528 -2.19385e-19 0)
(0.00167004 0.000151905 1.30324e-18 -0.000534336 6.53099e-19 0)
(0.00164761 0.000158947 1.27174e-18 -0.000529493 6.43856e-19 0)
(0.00162596 0.000165494 1.00764e-19 -0.000525109 2.16722e-19 0)
(0.00160475 0.000171558 3.09987e-19 -0.000521042 -3.99692e-23 0)
(0.00158434 0.000176945 7.01667e-19 -0.000517205 2.11261e-19 0)
(0.00156436 0.000182221 -2.99338e-19 -0.000513899 -7.48171e-22 0)
(0.00154496 0.000186492 6.73217e-19 -0.000510477 2.06779e-19 0)
(0.00152591 0.000191187 3.959e-19 -0.000507748 1.09631e-19 0)
(0.00328476 -0.000871635 1.47133e-18 -0.00129665 5.35497e-19 3.49712e-33)
(0.00318028 -0.000791233 1.21812e-18 -0.00123723 2.29308e-19 0)
(0.00308207 -0.000716045 -1.0108e-18 -0.00117642 -1.54893e-18 0)
(0.00299042 -0.000646019 3.11764e-18 -0.0011262 1.90921e-18 0)
(0.00290396 -0.000580883 1.27656e-18 -0.00107478 1.06575e-18 0)
(0.0028226 -0.000520341 -2.03333e-18 -0.00103167 -5.04953e-19 0)
(0.00274573 -0.000464102 -1.52339e-18 -0.000987899 -7.24212e-19 0)
(0.00267314 -0.000411984 -1.98562e-18 -0.000950733 -1.16819e-18 0)
(0.00260453 -0.000363534 2.29077e-18 -0.000913464 9.551e-19 0)
(0.00253961 -0.000318705 4.60472e-19 -0.00088144 4.10214e-19 0)
(0.0024782 -0.00027698 8.73908e-19 -0.000849739 7.90361e-19 0)
(0.00242001 -0.000238384 -1.19249e-18 -0.0008222 -1.51545e-19 0)
(0.00236491 -0.00020242 -3.72791e-19 -0.000795263 -3.49914e-19 0)
(0.00231262 -0.000169136 3.92374e-19 -0.000771634 -7.40289e-20 0)
(0.00226305 -0.000138092 7.2498e-19 -0.000748769 2.689e-19 0)
(0.00221594 -0.000109338 -1.01389e-18 -0.000728539 -5.82191e-19 0)
(0.00217121 -8.24963e-05 -6.78474e-19 -0.000709148 -2.67434e-19 0)
(0.00212863 -5.76165e-05 -9.33815e-19 -0.000691866 -5.58514e-19 0)
(0.00208813 -3.43697e-05 -2.65669e-19 -0.000675435 -2.88226e-19 0)
(0.0020495 -1.28149e-05 2.45066e-19 -0.000660702 2.7374e-19 0)
(0.00201271 7.34757e-06 -1.19465e-18 -0.000646792 -5.19154e-19 0)
(0.00197755 2.60417e-05 3.62859e-19 -0.000634256 -1.51291e-22 0)
(0.00194401 4.35438e-05 2.04895e-19 -0.000622489 2.51312e-19 0)
(0.00191185 5.97789e-05 5.50519e-19 -0.000611838 2.57141e-19 0)
(0.00188115 7.49609e-05 -6.01069e-26 -0.000601888 -7.27166e-26 0)
(0.00185162 8.90991e-05 1.21706e-18 -0.000592847 7.43155e-19 0)
(0.00182338 0.000102214 3.42289e-19 -0.000584424 1.80545e-20 0)
(0.00179616 0.000114582 -1.53912e-19 -0.000576764 -2.2471e-19 0)
(0.00177004 0.000125804 3.31682e-19 -0.000569601 1.88856e-20 0)
(0.00174491 0.000136604 -3.33106e-19 -0.000563164 -2.88716e-20 0)
(0.00172058 0.00014615 7.2457e-19 -0.000557025 6.72346e-19 0)
(0.00169755 0.000155022 1.9763e-19 -0.000551782 -1.80797e-19 0)
(0.00167478 0.000163691 1.94981e-19 -0.000546576 -1.84103e-19 0)
(0.00165315 0.000171397 -2.00037e-19 -0.000542078 1.73426e-19 0)
(0.00163188 0.000178719 5.29026e-19 -0.000537673 4.38201e-19 0)
(0.00161148 0.000185455 1.98331e-19 -0.000533848 -1.71205e-19 0)
(0.00159147 0.000191465 -3.0172e-19 -0.000530029 -3.60634e-20 0)
(0.00157217 0.000197348 9.83952e-19 -0.000526837 8.57794e-19 0)
(0.00155319 0.000202119 1.93492e-19 -0.00052342 -1.64577e-19 0)
(0.0015347 0.000207351 4.98565e-19 -0.000520727 3.43245e-19 0)
(0.00319915 -0.000942848 -2.01267e-18 -0.0012421 -2.28202e-19 1.38817e-33)
(0.00310145 -0.000855281 -2.89728e-18 -0.00118873 -1.44083e-18 0)
(0.00300949 -0.000774257 -2.34448e-25 -0.00113324 -1.66192e-25 0)
(0.00292376 -0.000698948 3.79648e-19 -0.00108809 7.99375e-19 0)
(0.00284284 -0.000629098 2.80783e-18 -0.00104136 1.037e-18 0)
(0.00276677 -0.000564219 -1.01152e-18 -0.00100264 -2.72761e-19 0)
(0.00269486 -0.000503946 1.34184e-18 -0.000962982 1.13128e-19 0)
(0.00262695 -0.000448062 -3.01286e-18 -0.000929584 -1.41773e-18 0)
(0.00256268 -0.000396064 -6.04416e-21 -0.000895833 -4.56528e-21 0)
(0.00250182 -0.000347907 -1.73989e-18 -0.000866995 -5.81147e-19 0)
(0.00244418 -0.000303038 1.29921e-18 -0.000838253 6.51479e-19 0)
(0.00238948 -0.00026149 2.05445e-18 -0.000813378 9.33759e-19 0)
(0.00233762 -0.000222743 3.55125e-19 -0.000788905 -5.08646e-20 0)
(0.00228833 -0.000186841 7.49331e-19 -0.000767485 2.89721e-19 0)
(0.00224153 -0.000153341 1.82038e-18 -0.00074666 8.92815e-19 0)
(0.00219698 -0.000122268 1.75497e-18 -0.000728251 8.83391e-19 0)
(0.00215462 -9.3266e-05 -6.79065e-19 -0.000710542 -2.88251e-19 0)
(0.00211423 -6.63335e-05 3.55736e-19 -0.000694748 1.16521e-20 0)
(0.00207578 -4.11942e-05 2.91844e-21 -0.000679702 2.73337e-21 0)
(0.00203904 -1.78237e-05 -1.24175e-18 -0.000666173 -5.71891e-19 0)
(0.00200401 3.99015e-06 9.46022e-20 -0.000653403 -2.20836e-19 0)
(0.00197047 2.42793e-05 -5.89467e-19 -0.000641825 -2.8628e-19 0)
(0.00193843 4.32245e-05 -3.42396e-19 -0.000630998 -3.99929e-20 0)
(0.0019077 6.0826e-05 3.39917e-19 -0.000621095 4.40976e-20 0)
(0.00187828 7.72967e-05 -7.41957e-19 -0.000611918 -5.06251e-19 0)
(0.00185001 9.25269e-05 1.76635e-18 -0.000603456 1.04689e-18 0)
(0.00182285 0.00010687 3.05943e-26 -0.000595649 3.32064e-26 0)
(0.00179679 0.000119991 1.68503e-19 -0.000588452 2.12216e-19 0)
(0.0017715 0.000132509 -1.63205e-19 -0.000581733 1.54663e-19 0)
(0.00174745 0.000143822 -6.2643e-19 -0.000575702 -4.7035e-19 0)
(0.00172376 0.000154701 1.75323e-19 -0.000569814 -1.41041e-19 0)
(0.00170148 0.000164889 4.52048e-19 -0.000564878 2.59609e-19 0)
(0.00167957 0.000173892 -1.7945e-19 -0.000559889 1.37174e-19 0)
(0.00165859 0.000182622 -4.32158e-19 -0.000555645 -2.5548e-19 0)
(0.0016381 0.000190307 -5.44696e-19 -0.000551342 -4.49132e-19 0)
(0.00161829 0.000197757 5.3046e-19 -0.000547721 4.44921e-19 0)
(0.00159895 0.000204225 -1.43926e-18 -0.000543904 -1.129e-18 0)
(0.00158024 0.000210631 6.88024e-19 -0.000540873 3.10166e-19 0)
(0.00156182 0.000215885 3.16706e-26 -0.000537376 4.3821e-26 0)
(0.00154386 0.000221541 2.67624e-19 -0.000534804 2.45012e-19 0)
(0.0031059 -0.00100845 2.94401e-18 -0.00118338 3.9609e-19 4.62644e-33)
(0.00301616 -0.000914782 -8.79323e-19 -0.00113678 -5.35779e-19 0)
(0.00293135 -0.000828481 -4.84837e-18 -0.00108732 -2.10896e-18 0)
(0.0028522 -0.000748356 1.88989e-18 -0.00104764 7.71593e-19 0)
(0.00277734 -0.000674181 2.53976e-18 -0.00100597 1.21269e-18 0)
(0.00270694 -0.000605323 1.01796e-18 -0.000971872 3.00375e-19 0)
(0.00264029 -0.00054137 1.94803e-18 -0.000936535 6.04881e-19 0)
(0.00257731 -0.000482064 7.02531e-21 -0.000907071 4.52348e-21 0)
(0.00251762 -0.000426855 -3.21078e-19 -0.000876995 6.91381e-20 0)