/*--------------------------------*- C++ -*----------------------------------*\
| =========                 |                                                 |
| \\      /  F ield         | OpenFOAM: The Open Source CFD Toolbox           |
|  \\    /   O peration     | Version:  v2012                                 |
|   \\  /    A nd           | Website:  www.openfoam.com                      |
|    \\/     M anipulation  |                                                 |
\*---------------------------------------------------------------------------*/
FoamFile
{
    version     2.0;
    format      ascii;
    class       volScalarField;
    location    "16";
    object      epsilonEq;
}
// * * * * * * * * * * * * * * * * * * * * * * * * * * * * * * * * * * * * * //

dimensions      [0 0 0 0 0 0 0];


internalField   nonuniform List<scalar> 
470
(
0.000256641
0.000222159
0.000686945
0.000435636
0.000586288
0.000617347
0.000572646
0.00057274
0.00099574
0.000684847
0.00094063
0.00119948
0.00115924
0.000426781
0.00119095
0.000852476
0.000673548
0.00038045
0.000339774
0.000303204
0.000857819
0.000511625
0.000702911
0.000424074
0.00105015
0.00050954
0.000906438
0.000743403
0.000605494
0.000404553
0.000295071
0.00129392
0.000688897
0.000999348
0.000644414
0.000621634
0.00121565
0.00030434
0.000349131
0.000346203
0.000849558
0.000310863
0.00125118
0.000762929
0.000804574
0.00129632
0.000427593
0.000965429
0.000865895
0.000975803
0.00133473
0.000781234
0.000412281
0.000335479
0.000480678
0.000504669
0.000855176
0.000426605
0.000789164
0.000756317
0.000535236
0.00099404
0.00112365
0.00117844
0.000431719
0.00140772
0.000422686
0.000536312
0.000597381
0.000793464
0.00018034
0.000661918
0.0012262
0.000637545
0.00136946
0.00047446
0.000624271
0.000612436
0.000696964
0.00158225
0.000809439
0.00144794
0.000715338
0.000494724
0.00100116
0.000502969
0.00135377
0.000541161
0.00138091
0.00107209
0.00141379
0.00121797
0.00065032
0.000611527
0.00114468
0.00118829
0.000537878
0.00059624
0.000604803
0.000650504
0.000495177
0.00090592
0.00103005
0.000457809
0.000446227
0.000580575
0.00056803
0.000537068
0.000543675
0.00171204
0.00136172
0.00166875
0.000463327
0.000605584
0.000619271
0.000719515
0.000417085
0.00108484
0.000539876
0.000233054
0.000631659
0.000460656
0.000400991
0.000417788
0.00057151
0.000794557
0.000774687
0.000507066
0.00113745
0.00045129
0.000479227
0.000518234
0.000574214
0.00049394
0.000516622
0.000673881
0.000658015
0.000704163
0.00122615
0.000592224
0.000601301
0.0010428
0.000532439
0.000570558
0.000573736
0.000312029
0.000432575
0.00111885
0.00051949
0.00118708
0.000366686
0.000417741
0.000611479
0.000476298
0.00153168
0.000849531
0.000845178
0.000495338
0.000523436
0.000660573
0.00112642
0.00106404
0.000880031
0.00126827
0.0012858
0.000749331
0.000759899
0.00111879
0.000715843
0.000822799
0.000756911
0.000576343
0.000589772
0.000614634
0.000584755
0.000541265
0.00037488
0.000259975
0.000954634
0.000704652
0.000736914
0.00125027
0.000663537
0.000788945
0.000798592
0.00101795
0.000618986
0.000166605
0.00111686
0.000450127
0.000598089
0.000497884
0.000740995
0.000709922
0.000288224
0.000380617
0.000714617
0.000654206
0.000663019
0.00611393
0.000213257
0.000149905
0.00489679
0.000767401
0.000783266
0.000804132
0.000327435
0.000342671
0.000760768
0.000974051
0.000496557
0.00070553
0.000551906
0.000420489
0.00104495
0.000934058
0.000530707
0.000432279
0.000473803
0.000835545
0.000549788
0.000372423
0.000628149
0.000438039
0.000924178
0.000624325
0.000964635
0.000284587
0.00151919
0.00121718
0.000914688
0.00047663
0.000417936
0.000580098
0.000796884
0.000597712
0.000497184
0.000558765
0.000548548
0.00045116
0.000451507
0.000435996
0.000577397
0.0023411
0.00217203
0.00105284
0.00111367
0.000547418
0.000287764
0.000626691
0.000606922
0.000741407
0.000394637
0.000592019
0.000887215
0.000282415
0.000388208
0.000424422
0.00057684
0.000206892
0.000712151
0.00141085
0.000154744
0.00040209
0.000359095
0.000416006
0.000591936
0.000386503
0.00040648
0.000832121
0.000683258
0.000539318
0.00135641
0.000617154
0.000798806
0.000731988
0.00085304
0.000731637
0.00102519
0.000544922
0.000653932
0.000853853
0.000555564
0.000864935
0.0004215
0.000443791
0.000870578
0.0011472
0.000483368
0.000413863
0.000532334
0.000634851
0.000357114
0.000997471
0.000950434
0.000503167
0.000487893
0.000637003
0.000905135
0.00041064
0.000543738
0.000399626
0.000537675
0.000536831
0.00152946
0.00072548
0.000570487
0.000553406
0.00051395
0.000568755
0.00111657
0.000952167
0.00446303
0.000558327
0.000701565
0.00110787
0.000696657
0.00037055
0.00100705
0.000472803
0.000966367
0.00043707
0.000510563
0.000454425
0.000961886
0.000363114
0.000717943
0.000707729
0.000544325
0.000540088
0.000469893
0.000358392
0.000763798
0.000772473
0.000414213
0.000705286
0.000275421
0.000471325
0.00130168
0.000595745
0.000413348
0.00336268
0.0010703
0.000372807
0.00054604
0.000920217
0.00122588
0.000520854
0.000408525
0.00058702
0.000270382
0.000603039
0.000858584
0.000891096
0.00114006
0.000211023
0.00107661
0.000644833
0.000413598
0.000169542
0.000419133
0.000437842
0.000549035
0.000730486
0.00123104
0.000592457
0.000413071
0.0011691
0.000203261
0.000585824
0.000454962
0.000611918
0.000908575
0.000442759
0.000485146
0.000674721
0.000344132
0.000572447
0.00351505
0.000491469
0.000717615
0.0014382
0.000489699
0.000467103
0.000526416
0.00529444
0.00126002
0.00130342
0.000853228
0.000454237
0.00101315
0.000389367
0.000669858
0.0014648
0.000585285
0.000426177
0.00042223
0.000587114
0.00113337
0.000751933
0.00106771
0.00391106
0.000670775
0.000357968
0.00120939
0.00113774
0.00107785
0.000647369
0.000400602
0.000379731
0.000585721
0.000590751
0.000347005
0.00074328
0.000809347
0.000712194
0.000488204
0.000509298
0.00122284
0.000250845
0.000664047
0.000295538
0.000724813
0.00046583
0.000697324
0.00285589
0.00130255
0.00081357
0.00107435
0.000925527
0.00105964
0.000945633
0.000825793
0.000914699
0.000318232
0.000477523
0.000434327
0.000596052
0.000555809
0.000803711
0.000875833
0.00113135
0.000443778
0.000790754
0.000898956
0.000923363
0.000836495
0.000637798
0.000259054
0.000557523
0.000750524
0.000995062
0.000919044
0.000548055
0.000530205
0.000473323
0.000896979
0.000948127
0.000501122
0.000438307
0.00068523
0.000647204
0.000393435
0.000955167
0.000879976
0.000930877
0.00049187
0.000461936
0.000834195
0.000874959
)
;

boundaryField
{
    back
    {
        type            empty;
    }
    front
    {
        type            empty;
    }
    down
    {
        type            calculated;
        value           nonuniform List<scalar> 
15
(
0.000310863
0.00018034
0.000417085
0.000233054
0.000166605
0.000551906
0.000206892
0.000154744
0.000386503
0.00041064
0.000270382
0.000344132
0.00042223
0.000400602
0.000347005
)
;
    }
    right
    {
        type            calculated;
        value           nonuniform List<scalar> 10(0.00047446 0.000417788 0.00057151 0.000516622 0.000394637 0.000592019 0.000437842 0.000549035 0.000379731 0.000590751);
    }
    up
    {
        type            calculated;
        value           nonuniform List<scalar> 
20
(
0.00129392
0.000804574
0.00133473
0.000426605
0.000605584
0.00113745
0.000880031
0.00126827
0.000683258
0.00135641
0.000637003
0.000966367
0.00130168
0.0010703
0.000891096
0.00114006
0.000489699
0.000587114
0.000585721
0.00074328
)
;
    }
    left
    {
        type            calculated;
        value           nonuniform List<scalar> 5(0.000855176 0.00158225 0.00489679 0.00111367 0.00336268);
    }
    hole
    {
        type            calculated;
        value           nonuniform List<scalar> 8(0.000541161 0.000845178 0.00611393 0.000974051 0.000399626 0.00446303 0.00123104 0.000674721);
    }
}


// ************************************************************************* //
