/*--------------------------------*- C++ -*----------------------------------*\
| =========                 |                                                 |
| \\      /  F ield         | OpenFOAM: The Open Source CFD Toolbox           |
|  \\    /   O peration     | Version:  v2012                                 |
|   \\  /    A nd           | Website:  www.openfoam.com                      |
|    \\/     M anipulation  |                                                 |
\*---------------------------------------------------------------------------*/
FoamFile
{
    version     2.0;
    format      ascii;
    class       volScalarField;
    location    "16";
    object      sigmaEq;
}
// * * * * * * * * * * * * * * * * * * * * * * * * * * * * * * * * * * * * * //

dimensions      [1 -1 -2 0 0 0 0];


internalField   nonuniform List<scalar> 
470
(
2.07287e+07
1.79436e+07
5.5484e+07
3.51859e+07
4.7354e+07
4.98626e+07
4.62522e+07
4.62598e+07
8.04251e+07
5.53146e+07
7.59739e+07
9.68811e+07
9.3631e+07
3.44708e+07
9.61924e+07
6.88538e+07
5.4402e+07
3.07287e+07
2.74433e+07
2.44896e+07
6.92854e+07
4.13235e+07
5.67736e+07
3.42521e+07
8.482e+07
4.11552e+07
7.32123e+07
6.00441e+07
4.89053e+07
3.26754e+07
2.38327e+07
1.04509e+08
5.56417e+07
8.07166e+07
5.20489e+07
5.02089e+07
9.81872e+07
2.45813e+07
2.8199e+07
2.79626e+07
6.86182e+07
2.51081e+07
1.01057e+08
6.16212e+07
6.49848e+07
1.04703e+08
3.45364e+07
7.79769e+07
6.99377e+07
7.88148e+07
1.07805e+08
6.30997e+07
3.32996e+07
2.70964e+07
3.8824e+07
4.07617e+07
6.90719e+07
3.44565e+07
6.37402e+07
6.10871e+07
4.32306e+07
8.02879e+07
9.07563e+07
9.51817e+07
3.48696e+07
1.13701e+08
3.41401e+07
4.33175e+07
4.825e+07
6.40874e+07
1.45659e+07
5.34626e+07
9.90389e+07
5.1494e+07
1.1061e+08
3.83218e+07
5.04219e+07
4.9466e+07
5.62933e+07
1.27797e+08
6.53778e+07
1.07493e+08
5.77773e+07
3.99585e+07
8.08633e+07
4.06244e+07
1.09343e+08
4.37092e+07
1.11535e+08
8.65917e+07
1.10957e+08
9.83743e+07
5.25259e+07
4.93925e+07
9.24549e+07
9.5977e+07
4.3444e+07
4.81578e+07
4.88494e+07
5.25407e+07
3.99951e+07
7.31705e+07
8.31964e+07
3.69769e+07
3.60414e+07
4.68926e+07
4.58793e+07
4.33786e+07
4.39122e+07
1.07307e+08
1.09985e+08
9.68081e+07
3.74225e+07
4.89126e+07
5.0018e+07
5.81147e+07
3.36876e+07
8.76218e+07
4.36053e+07
1.88236e+07
5.10186e+07
3.72069e+07
3.23877e+07
3.37444e+07
4.61604e+07
6.41758e+07
6.25708e+07
4.09553e+07
9.18706e+07
3.64503e+07
3.87068e+07
4.18574e+07
4.63788e+07
3.98951e+07
4.17271e+07
5.44289e+07
5.31473e+07
5.68747e+07
9.90352e+07
4.78334e+07
4.85666e+07
8.42261e+07
4.30047e+07
4.60835e+07
4.63402e+07
2.52024e+07
3.49388e+07
9.03686e+07
4.19588e+07
9.58795e+07
2.96169e+07
3.37406e+07
4.93887e+07
3.84702e+07
8.71457e+07
6.86159e+07
6.82644e+07
4.00081e+07
4.22775e+07
5.3354e+07
7.62172e+07
8.5942e+07
7.10794e+07
1.02437e+08
1.03853e+08
6.05229e+07
6.13765e+07
9.03641e+07
5.78181e+07
6.64568e+07
6.11351e+07
4.65508e+07
4.76355e+07
4.96435e+07
4.72302e+07
4.37175e+07
3.02787e+07
2.0998e+07
7.7105e+07
5.69142e+07
5.952e+07
1.00983e+08
5.35934e+07
6.37225e+07
6.45016e+07
8.22187e+07
4.99951e+07
1.34566e+07
9.02081e+07
3.63564e+07
4.83072e+07
4.02137e+07
5.98496e+07
5.73399e+07
2.32797e+07
3.07421e+07
5.77191e+07
5.28397e+07
5.35516e+07
5.21697e+07
1.72246e+07
1.21077e+07
7.19305e+07
6.19824e+07
6.32638e+07
6.49492e+07
2.64467e+07
2.76773e+07
6.14466e+07
7.86734e+07
4.01065e+07
5.69851e+07
4.4577e+07
3.39626e+07
8.43996e+07
7.54432e+07
4.28648e+07
3.49148e+07
3.82687e+07
6.74863e+07
4.4406e+07
3.00803e+07
5.07351e+07
3.53801e+07
7.46452e+07
5.04263e+07
7.79128e+07
2.29859e+07
1.21812e+08
9.83107e+07
7.38786e+07
3.8497e+07
3.37564e+07
4.68541e+07
6.43637e+07
4.82767e+07
4.01572e+07
4.5131e+07
4.43058e+07
3.64399e+07
3.64679e+07
3.52151e+07
4.66359e+07
1.04359e+08
1.21594e+08
8.50375e+07
8.99499e+07
4.42145e+07
2.32425e+07
5.06173e+07
4.90206e+07
5.98828e+07
3.18746e+07
4.78169e+07
7.16597e+07
2.28104e+07
3.13552e+07
3.42802e+07
4.65909e+07
1.67105e+07
5.75199e+07
1.13953e+08
1.24986e+07
3.24765e+07
2.90038e+07
3.36005e+07
4.78102e+07
3.12175e+07
3.28311e+07
6.72098e+07
5.51863e+07
4.35603e+07
1.09556e+08
4.9847e+07
6.45189e+07
5.91221e+07
6.88994e+07
5.90938e+07
8.28038e+07
4.40129e+07
5.28176e+07
6.8965e+07
4.48724e+07
6.98601e+07
3.40443e+07
3.58447e+07
7.0316e+07
9.26584e+07
3.90413e+07
3.34274e+07
4.29962e+07
5.12765e+07
2.88439e+07
8.0565e+07
7.67658e+07
4.06404e+07
3.94067e+07
5.14502e+07
7.3107e+07
3.31671e+07
4.39173e+07
3.22775e+07
4.34276e+07
4.33595e+07
1.16663e+08
5.85965e+07
4.60778e+07
4.46981e+07
4.15113e+07
4.59379e+07
9.01847e+07
7.69058e+07
4.34452e+07
4.50956e+07
5.66649e+07
8.94817e+07
5.62685e+07
2.9929e+07
8.13387e+07
3.81879e+07
7.80527e+07
3.53018e+07
4.12378e+07
3.67036e+07
7.76908e+07
2.93284e+07
5.79877e+07
5.71627e+07
4.39647e+07
4.36225e+07
3.79529e+07
2.8947e+07
6.16914e+07
6.23921e+07
3.34557e+07
5.69654e+07
2.22455e+07
3.80686e+07
1.05136e+08
4.81178e+07
3.33858e+07
1.01827e+08
8.64476e+07
3.01113e+07
4.41032e+07
7.43252e+07
9.90133e+07
4.20689e+07
3.29963e+07
4.74131e+07
2.18385e+07
4.8707e+07
6.93471e+07
7.19731e+07
9.20819e+07
1.70442e+07
8.69567e+07
5.20827e+07
3.3406e+07
1.36938e+07
3.3853e+07
3.53641e+07
4.43452e+07
5.90008e+07
6.53056e+07
4.78523e+07
3.33634e+07
9.44271e+07
1.64173e+07
4.73166e+07
3.67469e+07
4.94242e+07
7.33849e+07
3.57613e+07
3.91849e+07
5.44967e+07
2.77953e+07
4.62361e+07
7.90511e+07
3.96956e+07
5.79612e+07
1.14372e+08
3.95526e+07
3.77276e+07
4.25182e+07
6.99921e+07
1.01771e+08
1.05276e+08
6.89146e+07
3.66884e+07
8.18317e+07
3.14488e+07
5.41039e+07
1.03082e+08
4.7273e+07
3.4422e+07
3.41032e+07
4.74207e+07
9.15415e+07
6.07331e+07
8.62382e+07
7.64281e+07
5.4178e+07
2.89128e+07
9.76816e+07
9.1894e+07
8.70571e+07
5.22875e+07
3.23563e+07
3.06706e+07
4.73083e+07
4.77145e+07
2.80273e+07
6.00341e+07
6.53703e+07
5.75234e+07
3.94319e+07
4.11356e+07
9.87676e+07
2.02606e+07
5.36345e+07
2.38704e+07
5.85426e+07
3.76247e+07
5.63224e+07
1.10408e+08
1.05206e+08
6.57114e+07
8.67747e+07
7.47541e+07
8.55865e+07
7.6378e+07
6.66987e+07
7.38796e+07
2.57034e+07
3.85691e+07
3.50803e+07
4.81427e+07
4.48923e+07
6.49151e+07
7.07403e+07
9.13781e+07
3.58436e+07
6.38686e+07
7.2608e+07
7.45793e+07
6.75631e+07
5.15144e+07
2.09236e+07
4.50307e+07
6.06193e+07
8.03704e+07
7.42305e+07
4.4266e+07
4.28243e+07
3.823e+07
7.24483e+07
7.65795e+07
4.04752e+07
3.54017e+07
5.53455e+07
5.22741e+07
3.17774e+07
7.71481e+07
7.1075e+07
7.51862e+07
3.9728e+07
3.73102e+07
6.73773e+07
7.06698e+07
)
;

boundaryField
{
    back
    {
        type            empty;
    }
    front
    {
        type            empty;
    }
    down
    {
        type            calculated;
        value           nonuniform List<scalar> 
15
(
2.51081e+07
1.45659e+07
3.36876e+07
1.88236e+07
1.34566e+07
4.4577e+07
1.67105e+07
1.24986e+07
3.12175e+07
3.31671e+07
2.18385e+07
2.77953e+07
3.41032e+07
3.23563e+07
2.80273e+07
)
;
    }
    right
    {
        type            calculated;
        value           nonuniform List<scalar> 10(3.83218e+07 3.37444e+07 4.61604e+07 4.17271e+07 3.18746e+07 4.78169e+07 3.53641e+07 4.43452e+07 3.06706e+07 4.77145e+07);
    }
    up
    {
        type            calculated;
        value           nonuniform List<scalar> 
20
(
1.04509e+08
6.49848e+07
1.07805e+08
3.44565e+07
4.89126e+07
9.18706e+07
7.10794e+07
1.02437e+08
5.51863e+07
1.09556e+08
5.14502e+07
7.80527e+07
1.05136e+08
8.64476e+07
7.19731e+07
9.20819e+07
3.95526e+07
4.74207e+07
4.73083e+07
6.00341e+07
)
;
    }
    left
    {
        type            calculated;
        value           nonuniform List<scalar> 5(6.90719e+07 1.27797e+08 7.19305e+07 8.99499e+07 1.01827e+08);
    }
    hole
    {
        type            calculated;
        value           nonuniform List<scalar> 8(4.37092e+07 6.82644e+07 5.21697e+07 7.86734e+07 3.22775e+07 4.34452e+07 6.53056e+07 5.44967e+07);
    }
}


// ************************************************************************* //
