/*--------------------------------*- C++ -*----------------------------------*\
| =========                 |                                                 |
| \\      /  F ield         | OpenFOAM: The Open Source CFD Toolbox           |
|  \\    /   O peration     | Version:  v2012                                 |
|   \\  /    A nd           | Website:  www.openfoam.com                      |
|    \\/     M anipulation  |                                                 |
\*---------------------------------------------------------------------------*/
FoamFile
{
    version     2.0;
    format      ascii;
    class       volScalarField;
    location    "16";
    object      sigmaHyd;
}
// * * * * * * * * * * * * * * * * * * * * * * * * * * * * * * * * * * * * * //

dimensions      [1 -1 -2 0 0 0 0];


internalField   nonuniform List<scalar> 
470
(
9.29525e+06
1.47606e+07
2.72331e+07
2.84869e+07
1.72304e+07
2.4048e+07
2.31127e+07
1.12107e+07
3.53123e+07
2.85802e+07
3.49952e+07
4.24699e+07
3.91431e+07
2.70733e+07
4.40615e+07
3.17455e+07
2.57671e+07
2.36606e+07
2.31253e+07
1.58104e+07
3.39743e+07
2.71644e+07
2.81995e+07
2.53642e+07
2.8791e+07
2.30053e+07
2.54867e+07
2.86392e+07
2.49308e+07
2.54999e+07
1.52988e+07
5.11372e+07
2.71955e+07
2.83703e+07
2.64775e+07
2.50064e+07
4.68511e+07
1.54912e+07
2.02829e+07
1.40864e+07
2.30856e+07
2.11032e+07
4.32817e+07
1.916e+07
3.18891e+07
4.02626e+07
1.77023e+07
2.66868e+07
2.46048e+07
3.14534e+07
5.12137e+07
1.74053e+07
2.49193e+07
2.1262e+07
2.82892e+07
2.70016e+07
3.51283e+07
1.48103e+07
2.54478e+07
3.08633e+07
2.41076e+07
3.14325e+07
4.02029e+07
3.5606e+07
8.91043e+06
6.42778e+07
1.6809e+07
2.62928e+07
572385
3.05485e+07
8.50483e+06
2.74383e+07
3.79451e+07
2.37206e+07
3.02937e+07
2.81408e+07
2.66605e+07
2.65832e+07
2.4192e+07
8.30619e+07
2.56945e+07
5.75793e+07
2.92725e+07
-3.91325e+06
3.29055e+07
2.69876e+07
3.72191e+07
1.75455e+07
3.95485e+07
2.63369e+07
4.5156e+07
4.55383e+07
2.43353e+07
2.53608e+07
4.2104e+07
4.78798e+07
1.83297e+07
2.52217e+07
1.63286e+07
2.61453e+07
2.69104e+07
2.94093e+07
2.12234e+07
2.77533e+07
2.9748e+07
2.39485e+07
2.6355e+07
1.90533e+07
-1.76938e+07
1.81935e+07
4.66691e+07
5.6471e+07
2.91292e+07
2.44402e+07
6.49567e+06
2.71477e+07
2.77384e+07
4.32103e+07
2.06756e+07
1.61047e+07
2.21193e+07
2.84015e+07
2.49804e+07
3.10279e+07
2.40266e+07
2.80247e+07
2.83796e+07
2.64905e+07
4.49582e+07
2.60246e+07
1.51714e+07
1.37686e+07
2.33183e+07
2.64759e+07
2.68559e+07
2.66592e+07
2.54801e+07
1.58539e+07
4.3952e+07
2.352e+07
2.48379e+07
2.76218e+07
2.73064e+07
2.50776e+07
2.68273e+07
1.59845e+07
2.99724e+07
3.26639e+07
2.54888e+07
3.37707e+07
2.29732e+07
2.85151e+07
8.80531e+06
2.71022e+07
-3.32493e+06
3.08377e+07
-3.84367e+07
2.20336e+07
2.53184e+07
2.64034e+07
3.91571e+07
3.81884e+07
3.29983e+07
4.70152e+07
6.58652e+07
1.11986e+07
9.81186e+06
4.36211e+07
2.46249e+07
1.81512e+07
1.68634e+07
2.61277e+07
2.61597e+07
2.62439e+07
2.61462e+07
2.46155e+07
2.48826e+07
-5.21238e+06
2.33729e+07
1.40287e+07
2.08441e+07
4.08868e+07
2.5967e+07
2.87097e+07
3.18273e+07
3.98218e+07
2.70586e+07
-3.74382e+06
4.33606e+07
2.60387e+07
2.63637e+07
2.24011e+07
2.95252e+07
2.63458e+07
6.80374e+06
2.20642e+07
2.71316e+07
2.70758e+07
2.69784e+07
8.39912e+07
1.26873e+07
5.26001e+06
3.56434e+07
9.71438e+06
2.97957e+07
3.04386e+07
2.10604e+07
2.06811e+07
9.29905e+06
-4.86964e+07
2.77871e+07
2.66183e+07
-2.57781e+07
2.36482e+07
3.82143e+07
3.55024e+07
2.66087e+07
1.94833e+07
2.4943e+07
1.83625e+07
-2.16474e+07
1.21658e+07
2.50694e+07
2.53532e+07
2.02783e+07
2.42287e+07
3.09774e+07
-7.64424e+06
6.59346e+07
4.64545e+07
2.84805e+07
-7.08996e+06
3.04969e+07
2.39077e+07
3.18757e+07
2.53373e+07
4.70392e+06
2.42618e+07
2.51929e+07
2.91715e+07
3.00363e+07
2.9357e+07
2.51387e+07
9.60205e+07
8.57317e+07
6.31888e+07
5.98592e+07
2.57034e+07
1.95663e+07
2.65183e+07
2.58878e+07
2.8854e+07
3.22742e+07
2.33496e+07
3.41187e+07
1.61879e+07
2.06055e+07
3.00873e+07
2.39062e+07
1.23212e+07
2.58478e+07
5.19466e+07
3.4825e+06
-1.27217e+07
1.69914e+07
3.03499e+07
2.3995e+07
2.48167e+07
2.2148e+07
3.26912e+07
2.68572e+07
-4.00838e+06
5.31157e+07
3.9023e+06
4.08468e+07
1.23059e+07
2.30256e+07
2.89964e+07
3.68417e+07
2.56166e+07
2.53218e+07
3.02633e+07
2.20722e+07
3.03863e+07
2.64024e+07
2.93285e+07
3.56297e+07
3.77585e+07
2.58544e+07
6.8413e+06
87084.6
419460
4.39295e+06
3.80109e+07
3.54627e+07
2.47577e+07
2.62608e+07
2.47589e+07
3.1219e+07
2.69551e+07
2.71482e+07
-6.80916e+06
2.70486e+07
2.51297e+07
5.51994e+07
1.67529e+07
2.61444e+07
2.6944e+07
3.78959e+06
9.06076e+06
3.56308e+07
2.12508e+07
1.0114e+08
2.63482e+07
1.95142e+06
3.83574e+07
5.59413e+06
-1.34547e+06
3.86091e+07
2.42668e+07
3.8086e+07
2.19484e+07
2.55044e+07
2.64704e+07
3.61694e+07
2.32417e+07
2.83454e+07
1.28224e+07
1.17942e+07
-7.48352e+06
1.94109e+07
-1.22043e+07
2.18366e+07
2.64139e+07
-2.06428e+06
2.31069e+07
1.96732e+07
2.49568e+07
4.9068e+07
2.45053e+07
2.27543e+07
6.66431e+07
4.26593e+07
-1.1279e+07
2.51666e+07
3.81201e+07
4.84027e+07
2.53923e+07
3.21145e+07
2.29262e+07
1.85985e+07
1.82728e+07
3.35816e+07
3.49742e+07
4.25994e+07
-1.20757e+07
4.28936e+07
2.52305e+07
3.08944e+07
-352340
2.99411e+07
2.9776e+07
2.53702e+07
2.96153e+07
4.58813e+07
2.31786e+07
2.29766e+07
4.16775e+07
-3.2321e+06
2.40949e+07
2.08642e+07
2.04055e+07
3.53645e+07
2.6978e+07
-1.34591e+07
-2.49834e+07
-1.39699e+07
2.46673e+07
1.30591e+08
-1.67216e+07
2.20556e+07
3.30367e+07
2.01371e+07
2.86102e+07
2.60529e+07
-2.85443e+07
4.27928e+07
4.70705e+07
3.22276e+07
2.35432e+07
2.54039e+07
2.5094e+07
2.66395e+07
4.97015e+07
2.64893e+07
2.44275e+07
2.92267e+07
2.36295e+07
4.45115e+07
2.85164e+07
3.91581e+07
1.12904e+08
2.70963e+07
29918.9
3.4792e+07
5.08139e+07
2.71003e+07
2.71524e+07
3.16201e+07
3.25743e+07
2.32257e+07
2.31681e+07
2.28929e+07
2.98443e+07
3.91092e+07
1.77945e+07
2.64155e+07
3.0385e+06
4.70863e+07
4.46347e+06
1.91432e+07
8.40504e+06
2.82633e+07
2.65511e+07
2.87529e+07
3.92577e+07
4.71716e+07
1.35734e+07
3.44564e+07
3.56067e+07
3.60302e+07
2.23844e+07
2.89943e+07
3.10832e+07
-1.59757e+07
-2.40524e+07
2.95976e+07
2.31984e+07
2.71305e+07
2.58857e+07
1.66629e+07
4.44703e+07
2.82334e+07
1.56586e+07
3.32526e+07
2.05496e+07
1.3508e+07
2.68584e+07
2.14046e+06
2.51513e+07
3.08779e+07
4.03297e+07
3.45357e+07
2.67794e+07
2.60147e+07
5.96156e+06
2.65447e+07
3.69492e+07
1.30056e+07
9.91476e+06
2.77076e+07
2.02488e+07
1.20155e+07
3.85051e+07
3.35942e+07
3.6176e+07
2.2804e+07
2.46713e+07
2.69271e+07
3.02103e+07
)
;

boundaryField
{
    back
    {
        type            empty;
    }
    front
    {
        type            empty;
    }
    down
    {
        type            zeroGradient;
    }
    right
    {
        type            zeroGradient;
    }
    up
    {
        type            zeroGradient;
    }
    left
    {
        type            zeroGradient;
    }
    hole
    {
        type            zeroGradient;
    }
}


// ************************************************************************* //
