/*--------------------------------*- C++ -*----------------------------------*\
| =========                 |                                                 |
| \\      /  F ield         | OpenFOAM: The Open Source CFD Toolbox           |
|  \\    /   O peration     | Version:  v2012                                 |
|   \\  /    A nd           | Website:  www.openfoam.com                      |
|    \\/     M anipulation  |                                                 |
\*---------------------------------------------------------------------------*/
FoamFile
{
    version     2.0;
    format      ascii;
    class       volVectorField;
    location    "5";
    object      D_0;
}
// * * * * * * * * * * * * * * * * * * * * * * * * * * * * * * * * * * * * * //

dimensions      [0 1 0 0 0 0 0];


internalField   nonuniform List<vector> 
1000
(
(6.77068e-05 -0.000951411 0)
(6.15593e-05 -0.000983002 0)
(5.66217e-05 -0.00100538 0)
(5.29038e-05 -0.00102633 0)
(4.99086e-05 -0.00104209 0)
(4.76e-05 -0.00105748 0)
(4.57409e-05 -0.00107 0)
(4.42391e-05 -0.00108254 0)
(4.30283e-05 -0.00109356 0)
(4.19292e-05 -0.0011047 0)
(0.00020263 -0.000939735 0)
(0.000184648 -0.000968837 0)
(0.000170176 -0.000989273 0)
(0.000159296 -0.00100863 0)
(0.000150516 -0.00102308 0)
(0.000143776 -0.00103733 0)
(0.000138344 -0.00104883 0)
(0.000133996 -0.0010604 0)
(0.000130489 -0.00107054 0)
(0.000127368 -0.00108073 0)
(0.000336429 -0.000917143 0)
(0.000307655 -0.000941456 0)
(0.000284454 -0.000958169 0)
(0.000266948 -0.000974468 0)
(0.000252805 -0.000986417 0)
(0.000241931 -0.00099843 0)
(0.000233163 -0.00100803 0)
(0.000226176 -0.00101773 0)
(0.000220535 -0.00102622 0)
(0.000215629 -0.00103465 0)
(0.000468064 -0.000884403 0)
(0.000430347 -0.000902104 0)
(0.000399803 -0.00091364 0)
(0.000376708 -0.000925683 0)
(0.00035798 -0.00093415 0)
(0.000343615 -0.000943082 0)
(0.000331997 -0.000950047 0)
(0.00032286 -0.000957215 0)
(0.000315453 -0.000963477 0)
(0.000309266 -0.000969549 0)
(0.000596879 -0.000843701 0)
(0.000552283 -0.000853397 0)
(0.00051601 -0.0008587 0)
(0.00048846 -0.000865556 0)
(0.000466049 -0.000869829 0)
(0.000448846 -0.00087502 0)
(0.0004349 -0.000878862 0)
(0.00042404 -0.000883002 0)
(0.000415199 -0.000886687 0)
(0.00040811 -0.000890041 0)
(0.000721884 -0.000795602 0)
(0.000673002 -0.000796685 0)
(0.000632957 -0.000795196 0)
(0.000602463 -0.000796406 0)
(0.00057747 -0.000796091 0)
(0.000558378 -0.000797244 0)
(0.000542765 -0.000797724 0)
(0.000530851 -0.000798683 0)
(0.00052104 -0.000799684 0)
(0.0005136 -0.000800286 0)
(0.000842133 -0.000743606 0)
(0.000791286 -0.000735847 0)
(0.00074935 -0.000727444 0)
(0.000717275 -0.000722827 0)
(0.000690846 -0.000717837 0)
(0.000670652 -0.000714845 0)
(0.000654062 -0.000711949 0)
(0.000641532 -0.000709698 0)
(0.00063115 -0.000708094 0)
(0.000623595 -0.000706012 0)
(0.000957369 -0.000686813 0)
(0.000907091 -0.000670833 0)
(0.000865194 -0.000655852 0)
(0.00083312 -0.00064573 0)
(0.000806357 -0.000636224 0)
(0.000786115 -0.000629366 0)
(0.000769186 -0.000623236 0)
(0.000756795 -0.000618128 0)
(0.000746269 -0.000614136 0)
(0.000739134 -0.000609809 0)
(0.0010656 -0.000629886 0)
(0.00101784 -0.000606479 0)
(0.000977683 -0.000585639 0)
(0.000946787 -0.000570587 0)
(0.000920893 -0.000557055 0)
(0.000901189 -0.000546826 0)
(0.000884782 -0.000537845 0)
(0.000872677 -0.000530336 0)
(0.000862575 -0.000524302 0)
(0.000855726 -0.000518167 0)
(0.00116841 -0.000570116 0)
(0.00112501 -0.000540684 0)
(0.00108805 -0.000514935 0)
(0.00105965 -0.000495771 0)
(0.0010355 -0.000478729 0)
(0.00101738 -0.000465705 0)
(0.00100197 -0.0004541 0)
(0.000991061 -0.000444815 0)
(0.000981701 -0.000436735 0)
(0.000975948 -0.000429806 0)
(0.00126201 -0.000512256 0)
(0.00122429 -0.000478329 0)
(0.00119177 -0.000448978 0)
(0.00116647 -0.000426887 0)
(0.00114517 -0.000407229 0)
(0.00112843 -0.000392509 0)
(0.00111526 -0.000378928 0)
(0.00110436 -0.000368968 0)
(0.00109754 -0.000359307 0)
(0.00109029 -0.000352542 0)
(0.00134989 -0.000453497 0)
(0.0013187 -0.000416654 0)
(0.00129147 -0.000385108 0)
(0.00127016 -0.000360923 0)
(0.0012523 -0.000339782 0)
(0.00123796 -0.00032346 0)
(0.00122718 -0.000308948 0)
(0.00121759 -0.000297522 0)
(0.00121257 -0.000287397 0)
(0.00120577 -0.000278777 0)
(0.00142771 -0.000396337 0)
(0.00140374 -0.000358488 0)
(0.00138231 -0.000326211 0)
(0.00136544 -0.000301192 0)
(0.00135138 -0.00027941 0)
(0.00133975 -0.000262431 0)
(0.00133162 -0.000247419 0)
(0.00132365 -0.000235429 0)
(0.00132059 -0.000225029 0)
(0.00131474 -0.000215772 0)
(0.00149809 -0.00034002 0)
(0.00148134 -0.00030277 0)
(0.00146578 -0.000271238 0)
(0.00145348 -0.000246445 0)
(0.00144323 -0.000225199 0)
(0.00143451 -0.00020823 0)
(0.00142888 -0.000193708 0)
(0.0014228 -0.000181601 0)
(0.00142132 -0.000171757 0)
(0.00141688 -0.000162398 0)
(0.00155826 -0.000284962 0)
(0.00154863 -0.000250183 0)
(0.00153876 -0.000220844 0)
(0.00153107 -0.000197553 0)
(0.00152449 -0.000177777 0)
(0.00151882 -0.000161735 0)
(0.0015155 -0.000148306 0)
(0.00151157 -0.000136773 0)
(0.00151141 -0.000127862 0)
(0.00150868 -0.000118878 0)
(0.00160958 -0.000231268 0)
(0.00160637 -0.00020039 0)
(0.00160168 -0.000174478 0)
(0.00159823 -0.000153705 0)
(0.00159498 -0.000136281 0)
(0.00159221 -0.000121912 0)
(0.00159097 -0.00011018 0)
(0.00158914 -9.9822e-05 0)
(0.00159013 -9.2195e-05 0)
(0.00158919 -8.41513e-05 0)
(0.00165057 -0.000178501 0)
(0.00165296 -0.00015301 0)
(0.00165274 -0.000131668 0)
(0.00165302 -0.000114453 0)
(0.00165264 -0.000100117 0)
(0.00165246 -8.81602e-05 0)
(0.00165297 -7.8563e-05 0)
(0.00165309 -6.99017e-05 0)
(0.00165499 -6.37566e-05 0)
(0.00165571 -5.69992e-05 0)
(0.0016818 -0.00012689 0)
(0.00168859 -0.000107813 0)
(0.00169189 -9.18947e-05 0)
(0.00169515 -7.89831e-05 0)
(0.00169703 -6.83116e-05 0)
(0.00169895 -5.93292e-05 0)
(0.00170085 -5.2227e-05 0)
(0.00170257 -4.57175e-05 0)
(0.00170519 -4.1231e-05 0)
(0.00170731 -3.61608e-05 0)
(0.00170256 -7.57537e-05 0)
(0.00171243 -6.39944e-05 0)
(0.00171817 -5.41869e-05 0)
(0.00172351 -4.62115e-05 0)
(0.00172696 -3.96386e-05 0)
(0.00173035 -3.40754e-05 0)
(0.00173321 -2.97101e-05 0)
(0.00173605 -2.5664e-05 0)
(0.00173917 -2.29229e-05 0)
(0.00174228 -1.97572e-05 0)
(0.00171305 -2.52778e-05 0)
(0.00172448 -2.12812e-05 0)
(0.00173146 -1.7959e-05 0)
(0.00173787 -1.52497e-05 0)
(0.00174212 -1.30278e-05 0)
(0.00174628 -1.11415e-05 0)
(0.00174962 -9.67239e-06 0)
(0.00175306 -8.3058e-06 0)
(0.00175642 -7.39148e-06 0)
(0.00176005 -6.32891e-06 0)
(0.00176686 -5.24373e-06 0)
(0.00175051 -1.63325e-05 0)
(0.00171834 -3.00635e-05 0)
(0.00167075 -4.75897e-05 0)
(0.00160933 -7.06681e-05 0)
(0.00153461 -0.000100397 0)
(0.00144912 -0.000137998 0)
(0.00135302 -0.00018475 0)
(0.00124937 -0.000241289 0)
(0.00113809 -0.000308116 0)
(0.00177977 -3.92034e-06 0)
(0.00176508 -1.21009e-05 0)
(0.00173624 -2.27767e-05 0)
(0.00169338 -3.64892e-05 0)
(0.00163813 -5.53035e-05 0)
(0.00157063 -7.92318e-05 0)
(0.00149373 -0.000110357 0)
(0.00140738 -0.000147286 0)
(0.00131543 -0.000193588 0)
(0.00121783 -0.00024422 0)
(0.00179544 -3.18415e-06 0)
(0.00178289 -9.57237e-06 0)
(0.00175826 -1.80733e-05 0)
(0.00172153 -2.85708e-05 0)
(0.00167404 -4.34401e-05 0)
(0.00161557 -6.19254e-05 0)
(0.00154821 -8.73161e-05 0)
(0.00147148 -0.000116877 0)
(0.00138784 -0.000156275 0)
(0.00129796 -0.000197708 0)
(0.00181384 -3.04674e-06 0)
(0.00180245 -8.88219e-06 0)
(0.00178009 -1.67012e-05 0)
(0.0017468 -2.56864e-05 0)
(0.00170383 -3.85036e-05 0)
(0.00165125 -5.32806e-05 0)
(0.0015909 -7.4036e-05 0)
(0.00152304 -9.66259e-05 0)
(0.00144898 -0.00012826 0)
(0.00136999 -0.000160567 0)
(0.0018361 -2.79857e-06 0)
(0.00182625 -7.94665e-06 0)
(0.00180682 -1.49571e-05 0)
(0.00177786 -2.26167e-05 0)
(0.00174013 -3.38388e-05 0)
(0.0016938 -4.62778e-05 0)
(0.00163976 -6.42707e-05 0)
(0.0015788 -8.31165e-05 0)
(0.00151131 -0.00010969 0)
(0.00143955 -0.000135943 0)
(0.00185994 -3.01712e-06 0)
(0.00185096 -8.43627e-06 0)
(0.00183321 -1.55172e-05 0)
(0.00180696 -2.26983e-05 0)
(0.00177275 -3.28584e-05 0)
(0.00173121 -4.33963e-05 0)
(0.00168274 -5.85634e-05 0)
(0.00162865 -7.39466e-05 0)
(0.00156836 -9.5837e-05 0)
(0.00150445 -0.000117429 0)
(0.00188805 -3.06843e-06 0)
(0.00188012 -8.55706e-06 0)
(0.00186436 -1.55989e-05 0)
(0.00184108 -2.25959e-05 0)
(0.00181043 -3.22646e-05 0)
(0.00177321 -4.2079e-05 0)
(0.00172931 -5.57836e-05 0)
(0.00168041 -6.94032e-05 0)
(0.00162561 -8.80876e-05 0)
(0.00156777 -0.000106365 0)
(0.00191711 -3.35727e-06 0)
(0.00190989 -9.39688e-06 0)
(0.00189549 -1.67616e-05 0)
(0.00187438 -2.38654e-05 0)
(0.00184656 -3.3143e-05 0)
(0.00181307 -4.23322e-05 0)
(0.0017735 -5.46627e-05 0)
(0.0017297 -6.68894e-05 0)
(0.00168036 -8.31197e-05 0)
(0.00162844 -9.91263e-05 0)
(0.00195014 -3.55625e-06 0)
(0.00194365 -1.00598e-05 0)
(0.00193065 -1.77401e-05 0)
(0.00191162 -2.51889e-05 0)
(0.0018864 -3.44792e-05 0)
(0.00185606 -4.36866e-05 0)
(0.00182007 -5.53782e-05 0)
(0.0017803 -6.69806e-05 0)
(0.00173549 -8.15867e-05 0)
(0.00168846 -9.60846e-05 0)
(0.00198399 -3.83215e-06 0)
(0.00197808 -1.0941e-05 0)
(0.00196621 -1.90319e-05 0)
(0.00194891 -2.68667e-05 0)
(0.00192597 -3.61954e-05 0)
(0.00189852 -4.54423e-05 0)
(0.00186593 -5.66819e-05 0)
(0.00183003 -6.79153e-05 0)
(0.00178951 -8.14962e-05 0)
(0.00174714 -9.5081e-05 0)
(0.00202117 -4.06074e-06 0)
(0.00201579 -1.17218e-05 0)
(0.00200498 -2.02211e-05 0)
(0.00198923 -2.85445e-05 0)
(0.00196831 -3.81039e-05 0)
(0.00194329 -4.76568e-05 0)
(0.00191359 -5.87762e-05 0)
(0.00188092 -6.9986e-05 0)
(0.00184414 -8.29598e-05 0)
(0.0018057 -9.60954e-05 0)
(0.00205918 -4.27799e-06 0)
(0.00205427 -1.24465e-05 0)
(0.00204439 -2.1318e-05 0)
(0.00203003 -3.00597e-05 0)
(0.00201098 -3.98317e-05 0)
(0.00198823 -4.96599e-05 0)
(0.00196127 -6.07833e-05 0)
(0.00193165 -7.20786e-05 0)
(0.00189834 -8.48099e-05 0)
(0.00186367 -9.77567e-05 0)
(0.00209981 -4.44261e-06 0)
(0.00209532 -1.30258e-05 0)
(0.00208629 -2.22067e-05 0)
(0.00207316 -3.13377e-05 0)
(0.00205575 -4.13484e-05 0)
(0.00203497 -5.14879e-05 0)
(0.00201039 -6.272e-05 0)
(0.00198342 -7.4188e-05 0)
(0.00195318 -8.68537e-05 0)
(0.00192175 -9.98139e-05 0)
(0.00214121 -4.54502e-06 0)
(0.0021371 -1.33941e-05 0)
(0.00212885 -2.27648e-05 0)
(0.00211686 -3.21423e-05 0)
(0.002101 -4.23071e-05 0)
(0.00208206 -5.26606e-05 0)
(0.00205973 -6.40027e-05 0)
(0.00203522 -7.56361e-05 0)
(0.00200788 -8.83609e-05 0)
(0.00197938 -0.000101415 0)
(0.00218458 -4.55654e-06 0)
(0.00218082 -1.34987e-05 0)
(0.00217328 -2.28956e-05 0)
(0.00216231 -3.23815e-05 0)
(0.00214782 -4.25755e-05 0)
(0.00213053 -5.30553e-05 0)
(0.00211019 -6.44192e-05 0)
(0.00208791 -7.6192e-05 0)
(0.00206313 -8.89206e-05 0)
(0.00203743 -0.000102119 0)
(0.00222846 -4.46734e-06 0)
(0.00222503 -1.32767e-05 0)
(0.00221815 -2.25084e-05 0)
(0.00220815 -3.18892e-05 0)
(0.00219496 -4.19574e-05 0)
(0.00217923 -5.23822e-05 0)
(0.00216077 -6.36803e-05 0)
(0.00214055 -7.54565e-05 0)
(0.00211817 -8.8186e-05 0)
(0.00209495 -0.000101441 0)
(0.0022737 -4.222e-06 0)
(0.00227058 -1.25926e-05 0)
(0.00226431 -2.1358e-05 0)
(0.0022552 -3.03534e-05 0)
(0.0022432 -4.0024e-05 0)
(0.0022289 -5.01594e-05 0)
(0.00221214 -6.11634e-05 0)
(0.00219384 -7.277e-05 0)
(0.00217362 -8.5333e-05 0)
(0.00215274 -9.8534e-05 0)
(0.00231893 -3.83428e-06 0)
(0.0023161 -1.14593e-05 0)
(0.00231043 -1.94824e-05 0)
(0.00230219 -2.77984e-05 0)
(0.00229135 -3.68233e-05 0)
(0.00227843 -4.64037e-05 0)
(0.00226332 -5.69104e-05 0)
(0.00224683 -6.8127e-05 0)
(0.00222866 -8.03685e-05 0)
(0.00220994 -9.3362e-05 0)
(0.00236487 -3.18441e-06 0)
(0.00236233 -9.53723e-06 0)
(0.00235723 -1.63047e-05 0)
(0.00234983 -2.34412e-05 0)
(0.00234008 -3.13422e-05 0)
(0.00232848 -3.99293e-05 0)
(0.00231492 -4.95258e-05 0)
(0.00230015 -6.00246e-05 0)
(0.00228391 -7.16307e-05 0)
(0.00226723 -8.42534e-05 0)
(0.00240985 -2.33632e-06 0)
(0.0024076 -6.9971e-06 0)
(0.0024031 -1.21182e-05 0)
(0.00239656 -1.76634e-05 0)
(0.00238795 -2.40703e-05 0)
(0.00237773 -3.12727e-05 0)
(0.00236577 -3.96317e-05 0)
(0.00235278 -4.90579e-05 0)
(0.00233851 -5.97737e-05 0)
(0.00232389 -7.1718e-05 0)
(0.00106168 -0.00035603 0)
(0.00102842 -0.000373162 0)
(0.000996737 -0.00039145 0)
(0.000966445 -0.000408935 0)
(0.000937661 -0.000426784 0)
(0.000910016 -0.000444199 0)
(0.000883601 -0.000461575 0)
(0.000858141 -0.000478572 0)
(0.000833647 -0.000495356 0)
(0.000809779 -0.000511757 0)
(0.000786596 -0.000527858 0)
(0.000763782 -0.000543607 0)
(0.000741295 -0.000559028 0)
(0.000718921 -0.000574173 0)
(0.000696489 -0.000589013 0)
(0.000673901 -0.000603715 0)
(0.000650855 -0.000618181 0)
(0.000627377 -0.00063272 0)
(0.000603019 -0.000647137 0)
(0.000577957 -0.000661935 0)
(0.0011521 -0.000284318 0)
(0.00112177 -0.000300497 0)
(0.00109233 -0.000317632 0)
(0.0010632 -0.000334525 0)
(0.00103634 -0.000351072 0)
(0.00100948 -0.00036779 0)
(0.000983983 -0.00038413 0)
(0.000958972 -0.000400485 0)
(0.000934833 -0.000416487 0)
(0.000911252 -0.000432429 0)
(0.000888278 -0.000447973 0)
(0.000865745 -0.000463456 0)
(0.000843568 -0.000478569 0)
(0.000821654 -0.000493651 0)
(0.000799843 -0.000508426 0)
(0.000778095 -0.000523264 0)
(0.000756196 -0.000537882 0)
(0.000734163 -0.00055274 0)
(0.000711734 -0.000567487 0)
(0.000688999 -0.00058275 0)
(0.00123696 -0.000232084 0)
(0.00120812 -0.000246522 0)
(0.0011806 -0.00026236 0)
(0.00115367 -0.000277153 0)
(0.00112749 -0.000292995 0)
(0.00110228 -0.000307867 0)
(0.0010774 -0.000323549 0)
(0.00105381 -0.000338372 0)
(0.0010308 -0.000353533 0)
(0.00100793 -0.000368482 0)
(0.000985893 -0.000383371 0)
(0.000964192 -0.000398127 0)
(0.000942982 -0.000412766 0)
(0.000922113 -0.000427372 0)
(0.000901527 -0.00044185 0)
(0.000881205 -0.000456439 0)
(0.000861022 -0.000470926 0)
(0.000841006 -0.000485726 0)
(0.000821036 -0.000500481 0)
(0.000801143 -0.000515828 0)
(0.00131526 -0.000189368 0)
(0.00128913 -0.000202225 0)
(0.0012641 -0.000216549 0)
(0.0012391 -0.000229976 0)
(0.00121506 -0.000244392 0)
(0.00119128 -0.000258157 0)
(0.0011683 -0.000272564 0)
(0.0011457 -0.000286515 0)
(0.0011238 -0.000300821 0)
(0.00110236 -0.00031481 0)
(0.00108148 -0.000329032 0)
(0.00106108 -0.000343048 0)
(0.00104116 -0.000357185 0)
(0.00102171 -0.000371266 0)
(0.00100267 -0.000385396 0)
(0.000984054 -0.000399646 0)
(0.000965841 -0.000413914 0)
(0.000948006 -0.000428515 0)
(0.000930598 -0.000443132 0)
(0.000913548 -0.000458349 0)
(0.00138979 -0.000159831 0)
(0.00136586 -0.000171326 0)
(0.00134282 -0.000184128 0)
(0.00131981 -0.000196233 0)
(0.00129747 -0.000209268 0)
(0.00127547 -0.00022181 0)
(0.00125403 -0.000234993 0)
(0.00123307 -0.00024785 0)
(0.00121267 -0.000261125 0)
(0.00119271 -0.000274213 0)
(0.00117335 -0.000287557 0)
(0.00115445 -0.000300845 0)
(0.00113614 -0.000314277 0)
(0.00111833 -0.000327782 0)
(0.00110111 -0.000341366 0)
(0.00108441 -0.000355164 0)
(0.00106834 -0.00036901 0)
(0.00105282 -0.000383241 0)
(0.00103803 -0.000397506 0)
(0.00102382 -0.000412369 0)
(0.00145955 -0.000137451 0)
(0.00143812 -0.000147766 0)
(0.00141727 -0.000159279 0)
(0.00139639 -0.00017026 0)
(0.00137609 -0.000182123 0)
(0.00135595 -0.000193647 0)
(0.00133637 -0.000205783 0)
(0.00131709 -0.00021774 0)
(0.00129838 -0.0002301 0)
(0.00128009 -0.000242402 0)
(0.00126237 -0.000254977 0)
(0.00124515 -0.000267589 0)
(0.00122854 -0.000280387 0)
(0.00121249 -0.000293319 0)
(0.00119711 -0.000306379 0)
(0.00118235 -0.000319684 0)
(0.00116836 -0.000333079 0)
(0.00115505 -0.000346853 0)
(0.00114267 -0.000360691 0)
(0.00113102 -0.000375076 0)
(0.00152707 -0.000123309 0)
(0.00150778 -0.00013271 0)
(0.00148885 -0.000143106 0)
(0.00146994 -0.000153166 0)
(0.00145145 -0.000163988 0)
(0.00143314 -0.000174614 0)
(0.00141529 -0.000185809 0)
(0.00139775 -0.00019692 0)
(0.00138073 -0.000208451 0)
(0.00136412 -0.000219989 0)
(0.00134808 -0.000231835 0)
(0.00133256 -0.000243769 0)
(0.00131767 -0.00025593 0)
(0.00130339 -0.000268257 0)
(0.00128984 -0.000280753 0)
(0.00127699 -0.000293504 0)
(0.00126499 -0.000306377 0)
(0.00125377 -0.00031961 0)
(0.00124362 -0.000332917 0)
(0.00123429 -0.000346719 0)
(0.00159169 -0.000113798 0)
(0.00157452 -0.000122492 0)
(0.00155748 -0.000132001 0)
(0.00154053 -0.000141346 0)
(0.00152386 -0.000151335 0)
(0.00150737 -0.000161264 0)
(0.00149128 -0.000171689 0)
(0.00147547 -0.000182141 0)
(0.00146014 -0.000192966 0)
(0.0014452 -0.000203892 0)
(0.00143083 -0.000215094 0)
(0.00141696 -0.000226464 0)
(0.00140375 -0.000238033 0)
(0.00139113 -0.000249835 0)
(0.00137931 -0.000261773 0)
(0.00136817 -0.000274013 0)
(0.00135798 -0.000286338 0)
(0.00134855 -0.000299028 0)
(0.0013403 -0.000311779 0)
(0.0013329 -0.000324967 0)
(0.00165521 -0.000109109 0)
(0.00163986 -0.00011727 0)
(0.00162449 -0.000126087 0)
(0.00160927 -0.000134862 0)
(0.00159425 -0.000144181 0)
(0.00157942 -0.000153523 0)
(0.00156492 -0.000163313 0)
(0.00155071 -0.000173175 0)
(0.00153695 -0.000183407 0)
(0.00152357 -0.00019375 0)
(0.00151074 -0.000204403 0)
(0.00149841 -0.000215194 0)
(0.00148673 -0.000226255 0)
(0.00147568 -0.00023747 0)
(0.00146535 -0.000248934 0)
(0.00145584 -0.000260557 0)
(0.0014471 -0.000272427 0)
(0.00143943 -0.000284447 0)
(0.00143285 -0.000296594 0)
(0.00142703 -0.000309139 0)
(0.0017171 -0.000107003 0)
(0.00170345 -0.000114772 0)
(0.00168962 -0.000123063 0)
(0.00167603 -0.000131415 0)
(0.00166252 -0.000140211 0)
(0.00164926 -0.00014911 0)
(0.00163624 -0.000158385 0)
(0.00162354 -0.000167795 0)
(0.00161121 -0.000177524 0)
(0.00159929 -0.00018741 0)
(0.00158787 -0.000197569 0)
(0.00157695 -0.000207899 0)
(0.00156665 -0.000218463 0)
(0.00155697 -0.000229211 0)
(0.00154802 -0.000240158 0)
(0.00153981 -0.000251301 0)
(0.00153249 -0.000262603 0)
(0.00152602 -0.000274132 0)
(0.00152061 -0.000285745 0)
(0.00151613 -0.000297622 0)
(0.00177858 -0.000107276 0)
(0.00176633 -0.000114764 0)
(0.00175389 -0.00012267 0)
(0.00174167 -0.000130681 0)
(0.00172952 -0.000139079 0)
(0.0017176 -0.000147604 0)
(0.00170591 -0.00015647 0)
(0.0016945 -0.000165485 0)
(0.00168346 -0.000174796 0)
(0.0016728 -0.000184272 0)
(0.00166262 -0.000194002 0)
(0.00165292 -0.000203908 0)
(0.0016438 -0.000214027 0)
(0.00163528 -0.000224331 0)
(0.00162748 -0.000234808 0)
(0.00162037 -0.000245474 0)
(0.00161413 -0.000256267 0)
(0.00160869 -0.000267257 0)
(0.00160431 -0.000278319 0)
(0.00160077 -0.000289588 0)
(0.00183913 -0.000108543 0)
(0.00182827 -0.000115807 0)
(0.00181692 -0.000123405 0)
(0.001806 -0.000131171 0)
(0.00179499 -0.000139238 0)
(0.00178429 -0.000147485 0)
(0.00177375 -0.000156005 0)
(0.00176351 -0.00016471 0)
(0.00175359 -0.000173661 0)
(0.00174404 -0.000182798 0)
(0.00173493 -0.000192152 0)
(0.00172627 -0.000201688 0)
(0.00171816 -0.000211412 0)
(0.00171061 -0.000221312 0)
(0.00170373 -0.000231362 0)
(0.0016975 -0.000241583 0)
(0.00169208 -0.00025191 0)
(0.0016874 -0.0002624 0)
(0.00168371 -0.000272944 0)
(0.00168081 -0.000283633 0)
(0.00189958 -0.000110328 0)
(0.00188967 -0.000117445 0)
(0.00187949 -0.00012485 0)
(0.00186954 -0.000132361 0)
(0.0018596 -0.000140181 0)
(0.0018499 -0.000148163 0)
(0.00184036 -0.000156402 0)
(0.00183109 -0.00016482 0)
(0.00182212 -0.000173464 0)
(0.00181348 -0.000182286 0)
(0.00180525 -0.000191309 0)
(0.00179745 -0.000200503 0)
(0.00179016 -0.000209868 0)
(0.00178337 -0.000219392 0)
(0.00177721 -0.000229053 0)
(0.00177164 -0.000238857 0)
(0.00176683 -0.000248756 0)
(0.00176268 -0.000258774 0)
(0.00175945 -0.000268844 0)
(0.00175694 -0.000279 0)
(0.00195947 -0.000111882 0)
(0.00195028 -0.000118806 0)
(0.0019411 -0.000125992 0)
(0.001932 -0.000133345 0)
(0.00192299 -0.00014094 0)
(0.00191413 -0.00014871 0)
(0.00190545 -0.000156705 0)
(0.00189701 -0.000164874 0)
(0.00188884 -0.00017325 0)
(0.00188098 -0.000181792 0)
(0.00187349 -0.000190522 0)
(0.00186637 -0.000199405 0)
(0.00185973 -0.000208451 0)
(0.00185354 -0.000217632 0)
(0.00184791 -0.000226944 0)
(0.00184281 -0.000236366 0)
(0.00183838 -0.000245877 0)
(0.00183455 -0.000255474 0)
(0.00183152 -0.000265113 0)
(0.00182915 -0.00027479 0)
(0.00201936 -0.000112501 0)
(0.00201102 -0.000119287 0)
(0.00200245 -0.000126302 0)
(0.00199412 -0.000133466 0)
(0.00198577 -0.000140866 0)
(0.00197764 -0.000148415 0)
(0.00196961 -0.000156188 0)
(0.00196185 -0.000164111 0)
(0.0019543 -0.00017224 0)
(0.00194704 -0.000180512 0)
(0.00194012 -0.000188975 0)
(0.00193354 -0.000197564 0)
(0.00192738 -0.000206322 0)
(0.0019216 -0.000215184 0)
(0.00191636 -0.000224187 0)
(0.00191151 -0.000233267 0)
(0.00190735 -0.000242442 0)
(0.00190365 -0.000251655 0)
(0.00190067 -0.000260926 0)
(0.00189823 -0.000270179 0)
(0.00207862 -0.000111765 0)
(0.00207085 -0.000118388 0)
(0.00206292 -0.000125209 0)
(0.00205516 -0.000132211 0)
(0.00204742 -0.000139388 0)
(0.00203986 -0.000146762 0)
(0.00203242 -0.000154291 0)
(0.00202519 -0.000162024 0)
(0.00201818 -0.000169895 0)
(0.00201143 -0.000177957 0)
(0.00200498 -0.000186135 0)
(0.00199882 -0.000194506 0)
(0.00199305 -0.000202962 0)
(0.00198759 -0.000211591 0)
(0.00198263 -0.00022028 0)
(0.00197794 -0.000229101 0)
(0.00197376 -0.000237986 0)
(0.00197011 -0.000246884 0)
(0.00196697 -0.000255838 0)
(0.0019643 -0.00026474 0)
(0.00213791 -0.00010876 0)
(0.00213062 -0.000115207 0)
(0.00212315 -0.000121871 0)
(0.00211589 -0.000128674 0)
(0.0021086 -0.000135697 0)
(0.00210153 -0.000142844 0)
(0.0020945 -0.000150222 0)
(0.00208778 -0.000157711 0)
(0.0020811 -0.00016542 0)
(0.00207466 -0.000173292 0)
(0.00206862 -0.000181241 0)
(0.00206276 -0.000189395 0)
(0.00205725 -0.000197617 0)
(0.00205204 -0.000206007 0)
(0.00204715 -0.000214456 0)
(0.00204266 -0.000223018 0)
(0.00203846 -0.000231633 0)
(0.00203466 -0.000240296 0)
(0.00203127 -0.000248979 0)
(0.00202824 -0.000257622 0)
(0.00219648 -0.000103411 0)
(0.00218958 -0.000109682 0)
(0.0021825 -0.000116166 0)
(0.00217562 -0.000122799 0)
(0.00216871 -0.000129646 0)
(0.002162 -0.000136625 0)
(0.00215542 -0.000143828 0)
(0.00214894 -0.000151143 0)
(0.00214273 -0.000158666 0)
(0.00213663 -0.000166302 0)
(0.00213083 -0.000174129 0)
(0.00212522 -0.000182042 0)
(0.00211992 -0.000190129 0)
(0.00211485 -0.000198283 0)
(0.00211009 -0.000206582 0)
(0.00210559 -0.000214922 0)
(0.00210139 -0.000223364 0)
(0.00209746 -0.000231819 0)
(0.0020938 -0.000240324 0)
(0.00209038 -0.000248773 0)
(0.00225503 -9.40266e-05 0)
(0.00224843 -0.000100189 0)
(0.00224167 -0.000106506 0)
(0.00223511 -0.000113079 0)
(0.00222849 -0.000119778 0)
(0.00222211 -0.000126715 0)
(0.00221578 -0.000133797 0)
(0.00220962 -0.000141117 0)
(0.00220362 -0.000148524 0)
(0.0021978 -0.000156154 0)
(0.00219221 -0.000163874 0)
(0.00218683 -0.000171771 0)
(0.00218168 -0.000179758 0)
(0.00217677 -0.000187874 0)
(0.00217208 -0.000196071 0)
(0.00216763 -0.000204348 0)
(0.00216336 -0.00021269 0)
(0.0021593 -0.000221062 0)
(0.00215537 -0.00022947 0)
(0.00215157 -0.000237847 0)
(0.00231295 -8.11608e-05 0)
(0.00230664 -8.71861e-05 0)
(0.00230016 -9.34023e-05 0)
(0.00229391 -9.99022e-05 0)
(0.00228741 -0.000106561 0)
(0.00228143 -0.000113491 0)
(0.0022757 -0.000120764 0)
(0.00226954 -0.000127978 0)
(0.00226386 -0.00013556 0)
(0.00225821 -0.000143163 0)
(0.00225282 -0.000151033 0)
(0.0022476 -0.000158942 0)
(0.00224261 -0.000167047 0)
(0.00223782 -0.000175185 0)
(0.00223323 -0.000183456 0)
(0.00222885 -0.000191746 0)
(0.00222463 -0.000200115 0)
(0.00222057 -0.000208481 0)
(0.0022166 -0.000216883 0)
(0.00221267 -0.000225262 0)
(4.08694e-05 -0.00111253 0)
(3.95089e-05 -0.001118 0)
(3.82512e-05 -0.00112326 0)
(3.69983e-05 -0.00112861 0)
(3.57931e-05 -0.0011338 0)
(3.45992e-05 -0.00113905 0)
(3.3418e-05 -0.00114419 0)
(3.22432e-05 -0.00114934 0)
(3.10581e-05 -0.00115441 0)
(2.98683e-05 -0.00115943 0)
(2.8651e-05 -0.0011644 0)
(2.74152e-05 -0.00116925 0)
(2.61365e-05 -0.00117407 0)
(2.48251e-05 -0.00117869 0)
(2.34541e-05 -0.00118328 0)
(2.20369e-05 -0.0011876 0)
(2.05397e-05 -0.00119187 0)
(1.89853e-05 -0.00119576 0)
(1.73237e-05 -0.00119961 0)
(1.5598e-05 -0.00120292 0)
(0.000124237 -0.00108841 0)
(0.000120165 -0.00109446 0)
(0.000116375 -0.00110033 0)
(0.000112636 -0.00110622 0)
(0.000109025 -0.00111199 0)
(0.000105474 -0.00111775 0)
(0.000101951 -0.00112342 0)
(9.84673e-05 -0.00112904 0)
(9.49469e-05 -0.00113461 0)
(9.14253e-05 -0.00114008 0)
(8.78182e-05 -0.00114552 0)
(8.41639e-05 -0.00115081 0)
(8.03789e-05 -0.00115606 0)
(7.65e-05 -0.00116111 0)
(7.24403e-05 -0.00116612 0)
(6.82436e-05 -0.00117084 0)
(6.38033e-05 -0.00117552 0)
(5.91905e-05 -0.00117981 0)
(5.42496e-05 -0.00118407 0)
(4.91129e-05 -0.00118777 0)
(0.000210391 -0.00104205 0)
(0.0002035 -0.0010492 0)
(0.000196985 -0.00105622 0)
(0.000190665 -0.00106314 0)
(0.000184495 -0.00106999 0)
(0.000178504 -0.00107672 0)
(0.000172524 -0.0010834 0)
(0.00016666 -0.00108994 0)
(0.000160717 -0.00109646 0)
(0.000154806 -0.00110281 0)
(0.000148744 -0.00110913 0)
(0.000142626 -0.00111526 0)
(0.000136286 -0.00112136 0)
(0.000129803 -0.00112721 0)
(0.000123016 -0.00113304 0)
(0.000116006 -0.00113855 0)
(0.000108587 -0.00114403 0)
(0.000100878 -0.0011491 0)
(9.26187e-05 -0.00115414 0)
(8.40213e-05 -0.00115864 0)
(0.00030198 -0.000976629 0)
(0.000292202 -0.000985258 0)
(0.000282762 -0.000993866 0)
(0.000273826 -0.0010022 0)
(0.000264983 -0.00101053 0)
(0.000256553 -0.00101857 0)
(0.000248073 -0.00102664 0)
(0.000239865 -0.00103442 0)
(0.000231512 -0.00104222 0)
(0.000223276 -0.00104974 0)
(0.000214815 -0.00105727 0)
(0.000206318 -0.00106451 0)
(0.000197508 -0.00107175 0)
(0.000188522 -0.00107868 0)
(0.000179112 -0.0010856 0)
(0.000169401 -0.00109216 0)
(0.00015912 -0.0010987 0)
(0.000148434 -0.00110482 0)
(0.000136977 -0.00111092 0)
(0.000125035 -0.00111648 0)
(0.000398716 -0.000896799 0)
(0.000385857 -0.000907156 0)
(0.000373122 -0.000917657 0)
(0.000361393 -0.000927633 0)
(0.000349592 -0.000937752 0)
(0.00033857 -0.000947364 0)
(0.000327384 -0.00095711 0)
(0.000316713 -0.000966378 0)
(0.000305819 -0.000975754 0)
(0.000295182 -0.000984689 0)
(0.000284258 -0.000993697 0)
(0.000273354 -0.0010023 0)
(0.000262065 -0.00101093 0)
(0.000250588 -0.00101917 0)
(0.000238585 -0.00102742 0)
(0.00022621 -0.00103526 0)
(0.000213111 -0.0010431 0)
(0.000199483 -0.00105049 0)
(0.000184861 -0.00105788 0)
(0.000169583 -0.00106476 0)
(0.00050216 -0.000806782 0)
(0.000486138 -0.000818929 0)
(0.000469848 -0.000831445 0)
(0.000455284 -0.000843133 0)
(0.000440407 -0.000855159 0)
(0.000426801 -0.000866388 0)
(0.000412905 -0.000877903 0)
(0.000399822 -0.000888695 0)
(0.000386461 -0.000899698 0)
(0.00037351 -0.000910076 0)
(0.000360241 -0.000920586 0)
(0.000347045 -0.000930563 0)
(0.000333429 -0.000940604 0)
(0.000319609 -0.000950183 0)
(0.000305197 -0.000959779 0)
(0.000290352 -0.000968949 0)
(0.000274672 -0.000978113 0)
(0.000258359 -0.000986856 0)
(0.000240888 -0.00099559 0)
(0.000222615 -0.00100388 0)
(0.000610016 -0.000712331 0)
(0.000590548 -0.00072619 0)
(0.000570271 -0.000740738 0)
(0.000552528 -0.000754127 0)
(0.000534221 -0.000768131 0)
(0.00051769 -0.000781043 0)
(0.000500838 -0.000794435 0)
(0.00048509 -0.000806874 0)
(0.000469147 -0.000819626 0)
(0.000453766 -0.00083159 0)
(0.000438172 -0.000843714 0)
(0.000422718 -0.000855201 0)
(0.00040691 -0.000866736 0)
(0.000390903 -0.000877752 0)
(0.000374305 -0.000888753 0)
(0.000357221 -0.000899315 0)
(0.000339223 -0.000909839 0)
(0.000320483 -0.000919977 0)
(0.000300413 -0.00093009 0)
(0.000279367 -0.000939844 0)
(0.000723577 -0.000616037 0)
(0.00070067 -0.000631322 0)
(0.000676479 -0.000647644 0)
(0.000655561 -0.000662471 0)
(0.000634053 -0.00067816 0)
(0.000614617 -0.000692504 0)
(0.000595038 -0.000707446 0)
(0.000576638 -0.000721302 0)
(0.000558261 -0.00073549 0)
(0.000540451 -0.000748847 0)
(0.000522614 -0.000762327 0)
(0.000504912 -0.000775176 0)
(0.000486984 -0.000788012 0)
(0.000468853 -0.00080036 0)
(0.000450194 -0.000812627 0)
(0.000431035 -0.000824511 0)
(0.000410966 -0.000836302 0)
(0.000390115 -0.000847795 0)
(0.000367893 -0.00085923 0)
(0.00034462 -0.000870454 0)
(0.000838184 -0.000524372 0)
(0.000811037 -0.000540906 0)
(0.000782653 -0.000558867 0)
(0.000757661 -0.000575204 0)
(0.000732662 -0.000592525 0)
(0.000709715 -0.000608498 0)
(0.000687289 -0.000624957 0)
(0.000666034 -0.000640387 0)
(0.000645331 -0.000655939 0)
(0.000625222 -0.000670718 0)
(0.000605438 -0.000685416 0)
(0.000585834 -0.000699533 0)
(0.000566211 -0.00071348 0)
(0.000546425 -0.000726991 0)
(0.000526217 -0.000740317 0)
(0.000505527 -0.000753331 0)
(0.000483959 -0.000766193 0)
(0.000461594 -0.000778866 0)
(0.000437824 -0.000791455 0)
(0.000412942 -0.000803996 0)
(0.000957262 -0.000435478 0)
(0.000926542 -0.00045228 0)
(0.000895285 -0.000470502 0)
(0.000866375 -0.000487588 0)
(0.000838432 -0.000505497 0)
(0.000811821 -0.000522622 0)
(0.000786419 -0.000540022 0)
(0.000761973 -0.000556838 0)
(0.000738509 -0.00057359 0)
(0.000715724 -0.000589843 0)
(0.00069357 -0.000605843 0)
(0.000671785 -0.000621399 0)
(0.00065021 -0.000636623 0)
(0.000628662 -0.000651471 0)
(0.000606858 -0.000665988 0)
(0.000584719 -0.000680237 0)
(0.000561819 -0.000694218 0)
(0.000538212 -0.000708099 0)
(0.000513286 -0.000721829 0)
(0.000487292 -0.000735711 0)
)
;

boundaryField
{
    back
    {
        type            empty;
    }
    left
    {
        type            symmetry;
    }
    hole
    {
        type            calculated;
        value           nonuniform List<vector> 
20
(
(7.19056e-05 -0.000933456 -4.73277e-21)
(0.000214912 -0.000923419 0)
(0.000355993 -0.000903951 -5.82845e-21)
(0.000493587 -0.000875504 -1.98347e-22)
(0.000626856 -0.000839917 9.56058e-22)
(0.000754508 -0.000797274 2.87557e-21)
(0.000875832 -0.000750758 -1.4101e-20)
(0.000990433 -0.000699003 -2.15966e-21)
(0.00109683 -0.000646517 1.04378e-20)
(0.00119662 -0.000590306 5.76463e-21)
(0.00128645 -0.000534983 -1.80394e-23)
(0.00137008 -0.000477856 4.1083e-22)
(0.00144325 -0.000421049 -5.03578e-21)
(0.00150902 -0.000364124 4.53236e-21)
(0.00156471 -0.000307309 -5.71016e-21)
(0.00161199 -0.000250992 1.16106e-21)
(0.0016495 -0.000194727 -1.27653e-21)
(0.001678 -0.000138993 -3.62256e-21)
(0.00169687 -8.32084e-05 2.90709e-21)
(0.0017064 -2.78046e-05 -3.5182e-21)
)
;
    }
    front
    {
        type            empty;
    }
    down
    {
        type            symmetry;
    }
    right
    {