/*--------------------------------*- C++ -*----------------------------------*\
| =========                 |                                                 |
| \\      /  F ield         | OpenFOAM: The Open Source CFD Toolbox           |
|  \\    /   O peration     | Version:  v2012                                 |
|   \\  /    A nd           | Website:  www.openfoam.com                      |
|    \\/     M anipulation  |                                                 |
\*---------------------------------------------------------------------------*/
FoamFile
{
    version     2.0;
    format      ascii;
    class       volScalarField;
    location    "5";
    object      epsilonEq;
}
// * * * * * * * * * * * * * * * * * * * * * * * * * * * * * * * * * * * * * //

dimensions      [0 0 0 0 0 0 0];


internalField   nonuniform List<scalar> 
1000
(
0.00291894
0.00249093
0.00215218
0.00190851
0.00171006
0.00156368
0.00144114
0.00134752
0.00126693
0.00120125
0.00284572
0.00243616
0.00211443
0.00188575
0.00170032
0.00156553
0.00145233
0.00136727
0.00129258
0.00123329
0.00270342
0.00232969
0.00204067
0.00184053
0.0016794
0.00156591
0.00146947
0.00139944
0.00133515
0.00128632
0.00250191
0.00217772
0.00193386
0.00177276
0.00164432
0.00155873
0.00148386
0.0014324
0.00138114
0.00134427
0.00225196
0.00198882
0.00179985
0.00168528
0.00159443
0.00154004
0.00148839
0.00145624
0.0014187
0.00139303
0.00196686
0.00177112
0.00164232
0.00157762
0.00152635
0.00150332
0.00147504
0.0014613
0.00143717
0.00142177
0.00166178
0.00153826
0.00147306
0.00145925
0.00144645
0.00145302
0.00144571
0.00144816
0.00143566
0.0014283
0.00134362
0.00129362
0.00129166
0.00132546
0.00134906
0.00138058
0.00139339
0.00140891
0.00140776
0.00140816
0.00103374
0.001058
0.00111853
0.00119595
0.00125123
0.00130411
0.00133294
0.00135932
0.00136757
0.00137194
0.000725344
0.000827718
0.000946776
0.00105888
0.00114172
0.00120597
0.00125306
0.00127998
0.00130743
0.00130803
0.000449868
0.000631499
0.000799937
0.000936997
0.00103819
0.00111241
0.00116786
0.00120296
0.00123149
0.00125079
0.000218134
0.000485167
0.000680801
0.000833933
0.000940149
0.00102465
0.00107732
0.00112472
0.00114034
0.00117533
0.000205687
0.000415532
0.00059138
0.000737222
0.000836738
0.000920078
0.000968436
0.00101784
0.00102893
0.00106633
0.000386996
0.000442413
0.000548939
0.000666181
0.000746155
0.000822249
0.00086124
0.000909967
0.000916692
0.000954729
0.000575189
0.000523178
0.000543523
0.000612075
0.00066288
0.000723197
0.000751112
0.00079448
0.00079758
0.000832602
0.000740622
0.000620595
0.000567767
0.000579923
0.000594502
0.000631379
0.000645719
0.000678919
0.000679196
0.000707794
0.000877166
0.00071083
0.000603438
0.000562205
0.000538017
0.000545149
0.000542624
0.000560981
0.000556643
0.000576017
0.000981112
0.000784064
0.000639646
0.000556046
0.000496718
0.000471668
0.000450156
0.000449365
0.000439324
0.000446479
0.00105156
0.000834964
0.000667289
0.000554704
0.000468517
0.000414483
0.000373476
0.000350837
0.000332844
0.000324909
0.0010869
0.000860989
0.00068228
0.000555294
0.000454825
0.000383215
0.00032879
0.00028877
0.000263359
0.000240917
0.000231798
0.000317343
0.00043951
0.000566945
0.000695681
0.000813373
0.000929536
0.0010315
0.00113821
0.00123465
0.000232574
0.000308138
0.000419875
0.00053841
0.000660731
0.000772319
0.0008806
0.000970093
0.0010523
0.00112728
0.000244905
0.00030709
0.000402839
0.000507515
0.000616866
0.000721979
0.000825783
0.000925063
0.00100996
0.0010876
0.000275463
0.000325723
0.000406647
0.000499009
0.000594349
0.000686818
0.000771708
0.000856431
0.00092764
0.00100671
0.000298505
0.000338059
0.000403968
0.000484654
0.000569358
0.000658228
0.000739249
0.000823368
0.000888926
0.000956264
0.000332506
0.000363957
0.000417143
0.000484998
0.000555325
0.00063121
0.000699314
0.000774025
0.000835397
0.000901084
0.000360911
0.000386036
0.000429437
0.000488019
0.000550061
0.000619544
0.000682084
0.00074964
0.000804738
0.000862122
0.00039195
0.000411832
0.00044646
0.000494522
0.00054599
0.000605076
0.000659759
0.000720134
0.000771783
0.000825138
0.000421274
0.000437447
0.000466137
0.000506876
0.000551615
0.0006032
0.000651918
0.000704625
0.000750963
0.000798229
0.000448457
0.00046133
0.000484493
0.0005178
0.000555342
0.000599163
0.000642034
0.000688644
0.000730924
0.000773791
0.000475254
0.000485812
0.000505146
0.000532996
0.000565154
0.00060244
0.000639928
0.000680012
0.000717766
0.000755522
0.00049802
0.000506532
0.000522391
0.000545289
0.000572459
0.000604034
0.000636768
0.000671684
0.00070523
0.000738943
0.000519754
0.000526765
0.000539994
0.000559045
0.000582032
0.000608653
0.000636816
0.00066657
0.000696261
0.000724635
0.000536794
0.000542531
0.00055347
0.000569282
0.000588643
0.000611214
0.000635439
0.000661177
0.000687254
0.000712535
0.000551118
0.000555875
0.000565043
0.000578234
0.000594615
0.000613629
0.000634364
0.000656306
0.000678752
0.000700979
0.000560278
0.000564238
0.000571922
0.000583006
0.000596913
0.000613106
0.000630987
0.000649842
0.000669504
0.000688538
0.000564123
0.000567512
0.000574138
0.000583686
0.000595771
0.000609881
0.000625536
0.000642205
0.00065941
0.000676569
0.000562041
0.00056501
0.000570851
0.000579288
0.000590067
0.000602706
0.000616869
0.000631986
0.000647751
0.000663404
0.000550682
0.000553501
0.000559094
0.000567193
0.000577698
0.000590055
0.000604211
0.000619262
0.000635439
0.00065118
0.000532157
0.00053503
0.000540758
0.000549117
0.000560082
0.0005731
0.000588265
0.000604493
0.000622266
0.000639663
0.00127972
0.00126549
0.00128185
0.0012804
0.00128979
0.00128893
0.00128968
0.00128631
0.00128216
0.00127604
0.00126979
0.00126275
0.00125678
0.00125129
0.00124856
0.0012478
0.00125215
0.00126031
0.00127674
0.00129919
0.00118568
0.00120117
0.00121652
0.00122309
0.00122776
0.00123324
0.00123355
0.00123659
0.0012377
0.00123669
0.00123669
0.00123707
0.00123863
0.00124189
0.00124765
0.00125612
0.00126911
0.00128591
0.00130989
0.00133889
0.0011216
0.00113219
0.0011454
0.00115586
0.00116275
0.00116925
0.00117542
0.0011802
0.00118575
0.00119043
0.00119626
0.00120212
0.00121004
0.00121892
0.00123105
0.00124514
0.00126404
0.00128587
0.00131448
0.00134689
0.00104916
0.0010664
0.00108313
0.00109408
0.00110732
0.00111579
0.00112752
0.00113384
0.0011421
0.00115103
0.0011608
0.00117034
0.00118249
0.00119484
0.0012109
0.00122795
0.00124982
0.0012735
0.00130333
0.0013357
0.00099288
0.00101046
0.00102578
0.00103924
0.00105244
0.00106372
0.00107585
0.00108609
0.00109805
0.00110862
0.00112121
0.0011332
0.00114765
0.00116226
0.00117996
0.0011985
0.00122096
0.00124485
0.00127369
0.00130447
0.000938965
0.000957728
0.00097491
0.000990024
0.00100556
0.0010186
0.00103286
0.00104493
0.00105827
0.00107075
0.00108446
0.00109796
0.00111313
0.00112859
0.00114628
0.00116473
0.0011861
0.00120862
0.00123498
0.00126258
0.00089782
0.000915898
0.000932696
0.00094841
0.000963724
0.000977825
0.000992141
0.00100537
0.00101926
0.00103237
0.0010465
0.00106021
0.00107532
0.00109037
0.00110729
0.00112442
0.00114403
0.00116399
0.00118722
0.00121109
0.000860267
0.000877721
0.000894934
0.000910927
0.000926671
0.000941183
0.000955829
0.000969375
0.000983359
0.000996504
0.00101037
0.00102366
0.00103796
0.00105199
0.00106722
0.0010827
0.00109919
0.00111708
0.00113677
0.00115641
0.000831036
0.000847333
0.000863774
0.000879244
0.000894239
0.000908446
0.000922353
0.000935616
0.000948771
0.000961479
0.000974226
0.000986808
0.000999505
0.00101243
0.00102545
0.00103922
0.00105295
0.0010666
0.00108303
0.00109946
0.000804825
0.00081979
0.000835725
0.000850362
0.000864829
0.000878352
0.000891613
0.000904175
0.000916493
0.000928298
0.00093995
0.000951231
0.00096253
0.000973508
0.000984861
0.000995695
0.00100772
0.00101839
0.00103012
0.00104235
0.000783694
0.000797876
0.000812016
0.000825665
0.000838835
0.000851342
0.000863492
0.00087498
0.000886184
0.000896769
0.000907153
0.000916955
0.000926667
0.000935811
0.000945024
0.000953645
0.00096256
0.000970819
0.000979685
0.0009881
0.000764174
0.000776663
0.000790694
0.000802516
0.000814876
0.000826118
0.000837201
0.000847578
0.000857583
0.000866989
0.000876033
0.000884456
0.000892605
0.000900057
0.000907368
0.000913892
0.000920397
0.000926139
0.000931756
0.000937033
0.000748363
0.000763051
0.000770968
0.000781213
0.000792787
0.000802688
0.000812777
0.000821915
0.000830807
0.000838982
0.000846784
0.000853877
0.000860589
0.000866518
0.000872071
0.000876795
0.000881036
0.000884632
0.000887612
0.000890049
0.000733104
0.000742165
0.000752507
0.000762492
0.000772062
0.000781156
0.000789802
0.000797979
0.00080563
0.000812704
0.000819382
0.000825333
0.000830817
0.000835467
0.000839608
0.000842644
0.000845384
0.000847032
0.000847792
0.000847809
0.000718189
0.000727065
0.000735794
0.000744349
0.00075265
0.000760514
0.000768127
0.000775224
0.000781936
0.000788178
0.000793917
0.000799042
0.000803646
0.00080737
0.000810736
0.000812573
0.000813472
0.000813993
0.000812954
0.00081094
0.000703661
0.000710792
0.000719036
0.000726354
0.000733892
0.000740872
0.000747669
0.000754328
0.000760035
0.000765195
0.000770683
0.000775178
0.000779182
0.000782577
0.000784841
0.000784665
0.000786708
0.000786113
0.000783645
0.000780044
0.0006895
0.000696105
0.000703144
0.000709902
0.00071638
0.000722832
0.000729099
0.000734819
0.000739715
0.000745416
0.000750017
0.000754269
0.000757702
0.000760886
0.000762622
0.000764438
0.000764732
0.000763614
0.000760702
0.000756561
0.000675199
0.000681394
0.000687941
0.000694291
0.000700344
0.000706359
0.000712371
0.000717512
0.000723144
0.000728437
0.000732606
0.000736825
0.00074035
0.000743368
0.000745719
0.000746993
0.000747606
0.000746815
0.000744202
0.000740011
0.000663224
0.000669601
0.000676324
0.000682821
0.000688106
0.000695014
0.000702651
0.000707084
0.000712417
0.000717346
0.000721696
0.000725956
0.000729382
0.000732633
0.000734932
0.000736865
0.000737719
0.00073778
0.000736404
0.00073375
0.000652868
0.000660246
0.000667834
0.000675142
0.000681375
0.000690555
0.000698024
0.000702211
0.0007089
0.000713502
0.000718602
0.00072251
0.000726304
0.00072914
0.000731665
0.000733308
0.000734575
0.00073503
0.000735014
0.000734148
0.00115723
0.00112875
0.00110173
0.00107586
0.00104996
0.00102514
0.000999369
0.000974287
0.000947609
0.000921081
0.000892397
0.000863293
0.000831413
0.000798588
0.000762197
0.00072443
0.000682038
0.000637991
0.000587876
0.000536026
0.00119129
0.00116325
0.00113637
0.00111048
0.00108426
0.00105913
0.00103278
0.00100718
0.000979817
0.000952669
0.000923296
0.000893558
0.000861084
0.000827706
0.000790915
0.000752797
0.000710348
0.000666364
0.00061683
0.000565719
0.001248
0.0012216
0.0011951
0.00116982
0.00114332
0.00111825
0.00109128
0.00106537
0.00103727
0.00100959
0.000979526
0.000949203
0.000916225
0.000882397
0.000845488
0.000807335
0.000765489
0.000722364
0.000674775
0.000625965
0.00131074
0.00128811
0.00126214
0.0012386
0.00121184
0.00118749
0.00115987
0.00113397
0.00110515
0.00107712
0.00104652
0.00101583
0.000982714
0.000948836
0.000912441
0.000874909
0.000834571
0.000793231
0.000748765
0.000703413
0.00136498
0.00134861
0.00132381
0.00130402
0.00127803
0.00125622
0.00122936
0.0012051
0.00117713
0.00115015
0.0011205
0.00109058
0.00105862
0.00102565
0.000990931
0.000955011
0.000917517
0.000879384
0.000840042
0.000800538
0.00139919
0.00139128
0.00136791
0.00135294
0.00132789
0.00130872
0.0012828
0.00125989
0.0012332
0.00120725
0.00117946
0.00115102
0.00112175
0.00109122
0.00106027
0.00102816
0.00099592
0.000963402
0.00093133
0.00089968
0.00141125
0.00141331
0.00139347
0.00138524
0.0013647
0.00135018
0.00132902
0.00130925
0.00128675
0.001263
0.00123865
0.00121211
0.0011859
0.00115765
0.00113015
0.00110143
0.00107401
0.00104692
0.00102233
0.00099953
0.00139563
0.00140642
0.00139048
0.00138536
0.00136927
0.00135579
0.00133964
0.00132148
0.00130436
0.00128374
0.00126503
0.00124299
0.00122275
0.00120017
0.00117937
0.00115767
0.00113841
0.0011203
0.00110621
0.00109521
0.00136733
0.00138632
0.00138475
0.0013834
0.00137911
0.00136734
0.00135774
0.00134065
0.00132642
0.00130694
0.00129007
0.00127016
0.00125255
0.00123365
0.0012172
0.00120104
0.00118821
0.00117755
0.00117211
0.00117104
0.00131043
0.00132272
0.00133662
0.00133906
0.00134739
0.00134415
0.00134408
0.00133601
0.00132897
0.00131669
0.00130494
0.00129037
0.00127675
0.00126232
0.00125007
0.00123897
0.0012322
0.00122892
0.00123323
0.00124403
)
;

boundaryField
{
    back
    {
        type            empty;
    }
    left
    {
        type            symmetry;
    }
    hole
    {
        type            calculated;
        value           nonuniform List<scalar> 
20
(
0.00295847
0.00288344
0.00273763
0.00253133
0.0022753
0.00198368
0.00167093
0.00134521
0.00102567
0.000706244
0.000412083
0.00012668
0.000131814
0.000366199
0.000571437
0.000745274
0.000887046
0.000994259
0.00106672
0.00110302
)
;
    }
    front
    {
        type            empty;
    }
    down
    {
        type            symmetry;
    }
    right
    {
        type            calculated;
        value           nonuniform List<scalar> 
30
(
0.000531958
0.000534806
0.000540464
0.000548761
0.000559611
0.000572571
0.000587619
0.000603838
0.000621537
0.000639028
0.000652229
0.000659738
0.000667526
0.000674808
0.000681908
0.000689451
0.00069683
0.000701983
0.000708464
0.000713278
0.000718416
0.000722346
0.000726192
0.000729012
0.000731561
0.0007332
0.000734508
0.000735051
0.000735273
0.000734896
)
;
    }
    up
    {
        type            calculated;
        value           nonuniform List<scalar> 
30
(
0.00129934
0.0013391
0.00134722
0.00133603
0.00130475
0.00126279
0.00121122
0.00115639
0.00109934
0.00104243
0.000988047
0.000936958
0.000889969
0.000847707
0.000810893
0.000780014
0.000756438
0.00073997
0.000733718
0.000734151
0.000535553
0.000565181
0.000625359
0.000702735
0.000799868
0.000899034
0.000998977
0.00109475
0.00117076
0.00124384
)
;
    }
}


// ************************************************************************* //
