/*--------------------------------*- C++ -*----------------------------------*\
| =========                 |                                                 |
| \\      /  F ield         | OpenFOAM: The Open Source CFD Toolbox           |
|  \\    /   O peration     | Version:  v2012                                 |
|   \\  /    A nd           | Website:  www.openfoam.com                      |
|    \\/     M anipulation  |                                                 |
\*---------------------------------------------------------------------------*/
FoamFile
{
    version     2.0;
    format      ascii;
    class       volSymmTensorField;
    location    "5";
    object      epsilon;
}
// * * * * * * * * * * * * * * * * * * * * * * * * * * * * * * * * * * * * * //

dimensions      [0 0 0 0 0 0 0];


internalField   nonuniform List<symmTensor> 
1000
(
(0.00348908 -0.000171213 -3.7939e-20 -0.00141019 -9.72515e-20 5.42222e-35)
(0.00303114 -0.00010977 -2.82885e-19 -0.00113652 -1.75085e-19 0)
(0.00266898 -6.54949e-05 -1.85836e-19 -0.000916336 1.08594e-19 0)
(0.00239187 -3.22579e-05 1.80831e-19 -0.000779303 1.73303e-20 0)
(0.00216753 -7.93701e-06 1.57092e-19 -0.000664329 1.67278e-20 0)
(0.00198915 1.06799e-05 1.21133e-20 -0.000597166 8.18658e-20 0)
(0.00184154 2.42109e-05 -1.23272e-19 -0.000537928 -1.55435e-20 0)
(0.00171857 3.48245e-05 -1.58327e-20 -0.000507036 -1.38628e-19 0)
(0.00161456 4.19706e-05 -1.13945e-19 -0.000477679 -1.44913e-19 0)
(0.00152204 4.80633e-05 1.1942e-20 -0.000464701 8.53521e-20 0)
(0.00335498 -0.000497169 0 -0.00132872 0 0)
(0.00294067 -0.000320298 2.56503e-19 -0.00109092 5.22475e-20 0)
(0.00260961 -0.000192635 -2.83025e-19 -0.000895294 -1.5727e-19 0)
(0.0023551 -9.64072e-05 6.69125e-20 -0.000775236 -1.55608e-19 0)
(0.00214704 -2.58892e-05 4.31428e-20 -0.000671639 8.05899e-20 0)
(0.00198097 2.83453e-05 1.05921e-19 -0.000612307 2.26588e-19 0)
(0.00184212 6.78642e-05 -1.24782e-19 -0.000557777 -4.01561e-20 0)
(0.00172639 9.89633e-05 1.81097e-19 -0.00053019 -4.49238e-20 0)
(0.0016271 0.000120166 -1.40869e-19 -0.000501871 -1.5763e-19 0)
(0.00153955 0.000138031 -1.63555e-20 -0.000490161 -5.81933e-20 0)
(0.0030997 -0.00077638 -6.5843e-20 -0.00117589 -1.10003e-19 1.32128e-34)
(0.00276684 -0.000506284 2.39068e-19 -0.00100432 5.94508e-20 0)
(0.00249401 -0.000310046 5.48973e-19 -0.000854504 2.40926e-19 0)
(0.00228217 -0.000161452 -9.16669e-20 -0.000766143 -8.25926e-20 0)
(0.00210482 -5.18306e-05 -8.82795e-20 -0.00068398 2.07886e-21 0)
(0.00196222 3.26635e-05 4.04867e-19 -0.000639453 2.6546e-19 0)
(0.00184007 9.4846e-05 1.69126e-19 -0.000593963 2.07535e-20 0)
(0.00173816 0.000143546 4.17454e-20 -0.000572711 -4.5969e-20 0)
(0.0016481 0.000177729 2.21594e-25 -0.000546704 3.59281e-25 0)
(0.00156973 0.000205551 -1.24474e-19 -0.000537292 -1.09221e-19 0)
(0.00274985 -0.000984977 -1.13366e-20 -0.000970753 -1.07161e-21 1.10977e-37)
(0.00252379 -0.000653654 -4.4125e-19 -0.000885578 -1.72638e-19 0)
(0.00232839 -0.000410774 2.04405e-19 -0.000795986 8.76543e-20 0)
(0.00217383 -0.000225431 3.11978e-19 -0.000750037 1.53882e-19 0)
(0.00203837 -8.74356e-05 -9.58707e-20 -0.000696728 -5.10242e-20 0)
(0.00192782 1.95544e-05 -5.90791e-21 -0.000672601 -3.66208e-21 0)
(0.00182903 9.93314e-05 1.9172e-19 -0.000639678 1.25595e-19 0)
(0.00174604 0.000161758 -1.21982e-19 -0.000627467 -8.29345e-20 0)
(0.0016694 0.000207111 -1.13229e-19 -0.000605143 -8.13012e-20 0)
(0.0016031 0.000242885 -1.03227e-19 -0.000598983 -7.74014e-20 0)
(0.00233705 -0.00110746 -9.44645e-21 -0.000737961 3.28369e-20 -1.04396e-35)
(0.00223074 -0.000752164 -2.33834e-19 -0.000747505 -4.39128e-20 0)
(0.00212301 -0.000488358 -1.76433e-19 -0.00072537 -3.41311e-20 0)
(0.00203434 -0.000285291 -6.15482e-21 -0.000727056 -1.39319e-21 0)
(0.00194725 -0.000131943 2.29536e-19 -0.000706831 5.58452e-20 0)
(0.00187444 -1.26964e-05 -5.94462e-20 -0.00070618 -7.7068e-20 0)
(0.00180321 7.80928e-05 7.29893e-20 -0.00068819 7.95667e-20 0)
(0.00174273 0.000148501 -2.60378e-19 -0.000686649 -1.97723e-19 0)
(0.00168266 0.000202012 1.62736e-21 -0.000669506 7.32228e-22 0)
(0.00163012 0.000242648 -1.48914e-19 -0.00066704 -1.12316e-19 0)
(0.0018974 -0.00113979 2.71311e-19 -0.000502765 -5.9489e-20 2.97763e-35)
(0.00190746 -0.000797525 4.3201e-24 -0.000602213 -1.54051e-26 0)
(0.0018875 -0.000538946 4.32801e-19 -0.00064538 2.43451e-19 0)
(0.00186556 -0.000337861 -4.26506e-19 -0.000694289 -3.61233e-19 0)
(0.00182928 -0.000183063 0 -0.000707602 0 0)
(0.00179587 -6.20814e-05 5.76792e-20 -0.000731338 1.10572e-19 0)
(0.00175502 3.24167e-05 4.49652e-19 -0.000729408 2.31841e-19 0)
(0.00171842 0.000105483 2.03797e-19 -0.00073972 1.14062e-19 0)
(0.00167734 0.00016346 7.38617e-20 -0.000728814 9.8296e-20 0)
(0.00163921 0.000206865 -2.94926e-19 -0.000731074 -2.0968e-19 0)
(0.00146682 -0.0010874 -7.15786e-19 -0.000292487 7.25967e-20 1.5793e-34)
(0.0015806 -0.000788851 -8.04617e-19 -0.000468065 1.39408e-19 0)
(0.00163994 -0.000558504 -2.17714e-20 -0.000569073 -3.29961e-19 0)
(0.00167999 -0.00037708 1.53238e-19 -0.000659292 -1.84999e-19 0)
(0.00169101 -0.000233706 -6.33533e-19 -0.000703379 -2.03399e-19 0)
(0.0016956 -0.000121685 -2.73107e-19 -0.000748953 -1.04058e-19 0)
(0.00168378 -3.06545e-05 -3.90405e-19 -0.000762332 -2.18059e-19 0)
(0.00167085 3.81995e-05 5.92492e-20 -0.000783347 -9.80164e-21 0)
(0.00164872 9.64815e-05 1.04257e-19 -0.000779024 -2.1092e-20 0)
(0.00162467 0.000138643 1.65524e-19 -0.000785394 4.3426e-20 0)
(0.00106985 -0.000960847 -3.09802e-19 -0.000123719 1.53207e-19 2.47776e-35)
(0.0012629 -0.000730795 -4.4745e-24 -0.00035185 1.50666e-24 0)
(0.00138708 -0.000547044 2.42194e-19 -0.000495184 -8.23836e-20 0)
(0.00147751 -0.000400377 7.59041e-19 -0.00061576 3.30207e-19 0)
(0.00153087 -0.000279843 1.10906e-20 -0.000684509 -3.87536e-21 0)
(0.00156741 -0.000185692 -1.03261e-19 -0.000746822 3.62419e-20 0)
(0.00158418 -0.000105362 2.47088e-19 -0.000774089 8.06302e-20 0)
(0.00159174 -4.53544e-05 -5.90685e-20 -0.000804105 2.36164e-20 0)
(0.00158941 8.48373e-06 -1.85826e-19 -0.000806582 -8.15404e-20 0)
(0.0015788 4.7786e-05 1.65425e-19 -0.00081847 8.05624e-20 0)
(0.000735544 -0.000785659 3.66382e-20 -1.54134e-05 2.46414e-19 -1.13919e-34)
(0.000982619 -0.000635271 -5.34901e-19 -0.000272712 5.12852e-19 0)
(0.0011514 -0.00051053 -2.14941e-20 -0.000443524 2.45985e-19 0)
(0.00127957 -0.000407025 7.0662e-19 -0.000582174 9.31401e-20 0)
(0.0013638 -0.000318146 3.03058e-19 -0.000668636 5.86407e-20 0)
(0.00142665 -0.000247805 -4.40406e-20 -0.000741276 2.30493e-19 0)
(0.00146504 -0.000183484 6.53145e-20 -0.000779737 1.65382e-19 0)
(0.00149075 -0.000137588 4.79302e-19 -0.000814709 1.00294e-19 0)
(0.00150461 -9.03623e-05 -8.60724e-20 -0.000824305 -1.38485e-19 0)
(0.00150457 -6.04564e-05 2.1743e-19 -0.000837128 2.25137e-19 0)
(0.00046836 -0.000570603 1.10524e-19 2.80361e-05 6.3712e-20 -6.48171e-36)
(0.000740197 -0.000506768 2.21109e-19 -0.000230028 -1.52411e-19 0)
(0.000934875 -0.000445838 -1.85986e-19 -0.000407238 -1.35434e-19 0)
(0.00108303 -0.000390448 -3.83971e-20 -0.000547378 -2.25019e-19 0)
(0.00119011 -0.000337812 -5.09906e-20 -0.000641204 -2.06359e-19 0)
(0.00126624 -0.000293717 -9.6688e-20 -0.000712611 7.16672e-20 0)
(0.00132618 -0.000251099 -3.05378e-19 -0.000759809 -2.14845e-19 0)
(0.00135873 -0.000217549 -8.4463e-20 -0.000790221 -1.51836e-19 0)
(0.00139598 -0.000186493 -3.16795e-19 -0.000812042 -1.45321e-19 0)
(0.00139925 -0.000157242 -6.26445e-20 -0.000819271 7.56813e-20 0)
(0.0002808 -0.000355085 6.22511e-21 6.37153e-06 -5.20857e-21 -4.94977e-39)
(0.000552418 -0.000370285 -5.96257e-19 -0.000230814 -6.88608e-20 0)
(0.00074795 -0.000376012 1.84947e-19 -0.000398064 1.23709e-19 0)
(0.000904029 -0.000365582 9.30562e-20 -0.000528555 -3.59063e-19 0)
(0.00101517 -0.000356851 3.43659e-19 -0.000619439 2.133e-19 0)
(0.00110334 -0.000334911 -2.47344e-19 -0.00068719 -1.90212e-20 0)
(0.00116511 -0.000324444 -1.51904e-19 -0.000734579 -9.57613e-20 0)
(0.00121484 -0.000295069 1.20248e-20 -0.0007666 -2.61289e-19 0)
(0.00124622 -0.000290857 1.3704e-19 -0.000788869 8.21379e-20 0)
(0.00128348 -0.000264786 -9.13639e-21 -0.000798497 1.9816e-19 0)
(0.000168644 -0.000139245 3.94011e-19 -8.16954e-05 -4.86053e-19 9.19917e-36)
(0.000421208 -0.000227645 7.83302e-21 -0.000280407 -9.21515e-21 0)
(0.000602656 -0.000289811 -4.99479e-19 -0.000418733 -5.90468e-20 0)
(0.000755157 -0.000323057 -1.71565e-19 -0.000530141 -1.04079e-19 0)
(0.000860679 -0.000348128 2.48313e-19 -0.000603863 -2.11738e-21 0)
(0.000955015 -0.000352533 3.01215e-19 -0.000665041 -9.05685e-20 0)
(0.00101217 -0.000360797 2.20842e-21 -0.000699118 -2.84747e-21 0)
(0.00107508 -0.000348288 -1.77254e-19 -0.000733468 -2.127e-20 0)
(0.00109612 -0.00034987 1.87842e-19 -0.000739389 2.68476e-19 0)
(0.00115073 -0.000343214 -1.52365e-19 -0.000751899 -8.63038e-20 0)
(0.000121734 4.62204e-05 -7.52491e-20 -0.000217823 -7.51222e-20 -1.40866e-36)
(0.000333779 -9.85836e-05 2.92917e-19 -0.000358265 -8.2604e-20 0)
(0.000483275 -0.00020612 -4.40016e-20 -0.000454259 -2.82611e-19 0)
(0.000618666 -0.000274033 -2.42957e-19 -0.000533594 3.54438e-20 0)
(0.00070814 -0.000326819 -2.95613e-19 -0.000583354 1.33007e-19 0)
(0.000798251 -0.000353234 1.38587e-19 -0.000626786 8.86743e-20 0)
(0.000847107 -0.000377145 2.26366e-19 -0.000646632 -7.85153e-20 0)
(0.000912907 -0.000381059 2.87478e-19 -0.000670637 7.64162e-20 0)
(0.000929182 -0.00038888 -2.45179e-20 -0.000667159 5.53125e-20 0)
(0.000986433 -0.000399202 -1.30252e-19 -0.000668908 -1.44086e-20 0)
(0.000133049 0.000193092 6.68933e-20 -0.000393739 7.26933e-20 1.26794e-36)
(0.000292159 8.21164e-06 -1.49319e-19 -0.000467248 -1.05381e-19 0)
(0.000400774 -0.000130007 2.23241e-19 -0.000511533 -6.18496e-20 0)
(0.000509515 -0.000224861 1.42192e-19 -0.000552802 8.52813e-20 0)
(0.000576598 -0.000296747 -5.42459e-20 -0.000571444 1.1093e-19 0)
(0.000654819 -0.000342173 -3.8873e-19 -0.000593661 -2.1637e-19 0)
(0.000691598 -0.000376815 9.02638e-20 -0.00059452 1.42285e-19 0)
(0.000753469 -0.000395759 1.15518e-19 -0.000606845 6.47528e-20 0)
(0.000765061 -0.000407994 -9.45987e-20 -0.00059336 -1.09243e-19 0)
(0.000819295 -0.000429833 -9.5294e-20 -0.000586942 -9.81199e-20 0)
(0.000184872 0.000290298 1.06326e-19 -0.000590164 -5.13132e-19 -1.26235e-34)
(0.000282342 8.60788e-05 5.83475e-20 -0.000589475 -1.94272e-19 0)
(0.000343987 -6.67093e-05 7.70024e-20 -0.000578068 2.38817e-19 0)
(0.000419523 -0.000176674 2.4613e-19 -0.000575916 1.57701e-19 0)
(0.000461543 -0.000258071 1.88999e-19 -0.000562388 -1.4046e-19 0)
(0.000522236 -0.000316194 9.10164e-20 -0.000558819 1.39542e-19 0)
(0.000547051 -0.000356063 6.72012e-20 -0.000541699 2.02421e-19 0)
(0.000599406 -0.000386738 3.41362e-20 -0.000538171 -1.80767e-19 0)
(0.000608031 -0.000400458 -9.71784e-20 -0.000516305 -4.87408e-20 0)
(0.000654357 -0.000429537 -3.97764e-20 -0.000500538 4.51381e-20 0)
(0.000262657 0.000333575 -4.32813e-20 -0.000789874 1.7951e-19 -1.23526e-35)
(0.000297076 0.000130737 6.12813e-20 -0.000716965 4.31373e-19 0)
(0.000311895 -2.07587e-05 8.24075e-20 -0.000650934 2.20968e-19 0)
(0.000351654 -0.000133378 -7.9115e-22 -0.000605572 4.71152e-21 0)
(0.000368517 -0.000215344 -1.01267e-19 -0.000560222 -5.51002e-20 0)
(0.000408688 -0.000278 9.54407e-20 -0.000530378 6.05651e-20 0)
(0.000422088 -0.000318685 -9.20691e-20 -0.000495954 -4.54213e-20 0)
(0.000461829 -0.000354871 9.12432e-20 -0.000475718 -6.22771e-20 0)
(0.000468999 -0.000369107 8.2172e-20 -0.000446859 -7.83232e-21 0)
(0.000505512 -0.000400131 6.43633e-21 -0.000421942 3.65459e-20 0)
(0.000349097 0.00032475 1.29895e-20 -0.000975846 -1.43462e-19 -1.32176e-35)
(0.000324418 0.000142914 -1.66699e-19 -0.000836125 -1.81759e-19 0)
(0.000295657 7.65597e-06 -1.67281e-19 -0.000720257 -1.48212e-19 0)
(0.000300978 -9.52903e-05 -8.34329e-20 -0.000634358 -2.48429e-19 0)
(0.000294451 -0.000169 -1.58756e-19 -0.000560292 -1.85753e-19 0)
(0.000313993 -0.000228139 -1.52488e-19 -0.000505263 -3.02296e-20 0)
(0.000316844 -0.000264797 7.84617e-20 -0.000455456 1.41954e-19 0)
(0.00034318 -0.000300623 -7.69039e-20 -0.000418852 -7.59285e-20 0)
(0.000348884 -0.000313204 5.80362e-20 -0.000383757 -8.82433e-21 0)
(0.000375645 -0.000341945 -1.18558e-20 -0.000350629 6.30948e-21 0)
(0.00042915 0.000269057 -2.99682e-20 -0.00113098 -2.33958e-19 -4.4605e-35)
(0.00035506 0.000125627 5.69169e-20 -0.000936609 7.8635e-20 0)
(0.000290499 1.90982e-05 9.80739e-20 -0.000780059 2.29622e-19 0)
(0.000266538 -6.31601e-05 -5.95981e-20 -0.000660722 -5.65659e-20 0)
(0.00024081 -0.0001216 1.03951e-19 -0.000563179 3.52564e-20 0)
(0.000242378 -0.000169784 1.47736e-19 -0.000487103 2.16424e-19 0)
(0.000236732 -0.000199035 1.19021e-19 -0.000424833 1.06409e-19 0)
(0.000251008 -0.000229026 -2.72827e-20 -0.000374223 -6.51921e-20 0)
(0.000255814 -0.000239146 4.89175e-20 -0.000334271 2.40959e-20 0)
(0.000273985 -0.000262238 0 -0.000294185 0 0)
(0.000490175 0.00017705 3.87196e-20 -0.00124278 1.85156e-19 -3.41679e-35)
(0.00038042 8.52863e-05 9.82485e-20 -0.00100907 1.33608e-19 0)
(0.000290047 1.73845e-05 -6.13919e-20 -0.000823412 -9.61859e-20 0)
(0.000244736 -3.55961e-05 -2.74101e-20 -0.000679875 -4.3979e-20 0)
(0.000205105 -7.28994e-05 7.78334e-20 -0.000565579 1.15851e-19 0)
(0.000193385 -0.000104256 2.04264e-20 -0.000474171 3.11037e-20 0)
(0.000181516 -0.000122899 -3.22797e-20 -0.000403021 -2.79927e-20 0)
(0.000186769 -0.000142683 -3.55467e-20 -0.00034217 -3.88222e-20 0)
(0.000190787 -0.000149034 -4.81177e-20 -0.00029873 -3.64909e-20 0)
(0.000202753 -0.000163877 -1.50342e-20 -0.000253764 -9.48215e-21 0)
(0.000523022 6.1645e-05 -7.12299e-20 -0.00130101 -4.92135e-20 -8.06718e-35)
(0.000394681 3.01008e-05 -9.45461e-20 -0.001047 -2.82497e-19 0)
(0.000290989 6.69386e-06 3.95542e-20 -0.000846346 -1.66963e-19 0)
(0.000234509 -1.16097e-05 4.45997e-20 -0.000690298 6.6848e-20 0)
(0.000187718 -2.45313e-05 -3.75735e-20 -0.000567362 -5.33577e-20 0)
(0.000168994 -3.54406e-05 -1.30146e-21 -0.000467982 -5.59385e-20 0)
(0.000153944 -4.19486e-05 9.1384e-21 -0.000392259 -1.82502e-20 0)
(0.000154385 -4.88915e-05 -5.20617e-20 -0.000326015 -3.44754e-20 0)
(0.000158041 -5.1159e-05 -1.03469e-20 -0.0002808 -1.76274e-20 0)
(0.000166709 -5.63097e-05 4.8554e-20 -0.000233245 1.05883e-20 0)
(0.000194483 -5.65079e-05 2.52813e-20 -0.000190763 3.35029e-20 0)
(0.000228628 -0.000163912 4.47815e-20 -0.000212465 2.41722e-20 0)
(0.000296179 -0.000262232 -1.5876e-20 -0.000255076 -7.34141e-21 0)
(0.000391798 -0.000340777 1.71485e-20 -0.000313703 7.92406e-21 0)
(0.000514145 -0.000398194 2.89945e-20 -0.000387134 1.70468e-20 0)
(0.000652565 -0.000425166 1.27534e-19 -0.000465466 4.21991e-20 0)
(0.000807723 -0.000425304 -1.07049e-19 -0.000551189 -6.08594e-20 0)
(0.000964388 -0.000391324 -1.04426e-19 -0.000630035 -5.20504e-20 0)
(0.00112316 -0.00034017 -1.87085e-19 -0.000711864 -1.34058e-19 0)
(0.00126746 -0.000269187 3.10097e-19 -0.000783162 1.89219e-19 0)
(0.000242142 -5.26201e-05 -3.51765e-20 -0.00014241 -1.04206e-20 0)
(0.000270589 -0.00015241 1.01147e-21 -0.000163093 1.69604e-22 0)
(0.00032677 -0.000246358 -7.60166e-20 -0.00020336 -2.42799e-20 0)
(0.00040653 -0.000323244 -8.07258e-20 -0.000260236 -2.56847e-20 0)
(0.000508073 -0.000385977 1.31709e-19 -0.000330545 4.60291e-20 0)
(0.000623298 -0.000421159 7.6223e-20 -0.000408471 2.85911e-20 0)
(0.000750065 -0.000438674 -4.7784e-20 -0.000488405 -1.59601e-20 0)
(0.0008801 -0.000418024 0 -0.000566064 0 0)
(0.00101128 -0.000380062 1.00685e-19 -0.00063066 6.17974e-20 0)
(0.00114154 -0.00030148 -5.13008e-21 -0.000697781 -2.30613e-20 0)
(0.000286932 -4.77314e-05 7.29052e-21 -0.000114156 6.82735e-21 0)
(0.00031132 -0.000137931 5.70835e-20 -0.000131429 1.74455e-20 0)
(0.000359263 -0.000223511 -3.46549e-20 -0.000164539 -1.03361e-20 0)
(0.000429013 -0.000293483 -1.3707e-19 -0.000213395 -3.68352e-20 0)
(0.000517742 -0.000352122 -2.73339e-20 -0.000273264 -3.67644e-21 0)
(0.000623115 -0.000386928 7.07716e-22 -0.000346072 1.90206e-21 0)
(0.000737703 -0.000409658 -7.95823e-20 -0.000420263 -3.03327e-20 0)
(0.000861557 -0.000405249 -1.33286e-19 -0.000505185 -5.66989e-20 0)
(0.000976361 -0.000390601 1.47258e-19 -0.000571246 6.7752e-20 0)
(0.0010865 -0.000348936 3.08508e-19 -0.000644537 1.59391e-19 0)
(0.000341441 -4.42688e-05 -3.25912e-20 -0.000107512 -1.30688e-20 0)
(0.00036079 -0.000128294 2.27148e-20 -0.00012244 8.08277e-22 0)
(0.000398106 -0.000209357 1.03262e-19 -0.000149811 2.1079e-20 0)
(0.000453226 -0.000277689 6.73045e-20 -0.000191571 1.46064e-20 0)
(0.000521633 -0.000336911 1.04922e-19 -0.000239395 3.0293e-20 0)
(0.000605275 -0.000375484 -9.50985e-20 -0.000300384 -3.29204e-20 0)
(0.000695174 -0.000400181 -2.48797e-19 -0.00035744 -8.75327e-20 0)
(0.000799667 -0.000400697 4.12523e-20 -0.000430251 1.79661e-20 0)
(0.000902509 -0.000384806 4.08707e-20 -0.000487386 1.92027e-20 0)
(0.00100996 -0.000354394 -4.52881e-20 -0.000562028 -2.31214e-20 0)
(0.000385974 -3.8663e-05 -6.09506e-21 -9.73053e-05 -5.85693e-21 0)
(0.000403113 -0.00011256 -5.99949e-20 -0.000110299 -7.12584e-21 0)
(0.000435711 -0.000183808 -5.14043e-20 -0.000133484 -8.58391e-21 0)
(0.000485155 -0.000245608 2.82154e-20 -0.000170945 1.36525e-21 0)
(0.000545564 -0.000300096 1.35222e-19 -0.000212994 2.05224e-20 0)
(0.000620823 -0.000341097 9.99169e-20 -0.000269878 1.26032e-20 0)
(0.000699067 -0.000370921 1.03016e-19 -0.000321535 2.71984e-20 0)
(0.000788414 -0.000386193 -4.20212e-20 -0.00038792 -8.8834e-21 0)
(0.000873083 -0.000383918 8.84233e-20 -0.000437552 2.37109e-20 0)
(0.000959601 -0.000368735 5.6059e-20 -0.000499471 1.22885e-20 0)
(0.000434335 -3.58739e-05 0 -0.000104415 0 0)
(0.000447494 -0.000105223 -9.2588e-21 -0.000114839 7.14238e-21 0)
(0.000472185 -0.000171586 -6.73441e-22 -0.000132655 -8.10439e-21 0)
(0.000510438 -0.00023047 -1.28651e-19 -0.000162505 -2.91688e-20 0)
(0.000557159 -0.000281075 1.63234e-21 -0.000194749 -8.82095e-23 0)
(0.000617394 -0.00032089 -3.47428e-20 -0.000240545 -1.73754e-21 0)
(0.000682192 -0.000347617 1.7524e-21 -0.000282431 -4.32732e-23 0)
(0.000759214 -0.000364657 3.69791e-20 -0.000339266 5.34007e-21 0)
(0.000836192 -0.000365168 -1.90611e-19 -0.000385516 -6.0048e-20 0)
(0.000914949 -0.000360185 2.31089e-19 -0.000442439 7.91658e-20 0)
(0.00047747 -3.13142e-05 2.6488e-20 -0.000106449 -1.65972e-22 0)
(0.000489271 -9.2795e-05 -2.80509e-20 -0.000115824 -1.39478e-20 0)
(0.000511285 -0.000151453 8.76112e-21 -0.000131738 -8.55076e-21 0)
(0.000545247 -0.000205687 2.96665e-20 -0.000158623 9.47591e-21 0)
(0.000586271 -0.00025294 7.89034e-21 -0.000187547 1.12035e-20 0)
(0.00063798 -0.00029396 -3.58914e-20 -0.000227933 -3.86258e-22 0)
(0.000692804 -0.000323239 -8.99262e-20 -0.000264624 -1.76974e-20 0)
(0.000755989 -0.000346115 6.31902e-20 -0.000312211 1.93072e-20 0)
(0.000819904 -0.000352514 -3.15167e-20 -0.000351708 -1.79931e-20 0)
(0.000885316 -0.000354041 -2.9626e-20 -0.000399035 1.26081e-20 0)
(0.00051818 -2.88541e-05 4.87228e-21 -0.000117441 7.17024e-21 0)
(0.000527244 -8.61442e-05 1.13895e-20 -0.000124785 7.59293e-21 0)
(0.000544302 -0.000139972 -8.10023e-20 -0.00013713 -6.22869e-21 0)
(0.000570939 -0.00019038 -8.96457e-20 -0.000158411 -7.19626e-21 0)
(0.000604055 -0.000233194 3.688e-21 -0.000181643 1.15743e-20 0)
(0.000646472 -0.000271394 6.70385e-20 -0.000214681 -1.10644e-21 0)
(0.000693544 -0.000298252 -8.50528e-20 -0.000246329 -1.48985e-20 0)
(0.000748005 -0.000321487 -1.53771e-19 -0.000287163 -3.55209e-20 0)
(0.000804829 -0.000330498 4.4569e-21 -0.000323335 -1.49225e-22 0)
(0.000862074 -0.000337293 1.04455e-19 -0.000364726 7.03898e-20 0)
(0.00055786 -2.55751e-05 -3.09448e-20 -0.000125969 2.25721e-22 0)
(0.00056583 -7.7069e-05 3.13169e-20 -0.000132559 -6.9239e-22 0)
(0.000580924 -0.000125398 1.9211e-20 -0.00014383 8.64284e-21 0)
(0.00060388 -0.000172006 -1.72894e-21 -0.000162619 1.03784e-22 0)
(0.00063246 -0.000212095 -1.66908e-19 -0.000183442 -2.98404e-20 0)
(0.000667835 -0.000249337 7.48383e-20 -0.000211658 -2.79411e-21 0)
(0.00070739 -0.000276493 8.9783e-20 -0.000239263 2.83535e-20 0)
(0.000752147 -0.000300645 1.72009e-26 -0.000273281 -1.83378e-28 0)
(0.000800047 -0.000312 -1.98533e-20 -0.000304809 1.72109e-20 0)
(0.000848478 -0.000321249 2.20572e-20 -0.000340021 1.96561e-20 0)
(0.000592159 -2.33868e-05 2.86553e-20 -0.000137367 -8.71986e-21 0)
(0.000598425 -7.07758e-05 3.47148e-20 -0.000142653 -7.94694e-22 0)
(0.000610577 -0.00011481 3.19735e-20 -0.00015188 -1.0541e-21 0)
(0.000629053 -0.000157474 9.47782e-20 -0.000167227 6.9727e-21 0)
(0.000652887 -0.000193857 -6.95003e-20 -0.000184901 -9.18423e-21 0)
(0.000682427 -0.000228069 -6.8564e-20 -0.000208708 -2.48934e-20 0)
(0.000716565 -0.00025337 7.83303e-20 -0.000233138 1.24892e-20 0)
(0.000754939 -0.000276772 3.83964e-20 -0.000262657 -1.11526e-21 0)
(0.000796738 -0.000289033 1.33279e-19 -0.000291086 1.64341e-20 0)
(0.000838506 -0.000300321 9.76954e-20 -0.000321893 1.94659e-20 0)
(0.000626659 -2.10049e-05 3.47592e-20 -0.000147485 -2.09492e-22 0)
(0.00063201 -6.38824e-05 3.49637e-20 -0.000152193 -6.81433e-22 0)
(0.000642513 -0.000103789 3.53505e-20 -0.000160619 -1.03207e-21 0)
(0.000658037 -0.000142982 4.50269e-20 -0.00017407 2.10866e-20 0)
(0.00067826 -0.000176763 4.13098e-20 -0.000189911 -1.43637e-20 0)
(0.000702633 -0.000208872 -6.30034e-20 -0.000210332 -2.53408e-20 0)
(0.000731329 -0.000233177 3.77253e-20 -0.000231954 1.38916e-20 0)
(0.000763013 -0.00025559 -8.38322e-20 -0.000257099 -1.37164e-20 0)
(0.000798547 -0.000268367 5.22208e-20 -0.000282528 1.68717e-20 0)
(0.00083409 -0.00027982 -4.3528e-20 -0.000309353 1.19452e-20 0)
(0.00065527 -1.90588e-05 -3.60685e-21 -0.000157059 -9.80821e-21 0)
(0.000659584 -5.80253e-05 -3.50177e-20 -0.000161028 5.69668e-22 0)
(0.000668258 -9.41884e-05 -2.31494e-20 -0.000168331 1.1341e-20 0)
(0.000680996 -0.000129681 0 -0.000179836 0 0)
(0.00069806 -0.000160359 1.14865e-20 -0.000193866 -1.32236e-20 0)
(0.000718523 -0.000189501 1.69804e-21 -0.000211695 -5.57419e-23 0)
(0.000743102 -0.000212035 7.08664e-20 -0.000231184 2.80736e-20 0)
(0.000770074 -0.000232854 -4.10107e-20 -0.000253466 1.63229e-21 0)
(0.000800521 -0.00024528 9.33813e-20 -0.000276439 3.36572e-20 0)
(0.000830955 -0.000257017 5.94264e-20 -0.000300445 3.96429e-22 0)
(0.000683425 -1.71551e-05 3.33759e-21 -0.000164884 1.03554e-20 0)
(0.000687027 -5.22871e-05 4.53611e-20 -0.000168469 1.01384e-20 0)
(0.000694331 -8.5e-05 -1.39571e-20 -0.000175173 -1.09476e-20 0)
(0.000704879 -0.000117194 3.98413e-20 -0.000185474 -9.3125e-22 0)
(0.000719106 -0.000145272 -2.55771e-20 -0.000198179 -1.2283e-20 0)
(0.00073594 -0.00017187 -1.03724e-19 -0.000214016 -1.08043e-20 0)
(0.000756446 -0.000192779 6.51178e-20 -0.000231533 2.86681e-20 0)
(0.000778591 -0.000211893 -3.95549e-20 -0.0002513 -1.55702e-20 0)
(0.00080458 -0.000223817 -3.79523e-20 -0.000272218 -1.69062e-20 0)
(0.000828949 -0.00023478 2.75288e-19 -0.00029315 6.71259e-20 0)
(0.000706057 -1.53366e-05 -6.14114e-21 -0.000170172 -2.14958e-20 0)
(0.000709016 -4.67466e-05 8.08819e-20 -0.000173395 -4.22351e-22 0)
(0.000715082 -7.59875e-05 1.03445e-20 -0.000179499 1.13188e-20 0)
(0.000723831 -0.000104747 -3.81244e-20 -0.000188829 4.64373e-22 0)
(0.000735753 -0.000129899 4.29022e-20 -0.00020046 2.52898e-20 0)
(0.000749877 -0.000153707 -8.07703e-20 -0.000214933 1.26204e-21 0)
(0.000767157 -0.00017263 -3.83195e-20 -0.000231002 7.10276e-22 0)
(0.000785898 -0.000189755 3.82745e-20 -0.000249197 -8.07321e-22 0)
(0.00080784 -0.000201076 -7.6131e-20 -0.000268365 -1.6332e-20 0)
(0.000829218 -0.000210305 -3.97525e-20 -0.000288209 8.13861e-22 0)
(0.0007267 -1.35841e-05 -8.34252e-20 -0.00017216 -1.10053e-20 0)
(0.000729149 -4.14126e-05 -1.12465e-19 -0.000175197 1.09833e-20 0)
(0.000734204 -6.73683e-05 6.18433e-20 -0.000181038 2.314e-20 0)
(0.000741407 -9.29185e-05 -1.21092e-19 -0.000189772 -3.46831e-22 0)
(0.000751283 -0.000115329 -4.03824e-20 -0.000200816 -1.52548e-22 0)
(0.000762859 -0.000136523 4.03458e-20 -0.000214251 1.20367e-22 0)
(0.000777148 -0.000153358 1.23988e-20 -0.000229419 -1.47008e-20 0)
(0.000792553 -0.000168585 1.01779e-20 -0.00024621 -1.58371e-20 0)
(0.000810658 -0.000178342 3.42924e-20 -0.000264218 1.73034e-20 0)
(0.000828743 -0.000186614 3.55973e-20 -0.000282765 1.85139e-20 0)
(0.000742137 -1.17012e-05 -4.3714e-20 -0.000170056 -1.10157e-20 0)
(0.000744194 -3.5659e-05 -6.05823e-20 -0.000173005 -3.3622e-20 0)
(0.000748448 -5.80372e-05 5.38517e-20 -0.000178702 1.22526e-20 0)
(0.000754501 -8.00465e-05 6.79369e-20 -0.000187187 2.49313e-20 0)
(0.000762802 -9.94391e-05 -3.62205e-20 -0.000197928 -2.56616e-20 0)
(0.000772496 -0.000117704 -2.48206e-21 -0.000210951 -2.63092e-20 0)
(0.000784455 -0.000132391 -3.95942e-20 -0.000225604 -1.19831e-21 0)
(0.000797218 -0.000145403 2.72435e-20 -0.000241756 1.59284e-20 0)
(0.000812327 -0.000154032 4.00816e-20 -0.000259002 1.3049e-21 0)
(0.000827021 -0.000160723 1.60198e-19 -0.000276579 2.94695e-20 0)
(0.000753307 -9.80394e-06 1.23049e-19 -0.00016199 -9.52654e-21 0)
(0.000755085 -2.98971e-05 3.62897e-20 -0.000165006 -9.77165e-21 0)
(0.000758748 -4.86707e-05 -4.16864e-20 -0.000170895 -1.36771e-21 0)
(0.000763948 -6.71721e-05 5.51603e-20 -0.000179543 1.35176e-20 0)
(0.000771017 -8.34672e-05 -7.79175e-22 -0.000190573 -7.75378e-23 0)
(0.000779276 -9.88401e-05 -2.02047e-20 -0.000203773 1.11146e-20 0)
(0.000789294 -0.000111123 -4.25626e-20 -0.000218647 -2.93293e-21 0)
(0.000800097 -0.000121995 -7.49846e-20 -0.000234929 -4.72413e-20 0)
(0.000812461 -0.000128978 -1.43783e-20 -0.000252079 -3.12975e-20 0)
(0.00082491 -0.000134302 1.20413e-19 -0.000269792 8.31977e-20 0)
(0.000759091 -7.51852e-06 8.62343e-20 -0.000148109 1.05225e-20 0)
(0.000760715 -2.29286e-05 4.71141e-20 -0.000151327 1.11844e-20 0)
(0.000764035 -3.73511e-05 8.99677e-21 -0.000157623 1.02803e-20 0)
(0.000768744 -5.15932e-05 1.17607e-20 -0.000166837 1.09056e-20 0)
(0.000775072 -6.41702e-05 4.16248e-20 -0.000178589 3.73163e-21 0)
(0.000782418 -7.60951e-05 -1.81998e-20 -0.000192587 -1.28828e-20 0)
(0.000791199 -8.56018e-05 2.09087e-20 -0.00020831 -9.30359e-21 0)
(0.000800532 -9.41292e-05 1.76523e-20 -0.00022539 -1.04786e-20 0)
(0.000811105 -9.93951e-05 -3.93825e-20 -0.000243293 -4.8244e-21 0)
(0.000821462 -0.000103607 -9.26929e-20 -0.000261529 3.20368e-21 0)
(0.000757054 -5.07093e-06 -8.39777e-20 -0.000123858 -1.38309e-21 0)
(0.000758691 -1.54961e-05 8.88842e-20 -0.000127495 1.23994e-20 0)
(0.000762002 -2.52468e-05 7.75784e-21 -0.000134674 8.7929e-21 0)
(0.000766728 -3.49422e-05 8.34225e-20 -0.000145103 8.96083e-21 0)
(0.000772998 -4.34859e-05 -4.15067e-20 -0.000158558 -5.47982e-21 0)
(0.000780283 -5.16848e-05 9.87277e-20 -0.000174416 2.42513e-20 0)
(0.000788879 -5.81311e-05 -1.00491e-19 -0.000192522 -2.68592e-20 0)
(0.000797924 -6.402e-05 -1.95774e-20 -0.000211804 -1.41889e-20 0)
(0.000808031 -6.74431e-05 3.16663e-21 -0.000232522 2.4183e-20 0)
(0.000817718 -7.01664e-05 2.23959e-20 -0.000252814 1.72382e-20 0)
(0.000748614 -1.82173e-06 -4.37501e-20 -9.13664e-05 -1.97583e-20 -1.94079e-35)
(0.000750411 -5.55779e-06 1.87164e-20 -9.55903e-05 -3.40487e-21 -4.17938e-36)
(0.000754002 -9.07766e-06 3.44844e-21 -0.000103943 6.75402e-21 7.67876e-39)
(0.000759171 -1.25756e-05 3.04404e-20 -0.000116108 2.13511e-20 -6.52994e-36)
(0.000765947 -1.5701e-05 -4.12719e-20 -0.000131868 -1.52147e-20 -1.77329e-35)
(0.000773847 -1.86851e-05 2.05931e-20 -0.000150496 8.8373e-21 -4.36416e-36)
(0.000783044 -2.10839e-05 -1.23856e-20 -0.000171882 1.52793e-21 -2.59525e-36)
(0.000792685 -2.32154e-05 -3.75605e-20 -0.000194671 -3.57644e-20 -7.42205e-36)
(0.000803264 -2.45016e-05 0 -0.000219261 0 0)
(0.000813382 -2.54035e-05 3.28417e-20 -0.000243311 3.29723e-20 -6.24846e-36)
(0.00133772 -0.000221384 -1.49561e-19 -0.000812902 -7.08982e-20 0)
(0.00134498 -0.000174748 -2.65809e-19 -0.000795483 -1.10622e-19 0)
(0.00137632 -0.000135959 0 -0.00080212 0 0)
(0.0013899 -0.000100203 3.23016e-20 -0.000791555 -8.50949e-21 0)
(0.00141214 -6.31486e-05 -4.0521e-19 -0.00078908 -2.83194e-19 0)
(0.00142242 -3.27094e-05 3.93295e-20 -0.00077787 5.08039e-20 0)
(0.00143262 -1.83373e-06 3.4028e-19 -0.000767973 2.2692e-19 0)
(0.00143791 2.37551e-05 -1.85453e-19 -0.00075429 -1.4599e-19 0)
(0.00144102 4.67694e-05 -1.34908e-19 -0.000740615 -9.16173e-20 0)
(0.00144207 6.49547e-05 2.25297e-20 -0.00072509 1.71439e-20 0)
(0.00144211 8.06656e-05 2.40269e-19 -0.000710214 1.77204e-19 0)
(0.00144175 9.08613e-05 -1.77026e-19 -0.000694743 -1.43612e-19 0)
(0.00144198 9.81259e-05 -5.93839e-20 -0.000680965 -2.92697e-20 0)
(0.00144342 9.96769e-05 7.85632e-20 -0.000667701 4.23479e-20 0)
(0.00144738 9.79238e-05 -1.75875e-20 -0.000657459 -1.36867e-20 0)
(0.00145415 9.03132e-05 -2.8213e-19 -0.000648748 -1.78749e-19 0)
(0.00146569 7.92749e-05 1.00726e-19 -0.000644723 8.05549e-20 0)
(0.00148172 6.2142e-05 5.39884e-19 -0.0006432 3.41006e-19 0)
(0.0015052 4.17539e-05 -2.77947e-20 -0.000648533 -2.12162e-20 0)
(0.00153496 1.48928e-05 -4.09126e-19 -0.000657296 -1.24751e-19 1.47345e-34)
(0.00124345 -0.000232844 -2.3746e-19 -0.000735066 -1.20422e-19 0)
(0.00127369 -0.000213919 -1.95814e-19 -0.000738771 -1.09146e-19 0)
(0.00130867 -0.000173961 3.83294e-19 -0.00074372 2.19754e-19 0)
(0.001327 -0.000153806 -2.36745e-33 -0.000741569 -1.59094e-33 0)
(0.00134553 -0.000121485 -4.89288e-20 -0.00073774 -1.94563e-20 0)
(0.00136273 -9.73998e-05 -1.28679e-19 -0.00073311 -9.12448e-20 0)
(0.00137363 -7.08843e-05 1.65475e-19 -0.000725094 1.07125e-19 0)
(0.00138689 -4.81685e-05 2.26526e-19 -0.000717591 1.52935e-19 0)
(0.00139741 -2.65766e-05 -1.03346e-34 -0.000708449 -7.43401e-35 0)
(0.00140449 -8.48694e-06 -1.52543e-19 -0.000698283 -1.03164e-19 0)
(0.0014126 7.4171e-06 -3.17478e-28 -0.000688117 -2.16453e-28 0)
(0.00142049 1.97786e-05 6.70667e-20 -0.000678548 4.86862e-20 0)
(0.00142954 2.94121e-05 -6.74944e-20 -0.000669674 -4.89476e-20 0)
(0.00144022 3.53876e-05 6.79985e-20 -0.000662175 4.91289e-20 0)
(0.0014533 3.85086e-05 6.8616e-20 -0.000656783 4.92501e-20 0)
(0.00146937 3.79314e-05 -1.82964e-33 -0.000653311 -1.32955e-33 0)
(0.00148966 3.46899e-05 -4.28584e-19 -0.000653749 -2.91733e-19 0)
(0.0015142 2.78889e-05 1.28963e-33 -0.000656617 8.74894e-34 0)
(0.0015453 1.8899e-05 4.41917e-19 -0.000665598 2.94833e-19 0)