/*--------------------------------*- C++ -*----------------------------------*\
| =========                 |                                                 |
| \\      /  F ield         | OpenFOAM: The Open Source CFD Toolbox           |
|  \\    /   O peration     | Version:  v2012                                 |
|   \\  /    A nd           | Website:  www.openfoam.com                      |
|    \\/     M anipulation  |                                                 |
\*---------------------------------------------------------------------------*/
FoamFile
{
    version     2.0;
    format      ascii;
    class       volSymmTensorField;
    location    "4";
    object      epsilon;
}
// * * * * * * * * * * * * * * * * * * * * * * * * * * * * * * * * * * * * * //

dimensions      [0 0 0 0 0 0 0];


internalField   nonuniform List<symmTensor> 
470
(
(0.000301624 -0.000151185 6.64833e-16 -0.000107708 -8.27721e-18 0)
(0.00037368 -3.62491e-05 7.80626e-16 -9.62403e-05 -1.24382e-16 0)
(0.000773612 -0.000109401 -2.90566e-17 -0.000323334 6.58707e-16 0)
(0.000615387 -2.20104e-05 -2.52402e-16 -0.000147319 -3.62073e-16 0)
(0.000603788 -0.00028456 -6.85649e-16 -0.000277875 9.67962e-16 0)
(0.00072004 -2.32321e-05 3.69496e-16 -0.000310978 -3.53125e-16 0)
(0.000619816 -0.000225167 -1.69136e-17 -0.000228886 -4.85994e-16 0)
(0.000513444 -0.000326094 -7.79758e-16 -0.000288795 7.06304e-16 0)
(0.00102433 -0.000123945 1.84098e-15 -0.000479801 -5.82596e-16 0)
(0.000758527 -0.000175397 2.25341e-15 -0.000291374 -1.38051e-15 0)
(0.00100781 -0.000111277 -1.75381e-15 -0.000459932 1.8529e-16 0)
(0.00114839 0.000129297 -1.92771e-16 -0.00053882 -4.91252e-16 0)
(0.00113403 5.66719e-05 -6.26517e-15 -0.000536961 -1.83859e-15 0)
(0.000599002 -4.50767e-05 1.83447e-16 -0.000150587 5.60187e-16 0)
(0.00116607 -3.64702e-05 -3.31506e-15 -0.000520586 -2.41343e-15 0)
(0.000898417 -0.00015873 -3.02709e-16 -0.000393045 3.97252e-16 0)
(0.000728832 -0.000191216 1.05601e-15 -0.000297975 -1.83339e-16 0)
(0.000543972 -5.76214e-05 -4.62304e-16 -0.000142291 -1.33154e-16 0)
(0.000516047 -2.42668e-05 -1.82146e-16 -0.000122016 6.26084e-16 0)
(0.000401467 -0.000139424 1.55214e-15 -0.000106433 -3.8914e-16 0)
(0.000929265 -9.74257e-05 -8.87745e-16 -0.00039212 -6.36535e-16 0)
(0.000656047 -7.01732e-05 -1.45587e-15 -0.000204879 -1.69651e-16 0)
(0.000797808 -7.2251e-05 -2.14238e-15 -0.000333609 8.78637e-16 0)
(0.00058225 -7.11051e-05 -1.97498e-15 -0.000156795 7.38626e-16 0)
(0.00113032 -9.24334e-05 4.72712e-15 -0.000634849 -3.03479e-15 0)
(0.000591691 -0.00019076 -1.28283e-15 -0.00019773 -3.91451e-16 0)
(0.00103109 -0.000125441 1.61698e-15 -0.000550849 -7.49943e-16 0)
(0.000832166 -4.44843e-05 -6.92155e-16 -0.000361694 -1.85643e-15 0)
(0.00071332 -5.70609e-05 2.04264e-16 -0.000292627 -1.06089e-15 0)
(0.00057566 -3.10613e-05 3.97252e-16 -0.000148326 3.47937e-16 0)
(0.00039038 -0.000135208 1.8245e-15 -0.00010634 -4.84579e-16 0)
(0.00124499 1.1059e-05 5.79614e-16 -0.000537616 8.02629e-15 0)
(0.000761839 -0.000155115 -5.97179e-16 -0.000311903 -2.2639e-15 0)
(0.00132442 -0.000205202 -7.13383e-15 -0.000554382 -3.42174e-15 0)
(0.000752376 -3.46744e-05 1.09721e-16 -0.000310553 -1.15104e-15 0)
(0.000727806 -3.25291e-05 7.93202e-16 -0.000305806 -4.7629e-16 0)
(0.0011622 4.00761e-05 1.25984e-15 -0.000501968 2.25839e-15 0)
(0.000409605 -0.000129648 2.26598e-15 -0.000122567 -5.87292e-16 0)
(0.000478398 -0.000123507 2.29417e-16 -0.000122676 -4.29493e-16 0)
(0.000409109 -0.000181576 -1.66533e-16 -0.000134329 4.55297e-17 0)
(0.000932972 -0.000219151 -5.75061e-16 -0.000506917 -7.07876e-16 0)
(0.000481839 -3.02534e-05 1.07119e-16 -0.000116471 8.58349e-17 0)
(0.00114291 0.000194486 -7.7824e-16 -0.000494973 6.14201e-16 0)
(0.000782682 -0.000272825 -6.37077e-16 -0.000434087 -4.00938e-16 0)
(0.000893608 -3.86444e-05 8.9425e-16 -0.000380592 -1.50585e-15 0)
(0.00106069 0.000197074 -1.06273e-15 -0.000483415 6.16586e-16 0)
(0.000488465 -0.000202844 2.83627e-16 -0.000166336 -2.07726e-16 0)
(0.00100794 -0.000165023 1.64365e-16 -0.000566956 3.63154e-16 0)
(0.000919923 -0.000202915 9.12465e-16 -0.000488245 5.71375e-17 0)
(0.00105952 -0.000101342 -1.49793e-15 -0.000537527 -9.03683e-16 0)
(0.00117938 4.97568e-05 4.58748e-15 -0.000516651 5.97905e-15 0)
(0.00129289 -0.000178183 -3.72532e-15 -0.000575269 -4.11129e-16 0)
(0.000567975 -8.45789e-05 -4.38885e-16 -0.000149824 1.69712e-16 0)
(0.000497703 -5.39455e-05 -6.8695e-16 -0.000129672 6.96729e-16 0)
(0.000640477 -6.63169e-05 8.50015e-17 -0.000174227 -6.97386e-16 0)
(0.000649186 -7.54887e-05 7.80626e-18 -0.000200887 -6.85202e-16 0)
(0.000819273 9.21443e-05 -7.15384e-16 -0.000339605 -1.23361e-15 0)
(0.000584432 1.27269e-05 2.13046e-16 -0.000263599 7.04731e-17 0)
(0.000793016 -0.000267001 3.5384e-15 -0.000376815 -9.98875e-16 0)
(0.000850263 -6.8032e-05 -9.27643e-16 -0.000351364 2.09034e-16 0)
(0.000618902 -0.000180918 -2.22652e-15 -0.000210662 1.90508e-16 0)
(0.00109341 -1.40062e-05 1.60527e-15 -0.000550112 -1.59725e-15 0)
(0.00112704 6.78587e-06 -7.63929e-16 -0.000535718 -2.43403e-15 0)
(0.00120428 0.000165015 -8.06646e-17 -0.000563997 -2.4709e-16 0)
(0.000568546 -0.000348968 2.36096e-15 -0.000248869 -6.98443e-16 0)
(0.00119694 0.000118189 1.30528e-14 -0.000392415 3.50219e-15 0)
(0.000458706 -0.000220793 9.02056e-17 -0.000154211 -3.71482e-16 0)
(0.00066856 -7.41075e-05 -3.71665e-16 -0.00022968 9.68924e-16 0)
(0.000473998 -0.000365286 2.44162e-16 -0.000388481 -7.92281e-17 0)
(0.000851084 -0.000186312 6.87818e-16 -0.00035595 1.51262e-15 0)
(0.000278372 -6.74044e-05 6.1149e-17 -9.214e-05 8.965e-18 0)
(0.000727318 -0.000195773 2.67971e-15 -0.000276852 4.55609e-16 0)
(0.00133996 7.87002e-05 -2.74878e-15 -0.000625938 -2.75734e-15 0)
(0.000679904 -0.00024209 1.27892e-15 -0.000271858 1.58878e-15 0)
(0.00121249 0.000159099 8.38739e-16 -0.000548125 -2.23606e-15 0)
(0.000640645 -2.5621e-05 -6.51822e-16 -0.000175792 9.34948e-16 0)
(0.000709743 -0.000160307 1.2954e-15 -0.000266517 1.45489e-15 0)
(0.000693141 -0.000176389 -6.04551e-16 -0.000253257 1.33921e-15 0)
(0.00073597 -0.00024783 2.25644e-15 -0.000319993 1.12912e-15 0)
(0.00118067 9.30799e-05 1.33411e-15 -0.000372406 1.97021e-15 0)
(0.000855611 -0.00024163 -6.7741e-16 -0.000421842 6.80499e-16 0)
(0.00135442 0.000193308 1.10262e-14 -0.000486137 8.58254e-16 0)
(0.000804562 -0.000110908 3.42304e-15 -0.000326647 -3.70255e-16 0)
(0.000439798 -0.000272936 3.4521e-16 -0.000401905 -6.6654e-16 0)
(0.00104278 -8.84976e-05 3.00975e-16 -0.000519379 -1.7293e-15 0)
(0.000654797 -3.1167e-05 -1.2026e-15 -0.000206094 8.29415e-16 0)
(0.00115744 0.000181597 -1.72529e-15 -0.000569279 2.08796e-15 0)
(0.000841221 -0.00049412 -1.71282e-15 -0.000213192 -3.17303e-15 0)
(0.00112542 0.000237835 4.58401e-16 -0.000470812 2.86229e-15 0)
(0.0012011 7.06909e-05 -6.65917e-16 -0.000614892 2.19605e-15 0)
(0.00124029 0.000207514 -1.0198e-15 -0.000562067 2.30198e-15 0)
(0.0011481 6.96132e-05 -4.41834e-15 -0.000527227 -2.51361e-15 0)
(0.000677393 -0.000250246 2.31976e-15 -0.000271313 1.09487e-15 0)
(0.00068294 -0.000186183 5.47305e-16 -0.000256862 7.79568e-16 0)
(0.00113351 -7.46752e-06 -3.63121e-15 -0.00050495 -3.83721e-15 0)
(0.00115911 2.08889e-05 -4.25463e-15 -0.000495604 -3.63099e-15 0)
(0.00054254 -0.000264912 -1.4936e-15 -0.000220295 3.11166e-16 0)
(0.000659366 -0.000205342 -2.23172e-15 -0.000239322 2.43891e-16 0)
(0.000601851 -0.000292011 7.50268e-17 -0.000294573 1.35149e-15 0)
(0.000751074 -6.25754e-05 -3.47942e-15 -0.000314105 1.02999e-15 0)
(0.000636365 -9.69312e-05 -7.58508e-16 -0.000189842 5.606e-16 0)
(0.000960191 -0.000160443 1.576e-15 -0.000480266 -1.65742e-15 0)
(0.00132947 9.58499e-05 -3.89933e-15 -0.000591345 -5.14801e-15 0)
(0.000621933 -5.98033e-05 -6.66567e-16 -0.000163061 7.18718e-16 0)
(0.000627135 -4.06018e-05 -1.15316e-15 -0.000141338 1.38656e-16 0)
(0.000691746 -4.29566e-05 2.94556e-15 -0.000284112 -3.6646e-17 0)
(0.000694826 -5.59207e-05 4.2813e-15 -0.000254813 2.21421e-16 0)
(0.000573495 -0.000252237 -1.63975e-15 -0.000227783 7.48736e-16 0)
(0.000265793 -3.37645e-05 1.21691e-15 -0.000490595 8.57401e-16 0)
(0.00144507 -2.5946e-05 2.78542e-15 -0.000524528 -2.25341e-15 0)
(0.00110628 0.000201477 2.12883e-16 -0.000490408 2.31412e-15 0)
(0.00148155 -3.4532e-06 6.12455e-15 -0.000550475 -2.61596e-15 0)
(0.000637862 -2.59584e-05 8.1532e-16 -0.000160104 -1.02644e-15 0)
(0.000714689 -1.89222e-05 7.19477e-16 -0.000299992 7.78999e-17 0)
(0.000601085 -0.00032314 2.75821e-16 -0.000400809 3.05989e-16 0)
(0.000769527 -0.000221829 4.00201e-15 -0.000317636 8.28114e-16 0)
(0.000597487 -1.98455e-05 5.20417e-17 -0.000139386 -5.46262e-16 0)
(0.00111968 -3.19559e-05 3.15633e-15 -0.000479702 -1.85236e-15 0)
(0.000585253 -0.000236143 -5.19983e-16 -0.000219126 1.39419e-15 0)
(0.000387938 -4.32506e-05 1.33834e-15 -9.34801e-05 -1.53186e-16 0)
(0.000643283 -0.000270888 -7.22079e-16 -0.00026687 1.78217e-15 0)
(0.000626345 -6.76761e-05 6.7741e-16 -0.000159269 5.21047e-16 0)
(0.000567613 -5.12505e-05 -1.37911e-16 -0.000148137 -1.83562e-16 0)
(0.000614179 -1.59905e-05 -1.68919e-15 -0.000110275 3.09472e-16 0)
(0.000687659 -1.47548e-05 1.41987e-15 -0.000278595 -6.89878e-16 0)
(0.000814794 -0.000236865 2.64545e-15 -0.000363335 1.31232e-15 0)
(0.000829767 -0.000209289 2.85622e-15 -0.000358798 -7.23976e-17 0)
(0.000641896 -9.93002e-05 4.46691e-16 -0.000200213 -2.92301e-16 0)
(0.00116254 -5.5482e-05 5.60164e-15 -0.000494977 -2.65364e-15 0)
(0.000602726 -8.30087e-05 -1.82753e-15 -0.000168229 5.23561e-16 0)
(0.000492067 -0.000258563 -8.99454e-16 -0.000201382 4.82023e-16 0)
(0.000485245 -0.000289668 -7.24247e-16 -0.000226202 9.82707e-16 0)
(0.000631878 -0.000222183 7.3986e-16 -0.000231342 6.78995e-16 0)
(0.000628948 -0.000109728 -4.34982e-16 -0.000188022 2.02461e-16 0)
(0.00066403 -2.61506e-05 -9.88359e-16 -0.000216562 1.48818e-15 0)
(0.000770898 -6.20193e-05 -2.29634e-15 -0.00032697 2.24972e-17 0)
(0.000708687 -0.0002222 9.47593e-16 -0.000280105 -2.23617e-16 0)
(0.00101057 -0.000340157 -9.32414e-16 -0.000444812 -1.32023e-15 0)
(0.00113671 0.000121749 2.37874e-15 -0.000502077 -8.1944e-16 0)
(0.000699615 -1.39648e-05 1.24553e-15 -0.000297721 -6.6364e-16 0)
(0.000713262 -2.45477e-05 1.21431e-15 -0.000293517 -9.75782e-17 0)
(0.00120031 -3.44514e-05 4.76008e-15 -0.00065674 -3.52366e-17 0)
(0.000663451 -0.000105542 8.43943e-16 -0.000211439 1.11806e-15 0)
(0.000657672 -0.000165701 -3.71665e-15 -0.000235938 1.21282e-15 0)
(0.00067504 -0.00015222 -2.08861e-15 -0.000230938 6.77355e-17 0)
(0.00042041 -0.000133061 1.94289e-15 -0.000122993 -4.74759e-16 0)
(0.000620267 -2.08012e-05 6.04985e-16 -0.000131422 -4.71582e-16 0)
(0.00112956 1.48071e-05 -4.85723e-17 -0.000611417 -1.00202e-15 0)
(0.000630836 -0.00014229 -1.07119e-15 -0.000204412 6.88306e-16 0)
(0.0011413 0.000107952 -2.4735e-15 -0.000593509 -1.02056e-15 0)
(0.000522775 -8.34683e-05 1.00614e-16 -0.000131593 3.24054e-16 0)
(0.00060082 -2.95612e-05 -2.91434e-16 -0.00013183 -1.20442e-15 0)
(0.000602896 -0.0003163 -3.24393e-16 -0.000384788 5.17246e-16 0)
(0.000632649 -5.61263e-05 4.39752e-16 -0.0001824 -7.77034e-16 0)
(0.00140553 -0.000505465 -1.10794e-14 -0.000560238 6.99224e-15 0)
(0.000879078 -0.000199596 -2.23346e-15 -0.000387383 -3.14635e-16 0)
(0.000303078 0.000164542 6.25801e-16 -0.000806112 8.19359e-16 0)
(0.000570763 -0.000189747 -7.50702e-16 -0.000192935 6.98402e-16 0)
(0.000615288 -0.000181724 -5.76362e-16 -0.000192533 6.98701e-16 0)
(0.000728589 -0.000173649 3.73009e-15 -0.000290348 -7.17688e-16 0)
(0.00164153 -0.000274753 -8.3979e-15 -0.000605858 -4.17526e-15 0)
(0.00108385 -5.61025e-05 3.73421e-15 -0.00050077 -2.17339e-15 0)
(0.000773868 9.56499e-05 -1.22585e-15 -0.000322719 7.31836e-16 0)
(0.00123259 -4.00427e-05 4.90558e-15 -0.000549137 7.40087e-15 0)
(0.001062 -1.42852e-05 -2.90349e-16 -0.000385017 1.47863e-15 0)
(0.000821284 -0.000279472 -6.92588e-16 -0.000528551 3.27158e-16 0)
(0.000716114 -0.000361 -1.30907e-15 -0.000495596 7.14489e-16 0)
(0.00113795 -1.01854e-05 7.8262e-15 -0.000495114 -1.43169e-15 0)
(0.000724594 -0.000267712 2.93819e-15 -0.00031845 1.34804e-15 0)
(0.000849551 -0.000280408 -3.82507e-16 -0.000514633 8.70398e-16 0)
(0.000832753 -0.000268847 -2.1658e-15 -0.000476522 9.94051e-16 0)
(0.000683324 -0.000124605 5.90673e-16 -0.000247759 -1.57144e-15 0)
(0.000696848 -0.000113191 6.76542e-16 -0.000259944 -1.55e-15 0)
(0.000703156 -0.000150227 -1.06208e-15 -0.000266906 5.79533e-16 0)
(0.000683835 -0.000141849 -1.61199e-15 -0.000247314 -7.99436e-16 0)
(0.000629495 -0.000173221 -1.96067e-15 -0.000215844 8.2749e-16 0)
(0.000547556 -5.08528e-05 -7.14272e-16 -0.000129669 4.18373e-16 0)
(0.000212093 -8.8965e-05 -1.63064e-16 -0.00021127 1.29915e-16 0)
(0.00106547 -9.88029e-05 5.53897e-15 -0.000610059 -1.69342e-15 0)
(0.000689322 -0.00032324 -1.9533e-15 -0.000413085 3.73372e-16 0)
(0.000781975 -0.000279616 1.30104e-17 -0.000400629 7.9266e-16 0)
(0.00106282 0.000156151 2.58365e-16 -0.000511859 -1.13418e-15 0)
(0.000709691 -0.000222056 -5.78964e-16 -0.00028009 3.57678e-16 0)
(0.000823682 -0.00020496 6.15827e-16 -0.000359795 9.81447e-16 0)
(0.000867268 -0.000152387 -1.09201e-15 -0.000356872 1.78433e-15 0)
(0.00106419 -7.17118e-05 2.98004e-15 -0.000462712 1.12285e-15 0)
(0.000727586 -9.56369e-05 -1.01698e-15 -0.000278705 -6.78385e-16 0)
(0.000138762 -6.91331e-05 -1.76508e-16 -0.0001451 7.30075e-17 0)
(0.000960481 0.00010344 -4.14263e-15 -0.000410283 -1.22949e-16 0)
(0.00060042 -8.9914e-05 -1.09808e-15 -0.000166523 2.92979e-16 0)
(0.00071514 -6.34932e-05 1.11066e-15 -0.000275162 -4.50811e-16 0)
(0.000567376 -0.000204439 -2.3332e-16 -0.000185362 3.14148e-17 0)
(0.000800027 -0.0001989 -6.93889e-18 -0.000319811 -3.44072e-16 0)
(0.000752385 -0.000209021 -4.45824e-16 -0.000315569 -3.98092e-16 0)
(0.000294973 -0.000184154 1.84748e-16 -0.000134383 -7.27974e-17 0)
(0.000528698 -8.52537e-05 1.73472e-18 -0.000148845 1.39049e-16 0)
(0.00080106 -6.7985e-05 -2.16667e-15 -0.000350955 3.55401e-16 0)
(0.000741938 -0.000134695 8.00575e-16 -0.000294081 3.08564e-16 0)
(0.000756105 -0.0001056 -7.44196e-16 -0.000308265 1.08862e-15 0)
(0.00270516 -0.000308806 1.36027e-14 -0.000885467 4.40837e-15 0)
(0.000347895 -5.55491e-05 7.02129e-16 -9.53293e-05 3.4664e-17 0)
(0.000240437 -5.5168e-05 -5.94143e-17 -9.51981e-05 8.65803e-17 0)
(0.00190041 4.1237e-05 1.1629e-14 -0.000684669 1.2119e-14 0)
(0.000831053 -0.000323795 4.09612e-16 -0.000564148 -2.69533e-16 0)
(0.000839766 -0.000164038 -1.05168e-15 -0.000358629 1.2522e-15 0)
(0.000873974 -0.000103555 2.47328e-15 -0.00038105 -2.70834e-16 0)
(0.000478766 -8.83902e-05 -9.8966e-16 -0.000113594 -2.61388e-16 0)
(0.000491218 -8.75638e-05 -5.68122e-17 -0.000130482 1.57745e-16 0)
(0.000961598 -0.000246515 -1.66794e-15 -0.00059099 -1.72703e-15 0)
(0.000334278 0.000119691 -9.36751e-16 -0.00102555 1.02534e-15 0)
(0.000643622 -9.08823e-05 -2.31152e-16 -0.000184803 -4.92905e-17 0)
(0.000775572 -0.00013706 3.01668e-15 -0.000333686 -1.43608e-15 0)
(0.000195077 -8.09982e-05 -2.1272e-15 -0.000544009 -4.14978e-17 0)
(0.000559599 -0.000105999 2.88398e-16 -0.000158632 -7.5596e-17 0)
(0.00106401 -0.000110249 1.67097e-15 -0.000487716 1.76725e-15 0)
(0.000987942 -0.000114992 -2.24755e-15 -0.000431884 8.12393e-16 0)
(0.000648073 -0.000135649 -1.15142e-15 -0.000205768 8.96066e-16 0)
(0.000510318 -0.000178164 5.26055e-16 -0.000166785 3.36848e-17 0)
(0.000598669 -0.000128259 1.35482e-15 -0.000180058 -7.29397e-17 0)
(0.000950783 -0.00021035 -1.79782e-15 -0.000558782 8.7094e-16 0)
(0.0002877 -0.000127726 1.09374e-15 -0.000527628 2.85145e-17 0)
(0.000395543 -0.000209234 -7.94503e-16 -0.000156017 -1.90887e-16 0)
(0.000724697 -8.73367e-05 -3.07566e-15 -0.000302324 6.50684e-16 0)
(0.000585843 -9.68206e-05 9.35016e-16 -0.000160624 -4.11726e-17 0)
(0.000971185 -0.000219659 8.57387e-16 -0.000596501 8.58146e-17 0)
(0.000723252 -5.19803e-05 -2.20223e-15 -0.000311917 -1.11386e-15 0)
(0.000984758 -0.00016925 1.14058e-16 -0.000498306 -2.35196e-15 0)
(0.00017046 -0.000188352 5.32126e-16 -0.000227657 9.24824e-17 0)
(0.00120326 0.00017238 5.25838e-15 -0.000441977 1.898e-15 0)
(0.00109199 8.17043e-05 1.44069e-15 -0.000476139 6.84565e-16 0)
(0.000971774 -0.000175512 1.53111e-15 -0.000496524 -1.5625e-15 0)
(0.000332366 -0.00027533 6.05852e-16 -0.000347753 -1.04869e-16 0)
(0.00061172 -1.77992e-05 7.38559e-16 -0.000115386 -4.40898e-16 0)
(0.000693427 -8.22808e-06 -1.09288e-16 -0.000286154 -1.33313e-15 0)
(0.000875812 -0.000109796 -3.46945e-16 -0.000365137 5.67851e-16 0)
(0.000664938 -0.000206295 2.19443e-16 -0.000239163 -6.47133e-17 0)
(0.000570568 -0.00027149 8.45461e-16 -0.000291654 -4.80193e-16 0)
(0.000678147 -4.15485e-05 2.26512e-15 -0.000266151 7.13866e-16 0)
(0.000677938 -2.14324e-05 5.26055e-16 -0.000253273 2.74493e-16 0)
(0.000629339 -2.37636e-05 1.11022e-16 -0.000151011 -8.51072e-16 0)
(0.00063244 -3.94307e-05 1.04517e-16 -0.000142425 -7.58942e-19 0)
(0.000617217 -4.06061e-05 -8.95985e-16 -0.000136395 -4.91116e-16 0)
(0.000697155 -3.45151e-05 3.12944e-15 -0.000273304 -6.53937e-16 0)
(0.0014612 7.80606e-05 7.33612e-15 -0.000488102 -1.02674e-15 0)
(0.00129375 -4.33944e-05 -1.30004e-15 -0.000373299 -1.07705e-15 0)
(0.000993338 0.000118939 5.22856e-17 -0.000307735 3.23309e-16 0)
(0.000997417 8.25603e-05 -1.18585e-15 -0.000340584 -9.04225e-17 0)
(0.00067474 -6.62688e-05 2.30415e-15 -0.000243419 8.59799e-16 0)
(0.000456581 -2.79811e-05 -3.18755e-16 -0.000112012 -8.34158e-17 0)
(0.000721088 -0.00012919 -5.80699e-16 -0.000279362 2.73409e-16 0)
(0.000707785 -0.00011327 -1.01004e-15 -0.000275167 -9.39895e-16 0)
(0.000820319 -0.000111909 3.2873e-15 -0.000348886 -4.14003e-16 0)
(0.000602942 -4.76771e-06 -3.64726e-16 -8.20361e-05 3.54446e-16 0)
(0.000698519 -4.1863e-06 -5.08274e-16 -0.000298707 -1.82379e-15 0)
(0.00093594 -0.000166086 -4.57707e-15 -0.000403359 -1.52303e-15 0)
(0.000410273 -9.68336e-05 -5.07407e-16 -0.000114624 -4.84325e-16 0)
(0.00050167 -0.000139782 3.11383e-16 -0.000143913 -3.11634e-16 0)
(0.00061439 -1.95987e-05 -7.48533e-16 -0.000123746 2.92707e-16 0)
(0.000690838 -1.59319e-05 1.86223e-15 -0.000283652 -1.4215e-15 0)
(0.000338983 -4.97809e-05 5.52943e-16 -9.88398e-05 2.0854e-17 0)
(0.000742437 -0.000231831 8.17922e-16 -0.000316653 -3.56892e-16 0)
(0.00119885 0.000170003 5.83203e-15 -0.00046071 8.20307e-16 0)
(0.000207377 -6.51178e-05 -2.47632e-16 -9.78178e-05 6.14387e-17 0)
(0.000276677 -8.88514e-05 2.79724e-16 -0.000367975 -4.94288e-16 0)
(0.000449337 -0.000154881 1.1653e-15 -0.000140721 1.09396e-16 0)
(0.000609614 -1.73491e-05 1.83881e-16 -0.000115409 -6.8178e-16 0)
(0.000701921 -1.70629e-05 1.65536e-15 -0.000293579 -1.08545e-15 0)
(0.00056009 -2.01923e-05 -1.42377e-15 -0.000142845 -3.79057e-16 0)
(0.000522929 -0.000148704 5.52076e-16 -0.000141858 -1.22007e-16 0)
(0.000913801 -4.37563e-05 3.18625e-15 -0.000391388 -3.5345e-17 0)
(0.000783019 -2.54579e-05 -1.32143e-15 -0.000335765 -3.68032e-16 0)
(0.000448757 -0.000315854 5.04805e-16 -0.000375872 -6.87926e-16 0)
(0.00124694 2.36187e-05 -1.33877e-15 -0.000542891 2.36183e-15 0)
(0.000667266 -0.000267912 9.84456e-16 -0.000478127 -5.32235e-16 0)
(0.00083055 4.07932e-06 -2.10951e-15 -0.000321695 -2.81893e-18 0)
(0.00103352 -0.000152311 -1.36523e-15 -0.000570179 -1.67498e-15 0)
(0.00110333 -0.000188446 -1.11239e-16 -0.000575784 -2.86446e-16 0)
(0.000801557 -0.000160247 -1.69873e-15 -0.00032774 -7.11779e-17 0)
(0.0010736 -4.53767e-05 2.11636e-15 -0.000506301 -1.62381e-15 0)
(0.0006638 -0.0001042 2.31282e-15 -0.000234266 8.22069e-16 0)
(0.000705887 -0.000206887 -8.23994e-17 -0.000282559 7.1888e-16 0)
(0.000896068 -0.000180363 -3.96601e-15 -0.000403375 -5.6037e-16 0)
(0.00059472 -0.000237807 7.80626e-18 -0.000219104 4.77117e-16 0)
(0.000888879 -0.000218848 -6.01082e-16 -0.000409529 -1.43017e-15 0)
(0.000590505 -4.71995e-05 -7.19043e-16 -0.000150604 2.90776e-16 0)
(0.000624513 -3.25515e-05 -1.50357e-15 -0.0001447 -5.83992e-16 0)
(0.000948624 -9.09812e-05 7.34222e-16 -0.000391376 1.72551e-16 0)
(0.000933775 0.000162908 8.81348e-16 -0.000424496 5.74193e-16 0)
(0.000613543 -0.000121992 2.68015e-16 -0.000181292 3.08713e-16 0)
(0.000398628 -0.000245818 6.84782e-16 -0.000219581 -2.9041e-16 0)
(0.000596682 -0.000246994 -6.96058e-16 -0.000463831 -1.41998e-15 0)
(0.000667281 -0.000268279 1.01091e-15 -0.000516558 -8.90293e-16 0)
(0.000296606 -0.000241641 6.0325e-16 -0.000174949 -2.00218e-16 0)
(0.00104377 -6.09531e-05 -2.91347e-15 -0.000455593 -1.91362e-16 0)
(0.0009873 -0.00015468 -3.5306e-15 -0.000444969 -1.79273e-16 0)
(0.000609036 -0.000154471 5.01769e-16 -0.00019323 2.52077e-16 0)
(0.000622692 -0.000111958 3.78603e-16 -0.000185473 9.60468e-17 0)
(0.000738664 -2.35334e-05 -9.77517e-16 -0.000319549 -2.31206e-16 0)
(0.000943557 -0.000171871 -2.09208e-15 -0.000443716 5.04479e-16 0)
(0.000589102 -2.10616e-05 -2.58474e-16 -0.00014234 -2.27682e-18 0)
(0.000673962 -9.35351e-05 1.36653e-15 -0.000223598 5.4267e-16 0)
(0.000432018 -0.000170776 1.74296e-15 -0.000300627 -9.25367e-16 0)
(0.000677663 -5.06464e-05 6.99961e-16 -0.0002281 6.15095e-16 0)
(0.000668823 -2.75046e-05 -1.89085e-15 -0.000245036 3.43692e-16 0)
(0.00121286 0.000215367 6.18684e-15 -0.000491365 3.18647e-15 0)
(0.000689019 -0.000325959 1.19089e-15 -0.000386585 1.4711e-15 0)
(0.00068763 -9.53848e-05 2.15843e-15 -0.000251154 -2.90214e-16 0)
(0.000672596 -0.000119271 2.46634e-15 -0.000225327 -5.19604e-17 0)
(0.00041862 -0.00033232 4.62521e-16 -0.000300031 3.29692e-16 0)
(0.000517059 -0.000329334 1.00614e-16 -0.000305803 4.00328e-16 0)
(0.00119997 8.08132e-05 -3.31115e-16 -0.000594444 -2.8559e-15 0)
(0.00110341 -9.15344e-05 7.22512e-16 -0.000661215 9.44449e-16 0)
(0.00233545 -0.000674384 -5.38176e-15 -0.000704935 5.38241e-15 0)
(0.000654125 -0.000167756 -2.4568e-15 -0.000216949 1.03091e-15 0)
(0.000667504 -0.000341681 3.35235e-16 -0.000517591 -1.03341e-15 0)
(0.00114513 5.38479e-05 -5.35227e-15 -0.000550365 -1.9147e-16 0)
(0.000667501 -0.000341797 2.96204e-16 -0.000478903 -6.94486e-16 0)
(0.000289476 -0.0002327 3.05745e-16 -0.000227704 9.82694e-17 0)
(0.00105122 -7.18296e-05 6.3196e-15 -0.000455936 -5.37005e-16 0)
(0.000575982 -0.000171841 -9.15067e-17 -0.000166398 5.33522e-16 0)
(0.00103225 -4.92517e-05 -7.68482e-15 -0.000441869 -4.46366e-16 0)
(0.000541221 -0.000155241 -5.38632e-16 -0.000164258 1.36189e-15 0)
(0.000617909 -0.000158963 -3.76001e-16 -0.000190996 1.19045e-16 0)
(0.000606931 -8.64543e-05 -6.01515e-16 -0.000166152 7.41594e-17 0)
(0.000998959 -0.000133469 -8.1055e-16 -0.000444176 -1.69537e-15 0)
(0.000534586 -1.95688e-05 -1.20086e-15 -0.000138831 1.76351e-16 0)
(0.000814419 -2.92874e-05 -1.12323e-15 -0.000347656 1.38127e-16 0)
(0.000685473 -0.000337988 -6.87384e-16 -0.000414091 5.32994e-16 0)
(0.00054784 -0.000291145 -5.77663e-16 -0.000295844 3.91776e-16 0)
(0.000382826 -0.000309988 6.75241e-16 -0.000400704 -4.37692e-16 0)
(0.000530479 -0.000204739 3.92915e-16 -0.000185326 1.047e-16 0)
(0.000211629 -0.000168315 7.55038e-16 -0.0003376 -8.60585e-17 0)
(0.000766594 -0.000279916 8.08381e-16 -0.000389782 1.82021e-15 0)
(0.000827758 -0.000231079 7.04731e-16 -0.000378351 -3.174e-16 0)
(0.000343207 -0.000251511 4.55365e-16 -0.000295871 6.65023e-17 0)
(0.000713485 -0.0002827 1.97758e-16 -0.000324007 9.29243e-16 0)
(0.000444744 -4.01837e-05 7.90167e-16 -9.73654e-05 -3.30397e-16 0)
(0.000595832 -0.000132862 9.64073e-16 -0.000176038 -4.22093e-16 0)
(0.0010804 8.14383e-05 -1.62197e-16 -0.000473523 1.0662e-15 0)
(0.000700425 -7.7649e-05 -5.63785e-17 -0.000285611 -1.17305e-15 0)
(0.000541912 -0.000123757 -8.24861e-16 -0.000154196 8.9383e-16 0)
(0.00149312 4.80008e-05 -2.50865e-15 -0.000497405 3.75351e-15 0)
(0.00111802 -5.01355e-05 -6.29097e-15 -0.00047549 1.25334e-16 0)
(0.000233101 -0.000152623 2.38958e-16 -0.000319493 1.58016e-16 0)
(0.00064856 -0.00014335 -6.3274e-16 -0.000225494 9.56808e-18 0)
(0.00100023 -4.50444e-05 -4.91404e-15 -0.000410444 -1.56179e-15 0)
(0.00110046 0.000101866 -3.59446e-15 -0.000452808 -1.6237e-15 0)
(0.000626447 -0.000153409 -5.34295e-16 -0.000200814 9.43608e-16 0)
(0.000613078 -4.18937e-06 1.56992e-15 -9.46162e-05 -4.05532e-16 0)
(0.000692629 -2.48354e-06 -1.28716e-15 -0.000298732 -2.2958e-16 0)
(0.000435765 -3.09049e-05 6.31439e-16 -0.000106066 -1.70379e-16 0)
(0.000585667 -0.000294055 -1.17874e-15 -0.000263206 1.31153e-15 0)
(0.000918814 -0.000143587 -1.50487e-15 -0.000386339 -1.88754e-15 0)
(0.000968245 -3.85933e-05 -3.20924e-16 -0.000415789 5.99564e-17 0)
(0.000939965 0.000104826 -6.18125e-15 -0.000404021 -7.54822e-16 0)
(9.56273e-05 -4.07141e-05 -2.26381e-16 -0.000227281 4.39712e-17 0)
(0.000897115 0.000193064 -1.043e-16 -0.000342107 -4.46474e-16 0)
(0.0006849 -0.000229376 2.47198e-17 -0.000264374 8.02716e-16 0)
(0.000611199 -1.50587e-06 2.41517e-15 -0.000109521 -4.94193e-16 0)
(0.000206324 -4.01487e-05 -1.14925e-16 -0.000138632 1.44951e-16 0)
(0.000609926 -1.90957e-05 1.9598e-15 -0.000121277 -4.5363e-16 0)
(0.000622331 -2.34655e-05 9.05092e-16 -0.000135239 -1.01674e-15 0)
(0.000678941 -2.27559e-05 -8.89479e-16 -0.000251541 1.81875e-17 0)
(0.000790507 -0.000193586 -1.23599e-15 -0.000312298 -4.16279e-16 0)
(0.0015645 -0.000750578 -1.21845e-14 -0.000370907 2.29157e-15 0)
(0.000698075 -1.97611e-06 -1.51094e-15 -0.000300698 1.15413e-16 0)
(0.000543103 -0.000127509 -1.32706e-16 -0.000150173 6.35363e-16 0)
(0.00098762 0.000104103 -5.71537e-15 -0.000452851 -8.06863e-16 0)
(0.000152302 -0.000136223 -7.80626e-18 -0.000148157 2.47056e-16 0)
(0.000698642 -1.0749e-05 1.03216e-16 -0.000288813 -5.22369e-16 0)
(0.00052742 -0.000198721 1.67097e-15 -0.000166629 3.73223e-16 0)
(0.000629012 -0.000268658 -1.30061e-15 -0.000266468 1.28283e-15 0)
(0.000831535 7.70875e-05 -9.53854e-16 -0.000337637 -2.48933e-16 0)
(0.000606111 -6.2785e-05 -5.74193e-16 -0.000158179 3.16018e-16 0)
(0.000272748 -6.74898e-05 -9.45424e-17 -0.000404415 -3.42445e-16 0)
(0.000335715 6.24327e-05 -4.7835e-16 -0.000550051 -3.49493e-16 0)
(0.000165336 -7.52464e-05 -8.6476e-16 -0.000320863 3.91668e-18 0)
(0.000686492 -6.8249e-05 3.57136e-15 -0.000269365 4.9258e-16 0)
(0.00183578 -0.000146795 1.9066e-14 -0.000593561 -1.31123e-15 0)
(0.000333927 -9.66201e-05 1.94289e-16 -0.000481697 -6.15122e-16 0)
(0.000757784 -0.000268249 2.36356e-15 -0.000365122 1.69396e-15 0)
(0.0012957 6.31349e-05 -3.15915e-15 -0.000518493 -5.99499e-15 0)
(0.000584898 5.2266e-05 1.25911e-15 -0.000232596 1.47798e-15 0)
(0.000632655 -6.43558e-05 -8.61724e-16 -0.000162623 9.18536e-16 0)
(0.000646323 -0.000123663 -5.15647e-16 -0.000211707 5.79018e-16 0)
(0.0017941 -0.0002491 1.12653e-14 -0.00084354 -2.51622e-15 0)
(0.00102116 0.000226345 2.46548e-15 -0.00041363 1.54586e-15 0)
(0.00102007 0.00015687 1.6263e-16 -0.000425183 6.01515e-16 0)
(0.000924943 -5.17357e-05 -1.11239e-15 -0.000407716 -9.07152e-16 0)
(0.000571318 -0.000139452 -3.61256e-16 -0.000171953 1.60191e-17 0)
(0.00131674 -3.33155e-05 -3.12467e-16 -0.000685595 7.99491e-16 0)
(0.000563992 -1.81215e-05 -5.76796e-16 -0.000142434 -3.19579e-16 0)
(0.000771604 -2.57581e-05 -2.4169e-15 -0.000327621 -1.0185e-15 0)
(0.00136655 0.000180424 1.62609e-15 -0.00055218 -3.15611e-15 0)
(0.000702573 -8.49877e-05 1.41727e-15 -0.000261135 -3.76787e-16 0)
(0.00056725 -0.000111375 -7.56339e-16 -0.000154885 3.85536e-16 0)
(0.000609181 -1.28846e-05 1.59421e-15 -0.000130491 -3.11535e-16 0)
(0.000697241 -5.04775e-06 -5.22152e-16 -0.000293628 -6.5952e-16 0)
(0.00113872 -1.43385e-05 1.30083e-15 -0.00050178 -1.75207e-15 0)
(0.000824127 -0.000117437 3.19493e-15 -0.000356253 -3.6852e-16 0)
(0.00108213 -8.20667e-05 1.62197e-15 -0.000487991 4.03106e-16 0)
(0.00179019 -0.000133985 9.79295e-15 -0.000535045 1.9791e-15 0)
(0.000751769 -0.00014305 2.39132e-15 -0.00030273 -1.48129e-15 0)
(0.000274179 -0.000248395 4.78784e-16 -0.000214737 -1.17202e-16 0)
(0.00122096 6.70474e-05 -1.45934e-15 -0.000639163 9.78601e-16 0)
(0.000988841 0.00013691 -1.72261e-15 -0.000375528 -4.13298e-16 0)
(0.00114193 2.44508e-05 2.95792e-15 -0.000608719 -1.32359e-15 0)
(0.000747991 -9.70928e-05 -3.54231e-15 -0.000298248 1.85453e-15 0)
(0.000604433 -9.1183e-06 2.26208e-15 -9.27156e-05 -3.6376e-16 0)
(0.000592595 -2.50415e-06 1.51615e-15 -6.76491e-05 -3.90054e-16 0)
(0.000693593 -6.37851e-07 -2.85622e-15 -0.000295576 4.42897e-17 0)
(0.000696732 -2.56774e-07 -2.66627e-15 -0.000299477 -3.60443e-16 0)
(0.000520194 -2.15624e-05 -7.25114e-16 -0.000129907 6.38241e-16 0)
(0.000841059 -3.64104e-05 -3.81205e-16 -0.000354424 -1.06111e-15 0)
(0.000781821 0.000121064 -6.14905e-16 -0.000278383 8.31366e-16 0)
(0.000950943 -0.000583173 -7.74944e-15 -0.000350224 -3.60367e-15 0)
(0.000633115 -7.9176e-05 -4.24574e-16 -0.000192692 2.48553e-16 0)
(0.000432254 -0.000308128 5.52076e-16 -0.00029967 5.66631e-17 0)
(0.00106899 0.00017815 -1.35514e-15 -0.00044049 -2.21828e-16 0)
(0.000278543 -0.000150641 1.35308e-16 -0.000141693 7.17742e-17 0)
(0.00065972 -0.000290811 1.10155e-15 -0.000320665 1.32205e-15 0)
(0.00032062 -0.000169768 3.30899e-16 -0.000134075 -4.91211e-17 0)
(0.000790111 -0.000163187 -1.67791e-15 -0.000328492 -1.06225e-15 0)
(0.000615993 -8.40139e-05 -1.64365e-16 -0.000173781 6.96275e-16 0)
(0.000778353 -0.000146902 1.79891e-15 -0.000309369 -2.4613e-15 0)
(0.00143749 1.38108e-05 1.82418e-14 -0.000451613 -3.12445e-15 0)
(0.00104999 0.000213784 3.13112e-15 -0.000396815 1.77679e-15 0)
(0.000844393 -0.000307966 -2.8959e-15 -0.000563138 5.56629e-16 0)
(0.00110687 -2.08913e-05 -1.5027e-16 -0.000571615 -4.62954e-17 0)
(0.000839096 7.9067e-05 6.39815e-16 -0.000357137 1.4511e-15 0)
(0.00109558 -1.20025e-05 -1.37195e-15 -0.000530993 -3.6646e-17 0)
(0.00109529 -0.000136553 -4.31512e-16 -0.000626396 -1.23057e-17 0)
(0.000881484 -0.000194608 -1.54629e-15 -0.000402107 -3.22561e-15 0)
(0.000938703 -0.000202593 -3.71057e-15 -0.000449154 -1.62522e-15 0)
(0.0001138 -0.000112893 5.75495e-16 -0.00031775 6.63396e-17 0)
(0.000184775 2.45215e-05 -2.46331e-16 -0.000480964 -3.88754e-17 0)
(0.000620388 -1.20502e-05 6.30138e-16 -0.000136832 -8.37868e-16 0)
(0.000700684 -1.06552e-05 6.03684e-16 -0.000303061 -6.96004e-16 0)
(0.000687005 -7.52256e-05 3.29597e-15 -0.000236879 1.17655e-15 0)
(0.00086868 -0.000205586 -2.76905e-15 -0.000421442 -1.05824e-15 0)
(0.00098627 -0.000198098 -2.18272e-15 -0.000619245 -1.59052e-16 0)