/*--------------------------------*- C++ -*----------------------------------*\
| =========                 |                                                 |
| \\      /  F ield         | OpenFOAM: The Open Source CFD Toolbox           |
|  \\    /   O peration     | Version:  v2012                                 |
|   \\  /    A nd           | Website:  www.openfoam.com                      |
|    \\/     M anipulation  |                                                 |
\*---------------------------------------------------------------------------*/
FoamFile
{
    version     2.0;
    format      ascii;
    class       pointVectorField;
    location    "4";
    object      pointD;
}
// * * * * * * * * * * * * * * * * * * * * * * * * * * * * * * * * * * * * * //

dimensions      [0 1 0 0 0 0 0];


internalField   nonuniform List<vector> 
530
(
(0.00138831 0 0)
(0.0019993 0 0)
(0.00185104 -0.000191587 0)
(0 -0.000960285 0)
(0 -0.000736818 0)
(0.00138831 0 0)
(0.0019993 0 0)
(0.00185104 -0.000191587 0)
(0 -0.000960285 0)
(0 -0.000736818 0)
(0.00140782 0 0)
(0.00142435 0 0)
(0.00143823 0 0)
(0.00145896 0 0)
(0.0014868 0 0)
(0.0015207 0 0)
(0.00155949 0 0)
(0.00160307 0 0)
(0.00165125 0 0)
(0.00170327 0 0)
(0.00175928 0 0)
(0.00181819 0 0)
(0.00187794 0 0)
(0.00193886 0 0)
(0.00199629 -6.76491e-06 0)
(0.0019873 -1.49685e-05 0)
(0.00197414 -2.5996e-05 0)
(0.00195659 -3.95198e-05 0)
(0.00193749 -5.7099e-05 0)
(0.00191731 -7.87553e-05 0)
(0.00189722 -0.000103909 0)
(0.00187966 -0.000131769 0)
(0.00186432 -0.00016164 0)
(0.00178168 -0.000204429 0)
(0.00171196 -0.000215941 0)
(0.00164049 -0.000224763 0)
(0.00156662 -0.000231074 0)
(0.00148832 -0.000236511 0)
(0.00140421 -0.000240403 0)
(0.00131485 -0.000247456 0)
(0.00121803 -0.000256633 0)
(0.0011148 -0.00027181 0)
(0.001003 -0.000294678 0)
(0.000886747 -0.000329649 0)
(0.000763487 -0.000378438 0)
(0.000638988 -0.000437306 0)
(0.000514294 -0.000515768 0)
(0.000396356 -0.000604819 0)
(0.000288316 -0.00070324 0)
(0.00019432 -0.000799273 0)
(0.000116933 -0.00088044 0)
(5.84432e-05 -0.000934255 0)
(0 -0.000926324 0)
(0 -0.000892266 0)
(0 -0.000855025 0)
(0 -0.000805285 0)
(0.000272359 -0.000702417 0)
(0.000542015 -0.000642068 0)
(0.000789604 -0.000544506 0)
(0.000991714 -0.00043752 0)
(0.00115885 -0.000320862 0)
(0.00128119 -0.000210442 0)
(0.00135692 -0.000105113 0)
(0.00140782 0 0)
(0.00142435 0 0)
(0.00143823 0 0)
(0.00145896 0 0)
(0.0014868 0 0)
(0.0015207 0 0)
(0.00155949 0 0)
(0.00160307 0 0)
(0.00165125 0 0)
(0.00170327 0 0)
(0.00175928 0 0)
(0.00181819 0 0)
(0.00187794 0 0)
(0.00193886 0 0)
(0.00199629 -6.76491e-06 0)
(0.0019873 -1.49685e-05 0)
(0.00197414 -2.5996e-05 0)
(0.00195659 -3.95198e-05 0)
(0.00193749 -5.7099e-05 0)
(0.00191731 -7.87553e-05 0)
(0.00189722 -0.000103909 0)
(0.00187966 -0.000131769 0)
(0.00186432 -0.00016164 0)
(0.00178168 -0.000204429 0)
(0.00171196 -0.000215941 0)
(0.00164049 -0.000224763 0)
(0.00156662 -0.000231074 0)
(0.00148832 -0.000236511 0)
(0.00140421 -0.000240403 0)
(0.00131485 -0.000247456 0)
(0.00121803 -0.000256633 0)
(0.0011148 -0.00027181 0)
(0.001003 -0.000294678 0)
(0.000886747 -0.000329649 0)
(0.000763487 -0.000378438 0)
(0.000638988 -0.000437306 0)
(0.000514294 -0.000515768 0)
(0.000396356 -0.000604819 0)
(0.000288316 -0.00070324 0)
(0.00019432 -0.000799273 0)
(0.000116933 -0.00088044 0)
(5.84432e-05 -0.000934255 0)
(0 -0.000926324 0)
(0 -0.000892266 0)
(0 -0.000855025 0)
(0 -0.000805285 0)
(0.000272359 -0.000702417 0)
(0.000542015 -0.000642068 0)
(0.000789604 -0.000544506 0)
(0.000991714 -0.00043752 0)
(0.00115885 -0.000320862 0)
(0.00128119 -0.000210442 0)
(0.00135692 -0.000105113 0)
(0.00117188 -0.000114145 0)
(0.00157266 -8.19894e-05 0)
(0.000729443 -0.000366897 0)
(0.00129501 -0.000131734 0)
(0.00145533 -4.27673e-05 0)
(0.00168646 -0.000133002 0)
(0.00177995 -4.78138e-05 0)
(0.000342598 -0.000698127 0)
(0.00128798 -6.46699e-05 0)
(0.000911979 -0.000253318 0)
(0.00161614 -3.48094e-05 0)
(0.0014526 -0.000152953 0)
(0.0014122 -2.5869e-05 0)
(0.00101236 -0.000209077 0)
(0.0017974 -8.20488e-05 0)
(0.00108501 -0.000202687 0)
(0.00144024 -8.06442e-05 0)
(0.00131253 -8.51598e-05 0)
(0.000481106 -0.000565024 0)
(0.000585333 -0.000513934 0)
(0.00172443 -2.6113e-05 0)
(0.00155955 -0.00017752 0)
(0.00189182 -2.17938e-05 0)
(0.00174536 -0.000165183 0)
(0.000977255 -0.000205055 0)
(0.00067976 -0.000400904 0)
(0.00129201 -0.000185116 0)
(0.00155436 -1.91923e-05 0)
(0.00167605 -9.51301e-05 0)
(0.00167064 -5.45886e-05 0)
(0.000154846 -0.000855373 0)
(0.00116208 -0.000141242 0)
(0.00186836 -4.91437e-05 0)
(0.00180256 -0.00011267 0)
(0.0015739 -0.000128412 0)
(0.000227794 -0.000775737 0)
(0.00132815 -5.84614e-05 0)
(0.00149432 -1.56414e-05 0)
(0.0014008 -2.09039e-05 0)
(0.00136882 -4.62939e-05 0)
(0.00115408 -0.000115874 0)
(0.001205 -0.000136975 0)
(0.00142801 -0.000115652 0)
(0.00153001 -4.53772e-05 0)
(0.000918456 -0.000276551 0)
(0.000302252 -0.000728221 0)
(0.00117738 -0.00020728 0)
(0.00180545 -2.00919e-05 0)
(0.00165479 -0.000183718 0)
(0.000856296 -0.000351238 0)
(0.00166256 -1.64265e-05 0)
(0.00147083 -0.000190229 0)
(0.00131362 -5.21385e-05 0)
(0.00083409 -0.00029263 0)
(0.00104939 -0.000171579 0)
(0.000503023 -0.000557209 0)
(0.000752017 -0.000357883 0)
(0.000438746 -0.000645384 0)
(0.0017604 -6.85252e-05 0)
(0.00151372 -0.000112527 0)
(0.00158777 -5.96778e-05 0)
(0.0014587 -1.00159e-05 0)
(0.0014196 -3.52497e-05 0)
(0.000802204 -0.000328774 0)
(0.00187904 -6.22357e-05 0)
(0.000533578 -0.000509908 0)
(0.0010245 -0.000202309 0)
(0.000119793 -0.00085177 0)
(0.00137689 -0.00020523 0)
(0.00161982 -1.0274e-05 0)
(0.00134824 -9.62794e-05 0)
(0.00118821 -0.000155813 0)
(0.00140219 -6.70066e-05 0)
(0.00105174 -0.000239055 0)
(0.00173001 -0.000104748 0)
(0.00182151 -0.000129853 0)
(0.00191928 -3.09499e-05 0)
(0.000627936 -0.000442275 0)
(0.00101109 -0.000249515 0)
(0.00116021 -0.00012346 0)
(0.00165184 -7.6581e-05 0)
(0.00193132 -1.22351e-05 0)
(0.00179497 -0.000172852 0)
(0.00149239 -9.13543e-05 0)
(0.00185456 -8.62401e-05 0)
(0.00140545 -2.0697e-05 0)
(0.00137758 -5.72548e-05 0)
(0.00124073 -0.000166812 0)
(0.00134027 -0.000145741 0)
(0.00153901 -9.07443e-06 0)
(0.00149653 -2.47615e-05 0)
(0.00167124 -3.81478e-05 0)
(0.00156219 -3.25081e-05 0)
(0.00172582 -4.31932e-05 0)
(0.00122777 -0.00010417 0)
(0.00125655 -0.000116114 0)
(0.00160252 -0.00010205 0)
(0.00174661 -0.000136795 0)
(0.0018437 -3.99418e-05 0)
(0.000368884 -0.000658677 0)
(0.000204803 -0.000816553 0)
(0.000773905 -0.00044143 0)
(0.00161405 -0.000148274 0)
(0.00171755 -1.04068e-05 0)
(0.00105403 -0.000166966 0)
(0.00152616 -0.000209078 0)
(0.000627645 -0.000438032 0)
(0.00151583 -0.000157864 0)
(0.00124595 -7.83462e-05 0)
(0.00185894 -1.30018e-05 0)
(0.00170832 -0.000189781 0)
(0.00152603 -6.35974e-05 0)
(0.001651 -0.000118526 0)
(0.000442021 -0.000621341 0)
(0.000391613 -0.000651784 0)
(0.000857444 -0.000280754 0)
(7.69667e-05 -0.000911068 0)
(0.00122671 -0.000219664 0)
(0.000656973 -0.000435602 0)
(0.00131381 -0.000107707 0)
(0.00181762 -6.38212e-05 0)
(0.00109594 -0.000142963 0)
(0.00171509 -6.14207e-05 0)
(0.000349494 -0.000708193 0)
(0.000233285 -0.000785077 0)
(0.000796687 -0.000321376 0)
(0.00137761 -0.000170626 0)
(0.00177376 -3.30898e-05 0)
(0.00168201 -0.000156509 0)
(0.000159412 -0.000782238 0)
(0.00149252 -8.54364e-06 0)
(0.00133544 -4.39992e-05 0)
(0.00144164 -7.89276e-06 0)
(0.00138962 -4.51066e-05 0)
(0.00129207 -7.85189e-05 0)
(0.00108452 -0.000247559 0)
(0.00112796 -0.000140914 0)
(0.0015773 -7.51189e-06 0)
(0.0013527 -4.09235e-05 0)
(0.000330549 -0.000709808 0)
(0.00137584 -0.000110342 0)
(0.00192041 -4.2014e-05 0)
(0.00185901 -0.00010251 0)
(0.00159944 -0.000204561 0)
(0.00124862 -7.54224e-05 0)
(0.00176593 -1.10365e-05 0)
(0.000100452 -0.000824157 0)
(0.00178545 -0.000101394 0)
(7.88565e-05 -0.000887591 0)
(0.00120435 -0.000201075 0)
(0.00147276 -5.30531e-05 0)
(0.000263544 -0.000767517 0)
(0.00160957 -2.32375e-05 0)
(0.00145547 -2.10065e-05 0)
(0.0011596 -0.000186416 0)
(0.00135198 -4.39042e-05 0)
(0.000950263 -0.000223825 0)
(0.00151321 -3.33552e-05 0)
(0.000608306 -0.000462765 0)
(0.00125589 -8.40702e-05 0)
(0.000820266 -0.000329987 0)
(0.00141987 -1.84614e-05 0)
(0.00142861 -0.000138768 0)
(0.00140604 -2.12126e-05 0)
(0.000729251 -0.000365761 0)
(0.000866264 -0.000289865 0)
(0.00174818 -0.000118195 0)
(0.00182322 -0.000149122 0)
(0.00194329 -1.93571e-05 0)
(0.00059459 -0.000577254 0)
(0.00173244 -8.76634e-05 0)
(0.00182847 -2.89692e-05 0)
(0.00109695 -0.000178483 0)
(0.00128697 -0.000221798 0)
(0.000749172 -0.000388954 0)
(0.00150059 -0.0001368 0)
(0.000987287 -0.000231614 0)
(0.00162627 -4.82948e-05 0)
(0.00162079 -0.000174144 0)
(0.00157993 -4.53259e-05 0)
(0.00162453 -6.58235e-05 0)
(0.0013098 -7.33625e-05 0)
(0.000936415 -0.000238775 0)
(0.0010992 -0.000217924 0)
(0.000274128 -0.000741666 0)
(0.00097018 -0.000344677 0)
(0.00110733 -0.00017495 0)
(0.00137293 -3.30622e-05 0)
(0.000122185 -0.00088636 0)
(0.00042 -0.000602826 0)
(0.00165713 -2.77692e-05 0)
(0.00167396 -7.17026e-06 0)
(0.00142696 -1.04394e-05 0)
(0.00092053 -0.00029325 0)
(0.00100278 -0.000202576 0)
(0.00145266 -0.000217163 0)
(0.00143606 -9.74867e-05 0)
(0.00170737 -7.80868e-05 0)
(0.00143469 -0.000175564 0)
(0.000895578 -0.000286988 0)
(0.00190093 -7.70427e-06 0)
(0.00174765 -0.000194039 0)
(0.00115784 -0.000238897 0)
(0.00181452 -5.34083e-05 0)
(0.00196492 -5.11879e-06 0)
(0.00181991 -0.000182359 0)
(0.00107892 -0.000169865 0)
(0.00117188 -0.000114145 0)
(0.00157266 -8.19894e-05 0)
(0.000729443 -0.000366897 0)
(0.00129501 -0.000131734 0)
(0.00145533 -4.27673e-05 0)
(0.00168646 -0.000133002 0)
(0.00177995 -4.78138e-05 0)
(0.000342598 -0.000698127 0)
(0.00128798 -6.46699e-05 0)
(0.000911979 -0.000253318 0)
(0.00161614 -3.48094e-05 0)
(0.0014526 -0.000152953 0)
(0.0014122 -2.5869e-05 0)
(0.00101236 -0.000209077 0)
(0.0017974 -8.20488e-05 0)
(0.00108501 -0.000202687 0)
(0.00144024 -8.06442e-05 0)
(0.00131253 -8.51598e-05 0)
(0.000481106 -0.000565024 0)
(0.000585333 -0.000513934 0)
(0.00172443 -2.6113e-05 0)
(0.00155955 -0.00017752 0)
(0.00189182 -2.17938e-05 0)
(0.00174536 -0.000165183 0)
(0.000977255 -0.000205055 0)
(0.00067976 -0.000400904 0)
(0.00129201 -0.000185116 0)
(0.00155436 -1.91923e-05 0)
(0.00167605 -9.51301e-05 0)
(0.00167064 -5.45886e-05 0)
(0.000154846 -0.000855373 0)
(0.00116208 -0.000141242 0)
(0.00186836 -4.91437e-05 0)
(0.00180256 -0.00011267 0)
(0.0015739 -0.000128412 0)
(0.000227794 -0.000775737 0)
(0.00132815 -5.84614e-05 0)
(0.00149432 -1.56414e-05 0)
(0.0014008 -2.09039e-05 0)
(0.00136882 -4.62939e-05 0)
(0.00115408 -0.000115874 0)
(0.001205 -0.000136975 0)
(0.00142801 -0.000115652 0)
(0.00153001 -4.53772e-05 0)
(0.000918456 -0.000276551 0)
(0.000302252 -0.000728221 0)
(0.00117738 -0.00020728 0)
(0.00180545 -2.00919e-05 0)
(0.00165479 -0.000183718 0)
(0.000856296 -0.000351238 0)
(0.00166256 -1.64265e-05 0)
(0.00147083 -0.000190229 0)
(0.00131362 -5.21385e-05 0)
(0.00083409 -0.00029263 0)
(0.00104939 -0.000171579 0)
(0.000503023 -0.000557209 0)
(0.000752017 -0.000357883 0)
(0.000438746 -0.000645384 0)
(0.0017604 -6.85252e-05 0)
(0.00151372 -0.000112527 0)
(0.00158777 -5.96778e-05 0)
(0.0014587 -1.00159e-05 0)
(0.0014196 -3.52497e-05 0)
(0.000802204 -0.000328774 0)
(0.00187904 -6.22357e-05 0)
(0.000533578 -0.000509908 0)
(0.0010245 -0.000202309 0)
(0.000119793 -0.00085177 0)
(0.00137689 -0.00020523 0)
(0.00161982 -1.0274e-05 0)
(0.00134824 -9.62794e-05 0)
(0.00118821 -0.000155813 0)
(0.00140219 -6.70066e-05 0)
(0.00105174 -0.000239055 0)
(0.00173001 -0.000104748 0)
(0.00182151 -0.000129853 0)
(0.00191928 -3.09499e-05 0)
(0.000627936 -0.000442275 0)
(0.00101109 -0.000249515 0)
(0.00116021 -0.00012346 0)
(0.00165184 -7.6581e-05 0)
(0.00193132 -1.22351e-05 0)
(0.00179497 -0.000172852 0)
(0.00149239 -9.13543e-05 0)
(0.00185456 -8.62401e-05 0)
(0.00140545 -2.0697e-05 0)
(0.00137758 -5.72548e-05 0)
(0.00124073 -0.000166812 0)
(0.00134027 -0.000145741 0)
(0.00153901 -9.07443e-06 0)
(0.00149653 -2.47615e-05 0)
(0.00167124 -3.81478e-05 0)
(0.00156219 -3.25081e-05 0)
(0.00172582 -4.31932e-05 0)
(0.00122777 -0.00010417 0)
(0.00125655 -0.000116114 0)
(0.00160252 -0.00010205 0)
(0.00174661 -0.000136795 0)
(0.0018437 -3.99418e-05 0)
(0.000368884 -0.000658677 0)
(0.000204803 -0.000816553 0)
(0.000773905 -0.00044143 0)
(0.00161405 -0.000148274 0)
(0.00171755 -1.04068e-05 0)
(0.00105403 -0.000166966 0)
(0.00152616 -0.000209078 0)
(0.000627645 -0.000438032 0)
(0.00151583 -0.000157864 0)
(0.00124595 -7.83462e-05 0)
(0.00185894 -1.30018e-05 0)
(0.00170832 -0.000189781 0)
(0.00152603 -6.35974e-05 0)
(0.001651 -0.000118526 0)
(0.000442021 -0.000621341 0)
(0.000391613 -0.000651784 0)
(0.000857444 -0.000280754 0)
(7.69667e-05 -0.000911068 0)
(0.00122671 -0.000219664 0)
(0.000656973 -0.000435602 0)
(0.00131381 -0.000107707 0)
(0.00181762 -6.38212e-05 0)
(0.00109594 -0.000142963 0)
(0.00171509 -6.14207e-05 0)
(0.000349494 -0.000708193 0)
(0.000233285 -0.000785077 0)
(0.000796687 -0.000321376 0)
(0.00137761 -0.000170626 0)
(0.00177376 -3.30898e-05 0)
(0.00168201 -0.000156509 0)
(0.000159412 -0.000782238 0)
(0.00149252 -8.54364e-06 0)
(0.00133544 -4.39992e-05 0)
(0.00144164 -7.89276e-06 0)
(0.00138962 -4.51066e-05 0)
(0.00129207 -7.85189e-05 0)
(0.00108452 -0.000247559 0)
(0.00112796 -0.000140914 0)
(0.0015773 -7.51189e-06 0)
(0.0013527 -4.09235e-05 0)
(0.000330549 -0.000709808 0)
(0.00137584 -0.000110342 0)
(0.00192041 -4.2014e-05 0)
(0.00185901 -0.00010251 0)
(0.00159944 -0.000204561 0)
(0.00124862 -7.54224e-05 0)
(0.00176593 -1.10365e-05 0)
(0.000100452 -0.000824157 0)
(0.00178545 -0.000101394 0)
(7.88565e-05 -0.000887591 0)
(0.00120435 -0.000201075 0)
(0.00147276 -5.30531e-05 0)
(0.000263544 -0.000767517 0)
(0.00160957 -2.32375e-05 0)
(0.00145547 -2.10065e-05 0)
(0.0011596 -0.000186416 0)
(0.00135198 -4.39042e-05 0)
(0.000950263 -0.000223825 0)
(0.00151321 -3.33552e-05 0)
(0.000608306 -0.000462765 0)
(0.00125589 -8.40702e-05 0)
(0.000820266 -0.000329987 0)
(0.00141987 -1.84614e-05 0)
(0.00142861 -0.000138768 0)
(0.00140604 -2.12126e-05 0)
(0.000729251 -0.000365761 0)
(0.000866264 -0.000289865 0)
(0.00174818 -0.000118195 0)
(0.00182322 -0.000149122 0)
(0.00194329 -1.93571e-05 0)
(0.00059459 -0.000577254 0)
(0.00173244 -8.76634e-05 0)
(0.00182847 -2.89692e-05 0)
(0.00109695 -0.000178483 0)
(0.00128697 -0.000221798 0)
(0.000749172 -0.000388954 0)
(0.00150059 -0.0001368 0)
(0.000987287 -0.000231614 0)
(0.00162627 -4.82948e-05 0)
(0.00162079 -0.000174144 0)
(0.00157993 -4.53259e-05 0)
(0.00162453 -6.58235e-05 0)
(0.0013098 -7.33625e-05 0)
(0.000936415 -0.000238775 0)
(0.0010992 -0.000217924 0)
(0.000274128 -0.000741666 0)
(0.00097018 -0.000344677 0)
(0.00110733 -0.00017495 0)
(0.00137293 -3.30622e-05 0)
(0.000122185 -0.00088636 0)
(0.00042 -0.000602826 0)
(0.00165713 -2.77692e-05 0)
(0.00167396 -7.17026e-06 0)
(0.00142696 -1.04394e-05 0)
(0.00092053 -0.00029325 0)
(0.00100278 -0.000202576 0)
(0.00145266 -0.000217163 0)
(0.00143606 -9.74867e-05 0)
(0.00170737 -7.80868e-05 0)
(0.00143469 -0.000175564 0)
(0.000895578 -0.000286988 0)
(0.00190093 -7.70427e-06 0)
(0.00174765 -0.000194039 0)
(0.00115784 -0.000238897 0)
(0.00181452 -5.34083e-05 0)
(0.00196492 -5.11879e-06 0)
(0.00181991 -0.000182359 0)
(0.00107892 -0.000169865 0)
)
;

boundaryField
{
    back
    {
        type            empty;
    }
    front
    {
        type            empty;
    }
    down
    {
        type            pointFixedDisplacementZeroShear;
    }
    right
    {
        type            pointSolidTraction;
        tractionSeries  
{
        fileName        "$FOAM_CASE/constant/timeVsTraction";
        outOfBounds     clamp;
}
        pressure        uniform 0;
    }
    up
    {
        type            pointSolidTraction;
        traction        uniform (0 0 0);
        pressure        uniform 0;
    }
    left
    {
        type            pointFixedDisplacementZeroShear;
    }
    hole
    {
        type            pointSolidTraction;
        traction        uniform (0 0 0);
        pressure        uniform 0;
    }
}


// ************************************************************************* //
