/*--------------------------------*- C++ -*----------------------------------*\
| =========                 |                                                 |
| \\      /  F ield         | OpenFOAM: The Open Source CFD Toolbox           |
|  \\    /   O peration     | Version:  v2012                                 |
|   \\  /    A nd           | Website:  www.openfoam.com                      |
|    \\/     M anipulation  |                                                 |
\*---------------------------------------------------------------------------*/
FoamFile
{
    version     2.0;
    format      ascii;
    class       volVectorField;
    location    "19";
    object      D_0;
}
// * * * * * * * * * * * * * * * * * * * * * * * * * * * * * * * * * * * * * //

dimensions      [0 1 0 0 0 0 0];


internalField   nonuniform List<vector> 
1000
(
(0.000141221 5.84955e-05 0)
(0.00015028 -0.000148599 0)
(0.000153083 -0.000330461 0)
(0.000145201 -0.000498326 0)
(0.000131706 -0.000625197 0)
(0.000112959 -0.000730264 0)
(9.29023e-05 -0.000796055 0)
(7.37594e-05 -0.000843809 0)
(5.63922e-05 -0.000865325 0)
(4.30497e-05 -0.000877168 0)
(0.000421057 -3.58798e-05 0)
(0.000445177 -0.000236197 0)
(0.000447588 -0.000395135 0)
(0.00042127 -0.000534676 0)
(0.000378923 -0.000629379 0)
(0.000325981 -0.0007059 0)
(0.000269342 -0.000748851 0)
(0.000217529 -0.000781383 0)
(0.000170703 -0.000795302 0)
(0.000136875 -0.000806548 0)
(0.000653645 -0.000212374 0)
(0.000674943 -0.000379715 0)
(0.00066001 -0.000478641 0)
(0.000611047 -0.000557575 0)
(0.00054492 -0.000596209 0)
(0.000470124 -0.000629201 0)
(0.000393111 -0.000643556 0)
(0.000326664 -0.00066129 0)
(0.000268386 -0.000672441 0)
(0.000230018 -0.000689359 0)
(0.000806494 -0.000387631 0)
(0.000807045 -0.000483297 0)
(0.000764087 -0.000497636 0)
(0.000707321 -0.000516832 0)
(0.000636859 -0.000507004 0)
(0.000570263 -0.000513151 0)
(0.000501561 -0.000511497 0)
(0.000446337 -0.00052488 0)
(0.000395937 -0.000536785 0)
(0.000360704 -0.000556016 0)
(0.0008484 -0.00047152 0)
(0.000820049 -0.000487327 0)
(0.000769362 -0.00045649 0)
(0.000723339 -0.000453826 0)
(0.000666863 -0.000431588 0)
(0.000622978 -0.000434537 0)
(0.000571827 -0.000425132 0)
(0.000535254 -0.000435844 0)
(0.00049306 -0.000437507 0)
(0.000462204 -0.000448913 0)
(0.000846777 -0.000442175 0)
(0.000818696 -0.000425526 0)
(0.000778466 -0.000405563 0)
(0.000748067 -0.000398141 0)
(0.000703142 -0.000383109 0)
(0.00067108 -0.000380446 0)
(0.000629311 -0.00037074 0)
(0.000601322 -0.000371636 0)
(0.000563733 -0.000365162 0)
(0.000538723 -0.000367071 0)
(0.000832433 -0.000405928 0)
(0.000815079 -0.000391011 0)
(0.000784075 -0.000373014 0)
(0.000759503 -0.000361665 0)
(0.000723587 -0.00034506 0)
(0.000697658 -0.000338064 0)
(0.000662831 -0.000325571 0)
(0.000638929 -0.000321659 0)
(0.000607936 -0.000312541 0)
(0.000586224 -0.000309902 0)
(0.000847803 -0.000360404 0)
(0.000829263 -0.000343339 0)
(0.00080514 -0.000325375 0)
(0.000785804 -0.00031239 0)
(0.00075805 -0.000296453 0)
(0.000738286 -0.000287154 0)
(0.00071034 -0.000274096 0)
(0.000691113 -0.000267102 0)
(0.000664884 -0.000256391 0)
(0.000646321 -0.000250157 0)
(0.000847044 -0.000324826 0)
(0.000833403 -0.000308483 0)
(0.000813331 -0.000291581 0)
(0.00079846 -0.000277983 0)
(0.000775811 -0.000262396 0)
(0.000760166 -0.000251329 0)
(0.000737413 -0.000237922 0)
(0.000721673 -0.000228621 0)
(0.000700331 -0.000217511 0)
(0.000684471 -0.000209037 0)
(0.000868366 -0.000283931 0)
(0.000855606 -0.000267064 0)
(0.000839588 -0.000249902 0)
(0.000827014 -0.000236229 0)
(0.000809429 -0.000220559 0)
(0.000796601 -0.000209385 0)
(0.000778937 -0.000195574 0)
(0.000765662 -0.00018596 0)
(0.000749293 -0.000174281 0)
(0.000735091 -0.000165174 0)
(0.000872088 -0.000250153 0)
(0.000863202 -0.000234267 0)
(0.000850841 -0.00021788 0)
(0.000841258 -0.000204811 0)
(0.000827953 -0.000189532 0)
(0.000817387 -0.000178672 0)
(0.000804542 -0.000164814 0)
(0.000793026 -0.000155632 0)
(0.000781697 -0.000143463 0)
(0.000769561 -0.000135548 0)
(0.000892235 -0.000217183 0)
(0.000884559 -0.000201088 0)
(0.000875 -0.0001853 0)
(0.000866873 -0.00017224 0)
(0.000856652 -0.000158184 0)
(0.000847703 -0.000147174 0)
(0.000837593 -0.000134868 0)
(0.000827786 -0.000125153 0)
(0.000818332 -0.000114581 0)
(0.000808005 -0.000105694 0)
(0.000898944 -0.000185009 0)
(0.000894715 -0.000170667 0)
(0.000888298 -0.000156151 0)
(0.0008829 -0.000144434 0)
(0.000875921 -0.000131267 0)
(0.000869312 -0.000121315 0)
(0.000862549 -0.000109603 0)
(0.000854842 -0.000100763 0)
(0.000848701 -9.06008e-05 0)
(0.000840168 -8.23907e-05 0)
(0.00091465 -0.000158049 0)
(0.000911762 -0.000144063 0)
(0.000907615 -0.00013073 0)
(0.000903374 -0.000119316 0)
(0.000898737 -0.000107654 0)
(0.000893209 -9.79537e-05 0)
(0.000888681 -8.78195e-05 0)
(0.000882084 -7.9277e-05 0)
(0.000877989 -7.05592e-05 0)
(0.000870727 -6.29324e-05 0)
(0.000922058 -0.000128598 0)
(0.000921848 -0.000116879 0)
(0.000920012 -0.000105411 0)
(0.000917975 -9.57695e-05 0)
(0.000915417 -8.57071e-05 0)
(0.000911841 -7.7377e-05 0)
(0.000909159 -6.86596e-05 0)
(0.000904354 -6.11461e-05 0)
(0.000901843 -5.37106e-05 0)
(0.000896209 -4.67993e-05 0)
(0.000932973 -0.000105327 0)
(0.000934067 -9.47072e-05 0)
(0.000933933 -8.49179e-05 0)
(0.000933019 -7.61357e-05 0)
(0.000932073 -6.77949e-05 0)
(0.000929583 -6.02436e-05 0)
(0.000928359 -5.31883e-05 0)
(0.000924705 -4.65043e-05 0)
(0.000923455 -4.05814e-05 0)
(0.000919085 -3.46539e-05 0)
(0.000938981 -7.85569e-05 0)
(0.000941878 -7.05241e-05 0)
(0.000943215 -6.29232e-05 0)
(0.000943867 -5.62227e-05 0)
(0.000944092 -4.97598e-05 0)
(0.000943071 -4.38828e-05 0)
(0.000942739 -3.84417e-05 0)
(0.00094052 -3.3098e-05 0)
(0.000939928 -2.85589e-05 0)
(0.000936956 -2.36862e-05 0)
(0.000945407 -5.73775e-05 0)
(0.000949257 -5.10735e-05 0)
(0.000951625 -4.54622e-05 0)
(0.000953142 -4.01829e-05 0)
(0.000954259 -3.55239e-05 0)
(0.000954108 -3.0939e-05 0)
(0.000954513 -2.71066e-05 0)
(0.000953219 -2.30311e-05 0)
(0.000953205 -1.98914e-05 0)
(0.00095121 -1.62949e-05 0)
(0.000948707 -3.23999e-05 0)
(0.000953467 -2.88894e-05 0)
(0.000956543 -2.5593e-05 0)
(0.000958885 -2.26297e-05 0)
(0.000960516 -1.98794e-05 0)
(0.000961172 -1.72405e-05 0)
(0.000961919 -1.49654e-05 0)
(0.000961443 -1.25355e-05 0)
(0.000961636 -1.06639e-05 0)
(0.000960459 -8.43671e-06 0)
(0.000950834 -1.21815e-05 0)
(0.000955942 -1.07466e-05 0)
(0.00095936 -9.57386e-06 0)
(0.000962027 -8.37034e-06 0)
(0.000963938 -7.42277e-06 0)
(0.000964927 -6.39495e-06 0)
(0.00096589 -5.64023e-06 0)
(0.000965768 -4.75534e-06 0)
(0.000966117 -4.15471e-06 0)
(0.000965309 -3.40718e-06 0)
(0.000965294 -2.38061e-06 0)
(0.000960643 -5.17486e-06 0)
(0.00095197 -1.06922e-05 0)
(0.000938118 -1.53631e-05 0)
(0.000920968 -2.32826e-05 0)
(0.000898204 -3.20078e-05 0)
(0.000872792 -4.446e-05 0)
(0.000841671 -5.98972e-05 0)
(0.000807532 -8.03263e-05 0)
(0.000770438 -0.000104173 0)
(0.000961595 -1.52851e-06 0)
(0.000956922 -1.87184e-06 0)
(0.000948196 -5.78778e-06 0)
(0.00093448 -7.83631e-06 0)
(0.000917712 -1.42596e-05 0)
(0.000895823 -1.93767e-05 0)
(0.000872217 -2.99245e-05 0)
(0.00084359 -3.8637e-05 0)
(0.000814019 -5.58761e-05 0)
(0.000781079 -6.76381e-05 0)
(0.000962246 -5.74759e-07 0)
(0.000958171 1.47342e-06 0)
(0.000950666 -3.45529e-07 0)
(0.000938476 4.7837e-07 0)
(0.000923464 -3.59585e-06 0)
(0.000903317 -5.21561e-06 0)
(0.000880538 -1.3861e-05 0)
(0.000853203 -1.85836e-05 0)
(0.000821686 -3.49255e-05 0)
(0.00079005 -4.19242e-05 0)
(0.000957607 -6.10047e-07 0)
(0.000953584 2.73313e-06 0)
(0.000946128 9.05508e-07 0)
(0.000934422 3.66733e-06 0)
(0.000920063 -5.62533e-08 0)
(0.000901748 1.8427e-06 0)
(0.000881131 -5.46585e-06 0)
(0.00085784 -4.57716e-06 0)
(0.000830682 -1.78863e-05 0)
(0.000803598 -1.92919e-05 0)
(0.000960342 -1.68982e-07 0)
(0.000956865 4.38371e-06 0)
(0.000950131 3.38281e-06 0)
(0.000939776 7.31633e-06 0)
(0.000926156 4.23246e-06 0)
(0.00090929 7.09713e-06 0)
(0.000888509 4.67432e-07 0)
(0.000866215 2.08467e-06 0)
(0.000838362 -8.98102e-06 0)
(0.000812233 -9.30706e-06 0)
(0.000956387 -3.49128e-07 0)
(0.000953117 4.89039e-06 0)
(0.000946621 3.7335e-06 0)
(0.000937192 8.88302e-06 0)
(0.000924571 6.27779e-06 0)
(0.000909975 1.11604e-05 0)
(0.000891581 5.96861e-06 0)
(0.000872841 9.92578e-06 0)
(0.000848769 1.21864e-06 0)
(0.000826004 2.80099e-06 0)
(0.000961175 -2.51798e-07 0)
(0.000958285 5.02992e-06 0)
(0.000952096 4.01125e-06 0)
(0.000943561 8.96393e-06 0)
(0.000931137 6.49132e-06 0)
(0.000917441 1.08449e-05 0)
(0.000898954 6.33349e-06 0)
(0.000880971 9.70191e-06 0)
(0.000857285 3.09867e-06 0)
(0.000835694 4.55297e-06 0)
(0.000959204 -2.87827e-07 0)
(0.000956608 5.226e-06 0)
(0.000950872 4.33591e-06 0)
(0.000943387 9.74312e-06 0)
(0.000932209 7.90379e-06 0)
(0.000920526 1.28711e-05 0)
(0.000904316 9.5244e-06 0)
(0.000888995 1.33444e-05 0)
(0.000868308 8.2478e-06 0)
(0.000849465 1.00633e-05 0)
(0.000965633 -3.6814e-07 0)
(0.000963248 4.43706e-06 0)
(0.00095764 3.38825e-06 0)
(0.000950638 7.91274e-06 0)
(0.000939579 6.05449e-06 0)
(0.000928424 9.9993e-06 0)
(0.000912442 7.14318e-06 0)
(0.000897786 1.00753e-05 0)
(0.000877907 6.24793e-06 0)
(0.000860248 7.57262e-06 0)
(0.000966297 -2.65781e-07 0)
(0.000964205 4.47525e-06 0)
(0.000959157 3.74889e-06 0)
(0.000953085 8.23314e-06 0)
(0.000943289 6.94749e-06 0)
(0.000933696 1.0772e-05 0)
(0.000919672 8.66767e-06 0)
(0.000906988 1.13156e-05 0)
(0.000889461 8.29173e-06 0)
(0.000874057 9.364e-06 0)
(0.000974017 -4.14353e-07 0)
(0.000972026 3.3549e-06 0)
(0.000967079 2.35787e-06 0)
(0.000961256 5.8221e-06 0)
(0.000951654 4.40199e-06 0)
(0.000942424 7.24587e-06 0)
(0.000928819 5.30231e-06 0)
(0.000916766 7.1795e-06 0)
(0.000900093 4.66561e-06 0)
(0.000885801 5.25741e-06 0)
(0.00097739 -2.58223e-07 0)
(0.000975649 3.3522e-06 0)
(0.000971242 2.70519e-06 0)
(0.000966163 5.96273e-06 0)
(0.000957665 4.94997e-06 0)
(0.000949606 7.46386e-06 0)
(0.000937586 5.92435e-06 0)
(0.000926999 7.33485e-06 0)
(0.000912203 5.1808e-06 0)
(0.000899634 5.28493e-06 0)
(0.00098615 -3.98101e-07 0)
(0.000984462 2.31967e-06 0)
(0.000980176 1.41663e-06 0)
(0.000975256 3.80798e-06 0)
(0.000967022 2.62256e-06 0)
(0.000959272 4.38095e-06 0)
(0.000947739 2.7996e-06 0)
(0.000937745 3.65823e-06 0)
(0.000923716 1.58264e-06 0)
(0.00091218 1.35348e-06 0)
(0.000991936 -2.41108e-07 0)
(0.000990447 2.40628e-06 0)
(0.00098661 1.80381e-06 0)
(0.000982263 4.07447e-06 0)
(0.000974905 3.13148e-06 0)
(0.00096803 4.68244e-06 0)
(0.000957729 3.22945e-06 0)
(0.000948803 3.81148e-06 0)
(0.00093631 1.73193e-06 0)
(0.000925928 1.22156e-06 0)
(0.00100149 -3.07067e-07 0)
(0.00100005 1.72587e-06 0)
(0.000996348 1.006e-06 0)
(0.000992161 2.69629e-06 0)
(0.000985084 1.67771e-06 0)
(0.000978535 2.72866e-06 0)
(0.000968688 1.25332e-06 0)
(0.000960349 1.44676e-06 0)
(0.000948495 -6.11254e-07 0)
(0.000939036 -1.40412e-06 0)
(0.00100918 -1.39942e-07 0)
(0.00100789 2.03596e-06 0)
(0.00100454 1.61991e-06 0)
(0.00100079 3.4009e-06 0)
(0.00099437 2.60049e-06 0)
(0.000988482 3.6504e-06 0)
(0.000979556 2.28272e-06 0)
(0.000972015 2.36532e-06 0)
(0.000961315 3.36191e-07 0)
(0.000952712 -6.85848e-07 0)
(0.00101922 -7.53427e-08 0)
(0.00101799 1.92756e-06 0)
(0.00101478 1.64629e-06 0)
(0.00101121 3.25986e-06 0)
(0.00100509 2.60632e-06 0)
(0.000999527 3.50103e-06 0)
(0.000991056 2.28273e-06 0)
(0.000984015 2.23246e-06 0)
(0.000973926 3.20143e-07 0)
(0.000966018 -7.77383e-07 0)
(0.00102812 1.51257e-07 0)
(0.00102701 2.63231e-06 0)
(0.00102407 2.77082e-06 0)
(0.00102083 4.80718e-06 0)
(0.00101522 4.48136e-06 0)
(0.00101017 5.70149e-06 0)
(0.00100238 4.68577e-06 0)
(0.000995983 4.84372e-06 0)
(0.000986705 3.01186e-06 0)
(0.00097952 2.00519e-06 0)
(0.00103816 4.05939e-07 0)
(0.00103712 3.36884e-06 0)
(0.00103435 4.01288e-06 0)
(0.00103133 6.49331e-06 0)
(0.00102605 6.65885e-06 0)
(0.00102135 8.23703e-06 0)
(0.00101403 7.68473e-06 0)
(0.0010081 8.05286e-06 0)
(0.000999412 6.65052e-06 0)
(0.000992803 5.64129e-06 0)
(0.00104733 7.75864e-07 0)
(0.00104639 4.72152e-06 0)
(0.00104385 6.07858e-06 0)
(0.00104112 9.47646e-06 0)
(0.00103629 1.02759e-05 0)
(0.00103201 1.26434e-05 0)
(0.00102532 1.25994e-05 0)
(0.00101992 1.35744e-05 0)
(0.00101197 1.25206e-05 0)
(0.00100595 1.19024e-05 0)
(0.000735425 -0.000123496 0)
(0.000715892 -0.000124988 0)
(0.00069405 -0.000129065 0)
(0.000673223 -0.0001315 0)
(0.000650299 -0.000135647 0)
(0.000628724 -0.000139097 0)
(0.0006052 -0.000143651 0)
(0.000583065 -0.000147984 0)
(0.000559337 -0.000153227 0)
(0.000536965 -0.000158252 0)
(0.000513467 -0.000164009 0)
(0.000491201 -0.000169864 0)
(0.000468269 -0.000176029 0)
(0.000446429 -0.00018274 0)
(0.00042435 -0.000189264 0)
(0.000403167 -0.000196863 0)
(0.000382236 -0.000203797 0)
(0.000361817 -0.000212401 0)
(0.000342455 -0.000219967 0)
(0.000322713 -0.000229817 0)
(0.00075489 -8.29322e-05 0)
(0.000737574 -8.40533e-05 0)
(0.000720057 -8.82649e-05 0)
(0.000701255 -9.06703e-05 0)
(0.000683184 -9.43402e-05 0)
(0.000664389 -9.73685e-05 0)
(0.000644693 -0.000101357 0)
(0.000626404 -0.000105121 0)
(0.000605179 -0.000109463 0)
(0.000585984 -0.00011403 0)
(0.000565327 -0.000118774 0)
(0.000545925 -0.000124215 0)
(0.000525883 -0.000129372 0)
(0.000506809 -0.000135745 0)
(0.000487624 -0.00014134 0)
(0.000469356 -0.00014872 0)
(0.000451389 -0.000154825 0)
(0.000434449 -0.000163315 0)
(0.00041817 -0.000170114 0)
(0.000403262 -0.000179828 0)
(0.000762107 -5.58431e-05 0)
(0.000744986 -5.61358e-05 0)
(0.000727436 -6.06563e-05 0)
(0.000710378 -6.1393e-05 0)
(0.000692353 -6.59821e-05 0)
(0.00067487 -6.73705e-05 0)
(0.000656678 -7.18676e-05 0)
(0.000638954 -7.42762e-05 0)
(0.000620669 -7.94574e-05 0)
(0.000603225 -8.22716e-05 0)
(0.000585432 -8.74726e-05 0)
(0.000568338 -9.14822e-05 0)
(0.000551312 -9.69427e-05 0)
(0.00053497 -0.00010201 0)
(0.000519029 -0.000107872 0)
(0.000503897 -0.000113947 0)
(0.000489392 -0.000120312 0)
(0.000476065 -0.000127382 0)
(0.000463371 -0.000134334 0)
(0.000452734 -0.000142394 0)
(0.00078045 -3.04413e-05 0)
(0.00076526 -3.0446e-05 0)
(0.000751558 -3.47471e-05 0)
(0.000735689 -3.54886e-05 0)
(0.000721694 -3.98467e-05 0)
(0.000705204 -4.13723e-05 0)
(0.000691219 -4.58775e-05 0)
(0.000673931 -4.82162e-05 0)
(0.000660597 -5.29646e-05 0)
(0.000644378 -5.61506e-05 0)
(0.000630375 -6.12089e-05 0)
(0.000615081 -6.52376e-05 0)
(0.000601175 -7.06869e-05 0)
(0.000586915 -7.55514e-05 0)
(0.000573693 -8.14532e-05 0)
(0.000560738 -8.71338e-05 0)
(0.000548716 -9.35265e-05 0)
(0.000537455 -9.9984e-05 0)
(0.000527131 -0.000106851 0)
(0.000518055 -0.000114021 0)
(0.000789676 -1.78352e-05 0)
(0.000775566 -1.78577e-05 0)
(0.000762161 -2.15346e-05 0)
(0.000747889 -2.20599e-05 0)
(0.000734172 -2.59567e-05 0)
(0.0007199 -2.70706e-05 0)
(0.000706122 -3.12499e-05 0)
(0.000692041 -3.29953e-05 0)
(0.000678453 -3.76409e-05 0)
(0.000664806 -3.99316e-05 0)
(0.000651707 -4.48989e-05 0)
(0.000638731 -4.79602e-05 0)
(0.000626405 -5.32215e-05 0)
(0.000614384 -5.71406e-05 0)
(0.000603121 -6.27115e-05 0)
(0.000592363 -6.75024e-05 0)
(0.000582461 -7.34031e-05 0)
(0.000573279 -7.90344e-05 0)
(0.000565055 -8.5261e-05 0)
(0.000557712 -9.1665e-05 0)
(0.000806559 -4.18442e-06 0)
(0.00079438 -4.03028e-06 0)
(0.000783383 -7.57698e-06 0)
(0.00077081 -7.98987e-06 0)
(0.000759738 -1.18213e-05 0)
(0.000746983 -1.28846e-05 0)
(0.000736 -1.69866e-05 0)
(0.000723327 -1.87555e-05 0)
(0.000712593 -2.31325e-05 0)
(0.000700395 -2.56404e-05 0)
(0.000689986 -3.03013e-05 0)
(0.000678553 -3.35565e-05 0)
(0.000668696 -3.85133e-05 0)
(0.000658296 -4.25075e-05 0)
(0.000649281 -4.77646e-05 0)
(0.000640191 -5.24754e-05 0)
(0.000632342 -5.80239e-05 0)
(0.00062484 -6.34134e-05 0)
(0.000618503 -6.92328e-05 0)
(0.00061284 -7.524e-05 0)
(0.000817164 -5.94622e-07 0)
(0.000806157 -7.06048e-07 0)
(0.000795599 -3.61956e-06 0)
(0.000784395 -4.17327e-06 0)
(0.000773821 -7.40939e-06 0)
(0.000762637 -8.46736e-06 0)
(0.000752218 -1.20292e-05 0)
(0.000741277 -1.3638e-05 0)
(0.000731205 -1.75293e-05 0)
(0.000720732 -1.97241e-05 0)
(0.000711218 -2.39191e-05 0)
(0.000701446 -2.67487e-05 0)
(0.000692714 -3.12197e-05 0)
(0.000683882 -3.47146e-05 0)
(0.000676166 -3.94398e-05 0)
(0.000668526 -4.35991e-05 0)
(0.000662059 -4.85689e-05 0)
(0.000655879 -5.33494e-05 0)
(0.00065088 -5.85847e-05 0)
(0.00064646 -6.38802e-05 0)
(0.000833164 5.83678e-06 0)
(0.000823867 5.6722e-06 0)
(0.0008149 2.97599e-06 0)
(0.000805335 2.34198e-06 0)
(0.000796478 -6.9261e-07 0)
(0.000786847 -1.84899e-06 0)
(0.000778229 -5.20316e-06 0)
(0.000768762 -6.91923e-06 0)
(0.000760518 -1.05775e-05 0)
(0.000751465 -1.28733e-05 0)
(0.00074374 -1.68222e-05 0)
(0.00073536 -1.97001e-05 0)
(0.000728316 -2.39257e-05 0)
(0.000720885 -2.73729e-05 0)
(0.000714696 -3.1856e-05 0)
(0.000708528 -3.58488e-05 0)
(0.000703349 -4.05593e-05 0)
(0.000698837 -4.50718e-05 0)
(0.000694769 -4.9957e-05 0)
(0.000691616 -5.49158e-05 0)
(0.000844904 4.37273e-06 0)
(0.000836574 3.94973e-06 0)
(0.000828107 1.68269e-06 0)
(0.000819592 8.73315e-07 0)
(0.000811291 -1.72379e-06 0)
(0.000802782 -2.95632e-06 0)
(0.000794779 -5.8747e-06 0)
(0.000786481 -7.56145e-06 0)
(0.000778916 -1.07853e-05 0)
(0.000771037 -1.29502e-05 0)
(0.000764068 -1.64534e-05 0)
(0.000756817 -1.91139e-05 0)
(0.000750618 -2.28571e-05 0)
(0.0007442 -2.60244e-05 0)
(0.00073897 -2.99467e-05 0)
(0.000733578 -3.36298e-05 0)
(0.000729549 -3.76295e-05 0)
(0.00072535 -4.18503e-05 0)
(0.000722343 -4.62561e-05 0)
(0.000719949 -5.05669e-05 0)
(0.000860402 6.62729e-06 0)
(0.000853452 6.08487e-06 0)
(0.000846072 4.00875e-06 0)
(0.000838932 3.07154e-06 0)
(0.000831767 6.75732e-07 0)
(0.000824587 -6.81322e-07 0)
(0.000817759 -3.3854e-06 0)
(0.000810719 -5.1788e-06 0)
(0.000804347 -8.17519e-06 0)
(0.000797635 -1.0412e-05 0)
(0.000791847 -1.36794e-05 0)
(0.000785655 -1.63561e-05 0)
(0.000780593 -1.98672e-05 0)
(0.000775098 -2.29672e-05 0)
(0.000770927 -2.66902e-05 0)
(0.00076628 -3.01797e-05 0)
(0.000763197 -3.40805e-05 0)
(0.000759489 -3.7899e-05 0)
(0.000757749 -4.19519e-05 0)
(0.000755787 -4.6056e-05 0)
(0.000873021 2.97535e-06 0)
(0.000866794 2.26035e-06 0)
(0.000859905 4.30913e-07 0)
(0.000853504 -6.16258e-07 0)
(0.000846865 -2.7328e-06 0)
(0.000840457 -4.13098e-06 0)
(0.000834173 -6.52497e-06 0)
(0.000827931 -8.28841e-06 0)
(0.000822111 -1.09438e-05 0)
(0.000816212 -1.30787e-05 0)
(0.000810973 -1.59735e-05 0)
(0.000805597 -1.84761e-05 0)
(0.000801061 -2.15833e-05 0)
(0.000796388 -2.44378e-05 0)
(0.000792681 -2.77279e-05 0)
(0.000788897 -3.09019e-05 0)
(0.00078614 -3.43518e-05 0)
(0.000783444 -3.77878e-05 0)
(0.000781734 -4.14011e-05 0)
(0.000780359 -4.49965e-05 0)
(0.000888215 3.20709e-06 0)
(0.00088299 2.37804e-06 0)
(0.000876858 6.91637e-07 0)
(0.000871491 -4.73172e-07 0)
(0.000865618 -2.428e-06 0)
(0.000860212 -3.92354e-06 0)
(0.000854709 -6.15273e-06 0)
(0.000849405 -7.97606e-06 0)
(0.000844366 -1.04707e-05 0)
(0.000839323 -1.26158e-05 0)
(0.000834839 -1.5356e-05 0)
(0.00083022 -1.78101e-05 0)
(0.000826388 -2.07679e-05 0)
(0.00082236 -2.35088e-05 0)
(0.000819279 -2.66487e-05 0)
(0.000816013 -2.96432e-05 0)
(0.000813783 -3.29224e-05 0)
(0.000811468 -3.61271e-05 0)
(0.000810172 -3.94959e-05 0)
(0.000809046 -4.28601e-05 0)
(0.000901376 -6.08191e-07 0)
(0.000896751 -1.52122e-06 0)
(0.000891121 -3.14887e-06 0)
(0.000886181 -4.27692e-06 0)
(0.000880759 -6.11307e-06 0)
(0.00087586 -7.55464e-06 0)
(0.000870767 -9.60466e-06 0)
(0.000866011 -1.13497e-05 0)
(0.00086135 -1.36131e-05 0)
(0.000856862 -1.5646e-05 0)
(0.000852729 -1.81133e-05 0)
(0.000848648 -2.04123e-05 0)
(0.000845132 -2.30655e-05 0)
(0.000841603 -2.56011e-05 0)
(0.000838789 -2.84136e-05 0)
(0.000835964 -3.11473e-05 0)
(0.000833936 -3.40829e-05 0)
(0.00083198 -3.69676e-05 0)
(0.000830808 -3.99758e-05 0)
(0.000829885 -4.29575e-05 0)
(0.000916446 -8.01148e-07 0)
(0.000912272 -1.69971e-06 0)
(0.000907224 -3.22738e-06 0)
(0.000902938 -4.39812e-06 0)
(0.00089813 -6.15251e-06 0)
(0.00089384 -7.59935e-06 0)
(0.00088935 -9.57457e-06 0)
(0.000885167 -1.12898e-05 0)
(0.00088107 -1.34778e-05 0)
(0.000877112 -1.54468e-05 0)
(0.000873477 -1.78286e-05 0)
(0.000869871 -2.00343e-05 0)
(0.000866767 -2.25876e-05 0)
(0.000863637 -2.50008e-05 0)
(0.000861132 -2.76916e-05 0)
(0.000858608 -3.02772e-05 0)
(0.000856769 -3.3051e-05 0)
(0.000854978 -3.57754e-05 0)
(0.000853863 -3.8595e-05 0)
(0.000852947 -4.13863e-05 0)
(0.00093007 -3.37425e-06 0)
(0.000926332 -4.27813e-06 0)
(0.000921493 -5.72057e-06 0)
(0.000917653 -6.86389e-06 0)
(0.000913049 -8.50082e-06 0)
(0.000909203 -9.8851e-06 0)
(0.00090491 -1.17128e-05 0)
(0.000901152 -1.33373e-05 0)
(0.000897246 -1.53452e-05 0)
(0.000893655 -1.72052e-05 0)
(0.000890226 -1.93733e-05 0)
(0.000886926 -2.14425e-05 0)
(0.000884012 -2.37574e-05 0)
(0.000881103 -2.60046e-05 0)
(0.000878766 -2.84408e-05 0)
(0.000876319 -3.0825e-05 0)
(0.000874645 -3.33475e-05 0)
(0.000872907 -3.58233e-05 0)
(0.0008718 -3.83771e-05 0)
(0.00087084 -4.0884e-05 0)
(0.000944673 -2.60568e-06 0)
(0.000941243 -3.52491e-06 0)
(0.00093688 -4.85309e-06 0)
(0.000933357 -6.02428e-06 0)
(0.00092923 -7.52093e-06 0)
(0.000925688 -8.93706e-06 0)
(0.00092187 -1.06086e-05 0)
(0.00091839 -1.22561e-05 0)
(0.00091494 -1.41102e-05 0)
(0.000911604 -1.59617e-05 0)
(0.000908512 -1.79747e-05 0)
(0.000905464 -2.00206e-05 0)
(0.000902776 -2.21934e-05 0)
(0.000900098 -2.43838e-05 0)
(0.00089784 -2.67098e-05 0)
(0.000895622 -2.89849e-05 0)
(0.000893877 -3.13447e-05 0)
(0.000892133 -3.37378e-05 0)
(0.000890864 -3.61562e-05 0)
(0.000889722 -3.8532e-05 0)
(0.00095844 -2.66575e-06 0)
(0.00095527 -3.50343e-06 0)
(0.000951059 -4.79328e-06 0)
(0.00094784 -5.84267e-06 0)
(0.000943826 -7.30784e-06 0)
(0.000940635 -8.56077e-06 0)
(0.000936866 -1.02009e-05 0)
(0.000933806 -1.16517e-05 0)
(0.000930302 -1.34607e-05 0)
(0.000927179 -1.52327e-05 0)
(0.000924247 -1.70652e-05 0)
(0.00092143 -1.89947e-05 0)
(0.000918801 -2.09795e-05 0)
(0.000916353 -2.30396e-05 0)
(0.000914054 -2.51513e-05 0)
(0.000912052 -2.73073e-05 0)
(0.000910075 -2.95068e-05 0)
(0.000908406 -3.17099e-05 0)
(0.000906916 -3.39474e-05 0)
(0.000905641 -3.61427e-05 0)
(0.000972526 1.32411e-07 0)
(0.000969563 -6.23177e-07 0)
(0.000965631 -1.8779e-06 0)
(0.000962593 -2.85182e-06 0)
(0.000958883 -4.2859e-06 0)
(0.000955813 -5.46778e-06 0)
(0.000952413 -7.07945e-06 0)
(0.000949368 -8.46417e-06 0)
(0.00094625 -1.02239e-05 0)
(0.000943363 -1.181e-05 0)
(0.000940573 -1.37221e-05 0)
(0.000937881 -1.54713e-05 0)
(0.000935406 -1.75083e-05 0)
(0.000932978 -1.94051e-05 0)
(0.00093081 -2.15354e-05 0)
(0.000928681 -2.35538e-05 0)
(0.000926809 -2.57283e-05 0)
(0.00092498 -2.78388e-05 0)
(0.000923368 -3.00247e-05 0)
(0.000921822 -3.21507e-05 0)
(0.000986217 4.06054e-06 0)
(0.000983422 3.23945e-06 0)
(0.000979615 2.16866e-06 0)
(0.000976776 1.09503e-06 0)
(0.000973159 -1.48249e-07 0)
(0.000970322 -1.44156e-06 0)
(0.000966976 -2.85833e-06 0)
(0.000964141 -4.38351e-06 0)
(0.000961098 -5.95038e-06 0)
(0.000958356 -7.66322e-06 0)
(0.00095563 -9.37829e-06 0)
(0.00095308 -1.12349e-05 0)
(0.000950639 -1.309e-05 0)
(0.000948329 -1.5055e-05 0)
(0.000946148 -1.70263e-05 0)
(0.000944087 -1.90656e-05 0)
(0.000942132 -2.11191e-05 0)
(0.000940279 -2.31964e-05 0)
(0.000938503 -2.52891e-05 0)
(0.000936789 -2.73639e-05 0)
(0.000999847 1.04211e-05 0)
(0.000997195 9.67686e-06 0)
(0.000993572 8.60749e-06 0)
(0.000990864 7.57259e-06 0)
(0.000987368 6.30304e-06 0)
(0.000984628 5.01648e-06 0)
(0.000981744 3.43041e-06 0)
(0.000978808 1.98931e-06 0)
(0.000976042 2.5513e-07 0)
(0.000973328 -1.40396e-06 0)
(0.000970762 -3.28322e-06 0)
(0.00096827 -5.10704e-06 0)
(0.000965929 -7.10519e-06 0)
(0.000963667 -9.05064e-06 0)
(0.000961549 -1.11302e-05 0)
(0.000959508 -1.31587e-05 0)
(0.000957582 -1.52786e-05 0)
(0.000955716 -1.73552e-05 0)
(0.000953911 -1.94794e-05 0)
(0.000952118 -2.1572e-05 0)
(3.58567e-05 -0.000877542 0)
(3.2291e-05 -0.000879577 0)
(2.89842e-05 -0.00087961 0)
(2.64271e-05 -0.000881106 0)
(2.37867e-05 -0.000881266 0)
(2.16867e-05 -0.000882699 0)
(1.93457e-05 -0.000883232 0)
(1.758e-05 -0.000884647 0)
(1.54248e-05 -0.000885497 0)
(1.37805e-05 -0.000886865 0)
(1.16885e-05 -0.000887951 0)
(1.0008e-05 -0.000889217 0)
(7.86007e-06 -0.000890423 0)
(6.0123e-06 -0.000891488 0)
(3.68759e-06 -0.000892645 0)
(1.54428e-06 -0.00089335 0)
(-1.0892e-06 -0.00089422 0)
(-3.67485e-06 -0.000894327 0)
(-6.77341e-06 -0.000894581 0)
(-9.98924e-06 -0.000893755 0)
(0.000117737 -0.000811645 0)
(0.000106647 -0.000816961 0)
(9.65882e-05 -0.00082065 0)
(8.98941e-05 -0.000824775 0)
(8.33673e-05 -0.000828152 0)
(7.88911e-05 -0.000831773 0)
(7.30425e-05 -0.000834843 0)
(6.85692e-05 -0.000837982 0)
(6.29002e-05 -0.000840973 0)
(5.83754e-05 -0.000843744 0)
(5.27362e-05 -0.000846597 0)
(4.7994e-05 -0.000849025 0)
(4.21455e-05 -0.000851672 0)
(3.69405e-05 -0.000853723 0)
(3.05884e-05 -0.000856056 0)
(2.46077e-05 -0.000857636 0)
(1.74077e-05 -0.000859494 0)
(1.02629e-05 -0.000860438 0)
(1.80775e-06 -0.000861583 0)
(-6.98668e-06 -0.000861651 0)
(0.000203363 -0.000702459 0)
(0.000186553 -0.000715332 0)
(0.000170611 -0.000727371 0)
(0.000158634 -0.000737445 0)
(0.000146127 -0.000746616 0)
(0.000135524 -0.000753375 0)
(0.000123864 -0.000759756 0)
(0.000115615 -0.000765495 0)
(0.000105043 -0.00077087 0)
(9.67529e-05 -0.000775651 0)
(8.66064e-05 -0.000780373 0)
(7.80494e-05 -0.000784471 0)
(6.78183e-05 -0.000788699 0)
(5.86425e-05 -0.000792229 0)
(4.78088e-05 -0.00079599 0)
(3.7547e-05 -0.000798961 0)
(2.555e-05 -0.000802188 0)
(1.36191e-05 -0.000804528 0)
(-1.73582e-07 -0.000807068 0)
(-1.4485e-05 -0.000808629 0)
(0.000328005 -0.000570822 0)
(0.000304729 -0.000587931 0)
(0.000279711 -0.000604183 0)
(0.000259249 -0.000618805 0)
(0.00023834 -0.000632769 0)
(0.000220658 -0.000644435 0)
(0.000203592 -0.00065587 0)
(0.000187651 -0.000664432 0)
(0.000171447 -0.000672771 0)
(0.000157941 -0.000679991 0)
(0.000143405 -0.000687111 0)
(0.000130902 -0.00069327 0)
(0.000116873 -0.000699499 0)
(0.000104295 -0.000704817 0)
(8.98333e-05 -0.000710329 0)
(7.62244e-05 -0.000714948 0)
(6.04457e-05 -0.000719807 0)
(4.48349e-05 -0.000723794 0)
(2.6792e-05 -0.000727982 0)
(8.08121e-06 -0.000731326 0)
(0.000428201 -0.000455532 0)
(0.000403151 -0.000470857 0)
(0.000374588 -0.00048485 0)
(0.000350754 -0.000500245 0)
(0.000324483 -0.000514569 0)
(0.000301986 -0.000528729 0)
(0.000277715 -0.000541968 0)
(0.000256719 -0.000553853 0)
(0.000234127 -0.000565029 0)
(0.000214411 -0.00057435 0)
(0.000194389 -0.000584381 0)
(0.000177009 -0.000592622 0)
(0.000158447 -0.000601568 0)
(0.000141801 -0.000608818 0)
(0.00012342 -0.000616714 0)
(0.000106147 -0.000623154 0)
(8.67232e-05 -0.000630104 0)
(6.75148e-05 -0.00063594 0)
(4.57542e-05 -0.000642101 0)
(2.31746e-05 -0.000647561 0)
(0.000507684 -0.000367313 0)
(0.000486768 -0.000378425 0)
(0.000459336 -0.000388689 0)
(0.000437582 -0.000400396 0)
(0.000410456 -0.000412015 0)
(0.000387654 -0.000423331 0)
(0.000360816 -0.000435217 0)
(0.000337382 -0.000445542 0)
(0.000311182 -0.000456835 0)
(0.000289525 -0.00046677 0)
(0.000266035 -0.000477752 0)
(0.000245957 -0.000487055 0)
(0.000224257 -0.000497176 0)
(0.000204829 -0.000505682 0)
(0.000183783 -0.00051477 0)
(0.000163951 -0.000522536 0)
(0.000142361 -0.000530668 0)
(0.000120985 -0.000537918 0)
(9.75848e-05 -0.000545361 0)
(7.34036e-05 -0.000552487 0)
(0.000559985 -0.000308336 0)
(0.000539878 -0.000316772 0)
(0.000512921 -0.000323337 0)
(0.000491503 -0.000332044 0)
(0.000464374 -0.000339927 0)
(0.000441714 -0.000348936 0)
(0.000414692 -0.000357893 0)
(0.000391304 -0.000367225 0)
(0.000365111 -0.000377023 0)
(0.000341921 -0.000386651 0)
(0.000317123 -0.000396721 0)
(0.000294709 -0.000406236 0)
(0.000271152 -0.000416043 0)
(0.000249317 -0.000425134 0)
(0.000226395 -0.000434372 0)
(0.000204482 -0.000442947 0)
(0.000181345 -0.000451568 0)
(0.000158458 -0.000459782 0)
(0.000134146 -0.000468005 0)
(0.000109289 -0.000476298 0)
(0.000622635 -0.000247519 0)
(0.000602903 -0.000253761 0)
(0.000576899 -0.000259491 0)
(0.000556116 -0.000266013 0)
(0.00053029 -0.000272827 0)
(0.000508398 -0.000279683 0)
(0.000482546 -0.000287304 0)
(0.000459729 -0.000294602 0)
(0.000433927 -0.00030286 0)
(0.000410808 -0.000310658 0)
(0.00038552 -0.000319379 0)
(0.000362547 -0.000327512 0)
(0.000337963 -0.000336371 0)
(0.000315181 -0.000344627 0)
(0.000291137 -0.000353361 0)
(0.000268252 -0.000361638 0)
(0.000244342 -0.00037017 0)
(0.00022088 -0.000378577 0)
(0.000196627 -0.000387087 0)
(0.000172158 -0.000395996 0)
(0.000663634 -0.000206072 0)
(0.000643613 -0.000210523 0)
(0.000618336 -0.000215294 0)
(0.00059667 -0.000220351 0)
(0.000571069 -0.000226034 0)
(0.000548343 -0.000231772 0)
(0.000522692 -0.00023822 0)
(0.00049932 -0.000244625 0)
(0.000473819 -0.000251745 0)
(0.000450189 -0.000258776 0)
(0.000425124 -0.00026642 0)
(0.000401595 -0.000273966 0)
(0.000377136 -0.000281931 0)
(0.000353857 -0.000289838 0)
(0.000329967 -0.000297969 0)
(0.000306843 -0.000306147 0)
(0.000283325 -0.000314426 0)
(0.000260116 -0.000322938 0)
(0.000236739 -0.000331515 0)
(0.000213277 -0.000340627 0)
(0.000718395 -0.000162373 0)
(0.000699399 -0.000165131 0)
(0.000677127 -0.000169268 0)
(0.000656262 -0.000172506 0)
(0.000632698 -0.000177084 0)
(0.000610466 -0.000181043 0)
(0.000585852 -0.000186163 0)
(0.000562711 -0.000190947 0)
(0.000537438 -0.000196671 0)
(0.000513763 -0.000202267 0)
(0.000488398 -0.000208639 0)
(0.000464607 -0.000215014 0)
(0.000439571 -0.000221962 0)
(0.000415962 -0.000229034 0)
(0.000391492 -0.000236474 0)
(0.000368148 -0.000244184 0)
(0.00034434 -0.000252121 0)
(0.000321125 -0.000260531 0)
(0.000298063 -0.000269104 0)
(0.00027465 -0.000278468 0)
)
;

boundaryField
{
    back
    {
        type            empty;
    }
    left
    {
        type            symmetry;
    }
    hole
    {
        type            calculated;
        value           nonuniform List<vector> 
20
(
(0.000133949 0.000161633 -2.84056e-20)
(0.000400073 6.509e-05 0)
(0.000627998 -0.000124652 -5.1542e-20)
(0.000790135 -0.000332192 -6.49071e-22)
(0.000848157 -0.000455325 -4.99097e-21)
(0.000853269 -0.000447881 -5.19186e-22)
(0.000840973 -0.000413716 -3.2199e-21)
(0.000856417 -0.000368817 6.07783e-22)
(0.000854703 -0.00033353 4.47101e-21)