/*--------------------------------*- C++ -*----------------------------------*\
| =========                 |                                                 |
| \\      /  F ield         | OpenFOAM: The Open Source CFD Toolbox           |
|  \\    /   O peration     | Version:  v2012                                 |
|   \\  /    A nd           | Website:  www.openfoam.com                      |
|    \\/     M anipulation  |                                                 |
\*---------------------------------------------------------------------------*/
FoamFile
{
    version     2.0;
    format      ascii;
    class       volSymmTensorField;
    location    "19";
    object      sigma;
}
// * * * * * * * * * * * * * * * * * * * * * * * * * * * * * * * * * * * * * //

dimensions      [1 -1 -2 0 0 0 0];


internalField   nonuniform List<symmTensor> 
1000
(
(-1.99881e+08 5.4867e+06 4.30347e-09 -5.6096e+06 -1.81234e-10 -5.29235e+06)
(-1.31412e+08 -475156 1.55377e-08 -7.63123e+06 -1.38537e-09 1.74392e+07)
(-7.1458e+07 -5.18932e+06 6.9414e-09 -3.63396e+06 8.28019e-09 4.05736e+07)
(-2.44561e+07 -8.70401e+06 -6.1558e-09 3.8214e+06 -1.68411e-09 5.68691e+07)
(1.86102e+07 -1.04008e+07 -3.82823e-09 1.42682e+07 -1.19269e-09 7.1784e+07)
(5.09232e+07 -1.1079e+07 1.37102e-09 2.35828e+07 7.58867e-09 7.77338e+07)
(7.91006e+07 -9.56515e+06 -6.20564e-11 3.35741e+07 -7.0849e-11 7.9473e+07)
(9.69411e+07 -7.07214e+06 -6.15543e-09 3.88977e+07 -9.39695e-09 7.31025e+07)
(1.10398e+08 -3.11678e+06 -9.87366e-09 4.36221e+07 -6.8e-09 6.40241e+07)
(1.15893e+08 1.739e+06 4.2927e-09 4.22217e+07 1.80375e-09 5.26271e+07)
(-1.86417e+08 1.5067e+07 0 -5.94341e+06 0 -1.60425e+06)
(-1.22129e+08 -1.89772e+06 -1.31354e-08 -4.67861e+06 -6.89751e-09 2.0038e+07)
(-6.51587e+07 -1.44018e+07 1.44577e-08 752166 -6.60907e-10 4.12116e+07)
(-2.26672e+07 -2.36016e+07 -2.39616e-09 7.78827e+06 -1.97783e-08 5.36241e+07)
(1.60482e+07 -2.74233e+07 1.95683e-09 1.58378e+07 6.99595e-09 6.33099e+07)
(4.30355e+07 -2.78305e+07 1.67224e-08 2.04929e+07 1.88478e-08 6.39407e+07)
(6.58129e+07 -2.32427e+07 -5.88293e-10 2.53285e+07 -1.08404e-09 6.16854e+07)
(7.95238e+07 -1.61942e+07 -1.46596e-08 2.50938e+07 -1.07518e-09 5.4587e+07)
(8.86241e+07 -6.35761e+06 -2.17429e-08 2.59979e+07 -7.96175e-09 4.80608e+07)
(9.27278e+07 3.89333e+06 -7.49143e-09 2.23024e+07 -1.56536e-09 4.17152e+07)
(-1.60857e+08 1.9779e+07 2.68729e-08 -5.25683e+06 -1.44973e-08 4.59297e+06)
(-1.0648e+08 -4.95263e+06 -1.1363e-08 -584315 -1.15212e-08 2.08483e+07)
(-5.56535e+07 -2.15605e+07 -2.25041e-08 7.01501e+06 -8.49994e-09 3.55958e+07)
(-2.08378e+07 -3.26558e+07 -1.69442e-09 1.16858e+07 -5.57085e-09 3.96652e+07)
(9.38754e+06 -3.4207e+07 9.79075e-09 1.30026e+07 4.82754e-09 4.03021e+07)
(2.85543e+07 -3.27756e+07 2.71449e-08 1.0466e+07 1.02372e-08 3.72226e+07)
(4.44571e+07 -2.52921e+07 -2.40179e-08 7.97691e+06 3.82077e-09 3.49772e+07)
(5.37006e+07 -1.73177e+07 -2.51479e-08 3.21137e+06 2.98493e-10 3.26321e+07)
(6.15031e+07 -7.29601e+06 7.80039e-14 1.83243e+06 1.64164e-14 3.25927e+07)
(6.69471e+07 489916 -1.08949e-08 -1.2985e+06 -7.03115e-09 3.17579e+07)
(-1.24303e+08 2.04446e+07 1.1619e-09 -1.81204e+06 -3.60201e-10 9.06992e+06)
(-8.90376e+07 -7.32915e+06 2.09922e-08 2.30302e+06 4.07876e-09 1.00659e+07)
(-4.82324e+07 -2.43365e+07 -4.69384e-09 1.16732e+07 -3.37608e-09 1.27042e+07)
(-2.45518e+07 -3.06226e+07 1.0712e-08 5.42484e+06 9.85133e-10 8.64375e+06)
(-2.40106e+06 -2.81734e+07 -1.58157e-08 1.42566e+06 1.28735e-09 8.40969e+06)
(1.16191e+07 -2.66991e+07 -1.24141e-09 -6.0177e+06 2.09137e-11 1.04184e+07)
(2.37452e+07 -2.14597e+07 1.60884e-08 -9.60093e+06 5.28793e-09 1.38374e+07)
(3.2891e+07 -1.8189e+07 -2.31979e-09 -1.35371e+07 -3.81203e-09 1.73816e+07)
(4.16263e+07 -1.1868e+07 -2.63553e-09 -1.42466e+07 -3.54172e-09 2.05119e+07)
(4.80895e+07 -8.48507e+06 -2.44384e-09 -1.51513e+07 -3.26293e-09 2.15641e+07)
(-8.70919e+07 1.5076e+07 2.03877e-09 1.13364e+06 -6.25797e-09 -643979)
(-6.76272e+07 -6.41952e+06 -6.24254e-09 8498.94 2.34858e-09 -1.25711e+07)
(-4.49035e+07 -1.67729e+07 -1.34478e-08 3.20958e+06 4.82828e-09 -1.25082e+07)
(-3.33683e+07 -1.81411e+07 -6.39981e-10 -1.02127e+07 1.62425e-10 -1.30743e+07)
(-1.37039e+07 -2.06019e+07 2.95498e-08 -9.42545e+06 -6.05148e-09 -6.93882e+06)
(3.43855e+06 -2.17892e+07 1.12291e-08 -1.61722e+07 -5.49709e-09 -2.44984e+06)
(1.56714e+07 -2.07607e+07 -8.01441e-09 -1.51768e+07 3.7783e-09 3.2997e+06)
(2.16851e+07 -1.90843e+07 -5.76249e-09 -1.92125e+07 -6.1454e-09 6.08432e+06)
(2.81426e+07 -1.52557e+07 3.12205e-10 -1.91534e+07 4.9135e-11 8.23549e+06)
(3.26998e+07 -1.30608e+07 -1.15719e-08 -2.11493e+07 -4.94662e-09 8.82475e+06)
(-5.02238e+07 1.22774e+07 4.7446e-09 -5.89043e+06 -3.01007e-09 -1.62274e+07)
(-5.71009e+07 5.35341e+06 1.62233e-13 -7.41153e+06 -9.35755e-14 -1.93537e+07)
(-4.30554e+07 -5.80001e+06 4.7899e-10 -8.13767e+06 7.48031e-09 -1.53579e+07)
(-3.16453e+07 -1.07616e+07 7.13067e-09 -1.17178e+07 -1.47193e-08 -1.30089e+07)
(-1.77658e+07 -1.76669e+07 0 -9.45209e+06 0 -8.16538e+06)
(-6.62487e+06 -1.7729e+07 -8.52631e-09 -1.40721e+07 5.28376e-09 -6.2091e+06)
(5.26224e+06 -1.8356e+07 2.56525e-08 -1.38286e+07 3.74978e-09 -2.5699e+06)
(1.2083e+07 -1.56515e+07 1.34992e-08 -1.85023e+07 2.46712e-09 -1.9258e+06)
(1.85414e+07 -1.38507e+07 -6.17659e-09 -1.89855e+07 4.26921e-09 -133239)
(2.37432e+07 -1.18946e+07 -1.95249e-08 -2.09911e+07 -6.55908e-09 865613)
(-3.5084e+07 1.75538e+07 -2.00727e-09 -1.19388e+07 -2.20293e-09 -1.41068e+07)
(-3.60549e+07 8.6297e+06 -2.01388e-08 -6.91254e+06 1.43246e-08 -1.28902e+07)
(-2.93722e+07 -49780.9 1.34661e-08 -6.08574e+06 -1.52653e-08 -1.06374e+07)
(-2.64241e+07 -3.98003e+06 1.67716e-08 -7.1374e+06 -1.1912e-08 -1.00684e+07)
(-1.67507e+07 -8.84692e+06 -2.20304e-08 -7.55694e+06 5.64017e-10 -7.29229e+06)
(-1.08894e+07 -1.0233e+07 -1.12224e-08 -1.15073e+07 -3.11928e-10 -6.71901e+06)
(-2.16832e+06 -1.17575e+07 -1.39113e-08 -1.17069e+07 -3.68523e-09 -4.16256e+06)
(2.66049e+06 -1.07538e+07 7.21869e-09 -1.55157e+07 -1.704e-09 -3.85656e+06)
(9.79135e+06 -1.10237e+07 1.55993e-08 -1.43132e+07 -3.45038e-09 -1.35656e+06)
(1.4002e+07 -1.00474e+07 1.79839e-08 -1.59352e+07 -1.39845e-09 -579977)
(-2.62837e+07 1.63348e+07 -4.96297e-09 -1.05413e+07 4.21456e-09 -1.10475e+07)
(-2.98103e+07 1.18174e+07 -9.69881e-14 -8.37392e+06 8.55569e-14 -1.14553e+07)
(-2.33535e+07 6.90688e+06 6.79455e-09 -7.98019e+06 -5.11856e-09 -9.40011e+06)
(-2.11669e+07 2.67242e+06 1.06484e-08 -8.61515e+06 5.85879e-09 -8.93462e+06)
(-1.36003e+07 -1.74204e+06 5.51789e-10 -7.86926e+06 -3.03151e-10 -6.44088e+06)
(-9.50953e+06 -3.94031e+06 -6.57814e-09 -9.89394e+06 3.17637e-09 -5.82104e+06)
(-2.70455e+06 -6.47969e+06 9.69974e-09 -8.83943e+06 -4.70504e-10 -3.46319e+06)
(999789 -6.84518e+06 -5.87486e-09 -1.09675e+07 2.34672e-09 -2.99032e+06)
(6.12719e+06 -8.06406e+06 -9.11644e-09 -9.20531e+06 -4.21556e-11 -923436)
(9.99205e+06 -7.84657e+06 8.81713e-09 -1.06083e+07 2.88704e-10 -184876)
(-2.06352e+07 1.62859e+07 -4.83631e-09 -1.36765e+07 9.31445e-09 -1.02935e+07)
(-2.15844e+07 1.18941e+07 -1.26523e-08 -1.15476e+07 1.76254e-08 -9.93957e+06)
(-1.81096e+07 7.84636e+06 -4.17329e-09 -1.05235e+07 8.12492e-09 -8.58992e+06)
(-1.71947e+07 4.57429e+06 1.3177e-08 -9.89135e+06 -2.00175e-09 -8.12582e+06)
(-1.24683e+07 982386 6.84378e-09 -8.92616e+06 -7.75565e-10 -6.41833e+06)
(-1.0134e+07 -971204 -9.40778e-09 -9.69551e+06 9.76128e-09 -5.94886e+06)
(-5.18262e+06 -3.48631e+06 -4.11121e-09 -8.54318e+06 6.05248e-09 -4.11774e+06)
(-2.58388e+06 -4.31019e+06 2.00859e-08 -9.88186e+06 -3.90921e-09 -3.73972e+06)
(1.8991e+06 -6.18218e+06 3.35789e-09 -8.09627e+06 -5.12229e-09 -1.85915e+06)
(4.5184e+06 -6.57028e+06 -7.77542e-10 -9.16153e+06 6.86666e-09 -1.39294e+06)
(-1.77571e+07 1.66167e+07 -6.38746e-10 -1.62848e+07 3.10395e-09 -1.02126e+07)
(-1.81539e+07 1.33033e+07 3.57795e-09 -1.44023e+07 -4.55165e-09 -9.76687e+06)
(-1.40718e+07 9.8786e+06 -1.11647e-09 -1.33455e+07 -3.55122e-09 -8.22519e+06)
(-1.34643e+07 7.05544e+06 2.56968e-09 -1.21793e+07 -7.05811e-09 -7.69308e+06)
(-9.12859e+06 3.79156e+06 2.5941e-09 -1.09928e+07 -6.63027e-09 -6.03641e+06)
(-7.58355e+06 1.81965e+06 -4.30501e-09 -1.05502e+07 3.61461e-09 -5.44014e+06)
(-3.50806e+06 -828744 -3.80985e-09 -9.21689e+06 -4.72382e-09 -3.81749e+06)
(-1.356e+06 -1.97698e+06 2.35759e-09 -9.20887e+06 -5.29232e-09 -3.16946e+06)
(2.00582e+06 -4.10002e+06 -8.86512e-09 -7.53359e+06 -8.62807e-10 -1.65833e+06)
(4.89425e+06 -4.78788e+06 -8.29929e-09 -7.94666e+06 5.40684e-09 -915723)
(-1.52474e+07 1.61369e+07 4.33449e-11 -1.87952e+07 -1.18941e-10 -1.02128e+07)
(-1.51004e+07 1.31818e+07 -4.97885e-09 -1.63058e+07 -1.95683e-09 -9.42187e+06)
(-1.28333e+07 9.77579e+06 1.22472e-09 -1.49097e+07 2.92824e-09 -8.3229e+06)
(-1.195e+07 7.66817e+06 5.03731e-09 -1.31694e+07 -1.05965e-08 -7.53583e+06)
(-9.62241e+06 4.45322e+06 3.22389e-09 -1.16259e+07 4.42507e-09 -6.3745e+06)
(-7.90864e+06 3.12661e+06 -4.97275e-09 -1.06444e+07 1.48422e-09 -5.56591e+06)
(-5.6768e+06 383092 -1.76832e-09 -9.11701e+06 -1.8268e-09 -4.43814e+06)
(-3.29533e+06 -411444 8.22646e-09 -8.63366e+06 -1.0906e-08 -3.5787e+06)
(-1.28507e+06 -2.46459e+06 2.07555e-09 -7.30591e+06 1.34321e-09 -2.5773e+06)
(1.48073e+06 -3.01382e+06 -9.95263e-09 -7.30284e+06 1.04309e-08 -1.74663e+06)
(-1.27546e+07 1.59115e+07 4.69821e-09 -2.18518e+07 -8.06713e-09 -1.03819e+07)
(-1.23944e+07 1.30039e+07 1.01241e-10 -1.96196e+07 -2.02391e-10 -9.60419e+06)
(-1.03623e+07 9.72342e+06 -5.24031e-09 -1.78918e+07 -1.27483e-09 -8.47622e+06)
(-9.64352e+06 7.51602e+06 -1.51898e-09 -1.61783e+07 -2.34293e-09 -7.74656e+06)
(-7.86565e+06 4.61274e+06 4.06765e-09 -1.42137e+07 -1.16993e-09 -6.62382e+06)
(-6.65375e+06 2.9431e+06 7.10688e-09 -1.31588e+07 -4.87616e-09 -5.94378e+06)
(-5.14556e+06 591538 1.06677e-10 -1.11156e+07 -1.18558e-10 -4.87835e+06)
(-3.64839e+06 -645493 -4.41106e-09 -1.0624e+07 1.27993e-09 -4.28173e+06)
(-2.27948e+06 -2.33125e+06 -2.48613e-09 -8.67945e+06 8.63021e-09 -3.28768e+06)
(-943010 -3.2076e+06 -2.3213e-09 -8.46242e+06 -1.43378e-09 -2.82163e+06)
(-1.10605e+07 1.55382e+07 1.50202e-10 -2.50786e+07 -2.53023e-09 -1.08417e+07)
(-1.0448e+07 1.28258e+07 2.37483e-09 -2.19205e+07 -1.05419e-09 -9.71054e+06)
(-9.4139e+06 9.62867e+06 4.36272e-10 -1.97242e+07 -6.20372e-09 -8.74145e+06)
(-8.3718e+06 7.74113e+06 -2.90624e-09 -1.73798e+07 1.2468e-09 -7.72549e+06)
(-7.44152e+06 5.0595e+06 -5.10363e-09 -1.52388e+07 4.5306e-09 -6.80411e+06)
(-5.98109e+06 3.63585e+06 1.28208e-09 -1.35715e+07 1.83686e-09 -5.86577e+06)
(-5.05407e+06 1.47341e+06 5.56625e-09 -1.15359e+07 -4.30842e-09 -4.977e+06)
(-3.4323e+06 292045 5.01345e-09 -1.03402e+07 -1.72578e-10 -4.13174e+06)
(-2.37928e+06 -1.35085e+06 -2.05991e-09 -8.41974e+06 2.5396e-09 -3.23971e+06)
(-985093 -2.44329e+06 -3.62851e-09 -7.3758e+06 1.39127e-09 -2.50827e+06)
(-8.86135e+06 1.43831e+07 2.56631e-11 -2.76471e+07 2.33013e-09 -1.09525e+07)
(-8.54034e+06 1.18246e+07 -1.12738e-09 -2.45306e+07 -2.50199e-09 -9.92129e+06)
(-8.16101e+06 8.85818e+06 2.24306e-09 -2.19353e+07 -1.05233e-09 -9.0289e+06)
(-7.38722e+06 7.03447e+06 1.26359e-09 -1.95466e+07 1.88127e-09 -8.08015e+06)
(-7.07986e+06 4.62723e+06 -1.38309e-09 -1.70406e+07 2.95964e-09 -7.23614e+06)
(-5.92857e+06 3.24342e+06 -3.95536e-09 -1.5259e+07 -4.39487e-09 -6.35628e+06)
(-5.58668e+06 1.35174e+06 -1.98397e-10 -1.29522e+07 3.85494e-09 -5.56166e+06)
(-4.26149e+06 240396 1.25401e-09 -1.15979e+07 1.27299e-09 -4.75782e+06)
(-3.69081e+06 -1.21319e+06 2.09929e-10 -9.5979e+06 -3.18946e-09 -3.98661e+06)
(-2.40423e+06 -2.28826e+06 3.82739e-10 -8.21391e+06 -3.17056e-09 -3.18544e+06)
(-7.14572e+06 1.33286e+07 1.17425e-09 -3.09555e+07 -8.07849e-09 -1.14304e+07)
(-6.86362e+06 1.08597e+07 2.02502e-10 -2.70304e+07 -3.22672e-09 -1.01682e+07)
(-7.14396e+06 8.19409e+06 5.25514e-10 -2.3909e+07 4.78284e-09 -9.31589e+06)
(-6.34568e+06 6.42764e+06 2.07497e-09 -2.09474e+07 3.45524e-09 -8.18793e+06)
(-6.59515e+06 4.3946e+06 2.79005e-09 -1.82001e+07 -3.66324e-09 -7.43859e+06)
(-5.44675e+06 2.99415e+06 3.19143e-10 -1.59436e+07 3.4144e-09 -6.4171e+06)
(-5.59039e+06 1.46839e+06 -1.0229e-09 -1.35311e+07 5.67737e-09 -5.73645e+06)
(-4.33164e+06 288331 3.23354e-09 -1.17682e+07 -6.42387e-09 -4.82995e+06)
(-4.22843e+06 -850279 -1.08578e-09 -9.69675e+06 -9.04183e-10 -4.17755e+06)
(-3.0776e+06 -1.94046e+06 -2.28252e-09 -7.99738e+06 2.57866e-09 -3.32249e+06)
(-5.34589e+06 1.14436e+07 -2.24667e-10 -3.30254e+07 2.41933e-09 -1.15114e+07)
(-5.48759e+06 9.31744e+06 1.23937e-09 -2.89918e+07 7.66467e-09 -1.03438e+07)
(-6.27711e+06 7.07213e+06 7.91282e-10 -2.55834e+07 4.39422e-09 -9.55816e+06)
(-5.80063e+06 5.50052e+06 -9.60609e-12 -2.24845e+07 9.87427e-11 -8.48555e+06)
(-6.38178e+06 3.80858e+06 -9.72161e-10 -1.9568e+07 -1.18961e-09 -7.78493e+06)
(-5.53048e+06 2.5374e+06 9.06756e-10 -1.713e+07 1.33393e-09 -6.79814e+06)
(-5.87436e+06 1.28083e+06 -9.76179e-10 -1.46679e+07 -9.07926e-10 -6.16268e+06)
(-4.88875e+06 195160 2.39415e-09 -1.26816e+07 -2.70843e-09 -5.27111e+06)
(-4.90544e+06 -758735 1.77331e-09 -1.06595e+07 -9.74265e-10 -4.66949e+06)
(-3.98827e+06 -1.7547e+06 -8.71031e-10 -8.72512e+06 1.60605e-09 -3.81402e+06)
(-3.84625e+06 9.46944e+06 -1.80172e-10 -3.56428e+07 -1.81398e-09 -1.18467e+07)
(-4.24447e+06 7.58008e+06 -1.20583e-09 -3.09998e+07 -4.08088e-09 -1.05733e+07)
(-5.40174e+06 5.8069e+06 -1.32234e-09 -2.72065e+07 -3.36842e-09 -9.78247e+06)
(-5.14677e+06 4.39155e+06 -9.78332e-10 -2.3616e+07 -5.04713e-09 -8.62883e+06)
(-6.00109e+06 3.15109e+06 -1.33526e-09 -2.05441e+07 -4.14067e-09 -7.96357e+06)
(-5.36378e+06 1.98437e+06 -1.68949e-09 -1.76946e+07 -4.87452e-10 -6.91751e+06)
(-5.92415e+06 1.12978e+06 1.02656e-11 -1.52005e+07 3.74493e-09 -6.33741e+06)
(-5.13471e+06 134192 -3.44759e-10 -1.28836e+07 -2.04889e-09 -5.4055e+06)
(-5.3587e+06 -485385 1.2974e-09 -1.08763e+07 -8.02022e-10 -4.87051e+06)
(-4.59052e+06 -1.33458e+06 -4.70015e-10 -8.77695e+06 4.43614e-10 -4.01024e+06)
(-2.62094e+06 6.98592e+06 -4.8e-10 -3.70709e+07 -3.97207e-09 -1.19075e+07)
(-3.37839e+06 5.61021e+06 3.76639e-10 -3.22725e+07 1.81044e-09 -1.06953e+07)
(-4.78712e+06 4.3267e+06 1.54759e-09 -2.83274e+07 4.35533e-09 -9.93436e+06)
(-4.82508e+06 3.2624e+06 -5.22931e-10 -2.45707e+07 -1.32302e-09 -8.81874e+06)
(-5.78645e+06 2.35187e+06 9.41608e-10 -2.14527e+07 9.06896e-10 -8.17176e+06)
(-5.42366e+06 1.45764e+06 1.17849e-09 -1.84122e+07 5.2441e-09 -7.15075e+06)
(-6.00268e+06 818538 9.45388e-10 -1.59459e+07 2.61765e-09 -6.58458e+06)
(-5.46583e+06 49702.4 4.32662e-10 -1.34223e+07 -2.05452e-09 -5.66643e+06)
(-5.68727e+06 -429110 5.38629e-10 -1.14741e+07 5.00458e-10 -5.14841e+06)
(-5.12234e+06 -1.06397e+06 0 -9.25458e+06 0 -4.31308e+06)
(-1.74622e+06 4.3139e+06 6.52624e-10 -3.8504e+07 3.24229e-09 -1.20751e+07)
(-2.72857e+06 3.39609e+06 2.30739e-09 -3.33648e+07 1.91903e-09 -1.0828e+07)
(-4.28077e+06 2.64023e+06 -1.3935e-09 -2.92335e+07 -1.56241e-09 -1.00543e+07)
(-4.52548e+06 1.93675e+06 -5.686e-10 -2.51823e+07 -8.06474e-10 -8.91233e+06)
(-5.56721e+06 1.44847e+06 9.47308e-10 -2.20088e+07 2.56572e-09 -8.27279e+06)
(-5.39679e+06 857380 1.92652e-10 -1.87157e+07 7.33959e-10 -7.23375e+06)
(-6.02219e+06 550482 -3.22894e-10 -1.6264e+07 -6.68163e-10 -6.68585e+06)
(-5.64703e+06 43822.9 1.38478e-10 -1.35383e+07 -1.1927e-09 -5.7556e+06)
(-5.9177e+06 -169571 -1.48378e-10 -1.16256e+07 -9.99805e-10 -5.263e+06)
(-5.45507e+06 -573705 9.40584e-11 -9.33249e+06 -3.53051e-10 -4.43627e+06)
(-1.30647e+06 1.46387e+06 -1.48598e-09 -3.9023e+07 -6.56835e-10 -1.20988e+07)
(-2.43138e+06 1.18497e+06 -1.55887e-09 -3.38108e+07 -6.03971e-09 -1.08727e+07)
(-4.0516e+06 918452 1.28687e-09 -2.96342e+07 -4.03089e-09 -1.01057e+07)
(-4.41703e+06 691202 7.5096e-10 -2.5508e+07 1.53944e-09 -8.97751e+06)
(-5.47472e+06 493995 -5.10802e-10 -2.23302e+07 -1.28308e-09 -8.34149e+06)
(-5.4183e+06 298613 1.35047e-11 -1.89551e+07 -1.39361e-09 -7.31202e+06)
(-6.03112e+06 153309 -2.25128e-11 -1.65231e+07 -4.37469e-10 -6.76628e+06)
(-5.75931e+06 -13809.3 -1.19261e-10 -1.37135e+07 -9.20622e-10 -5.84184e+06)
(-6.01601e+06 -128112 -1.10677e-10 -1.18263e+07 -4.08211e-10 -5.3527e+06)
(-5.63022e+06 -257474 -3.38715e-10 -9.49856e+06 3.97553e-10 -4.53863e+06)
(-5.63116e+06 -479180 3.18089e-10 -6.72067e+06 5.3282e-10 -3.70555e+06)
(-5.4103e+06 -1.02912e+06 6.89357e-10 -6.5407e+06 2.9245e-10 -3.5853e+06)
(-4.88113e+06 -1.94367e+06 6.07374e-11 -6.49815e+06 -2.71654e-10 -3.41378e+06)
(-4.21994e+06 -2.40856e+06 7.31351e-11 -5.94222e+06 2.26538e-10 -3.04865e+06)
(-3.19301e+06 -3.20909e+06 -3.76285e-11 -5.90553e+06 5.91201e-10 -2.72956e+06)
(-2.07815e+06 -3.52796e+06 2.40003e-09 -4.96543e+06 -6.34109e-11 -2.11307e+06)
(-701140 -4.22597e+06 -7.75078e-10 -5.13261e+06 -1.48095e-09 -1.75013e+06)
(1.08935e+06 -4.37831e+06 -1.6367e-09 -3.97838e+06 -7.21349e-10 -866710)
(1.9491e+06 -5.23603e+06 -9.99399e-10 -4.82908e+06 -3.4141e-09 -863994)
(5.69911e+06 -5.77716e+06 5.80711e-09 -4.62295e+06 3.24444e-09 322848)
(-4.01059e+06 -620127 8.79878e-11 -3.48909e+06 -1.5348e-10 -2.2499e+06)
(-3.80573e+06 -1.3863e+06 -9.44314e-12 -3.48975e+06 1.14018e-11 -2.18865e+06)
(-3.42527e+06 -2.60648e+06 -3.83388e-10 -3.70404e+06 -6.16094e-10 -2.13879e+06)
(-2.80607e+06 -3.22314e+06 -1.50273e-09 -3.6466e+06 -1.70258e-11 -1.9358e+06)
(-2.07921e+06 -4.41247e+06 1.82248e-09 -3.99752e+06 5.68574e-10 -1.82302e+06)
(-996701 -4.69379e+06 1.13658e-09 -3.71559e+06 3.10303e-10 -1.41369e+06)
(-13175.5 -5.90107e+06 -1.20033e-09 -3.98577e+06 1.46124e-10 -1.19968e+06)
(1.77988e+06 -5.60464e+06 0 -3.38904e+06 0 -482749)
(2.96294e+06 -6.72394e+06 3.2394e-10 -3.15953e+06 1.55753e-09 -58975.2)
(5.20814e+06 -6.17468e+06 2.16049e-09 -2.96134e+06 -1.79505e-09 674041)
(-3.46272e+06 -696924 9.34098e-11 -525081 -3.85958e-11 -1.19634e+06)
(-3.17909e+06 -1.45893e+06 4.42802e-10 -494048 6.1659e-11 -1.10194e+06)
(-2.64947e+06 -2.83493e+06 -4.57335e-10 -609858 -2.33818e-11 -977799)
(-1.77965e+06 -3.44943e+06 -1.23561e-09 -561290 -6.13933e-10 -702281)
(-797663 -4.80389e+06 8.62328e-10 -809838 -7.59491e-10 -482250)
(722214 -5.18776e+06 9.57365e-10 -914555 -6.56007e-10 -57702.2)
(1.88484e+06 -6.5602e+06 -1.23467e-09 -1.19217e+06 -3.33106e-10 207800)
(4.12292e+06 -6.86642e+06 -2.79026e-09 -1.76271e+06 -3.89717e-10 708064)
(5.00505e+06 -8.03536e+06 2.92483e-09 -1.5692e+06 6.04234e-10 1.03075e+06)
(6.81073e+06 -8.78007e+06 5.57627e-09 -2.62746e+06 2.30714e-09 1.25498e+06)
(-1.70715e+06 -797986 -1.08514e-10 1.01817e+06 1.40347e-10 -206696)
(-1.4786e+06 -1.76936e+06 -8.47906e-11 959808 8.23877e-11 -155639)
(-1.19629e+06 -3.33485e+06 8.39128e-10 927691 6.31554e-11 -80581)
(-468526 -4.11919e+06 6.17408e-10 762480 1.61767e-10 88186.4)
(96067.7 -5.5622e+06 1.62647e-09 838949 4.17578e-11 280505)
(1.46938e+06 -6.00901e+06 -1.86391e-09 531604 2.55409e-13 600296)
(2.40407e+06 -7.12462e+06 -4.39066e-09 906117 -2.61252e-10 993056)
(4.57139e+06 -7.33568e+06 1.09152e-09 264502 -5.9108e-11 1.45077e+06)
(6.31954e+06 -7.82136e+06 1.2476e-09 797452 -1.20447e-10 2.1351e+06)
(8.1081e+06 -8.39809e+06 -1.3203e-09 -163284 5.36464e-12 2.38344e+06)
(-649899 -715235 -8.40341e-11 2.83551e+06 1.31042e-10 655684)
(-332868 -1.66191e+06 -1.43955e-10 2.72674e+06 7.18712e-12 718161)
(58909.8 -3.0788e+06 -3.87688e-10 2.66681e+06 3.6539e-11 817716)
(1.00595e+06 -3.98115e+06 2.25061e-12 2.30344e+06 1.30956e-10 992817)
(1.70003e+06 -5.33801e+06 8.97427e-10 2.24649e+06 3.64996e-10 1.18396e+06)
(3.22231e+06 -6.23157e+06 3.2387e-10 1.57961e+06 5.95495e-10 1.44058e+06)
(4.10406e+06 -7.3663e+06 1.25777e-09 1.67463e+06 3.2772e-10 1.73361e+06)
(5.99567e+06 -8.32877e+06 -1.981e-10 855088 -2.96516e-10 2.05523e+06)
(7.26237e+06 -8.90793e+06 4.68611e-10 1.11631e+06 6.68136e-10 2.51361e+06)
(8.72282e+06 -9.70859e+06 -2.68269e-10 621270 5.78001e-10 2.80323e+06)
(829283 -741203 0 3.72657e+06 0 1.36675e+06)
(1.06504e+06 -1.8617e+06 2.63069e-10 3.62712e+06 -1.51827e-10 1.40765e+06)
(1.27598e+06 -3.26611e+06 -4.07234e-10 3.70555e+06 1.39286e-10 1.49446e+06)
(2.02518e+06 -4.26427e+06 -1.72156e-09 3.39635e+06 2.44656e-10 1.62646e+06)
(2.53115e+06 -5.41938e+06 -4.85112e-12 3.58007e+06 4.06564e-12 1.83336e+06)
(3.87138e+06 -6.2618e+06 -1.02531e-10 3.03194e+06 -9.10633e-11 2.071e+06)
(4.87956e+06 -7.01445e+06 -6.25807e-12 3.2432e+06 8.2294e-12 2.43683e+06)
(6.73e+06 -7.8096e+06 2.18088e-10 2.51358e+06 1.3847e-10 2.77308e+06)
(8.4917e+06 -8.2075e+06 -2.85205e-09 2.48461e+06 -5.38389e-10 3.2929e+06)
(1.00664e+07 -8.93852e+06 3.44498e-09 1.91038e+06 7.68089e-10 3.59304e+06)
(2.24557e+06 -621229 1.22653e-11 4.5118e+06 -2.35677e-12 2.02721e+06)
(2.52308e+06 -1.77547e+06 -4.68308e-10 4.36375e+06 2.75467e-10 2.06605e+06)
(2.80441e+06 -2.9833e+06 -3.39255e-10 4.32731e+06 1.43466e-10 2.13952e+06)
(3.59942e+06 -4.15952e+06 5.4659e-10 3.90395e+06 -9.48524e-11 2.25101e+06)
(4.12917e+06 -5.23383e+06 5.86919e-10 3.86939e+06 -1.08596e-10 2.39957e+06)
(5.32685e+06 -6.43388e+06 -1.57609e-10 3.27881e+06 -4.53748e-11 2.5817e+06)
(6.1401e+06 -7.21655e+06 -1.17604e-09 3.25947e+06 -6.31599e-11 2.81987e+06)
(7.6148e+06 -8.31964e+06 1.1565e-09 2.7344e+06 5.83646e-11 3.10476e+06)
(8.90898e+06 -8.73064e+06 -1.00782e-09 2.59532e+06 -1.2089e-11 3.45129e+06)
(1.03496e+07 -9.45095e+06 6.71079e-10 2.30864e+06 -1.00085e-10 3.79746e+06)
(3.40198e+06 -589118 6.79915e-11 5.1698e+06 -1.59285e-10 2.57153e+06)
(3.60843e+06 -1.79865e+06 2.15121e-10 5.07262e+06 -1.51405e-10 2.60431e+06)
(3.82085e+06 -2.8892e+06 -4.77696e-10 5.0981e+06 1.83514e-10 2.67569e+06)
(4.45997e+06 -4.03166e+06 -6.83749e-10 4.80905e+06 1.59263e-10 2.78071e+06)
(4.98403e+06 -4.88747e+06 4.91675e-10 4.80651e+06 -1.03496e-10 2.93716e+06)
(6.06705e+06 -5.94375e+06 3.25058e-10 4.35968e+06 -2.18867e-11 3.12802e+06)
(7.03768e+06 -6.52262e+06 -1.06387e-09 4.20995e+06 3.44635e-11 3.37429e+06)
(8.48763e+06 -7.47416e+06 -2.28322e-09 3.73455e+06 -1.53654e-11 3.66665e+06)
(9.92587e+06 -7.87358e+06 1.67168e-11 3.35011e+06 5.79488e-12 3.98279e+06)
(1.13582e+07 -8.56629e+06 3.24449e-09 3.01473e+06 2.25446e-10 4.31188e+06)
(4.93716e+06 -503759 -1.04003e-10 5.27659e+06 2.5009e-12 3.06413e+06)
(5.13678e+06 -1.75688e+06 1.14378e-10 5.16036e+06 -1.26126e-11 3.08914e+06)
(5.35982e+06 -2.72063e+06 3.37542e-10 5.08353e+06 -1.21822e-10 3.133e+06)
(5.92325e+06 -3.97929e+06 -6.7866e-12 4.77916e+06 1.18329e-12 3.21072e+06)
(6.37621e+06 -4.80155e+06 -2.15664e-09 4.62969e+06 3.03496e-10 3.30177e+06)
(7.23262e+06 -6.00834e+06 4.34751e-10 4.26063e+06 -7.96285e-11 3.44798e+06)
(7.97102e+06 -6.6012e+06 1.71163e-09 4.0095e+06 -6.36595e-11 3.59416e+06)
(9.11533e+06 -7.60349e+06 1.22711e-16 3.70798e+06 -1.56385e-17 3.84699e+06)
(1.02079e+07 -7.97424e+06 4.91674e-10 3.29936e+06 5.00899e-11 4.05217e+06)
(1.14776e+07 -8.61029e+06 8.45554e-10 3.0918e+06 8.62349e-11 4.37083e+06)
(5.85465e+06 -448335 7.26119e-11 5.81881e+06 1.39738e-10 3.50204e+06)
(6.01192e+06 -1.64054e+06 1.4496e-10 5.74553e+06 -2.16878e-11 3.52723e+06)
(6.23041e+06 -2.47191e+06 1.41687e-10 5.66662e+06 -2.36442e-11 3.56911e+06)
(6.70948e+06 -3.61019e+06 7.82587e-10 5.45932e+06 -2.03686e-10 3.65064e+06)
(7.20584e+06 -4.28305e+06 -7.43937e-10 5.25063e+06 1.41789e-10 3.73694e+06)
(8.00799e+06 -5.32368e+06 -1.29265e-09 4.95793e+06 1.55291e-10 3.88978e+06)
(8.82094e+06 -5.82914e+06 1.00687e-09 4.56604e+06 -8.35873e-11 4.0161e+06)
(9.93444e+06 -6.70357e+06 2.94259e-10 4.27076e+06 -5.12961e-11 4.26156e+06)
(1.1007e+07 -7.07478e+06 1.64847e-09 3.72147e+06 -3.58185e-11 4.41853e+06)
(1.22187e+07 -7.67744e+06 1.42514e-09 3.47069e+06 2.88852e-12 4.7068e+06)
(7.31806e+06 -407743 1.9077e-10 5.61555e+06 -1.83767e-12 3.88008e+06)
(7.44507e+06 -1.61067e+06 1.9718e-10 5.54029e+06 -2.25857e-11 3.89561e+06)
(7.62433e+06 -2.38787e+06 2.0625e-10 5.41126e+06 -2.45393e-11 3.91068e+06)
(7.99043e+06 -3.55589e+06 8.59899e-10 5.22005e+06 -1.7273e-10 3.96315e+06)
(8.36392e+06 -4.21977e+06 -7.12691e-11 4.9615e+06 -1.27722e-11 3.99763e+06)
(8.95597e+06 -5.27553e+06 -1.26803e-09 4.73014e+06 1.0468e-10 4.10583e+06)
(9.55651e+06 -5.77281e+06 7.32108e-10 4.33513e+06 -2.63372e-11 4.16749e+06)
(1.04139e+07 -6.61061e+06 -1.16773e-09 4.11579e+06 8.67142e-11 4.3589e+06)
(1.12554e+07 -6.93248e+06 9.63794e-10 3.5976e+06 2.31783e-11 4.45591e+06)
(1.22323e+07 -7.47636e+06 -1.08311e-10 3.39055e+06 1.59042e-10 4.68686e+06)
(8.07143e+06 -348375 -5.08711e-11 6.08781e+06 1.15042e-10 4.24777e+06)
(8.18082e+06 -1.42705e+06 -2.08606e-10 6.03195e+06 2.02991e-11 4.26383e+06)
(8.37294e+06 -2.08377e+06 2.78287e-11 5.87898e+06 -8.00073e-11 4.27558e+06)
(8.70554e+06 -3.10489e+06 0 5.72433e+06 0 4.32896e+06)
(9.11163e+06 -3.66442e+06 -2.08908e-10 5.39873e+06 3.51534e-11 4.35311e+06)
(9.67529e+06 -4.57146e+06 1.29062e-11 5.18322e+06 -2.51727e-12 4.45755e+06)
(1.02908e+07 -5.01514e+06 1.31098e-09 4.6844e+06 -5.23205e-11 4.49256e+06)
(1.11029e+07 -5.74445e+06 -3.48225e-10 4.45403e+06 6.73451e-11 4.66708e+06)
(1.18679e+07 -6.05688e+06 1.70446e-09 3.83272e+06 6.09126e-11 4.71019e+06)
(1.27988e+07 -6.55e+06 6.17369e-10 3.60747e+06 -8.78421e-11 4.92188e+06)
(9.36127e+06 -334778 5.07543e-11 5.8569e+06 -8.11729e-11 4.56545e+06)
(9.43586e+06 -1.38455e+06 4.31132e-10 5.80322e+06 -9.79917e-11 4.57172e+06)
(9.56483e+06 -2.02553e+06 -2.6133e-10 5.63836e+06 7.00461e-11 4.56096e+06)
(9.78909e+06 -3.01407e+06 2.97331e-10 5.49719e+06 -4.11701e-11 4.58588e+06)
(1.00602e+07 -3.57227e+06 -4.72607e-10 5.17561e+06 4.70297e-11 4.57075e+06)
(1.04489e+07 -4.42451e+06 -1.1631e-09 4.98648e+06 1.41925e-10 4.63062e+06)
(1.08835e+07 -4.8575e+06 1.26504e-09 4.52438e+06 -1.48426e-11 4.62236e+06)
(1.14734e+07 -5.50858e+06 -7.4705e-10 4.31278e+06 -3.24233e-12 4.73585e+06)
(1.20837e+07 -5.7825e+06 -7.5694e-10 3.74448e+06 -4.58079e-11 4.74847e+06)
(1.27357e+07 -6.22106e+06 4.28417e-09 3.51764e+06 3.62699e-11 4.876e+06)
(9.98299e+06 -277207 -9.05152e-11 6.32034e+06 1.80512e-10 4.891e+06)
(1.00546e+07 -1.18353e+06 5.89812e-10 6.26484e+06 -2.56383e-11 4.89582e+06)
(1.01916e+07 -1.71502e+06 2.14945e-10 6.08015e+06 -7.59615e-11 4.88152e+06)
(1.04101e+07 -2.56212e+06 -2.92165e-10 5.92299e+06 2.23297e-11 4.89994e+06)
(1.06888e+07 -3.03366e+06 8.14525e-10 5.56417e+06 -9.34486e-11 4.87588e+06)
(1.10627e+07 -3.76291e+06 -6.70931e-10 5.32927e+06 6.71402e-11 4.91758e+06)
(1.14788e+07 -4.14801e+06 -3.31528e-10 4.83211e+06 3.01095e-11 4.89326e+06)
(1.20143e+07 -4.70383e+06 3.44978e-10 4.54473e+06 -3.96417e-11 4.96772e+06)
(1.25668e+07 -4.96986e+06 -1.07406e-09 3.96829e+06 -1.2285e-11 4.96053e+06)
(1.31328e+07 -5.31297e+06 -3.89162e-10 3.64777e+06 4.90968e-11 5.03417e+06)
(1.10578e+07 -268142 -6.94707e-10 6.26733e+06 6.49665e-11 5.19753e+06)
(1.10982e+07 -1.12008e+06 -8.21175e-10 6.21268e+06 -4.15187e-11 5.19327e+06)
(1.11699e+07 -1.63412e+06 7.71552e-10 6.02443e+06 -1.15993e-10 5.15829e+06)
(1.12984e+07 -2.42454e+06 -1.011e-09 5.87057e+06 4.42942e-11 5.15069e+06)
(1.14511e+07 -2.87229e+06 -3.44957e-10 5.51589e+06 1.27706e-11 5.09008e+06)
(1.16898e+07 -3.54131e+06 3.52753e-10 5.28315e+06 -2.1606e-11 5.0919e+06)
(1.19392e+07 -3.88098e+06 -1.86345e-10 4.80198e+06 -3.03982e-11 5.02236e+06)
(1.23138e+07 -4.38395e+06 -2.35168e-10 4.50794e+06 -5.69321e-11 5.04652e+06)
(1.26771e+07 -4.57778e+06 6.68109e-10 3.95131e+06 6.05018e-11 4.98852e+06)
(1.30901e+07 -4.88682e+06 7.01656e-10 3.61614e+06 8.14689e-11 5.01186e+06)
(1.15446e+07 -212677 -3.74775e-10 6.81554e+06 7.88614e-11 5.50806e+06)
(1.15859e+07 -912966 -7.41675e-10 6.74958e+06 2.34276e-10 5.50064e+06)
(1.16636e+07 -1.32298e+06 5.65736e-10 6.53951e+06 -5.5003e-11 5.46093e+06)
(1.17892e+07 -1.97561e+06 9.20726e-10 6.35172e+06 -1.03329e-10 5.44227e+06)
(1.19456e+07 -2.34008e+06 -7.18537e-10 5.95673e+06 7.16564e-11 5.37071e+06)
(1.21583e+07 -2.89817e+06 -5.13772e-10 5.67487e+06 5.27603e-11 5.34996e+06)
(1.23967e+07 -3.18526e+06 -3.6214e-10 5.14049e+06 -1.7576e-11 5.26116e+06)
(1.26942e+07 -3.6039e+06 5.49569e-10 4.80418e+06 3.11726e-11 5.2495e+06)
(1.30248e+07 -3.78051e+06 3.90125e-10 4.17942e+06 1.44243e-11 5.16127e+06)
(1.33275e+07 -4.01809e+06 2.02666e-09 3.83544e+06 1.45755e-10 5.14889e+06)
(1.2378e+07 -195521 1.04802e-09 7.12168e+06 9.90853e-11 5.84991e+06)
(1.23939e+07 -816091 2.36674e-10 7.0526e+06 9.08192e-11 5.83394e+06)
(1.24166e+07 -1.19093e+06 -3.6608e-10 6.82484e+06 -2.35069e-11 5.77243e+06)
(1.2471e+07 -1.76418e+06 6.57328e-10 6.62742e+06 -2.71945e-11 5.72952e+06)
(1.25237e+07 -2.09032e+06 -7.63427e-12 6.20237e+06 -5.36477e-13 5.61782e+06)
(1.26345e+07 -2.56992e+06 5.46944e-11 5.90146e+06 -5.63046e-11 5.5608e+06)
(1.27294e+07 -2.81668e+06 -3.99988e-10 5.33364e+06 -4.51179e-11 5.4189e+06)
(1.2915e+07 -3.15952e+06 -1.56666e-09 4.96123e+06 -9.67299e-11 5.36286e+06)
(1.30639e+07 -3.30325e+06 -7.25508e-10 4.31921e+06 -8.85213e-11 5.21492e+06)
(1.32788e+07 -3.46927e+06 2.57529e-09 3.90755e+06 4.00667e-10 5.15592e+06)
(1.26946e+07 -138432 7.5762e-10 7.8901e+06 -9.03038e-11 6.1754e+06)
(1.27128e+07 -583578 4.8037e-10 7.8041e+06 -7.45174e-11 6.15506e+06)
(1.2743e+07 -851174 1.83962e-10 7.54629e+06 -9.25061e-11 6.08678e+06)
(1.27978e+07 -1.26826e+06 2.59935e-10 7.30032e+06 -7.96074e-11 6.02942e+06)
(1.28561e+07 -1.50562e+06 3.75805e-10 6.82095e+06 8.17506e-11 5.90312e+06)
(1.29479e+07 -1.86578e+06 -3.88539e-10 6.44794e+06 3.37672e-11 5.81874e+06)
(1.30333e+07 -2.04593e+06 -4.02544e-11 5.81239e+06 1.03494e-10 5.65372e+06)
(1.31619e+07 -2.31948e+06 -9.50072e-11 5.35702e+06 8.02056e-11 5.55568e+06)
(1.32782e+07 -2.41149e+06 -3.84069e-10 4.64668e+06 -1.06246e-10 5.37747e+06)
(1.34058e+07 -2.56812e+06 -6.40676e-10 4.15311e+06 -2.2253e-10 5.26767e+06)
(1.3236e+07 -102767 -7.36007e-10 8.76917e+06 -2.64225e-11 6.60156e+06)
(1.32353e+07 -429805 8.53133e-10 8.67139e+06 -4.50146e-11 6.57202e+06)
(1.32281e+07 -626215 1.7097e-10 8.36676e+06 -1.21514e-10 6.47846e+06)
(1.32302e+07 -931452 7.472e-10 8.0871e+06 1.94406e-10 6.39518e+06)
(1.32211e+07 -1.09927e+06 -3.78222e-10 7.51368e+06 -1.1672e-10 6.22043e+06)
(1.32361e+07 -1.36133e+06 1.12505e-09 7.09132e+06 2.12575e-10 6.09822e+06)
(1.32334e+07 -1.47855e+06 -1.17674e-09 6.31386e+06 -2.76073e-10 5.86418e+06)
(1.32723e+07 -1.67593e+06 -4.40647e-10 5.80854e+06 -2.16253e-12 5.72425e+06)
(1.32813e+07 -1.71962e+06 5.52616e-10 4.90936e+06 -6.75251e-11 5.45719e+06)
(1.33361e+07 -1.828e+06 4.90002e-10 4.39242e+06 7.3077e-11 5.31857e+06)