/*--------------------------------*- C++ -*----------------------------------*\
| =========                 |                                                 |
| \\      /  F ield         | OpenFOAM: The Open Source CFD Toolbox           |
|  \\    /   O peration     | Version:  v2012                                 |
|   \\  /    A nd           | Website:  www.openfoam.com                      |
|    \\/     M anipulation  |                                                 |
\*---------------------------------------------------------------------------*/
FoamFile
{
    version     2.0;
    format      ascii;
    class       volScalarField;
    location    "4";
    object      epsilonEq;
}
// * * * * * * * * * * * * * * * * * * * * * * * * * * * * * * * * * * * * * //

dimensions      [0 0 0 0 0 0 0];


internalField   nonuniform List<scalar> 
1896
(
0.000470506
0.000580747
0.00045009
0.00114149
0.000472059
0.000465475
0.00109332
0.000451557
0.000763466
0.000431647
0.000454684
0.000383926
0.000331916
0.00036103
0.00111061
0.00072264
0.000661343
0.00131839
0.000696845
0.00062526
0.00075639
0.000571502
0.000976666
0.00101361
0.000597244
0.000591705
0.000326808
0.000329194
0.000457518
0.00076298
0.000733245
0.000589756
0.00030409
0.000588807
0.000943016
0.000454883
0.000717185
0.000548924
0.00123683
0.000781176
0.000592933
0.00100326
0.000665131
0.00105764
0.000327641
0.00030066
0.00107064
0.000456365
0.00102323
0.00100477
0.000461435
0.000463076
0.000453893
0.0005724
0.000744866
0.00062186
0.000895997
0.000468841
0.000532018
0.000769326
0.000439039
0.00103641
0.00102093
0.00050163
0.000658342
0.000590273
0.00096163
0.000493609
0.000538225
0.00095698
0.000200384
0.00103508
0.00054683
0.000606881
0.000991378
0.000582699
0.000589929
0.000498124
0.000510555
0.000590303
0.00105868
0.00100151
0.000369466
0.000452291
0.000432271
0.000637655
0.00052794
0.000518888
0.000876644
0.000608135
0.000546816
0.0023644
0.000635206
0.00119228
0.00100659
0.000586594
0.000569279
0.000443388
0.000580653
0.00058388
0.000585247
0.00047502
0.000501373
0.000623064
0.000750874
0.000663101
0.00062839
0.00109517
0.000950406
0.00186588
0.000438094
0.000580941
0.000896685
0.00089271
0.00167495
0.000555013
0.000376767
0.00056736
0.00100679
0.000744593
0.00101025
0.000726215
0.000551071
0.000392301
0.000394205
0.000874375
0.00107538
0.000445223
0.000714646
0.000623095
0.000644101
0.000551392
0.000933159
0.00127913
0.000688488
0.00100057
0.00116874
0.00113053
0.000594372
0.000819953
0.000550481
0.000993909
0.000773235
0.000879177
0.0005
0.000643421
0.000629729
0.000720265
0.000999165
0.000556393
0.000360095
0.000572978
0.000554304
0.000522066
0.00052542
0.000932441
0.000354263
0.000929244
0.00210063
0.000452691
0.000460035
0.00104438
0.000743241
0.000525558
0.00102215
0.00042463
0.000739926
0.000463375
0.000453062
0.000572999
0.000580956
0.000595703
0.000341102
0.000352674
0.0011601
0.00111659
0.00102677
0.000591206
0.000442656
0.000697226
0.00033121
0.000767627
0.000522894
0.00102154
0.00110183
0.00112555
0.000550269
0.000890487
0.000909615
0.000359673
0.0011162
0.000445815
0.00101874
0.00100482
0.000851093
0.000419453
0.000672984
0.0010039
0.000416237
0.0003637
0.000515958
0.000873726
0.000458249
0.000526363
0.000955766
0.000515675
0.00104498
0.000901829
0.000634441
0.000619045
0.000992345
0.000715335
0.000623524
0.000627465
0.000423258
0.000697779
0.000923625
0.000856812
0.000815312
0.000749987
0.000466363
0.000530419
0.00101625
0.000957531
0.000570961
0.000782626
0.00110661
0.000621024
0.000754631
0.000591017
0.0007747
0.000455569
0.000441497
0.000424971
0.000590246
0.000484512
0.000466879
0.00104409
0.000927068
0.000742754
0.00115527
0.00109461
0.000435634
0.00100331
0.000565463
0.000375656
0.000531979
0.000355008
0.000347557
0.000858997
0.00083238
0.000696918
0.000584509
0.000440935
0.000588529
0.000554351
0.000551916
0.000932287
0.00104869
0.000942201
0.000709869
0.000499994
0.000476535
0.000476541
0.000665664
0.00080976
0.000686107
0.000565317
0.000756257
0.000543915
0.000574437
0.000286212
0.000957816
0.00032032
0.000655834
0.000465969
0.000936697
0.000491376
0.000563491
0.000446721
0.000600399
0.000891782
0.000397039
0.000585082
0.000612404
0.000731337
0.000612121
0.00056347
0.000585064
0.000443142
0.000618046
0.000695708
0.000714582
0.000625819
0.000986713
0.000228792
0.000693696
0.000547207
0.00101218
0.000449744
0.000951116
0.000711541
0.000990438
0.00110084
0.000549934
0.000498709
0.000491992
0.0003604
0.000385503
0.000556009
0.000526836
0.000613311
0.000328384
0.000448067
0.000578445
0.000717408
0.000401889
0.000539368
0.000702127
0.000520022
0.000500004
0.000908651
0.00086073
0.000728365
0.000459237
0.00063484
0.00069182
0.000386899
0.00047931
0.000570101
0.000457517
0.000700114
0.000436505
0.000588096
0.000421776
0.000616335
0.000430969
0.00098223
0.000475981
0.00057449
0.000784744
0.000466749
0.00075157
0.000757269
0.000365164
0.000705955
0.000693105
0.00126776
0.000559896
0.000530923
0.000400933
0.000490151
0.000865085
0.000630788
0.000677005
0.000721323
0.000229918
0.00112727
0.000569214
0.00103705
0.000903113
0.000945164
0.00121288
0.000547927
0.000575445
0.000650922
0.000844689
0.000819506
0.000603624
0.000589672
0.00107609
0.000324968
0.000434847
0.000587617
0.000577631
0.000589379
0.00162798
0.000893093
0.000529632
0.000555975
0.000509938
0.000586814
0.000481191
0.000520501
0.000567694
0.000486705
0.00110067
0.000571968
0.000447699
0.00109427
0.000460342
0.000478324
0.000834948
0.00136967
0.000496213
0.000449591
0.000786967
0.000850249
0.00057029
0.000565259
0.000606468
0.000597727
0.000703096
0.000207569
0.000768017
0.000816226
0.000597039
0.0010267
0.000284057
0.000785111
0.00070096
0.000407507
0.000393182
0.000841702
0.000845632
0.000863576
0.000528317
0.00120304
0.000731393
0.000470655
0.000816679
0.000430323
0.000588022
0.00113062
0.000794036
0.000606719
0.000480244
0.000779246
0.00111996
0.00117693
0.000507254
0.000861109
0.000713707
0.000613765
0.000807584
0.000818951
0.000604385
0.00129487
0.000948128
0.000536595
0.000880685
0.000779822
0.000516031
0.0009358
0.000429415
0.000589026
0.00052224
0.000480708
0.000471409
0.000697532
0.000970146
0.000616429
0.000609743
0.000501351
0.000611209
0.000412085
0.00051331
0.000744243
0.000422275
0.000454596
0.00106165
0.000550198
0.000804325
0.00074308
0.000694061
0.000900499
0.000832631
0.000820668
0.000453086
0.00156624
0.000486607
0.000424282
0.000631571
0.000557939
0.000555868
0.00052561
0.000728891
0.000341558
0.000580548
0.000581847
0.000565807
0.000422991
0.000532476
0.000492404
0.000518233
0.00106443
0.000413549
0.000774008
0.000591805
0.00073585
0.000829396
0.000607985
0.000719604
0.000484328
0.00115526
0.001401
0.000585998
0.000637029
0.00038626
0.000660866
0.000569847
0.000595282
0.000464955
0.00121694
0.000464929
0.000277031
0.000382975
0.00117243
0.000648936
0.000810634
0.000644529
0.000809089
0.000298604
0.000484582
0.000614358
0.000827395
0.000361329
0.000588553
0.000508496
0.000505614
0.000455669
0.000561432
0.000885934
0.000468801
0.000982877
0.000532491
0.000543723
0.0010037
0.000564685
0.000554641
0.000455222
0.000538124
0.00036725
0.000722702
0.000503895
0.000391946
0.00060628
0.000490189
0.000514894
0.000933276
0.00135928
0.000202476
0.000763309
0.00048226
0.000469095
0.000612747
0.000971626
0.00043608
0.00052487
0.000517576
0.000447851
0.00103803
0.000850146
0.000823914
0.000348091
0.000801975
0.000804917
0.000885943
0.000583283
0.000786618
0.000807367
0.000567268
0.000640855
0.000841907
0.000543377
0.000997168
0.000286902
0.000635675
0.00102052
0.000564952
0.000643817
0.000363977
0.000306158
0.00142367
0.00100618
0.00101846
0.000489191
0.00071962
0.000841774
0.000494007
0.000579258
0.000924372
0.000603783
0.000544296
0.000867863
0.000832722
0.000216459
0.000223283
0.000298711
0.00105439
0.00102181
0.00105673
0.000944343
0.000257272
0.00108272
0.000322263
0.000577378
0.000796042
0.000880249
0.000593437
0.000797727
0.00088851
0.000675055
0.00101669
0.00112144
0.00102753
0.000900526
0.000906378
0.000392918
0.000455579
0.000525481
0.000370347
0.000466011
0.00110815
0.000263997
0.000543105
0.000473641
0.00106774
0.000912998
0.00034112
0.000283381
0.000880782
0.000656343
0.000972388
0.0003265
0.000540748
0.000971949
0.00108029
0.000415551
0.000590948
0.000296926
0.00149985
0.000678224
0.000951264
0.000916947
0.000510852
0.000514987
0.00067334
0.000934628
0.000531911
0.000464856
0.000459704
0.00108065
0.00103127
0.000628353
0.000750924
0.000767849
0.000459569
0.00100371
0.000640519
0.000738031
0.000448863
0.000871111
0.000754438
0.000936719
0.000539576
0.00102938
0.0006884
0.00086478
0.00100316
0.00060993
0.000579801
0.000613188
0.000930005
0.000993112
0.00090999
0.000567184
0.000463097
0.000753098
0.000689098
0.000678382
0.000512539
0.000762149
0.000799919
0.000591005
0.000989541
0.000849585
0.00100009
0.00027828
0.000481636
0.000590559
0.000659293
0.000878482
0.000470893
0.000675508
0.000686822
0.000644493
0.000465179
0.00107739
0.000670013
0.000662873
0.000967026
0.000655352
0.00098869
0.000599946
0.000593483
0.000609444
0.000624012
0.0010435
0.000606318
0.000455889
0.000703388
0.00068419
0.000678008
0.000688843
0.000785424
0.000602537
0.000999193
0.000301472
0.00110572
0.000829436
0.000427606
0.000841497
0.000715142
0.000910005
0.000455864
0.00082922
0.00105564
0.000963825
0.000635246
0.00053701
0.000627044
0.000908477
0.000243018
0.000975708
0.00026193
0.000419198
0.000591112
0.000620676
0.000967197
0.000645918
0.000308773
0.000439469
0.000334969
0.000612307
0.000984397
0.000580673
0.000655596
0.000691406
0.000298247
0.000654179
0.000952474
0.000440231
0.000272823
0.000425547
0.000487737
0.000584709
0.00127439
0.000811375
0.000519437
0.000921696
0.000652834
0.00088305
0.000653826
0.000335687
0.000675642
0.00108545
0.000560838
0.00100359
0.00128398
0.000753801
0.00109604
0.000685681
0.000295089
0.000674687
0.000871629
0.000905645
0.00112076
0.00105104
0.000299786
0.000752646
0.00100208
0.00112645
0.000748211
0.0005823
0.000712903
0.000718746
0.000464042
0.000929136
0.000475872
0.000861941
0.000856172
0.000995508
0.000507163
0.000489231
0.000400938
0.00039015
0.000547494
0.00110042
0.000581224
0.000998831
0.000962386
0.000487563
0.000384046
0.000433535
0.000500457
0.000856489
0.000696222
0.00025302
0.000510199
0.000556209
0.000520239
0.000413149
0.0005255
0.000396122
0.000470514
0.000769605
0.000854293
0.000840257
0.000211983
0.000653522
0.000353082
0.000461644
0.000626155
0.000569705
0.00124958
0.000451806
0.000682571
0.000473873
0.00100039
0.000885137
0.000469839
0.000889431
0.00087641
0.000620661
0.000489662
0.000448512
0.00059448
0.000831846
0.000500969
0.000444458
0.000357789
0.000994046
0.000372611
0.0006058
0.000691243
0.000400659
0.000607788
0.000873339
0.000590477
0.000568024
0.00059584
0.000638174
0.000617938
0.000783266
0.000541254
0.000617356
0.000477376
0.000952706
0.000196715
0.000609802
0.000598447
0.000494747
0.000561763
0.000683378
0.000169463
0.00164583
0.000481672
0.000673793
0.000221297
0.000616142
0.00101475
0.00100597
0.00100356
0.000647836
0.00053908
0.000517703
0.000541854
0.000983323
0.000581289
0.000623333
0.000928136
0.00068466
0.000797906
0.00061557
0.000607051
0.00044687
0.00118968
0.000562552
0.000958432
0.000736145
0.00102769
0.000502673
0.000768928
0.000444181
0.00048855
0.00108197
0.000322406
0.00103302
0.000716365
0.000718556
0.00114102
0.00044033
0.000440011
0.000582615
0.000582797
0.000444122
0.000231381
0.000492337
0.000496485
0.000346968
0.000361549
0.000661924
0.000929578
0.00103295
0.000548201
0.000794647
0.000628914
0.000782694
0.000948929
0.000944468
0.000528291
0.000817304
0.000979549
0.000985408
0.000813798
0.000819625
0.000445991
0.000980174
0.00041097
0.000436263
0.000752835
0.00108257
0.000607273
0.00067577
0.00105046
0.000474354
0.000388852
0.000553404
0.00047339
0.000319547
0.00103214
0.000637332
0.000754836
0.000601784
0.000593206
0.000448785
0.00105154
0.000780279
0.000844564
0.0007356
0.000910943
0.000778567
0.000687238
0.000577086
0.000588325
0.000701058
0.000771734
0.000958451
0.000577181
0.00170566
0.0007381
0.000920499
0.000748261
0.000970235
0.00087365
0.000383765
0.000950689
0.000386805
0.000634911
0.000704973
0.000834731
0.000482811
0.00105114
0.000919089
0.000704928
0.00103325
0.000496345
0.000487382
0.000924094
0.000463602
0.000477962
0.00107403
0.000436255
0.000278527
0.000856976
0.000585816
0.000504365
0.000601622
0.000471845
0.00068087
0.000749322
0.00116563
0.000454715
0.000801948
0.00125539
0.000458673
0.000513117
0.000958301
0.00112224
0.000698279
0.000545231
0.000739141
0.000753773
0.000636301
0.000789002
0.000969552
0.000453121
0.000625774
0.000670287
0.00104042
0.000451586
0.000699326
0.000454205
0.000904897
0.000201579
0.000950234
0.000354921
0.00107441
0.000598711
0.000465837
0.000469635
0.00103307
0.000670254
0.00057944
0.000781205
0.000703639
0.000752901
0.000515307
0.00126064
0.000396885
0.000183421
0.000410852
0.000465552
0.000888546
0.000499258
0.000495165
0.000419503
0.000699161
0.000685022
0.00100079
0.000487073
0.000923086
0.000597977
0.000880188
0.000869628
0.00102291
0.00105406
0.000448877
0.000584039
0.000729345
0.00111139
0.000672221
0.000479719
0.000568
0.000562684
0.00108027
0.00150871
0.000450854
0.000584693
0.000856518
0.000430416
0.000663802
0.001012
0.000568655
0.000558847
0.000760777
0.000771618
0.000696534
0.00138623
0.000557588
0.000253017
0.000461698
0.00190707
0.000546184
0.000582614
0.000790205
0.000449553
0.000541569
0.000971507
0.000815768
0.000988921
0.000822706
0.000842358
0.00103858
0.000828304
0.000817388
0.000812179
0.000413377
0.000404661
0.000509403
0.000501247
0.000942626
0.000980127
0.000922257
0.00128795
0.000478941
0.00030442
0.000594905
0.00106235
0.000423548
0.000413721
0.000968206
0.00022674
0.000600637
0.000671645
0.000676059
0.0012308
0.000921505
0.000465715
0.00105071
0.000888781
0.000435869
0.000429138
0.000822841
0.000982999
0.000513143
0.000805248
0.000856997
0.00104593
0.00039097
0.00061395
0.000840869
0.000481279
0.000476098
0.000426475
0.000519837
0.000999182
0.000604179
0.000487183
0.000636535
0.000426243
0.000771575
0.000470637
0.000867066
0.00193502
0.000498222
0.000496754
0.000383762
0.00105836
0.000646563
0.00104578
0.0011131
0.000918614
0.000445894
0.000328411
0.000335172
0.000369829
0.000591777
0.000231844
0.000672825
0.000881281
0.000892449
0.000390814
0.000404557
0.000845481
0.000312858
0.000361328
0.000995248
0.000652649
0.00059852
0.00026928
0.000475672
0.000483303
0.000186915
0.00100546
0.000520327
0.000620347
0.00105606
0.000412893
0.000516104
0.000560063
0.000989711
0.000983429
0.00102781
0.00102612
0.000440287
0.00102569
0.000430046
0.000646491
0.000295252
0.000835638
0.000645565
0.000904242
0.00077134
0.000841527
0.000650827
0.000470271
0.000779223
0.000603707
0.000654471
0.000648518
0.000505194
0.000684405
0.00040684
0.00057069
0.000445854
0.000742208
0.000384097
0.000382399
0.000796731
0.000620866
0.000643082
0.000818956
0.000941351
0.000796516
0.000893148
0.000565297
0.000570472
0.00100417
0.000650395
0.000647897
0.000908033
0.000454936
0.000455964
0.00107181
0.000258172
0.000268779
0.000963622
0.000889033
0.000591269
0.000608508
0.000461858
0.000500932
0.000360204
0.000780482
0.000525907
0.000522849
0.0002087
0.000327452
0.000553649
0.000537876
0.000537519
0.000572557
0.000843606
0.000561153
0.000642451
0.000813686
0.000619425
0.000450409
0.000560398
0.00049126
0.000462013
0.000506993
0.000442765
0.000235638
0.000380937
0.000416561
0.00055885
0.00152368
0.000615977
0.0007147
0.000961993
0.000678132
0.000992557
0.000994022
0.000758164
0.000626673
0.000303772
0.00045566
0.0005465
0.00024357
0.000235104
0.000582975
0.000248868
0.000413428
0.000542001
0.000407842
0.00054436
0.000573748
0.00120137
0.000587526
0.00180849
0.00121069
0.000809344
0.000958257
0.000477848
0.000474281
0.000468129
0.000648229
0.000542186
0.00039588
0.000517908
0.000987518
0.000965273
0.000931298
0.00095966
0.000785025
0.000868081
0.000872732
0.000938259
0.000620965
0.000571975
0.000825809
0.00048025
0.000605397
0.000789793
0.000621298
0.000539549
0.000554608
0.000525661
0.000418939
0.000473185
0.000471788
0.000788397
0.000583669
0.00244639
0.000843992
0.000845498
0.0010282
0.000827138
0.000332588
0.000353335
0.000626981
0.000867234
0.000385051
0.000858531
0.000675504
0.00060237
0.000692852
0.000701609
0.00142983
0.000551074
0.000859285
0.00046041
0.00055612
0.000451199
0.000255596
0.000446448
0.00044465
0.000530599
0.00115613
0.000830968
0.000355221
0.00202251
0.000527666
0.000951815
0.00045754
0.000435391
0.000699983
0.000618244
0.000640578
0.000804387
0.000726816
0.000427655
0.000588439
0.00056437
0.00097502
0.00111023
0.000530499
0.000307345
0.00100966
0.000997592
0.00092345
0.000559194
0.000759637
0.000728626
0.000367294
0.000547466
0.000765122
0.000702325
0.000941901
0.000702168
0.000243497
0.000603375
0.000438205
0.00042588
0.00089982
0.00160359
0.000444583
0.000453001
0.000511583
0.000206996
0.000473389
0.000463674
0.000744008
0.000489307
0.000553811
0.000504142
0.000461591
0.00101738
0.00101203
0.000765008
0.00027322
0.000182985
0.00067301
0.000276376
0.000899456
0.000908593
0.00087011
0.000561536
0.000672332
0.000476653
0.00046544
0.00100926
0.000648119
0.000526285
0.000594743
0.000651229
0.00180096
0.000283312
0.000551415
0.000345944
0.000681822
0.000542738
0.000978033
0.000660166
0.000982164
0.000564882
0.000751773
0.000724588
0.000556305
0.000302158
0.0005845
0.000272869
0.000534078
0.000541688
0.000996927
0.000915662
0.000432907
0.00086767
0.00110378
0.000929394
0.000993726
0.00065613
0.000650809
0.000429064
0.000415346
0.000587296
0.000588979
0.000437037
0.0010787
0.00111888
0.000437524
0.000524892
0.00107297
0.000551378
0.00107481
0.000502932
0.000543996
0.000967293
0.00066775
0.000657545
0.00098628
0.000841704
0.000700758
0.000778069
0.000942728
0.000776931
0.000221387
0.00074841
0.00114956
0.000629406
0.000605449
0.00050379
0.000513557
0.000810262
0.000847557
0.00057133
0.00084549
0.000916543
0.00107446
0.000438284
0.00058786
0.00057405
0.000786218
0.000685031
0.00068763
0.000577348
0.00104742
0.000807915
0.000476935
0.00118863
0.000319461
0.000343998
0.000662001
0.000641337
0.000973763
0.000945918
0.000842936
0.000473678
0.000623897
0.00112574
0.00072668
0.000419596
0.000677948
0.000272765
0.00044982
0.00100701
0.000619233
0.000586633
0.000385849
0.00081078
0.00111177
0.000197521
0.00055113
0.000415317
0.000406759
0.00105036
0.000648831
0.000595125
0.000992377
0.000466481
0.000687282
0.000531493
0.000597576
0.000591709
0.000940984
0.00079566
0.000562975
0.000781993
0.00038981
0.0007798
0.000641531
0.000667719
0.000674564
0.000910526
0.000805296
0.000485288
0.00046619
0.000520088
0.00100313
0.000919929
0.000919078
0.000589815
0.000588646
0.000891372
0.000961794
0.000808609
0.000379391
0.000584044
0.00100185
0.000836633
0.000997483
0.000843771
0.000562665
0.000923083
0.000971473
0.000957435
0.000968093
0.000660747
0.000662896
0.000654595
0.000888797
0.000523092
0.000519131
0.000510864
0.000520544
0.000652203
0.000650227
0.000909506
0.000413586
0.000514302
0.000881494
0.000957298
0.000497943
0.000497759
0.000949291
0.000657012
0.000635749
0.000413682
0.000411922
0.000449481
0.00121971
0.00051755
0.000457583
0.000451784
0.000611327
0.000977519
0.000985649
0.00045813
0.000466716
0.00065405
0.000672892
0.000587322
0.000807253
0.000598946
0.000976746
0.000514679
0.000515445
0.00110681
0.000481967
0.000650931
0.000854422
0.00118479
0.00083319
0.000964699
0.000520018
0.00109901
0.000734208
0.000699592
0.00118785
0.000437155
0.000446349
0.000474694
0.000801709
0.000529305
0.00052976
0.000755367
0.000523968
0.000915939
0.000686412
0.000641519
0.000628127
0.000633433
0.00092334
0.000488758
0.000909702
0.000370746
0.000393522
0.000691551
0.000619211
0.000319986
0.000518799
0.000495309
0.000449623
0.000918988
0.000514578
0.000293445
0.000607496
0.000512834
0.000750178
0.000454223
0.000529196
0.000432461
0.00031321
0.000277429
0.000217408
0.00025906
0.000508741
0.000225664
0.000493542
0.000731614
0.000587084
0.00060002
0.00059544
0.00109
0.000886976
0.000889458
0.00097465
0.000908879
0.000965164
0.00043831
0.000584889
0.000957694
0.000178669
0.000780304
0.000512327
0.000484347
0.000638673
0.000630043
0.000463925
0.000464705
0.000781078
0.000537875
0.000489391
0.000596982
0.000786843
0.000785383
0.00103871
0.00104273
0.000889767
0.000671559
0.00113051
0.000459815
0.000451507
0.000937582
0.000485597
0.0010812
0.000595417
0.000989228
0.000622169
0.000657304
0.000486736
0.00100496
0.000428622
0.000601701
0.000515103
0.000538538
0.000722163
0.000730996
0.00100019
0.000478043
0.000481924
0.00041492
0.000659658
0.00066782
0.000633999
0.000431549
0.00100765
0.000605663
0.00040939
0.000425074
0.000677655
0.000929159
0.000865887
0.000977697
0.000495345
0.00105898
0.000953604
0.000820149
0.000586245
0.000579348
0.000576762
0.000578637
0.000745096
0.000992548
0.000594717
0.000541251
0.000644167
0.000629866
0.000186163
0.000912939
0.000885204
0.000708766
0.000507071
0.000732839
0.000614094
0.000422694
0.000726858
0.00052208
0.000616566
0.000663691
0.000803793
0.00100708
0.000615667
0.000621358
0.000615133
0.000918124
0.00103248
0.000811521
0.00106912
0.00098656
0.00106333
0.000483539
0.00100033
0.000528572
0.000439764
0.000728504
0.000489992
0.000502629
0.000469029
0.000626606
0.000634666
0.00100252
0.000655679
0.000890111
0.000612355
0.000695957
0.000690051
0.000988884
0.000407263
0.000847491
0.000386342
0.000475574
0.000671678
0.000993417
0.000445872
0.000981712
0.000559377
0.000449285
0.000476851
0.000485817
0.000453563
0.00070351
0.000666926
0.000866214
0.000646181
0.000875238
0.000608103
0.00104795
0.00123212
0.000816171
0.000478658
0.000618852
0.00120127
0.000753594
0.00115266
0.000532781
0.000678086
0.000591584
0.000620468
0.000303298
0.000470995
0.000535465
0.000631503
0.000584515
0.000602289
0.000606106
0.000542769
0.000574188
0.000621318
0.000694636
0.000674506
0.000744485
0.000253713
0.00047301
0.0010464
0.000676448
0.00049316
0.000422544
0.000410647
0.000500962
0.000512917
0.000602112
0.000629801
0.00114143
0.000808719
0.000712149
0.000496325
0.000624488
0.000487242
0.000981442
0.000991909
0.000349118
0.000359756
0.000463288
0.000610992
0.000478472
0.000637988
0.000508863
0.000502904
0.000745669
0.000795962
0.000429502
0.000878739
0.000621658
0.000615479
0.000554184
0.000919868
0.000608696
0.00088717
0.000857799
0.000930924
0.000668733
0.00072747
0.000968444
0.000953313
0.000503558
0.000519341
0.000552781
0.000582177
0.000612861
0.00049067
0.000449259
0.000420484
0.000548735
0.000385896
0.000644717
0.000933472
0.000607196
0.000694721
0.000685455
0.000846924
0.000756541
0.000508904
0.000671311
0.000533261
0.000530246
0.000575517
0.000901173
0.000714466
0.000715222
0.000294868
0.000925012
0.000930417
0.000916926
0.000808255
0.000615829
0.000439379
0.000587442
0.00058786
0.000432482
0.000779809
0.000617504
0.000459783
0.00045774
0.000502597
0.000738075
0.000722005
0.00100222
0.000995903
0.000719853
0.000744282
0.000745839
0.000692038
0.000670588
0.000770062
0.000979458
0.000951528
0.000598512
0.000596184
0.000661114
0.000705102
0.000701034
0.000778079
0.000461631
0.000400494
0.000367335
0.000969221
0.000951105
0.000723772
0.000700805
0.000722164
0.000724921
0.000450704
)
;

boundaryField
{
    back
    {
        type            empty;
    }
    front
    {
        type            empty;
    }
    down
    {
        type            calculated;
        value           nonuniform List<scalar> 
30
(
0.000634441
0.000443142
0.000401889
0.000207569
0.000341558
0.000298604
0.000202476
0.000370347
0.000335687
0.000454715
0.000183421
0.000429138
0.000186915
0.000454936
0.000258172
0.000442765
0.000235638
0.000416561
0.000355221
0.000243497
0.000429064
0.000437037
0.000221387
0.000473678
0.000385849
0.000319986
0.000449623
0.000277429
0.00043831
0.000178669
)
;
    }
    right
    {
        type            calculated;
        value           nonuniform List<scalar> 
20
(
0.000438094
0.000580941
0.000570961
0.000424971
0.000590246
0.000531979
0.000486705
0.000471409
0.000419198
0.000591112
0.000449553
0.000427655
0.000588439
0.000559194
0.000547466
0.000415346
0.000588979
0.000502932
0.00051755
0.000457583
)
;
    }
    up
    {
        type            calculated;
        value           nonuniform List<scalar> 
40
(
0.000606881
0.000991378
0.00104438
0.00100482
0.000585082
0.000618046
0.000693696
0.000700114
0.000834948
0.000779246
0.00106443
0.000490189
0.000871111
0.00107739
0.000655352
0.000963825
0.000635246
0.000908477
0.000929136
0.00059584
0.00108197
0.000749322
0.000676059
0.000835638
0.00107181
0.0010282
0.000587296
0.000437524
0.00104742
0.00072668
0.00081078
0.000531493
0.000413586
0.000587322
0.000964699
0.000755367
0.000909702
0.000619211
0.00109
0.000584889
)
;
    }
    left
    {
        type            calculated;
        value           nonuniform List<scalar> 10(0.00186588 0.000739926 0.000986713 0.00129487 0.000675055 0.000878482 0.000809344 0.00111023 0.00160359 0.000514302);
    }
    hole
    {
        type            calculated;
        value           nonuniform List<scalar> 
16
(
0.00075639
0.000658342
0.0023644
0.00210063
0.000909615
0.000229918
0.000514894
0.000905645
0.000384046
0.00164583
0.000958432
0.000319547
0.00068087
0.00125539
0.00190707
0.00244639
)
;
    }
}


// ************************************************************************* //
