/*--------------------------------*- C++ -*----------------------------------*\
| =========                 |                                                 |
| \\      /  F ield         | OpenFOAM: The Open Source CFD Toolbox           |
|  \\    /   O peration     | Version:  v2012                                 |
|   \\  /    A nd           | Website:  www.openfoam.com                      |
|    \\/     M anipulation  |                                                 |
\*---------------------------------------------------------------------------*/
FoamFile
{
    version     2.0;
    format      ascii;
    class       volVectorField;
    location    "17";
    object      D_0;
}
// * * * * * * * * * * * * * * * * * * * * * * * * * * * * * * * * * * * * * //

dimensions      [0 1 0 0 0 0 0];


internalField   nonuniform List<vector> 
4000
(
(8.70597e-05 -0.000278224 0)
(8.91627e-05 -0.000392319 0)
(8.97444e-05 -0.000500346 0)
(8.92419e-05 -0.000605067 0)
(8.7934e-05 -0.000702026 0)
(8.58322e-05 -0.000794087 0)
(8.32436e-05 -0.000877513 0)
(8.01289e-05 -0.000955176 0)
(7.66355e-05 -0.00102395 0)
(7.26009e-05 -0.00108637 0)
(6.82626e-05 -0.00113988 0)
(6.34586e-05 -0.00118674 0)
(5.83804e-05 -0.0012251 0)
(5.31126e-05 -0.00125697 0)
(4.79083e-05 -0.0012815 0)
(4.28391e-05 -0.00130044 0)
(3.8207e-05 -0.00131384 0)
(3.40348e-05 -0.00132314 0)
(3.05787e-05 -0.00132901 0)
(2.79506e-05 -0.00133243 0)
(0.000257532 -0.000301005 0)
(0.000263999 -0.000411985 0)
(0.000266044 -0.000516766 0)
(0.000265166 -0.000618732 0)
(0.000261761 -0.000713145 0)
(0.0002559 -0.000803168 0)
(0.000248488 -0.000884424 0)
(0.000239091 -0.000960117 0)
(0.000228475 -0.00102635 0)
(0.000216048 -0.0010861 0)
(0.000202639 -0.0011364 0)
(0.000187848 -0.00117991 0)
(0.000172552 -0.00121479 0)
(0.000156783 -0.00124349 0)
(0.000141446 -0.00126518 0)
(0.000126655 -0.00128197 0)
(0.000113371 -0.0012939 0)
(0.000101506 -0.0013025 0)
(9.20295e-05 -0.00130842 0)
(8.45247e-05 -0.00131245 0)
(0.000417865 -0.00034507 0)
(0.000428682 -0.000450988 0)
(0.000433424 -0.000550054 0)
(0.000433265 -0.000647069 0)
(0.000429285 -0.000736274 0)
(0.000420399 -0.000821593 0)
(0.000408596 -0.000897665 0)
(0.000392759 -0.000968073 0)
(0.000374321 -0.00102814 0)
(0.000352803 -0.0010815 0)
(0.000329452 -0.0011248 0)
(0.000304299 -0.00116161 0)
(0.000278677 -0.00119001 0)
(0.000252903 -0.00121325 0)
(0.000228317 -0.0012305 0)
(0.000205253 -0.00124436 0)
(0.000184881 -0.00125468 0)
(0.000167215 -0.00126311 0)
(0.000153166 -0.00126985 0)
(0.000142039 -0.00127546 0)
(0.000564764 -0.000408008 0)
(0.000579405 -0.000508324 0)
(0.000587189 -0.000600228 0)
(0.000588639 -0.000690339 0)
(0.000584474 -0.000771239 0)
(0.000573318 -0.000848136 0)
(0.000557096 -0.000914355 0)
(0.000534495 -0.000974491 0)
(0.000507911 -0.00102344 0)
(0.00047698 -0.00106583 0)
(0.000443925 -0.00109842 0)
(0.000409183 -0.00112579 0)
(0.000374623 -0.00114613 0)
(0.000340974 -0.00116339 0)
(0.000309692 -0.0011766 0)
(0.000281262 -0.00118853 0)
(0.000256682 -0.00119861 0)
(0.000235714 -0.00120813 0)
(0.000218787 -0.00121677 0)
(0.000204993 -0.00122451 0)
(0.00069746 -0.000485995 0)
(0.000713965 -0.000580877 0)
(0.000724087 -0.000664451 0)
(0.000725795 -0.000745347 0)
(0.000721107 -0.000813957 0)
(0.000706323 -0.000877045 0)
(0.000685077 -0.000927299 0)
(0.000655658 -0.000971563 0)
(0.0006213 -0.00100441 0)
(0.000582435 -0.00103242 0)
(0.0005418 -0.00105246 0)
(0.000500502 -0.00107007 0)
(0.000460592 -0.00108336 0)
(0.000423026 -0.00109642 0)
(0.000388985 -0.00110768 0)
(0.000358793 -0.00111959 0)
(0.000332605 -0.00113066 0)
(0.000310105 -0.00114179 0)
(0.000290925 -0.00115219 0)
(0.000274563 -0.00116151 0)
(0.000816766 -0.000574322 0)
(0.000832448 -0.000662984 0)
(0.000841088 -0.000735744 0)
(0.00084032 -0.000802983 0)
(0.000830543 -0.000853697 0)
(0.00081048 -0.000897555 0)
(0.000783796 -0.000927211 0)
(0.000749033 -0.000951885 0)
(0.000709637 -0.000967189 0)
(0.000667116 -0.000981025 0)
(0.000623798 -0.000990348 0)
(0.000581413 -0.00100092 0)
(0.000541394 -0.00101014 0)
(0.000504542 -0.00102144 0)
(0.000471199 -0.00103239 0)
(0.000441344 -0.00104455 0)
(0.000414523 -0.00105612 0)
(0.000390822 -0.00106764 0)
(0.000369363 -0.00107846 0)
(0.000350702 -0.00108821 0)
(0.000922603 -0.000664782 0)
(0.000933095 -0.000743638 0)
(0.000934782 -0.000800291 0)
(0.000925962 -0.000848301 0)
(0.000908195 -0.000876816 0)
(0.000882702 -0.000898649 0)
(0.000850268 -0.000907395 0)
(0.000813544 -0.000914374 0)
(0.000773719 -0.000916082 0)
(0.000733432 -0.000920317 0)
(0.000693352 -0.000923547 0)
(0.000655307 -0.00093048 0)
(0.000619061 -0.000937521 0)
(0.000585503 -0.000947273 0)
(0.0005539 -0.000956804 0)
(0.000524916 -0.000967511 0)
(0.000497731 -0.000977773 0)
(0.000473226 -0.000988117 0)
(0.000450264 -0.000998195 0)
(0.000430154 -0.00100759 0)
(0.00101255 -0.000745544 0)
(0.00101426 -0.000807412 0)
(0.00100415 -0.000840773 0)
(0.000984709 -0.000866116 0)
(0.000957965 -0.000872071 0)
(0.000925617 -0.000875448 0)
(0.000890708 -0.000870253 0)
(0.000855915 -0.000868533 0)
(0.000820928 -0.000864261 0)
(0.000787357 -0.00086495 0)
(0.000753962 -0.000864872 0)
(0.00072192 -0.00086889 0)
(0.000690521 -0.000872529 0)
(0.000660651 -0.000878987 0)
(0.000631657 -0.000885113 0)
(0.000604609 -0.000892855 0)
(0.000578568 -0.000900418 0)
(0.00055493 -0.00090876 0)
(0.000532162 -0.000917124 0)
(0.000512086 -0.000925406 0)
(0.00107974 -0.00080258 0)
(0.00107018 -0.000838951 0)
(0.0010481 -0.000845342 0)
(0.00101971 -0.00084993 0)
(0.000986529 -0.000840707 0)
(0.000954567 -0.000836576 0)
(0.00092118 -0.000828717 0)
(0.00089058 -0.000826231 0)
(0.000859604 -0.000821203 0)
(0.000830808 -0.000820294 0)
(0.00080184 -0.000817451 0)
(0.000774848 -0.000818442 0)
(0.000747916 -0.000818408 0)
(0.00072272 -0.0008213 0)
(0.000697323 -0.000823541 0)
(0.000673638 -0.000827794 0)
(0.00065024 -0.000832042 0)
(0.000628824 -0.000837485 0)
(0.000607498 -0.000843016 0)
(0.000588402 -0.000848863 0)
(0.00112188 -0.000818734 0)
(0.00110202 -0.000828927 0)
(0.00107229 -0.000816974 0)
(0.00104422 -0.000812528 0)
(0.00101219 -0.000801034 0)
(0.000984215 -0.000797704 0)
(0.00095418 -0.000789523 0)
(0.000926007 -0.000787045 0)
(0.000897289 -0.000781084 0)
(0.00087047 -0.000779547 0)
(0.000844166 -0.000775716 0)
(0.000819859 -0.000775319 0)
(0.000795832 -0.000773202 0)
(0.00077343 -0.000773547 0)
(0.000751056 -0.000772722 0)
(0.000730736 -0.00077441 0)
(0.000710358 -0.000775492 0)
(0.00069174 -0.000778143 0)
(0.000672637 -0.000780334 0)
(0.000655389 -0.000783429 0)
(0.0011469 -0.000800701 0)
(0.00112245 -0.000794987 0)
(0.00109357 -0.000781242 0)
(0.00106873 -0.000776797 0)
(0.00104038 -0.000765335 0)
(0.00101441 -0.000761534 0)
(0.000986655 -0.000752058 0)
(0.000961185 -0.000748939 0)
(0.000934796 -0.000741786 0)
(0.000910489 -0.000739621 0)
(0.000885755 -0.000734568 0)
(0.000863056 -0.000733241 0)
(0.000840346 -0.000729868 0)
(0.000819585 -0.00072926 0)
(0.00079914 -0.000727347 0)
(0.000780543 -0.00072745 0)
(0.000761786 -0.000726488 0)
(0.000744709 -0.000726913 0)
(0.00072717 -0.000726607 0)
(0.000711711 -0.000727631 0)
(0.00116754 -0.00076846 0)
(0.001144 -0.00075902 0)
(0.0011185 -0.000748301 0)
(0.00109497 -0.000740958 0)
(0.0010684 -0.00073022 0)
(0.00104511 -0.000724288 0)
(0.00101932 -0.00071507 0)
(0.000996446 -0.00071035 0)
(0.000971988 -0.000702908 0)
(0.000950069 -0.000699284 0)
(0.000927298 -0.000693585 0)
(0.000906737 -0.000690976 0)
(0.000885667 -0.000686785 0)
(0.00086656 -0.000684984 0)
(0.000847104 -0.000681993 0)
(0.000829638 -0.0006808 0)
(0.00081187 -0.000678718 0)
(0.000796023 -0.000677977 0)
(0.000779752 -0.000676566 0)
(0.000765415 -0.00067616 0)
(0.00119013 -0.000736589 0)
(0.00116781 -0.000726481 0)
(0.00114335 -0.000715159 0)
(0.00112158 -0.000706466 0)
(0.00109722 -0.000695694 0)
(0.00107565 -0.000688512 0)
(0.00105206 -0.000678915 0)
(0.00103105 -0.000673028 0)
(0.00100865 -0.000664935 0)
(0.000988543 -0.000660158 0)
(0.000967566 -0.000653589 0)
(0.000948645 -0.000649721 0)
(0.000929218 -0.000644519 0)
(0.000911647 -0.000641397 0)
(0.000893745 -0.000637346 0)
(0.000877558 -0.000634828 0)
(0.000860976 -0.000631599 0)
(0.000846079 -0.000629471 0)
(0.000830581 -0.000626742 0)
(0.000816946 -0.000624854 0)
(0.0012152 -0.000703685 0)
(0.00119322 -0.000692426 0)
(0.00117059 -0.000680924 0)
(0.00114968 -0.000671082 0)
(0.00112724 -0.000660126 0)
(0.00110721 -0.000651748 0)
(0.00108548 -0.00064189 0)
(0.0010663 -0.000634817 0)
(0.00104564 -0.000626298 0)
(0.00102741 -0.00062034 0)
(0.00100804 -0.000613175 0)
(0.00099087 -0.000608138 0)
(0.000972848 -0.000602196 0)
(0.000956836 -0.000597876 0)
(0.000940139 -0.000592946 0)
(0.000925336 -0.000589156 0)
(0.000909891 -0.000584996 0)
(0.000896276 -0.000581589 0)
(0.0008819 -0.000577946 0)
(0.000869388 -0.000574804 0)
(0.00124063 -0.000672278 0)
(0.0012195 -0.000660167 0)
(0.00119776 -0.000647914 0)
(0.00117815 -0.000637172 0)
(0.00115714 -0.000625816 0)
(0.00113854 -0.000616479 0)
(0.00111847 -0.000606256 0)
(0.00110076 -0.000598193 0)
(0.00108178 -0.000589221 0)
(0.00106499 -0.000582242 0)
(0.00104719 -0.000574511 0)
(0.00103139 -0.000568413 0)
(0.00101481 -0.000561816 0)
(0.00100003 -0.00055641 0)
(0.000984613 -0.000550772 0)
(0.00097088 -0.000545887 0)
(0.000956503 -0.000540987 0)
(0.000943786 -0.000536472 0)
(0.000930307 -0.000532077 0)
(0.000918558 -0.00052783 0)
(0.00126751 -0.000639724 0)
(0.00124712 -0.000626643 0)
(0.00122666 -0.000613732 0)
(0.00120799 -0.000602164 0)
(0.0011885 -0.000590323 0)
(0.00117112 -0.000580193 0)
(0.0011526 -0.000569524 0)
(0.0011363 -0.000560662 0)
(0.00111881 -0.000551211 0)
(0.00110349 -0.000543415 0)
(0.00108708 -0.000535149 0)
(0.00107274 -0.000528217 0)
(0.00105742 -0.00052103 0)
(0.00104404 -0.000514775 0)
(0.00102977 -0.000508517 0)
(0.00101733 -0.000502775 0)
(0.00100403 -0.000497278 0)
(0.000992496 -0.000491918 0)
(0.000980074 -0.000487 0)
(0.000969373 -0.000481932 0)
(0.00129365 -0.000609066 0)
(0.00127423 -0.000595086 0)
(0.00125478 -0.000581417 0)
(0.00123725 -0.000569137 0)
(0.00121899 -0.00055678 0)
(0.00120282 -0.000545985 0)
(0.00118565 -0.000534905 0)
(0.00117056 -0.000525381 0)
(0.00115446 -0.000515538 0)
(0.00114031 -0.000507072 0)
(0.00112526 -0.000498391 0)
(0.00111201 -0.000490777 0)
(0.00109797 -0.000483151 0)
(0.00108557 -0.000476203 0)
(0.00107248 -0.000469494 0)
(0.00106092 -0.000463054 0)
(0.00104868 -0.000457106 0)
(0.00103793 -0.000451051 0)
(0.00102645 -0.000445701 0)
(0.00101645 -0.00043995 0)
(0.00132096 -0.00057712 0)
(0.0013026 -0.000562326 0)
(0.00128436 -0.000547993 0)
(0.0012679 -0.000535065 0)
(0.00125095 -0.00052221 0)
(0.00123593 -0.000510848 0)
(0.00122009 -0.000499341 0)
(0.00120623 -0.000489285 0)
(0.00119141 -0.000479027 0)
(0.00117853 -0.000470043 0)
(0.00116468 -0.000460935 0)
(0.0011527 -0.000452815 0)
(0.00113977 -0.000444744 0)
(0.00112863 -0.000437308 0)
(0.00111657 -0.000430155 0)
(0.00110619 -0.000423249 0)
(0.00109496 -0.000416902 0)
(0.00108528 -0.000410384 0)
(0.00107483 -0.000404756 0)
(0.00106579 -0.000398536 0)
(0.00134658 -0.00054725 0)
(0.0013294 -0.000531732 0)
(0.00131235 -0.000516783 0)
(0.00129703 -0.000503328 0)
(0.00128131 -0.00049001 0)
(0.00126738 -0.000478228 0)
(0.00125279 -0.000466342 0)
(0.00123994 -0.000455929 0)
(0.0012264 -0.000445327 0)
(0.00121444 -0.000436029 0)
(0.00120187 -0.000426583 0)
(0.00119069 -0.000418184 0)
(0.00117902 -0.000409778 0)
(0.00116856 -0.000402094 0)
(0.00115772 -0.000394615 0)
(0.00114793 -0.00038749 0)
(0.00113782 -0.000380823 0)
(0.00112869 -0.000374144 0)
(0.00111923 -0.0003682 0)
(0.0011107 -0.000361849 0)
(0.00137333 -0.000516289 0)
(0.00135742 -0.00050017 0)
(0.00134165 -0.000484714 0)
(0.0013275 -0.000470804 0)
(0.00131305 -0.000457115 0)
(0.00130025 -0.000444964 0)
(0.0012869 -0.000432779 0)
(0.00127518 -0.000422046 0)
(0.00126282 -0.000411175 0)
(0.00125199 -0.000401587 0)
(0.00124052 -0.000391874 0)
(0.00123049 -0.000383211 0)
(0.00121984 -0.000374522 0)
(0.00121052 -0.000366608 0)
(0.00120065 -0.000358817 0)
(0.00119198 -0.000351536 0)
(0.00118284 -0.000344518 0)
(0.00117468 -0.000337677 0)
(0.00116634 -0.000331454 0)
(0.00115857 -0.000324975 0)
(0.00139773 -0.000487222 0)
(0.0013832 -0.000470659 0)
(0.00136877 -0.000454817 0)
(0.00135582 -0.0004406 0)
(0.00134264 -0.000426597 0)
(0.00133089 -0.000414242 0)
(0.00131879 -0.00040178 0)
(0.00130797 -0.000390926 0)
(0.00129685 -0.000379781 0)
(0.00128677 -0.000370149 0)
(0.00127657 -0.000360144 0)
(0.00126709 -0.000351513 0)
(0.0012578 -0.000342503 0)
(0.00124879 -0.000334699 0)
(0.00124042 -0.000326571 0)
(0.00123176 -0.000319453 0)
(0.00122432 -0.000311835 0)
(0.00121596 -0.000305595 0)
(0.00120955 -0.00029865 0)
(0.00120143 -0.000293017 0)
(0.00142315 -0.00045753 0)
(0.00141 -0.000440622 0)
(0.00139694 -0.000424514 0)
(0.00138521 -0.000410052 0)
(0.00137331 -0.000395889 0)
(0.00136266 -0.000383357 0)
(0.00135178 -0.000370804 0)
(0.00134196 -0.000359813 0)
(0.00133201 -0.000348627 0)
(0.00132286 -0.000338879 0)
(0.00131378 -0.000328871 0)
(0.00130515 -0.000320129 0)
(0.00129691 -0.000311157 0)
(0.00128867 -0.000303218 0)
(0.00128128 -0.000295173 0)
(0.00127331 -0.000287849 0)
(0.00126677 -0.000280653 0)
(0.00125903 -0.000273889 0)
(0.00125327 -0.000267335 0)
(0.00124572 -0.000261034 0)
(0.00144595 -0.000429298 0)
(0.00143432 -0.000412258 0)
(0.00142269 -0.000396042 0)
(0.00141222 -0.000381505 0)
(0.00140163 -0.00036725 0)
(0.00139204 -0.000354692 0)
(0.0013824 -0.000342053 0)
(0.0013735 -0.000331081 0)
(0.00136475 -0.000319799 0)
(0.00135637 -0.000310109 0)
(0.00134849 -0.000299985 0)
(0.0013405 -0.000291335 0)
(0.00133348 -0.00028222 0)
(0.00132578 -0.00027441 0)
(0.00131963 -0.000266186 0)
(0.00131212 -0.000259049 0)
(0.00130681 -0.000251608 0)
(0.00129945 -0.000245013 0)
(0.001295 -0.000238306 0)
(0.00128769 -0.000232087 0)
(0.00146945 -0.000400963 0)
(0.00145925 -0.000383859 0)
(0.00144903 -0.000367652 0)
(0.00143979 -0.000353088 0)
(0.00143048 -0.000338912 0)
(0.00142196 -0.000326351 0)
(0.00141351 -0.000313841 0)
(0.00140553 -0.000302875 0)
(0.00139789 -0.000291762 0)
(0.00139033 -0.000282073 0)
(0.00138349 -0.000272155 0)
(0.00137621 -0.000263489 0)
(0.00137018 -0.000254614 0)
(0.00136309 -0.000246761 0)
(0.00135788 -0.000238813 0)
(0.00135089 -0.000231605 0)
(0.00134651 -0.000224483 0)
(0.00133958 -0.00021781 0)
(0.001336 -0.000211403 0)
(0.00132912 -0.000205184 0)
(0.00149039 -0.00037363 0)
(0.00148175 -0.000356703 0)
(0.00147298 -0.000340683 0)
(0.00146502 -0.00032628 0)
(0.00145701 -0.00031227 0)
(0.00144957 -0.000299865 0)
(0.0014423 -0.000287508 0)
(0.00143526 -0.000276697 0)
(0.00142873 -0.000265725 0)
(0.00142196 -0.000256192 0)
(0.00141618 -0.000246406 0)
(0.0014096 -0.000237895 0)
(0.00140457 -0.000229151 0)
(0.0013981 -0.000221447 0)
(0.00139384 -0.000213638 0)
(0.00138741 -0.000206562 0)
(0.00138392 -0.000199606 0)
(0.00137748 -0.000193016 0)
(0.00137475 -0.000186841 0)
(0.00136829 -0.000180637 0)
(0.00151159 -0.000346592 0)
(0.00150438 -0.000329895 0)
(0.00149701 -0.000314162 0)
(0.00149027 -0.000299962 0)
(0.0014835 -0.000286265 0)
(0.0014771 -0.00027404 0)
(0.00147095 -0.000262014 0)
(0.00146481 -0.000251361 0)
(0.0014593 -0.000240736 0)
(0.00145332 -0.000231336 0)
(0.00144847 -0.000221912 0)
(0.00144259 -0.000213509 0)
(0.00143843 -0.00020514 0)
(0.00143258 -0.000197526 0)
(0.00142913 -0.000190101 0)
(0.00142327 -0.000183109 0)
(0.00142053 -0.000176543 0)
(0.00141464 -0.000170051 0)
(0.00141259 -0.000164262 0)
(0.00140669 -0.000158196 0)
(0.00153043 -0.000320195 0)
(0.00152474 -0.000303972 0)
(0.00151877 -0.000288704 0)
(0.00151329 -0.000274902 0)
(0.00150774 -0.000261622 0)
(0.00150242 -0.000249741 0)
(0.00149736 -0.000238098 0)
(0.00149215 -0.000227746 0)
(0.00148761 -0.000217482 0)
(0.00148245 -0.000208347 0)
(0.00147849 -0.000199272 0)
(0.00147334 -0.0001911 0)
(0.00146998 -0.000183076 0)
(0.0014648 -0.000175658 0)
(0.00146207 -0.000168585 0)
(0.00145682 -0.000161751 0)
(0.00145473 -0.000155548 0)
(0.00144942 -0.000149172 0)
(0.00144794 -0.000143759 0)
(0.00144259 -0.000137773 0)
(0.00154909 -0.000294324 0)
(0.00154479 -0.00027862 0)
(0.00154014 -0.000263906 0)
(0.00153584 -0.000250541 0)
(0.00153145 -0.000237792 0)
(0.00152714 -0.000226284 0)
(0.00152309 -0.000215155 0)
(0.00151877 -0.000205124 0)
(0.00151513 -0.000195359 0)
(0.00151077 -0.000186504 0)
(0.0015076 -0.000177914 0)
(0.00150317 -0.00016999 0)
(0.00150052 -0.000162439 0)
(0.00149602 -0.000155246 0)
(0.00149391 -0.000148633 0)
(0.00148932 -0.000142013 0)
(0.00148777 -0.000136257 0)
(0.00148309 -0.000130095 0)
(0.00148209 -0.000125112 0)
(0.00147738 -0.000119349 0)
(0.00156563 -0.000268843 0)
(0.00156274 -0.000253883 0)
(0.00155939 -0.000239886 0)
(0.00155627 -0.000227147 0)
(0.00155299 -0.000215034 0)
(0.00154971 -0.000204059 0)
(0.00154662 -0.000193506 0)
(0.00154319 -0.000183933 0)
(0.00154039 -0.0001747 0)
(0.00153682 -0.000166238 0)
(0.0015344 -0.00015815 0)
(0.00153069 -0.000150562 0)
(0.00152868 -0.000143493 0)
(0.00152485 -0.000136583 0)
(0.00152329 -0.000130439 0)
(0.00151934 -0.000124052 0)
(0.00151826 -0.000118753 0)
(0.00151421 -0.000112783 0)
(0.00151358 -0.00010824 0)
(0.00150949 -0.00010264 0)
(0.00158161 -0.00024398 0)
(0.00158 -0.000229811 0)
(0.00157785 -0.000216609 0)
(0.00157583 -0.000204534 0)
(0.00157358 -0.000193148 0)
(0.00157125 -0.00018274 0)
(0.00156906 -0.000172857 0)
(0.00156647 -0.000163776 0)
(0.00156444 -0.000155164 0)
(0.00156165 -0.000147136 0)
(0.00155987 -0.000139626 0)
(0.00155689 -0.000132429 0)
(0.00155544 -0.000125896 0)
(0.0015523 -0.000119349 0)
(0.0015512 -0.0001137 0)
(0.00154793 -0.00010766 0)
(0.00154721 -0.000102817 0)
(0.00154384 -9.71836e-05 0)
(0.0015435 -9.30651e-05 0)
(0.00154008 -8.77894e-05 0)
(0.00159566 -0.000219336 0)
(0.00159531 -0.000206155 0)
(0.0015943 -0.000193888 0)
(0.00159335 -0.000182647 0)
(0.00159207 -0.000172082 0)
(0.00159067 -0.000162386 0)
(0.0015893 -0.000153233 0)
(0.00158753 -0.000144764 0)
(0.00158621 -0.00013681 0)
(0.00158414 -0.000129313 0)
(0.00158298 -0.000122404 0)
(0.00158067 -0.000115666 0)
(0.00157973 -0.000109692 0)
(0.00157721 -0.000103539 0)
(0.00157655 -9.842e-05 0)
(0.00157388 -9.27114e-05 0)
(0.00157352 -8.83785e-05 0)
(0.00157074 -8.30164e-05 0)
(0.00157068 -7.93826e-05 0)
(0.00156785 -7.43338e-05 0)
(0.00160886 -0.000195312 0)
(0.00160964 -0.000183163 0)
(0.00160967 -0.000171902 0)
(0.00160969 -0.000161533 0)
(0.00160929 -0.000151863 0)
(0.00160873 -0.000142914 0)
(0.00160812 -0.000134563 0)
(0.00160711 -0.000126745 0)
(0.00160643 -0.000119514 0)
(0.00160506 -0.000112594 0)
(0.00160442 -0.000106333 0)
(0.00160277 -0.000100123 0)
(0.00160226 -9.47229e-05 0)
(0.0016004 -8.90678e-05 0)
(0.00160006 -8.44451e-05 0)
(0.00159805 -7.92229e-05 0)
(0.00159791 -7.53085e-05 0)
(0.00159579 -7.04271e-05 0)
(0.00159588 -6.71552e-05 0)
(0.00159368 -6.25529e-05 0)
(0.00162027 -0.000171386 0)
(0.00162211 -0.000160436 0)
(0.00162309 -0.000150293 0)
(0.00162403 -0.000140941 0)
(0.00162443 -0.000132242 0)
(0.00162468 -0.000124163 0)
(0.00162473 -0.000116664 0)
(0.00162443 -0.000109598 0)
(0.00162431 -0.000103118 0)
(0.00162359 -9.6855e-05 0)
(0.00162342 -9.1263e-05 0)
(0.00162237 -8.56291e-05 0)
(0.00162225 -8.08299e-05 0)
(0.00162094 -7.56824e-05 0)
(0.00162094 -7.16121e-05 0)
(0.00161944 -6.68301e-05 0)
(0.0016196 -6.34566e-05 0)
(0.00161797 -5.89288e-05 0)
(0.00161832 -5.62725e-05 0)
(0.00161661 -5.18684e-05 0)
(0.00163062 -0.00014803 0)
(0.00163339 -0.000138317 0)
(0.00163522 -0.000129352 0)
(0.00163695 -0.000121052 0)
(0.00163807 -0.000113381 0)
(0.001639 -0.000106209 0)
(0.00163967 -9.96146e-05 0)
(0.00163999 -9.33414e-05 0)
(0.00164038 -8.76603e-05 0)
(0.00164023 -8.21015e-05 0)
(0.00164049 -7.72127e-05 0)
(0.00163996 -7.22199e-05 0)
(0.0016402 -6.80308e-05 0)
(0.00163939 -6.34877e-05 0)
(0.00163967 -5.99218e-05 0)
(0.00163867 -5.57466e-05 0)
(0.00163903 -5.27278e-05 0)
(0.00163794 -4.88825e-05 0)
(0.00163836 -4.6317e-05 0)
(0.00163731 -4.24476e-05 0)
(0.00163928 -0.000124678 0)
(0.00164288 -0.000116333 0)
(0.00164544 -0.000108636 0)
(0.0016479 -0.000101498 0)
(0.00164962 -9.49236e-05 0)
(0.00165121 -8.87461e-05 0)
(0.00165236 -8.31058e-05 0)
(0.00165328 -7.76904e-05 0)
(0.00165405 -7.28471e-05 0)
(0.00165447 -6.80324e-05 0)
(0.00165501 -6.38844e-05 0)
(0.00165505 -5.95393e-05 0)
(0.00165546 -5.60083e-05 0)
(0.00165524 -5.20302e-05 0)
(0.00165559 -4.90451e-05 0)
(0.00165519 -4.53659e-05 0)
(0.00165553 -4.28373e-05 0)
(0.00165504 -3.94426e-05 0)
(0.00165539 -3.72158e-05 0)
(0.00165488 -3.41884e-05 0)
(0.00164672 -0.000101819 0)
(0.00165101 -9.48745e-05 0)
(0.0016542 -8.84827e-05 0)
(0.00165724 -8.25452e-05 0)
(0.0016595 -7.7091e-05 0)
(0.0016616 -7.19577e-05 0)
(0.0016632 -6.72824e-05 0)
(0.00166459 -6.27907e-05 0)
(0.00166574 -5.87767e-05 0)
(0.00166658 -5.47952e-05 0)
(0.00166744 -5.1355e-05 0)
(0.00166787 -4.77769e-05 0)
(0.00166856 -4.48449e-05 0)
(0.0016687 -4.1583e-05 0)
(0.00166928 -3.9109e-05 0)
(0.00166923 -3.60922e-05 0)
(0.00166976 -3.40364e-05 0)
(0.0016696 -3.1205e-05 0)
(0.00167012 -2.95354e-05 0)
(0.00166989 -2.68327e-05 0)
(0.00165254 -7.8881e-05 0)
(0.00165739 -7.343e-05 0)
(0.00166109 -6.84183e-05 0)
(0.00166463 -6.37496e-05 0)
(0.0016673 -5.94805e-05 0)
(0.00166985 -5.54345e-05 0)
(0.00167178 -5.17833e-05 0)
(0.00167358 -4.8232e-05 0)
(0.00167498 -4.51066e-05 0)
(0.00167621 -4.19468e-05 0)
(0.00167727 -3.92775e-05 0)
(0.00167807 -3.6427e-05 0)
(0.0016789 -3.41585e-05 0)
(0.0016794 -3.15546e-05 0)
(0.00168008 -2.96392e-05 0)
(0.00168038 -2.72382e-05 0)
(0.00168097 -2.56308e-05 0)
(0.00168116 -2.34075e-05 0)
(0.00168171 -2.2069e-05 0)
(0.00168185 -2.00086e-05 0)
(0.00165703 -5.63542e-05 0)
(0.0016623 -5.24152e-05 0)
(0.00166638 -4.87951e-05 0)
(0.00167029 -4.54286e-05 0)
(0.00167328 -4.23438e-05 0)
(0.00167616 -3.94344e-05 0)
(0.00167835 -3.67944e-05 0)
(0.00168044 -3.42494e-05 0)
(0.00168208 -3.19874e-05 0)
(0.00168357 -2.97316e-05 0)
(0.00168482 -2.77986e-05 0)
(0.00168587 -2.57697e-05 0)
(0.00168685 -2.41301e-05 0)
(0.00168759 -2.22762e-05 0)
(0.00168839 -2.09037e-05 0)
(0.00168892 -1.91819e-05 0)
(0.00168961 -1.80555e-05 0)
(0.00169002 -1.64339e-05 0)
(0.00169064 -1.55314e-05 0)
(0.001691 -1.39952e-05 0)
(0.00165995 -3.3664e-05 0)
(0.00166552 -3.12966e-05 0)
(0.00166985 -2.91248e-05 0)
(0.00167402 -2.70933e-05 0)
(0.00167721 -2.52468e-05 0)
(0.00168031 -2.3483e-05 0)
(0.00168268 -2.19069e-05 0)
(0.00168497 -2.03561e-05 0)
(0.00168674 -1.90093e-05 0)
(0.00168843 -1.7628e-05 0)
(0.00168978 -1.64791e-05 0)
(0.00169102 -1.5233e-05 0)
(0.00169207 -1.42573e-05 0)
(0.00169299 -1.31202e-05 0)
(0.00169385 -1.2297e-05 0)
(0.00169455 -1.12495e-05 0)
(0.00169527 -1.05614e-05 0)
(0.00169586 -9.58971e-06 0)
(0.00169649 -9.02137e-06 0)
(0.00169704 -8.1167e-06 0)
(0.00166145 -1.13039e-05 0)
(0.00166716 -1.05049e-05 0)
(0.00167162 -9.76925e-06 0)
(0.00167591 -9.09052e-06 0)
(0.00167921 -8.46249e-06 0)
(0.00168242 -7.87971e-06 0)
(0.00168488 -7.34129e-06 0)
(0.00168727 -6.83486e-06 0)
(0.00168912 -6.37308e-06 0)
(0.0016909 -5.92658e-06 0)
(0.00169231 -5.53253e-06 0)
(0.00169363 -5.13165e-06 0)
(0.00169474 -4.79961e-06 0)
(0.00169574 -4.43164e-06 0)
(0.00169663 -4.15802e-06 0)
(0.00169742 -3.81226e-06 0)
(0.00169817 -3.594e-06 0)
(0.00169883 -3.26307e-06 0)
(0.00169948 -3.09541e-06 0)
(0.00170011 -2.77734e-06 0)
(0.00170115 -2.49773e-06 0)
(0.00169818 -7.12017e-06 0)
(0.00169242 -1.24233e-05 0)
(0.00168356 -1.76296e-05 0)
(0.00167216 -2.38471e-05 0)
(0.00165753 -3.02509e-05 0)
(0.00164069 -3.79151e-05 0)
(0.00162092 -4.61011e-05 0)
(0.00159872 -5.56955e-05 0)
(0.00157372 -6.62537e-05 0)
(0.00154679 -7.83256e-05 0)
(0.00151703 -9.17431e-05 0)
(0.00148573 -0.000106869 0)
(0.00145166 -0.00012364 0)
(0.00141637 -0.000142336 0)
(0.00137845 -0.000162978 0)
(0.00133951 -0.000185774 0)
(0.00129827 -0.000210822 0)
(0.00125571 -0.000238509 0)
(0.0012122 -0.000268025 0)
(0.00170283 -1.79067e-06 0)
(0.00169995 -5.18874e-06 0)
(0.00169428 -9.06025e-06 0)
(0.00168571 -1.30586e-05 0)
(0.00167449 -1.78014e-05 0)
(0.00166037 -2.29868e-05 0)
(0.00164387 -2.92097e-05 0)
(0.00162428 -3.61478e-05 0)
(0.00160279 -4.43772e-05 0)
(0.00157832 -5.35496e-05 0)
(0.0015522 -6.43519e-05 0)
(0.00152323 -7.6192e-05 0)
(0.001493 -8.99904e-05 0)
(0.00146002 -0.000104883 0)
(0.00142626 -0.000122021 0)
(0.00138983 -0.000140176 0)
(0.00135319 -0.000160978 0)
(0.001314 -0.000182318 0)
(0.00127498 -0.000207373 0)
(0.00123386 -0.000231711 0)
(0.00170447 -1.4986e-06 0)
(0.0017018 -4.03239e-06 0)
(0.00169664 -7.27135e-06 0)
(0.00168868 -1.02901e-05 0)
(0.00167845 -1.42465e-05 0)
(0.00166534 -1.82306e-05 0)
(0.00165019 -2.33673e-05 0)
(0.00163227 -2.8762e-05 0)
(0.00161234 -3.56253e-05 0)
(0.0015897 -4.29088e-05 0)
(0.0015654 -5.19386e-05 0)
(0.00153833 -6.15971e-05 0)
(0.00150998 -7.33168e-05 0)
(0.0014788 -8.57982e-05 0)
(0.00144667 -0.000100823 0)
(0.00141173 -0.000116484 0)
(0.001376 -0.000135525 0)
(0.00133784 -0.000154444 0)
(0.0012986 -0.000178135 0)
(0.00125826 -0.000199953 0)
(0.00170655 -1.08683e-06 0)
(0.00170395 -2.9246e-06 0)
(0.00169887 -5.34273e-06 0)
(0.00169112 -7.64623e-06 0)
(0.00168105 -1.07989e-05 0)
(0.00166825 -1.40184e-05 0)
(0.00165341 -1.83906e-05 0)
(0.00163573 -2.29419e-05 0)
(0.00161639 -2.8934e-05 0)
(0.0015942 -3.5228e-05 0)
(0.00157069 -4.3284e-05 0)
(0.00154437 -5.15982e-05 0)
(0.00151711 -6.21267e-05 0)
(0.00148713 -7.2658e-05 0)
(0.00145661 -8.60736e-05 0)
(0.0014235 -9.89438e-05 0)
(0.00139011 -0.000115783 0)
(0.00135445 -0.000131151 0)
(0.00131831 -0.000152129 0)
(0.00128047 -0.000170408 0)
(0.00170891 -8.53492e-07 0)
(0.00170651 -1.99102e-06 0)
(0.00170188 -3.8963e-06 0)
(0.00169473 -5.41389e-06 0)
(0.00168555 -7.91661e-06 0)
(0.00167377 -1.01893e-05 0)
(0.00166014 -1.37044e-05 0)
(0.00164393 -1.71021e-05 0)
(0.001626 -2.20862e-05 0)
(0.00160551 -2.69728e-05 0)
(0.00158355 -3.38769e-05 0)
(0.00155896 -4.0623e-05 0)
(0.00153321 -4.99367e-05 0)
(0.00150479 -5.88522e-05 0)
(0.00147544 -7.11022e-05 0)
(0.00144355 -8.23518e-05 0)
(0.00141078 -9.80191e-05 0)
(0.00137601 -0.000111592 0)
(0.00134015 -0.000130967 0)
(0.00130325 -0.000146931 0)
(0.0017115 -6.60351e-07 0)
(0.00170915 -1.45126e-06 0)
(0.00170458 -2.97146e-06 0)
(0.00169758 -4.108e-06 0)
(0.00168852 -6.22343e-06 0)
(0.00167696 -8.03551e-06 0)
(0.00166359 -1.11263e-05 0)
(0.00164766 -1.39153e-05 0)
(0.00163024 -1.83259e-05 0)
(0.00161021 -2.23694e-05 0)
(0.00158902 -2.84621e-05 0)
(0.00156528 -3.39535e-05 0)
(0.00154067 -4.21199e-05 0)
(0.00151363 -4.9207e-05 0)
(0.00148593 -5.98993e-05 0)
(0.00145603 -6.87647e-05 0)
(0.00142545 -8.24907e-05 0)
(0.00139302 -9.34654e-05 0)
(0.00135971 -0.000110617 0)
(0.00132479 -0.000124197 0)
(0.00171491 -4.68065e-07 0)
(0.00171276 -7.12347e-07 0)
(0.00170858 -1.81787e-06 0)
(0.00170215 -2.35615e-06 0)
(0.00169385 -3.97555e-06 0)
(0.00168324 -5.09975e-06 0)
(0.00167092 -7.59541e-06 0)
(0.00165626 -9.5934e-06 0)
(0.00164003 -1.33525e-05 0)
(0.00162148 -1.64944e-05 0)
(0.00160151 -2.19175e-05 0)
(0.00157925 -2.64517e-05 0)
(0.00155573 -3.39342e-05 0)
(0.00153001 -4.00546e-05 0)
(0.00150313 -4.99416e-05 0)
(0.00147431 -5.77821e-05 0)
(0.00144435 -7.03075e-05 0)
(0.00141288 -8.0024e-05 0)
(0.00138029 -9.533e-05 0)
(0.00134655 -0.000107204 0)
(0.00171811 -4.12733e-07 0)
(0.00171599 -5.31259e-07 0)
(0.00171186 -1.5163e-06 0)
(0.00170555 -1.88209e-06 0)
(0.00169737 -3.34226e-06 0)
(0.00168696 -4.1897e-06 0)
(0.00167488 -6.42999e-06 0)
(0.00166055 -7.97239e-06 0)
(0.00164479 -1.12875e-05 0)
(0.00162681 -1.37177e-05 0)
(0.00160762 -1.84166e-05 0)
(0.0015863 -2.19e-05 0)
(0.00156395 -2.83241e-05 0)
(0.00153964 -3.3035e-05 0)
(0.00151437 -4.15569e-05 0)
(0.00148737 -4.77263e-05 0)
(0.00145936 -5.86977e-05 0)
(0.00142988 -6.662e-05 0)
(0.00139933 -8.02762e-05 0)
(0.00136743 -9.027e-05 0)
(0.00172272 -2.65992e-07 0)
(0.00172078 3.41181e-09 0)
(0.00171699 -6.74949e-07 0)
(0.00171119 -6.32409e-07 0)
(0.00170364 -1.75425e-06 0)
(0.00169406 -2.16281e-06 0)
(0.00168283 -4.03619e-06 0)
(0.00166958 -5.11182e-06 0)
(0.00165478 -8.05448e-06 0)
(0.001638 -9.99227e-06 0)
(0.00161975 -1.43183e-05 0)
(0.00159964 -1.72857e-05 0)
(0.00157811 -2.32758e-05 0)
(0.00155492 -2.74123e-05 0)
(0.00153032 -3.52792e-05 0)
(0.00150438 -4.07316e-05 0)
(0.00147703 -5.06057e-05 0)
(0.00144865 -5.76037e-05 0)
(0.00141898 -6.9555e-05 0)
(0.00138832 -7.84596e-05 0)
(0.00172664 -2.83896e-07 0)
(0.00172474 -2.00734e-08 0)
(0.00172099 -7.14743e-07 0)
(0.00171531 -6.25515e-07 0)
(0.00170789 -1.69872e-06 0)
(0.00169853 -1.95107e-06 0)
(0.00168757 -3.6499e-06 0)
(0.0016747 -4.40078e-06 0)
(0.00166038 -6.97142e-06 0)
(0.00164425 -8.37366e-06 0)
(0.00162678 -1.20709e-05 0)
(0.00160765 -1.42856e-05 0)
(0.00158725 -1.93738e-05 0)
(0.00156539 -2.25948e-05 0)
(0.00154225 -2.9324e-05 0)
(0.0015179 -3.37929e-05 0)
(0.00149221 -4.23501e-05 0)
(0.00146549 -4.83366e-05 0)
(0.00143754 -5.88221e-05 0)
(0.00140855 -6.65716e-05 0)
(0.00173247 -1.87082e-07 0)
(0.00173071 3.08841e-07 0)
(0.00172724 -1.90018e-07 0)
(0.00172199 1.30087e-07 0)
(0.00171509 -7.44154e-07 0)
(0.00170641 -7.71961e-07 0)
(0.00169613 -2.2736e-06 0)
(0.00168414 -2.81182e-06 0)
(0.00167058 -5.18722e-06 0)
(0.00165541 -6.38148e-06 0)
(0.00163869 -9.85592e-06 0)
(0.00162054 -1.18355e-05 0)
(0.00160082 -1.65919e-05 0)
(0.00157994 -1.94844e-05 0)
(0.00155746 -2.56517e-05 0)
(0.0015341 -2.96155e-05 0)
(0.00150917 -3.72824e-05 0)
(0.00148355 -4.25292e-05 0)
(0.00145654 -5.17817e-05 0)
(0.00142881 -5.85463e-05 0)
(0.00173724 -2.36571e-07 0)
(0.00173552 1.79009e-07 0)
(0.00173212 -3.95044e-07 0)
(0.001727 -1.06101e-07 0)
(0.00172024 -9.81912e-07 0)
(0.00171182 -9.44312e-07 0)
(0.00170183 -2.32092e-06 0)
(0.00169027 -2.65977e-06 0)
(0.0016772 -4.73572e-06 0)
(0.00166271 -5.58477e-06 0)
(0.00164674 -8.55793e-06 0)
(0.00162954 -1.0071e-05 0)
(0.00161086 -1.41292e-05 0)
(0.00159117 -1.64885e-05 0)
(0.00156997 -2.1788e-05 0)
(0.00154797 -2.5196e-05 0)
(0.00152446 -3.18457e-05 0)
(0.00150028 -3.6496e-05 0)
(0.00147473 -4.45798e-05 0)
(0.00144853 -5.06203e-05 0)
(0.00174421 -1.87332e-07 0)
(0.00174262 3.22605e-07 0)
(0.00173943 -1.55433e-07 0)
(0.00173467 2.16149e-07 0)