/*--------------------------------*- C++ -*----------------------------------*\
| =========                 |                                                 |
| \\      /  F ield         | OpenFOAM: The Open Source CFD Toolbox           |
|  \\    /   O peration     | Version:  v2012                                 |
|   \\  /    A nd           | Website:  www.openfoam.com                      |
|    \\/     M anipulation  |                                                 |
\*---------------------------------------------------------------------------*/
FoamFile
{
    version     2.0;
    format      ascii;
    class       volSymmTensorField;
    location    "17";
    object      epsilon;
}
// * * * * * * * * * * * * * * * * * * * * * * * * * * * * * * * * * * * * * //

dimensions      [0 0 0 0 0 0 0];


internalField   nonuniform List<symmTensor> 
4000
(
(0.0085266 -0.000358465 -1.73123e-18 -0.00904021 3.82402e-18 1.25623e-32)
(0.00853713 -0.000355991 -6.36646e-20 -0.00880902 4.89742e-18 0)
(0.00840351 -0.000359191 1.09465e-26 -0.00844375 -5.09844e-24 0)
(0.00818183 -0.000354288 2.62304e-18 -0.00800889 -4.50527e-18 0)
(0.00789341 -0.000346256 -3.8375e-18 -0.00750963 -4.12055e-18 0)
(0.0075445 -0.000337998 5.09724e-20 -0.00697385 1.93759e-18 0)
(0.00716568 -0.00032327 -2.18149e-18 -0.00640337 8.9761e-21 0)
(0.00674861 -0.000309069 0 -0.00582163 0 0)
(0.0063148 -0.000289623 1.65577e-19 -0.00521655 2.89758e-18 0)
(0.00584985 -0.000268098 1.76687e-18 -0.00461012 1.30637e-18 0)
(0.00537715 -0.000240491 -2.01553e-19 -0.00399194 -2.21618e-18 0)
(0.00488604 -0.000212131 -2.18031e-19 -0.0033899 -1.88113e-18 0)
(0.00439855 -0.000178419 -1.14206e-19 -0.00279421 -7.74805e-19 0)
(0.00391675 -0.000142536 2.31321e-19 -0.00224428 1.24359e-18 0)
(0.00346201 -0.000104978 5.64679e-19 -0.00172993 5.22131e-19 0)
(0.00303638 -6.817e-05 -1.07244e-19 -0.0012869 -3.55508e-19 0)
(0.00266101 -3.26161e-05 -4.32051e-19 -0.000902932 -2.95452e-19 0)
(0.0023322 5.43793e-09 -6.60816e-19 -0.000601916 -2.56942e-19 0)
(0.00206892 3.19367e-05 -2.51174e-19 -0.000367017 -4.3663e-20 0)
(0.00186254 6.27927e-05 -3.75287e-19 -0.000234188 4.07962e-21 0)
(0.00819972 -0.00103621 -4.91186e-19 -0.00869601 2.49598e-18 5.53295e-33)
(0.00820878 -0.00103659 1.29515e-18 -0.00846693 2.16017e-18 0)
(0.00810447 -0.00104779 1.3857e-18 -0.00812901 -4.73383e-18 0)
(0.00791854 -0.00103719 2.62271e-18 -0.00773309 1.79388e-18 0)
(0.00767207 -0.00101754 -3.66876e-18 -0.00727371 4.4758e-19 0)
(0.0073456 -0.000989939 -5.00676e-25 -0.00676285 -6.69651e-24 0)
(0.00698037 -0.000947051 7.89557e-21 -0.00620545 7.4545e-20 0)
(0.00655543 -0.000899411 -2.41163e-18 -0.0056192 -3.08197e-18 0)
(0.0061012 -0.000834305 0 -0.00499736 0 0)
(0.00561315 -0.000763635 2.7161e-18 -0.00437548 1.24076e-18 0)
(0.00511411 -0.000675632 4.08206e-25 -0.00374203 1.34346e-24 0)
(0.0046088 -0.000584437 -6.63712e-19 -0.00314035 -1.73079e-18 0)
(0.00412069 -0.000480779 -3.42866e-19 -0.00256192 -7.01524e-19 0)
(0.00365354 -0.000377067 3.43513e-19 -0.00204562 5.55461e-19 0)
(0.00322677 -0.00027097 7.58181e-19 -0.00157875 5.41782e-19 0)
(0.00284332 -0.000169613 -6.36156e-20 -0.00119408 1.83088e-19 0)
(0.00251614 -7.34074e-05 -4.21786e-20 -0.000869877 9.47317e-20 0)
(0.00224238 1.59602e-05 -7.96506e-19 -0.000629984 -4.13677e-19 0)
(0.00202991 9.79028e-05 3.21007e-21 -0.000445566 1.83315e-21 0)
(0.00186066 0.000176851 -7.0331e-19 -0.000328323 -3.70439e-19 0)
(0.00764831 -0.00162445 5.55203e-19 -0.008111 2.06981e-18 4.66318e-33)
(0.00763767 -0.00162981 1.116e-18 -0.00786628 1.82683e-18 0)
(0.00755899 -0.00165047 6.07672e-20 -0.00755411 -2.21338e-18 0)
(0.00741051 -0.00164049 -1.13574e-18 -0.00719876 4.36085e-18 0)
(0.00719625 -0.00161179 2.31546e-18 -0.00677281 -3.85075e-19 0)
(0.00689185 -0.00156944 6.42985e-19 -0.00628655 -3.70334e-18 0)
(0.00652563 -0.00148849 5.90014e-19 -0.00573249 3.16566e-18 0)
(0.00608076 -0.00139689 1.58161e-20 -0.00513374 6.06776e-20 0)
(0.00559878 -0.00127102 -3.0115e-18 -0.00449581 -3.79696e-18 0)
(0.00508619 -0.0011354 1.24382e-18 -0.00386665 1.11371e-18 0)
(0.00457496 -0.000977958 1.20998e-18 -0.00324467 9.97915e-19 0)
(0.00408219 -0.000819566 -5.24947e-19 -0.00268359 -1.28867e-18 0)
(0.00362734 -0.000653607 -1.61409e-18 -0.00217084 -9.33835e-19 0)
(0.00322205 -0.000495927 9.75323e-20 -0.00174684 2.43189e-19 0)
(0.00287413 -0.000341778 1.05383e-18 -0.00138681 6.84299e-19 0)
(0.00258711 -0.000200744 4.89243e-19 -0.00111641 2.69875e-19 0)
(0.00235741 -6.9502e-05 3.18753e-19 -0.000900494 2.14187e-19 0)
(0.00217875 4.97232e-05 -9.89873e-19 -0.000753681 -5.3462e-19 0)
(0.00203642 0.00015543 -4.76642e-21 -0.000633694 -2.28556e-21 0)
(0.00191676 0.000251327 -7.38439e-19 -0.000546419 -4.65791e-19 0)
(0.00701237 -0.00210939 -3.5048e-18 -0.00742301 3.07979e-18 5.63432e-33)
(0.0069351 -0.00211688 -5.23345e-19 -0.00712125 4.23825e-18 0)
(0.0068355 -0.00213063 1.13414e-18 -0.00678391 -3.89093e-19 0)
(0.00666181 -0.00211432 -1.92596e-20 -0.00641348 -1.84343e-18 0)
(0.00643072 -0.00206009 2.80846e-18 -0.00596735 -4.3626e-18 0)
(0.00609371 -0.00197613 5.8402e-19 -0.00546431 3.12553e-18 0)
(0.00569458 -0.00184218 4.41237e-19 -0.00488676 1.45556e-18 0)
(0.00522727 -0.001689 2.46986e-18 -0.0042855 -5.82448e-20 0)
(0.00473895 -0.00149245 1.43726e-19 -0.00366476 -8.8837e-19 0)
(0.00424947 -0.00129254 -1.40896e-18 -0.00308978 -1.65645e-18 0)
(0.00379342 -0.00107579 1.17624e-18 -0.00255823 4.0072e-19 0)
(0.00338912 -0.000872081 7.50096e-19 -0.00212208 5.16058e-19 0)
(0.00304958 -0.000672033 7.82248e-19 -0.00175754 4.29952e-19 0)
(0.00278199 -0.000492264 -1.55446e-18 -0.00149597 -9.15345e-19 0)
(0.00257857 -0.000324245 -3.86345e-19 -0.00129455 -2.96636e-19 0)
(0.002434 -0.000174151 3.44875e-19 -0.00116934 2.85924e-19 0)
(0.00232332 -3.69055e-05 1.32898e-18 -0.00106616 7.0235e-19 0)
(0.00223626 8.39191e-05 6.21017e-19 -0.000997744 5.28339e-19 0)
(0.00214577 0.000189871 -2.79298e-19 -0.000913639 -2.42611e-19 0)
(0.00204892 0.000275712 4.0664e-19 -0.000833299 3.00287e-19 0)
(0.00637554 -0.00251326 -1.15392e-18 -0.00671721 5.11224e-19 1.39334e-35)
(0.00618207 -0.00248848 1.65386e-18 -0.00630698 -4.56416e-18 0)
(0.00596192 -0.00245396 1.52437e-19 -0.00585834 -1.90004e-18 0)
(0.00567555 -0.00237927 9.38616e-19 -0.00538201 -4.52659e-19 0)
(0.00530864 -0.00225217 -4.5796e-21 -0.0048185 -3.26754e-20 0)
(0.00487903 -0.00210398 -4.15716e-19 -0.00423774 1.44233e-18 0)
(0.0044426 -0.00189227 1.66185e-18 -0.00364598 -1.19879e-18 0)
(0.00399453 -0.00168267 -3.54094e-20 -0.00309865 -7.93369e-19 0)
(0.00357314 -0.00143918 5.62922e-19 -0.00258342 1.32563e-19 0)
(0.00321284 -0.00121436 0 -0.00217922 0 0)
(0.00291817 -0.000989028 8.85758e-19 -0.00184655 4.0618e-19 0)
(0.00270741 -0.00079114 -9.13241e-19 -0.00163128 -6.68408e-19 0)
(0.00256754 -0.000605574 1.69052e-18 -0.00148135 9.84267e-19 0)
(0.00249122 -0.000442448 2.0077e-18 -0.00141277 8.92226e-19 0)
(0.0024507 -0.000289874 -3.0901e-19 -0.00136626 9.85948e-20 0)
(0.00242848 -0.000154589 -6.24012e-19 -0.00134976 -2.51371e-19 0)
(0.00239328 -2.94881e-05 -1.86635e-19 -0.00130677 7.61878e-20 0)
(0.0023479 7.93734e-05 3.09601e-19 -0.00126661 2.91344e-19 0)
(0.00226865 0.000177634 8.09128e-20 -0.00118214 -7.28307e-20 0)
(0.00217748 0.000258139 3.54154e-19 -0.00110063 4.96567e-19 0)
(0.00572345 -0.00281573 2.05197e-18 -0.00597584 -1.02614e-18 1.97947e-36)
(0.00534839 -0.00271058 -1.17155e-18 -0.00540632 2.40369e-18 0)
(0.00489285 -0.00254851 8.13225e-19 -0.00473397 -4.56406e-19 0)
(0.00438696 -0.0023663 -1.01228e-19 -0.00405898 -1.30278e-18 0)
(0.00397512 -0.00214173 -1.37858e-18 -0.0034425 4.33104e-19 0)
(0.00336467 -0.00187008 -1.10841e-18 -0.00274355 -7.39334e-19 0)
(0.00292 -0.00159346 -6.8443e-19 -0.0021932 -6.12102e-19 0)
(0.00258707 -0.00137268 1.12697e-18 -0.00180246 6.98958e-19 0)
(0.00234292 -0.00115399 -4.25405e-19 -0.00151364 -2.54574e-19 0)
(0.00222006 -0.000977325 -1.82671e-18 -0.00137591 -9.05296e-19 0)
(0.0021742 -0.000814708 1.05789e-18 -0.00131061 -2.83188e-19 0)
(0.00220945 -0.000674396 -1.30986e-18 -0.00134044 -5.86496e-19 0)
(0.00227129 -0.000539306 -1.69814e-18 -0.00138356 -4.46818e-19 0)
(0.00234887 -0.000415121 3.76946e-19 -0.00145353 3.62844e-19 0)
(0.00239973 -0.000291768 6.72816e-19 -0.00148381 2.43243e-19 0)
(0.00242488 -0.000178654 3.84857e-19 -0.00150335 3.52469e-19 0)
(0.00240898 -6.57956e-05 5.48483e-19 -0.00147189 2.48522e-19 0)
(0.00237127 3.41251e-05 1.36685e-18 -0.00143556 8.29625e-19 0)
(0.00230328 0.000131723 -1.21026e-18 -0.00135872 -7.67791e-19 0)
(0.00223102 0.000211433 -1.94707e-19 -0.00129235 -6.36338e-20 0)
(0.00492467 -0.00294663 -1.57339e-18 -0.00507285 2.91932e-18 8.01432e-33)
(0.00433394 -0.00269015 -5.8777e-19 -0.00431627 -8.33608e-19 0)
(0.0036081 -0.00234639 -1.24562e-19 -0.00338808 -2.39647e-18 0)
(0.00290624 -0.00201691 3.0033e-19 -0.00256464 2.77527e-18 0)
(0.00229282 -0.00164108 2.40203e-20 -0.00182089 6.35989e-19 0)
(0.00182043 -0.00134265 -2.23807e-19 -0.00128685 -2.55533e-19 0)
(0.0014819 -0.00109498 -7.38896e-19 -0.000900517 -1.67572e-19 0)
(0.00136161 -0.000938435 -3.17884e-19 -0.000761682 -2.58156e-19 0)
(0.00137176 -0.000821467 1.53431e-18 -0.000748103 6.77965e-19 0)
(0.00150395 -0.000744615 2.20867e-19 -0.000862683 -5.89283e-19 0)
(0.00167491 -0.000667584 1.70385e-20 -0.0010029 2.13474e-21 0)
(0.00186441 -0.000595196 -1.63757e-18 -0.00117107 -3.00511e-19 0)
(0.00202226 -0.000510465 -1.15578e-18 -0.0012961 -5.36685e-19 0)
(0.00214738 -0.000424317 1.06166e-18 -0.00140427 6.97171e-20 0)
(0.00222111 -0.000325863 -1.41455e-18 -0.00145262 -9.18347e-19 0)
(0.00226491 -0.000229852 -1.00894e-18 -0.00148971 -5.83851e-19 0)
(0.0022738 -0.000126381 -9.26641e-19 -0.00148234 -5.686e-19 0)
(0.0022691 -3.49507e-05 4.96826e-19 -0.00147769 2.11889e-19 0)
(0.00224454 6.04759e-05 1.28989e-18 -0.00144035 7.61893e-19 0)
(0.00221355 0.000137179 -7.4914e-19 -0.00141076 -5.29992e-19 0)
(0.00379707 -0.00272644 -1.05813e-18 -0.00383605 1.21531e-18 9.7352e-34)
(0.00302322 -0.00228095 1.17201e-18 -0.00294395 2.43416e-19 0)
(0.00216066 -0.00178363 -1.2831e-18 -0.001915 5.83871e-19 0)
(0.00147226 -0.00137487 3.54763e-19 -0.00116849 -1.81426e-21 0)
(0.000940807 -0.00102737 -7.30679e-19 -0.000576969 4.59658e-20 0)
(0.000671434 -0.000827872 -1.25662e-18 -0.000309585 2.55105e-19 0)
(0.000592297 -0.000681128 2.87921e-19 -0.000207841 -5.85831e-19 0)
(0.000688109 -0.000625896 -2.39322e-19 -0.000288974 -2.729e-19 0)
(0.000850061 -0.000591827 2.22431e-19 -0.000409705 -6.0847e-19 0)
(0.00106254 -0.000585502 1.01549e-18 -0.000589118 2.88426e-19 0)
(0.00125912 -0.000564959 2.86928e-19 -0.000740772 2.91763e-19 0)
(0.00145296 -0.000539416 8.52691e-25 -0.000905601 1.00501e-25 0)
(0.00160982 -0.000487847 -9.92671e-19 -0.00102727 -4.10831e-19 0)
(0.00174702 -0.000432527 3.06802e-19 -0.00114836 -1.75433e-19 0)
(0.00184636 -0.000353171 6.16804e-19 -0.00122488 1.50087e-19 0)
(0.00192887 -0.000278377 -9.06874e-19 -0.00130173 -4.81471e-19 0)
(0.00198878 -0.000190572 -5.05043e-25 -0.00134365 -1.58502e-25 0)
(0.00203461 -0.000115109 -9.76807e-19 -0.00138679 -9.59606e-19 0)
(0.00205925 -2.87468e-05 -1.53928e-19 -0.00139491 1.36862e-19 0)
(0.00206611 3.7083e-05 -1.00271e-18 -0.00139957 -6.70232e-19 0)
(0.00233972 -0.00201053 -9.64758e-19 -0.0022895 4.9394e-19 -4.12561e-36)
(0.00152881 -0.00143861 3.18527e-19 -0.00142964 4.63843e-19 0)
(0.000791973 -0.000989199 -5.38694e-19 -0.000585374 -1.21709e-19 0)
(0.00042113 -0.000741257 -1.36156e-18 -0.000214475 1.08335e-19 0)
(0.000231888 -0.000556938 8.6348e-19 -1.83761e-06 1.04109e-19 0)
(0.000297628 -0.000532061 1.9579e-18 -8.76276e-05 -6.7353e-19 0)
(0.000391673 -0.000520968 3.37617e-19 -0.000158631 -6.44442e-19 0)
(0.000532084 -0.000525436 -2.01872e-19 -0.000258707 -2.52651e-19 0)
(0.000653019 -0.000521137 -1.067e-18 -0.000318684 -4.26469e-19 0)
(0.000782238 -0.000512091 -1.27827e-18 -0.000404554 9.05459e-20 0)
(0.000910928 -0.000490914 6.1346e-19 -0.000489557 -2.37491e-20 0)
(0.00105075 -0.000466932 5.19528e-19 -0.000612543 4.92291e-19 0)
(0.00117627 -0.000428123 -6.60389e-25 -0.000709224 -3.4103e-26 0)
(0.00129635 -0.000394337 5.65826e-19 -0.000821397 5.46866e-20 0)
(0.00139725 -0.000345762 -2.55094e-19 -0.000903413 1.96721e-19 0)
(0.00150344 -0.000301408 5.2463e-20 -0.00100317 4.4781e-19 0)
(0.00159213 -0.000240389 7.84927e-19 -0.00107414 3.79805e-19 0)
(0.00166536 -0.000189415 5.85915e-19 -0.00114304 5.5667e-19 0)
(0.00171797 -0.000120701 -5.81264e-19 -0.00118106 -5.63703e-19 0)
(0.00174933 -7.08515e-05 4.3404e-19 -0.00120898 1.28928e-19 0)
(0.000988134 -0.00104875 -7.82853e-19 -0.000907303 2.0786e-21 3.13883e-34)
(0.000386032 -0.000600105 -5.13257e-19 -0.000310878 1.88531e-20 0)
(8.64755e-05 -0.000405613 0 7.5171e-05 0 0)
(0.000108284 -0.00038657 -6.19411e-19 -1.6898e-06 1.71474e-19 0)
(0.000189729 -0.000408171 -1.00667e-18 -4.70986e-05 -3.62987e-19 0)
(0.000320328 -0.000440142 4.31692e-19 -0.000154161 -3.80975e-19 0)
(0.000407433 -0.000471467 8.29106e-19 -0.000186218 1.27058e-19 0)
(0.000502328 -0.000491542 4.3394e-19 -0.000261024 4.73502e-19 0)
(0.000584199 -0.000483294 6.54487e-19 -0.000300189 7.01965e-19 0)
(0.000676971 -0.000471414 -5.69343e-19 -0.000376528 6.02584e-20 0)
(0.000764372 -0.000439335 -1.10809e-18 -0.000423576 9.74185e-20 0)
(0.000847476 -0.000414625 -2.05636e-20 -0.000492129 1.15273e-21 0)
(0.000922036 -0.000379672 5.08977e-19 -0.000531587 -2.14647e-20 0)
(0.000994915 -0.000352887 2.28051e-19 -0.000591784 2.23393e-19 0)
(0.00108121 -0.00031451 3.9415e-21 -0.000657968 4.42742e-19 0)
(0.00116668 -0.000282598 -4.54826e-19 -0.000744696 -2.91559e-20 0)
(0.0012383 -0.000239057 -7.57862e-21 -0.000802833 -6.95303e-22 0)
(0.00129708 -0.000205817 1.47524e-18 -0.000864388 3.86564e-19 0)
(0.00134688 -0.00015807 6.59276e-19 -0.000905855 2.96383e-19 0)
(0.00139094 -0.000127599 -2.91776e-19 -0.000946418 3.51509e-19 0)
(0.000250259 -0.000355182 -7.75738e-19 -0.000162032 3.7698e-19 -7.61116e-35)
(9.27363e-06 -0.000199929 -5.81845e-19 4.7775e-05 2.21852e-19 0)
(7.36766e-05 -0.000271755 -2.33631e-19 3.23616e-05 7.27713e-19 0)
(0.000157074 -0.00028872 1.54535e-19 -6.32209e-05 2.69198e-19 0)
(0.000230242 -0.000364421 1.18582e-18 -6.39482e-05 -3.44456e-19 0)
(0.00031075 -0.000379175 1.27819e-20 -0.000145564 -3.25542e-21 0)
(0.000378059 -0.00039789 -7.40796e-19 -0.000164599 7.5538e-19 0)
(0.000477445 -0.000405661 -9.36131e-19 -0.000255001 4.68686e-19 0)
(0.000550543 -0.000407947 7.49719e-19 -0.00028832 1.28948e-19 0)
(0.000641348 -0.000406668 7.50152e-19 -0.000369132 1.46576e-19 0)
(0.000703566 -0.000391876 7.45348e-19 -0.000401616 1.5049e-19 0)
(0.000774941 -0.000373517 -4.37429e-19 -0.000467719 -4.41169e-19 0)
(0.000829467 -0.000346717 -4.76239e-19 -0.000497317 4.50358e-20 0)
(0.000894312 -0.000320323 -6.79057e-19 -0.000554636 -1.85112e-19 0)
(0.000950198 -0.000287681 -2.33821e-19 -0.000584597 -2.1093e-19 0)
(0.000996607 -0.000259335 -2.56064e-19 -0.000628273 -6.41891e-19 0)
(0.00103562 -0.00022581 -4.38e-19 -0.000650623 -4.2033e-19 0)
(0.00107187 -0.000199439 -3.73902e-19 -0.000686305 -3.27988e-22 0)
(0.00111493 -0.000164051 5.69138e-20 -0.000721038 4.13926e-19 0)
(0.00115438 -0.000141437 5.43241e-19 -0.000759305 1.27778e-19 0)
(0.000107427 -0.000124574 2.9703e-19 -1.71886e-05 3.87283e-19 3.24921e-36)
(7.3743e-05 -0.000150844 -1.02708e-18 1.22392e-05 4.40552e-19 0)
(0.000145511 -0.000237061 -5.46846e-19 -2.02767e-05 2.08743e-19 0)
(0.000166262 -0.000243166 3.60478e-19 -4.44968e-05 -4.60298e-19 0)
(0.000227665 -0.000294108 1.82964e-19 -7.1344e-05 2.45516e-19 0)
(0.000304197 -0.00029462 -1.37043e-19 -0.000141992 6.56175e-19 0)
(0.000367447 -0.00032977 1.84913e-19 -0.000170902 2.3876e-19 0)
(0.000449907 -0.000327338 3.10771e-19 -0.00024488 -3.68824e-19 0)
(0.000514628 -0.000340695 -4.23348e-19 -0.000277955 -4.51235e-19 0)
(0.000594213 -0.00033065 -7.06976e-19 -0.00034913 -1.19442e-19 0)
(0.000658103 -0.000327882 4.63029e-19 -0.000384664 -9.04352e-20 0)
(0.000726883 -0.000313423 6.78655e-19 -0.000446638 1.41183e-19 0)
(0.000781176 -0.000301298 4.48719e-19 -0.000477443 4.26543e-19 0)
(0.00083564 -0.000282979 4.2984e-19 -0.000527806 -5.43586e-20 0)
(0.000878716 -0.000259524 1.97293e-19 -0.000553705 -2.57365e-19 0)
(0.000919961 -0.000233077 2.33577e-19 -0.00059413 2.06314e-19 0)
(0.000955806 -0.000205929 -8.83425e-19 -0.000615185 2.99439e-19 0)
(0.00098941 -0.000180467 6.91327e-20 -0.000646124 4.32103e-19 0)
(0.00102091 -0.000152442 3.42087e-19 -0.000663964 -2.06903e-20 0)
(0.00104359 -0.000130885 -7.19781e-19 -0.000683933 -2.94427e-19 0)
(0.00014483 -0.000118501 6.71226e-19 -3.24816e-05 3.09482e-20 3.69271e-34)
(0.000119513 -0.000146293 5.94418e-19 -2.13881e-08 -9.94974e-19 0)
(0.000163672 -0.000174503 -1.70768e-19 -3.77821e-05 -2.66501e-19 0)
(0.000193465 -0.00018146 -6.87662e-19 -6.45055e-05 -4.00471e-20 0)
(0.000254302 -0.000226463 -4.92264e-19 -0.000101071 1.96889e-19 0)
(0.000306634 -0.000229738 -1.06734e-20 -0.000149788 4.04889e-21 0)
(0.00036895 -0.000258985 7.23446e-20 -0.000184352 -6.3734e-19 0)
(0.000433869 -0.000259603 8.94867e-19 -0.000243944 3.05272e-19 0)
(0.000494308 -0.000273218 6.8598e-19 -0.00027712 7.87636e-20 0)
(0.000560344 -0.000268793 -4.37248e-19 -0.000337309 1.22269e-19 0)
(0.000615647 -0.000268648 -4.25576e-19 -0.000367545 1.12557e-19 0)
(0.00067642 -0.000257332 -4.04518e-19 -0.00042295 6.30562e-19 0)
(0.000726411 -0.000247614 -1.53847e-20 -0.000450173 3.49127e-21 0)
(0.000779668 -0.000231944 5.49095e-19 -0.000498548 -3.6582e-19 0)
(0.000823924 -0.000216787 -1.62116e-19 -0.000522379 2.79991e-19 0)
(0.000864737 -0.000198855 2.70009e-19 -0.000559519 6.81557e-19 0)
(0.000899071 -0.000180089 -1.43693e-19 -0.000576858 2.63464e-19 0)
(0.000927776 -0.000160834 -4.28174e-19 -0.000602825 -4.01256e-19 0)
(0.000954362 -0.000138206 6.34841e-19 -0.00061584 -1.00994e-19 0)
(0.000975969 -0.000121003 5.1639e-19 -0.000631868 1.49212e-19 0)
(0.000139278 -0.000117326 1.60542e-18 -2.13977e-05 -1.27856e-18 -1.28481e-33)
(0.000136463 -0.00011836 5.03863e-19 -2.52446e-05 -2.65242e-19 0)
(0.000186581 -0.000135597 -7.2894e-19 -6.29087e-05 7.25076e-19 0)
(0.000205755 -0.000143406 1.05998e-20 -8.39651e-05 -5.21391e-21 0)
(0.000262648 -0.000169288 -8.64442e-19 -0.000120536 -2.71889e-19 0)
(0.000307127 -0.000175571 2.50381e-19 -0.000162641 -4.41778e-19 0)
(0.000363456 -0.000198537 -1.0802e-18 -0.000195556 1.36553e-19 0)
(0.000419282 -0.000201051 -8.77063e-19 -0.000246706 3.48567e-19 0)
(0.000473256 -0.000215406 1.25054e-18 -0.0002767 1.29669e-19 0)
(0.000531004 -0.000213042 4.21351e-19 -0.00032895 4.38202e-19 0)
(0.000581078 -0.000218055 -6.19739e-19 -0.000355804 -7.58054e-20 0)
(0.00063452 -0.000211038 8.06106e-19 -0.000403854 3.01963e-19 0)
(0.000678714 -0.000207803 2.66839e-19 -0.000426338 -1.16461e-18 0)
(0.000724855 -0.000196388 -6.28121e-19 -0.000467573 -6.14834e-19 0)
(0.000762884 -0.000186281 -1.45602e-18 -0.000485581 -1.12664e-19 0)
(0.000800967 -0.000171083 -3.23025e-25 -0.000519107 8.53526e-26 0)
(0.000833444 -0.000157483 2.26477e-19 -0.000532795 -5.57951e-19 0)
(0.000862994 -0.000141273 -3.94433e-19 -0.000557523 -3.90942e-19 0)
(0.000890498 -0.000126907 -9.8969e-19 -0.000567124 -2.32582e-19 0)
(0.000913331 -0.000114686 1.12954e-18 -0.000581448 1.9092e-19 0)
(0.000124622 -9.92927e-05 -5.4775e-19 -2.42965e-05 1.36756e-19 1.90975e-34)
(0.000141517 -9.89456e-05 1.49852e-19 -4.17241e-05 1.06711e-18 0)
(0.000188361 -0.000100604 2.09774e-19 -8.15883e-05 2.54673e-19 0)
(0.000219341 -0.000106744 8.52094e-19 -0.000109889 -4.73038e-19 0)
(0.000270216 -0.0001254 1.89582e-20 -0.000145821 -1.008e-20 0)
(0.000312242 -0.000131421 -2.03247e-19 -0.000183434 4.48536e-19 0)
(0.000363306 -0.000150981 2.11975e-19 -0.000215425 2.28535e-19 0)
(0.00041161 -0.000155004 -1.19742e-18 -0.000258281 -8.61708e-20 0)
(0.000460411 -0.000168916 -5.99201e-19 -0.000286322 -4.43607e-20 0)
(0.0005099 -0.000169805 7.40301e-19 -0.000329958 -3.17246e-19 0)
(0.000554827 -0.000176363 -7.76318e-19 -0.000353809 -2.7337e-19 0)
(0.000601561 -0.000173703 3.44821e-19 -0.000394742 -1.3576e-19 0)
(0.000641792 -0.000173746 2.14186e-18 -0.000414232 -2.57015e-19 0)
(0.000682993 -0.000168068 4.27043e-19 -0.000449906 3.9524e-19 0)
(0.000718007 -0.000163283 -1.26109e-18 -0.000464807 4.5548e-19 0)
(0.000751641 -0.000155212 -5.13927e-19 -0.000493262 -8.52561e-20 0)
(0.000781195 -0.000147296 9.76354e-20 -0.000503424 -2.93091e-19 0)
(0.00080686 -0.000137426 1.96658e-19 -0.000524046 1.87741e-19 0)
(0.000832035 -0.000128364 4.73385e-21 -0.00053032 -1.61663e-21 0)
(0.000852947 -0.000120288 -7.20344e-19 -0.000543331 6.94341e-20 0)
(9.43007e-05 -7.13723e-05 1.099e-19 -2.06271e-05 1.31299e-19 -2.33627e-36)
(0.000127035 -6.65624e-05 -6.43217e-19 -5.38052e-05 2.07959e-20 0)
(0.000181364 -6.79924e-05 4.02291e-19 -9.7e-05 -2.57323e-19 0)
(0.000214273 -7.33121e-05 2.01178e-19 -0.000127687 -5.04006e-19 0)
(0.000267185 -8.63889e-05 -1.63765e-19 -0.000164375 1.19931e-18 0)
(0.000305739 -9.44979e-05 -2.19707e-19 -0.00019866 -2.27367e-19 0)
(0.00035551 -0.000109733 1.52346e-19 -0.000229361 -4.32192e-19 0)
(0.000397967 -0.000116992 0 -0.000266301 0 0)
(0.000443871 -0.000129366 -4.15776e-19 -0.000291775 -4.31026e-19 0)
(0.00048687 -0.000134088 1.38063e-19 -0.000328716 -3.87531e-19 0)
(0.000528486 -0.000141685 2.98338e-19 -0.000349435 7.76241e-19 0)
(0.000569057 -0.000143314 -1.58413e-18 -0.000383898 -1.40778e-19 0)
(0.000606074 -0.000146048 4.95349e-19 -0.000400043 5.937e-20 0)
(0.000642308 -0.00014464 1.20186e-18 -0.000430361 3.08752e-19 0)
(0.000674736 -0.000143483 3.97347e-19 -0.00044215 3.78673e-19 0)
(0.00070563 -0.000139544 2.85576e-19 -0.000467341 -1.25051e-19 0)
(0.000733717 -0.000136141 1.99444e-19 -0.000475061 1.7966e-19 0)
(0.000758726 -0.000130486 -2.61945e-19 -0.000494433 1.1247e-19 0)
(0.000783077 -0.0001266 1.31063e-19 -0.000498678 4.56625e-19 0)
(0.000803945 -0.000122223 -5.89067e-20 -0.000511581 2.77737e-19 0)
(6.70812e-05 -3.67648e-05 4.21945e-19 -2.63421e-05 -3.14612e-19 4.37559e-36)
(0.000112344 -3.64569e-05 9.81798e-21 -6.77159e-05 -7.1198e-21 0)
(0.000170271 -3.78785e-05 9.15105e-21 -0.000115243 -6.5365e-21 0)
(0.000211021 -4.5561e-05 4.81303e-19 -0.000150088 1.23176e-18 0)
(0.00026183 -5.74576e-05 -2.22514e-19 -0.000186716 -2.28852e-19 0)
(0.00030236 -6.71568e-05 1.07971e-18 -0.000220204 -7.17183e-19 0)
(0.00034814 -8.19321e-05 -3.29524e-19 -0.000249262 2.12624e-19 0)
(0.000388714 -9.10156e-05 -3.34012e-19 -0.000282262 2.09164e-19 0)
(0.000430143 -0.000104041 -4.15374e-19 -0.000305454 -4.22049e-19 0)
(0.000469476 -0.000111358 -9.43163e-19 -0.000337134 5.5677e-19 0)
(0.000506729 -0.000120563 4.96007e-19 -0.000355313 3.2176e-20 0)
(0.000543243 -0.000125732 4.8372e-19 -0.000384418 -8.89653e-19 0)
(0.000576414 -0.000130778 -6.80852e-19 -0.000398051 -2.28095e-19 0)
(0.00060873 -0.000133847 -7.37594e-20 -0.000423398 3.32857e-19 0)
(0.00063803 -0.000135417 -6.72479e-20 -0.000432841 3.22812e-19 0)
(0.000665205 -0.000136501 -2.03414e-19 -0.000453568 -1.73719e-19 0)
(0.000691042 -0.000135959 2.46815e-19 -0.000459214 -1.28329e-19 0)
(0.000712943 -0.000134882 -4.97156e-20 -0.000475161 2.92576e-19 0)
(0.000735757 -0.00013432 -6.21826e-19 -0.000477324 -2.05103e-19 0)
(0.000753914 -0.000132527 -1.88763e-19 -0.000488593 -1.61419e-19 0)
(3.54171e-05 9.6773e-06 -1.09152e-19 -3.55698e-05 -1.28741e-19 1.14772e-36)
(8.9761e-05 3.83438e-06 -3.92025e-19 -8.28298e-05 3.18192e-19 0)
(0.000153024 -3.20855e-06 -6.6813e-19 -0.000131845 1.36859e-18 0)
(0.000196915 -1.39722e-05 8.85747e-19 -0.000167909 -2.90259e-19 0)
(0.000250296 -2.7099e-05 2.63105e-19 -0.000204757 -9.9055e-19 0)
(0.000289719 -3.95139e-05 -1.29562e-19 -0.000235806 4.7949e-19 0)
(0.000336178 -5.39895e-05 5.13934e-19 -0.000264127 -6.52548e-21 0)
(0.000373061 -6.60131e-05 6.1226e-19 -0.000292397 -4.38309e-19 0)
(0.000414172 -7.88833e-05 2.14938e-19 -0.000314327 1.98738e-19 0)
(0.000448466 -8.93821e-05 -7.80393e-19 -0.000340098 1.94204e-19 0)
(0.000485156 -9.93318e-05 -3.27821e-19 -0.000356928 -7.68585e-19 0)
(0.000516195 -0.000107774 2.03228e-19 -0.00037981 1.86223e-19 0)
(0.000549011 -0.000114706 -7.27131e-19 -0.000392293 1.58768e-19 0)
(0.000576256 -0.000120935 -4.54968e-19 -0.000411923 -1.47399e-20 0)
(0.000605408 -0.000125476 2.85391e-19 -0.000420404 -4.74655e-19 0)
(0.000628826 -0.000129638 4.78314e-19 -0.00043679 -2.93774e-19 0)
(0.000653959 -0.000132423 -4.51646e-19 -0.000441129 2.77905e-19 0)
(0.000674304 -0.000135141 2.15779e-19 -0.000454868 -1.30161e-19 0)
(0.000696158 -0.000137279 3.72477e-20 -0.000455841 -2.90194e-19 0)
(0.000713294 -0.000138563 -5.95334e-19 -0.000466729 9.53165e-20 0)
(1.24989e-05 5.35072e-05 -9.68341e-20 -5.242e-05 -1.3661e-19 -2.27986e-36)
(7.23317e-05 4.01988e-05 -8.49221e-19 -0.000101383 1.20884e-18 0)
(0.000137151 2.64388e-05 -5.62669e-19 -0.000152038 7.11302e-20 0)
(0.000184709 1.11418e-05 3.61256e-19 -0.000188382 -1.56941e-18 0)
(0.000236821 -5.92805e-06 2.13061e-19 -0.000224943 2.23474e-19 0)
(0.000277587 -2.11312e-05 -4.15895e-19 -0.000254396 -4.3816e-19 0)
(0.000321225 -3.86641e-05 6.27213e-21 -0.000281412 -5.14301e-21 0)
(0.000357582 -5.25857e-05 -4.89779e-19 -0.000306619 2.32745e-20 0)
(0.000395169 -6.85095e-05 8.82854e-19 -0.000326832 3.82632e-19 0)
(0.000427904 -8.06053e-05 2.68521e-19 -0.000348827 -2.0597e-19 0)
(0.000460853 -9.38264e-05 -2.50454e-19 -0.000363875 1.88647e-19 0)
(0.000490047 -0.00010401 8.43459e-19 -0.000382954 3.56989e-19 0)
(0.000519274 -0.000114196 4.95185e-20 -0.000393866 -3.5365e-19 0)
(0.000544659 -0.000122809 -4.18294e-19 -0.000409936 -9.93893e-21 0)
(0.000570995 -0.000130019 -1.0226e-18 -0.000417559 -1.79151e-19 0)
(0.000591766 -0.000137976 -2.24574e-19 -0.000429932 1.54871e-19 0)
(0.000616436 -0.00014228 5.84476e-19 -0.00043544 1.66071e-19 0)
(0.000632744 -0.000148838 -5.53924e-19 -0.000445518 -4.50961e-19 0)
(0.000655598 -0.000152509 3.61077e-19 -0.000447418 2.95865e-19 0)
(0.000664788 -0.000156983 9.16405e-19 -0.000453876 1.16438e-19 0)
(-8.09942e-06 0.000107439 -6.05886e-19 -7.79161e-05 8.32964e-19 -3.98134e-34)
(5.52149e-05 8.45628e-05 -1.34437e-19 -0.000126738 5.92197e-19 0)
(0.000121913 6.26777e-05 -3.08396e-19 -0.000175846 -1.02614e-18 0)
(0.000170923 4.18233e-05 2.10923e-19 -0.000211021 2.25143e-19 0)
(0.000223966 2.03689e-05 2.8046e-19 -0.000246131 -2.69673e-19 0)
(0.00026413 1.50186e-06 6.06977e-21 -0.000272973 -5.722e-21 0)
(0.000308072 -1.83427e-05 -2.13367e-19 -0.000298624 -1.97414e-19 0)
(0.000342203 -3.50555e-05 -4.53484e-20 -0.000319971 4.22587e-19 0)
(0.000379923 -5.23527e-05 -2.52293e-19 -0.000339067 2.24495e-19 0)
(0.000409217 -6.67674e-05 4.3477e-19 -0.000356231 -2.11603e-20 0)
(0.000442712 -8.11581e-05 -4.65668e-19 -0.00037072 4.00228e-19 0)
(0.000467479 -9.31728e-05 6.07081e-19 -0.000384181 1.61101e-19 0)
(0.000498404 -0.000104996 8.17088e-19 -0.000395524 -2.42718e-20 0)
(0.000518471 -0.000114445 3.95101e-19 -0.000405323 -7.00083e-21 0)
(0.000548628 -0.000124978 3.95095e-19 -0.000414896 -1.08454e-20 0)
(0.000563511 -0.000131376 -7.58737e-19 -0.000420837 3.09821e-19 0)
(0.000591848 -0.000139949 1.84748e-19 -0.000429712 -1.47811e-19 0)
(0.000604183 -0.000145621 4.8235e-21 -0.000431897 -2.87748e-19 0)
(0.000633288 -0.0001562 -1.65274e-19 -0.000439809 6.90682e-19 0)
(0.000641388 -0.00015616 5.07017e-19 -0.000442123 1.04033e-19 0)
(-1.93473e-05 0.000153848 8.38137e-20 -0.000108811 1.42017e-19 -2.17587e-36)
(4.3804e-05 0.000123071 1.02206e-19 -0.000153954 -5.85684e-19 0)
(0.000108011 9.22561e-05 -7.19228e-20 -0.000200682 5.37195e-19 0)
(0.000157151 6.64906e-05 4.07604e-19 -0.00023275 4.42348e-19 0)
(0.000207283 3.85424e-05 4.7507e-19 -0.000265609 -7.71291e-20 0)
(0.000247103 1.69437e-05 2.46413e-19 -0.000289121 -2.58811e-19 0)
(0.000287617 -8.3129e-06 -4.36456e-19 -0.000312508 4.40052e-20 0)
(0.000320815 -2.60788e-05 -4.76248e-19 -0.000330126 4.80656e-19 0)
(0.000354627 -4.87148e-05 3.03975e-20 -0.000346951 -4.07486e-19 0)
(0.00038269 -6.27127e-05 -1.77217e-19 -0.000360203 -5.57639e-19 0)
(0.00041168 -8.30627e-05 -2.22065e-19 -0.000372341 5.64105e-19 0)
(0.000435529 -9.31114e-05 -5.85963e-19 -0.000382239 -1.32496e-19 0)
(0.000460868 -0.000111891 7.7296e-19 -0.000390841 -4.74749e-20 0)
(0.00048144 -0.00011747 0 -0.000398453 0 0)
(0.000503748 -0.000135747 -6.77302e-21 -0.000404119 6.04478e-21 0)
(0.000523605 -0.00013797 -1.24925e-21 -0.000410447 1.0857e-19 0)
(0.000541976 -0.000154828 -3.64856e-19 -0.000414029 -5.5947e-19 0)
(0.000557886 -0.000151799 -1.50787e-19 -0.000417326 4.18881e-19 0)
(0.000578363 -0.000168544 -3.38225e-19 -0.000423777 1.41823e-20 0)
(0.000596599 -0.00016932 1.38363e-19 -0.0004232 -3.96549e-19 0)
(-2.40474e-05 0.000205757 0 -0.000150074 0 0)
(3.83858e-05 0.000165511 -7.12798e-20 -0.000191384 5.78854e-19 0)
(0.000100531 0.000126228 -5.29279e-19 -0.000233394 6.62817e-19 0)
(0.000149139 9.42913e-05 -4.10084e-19 -0.000262441 -4.16187e-19 0)
(0.000197311 6.06428e-05 9.01645e-19 -0.000291428 -6.35769e-19 0)
(0.000236574 3.48937e-05 4.58421e-19 -0.000312325 -5.40415e-19 0)
(0.000274983 5.66846e-06 -4.70001e-21 -0.000332317 5.40281e-21 0)
(0.000307743 -1.50981e-05 -3.98007e-19 -0.000347713 4.74708e-20 0)
(0.000339108 -4.06889e-05 2.03044e-19 -0.000361345 -2.24163e-19 0)
(0.000367182 -5.71747e-05 -1.86434e-19 -0.000372974 2.03313e-19 0)
(0.000393143 -7.97959e-05 -1.95233e-21 -0.000381869 7.30237e-19 0)
(0.000417802 -9.24469e-05 -7.47574e-19 -0.000390974 -6.21944e-19 0)
(0.000439155 -0.000112621 1.83999e-19 -0.000395995 1.51549e-19 0)
(0.000461434 -0.000121825 5.0544e-19 -0.0004036 -5.17101e-19 0)
(0.000478213 -0.000139549 -5.24324e-19 -0.000405022 -1.1542e-19 0)
(0.000499031 -0.00014591 -2.83372e-21 -0.000412001 2.82858e-21 0)
(0.000513516 -0.000163647 4.9251e-19 -0.000409555 -1.79762e-19 0)
(0.000530703 -0.000164532 1.98474e-19 -0.000416761 3.92377e-19 0)
(0.000542087 -0.000179809 -3.08704e-19 -0.000412287 1.28509e-20 0)
(0.000558314 -0.000186617 -1.83089e-20 -0.000411779 1.12375e-19 0)
(-2.10253e-05 0.000249213 -3.46776e-19 -0.000195171 2.22799e-19 1.42348e-34)
(3.74451e-05 0.000201888 -3.45389e-19 -0.000229256 -1.0113e-18 0)
(9.35992e-05 0.000154482 4.71934e-19 -0.000265177 -6.65284e-19 0)