/*--------------------------------*- C++ -*----------------------------------*\
| =========                 |                                                 |
| \\      /  F ield         | OpenFOAM: The Open Source CFD Toolbox           |
|  \\    /   O peration     | Version:  v2012                                 |
|   \\  /    A nd           | Website:  www.openfoam.com                      |
|    \\/     M anipulation  |                                                 |
\*---------------------------------------------------------------------------*/
FoamFile
{
    version     2.0;
    format      ascii;
    class       volVectorField;
    location    "13";
    object      D_0;
}
// * * * * * * * * * * * * * * * * * * * * * * * * * * * * * * * * * * * * * //

dimensions      [0 1 0 0 0 0 0];


internalField   nonuniform List<vector> 
4000
(
(0.000116023 -0.00105929 0)
(0.000116658 -0.00118813 0)
(0.0001159 -0.00130833 0)
(0.000114299 -0.00142471 0)
(0.000111934 -0.00153145 0)
(0.000109011 -0.00163295 0)
(0.0001056 -0.00172447 0)
(0.000101852 -0.00180998 0)
(9.77222e-05 -0.00188567 0)
(9.31889e-05 -0.00195479 0)
(8.83579e-05 -0.00201439 0)
(8.31561e-05 -0.00206713 0)
(7.7693e-05 -0.002111 0)
(7.21048e-05 -0.00214819 0)
(6.65943e-05 -0.00217783 0)
(6.12636e-05 -0.0022017 0)
(5.6381e-05 -0.00221994 0)
(5.19896e-05 -0.0022339 0)
(4.83203e-05 -0.00224443 0)
(4.54995e-05 -0.00225234 0)
(0.000344515 -0.00107986 0)
(0.000346525 -0.00120528 0)
(0.000344686 -0.00132198 0)
(0.000340348 -0.00143536 0)
(0.000333973 -0.00153936 0)
(0.00032542 -0.0016386 0)
(0.000315705 -0.00172782 0)
(0.000304218 -0.00181117 0)
(0.000291794 -0.00188422 0)
(0.000277745 -0.00195051 0)
(0.000262902 -0.0020068 0)
(0.000246844 -0.00205606 0)
(0.000230403 -0.00209637 0)
(0.000213632 -0.00213026 0)
(0.000197369 -0.00215698 0)
(0.00018177 -0.00217858 0)
(0.000167719 -0.00219526 0)
(0.000155179 -0.00220842 0)
(0.000145049 -0.00221891 0)
(0.000136947 -0.00222733 0)
(0.000562558 -0.00111949 0)
(0.000566077 -0.00123923 0)
(0.000564323 -0.00134971 0)
(0.000558591 -0.00145766 0)
(0.000549536 -0.00155606 0)
(0.000536415 -0.00165024 0)
(0.000520696 -0.00173396 0)
(0.000501548 -0.00181172 0)
(0.000480075 -0.00187833 0)
(0.000455951 -0.00193797 0)
(0.000430225 -0.00198704 0)
(0.000403014 -0.00202935 0)
(0.000375513 -0.00206299 0)
(0.000348099 -0.00209119 0)
(0.000322007 -0.00211329 0)
(0.000297613 -0.00213176 0)
(0.000276007 -0.00214664 0)
(0.000257226 -0.00215944 0)
(0.00024214 -0.00217055 0)
(0.000230017 -0.00218037 0)
(0.000767013 -0.0011759 0)
(0.00077157 -0.00128915 0)
(0.000770495 -0.00139172 0)
(0.000764135 -0.00149207 0)
(0.000753158 -0.0015816 0)
(0.000735934 -0.0016667 0)
(0.000714423 -0.00174019 0)
(0.000687104 -0.00180714 0)
(0.000656377 -0.00186232 0)
(0.000621768 -0.00191054 0)
(0.000585447 -0.00194861 0)
(0.000547817 -0.00198112 0)
(0.000510668 -0.00200641 0)
(0.000474722 -0.00202831 0)
(0.000441369 -0.00204609 0)
(0.00041107 -0.00206233 0)
(0.000384812 -0.0020767 0)
(0.000362264 -0.00209031 0)
(0.000343948 -0.00210304 0)
(0.000328737 -0.00211473 0)
(0.000956787 -0.00124522 0)
(0.000960627 -0.00135187 0)
(0.000959512 -0.00144514 0)
(0.000951497 -0.00153535 0)
(0.00093783 -0.00161179 0)
(0.000915816 -0.00168248 0)
(0.000887813 -0.00173934 0)
(0.00085254 -0.00178986 0)
(0.000812968 -0.00182842 0)
(0.000769457 -0.00186176 0)
(0.000724748 -0.00188685 0)
(0.000679773 -0.00190913 0)
(0.000636649 -0.00192699 0)
(0.000596152 -0.00194427 0)
(0.000559553 -0.00195975 0)
(0.00052698 -0.00197559 0)
(0.000498729 -0.00199061 0)
(0.000474227 -0.00200547 0)
(0.000453351 -0.0020196 0)
(0.000435212 -0.00203253 0)
(0.00113272 -0.00132293 0)
(0.00113335 -0.00142193 0)
(0.00112869 -0.00150329 0)
(0.00111625 -0.00157869 0)
(0.0010962 -0.00163647 0)
(0.00106699 -0.00168698 0)
(0.00103237 -0.00172252 0)
(0.000990459 -0.00175276 0)
(0.000944867 -0.00177311 0)
(0.000896738 -0.0017917 0)
(0.000848556 -0.0018055 0)
(0.000801747 -0.00182024 0)
(0.000757896 -0.00183352 0)
(0.000717513 -0.00184859 0)
(0.000681134 -0.00186328 0)
(0.000648407 -0.00187894 0)
(0.000619156 -0.00189402 0)
(0.000593046 -0.00190885 0)
(0.000569603 -0.00192298 0)
(0.000548824 -0.00193593 0)
(0.00129453 -0.00140096 0)
(0.00128784 -0.00148859 0)
(0.00127441 -0.00155244 0)
(0.00125213 -0.00160737 0)
(0.00122302 -0.00164193 0)
(0.00118665 -0.00166927 0)
(0.00114522 -0.00168312 0)
(0.00110016 -0.00169472 0)
(0.00105327 -0.00170085 0)
(0.00100647 -0.00170906 0)
(0.000960859 -0.00171622 0)
(0.000917673 -0.00172666 0)
(0.000877081 -0.00173726 0)
(0.000839424 -0.0017502 0)
(0.000804389 -0.00176301 0)
(0.000772084 -0.00177668 0)
(0.000742166 -0.00178999 0)
(0.000714897 -0.00180315 0)
(0.00068972 -0.0018161 0)
(0.000667215 -0.00182821 0)
(0.00143975 -0.00146764 0)
(0.00142235 -0.00153651 0)
(0.00139533 -0.00157553 0)
(0.00136097 -0.00160642 0)
(0.00132116 -0.00161713 0)
(0.00127711 -0.00162491 0)
(0.00123203 -0.00162392 0)
(0.00118804 -0.00162585 0)
(0.00114511 -0.00162528 0)
(0.00110428 -0.0016291 0)
(0.00106468 -0.00163233 0)
(0.00102688 -0.00163913 0)
(0.000990615 -0.00164577 0)
(0.00095615 -0.00165476 0)
(0.000923329 -0.00166366 0)
(0.000892561 -0.00167376 0)
(0.000863489 -0.0016839 0)
(0.000836773 -0.00169448 0)
(0.000811566 -0.00170526 0)
(0.000788859 -0.00171569 0)
(0.00156147 -0.00150881 0)
(0.00153121 -0.00155027 0)
(0.00149083 -0.00156071 0)
(0.00144617 -0.00156931 0)
(0.00139889 -0.00156364 0)
(0.00135403 -0.0015627 0)
(0.00130968 -0.001558 0)
(0.0012689 -0.00155816 0)
(0.00122937 -0.00155598 0)
(0.00119252 -0.00155733 0)
(0.00115687 -0.00155709 0)
(0.0011235 -0.00156009 0)
(0.00109133 -0.00156246 0)
(0.00106106 -0.00156719 0)
(0.00103155 -0.00157165 0)
(0.00100378 -0.00157762 0)
(0.000977133 -0.00158395 0)
(0.000952381 -0.00159102 0)
(0.000928448 -0.0015985 0)
(0.000906554 -0.0016059 0)
(0.00165708 -0.00150793 0)
(0.0016152 -0.00152122 0)
(0.00156591 -0.00151154 0)
(0.00152052 -0.00150955 0)
(0.0014733 -0.00150018 0)
(0.00143165 -0.00149879 0)
(0.00138978 -0.00149264 0)
(0.00135078 -0.00149176 0)
(0.00131282 -0.00148774 0)
(0.00127742 -0.00148756 0)
(0.00124389 -0.00148558 0)
(0.00121277 -0.00148639 0)
(0.00118308 -0.00148603 0)
(0.00115526 -0.00148748 0)
(0.00112845 -0.00148833 0)
(0.00110378 -0.00149104 0)
(0.00107991 -0.00149371 0)
(0.00105776 -0.00149733 0)
(0.00103588 -0.00150103 0)
(0.00101571 -0.00150503 0)
(0.00173477 -0.00147125 0)
(0.00168731 -0.00146657 0)
(0.00163793 -0.00145336 0)
(0.00159494 -0.0014497 0)
(0.00155064 -0.00143902 0)
(0.00151026 -0.00143578 0)
(0.00147007 -0.00142728 0)
(0.00143315 -0.00142458 0)
(0.00139705 -0.00141851 0)
(0.00136365 -0.0014167 0)
(0.00133132 -0.00141278 0)
(0.0013014 -0.00141178 0)
(0.00127274 -0.00140954 0)
(0.00124625 -0.00140927 0)
(0.00122114 -0.00140846 0)
(0.00119798 -0.00140891 0)
(0.00117556 -0.00140901 0)
(0.00115482 -0.00140977 0)
(0.00113438 -0.00141049 0)
(0.00111595 -0.00141182 0)
(0.00180674 -0.00141963 0)
(0.00175949 -0.00140916 0)
(0.00171277 -0.00139708 0)
(0.00167048 -0.00138895 0)
(0.00162735 -0.00137742 0)
(0.00158913 -0.00137083 0)
(0.0015504 -0.00136128 0)
(0.00151562 -0.00135599 0)
(0.00148106 -0.00134854 0)
(0.00144965 -0.00134444 0)
(0.00141897 -0.00133896 0)
(0.00139086 -0.00133595 0)
(0.00136361 -0.00133212 0)
(0.0013385 -0.00133 0)
(0.00131421 -0.00132745 0)
(0.00129199 -0.001326 0)
(0.00127043 -0.0013244 0)
(0.0012508 -0.00132343 0)
(0.00123154 -0.00132252 0)
(0.00121419 -0.00132188 0)
(0.00187979 -0.00136698 0)
(0.00183334 -0.00135378 0)
(0.00178729 -0.00133932 0)
(0.00174635 -0.00132817 0)
(0.00170509 -0.0013152 0)
(0.00166821 -0.001306 0)
(0.00163139 -0.00129491 0)
(0.00159814 -0.00128734 0)
(0.00156537 -0.00127828 0)
(0.00153551 -0.00127209 0)
(0.0015064 -0.00126492 0)
(0.00147973 -0.00125986 0)
(0.00145394 -0.0012543 0)
(0.00143023 -0.00125018 0)
(0.00140735 -0.00124594 0)
(0.00138632 -0.00124255 0)
(0.00136585 -0.00123924 0)
(0.00134714 -0.00123634 0)
(0.00132859 -0.00123358 0)
(0.00131197 -0.00123097 0)
(0.00195372 -0.00131293 0)
(0.00190751 -0.00129658 0)
(0.00186309 -0.0012801 0)
(0.00182288 -0.00126624 0)
(0.00178331 -0.00125156 0)
(0.00174782 -0.00123994 0)
(0.00171264 -0.00122732 0)
(0.00168105 -0.00121757 0)
(0.00164985 -0.00120702 0)
(0.00162168 -0.00119882 0)
(0.00159405 -0.00119015 0)
(0.00156897 -0.00118323 0)
(0.00154449 -0.00117616 0)
(0.0015222 -0.00117023 0)
(0.00150046 -0.00116444 0)
(0.00148073 -0.00115925 0)
(0.00146135 -0.00115441 0)
(0.0014439 -0.00114976 0)
(0.00142645 -0.00114556 0)
(0.00141099 -0.00114127 0)
(0.0020271 -0.00125922 0)
(0.00198188 -0.00124006 0)
(0.0019385 -0.00122114 0)
(0.00189959 -0.00120482 0)
(0.00186152 -0.00118836 0)
(0.00182741 -0.00117453 0)
(0.00179389 -0.00116039 0)
(0.00176373 -0.00114864 0)
(0.00173417 -0.00113664 0)
(0.00170741 -0.00112661 0)
(0.00168131 -0.00111652 0)
(0.00165757 -0.00110785 0)
(0.00163447 -0.00109939 0)
(0.00161343 -0.0010918 0)
(0.00159292 -0.00108465 0)
(0.00157429 -0.00107787 0)
(0.00155595 -0.00107172 0)
(0.00153946 -0.00106552 0)
(0.0015229 -0.00106006 0)
(0.00150831 -0.00105427 0)
(0.00210008 -0.0012043 0)
(0.00205604 -0.00118233 0)
(0.00201422 -0.0011611 0)
(0.00197654 -0.00114249 0)
(0.00194014 -0.00112417 0)
(0.00190743 -0.00110837 0)
(0.00187554 -0.00109264 0)
(0.00184689 -0.00107913 0)
(0.00181886 -0.0010657 0)
(0.00179363 -0.00105405 0)
(0.00176893 -0.00104262 0)
(0.00174668 -0.00103245 0)
(0.00172486 -0.00102271 0)
(0.00170524 -0.00101371 0)
(0.00168589 -0.00100534 0)
(0.0016686 -0.00099724 0)
(0.00165136 -0.000989964 0)
(0.00163612 -0.000982528 0)
(0.00162063 -0.000976075 0)
(0.0016072 -0.000969138 0)
(0.0021714 -0.00115033 0)
(0.00212896 -0.00112576 0)
(0.00208872 -0.00110226 0)
(0.0020526 -0.00108156 0)
(0.00201783 -0.00106149 0)
(0.00198663 -0.0010439 0)
(0.00195636 -0.00102673 0)
(0.00192914 -0.00101165 0)
(0.00190267 -0.000996949 0)
(0.00187879 -0.000983897 0)
(0.00185556 -0.000971297 0)
(0.00183455 -0.000959854 0)
(0.00181408 -0.000949017 0)
(0.00179558 -0.000938829 0)
(0.00177746 -0.000929451 0)
(0.00176119 -0.000920219 0)
(0.00174504 -0.000912018 0)
(0.00173073 -0.000903504 0)
(0.00171623 -0.000896216 0)
(0.00170365 -0.000888259 0)
(0.00224182 -0.00109523 0)
(0.00220132 -0.00106827 0)
(0.00216301 -0.00104272 0)
(0.00212862 -0.00102009 0)
(0.00209565 -0.00099836 0)
(0.00206608 -0.000979155 0)
(0.00203748 -0.000960589 0)
(0.00201184 -0.000944117 0)
(0.00198689 -0.00092819 0)
(0.00196455 -0.000913906 0)
(0.00194269 -0.000900188 0)
(0.00192317 -0.00088765 0)
(0.00190393 -0.000875777 0)
(0.00188687 -0.000864619 0)
(0.00186986 -0.000854282 0)
(0.00185496 -0.0008442 0)
(0.00183986 -0.000835148 0)
(0.00182682 -0.000825869 0)
(0.00181339 -0.000817919 0)
(0.00180196 -0.00080925 0)
(0.00230959 -0.00104152 0)
(0.00227133 -0.00101243 0)
(0.00223512 -0.000985031 0)
(0.00220265 -0.000960723 0)
(0.00217157 -0.000937524 0)
(0.00214369 -0.000916962 0)
(0.00211682 -0.000897176 0)
(0.00209267 -0.000879588 0)
(0.00206933 -0.000862608 0)
(0.00204828 -0.0008474 0)
(0.00202793 -0.000832743 0)
(0.00200952 -0.000819435 0)
(0.00199171 -0.000806716 0)
(0.00197558 -0.000794912 0)
(0.00195994 -0.000783822 0)
(0.0019458 -0.00077319 0)
(0.00193198 -0.000763482 0)
(0.00191962 -0.000753746 0)
(0.00190734 -0.000745223 0)
(0.00189654 -0.000736157 0)
(0.00237627 -0.000986952 0)
(0.00234054 -0.000956042 0)
(0.00230667 -0.000927052 0)
(0.00227633 -0.000901277 0)
(0.00224729 -0.000876795 0)
(0.00222128 -0.000855025 0)
(0.00219622 -0.000834169 0)
(0.00217377 -0.000815567 0)
(0.00215205 -0.000797661 0)
(0.00213258 -0.000781588 0)
(0.00211366 -0.0007661 0)
(0.00209675 -0.000752057 0)
(0.00208022 -0.000738562 0)
(0.00206554 -0.000726159 0)
(0.00205104 -0.000714308 0)
(0.00203835 -0.000703269 0)
(0.00202559 -0.000692758 0)
(0.00201451 -0.000682695 0)
(0.00200345 -0.000673493 0)
(0.00199372 -0.000664265 0)
(0.00243958 -0.000933854 0)
(0.0024066 -0.000901461 0)
(0.00237525 -0.00087118 0)
(0.00234717 -0.000844235 0)
(0.00232028 -0.000818696 0)
(0.00229615 -0.000796011 0)
(0.00227299 -0.000774264 0)
(0.0022521 -0.000754962 0)
(0.00223209 -0.000736274 0)
(0.0022139 -0.000719694 0)
(0.00219659 -0.000703489 0)
(0.00218065 -0.00068912 0)
(0.00216572 -0.000674948 0)
(0.00215166 -0.000662389 0)
(0.0021389 -0.000649898 0)
(0.00212633 -0.000638833 0)
(0.0021156 -0.00062751 0)
(0.00210423 -0.000617958 0)
(0.00209559 -0.000607826 0)
(0.00208509 -0.000599427 0)
(0.00250162 -0.000880373 0)
(0.00247155 -0.000846811 0)
(0.00244287 -0.000815528 0)
(0.00241719 -0.000787647 0)
(0.00239259 -0.000761313 0)
(0.00237049 -0.000737873 0)
(0.00234932 -0.000715486 0)
(0.00233018 -0.000695569 0)
(0.00231194 -0.000676362 0)
(0.00229525 -0.000659273 0)
(0.00227956 -0.00064265 0)
(0.00226492 -0.000627845 0)
(0.00225149 -0.000613351 0)
(0.00223852 -0.000600381 0)
(0.00222715 -0.000587677 0)
(0.00221548 -0.000576127 0)
(0.00220609 -0.000564993 0)
(0.00219548 -0.000554677 0)
(0.00218792 -0.000544741 0)
(0.00217802 -0.000535333 0)
(0.0025599 -0.000828156 0)
(0.00253293 -0.000793822 0)
(0.00250705 -0.000761881 0)
(0.00248388 -0.000733381 0)
(0.00246163 -0.000706495 0)
(0.00244159 -0.000682575 0)
(0.00242246 -0.000659718 0)
(0.00240501 -0.000639442 0)
(0.00238859 -0.000619819 0)
(0.00237331 -0.000602479 0)
(0.00235928 -0.000585472 0)
(0.00234579 -0.000570512 0)
(0.00233394 -0.000555644 0)
(0.00232191 -0.000542613 0)
(0.00231209 -0.000529526 0)
(0.00230121 -0.000518033 0)
(0.0022933 -0.000506465 0)
(0.00228328 -0.000496156 0)
(0.0022773 -0.000485945 0)
(0.00226776 -0.000476436 0)
(0.00261657 -0.000776053 0)
(0.00259272 -0.000741251 0)
(0.00256972 -0.000708953 0)
(0.00254911 -0.000680078 0)
(0.00252929 -0.000652937 0)
(0.00251137 -0.000628717 0)
(0.00249431 -0.00060569 0)
(0.00247865 -0.00058517 0)
(0.00246404 -0.000565452 0)
(0.00245025 -0.000547902 0)
(0.00243783 -0.000530871 0)
(0.00242559 -0.000515714 0)
(0.00241519 -0.000500897 0)
(0.00240419 -0.00048766 0)
(0.00239571 -0.000474702 0)
(0.00238566 -0.000462984 0)
(0.00237904 -0.000451627 0)
(0.00236967 -0.0004411 0)
(0.00236489 -0.000431136 0)
(0.00235595 -0.000421495 0)
(0.00266941 -0.000724935 0)
(0.00264881 -0.000690088 0)
(0.00262874 -0.00065779 0)
(0.00261077 -0.000628874 0)
(0.00259339 -0.000601734 0)
(0.00257764 -0.000577492 0)
(0.00256266 -0.000554474 0)
(0.00254879 -0.000533957 0)
(0.00253599 -0.000514258 0)
(0.0025237 -0.000496736 0)
(0.00251288 -0.000479738 0)
(0.00250191 -0.000464632 0)
(0.00249295 -0.000449869 0)
(0.00248302 -0.000436698 0)
(0.00247583 -0.000423828 0)
(0.00246672 -0.000412176 0)
(0.00246126 -0.000400963 0)
(0.0024527 -0.00039046 0)
(0.00244895 -0.000380749 0)
(0.00244072 -0.000371073 0)
(0.0027202 -0.000674295 0)
(0.00270279 -0.000639693 0)
(0.00268565 -0.000607693 0)
(0.0026703 -0.000578977 0)
(0.00265535 -0.000552126 0)
(0.00264178 -0.000528053 0)
(0.00262886 -0.000505325 0)
(0.00261681 -0.000484952 0)
(0.00260576 -0.000465552 0)
(0.002595 -0.000448148 0)
(0.00258571 -0.000431468 0)
(0.00257603 -0.000416454 0)
(0.00256841 -0.000402033 0)
(0.00255959 -0.000388932 0)
(0.00255359 -0.000376436 0)
(0.00254543 -0.000364843 0)
(0.00254103 -0.000354038 0)
(0.00253334 -0.000343607 0)
(0.00253051 -0.000334334 0)
(0.00252314 -0.000324776 0)
(0.00276722 -0.000624405 0)
(0.00275304 -0.000590465 0)
(0.00273881 -0.000559112 0)
(0.0027261 -0.000530931 0)
(0.00271358 -0.00050463 0)
(0.00270217 -0.000481005 0)
(0.00269129 -0.000458758 0)
(0.00268105 -0.000438769 0)
(0.00267174 -0.000419806 0)
(0.00266251 -0.000402738 0)
(0.0026547 -0.000386471 0)
(0.00264634 -0.000371751 0)
(0.00263999 -0.000357738 0)
(0.00263232 -0.00034489 0)
(0.00262741 -0.000332812 0)
(0.00262028 -0.000321432 0)
(0.0026168 -0.000311066 0)
(0.00261006 -0.000300807 0)
(0.00260799 -0.000292 0)
(0.00260152 -0.000282581 0)
(0.00281179 -0.000575181 0)
(0.00280072 -0.000542182 0)
(0.00278933 -0.000511756 0)
(0.00277917 -0.000484346 0)
(0.00276901 -0.000458853 0)
(0.00275974 -0.00043587 0)
(0.00275082 -0.000414344 0)
(0.00274238 -0.000394896 0)
(0.00273472 -0.000376592 0)
(0.00272703 -0.000359984 0)
(0.00272062 -0.000344331 0)
(0.00271358 -0.000330005 0)
(0.00270842 -0.000316577 0)
(0.00270192 -0.000304074 0)
(0.00269802 -0.000292562 0)
(0.00269195 -0.000281492 0)
(0.00268931 -0.00027168 0)
(0.00268357 -0.000261714 0)
(0.00268219 -0.000253451 0)
(0.00267669 -0.000244321 0)
(0.00285267 -0.000526537 0)
(0.00284467 -0.000494864 0)
(0.00283603 -0.000465688 0)
(0.0028284 -0.000439366 0)
(0.00282051 -0.000414929 0)
(0.00281333 -0.000392854 0)
(0.00280632 -0.000372238 0)
(0.00279963 -0.000353556 0)
(0.00279357 -0.000336055 0)
(0.00278737 -0.000320099 0)
(0.00278231 -0.000305171 0)
(0.00277656 -0.000291403 0)
(0.00277253 -0.000278646 0)
(0.00276717 -0.00026662 0)
(0.00276421 -0.000255742 0)
(0.00275918 -0.000245078 0)
(0.0027573 -0.000235873 0)
(0.00275254 -0.000226254 0)
(0.00275176 -0.000218568 0)
(0.00274721 -0.000209748 0)
(0.00289077 -0.000478608 0)
(0.00288566 -0.000448523 0)
(0.00287964 -0.000420854 0)
(0.0028744 -0.00039584 0)
(0.00286868 -0.00037269 0)
(0.00286351 -0.000351707 0)
(0.0028583 -0.000332206 0)
(0.00285331 -0.000314448 0)
(0.00284875 -0.000297925 0)
(0.00284401 -0.000282759 0)
(0.0028402 -0.0002687 0)
(0.00283573 -0.000255618 0)
(0.00283274 -0.00024364 0)
(0.00282854 -0.000232222 0)
(0.00282641 -0.000222047 0)
(0.00282246 -0.000211933 0)
(0.00282125 -0.000203368 0)
(0.0028175 -0.000194254 0)
(0.00281723 -0.000187159 0)
(0.00281366 -0.000178804 0)
(0.00292525 -0.00043113 0)
(0.00292291 -0.000402972 0)
(0.00291937 -0.000377094 0)
(0.00291642 -0.000353675 0)
(0.00291275 -0.000332032 0)
(0.00290948 -0.000312381 0)
(0.00290598 -0.000294164 0)
(0.0029026 -0.00027753 0)
(0.00289946 -0.000262116 0)
(0.00289609 -0.000247908 0)
(0.00289347 -0.000234822 0)
(0.00289019 -0.00022256 0)
(0.00288819 -0.000211452 0)
(0.00288505 -0.000200735 0)
(0.00288374 -0.000191353 0)
(0.00288075 -0.000181837 0)
(0.00288019 -0.000174006 0)
(0.00287736 -0.000165399 0)
(0.00287758 -0.000158978 0)
(0.00287492 -0.000151063 0)
(0.00295669 -0.000384326 0)
(0.00295689 -0.000358329 0)
(0.00295566 -0.000334473 0)
(0.00295482 -0.000312843 0)
(0.00295305 -0.000292909 0)
(0.00295156 -0.000274756 0)
(0.00294963 -0.000257999 0)
(0.00294777 -0.000242632 0)
(0.00294593 -0.000228476 0)
(0.00294388 -0.000215352 0)
(0.00294233 -0.000203357 0)
(0.00294021 -0.00019204 0)
(0.00293908 -0.000181872 0)
(0.002937 -0.000172001 0)
(0.00293637 -0.000163418 0)
(0.00293439 -0.000154684 0)
(0.00293433 -0.000147517 0)
(0.00293247 -0.000139643 0)
(0.00293304 -0.000133785 0)
(0.00293128 -0.000126512 0)
(0.00298455 -0.000337865 0)
(0.0029871 -0.000314317 0)
(0.00298798 -0.000292718 0)
(0.0029891 -0.00027312 0)
(0.00298907 -0.00025508 0)
(0.00298923 -0.000238628 0)
(0.00298873 -0.000223472 0)
(0.00298826 -0.000209543 0)
(0.00298761 -0.000196753 0)
(0.00298676 -0.000184855 0)
(0.00298619 -0.000174033 0)
(0.00298513 -0.000163768 0)
(0.00298482 -0.00015462 0)
(0.00298365 -0.000145657 0)
(0.00298372 -0.000137977 0)
(0.00298254 -0.000130022 0)
(0.00298309 -0.000123695 0)
(0.00298195 -0.00011647 0)
(0.00298304 -0.000111495 0)
(0.00298199 -0.000104686 0)
(0.00300917 -0.000291982 0)
(0.00301382 -0.000271081 0)
(0.00301659 -0.000251933 0)
(0.00301945 -0.000234533 0)
(0.00302099 -0.000218553 0)
(0.00302261 -0.000203943 0)
(0.00302341 -0.000190534 0)
(0.00302418 -0.000178163 0)
(0.00302462 -0.000166864 0)
(0.00302483 -0.000156296 0)
(0.00302516 -0.000146753 0)
(0.00302502 -0.000137642 0)
(0.00302545 -0.000129584 0)
(0.00302512 -0.00012165 0)
(0.00302578 -0.000114869 0)
(0.00302537 -0.000107894 0)
(0.00302637 -0.000102216 0)
(0.00302602 -9.60538e-05 0)
(0.00302737 -9.13045e-05 0)
(0.00302727 -8.51942e-05 0)
(0.00303022 -0.000246345 0)
(0.00303672 -0.000228316 0)
(0.00304115 -0.000211807 0)
(0.00304556 -0.000196794 0)
(0.00304845 -0.000183024 0)
(0.00305138 -0.000170412 0)
(0.00305329 -0.000158868 0)
(0.0030552 -0.000148181 0)
(0.00305652 -0.000138469 0)
(0.00305774 -0.000129327 0)
(0.00305877 -0.000121147 0)
(0.00305956 -0.000113244 0)
(0.0030605 -0.000106368 0)
(0.00306105 -9.94511e-05 0)
(0.00306205 -9.37043e-05 0)
(0.00306252 -8.75702e-05 0)
(0.00306368 -8.27931e-05 0)
(0.00306419 -7.73053e-05 0)
(0.00306558 -7.32903e-05 0)
(0.00306622 -6.84348e-05 0)
(0.0030479 -0.000201165 0)
(0.00305597 -0.000186164 0)
(0.00306181 -0.000172436 0)
(0.00306752 -0.000159946 0)
(0.00307158 -0.000148499 0)
(0.0030756 -0.000138011 0)
(0.00307848 -0.000128416 0)
(0.00308131 -0.000119537 0)
(0.00308344 -0.000111463 0)
(0.00308546 -0.000103882 0)
(0.00308717 -9.70742e-05 0)
(0.00308865 -9.05415e-05 0)
(0.00309016 -8.48077e-05 0)
(0.00309133 -7.91165e-05 0)
(0.00309281 -7.43147e-05 0)
(0.00309384 -6.92845e-05 0)
(0.00309539 -6.53189e-05 0)
(0.0030964 -6.07777e-05 0)
(0.00309812 -5.75993e-05 0)
(0.00309917 -5.33548e-05 0)
(0.00306201 -0.000156126 0)
(0.00307136 -0.000144311 0)
(0.00307833 -0.000133506 0)
(0.00308511 -0.000123663 0)
(0.0030901 -0.000114659 0)
(0.00309503 -0.000106388 0)
(0.00309867 -9.88472e-05 0)
(0.00310229 -9.18361e-05 0)
(0.00310503 -8.5501e-05 0)
(0.00310774 -7.95033e-05 0)
(0.00310993 -7.41747e-05 0)
(0.00311203 -6.89924e-05 0)
(0.00311393 -6.45182e-05 0)
(0.00311566 -5.99902e-05 0)
(0.00311744 -5.62538e-05 0)
(0.00311897 -5.22486e-05 0)
(0.00312076 -4.91609e-05 0)
(0.00312225 -4.55725e-05 0)
(0.00312415 -4.30714e-05 0)
(0.00312571 -3.98082e-05 0)
(0.00307267 -0.000111421 0)
(0.00308297 -0.000102896 0)
(0.00309082 -9.50987e-05 0)
(0.0030984 -8.80013e-05 0)
(0.00310411 -8.15023e-05 0)
(0.00310971 -7.55445e-05 0)
(0.00311395 -7.00998e-05 0)
(0.00311814 -6.50575e-05 0)
(0.00312138 -6.04794e-05 0)
(0.00312459 -5.61756e-05 0)
(0.0031272 -5.23206e-05 0)
(0.00312973 -4.86114e-05 0)
(0.00313197 -4.53723e-05 0)
(0.00313409 -4.21365e-05 0)
(0.00313614 -3.94367e-05 0)
(0.00313804 -3.65676e-05 0)
(0.00314004 -3.43564e-05 0)
(0.00314187 -3.1759e-05 0)
(0.00314392 -3.00034e-05 0)
(0.00314581 -2.7601e-05 0)
(0.00307974 -6.67427e-05 0)
(0.0030907 -6.15978e-05 0)
(0.00309913 -5.68964e-05 0)
(0.00310725 -5.26078e-05 0)
(0.00311344 -4.86924e-05 0)
(0.0031195 -4.50866e-05 0)
(0.00312412 -4.18101e-05 0)
(0.00312872 -3.8752e-05 0)
(0.00313227 -3.60014e-05 0)
(0.00313582 -3.33845e-05 0)
(0.00313869 -3.10728e-05 0)
(0.00314153 -2.88119e-05 0)
(0.00314398 -2.68726e-05 0)
(0.00314637 -2.48981e-05 0)
(0.00314859 -2.32812e-05 0)
(0.00315074 -2.15352e-05 0)
(0.00315287 -2.02044e-05 0)
(0.00315494 -1.86374e-05 0)
(0.00315708 -1.75674e-05 0)
(0.00315922 -1.61368e-05 0)
(0.0030833 -2.22793e-05 0)
(0.00309459 -2.05561e-05 0)
(0.0031033 -1.89789e-05 0)
(0.0031117 -1.75473e-05 0)
(0.00311813 -1.62318e-05 0)
(0.00312442 -1.50328e-05 0)
(0.00312925 -1.39298e-05 0)
(0.00313403 -1.29178e-05 0)
(0.00313776 -1.19895e-05 0)
(0.00314148 -1.11281e-05 0)
(0.00314448 -1.0346e-05 0)
(0.00314747 -9.60498e-06 0)
(0.00315003 -8.94842e-06 0)
(0.00315256 -8.30152e-06 0)
(0.00315487 -7.75666e-06 0)
(0.00315714 -7.18032e-06 0)
(0.00315934 -6.7383e-06 0)
(0.00316153 -6.21224e-06 0)
(0.00316372 -5.86661e-06 0)
(0.00316597 -5.37606e-06 0)
(0.00316991 -4.8081e-06 0)
(0.00316338 -1.43222e-05 0)
(0.00315048 -2.4624e-05 0)
(0.00313102 -3.54604e-05 0)
(0.00310552 -4.77976e-05 0)
(0.00307347 -6.12837e-05 0)
(0.00303594 -7.68683e-05 0)
(0.00299251 -9.41742e-05 0)
(0.00294338 -0.000114201 0)
(0.00288884 -0.000136606 0)
(0.00282952 -0.000162066 0)
(0.00276505 -0.000190549 0)
(0.00269659 -0.000222463 0)
(0.0026234 -0.000257882 0)
(0.00254698 -0.000297077 0)
(0.00246631 -0.000340229 0)
(0.0023831 -0.000387452 0)
(0.00229618 -0.00043914 0)
(0.0022069 -0.000495417 0)
(0.00211535 -0.000555871 0)
(0.00317639 -3.72045e-06 0)
(0.00317019 -1.12308e-05 0)
(0.00315785 -1.92944e-05 0)
(0.00313937 -2.80844e-05 0)
(0.00311496 -3.80107e-05 0)
(0.00308457 -4.93314e-05 0)
(0.00304864 -6.23873e-05 0)
(0.00300672 -7.74202e-05 0)
(0.00295999 -9.46848e-05 0)
(0.00290769 -0.000114471 0)
(0.00285101 -0.000137087 0)
(0.00278926 -0.00016252 0)
(0.00272382 -0.00019135 0)
(0.00265375 -0.000223202 0)
(0.00258088 -0.000258884 0)
(0.00250381 -0.000297569 0)
(0.00242506 -0.000340533 0)
(0.00234259 -0.000385933 0)
(0.00225947 -0.000436756 0)
(0.0021733 -0.000488632 0)
(0.00318315 -3.16114e-06 0)
(0.00317737 -9.32674e-06 0)
(0.00316598 -1.61928e-05 0)
(0.00314875 -2.34385e-05 0)
(0.0031262 -3.19171e-05 0)
(0.00309788 -4.12964e-05 0)
(0.0030646 -5.24145e-05 0)
(0.00302592 -6.49064e-05 0)
(0.00298235 -7.97696e-05 0)
(0.00293378 -9.63505e-05 0)
(0.00288094 -0.00011584 0)
(0.00282326 -0.000137453 0)
(0.00276205 -0.000162494 0)
(0.00269618 -0.000189978 0)
(0.00262747 -0.000221557 0)
(0.00255432 -0.000255604 0)
(0.00247891 -0.000294738 0)
(0.00239952 -0.000335632 0)
(0.00231819 -0.000383021 0)
(0.00223426 -0.000430276 0)
(0.00319128 -2.5463e-06 0)
(0.00318578 -7.59181e-06 0)
(0.00317487 -1.31972e-05 0)
(0.00315846 -1.925e-05 0)
(0.00313686 -2.63918e-05 0)
(0.00310983 -3.4428e-05 0)
(0.00307795 -4.41107e-05 0)
(0.00304073 -5.50373e-05 0)
(0.00299921 -6.81157e-05 0)
(0.00295255 -8.28266e-05 0)
(0.00290212 -0.000100183 0)
(0.00284688 -0.000119341 0)
(0.00278849 -0.000141747 0)
(0.00272565 -0.000165853 0)
(0.00266043 -0.00019399 0)
(0.00259116 -0.000223384 0)
(0.00252023 -0.000258001 0)
(0.00244572 -0.000293036 0)
(0.00236989 -0.000335094 0)
(0.00229097 -0.00037636 0)
(0.00319994 -2.15075e-06 0)
(0.00319482 -6.22414e-06 0)
(0.00318473 -1.09609e-05 0)
(0.00316947 -1.58856e-05 0)
(0.00314947 -2.19244e-05 0)
(0.00312436 -2.85348e-05 0)
(0.00309479 -3.67423e-05 0)
(0.00306032 -4.58496e-05 0)
(0.00302162 -5.71134e-05 0)
(0.00297826 -6.94865e-05 0)
(0.00293113 -8.46511e-05 0)
(0.00287949 -0.000101045 0)
(0.00282462 -0.000120959 0)
(0.00276538 -0.000142029 0)
(0.00270346 -0.000167534 0)
(0.00263742 -0.000193709 0)
(0.00256917 -0.000225514 0)
(0.00249739 -0.000256895 0)
(0.00242377 -0.000295411 0)
(0.00234764 -0.000332014 0)
(0.00320987 -1.85987e-06 0)
(0.00320498 -5.37915e-06 0)
(0.00319529 -9.50936e-06 0)
(0.0031807 -1.38006e-05 0)
(0.0031615 -1.91548e-05 0)
(0.00313744 -2.49626e-05 0)
(0.00310908 -3.2323e-05 0)
(0.00307596 -4.03425e-05 0)
(0.00303898 -5.04209e-05 0)
(0.00299738 -6.13041e-05 0)
(0.00295242 -7.47998e-05 0)
(0.00290309 -8.90585e-05 0)
(0.00285093 -0.000106659 0)
(0.00279473 -0.000124707 0)
(0.00273622 -0.000147131 0)
(0.00267407 -0.000169377 0)
(0.00260995 -0.000197406 0)
(0.00254263 -0.000224361 0)
(0.00247352 -0.00025867 0)
(0.00240153 -0.000290864 0)
(0.00322084 -1.57844e-06 0)
(0.00321629 -4.41662e-06 0)
(0.0032073 -7.92677e-06 0)
(0.00319372 -1.14303e-05 0)
(0.0031759 -1.60021e-05 0)
(0.00315353 -2.08279e-05 0)
(0.00312714 -2.7177e-05 0)
(0.00309634 -3.39657e-05 0)
(0.00306177 -4.28166e-05 0)
(0.00302297 -5.2168e-05 0)
(0.00298072 -6.42413e-05 0)
(0.00293442 -7.6709e-05 0)
(0.00288505 -9.26948e-05 0)
(0.00283186 -0.000108733 0)
(0.00277596 -0.000129235 0)
(0.00271663 -0.000149158 0)
(0.00265494 -0.000174631 0)
(0.00259037 -0.00019868 0)
(0.0025238 -0.000229487 0)
(0.00245489 -0.000257966 0)
(0.00323268 -1.48651e-06 0)
(0.00322831 -4.12236e-06 0)
(0.00321967 -7.41828e-06 0)
(0.00320664 -1.06358e-05 0)
(0.0031895 -1.4893e-05 0)
(0.00316804 -1.92522e-05 0)
(0.00314271 -2.50861e-05 0)
(0.00311317 -3.11102e-05 0)
(0.0030801 -3.91056e-05 0)
(0.00304298 -4.72753e-05 0)
(0.00300273 -5.80098e-05 0)
(0.00295868 -6.8744e-05 0)
(0.00291187 -8.28107e-05 0)
(0.00286158 -9.65005e-05 0)
(0.00280885 -0.000114522 0)
(0.00275302 -0.000131574 0)
(0.00269494 -0.000154158 0)
(0.00263417 -0.000174983 0)
(0.0025713 -0.000202601 0)
(0.00250609 -0.000227562 0)
(0.00324608 -1.30509e-06 0)
(0.00324201 -3.51153e-06 0)
(0.00323395 -6.4098e-06 0)
(0.00322181 -9.13449e-06 0)
(0.00320582 -1.28989e-05 0)
(0.0031858 -1.66528e-05 0)
(0.0031621 -2.18652e-05 0)
(0.0031345 -2.71413e-05 0)
(0.00310342 -3.43831e-05 0)
(0.0030686 -4.16346e-05 0)
(0.00303055 -5.14726e-05 0)
(0.00298899 -6.10974e-05 0)
(0.00294443 -7.40496e-05 0)
(0.0028967 -8.63739e-05 0)
(0.00284619 -0.000102872 0)
(0.00279296 -0.000118174 0)
(0.00273716 -0.000138553 0)
(0.00267916 -0.000157152 0)
(0.00261884 -0.000181669 0)
(0.00255664 -0.000204017 0)
(0.0032599 -1.32368e-06 0)
(0.00325599 -3.53771e-06 0)
(0.00324824 -6.43801e-06 0)
(0.00323658 -9.08829e-06 0)
(0.0032212 -1.27424e-05 0)
(0.003202 -1.62503e-05 0)
(0.00317926 -2.11461e-05 0)
(0.00315284 -2.59091e-05 0)
(0.00312313 -3.25216e-05 0)
(0.00308993 -3.89126e-05 0)
(0.00305371 -4.7714e-05 0)
(0.00301428 -5.60879e-05 0)
(0.00297205 -6.75531e-05 0)
(0.00292697 -7.82682e-05 0)
(0.00287924 -9.28546e-05 0)
(0.00282906 -0.000106285 0)
(0.00277635 -0.000124374 0)
(0.00272156 -0.000140888 0)
(0.00266444 -0.000162737 0)
(0.00260551 -0.000182655 0)
(0.00327568 -1.23204e-06 0)
(0.00327202 -3.23419e-06 0)
(0.00326476 -5.93212e-06 0)
(0.00325385 -8.33732e-06 0)
(0.00323942 -1.17366e-05 0)
(0.00322142 -1.49398e-05 0)
(0.00320002 -1.95049e-05 0)
(0.00317519 -2.38821e-05 0)
(0.00314711 -3.00656e-05 0)
(0.0031158 -3.59589e-05 0)
(0.00308139 -4.41848e-05 0)
(0.00304403 -5.18947e-05 0)
(0.00300372 -6.25351e-05 0)
(0.00296084 -7.2328e-05 0)
(0.00291514 -8.56891e-05 0)
(0.00286732 -9.78306e-05 0)
(0.00281682 -0.000114166 0)
(0.00276462 -0.000128956 0)
(0.00270996 -0.0001485 0)
(0.00265388 -0.000166247 0)
(0.00329155 -1.30728e-06 0)
(0.00328804 -3.43976e-06 0)
(0.00328105 -6.25318e-06 0)
(0.00327058 -8.71644e-06 0)
(0.00325672 -1.21235e-05 0)
(0.00323948 -1.52398e-05 0)
(0.00321898 -1.96278e-05 0)
(0.00319525 -2.37071e-05 0)
(0.00316844 -2.94557e-05 0)
(0.00313863 -3.47982e-05 0)
(0.00310589 -4.22795e-05 0)
(0.00307047 -4.91836e-05 0)
(0.00303224 -5.87535e-05 0)
(0.00299168 -6.75218e-05 0)
(0.00294841 -7.94967e-05 0)
(0.0029032 -9.04288e-05 0)
(0.00285536 -0.000105061 0)
(0.00280595 -0.000118427 0)
(0.00275406 -0.000135918 0)
(0.00270092 -0.00015193 0)
(0.00330959 -1.29043e-06 0)
(0.00330629 -3.38755e-06 0)
(0.00329971 -6.15655e-06 0)
(0.00328986 -8.5682e-06 0)
(0.00327678 -1.18992e-05 0)
(0.00326052 -1.49319e-05 0)
(0.00324112 -1.91898e-05 0)
(0.00321871 -2.31329e-05 0)
(0.00319325 -2.86631e-05 0)
(0.00316501 -3.3781e-05 0)
(0.00313381 -4.08962e-05 0)
(0.00310014 -4.74275e-05 0)
(0.00306361 -5.63962e-05 0)
(0.00302499 -6.45642e-05 0)
(0.00298359 -7.56135e-05 0)