/*--------------------------------*- C++ -*----------------------------------*\
| =========                 |                                                 |
| \\      /  F ield         | OpenFOAM: The Open Source CFD Toolbox           |
|  \\    /   O peration     | Version:  v2012                                 |
|   \\  /    A nd           | Website:  www.openfoam.com                      |
|    \\/     M anipulation  |                                                 |
\*---------------------------------------------------------------------------*/
FoamFile
{
    version     2.0;
    format      ascii;
    class       volSymmTensorField;
    location    "13";
    object      sigma;
}
// * * * * * * * * * * * * * * * * * * * * * * * * * * * * * * * * * * * * * //

dimensions      [1 -1 -2 0 0 0 0];


internalField   nonuniform List<symmTensor> 
4000
(
(1.15603e+08 -2.51541e+06 -1.14796e-08 1.71409e+06 3.78149e-08 9.0157e+07)
(1.33152e+08 -2.87895e+06 -2.98097e-09 4.68169e+06 5.19639e-08 9.80819e+07)
(1.49572e+08 -3.46128e+06 1.6427e-15 8.92683e+06 -5.89548e-14 1.06518e+08)
(1.6404e+08 -3.83405e+06 1.69711e-08 1.29681e+07 -5.69769e-08 1.13331e+08)
(1.78579e+08 -4.21238e+06 -2.79867e-08 1.8004e+07 -5.59637e-08 1.20802e+08)
(1.90601e+08 -4.5859e+06 5.4474e-10 2.26448e+07 2.88301e-08 1.26395e+08)
(2.03567e+08 -4.848e+06 -2.15863e-08 2.83035e+07 3.95819e-10 1.32688e+08)
(2.13962e+08 -5.17377e+06 0 3.32727e+07 0 1.36964e+08)
(2.25472e+08 -5.35123e+06 2.49766e-09 3.93587e+07 5.6842e-08 1.41663e+08)
(2.34578e+08 -5.55317e+06 2.74302e-08 4.44176e+07 2.77321e-08 1.44136e+08)
(2.44533e+08 -5.55044e+06 -3.73867e-09 5.05935e+07 -5.32787e-08 1.46521e+08)
(2.52123e+08 -5.45548e+06 -4.6026e-09 5.53277e+07 -5.0542e-08 1.46363e+08)
(2.59951e+08 -5.08549e+06 -2.78527e-09 6.09587e+07 -2.34476e-08 1.45476e+08)
(2.65227e+08 -4.49594e+06 6.58182e-09 6.46622e+07 4.28115e-08 1.41886e+08)
(2.70062e+08 -3.58987e+06 2.10218e-08 6.88541e+07 2.04826e-08 1.37401e+08)
(2.72155e+08 -2.40913e+06 -4.06219e-09 7.06567e+07 -1.65662e-08 1.30589e+08)
(2.73464e+08 -957457 -2.30361e-08 7.25271e+07 -1.63011e-08 1.23413e+08)
(2.72346e+08 666739 -4.29286e-08 7.17501e+07 -1.69928e-08 1.14925e+08)
(2.70932e+08 2.52565e+06 -1.98558e-08 7.08092e+07 -2.74759e-09 1.07139e+08)
(2.64206e+08 4.46233e+06 -3.50465e-08 6.71954e+07 6.28081e-09 9.94206e+07)
(1.16219e+08 -7.49545e+06 -1.46017e-08 2.1584e+06 2.58029e-08 9.02298e+07)
(1.33376e+08 -8.72957e+06 1.16684e-09 5.1931e+06 2.20221e-08 9.798e+07)
(1.49897e+08 -1.04103e+07 1.21803e-08 9.67609e+06 -5.78708e-08 1.06542e+08)
(1.64035e+08 -1.15419e+07 1.54006e-08 1.37513e+07 2.14296e-08 1.13226e+08)
(1.78672e+08 -1.27068e+07 -2.76379e-08 1.9002e+07 8.05371e-09 1.20814e+08)
(1.90483e+08 -1.37063e+07 -4.49489e-15 2.36821e+07 -1.0181e-13 1.263e+08)
(2.03444e+08 -1.45328e+07 9.36902e-11 2.9525e+07 1.24041e-09 1.32583e+08)
(2.13679e+08 -1.53644e+07 -2.91974e-08 3.4439e+07 -5.4938e-08 1.36597e+08)
(2.25026e+08 -1.5828e+07 0 4.05045e+07 0 1.40931e+08)
(2.338e+08 -1.62498e+07 4.43424e-08 4.52626e+07 2.52996e-08 1.42771e+08)
(2.43249e+08 -1.60594e+07 8.01454e-15 5.09962e+07 3.36067e-14 1.44264e+08)
(2.50156e+08 -1.55571e+07 -1.51041e-08 5.49944e+07 -4.87167e-08 1.43032e+08)
(2.57082e+08 -1.42161e+07 -9.06007e-09 5.96362e+07 -2.2368e-08 1.41002e+08)
(2.61344e+08 -1.22747e+07 1.05174e-08 6.212e+07 2.02387e-08 1.36373e+08)
(2.65068e+08 -9.43502e+06 2.93196e-08 6.49166e+07 2.22077e-08 1.31067e+08)
(2.66115e+08 -5.93748e+06 -6.23024e-09 6.5309e+07 9.76931e-09 1.23926e+08)
(2.6659e+08 -1.80922e+06 -6.58408e-09 6.5883e+07 6.84272e-09 1.1694e+08)
(2.64653e+08 2.74077e+06 -5.02734e-08 6.41124e+07 -2.59018e-08 1.09249e+08)
(2.6277e+08 7.50309e+06 1.72498e-10 6.25822e+07 1.72865e-10 1.02665e+08)
(2.58631e+08 1.25117e+07 -5.48755e-08 5.90768e+07 -3.17788e-08 9.60657e+07)
(1.17372e+08 -1.26256e+07 -1.98577e-08 2.97252e+06 2.20797e-08 9.0346e+07)
(1.33979e+08 -1.46526e+07 -2.61081e-09 6.29396e+06 1.85246e-08 9.78681e+07)
(1.50399e+08 -1.7414e+07 5.29241e-09 1.11772e+07 -2.83286e-08 1.06506e+08)
(1.64161e+08 -1.93099e+07 -1.3886e-08 1.53947e+07 6.15649e-08 1.13016e+08)
(1.78614e+08 -2.12058e+07 1.84501e-08 2.10084e+07 -8.47375e-09 1.20586e+08)
(1.90168e+08 -2.29618e+07 7.38444e-09 2.57742e+07 -6.06852e-08 1.25831e+08)
(2.02962e+08 -2.41171e+07 6.18519e-09 3.16909e+07 5.57016e-08 1.31778e+08)
(2.1281e+08 -2.53076e+07 2.11353e-10 3.64388e+07 1.17614e-09 1.35101e+08)
(2.23724e+08 -2.56854e+07 -4.68296e-08 4.21461e+07 -7.94479e-08 1.38446e+08)
(2.31744e+08 -2.58356e+07 2.30189e-08 4.61378e+07 2.56466e-08 1.38875e+08)
(2.40153e+08 -2.49049e+07 2.68086e-08 5.07256e+07 2.60637e-08 1.38619e+08)
(2.45711e+08 -2.33342e+07 -1.29416e-08 5.31176e+07 -4.104e-08 1.35538e+08)
(2.50983e+08 -2.04851e+07 -5.11949e-08 5.57259e+07 -3.11338e-08 1.31695e+08)
(2.53505e+08 -1.67898e+07 9.623e-10 5.59876e+07 1.06515e-08 1.25818e+08)
(2.55476e+08 -1.19804e+07 4.03488e-08 5.63984e+07 3.16944e-08 1.19905e+08)
(2.55126e+08 -6.56049e+06 2.06388e-08 5.47638e+07 1.43768e-08 1.13192e+08)
(2.54476e+08 -606870 1.95221e-08 5.35758e+07 1.11142e-08 1.07342e+08)
(2.52104e+08 5.51035e+06 -5.38882e-08 5.08738e+07 -3.46661e-08 1.01499e+08)
(2.49825e+08 1.14339e+07 -2.48235e-10 4.90245e+07 -1.83366e-10 9.67627e+07)
(2.46872e+08 1.73027e+07 -4.89209e-08 4.61065e+07 -3.59104e-08 9.19516e+07)
(1.192e+08 -1.77525e+07 -4.35525e-08 4.37731e+06 4.34768e-08 9.06944e+07)
(1.34668e+08 -2.09601e+07 -2.52827e-08 8.01564e+06 5.5616e-08 9.76851e+07)
(1.51335e+08 -2.45135e+07 6.49291e-09 1.35994e+07 -9.19508e-09 1.06484e+08)
(1.64192e+08 -2.72253e+07 5.50332e-09 1.78819e+07 -2.79184e-08 1.12417e+08)
(1.78947e+08 -2.97666e+07 3.23029e-08 2.38921e+07 -7.93295e-08 1.19843e+08)
(1.89582e+08 -3.17761e+07 1.927e-09 2.84464e+07 5.58981e-08 1.24159e+08)
(2.01881e+08 -3.31034e+07 4.57462e-09 3.44009e+07 2.87709e-08 1.29147e+08)
(2.10905e+08 -3.4196e+07 3.77536e-08 3.83801e+07 -7.10847e-09 1.30891e+08)
(2.20758e+08 -3.3915e+07 2.68402e-09 4.32268e+07 -2.37588e-08 1.32332e+08)
(2.27469e+08 -3.3102e+07 -3.17851e-08 4.5539e+07 -4.63494e-08 1.30502e+08)
(2.34195e+08 -3.06562e+07 3.27638e-08 4.81423e+07 1.01094e-08 1.28031e+08)
(2.37918e+08 -2.73367e+07 2.28954e-08 4.79844e+07 1.8539e-08 1.23112e+08)
(2.41263e+08 -2.26028e+07 2.68953e-08 4.80321e+07 1.74414e-08 1.1826e+08)
(2.42093e+08 -1.71738e+07 -6.53322e-08 4.57702e+07 -3.91703e-08 1.12423e+08)
(2.42747e+08 -1.10142e+07 -1.96832e-08 4.41656e+07 -1.34229e-08 1.07607e+08)
(2.41666e+08 -4.71548e+06 1.92377e-08 4.10695e+07 1.38204e-08 1.02768e+08)
(2.40828e+08 1.5708e+06 6.47488e-08 3.91815e+07 3.89376e-08 9.9114e+07)
(2.38927e+08 7.54699e+06 3.87313e-08 3.64033e+07 2.83868e-08 9.53697e+07)
(2.3738e+08 1.31069e+07 -1.85535e-08 3.51027e+07 -1.36475e-08 9.23348e+07)
(2.35346e+08 1.81982e+07 2.50058e-08 3.30196e+07 1.90625e-08 8.87323e+07)
(1.21566e+08 -2.33833e+07 -5.47535e-09 6.17091e+06 9.63126e-09 9.11769e+07)
(1.35978e+08 -2.748e+07 3.83482e-08 1.05702e+07 -7.37748e-08 9.76237e+07)
(1.52029e+08 -3.176e+07 1.32081e-08 1.64394e+07 -3.07659e-08 1.0584e+08)
(1.64475e+08 -3.48207e+07 8.02867e-09 2.108e+07 -1.23834e-08 1.11012e+08)
(1.78131e+08 -3.7701e+07 7.88612e-11 2.7245e+07 -6.36341e-10 1.17048e+08)
(1.88077e+08 -4.01434e+07 -9.02286e-09 3.14517e+07 3.42599e-08 1.19586e+08)
(1.99705e+08 -4.09067e+07 3.02565e-08 3.67764e+07 -3.66354e-08 1.2245e+08)
(2.07239e+08 -4.12571e+07 1.9917e-10 3.9087e+07 -2.37479e-08 1.21448e+08)
(2.15424e+08 -3.96008e+07 1.4951e-08 4.20077e+07 2.50139e-09 1.20129e+08)
(2.20259e+08 -3.70215e+07 0 4.14665e+07 0 1.16016e+08)
(2.24879e+08 -3.26308e+07 2.92041e-08 4.13155e+07 1.59191e-08 1.1215e+08)
(2.26889e+08 -2.75335e+07 -3.909e-08 3.8388e+07 -2.62468e-08 1.07212e+08)
(2.28783e+08 -2.14887e+07 7.23742e-08 3.6347e+07 4.29676e-08 1.03547e+08)
(2.28935e+08 -1.53733e+07 8.47387e-08 3.2641e+07 4.21804e-08 9.98149e+07)
(2.29369e+08 -9.15675e+06 -8.83697e-09 3.04505e+07 3.53878e-09 9.7442e+07)
(2.28705e+08 -3.34327e+06 -2.64385e-08 2.73413e+07 -1.28919e-08 9.48634e+07)
(2.28494e+08 2.2295e+06 -4.03929e-09 2.59536e+07 2.88434e-09 9.29848e+07)
(2.27357e+08 7.35134e+06 1.78157e-08 2.3755e+07 1.46922e-08 9.05183e+07)
(2.26576e+08 1.23029e+07 -4.52965e-10 2.3142e+07 -3.05206e-09 8.82849e+07)
(2.24882e+08 1.68445e+07 2.88072e-08 2.1527e+07 2.63092e-08 8.53246e+07)
(1.24892e+08 -2.91251e+07 9.63567e-09 8.86857e+06 -2.11399e-08 9.20646e+07)
(1.37068e+08 -3.4219e+07 -2.29755e-08 1.34091e+07 4.80219e-08 9.69451e+07)
(1.52584e+08 -3.87303e+07 5.44126e-09 2.01608e+07 -1.48925e-08 1.04223e+08)
(1.6356e+08 -4.2613e+07 8.68167e-09 2.47515e+07 -2.85476e-08 1.07024e+08)
(1.78321e+08 -4.49132e+07 -2.16516e-08 3.12085e+07 1.8082e-08 1.11594e+08)
(1.85676e+08 -4.6799e+07 -2.03508e-08 3.40703e+07 -1.86837e-08 1.09743e+08)
(1.95437e+08 -4.60864e+07 -1.65408e-08 3.75547e+07 -2.0521e-08 1.08692e+08)
(2.01357e+08 -4.47157e+07 3.20639e-08 3.70765e+07 2.79405e-08 1.04594e+08)
(2.07077e+08 -4.10218e+07 -1.84942e-08 3.67274e+07 -9.94615e-09 1.01124e+08)
(2.10051e+08 -3.65351e+07 -7.83618e-08 3.30957e+07 -4.0286e-08 9.69185e+07)
(2.1303e+08 -3.10257e+07 3.37787e-08 3.05246e+07 -1.01928e-08 9.44008e+07)
(2.14334e+08 -2.53536e+07 -5.82553e-08 2.60399e+07 -2.82295e-08 9.20434e+07)
(2.16e+08 -1.95631e+07 -7.02089e-08 2.34234e+07 -2.27084e-08 9.11253e+07)
(2.1648e+08 -1.41226e+07 1.95673e-08 1.98016e+07 1.68164e-08 8.98838e+07)
(2.17456e+08 -8.82107e+06 2.77956e-08 1.81783e+07 1.18826e-08 8.93127e+07)
(2.17292e+08 -3.91178e+06 1.97284e-08 1.5676e+07 1.65782e-08 8.78631e+07)
(2.17494e+08 1.02556e+06 2.31412e-08 1.48334e+07 1.22685e-08 8.67e+07)
(2.16588e+08 5.63058e+06 6.26037e-08 1.2946e+07 4.14391e-08 8.46459e+07)
(2.16044e+08 1.03531e+07 -5.74953e-08 1.25289e+07 -3.97612e-08 8.28906e+07)
(2.14677e+08 1.45996e+07 -7.81701e-09 1.09877e+07 -3.58499e-09 8.04734e+07)
(1.28254e+08 -3.5287e+07 -7.47673e-08 1.25151e+07 5.79173e-08 9.25975e+07)
(1.38738e+08 -4.10119e+07 1.231e-08 1.69322e+07 -1.03647e-08 9.53114e+07)
(1.53256e+08 -4.58005e+07 2.25615e-08 2.46641e+07 -5.91376e-08 1.00116e+08)
(1.62082e+08 -4.97593e+07 -1.54441e-08 2.85885e+07 8.60892e-08 9.86368e+07)
(1.74075e+08 -5.09439e+07 -4.26733e-09 3.36446e+07 2.49854e-08 9.71868e+07)
(1.81228e+08 -5.04945e+07 -3.4727e-09 3.41678e+07 -1.19174e-08 9.15769e+07)
(1.88179e+08 -4.77472e+07 -3.21279e-08 3.43465e+07 -1.00238e-08 8.63894e+07)
(1.92506e+08 -4.383e+07 -2.22288e-08 3.03071e+07 -1.48824e-08 8.16791e+07)
(1.96472e+08 -3.87418e+07 9.04229e-08 2.68768e+07 4.22476e-08 7.95309e+07)
(1.99041e+08 -3.37038e+07 -3.28186e-09 2.16013e+07 -3.15692e-08 7.8577e+07)
(2.01784e+08 -2.8495e+07 8.02812e-10 1.82878e+07 1.49569e-10 7.92652e+07)
(2.03238e+08 -2.36423e+07 -7.4369e-08 1.41894e+07 -1.78995e-08 7.97017e+07)
(2.05219e+08 -1.89141e+07 -5.5897e-08 1.21518e+07 -2.81033e-08 8.06391e+07)
(2.05883e+08 -1.44693e+07 4.13391e-08 9.29469e+06 4.0513e-09 8.05392e+07)
(2.06947e+08 -9.92038e+06 -6.8922e-08 8.12075e+06 -4.56322e-08 8.0562e+07)
(2.06758e+08 -5.51646e+06 -4.70989e-08 5.81921e+06 -2.88919e-08 7.95351e+07)
(2.06955e+08 -892022 -4.37738e-08 4.9761e+06 -2.83278e-08 7.87916e+07)
(2.0617e+08 3.362e+06 2.15454e-08 3.03992e+06 1.05978e-08 7.72773e+07)
(2.05909e+08 7.80934e+06 6.06053e-08 2.59023e+06 3.89512e-08 7.62562e+07)
(2.0487e+08 1.16452e+07 -3.73267e-08 1.08784e+06 -2.76577e-08 7.4594e+07)
(1.3203e+08 -4.2075e+07 -2.86949e-08 1.7129e+07 3.09001e-08 9.15632e+07)
(1.40043e+08 -4.76373e+07 3.64092e-09 2.06363e+07 -3.78968e-09 9.02182e+07)
(1.53478e+08 -5.22109e+07 -3.42395e-08 2.84562e+07 2.78748e-08 9.0346e+07)
(1.60084e+08 -5.43289e+07 1.66603e-08 3.01113e+07 -3.04471e-10 8.31165e+07)
(1.68399e+08 -5.39722e+07 -2.27498e-08 3.24534e+07 1.3509e-09 7.58984e+07)
(1.72331e+08 -5.12149e+07 -6.48538e-08 2.82834e+07 9.76144e-09 6.8136e+07)
(1.78002e+08 -4.55662e+07 -5.53425e-09 2.46912e+07 -4.06273e-08 6.40647e+07)
(1.81755e+08 -4.02486e+07 -2.70491e-08 1.82486e+07 -2.18364e-08 6.22884e+07)
(1.86067e+08 -3.51173e+07 -7.64984e-09 1.48744e+07 -4.22895e-08 6.33021e+07)
(1.88879e+08 -3.10833e+07 6.85641e-08 1.02956e+07 2.43854e-08 6.45834e+07)
(1.91853e+08 -2.72054e+07 2.39934e-08 8.32076e+06 2.01515e-08 6.66595e+07)
(1.93604e+08 -2.35623e+07 4.48262e-14 4.93568e+06 7.86571e-15 6.78286e+07)
(1.95622e+08 -1.95352e+07 -5.64497e-08 3.31173e+06 -2.61375e-08 6.91675e+07)
(1.96228e+08 -1.57065e+07 9.21762e-09 384485 -1.04531e-08 6.94156e+07)
(1.97113e+08 -1.13098e+07 2.94154e-08 -1.02606e+06 8.60675e-09 6.98117e+07)
(1.9676e+08 -7.25885e+06 -4.73822e-08 -3.53787e+06 -2.70513e-08 6.93238e+07)
(1.9705e+08 -2.93946e+06 -2.3328e-14 -4.50225e+06 -8.4955e-15 6.92951e+07)
(1.9633e+08 800264 -5.80769e-08 -6.43975e+06 -5.31457e-08 6.85379e+07)
(1.96287e+08 4.84923e+06 -2.77526e-09 -6.8422e+06 8.07739e-09 6.82744e+07)
(1.95497e+08 8.15739e+06 -5.16982e-08 -8.29536e+06 -3.63752e-08 6.72383e+07)
(1.35487e+08 -4.89971e+07 -1.87205e-08 2.22137e+07 1.74135e-08 8.55844e+07)
(1.41154e+08 -5.25602e+07 8.10364e-09 2.32173e+07 1.85556e-08 7.78442e+07)
(1.51124e+08 -5.62412e+07 -2.9001e-08 3.10524e+07 -8.4572e-09 7.21293e+07)
(1.55483e+08 -5.60701e+07 -9.05151e-08 2.75883e+07 -2.36509e-09 6.27479e+07)
(1.61922e+08 -5.19024e+07 7.9793e-08 2.52557e+07 1.81175e-08 5.68803e+07)
(1.62286e+08 -4.65661e+07 1.30406e-07 1.69886e+07 -3.38609e-08 5.37825e+07)
(1.64786e+08 -4.16672e+07 -2.4521e-09 1.35933e+07 -4.92033e-08 5.35139e+07)
(1.70178e+08 -3.81308e+07 -2.66785e-08 8.5726e+06 -2.26108e-08 5.36252e+07)
(1.76088e+08 -3.46408e+07 -9.70929e-08 7.24836e+06 -4.38311e-08 5.50009e+07)
(1.81016e+08 -3.11506e+07 -8.63536e-08 3.62154e+06 -1.0116e-09 5.55276e+07)
(1.84434e+08 -2.70924e+07 3.99539e-08 2.13812e+06 1.41842e-09 5.69121e+07)
(1.85633e+08 -2.30728e+07 5.06263e-08 -1.58911e+06 4.13736e-08 5.73446e+07)
(1.87377e+08 -1.89778e+07 -3.96003e-14 -3.33598e+06 -4.35875e-15 5.83821e+07)
(1.87422e+08 -1.54619e+07 3.25516e-08 -6.54086e+06 4.8132e-09 5.8498e+07)
(1.87954e+08 -1.17734e+07 -7.17208e-09 -8.0462e+06 1.4239e-08 5.9042e+07)
(1.8772e+08 -8.50878e+06 1.56931e-08 -1.06429e+07 3.18817e-08 5.90834e+07)
(1.88126e+08 -4.86572e+06 4.71215e-08 -1.18402e+07 2.53282e-08 5.9506e+07)
(1.8761e+08 -1.82562e+06 4.12177e-08 -1.38127e+07 3.68394e-08 5.92583e+07)
(1.87717e+08 1.80597e+06 -4.00182e-08 -1.46119e+07 -3.65404e-08 5.92932e+07)
(1.871e+08 4.64878e+06 2.17614e-08 -1.60998e+07 7.41024e-09 5.86496e+07)
(1.36505e+08 -5.4868e+07 -4.50006e-08 2.66493e+07 9.71148e-10 7.14748e+07)
(1.39978e+08 -5.63227e+07 -3.8081e-08 2.54708e+07 -1.75549e-09 5.97116e+07)
(1.49428e+08 -5.68899e+07 0 2.99572e+07 0 5.48402e+07)
(1.47582e+08 -5.08426e+07 -5.1893e-08 1.94372e+07 6.61332e-09 5.01059e+07)
(1.50288e+08 -4.62546e+07 -1.09811e-07 1.74592e+07 -4.12789e-08 5.03241e+07)
(1.5523e+08 -4.29059e+07 2.02725e-08 1.06482e+07 -2.78671e-08 4.97633e+07)
(1.59337e+08 -4.02539e+07 7.50769e-08 1.03064e+07 1.8694e-08 5.0893e+07)
(1.62397e+08 -3.74381e+07 5.58135e-08 5.48811e+06 4.48869e-08 5.03656e+07)
(1.6601e+08 -3.3696e+07 8.11008e-08 4.34985e+06 6.65341e-08 5.11081e+07)
(1.69015e+08 -3.00423e+07 -3.99239e-08 -382899 1.35297e-09 5.05897e+07)
(1.73055e+08 -2.57954e+07 -7.64677e-08 -1.97761e+06 1.57148e-09 5.13231e+07)
(1.7569e+08 -2.21236e+07 -1.39708e-09 -6.12127e+06 -7.25501e-12 5.08706e+07)
(1.79e+08 -1.83165e+07 3.404e-08 -7.45979e+06 5.65412e-10 5.1462e+07)
(1.80984e+08 -1.50307e+07 2.41381e-08 -1.08443e+07 2.08941e-08 5.1114e+07)
(1.81944e+08 -1.13864e+07 1.73225e-08 -1.21889e+07 3.8799e-08 5.17085e+07)
(1.81329e+08 -8.25913e+06 -2.80439e-08 -1.50851e+07 -3.0121e-09 5.14906e+07)
(1.8157e+08 -4.98262e+06 -4.54925e-10 -1.6301e+07 -6.0291e-11 5.1775e+07)
(1.80595e+08 -2.36701e+06 9.33488e-08 -1.85105e+07 3.0803e-08 5.13417e+07)
(1.80332e+08 677548 4.45477e-08 -1.95378e+07 2.32017e-08 5.13068e+07)
(1.79794e+08 2.88291e+06 -3.62925e-09 -2.10931e+07 2.8734e-08 5.09287e+07)
(1.36012e+08 -5.96917e+07 -6.24116e-08 2.93711e+07 2.59382e-08 5.57484e+07)
(1.3491e+08 -5.59262e+07 -5.79634e-08 2.51691e+07 1.09864e-08 4.80237e+07)
(1.38536e+08 -5.22831e+07 8.09075e-09 2.42771e+07 5.80708e-08 4.88438e+07)
(1.40496e+08 -4.66032e+07 2.79529e-08 1.55106e+07 2.45124e-08 4.68019e+07)
(1.45435e+08 -4.49852e+07 1.00548e-07 1.69016e+07 -1.68986e-08 4.87009e+07)
(1.47577e+08 -4.07665e+07 1.04087e-09 1.00447e+07 -1.55026e-10 4.72865e+07)
(1.51283e+08 -3.74033e+07 -3.38884e-08 9.7614e+06 5.94274e-08 4.83133e+07)
(1.54835e+08 -3.39666e+07 -5.98821e-08 3.40791e+06 3.3551e-08 4.74729e+07)
(1.58597e+08 -3.07249e+07 6.66895e-08 2.19222e+06 1.78423e-08 4.82369e+07)
(1.61789e+08 -2.76667e+07 6.49346e-08 -3.15821e+06 1.87261e-08 4.75892e+07)
(1.64638e+08 -2.42746e+07 6.30661e-08 -4.59874e+06 1.87995e-08 4.80119e+07)
(1.66706e+08 -2.09578e+07 -5.00764e-08 -9.0103e+06 -4.30674e-08 4.73086e+07)
(1.6901e+08 -1.75104e+07 -3.26297e-08 -1.03651e+07 1.54313e-09 4.75934e+07)
(1.70958e+08 -1.42742e+07 -5.50497e-08 -1.39651e+07 -2.01841e-08 4.70977e+07)
(1.73428e+08 -1.09715e+07 -2.44565e-08 -1.51741e+07 -2.05408e-08 4.74763e+07)
(1.74337e+08 -8.03557e+06 -4.26447e-08 -1.80548e+07 -6.07056e-08 4.68848e+07)
(1.7558e+08 -5.04576e+06 -4.52123e-08 -1.91004e+07 -4.0259e-08 4.69438e+07)
(1.75746e+08 -2.54991e+06 -2.3948e-08 -2.13134e+07 -8.19077e-10 4.63943e+07)
(1.75725e+08 193711 1.91978e-08 -2.22633e+07 3.79264e-08 4.64128e+07)
(1.75127e+08 2.20333e+06 3.74495e-08 -2.38122e+07 1.1854e-08 4.60492e+07)
(1.29606e+08 -6.01435e+07 7.59361e-08 2.88273e+07 2.3665e-08 4.753e+07)
(1.27435e+08 -5.32332e+07 -1.08377e-07 2.56258e+07 2.65286e-08 4.59184e+07)
(1.32439e+08 -5.06803e+07 -5.4462e-08 2.24971e+07 1.25738e-08 4.64807e+07)
(1.32681e+08 -4.46614e+07 2.05713e-08 1.7507e+07 -3.62251e-08 4.50563e+07)
(1.36487e+08 -4.18847e+07 2.87562e-08 1.53137e+07 2.38403e-08 4.55401e+07)
(1.39772e+08 -3.70544e+07 1.21975e-08 9.02177e+06 5.71886e-08 4.46383e+07)
(1.43455e+08 -3.46732e+07 2.66788e-08 7.23005e+06 2.34947e-08 4.52054e+07)
(1.4695e+08 -3.08032e+07 1.36846e-08 1.51992e+06 -3.074e-08 4.4541e+07)
(1.50508e+08 -2.81859e+07 -5.39444e-08 -261379 -4.51948e-08 4.50741e+07)
(1.53735e+08 -2.47532e+07 -6.34276e-08 -5.30642e+06 -1.65936e-08 4.45286e+07)
(1.57074e+08 -2.19873e+07 3.39968e-08 -7.1058e+06 -4.96822e-09 4.49905e+07)
(1.59624e+08 -1.89619e+07 5.84032e-08 -1.13235e+07 1.75916e-08 4.44902e+07)
(1.62233e+08 -1.62551e+07 5.0282e-08 -1.28664e+07 4.26343e-08 4.48101e+07)
(1.63928e+08 -1.35189e+07 2.97508e-08 -1.62703e+07 -2.84288e-09 4.42974e+07)
(1.65677e+08 -1.06467e+07 4.56491e-09 -1.763e+07 -2.32116e-08 4.44142e+07)
(1.66583e+08 -7.86471e+06 2.4307e-08 -2.04116e+07 2.0399e-08 4.38515e+07)
(1.67861e+08 -5.14502e+06 -4.99828e-08 -2.14455e+07 2.47562e-08 4.39246e+07)
(1.68499e+08 -2.73545e+06 2.10061e-08 -2.34829e+07 4.09264e-08 4.35049e+07)
(1.69527e+08 -245500 2.20804e-08 -2.42337e+07 -9.46077e-10 4.35879e+07)
(1.69445e+08 1.78528e+06 -5.83004e-08 -2.56181e+07 -2.94569e-08 4.3148e+07)
(1.18774e+08 -5.83263e+07 1.01305e-07 3.03559e+07 -4.77185e-09 4.47389e+07)
(1.19073e+08 -5.2087e+07 4.0841e-08 2.70039e+07 -8.15689e-08 4.38231e+07)
(1.22582e+08 -4.68964e+07 -2.94275e-08 2.16656e+07 -2.51189e-08 4.32741e+07)
(1.24784e+08 -4.13165e+07 -7.88616e-08 1.62726e+07 -1.01686e-08 4.23169e+07)
(1.29184e+08 -3.85393e+07 -4.57574e-08 1.27065e+07 1.31185e-08 4.2567e+07)
(1.32009e+08 -3.41145e+07 -9.4973e-10 7.16589e+06 2.64043e-10 4.17524e+07)
(1.36197e+08 -3.16176e+07 -1.53421e-08 4.48878e+06 -5.80128e-08 4.22058e+07)
(1.39361e+08 -2.80794e+07 9.48362e-08 -773785 3.64411e-08 4.15762e+07)
(1.43167e+08 -2.5603e+07 6.50288e-08 -2.9625e+06 1.34778e-08 4.20613e+07)
(1.46157e+08 -2.25802e+07 -3.40182e-08 -7.61972e+06 7.76311e-09 4.15611e+07)
(1.49429e+08 -2.00324e+07 -3.2224e-08 -9.42216e+06 7.10919e-09 4.20019e+07)
(1.51975e+08 -1.72457e+07 -1.11794e-08 -1.33732e+07 5.62338e-08 4.15805e+07)
(1.54754e+08 -1.4708e+07 -1.11327e-09 -1.48523e+07 2.18952e-10 4.19705e+07)
(1.56815e+08 -1.21627e+07 3.00153e-08 -1.80971e+07 -3.09496e-08 4.16153e+07)
(1.59114e+08 -9.74681e+06 -2.48519e-09 -1.92695e+07 2.53735e-08 4.19534e+07)
(1.60445e+08 -7.46185e+06 4.43211e-08 -2.17041e+07 6.56505e-08 4.16223e+07)
(1.62029e+08 -5.17766e+06 -1.17755e-09 -2.24705e+07 2.39821e-08 4.18676e+07)
(1.62686e+08 -3.13912e+06 -4.49802e-08 -2.41561e+07 -3.97196e-08 4.1559e+07)
(1.63702e+08 -899163 4.13425e-08 -2.46515e+07 -6.33139e-09 4.17152e+07)
(1.63918e+08 861794 4.12363e-08 -2.5613e+07 1.62763e-08 4.14915e+07)
(1.05388e+08 -5.59112e+07 1.64558e-07 3.19751e+07 -1.16063e-07 4.12088e+07)
(1.07748e+08 -4.89754e+07 5.66288e-08 2.56858e+07 -2.07367e-08 4.003e+07)
(1.12983e+08 -4.38108e+07 -6.78818e-08 1.99001e+07 6.07695e-08 3.98648e+07)
(1.15557e+08 -3.87847e+07 1.07161e-09 1.43296e+07 -3.8697e-10 3.89661e+07)
(1.2048e+08 -3.5399e+07 -1.04272e-07 1.01005e+07 -3.26951e-08 3.91743e+07)
(1.23778e+08 -3.14904e+07 1.29189e-08 4.67365e+06 -3.85478e-08 3.85355e+07)
(1.28162e+08 -2.89383e+07 -1.06156e-07 1.56425e+06 2.71465e-09 3.89178e+07)
(1.31586e+08 -2.57593e+07 -7.52498e-08 -3.39459e+06 2.45132e-08 3.84573e+07)
(1.35461e+08 -2.35024e+07 1.23127e-07 -5.77387e+06 2.36685e-08 3.89063e+07)
(1.3862e+08 -2.07842e+07 5.2905e-08 -1.00887e+07 4.49861e-08 3.85593e+07)
(1.41989e+08 -1.86182e+07 -5.78233e-08 -1.19285e+07 -1.25372e-08 3.90183e+07)
(1.44646e+08 -1.62108e+07 7.9816e-08 -1.55115e+07 3.51397e-08 3.87403e+07)
(1.47456e+08 -1.40739e+07 -1.62144e-08 -1.68618e+07 -1.08249e-07 3.91783e+07)
(1.49535e+08 -1.18695e+07 -7.22997e-08 -1.97185e+07 -6.2955e-08 3.89451e+07)
(1.51821e+08 -9.74194e+06 -1.21151e-07 -2.06318e+07 -2.15062e-08 3.93567e+07)
(1.53358e+08 -7.68723e+06 -2.25761e-14 -2.28096e+07 5.80443e-15 3.91644e+07)
(1.55214e+08 -5.6725e+06 -1.47921e-09 -2.33116e+07 -5.10248e-08 3.95708e+07)
(1.56252e+08 -3.85992e+06 -4.32908e-08 -2.48008e+07 -3.93437e-08 3.94354e+07)
(1.57764e+08 -2.03496e+06 -8.19409e-08 -2.49199e+07 -2.83605e-08 3.98533e+07)
(1.58363e+08 -584345 8.96957e-08 -2.56156e+07 2.50904e-08 3.98242e+07)
(9.09619e+07 -5.17297e+07 -7.33408e-08 3.13281e+07 1.80458e-08 3.6687e+07)
(9.59065e+07 -4.557e+07 4.36694e-08 2.40978e+07 9.86973e-08 3.60013e+07)
(1.01798e+08 -4.03319e+07 3.19924e-08 1.75593e+07 2.47509e-08 3.58071e+07)
(1.06203e+08 -3.58069e+07 8.88515e-08 1.14736e+07 -3.81011e-08 3.53029e+07)
(1.1145e+08 -3.25684e+07 1.89573e-09 6.75013e+06 -8.00892e-10 3.54599e+07)
(1.15507e+08 -2.90646e+07 -1.01265e-08 1.45167e+06 4.03737e-08 3.50876e+07)
(1.20135e+08 -2.6699e+07 2.87611e-08 -2.00817e+06 2.34334e-08 3.5438e+07)
(1.2385e+08 -2.39011e+07 -1.24667e-07 -6.60743e+06 -1.88049e-08 3.51728e+07)
(1.27882e+08 -2.18741e+07 -6.04766e-08 -9.16033e+06 -9.63274e-09 3.56166e+07)
(1.31169e+08 -1.95451e+07 6.14945e-08 -1.30628e+07 -2.34937e-08 3.54318e+07)
(1.34628e+08 -1.76354e+07 -8.04693e-08 -1.49131e+07 -3.29713e-08 3.59143e+07)
(1.37414e+08 -1.56152e+07 2.70362e-08 -1.81246e+07 -9.91101e-09 3.57868e+07)
(1.40338e+08 -1.37701e+07 1.80933e-07 -1.9389e+07 -5.7668e-09 3.62847e+07)
(1.42581e+08 -1.1985e+07 4.92213e-08 -2.19204e+07 4.10972e-08 3.61982e+07)
(1.4501e+08 -1.02157e+07 -9.15685e-08 -2.26627e+07 3.26105e-08 3.67043e+07)
(1.46675e+08 -8.62716e+06 -4.50902e-08 -2.45175e+07 -1.22143e-08 3.66471e+07)
(1.4866e+08 -6.95724e+06 -1.72409e-09 -2.47816e+07 -2.68787e-08 3.71635e+07)
(1.49777e+08 -5.54835e+06 2.18157e-08 -2.59928e+07 1.92227e-08 3.71351e+07)
(1.51448e+08 -4.0253e+06 3.15471e-10 -2.58591e+07 -1.13745e-10 3.76765e+07)
(1.52157e+08 -2.84795e+06 -5.30683e-08 -2.64376e+07 8.45009e-10 3.7716e+07)
(7.61277e+07 -4.63898e+07 2.10941e-08 2.99613e+07 9.35942e-09 3.18267e+07)
(8.29856e+07 -4.0964e+07 -8.26636e-08 2.16829e+07 4.44136e-10 3.14006e+07)
(9.03156e+07 -3.65205e+07 4.5221e-08 1.47583e+07 -2.28188e-08 3.15222e+07)
(9.57122e+07 -3.26567e+07 1.33116e-08 8.38636e+06 -4.66283e-08 3.12296e+07)
(1.01809e+08 -2.96985e+07 7.91703e-09 3.40311e+06 1.13165e-07 3.15638e+07)
(1.06448e+08 -2.68123e+07 -3.01807e-08 -1.81581e+06 -2.32967e-08 3.13896e+07)
(1.1156e+08 -2.46392e+07 5.99503e-09 -5.39151e+06 -4.00623e-08 3.18505e+07)
(1.15613e+08 -2.23756e+07 0 -9.72538e+06 0 3.17663e+07)
(1.19936e+08 -2.0577e+07 -5.39829e-08 -1.22743e+07 -4.49749e-08 3.22984e+07)
(1.23416e+08 -1.87133e+07 3.22787e-09 -1.58324e+07 -3.57953e-08 3.22751e+07)
(1.27085e+08 -1.70825e+07 5.05437e-08 -1.75944e+07 7.70325e-08 3.28472e+07)
(1.29984e+08 -1.54821e+07 -1.53502e-07 -2.04465e+07 -2.80289e-08 3.28612e+07)
(1.33093e+08 -1.39365e+07 4.73558e-08 -2.15612e+07 1.03269e-08 3.34597e+07)
(1.35427e+08 -1.25193e+07 1.17337e-07 -2.37766e+07 4.04828e-08 3.34952e+07)
(1.38061e+08 -1.10496e+07 4.65323e-08 -2.43334e+07 3.97421e-08 3.41183e+07)
(1.39868e+08 -9.78035e+06 2.074e-08 -2.59762e+07 -9.25381e-09 3.41674e+07)
(1.42109e+08 -8.42432e+06 2.25535e-08 -2.60414e+07 1.88645e-08 3.48204e+07)
(1.43426e+08 -7.3021e+06 -1.81558e-08 -2.71526e+07 8.21547e-09 3.48819e+07)
(1.45373e+08 -6.10621e+06 2.56142e-08 -2.6804e+07 4.41811e-08 3.55707e+07)
(1.46262e+08 -5.15818e+06 4.38867e-09 -2.73743e+07 2.55072e-08 3.56664e+07)
(6.18665e+07 -4.00453e+07 5.02006e-08 2.70927e+07 -3.35933e-08 2.66878e+07)
(7.04741e+07 -3.58934e+07 1.1595e-09 1.84011e+07 -6.77715e-10 2.66625e+07)
(7.87282e+07 -3.23544e+07 1.04619e-09 1.10568e+07 -6.08729e-10 2.69355e+07)
(8.54343e+07 -2.93622e+07 8.14634e-08 4.51647e+06 1.20876e-07 2.69852e+07)
(9.19984e+07 -2.6998e+07 -3.08425e-08 -677585 -2.33307e-08 2.73962e+07)
(9.7464e+07 -2.47435e+07 1.09309e-07 -5.78819e+06 -6.20844e-08 2.75027e+07)
(1.02834e+08 -2.3019e+07 -3.2173e-08 -9.47039e+06 1.81151e-08 2.8009e+07)
(1.07382e+08 -2.1258e+07 -3.14288e-08 -1.35251e+07 1.74894e-08 2.81571e+07)
(1.1185e+08 -1.98335e+07 -5.38362e-08 -1.61036e+07 -4.42676e-08 2.87239e+07)
(1.15643e+08 -1.84089e+07 -8.291e-08 -1.93125e+07 4.52461e-08 2.88992e+07)
(1.19393e+08 -1.71062e+07 5.03835e-08 -2.10394e+07 7.69754e-09 2.95061e+07)
(1.22522e+08 -1.59184e+07 2.34066e-08 -2.35379e+07 -8.09209e-08 2.96953e+07)
(1.25686e+08 -1.46655e+07 -7.10824e-08 -2.45676e+07 -2.84475e-08 3.03355e+07)
(1.28208e+08 -1.36575e+07 2.59171e-09 -2.64524e+07 3.11329e-08 3.05268e+07)
(1.30898e+08 -1.24442e+07 3.29505e-09 -2.68845e+07 3.01162e-08 3.12041e+07)
(1.32854e+08 -1.15789e+07 -2.33677e-08 -2.82289e+07 -1.8529e-08 3.13874e+07)
(1.35186e+08 -1.04397e+07 1.76736e-08 -2.81401e+07 -9.68287e-09 3.21137e+07)
(1.36613e+08 -9.66674e+06 4.90782e-09 -2.90128e+07 2.71775e-08 3.228e+07)
(1.38714e+08 -8.69462e+06 -5.91592e-08 -2.84675e+07 -2.56806e-08 3.30739e+07)
(1.39631e+08 -7.96053e+06 -2.09547e-08 -2.89353e+07 -1.70703e-08 3.32088e+07)
(4.80633e+07 -3.27192e+07 -1.94413e-08 2.30148e+07 -9.70243e-09 2.13235e+07)
(5.79533e+07 -2.99751e+07 -4.69445e-08 1.41984e+07 3.14511e-08 2.16455e+07)
(6.72081e+07 -2.76393e+07 -6.59771e-08 6.87187e+06 1.338e-07 2.2224e+07)
(7.47701e+07 -2.56189e+07 1.05165e-07 395220 -2.56663e-08 2.25496e+07)
(8.20406e+07 -2.39867e+07 1.53198e-08 -4.75494e+06 -9.59477e-08 2.31857e+07)
(8.80483e+07 -2.24735e+07 -6.5107e-09 -9.63689e+06 4.61085e-08 2.35234e+07)
(9.3913e+07 -2.12341e+07 5.86042e-08 -1.32372e+07 2.78967e-09 2.42027e+07)
(9.87839e+07 -2.00664e+07 5.91517e-08 -1.69545e+07 -3.80543e-08 2.45488e+07)
(1.03623e+08 -1.9013e+07 2.75529e-08 -1.94216e+07 2.10716e-08 2.52604e+07)
(1.07584e+08 -1.80785e+07 -7.81226e-08 -2.22345e+07 1.20099e-08 2.56049e+07)
(1.11656e+08 -1.70996e+07 -5.19529e-08 -2.38384e+07 -7.72916e-08 2.63454e+07)
(1.14846e+08 -1.63248e+07 2.5103e-08 -2.59251e+07 1.98975e-08 2.66763e+07)
(1.18333e+08 -1.53813e+07 -6.75719e-08 -2.68349e+07 7.9866e-09 2.74495e+07)
(1.20853e+08 -1.47193e+07 -4.43193e-08 -2.83371e+07 -6.00374e-09 2.77547e+07)
(1.2388e+08 -1.38212e+07 1.3858e-08 -2.86508e+07 -4.23087e-08 2.85688e+07)
(1.25828e+08 -1.3243e+07 3.59693e-08 -2.96995e+07 -2.29867e-08 2.88384e+07)
(1.28448e+08 -1.24165e+07 -3.28928e-08 -2.94479e+07 2.14558e-08 2.97e+07)
(1.29955e+08 -1.19154e+07 1.53467e-08 -3.01901e+07 -9.99926e-09 2.99296e+07)
(1.32293e+08 -1.12112e+07 -5.78899e-09 -2.94612e+07 -2.69363e-08 3.08496e+07)
(1.33279e+08 -1.06758e+07 -4.84281e-08 -3.00102e+07 2.3905e-09 3.09806e+07)
(3.56383e+07 -2.51433e+07 -1.72462e-08 1.77605e+07 -1.08633e-08 1.60196e+07)
(4.64699e+07 -2.39036e+07 -9.79805e-08 9.15008e+06 1.2249e-07 1.6686e+07)
(5.62645e+07 -2.28658e+07 -7.1301e-08 1.84409e+06 7.01027e-09 1.74326e+07)
(6.45991e+07 -2.19142e+07 2.42315e-08 -4.39525e+06 -1.55678e-07 1.80612e+07)
(7.2199e+07 -2.11947e+07 2.92081e-08 -9.50081e+06 2.29672e-08 1.88095e+07)
(7.87812e+07 -2.04515e+07 -5.64457e-08 -1.40767e+07 -4.54159e-08 1.94114e+07)
(8.48359e+07 -1.99013e+07 6.40826e-10 -1.76262e+07 -4.70869e-10 2.01629e+07)
(9.01211e+07 -1.93021e+07 -5.50921e-08 -2.0984e+07 -1.09253e-09 2.07411e+07)
(9.50554e+07 -1.88079e+07 1.05078e-07 -2.34051e+07 4.43271e-08 2.14951e+07)
(9.9333e+07 -1.83068e+07 2.47415e-08 -2.58402e+07 -1.78795e-08 2.20478e+07)
(1.03429e+08 -1.78048e+07 -2.22779e-08 -2.74094e+07 1.60956e-08 2.2806e+07)
(1.06895e+08 -1.73775e+07 9.55101e-08 -2.91326e+07 4.25974e-08 2.33287e+07)
(1.10352e+08 -1.68398e+07 -3.616e-09 -3.00269e+07 -3.3662e-08 2.40974e+07)
(1.13141e+08 -1.64925e+07 -4.17177e-08 -3.11922e+07 -5.21917e-09 2.45845e+07)
(1.16114e+08 -1.59048e+07 -1.03986e-07 -3.15327e+07 -2.80458e-08 2.53745e+07)
(1.18304e+08 -1.56994e+07 -1.70813e-08 -3.22288e+07 1.23999e-08 2.58225e+07)
(1.20952e+08 -1.50273e+07 5.93954e-08 -3.21285e+07 2.23014e-08 2.66472e+07)
(1.22523e+08 -1.4862e+07 -6.44492e-08 -3.25894e+07 -4.90508e-08 2.69801e+07)
(1.25051e+08 -1.42829e+07 4.17274e-08 -3.1932e+07 3.21061e-08 2.79357e+07)
(1.25696e+08 -1.40682e+07 8.5108e-08 -3.2268e+07 2.15169e-08 2.80285e+07)
(2.41692e+07 -1.69409e+07 -6.88308e-08 1.11222e+07 8.90868e-08 1.05874e+07)
(3.56203e+07 -1.72832e+07 -1.23797e-08 3.00978e+06 6.06703e-08 1.1589e+07)
(4.59159e+07 -1.75881e+07 -4.97861e-08 -3.85161e+06 -1.04038e-07 1.26193e+07)
(5.47444e+07 -1.77478e+07 2.91372e-08 -9.65907e+06 2.29858e-08 1.35256e+07)
(6.27511e+07 -1.79482e+07 3.13421e-08 -1.44231e+07 -2.64516e-08 1.44984e+07)
(6.96942e+07 -1.80136e+07 6.54185e-10 -1.85737e+07 -5.48506e-10 1.53362e+07)
(7.60801e+07 -1.8111e+07 -2.80962e-08 -2.18454e+07 -2.07769e-08 1.62704e+07)