/*--------------------------------*- C++ -*----------------------------------*\
| =========                 |                                                 |
| \\      /  F ield         | OpenFOAM: The Open Source CFD Toolbox           |
|  \\    /   O peration     | Version:  v2012                                 |
|   \\  /    A nd           | Website:  www.openfoam.com                      |
|    \\/     M anipulation  |                                                 |
\*---------------------------------------------------------------------------*/
FoamFile
{
    version     2.0;
    format      ascii;
    class       volSymmTensorField;
    location    "20";
    object      epsilon;
}
// * * * * * * * * * * * * * * * * * * * * * * * * * * * * * * * * * * * * * //

dimensions      [0 0 0 0 0 0 0];


internalField   nonuniform List<symmTensor> 
500
(
(0.00397207 -0.00124184 -2.1684e-19 -0.00553049 1.87025e-18 0)
(0.0040403 -0.000909094 5.42101e-19 -0.00473592 -1.89735e-19 0)
(0.00403282 -0.000951512 5.96311e-19 -0.00460625 1.13841e-18 0)
(0.00322817 -0.00102522 -1.0842e-19 -0.00298153 -2.1684e-19 0)
(0.00332415 -0.000418739 -4.87891e-19 -0.00306414 6.50521e-19 0)
(0.00223939 -0.000835402 -7.58942e-19 -0.00152527 3.25261e-19 0)
(0.00237902 4.70763e-05 0 -0.00164276 4.87891e-19 0)
(0.0014773 -0.000496008 -2.1684e-19 -0.00077567 2.1684e-19 0)
(0.00160171 0.000296192 0 -0.0007297 5.96311e-19 0)
(0.000964905 -0.00020722 0 -0.000388254 0 0)
(0.00287719 -0.00188975 -3.25261e-19 -0.0043961 -7.58942e-19 0)
(0.0019747 -0.00118611 4.33681e-19 -0.00204971 0 0)
(0.00188508 -0.00146387 1.0842e-18 -0.00280888 -5.96311e-19 0)
(0.00100205 -0.000881917 2.1684e-19 -0.000477357 -3.79471e-19 0)
(0.0010934 -0.0008148 -8.67362e-19 -0.00150305 1.6263e-19 0)
(0.000710391 -0.000540393 1.0842e-19 -0.000331925 1.0842e-19 0)
(0.000845171 -0.000317832 -1.6263e-19 -0.000816253 5.42101e-20 0)
(0.000619614 -0.000291189 4.33681e-19 -0.000398367 -3.25261e-19 0)
(0.000764692 4.71641e-06 -1.0842e-19 -0.000450366 5.42101e-20 0)
(0.000554934 -0.000117019 1.0842e-19 -0.000406467 -1.0842e-19 0)
(0.00048375 -0.00128279 -6.50521e-19 -0.00182948 4.33681e-19 0)
(-0.000318511 -0.00013234 2.1684e-19 0.000295809 -2.71051e-19 0)
(-0.00061248 -0.000644035 9.75782e-19 -0.000461492 -3.25261e-19 0)
(-0.000206277 -0.000148859 -2.1684e-19 7.00575e-05 0 0)
(-0.000432513 -0.000487352 6.50521e-19 -0.000245734 -4.06576e-19 0)
(7.47932e-06 -0.000211683 1.0842e-19 -9.61522e-05 -1.0842e-19 0)
(-9.07793e-05 -0.000367129 3.25261e-19 -0.00027402 -1.89735e-19 0)
(0.000159563 -0.000215124 -1.0842e-19 -0.000204662 -5.42101e-20 0)
(0.000158619 -0.000233692 -1.0842e-19 -0.000288808 -1.35525e-19 0)
(0.000245532 -0.000180671 3.25261e-19 -0.000267125 -1.0842e-19 0)
(-0.00096608 0.000203773 2.1684e-19 0.000121412 -4.87891e-19 0)
(-0.000384962 0.000288031 -2.1684e-19 5.33543e-05 0 0)
(-0.000816832 -4.35416e-05 4.33681e-19 0.000121244 -2.43945e-19 0)
(-0.000281985 5.99758e-05 2.1684e-19 6.64218e-05 -1.0842e-19 0)
(-0.000579381 -0.000191964 4.33681e-19 3.61116e-05 -2.43945e-19 0)
(-0.000161711 -7.45786e-05 0 2.2746e-05 -8.13152e-20 0)
(-0.00034911 -0.000246805 1.0842e-19 -4.03184e-05 1.35525e-20 0)
(-5.4523e-05 -0.000143865 -3.25261e-19 -3.21833e-05 5.42101e-20 0)
(-0.000156611 -0.000246579 -5.42101e-20 -9.55585e-05 0 0)
(2.49827e-05 -0.000170681 2.1684e-19 -7.78798e-05 -2.71051e-20 0)
(-0.000499248 0.000362453 0 5.54059e-06 -5.42101e-20 0)
(-0.000201038 0.00029927 1.0842e-19 -6.90157e-05 -2.71051e-20 0)
(-0.000539262 0.000156933 1.0842e-19 6.13413e-05 -5.42101e-20 0)
(-0.000195754 0.000150108 -1.0842e-19 7.77705e-06 0 0)
(-0.00046979 1.18736e-05 -2.1684e-19 5.97473e-05 8.13152e-20 0)
(-0.000152308 4.00719e-05 -1.0842e-19 2.839e-05 4.06576e-20 0)
(-0.000361533 -7.92006e-05 -1.0842e-19 3.5914e-05 2.71051e-20 0)
(-9.15069e-05 -3.5012e-05 1.0842e-19 2.07736e-05 -2.71051e-20 0)
(-0.000249897 -0.000131942 -3.25261e-19 1.09283e-05 5.42101e-20 0)
(-2.31223e-05 -8.60816e-05 5.42101e-20 2.16302e-06 -4.06576e-20 0)
(-0.00024813 0.000336239 -1.0842e-19 -9.5862e-05 2.71051e-20 0)
(-9.47922e-05 0.000249453 0 -0.000128492 0 0)
(-0.000332239 0.000222717 3.25261e-19 -9.55818e-07 -4.06576e-20 0)
(-0.00013891 0.000162601 -1.0842e-19 -3.37159e-05 2.71051e-20 0)
(-0.000343041 0.000124543 -1.0842e-19 5.018e-05 1.35525e-20 0)
(-0.00015225 8.43011e-05 -1.0842e-19 1.96756e-05 2.71051e-20 0)
(-0.000313548 4.83947e-05 1.0842e-19 7.60009e-05 0 0)
(-0.000146738 1.83846e-05 -1.0842e-19 4.7102e-05 0 0)
(-0.000265225 -8.09736e-06 5.42101e-20 8.82972e-05 -2.03288e-20 0)
(-0.000128828 -3.69938e-05 0 5.83096e-05 1.35525e-20 0)
(-8.89607e-05 0.000257634 -1.0842e-19 -0.00016206 2.71051e-20 0)
(-1.25396e-05 0.000181697 0 -0.00016292 2.71051e-20 0)
(-0.000178194 0.000204031 2.1684e-19 -7.33405e-05 -2.71051e-20 0)
(-6.24177e-05 0.00013723 -2.1684e-19 -7.96003e-05 1.35525e-20 0)
(-0.000218899 0.000142527 3.25261e-19 -1.43452e-05 -4.06576e-20 0)
(-9.07796e-05 8.80906e-05 -2.1684e-19 -2.38392e-05 1.35525e-20 0)
(-0.000227067 8.30773e-05 2.1684e-19 2.1196e-05 -2.71051e-20 0)
(-0.00010307 4.18191e-05 2.1684e-19 1.0578e-05 0 0)
(-0.000213476 2.91696e-05 -1.0842e-19 3.6535e-05 0 0)
(-0.000104136 3.89125e-06 -1.0842e-19 2.75011e-05 6.77626e-21 0)
(1.45052e-06 0.000175863 0 -0.00019391 1.35525e-20 0)
(3.59391e-05 0.000118308 3.25261e-19 -0.000177147 -2.71051e-20 0)
(-7.20237e-05 0.00015834 1.0842e-19 -0.00012546 0 0)
(-7.70547e-06 9.94324e-05 1.0842e-19 -0.000113021 6.77626e-21 0)
(-0.000117237 0.000126313 -2.1684e-19 -7.19601e-05 6.77626e-21 0)
(-3.98116e-05 7.26277e-05 1.0842e-19 -6.40867e-05 1.35525e-20 0)
(-0.000140742 8.97777e-05 -2.1684e-19 -3.25623e-05 2.03288e-20 0)
(-6.12271e-05 4.46504e-05 0 -2.84804e-05 1.35525e-20 0)
(-0.000148318 5.54278e-05 -1.0842e-19 -4.60958e-06 1.35525e-20 0)
(-7.42765e-05 1.883e-05 -2.1684e-19 -3.15736e-06 3.38813e-21 0)
(4.84995e-05 0.000103641 -1.0842e-19 -0.000205843 0 0)
(6.14914e-05 6.28374e-05 3.25261e-19 -0.000181155 -1.35525e-20 0)
(-5.45841e-06 0.000103263 2.1684e-19 -0.000157885 -3.38813e-21 0)
(2.33449e-05 5.45703e-05 -1.0842e-19 -0.000133218 -3.38813e-21 0)
(-4.62503e-05 9.03262e-05 3.25261e-19 -0.000112039 1.01644e-20 0)
(-8.78499e-06 4.19741e-05 0 -9.10659e-05 3.38813e-21 0)
(-7.4438e-05 7.21768e-05 -3.25261e-19 -7.27798e-05 3.38813e-20 0)
(-3.37898e-05 2.74879e-05 5.42101e-19 -5.60116e-05 -1.01644e-20 0)
(-9.23893e-05 5.27687e-05 5.42101e-20 -4.04953e-05 0 0)
(-5.19436e-05 1.21527e-05 0 -2.72363e-05 1.69407e-21 0)
(6.99043e-05 3.88013e-05 -1.0842e-19 -0.000213007 -3.38813e-21 0)
(6.1578e-05 6.66488e-06 2.1684e-19 -0.000178612 0 0)
(2.77134e-05 4.38935e-05 1.0842e-19 -0.000172543 -3.38813e-21 0)
(2.6159e-05 5.68513e-06 -1.0842e-19 -0.000137529 3.38813e-21 0)
(-8.16494e-06 4.32116e-05 0 -0.000131409 0 0)
(-6.19599e-06 3.92784e-06 1.0842e-19 -9.92949e-05 -1.69407e-21 0)
(-3.64932e-05 3.89978e-05 -1.0842e-19 -9.35871e-05 1.18585e-20 0)
(-3.33848e-05 2.14828e-06 -1.0842e-19 -6.61799e-05 0 0)
(-5.75362e-05 3.25015e-05 0 -6.12526e-05 -3.38813e-21 0)
(-5.45698e-05 6.82554e-07 -2.1684e-19 -3.94991e-05 1.69407e-21 0)
(-5.5137e-05 6.60235e-07 -1.0842e-19 -3.94991e-05 1.69407e-21 0)
(-7.4048e-05 1.61212e-05 2.1684e-19 2.06334e-05 1.69407e-21 0)
(-7.42084e-05 6.92988e-06 0 -2.84608e-05 2.11758e-21 0)
(-9.43378e-05 1.81936e-05 0 3.69094e-05 1.69407e-21 0)
(-9.47177e-05 5.38017e-06 -2.71051e-19 -1.07924e-05 7.6233e-21 0)
(-0.000118163 9.37583e-06 -2.1684e-19 5.94864e-05 -8.47033e-21 0)
(-0.000118985 -1.55705e-05 0 9.22464e-06 5.0822e-21 0)
(-0.000137028 -1.3138e-05 2.1684e-19 8.3444e-05 -1.69407e-21 0)
(-0.000138173 -6.15968e-05 5.42101e-20 2.30999e-05 2.11758e-22 0)
(-0.000141601 -4.87992e-05 1.0842e-19 0.000102893 -1.18585e-20 0)
(-8.24602e-05 -1.04587e-05 -2.1684e-19 1.68746e-05 4.23516e-22 0)
(-8.7257e-05 1.05216e-06 0 4.95997e-05 3.38813e-21 0)
(-8.75886e-05 -1.76205e-05 -1.0842e-19 2.09989e-05 2.5411e-21 0)
(-9.26376e-05 -7.69887e-06 0 5.57616e-05 0 0)
(-9.33586e-05 -3.1561e-05 5.42101e-20 2.54254e-05 1.69407e-21 0)
(-9.64436e-05 -2.12283e-05 -2.1684e-19 6.43334e-05 -1.35525e-20 0)
(-9.75517e-05 -5.4643e-05 -1.0842e-19 2.60496e-05 -1.69407e-21 0)
(-9.5062e-05 -3.95464e-05 0 7.29158e-05 -6.77626e-21 0)
(-9.62071e-05 -8.80012e-05 -5.42101e-20 1.7867e-05 0 0)
(-8.54512e-05 -6.21984e-05 -1.0842e-19 7.9503e-05 0 0)
(-8.81765e-05 -1.32398e-05 -2.1684e-19 4.77686e-05 8.47033e-22 0)
(-8.7132e-05 -6.59345e-06 0 6.16788e-05 0 0)
(-8.75243e-05 -2.85899e-05 -3.79471e-19 4.74234e-05 1.69407e-21 0)
(-8.51738e-05 -2.13112e-05 -4.33681e-19 6.23643e-05 0 0)
(-8.59755e-05 -4.77154e-05 3.79471e-19 4.55321e-05 1.69407e-21 0)
(-7.99886e-05 -3.73509e-05 0 6.31414e-05 6.77626e-21 0)
(-8.11155e-05 -7.1211e-05 -1.0842e-19 3.89426e-05 -2.03288e-20 0)
(-6.93856e-05 -5.41569e-05 2.1684e-19 6.26505e-05 0 0)
(-7.0452e-05 -9.92041e-05 1.6263e-19 2.42288e-05 -3.38813e-21 0)
(-5.19285e-05 -7.11257e-05 2.1684e-19 5.99802e-05 1.35525e-20 0)
(-8.20035e-05 -1.24935e-05 0 6.09929e-05 1.69407e-21 0)
(-7.91642e-05 -9.66071e-06 0 6.37502e-05 0 0)
(-7.95524e-05 -3.139e-05 5.42101e-20 5.87347e-05 6.77626e-21 0)
(-7.42962e-05 -2.67851e-05 -2.1684e-19 6.18945e-05 -6.77626e-21 0)
(-7.50571e-05 -5.17805e-05 -4.87891e-19 5.42909e-05 -6.77626e-21 0)
(-6.57982e-05 -4.34892e-05 -2.1684e-19 5.87887e-05 6.77626e-21 0)
(-6.68117e-05 -7.38712e-05 -5.42101e-20 4.55638e-05 -1.01644e-20 0)
(-5.2148e-05 -5.90929e-05 -2.1684e-19 5.364e-05 0 0)
(-5.3062e-05 -9.76474e-05 1.0842e-19 3.03008e-05 6.77626e-21 0)
(-3.22597e-05 -7.28949e-05 -1.0842e-19 4.58959e-05 6.77626e-21 0)
(-7.03876e-05 -1.06402e-05 -1.0842e-19 6.36328e-05 0 0)
(-6.73996e-05 -1.01527e-05 0 6.07607e-05 -3.38813e-21 0)
(-6.77536e-05 -2.99436e-05 0 6.08131e-05 1.69407e-21 0)
(-6.19389e-05 -2.73791e-05 2.1684e-19 5.79573e-05 -6.77626e-21 0)
(-6.26091e-05 -4.93604e-05 2.71051e-19 5.56406e-05 6.77626e-21 0)
(-5.30228e-05 -4.34011e-05 0 5.32322e-05 -6.77626e-21 0)
(-5.38733e-05 -6.88549e-05 1.0842e-19 4.68443e-05 0 0)
(-3.95761e-05 -5.74785e-05 0 4.61396e-05 1.35525e-20 0)
(-4.03078e-05 -8.83102e-05 -1.0842e-19 3.30185e-05 6.77626e-21 0)
(-2.06905e-05 -6.88565e-05 1.6263e-19 3.63404e-05 -3.38813e-21 0)
(-5.72098e-05 -8.70094e-06 -1.0842e-19 6.08633e-05 3.38813e-21 0)
(-5.46392e-05 -9.24013e-06 -1.0842e-19 5.61503e-05 0 0)
(-5.49498e-05 -2.65999e-05 -3.25261e-19 5.8043e-05 0 0)
(-4.96896e-05 -2.52392e-05 -2.1684e-19 5.31845e-05 -1.35525e-20 0)
(-5.02571e-05 -4.3841e-05 2.71051e-19 5.29261e-05 1.18585e-20 0)
(-4.1757e-05 -3.9732e-05 -4.33681e-19 4.80414e-05 -2.71051e-20 0)
(-4.244e-05 -6.0158e-05 -2.1684e-19 4.47972e-05 -6.77626e-21 0)
(-3.00965e-05 -5.1945e-05 -2.1684e-19 4.04995e-05 6.77626e-21 0)
(-3.06507e-05 -7.52826e-05 -5.42101e-20 3.28387e-05 6.77626e-21 0)
(-1.40316e-05 -6.11206e-05 -1.6263e-19 3.04302e-05 -3.38813e-21 0)
(-4.47628e-05 -7.04448e-06 -3.25261e-19 5.6286e-05 -1.69407e-21 0)
(-4.2765e-05 -7.54947e-06 0 5.2404e-05 1.69407e-21 0)
(-4.30344e-05 -2.26075e-05 1.6263e-19 5.3646e-05 1.27055e-20 0)
(-3.88034e-05 -2.16078e-05 1.0842e-19 4.96319e-05 3.38813e-21 0)
(-3.92755e-05 -3.70836e-05 -5.42101e-20 4.88619e-05 -1.01644e-20 0)
(-3.24505e-05 -3.40812e-05 2.1684e-19 4.45973e-05 6.77626e-21 0)
(-3.29843e-05 -5.00494e-05 -2.71051e-19 4.15603e-05 -3.38813e-21 0)
(-2.3197e-05 -4.42184e-05 -2.1684e-19 3.72375e-05 -6.77626e-21 0)
(-2.35983e-05 -6.11208e-05 -1.0842e-19 3.13344e-05 -3.38813e-21 0)
(-1.06258e-05 -5.13077e-05 0 2.76786e-05 -6.77626e-21 0)
(-3.44573e-05 -5.77669e-06 -2.1684e-19 5.24884e-05 -1.69407e-21 0)
(-3.31354e-05 -5.38532e-06 2.1684e-19 5.16005e-05 3.38813e-21 0)
(-3.33699e-05 -1.85061e-05 -1.0842e-19 5.00715e-05 -2.5411e-21 0)
(-3.03589e-05 -1.70157e-05 0 4.92135e-05 -3.38813e-21 0)
(-3.07501e-05 -2.98646e-05 -1.0842e-19 4.56363e-05 -6.77626e-21 0)
(-2.56974e-05 -2.70852e-05 1.0842e-19 4.42744e-05 6.77626e-21 0)
(-2.61101e-05 -3.94544e-05 -2.1684e-19 3.9013e-05 -6.77626e-21 0)
(-1.88414e-05 -3.50074e-05 1.0842e-19 3.69552e-05 1.35525e-20 0)
(-1.91232e-05 -4.68911e-05 -5.42101e-20 3.01194e-05 0 0)
(-9.67379e-06 -4.01469e-05 0 2.78562e-05 -3.38813e-21 0)
(-2.72832e-05 -4.95516e-06 -2.1684e-19 5.16135e-05 3.38813e-21 0)
(-2.71119e-05 -2.90674e-06 0 5.61763e-05 -6.77626e-21 0)
(-2.73148e-05 -1.4282e-05 1.6263e-19 4.94844e-05 3.38813e-21 0)
(-2.56266e-05 -1.12253e-05 -2.1684e-19 5.4404e-05 -6.77626e-21 0)
(-2.59509e-05 -2.19242e-05 -5.42101e-20 4.51484e-05 1.18585e-20 0)
(-2.21325e-05 -1.82176e-05 0 4.84085e-05 6.77626e-21 0)
(-2.24599e-05 -2.8077e-05 -1.0842e-19 3.86296e-05 0 0)
(-1.71069e-05 -2.38716e-05 0 4.01819e-05 6.77626e-21 0)
(-1.73061e-05 -3.23017e-05 0 3.03595e-05 -1.01644e-20 0)
(-1.06871e-05 -2.73259e-05 -2.1684e-19 3.05815e-05 -6.77626e-21 0)
(-2.40939e-05 -4.84188e-06 0 5.61427e-05 0 0)
(-2.76639e-05 -1.35083e-07 5.42101e-20 7.2128e-05 1.69407e-21 0)
(-2.78118e-05 -8.48416e-06 1.0842e-19 5.45464e-05 -3.38813e-21 0)
(-2.57847e-05 -2.10275e-06 -1.0842e-19 6.6872e-05 0 0)
(-2.60736e-05 -1.1709e-05 -1.0842e-19 4.89669e-05 -3.38813e-21 0)
(-2.23566e-05 -5.53564e-06 -2.1684e-19 5.85291e-05 -6.77626e-21 0)
(-2.26414e-05 -1.41867e-05 -1.0842e-19 4.13297e-05 -6.77626e-21 0)
(-1.78645e-05 -8.78869e-06 1.6263e-19 4.73021e-05 2.37169e-20 0)
(-1.80231e-05 -1.55448e-05 -3.25261e-19 3.23457e-05 -2.03288e-20 0)
(-1.28453e-05 -1.12242e-05 0 3.4378e-05 3.38813e-21 0)
(-0.000141601 -0.000198695 -2.1684e-19 -6.4484e-06 1.35525e-20 0)
(-7.47245e-05 -8.63309e-05 0 4.19352e-05 -1.3129e-20 0)
(-7.47245e-05 -0.000204098 1.0842e-19 -3.33856e-05 -2.11758e-22 0)
(-1.40279e-05 -0.000100976 1.0842e-19 1.76639e-05 -2.05405e-20 0)
(-1.40279e-05 -0.000203328 -1.0842e-19 -5.76624e-05 4.04458e-20 0)
(4.3423e-05 -0.000105252 0 -6.41129e-06 -6.98802e-21 0)
(4.3423e-05 -0.000195368 0 -7.94965e-05 -4.23516e-22 0)
(9.80342e-05 -0.000101919 -1.0842e-19 -2.93942e-05 7.6233e-21 0)
(9.80342e-05 -0.000181207 5.42101e-20 -9.82135e-05 4.06576e-20 0)
(0.00014983 -9.26007e-05 2.1684e-19 -5.08468e-05 -1.18585e-20 0)
(0.00014983 -0.000162823 -5.42101e-20 -0.000113635 5.42101e-20 0)
(0.000199373 -7.84661e-05 0 -7.08102e-05 3.38813e-21 0)
(0.000199373 -0.000142153 -1.6263e-19 -0.000126643 3.89635e-20 0)
(0.000247953 -6.02539e-05 1.0842e-19 -8.97718e-05 -2.37169e-20 0)
(0.000247953 -0.000120143 0 -0.000139206 2.71051e-20 0)
(0.00029725 -3.81042e-05 -5.42101e-20 -0.000108481 2.03288e-20 0)
(0.00029725 -9.58334e-05 -2.71051e-20 -0.000154087 -3.38813e-21 0)
(0.000348479 -1.14423e-05 -1.0842e-19 -0.000127555 1.35525e-20 0)
(0.000348479 -6.51092e-05 5.42101e-20 -0.000174401 2.03288e-20 0)
(0.000400567 2.08089e-05 -5.42101e-20 -0.000146724 6.77626e-21 0)
(-8.54512e-05 -0.00013665 2.1684e-19 4.19352e-05 4.23516e-22 0)
(-5.25404e-05 -8.49995e-05 -1.0842e-19 4.29325e-05 -6.77626e-21 0)
(-5.25404e-05 -0.000159293 -2.71051e-19 1.76639e-05 -3.38813e-21 0)
(-1.35686e-05 -9.6741e-05 1.0842e-19 2.75364e-05 0 0)
(-1.35686e-05 -0.000170181 -1.0842e-19 -6.41129e-06 0 0)
(2.80334e-05 -0.000102474 1.0842e-19 9.9702e-06 -6.77626e-21 0)
(2.80334e-05 -0.000172236 -5.42101e-20 -2.93942e-05 -3.38813e-21 0)
(7.056e-05 -0.000102376 -1.0842e-19 -8.59186e-06 -6.77626e-21 0)
(7.056e-05 -0.000167162 1.6263e-19 -5.08468e-05 -3.38813e-21 0)
(0.000113124 -9.68222e-05 3.25261e-19 -2.7402e-05 0 0)
(0.000113124 -0.000156124 1.0842e-19 -7.08102e-05 -6.77626e-21 0)
(0.000155318 -8.61452e-05 3.25261e-19 -4.60135e-05 2.03288e-20 0)
(0.000155318 -0.000139842 -2.71051e-19 -8.97718e-05 -5.0822e-21 0)
(0.00019701 -7.05217e-05 0 -6.41708e-05 -3.38813e-21 0)
(0.00019701 -0.000118511 -2.71051e-20 -0.000108481 8.47033e-21 0)
(0.000238113 -4.99202e-05 2.1684e-19 -8.16902e-05 0 0)
(0.000238113 -9.18074e-05 8.13152e-20 -0.000127555 1.86347e-20 0)
(0.000278403 -2.41039e-05 0 -9.83476e-05 -1.01644e-20 0)
(0.000278403 -5.93117e-05 2.71051e-20 -0.000146724 8.47033e-22 0)
(0.000317649 7.33782e-06 0 -0.000113888 -1.01644e-20 0)
(-5.19285e-05 -0.000118682 1.0842e-19 4.29325e-05 0 0)
(-3.00695e-05 -8.54583e-05 -1.0842e-19 3.68253e-05 -1.35525e-20 0)
(-3.00695e-05 -0.000132977 -5.42101e-20 2.75364e-05 -1.69407e-20 0)
(-3.80026e-06 -9.21849e-05 3.25261e-19 2.56107e-05 2.71051e-20 0)
(-3.80026e-06 -0.000141635 0 9.9702e-06 3.38813e-21 0)
(2.54631e-05 -9.54439e-05 1.0842e-19 1.25153e-05 0 0)
(2.54631e-05 -0.000144455 -2.71051e-19 -8.59186e-06 -1.01644e-20 0)
(5.65288e-05 -9.47643e-05 0 -1.79783e-06 0 0)
(5.65288e-05 -0.000141562 -5.42101e-20 -2.7402e-05 -3.38813e-21 0)
(8.84506e-05 -8.9913e-05 2.1684e-19 -1.67332e-05 1.35525e-20 0)
(8.84506e-05 -0.000133142 2.71051e-19 -4.60135e-05 6.77626e-21 0)
(0.000120467 -8.07747e-05 2.1684e-19 -3.17702e-05 0 0)
(0.000120467 -0.000119333 -5.42101e-20 -6.41708e-05 -3.38813e-21 0)
(0.000151928 -6.72777e-05 2.1684e-19 -4.64435e-05 6.77626e-21 0)
(0.000151928 -0.00010018 -5.42101e-20 -8.16902e-05 -3.38813e-21 0)
(0.000182231 -4.93529e-05 -1.0842e-19 -6.03142e-05 0 0)
(0.000182231 -7.56153e-05 2.71051e-19 -9.83476e-05 1.01644e-20 0)
(0.000210762 -2.69152e-05 0 -7.29386e-05 -1.35525e-20 0)
(0.000210762 -4.53602e-05 5.42101e-20 -0.000113888 3.38813e-21 0)
(0.00023677 1.36715e-07 -1.0842e-19 -8.38082e-05 -6.77626e-21 0)
(-3.22597e-05 -0.000106796 0 3.68253e-05 6.77626e-21 0)
(-1.57175e-05 -8.18929e-05 -1.0842e-19 3.07026e-05 -1.35525e-20 0)
(-1.57175e-05 -0.000114193 1.0842e-19 2.56107e-05 1.01644e-20 0)
(3.26444e-06 -8.51296e-05 1.0842e-19 2.16373e-05 -2.71051e-20 0)
(3.26444e-06 -0.000118494 -5.42101e-20 1.25153e-05 -2.71051e-20 0)
(2.41499e-05 -8.59902e-05 3.25261e-19 1.14311e-05 2.71051e-20 0)
(2.41499e-05 -0.000119073 2.1684e-19 -1.79783e-06 2.37169e-20 0)
(4.62945e-05 -8.40696e-05 -1.0842e-19 4.3561e-07 -1.35525e-20 0)
(4.62945e-05 -0.00011557 -5.42101e-20 -1.67332e-05 1.35525e-20 0)
(6.90286e-05 -7.90767e-05 -2.1684e-19 -1.09526e-05 1.35525e-20 0)
(6.90286e-05 -0.000107784 1.0842e-19 -3.17702e-05 0 0)
(9.16908e-05 -7.08165e-05 0 -2.23179e-05 -2.71051e-20 0)
(9.16908e-05 -9.5609e-05 2.1684e-19 -4.64435e-05 -2.37169e-20 0)
(0.000113633 -5.91685e-05 1.0842e-19 -3.3237e-05 1.35525e-20 0)
(0.000113633 -7.89896e-05 -1.0842e-19 -6.03142e-05 -2.37169e-20 0)
(0.000134212 -4.4071e-05 -1.0842e-19 -4.32804e-05 -2.71051e-20 0)
(0.000134212 -5.789e-05 -2.1684e-19 -7.29386e-05 6.77626e-21 0)
(0.000152767 -2.5514e-05 0 -5.20066e-05 6.77626e-21 0)
(0.000152767 -3.22999e-05 5.42101e-20 -8.38082e-05 0 0)
(0.000168609 -3.54329e-06 -1.0842e-19 -5.89576e-05 -6.77626e-21 0)
(-2.06905e-05 -9.3533e-05 1.0842e-19 3.07026e-05 -1.35525e-20 0)
(-7.94974e-06 -7.4358e-05 1.0842e-19 2.59525e-05 0 0)
(-7.94974e-06 -9.68937e-05 -1.6263e-19 2.16373e-05 -3.38813e-21 0)
(6.01748e-06 -7.55495e-05 -1.0842e-19 1.84546e-05 0 0)
(6.01748e-06 -9.80897e-05 3.25261e-19 1.14311e-05 3.72694e-20 0)
(2.09333e-05 -7.49215e-05 0 1.03751e-05 -1.35525e-20 0)
(2.09333e-05 -9.66947e-05 0 4.3561e-07 -1.35525e-20 0)
(3.64192e-05 -7.22266e-05 -1.0842e-19 1.93286e-06 0 0)
(3.64192e-05 -9.23863e-05 -1.0842e-19 -1.09526e-05 -2.71051e-20 0)
(5.20299e-05 -6.7267e-05 0 -6.6025e-06 -1.35525e-20 0)
(5.20299e-05 -8.49414e-05 -5.42101e-20 -2.23179e-05 -2.37169e-20 0)
(6.72796e-05 -5.99008e-05 -1.0842e-19 -1.49253e-05 -1.35525e-20 0)
(6.72796e-05 -7.42223e-05 5.42101e-20 -3.3237e-05 -6.77626e-21 0)
(8.16593e-05 -5.00414e-05 2.1684e-19 -2.27052e-05 2.71051e-20 0)
(8.16593e-05 -6.01638e-05 4.33681e-19 -4.32804e-05 2.37169e-20 0)
(9.46478e-05 -3.76557e-05 0 -2.95965e-05 -1.35525e-20 0)
(9.46478e-05 -4.2765e-05 1.0842e-19 -5.20066e-05 -1.01644e-20 0)
(0.00010572 -2.27631e-05 -1.0842e-19 -3.52456e-05 -6.77626e-21 0)
(0.00010572 -2.20868e-05 -5.42101e-20 -5.89576e-05 1.01644e-20 0)
(0.000114355 -5.43623e-06 -1.0842e-19 -3.92989e-05 0 0)
(-1.40316e-05 -7.87531e-05 1.0842e-19 2.59525e-05 -6.77626e-21 0)
(-4.50969e-06 -6.43396e-05 1.0842e-19 2.29222e-05 0 0)
(-4.50969e-06 -7.99202e-05 -1.6263e-19 1.84546e-05 -1.69407e-20 0)
(5.56898e-06 -6.44194e-05 -2.1684e-19 1.67774e-05 -2.03288e-20 0)
(5.56898e-06 -7.93915e-05 -1.6263e-19 1.03751e-05 -3.38813e-20 0)
(1.60066e-05 -6.30606e-05 -2.1684e-19 1.03778e-05 -2.03288e-20 0)
(1.60066e-05 -7.69354e-05 3.79471e-19 1.93286e-06 2.37169e-20 0)
(2.65431e-05 -6.01383e-05 0 3.88519e-06 -2.71051e-20 0)
(2.65431e-05 -7.2359e-05 0 -6.6025e-06 -6.77626e-21 0)
(3.68658e-05 -5.5553e-05 1.0842e-19 -2.50162e-06 -1.35525e-20 0)
(3.68658e-05 -6.55187e-05 5.42101e-20 -1.49253e-05 -3.38813e-21 0)
(4.66218e-05 -4.92363e-05 0 -8.55265e-06 0 0)
(4.66218e-05 -5.63238e-05 0 -2.27052e-05 -2.71051e-20 0)
(5.54311e-05 -4.11523e-05 0 -1.40138e-05 -3.38813e-20 0)
(5.54311e-05 -4.47359e-05 -1.0842e-19 -2.95965e-05 -3.38813e-21 0)
(6.2899e-05 -3.12969e-05 -2.1684e-19 -1.86141e-05 -6.77626e-21 0)
(6.2899e-05 -3.07666e-05 -2.1684e-19 -3.52456e-05 1.35525e-20 0)
(6.863e-05 -1.96953e-05 -2.1684e-19 -2.20742e-05 -2.03288e-20 0)
(6.863e-05 -1.44764e-05 0 -3.92989e-05 0 0)
(7.22424e-05 -6.39861e-06 -1.0842e-19 -2.41163e-05 0 0)
(-1.06258e-05 -6.34726e-05 -2.1684e-19 2.29222e-05 -6.77626e-21 0)
(-3.85165e-06 -5.3051e-05 0 2.18145e-05 6.77626e-21 0)
(-3.85165e-06 -6.34614e-05 -5.42101e-20 1.67774e-05 -1.35525e-20 0)
(3.13996e-06 -5.25229e-05 -1.0842e-19 1.6775e-05 6.77626e-21 0)
(3.13996e-06 -6.21034e-05 3.25261e-19 1.03778e-05 2.03288e-20 0)
(1.01899e-05 -5.0871e-05 -1.0842e-19 1.16432e-05 -6.77626e-21 0)
(1.01899e-05 -5.92909e-05 -2.1684e-19 3.88519e-06 -1.69407e-20 0)
(1.70992e-05 -4.80548e-05 -1.0842e-19 6.5514e-06 -2.03288e-20 0)
(1.70992e-05 -5.49349e-05 5.42101e-20 -2.50162e-06 2.37169e-20 0)
(2.363e-05 -4.40521e-05 3.25261e-19 1.65841e-06 0 0)
(2.363e-05 -4.89717e-05 5.42101e-20 -8.55265e-06 2.71051e-20 0)
(2.95111e-05 -3.88599e-05 1.0842e-19 -2.85488e-06 -1.35525e-20 0)
(2.95111e-05 -4.1366e-05 -1.0842e-19 -1.40138e-05 -1.69407e-20 0)
(3.44429e-05 -3.2495e-05 1.0842e-19 -6.7858e-06 2.03288e-20 0)
(3.44429e-05 -3.21106e-05 5.42101e-20 -1.86141e-05 6.77626e-21 0)
(3.81051e-05 -2.499e-05 -4.33681e-19 -9.91071e-06 -6.77626e-21 0)
(3.81051e-05 -2.12229e-05 5.42101e-20 -2.20742e-05 -2.03288e-20 0)
(4.01674e-05 -1.63845e-05 -3.25261e-19 -1.19871e-05 -1.35525e-20 0)
(4.01674e-05 -8.74037e-06 -2.1684e-19 -2.41163e-05 0 0)
(4.0305e-05 -6.71026e-06 0 -1.27586e-05 -6.77626e-21 0)
(-9.67379e-06 -4.82102e-05 -2.1684e-19 2.18145e-05 -2.03288e-20 0)
(-5.09917e-06 -4.09172e-05 2.1684e-19 2.2664e-05 -6.77626e-21 0)
(-5.09917e-06 -4.7546e-05 -2.1684e-19 1.6775e-05 -1.35525e-20 0)
(-4.49653e-07 -4.00274e-05 -1.0842e-19 1.83026e-05 0 0)
(-4.49653e-07 -4.58523e-05 2.71051e-19 1.16432e-05 2.71051e-20 0)
(4.1444e-06 -3.82979e-05 -1.0842e-19 1.39376e-05 -1.35525e-20 0)
(4.1444e-06 -4.30954e-05 -1.0842e-19 6.5514e-06 -6.77626e-21 0)
(8.52099e-06 -3.57451e-05 0 9.69807e-06 6.77626e-21 0)
(8.52099e-06 -3.92547e-05 5.42101e-20 1.65841e-06 -2.37169e-20 0)
(1.24934e-05 -3.23928e-05 2.1684e-19 5.70594e-06 6.77626e-21 0)
(1.24934e-05 -3.43262e-05 -1.0842e-19 -2.85488e-06 -1.69407e-20 0)
(1.58455e-05 -2.82904e-05 -1.0842e-19 2.09629e-06 -1.35525e-20 0)
(1.58455e-05 -2.8325e-05 -5.42101e-20 -6.7858e-06 -1.35525e-20 0)
(1.8326e-05 -2.35155e-05 2.1684e-19 -9.73901e-07 0 0)
(1.8326e-05 -2.12821e-05 5.96311e-19 -9.91071e-06 1.35525e-20 0)
(1.96432e-05 -1.8168e-05 1.0842e-19 -3.31923e-06 -1.35525e-20 0)
(1.96432e-05 -1.32352e-05 -5.42101e-20 -1.19871e-05 6.77626e-21 0)
(1.94614e-05 -1.2358e-05 -2.1684e-19 -4.71782e-06 -6.77626e-21 0)
(1.94614e-05 -4.21418e-06 1.0842e-19 -1.27586e-05 -1.35525e-20 0)
(1.7403e-05 -6.17894e-06 -1.0842e-19 -4.89974e-06 -1.35525e-20 0)
(-1.06871e-05 -3.25649e-05 -2.1684e-19 2.2664e-05 0 0)
(-7.57217e-06 -2.73457e-05 0 2.48281e-05 6.77626e-21 0)
(-7.57217e-06 -3.15735e-05 -2.1684e-19 1.83026e-05 -1.69407e-20 0)
(-4.43318e-06 -2.63369e-05 1.0842e-19 2.03386e-05 0 0)
(-4.43318e-06 -2.98853e-05 -5.42101e-20 1.39376e-05 2.03288e-20 0)
(-1.41747e-06 -2.48213e-05 0 1.61008e-05 0 0)
(-1.41747e-06 -2.74897e-05 1.6263e-19 9.69807e-06 6.77626e-21 0)
(1.36795e-06 -2.27426e-05 1.0842e-19 1.2133e-05 1.35525e-20 0)
(1.36795e-06 -2.4395e-05 -2.1684e-19 5.70594e-06 3.38813e-21 0)
(3.8048e-06 -2.01351e-05 0 8.50465e-06 1.35525e-20 0)
(3.8048e-06 -2.06365e-05 -1.6263e-19 2.09629e-06 -1.01644e-20 0)
(5.74473e-06 -1.70879e-05 1.0842e-19 5.3096e-06 -1.35525e-20 0)
(5.74473e-06 -1.62768e-05 -1.0842e-19 -9.73901e-07 3.38813e-21 0)
(6.9965e-06 -1.37381e-05 -1.0842e-19 2.65751e-06 0 0)
(6.9965e-06 -1.14023e-05 -5.42101e-20 -3.31923e-06 6.77626e-21 0)
(7.30848e-06 -1.02759e-05 0 6.75618e-07 0 0)
(7.30848e-06 -6.11558e-06 0 -4.71782e-06 3.38813e-21 0)
(6.33822e-06 -6.95666e-06 -2.1684e-19 -4.81103e-07 0 0)
(6.33822e-06 -5.15263e-07 5.42101e-20 -4.89974e-06 -3.38813e-21 0)
(3.5936e-06 -4.12356e-06 1.0842e-19 -6.07313e-07 0 0)
(-1.28453e-05 -1.49085e-05 -1.0842e-19 2.48281e-05 -1.35525e-20 0)
(-9.84768e-06 -1.00725e-05 -1.0842e-19 2.5742e-05 -3.38813e-21 0)
(-9.84768e-06 -1.40791e-05 -2.1684e-19 2.03386e-05 1.35525e-20 0)
(-7.25573e-06 -1.00426e-05 -1.6263e-19 2.02207e-05 -6.77626e-21 0)
(-7.25573e-06 -1.29279e-05 1.0842e-19 1.61008e-05 -6.77626e-21 0)
(-4.92485e-06 -9.45262e-06 1.6263e-19 1.50271e-05 -3.38813e-21 0)
(-4.92485e-06 -1.14098e-05 0 1.2133e-05 -2.03288e-20 0)
(-2.84962e-06 -8.45138e-06 -5.42101e-20 1.03279e-05 -6.77626e-21 0)
(-2.84962e-06 -9.53799e-06 0 8.50465e-06 1.35525e-20 0)
(-1.08057e-06 -7.1249e-06 -5.42101e-20 6.28462e-06 6.77626e-21 0)
(-1.08057e-06 -7.35895e-06 -1.0842e-19 5.3096e-06 -6.77626e-21 0)
(3.03818e-07 -5.55461e-06 1.6263e-19 3.04635e-06 2.03288e-20 0)
(3.03818e-07 -4.95099e-06 1.0842e-19 2.65751e-06 6.77626e-21 0)
(1.20465e-06 -3.84768e-06 -5.42101e-20 7.41804e-07 -6.77626e-21 0)
(1.20465e-06 -2.43325e-06 -1.0842e-19 6.75618e-07 -2.03288e-20 0)
(1.50237e-06 -2.16053e-06 -5.42101e-20 -5.32776e-07 -6.77626e-21 0)
(1.50237e-06 1.5915e-08 0 -4.81103e-07 -6.77626e-21 0)
(1.05574e-06 -7.23123e-07 -2.1684e-19 -7.33e-07 -6.77626e-21 0)
(1.05574e-06 2.12289e-06 0 -6.07313e-07 0 0)
(-2.85869e-07 1.36483e-07 -5.42101e-20 9.75915e-08 0 0)
(0.00105853 0.000395037 4.06576e-20 -0.000198767 4.33681e-19 0)
(0.00079449 -7.16512e-05 -8.13152e-20 -0.00029631 2.1684e-19 0)
(0.000859207 0.000390165 0 -3.45939e-05 -2.71051e-19 0)
(0.000661874 1.40174e-05 -2.71051e-20 -0.00025757 -1.0842e-19 0)
(0.000706064 0.00036618 -4.06576e-20 -9.11528e-06 1.6263e-19 0)
(0.000539377 4.30791e-05 -1.0842e-19 -0.0002008 0 0)
(0.000572972 0.000345016 -1.35525e-20 4.05056e-06 -1.0842e-19 0)
(0.00043903 7.76296e-05 -2.71051e-20 -0.000175909 1.0842e-19 0)
(0.00046285 0.0003246 6.77626e-21 4.5068e-06 -5.42101e-20 0)
(0.000349427 9.39441e-05 -1.35525e-20 -0.000151773 -1.0842e-19 0)
(0.000366747 0.000306545 0 -1.94621e-06 -5.42101e-20 0)
(0.000263435 9.49529e-05 -1.35525e-20 -0.000128505 -2.1684e-19 0)
(0.00027645 0.000291742 -1.35525e-20 -1.0177e-05 -1.0842e-19 0)
(0.000173899 8.19403e-05 -1.35525e-20 -0.000104295 0 0)
(0.000183901 0.000280657 -3.38813e-21 -1.52507e-05 0 0)
(7.26642e-05 5.37101e-05 -1.35525e-20 -7.634e-05 2.1684e-19 0)
(8.01385e-05 0.000273458 3.38813e-21 -1.16239e-05 -2.71051e-19 0)
(-5.06271e-05 6.04072e-06 -1.01644e-20 -4.08266e-05 -2.1684e-19 0)
(-4.60823e-05 0.000270049 -1.69407e-21 7.90416e-06 0 0)
(-0.000210413 -6.97883e-05 3.38813e-21 7.19056e-06 2.1684e-19 0)
(0.000680924 0.00016105 -5.42101e-20 -0.000275881 0 0)
(0.000587663 4.46708e-05 -1.0842e-19 -0.000342805 -1.0842e-19 0)
(0.000679973 0.000268395 -1.35525e-19 -0.000235506 3.79471e-19 0)
(0.000554848 0.000103088 -5.42101e-20 -0.000342413 1.0842e-19 0)
(0.000629435 0.000310469 5.42101e-20 -0.000177742 -1.6263e-19 0)
(0.000514175 0.00014418 5.42101e-20 -0.000316934 -2.1684e-19 0)
(0.000580056 0.000350015 0 -0.000152513 -1.6263e-19 0)
(0.000460451 0.000174291 0 -0.000282703 1.0842e-19 0)
(0.000514847 0.000369045 0 -0.000128187 1.6263e-19 0)
(0.000405378 0.000200495 -2.71051e-20 -0.000253703 -2.1684e-19 0)
(0.000445218 0.000369639 -2.71051e-20 -0.000104985 1.0842e-19 0)
(0.000346464 0.000210564 0 -0.000219617 -3.25261e-19 0)
(0.00037384 0.000353806 -5.42101e-20 -8.10553e-05 1.0842e-19 0)
(0.000284768 0.000203339 -6.77626e-20 -0.000183459 2.1684e-19 0)
(0.000301832 0.000320666 -2.71051e-20 -5.35819e-05 2.1684e-19 0)
(0.000221278 0.000176655 0 -0.000147882 0 0)
(0.000230034 0.000265789 0 -1.87917e-05 2.1684e-19 0)
(0.000158083 0.000127102 2.03288e-20 -0.00011602 0 0)
(0.000160687 0.000179624 1.69407e-21 2.81569e-05 5.42101e-20 0)
(0.000100502 5.01911e-05 1.69407e-20 -9.27636e-05 -1.0842e-19 0)
(0.000282745 -0.000156843 -1.0842e-19 -0.000368971 5.42101e-20 0)
(0.000371519 -3.49109e-05 0 -0.000202954 1.0842e-19 0)
(0.000377534 -5.68586e-05 -1.0842e-19 -0.000363484 -2.71051e-20 0)
(0.000393566 -9.75181e-07 0 -0.000225963 5.42101e-20 0)
(0.00042319 2.57288e-05 1.0842e-19 -0.000332728 -2.71051e-20 0)
(0.000403948 3.70398e-05 1.0842e-19 -0.000238428 -2.1684e-19 0)
(0.000439445 8.9658e-05 5.42101e-20 -0.000294194 -5.42101e-20 0)
(0.000406835 7.45688e-05 -5.42101e-20 -0.000240607 5.42101e-20 0)
(0.000442073 0.000142099 0 -0.000261872 1.0842e-19 0)
(0.000398874 0.000107171 0 -0.000231999 0 0)
(0.000426218 0.000173096 -1.0842e-19 -0.000225122 8.13152e-20 0)
(0.000384283 0.000130564 -2.1684e-19 -0.000215451 1.6263e-19 0)
(0.000400745 0.000181911 -5.42101e-20 -0.000186937 -1.0842e-19 0)
(0.00036762 0.00014152 2.71051e-20 -0.000194825 -1.0842e-19 0)
(0.000373439 0.000167375 0 -0.000149866 -1.35525e-19 0)
(0.000354129 0.000137635 0 -0.000174786 -5.42101e-20 0)
(0.00035202 0.000127608 2.71051e-20 -0.00011686 8.13152e-20 0)
(0.000350158 0.000117287 5.42101e-20 -0.000160867 5.42101e-20 0)
(0.00034522 6.04399e-05 0 -9.25074e-05 -8.13152e-20 0)
(0.000363409 7.98541e-05 0 -0.000159593 0 0)
(-5.90166e-05 -0.000287341 3.79471e-19 -0.000234939 -2.71051e-20 0)
(0.000161554 -8.87749e-05 0 -6.35932e-05 2.71051e-20 0)
(5.68005e-05 -0.00023709 -1.6263e-19 -0.000256178 -2.71051e-20 0)
(0.000212771 -7.75826e-05 -1.0842e-19 -9.62243e-05 2.71051e-20 0)
(0.000154767 -0.000178632 -1.0842e-19 -0.000266291 -1.0842e-19 0)
(0.000256761 -5.80639e-05 0 -0.000124373 0 0)
(0.000230814 -0.000118645 -1.0842e-19 -0.000265782 6.77626e-20 0)
(0.000292538 -3.24727e-05 0 -0.000145525 -2.71051e-20 0)
(0.000283546 -6.45781e-05 -5.42101e-20 -0.000254562 -2.71051e-20 0)
(0.00032066 -4.70328e-06 0 -0.000158474 -1.0842e-19 0)