/*--------------------------------*- C++ -*----------------------------------*\
| =========                 |                                                 |
| \\      /  F ield         | OpenFOAM: The Open Source CFD Toolbox           |
|  \\    /   O peration     | Version:  v2012                                 |
|   \\  /    A nd           | Website:  www.openfoam.com                      |
|    \\/     M anipulation  |                                                 |
\*---------------------------------------------------------------------------*/
FoamFile
{
    version     2.0;
    format      ascii;
    class       pointSymmTensorField;
    location    "20";
    object      pEpsilon;
}
// * * * * * * * * * * * * * * * * * * * * * * * * * * * * * * * * * * * * * //

dimensions      [0 0 0 0 0 0 0];


internalField   nonuniform List<symmTensor> 
572
(
(6.2661e-05 9.67791e-06 0 -0.000202276 0 0)
(-2.51289e-05 -4.52576e-06 0 6.87698e-05 0 0)
(-2.85869e-07 1.36483e-07 0 9.75915e-08 0 0)
(-0.000132788 0.000260617 0 7.88445e-06 0 0)
(0.00397207 -0.00124184 0 -0.00553049 2.71051e-18 0)
(-5.48534e-05 6.71395e-07 0 -3.94991e-05 0 0)
(0.00128247 0.000351572 0 -0.000460929 0 0)
(-0.000134192 -0.000110103 0 2.17713e-05 0 0)
(0.000411962 -1.767e-05 0 -0.000153693 6.77626e-20 0)
(-1.16024e-05 -1.04324e-05 0 2.99359e-05 0 0)
(-0.000287265 0.000348375 0 -9.40945e-05 -6.77626e-20 0)
(-0.000287265 0.000348375 0 -9.40945e-05 -6.77626e-20 0)
(-0.000134192 -0.000110103 0 2.17713e-05 0 0)
(0.00128247 0.000351572 0 -0.000460929 0 0)
(0.00397207 -0.00124184 0 -0.00553049 2.71051e-18 0)
(6.2661e-05 9.67791e-06 0 -0.000202276 0 0)
(-5.48534e-05 6.71395e-07 0 -3.94991e-05 0 0)
(-2.51289e-05 -4.52576e-06 0 6.87698e-05 0 0)
(-1.16024e-05 -1.04324e-05 0 2.99359e-05 0 0)
(-2.85869e-07 1.36483e-07 0 9.75915e-08 0 0)
(0.000411962 -1.767e-05 0 -0.000153693 6.77626e-20 0)
(-0.000132788 0.000260617 0 7.88445e-06 0 0)
(0.000802983 -3.81779e-05 0 -0.000403136 0 0)
(0.000415017 -8.53214e-05 0 -0.000309234 0 0)
(0.00013539 -0.000148728 2.71051e-19 -0.000159133 0 0)
(-2.91544e-05 -0.000131653 0 -3.4757e-05 0 0)
(-0.000142317 -1.28698e-05 0 4.76265e-05 1.69407e-20 0)
(-0.000112006 1.74164e-05 0 1.56515e-05 0 0)
(-8.23151e-05 2.41091e-05 0 -1.3217e-05 0 0)
(-6.12459e-05 1.60344e-05 0 -3.29374e-05 4.23516e-21 0)
(4.28948e-05 6.41466e-06 0 -0.000160687 0 0)
(9.0267e-06 5.10278e-06 0 -0.000120464 0 0)
(-2.05631e-05 3.33727e-06 0 -8.42432e-05 0 0)
(-4.45325e-05 1.68055e-06 0 -5.3873e-05 0 0)
(-6.9575e-05 -5.38375e-06 0 2.86193e-06 0 0)
(-8.56094e-05 -1.07464e-05 0 4.01031e-05 0 0)
(-8.54012e-05 -1.13832e-05 0 5.77172e-05 0 0)
(-7.66548e-05 -1.01924e-05 0 6.29799e-05 0 0)
(-6.43643e-05 -8.53596e-06 0 6.15473e-05 0 0)
(-5.15688e-05 -6.96456e-06 0 5.74149e-05 0 0)
(-4.01209e-05 -5.66945e-06 0 5.34239e-05 0 0)
(-3.12427e-05 -4.72762e-06 0 5.18288e-05 0 0)
(-2.59262e-05 -4.32011e-06 0 5.50291e-05 0 0)
(-2.51552e-05 -2.18558e-06 0 6.78086e-05 0 0)
(-2.2765e-05 -4.5266e-06 0 6.12333e-05 0 0)
(-1.94243e-05 -7.35664e-06 0 5.17663e-05 0 0)
(-1.52869e-05 -9.75013e-06 0 4.00684e-05 0 0)
(-8.65114e-06 -9.94759e-06 0 2.29187e-05 0 0)
(-6.28624e-06 -9.62624e-06 0 1.75878e-05 0 0)
(-4.15247e-06 -8.82908e-06 0 1.26646e-05 0 0)
(-2.27755e-06 -7.6712e-06 0 8.31096e-06 0 0)
(-7.24357e-07 -6.2352e-06 0 4.68076e-06 0 0)
(4.23415e-07 -4.6143e-06 0 1.91218e-06 0 0)
(1.06385e-06 -2.93869e-06 0 1.18058e-07 0 0)
(1.07563e-06 -1.39887e-06 0 -6.29288e-07 0 0)
(3.21794e-07 -2.69508e-07 0 -3.24573e-07 0 0)
(1.47838e-06 1.18436e-08 0 -1.7575e-06 0 0)
(9.27781e-06 -1.88392e-06 0 -5.83316e-06 0 0)
(2.60984e-05 -3.77177e-06 0 -1.29912e-05 0 0)
(5.15484e-05 -5.76172e-06 0 -2.33368e-05 0 0)
(8.60612e-05 -8.11243e-06 0 -3.71488e-05 0 0)
(0.00013099 -1.10725e-05 0 -5.48914e-05 0 0)
(0.000188043 -1.47563e-05 0 -7.69812e-05 0 0)
(0.000257715 -1.88135e-05 0 -0.000103105 0 0)
(0.00033543 -2.1584e-05 0 -0.000130716 0 0)
(0.000455671 2.53865e-06 0 -0.000161987 0 0)
(0.000417561 1.73779e-05 1.69407e-20 -0.000147982 0 0)
(0.000264511 4.31152e-05 8.47033e-21 -9.5295e-05 0 0)
(9.6943e-06 6.88386e-05 0 -2.1188e-05 0 0)
(1.42492e-05 0.000268623 0 -2.39339e-06 0 0)
(0.000129636 0.00027406 0 -1.42793e-05 0 0)
(0.000227966 0.000283209 0 -1.39124e-05 0 0)
(0.000319365 0.000296061 0 -7.62867e-06 0 0)
(0.000412344 0.000312316 0 -6.35558e-07 0 0)
(0.000515013 0.000331313 0 2.07231e-06 0 0)
(0.000635919 0.000351818 0 -4.90759e-06 0 0)
(0.000778389 0.000374119 0 -2.46177e-05 0 0)
(0.000953211 0.000391369 0 -0.000118741 2.71051e-19 0)
(0.00191449 0.000198646 0 -0.00116599 2.71051e-19 0)
(0.00274825 -0.000116978 0 -0.00230686 1.0842e-18 0)
(0.0035911 -0.000581959 0 -0.00377998 4.06576e-19 0)
(0.00401096 -0.00100438 0 -0.00504345 3.28649e-18 0)
(-0.000115213 -9.57797e-05 0 5.50104e-05 4.23516e-21 0)
(-7.10838e-05 -9.10642e-05 0 5.11085e-05 0 0)
(-4.37316e-05 -8.87205e-05 0 4.29682e-05 0 0)
(-2.73313e-05 -8.26852e-05 0 3.57116e-05 0 0)
(-1.7688e-05 -7.32806e-05 2.71051e-19 3.01418e-05 0 0)
(-1.23569e-05 -6.19413e-05 0 2.6449e-05 0 0)
(-1.00304e-05 -4.96547e-05 0 2.48134e-05 0 0)
(-1.0009e-05 -3.65268e-05 0 2.52973e-05 0 0)
(-1.16436e-05 -2.15399e-05 0 2.73289e-05 0 0)
(-6.58033e-05 -0.00018981 0 -6.47309e-05 0 0)
(-8.05147e-07 -0.000187237 0 -8.78749e-05 0 0)
(6.00441e-05 -0.00017735 0 -0.000108512 0 0)
(0.000117418 -0.000160331 0 -0.000125799 0 0)
(0.000171154 -0.000138105 0 -0.000138919 3.38813e-20 0)
(0.000221789 -0.000113176 0 -0.000148091 0 0)
(0.000271126 -8.74679e-05 0 -0.000154881 0 0)
(0.000322231 -6.12135e-05 0 -0.000162004 0 0)
(0.000379119 -3.17488e-05 0 -0.00017282 0 0)
(0.00358079 -0.00141691 -1.0842e-18 -0.00479787 -1.21973e-18 0)
(0.00168665 -0.00161208 -2.71051e-18 -0.0021159 1.55854e-18 0)
(-0.000351279 -0.000423929 0 0.000258646 -8.13152e-19 0)
(-0.000575125 0.000341671 0 3.41392e-05 0 0)
(-0.000122937 0.000281456 0 -0.000160115 0 0)
(-1.95872e-05 0.000199544 0 -0.000193545 3.38813e-20 0)
(3.72409e-05 0.000125568 0 -0.000204767 0 0)
(6.57769e-05 6.16972e-05 0 -0.000207251 0 0)
(-0.000240296 0.000247689 0 -3.94943e-05 0 0)
(-0.000241822 0.000132859 0 2.12385e-05 0 0)
(-0.000205568 4.63369e-05 0 4.4432e-05 0 0)
(-0.000151203 -1.5255e-05 0 4.86898e-05 -3.38813e-20 0)
(-0.000240296 0.000247689 0 -3.94943e-05 0 0)
(-0.000241822 0.000132859 0 2.12385e-05 0 0)
(-0.000205568 4.63369e-05 0 4.4432e-05 0 0)
(-0.000151203 -1.5255e-05 0 4.86898e-05 -3.38813e-20 0)
(-2.91544e-05 -0.000131653 0 -3.4757e-05 0 0)
(0.00013539 -0.000148728 2.71051e-19 -0.000159133 0 0)
(0.000415017 -8.53214e-05 0 -0.000309234 0 0)
(0.000802983 -3.81779e-05 0 -0.000403136 0 0)
(0.00191449 0.000198646 0 -0.00116599 2.71051e-19 0)
(0.00274825 -0.000116978 0 -0.00230686 1.0842e-18 0)
(0.0035911 -0.000581959 0 -0.00377998 4.06576e-19 0)
(0.00401096 -0.00100438 0 -0.00504345 3.28649e-18 0)
(0.00358079 -0.00141691 -1.0842e-18 -0.00479787 -1.21973e-18 0)
(0.00168665 -0.00161208 -2.71051e-18 -0.0021159 1.55854e-18 0)
(-0.000351279 -0.000423929 0 0.000258646 -8.13152e-19 0)
(-0.000575125 0.000341671 0 3.41392e-05 0 0)
(-0.000122937 0.000281456 0 -0.000160115 0 0)
(-1.95872e-05 0.000199544 0 -0.000193545 3.38813e-20 0)
(3.72409e-05 0.000125568 0 -0.000204767 0 0)
(6.57769e-05 6.16972e-05 0 -0.000207251 0 0)
(4.28948e-05 6.41466e-06 0 -0.000160687 0 0)
(9.0267e-06 5.10278e-06 0 -0.000120464 0 0)
(-2.05631e-05 3.33727e-06 0 -8.42432e-05 0 0)
(-4.45325e-05 1.68055e-06 0 -5.3873e-05 0 0)
(-6.12459e-05 1.60344e-05 0 -3.29374e-05 4.23516e-21 0)
(-8.23151e-05 2.41091e-05 0 -1.3217e-05 0 0)
(-0.000112006 1.74164e-05 0 1.56515e-05 0 0)
(-0.000142317 -1.28698e-05 0 4.76265e-05 1.69407e-20 0)
(-6.9575e-05 -5.38375e-06 0 2.86193e-06 0 0)
(-8.56094e-05 -1.07464e-05 0 4.01031e-05 0 0)
(-8.54012e-05 -1.13832e-05 0 5.77172e-05 0 0)
(-7.66548e-05 -1.01924e-05 0 6.29799e-05 0 0)
(-6.43643e-05 -8.53596e-06 0 6.15473e-05 0 0)
(-5.15688e-05 -6.96456e-06 0 5.74149e-05 0 0)
(-4.01209e-05 -5.66945e-06 0 5.34239e-05 0 0)
(-3.12427e-05 -4.72762e-06 0 5.18288e-05 0 0)
(-2.59262e-05 -4.32011e-06 0 5.50291e-05 0 0)
(-2.51552e-05 -2.18558e-06 0 6.78086e-05 0 0)
(-2.2765e-05 -4.5266e-06 0 6.12333e-05 0 0)
(-1.94243e-05 -7.35664e-06 0 5.17663e-05 0 0)
(-1.52869e-05 -9.75013e-06 0 4.00684e-05 0 0)
(-1.16436e-05 -2.15399e-05 0 2.73289e-05 0 0)
(-1.0009e-05 -3.65268e-05 0 2.52973e-05 0 0)
(-1.00304e-05 -4.96547e-05 0 2.48134e-05 0 0)
(-1.23569e-05 -6.19413e-05 0 2.6449e-05 0 0)
(-1.7688e-05 -7.32806e-05 2.71051e-19 3.01418e-05 0 0)
(-2.73313e-05 -8.26852e-05 0 3.57116e-05 0 0)
(-4.37316e-05 -8.87205e-05 0 4.29682e-05 0 0)
(-7.10838e-05 -9.10642e-05 0 5.11085e-05 0 0)
(-0.000115213 -9.57797e-05 0 5.50104e-05 4.23516e-21 0)
(-8.65114e-06 -9.94759e-06 0 2.29187e-05 0 0)
(-6.28624e-06 -9.62624e-06 0 1.75878e-05 0 0)
(-4.15247e-06 -8.82908e-06 0 1.26646e-05 0 0)
(-2.27755e-06 -7.6712e-06 0 8.31096e-06 0 0)
(-7.24357e-07 -6.2352e-06 0 4.68076e-06 0 0)
(4.23415e-07 -4.6143e-06 0 1.91218e-06 0 0)
(1.06385e-06 -2.93869e-06 0 1.18058e-07 0 0)
(1.07563e-06 -1.39887e-06 0 -6.29288e-07 0 0)
(3.21794e-07 -2.69508e-07 0 -3.24573e-07 0 0)
(1.47838e-06 1.18436e-08 0 -1.7575e-06 0 0)
(9.27781e-06 -1.88392e-06 0 -5.83316e-06 0 0)
(2.60984e-05 -3.77177e-06 0 -1.29912e-05 0 0)
(5.15484e-05 -5.76172e-06 0 -2.33368e-05 0 0)
(8.60612e-05 -8.11243e-06 0 -3.71488e-05 0 0)
(0.00013099 -1.10725e-05 0 -5.48914e-05 0 0)
(0.000188043 -1.47563e-05 0 -7.69812e-05 0 0)
(0.000257715 -1.88135e-05 0 -0.000103105 0 0)
(0.00033543 -2.1584e-05 0 -0.000130716 0 0)
(0.000379119 -3.17488e-05 0 -0.00017282 0 0)
(0.000322231 -6.12135e-05 0 -0.000162004 0 0)
(0.000271126 -8.74679e-05 0 -0.000154881 0 0)
(0.000221789 -0.000113176 0 -0.000148091 0 0)
(0.000171154 -0.000138105 0 -0.000138919 3.38813e-20 0)
(0.000117418 -0.000160331 0 -0.000125799 0 0)
(6.00441e-05 -0.00017735 0 -0.000108512 0 0)
(-8.05147e-07 -0.000187237 0 -8.78749e-05 0 0)
(-6.58033e-05 -0.00018981 0 -6.47309e-05 0 0)
(0.000455671 2.53865e-06 0 -0.000161987 0 0)
(0.000417561 1.73779e-05 1.69407e-20 -0.000147982 0 0)
(0.000264511 4.31152e-05 8.47033e-21 -9.5295e-05 0 0)
(9.6943e-06 6.88386e-05 0 -2.1188e-05 0 0)
(1.42492e-05 0.000268623 0 -2.39339e-06 0 0)
(0.000129636 0.00027406 0 -1.42793e-05 0 0)
(0.000227966 0.000283209 0 -1.39124e-05 0 0)
(0.000319365 0.000296061 0 -7.62867e-06 0 0)
(0.000412344 0.000312316 0 -6.35558e-07 0 0)
(0.000515013 0.000331313 0 2.07231e-06 0 0)
(0.000635919 0.000351818 0 -4.90759e-06 0 0)
(0.000778389 0.000374119 0 -2.46177e-05 0 0)
(0.000953211 0.000391369 0 -0.000118741 2.71051e-19 0)
(0.00307528 -0.00119246 2.43945e-18 -0.00361622 -1.6263e-18 0)
(0.00218314 -0.000930639 -2.1684e-18 -0.00214233 5.42101e-19 0)
(0.00147521 -0.000556624 -2.71051e-19 -0.00115307 0 0)
(0.00104431 -0.000231358 -1.35525e-19 -0.000630215 0 0)
(0.00082875 -0.000908174 1.6263e-18 -0.0012184 -1.35525e-19 0)
(0.000292603 -0.000583629 5.42101e-19 -0.000405204 -5.42101e-19 0)
(0.000283893 -0.00037574 0 -0.000305292 2.71051e-19 0)
(0.000357625 -0.000216656 0 -0.000318886 -1.35525e-19 0)
(-0.000511453 -4.08693e-05 0 0.000113045 -1.35525e-19 0)
(-0.000347117 -0.000134962 0 3.26643e-05 0 0)
(-0.00014339 -0.000193246 0 -6.4115e-05 0 0)
(1.40312e-05 -0.000197119 0 -0.000134391 0 0)
(-0.000416155 0.0002107 0 4.38126e-05 0 0)
(-0.000338454 4.0092e-05 2.71051e-19 5.17502e-05 0 0)
(-0.000232753 -6.43513e-05 0 2.3398e-05 0 0)
(-0.000131515 -0.000121159 0 -1.17924e-05 0 0)
(-0.00012602 0.000215219 0 -9.82761e-05 6.77626e-20 0)
(-0.00016641 0.000145494 0 -2.47867e-05 0 0)
(-0.000176842 8.03479e-05 0 1.88493e-05 0 0)
(-0.000168003 2.29821e-05 0 4.12873e-05 0 0)
(-3.89446e-05 0.000161349 0 -0.000138973 3.38813e-20 0)
(-8.39386e-05 0.000124779 0 -7.39695e-05 0 0)
(-0.000108331 8.3815e-05 0 -2.8578e-05 0 0)
(-0.000117507 4.53822e-05 0 7.10285e-07 1.69407e-20 0)
(1.4669e-05 0.000105235 0 -0.000161915 0 0)
(-2.54947e-05 8.93255e-05 0 -0.000110061 1.69407e-20 0)
(-5.39774e-05 6.75082e-05 0 -6.79091e-05 1.69407e-20 0)
(-7.24036e-05 4.47587e-05 0 -3.51289e-05 0 0)
(4.15983e-05 4.97712e-05 0 -0.000173074 0 0)
(6.22314e-06 4.47919e-05 0 -0.000130063 0 0)
(-2.24475e-05 3.63767e-05 0 -9.1234e-05 8.47033e-21 0)
(-4.40537e-05 2.61595e-05 0 -5.8073e-05 -4.23516e-21 0)
(-8.14328e-05 2.39744e-06 0 2.09333e-05 0 0)
(-9.44024e-05 -3.28529e-06 0 3.34618e-05 0 0)
(-0.000107462 -1.88574e-05 0 4.79639e-05 -4.23516e-21 0)
(-0.000114379 -4.56611e-05 0 5.9957e-05 -2.11758e-21 0)
(-8.69511e-05 -1.1793e-05 0 4.82942e-05 4.23516e-21 0)
(-8.84598e-05 -2.53767e-05 0 5.17541e-05 0 0)
(-8.72863e-05 -4.31725e-05 0 5.45543e-05 0 0)
(-8.03926e-05 -6.50257e-05 0 5.43409e-05 0 0)
(-8.2401e-05 -1.79063e-05 0 5.98611e-05 0 0)
(-7.88213e-05 -3.51273e-05 0 5.87067e-05 0 0)
(-7.16022e-05 -5.35718e-05 0 5.57284e-05 0 0)
(-5.88234e-05 -7.28082e-05 0 4.9485e-05 0 0)
(-7.23949e-05 -1.93258e-05 0 6.19842e-05 4.23516e-21 0)
(-6.71326e-05 -3.73403e-05 0 5.88085e-05 0 0)
(-5.81255e-05 -5.5008e-05 0 5.33292e-05 0 0)
(-4.40283e-05 -7.18264e-05 0 4.46436e-05 0 0)
(-6.01906e-05 -1.82805e-05 0 5.92462e-05 0 0)
(-5.4927e-05 -3.53461e-05 0 5.53979e-05 0 0)
(-4.62633e-05 -5.12553e-05 0 4.91362e-05 0 0)
(-3.32441e-05 -6.54366e-05 0 3.99223e-05 0 0)
(-4.80155e-05 -1.60531e-05 0 5.49255e-05 0 0)
(-4.3515e-05 -3.11989e-05 0 5.10443e-05 0 0)
(-3.61795e-05 -4.47918e-05 0 4.48216e-05 0 0)
(-2.53416e-05 -5.62135e-05 0 3.59839e-05 0 0)
(-3.74182e-05 -1.33009e-05 0 5.14734e-05 0 0)
(-3.40067e-05 -2.5978e-05 0 4.78216e-05 0 0)
(-2.83521e-05 -3.69445e-05 0 4.19033e-05 0 0)
(-2.00031e-05 -4.56206e-05 0 3.36756e-05 0 0)
(-2.96778e-05 -1.02647e-05 0 5.10419e-05 0 0)
(-2.75362e-05 -1.99135e-05 0 4.76636e-05 0 0)
(-2.34199e-05 -2.79372e-05 0 4.17498e-05 0 0)
(-1.72553e-05 -3.39449e-05 0 3.37532e-05 0 0)
(-2.66457e-05 -6.63361e-06 0 5.64687e-05 0 0)
(-2.55038e-05 -1.20427e-05 0 5.25282e-05 0 0)
(-2.20282e-05 -1.6709e-05 0 4.55138e-05 0 0)
(-1.71291e-05 -2.01322e-05 0 3.65946e-05 0 0)
(-5.73297e-05 -0.000122005 0 2.86401e-05 1.05879e-21 0)
(-9.60656e-06 -0.000134748 0 4.66774e-06 -7.94093e-22 0)
(3.86791e-05 -0.000137993 0 -1.86839e-05 -5.29396e-22 0)
(8.63996e-05 -0.000133914 0 -4.07359e-05 2.11758e-21 0)
(0.00013306 -0.000123913 0 -6.12774e-05 4.23516e-21 0)
(0.000178794 -0.000108948 0 -8.05707e-05 0 0)
(0.000224207 -8.94723e-05 0 -9.9245e-05 8.47033e-21 0)
(0.000269978 -6.53322e-05 0 -0.000118012 1.69407e-20 0)
(0.000316117 -3.58601e-05 0 -0.000137104 0 0)
(-3.74232e-05 -0.00010903 0 3.48643e-05 0 0)
(-5.20642e-06 -0.00011908 0 1.83292e-05 0 0)
(2.97568e-05 -0.000123283 0 2.6622e-07 0 0)
(6.61525e-05 -0.000121782 0 -1.83827e-05 0 0)
(0.000103117 -0.000114842 0 -3.7035e-05 0 0)
(0.000140087 -0.000102678 0 -5.53552e-05 0 0)
(0.000176656 -8.53719e-05 0 -7.31405e-05 0 0)
(0.000212437 -6.28458e-05 0 -9.02003e-05 0 0)
(0.000247013 -3.48512e-05 0 -0.00010629 0 0)
(-2.06871e-05 -0.000100026 0 3.11208e-05 0 0)
(2.06428e-06 -0.000105476 0 1.8912e-05 0 0)
(2.71158e-05 -0.000107342 0 5.17621e-06 0 0)
(5.36294e-05 -0.000105216 0 -9.46093e-06 0 0)
(8.0845e-05 -9.8878e-05 0 -2.44478e-05 0 0)
(0.000108075 -8.82108e-05 0 -3.92986e-05 0 0)
(0.000134677 -7.31406e-05 0 -5.35681e-05 0 0)
(0.000160025 -5.36062e-05 0 -6.68204e-05 0 0)
(0.000183455 -2.95461e-05 0 -7.85853e-05 0 0)
(-1.04179e-05 -8.95914e-05 0 2.6152e-05 0 0)
(6.21026e-06 -9.17843e-05 0 1.64856e-05 0 0)
(2.41813e-05 -9.14852e-05 0 5.85714e-06 0 0)
(4.3001e-05 -8.83354e-05 0 -5.35771e-06 0 0)
(6.21288e-05 -8.20797e-05 0 -1.67534e-05 0 0)
(8.10033e-05 -7.25513e-05 0 -2.79121e-05 0 0)
(9.90522e-05 -5.96552e-05 0 -3.84093e-05 0 0)
(0.000115692 -4.3357e-05 0 -4.78114e-05 0 0)
(0.000130325 -2.36801e-05 0 -5.56695e-05 0 0)
(-5.22136e-06 -7.73058e-05 0 2.22071e-05 0 0)
(6.89046e-06 -7.76233e-05 0 1.44004e-05 0 0)
(1.96151e-05 -7.60572e-05 0 6.11934e-06 0 0)
(3.26321e-05 -7.23898e-05 0 -2.39036e-06 0 0)
(4.55654e-05 -6.64521e-05 0 -1.08401e-05 0 0)
(5.79995e-05 -5.81292e-05 0 -1.89116e-05 0 0)
(6.94932e-05 -4.73592e-05 0 -2.62665e-05 -1.69407e-20 0)
(7.9591e-05 -3.41324e-05 0 -3.25549e-05 0 0)
(8.78337e-05 -1.84898e-05 0 -3.74225e-05 0 0)
(-3.43108e-06 -6.40409e-05 0 1.9863e-05 0 0)
(5.13615e-06 -6.33861e-05 0 1.35775e-05 0 0)
(1.38891e-05 -6.12772e-05 0 7.11557e-06 0 0)
(2.25954e-05 -5.76083e-05 0 6.58551e-07 0 0)
(3.09795e-05 -5.22991e-05 0 -5.57839e-06 0 0)
(3.87307e-05 -4.52988e-05 0 -1.13526e-05 0 0)
(4.55123e-05 -3.65873e-05 0 -1.64009e-05 0 0)
(5.09713e-05 -2.61729e-05 0 -2.04477e-05 0 0)
(5.47503e-05 -1.40893e-05 0 -2.32133e-05 0 0)
(-3.92715e-06 -5.0417e-05 0 1.93145e-05 0 0)
(1.88965e-06 -4.92841e-05 0 1.42151e-05 0 0)
(7.69232e-06 -4.70537e-05 0 9.08867e-06 -1.69407e-20 0)
(1.32987e-05 -4.36961e-05 0 4.08143e-06 0 0)
(1.84947e-05 -3.91985e-05 0 -6.36464e-07 0 0)
(2.30366e-05 -3.35672e-05 0 -4.87308e-06 0 0)
(2.66525e-05 -2.68266e-05 0 -8.41524e-06 0 0)
(2.90431e-05 -1.90129e-05 0 -1.10299e-05 0 0)
(2.98868e-05 -1.01628e-05 0 -1.24676e-05 0 0)
(-5.98756e-06 -3.6324e-05 0 2.0498e-05 0 0)
(-2.11136e-06 -3.49997e-05 0 1.61141e-05 0 0)
(1.67216e-06 -3.29074e-05 0 1.1795e-05 0 0)
(5.21372e-06 -3.00546e-05 0 7.66465e-06 0 0)
(8.35671e-06 -2.64698e-05 0 3.85125e-06 0 0)
(1.09177e-05 -2.2209e-05 0 5.00994e-07 0 0)
(1.26761e-05 -1.7354e-05 0 -2.21514e-06 0 0)
(1.33638e-05 -1.20052e-05 0 -4.09438e-06 0 0)
(1.2653e-05 -6.26592e-06 0 -4.89269e-06 0 0)
(-8.67785e-06 -2.06768e-05 0 2.25573e-05 0 0)
(-5.74833e-06 -1.95651e-05 0 1.81668e-05 0 0)
(-3.06806e-06 -1.80049e-05 0 1.40356e-05 0 0)
(-6.58808e-07 -1.59865e-05 0 1.02122e-05 0 0)
(1.40088e-06 -1.35563e-05 0 6.78126e-06 0 0)
(2.99419e-06 -1.0801e-05 0 3.847e-06 0 0)
(3.967e-06 -7.85008e-06 0 1.52964e-06 0 0)
(4.1178e-06 -4.88667e-06 0 -2.88848e-08 0 0)
(3.17571e-06 -2.16888e-06 0 -6.49483e-07 0 0)
(0.0007079 8.68559e-05 -6.77626e-20 -0.000299789 0 0)
(0.000626558 0.000149465 -6.77626e-20 -0.000251174 0 0)
(0.000543872 0.000184546 -6.77626e-20 -0.000207752 -2.71051e-19 0)
(0.000466906 0.000212127 0 -0.000179918 0 0)
(0.000389549 0.000222627 -3.38813e-20 -0.000152738 0 0)
(0.000310994 0.000217489 -3.38813e-20 -0.000125278 0 0)
(0.000228146 0.0001968 -1.69407e-20 -9.54033e-05 0 0)
(0.000136817 0.000157868 0 -5.99819e-05 -2.71051e-19 0)
(3.16578e-05 9.41852e-05 -8.47033e-21 -1.48583e-05 0 0)
(0.000471903 8.53219e-06 -1.35525e-19 -0.000323915 0 0)
(0.000478236 6.9806e-05 0 -0.000316112 0 0)
(0.000464277 0.000117728 0 -0.000290924 -2.71051e-19 0)
(0.000438114 0.000156271 0 -0.000262581 0 0)
(0.000404113 0.000183274 0 -0.000233305 0 0)
(0.000362702 0.000192325 -6.77626e-20 -0.000199717 0 0)
(0.000317976 0.000181726 -3.38813e-20 -0.000164782 0 0)
(0.000274225 0.000149049 3.38813e-20 -0.000131497 0 0)
(0.000237192 9.11284e-05 1.69407e-20 -0.000103874 0 0)
(0.000235694 -9.79872e-05 0 -0.000191064 0 0)
(0.000283142 -6.19072e-05 -1.35525e-19 -0.000212352 0 0)
(0.00031896 -2.16406e-05 0 -0.000223431 0 0)
(0.000342239 1.76128e-05 0 -0.000224044 0 0)
(0.000353037 5.04581e-05 0 -0.000214924 0 0)
(0.00035572 7.26167e-05 0 -0.000199325 0 0)
(0.000355821 8.09603e-05 0 -0.000181479 0 0)
(0.000360015 7.34329e-05 0 -0.000166491 0 0)
(0.000376198 4.9129e-05 0 -0.000160401 0 0)
(6.19092e-05 -0.00012351 0 -6.45153e-05 -6.77626e-20 0)
(0.000120822 -0.000115416 0 -9.49679e-05 0 0)
(0.000175361 -9.83266e-05 0 -0.000120472 0 0)
(0.000222882 -7.50362e-05 0 -0.000139032 0 0)
(0.000262853 -4.96673e-05 0 -0.000150175 0 0)
(0.000297053 -2.63019e-05 0 -0.000155289 0 0)
(0.000329381 -8.05828e-06 0 -0.000157489 0 0)
(0.000365469 3.54334e-06 0 -0.000161294 0 0)
(0.000412262 8.94055e-06 0 -0.000172267 0 0)
(0.00307528 -0.00119246 2.43945e-18 -0.00361622 -1.6263e-18 0)
(0.00218314 -0.000930639 -2.1684e-18 -0.00214233 5.42101e-19 0)
(0.00147521 -0.000556624 -2.71051e-19 -0.00115307 0 0)
(0.00104431 -0.000231358 -1.35525e-19 -0.000630215 0 0)
(0.00082875 -0.000908174 1.6263e-18 -0.0012184 -1.35525e-19 0)
(0.000292603 -0.000583629 5.42101e-19 -0.000405204 -5.42101e-19 0)
(0.000283893 -0.00037574 0 -0.000305292 2.71051e-19 0)
(0.000357625 -0.000216656 0 -0.000318886 -1.35525e-19 0)
(-0.000511453 -4.08693e-05 0 0.000113045 -1.35525e-19 0)
(-0.000347117 -0.000134962 0 3.26643e-05 0 0)
(-0.00014339 -0.000193246 0 -6.4115e-05 0 0)
(1.40312e-05 -0.000197119 0 -0.000134391 0 0)
(-0.000416155 0.0002107 0 4.38126e-05 0 0)
(-0.000338454 4.0092e-05 2.71051e-19 5.17502e-05 0 0)
(-0.000232753 -6.43513e-05 0 2.3398e-05 0 0)
(-0.000131515 -0.000121159 0 -1.17924e-05 0 0)
(-0.00012602 0.000215219 0 -9.82761e-05 6.77626e-20 0)
(-0.00016641 0.000145494 0 -2.47867e-05 0 0)
(-0.000176842 8.03479e-05 0 1.88493e-05 0 0)
(-0.000168003 2.29821e-05 0 4.12873e-05 0 0)
(-3.89446e-05 0.000161349 0 -0.000138973 3.38813e-20 0)
(-8.39386e-05 0.000124779 0 -7.39695e-05 0 0)
(-0.000108331 8.3815e-05 0 -2.8578e-05 0 0)
(-0.000117507 4.53822e-05 0 7.10285e-07 1.69407e-20 0)
(1.4669e-05 0.000105235 0 -0.000161915 0 0)
(-2.54947e-05 8.93255e-05 0 -0.000110061 1.69407e-20 0)
(-5.39774e-05 6.75082e-05 0 -6.79091e-05 1.69407e-20 0)
(-7.24036e-05 4.47587e-05 0 -3.51289e-05 0 0)
(4.15983e-05 4.97712e-05 0 -0.000173074 0 0)
(6.22314e-06 4.47919e-05 0 -0.000130063 0 0)
(-2.24475e-05 3.63767e-05 0 -9.1234e-05 8.47033e-21 0)
(-4.40537e-05 2.61595e-05 0 -5.8073e-05 -4.23516e-21 0)
(-8.14328e-05 2.39744e-06 0 2.09333e-05 0 0)
(-9.44024e-05 -3.28529e-06 0 3.34618e-05 0 0)
(-0.000107462 -1.88574e-05 0 4.79639e-05 -4.23516e-21 0)
(-0.000114379 -4.56611e-05 0 5.9957e-05 -2.11758e-21 0)
(-8.69511e-05 -1.1793e-05 0 4.82942e-05 4.23516e-21 0)
(-8.84598e-05 -2.53767e-05 0 5.17541e-05 0 0)
(-8.72863e-05 -4.31725e-05 0 5.45543e-05 0 0)
(-8.03926e-05 -6.50257e-05 0 5.43409e-05 0 0)
(-8.2401e-05 -1.79063e-05 0 5.98611e-05 0 0)
(-7.88213e-05 -3.51273e-05 0 5.87067e-05 0 0)
(-7.16022e-05 -5.35718e-05 0 5.57284e-05 0 0)
(-5.88234e-05 -7.28082e-05 0 4.9485e-05 0 0)
(-7.23949e-05 -1.93258e-05 0 6.19842e-05 4.23516e-21 0)
(-6.71326e-05 -3.73403e-05 0 5.88085e-05 0 0)
(-5.81255e-05 -5.5008e-05 0 5.33292e-05 0 0)
(-4.40283e-05 -7.18264e-05 0 4.46436e-05 0 0)
(-6.01906e-05 -1.82805e-05 0 5.92462e-05 0 0)
(-5.4927e-05 -3.53461e-05 0 5.53979e-05 0 0)
(-4.62633e-05 -5.12553e-05 0 4.91362e-05 0 0)
(-3.32441e-05 -6.54366e-05 0 3.99223e-05 0 0)
(-4.80155e-05 -1.60531e-05 0 5.49255e-05 0 0)
(-4.3515e-05 -3.11989e-05 0 5.10443e-05 0 0)
(-3.61795e-05 -4.47918e-05 0 4.48216e-05 0 0)
(-2.53416e-05 -5.62135e-05 0 3.59839e-05 0 0)
(-3.74182e-05 -1.33009e-05 0 5.14734e-05 0 0)
(-3.40067e-05 -2.5978e-05 0 4.78216e-05 0 0)
(-2.83521e-05 -3.69445e-05 0 4.19033e-05 0 0)
(-2.00031e-05 -4.56206e-05 0 3.36756e-05 0 0)
(-2.96778e-05 -1.02647e-05 0 5.10419e-05 0 0)
(-2.75362e-05 -1.99135e-05 0 4.76636e-05 0 0)
(-2.34199e-05 -2.79372e-05 0 4.17498e-05 0 0)
(-1.72553e-05 -3.39449e-05 0 3.37532e-05 0 0)
(-2.66457e-05 -6.63361e-06 0 5.64687e-05 0 0)
(-2.55038e-05 -1.20427e-05 0 5.25282e-05 0 0)
(-2.20282e-05 -1.6709e-05 0 4.55138e-05 0 0)
(-1.71291e-05 -2.01322e-05 0 3.65946e-05 0 0)
(-5.73297e-05 -0.000122005 0 2.86401e-05 1.05879e-21 0)
(-9.60656e-06 -0.000134748 0 4.66774e-06 -7.94093e-22 0)
(3.86791e-05 -0.000137993 0 -1.86839e-05 -5.29396e-22 0)
(8.63996e-05 -0.000133914 0 -4.07359e-05 2.11758e-21 0)
(0.00013306 -0.000123913 0 -6.12774e-05 4.23516e-21 0)
(0.000178794 -0.000108948 0 -8.05707e-05 0 0)
(0.000224207 -8.94723e-05 0 -9.9245e-05 8.47033e-21 0)
(0.000269978 -6.53322e-05 0 -0.000118012 1.69407e-20 0)
(0.000316117 -3.58601e-05 0 -0.000137104 0 0)
(-3.74232e-05 -0.00010903 0 3.48643e-05 0 0)
(-5.20642e-06 -0.00011908 0 1.83292e-05 0 0)
(2.97568e-05 -0.000123283 0 2.6622e-07 0 0)
(6.61525e-05 -0.000121782 0 -1.83827e-05 0 0)
(0.000103117 -0.000114842 0 -3.7035e-05 0 0)
(0.000140087 -0.000102678 0 -5.53552e-05 0 0)
(0.000176656 -8.53719e-05 0 -7.31405e-05 0 0)
(0.000212437 -6.28458e-05 0 -9.02003e-05 0 0)
(0.000247013 -3.48512e-05 0 -0.00010629 0 0)
(-2.06871e-05 -0.000100026 0 3.11208e-05 0 0)
(2.06428e-06 -0.000105476 0 1.8912e-05 0 0)
(2.71158e-05 -0.000107342 0 5.17621e-06 0 0)
(5.36294e-05 -0.000105216 0 -9.46093e-06 0 0)
(8.0845e-05 -9.8878e-05 0 -2.44478e-05 0 0)
(0.000108075 -8.82108e-05 0 -3.92986e-05 0 0)
(0.000134677 -7.31406e-05 0 -5.35681e-05 0 0)
(0.000160025 -5.36062e-05 0 -6.68204e-05 0 0)
(0.000183455 -2.95461e-05 0 -7.85853e-05 0 0)
(-1.04179e-05 -8.95914e-05 0 2.6152e-05 0 0)
(6.21026e-06 -9.17843e-05 0 1.64856e-05 0 0)
(2.41813e-05 -9.14852e-05 0 5.85714e-06 0 0)
(4.3001e-05 -8.83354e-05 0 -5.35771e-06 0 0)
(6.21288e-05 -8.20797e-05 0 -1.67534e-05 0 0)
(8.10033e-05 -7.25513e-05 0 -2.79121e-05 0 0)
(9.90522e-05 -5.96552e-05 0 -3.84093e-05 0 0)
(0.000115692 -4.3357e-05 0 -4.78114e-05 0 0)
(0.000130325 -2.36801e-05 0 -5.56695e-05 0 0)
(-5.22136e-06 -7.73058e-05 0 2.22071e-05 0 0)
(6.89046e-06 -7.76233e-05 0 1.44004e-05 0 0)
(1.96151e-05 -7.60572e-05 0 6.11934e-06 0 0)
(3.26321e-05 -7.23898e-05 0 -2.39036e-06 0 0)
(4.55654e-05 -6.64521e-05 0 -1.08401e-05 0 0)
(5.79995e-05 -5.81292e-05 0 -1.89116e-05 0 0)
(6.94932e-05 -4.73592e-05 0 -2.62665e-05 -1.69407e-20 0)
(7.9591e-05 -3.41324e-05 0 -3.25549e-05 0 0)
(8.78337e-05 -1.84898e-05 0 -3.74225e-05 0 0)
(-3.43108e-06 -6.40409e-05 0 1.9863e-05 0 0)
(5.13615e-06 -6.33861e-05 0 1.35775e-05 0 0)
(1.38891e-05 -6.12772e-05 0 7.11557e-06 0 0)
(2.25954e-05 -5.76083e-05 0 6.58551e-07 0 0)
(3.09795e-05 -5.22991e-05 0 -5.57839e-06 0 0)
(3.87307e-05 -4.52988e-05 0 -1.13526e-05 0 0)
(4.55123e-05 -3.65873e-05 0 -1.64009e-05 0 0)
(5.09713e-05 -2.61729e-05 0 -2.04477e-05 0 0)
(5.47503e-05 -1.40893e-05 0 -2.32133e-05 0 0)
(-3.92715e-06 -5.0417e-05 0 1.93145e-05 0 0)
(1.88965e-06 -4.92841e-05 0 1.42151e-05 0 0)
(7.69232e-06 -4.70537e-05 0 9.08867e-06 -1.69407e-20 0)
(1.32987e-05 -4.36961e-05 0 4.08143e-06 0 0)
(1.84947e-05 -3.91985e-05 0 -6.36464e-07 0 0)
(2.30366e-05 -3.35672e-05 0 -4.87308e-06 0 0)
(2.66525e-05 -2.68266e-05 0 -8.41524e-06 0 0)
(2.90431e-05 -1.90129e-05 0 -1.10299e-05 0 0)
(2.98868e-05 -1.01628e-05 0 -1.24676e-05 0 0)
(-5.98756e-06 -3.6324e-05 0 2.0498e-05 0 0)
(-2.11136e-06 -3.49997e-05 0 1.61141e-05 0 0)
(1.67216e-06 -3.29074e-05 0 1.1795e-05 0 0)
(5.21372e-06 -3.00546e-05 0 7.66465e-06 0 0)
(8.35671e-06 -2.64698e-05 0 3.85125e-06 0 0)
(1.09177e-05 -2.2209e-05 0 5.00994e-07 0 0)
(1.26761e-05 -1.7354e-05 0 -2.21514e-06 0 0)
(1.33638e-05 -1.20052e-05 0 -4.09438e-06 0 0)
(1.2653e-05 -6.26592e-06 0 -4.89269e-06 0 0)
(-8.67785e-06 -2.06768e-05 0 2.25573e-05 0 0)
(-5.74833e-06 -1.95651e-05 0 1.81668e-05 0 0)
(-3.06806e-06 -1.80049e-05 0 1.40356e-05 0 0)
(-6.58808e-07 -1.59865e-05 0 1.02122e-05 0 0)
(1.40088e-06 -1.35563e-05 0 6.78126e-06 0 0)
(2.99419e-06 -1.0801e-05 0 3.847e-06 0 0)
(3.967e-06 -7.85008e-06 0 1.52964e-06 0 0)
(4.1178e-06 -4.88667e-06 0 -2.88848e-08 0 0)
(3.17571e-06 -2.16888e-06 0 -6.49483e-07 0 0)
(0.0007079 8.68559e-05 -6.77626e-20 -0.000299789 0 0)
(0.000626558 0.000149465 -6.77626e-20 -0.000251174 0 0)
(0.000543872 0.000184546 -6.77626e-20 -0.000207752 -2.71051e-19 0)
(0.000466906 0.000212127 0 -0.000179918 0 0)
(0.000389549 0.000222627 -3.38813e-20 -0.000152738 0 0)
(0.000310994 0.000217489 -3.38813e-20 -0.000125278 0 0)
(0.000228146 0.0001968 -1.69407e-20 -9.54033e-05 0 0)
(0.000136817 0.000157868 0 -5.99819e-05 -2.71051e-19 0)
(3.16578e-05 9.41852e-05 -8.47033e-21 -1.48583e-05 0 0)
(0.000471903 8.53219e-06 -1.35525e-19 -0.000323915 0 0)
(0.000478236 6.9806e-05 0 -0.000316112 0 0)
(0.000464277 0.000117728 0 -0.000290924 -2.71051e-19 0)
(0.000438114 0.000156271 0 -0.000262581 0 0)
(0.000404113 0.000183274 0 -0.000233305 0 0)
(0.000362702 0.000192325 -6.77626e-20 -0.000199717 0 0)
(0.000317976 0.000181726 -3.38813e-20 -0.000164782 0 0)
(0.000274225 0.000149049 3.38813e-20 -0.000131497 0 0)
(0.000237192 9.11284e-05 1.69407e-20 -0.000103874 0 0)
(0.000235694 -9.79872e-05 0 -0.000191064 0 0)
(0.000283142 -6.19072e-05 -1.35525e-19 -0.000212352 0 0)
(0.00031896 -2.16406e-05 0 -0.000223431 0 0)
(0.000342239 1.76128e-05 0 -0.000224044 0 0)
(0.000353037 5.04581e-05 0 -0.000214924 0 0)
(0.00035572 7.26167e-05 0 -0.000199325 0 0)
(0.000355821 8.09603e-05 0 -0.000181479 0 0)
(0.000360015 7.34329e-05 0 -0.000166491 0 0)
(0.000376198 4.9129e-05 0 -0.000160401 0 0)
(6.19092e-05 -0.00012351 0 -6.45153e-05 -6.77626e-20 0)
(0.000120822 -0.000115416 0 -9.49679e-05 0 0)
(0.000175361 -9.83266e-05 0 -0.000120472 0 0)
(0.000222882 -7.50362e-05 0 -0.000139032 0 0)
(0.000262853 -4.96673e-05 0 -0.000150175 0 0)
(0.000297053 -2.63019e-05 0 -0.000155289 0 0)
(0.000329381 -8.05828e-06 0 -0.000157489 0 0)
(0.000365469 3.54334e-06 0 -0.000161294 0 0)
(0.000412262 8.94055e-06 0 -0.000172267 0 0)
)
;

boundaryField
{
    back
    {
        type            empty;
    }
    front
    {
        type            empty;
    }
    left
    {
        type            calculated;
    }
    hole
    {
        type            calculated;
    }
    down
    {
        type            calculated;
    }
    right
    {
        type            calculated;
    }
    up
    {
        type            calculated;
    }
}


// ************************************************************************* //
