/*--------------------------------*- C++ -*----------------------------------*\
| =========                 |                                                 |
| \\      /  F ield         | OpenFOAM: The Open Source CFD Toolbox           |
|  \\    /   O peration     | Version:  v2012                                 |
|   \\  /    A nd           | Website:  www.openfoam.com                      |
|    \\/     M anipulation  |                                                 |
\*---------------------------------------------------------------------------*/
FoamFile
{
    version     2.0;
    format      ascii;
    class       pointScalarField;
    location    "20";
    object      pEpsilonEq;
}
// * * * * * * * * * * * * * * * * * * * * * * * * * * * * * * * * * * * * * //

dimensions      [0 0 0 0 0 0 0];


internalField   nonuniform List<scalar> 
572
(
0.000160275
5.6373e-05
2.78908e-07
0.00031447
0.00569435
3.26855e-05
0.00111935
0.000160237
0.000338353
2.75246e-05
0.000436369
0.000436369
0.000160237
0.00111935
0.00569435
0.000160275
3.26855e-05
5.6373e-05
2.75246e-05
2.78908e-07
0.000338353
0.00031447
0.000710363
0.000431041
0.000241807
0.000153539
0.000115079
8.28747e-05
5.81426e-05
3.99442e-05
0.000124144
8.36884e-05
5.08631e-05
3.32987e-05
4.77723e-05
7.51795e-05
8.41757e-05
8.16001e-05
7.33662e-05
6.34635e-05
5.45838e-05
4.87563e-05
4.79956e-05
5.55812e-05
5.04346e-05
4.3333e-05
3.48768e-05
2.2063e-05
1.81034e-05
1.43617e-05
1.0949e-05
7.95704e-06
5.45288e-06
3.45947e-06
1.89741e-06
4.85912e-07
1.8706e-06
9.06446e-06
2.33963e-05
4.47433e-05
7.35786e-05
0.000111014
0.000158346
0.000215697
0.000278762
0.000369809
0.00033925
0.000220938
8.15532e-05
0.000310353
0.000329435
0.000362679
0.000404115
0.000453585
0.000513585
0.000588355
0.000681682
0.000815245
0.00181052
0.00292539
0.00430888
0.00536572
0.000149308
0.0001268
0.000114021
0.000102217
8.91058e-05
7.50977e-05
6.09625e-05
4.71214e-05
3.39447e-05
0.000223451
0.000223929
0.000227307
0.00023238
0.000239988
0.000251566
0.000268693
0.000293274
0.000328052
0.0051227
0.0028819
0.000603802
0.000558484
0.000339096
0.000261199
0.00020896
0.000179297
0.000322394
0.000228054
0.000163037
0.000121643
0.000322394
0.000228054
0.000163037
0.000121643
0.000153539
0.000241807
0.000431041
0.000710363
0.00181052
0.00292539
0.00430888
0.00536572
0.0051227
0.0028819
0.000603802
0.000558484
0.000339096
0.000261199
0.00020896
0.000179297
0.000124144
8.36884e-05
5.08631e-05
3.32987e-05
3.99442e-05
5.81426e-05
8.28747e-05
0.000115079
4.77723e-05
7.51795e-05
8.41757e-05
8.16001e-05
7.33662e-05
6.34635e-05
5.45838e-05
4.87563e-05
4.79956e-05
5.55812e-05
5.04346e-05
4.3333e-05
3.48768e-05
3.39447e-05
4.71214e-05
6.09625e-05
7.50977e-05
8.91058e-05
0.000102217
0.000114021
0.0001268
0.000149308
2.2063e-05
1.81034e-05
1.43617e-05
1.0949e-05
7.95704e-06
5.45288e-06
3.45947e-06
1.89741e-06
4.85912e-07
1.8706e-06
9.06446e-06
2.33963e-05
4.47433e-05
7.35786e-05
0.000111014
0.000158346
0.000215697
0.000278762
0.000328052
0.000293274
0.000268693
0.000251566
0.000239988
0.00023238
0.000227307
0.000223929
0.000223451
0.000369809
0.00033925
0.000220938
8.15532e-05
0.000310353
0.000329435
0.000362679
0.000404115
0.000453585
0.000513585
0.000588355
0.000681682
0.000815245
0.00410534
0.00271873
0.00165144
0.00101247
0.00158541
0.000786056
0.000551366
0.000464014
0.000387121
0.000288706
0.000238057
0.000246496
0.000380946
0.000249057
0.000179617
0.000163195
0.000260011
0.000197413
0.00015539
0.000130726
0.000203872
0.000153504
0.000116488
9.44467e-05
0.000166039
0.000122736
8.82716e-05
6.6476e-05
0.000143475
0.000102812
6.91194e-05
4.62257e-05
6.25083e-05
7.66602e-05
9.44452e-05
0.000115065
8.0303e-05
8.69578e-05
9.64906e-05
0.000108463
8.50302e-05
8.94139e-05
9.62234e-05
0.000104824
8.08039e-05
8.45802e-05
9.04311e-05
9.74661e-05
7.2116e-05
7.56506e-05
8.08542e-05
8.65949e-05
6.22992e-05
6.5457e-05
6.97885e-05
7.40234e-05
5.37749e-05
5.61514e-05
5.90385e-05
6.12881e-05
4.86116e-05
4.95858e-05
4.99367e-05
4.93343e-05
4.96e-05
4.80019e-05
4.42061e-05
3.93013e-05
0.000149673
0.000155821
0.000162883
0.000171843
0.000183396
0.000198296
0.000217445
0.000241735
0.00027156
0.000132637
0.000138241
0.000143719
0.0001497
0.000156901
0.000166095
0.000178067
0.000193536
0.000213137
0.000119361
0.000122381
0.000125058
0.000127687
0.000130709
0.000134685
0.00014027
0.000148154
0.000158979
0.000105714
0.000106419
0.000106638
0.000106495
0.000106234
0.000106234
0.000107015
0.000109223
0.000113571
9.08354e-05
9.00167e-05
8.85846e-05
8.65882e-05
8.41568e-05
8.15283e-05
7.90871e-05
7.74042e-05
7.72522e-05
7.53604e-05
7.36188e-05
7.12098e-05
6.81575e-05
6.45299e-05
6.04597e-05
5.61849e-05
5.21259e-05
4.9003e-05
5.99627e-05
5.76022e-05
5.4626e-05
5.10654e-05
4.69695e-05
4.24105e-05
3.75023e-05
3.24549e-05
2.77378e-05
4.49051e-05
4.20216e-05
3.87063e-05
3.49972e-05
3.09439e-05
2.66141e-05
2.20822e-05
1.74158e-05
1.27145e-05
3.02764e-05
2.67987e-05
2.33047e-05
1.97558e-05
1.61901e-05
1.26882e-05
9.35427e-06
6.27923e-06
3.44362e-06
0.000605841
0.00054977
0.000496261
0.000456737
0.000412723
0.000361034
0.000297478
0.000216323
0.000112162
0.000462211
0.000468772
0.000460357
0.000446814
0.000428324
0.000397125
0.000352598
0.000294541
0.000227646
0.000271534
0.000295813
0.000315755
0.000329936
0.000336215
0.000335321
0.000329161
0.000322109
0.000323066
0.000160212
0.000182639
0.000205908
0.000227923
0.000248121
0.000267133
0.000287026
0.000311676
0.000346984
0.00410534
0.00271873
0.00165144
0.00101247
0.00158541
0.000786056
0.000551366
0.000464014
0.000387121
0.000288706
0.000238057
0.000246496
0.000380946
0.000249057
0.000179617
0.000163195
0.000260011
0.000197413
0.00015539
0.000130726
0.000203872
0.000153504
0.000116488
9.44467e-05
0.000166039
0.000122736
8.82716e-05
6.6476e-05
0.000143475
0.000102812
6.91194e-05
4.62257e-05
6.25083e-05
7.66602e-05
9.44452e-05
0.000115065
8.0303e-05
8.69578e-05
9.64906e-05
0.000108463
8.50302e-05
8.94139e-05
9.62234e-05
0.000104824
8.08039e-05
8.45802e-05
9.04311e-05
9.74661e-05
7.2116e-05
7.56506e-05
8.08542e-05
8.65949e-05
6.22992e-05
6.5457e-05
6.97885e-05
7.40234e-05
5.37749e-05
5.61514e-05
5.90385e-05
6.12881e-05
4.86116e-05
4.95858e-05
4.99367e-05
4.93343e-05
4.96e-05
4.80019e-05
4.42061e-05
3.93013e-05
0.000149673
0.000155821
0.000162883
0.000171843
0.000183396
0.000198296
0.000217445
0.000241735
0.00027156
0.000132637
0.000138241
0.000143719
0.0001497
0.000156901
0.000166095
0.000178067
0.000193536
0.000213137
0.000119361
0.000122381
0.000125058
0.000127687
0.000130709
0.000134685
0.00014027
0.000148154
0.000158979
0.000105714
0.000106419
0.000106638
0.000106495
0.000106234
0.000106234
0.000107015
0.000109223
0.000113571
9.08354e-05
9.00167e-05
8.85846e-05
8.65882e-05
8.41568e-05
8.15283e-05
7.90871e-05
7.74042e-05
7.72522e-05
7.53604e-05
7.36188e-05
7.12098e-05
6.81575e-05
6.45299e-05
6.04597e-05
5.61849e-05
5.21259e-05
4.9003e-05
5.99627e-05
5.76022e-05
5.4626e-05
5.10654e-05
4.69695e-05
4.24105e-05
3.75023e-05
3.24549e-05
2.77378e-05
4.49051e-05
4.20216e-05
3.87063e-05
3.49972e-05
3.09439e-05
2.66141e-05
2.20822e-05
1.74158e-05
1.27145e-05
3.02764e-05
2.67987e-05
2.33047e-05
1.97558e-05
1.61901e-05
1.26882e-05
9.35427e-06
6.27923e-06
3.44362e-06
0.000605841
0.00054977
0.000496261
0.000456737
0.000412723
0.000361034
0.000297478
0.000216323
0.000112162
0.000462211
0.000468772
0.000460357
0.000446814
0.000428324
0.000397125
0.000352598
0.000294541
0.000227646
0.000271534
0.000295813
0.000315755
0.000329936
0.000336215
0.000335321
0.000329161
0.000322109
0.000323066
0.000160212
0.000182639
0.000205908
0.000227923
0.000248121
0.000267133
0.000287026
0.000311676
0.000346984
)
;

boundaryField
{
    back
    {
        type            empty;
    }
    front
    {
        type            empty;
    }
    left
    {
        type            calculated;
    }
    hole
    {
        type            calculated;
    }
    down
    {
        type            calculated;
    }
    right
    {
        type            calculated;
    }
    up
    {
        type            calculated;
    }
}


// ************************************************************************* //
