/*--------------------------------*- C++ -*----------------------------------*\
| =========                 |                                                 |
| \\      /  F ield         | OpenFOAM: The Open Source CFD Toolbox           |
|  \\    /   O peration     | Version:  v2012                                 |
|   \\  /    A nd           | Website:  www.openfoam.com                      |
|    \\/     M anipulation  |                                                 |
\*---------------------------------------------------------------------------*/
FoamFile
{
    version     2.0;
    format      ascii;
    class       volVectorField;
    location    "13";
    object      D;
}
// * * * * * * * * * * * * * * * * * * * * * * * * * * * * * * * * * * * * * //

dimensions      [0 1 0 0 0 0 0];


internalField   nonuniform List<vector> 
30465
(
(0.00271471 -0.000227711 0)
(0.00320237 -7.40534e-05 0)
(0.00135191 -0.000959954 0)
(0.00298888 -0.000236278 0)
(0.00328071 -0.000307948 0)
(0.00328526 -0.000311489 0)
(0.00124276 -0.000989868 0)
(0.000313373 -0.00207847 0)
(0.000835676 -0.00155805 0)
(0.00177704 -0.000643386 0)
(0.000225289 -0.00213303 0)
(0.00158008 -0.000663965 0)
(0.00274389 -0.00016607 0)
(0.00279767 -0.000172048 0)
(0.00223297 -0.00043617 0)
(0.00116914 -0.00109489 0)
(0.00326681 -0.000281133 0)
(0.00185351 -0.000726236 0)
(0.000848414 -0.00154072 0)
(0.00360699 -0.000209916 0)
(0.00320375 -1.73618e-05 0)
(0.00320874 -1.67751e-05 0)
(0.00290894 -6.22642e-05 0)
(0.000640003 -0.00171772 0)
(0.00290265 -6.39427e-05 0)
(0.00363518 -0.000108942 0)
(0.00362755 -0.000111627 0)
(0.00327874 -7.42384e-05 0)
(0.00346717 -5.68645e-05 0)
(0.00146474 -0.00115134 0)
(0.00243587 -0.000232541 0)
(0.00380978 -5.69731e-05 0)
(0.00271328 -0.000200419 0)
(0.00307912 -0.000203116 0)
(0.00273598 -0.000368494 0)
(0.0033747 -5.21265e-05 0)
(0.000791868 -0.00157699 0)
(0.00233313 -0.000948825 0)
(0.00316844 -0.000200933 0)
(0.00160095 -0.000653965 0)
(0.00308447 -4.44997e-05 0)
(0.00223209 -0.00039121 0)
(0.000617119 -0.0017379 0)
(0.00322105 -6.66664e-05 0)
(0.00323164 -6.56862e-05 0)
(0.000966976 -0.00146579 0)
(0.00186791 -0.000531099 0)
(0.00321045 -7.34334e-05 0)
(0.00372862 -9.33306e-05 0)
(0.00317959 -3.24647e-05 0)
(0.0031761 -3.394e-05 0)
(0.00298282 -0.000170741 0)
(0.000438409 -0.00178704 0)
(0.000422888 -0.00181117 0)
(0.0013313 -0.00154949 0)
(0.00306465 -9.87175e-05 0)
(0.0013443 -0.00156022 0)
(0.00345729 -0.000160307 0)
(0.00349319 -6.18051e-05 0)
(0.00387039 -1.76046e-05 0)
(0.0038683 -1.71201e-05 0)
(0.00164688 -0.000778922 0)
(0.00340781 -2.32144e-06 0)
(0.00267023 -0.000322675 0)
(0.00267482 -0.000318384 0)
(0.00303254 -1.61644e-05 0)
(0.00250997 -0.000366912 0)
(0.000825332 -0.00166084 0)
(0.00320574 -4.93622e-06 0)
(0.00328044 -0.000146043 0)
(0.00287889 -7.77963e-05 0)
(0.00377035 -0.000108903 0)
(0.00101564 -0.00103943 0)
(0.00176474 -0.00056291 0)
(0.00271168 -0.000203624 0)
(0.00163538 -0.000640488 0)
(0.00361454 -2.80761e-05 0)
(0.00361655 -2.65484e-05 0)
(0.00250052 -0.000526947 0)
(0.000254834 -0.00211214 0)
(0.000826242 -0.00129753 0)
(0.000804486 -0.0013149 0)
(0.00324098 -0.000249053 0)
(0.00350744 -0.000108553 0)
(0.00285761 -0.000155653 0)
(0.00379272 -8.49391e-05 0)
(0.00349639 -6.32644e-05 0)
(0.00164901 -0.000631803 0)
(0.00330989 -0.000337882 0)
(0.00329613 -3.36821e-05 0)
(0.00384799 -4.6341e-05 0)
(0.00384593 -4.62124e-05 0)
(0.00327404 -0.000288787 0)
(0.00327692 -0.000284433 0)
(0.00177001 -0.00065297 0)
(0.00370115 -4.2492e-05 0)
(0.00348763 -7.08295e-05 0)
(0.00349645 -7.03026e-05 0)
(0.000340829 -0.00203352 0)
(0.00353172 -5.85978e-05 0)
(0.00309783 -0.000265788 0)
(0.00315307 -2.12666e-05 0)
(0.00315379 -2.20826e-05 0)
(0.0024162 -0.000241607 0)
(0.00283675 -0.00012654 0)
(0.00235401 -0.000429417 0)
(0.00236916 -0.00042739 0)
(0.00366639 -0.000125635 0)
(0.00286683 -8.07588e-05 0)
(0.00299098 -5.50334e-05 0)
(0.00126961 -0.00107069 0)
(0.00301297 -0.000279149 0)
(0.00264696 -0.000365528 0)
(0.00265695 -0.000366797 0)
(0.00260747 -0.000189311 0)
(0.00261427 -0.000185188 0)
(0.00311756 -8.37648e-06 0)
(0.00378203 -0.000107036 0)
(0.0037527 -1.44027e-05 0)
(0.000315027 -0.00191487 0)
(0.00149028 -0.000719513 0)
(0.00336863 -5.27297e-05 0)
(0.00292773 -0.000108218 0)
(0.0030693 -2.82775e-05 0)
(0.00324733 -6.83617e-05 0)
(0.00324563 -6.64411e-05 0)
(0.00318474 -7.47493e-06 0)
(0.0027574 -0.00031987 0)
(0.00372366 -0.000170729 0)
(0.00305247 -4.98268e-05 0)
(0.000645952 -0.00181668 0)
(0.00379018 -9.54421e-06 0)
(0.00124519 -0.00108831 0)
(0.000143516 -0.00218134 0)
(0.0035932 -0.000164518 0)
(0.00308487 -1.90508e-05 0)
(0.00104591 -0.00103656 0)
(0.00344635 -0.000104744 0)
(0.000716987 -0.0016909 0)
(0.00105724 -0.0010251 0)
(0.002892 -0.000102154 0)
(0.000163085 -0.00220023 0)
(0.00308774 -1.34048e-05 0)
(0.00308081 -4.59476e-05 0)
(0.00345995 -3.39182e-05 0)
(0.00163409 -0.00082496 0)
(0.00387796 -3.7996e-05 0)
(0.00387342 -3.87863e-05 0)
(0.00231781 -0.000312295 0)
(0.00394221 -1.52888e-06 0)
(0.00362057 -0.000292033 0)
(0.00218073 -0.000336185 0)
(0.00372493 -7.55324e-05 0)
(0.00372961 -7.55651e-05 0)
(0.00311836 -0.000319367 0)
(0.00276248 -0.000171994 0)
(0.00242798 -0.000394401 0)
(0.00319619 -0.00021653 0)
(0.0020344 -0.000463042 0)
(0.00325975 -5.91831e-05 0)
(0.00326653 -5.77539e-05 0)
(0.00202463 -0.000470551 0)
(0.00234211 -0.000362558 0)
(0.00233448 -0.000367917 0)
(0.00310053 -1.30887e-05 0)
(0.00374385 -3.55569e-06 0)
(0.00354407 -6.79453e-05 0)
(0.000373535 -0.00203072 0)
(0.00345717 -0.000117283 0)
(0.00201056 -0.000461899 0)
(0.00271845 -0.000138288 0)
(0.0038036 -2.57832e-05 0)
(0.00366863 -5.0802e-05 0)
(0.0036756 -5.09148e-05 0)
(0.00342877 -0.000105732 0)
(0.00197511 -0.000483668 0)
(0.00277713 -0.000326871 0)
(0.00251514 -0.000195651 0)
(0.00310536 -1.09453e-05 0)
(0.000159672 -0.00220482 0)
(0.00136558 -0.000842905 0)
(0.00259018 -0.000242485 0)
(0.00260257 -0.00023914 0)
(0.00338378 -0.000339428 0)
(0.00370321 -0.00017767 0)
(0.00267328 -0.000161931 0)
(0.000552564 -0.00176103 0)
(0.00298155 -0.0001724 0)
(0.0037598 -1.41909e-05 0)
(0.00329213 -0.000279216 0)
(0.00191445 -0.000545012 0)
(0.00368522 -0.000113692 0)
(0.00304291 -3.2764e-05 0)
(0.000187584 -0.00218779 0)
(0.00323948 -0.000272612 0)
(0.00323453 -0.000270605 0)
(0.00125768 -0.000974032 0)
(0.00311748 -0.000166577 0)
(0.00329645 -0.000211326 0)
(0.00270241 -0.000231938 0)
(0.00378918 -2.20189e-05 0)
(0.00353928 -5.87652e-05 0)
(0.003911 -1.24106e-05 0)
(0.000162803 -0.00216396 0)
(0.00254084 -0.000180454 0)
(0.00289612 -9.95136e-05 0)
(0.00306569 -2.86194e-05 0)
(0.000288739 -0.00209031 0)
(0.00243806 -0.000227742 0)
(0.00325097 -4.85338e-05 0)
(0.00134256 -0.000945232 0)
(0.00291219 -9.33776e-05 0)
(0.00318742 -2.65566e-06 0)
(0.00356211 -8.12898e-05 0)
(0.000988312 -0.00144844 0)
(0.00241321 -0.000396202 0)
(0.00240031 -0.000402242 0)
(0.00360815 -0.000120251 0)
(0.0036145 -0.000117317 0)
(0.00192537 -0.000537529 0)
(0.00285211 -0.000314697 0)
(0.00279141 -0.000185827 0)
(0.00374039 -7.0137e-05 0)
(0.00357732 -0.000166887 0)
(0.00257316 -0.000383326 0)
(0.00301758 -0.000109264 0)
(0.00166216 -0.000765029 0)
(0.00218312 -0.000370039 0)
(0.00329351 -3.25198e-05 0)
(0.00268285 -0.000147966 0)
(0.00162985 -0.000789475 0)
(0.00364777 -5.98968e-05 0)
(0.00365287 -6.04829e-05 0)
(0.00265595 -0.000372592 0)
(0.00284176 -0.000100754 0)
(0.00310215 -1.41893e-05 0)
(0.00283468 -0.000343992 0)
(0.0028442 -0.000339583 0)
(0.00102376 -0.00115813 0)
(0.00104776 -0.00113417 0)
(0.00193399 -0.000515963 0)
(0.00269281 -0.000142688 0)
(0.00282317 -0.00013163 0)
(0.00256129 -0.000264304 0)
(0.00340548 -8.58364e-05 0)
(0.00224086 -0.000452878 0)
(0.00244476 -0.000225962 0)
(0.00269373 -0.00016677 0)
(0.00091033 -0.00157913 0)
(0.00283009 -0.000105607 0)
(0.00317014 -0.000172668 0)
(0.00305165 -5.49595e-05 0)
(0.0030532 -5.11659e-05 0)
(0.00166066 -0.000783513 0)
(0.00257533 -0.000184481 0)
(0.000674123 -0.00179507 0)
(0.00182588 -0.00105314 0)
(0.00184565 -0.00103094 0)
(0.00224101 -0.00031302 0)
(5.30837e-05 -0.00219039 0)
(0.0037782 -0.000105505 0)
(0.0027841 -0.000101687 0)
(0.00276974 -0.000106121 0)
(0.00302747 -7.30434e-05 0)
(0.00152895 -0.000952765 0)
(0.0015425 -0.000933718 0)
(0.00314771 -0.000154889 0)
(0.00186049 -0.000500847 0)
(0.00262881 -0.000180273 0)
(0.00317751 -0.000138025 0)
(0.00374279 -4.7246e-06 0)
(0.00351519 -0.000235977 0)
(0.00341444 -5.83219e-05 0)
(0.00327046 -0.000308602 0)
(0.0028456 -0.000124578 0)
(0.00219048 -0.00048963 0)
(0.0027241 -0.000380507 0)
(0.00275524 -0.000108338 0)
(0.00133195 -0.00116362 0)
(0.00317903 -1.55407e-05 0)
(0.00130795 -0.00117901 0)
(0.00295576 -0.000353113 0)
(0.00270934 -0.000380773 0)
(0.00337971 -0.000201405 0)
(0.00324424 -4.94328e-05 0)
(0.00339227 -0.000175871 0)
(0.00222284 -0.000341542 0)
(0.00363382 -0.00012358 0)
(0.00394018 -1.20018e-06 0)
(0.00361652 -0.000295401 0)
(0.00252907 -0.000184759 0)
(0.00262732 -0.000149691 0)
(0.00293733 -0.000106485 0)
(0.00173372 -0.00102315 0)
(0.0038157 -1.94254e-05 0)
(0.00363454 -0.000166421 0)
(0.00377236 -5.67102e-06 0)
(0.00315852 -6.89901e-06 0)
(0.00316189 -6.49568e-06 0)
(0.00357299 -4.15128e-05 0)
(0.00297676 -0.000332092 0)
(0.00298621 -0.0003298 0)
(0.000998091 -0.00105336 0)
(0.00326482 -2.74441e-05 0)
(0.00338583 -2.19777e-05 0)
(0.00181084 -0.000572494 0)
(0.00182801 -0.000559659 0)
(0.00378434 -2.48693e-05 0)
(0.00279933 -0.000215422 0)
(0.00260993 -0.000713607 0)
(0.00275327 -0.000170347 0)
(0.00274883 -0.00016924 0)
(0.000320466 -0.00207306 0)
(0.00370445 -0.000152627 0)
(0.00121568 -0.00127469 0)
(0.00249771 -0.000365952 0)
(8.59109e-05 -0.00218746 0)
(7.60326e-05 -0.00218536 0)
(0.00193589 -0.000461952 0)
(0.00113337 -0.00163987 0)
(0.00210736 -0.000380974 0)
(0.00110679 -0.00164282 0)
(0.00194858 -0.000508726 0)
(0.00304008 -3.28457e-05 0)
(0.00314694 -8.04559e-05 0)
(0.0031505 -7.81522e-05 0)
(0.00162916 -0.00138363 0)
(0.00233408 -0.000388188 0)
(0.00300572 -0.000118749 0)
(0.00137918 -0.00100859 0)
(0.00311971 -5.96573e-07 0)
(0.00165901 -0.000698509 0)
(0.00303218 -3.3507e-05 0)
(0.000252846 -0.00213683 0)
(0.00289734 -0.00011612 0)
(0.00219723 -0.000417969 0)
(0.00384128 -5.72669e-05 0)
(0.00299918 -4.68059e-05 0)
(0.00300643 -4.57977e-05 0)
(0.00208518 -0.000387413 0)
(0.00225898 -0.000323324 0)
(0.00297615 -0.000174328 0)
(0.0014676 -0.000949945 0)
(0.00354119 -6.66549e-05 0)
(0.00307007 -0.000106677 0)
(0.00208063 -0.000383333 0)
(0.00207287 -0.000387001 0)
(0.00118175 -0.000942597 0)
(0.00217222 -0.000466282 0)
(0.003899 -3.20126e-05 0)
(0.00214957 -0.000350157 0)
(0.0033635 -3.3132e-05 0)
(0.000571338 -0.001654 0)
(0.0002387 -0.00214901 0)
(0.00276439 -0.000136644 0)
(0.00233476 -0.000360132 0)
(0.00307945 -2.03515e-05 0)
(0.000986418 -0.00113729 0)
(0.00279933 -0.000167107 0)
(0.00289228 -0.000282116 0)
(0.00212724 -0.000395801 0)
(0.00212892 -0.000391455 0)
(0.00366419 -9.71177e-05 0)
(0.00265485 -0.000361278 0)
(0.00288839 -0.000275193 0)
(0.00135365 -0.000854966 0)
(0.000268945 -0.00209736 0)
(0.00321605 -1.80239e-06 0)
(0.00303042 -3.64328e-05 0)
(0.002474 -0.000206647 0)
(0.0013368 -0.00150488 0)
(0.00384838 -4.43147e-05 0)
(0.00076797 -0.00159641 0)
(0.00209819 -0.000662709 0)
(0.00210698 -0.000644847 0)
(0.00221891 -0.000371286 0)
(0.003452 -0.000288625 0)
(0.00264028 -0.000256186 0)
(0.00346555 -0.000117191 0)
(0.00320653 -0.000282419 0)
(0.00253114 -0.000385285 0)
(0.00347724 -0.000237932 0)
(0.00357335 -0.000194628 0)
(0.00230702 -0.000384042 0)
(0.000563599 -0.00167075 0)
(0.00331908 -3.10688e-05 0)
(0.00305575 -3.48697e-05 0)
(0.00147247 -0.000762294 0)
(0.00149252 -0.000748518 0)
(0.00305458 -3.49893e-05 0)
(0.00122443 -0.00127587 0)
(0.00313111 -1.92219e-05 0)
(0.00327001 -2.75561e-05 0)
(0.00350683 -2.11317e-05 0)
(0.00272374 -0.000182717 0)
(0.00351488 -0.000266711 0)
(0.00308043 -2.07777e-05 0)
(0.00363103 -6.09338e-06 0)
(0.00350925 -0.000294055 0)
(0.00351561 -0.000289337 0)
(0.00389135 -2.75581e-05 0)
(0.00388267 -2.98735e-05 0)
(0.00251843 -0.000357101 0)
(0.00320767 -1.26967e-06 0)
(0.00277463 -0.000390909 0)
(0.0027309 -0.000134672 0)
(0.00242293 -0.000226592 0)
(0.00293655 -0.000265273 0)
(0.00342175 -0.000204685 0)
(0.00338432 -2.31324e-05 0)
(0.00361359 -0.000265253 0)
(0.00250515 -0.000405279 0)
(0.00325259 -5.85865e-05 0)
(0.00202357 -0.000420104 0)
(0.00310829 -0.000263822 0)
(0.00282516 -0.000314059 0)
(0.00331988 -4.80222e-05 0)
(0.000324578 -0.00200255 0)
(0.00159989 -0.000653539 0)
(0.00158582 -0.000661955 0)
(0.00316127 -4.45593e-05 0)
(0.000278731 -0.00210819 0)
(0.00115595 -0.00116541 0)
(0.00236186 -0.000274817 0)
(0.00365209 -1.30774e-05 0)
(0.0023753 -0.000268049 0)
(0.00106404 -0.00120786 0)
(0.00259379 -0.000172195 0)
(0.00297926 -0.000236475 0)
(0.00231126 -0.000284044 0)
(0.00107726 -0.00133089 0)
(0.00350232 -8.72953e-05 0)
(0.00257328 -0.000552781 0)
(0.00333702 -0.00029556 0)
(0.00333796 -0.000298873 0)
(0.00366913 -0.000276157 0)
(0.00398 -8.9917e-07 0)
(0.00315479 -0.000346552 0)
(0.00139629 -0.00126189 0)
(0.00331045 -2.41483e-06 0)
(0.0014494 -0.000961541 0)
(0.0027723 -0.000164904 0)
(0.00323806 -0.000202926 0)
(0.0019605 -0.000493984 0)
(0.00389064 -2.35186e-05 0)
(0.00374998 -5.28874e-05 0)
(0.00255084 -0.000176565 0)
(0.00256231 -0.000172408 0)
(0.000997348 -0.0011152 0)
(0.00290114 -0.000213515 0)
(0.00272077 -0.000181235 0)
(0.00283598 -0.000108518 0)
(0.00298635 -4.3652e-05 0)
(0.00239279 -0.000375551 0)
(0.00277389 -0.000323215 0)
(0.00175085 -0.000562286 0)
(0.00325518 -0.000260573 0)
(0.0029142 -6.06972e-05 0)
(0.00291621 -6.01679e-05 0)
(0.0034015 -2.26087e-06 0)
(0.0035846 -0.000161063 0)
(0.00357618 -0.000164314 0)
(0.000222503 -0.00212174 0)
(0.00359159 -4.45416e-05 0)
(0.00319341 -6.56881e-05 0)
(0.00278611 -0.000390332 0)
(0.00339882 -0.000197086 0)
(0.00382858 -1.65447e-05 0)
(0.00310237 -0.000286367 0)
(0.00310945 -0.000282653 0)
(0.00100268 -0.00130342 0)
(0.000975503 -0.00132447 0)
(0.00321215 -0.000324927 0)
(0.00278803 -0.000106381 0)
(0.00381031 -7.45474e-05 0)
(0.00190097 -0.000550673 0)
(0.00372733 -4.79186e-05 0)
(0.00372107 -4.76572e-05 0)
(0.00308978 -1.51629e-05 0)
(0.00283208 -8.31991e-05 0)
(0.00309538 -0.000109041 0)
(0.00309172 -0.000106987 0)
(0.00363516 -0.000168078 0)
(0.00284592 -8.70869e-05 0)
(0.0020935 -0.000409049 0)
(0.00328432 -7.25252e-05 0)
(0.00241712 -0.0004166 0)
(0.00240243 -0.000420922 0)
(0.00285691 -0.000119453 0)
(0.00239919 -0.000378387 0)
(0.00298387 -0.000165377 0)
(0.00379066 -7.18818e-07 0)
(0.00343681 -0.000338931 0)
(0.00189206 -0.000484206 0)
(0.00179148 -0.000763192 0)
(0.00166682 -0.000611719 0)
(0.00288588 -7.70013e-05 0)
(0.00363668 -7.44989e-05 0)
(0.00311791 -0.000138295 0)
(0.00292702 -0.000103639 0)
(0.000364477 -0.00203718 0)
(0.00372913 -0.000102794 0)
(0.00372134 -0.000105572 0)
(0.00179539 -0.00133117 0)
(0.00304219 -4.50381e-05 0)
(0.00277306 -0.000381261 0)
(2.358e-05 -0.00231889 0)
(0.00119693 -0.00103609 0)
(0.00303394 -3.29384e-05 0)
(0.00139174 -0.00100387 0)
(0.00158941 -0.000913306 0)
(0.000978859 -0.00113248 0)
(0.00265786 -0.000141549 0)
(0.00381383 -5.66411e-05 0)
(0.0031801 -6.89795e-05 0)
(0.00317286 -6.86953e-05 0)
(0.00303489 -5.67432e-05 0)
(0.00307293 -2.74973e-05 0)
(0.00297464 -0.00020235 0)
(0.00224761 -0.000326738 0)
(0.00112151 -0.00162642 0)
(0.00246647 -0.000281359 0)
(0.0020696 -0.000395456 0)
(0.00312827 -0.000107689 0)
(0.00380467 -9.64365e-05 0)
(0.0025823 -0.000261718 0)
(0.00109649 -0.0012273 0)
(0.000519189 -0.00176898 0)
(0.00263079 -0.000266256 0)
(0.00255585 -0.000555349 0)
(0.0034381 -0.000103783 0)
(0.00303925 -3.16443e-05 0)
(0.00229769 -0.000440613 0)
(0.0031806 -7.4853e-06 0)
(0.00181465 -0.000638023 0)
(0.00349077 -1.05852e-05 0)
(0.00176577 -0.00133061 0)
(0.00355941 -7.99764e-05 0)
(8.43253e-05 -0.00228 0)
(0.00220941 -0.000475406 0)
(0.00272802 -0.000114916 0)
(0.00244859 -0.00022764 0)
(0.00279143 -0.000183003 0)
(0.000319919 -0.0019402 0)
(0.00150351 -0.00132362 0)
(0.00216891 -0.000377079 0)
(0.00372471 -0.000132724 0)
(0.00371783 -0.000136199 0)
(0.00239691 -0.000408314 0)
(0.00338572 -0.000305385 0)
(0.00245423 -0.000278188 0)
(0.00111069 -0.00124252 0)
(0.0033834 -0.000319026 0)
(0.00320003 -0.000286055 0)
(0.00389509 -2.29542e-05 0)
(0.00237693 -0.000313307 0)
(0.00218107 -0.0007632 0)
(0.00372314 -4.06085e-05 0)
(0.00265604 -0.000141623 0)
(0.00225032 -0.000482053 0)
(0.00247797 -0.000538399 0)
(0.00308546 -3.45578e-05 0)
(0.00252002 -0.000240535 0)
(0.00165614 -0.00138601 0)
(0.0012911 -0.00138103 0)
(0.00290134 -6.44852e-05 0)
(0.00288943 -6.76536e-05 0)
(0.00325185 -6.47671e-05 0)
(0.00306949 -2.32992e-05 0)
(0.00307608 -2.18954e-05 0)
(0.00219672 -0.000353636 0)
(0.00302911 -0.000175855 0)
(0.00308765 -1.64352e-05 0)
(0.000367491 -0.00203605 0)
(0.00323161 -0.000251211 0)
(0.000343613 -0.00205639 0)
(0.00381533 -4.20956e-05 0)
(0.00381 -4.39529e-05 0)
(0.00256012 -0.000385248 0)
(0.00301236 -0.000228989 0)
(0.0015083 -0.000781157 0)
(0.00343957 -0.000138498 0)
(0.00313734 -1.15866e-05 0)
(0.00331408 -3.21071e-05 0)
(0.0039167 -1.14207e-05 0)
(0.000213316 -0.00214324 0)
(0.00345919 -0.000287696 0)
(0.00345784 -0.000174885 0)
(0.00310338 -0.000119151 0)
(0.00310873 -0.000120294 0)
(0.00347518 -0.000211363 0)
(0.00306017 -1.70966e-05 0)
(0.00367422 -0.000276519 0)
(0.00398508 -6.39702e-07 0)
(0.00164487 -0.000790566 0)
(0.00330345 -0.0001086 0)
(0.00331221 -0.000108497 0)
(0.00230615 -0.000317617 0)
(0.00271577 -0.00037492 0)
(0.00285813 -7.88958e-05 0)
(0.00271602 -0.000267525 0)
(0.0030268 -4.41997e-05 0)
(0.00325489 -5.5585e-05 0)
(0.00303085 -4.43584e-05 0)
(0.00109955 -0.00131412 0)
(0.00350396 -2.226e-05 0)
(0.00336503 -2.18416e-05 0)
(0.00337123 -2.19897e-05 0)
(0.00223617 -0.000335101 0)
(0.00277864 -0.000298768 0)
(0.00176698 -0.000573871 0)
(0.00174486 -0.000586182 0)
(0.000745978 -0.00127327 0)
(0.00338471 -0.000335754 0)
(0.000323192 -0.0018355 0)
(0.00262777 -0.000190249 0)
(0.000253808 -0.00210469 0)
(0.0030059 -0.000232153 0)
(0.000273626 -0.00184777 0)
(0.00152519 -0.000820351 0)
(0.003565 -4.68799e-05 0)
(0.00350793 -2.32642e-05 0)
(0.00250922 -0.000409799 0)
(0.00356879 -3.29677e-05 0)
(0.00305603 -4.22676e-05 0)
(0.00100422 -0.00146263 0)
(0.00341766 -5.65899e-05 0)
(0.00277222 -0.00011398 0)
(0.00358083 -5.35295e-05 0)
(0.00300143 -0.000261353 0)
(0.0032182 -6.56335e-06 0)
(0.00234613 -0.00034936 0)
(0.00192704 -0.000491016 0)
(0.00376538 -5.96959e-05 0)
(0.00375536 -6.1577e-05 0)
(0.00373325 -7.15186e-05 0)
(0.00246967 -0.000208612 0)
(0.00367319 -5.57648e-05 0)
(0.00307169 -2.85253e-05 0)
(0.00317048 -4.3556e-05 0)
(0.00264306 -0.000258751 0)
(0.00203329 -0.00114048 0)
(0.00302121 -0.000102532 0)
(0.00371872 -4.01458e-05 0)
(0.00302008 -5.01482e-05 0)
(0.0022045 -0.000351653 0)
(0.00228045 -0.000349253 0)
(0.000640038 -0.00172649 0)
(0.00356791 -4.10528e-05 0)
(0.00324036 -0.000199444 0)
(0.00343126 -0.000201806 0)
(0.00128113 -0.00139558 0)
(0.00303249 -3.65721e-05 0)
(0.00307451 -4.91951e-05 0)
(0.00276677 -0.000170838 0)
(0.00356024 -2.96032e-05 0)
(0.00285055 -8.1726e-05 0)
(0.00371373 -0.000133084 0)
(0.00346751 -0.000212782 0)
(0.00158027 -0.000663942 0)
(0.00315534 -1.78923e-05 0)
(0.00372365 -6.12282e-05 0)
(0.00373055 -5.95913e-05 0)
(0.00346585 -0.000171865 0)
(0.00396506 -6.12403e-06 0)
(0.00370957 -0.000207204 0)
(0.0031182 -9.03061e-05 0)
(0.00312725 -8.90817e-05 0)
(0.00293577 -6.69144e-05 0)
(0.000301965 -0.00208144 0)
(0.00368187 -0.000161693 0)
(0.00280293 -0.000190226 0)
(0.00320263 -1.24277e-06 0)
(0.00153854 -0.00128448 0)
(0.00115078 -0.00109845 0)
(0.00326677 -0.000284281 0)
(0.00336969 -0.000260175 0)
(8.95645e-05 -0.00215662 0)
(0.00352336 -6.92509e-05 0)
(0.00285853 -8.21393e-05 0)
(0.00237052 -0.000248637 0)
(0.00221011 -0.000415524 0)
(0.00348582 -0.000219779 0)
(0.00242706 -0.000233907 0)
(2.30242e-05 -0.0020246 0)
(0.000497769 -0.00193235 0)
(0.00367721 -0.000164862 0)
(0.00380493 -6.78433e-05 0)
(0.00379871 -7.04471e-05 0)
(0.000271535 -0.00199828 0)
(0.00286747 -0.000154643 0)
(0.00357374 -0.000173563 0)
(0.00255393 -0.000382994 0)
(0.00284251 -0.000316489 0)
(0.00357134 -4.70007e-05 0)
(0.00216394 -0.000343464 0)
(0.0037279 -3.4014e-05 0)
(0.00372776 -3.27284e-05 0)
(0.00124746 -0.000952268 0)
(0.00144257 -0.00101484 0)
(0.0012364 -0.000954579 0)
(0.00113478 -0.00102969 0)
(0.00270628 -0.000268684 0)
(0.00307122 -0.000127564 0)
(0.00308049 -0.000127037 0)
(0.000295215 -0.00208232 0)
(0.00254603 -0.000382956 0)
(0.000619157 -0.00175203 0)
(0.000448347 -0.00190701 0)
(0.0036009 -0.000128709 0)
(0.000436879 -0.00191269 0)
(0.00363863 -1.93153e-05 0)
(0.00364473 -1.80183e-05 0)
(0.00230415 -0.000295571 0)
(0.00116018 -0.00104303 0)
(0.00290004 -0.000196967 0)
(0.00128217 -0.000862088 0)
(0.00130356 -0.00084665 0)
(0.00260448 -0.000164116 0)
(0.0033282 -4.77116e-05 0)
(0.00172588 -0.000578392 0)
(0.00174747 -0.000566414 0)
(0.00226041 -0.000761653 0)
(0.00174533 -0.000584563 0)
(0.000855296 -0.00132091 0)
(0.00373448 -8.94522e-05 0)
(0.00288037 -0.000349144 0)
(0.00141546 -0.00124249 0)
(0.00238518 -0.000242649 0)
(0.00322721 -0.000228311 0)
(0.00320487 -6.17474e-05 0)
(0.00319628 -6.24189e-05 0)
(0.00245069 -0.000235433 0)
(0.000832605 -0.00177269 0)
(0.00243891 -0.000238544 0)
(0.000819331 -0.00177552 0)
(0.00384717 -2.92582e-05 0)
(0.00296128 -0.00034945 0)
(0.00235425 -0.000377097 0)
(0.00258181 -0.000165546 0)
(0.00298237 -4.98229e-05 0)
(0.00298972 -4.89358e-05 0)
(0.00339258 -9.27361e-06 0)
(0.00339902 -9.58459e-06 0)
(0.00215295 -0.000473828 0)
(0.00119746 -0.00149302 0)
(0.00153739 -0.00134241 0)
(0.00242261 -0.000405429 0)
(0.00188684 -0.000553699 0)
(0.00329063 -0.00032676 0)
(0.00273899 -0.0001138 0)
(0.00152375 -0.000767417 0)
(0.00167701 -0.000908788 0)
(0.00392079 -1.48958e-05 0)
(0.000848778 -0.00164822 0)
(0.00189995 -0.000479187 0)
(0.0018747 -0.000657005 0)
(0.00303086 -0.000115157 0)
(0.00227507 -0.000353886 0)
(0.00303138 -3.17287e-05 0)
(0.00270407 -0.000186222 0)
(0.00303849 -3.00673e-05 0)
(0.000745074 -0.00171679 0)
(0.00345312 -3.47772e-05 0)
(0.00290778 -0.000194231 0)
(0.00227495 -0.000312622 0)
(0.00220364 -0.000748096 0)
(0.00337201 -1.73498e-05 0)
(0.00337246 -1.62947e-05 0)
(0.00363793 -2.59899e-05 0)
(0.00241536 -0.000229846 0)
(0.00242177 -0.000227036 0)
(0.0032263 -9.12098e-06 0)
(0.0032106 -0.00020522 0)
(0.00284577 -0.000109778 0)
(0.00342679 -0.000159777 0)
(0.00235252 -0.000394861 0)
(0.00235071 -0.000400571 0)
(0.00379733 -9.91292e-06 0)
(0.0016666 -0.000907379 0)
(0.0026165 -0.000153745 0)
(0.00352551 -3.00512e-05 0)
(0.00237138 -0.000552771 0)
(0.00383727 -5.67176e-05 0)
(0.00383063 -5.86846e-05 0)
(0.000341613 -0.00202876 0)
(0.00220641 -0.00105257 0)
(0.00351621 -0.000260322 0)
(0.00351121 -0.000264298 0)
(0.00258968 -0.000162506 0)
(0.00292487 -6.58333e-05 0)
(0.00291683 -6.74284e-05 0)
(0.000756881 -0.00166155 0)
(0.00372703 -7.37096e-05 0)
(0.0021449 -0.000354171 0)
(0.00351097 -0.000245497 0)
(0.00288881 -6.84951e-05 0)
(0.00287966 -0.000385197 0)
(0.00370506 -0.000174331 0)
(0.00338204 -3.14191e-05 0)
(0.00312947 -6.2953e-06 0)
(0.00250005 -0.000232858 0)
(0.00364193 -3.37817e-05 0)
(0.0036382 -3.53736e-05 0)
(0.00211642 -0.000375516 0)
(0.000868133 -0.00129723 0)
(0.00388194 -1.65909e-05 0)
(0.00229826 -0.00029522 0)
(0.0030957 -1.67296e-05 0)
(0.0031966 -6.05933e-07 0)
(0.003189 -6.75598e-05 0)
(0.000838863 -0.00133969 0)
(0.00310007 -4.23559e-05 0)
(0.00348571 -6.1956e-05 0)
(0.00373597 -0.000103308 0)
(0.00373809 -0.000101224 0)
(0.00274709 -0.000387562 0)
(0.00342209 -0.000278624 0)
(0.00341282 -0.000281441 0)
(0.00339731 -1.60448e-05 0)
(0.00340408 -1.56828e-05 0)
(0.0031621 -7.89306e-06 0)
(0.00349493 -0.000148685 0)
(0.00349289 -0.000151012 0)
(0.0031167 -8.40317e-06 0)
(0.00289067 -6.70756e-05 0)
(0.000142732 -0.00218401 0)
(0.00357806 -9.26289e-05 0)
(0.00301229 -0.000116145 0)
(0.00355675 -0.00026516 0)
(0.00333397 -0.000278388 0)
(0.00339672 -5.75988e-06 0)
(0.000974572 -0.00114093 0)
(0.00211249 -0.000398231 0)
(0.00110155 -0.00121588 0)
(0.00278948 -0.000226468 0)
(0.00316302 -0.000345856 0)
(0.00117266 -0.00115259 0)
(0.00207635 -0.000501412 0)
(0.00206005 -0.000506995 0)
(0.000180672 -0.0021876 0)
(0.00304543 -4.61247e-05 0)
(8.52132e-05 -0.00227926 0)
(0.00259719 -0.000172522 0)
(0.00345933 -0.000190273 0)
(0.00346248 -0.000186845 0)
(0.00259217 -0.000165431 0)
(0.00266929 -0.000195341 0)
(0.00316599 -1.29686e-05 0)
(0.00139 -0.000787226 0)
(0.00139247 -0.000784412 0)
(0.00264322 -0.000250366 0)
(0.00093897 -0.00159812 0)
(0.00274801 -0.000162923 0)
(0.00265688 -0.000241274 0)
(0.000776076 -0.0017955 0)
(0.00370748 -0.000153321 0)
(0.00175446 -0.00057708 0)
(0.00393631 -1.24748e-05 0)
(0.00304126 -4.211e-05 0)
(0.00207946 -0.000521944 0)
(0.0034449 -3.412e-06 0)
(0.00121399 -0.000897977 0)
(0.00347008 -8.59765e-05 0)
(0.00161282 -0.000649883 0)
(0.00239326 -0.000244613 0)
(0.0028764 -9.81418e-05 0)
(0.00181842 -0.000683387 0)
(0.00337386 -0.000247709 0)
(0.00278299 -0.000360062 0)
(0.0017556 -0.000615228 0)
(0.00343082 -0.000289426 0)
(0.00318641 -1.04117e-05 0)
(0.00174273 -0.000620355 0)
(0.00152849 -0.000715699 0)
(0.00347558 -8.65531e-05 0)
(0.0032273 -8.57153e-05 0)
(0.00321828 -8.56308e-05 0)
(0.00324317 -8.73556e-05 0)
(0.000842865 -0.00165896 0)
(0.00379734 -9.95528e-05 0)
(0.00312882 -4.64805e-05 0)
(0.00313712 -4.49017e-05 0)
(0.00347897 -0.00023501 0)
(0.00331639 -2.65416e-05 0)
(0.00354717 -5.73193e-05 0)
(0.0033526 -1.09587e-05 0)
(0.00312103 -0.000193751 0)
(0.00264299 -0.000146552 0)
(0.00337834 -0.000259665 0)
(0.00313893 -0.000156328 0)
(0.00327015 -0.000146593 0)
(0.00211579 -0.00039588 0)
(0.00200954 -0.000428777 0)
(0.00302218 -0.000104242 0)
(0.00281485 -0.000195194 0)
(0.0025273 -0.000414476 0)
(0.00287202 -0.000127152 0)
(0.00324899 -0.00026437 0)
(0.0036132 -1.41688e-05 0)
(0.00151842 -0.00128324 0)
(0.00231182 -0.000434871 0)
(0.00310825 -0.00016875 0)
(0.00328645 -0.000282592 0)
(0.00359323 -7.38928e-05 0)
(0.00330719 -5.47037e-05 0)
(0.000847324 -0.00141285 0)
(0.00329325 -0.000208499 0)
(0.0012812 -0.00110077 0)
(0.00316981 -8.28445e-05 0)
(0.000187349 -0.00203895 0)
(0.00303059 -3.24954e-05 0)
(0.00303814 -3.09211e-05 0)
(0.00304824 -3.21525e-05 0)
(0.00331002 -1.76865e-06 0)
(0.0027667 -0.000116356 0)
(0.00133009 -0.00113415 0)
(0.0021535 -0.000348516 0)
(0.00296536 -5.72248e-05 0)
(0.00130895 -0.00114519 0)
(0.00267091 -0.00019759 0)
(0.00115349 -0.00111185 0)
(0.00347601 -0.000275692 0)
(0.00159063 -0.000661042 0)
(0.00290578 -8.21133e-05 0)
(0.00242743 -0.000236742 0)
(0.00290718 -9.59912e-05 0)
(0.000737727 -0.00158479 0)
(0.00324719 -6.02269e-05 0)
(0.00127512 -0.000930754 0)
(0.00288218 -0.000268278 0)
(0.0012874 -0.000915974 0)
(0.00377102 -2.96607e-05 0)
(0.00188484 -0.000550414 0)
(0.00183067 -0.000631308 0)
(0.00093256 -0.00111961 0)
(0.00306383 -0.000101227 0)
(0.00368575 -0.000152681 0)
(0.00286825 -0.000112745 0)
(0.000974325 -0.00137947 0)
(0.00249695 -0.000211953 0)
(0.0033708 -0.000203384 0)
(0.00133015 -0.000980317 0)
(0.000952875 -0.00139493 0)
(0.00158682 -0.000975113 0)
(0.00147323 -0.000730323 0)
(0.00258154 -0.000378377 0)
(0.00277948 -0.000364295 0)
(0.00266456 -0.000172949 0)
(0.00244743 -0.00022235 0)
(0.00311027 -0.000321765 0)
(0.00360755 -1.38791e-05 0)
(0.00361137 -0.000121108 0)
(0.00216511 -0.000494506 0)
(0.00376732 -7.01327e-06 0)
(0.00267614 -0.000214803 0)
(0.00350012 -8.92311e-05 0)
(0.000741972 -0.00167857 0)
(0.00352186 -0.000309281 0)
(0.00385548 -4.27466e-06 0)
(0.00357049 -3.81918e-05 0)
(0.00356824 -3.67809e-05 0)
(0.00255187 -0.000364509 0)
(0.00211815 -0.000552408 0)
(0.000948151 -0.00133016 0)
(0.00211505 -0.000543544 0)
(0.00312091 -0.000191154 0)
(0.00242894 -0.000291344 0)
(0.00306352 -2.44912e-05 0)
(0.00297301 -0.000133386 0)
(0.000493815 -0.0018996 0)
(0.00156501 -0.00127395 0)
(0.0029787 -0.000192832 0)
(0.00312737 -2.03163e-05 0)
(0.00294139 -6.35699e-05 0)
(0.00298818 -0.000146997 0)
(0.00323535 -8.89487e-05 0)
(0.00296004 -6.3594e-05 0)
(0.00191386 -0.000478759 0)
(0.00341802 -5.1697e-06 0)
(0.00306627 -0.000299278 0)
(0.00274394 -0.000244831 0)
(0.00302786 -7.47433e-05 0)
(0.00364318 -6.83636e-05 0)
(0.00346448 -0.000169217 0)
(0.00327874 -0.000318779 0)
(1.97362e-05 -0.00217361 0)
(0.00387597 -1.73166e-05 0)
(0.00287259 -0.000352656 0)
(0.000199015 -0.00199683 0)
(0.00302798 -7.32137e-05 0)
(0.00354847 -0.000182318 0)
(0.00304072 -3.11612e-05 0)
(0.00319546 -5.89617e-06 0)
(0.00319474 -5.47142e-06 0)
(0.00242131 -0.000243169 0)
(0.00217636 -0.000887963 0)
(0.00157369 -0.000930853 0)
(0.00137061 -0.00153057 0)
(0.0021474 -0.000893283 0)
(0.0034039 -0.00021178 0)
(0.00203428 -0.000486813 0)
(0.00335437 -3.48462e-05 0)
(0.00316484 -0.00017025 0)
(0.00375863 -9.92203e-05 0)
(0.00277477 -0.000111075 0)
(0.00216058 -0.000358256 0)
(0.0021794 -0.000348984 0)
(0.00306838 -3.22047e-05 0)
(0.00151709 -0.00150595 0)
(0.00318195 -1.06523e-05 0)
(0.00148336 -0.00151469 0)
(0.00374328 -9.00583e-05 0)
(0.000315267 -0.00206562 0)
(0.00341214 -2.88171e-05 0)
(0.00342016 -2.89746e-05 0)
(0.000428111 -0.00178075 0)
(0.000405457 -0.00180067 0)
(0.00331584 -5.6391e-05 0)
(0.00233871 -0.000264117 0)
(0.00378171 -2.73373e-05 0)
(0.00167585 -0.000607549 0)
(0.00167655 -0.000606467 0)
(0.00356173 -0.000183114 0)
(0.00311639 -0.000136082 0)
(0.00211703 -0.000672946 0)
(0.00217279 -0.000338996 0)
(0.00341811 -0.000259695 0)
(0.00342691 -0.000258824 0)
(0.000606369 -0.00149332 0)
(0.00330163 -4.03936e-06 0)
(0.0036571 -4.95437e-05 0)
(0.000581195 -0.00150831 0)
(0.00295572 -6.02011e-05 0)
(0.00272676 -0.000425619 0)
(0.00304588 -3.07277e-05 0)
(0.00135226 -0.00147962 0)
(0.00317992 -0.000220337 0)
(0.0033179 -5.76338e-05 0)
(0.003171 -8.08002e-05 0)
(0.00309098 -3.44245e-05 0)
(0.00271193 -0.000364659 0)
(0.00209386 -0.000416373 0)
(0.00239118 -0.000282619 0)
(0.00211048 -0.000407339 0)
(0.00352326 -0.000265297 0)
(0.00293968 -6.33269e-05 0)
(0.000814599 -0.00138137 0)
(0.00267241 -0.000147959 0)
(0.00238714 -0.000594967 0)