/*--------------------------------*- C++ -*----------------------------------*\
| =========                 |                                                 |
| \\      /  F ield         | OpenFOAM: The Open Source CFD Toolbox           |
|  \\    /   O peration     | Version:  v2012                                 |
|   \\  /    A nd           | Website:  www.openfoam.com                      |
|    \\/     M anipulation  |                                                 |
\*---------------------------------------------------------------------------*/
FoamFile
{
    version     2.0;
    format      ascii;
    class       volScalarField;
    location    "13";
    object      sigmaEq;
}
// * * * * * * * * * * * * * * * * * * * * * * * * * * * * * * * * * * * * * //

dimensions      [1 -1 -2 0 0 0 0];


internalField   nonuniform List<scalar> 
30465
(
1.10015e+08
7.48265e+07
1.58681e+08
1.0025e+08
9.05534e+07
8.98289e+07
1.60776e+08
1.60876e+08
1.80387e+08
1.4358e+08
1.22667e+08
1.61266e+08
1.04189e+08
7.7498e+07
1.42765e+08
1.63809e+08
9.1132e+07
1.39632e+08
1.80292e+08
8.14896e+07
4.74754e+07
4.77031e+07
7.56463e+07
1.8499e+08
7.67894e+07
7.35893e+07
7.38996e+07
7.30503e+07
6.58796e+07
1.52532e+08
1.13119e+08
6.64446e+07
1.08055e+08
9.53126e+07
1.16289e+08
6.51875e+07
1.81499e+08
3.15939e+07
9.20147e+07
1.63461e+08
6.77821e+07
1.37299e+08
1.86342e+08
7.22112e+07
7.21836e+07
1.78277e+08
1.39602e+08
7.45521e+07
7.14623e+07
5.93705e+07
6.06233e+07
9.62294e+07
1.46053e+08
1.46192e+08
1.44945e+08
8.42014e+07
1.44308e+08
8.10162e+07
6.70894e+07
6.03159e+07
6.0094e+07
1.49226e+08
4.72815e+07
1.17172e+08
1.16259e+08
1.14715e+08
1.26299e+08
1.77254e+08
3.32474e+07
8.44995e+07
8.45405e+07
7.49636e+07
1.80378e+08
1.45462e+08
1.08352e+08
1.66376e+08
6.0599e+07
6.04272e+07
7.54021e+07
1.33491e+08
1.67931e+08
1.67171e+08
9.14364e+07
7.51364e+07
9.90453e+07
7.14127e+07
6.7642e+07
1.63829e+08
8.84883e+07
5.82148e+07
6.5227e+07
6.49609e+07
9.08309e+07
9.04913e+07
1.44992e+08
6.43089e+07
6.91834e+07
6.89882e+07
1.53524e+08
6.66053e+07
9.68774e+07
5.15037e+07
5.24883e+07
1.18824e+08
7.54735e+07
1.3808e+08
1.38108e+08
7.49709e+07
8.48214e+07
5.36009e+07
1.61992e+08
1.00548e+08
1.20298e+08
1.19533e+08
1.10441e+08
1.08817e+08
2.54423e+07
7.54852e+07
6.09352e+07
1.65931e+08
1.67563e+08
6.52741e+07
9.06029e+07
4.50693e+07
7.21793e+07
7.15925e+07
3.42513e+07
1.13261e+08
8.08927e+07
6.37207e+07
1.77895e+08
6.05283e+07
1.62856e+08
1.77955e+08
7.88315e+07
4.10082e+07
1.77679e+08
7.54898e+07
1.81368e+08
1.76885e+08
9.06707e+07
1.53934e+08
2.80589e+07
6.90248e+07
5.92991e+07
1.51505e+08
6.41393e+07
6.40726e+07
1.27477e+08
5.71185e+07
8.30529e+07
1.27924e+08
6.90307e+07
6.90528e+07
9.66002e+07
8.17242e+07
1.32364e+08
9.17039e+07
1.48022e+08
6.89096e+07
6.88112e+07
1.50328e+08
1.32247e+08
1.3343e+08
2.76299e+07
6.01456e+07
6.85093e+07
1.83338e+08
7.70695e+07
1.34196e+08
1.00388e+08
6.18133e+07
6.5503e+07
6.5319e+07
7.59863e+07
1.36395e+08
1.12294e+08
1.11337e+08
2.54189e+07
1.46526e+08
1.58537e+08
1.14666e+08
1.15183e+08
8.53945e+07
8.0669e+07
9.35004e+07
1.74318e+08
8.86945e+07
6.05977e+07
8.99842e+07
1.62631e+08
7.38485e+07
5.97936e+07
1.49581e+08
9.17329e+07
9.2043e+07
1.60203e+08
9.15829e+07
8.81163e+07
1.10545e+08
6.14877e+07
6.63348e+07
5.8705e+07
1.85077e+08
1.08647e+08
8.96733e+07
5.49684e+07
1.82789e+08
1.16766e+08
6.58587e+07
1.57769e+08
8.79681e+07
2.89981e+07
7.06871e+07
1.7733e+08
1.32897e+08
1.33745e+08
7.50397e+07
7.46166e+07
1.6061e+08
1.08782e+08
1.04548e+08
6.82492e+07
7.90797e+07
1.25089e+08
7.32852e+07
1.49429e+08
1.2622e+08
5.77465e+07
9.37228e+07
1.50564e+08
6.69396e+07
6.6947e+07
7.70747e+07
7.71513e+07
3.29245e+07
1.10221e+08
1.09068e+08
1.66001e+08
1.65521e+08
1.37849e+08
9.27544e+07
9.74013e+07
1.00682e+08
7.33216e+07
1.44393e+08
1.15949e+08
1.05598e+08
1.76835e+08
7.71038e+07
8.99401e+07
5.90094e+07
5.83805e+07
1.48814e+08
1.09651e+08
1.77731e+08
1.13952e+08
1.16453e+08
1.27523e+08
1.84137e+08
7.48331e+07
8.54842e+07
8.75757e+07
4.78738e+07
1.55137e+08
1.54358e+08
8.94031e+07
1.44473e+08
1.08429e+08
8.67637e+07
6.01126e+07
8.32448e+07
6.66727e+07
9.04459e+07
7.2583e+07
1.23042e+08
6.67838e+07
9.28591e+07
1.63744e+08
4.55041e+07
1.65848e+08
1.04156e+08
6.92619e+07
8.53173e+07
6.59509e+07
8.35727e+07
1.3176e+08
7.49699e+07
5.6802e+07
8.29748e+07
1.08955e+08
1.00448e+08
9.03247e+07
1.30885e+08
6.10477e+07
7.87599e+07
6.05507e+07
3.09556e+07
3.12461e+07
6.26196e+07
1.02819e+08
1.02572e+08
1.80264e+08
5.54396e+07
5.30581e+07
1.41786e+08
1.42032e+08
6.19735e+07
7.322e+07
3.86742e+07
1.03826e+08
1.0434e+08
1.67842e+08
7.84649e+07
1.69657e+08
9.99596e+07
1.84536e+08
1.8394e+08
1.43307e+08
1.57222e+08
1.30694e+08
1.57272e+08
1.36896e+08
4.51079e+07
7.84266e+07
7.73937e+07
1.33698e+08
1.15761e+08
8.98557e+07
1.60108e+08
2.00275e+07
1.48112e+08
4.82695e+07
1.59141e+08
6.49697e+07
1.41433e+08
6.77707e+07
7.01798e+07
6.95378e+07
1.3184e+08
1.29647e+08
9.70733e+07
1.5653e+08
6.7938e+07
8.55515e+07
1.32549e+08
1.34065e+08
1.70514e+08
1.25601e+08
6.38306e+07
1.30358e+08
5.79258e+07
1.6313e+08
1.57121e+08
9.97795e+07
1.32318e+08
4.08186e+07
1.68267e+08
7.56938e+07
8.0928e+07
1.29551e+08
1.28265e+08
7.19666e+07
7.64506e+07
7.41331e+07
1.59483e+08
1.3508e+08
3.07257e+07
6.33535e+07
1.11176e+08
1.36225e+08
6.46373e+07
1.82506e+08
1.20705e+08
1.20284e+08
1.35721e+08
8.51958e+07
1.14639e+08
7.69219e+07
9.27985e+07
9.34733e+07
8.40798e+07
8.07167e+07
1.35858e+08
1.63055e+08
5.70138e+07
3.69363e+07
1.55362e+08
1.5552e+08
3.81798e+07
1.70048e+08
4.90371e+07
5.48503e+07
5.64827e+07
1.06008e+08
8.38215e+07
3.14989e+07
5.82549e+07
8.42394e+07
8.39317e+07
6.15716e+07
6.20671e+07
9.74899e+07
2.97021e+07
1.14033e+08
1.00175e+08
1.15453e+08
1.03023e+08
8.43325e+07
5.34778e+07
8.31562e+07
1.30094e+08
6.94732e+07
1.34278e+08
9.66297e+07
6.81292e+07
6.42182e+07
1.72169e+08
1.5667e+08
1.58082e+08
6.60775e+07
1.85527e+08
1.65574e+08
1.16426e+08
5.92505e+07
1.16721e+08
1.66903e+08
1.07935e+08
1.00423e+08
1.19501e+08
1.75197e+08
7.22069e+07
5.74743e+07
8.86249e+07
8.83498e+07
8.3261e+07
5.48585e+07
9.42406e+07
1.52628e+08
4.04378e+07
1.57932e+08
8.09114e+07
8.97948e+07
1.36117e+08
6.08374e+07
6.58446e+07
1.07064e+08
1.07014e+08
1.69666e+08
6.63046e+07
1.063e+08
9.3415e+07
6.67066e+07
1.10412e+08
1.12245e+08
1.5086e+08
9.09762e+07
7.29224e+07
7.2339e+07
4.74171e+07
7.8459e+07
7.89874e+07
1.80351e+08
6.36524e+07
7.28863e+07
1.143e+08
8.457e+07
6.06012e+07
9.72737e+07
9.67652e+07
1.7174e+08
1.73188e+08
9.25821e+07
9.3428e+07
7.02574e+07
1.61427e+08
6.50319e+07
6.50082e+07
2.62836e+07
8.28823e+07
8.53103e+07
8.52532e+07
7.86609e+07
8.70443e+07
1.30399e+08
7.2523e+07
1.34892e+08
1.35204e+08
9.45306e+07
1.10914e+08
8.06768e+07
6.02433e+07
8.38139e+07
1.41878e+08
1.43856e+08
1.56783e+08
8.35598e+07
6.91984e+07
8.83262e+07
8.95857e+07
1.80406e+08
7.2643e+07
7.29547e+07
1.26007e+08
6.91747e+07
1.13936e+08
7.50849e+07
1.61797e+08
5.99094e+07
1.59182e+08
1.53163e+08
1.69581e+08
1.01141e+08
6.6688e+07
7.41319e+07
7.44389e+07
7.47463e+07
3.22888e+07
1.21775e+08
1.29618e+08
1.61117e+08
1.22085e+08
1.32037e+08
8.42225e+07
7.48732e+07
9.75226e+07
1.68482e+08
1.63557e+08
9.01086e+07
6.28033e+07
7.58339e+07
5.7964e+07
1.41248e+08
3.51439e+07
1.43243e+08
5.35125e+07
1.25955e+08
7.04437e+07
9.35536e+07
1.23462e+08
9.35336e+07
1.11928e+08
1.04193e+08
1.68375e+08
1.39272e+08
1.27141e+08
7.6502e+07
7.67888e+07
1.35107e+08
8.67936e+07
1.21892e+08
1.69055e+08
8.64505e+07
9.34291e+07
6.06996e+07
1.14979e+08
9.29975e+07
6.38624e+07
9.84239e+07
1.17597e+08
7.86836e+07
6.27293e+07
1.05728e+08
1.33208e+08
1.5917e+08
7.37953e+07
7.56337e+07
7.11776e+07
4.79448e+07
4.67031e+07
1.257e+08
9.53587e+07
2.77062e+07
1.87118e+08
9.15158e+07
1.86465e+08
6.41211e+07
6.42271e+07
1.2511e+08
9.88426e+07
1.52383e+08
7.96645e+07
3.77615e+07
5.71514e+07
5.86795e+07
1.17596e+08
8.52393e+07
8.18865e+07
8.68216e+07
8.64521e+07
8.33476e+07
7.04246e+07
8.32172e+07
5.47872e+07
1.5081e+08
7.91524e+07
7.90566e+07
1.28623e+08
1.17078e+08
7.72371e+07
1.12613e+08
6.89208e+07
6.83109e+07
6.86824e+07
1.74193e+08
5.6414e+07
5.28018e+07
5.25888e+07
1.30816e+08
1.11349e+08
1.60625e+08
1.61558e+08
1.78152e+08
8.57101e+07
1.62636e+08
1.09821e+08
1.8146e+08
9.94688e+07
1.62099e+08
1.52296e+08
6.40357e+07
5.71616e+07
1.2978e+08
6.07595e+07
6.50279e+07
1.7656e+08
6.61785e+07
9.50707e+07
6.54834e+07
1.00635e+08
3.61682e+07
1.31169e+08
1.37211e+08
6.67247e+07
6.72686e+07
6.85822e+07
1.12209e+08
6.6142e+07
3.78041e+07
6.57087e+07
1.14306e+08
8.44743e+07
6.84197e+07
6.37763e+07
7.16755e+07
1.25712e+08
1.31997e+08
1.84966e+08
6.27356e+07
8.94841e+07
8.38679e+07
1.58265e+08
6.30046e+07
7.03367e+07
1.03541e+08
5.99093e+07
7.85155e+07
7.63524e+07
8.32668e+07
1.61983e+08
4.83104e+07
6.69842e+07
6.68103e+07
8.14528e+07
5.64863e+07
8.3109e+07
8.10105e+07
8.08076e+07
7.98027e+07
1.83643e+08
7.86813e+07
7.56112e+07
2.99506e+07
1.36526e+08
1.64004e+08
9.07439e+07
8.72593e+07
1.7945e+08
6.85964e+07
8.59432e+07
1.18093e+08
1.40881e+08
8.33821e+07
1.1395e+08
1.71029e+08
1.79681e+08
7.89553e+07
6.85227e+07
6.88209e+07
1.19739e+08
9.89439e+07
7.93116e+07
1.25934e+08
1.08645e+08
6.36891e+07
1.30801e+08
6.30293e+07
6.26717e+07
1.61036e+08
1.58683e+08
1.62091e+08
1.65271e+08
1.12466e+08
8.87181e+07
8.8618e+07
1.81004e+08
8.91729e+07
1.84806e+08
1.6907e+08
7.57955e+07
1.63076e+08
5.95154e+07
5.98707e+07
1.26033e+08
1.62722e+08
6.61648e+07
1.69801e+08
1.70637e+08
1.05955e+08
6.39736e+07
1.5444e+08
1.5473e+08
7.91603e+07
1.45728e+08
1.68156e+08
7.09171e+07
1.07609e+08
1.53215e+08
1.18034e+08
9.09732e+07
7.14973e+07
7.17367e+07
1.10952e+08
1.68148e+08
1.12996e+08
1.68959e+08
6.18533e+07
1.03369e+08
1.15252e+08
1.06141e+08
7.1985e+07
7.09441e+07
4.83124e+07
4.81554e+07
1.28097e+08
1.64161e+08
1.35852e+08
1.04011e+08
1.6294e+08
8.96843e+07
9.04981e+07
1.52737e+08
1.46475e+08
5.87891e+07
1.74707e+08
1.41133e+08
1.40138e+08
8.83021e+07
1.33157e+08
5.42028e+07
8.87592e+07
5.28731e+07
1.77805e+08
5.91562e+07
6.34566e+07
1.28421e+08
9.16733e+07
5.07118e+07
4.98287e+07
6.08302e+07
1.1574e+08
1.14661e+08
3.9177e+07
9.07187e+07
9.31839e+07
8.17283e+07
1.34611e+08
1.3566e+08
6.05427e+07
1.47428e+08
1.01152e+08
5.93445e+07
9.31396e+07
6.72181e+07
6.7462e+07
1.53087e+08
5.99472e+07
8.37733e+07
8.40536e+07
1.04704e+08
7.96765e+07
7.97523e+07
1.80061e+08
6.87696e+07
1.29049e+08
8.33993e+07
7.50006e+07
1.11233e+08
8.04114e+07
5.68299e+07
2.55783e+07
1.17073e+08
6.22275e+07
6.22014e+07
1.35161e+08
1.67784e+08
5.97306e+07
1.20182e+08
3.86935e+07
2.83326e+07
7.37909e+07
1.68572e+08
6.65929e+07
6.72944e+07
7.28044e+07
7.26799e+07
6.54e+07
8.61104e+07
8.63656e+07
5.09083e+07
5.07973e+07
3.38028e+07
7.93812e+07
7.95081e+07
2.52586e+07
7.56654e+07
1.7144e+08
7.23013e+07
8.89785e+07
8.34697e+07
8.85719e+07
4.7611e+07
1.69837e+08
1.30567e+08
1.67671e+08
7.35162e+07
9.43838e+07
1.64949e+08
1.30682e+08
1.33252e+08
1.55166e+08
3.89783e+07
9.52156e+07
1.07562e+08
8.2734e+07
8.23419e+07
1.06404e+08
1.09244e+08
4.17015e+07
1.67101e+08
1.67375e+08
9.05931e+07
1.7464e+08
1.03056e+08
9.12791e+07
1.71615e+08
7.84954e+07
1.45069e+08
5.83681e+07
4.19775e+07
1.30478e+08
4.99637e+07
1.77979e+08
7.24406e+07
1.53232e+08
1.15671e+08
7.11386e+07
1.43078e+08
8.70588e+07
1.1288e+08
1.43711e+08
8.58613e+07
3.89941e+07
1.44917e+08
1.76308e+08
7.21879e+07
7.68359e+07
7.7063e+07
7.69912e+07
1.77134e+08
7.48252e+07
6.77532e+07
6.71659e+07
8.39963e+07
5.46316e+07
6.62811e+07
4.68793e+07
9.31993e+07
9.85408e+07
8.72132e+07
8.96e+07
8.47719e+07
1.3841e+08
1.34776e+08
8.4625e+07
1.04484e+08
1.28824e+08
6.93908e+07
9.14302e+07
5.81883e+07
1.39455e+08
1.40732e+08
9.1828e+07
9.04176e+07
6.92215e+07
6.6543e+07
1.75963e+08
8.84276e+07
1.6326e+08
7.82232e+07
1.72186e+08
5.67227e+07
5.68979e+07
4.20989e+07
4.00645e+07
9.6299e+07
1.63726e+08
1.28744e+08
5.9614e+07
1.65353e+08
1.08714e+08
1.63858e+08
8.48605e+07
1.66075e+08
6.84973e+07
1.17832e+08
6.61553e+07
1.83971e+08
6.96809e+07
1.61141e+08
1.05759e+08
1.59914e+08
6.23916e+07
1.62187e+08
1.41636e+08
1.79653e+08
8.52704e+07
7.80849e+07
7.11139e+07
1.7746e+08
1.14276e+08
8.55989e+07
1.58765e+08
1.78467e+08
1.51256e+08
1.68921e+08
1.23985e+08
1.13611e+08
9.35689e+07
1.13343e+08
9.69377e+07
5.82571e+07
7.50641e+07
1.25112e+08
6.02295e+07
1.10635e+08
7.25168e+07
1.80148e+08
8.33501e+07
5.97232e+07
6.21702e+07
6.14327e+07
1.24136e+08
1.27567e+08
1.72443e+08
1.2661e+08
9.30933e+07
1.11855e+08
4.86491e+07
9.27713e+07
1.86879e+08
1.31924e+08
1.09844e+08
5.03599e+07
7.85114e+07
9.4038e+07
7.71418e+07
7.8367e+07
1.39588e+08
4.87076e+07
9.85544e+07
1.10254e+08
4.99395e+07
6.81099e+07
8.13462e+07
8.99316e+07
1.80948e+08
6.0115e+07
1.08487e+08
1.02938e+08
8.01955e+07
8.04272e+07
4.75423e+07
3.39228e+07
3.22691e+07
1.13602e+08
7.26577e+07
1.52339e+08
1.55227e+08
8.03635e+07
8.49064e+07
1.51983e+08
5.85382e+07
9.01654e+07
7.28033e+07
8.49071e+07
1.27497e+08
1.26676e+08
3.6856e+07
1.38159e+08
3.97209e+07
1.37884e+08
7.10104e+07
1.51846e+08
5.66889e+07
5.65203e+07
1.4502e+08
1.40319e+08
6.7084e+07
1.18837e+08
6.22875e+07
1.53219e+08
1.5308e+08
8.03228e+07
8.8668e+07
1.17614e+08
1.2854e+08
8.58613e+07
8.57853e+07
1.62326e+08
4.01533e+07
6.51629e+07
1.61259e+08
6.03337e+07
6.75451e+07
4.43696e+07
1.32016e+08
9.24582e+07
6.76786e+07
7.74156e+07
6.19562e+07
6.89764e+07
1.30014e+08
1.14981e+08
1.29495e+08
8.39156e+07
7.86875e+07
1.69724e+08
9.53101e+07
8.27544e+07
6.61008e+07
1.05273e+08
5.10257e+07
6.01482e+07
8.35771e+07
1.51965e+08
6.87378e+07
1.5926e+08
1.26305e+08
1.73435e+08
6.82416e+07
6.76897e+07
8.26675e+07
3.233e+07
8.54379e+07
8.50983e+07
3.24475e+07
1.73709e+08
5.85586e+07
7.54906e+07
1.52006e+08
1.0238e+08
1.02832e+08
5.94092e+07
1.14178e+08
1.70885e+08
1.54768e+08
8.49212e+07
1.14216e+08
7.3841e+07
8.06661e+07
1.8224e+08
7.8412e+07
5.03171e+07
5.10334e+07
1.44315e+08
1.31324e+08
1.39141e+08
7.51499e+07
7.89211e+07
1.21666e+08
7.1987e+07
1.27722e+08
7.69085e+07
9.15695e+07
1.34451e+08
5.92872e+07
2.20445e+07
5.8667e+07
1.04524e+08
7.61359e+07
7.66684e+07
5.23901e+07
5.18859e+07
5.9815e+07
6.00901e+07
1.27031e+08
9.53162e+07
7.79193e+07
6.37772e+07
5.57725e+07
8.34739e+07
1.17521e+08
4.97311e+07
1.19635e+08
1.05173e+08
1.40856e+08
4.67601e+07
1.12062e+08
8.46283e+07
3.56232e+07
3.64705e+07
1.69259e+08
8.73551e+07
9.0543e+07
1.44463e+08
6.04863e+07
6.04359e+07
1.10989e+08
1.06552e+08
1.10604e+08
1.17791e+08
8.59251e+07
5.28785e+07
1.77134e+08
4.48563e+07
1.08703e+08
1.73897e+08
1.52599e+08
1.09545e+08
1.35947e+08
7.35022e+07
7.37693e+07
3.24975e+07
4.4705e+07
6.15671e+07
6.11777e+07
3.87227e+07
4.75812e+07
8.52877e+07
6.58336e+07
5.55804e+07
1.24231e+08
6.38399e+07
1.64606e+08
1.02575e+08
1.65224e+08
9.68013e+07
6.37145e+07
6.06105e+07
6.02028e+07
1.48844e+08
9.56141e+07
2.88769e+07
6.0756e+07
1.08284e+08
1.32777e+08
8.27629e+07
8.24976e+07
7.57544e+07
9.88616e+07
9.72033e+07
1.81147e+08
9.39742e+07
1.2456e+08
1.21075e+08
6.70389e+07
1.07861e+08
7.87519e+07
1.63939e+08
7.76098e+07
7.47857e+07
6.60454e+07
8.08048e+07
3.16854e+07
1.25173e+08
1.27068e+08
1.76605e+08
3.643e+07
6.15071e+07
7.78203e+07
1.64471e+08
1.00118e+08
9.9912e+07
9.22073e+07
9.75516e+07
6.05765e+07
6.10017e+07
7.25438e+07
1.08241e+08
1.3027e+08
1.21189e+08
6.85386e+07
1.30422e+08
8.98927e+07
9.02181e+07
1.59415e+08
5.94455e+07
8.3361e+07
4.25511e+07
1.74862e+08
9.77967e+07
9.8378e+07
5.89391e+07
1.53605e+08
1.68651e+08
7.06355e+07
4.01218e+07
1.82763e+08
7.84844e+07
8.38113e+07
6.05054e+07
6.03082e+07
1.28837e+08
6.19203e+07
1.3001e+08
8.86125e+07
8.87991e+07
1.62729e+08
1.12874e+08
6.02506e+07
1.23816e+08
1.30294e+08
5.7638e+07
8.27549e+07
7.97157e+07
6.88354e+07
1.72598e+08
8.64611e+07
1.80505e+08
7.23525e+07
1.02295e+08
7.74369e+07
7.25697e+07
7.16159e+07
9.87113e+07
5.31031e+07
1.72951e+08
1.25585e+08
1.269e+08
1.18301e+08
7.53542e+07
8.74275e+07
9.30388e+07
8.41639e+07
1.33214e+08
1.14776e+08
5.59933e+07
5.57686e+07
8.5921e+07
9.26856e+07
5.21625e+07
9.04526e+07
1.53426e+08
1.46728e+08
5.5572e+07
8.32776e+07
1.15157e+08
5.68794e+07
8.28955e+07
1.75669e+08
8.87178e+07
8.0444e+07
9.22391e+07
7.19087e+07
6.72164e+07
7.88884e+07
9.33432e+07
9.78146e+07
8.43397e+07
8.38654e+07
1.61839e+08
6.01816e+07
6.06349e+07
1.32589e+08
2.86741e+07
1.73709e+08
9.34729e+07
8.86374e+07
1.3167e+08
9.03363e+07
1.33298e+08
4.71101e+07
7.55998e+07
1.33324e+08
1.64834e+08
1.41044e+08
7.11553e+07
1.07428e+08
4.61405e+07
1.34038e+08
1.52064e+08
7.07796e+07
5.81783e+07
1.4397e+08
6.33043e+07
1.55862e+08
5.88544e+07
1.44385e+08
3.04518e+07
6.18967e+07
2.91939e+07
5.17269e+07
5.03368e+07
1.8133e+08
1.67825e+08
5.95913e+07
1.48607e+08
2.67058e+07
7.02887e+07
1.66418e+08
2.03161e+07
5.99126e+07
5.17466e+07
8.8038e+07
6.96133e+07
8.59416e+07
8.54537e+07
8.39815e+07
8.92314e+07
8.31988e+07
8.24289e+07
3.47652e+07
9.01388e+07
1.25695e+08
7.24878e+07
8.54143e+07
1.4242e+08
8.94265e+07
8.6923e+07
9.96288e+07
6.18813e+07
1.3942e+08
6.45628e+07
1.52707e+08
5.96935e+07
5.93e+07
5.74175e+07
9.11292e+07
2.54521e+07
1.85936e+08
5.9884e+07
5.82092e+07
4.96788e+07
1.53659e+08
5.72869e+07
7.84925e+07
3.55575e+07
3.44796e+07
6.58493e+07
1.10114e+08
5.67658e+07
1.42808e+08
5.62555e+07
8.05636e+07
1.65892e+08
1.66667e+08
3.4488e+07
1.86309e+08
4.27531e+07
6.00952e+07
8.54429e+07
8.58209e+07
8.33944e+07
1.29638e+08
6.60427e+07
6.73642e+07
1.59189e+08
7.87853e+07
1.33542e+08
4.23141e+07
7.52421e+07
5.33602e+07
3.49654e+07
1.68403e+08
1.68046e+08
6.19676e+07
6.20427e+07
8.37443e+07
1.0551e+08
7.61787e+07
6.17081e+07
8.337e+07
1.08472e+08
8.30637e+07
1.35685e+08
8.30794e+07
7.4498e+07
9.50831e+07
1.34322e+08
6.18124e+07
4.99619e+07
9.7953e+07
7.69831e+07
6.92062e+07
6.56419e+07
7.13502e+07
7.20509e+07
1.34678e+08
9.56648e+07
7.34305e+07
6.14927e+07
1.24701e+08
1.80312e+08
1.79672e+08
8.20839e+07
1.36393e+08
1.25928e+08
7.44064e+07
1.3787e+08
3.50492e+07
1.59781e+08
4.6713e+07
1.50613e+08
3.34155e+07
6.36977e+07
7.93977e+07
6.49714e+07
6.48431e+07
1.13324e+08
9.51519e+07
9.16747e+07
9.09251e+07
1.66545e+08
9.76385e+07
5.91316e+07
1.26779e+08
1.46717e+08
1.34599e+08
9.0305e+07
7.54506e+07
1.53788e+08
5.94729e+07
1.15775e+08
1.69483e+08
6.30551e+07
1.04031e+08
1.45387e+08
6.84186e+07
4.2813e+07
7.50431e+07
1.06323e+08
8.40525e+07
1.27692e+08
1.29181e+08
5.20246e+07
7.49101e+07
8.49119e+07
1.24784e+08
1.27174e+08
6.99836e+07
7.21234e+07
7.49939e+07
1.05547e+08
1.51259e+08
1.43215e+08
3.48933e+07
1.0555e+08
9.82008e+07
9.22413e+07
7.61578e+07
6.79368e+07
1.2783e+08
9.80556e+07
7.02936e+07
7.5464e+07
1.69401e+08
1.12111e+08
8.14425e+07
1.18939e+08
6.93563e+07
1.08966e+08
1.17918e+08
6.154e+07
1.68019e+08
8.33277e+07
1.12134e+08
6.3523e+07
1.43998e+08
1.07486e+08
9.8327e+07
6.22475e+07
1.0221e+08
1.05152e+08
1.49367e+08
7.69155e+07
7.68755e+07
5.78016e+07
5.92112e+07
5.12236e+07
1.57068e+08
1.09236e+08
9.02066e+07
9.39303e+07
9.89843e+07
9.84413e+07
1.69736e+08
7.4959e+07
6.16745e+07
9.13002e+07
9.22517e+07
1.00974e+08
5.28273e+07
1.13806e+08
6.85999e+07
2.55433e+07
4.27194e+07
1.57602e+08
6.14803e+07
9.67591e+07
9.0995e+07
1.22568e+08
1.59722e+08
1.02266e+08
7.88046e+07
1.24603e+08
1.23553e+08
6.08775e+07
8.41244e+07
8.19955e+07
8.60682e+07
1.38462e+08
1.38322e+08
7.52044e+07
3.32385e+07
8.23667e+07
1.38917e+08
1.51285e+08
1.77383e+08
6.13128e+07
5.80204e+07
1.17771e+08
1.53904e+08
1.19611e+08
9.06867e+07
1.04288e+08
5.1668e+07
9.75506e+07
5.80019e+07
5.80525e+07
9.31301e+07
9.18545e+07
1.08315e+08
7.26784e+07
1.34323e+08
1.73757e+08
8.00465e+07
1.31265e+08
8.27305e+07
1.16606e+08
6.59882e+07
3.86332e+07
1.71908e+08
1.72002e+08
3.95959e+07
1.06203e+08
6.63635e+07
8.24485e+07
8.14951e+07
1.58145e+08
1.11631e+08
8.63973e+07
6.64e+07
7.87069e+07
1.75909e+08
6.39414e+07
8.02674e+07
7.4886e+07
1.28288e+08
7.74288e+07
5.69307e+07
5.03326e+07
1.67778e+08
1.76151e+08
1.83709e+08
1.2174e+08
7.14815e+07
1.13523e+08
1.10628e+08
2.89786e+07
4.18199e+07
6.46557e+07
6.99635e+07
1.61179e+08
3.82064e+07
7.02271e+07
1.1786e+08
1.17052e+08
1.5732e+08
1.28518e+08
9.78806e+07
1.05774e+08
9.53565e+07
5.97459e+07
1.64216e+08
5.90992e+07
8.00542e+07
5.82965e+07
8.9643e+07
6.81447e+07
8.41172e+07
1.05293e+08
7.19399e+07
8.62904e+07
8.98902e+07
7.97715e+07
7.98885e+07
8.03393e+07
8.04803e+07
5.91972e+07
6.26765e+07
8.1316e+07
1.5083e+08
1.29658e+08
2.94116e+07
6.5103e+07
1.50567e+08
9.89036e+07
1.1404e+08
9.047e+07
1.61417e+08
7.90034e+07
7.89072e+07
1.1929e+08
6.34712e+07
8.35974e+07
4.88157e+07
1.45746e+08
8.99728e+07
6.00607e+07
1.14119e+08
1.45739e+08
2.69329e+07
1.40329e+08
6.58047e+07
1.23968e+08
1.15869e+08
8.42655e+07
1.05141e+08
7.03145e+07
8.34135e+07
6.85104e+07
4.80326e+07
1.08882e+08
7.88679e+07
1.84933e+08
1.21984e+08
1.73346e+08
1.46287e+08
1.43781e+08
7.78099e+07
1.70725e+08
9.12881e+07
1.56004e+08
6.3993e+07
1.49782e+08
6.55775e+07
1.31812e+08
6.63873e+07
8.99502e+07
1.09843e+08
7.29571e+07
6.07546e+07
7.27202e+07
7.41853e+07
1.29844e+08
2.58347e+07
9.26383e+07
1.54717e+08
5.81029e+07
6.17707e+07
1.28727e+08
1.1534e+08
4.13538e+07
7.61449e+07
1.14512e+08
1.04236e+08
6.10263e+07
8.08582e+07
1.46329e+08
1.74933e+08
1.49796e+08
1.67208e+08
5.84607e+07
8.49407e+07
1.33853e+08
1.34078e+08
1.53958e+08
7.06531e+07
7.2914e+07
7.23403e+07
1.57308e+08
7.80466e+07
1.32507e+08
9.51792e+07
9.46209e+07
1.12715e+08
1.31259e+08
1.08805e+08
9.28681e+07
6.64261e+07
1.43364e+08
2.42533e+07
1.51546e+08
9.05794e+07
5.20755e+07
1.09006e+08
1.69847e+08
5.1564e+07
5.87622e+07
1.62886e+08
8.64639e+07
1.04227e+08
8.1084e+07
8.12042e+07
9.75523e+07
8.46837e+07
6.1011e+07
6.09431e+07
1.3014e+08
6.83798e+07
1.17986e+08
1.80987e+08
6.39213e+07
1.17494e+08
1.15119e+08
1.15682e+08
8.4372e+07
6.0395e+07
1.08066e+08
1.58492e+08
6.53545e+07
1.5867e+08
1.40563e+08
1.59551e+08
7.95031e+07
1.51627e+08
1.3031e+08
1.30973e+08
1.24685e+08
1.28208e+08
9.73115e+07
9.0454e+07
7.59027e+07
9.43211e+07
4.28658e+07
6.49875e+07
9.60646e+07
1.56145e+08
6.37038e+07
6.41042e+07
8.13887e+07
1.25677e+08
1.57476e+08
3.30886e+07
3.27126e+07
5.24732e+07
5.28467e+07
1.4014e+08
1.49008e+08
9.74299e+07
1.15324e+08
4.4497e+07
1.25548e+08
1.73998e+08
1.21796e+08
7.64407e+07
9.1485e+07
1.39155e+08
1.3111e+08
7.51506e+07
5.85385e+07
8.32755e+07
5.61759e+07
4.29228e+07
1.3725e+08
6.39897e+07
7.9001e+07
6.06316e+07
9.37285e+07
1.2755e+08
1.44896e+08
6.77757e+07
3.4206e+07
5.21956e+07
4.3877e+07
7.44543e+07
5.93396e+07
1.68135e+08
9.91822e+07
6.30265e+07
6.32983e+07
3.68965e+07
6.07927e+07
8.34906e+07
4.50646e+07
3.60458e+07
1.03462e+08
8.03128e+07
1.44221e+08
1.81082e+08
6.01517e+07
5.97777e+07
1.81481e+08
1.4289e+08
7.01943e+07
8.62622e+07
1.4001e+08
1.18883e+08
1.63044e+08
8.16014e+07
5.33859e+07
1.64704e+08
1.26687e+08
5.94495e+07
1.4263e+08
1.02622e+08
7.1173e+07
1.84191e+08
7.31927e+07
8.50048e+07
2.38769e+07
7.16473e+07
3.80706e+07
8.63954e+07
8.14539e+07
6.59888e+07
9.58202e+07
1.48052e+08
1.27399e+08
6.46531e+07
1.05785e+08
1.44704e+08
1.21686e+08
1.45617e+08
7.73164e+07
1.20189e+08
7.64785e+07
7.24056e+07
8.91797e+07
1.61347e+08
1.27966e+08
7.93368e+07
9.04671e+07
6.56365e+07
1.15616e+08
9.77792e+07
1.61279e+08
9.42042e+07
9.42857e+07
9.62078e+07
9.69668e+07
5.34746e+07
5.35825e+07
1.12298e+08
6.44328e+07
6.05874e+07
6.03266e+07
7.38335e+07
4.81212e+07
4.79548e+07
7.18936e+07
1.58891e+08
1.58217e+08
6.11455e+07
1.02961e+08
1.26141e+08
9.30955e+07
3.41555e+07
5.24564e+07
1.05721e+08
1.26167e+08
2.46637e+07
8.19753e+07
1.47807e+08
1.44816e+08
1.12417e+08
2.56365e+07
6.15995e+07
7.5178e+07
1.26703e+08
9.92344e+07
9.91915e+07
1.1997e+08
8.48069e+07
1.02698e+08
6.36004e+07
1.54528e+08
9.70267e+07
6.5107e+07
1.51659e+08
1.53191e+08
8.55299e+07
1.01243e+08
5.70647e+07
5.7512e+07
5.59711e+07
1.69871e+08
1.83108e+08
1.03554e+08
1.78039e+08
1.16551e+08
1.56307e+08
6.0767e+07
1.27523e+08
4.28807e+07
7.15572e+07
7.09787e+07
9.32436e+07
1.15763e+08
1.40773e+08
1.67306e+08
2.44236e+07
7.08455e+07
1.08551e+08
9.59061e+07
6.11652e+07
1.58425e+08
4.51206e+07
8.19244e+07
8.20716e+07
9.09072e+07
5.84646e+07
1.1432e+08
8.03217e+07
1.34235e+08
1.33173e+08
7.8872e+07
1.84436e+08
1.86251e+08
1.56912e+08
1.71613e+08
6.00308e+07
6.617e+07
7.81334e+07
1.06896e+08
1.81886e+08
5.74596e+07
1.7679e+08
5.74901e+07
5.88818e+07
8.26706e+07
6.17662e+07
1.79359e+08
3.42916e+07
4.18849e+07
2.88877e+07
6.65606e+07
8.565e+07
1.34624e+08
6.83889e+07
7.14273e+07
7.15366e+07
7.52362e+07
9.49596e+07
5.59357e+07
6.43819e+07
1.44952e+08
1.26945e+08
1.00967e+08
1.58791e+08
1.58243e+08
1.24749e+08
6.02045e+07
1.76865e+08
8.98033e+07
8.29904e+07
5.84464e+07
1.03566e+08
8.80349e+07
1.00608e+08
3.32758e+07
1.53223e+08
6.41882e+07
1.30815e+08
7.40386e+07
1.00246e+08
1.22247e+08
1.21495e+08
9.95124e+07
1.28807e+08
8.35128e+07
6.44381e+07
6.00086e+07
8.6416e+07
4.67895e+07
9.39497e+07
8.49303e+07
1.3121e+08
4.79065e+07
7.01919e+07
7.01546e+07
2.73839e+07
8.29094e+07
5.86751e+07
8.91678e+07
1.62951e+08
5.33537e+07
9.25683e+07
1.64445e+08
1.48284e+08
5.75581e+07
9.0872e+07
5.44436e+07
7.25243e+07
1.25507e+08
1.60095e+08
1.00794e+08
1.59338e+08
9.04543e+07
7.30703e+07
7.32724e+07
1.17556e+08
1.19158e+08
1.15725e+08
6.40846e+07
6.75225e+07
6.72847e+07
1.5737e+08
6.82256e+07
1.58545e+08
3.48674e+07
7.91961e+07
8.48458e+07
1.67705e+08
1.6746e+08
1.46225e+08
9.96388e+07
6.5914e+07
1.3453e+08
1.81735e+08
8.09985e+07
8.10981e+07
1.15728e+08
5.98007e+07
8.39881e+07
1.2518e+08
8.33716e+07
5.60289e+07
1.2939e+08
8.58228e+07
1.00854e+08
2.39145e+07
1.03347e+08
1.59816e+08
5.71621e+07
5.68024e+07
7.72198e+07
7.18448e+07
7.1388e+07
5.52695e+07
4.46211e+07
2.79095e+07
1.81547e+08
1.44266e+08
1.42413e+08
8.15043e+07
1.53277e+08
7.44445e+07
1.3387e+08
7.4764e+07
1.15215e+08
1.42433e+08
1.26742e+08
1.2708e+08
6.79755e+07
1.41556e+08
8.46323e+07
8.42581e+07
1.34988e+08
1.61216e+08
1.35318e+08
1.66306e+08
7.27355e+07
1.09504e+08
1.68027e+08
1.81185e+08
7.2671e+07
7.28364e+07
1.23203e+08
6.51445e+07
8.85662e+07
8.87296e+07
1.16466e+08
6.51697e+07
2.96038e+07
1.14396e+08
7.69922e+07
7.82244e+07
4.89162e+07
4.9563e+07
3.3766e+07
6.21546e+07
1.29724e+08
8.68729e+07
8.60265e+07
1.77702e+08
8.33744e+07
1.51562e+08
4.88491e+07
5.45541e+07
1.53754e+08
1.11455e+08
8.59387e+07
4.86246e+07
1.39365e+08
1.03081e+08
4.79963e+07
6.14402e+07
6.80895e+07
8.26473e+07
8.22785e+07
1.54573e+08
1.0812e+08
1.80357e+08
6.24082e+07
5.17699e+07
9.83412e+07
7.55117e+07
8.17846e+07
1.49997e+08
7.98721e+07
1.66165e+08
1.53613e+08
8.9367e+07
1.05067e+08
8.38471e+07
1.84715e+08
4.0802e+07
1.4132e+08
1.01899e+08
1.64163e+08
1.40016e+08
8.40986e+07
8.2095e+07
6.27522e+07
1.59619e+08
1.60039e+08
5.18678e+07
6.1746e+07
1.3892e+08
1.21048e+08
1.43284e+08
9.14396e+07
1.10884e+08
9.29496e+07
1.70517e+08
9.53943e+07
5.51916e+07
1.05856e+08
1.69772e+08
1.09779e+08
1.3767e+08
7.18947e+07
1.29114e+08
1.26947e+08
3.9843e+07
1.00567e+08
1.21779e+08
8.32052e+07
1.85982e+08
4.99436e+07
1.57015e+08
9.59153e+07
9.15952e+07
5.42231e+07
1.44677e+08
1.67459e+08
5.04131e+07
7.00279e+07
7.04463e+07
1.70772e+08
6.16807e+07
6.10643e+07
1.1582e+08
1.02216e+08
9.86903e+07
8.83912e+07
1.69237e+08
1.50152e+08
8.88695e+07
1.57875e+08
1.64607e+08
7.43186e+07
1.46593e+08
4.53767e+07
6.95022e+07
1.47154e+08
1.30974e+08
1.28581e+08
1.53735e+08
1.48316e+08
1.25766e+08
1.3752e+08
8.11015e+07
6.50189e+07
6.40954e+07
1.67578e+08
6.77812e+07
1.04613e+08
1.45555e+08
1.45485e+08
5.84021e+07
9.71276e+07
6.12185e+07
9.60913e+07
9.72738e+07
1.70348e+08
1.70263e+08
1.5501e+08
1.56115e+08
9.71087e+07
1.86698e+08
6.16773e+07
1.22375e+08
2.09887e+07
6.26862e+07
4.50107e+07
1.05062e+08
7.64542e+07
7.60924e+07
1.75426e+08
8.1919e+07
6.45338e+07
1.49399e+08
6.58772e+07
8.91486e+07
6.15058e+07
8.25636e+07
6.84646e+07
1.09071e+08
9.72371e+07
9.8111e+07
1.54822e+08
1.08442e+08
5.41652e+07
7.8833e+07
1.4052e+08
7.00699e+07
9.92454e+07
4.37671e+07
9.25201e+07
9.16039e+07
9.22725e+07
1.61359e+08
1.05285e+08
1.76558e+08
1.07696e+08
1.1191e+08
1.29764e+08
3.47891e+07
8.34739e+07
1.18433e+08
1.26703e+08
1.82045e+08
5.88253e+07
5.92685e+07
8.62221e+07
1.00217e+08
2.06046e+07
6.12517e+07
7.62415e+07
6.16859e+07
5.4278e+07
5.46783e+07
7.09147e+07
1.043e+08
4.95968e+07
7.6515e+07
1.13996e+08
9.8652e+07
6.80457e+07
1.81943e+08
1.82401e+08
8.02405e+07
6.47046e+07
5.56109e+07
7.03198e+07
4.65543e+07
1.83434e+08
1.47046e+08
1.10242e+08
6.06137e+07
1.46996e+08
7.99368e+07
6.14177e+07
1.30669e+08
7.06699e+07
6.10443e+07
6.08095e+07
5.87824e+07
9.38387e+07
5.03614e+07
8.60794e+07
4.89061e+07
4.70585e+07
7.57725e+07
4.3444e+07
6.14981e+07
1.10943e+08
6.31036e+07
9.30163e+07
9.52041e+07
9.54176e+07
8.23278e+07
9.49708e+07
9.44375e+07
7.39825e+07
1.62676e+08
1.29066e+08
5.79557e+07
1.16676e+08
5.24804e+07
1.81911e+08
1.8264e+08
6.0308e+07
6.01234e+07
1.03071e+08
6.00281e+07
6.90772e+07
1.7417e+08
1.7826e+08
9.42552e+07
6.16848e+07
5.48238e+07
5.54006e+07
1.56374e+08
1.05639e+08
6.60552e+07
6.66804e+07
9.56324e+07
4.24951e+07
6.00579e+07
9.63487e+07
1.47754e+08
1.12555e+08
8.46905e+07
8.37749e+07
8.09001e+07
1.00232e+08
9.99216e+07
5.86664e+07
4.7222e+07
4.70208e+07
6.15199e+07
6.17903e+07
8.42186e+07
5.90593e+07
5.87278e+07
9.907e+07
9.52973e+07
7.75382e+07
1.20096e+08
7.65652e+07
1.16845e+08
1.15838e+08
1.07917e+08
1.81236e+08
1.01103e+08
1.29234e+08
1.19848e+08
1.18599e+08
1.3586e+08
5.94094e+07
5.91314e+07
8.20168e+07
8.20508e+07
1.57355e+08
1.80398e+08
8.72867e+07
8.04181e+07
9.38694e+07
8.22413e+07
1.86667e+08
8.90769e+07
8.54968e+07
8.53029e+07
1.03077e+08
6.59972e+07
1.53518e+08
1.09542e+08
1.34461e+08
7.30089e+07
9.28937e+07
7.29232e+07
1.56079e+08
5.47865e+07
1.80902e+08
1.42355e+08
1.06989e+08
5.95594e+07
8.35948e+07
1.04542e+08
6.80172e+07
6.64286e+07
1.70385e+08
8.93814e+07
8.21742e+07
1.28454e+08
1.37043e+08
9.13407e+07
1.17408e+08
1.28479e+08
7.17128e+07
7.18539e+07
1.01686e+08
1.24486e+08
1.58353e+08
1.58419e+08
5.84345e+07
1.39203e+08
1.40101e+08
8.68615e+07
7.5735e+07
8.4204e+07
8.42489e+07
6.4422e+07
1.06501e+08
1.10674e+08
6.92973e+07
9.80348e+07
9.51496e+07
1.75486e+08
8.86753e+07
6.8102e+07
1.51547e+08
5.5051e+07
5.84942e+07
1.29594e+08
7.6612e+07
1.06124e+08
7.55549e+07
4.74593e+07
4.67602e+07
9.42307e+07
8.41579e+07
1.56345e+08
6.44149e+07
7.03848e+07
3.12879e+07