/*--------------------------------*- C++ -*----------------------------------*\
| =========                 |                                                 |
| \\      /  F ield         | OpenFOAM: The Open Source CFD Toolbox           |
|  \\    /   O peration     | Version:  v2012                                 |
|   \\  /    A nd           | Website:  www.openfoam.com                      |
|    \\/     M anipulation  |                                                 |
\*---------------------------------------------------------------------------*/
FoamFile
{
    version     2.0;
    format      ascii;
    class       volVectorField;
    location    "1";
    object      U;
}
// * * * * * * * * * * * * * * * * * * * * * * * * * * * * * * * * * * * * * //

dimensions      [0 1 -1 0 0 0 0];


internalField   uniform (0 0 0);

boundaryField
{
    bottom
    {
        type            calculated;
        value           uniform (0 0 0);
    }
    inside
    {
        type            calculated;
        value           uniform (0 0 0);
    }
    symmx
    {
        type            symmetry;
    }
    top
    {
        type            calculated;
        value           uniform (0 0 0);
    }
    symmy
    {
        type            symmetry;
    }
    outside
    {
        type            calculated;
        value           uniform (0 0 0);
    }
}


// ************************************************************************* //
