/*--------------------------------*- C++ -*----------------------------------*\
| =========                 |                                                 |
| \\      /  F ield         | OpenFOAM: The Open Source CFD Toolbox           |
|  \\    /   O peration     | Version:  v2012                                 |
|   \\  /    A nd           | Website:  www.openfoam.com                      |
|    \\/     M anipulation  |                                                 |
\*---------------------------------------------------------------------------*/
FoamFile
{
    version     2.0;
    format      ascii;
    class       volVectorField;
    location    "1";
    object      D;
}
// * * * * * * * * * * * * * * * * * * * * * * * * * * * * * * * * * * * * * //

dimensions      [0 1 0 0 0 0 0];


internalField   nonuniform List<vector> 
2000
(
(9.2289e-06 -0.000202072 0)
(1.75614e-05 -0.000203507 0)
(8.0551e-06 -0.000208096 0)
(1.60378e-05 -0.00020943 0)
(7.33494e-06 -0.000213182 0)
(1.48667e-05 -0.000214159 0)
(6.84849e-06 -0.000217331 0)
(1.39715e-05 -0.000217978 0)
(6.48353e-06 -0.000220788 0)
(1.32744e-05 -0.000221191 0)
(6.19433e-06 -0.000223781 0)
(1.27186e-05 -0.000224002 0)
(5.95897e-06 -0.000226456 0)
(1.22651e-05 -0.000226536 0)
(5.76099e-06 -0.000228907 0)
(1.18833e-05 -0.000228879 0)
(5.59071e-06 -0.000231196 0)
(1.15486e-05 -0.000231093 0)
(5.4631e-06 -0.000233354 0)
(1.12402e-05 -0.00023323 0)
(3.86111e-05 -0.000199327 0)
(4.59703e-05 -0.000199774 0)
(3.4651e-05 -0.0002051 0)
(4.17449e-05 -0.000205287 0)
(3.17252e-05 -0.000209937 0)
(3.85568e-05 -0.000209679 0)
(2.95257e-05 -0.000213869 0)
(3.61377e-05 -0.000213221 0)
(2.7835e-05 -0.00021714 0)
(3.42672e-05 -0.000216192 0)
(2.65146e-05 -0.000219965 0)
(3.27954e-05 -0.000218783 0)
(2.54708e-05 -0.000222482 0)
(3.16214e-05 -0.000221109 0)
(2.46342e-05 -0.000224781 0)
(3.06689e-05 -0.000223249 0)
(2.39537e-05 -0.000226925 0)
(2.98719e-05 -0.000225251 0)
(2.3398e-05 -0.000228959 0)
(2.9163e-05 -0.000227144 0)
(6.74693e-05 -0.000194647 0)
(7.39586e-05 -0.000194049 0)
(6.11176e-05 -0.000199508 0)
(6.75149e-05 -0.000198519 0)
(5.62436e-05 -0.00020361 0)
(6.25707e-05 -0.00020209 0)
(5.24793e-05 -0.000206956 0)
(5.87568e-05 -0.000204994 0)
(4.95468e-05 -0.000209752 0)
(5.57814e-05 -0.000207451 0)
(4.72447e-05 -0.000212176 0)
(5.34354e-05 -0.000209604 0)
(4.54223e-05 -0.000214342 0)
(5.1567e-05 -0.000211542 0)
(4.39631e-05 -0.000216321 0)
(5.00583e-05 -0.000213323 0)
(4.2778e-05 -0.000218165 0)
(4.8811e-05 -0.000214983 0)
(4.18027e-05 -0.000219908 0)
(4.77344e-05 -0.00021654 0)
(9.58723e-05 -0.000188109 0)
(0.00010159 -0.000186327 0)
(8.74436e-05 -0.00019161 0)
(9.32577e-05 -0.000189394 0)
(8.09064e-05 -0.000194608 0)
(8.68466e-05 -0.000191861 0)
(7.58123e-05 -0.000197063 0)
(8.18699e-05 -0.000193878 0)
(7.1816e-05 -0.000199132 0)
(7.79644e-05 -0.000195602 0)
(6.86639e-05 -0.000200942 0)
(7.48758e-05 -0.000197128 0)
(6.61643e-05 -0.000202569 0)
(7.24177e-05 -0.00019851 0)
(6.4167e-05 -0.000204061 0)
(7.04434e-05 -0.000199783 0)
(6.25538e-05 -0.000205449 0)
(6.88308e-05 -0.000200962 0)
(6.12335e-05 -0.000206754 0)
(6.74693e-05 -0.000202051 0)
(0.000123624 -0.000179887 0)
(0.000128692 -0.000176939 0)
(0.000113576 -0.000181728 0)
(0.000118923 -0.000178336 0)
(0.000105725 -0.000183366 0)
(0.000111382 -0.000179486 0)
(9.95732e-05 -0.000184718 0)
(0.000105502 -0.000180442 0)
(9.47272e-05 -0.000185878 0)
(0.000100871 -0.000181285 0)
(9.08934e-05 -0.000186919 0)
(9.72005e-05 -0.000182056 0)
(8.78498e-05 -0.000187875 0)
(9.42808e-05 -0.000182774 0)
(8.54223e-05 -0.000188765 0)
(9.19455e-05 -0.000183446 0)
(8.34726e-05 -0.000189597 0)
(9.00579e-05 -0.000184067 0)
(8.18895e-05 -0.000190377 0)
(8.84962e-05 -0.000184627 0)
(0.000150499 -0.000170265 0)
(0.000155054 -0.000166241 0)
(0.000139374 -0.000170272 0)
(0.000144371 -0.000165827 0)
(0.00013062 -0.000170402 0)
(0.000136086 -0.000165545 0)
(0.000123725 -0.000170526 0)
(0.000129595 -0.000165345 0)
(0.000118271 -0.000170672 0)
(0.000124463 -0.000165226 0)
(0.000113945 -0.000170855 0)
(0.000120389 -0.000165177 0)
(0.000110508 -0.000171067 0)
(0.000117149 -0.000165179 0)
(0.000107772 -0.000171296 0)
(0.000114568 -0.000165211 0)
(0.000105585 -0.000171528 0)
(0.000112502 -0.000165251 0)
(0.000103826 -0.00017175 0)
(0.000110824 -0.000165273 0)
(0.000176297 -0.000159565 0)
(0.000180472 -0.000154601 0)
(0.000164658 -0.000157695 0)
(0.000169413 -0.000152366 0)
(0.000155439 -0.000156273 0)
(0.000160787 -0.000150634 0)
(0.000148137 -0.000155129 0)
(0.000153992 -0.000149258 0)
(0.000142336 -0.000154227 0)
(0.0001486 -0.000148162 0)
(0.000137722 -0.000153525 0)
(0.000144311 -0.000147284 0)
(0.000134053 -0.000152976 0)
(0.000140903 -0.000146568 0)
(0.000131138 -0.000152536 0)
(0.000138198 -0.00014597 0)
(0.00012882 -0.000152171 0)
(0.00013605 -0.000145448 0)
(0.000126969 -0.00015185 0)
(0.000134336 -0.000144962 0)
(0.000200838 -0.000148099 0)
(0.000204753 -0.000142364 0)
(0.000189228 -0.000144434 0)
(0.000193826 -0.000138415 0)
(0.00017997 -0.000141518 0)
(0.000185248 -0.000135307 0)
(0.000172594 -0.000139147 0)
(0.000178452 -0.000132809 0)
(0.000166708 -0.000137227 0)
(0.000173037 -0.000130781 0)
(0.000162015 -0.000135668 0)
(0.000168725 -0.000129114 0)
(0.000158284 -0.000134385 0)
(0.000165304 -0.000127722 0)
(0.000155328 -0.000133311 0)
(0.000162602 -0.000126537 0)
(0.00015299 -0.000132391 0)
(0.000160476 -0.000125503 0)
(0.000151135 -0.000131578 0)
(0.000158806 -0.000124566 0)
(0.000223968 -0.000136149 0)
(0.000227717 -0.000129827 0)
(0.000212871 -0.000130881 0)
(0.000217371 -0.000124371 0)
(0.000203961 -0.000126617 0)
(0.000209192 -0.000120042 0)
(0.000196816 -0.000123132 0)
(0.000202668 -0.000116543 0)
(0.000191088 -0.000120283 0)
(0.000197448 -0.000113682 0)
(0.000186511 -0.000117942 0)
(0.000193286 -0.000111314 0)
(0.000182879 -0.000115994 0)
(0.000189997 -0.000109325 0)
(0.000180017 -0.00011435 0)
(0.000187424 -0.000107626 0)
(0.00017777 -0.000112935 0)
(0.00018543 -0.000106141 0)
(0.000176001 -0.000111682 0)
(0.000183895 -0.000104813 0)
(0.000245561 -0.000123954 0)
(0.000249215 -0.000117228 0)
(0.000235381 -0.000117356 0)
(0.000239821 -0.000110548 0)
(0.00022715 -0.000111966 0)
(0.000232336 -0.000105219 0)
(0.000220499 -0.000107546 0)
(0.000226318 -0.000100899 0)
(0.000215131 -0.000103919 0)
(0.000221469 -9.73542e-05 0)
(0.000210824 -0.00010092 0)
(0.000217587 -9.44161e-05 0)
(0.000207407 -9.84144e-05 0)
(0.000214521 -9.19579e-05 0)
(0.000204745 -9.63029e-05 0)
(0.000212159 -8.98827e-05 0)
(0.000202717 -9.45174e-05 0)
(0.000210415 -8.81021e-05 0)
(0.000201185 -9.30111e-05 0)
(0.000209204 -8.65009e-05 0)
(0.000265525 -0.000111685 0)
(0.000269131 -0.000104729 0)
(0.000256574 -0.000104087 0)
(0.00026097 -9.716e-05 0)
(0.000249292 -9.78456e-05 0)
(0.000254417 -9.11036e-05 0)
(0.000243363 -9.27229e-05 0)
(0.000249105 -8.61867e-05 0)
(0.00023854 -8.85182e-05 0)
(0.000244793 -8.2151e-05 0)
(0.000234637 -8.50479e-05 0)
(0.00024131 -7.88068e-05 0)
(0.000231507 -8.21599e-05 0)
(0.000238521 -7.60129e-05 0)
(0.000229038 -7.97389e-05 0)
(0.00023632 -7.367e-05 0)
(0.000227168 -7.77176e-05 0)
(0.000234625 -7.17303e-05 0)
(0.000225864 -7.61088e-05 0)
(0.000233366 -7.02343e-05 0)
(0.000283782 -9.94505e-05 0)
(0.00028736 -9.24265e-05 0)
(0.00027628 -9.12174e-05 0)
(0.000280624 -8.43311e-05 0)
(0.000270146 -8.4424e-05 0)
(0.000275178 -7.78383e-05 0)
(0.00026512 -7.88385e-05 0)
(0.000270731 -7.25584e-05 0)
(0.00026101 -7.42451e-05 0)
(0.000267108 -6.82188e-05 0)
(0.000257681 -7.04465e-05 0)
(0.000264189 -6.46181e-05 0)
(0.00025502 -6.72788e-05 0)
(0.000261877 -6.15982e-05 0)
(0.000252938 -6.46118e-05 0)
(0.000260088 -5.9025e-05 0)
(0.000251375 -6.23518e-05 0)
(0.000258728 -5.6796e-05 0)
(0.000250299 -6.04856e-05 0)
(0.000257625 -5.49094e-05 0)
(0.00030024 -8.73215e-05 0)
(0.000303779 -8.03874e-05 0)
(0.000294316 -7.88428e-05 0)
(0.000298572 -7.21424e-05 0)
(0.00028945 -7.18174e-05 0)
(0.000294324 -6.55138e-05 0)
(0.000285429 -6.60285e-05 0)
(0.000290825 -6.01104e-05 0)
(0.000282122 -6.12562e-05 0)
(0.000287959 -5.56568e-05 0)
(0.000279438 -5.72987e-05 0)
(0.000285649 -5.19519e-05 0)
(0.000277305 -5.39904e-05 0)
(0.000283833 -4.88406e-05 0)
(0.000275665 -5.12031e-05 0)
(0.000282456 -4.61937e-05 0)
(0.000274476 -4.88496e-05 0)
(0.000281449 -4.39083e-05 0)
(0.0002737 -4.69291e-05 0)
(0.000280655 -4.19446e-05 0)
(0.000314805 -7.53563e-05 0)
(0.000318262 -6.86601e-05 0)
(0.0003105 -6.70253e-05 0)
(0.000314603 -6.06424e-05 0)
(0.000306941 -6.00939e-05 0)
(0.000311573 -5.41836e-05 0)
(0.000303966 -5.43696e-05 0)
(0.000309041 -4.89084e-05 0)
(0.000301498 -4.96413e-05 0)
(0.00030695 -4.45527e-05 0)
(0.000299491 -4.57141e-05 0)
(0.000305268 -4.09255e-05 0)
(0.000297908 -4.24298e-05 0)
(0.000303961 -3.78802e-05 0)
(0.000296717 -3.96662e-05 0)
(0.000303001 -3.5295e-05 0)
(0.000295898 -3.73456e-05 0)
(0.000302341 -3.30706e-05 0)
(0.000295429 -3.54863e-05 0)
(0.000301843 -3.11578e-05 0)
(0.000327401 -6.35918e-05 0)
(0.000330713 -5.72614e-05 0)
(0.00032467 -5.57848e-05 0)
(0.000328539 -4.98299e-05 0)
(0.000322389 -4.92636e-05 0)
(0.000326683 -4.38349e-05 0)
(0.000320439 -4.38671e-05 0)
(0.000325085 -3.89316e-05 0)
(0.000318795 -3.94027e-05 0)
(0.000323746 -3.4878e-05 0)
(0.000317456 -3.56914e-05 0)
(0.000322672 -3.15011e-05 0)
(0.000316416 -3.25885e-05 0)
(0.000321861 -2.86688e-05 0)
(0.000315667 -2.99845e-05 0)
(0.000321308 -2.62698e-05 0)
(0.00031521 -2.78134e-05 0)
(0.000320986 -2.42082e-05 0)
(0.000315033 -2.61043e-05 0)
(0.000320773 -2.24253e-05 0)
(0.000337977 -5.20382e-05 0)
(0.000341064 -4.61766e-05 0)
(0.000336695 -4.50975e-05 0)
(0.000340238 -3.96554e-05 0)
(0.000335596 -3.92786e-05 0)
(0.000339451 -3.43935e-05 0)
(0.000334599 -3.44544e-05 0)
(0.000338706 -3.00849e-05 0)
(0.000333723 -3.04584e-05 0)
(0.000338056 -2.65183e-05 0)
(0.000333007 -2.71339e-05 0)
(0.000337541 -2.35456e-05 0)
(0.000332473 -2.43553e-05 0)
(0.000337185 -2.10536e-05 0)
(0.000332136 -2.20291e-05 0)
(0.000337006 -1.89453e-05 0)
(0.000332015 -2.01027e-05 0)
(0.000336996 -1.71322e-05 0)
(0.000332106 -1.86147e-05 0)
(0.000337048 -1.55478e-05 0)
(0.000346499 -4.06775e-05 0)
(0.000349268 -3.53627e-05 0)
(0.000346473 -3.49023e-05 0)
(0.000349587 -3.00322e-05 0)
(0.000346403 -3.00443e-05 0)
(0.00034971 -2.57378e-05 0)
(0.000346236 -2.60089e-05 0)
(0.000349694 -2.22155e-05 0)
(0.000346031 -2.26608e-05 0)
(0.000349634 -1.92934e-05 0)
(0.00034586 -1.98711e-05 0)
(0.000349601 -1.68545e-05 0)
(0.00034577 -1.75375e-05 0)
(0.000349638 -1.48084e-05 0)
(0.000345796 -1.5586e-05 0)
(0.000349781 -1.30756e-05 0)
(0.000345969 -1.39794e-05 0)
(0.000350039 -1.15784e-05 0)
(0.000346291 -1.27652e-05 0)
(0.000350324 -1.02465e-05 0)
(0.000352935 -2.94574e-05 0)
(0.00035527 -2.47508e-05 0)
(0.000353911 -2.5117e-05 0)
(0.000356482 -2.08501e-05 0)
(0.000354668 -2.14384e-05 0)
(0.000357311 -1.77137e-05 0)
(0.000355167 -1.83692e-05 0)
(0.000357868 -1.51288e-05 0)
(0.000355507 -1.58134e-05 0)
(0.00035828 -1.29753e-05 0)
(0.000355782 -1.3676e-05 0)
(0.000358634 -1.11723e-05 0)
(0.000356056 -1.18826e-05 0)
(0.000358987 -9.65444e-06 0)
(0.000356377 -1.0381e-05 0)
(0.000359386 -8.36211e-06 0)
(0.000356787 -9.15028e-06 0)
(0.000359857 -7.23199e-06 0)
(0.000357296 -8.24579e-06 0)
(0.000360331 -6.19351e-06 0)
(0.000357179 -1.83161e-05 0)
(0.000358945 -1.42789e-05 0)
(0.000358899 -1.56614e-05 0)
(0.000360787 -1.20121e-05 0)
(0.000360254 -1.33296e-05 0)
(0.000362124 -1.01641e-05 0)
(0.000361243 -1.13479e-05 0)
(0.000363103 -8.6159e-06 0)
(0.000361995 -9.68289e-06 0)
(0.000363867 -7.31669e-06 0)
(0.000362612 -8.2827e-06 0)
(0.00036451 -6.22234e-06 0)
(0.000363164 -7.10169e-06 0)
(0.000365096 -5.29187e-06 0)
(0.000363707 -6.10924e-06 0)
(0.000365678 -4.48674e-06 0)
(0.000364292 -5.3025e-06 0)
(0.000366293 -3.7636e-06 0)
(0.000364933 -4.74382e-06 0)
(0.000366895 -3.05978e-06 0)
(0.000359019 -7.38407e-06 0)
(0.000360191 -4.07394e-06 0)
(0.000361274 -6.47567e-06 0)
(0.000362443 -3.47642e-06 0)
(0.000363043 -5.54621e-06 0)
(0.000364114 -2.94954e-06 0)
(0.000364374 -4.72358e-06 0)
(0.000365366 -2.48599e-06 0)
(0.000365413 -4.02365e-06 0)
(0.000366353 -2.09418e-06 0)
(0.000366268 -3.43249e-06 0)
(0.00036718 -1.76273e-06 0)
(0.000367018 -2.92944e-06 0)
(0.000367923 -1.46779e-06 0)
(0.000367726 -2.49709e-06 0)
(0.000368641 -1.17775e-06 0)
(0.000368455 -2.13327e-06 0)
(0.000369364 -8.53849e-07 0)
(0.000369238 -1.87146e-06 0)
(0.000370042 -4.49929e-07 0)
(0.000370907 -8.96e-07 0)
(0.000371216 -1.30757e-06 0)
(0.000367987 -3.1571e-06 0)
(0.000367463 -3.5002e-06 0)
(0.00036178 -5.89738e-06 0)
(0.000360508 -6.23256e-06 0)
(0.000352292 -9.44199e-06 0)
(0.000350428 -9.80071e-06 0)
(0.000339672 -1.41321e-05 0)
(0.000337395 -1.45224e-05 0)
(0.000324156 -2.0289e-05 0)
(0.000321653 -2.06979e-05 0)
(0.000306049 -2.81935e-05 0)
(0.000303499 -2.85862e-05 0)
(0.000285711 -3.80646e-05 0)
(0.000283272 -3.83846e-05 0)
(0.000263534 -5.0055e-05 0)
(0.000261329 -5.02168e-05 0)
(0.000239887 -6.42794e-05 0)
(0.000237992 -6.42243e-05 0)
(0.000373269 -5.1839e-07 0)
(0.000373664 -1.08802e-06 0)
(0.000370721 -2.33233e-06 0)
(0.000370396 -2.83718e-06 0)
(0.000365188 -4.46958e-06 0)
(0.000364224 -4.98993e-06 0)
(0.000356774 -7.2497e-06 0)
(0.000355312 -7.80955e-06 0)
(0.000345618 -1.09431e-05 0)
(0.000343817 -1.15418e-05 0)
(0.000331912 -1.58127e-05 0)
(0.000329929 -1.64306e-05 0)
(0.000315894 -2.21014e-05 0)
(0.000313881 -2.27011e-05 0)
(0.000297836 -3.00077e-05 0)
(0.00029593 -3.05347e-05 0)
(0.000278041 -3.96395e-05 0)
(0.000276364 -4.00226e-05 0)
(0.000256897 -5.10229e-05 0)
(0.00025551 -5.11816e-05 0)
(0.0003762 -3.39342e-07 0)
(0.000376889 -9.20413e-07 0)
(0.000373999 -1.7823e-06 0)
(0.000374019 -2.32067e-06 0)
(0.000369108 -3.49776e-06 0)
(0.000368552 -4.06067e-06 0)
(0.000361657 -5.72886e-06 0)
(0.000360654 -6.34022e-06 0)
(0.00035178 -8.68832e-06 0)
(0.000350468 -9.3477e-06 0)
(0.000339638 -1.25852e-05 0)
(0.000338154 -1.32741e-05 0)
(0.000325425 -1.76178e-05 0)
(0.000323897 -1.8302e-05 0)
(0.000309363 -2.3956e-05 0)
(0.000307909 -2.45855e-05 0)
(0.000291712 -3.17191e-05 0)
(0.000290432 -3.22294e-05 0)
(0.00027274 -4.09827e-05 0)
(0.000271717 -4.13097e-05 0)
(0.000379831 -2.7986e-07 0)
(0.000380797 -8.28747e-07 0)
(0.000377915 -1.49454e-06 0)
(0.000378269 -2.03394e-06 0)
(0.0003736 -2.93339e-06 0)
(0.000373427 -3.51202e-06 0)
(0.000366996 -4.78756e-06 0)
(0.000366411 -5.42373e-06 0)
(0.000358226 -7.22295e-06 0)
(0.00035735 -7.91652e-06 0)
(0.000347431 -1.04019e-05 0)
(0.000346383 -1.11376e-05 0)
(0.000334777 -1.44802e-05 0)
(0.000333672 -1.52283e-05 0)
(0.000320455 -1.96002e-05 0)
(0.000319397 -2.03161e-05 0)
(0.000304666 -2.58821e-05 0)
(0.000303747 -2.65095e-05 0)
(0.000287618 -3.33985e-05 0)
(0.000286911 -3.38698e-05 0)
(0.000384124 -2.75268e-07 0)
(0.000385334 -7.94136e-07 0)
(0.000382433 -1.39137e-06 0)
(0.000383089 -1.92743e-06 0)
(0.000378606 -2.68093e-06 0)
(0.000378781 -3.27118e-06 0)
(0.000372732 -4.30052e-06 0)
(0.000372524 -4.95726e-06 0)
(0.000364915 -6.38178e-06 0)
(0.00036443 -7.10361e-06 0)
(0.000355279 -9.05057e-06 0)
(0.000354624 -9.82425e-06 0)
(0.00034397 -1.24274e-05 0)
(0.000343249 -1.32276e-05 0)
(0.000331152 -1.66236e-05 0)
(0.000330459 -1.74134e-05 0)
(0.000316995 -2.17365e-05 0)
(0.000316413 -2.24656e-05 0)
(0.000301676 -2.78411e-05 0)
(0.000301272 -2.84414e-05 0)
(0.000389029 -2.97817e-07 0)
(0.000390467 -8.03475e-07 0)
(0.000387522 -1.40383e-06 0)
(0.000388456 -1.94397e-06 0)
(0.000384106 -2.64146e-06 0)
(0.0003846 -3.2453e-06 0)
(0.000378855 -4.13733e-06 0)
(0.000378994 -4.81361e-06 0)
(0.000371857 -5.9966e-06 0)
(0.000371734 -6.7429e-06 0)
(0.000363223 -8.31765e-06 0)
(0.000362933 -9.12229e-06 0)
(0.000353079 -1.11932e-05 0)
(0.000352716 -1.20354e-05 0)
(0.000341569 -1.47074e-05 0)
(0.00034122 -1.5557e-05 0)
(0.000328843 -1.89332e-05 0)
(0.000328586 -1.9748e-05 0)
(0.000315056 -2.39312e-05 0)
(0.000314954 -2.46502e-05 0)
(0.000394515 -3.33944e-07 0)
(0.000396168 -8.42498e-07 0)
(0.00039316 -1.48663e-06 0)
(0.000394354 -2.03991e-06 0)
(0.000390094 -2.73954e-06 0)
(0.000390884 -3.36076e-06 0)
(0.000385376 -4.19349e-06 0)
(0.000385837 -4.88954e-06 0)
(0.000379086 -5.93188e-06 0)
(0.0003793 -6.70051e-06 0)
(0.00037132 -8.03185e-06 0)
(0.000371372 -8.86338e-06 0)
(0.000362193 -1.05655e-05 0)
(0.000362166 -1.14431e-05 0)
(0.00035183 -1.3598e-05 0)
(0.000351806 -1.44975e-05 0)
(0.000340365 -1.71842e-05 0)
(0.000340418 -1.80719e-05 0)
(0.000327939 -2.13641e-05 0)
(0.000328131 -2.21906e-05 0)
(0.00040055 -3.7655e-07 0)
(0.000402405 -8.99778e-07 0)
(0.000399326 -1.6118e-06 0)
(0.000400761 -2.18505e-06 0)
(0.000396559 -2.92434e-06 0)
(0.000397623 -3.5663e-06 0)
(0.000392303 -4.39425e-06 0)
(0.000393061 -5.11086e-06 0)
(0.000386626 -6.08747e-06 0)
(0.000387153 -6.87742e-06 0)
(0.000379618 -8.06451e-06 0)
(0.00037999 -8.92051e-06 0)
(0.000371381 -1.03813e-05 0)
(0.000371674 -1.12903e-05 0)
(0.00036203 -1.30885e-05 0)
(0.000362317 -1.40311e-05 0)
(0.000351687 -1.62301e-05 0)
(0.000352038 -1.71784e-05 0)
(0.000340476 -1.98433e-05 0)
(0.000340951 -2.07532e-05 0)
(0.000407104 -4.21709e-07 0)
(0.000409146 -9.67123e-07 0)
(0.000405992 -1.76061e-06 0)
(0.000407649 -2.35773e-06 0)
(0.000403485 -3.16035e-06 0)
(0.000404801 -3.8246e-06 0)
(0.000399629 -4.68504e-06 0)
(0.000400663 -5.42194e-06 0)
(0.000394489 -6.38714e-06 0)
(0.000395308 -7.19657e-06 0)
(0.000388146 -8.3144e-06 0)
(0.000388817 -9.19144e-06 0)
(0.000380694 -1.05106e-05 0)
(0.000381288 -1.14455e-05 0)
(0.000372237 -1.30151e-05 0)
(0.000372823 -1.39928e-05 0)
(0.000362888 -1.58612e-05 0)
(0.00036353 -1.686e-05 0)
(0.000352755 -1.90736e-05 0)
(0.00035351 -2.00607e-05 0)
(0.00041414 -4.66493e-07 0)
(0.000416356 -1.0378e-06 0)
(0.000413127 -1.9186e-06 0)
(0.000414989 -2.54038e-06 0)
(0.000410848 -3.42e-06 0)
(0.000412396 -4.10542e-06 0)
(0.000407344 -5.02288e-06 0)
(0.000408633 -5.77746e-06 0)
(0.000402677 -6.76972e-06 0)
(0.000403765 -7.59457e-06 0)
(0.00039692 -8.69855e-06 0)
(0.000397871 -9.59098e-06 0)
(0.000390163 -1.08435e-05 0)
(0.000391041 -1.17969e-05 0)
(0.000382503 -1.32345e-05 0)
(0.000383371 -1.42379e-05 0)
(0.000374043 -1.58976e-05 0)
(0.000374963 -1.69342e-05 0)
(0.000364881 -1.88533e-05 0)
(0.000365907 -1.98964e-05 0)
(0.000421625 -5.08171e-07 0)
(0.000423999 -1.10565e-06 0)
(0.000420699 -2.0733e-06 0)
(0.000422749 -2.71736e-06 0)
(0.000418621 -3.67983e-06 0)
(0.000420383 -4.38227e-06 0)
(0.00041543 -5.37145e-06 0)
(0.000416952 -6.13812e-06 0)
(0.000411183 -7.18352e-06 0)
(0.00041252 -8.01684e-06 0)
(0.000405948 -9.1472e-06 0)
(0.000407158 -1.00465e-05 0)
(0.00039981 -1.12897e-05 0)
(0.000400953 -1.22512e-05 0)
(0.000392861 -1.36342e-05 0)
(0.000393996 -1.4651e-05 0)
(0.000385197 -1.61991e-05 0)
(0.000386383 -1.72601e-05 0)
(0.000376916 -1.89996e-05 0)
(0.000378206 -2.00838e-05 0)
(0.000429521 -5.4408e-07 0)
(0.000432041 -1.16478e-06 0)
(0.000428675 -2.21321e-06 0)
(0.000430895 -2.87396e-06 0)
(0.000426777 -3.91862e-06 0)
(0.000428732 -4.63065e-06 0)
(0.000423865 -5.69835e-06 0)
(0.000425601 -6.46823e-06 0)
(0.000419993 -7.58305e-06 0)
(0.000421559 -8.41456e-06 0)
(0.000415225 -9.59907e-06 0)
(0.000416675 -1.04935e-05 0)
(0.000409643 -1.1769e-05 0)
(0.000411032 -1.27249e-05 0)
(0.000403333 -1.41116e-05 0)
(0.000404717 -1.51252e-05 0)
(0.000396387 -1.66423e-05 0)
(0.00039782 -1.7706e-05 0)
(0.000388897 -1.93721e-05 0)
(0.000390432 -2.04704e-05 0)
(0.000437793 -5.71535e-07 0)
(0.000440441 -1.20939e-06 0)
(0.000437018 -2.32709e-06 0)
(0.000439392 -2.99568e-06 0)
(0.000435283 -4.11598e-06 0)
(0.000437414 -4.82672e-06 0)
(0.000432623 -5.97297e-06 0)
(0.000434552 -6.7335e-06 0)
(0.000429088 -7.92599e-06 0)
(0.000430863 -8.74154e-06 0)
(0.000424742 -9.99836e-06 0)
(0.000426412 -1.08721e-05 0)
(0.000419661 -1.22094e-05 0)
(0.000421277 -1.31423e-05 0)
(0.000413927 -1.45746e-05 0)
(0.000415542 -1.55656e-05 0)
(0.000407631 -1.71064e-05 0)
(0.000409296 -1.81509e-05 0)
(0.000400861 -1.98156e-05 0)
(0.000402624 -2.09008e-05 0)
(0.000446399 -5.87703e-07 0)
(0.000449161 -1.23344e-06 0)
(0.00044569 -2.40345e-06 0)
(0.0004482 -3.0675e-06 0)
(0.000444104 -4.25136e-06 0)
(0.000446391 -4.94605e-06 0)
(0.000441673 -6.16485e-06 0)
(0.000443776 -6.8993e-06 0)
(0.000438445 -8.17072e-06 0)
(0.000440408 -8.95176e-06 0)
(0.000434481 -1.02906e-05 0)
(0.00043635 -1.11231e-05 0)
(0.000429854 -1.25421e-05 0)
(0.000431676 -1.34291e-05 0)
(0.000424642 -1.4939e-05 0)
(0.000426467 -1.58817e-05 0)
(0.000418931 -1.74903e-05 0)
(0.000420809 -1.84876e-05 0)
(0.000412809 -2.01979e-05 0)
(0.000414785 -2.12442e-05 0)
(0.000455296 -5.89385e-07 0)
(0.000458155 -1.23035e-06 0)
(0.00045465 -2.42983e-06 0)
(0.000457276 -3.07311e-06 0)
(0.000453201 -4.30267e-06 0)
(0.000455624 -4.96226e-06 0)
(0.000450981 -6.24172e-06 0)
(0.000453237 -6.92872e-06 0)
(0.000448034 -8.27417e-06 0)
(0.000450163 -8.99707e-06 0)
(0.000444418 -1.04211e-05 0)
(0.000446464 -1.11866e-05 0)
(0.000440204 -1.26988e-05 0)
(0.000442212 -1.35122e-05 0)
(0.000435468 -1.51197e-05 0)
(0.000437484 -1.59847e-05 0)
(0.000430296 -1.76937e-05 0)
(0.000432364 -1.86105e-05 0)
(0.000424772 -2.04294e-05 0)
(0.000426936 -2.13911e-05 0)
(0.000464436 -5.72465e-07 0)
(0.000467372 -1.19232e-06 0)
(0.00046385 -2.39164e-06 0)
(0.000466572 -2.99363e-06 0)
(0.00046253 -4.24443e-06 0)
(0.000465069 -4.84529e-06 0)
(0.000460506 -6.1672e-06 0)
(0.000462894 -6.78017e-06 0)
(0.000457819 -8.1888e-06 0)
(0.000460093 -8.82399e-06 0)
(0.000454524 -1.03306e-05 0)
(0.000456725 -1.09967e-05 0)
(0.000450688 -1.26088e-05 0)
(0.000452859 -1.33132e-05 0)
(0.000446386 -1.50351e-05 0)
(0.000448571 -1.57839e-05 0)
(0.0004417 -1.76173e-05 0)
(0.000443941 -1.84127e-05 0)
(0.000436713 -2.03596e-05 0)
(0.000439049 -2.11977e-05 0)
(0.000473763 -5.31059e-07 0)
(0.000476753 -1.10948e-06 0)
(0.000473237 -2.27049e-06 0)
(0.000476032 -2.80572e-06 0)
(0.000472041 -4.04641e-06 0)
(0.00047467 -4.5595e-06 0)
(0.000470201 -5.89975e-06 0)
(0.000472695 -6.40536e-06 0)
(0.000467757 -7.86118e-06 0)
(0.00047015 -8.37106e-06 0)
(0.00046476 -9.95317e-06 0)
(0.000467091 -1.04781e-05 0)
(0.000461274 -1.21929e-05 0)
(0.000463583 -1.27429e-05 0)
(0.00045737 -1.45923e-05 0)
(0.000459699 -1.51765e-05 0)
(0.000453128 -1.7157e-05 0)
(0.000455517 -1.77822e-05 0)
(0.000448633 -1.9888e-05 0)
(0.000451119 -2.05546e-05 0)
(0.000483204 -4.59671e-07 0)
(0.000486223 -9.70988e-07 0)
(0.000482742 -2.04568e-06 0)
(0.000485579 -2.48216e-06 0)
(0.000481666 -3.67665e-06 0)
(0.000484352 -4.06385e-06 0)
(0.000480003 -5.39364e-06 0)
(0.00048257 -5.7482e-06 0)
(0.000477791 -7.22977e-06 0)
(0.000480271 -7.56538e-06 0)
(0.000475076 -9.21068e-06 0)
(0.000477507 -9.54084e-06 0)
(0.00047192 -1.13564e-05 0)
(0.000474339 -1.16945e-05 0)
(0.00046839 -1.36816e-05 0)
(0.000470837 -1.40398e-05 0)
(0.00046456 -1.61932e-05 0)
(0.000467072 -1.65823e-05 0)
(0.000460509 -1.88852e-05 0)
(0.000463123 -1.93173e-05 0)
(0.00049267 -3.64442e-07 0)
(0.000495686 -7.71979e-07 0)
(0.000492275 -1.70545e-06 0)
(0.000495126 -2.00448e-06 0)
(0.000491322 -3.10089e-06 0)
(0.000494037 -3.31594e-06 0)
(0.000489834 -4.58885e-06 0)
(0.000492446 -4.74055e-06 0)
(0.000487846 -6.20925e-06 0)
(0.00049039 -6.31363e-06 0)
(0.000485406 -7.99449e-06 0)
(0.000487915 -8.06813e-06 0)
(0.00048257 -9.96915e-06 0)
(0.000485081 -1.00297e-05 0)
(0.0004794 -1.21496e-05 0)
(0.000481951 -1.2215e-05 0)
(0.00047597 -1.45445e-05 0)
(0.000478598 -1.46303e-05 0)
(0.000472359 -1.71575e-05 0)
(0.00047509 -1.72734e-05 0)
(0.000502084 -2.52747e-07 0)
(0.000505099 -5.36551e-07 0)
(0.000501745 -1.22409e-06 0)
(0.000504649 -1.37908e-06 0)
(0.000500925 -2.23522e-06 0)
(0.000503714 -2.26964e-06 0)
(0.000499614 -3.36013e-06 0)
(0.000502314 -3.29124e-06 0)
(0.000497852 -4.64417e-06 0)
(0.000500498 -4.49265e-06 0)
(0.000495687 -6.12224e-06 0)
(0.000498312 -5.90878e-06 0)
(0.000493171 -7.82434e-06 0)
(0.000495808 -7.56946e-06 0)
(0.000490359 -9.77353e-06 0)
(0.000493042 -9.49894e-06 0)
(0.000487313 -1.19807e-05 0)
(0.000490081 -1.17115e-05 0)
(0.000484112 -1.44358e-05 0)
(0.000486998 -1.42064e-05 0)
(0.000220939 -7.62548e-05 0)
(0.000225105 -7.19529e-05 0)
(0.000213659 -8.00858e-05 0)
(0.000218096 -7.57323e-05 0)
(0.00020679 -8.38816e-05 0)
(0.000211451 -7.94951e-05 0)
(0.000200289 -8.76482e-05 0)
(0.00020514 -8.32234e-05 0)
(0.000194114 -9.13818e-05 0)
(0.000199123 -8.69077e-05 0)
(0.000188225 -9.5074e-05 0)
(0.000193364 -9.05419e-05 0)
(0.00018259 -9.8715e-05 0)
(0.000187833 -9.41208e-05 0)
(0.000177177 -0.000102296 0)
(0.000182501 -9.76396e-05 0)
(0.000171958 -0.000105811 0)
(0.000177342 -0.000101095 0)
(0.0001669 -0.000109255 0)
(0.000172328 -0.000104484 0)
(0.000161973 -0.000112625 0)
(0.00016743 -0.000107806 0)
(0.000157144 -0.000115923 0)
(0.000162618 -0.000111063 0)
(0.000152378 -0.000119149 0)
(0.000157862 -0.000114259 0)
(0.000147639 -0.00012231 0)
(0.000153128 -0.000117398 0)
(0.000142889 -0.000125412 0)
(0.000148383 -0.000120491 0)
(0.00013809 -0.000128466 0)
(0.000143592 -0.000123547 0)
(0.000133202 -0.000131483 0)
(0.00013872 -0.000126581 0)
(0.000128188 -0.000134481 0)
(0.000133733 -0.000129615 0)
(0.000123015 -0.000137488 0)
(0.000128595 -0.00013268 0)
(0.000117669 -0.000140537 0)
(0.000123266 -0.000135782 0)
(0.000239909 -6.101e-05 0)
(0.000243823 -5.77836e-05 0)
(0.000233271 -6.45862e-05 0)
(0.000237376 -6.12575e-05 0)
(0.000226857 -6.81701e-05 0)
(0.000231164 -6.47404e-05 0)
(0.00022068 -7.1745e-05 0)
(0.000225175 -6.82218e-05 0)
(0.000214737 -7.52996e-05 0)
(0.000219399 -7.16899e-05 0)
(0.000209018 -7.88241e-05 0)
(0.000213826 -7.51336e-05 0)
(0.000203505 -8.231e-05 0)
(0.00020844 -7.85438e-05 0)
(0.000198182 -8.57506e-05 0)
(0.000203226 -8.19138e-05 0)
(0.000193027 -8.91409e-05 0)
(0.000198165 -8.52391e-05 0)
(0.000188018 -9.24779e-05 0)
(0.000193239 -8.85173e-05 0)
(0.000183133 -9.57603e-05 0)
(0.000188427 -9.17483e-05 0)
(0.000178347 -9.8989e-05 0)
(0.000183709 -9.49337e-05 0)
(0.000173637 -0.000102167 0)
(0.000179062 -9.80778e-05 0)
(0.000168976 -0.0001053 0)
(0.000174465 -0.000101187 0)
(0.000164339 -0.000108395 0)
(0.000169896 -0.00010427 0)
(0.000159702 -0.000111462 0)
(0.000165334 -0.000107337 0)
(0.000155041 -0.000114515 0)
(0.000160759 -0.000110405 0)
(0.000150334 -0.000117571 0)
(0.00015615 -0.000113492 0)
(0.000145572 -0.000120654 0)
(0.000151485 -0.000116623 0)
(0.000140765 -0.000123786 0)
(0.000146733 -0.00011979 0)
(0.000257425 -4.92266e-05 0)
(0.000261153 -4.68761e-05 0)
(0.000251377 -5.24345e-05 0)
(0.000255264 -4.99897e-05 0)
(0.000245465 -5.56762e-05 0)
(0.000249534 -5.31294e-05 0)
(0.000239708 -5.89363e-05 0)
(0.000243956 -5.62887e-05 0)
(0.000234114 -6.22035e-05 0)
(0.000238529 -5.94589e-05 0)
(0.000228683 -6.54669e-05 0)
(0.000233252 -6.263e-05 0)
(0.000223412 -6.87169e-05 0)
(0.00022812 -6.57938e-05 0)
(0.000218292 -7.19461e-05 0)
(0.000223129 -6.89434e-05 0)
(0.000213315 -7.5149e-05 0)
(0.000218271 -7.20741e-05 0)
(0.000208468 -7.83223e-05 0)
(0.000213535 -7.51832e-05 0)
(0.000203738 -8.14646e-05 0)
(0.000208911 -7.82699e-05 0)
(0.000199112 -8.45767e-05 0)
(0.000204388 -8.13352e-05 0)
(0.000194574 -8.76614e-05 0)
(0.000199954 -8.43825e-05 0)
(0.00019011 -9.07236e-05 0)
(0.000195597 -8.74171e-05 0)
(0.000185705 -9.37703e-05 0)
(0.000191306 -9.04468e-05 0)
(0.000181345 -9.68107e-05 0)
(0.000187069 -9.3481e-05 0)
(0.000177018 -9.98559e-05 0)
(0.000182876 -9.65323e-05 0)
(0.000172717 -0.000102921 0)
(0.000178718 -9.96179e-05 0)
(0.000168447 -0.000106023 0)
(0.000174581 -0.000102755 0)
(0.000164236 -0.000109173 0)
(0.000170441 -0.000105933 0)
(0.000273787 -4.01981e-05 0)
(0.000277357 -3.856e-05 0)
(0.000268286 -4.30591e-05 0)
(0.000271993 -4.13397e-05 0)
(0.000262869 -4.5965e-05 0)
(0.000266742 -4.41555e-05 0)
(0.000257555 -4.8904e-05 0)
(0.000261599 -4.70036e-05 0)
(0.000252355 -5.18679e-05 0)
(0.000256565 -4.98787e-05 0)
(0.000247277 -5.48478e-05 0)
(0.000251644 -5.2774e-05 0)
(0.000242323 -5.78362e-05 0)
(0.000246839 -5.56825e-05 0)
(0.000237493 -6.08264e-05 0)
(0.000242152 -5.85988e-05 0)
(0.000232785 -6.38138e-05 0)
(0.000237581 -6.15188e-05 0)
(0.000228195 -6.67958e-05 0)
(0.000233123 -6.44395e-05 0)
(0.000223716 -6.97712e-05 0)
(0.000228773 -6.73595e-05 0)
(0.000219342 -7.27381e-05 0)
(0.000224531 -7.02801e-05 0)
(0.00021507 -7.56991e-05 0)
(0.000220393 -7.32036e-05 0)
(0.000210894 -7.86584e-05 0)
(0.000216355 -7.61342e-05 0)
(0.000206806 -8.1622e-05 0)
(0.000212414 -7.9078e-05 0)
(0.000202803 -8.45973e-05 0)
(0.000208567 -8.20425e-05 0)
(0.000198882 -8.7593e-05 0)
(0.000204812 -8.50374e-05 0)
(0.000195046 -9.06199e-05 0)
(0.000201148 -8.8076e-05 0)
(0.000191312 -9.36908e-05 0)
(0.00019757 -9.11711e-05 0)
(0.000187721 -9.68091e-05 0)
(0.000194062 -9.43073e-05 0)
(0.000289189 -3.34563e-05 0)
(0.000292643 -3.24019e-05 0)
(0.000284201 -3.60088e-05 0)
(0.000287775 -3.4886e-05 0)
(0.000279262 -3.86117e-05 0)
(0.000282991 -3.7416e-05 0)
(0.000274393 -4.12521e-05 0)
(0.000278288 -3.99871e-05 0)
(0.000269614 -4.39365e-05 0)
(0.000273666 -4.25943e-05 0)
(0.000264925 -4.66518e-05 0)
(0.000269132 -4.52355e-05 0)
(0.000260333 -4.93924e-05 0)
(0.000264693 -4.79061e-05 0)
(0.000255843 -5.21539e-05 0)
(0.000260352 -5.06022e-05 0)
(0.000251455 -5.49309e-05 0)
(0.000256114 -5.33213e-05 0)
(0.000247166 -5.77139e-05 0)
(0.000251982 -5.60594e-05 0)
(0.000243011 -6.05134e-05 0)
(0.000247965 -5.88134e-05 0)
(0.000238962 -6.33268e-05 0)
(0.000244061 -6.15844e-05 0)
(0.000235022 -6.61529e-05 0)
(0.000240273 -6.43741e-05 0)
(0.000231191 -6.89933e-05 0)
(0.000236602 -6.71858e-05 0)
(0.000227473 -7.18528e-05 0)
(0.000233051 -7.00231e-05 0)
(0.000223869 -7.47387e-05 0)
(0.000229622 -7.28929e-05 0)
(0.000220385 -7.7656e-05 0)
(0.000226323 -7.58035e-05 0)
(0.000217034 -8.06128e-05 0)
(0.000223159 -7.87647e-05 0)
(0.00021384 -8.36173e-05 0)
(0.000220131 -8.17838e-05 0)
(0.000210851 -8.66665e-05 0)
(0.00021723 -8.48426e-05 0)
(0.000303796 -2.85773e-05 0)
(0.00030718 -2.80129e-05 0)
(0.000299307 -3.08526e-05 0)
(0.000302789 -3.02428e-05 0)
(0.000294867 -3.3182e-05 0)
(0.000298462 -3.25307e-05 0)
(0.000290349 -3.5615e-05 0)
(0.000294161 -3.48604e-05 0)
(0.000285993 -3.80449e-05 0)
(0.000289941 -3.72407e-05 0)
(0.000281704 -4.05169e-05 0)
(0.0002858 -3.96628e-05 0)
(0.000277497 -4.30197e-05 0)