/*--------------------------------*- C++ -*----------------------------------*\
| =========                 |                                                 |
| \\      /  F ield         | OpenFOAM: The Open Source CFD Toolbox           |
|  \\    /   O peration     | Version:  v2012                                 |
|   \\  /    A nd           | Website:  www.openfoam.com                      |
|    \\/     M anipulation  |                                                 |
\*---------------------------------------------------------------------------*/
FoamFile
{
    version     2.0;
    format      ascii;
    class       volScalarField;
    location    "1";
    object      epsilonEq;
}
// * * * * * * * * * * * * * * * * * * * * * * * * * * * * * * * * * * * * * //

dimensions      [0 0 0 0 0 0 0];


internalField   nonuniform List<scalar> 
2000
(
0.00058309
0.00056708
0.000499445
0.000495679
0.00043089
0.000432077
0.00037819
0.000382199
0.000338861
0.000344223
0.000308798
0.00031477
0.000285022
0.000291339
0.000265702
0.000272224
0.000249586
0.000256043
0.000235664
0.000241101
0.000576875
0.000550904
0.000494553
0.000481705
0.000426486
0.000422613
0.000374908
0.000377242
0.000336847
0.000342909
0.000308052
0.000316281
0.000285556
0.000295082
0.000267488
0.000277791
0.000252386
0.000263178
0.000238813
0.000249601
0.000551351
0.00052309
0.000474474
0.000459106
0.000412226
0.000406847
0.000366281
0.000368233
0.000332937
0.000339688
0.000307986
0.000317792
0.000288635
0.000300404
0.000273107
0.000286148
0.000260026
0.000273982
0.000248161
0.000262691
0.000515294
0.000483319
0.00044479
0.000427648
0.000390338
0.000384726
0.000352292
0.000354676
0.00032584
0.000333278
0.000306616
0.00031715
0.000291962
0.000304342
0.000280255
0.000293676
0.000270273
0.000284326
0.000260948
0.000275362
0.000468867
0.000434412
0.000407367
0.000389039
0.000362867
0.000357187
0.000334213
0.000336873
0.000315685
0.000323324
0.000302887
0.000313347
0.000293358
0.0003053
0.000285687
0.000298283
0.000278892
0.000291723
0.000272185
0.000284967
0.00041423
0.000378944
0.000363717
0.000345328
0.00033093
0.000325563
0.000312705
0.000315454
0.000302558
0.000309865
0.000296295
0.000305957
0.000291808
0.000302502
0.000288002
0.00029894
0.000284201
0.000294978
0.000279921
0.000290214
0.000354003
0.000319461
0.000315812
0.000298538
0.000295848
0.000291237
0.000288457
0.00029118
0.000286613
0.000293164
0.000286581
0.000294907
0.000286759
0.000295671
0.000286452
0.00029526
0.000285317
0.000293635
0.000283175
0.000290586
0.000290717
0.000258406
0.000265672
0.000250702
0.000259054
0.000255654
0.000262277
0.000264905
0.000268155
0.000273633
0.000273717
0.000280319
0.000278005
0.00028478
0.000280764
0.000287169
0.000281974
0.000287664
0.000281719
0.000286162
0.000226672
0.000198112
0.000215313
0.00020399
0.000222123
0.000220464
0.000235159
0.000237724
0.000247697
0.000251905
0.000257889
0.000262463
0.000265558
0.000269822
0.000270915
0.000274457
0.000274212
0.000276643
0.000275776
0.000276226
0.000163819
0.000140853
0.000166899
0.000160925
0.000186948
0.000187723
0.000208485
0.00021131
0.000226203
0.000229412
0.000239663
0.000242509
0.000249575
0.000251695
0.000256876
0.000258083
0.000262514
0.000262542
0.000267051
0.000265039
0.000103636
8.96513e-05
0.000123094
0.000124643
0.000155742
0.000159472
0.000183971
0.000187361
0.00020538
0.0002082
0.000220941
0.000223275
0.0002318
0.000233989
0.00023889
0.00024183
0.000243032
0.000248446
0.000244982
0.000253934
4.72666e-05
5.35739e-05
8.81318e-05
9.94574e-05
0.000130631
0.000137016
0.00016267
0.000165853
0.000186125
0.000187334
0.000203264
0.000203049
0.000215675
0.000214396
0.000224336
0.000222613
0.000229563
0.000228958
0.000230771
0.000236649
1.10036e-05
5.60261e-05
6.98848e-05
9.03468e-05
0.000113298
0.000121739
0.000144481
0.000147255
0.000167177
0.000166908
0.000183745
0.00018159
0.000195665
0.000192371
0.000203845
0.000200328
0.000208625
0.000206753
0.00020957
0.000215315
5.49059e-05
8.62661e-05
7.45609e-05
9.71087e-05
0.000105033
0.000114386
0.000130007
0.000132313
0.000149265
0.000147783
0.00016376
0.000160049
0.000174382
0.000169419
0.00018177
0.000176692
0.000186116
0.000183188
0.000186789
0.000192143
9.67294e-05
0.000119569
9.35964e-05
0.000112764
0.000105281
0.00011411
0.000119805
0.00012154
0.000133208
0.000130738
0.000144226
0.000139265
0.000152712
0.000146427
0.000158826
0.000152528
0.000162478
0.000158618
0.000162749
0.000167476
0.000132597
0.00014934
0.000115872
0.000130616
0.000111165
0.000118491
0.000113621
0.000114769
0.000119394
0.000116284
0.000125678
0.000119879
0.000131192
0.000123977
0.000135467
0.000128284
0.000138047
0.000133461
0.000137739
0.00014168
0.000162093
0.000174
0.000136226
0.000146906
0.000119218
0.0001247
0.000110502
0.000111195
0.000107981
0.000104776
0.000108602
0.000102623
0.000110351
0.000102831
0.000112197
0.000104658
0.000113319
0.000108362
0.000112279
0.000115347
0.00018504
0.000193026
0.000152654
0.000159706
0.000126849
0.000130554
0.000109335
0.000109923
9.91928e-05
9.67127e-05
9.38083e-05
8.87364e-05
9.1143e-05
8.44352e-05
8.99585e-05
8.30501e-05
8.92159e-05
8.45702e-05
8.73033e-05
8.946e-05
0.000201317
0.000204712
0.000164503
0.000167958
0.000132845
0.000135278
0.000109384
0.000110546
9.33207e-05
9.25562e-05
8.24681e-05
7.9669e-05
7.52146e-05
7.09107e-05
7.05355e-05
6.59155e-05
6.75024e-05
6.47046e-05
6.46627e-05
6.67629e-05
0.000210761
0.000209145
0.000170954
0.000171699
0.00013611
0.000137993
0.000109381
0.000111513
8.96406e-05
9.11591e-05
7.50634e-05
7.55423e-05
6.44328e-05
6.38009e-05
5.70334e-05
5.55942e-05
5.20635e-05
5.07597e-05
4.80869e-05
4.84513e-05
3.62346e-05
4.9443e-05
5.24439e-05
6.81624e-05
7.67899e-05
9.21327e-05
0.000103102
0.000117811
0.00012958
0.000143361
0.000155451
0.000167892
0.000180275
0.000190936
0.00020369
0.000212149
0.000225235
0.000231268
0.00024352
0.000247659
3.89094e-05
5.15461e-05
5.10841e-05
6.87144e-05
7.29485e-05
9.07288e-05
9.69371e-05
0.000114122
0.000121236
0.000137372
0.000145049
0.000159721
0.000167936
0.000180798
0.000189588
0.000200285
0.000209613
0.000217598
0.000227815
0.000232678
4.37477e-05
5.48617e-05
5.40474e-05
6.94888e-05
7.31294e-05
8.88129e-05
9.44266e-05
0.00010969
0.000116185
0.000130658
0.000137608
0.000150977
0.000158237
0.000170244
0.000177772
0.000188114
0.000195941
0.000204354
0.00021273
0.000218508
4.94249e-05
5.88122e-05
5.78212e-05
7.08162e-05
7.41434e-05
8.74468e-05
9.29053e-05
0.000105902
0.00011235
0.000124738
0.000131643
0.000143182
0.000150308
0.000160777
0.00016804
0.000177279
0.000184634
0.000192518
0.000199793
0.000205776
5.555e-05
6.3421e-05
6.21265e-05
7.3061e-05
7.57739e-05
8.71307e-05
9.2091e-05
0.000103262
0.000109356
0.000120056
0.000126675
0.00013671
0.000143533
0.00015275
0.000159616
0.000167922
0.000174704
0.000182012
0.000188492
0.000194463
6.19321e-05
6.86216e-05
6.70314e-05
7.62755e-05
7.82461e-05
8.79866e-05
9.22104e-05
0.000101884
0.000107367
0.00011669
0.000122804
0.000131611
0.000137974
0.000146159
0.000152547
0.000160046
0.000166292
0.000173028
0.00017888
0.0001847
6.83975e-05
7.4167e-05
7.23635e-05
8.02277e-05
8.14996e-05
8.98639e-05
9.32938e-05
0.000101678
0.000106447
0.000114579
0.000120095
0.000127819
0.000133685
0.000140913
0.000146876
0.000153559
0.000159425
0.0001655
0.000171018
0.000176306
7.47725e-05
7.98074e-05
7.78792e-05
8.4623e-05
8.53083e-05
9.25069e-05
9.51899e-05
0.000102452
0.000106499
0.000113576
0.00011847
0.000125212
0.000130573
0.000136894
0.000142454
0.000148302
0.000153842
0.000159184
0.000164413
0.000169352
8.09256e-05
8.53655e-05
8.33786e-05
8.92167e-05
8.94324e-05
9.56584e-05
9.76784e-05
0.000103979
0.000107334
0.000113488
0.000117752
0.000123618
0.000128447
0.000133941
0.000139071
0.000144156
0.000149358
0.000154047
0.00015905
0.000163458
8.67674e-05
9.07168e-05
8.87146e-05
9.3819e-05
9.36648e-05
9.90878e-05
0.000100535
0.000106024
0.000108737
0.000114099
0.000117741
0.000122844
0.00012712
0.000131883
0.000136547
0.000140938
0.00014578
0.000149829
0.000154591
0.000158453
9.22226e-05
9.57576e-05
9.37683e-05
9.8273e-05
9.78298e-05
0.000102592
0.000103551
0.000108362
0.000110494
0.000115185
0.000118233
0.000122681
0.000126403
0.000130531
0.00013472
0.000138493
0.000142966
0.000146393
0.000150928
0.000154138
9.72127e-05
0.000100388
9.84309e-05
0.000102438
0.000101772
0.000105987
0.000106538
0.000110785
0.000112402
0.000116528
0.000119025
0.000122915
0.000126101
0.000129681
0.000133379
0.000136617
0.000140661
0.00014357
0.000147743
0.000150452
0.000101649
0.000104504
0.000102592
0.000106182
0.000105345
0.000109107
0.000109319
0.000113099
0.000114265
0.000117922
0.000119914
0.000123339
0.000126013
0.000129131
0.000132349
0.00013512
0.000138738
0.000141153
0.000144979
0.000147168
0.000105428
0.00010799
0.000106134
0.000109367
0.000108406
0.00011179
0.000111725
0.00011512
0.000115896
0.000119169
0.000120702
0.000123746
0.000125935
0.000128681
0.000131415
0.000133829
0.000136986
0.000139057
0.000142481
0.00014422
0.00010843
0.000110711
0.000108927
0.000111847
0.000110809
0.000113873
0.000113592
0.00011667
0.000117116
0.00012008
0.000121205
0.000123949
0.000125692
0.000128139
0.000130426
0.000132527
0.000135265
0.000136998
0.000140035
0.000141472
0.000110501
0.000112495
0.000110814
0.000113446
0.000112392
0.000115171
0.000114748
0.000117553
0.000117742
0.00012045
0.000121233
0.000123743
0.000125089
0.00012732
0.000129183
0.000131072
0.00013337
0.00013489
0.000137476
0.000138714
0.000111433
0.000113089
0.00011159
0.000113919
0.000112942
0.000115432
0.000114959
0.000117501
0.000117529
0.000120011
0.000120545
0.000122872
0.000123901
0.000125997
0.000127489
0.000129285
0.000131185
0.000132608
0.000134835
0.000135874
0.000110945
0.000112179
0.000110954
0.000112931
0.000112135
0.000114319
0.000113892
0.000116182
0.000116161
0.000118451
0.00011886
0.000121064
0.000121902
0.000123947
0.000125184
0.000127009
0.00012859
0.000130128
0.000132005
0.000133099
0.000108849
0.000109689
0.000108701
0.000110334
0.000109779
0.000111716
0.000111424
0.000113559
0.000113568
0.000115795
0.000116155
0.000118398
0.000119114
0.000121292
0.000122364
0.000124373
0.000125788
0.00012751
0.000129191
0.00013055
0.000105909
0.00010636
0.000105947
0.000107493
0.000107034
0.000108869
0.00010872
0.000110692
0.000110906
0.000112997
0.000113538
0.000115725
0.000116556
0.000118795
0.000119887
0.000122108
0.000123464
0.000125511
0.000127209
0.000128588
0.000256954
0.000252435
0.000258839
0.000254095
0.000259926
0.000255394
0.00026067
0.000256246
0.000261135
0.000256621
0.000261288
0.000256551
0.000261104
0.0002561
0.000260582
0.000255342
0.000259749
0.000254351
0.000258654
0.000253208
0.000257368
0.000251999
0.000255983
0.000250826
0.00025461
0.000249803
0.000253379
0.000249062
0.000252442
0.000248755
0.000251977
0.000249066
0.000252214
0.000250255
0.000253493
0.000252696
0.000256115
0.000256543
0.000259378
0.000261457
0.000241657
0.000237985
0.000243951
0.000240112
0.000246006
0.000241816
0.000247572
0.000243136
0.000248617
0.00024408
0.000249217
0.000244689
0.000249476
0.00024503
0.000249496
0.000245174
0.000249366
0.000245199
0.00024917
0.000245186
0.000248997
0.000245226
0.000248941
0.000245419
0.000249111
0.000245875
0.000249629
0.000246715
0.000250627
0.000248071
0.000252253
0.000250094
0.000254685
0.000252969
0.000258133
0.000256883
0.000262616
0.000261624
0.000267001
0.000266545
0.000225263
0.000223499
0.000227678
0.000226109
0.000230262
0.000228387
0.000232648
0.000230335
0.000234661
0.000231947
0.000236288
0.000233278
0.000237599
0.000234401
0.000238689
0.000235396
0.000239652
0.000236343
0.000240584
0.000237318
0.000241576
0.0002384
0.000242724
0.000239683
0.000244139
0.000241269
0.000245931
0.000243261
0.000248213
0.000245762
0.000251094
0.000248875
0.000254696
0.000252706
0.000259128
0.000257295
0.000264243
0.00026224
0.000268853
0.000266836
0.000211104
0.000210487
0.00021354
0.000213321
0.000216317
0.000215939
0.000219091
0.000218339
0.000221673
0.000220518
0.000223991
0.000222479
0.000226086
0.000224279
0.00022803
0.000225986
0.000229895
0.000227663
0.000231746
0.000229357
0.00023366
0.000231248
0.000235749
0.000233339
0.000238091
0.000235706
0.000240779
0.000238441
0.000243912
0.000241618
0.000247565
0.000245293
0.000251821
0.000249529
0.000256743
0.00025429
0.000262108
0.000259073
0.000266699
0.000263163
0.000198941
0.000199056
0.000201505
0.00020211
0.000204482
0.000205092
0.000207556
0.000207553
0.000210411
0.000210096
0.000213155
0.000212478
0.000215756
0.000214782
0.000218271
0.000217092
0.000220792
0.000219508
0.000223401
0.000221688
0.000225781
0.000223966
0.000228415
0.000226474
0.000231296
0.000229253
0.000234497
0.000232418
0.000238048
0.00023589
0.000242023
0.000239724
0.000246496
0.000244001
0.000251482
0.000248607
0.000256695
0.000252982
0.00026097
0.000256439
0.000188567
0.00018911
0.000191262
0.000191994
0.000194304
0.000194905
0.000197973
0.000198455
0.000200816
0.000201214
0.000203708
0.000203801
0.000206646
0.000206193
0.000209643
0.000208296
0.000212743
0.000210005
0.000215408
0.000213642
0.000218055
0.000216555
0.000220914
0.000219357
0.000224003
0.000222195
0.000227565
0.00022559
0.000231263
0.000229032
0.00023512
0.00023278
0.000239425
0.000236835
0.000244136
0.000241035
0.000248893
0.0002448
0.00025265
0.000247529
0.000179955
0.000180467
0.000182645
0.000183747
0.000186295
0.00018732
0.000189455
0.000190325
0.000192588
0.000193233
0.000195694
0.000196073
0.000198746
0.000198897
0.000201662
0.000201257
0.00020441
0.000203859
0.000207452
0.00020655
0.000210464
0.000209273
0.000213458
0.000212056
0.000216527
0.00021496
0.000219782
0.000218123
0.00022332
0.000221461
0.000227096
0.000225073
0.000231117
0.000228423
0.000235335
0.00023227
0.000239471
0.000235101
0.00024258
0.000237294
0.000172715
0.000173832
0.000175518
0.000176971
0.00017875
0.000180069
0.000181978
0.000183047
0.000185142
0.000185832
0.000188169
0.000188341
0.000191046
0.000191259
0.000194559
0.000194459
0.000197225
0.000196999
0.000200007
0.000199535
0.000202888
0.000202104
0.000205833
0.000204714
0.000208854
0.000207364
0.000211921
0.00021
0.000215015
0.000212613
0.000218126
0.000216031
0.000222328
0.00021948
0.000225612
0.000222693
0.000229521
0.000225353
0.000231923
0.000226537
0.000166796
0.00016781
0.000169584
0.000170833
0.000172608
0.000173782
0.000175717
0.000176807
0.000178742
0.000179633
0.000181705
0.000182313
0.000184654
0.000184969
0.000187619
0.000187579
0.000190413
0.000190075
0.000193127
0.000192553
0.000195844
0.00019503
0.000198568
0.000197506
0.00020129
0.000199988
0.000204005
0.00020249
0.00020675
0.000205029
0.000209653
0.000207547
0.000212752
0.000210194
0.000215771
0.000212579
0.000218614
0.000214509
0.000220562
0.000215486
0.00016165
0.000162631
0.00016433
0.000165394
0.000167204
0.000167918
0.000170693
0.000171148
0.000173651
0.000173749
0.000176202
0.000176132
0.000179245
0.000179002
0.000181891
0.000181453
0.000184221
0.000183782
0.000186623
0.000186048
0.000189045
0.000188252
0.000191447
0.000190403
0.00019382
0.000192517
0.00019618
0.000194621
0.000198567
0.000196756
0.000201007
0.00019889
0.000203457
0.000200966
0.000205844
0.000202822
0.000207925
0.000204089
0.000209259
0.000204546
0.000157277
0.000158078
0.000159804
0.000160738
0.000162466
0.000163321
0.00016509
0.000165981
0.000167911
0.000168493
0.000170545
0.000170854
0.000173039
0.000173243
0.000175587
0.000175477
0.000177969
0.000177595
0.000180236
0.00017962
0.000182415
0.000181563
0.000184518
0.000183435
0.000186561
0.000185248
0.000188557
0.000187012
0.000190518
0.000188732
0.00019245
0.000190397
0.000194344
0.000191958
0.000196135
0.000193275
0.000197626
0.000194041
0.000198493
0.000194087
0.000153378
0.000154097
0.000155727
0.000156538
0.000158203
0.000158948
0.000160694
0.000161311
0.000163142
0.000163601
0.000165539
0.000165836
0.000167845
0.000168007
0.000170044
0.000169823
0.000172118
0.000171741
0.000174136
0.000173544
0.000176053
0.000175244
0.000177873
0.00017685
0.000179605
0.000178366
0.000181251
0.000179794
0.000182813
0.000181134
0.000184293
0.000182374
0.000185681
0.000183473
0.00018692
0.000184302
0.000187844
0.000184615
0.000188249
0.000184309
0.000149923
0.000150549
0.000152111
0.000152862
0.000154387
0.00015492
0.000156571
0.000156971
0.000158749
0.000158907
0.000160842
0.000160693
0.000162831
0.000162689
0.00016511
0.000164768
0.000166817
0.000166405
0.000168497
0.000167905
0.000170116
0.000169324
0.000171649
0.000170666
0.00017308
0.000171911
0.000174398
0.000173044
0.000175598
0.000174055
0.000176677
0.00017493
0.000177622
0.000175628
0.000178379
0.000176037
0.000178809
0.000175961
0.000178814
0.000175363
0.000146777
0.000147026
0.00014879
0.000148935
0.000150973
0.000151142
0.00015279
0.000153055
0.000154635
0.00015487
0.000156475
0.000156592
0.000158327
0.000158148
0.000160196
0.000159601
0.000161948
0.000161069
0.000163316
0.000162509
0.000164594
0.000163797
0.000165831
0.000164946
0.000166982
0.000165958
0.000168016
0.000166834
0.000168915
0.000167567
0.000169667
0.000168143
0.000170251
0.000168517
0.000170613
0.000168586
0.000170639
0.000168204
0.000170323
0.00016738
0.000143726
0.000144127
0.000145438
0.00014586
0.000147254
0.000147558
0.000148994
0.000149185
0.000150667
0.000150754
0.00015229
0.000152278
0.000153855
0.000153718
0.000155303
0.000155037
0.000156725
0.000156378
0.000158077
0.000157576
0.000159288
0.000158648
0.000160371
0.000159608
0.000161331
0.000160449
0.000162157
0.000161157
0.000162835
0.000161713
0.000163347
0.00016209
0.000163666
0.000162242
0.000163732
0.000162075
0.000163454
0.000161484
0.000162901
0.000160514
0.000140675
0.000141068
0.000142243
0.000142635
0.000143818
0.000144127
0.000145354
0.000145541
0.000146836
0.000146899
0.00014828
0.000148258
0.000149651
0.000149534
0.000150971
0.000150721
0.000152188
0.000151855
0.00015333
0.000152929
0.000154403
0.000153885
0.000155366
0.000154758
0.000156212
0.000155526
0.00015692
0.000156158
0.000157469
0.000156627
0.000157835
0.000156901
0.000157987
0.000156935
0.000157867
0.000156638
0.000157399
0.000155943
0.00015671
0.000154919
0.000137635
0.000137975
0.000139091
0.000139475
0.000140506
0.000140821
0.000141867
0.000142051
0.000143158
0.000143206
0.000144604
0.000144614
0.000145946
0.000145725
0.000147097
0.000146793
0.000148303
0.000147788
0.000149429
0.000148704
0.000150249
0.000149738
0.00015107
0.000150621
0.000151817
0.000151358
0.000152449
0.000151947
0.000152933
0.000152377
0.000153238
0.000152628
0.000153327
0.00015266
0.000153123
0.000152356
0.000152595
0.000151703
0.000151903
0.000150769
0.000134704
0.000134929
0.000136395
0.000136435
0.00013776
0.000137767
0.000138915
0.000139038
0.000140088
0.000140189
0.000141222
0.000141326
0.000142423
0.000142424
0.000143548
0.000143475
0.00014459
0.000144474
0.000145678
0.000145511
0.000146658
0.000146431
0.000147522
0.000147256
0.000148272
0.000147983
0.000148898
0.000148592
0.000149385
0.000149051
0.000149713
0.000149323
0.000149899
0.000149479
0.000149754
0.000149316
0.000149271
0.000148864
0.000148708
0.000148252
0.000131923
0.000132649
0.00013356
0.000134304
0.000135116
0.000135407
0.000136641
0.000136615
0.000137892
0.000137851
0.000139022
0.000139073
0.000140208
0.000140209
0.000141388
0.000141326
0.000142492
0.000142404
0.00014353
0.000143361
0.000144487
0.000144236
0.000145353
0.000145035
0.000146116
0.00014575
0.000146758
0.000146369
0.000147258
0.000146878
0.000147593
0.00014725
0.000147729
0.000147516
0.000147727
0.000147599
0.000147532
0.000147373
0.000147049
0.000147123
0.000130142
0.000130424
0.000132155
0.000132402
0.000133886
0.000133782
0.00013517
0.000135255
0.000136665
0.000137006
0.000138136
0.000138234
0.000139352
0.000139456
0.000140734
0.000141006
0.000142085
0.000142007
0.000143172
0.000143018
0.000144162
0.000143958
0.000145036
0.000144792
0.00014578
0.000145504
0.000146384
0.000146088
0.000146841
0.000146543
0.000147146
0.000146867
0.000147289
0.000147065
0.000147265
0.000147145
0.000147076
0.000147144
0.000146884
0.000147083
0.000227109
0.000230628
0.000223432
0.000225934
0.000219625
0.0002212
0.000215311
0.000216262
0.000210615
0.00021124
0.000205708
0.0002062
0.000200673
0.000201125
0.000195526
0.000195963
0.000190246
0.000190659
0.000184797
0.000185159
0.000179135
0.000179412
0.000173212
0.000173368
0.000166984
0.000166979
0.000160409
0.000160199
0.000153447
0.000152994
0.000146062
0.000145355
0.000138235
0.000137342
0.000129997
0.000129153
0.000121571
0.000121406
0.000114172
0.00011486
0.000231835
0.000238906
0.000226851
0.000235017
0.000222182
0.000230473
0.000217364
0.000225485
0.000212437
0.000220312
0.000207455
0.000215076
0.000202416
0.000209789
0.000197288
0.000204422
0.00019203
0.00019893
0.000186601
0.000193268
0.000180956
0.000187385
0.000175048
0.000181229
0.000168826
0.000174746
0.000162239
0.000167878
0.000155236
0.000160574
0.000147777
0.000152801
0.000139863
0.000144587
0.000131577
0.000136101
0.000123231
0.000128099
0.00011625
0.000121731
0.000243293
0.000252251
0.000237962
0.000248612
0.000233054
0.000244182
0.000228115
0.000239227
0.000223113
0.000234023
0.000218058
0.000228701
0.000212933
0.000223289
0.000207703
0.000217767
0.000202329
0.0002121
0.000196773
0.000206248
0.00019099
0.000200165
0.000184938
0.000193803
0.000178568
0.000187112
0.000171829
0.000180038
0.00016467
0.000172534
0.000157052
0.000164571
0.00014897
0.000156174
0.000140518
0.000147542
0.000132148
0.0001396
0.000125584
0.000133825
0.000257543
0.000265992
0.000252341
0.000262493
0.000247562
0.000258226
0.000242793
0.000253439
0.00023794
0.000248365
0.000232978
0.000243115
0.000227882
0.000237718
0.000222626
0.000232165
0.000217181
0.000226434
0.000211517
0.000220493
0.000205604
0.00021431
0.000199408
0.000207848
0.000192895
0.000201068
0.000186032
0.000193932
0.000178791
0.000186415
0.000171165
0.000178513
0.000163188
0.000170294
0.000155023
0.00016206
0.000147263
0.000154877
0.000141504
0.000150251
0.00026991
0.000277107
0.000265308
0.000273887
0.00026098
0.000269977
0.000256626
0.000265576
0.000252133
0.000260856
0.000247462
0.000255902
0.00024259
0.000250742
0.000237503
0.000245378
0.000232187
0.000239803
0.000226625
0.000234001
0.0002208
0.000227955
0.000214694
0.000221647
0.00020829
0.000215058
0.000201572
0.000208173
0.000194535
0.000200992
0.000187196
0.000193541
0.00017962
0.00018593
0.000172023
0.000178532
0.00016505
0.00017244
0.000160106
0.000169081
0.000278476
0.000284131
0.000274885
0.000281397
0.000271328
0.000278072
0.000267649
0.000274289
0.00026375
0.000270153
0.000259595
0.000265722
0.000255173
0.000261025
0.000250484
0.000256078
0.000245531
0.000250889
0.000240312
0.000245464
0.000234826
0.000239805
0.000229072
0.000233913
0.00022305
0.000227794
0.000216766
0.000221459
0.000210237
0.000214935
0.000203501
0.00020828
0.00019665
0.000201641
0.000189934
0.000195434
0.00018401
0.000190718
0.000180066
0.000188736
0.000282338
0.000286405
0.000280062
0.00028435
0.000277514
0.000281796
0.000274708
0.00027881
0.000271593
0.000275444
0.000268142
0.00027173
0.000264362
0.0002677
0.000260269
0.000263379
0.000255883
0.000258795
0.000251219
0.000253967
0.000246294
0.000248919
0.000241125
0.000243675
0.000235731
0.000238266
0.000230142
0.00023273
0.000224397
0.000227127
0.000218559
0.000221548
0.000212743
0.000216174
0.000207228
0.000211453
0.000202665
0.000208356
0.000199967
0.000207835
0.000281368
0.000283963
0.00028063
0.000282757
0.000279283
0.00028114
0.000277526
0.000279139
0.000275324
0.000276732
0.000272691
0.000273926
0.000269667
0.000270747
0.000266293
0.000267229
0.000262608
0.00026341
0.00025865
0.00025933
0.000254451
0.000255036
0.000250047
0.00025058
0.000245475
0.000246021
0.000240786
0.000241435
0.000236043
0.000236914
0.000231333
0.000232586
0.0002268
0.000228667
0.000222747
0.000225624
0.000219795
0.000224304
0.000218535
0.000225285
0.000276164
0.000276417
0.000277088
0.000276952
0.000277076
0.000277273
0.000276368
0.000277019
0.000275115
0.00027606
0.000273399
0.00027441
0.000271271
0.000272149
0.000268772
0.00026938
0.000265944
0.000266208
0.000262829
0.000262735
0.000259473
0.000259058
0.000255928
0.000255269
0.00025226
0.000251468
0.000248545
0.000247765
0.000244881
0.000244286
0.000241388
0.000241193
0.000238244
0.000238737
0.000235785
0.000237387
0.000234579
0.000237818
0.000234844
0.000240183
0.000268285
0.000268456
0.000269636
0.000269135
0.000270733
0.000269185
0.000271404
0.000269043
0.000271577
0.000268664
0.000271198
0.000267935
0.000270254
0.000266788
0.000268776
0.000265212
0.000266829
0.000263244
0.000264496
0.000260951
0.000261876
0.000258422
0.000259074
0.000255763
0.000256205
0.000253096
0.00025339
0.000250563
0.000250764
0.000248332
0.000248479
0.000246607
0.000246745
0.000245691
0.000245916
0.00024608
0.000246471
0.000248311
0.000248188
0.00025216
)
;

boundaryField
{
    back
    {
        type            empty;
    }
    front
    {
        type            empty;
    }
    left
    {
        type            symmetry;
    }
    hole
    {
        type            calculated;
        value           nonuniform List<scalar> 
20
(
0.00059002
0.000583772
0.00055851
0.000522128
0.000475303
0.000420095
0.000359155
0.000295049
0.000230123
0.000166344
0.000105137
4.74173e-05
6.57749e-06
5.48649e-05
9.77091e-05
0.000134338
0.000164494
0.000188065
0.000204711
0.000213026
)
;
    }
    down
    {
        type            symmetry;
    }
    right
    {
        type            calculated;
        value           nonuniform List<scalar> 
30
(
0.000106262
0.000107172
0.000108458
0.000110271
0.000112588
0.000115328
0.000118409
0.000121731
0.000125188
0.000128738
0.000130741
0.000132088
0.000133662
0.000135239
0.000136637
0.000138094
0.000139454
0.000140586
0.000141746
0.000142805
0.000143741
0.000144557
0.000145253
0.000145826
0.000146278
0.000146615
0.000146855
0.000147027
0.000147131
0.00014712
)
;
    }
    up
    {
        type            calculated;
        value           nonuniform List<scalar> 
30
(
0.00026263
0.000267606
0.000267874
0.000264144
0.000257301
0.00024826
0.000237833
0.000227033
0.000215757
0.000204732
0.000194175
0.000184302
0.000175281
0.000167241
0.000160332
0.000154716
0.000150559
0.000148097
0.000147012
0.00014708
0.00011438
0.000119788
0.000132274
0.000149093
0.000168264
0.000188275
0.000207715
0.00022545
0.000240577
0.000252507
)
;
    }
}


// ************************************************************************* //
