/*--------------------------------*- C++ -*----------------------------------*\
| =========                 |                                                 |
| \\      /  F ield         | OpenFOAM: The Open Source CFD Toolbox           |
|  \\    /   O peration     | Version:  v2012                                 |
|   \\  /    A nd           | Website:  www.openfoam.com                      |
|    \\/     M anipulation  |                                                 |
\*---------------------------------------------------------------------------*/
FoamFile
{
    version     2.0;
    format      ascii;
    class       volSymmTensorField;
    location    "1";
    object      sigma;
}
// * * * * * * * * * * * * * * * * * * * * * * * * * * * * * * * * * * * * * //

dimensions      [1 -1 -2 0 0 0 0];


internalField   nonuniform List<symmTensor> 
2000
(
(5.33324e+07 -2.32703e+06 1.24134e-08 613179 -7.84277e-10 1.61437e+07)
(5.26924e+07 -1.18726e+06 9.0545e-09 1.74812e+06 -3.90678e-09 1.50893e+07)
(4.82495e+07 -1.99318e+06 -9.25899e-09 3.17792e+06 -6.46647e-10 1.61327e+07)
(4.77957e+07 -467704 -5.97317e-09 3.24835e+06 1.65871e-09 1.48522e+07)
(4.3247e+07 -1.57493e+06 8.06925e-09 4.54557e+06 5.77172e-10 1.4928e+07)
(4.28749e+07 65444.5 1.89634e-09 4.17953e+06 -1.09193e-09 1.37858e+07)
(3.89908e+07 -1.17868e+06 -4.2197e-09 5.18096e+06 5.56654e-10 1.36261e+07)
(3.87535e+07 425784 -1.01392e-08 4.65717e+06 -2.77752e-09 1.2734e+07)
(3.55803e+07 -870470 -1.53922e-08 5.38252e+06 -1.99395e-09 1.25511e+07)
(3.54324e+07 669669 -3.16923e-09 4.81337e+06 1.20312e-09 1.18464e+07)
(3.2789e+07 -636990 0 5.31642e+06 0 1.16501e+07)
(3.26894e+07 840699 0 4.7463e+06 0 1.10606e+07)
(3.04213e+07 -458730 -3.08666e-09 5.07813e+06 2.11079e-10 1.08484e+07)
(3.03561e+07 960789 -5.35236e-09 4.52571e+06 -9.85075e-10 1.03315e+07)
(2.83599e+07 -326949 -2.02151e-09 4.72643e+06 -6.76484e-10 1.01144e+07)
(2.83241e+07 1.04347e+06 3.40647e-09 4.20464e+06 8.61395e-10 9.64134e+06)
(2.65221e+07 -239059 0 4.29708e+06 0 9.43083e+06)
(2.65003e+07 1.10894e+06 0 3.82245e+06 0 8.9748e+06)
(2.48327e+07 -196187 0 3.80845e+06 0 8.78149e+06)
(2.47577e+07 1.21435e+06 -1.39062e-09 3.38545e+06 -3.72159e-10 8.39558e+06)
(5.20392e+07 -6.38839e+06 0 1.3019e+06 0 1.58152e+07)
(5.08718e+07 -4.50437e+06 4.93598e-09 2.03329e+06 2.14568e-09 1.50447e+07)
(4.72283e+07 -4.45822e+06 4.96864e-10 3.33033e+06 1.04885e-09 1.57568e+07)
(4.62285e+07 -2.74733e+06 3.91436e-09 3.19338e+06 1.11839e-09 1.46071e+07)
(4.24504e+07 -2.90075e+06 1.05492e-09 4.47323e+06 -7.98978e-10 1.4537e+07)
(4.17263e+07 -1.33813e+06 1.36419e-09 3.89818e+06 -7.25652e-10 1.35095e+07)
(3.84325e+07 -1.73255e+06 -5.12947e-09 5.03495e+06 1.66114e-10 1.32843e+07)
(3.79926e+07 -301894 -9.57743e-09 4.25391e+06 -3.41294e-09 1.24978e+07)
(3.52121e+07 -888587 -1.76285e-08 5.22566e+06 -5.19899e-09 1.2253e+07)
(3.49598e+07 446555 -1.41891e-08 4.35535e+06 -3.52478e-09 1.16561e+07)
(3.25669e+07 -268541 -2.62359e-09 5.17353e+06 -1.22015e-09 1.13832e+07)
(3.24262e+07 991786 3.24684e-10 4.27579e+06 4.81311e-10 1.09144e+07)
(3.03213e+07 197170 5.44688e-09 4.96126e+06 1.74764e-09 1.06066e+07)
(3.02532e+07 1.39165e+06 2.50192e-09 4.06916e+06 -9.24745e-11 1.02311e+07)
(2.83686e+07 548830 -6.4639e-09 4.6447e+06 -2.15175e-09 9.89263e+06)
(2.83497e+07 1.68703e+06 -5.84564e-09 3.77349e+06 -1.70165e-09 9.58987e+06)
(2.66202e+07 812064 2.62058e-09 4.26306e+06 6.58321e-10 9.22138e+06)
(2.66317e+07 1.91434e+06 3.40664e-09 3.41445e+06 1.73421e-09 8.97575e+06)
(2.49839e+07 1.00031e+06 4.71227e-09 3.84736e+06 2.08911e-09 8.5858e+06)
(2.49887e+07 2.11153e+06 4.64685e-09 3.01527e+06 2.1597e-09 8.44068e+06)
(4.85885e+07 -9.72238e+06 -4.84345e-09 2.49435e+06 6.7645e-10 1.5244e+07)
(4.75061e+07 -7.28832e+06 -1.06872e-08 2.60732e+06 -2.58701e-09 1.43917e+07)
(4.4593e+07 -6.73032e+06 -9.49101e-10 3.79375e+06 -8.00382e-10 1.50109e+07)
(4.35475e+07 -4.70081e+06 4.63967e-09 3.23611e+06 2.05515e-09 1.39049e+07)
(4.05181e+07 -4.32105e+06 8.10053e-10 4.3983e+06 6.4644e-10 1.38516e+07)
(3.97449e+07 -2.60468e+06 -8.50238e-09 3.55806e+06 -4.39498e-09 1.2856e+07)
(3.70825e+07 -2.51583e+06 -1.05453e-08 4.62113e+06 -3.83927e-09 1.27318e+07)
(3.66066e+07 -1.03483e+06 -1.20036e-08 3.66279e+06 -3.93724e-09 1.19251e+07)
(3.42965e+07 -1.19565e+06 0 4.6202e+06 0 1.18212e+07)
(3.40325e+07 121436 0 3.61318e+06 0 1.11607e+07)
(3.19715e+07 -216705 -2.32154e-09 4.47154e+06 -1.10704e-09 1.10468e+07)
(3.18475e+07 978644 -5.96514e-09 3.45283e+06 -3.82374e-09 1.04899e+07)
(2.99692e+07 520549 -6.72409e-09 4.22246e+06 -3.71689e-09 1.03502e+07)
(2.99451e+07 1.61743e+06 -2.74153e-09 3.21444e+06 -1.08381e-09 9.87408e+06)
(2.82054e+07 1.07762e+06 5.22064e-09 3.90772e+06 2.80022e-09 9.70694e+06)
(2.82566e+07 2.0955e+06 3.83154e-09 2.92181e+06 2.41569e-09 9.29614e+06)
(2.66069e+07 1.49562e+06 9.74218e-10 3.55391e+06 8.56448e-10 9.09719e+06)
(2.67165e+07 2.46069e+06 -4.29196e-10 2.58912e+06 -4.46422e-10 8.74132e+06)
(2.51031e+07 1.79958e+06 4.49507e-10 3.18467e+06 -2.97588e-11 8.51138e+06)
(2.52388e+07 2.75716e+06 5.63768e-09 2.21358e+06 3.87541e-09 8.2719e+06)
(4.37681e+07 -1.22559e+07 7.98609e-09 3.97609e+06 -1.12678e-09 1.41748e+07)
(4.28655e+07 -9.34345e+06 5.17504e-09 3.42425e+06 1.35801e-09 1.33825e+07)
(4.08524e+07 -8.46822e+06 1.60542e-09 4.31583e+06 5.75437e-10 1.39642e+07)
(3.99061e+07 -6.1996e+06 -5.1929e-09 3.36869e+06 -1.98521e-09 1.28895e+07)
(3.7723e+07 -5.47135e+06 -1.10119e-09 4.27879e+06 -4.06123e-10 1.29213e+07)
(3.70265e+07 -3.65911e+06 7.70054e-10 3.19012e+06 3.65311e-10 1.19379e+07)
(3.50665e+07 -3.24201e+06 7.77374e-09 4.08677e+06 3.77013e-09 1.19404e+07)
(3.46397e+07 -1.74367e+06 7.63329e-09 2.96301e+06 3.97944e-09 1.11224e+07)
(3.28808e+07 -1.59808e+06 1.05524e-08 3.82531e+06 5.7587e-09 1.11557e+07)
(3.26467e+07 -313566 7.91696e-09 2.70847e+06 4.5657e-09 1.04599e+07)
(3.10158e+07 -362159 1.22011e-08 3.52175e+06 7.19291e-09 1.04882e+07)
(3.09123e+07 763798 5.60137e-09 2.43381e+06 3.49512e-09 9.87881e+06)
(2.93744e+07 581201 3.48001e-09 3.19217e+06 2.11914e-09 9.88435e+06)
(2.93659e+07 1.57974e+06 4.88888e-09 2.14644e+06 3.32752e-09 9.34614e+06)
(2.79013e+07 1.30423e+06 4.49554e-09 2.85052e+06 3.02266e-09 9.32389e+06)
(2.7965e+07 2.19937e+06 6.62138e-09 1.85265e+06 4.64601e-09 8.84792e+06)
(2.65442e+07 1.85797e+06 1.39944e-09 2.50899e+06 9.97848e-10 8.7896e+06)
(2.66659e+07 2.67559e+06 2.37796e-10 1.55337e+06 2.16637e-10 8.3713e+06)
(2.52496e+07 2.27647e+06 -3.84786e-09 2.18227e+06 -2.8744e-09 8.27549e+06)
(2.54073e+07 3.05445e+06 -1.64645e-09 1.23693e+06 -1.31624e-09 7.98296e+06)
(3.7916e+07 -1.37713e+07 -6.29305e-09 5.54086e+06 1.47212e-09 1.28357e+07)
(3.73336e+07 -1.05801e+07 8.95483e-09 4.26271e+06 3.80128e-09 1.21364e+07)
(3.6307e+07 -9.59389e+06 6.95731e-10 4.80994e+06 -5.56283e-10 1.26584e+07)
(3.55339e+07 -7.1897e+06 -8.1653e-09 3.48035e+06 -4.12642e-09 1.16512e+07)
(3.42883e+07 -6.30165e+06 -6.83187e-11 4.06599e+06 7.15291e-10 1.17733e+07)
(3.37052e+07 -4.45969e+06 3.88194e-09 2.77283e+06 2.5457e-09 1.08207e+07)
(3.25205e+07 -3.86116e+06 -3.61682e-09 3.42809e+06 -2.55985e-09 1.09613e+07)
(3.21624e+07 -2.39388e+06 -4.59832e-09 2.19315e+06 -2.83236e-09 1.01408e+07)
(3.10201e+07 -2.05097e+06 -6.70123e-09 2.88918e+06 -3.59801e-09 1.03216e+07)
(3.08236e+07 -834328 7.29094e-10 1.71776e+06 2.29263e-10 9.59817e+06)
(2.96883e+07 -675289 -4.30062e-09 2.41882e+06 -3.06496e-09 9.77699e+06)
(2.96017e+07 357672 -6.39559e-09 1.31736e+06 -3.96487e-09 9.12322e+06)
(2.84713e+07 387245 -6.99381e-09 2.00058e+06 -4.70388e-09 9.28236e+06)
(2.8465e+07 1.27415e+06 -3.33275e-09 974064 -2.63672e-09 8.68864e+06)
(2.73435e+07 1.21181e+06 9.62346e-10 1.62804e+06 9.45353e-10 8.82249e+06)
(2.73988e+07 1.98007e+06 -1.58269e-09 676375 -9.53654e-10 8.28425e+06)
(2.62766e+07 1.85261e+06 -2.61126e-09 1.29874e+06 -2.25046e-09 8.38371e+06)
(2.63827e+07 2.52677e+06 -3.56144e-09 413293 -3.15618e-09 7.90103e+06)
(2.52408e+07 2.34667e+06 3.3559e-09 1.01679e+06 2.76638e-09 7.96334e+06)
(2.53771e+07 2.95967e+06 1.08625e-09 164402 9.85205e-10 7.60129e+06)
(3.14943e+07 -1.41857e+07 2.04883e-09 6.91298e+06 -1.01974e-09 1.12987e+07)
(3.13174e+07 -1.09463e+07 1.42082e-08 4.93346e+06 1.78079e-09 1.06928e+07)
(3.1243e+07 -1.0047e+07 1.15649e-08 5.15115e+06 4.29841e-09 1.1154e+07)
(3.07034e+07 -7.63354e+06 2.4009e-09 3.46954e+06 3.19737e-09 1.02394e+07)
(3.03873e+07 -6.77883e+06 -8.88836e-09 3.73175e+06 -4.81209e-09 1.04496e+07)
(2.99446e+07 -4.97507e+06 -8.49088e-09 2.27522e+06 -4.94675e-09 9.5525e+06)
(2.95437e+07 -4.35414e+06 -1.22416e-09 2.67168e+06 7.20346e-11 9.82584e+06)
(2.92615e+07 -2.95388e+06 7.4604e-09 1.37183e+06 3.78241e-09 9.02168e+06)
(2.87581e+07 -2.5402e+06 4.57306e-09 1.87072e+06 3.10103e-09 9.34543e+06)
(2.85961e+07 -1.409e+06 1.03161e-08 691582 6.93771e-09 8.60858e+06)
(2.79889e+07 -1.145e+06 7.0174e-09 1.24272e+06 4.92381e-09 8.93542e+06)
(2.79092e+07 -210096 6.19543e-09 172521 4.89116e-09 8.24831e+06)
(2.72254e+07 -54328.3 0 740496 0 8.56023e+06)
(2.7206e+07 725804 2.39832e-09 -225169 1.75886e-09 7.91956e+06)
(2.64712e+07 802226 9.85581e-10 338431 1.18445e-09 8.21041e+06)
(2.64977e+07 1.45676e+06 1.72695e-09 -528270 1.49924e-09 7.61596e+06)
(2.5722e+07 1.47636e+06 2.70306e-09 20225.9 1.90735e-09 7.87675e+06)
(2.57856e+07 2.02833e+06 5.91615e-10 -758476 3.10836e-10 7.33149e+06)
(2.49688e+07 2.0052e+06 9.40737e-09 -221289 8.46728e-09 7.55719e+06)
(2.5047e+07 2.48298e+06 1.07023e-08 -943322 9.54035e-09 7.11922e+06)
(2.49763e+07 -1.35586e+07 2.31453e-09 7.85714e+06 -1.43763e-09 9.61749e+06)
(2.52209e+07 -1.04815e+07 -7.95687e-09 5.26908e+06 -5.2743e-09 9.11031e+06)
(2.59774e+07 -9.8413e+06 4.42628e-09 5.22527e+06 1.83594e-09 9.50948e+06)
(2.56972e+07 -7.53543e+06 1.38787e-08 3.25235e+06 5.06829e-09 8.70896e+06)
(2.62168e+07 -6.88881e+06 8.90296e-09 3.24548e+06 5.06388e-09 8.99843e+06)
(2.5927e+07 -5.18233e+06 6.1875e-09 1.6735e+06 5.82343e-09 8.17995e+06)
(2.62493e+07 -4.6899e+06 -1.28375e-09 1.83983e+06 3.02269e-10 8.57054e+06)
(2.60454e+07 -3.38195e+06 -3.30938e-09 516069 -1.90781e-09 7.80432e+06)
(2.61509e+07 -3.0246e+06 -4.10325e-09 824685 -4.97738e-09 8.25383e+06)
(2.6019e+07 -1.98405e+06 -9.06705e-09 -325905 -6.77902e-09 7.52408e+06)
(2.59317e+07 -1.72367e+06 -4.66725e-09 68133.1 -1.77923e-09 7.98229e+06)
(2.58506e+07 -879218 0 -939197 0 7.28136e+06)
(2.56187e+07 -691592 -4.35433e-09 -501454 -4.6366e-09 7.7303e+06)
(2.55756e+07 -2057.9 -4.58321e-09 -1.37957e+06 -4.69961e-09 7.06103e+06)
(2.52409e+07 129763 2.04705e-09 -925133 2.73105e-09 7.49412e+06)
(2.52267e+07 692766 1.49778e-08 -1.68471e+06 1.17958e-08 6.86018e+06)
(2.48145e+07 784209 6.74131e-09 -1.23064e+06 5.09118e-09 7.2686e+06)
(2.4822e+07 1.24116e+06 5.40382e-09 -1.88309e+06 4.68308e-09 6.67461e+06)
(2.43483e+07 1.30531e+06 -3.93552e-09 -1.43529e+06 -3.23464e-09 7.05033e+06)
(2.43508e+07 1.68024e+06 -1.95427e-09 -2.00509e+06 -1.59386e-09 6.5453e+06)
(1.87798e+07 -1.20499e+07 -3.54415e-09 8.19003e+06 1.18827e-09 7.85921e+06)
(1.94012e+07 -9.30658e+06 -9.36238e-09 5.13832e+06 1.22495e-09 7.45317e+06)
(2.08091e+07 -9.04988e+06 -1.63429e-08 4.93898e+06 -7.01529e-09 7.78956e+06)
(2.0779e+07 -6.94846e+06 -2.14465e-08 2.75902e+06 -1.20352e-08 7.11724e+06)
(2.19779e+07 -6.64384e+06 -9.99072e-09 2.57731e+06 -6.493e-09 7.47261e+06)
(2.18371e+07 -5.0814e+06 -3.40701e-09 944383 -6.06604e-09 6.7497e+06)
(2.27668e+07 -4.84054e+06 -3.41805e-09 945240 -1.90495e-09 7.23735e+06)
(2.26375e+07 -3.64066e+06 -4.27627e-09 -363426 -1.49887e-09 6.52727e+06)
(2.32748e+07 -3.45061e+06 -1.63919e-09 -206883 -1.44073e-09 7.08035e+06)
(2.31685e+07 -2.49647e+06 -7.55487e-09 -1.29903e+06 -5.27288e-09 6.37762e+06)
(2.3554e+07 -2.34044e+06 -7.3679e-09 -1.04231e+06 -5.1731e-09 6.94404e+06)
(2.34655e+07 -1.56895e+06 -3.66951e-09 -1.96385e+06 -3.49401e-09 6.25118e+06)
(2.36602e+07 -1.4411e+06 -9.58253e-10 -1.6481e+06 -1.56524e-09 6.81285e+06)
(2.35863e+07 -816505 -1.07631e-08 -2.42206e+06 -6.86587e-09 6.13916e+06)
(2.36403e+07 -712771 -1.39394e-08 -2.07533e+06 -1.00259e-08 6.68932e+06)
(2.35785e+07 -211077 -1.0007e-08 -2.71719e+06 -8.19249e-09 6.04309e+06)
(2.35263e+07 -124494 -7.16784e-10 -2.35963e+06 -1.1812e-10 6.57274e+06)
(2.34714e+07 270408 3.41514e-09 -2.88112e+06 1.92945e-09 5.96203e+06)
(2.33402e+07 350201 6.6028e-09 -2.52577e+06 4.93013e-09 6.45739e+06)
(2.3262e+07 655005 3.27063e-09 -2.94155e+06 2.95865e-09 5.92261e+06)
(1.32298e+07 -9.89025e+06 5.66448e-09 7.80103e+06 -3.62136e-09 6.08456e+06)
(1.41416e+07 -7.60036e+06 -1.2057e-09 4.45559e+06 -5.85347e-09 5.77944e+06)
(1.59909e+07 -7.79328e+06 8.01886e-09 4.22816e+06 7.65756e-09 6.05273e+06)
(1.6174e+07 -5.96848e+06 -1.49778e-09 1.93441e+06 5.46583e-09 5.51579e+06)
(1.78585e+07 -6.08628e+06 3.72537e-09 1.69844e+06 1.79605e-09 5.92108e+06)
(1.78489e+07 -4.70438e+06 1.08688e-09 59327.9 -7.27745e-10 5.30292e+06)
(1.92308e+07 -4.79611e+06 8.19474e-09 -13530.4 5.0914e-09 5.86793e+06)
(1.91689e+07 -3.71766e+06 1.32597e-09 -1.27033e+06 1.66377e-09 5.2227e+06)
(2.02205e+07 -3.77419e+06 4.13624e-09 -1.20272e+06 1.3153e-09 5.86181e+06)
(2.01369e+07 -2.90199e+06 0 -2.2084e+06 0 5.19354e+06)
(2.09104e+07 -2.92799e+06 3.64064e-09 -2.04892e+06 3.55598e-09 5.85294e+06)
(2.0811e+07 -2.20927e+06 4.43123e-09 -2.8624e+06 3.31127e-09 5.17572e+06)
(2.13779e+07 -2.21698e+06 9.60597e-09 -2.64525e+06 6.64072e-09 5.83395e+06)
(2.12643e+07 -1.62579e+06 4.3185e-09 -3.29717e+06 3.24446e-09 5.16643e+06)
(2.16837e+07 -1.62079e+06 3.15608e-09 -3.04506e+06 1.60309e-09 5.81326e+06)
(2.15551e+07 -1.14807e+06 -2.33894e-09 -3.55128e+06 -1.58303e-09 5.16739e+06)
(2.1868e+07 -1.12661e+06 -5.64595e-09 -3.2853e+06 -4.6544e-09 5.79762e+06)
(2.17197e+07 -773409 -4.07146e-09 -3.64501e+06 -3.09097e-09 5.17191e+06)
(2.19611e+07 -730224 -2.74441e-09 -3.39815e+06 -1.63727e-09 5.78547e+06)
(2.17591e+07 -485149 3.52127e-09 -3.58907e+06 2.16029e-09 5.19142e+06)
(8.53992e+06 -7.34396e+06 -2.56957e-09 6.65506e+06 2.90842e-09 4.34051e+06)
(9.63513e+06 -5.56836e+06 1.20054e-08 3.17985e+06 6.31104e-09 4.13738e+06)
(1.17141e+07 -6.22524e+06 -2.3416e-09 3.05684e+06 -3.14285e-09 4.34463e+06)
(1.20573e+07 -4.7183e+06 -1.15985e-09 733866 1.16121e-09 3.94794e+06)
(1.40225e+07 -5.28873e+06 -8.47391e-09 577698 -2.16281e-09 4.38203e+06)
(1.41194e+07 -4.1118e+06 9.97367e-10 -1.027e+06 -8.86916e-10 3.87919e+06)
(1.5778e+07 -4.57318e+06 -2.13436e-09 -1.05887e+06 -2.57284e-09 4.49484e+06)
(1.57769e+07 -3.63337e+06 -4.00311e-09 -2.24656e+06 -9.64262e-10 3.92682e+06)
(1.70931e+07 -3.97418e+06 -3.99908e-09 -2.17343e+06 -1.05833e-09 4.62771e+06)
(1.7039e+07 -3.19875e+06 0 -3.08689e+06 0 4.00021e+06)
(1.80651e+07 -3.44296e+06 -2.76972e-09 -2.94917e+06 -1.64674e-09 4.73882e+06)
(1.7974e+07 -2.78563e+06 0 -3.65361e+06 0 4.06719e+06)
(1.8787e+07 -2.96966e+06 1.03254e-09 -3.4807e+06 1.67734e-09 4.82482e+06)
(1.86636e+07 -2.39841e+06 7.38559e-09 -4.01783e+06 4.35309e-09 4.1314e+06)
(1.93433e+07 -2.55065e+06 3.82131e-09 -3.82885e+06 1.25942e-09 4.88717e+06)
(1.9177e+07 -2.05122e+06 -6.00556e-10 -4.23853e+06 7.22602e-11 4.20057e+06)
(1.98087e+07 -2.17091e+06 -6.61284e-10 -4.04178e+06 3.52235e-11 4.91769e+06)
(1.95649e+07 -1.7772e+06 4.85199e-09 -4.35549e+06 2.76734e-09 4.27998e+06)
(2.02352e+07 -1.79062e+06 3.99153e-09 -4.14518e+06 2.79732e-09 4.91051e+06)
(1.9842e+07 -1.63642e+06 1.33441e-09 -4.35083e+06 1.37677e-09 4.39038e+06)
(4.81158e+06 -4.67333e+06 2.23495e-09 4.77872e+06 -3.00955e-09 2.66303e+06)
(5.9792e+06 -3.41436e+06 -2.52481e-09 1.32038e+06 -5.15645e-09 2.56301e+06)
(8.09996e+06 -4.51404e+06 3.65714e-09 1.41877e+06 1.44561e-09 2.70052e+06)
(8.5428e+06 -3.32673e+06 4.41389e-09 -851353 1.25375e-10 2.44484e+06)
(1.06003e+07 -4.34377e+06 7.88119e-09 -806863 7.35767e-09 2.88727e+06)
(1.07747e+07 -3.36719e+06 1.47307e-08 -2.3395e+06 9.49138e-09 2.5134e+06)
(1.25465e+07 -4.20896e+06 1.53056e-08 -2.22194e+06 9.01656e-09 3.14492e+06)
(1.25994e+07 -3.39995e+06 4.78866e-09 -3.34014e+06 5.56959e-09 2.68603e+06)
(1.40392e+07 -4.04677e+06 7.38361e-09 -3.16047e+06 4.42668e-09 3.39637e+06)
(1.40248e+07 -3.36645e+06 1.51175e-09 -4.02019e+06 1.58065e-09 2.86535e+06)
(1.51682e+07 -3.84623e+06 7.09034e-09 -3.79708e+06 4.32245e-09 3.60917e+06)
(1.51151e+07 -3.27251e+06 1.65971e-09 -4.4744e+06 1.50849e-09 3.0234e+06)
(1.60068e+07 -3.62114e+06 -2.80545e-09 -4.21717e+06 -3.44233e-09 3.78998e+06)
(1.59435e+07 -3.13591e+06 -1.75736e-09 -4.76969e+06 -1.45205e-09 3.15808e+06)
(1.66062e+07 -3.38582e+06 -6.87689e-10 -4.47868e+06 2.03687e-10 3.94818e+06)
(1.65801e+07 -2.96599e+06 -2.82191e-09 -4.98357e+06 -1.17329e-09 3.27178e+06)
(1.70095e+07 -3.16136e+06 -7.32085e-09 -4.62258e+06 -5.28707e-09 4.10206e+06)
(1.7113e+07 -2.79375e+06 -4.69509e-09 -5.18316e+06 -4.01726e-09 3.43069e+06)
(1.7303e+07 -3.02308e+06 1.20736e-09 -4.61025e+06 1.21977e-09 4.355e+06)
(1.77216e+07 -2.83093e+06 5.31458e-09 -5.05691e+06 3.62137e-09 3.59806e+06)
(2.0512e+06 -2.11418e+06 0 2.24964e+06 0 1.08461e+06)
(3.18294e+06 -1.3288e+06 0 -1.04816e+06 0 1.08101e+06)
(5.19544e+06 -2.81912e+06 0 -642696 0 1.15136e+06)
(5.67138e+06 -1.91834e+06 -3.91049e-09 -2.75922e+06 8.01062e-11 1.02683e+06)
(7.67248e+06 -3.3379e+06 -4.06058e-09 -2.43215e+06 1.52034e-11 1.47081e+06)
(7.88204e+06 -2.52872e+06 4.36521e-09 -3.81568e+06 -8.23877e-10 1.22064e+06)
(9.64767e+06 -3.72639e+06 1.67004e-09 -3.49128e+06 -2.11448e-09 1.85618e+06)
(9.72454e+06 -3.00638e+06 0 -4.46792e+06 0 1.50427e+06)
(1.12099e+07 -3.96317e+06 -1.94801e-09 -4.15849e+06 6.9487e-10 2.20895e+06)
(1.12064e+07 -3.31456e+06 9.25091e-09 -4.87896e+06 5.31961e-09 1.77494e+06)
(1.24466e+07 -4.0732e+06 5.19517e-09 -4.59149e+06 4.35742e-09 2.50017e+06)
(1.23857e+07 -3.48297e+06 2.08302e-09 -5.12427e+06 3.67066e-09 2.01135e+06)
(1.34273e+07 -4.08806e+06 1.30337e-09 -4.8638e+06 -3.15727e-10 2.73474e+06)
(1.33229e+07 -3.54486e+06 -5.73303e-09 -5.25436e+06 -3.9925e-09 2.20971e+06)
(1.41915e+07 -4.01894e+06 3.43041e-09 -5.02999e+06 2.6683e-09 2.91964e+06)
(1.40728e+07 -3.5148e+06 6.04296e-09 -5.32503e+06 3.54887e-09 2.36813e+06)
(1.47516e+07 -3.87024e+06 1.46432e-09 -5.11306e+06 -2.90862e-10 3.11563e+06)
(1.47199e+07 -3.41881e+06 -6.27692e-09 -5.36344e+06 -3.33411e-09 2.57812e+06)
(1.51209e+07 -3.70311e+06 -6.29116e-09 -5.01651e+06 -3.41172e-09 3.58776e+06)
(1.55485e+07 -3.52633e+06 -3.24566e-09 -5.17943e+06 -2.17305e-09 2.77539e+06)
(191618 133154 4.28287e-10 -796637 -2.86682e-09 -367379)
(1.19123e+06 511290 -5.97273e-09 -3.79692e+06 -4.628e-09 -287031)
(2.96922e+06 -1.27843e+06 -6.75624e-09 -3.01908e+06 -4.01518e-09 -275764)
(3.42205e+06 -619872 -6.18067e-09 -4.89566e+06 -4.39058e-09 -279839)
(5.23412e+06 -2.35539e+06 -6.36876e-09 -4.2161e+06 -1.07972e-09 165872)
(5.44762e+06 -1.68279e+06 3.18178e-09 -5.39594e+06 8.68081e-11 29932.7)
(7.08483e+06 -3.162e+06 6.66241e-09 -4.80149e+06 3.73828e-09 670640)
(7.17119e+06 -2.51404e+06 2.02628e-10 -5.6018e+06 3.21715e-09 415675)
(8.58751e+06 -3.71303e+06 -7.37073e-09 -5.10359e+06 -5.56807e-09 1.12473e+06)
(8.59477e+06 -3.09646e+06 -1.82575e-09 -5.66443e+06 -4.05089e-09 771510)
(9.81148e+06 -4.06252e+06 -1.37913e-09 -5.25034e+06 5.53273e-10 1.50807e+06)
(9.76507e+06 -3.47789e+06 5.99478e-09 -5.63483e+06 3.40493e-09 1.08353e+06)
(1.08099e+07 -4.26114e+06 3.88278e-09 -5.29058e+06 2.18042e-09 1.82867e+06)
(1.07298e+07 -3.70558e+06 7.11432e-10 -5.54651e+06 1.85932e-09 1.35231e+06)
(1.16123e+07 -4.33702e+06 -9.1572e-09 -5.25822e+06 -5.55024e-09 2.08795e+06)
(1.15303e+07 -3.81268e+06 -1.07995e-08 -5.44267e+06 -6.34108e-09 1.5832e+06)
(1.22329e+07 -4.31365e+06 -5.05539e-10 -5.15171e+06 1.96749e-10 2.33822e+06)
(1.2234e+07 -3.85077e+06 -1.8542e-09 -5.35034e+06 -9.24615e-10 1.86872e+06)
(1.26812e+07 -4.24382e+06 -3.03201e-09 -4.88023e+06 -2.08606e-09 2.81345e+06)
(1.31228e+07 -4.07726e+06 -1.05744e-09 -5.09689e+06 -6.80382e-11 2.11563e+06)
(-884908 1.90261e+06 0 -4.16771e+06 0 -1.6753e+06)
(-90156.3 1.96127e+06 0 -6.7617e+06 0 -1.52165e+06)
(1.35399e+06 -10866 5.73655e-09 -5.5712e+06 8.88582e-09 -1.56253e+06)
(1.74405e+06 458728 8.15736e-09 -7.14999e+06 8.55323e-09 -1.45417e+06)
(3.2572e+06 -1.48533e+06 6.03131e-09 -6.06636e+06 3.55932e-09 -1.01216e+06)
(3.4586e+06 -912068 5.57117e-09 -7.01766e+06 3.77402e-09 -1.04017e+06)
(4.86136e+06 -2.59026e+06 2.85553e-09 -6.09843e+06 3.85891e-11 -404000)
(4.95748e+06 -1.98657e+06 -3.67652e-10 -6.71979e+06 8.23496e-10 -565156)
(6.20519e+06 -3.37152e+06 -4.52123e-09 -5.97385e+06 -3.95564e-09 134518)
(6.23373e+06 -2.76435e+06 -8.55463e-09 -6.39153e+06 -6.02146e-09 -135039)
(7.33639e+06 -3.90519e+06 -8.89551e-09 -5.78678e+06 -5.5343e-09 591346)
(7.31806e+06 -3.30609e+06 -6.80014e-09 -6.05688e+06 -4.0932e-09 243659)
(8.29089e+06 -4.25358e+06 -1.11407e-08 -5.56326e+06 -5.60935e-09 979586)
(8.24287e+06 -3.66739e+06 -2.24147e-09 -5.73002e+06 -2.79628e-09 573583)
(9.0865e+06 -4.45087e+06 7.19625e-09 -5.32551e+06 5.37276e-09 1.30166e+06)
(9.03853e+06 -3.89073e+06 1.13187e-08 -5.44718e+06 6.36583e-09 857691)
(9.72645e+06 -4.51833e+06 8.52781e-09 -5.07016e+06 4.23638e-09 1.60402e+06)
(9.76186e+06 -4.03909e+06 8.08021e-09 -5.24146e+06 4.1369e-09 1.18622e+06)
(1.02042e+07 -4.49276e+06 7.03265e-09 -4.70197e+06 3.13771e-09 2.10903e+06)
(1.06521e+07 -4.37056e+06 5.19285e-09 -4.90876e+06 3.00986e-09 1.48044e+06)
(-1.33485e+06 3.07975e+06 -3.57423e-10 -7.64025e+06 3.26173e-09 -2.82439e+06)
(-785033 2.92798e+06 2.05669e-09 -9.76179e+06 6.45283e-09 -2.60665e+06)
(265470 895088 -7.85172e-09 -8.15514e+06 -7.69559e-09 -2.69361e+06)
(569550 1.24165e+06 -7.38773e-09 -9.40275e+06 -6.75397e-09 -2.48178e+06)
(1.7138e+06 -795254 -7.63109e-09 -7.90044e+06 -2.98899e-09 -2.05128e+06)
(1.89494e+06 -277485 -2.86265e-09 -8.61244e+06 -2.48969e-09 -1.9765e+06)
(2.99355e+06 -2.06102e+06 -6.05268e-09 -7.34855e+06 -4.9893e-09 -1.35749e+06)
(3.10184e+06 -1.4714e+06 -3.55755e-09 -7.79314e+06 -5.0431e-09 -1.42576e+06)
(4.11392e+06 -2.96969e+06 2.88271e-09 -6.77727e+06 2.57269e-09 -750513)
(4.1728e+06 -2.35128e+06 2.73818e-09 -7.06163e+06 2.53844e-09 -934258)
(5.09763e+06 -3.61051e+06 6.61313e-09 -6.24416e+06 3.91196e-09 -235034)
(5.12092e+06 -2.98381e+06 4.69708e-09 -6.41422e+06 2.50159e-09 -501702)
(5.96162e+06 -4.05135e+06 5.67332e-09 -5.75096e+06 1.91304e-09 205729)
(5.96234e+06 -3.42807e+06 -1.63108e-09 -5.84647e+06 -6.89818e-10 -123388)
(6.71126e+06 -4.32758e+06 1.05463e-09 -5.30897e+06 1.0448e-09 572954)
(6.71475e+06 -3.73017e+06 4.42967e-09 -5.38565e+06 2.11506e-09 201894)
(7.33998e+06 -4.45442e+06 2.98477e-09 -4.91294e+06 1.38766e-09 909378)
(7.42149e+06 -3.95562e+06 1.10474e-09 -5.05831e+06 9.20021e-10 562442)
(7.82857e+06 -4.45104e+06 1.48824e-09 -4.46231e+06 6.57369e-10 1.43941e+06)
(8.27595e+06 -4.36054e+06 -1.98399e-09 -4.63859e+06 -5.55752e-10 898990)
(-1.33898e+06 3.61795e+06 5.82395e-10 -1.09896e+07 -2.84897e-09 -3.8025e+06)
(-1.0403e+06 3.37189e+06 -5.68222e-10 -1.26165e+07 -3.37544e-09 -3.53009e+06)
(-403971 1.39456e+06 1.75911e-09 -1.06222e+07 1.03622e-09 -3.65713e+06)
(-189187 1.69028e+06 -7.50047e-12 -1.15291e+07 1.15132e-09 -3.35276e+06)
(554447 -323981 -2.62011e-09 -9.6272e+06 -2.02567e-09 -2.93851e+06)
(720084 185575 -3.92024e-09 -1.00994e+07 -4.06115e-09 -2.76759e+06)
(1.47743e+06 -1.60494e+06 4.26668e-09 -8.50265e+06 3.49282e-09 -2.17488e+06)
(1.60918e+06 -998197 4.00728e-09 -8.77621e+06 2.73541e-09 -2.15232e+06)
(2.34601e+06 -2.53006e+06 -7.09376e-10 -7.49701e+06 -2.12044e-09 -1.51388e+06)
(2.44997e+06 -1.87995e+06 -4.1099e-09 -7.65769e+06 -1.86423e-09 -1.61034e+06)
(3.15607e+06 -3.19352e+06 -8.55714e-09 -6.63028e+06 -4.2458e-09 -952849)
(3.23765e+06 -2.52627e+06 -3.27348e-09 -6.71171e+06 -3.15553e-09 -1.13447e+06)
(3.90463e+06 -3.66158e+06 5.8224e-09 -5.87924e+06 4.35955e-09 -471245)
(3.97247e+06 -2.99401e+06 5.72728e-09 -5.91453e+06 4.01616e-09 -717614)
(4.58496e+06 -3.96668e+06 -3.10053e-09 -5.24335e+06 -2.62012e-09 -68684.3)
(4.65899e+06 -3.3286e+06 -5.94838e-09 -5.28205e+06 -3.12932e-09 -359452)
(5.18287e+06 -4.11771e+06 -6.27013e-10 -4.71332e+06 4.3443e-10 294070)
(5.3244e+06 -3.59604e+06 2.53615e-09 -4.83138e+06 9.73785e-10 25400.9)
(5.67164e+06 -4.11654e+06 2.71045e-09 -4.18878e+06 9.30562e-10 836914)
(6.11579e+06 -4.04023e+06 4.23638e-10 -4.32336e+06 1.43529e-10 397332)
(-1.08277e+06 3.53246e+06 4.40943e-10 -1.40084e+07 -5.83211e-09 -4.60189e+06)
(-1.00747e+06 3.30679e+06 -5.53348e-09 -1.51605e+07 -8.31384e-09 -4.2796e+06)
(-775730 1.4845e+06 -3.14742e-09 -1.28252e+07 -1.9884e-09 -4.44275e+06)
(-629077 1.80663e+06 -9.71805e-10 -1.33968e+07 -3.39481e-09 -4.05727e+06)
(-285384 -81573.6 -9.28936e-11 -1.11458e+07 -9.26431e-10 -3.65685e+06)
(-113309 472805 -2.20171e-09 -1.13825e+07 -2.11541e-10 -3.39687e+06)
(297314 -1.23315e+06 -6.99469e-09 -9.49932e+06 -4.7268e-09 -2.83595e+06)
(473611 -575829 -6.25461e-09 -9.61075e+06 -5.48187e-09 -2.72589e+06)
(923639 -2.06602e+06 -5.41641e-11 -8.10514e+06 5.35348e-10 -2.13459e+06)
(1.09198e+06 -1.36394e+06 0 -8.15388e+06 0 -2.14477e+06)
(1.56128e+06 -2.67055e+06 3.33043e-09 -6.94171e+06 2.20102e-09 -1.54059e+06)
(1.71975e+06 -1.95107e+06 1.96779e-09 -6.9466e+06 1.26208e-09 -1.63617e+06)
(2.18955e+06 -3.10302e+06 9.45851e-10 -5.96077e+06 5.41759e-10 -1.02899e+06)
(2.34274e+06 -2.38543e+06 3.06364e-09 -5.94684e+06 1.309e-09 -1.19017e+06)
(2.79222e+06 -3.38912e+06 6.48943e-09 -5.15141e+06 2.84952e-09 -599884)
(2.95364e+06 -2.70772e+06 4.80349e-09 -5.16e+06 2.35257e-09 -807455)
(3.35025e+06 -3.53065e+06 4.10121e-09 -4.50236e+06 1.75756e-09 -218142)
(3.56447e+06 -2.98144e+06 4.64888e-09 -4.59437e+06 2.1636e-09 -407297)
(3.83396e+06 -3.51292e+06 3.16535e-09 -3.91914e+06 1.12699e-09 326272)
(4.27771e+06 -3.43012e+06 2.96453e-09 -4.0071e+06 1.44468e-09 -10199.2)
(-737770 2.8877e+06 -1.25534e-11 -1.65136e+07 6.30833e-09 -5.2057e+06)
(-823492 2.80505e+06 2.79559e-09 -1.72322e+07 6.50653e-09 -4.84128e+06)
(-960037 1.20675e+06 4.22835e-09 -1.46235e+07 6.10463e-09 -5.02849e+06)
(-837545 1.64536e+06 3.16847e-09 -1.48634e+07 4.91218e-09 -4.57518e+06)
(-858442 -37219.7 2.21321e-09 -1.23524e+07 5.95132e-10 -4.18019e+06)
(-646041 618333 2.15168e-09 -1.23632e+07 1.96672e-09 -3.84457e+06)
(-551098 -931698 1.59188e-09 -1.02803e+07 1.43045e-09 -3.32088e+06)
(-309468 -194462 8.25534e-10 -1.02504e+07 1.73466e-09 -3.13604e+06)
(-126544 -1.58402e+06 -4.20152e-09 -8.57922e+06 -3.42479e-09 -2.59946e+06)
(119677 -816372 -2.81714e-09 -8.53713e+06 -2.58078e-09 -2.5314e+06)
(359454 -2.06368e+06 -4.35099e-09 -7.17791e+06 -2.29453e-09 -1.98687e+06)
(605330 -1.28847e+06 -1.40312e-09 -7.12379e+06 -1.08224e-09 -2.00089e+06)
(875820 -2.40858e+06 -2.39049e-10 -6.00927e+06 4.45768e-10 -1.45532e+06)
(1.12304e+06 -1.64419e+06 2.10428e-09 -5.95923e+06 1.31406e-09 -1.53481e+06)
(1.4015e+06 -2.63534e+06 -1.44763e-09 -5.05712e+06 -1.11093e-09 -1.00765e+06)
(1.65689e+06 -1.91667e+06 -1.35995e-09 -5.04286e+06 -7.91862e-10 -1.13631e+06)
(1.91644e+06 -2.7388e+06 -3.10565e-09 -4.31063e+06 -1.38017e-09 -614365)
(2.2065e+06 -2.16389e+06 -1.346e-09 -4.37496e+06 -6.27425e-10 -732058)
(2.39177e+06 -2.689e+06 4.56681e-10 -3.68644e+06 6.64529e-10 -80042)
(2.83585e+06 -2.58218e+06 -2.87087e-10 -3.71597e+06 -1.43816e-10 -331360)
(-431438 1.79551e+06 1.58687e-11 -1.83388e+07 -1.31851e-09 -5.61469e+06)
(-610475 2.00791e+06 0 -1.8603e+07 0 -5.30636e+06)
(-1.00935e+06 657943 -2.3333e-09 -1.58893e+07 -4.81417e-09 -5.41967e+06)
(-884237 1.31747e+06 -1.42011e-09 -1.58092e+07 -4.95844e-09 -4.9179e+06)
(-1.16853e+06 -120608 5.86212e-10 -1.31743e+07 8.60521e-10 -4.52901e+06)
(-911456 675086 -1.02255e-10 -1.3023e+07 1.14661e-10 -4.13878e+06)
(-1.0618e+06 -681552 1.95033e-09 -1.08241e+07 2.4562e-09 -3.66603e+06)
(-755732 147059 1.77925e-09 -1.07121e+07 3.07426e-09 -3.42959e+06)
(-795680 -1.10391e+06 2.28281e-09 -8.91948e+06 2.50216e-09 -2.94443e+06)
(-473224 -267494 8.21497e-10 -8.82519e+06 1.15647e-09 -2.81757e+06)
(-431901 -1.41579e+06 1.05687e-09 -7.34941e+06 7.89236e-10 -2.32059e+06)
(-104254 -586490 4.89372e-10 -7.25825e+06 5.97626e-10 -2.27056e+06)
(-9235.63 -1.63493e+06 -2.60651e-09 -6.04382e+06 -2.05484e-09 -1.77162e+06)
(322221 -830666 -1.68521e-09 -5.96644e+06 -1.68998e-09 -1.78641e+06)
(445551 -1.76968e+06 1.76458e-11 -4.98646e+06 9.28646e-11 -1.30533e+06)
(785042 -1.02787e+06 5.34105e-11 -4.95007e+06 8.07922e-11 -1.37101e+06)
(912799 -1.81125e+06 -4.69986e-10 -4.16698e+06 -2.901e-10 -898680)
(1.27479e+06 -1.23049e+06 -4.62941e-10 -4.2036e+06 -3.65379e-10 -953862)
(1.37347e+06 -1.71978e+06 -1.85659e-09 -3.51526e+06 -1.14409e-09 -378404)
(1.8273e+06 -1.60109e+06 1.44908e-10 -3.50138e+06 9.59386e-11 -534829)
(-177218 436062 -1.66136e-12 -1.9351e+07 -1.33651e-13 -6.09179e+06)
(-605670 934912 -1.01091e-09 -1.93315e+07 2.31949e-09 -5.52558e+06)
(-946318 -42429.9 -2.52326e-11 -1.65216e+07 2.81302e-09 -5.78292e+06)
(-1.02675e+06 750711 9.70381e-10 -1.63572e+07 1.4086e-09 -4.90204e+06)
(-1.27044e+06 -312736 4.87045e-11 -1.3595e+07 -1.72159e-09 -4.85521e+06)
(-1.18759e+06 548439 3.90185e-10 -1.34614e+07 -1.51711e-09 -4.10933e+06)
(-1.31589e+06 -514974 -8.32507e-10 -1.11322e+07 -2.47673e-09 -3.99139e+06)
(-1.14132e+06 368179 -8.68807e-10 -1.10448e+07 -2.99382e-09 -3.41779e+06)
(-1.16355e+06 -673286 -2.0834e-10 -9.12174e+06 -5.86479e-10 -3.25557e+06)
(-941409 221053 1.24439e-10 -9.04818e+06 -1.01927e-09 -2.8096e+06)
(-871809 -785917 -8.59229e-10 -7.45466e+06 -1.67074e-09 -2.61268e+06)
(-632483 104890 -6.71307e-10 -7.37965e+06 -1.91638e-09 -2.25906e+06)
(-489065 -852806 -3.12684e-10 -6.07208e+06 -3.32957e-10 -2.04601e+06)
(-249444 11488.4 -2.7173e-10 -5.99324e+06 -1.4605e-09 -1.77555e+06)
(-54463.9 -866954 -1.06384e-09 -4.96192e+06 -1.46667e-09 -1.55786e+06)
(183416 -75107.8 -5.54987e-10 -4.8766e+06 -1.82215e-09 -1.3755e+06)
(397774 -803833 -1.03026e-09 -4.10342e+06 -1.26966e-09 -1.11183e+06)
(661955 -181540 -5.03079e-10 -3.99606e+06 -1.53378e-09 -1.0061e+06)
(828415 -617209 -7.7032e-10 -3.39957e+06 -9.51192e-10 -553954)
(1.22917e+06 -409279 -2.28491e-10 -3.19938e+06 -7.49999e-10 -664219)
(1.28362e+06 -236671 2.74143e-10 -2.04826e+06 -2.25027e-10 -115683)
(2.35158e+06 -853071 -1.98833e-10 -1.92312e+06 -1.61985e-10 -30436.3)
(1.8417e+06 -1.47149e+06 6.47828e-10 -2.06467e+06 3.20311e-10 -154910)