/*--------------------------------*- C++ -*----------------------------------*\
| =========                 |                                                 |
| \\      /  F ield         | OpenFOAM: The Open Source CFD Toolbox           |
|  \\    /   O peration     | Version:  v2012                                 |
|   \\  /    A nd           | Website:  www.openfoam.com                      |
|    \\/     M anipulation  |                                                 |
\*---------------------------------------------------------------------------*/
FoamFile
{
    version     2.0;
    format      ascii;
    class       volScalarField;
    location    "1";
    object      sigmaEq;
}
// * * * * * * * * * * * * * * * * * * * * * * * * * * * * * * * * * * * * * //

dimensions      [1 -1 -2 0 0 0 0];


internalField   nonuniform List<scalar> 
2000
(
4.70957e+07
4.58026e+07
4.03398e+07
4.00356e+07
3.48027e+07
3.48985e+07
3.05461e+07
3.08699e+07
2.73696e+07
2.78027e+07
2.49414e+07
2.54237e+07
2.3021e+07
2.35312e+07
2.14605e+07
2.19874e+07
2.01589e+07
2.06804e+07
1.90344e+07
1.94736e+07
4.65938e+07
4.44961e+07
3.99447e+07
3.8907e+07
3.4447e+07
3.41341e+07
3.0281e+07
3.04695e+07
2.72069e+07
2.76965e+07
2.48811e+07
2.55458e+07
2.30641e+07
2.38336e+07
2.16048e+07
2.24369e+07
2.0385e+07
2.12567e+07
1.92887e+07
2.01601e+07
4.45322e+07
4.22495e+07
3.83229e+07
3.70816e+07
3.32952e+07
3.28607e+07
2.95842e+07
2.97419e+07
2.6891e+07
2.74364e+07
2.48758e+07
2.56678e+07
2.33128e+07
2.42634e+07
2.20586e+07
2.3112e+07
2.10021e+07
2.21293e+07
2.00438e+07
2.12173e+07
4.16199e+07
3.90373e+07
3.59253e+07
3.45408e+07
3.15273e+07
3.1074e+07
2.84544e+07
2.86469e+07
2.63179e+07
2.69186e+07
2.47652e+07
2.5616e+07
2.35816e+07
2.45815e+07
2.26359e+07
2.372e+07
2.18297e+07
2.29648e+07
2.10765e+07
2.22408e+07
3.787e+07
3.50871e+07
3.29027e+07
3.14223e+07
2.93085e+07
2.88497e+07
2.69942e+07
2.72089e+07
2.54976e+07
2.61146e+07
2.44639e+07
2.53088e+07
2.36943e+07
2.46588e+07
2.30747e+07
2.40921e+07
2.25259e+07
2.35622e+07
2.19842e+07
2.30166e+07
3.3457e+07
3.0607e+07
2.93771e+07
2.78919e+07
2.6729e+07
2.62954e+07
2.5257e+07
2.5479e+07
2.44374e+07
2.50276e+07
2.39315e+07
2.47119e+07
2.35691e+07
2.44329e+07
2.32617e+07
2.41452e+07
2.29547e+07
2.38251e+07
2.2609e+07
2.34404e+07
2.85926e+07
2.58026e+07
2.55079e+07
2.41127e+07
2.38954e+07
2.3523e+07
2.32985e+07
2.35184e+07
2.31495e+07
2.36787e+07
2.31469e+07
2.38194e+07
2.31613e+07
2.38811e+07
2.31365e+07
2.38479e+07
2.30449e+07
2.37167e+07
2.28718e+07
2.34704e+07
2.3481e+07
2.08713e+07
2.14581e+07
2.0249e+07
2.09236e+07
2.06489e+07
2.11839e+07
2.13962e+07
2.16586e+07
2.21011e+07
2.21079e+07
2.26411e+07
2.24543e+07
2.30014e+07
2.26771e+07
2.31944e+07
2.27748e+07
2.32344e+07
2.27542e+07
2.31131e+07
1.83081e+07
1.60014e+07
1.73907e+07
1.64761e+07
1.79407e+07
1.78067e+07
1.89936e+07
1.92008e+07
2.00063e+07
2.03461e+07
2.08295e+07
2.11989e+07
2.14489e+07
2.17933e+07
2.18816e+07
2.21677e+07
2.21479e+07
2.23442e+07
2.22742e+07
2.23106e+07
1.32315e+07
1.13766e+07
1.34803e+07
1.29978e+07
1.50996e+07
1.51622e+07
1.68392e+07
1.70674e+07
1.82703e+07
1.85294e+07
1.93574e+07
1.95873e+07
2.0158e+07
2.03292e+07
2.07477e+07
2.08452e+07
2.12031e+07
2.12053e+07
2.15695e+07
2.1407e+07
8.3706e+06
7.24107e+06
9.9422e+06
1.00673e+07
1.25792e+07
1.28804e+07
1.48592e+07
1.5133e+07
1.65884e+07
1.68161e+07
1.78452e+07
1.80338e+07
1.87223e+07
1.88991e+07
1.9295e+07
1.95325e+07
1.96295e+07
2.00668e+07
1.9787e+07
2.05101e+07
3.81769e+06
4.32712e+06
7.11834e+06
8.03309e+06
1.0551e+07
1.10667e+07
1.31387e+07
1.33958e+07
1.50331e+07
1.51308e+07
1.64174e+07
1.64001e+07
1.74199e+07
1.73166e+07
1.81194e+07
1.79803e+07
1.85416e+07
1.84928e+07
1.86392e+07
1.9114e+07
888754
4.52519e+06
5.64454e+06
7.29724e+06
9.15102e+06
9.83273e+06
1.16696e+07
1.18937e+07
1.35028e+07
1.34811e+07
1.48409e+07
1.46669e+07
1.58037e+07
1.55376e+07
1.64644e+07
1.61804e+07
1.68505e+07
1.66993e+07
1.69268e+07
1.73908e+07
4.43471e+06
6.96765e+06
6.02223e+06
7.84339e+06
8.48347e+06
9.23885e+06
1.05006e+07
1.06868e+07
1.20561e+07
1.19363e+07
1.32268e+07
1.2927e+07
1.40847e+07
1.36838e+07
1.46815e+07
1.42713e+07
1.50325e+07
1.4796e+07
1.50868e+07
1.55192e+07
7.81276e+06
9.6575e+06
7.55971e+06
9.10789e+06
8.50343e+06
9.21658e+06
9.67652e+06
9.81666e+06
1.07591e+07
1.05596e+07
1.1649e+07
1.12483e+07
1.23344e+07
1.18268e+07
1.28283e+07
1.23195e+07
1.31232e+07
1.28114e+07
1.31451e+07
1.35269e+07
1.07097e+07
1.20621e+07
9.35886e+06
1.05498e+07
8.97872e+06
9.57044e+06
9.17707e+06
9.26983e+06
9.64336e+06
9.39219e+06
1.01509e+07
9.68253e+06
1.05963e+07
1.00135e+07
1.09416e+07
1.03614e+07
1.11499e+07
1.07795e+07
1.11251e+07
1.14434e+07
1.30921e+07
1.40538e+07
1.10029e+07
1.18654e+07
9.62912e+06
1.00719e+07
8.92513e+06
8.98115e+06
8.72151e+06
8.46269e+06
8.7717e+06
8.2888e+06
8.91297e+06
8.30561e+06
9.06203e+06
8.45317e+06
9.15271e+06
8.75235e+06
9.06868e+06
9.31648e+06
1.49456e+07
1.55905e+07
1.23298e+07
1.28993e+07
1.02455e+07
1.05448e+07
8.8309e+06
8.87838e+06
8.01172e+06
7.81141e+06
7.57683e+06
7.16717e+06
7.36155e+06
6.81977e+06
7.26588e+06
6.70789e+06
7.2059e+06
6.83067e+06
7.05142e+06
7.22561e+06
1.62602e+07
1.65344e+07
1.32868e+07
1.35658e+07
1.07298e+07
1.09263e+07
8.83485e+06
8.92873e+06
7.53744e+06
7.4757e+06
6.66088e+06
6.4348e+06
6.07503e+06
5.7274e+06
5.69709e+06
5.32394e+06
5.45212e+06
5.22614e+06
5.22276e+06
5.39239e+06
1.7023e+07
1.68925e+07
1.38078e+07
1.3868e+07
1.09935e+07
1.11456e+07
8.83463e+06
9.00684e+06
7.2402e+06
7.36285e+06
6.06281e+06
6.10149e+06
5.20419e+06
5.15315e+06
4.60655e+06
4.4903e+06
4.20513e+06
4.09982e+06
3.88395e+06
3.91337e+06
2.92664e+06
3.99348e+06
4.23586e+06
5.50543e+06
6.20226e+06
7.44149e+06
8.32746e+06
9.51552e+06
1.04661e+07
1.15792e+07
1.25557e+07
1.35605e+07
1.45607e+07
1.54218e+07
1.64519e+07
1.71351e+07
1.81921e+07
1.86793e+07
1.96689e+07
2.00032e+07
3.14268e+06
4.16334e+06
4.12602e+06
5.55001e+06
5.89199e+06
7.3281e+06
7.82954e+06
9.21751e+06
9.79211e+06
1.10954e+07
1.17155e+07
1.29006e+07
1.3564e+07
1.46029e+07
1.53129e+07
1.61769e+07
1.69303e+07
1.75752e+07
1.84005e+07
1.87933e+07
3.53347e+06
4.43114e+06
4.36537e+06
5.61256e+06
5.9066e+06
7.17335e+06
7.62676e+06
8.85958e+06
9.38419e+06
1.05531e+07
1.11145e+07
1.21943e+07
1.27807e+07
1.37505e+07
1.43585e+07
1.51938e+07
1.5826e+07
1.65055e+07
1.7182e+07
1.76487e+07
3.99201e+06
4.75021e+06
4.67018e+06
5.71977e+06
5.9885e+06
7.06301e+06
7.50389e+06
8.55365e+06
9.07441e+06
1.0075e+07
1.06327e+07
1.15647e+07
1.21402e+07
1.29859e+07
1.35725e+07
1.43187e+07
1.49127e+07
1.55495e+07
1.61371e+07
1.66203e+07
4.48673e+06
5.12246e+06
5.01791e+06
5.90108e+06
6.1202e+06
7.03748e+06
7.43812e+06
8.34037e+06
8.83258e+06
9.69682e+06
1.02315e+07
1.1042e+07
1.1593e+07
1.23375e+07
1.2892e+07
1.3563e+07
1.41107e+07
1.47009e+07
1.52243e+07
1.57066e+07
5.00221e+06
5.54252e+06
5.41407e+06
6.16072e+06
6.31988e+06
7.10661e+06
7.44776e+06
8.22906e+06
8.67199e+06
9.425e+06
9.91882e+06
1.06301e+07
1.1144e+07
1.18051e+07
1.23211e+07
1.29268e+07
1.34313e+07
1.39754e+07
1.4448e+07
1.49181e+07
5.52442e+06
5.99041e+06
5.84475e+06
6.47993e+06
6.58266e+06
7.25824e+06
7.53527e+06
8.21243e+06
8.59764e+06
9.25444e+06
9.69999e+06
1.03238e+07
1.07976e+07
1.13814e+07
1.1863e+07
1.24028e+07
1.28766e+07
1.33673e+07
1.3813e+07
1.42401e+07
6.03931e+06
6.44598e+06
6.29024e+06
6.83493e+06
6.89028e+06
7.47171e+06
7.68841e+06
8.275e+06
8.60181e+06
9.17346e+06
9.56874e+06
1.01133e+07
1.05463e+07
1.10568e+07
1.15059e+07
1.19783e+07
1.24257e+07
1.28572e+07
1.32795e+07
1.36784e+07
6.5363e+06
6.89491e+06
6.73443e+06
7.20596e+06
7.22338e+06
7.72626e+06
7.88941e+06
8.3983e+06
8.66925e+06
9.16636e+06
9.51075e+06
9.98451e+06
1.03746e+07
1.08183e+07
1.12327e+07
1.16433e+07
1.20636e+07
1.24423e+07
1.28464e+07
1.32024e+07
7.00814e+06
7.32713e+06
7.16541e+06
7.57769e+06
7.56523e+06
8.00325e+06
8.12011e+06
8.56344e+06
8.78256e+06
9.21569e+06
9.50988e+06
9.92204e+06
1.02674e+07
1.06521e+07
1.10288e+07
1.13834e+07
1.17745e+07
1.21016e+07
1.24862e+07
1.27981e+07
7.44875e+06
7.73427e+06
7.5736e+06
7.93743e+06
7.90164e+06
8.28624e+06
8.36374e+06
8.7523e+06
8.92449e+06
9.30337e+06
9.54958e+06
9.90885e+06
1.02095e+07
1.05429e+07
1.08812e+07
1.1186e+07
1.15473e+07
1.18241e+07
1.21903e+07
1.24496e+07
7.85179e+06
8.10828e+06
7.95019e+06
8.27387e+06
8.22003e+06
8.56051e+06
8.605e+06
8.94801e+06
9.07863e+06
9.41191e+06
9.6136e+06
9.92778e+06
1.01851e+07
1.04742e+07
1.07729e+07
1.10344e+07
1.13611e+07
1.15961e+07
1.19331e+07
1.21519e+07
8.21008e+06
8.44073e+06
8.28629e+06
8.57621e+06
8.50865e+06
8.81249e+06
8.82959e+06
9.13488e+06
9.22907e+06
9.52449e+06
9.68533e+06
9.96196e+06
1.0178e+07
1.04298e+07
1.06897e+07
1.09135e+07
1.12057e+07
1.14008e+07
1.17099e+07
1.18866e+07
8.51536e+06
8.72228e+06
8.57239e+06
8.83348e+06
8.75591e+06
9.0292e+06
9.02393e+06
9.29815e+06
9.36081e+06
9.62519e+06
9.74899e+06
9.9949e+06
1.01717e+07
1.03935e+07
1.06143e+07
1.08093e+07
1.10642e+07
1.12315e+07
1.15081e+07
1.16485e+07
8.75781e+06
8.94206e+06
8.79791e+06
9.03379e+06
8.94994e+06
9.19746e+06
9.17476e+06
9.42337e+06
9.45939e+06
9.69878e+06
9.78965e+06
1.00113e+07
1.0152e+07
1.03497e+07
1.05344e+07
1.07041e+07
1.09252e+07
1.10652e+07
1.13105e+07
1.14266e+07
8.92511e+06
9.08612e+06
8.95037e+06
9.16293e+06
9.0778e+06
9.30225e+06
9.26811e+06
9.49463e+06
9.5099e+06
9.72869e+06
9.79188e+06
9.99464e+06
1.01034e+07
1.02835e+07
1.0434e+07
1.05866e+07
1.07722e+07
1.0895e+07
1.11038e+07
1.12038e+07
9.00036e+06
9.13413e+06
9.01306e+06
9.20112e+06
9.12226e+06
9.32333e+06
9.28514e+06
9.49049e+06
9.4927e+06
9.69321e+06
9.73629e+06
9.9243e+06
1.00074e+07
1.01767e+07
1.02972e+07
1.04422e+07
1.05957e+07
1.07107e+07
1.08905e+07
1.09744e+07
8.96091e+06
9.06058e+06
8.96168e+06
9.12132e+06
9.05704e+06
9.23344e+06
9.199e+06
9.38392e+06
9.38223e+06
9.56716e+06
9.6002e+06
9.77826e+06
9.84591e+06
1.00111e+07
1.0111e+07
1.02584e+07
1.03861e+07
1.05104e+07
1.0662e+07
1.07503e+07
8.79165e+06
8.85947e+06
8.77968e+06
8.91163e+06
8.86674e+06
9.02319e+06
8.99961e+06
9.17204e+06
9.17284e+06
9.35271e+06
9.38178e+06
9.56289e+06
9.62078e+06
9.7967e+06
9.88322e+06
1.00455e+07
1.01598e+07
1.02989e+07
1.04347e+07
1.05444e+07
8.55422e+06
8.59059e+06
8.55724e+06
8.68215e+06
8.64508e+06
8.79324e+06
8.78123e+06
8.94054e+06
8.95782e+06
9.12666e+06
9.1704e+06
9.34701e+06
9.41416e+06
9.59501e+06
9.68321e+06
9.86261e+06
9.97206e+06
1.01374e+07
1.02746e+07
1.0386e+07
2.0754e+07
2.0389e+07
2.09062e+07
2.0523e+07
2.0994e+07
2.0628e+07
2.10541e+07
2.06968e+07
2.10917e+07
2.07271e+07
2.11041e+07
2.07214e+07
2.10892e+07
2.0685e+07
2.1047e+07
2.06237e+07
2.09797e+07
2.05437e+07
2.08913e+07
2.04514e+07
2.07874e+07
2.03538e+07
2.06755e+07
2.0259e+07
2.05646e+07
2.01764e+07
2.04652e+07
2.01165e+07
2.03896e+07
2.00918e+07
2.0352e+07
2.01169e+07
2.03711e+07
2.02129e+07
2.04744e+07
2.04101e+07
2.06862e+07
2.07207e+07
2.09498e+07
2.11177e+07
1.95185e+07
1.92218e+07
1.97038e+07
1.93936e+07
1.98697e+07
1.95313e+07
1.99962e+07
1.96379e+07
2.00806e+07
1.97141e+07
2.01291e+07
1.97634e+07
2.015e+07
1.97909e+07
2.01516e+07
1.98025e+07
2.01411e+07
1.98045e+07
2.01253e+07
1.98035e+07
2.01113e+07
1.98067e+07
2.01067e+07
1.98223e+07
2.01205e+07
1.98591e+07
2.01623e+07
1.9927e+07
2.02429e+07
2.00365e+07
2.03743e+07
2.01999e+07
2.05707e+07
2.04321e+07
2.08492e+07
2.07482e+07
2.12113e+07
2.11312e+07
2.15654e+07
2.15286e+07
1.81943e+07
1.80518e+07
1.83894e+07
1.82627e+07
1.85981e+07
1.84466e+07
1.87908e+07
1.86039e+07
1.89534e+07
1.87342e+07
1.90848e+07
1.88417e+07
1.91907e+07
1.89324e+07
1.92787e+07
1.90127e+07
1.93565e+07
1.90892e+07
1.94318e+07
1.9168e+07
1.95119e+07
1.92554e+07
1.96046e+07
1.9359e+07
1.97189e+07
1.94871e+07
1.98637e+07
1.9648e+07
2.00479e+07
1.985e+07
2.02807e+07
2.01014e+07
2.05716e+07
2.04109e+07
2.09296e+07
2.07815e+07
2.13427e+07
2.11809e+07
2.1715e+07
2.15522e+07
1.70507e+07
1.70008e+07
1.72475e+07
1.72297e+07
1.74718e+07
1.74413e+07
1.76958e+07
1.76351e+07
1.79044e+07
1.78111e+07
1.80915e+07
1.79695e+07
1.82608e+07
1.81148e+07
1.84178e+07
1.82527e+07
1.85685e+07
1.83881e+07
1.87179e+07
1.8525e+07
1.88725e+07
1.86778e+07
1.90413e+07
1.88466e+07
1.92304e+07
1.90378e+07
1.94475e+07
1.92587e+07
1.97006e+07
1.95153e+07
1.99957e+07
1.98121e+07
2.03394e+07
2.01543e+07
2.07369e+07
2.05388e+07
2.11703e+07
2.09251e+07
2.15411e+07
2.12555e+07
1.60683e+07
1.60776e+07
1.62754e+07
1.63243e+07
1.65158e+07
1.65651e+07
1.67641e+07
1.67639e+07
1.69947e+07
1.69693e+07
1.72163e+07
1.71617e+07
1.74264e+07
1.73477e+07
1.76296e+07
1.75344e+07
1.78332e+07
1.77295e+07
1.80439e+07
1.79056e+07
1.82362e+07
1.80896e+07
1.84489e+07
1.82922e+07
1.86816e+07
1.85166e+07
1.89402e+07
1.87722e+07
1.9227e+07
1.90527e+07
1.95481e+07
1.93623e+07
1.99093e+07
1.97078e+07
2.0312e+07
2.00798e+07
2.0733e+07
2.04332e+07
2.10783e+07
2.07123e+07
1.52304e+07
1.52743e+07
1.54481e+07
1.55072e+07
1.56938e+07
1.57423e+07
1.59901e+07
1.60291e+07
1.62197e+07
1.62519e+07
1.64533e+07
1.64608e+07
1.66906e+07
1.66541e+07
1.69327e+07
1.68239e+07
1.71831e+07
1.69619e+07
1.73983e+07
1.72557e+07
1.76122e+07
1.7491e+07
1.78431e+07
1.77173e+07
1.80925e+07
1.79465e+07
1.83802e+07
1.82207e+07
1.86789e+07
1.84988e+07
1.89905e+07
1.88015e+07
1.93382e+07
1.9129e+07
1.97187e+07
1.94682e+07
2.01029e+07
1.97723e+07
2.04064e+07
1.99927e+07
1.45348e+07
1.45761e+07
1.47521e+07
1.48411e+07
1.50469e+07
1.51297e+07
1.53022e+07
1.53724e+07
1.55552e+07
1.56073e+07
1.5806e+07
1.58367e+07
1.60526e+07
1.60648e+07
1.62881e+07
1.62553e+07
1.651e+07
1.64655e+07
1.67557e+07
1.66829e+07
1.6999e+07
1.69028e+07
1.72408e+07
1.71276e+07
1.74887e+07
1.73621e+07
1.77517e+07
1.76176e+07
1.80374e+07
1.78872e+07
1.83424e+07
1.8179e+07
1.86671e+07
1.84495e+07
1.90079e+07
1.87603e+07
1.93419e+07
1.89889e+07
1.9593e+07
1.91661e+07
1.395e+07
1.40403e+07
1.41764e+07
1.42938e+07
1.44375e+07
1.4544e+07
1.46982e+07
1.47846e+07
1.49537e+07
1.50095e+07
1.51982e+07
1.52122e+07
1.54306e+07
1.54479e+07
1.57144e+07
1.57063e+07
1.59297e+07
1.59115e+07
1.61544e+07
1.61163e+07
1.63871e+07
1.63238e+07
1.6625e+07
1.65346e+07
1.6869e+07
1.67487e+07
1.71167e+07
1.69616e+07
1.73666e+07
1.71726e+07
1.76179e+07
1.74486e+07
1.79572e+07
1.77273e+07
1.82225e+07
1.79868e+07
1.85382e+07
1.82016e+07
1.87323e+07
1.82973e+07
1.3472e+07
1.35539e+07
1.36972e+07
1.3798e+07
1.39414e+07
1.40362e+07
1.41926e+07
1.42806e+07
1.44369e+07
1.45088e+07
1.46762e+07
1.47253e+07
1.49144e+07
1.49398e+07
1.51538e+07
1.51506e+07
1.53795e+07
1.53522e+07
1.55987e+07
1.55524e+07
1.58181e+07
1.57524e+07
1.60382e+07
1.59524e+07
1.6258e+07
1.61529e+07
1.64773e+07
1.63549e+07
1.66991e+07
1.656e+07
1.69335e+07
1.67634e+07
1.71838e+07
1.69772e+07
1.74276e+07
1.71698e+07
1.76573e+07
1.73257e+07
1.78147e+07
1.74047e+07
1.30564e+07
1.31356e+07
1.32728e+07
1.33588e+07
1.3505e+07
1.35626e+07
1.37867e+07
1.38235e+07
1.40256e+07
1.40336e+07
1.42317e+07
1.4226e+07
1.44775e+07
1.44578e+07
1.46912e+07
1.46558e+07
1.48794e+07
1.4844e+07
1.50734e+07
1.50269e+07
1.5269e+07
1.5205e+07
1.5463e+07
1.53787e+07
1.56547e+07
1.55495e+07
1.58453e+07
1.57194e+07
1.60381e+07
1.58918e+07
1.62352e+07
1.60642e+07
1.6433e+07
1.62319e+07
1.66258e+07
1.63818e+07
1.6794e+07
1.64841e+07
1.69017e+07
1.6521e+07
1.27031e+07
1.27678e+07
1.29072e+07
1.29827e+07
1.31223e+07
1.31913e+07
1.33342e+07
1.34062e+07
1.35621e+07
1.3609e+07
1.37748e+07
1.37997e+07
1.39763e+07
1.39927e+07
1.41821e+07
1.41732e+07
1.43744e+07
1.43442e+07
1.45576e+07
1.45078e+07
1.47335e+07
1.46647e+07
1.49034e+07
1.48159e+07
1.50684e+07
1.49624e+07
1.52296e+07
1.51048e+07
1.5388e+07
1.52437e+07
1.5544e+07
1.53782e+07
1.5697e+07
1.55043e+07
1.58417e+07
1.56107e+07
1.59621e+07
1.56725e+07
1.60321e+07
1.56762e+07
1.23882e+07
1.24463e+07
1.25779e+07
1.26435e+07
1.27779e+07
1.28381e+07
1.29792e+07
1.3029e+07
1.31769e+07
1.3214e+07
1.33704e+07
1.33945e+07
1.35567e+07
1.35698e+07
1.37343e+07
1.37165e+07
1.39018e+07
1.38714e+07
1.40648e+07
1.4017e+07
1.42197e+07
1.41544e+07
1.43667e+07
1.4284e+07
1.45066e+07
1.44065e+07
1.46395e+07
1.45219e+07
1.47657e+07
1.463e+07
1.48852e+07
1.47302e+07
1.49973e+07
1.4819e+07
1.50974e+07
1.4886e+07
1.5172e+07
1.49112e+07
1.52047e+07
1.48865e+07
1.21092e+07
1.21597e+07
1.22859e+07
1.23465e+07
1.24697e+07
1.25127e+07
1.26461e+07
1.26784e+07
1.2822e+07
1.28348e+07
1.29911e+07
1.29791e+07
1.31517e+07
1.31402e+07
1.33358e+07
1.33082e+07
1.34737e+07
1.34404e+07
1.36094e+07
1.35615e+07
1.37401e+07
1.36762e+07
1.38639e+07
1.37846e+07
1.39795e+07
1.38851e+07
1.4086e+07
1.39766e+07
1.41829e+07
1.40583e+07
1.427e+07
1.41289e+07
1.43464e+07
1.41853e+07
1.44075e+07
1.42183e+07
1.44422e+07
1.42123e+07
1.44427e+07
1.41639e+07
1.18551e+07
1.18752e+07
1.20176e+07
1.20294e+07
1.21939e+07
1.22076e+07
1.23407e+07
1.23621e+07
1.24897e+07
1.25087e+07
1.26384e+07
1.26478e+07
1.27879e+07
1.27735e+07
1.29389e+07
1.28909e+07
1.30804e+07
1.30095e+07
1.31909e+07
1.31257e+07
1.32941e+07
1.32297e+07
1.33941e+07
1.33225e+07
1.3487e+07
1.34043e+07
1.35705e+07
1.34751e+07
1.36431e+07
1.35343e+07
1.37038e+07
1.35807e+07
1.37511e+07
1.3611e+07
1.37803e+07
1.36166e+07
1.37824e+07
1.35857e+07
1.37569e+07
1.35191e+07
1.16086e+07
1.1641e+07
1.17469e+07
1.1781e+07
1.18936e+07
1.19181e+07
1.20341e+07
1.20496e+07
1.21692e+07
1.21762e+07
1.23003e+07
1.22993e+07
1.24268e+07
1.24157e+07
1.25437e+07
1.25222e+07
1.26586e+07
1.26305e+07
1.27678e+07
1.27273e+07
1.28656e+07
1.28139e+07
1.29531e+07
1.28914e+07
1.30305e+07
1.29593e+07
1.30973e+07
1.30165e+07
1.31521e+07
1.30614e+07
1.31934e+07
1.30919e+07
1.32192e+07
1.31042e+07
1.32245e+07
1.30907e+07
1.32021e+07
1.30429e+07
1.31574e+07
1.29646e+07
1.13622e+07
1.13939e+07
1.14889e+07
1.15205e+07
1.16161e+07
1.1641e+07
1.17402e+07
1.17552e+07
1.18598e+07
1.18649e+07
1.19764e+07
1.19747e+07
1.20872e+07
1.20777e+07
1.21938e+07
1.21736e+07
1.22921e+07
1.22652e+07
1.23843e+07
1.2352e+07
1.2471e+07
1.24292e+07
1.25488e+07
1.24997e+07
1.26171e+07
1.25617e+07
1.26743e+07
1.26128e+07
1.27186e+07
1.26506e+07
1.27482e+07
1.26728e+07
1.27605e+07
1.26755e+07
1.27508e+07
1.26516e+07
1.2713e+07
1.25954e+07
1.26573e+07
1.25127e+07
1.11167e+07
1.11441e+07
1.12342e+07
1.12653e+07
1.13485e+07
1.1374e+07
1.14585e+07
1.14734e+07
1.15628e+07
1.15666e+07
1.16796e+07
1.16804e+07
1.17879e+07
1.17701e+07
1.18809e+07
1.18564e+07
1.19783e+07
1.19367e+07
1.20693e+07
1.20107e+07
1.21355e+07
1.20943e+07
1.22018e+07
1.21656e+07
1.22621e+07
1.22251e+07
1.23132e+07
1.22727e+07
1.23523e+07
1.23074e+07
1.23769e+07
1.23276e+07
1.23841e+07
1.23302e+07
1.23677e+07
1.23057e+07
1.2325e+07
1.2253e+07
1.22691e+07
1.21775e+07
1.088e+07
1.08981e+07
1.10165e+07
1.10198e+07
1.11268e+07
1.11273e+07
1.122e+07
1.123e+07
1.13148e+07
1.1323e+07
1.14064e+07
1.14148e+07
1.15034e+07
1.15035e+07
1.15942e+07
1.15884e+07
1.16784e+07
1.16691e+07
1.17663e+07
1.17528e+07
1.18454e+07
1.18271e+07
1.19152e+07
1.18937e+07
1.19758e+07
1.19525e+07
1.20264e+07
1.20016e+07
1.20657e+07
1.20387e+07
1.20922e+07
1.20607e+07
1.21072e+07
1.20733e+07
1.20956e+07
1.20602e+07
1.20565e+07
1.20236e+07
1.20111e+07
1.19742e+07
1.06553e+07
1.0714e+07
1.07875e+07
1.08477e+07
1.09133e+07
1.09367e+07
1.10364e+07
1.10343e+07
1.11375e+07
1.11341e+07
1.12287e+07
1.12328e+07
1.13245e+07
1.13246e+07
1.14198e+07
1.14148e+07
1.1509e+07
1.15019e+07
1.15928e+07
1.15792e+07
1.16701e+07
1.16499e+07
1.17401e+07
1.17144e+07
1.18017e+07
1.17721e+07
1.18536e+07
1.18221e+07
1.18939e+07
1.18632e+07
1.1921e+07
1.18933e+07
1.1932e+07
1.19147e+07
1.19318e+07
1.19215e+07
1.19161e+07
1.19032e+07
1.1877e+07
1.1883e+07
1.05115e+07
1.05343e+07
1.06741e+07
1.0694e+07
1.08139e+07
1.08055e+07
1.09176e+07
1.09245e+07
1.10384e+07
1.10659e+07
1.11572e+07
1.1165e+07
1.12554e+07
1.12638e+07
1.1367e+07
1.1389e+07
1.14761e+07
1.14698e+07
1.15639e+07
1.15514e+07
1.16439e+07
1.16274e+07
1.17145e+07
1.16947e+07
1.17745e+07
1.17522e+07
1.18233e+07
1.17994e+07
1.18602e+07
1.18362e+07
1.18849e+07
1.18624e+07
1.18964e+07
1.18783e+07
1.18944e+07
1.18848e+07
1.18792e+07
1.18847e+07
1.18637e+07
1.18798e+07
1.83434e+07
1.86277e+07
1.80464e+07
1.82485e+07
1.7739e+07
1.78661e+07
1.73905e+07
1.74673e+07
1.70112e+07
1.70617e+07
1.66149e+07
1.66546e+07
1.62082e+07
1.62447e+07
1.57924e+07
1.58278e+07
1.5366e+07
1.53994e+07
1.49259e+07
1.49552e+07
1.44686e+07
1.4491e+07
1.39902e+07
1.40028e+07
1.34872e+07
1.34867e+07
1.29561e+07
1.29391e+07
1.23938e+07
1.23572e+07
1.17973e+07
1.17402e+07
1.11651e+07
1.1093e+07
1.04997e+07
1.04316e+07
9.81916e+06
9.80585e+06
9.22159e+06
9.27713e+06
1.87252e+07
1.92963e+07
1.83225e+07
1.89822e+07
1.79455e+07
1.86151e+07
1.75563e+07
1.82122e+07
1.71583e+07
1.77945e+07
1.6756e+07
1.73715e+07
1.6349e+07
1.69445e+07
1.59348e+07
1.6511e+07
1.55102e+07
1.60674e+07
1.50716e+07
1.56101e+07
1.46157e+07
1.51349e+07
1.41385e+07
1.46377e+07
1.3636e+07
1.41141e+07
1.31039e+07
1.35594e+07
1.25383e+07
1.29694e+07
1.19358e+07
1.23416e+07
1.12966e+07
1.16781e+07
1.06274e+07
1.09927e+07
9.95323e+06
1.03464e+07
9.38938e+06
9.83215e+06
1.96506e+07
2.03741e+07
1.922e+07
2.00802e+07
1.88236e+07
1.97224e+07
1.84246e+07
1.93222e+07
1.80206e+07
1.89019e+07
1.76124e+07
1.8472e+07
1.71984e+07
1.80349e+07
1.6776e+07
1.75889e+07
1.6342e+07
1.71312e+07
1.58932e+07
1.66585e+07
1.54261e+07
1.61671e+07
1.49373e+07
1.56533e+07
1.44228e+07
1.51129e+07
1.38785e+07
1.45415e+07
1.33003e+07
1.39355e+07
1.2685e+07
1.32923e+07
1.20322e+07
1.26141e+07
1.13495e+07
1.19168e+07
1.06735e+07
1.12754e+07
1.01433e+07
1.08089e+07
2.08015e+07
2.1484e+07
2.03814e+07
2.12014e+07
1.99954e+07
2.08567e+07
1.96102e+07
2.04701e+07
1.92182e+07
2.00602e+07
1.88175e+07
1.96362e+07
1.84059e+07
1.92003e+07
1.79813e+07
1.87518e+07
1.75415e+07
1.82889e+07
1.70841e+07
1.78091e+07
1.66064e+07
1.73097e+07
1.6106e+07
1.67877e+07
1.558e+07
1.62401e+07
1.50256e+07
1.56638e+07
1.44408e+07
1.50566e+07
1.38249e+07
1.44183e+07
1.31805e+07
1.37545e+07
1.25211e+07
1.30894e+07
1.18943e+07
1.25093e+07
1.14292e+07
1.21357e+07
2.18004e+07
2.23817e+07
2.14287e+07
2.21217e+07
2.10792e+07
2.18058e+07
2.07275e+07
2.14504e+07
2.03646e+07
2.10691e+07
1.99873e+07
2.0669e+07
1.95938e+07
2.02522e+07
1.9183e+07
1.9819e+07
1.87535e+07
1.93687e+07
1.83043e+07
1.89001e+07
1.78339e+07
1.84118e+07
1.73407e+07
1.79023e+07
1.68234e+07
1.73701e+07
1.62808e+07
1.6814e+07
1.57125e+07
1.6234e+07
1.51197e+07
1.56322e+07
1.45077e+07
1.50174e+07
1.38942e+07
1.44199e+07
1.33309e+07
1.39279e+07
1.29316e+07
1.36565e+07
2.24923e+07
2.2949e+07
2.22023e+07
2.27283e+07
2.1915e+07
2.24597e+07
2.16178e+07
2.21541e+07
2.13029e+07
2.182e+07
2.09673e+07
2.14621e+07
2.06101e+07
2.10828e+07
2.02314e+07
2.06832e+07
1.98313e+07
2.02641e+07
1.94098e+07
1.98259e+07
1.89667e+07
1.93688e+07
1.8502e+07
1.8893e+07
1.80156e+07
1.83988e+07
1.7508e+07
1.78871e+07
1.69807e+07
1.73601e+07
1.64367e+07
1.68226e+07
1.58833e+07
1.62864e+07
1.53408e+07
1.57851e+07
1.48624e+07
1.54041e+07
1.45438e+07
1.5244e+07
2.28042e+07
2.31327e+07
2.26204e+07
2.29667e+07
2.24146e+07
2.27604e+07
2.2188e+07
2.25193e+07
2.19363e+07
2.22474e+07
2.16576e+07
2.19474e+07
2.13523e+07
2.16219e+07
2.10218e+07
2.1273e+07
2.06675e+07
2.09026e+07
2.02908e+07
2.05127e+07
1.9893e+07
2.0105e+07
1.94754e+07
1.96815e+07
1.90398e+07
1.92445e+07
1.85884e+07
1.87974e+07
1.81244e+07
1.83449e+07
1.76528e+07
1.78942e+07
1.71831e+07
1.74602e+07
1.67377e+07
1.70789e+07
1.63691e+07
1.68288e+07
1.61512e+07
1.67867e+07
2.27259e+07
2.29354e+07
2.26662e+07
2.28381e+07
2.25575e+07
2.27075e+07
2.24156e+07
2.25458e+07
2.22377e+07
2.23515e+07
2.20251e+07
2.21248e+07
2.17808e+07
2.1868e+07
2.15082e+07
2.15839e+07
2.12107e+07
2.12754e+07
2.0891e+07
2.09459e+07
2.05518e+07
2.05991e+07
2.01961e+07
2.02391e+07
1.98268e+07
1.9871e+07
1.94481e+07
1.95005e+07
1.9065e+07
1.91354e+07
1.86846e+07
1.87858e+07
1.83185e+07
1.84693e+07
1.79911e+07
1.82235e+07
1.77527e+07
1.81169e+07
1.76509e+07
1.81961e+07
2.23055e+07
2.2326e+07
2.23802e+07
2.23692e+07
2.23792e+07
2.23952e+07
2.2322e+07
2.23746e+07
2.22208e+07
2.22972e+07
2.20822e+07
2.21639e+07
2.19103e+07
2.19813e+07
2.17085e+07
2.17576e+07
2.14801e+07
2.15015e+07
2.12285e+07
2.12209e+07
2.09574e+07
2.09239e+07
2.06711e+07
2.06179e+07
2.03748e+07
2.03109e+07
2.00748e+07
2.00118e+07
1.97789e+07
1.97308e+07
1.94968e+07
1.9481e+07
1.92428e+07
1.92826e+07
1.90442e+07
1.91736e+07
1.89467e+07
1.92084e+07
1.89682e+07
1.93994e+07
2.16691e+07
2.1683e+07
2.17783e+07
2.17378e+07
2.18669e+07
2.17418e+07
2.19211e+07
2.17304e+07
2.1935e+07
2.16998e+07
2.19044e+07
2.16409e+07
2.18282e+07
2.15482e+07
2.17089e+07
2.1421e+07
2.15515e+07
2.1262e+07
2.13631e+07
2.10768e+07
2.11515e+07
2.08726e+07
2.09252e+07
2.06578e+07
2.06935e+07
2.04424e+07
2.04661e+07
2.02378e+07
2.0254e+07
2.00576e+07
2.00695e+07
1.99183e+07
1.99294e+07
1.98443e+07
1.98624e+07
1.98757e+07
1.99073e+07
2.00559e+07
2.0046e+07
2.03667e+07
)
;

boundaryField
{
    back
    {
        type            empty;
    }
    front
    {
        type            empty;
    }
    left
    {
        type            symmetry;
    }
    hole
    {
        type            calculated;
        value           nonuniform List<scalar> 
20
(
4.76554e+07
4.71508e+07
4.51104e+07
4.21719e+07
3.83899e+07
3.39308e+07
2.90087e+07
2.38309e+07
1.85869e+07
1.34355e+07
8.49186e+06
3.82986e+06
531259
4.4314e+06
7.89189e+06
1.08504e+07
1.32861e+07
1.51899e+07
1.65343e+07
1.72059e+07
)
;
    }
    down
    {
        type            symmetry;
    }
    right
    {
        type            calculated;
        value           nonuniform List<scalar> 
30
(
8.58268e+06
8.65618e+06
8.76009e+06
8.90654e+06
9.09364e+06
9.31498e+06
9.56378e+06
9.8321e+06
1.01114e+07
1.03981e+07
1.05599e+07
1.06686e+07
1.07958e+07
1.09232e+07
1.10361e+07
1.11538e+07
1.12636e+07
1.1355e+07
1.14487e+07
1.15342e+07
1.16099e+07
1.16758e+07
1.17319e+07
1.17782e+07
1.18147e+07
1.1842e+07
1.18614e+07
1.18753e+07
1.18836e+07
1.18828e+07
)
;
    }
    up
    {
        type            calculated;
        value           nonuniform List<scalar> 
30
(
2.12124e+07
2.16143e+07
2.16359e+07
2.13347e+07
2.0782e+07
2.00517e+07
1.92096e+07
1.83373e+07
1.74265e+07
1.65361e+07
1.56833e+07
1.48859e+07
1.41573e+07
1.35079e+07
1.29499e+07
1.24963e+07
1.21606e+07
1.19617e+07
1.18741e+07
1.18795e+07
9.23842e+06
9.67522e+06
1.06837e+07
1.20421e+07
1.35906e+07
1.52068e+07
1.6777e+07
1.82094e+07
1.94312e+07
2.03948e+07
)
;
    }
}


// ************************************************************************* //
