/*--------------------------------*- C++ -*----------------------------------*\
| =========                 |                                                 |
| \\      /  F ield         | OpenFOAM: The Open Source CFD Toolbox           |
|  \\    /   O peration     | Version:  v2012                                 |
|   \\  /    A nd           | Website:  www.openfoam.com                      |
|    \\/     M anipulation  |                                                 |
\*---------------------------------------------------------------------------*/
FoamFile
{
    version     2.0;
    format      ascii;
    class       pointVectorField;
    location    "10";
    object      pointD;
}
// * * * * * * * * * * * * * * * * * * * * * * * * * * * * * * * * * * * * * //

dimensions      [0 1 0 0 0 0 0];


internalField   nonuniform List<vector> 
572
(
(0.00411749 0 8.45352e-22)
(0.00548676 0 5.12283e-21)
(0.00502032 -0.00042714 0)
(0 -0.00315557 -1.52578e-21)
(0 -0.00177744 1.27157e-21)
(0.00421472 0 0)
(0 -0.00294804 0)
(0.00266756 -0.000838897 0)
(0.00124772 -0.00154912 2.27153e-21)
(0.00532264 -9.33728e-05 -1.17245e-20)
(0.00317195 -0.00131881 6.20021e-21)
(0.00317195 -0.00131881 6.20021e-21)
(0.00266756 -0.000838897 0)
(0 -0.00294804 0)
(0 -0.00177744 1.27157e-21)
(0.00411749 0 8.45352e-22)
(0.00421472 0 0)
(0.00548676 0 5.12283e-21)
(0.00532264 -9.33728e-05 -1.17245e-20)
(0.00502032 -0.00042714 0)
(0.00124772 -0.00154912 2.27153e-21)
(0 -0.00315557 -1.52578e-21)
(0.000524519 -0.00272432 0)
(0.00105041 -0.00223165 0)
(0.00158181 -0.00173508 0)
(0.00211444 -0.00127904 0)
(0.00319026 -0.000504979 0)
(0.00361225 -0.000281694 0)
(0.00393853 -0.000139579 0)
(0.00414566 -5.44647e-05 0)
(0.00414937 0 0)
(0.00417362 0 0)
(0.00418864 0 0)
(0.00419966 0 0)
(0.00425283 0 0)
(0.00431936 0 0)
(0.00441018 0 0)
(0.0045225 0 0)
(0.00465885 0 0)
(0.00481036 0 0)
(0.0049803 0 0)
(0.0051588 0 0)
(0.00534563 0 0)
(0.00552027 -3.38816e-06 1.27219e-20)
(0.00549056 -1.16528e-05 1.04496e-20)
(0.00544306 -2.7948e-05 6.79465e-21)
(0.00538357 -5.6645e-05 2.43568e-21)
(0.00528555 -0.000121339 -2.43775e-21)
(0.00525502 -0.00014739 1.02048e-20)
(0.00522464 -0.00017689 3.16093e-21)
(0.00519614 -0.000208894 -4.93117e-22)
(0.00516887 -0.000243023 5.94243e-21)
(0.00514411 -0.000278794 8.69237e-21)
(0.00512097 -0.000315476 -3.79281e-21)
(0.00509995 -0.000353625 -9.55012e-21)
(0.00508133 -0.000391505 -3.00737e-21)
(0.00481042 -0.000480852 1.32638e-21)
(0.00455049 -0.000523028 3.85241e-21)
(0.00427216 -0.000551564 8.32955e-22)
(0.00396531 -0.000572843 -3.22565e-21)
(0.003618 -0.000602853 -3.65436e-21)
(0.00322926 -0.00065644 -4.30446e-21)
(0.0027865 -0.000755934 -3.92373e-21)
(0.00230176 -0.000925888 -4.32688e-21)
(0.00177154 -0.00118951 -2.30692e-22)
(0.000856675 -0.00191441 2.7832e-21)
(0.000526336 -0.00230617 3.08812e-21)
(0.000255243 -0.00269112 -9.47801e-22)
(7.67406e-05 -0.00302268 -3.23032e-21)
(0 -0.00314792 0)
(0 -0.00313273 0)
(0 -0.00311523 0)
(0 -0.00309569 0)
(0 -0.0030754 0)
(0 -0.0030538 0)
(0 -0.0030318 0)
(0 -0.00300827 0)
(0 -0.0029837 0)
(0 -0.00288327 0)
(0 -0.00274436 0)
(0 -0.00252244 0)
(0 -0.00215252 0)
(0.00304221 -0.000504272 0)
(0.00333811 -0.000315403 0)
(0.00361408 -0.000223439 0)
(0.00386957 -0.000183798 0)
(0.00411835 -0.000179936 0)
(0.00436241 -0.000185685 0)
(0.00460593 -0.000193803 0)
(0.00484793 -0.000187178 0)
(0.00508854 -0.000161051 0)
(0.00244365 -0.00093902 0)
(0.00229588 -0.00100618 0)
(0.00215204 -0.00107678 0)
(0.00201617 -0.00114483 0)
(0.00188422 -0.0012144 0)
(0.00175695 -0.00128145 0)
(0.0016314 -0.00134896 0)
(0.00150613 -0.00141475 0)
(0.00137845 -0.00148207 0)
(0.00110337 -0.00179407 9.03955e-21)
(0.00186455 -0.00196162 -2.94033e-21)
(0.00235342 -0.0018584 -4.84628e-22)
(0.00278764 -0.00160016 1.04232e-20)
(0.0034912 -0.00104852 9.59115e-21)
(0.00376082 -0.000775888 1.26716e-22)
(0.00394809 -0.000511178 -1.24427e-20)
(0.00406582 -0.000254129 -7.98866e-21)
(0.00299334 -0.00116415 0)
(0.00286404 -0.00105586 0)
(0.00276787 -0.000974892 0)
(0.00269712 -0.000916005 0)
(0.00299334 -0.00116415 0)
(0.00286404 -0.00105586 0)
(0.00276787 -0.000974892 0)
(0.00269712 -0.000916005 0)
(0.00211444 -0.00127904 0)
(0.00158181 -0.00173508 0)
(0.00105041 -0.00223165 0)
(0.000524519 -0.00272432 0)
(0 -0.00288327 0)
(0 -0.00274436 0)
(0 -0.00252244 0)
(0 -0.00215252 0)
(0.00110337 -0.00179407 9.03955e-21)
(0.00186455 -0.00196162 -2.94033e-21)
(0.00235342 -0.0018584 -4.84628e-22)
(0.00278764 -0.00160016 1.04232e-20)
(0.0034912 -0.00104852 9.59115e-21)
(0.00376082 -0.000775888 1.26716e-22)
(0.00394809 -0.000511178 -1.24427e-20)
(0.00406582 -0.000254129 -7.98866e-21)
(0.00414937 0 0)
(0.00417362 0 0)
(0.00418864 0 0)
(0.00419966 0 0)
(0.00414566 -5.44647e-05 0)
(0.00393853 -0.000139579 0)
(0.00361225 -0.000281694 0)
(0.00319026 -0.000504979 0)
(0.00425283 0 0)
(0.00431936 0 0)
(0.00441018 0 0)
(0.0045225 0 0)
(0.00465885 0 0)
(0.00481036 0 0)
(0.0049803 0 0)
(0.0051588 0 0)
(0.00534563 0 0)
(0.00552027 -3.38816e-06 1.27219e-20)
(0.00549056 -1.16528e-05 1.04496e-20)
(0.00544306 -2.7948e-05 6.79465e-21)
(0.00538357 -5.6645e-05 2.43568e-21)
(0.00508854 -0.000161051 0)
(0.00484793 -0.000187178 0)
(0.00460593 -0.000193803 0)
(0.00436241 -0.000185685 0)
(0.00411835 -0.000179936 0)
(0.00386957 -0.000183798 0)
(0.00361408 -0.000223439 0)
(0.00333811 -0.000315403 0)
(0.00304221 -0.000504272 0)
(0.00528555 -0.000121339 -2.43775e-21)
(0.00525502 -0.00014739 1.02048e-20)
(0.00522464 -0.00017689 3.16093e-21)
(0.00519614 -0.000208894 -4.93117e-22)
(0.00516887 -0.000243023 5.94243e-21)
(0.00514411 -0.000278794 8.69237e-21)
(0.00512097 -0.000315476 -3.79281e-21)
(0.00509995 -0.000353625 -9.55012e-21)
(0.00508133 -0.000391505 -3.00737e-21)
(0.00481042 -0.000480852 1.32638e-21)
(0.00455049 -0.000523028 3.85241e-21)
(0.00427216 -0.000551564 8.32955e-22)
(0.00396531 -0.000572843 -3.22565e-21)
(0.003618 -0.000602853 -3.65436e-21)
(0.00322926 -0.00065644 -4.30446e-21)
(0.0027865 -0.000755934 -3.92373e-21)
(0.00230176 -0.000925888 -4.32688e-21)
(0.00177154 -0.00118951 -2.30692e-22)
(0.00137845 -0.00148207 0)
(0.00150613 -0.00141475 0)
(0.0016314 -0.00134896 0)
(0.00175695 -0.00128145 0)
(0.00188422 -0.0012144 0)
(0.00201617 -0.00114483 0)
(0.00215204 -0.00107678 0)
(0.00229588 -0.00100618 0)
(0.00244365 -0.00093902 0)
(0.000856675 -0.00191441 2.7832e-21)
(0.000526336 -0.00230617 3.08812e-21)
(0.000255243 -0.00269112 -9.47801e-22)
(7.67406e-05 -0.00302268 -3.23032e-21)
(0 -0.00314792 0)
(0 -0.00313273 0)
(0 -0.00311523 0)
(0 -0.00309569 0)
(0 -0.0030754 0)
(0 -0.0030538 0)
(0 -0.0030318 0)
(0 -0.00300827 0)
(0 -0.0029837 0)
(0.00100138 -0.00218146 0)
(0.000867225 -0.00243748 0)
(0.000730003 -0.00258362 0)
(0.00061354 -0.00267799 0)
(0.00167351 -0.00209542 0)
(0.00147815 -0.00215853 0)
(0.00130242 -0.00218793 0)
(0.00115997 -0.00221293 0)
(0.00212647 -0.00182135 0)
(0.00194167 -0.00178278 0)
(0.00179146 -0.00175525 0)
(0.00167631 -0.0017391 0)
(0.00256713 -0.0014881 0)
(0.00240715 -0.00140732 0)
(0.00228359 -0.00134815 0)
(0.00219221 -0.0013042 0)
(0.00337125 -0.000875486 0)
(0.00328188 -0.000755434 0)
(0.00321705 -0.000667099 0)
(0.00316716 -0.000601642 0)
(0.0037016 -0.000613288 0)
(0.00365362 -0.000499881 0)
(0.00361872 -0.000417809 0)
(0.00359067 -0.000354398 0)
(0.00394444 -0.000386745 0)
(0.00393445 -0.000299382 0)
(0.00392627 -0.000236753 0)
(0.00391874 -0.000187785 0)
(0.00409823 -0.000186484 0)
(0.00411322 -0.000138686 0)
(0.00412205 -0.000104765 0)
(0.0041281 -7.8074e-05 0)
(0.004196 -3.2571e-05 0)
(0.00402681 -8.35948e-05 0)
(0.00375887 -0.000175117 0)
(0.00341125 -0.000314539 0)
(0.00427426 -2.03738e-05 0)
(0.00413793 -5.24422e-05 0)
(0.00391887 -0.000112838 0)
(0.00363571 -0.000201879 0)
(0.00437351 -1.78185e-05 0)
(0.00426468 -4.2216e-05 0)
(0.00408803 -8.49899e-05 0)
(0.00385811 -0.000146698 0)
(0.00449222 -2.08336e-05 0)
(0.00440211 -4.59489e-05 0)
(0.00425593 -8.18866e-05 0)
(0.00406757 -0.000130273 0)
(0.00463351 -2.47333e-05 0)
(0.00455913 -5.29041e-05 0)
(0.00443811 -8.83548e-05 0)
(0.00428161 -0.000133288 0)
(0.00478919 -2.87052e-05 0)
(0.00472678 -6.03e-05 0)
(0.00462593 -9.70106e-05 0)
(0.00449646 -0.000141503 0)
(0.00496234 -3.07632e-05 0)
(0.00490979 -6.44673e-05 0)
(0.00482513 -0.000102927 0)
(0.00471668 -0.000148579 0)
(0.00514366 -2.84902e-05 0)
(0.00509957 -6.01725e-05 0)
(0.0050289 -9.71314e-05 0)
(0.00493883 -0.000141831 0)
(0.0053328 -2.12599e-05 0)
(0.00529614 -4.63342e-05 0)
(0.00523739 -7.75979e-05 0)
(0.00516294 -0.000118112 0)
(0.00283858 -0.000602362 0)
(0.00270135 -0.000664025 0)
(0.00256944 -0.000727993 0)
(0.00244286 -0.000791422 0)
(0.00232116 -0.000856053 0)
(0.00220405 -0.000920117 0)
(0.00209091 -0.000985399 0)
(0.00198141 -0.00105088 0)
(0.00187491 -0.00111904 0)
(0.00317671 -0.000391488 0)
(0.00306092 -0.000444191 0)
(0.00294891 -0.000499386 0)
(0.00284056 -0.000555243 0)
(0.00273674 -0.000613136 0)
(0.00263784 -0.000671592 0)
(0.00254419 -0.000732241 0)
(0.00245656 -0.00079396 0)
(0.00237527 -0.000858775 0)
(0.00347835 -0.000280874 0)
(0.00338237 -0.000324653 0)
(0.00328897 -0.00037148 0)
(0.00319929 -0.000419731 0)
(0.00311393 -0.00047075 0)
(0.00303398 -0.000523056 0)
(0.00296009 -0.000578107 0)
(0.00289351 -0.000634651 0)
(0.00283508 -0.000694279 0)
(0.0037614 -0.000230815 0)
(0.00368452 -0.000268591 0)
(0.00360922 -0.000309449 0)
(0.00353723 -0.000352254 0)
(0.00346908 -0.000397853 0)
(0.00340622 -0.000445171 0)
(0.00334945 -0.000495102 0)
(0.00330022 -0.000546653 0)
(0.00325959 -0.000600751 0)
(0.00403015 -0.000219661 0)
(0.00396801 -0.000253506 0)
(0.00390703 -0.000290064 0)
(0.00384919 -0.000328683 0)
(0.0037948 -0.000369805 0)
(0.00374543 -0.00041273 0)
(0.00370175 -0.000457904 0)
(0.00366523 -0.000504573 0)
(0.0036368 -0.000553167 0)
(0.00429117 -0.000222565 0)
(0.00424087 -0.000253905 0)
(0.00419145 -0.000287646 0)
(0.00414481 -0.000323308 0)
(0.00410108 -0.000361124 0)
(0.00406179 -0.00040061 0)
(0.00402738 -0.000441895 0)
(0.00399928 -0.000484452 0)
(0.00397814 -0.000528326 0)
(0.00454629 -0.000228618 0)
(0.00450405 -0.000258141 0)
(0.00446267 -0.000289702 0)
(0.00442357 -0.000322961 0)
(0.00438699 -0.000358048 0)
(0.00435407 -0.000394599 0)
(0.00432526 -0.000432582 0)
(0.00430171 -0.000471573 0)
(0.00428365 -0.000511426 0)
(0.00479727 -0.000220588 0)
(0.00476023 -0.000248271 0)
(0.00472437 -0.000278055 0)
(0.00469055 -0.000309492 0)
(0.00465872 -0.000342491 0)
(0.00462979 -0.000376857 0)
(0.0046037 -0.00041252 0)
(0.00458186 -0.000448928 0)
(0.00456404 -0.000485906 0)
(0.00504406 -0.000192481 0)
(0.00501045 -0.000218655 0)
(0.00497769 -0.000247009 0)
(0.00494702 -0.000277019 0)
(0.00491785 -0.000308545 0)
(0.00489135 -0.000341394 0)
(0.00486669 -0.00037546 0)
(0.00484517 -0.000410246 0)
(0.00482668 -0.000445476 0)
(0.000461398 -0.0027694 0)
(0.000411867 -0.00280601 0)
(0.000369314 -0.0028408 0)
(0.000330041 -0.00287275 0)
(0.000292977 -0.00290351 0)
(0.000256268 -0.00293219 0)
(0.000218219 -0.0029595 0)
(0.00017676 -0.0029842 0)
(0.000130092 -0.0030066 0)
(0.000955426 -0.00229002 0)
(0.000871292 -0.00234733 0)
(0.000793437 -0.00240174 0)
(0.000718986 -0.00245167 0)
(0.000647717 -0.00249945 0)
(0.000577638 -0.00254405 0)
(0.000505894 -0.00258665 0)
(0.000429745 -0.00262586 0)
(0.00034606 -0.00266308 0)
(0.00146897 -0.00179366 0)
(0.00135687 -0.00186075 0)
(0.00124984 -0.00192602 0)
(0.00114741 -0.00198818 0)
(0.00104843 -0.0020487 0)
(0.000951773 -0.00210601 0)
(0.000853708 -0.00216162 0)
(0.000751807 -0.00221379 0)
(0.000642061 -0.0022648 0)
(0.00198311 -0.0013342 0)
(0.00184821 -0.00140217 0)
(0.00171767 -0.00147117 0)
(0.00159372 -0.00153871 0)
(0.00147285 -0.00160649 0)
(0.00135535 -0.00167155 0)
(0.00123713 -0.00173611 0)
(0.00111615 -0.00179789 0)
(0.000988389 -0.00185992 0)
(0.00100138 -0.00218146 0)
(0.000867225 -0.00243748 0)
(0.000730003 -0.00258362 0)
(0.00061354 -0.00267799 0)
(0.00167351 -0.00209542 0)
(0.00147815 -0.00215853 0)
(0.00130242 -0.00218793 0)
(0.00115997 -0.00221293 0)
(0.00212647 -0.00182135 0)
(0.00194167 -0.00178278 0)
(0.00179146 -0.00175525 0)
(0.00167631 -0.0017391 0)
(0.00256713 -0.0014881 0)
(0.00240715 -0.00140732 0)
(0.00228359 -0.00134815 0)
(0.00219221 -0.0013042 0)
(0.00337125 -0.000875486 0)
(0.00328188 -0.000755434 0)
(0.00321705 -0.000667099 0)
(0.00316716 -0.000601642 0)
(0.0037016 -0.000613288 0)
(0.00365362 -0.000499881 0)
(0.00361872 -0.000417809 0)
(0.00359067 -0.000354398 0)
(0.00394444 -0.000386745 0)
(0.00393445 -0.000299382 0)
(0.00392627 -0.000236753 0)
(0.00391874 -0.000187785 0)
(0.00409823 -0.000186484 0)
(0.00411322 -0.000138686 0)
(0.00412205 -0.000104765 0)
(0.0041281 -7.8074e-05 0)
(0.004196 -3.2571e-05 0)
(0.00402681 -8.35948e-05 0)
(0.00375887 -0.000175117 0)
(0.00341125 -0.000314539 0)
(0.00427426 -2.03738e-05 0)
(0.00413793 -5.24422e-05 0)
(0.00391887 -0.000112838 0)
(0.00363571 -0.000201879 0)
(0.00437351 -1.78185e-05 0)
(0.00426468 -4.2216e-05 0)
(0.00408803 -8.49899e-05 0)
(0.00385811 -0.000146698 0)
(0.00449222 -2.08336e-05 0)
(0.00440211 -4.59489e-05 0)
(0.00425593 -8.18866e-05 0)
(0.00406757 -0.000130273 0)
(0.00463351 -2.47333e-05 0)
(0.00455913 -5.29041e-05 0)
(0.00443811 -8.83548e-05 0)
(0.00428161 -0.000133288 0)
(0.00478919 -2.87052e-05 0)
(0.00472678 -6.03e-05 0)
(0.00462593 -9.70106e-05 0)
(0.00449646 -0.000141503 0)
(0.00496234 -3.07632e-05 0)
(0.00490979 -6.44673e-05 0)
(0.00482513 -0.000102927 0)
(0.00471668 -0.000148579 0)
(0.00514366 -2.84902e-05 0)
(0.00509957 -6.01725e-05 0)
(0.0050289 -9.71314e-05 0)
(0.00493883 -0.000141831 0)
(0.0053328 -2.12599e-05 0)
(0.00529614 -4.63342e-05 0)
(0.00523739 -7.75979e-05 0)
(0.00516294 -0.000118112 0)
(0.00283858 -0.000602362 0)
(0.00270135 -0.000664025 0)
(0.00256944 -0.000727993 0)
(0.00244286 -0.000791422 0)
(0.00232116 -0.000856053 0)
(0.00220405 -0.000920117 0)
(0.00209091 -0.000985399 0)
(0.00198141 -0.00105088 0)
(0.00187491 -0.00111904 0)
(0.00317671 -0.000391488 0)
(0.00306092 -0.000444191 0)
(0.00294891 -0.000499386 0)
(0.00284056 -0.000555243 0)
(0.00273674 -0.000613136 0)
(0.00263784 -0.000671592 0)
(0.00254419 -0.000732241 0)
(0.00245656 -0.00079396 0)
(0.00237527 -0.000858775 0)
(0.00347835 -0.000280874 0)
(0.00338237 -0.000324653 0)
(0.00328897 -0.00037148 0)
(0.00319929 -0.000419731 0)
(0.00311393 -0.00047075 0)
(0.00303398 -0.000523056 0)
(0.00296009 -0.000578107 0)
(0.00289351 -0.000634651 0)
(0.00283508 -0.000694279 0)
(0.0037614 -0.000230815 0)
(0.00368452 -0.000268591 0)
(0.00360922 -0.000309449 0)
(0.00353723 -0.000352254 0)
(0.00346908 -0.000397853 0)
(0.00340622 -0.000445171 0)
(0.00334945 -0.000495102 0)
(0.00330022 -0.000546653 0)
(0.00325959 -0.000600751 0)
(0.00403015 -0.000219661 0)
(0.00396801 -0.000253506 0)
(0.00390703 -0.000290064 0)
(0.00384919 -0.000328683 0)
(0.0037948 -0.000369805 0)
(0.00374543 -0.00041273 0)
(0.00370175 -0.000457904 0)
(0.00366523 -0.000504573 0)
(0.0036368 -0.000553167 0)
(0.00429117 -0.000222565 0)
(0.00424087 -0.000253905 0)
(0.00419145 -0.000287646 0)
(0.00414481 -0.000323308 0)
(0.00410108 -0.000361124 0)
(0.00406179 -0.00040061 0)
(0.00402738 -0.000441895 0)
(0.00399928 -0.000484452 0)
(0.00397814 -0.000528326 0)
(0.00454629 -0.000228618 0)
(0.00450405 -0.000258141 0)
(0.00446267 -0.000289702 0)
(0.00442357 -0.000322961 0)
(0.00438699 -0.000358048 0)
(0.00435407 -0.000394599 0)
(0.00432526 -0.000432582 0)
(0.00430171 -0.000471573 0)
(0.00428365 -0.000511426 0)
(0.00479727 -0.000220588 0)
(0.00476023 -0.000248271 0)
(0.00472437 -0.000278055 0)
(0.00469055 -0.000309492 0)
(0.00465872 -0.000342491 0)
(0.00462979 -0.000376857 0)
(0.0046037 -0.00041252 0)
(0.00458186 -0.000448928 0)
(0.00456404 -0.000485906 0)
(0.00504406 -0.000192481 0)
(0.00501045 -0.000218655 0)
(0.00497769 -0.000247009 0)
(0.00494702 -0.000277019 0)
(0.00491785 -0.000308545 0)
(0.00489135 -0.000341394 0)
(0.00486669 -0.00037546 0)
(0.00484517 -0.000410246 0)
(0.00482668 -0.000445476 0)
(0.000461398 -0.0027694 0)
(0.000411867 -0.00280601 0)
(0.000369314 -0.0028408 0)
(0.000330041 -0.00287275 0)
(0.000292977 -0.00290351 0)
(0.000256268 -0.00293219 0)
(0.000218219 -0.0029595 0)
(0.00017676 -0.0029842 0)
(0.000130092 -0.0030066 0)
(0.000955426 -0.00229002 0)
(0.000871292 -0.00234733 0)
(0.000793437 -0.00240174 0)
(0.000718986 -0.00245167 0)
(0.000647717 -0.00249945 0)
(0.000577638 -0.00254405 0)
(0.000505894 -0.00258665 0)
(0.000429745 -0.00262586 0)
(0.00034606 -0.00266308 0)
(0.00146897 -0.00179366 0)
(0.00135687 -0.00186075 0)
(0.00124984 -0.00192602 0)
(0.00114741 -0.00198818 0)
(0.00104843 -0.0020487 0)
(0.000951773 -0.00210601 0)
(0.000853708 -0.00216162 0)
(0.000751807 -0.00221379 0)
(0.000642061 -0.0022648 0)
(0.00198311 -0.0013342 0)
(0.00184821 -0.00140217 0)
(0.00171767 -0.00147117 0)
(0.00159372 -0.00153871 0)
(0.00147285 -0.00160649 0)
(0.00135535 -0.00167155 0)
(0.00123713 -0.00173611 0)
(0.00111615 -0.00179789 0)
(0.000988389 -0.00185992 0)
)
;

boundaryField
{
    back
    {
        type            empty;
    }
    left
    {
        type            symmetry;
    }
    hole
    {
        type            calculated;
    }
    front
    {
        type            empty;
    }
    down
    {
        type            symmetry;
    }
    right
    {
        type            calculated;
    }
    up
    {
        type            calculated;
    }
}


// ************************************************************************* //
