/*--------------------------------*- C++ -*----------------------------------*\
| =========                 |                                                 |
| \\      /  F ield         | OpenFOAM: The Open Source CFD Toolbox           |
|  \\    /   O peration     | Version:  v2012                                 |
|   \\  /    A nd           | Website:  www.openfoam.com                      |
|    \\/     M anipulation  |                                                 |
\*---------------------------------------------------------------------------*/
FoamFile
{
    version     2.0;
    format      ascii;
    class       volVectorField;
    location    "14";
    object      D;
}
// * * * * * * * * * * * * * * * * * * * * * * * * * * * * * * * * * * * * * //

dimensions      [0 1 0 0 0 0 0];


internalField   nonuniform List<vector> 
7666
(
(0.00274462 -6.04449e-06 0)
(0.00280811 -3.88741e-05 0)
(0.0012596 -0.00137976 0)
(0.00261594 -7.92336e-05 0)
(0.0018449 -0.000350339 0)
(0.0013833 -0.000602798 0)
(0.00328795 -7.82661e-05 0)
(0.00265532 -0.000100268 0)
(0.000977671 -0.00084291 0)
(0.00325914 -6.44461e-05 0)
(0.00268808 -2.83563e-05 0)
(0.00294809 -0.000188381 0)
(0.00266039 -9.05252e-05 0)
(0.00283217 -6.66968e-05 0)
(0.00334291 -4.98875e-05 0)
(0.00170318 -0.000782723 0)
(0.00266406 -9.68613e-05 0)
(0.0016241 -0.000472477 0)
(0.00276699 -0.000183456 0)
(0.00300864 -4.33104e-05 0)
(0.00294026 -8.19914e-06 0)
(0.00221803 -0.000230313 0)
(0.00281506 -7.95498e-05 0)
(0.00255138 -6.5956e-05 0)
(0.00134926 -0.000693217 0)
(0.00334303 -4.83992e-05 0)
(0.00132642 -0.000717763 0)
(0.00264373 -3.2671e-05 0)
(0.00266645 -9.23731e-05 0)
(0.00310174 -0.000228146 0)
(0.00295766 -0.000276279 0)
(0.00163706 -0.000461521 0)
(0.00266588 -4.15591e-05 0)
(0.003144 -0.0001665 0)
(0.00264708 -7.82752e-05 0)
(0.0029173 -3.10833e-05 0)
(0.00292611 -2.84372e-05 0)
(0.00303044 -0.000228842 0)
(0.00166438 -0.000418132 0)
(0.00319732 -7.33212e-05 0)
(0.00222647 -0.000309154 0)
(0.000596095 -0.00161196 0)
(0.000111112 -0.00194384 0)
(0.00256557 -5.07945e-05 0)
(0.00024469 -0.00188483 0)
(0.00330881 -6.77014e-05 0)
(0.00125467 -0.000665113 0)
(0.00222729 -0.000293589 0)
(0.00210736 -0.000282875 0)
(0.00281774 -4.04797e-06 0)
(0.00264612 -3.29298e-05 0)
(0.00235942 -0.000270173 0)
(0.00329855 -8.20226e-05 0)
(0.00101059 -0.000818146 0)
(0.00289361 -3.01953e-06 0)
(0.00171409 -0.00079814 0)
(0.00280922 -5.60068e-06 0)
(0.00281627 -5.03413e-06 0)
(0.00144461 -0.000740641 0)
(0.0013676 -0.000608014 0)
(0.00281628 -1.29001e-05 0)
(0.00303552 -0.00023175 0)
(0.00271548 -7.55459e-05 0)
(0.00270667 -7.87784e-05 0)
(0.00278781 -7.45771e-06 0)
(0.00210454 -0.000263052 0)
(0.00323127 -3.84636e-05 0)
(0.00279476 -6.92162e-06 0)
(0.00153837 -0.000825353 0)
(0.00144279 -0.00072484 0)
(0.00149515 -0.000853009 0)
(0.00341731 -8.47539e-06 0)
(0.00341234 -8.33494e-06 0)
(0.00316492 -0.000206264 0)
(0.00315465 -0.000212349 0)
(0.00333212 -6.75699e-05 0)
(0.000173131 -0.00195171 0)
(0.00278594 -6.27926e-05 0)
(0.00277751 -6.62027e-05 0)
(0.00281661 -1.4135e-05 0)
(0.00317451 -0.000111523 0)
(0.00335771 -2.18319e-05 0)
(0.00242472 -9.3224e-05 0)
(0.000136527 -0.00193797 0)
(0.00284968 -0.000236083 0)
(0.0025003 -0.000314072 0)
(0.00249528 -0.00030736 0)
(0.00225774 -0.000258069 0)
(0.00216317 -0.000269845 0)
(0.00302553 -0.000248155 0)
(0.00296941 -0.000101535 0)
(0.00297966 -0.000102906 0)
(0.00236525 -0.000337046 0)
(0.00125159 -0.000992504 0)
(0.000656085 -0.00111549 0)
(0.00187702 -0.000517318 0)
(0.00266855 -7.84845e-05 0)
(0.00130411 -0.00135915 0)
(0.00276697 -0.000189498 0)
(0.00302033 -4.10396e-05 0)
(0.00235152 -0.000334197 0)
(0.00311387 -0.000226948 0)
(0.00263941 -4.33677e-05 0)
(0.00094141 -0.00138801 0)
(0.00248964 -0.000120529 0)
(0.0017586 -0.000376617 0)
(0.000351067 -0.00180193 0)
(0.00188546 -0.000302672 0)
(0.00329945 -7.49067e-05 0)
(0.00237222 -0.000289346 0)
(0.00270076 -5.91337e-05 0)
(0.00204217 -0.000229889 0)
(0.00271546 -3.45666e-05 0)
(0.00282635 -1.151e-05 0)
(0.00268494 -2.62719e-05 0)
(0.00173773 -0.000403667 0)
(0.00265557 -2.92181e-05 0)
(0.00262043 -0.00012317 0)
(0.00297294 -0.000231818 0)
(0.00297479 -0.000225785 0)
(0.00129861 -0.00062936 0)
(0.00324153 -0.000158123 0)
(0.00301001 -0.000153782 0)
(0.00332596 -5.16824e-05 0)
(0.00256704 -6.18196e-05 0)
(0.00282668 -4.32701e-07 0)
(0.00190284 -0.000294496 0)
(0.00219284 -0.000181839 0)
(0.00240691 -9.87318e-05 0)
(0.00283625 -0.000107268 0)
(0.00168744 -0.000838997 0)
(0.00264764 -0.000245138 0)
(0.00301572 -1.96905e-05 0)
(6.04564e-05 -0.00202279 0)
(0.00300607 -0.000158483 0)
(0.00178022 -0.00037018 0)
(0.00318604 -0.000107249 0)
(0.00319783 -7.57496e-05 0)
(0.00291557 -7.79516e-05 0)
(0.00261687 -5.64456e-05 0)
(0.00238261 -0.000105782 0)
(0.00337608 -2.0739e-05 0)
(0.00325877 -8.28544e-06 0)
(0.0032712 -7.01531e-06 0)
(0.00322073 -4.07895e-05 0)
(0.00307448 -6.59279e-05 0)
(0.00328264 -7.74334e-05 0)
(0.00339322 -1.97818e-05 0)
(0.00273311 -1.08161e-05 0)
(0.00273019 -0.000134142 0)
(0.00326986 -6.33474e-05 0)
(0.00210072 -0.000339551 0)
(0.00280523 -1.57442e-05 0)
(0.00229384 -0.000255123 0)
(0.00313825 -3.0846e-05 0)
(0.00315081 -2.91262e-05 0)
(0.00226021 -0.000266958 0)
(0.00229472 -0.000132576 0)
(0.00254398 -7.42184e-05 0)
(0.00321371 -0.000130044 0)
(0.000908636 -0.00133252 0)
(0.000288238 -0.00157933 0)
(0.00224215 -0.000221504 0)
(0.000378364 -0.00178198 0)
(0.00101652 -0.00139054 0)
(0.00101649 -0.0013695 0)
(0.00252755 -7.80136e-05 0)
(0.00280011 -5.21023e-06 0)
(0.00280202 -5.98783e-06 0)
(0.00086512 -0.00135249 0)
(0.00276552 -3.59875e-05 0)
(0.00269686 -2.40054e-05 0)
(0.0023772 -0.000204517 0)
(0.00261336 -0.000265759 0)
(0.00211117 -0.000345774 0)
(0.00288622 -3.02958e-06 0)
(0.00205372 -0.000229136 0)
(0.00053961 -0.00123969 0)
(0.00287974 -0.000274165 0)
(0.00260073 -8.27856e-05 0)
(0.00225138 -0.000203947 0)
(0.00269042 -4.64204e-05 0)
(0.00247722 -0.000212521 0)
(0.00265563 -9.10366e-05 0)
(0.00213066 -0.000247835 0)
(0.00184614 -0.000528997 0)
(0.00340189 -2.72898e-06 0)
(0.00311438 -0.000252376 0)
(0.00148251 -0.000689855 0)
(0.00315434 -0.000144567 0)
(0.00275359 -3.85645e-05 0)
(0.00310263 -8.07976e-05 0)
(0.00310692 -7.75889e-05 0)
(0.00294805 -7.63806e-05 0)
(0.00192668 -0.000287467 0)
(0.000767883 -0.00115961 0)
(0.00278881 -5.09316e-05 0)
(0.00331764 -7.51106e-05 0)
(0.00329088 -7.31593e-05 0)
(0.00257105 -0.000259723 0)
(0.00204625 -0.00023383 0)
(0.00266912 -2.58515e-05 0)
(0.00289198 -0.000269293 0)
(0.00172758 -0.000391647 0)
(0.00303684 -1.38272e-05 0)
(0.000682307 -0.00147756 0)
(0.00315455 -3.80452e-05 0)
(0.00237014 -0.000248921 0)
(0.00269456 -2.10439e-05 0)
(0.00263423 -8.31259e-05 0)
(0.00104165 -0.000965841 0)
(0.00270434 -1.92877e-05 0)
(0.00325007 -7.38353e-06 0)
(0.00333694 -2.2709e-05 0)
(0.00338688 -1.88447e-05 0)
(0.00274164 -1.90608e-05 0)
(0.00271891 -5.3499e-05 0)
(0.00128468 -0.000648611 0)
(0.00275639 -1.69401e-05 0)
(0.0022518 -0.000331217 0)
(0.000498466 -0.00163782 0)
(0.000652528 -0.0015456 0)
(0.00296086 -0.000280552 0)
(0.00327404 -5.05126e-06 0)
(0.00255026 -0.000256373 0)
(0.00231285 -0.000134221 0)
(0.000420853 -0.0017315 0)
(0.000124959 -0.00198554 0)
(0.00295666 -1.29067e-06 0)
(0.00253908 -8.23691e-05 0)
(0.00255676 -7.77579e-05 0)
(0.00310669 -0.000166069 0)
(0.00218438 -0.000263343 0)
(0.00192752 -0.000514805 0)
(0.00342296 -1.23224e-06 0)
(0.00313588 -0.000252674 0)
(0.00027212 -0.0018627 0)
(0.00236176 -0.000276197 0)
(0.00263025 -0.000119728 0)
(0.00312804 -0.000171433 0)
(0.0032222 -2.04569e-05 0)
(0.00245427 -0.000159077 0)
(0.00269504 -7.12672e-05 0)
(0.00275307 -1.17471e-05 0)
(0.00271017 -3.69433e-05 0)
(0.00276954 -2.88213e-05 0)
(0.00265435 -0.000115009 0)
(0.00272969 -3.22377e-05 0)
(0.00101276 -0.00128522 0)
(0.00199878 -0.00024952 0)
(0.00202619 -0.000237393 0)
(0.00279273 -1.91124e-05 0)
(0.0017085 -0.000423497 0)
(0.00262839 -0.000259284 0)
(0.00337781 -3.30395e-06 0)
(0.00308616 -0.000258258 0)
(7.72185e-05 -0.00201134 0)
(0.0022563 -0.000235823 0)
(0.00192131 -0.000287722 0)
(0.00241324 -0.00029704 0)
(0.00224701 -0.000164883 0)
(0.00147347 -0.000600565 0)
(0.00168639 -0.000405897 0)
(0.00224897 -0.000253716 0)
(0.00330134 -6.18589e-05 0)
(0.00266237 -9.13644e-05 0)
(0.00268892 -5.94055e-05 0)
(0.0016127 -0.000446953 0)
(4.12943e-05 -0.00192218 0)
(0.00272174 -1.42904e-05 0)
(0.00333086 -6.61231e-05 0)
(0.00331675 -6.36306e-05 0)
(0.00308199 -0.000176997 0)
(0.00237935 -0.000278966 0)
(0.00271637 -1.82808e-05 0)
(0.00273833 -3.25895e-05 0)
(0.000360112 -0.00175035 0)
(0.000454669 -0.00155899 0)
(0.00224154 -0.000150413 0)
(0.00223946 -0.000152237 0)
(0.00328794 -8.78543e-05 0)
(0.00187323 -0.000374591 0)
(0.00262651 -4.72659e-05 0)
(0.00309164 -0.000210737 0)
(0.00256324 -5.76688e-05 0)
(0.00244568 -0.00013334 0)
(0.00224578 -0.000232675 0)
(0.00157597 -0.000684442 0)
(0.00247289 -0.000122823 0)
(0.00332953 -2.51546e-05 0)
(0.00330426 -2.70065e-05 0)
(0.000920288 -0.0012521 0)
(0.00122764 -0.000699681 0)
(0.00255312 -5.48709e-05 0)
(0.00271711 -5.62857e-05 0)
(0.00103006 -0.00125953 0)
(0.00332988 -2.18156e-05 0)
(0.00274034 -1.04242e-05 0)
(0.00274513 -9.94877e-06 0)
(0.00277519 -0.000209796 0)
(0.00305855 -3.34033e-05 0)
(0.00277692 -2.90274e-05 0)
(0.00307309 -6.33932e-05 0)
(0.00344722 -3.3145e-06 0)
(0.00318193 -0.00022017 0)
(0.0027477 -1.5333e-05 0)
(0.00296474 -7.00038e-07 0)
(0.00208406 -0.000383761 0)
(0.00246706 -7.90742e-05 0)
(0.00285947 -1.0292e-05 0)
(0.00267992 -3.00783e-05 0)
(0.00280423 -4.13732e-06 0)
(0.00277491 -6.0298e-06 0)
(0.0027768 -4.98178e-06 0)
(0.00279814 -2.60963e-05 0)
(0.00276693 -0.000222051 0)
(0.00306938 -2.90884e-05 0)
(0.00244102 -8.96009e-05 0)
(0.00276355 -0.000208299 0)
(0.00304814 -3.36866e-05 0)
(0.00240729 -0.000118068 0)
(0.00239303 -0.00012418 0)
(0.00058949 -0.00119795 0)
(0.00263614 -0.000177191 0)
(0.00322708 -0.000125158 0)
(0.00278868 -2.66759e-05 0)
(0.00278825 -4.34076e-07 0)
(0.0029526 -0.000192562 0)
(0.00279478 -8.59046e-06 0)
(0.00252497 -6.92298e-05 0)
(0.00254099 -6.59088e-05 0)
(0.00225873 -0.000218862 0)
(0.00115528 -0.00134208 0)
(0.00315849 -0.0001467 0)
(0.0010599 -0.000790075 0)
(0.00105793 -0.000788476 0)
(0.00177404 -0.000443751 0)
(0.00265427 -3.47378e-05 0)
(0.00340373 -3.54824e-06 0)
(0.00312011 -0.000246506 0)
(0.00257043 -4.88092e-05 0)
(0.0018638 -0.000460329 0)
(0.00266566 -2.9941e-05 0)
(0.00201061 -0.00068732 0)
(0.00236367 -0.000204092 0)
(0.0027219 -0.000231519 0)
(0.00304899 -2.52759e-05 0)
(0.0017645 -0.000440076 0)
(0.00260225 -9.66997e-05 0)
(0.00343705 -4.24516e-06 0)
(0.00317209 -0.000220221 0)
(0.000513916 -0.00155733 0)
(0.00159089 -0.000662171 0)
(0.00294014 -6.97618e-06 0)
(0.0014172 -0.000768834 0)
(0.000294678 -0.00183978 0)
(0.0025446 -6.93453e-05 0)
(0.00321096 -2.17663e-05 0)
(0.00158672 -0.000463545 0)
(0.00269624 -3.33028e-05 0)
(0.00270836 -0.000155762 0)
(0.000279033 -0.00185217 0)
(0.00240279 -0.000275227 0)
(0.000455067 -0.00163365 0)
(0.00332284 -1.86398e-05 0)
(0.0012123 -0.000684151 0)
(0.00169967 -0.000402109 0)
(0.00178366 -0.000353763 0)
(0.003231 -8.26312e-05 0)
(0.000730043 -0.00119333 0)
(0.00293135 -0.000190272 0)
(0.00262939 -0.000182844 0)
(0.00267856 -5.46811e-05 0)
(0.00272363 -0.000155244 0)
(0.00338004 -3.59848e-05 0)
(0.00268473 -4.73422e-05 0)
(0.00246898 -0.0001517 0)
(0.00114708 -0.0014066 0)
(0.00267042 -3.65876e-05 0)
(0.000608712 -0.00152739 0)
(0.00106093 -0.000940227 0)
(0.0025546 -0.000151993 0)
(0.00274974 -2.4894e-06 0)
(0.00210956 -0.000375966 0)
(0.00181762 -0.000341375 0)
(0.00266126 -0.000185478 0)
(0.00193363 -0.000528935 0)
(0.000727595 -0.00122758 0)
(0.0010706 -0.00133108 0)
(0.00308316 -0.000226097 0)
(0.00309883 -0.000222464 0)
(0.00272339 -1.43049e-05 0)
(0.00273122 -1.22538e-05 0)
(0.000127916 -0.0019804 0)
(0.000708863 -0.00122922 0)
(0.000606357 -0.00166136 0)
(0.00280208 -4.79651e-05 0)
(0.00322806 -0.000161573 0)
(0.00269191 -2.89754e-05 0)
(0.00262311 -0.000113143 0)
(0.00172466 -0.000402404 0)
(0.00232115 -0.000122277 0)
(0.0027152 -2.62678e-05 0)
(0.00266392 -4.02161e-05 0)
(0.000626054 -0.00143954 0)
(0.00256729 -0.000146704 0)
(0.00256263 -0.000152199 0)
(0.00172144 -0.0003887 0)
(0.00156954 -0.0004915 0)
(0.00103551 -0.000874764 0)
(0.00107571 -0.00100462 0)
(0.00310403 -0.000208298 0)
(0.00261527 -8.70717e-05 0)
(0.00156576 -0.000488387 0)
(0.00110113 -0.000970107 0)
(0.00210494 -0.000237892 0)
(0.00213058 -0.000230661 0)
(0.00308663 -6.03526e-05 0)
(0.00327223 -2.90052e-05 0)
(0.000434949 -0.00172315 0)
(0.0025745 -0.000107333 0)
(0.00293126 -9.14511e-05 0)
(0.00326828 -0.000111686 0)
(0.00284976 -9.88432e-05 0)
(0.0027825 -1.93724e-05 0)
(0.00296822 -9.81873e-05 0)
(0.00256089 -6.28911e-05 0)
(0.001986 -0.000331434 0)
(0.00283051 -0.000238171 0)
(0.00144332 -0.000919958 0)
(0.00201915 -0.000714685 0)
(0.00110038 -0.00135453 0)
(0.00255248 -6.92613e-05 0)
(0.0032026 -0.000219418 0)
(0.0034674 -1.36089e-06 0)
(0.00330638 -2.52953e-05 0)
(0.00257087 -5.46388e-05 0)
(0.0028237 -6.43365e-05 0)
(0.00281958 -0.000111959 0)
(0.00276439 -0.000117941 0)
(0.00179716 -0.000643963 0)
(0.00271958 -1.5518e-05 0)
(0.00285212 -6.35253e-05 0)
(0.00286305 -6.53427e-05 0)
(0.00333329 -3.74961e-05 0)
(0.00268031 -7.37844e-05 0)
(0.00253132 -0.000288657 0)
(0.00300467 -7.57533e-05 0)
(0.00299245 -7.89742e-05 0)
(0.00331526 -5.76338e-05 0)
(0.00273653 -9.56213e-06 0)
(0.00266731 -7.05355e-05 0)
(0.00231288 -0.000125217 0)
(0.000386283 -0.00172747 0)
(0.00272105 -2.43563e-05 0)
(0.00217604 -0.000199639 0)
(0.00321526 -8.57547e-05 0)
(0.00250165 -6.72887e-05 0)
(0.00289111 -6.65646e-05 0)
(0.00228169 -0.000157793 0)
(0.000154059 -0.00196118 0)
(0.00248574 -7.22417e-05 0)
(0.000465691 -0.00166044 0)
(0.000631458 -0.0014832 0)
(0.0026292 -7.02122e-05 0)
(0.00319007 -7.01287e-05 0)
(0.00318749 -6.80995e-05 0)
(0.00207491 -0.000220629 0)
(0.00227926 -0.000205193 0)
(0.00261065 -5.66774e-05 0)
(0.00231653 -0.000166618 0)
(0.00326366 -8.62922e-05 0)
(0.00325109 -9.06756e-05 0)
(0.00152524 -0.000585712 0)
(0.00140937 -0.00056613 0)
(0.00218717 -0.000198586 0)
(0.00335197 -2.07985e-05 0)
(0.00246549 -0.000209329 0)
(0.00314628 -1.6474e-05 0)
(0.00208862 -0.000596193 0)
(0.00262559 -7.58028e-05 0)
(0.00183946 -0.00048718 0)
(0.00283772 -0.000288652 0)
(0.0031764 -7.0376e-06 0)
(0.00285433 -0.000284721 0)
(0.00318753 -7.70966e-06 0)
(0.00211535 -0.00056437 0)
(0.00249333 -8.4098e-05 0)
(0.000931072 -0.00127954 0)
(0.00293421 -0.000148893 0)
(0.00308808 -0.000135678 0)
(0.00262702 -5.64343e-05 0)
(0.00321068 -0.000219736 0)
(0.00347554 -7.08116e-07 0)
(0.00295574 -4.97458e-05 0)
(0.0012684 -0.000964834 0)
(0.000879012 -0.00132492 0)
(0.000800121 -0.00140446 0)
(0.0030862 -5.78188e-05 0)
(0.0022166 -0.000584072 0)
(0.0027785 -3.45114e-05 0)
(0.00264696 -3.86477e-05 0)
(0.000508612 -0.00157657 0)
(0.00224196 -0.000543393 0)
(0.00263783 -4.15071e-05 0)
(0.00285275 -9.95243e-06 0)
(0.00338202 -2.24726e-05 0)
(0.000782786 -0.00153149 0)
(0.00272103 -1.33162e-05 0)
(0.00309723 -2.92759e-05 0)
(0.0028729 -2.21978e-05 0)
(0.00178362 -0.000361807 0)
(0.00177472 -0.000376238 0)
(0.00337326 -4.7099e-06 0)
(0.00335982 -5.9663e-06 0)
(0.0030707 -0.000253329 0)
(0.00308474 -0.000252984 0)
(0.00288208 -0.000124049 0)
(0.00226973 -0.000154108 0)
(0.00279584 -9.95868e-06 0)
(0.00279964 -1.10729e-05 0)
(6.94999e-05 -0.00189126 0)
(0.00175138 -0.000418404 0)
(0.00240755 -0.000206403 0)
(0.00280378 -0.000222668 0)
(0.00257858 -0.000235068 0)
(0.00333342 -1.83006e-05 0)
(0.000568881 -0.0015126 0)
(0.00294623 -9.06864e-06 0)
(0.0034116 -1.40113e-06 0)
(0.00312227 -0.000256196 0)
(0.00146391 -0.000852392 0)
(0.00178653 -0.000353589 0)
(0.00279547 -1.55883e-05 0)
(0.00123331 -0.000689656 0)
(0.00258415 -0.000116736 0)
(0.000216156 -0.0019049 0)
(0.00197412 -0.000274093 0)
(0.00298458 -0.000133236 0)
(0.00299133 -0.000128876 0)
(0.000538644 -0.00155416 0)
(0.00148853 -0.000811155 0)
(0.000376941 -0.0017691 0)
(0.00261559 -0.000142328 0)
(0.00199118 -0.000264995 0)
(0.00136779 -0.000589097 0)
(0.00134746 -0.000599397 0)
(0.00107818 -0.000771013 0)
(0.00255291 -0.000249862 0)
(0.00329237 -4.55448e-05 0)
(0.00168148 -0.00040758 0)
(0.00241851 -0.00031635 0)
(0.00189737 -0.000328927 0)
(0.000400969 -0.00174492 0)
(0.00259417 -0.000115754 0)
(0.00264566 -0.000105099 0)
(0.00282533 -7.08579e-05 0)
(0.00274864 -4.01554e-06 0)
(0.000201115 -0.00191608 0)
(0.00228853 -0.000146406 0)
(0.00181998 -0.000361553 0)
(0.000104387 -0.00199988 0)
(0.00280759 -8.3674e-05 0)
(0.00243366 -8.89346e-05 0)
(0.00235936 -0.000265697 0)
(0.00271876 -1.56757e-05 0)
(0.00286207 -2.35273e-05 0)
(0.0034193 -1.43456e-05 0)
(0.000874964 -0.00152502 0)
(0.00280901 -6.54371e-05 0)
(0.00277982 -0.000190255 0)
(0.00303077 -4.09754e-05 0)
(0.00247094 -0.000306894 0)
(0.00338653 -2.59308e-05 0)
(0.00212189 -0.000267666 0)
(0.00268426 -2.77969e-05 0)
(0.00138351 -0.000578254 0)
(0.00121339 -0.00102277 0)
(0.00141951 -0.000555384 0)
(0.00149366 -0.00060331 0)
(0.000562066 -0.00125605 0)
(0.00264223 -3.37443e-05 0)
(0.00313759 -1.56854e-05 0)
(0.00257585 -0.000137407 0)
(0.00247533 -0.000238628 0)
(0.000908538 -0.00102974 0)
(0.00131311 -0.000808228 0)
(0.00331569 -2.72766e-05 0)
(0.00325583 -0.000116985 0)
(0.00164092 -0.000544655 0)
(0.00307504 -0.000224572 0)
(0.00129914 -0.000693662 0)
(0.00245204 -0.000164258 0)
(0.00262082 -3.69977e-05 0)
(0.00292372 -3.36121e-05 0)
(0.00263031 -8.03646e-05 0)
(0.00293717 -0.000152811 0)
(0.00335016 -5.51474e-06 0)
(0.0030575 -0.000258356 0)
(0.00304838 -0.0001307 0)
(0.00245595 -0.000251819 0)
(0.000959456 -0.00088665 0)
(0.00211684 -0.000310656 0)
(0.00209834 -0.000320965 0)
(0.0028682 -1.01757e-06 0)
(0.00278497 -3.84799e-05 0)
(0.00246593 -0.000165236 0)
(0.00287143 -2.01027e-05 0)
(0.00176447 -0.00065428 0)
(0.000380304 -0.00176891 0)
(0.00128306 -0.000824429 0)
(0.00106397 -0.000780134 0)
(0.00275847 -4.28413e-06 0)
(0.00247204 -0.000226388 0)
(0.00291708 -3.63308e-05 0)
(0.00316306 -0.000139007 0)
(0.00341103 -1.02292e-05 0)
(0.00339722 -1.21413e-05 0)
(0.00315054 -0.000201319 0)
(0.00316417 -0.000200789 0)
(0.003238 -7.91634e-05 0)
(0.00275715 -5.07247e-06 0)
(0.00033185 -0.00170625 0)
(0.00258982 -0.000135534 0)
(0.00324498 -6.85039e-05 0)
(0.00251928 -9.83934e-05 0)
(0.00250018 -6.72006e-05 0)
(0.00271785 -1.35241e-05 0)
(0.00257562 -0.000119018 0)
(0.00119959 -0.000720197 0)
(0.00305248 -0.000175482 0)
(0.000292567 -0.00184379 0)
(0.00254144 -8.75221e-05 0)
(0.000291453 -0.00173323 0)
(0.00253859 -0.000300232 0)
(0.00273271 -1.88842e-05 0)
(0.00282724 -0.000231755 0)
(0.00247446 -0.000261682 0)
(0.00271293 -0.000237618 0)
(0.00304974 -2.29973e-05 0)
(0.00213422 -0.000203654 0)
(0.00288399 -5.68801e-05 0)
(0.00273421 -8.10057e-06 0)
(0.00260809 -0.000120189 0)
(0.0026416 -3.80291e-05 0)
(0.00310913 -0.000216742 0)
(0.00265633 -3.14389e-05 0)
(0.00273391 -7.87022e-06 0)
(0.000192634 -0.00193394 0)
(0.00266633 -2.95428e-05 0)
(0.00178244 -0.000359643 0)
(0.000186407 -0.00193984 0)
(0.00262459 -0.000129079 0)
(0.00264002 -0.000128083 0)
(0.00102433 -0.00104686 0)
(0.00148561 -0.000675566 0)
(0.00187122 -0.000308927 0)
(0.00187326 -0.000309569 0)
(0.00340719 -1.80392e-05 0)
(0.00340671 -1.77257e-05 0)
(0.00265776 -6.86865e-05 0)
(0.00139586 -0.000690339 0)
(0.00229472 -0.00020481 0)
(0.000518757 -0.00160929 0)
(0.00290325 -3.78742e-05 0)
(0.00231696 -0.000191962 0)
(0.00274674 -1.98617e-06 0)
(0.000302373 -0.00183186 0)
(0.00100512 -0.00104872 0)
(0.00281374 -0.000231678 0)
(0.00299958 -1.11429e-05 0)
(0.00272688 -1.28951e-05 0)
(0.00270714 -3.08135e-05 0)
(0.00273763 -1.66658e-05 0)
(0.00223414 -0.000205643 0)
(0.00135513 -0.000997188 0)
(0.00296874 -0.00019041 0)
(0.00337818 -3.57756e-05 0)
(0.00135638 -0.000856438 0)
(0.00270774 -2.97343e-05 0)
(0.00132857 -0.000864607 0)
(0.00205124 -0.000284301 0)
(0.00122204 -0.000687874 0)
(0.00295867 -0.00023728 0)
(0.00266971 -0.000177132 0)
(0.00215375 -0.00021676 0)
(0.00298908 -3.67731e-06 0)
(0.00210583 -0.000206426 0)
(0.00125927 -0.000672152 0)
(0.00127899 -0.000655477 0)
(0.00122308 -0.000679371 0)
(0.00294369 -5.1872e-05 0)
(0.0028269 -1.09008e-05 0)
(0.00267741 -0.000162162 0)
(0.00320598 -7.06554e-05 0)
(0.00154036 -0.000544054 0)
(0.00154436 -0.000492707 0)
(0.00147039 -0.000803839 0)
(0.00153374 -0.000496591 0)
(0.00134017 -0.000603325 0)
(0.00320167 -3.94129e-05 0)
(0.000137126 -0.00198391 0)
(0.00142603 -0.000829349 0)
(0.00223218 -0.000292088 0)
(0.00247492 -8.74374e-05 0)
(0.00213894 -0.000304589 0)
(0.000118188 -0.00172169 0)
(0.00270901 -2.48546e-05 0)
(0.00279147 -0.000108802 0)
(0.00170373 -0.000409319 0)
(0.00264164 -3.55947e-05 0)
(0.00202294 -0.000241744 0)
(0.00084595 -0.0015384 0)
(0.0022511 -0.000310926 0)
(0.00261636 -0.000240005 0)
(0.00299215 -2.02582e-05 0)
(0.00282956 -0.000283389 0)
(0.00316755 -8.87452e-06 0)
(0.00248588 -7.12275e-05 0)
(0.00218437 -0.000309162 0)
(0.000182306 -0.00194291 0)
(0.00212402 -0.000229983 0)
(0.0034645 -2.86094e-06 0)
(0.00322856 -0.000184236 0)
(0.00278527 -1.40419e-05 0)
(0.000824855 -0.00132189 0)
(0.003344 -1.42e-05 0)
(0.000686033 -0.00115889 0)
(0.00120715 -0.00106077 0)
(0.0032317 -1.6718e-05 0)
(0.00207691 -0.000470329 0)
(0.00281699 -0.000283813 0)
(0.00315819 -9.05451e-06 0)
(0.00254808 -0.000278248 0)
(0.00256179 -0.000280994 0)
(0.000766477 -0.0013139 0)
(0.00223924 -0.000212449 0)
(0.00304276 -0.000135023 0)
(0.000754334 -0.0015856 0)
(0.00210626 -0.000241565 0)
(0.000781906 -0.00135521 0)
(0.0007545 -0.00103796 0)
(0.000535157 -0.00128906 0)
(0.000765877 -0.00129789 0)
(0.00284617 -9.55323e-05 0)
(0.00206728 -0.000459041 0)
(0.00334864 -1.50738e-05 0)
(0.00176839 -0.000363166 0)
(0.000561921 -0.00168094 0)
(0.00293196 -8.81429e-05 0)
(0.0025828 -4.59976e-05 0)
(0.00297526 -0.000141298 0)
(0.00297723 -0.000144306 0)
(0.00258836 -4.41738e-05 0)
(0.00278571 -1.44415e-05 0)
(0.00315336 -0.00015999 0)
(0.00167064 -0.000412331 0)
(0.00173405 -0.000381261 0)
(0.00176197 -0.000368086 0)
(0.00276314 -1.55641e-05 0)
(0.00175085 -0.000390186 0)
(0.00315362 -4.04561e-05 0)
(0.00215618 -0.000314864 0)
(0.00258119 -0.000276416 0)
(0.00117482 -0.000917157 0)
(0.00303122 -1.21959e-05 0)
(0.00294124 -1.19615e-05 0)
(0.00144931 -0.00053827 0)
(0.00329989 -5.9291e-05 0)
(0.00156718 -0.000742321 0)
(0.000138225 -0.00184602 0)
(0.00114566 -0.000931877 0)
(0.00303111 -0.000241726 0)
(0.00332371 -1.34927e-05 0)
(0.003223 -1.80445e-05 0)
(0.00279938 -2.81138e-05 0)
(0.00163725 -0.000876123 0)
(0.00258198 -4.631e-05 0)
(0.00327509 -5.48113e-05 0)
(0.00327352 -5.35275e-05 0)
(0.00328316 -4.85878e-05 0)
(0.000163597 -0.00195921 0)
(0.00293748 -2.78399e-05 0)
(0.00296419 -0.000224723 0)
(0.00295599 -7.78016e-05 0)
(0.00295409 -7.32056e-05 0)
(0.00250257 -0.000182194 0)
(0.00188841 -0.000364374 0)
(0.00159723 -0.000877165 0)
(0.000431494 -0.0017085 0)
(0.000385959 -0.00154347 0)
(0.00280137 -6.06235e-05 0)
(0.00311887 -0.000199866 0)
(0.00312947 -0.000199682 0)
(0.00118877 -0.00106006 0)
(0.00288502 -0.000127291 0)
(0.000392541 -0.00151505 0)
(0.00295391 -8.28066e-06 0)
(0.00293881 -1.55114e-05 0)
(0.00294826 -1.4882e-05 0)
(0.0028999 -1.14609e-05 0)
(1.89886e-05 -0.00206434 0)
(0.00265688 -0.000173854 0)
(0.000521379 -0.0015864 0)
(0.00270667 -1.79416e-05 0)
(0.00200429 -0.000329328 0)
(0.00291861 -7.42325e-05 0)
(0.00232317 -0.00025127 0)
(0.00281899 -2.14302e-05 0)
(0.00322036 -6.11683e-05 0)
(0.002861 -1.14052e-05 0)
(0.00191886 -0.00032032 0)
(0.00231659 -0.000125317 0)
(0.000876798 -0.00120417 0)
(0.00329403 -6.28127e-05 0)
(0.00221929 -0.000173768 0)
(0.00339645 -2.34133e-05 0)
(0.00313706 -1.27658e-05 0)
(0.00289405 -7.41913e-06 0)
(0.00290116 -7.4841e-06 0)
(0.000406219 -0.00175252 0)
(0.00337605 -9.27459e-06 0)
(0.00162396 -0.000563403 0)
(0.0027864 -6.87347e-06 0)
(0.00316132 -0.000173687 0)
(0.00269317 -0.000161921 0)
(0.00305239 -0.000208468 0)
(0.002717 -1.25458e-05 0)
(0.00289843 -1.2717e-05 0)
(0.00138043 -0.000654734 0)
(0.00185544 -0.00102335 0)
(0.00272747 -6.16598e-05 0)
(0.00246784 -0.00022068 0)
(0.00270188 -2.32338e-05 0)
(0.00262584 -4.61145e-05 0)
(0.00229177 -0.000198004 0)
(0.00339462 -1.87049e-05 0)
(0.00307599 -0.00014382 0)
(0.00308454 -0.000144744 0)
(0.00241077 -0.000220041 0)
(0.00296464 -0.000270222 0)
(0.00226311 -0.000161762 0)
(0.000400081 -0.00163874 0)
(0.00264107 -0.000102345 0)
(0.00203405 -0.000293815 0)
(0.00216578 -0.000350811 0)
(0.00202897 -0.000235973 0)
(0.0027214 -5.99866e-05 0)
(0.00303068 -8.76964e-05 0)
(0.00213061 -0.00047756 0)
(0.00269194 -4.70895e-05 0)
(0.00280027 -3.7271e-05 0)
(0.00196269 -0.000520284 0)
(0.00251152 -7.91842e-05 0)
(0.00269044 -4.95184e-05 0)
(0.00264439 -0.000119299 0)
(0.0025913 -0.000279679 0)
(0.00099299 -0.00134703 0)
(0.00312047 -0.000170017 0)
(0.00314 -0.000141511 0)
(0.00302406 -9.67289e-05 0)
(0.00289477 -0.000133458 0)
(0.0024371 -0.000331949 0)
(0.00216833 -0.00018377 0)
(0.00214663 -0.000192334 0)
(0.00153874 -0.000781092 0)
(0.000327326 -0.00153766 0)
(0.00315882 -0.000183091 0)
(0.0018156 -0.000352056 0)
(0.00144198 -0.000545562 0)
(0.00183949 -0.000335916 0)
(0.0023414 -0.000327733 0)
(0.00293766 -3.22168e-05 0)
(0.00294536 -3.40278e-05 0)
(0.00231424 -0.000342024 0)
(0.00268351 -3.98003e-05 0)
(0.00268619 -3.73883e-05 0)
(0.00297606 -7.96339e-05 0)
(0.00297207 -7.66045e-05 0)
(0.00280125 -2.20828e-06 0)
(0.00280704 -2.30059e-06 0)
(0.00249452 -0.000294158 0)
(0.00262899 -3.59748e-05 0)
(0.00320796 -8.96545e-05 0)
(0.00273514 -9.23311e-06 0)
(0.00258926 -9.89307e-05 0)
(0.00256448 -6.52683e-05 0)
(0.0027098 -1.74602e-05 0)
(0.00315532 -2.69885e-05 0)
(0.00239656 -0.000137664 0)
(0.00241766 -0.000135045 0)
(0.00277534 -4.11047e-05 0)
(0.00259758 -0.00022723 0)
(0.00296584 -2.30217e-05 0)
(0.0024617 -8.16899e-05 0)
(0.00260072 -4.21766e-05 0)
(0.00249504 -7.8102e-05 0)
(0.00259388 -0.000125748 0)
(0.00251416 -7.42289e-05 0)
(0.00257665 -0.000129252 0)
(0.000584186 -0.00155953 0)
(0.00262781 -0.000251523 0)
(0.0030106 -1.75885e-05 0)
(0.000712746 -0.00116764 0)
(0.00249534 -0.000234819 0)
(0.00297588 -9.45146e-05 0)
(0.00314879 -2.45585e-05 0)
(0.00286212 -4.84948e-07 0)
(0.00318791 -4.08324e-05 0)
(0.00219743 -0.000292436 0)
(0.00220348 -0.000297733 0)
(0.00183545 -0.000334844 0)
(0.00223033 -0.000336208 0)
(0.00243038 -0.000145596 0)
(0.00241802 -9.69745e-05 0)
(0.00274076 -2.97276e-06 0)
(0.00307965 -4.29224e-05 0)
(0.00185171 -0.000585804 0)
(0.000406649 -0.00110678 0)
(0.00214387 -0.000453032 0)
(0.00333008 -1.15296e-05 0)
(0.001863 -0.00032019 0)
(0.00195201 -0.000489616 0)
(0.00318162 -4.4326e-05 0)
(0.00315759 -0.000171226 0)
(0.0021974 -0.000336951 0)
(0.00270602 -0.000150668 0)
(0.000435939 -0.00164419 0)
(0.00136464 -0.00096918 0)
(0.00266732 -6.55128e-05 0)
(0.0030663 -6.89339e-05 0)
(0.00201246 -0.000300385 0)
(0.000467448 -0.00158343 0)
(0.00201123 -0.000851988 0)
(0.00295431 -2.39011e-06 0)
(0.00232888 -0.000256245 0)
(0.00189013 -0.000865109 0)
(0.00217869 -0.000188933 0)
(5.68914e-05 -0.00178754 0)
(0.00262407 -5.26677e-05 0)
(0.00270026 -0.000167479 0)
(0.00145912 -0.00053701 0)
(0.0014877 -0.000533556 0)
(0.0015185 -0.000517058 0)
(0.00328958 -6.08388e-05 0)
(0.0027094 -7.05047e-05 0)
(0.00256484 -0.000125121 0)
(0.00190179 -0.000826359 0)
(0.00273768 -1.015e-05 0)
(0.00300993 -0.000253597 0)
(0.00173198 -0.000434868 0)
(0.00302736 -1.91849e-05 0)
(0.00266376 -0.000247164 0)
(0.00261196 -0.00021314 0)
(0.0030489 -0.000180011 0)
(0.000520679 -0.00109883 0)
(0.00217408 -0.000329417 0)
(0.00224556 -0.000283145 0)
(0.00186983 -0.00034232 0)
(0.00187966 -0.000343451 0)
(0.000387676 -0.00167482 0)
(0.00305536 -0.000195737 0)
(0.000334188 -0.00180995 0)
(0.00261933 -4.07928e-05 0)
(0.00302293 -7.77444e-05 0)
(0.00262564 -0.000147687 0)
(0.00337619 -1.0303e-05 0)
(0.00263432 -3.59379e-05 0)
(0.00237923 -0.000109644 0)
(0.00256266 -5.58129e-05 0)
(0.00236182 -0.000115286 0)
(0.00282538 -4.21809e-05 0)
(0.00207769 -0.000218578 0)
(0.00309612 -4.90807e-05 0)
(0.00308603 -4.76831e-05 0)
(9.8347e-06 -0.00207861 0)
(0.00262639 -5.17098e-05 0)
(0.00219747 -0.000313366 0)
(0.00170361 -0.000496193 0)
(0.00174513 -0.000470066 0)
(0.00129145 -0.000634604 0)
(0.00249242 -7.20633e-05 0)
(0.00241524 -0.000240527 0)
(0.00241813 -9.12538e-05 0)
(0.00250053 -0.000211073 0)
(0.00224173 -0.00026687 0)
(0.00237896 -0.000123841 0)
(0.000937951 -0.00148588 0)
(0.00140869 -0.000929992 0)
(0.00219533 -0.00036925 0)
(0.00245555 -0.00032838 0)
(0.00111614 -0.00115235 0)
(0.000448394 -0.00165627 0)
(0.00141155 -0.000635527 0)
(0.0021562 -0.000264764 0)
(0.00181761 -0.000348219 0)
(0.00272893 -1.17143e-05 0)
(0.000906945 -0.00125332 0)
(0.00170422 -0.000585024 0)
(0.0025357 -7.77718e-05 0)
(0.00143087 -0.00104828 0)
(0.00237326 -0.00010703 0)
(0.00283177 -0.000295387 0)
(0.00317453 -5.04174e-06 0)
(0.00140694 -0.00107677 0)
(0.00226616 -0.000324939 0)
(0.00138216 -0.000689242 0)
(0.00265312 -0.000108265 0)
(0.00265619 -0.000111401 0)
(0.000201231 -0.00191292 0)
(0.00334461 -3.56522e-05 0)
(0.00245503 -0.000314139 0)
(0.00285981 -0.000229553 0)
(0.00335045 -2.36425e-05 0)
(0.000436829 -0.00168482 0)
(0.00260267 -0.000237934 0)
(0.0029814 -2.04449e-05 0)
(0.000679951 -0.00153357 0)
(0.000172108 -0.00193248 0)
(0.00263539 -0.000110284 0)
(0.00286594 -0.000272825 0)
(0.00318892 -1.13848e-05 0)
(0.00227976 -0.000141854 0)
(0.00285821 -6.86483e-06 0)
(0.00101733 -0.00146865 0)
(8.268e-05 -0.00202852 0)
(0.00288909 -6.05577e-07 0)
(0.00287187 -5.7057e-05 0)
(0.00262031 -3.86604e-05 0)
(0.000749751 -0.00113818 0)
(0.000135297 -0.00187149 0)
(0.00153871 -0.000514357 0)
(0.00265723 -4.61358e-05 0)
(0.00150442 -0.000533618 0)
(0.00328928 -4.4631e-05 0)
(0.00331851 -6.98856e-05 0)
(0.000244081 -0.00171808 0)
(0.00215353 -0.000197926 0)
(0.00294681 -3.81057e-05 0)
(0.00309771 -0.000172369 0)
(0.000765513 -0.00144509 0)
(0.00301907 -9.08987e-05 0)
(0.00265644 -8.05448e-05 0)
(0.00279701 -0.000237856 0)
(0.00311004 -2.39981e-05 0)
(0.00250094 -6.90045e-05 0)
(0.0030202 -7.49294e-05 0)
(0.00271039 -0.000209985 0)
(0.0030144 -3.15155e-05 0)