/*--------------------------------*- C++ -*----------------------------------*\
| =========                 |                                                 |
| \\      /  F ield         | OpenFOAM: The Open Source CFD Toolbox           |
|  \\    /   O peration     | Version:  v2012                                 |
|   \\  /    A nd           | Website:  www.openfoam.com                      |
|    \\/     M anipulation  |                                                 |
\*---------------------------------------------------------------------------*/
FoamFile
{
    version     2.0;
    format      ascii;
    class       volSymmTensorField;
    location    "14";
    object      sigma;
}
// * * * * * * * * * * * * * * * * * * * * * * * * * * * * * * * * * * * * * //

dimensions      [1 -1 -2 0 0 0 0];


internalField   nonuniform List<symmTensor> 
7666
(
(1.5844e+07 -5.24641e+06 -2.72423e-09 -2.95933e+06 -5.57306e-10 4.45578e+06)
(6.33883e+07 -1.84512e+07 1.37731e-08 1.20262e+07 1.64649e-09 2.34121e+07)
(1.21936e+08 -4.56142e+07 -2.5562e-08 2.68271e+07 -9.26368e-09 6.23284e+07)
(7.59872e+07 -2.46562e+07 -1.10323e-08 6.95477e+06 -9.8239e-09 2.47406e+07)
(1.06403e+08 -2.00749e+07 -5.61798e-12 -1.40869e+07 5.46057e-10 2.78763e+07)
(1.4303e+08 -6.59146e+06 2.50872e-09 -5.84251e+06 1.19276e-08 4.04665e+07)
(8.03243e+07 -3.23968e+06 4.01257e-08 1.23455e+07 1.34411e-08 2.77682e+07)
(8.17726e+07 -2.26036e+07 -1.38847e-09 7.26293e+06 1.37207e-09 2.61064e+07)
(1.78814e+08 -816892 -2.95507e-08 61643 -2.31301e-08 5.51684e+07)
(7.97532e+07 -6.59118e+06 -2.32133e-09 1.64838e+07 -7.95227e-10 2.87127e+07)
(5.18487e+07 -2.1275e+07 0 7.02282e+06 0 1.7428e+07)
(8.54308e+07 -9.47997e+06 -9.05719e-09 4.43305e+06 8.01543e-09 2.67265e+07)
(7.93109e+07 -2.28885e+07 -9.04596e-09 7.95638e+06 3.00932e-09 2.55373e+07)
(7.30084e+07 -1.91913e+07 -8.09472e-09 1.12106e+07 -1.98552e-09 2.54923e+07)
(8.02564e+07 -2.25601e+06 0 1.70256e+07 0 2.89689e+07)
(9.00138e+07 -1.45088e+07 6.33646e-08 -2.0697e+07 3.46328e-08 2.23898e+07)
(7.98368e+07 -2.27345e+07 2.63225e-08 7.62122e+06 2.15893e-09 2.67479e+07)
(1.5856e+08 -4.75511e+06 -3.42487e-09 -503066 -1.28791e-08 4.68583e+07)
(8.95813e+07 -1.43532e+07 1.53619e-08 4.08644e+06 5.29501e-09 2.79506e+07)
(7.03538e+07 -1.25777e+07 -7.71099e-09 1.49823e+07 1.10292e-09 2.59707e+07)
(5.63893e+07 -5.29015e+06 1.41539e-08 1.63683e+07 -9.01462e-10 2.18002e+07)
(1.11562e+08 -1.81983e+07 2.32858e-08 807605 -8.65533e-09 3.3298e+07)
(7.58322e+07 -1.95673e+07 -5.37126e-09 1.02338e+07 2.4572e-09 2.60609e+07)
(6.83613e+07 -2.61008e+07 1.50905e-08 4.8337e+06 2.19738e-09 2.17011e+07)
(1.35612e+08 -2.85786e+06 -5.63263e-09 -1.40096e+07 6.75349e-09 3.59631e+07)
(7.99974e+07 -2.86972e+06 -2.07292e-08 1.75892e+07 -8.68763e-09 2.93871e+07)
(1.35577e+08 -3.1584e+06 -1.66771e-08 -1.46263e+07 -2.62355e-09 3.65878e+07)
(3.46889e+07 -2.20546e+07 -6.20063e-10 -1.35288e+06 6.95675e-10 9.85792e+06)
(7.92301e+07 -2.2528e+07 4.10182e-09 7.61196e+06 9.20282e-10 2.64619e+07)
(8.11998e+07 -1.16786e+06 -3.20079e-09 1.08698e+06 7.64243e-09 2.46003e+07)
(8.33772e+07 -1.45577e+06 -1.62321e-09 256848 -2.24347e-10 2.49534e+07)
(1.54796e+08 -5.45136e+06 -3.44891e-08 -132347 -1.76783e-08 4.67905e+07)
(1.35122e+07 -1.559e+07 -8.06512e-10 -1.90931e+07 -5.37436e-09 -1.53539e+06)
(8.15131e+07 -3.97659e+06 -3.12047e-08 4.40535e+06 -8.53735e-09 2.55624e+07)
(669681 -1.17369e+07 2.97192e-08 -4.1709e+07 1.49611e-08 -1.20603e+07)
(6.43913e+07 -1.38359e+07 6.53693e-09 1.46548e+07 1.82974e-09 2.33982e+07)
(6.34014e+07 -1.29507e+07 -1.20908e-08 1.50538e+07 -5.26104e-10 2.36103e+07)
(8.33162e+07 -3.38249e+06 3.83497e-08 1.60952e+06 2.23323e-08 2.52258e+07)
(1.40579e+08 -1.18289e+07 -7.3079e-08 -2.25842e+06 -4.06729e-08 4.10135e+07)
(7.8916e+07 -8.87365e+06 8.56329e-09 1.5123e+07 2.02597e-09 2.8356e+07)
(5.0442e+07 -2.15013e+07 2.09966e-08 -3.82094e+07 3.22438e-08 3.86105e+06)
(1.85953e+08 217465 5.23972e-09 1.00252e+07 1.08643e-08 7.60852e+07)
(2.41206e+08 667739 -3.69315e-08 6.37336e+07 -1.60379e-08 9.93239e+07)
(4.60273e+07 -2.55579e+07 -3.53025e-08 -2.61146e+06 -9.40803e-09 1.30309e+07)
(2.00923e+08 2.6122e+07 2.15477e-09 2.60457e+07 3.81268e-09 6.84317e+07)
(8.02221e+07 -2.93574e+06 1.88689e-08 1.41362e+07 4.72455e-09 2.79751e+07)
(1.59695e+08 -3.9521e+06 -5.80018e-08 -2.26274e+06 -4.47716e-08 4.68627e+07)
(5.04214e+07 -2.24415e+07 1.01213e-08 -3.48964e+07 4.84453e-09 5.0758e+06)
(7.37113e+07 -2.57924e+07 -1.12695e-08 -2.65897e+07 -1.28787e-08 1.45245e+07)
(3.87904e+07 -6.11189e+06 -2.36266e-09 1.2095e+07 -1.79643e-09 1.59709e+07)
(3.36939e+07 -2.08016e+07 9.85307e-09 -2.88055e+06 2.28031e-09 8.89499e+06)
(1.11668e+08 -1.07395e+07 -2.6718e-09 938090 -7.35008e-09 3.32529e+07)
(8.02362e+07 -1.94526e+06 -3.36841e-09 1.02024e+07 3.97428e-10 2.7419e+07)
(1.78725e+08 -435160 -3.56542e-08 296601 -2.74853e-08 5.47458e+07)
(4.96715e+07 -2.71707e+06 4.35543e-09 1.56736e+07 9.67244e-10 1.99969e+07)
(9.07057e+07 -1.47757e+07 2.93906e-09 -1.98227e+07 1.39096e-08 2.03983e+07)
(3.97711e+07 -8.14169e+06 4.33189e-09 1.18625e+07 1.39432e-09 1.58573e+07)
(4.06919e+07 -6.80501e+06 -3.49055e-09 1.21701e+07 -1.55707e-10 1.52398e+07)
(1.2402e+08 -5.25676e+06 3.70374e-08 -2.41121e+07 1.82624e-08 3.01802e+07)
(1.45432e+08 -6.93095e+06 -7.98128e-09 -6.02546e+06 -9.80137e-09 4.21476e+07)
(4.82025e+07 -1.23993e+07 -8.78163e-09 1.29026e+07 5.66679e-11 1.86732e+07)
(8.26074e+07 -2.77756e+06 -1.2976e-08 1.46282e+06 7.38454e-09 2.54368e+07)
(7.49141e+07 -2.23231e+07 7.26863e-10 8.98624e+06 4.0089e-09 2.53271e+07)
(7.61113e+07 -2.22807e+07 5.98396e-09 8.84824e+06 -2.19491e-09 2.50787e+07)
(3.91392e+07 -1.07971e+07 -7.7612e-09 1.0133e+07 -6.06174e-10 1.45511e+07)
(7.66708e+07 -2.5903e+07 -2.46733e-08 -2.22616e+07 -1.12349e-08 1.62495e+07)
(7.72603e+07 -6.90283e+06 -2.23918e-08 1.90836e+07 -4.5812e-09 2.85514e+07)
(3.92687e+07 -9.64167e+06 -2.4472e-09 1.0988e+07 -7.84379e-10 1.54662e+07)
(1.10482e+08 -1.14524e+07 -3.81263e-08 -2.26331e+07 -2.47857e-08 2.64585e+07)
(1.24304e+08 -5.11386e+06 0 -2.2442e+07 0 3.03646e+07)
(1.14351e+08 -9.40962e+06 2.01571e-08 -2.22337e+07 -1.31942e-09 2.74262e+07)
(7.99561e+07 -1.32906e+06 -3.08006e-09 2.79212e+07 -2.78542e-09 3.25667e+07)
(7.96045e+07 -1.33673e+06 -1.96692e-08 2.81384e+07 -2.7774e-09 3.22482e+07)
(8.05603e+07 -665222 -1.13784e-09 885374 -1.89148e-09 2.44333e+07)
(8.07096e+07 -727145 -9.88165e-10 755898 -1.71447e-09 2.44323e+07)
(8.01827e+07 -304174 -3.66763e-10 1.13243e+07 1.16332e-09 2.74194e+07)
(1.48366e+08 2.15254e+07 4.91555e-08 1.6503e+07 4.15459e-08 5.10596e+07)
(7.15623e+07 -2.03437e+07 -2.27183e-08 1.06709e+07 -7.68482e-10 2.50799e+07)
(7.30568e+07 -2.04027e+07 0 1.0316e+07 0 2.47165e+07)
(5.02327e+07 -1.34038e+07 6.45152e-09 1.29063e+07 1.17764e-10 1.8608e+07)
(8.07551e+07 -7.36735e+06 -1.44597e-08 1.00502e+07 -1.82968e-09 2.74331e+07)
(7.94892e+07 -3.43728e+06 1.72458e-08 2.36917e+07 2.30994e-09 3.09729e+07)
(5.91336e+07 -2.934e+07 6.50695e-09 -8.1901e+06 2.18055e-09 1.51497e+07)
(2.3343e+08 1.09805e+07 3.72662e-08 5.74554e+07 1.8712e-08 9.48368e+07)
(8.8845e+07 -7.65521e+06 -1.76439e-08 1.9724e+06 2.43498e-09 2.67129e+07)
(1.06207e+08 -3.21819e+06 1.5282e-08 -337779 -7.29828e-09 3.23539e+07)
(1.06722e+08 -3.69421e+06 -1.10785e-08 358645 -2.06819e-08 3.13696e+07)
(1.14085e+08 -1.43687e+07 -3.22326e-08 753207 -4.93271e-09 3.49227e+07)
(6.69576e+07 -2.51133e+07 3.39378e-08 -2.85801e+07 1.0317e-08 1.07668e+07)
(8.2535e+07 -2.00775e+06 -1.01723e-08 836368 7.08455e-10 2.49246e+07)
(7.97494e+07 -1.4912e+07 -2.27838e-09 1.05215e+07 -5.70601e-10 2.7076e+07)
(7.97842e+07 -1.46305e+07 5.47361e-09 1.06207e+07 -5.09194e-09 2.71991e+07)
(1.15609e+08 -492216 -3.70457e-08 399966 -2.91695e-09 3.45726e+07)
(1.33641e+08 -4.29984e+06 -1.16365e-07 -2.34722e+07 -1.09444e-07 3.34417e+07)
(1.77412e+08 236722 5.04727e-08 -87686.7 1.67113e-08 5.32844e+07)
(8.46623e+07 -1.68463e+07 -3.47113e-08 -3.08151e+07 -2.79065e-08 1.65244e+07)
(-6.38935e+06 -5.83955e+06 -9.06493e-09 -6.07306e+07 -1.0878e-08 -2.12475e+07)
(1.10812e+08 -4.61308e+07 -5.05055e-10 2.28973e+07 -1.31642e-08 6.90311e+07)
(8.96924e+07 -1.38289e+07 1.59359e-08 3.88945e+06 4.17567e-09 2.81107e+07)
(7.05642e+07 -1.19372e+07 -8.71415e-09 1.54074e+07 -4.05955e-09 2.56033e+07)
(1.16771e+08 -1.76203e+06 1.02196e-08 113460 -1.34105e-08 3.48022e+07)
(8.12058e+07 -1.00318e+06 -1.36427e-08 811831 -1.3799e-09 2.44969e+07)
(2.18238e+07 -1.99759e+07 -6.05801e-10 -1.18071e+07 -1.71052e-09 3.4306e+06)
(1.6027e+08 -2.16376e+07 1.0818e-08 -2.71768e+06 -2.80622e-08 5.877e+07)
(3.00474e+07 -2.33535e+07 -3.47532e-08 -2.64366e+07 -1.10433e-08 1.13707e+06)
(1.37351e+08 -1.36601e+07 1.31493e-08 -2.33163e+06 4.12235e-09 4.06017e+07)
(2.06531e+08 9.64007e+06 -6.97472e-08 2.36484e+07 -5.11665e-08 8.18029e+07)
(1.12556e+08 -2.13706e+07 -8.29977e-09 -7.74818e+06 -3.82816e-09 3.20251e+07)
(8.01763e+07 -3.07031e+06 1.42726e-08 1.24632e+07 3.70948e-09 2.78501e+07)
(1.13042e+08 -8.23123e+06 -1.04282e-08 606699 1.11437e-08 3.32923e+07)
(7.0058e+07 -2.24431e+07 1.02348e-08 9.25285e+06 6.2963e-09 2.36148e+07)
(1.03309e+08 -2.41879e+07 5.12021e-09 -4.69239e+06 2.22042e-09 2.91882e+07)
(5.82952e+07 -2.12018e+07 7.27691e-09 9.62157e+06 -6.54093e-10 2.06477e+07)
(4.87822e+07 -1.17811e+07 -2.43878e-10 1.33999e+07 1.76442e-09 1.80019e+07)
(4.78509e+07 -2.07897e+07 2.17936e-08 6.66571e+06 2.91775e-09 1.57928e+07)
(1.16508e+08 -1.67514e+07 -2.95443e-08 -1.32827e+07 -1.95534e-08 3.06082e+07)
(3.82853e+07 -2.07186e+07 -4.10492e-09 1.22992e+06 -8.72237e-10 1.1734e+07)
(-610038 -7.48503e+06 -8.53819e-10 -6.03059e+07 -6.59606e-10 -1.80192e+07)
(8.45287e+07 -4.75696e+06 2.12094e-09 1.90246e+06 -1.32197e-10 2.59444e+07)
(8.48552e+07 -5.14118e+06 1.80674e-09 1.97116e+06 5.64599e-09 2.60297e+07)
(1.63755e+08 -4.62802e+06 1.2349e-08 -705866 8.16024e-09 4.95602e+07)
(8.02804e+07 -474535 -1.97049e-08 999471 -9.05402e-09 2.4507e+07)
(8.33186e+07 -1.04673e+07 2.77109e-09 6.6039e+06 -8.00336e-09 2.72104e+07)
(8.00153e+07 -3.93408e+06 2.2934e-08 1.7676e+07 5.64816e-09 2.9381e+07)
(6.67813e+07 -2.62667e+07 -3.02568e-09 4.90346e+06 -5.4537e-10 2.17854e+07)
(3.89975e+07 -599610 -5.14306e-09 1.22721e+07 -1.57921e-10 1.53657e+07)
(1.12831e+08 -2.12167e+07 1.98581e-08 -6.63584e+06 9.8173e-09 3.104e+07)
(9.9497e+07 -2.51851e+07 -2.12835e-08 -913149 -6.65976e-09 2.98729e+07)
(7.61173e+07 -2.8448e+07 -2.76021e-08 -419350 -1.04987e-08 2.26269e+07)
(8.07137e+07 -1.815e+07 0 8.91589e+06 0 2.69985e+07)
(9.00355e+07 -1.58295e+07 -2.03885e-08 -1.42968e+07 -3.25406e-08 2.13389e+07)
(9.64757e+07 -1.0326e+07 -5.80513e-10 1.16536e+06 5.95415e-09 2.96146e+07)
(6.50716e+07 -7.96966e+06 -3.72819e-09 1.67549e+07 1.45205e-09 2.43425e+07)
(1.42746e+08 8.6863e+06 -3.54522e-08 1.97985e+07 -1.7528e-08 4.95216e+07)
(8.35347e+07 -1.01879e+07 -6.8886e-09 6.5407e+06 -8.26468e-10 2.68735e+07)
(1.36501e+08 -1.20892e+07 -1.75729e-08 -1.28337e+06 -4.24751e-09 4.08435e+07)
(8.05689e+07 -7.13619e+06 -2.95656e-09 1.06493e+07 -3.38624e-09 2.73503e+07)
(7.9525e+07 -8.67805e+06 1.11149e-08 1.45792e+07 3.04545e-09 2.82333e+07)
(7.63779e+07 -1.67318e+07 1.52071e-08 1.1616e+07 3.92925e-09 2.62492e+07)
(6.70319e+07 -2.51708e+07 -9.8825e-09 6.77679e+06 8.2557e-10 2.18746e+07)
(7.67707e+07 -2.8273e+07 -2.04515e-08 -384414 -6.33707e-09 2.32653e+07)
(7.96322e+07 -2.81008e+06 1.1107e-08 2.44938e+07 2.63317e-09 3.13185e+07)
(7.56321e+07 -1.89434e+06 7.58814e-09 2.1167e+07 -8.75512e-10 2.90029e+07)
(7.59634e+07 -1.45357e+06 9.8346e-09 2.15091e+07 9.02725e-10 2.93829e+07)
(7.67502e+07 -7.30628e+06 9.3081e-09 1.85917e+07 4.09505e-09 2.88609e+07)
(7.63871e+07 -1.24105e+07 7.32239e-09 1.43407e+07 6.43737e-09 2.71752e+07)
(8.01212e+07 -4.06399e+06 -1.37598e-08 1.32389e+07 -4.30448e-09 2.78437e+07)
(8.00029e+07 -2.34082e+06 1.50721e-09 2.5297e+07 1.2541e-09 3.12982e+07)
(1.89595e+07 -9.1302e+06 3.81842e-09 -3.77503e+06 1.01643e-09 4.06273e+06)
(8.57994e+07 -1.91068e+07 -4.30665e-09 6.76265e+06 5.0021e-09 2.72722e+07)
(7.98486e+07 -6.32406e+06 -3.11143e-08 1.62915e+07 -3.51908e-09 2.90683e+07)
(6.63909e+07 -2.34405e+07 1.59018e-08 -3.16879e+07 -6.27741e-09 1.11803e+07)
(4.98004e+07 -1.41651e+07 -8.2049e-09 1.25485e+07 -1.17018e-09 1.93139e+07)
(4.31226e+07 -2.33177e+07 1.84966e-08 -3.49999e+07 2.92183e-08 2.87518e+06)
(7.26521e+07 -7.612e+06 -1.07661e-08 1.77303e+07 -1.18157e-09 2.72957e+07)
(7.31972e+07 -6.95632e+06 7.47074e-09 1.80124e+07 -1.82478e-09 2.72807e+07)
(4.99238e+07 -2.27778e+07 -1.94469e-08 -3.56982e+07 -1.54053e-08 4.03168e+06)
(8.18241e+07 -2.81714e+07 -7.21143e-09 -2.98967e+06 -1.36611e-09 2.41814e+07)
(7.22043e+07 -2.66048e+07 -5.51422e-09 4.72284e+06 -3.05216e-09 2.33728e+07)
(8.05531e+07 -3.26252e+06 -1.60194e-08 6.02178e+06 -5.92449e-09 2.62692e+07)
(1.57769e+08 -7.59866e+06 -1.73013e-09 -1.60666e+07 -2.25287e-09 5.05284e+07)
(1.35863e+08 1.43572e+06 0 -1.11586e+06 0 4.00744e+07)
(1.09406e+08 -1.95067e+07 -1.20628e-08 621076 -2.42586e-09 3.34508e+07)
(2.05245e+08 1.04021e+07 -4.94391e-09 2.7078e+07 -4.86854e-09 8.18832e+07)
(1.58809e+08 -2.98135e+07 -1.01066e-07 7.43168e+06 -7.66777e-08 5.19493e+07)
(1.54852e+08 -3.07218e+07 -4.38339e-08 4.00719e+06 -6.0542e-08 5.24891e+07)
(7.32048e+07 -2.62971e+07 2.52992e-08 4.80522e+06 4.72849e-09 2.33976e+07)
(3.73278e+07 -7.17833e+06 -9.84134e-09 1.07235e+07 -1.3917e-09 1.48026e+07)
(3.95699e+07 -8.71176e+06 -2.52002e-09 1.13449e+07 3.89661e-10 1.45773e+07)
(1.61542e+08 -4.02433e+06 7.92893e-08 -1.49043e+07 7.3239e-08 4.92371e+07)
(6.12563e+07 -1.9831e+07 0 1.1087e+07 0 2.20148e+07)
(4.61928e+07 -2.05951e+07 -1.09881e-08 6.45898e+06 -7.96631e-10 1.62215e+07)
(1.03643e+08 -1.84118e+07 1.91403e-08 2.28115e+06 -6.66266e-10 3.15059e+07)
(9.88113e+07 -8.32161e+06 2.07367e-09 1.03855e+06 1.22074e-08 2.95139e+07)
(6.60018e+07 -2.16101e+07 7.3701e-08 -3.36757e+07 2.81741e-08 9.33727e+06)
(4.93128e+07 -3.48444e+06 -9.29359e-09 1.52812e+07 -5.72706e-10 1.9257e+07)
(1.07124e+08 -2.31052e+07 -1.01899e-09 -2.80689e+06 -4.37043e-09 3.09103e+07)
(1.70491e+08 562323 1.89651e-08 744812 1.79045e-08 5.12462e+07)
(8.67769e+07 -3.19085e+06 1.21686e-08 401214 -1.23057e-09 2.60461e+07)
(7.65805e+07 -2.44793e+07 -1.3115e-08 6.8015e+06 -9.18399e-09 2.51623e+07)
(1.0668e+08 -2.07859e+07 1.62902e-08 1.3359e+06 -2.49798e-09 3.20473e+07)
(-1.11527e+07 -738496 1.3274e-08 -7.49924e+07 2.85496e-08 -2.65753e+07)
(1.01102e+08 -1.61571e+07 -1.53475e-08 2.06625e+06 4.64229e-09 3.10271e+07)
(-4.4467e+06 -4.75994e+06 2.46929e-08 -6.10042e+07 3.1901e-08 -1.8693e+07)
(7.59373e+07 -2.63592e+07 3.1093e-08 -2.2841e+07 1.81388e-08 1.56446e+07)
(8.99726e+07 -1.63675e+07 -3.94992e-08 -3.13314e+07 -1.49828e-08 1.713e+07)
(7.93119e+07 -730660 -1.40971e-08 2.77873e+07 -1.60427e-09 3.2065e+07)
(8.02144e+07 -157234 -1.1997e-08 105435 -5.3945e-09 2.409e+07)
(1.22747e+08 -6.28381e+06 2.90027e-08 -2.33635e+07 1.28357e-08 2.99895e+07)
(8.13432e+07 -5.35408e+06 3.05999e-09 6.51146e+06 8.21415e-09 2.61594e+07)
(6.23141e+07 -2.01898e+07 0 1.09626e+07 0 2.19811e+07)
(7.86688e+07 -1.16275e+07 -6.27056e-09 1.36257e+07 4.23194e-09 2.74047e+07)
(7.8201e+07 -1.17245e+07 9.09171e-09 1.36366e+07 -1.15126e-09 2.78566e+07)
(7.62121e+07 -1.58335e+07 -1.80743e-08 1.23565e+07 -5.46285e-09 2.62125e+07)
(1.07694e+08 -2.19289e+07 -2.52972e-08 -9.24032e+06 -1.14776e-08 2.8379e+07)
(1.58448e+08 1.30037e+07 -8.68934e-08 -1.01514e+07 -7.65524e-08 4.47926e+07)
(6.82419e+07 -1.9778e+07 -1.16486e-08 1.1264e+07 1.06272e-09 2.39091e+07)
(8.01789e+07 -1.2663e+06 0 1.05341e+07 0 2.72128e+07)
(8.03209e+07 -3.74932e+06 1.06515e-08 1.33689e+07 3.22221e-09 2.82711e+07)
(-6.89257e+06 1.80756e+07 -9.77561e-09 -9.73452e+07 -3.42173e-09 -3.17913e+07)
(1.09104e+08 -2.34904e+07 2.13589e-08 -2.90461e+06 7.91967e-09 3.17503e+07)
(3.77999e+07 -2.07693e+07 0 1.00654e+06 0 1.1573e+07)
(8.63215e+07 -3.45193e+06 0 583669 0 2.61014e+07)
(1.38739e+08 -1.22311e+07 1.66113e-09 -1.31033e+06 5.5414e-09 4.11048e+07)
(6.52368e+07 -5.54417e+06 0 1.732e+07 0 2.44806e+07)
(1.69872e+08 1.13906e+07 -6.9272e-09 -1.09494e+07 -1.50144e-08 5.61464e+07)
(7.4308e+07 -8.5624e+06 -1.25849e-10 1.7353e+07 5.66922e-10 2.78132e+07)
(3.03207e+07 -1.73113e+07 -7.91648e-09 -4.17828e+07 3.48557e-08 -3.13965e+06)
(3.84646e+07 -1.92663e+07 -7.61098e-09 4.39665e+06 -1.50865e-09 1.29831e+07)
(4.48771e+06 -1.27182e+07 -2.70905e-08 -4.12656e+07 -1.15294e-08 -1.05414e+07)
(1.46883e+08 6.06135e+06 5.44767e-08 -1.49172e+07 2.82725e-08 4.02117e+07)
(3.9235e+07 -1.79382e+07 8.04728e-09 5.19771e+06 7.25014e-10 1.31203e+07)
(7.53282e+07 -1.57109e+06 6.71122e-09 2.0783e+07 4.9672e-09 2.891e+07)
(7.89616e+07 -3.89034e+06 4.29376e-09 2.30501e+07 1.78711e-09 3.0579e+07)
(7.96366e+07 -2.58236e+06 9.16697e-09 2.54019e+07 2.14309e-09 3.13799e+07)
(4.72585e+07 -1.76536e+07 -8.21165e-09 9.21624e+06 1.12027e-10 1.72224e+07)
(6.79359e+07 -2.18533e+07 -1.62828e-08 9.6901e+06 -7.26061e-09 2.34607e+07)
(1.55071e+08 -4.68244e+06 4.30428e-08 -2.0945e+06 3.84393e-08 4.58983e+07)
(4.73934e+07 -1.66803e+07 9.67755e-09 1.02296e+07 2.32747e-09 1.62388e+07)
(1.23222e+08 -3.91513e+06 -1.07774e-08 -260296 -9.33756e-09 3.62146e+07)
(1.78782e+08 2.65747e+07 -2.76358e-08 -1.3046e+06 -1.03958e-08 5.994e+07)
(1.78757e+08 1.21285e+06 -4.91548e-08 -1.8519e+06 -4.18536e-08 6.79032e+07)
(8.27032e+07 -1.06454e+06 -2.02122e-08 130521 -7.2913e-09 2.50233e+07)
(7.62174e+07 -1.15081e+06 -9.93733e-09 2.16791e+07 -4.92534e-10 2.92076e+07)
(1.01029e+08 -1.02934e+07 -5.60081e-08 1.12218e+06 -5.08367e-09 3.0709e+07)
(8.76213e+07 -2.76007e+07 -2.07365e-08 -409910 -9.32998e-09 2.558e+07)
(1.90332e+08 2.51223e+07 7.35401e-08 1.01135e+07 6.41537e-08 6.91199e+07)
(1.51306e+08 1.83005e+07 1.45431e-08 2.31199e+07 1.27198e-08 5.237e+07)
(5.68913e+07 -1.06135e+06 1.15043e-08 1.67648e+07 2.01766e-09 2.19604e+07)
(7.58583e+07 -2.58665e+07 1.75133e-09 5.22204e+06 2.83357e-09 2.40942e+07)
(7.44558e+07 -2.61026e+07 1.04655e-08 5.47017e+06 4.34203e-10 2.39572e+07)
(8.1944e+07 -5.59825e+06 4.17315e-09 5.0494e+06 9.68836e-09 2.63162e+07)
(6.25971e+07 -2.5228e+07 3.36931e-08 -2.8415e+07 1.94913e-08 1.04616e+07)
(7.65842e+07 -1.71756e+07 -2.34728e-08 -3.13496e+07 -2.94193e-08 1.43349e+07)
(7.96781e+07 -345030 1.46401e-08 2.91514e+07 1.46128e-09 3.25135e+07)
(7.99858e+07 -20520.6 9.35317e-09 27878.7 6.58266e-09 2.40405e+07)
(2.04615e+08 3.03014e+07 2.6714e-08 2.80314e+07 2.13167e-08 6.86451e+07)
(1.11594e+08 -1.02333e+07 0 763178 0 3.39324e+07)
(-4.72958e+06 -4.07318e+06 -4.13914e-08 -6.21619e+07 -3.96584e-08 -1.94908e+07)
(8.16674e+07 -4.15283e+06 1.596e-08 4.11258e+06 -3.06849e-09 2.59089e+07)
(7.51111e+07 -4.46766e+06 -1.78606e-09 1.97632e+07 1.36068e-09 2.83855e+07)
(9.54834e+07 -2.19938e+07 2.57573e-08 3.22872e+06 1.90718e-08 2.92981e+07)
(7.34997e+07 -2.2949e+07 3.29858e-08 8.66743e+06 3.86344e-09 2.4993e+07)
(3.77106e+07 -1.38926e+07 -1.02307e-08 8.02719e+06 -1.57395e-09 1.42929e+07)
(6.00563e+07 -2.16867e+07 8.59976e-09 9.48089e+06 -7.69458e-10 2.04709e+07)
(5.74438e+07 -1.88586e+07 1.24237e-08 1.13391e+07 -2.99721e-10 2.08202e+07)
(-8.41671e+06 1.14068e+07 -5.10532e-10 -1.10579e+08 -1.2212e-09 -3.6049e+07)
(5.81127e+07 -2.07953e+07 1.37565e-08 9.79298e+06 2.19913e-09 2.02669e+07)
(1.54014e+08 -1.55137e+07 3.15577e-08 -1.27142e+07 3.99307e-08 4.35148e+07)
(1.08306e+08 -2.28883e+07 -2.65103e-08 -4.80422e+06 -1.1636e-08 3.05023e+07)
(1.05502e+08 -2.43186e+07 -2.66242e-08 -5.30266e+06 -1.17502e-08 3.08379e+07)
(5.20891e+07 -1.57568e+07 -1.29434e-08 1.23919e+07 1.05081e-09 1.93528e+07)
(1.17281e+08 -1.6498e+07 5.57903e-10 -1.3047e+07 9.60604e-10 3.13371e+07)
(9.75931e+07 -8.92961e+06 -3.76757e-08 657239 -1.60382e-08 3.00274e+07)
(7.91077e+07 -733702 2.29329e-08 2.606e+07 -2.19023e-09 3.16079e+07)
(8.03888e+07 -194818 -3.11913e-09 152887 -1.17998e-09 2.41737e+07)
(1.49127e+08 1.29106e+07 -3.01091e-08 2.34671e+07 -1.3639e-08 5.19934e+07)
(1.10686e+08 -1.71719e+07 -3.264e-08 783115 -2.86615e-09 3.42806e+07)
(1.07706e+08 -2.24865e+07 -3.94713e-09 -8.6516e+06 -6.87066e-10 3.07458e+07)
(1.46965e+07 -8.60027e+06 3.01931e-08 -5.08057e+07 1.13414e-08 -1.27982e+07)
(7.05554e+07 -2.90821e+07 -1.4009e-08 -1.34574e+07 -3.90787e-09 1.77684e+07)
(1.29288e+08 -7.37337e+06 2.72304e-08 -1.54762e+07 1.35055e-08 3.44679e+07)
(1.37842e+08 -1.35624e+07 -3.30316e-08 -2.41924e+06 -1.98065e-08 4.08326e+07)
(1.14652e+08 -1.4871e+07 1.70998e-08 497442 2.1052e-08 3.42452e+07)
(8.00241e+07 -4.49953e+06 9.92162e-09 1.57962e+07 1.3191e-09 2.90584e+07)
(-8.49548e+06 5.70996e+06 9.17486e-09 -1.11864e+08 6.51338e-09 -3.69609e+07)
(6.98235e+07 -2.30662e+07 1.53958e-08 8.83088e+06 4.76303e-10 2.37657e+07)
(1.33807e+08 -1.26851e+07 -4.56837e-09 -5.90747e+06 -3.44767e-09 3.7625e+07)
(2.443e+08 -2.78929e+06 -1.82776e-08 6.71817e+07 -1.42131e-08 1.22265e+08)
(6.88908e+06 -6.06476e+06 7.90604e-09 -1.81067e+07 6.81743e-09 -3.69595e+06)
(8.02099e+07 -1.18251e+06 -1.15455e-08 1.1854e+07 -3.79433e-09 2.77995e+07)
(8.03545e+07 -2.86202e+06 -4.2412e-09 1.42156e+07 2.81249e-10 2.84881e+07)
(8.23428e+07 -5.67514e+06 -1.43016e-08 4.42129e+06 -4.15654e-09 2.62944e+07)
(1.10727e+08 -9.18515e+06 -5.07854e-09 747618 -6.99669e-09 3.39662e+07)
(4.58994e+06 -7.73761e+06 0 -1.84413e+07 0 -3.94314e+06)
(5.8088e+07 -2.00799e+07 1.70662e-08 1.05123e+07 4.39697e-09 2.08576e+07)
(1.60871e+08 3.26724e+07 3.10916e-08 5.72956e+06 2.5968e-08 5.13541e+07)
(1.4862e+08 2.88412e+07 3.11982e-08 -3.93047e+06 6.49366e-08 4.52963e+07)
(8.57994e+07 -2.78322e+07 5.84466e-09 -4.82206e+06 2.57954e-09 2.37727e+07)
(8.59911e+07 -2.81237e+07 3.85604e-09 -4.08303e+06 2.01848e-09 2.52041e+07)
(8.02248e+07 -2.36942e+06 -1.54256e-08 1.00733e+07 -5.85187e-09 2.68838e+07)
(1.42308e+08 -7.80596e+06 1.10106e-08 -239344 1.70386e-08 4.18739e+07)
(6.14769e+07 -2.45701e+07 -4.25656e-08 6.20466e+06 -8.65851e-09 2.08704e+07)
(8.16728e+07 -2.52355e+06 3.68298e-09 1.89524e+06 8.278e-09 2.52909e+07)
(3.80166e+07 -2.56071e+07 1.9935e-08 -9.10032e+06 1.04525e-08 8.77858e+06)
(3.69242e+07 -2.50507e+07 1.14651e-08 -2.49531e+07 5.54367e-09 2.72555e+06)
(1.1197e+08 -1.77906e+07 2.27944e-08 599567 -3.47018e-09 3.30655e+07)
(1.13077e+08 -1.01463e+07 3.36581e-08 -2.61792e+07 2.67911e-08 2.60616e+07)
(3.31901e+07 -2.62227e+07 2.5928e-08 -2.51864e+07 1.36412e-08 3.09702e+06)
(7.87734e+07 -4.06865e+06 -1.67621e-09 2.27949e+07 1.81991e-09 3.03035e+07)
(7.82788e+07 -4.41116e+06 -1.84789e-08 2.18474e+07 -1.65007e-09 2.97448e+07)
(1.51864e+08 3.94479e+06 1.245e-07 -2.36354e+07 1.18562e-07 3.92131e+07)
(1.54898e+08 -2.71916e+06 1.20485e-08 -4.37647e+06 2.20116e-09 4.5079e+07)
(4.59152e+07 -2.6632e+07 5.89683e-09 -3.59783e+06 2.56984e-09 1.25816e+07)
(6.92536e+07 -2.24611e+07 -1.57894e-08 9.65822e+06 -6.80562e-09 2.34036e+07)
(1.52667e+08 -1.2394e+07 -1.83764e-08 -1.53167e+07 1.3775e-09 4.08775e+07)
(7.84144e+07 -3.72177e+06 5.35615e-09 2.31733e+07 -6.69947e-10 3.04352e+07)
(2.78858e+07 -1.13159e+07 1.36133e-08 2.81801e+06 3.09951e-09 8.52974e+06)
(2.8042e+07 -1.16337e+07 0 4.50617e+06 0 1.0416e+07)
(9.05131e+07 -1.17382e+07 -8.07052e-09 2.74134e+06 -1.00117e-08 2.81009e+07)
(7.01428e+07 -9.77842e+06 -1.73477e-08 1.65417e+07 -4.45752e-09 2.59679e+07)
(5.79121e+07 -1.84439e+07 5.00901e-09 1.1635e+07 -3.16861e-10 2.10048e+07)
(7.58042e+07 -1.23044e+07 5.89821e-10 1.45596e+07 5.06495e-10 2.72474e+07)
(8.01449e+07 -313390 -2.52472e-09 3.08606e+07 -8.06243e-10 3.3235e+07)
(8.02613e+07 40880.5 -2.61102e-09 48977.7 -6.83457e-09 2.40948e+07)
(4.33968e+07 -1.64818e+07 2.15923e-08 9.05027e+06 1.708e-09 1.54179e+07)
(5.75011e+07 -278491 1.39311e-09 1.70364e+07 9.92385e-10 2.22794e+07)
(6.64458e+07 -2.11046e+07 -1.22897e-08 -3.44372e+07 -2.14504e-08 8.8181e+06)
(6.85714e+07 -2.78725e+07 5.50102e-09 477979 2.61912e-09 2.03633e+07)
(4.98554e+07 -9.36637e+06 3.78079e-09 1.44751e+07 -1.2725e-09 1.97785e+07)
(1.8144e+07 -1.63224e+07 -5.52494e-09 -1.15034e+07 -5.69931e-10 1.63921e+06)
(3.73679e+07 -6.81163e+06 -6.268e-09 1.09793e+07 -3.67678e-10 1.43238e+07)
(3.2885e+07 -8.24139e+06 5.17271e-09 7.44356e+06 7.81847e-10 1.18032e+07)
(3.05542e+07 -7.27144e+06 5.92706e-09 7.63443e+06 9.70591e-10 1.20984e+07)
(5.75781e+07 -1.70942e+07 9.19263e-09 1.23987e+07 1.52379e-09 2.06976e+07)
(9.15059e+07 -1.07413e+07 2.26397e-08 2.50145e+06 1.20203e-08 2.75772e+07)
(6.94395e+07 -8.81165e+06 9.38458e-09 1.66522e+07 1.68781e-09 2.64159e+07)
(5.50358e+07 -2.803e+07 -1.04998e-08 -7.50994e+06 -2.27652e-09 1.41469e+07)
(9.08419e+07 -1.21147e+07 3.06878e-08 2.88556e+06 -3.83732e-09 2.80814e+07)
(6.99231e+07 -1.0106e+07 -4.30499e-09 1.62727e+07 -4.99041e-09 2.58209e+07)
(8.5175e+07 -2.64013e+07 1.31311e-08 2.65727e+06 6.60981e-09 2.66606e+07)
(8.77597e+07 -2.64484e+07 6.52353e-08 2.22534e+06 2.33353e-08 2.65416e+07)
(1.73493e+08 3.207e+06 -3.77688e-08 -696667 -3.42093e-08 5.13039e+07)
(9.25087e+07 -1.72763e+07 -1.10712e-08 3.7815e+06 2.49968e-09 2.9106e+07)
(8.05143e+07 -3.12314e+06 -5.10031e-09 6.4916e+06 -4.73745e-09 2.58586e+07)
(5.71727e+07 -1.78428e+07 -7.35186e-09 1.18285e+07 -1.79502e-10 2.09311e+07)
(2.993e+07 -483075 -6.6706e-11 8.12116e+06 7.78638e-10 1.15174e+07)
(8.5219e+07 -8.8257e+06 -1.42373e-08 3.98568e+06 -2.58018e-09 2.69863e+07)
(4.13004e+07 -1.11542e+07 -1.48053e-08 1.10339e+07 -5.75172e-10 1.5805e+07)
(4.32456e+07 -2.67269e+07 1.75474e-08 -9.26248e+06 6.1399e-09 9.16523e+06)
(3.93798e+07 -2.6025e+07 -2.34216e-09 -9.87763e+06 -1.90836e-09 9.53791e+06)
(1.09176e+08 -1.86664e+07 -2.285e-08 612184 -2.82249e-09 3.30906e+07)
(1.16476e+08 -3.84146e+07 1.86574e-08 2.13211e+07 -4.47299e-08 8.42823e+07)
(8.10947e+07 -4.8232e+06 1.90467e-08 6.10229e+06 3.91184e-09 2.62531e+07)
(1.76423e+08 -54533.1 4.27123e-09 -190356 2.69124e-09 5.21662e+07)
(1.78245e+08 -1.59086e+06 -1.81903e-10 -308674 2.76401e-10 5.3277e+07)
(1.06008e+08 -1.60682e+07 -7.3096e-09 -2.17114e+07 7.43305e-09 2.45286e+07)
(2.53191e+07 -2.00381e+07 2.1608e-08 -7.92042e+06 7.79795e-09 5.30239e+06)
(7.96488e+07 -509476 1.09978e-09 2.76068e+07 -3.88589e-10 3.21003e+07)
(8.04277e+07 -54113.6 7.14788e-09 87009.8 -1.13331e-08 2.41971e+07)
(5.20552e+07 -2.62039e+07 -2.25297e-10 1.13884e+06 -5.82355e-11 1.61679e+07)
(9.26574e+07 -1.69323e+07 -7.49977e-10 -2.86847e+07 2.27251e-09 1.83452e+07)
(2.58037e+07 -1.80071e+07 -2.29748e-08 -5.91795e+06 -6.69618e-09 5.56254e+06)
(4.25009e+07 -8.50291e+06 6.56198e-08 -2.14979e+07 3.28126e-08 1.00463e+07)
(1.04006e+08 -1.92732e+07 3.51231e-08 2.07276e+06 1.23355e-08 3.17048e+07)
(9.27798e+07 -1.03835e+07 1.13084e-08 1.94596e+06 -1.15052e-08 2.87287e+07)
(6.82978e+07 -8.29206e+06 0 1.66976e+07 0 2.52762e+07)
(1.06443e+08 -1.75398e+07 -3.89643e-08 -2.1164e+07 -1.23336e-08 2.66868e+07)
(7.99378e+06 -1.61062e+07 -2.40236e-08 -3.62396e+07 -1.91614e-09 -8.5437e+06)
(7.99914e+07 -813626 -8.40201e-09 2.99495e+07 -3.57495e-10 3.3003e+07)
(8.03454e+07 -81809.5 2.59173e-08 219646 2.1661e-09 2.41667e+07)
(1.67425e+08 3.2251e+07 7.44211e-08 -5.69301e+06 7.55346e-08 4.69337e+07)
(1.12716e+08 -9.17702e+06 5.80516e-08 -2.60048e+07 3.1897e-08 2.54734e+07)
(5.60682e+07 -4.52593e+06 8.35104e-10 1.61425e+07 -3.51324e-09 2.19655e+07)
(1.24416e+08 -4.71582e+06 -3.49896e-08 -2.3019e+07 -2.07323e-08 3.04804e+07)
(1.73309e+08 3.30756e+07 -4.72944e-08 1.13176e+07 -4.38411e-08 5.58471e+07)
(7.04164e+07 -2.65379e+07 5.5821e-09 4.39695e+06 2.94168e-09 2.22188e+07)
(7.46852e+07 -5.01506e+06 -4.10591e-09 1.9517e+07 -4.68043e-09 2.82663e+07)
(1.33081e+08 -1.29979e+07 -2.5366e-08 -6.00505e+06 -1.43501e-08 3.917e+07)
(-9.23094e+06 -1.01117e+06 -6.26211e-09 -7.63719e+07 -1.49209e-08 -2.55774e+07)
(8.82148e+07 -1.80887e+07 1.30906e-08 5.30246e+06 -4.31201e-10 2.83586e+07)
(1.63049e+08 3.05246e+07 -1.43515e-08 1.33773e+07 -1.38735e-08 5.3176e+07)
(1.10205e+08 -9.75177e+06 7.19237e-09 834537 7.28461e-09 3.25084e+07)
(1.68523e+08 3.50764e+07 1.42824e-08 -579644 3.26265e-08 4.90827e+07)
(7.84242e+07 -3.24667e+06 -1.36214e-09 2.28576e+07 -5.24092e-11 3.0127e+07)
(1.70263e+08 -3.19237e+06 1.91702e-08 -712829 1.12455e-08 5.11712e+07)
(1.24547e+08 -1.61027e+07 -3.2042e-08 -7.61011e+06 -1.86618e-08 3.58188e+07)
(1.29241e+08 -1.58765e+07 -1.86204e-08 -3.59634e+06 -9.72158e-09 3.74564e+07)
(8.01088e+07 -6.81582e+06 0 1.39677e+07 0 2.78815e+07)
(1.57956e+08 1.35318e+07 -1.4861e-08 -8.21461e+06 -2.66113e-08 4.46127e+07)
(8.56038e+07 -9.68434e+06 2.59873e-08 4.11751e+06 2.3994e-09 2.72813e+07)
(9.33962e+07 -1.70671e+07 -4.02402e-08 3.60092e+06 -6.34412e-09 2.89999e+07)
(-9.86023e+06 1.63509e+06 2.66731e-09 -1.02246e+08 -5.67962e-09 -3.40855e+07)
(8.8381e+07 -1.74486e+07 -1.55178e-08 5.2173e+06 2.2991e-09 2.79314e+07)
(8.0431e+07 -252241 4.04249e-10 1.82422e+07 -2.95221e-11 2.9519e+07)
(-1.09764e+07 2.0275e+06 6.3215e-09 -8.98697e+07 8.94814e-09 -3.26372e+07)
(9.30889e+07 -2.22927e+07 6.8126e-09 3.73539e+06 -2.88567e-09 2.95665e+07)
(1.37245e+08 -4.54277e+07 -7.31709e-08 2.44585e+07 -3.09563e-08 6.44829e+07)
(1.5269e+07 -1.53273e+07 1.38731e-08 -1.46575e+07 6.31109e-09 42523.9)
(1.71439e+08 2.12711e+07 3.66617e-10 -7.70583e+06 1.07328e-08 5.49416e+07)
(1.46999e+08 6.29539e+06 7.7425e-09 -1.33352e+07 -2.92152e-08 3.95146e+07)
(8.16556e+06 -1.22017e+07 3.82204e-08 -4.82219e+07 2.30818e-08 -1.20188e+07)
(1.54829e+07 -2.36513e+06 5.11121e-10 -2.46134e+06 1.10388e-09 4.62064e+06)
(6.09321e+07 -2.03148e+07 7.85559e-08 -3.43874e+07 8.1708e-09 8.76173e+06)
(1.2813e+08 -1.69336e+07 2.07561e-08 -1.55194e+06 1.0326e-08 3.82247e+07)
(9.28382e+07 -1.59948e+07 -4.73958e-09 3.6514e+06 9.42993e-09 2.87692e+07)
(7.72575e+07 -1.70325e+07 -3.81812e-08 -3.24899e+07 -3.21253e-08 1.23869e+07)
(1.58061e+08 1.63891e+07 -2.01043e-08 -1.11055e+07 2.81688e-09 4.27046e+07)
(1.5233e+08 -2.80461e+07 3.96351e-08 260068 2.77493e-08 4.29113e+07)
(8.16246e+07 -1.75768e+06 3.25273e-08 1.0612e+06 1.17491e-08 2.50399e+07)
(8.15815e+07 -1.60852e+06 -1.22824e-09 1.06151e+06 -4.84296e-09 2.47652e+07)
(2.83142e+07 -1.34551e+07 -1.34501e-08 1.75349e+06 -2.91783e-09 8.86317e+06)
(2.61955e+07 -1.27577e+07 -2.26623e-09 2.16152e+06 -3.90426e-10 9.02372e+06)
(1.64112e+08 1.81255e+07 0 2.15365e+07 0 5.57178e+07)
(1.58033e+08 1.59178e+07 2.26355e-08 -1.04784e+07 6.01693e-08 4.46032e+07)